# kMean  POINT_DATA 63140
# x  y  z  kMean
0 0.1 0 0.00375
0 0.1 -0.0179898 0.00375
0 0.1 0.0179898 0.00375
0.0363518 0.1 0.0179898 0.00374779
0.0363518 0.1 -0.0179898 0.00374781
0 0.1 -0.0570102 0.00375
0 0.1 0.0570102 0.00375
0.0363518 0.1 0.0570102 0.00374779
0.0363518 0.1 -0.0570102 0.00374781
0 0.1 -0.075 0.00375
0 0.1 0.075 0.00375
0.075776 0.1 -0.0375 0.00374519
0.075776 0.1 0.0375 0.00374514
0 0.1 -0.0929898 0.00375
0 0.1 0.0929898 0.00375
0.0363518 0.1 -0.0929898 0.00374802
0.0363518 0.1 0.0929898 0.00374792
0 0.1 -0.13201 0.00375
0 0.1 0.13201 0.00375
0.075776 0.1 -0.1125 0.00374561
0.075776 0.1 0.1125 0.0037454
0.0363518 0.1 -0.13201 0.00374802
0.0363518 0.1 0.13201 0.00374792
0 0.1 -0.15 0.00375
0 0.1 0.15 0.00375
0.150379 0.1 -2.22623e-17 0.00373913
0 0.1 -0.16799 0.00375
0 0.1 0.16799 0.00375
0.150379 0.1 -0.075 0.00373968
0.150379 0.1 0.075 0.00373915
0.0363518 0.1 -0.16799 0.00374827
0.0363518 0.1 0.16799 0.0037482
0.075776 0.1 -0.1875 0.00374614
0.075776 0.1 0.1875 0.00374597
0 0.1 -0.20701 0.00375
0 0.1 0.20701 0.00375
0.0363518 0.1 -0.20701 0.00374827
0.0363518 0.1 0.20701 0.0037482
0.150379 0.1 -0.15 0.00374047
0.150379 0.1 0.15 0.00373975
0.219993 0.1 -0.0375 0.00373365
0.219993 0.1 0.0375 0.00373307
0 0.1 -0.225 0.00375
0 0.1 0.225 0.00375
0 0.1 -0.24299 0.00375
0 0.1 0.24299 0.00375
0.0363518 0.1 0.24299 0.00374855
0.0363518 0.1 -0.24299 0.00374851
0.219993 0.1 -0.1125 0.0037348
0.219993 0.1 0.1125 0.00373353
0.150379 0.1 -0.225 0.00374122
0.150379 0.1 0.225 0.00374069
0.075776 0.1 -0.2625 0.00374663
0.075776 0.1 0.2625 0.00374671
0 0.1 -0.28201 0.00375
0 0.1 0.28201 0.00375
0.0363518 0.1 -0.28201 0.00374851
0.0363518 0.1 0.28201 0.00374855
0.287374 0.1 -2.89121e-19 0.00372673
0.219992 0.1 0.1875 0.00373463
0.219992 0.1 -0.1875 0.00373581
0.287374 0.1 -0.075 0.00372781
0.287374 0.1 0.075 0.00372643
0 0.1 -0.3 0.00375
0 0.1 0.3 0.00375
0 0.1 0.31799 0.00375
0 0.1 -0.31799 0.00375
0.0363518 0.1 -0.31799 0.00374873
0.0363518 0.1 0.31799 0.00374889
0.287374 0.1 0.15 0.00372707
0.287374 0.1 -0.15 0.00372908
0.150379 0.1 -0.3 0.00374194
0.150379 0.1 0.3 0.00374175
0.219993 0.1 0.2625 0.00373595
0.219993 0.1 -0.2625 0.00373677
0.075776 0.1 -0.3375 0.00374708
0.075776 0.1 0.3375 0.00374741
0.350249 0.1 -0.0375 0.00372089
0.350249 0.1 0.0375 0.00371983
0 0.1 -0.35701 0.00375
0 0.1 0.35701 0.00375
0.0363518 0.1 -0.35701 0.00374873
0.0363518 0.1 0.35701 0.00374889
0.287374 0.1 -0.225 0.00373019
0.287374 0.1 0.225 0.00372831
0.350249 0.1 -0.1125 0.00372244
0.350249 0.1 0.1125 0.00371984
0 0.1 -0.375 0.00375
0 0.1 0.375 0.00375
0 0.1 -0.39299 0.00375
0 0.1 0.39299 0.00375
0.0363518 0.1 -0.39299 0.00374896
0.0363518 0.1 0.39299 0.00374917
0.350249 0.1 -0.1875 0.00372378
0.350249 0.1 0.1875 0.00372086
0.219992 0.1 -0.3375 0.00373771
0.219992 0.1 0.3375 0.00373741
0.150379 0.1 0.375 0.00374272
0.150379 0.1 -0.375 0.0037425
0.411108 0.1 4.33681e-19 0.00371531
0.287374 0.1 -0.3 0.00373118
0.287374 0.1 0.3 0.0037298
0.411108 0.1 -0.075 0.00371671
0.411108 0.1 0.075 0.00371456
0.075776 0.1 -0.4125 0.00374755
0.075776 0.1 0.4125 0.00374799
0 0.1 0.43201 0.00375
0 0.1 -0.43201 0.00375
0.0363518 0.1 0.43201 0.00374917
0.0363518 0.1 -0.43201 0.00374896
0.411108 0.1 -0.15 0.00371819
0.411108 0.1 0.15 0.0037148
0.350249 0.1 -0.2625 0.00372489
0.350249 0.1 0.2625 0.00372238
0 0.1 -0.45 0.00375
0 0.1 0.45 0.00375
0.219992 0.1 0.4125 0.00373853
0.219992 0.1 -0.4125 0.00373809
0 0.1 -0.46799 0.00375
0 0.1 0.46799 0.00375
0.411108 0.1 -0.225 0.00371942
0.411108 0.1 0.225 0.00371587
0.467897 0.1 -0.0375 0.0037111
0.467897 0.1 0.0375 0.00370974
0.0363518 0.1 0.46799 0.00374943
0.0363518 0.1 -0.46799 0.0037492
0.287374 0.1 -0.375 0.00373191
0.287374 0.1 0.375 0.00373123
0.150379 0.1 0.45 0.0037434
0.150379 0.1 -0.45 0.00374298
0.467897 0.1 0.1125 0.0037092
0.467897 0.1 -0.1125 0.00371273
0.350249 0.1 -0.3375 0.00372583
0.350249 0.1 0.3375 0.00372402
0.075776 0.1 -0.4875 0.00374805
0.075776 0.1 0.4875 0.00374851
0.467897 0.1 0.1875 0.0037097
0.467897 0.1 -0.1875 0.00371415
0 0.1 -0.50701 0.00375
0 0.1 0.50701 0.00375
0.0363518 0.1 -0.50701 0.0037492
0.0363518 0.1 0.50701 0.00374943
0.411108 0.1 0.3 0.00371736
0.411108 0.1 -0.3 0.00372038
0.522865 0.1 1.41031e-17 0.0037076
0 0.1 -0.525 0.00375
0 0.1 0.525 0.00375
0.522865 0.1 -0.075 0.00370909
0.522865 0.1 0.075 0.0037065
0.287374 0.1 0.45 0.00373223
0.287374 0.1 -0.45 0.00373247
0.219992 0.1 0.4875 0.00373898
0.219992 0.1 -0.4875 0.00373867
0.467897 0.1 -0.2625 0.00371518
0.467897 0.1 0.2625 0.00371095
0.350249 0.1 -0.4125 0.00372647
0.350249 0.1 0.4125 0.00372549
0 0.1 -0.54299 0.00375
0 0.1 0.54299 0.00375
0.522865 0.1 0.15 0.00370618
0.522865 0.1 -0.15 0.0037105
0.0363518 0.1 0.54299 0.00374969
0.0363518 0.1 -0.54299 0.00374945
0.150379 0.1 -0.525 0.00374358
0.150379 0.1 0.525 0.00374394
0.411108 0.1 -0.375 0.0037211
0.411108 0.1 0.375 0.00371889
0.075776 0.1 -0.5625 0.00374856
0.075776 0.1 0.5625 0.00374905
0.522865 0.1 -0.225 0.00371156
0.522865 0.1 0.225 0.00370672
0.574156 0.1 0.0375 0.00370409
0.574157 0.1 -0.0375 0.00370558
0.467897 0.1 -0.3375 0.00371596
0.467897 0.1 0.3375 0.0037125
0 0.1 -0.58201 0.00375
0 0.1 0.58201 0.00375
0.0363518 0.1 -0.58201 0.00374945
0.0363518 0.1 0.58201 0.00374969
0.574157 0.1 -0.1125 0.00370705
0.574157 0.1 0.1125 0.00370307
0.287374 0.1 -0.525 0.00373317
0.287374 0.1 0.525 0.00373293
0 0.1 -0.6 0.00375
0 0.1 0.6 0.00375
0.350249 0.1 0.4875 0.00372643
0.350249 0.1 -0.4875 0.00372713
0.522865 0.1 -0.3 0.00371227
0.522865 0.1 0.3 0.00370784
0.219992 0.1 -0.5625 0.00373946
0.219992 0.1 0.5625 0.00373964
0.574156 0.1 -0.1875 0.00370818
0.574156 0.1 0.1875 0.00370288
0.411108 0.1 0.45 0.00372012
0.411108 0.1 -0.45 0.00372167
0 0.1 -0.61799 0.00375
0 0.1 0.61799 0.00375
0.150379 0.1 -0.6 0.00374423
0.150379 0.1 0.6 0.00374456
0.0363518 0.1 -0.61799 0.0037497
0.0363518 0.1 0.61799 0.00374995
0.467897 0.1 -0.4125 0.00371648
0.467897 0.1 0.4125 0.00371396
0.623803 0.1 2.34188e-17 0.00370416
0.623803 0.1 0.075 0.00370283
0.623803 0.1 -0.075 0.00370554
0.574156 0.1 0.2625 0.00370351
0.574156 0.1 -0.2625 0.00370886
0.623803 0.1 0.15 0.00370197
0.623803 0.1 -0.15 0.00370665
0.075776 0.1 0.6375 0.00374958
0.075776 0.1 -0.6375 0.00374908
0.522865 0.1 -0.375 0.00371268
0.522865 0.1 0.375 0.00370914
0 0.1 0.65701 0.00375
0 0.1 -0.65701 0.00375
0.0363518 0.1 0.65701 0.00374995
0.0363518 0.1 -0.65701 0.0037497
0.350249 0.1 0.5625 0.00372716
0.350249 0.1 -0.5625 0.00372788
0.623803 0.1 0.225 0.00370182
0.623803 0.1 -0.225 0.00370732
0.287374 0.1 -0.6 0.00373393
0.287374 0.1 0.6 0.00373365
0.574157 0.1 -0.3375 0.00370921
0.574157 0.1 0.3375 0.00370458
0.411108 0.1 0.525 0.00372096
0.411108 0.1 -0.525 0.00372224
0.67013 0.1 0.0375 0.00370271
0.67013 0.1 -0.0375 0.00370414
0.219992 0.1 -0.6375 0.00374022
0.219993 0.1 0.6375 0.0037404
0 0.1 -0.675 0.00375
0 0.1 0.675 0.00375
0.467897 0.1 -0.4875 0.00371694
0.467897 0.1 0.4875 0.003715
0.67013 0.1 -0.1125 0.0037053
0.67013 0.1 0.1125 0.00370135
0.522865 0.1 0.45 0.00371023
0.522865 0.1 -0.45 0.00371289
0.150379 0.1 0.675 0.0037452
0.150379 0.1 -0.675 0.00374483
0.623803 0.1 0.3 0.00370228
0.623803 0.1 -0.3 0.00370753
0 0.1 -0.69299 0.00375
0 0.1 0.69299 0.00375
0.0363518 0.1 -0.69299 0.00374993
0.0363518 0.1 0.69299 0.00375019
0.67013 0.1 -0.1875 0.00370598
0.67013 0.1 0.1875 0.00370049
0.574156 0.1 0.4125 0.00370571
0.574157 0.1 -0.4125 0.00370923
0.714971 0.1 -2.8382e-17 0.00370473
0.075776 0.1 -0.7125 0.00374956
0.075776 0.1 0.7125 0.00375009
0.714971 0.1 -0.075 0.00370586
0.714971 0.1 0.075 0.00370333
0.67013 0.1 0.2625 0.00370034
0.67013 0.1 -0.2625 0.00370618
0.411108 0.1 -0.6 0.00372282
0.411108 0.1 0.6 0.00372161
0.350249 0.1 0.6375 0.0037279
0.350249 0.1 -0.6375 0.00372861
0.623803 0.1 0.375 0.00370305
0.623803 0.1 -0.375 0.00370735
0.714971 0.1 -0.15 0.00370652
0.714971 0.1 0.15 0.00370202
0.467897 0.1 -0.5625 0.00371738
0.467897 0.1 0.5625 0.00371563
0 0.1 -0.73201 0.00375
0 0.1 0.73201 0.00375
0.0363518 0.1 0.73201 0.00375019
0.0363518 0.1 -0.73201 0.00374993
0.287374 0.1 -0.675 0.00373462
0.287374 0.1 0.675 0.00373441
0.522865 0.1 -0.525 0.00371301
0.522865 0.1 0.525 0.00371092
0.219993 0.1 -0.7125 0.00374088
0.219992 0.1 0.7125 0.00374116
0.714971 0.1 -0.225 0.00370663
0.714971 0.1 0.225 0.00370116
0 0.1 0.75 0.00375
0 0.1 -0.75 0.00375
0.67013 0.1 -0.3375 0.00370583
0.67013 0.1 0.3375 0.00370068
0.574156 0.1 -0.4875 0.00370909
0.574157 0.1 0.4875 0.00370648
0.756813 0.1 0.0375 0.00370525
0.756814 0.1 -0.0375 0.0037065
0.150379 0.1 0.746002 0.00374586
0.150379 0.1 -0.75 0.00374537
0.756813 0.1 -0.1125 0.00370723
0.756813 0.1 0.1125 0.00370371
0 0.1 0.76799 0.00375
0 0.1 -0.76799 0.00375
0.0363518 0.1 0.76799 0.00375041
0.0363518 0.1 -0.76799 0.00375014
0.623803 0.1 -0.45 0.00370688
0.623803 0.1 0.45 0.00370372
0.714971 0.1 -0.3 0.00370614
0.714971 0.1 0.3 0.00370083
0.756814 0.1 -0.1875 0.00370732
0.756814 0.1 0.1875 0.00370227
0.67013 0.1 -0.4125 0.0037051
0.67013 0.1 0.4125 0.00370123
0.411108 0.1 0.675 0.00372226
0.411108 0.1 -0.675 0.00372332
0.467897 0.1 0.6375 0.00371616
0.467897 0.1 -0.6375 0.00371777
0.075776 0.1 0.7875 0.00375054
0.075776 0.1 -0.7875 0.00374999
0.350249 0.1 -0.7125 0.00372924
0.350249 0.1 0.7125 0.00372868
0.522865 0.1 -0.6 0.00371306
0.522865 0.1 0.6 0.00371126
0.797314 0.1 -3.59473e-17 0.00370893
0.287374 0.1 0.746002 0.00373523
0.797314 0.1 -0.075 0.00370972
0.797314 0.1 0.075 0.00370759
0.756814 0.1 -0.2625 0.00370677
0.756814 0.1 0.2625 0.0037013
0.287374 0.1 -0.75 0.00373521
0.574156 0.1 -0.5625 0.00370884
0.574156 0.1 0.5625 0.00370677
0 0.1 0.80701 0.00375
0 0.1 -0.80701 0.00375
0.714971 0.1 -0.375 0.00370515
0.714971 0.1 0.375 0.00370083
0.0363518 0.1 0.80701 0.00375041
0.0363518 0.1 -0.80701 0.00375014
0.797314 0.1 -0.15 0.00370982
0.797314 0.1 0.15 0.00370597
0.623803 0.1 -0.525 0.00370622
0.623803 0.1 0.525 0.00370398
0.219992 0.1 0.7875 0.00374185
0.219992 0.1 -0.7875 0.00374145
0.149792 0.1 0.80701 0.00374624
0 0.1 0.825 0.00375
0 0.1 -0.825 0.00375
0.797314 0.1 -0.225 0.0037092
0.797314 0.1 0.225 0.00370445
0.756813 0.1 -0.3375 0.00370557
0.756813 0.1 0.3375 0.00370076
0.67013 0.1 0.4875 0.00370148
0.67013 0.1 -0.4875 0.00370409
0.835106 0.1 -0.0375 0.00371224
0.835106 0.1 0.0375 0.00371127
0.150379 0.1 -0.825 0.00374583
0.835106 0.1 -0.1125 0.00371247
0.835106 0.1 0.1125 0.00370966
0 0.1 -0.84299 0.00375
0 0.1 0.84299 0.00375
0.0363518 0.1 -0.84299 0.00375032
0.0363518 0.1 0.84299 0.00375059
0.714971 0.1 -0.45 0.00370377
0.714971 0.1 0.45 0.00370083
0.411108 0.1 0.746002 0.003723
0.797314 0.1 -0.3 0.00370786
0.797314 0.1 0.3 0.00370326
0.467897 0.1 -0.7125 0.00371804
0.467897 0.1 0.7125 0.00371672
0.522865 0.1 0.675 0.00371148
0.522865 0.1 -0.675 0.00371302
0.411108 0.1 -0.75 0.00372371
0.835106 0.1 -0.1875 0.00371186
0.835107 0.1 0.1875 0.00370778
0.286844 0.1 0.80701 0.0037357
0.574156 0.1 0.6375 0.00370673
0.574157 0.1 -0.6375 0.00370848
0.350249 0.1 -0.7875 0.00372976
0.350249 0.1 0.7875 0.00372943
0.756813 0.1 -0.4125 0.0037039
0.756814 0.1 0.4125 0.00370044
0.623803 0.1 -0.6 0.00370543
0.623803 0.1 0.6 0.00370377
0.075776 0.1 0.8625 0.00375091
0.075776 0.1 -0.8625 0.00375036
0.871687 0.1 -3.2767e-18 0.00371623
0.287374 0.1 -0.825 0.00373571
0.871687 0.1 -0.075 0.00371661
0.871687 0.1 0.075 0.00371504
0.67013 0.1 -0.5625 0.00370289
0.67013 0.1 0.5625 0.00370119
0.835106 0.1 0.2625 0.00370603
0.835106 0.1 -0.2625 0.00371045
0.797314 0.1 -0.375 0.00370591
0.797314 0.1 0.375 0.00370234
0 0.1 -0.88201 0.00375
0 0.1 0.88201 0.00375
0.0363518 0.1 0.88201 0.00375059
0.0363518 0.1 -0.88201 0.00375032
0.871687 0.1 0.15 0.00371323
0.871687 0.1 -0.15 0.00371608
0.714971 0.1 0.525 0.00370045
0.714971 0.1 -0.525 0.00370211
0.219993 0.1 0.8625 0.00374244
0.219992 0.1 -0.8625 0.00374192
0 0.1 0.9 0.00375
0 0.1 -0.9 0.00375
0.756813 0.1 0.4875 0.00369998
0.756814 0.1 -0.4875 0.00370184
0.871687 0.1 0.225 0.00371115
0.871687 0.1 -0.225 0.00371463
0.835106 0.1 -0.3375 0.00370831
0.835106 0.1 0.3375 0.00370456
0.41063 0.1 0.80701 0.00372342
0.90582 0.1 -0.0375 0.00372073
0.905821 0.1 0.0375 0.00372011
0.522865 0.1 0.746002 0.00371179
0.150379 0.1 0.9 0.00374678
0.90582 0.1 0.1125 0.00371856
0.905821 0.1 -0.1125 0.00372043
0.522865 0.1 -0.75 0.00371289
0.574156 0.1 0.7125 0.00370658
0.574156 0.1 -0.7125 0.00370804
0.797314 0.1 -0.45 0.00370348
0.797314 0.1 0.45 0.00370147
0.467897 0.1 -0.7875 0.00371818
0.467897 0.1 0.7875 0.00371728
0.150379 0.1 -0.903998 0.00374609
0 0.1 0.91799 0.00375
0 0.1 -0.91799 0.00375
0.0363518 0.1 0.91799 0.00375074
0.0363518 0.1 -0.91799 0.00375046
0.623803 0.1 0.675 0.00370328
0.623803 0.1 -0.675 0.00370454
0.411108 0.1 -0.825 0.00372397
0.871687 0.1 0.3 0.00370913
0.871687 0.1 -0.3 0.00371239
0.67013 0.1 -0.6375 0.00370158
0.67013 0.1 0.6375 0.00370044
0.90582 0.1 -0.1875 0.00371902
0.90582 0.1 0.1875 0.00371635
0.350249 0.1 0.8625 0.00373011
0.350249 0.1 -0.8625 0.00373017
0.835106 0.1 -0.4125 0.00370555
0.835106 0.1 0.4125 0.00370323
0.714971 0.1 -0.6 0.00370026
0.714971 0.1 0.6 0.00369953
0.93886 0.1 -1.15648e-17 0.00372633
0.075776 0.1 0.9375 0.00375121
0.075776 0.1 -0.9375 0.00375065
0.93886 0.1 0.075 0.00372536
0.93886 0.1 -0.075 0.00372628
0.756813 0.1 0.5625 0.00369897
0.756814 0.1 -0.5625 0.0036995
0.905821 0.1 -0.2625 0.0037167
0.905821 0.1 0.2625 0.0037139
0.287374 0.1 0.9 0.00373641
0.287374 0.1 -0.903998 0.00373593
0.871687 0.1 0.375 0.00370724
0.871687 0.1 -0.375 0.00370938
0.93886 0.1 -0.15 0.0037251
0.93886 0.1 0.15 0.00372344
0.797314 0.1 0.525 0.0037003
0.797314 0.1 -0.525 0.00370067
0 0.1 0.95701 0.00375
0 0.1 -0.95701 0.00375
0.0363518 0.1 0.95701 0.00375074
0.0363518 0.1 -0.95701 0.00375046
0.522433 0.1 0.80701 0.00371191
0.219992 0.1 0.9375 0.00374292
0.219992 0.1 -0.9375 0.00374228
0.93886 0.1 0.225 0.00372091
0.93886 0.1 -0.225 0.00372283
0.90582 0.1 0.3375 0.00371152
0.905821 0.1 -0.3375 0.00371363
0.835106 0.1 -0.4875 0.00370232
0.835107 0.1 0.4875 0.0037019
0.969689 0.1 -0.0375 0.00373206
0.969689 0.1 0.0375 0.00373177
0.61613 0.1 0.75 0.00370272
0.574156 0.1 -0.7875 0.0037076
0.574156 0.1 0.7875 0.00370651
0 0.1 0.975 0.00375
0 0.1 -0.975 0.00375
0.623803 0.1 -0.75 0.00370358
0.969689 0.1 -0.1125 0.00373124
0.969689 0.1 0.1125 0.00373032
0.522865 0.1 -0.825 0.00371267
0.67013 0.1 0.7125 0.00369946
0.67013 0.1 -0.7125 0.00370016
0.871687 0.1 -0.45 0.00370572
0.871687 0.1 0.45 0.00370537
0.467897 0.1 0.8625 0.00371775
0.467897 0.1 -0.8625 0.00371818
0.714971 0.1 -0.675 0.00369827
0.714971 0.1 0.675 0.00369819
0.93886 0.1 -0.3 0.00371964
0.93886 0.1 0.3 0.00371814
0.150379 0.1 0.975 0.00374711
0.150379 0.1 -0.975 0.00374649
0.969689 0.1 -0.1875 0.00372908
0.969689 0.1 0.1875 0.00372788
0.411108 0.1 0.9 0.00372405
0.756813 0.1 0.6375 0.00369737
0.756814 0.1 -0.6375 0.00369698
0.990306 0.1 -2.19732e-17 0.00373293
0 0.1 0.99299 0.00375
0 0.1 -0.99299 0.00375
0.411108 0.1 -0.903998 0.00372398
0.990306 0.1 -0.075 0.00373257
0.990306 0.1 0.075 0.00373211
0.0363518 0.1 0.99299 0.00375084
0.0363518 0.1 -0.99299 0.00375057
0.90582 0.1 -0.4125 0.00370961
0.905821 0.1 0.4125 0.00370914
0.797314 0.1 -0.6 0.00369757
0.797314 0.1 0.6 0.00369855
0.350249 0.1 0.9375 0.00373068
0.350249 0.1 -0.9375 0.00373045
0.990306 0.1 0.15 0.00373016
0.990306 0.1 -0.15 0.00373095
0.969689 0.1 -0.2625 0.00372592
0.969689 0.1 0.2625 0.00372486
0.835106 0.1 -0.5625 0.00369874
0.835106 0.1 0.5625 0.00370004
0.93886 0.1 -0.375 0.00371542
0.93886 0.1 0.375 0.00371532
0.075776 0.1 1.0125 0.00375144
0.075776 0.1 -1.0125 0.00375088
0.990306 0.1 -0.225 0.00372812
0.990306 0.1 0.225 0.00372735
0.287374 0.1 0.975 0.00373687
0.287374 0.1 -0.975 0.00373634
0.871687 0.1 -0.525 0.0037016
0.871687 0.1 0.525 0.00370325
1.02149 0.1 -0.0369628 0.00373967
1.02149 0.1 0.0369628 0.00373963
0.969689 0.1 -0.3375 0.00372174
0.969689 0.1 0.3375 0.00372166
1.02149 0.1 -0.110888 0.00373847
1.02149 0.1 0.110888 0.00373833
0.90582 0.1 0.4875 0.00370675
0.90582 0.1 -0.4875 0.00370501
0.623803 0.1 0.819003 0.00370182
0 0.1 1.03201 0.00375
0 0.1 -1.03201 0.00375
0.0363518 0.1 1.03201 0.00375084
0.0363518 0.1 -1.03201 0.00375057
0.67013 0.1 -0.7875 0.00369867
0.67013 0.1 0.7875 0.00369844
0.623803 0.1 -0.825 0.00370257
0.990306 0.1 -0.3 0.00372422
0.990306 0.1 0.3 0.00372408
0.219992 0.1 -1.0125 0.00374252
0.219993 0.1 1.0125 0.00374326
0.574156 0.1 0.8625 0.00370649
0.574157 0.1 -0.8625 0.00370703
0.714971 0.1 -0.75 0.0036962
0.714971 0.1 0.75 0.00369666
1.02149 0.1 0.184814 0.00373586
1.02149 0.1 -0.184814 0.00373588
0.756814 0.1 -0.7125 0.00369436
0.756814 0.1 0.7125 0.00369539
0.522865 0.1 0.9 0.00371212
0.93886 0.1 -0.45 0.00371037
0.93886 0.1 0.45 0.00371245
1.04168 0.1 0 0.00374445
1.04168 0.1 -0.0729162 0.00374377
1.04168 0.1 0.0729162 0.00374386
0.522865 0.1 -0.903998 0.00371223
0.797314 0.1 -0.675 0.0036943
0.797314 0.1 0.675 0.00369624
0.467897 0.1 0.9375 0.00371811
0.467897 0.1 -0.9375 0.00371807
0 0.1 1.05 0.00375
0 0.1 -1.05 0.00375
0.835106 0.1 -0.6375 0.00369487
0.835106 0.1 0.6375 0.00369751
1.04168 0.1 -0.145832 0.00374174
1.04168 0.1 0.145832 0.00374202
1.02149 0.1 -0.25874 0.00373217
1.02149 0.1 0.25874 0.00373255
0.969689 0.1 -0.4125 0.00371617
0.969689 0.1 0.4125 0.00371836
0.411108 0.1 0.975 0.00372445
0.411108 0.1 -0.975 0.00372414
0.871687 0.1 -0.6 0.00369709
0.871687 0.1 0.6 0.00370054
1.0579 0.1 -0.0360525 0.00374856
1.0579 0.1 0.0360525 0.00374869
0.990306 0.1 -0.375 0.00371905
0.990306 0.1 0.375 0.00372061
0.150379 0.1 1.05 0.00374735
0.150379 0.1 -1.05 0.00374668
1.0579 0.1 0.108157 0.00374754
1.0579 0.1 -0.108157 0.00374712
1.04168 0.1 -0.218749 0.00373843
1.04168 0.1 0.218749 0.00373909
0.90582 0.1 -0.5625 0.00369995
0.90582 0.1 0.5625 0.00370388
0 0.1 -1.06799 0.00375
0 0.1 1.06799 0.00375
0.0363518 0.1 -1.06799 0.00375065
0.0363518 0.1 1.06799 0.00375092
0.350249 0.1 1.0125 0.00373111
0.350249 0.1 -1.0125 0.0037306
1.0579 0.1 -0.180262 0.00374429
1.0579 0.1 0.180262 0.00374514
1.02149 0.1 -0.332665 0.00372721
1.02149 0.1 0.332665 0.00372879
0.93886 0.1 -0.525 0.00370482
0.93886 0.1 0.525 0.00370932
1.08012 0.1 5.49329e-18 0.00375476
1.04168 0.1 -0.291665 0.00373388
1.04168 0.1 0.291665 0.00373543
1.08012 0.1 0.0709941 0.00375433
1.08012 0.1 -0.0709941 0.00375388
0.969689 0.1 -0.4875 0.00371019
0.96969 0.1 0.4875 0.00371494
1.0579 0.1 0.252367 0.00374175
1.0579 0.1 -0.252367 0.00374026
0.990306 0.1 -0.45 0.00371297
0.990306 0.1 0.45 0.00371699
0.287374 0.1 -1.05 0.00373649
0.287374 0.1 1.05 0.00373719
0.714971 0.1 0.821002 0.00369517
1.08012 0.1 -0.141988 0.00375162
1.08012 0.1 0.141988 0.00375261
0.075776 0.1 1.0875 0.00375159
0.075776 0.1 -1.0875 0.00375104
0.714971 0.1 -0.825 0.0036941
0.756813 0.1 -0.7875 0.00369164
0.756814 0.1 0.7875 0.00369329
0.67013 0.1 -0.8625 0.00369719
0.67013 0.1 0.8625 0.0036975
0.797314 0.1 -0.75 0.00369091
0.797314 0.1 0.75 0.00369362
0.623803 0.1 0.9 0.00370174
0.835106 0.1 -0.7125 0.00369082
0.835106 0.1 0.7125 0.00369445
0.623803 0.1 -0.903998 0.00370149
0.574156 0.1 0.9375 0.00370646
0.574156 0.1 -0.9375 0.00370627
1.02149 0.1 -0.406591 0.00372078
1.02149 0.1 0.406591 0.00372479
1.08012 0.1 -0.212982 0.00374805
1.08012 0.1 0.212982 0.0037497
1.10076 0.1 -0.0349809 0.0037604
1.10076 0.1 0.0349809 0.00376067
0.871687 0.1 -0.675 0.00369232
0.871687 0.1 0.675 0.00369719
1.04168 0.1 -0.364581 0.0037279
1.04168 0.1 0.364581 0.00373135
1.10076 0.1 -0.104943 0.00375872
1.10076 0.1 0.104943 0.00375967
0.522865 0.1 0.975 0.00371224
0.522865 0.1 -0.975 0.00371184
1.0579 0.1 -0.324472 0.00373484
1.0579 0.1 0.324472 0.00373772
0 0.1 -1.10701 0.00375
0 0.1 1.10701 0.00375
0.0363518 0.1 1.10701 0.00375092
0.0363518 0.1 -1.10701 0.00375065
0.90582 0.1 0.6375 0.00370033
0.905821 0.1 -0.6375 0.0036945
0.219992 0.1 1.0875 0.00374348
0.219992 0.1 -1.0875 0.00374266
0.93886 0.1 0.6 0.00370554
0.93886 0.1 -0.6 0.00369885
1.10076 0.1 -0.174905 0.00375567
1.10076 0.1 0.174905 0.00375735
0.467897 0.1 1.0125 0.00371836
0.467897 0.1 -1.0125 0.00371789
1.08012 0.1 -0.283976 0.00374313
1.08012 0.1 0.283976 0.00374591
1.11928 0.1 3.93204e-18 0.00376602
0.990306 0.1 -0.525 0.00370642
0.990306 0.1 0.525 0.0037131
0.96969 0.1 -0.5625 0.00370368
0.969689 0.1 0.5625 0.00371113
1.11928 0.1 -0.0690357 0.00376498
1.11928 0.1 0.0690357 0.00376572
0 0.1 1.125 0.00375
0 0.1 -1.125 0.00375
0.411108 0.1 -1.05 0.00372408
0.411108 0.1 1.05 0.00372473
1.10076 0.1 0.244866 0.0037539
1.10076 0.1 -0.244866 0.00375134
1.11928 0.1 -0.138072 0.00376255
1.11928 0.1 0.138072 0.00376412
1.02149 0.1 0.480517 0.00372055
1.02149 0.1 -0.480517 0.00371391
1.0579 0.1 -0.396577 0.00372792
1.0579 0.1 0.396577 0.00373335
1.04168 0.1 -0.437497 0.00372093
1.04168 0.1 0.437497 0.00372699
0.150379 0.1 1.125 0.00374749
0.150379 0.1 -1.125 0.0037468
0.714971 0.1 0.88201 0.00369272
1.08012 0.1 0.354971 0.00374154
1.08012 0.1 -0.354971 0.0037367
1.11928 0.1 -0.207107 0.00375878
1.11928 0.1 0.207107 0.00376128
0.350249 0.1 -1.0875 0.00373066
0.350249 0.1 1.0875 0.0037314
0 0.1 1.14299 0.00375
0 0.1 -1.14299 0.00375
0.0363518 0.1 1.14299 0.00375096
0.0363518 0.1 -1.14299 0.0037507
1.14316 0.1 -0.0339211 0.00377325
1.14316 0.1 0.0339211 0.00377368
0.797314 0.1 0.821002 0.00369106
1.10076 0.1 -0.314829 0.00374549
1.10076 0.1 0.314829 0.00374964
0.797314 0.1 -0.825 0.00368752
0.756814 0.1 -0.8625 0.00368895
0.756814 0.1 0.8625 0.00369121
1.14316 0.1 -0.101763 0.0037714
1.14316 0.1 0.101763 0.00377284
0.835106 0.1 -0.7875 0.00368672
0.835106 0.1 0.7875 0.00369114
0.871687 0.1 -0.75 0.00368748
0.871687 0.1 0.75 0.00369336
0.67013 0.1 0.9375 0.00369668
0.67013 0.1 -0.9375 0.00369565
0.90582 0.1 -0.7125 0.00368882
0.905821 0.1 0.7125 0.0036961
0.714971 0.1 -0.903998 0.00369214
1.11928 0.1 0.276143 0.00375741
1.11928 0.1 -0.276143 0.00375356
1.14316 0.1 0.169605 0.00377067
1.14316 0.1 -0.169605 0.00376821
0.93886 0.1 -0.675 0.00369261
0.93886 0.1 0.675 0.00370102
1.15704 0.1 0 0.00377781
1.0579 0.1 0.468682 0.00372865
1.0579 0.1 -0.468682 0.00372047
0.623803 0.1 0.975 0.00370129
0.623803 0.1 -0.975 0.00370032
0.990306 0.1 0.6 0.0037085
0.990306 0.1 -0.6 0.0036994
1.15704 0.1 -0.0671479 0.00377664
1.15704 0.1 0.0671479 0.00377763
1.04168 0.1 -0.510414 0.00371351
1.04168 0.1 0.510414 0.00372232
0.969689 0.1 -0.6375 0.00369684
0.969689 0.1 0.6375 0.00370629
1.08012 0.1 0.425965 0.00373679
1.08012 0.1 -0.425965 0.00372919
0.287374 0.1 -1.125 0.00373654
0.287374 0.1 1.125 0.00373738
1.02149 0.1 -0.554443 0.00370651
1.02149 0.1 0.554443 0.00371595
0.574156 0.1 1.0125 0.00370636
0.574156 0.1 -1.0125 0.00370549
1.15704 0.1 -0.134296 0.00377409
1.15704 0.1 0.134296 0.00377614
0.075776 0.1 1.1625 0.00375168
0.075776 0.1 -1.1625 0.00375115
1.10076 0.1 -0.384791 0.00373806
1.10076 0.1 0.384791 0.00374489
1.14316 0.1 -0.237448 0.00376361
1.14316 0.1 0.237448 0.00376731
1.11928 0.1 -0.345179 0.00374677
1.11928 0.1 0.345179 0.00375283
0.522865 0.1 1.05 0.00371225
0.522865 0.1 -1.05 0.00371135
1.15704 0.1 -0.201444 0.00377018
1.15704 0.1 0.201444 0.00377338
1.1744 0.1 -0.0331401 0.00378288
1.1744 0.1 0.0331401 0.00378336
1.1744 0.1 -0.0994202 0.00378097
1.1744 0.1 0.0994202 0.0037826
0 0.1 1.18201 0.00375
0 0.1 -1.18201 0.00375
0.0363518 0.1 1.18201 0.00375096
0.0363518 0.1 -1.18201 0.0037507
0.219992 0.1 1.1625 0.00374359
0.219993 0.1 -1.1625 0.00374272
1.14316 0.1 0.30529 0.00376299
1.14316 0.1 -0.30529 0.00375742
0.467897 0.1 1.0875 0.0037185
0.467897 0.1 -1.0875 0.00371765
1.1744 0.1 -0.1657 0.00377778
1.1744 0.1 0.1657 0.00378051
1.15704 0.1 -0.268592 0.00376474
1.15704 0.1 0.268592 0.00376952
1.0579 0.1 0.540787 0.00372358
1.0579 0.1 -0.540787 0.0037126
0.796996 0.1 0.88201 0.00368892
1.08012 0.1 -0.496959 0.00372126
1.08012 0.1 0.496959 0.00373166
1.10076 0.1 0.454752 0.00373973
1.10076 0.1 -0.454752 0.00372995
1.11928 0.1 -0.414214 0.00373881
1.11928 0.1 0.414214 0.00374775
1.04168 0.1 -0.58333 0.0037055
1.04168 0.1 0.58333 0.00371701
1.1744 0.1 -0.231981 0.00377312
1.1744 0.1 0.231981 0.0037772
0.871687 0.1 0.821002 0.00368951
0.411108 0.1 1.125 0.00372487
0.411108 0.1 -1.125 0.00372394
1.19808 0.1 1.73472e-17 0.00379174
0.990306 0.1 0.675 0.00370312
0.990306 0.1 -0.675 0.00369214
1.02149 0.1 0.628368 0.0037104
1.02149 0.1 -0.628368 0.00369859
1.19808 0.1 -0.0650961 0.00379047
1.19808 0.1 0.0650961 0.00379168
0 0.1 1.2 0.00375
0 0.1 -1.2 0.00375
0.871687 0.1 -0.825 0.00368268
0.905821 0.1 -0.7875 0.00368334
0.90582 0.1 0.7875 0.00369141
0.835106 0.1 -0.8625 0.00368269
0.835106 0.1 0.8625 0.00368781
0.93886 0.1 -0.75 0.0036863
0.93886 0.1 0.75 0.00369596
1.14316 0.1 -0.373132 0.0037497
1.14316 0.1 0.373132 0.00375801
0.969689 0.1 0.7125 0.00370087
0.969689 0.1 -0.7125 0.0036899
1.15704 0.1 -0.33574 0.00375769
1.15704 0.1 0.33574 0.00376481
0.756813 0.1 0.9375 0.00368929
0.756814 0.1 -0.9375 0.00368639
1.19808 0.1 0.130192 0.00379034
1.19808 0.1 -0.130192 0.00378785
0.797314 0.1 -0.903998 0.00368448
0.714971 0.1 0.975 0.00369234
0.714971 0.1 -0.975 0.00368999
0.150379 0.1 1.2 0.00374755
0.150379 0.1 -1.2 0.00374685
1.20938 0.1 -0.0322656 0.0037948
1.20938 0.1 0.0322656 0.00379538
1.1744 0.1 -0.298261 0.00376683
1.1744 0.1 0.298261 0.00377287
1.20938 0.1 -0.0967968 0.0037928
1.20938 0.1 0.0967968 0.00379472
1.19808 0.1 -0.195288 0.00378385
1.19808 0.1 0.195288 0.0037877
0.350249 0.1 1.1625 0.00373154
0.350249 0.1 -1.1625 0.00373062
0.67013 0.1 1.0125 0.00369588
0.67013 0.1 -1.0125 0.00369413
0 0.1 1.21799 0.00375
0 0.1 -1.21799 0.00375
0.0363518 0.1 -1.21799 0.00375073
0.0363518 0.1 1.21799 0.00375097
1.11928 0.1 -0.48325 0.00373042
1.11928 0.1 0.48325 0.00374222
1.10076 0.1 -0.524714 0.00372166
1.10076 0.1 0.524714 0.00373417
1.20938 0.1 0.161328 0.00379274
1.20938 0.1 -0.161328 0.00378956
1.08012 0.1 0.567953 0.00372594
1.08012 0.1 -0.567953 0.00371268
0.623803 0.1 1.05 0.00370081
0.623803 0.1 -1.05 0.0036992
1.0579 0.1 -0.612892 0.00370398
1.0579 0.1 0.612892 0.00371766
1.15704 0.1 -0.402888 0.00374938
1.15704 0.1 0.402888 0.00375948
1.14316 0.1 0.440974 0.00375252
1.14316 0.1 -0.440974 0.00374112
1.19808 0.1 -0.260384 0.00377828
1.19808 0.1 0.260384 0.00378391
1.2267 0.1 3.57064e-18 0.00380202
1.2267 0.1 -0.0636649 0.00380065
1.2267 0.1 0.0636649 0.00380206
1.1744 0.1 -0.364541 0.00375897
1.1744 0.1 0.364541 0.00376779
0.574156 0.1 1.0875 0.00370615
0.574156 0.1 -1.0875 0.00370475
1.20938 0.1 0.225859 0.00378953
1.20938 0.1 -0.225859 0.0037848
1.04168 0.1 -0.656246 0.00369704
1.04168 0.1 0.656246 0.00371094
1.2267 0.1 -0.12733 0.00379796
1.2267 0.1 0.12733 0.0038008
0.287374 0.1 1.2 0.00373744
0.287374 0.1 -1.2 0.0037365
1.02149 0.1 -0.702294 0.00369049
1.02149 0.1 0.702294 0.00370429
0.075776 0.1 -1.2375 0.00375121
0.075776 0.1 1.2375 0.00375171
0.871399 0.1 0.88201 0.00368629
0.522865 0.1 1.125 0.00371215
0.522865 0.1 -1.125 0.00371081
1.2267 0.1 -0.190994 0.00379388
1.2267 0.1 0.190994 0.00379826
1.19808 0.1 -0.32548 0.0037711
1.19808 0.1 0.32548 0.00377917
0.990306 0.1 -0.75 0.00368472
0.990306 0.1 0.75 0.00369722
1.24274 0.1 -0.0314313 0.00380728
1.24274 0.1 0.0314313 0.00380799
1.20938 0.1 -0.29039 0.00377839
1.20938 0.1 0.29039 0.00378522
1.24274 0.1 -0.0942942 0.00380518
1.24274 0.1 0.0942942 0.00380746
0.93886 0.1 0.821002 0.00369083
1.11928 0.1 -0.552285 0.00372134
1.11928 0.1 0.552285 0.00373612
1.15704 0.1 -0.470036 0.00374063
1.15704 0.1 0.470036 0.00375364
0.969689 0.1 -0.7875 0.00368282
0.96969 0.1 0.7875 0.00369501
0.93886 0.1 -0.825 0.00368
0.90582 0.1 0.8625 0.00368658
0.905821 0.1 -0.8625 0.00367779
1.1744 0.1 -0.430821 0.00375011
1.1744 0.1 0.430821 0.00376215
1.10076 0.1 -0.594676 0.00371222
1.10076 0.1 0.594676 0.00372784
1.14316 0.1 -0.508816 0.00373236
1.14316 0.1 0.508816 0.00374653
1.24274 0.1 -0.157157 0.00380184
1.24274 0.1 0.157157 0.00380559
1.2267 0.1 -0.254659 0.00378822
1.2267 0.1 0.254659 0.00379452
0.467897 0.1 1.1625 0.00371852
0.467897 0.1 -1.1625 0.00371731
1.08012 0.1 0.638947 0.00371946
1.08012 0.1 -0.638947 0.00370341
1.25511 0.1 -5.78241e-19 0.00381315
0.835106 0.1 -0.9375 0.00367886
0.835106 0.1 0.9375 0.00368457
0.871687 0.1 -0.903998 0.0036784
1.25511 0.1 0.0622446 0.00381334
1.25511 0.1 -0.0622446 0.00381162
0.219992 0.1 1.2375 0.0037436
0.219992 0.1 -1.2375 0.0037427
0 0.1 -1.25701 0.00375
0 0.1 1.25701 0.00375
0.0363518 0.1 -1.25701 0.00375073
0.0363518 0.1 1.25701 0.00375097
0.797314 0.1 0.975 0.00368577
0.797314 0.1 -0.975 0.00368111
1.19808 0.1 -0.390576 0.00376257
1.19808 0.1 0.390576 0.0037737
1.0579 0.1 -0.684997 0.00369503
1.0579 0.1 0.684997 0.00371114
1.20938 0.1 -0.354921 0.00377043
1.20938 0.1 0.354921 0.00378005
1.25511 0.1 0.124489 0.00381222
1.25511 0.1 -0.124489 0.00380878
1.24274 0.1 -0.220019 0.00379696
1.24274 0.1 0.220019 0.00380246
0.756813 0.1 1.0125 0.00368754
0.756814 0.1 -1.0125 0.00368393
1.2267 0.1 -0.318324 0.00378097
1.2267 0.1 0.318324 0.00378976
0.411108 0.1 1.2 0.00372487
0.411108 0.1 -1.2 0.00372369
1.25511 0.1 -0.186734 0.00380453
1.25511 0.1 0.186734 0.00380976
0.714971 0.1 1.05 0.00369107
0.714971 0.1 -1.05 0.00368807
1.04168 0.1 -0.729162 0.00368833
1.04168 0.1 0.729162 0.00370431
1.24274 0.1 0.282882 0.00379819
1.24274 0.1 -0.282882 0.00379046
0 0.1 1.275 0.00375
0 0.1 -1.275 0.00375
1.1744 0.1 0.497102 0.00375597
1.1744 0.1 -0.497102 0.00374127
1.15704 0.1 -0.537184 0.00373115
1.15704 0.1 0.537184 0.00374723
1.2756 0.1 -0.03061 0.00382148
1.2756 0.1 0.03061 0.00382242
0.67013 0.1 1.0875 0.00369508
0.67013 0.1 -1.0875 0.00369269
1.2756 0.1 -0.09183 0.00381918
1.2756 0.1 0.09183 0.00382206
1.25511 0.1 -0.248978 0.00379869
1.25511 0.1 0.248978 0.00380607
1.20938 0.1 0.419453 0.00377425
1.20938 0.1 -0.419453 0.00376129
1.11928 0.1 -0.621322 0.00371131
1.11928 0.1 0.621322 0.00372927
1.14316 0.1 -0.576659 0.00372234
1.14316 0.1 0.576659 0.00373989
1.19808 0.1 -0.455673 0.00375355
1.19808 0.1 0.455673 0.00376763
1.02149 0.1 0.776219 0.00369765
1.02149 0.1 -0.776219 0.00368217
0.150379 0.1 1.275 0.00374754
0.150379 0.1 -1.275 0.00374684
1.2756 0.1 -0.15305 0.0038156
1.2756 0.1 0.15305 0.00382033
1.2267 0.1 -0.381989 0.00377231
1.2267 0.1 0.381989 0.0037842
1.10076 0.1 -0.664638 0.00370227
1.10076 0.1 0.664638 0.00372079