# kMean  POINT_DATA 91129
# x  y  z  kMean
0 0 0 0.00556412
0 0.00368111 0 0.00375
0 0.00749587 0 0.00375
0 0.0114491 0 0.00375
0 0.0155459 0 0.00375
0 0.0197915 0 0.00375
0 0.0241911 0 0.00375
0 0.0287506 0 0.00375
0 0.0334755 0 0.00375
0 0.038372 0 0.00375
0 0.0434463 0 0.00375
0 0.0487048 0 0.00375
0 0.0541543 0 0.00375
0 0.0598016 0 0.00375
0 0.0656539 0 0.00375
0 0.0717187 0 0.00375
0.075776 0.00184055 0 0.0096493
0.075776 0.00558849 0 0.00337949
0.075776 0.00947248 -3.46945e-18 0.003045
0.075776 0.0134975 -3.46945e-18 0.0034207
0.075776 0.0176687 3.46945e-18 0.00358507
0 0.0780037 0 0.00375
0.075776 0.0219913 3.46945e-18 0.00364905
0.075776 0.0264709 3.46945e-18 0.00368158
0.075776 0.031113 -3.46945e-18 0.00370029
0.075776 0.0359237 -3.46945e-18 0.00371216
0 0.0845169 0 0.00375
0.075776 0.0409092 0 0.00372023
0.075776 0.0460755 -3.46945e-18 0.00372602
0 0.0912666 0 0.00375
0.075776 0.0514296 -3.46945e-18 0.00373033
0.075776 0.0569779 0 0.00373363
0 0.0982613 0 0.00375
0.075776 0.0627278 0 0.00373625
0.075776 0.0686863 0 0.00373844
0 0.10551 0 0.00375
0.075776 0.0748612 3.46945e-18 0.00374033
0.075776 0.0812603 -3.46945e-18 0.00374194
0 0.113022 0 0.00375
0.075776 0.0878918 3.46945e-18 0.0037433
0 0.120806 0 0.00375
0.075776 0.0947639 3.46945e-18 0.00374445
0.075776 0.101886 -3.46945e-18 0.00374542
0 0.128874 0 0.00375
0.075776 0.109266 3.46945e-18 0.00374622
0 0.137234 0 0.00375
0.075776 0.116914 3.46945e-18 0.00374689
0 0.145897 0 0.00375
0.075776 0.12484 0 0.00374745
0.151552 0 0 0.00600413
0.151552 0.00368111 0 0.0042334
0.151552 0.00749587 0 0.0025775
0.151552 0.0114491 0 0.00293898
0.151552 0.0155459 0 0.00330345
0.151552 0.0197915 0 0.00347688
0.075776 0.133054 0 0.00374792
0.151552 0.0241911 0 0.0035643
0.151552 0.0287506 0 0.0036163
0 0.154876 0 0.00375
0.151552 0.0334755 0 0.00364981
0.151552 0.038372 0 0.00367258
0.151552 0.0434463 0 0.00368873
0.151552 0.0487048 0 0.00370061
0.075776 0.141566 0 0.00374832
0.151552 0.0541543 0 0.00370961
0.151552 0.0598016 0 0.00371662
0 0.16418 0 0.00375
0.151552 0.0656539 0 0.00372223
0.151552 0.0717187 0 0.0037268
0.075776 0.150387 0 0.00374868
0.151552 0.0780037 0 0.00373058
0.151552 0.0845169 0 0.00373372
0 0.173822 0 0.00375
0.075776 0.159528 0 0.00374902
0.151552 0.0912666 0 0.00373635
0.151552 0.0982613 0 0.00373855
0 0.183814 0 0.00375
0.151552 0.10551 0 0.00374041
0.075776 0.169001 3.46945e-18 0.00374933
0.151552 0.113022 0 0.00374198
0.151552 0.120806 0 0.00374334
0 0.194169 0 0.00375
0.075776 0.178818 3.46945e-18 0.00374965
0.151552 0.128874 0 0.00374451
0.075776 0.188992 3.46945e-18 0.00374996
0.151552 0.137234 0 0.00374552
0 0.2049 0 0.00375
0.151552 0.145897 0 0.00374638
0.075776 0.199535 0 0.00375027
0 0.21602 0 0.00375
0.151552 0.154876 0 0.00374714
0.219992 0.00184055 0 0.00263948
0.219992 0.00558849 0 0.00161616
0.219992 0.00947248 -3.46945e-18 0.00236698
0.219992 0.0134975 3.46945e-18 0.00296845
0.219992 0.0176687 0 0.00327026
0.219992 0.0219913 0 0.00342471
0.219993 0.0264709 -3.46945e-18 0.0035174
0.219992 0.031113 -3.46945e-18 0.00357741
0.219992 0.0359238 3.46945e-18 0.00361804
0.151552 0.16418 0 0.0037478
0.075776 0.21046 0 0.00375058
0.219992 0.0409092 3.46945e-18 0.00364659
0.219992 0.0460755 0 0.00366736
0.219993 0.0514296 -3.46945e-18 0.00368296
0.219992 0.0569779 0 0.00369498
0 0.227544 0 0.00375
0.219992 0.0627277 3.46945e-18 0.00370446
0.219992 0.0686863 0 0.00371208
0.151552 0.173822 0 0.0037484
0.219992 0.0748612 3.46945e-18 0.00371828
0.075776 0.221782 0 0.00375088
0.219992 0.0812603 3.46945e-18 0.00372339
0.219992 0.0878917 -3.46945e-18 0.00372763
0.151552 0.183814 0 0.00374894
7.47806e-17 0.239487 0 0.00375
0.219992 0.0947639 3.46945e-18 0.00373118
0.219993 0.101886 3.46945e-18 0.00373415
0.075776 0.233516 0 0.00375116
0.219993 0.109266 0 0.00373668
0.151552 0.194169 0 0.00374945
0.219993 0.116914 0 0.00373885
0 0.251863 0 0.00375
0.219993 0.12484 0 0.00374075
0.151552 0.2049 0 0.00374993
0.075776 0.245675 0 0.0037514
0.219992 0.133054 3.46945e-18 0.00374241
0.219992 0.141565 0 0.00374383
0.151552 0.21602 0 0.00375039
0 0.264688 0 0.00375
0.219992 0.150387 3.46945e-18 0.00374504
0.075776 0.258275 3.46945e-18 0.00375158
0.219992 0.159528 -3.46945e-18 0.00374608
0.151552 0.227544 0 0.00375081
0.219992 0.169001 3.46945e-18 0.00374698
0 0.27798 0 0.00375
0.075776 0.271334 3.46945e-18 0.00375169
0.151552 0.239487 3.70071e-18 0.00375119
0.219992 0.178818 3.46945e-18 0.00374779
0.288433 0 0 0.00177041
0.288433 0.00368111 0 0.00152847
0.288433 0.00749587 0 0.00179265
0.288433 0.0114491 0 0.00261272
0.288433 0.0155459 3.70071e-18 0.00307797
0.288433 0.0197915 0 0.0032985
0.288433 0.0241911 3.70071e-18 0.00341219
0.288433 0.0287506 0 0.00348956
0.219992 0.188991 0 0.00374851
0.288433 0.0334755 0 0.00354685
0.288433 0.038372 0 0.0035894
0.288433 0.0434463 0 0.00362129
7.47806e-17 0.291753 0 0.00375
0.288433 0.0487048 0 0.00364559
0.288433 0.0541543 0 0.00366444
0.151552 0.251863 0 0.00375153
0.288433 0.0598016 3.70071e-18 0.00367932
0.075776 0.284866 0 0.00375173
0.288433 0.0656539 3.70071e-18 0.00369125
0.219992 0.199534 0 0.00374917
0.288433 0.0717187 0 0.00370093
0.288433 0.0780037 0 0.00370887
0.288433 0.0845169 0 0.00371542
0.288433 0.0912666 0 0.00372088
0.219992 0.21046 -3.46945e-18 0.00374979
0.288433 0.0982613 0 0.00372558
0.151552 0.264688 3.70071e-18 0.00375181
0 0.306027 0 0.00375
0.288433 0.10551 0 0.00372973
0.075776 0.29889 3.46945e-18 0.00375172
0.288433 0.113022 0 0.00373338
0.219993 0.221782 0 0.00375036
0.288433 0.120806 0 0.00373659
0.288433 0.128874 0 0.00373938
0.151552 0.27798 0 0.00375204
0.288433 0.137234 0 0.00374182
0 0.320819 0 0.00375
0.219992 0.233515 -3.46945e-18 0.00375088
0.075776 0.313423 -3.46945e-18 0.00375167
0.288433 0.145897 0 0.00374393
0.288433 0.154876 0 0.00374574
0.151552 0.291753 0 0.00375222
0.219993 0.245675 0 0.00375135
0.288433 0.16418 0 0.0037473
0 0.336148 0 0.00375
0.288433 0.173822 0 0.00374863
0.075776 0.328484 -3.46945e-18 0.00375158
0.219993 0.258275 -3.46945e-18 0.00375178
0.151552 0.306027 0 0.00375235
0.288433 0.183814 0 0.00374977
0.288433 0.194169 0 0.00375074
0.219992 0.271334 3.46945e-18 0.00375218
0.350249 0.00184056 -3.46945e-18 0.000965261
0.350249 0.00558849 0 0.000981083
0.350249 0.00947248 3.46945e-18 0.00223562
0.350249 0.0134975 0 0.00288794
0.350249 0.0176687 0 0.00319132
0.350249 0.0219913 0 0.00331492
0.350249 0.0264708 3.46945e-18 0.00340039
0.350249 0.031113 0 0.00347155
0 0.352034 0 0.00375
0.350249 0.0359238 0 0.00352786
0.075776 0.344091 0 0.00375149
0.350249 0.0409091 0 0.00357139
0.350249 0.0460756 3.46945e-18 0.00360505
0.288433 0.2049 0 0.00375159
0.350249 0.0514296 0 0.00363133
0.151552 0.320819 0 0.00375244
0.350249 0.0569779 0 0.00365211
0.350249 0.0627277 3.46945e-18 0.00366874
0.350249 0.0686863 3.46945e-18 0.00368222
0.350249 0.0748612 3.46945e-18 0.00369325
0.350249 0.0812603 0 0.00370232
0.219992 0.284867 0 0.00375252
0.288433 0.21602 0 0.00375234
0.350249 0.0878917 0 0.00370981
0.350249 0.094764 0 0.00371617
0.350249 0.101886 0 0.00372187
0.350249 0.109266 0 0.00372704
0.288433 0.227544 0 0.00375299
0.075776 0.360265 3.46945e-18 0.00375146
0 0.368496 0 0.00375
0.151552 0.336148 0 0.00375252
0.350249 0.116914 3.46945e-18 0.00373161
0.219992 0.29889 0 0.00375283
0.370854 0.0241911 1.54074e-33 0.00336873
0.350249 0.12484 0 0.0037356
0.350249 0.133054 0 0.00373909
0.288433 0.239487 -9.25154e-19 0.00375358
0.350249 0.141566 3.46945e-18 0.00374214
0.350249 0.150387 3.46945e-18 0.00374478
0.288433 0.251863 0 0.00375411
0.219992 0.313423 0 0.00375309
0.151552 0.352034 0 0.00375261
0.075776 0.377027 0 0.00375149
0.350249 0.159528 0 0.00374704
0 0.385557 0 0.00375
0.350249 0.169001 0 0.00374898
0.288433 0.264688 0 0.0037546
0.350249 0.178818 0 0.00375059
0.219992 0.328484 0 0.00375332
0.350249 0.188992 0 0.00375194
0.151552 0.368496 0 0.00375274
0.288433 0.27798 3.70071e-18 0.00375507
0.075776 0.394397 0 0.00375159
0.350249 0.199535 0 0.00375307
7.47806e-17 0.403236 0 0.00375
0.219992 0.344091 0 0.00375354
0.350249 0.21046 -3.46945e-18 0.00375403
0.288433 0.291753 0 0.00375551
0.412065 9.08189e-19 3.08149e-33 0.000799692
0.412065 0.00368111 -2.31298e-18 0.000868221
0.412065 0.00749587 -2.31298e-18 0.00163456
0.412065 0.0114491 -2.31298e-18 0.00265799
0.412065 0.0155459 -2.31298e-18 0.00310448
0.412065 0.0197915 0 0.00327181
0.412065 0.0241911 -3.08149e-33 0.003347
0.412065 0.0264709 0 0.00337647
0.412065 0.0287506 -2.31298e-18 0.00340594
0.412065 0.0334755 -2.31298e-18 0.003464
0.412065 0.038372 -2.31298e-18 0.00351528
0.151552 0.385557 0 0.00375293
0.412065 0.0434463 0 0.00355766
0.350249 0.221782 0 0.00375484
0.412065 0.0487048 0 0.00359191
0.412065 0.0541543 -3.08149e-33 0.00361949
0.412065 0.0569779 0 0.00363063
0.412065 0.0598016 -2.31298e-18 0.00364178
0.412065 0.0656539 -2.31298e-18 0.00365991
0.412065 0.0717187 -2.31298e-18 0.00367472
0.075776 0.412396 -3.46945e-18 0.00375168
0.412065 0.0780037 -2.31298e-18 0.00368687
0.288433 0.306027 0 0.00375593
0.412065 0.0845169 -2.31298e-18 0.00369698
0.350249 0.233516 3.46945e-18 0.00375555
0 0.421557 0 0.00375
0.412065 0.0912666 -2.31298e-18 0.00370568
0.219992 0.360265 3.46945e-18 0.00375377
0.412065 0.0982613 0 0.00371347
0.412065 0.10551 0 0.00372053
0.412065 0.113022 -2.31298e-18 0.00372689
0.350249 0.245675 0 0.00375618
0.412065 0.120806 0 0.00373255
0.151552 0.403236 0 0.00375314
0.288433 0.320819 0 0.00375633
0.412065 0.128874 -2.31298e-18 0.00373753
0.412065 0.137234 0 0.0037419
0.350249 0.258275 -3.46945e-18 0.00375676
0.219992 0.377026 0 0.00375405
0.412065 0.145897 -2.31298e-18 0.00374569
0.075776 0.431051 0 0.00375174
0.412065 0.154876 -2.31298e-18 0.00374897
0 0.440544 0 0.00375
0.288433 0.336148 0 0.00375672
0.350249 0.271334 0 0.00375731
0.412065 0.16418 -2.31298e-18 0.00375176
0.412065 0.173822 -2.31298e-18 0.00375412
0.151552 0.421557 0 0.00375336
0.412065 0.183814 -2.31298e-18 0.00375611
0.350249 0.284867 3.46945e-18 0.00375787
0.219992 0.394397 0 0.00375437
0.288433 0.352034 3.70071e-18 0.00375711
0.412065 0.194169 0 0.00375777
0.075776 0.450382 0 0.00375177
0.412065 0.2049 -2.31298e-18 0.00375916
0 0.46022 0 0.00375
0.350249 0.29889 3.46945e-18 0.00375842
0.412065 0.21602 0 0.00376031
0.151552 0.440544 0 0.00375356
0.219993 0.412396 3.46945e-18 0.00375471
0.467897 0.00184056 -3.46945e-18 0.000645675
0.467897 0.00558849 0 0.000895506
0.288433 0.368496 0 0.00375752
0.467897 0.00947248 0 0.00242243
0.467897 0.0134975 0 0.00307257
0.467897 0.0176687 3.46945e-18 0.00325707
0.467897 0.0219913 -3.46945e-18 0.00332135
0.467897 0.0264709 3.46945e-18 0.00335283
0.467897 0.0311131 3.46945e-18 0.00340317
0.467897 0.0359238 -3.46945e-18 0.0034584
0.467897 0.038372 0 0.00348762
0.467897 0.0409092 3.46945e-18 0.00350825
0.350249 0.313423 0 0.00375897
0.467897 0.0460755 0 0.0035502
0.467897 0.0514296 3.46945e-18 0.0035847
0.412065 0.227544 -2.31298e-18 0.00376127
0.467897 0.0569779 0 0.0036129
0.467897 0.0627277 -3.46945e-18 0.00363597
0.467897 0.0686863 3.46945e-18 0.00365486
0.467897 0.0748612 0 0.00367037
0.467897 0.0812603 0 0.00368308
0.467897 0.0878918 3.46945e-18 0.00369396
0.075776 0.470415 3.46945e-18 0.0037518
0.412065 0.239487 -2.31298e-18 0.0037621
0.467897 0.0947639 -3.46945e-18 0.00370381
0.467897 0.101886 3.46945e-18 0.0037128
0.350249 0.328483 0 0.00375951
0.467897 0.109266 0 0.00372097
0 0.48061 0 0.00375
0.288433 0.385557 0 0.00375795
0.467897 0.116914 0 0.0037283
0.412065 0.251863 -2.31298e-18 0.00376281
0.219992 0.431051 0 0.00375506
0.467897 0.12484 0 0.00373483
0.151552 0.46022 0 0.00375374
0.467897 0.133054 3.46945e-18 0.00374058
0.467897 0.141566 3.46945e-18 0.0037456
0.412065 0.264688 -2.31298e-18 0.00376346
0.350249 0.344091 -3.46945e-18 0.00376005
0.467897 0.150387 3.46945e-18 0.00374995
0.467897 0.154876 0 0.00375331
0.467897 0.159528 3.46945e-18 0.00375367
0.288433 0.403236 0 0.0037584
0.075776 0.491175 0 0.00375182
0.412065 0.27798 -2.31298e-18 0.00376408
0.467897 0.169001 0 0.00375682
0.467897 0.178818 3.46945e-18 0.0037595
0.219992 0.450382 0 0.00375539
6.73026e-17 0.501741 3.70071e-18 0.00375
0.350249 0.360265 0 0.00376059
0.151552 0.48061 0 0.0037539
0.467897 0.188991 0 0.00376175
0.412065 0.291753 0 0.00376467
0.467897 0.199535 0 0.00376361
0.288433 0.421557 0 0.00375887
0.467897 0.21046 0 0.00376514
0.412065 0.306027 0 0.00376524
0.350249 0.377027 0 0.00376113
0.467897 0.221782 3.46945e-18 0.00376641
0.075776 0.51269 0 0.00375184
0.219993 0.470415 3.46945e-18 0.00375569
0.467897 0.227544 0 0.0037687
0.412065 0.320819 -2.31298e-18 0.00376581
0.467897 0.233515 0 0.00376745
6.73026e-17 0.523639 3.70071e-18 0.00375
0.523729 0 0 0.000559113
0.523729 0.00368111 0 0.000714146
0.523729 0.00749587 -2.31298e-18 0.00171427
0.523729 0.0114491 0 0.00290923
0.523729 0.0155459 0 0.00331275
0.523729 0.0197915 -2.31298e-18 0.00336921
0.151552 0.501741 0 0.00375405
0.523729 0.0241911 0 0.00336888
0.523729 0.0287506 0 0.00337835
0.523729 0.0334755 0 0.00341349
0.523729 0.038372 -3.08149e-33 0.00345997
0.523729 0.0434463 0 0.00350555
0.523729 0.0487048 0 0.00354571
0.523729 0.0541543 0 0.00357974
0.288433 0.440544 0 0.00375933
0.523729 0.0598016 0 0.00360815
0.350249 0.394397 -3.46945e-18 0.00376169
0.523729 0.0656539 0 0.00363172
0.467897 0.245675 0 0.00376834
0.523729 0.0717187 0 0.00365121
0.523729 0.0780037 0 0.00366739
0.523729 0.0845169 0 0.00368124
0.523729 0.0912666 0 0.00369365
0.412065 0.336148 0 0.00376638
0.523729 0.0982613 0 0.00370499
0.523729 0.10551 -2.31298e-18 0.00371531
0.467897 0.258275 -3.46945e-18 0.00376911
0.523729 0.113022 0 0.00372465
0.523729 0.120806 -3.08149e-33 0.00373302
0.219993 0.491176 0 0.00375598
0.523729 0.12484 0 0.00373674
0.523729 0.128874 -2.31298e-18 0.00374046
0.075776 0.534986 0 0.00375187
0.467897 0.271334 3.46945e-18 0.00376979
0.350249 0.412396 -3.46945e-18 0.00376227
0.523729 0.137234 0 0.00374701
0.412065 0.352034 -2.31298e-18 0.00376696
0.288433 0.46022 0 0.00375978
0.523729 0.145897 0 0.00375272
0.151552 0.523639 0 0.00375421
0.523729 0.154876 -3.08149e-33 0.00375766
0 0.546332 0 0.00375
0.523729 0.159528 0 0.00375977
0.467897 0.284867 -3.46945e-18 0.00377043
0.523729 0.16418 -2.31298e-18 0.00376188
0.523729 0.173822 0 0.00376546
0.412065 0.368496 0 0.00376754
0.523729 0.183814 0 0.00376848
0.467897 0.29889 0 0.00377104
0.350249 0.431051 -3.46945e-18 0.00376285
0.219992 0.51269 0 0.00375625
0.523729 0.194169 0 0.00377099
0.288433 0.48061 0 0.00376021
0.523729 0.2049 0 0.00377306
0.467897 0.313423 3.46945e-18 0.00377164
0.075776 0.558091 0 0.00375191
0.412065 0.385557 0 0.00376813
0.523729 0.21602 -3.08149e-33 0.00377475
0.151552 0.546332 0 0.00375436
0 0.569849 0 0.00375
0.350249 0.450382 3.46945e-18 0.00376344
0.523729 0.227544 -3.08149e-33 0.00377614
0.467897 0.328483 0 0.00377223
0.523729 0.231525 1.54074e-33 0.00377652
0.574156 0.00184056 0 0.000478233
0.574156 0.00558849 0 0.000844585
0.574157 0.00947248 0 0.00268735
0.574156 0.0134975 -3.46945e-18 0.00343338
0.574156 0.0176687 -3.46945e-18 0.0034686
0.574156 0.0219913 0 0.00341934
0.574156 0.0264708 -3.46945e-18 0.00337783
0.574156 0.031113 0 0.00337952
0.574156 0.0359238 -3.46945e-18 0.00341515
0.574157 0.0409092 0 0.00346116
0.523729 0.239487 3.70071e-18 0.00377727
0.574156 0.0460755 -3.46945e-18 0.00350568
0.574156 0.0514295 0 0.00354509
0.412065 0.403236 0 0.00376874
0.574157 0.0569779 0 0.00357876
0.574156 0.0627277 0 0.0036071
0.574156 0.0686863 0 0.00363076
0.219992 0.534986 0 0.00375651
0.288433 0.501741 0 0.00376061
0.574156 0.0748612 3.46945e-18 0.00365035
0.574156 0.0812603 0 0.00366698
0.467897 0.344091 0 0.00377283
0.574156 0.0878917 3.46945e-18 0.00368189
0.523729 0.251863 0 0.00377822
0.574157 0.0947639 0 0.00369562
0.574156 0.101886 0 0.00370816
0.574156 0.109266 0 0.00371953
0.574156 0.116914 0 0.00372979
0.412065 0.416977 -6.16298e-33 0.00376921
0.350249 0.470415 0 0.003764
0.523729 0.264688 0 0.00377902
0.075776 0.582034 0 0.00375196
0.574156 0.12484 0 0.00373896
0.574156 0.133054 3.46945e-18 0.0037471
0.412065 0.421557 -2.31298e-18 0.00376937
0.151552 0.569849 0 0.00375452
0.467897 0.360265 -3.46945e-18 0.00377344
0.574157 0.141566 -3.46945e-18 0.00375424
0.523729 0.27798 0 0.00377972
0.574156 0.150386 3.46945e-18 0.00376045
0 0.594219 0 0.00375
0.574156 0.159528 -3.46945e-18 0.0037658
0.574156 0.16418 0 0.0037695
0.288433 0.523639 1.2326e-32 0.00376099
0.574157 0.169001 0 0.00377036
0.523729 0.291753 0 0.00378035
0.219993 0.558091 3.46945e-18 0.00375677
0.467897 0.377026 0 0.00377407
0.574156 0.178818 3.46945e-18 0.00377421
0.412065 0.440544 -2.31298e-18 0.00377001
0.350249 0.491175 0 0.00376454
0.574156 0.188992 3.46945e-18 0.00377743
0.523729 0.306027 -3.08149e-33 0.00378095
0.574157 0.199535 0 0.00378009
0.574157 0.21046 0 0.00378226
0.075776 0.606847 0 0.00375202
0.467897 0.394397 0 0.00377471
0.151552 0.594219 0 0.00375467
0.523729 0.320819 0 0.00378152
0.574157 0.221782 -3.46945e-18 0.00378403
0.412065 0.46022 3.08149e-33 0.00377064
0.288433 0.546332 0 0.00376136
0 0.619475 0 0.00375
0.574156 0.233515 3.46945e-18 0.00378546
0.350249 0.51269 3.46945e-18 0.00376504
0.219992 0.582034 3.46945e-18 0.00375703
0.523729 0.336148 0 0.00378209
0.467897 0.412396 0 0.00377538
0.574156 0.245675 0 0.00378662
0.624584 0 0 0.000417863
0.624584 0.00368111 0 0.000624489
0.624584 0.00749587 0 0.00182699
0.624584 0.0114491 0 0.00324734
0.624584 0.0155459 0 0.00366445
0.624584 0.0197915 0 0.00358804
0.624584 0.0241911 -2.31298e-18 0.00347218
0.624584 0.0287506 0 0.00340881
0.624584 0.0334755 0 0.0034006
0.624584 0.038372 0 0.00342793
0.624584 0.0434463 -2.31298e-18 0.00346814
0.624584 0.0487048 0 0.00350942
0.624584 0.0541543 0 0.00354714
0.624584 0.0598016 0 0.00358003
0.624584 0.0656539 0 0.00360806
0.624584 0.0717187 0 0.00363161
0.624584 0.0780037 0 0.00365161
0.574157 0.258276 3.46945e-18 0.00378757
0.624584 0.0845169 0 0.00366937
0.523729 0.352034 0 0.00378267
0.624584 0.0912666 0 0.00368571
0.624584 0.0982613 0 0.00370073
0.412065 0.48061 3.08149e-33 0.00377125
0.624584 0.10551 0 0.00371444
0.624584 0.113022 -2.31298e-18 0.00372687
0.574156 0.271334 0 0.00378836
0.624584 0.120806 0 0.00373806
0.467897 0.431051 0 0.00377606
0.075776 0.632561 -3.46945e-18 0.00375207
0.624584 0.128874 0 0.00374805
0.151552 0.619475 0 0.00375483
0.288433 0.569849 0 0.00376172
0.350249 0.534985 0 0.00376552
0.624584 0.137234 -2.31298e-18 0.00375688
0.523729 0.368496 0 0.00378326
0.574156 0.284866 -3.46945e-18 0.00378904
0.624584 0.145897 0 0.00376462
0.467897 0.440544 0 0.00377792
0.624584 0.154876 0 0.00377134
0.219992 0.606847 -3.46945e-18 0.00375728
0 0.645647 0 0.00375
0.624584 0.16418 -3.08149e-33 0.00377711
0.574156 0.29889 -3.46945e-18 0.00378965
0.624584 0.173822 0 0.00378202
0.412065 0.501741 1.54074e-33 0.00377183
0.467897 0.450382 -3.46945e-18 0.00377675
0.523729 0.385557 0 0.00378386
0.624584 0.183814 0 0.00378614
0.624584 0.194169 0 0.00378956
0.574156 0.313423 0 0.00379021
0.624584 0.2049 0 0.00379237
0.350249 0.558091 3.46945e-18 0.00376597
0.288433 0.594219 0 0.00376206
0.624584 0.21602 0 0.00379465
0.523729 0.403236 0 0.0037845
0.574156 0.328483 -3.46945e-18 0.00379076
0.151552 0.645647 0 0.00375499
0.467897 0.470415 3.46945e-18 0.00377743
0.075776 0.659208 0 0.00375214
0.624584 0.227544 0 0.00379649
0.412065 0.523639 0 0.00377238
0.523729 0.41545 3.08149e-33 0.00378494
0.624584 0.239487 3.70071e-18 0.00379796
0.574156 0.344091 0 0.0037913
0.219992 0.632561 0 0.00375753
0.67013 0.00184055 0 0.000361187
0.67013 0.00558849 0 0.00081848
0.67013 0.00947248 0 0.00295015
0.67013 0.0134975 0 0.00389566
0.67013 0.0176687 -3.46945e-18 0.00383408
0.67013 0.0219913 0 0.00361251
0.67013 0.0264708 3.46945e-18 0.00347005
0.67013 0.0311131 0 0.00340414
0.67013 0.0359237 0 0.0034032
0.67013 0.0409092 -3.46945e-18 0.00343348
0.67013 0.0460755 0 0.0034741
0.67013 0.0514296 3.46945e-18 0.00351475
0.523729 0.421557 -2.31298e-18 0.00378516
0.67013 0.056978 0 0.00355176
0 0.67277 0 0.00375
0.67013 0.0627277 0 0.00358408
0.624584 0.251863 0 0.00379914
0.67013 0.0686863 0 0.00361163
0.67013 0.0748612 3.46945e-18 0.0036348
0.67013 0.0812603 0 0.00365516
0.67013 0.0878917 0 0.00367408
0.67013 0.0947639 3.46945e-18 0.0036916
0.574156 0.360265 0 0.00379185
0.67013 0.101886 0 0.00370768
0.523729 0.431051 0 0.0037855
0.624584 0.264688 0 0.00380008
0.467897 0.491175 0 0.00377809
0.67013 0.109266 3.46945e-18 0.00372233
0.350249 0.582034 0 0.0037664
0.67013 0.116914 0 0.00373557
0.67013 0.12484 0 0.00374747
0.67013 0.133054 0 0.00375805
0.288433 0.619475 0 0.00376238
0.624584 0.27798 -3.08149e-33 0.00380085
0.412065 0.546332 1.54074e-33 0.00377289
0.523729 0.440544 -3.08149e-33 0.00378584
0.67013 0.141566 3.46945e-18 0.00376738
0.685312 0.0241911 -7.70372e-34 0.00360095
0.685312 0.0434463 -7.70372e-34 0.0034555
0.67013 0.150387 0 0.00377553
0.574156 0.377026 -3.46945e-18 0.00379243
0.67013 0.159528 0 0.00378258
0.624584 0.291753 0 0.00380149
0.151552 0.67277 0 0.00375514
0.075776 0.686823 0 0.0037522
0.67013 0.169001 0 0.00378861
0.67013 0.178818 0 0.0037937
0.467897 0.51269 0 0.00377871
0.685312 0.113022 -7.70372e-34 0.00373101
0.219992 0.659208 0 0.00375778
0.624584 0.306027 0 0.00380206
0.67013 0.188991 0 0.00379795
0.574156 0.394397 3.46945e-18 0.00379303
0.523729 0.46022 0 0.00378652
0.685312 0.137234 -7.70372e-34 0.00376619
0.67013 0.199535 -3.46945e-18 0.00380146
0.350249 0.606847 0 0.00376681
0 0.700877 0 0.00375
0.624584 0.320819 0 0.00380257
0.67013 0.21046 0 0.00380432
0.412065 0.569849 -2.31298e-18 0.00377337
0.67013 0.221782 -3.46945e-18 0.00380661
0.574157 0.412396 0 0.00379366
0.288433 0.645647 0 0.0037627
0.624584 0.336148 -3.08149e-33 0.00380306
0.67013 0.233515 3.46945e-18 0.00380844
0.467897 0.534986 0 0.00377929
0.523729 0.48061 0 0.00378718
0.624584 0.344091 0 0.0038033
0.67013 0.245675 0 0.00380989
0.715676 4.54095e-19 0 0.000315323
0.715676 0.00368111 0 0.00056379
0.715676 0.00749587 0 0.0019442
0.715676 0.0114491 0 0.0036122
0.715676 0.0155459 0 0.00411455
0.715676 0.0197915 0 0.00392546
0.715676 0.0241911 0 0.00366533
0.715676 0.0287506 0 0.00350379
0.715676 0.0334755 0 0.00343153
0.715676 0.038372 0 0.00342411
0.624584 0.352034 -2.31298e-18 0.00380355
0.715676 0.0434463 0 0.00344918
0.151552 0.700877 0 0.0037553
0.715676 0.0487048 0 0.00348558
0.715676 0.0541543 0 0.00352352
0.574156 0.43105 0 0.00379432
0.715676 0.0598016 0 0.00355881
0.67013 0.258275 0 0.00381102
0.715676 0.0656539 0 0.00358996
0.715676 0.0717187 0 0.00361682
0.075776 0.715441 0 0.00375227
0.715676 0.0780037 0 0.00364033
0.715676 0.0845169 0 0.00366183
0.219992 0.686824 0 0.00375802
0.715676 0.0912666 0 0.0036819
0.715676 0.0982613 0 0.00370049
0.67013 0.271334 -3.46945e-18 0.00381191
0.350249 0.632561 -3.46945e-18 0.0037672
0.412065 0.594219 3.08149e-33 0.00377382
0.715676 0.10551 0 0.00371755
0.715676 0.113022 0 0.00373308
0.624584 0.368496 0 0.00380405
0.523729 0.501741 0 0.00378782
0.715676 0.120806 0 0.00374711
0.715676 0.128874 0 0.00375968
0.67013 0.284867 0 0.00381262
0.467897 0.558091 3.46945e-18 0.00377982
0.715676 0.137234 0 0.00377085
0.574156 0.450382 0 0.003795
0 0.730005 0 0.00375
0.715676 0.145897 0 0.00378067
0.288433 0.67277 0 0.003763
0.715676 0.154876 0 0.00378922
0.67013 0.29889 0 0.0038132
0.624584 0.385557 0 0.00380457
0.715676 0.16418 -9.25187e-19 0.00379658
0.715676 0.173822 0 0.00380286
0.715676 0.183814 0 0.00380814
0.67013 0.313423 0 0.0038137
0.523729 0.523639 0 0.00378842
0.715676 0.194169 0 0.00381252
0.574156 0.470415 3.46945e-18 0.00379567
0.624584 0.403236 0 0.00380513
0.743101 0.0241911 -7.70372e-34 0.00376345
0.412065 0.619475 3.08149e-33 0.00377424
0.715676 0.2049 0 0.00381612
0.151552 0.730005 0 0.00375545
0.67013 0.328484 3.46945e-18 0.00381415
0.350249 0.659208 0 0.00376756
0.467897 0.582034 0 0.00378032
0.715676 0.21602 0 0.00381902
0.219992 0.715441 0 0.00375825
0.075776 0.745097 -3.46945e-18 0.00375234
0.715676 0.227544 0 0.00382133
0.67013 0.344091 0 0.00381458
0.624584 0.421557 0 0.00380571
0.743101 0.128874 -7.70372e-34 0.00376468
0.715676 0.239487 3.70071e-18 0.00382315
0.574156 0.491175 0 0.00379633
0.756814 0.00184055 0 0.000272051
0.523729 0.546332 0 0.00378897
0.756813 0.00558849 0 0.000806403
0.756813 0.00947248 0 0.00319509
0.756814 0.0134975 -3.46945e-18 0.00438659
0.756814 0.0155459 0 0.00435976
0.756814 0.0176687 0 0.0043137
0.756814 0.0219913 0 0.00391874
0.756814 0.0264709 0 0.00364601
0.756814 0.031113 -3.46945e-18 0.00348742
0.756813 0.0359238 -3.46945e-18 0.00342819
0.288433 0.700877 0 0.00376328
0.756814 0.0409092 -3.46945e-18 0.00343091
0.756813 0.0460755 3.46945e-18 0.00345878
0.756813 0.0514296 0 0.00349567
0.715676 0.251863 0 0.00382456
0.756813 0.0569779 0 0.00353301
0.756814 0.0627277 -3.46945e-18 0.00356741
0.756814 0.0686863 -3.46945e-18 0.00359762
0 0.76019 0 0.00375
0.756814 0.0748612 0 0.00362396
0.67013 0.360265 3.46945e-18 0.00381501
0.756814 0.0812603 -3.46945e-18 0.00364792
0.756814 0.0878917 -3.46945e-18 0.00367048
0.756814 0.0947639 -3.46945e-18 0.00369155
0.715676 0.264688 0 0.00382565
0.756813 0.101886 0 0.00371104
0.624584 0.440544 0 0.00380632
0.756813 0.109266 3.46945e-18 0.00372887
0.756813 0.116914 3.46945e-18 0.00374508
0.412065 0.645647 0 0.00377463
0.467897 0.606847 0 0.00378078
0.756814 0.120806 0 0.00375333
0.756813 0.12484 0 0.00375969
0.715676 0.27798 0 0.00382648
0.756814 0.133054 -3.46945e-18 0.00377274
0.67013 0.377026 -3.46945e-18 0.00381547
0.756814 0.137234 0 0.00377951
0.574156 0.51269 0 0.00379695
0.756813 0.141566 3.46945e-18 0.00378429
0.685312 0.352034 -7.70372e-34 0.00382036
0.743101 0.2049 -7.70372e-34 0.0038252
0.350249 0.686824 0 0.00376791
0.756814 0.150387 0 0.00379442
0.756814 0.154876 0 0.00379985
0.715676 0.291753 0 0.00382712
0.756814 0.159528 -3.46945e-18 0.0038032
0.523729 0.569849 0 0.00378947
0.72743 0.264688 0 0.00382981
0.756814 0.16418 0 0.00380802
0.151552 0.76019 0 0.0037556
0.756813 0.169001 3.46945e-18 0.00381072
0.624584 0.46022 0 0.00380695
0.219993 0.745097 0 0.00375847
0.67013 0.394396 0 0.00381595
0.756813 0.178818 -3.46945e-18 0.0038171
0.715676 0.306027 0 0.00382762
0.075776 0.775831 0 0.00375241
0.756813 0.188991 0 0.00382243
0.756814 0.199535 0 0.00382682
0.715676 0.320819 0 0.00382804
0.574156 0.534985 0 0.00379752
0.288433 0.730005 0 0.00376355
0.756813 0.21046 0 0.00383039
0.467897 0.632561 0 0.0037812
0.67013 0.412396 -3.46945e-18 0.00381646
0.624584 0.48061 -3.08149e-33 0.00380756
0.756814 0.221782 0 0.00383325
0.412065 0.67277 3.08149e-33 0.00377498
0.715676 0.336148 0 0.00382841
0 0.791472 0 0.00375
0.756813 0.233516 3.46945e-18 0.00383549
0.523729 0.594219 0 0.00378992
0.624584 0.487654 1.54074e-33 0.00380776
0.756814 0.245675 3.46945e-18 0.00383723
0.350249 0.715441 3.46945e-18 0.00376822
0.67013 0.43105 0 0.00381701
0.715676 0.352034 -9.25187e-19 0.00382876
0.797951 9.08189e-19 -3.08149e-33 0.000237076
0.797951 0.00368111 2.31298e-18 0.00051861
0.797951 0.00749587 2.31298e-18 0.00204958
0.797951 0.0114491 2.31298e-18 0.00395891
0.797951 0.0141803 7.70372e-34 0.00438962
0.797951 0.0155459 0 0.00460497
0.797951 0.0169611 7.70372e-34 0.00452471
0.797951 0.0197915 2.31298e-18 0.0043642
0.797951 0.0219913 0 0.00416195
0.797951 0.0241911 3.08149e-33 0.0039597
0.797951 0.0264709 0 0.00381578
0.797951 0.0287506 -3.08149e-33 0.00367187
0.797951 0.0334755 2.31298e-18 0.0035123
0.797951 0.038372 2.31298e-18 0.00345283
0.797951 0.0434463 2.31298e-18 0.00345138
0.797951 0.0487048 0 0.00347616
0.756813 0.258275 -3.46945e-18 0.00383855
0.797951 0.0541543 2.31298e-18 0.0035101
0.797951 0.0598016 2.31298e-18 0.0035452
0.797951 0.0656539 2.31298e-18 0.00357785
0.574156 0.55809 0 0.00379804
0.624584 0.501741 0 0.00380815
0.797951 0.0717187 2.31298e-18 0.00360706
0.797951 0.0780037 -3.08149e-33 0.00363362
0.797951 0.0845169 2.31298e-18 0.00365852
0.797951 0.0912666 -3.08149e-33 0.003682
0.797951 0.0982613 2.31298e-18 0.00370393
0.756813 0.271334 0 0.00383953
0.797951 0.10551 2.31298e-18 0.00372419
0.715676 0.368496 0 0.00382912
0.151552 0.791472 0 0.00375574
0.797951 0.113022 2.31298e-18 0.00374273
0.219992 0.775831 3.46945e-18 0.00375869
0.797951 0.118211 7.70372e-34 0.00375394
0.770526 0.239487 1.54074e-33 0.00384232
0.797951 0.120806 0 0.00375955
0.67013 0.450382 3.46945e-18 0.00381758
0.797951 0.128874 3.08149e-33 0.00377469
0.467897 0.659208 0 0.00378158
0.756813 0.284866 -3.46945e-18 0.00384026
0.743101 0.320819 -7.70372e-34 0.00383773
0.797951 0.137234 0 0.00378817
0.797951 0.141566 0 0.00379413
0.797951 0.145897 -9.25187e-19 0.00380008
0.523729 0.619475 0 0.00379033
0.075776 0.807681 0 0.00375248
0.797951 0.150387 0 0.00380528
0.797951 0.154876 0 0.00381048
0.715676 0.385557 0 0.0038295
0.412065 0.700877 3.08149e-33 0.0037753
0.288433 0.76019 0 0.0037638
0.756813 0.29889 0 0.0038408
0.797951 0.16418 0 0.00381946
0.624584 0.523639 0 0.0038087
0.797951 0.167394 7.70372e-34 0.00382202
0.797951 0.173822 2.31298e-18 0.00382713
0.574156 0.582034 0 0.0037985
0.67013 0.470415 0 0.00381815
0.797951 0.183814 2.31298e-18 0.0038336
0.756813 0.313423 -3.46945e-18 0.00384121
0.797951 0.194169 -9.25187e-19 0.00383897
0.715676 0.403236 0 0.00382991
0.151552 0.807681 0 0.00375581
0.797951 0.197746 -7.70372e-34 0.00384044
0.350249 0.745097 0 0.00376852
0.797951 0.2049 3.08149e-33 0.00384337
0 0.823889 0 0.00375
0.756813 0.328483 -3.46945e-18 0.00384154
0.797951 0.21046 0 0.00384515
0.797951 0.21602 -3.08149e-33 0.00384692
0.797951 0.223703 7.70372e-34 0.00384879
0.797951 0.227544 9.25187e-19 0.00384973
0.624584 0.546332 0 0.00380919
0.715676 0.421557 0 0.00383036
0.67013 0.491176 -3.46945e-18 0.00381872
0.797951 0.231525 7.70372e-34 0.00385045
0.467897 0.686824 -3.46945e-18 0.00378191
0.523729 0.645647 0 0.00379068
0.756813 0.344091 -3.46945e-18 0.00384182
0.822721 0.120806 7.70372e-34 0.0037646
0.797951 0.239487 -3.08149e-33 0.00385191
0.822721 0.137234 7.70372e-34 0.00379483
0.835106 0.00184056 0 0.000203908
0.835106 0.00558849 0 0.00079423
0.835106 0.00947248 0 0.00339767
0.835106 0.0134975 0 0.00483904
0.835107 0.0176687 0 0.00485428
0.835106 0.0219913 -3.46945e-18 0.00434449