# kMean  POINT_DATA 63840
# x  y  z  kMean
0 0.5 3.39583e-17 0.00375
0 0.5 -0.00617931 0.00375
0 0.5 0.00617931 0.00375
0.0124865 0.5 -0.00617931 0.0037503
0.0124865 0.5 0.00617931 0.0037503
0 0.5 -0.0688207 0.00375
0 0.5 0.0688207 0.00375
0.0124865 0.5 -0.0688207 0.0037503
0.0124865 0.5 0.0688207 0.0037503
0 0.5 -0.075 0.00375
0 0.5 0.075 0.00375
0 0.5 -0.0811793 0.00375
0 0.5 0.0811793 0.00375
0.0124865 0.5 -0.0811793 0.0037503
0.0124865 0.5 0.0811793 0.00375032
0.075776 0.5 -0.0375 0.00375181
0.075776 0.5 0.0375 0.00375184
0.075776 0.5 -0.1125 0.00375182
0.075776 0.5 0.1125 0.00375194
0 0.5 -0.143821 0.00375
0 0.5 0.143821 0.00375
0.0124865 0.5 -0.143821 0.0037503
0.0124865 0.5 0.143821 0.00375032
0 0.5 -0.15 0.00375
0 0.5 0.15 0.00375
0.151149 0.5 -0.00137318 0.00375402
0 0.5 -0.156179 0.00375
0 0.5 0.156179 0.00375
0.0124865 0.5 -0.156179 0.00375031
0.0124865 0.5 0.156179 0.00375034
0.151149 0.5 0.075 0.00375411
0.151149 0.5 -0.075 0.00375403
0.075776 0.5 -0.1875 0.00375188
0.075776 0.5 0.1875 0.00375208
0.151149 0.5 0.15 0.0037543
0.151149 0.5 -0.15 0.00375412
0 0.5 -0.218821 0.00375
0 0.5 0.218821 0.00375
0.0124865 0.5 -0.218821 0.00375031
0.0124865 0.5 0.218821 0.00375034
0.219992 0.5 0.0375 0.00375611
0.219993 0.5 -0.0375 0.00375607
0 0.5 -0.225 0.00375
0 0.5 0.225 0.00375
0 0.5 -0.231179 0.00375
0 0.5 0.231179 0.00375
0.0124865 0.5 -0.231179 0.00375033
0.0124865 0.5 0.231179 0.00375037
0.219992 0.5 0.1125 0.00375628
0.219993 0.5 -0.1125 0.00375614
0.151149 0.5 -0.225 0.00375431
0.151149 0.5 0.225 0.00375459
0.075776 0.5 -0.2625 0.003752
0.075776 0.5 0.2625 0.00375227
0.288069 0.5 -0.00137318 0.00376052
0.219992 0.5 0.1875 0.00375661
0.219993 0.5 -0.1875 0.00375634
0 0.5 0.293821 0.00375
0 0.5 -0.293821 0.00375
0.0124865 0.5 -0.293821 0.00375033
0.0124865 0.5 0.293821 0.00375037
0.288069 0.5 -0.075 0.00376061
0.288069 0.5 0.075 0.00376063
0 0.5 -0.3 0.00375
0 0.5 0.3 0.00375
0 0.5 0.306179 0.00375
0 0.5 -0.306179 0.00375
0.0124865 0.5 -0.306179 0.00375035
0.0124865 0.5 0.306179 0.00375041
0.288069 0.5 -0.15 0.00376078
0.288069 0.5 0.15 0.00376085
0.151149 0.5 -0.3 0.0037546
0.151149 0.5 0.3 0.00375496
0.219992 0.5 -0.2625 0.00375672
0.219992 0.5 0.2625 0.00375708
0.075776 0.5 0.3375 0.00375249
0.075776 0.5 -0.3375 0.00375216
0.350249 0.5 -0.0375 0.00376475
0.350249 0.5 0.0375 0.00376473
0.288069 0.5 -0.225 0.0037611
0.288069 0.5 0.225 0.00376122
0.350249 0.5 0.1125 0.00376484
0.350249 0.5 -0.1125 0.00376489
0 0.5 0.368821 0.00375
0 0.5 -0.368821 0.00375
0.0124865 0.5 -0.368821 0.00375035
0.0124865 0.5 0.368821 0.00375041
0 0.5 -0.375 0.00375
0 0.5 0.375 0.00375
0 0.5 -0.381179 0.00375
0 0.5 0.381179 0.00375
0.0124865 0.5 -0.381179 0.00375038
0.0124865 0.5 0.381179 0.00375045
0.350249 0.5 -0.1875 0.00376516
0.350249 0.5 0.1875 0.00376511
0.219992 0.5 -0.3375 0.00375718
0.219992 0.5 0.3375 0.00375765
0.151149 0.5 -0.375 0.00375493
0.151149 0.5 0.375 0.00375537
0.411736 0.5 -0.00137318 0.0037717
0.288069 0.5 -0.3 0.00376155
0.288069 0.5 0.3 0.00376174
0.411736 0.5 -0.075 0.00377185
0.411736 0.5 0.075 0.00377174
0.075776 0.5 -0.4125 0.00375234
0.075776 0.5 0.4125 0.00375271
0.350249 0.5 -0.2625 0.00376561
0.350249 0.5 0.2625 0.00376555
0.411736 0.5 -0.15 0.00377204
0.411736 0.5 0.15 0.00377185
0 0.5 -0.443821 0.00375
0 0.5 0.443821 0.00375
0.0124865 0.5 -0.443821 0.00375038
0.0124865 0.5 0.443821 0.00375045
0 0.5 -0.45 0.00375
0 0.5 0.45 0.00375
0 0.5 -0.456179 0.00375
0 0.5 0.456179 0.00375
0.0124865 0.5 -0.456179 0.00375042
0.0124865 0.5 0.456179 0.00375048
0.219992 0.5 -0.4125 0.00375769
0.219993 0.5 0.4125 0.00375826
0.411736 0.5 -0.225 0.00377235
0.411736 0.5 0.225 0.00377209
0.467897 0.5 0.0375 0.0037783
0.467897 0.5 -0.0375 0.00377839
0.288069 0.5 -0.375 0.00376206
0.288069 0.5 0.375 0.00376235
0.151149 0.5 -0.45 0.00375529
0.151149 0.5 0.45 0.0037558
0.467897 0.5 -0.1125 0.00377853
0.467897 0.5 0.1125 0.00377828
0.350249 0.5 0.3375 0.00376613
0.350249 0.5 -0.3375 0.00376613
0.075776 0.5 -0.4875 0.00375253
0.075776 0.5 0.4875 0.00375294
0.467897 0.5 -0.1875 0.00377875
0.467897 0.5 0.1875 0.00377835
0.411736 0.5 -0.3 0.00377273
0.411736 0.5 0.3 0.00377248
0 0.5 -0.518821 0.00375
0 0.5 0.518821 0.00375
0.0124865 0.5 0.518821 0.00375048
0.0124865 0.5 -0.518821 0.00375042
0.523432 0.5 -0.00137318 0.00378765
0 0.5 -0.525 0.00375
0 0.5 0.525 0.00375
0.523432 0.5 -0.075 0.00378782
0.523432 0.5 0.075 0.00378763
0 0.5 -0.531179 0.00375
0 0.5 0.531179 0.00375
0.0124865 0.5 -0.531179 0.00375045
0.0124865 0.5 0.531179 0.00375052
0.288069 0.5 -0.45 0.00376259
0.288069 0.5 0.45 0.003763
0.219992 0.5 -0.4875 0.00375821
0.219993 0.5 0.4875 0.0037589
0.467897 0.5 -0.2625 0.00377903
0.467897 0.5 0.2625 0.00377856
0.350249 0.5 -0.4125 0.00376667
0.350249 0.5 0.4125 0.00376679
0.523432 0.5 -0.15 0.00378792
0.523432 0.5 0.15 0.00378756
0.151149 0.5 -0.525 0.00375564
0.151149 0.5 0.525 0.00375623
0.411736 0.5 -0.375 0.00377314
0.411736 0.5 0.375 0.00377298
0.075776 0.5 -0.5625 0.00375271
0.075776 0.5 0.5625 0.00375315
0.523432 0.5 -0.225 0.00378804
0.523432 0.5 0.225 0.00378754
0.574156 0.5 -0.0375 0.00379663
0.574156 0.5 0.0375 0.00379654
0.467897 0.5 0.3375 0.0037789
0.467897 0.5 -0.3375 0.00377935
0.574156 0.5 -0.1125 0.00379668
0.574156 0.5 0.1125 0.00379637
0 0.5 -0.593821 0.00375
0 0.5 0.593821 0.00375
0.0124865 0.5 -0.593821 0.00375045
0.0124865 0.5 0.593821 0.00375052
0.288069 0.5 -0.525 0.00376308
0.288069 0.5 0.525 0.00376366
0 0.5 -0.6 0.00375
0 0.5 0.6 0.00375
0.350249 0.5 -0.4875 0.00376718
0.350249 0.5 0.4875 0.00376749
0.523432 0.5 -0.3 0.00378813
0.523432 0.5 0.3 0.00378761
0.219992 0.5 -0.5625 0.00375871
0.219992 0.5 0.5625 0.00375952
0.574156 0.5 -0.1875 0.0037967
0.574156 0.5 0.1875 0.00379619
0 0.5 -0.606179 0.00375
0 0.5 0.606179 0.00375
0.0124865 0.5 -0.606179 0.00375047
0.0124865 0.5 0.606179 0.00375055
0.411736 0.5 -0.45 0.00377351
0.411736 0.5 0.45 0.00377353
0.151149 0.5 -0.6 0.00375597
0.151149 0.5 0.6 0.00375663
0.62168 0.5 2.64545e-17 0.00380736
0.467897 0.5 0.4125 0.00377932
0.467897 0.5 -0.4125 0.00377962
0.624316 0.5 0.0729402 0.00380791
0.624316 0.5 -0.075 0.00380806
0.574156 0.5 -0.2625 0.00379664
0.574157 0.5 0.2625 0.00379604
0.075776 0.5 -0.6375 0.00375288
0.075776 0.5 0.6375 0.00375333
0.624316 0.5 -0.15 0.00380794
0.624316 0.5 0.15 0.00380764
0.523432 0.5 -0.375 0.00378817
0.523432 0.5 0.375 0.00378777
0.350249 0.5 -0.5625 0.00376764
0.350249 0.5 0.5625 0.00376817
0.624316 0.5 -0.225 0.0038077
0.624316 0.5 0.225 0.00380729
0.288069 0.5 0.6 0.00376429
0.288069 0.5 -0.6 0.00376353
0.574156 0.5 -0.3375 0.00379651
0.574156 0.5 0.3375 0.00379596
0.411736 0.5 -0.525 0.00377381
0.411736 0.5 0.525 0.00377409
0 0.5 -0.668821 0.00375
0 0.5 0.668821 0.00375
0.0124865 0.5 -0.668821 0.00375047
0.0124865 0.5 0.668821 0.00375055
0.67013 0.5 0.0375 0.00381892
0.67013 0.5 -0.0375 0.00381895
0.219993 0.5 -0.6375 0.00375916
0.219993 0.5 0.6375 0.00376008
0 0.5 -0.675 0.00375
0 0.5 0.675 0.00375
0.467897 0.5 0.4875 0.00377976
0.467897 0.5 -0.4875 0.0037798
0.67013 0.5 -0.1125 0.00381879
0.67013 0.5 0.1125 0.00381864
0 0.5 -0.681179 0.00375
0 0.5 0.681179 0.00375
0.0124865 0.5 -0.681179 0.0037505
0.0124865 0.5 0.681179 0.00375057
0.523432 0.5 -0.45 0.00378809
0.523432 0.5 0.45 0.00378796
0.151149 0.5 -0.675 0.00375626
0.151149 0.5 0.675 0.00375699
0.624316 0.5 -0.3 0.0038073
0.624316 0.5 0.3 0.00380692
0.67013 0.5 0.1875 0.00381818
0.67013 0.5 -0.1875 0.00381844
0.574156 0.5 -0.4125 0.00379623
0.574157 0.5 0.4125 0.00379593
0.708171 0.5 1.88651e-17 0.00383004
0.075776 0.5 -0.7125 0.00375302
0.075776 0.5 0.7125 0.00375348
0.715434 0.5 0.0736268 0.00383179
0.715434 0.5 -0.075 0.00383201
0.67013 0.5 0.2625 0.0038176
0.67013 0.5 -0.2625 0.00381788
0.350249 0.5 -0.6375 0.00376801
0.350249 0.5 0.6375 0.00376881
0.411736 0.5 -0.6 0.00377401
0.411736 0.5 0.6 0.00377462
0.624316 0.5 -0.375 0.00380671
0.624316 0.5 0.375 0.00380658
0.715434 0.5 -0.15 0.00383154
0.715434 0.5 0.15 0.00383161
0.467897 0.5 -0.5625 0.00377986
0.467897 0.5 0.5625 0.00378019
0.288069 0.5 -0.675 0.00376389
0.288069 0.5 0.675 0.00376485
0.523432 0.5 -0.525 0.00378787
0.523432 0.5 0.525 0.00378814
0 0.5 -0.743821 0.00375
0 0.5 0.743821 0.00375
0.0124865 0.5 -0.743821 0.0037505
0.0124865 0.5 0.743821 0.00375057
0.219992 0.5 0.7125 0.00376058
0.219992 0.5 -0.7125 0.00375954
0.715434 0.5 -0.225 0.00383076
0.715434 0.5 0.225 0.00383091
0 0.5 -0.75 0.00375
0 0.5 0.75 0.00375
0.67013 0.5 0.3375 0.00381696
0.67013 0.5 -0.3375 0.00381705
0.574156 0.5 -0.4875 0.00379578
0.574156 0.5 0.4875 0.00379589
0 0.5 -0.756179 0.00375
0 0.5 0.756179 0.00375
0.0124865 0.5 -0.756179 0.00375052
0.0124865 0.5 0.756179 0.00375059
0.756813 0.5 -0.0375 0.00384477
0.756813 0.5 0.0375 0.00384488
0.151149 0.5 -0.75 0.0037565
0.151149 0.5 0.75 0.00375728
0.756813 0.5 -0.1125 0.00384428
0.756813 0.5 0.1125 0.00384455
0.624316 0.5 -0.45 0.00380592
0.624316 0.5 0.45 0.00380622
0.715434 0.5 -0.3 0.00382967
0.715434 0.5 0.3 0.00383002
0.756813 0.5 0.1875 0.00384382
0.756813 0.5 -0.1875 0.00384341
0.67013 0.5 -0.4125 0.00381599
0.67013 0.5 0.4125 0.00381635
0.411736 0.5 -0.675 0.00377409
0.411736 0.5 0.675 0.00377508
0.467897 0.5 0.6375 0.00378057
0.467897 0.5 -0.6375 0.00377979
0.075776 0.5 -0.7875 0.00375313
0.075776 0.5 0.7875 0.0037536
0.350249 0.5 -0.7125 0.00376828
0.350249 0.5 0.7125 0.00376937
0.523432 0.5 -0.6 0.0037875
0.523432 0.5 0.6 0.00378827
0.797732 0.5 2.68882e-17 0.0038595
0.756813 0.5 -0.2625 0.00384213
0.756814 0.5 0.2625 0.00384279
0.797732 0.5 0.0736268 0.00385933
0.797732 0.5 -0.075 0.00385903
0.288069 0.5 -0.75 0.00376416
0.288069 0.5 0.75 0.00376533
0.574156 0.5 -0.5625 0.00379515
0.574157 0.5 0.5625 0.0037958
0.715434 0.5 -0.375 0.00382825
0.715434 0.5 0.375 0.00382903
0.797732 0.5 -0.15 0.00385805
0.797732 0.5 0.15 0.00385885
0.624316 0.5 -0.525 0.00380491
0.624316 0.5 0.525 0.0038058
0.219992 0.5 -0.7875 0.00375984
0.219992 0.5 0.7875 0.00376099
0 0.5 -0.818821 0.00375
0 0.5 0.818821 0.00375
0.0124865 0.5 0.818821 0.00375059
0.0124865 0.5 -0.818821 0.00375052
0 0.5 -0.825 0.00375
0 0.5 0.825 0.00375
0.756813 0.5 0.3375 0.00384151
0.756814 0.5 -0.3375 0.00384046
0.67013 0.5 -0.4875 0.00381466
0.67013 0.5 0.4875 0.00381564
0.797732 0.5 -0.225 0.00385657
0.797732 0.5 0.225 0.00385777
0 0.5 -0.831179 0.00375
0 0.5 0.831179 0.00375
0.0124865 0.5 -0.831179 0.00375053
0.0124865 0.5 0.831179 0.00375061
0.835106 0.5 0.0375 0.00387373
0.835106 0.5 -0.0375 0.00387338
0.151149 0.5 -0.825 0.00375667
0.151149 0.5 0.825 0.00375752
0.835106 0.5 0.1125 0.00387338
0.835106 0.5 -0.1125 0.00387243
0.715434 0.5 -0.45 0.00382652
0.715434 0.5 0.45 0.00382797
0.797732 0.5 -0.3 0.00385464
0.797732 0.5 0.3 0.00385632
0.467897 0.5 0.7125 0.00378086
0.467897 0.5 -0.7125 0.00377959
0.523432 0.5 -0.675 0.00378697
0.523432 0.5 0.675 0.00378832
0.411736 0.5 -0.75 0.00377405
0.411736 0.5 0.75 0.00377545
0.835106 0.5 -0.1875 0.00387085
0.835106 0.5 0.1875 0.00387238
0.574156 0.5 -0.6375 0.00379434
0.574157 0.5 0.6375 0.00379564
0.350249 0.5 -0.7875 0.00376842
0.350249 0.5 0.7875 0.00376983
0.756813 0.5 -0.4125 0.0038384
0.756814 0.5 0.4125 0.00384012
0.075776 0.5 -0.8625 0.00375321
0.075776 0.5 0.8625 0.00375368
0.624316 0.5 0.6 0.00380528
0.624316 0.5 -0.6 0.00380368
0.872064 0.5 5.91974e-17 0.00388947
0.870122 0.5 0.075 0.00388859
0.288069 0.5 -0.825 0.00376432
0.288069 0.5 0.825 0.00376571
0.67013 0.5 -0.5625 0.00381307
0.67013 0.5 0.5625 0.00381482
0.872064 0.5 -0.075 0.00388865
0.835106 0.5 -0.2625 0.00386872
0.835106 0.5 0.2625 0.00387084
0.797732 0.5 -0.375 0.00385221
0.797732 0.5 0.375 0.00385459
0.872064 0.5 0.14794 0.00388893
0.872064 0.5 -0.15 0.00388712
0.715434 0.5 -0.525 0.00382447
0.715434 0.5 0.525 0.00382678
0.219992 0.5 0.8625 0.00376129
0.219993 0.5 -0.8625 0.00376005
0 0.5 -0.893821 0.00375
0 0.5 0.893821 0.00375
0.0124865 0.5 -0.893821 0.00375053
0.0124865 0.5 0.893821 0.00375061
0 0.5 -0.9 0.00375
0 0.5 0.9 0.00375
0.756813 0.5 -0.4875 0.00383597
0.756813 0.5 0.4875 0.00383863
0.872064 0.5 -0.225 0.00388483
0.872064 0.5 0.225 0.00388754
0.835106 0.5 -0.3375 0.00386609
0.835106 0.5 0.3375 0.0038689
0 0.5 0.906179 0.00375
0 0.5 -0.906179 0.00375
0.0124865 0.5 -0.906179 0.00375054
0.0124865 0.5 0.906179 0.00375062
0.90582 0.5 -0.0375 0.00390447
0.90582 0.5 0.0375 0.00390508
0.151149 0.5 -0.9 0.00375678
0.151149 0.5 0.9 0.00375768
0.90582 0.5 -0.1125 0.00390312
0.905821 0.5 0.1125 0.00390489
0.523432 0.5 -0.75 0.00378629
0.523432 0.5 0.75 0.00378829
0.574156 0.5 -0.7125 0.00379336
0.574156 0.5 0.7125 0.00379539
0.797732 0.5 -0.45 0.00384933
0.797732 0.5 0.45 0.00385269
0.467897 0.5 0.7875 0.00378105
0.467897 0.5 -0.7875 0.00377924
0.624316 0.5 -0.675 0.00380227
0.624316 0.5 0.675 0.00380468
0.411736 0.5 -0.825 0.00377387
0.411736 0.5 0.825 0.00377571
0.872064 0.5 0.3 0.0038855
0.872064 0.5 -0.3 0.00388188
0.67013 0.5 -0.6375 0.00381126
0.67013 0.5 0.6375 0.00381389
0.90582 0.5 0.1875 0.00390385
0.905821 0.5 -0.1875 0.00390089
0.350249 0.5 -0.8625 0.00376844
0.350249 0.5 0.8625 0.00377016
0.835106 0.5 -0.4125 0.00386282
0.835106 0.5 0.4125 0.00386663
0.715434 0.5 -0.6 0.00382216
0.715434 0.5 0.6 0.00382543
0.939201 0.5 2.75387e-17 0.00392056
0.075776 0.5 0.9375 0.00375373
0.075776 0.5 -0.9375 0.00375325
0.939111 0.5 0.075 0.00392089
0.939201 0.5 -0.075 0.00391938
0.756813 0.5 0.5625 0.00383693
0.756814 0.5 -0.5625 0.0038332
0.90582 0.5 0.2625 0.00390187
0.905821 0.5 -0.2625 0.00389772
0.288069 0.5 -0.9 0.00376438
0.288069 0.5 0.9 0.00376597
0.872064 0.5 -0.375 0.0038783
0.872064 0.5 0.375 0.00388295
0.939201 0.5 0.148627 0.00392025
0.939201 0.5 -0.15 0.00391732
0.797732 0.5 -0.525 0.00384606
0.797732 0.5 0.525 0.0038506
0.219992 0.5 0.9375 0.0037615
0.219992 0.5 -0.9375 0.00376016
0.939201 0.5 -0.225 0.00391428
0.939201 0.5 0.225 0.00391887
0.905821 0.5 -0.3375 0.00389389
0.90582 0.5 0.3375 0.00389917
0.835106 0.5 -0.4875 0.00385909
0.835106 0.5 0.4875 0.00386423
0 0.5 0.968821 0.00375
0 0.5 -0.968821 0.00375
0.0124865 0.5 -0.968821 0.00375054
0.0124865 0.5 0.968821 0.00375062
0.969689 0.5 -0.0375 0.00393533
0.969689 0.5 0.0375 0.00393626
0.574156 0.5 -0.7875 0.00379222
0.574156 0.5 0.7875 0.00379503
0 0.5 -0.975 0.00375
0 0.5 0.975 0.00375
0.624316 0.5 -0.75 0.00380068
0.624316 0.5 0.75 0.00380397
0.969689 0.5 -0.1125 0.00393353
0.96969 0.5 0.1125 0.00393629
0.523432 0.5 -0.825 0.00378546
0.523432 0.5 0.825 0.00378813
0.67013 0.5 0.7125 0.00381285
0.67013 0.5 -0.7125 0.00380925
0 0.5 -0.981179 0.00375
0 0.5 0.981179 0.00375
0.467897 0.5 0.8625 0.00378111
0.467897 0.5 -0.8625 0.00377874
0.0124865 0.5 -0.981179 0.00375054
0.0124865 0.5 0.981179 0.00375062
0.872064 0.5 -0.45 0.00387413
0.872064 0.5 0.45 0.0038801
0.715434 0.5 -0.675 0.00381961
0.715434 0.5 0.675 0.00382395
0.939201 0.5 -0.3 0.00391035
0.939201 0.5 0.3 0.00391643
0.151149 0.5 0.975 0.00375777
0.151149 0.5 -0.975 0.00375683
0.969689 0.5 -0.1875 0.00393069
0.969689 0.5 0.1875 0.00393535
0.756813 0.5 -0.6375 0.00383016
0.756813 0.5 0.6375 0.00383504
0.411736 0.5 -0.9 0.00377356
0.411736 0.5 0.9 0.00377583
0.90582 0.5 -0.4125 0.00388935
0.90582 0.5 0.4125 0.00389593
0.995005 0.5 0.0749309 0.00394805
0.797732 0.5 -0.6 0.00384245
0.797732 0.5 0.6 0.00384827
1.00005 0.5 -8.47123e-18 0.00395004
0.350249 0.5 -0.9375 0.00376833
0.350249 0.5 0.9375 0.00377035
1.00005 0.5 -0.0749309 0.00394853
0.969689 0.5 -0.2625 0.0039268
0.969689 0.5 0.2625 0.00393333
0.835106 0.5 -0.5625 0.00385498
0.835106 0.5 0.5625 0.00386153
1.00005 0.5 -0.149862 0.00394601
0.939201 0.5 -0.375 0.0039055
0.939201 0.5 0.375 0.00391315
1.00029 0.5 0.148988 0.00394998
0.075776 0.5 -1.0125 0.00375327
0.075776 0.5 1.0125 0.00375375
0.288069 0.5 0.975 0.0037661
0.288069 0.5 -0.975 0.00376432
0.872064 0.5 -0.525 0.00386948
0.872064 0.5 0.525 0.00387699
1.00005 0.5 0.224793 0.00394889
1.00005 0.5 -0.224793 0.00394242
0.969689 0.5 0.3375 0.00393028
0.96969 0.5 -0.3375 0.00392198
1.0271 0.5 -0.0368226 0.00396505
1.0271 0.5 0.0368226 0.00396623
0.90582 0.5 0.4875 0.00389246
0.905821 0.5 -0.4875 0.00388427
1.0271 0.5 -0.110468 0.00396287
1.0271 0.5 0.110468 0.00396819
0.67013 0.5 0.7875 0.0038117
0.67013 0.5 -0.7875 0.00380708
0.624316 0.5 0.825 0.00380314
0.624316 0.5 -0.825 0.00379894
0.219993 0.5 -1.0125 0.00376018
0.219993 0.5 1.0125 0.00376159
0.574156 0.5 -0.8625 0.00379093
0.574156 0.5 0.8625 0.00379455
0.715434 0.5 -0.75 0.00381688
0.715434 0.5 0.75 0.00382234
0.756813 0.5 0.7125 0.003833
0.756814 0.5 -0.7125 0.00382691
0.523432 0.5 -0.9 0.00378449
0.523432 0.5 0.9 0.00378784
0.939201 0.5 -0.45 0.0038998
0.939201 0.5 0.45 0.00390923
1.04168 0.5 0 0.00397367
1.0271 0.5 -0.184113 0.00395961
1.0271 0.5 0.184113 0.00396576
0 0.5 -1.04382 0.00375
0 0.5 1.04382 0.00375
0.0124865 0.5 -1.04382 0.00375054
0.0124865 0.5 1.04382 0.00375062
1.00005 0.5 -0.299723 0.00393782
1.00005 0.5 0.299723 0.00394641
1.04168 0.5 -0.0729162 0.0039719
1.04168 0.5 0.0729162 0.00397446
0.797732 0.5 -0.675 0.00383858
0.797732 0.5 0.675 0.00384573
0.467897 0.5 0.9375 0.00378103
0.467897 0.5 -0.9375 0.0037781
0 0.5 -1.05 0.00375
0 0.5 1.05 0.00375
0.835106 0.5 -0.6375 0.00385055
0.835106 0.5 0.6375 0.00385854
1.04168 0.5 -0.145832 0.00396907
1.04168 0.5 0.145832 0.00397429
0.969689 0.5 -0.4125 0.00391584
0.96969 0.5 0.4125 0.00392613
0 0.5 -1.05618 0.00375
0 0.5 1.05618 0.00375
0.0124865 0.5 -1.05618 0.00375054
0.0124865 0.5 1.05618 0.00375062
1.05695 0.5 -0.0360764 0.00398109
1.05695 0.5 0.0360764 0.00398242
0.411736 0.5 -0.975 0.00377311
0.411736 0.5 0.975 0.0037758
0.872064 0.5 -0.6 0.00386437
0.872064 0.5 0.6 0.00387357
1.0271 0.5 -0.257759 0.00395528
1.0271 0.5 0.257759 0.00396393
0.151149 0.5 -1.05 0.00375682
0.151149 0.5 1.05 0.00375779
1.05695 0.5 0.108229 0.00398449
1.05695 0.5 -0.108229 0.0039787
1.04168 0.5 -0.218749 0.00396517
1.04168 0.5 0.218749 0.00397308
0.90582 0.5 -0.5625 0.00387861
0.905821 0.5 0.5625 0.00388865
1.00005 0.5 -0.374654 0.003932
1.00005 0.5 0.374654 0.0039428
0.350249 0.5 1.0125 0.0037704
0.350249 0.5 -1.0125 0.00376809
1.05695 0.5 -0.180382 0.00397522
1.05695 0.5 0.180382 0.00398223
1.07319 0.5 0.0709442 0.00399252
0.939201 0.5 -0.525 0.00389351
0.939201 0.5 0.525 0.00390491
1.0271 0.5 -0.331404 0.0039499
1.0271 0.5 0.331404 0.00396098
1.08112 0.5 3.23815e-17 0.00399597
1.04168 0.5 -0.291665 0.00396022
1.04168 0.5 0.291665 0.00397075
1.08112 0.5 -0.0709442 0.00399395
0.969689 0.5 -0.4875 0.00390885
0.96969 0.5 0.4875 0.00392135
1.05695 0.5 0.252535 0.00398053
1.05695 0.5 -0.252535 0.00397067
0.288069 0.5 -1.05 0.00376415
0.288069 0.5 1.05 0.00376611
0.075776 0.5 -1.0875 0.00375327
0.075776 0.5 1.0875 0.00375373
1.08112 0.5 -0.141888 0.00399084
1.08145 0.5 0.140165 0.00399647
0.715434 0.5 0.825 0.00382061
0.715434 0.5 -0.825 0.003814
0.756813 0.5 0.7875 0.00383084
0.756814 0.5 -0.7875 0.00382348
0.67013 0.5 -0.8625 0.00380476
0.67013 0.5 0.8625 0.00381043
0.797732 0.5 -0.75 0.0038345
0.797732 0.5 0.75 0.00384303
0.624316 0.5 -0.9 0.00379706
0.624316 0.5 0.9 0.00380219
1.00005 0.5 -0.449585 0.00392505
1.00005 0.5 0.449585 0.00393823
0.835106 0.5 -0.7125 0.00384584
0.835106 0.5 0.7125 0.00385534
0.574156 0.5 -0.9375 0.0037895
0.574157 0.5 0.9375 0.00379393
1.10076 0.5 -0.0349809 0.00400691
1.10076 0.5 0.0349809 0.00400849
1.08112 0.5 -0.212832 0.00398663
1.08112 0.5 0.212832 0.00399596
0.872064 0.5 -0.675 0.00385894
0.872064 0.5 0.675 0.00386986
1.04168 0.5 -0.364581 0.00395401
1.04168 0.5 0.364581 0.00396725
1.0271 0.5 0.405049 0.00395683
1.0271 0.5 -0.405049 0.00394312
1.05695 0.5 -0.324688 0.00396506
1.05695 0.5 0.324688 0.00397771
1.10076 0.5 -0.104943 0.0040042
1.10076 0.5 0.104943 0.00400909
0.523432 0.5 0.975 0.00378741
0.523432 0.5 -0.975 0.00378338
0.90582 0.5 0.6375 0.00388452
0.905821 0.5 -0.6375 0.00387244
0.219992 0.5 1.0875 0.00376158
0.219992 0.5 -1.0875 0.0037601
1.11376 0.5 3.81639e-17 0.00401571
0.939201 0.5 0.6 0.00390018
0.939201 0.5 -0.6 0.00388681
1.10076 0.5 -0.174905 0.00400037
1.10076 0.5 0.174905 0.00400872
0.467897 0.5 -1.0125 0.00377732
0.467897 0.5 1.0125 0.00378079
1.11376 0.5 -0.0693118 0.00401346
1.11376 0.5 0.0693118 0.00401687
1.08112 0.5 0.283777 0.0039938
1.08112 0.5 -0.283777 0.00398135
0 0.5 -1.11882 0.00375
0 0.5 1.11882 0.00375
0.0124865 0.5 -1.11882 0.00375054
0.0124865 0.5 1.11882 0.00375062
0.969689 0.5 -0.5625 0.00390148
0.969689 0.5 0.5625 0.00391619
1.11376 0.5 0.138624 0.00401702
1.11376 0.5 -0.138624 0.00401008
0 0.5 -1.125 0.00375
0 0.5 1.125 0.00375
1.10076 0.5 0.244866 0.00400723
1.10076 0.5 -0.244866 0.00399547
0.411736 0.5 -1.05 0.00377252
0.411736 0.5 1.05 0.00377563
1.05695 0.5 -0.396841 0.003958
1.05695 0.5 0.396841 0.00397365
1.00005 0.5 -0.524516 0.00391744
1.00005 0.5 0.524516 0.003933
1.04168 0.5 -0.437497 0.00394661
1.04168 0.5 0.437497 0.00396264
0 0.5 -1.13118 0.00375
0 0.5 1.13118 0.00375
0.0124865 0.5 -1.13118 0.00375053
0.0124865 0.5 1.13118 0.00375061
1.11376 0.5 -0.207935 0.0040056
1.11376 0.5 0.207935 0.00401618
1.0271 0.5 -0.478694 0.00393543
1.0271 0.5 0.478694 0.00395176
0.151149 0.5 -1.125 0.00375675
0.151149 0.5 1.125 0.00375774
1.08112 0.5 -0.354722 0.0039748
1.08112 0.5 0.354722 0.00399046
1.13882 0.5 -0.0340295 0.00403057
1.13882 0.5 0.0340295 0.00403241
0.350249 0.5 -1.0875 0.00376772
0.350249 0.5 1.0875 0.00377031
1.13882 0.5 -0.102088 0.00402754
1.13882 0.5 0.102088 0.00403415
1.10076 0.5 -0.314829 0.0039895
1.10076 0.5 0.314829 0.0040046
0.756813 0.5 -0.8625 0.00381992
0.756814 0.5 0.8625 0.00382856
0.797732 0.5 -0.825 0.00383028
0.797732 0.5 0.825 0.00384021
1.11376 0.5 -0.277247 0.00400004
1.11376 0.5 0.277247 0.00401418
0.835106 0.5 0.7875 0.003852
0.835106 0.5 -0.7875 0.00384098
0.715434 0.5 -0.9 0.003811
0.715434 0.5 0.9 0.00381876
0.872064 0.5 -0.75 0.00385332
0.872064 0.5 0.75 0.00386591
1.13882 0.5 0.170147 0.00403302
1.13882 0.5 -0.170147 0.00402338
0.67013 0.5 -0.9375 0.00380233
0.67013 0.5 0.9375 0.00380904
0.905821 0.5 -0.7125 0.00386611
0.905821 0.5 0.7125 0.00388004
1.05695 0.5 0.468994 0.00396857
1.05695 0.5 -0.468994 0.00395003
0.939201 0.5 -0.675 0.00387979
0.939201 0.5 0.675 0.00389513
0.624316 0.5 0.975 0.0038011
0.624316 0.5 -0.975 0.00379505
1.04168 0.5 -0.510414 0.0039385
1.04168 0.5 0.510414 0.00395719
0.969689 0.5 -0.6375 0.00389396
0.96969 0.5 0.6375 0.00391044
0.288069 0.5 -1.125 0.00376387
0.288069 0.5 1.125 0.003766
1.16179 0.5 5.78241e-19 0.00404705
1.08112 0.5 0.425666 0.00398595
1.08112 0.5 -0.425666 0.00396707
1.13882 0.5 -0.238206 0.00401813
1.13882 0.5 0.238206 0.00403171
1.16179 0.5 0.0669104 0.00405107
1.16179 0.5 -0.0669104 0.00404442
0.574156 0.5 -1.0125 0.00378795
0.574156 0.5 1.0125 0.00379316
0.075776 0.5 -1.1625 0.00375323
0.075776 0.5 1.1625 0.00375367
1.00005 0.5 -0.599447 0.00390939
1.00005 0.5 0.599447 0.00392705
1.10076 0.5 0.384791 0.00400072
1.10076 0.5 -0.384791 0.00398205
1.0271 0.5 -0.55234 0.00392717
1.0271 0.5 0.55234 0.00394596
1.11376 0.5 -0.346559 0.00399321
1.11376 0.5 0.346559 0.00401098
1.16179 0.5 -0.133821 0.00404059
1.16179 0.5 0.133821 0.00404932
0.523432 0.5 -1.05 0.00378214
0.523432 0.5 1.05 0.00378682
1.17463 0.5 -0.0331343 0.00405402
1.17463 0.5 0.0331343 0.00405612
1.17463 0.5 -0.0994029 0.00405068
1.17463 0.5 0.0994029 0.00405709
1.16179 0.5 -0.200731 0.00403564
1.16179 0.5 0.200731 0.00404833
1.13882 0.5 -0.306265 0.00401176
1.13882 0.5 0.306265 0.00402924
0.219992 0.5 -1.1625 0.00375993
0.219992 0.5 1.1625 0.00376145
0.467897 0.5 -1.0875 0.00377642
0.467897 0.5 1.0875 0.0037804
1.17463 0.5 0.165672 0.0040571
1.17463 0.5 -0.165672 0.00404616
1.05695 0.5 -0.541147 0.00394154
1.05695 0.5 0.541147 0.00396273
1.18772 0.5 -5.78241e-19 0.00406422
1.11376 0.5 -0.41587 0.00398518
1.11376 0.5 0.41587 0.00400657
1.18772 0.5 -0.065614 0.00406138
1.18772 0.5 0.065614 0.00406592
1.08112 0.5 -0.49661 0.00395863
1.08112 0.5 0.49661 0.00398049
1.10076 0.5 -0.454752 0.00397369
1.10076 0.5 0.454752 0.0039957
1.18534 0.5 0.118202 0.00406642
1.16179 0.5 -0.267642 0.00402959
1.16179 0.5 0.267642 0.00404654
0 0.5 -1.19382 0.00375
0 0.5 1.19382 0.00375
0.0124865 0.5 1.19382 0.00375061
0.0124865 0.5 -1.19382 0.00375053
1.04168 0.5 -0.58333 0.00392979
1.04168 0.5 0.58333 0.00395082
1.18772 0.5 -0.131228 0.00405731
1.17463 0.5 -0.23194 0.00404055
1.17463 0.5 0.23194 0.00405596
0.411736 0.5 -1.125 0.00377183
0.411736 0.5 1.125 0.00377534
1.13882 0.5 -0.374324 0.00400397
1.13882 0.5 0.374324 0.00402553
0 0.5 -1.2 0.00375
0 0.5 1.2 0.00375
0.905821 0.5 0.7875 0.0038753
0.905821 0.5 -0.7875 0.00385959
0.872064 0.5 -0.825 0.00384757
0.872064 0.5 0.825 0.00386177
0.835106 0.5 0.8625 0.00384854
0.835106 0.5 -0.8625 0.00383601
0.939201 0.5 -0.75 0.00387252
0.939201 0.5 0.75 0.00388988
0.797732 0.5 -0.9 0.00382597
0.797732 0.5 0.9 0.00383728
1.0271 0.5 0.625985 0.00393911
1.0271 0.5 -0.625985 0.00391827
0.969689 0.5 0.7125 0.00390466
0.96969 0.5 -0.7125 0.00388593
1.18772 0.5 -0.196842 0.0040521
1.18772 0.5 0.196842 0.00406591
0.756814 0.5 -0.9375 0.00381627
0.756814 0.5 0.9375 0.00382617
0 0.5 1.20618 0.00375
0 0.5 -1.20618 0.00375
1.00005 0.5 -0.674378 0.00390082
1.00005 0.5 0.674378 0.00392065
0.0124865 0.5 1.20618 0.00375059
0.0124865 0.5 -1.20618 0.00375052
1.16179 0.5 -0.334552 0.00402224
1.16179 0.5 0.334552 0.00404354
0.715434 0.5 0.975 0.0038168
0.715434 0.5 -0.975 0.00380789
0.151149 0.5 -1.2 0.00375661
0.151149 0.5 1.2 0.00375761
1.20942 0.5 0.0322645 0.00408118
1.20942 0.5 -0.0322645 0.00407845
1.17463 0.5 -0.298209 0.00403382
1.17463 0.5 0.298209 0.00405362
1.20942 0.5 -0.0967935 0.00407476
1.20942 0.5 0.0967935 0.00408203
0.350249 0.5 -1.1625 0.00376724
0.350249 0.5 1.1625 0.0037701
0.67013 0.5 1.0125 0.00380751
0.67013 0.5 -1.0125 0.00379979
1.11376 0.5 0.485183 0.00400114
1.11376 0.5 -0.485183 0.00397647
1.18772 0.5 0.262456 0.00406423
1.18772 0.5 -0.262456 0.00404577
1.10076 0.5 -0.524714 0.00396486
1.10076 0.5 0.524714 0.00398984
1.20942 0.5 -0.161322 0.00406987
1.20942 0.5 0.161322 0.00408221
1.08112 0.5 -0.567554 0.00394959
1.08112 0.5 0.567554 0.00397408
0.624316 0.5 -1.05 0.00379294
0.624316 0.5 1.05 0.00379988
1.13882 0.5 -0.442383 0.00399526
1.13882 0.5 0.442383 0.00402062
1.05695 0.5 0.6133 0.00395577
1.05695 0.5 -0.6133 0.00393233
1.16179 0.5 -0.401463 0.00401371
1.16179 0.5 0.401463 0.0040393
0.574156 0.5 -1.0875 0.00378629
0.574156 0.5 1.0875 0.00379224
1.17463 0.5 0.364477 0.00405005
1.17463 0.5 -0.364477 0.00402562
1.20942 0.5 -0.225851 0.00406385
1.20942 0.5 0.225851 0.00408123
1.23036 0.5 -1.32995e-17 0.00409576
1.2294 0.5 0.0634819 0.00409747
1.04168 0.5 -0.656246 0.00392039
1.04168 0.5 0.656246 0.00394373
1.23036 0.5 -0.0634819 0.00409248
1.18772 0.5 0.32807 0.00406131
1.18772 0.5 -0.32807 0.00403814
0.288069 0.5 -1.2 0.00376349
0.288069 0.5 1.2 0.00376576
1.23036 0.5 -0.126964 0.00408793
1.23036 0.5 0.126964 0.00409855
0.075776 0.5 -1.2375 0.00375316
0.075776 0.5 1.2375 0.00375358
0.523432 0.5 -1.125 0.0037808
0.523432 0.5 1.125 0.00378612
1.0271 0.5 -0.69963 0.0039087
1.0271 0.5 0.69963 0.00393206
1.24274 0.5 0.0314313 0.00410617
1.24274 0.5 -0.0314313 0.00410345
1.20942 0.5 0.29038 0.00407903
1.20942 0.5 -0.29038 0.00405668
1.11376 0.5 -0.554494 0.00396717
1.11376 0.5 0.554494 0.00399475
1.23036 0.5 -0.190445 0.00408219
1.23036 0.5 0.190445 0.00409827
1.24274 0.5 -0.0942942 0.0040994
1.24274 0.5 0.0942942 0.00410757
1.13882 0.5 0.510442 0.00401475
1.13882 0.5 -0.510442 0.0039861
0.969689 0.5 -0.7875 0.00387778
0.969689 0.5 0.7875 0.00389871
1.00005 0.5 -0.749309 0.00389193
1.00005 0.5 0.749309 0.00391415
0.939201 0.5 -0.825 0.00386515
0.939201 0.5 0.825 0.00388439
0.90582 0.5 0.8625 0.00387034
0.90582 0.5 -0.8625 0.00385301
1.17463 0.5 -0.430746 0.0040165
1.17463 0.5 0.430746 0.00404522
1.10076 0.5 -0.594676 0.00395531
1.10076 0.5 0.594676 0.0039829
1.18772 0.5 -0.393684 0.00402931
1.18772 0.5 0.393684 0.00405714
1.24274 0.5 -0.157157 0.00409411
1.24274 0.5 0.157157 0.00410792
1.16179 0.5 -0.468373 0.00400452
1.16179 0.5 0.468373 0.00403393
0.467897 0.5 -1.1625 0.00377542
0.467897 0.5 1.1625 0.00377993
0.872064 0.5 -0.9 0.00384177
0.872064 0.5 0.9 0.0038575
1.25401 0.5 2.08167e-17 0.00411319
0.835106 0.5 0.9375 0.00384499
0.835106 0.5 -0.9375 0.00383101
1.25401 0.5 -0.0622994 0.00410967
1.25401 0.5 0.0622994 0.00411557
1.08112 0.5 -0.638498 0.00393983
1.08112 0.5 0.638498 0.00396684
1.23036 0.5 -0.253927 0.00407528
1.23036 0.5 0.253927 0.00409678
0.219992 0.5 1.2375 0.00376121
0.219992 0.5 -1.2375 0.00375967
1.25309 0.5 0.121964 0.0041163
1.05695 0.5 0.685452 0.00394842
1.05695 0.5 -0.685452 0.00392243
0.797732 0.5 0.975 0.00383425
0.797732 0.5 -0.975 0.00382161
1.25401 0.5 -0.124599 0.00410486
1.20942 0.5 -0.354909 0.00404806
1.20942 0.5 0.354909 0.00407556
1.24274 0.5 -0.220019 0.00408764
1.24274 0.5 0.220019 0.0041071
0.756814 0.5 -1.0125 0.00381254
0.756813 0.5 1.0125 0.00382368
1.25401 0.5 -0.186898 0.00409882
1.25401 0.5 0.186898 0.00411612
0.411736 0.5 -1.2 0.00377103
0.411736 0.5 1.2 0.00377491
0 0.5 -1.26882 0.00375
0 0.5 1.26882 0.00375
0.0124865 0.5 1.26882 0.00375059
0.0124865 0.5 -1.26882 0.00375052
0.715434 0.5 -1.05 0.00380472
0.715434 0.5 1.05 0.00381472
1.23036 0.5 -0.31741 0.00406707
1.23036 0.5 0.31741 0.00409402
1.04168 0.5 -0.729162 0.0039104
1.04168 0.5 0.729162 0.00393639
1.18772 0.5 -0.459298 0.00401985
1.18772 0.5 0.459298 0.00405179
1.24274 0.5 -0.282882 0.00408
1.24274 0.5 0.282882 0.00410501
0 0.5 -1.275 0.00375
0 0.5 1.275 0.00375
1.27472 0.5 -0.0306319 0.00412921
1.27472 0.5 0.0306319 0.00413227
1.17463 0.5 0.497015 0.00403934
1.17463 0.5 -0.497015 0.00400701
1.11376 0.5 -0.623806 0.00395718
1.11376 0.5 0.623806 0.00398746
1.13882 0.5 -0.578501 0.00397625
1.13882 0.5 0.578501 0.00400786
0.67013 0.5 -1.0875 0.00379716
0.67013 0.5 1.0875 0.00380586
1.27472 0.5 -0.0918959 0.00412476
1.27472 0.5 0.0918959 0.00413077
1.25401 0.5 -0.249197 0.00409159
1.25401 0.5 0.249197 0.00411471
1.16179 0.5 -0.535284 0.0039948
1.16179 0.5 0.535284 0.00402755
1.20942 0.5 -0.419438 0.00403849
1.20942 0.5 0.419438 0.00407081
0 0.5 -1.28118 0.00375
0 0.5 1.28118 0.00375
0.0124865 0.5 1.28118 0.00375057
0.0124865 0.5 -1.28118 0.00375051
1.27472 0.5 0.15316 0.00413445