# nutMean  POINT_DATA 91129
# x  y  z  nutMean
0 0 0 5.01722e-06
0 0.00368111 0 1.81087e-05
0 0.00749587 0 7.03083e-05
0 0.0114491 0 0.000261502
0 0.0155459 0 0.000685627
0 0.0197915 0 0.00174887
0 0.0241911 0 0.00263547
0 0.0287506 0 0.00299086
0 0.0334755 0 0.00343233
0 0.038372 0 0.00374178
0 0.0434463 0 0.00396067
0 0.0487048 0 0.00412958
0 0.0541543 0 0.00427284
0 0.0598016 0 0.0044057
0 0.0656539 0 0.00453945
0 0.0717187 0 0.00467921
0.075776 0.00184055 0 8.77687e-06
0.075776 0.00558849 0 1.29791e-05
0.075776 0.00947248 -3.46945e-18 6.15469e-05
0.075776 0.0134975 -3.46945e-18 0.000288065
0.075776 0.0176687 3.46945e-18 0.000821529
0 0.0780037 0 0.00482365
0.075776 0.0219913 3.46945e-18 0.00165912
0.075776 0.0264709 3.46945e-18 0.00281067
0.075776 0.031113 -3.46945e-18 0.00425323
0.075776 0.0359237 -3.46945e-18 0.00593769
0 0.0845169 0 0.00497135
0.075776 0.0409092 0 0.00780307
0.075776 0.0460755 -3.46945e-18 0.00978381
0 0.0912666 0 0.00512251
0.075776 0.0514296 -3.46945e-18 0.0118146
0.075776 0.0569779 0 0.0138308
0 0.0982613 0 0.00527678
0.075776 0.0627278 0 0.0153156
0.075776 0.0686863 0 0.0158345
0 0.10551 0 0.00543307
0.075776 0.0748612 3.46945e-18 0.0164084
0.075776 0.0812603 -3.46945e-18 0.0170463
0 0.113022 0 0.00558968
0.075776 0.0878918 3.46945e-18 0.0177568
0 0.120806 0 0.0057448
0.075776 0.0947639 3.46945e-18 0.0185525
0.075776 0.101886 -3.46945e-18 0.019454
0 0.128874 0 0.00590054
0.075776 0.109266 3.46945e-18 0.0204997
0 0.137234 0 0.00607121
0.075776 0.116914 3.46945e-18 0.0217531
0 0.145897 0 0.00627563
0.075776 0.12484 0 0.0233097
0.151552 0 0 0
0.151552 0.00368111 0 7.24016e-06
0.151552 0.00749587 0 2.49056e-05
0.151552 0.0114491 0 0.000109253
0.151552 0.0155459 0 0.000342087
0.151552 0.0197915 0 0.000777006
0.075776 0.133054 0 0.025264
0.151552 0.0241911 0 0.0014302
0.151552 0.0287506 0 0.00230365
0 0.154876 0 0.00651628
0.151552 0.0334755 0 0.00338231
0.151552 0.038372 0 0.00464023
0.151552 0.0434463 0 0.00604553
0.151552 0.0487048 0 0.00756363
0.075776 0.141566 0 0.0276138
0.151552 0.0541543 0 0.00915897
0.151552 0.0598016 0 0.0106871
0 0.16418 0 0.00678181
0.151552 0.0656539 0 0.0119143
0.151552 0.0717187 0 0.0129748
0.075776 0.150387 0 0.0297779
0.151552 0.0780037 0 0.0141072
0.151552 0.0845169 0 0.0153047
0 0.173822 0 0.00706563
0.075776 0.159528 0 0.031286
0.151552 0.0912666 0 0.0165581
0.151552 0.0982613 0 0.0178519
0 0.183814 0 0.00736691
0.151552 0.10551 0 0.0191288
0.075776 0.169001 3.46945e-18 0.0318396
0.151552 0.113022 0 0.020354
0.151552 0.120806 0 0.0215184
0 0.194169 0 0.00768355
0.075776 0.178818 3.46945e-18 0.0313726
0.151552 0.128874 0 0.0228328
0.075776 0.188992 3.46945e-18 0.0301385
0.151552 0.137234 0 0.0244817
0 0.2049 0 0.00801108
0.151552 0.145897 0 0.0262804
0.075776 0.199535 0 0.0285076
0 0.21602 0 0.00834193
0.151552 0.154876 0 0.0279076
0.219992 0.00184055 0 2.44264e-06
0.219992 0.00558849 0 5.32177e-06
0.219992 0.00947248 -3.46945e-18 2.16762e-05
0.219992 0.0134975 3.46945e-18 7.58101e-05
0.219992 0.0176687 0 0.000215671
0.219992 0.0219913 0 0.000482978
0.219993 0.0264709 -3.46945e-18 0.000891799
0.219992 0.031113 -3.46945e-18 0.00144784
0.219992 0.0359238 3.46945e-18 0.00215399
0.151552 0.16418 0 0.0290713
0.075776 0.21046 0 0.0267469
0.219992 0.0409092 3.46945e-18 0.00300914
0.219992 0.0460755 0 0.00400868
0.219993 0.0514296 -3.46945e-18 0.00514502
0.219992 0.0569779 0 0.00640885
0 0.227544 0 0.00869642
0.219992 0.0627277 3.46945e-18 0.00779081
0.219992 0.0686863 0 0.00927914
0.151552 0.173822 0 0.0296361
0.219992 0.0748612 3.46945e-18 0.0108607
0.075776 0.221782 0 0.0249588
0.219992 0.0812603 3.46945e-18 0.012516
0.219992 0.0878917 -3.46945e-18 0.0142219
0.151552 0.183814 0 0.0296349
7.47806e-17 0.239487 0 0.00914549
0.219992 0.0947639 3.46945e-18 0.0159465
0.219993 0.101886 3.46945e-18 0.0176317
0.075776 0.233516 0 0.0235374
0.219993 0.109266 0 0.0190603
0.151552 0.194169 0 0.0292241
0.219993 0.116914 0 0.0202217
0 0.251863 0 0.00968749
0.219993 0.12484 0 0.0209448
0.151552 0.2049 0 0.0285697
0.075776 0.245675 0 0.0229755
0.219992 0.133054 3.46945e-18 0.0220362
0.219992 0.141565 0 0.0233134
0.151552 0.21602 0 0.0277721
0 0.264688 0 0.010273
0.219992 0.150387 3.46945e-18 0.0247876
0.075776 0.258275 3.46945e-18 0.0226534
0.219992 0.159528 -3.46945e-18 0.0261818
0.151552 0.227544 0 0.0269575
0.219992 0.169001 3.46945e-18 0.02736
0 0.27798 0 0.0109025
0.075776 0.271334 3.46945e-18 0.0224805
0.151552 0.239487 3.70071e-18 0.0263429
0.219992 0.178818 3.46945e-18 0.0282742
0.288433 0 0 0
0.288433 0.00368111 0 3.00705e-06
0.288433 0.00749587 0 1.14028e-05
0.288433 0.0114491 0 3.89136e-05
0.288433 0.0155459 3.70071e-18 0.000110359
0.288433 0.0197915 0 0.00026384
0.288433 0.0241911 3.70071e-18 0.000525288
0.288433 0.0287506 0 0.000905425
0.219992 0.188991 0 0.028926
0.288433 0.0334755 0 0.001412
0.288433 0.038372 0 0.00204726
0.288433 0.0434463 0 0.00281069
7.47806e-17 0.291753 0 0.0115779
0.288433 0.0487048 0 0.00369935
0.288433 0.0541543 0 0.00470808
0.151552 0.251863 0 0.0259064
0.288433 0.0598016 3.70071e-18 0.00583013
0.075776 0.284866 0 0.0224702
0.288433 0.0656539 3.70071e-18 0.00705679
0.219992 0.199534 0 0.0293392
0.288433 0.0717187 0 0.00837649
0.288433 0.0780037 0 0.00977329
0.288433 0.0845169 0 0.0112259
0.288433 0.0912666 0 0.0125234
0.219992 0.21046 -3.46945e-18 0.0295406
0.288433 0.0982613 0 0.0134798
0.151552 0.264688 3.70071e-18 0.0254884
0 0.306027 0 0.0123096
0.288433 0.10551 0 0.0142536
0.075776 0.29889 3.46945e-18 0.0226004
0.288433 0.113022 0 0.0149851
0.219993 0.221782 0 0.0295482
0.288433 0.120806 0 0.0155816
0.288433 0.128874 0 0.0161253
0.151552 0.27798 0 0.0251529
0.288433 0.137234 0 0.0167607
0 0.320819 0 0.0132113
0.219992 0.233515 -3.46945e-18 0.0293704
0.075776 0.313423 -3.46945e-18 0.0228984
0.288433 0.145897 0 0.0174855
0.288433 0.154876 0 0.0182517
0.151552 0.291753 0 0.0249478
0.219993 0.245675 0 0.0290155
0.288433 0.16418 0 0.0189518
0 0.336148 0 0.0146494
0.288433 0.173822 0 0.0195349
0.075776 0.328484 -3.46945e-18 0.0239256
0.219993 0.258275 -3.46945e-18 0.0285079
0.151552 0.306027 0 0.0247701
0.288433 0.183814 0 0.0199872
0.288433 0.194169 0 0.020314
0.219992 0.271334 3.46945e-18 0.027865
0.350249 0.00184056 -3.46945e-18 8.97039e-07
0.350249 0.00558849 0 3.49546e-06
0.350249 0.00947248 3.46945e-18 1.54261e-05
0.350249 0.0134975 0 4.41878e-05
0.350249 0.0176687 0 0.00011097
0.350249 0.0219913 0 0.000258309
0.350249 0.0264708 3.46945e-18 0.000491899
0.350249 0.031113 0 0.000829032
0 0.352034 0 0.0160966
0.350249 0.0359238 0 0.00127429
0.075776 0.344091 0 0.0270719
0.350249 0.0409091 0 0.00183015
0.350249 0.0460756 3.46945e-18 0.00249742
0.288433 0.2049 0 0.0205274
0.350249 0.0514296 0 0.00327523
0.151552 0.320819 0 0.0247106
0.350249 0.0569779 0 0.00416029
0.350249 0.0627277 3.46945e-18 0.00514714
0.350249 0.0686863 3.46945e-18 0.00622724
0.350249 0.0748612 3.46945e-18 0.00738761
0.350249 0.0812603 0 0.00861011
0.219992 0.284867 0 0.0273864
0.288433 0.21602 0 0.020638
0.350249 0.0878917 0 0.00987037
0.350249 0.094764 0 0.0104309
0.350249 0.101886 0 0.0103957
0.350249 0.109266 0 0.0105273
0.288433 0.227544 0 0.0206512
0.075776 0.360265 3.46945e-18 0.0278429
0 0.368496 0 0.01658
0.151552 0.336148 0 0.0252922
0.350249 0.116914 3.46945e-18 0.0108142
0.219992 0.29889 0 0.0269657
0.370854 0.0241911 1.54074e-33 0.000382192
0.350249 0.12484 0 0.0110793
0.350249 0.133054 0 0.011228
0.288433 0.239487 -9.25154e-19 0.0205691
0.350249 0.141566 3.46945e-18 0.0113325
0.350249 0.150387 3.46945e-18 0.0114709
0.288433 0.251863 0 0.020398
0.219992 0.313423 0 0.0263075
0.151552 0.352034 0 0.025798
0.075776 0.377027 0 0.0262126
0.350249 0.159528 0 0.0116269
0 0.385557 0 0.0160658
0.350249 0.169001 0 0.0117843
0.288433 0.264688 0 0.0201454
0.350249 0.178818 0 0.0119345
0.219992 0.328484 0 0.0255129
0.350249 0.188992 0 0.0120752
0.151552 0.368496 0 0.0251188
0.288433 0.27798 3.70071e-18 0.0198848
0.075776 0.394397 0 0.0234229
0.350249 0.199535 0 0.0122064
7.47806e-17 0.403236 0 0.0154697
0.219992 0.344091 0 0.0246902
0.350249 0.21046 -3.46945e-18 0.0123278
0.288433 0.291753 0 0.0196616
0.412065 9.08189e-19 3.08149e-33 2.42252e-22
0.412065 0.00368111 -2.31298e-18 2.09211e-06
0.412065 0.00749587 -2.31298e-18 9.42815e-06
0.412065 0.0114491 -2.31298e-18 2.78153e-05
0.412065 0.0155459 -2.31298e-18 6.76678e-05
0.412065 0.0197915 0 0.000153835
0.412065 0.0241911 -3.08149e-33 0.000310643
0.412065 0.0264709 0 0.000430681
0.412065 0.0287506 -2.31298e-18 0.000550718
0.412065 0.0334755 -2.31298e-18 0.00088308
0.412065 0.038372 -2.31298e-18 0.00131359
0.151552 0.385557 0 0.0235242
0.412065 0.0434463 0 0.0018441
0.350249 0.221782 0 0.0124384
0.412065 0.0487048 0 0.00247477
0.412065 0.0541543 -3.08149e-33 0.00320381
0.412065 0.0569779 0 0.00361538
0.412065 0.0598016 -2.31298e-18 0.00402696
0.412065 0.0656539 -2.31298e-18 0.00493699
0.412065 0.0717187 -2.31298e-18 0.00592269
0.075776 0.412396 -3.46945e-18 0.022495
0.412065 0.0780037 -2.31298e-18 0.00696768
0.288433 0.306027 0 0.0193809
0.412065 0.0845169 -2.31298e-18 0.00788061
0.350249 0.233516 3.46945e-18 0.0125356
0 0.421557 0 0.0153969
0.412065 0.0912666 -2.31298e-18 0.00841452
0.219992 0.360265 3.46945e-18 0.0238399
0.412065 0.0982613 0 0.00857398
0.412065 0.10551 0 0.00862458
0.412065 0.113022 -2.31298e-18 0.00875802
0.350249 0.245675 0 0.0126155
0.412065 0.120806 0 0.00892583
0.151552 0.403236 0 0.0220744
0.288433 0.320819 0 0.0189984
0.412065 0.128874 -2.31298e-18 0.00905991
0.412065 0.137234 0 0.00915501
0.350249 0.258275 -3.46945e-18 0.012675
0.219992 0.377026 0 0.0228702
0.412065 0.145897 -2.31298e-18 0.00924864
0.075776 0.431051 0 0.0224128
0.412065 0.154876 -2.31298e-18 0.00935489
0 0.440544 0 0.0155238
0.288433 0.336148 0 0.0185667
0.350249 0.271334 0 0.0127081
0.412065 0.16418 -2.31298e-18 0.00946499
0.412065 0.173822 -2.31298e-18 0.00957289
0.151552 0.421557 0 0.0213191
0.412065 0.183814 -2.31298e-18 0.00967585
0.350249 0.284867 3.46945e-18 0.0127094
0.219992 0.394397 0 0.0217875
0.288433 0.352034 3.70071e-18 0.018114
0.412065 0.194169 0 0.00977322
0.075776 0.450382 0 0.0224639
0.412065 0.2049 -2.31298e-18 0.00986483
0 0.46022 0 0.0156721
0.350249 0.29889 3.46945e-18 0.0126809
0.412065 0.21602 0 0.00995031
0.151552 0.440544 0 0.0208805
0.219993 0.412396 3.46945e-18 0.0207263
0.467897 0.00184056 -3.46945e-18 6.00521e-07
0.467897 0.00558849 0 3.38999e-06
0.288433 0.368496 0 0.0176167
0.467897 0.00947248 0 1.54059e-05
0.467897 0.0134975 0 3.65198e-05
0.467897 0.0176687 3.46945e-18 8.03772e-05
0.467897 0.0219913 -3.46945e-18 0.00016998
0.467897 0.0264709 3.46945e-18 0.000331377
0.467897 0.0311131 3.46945e-18 0.000565873
0.467897 0.0359238 -3.46945e-18 0.000886635
0.467897 0.038372 0 0.00113528
0.467897 0.0409092 3.46945e-18 0.00129658
0.350249 0.313423 0 0.0126273
0.467897 0.0460755 0 0.00179684
0.467897 0.0514296 3.46945e-18 0.00238697
0.412065 0.227544 -2.31298e-18 0.0100286
0.467897 0.0569779 0 0.00306438
0.467897 0.0627277 -3.46945e-18 0.00382339
0.467897 0.0686863 3.46945e-18 0.00465475
0.467897 0.0748612 0 0.00554444
0.467897 0.0812603 0 0.00647222
0.467897 0.0878918 3.46945e-18 0.00675909
0.075776 0.470415 3.46945e-18 0.0225611
0.412065 0.239487 -2.31298e-18 0.0100979
0.467897 0.0947639 -3.46945e-18 0.0068394
0.467897 0.101886 3.46945e-18 0.00688588
0.350249 0.328483 0 0.0125526
0.467897 0.109266 0 0.0069451
0 0.48061 0 0.015816
0.288433 0.385557 0 0.0170499
0.467897 0.116914 0 0.00701163
0.412065 0.251863 -2.31298e-18 0.0101565
0.219992 0.431051 0 0.0198145
0.467897 0.12484 0 0.00707929
0.151552 0.46022 0 0.0205615
0.467897 0.133054 3.46945e-18 0.00714427
0.467897 0.141566 3.46945e-18 0.00721083
0.412065 0.264688 -2.31298e-18 0.010202
0.350249 0.344091 -3.46945e-18 0.0124624
0.467897 0.150387 3.46945e-18 0.00727964
0.467897 0.154876 0 0.00783299
0.467897 0.159528 3.46945e-18 0.00734709
0.288433 0.403236 0 0.0164459
0.075776 0.491175 0 0.0226597
0.412065 0.27798 -2.31298e-18 0.0102321
0.467897 0.169001 0 0.007413
0.467897 0.178818 3.46945e-18 0.00747729
0.219992 0.450382 0 0.019067
6.73026e-17 0.501741 3.70071e-18 0.0159147
0.350249 0.360265 0 0.0123582
0.151552 0.48061 0 0.0203086
0.467897 0.188991 0 0.00753972
0.412065 0.291753 0 0.0102461
0.467897 0.199535 0 0.0076001
0.288433 0.421557 0 0.0158729
0.467897 0.21046 0 0.00765829
0.412065 0.306027 0 0.0102451
0.350249 0.377027 0 0.0122325
0.467897 0.221782 3.46945e-18 0.00771406
0.075776 0.51269 0 0.0226402
0.219993 0.470415 3.46945e-18 0.0184499
0.467897 0.227544 0 0.00834779
0.412065 0.320819 -2.31298e-18 0.01023
0.467897 0.233515 0 0.00776705
6.73026e-17 0.523639 3.70071e-18 0.0159398
0.523729 0 0 0
0.523729 0.00368111 0 1.9426e-06
0.523729 0.00749587 -2.31298e-18 9.81777e-06
0.523729 0.0114491 0 2.63985e-05
0.523729 0.0155459 0 5.54878e-05
0.523729 0.0197915 -2.31298e-18 0.000111153
0.151552 0.501741 0 0.0200611
0.523729 0.0241911 0 0.000218637
0.523729 0.0287506 0 0.000391033
0.523729 0.0334755 0 0.000633706
0.523729 0.038372 -3.08149e-33 0.000956957
0.523729 0.0434463 0 0.00136299
0.523729 0.0487048 0 0.00185199
0.523729 0.0541543 0 0.00242217
0.288433 0.440544 0 0.0153747
0.523729 0.0598016 0 0.00306912
0.350249 0.394397 -3.46945e-18 0.0120759
0.523729 0.0656539 0 0.00378497
0.467897 0.245675 0 0.00781689
0.523729 0.0717187 0 0.00455734
0.523729 0.0780037 0 0.00528483
0.523729 0.0845169 0 0.0057035
0.523729 0.0912666 0 0.00583109
0.412065 0.336148 0 0.0102024
0.523729 0.0982613 0 0.00589812
0.523729 0.10551 -2.31298e-18 0.0059578
0.467897 0.258275 -3.46945e-18 0.0078633
0.523729 0.113022 0 0.00601952
0.523729 0.120806 -3.08149e-33 0.00608094
0.219993 0.491176 0 0.0179122
0.523729 0.12484 0 0.0061105
0.523729 0.128874 -2.31298e-18 0.00614006
0.075776 0.534986 0 0.0225279
0.467897 0.271334 3.46945e-18 0.00790634
0.350249 0.412396 -3.46945e-18 0.0118915
0.523729 0.137234 0 0.00619742
0.412065 0.352034 -2.31298e-18 0.0101634
0.288433 0.46022 0 0.0149551
0.523729 0.145897 0 0.00625457
0.151552 0.523639 0 0.0197869
0.523729 0.154876 -3.08149e-33 0.00631108
0 0.546332 0 0.0159062
0.523729 0.159528 0 0.00633864
0.467897 0.284867 -3.46945e-18 0.00794713
0.523729 0.16418 -2.31298e-18 0.0063662
0.523729 0.173822 0 0.00641996
0.412065 0.368496 0 0.0101115
0.523729 0.183814 0 0.00647235
0.467897 0.29889 0 0.0079856
0.350249 0.431051 -3.46945e-18 0.0116964
0.219992 0.51269 0 0.017424
0.523729 0.194169 0 0.0065233
0.288433 0.48061 0 0.0145977
0.523729 0.2049 0 0.00657277
0.467897 0.313423 3.46945e-18 0.0080193
0.075776 0.558091 0 0.0223531
0.412065 0.385557 0 0.0100423
0.523729 0.21602 -3.08149e-33 0.00662069
0.151552 0.546332 0 0.0194979
0 0.569849 0 0.0158284
0.350249 0.450382 3.46945e-18 0.0115095
0.523729 0.227544 -3.08149e-33 0.00666698
0.467897 0.328483 0 0.00804647
0.523729 0.231525 1.54074e-33 0.00668183
0.574156 0.00184056 0 4.44974e-07
0.574156 0.00558849 0 3.34188e-06
0.574157 0.00947248 0 1.70787e-05
0.574156 0.0134975 -3.46945e-18 3.65333e-05
0.574156 0.0176687 -3.46945e-18 6.89103e-05
0.574156 0.0219913 0 0.000127184
0.574156 0.0264708 -3.46945e-18 0.000250212
0.574156 0.031113 0 0.00042423
0.574156 0.0359238 -3.46945e-18 0.000670233
0.574157 0.0409092 0 0.000992051
0.523729 0.239487 3.70071e-18 0.00671152
0.574156 0.0460755 -3.46945e-18 0.00139061
0.574156 0.0514295 0 0.00186501
0.412065 0.403236 0 0.00995421
0.574157 0.0569779 0 0.00241213
0.574156 0.0627277 0 0.00302573
0.574156 0.0686863 0 0.00369555
0.219992 0.534986 0 0.0169781
0.288433 0.501741 0 0.0142826
0.574156 0.0748612 3.46945e-18 0.00440572
0.574156 0.0812603 0 0.00481174
0.467897 0.344091 0 0.00806578
0.574156 0.0878917 3.46945e-18 0.0048904
0.523729 0.251863 0 0.00675422
0.574157 0.0947639 0 0.0049622
0.574156 0.101886 0 0.00503124
0.574156 0.109266 0 0.00509432
0.574156 0.116914 0 0.00515249
0.412065 0.416977 -6.16298e-33 0.00987757
0.350249 0.470415 0 0.0113437
0.523729 0.264688 0 0.0067951
0.075776 0.582034 0 0.0221379
0.574156 0.12484 0 0.00520653
0.574156 0.133054 3.46945e-18 0.00525724
0.412065 0.421557 -2.31298e-18 0.00985202
0.151552 0.569849 0 0.0192072
0.467897 0.360265 -3.46945e-18 0.00807668
0.574157 0.141566 -3.46945e-18 0.00530545
0.523729 0.27798 0 0.00683452
0.574156 0.150386 3.46945e-18 0.00535183
0 0.594219 0 0.0157174
0.574156 0.159528 -3.46945e-18 0.00539672
0.574156 0.16418 0 0.00560198
0.288433 0.523639 1.2326e-32 0.0139985
0.574157 0.169001 0 0.0054404
0.523729 0.291753 0 0.00687268
0.219993 0.558091 3.46945e-18 0.0165765
0.467897 0.377026 0 0.00807901
0.574156 0.178818 3.46945e-18 0.00548301
0.412065 0.440544 -2.31298e-18 0.00974571
0.350249 0.491175 0 0.0112022
0.574156 0.188992 3.46945e-18 0.00552462
0.523729 0.306027 -3.08149e-33 0.00690873
0.574157 0.199535 0 0.0055653
0.574157 0.21046 0 0.00560511
0.075776 0.606847 0 0.021897
0.467897 0.394397 0 0.00807227
0.151552 0.594219 0 0.0189229
0.523729 0.320819 0 0.00694121
0.574157 0.221782 -3.46945e-18 0.00564415
0.412065 0.46022 3.08149e-33 0.00964519
0.288433 0.546332 0 0.0137424
0 0.619475 0 0.0155816
0.574156 0.233515 3.46945e-18 0.0056825
0.350249 0.51269 3.46945e-18 0.01108
0.219992 0.582034 3.46945e-18 0.0162191
0.523729 0.336148 0 0.00696895
0.467897 0.412396 0 0.00805582
0.574156 0.245675 0 0.0057203
0.624584 0 0 0
0.624584 0.00368111 0 1.86905e-06
0.624584 0.00749587 0 1.07906e-05
0.624584 0.0114491 0 2.81903e-05
0.624584 0.0155459 0 5.26638e-05
0.624584 0.0197915 0 9.23802e-05
0.624584 0.0241911 -2.31298e-18 0.000168852
0.624584 0.0287506 0 0.000300178
0.624584 0.0334755 0 0.000490223
0.624584 0.038372 0 0.000745582
0.624584 0.0434463 -2.31298e-18 0.00107233
0.624584 0.0487048 0 0.00147056
0.624584 0.0541543 0 0.00193809
0.624584 0.0598016 0 0.00247002
0.624584 0.0656539 0 0.0030579
0.624584 0.0717187 0 0.00368235
0.624584 0.0780037 0 0.00412925
0.574157 0.258276 3.46945e-18 0.00575767
0.624584 0.0845169 0 0.00429724
0.523729 0.352034 0 0.00699115
0.624584 0.0912666 0 0.00437241
0.624584 0.0982613 0 0.00444194
0.412065 0.48061 3.08149e-33 0.00955671
0.624584 0.10551 0 0.00450529
0.624584 0.113022 -2.31298e-18 0.00456294
0.574156 0.271334 0 0.00579478
0.624584 0.120806 0 0.00461603
0.467897 0.431051 0 0.00803072
0.075776 0.632561 -3.46945e-18 0.0216399
0.624584 0.128874 0 0.00466533
0.151552 0.619475 0 0.0186493
0.288433 0.569849 0 0.0135138
0.350249 0.534985 0 0.0109729
0.624584 0.137234 -2.31298e-18 0.00471159
0.523729 0.368496 0 0.00700749
0.574156 0.284866 -3.46945e-18 0.00583173
0.624584 0.145897 0 0.00475544
0.467897 0.440544 0 0.00837853
0.624584 0.154876 0 0.00479737
0.219992 0.606847 -3.46945e-18 0.0159034
0 0.645647 0 0.0154274
0.624584 0.16418 -3.08149e-33 0.00483775
0.574156 0.29889 -3.46945e-18 0.00586825
0.624584 0.173822 0 0.00487683
0.412065 0.501741 1.54074e-33 0.00948148
0.467897 0.450382 -3.46945e-18 0.00800062
0.523729 0.385557 0 0.00701773
0.624584 0.183814 0 0.00491479
0.624584 0.194169 0 0.00495175
0.574156 0.313423 0 0.00590362
0.624584 0.2049 0 0.00498783
0.350249 0.558091 3.46945e-18 0.0108783
0.288433 0.594219 0 0.0133118
0.624584 0.21602 0 0.00502317
0.523729 0.403236 0 0.00702154
0.574156 0.328483 -3.46945e-18 0.00593693
0.151552 0.645647 0 0.0183882
0.467897 0.470415 3.46945e-18 0.00797055
0.075776 0.659208 0 0.021373
0.624584 0.227544 0 0.00505788
0.412065 0.523639 0 0.00941788
0.523729 0.41545 3.08149e-33 0.00701982
0.624584 0.239487 3.70071e-18 0.00509211
0.574156 0.344091 0 0.00596738
0.219992 0.632561 0 0.0156257
0.67013 0.00184055 0 3.36165e-07
0.67013 0.00558849 0 3.35624e-06
0.67013 0.00947248 0 1.9315e-05
0.67013 0.0134975 0 3.96657e-05
0.67013 0.0176687 -3.46945e-18 6.5554e-05
0.67013 0.0219913 0 0.000108567
0.67013 0.0264708 3.46945e-18 0.000191876
0.67013 0.0311131 0 0.00033893
0.67013 0.0359237 0 0.000534477
0.67013 0.0409092 -3.46945e-18 0.000796038
0.67013 0.0460755 0 0.00112517
0.67013 0.0514296 3.46945e-18 0.00152069
0.523729 0.421557 -2.31298e-18 0.00701897
0.67013 0.056978 0 0.00197904
0 0.67277 0 0.0152596
0.67013 0.0627277 0 0.00249361
0.624584 0.251863 0 0.00512601
0.67013 0.0686863 0 0.00305372
0.67013 0.0748612 3.46945e-18 0.00361941
0.67013 0.0812603 0 0.00373868
0.67013 0.0878917 0 0.00381574
0.67013 0.0947639 3.46945e-18 0.00388887
0.574156 0.360265 0 0.00599447
0.67013 0.101886 0 0.00395313
0.523729 0.431051 0 0.00701516
0.624584 0.264688 0 0.0051597
0.467897 0.491175 0 0.00794476
0.67013 0.109266 3.46945e-18 0.00401046
0.350249 0.582034 0 0.0107951
0.67013 0.116914 0 0.00406283
0.67013 0.12484 0 0.00411096
0.67013 0.133054 0 0.00415564
0.288433 0.619475 0 0.0131352
0.624584 0.27798 -3.08149e-33 0.00519327
0.412065 0.546332 1.54074e-33 0.00936422
0.523729 0.440544 -3.08149e-33 0.00701135
0.67013 0.141566 3.46945e-18 0.00419743
0.685312 0.0241911 -7.70372e-34 0.000148325
0.685312 0.0434463 -7.70372e-34 0.00094185
0.67013 0.150387 0 0.00423684
0.574156 0.377026 -3.46945e-18 0.00601807
0.67013 0.159528 0 0.00427433
0.624584 0.291753 0 0.00522668
0.151552 0.67277 0 0.01814
0.075776 0.686823 0 0.0211009
0.67013 0.169001 0 0.00431023
0.67013 0.178818 0 0.00434482
0.467897 0.51269 0 0.00792527
0.685312 0.113022 -7.70372e-34 0.00396658
0.219992 0.659208 0 0.0153818
0.624584 0.306027 0 0.00525959
0.67013 0.188991 0 0.0043783
0.574156 0.394397 3.46945e-18 0.00603809
0.523729 0.46022 0 0.00700139
0.685312 0.137234 -7.70372e-34 0.00410633
0.67013 0.199535 -3.46945e-18 0.00441084
0.350249 0.606847 0 0.0107235
0 0.700877 0 0.0150824
0.624584 0.320819 0 0.00529146
0.67013 0.21046 0 0.00444262
0.412065 0.569849 -2.31298e-18 0.00931934
0.67013 0.221782 -3.46945e-18 0.00447379
0.574157 0.412396 0 0.00605433
0.288433 0.645647 0 0.0129822
0.624584 0.336148 -3.08149e-33 0.00532171
0.67013 0.233515 3.46945e-18 0.00450452
0.467897 0.534986 0 0.00791236
0.523729 0.48061 0 0.00699223
0.624584 0.344091 0 0.00533578
0.67013 0.245675 0 0.00453499
0.715676 4.54095e-19 0 4.83785e-23
0.715676 0.00368111 0 1.83947e-06
0.715676 0.00749587 0 1.19948e-05
0.715676 0.0114491 0 3.12875e-05
0.715676 0.0155459 0 5.40732e-05
0.715676 0.0197915 0 8.48906e-05
0.715676 0.0241911 0 0.000138061
0.715676 0.0287506 0 0.000241275
0.715676 0.0334755 0 0.000398283
0.715676 0.038372 0 0.0006059
0.624584 0.352034 -2.31298e-18 0.00534985
0.715676 0.0434463 0 0.00087661
0.151552 0.700877 0 0.0179047
0.715676 0.0487048 0 0.00121078
0.715676 0.0541543 0 0.00160602
0.574156 0.43105 0 0.00606683
0.715676 0.0598016 0 0.00205704
0.67013 0.258275 0 0.00456533
0.715676 0.0656539 0 0.00255484
0.715676 0.0717187 0 0.00304156
0.075776 0.715441 0 0.0208275
0.715676 0.0780037 0 0.00332246
0.715676 0.0845169 0 0.00341449
0.219992 0.686824 0 0.0151677
0.715676 0.0912666 0 0.00348882
0.715676 0.0982613 0 0.0035558
0.67013 0.271334 -3.46945e-18 0.00459564
0.350249 0.632561 -3.46945e-18 0.0106641
0.412065 0.594219 3.08149e-33 0.00928293
0.715676 0.10551 0 0.00361501
0.715676 0.113022 0 0.00366839
0.624584 0.368496 0 0.0053756
0.523729 0.501741 0 0.00698637
0.715676 0.120806 0 0.00371716
0.715676 0.128874 0 0.00376204
0.67013 0.284867 0 0.00462593
0.467897 0.558091 3.46945e-18 0.00790553
0.715676 0.137234 0 0.0038037
0.574156 0.450382 0 0.00607631
0 0.730005 0 0.0148995
0.715676 0.145897 0 0.00384269
0.288433 0.67277 0 0.0128509
0.715676 0.154876 0 0.00387947
0.67013 0.29889 0 0.00465612
0.624584 0.385557 0 0.00539885
0.715676 0.16418 -9.25187e-19 0.00391442
0.715676 0.173822 0 0.00394785
0.715676 0.183814 0 0.00397999
0.67013 0.313423 0 0.00468598
0.523729 0.523639 0 0.0069851
0.715676 0.194169 0 0.00401106
0.574156 0.470415 3.46945e-18 0.00608434
0.624584 0.403236 0 0.00541948
0.743101 0.0241911 -7.70372e-34 0.000132231
0.412065 0.619475 3.08149e-33 0.00925525
0.715676 0.2049 0 0.00404123
0.151552 0.730005 0 0.0176823
0.67013 0.328484 3.46945e-18 0.00471516
0.350249 0.659208 0 0.010617
0.467897 0.582034 0 0.0079043
0.715676 0.21602 0 0.00407067
0.219992 0.715441 0 0.0149797
0.075776 0.745097 -3.46945e-18 0.0205557
0.715676 0.227544 0 0.00409953
0.67013 0.344091 0 0.00474332
0.624584 0.421557 0 0.00543745
0.743101 0.128874 -7.70372e-34 0.00355895
0.715676 0.239487 3.70071e-18 0.00412799
0.574156 0.491175 0 0.00609293
0.756814 0.00184055 0 2.53258e-07
0.523729 0.546332 0 0.00698876
0.756813 0.00558849 0 3.41309e-06
0.756813 0.00947248 0 2.1821e-05
0.756814 0.0134975 -3.46945e-18 4.41463e-05
0.756814 0.0155459 0 5.57731e-05
0.756814 0.0176687 0 6.67627e-05
0.756814 0.0219913 0 9.89252e-05
0.756814 0.0264709 0 0.000154251
0.756814 0.031113 -3.46945e-18 0.000282771
0.756813 0.0359238 -3.46945e-18 0.000441298
0.288433 0.700877 0 0.0127393
0.756814 0.0409092 -3.46945e-18 0.000658495
0.756813 0.0460755 3.46945e-18 0.000936228
0.756813 0.0514296 0 0.00127368
0.715676 0.251863 0 0.00415619
0.756813 0.0569779 0 0.00166693
0.756814 0.0627277 -3.46945e-18 0.00210881
0.756814 0.0686863 -3.46945e-18 0.00258793
0 0.76019 0 0.0147141
0.756814 0.0748612 0 0.00293846
0.67013 0.360265 3.46945e-18 0.00477016
0.756814 0.0812603 -3.46945e-18 0.00303346
0.756814 0.0878917 -3.46945e-18 0.00311095
0.756814 0.0947639 -3.46945e-18 0.00318067
0.715676 0.264688 0 0.00418423
0.756813 0.101886 0 0.00324164
0.624584 0.440544 0 0.005453
0.756813 0.109266 3.46945e-18 0.00329612
0.756813 0.116914 3.46945e-18 0.0033456
0.412065 0.645647 0 0.00923669
0.467897 0.606847 0 0.00790868
0.756814 0.120806 0 0.00341335
0.756813 0.12484 0 0.00339082
0.715676 0.27798 0 0.00421217
0.756814 0.133054 -3.46945e-18 0.00343246
0.67013 0.377026 -3.46945e-18 0.0047955
0.756814 0.137234 0 0.0034982
0.574156 0.51269 0 0.00610382
0.756813 0.141566 3.46945e-18 0.00347116
0.685312 0.352034 -7.70372e-34 0.00468152
0.743101 0.2049 -7.70372e-34 0.00383209
0.350249 0.686824 0 0.0105822
0.756814 0.150387 0 0.00350739
0.756814 0.154876 0 0.00357204
0.715676 0.291753 0 0.00424001
0.756814 0.159528 -3.46945e-18 0.00354155
0.523729 0.569849 0 0.00699726
0.72743 0.264688 0 0.0040922
0.756814 0.16418 0 0.00360591
0.151552 0.76019 0 0.0174729
0.756813 0.169001 3.46945e-18 0.00357398
0.624584 0.46022 0 0.00546687
0.219993 0.745097 0 0.014815
0.67013 0.394396 0 0.00481926
0.756813 0.178818 -3.46945e-18 0.00360495
0.715676 0.306027 0 0.00426766
0.075776 0.775831 0 0.0202884
0.756813 0.188991 0 0.00363469
0.756814 0.199535 0 0.0036634
0.715676 0.320819 0 0.00429492
0.574156 0.534985 0 0.00611811
0.288433 0.730005 0 0.0126457
0.756813 0.21046 0 0.00369124
0.467897 0.632561 0 0.00791903
0.67013 0.412396 -3.46945e-18 0.00484138
0.624584 0.48061 -3.08149e-33 0.00548032
0.756814 0.221782 0 0.0037184
0.412065 0.67277 3.08149e-33 0.00922748
0.715676 0.336148 0 0.00432157
0 0.791472 0 0.0145291
0.756813 0.233516 3.46945e-18 0.00374502
0.523729 0.594219 0 0.00701054
0.624584 0.487654 1.54074e-33 0.00548513
0.756814 0.245675 3.46945e-18 0.00377125
0.350249 0.715441 3.46945e-18 0.0105592
0.67013 0.43105 0 0.00486185
0.715676 0.352034 -9.25187e-19 0.00434735
0.797951 9.08189e-19 -3.08149e-33 7.40662e-23
0.797951 0.00368111 2.31298e-18 1.83033e-06
0.797951 0.00749587 2.31298e-18 1.32886e-05
0.797951 0.0114491 2.31298e-18 3.48608e-05
0.797951 0.0141803 7.70372e-34 4.99355e-05
0.797951 0.0155459 0 5.74729e-05
0.797951 0.0169611 7.70372e-34 6.57867e-05
0.797951 0.0197915 2.31298e-18 8.24144e-05
0.797951 0.0219913 0 0.000101493
0.797951 0.0241911 3.08149e-33 0.000120571
0.797951 0.0264709 0 0.000159804
0.797951 0.0287506 -3.08149e-33 0.000199037
0.797951 0.0334755 2.31298e-18 0.000330412
0.797951 0.038372 2.31298e-18 0.000507
0.797951 0.0434463 2.31298e-18 0.000735151
0.797951 0.0487048 0 0.00102088
0.756813 0.258275 -3.46945e-18 0.00379721
0.797951 0.0541543 2.31298e-18 0.00136182
0.797951 0.0598016 2.31298e-18 0.00175237
0.797951 0.0656539 2.31298e-18 0.00218286
0.574156 0.55809 0 0.00613624
0.624584 0.501741 0 0.00549476
0.797951 0.0717187 2.31298e-18 0.0025429
0.797951 0.0780037 -3.08149e-33 0.00272657
0.797951 0.0845169 2.31298e-18 0.00281338
0.797951 0.0912666 -3.08149e-33 0.00288759
0.797951 0.0982613 2.31298e-18 0.00295277
0.756813 0.271334 0 0.00382297
0.797951 0.10551 2.31298e-18 0.0030104
0.715676 0.368496 0 0.00437209
0.151552 0.791472 0 0.0172769
0.797951 0.113022 2.31298e-18 0.00306231
0.219992 0.775831 3.46945e-18 0.0146713
0.797951 0.118211 7.70372e-34 0.00309379
0.770526 0.239487 1.54074e-33 0.00370336
0.797951 0.120806 0 0.00310954
0.67013 0.450382 3.46945e-18 0.0048809
0.797951 0.128874 3.08149e-33 0.00315279
0.467897 0.659208 0 0.00793579
0.756813 0.284866 -3.46945e-18 0.00384859
0.743101 0.320819 -7.70372e-34 0.00407484
0.797951 0.137234 0 0.0031927
0.797951 0.141566 0 0.00321127
0.797951 0.145897 -9.25187e-19 0.00322983
0.523729 0.619475 0 0.00702878
0.075776 0.807681 0 0.0200284
0.797951 0.150387 0 0.00324722
0.797951 0.154876 0 0.00326462
0.715676 0.385557 0 0.00439567
0.412065 0.700877 3.08149e-33 0.00922773
0.288433 0.76019 0 0.0125687
0.756813 0.29889 0 0.00387408
0.797951 0.16418 0 0.0032974
0.624584 0.523639 0 0.0055114
0.797951 0.167394 7.70372e-34 0.00330776
0.797951 0.173822 2.31298e-18 0.00332848
0.574156 0.582034 0 0.00615833
0.67013 0.470415 0 0.00489908
0.797951 0.183814 2.31298e-18 0.00335811
0.756813 0.313423 -3.46945e-18 0.00389935
0.797951 0.194169 -9.25187e-19 0.00338649
0.715676 0.403236 0 0.00441803
0.151552 0.807681 0 0.0171858
0.797951 0.197746 -7.70372e-34 0.00339559
0.350249 0.745097 0 0.0105479
0.797951 0.2049 3.08149e-33 0.00341381
0 0.823889 0 0.0143473
0.756813 0.328483 -3.46945e-18 0.00392429
0.797951 0.21046 0 0.00342702
0.797951 0.21602 -3.08149e-33 0.00344023
0.797951 0.223703 7.70372e-34 0.00345737
0.797951 0.227544 9.25187e-19 0.00346593
0.624584 0.546332 0 0.00553099
0.715676 0.421557 0 0.00443917
0.67013 0.491176 -3.46945e-18 0.00491733
0.797951 0.231525 7.70372e-34 0.0034743
0.467897 0.686824 -3.46945e-18 0.0079594
0.523729 0.645647 0 0.00705233
0.756813 0.344091 -3.46945e-18 0.00394875
0.822721 0.120806 7.70372e-34 0.00296394
0.797951 0.239487 -3.08149e-33 0.00349105
0.822721 0.137234 7.70372e-34 0.00304697
0.835106 0.00184056 0 1.89853e-07
0.835106 0.00558849 0 3.46555e-06
0.835106 0.00947248 0 2.43865e-05
0.835106 0.0134975 0 4.88969e-05
0.835107 0.0176687 0 6.98787e-05
0.835106 0.0219913 -3.46945e-18 9.41369e-05