# nutMean  POINT_DATA 63840
# x  y  z  nutMean
0 0.5 3.39583e-17 0.0159065
0 0.5 -0.00617931 0.015923
0 0.5 0.00617931 0.0158967
0.0124865 0.5 -0.00617931 0.0170344
0.0124865 0.5 0.00617931 0.0170179
0 0.5 -0.0688207 0.0160219
0 0.5 0.0688207 0.0156677
0.0124865 0.5 -0.0688207 0.0171333
0.0124865 0.5 0.0688207 0.0167889
0 0.5 -0.075 0.016025
0 0.5 0.075 0.0156322
0 0.5 -0.0811793 0.016035
0 0.5 0.0811793 0.015603
0.0124865 0.5 -0.0811793 0.0171554
0.0124865 0.5 0.0811793 0.016699
0.075776 0.5 -0.0375 0.0227015
0.075776 0.5 0.0375 0.0226019
0.075776 0.5 -0.1125 0.0228325
0.075776 0.5 0.1125 0.0220618
0 0.5 -0.143821 0.016014
0 0.5 0.143821 0.0152264
0.0124865 0.5 -0.143821 0.0171345
0.0124865 0.5 0.143821 0.0163224
0 0.5 -0.15 0.0159998
0 0.5 0.15 0.015181
0.151149 0.5 -0.00137318 0.0201111
0 0.5 -0.156179 0.0159925
0 0.5 0.156179 0.0151415
0.0124865 0.5 -0.156179 0.01712
0.0124865 0.5 0.156179 0.0161994
0.151149 0.5 0.075 0.0199047
0.151149 0.5 -0.075 0.0201573
0.075776 0.5 -0.1875 0.0227471
0.075776 0.5 0.1875 0.0213229
0.151149 0.5 0.15 0.0195032
0.151149 0.5 -0.15 0.0201672
0 0.5 -0.218821 0.0157943
0 0.5 0.218821 0.0146901
0.0124865 0.5 -0.218821 0.0169218
0.0124865 0.5 0.218821 0.0157479
0.219992 0.5 0.0375 0.0176856
0.219993 0.5 -0.0375 0.0177383
0 0.5 -0.225 0.0157622
0 0.5 0.225 0.0146405
0 0.5 -0.231179 0.0157366
0 0.5 0.231179 0.0145958
0.0124865 0.5 -0.231179 0.0168315
0.0124865 0.5 0.231179 0.0156099
0.219992 0.5 0.1125 0.0175954
0.219993 0.5 -0.1125 0.0177069
0.151149 0.5 -0.225 0.0199458
0.151149 0.5 0.225 0.0189545
0.075776 0.5 -0.2625 0.0222081
0.075776 0.5 0.2625 0.0204938
0.288069 0.5 -0.00137318 0.0143498
0.219992 0.5 0.1875 0.0173272
0.219993 0.5 -0.1875 0.0177342
0 0.5 0.293821 0.0141184
0 0.5 -0.293821 0.0154037
0.0124865 0.5 -0.293821 0.0164986
0.0124865 0.5 0.293821 0.0151326
0.288069 0.5 -0.075 0.0143334
0.288069 0.5 0.075 0.0143041
0 0.5 -0.3 0.0153636
0 0.5 0.3 0.0140695
0 0.5 0.306179 0.0140233
0 0.5 -0.306179 0.0153288
0.0124865 0.5 -0.306179 0.0163848
0.0124865 0.5 0.306179 0.0149921
0.288069 0.5 -0.15 0.0143548
0.288069 0.5 0.15 0.0142383
0.151149 0.5 -0.3 0.0194899
0.151149 0.5 0.3 0.0183405
0.219992 0.5 -0.2625 0.0174335
0.219992 0.5 0.2625 0.0169371
0.075776 0.5 0.3375 0.01965
0.075776 0.5 -0.3375 0.021526
0.350249 0.5 -0.0375 0.0111432
0.350249 0.5 0.0375 0.011161
0.288069 0.5 -0.225 0.0143217
0.288069 0.5 0.225 0.0141049
0.350249 0.5 0.1125 0.0111948
0.350249 0.5 -0.1125 0.0111721
0 0.5 0.368821 0.0135566
0 0.5 -0.368821 0.0149305
0.0124865 0.5 -0.368821 0.0159865
0.0124865 0.5 0.368821 0.0145254
0 0.5 -0.375 0.0148874
0 0.5 0.375 0.0135116
0 0.5 -0.381179 0.014847
0 0.5 0.381179 0.0134665
0.0124865 0.5 -0.381179 0.0158612
0.0124865 0.5 0.381179 0.0143917
0.350249 0.5 -0.1875 0.0112299
0.350249 0.5 0.1875 0.0112418
0.219992 0.5 -0.3375 0.0171101
0.219992 0.5 0.3375 0.0165138
0.151149 0.5 -0.375 0.0189692
0.151149 0.5 0.375 0.0177219
0.411736 0.5 -0.00137318 0.00950802
0.288069 0.5 -0.3 0.0142051
0.288069 0.5 0.3 0.0139334
0.411736 0.5 -0.075 0.00950527
0.411736 0.5 0.075 0.00952171
0.075776 0.5 -0.4125 0.020775
0.075776 0.5 0.4125 0.018847
0.350249 0.5 -0.2625 0.0113
0.350249 0.5 0.2625 0.0112949
0.411736 0.5 -0.15 0.0095495
0.411736 0.5 0.15 0.00957209
0 0.5 -0.443821 0.0144256
0 0.5 0.443821 0.0130404
0.0124865 0.5 -0.443821 0.0154398
0.0124865 0.5 0.443821 0.0139656
0 0.5 -0.45 0.0143836
0 0.5 0.45 0.0130022
0 0.5 -0.456179 0.0143415
0 0.5 0.456179 0.0129628
0.0124865 0.5 -0.456179 0.0153146
0.0124865 0.5 0.456179 0.0138508
0.219992 0.5 -0.4125 0.0167566
0.219993 0.5 0.4125 0.0160808
0.411736 0.5 -0.225 0.00962659
0.411736 0.5 0.225 0.00964113
0.467897 0.5 0.0375 0.00794004
0.467897 0.5 -0.0375 0.00793349
0.288069 0.5 -0.375 0.0140795
0.288069 0.5 0.375 0.0137527
0.151149 0.5 -0.45 0.0184257
0.151149 0.5 0.45 0.0171383
0.467897 0.5 -0.1125 0.00796742
0.467897 0.5 0.1125 0.00798666
0.350249 0.5 0.3375 0.0113397
0.350249 0.5 -0.3375 0.0113631
0.075776 0.5 -0.4875 0.0200254
0.075776 0.5 0.4875 0.018145
0.467897 0.5 -0.1875 0.00802356
0.467897 0.5 0.1875 0.0080596
0.411736 0.5 -0.3 0.00972293
0.411736 0.5 0.3 0.00972038
0 0.5 -0.518821 0.0139361
0 0.5 0.518821 0.0125942
0.0124865 0.5 0.518821 0.0134823
0.0124865 0.5 -0.518821 0.0149091
0.523432 0.5 -0.00137318 0.00699808
0 0.5 -0.525 0.0138989
0 0.5 0.525 0.0125619
0.523432 0.5 -0.075 0.00700669
0.523432 0.5 0.075 0.0070138
0 0.5 -0.531179 0.0138599
0 0.5 0.531179 0.012529
0.0124865 0.5 -0.531179 0.0147971
0.0124865 0.5 0.531179 0.0133858
0.288069 0.5 -0.45 0.0139602
0.288069 0.5 0.45 0.0135795
0.219992 0.5 -0.4875 0.0164082
0.219993 0.5 0.4875 0.015661
0.467897 0.5 -0.2625 0.00814634
0.467897 0.5 0.2625 0.00816042
0.350249 0.5 -0.4125 0.0114473
0.350249 0.5 0.4125 0.0113969
0.523432 0.5 -0.15 0.00705478
0.523432 0.5 0.15 0.00707054
0.151149 0.5 -0.525 0.0179073
0.151149 0.5 0.525 0.0166168
0.411736 0.5 -0.375 0.00983271
0.411736 0.5 0.375 0.00981179
0.075776 0.5 -0.5625 0.0193454
0.075776 0.5 0.5625 0.017548
0.523432 0.5 -0.225 0.0071406
0.523432 0.5 0.225 0.00715548
0.574156 0.5 -0.0375 0.00609783
0.574156 0.5 0.0375 0.00609697
0.467897 0.5 0.3375 0.00827512
0.467897 0.5 -0.3375 0.00827224
0.574156 0.5 -0.1125 0.00613168
0.574156 0.5 0.1125 0.00613585
0 0.5 -0.593821 0.0134971
0 0.5 0.593821 0.0122244
0.0124865 0.5 -0.593821 0.0144343
0.0124865 0.5 0.593821 0.0130813
0.288069 0.5 -0.525 0.0138622
0.288069 0.5 0.525 0.0134248
0 0.5 -0.6 0.0134653
0 0.5 0.6 0.012198
0.350249 0.5 -0.4875 0.0115587
0.350249 0.5 0.4875 0.0114678
0.523432 0.5 -0.3 0.00726163
0.523432 0.5 0.3 0.00726372
0.219992 0.5 -0.5625 0.0160856
0.219992 0.5 0.5625 0.0152767
0.574156 0.5 -0.1875 0.00619978
0.574156 0.5 0.1875 0.00620472
0 0.5 -0.606179 0.013432
0 0.5 0.606179 0.0121714
0.0124865 0.5 -0.606179 0.01434
0.0124865 0.5 0.606179 0.0130029
0.411736 0.5 -0.45 0.0099726
0.411736 0.5 0.45 0.00992377
0.151149 0.5 -0.6 0.0174466
0.151149 0.5 0.6 0.0161719
0.62168 0.5 2.64545e-17 0.00553232
0.467897 0.5 0.4125 0.00841929
0.467897 0.5 -0.4125 0.00843387
0.624316 0.5 0.0729402 0.00551188
0.624316 0.5 -0.075 0.00551441
0.574156 0.5 -0.2625 0.00629641
0.574157 0.5 0.2625 0.0063021
0.075776 0.5 -0.6375 0.018762
0.075776 0.5 0.6375 0.0170696
0.624316 0.5 -0.15 0.00556437
0.624316 0.5 0.15 0.00556111
0.523432 0.5 -0.375 0.00741014
0.523432 0.5 0.375 0.00739328
0.350249 0.5 -0.5625 0.0116964
0.350249 0.5 0.5625 0.0115513
0.624316 0.5 -0.225 0.00564306
0.624316 0.5 0.225 0.00563854
0.288069 0.5 0.6 0.0132982
0.288069 0.5 -0.6 0.0137947
0.574156 0.5 -0.3375 0.00643562
0.574156 0.5 0.3375 0.0064221
0.411736 0.5 -0.525 0.0101437
0.411736 0.5 0.525 0.0100549
0 0.5 -0.668821 0.0131241
0 0.5 0.668821 0.0119344
0.0124865 0.5 -0.668821 0.014032
0.0124865 0.5 0.668821 0.0127659
0.67013 0.5 0.0375 0.00492289
0.67013 0.5 -0.0375 0.00492764
0.219993 0.5 -0.6375 0.0158058
0.219993 0.5 0.6375 0.0149441
0 0.5 -0.675 0.0130974
0 0.5 0.675 0.0119149
0.467897 0.5 0.4875 0.00858938
0.467897 0.5 -0.4875 0.00863129
0.67013 0.5 -0.1125 0.00496125
0.67013 0.5 0.1125 0.00495305
0 0.5 -0.681179 0.0130702
0 0.5 0.681179 0.0118945
0.0124865 0.5 -0.681179 0.0139547
0.0124865 0.5 0.681179 0.0127068
0.523432 0.5 -0.45 0.00759192
0.523432 0.5 0.45 0.00755022
0.151149 0.5 -0.675 0.0170603
0.151149 0.5 0.675 0.0158131
0.624316 0.5 -0.3 0.00575608
0.624316 0.5 0.3 0.00574283
0.67013 0.5 0.1875 0.00501253
0.67013 0.5 -0.1875 0.00502563
0.574156 0.5 -0.4125 0.00660239
0.574157 0.5 0.4125 0.00656147
0.708171 0.5 1.88651e-17 0.00458223
0.075776 0.5 -0.7125 0.0182838
0.075776 0.5 0.7125 0.0167097
0.715434 0.5 0.0736268 0.00453603
0.715434 0.5 -0.075 0.00453558
0.67013 0.5 0.2625 0.00509714
0.67013 0.5 -0.2625 0.00511165
0.350249 0.5 -0.6375 0.0118614
0.350249 0.5 0.6375 0.0116489
0.411736 0.5 -0.6 0.0103459
0.411736 0.5 0.6 0.0102045
0.624316 0.5 -0.375 0.00590392
0.624316 0.5 0.375 0.00586697
0.715434 0.5 -0.15 0.00458261
0.715434 0.5 0.15 0.00456798
0.467897 0.5 -0.5625 0.00886387
0.467897 0.5 0.5625 0.00878328
0.288069 0.5 -0.675 0.0137655
0.288069 0.5 0.675 0.0132059
0.523432 0.5 -0.525 0.00780905
0.523432 0.5 0.525 0.00773576
0 0.5 -0.743821 0.0128252
0 0.5 0.743821 0.0117238
0.0124865 0.5 -0.743821 0.0137098
0.0124865 0.5 0.743821 0.0125361
0.219992 0.5 0.7125 0.0146716
0.219992 0.5 -0.7125 0.015583
0.715434 0.5 -0.225 0.00465721
0.715434 0.5 0.225 0.0046351
0 0.5 -0.75 0.012805
0 0.5 0.75 0.0117117
0.67013 0.5 0.3375 0.00521276
0.67013 0.5 -0.3375 0.00524238
0.574156 0.5 -0.4875 0.00680345
0.574156 0.5 0.4875 0.00673564
0 0.5 -0.756179 0.0127836
0 0.5 0.756179 0.0116974
0.0124865 0.5 -0.756179 0.013651
0.0124865 0.5 0.756179 0.0124976
0.756813 0.5 -0.0375 0.00413
0.756813 0.5 0.0375 0.00412347
0.151149 0.5 -0.75 0.0167597
0.151149 0.5 0.75 0.0155449
0.756813 0.5 -0.1125 0.00416123
0.756813 0.5 0.1125 0.00414715
0.624316 0.5 -0.45 0.00608142
0.624316 0.5 0.45 0.00601602
0.715434 0.5 -0.3 0.00476005
0.715434 0.5 0.3 0.00472825
0.756813 0.5 0.1875 0.00419757
0.756813 0.5 -0.1875 0.00422028
0.67013 0.5 -0.4125 0.00539755
0.67013 0.5 0.4125 0.00533489
0.411736 0.5 -0.675 0.0105789
0.411736 0.5 0.675 0.010372
0.467897 0.5 0.6375 0.00899971
0.467897 0.5 -0.6375 0.00913114
0.075776 0.5 -0.7875 0.0179261
0.075776 0.5 0.7875 0.0164685
0.350249 0.5 -0.7125 0.0120544
0.350249 0.5 0.7125 0.0117607
0.523432 0.5 -0.6 0.00806173
0.523432 0.5 0.6 0.00794664
0.797732 0.5 2.68882e-17 0.00383818
0.756813 0.5 -0.2625 0.00430929
0.756814 0.5 0.2625 0.004272
0.797732 0.5 0.0736268 0.0038484
0.797732 0.5 -0.075 0.00385618
0.288069 0.5 -0.75 0.0137797
0.288069 0.5 0.75 0.0131524
0.574156 0.5 -0.5625 0.00704072
0.574157 0.5 0.5625 0.00693929
0.715434 0.5 -0.375 0.00489332
0.715434 0.5 0.375 0.00484416
0.797732 0.5 -0.15 0.00389917
0.797732 0.5 0.15 0.00387976
0.624316 0.5 -0.525 0.00629324
0.624316 0.5 0.525 0.00619784
0.219992 0.5 -0.7875 0.0154233
0.219992 0.5 0.7875 0.0144673
0 0.5 -0.818821 0.0126049
0 0.5 0.818821 0.0115945
0.0124865 0.5 0.818821 0.0123947
0.0124865 0.5 -0.818821 0.0134722
0 0.5 -0.825 0.0125923
0 0.5 0.825 0.011589
0.756813 0.5 0.3375 0.00437059
0.756814 0.5 -0.3375 0.00441541
0.67013 0.5 -0.4875 0.00558523
0.67013 0.5 0.4875 0.0054962
0.797732 0.5 -0.225 0.00396992
0.797732 0.5 0.225 0.00393827
0 0.5 -0.831179 0.0125769
0 0.5 0.831179 0.0115829
0.0124865 0.5 -0.831179 0.0134342
0.0124865 0.5 0.831179 0.0123793
0.835106 0.5 0.0375 0.00355818
0.835106 0.5 -0.0375 0.00356516
0.151149 0.5 -0.825 0.0165503
0.151149 0.5 0.825 0.0153722
0.835106 0.5 0.1125 0.00357769
0.835106 0.5 -0.1125 0.0035925
0.715434 0.5 -0.45 0.00505713
0.715434 0.5 0.45 0.00497995
0.797732 0.5 -0.3 0.00406081
0.797732 0.5 0.3 0.00401949
0.467897 0.5 0.7125 0.00923638
0.467897 0.5 -0.7125 0.00943176
0.523432 0.5 -0.675 0.0083494
0.523432 0.5 0.675 0.00818056
0.411736 0.5 -0.75 0.0108423
0.411736 0.5 0.75 0.0105568
0.835106 0.5 -0.1875 0.00364702
0.835106 0.5 0.1875 0.00362111
0.574156 0.5 -0.6375 0.00731405
0.574157 0.5 0.6375 0.00716827
0.350249 0.5 -0.7875 0.0122751
0.350249 0.5 0.7875 0.0118888
0.756813 0.5 -0.4125 0.00455738
0.756814 0.5 0.4125 0.00449817
0.075776 0.5 -0.8625 0.0176872
0.075776 0.5 0.8625 0.0163577
0.624316 0.5 0.6 0.00640682
0.624316 0.5 -0.6 0.00654056
0.872064 0.5 5.91974e-17 0.00333667
0.870122 0.5 0.075 0.0033561
0.288069 0.5 -0.825 0.0138394
0.288069 0.5 0.825 0.0131415
0.67013 0.5 -0.5625 0.00580725
0.67013 0.5 0.5625 0.00568512
0.872064 0.5 -0.075 0.00335272
0.835106 0.5 -0.2625 0.0037277
0.835106 0.5 0.2625 0.00368718
0.797732 0.5 -0.375 0.00417762
0.797732 0.5 0.375 0.00412608
0.872064 0.5 0.14794 0.00337068
0.872064 0.5 -0.15 0.00339116
0.715434 0.5 -0.525 0.00525278
0.715434 0.5 0.525 0.00514273
0.219992 0.5 0.8625 0.0143327
0.219993 0.5 -0.8625 0.0153302
0 0.5 -0.893821 0.012467
0 0.5 0.893821 0.0115382
0.0124865 0.5 -0.893821 0.0133242
0.0124865 0.5 0.893821 0.0123345
0 0.5 -0.9 0.0124613
0 0.5 0.9 0.011533
0.756813 0.5 -0.4875 0.00472849
0.756813 0.5 0.4875 0.00463084
0.872064 0.5 -0.225 0.0034551
0.872064 0.5 0.225 0.00342177
0.835106 0.5 -0.3375 0.00381601
0.835106 0.5 0.3375 0.00377342
0 0.5 0.906179 0.0115312
0 0.5 -0.906179 0.0124547
0.0124865 0.5 -0.906179 0.013311
0.0124865 0.5 0.906179 0.0123225
0.90582 0.5 -0.0375 0.00312419
0.90582 0.5 0.0375 0.00311603
0.151149 0.5 -0.9 0.0164368
0.151149 0.5 0.9 0.0152814
0.90582 0.5 -0.1125 0.00314598
0.905821 0.5 0.1125 0.00313187
0.523432 0.5 -0.75 0.00867117
0.523432 0.5 0.75 0.0084357
0.574156 0.5 -0.7125 0.00762313
0.574156 0.5 0.7125 0.00742108
0.797732 0.5 -0.45 0.00432715
0.797732 0.5 0.45 0.00424931
0.467897 0.5 0.7875 0.00949152
0.467897 0.5 -0.7875 0.00976425
0.624316 0.5 -0.675 0.00682361
0.624316 0.5 0.675 0.00664095
0.411736 0.5 -0.825 0.0111349
0.411736 0.5 0.825 0.0107596
0.872064 0.5 0.3 0.00349331
0.872064 0.5 -0.3 0.00353684
0.67013 0.5 -0.6375 0.00606475
0.67013 0.5 0.6375 0.00590021
0.90582 0.5 0.1875 0.00316923
0.905821 0.5 -0.1875 0.00319627
0.350249 0.5 -0.8625 0.0125226
0.350249 0.5 0.8625 0.012036
0.835106 0.5 -0.4125 0.00394747
0.835106 0.5 0.4125 0.00388793
0.715434 0.5 -0.6 0.00548223
0.715434 0.5 0.6 0.00533487
0.939201 0.5 2.75387e-17 0.00300613
0.075776 0.5 0.9375 0.0163114
0.075776 0.5 -0.9375 0.0175853
0.939111 0.5 0.075 0.00301171
0.939201 0.5 -0.075 0.00302012
0.756813 0.5 0.5625 0.00480025
0.756814 0.5 -0.5625 0.00493117
0.90582 0.5 0.2625 0.00322699
0.905821 0.5 -0.2625 0.00326682
0.288069 0.5 -0.9 0.0139448
0.288069 0.5 0.9 0.0131736
0.872064 0.5 -0.375 0.00364156
0.872064 0.5 0.375 0.00358725
0.939201 0.5 0.148627 0.00303853
0.939201 0.5 -0.15 0.00305426
0.797732 0.5 -0.525 0.00450461
0.797732 0.5 0.525 0.00439253
0.219992 0.5 0.9375 0.0142632
0.219992 0.5 -0.9375 0.0153029
0.939201 0.5 -0.225 0.00311218
0.939201 0.5 0.225 0.0030847
0.905821 0.5 -0.3375 0.00335443
0.90582 0.5 0.3375 0.00330343
0.835106 0.5 -0.4875 0.00410164
0.835106 0.5 0.4875 0.00400664
0 0.5 0.968821 0.0115134
0 0.5 -0.968821 0.0124065
0.0124865 0.5 -0.968821 0.0132629
0.0124865 0.5 0.968821 0.0123048
0.969689 0.5 -0.0375 0.00289965
0.969689 0.5 0.0375 0.00289211
0.574156 0.5 -0.7875 0.00796751
0.574156 0.5 0.7875 0.00769603
0 0.5 -0.975 0.0124007
0 0.5 0.975 0.0115088
0.624316 0.5 -0.75 0.00714221
0.624316 0.5 0.75 0.00689916
0.969689 0.5 -0.1125 0.00291819
0.96969 0.5 0.1125 0.00290871
0.523432 0.5 -0.825 0.00902606
0.523432 0.5 0.825 0.00871109
0.67013 0.5 0.7125 0.00614059
0.67013 0.5 -0.7125 0.00635788
0 0.5 -0.981179 0.012399
0 0.5 0.981179 0.0115062
0.467897 0.5 0.8625 0.00976449
0.467897 0.5 -0.8625 0.0101271
0.0124865 0.5 -0.981179 0.0132534
0.0124865 0.5 0.981179 0.012287
0.872064 0.5 -0.45 0.00377436
0.872064 0.5 0.45 0.00369956
0.715434 0.5 -0.675 0.00574639
0.715434 0.5 0.675 0.00555272
0.939201 0.5 -0.3 0.00318951
0.939201 0.5 0.3 0.00315126
0.151149 0.5 0.975 0.0152326
0.151149 0.5 -0.975 0.0164061
0.969689 0.5 -0.1875 0.00296425
0.969689 0.5 0.1875 0.00294651
0.756813 0.5 -0.6375 0.00516771
0.756813 0.5 0.6375 0.0049963
0.411736 0.5 -0.9 0.0114559
0.411736 0.5 0.9 0.0109814
0.90582 0.5 -0.4125 0.00346629
0.90582 0.5 0.4125 0.00340247
0.995005 0.5 0.0749309 0.0027669
0.797732 0.5 -0.6 0.00471405
0.797732 0.5 0.6 0.00456604
1.00005 0.5 -8.47123e-18 0.00273165
0.350249 0.5 -0.9375 0.0127965
0.350249 0.5 0.9375 0.0122043
1.00005 0.5 -0.0749309 0.00274422
0.969689 0.5 -0.2625 0.00302919
0.969689 0.5 0.2625 0.0030035
0.835106 0.5 -0.5625 0.00428429
0.835106 0.5 0.5625 0.00415941
1.00005 0.5 -0.149862 0.00277537
0.939201 0.5 -0.375 0.00329057
0.939201 0.5 0.375 0.0032368
1.00029 0.5 0.148988 0.00276658
0.075776 0.5 -1.0125 0.0175567
0.075776 0.5 1.0125 0.0162469
0.288069 0.5 0.975 0.0132437
0.288069 0.5 -0.975 0.0140961
0.872064 0.5 -0.525 0.00393309
0.872064 0.5 0.525 0.00383045
1.00005 0.5 0.224793 0.0028086
1.00005 0.5 -0.224793 0.00282834
0.969689 0.5 0.3375 0.00307857
0.96969 0.5 -0.3375 0.00311551
1.0271 0.5 -0.0368226 0.00256108
1.0271 0.5 0.0368226 0.00255748
0.90582 0.5 0.4875 0.00351978
0.905821 0.5 -0.4875 0.00360079
1.0271 0.5 -0.110468 0.00258098
1.0271 0.5 0.110468 0.00255973
0.67013 0.5 0.7875 0.00640588
0.67013 0.5 -0.7875 0.0066865
0.624316 0.5 0.825 0.00718074
0.624316 0.5 -0.825 0.00749612
0.219993 0.5 -1.0125 0.015334
0.219993 0.5 1.0125 0.014246
0.574156 0.5 -0.8625 0.00834655
0.574156 0.5 0.8625 0.00799327
0.715434 0.5 -0.75 0.00604634
0.715434 0.5 0.75 0.00579573
0.756813 0.5 0.7125 0.00521711
0.756814 0.5 -0.7125 0.00543819
0.523432 0.5 -0.9 0.0094133
0.523432 0.5 0.9 0.00900683
0.939201 0.5 -0.45 0.00342199
0.939201 0.5 0.45 0.00334233
1.04168 0.5 0 0.00247998
1.0271 0.5 -0.184113 0.00261913
1.0271 0.5 0.184113 0.00260519
0 0.5 -1.04382 0.0123747
0 0.5 1.04382 0.0115279
0.0124865 0.5 -1.04382 0.0132291
0.0124865 0.5 1.04382 0.0123087
1.00005 0.5 -0.299723 0.00290251
1.00005 0.5 0.299723 0.0028728
1.04168 0.5 -0.0729162 0.00249107
1.04168 0.5 0.0729162 0.00248444
0.797732 0.5 -0.675 0.00495897
0.797732 0.5 0.675 0.00476396
0.467897 0.5 0.9375 0.0100557
0.467897 0.5 -0.9375 0.0105197
0 0.5 -1.05 0.0123675
0 0.5 1.05 0.0115353
0.835106 0.5 -0.6375 0.00450105
0.835106 0.5 0.6375 0.00433599
1.04168 0.5 -0.145832 0.0025176
1.04168 0.5 0.145832 0.00250557
0.969689 0.5 -0.4125 0.00323384
0.96969 0.5 0.4125 0.00317034
0 0.5 -1.05618 0.0123629
0 0.5 1.05618 0.0115425
0.0124865 0.5 -1.05618 0.0132059
0.0124865 0.5 1.05618 0.0123271
1.05695 0.5 -0.0360764 0.0024013
1.05695 0.5 0.0360764 0.00239907
0.411736 0.5 -0.975 0.0118094
0.411736 0.5 0.975 0.0112227
0.872064 0.5 -0.6 0.00412622
0.872064 0.5 0.6 0.00398539
1.0271 0.5 -0.257759 0.00267822
1.0271 0.5 0.257759 0.00265616
0.151149 0.5 -1.05 0.0164116
0.151149 0.5 1.05 0.0152478
1.05695 0.5 0.108229 0.0023927
1.05695 0.5 -0.108229 0.00242002
1.04168 0.5 -0.218749 0.00256161
1.04168 0.5 0.218749 0.00254377
0.90582 0.5 -0.5625 0.00376506
0.905821 0.5 0.5625 0.00365492
1.00005 0.5 -0.374654 0.00300221
1.00005 0.5 0.374654 0.0029545
0.350249 0.5 1.0125 0.0123885
0.350249 0.5 -1.0125 0.0131049
1.05695 0.5 -0.180382 0.00245014
1.05695 0.5 0.180382 0.00243592
1.07319 0.5 0.0709442 0.00233567
0.939201 0.5 -0.525 0.00357739
0.939201 0.5 0.525 0.00346641
1.0271 0.5 -0.331404 0.00275895
1.0271 0.5 0.331404 0.00272476
1.08112 0.5 3.23815e-17 0.00230364
1.04168 0.5 -0.291665 0.00262554
1.04168 0.5 0.291665 0.00259795
1.08112 0.5 -0.0709442 0.00231277
0.969689 0.5 -0.4875 0.00339425
0.96969 0.5 0.4875 0.00328451
1.05695 0.5 0.252535 0.00247685
1.05695 0.5 -0.252535 0.00249955
0.288069 0.5 -1.05 0.0142939
0.288069 0.5 1.05 0.0133531
0.075776 0.5 -1.0875 0.01748
0.075776 0.5 1.0875 0.0163291
1.08112 0.5 -0.141888 0.00233475
1.08145 0.5 0.140165 0.00232835
0.715434 0.5 0.825 0.00606387
0.715434 0.5 -0.825 0.00638369
0.756813 0.5 0.7875 0.00546358
0.756814 0.5 -0.7875 0.00574676
0.67013 0.5 -0.8625 0.0070509
0.67013 0.5 0.8625 0.00669515
0.797732 0.5 -0.75 0.00523949
0.797732 0.5 0.75 0.00498688
0.624316 0.5 -0.9 0.00788537
0.624316 0.5 0.9 0.00748536
1.00005 0.5 -0.449585 0.00313545
1.00005 0.5 0.449585 0.00305622
0.835106 0.5 -0.7125 0.00475766
0.835106 0.5 0.7125 0.00453509
0.574156 0.5 -0.9375 0.0087599
0.574157 0.5 0.9375 0.00831332
1.10076 0.5 -0.0349809 0.00223356
1.10076 0.5 0.0349809 0.0022325
1.08112 0.5 -0.212832 0.00237136
1.08112 0.5 0.212832 0.00235684
0.872064 0.5 -0.675 0.00435428
0.872064 0.5 0.675 0.00416313
1.04168 0.5 -0.364581 0.00271095
1.04168 0.5 0.364581 0.00266805
1.0271 0.5 0.405049 0.00281021
1.0271 0.5 -0.405049 0.00286533
1.05695 0.5 -0.324688 0.00256679
1.05695 0.5 0.324688 0.00253311
1.10076 0.5 -0.104943 0.00224848
1.10076 0.5 0.104943 0.00224147
0.523432 0.5 0.975 0.00932398
0.523432 0.5 -0.975 0.00983554
0.90582 0.5 0.6375 0.00381091
0.905821 0.5 -0.6375 0.00397441
0.219992 0.5 1.0875 0.0143046
0.219992 0.5 -1.0875 0.0154206
1.11376 0.5 3.81639e-17 0.00218962
0.939201 0.5 0.6 0.00362223
0.939201 0.5 -0.6 0.00374227
1.10076 0.5 -0.174905 0.00227432
1.10076 0.5 0.174905 0.00226695
0.467897 0.5 -1.0125 0.0109515
0.467897 0.5 1.0125 0.0103693
1.11376 0.5 -0.0693118 0.00219709
1.11376 0.5 0.0693118 0.00219354
1.08112 0.5 0.283777 0.00240273
1.08112 0.5 -0.283777 0.00242529
0 0.5 -1.11882 0.012371
0 0.5 1.11882 0.0116321
0.0124865 0.5 -1.11882 0.013214
0.0124865 0.5 1.11882 0.0124167
0.969689 0.5 -0.5625 0.00355625
0.969689 0.5 0.5625 0.00341434
1.11376 0.5 0.138624 0.0022127
1.11376 0.5 -0.138624 0.00221651
0 0.5 -1.125 0.0123781
0 0.5 1.125 0.0116431
1.10076 0.5 0.244866 0.00230484
1.10076 0.5 -0.244866 0.00231857
0.411736 0.5 -1.05 0.0122024
0.411736 0.5 1.05 0.0114826
1.05695 0.5 -0.396841 0.00265572
1.05695 0.5 0.396841 0.00260369
1.00005 0.5 -0.524516 0.00328012
1.00005 0.5 0.524516 0.00317893
1.04168 0.5 -0.437497 0.00282332
1.04168 0.5 0.437497 0.00275627
0 0.5 -1.13118 0.0123856
0 0.5 1.13118 0.0116547
0.0124865 0.5 -1.13118 0.0132355
0.0124865 0.5 1.13118 0.012446
1.11376 0.5 -0.207935 0.00225063
1.11376 0.5 0.207935 0.00224179
1.0271 0.5 -0.478694 0.00299948
1.0271 0.5 0.478694 0.00291787
0.151149 0.5 -1.125 0.0164825
0.151149 0.5 1.125 0.0153665
1.08112 0.5 -0.354722 0.00249712
1.08112 0.5 0.354722 0.00246274
1.13882 0.5 -0.0340295 0.0021041
1.13882 0.5 0.0340295 0.00210283
0.350249 0.5 -1.0875 0.0134524
0.350249 0.5 1.0875 0.012589
1.13882 0.5 -0.102088 0.0021159
1.13882 0.5 0.102088 0.00210762
1.10076 0.5 -0.314829 0.00237757
1.10076 0.5 0.314829 0.00235729
0.756813 0.5 -0.8625 0.00609539
0.756814 0.5 0.8625 0.00573594
0.797732 0.5 -0.825 0.00555798
0.797732 0.5 0.825 0.00523659
1.11376 0.5 -0.277247 0.00230092
1.11376 0.5 0.277247 0.00228615
0.835106 0.5 0.7875 0.0047613
0.835106 0.5 -0.7875 0.00504481
0.715434 0.5 -0.9 0.00675904
0.715434 0.5 0.9 0.00635659
0.872064 0.5 -0.75 0.00461624
0.872064 0.5 0.75 0.00436688
1.13882 0.5 0.170147 0.00213618
1.13882 0.5 -0.170147 0.00213947
0.67013 0.5 -0.9375 0.00745178
0.67013 0.5 0.9375 0.00700749
0.905821 0.5 -0.7125 0.00420454
0.905821 0.5 0.7125 0.00399093
1.05695 0.5 0.468994 0.00269368
1.05695 0.5 -0.468994 0.00277135
0.939201 0.5 -0.675 0.00393653
0.939201 0.5 0.675 0.00379322
0.624316 0.5 0.975 0.00781315
0.624316 0.5 -0.975 0.00831282
1.04168 0.5 -0.510414 0.00293885
1.04168 0.5 0.510414 0.00286566
0.969689 0.5 -0.6375 0.00368163
0.96969 0.5 0.6375 0.00361594
0.288069 0.5 -1.125 0.0145478
0.288069 0.5 1.125 0.0134957
1.16179 0.5 5.78241e-19 0.00202029
1.08112 0.5 0.425666 0.00253833
1.08112 0.5 -0.425666 0.00259218
1.13882 0.5 -0.238206 0.00218041
1.13882 0.5 0.238206 0.00217203
1.16179 0.5 0.0669104 0.00201175
1.16179 0.5 -0.0669104 0.00202599
0.574156 0.5 -1.0125 0.00921005
0.574156 0.5 1.0125 0.00865546
0.075776 0.5 -1.1625 0.0175535
0.075776 0.5 1.1625 0.0165205
1.00005 0.5 -0.599447 0.00342806
1.00005 0.5 0.599447 0.00333889
1.10076 0.5 0.384791 0.00242294
1.10076 0.5 -0.384791 0.00245537
1.0271 0.5 -0.55234 0.00312133
1.0271 0.5 0.55234 0.00304802
1.11376 0.5 -0.346559 0.00236727
1.11376 0.5 0.346559 0.00234416
1.16179 0.5 -0.133821 0.00204131
1.16179 0.5 0.133821 0.00203799
0.523432 0.5 -1.05 0.0103
0.523432 0.5 1.05 0.00966286
1.17463 0.5 -0.0331343 0.00197672
1.17463 0.5 0.0331343 0.00197533
1.17463 0.5 -0.0994029 0.00198583
1.17463 0.5 0.0994029 0.0019836
1.16179 0.5 -0.200731 0.00207076
1.16179 0.5 0.200731 0.00206757
1.13882 0.5 -0.306265 0.0022346
1.13882 0.5 0.306265 0.00222144
0.219992 0.5 -1.1625 0.0156107
0.219992 0.5 1.1625 0.0144499
0.467897 0.5 -1.0875 0.0114282
0.467897 0.5 1.0875 0.0107028
1.17463 0.5 0.165672 0.00200577
1.17463 0.5 -0.165672 0.00200497
1.05695 0.5 -0.541147 0.00286512
1.05695 0.5 0.541147 0.00280443
1.18772 0.5 -5.78241e-19 0.00193209
1.11376 0.5 -0.41587 0.00245418
1.11376 0.5 0.41587 0.00241651
1.18772 0.5 -0.065614 0.00193692
1.18772 0.5 0.065614 0.00193601
1.08112 0.5 -0.49661 0.00268931
1.08112 0.5 0.49661 0.00263241
1.10076 0.5 -0.454752 0.00255872
1.10076 0.5 0.454752 0.00250504
1.18534 0.5 0.118202 0.00195018
1.16179 0.5 -0.267642 0.00211481
1.16179 0.5 0.267642 0.00210721
0 0.5 -1.19382 0.0124634
0 0.5 1.19382 0.0117914
0.0124865 0.5 1.19382 0.0125828
0.0124865 0.5 -1.19382 0.0133134
1.04168 0.5 -0.58333 0.00307164
1.04168 0.5 0.58333 0.0030016
1.18772 0.5 -0.131228 0.00194983
1.17463 0.5 -0.23194 0.0020416
1.17463 0.5 0.23194 0.00203772
0.411736 0.5 -1.125 0.0126288
0.411736 0.5 1.125 0.011732
1.13882 0.5 -0.374324 0.00230534
1.13882 0.5 0.374324 0.00228354
0 0.5 -1.2 0.0124722
0 0.5 1.2 0.0118058
0.905821 0.5 0.7875 0.00420125
0.905821 0.5 -0.7875 0.0044792
0.872064 0.5 -0.825 0.00491631
0.872064 0.5 0.825 0.00460362
0.835106 0.5 0.8625 0.00501591
0.835106 0.5 -0.8625 0.00537525
0.939201 0.5 -0.75 0.00417485
0.939201 0.5 0.75 0.00396635
0.797732 0.5 -0.9 0.00591584
0.797732 0.5 0.9 0.00551316
1.0271 0.5 0.625985 0.00320966
1.0271 0.5 -0.625985 0.00329145
0.969689 0.5 0.7125 0.00376203
0.96969 0.5 -0.7125 0.00389551
1.18772 0.5 -0.196842 0.00197601
1.18772 0.5 0.196842 0.00197616
0.756814 0.5 -0.9375 0.00648355
0.756814 0.5 0.9375 0.0060336
0 0.5 1.20618 0.0118208
0 0.5 -1.20618 0.0124824
1.00005 0.5 -0.674378 0.00361362
1.00005 0.5 0.674378 0.00350043
0.0124865 0.5 1.20618 0.0126214
0.0124865 0.5 -1.20618 0.0133392
1.16179 0.5 -0.334552 0.00217239
1.16179 0.5 0.334552 0.00215934
0.715434 0.5 0.975 0.00667429
0.715434 0.5 -0.975 0.00717711
0.151149 0.5 -1.2 0.0166674
0.151149 0.5 1.2 0.0155703
1.20942 0.5 0.0322645 0.00185526
1.20942 0.5 -0.0322645 0.00185775
1.17463 0.5 -0.298209 0.00208923
1.17463 0.5 0.298209 0.00208204
1.20942 0.5 -0.0967935 0.00186471
1.20942 0.5 0.0967935 0.00186434
0.350249 0.5 -1.1625 0.0138289
0.350249 0.5 1.1625 0.0127497
0.67013 0.5 1.0125 0.00734443
0.67013 0.5 -1.0125 0.00789762
1.11376 0.5 0.485183 0.00250553
1.11376 0.5 -0.485183 0.00254514
1.18772 0.5 0.262456 0.00201268
1.18772 0.5 -0.262456 0.00201602
1.10076 0.5 -0.524714 0.00264339
1.10076 0.5 0.524714 0.00260525
1.20942 0.5 -0.161322 0.00187968
1.20942 0.5 0.161322 0.00188427
1.08112 0.5 -0.567554 0.00280048
1.08112 0.5 0.567554 0.00274781
0.624316 0.5 -1.05 0.00878902
0.624316 0.5 1.05 0.00816451
1.13882 0.5 -0.442383 0.00239357
1.13882 0.5 0.442383 0.00236007
1.05695 0.5 0.6133 0.0029419
1.05695 0.5 -0.6133 0.0030163
1.16179 0.5 -0.401463 0.00224566
1.16179 0.5 0.401463 0.0022242
0.574156 0.5 -1.0875 0.00970813
0.574156 0.5 1.0875 0.00902006
1.17463 0.5 0.364477 0.00213824
1.17463 0.5 -0.364477 0.00215166
1.20942 0.5 -0.225851 0.00191145
1.20942 0.5 0.225851 0.00191272
1.23036 0.5 -1.32995e-17 0.00178881
1.2294 0.5 0.0634819 0.00179486
1.04168 0.5 -0.656246 0.00325204
1.04168 0.5 0.656246 0.00314039
1.23036 0.5 -0.0634819 0.00179233
1.18772 0.5 0.32807 0.00206094
1.18772 0.5 -0.32807 0.00206836
0.288069 0.5 -1.2 0.0148534
0.288069 0.5 1.2 0.0136997
1.23036 0.5 -0.126964 0.00180163
1.23036 0.5 0.126964 0.00180531
0.075776 0.5 -1.2375 0.0177402
0.075776 0.5 1.2375 0.0167592
0.523432 0.5 -1.125 0.0108041
0.523432 0.5 1.125 0.0100018
1.0271 0.5 -0.69963 0.00350269
1.0271 0.5 0.69963 0.00334704
1.24274 0.5 0.0314313 0.00174957
1.24274 0.5 -0.0314313 0.00175076
1.20942 0.5 0.29038 0.00195205
1.20942 0.5 -0.29038 0.00195272
1.11376 0.5 -0.554494 0.00264755
1.11376 0.5 0.554494 0.00261169
1.23036 0.5 -0.190445 0.00182291
1.23036 0.5 0.190445 0.00182814
1.24274 0.5 -0.0942942 0.00175584
1.24274 0.5 0.0942942 0.00175739
1.13882 0.5 0.510442 0.00245277
1.13882 0.5 -0.510442 0.00247489
0.969689 0.5 -0.7875 0.00413106
0.969689 0.5 0.7875 0.0039196
1.00005 0.5 -0.749309 0.00384436
1.00005 0.5 0.749309 0.0036586
0.939201 0.5 -0.825 0.00444402
0.939201 0.5 0.825 0.00417024
0.90582 0.5 0.8625 0.0044573
0.90582 0.5 -0.8625 0.0047879
1.17463 0.5 -0.430746 0.00222833
1.17463 0.5 0.430746 0.0022073
1.10076 0.5 -0.594676 0.00276969
1.10076 0.5 0.594676 0.00272581
1.18772 0.5 -0.393684 0.00213515
1.18772 0.5 0.393684 0.00212121
1.24274 0.5 -0.157157 0.0017674
1.24274 0.5 0.157157 0.00177587
1.16179 0.5 -0.468373 0.00232511
1.16179 0.5 0.468373 0.00230367
0.467897 0.5 -1.1625 0.0119252
0.467897 0.5 1.1625 0.0109971
0.872064 0.5 -0.9 0.00525565
0.872064 0.5 0.9 0.00487291
1.25401 0.5 2.08167e-17 0.00171897
0.835106 0.5 0.9375 0.00529826
0.835106 0.5 -0.9375 0.00574033
1.25401 0.5 -0.0622994 0.00172189
1.25401 0.5 0.0622994 0.00172186
1.08112 0.5 -0.638498 0.00295596
1.08112 0.5 0.638498 0.00287161
1.23036 0.5 -0.253927 0.0018566
1.23036 0.5 0.253927 0.0018598
0.219992 0.5 1.2375 0.0146906
0.219992 0.5 -1.2375 0.0158935
1.25309 0.5 0.121964 0.00173497
1.05695 0.5 0.685452 0.00305935
1.05695 0.5 -0.685452 0.00320386
0.797732 0.5 0.975 0.00581549
0.797732 0.5 -0.975 0.0063139
1.25401 0.5 -0.124599 0.0017295
1.20942 0.5 -0.354909 0.00200732
1.20942 0.5 0.354909 0.00200257
1.24274 0.5 -0.220019 0.00179554
1.24274 0.5 0.220019 0.00180181
0.756814 0.5 -1.0125 0.00692141
0.756813 0.5 1.0125 0.00635808
1.25401 0.5 -0.186898 0.0017484
1.25401 0.5 0.186898 0.00175647
0.411736 0.5 -1.2 0.0130636
0.411736 0.5 1.2 0.0119924
0 0.5 -1.26882 0.0126085
0 0.5 1.26882 0.011999
0.0124865 0.5 1.26882 0.0127996
0.0124865 0.5 -1.26882 0.0134652
0.715434 0.5 -1.05 0.00764376
0.715434 0.5 1.05 0.00701776
1.23036 0.5 -0.31741 0.0019008
1.23036 0.5 0.31741 0.00190177
1.04168 0.5 -0.729162 0.00346782
1.04168 0.5 0.729162 0.00328629
1.18772 0.5 -0.459298 0.00221005
1.18772 0.5 0.459298 0.00219528
1.24274 0.5 -0.282882 0.00183146
1.24274 0.5 0.282882 0.00183709
0 0.5 -1.275 0.0126216
0 0.5 1.275 0.0120186
1.27472 0.5 -0.0306319 0.00165205
1.27472 0.5 0.0306319 0.00165106
1.17463 0.5 0.497015 0.00229182
1.17463 0.5 -0.497015 0.00230399
1.11376 0.5 -0.623806 0.0027865
1.11376 0.5 0.623806 0.0027337
1.13882 0.5 -0.578501 0.00258878
1.13882 0.5 0.578501 0.00255764
0.67013 0.5 -1.0875 0.00840809
0.67013 0.5 1.0875 0.00770641
1.27472 0.5 -0.0918959 0.00165566
1.27472 0.5 0.0918959 0.00167113
1.25401 0.5 -0.249197 0.00177912
1.25401 0.5 0.249197 0.00178611
1.16179 0.5 -0.535284 0.00241563
1.16179 0.5 0.535284 0.00239562
1.20942 0.5 -0.419438 0.0020762
1.20942 0.5 0.419438 0.00206479
0 0.5 -1.28118 0.0126354
0 0.5 1.28118 0.0120388
0.0124865 0.5 1.28118 0.0128537
0.0124865 0.5 -1.28118 0.0135025
1.27472 0.5 0.15316 0.00167549
1.27472 0.5 -0.15316 0.00166476
0.151149 0.5 -1.275 0.0169299
0.151149 0.5 1.275 0.015849