# nutMean  POINT_DATA 63140
# x  y  z  nutMean
0 0.1 0 0.00531427
0 0.1 -0.0179898 0.00532117
0 0.1 0.0179898 0.00530707
0.0363518 0.1 0.0179898 0.0121625
0.0363518 0.1 -0.0179898 0.0119935
0 0.1 -0.0570102 0.00534871
0 0.1 0.0570102 0.00530056
0.0363518 0.1 0.0570102 0.012156
0.0363518 0.1 -0.0570102 0.012021
0 0.1 -0.075 0.00536738
0 0.1 0.075 0.00530158
0.075776 0.1 -0.0375 0.0190402
0.075776 0.1 0.0375 0.0193904
0 0.1 -0.0929898 0.00538647
0 0.1 0.0929898 0.00530223
0.0363518 0.1 -0.0929898 0.0114572
0.0363518 0.1 0.0929898 0.0116324
0 0.1 -0.13201 0.00542716
0 0.1 0.13201 0.00531373
0.075776 0.1 -0.1125 0.0178667
0.075776 0.1 0.1125 0.0183307
0.0363518 0.1 -0.13201 0.0114978
0.0363518 0.1 0.13201 0.0116439
0 0.1 -0.15 0.00544641
0 0.1 0.15 0.00532343
0.150379 0.1 -2.22623e-17 0.0181802
0 0.1 -0.16799 0.00546713
0 0.1 0.16799 0.00533343
0.150379 0.1 -0.075 0.0170691
0.150379 0.1 0.075 0.0178922
0.0363518 0.1 -0.16799 0.0107595
0.0363518 0.1 0.16799 0.01079
0.075776 0.1 -0.1875 0.0163725
0.075776 0.1 0.1875 0.0165734
0 0.1 -0.20701 0.00549825
0 0.1 0.20701 0.00535554
0.0363518 0.1 -0.20701 0.0107906
0.0363518 0.1 0.20701 0.0108122
0.150379 0.1 -0.15 0.0153391
0.150379 0.1 0.15 0.0163018
0.219993 0.1 -0.0375 0.0171515
0.219993 0.1 0.0375 0.0172195
0 0.1 -0.225 0.00550858
0 0.1 0.225 0.00536624
0 0.1 -0.24299 0.00552056
0 0.1 0.24299 0.00537813
0.0363518 0.1 0.24299 0.00997914
0.0363518 0.1 -0.24299 0.0101988
0.219993 0.1 -0.1125 0.0143182
0.219993 0.1 0.1125 0.0166944
0.150379 0.1 -0.225 0.0143391
0.150379 0.1 0.225 0.0144181
0.075776 0.1 -0.2625 0.0151963
0.075776 0.1 0.2625 0.0148818
0 0.1 -0.28201 0.00553094
0 0.1 0.28201 0.00539365
0.0363518 0.1 -0.28201 0.0102091
0.0363518 0.1 0.28201 0.00999465
0.287374 0.1 -2.89121e-19 0.0137271
0.219992 0.1 0.1875 0.0136826
0.219992 0.1 -0.1875 0.0129253
0.287374 0.1 -0.075 0.0129104
0.287374 0.1 0.075 0.0136252
0 0.1 -0.3 0.00553071
0 0.1 0.3 0.00539763
0 0.1 0.31799 0.00540275
0 0.1 -0.31799 0.00553129
0.0363518 0.1 -0.31799 0.00994674
0.0363518 0.1 0.31799 0.00944662
0.287374 0.1 0.15 0.0126671
0.287374 0.1 -0.15 0.0117501
0.150379 0.1 -0.3 0.0138392
0.150379 0.1 0.3 0.0133834
0.219993 0.1 0.2625 0.0126258
0.219993 0.1 -0.2625 0.0129737
0.075776 0.1 -0.3375 0.0146643
0.075776 0.1 0.3375 0.013778
0.350249 0.1 -0.0375 0.0103512
0.350249 0.1 0.0375 0.0104589
0 0.1 -0.35701 0.00552689
0 0.1 0.35701 0.00540275
0.0363518 0.1 -0.35701 0.00994234
0.0363518 0.1 0.35701 0.00944663
0.287374 0.1 -0.225 0.0113846
0.287374 0.1 0.225 0.011538
0.350249 0.1 -0.1125 0.0100411
0.350249 0.1 0.1125 0.0103834
0 0.1 -0.375 0.00552324
0 0.1 0.375 0.00539898
0 0.1 -0.39299 0.00551988
0 0.1 0.39299 0.00539574
0.0363518 0.1 -0.39299 0.00966619
0.0363518 0.1 0.39299 0.00917624
0.350249 0.1 -0.1875 0.00986196
0.350249 0.1 0.1875 0.0100978
0.219992 0.1 -0.3375 0.0126085
0.219992 0.1 0.3375 0.0123172
0.150379 0.1 0.375 0.0128644
0.150379 0.1 -0.375 0.0135976
0.411108 0.1 4.33681e-19 0.00860355
0.287374 0.1 -0.3 0.0113515
0.287374 0.1 0.3 0.0111455
0.411108 0.1 -0.075 0.00849119
0.411108 0.1 0.075 0.00862244
0.075776 0.1 -0.4125 0.0141019
0.075776 0.1 0.4125 0.0132271
0 0.1 0.43201 0.00538394
0 0.1 -0.43201 0.00550461
0.0363518 0.1 0.43201 0.00916444
0.0363518 0.1 -0.43201 0.00965092
0.411108 0.1 -0.15 0.00836609
0.411108 0.1 0.15 0.00854135
0.350249 0.1 -0.2625 0.00991117
0.350249 0.1 0.2625 0.00987196
0 0.1 -0.45 0.0054946
0 0.1 0.45 0.00537699
0.219992 0.1 0.4125 0.0121793
0.219992 0.1 -0.4125 0.013074
0 0.1 -0.46799 0.00548449
0 0.1 0.46799 0.00537017
0.411108 0.1 -0.225 0.00835436
0.411108 0.1 0.225 0.00842168
0.467897 0.1 -0.0375 0.00686186
0.467897 0.1 0.0375 0.00688528
0.0363518 0.1 0.46799 0.00891979
0.0363518 0.1 -0.46799 0.00938292
0.287374 0.1 -0.375 0.0114495
0.287374 0.1 0.375 0.0110708
0.150379 0.1 0.45 0.0130214
0.150379 0.1 -0.45 0.0137626
0.467897 0.1 0.1125 0.0069051
0.467897 0.1 -0.1125 0.00684519
0.350249 0.1 -0.3375 0.0100361
0.350249 0.1 0.3375 0.00987634
0.075776 0.1 -0.4875 0.0135578
0.075776 0.1 0.4875 0.0127305
0.467897 0.1 0.1875 0.00691321
0.467897 0.1 -0.1875 0.00684096
0 0.1 -0.50701 0.00545941
0 0.1 0.50701 0.00534934
0.0363518 0.1 -0.50701 0.00935784
0.0363518 0.1 0.50701 0.00889896
0.411108 0.1 0.3 0.00838396
0.411108 0.1 -0.3 0.00844803
0.522865 0.1 1.41031e-17 0.00592528
0 0.1 -0.525 0.00544668
0 0.1 0.525 0.00533731
0.522865 0.1 -0.075 0.00592203
0.522865 0.1 0.075 0.00594097
0.287374 0.1 0.45 0.0115616
0.287374 0.1 -0.45 0.0119625
0.219992 0.1 0.4875 0.0139414
0.219992 0.1 -0.4875 0.014317
0.467897 0.1 -0.2625 0.00692526
0.467897 0.1 0.2625 0.00692643
0.350249 0.1 -0.4125 0.0102025
0.350249 0.1 0.4125 0.0100082
0 0.1 -0.54299 0.0054332
0 0.1 0.54299 0.00532492
0.522865 0.1 0.15 0.00596316
0.522865 0.1 -0.15 0.00593565
0.0363518 0.1 0.54299 0.00868718
0.0363518 0.1 -0.54299 0.00911654
0.150379 0.1 -0.525 0.0138402
0.150379 0.1 0.525 0.0133415
0.411108 0.1 -0.375 0.00859104
0.411108 0.1 0.375 0.00846351
0.075776 0.1 -0.5625 0.0130643
0.075776 0.1 0.5625 0.012298
0.522865 0.1 -0.225 0.00598865
0.522865 0.1 0.225 0.00599216
0.574156 0.1 0.0375 0.00501228
0.574157 0.1 -0.0375 0.00501364
0.467897 0.1 -0.3375 0.00704259
0.467897 0.1 0.3375 0.00697883
0 0.1 -0.58201 0.00540694
0 0.1 0.58201 0.00529979
0.0363518 0.1 -0.58201 0.00909029
0.0363518 0.1 0.58201 0.00866204
0.574157 0.1 -0.1125 0.005038
0.574157 0.1 0.1125 0.00503364
0.287374 0.1 -0.525 0.0123765
0.287374 0.1 0.525 0.0122132
0 0.1 -0.6 0.0053958
0 0.1 0.6 0.00528879
0.350249 0.1 0.4875 0.0102524
0.350249 0.1 -0.4875 0.0104179
0.522865 0.1 -0.3 0.00608664
0.522865 0.1 0.3 0.00604247
0.219992 0.1 -0.5625 0.0143727
0.219992 0.1 0.5625 0.0143255
0.574156 0.1 -0.1875 0.00508713
0.574156 0.1 0.1875 0.0050724
0.411108 0.1 0.45 0.00864007
0.411108 0.1 -0.45 0.00877962
0 0.1 -0.61799 0.00538369
0 0.1 0.61799 0.00527705
0.150379 0.1 -0.6 0.0135739
0.150379 0.1 0.6 0.0131665
0.0363518 0.1 -0.61799 0.00887284
0.0363518 0.1 0.61799 0.00847566
0.467897 0.1 -0.4125 0.00720808
0.467897 0.1 0.4125 0.00710867
0.623803 0.1 2.34188e-17 0.00446493
0.623803 0.1 0.075 0.00447215
0.623803 0.1 -0.075 0.0044812
0.574156 0.1 0.2625 0.00512679
0.574156 0.1 -0.2625 0.00516905
0.623803 0.1 0.15 0.00450099
0.623803 0.1 -0.15 0.00452112
0.075776 0.1 0.6375 0.0119146
0.075776 0.1 -0.6375 0.0126167
0.522865 0.1 -0.375 0.00622104
0.522865 0.1 0.375 0.00613534
0 0.1 0.65701 0.00525513
0 0.1 -0.65701 0.0053606
0.0363518 0.1 0.65701 0.00845373
0.0363518 0.1 -0.65701 0.00884976
0.350249 0.1 0.5625 0.0105091
0.350249 0.1 -0.5625 0.0105801
0.623803 0.1 0.225 0.00454765
0.623803 0.1 -0.225 0.00458434
0.287374 0.1 -0.6 0.0124129
0.287374 0.1 0.6 0.0123428
0.574157 0.1 -0.3375 0.00527793
0.574157 0.1 0.3375 0.00520666
0.411108 0.1 0.525 0.00888227
0.411108 0.1 -0.525 0.00898231
0.67013 0.1 0.0375 0.00393202
0.67013 0.1 -0.0375 0.0039402
0.219992 0.1 -0.6375 0.0141728
0.219993 0.1 0.6375 0.0140328
0 0.1 -0.675 0.00535075
0 0.1 0.675 0.0052462
0.467897 0.1 -0.4875 0.00741802
0.467897 0.1 0.4875 0.00731149
0.67013 0.1 -0.1125 0.00397113
0.67013 0.1 0.1125 0.00394929
0.522865 0.1 0.45 0.00628559
0.522865 0.1 -0.45 0.00639732
0.150379 0.1 0.675 0.0128277
0.150379 0.1 -0.675 0.0132651
0.623803 0.1 0.3 0.00461541
0.623803 0.1 -0.3 0.00467687
0 0.1 -0.69299 0.00533991
0 0.1 0.69299 0.00523646
0.0363518 0.1 -0.69299 0.00866324
0.0363518 0.1 0.69299 0.00829442
0.67013 0.1 -0.1875 0.00402616
0.67013 0.1 0.1875 0.0039873
0.574156 0.1 0.4125 0.00531609
0.574157 0.1 -0.4125 0.00542471
0.714971 0.1 -2.8382e-17 0.00357503
0.075776 0.1 -0.7125 0.0122325
0.075776 0.1 0.7125 0.0115859
0.714971 0.1 -0.075 0.00359511
0.714971 0.1 0.075 0.0035777
0.67013 0.1 0.2625 0.00404276
0.67013 0.1 -0.2625 0.00409313
0.411108 0.1 -0.6 0.00915786
0.411108 0.1 0.6 0.00912198
0.350249 0.1 0.6375 0.0106681
0.350249 0.1 -0.6375 0.0106934
0.623803 0.1 0.375 0.00470704
0.623803 0.1 -0.375 0.00480209
0.714971 0.1 -0.15 0.00363709
0.714971 0.1 0.15 0.00360284
0.467897 0.1 -0.5625 0.00764239
0.467897 0.1 0.5625 0.00757925
0 0.1 -0.73201 0.00531977
0 0.1 0.73201 0.00521881
0.0363518 0.1 0.73201 0.00827678
0.0363518 0.1 -0.73201 0.0086431
0.287374 0.1 -0.675 0.0123688
0.287374 0.1 0.675 0.0122479
0.522865 0.1 -0.525 0.00660713
0.522865 0.1 0.525 0.00649504
0.219993 0.1 -0.7125 0.0139588
0.219992 0.1 0.7125 0.0136793
0.714971 0.1 -0.225 0.00369874
0.714971 0.1 0.225 0.00364691
0 0.1 0.75 0.00521184
0 0.1 -0.75 0.00531138
0.67013 0.1 -0.3375 0.0042057
0.67013 0.1 0.3375 0.00412399
0.574156 0.1 -0.4875 0.00560902
0.574157 0.1 0.4875 0.00547656
0.756813 0.1 0.0375 0.00321996
0.756814 0.1 -0.0375 0.00323103
0.150379 0.1 0.746002 0.0125076
0.150379 0.1 -0.75 0.0129904
0.756813 0.1 -0.1125 0.00326115
0.756813 0.1 0.1125 0.00323275
0 0.1 0.76799 0.00520403
0 0.1 -0.76799 0.00530201
0.0363518 0.1 0.76799 0.00814677
0.0363518 0.1 -0.76799 0.00848904
0.623803 0.1 -0.45 0.00495858
0.623803 0.1 0.45 0.0048327
0.714971 0.1 -0.3 0.00378539
0.714971 0.1 0.3 0.00371124
0.756814 0.1 -0.1875 0.00331302
0.756814 0.1 0.1875 0.00326538
0.67013 0.1 -0.4125 0.00433858
0.67013 0.1 0.4125 0.00422023
0.411108 0.1 0.675 0.00931102
0.411108 0.1 -0.675 0.00931528
0.467897 0.1 0.6375 0.00785425
0.467897 0.1 -0.6375 0.00784133
0.075776 0.1 0.7875 0.0113174
0.075776 0.1 -0.7875 0.011915
0.350249 0.1 -0.7125 0.0108012
0.350249 0.1 0.7125 0.0107546
0.522865 0.1 -0.6 0.00683293
0.522865 0.1 0.6 0.00674472
0.797314 0.1 -3.59473e-17 0.00297005
0.287374 0.1 0.746002 0.0121553
0.797314 0.1 -0.075 0.00298976
0.797314 0.1 0.075 0.00297003
0.756814 0.1 -0.2625 0.00338573
0.756814 0.1 0.2625 0.00331574
0.287374 0.1 -0.75 0.0123297
0.574156 0.1 -0.5625 0.00583058
0.574156 0.1 0.5625 0.00568571
0 0.1 0.80701 0.00519055
0 0.1 -0.80701 0.00528524
0.714971 0.1 -0.375 0.00390009
0.714971 0.1 0.375 0.00379727
0.0363518 0.1 0.80701 0.00813329
0.0363518 0.1 -0.80701 0.00847227
0.797314 0.1 -0.15 0.00302868
0.797314 0.1 0.15 0.0029905
0.623803 0.1 -0.525 0.00514919
0.623803 0.1 0.525 0.0050022
0.219992 0.1 0.7875 0.0133704
0.219992 0.1 -0.7875 0.0137678
0.149792 0.1 0.80701 0.0123105
0 0.1 0.825 0.00518565
0 0.1 -0.825 0.00527863
0.797314 0.1 -0.225 0.0030885
0.797314 0.1 0.225 0.00302901
0.756813 0.1 -0.3375 0.00348025
0.756813 0.1 0.3375 0.00338623
0.67013 0.1 0.4875 0.00435743
0.67013 0.1 -0.4875 0.00450124
0.835106 0.1 -0.0375 0.00272757
0.835106 0.1 0.0375 0.00271634
0.150379 0.1 -0.825 0.0127582
0.835106 0.1 -0.1125 0.00275404
0.835106 0.1 0.1125 0.0027258
0 0.1 -0.84299 0.00527103
0 0.1 0.84299 0.00517988
0.0363518 0.1 -0.84299 0.00834906
0.0363518 0.1 0.84299 0.00803255
0.714971 0.1 -0.45 0.00404046
0.714971 0.1 0.45 0.0039074
0.411108 0.1 0.746002 0.00947619
0.797314 0.1 -0.3 0.00316665
0.797314 0.1 0.3 0.0030852
0.467897 0.1 -0.7125 0.0080447
0.467897 0.1 0.7125 0.00808571
0.522865 0.1 0.675 0.00700248
0.522865 0.1 -0.675 0.0070717
0.411108 0.1 -0.75 0.00949522
0.835106 0.1 -0.1875 0.00280137
0.835107 0.1 0.1875 0.00275294
0.286844 0.1 0.80701 0.0120548
0.574156 0.1 0.6375 0.00593462
0.574157 0.1 -0.6375 0.006087
0.350249 0.1 -0.7875 0.0109265
0.350249 0.1 0.7875 0.0108221
0.756813 0.1 -0.4125 0.00359964
0.756814 0.1 0.4125 0.00348256
0.623803 0.1 -0.6 0.00537423
0.623803 0.1 0.6 0.00521122
0.075776 0.1 0.8625 0.0111091
0.075776 0.1 -0.8625 0.011661
0.871687 0.1 -3.2767e-18 0.00253231
0.287374 0.1 -0.825 0.0123115
0.871687 0.1 -0.075 0.00255019
0.871687 0.1 0.075 0.00253064
0.67013 0.1 -0.5625 0.00469603
0.67013 0.1 0.5625 0.00452977
0.835106 0.1 0.2625 0.00279699
0.835106 0.1 -0.2625 0.00286887
0.797314 0.1 -0.375 0.00326643
0.797314 0.1 0.375 0.00316265
0 0.1 -0.88201 0.00525808
0 0.1 0.88201 0.00517071
0.0363518 0.1 0.88201 0.00802339
0.0363518 0.1 -0.88201 0.00833611
0.871687 0.1 0.15 0.00254701
0.871687 0.1 -0.15 0.00258521
0.714971 0.1 0.525 0.00404911
0.714971 0.1 -0.525 0.00421023
0.219993 0.1 0.8625 0.0131363
0.219992 0.1 -0.8625 0.0135956
0 0.1 0.9 0.00516791
0 0.1 -0.9 0.0052534
0.756813 0.1 0.4875 0.00359375
0.756814 0.1 -0.4875 0.00374666
0.871687 0.1 0.225 0.0025798
0.871687 0.1 -0.225 0.00263981
0.835106 0.1 -0.3375 0.00294705
0.835106 0.1 0.3375 0.00285707
0.41063 0.1 0.80701 0.009572
0.90582 0.1 -0.0375 0.00235319
0.905821 0.1 0.0375 0.00234173
0.522865 0.1 0.746002 0.00725919
0.150379 0.1 0.9 0.0120633
0.90582 0.1 0.1125 0.00234832
0.905821 0.1 -0.1125 0.00237564
0.522865 0.1 -0.75 0.00734327
0.574156 0.1 0.7125 0.00620976
0.574156 0.1 -0.7125 0.00637873
0.797314 0.1 -0.45 0.00339221
0.797314 0.1 0.45 0.00325863
0.467897 0.1 -0.7875 0.00832149
0.467897 0.1 0.7875 0.00828588
0.150379 0.1 -0.903998 0.0126055
0 0.1 0.91799 0.00516421
0 0.1 -0.91799 0.00524771
0.0363518 0.1 0.91799 0.00795032
0.0363518 0.1 -0.91799 0.00824074
0.623803 0.1 0.675 0.005453
0.623803 0.1 -0.675 0.00563346
0.411108 0.1 -0.825 0.00971716
0.871687 0.1 0.3 0.00262824
0.871687 0.1 -0.3 0.00270741
0.67013 0.1 -0.6375 0.00492435
0.67013 0.1 0.6375 0.00473691
0.90582 0.1 -0.1875 0.00241955
0.90582 0.1 0.1875 0.00237073
0.350249 0.1 0.8625 0.0109072
0.350249 0.1 -0.8625 0.0110762
0.835106 0.1 -0.4125 0.0030545
0.835106 0.1 0.4125 0.00294034
0.714971 0.1 -0.6 0.0044109
0.714971 0.1 0.6 0.00422503
0.93886 0.1 -1.15648e-17 0.00224288
0.075776 0.1 0.9375 0.0109579
0.075776 0.1 -0.9375 0.0114642
0.93886 0.1 0.075 0.00224084
0.93886 0.1 -0.075 0.0022584
0.756813 0.1 0.5625 0.00374073
0.756814 0.1 -0.5625 0.00392186
0.905821 0.1 -0.2625 0.00247933
0.905821 0.1 0.2625 0.00240843
0.287374 0.1 0.9 0.0119785
0.287374 0.1 -0.903998 0.0122885
0.871687 0.1 0.375 0.00269469
0.871687 0.1 -0.375 0.00279581
0.93886 0.1 -0.15 0.00228911
0.93886 0.1 0.15 0.00225481
0.797314 0.1 0.525 0.00337826
0.797314 0.1 -0.525 0.00354388
0 0.1 0.95701 0.00515939
0 0.1 -0.95701 0.00523884
0.0363518 0.1 0.95701 0.0079455
0.0363518 0.1 -0.95701 0.00823187
0.522433 0.1 0.80701 0.00745155
0.219992 0.1 0.9375 0.0129521
0.219992 0.1 -0.9375 0.0134531
0.93886 0.1 0.225 0.00228336
0.93886 0.1 -0.225 0.00233701
0.90582 0.1 0.3375 0.00246052
0.905821 0.1 -0.3375 0.00254457
0.835106 0.1 -0.4875 0.00318423
0.835107 0.1 0.4875 0.00303389
0.969689 0.1 -0.0375 0.00214531
0.969689 0.1 0.0375 0.00213565
0.61613 0.1 0.75 0.00572026
0.574156 0.1 -0.7875 0.00669097
0.574156 0.1 0.7875 0.00650431
0 0.1 0.975 0.00515869
0 0.1 -0.975 0.00523617
0.623803 0.1 -0.75 0.00592325
0.969689 0.1 -0.1125 0.00216391
0.969689 0.1 0.1125 0.00214201
0.522865 0.1 -0.825 0.00764593
0.67013 0.1 0.7125 0.00497425
0.67013 0.1 -0.7125 0.00518571
0.871687 0.1 -0.45 0.00291123
0.871687 0.1 0.45 0.00277802
0.467897 0.1 0.8625 0.008511
0.467897 0.1 -0.8625 0.00865113
0.714971 0.1 -0.675 0.00464457
0.714971 0.1 0.675 0.00443197
0.93886 0.1 -0.3 0.00239725
0.93886 0.1 0.3 0.00232582
0.150379 0.1 0.975 0.0119202
0.150379 0.1 -0.975 0.0124239
0.969689 0.1 -0.1875 0.00220189
0.969689 0.1 0.1875 0.00216252
0.411108 0.1 0.9 0.00977837
0.756813 0.1 0.6375 0.00391887
0.756814 0.1 -0.6375 0.00412692
0.990306 0.1 -2.19732e-17 0.00205831
0 0.1 0.99299 0.00515703
0 0.1 -0.99299 0.00523247
0.411108 0.1 -0.903998 0.00990815
0.990306 0.1 -0.075 0.00207194
0.990306 0.1 0.075 0.00205681
0.0363518 0.1 0.99299 0.00789694
0.0363518 0.1 -0.99299 0.00816213
0.90582 0.1 -0.4125 0.00264753
0.905821 0.1 0.4125 0.00253117
0.797314 0.1 -0.6 0.00372364
0.797314 0.1 0.6 0.00352941
0.350249 0.1 0.9375 0.011012
0.350249 0.1 -0.9375 0.01124
0.990306 0.1 0.15 0.00206958
0.990306 0.1 -0.15 0.00209932
0.969689 0.1 -0.2625 0.00225201
0.969689 0.1 0.2625 0.00219617
0.835106 0.1 -0.5625 0.0033395
0.835106 0.1 0.5625 0.00316129
0.93886 0.1 -0.375 0.00248308
0.93886 0.1 0.375 0.00238296
0.075776 0.1 1.0125 0.0108574
0.075776 0.1 -1.0125 0.0113201
0.990306 0.1 -0.225 0.0021418
0.990306 0.1 0.225 0.00209575
0.287374 0.1 0.975 0.01196
0.287374 0.1 -0.975 0.012336
0.871687 0.1 -0.525 0.00304959
0.871687 0.1 0.525 0.00288212
1.02149 0.1 -0.0369628 0.00190627
1.02149 0.1 0.0369628 0.00189967
0.969689 0.1 -0.3375 0.00231791
0.969689 0.1 0.3375 0.00224267
1.02149 0.1 -0.110888 0.00192445
1.02149 0.1 0.110888 0.00190394
0.90582 0.1 0.4875 0.00261727
0.90582 0.1 -0.4875 0.00276921
0.623803 0.1 0.819003 0.00588831
0 0.1 1.03201 0.00515648
0 0.1 -1.03201 0.00522745
0.0363518 0.1 1.03201 0.00789639
0.0363518 0.1 -1.03201 0.0081571
0.67013 0.1 -0.7875 0.00548057
0.67013 0.1 0.7875 0.00523738
0.623803 0.1 -0.825 0.00623174
0.990306 0.1 -0.3 0.00219919
0.990306 0.1 0.3 0.00213472
0.219992 0.1 -1.0125 0.013359
0.219993 0.1 1.0125 0.0128169
0.574156 0.1 0.8625 0.00681915
0.574157 0.1 -0.8625 0.00698405
0.714971 0.1 -0.75 0.00491314
0.714971 0.1 0.75 0.00466683
1.02149 0.1 0.184814 0.00192151
1.02149 0.1 -0.184814 0.001956
0.756814 0.1 -0.7125 0.0043675
0.756814 0.1 0.7125 0.00412502
0.522865 0.1 0.9 0.00779687
0.93886 0.1 -0.45 0.00259466
0.93886 0.1 0.45 0.00245644
1.04168 0.1 0 0.00182863
1.04168 0.1 -0.0729162 0.00183989
1.04168 0.1 0.0729162 0.00182739
0.522865 0.1 -0.903998 0.00791307
0.797314 0.1 -0.675 0.00393436
0.797314 0.1 0.675 0.00370778
0.467897 0.1 0.9375 0.00878165
0.467897 0.1 -0.9375 0.00896973
0 0.1 1.05 0.00515783
0 0.1 -1.05 0.00522652
0.835106 0.1 -0.6375 0.00352364
0.835106 0.1 0.6375 0.00331405
1.04168 0.1 -0.145832 0.00186202
1.04168 0.1 0.145832 0.00183646
1.02149 0.1 -0.25874 0.00200091
1.02149 0.1 0.25874 0.00195076
0.969689 0.1 -0.4125 0.00242705
0.969689 0.1 0.4125 0.00230216
0.411108 0.1 0.975 0.00996907
0.411108 0.1 -0.975 0.0101893
0.871687 0.1 -0.6 0.00321508
0.871687 0.1 0.6 0.00301327
1.0579 0.1 -0.0360525 0.00177731
1.0579 0.1 0.0360525 0.00177225
0.990306 0.1 -0.375 0.00228309
0.990306 0.1 0.375 0.00218651
0.150379 0.1 1.05 0.0118257
0.150379 0.1 -1.05 0.012328
1.0579 0.1 0.108157 0.00177467
1.0579 0.1 -0.108157 0.00179332
1.04168 0.1 -0.218749 0.00189562
1.04168 0.1 0.218749 0.00185649
0.90582 0.1 -0.5625 0.00291622
0.90582 0.1 0.5625 0.00272696
0 0.1 -1.06799 0.00522451
0 0.1 1.06799 0.00515815
0.0363518 0.1 -1.06799 0.00810875
0.0363518 0.1 1.06799 0.00787009
0.350249 0.1 1.0125 0.0111401
0.350249 0.1 -1.0125 0.0113878
1.0579 0.1 -0.180262 0.00181745
1.0579 0.1 0.180262 0.0017871
1.02149 0.1 -0.332665 0.00206484
1.02149 0.1 0.332665 0.00199229
0.93886 0.1 -0.525 0.00272255
0.93886 0.1 0.525 0.00254812
1.08012 0.1 5.49329e-18 0.00171337
1.04168 0.1 -0.291665 0.00194388
1.04168 0.1 0.291665 0.00188705
1.08012 0.1 0.0709941 0.00171243
1.08012 0.1 -0.0709941 0.00172283
0.969689 0.1 -0.4875 0.00253962
0.96969 0.1 0.4875 0.00238008
1.0579 0.1 0.252367 0.00180853
1.0579 0.1 -0.252367 0.00185326
0.990306 0.1 -0.45 0.00238849
0.990306 0.1 0.45 0.00225407
0.287374 0.1 -1.05 0.0123742
0.287374 0.1 1.05 0.0119782
0.714971 0.1 0.821002 0.00489954
1.08012 0.1 -0.141988 0.00174113
1.08012 0.1 0.141988 0.00171953
0.075776 0.1 1.0875 0.0108028
0.075776 0.1 -1.0875 0.0112201
0.714971 0.1 -0.825 0.00521773
0.756813 0.1 -0.7875 0.00464544
0.756814 0.1 0.7875 0.00435873
0.67013 0.1 -0.8625 0.00581368
0.67013 0.1 0.8625 0.0055251
0.797314 0.1 -0.75 0.00417945
0.797314 0.1 0.75 0.00391293
0.623803 0.1 0.9 0.00631926
0.835106 0.1 -0.7125 0.00373744
0.835106 0.1 0.7125 0.00349134
0.623803 0.1 -0.903998 0.00651706
0.574156 0.1 0.9375 0.00714027
0.574156 0.1 -0.9375 0.00732024
1.02149 0.1 -0.406591 0.00214919
1.02149 0.1 0.406591 0.00204615
1.08012 0.1 -0.212982 0.00176848
1.08012 0.1 0.212982 0.0017355
1.10076 0.1 -0.0349809 0.00165917
1.10076 0.1 0.0349809 0.00165558
0.871687 0.1 -0.675 0.00341069
0.871687 0.1 0.675 0.00317058
1.04168 0.1 -0.364581 0.00200911
1.04168 0.1 0.364581 0.0019284
1.10076 0.1 -0.104943 0.00167264
1.10076 0.1 0.104943 0.00165823
0.522865 0.1 0.975 0.00807879
0.522865 0.1 -0.975 0.00828251
1.0579 0.1 -0.324472 0.00190438
1.0579 0.1 0.324472 0.00183959
0 0.1 -1.10701 0.00522306
0 0.1 1.10701 0.00516156
0.0363518 0.1 1.10701 0.0078735
0.0363518 0.1 -1.10701 0.0081073
0.90582 0.1 0.6375 0.00286219
0.905821 0.1 -0.6375 0.00309196
0.219992 0.1 1.0875 0.0127309
0.219992 0.1 -1.0875 0.0133111
0.93886 0.1 0.6 0.00266947
0.93886 0.1 -0.6 0.0028717
1.10076 0.1 -0.174905 0.0016931
1.10076 0.1 0.174905 0.00167018
0.467897 0.1 1.0125 0.00903866
0.467897 0.1 -1.0125 0.00926294
1.08012 0.1 -0.283976 0.00180831
1.08012 0.1 0.283976 0.00176001
1.11928 0.1 3.93204e-18 0.00161572
0.990306 0.1 -0.525 0.00250407
0.990306 0.1 0.525 0.0023391
0.96969 0.1 -0.5625 0.00267024
0.969689 0.1 0.5625 0.00247336
1.11928 0.1 -0.0690357 0.0016235
1.11928 0.1 0.0690357 0.00161527
0 0.1 1.125 0.00516472
0 0.1 -1.125 0.00522391
0.411108 0.1 -1.05 0.0104118
0.411108 0.1 1.05 0.0101688
1.10076 0.1 0.244866 0.00168971
1.10076 0.1 -0.244866 0.00172406
1.11928 0.1 -0.138072 0.00163887
1.11928 0.1 0.138072 0.00162194
1.02149 0.1 0.480517 0.00211773
1.02149 0.1 -0.480517 0.00224901
1.0579 0.1 -0.396577 0.00196959
1.0579 0.1 0.396577 0.00188041
1.04168 0.1 -0.437497 0.00209209
1.04168 0.1 0.437497 0.00198309
0.150379 0.1 1.125 0.0117761
0.150379 0.1 -1.125 0.0122718
0.714971 0.1 0.88201 0.00492626
1.08012 0.1 0.354971 0.00179334
1.08012 0.1 -0.354971 0.00186119
1.11928 0.1 -0.207107 0.0016623
1.11928 0.1 0.207107 0.00163632
0.350249 0.1 -1.0875 0.0115279
0.350249 0.1 1.0875 0.0112956
0 0.1 1.14299 0.00516678
0 0.1 -1.14299 0.00522361
0.0363518 0.1 1.14299 0.00786354
0.0363518 0.1 -1.14299 0.00807694
1.14316 0.1 -0.0339211 0.00155826
1.14316 0.1 0.0339211 0.00155515
0.797314 0.1 0.821002 0.00414031
1.10076 0.1 -0.314829 0.0017678
1.10076 0.1 0.314829 0.00171784
0.797314 0.1 -0.825 0.00445881
0.756814 0.1 -0.8625 0.00495842
0.756814 0.1 0.8625 0.00461861
1.14316 0.1 -0.101763 0.00156883
1.14316 0.1 0.101763 0.00155748
0.835106 0.1 -0.7875 0.00398622
0.835106 0.1 0.7875 0.00369564
0.871687 0.1 -0.75 0.00362975
0.871687 0.1 0.75 0.00335478
0.67013 0.1 0.9375 0.00583938
0.67013 0.1 -0.9375 0.0061789
0.90582 0.1 -0.7125 0.0033009
0.905821 0.1 0.7125 0.0030266
0.714971 0.1 -0.903998 0.0055133
1.11928 0.1 0.276143 0.00165812
1.11928 0.1 -0.276143 0.0016965
1.14316 0.1 0.169605 0.00156713
1.14316 0.1 -0.169605 0.0015851
0.93886 0.1 -0.675 0.00304141
0.93886 0.1 0.675 0.00281671
1.15704 0.1 0 0.00152698
1.0579 0.1 0.468682 0.00193534
1.0579 0.1 -0.468682 0.00205321
0.623803 0.1 0.975 0.00663341
0.623803 0.1 -0.975 0.00690398
0.990306 0.1 0.6 0.00245601
0.990306 0.1 -0.6 0.00263833
1.15704 0.1 -0.0671479 0.00153337
1.15704 0.1 0.0671479 0.00152667
1.04168 0.1 -0.510414 0.00218153
1.04168 0.1 0.510414 0.00205436
0.969689 0.1 -0.6375 0.00281405
0.969689 0.1 0.6375 0.00262061
1.08012 0.1 0.425965 0.00183718
1.08012 0.1 -0.425965 0.00193015
0.287374 0.1 -1.125 0.0124403
0.287374 0.1 1.125 0.0120315
1.02149 0.1 -0.554443 0.00235327
1.02149 0.1 0.554443 0.00220823
0.574156 0.1 1.0125 0.00742115
0.574156 0.1 -1.0125 0.00764865
1.15704 0.1 -0.134296 0.00154577
1.15704 0.1 0.134296 0.00153241
0.075776 0.1 1.1625 0.0107818
0.075776 0.1 -1.1625 0.0111571
1.10076 0.1 -0.384791 0.0018223
1.10076 0.1 0.384791 0.00175393
1.14316 0.1 -0.237448 0.00161012
1.14316 0.1 0.237448 0.00158289
1.11928 0.1 -0.345179 0.00174169
1.11928 0.1 0.345179 0.00168763
0.522865 0.1 1.05 0.0083365
0.522865 0.1 -1.05 0.00859726
1.15704 0.1 -0.201444 0.00156478
1.15704 0.1 0.201444 0.00154446
1.1744 0.1 -0.0331401 0.0014936
1.1744 0.1 0.0331401 0.00149097
1.1744 0.1 -0.0994202 0.00150267
1.1744 0.1 0.0994202 0.00149309
0 0.1 1.18201 0.00517349
0 0.1 -1.18201 0.00522559
0.0363518 0.1 1.18201 0.00787025
0.0363518 0.1 -1.18201 0.00807891
0.219992 0.1 1.1625 0.0126953
0.219993 0.1 -1.1625 0.0132949
1.14316 0.1 0.30529 0.00160571
1.14316 0.1 -0.30529 0.00164524
0.467897 0.1 1.0875 0.00929989
0.467897 0.1 -1.0875 0.00957582
1.1744 0.1 -0.1657 0.001516
1.1744 0.1 0.1657 0.00150181
1.15704 0.1 -0.268592 0.00159266
1.15704 0.1 0.268592 0.0015626
1.0579 0.1 0.540787 0.0020066
1.0579 0.1 -0.540787 0.00213119
0.796996 0.1 0.88201 0.0043398
1.08012 0.1 -0.496959 0.00200436
1.08012 0.1 0.496959 0.00189466
1.10076 0.1 0.454752 0.0018009
1.10076 0.1 -0.454752 0.00189627
1.11928 0.1 -0.414214 0.00180119
1.11928 0.1 0.414214 0.00172574
1.04168 0.1 -0.58333 0.00228935
1.04168 0.1 0.58333 0.0021466
1.1744 0.1 -0.231981 0.00153706
1.1744 0.1 0.231981 0.00151536
0.871687 0.1 0.821002 0.00356107
0.411108 0.1 1.125 0.010386
0.411108 0.1 -1.125 0.0106359
1.19808 0.1 1.73472e-17 0.00144201
0.990306 0.1 0.675 0.0025925
0.990306 0.1 -0.675 0.00279106
1.02149 0.1 0.628368 0.00232767
1.02149 0.1 -0.628368 0.00249484
1.19808 0.1 -0.0650961 0.00144742
1.19808 0.1 0.0650961 0.00144165
0 0.1 1.2 0.00517811
0 0.1 -1.2 0.00522804
0.871687 0.1 -0.825 0.00388251
0.905821 0.1 -0.7875 0.00350623
0.90582 0.1 0.7875 0.00321774
0.835106 0.1 -0.8625 0.00426474
0.835106 0.1 0.8625 0.00392776
0.93886 0.1 -0.75 0.00323302
0.93886 0.1 0.75 0.00297921
1.14316 0.1 -0.373132 0.00169027
1.14316 0.1 0.373132 0.00163531
0.969689 0.1 0.7125 0.00276283
0.969689 0.1 -0.7125 0.0029655
1.15704 0.1 -0.33574 0.00162955
1.15704 0.1 0.33574 0.00158728
0.756813 0.1 0.9375 0.004905
0.756814 0.1 -0.9375 0.00531014
1.19808 0.1 0.130192 0.0014467
1.19808 0.1 -0.130192 0.00145746
0.797314 0.1 -0.903998 0.00473392
0.714971 0.1 0.975 0.00552942
0.714971 0.1 -0.975 0.0059147
0.150379 0.1 1.2 0.0117656
0.150379 0.1 -1.2 0.0122477
1.20938 0.1 -0.0322656 0.0014232
1.20938 0.1 0.0322656 0.00142046
1.1744 0.1 -0.298261 0.00156635
1.1744 0.1 0.298261 0.00153507
1.20938 0.1 -0.0967968 0.0014308
1.20938 0.1 0.0967968 0.00142247
1.19808 0.1 -0.195288 0.00147286
1.19808 0.1 0.195288 0.00145695
0.350249 0.1 1.1625 0.0114668
0.350249 0.1 -1.1625 0.0117123
0.67013 0.1 1.0125 0.00617925
0.67013 0.1 -1.0125 0.00651275
0 0.1 1.21799 0.0051816
0 0.1 -1.21799 0.00522928
0.0363518 0.1 -1.21799 0.00806205
0.0363518 0.1 1.21799 0.00787441
1.11928 0.1 -0.48325 0.00186644
1.11928 0.1 0.48325 0.00177542
1.10076 0.1 -0.524714 0.00196268
1.10076 0.1 0.524714 0.00186148
1.20938 0.1 0.161328 0.00143035
1.20938 0.1 -0.161328 0.0014422
1.08012 0.1 0.567953 0.00196801
1.08012 0.1 -0.567953 0.00209115
0.623803 0.1 1.05 0.0069261
0.623803 0.1 -1.05 0.00723437
1.0579 0.1 -0.612892 0.0022457
1.0579 0.1 0.612892 0.0020974
1.15704 0.1 -0.402888 0.00167856
1.15704 0.1 0.402888 0.00161884
1.14316 0.1 0.440974 0.0016734
1.14316 0.1 -0.440974 0.00175011
1.19808 0.1 -0.260384 0.00149512
1.19808 0.1 0.260384 0.00147208
1.2267 0.1 3.57064e-18 0.00138925
1.2267 0.1 -0.0636649 0.00139426
1.2267 0.1 0.0636649 0.00138869
1.1744 0.1 -0.364541 0.00160366
1.1744 0.1 0.364541 0.00156071
0.574156 0.1 1.0875 0.00766058
0.574156 0.1 -1.0875 0.00798617
1.20938 0.1 0.225859 0.00144227
1.20938 0.1 -0.225859 0.00146004
1.04168 0.1 -0.656246 0.00243116
1.04168 0.1 0.656246 0.00225142
1.2267 0.1 -0.12733 0.00140322
1.2267 0.1 0.12733 0.00139335
0.287374 0.1 1.2 0.0121097
0.287374 0.1 -1.2 0.0125457
1.02149 0.1 -0.702294 0.00266556
1.02149 0.1 0.702294 0.0024453
0.075776 0.1 -1.2375 0.0111219
0.075776 0.1 1.2375 0.0107898
0.871399 0.1 0.88201 0.00374445
0.522865 0.1 1.125 0.00860208
0.522865 0.1 -1.125 0.00888651
1.2267 0.1 -0.190994 0.0014171
1.2267 0.1 0.190994 0.00140274
1.19808 0.1 -0.32548 0.00152446
1.19808 0.1 0.32548 0.00149271
0.990306 0.1 -0.75 0.00297394
0.990306 0.1 0.75 0.0027378
1.24274 0.1 -0.0314313 0.00136042
1.24274 0.1 0.0314313 0.00135721
1.20938 0.1 -0.29039 0.00148424
1.20938 0.1 0.29039 0.0014594
1.24274 0.1 -0.0942942 0.0013668
1.24274 0.1 0.0942942 0.00135907
0.93886 0.1 0.821002 0.00315491
1.11928 0.1 -0.552285 0.00194165
1.11928 0.1 0.552285 0.00183769
1.15704 0.1 -0.470036 0.00173361
1.15704 0.1 0.470036 0.00165989
0.969689 0.1 -0.7875 0.00316694
0.96969 0.1 0.7875 0.0029158
0.93886 0.1 -0.825 0.00346183
0.90582 0.1 0.8625 0.00343939
0.905821 0.1 -0.8625 0.00378507
1.1744 0.1 -0.430821 0.00165476
1.1744 0.1 0.430821 0.00159278
1.10076 0.1 -0.594676 0.00205844
1.10076 0.1 0.594676 0.00193562
1.14316 0.1 -0.508816 0.00180766
1.14316 0.1 0.508816 0.00172338
1.24274 0.1 -0.157157 0.00137718
1.24274 0.1 0.157157 0.00136615
1.2267 0.1 -0.254659 0.00143671
1.2267 0.1 0.254659 0.00141651
0.467897 0.1 1.1625 0.00958543
0.467897 0.1 -1.1625 0.009839
1.08012 0.1 0.638947 0.0020553
1.08012 0.1 -0.638947 0.00220861
1.25511 0.1 -5.78241e-19 0.00133602
0.835106 0.1 -0.9375 0.00458735
0.835106 0.1 0.9375 0.00418843
0.871687 0.1 -0.903998 0.00414114
1.25511 0.1 0.0622446 0.001335
1.25511 0.1 -0.0622446 0.00134097
0.219992 0.1 1.2375 0.0127024
0.219992 0.1 -1.2375 0.0133107
0 0.1 -1.25701 0.00523445
0 0.1 1.25701 0.00519128
0.0363518 0.1 -1.25701 0.00806722
0.0363518 0.1 1.25701 0.00788409
0.797314 0.1 0.975 0.00469433
0.797314 0.1 -0.975 0.00512778
1.19808 0.1 -0.390576 0.00156526
1.19808 0.1 0.390576 0.0015188
1.0579 0.1 -0.684997 0.00238865
1.0579 0.1 0.684997 0.00219227
1.20938 0.1 -0.354921 0.00151545
1.20938 0.1 0.354921 0.00148186
1.25511 0.1 0.124489 0.00133913
1.25511 0.1 -0.124489 0.00134935
1.24274 0.1 -0.220019 0.00139302
1.24274 0.1 0.220019 0.00137694
0.756813 0.1 1.0125 0.00522501
0.756814 0.1 -1.0125 0.00568611
1.2267 0.1 -0.318324 0.00146249
1.2267 0.1 0.318324 0.00143532
0.411108 0.1 1.2 0.010596
0.411108 0.1 -1.2 0.0108183
1.25511 0.1 -0.186734 0.00136239
1.25511 0.1 0.186734 0.00134768
0.714971 0.1 1.05 0.0058562
0.714971 0.1 -1.05 0.00625165
1.04168 0.1 -0.729162 0.00260234
1.04168 0.1 0.729162 0.00236968
1.24274 0.1 0.282882 0.00139233
1.24274 0.1 -0.282882 0.00141373
0 0.1 1.275 0.00519742
0 0.1 -1.275 0.00523847
1.1744 0.1 0.497102 0.00163521
1.1744 0.1 -0.497102 0.00170444
1.15704 0.1 -0.537184 0.00179673
1.15704 0.1 0.537184 0.00171128
1.2756 0.1 -0.03061 0.00129838
1.2756 0.1 0.03061 0.00129449
0.67013 0.1 1.0875 0.00649182
0.67013 0.1 -1.0875 0.00684601
1.2756 0.1 -0.09183 0.00130429
1.2756 0.1 0.09183 0.00129584
1.25511 0.1 -0.248978 0.00138027
1.25511 0.1 0.248978 0.00136033
1.20938 0.1 0.419453 0.00150934
1.20938 0.1 -0.419453 0.00156293
1.11928 0.1 -0.621322 0.00204191
1.11928 0.1 0.621322 0.00191525
1.14316 0.1 -0.576659 0.00188683
1.14316 0.1 0.576659 0.00178416
1.19808 0.1 -0.455673 0.00161233
1.19808 0.1 0.455673 0.00155205
1.02149 0.1 0.776219 0.00259691
1.02149 0.1 -0.776219 0.00286933
0.150379 0.1 1.275 0.0117907
0.150379 0.1 -1.275 0.0122544
1.2756 0.1 -0.15305 0.00131448
1.2756 0.1 0.15305 0.00130197
1.2267 0.1 -0.381989 0.00149933