# pMean  POINT_DATA 91129
# x  y  z  pMean
0 0 0 0.226933
0 0.00368111 0 0.226612
0 0.00749587 0 0.225919
0 0.0114491 0 0.225236
0 0.0155459 0 0.224619
0 0.0197915 0 0.223965
0 0.0241911 0 0.223224
0 0.0287506 0 0.222406
0 0.0334755 0 0.22154
0 0.038372 0 0.220643
0 0.0434463 0 0.219727
0 0.0487048 0 0.218799
0 0.0541543 0 0.217876
0 0.0598016 0 0.216996
0 0.0656539 0 0.216186
0 0.0717187 0 0.215424
0.075776 0.00184055 0 0.226933
0.075776 0.00558849 0 0.226292
0.075776 0.00947248 -3.46945e-18 0.225546
0.075776 0.0134975 -3.46945e-18 0.224926
0.075776 0.0176687 3.46945e-18 0.224313
0 0.0780037 0 0.214666
0.075776 0.0219913 3.46945e-18 0.223617
0.075776 0.0264709 3.46945e-18 0.222831
0.075776 0.031113 -3.46945e-18 0.221982
0.075776 0.0359237 -3.46945e-18 0.221098
0 0.0845169 0 0.213892
0.075776 0.0409092 0 0.220189
0.075776 0.0460755 -3.46945e-18 0.219265
0 0.0912666 0 0.213104
0.075776 0.0514296 -3.46945e-18 0.218333
0.075776 0.0569779 0 0.217419
0 0.0982613 0 0.212304
0.075776 0.0627278 0 0.216572
0.075776 0.0686863 0 0.215799
0 0.10551 0 0.211492
0.075776 0.0748612 3.46945e-18 0.215049
0.075776 0.0812603 -3.46945e-18 0.214283
0 0.113022 0 0.210667
0.075776 0.0878918 3.46945e-18 0.213501
0 0.120806 0 0.209827
0.075776 0.0947639 3.46945e-18 0.212707
0.075776 0.101886 -3.46945e-18 0.211901
0 0.128874 0 0.208966
0.075776 0.109266 3.46945e-18 0.211083
0 0.137234 0 0.208088
0.075776 0.116914 3.46945e-18 0.210251
0 0.145897 0 0.207207
0.075776 0.12484 0 0.209402
0.151552 0 0 0.209915
0.151552 0.00368111 0 0.209792
0.151552 0.00749587 0 0.209556
0.151552 0.0114491 0 0.209369
0.151552 0.0155459 0 0.209217
0.151552 0.0197915 0 0.20904
0.075776 0.133054 0 0.208531
0.151552 0.0241911 0 0.208815
0.151552 0.0287506 0 0.208548
0 0.154876 0 0.206358
0.151552 0.0334755 0 0.208249
0.151552 0.038372 0 0.207931
0.151552 0.0434463 0 0.207598
0.151552 0.0487048 0 0.207254
0.075776 0.141566 0 0.207645
0.151552 0.0541543 0 0.206906
0.151552 0.0598016 0 0.206572
0 0.16418 0 0.20557
0.151552 0.0656539 0 0.206264
0.151552 0.0717187 0 0.205971
0.075776 0.150387 0 0.20677
0.151552 0.0780037 0 0.205671
0.151552 0.0845169 0 0.205354
0 0.173822 0 0.204852
0.075776 0.159528 0 0.205945
0.151552 0.0912666 0 0.20502
0.151552 0.0982613 0 0.204673
0 0.183814 0 0.204191
0.151552 0.10551 0 0.204315
0.075776 0.169001 3.46945e-18 0.205194
0.151552 0.113022 0 0.203946
0.151552 0.120806 0 0.203561
0 0.194169 0 0.20356
0.075776 0.178818 3.46945e-18 0.204511
0.151552 0.128874 0 0.203155
0.075776 0.188992 3.46945e-18 0.203871
0.151552 0.137234 0 0.202723
0 0.2049 0 0.202935
0.151552 0.145897 0 0.202274
0.075776 0.199535 0 0.203248
0 0.21602 0 0.202298
0.151552 0.154876 0 0.201827
0.219992 0.00184055 0 0.194207
0.219992 0.00558849 0 0.194322
0.219992 0.00947248 -3.46945e-18 0.19458
0.219992 0.0134975 3.46945e-18 0.194866
0.219992 0.0176687 0 0.195134
0.219992 0.0219913 0 0.195391
0.219993 0.0264709 -3.46945e-18 0.195639
0.219992 0.031113 -3.46945e-18 0.195871
0.219992 0.0359238 3.46945e-18 0.196091
0.151552 0.16418 0 0.201399
0.075776 0.21046 0 0.202622
0.219992 0.0409092 3.46945e-18 0.196302
0.219992 0.0460755 0 0.196502
0.219993 0.0514296 -3.46945e-18 0.196691
0.219992 0.0569779 0 0.196867
0 0.227544 0 0.201625
0.219992 0.0627277 3.46945e-18 0.19703
0.219992 0.0686863 0 0.197178
0.151552 0.173822 0 0.200995
0.219992 0.0748612 3.46945e-18 0.19731
0.075776 0.221782 0 0.201974
0.219992 0.0812603 3.46945e-18 0.197424
0.219992 0.0878917 -3.46945e-18 0.197519
0.151552 0.183814 0 0.200605
7.47806e-17 0.239487 0 0.200898
0.219992 0.0947639 3.46945e-18 0.197597
0.219993 0.101886 3.46945e-18 0.197661
0.075776 0.233516 0 0.201276
0.219993 0.109266 0 0.197717
0.151552 0.194169 0 0.200216
0.219993 0.116914 0 0.197763
0 0.251863 0 0.200125
0.219993 0.12484 0 0.19779
0.151552 0.2049 0 0.199816
0.075776 0.245675 0 0.20052
0.219992 0.133054 3.46945e-18 0.197788
0.219992 0.141565 0 0.197751
0.151552 0.21602 0 0.199395
0 0.264688 0 0.199328
0.219992 0.150387 3.46945e-18 0.197687
0.075776 0.258275 3.46945e-18 0.19973
0.219992 0.159528 -3.46945e-18 0.197602
0.151552 0.227544 0 0.198941
0.219992 0.169001 3.46945e-18 0.197496
0 0.27798 0 0.198515
0.075776 0.271334 3.46945e-18 0.198925
0.151552 0.239487 3.70071e-18 0.198444
0.219992 0.178818 3.46945e-18 0.197369
0.288433 0 0 0.19821
0.288433 0.00368111 0 0.19825
0.288433 0.00749587 0 0.198376
0.288433 0.0114491 0 0.198558
0.288433 0.0155459 3.70071e-18 0.198749
0.288433 0.0197915 0 0.198938
0.288433 0.0241911 3.70071e-18 0.199123
0.288433 0.0287506 0 0.199304
0.219992 0.188991 0 0.197218
0.288433 0.0334755 0 0.199479
0.288433 0.038372 0 0.199648
0.288433 0.0434463 0 0.199812
7.47806e-17 0.291753 0 0.197686
0.288433 0.0487048 0 0.199968
0.288433 0.0541543 0 0.200117
0.151552 0.251863 0 0.197908
0.288433 0.0598016 3.70071e-18 0.200256
0.075776 0.284866 0 0.198105
0.288433 0.0656539 3.70071e-18 0.200387
0.219992 0.199534 0 0.19704
0.288433 0.0717187 0 0.200508
0.288433 0.0780037 0 0.200621
0.288433 0.0845169 0 0.200723
0.288433 0.0912666 0 0.200808
0.219992 0.21046 -3.46945e-18 0.196833
0.288433 0.0982613 0 0.200873
0.151552 0.264688 3.70071e-18 0.197342
0 0.306027 0 0.196831
0.288433 0.10551 0 0.20092
0.075776 0.29889 3.46945e-18 0.197266
0.288433 0.113022 0 0.200952
0.219993 0.221782 0 0.196597
0.288433 0.120806 0 0.200968
0.288433 0.128874 0 0.20097
0.151552 0.27798 0 0.196756
0.288433 0.137234 0 0.200954
0 0.320819 0 0.195941
0.219992 0.233515 -3.46945e-18 0.196329
0.075776 0.313423 -3.46945e-18 0.196397
0.288433 0.145897 0 0.200914
0.288433 0.154876 0 0.20085
0.151552 0.291753 0 0.196149
0.219993 0.245675 0 0.196028
0.288433 0.16418 0 0.200764
0 0.336148 0 0.195019
0.288433 0.173822 0 0.200656
0.075776 0.328484 -3.46945e-18 0.195485
0.219993 0.258275 -3.46945e-18 0.195692
0.151552 0.306027 0 0.195515
0.288433 0.183814 0 0.200524
0.288433 0.194169 0 0.200367
0.219992 0.271334 3.46945e-18 0.195325
0.350249 0.00184056 -3.46945e-18 0.201918
0.350249 0.00558849 0 0.201969
0.350249 0.00947248 3.46945e-18 0.202059
0.350249 0.0134975 0 0.202166
0.350249 0.0176687 0 0.202281
0.350249 0.0219913 0 0.202404
0.350249 0.0264708 3.46945e-18 0.202529
0.350249 0.031113 0 0.202656
0 0.352034 0 0.194101
0.350249 0.0359238 0 0.202783
0.075776 0.344091 0 0.194552
0.350249 0.0409091 0 0.202909
0.350249 0.0460756 3.46945e-18 0.203033
0.288433 0.2049 0 0.200182
0.350249 0.0514296 0 0.203152
0.151552 0.320819 0 0.194841
0.350249 0.0569779 0 0.203267
0.350249 0.0627277 3.46945e-18 0.203376
0.350249 0.0686863 3.46945e-18 0.20348
0.350249 0.0748612 3.46945e-18 0.203584
0.350249 0.0812603 0 0.203688
0.219992 0.284867 0 0.194936
0.288433 0.21602 0 0.199967
0.350249 0.0878917 0 0.203782
0.350249 0.094764 0 0.203856
0.350249 0.101886 0 0.203903
0.350249 0.109266 0 0.203926
0.288433 0.227544 0 0.199722
0.075776 0.360265 3.46945e-18 0.19365
0 0.368496 0 0.193205
0.151552 0.336148 0 0.194125
0.350249 0.116914 3.46945e-18 0.203929
0.219992 0.29889 0 0.194523
0.370854 0.0241911 1.54074e-33 0.205074
0.350249 0.12484 0 0.203922
0.350249 0.133054 0 0.203913
0.288433 0.239487 -9.25154e-19 0.199444
0.350249 0.141566 3.46945e-18 0.203895
0.350249 0.150387 3.46945e-18 0.203854
0.288433 0.251863 0 0.199132
0.219992 0.313423 0 0.194074
0.151552 0.352034 0 0.193384
0.075776 0.377027 0 0.19276
0.350249 0.159528 0 0.203788
0 0.385557 0 0.19229
0.350249 0.169001 0 0.203699
0.288433 0.264688 0 0.198785
0.350249 0.178818 0 0.203587
0.219992 0.328484 0 0.193577
0.350249 0.188992 0 0.20345
0.151552 0.368496 0 0.192627
0.288433 0.27798 3.70071e-18 0.198406
0.075776 0.394397 0 0.191819
0.350249 0.199535 0 0.203285
7.47806e-17 0.403236 0 0.191312
0.219992 0.344091 0 0.193024
0.350249 0.21046 -3.46945e-18 0.203093
0.288433 0.291753 0 0.197997
0.412065 9.08189e-19 3.08149e-33 0.207684
0.412065 0.00368111 -2.31298e-18 0.207702
0.412065 0.00749587 -2.31298e-18 0.207751
0.412065 0.0114491 -2.31298e-18 0.207818
0.412065 0.0155459 -2.31298e-18 0.207893
0.412065 0.0197915 0 0.20797
0.412065 0.0241911 -3.08149e-33 0.20805
0.412065 0.0264709 0 0.208091
0.412065 0.0287506 -2.31298e-18 0.208132
0.412065 0.0334755 -2.31298e-18 0.208217
0.412065 0.038372 -2.31298e-18 0.208304
0.151552 0.385557 0 0.191836
0.412065 0.0434463 0 0.208392
0.350249 0.221782 0 0.20287
0.412065 0.0487048 0 0.20848
0.412065 0.0541543 -3.08149e-33 0.208567
0.412065 0.0569779 0 0.20861
0.412065 0.0598016 -2.31298e-18 0.208653
0.412065 0.0656539 -2.31298e-18 0.208736
0.412065 0.0717187 -2.31298e-18 0.208816
0.075776 0.412396 -3.46945e-18 0.190804
0.412065 0.0780037 -2.31298e-18 0.208887
0.288433 0.306027 0 0.197554
0.412065 0.0845169 -2.31298e-18 0.208939
0.350249 0.233516 3.46945e-18 0.202616
0 0.421557 0 0.190268
0.412065 0.0912666 -2.31298e-18 0.208966
0.219992 0.360265 3.46945e-18 0.192419
0.412065 0.0982613 0 0.208971
0.412065 0.10551 0 0.208959
0.412065 0.113022 -2.31298e-18 0.208931
0.350249 0.245675 0 0.202327
0.412065 0.120806 0 0.208889
0.151552 0.403236 0 0.190989
0.288433 0.320819 0 0.197069
0.412065 0.128874 -2.31298e-18 0.208836
0.412065 0.137234 0 0.208773
0.350249 0.258275 -3.46945e-18 0.202003
0.219992 0.377026 0 0.191766
0.412065 0.145897 -2.31298e-18 0.208696
0.075776 0.431051 0 0.189732
0.412065 0.154876 -2.31298e-18 0.208601
0 0.440544 0 0.189176
0.288433 0.336148 0 0.196536
0.350249 0.271334 0 0.201642
0.412065 0.16418 -2.31298e-18 0.208486
0.412065 0.173822 -2.31298e-18 0.208351
0.151552 0.421557 0 0.190083
0.412065 0.183814 -2.31298e-18 0.208195
0.350249 0.284867 3.46945e-18 0.201243
0.219992 0.394397 0 0.191066
0.288433 0.352034 3.70071e-18 0.195953
0.412065 0.194169 0 0.208015
0.075776 0.450382 0 0.18862
0.412065 0.2049 -2.31298e-18 0.20781
0 0.46022 0 0.188046
0.350249 0.29889 3.46945e-18 0.200808
0.412065 0.21602 0 0.207577
0.151552 0.440544 0 0.189124
0.219993 0.412396 3.46945e-18 0.190316
0.467897 0.00184056 -3.46945e-18 0.213048
0.467897 0.00558849 0 0.213071
0.288433 0.368496 0 0.195319
0.467897 0.00947248 0 0.213107
0.467897 0.0134975 0 0.213147
0.467897 0.0176687 3.46945e-18 0.213187
0.467897 0.0219913 -3.46945e-18 0.213224
0.467897 0.0264709 3.46945e-18 0.213264
0.467897 0.0311131 3.46945e-18 0.213308
0.467897 0.0359238 -3.46945e-18 0.213356
0.467897 0.038372 0 0.214003
0.467897 0.0409092 3.46945e-18 0.213407
0.350249 0.313423 0 0.200334
0.467897 0.0460755 0 0.213463
0.467897 0.0514296 3.46945e-18 0.213521
0.412065 0.227544 -2.31298e-18 0.207316
0.467897 0.0569779 0 0.213582
0.467897 0.0627277 -3.46945e-18 0.213644
0.467897 0.0686863 3.46945e-18 0.213705
0.467897 0.0748612 0 0.213758
0.467897 0.0812603 0 0.213786
0.467897 0.0878918 3.46945e-18 0.213775
0.075776 0.470415 3.46945e-18 0.18747
0.412065 0.239487 -2.31298e-18 0.207023
0.467897 0.0947639 -3.46945e-18 0.213735
0.467897 0.101886 3.46945e-18 0.213683
0.350249 0.328483 0 0.199818
0.467897 0.109266 0 0.213623
0 0.48061 0 0.186875
0.288433 0.385557 0 0.194634
0.467897 0.116914 0 0.21355
0.412065 0.251863 -2.31298e-18 0.206697
0.219992 0.431051 0 0.189509
0.467897 0.12484 0 0.213463
0.151552 0.46022 0 0.188115
0.467897 0.133054 3.46945e-18 0.213361
0.467897 0.141566 3.46945e-18 0.213246
0.412065 0.264688 -2.31298e-18 0.206336
0.350249 0.344091 -3.46945e-18 0.199256
0.467897 0.150387 3.46945e-18 0.213119
0.467897 0.154876 0 0.213768
0.467897 0.159528 3.46945e-18 0.212978
0.288433 0.403236 0 0.193897
0.075776 0.491175 0 0.186278
0.412065 0.27798 -2.31298e-18 0.205937
0.467897 0.169001 0 0.21282
0.467897 0.178818 3.46945e-18 0.212644
0.219992 0.450382 0 0.188642
6.73026e-17 0.501741 3.70071e-18 0.185658
0.350249 0.360265 0 0.198644
0.151552 0.48061 0 0.187055
0.467897 0.188991 0 0.212448
0.412065 0.291753 0 0.2055
0.467897 0.199535 0 0.21223
0.288433 0.421557 0 0.193104
0.467897 0.21046 0 0.211988
0.412065 0.306027 0 0.205023
0.350249 0.377027 0 0.197979
0.467897 0.221782 3.46945e-18 0.21172
0.075776 0.51269 0 0.185037
0.219993 0.470415 3.46945e-18 0.187716
0.467897 0.227544 0 0.212261
0.412065 0.320819 -2.31298e-18 0.204502
0.467897 0.233515 0 0.211424
6.73026e-17 0.523639 3.70071e-18 0.184393
0.523729 0 0 0.219475
0.523729 0.00368111 0 0.219485
0.523729 0.00749587 -2.31298e-18 0.21951
0.523729 0.0114491 0 0.219541
0.523729 0.0155459 0 0.219572
0.523729 0.0197915 -2.31298e-18 0.219598
0.151552 0.501741 0 0.185941
0.523729 0.0241911 0 0.21962
0.523729 0.0287506 0 0.219644
0.523729 0.0334755 0 0.219671
0.523729 0.038372 -3.08149e-33 0.219702
0.523729 0.0434463 0 0.219734
0.523729 0.0487048 0 0.21977
0.523729 0.0541543 0 0.219809
0.288433 0.440544 0 0.192249
0.523729 0.0598016 0 0.21985
0.350249 0.394397 -3.46945e-18 0.197259
0.523729 0.0656539 0 0.219892
0.467897 0.245675 0 0.211096
0.523729 0.0717187 0 0.219927
0.523729 0.0780037 0 0.219941
0.523729 0.0845169 0 0.219918
0.523729 0.0912666 0 0.219862
0.412065 0.336148 0 0.203935
0.523729 0.0982613 0 0.219789
0.523729 0.10551 -2.31298e-18 0.219706
0.467897 0.258275 -3.46945e-18 0.210736
0.523729 0.113022 0 0.219612
0.523729 0.120806 -3.08149e-33 0.219506
0.219993 0.491176 0 0.18673
0.523729 0.12484 0 0.219445
0.523729 0.128874 -2.31298e-18 0.219385
0.075776 0.534986 0 0.183747
0.467897 0.271334 3.46945e-18 0.210339
0.350249 0.412396 -3.46945e-18 0.196482
0.523729 0.137234 0 0.219249
0.412065 0.352034 -2.31298e-18 0.203319
0.288433 0.46022 0 0.191333
0.523729 0.145897 0 0.2191
0.151552 0.523639 0 0.184767
0.523729 0.154876 -3.08149e-33 0.218935
0 0.546332 0 0.183076
0.523729 0.159528 0 0.218845
0.467897 0.284867 -3.46945e-18 0.209904
0.523729 0.16418 -2.31298e-18 0.218754
0.523729 0.173822 0 0.218554
0.412065 0.368496 0 0.20265
0.523729 0.183814 0 0.218333
0.467897 0.29889 0 0.209427
0.350249 0.431051 -3.46945e-18 0.195644
0.219992 0.51269 0 0.185677
0.523729 0.194169 0 0.218089
0.288433 0.48061 0 0.190352
0.523729 0.2049 0 0.217822
0.467897 0.313423 3.46945e-18 0.208906
0.075776 0.558091 0 0.182403
0.412065 0.385557 0 0.201926
0.523729 0.21602 -3.08149e-33 0.217528
0.151552 0.546332 0 0.183528
0 0.569849 0 0.181703
0.350249 0.450382 3.46945e-18 0.194742
0.523729 0.227544 -3.08149e-33 0.217207
0.467897 0.328483 0 0.208339
0.523729 0.231525 1.54074e-33 0.217089
0.574156 0.00184056 0 0.225481
0.574156 0.00558849 0 0.225497
0.574157 0.00947248 0 0.225522
0.574156 0.0134975 -3.46945e-18 0.225549
0.574156 0.0176687 -3.46945e-18 0.225567
0.574156 0.0219913 0 0.225575
0.574156 0.0264708 -3.46945e-18 0.225581
0.574156 0.031113 0 0.22559
0.574156 0.0359238 -3.46945e-18 0.225601
0.574157 0.0409092 0 0.225614
0.523729 0.239487 3.70071e-18 0.216854
0.574156 0.0460755 -3.46945e-18 0.225628
0.574156 0.0514295 0 0.225646
0.412065 0.403236 0 0.201144
0.574157 0.0569779 0 0.225667
0.574156 0.0627277 0 0.22569
0.574156 0.0686863 0 0.225713
0.219992 0.534986 0 0.18455
0.288433 0.501741 0 0.189303
0.574156 0.0748612 3.46945e-18 0.225722
0.574156 0.0812603 0 0.225691
0.467897 0.344091 0 0.207722
0.574156 0.0878917 3.46945e-18 0.225618
0.523729 0.251863 0 0.21647
0.574157 0.0947639 0 0.225523
0.574156 0.101886 0 0.225419
0.574156 0.109266 0 0.225306
0.574156 0.116914 0 0.225181
0.412065 0.416977 -6.16298e-33 0.200512
0.350249 0.470415 0 0.193774
0.523729 0.264688 0 0.21605
0.075776 0.582034 0 0.181001
0.574156 0.12484 0 0.225043
0.574156 0.133054 3.46945e-18 0.224891
0.412065 0.421557 -2.31298e-18 0.200301
0.151552 0.569849 0 0.182221
0.467897 0.360265 -3.46945e-18 0.207053
0.574157 0.141566 -3.46945e-18 0.224723
0.523729 0.27798 0 0.215592
0.574156 0.150386 3.46945e-18 0.224539
0 0.594219 0 0.180269
0.574156 0.159528 -3.46945e-18 0.224337
0.574156 0.16418 0 0.22483
0.288433 0.523639 1.2326e-32 0.188181
0.574157 0.169001 0 0.224116
0.523729 0.291753 0 0.215094
0.219993 0.558091 3.46945e-18 0.183343
0.467897 0.377026 0 0.206329
0.574156 0.178818 3.46945e-18 0.223874
0.412065 0.440544 -2.31298e-18 0.199394
0.350249 0.491175 0 0.192735
0.574156 0.188992 3.46945e-18 0.223609
0.523729 0.306027 -3.08149e-33 0.214553
0.574157 0.199535 0 0.22332
0.574157 0.21046 0 0.223005
0.075776 0.606847 0 0.179535
0.467897 0.394397 0 0.205546
0.151552 0.594219 0 0.180841
0.523729 0.320819 0 0.213966
0.574157 0.221782 -3.46945e-18 0.222661
0.412065 0.46022 3.08149e-33 0.198419
0.288433 0.546332 0 0.186981
0 0.619475 0 0.17877
0.574156 0.233515 3.46945e-18 0.222288
0.350249 0.51269 3.46945e-18 0.191623
0.219992 0.582034 3.46945e-18 0.182056
0.523729 0.336148 0 0.21333
0.467897 0.412396 0 0.204703
0.574156 0.245675 0 0.221882
0.624584 0 0 0.232685
0.624584 0.00368111 0 0.232692
0.624584 0.00749587 0 0.232711
0.624584 0.0114491 0 0.232737
0.624584 0.0155459 0 0.232759
0.624584 0.0197915 0 0.232768
0.624584 0.0241911 -2.31298e-18 0.232766
0.624584 0.0287506 0 0.232762
0.624584 0.0334755 0 0.232759
0.624584 0.038372 0 0.232758
0.624584 0.0434463 -2.31298e-18 0.232758
0.624584 0.0487048 0 0.232759
0.624584 0.0541543 0 0.232762
0.624584 0.0598016 0 0.232766
0.624584 0.0656539 0 0.232769
0.624584 0.0717187 0 0.23276
0.624584 0.0780037 0 0.232719
0.574157 0.258276 3.46945e-18 0.221442
0.624584 0.0845169 0 0.232637
0.523729 0.352034 0 0.212643
0.624584 0.0912666 0 0.232527
0.624584 0.0982613 0 0.232403
0.412065 0.48061 3.08149e-33 0.197374
0.624584 0.10551 0 0.232269
0.624584 0.113022 -2.31298e-18 0.232122
0.574156 0.271334 0 0.220965
0.624584 0.120806 0 0.231961
0.467897 0.431051 0 0.203794
0.075776 0.632561 -3.46945e-18 0.178001
0.624584 0.128874 0 0.231785
0.151552 0.619475 0 0.179386
0.288433 0.569849 0 0.1857
0.350249 0.534985 0 0.190433
0.624584 0.137234 -2.31298e-18 0.231592
0.523729 0.368496 0 0.211901
0.574156 0.284866 -3.46945e-18 0.220449
0.624584 0.145897 0 0.231383
0.467897 0.440544 0 0.203857
0.624584 0.154876 0 0.231155
0.219992 0.606847 -3.46945e-18 0.180686
0 0.645647 0 0.177199
0.624584 0.16418 -3.08149e-33 0.230907
0.574156 0.29889 -3.46945e-18 0.219891
0.624584 0.173822 0 0.230637
0.412065 0.501741 1.54074e-33 0.196254
0.467897 0.450382 -3.46945e-18 0.202819
0.523729 0.385557 0 0.211101
0.624584 0.183814 0 0.230345
0.624584 0.194169 0 0.230028
0.574156 0.313423 0 0.219288
0.624584 0.2049 0 0.229684
0.350249 0.558091 3.46945e-18 0.189162
0.288433 0.594219 0 0.184334
0.624584 0.21602 0 0.229312
0.523729 0.403236 0 0.21024
0.574156 0.328483 -3.46945e-18 0.218637
0.151552 0.645647 0 0.177852
0.467897 0.470415 3.46945e-18 0.201772
0.075776 0.659208 0 0.176394
0.624584 0.227544 0 0.228909
0.412065 0.523639 0 0.195056
0.523729 0.41545 3.08149e-33 0.209622
0.624584 0.239487 3.70071e-18 0.228475
0.574156 0.344091 0 0.217936
0.219992 0.632561 0 0.179229
0.67013 0.00184055 0 0.239448
0.67013 0.00558849 0 0.239461
0.67013 0.00947248 0 0.239485
0.67013 0.0134975 0 0.239512
0.67013 0.0176687 -3.46945e-18 0.239526
0.67013 0.0219913 0 0.239522
0.67013 0.0264708 3.46945e-18 0.239507
0.67013 0.0311131 0 0.239492
0.67013 0.0359237 0 0.239478
0.67013 0.0409092 -3.46945e-18 0.239465
0.67013 0.0460755 0 0.239453
0.67013 0.0514296 3.46945e-18 0.239441
0.523729 0.421557 -2.31298e-18 0.209314
0.67013 0.056978 0 0.239427
0 0.67277 0 0.175554
0.67013 0.0627277 0 0.239414
0.624584 0.251863 0 0.228005
0.67013 0.0686863 0 0.239396
0.67013 0.0748612 3.46945e-18 0.239351
0.67013 0.0812603 0 0.239258
0.67013 0.0878917 0 0.23913
0.67013 0.0947639 3.46945e-18 0.238989
0.574156 0.360265 0 0.21718
0.67013 0.101886 0 0.238837
0.523729 0.431051 0 0.208817
0.624584 0.264688 0 0.227499
0.467897 0.491175 0 0.200651
0.67013 0.109266 3.46945e-18 0.238671
0.350249 0.582034 0 0.187806
0.67013 0.116914 0 0.23849
0.67013 0.12484 0 0.238294
0.67013 0.133054 0 0.23808
0.288433 0.619475 0 0.18288
0.624584 0.27798 -3.08149e-33 0.226954
0.412065 0.546332 1.54074e-33 0.193776
0.523729 0.440544 -3.08149e-33 0.20832
0.67013 0.141566 3.46945e-18 0.237849
0.685312 0.0241911 -7.70372e-34 0.242471
0.685312 0.0434463 -7.70372e-34 0.242387
0.67013 0.150387 0 0.237598
0.574156 0.377026 -3.46945e-18 0.216368
0.67013 0.159528 0 0.237327
0.624584 0.291753 0 0.226367
0.151552 0.67277 0 0.176233
0.075776 0.686823 0 0.174709
0.67013 0.169001 0 0.237034
0.67013 0.178818 0 0.236718
0.467897 0.51269 0 0.199451
0.685312 0.113022 -7.70372e-34 0.241396
0.219992 0.659208 0 0.177683
0.624584 0.306027 0 0.225735
0.67013 0.188991 0 0.236376
0.574156 0.394397 3.46945e-18 0.215494
0.523729 0.46022 0 0.207254
0.685312 0.137234 -7.70372e-34 0.24074
0.67013 0.199535 -3.46945e-18 0.236008
0.350249 0.606847 0 0.186361
0 0.700877 0 0.173827
0.624584 0.320819 0 0.225056
0.67013 0.21046 0 0.235611
0.412065 0.569849 -2.31298e-18 0.192411
0.67013 0.221782 -3.46945e-18 0.235184
0.574157 0.412396 0 0.214556
0.288433 0.645647 0 0.181334
0.624584 0.336148 -3.08149e-33 0.224326
0.67013 0.233515 3.46945e-18 0.234724
0.467897 0.534986 0 0.198169
0.523729 0.48061 0 0.206113
0.624584 0.344091 0 0.223934
0.67013 0.245675 0 0.23423
0.715676 4.54095e-19 0 0.247274
0.715676 0.00368111 0 0.24728
0.715676 0.00749587 0 0.247298
0.715676 0.0114491 0 0.247323
0.715676 0.0155459 0 0.247343
0.715676 0.0197915 0 0.247343
0.715676 0.0241911 0 0.247323
0.715676 0.0287506 0 0.247294
0.715676 0.0334755 0 0.247264
0.715676 0.038372 0 0.247234
0.624584 0.352034 -2.31298e-18 0.223542
0.715676 0.0434463 0 0.247202
0.151552 0.700877 0 0.174527
0.715676 0.0487048 0 0.24717
0.715676 0.0541543 0 0.247137
0.574156 0.43105 0 0.21355
0.715676 0.0598016 0 0.247103
0.67013 0.258275 0 0.233699
0.715676 0.0656539 0 0.247064
0.715676 0.0717187 0 0.247005
0.075776 0.715441 0 0.172941
0.715676 0.0780037 0 0.246905
0.715676 0.0845169 0 0.246765
0.219992 0.686824 0 0.176044
0.715676 0.0912666 0 0.246603
0.715676 0.0982613 0 0.246428
0.67013 0.271334 -3.46945e-18 0.233129
0.350249 0.632561 -3.46945e-18 0.184824
0.412065 0.594219 3.08149e-33 0.190954
0.715676 0.10551 0 0.246239
0.715676 0.113022 0 0.246034
0.624584 0.368496 0 0.222701
0.523729 0.501741 0 0.204893
0.715676 0.120806 0 0.245812
0.715676 0.128874 0 0.245572
0.67013 0.284867 0 0.232517
0.467897 0.558091 3.46945e-18 0.1968
0.715676 0.137234 0 0.245313
0.574156 0.450382 0 0.212472
0 0.730005 0 0.172015
0.715676 0.145897 0 0.245035
0.288433 0.67277 0 0.179694
0.715676 0.154876 0 0.244735
0.67013 0.29889 0 0.231861
0.624584 0.385557 0 0.2218
0.715676 0.16418 -9.25187e-19 0.244412
0.715676 0.173822 0 0.244065
0.715676 0.183814 0 0.243693
0.67013 0.313423 0 0.231158
0.523729 0.523639 0 0.203589
0.715676 0.194169 0 0.243293
0.574156 0.470415 3.46945e-18 0.211318
0.624584 0.403236 0 0.220834
0.743101 0.0241911 -7.70372e-34 0.252542
0.412065 0.619475 3.08149e-33 0.189403
0.715676 0.2049 0 0.242864
0.151552 0.730005 0 0.172729
0.67013 0.328484 3.46945e-18 0.230404
0.350249 0.659208 0 0.183189
0.467897 0.582034 0 0.19534
0.715676 0.21602 0 0.242405
0.219992 0.715441 0 0.174308
0.075776 0.745097 -3.46945e-18 0.171085
0.715676 0.227544 0 0.241912
0.67013 0.344091 0 0.229598
0.624584 0.421557 0 0.2198
0.743101 0.128874 -7.70372e-34 0.250469
0.715676 0.239487 3.70071e-18 0.241385
0.574156 0.491175 0 0.210084
0.756814 0.00184055 0 0.254658
0.523729 0.546332 0 0.202196
0.756813 0.00558849 0 0.254671
0.756813 0.00947248 0 0.254693
0.756814 0.0134975 -3.46945e-18 0.254721
0.756814 0.0155459 0 0.255188
0.756814 0.0176687 0 0.25473
0.756814 0.0219913 0 0.25471
0.756814 0.0264709 0 0.254671
0.756814 0.031113 -3.46945e-18 0.254628
0.756813 0.0359238 -3.46945e-18 0.254582
0.288433 0.700877 0 0.177953
0.756814 0.0409092 -3.46945e-18 0.254533
0.756813 0.0460755 3.46945e-18 0.254483
0.756813 0.0514296 0 0.254433
0.715676 0.251863 0 0.240821
0.756813 0.0569779 0 0.25438
0.756814 0.0627277 -3.46945e-18 0.254326
0.756814 0.0686863 -3.46945e-18 0.254258
0 0.76019 0 0.170113
0.756814 0.0748612 0 0.254153
0.67013 0.360265 3.46945e-18 0.228734
0.756814 0.0812603 -3.46945e-18 0.254001
0.756814 0.0878917 -3.46945e-18 0.25382
0.756814 0.0947639 -3.46945e-18 0.253625
0.715676 0.264688 0 0.240218
0.756813 0.101886 0 0.253415
0.624584 0.440544 0 0.218694
0.756813 0.109266 3.46945e-18 0.253189
0.756813 0.116914 3.46945e-18 0.252945
0.412065 0.645647 0 0.187753
0.467897 0.606847 0 0.193784
0.756814 0.120806 0 0.253196
0.756813 0.12484 0 0.252683
0.715676 0.27798 0 0.239572
0.756814 0.133054 -3.46945e-18 0.252401
0.67013 0.377026 -3.46945e-18 0.22781
0.756814 0.137234 0 0.252619
0.574156 0.51269 0 0.208765
0.756813 0.141566 3.46945e-18 0.252098
0.685312 0.352034 -7.70372e-34 0.231597
0.743101 0.2049 -7.70372e-34 0.247526
0.350249 0.686824 0 0.181453
0.756814 0.150387 0 0.251773
0.756814 0.154876 0 0.251957
0.715676 0.291753 0 0.238883
0.756814 0.159528 -3.46945e-18 0.251424
0.523729 0.569849 0 0.200711
0.72743 0.264688 0 0.242142
0.756814 0.16418 0 0.251591
0.151552 0.76019 0 0.170834
0.756813 0.169001 3.46945e-18 0.251051
0.624584 0.46022 0 0.217512
0.219993 0.745097 0 0.172472
0.67013 0.394396 0 0.226823
0.756813 0.178818 -3.46945e-18 0.250652
0.715676 0.306027 0 0.238147
0.075776 0.775831 0 0.169136
0.756813 0.188991 0 0.250225
0.756814 0.199535 0 0.249768
0.715676 0.320819 0 0.23736
0.574156 0.534985 0 0.207358
0.288433 0.730005 0 0.17611
0.756813 0.21046 0 0.24928
0.467897 0.632561 0 0.192127
0.67013 0.412396 -3.46945e-18 0.225767
0.624584 0.48061 -3.08149e-33 0.216249
0.756814 0.221782 0 0.24876
0.412065 0.67277 3.08149e-33 0.185999
0.715676 0.336148 0 0.236521
0 0.791472 0 0.168115
0.756813 0.233516 3.46945e-18 0.248204
0.523729 0.594219 0 0.199128
0.624584 0.487654 1.54074e-33 0.2158
0.756814 0.245675 3.46945e-18 0.247611
0.350249 0.715441 3.46945e-18 0.179611
0.67013 0.43105 0 0.22464
0.715676 0.352034 -9.25187e-19 0.235625
0.797951 9.08189e-19 -3.08149e-33 0.262966
0.797951 0.00368111 2.31298e-18 0.262973
0.797951 0.00749587 2.31298e-18 0.262991
0.797951 0.0114491 2.31298e-18 0.263016
0.797951 0.0141803 7.70372e-34 0.263027
0.797951 0.0155459 0 0.263033
0.797951 0.0169611 7.70372e-34 0.263029
0.797951 0.0197915 2.31298e-18 0.263022
0.797951 0.0219913 0 0.263001
0.797951 0.0241911 3.08149e-33 0.262981
0.797951 0.0264709 0 0.262953
0.797951 0.0287506 -3.08149e-33 0.262924
0.797951 0.0334755 2.31298e-18 0.262858
0.797951 0.038372 2.31298e-18 0.262787
0.797951 0.0434463 2.31298e-18 0.262713
0.797951 0.0487048 0 0.262636
0.756813 0.258275 -3.46945e-18 0.246978
0.797951 0.0541543 2.31298e-18 0.262556
0.797951 0.0598016 2.31298e-18 0.262472
0.797951 0.0656539 2.31298e-18 0.262378
0.574156 0.55809 0 0.205856
0.624584 0.501741 0 0.214901
0.797951 0.0717187 2.31298e-18 0.262253
0.797951 0.0780037 -3.08149e-33 0.262085
0.797951 0.0845169 2.31298e-18 0.26188
0.797951 0.0912666 -3.08149e-33 0.261655
0.797951 0.0982613 2.31298e-18 0.261414
0.756813 0.271334 0 0.246305
0.797951 0.10551 2.31298e-18 0.261155
0.715676 0.368496 0 0.234669
0.151552 0.791472 0 0.168838
0.797951 0.113022 2.31298e-18 0.260878
0.219992 0.775831 3.46945e-18 0.170532
0.797951 0.118211 7.70372e-34 0.26068
0.770526 0.239487 1.54074e-33 0.250507
0.797951 0.120806 0 0.260581
0.67013 0.450382 3.46945e-18 0.223436
0.797951 0.128874 3.08149e-33 0.260264
0.467897 0.659208 0 0.190365
0.756813 0.284866 -3.46945e-18 0.245587
0.743101 0.320819 -7.70372e-34 0.241702
0.797951 0.137234 0 0.259926
0.797951 0.141566 0 0.259745
0.797951 0.145897 -9.25187e-19 0.259564
0.523729 0.619475 0 0.197442
0.075776 0.807681 0 0.167089
0.797951 0.150387 0 0.259372
0.797951 0.154876 0 0.259179
0.715676 0.385557 0 0.23365
0.412065 0.700877 3.08149e-33 0.184137
0.288433 0.76019 0 0.174159
0.756813 0.29889 0 0.244822
0.797951 0.16418 0 0.258769
0.624584 0.523639 0 0.213463
0.797951 0.167394 7.70372e-34 0.258624
0.797951 0.173822 2.31298e-18 0.258333
0.574156 0.582034 0 0.204256
0.67013 0.470415 0 0.222152
0.797951 0.183814 2.31298e-18 0.257868
0.756813 0.313423 -3.46945e-18 0.244007
0.797951 0.194169 -9.25187e-19 0.257374
0.715676 0.403236 0 0.232563
0.151552 0.807681 0 0.167787
0.797951 0.197746 -7.70372e-34 0.257199
0.350249 0.745097 0 0.17766
0.797951 0.2049 3.08149e-33 0.256849
0 0.823889 0 0.166017
0.756813 0.328483 -3.46945e-18 0.24314
0.797951 0.21046 0 0.25657
0.797951 0.21602 -3.08149e-33 0.25629
0.797951 0.223703 7.70372e-34 0.255895
0.797951 0.227544 9.25187e-19 0.255697
0.624584 0.546332 0 0.21193
0.715676 0.421557 0 0.231404
0.67013 0.491176 -3.46945e-18 0.220782
0.797951 0.231525 7.70372e-34 0.255487
0.467897 0.686824 -3.46945e-18 0.188492
0.523729 0.645647 0 0.195649
0.756813 0.344091 -3.46945e-18 0.242217
0.822721 0.120806 7.70372e-34 0.265677
0.797951 0.239487 -3.08149e-33 0.255068
0.822721 0.137234 7.70372e-34 0.264963
0.835106 0.00184056 0 0.270846
0.835106 0.00558849 0 0.270859
0.835106 0.00947248 0 0.270884
0.835106 0.0134975 0 0.270911
0.835107 0.0176687 0 0.270914
0.835106 0.0219913 -3.46945e-18 0.270877
0.574156 0.606847 3.46945e-18 0.202551
0.835106 0.0241911 0 0.271131
0.835106 0.0264709 -3.46945e-18 0.270812
0.822721 0.145897 -7.70372e-34 0.264572
0.835106 0.031113 3.46945e-18 0.27073
0.835106 0.0359238 3.46945e-18 0.27064
0.835106 0.0409092 -3.46945e-18 0.270545
0.835106 0.0460755 3.46945e-18 0.270444
0.835106 0.0514296 0 0.270339
0.797951 0.251863 -3.08149e-33 0.254399
0.835106 0.0541543 0 0.270564
0.835106 0.0569779 0 0.270231
0.219992 0.807681 3.46945e-18 0.168484
0.822721 0.154876 7.70372e-34 0.264155
0.835106 0.0627277 0 0.270116
0.151552 0.823889 0 0.166737
0.797951 0.255069 -1.54074e-33 0.254221
0.835106 0.0686863 3.46945e-18 0.269979
0.756814 0.360265 -3.46945e-18 0.241235
0.412065 0.730005 0 0.182161
0.835106 0.0748612 0 0.269795
0.822721 0.16418 7.70372e-34 0.263713
0.835106 0.0812603 0 0.269566
0.835106 0.0878917 -3.46945e-18 0.269314
0.715676 0.440544 0 0.230169
0.835106 0.094764 0 0.269045
0.797951 0.264688 -1.2326e-32 0.253689
0.835106 0.101886 -3.46945e-18 0.268757
0.835106 0.109266 3.46945e-18 0.26845
0.288433 0.791472 0 0.172096
0.835106 0.116914 0 0.268123
0.67013 0.51269 3.46945e-18 0.219322
0.797951 0.274657 6.16298e-33 0.253124
0.075776 0.840686 -3.46945e-18 0.16494
0.835106 0.12484 0 0.267775
0.797951 0.27798 -3.08149e-33 0.252935
0.624584 0.569849 0 0.210296
0.756813 0.377026 -3.46945e-18 0.240189
0.835106 0.133054 3.46945e-18 0.267404
0.835106 0.141565 3.46945e-18 0.267011
0.835106 0.150386 0 0.266593
0.797951 0.291753 0 0.252136
0.835106 0.159528 3.46945e-18 0.26615
0.715676 0.46022 0 0.228854
0.816529 0.239487 -1.54074e-33 0.258594