# pMean  POINT_DATA 63840
# x  y  z  pMean
0 0.5 3.39583e-17 0.185759
0 0.5 -0.00617931 0.185821
0 0.5 0.00617931 0.1857
0.0124865 0.5 -0.00617931 0.185821
0.0124865 0.5 0.00617931 0.1857
0 0.5 -0.0688207 0.186194
0 0.5 0.0688207 0.184848
0.0124865 0.5 -0.0688207 0.186194
0.0124865 0.5 0.0688207 0.184848
0 0.5 -0.075 0.186206
0 0.5 0.075 0.184739
0 0.5 -0.0811793 0.18622
0 0.5 0.0811793 0.184633
0.0124865 0.5 -0.0811793 0.18622
0.0124865 0.5 0.0811793 0.184633
0.075776 0.5 -0.0375 0.186137
0.075776 0.5 0.0375 0.185401
0.075776 0.5 -0.1125 0.186295
0.075776 0.5 0.1125 0.184097
0 0.5 -0.143821 0.186102
0 0.5 0.143821 0.183305
0.0124865 0.5 -0.143821 0.186102
0.0124865 0.5 0.143821 0.183305
0 0.5 -0.15 0.186064
0 0.5 0.15 0.183148
0.151149 0.5 -0.00137318 0.186007
0 0.5 -0.156179 0.186029
0 0.5 0.156179 0.182994
0.0124865 0.5 -0.156179 0.186029
0.0124865 0.5 0.156179 0.182994
0.151149 0.5 0.075 0.184997
0.151149 0.5 -0.075 0.186489
0.075776 0.5 -0.1875 0.185854
0.075776 0.5 0.1875 0.182218
0.151149 0.5 0.15 0.183382
0.151149 0.5 -0.15 0.186351
0 0.5 -0.218821 0.185425
0 0.5 0.218821 0.181203
0.0124865 0.5 -0.218821 0.185425
0.0124865 0.5 0.218821 0.181203
0.219992 0.5 0.0375 0.18592
0.219993 0.5 -0.0375 0.186676
0 0.5 -0.225 0.18534
0 0.5 0.225 0.181002
0 0.5 -0.231179 0.185259
0 0.5 0.231179 0.180804
0.0124865 0.5 -0.231179 0.185259
0.0124865 0.5 0.231179 0.180804
0.219992 0.5 0.1125 0.184571
0.219993 0.5 -0.1125 0.186844
0.151149 0.5 -0.225 0.18562
0.151149 0.5 0.225 0.181209
0.075776 0.5 -0.2625 0.184847
0.075776 0.5 0.2625 0.179806
0.288069 0.5 -0.00137318 0.189327
0.219992 0.5 0.1875 0.182646
0.219993 0.5 -0.1875 0.186408
0 0.5 0.293821 0.178581
0 0.5 -0.293821 0.184188
0.0124865 0.5 -0.293821 0.184188
0.0124865 0.5 0.293821 0.178581
0.288069 0.5 -0.075 0.189847
0.288069 0.5 0.075 0.18827
0 0.5 -0.3 0.184058
0 0.5 0.3 0.178338
0 0.5 0.306179 0.178099
0 0.5 -0.306179 0.18393
0.0124865 0.5 -0.306179 0.18393
0.0124865 0.5 0.306179 0.178099
0.288069 0.5 -0.15 0.189679
0.288069 0.5 0.15 0.186539
0.151149 0.5 -0.3 0.184317
0.151149 0.5 0.3 0.17851
0.219992 0.5 -0.2625 0.185366
0.219992 0.5 0.2625 0.18017
0.075776 0.5 0.3375 0.17689
0.075776 0.5 -0.3375 0.183288
0.350249 0.5 -0.0375 0.192688
0.350249 0.5 0.0375 0.19187
0.288069 0.5 -0.225 0.188866
0.288069 0.5 0.225 0.184206
0.350249 0.5 0.1125 0.190378
0.350249 0.5 -0.1125 0.192831
0 0.5 0.368821 0.175472
0 0.5 -0.368821 0.182412
0.0124865 0.5 -0.368821 0.182412
0.0124865 0.5 0.368821 0.175472
0 0.5 -0.375 0.182238
0 0.5 0.375 0.175191
0 0.5 -0.381179 0.182068
0 0.5 0.381179 0.174914
0.0124865 0.5 -0.381179 0.182068
0.0124865 0.5 0.381179 0.174914
0.350249 0.5 -0.1875 0.192285
0.350249 0.5 0.1875 0.188228
0.219992 0.5 -0.3375 0.183765
0.219992 0.5 0.3375 0.177183
0.151149 0.5 -0.375 0.182472
0.151149 0.5 0.375 0.175323
0.411736 0.5 -0.00137318 0.19627
0.288069 0.5 -0.3 0.187437
0.288069 0.5 0.3 0.181311
0.411736 0.5 -0.075 0.196822
0.411736 0.5 0.075 0.195111
0.075776 0.5 -0.4125 0.181208
0.075776 0.5 0.4125 0.173511
0.350249 0.5 -0.2625 0.191068
0.350249 0.5 0.2625 0.185464
0.411736 0.5 -0.15 0.196582
0.411736 0.5 0.15 0.193182
0 0.5 -0.443821 0.180129
0 0.5 0.443821 0.171919
0.0124865 0.5 -0.443821 0.180129
0.0124865 0.5 0.443821 0.171919
0 0.5 -0.45 0.179915
0 0.5 0.45 0.171604
0 0.5 -0.456179 0.179704
0 0.5 0.456179 0.171292
0.0124865 0.5 -0.456179 0.179704
0.0124865 0.5 0.456179 0.171292
0.219992 0.5 -0.4125 0.181629
0.219993 0.5 0.4125 0.173724
0.411736 0.5 -0.225 0.195615
0.411736 0.5 0.225 0.190572
0.467897 0.5 0.0375 0.199712
0.467897 0.5 -0.0375 0.200606
0.288069 0.5 -0.375 0.185426
0.288069 0.5 0.375 0.177896
0.151149 0.5 -0.45 0.180117
0.151149 0.5 0.45 0.171693
0.467897 0.5 -0.1125 0.200721
0.467897 0.5 0.1125 0.198052
0.350249 0.5 0.3375 0.18213
0.350249 0.5 -0.3375 0.189223
0.075776 0.5 -0.4875 0.178642
0.075776 0.5 0.4875 0.169715
0.467897 0.5 -0.1875 0.200054
0.467897 0.5 0.1875 0.195649
0.411736 0.5 -0.3 0.193951
0.411736 0.5 0.3 0.187326
0 0.5 -0.518821 0.177378
0 0.5 0.518821 0.167967
0.0124865 0.5 0.518821 0.167967
0.0124865 0.5 -0.518821 0.177378
0.523432 0.5 -0.00137318 0.204907
0 0.5 -0.525 0.177127
0 0.5 0.525 0.167622
0.523432 0.5 -0.075 0.205496
0.523432 0.5 0.075 0.203619
0 0.5 -0.531179 0.17688
0 0.5 0.531179 0.167279
0.0124865 0.5 -0.531179 0.17688
0.0124865 0.5 0.531179 0.167279
0.288069 0.5 -0.45 0.18287
0.288069 0.5 0.45 0.174009
0.219992 0.5 -0.4875 0.178997
0.219993 0.5 0.4875 0.169842
0.467897 0.5 -0.2625 0.198626
0.467897 0.5 0.2625 0.192542
0.350249 0.5 -0.4125 0.18678
0.350249 0.5 0.4125 0.178272
0.523432 0.5 -0.15 0.20518
0.523432 0.5 0.15 0.201454
0.151149 0.5 -0.525 0.177293
0.151149 0.5 0.525 0.167666
0.411736 0.5 -0.375 0.191629
0.411736 0.5 0.375 0.183497
0.075776 0.5 -0.5625 0.175632
0.075776 0.5 0.5625 0.165547
0.523432 0.5 -0.225 0.204033
0.523432 0.5 0.225 0.198512
0.574156 0.5 -0.0375 0.210037
0.574156 0.5 0.0375 0.209048
0.467897 0.5 0.3375 0.188786
0.467897 0.5 -0.3375 0.196475
0.574156 0.5 -0.1125 0.210128
0.574156 0.5 0.1125 0.207181
0 0.5 -0.593821 0.174201
0 0.5 0.593821 0.163666
0.0124865 0.5 -0.593821 0.174201
0.0124865 0.5 0.593821 0.163666
0.288069 0.5 -0.525 0.179815
0.288069 0.5 0.525 0.169706
0 0.5 -0.6 0.173918
0 0.5 0.6 0.163294
0.350249 0.5 -0.4875 0.183788
0.350249 0.5 0.4875 0.173951
0.523432 0.5 -0.3 0.202087
0.523432 0.5 0.3 0.194847
0.219992 0.5 -0.5625 0.175911
0.219992 0.5 0.5625 0.165585
0.574156 0.5 -0.1875 0.209326
0.574156 0.5 0.1875 0.204465
0 0.5 -0.606179 0.173638
0 0.5 0.606179 0.162924
0.0124865 0.5 -0.606179 0.173638
0.0124865 0.5 0.606179 0.162924
0.411736 0.5 -0.45 0.188696
0.411736 0.5 0.45 0.179143
0.151149 0.5 -0.6 0.174042
0.151149 0.5 0.6 0.163291
0.62168 0.5 2.64545e-17 0.214618
0.467897 0.5 0.4125 0.184442
0.467897 0.5 -0.4125 0.193647
0.624316 0.5 0.0729402 0.21347
0.624316 0.5 -0.075 0.215555
0.574156 0.5 -0.2625 0.207647
0.574157 0.5 0.2625 0.200945
0.075776 0.5 -0.6375 0.172222
0.075776 0.5 0.6375 0.161058
0.624316 0.5 -0.15 0.215152
0.624316 0.5 0.15 0.211018
0.523432 0.5 -0.375 0.199389
0.523432 0.5 0.375 0.190522
0.350249 0.5 -0.5625 0.1803
0.350249 0.5 0.5625 0.169227
0.624316 0.5 -0.225 0.213795
0.624316 0.5 0.225 0.207678
0.288069 0.5 0.6 0.165043
0.288069 0.5 -0.6 0.176311
0.574156 0.5 -0.3375 0.205136
0.574156 0.5 0.3375 0.19669
0.411736 0.5 -0.525 0.185209
0.411736 0.5 0.525 0.174332
0 0.5 -0.668821 0.170646
0 0.5 0.668821 0.159065
0.0124865 0.5 -0.668821 0.170646
0.0124865 0.5 0.668821 0.159065
0.67013 0.5 0.0375 0.219631
0.67013 0.5 -0.0375 0.220735
0.219993 0.5 -0.6375 0.172418
0.219993 0.5 0.6375 0.161005
0 0.5 -0.675 0.170333
0 0.5 0.675 0.158671
0.467897 0.5 0.4875 0.179581
0.467897 0.5 -0.4875 0.190202
0.67013 0.5 -0.1125 0.220803
0.67013 0.5 0.1125 0.217514
0 0.5 -0.681179 0.170024
0 0.5 0.681179 0.158279
0.0124865 0.5 -0.681179 0.170024
0.0124865 0.5 0.681179 0.158279
0.523432 0.5 -0.45 0.196
0.523432 0.5 0.45 0.185609
0.151149 0.5 -0.675 0.170412
0.151149 0.5 0.675 0.158621
0.624316 0.5 -0.3 0.211517
0.624316 0.5 0.3 0.203514
0.67013 0.5 0.1875 0.214423
0.67013 0.5 -0.1875 0.219838
0.574156 0.5 -0.4125 0.201858
0.574157 0.5 0.4125 0.191773
0.708171 0.5 1.88651e-17 0.225016
0.075776 0.5 -0.7125 0.168462
0.075776 0.5 0.7125 0.1563
0.715434 0.5 0.0736268 0.224171
0.715434 0.5 -0.075 0.226677
0.67013 0.5 0.2625 0.210412
0.67013 0.5 -0.2625 0.217865
0.350249 0.5 -0.6375 0.176375
0.350249 0.5 0.6375 0.164165
0.411736 0.5 -0.6 0.18123
0.411736 0.5 0.6 0.169134
0.624316 0.5 -0.375 0.20838
0.624316 0.5 0.375 0.198604
0.715434 0.5 -0.15 0.226176
0.715434 0.5 0.15 0.221557
0.467897 0.5 -0.5625 0.186205
0.467897 0.5 0.5625 0.174278
0.288069 0.5 -0.675 0.172411
0.288069 0.5 0.675 0.160079
0.523432 0.5 -0.525 0.19199
0.523432 0.5 0.525 0.18019
0 0.5 -0.743821 0.166759
0 0.5 0.743821 0.154217
0.0124865 0.5 -0.743821 0.166759
0.0124865 0.5 0.743821 0.154217
0.219992 0.5 0.7125 0.156154
0.219992 0.5 -0.7125 0.168567
0.715434 0.5 -0.225 0.224576
0.715434 0.5 0.225 0.217753
0 0.5 -0.75 0.166422
0 0.5 0.75 0.153804
0.67013 0.5 0.3375 0.205567
0.67013 0.5 -0.3375 0.214937
0.574156 0.5 -0.4875 0.197881
0.574156 0.5 0.4875 0.186277
0 0.5 -0.756179 0.166088
0 0.5 0.756179 0.153394
0.0124865 0.5 -0.756179 0.166088
0.0124865 0.5 0.756179 0.153394
0.756813 0.5 -0.0375 0.232308
0.756813 0.5 0.0375 0.231071
0.151149 0.5 -0.75 0.166453
0.151149 0.5 0.75 0.153706
0.756813 0.5 -0.1125 0.232353
0.756813 0.5 0.1125 0.228666
0.624316 0.5 -0.45 0.204457
0.624316 0.5 0.45 0.193036
0.715434 0.5 -0.3 0.22192
0.715434 0.5 0.3 0.213009
0.756813 0.5 0.1875 0.225145
0.756813 0.5 -0.1875 0.231204
0.67013 0.5 -0.4125 0.21113
0.67013 0.5 0.4125 0.199978
0.411736 0.5 -0.675 0.176825
0.411736 0.5 0.675 0.163621
0.467897 0.5 0.6375 0.16861
0.467897 0.5 -0.6375 0.181728
0.075776 0.5 -0.7875 0.164399
0.075776 0.5 0.7875 0.151325
0.350249 0.5 -0.7125 0.172074
0.350249 0.5 0.7125 0.15883
0.523432 0.5 -0.6 0.187434
0.523432 0.5 0.6 0.174352
0.797732 0.5 2.68882e-17 0.237808
0.756813 0.5 -0.2625 0.228903
0.756814 0.5 0.2625 0.220576
0.797732 0.5 0.0736268 0.235734
0.797732 0.5 -0.075 0.238486
0.288069 0.5 -0.75 0.168173
0.288069 0.5 0.75 0.154871
0.574156 0.5 -0.5625 0.193287
0.574157 0.5 0.5625 0.180299
0.715434 0.5 -0.375 0.218277
0.715434 0.5 0.375 0.207424
0.797732 0.5 -0.15 0.237883
0.797732 0.5 0.15 0.232697
0.624316 0.5 -0.525 0.199834
0.624316 0.5 0.525 0.18691
0.219992 0.5 -0.7875 0.164409
0.219992 0.5 0.7875 0.151085
0 0.5 -0.818821 0.162591
0 0.5 0.818821 0.149172
0.0124865 0.5 0.818821 0.149172
0.0124865 0.5 -0.818821 0.162591
0 0.5 -0.825 0.162233
0 0.5 0.825 0.148745
0.756813 0.5 0.3375 0.215051
0.756814 0.5 -0.3375 0.225501
0.67013 0.5 -0.4875 0.20653
0.67013 0.5 0.4875 0.193744
0.797732 0.5 -0.225 0.236017
0.797732 0.5 0.225 0.228372
0 0.5 -0.831179 0.161878
0 0.5 0.831179 0.148321
0.0124865 0.5 -0.831179 0.161878
0.0124865 0.5 0.831179 0.148321
0.835106 0.5 0.0375 0.242994
0.835106 0.5 -0.0375 0.244386
0.151149 0.5 -0.825 0.162215
0.151149 0.5 0.825 0.148599
0.835106 0.5 0.1125 0.240266
0.835106 0.5 -0.1125 0.244421
0.715434 0.5 -0.45 0.213739
0.715434 0.5 0.45 0.201108
0.797732 0.5 -0.3 0.232939
0.797732 0.5 0.3 0.22298
0.467897 0.5 0.7125 0.162655
0.467897 0.5 -0.7125 0.176847
0.523432 0.5 -0.675 0.182417
0.523432 0.5 0.675 0.16818
0.411736 0.5 -0.75 0.172065
0.411736 0.5 0.75 0.157861
0.835106 0.5 -0.1875 0.243082
0.835106 0.5 0.1875 0.236266
0.574156 0.5 -0.6375 0.188166
0.574157 0.5 0.6375 0.173932
0.350249 0.5 -0.7875 0.167459
0.350249 0.5 0.7875 0.153284
0.756813 0.5 -0.4125 0.22109
0.756814 0.5 0.4125 0.208705
0.075776 0.5 -0.8625 0.160084
0.075776 0.5 0.8625 0.146181
0.624316 0.5 0.6 0.180331
0.624316 0.5 -0.6 0.194606
0.872064 0.5 5.91974e-17 0.249977
0.870122 0.5 0.075 0.24729
0.288069 0.5 -0.825 0.163652
0.288069 0.5 0.825 0.149477
0.67013 0.5 -0.5625 0.20124
0.67013 0.5 0.5625 0.186985
0.872064 0.5 -0.075 0.250731
0.835106 0.5 -0.2625 0.240417
0.835106 0.5 0.2625 0.23108
0.797732 0.5 -0.375 0.228733
0.797732 0.5 0.375 0.216642
0.872064 0.5 0.14794 0.244198
0.872064 0.5 -0.15 0.250024
0.715434 0.5 -0.525 0.208412
0.715434 0.5 0.525 0.194176
0.219992 0.5 0.8625 0.145849
0.219993 0.5 -0.8625 0.159996
0 0.5 -0.893821 0.15819
0 0.5 0.893821 0.143978
0.0124865 0.5 -0.893821 0.15819
0.0124865 0.5 0.893821 0.143978
0 0.5 -0.9 0.157815
0 0.5 0.9 0.143542
0.756813 0.5 -0.4875 0.215785
0.756813 0.5 0.4875 0.201648
0.872064 0.5 -0.225 0.247865
0.872064 0.5 0.225 0.2393
0.835106 0.5 -0.3375 0.236493
0.835106 0.5 0.3375 0.224818
0 0.5 0.906179 0.143108
0 0.5 -0.906179 0.157442
0.0124865 0.5 -0.906179 0.157442
0.0124865 0.5 0.906179 0.143108
0.90582 0.5 -0.0375 0.256824
0.90582 0.5 0.0375 0.255273
0.151149 0.5 -0.9 0.157746
0.151149 0.5 0.9 0.143348
0.90582 0.5 -0.1125 0.25686
0.905821 0.5 0.1125 0.252191
0.523432 0.5 -0.75 0.177023
0.523432 0.5 0.75 0.161759
0.574156 0.5 -0.7125 0.182612
0.574156 0.5 0.7125 0.16727
0.797732 0.5 -0.45 0.223512
0.797732 0.5 0.45 0.209495
0.467897 0.5 0.7875 0.156491
0.467897 0.5 -0.7875 0.171638
0.624316 0.5 -0.675 0.188877
0.624316 0.5 0.675 0.173404
0.411736 0.5 -0.825 0.167018
0.411736 0.5 0.825 0.151926
0.872064 0.5 0.3 0.233201
0.872064 0.5 -0.3 0.244326
0.67013 0.5 -0.6375 0.195371
0.67013 0.5 0.6375 0.179814
0.90582 0.5 0.1875 0.247666
0.905821 0.5 -0.1875 0.255305
0.350249 0.5 -0.8625 0.162591
0.350249 0.5 0.8625 0.147588
0.835106 0.5 -0.4125 0.231428
0.835106 0.5 0.4125 0.217633
0.715434 0.5 -0.6 0.202415
0.715434 0.5 0.6 0.186757
0.939201 0.5 2.75387e-17 0.262193
0.075776 0.5 0.9375 0.140917
0.075776 0.5 -0.9375 0.155562
0.939111 0.5 0.075 0.25946
0.939201 0.5 -0.075 0.263045
0.756813 0.5 0.5625 0.194007
0.756814 0.5 -0.5625 0.209707
0.90582 0.5 0.2625 0.241806
0.905821 0.5 -0.2625 0.25224
0.288069 0.5 -0.9 0.158905
0.288069 0.5 0.9 0.143952
0.872064 0.5 -0.375 0.239507
0.872064 0.5 0.375 0.22604
0.939201 0.5 0.148627 0.255574
0.939201 0.5 -0.15 0.262248
0.797732 0.5 -0.525 0.217408
0.797732 0.5 0.525 0.201674
0.219992 0.5 0.9375 0.140496
0.219992 0.5 -0.9375 0.155377
0.939201 0.5 -0.225 0.25979
0.939201 0.5 0.225 0.250174
0.905821 0.5 -0.3375 0.247753
0.90582 0.5 0.3375 0.234744
0.835106 0.5 -0.4875 0.225358
0.835106 0.5 0.4875 0.209671
0 0.5 0.968821 0.138686
0 0.5 -0.968821 0.153602
0.0124865 0.5 -0.968821 0.153602
0.0124865 0.5 0.968821 0.138686
0.969689 0.5 -0.0375 0.269018
0.969689 0.5 0.0375 0.267294
0.574156 0.5 -0.7875 0.176719
0.574156 0.5 0.7875 0.160406
0 0.5 -0.975 0.153214
0 0.5 0.975 0.138244
0.624316 0.5 -0.75 0.182752
0.624316 0.5 0.75 0.16623
0.969689 0.5 -0.1125 0.269108
0.96969 0.5 0.1125 0.263819
0.523432 0.5 -0.825 0.171339
0.523432 0.5 0.825 0.155171
0.67013 0.5 0.7125 0.172345
0.67013 0.5 -0.7125 0.189037
0 0.5 -0.981179 0.152828
0 0.5 0.981179 0.137805
0.467897 0.5 0.8625 0.150189
0.467897 0.5 -0.8625 0.166177
0.0124865 0.5 -0.981179 0.152828
0.0124865 0.5 0.981179 0.137805
0.872064 0.5 -0.45 0.233546
0.872064 0.5 0.45 0.217984
0.715434 0.5 -0.675 0.195874
0.715434 0.5 0.675 0.178979
0.939201 0.5 -0.3 0.255771
0.939201 0.5 0.3 0.243322
0.151149 0.5 0.975 0.138007
0.151149 0.5 -0.975 0.153096
0.969689 0.5 -0.1875 0.267352
0.969689 0.5 0.1875 0.258735
0.756813 0.5 -0.6375 0.202992
0.756813 0.5 0.6375 0.185941
0.411736 0.5 -0.9 0.161752
0.411736 0.5 0.9 0.145879
0.90582 0.5 -0.4125 0.241979
0.90582 0.5 0.4125 0.226643
0.995005 0.5 0.0749309 0.270048
0.797732 0.5 -0.6 0.21056
0.797732 0.5 0.6 0.193335
1.00005 0.5 -8.47123e-18 0.274105
0.350249 0.5 -0.9375 0.15753
0.350249 0.5 0.9375 0.141801
1.00005 0.5 -0.0749309 0.275055
0.969689 0.5 -0.2625 0.263905
0.969689 0.5 0.2625 0.25217
0.835106 0.5 -0.5625 0.218425
0.835106 0.5 0.5625 0.201083
1.00005 0.5 -0.149862 0.27416
0.939201 0.5 -0.375 0.250311
0.939201 0.5 0.375 0.235293
1.00029 0.5 0.148988 0.266643
0.075776 0.5 -1.0125 0.150881
0.075776 0.5 1.0125 0.135585
0.288069 0.5 0.975 0.138352
0.288069 0.5 -0.975 0.153987
0.872064 0.5 -0.525 0.226594
0.872064 0.5 0.525 0.209202
1.00005 0.5 0.224793 0.260667
1.00005 0.5 -0.224793 0.271362
0.969689 0.5 0.3375 0.244276
0.96969 0.5 -0.3375 0.258847
1.0271 0.5 -0.0368226 0.281086
1.0271 0.5 0.0368226 0.27924
0.90582 0.5 0.4875 0.217702
0.905821 0.5 -0.4875 0.23507
1.0271 0.5 -0.110468 0.28123
1.0271 0.5 0.110468 0.274997
0.67013 0.5 0.7875 0.164686
0.67013 0.5 -0.7875 0.182356
0.624316 0.5 0.825 0.158908
0.624316 0.5 -0.825 0.176335
0.219993 0.5 -1.0125 0.150604
0.219993 0.5 1.0125 0.135085
0.574156 0.5 -0.8625 0.170579
0.574156 0.5 0.8625 0.153424
0.715434 0.5 -0.75 0.188919
0.715434 0.5 0.75 0.170962
0.756813 0.5 0.7125 0.177577
0.756814 0.5 -0.7125 0.195787
0.523432 0.5 -0.9 0.165444
0.523432 0.5 0.9 0.148495
0.939201 0.5 -0.45 0.24357
0.939201 0.5 0.45 0.226281
1.04168 0.5 0 0.283756
1.0271 0.5 -0.184113 0.279268
1.0271 0.5 0.184113 0.269825
0 0.5 -1.04382 0.148874
0 0.5 1.04382 0.133343
0.0124865 0.5 -1.04382 0.148874
0.0124865 0.5 1.04382 0.133343
1.00005 0.5 -0.299723 0.266819
1.00005 0.5 0.299723 0.253006
1.04168 0.5 -0.0729162 0.284779
1.04168 0.5 0.0729162 0.280882
0.797732 0.5 -0.675 0.203124
0.797732 0.5 0.675 0.184633
0.467897 0.5 0.9375 0.14382
0.467897 0.5 -0.9375 0.160536
0 0.5 -1.05 0.148477
0 0.5 1.05 0.1329
0.835106 0.5 -0.6375 0.210795
0.835106 0.5 0.6375 0.192059
1.04168 0.5 -0.145832 0.283901
1.04168 0.5 0.145832 0.276106
0.969689 0.5 -0.4125 0.252344
0.96969 0.5 0.4125 0.235244
0 0.5 -1.05618 0.148082
0 0.5 1.05618 0.132458
0.0124865 0.5 -1.05618 0.148082
0.0124865 0.5 1.05618 0.132458
1.05695 0.5 -0.0360764 0.288231
1.05695 0.5 0.0360764 0.286349
0.411736 0.5 -0.975 0.156331
0.411736 0.5 0.975 0.139781
0.872064 0.5 -0.6 0.218816
0.872064 0.5 0.6 0.199877
1.0271 0.5 -0.257759 0.275459
1.0271 0.5 0.257759 0.26261
0.151149 0.5 -1.05 0.148314
0.151149 0.5 1.05 0.132622
1.05695 0.5 0.108229 0.283003
1.05695 0.5 -0.108229 0.288427
1.04168 0.5 -0.218749 0.281017
1.04168 0.5 0.218749 0.269637
0.90582 0.5 -0.5625 0.227207
0.905821 0.5 0.5625 0.208102
1.00005 0.5 -0.374654 0.260656
1.00005 0.5 0.374654 0.244044
0.350249 0.5 1.0125 0.135977
0.350249 0.5 -1.0125 0.152335
1.05695 0.5 -0.180382 0.286498
1.05695 0.5 0.180382 0.276721
1.07319 0.5 0.0709442 0.287654
0.939201 0.5 -0.525 0.235733
0.939201 0.5 0.525 0.216489
1.0271 0.5 -0.331404 0.269877
1.0271 0.5 0.331404 0.253942
1.08112 0.5 3.23815e-17 0.293358
1.04168 0.5 -0.291665 0.276306
1.04168 0.5 0.291665 0.261617
1.08112 0.5 -0.0709442 0.294454
0.969689 0.5 -0.4875 0.244594
0.96969 0.5 0.4875 0.2253
1.05695 0.5 0.252535 0.269386
1.05695 0.5 -0.252535 0.282685
0.288069 0.5 -1.05 0.148951
0.288069 0.5 1.05 0.132724
0.075776 0.5 -1.0875 0.146089
0.075776 0.5 1.0875 0.130229
1.08112 0.5 -0.141888 0.293637
1.08145 0.5 0.140165 0.285074
0.715434 0.5 0.825 0.162823
0.715434 0.5 -0.825 0.181676
0.756813 0.5 0.7875 0.169043
0.756814 0.5 -0.7875 0.188228
0.67013 0.5 -0.8625 0.175438
0.67013 0.5 0.8625 0.156941
0.797732 0.5 -0.75 0.195259
0.797732 0.5 0.75 0.175709
0.624316 0.5 -0.9 0.169722
0.624316 0.5 0.9 0.151528
1.00005 0.5 -0.449585 0.253066
1.00005 0.5 0.449585 0.234009
0.835106 0.5 -0.7125 0.202641
0.835106 0.5 0.7125 0.182747
0.574156 0.5 -0.9375 0.164279
0.574157 0.5 0.9375 0.146406
1.10076 0.5 -0.0349809 0.299354
1.10076 0.5 0.0349809 0.297341
1.08112 0.5 -0.212832 0.290795
1.08112 0.5 0.212832 0.278806
0.872064 0.5 -0.675 0.210408
0.872064 0.5 0.675 0.190188
1.04168 0.5 -0.364581 0.269886
1.04168 0.5 0.364581 0.25224
1.0271 0.5 0.405049 0.244039
1.0271 0.5 -0.405049 0.262704
1.05695 0.5 -0.324688 0.277059
1.05695 0.5 0.324688 0.260576
1.10076 0.5 -0.104943 0.299624
1.10076 0.5 0.104943 0.293212
0.523432 0.5 0.975 0.1418
0.523432 0.5 -0.975 0.159415
0.90582 0.5 0.6375 0.198049
0.905821 0.5 -0.6375 0.218559
0.219992 0.5 1.0875 0.129649
0.219992 0.5 -1.0875 0.145729
1.11376 0.5 3.81639e-17 0.301605
0.939201 0.5 0.6 0.206138
0.939201 0.5 -0.6 0.226994
1.10076 0.5 -0.174905 0.297799
1.10076 0.5 0.174905 0.287324
0.467897 0.5 -1.0125 0.154783
0.467897 0.5 1.0125 0.137444
1.11376 0.5 -0.0693118 0.302778
1.11376 0.5 0.0693118 0.29848
1.08112 0.5 0.283777 0.270593
1.08112 0.5 -0.283777 0.286067
0 0.5 -1.11882 0.144055
0 0.5 1.11882 0.127994
0.0124865 0.5 -1.11882 0.144055
0.0124865 0.5 1.11882 0.127994
0.969689 0.5 -0.5625 0.235797
0.969689 0.5 0.5625 0.214652
1.11376 0.5 0.138624 0.292921
1.11376 0.5 -0.138624 0.30202
0 0.5 -1.125 0.143653
0 0.5 1.125 0.127552
1.10076 0.5 0.244866 0.279757
1.10076 0.5 -0.244866 0.294006
0.411736 0.5 -1.05 0.150817
0.411736 0.5 1.05 0.13369
1.05695 0.5 -0.396841 0.269797
1.05695 0.5 0.396841 0.25051
1.00005 0.5 -0.524516 0.244259
1.00005 0.5 0.524516 0.223144
1.04168 0.5 -0.437497 0.261959
1.04168 0.5 0.437497 0.241742
0 0.5 -1.13118 0.143252
0 0.5 1.13118 0.127112
0.0124865 0.5 -1.13118 0.143252
0.0124865 0.5 1.13118 0.127112
1.11376 0.5 -0.207935 0.299211
1.11376 0.5 0.207935 0.286592
1.0271 0.5 -0.478694 0.254151
1.0271 0.5 0.478694 0.233156
0.151149 0.5 -1.125 0.143446
0.151149 0.5 1.125 0.12723
1.08112 0.5 -0.354722 0.279576
1.08112 0.5 0.354722 0.260995
1.13882 0.5 -0.0340295 0.309097
1.13882 0.5 0.0340295 0.306937
0.350249 0.5 -1.0875 0.147061
0.350249 0.5 1.0875 0.130162
1.13882 0.5 -0.102088 0.309404
1.13882 0.5 0.102088 0.302785
1.10076 0.5 -0.314829 0.288345
1.10076 0.5 0.314829 0.270681
0.756813 0.5 -0.8625 0.180451
0.756814 0.5 0.8625 0.160463
0.797732 0.5 -0.825 0.187115
0.797732 0.5 0.825 0.166698
1.11376 0.5 -0.277247 0.294458
1.11376 0.5 0.277247 0.27817
0.835106 0.5 0.7875 0.173296
0.835106 0.5 -0.7875 0.194138
0.715434 0.5 -0.9 0.17426
0.715434 0.5 0.9 0.154668
0.872064 0.5 -0.75 0.201568
0.872064 0.5 0.75 0.180296
1.13882 0.5 0.170147 0.296544
1.13882 0.5 -0.170147 0.307632
0.67013 0.5 -0.9375 0.168386
0.67013 0.5 0.9375 0.149202
0.905821 0.5 -0.7125 0.209395
0.905821 0.5 0.7125 0.187722
1.05695 0.5 0.468994 0.239439
1.05695 0.5 -0.468994 0.261116
0.939201 0.5 -0.675 0.217579
0.939201 0.5 0.675 0.195449
0.624316 0.5 0.975 0.144171
0.624316 0.5 -0.975 0.163005
1.04168 0.5 -0.510414 0.252738
1.04168 0.5 0.510414 0.230384
0.969689 0.5 -0.6375 0.226179
0.96969 0.5 0.6375 0.203582
0.288069 0.5 -1.125 0.143844
0.288069 0.5 1.125 0.127107
1.16179 0.5 5.78241e-19 0.314444
1.08112 0.5 0.425666 0.250244
1.08112 0.5 -0.425666 0.271514
1.13882 0.5 -0.238206 0.303794
1.13882 0.5 0.238206 0.288717
1.16179 0.5 0.0669104 0.311893
1.16179 0.5 -0.0669104 0.315731
0.574156 0.5 -1.0125 0.157895
0.574156 0.5 1.0125 0.139423
0.075776 0.5 -1.1625 0.141231
0.075776 0.5 1.1625 0.124888
1.00005 0.5 -0.599447 0.234485
1.00005 0.5 0.599447 0.211707
1.10076 0.5 0.384791 0.260311
1.10076 0.5 -0.384791 0.280969
1.0271 0.5 -0.55234 0.244436
1.0271 0.5 0.55234 0.221555
1.11376 0.5 -0.346559 0.287891
1.11376 0.5 0.346559 0.268331
1.16179 0.5 -0.133821 0.315038
1.16179 0.5 0.133821 0.305833
0.523432 0.5 -1.05 0.153324
0.523432 0.5 1.05 0.13515
1.17463 0.5 -0.0331343 0.318878
1.17463 0.5 0.0331343 0.316596
1.17463 0.5 -0.0994029 0.319251
1.17463 0.5 0.0994029 0.312112
1.16179 0.5 -0.200731 0.31223
1.16179 0.5 0.200731 0.298674
1.13882 0.5 -0.306265 0.298038
1.13882 0.5 0.306265 0.279336
0.219992 0.5 -1.1625 0.140786
0.219992 0.5 1.1625 0.124219
0.467897 0.5 -1.0875 0.14898
0.467897 0.5 1.0875 0.131124
1.17463 0.5 0.165672 0.305792
1.17463 0.5 -0.165672 0.317553
1.05695 0.5 -0.541147 0.25123
1.05695 0.5 0.541147 0.227624
1.18772 0.5 -5.78241e-19 0.321456
1.11376 0.5 -0.41587 0.279691
1.11376 0.5 0.41587 0.257305
1.18772 0.5 -0.065614 0.322822
1.18772 0.5 0.065614 0.317715
1.08112 0.5 -0.49661 0.2621
1.08112 0.5 0.49661 0.238594
1.10076 0.5 -0.454752 0.272095
1.10076 0.5 0.454752 0.248892
1.18534 0.5 0.118202 0.312538
1.16179 0.5 -0.267642 0.307376
1.16179 0.5 0.267642 0.289882
0 0.5 -1.19382 0.139187
0 0.5 1.19382 0.122675
0.0124865 0.5 1.19382 0.122675
0.0124865 0.5 -1.19382 0.139187
1.04168 0.5 -0.58333 0.242476
1.04168 0.5 0.58333 0.218424
1.18772 0.5 -0.131228 0.322189
1.17463 0.5 -0.23194 0.313664
1.17463 0.5 0.23194 0.297696
0.411736 0.5 -1.125 0.145264
0.411736 0.5 1.125 0.127655
1.13882 0.5 -0.374324 0.290491
1.13882 0.5 0.374324 0.268619
0 0.5 -1.2 0.138783
0 0.5 1.2 0.122238
0.905821 0.5 0.7875 0.177281
0.905821 0.5 -0.7875 0.199894
0.872064 0.5 -0.825 0.19247
0.872064 0.5 0.825 0.170362
0.835106 0.5 0.8625 0.163853
0.835106 0.5 -0.8625 0.185438
0.939201 0.5 -0.75 0.207722
0.939201 0.5 0.75 0.18459
0.797732 0.5 -0.9 0.178829
0.797732 0.5 0.9 0.157726
1.0271 0.5 0.625985 0.209494
1.0271 0.5 -0.625985 0.233871
0.969689 0.5 0.7125 0.192305
0.96969 0.5 -0.7125 0.215982
1.18772 0.5 -0.196842 0.319409
1.18772 0.5 0.196842 0.305244
0.756814 0.5 -0.9375 0.172573
0.756814 0.5 0.9375 0.151944
0 0.5 1.20618 0.121801
0 0.5 -1.20618 0.138381
1.00005 0.5 -0.674378 0.224006
1.00005 0.5 0.674378 0.199943
0.0124865 0.5 1.20618 0.121801
0.0124865 0.5 -1.20618 0.138381
1.16179 0.5 -0.334552 0.300627
1.16179 0.5 0.334552 0.279613
0.715434 0.5 0.975 0.146588
0.715434 0.5 -0.975 0.166777
0.151149 0.5 -1.2 0.138531
0.151149 0.5 1.2 0.121872
1.20942 0.5 0.0322645 0.326605
1.20942 0.5 -0.0322645 0.329007
1.17463 0.5 -0.298209 0.307819
1.17463 0.5 0.298209 0.288004
1.20942 0.5 -0.0967935 0.329435
1.20942 0.5 0.0967935 0.321921
0.350249 0.5 -1.1625 0.141749
0.350249 0.5 1.1625 0.124395
0.67013 0.5 1.0125 0.141547
0.67013 0.5 -1.0125 0.16129
1.11376 0.5 0.485183 0.245349
1.11376 0.5 -0.485183 0.270083
1.18772 0.5 0.262456 0.296248
1.18772 0.5 -0.262456 0.314526
1.10076 0.5 -0.524714 0.261952
1.10076 0.5 0.524714 0.236686
1.20942 0.5 -0.161322 0.327836
1.20942 0.5 0.161322 0.315393
1.08112 0.5 -0.567554 0.251579
1.08112 0.5 0.567554 0.226305
0.624316 0.5 -1.05 0.156263
0.624316 0.5 1.05 0.136906
1.13882 0.5 -0.442383 0.281372
1.13882 0.5 0.442383 0.256809
1.05695 0.5 0.6133 0.215321
1.05695 0.5 -0.6133 0.24042
1.16179 0.5 -0.401463 0.292146
1.16179 0.5 0.401463 0.2681
0.574156 0.5 -1.0875 0.151502
0.574156 0.5 1.0875 0.132536
1.17463 0.5 0.364477 0.27693
1.17463 0.5 -0.364477 0.300098
1.20942 0.5 -0.225851 0.323924
1.20942 0.5 0.225851 0.30705
1.23036 0.5 -1.32995e-17 0.334309
1.2294 0.5 0.0634819 0.329883
1.04168 0.5 -0.656246 0.23148
1.04168 0.5 0.656246 0.206105
1.23036 0.5 -0.0634819 0.335786
1.18772 0.5 0.32807 0.285747
1.18772 0.5 -0.32807 0.307704
0.288069 0.5 -1.2 0.138704
0.288069 0.5 1.2 0.121538
1.23036 0.5 -0.126964 0.335239
1.23036 0.5 0.126964 0.324983
0.075776 0.5 -1.2375 0.136349
0.075776 0.5 1.2375 0.119599
0.523432 0.5 -1.125 0.147233
0.523432 0.5 1.125 0.128605
1.0271 0.5 -0.69963 0.222721
1.0271 0.5 0.69963 0.197194
1.24274 0.5 0.0314313 0.336657
1.24274 0.5 -0.0314313 0.339248
1.20942 0.5 0.29038 0.297068
1.20942 0.5 -0.29038 0.31802
1.11376 0.5 -0.554494 0.259317
1.11376 0.5 0.554494 0.232723
1.23036 0.5 -0.190445 0.332493
1.23036 0.5 0.190445 0.31742
1.24274 0.5 -0.0942942 0.339731
1.24274 0.5 0.0942942 0.331824
1.13882 0.5 0.510442 0.244178
1.13882 0.5 -0.510442 0.270912
0.969689 0.5 -0.7875 0.205448
0.969689 0.5 0.7875 0.180945
1.00005 0.5 -0.749309 0.213088
1.00005 0.5 0.749309 0.188048
0.939201 0.5 -0.825 0.197632
0.939201 0.5 0.825 0.173734
0.90582 0.5 0.8625 0.166914
0.90582 0.5 -0.8625 0.190239
1.17463 0.5 -0.430746 0.290742
1.17463 0.5 0.430746 0.264721
1.10076 0.5 -0.594676 0.250802
1.10076 0.5 0.594676 0.223949
1.18772 0.5 -0.393684 0.299096
1.18772 0.5 0.393684 0.273971
1.24274 0.5 -0.157157 0.338257
1.24274 0.5 0.157157 0.325088
1.16179 0.5 -0.468373 0.28216
1.16179 0.5 0.468373 0.255603
0.467897 0.5 -1.1625 0.143187
0.467897 0.5 1.1625 0.124912
0.872064 0.5 -0.9 0.183275
0.872064 0.5 0.9 0.160534
1.25401 0.5 2.08167e-17 0.341251
0.835106 0.5 0.9375 0.154544
0.835106 0.5 -0.9375 0.17669
1.25401 0.5 -0.0622994 0.342814
1.25401 0.5 0.0622994 0.337339
1.08112 0.5 -0.638498 0.240256
1.08112 0.5 0.638498 0.213634
1.23036 0.5 -0.253927 0.327548
1.23036 0.5 0.253927 0.308101
0.219992 0.5 1.2375 0.118848
0.219992 0.5 -1.2375 0.135813
1.25309 0.5 0.121964 0.331658
1.05695 0.5 0.685452 0.202759
1.05695 0.5 -0.685452 0.229015
0.797732 0.5 0.975 0.148894
0.797732 0.5 -0.975 0.170528
1.25401 0.5 -0.124599 0.342339
1.20942 0.5 -0.354909 0.310158
1.20942 0.5 0.354909 0.285662
1.24274 0.5 -0.220019 0.334334
1.24274 0.5 0.220019 0.316498
0.756814 0.5 -1.0125 0.164704
0.756813 0.5 1.0125 0.14357
1.25401 0.5 -0.186898 0.339647
1.25401 0.5 0.186898 0.32393
0.411736 0.5 -1.2 0.139717
0.411736 0.5 1.2 0.121712
0 0.5 -1.26882 0.13431
0 0.5 1.26882 0.11742
0.0124865 0.5 1.26882 0.11742
0.0124865 0.5 -1.26882 0.13431
0.715434 0.5 -1.05 0.159319
0.715434 0.5 1.05 0.138659
1.23036 0.5 -0.31741 0.320589
1.23036 0.5 0.31741 0.29722
1.04168 0.5 -0.729162 0.220031
1.04168 0.5 0.729162 0.193649
1.18772 0.5 -0.459298 0.288932
1.18772 0.5 0.459298 0.261183
1.24274 0.5 -0.282882 0.328391
1.24274 0.5 0.282882 0.306225
0 0.5 -1.275 0.133907
0 0.5 1.275 0.116989
1.27472 0.5 -0.0306319 0.34953
1.27472 0.5 0.0306319 0.346771
1.17463 0.5 0.497015 0.251657
1.17463 0.5 -0.497015 0.279963
1.11376 0.5 -0.623806 0.247692
1.11376 0.5 0.623806 0.2197
1.13882 0.5 -0.578501 0.259404
1.13882 0.5 0.578501 0.230987
0.67013 0.5 -1.0875 0.15423
0.67013 0.5 1.0875 0.134045
1.27472 0.5 -0.0918959 0.35008
1.27472 0.5 0.0918959 0.340227
1.25401 0.5 -0.249197 0.334699
1.25401 0.5 0.249197 0.314421
1.16179 0.5 -0.535284 0.270935
1.16179 0.5 0.535284 0.242394
1.20942 0.5 -0.419438 0.300583
1.20942 0.5 0.419438 0.273075
0 0.5 -1.28118 0.133505
0 0.5 1.28118 0.116559
0.0124865 0.5 1.28118 0.116559
0.0124865 0.5 -1.28118 0.133505
1.27472 0.5 0.15316 0.334839
1.27472 0.5 -0.15316 0.348706
0.151149 0.5 -1.275 0.133609
0.151149 0.5 1.275 0.116582
1.0271 0.5 0.773275 0.184872
1.0271 0.5 -0.773275 0.211271
1.10076 0.5 0.664638 0.210963
1.10076 0.5 -0.664638 0.238981
0.350249 0.5 -1.2375 0.136438
0.350249 0.5 1.2375 0.118709
0.624316 0.5 -1.125 0.149567
0.624316 0.5 1.125 0.129794
1.23036 0.5 0.380892 0.285003
1.23036 0.5 -0.380892 0.311739
1.24274 0.5 -0.345745 0.320403
1.24274 0.5 0.345745 0.294486
1.2906 0.5 0 0.35349
1.2906 0.5 -0.0604698 0.355201
1.2906 0.5 0.0604698 0.349513
1.25401 0.5 -0.311497 0.327699
1.25401 0.5 0.311497 0.303321
1.27472 0.5 -0.214423 0.344803
1.27472 0.5 0.214423 0.326012
1.08112 0.5 0.709442 0.200815
1.08112 0.5 -0.709442 0.228439
1.00005 0.5 -0.824239 0.201984
1.00005 0.5 0.824239 0.176207
1.2906 0.5 -0.12094 0.354853
1.2906 0.5 0.12094 0.343438
0.574156 0.5 -1.1625 0.145157
0.574156 0.5 1.1625 0.125803
0.969689 0.5 -0.8625 0.194809
0.96969 0.5 0.8625 0.169718
1.18772 0.5 0.524912 0.24766
1.18772 0.5 -0.524912 0.277475
1.05695 0.5 -0.757605 0.217286
1.05695 0.5 0.757605 0.190169
0.939201 0.5 -0.9 0.1875
0.939201 0.5 0.9 0.163074
1.30091 0.5 -0.0299772 0.358333
1.30091 0.5 0.0299772 0.355422
1.20942 0.5 -0.483967 0.289517
1.20942 0.5 0.483967 0.259589
1.17463 0.5 -0.563284 0.268076
1.17463 0.5 0.563284 0.238008
1.2906 0.5 -0.181409 0.352261
1.2906 0.5 0.181409 0.335432
0.90582 0.5 0.9375 0.156753
0.90582 0.5 -0.9375 0.180595
1.30091 0.5 -0.0899316 0.358959
1.30091 0.5 0.0899316 0.348015
1.27472 0.5 0.275687 0.315463
1.27472 0.5 -0.275687 0.338827
0.288069 0.5 -1.275 0.133571
0.288069 0.5 1.275 0.116056
0.872064 0.5 -0.975 0.174123
0.872064 0.5 0.975 0.150922
1.23036 0.5 -0.444373 0.30124