# pMean  POINT_DATA 63140
# x  y  z  pMean
0 0.1 0 0.212109
0 0.1 -0.0179898 0.212299
0 0.1 0.0179898 0.211923
0.0363518 0.1 0.0179898 0.211923
0.0363518 0.1 -0.0179898 0.212299
0 0.1 -0.0570102 0.21257
0 0.1 0.0570102 0.211377
0.0363518 0.1 0.0570102 0.211377
0.0363518 0.1 -0.0570102 0.21257
0 0.1 -0.075 0.21263
0 0.1 0.075 0.211062
0.075776 0.1 -0.0375 0.212507
0.075776 0.1 0.0375 0.211722
0 0.1 -0.0929898 0.212693
0 0.1 0.0929898 0.210749
0.0363518 0.1 -0.0929898 0.212693
0.0363518 0.1 0.0929898 0.210749
0 0.1 -0.13201 0.212667
0 0.1 0.13201 0.209922
0.075776 0.1 -0.1125 0.212764
0.075776 0.1 0.1125 0.210412
0.0363518 0.1 -0.13201 0.212667
0.0363518 0.1 0.13201 0.209922
0 0.1 -0.15 0.212581
0 0.1 0.15 0.209474
0.150379 0.1 -2.22623e-17 0.204708
0 0.1 -0.16799 0.212499
0 0.1 0.16799 0.209028
0.150379 0.1 -0.075 0.205178
0.150379 0.1 0.075 0.203601
0.0363518 0.1 -0.16799 0.212499
0.0363518 0.1 0.16799 0.209028
0.075776 0.1 -0.1875 0.21241
0.075776 0.1 0.1875 0.208546
0 0.1 -0.20701 0.212154
0 0.1 0.20701 0.207912
0.0363518 0.1 -0.20701 0.212154
0.0363518 0.1 0.20701 0.207912
0.150379 0.1 -0.15 0.204987
0.150379 0.1 0.15 0.201866
0.219993 0.1 -0.0375 0.198032
0.219993 0.1 0.0375 0.197257
0 0.1 -0.225 0.211921
0 0.1 0.225 0.20733
0 0.1 -0.24299 0.211691
0 0.1 0.24299 0.206751
0.0363518 0.1 0.24299 0.206751
0.0363518 0.1 -0.24299 0.211691
0.219993 0.1 -0.1125 0.198101
0.219993 0.1 0.1125 0.195704
0.150379 0.1 -0.225 0.20411
0.150379 0.1 0.225 0.199507
0.075776 0.1 -0.2625 0.211442
0.075776 0.1 0.2625 0.206124
0 0.1 -0.28201 0.211021
0 0.1 0.28201 0.20534
0.0363518 0.1 -0.28201 0.211021
0.0363518 0.1 0.28201 0.20534
0.287374 0.1 -2.89121e-19 0.200836
0.219992 0.1 0.1875 0.193505
0.219992 0.1 -0.1875 0.197378
0.287374 0.1 -0.075 0.201303
0.287374 0.1 0.075 0.199647
0 0.1 -0.3 0.210637
0 0.1 0.3 0.204622
0 0.1 0.31799 0.203905
0 0.1 -0.31799 0.210254
0.0363518 0.1 -0.31799 0.210254
0.0363518 0.1 0.31799 0.203905
0.287374 0.1 0.15 0.197754
0.287374 0.1 -0.15 0.201035
0.150379 0.1 -0.3 0.202598
0.150379 0.1 0.3 0.196534
0.219993 0.1 0.2625 0.190577
0.219993 0.1 -0.2625 0.195935
0.075776 0.1 -0.3375 0.209841
0.075776 0.1 0.3375 0.203129
0.350249 0.1 -0.0375 0.204322
0.350249 0.1 0.0375 0.203458
0 0.1 -0.35701 0.209272
0 0.1 0.35701 0.202206
0.0363518 0.1 -0.35701 0.209272
0.0363518 0.1 0.35701 0.202206
0.287374 0.1 -0.225 0.200026
0.287374 0.1 0.225 0.195175
0.350249 0.1 -0.1125 0.204476
0.350249 0.1 0.1125 0.201896
0 0.1 -0.375 0.208751
0 0.1 0.375 0.201359
0 0.1 -0.39299 0.208231
0 0.1 0.39299 0.200513
0.0363518 0.1 -0.39299 0.208231
0.0363518 0.1 0.39299 0.200513
0.350249 0.1 -0.1875 0.203899
0.350249 0.1 0.1875 0.199637
0.219992 0.1 -0.3375 0.193917
0.219992 0.1 0.3375 0.187053
0.150379 0.1 0.375 0.193019
0.150379 0.1 -0.375 0.200499
0.411108 0.1 4.33681e-19 0.208896
0.287374 0.1 -0.3 0.198335
0.287374 0.1 0.3 0.191946
0.411108 0.1 -0.075 0.209393
0.411108 0.1 0.075 0.207605
0.075776 0.1 -0.4125 0.20767
0.075776 0.1 0.4125 0.199597
0 0.1 0.43201 0.19855
0 0.1 -0.43201 0.206957
0.0363518 0.1 0.43201 0.19855
0.0363518 0.1 -0.43201 0.206957
0.411108 0.1 -0.15 0.209086
0.411108 0.1 0.15 0.205532
0.350249 0.1 -0.2625 0.202598
0.350249 0.1 0.2625 0.19671
0 0.1 -0.45 0.206303
0 0.1 0.45 0.197588
0.219992 0.1 0.4125 0.183066
0.219992 0.1 -0.4125 0.191331
0 0.1 -0.46799 0.20565
0 0.1 0.46799 0.196627
0.411108 0.1 -0.225 0.207984
0.411108 0.1 0.225 0.202707
0.467897 0.1 -0.0375 0.214161
0.467897 0.1 0.0375 0.213233
0.0363518 0.1 0.46799 0.196627
0.0363518 0.1 -0.46799 0.20565
0.287374 0.1 -0.375 0.196018
0.287374 0.1 0.375 0.188151
0.150379 0.1 0.45 0.189029
0.150379 0.1 -0.45 0.197852
0.467897 0.1 0.1125 0.211428
0.467897 0.1 -0.1125 0.214203
0.350249 0.1 -0.3375 0.200596
0.350249 0.1 0.3375 0.193171
0.075776 0.1 -0.4875 0.204944
0.075776 0.1 0.4875 0.195586
0.467897 0.1 0.1875 0.208775
0.467897 0.1 -0.1875 0.213366
0 0.1 -0.50701 0.204098
0 0.1 0.50701 0.194426
0.0363518 0.1 -0.50701 0.204098
0.0363518 0.1 0.50701 0.194426
0.411108 0.1 0.3 0.199184
0.411108 0.1 -0.3 0.206115
0.522865 0.1 1.41031e-17 0.219687
0 0.1 -0.525 0.203322
0 0.1 0.525 0.19336
0.522865 0.1 -0.075 0.220186
0.522865 0.1 0.075 0.218239
0.287374 0.1 0.45 0.183849
0.287374 0.1 -0.45 0.193113
0.219992 0.1 0.4875 0.178657
0.219992 0.1 -0.4875 0.188244
0.467897 0.1 -0.2625 0.211686
0.467897 0.1 0.2625 0.205333
0.350249 0.1 -0.4125 0.197932
0.350249 0.1 0.4125 0.189046
0 0.1 -0.54299 0.202546
0 0.1 0.54299 0.192295
0.522865 0.1 0.15 0.215866
0.522865 0.1 -0.15 0.219736
0.0363518 0.1 0.54299 0.192295
0.0363518 0.1 -0.54299 0.202546
0.150379 0.1 -0.525 0.194716
0.150379 0.1 0.525 0.184635
0.411108 0.1 -0.375 0.203518
0.411108 0.1 0.375 0.195017
0.075776 0.1 -0.5625 0.201707
0.075776 0.1 0.5625 0.191142
0.522865 0.1 -0.225 0.218355
0.522865 0.1 0.225 0.21261
0.574156 0.1 0.0375 0.224934
0.574157 0.1 -0.0375 0.225959
0.467897 0.1 -0.3375 0.209209
0.467897 0.1 0.3375 0.201174
0 0.1 -0.58201 0.200744
0 0.1 0.58201 0.189886
0.0363518 0.1 -0.58201 0.200744
0.0363518 0.1 0.58201 0.189886
0.574157 0.1 -0.1125 0.225961
0.574157 0.1 0.1125 0.222908
0.287374 0.1 -0.525 0.189693
0.287374 0.1 0.525 0.179116
0 0.1 -0.6 0.199858
0 0.1 0.6 0.188732
0.350249 0.1 0.4875 0.184368
0.350249 0.1 -0.4875 0.194657
0.522865 0.1 -0.3 0.216083
0.522865 0.1 0.3 0.208541
0.219992 0.1 -0.5625 0.184763
0.219992 0.1 0.5625 0.173958
0.574156 0.1 -0.1875 0.224956
0.574156 0.1 0.1875 0.21991
0.411108 0.1 0.45 0.190255
0.411108 0.1 -0.45 0.200245
0 0.1 -0.61799 0.198974
0 0.1 0.61799 0.187578
0.150379 0.1 -0.6 0.191142
0.150379 0.1 0.6 0.179892
0.0363518 0.1 -0.61799 0.198974
0.0363518 0.1 0.61799 0.187578
0.467897 0.1 -0.4125 0.205986
0.467897 0.1 0.4125 0.196356
0.623803 0.1 2.34188e-17 0.232284
0.623803 0.1 0.075 0.230657
0.623803 0.1 -0.075 0.232815
0.574156 0.1 0.2625 0.215997
0.574156 0.1 -0.2625 0.222965
0.623803 0.1 0.15 0.227966
0.623803 0.1 -0.15 0.232246
0.075776 0.1 0.6375 0.186329
0.075776 0.1 -0.6375 0.198017
0.522865 0.1 -0.375 0.212976
0.522865 0.1 0.375 0.203731
0 0.1 0.65701 0.184993
0 0.1 -0.65701 0.196951
0.0363518 0.1 0.65701 0.184993
0.0363518 0.1 -0.65701 0.196951
0.350249 0.1 0.5625 0.179235
0.350249 0.1 -0.5625 0.190831
0.623803 0.1 0.225 0.224256
0.623803 0.1 -0.225 0.230594
0.287374 0.1 -0.6 0.185815
0.287374 0.1 0.6 0.174025
0.574157 0.1 -0.3375 0.220039
0.574157 0.1 0.3375 0.211253
0.411108 0.1 0.525 0.184975
0.411108 0.1 -0.525 0.19636
0.67013 0.1 0.0375 0.238307
0.67013 0.1 -0.0375 0.239447
0.219992 0.1 -0.6375 0.180882
0.219993 0.1 0.6375 0.168954
0 0.1 -0.675 0.195971
0 0.1 0.675 0.183765
0.467897 0.1 -0.4875 0.202083
0.467897 0.1 0.4875 0.19096
0.67013 0.1 -0.1125 0.239404
0.67013 0.1 0.1125 0.236
0.522865 0.1 0.45 0.198262
0.522865 0.1 -0.45 0.209103
0.150379 0.1 0.675 0.174836
0.150379 0.1 -0.675 0.187166
0.623803 0.1 0.3 0.219604
0.623803 0.1 -0.3 0.227903
0 0.1 -0.69299 0.194992
0 0.1 0.69299 0.182536
0.0363518 0.1 -0.69299 0.194992
0.0363518 0.1 0.69299 0.182536
0.67013 0.1 -0.1875 0.238178
0.67013 0.1 0.1875 0.232577
0.574156 0.1 0.4125 0.205761
0.574157 0.1 -0.4125 0.216257
0.714971 0.1 -2.8382e-17 0.246296
0.075776 0.1 -0.7125 0.193933
0.075776 0.1 0.7125 0.181207
0.714971 0.1 -0.075 0.24686
0.714971 0.1 0.075 0.24446
0.67013 0.1 0.2625 0.22809
0.67013 0.1 -0.2625 0.235803
0.411108 0.1 -0.6 0.191932
0.411108 0.1 0.6 0.179265
0.350249 0.1 0.6375 0.173728
0.350249 0.1 -0.6375 0.186524
0.623803 0.1 0.375 0.214105
0.623803 0.1 -0.375 0.224247
0.714971 0.1 -0.15 0.246144
0.714971 0.1 0.15 0.241389
0.467897 0.1 -0.5625 0.197572
0.467897 0.1 0.5625 0.185076
0 0.1 -0.73201 0.192778
0 0.1 0.73201 0.179806
0.0363518 0.1 0.73201 0.179806
0.0363518 0.1 -0.73201 0.192778
0.287374 0.1 -0.675 0.181525
0.287374 0.1 0.675 0.168622
0.522865 0.1 -0.525 0.204543
0.522865 0.1 0.525 0.192228
0.219993 0.1 -0.7125 0.176644
0.219992 0.1 0.7125 0.163678
0.714971 0.1 -0.225 0.244166
0.714971 0.1 0.225 0.237143
0 0.1 0.75 0.178518
0 0.1 -0.75 0.191717
0.67013 0.1 -0.3375 0.232348
0.67013 0.1 0.3375 0.222651
0.574156 0.1 -0.4875 0.211697
0.574157 0.1 0.4875 0.199618
0.756813 0.1 0.0375 0.252838
0.756814 0.1 -0.0375 0.254104
0.150379 0.1 0.746002 0.16993
0.150379 0.1 -0.75 0.182841
0.756813 0.1 -0.1125 0.253999
0.756813 0.1 0.1125 0.250215
0 0.1 0.76799 0.17723
0 0.1 -0.76799 0.190656
0.0363518 0.1 0.76799 0.17723
0.0363518 0.1 -0.76799 0.190656
0.623803 0.1 -0.45 0.219712
0.623803 0.1 0.45 0.207859
0.714971 0.1 -0.3 0.240987
0.714971 0.1 0.3 0.231809
0.756814 0.1 -0.1875 0.252512
0.756814 0.1 0.1875 0.246298
0.67013 0.1 -0.4125 0.227909
0.67013 0.1 0.4125 0.216357
0.411108 0.1 0.675 0.173209
0.411108 0.1 -0.675 0.18704
0.467897 0.1 0.6375 0.178791
0.467897 0.1 -0.6375 0.192533
0.075776 0.1 0.7875 0.175836
0.075776 0.1 -0.7875 0.189508
0.350249 0.1 -0.7125 0.181808
0.350249 0.1 0.7125 0.167928
0.522865 0.1 -0.6 0.199384
0.522865 0.1 0.6 0.185728
0.797314 0.1 -3.59473e-17 0.261268
0.287374 0.1 0.746002 0.1632
0.797314 0.1 -0.075 0.261877
0.797314 0.1 0.075 0.259195
0.756814 0.1 -0.2625 0.249701
0.756814 0.1 0.2625 0.241161
0.287374 0.1 -0.75 0.176882
0.574156 0.1 -0.5625 0.206458
0.574156 0.1 0.5625 0.192935
0 0.1 0.80701 0.174385
0 0.1 -0.80701 0.188281
0.714971 0.1 -0.375 0.236689
0.714971 0.1 0.375 0.225507
0.0363518 0.1 0.80701 0.174385
0.0363518 0.1 -0.80701 0.188281
0.797314 0.1 -0.15 0.261004
0.797314 0.1 0.15 0.255698
0.623803 0.1 -0.525 0.214398
0.623803 0.1 0.525 0.200982
0.219992 0.1 0.7875 0.158179
0.219992 0.1 -0.7875 0.172097
0.149792 0.1 0.80701 0.16536
0 0.1 0.825 0.173051
0 0.1 -0.825 0.187152
0.797314 0.1 -0.225 0.25867
0.797314 0.1 0.225 0.250854
0.756813 0.1 -0.3375 0.245642
0.756813 0.1 0.3375 0.234914
0.67013 0.1 0.4875 0.20933
0.67013 0.1 -0.4875 0.222577
0.835106 0.1 -0.0375 0.269541
0.835106 0.1 0.0375 0.268125
0.150379 0.1 -0.825 0.178222
0.835106 0.1 -0.1125 0.269397
0.835106 0.1 0.1125 0.265146
0 0.1 -0.84299 0.186024
0 0.1 0.84299 0.171717
0.0363518 0.1 -0.84299 0.186024
0.0363518 0.1 0.84299 0.171717
0.714971 0.1 -0.45 0.231382
0.714971 0.1 0.45 0.218364
0.411108 0.1 0.746002 0.167157
0.797314 0.1 -0.3 0.254952
0.797314 0.1 0.3 0.244765
0.467897 0.1 -0.7125 0.187058
0.467897 0.1 0.7125 0.172195
0.522865 0.1 0.675 0.178859
0.522865 0.1 -0.675 0.193721
0.411108 0.1 -0.75 0.181764
0.835106 0.1 -0.1875 0.267643
0.835107 0.1 0.1875 0.260689
0.286844 0.1 0.80701 0.158543
0.574156 0.1 0.6375 0.185817
0.574157 0.1 -0.6375 0.20064
0.350249 0.1 -0.7875 0.176759
0.350249 0.1 0.7875 0.161913
0.756813 0.1 -0.4125 0.240428
0.756814 0.1 0.4125 0.227715
0.623803 0.1 -0.6 0.208418
0.623803 0.1 0.6 0.193596
0.075776 0.1 0.8625 0.170273
0.075776 0.1 -0.8625 0.184804
0.871687 0.1 -3.2767e-18 0.276785
0.287374 0.1 -0.825 0.17195
0.871687 0.1 -0.075 0.277445
0.871687 0.1 0.075 0.274453
0.67013 0.1 -0.5625 0.216481
0.67013 0.1 0.5625 0.201709
0.835106 0.1 0.2625 0.254844
0.835106 0.1 -0.2625 0.264374
0.797314 0.1 -0.375 0.249945
0.797314 0.1 0.375 0.237575
0 0.1 -0.88201 0.183519
0 0.1 0.88201 0.168789
0.0363518 0.1 0.88201 0.168789
0.0363518 0.1 -0.88201 0.183519
0.871687 0.1 0.15 0.270485
0.871687 0.1 -0.15 0.276405
0.714971 0.1 0.525 0.210514
0.714971 0.1 -0.525 0.225192
0.219993 0.1 0.8625 0.15252
0.219992 0.1 -0.8625 0.1673
0 0.1 0.9 0.167425
0 0.1 -0.9 0.182337
0.756813 0.1 0.4875 0.219694
0.756814 0.1 -0.4875 0.23421
0.871687 0.1 0.225 0.264984
0.871687 0.1 -0.225 0.27368
0.835106 0.1 -0.3375 0.259656
0.835106 0.1 0.3375 0.247739
0.41063 0.1 0.80701 0.161964
0.90582 0.1 -0.0375 0.285301
0.905821 0.1 0.0375 0.283745
0.522865 0.1 0.746002 0.172005
0.150379 0.1 0.9 0.158326
0.90582 0.1 0.1125 0.280376
0.905821 0.1 -0.1125 0.285112
0.522865 0.1 -0.75 0.187652
0.574156 0.1 0.7125 0.178376
0.574156 0.1 -0.7125 0.194351
0.797314 0.1 -0.45 0.243788
0.797314 0.1 0.45 0.229443
0.467897 0.1 -0.7875 0.181228
0.467897 0.1 0.7875 0.165374
0.150379 0.1 -0.903998 0.173659
0 0.1 0.91799 0.16606
0 0.1 -0.91799 0.181156
0.0363518 0.1 0.91799 0.16606
0.0363518 0.1 -0.91799 0.181156
0.623803 0.1 0.675 0.18582
0.623803 0.1 -0.675 0.201891
0.411108 0.1 -0.825 0.176184
0.871687 0.1 0.3 0.258071
0.871687 0.1 -0.3 0.269364
0.67013 0.1 -0.6375 0.209747
0.67013 0.1 0.6375 0.19362
0.90582 0.1 -0.1875 0.283043
0.90582 0.1 0.1875 0.275324
0.350249 0.1 0.8625 0.155747
0.350249 0.1 -0.8625 0.171447
0.835106 0.1 -0.4125 0.253641
0.835106 0.1 0.4125 0.239558
0.714971 0.1 -0.6 0.218258
0.714971 0.1 0.6 0.202107
0.93886 0.1 -1.15648e-17 0.292382
0.075776 0.1 0.9375 0.164582
0.075776 0.1 -0.9375 0.179877
0.93886 0.1 0.075 0.289763
0.93886 0.1 -0.075 0.293126
0.756813 0.1 0.5625 0.210995
0.756814 0.1 -0.5625 0.227126
0.905821 0.1 -0.2625 0.279248
0.905821 0.1 0.2625 0.268693
0.287374 0.1 0.9 0.151162
0.287374 0.1 -0.903998 0.167344
0.871687 0.1 0.375 0.249912
0.871687 0.1 -0.375 0.263576
0.93886 0.1 -0.15 0.29195
0.93886 0.1 0.15 0.285291
0.797314 0.1 0.525 0.220526
0.797314 0.1 -0.525 0.236635
0 0.1 0.95701 0.16308
0 0.1 -0.95701 0.178549
0.0363518 0.1 0.95701 0.16308
0.0363518 0.1 -0.95701 0.178549
0.522433 0.1 0.80701 0.166169
0.219992 0.1 0.9375 0.146765
0.219992 0.1 -0.9375 0.162299
0.93886 0.1 0.225 0.279104
0.93886 0.1 -0.225 0.288847
0.90582 0.1 0.3375 0.260645
0.905821 0.1 -0.3375 0.273784
0.835106 0.1 -0.4875 0.246487
0.835107 0.1 0.4875 0.230465
0.969689 0.1 -0.0375 0.300928
0.969689 0.1 0.0375 0.299181
0.61613 0.1 0.75 0.177776
0.574156 0.1 -0.7875 0.187702
0.574156 0.1 0.7875 0.170714
0 0.1 0.975 0.161698
0 0.1 -0.975 0.177327
0.623803 0.1 -0.75 0.194937
0.969689 0.1 -0.1125 0.300786
0.969689 0.1 0.1125 0.295382
0.522865 0.1 -0.825 0.181274
0.67013 0.1 0.7125 0.185203
0.67013 0.1 -0.7125 0.202512
0.871687 0.1 -0.45 0.256484
0.871687 0.1 0.45 0.240699
0.467897 0.1 0.8625 0.158409
0.467897 0.1 -0.8625 0.175133
0.714971 0.1 -0.675 0.210732
0.714971 0.1 0.675 0.193294
0.93886 0.1 -0.3 0.283943
0.93886 0.1 0.3 0.271343
0.150379 0.1 0.975 0.152571
0.150379 0.1 -0.975 0.168321
0.969689 0.1 -0.1875 0.298483
0.969689 0.1 0.1875 0.289729
0.411108 0.1 0.9 0.153777
0.756813 0.1 0.6375 0.201812
0.756814 0.1 -0.6375 0.219341
0.990306 0.1 -2.19732e-17 0.304445
0 0.1 0.99299 0.160316
0 0.1 -0.99299 0.176106
0.411108 0.1 -0.903998 0.170987
0.990306 0.1 -0.075 0.30527
0.990306 0.1 0.075 0.301578
0.0363518 0.1 0.99299 0.160316
0.0363518 0.1 -0.99299 0.176106
0.90582 0.1 -0.4125 0.266852
0.905821 0.1 0.4125 0.251371
0.797314 0.1 -0.6 0.228655
0.797314 0.1 0.6 0.211008
0.350249 0.1 0.9375 0.149482
0.350249 0.1 -0.9375 0.165937
0.990306 0.1 0.15 0.296666
0.990306 0.1 -0.15 0.303984
0.969689 0.1 -0.2625 0.294247
0.969689 0.1 0.2625 0.282333
0.835106 0.1 -0.5625 0.238363
0.835106 0.1 0.5625 0.220639
0.93886 0.1 -0.375 0.277377
0.93886 0.1 0.375 0.262198
0.075776 0.1 1.0125 0.158821
0.075776 0.1 -1.0125 0.174784
0.990306 0.1 -0.225 0.300555
0.990306 0.1 0.225 0.289885
0.287374 0.1 0.975 0.145125
0.287374 0.1 -0.975 0.161457
0.871687 0.1 -0.525 0.248268
0.871687 0.1 0.525 0.230628
1.02149 0.1 -0.0369628 0.314362
1.02149 0.1 0.0369628 0.312507
0.969689 0.1 -0.3375 0.288139
0.969689 0.1 0.3375 0.273385
1.02149 0.1 -0.110888 0.31424
1.02149 0.1 0.110888 0.308343
0.90582 0.1 0.4875 0.241098
0.90582 0.1 -0.4875 0.258613
0.623803 0.1 0.819003 0.171133
0 0.1 1.03201 0.157312
0 0.1 -1.03201 0.173427
0.0363518 0.1 1.03201 0.157312
0.0363518 0.1 -1.03201 0.173427
0.67013 0.1 -0.7875 0.194906
0.67013 0.1 0.7875 0.17658
0.623803 0.1 -0.825 0.187677
0.990306 0.1 -0.3 0.295153
0.990306 0.1 0.3 0.281389
0.219992 0.1 -1.0125 0.157152
0.219993 0.1 1.0125 0.140958
0.574156 0.1 0.8625 0.162934
0.574157 0.1 -0.8625 0.180797
0.714971 0.1 -0.75 0.202761
0.714971 0.1 0.75 0.184216
1.02149 0.1 0.184814 0.302158
1.02149 0.1 -0.184814 0.311663
0.756814 0.1 -0.7125 0.211024
0.756814 0.1 0.7125 0.192286
0.522865 0.1 0.9 0.157002
0.93886 0.1 -0.45 0.269343
0.93886 0.1 0.45 0.251891
1.04168 0.1 0 0.319057
1.04168 0.1 -0.0729162 0.319982
1.04168 0.1 0.0729162 0.315984
0.522865 0.1 -0.903998 0.17539
0.797314 0.1 -0.675 0.220031
0.797314 0.1 0.675 0.201077
0.467897 0.1 0.9375 0.151376
0.467897 0.1 -0.9375 0.168852
0 0.1 1.05 0.155925
0 0.1 -1.05 0.172179
0.835106 0.1 -0.6375 0.229465
0.835106 0.1 0.6375 0.210313
1.04168 0.1 -0.145832 0.318695
1.04168 0.1 0.145832 0.310736
1.02149 0.1 -0.25874 0.30699
1.02149 0.1 0.25874 0.294063
0.969689 0.1 -0.4125 0.280398
0.969689 0.1 0.4125 0.263098
0.411108 0.1 0.975 0.147112
0.411108 0.1 -0.975 0.164409
0.871687 0.1 -0.6 0.239134
0.871687 0.1 0.6 0.219911
1.0579 0.1 -0.0360525 0.324454
1.0579 0.1 0.0360525 0.322507
0.990306 0.1 -0.375 0.28792
0.990306 0.1 0.375 0.271392
0.150379 0.1 1.05 0.146779
0.150379 0.1 -1.05 0.163148
1.0579 0.1 0.108157 0.318252
1.0579 0.1 -0.108157 0.324401
1.04168 0.1 -0.218749 0.315117
1.04168 0.1 0.218749 0.303529
0.90582 0.1 -0.5625 0.249298
0.90582 0.1 0.5625 0.230037
0 0.1 -1.06799 0.170931
0 0.1 1.06799 0.154537
0.0363518 0.1 -1.06799 0.170931
0.0363518 0.1 1.06799 0.154537
0.350249 0.1 1.0125 0.143183
0.350249 0.1 -1.0125 0.160287
1.0579 0.1 -0.180262 0.321947
1.0579 0.1 0.180262 0.311999
1.02149 0.1 -0.332665 0.300267
1.02149 0.1 0.332665 0.284268
0.93886 0.1 -0.525 0.260045
0.93886 0.1 0.525 0.240648
1.08012 0.1 5.49329e-18 0.329736
1.04168 0.1 -0.291665 0.309446
1.04168 0.1 0.291665 0.294514
1.08012 0.1 0.0709941 0.326546
1.08012 0.1 -0.0709941 0.33076
0.969689 0.1 -0.4875 0.271192
0.96969 0.1 0.4875 0.251728
1.0579 0.1 0.252367 0.303843
1.0579 0.1 -0.252367 0.317359
0.990306 0.1 -0.45 0.279067
0.990306 0.1 0.45 0.260142
0.287374 0.1 -1.05 0.156009
0.287374 0.1 1.05 0.13907
0.714971 0.1 0.821002 0.175705
1.08012 0.1 -0.141988 0.329579
1.08012 0.1 0.141988 0.321185
0.075776 0.1 1.0875 0.153035
0.075776 0.1 -1.0875 0.169581
0.714971 0.1 -0.825 0.194491
0.756813 0.1 -0.7875 0.202336
0.756814 0.1 0.7875 0.182577
0.67013 0.1 -0.8625 0.187057
0.67013 0.1 0.8625 0.167874
0.797314 0.1 -0.75 0.210944
0.797314 0.1 0.75 0.190893
0.623803 0.1 0.9 0.161324
0.835106 0.1 -0.7125 0.220004
0.835106 0.1 0.7125 0.199657
0.623803 0.1 -0.903998 0.181019
0.574156 0.1 0.9375 0.155129
0.574156 0.1 -0.9375 0.173741
1.02149 0.1 -0.406591 0.291705
1.02149 0.1 0.406591 0.273011
1.08012 0.1 -0.212982 0.326111
1.08012 0.1 0.212982 0.313876
1.10076 0.1 -0.0349809 0.336803
1.10076 0.1 0.0349809 0.334697
0.871687 0.1 -0.675 0.229306
0.871687 0.1 0.675 0.208765
1.04168 0.1 -0.364581 0.301801
1.04168 0.1 0.364581 0.283911
1.10076 0.1 -0.104943 0.33689
1.10076 0.1 0.104943 0.330228
0.522865 0.1 0.975 0.14959
0.522865 0.1 -0.975 0.167959
1.0579 0.1 -0.324472 0.310689
1.0579 0.1 0.324472 0.293989
0 0.1 -1.10701 0.168208
0 0.1 1.10701 0.151534
0.0363518 0.1 1.10701 0.151534
0.0363518 0.1 -1.10701 0.168208
0.90582 0.1 0.6375 0.21842
0.905821 0.1 -0.6375 0.239132
0.219992 0.1 1.0875 0.135144
0.219992 0.1 -1.0875 0.151905
0.93886 0.1 0.6 0.228722
0.93886 0.1 -0.6 0.249734
1.10076 0.1 -0.174905 0.334573
1.10076 0.1 0.174905 0.323774
0.467897 0.1 1.0125 0.144345
0.467897 0.1 -1.0125 0.162455
1.08012 0.1 -0.283976 0.320507
1.08012 0.1 0.283976 0.304756
1.11928 0.1 3.93204e-18 0.340743
0.990306 0.1 -0.525 0.268832
0.990306 0.1 0.525 0.247895
0.96969 0.1 -0.5625 0.260786
0.969689 0.1 0.5625 0.239487
1.11928 0.1 -0.0690357 0.341897
1.11928 0.1 0.0690357 0.337378
0 0.1 1.125 0.150153
0 0.1 -1.125 0.166945
0.411108 0.1 -1.05 0.158351
0.411108 0.1 1.05 0.140462
1.10076 0.1 0.244866 0.315395
1.10076 0.1 -0.244866 0.330066
1.11928 0.1 -0.138072 0.340827
1.11928 0.1 0.138072 0.331829
1.02149 0.1 0.480517 0.260576
1.02149 0.1 -0.480517 0.281524
1.0579 0.1 -0.396577 0.302137
1.0579 0.1 0.396577 0.282665
1.04168 0.1 -0.437497 0.292398
1.04168 0.1 0.437497 0.271978
0.150379 0.1 1.125 0.140993
0.150379 0.1 -1.125 0.157893
0.714971 0.1 0.88201 0.169184
1.08012 0.1 0.354971 0.29404
1.08012 0.1 -0.354971 0.312883
1.11928 0.1 -0.207107 0.337447
1.11928 0.1 0.207107 0.324316
0.350249 0.1 -1.0875 0.154562
0.350249 0.1 1.0875 0.136904
0 0.1 1.14299 0.148771
0 0.1 -1.14299 0.165682
0.0363518 0.1 1.14299 0.148771
0.0363518 0.1 -1.14299 0.165682
1.14316 0.1 -0.0339211 0.348905
1.14316 0.1 0.0339211 0.346611
0.797314 0.1 0.821002 0.181043
1.10076 0.1 -0.314829 0.323415
1.10076 0.1 0.314829 0.305301
0.797314 0.1 -0.825 0.20157
0.756814 0.1 -0.8625 0.193433
0.756814 0.1 0.8625 0.172828
1.14316 0.1 -0.101763 0.349061
1.14316 0.1 0.101763 0.341987
0.835106 0.1 -0.7875 0.210157
0.835106 0.1 0.7875 0.188846
0.871687 0.1 -0.75 0.219016
0.871687 0.1 0.75 0.197379
0.67013 0.1 0.9375 0.159193
0.67013 0.1 -0.9375 0.179087
0.90582 0.1 -0.7125 0.22838
0.905821 0.1 0.7125 0.206468
0.714971 0.1 -0.903998 0.186948
1.11928 0.1 0.276143 0.314971
1.11928 0.1 -0.276143 0.331871
1.14316 0.1 0.169605 0.335333
1.14316 0.1 -0.169605 0.346868
0.93886 0.1 -0.675 0.238674
0.93886 0.1 0.675 0.216378
1.15704 0.1 0 0.351604
1.0579 0.1 0.468682 0.270138
1.0579 0.1 -0.468682 0.291931
0.623803 0.1 0.975 0.153113
0.623803 0.1 -0.975 0.172676
0.990306 0.1 0.6 0.234943
0.990306 0.1 -0.6 0.257504
1.15704 0.1 -0.0671479 0.352907
1.15704 0.1 0.0671479 0.348051
1.04168 0.1 -0.510414 0.281495
1.04168 0.1 0.510414 0.258997
0.969689 0.1 -0.6375 0.249455
0.969689 0.1 0.6375 0.226733
1.08012 0.1 0.425965 0.28197
1.08012 0.1 -0.425965 0.303449
0.287374 0.1 -1.125 0.150496
0.287374 0.1 1.125 0.133041
1.02149 0.1 -0.554443 0.270033
1.02149 0.1 0.554443 0.247263
0.574156 0.1 1.0125 0.147376
0.574156 0.1 -1.0125 0.166612
1.15704 0.1 -0.134296 0.351972
1.15704 0.1 0.134296 0.342311
0.075776 0.1 1.1625 0.147277
0.075776 0.1 -1.1625 0.164315
1.10076 0.1 -0.384791 0.314803
1.10076 0.1 0.384791 0.293705
1.14316 0.1 -0.237448 0.342399
1.14316 0.1 0.237448 0.326741
1.11928 0.1 -0.345179 0.324214
1.11928 0.1 0.345179 0.304005
0.522865 0.1 1.05 0.142239
0.522865 0.1 -1.05 0.161182
1.15704 0.1 -0.201444 0.34871
1.15704 0.1 0.201444 0.33459
1.1744 0.1 -0.0331401 0.35774
1.1744 0.1 0.0331401 0.35528
1.1744 0.1 -0.0994202 0.358025
1.1744 0.1 0.0994202 0.350473
0 0.1 1.18201 0.145795
0 0.1 -1.18201 0.162939
0.0363518 0.1 1.18201 0.145795
0.0363518 0.1 -1.18201 0.162939
0.219992 0.1 1.1625 0.129357
0.219993 0.1 -1.1625 0.146605
1.14316 0.1 0.30529 0.316409
1.14316 0.1 -0.30529 0.335744
0.467897 0.1 1.0875 0.137383
0.467897 0.1 -1.0875 0.156023
1.1744 0.1 -0.1657 0.355998
1.1744 0.1 0.1657 0.343646
1.15704 0.1 -0.268592 0.343195
1.15704 0.1 0.268592 0.325024
1.0579 0.1 0.540787 0.256691
1.0579 0.1 -0.540787 0.280344
0.796996 0.1 0.88201 0.172828
1.08012 0.1 -0.496959 0.292449
1.08012 0.1 0.496959 0.268818
1.10076 0.1 0.454752 0.280869
1.10076 0.1 -0.454752 0.304447
1.11928 0.1 -0.414214 0.314667
1.11928 0.1 0.414214 0.291654
1.04168 0.1 -0.58333 0.269392
1.04168 0.1 0.58333 0.245258
1.1744 0.1 -0.231981 0.351632
1.1744 0.1 0.231981 0.334869
0.871687 0.1 0.821002 0.186431
0.411108 0.1 1.125 0.133882
0.411108 0.1 -1.125 0.152263
1.19808 0.1 1.73472e-17 0.363547
0.990306 0.1 0.675 0.221574
0.990306 0.1 -0.675 0.245395
1.02149 0.1 0.628368 0.233351
1.02149 0.1 -0.628368 0.25755
1.19808 0.1 -0.0650961 0.365034
1.19808 0.1 0.0650961 0.35978
0 0.1 1.2 0.144433
0 0.1 -1.2 0.161673
0.871687 0.1 -0.825 0.20847
0.905821 0.1 -0.7875 0.217312
0.90582 0.1 0.7875 0.19438
0.835106 0.1 -0.8625 0.200132
0.835106 0.1 0.8625 0.178047
0.93886 0.1 -0.75 0.227146
0.93886 0.1 0.75 0.203817
1.14316 0.1 -0.373132 0.32705
1.14316 0.1 0.373132 0.304547
0.969689 0.1 0.7125 0.213704
0.969689 0.1 -0.7125 0.237497
1.15704 0.1 -0.33574 0.335546
1.15704 0.1 0.33574 0.31382
0.756813 0.1 0.9375 0.163167
0.756814 0.1 -0.9375 0.184459
1.19808 0.1 0.130192 0.353836
1.19808 0.1 -0.130192 0.364278
0.797314 0.1 -0.903998 0.19307
0.714971 0.1 0.975 0.156697
0.714971 0.1 -0.975 0.177581
0.150379 0.1 1.2 0.135253
0.150379 0.1 -1.2 0.152602
1.20938 0.1 -0.0322656 0.367852
1.20938 0.1 0.0322656 0.36519
1.1744 0.1 -0.298261 0.345058
1.1744 0.1 0.298261 0.324349
1.20938 0.1 -0.0967968 0.368259
1.20938 0.1 0.0967968 0.360209
1.19808 0.1 -0.195288 0.361195
1.19808 0.1 0.195288 0.345902
0.350249 0.1 1.1625 0.130688
0.350249 0.1 -1.1625 0.148803
0.67013 0.1 1.0125 0.15062
0.67013 0.1 -1.0125 0.171089
0 0.1 1.21799 0.14307
0 0.1 -1.21799 0.160408
0.0363518 0.1 -1.21799 0.160408
0.0363518 0.1 1.21799 0.14307
1.11928 0.1 -0.48325 0.303467
1.11928 0.1 0.48325 0.278186
1.10076 0.1 -0.524714 0.292609
1.10076 0.1 0.524714 0.26707
1.20938 0.1 0.161328 0.353199
1.20938 0.1 -0.161328 0.366432
1.08012 0.1 0.567953 0.254862
1.08012 0.1 -0.567953 0.280166
0.623803 0.1 1.05 0.145021
0.623803 0.1 -1.05 0.165126
1.0579 0.1 -0.612892 0.267675
1.0579 0.1 0.612892 0.242606
1.15704 0.1 -0.402888 0.32593
1.15704 0.1 0.402888 0.301204
1.14316 0.1 0.440974 0.291408
1.14316 0.1 -0.440974 0.316527
1.19808 0.1 -0.260384 0.355811
1.19808 0.1 0.260384 0.336119
1.2267 0.1 3.57064e-18 0.371369
1.2267 0.1 -0.0636649 0.372991
1.2267 0.1 0.0636649 0.367451
1.1744 0.1 -0.364541 0.336386
1.1744 0.1 0.364541 0.312287
0.574156 0.1 1.0875 0.139748
0.574156 0.1 -1.0875 0.159491
1.20938 0.1 0.225859 0.344236
1.20938 0.1 -0.225859 0.362192
1.04168 0.1 -0.656246 0.256429
1.04168 0.1 0.656246 0.231036
1.2267 0.1 -0.12733 0.372367
1.2267 0.1 0.12733 0.361364
0.287374 0.1 1.2 0.127073
0.287374 0.1 -1.2 0.14496
1.02149 0.1 -0.702294 0.24444
1.02149 0.1 0.702294 0.219099
0.075776 0.1 -1.2375 0.159038
0.075776 0.1 1.2375 0.141595
0.871399 0.1 0.88201 0.177322
0.522865 0.1 1.125 0.135015
0.522865 0.1 -1.125 0.154424
1.2267 0.1 -0.190994 0.36942
1.2267 0.1 0.190994 0.353283
1.19808 0.1 -0.32548 0.34825
1.19808 0.1 0.32548 0.324689
0.990306 0.1 -0.75 0.232809
0.990306 0.1 0.75 0.208015
1.24274 0.1 -0.0314313 0.37732
1.24274 0.1 0.0314313 0.374449
1.20938 0.1 -0.29039 0.355737
1.20938 0.1 0.29039 0.333526
1.24274 0.1 -0.0942942 0.377858
1.24274 0.1 0.0942942 0.369302
0.93886 0.1 0.821002 0.191779
1.11928 0.1 -0.552285 0.290899
1.11928 0.1 0.552285 0.263875
1.15704 0.1 -0.470036 0.314579
1.15704 0.1 0.470036 0.287445
0.969689 0.1 -0.7875 0.225192
0.96969 0.1 0.7875 0.200555
0.93886 0.1 -0.825 0.21539
0.90582 0.1 0.8625 0.182377
0.905821 0.1 -0.8625 0.206101
1.1744 0.1 -0.430821 0.325821
1.1744 0.1 0.430821 0.298928
1.10076 0.1 -0.594676 0.279591
1.10076 0.1 0.594676 0.252576
1.14316 0.1 -0.508816 0.304429
1.14316 0.1 0.508816 0.277271
1.24274 0.1 -0.157157 0.376233
1.24274 0.1 0.157157 0.362108
1.2267 0.1 -0.254659 0.364143
1.2267 0.1 0.254659 0.34335
0.467897 0.1 1.1625 0.130547
0.467897 0.1 -1.1625 0.149616
1.08012 0.1 0.638947 0.240394
1.08012 0.1 -0.638947 0.266932
1.25511 0.1 -5.78241e-19 0.379129
0.835106 0.1 -0.9375 0.190095
0.835106 0.1 0.9375 0.167412
0.871687 0.1 -0.903998 0.198948
1.25511 0.1 0.0622446 0.375075
1.25511 0.1 -0.0622446 0.380875
0.219992 0.1 1.2375 0.123626
0.219992 0.1 -1.2375 0.141285
0 0.1 -1.25701 0.15767
0 0.1 1.25701 0.140142
0.0363518 0.1 -1.25701 0.15767
0.0363518 0.1 1.25701 0.140142
0.797314 0.1 0.975 0.160358
0.797314 0.1 -0.975 0.182602
1.19808 0.1 -0.390576 0.338645
1.19808 0.1 0.390576 0.311828
1.0579 0.1 -0.684997 0.254291
1.0579 0.1 0.684997 0.228163
1.20938 0.1 -0.354921 0.347127
1.20938 0.1 0.354921 0.321264
1.25511 0.1 0.124489 0.368862
1.25511 0.1 -0.124489 0.380374
1.24274 0.1 -0.220019 0.372133
1.24274 0.1 0.220019 0.352964
0.756813 0.1 1.0125 0.153693
0.756814 0.1 -1.0125 0.175525
1.2267 0.1 -0.318324 0.356667
1.2267 0.1 0.318324 0.331764
0.411108 0.1 1.2 0.127417
0.411108 0.1 -1.2 0.146196
1.25511 0.1 -0.186734 0.37755
1.25511 0.1 0.186734 0.360647
0.714971 0.1 1.05 0.147786
0.714971 0.1 -1.05 0.169165
1.04168 0.1 -0.729162 0.242954
1.04168 0.1 0.729162 0.216594
1.24274 0.1 0.282882 0.342067
1.24274 0.1 -0.282882 0.365815
0 0.1 1.275 0.138806
0 0.1 -1.275 0.156411
1.1744 0.1 0.497102 0.284554
1.1744 0.1 -0.497102 0.313609
1.15704 0.1 -0.537184 0.301773
1.15704 0.1 0.537184 0.272813
1.2756 0.1 -0.03061 0.386561
1.2756 0.1 0.03061 0.383482
0.67013 0.1 1.0875 0.142239
0.67013 0.1 -1.0875 0.163167
1.2756 0.1 -0.09183 0.38727
1.2756 0.1 0.09183 0.37817
1.25511 0.1 -0.248978 0.372372
1.25511 0.1 0.248978 0.350576
1.20938 0.1 0.419453 0.307687
1.20938 0.1 -0.419453 0.336547
1.11928 0.1 -0.621322 0.277295
1.11928 0.1 0.621322 0.249014
1.14316 0.1 -0.576659 0.291073
1.14316 0.1 0.576659 0.262401
1.19808 0.1 -0.455673 0.327225
1.19808 0.1 0.455673 0.297799
1.02149 0.1 0.776219 0.204791
1.02149 0.1 -0.776219 0.230996
0.150379 0.1 1.275 0.129596
0.150379 0.1 -1.275 0.147313
1.2756 0.1 -0.15305 0.385836
1.2756 0.1 0.15305 0.370794
1.2267 0.1 -0.381989 0.3471
1.2267 0.1 0.381989 0.31874
1.10076 0.1 -0.664638 0.265754
1.10076 0.1 0.664638 0.237718
0.350249 0.1 1.2375 0.124567
0.350249 0.1 -1.2375 0.143058
0.623803 0.1 1.125 0.137116
0.623803 0.1 -1.125 0.157651
0.9386 0.1 0.88201 0.181822
0.990306 0.1 0.825 0.194907
0.990306 0.1 -0.825 0.220025
1.24274 0.1 -0.345745 0.357296
1.24274 0.1 0.345745 0.329612
1.2906 0.1 0 0.389005
1.07933 0.1 0.709941 0.225675
1.2906 0.1 -0.0604698 0.390991
1.2906 0.1 0.0604698 0.384705
1.08012 0.1 -0.709941 0.253102
0 0.1 1.29299 0.13747
0 0.1 -1.29299 0.155152
1.25511 0.1 0.311223 0.338847
1.25511 0.1 -0.311223 0.364976
1.2756 0.1 -0.214269 0.381907
1.2756 0.1 0.214269 0.361471
0.0363518 0.1 1.29299 0.13747
0.0363518 0.1 -1.29299 0.155152
1.2906 0.1 -0.12094 0.390725
1.2906 0.1 0.12094 0.378264
0.574156 0.1 1.1625 0.132302
0.574157 0.1 -1.1625 0.152443
0.969689 0.1 0.8625 0.187556
0.969689 0.1 -0.8625 0.212781
1.0579 0.1 0.757102 0.213606
1.0579 0.1 -0.757102 0.24053
1.1744 0.1 -0.563382 0.30006
1.1744 0.1 0.563382 0.269429
1.20938 0.1 0.483984 0.293076
1.20938 0.1 -0.483984 0.324268
1.2906 0.1 -0.181409 0.388139
1.2906 0.1 0.181409 0.369817
0.93886 0.1 -0.903998 0.204834
0.90582 0.1 0.9375 0.170629
0.90582 0.1 -0.9375 0.194949
1.2756 0.1 0.275489 0.35039
1.2756 0.1 -0.275489 0.375741
1.2267 0.1 -0.445653 0.335669
1.2267 0.1 0.445653 0.304534
1.15704 0.1 -0.604332 0.28784
1.15704 0.1 0.604332 0.257595
1.19808 0.1 -0.520769 0.314257
1.19808 0.1 0.520769 0.282875
1.30646 0.1 0.0298385 0.39167
1.30646 0.1 -0.0298385 0.394952
0.287374 0.1 -1.275 0.139438
0.287374 0.1 1.275 0.121194
0.871687 0.1 0.975 0.163606
0.871687 0.1 -0.975 0.187335
1.24274 0.1 0.408607 0.315829
1.24274 0.1 -0.408607 0.346746
0.522865 0.1 1.2 0.127972
0.522865 0.1 -1.2 0.147744