# UMean  POINT_DATA 63840
# x  y  z  UMean_x  UMean_y  UMean_z
0 0.5 3.39583e-17 0.951057 0 0.309017
0 0.5 -0.00617931 0.951057 0 0.309017
0 0.5 0.00617931 0.951057 0 0.309017
0.0124865 0.5 -0.00617931 0.951028 0.000900149 0.309059
0.0124865 0.5 0.00617931 0.951028 0.000899891 0.309179
0 0.5 -0.0688207 0.951057 0 0.309017
0 0.5 0.0688207 0.951057 0 0.309017
0.0124865 0.5 -0.0688207 0.951028 0.000900149 0.309059
0.0124865 0.5 0.0688207 0.951028 0.000899891 0.309179
0 0.5 -0.075 0.951057 0 0.309017
0 0.5 0.075 0.951057 0 0.309017
0 0.5 -0.0811793 0.951057 0 0.309017
0 0.5 0.0811793 0.951057 0 0.309017
0.0124865 0.5 -0.0811793 0.951027 0.00089745 0.308942
0.0124865 0.5 0.0811793 0.951029 0.000896048 0.309296
0.075776 0.5 -0.0375 0.950856 0.00545515 0.309273
0.075776 0.5 0.0375 0.950855 0.0054533 0.309995
0.075776 0.5 -0.1125 0.950848 0.0054388 0.308565
0.075776 0.5 0.1125 0.95086 0.00542997 0.310702
0 0.5 -0.143821 0.951057 0 0.309017
0 0.5 0.143821 0.951057 0 0.309017
0.0124865 0.5 -0.143821 0.951027 0.00089745 0.308942
0.0124865 0.5 0.143821 0.951029 0.000896048 0.309296
0 0.5 -0.15 0.951057 0 0.309017
0 0.5 0.15 0.951057 0 0.309017
0.151149 0.5 -0.00137318 0.949692 0.00913176 0.309952
0 0.5 -0.156179 0.951057 0 0.309017
0 0.5 0.156179 0.951057 0 0.309017
0.0124865 0.5 -0.156179 0.951027 0.000891198 0.308822
0.0124865 0.5 0.156179 0.95103 0.000888244 0.30941
0.151149 0.5 0.075 0.9497 0.0091415 0.311179
0.151149 0.5 -0.075 0.94968 0.00914084 0.308635
0.075776 0.5 -0.1875 0.950849 0.00540099 0.307844
0.075776 0.5 0.1875 0.950871 0.00538278 0.311394
0.151149 0.5 0.15 0.949739 0.0090899 0.312427
0.151149 0.5 -0.15 0.949693 0.00908984 0.307375
0 0.5 -0.218821 0.951057 0 0.309017
0 0.5 0.218821 0.951057 0 0.309017
0.0124865 0.5 -0.218821 0.951027 0.000891198 0.308822
0.0124865 0.5 0.218821 0.95103 0.000888244 0.30941
0.219992 0.5 0.0375 0.948595 0.0126207 0.311065
0.219993 0.5 -0.0375 0.948582 0.0126181 0.309268
0 0.5 -0.225 0.951057 0 0.309017
0 0.5 0.225 0.951057 0 0.309017
0 0.5 -0.231179 0.951057 0 0.309017
0 0.5 0.231179 0.951057 0 0.309017
0.0124865 0.5 -0.231179 0.95103 0.000881057 0.308709
0.0124865 0.5 0.231179 0.951033 0.000877157 0.30952
0.219992 0.5 0.1125 0.948644 0.0125775 0.312847
0.219993 0.5 -0.1125 0.948588 0.0125675 0.307472
0.151149 0.5 -0.225 0.949738 0.00900536 0.306149
0.151149 0.5 0.225 0.949801 0.00900352 0.313632
0.075776 0.5 -0.2625 0.950868 0.00533972 0.307161
0.075776 0.5 0.2625 0.950889 0.0053155 0.312053
0.288069 0.5 -0.00137318 0.94576 0.0160199 0.310265
0.219992 0.5 0.1875 0.948731 0.012487 0.314584
0.219993 0.5 -0.1875 0.94864 0.0124714 0.305728
0 0.5 0.293821 0.951057 0 0.309017
0 0.5 -0.293821 0.951057 0 0.309017
0.0124865 0.5 -0.293821 0.95103 0.000881057 0.308709
0.0124865 0.5 0.293821 0.951033 0.000877157 0.30952
0.288069 0.5 -0.075 0.945747 0.0160022 0.30782
0.288069 0.5 0.075 0.945796 0.0160231 0.312542
0 0.5 -0.3 0.951057 0 0.309017
0 0.5 0.3 0.951057 0 0.309017
0 0.5 0.306179 0.951057 0 0.309017
0 0.5 -0.306179 0.951057 0 0.309017
0.0124865 0.5 -0.306179 0.951033 0.000868046 0.308602
0.0124865 0.5 0.306179 0.951038 0.000862949 0.309622
0.288069 0.5 -0.15 0.945826 0.0158991 0.305497
0.288069 0.5 0.15 0.945923 0.015941 0.314864
0.151149 0.5 -0.3 0.949807 0.00889039 0.304977
0.151149 0.5 0.3 0.949884 0.00888488 0.314777
0.219992 0.5 -0.2625 0.948744 0.0123333 0.304038
0.219992 0.5 0.2625 0.948856 0.0123503 0.31625
0.075776 0.5 0.3375 0.950913 0.00522921 0.312671
0.075776 0.5 -0.3375 0.950886 0.00526104 0.306513
0.350249 0.5 -0.0375 0.943052 0.0192432 0.308746
0.350249 0.5 0.0375 0.943084 0.0192604 0.311651
0.288069 0.5 -0.225 0.945985 0.0157396 0.303246
0.288069 0.5 0.225 0.946121 0.0157984 0.317114
0.350249 0.5 0.1125 0.943216 0.0192011 0.314532
0.350249 0.5 -0.1125 0.943121 0.0191489 0.305861
0 0.5 0.368821 0.951057 0 0.309017
0 0.5 -0.368821 0.951057 0 0.309017
0.0124865 0.5 -0.368821 0.951033 0.000868046 0.308602
0.0124865 0.5 0.368821 0.951038 0.000862949 0.309622
0 0.5 -0.375 0.951057 0 0.309017
0 0.5 0.375 0.951057 0 0.309017
0 0.5 -0.381179 0.951057 0 0.309017
0 0.5 0.381179 0.951057 0 0.309017
0.0124865 0.5 -0.381179 0.951037 0.000852591 0.308502
0.0124865 0.5 0.381179 0.951043 0.00084608 0.309716
0.350249 0.5 -0.1875 0.943303 0.0189815 0.303062
0.350249 0.5 0.1875 0.943449 0.0190677 0.317349
0.219992 0.5 -0.3375 0.948874 0.0121573 0.302437
0.219992 0.5 0.3375 0.949014 0.0121714 0.317823
0.151149 0.5 -0.375 0.949892 0.00874898 0.303874
0.151149 0.5 0.375 0.949987 0.00873678 0.315848
0.411736 0.5 -0.00137318 0.939046 0.0225582 0.310108
0.288069 0.5 -0.3 0.946214 0.0155287 0.301094
0.288069 0.5 0.3 0.946386 0.0155981 0.319259
0.411736 0.5 -0.075 0.939061 0.0225023 0.306505
0.411736 0.5 0.075 0.939122 0.022564 0.313474
0.075776 0.5 -0.4125 0.950908 0.00516736 0.305907
0.075776 0.5 0.4125 0.950943 0.00512663 0.313241
0.350249 0.5 -0.2625 0.943592 0.0187505 0.300357
0.350249 0.5 0.2625 0.943784 0.0188616 0.320063
0.411736 0.5 -0.15 0.939263 0.0223314 0.303092
0.411736 0.5 0.15 0.939378 0.0224531 0.316911
0 0.5 -0.443821 0.951057 0 0.309017
0 0.5 0.443821 0.951057 0 0.309017
0.0124865 0.5 -0.443821 0.951037 0.000852591 0.308502
0.0124865 0.5 0.443821 0.951043 0.00084608 0.309716
0 0.5 -0.45 0.951057 0 0.309017
0 0.5 0.45 0.951057 0 0.309017
0 0.5 -0.456179 0.951057 0 0.309017
0 0.5 0.456179 0.951057 0 0.309017
0.0124865 0.5 -0.456179 0.951041 0.000834933 0.30841
0.0124865 0.5 0.456179 0.951049 0.000826806 0.309801
0.219992 0.5 -0.4125 0.949033 0.0119472 0.30094
0.219993 0.5 0.4125 0.949202 0.0119539 0.319282
0.411736 0.5 -0.225 0.939622 0.0220755 0.299794
0.411736 0.5 0.225 0.93978 0.022251 0.320248
0.467897 0.5 0.0375 0.935218 0.0257295 0.311815
0.467897 0.5 -0.0375 0.935186 0.0256858 0.307758
0.288069 0.5 -0.375 0.946502 0.0152703 0.299074
0.288069 0.5 0.375 0.946712 0.0153444 0.32127
0.151149 0.5 -0.45 0.949993 0.00858343 0.30285
0.151149 0.5 0.45 0.950106 0.008562 0.316831
0.467897 0.5 -0.1125 0.935359 0.0255298 0.303748
0.467897 0.5 0.1125 0.935446 0.0256602 0.315852
0.350249 0.5 0.3375 0.944211 0.0185872 0.322628
0.350249 0.5 -0.3375 0.943972 0.0184587 0.297807
0.075776 0.5 -0.4875 0.950934 0.00506012 0.30535
0.075776 0.5 0.4875 0.950979 0.00500916 0.313757
0.467897 0.5 -0.1875 0.935736 0.0252686 0.299855
0.467897 0.5 0.1875 0.935865 0.0254808 0.319799
0.411736 0.5 -0.3 0.940125 0.0217421 0.296658
0.411736 0.5 0.3 0.940323 0.0219615 0.323434
0 0.5 -0.518821 0.951057 0 0.309017
0 0.5 0.518821 0.951057 0 0.309017
0.0124865 0.5 0.518821 0.951049 0.000826806 0.309801
0.0124865 0.5 -0.518821 0.951041 0.000834933 0.30841
0.523432 0.5 -0.00137318 0.93024 0.0289911 0.309545
0 0.5 -0.525 0.951057 0 0.309017
0 0.5 0.525 0.951057 0 0.309017
0.523432 0.5 -0.075 0.930317 0.0288828 0.30474
0.523432 0.5 0.075 0.930354 0.0290095 0.314048
0 0.5 -0.531179 0.951057 0 0.309017
0 0.5 0.531179 0.951057 0 0.309017
0.0124865 0.5 -0.531179 0.951047 0.000815374 0.308327
0.0124865 0.5 0.531179 0.951056 0.000805419 0.309876
0.288069 0.5 -0.45 0.946844 0.0149682 0.297207
0.288069 0.5 0.45 0.947091 0.0150424 0.323122
0.219992 0.5 -0.4875 0.94922 0.0117046 0.299564
0.219993 0.5 0.4875 0.949414 0.0117009 0.320611
0.467897 0.5 -0.2625 0.936308 0.0249114 0.296125
0.467897 0.5 0.2625 0.936473 0.025195 0.323603
0.350249 0.5 -0.4125 0.944436 0.0181112 0.295434
0.350249 0.5 0.4125 0.944722 0.0182506 0.325013
0.523432 0.5 -0.15 0.930698 0.0286258 0.300198
0.523432 0.5 0.15 0.93076 0.0288743 0.318655
0.151149 0.5 -0.525 0.950109 0.00839561 0.301917
0.151149 0.5 0.525 0.950239 0.00836305 0.317715
0.411736 0.5 -0.375 0.940755 0.0213369 0.29373
0.411736 0.5 0.375 0.940994 0.0215911 0.326423
0.075776 0.5 -0.5625 0.950967 0.00494099 0.304846
0.075776 0.5 0.5625 0.951019 0.00487875 0.314213
0.523432 0.5 -0.225 0.931336 0.0282503 0.29583
0.523432 0.5 0.225 0.931414 0.0286108 0.323129
0.574156 0.5 -0.0375 0.925474 0.0320845 0.306372
0.574156 0.5 0.0375 0.925484 0.0321674 0.311628
0.467897 0.5 0.3375 0.937256 0.0248093 0.327201
0.467897 0.5 -0.3375 0.937058 0.0244663 0.292624
0.574156 0.5 -0.1125 0.925795 0.0318518 0.301192
0.574156 0.5 0.1125 0.925814 0.0320972 0.316873
0 0.5 -0.593821 0.951057 0 0.309017
0 0.5 0.593821 0.951057 0 0.309017
0.0124865 0.5 -0.593821 0.951047 0.000815374 0.308327
0.0124865 0.5 0.593821 0.951056 0.000805419 0.309876
0.288069 0.5 -0.525 0.947233 0.0146259 0.295515
0.288069 0.5 0.525 0.947513 0.0146968 0.324793
0 0.5 -0.6 0.951057 0 0.309017
0 0.5 0.6 0.951057 0 0.309017
0.350249 0.5 -0.4875 0.944974 0.0177126 0.293267
0.350249 0.5 0.4875 0.945304 0.0178581 0.32719
0.523432 0.5 -0.3 0.932216 0.027766 0.2917
0.523432 0.5 0.3 0.932303 0.028225 0.327402
0.219992 0.5 -0.5625 0.949429 0.0114321 0.298321
0.219992 0.5 0.5625 0.949645 0.0114158 0.321795
0.574156 0.5 -0.1875 0.926435 0.0314792 0.296172
0.574156 0.5 0.1875 0.926452 0.0318769 0.322007
0 0.5 -0.606179 0.951057 0 0.309017
0 0.5 0.606179 0.951057 0 0.309017
0.0124865 0.5 -0.606179 0.951053 0.000794192 0.308253
0.0124865 0.5 0.606179 0.951063 0.000782334 0.309941
0.411736 0.5 -0.45 0.941499 0.0208665 0.291043
0.411736 0.5 0.45 0.941777 0.0211475 0.329177
0.151149 0.5 -0.6 0.950238 0.00818785 0.301083
0.151149 0.5 0.6 0.950381 0.00814269 0.318492
0.62168 0.5 2.64545e-17 0.920066 0.0352478 0.308718
0.467897 0.5 0.4125 0.938195 0.0243322 0.330548
0.467897 0.5 -0.4125 0.937962 0.0239406 0.28939
0.624316 0.5 0.0729402 0.919902 0.0354603 0.314336
0.624316 0.5 -0.075 0.919935 0.0352477 0.30259
0.574156 0.5 -0.2625 0.927382 0.0309756 0.291403
0.574157 0.5 0.2625 0.927387 0.0315119 0.326954
0.075776 0.5 -0.6375 0.951004 0.00481172 0.304399
0.075776 0.5 0.6375 0.951062 0.0047378 0.314605
0.624316 0.5 -0.15 0.920552 0.0348901 0.296881
0.624316 0.5 0.15 0.920476 0.0353073 0.320168
0.523432 0.5 -0.375 0.933311 0.0271826 0.287866
0.523432 0.5 0.375 0.933408 0.0277258 0.331409
0.350249 0.5 -0.5625 0.945573 0.017268 0.291328
0.350249 0.5 0.5625 0.945942 0.017416 0.329134
0.624316 0.5 -0.225 0.921551 0.0343778 0.291412
0.624316 0.5 0.225 0.921422 0.0349853 0.325835
0.288069 0.5 0.6 0.947967 0.0143124 0.326268
0.288069 0.5 -0.6 0.947659 0.0142478 0.294011
0.574156 0.5 -0.3375 0.928609 0.0303537 0.286937
0.574156 0.5 0.3375 0.928599 0.0310112 0.331635
0.411736 0.5 -0.525 0.942338 0.0203376 0.288628
0.411736 0.5 0.525 0.942653 0.020639 0.331663
0 0.5 -0.668821 0.951057 0 0.309017
0 0.5 0.668821 0.951057 0 0.309017
0.0124865 0.5 -0.668821 0.951053 0.000794192 0.308253
0.0124865 0.5 0.668821 0.951063 0.000782334 0.309941
0.67013 0.5 0.0375 0.91423 0.0386382 0.311165
0.67013 0.5 -0.0375 0.914268 0.0385076 0.304657
0.219993 0.5 -0.6375 0.949655 0.011133 0.297225
0.219993 0.5 0.6375 0.949888 0.011102 0.322825
0 0.5 -0.675 0.951057 0 0.309017
0 0.5 0.675 0.951057 0 0.309017
0.467897 0.5 0.4875 0.939269 0.0237738 0.333599
0.467897 0.5 -0.4875 0.939002 0.0233426 0.286465
0.67013 0.5 -0.1125 0.914783 0.0381874 0.298257
0.67013 0.5 0.1125 0.914664 0.0385742 0.317671
0 0.5 -0.681179 0.951057 0 0.309017
0 0.5 0.681179 0.951057 0 0.309017
0.0124865 0.5 -0.681179 0.95106 0.000771734 0.308189
0.0124865 0.5 0.681179 0.95107 0.000757923 0.309995
0.523432 0.5 -0.45 0.934591 0.0265101 0.284379
0.523432 0.5 0.45 0.9347 0.027124 0.335097
0.151149 0.5 -0.675 0.950377 0.007963 0.300354
0.151149 0.5 0.675 0.95053 0.00790404 0.319157
0.624316 0.5 -0.3 0.922907 0.0337229 0.286269
0.624316 0.5 0.3 0.92272 0.0345023 0.331247
0.67013 0.5 0.1875 0.915547 0.0383177 0.32405
0.67013 0.5 -0.1875 0.91576 0.0376885 0.292081
0.574156 0.5 -0.4125 0.930078 0.0296243 0.282853
0.574157 0.5 0.4125 0.930056 0.0303854 0.335978
0.708171 0.5 1.88651e-17 0.90895 0.04138 0.307877
0.075776 0.5 -0.7125 0.951044 0.00467445 0.304013
0.075776 0.5 0.7125 0.951107 0.00458871 0.314933
0.715434 0.5 0.0736268 0.908273 0.0418818 0.314587
0.715434 0.5 -0.075 0.908282 0.0416345 0.300116
0.67013 0.5 0.2625 0.916859 0.0378748 0.330193
0.67013 0.5 -0.2625 0.917172 0.0370222 0.286231
0.350249 0.5 -0.6375 0.946218 0.0167837 0.289633
0.350249 0.5 0.6375 0.94662 0.0169305 0.33083
0.411736 0.5 -0.6 0.94325 0.019758 0.286504
0.411736 0.5 0.6 0.943601 0.0200737 0.333857
0.624316 0.5 -0.375 0.92458 0.0329394 0.281527
0.624316 0.5 0.375 0.924338 0.0338696 0.336316
0.715434 0.5 -0.15 0.90919 0.0411642 0.293195
0.715434 0.5 0.15 0.908885 0.0417835 0.32152
0.467897 0.5 -0.5625 0.940149 0.0226813 0.283876
0.467897 0.5 0.5625 0.94045 0.023144 0.336322
0.288069 0.5 -0.675 0.948112 0.0138393 0.292707
0.288069 0.5 0.675 0.948442 0.0138944 0.327536
0.523432 0.5 -0.525 0.936024 0.0257594 0.281276
0.523432 0.5 0.525 0.936148 0.026432 0.338422
0 0.5 -0.743821 0.951057 0 0.309017
0 0.5 0.743821 0.951057 0 0.309017
0.0124865 0.5 -0.743821 0.95106 0.000771734 0.308189
0.0124865 0.5 0.743821 0.95107 0.000757923 0.309995
0.219992 0.5 0.7125 0.950138 0.0107636 0.323695
0.219992 0.5 -0.7125 0.949894 0.0108114 0.29628
0.715434 0.5 -0.225 0.910628 0.0405005 0.286588
0.715434 0.5 0.225 0.910158 0.0414054 0.328435
0 0.5 -0.75 0.951057 0 0.309017
0 0.5 0.75 0.951057 0 0.309017
0.67013 0.5 0.3375 0.918572 0.0372569 0.336011
0.67013 0.5 -0.3375 0.918982 0.0362041 0.280795
0.574156 0.5 -0.4875 0.931751 0.0288001 0.279193
0.574156 0.5 0.4875 0.931724 0.0296492 0.339935
0 0.5 -0.756179 0.951057 0 0.309017
0 0.5 0.756179 0.951057 0 0.309017
0.0124865 0.5 -0.756179 0.951067 0.000748333 0.308136
0.0124865 0.5 0.756179 0.951077 0.000732634 0.310038
0.756813 0.5 -0.0375 0.901952 0.0449614 0.302671
0.756813 0.5 0.0375 0.901844 0.0451474 0.310485
0.151149 0.5 -0.75 0.950522 0.00772437 0.299734
0.151149 0.5 0.75 0.950682 0.00765077 0.319706
0.756813 0.5 -0.1125 0.902702 0.0445435 0.295001
0.756813 0.5 0.1125 0.902378 0.0450947 0.31831
0.624316 0.5 -0.45 0.926523 0.0320415 0.277253
0.624316 0.5 0.45 0.926232 0.0331015 0.340972
0.715434 0.5 -0.3 0.912555 0.0396584 0.28041
0.715434 0.5 0.3 0.911921 0.0408245 0.335035
0.756813 0.5 0.1875 0.903529 0.0448048 0.32599
0.756813 0.5 -0.1875 0.904079 0.0439052 0.28762
0.67013 0.5 -0.4125 0.921137 0.0352511 0.27586
0.67013 0.5 0.4125 0.920633 0.036478 0.341388
0.411736 0.5 -0.675 0.944214 0.0191364 0.284687
0.411736 0.5 0.675 0.944597 0.0194598 0.335743
0.467897 0.5 0.6375 0.941709 0.0224527 0.338693
0.467897 0.5 -0.6375 0.941375 0.021967 0.281642
0.075776 0.5 -0.7875 0.951087 0.00453118 0.303688
0.075776 0.5 0.7875 0.951151 0.00443432 0.315195
0.350249 0.5 -0.7125 0.946893 0.016267 0.28819
0.350249 0.5 0.7125 0.947323 0.0164081 0.332266
0.523432 0.5 -0.6 0.937571 0.0249426 0.278584
0.523432 0.5 0.6 0.937715 0.0256618 0.34135
0.797732 0.5 2.68882e-17 0.895153 0.0483774 0.305803
0.756813 0.5 -0.2625 0.906041 0.043062 0.280656
0.756814 0.5 0.2625 0.905259 0.0442847 0.333386
0.797732 0.5 0.0736268 0.895435 0.0484378 0.314611
0.797732 0.5 -0.075 0.895676 0.0480331 0.297378
0.288069 0.5 -0.75 0.948582 0.0134062 0.291609
0.288069 0.5 0.75 0.94893 0.0134487 0.328589
0.574156 0.5 -0.5625 0.933584 0.0278948 0.275993
0.574157 0.5 0.5625 0.933559 0.0288169 0.343457
0.715434 0.5 -0.375 0.914915 0.038656 0.274756
0.715434 0.5 0.375 0.914125 0.0400549 0.341215
0.797732 0.5 -0.15 0.896928 0.0474402 0.289197
0.797732 0.5 0.15 0.896306 0.0482875 0.322767
0.624316 0.5 -0.525 0.92868 0.0310449 0.27349
0.624316 0.5 0.525 0.928355 0.0322147 0.345161
0.219992 0.5 -0.7875 0.950138 0.010472 0.29549
0.219992 0.5 0.7875 0.950391 0.0104058 0.3244
0 0.5 -0.818821 0.951057 0 0.309017
0 0.5 0.818821 0.951057 0 0.309017
0.0124865 0.5 0.818821 0.951077 0.000732634 0.310038
0.0124865 0.5 -0.818821 0.951067 0.000748333 0.308136
0 0.5 -0.825 0.951057 0 0.309017
0 0.5 0.825 0.951057 0 0.309017
0.756813 0.5 0.3375 0.90753 0.0435471 0.340375
0.756814 0.5 -0.3375 0.908536 0.0420311 0.274243
0.67013 0.5 -0.4875 0.923572 0.0341794 0.271482
0.67013 0.5 0.4875 0.922989 0.035556 0.346284
0.797732 0.5 -0.225 0.898879 0.0466133 0.281418
0.797732 0.5 0.225 0.897936 0.0478546 0.330982
0 0.5 -0.831179 0.951057 0 0.309017
0 0.5 0.831179 0.951057 0 0.309017
0.0124865 0.5 -0.831179 0.951074 0.000724329 0.308092
0.0124865 0.5 0.831179 0.951084 0.000707012 0.310071
0.835106 0.5 0.0375 0.888588 0.0516645 0.309647
0.835106 0.5 -0.0375 0.88879 0.0514178 0.300475
0.151149 0.5 -0.825 0.95067 0.00747559 0.299224
0.151149 0.5 0.825 0.950834 0.00738723 0.32014
0.835106 0.5 0.1125 0.889218 0.0516265 0.318843
0.835106 0.5 -0.1125 0.889815 0.050895 0.291486
0.715434 0.5 -0.45 0.917636 0.0375127 0.2697
0.715434 0.5 0.45 0.916706 0.0391143 0.346875
0.797732 0.5 -0.3 0.901467 0.0455703 0.274184
0.797732 0.5 0.3 0.900208 0.047175 0.338816
0.467897 0.5 0.7125 0.943017 0.0217096 0.340697
0.467897 0.5 -0.7125 0.94265 0.0212105 0.279773
0.523432 0.5 -0.675 0.939192 0.0240726 0.276316
0.523432 0.5 0.675 0.939364 0.0248254 0.343859
0.411736 0.5 -0.75 0.945207 0.0184819 0.28318
0.411736 0.5 0.75 0.945619 0.0188057 0.337312
0.835106 0.5 -0.1875 0.891657 0.0501084 0.282857
0.835106 0.5 0.1875 0.890655 0.0513048 0.327874
0.574156 0.5 -0.6375 0.935526 0.0269233 0.273275
0.574157 0.5 0.6375 0.935516 0.0279022 0.346513
0.350249 0.5 -0.7875 0.947584 0.0157257 0.287002
0.350249 0.5 0.7875 0.948037 0.0158563 0.333438
0.756813 0.5 -0.4125 0.911482 0.0408353 0.268451
0.756814 0.5 0.4125 0.910272 0.0426106 0.346856
0.075776 0.5 -0.8625 0.95113 0.0043842 0.303425
0.075776 0.5 0.8625 0.951193 0.00427742 0.315392
0.624316 0.5 0.6 0.930654 0.0312257 0.348837
0.624316 0.5 -0.6 0.930994 0.0299665 0.270271
0.872064 0.5 5.91974e-17 0.881752 0.0547966 0.304216
0.870122 0.5 0.075 0.882415 0.0547246 0.31453
0.288069 0.5 -0.825 0.949058 0.0129552 0.290716
0.288069 0.5 0.825 0.949421 0.012982 0.329428
0.67013 0.5 -0.5625 0.92622 0.0330083 0.267703
0.67013 0.5 0.5625 0.925585 0.0345103 0.350623
0.872064 0.5 -0.075 0.882467 0.0543679 0.294437
0.835106 0.5 -0.2625 0.894255 0.0490766 0.274764
0.835106 0.5 0.2625 0.892841 0.0507076 0.336571
0.797732 0.5 -0.375 0.904614 0.0443335 0.267605
0.797732 0.5 0.375 0.903063 0.0462655 0.346144
0.872064 0.5 0.14794 0.883099 0.054739 0.323938
0.872064 0.5 -0.15 0.884104 0.0536465 0.284957
0.715434 0.5 -0.525 0.920639 0.036249 0.2653
0.715434 0.5 0.525 0.9196 0.0380234 0.351946
0.219992 0.5 0.8625 0.950646 0.010035 0.324944
0.219993 0.5 -0.8625 0.950386 0.0101202 0.294854
0 0.5 -0.893821 0.951057 0 0.309017
0 0.5 0.893821 0.951057 0 0.309017
0.0124865 0.5 -0.893821 0.951074 0.000724329 0.308092
0.0124865 0.5 0.893821 0.951084 0.000707012 0.310071
0 0.5 -0.9 0.951057 0 0.309017
0 0.5 0.9 0.951057 0 0.309017
0.756813 0.5 -0.4875 0.914791 0.0394956 0.263368
0.756813 0.5 0.4875 0.913406 0.0414947 0.352695
0.872064 0.5 -0.225 0.886628 0.0526488 0.275975
0.872064 0.5 0.225 0.885109 0.0542535 0.333495
0.835106 0.5 -0.3375 0.897525 0.0478203 0.267342
0.835106 0.5 0.3375 0.895721 0.0498492 0.344772
0 0.5 0.906179 0.951057 0 0.309017
0 0.5 -0.906179 0.951057 0 0.309017
0.0124865 0.5 -0.906179 0.95108 0.000700142 0.308059
0.0124865 0.5 0.906179 0.951089 0.000681283 0.310093
0.90582 0.5 -0.0375 0.87523 0.0577517 0.298123
0.90582 0.5 0.0375 0.874919 0.0580627 0.308683
0.151149 0.5 -0.9 0.950819 0.00722056 0.298821
0.151149 0.5 0.9 0.950984 0.00711785 0.320461
0.90582 0.5 -0.1125 0.876543 0.0571209 0.287779
0.905821 0.5 0.1125 0.875648 0.0580422 0.319288
0.523432 0.5 -0.75 0.940849 0.0231624 0.274474
0.523432 0.5 0.75 0.941056 0.0239352 0.345938
0.574156 0.5 -0.7125 0.93753 0.025901 0.271047
0.574156 0.5 0.7125 0.937547 0.0269197 0.349083
0.797732 0.5 -0.45 0.90822 0.0429279 0.261772
0.797732 0.5 0.45 0.906415 0.0451469 0.352839
0.467897 0.5 0.7875 0.944346 0.020925 0.342329
0.467897 0.5 -0.7875 0.943943 0.0204228 0.278268
0.624316 0.5 -0.675 0.933402 0.0288239 0.267609
0.624316 0.5 0.675 0.933071 0.0301511 0.351971
0.411736 0.5 -0.825 0.946206 0.0178041 0.28198
0.411736 0.5 0.825 0.946648 0.0181207 0.338561
0.872064 0.5 0.3 0.88793 0.0534769 0.3426
0.872064 0.5 -0.3 0.88995 0.051397 0.267658
0.67013 0.5 -0.6375 0.929009 0.0317577 0.264549
0.67013 0.5 0.6375 0.928352 0.0333595 0.354369
0.90582 0.5 0.1875 0.877383 0.0576923 0.329706
0.905821 0.5 -0.1875 0.878895 0.0561811 0.277869
0.350249 0.5 -0.8625 0.948277 0.0151675 0.286065
0.350249 0.5 0.8625 0.948749 0.015283 0.334346
0.835106 0.5 -0.4125 0.901362 0.0463673 0.260691
0.835106 0.5 0.4125 0.899218 0.0487505 0.352366
0.715434 0.5 -0.6 0.923841 0.0348873 0.261593
0.715434 0.5 0.6 0.922731 0.0368043 0.356379
0.939201 0.5 2.75387e-17 0.867768 0.0612849 0.302511
0.075776 0.5 0.9375 0.951229 0.00412003 0.315528
0.075776 0.5 -0.9375 0.95117 0.00423563 0.303221
0.939111 0.5 0.075 0.868023 0.06145 0.314794
0.939201 0.5 -0.075 0.868701 0.0607646 0.291314
0.756813 0.5 0.5625 0.916855 0.0402255 0.357866
0.756814 0.5 -0.5625 0.91837 0.0380372 0.25904
0.90582 0.5 0.2625 0.880053 0.0570214 0.339735
0.905821 0.5 -0.2625 0.882177 0.0549562 0.268617
0.288069 0.5 -0.9 0.949533 0.0124925 0.290023
0.288069 0.5 0.9 0.949908 0.0125014 0.330056
0.872064 0.5 -0.375 0.893963 0.0499174 0.260144
0.872064 0.5 0.375 0.891485 0.0524279 0.351102
0.939201 0.5 0.148627 0.869367 0.0612346 0.325303
0.939201 0.5 -0.15 0.870767 0.059903 0.280469
0.797732 0.5 -0.525 0.91218 0.0413799 0.256757
0.797732 0.5 0.525 0.910166 0.0438446 0.358807
0.219992 0.5 0.9375 0.950902 0.00965747 0.325331
0.219992 0.5 -0.9375 0.950635 0.00976162 0.294368
0.939201 0.5 -0.225 0.873937 0.058719 0.270226
0.939201 0.5 0.225 0.871706 0.0607184 0.336085
0.905821 0.5 -0.3375 0.886286 0.0534708 0.260159
0.90582 0.5 0.3375 0.883578 0.056046 0.349182
0.835106 0.5 -0.4875 0.905654 0.044746 0.254917
0.835106 0.5 0.4875 0.903217 0.047436 0.359186
0 0.5 0.968821 0.951057 0 0.309017
0 0.5 -0.968821 0.951057 0 0.309017
0.0124865 0.5 -0.968821 0.95108 0.000700142 0.308059
0.0124865 0.5 0.968821 0.951089 0.000681283 0.310093
0.969689 0.5 -0.0375 0.86094 0.064334 0.295627
0.969689 0.5 0.0375 0.860462 0.0647161 0.30767
0.574156 0.5 -0.7875 0.939547 0.0248427 0.2693
0.574156 0.5 0.7875 0.939608 0.0258836 0.351163
0 0.5 -0.975 0.951057 0 0.309017
0 0.5 0.975 0.951057 0 0.309017
0.624316 0.5 -0.75 0.935846 0.0276348 0.265502
0.624316 0.5 0.75 0.935548 0.029008 0.35455
0.969689 0.5 -0.1125 0.862562 0.0635801 0.283833
0.96969 0.5 0.1125 0.861279 0.0647114 0.319788
0.523432 0.5 -0.825 0.942504 0.0222247 0.273049
0.523432 0.5 0.825 0.942756 0.0230034 0.347585
0.67013 0.5 0.7125 0.931221 0.0321231 0.357501
0.67013 0.5 -0.7125 0.931864 0.0304475 0.262021
0 0.5 -0.981179 0.951057 0 0.309017
0 0.5 0.981179 0.951057 0 0.309017
0.467897 0.5 0.8625 0.945668 0.0201096 0.343591
0.467897 0.5 -0.8625 0.945227 0.0196144 0.277115
0.0124865 0.5 -0.981179 0.951085 0.000675969 0.308035
0.0124865 0.5 0.981179 0.951094 0.000655815 0.310106
0.872064 0.5 -0.45 0.89854 0.0482407 0.253543
0.872064 0.5 0.45 0.895669 0.0511307 0.358855
0.715434 0.5 -0.675 0.927154 0.0334511 0.258591
0.715434 0.5 0.675 0.926019 0.0354786 0.360136
0.939201 0.5 -0.3 0.87807 0.0572398 0.26078
0.939201 0.5 0.3 0.875117 0.0598366 0.346514
0.151149 0.5 0.975 0.951134 0.00684577 0.320675
0.151149 0.5 -0.975 0.950966 0.0069628 0.298522
0.969689 0.5 -0.1875 0.865525 0.0624639 0.272549
0.969689 0.5 0.1875 0.863327 0.064324 0.331686
0.756813 0.5 -0.6375 0.922117 0.036486 0.255495
0.756813 0.5 0.6375 0.920526 0.0388272 0.362303
0.411736 0.5 -0.9 0.947192 0.0171115 0.281077
0.411736 0.5 0.9 0.947662 0.017414 0.339498
0.90582 0.5 -0.4125 0.891086 0.0517575 0.252668
0.90582 0.5 0.4125 0.887869 0.0547885 0.357901
0.995005 0.5 0.0749309 0.855517 0.0667661 0.314542
0.797732 0.5 -0.6 0.916382 0.0397183 0.252598
0.797732 0.5 0.6 0.914218 0.0423866 0.363999
1.00005 0.5 -8.47123e-18 0.85409 0.0670338 0.300764
0.350249 0.5 -0.9375 0.948959 0.0145992 0.285368
0.350249 0.5 0.9375 0.949446 0.0146961 0.334999
1.00005 0.5 -0.0749309 0.855246 0.0664331 0.288241
0.969689 0.5 -0.2625 0.869583 0.0610166 0.262064
0.969689 0.5 0.2625 0.866521 0.063563 0.343124
0.835106 0.5 -0.5625 0.910274 0.0429875 0.250068
0.835106 0.5 0.5625 0.907602 0.0459367 0.365192
1.00005 0.5 -0.149862 0.857752 0.0654521 0.276098
0.939201 0.5 -0.375 0.883038 0.0554967 0.252292
0.939201 0.5 0.375 0.879427 0.0586369 0.356227
1.00029 0.5 0.148988 0.855957 0.0669942 0.326299
0.075776 0.5 -1.0125 0.951204 0.00408728 0.303075
0.075776 0.5 1.0125 0.951257 0.00396392 0.315606
0.288069 0.5 0.975 0.950384 0.0120124 0.330484
0.288069 0.5 -0.975 0.949999 0.0120237 0.289519
0.872064 0.5 -0.525 0.903544 0.0463992 0.247929
0.872064 0.5 0.525 0.900349 0.0496154 0.365739
1.00005 0.5 0.224793 0.858618 0.066473 0.338384
1.00005 0.5 -0.224793 0.861581 0.0641119 0.264651
0.969689 0.5 0.3375 0.870755 0.0624479 0.353881
0.96969 0.5 -0.3375 0.874638 0.0592669 0.252513
1.0271 0.5 -0.0368226 0.847276 0.0699342 0.293292
1.0271 0.5 0.0368226 0.84669 0.070365 0.306437
0.90582 0.5 0.4875 0.892784 0.0532785 0.365742
0.905821 0.5 -0.4875 0.896428 0.0498504 0.246211
1.0271 0.5 -0.110468 0.849194 0.0691102 0.280398
1.0271 0.5 0.110468 0.847144 0.0706848 0.32277
0.67013 0.5 0.7875 0.934127 0.03082 0.360012
0.67013 0.5 -0.7875 0.934718 0.029098 0.260106
0.624316 0.5 0.825 0.938032 0.0278127 0.356576
0.624316 0.5 -0.825 0.938269 0.0264161 0.263931
0.219993 0.5 -1.0125 0.950885 0.00940056 0.294023
0.219993 0.5 1.0125 0.951165 0.0092754 0.325572
0.574156 0.5 -0.8625 0.941534 0.0237625 0.268017
0.574156 0.5 0.8625 0.941655 0.0248079 0.352757
0.715434 0.5 -0.75 0.930492 0.0319633 0.256283
0.715434 0.5 0.75 0.929385 0.0340678 0.363204
0.756813 0.5 0.7125 0.924327 0.0373232 0.365987
0.756814 0.5 -0.7125 0.925931 0.034869 0.252728
0.523432 0.5 -0.9 0.944124 0.0212711 0.272023
0.523432 0.5 0.9 0.94443 0.0220425 0.34881
0.939201 0.5 -0.45 0.888677 0.0535263 0.244897
0.939201 0.5 0.45 0.88451 0.0571476 0.365067
1.04168 0.5 0 0.842949 0.0717833 0.299357
1.0271 0.5 -0.184113 0.852632 0.0679005 0.268026
1.0271 0.5 0.184113 0.849898 0.0700061 0.332735
0 0.5 -1.04382 0.951057 0 0.309017
0 0.5 1.04382 0.951057 0 0.309017
0.0124865 0.5 -1.04382 0.951085 0.000675969 0.308035
0.0124865 0.5 1.04382 0.951094 0.000655815 0.310106
1.00005 0.5 -0.299723 0.866543 0.0624437 0.254131
1.00005 0.5 0.299723 0.862629 0.0655161 0.350067
1.04168 0.5 -0.0729162 0.844252 0.071141 0.286063
1.04168 0.5 0.0729162 0.843088 0.0720198 0.31285
0.797732 0.5 -0.675 0.920702 0.0379713 0.249305
0.797732 0.5 0.675 0.918468 0.0407998 0.36837
0.467897 0.5 0.9375 0.946958 0.019274 0.344495
0.467897 0.5 -0.9375 0.946477 0.0187944 0.276298
0 0.5 -1.05 0.951057 0 0.309017
0 0.5 1.05 0.951057 0 0.309017
0.835106 0.5 -0.6375 0.915092 0.0411236 0.246172
0.835106 0.5 0.6375 0.912264 0.0442832 0.370313
1.04168 0.5 -0.145832 0.847011 0.0701038 0.273136
1.04168 0.5 0.145832 0.844713 0.0718458 0.3263
0.969689 0.5 -0.4125 0.880511 0.0572537 0.244097
0.96969 0.5 0.4125 0.87592 0.0610037 0.363768
0 0.5 -1.05618 0.951057 0 0.309017
0 0.5 1.05618 0.951057 0 0.309017
0.0124865 0.5 -1.05618 0.95109 0.000651985 0.308019
0.0124865 0.5 1.05618 0.951097 0.000631546 0.31011
1.05695 0.5 -0.0360764 0.839277 0.0731555 0.291966
1.05695 0.5 0.0360764 0.838623 0.0736115 0.305638
0.411736 0.5 -0.975 0.948147 0.0164112 0.280453
0.411736 0.5 0.975 0.948641 0.0166943 0.340134
0.872064 0.5 -0.6 0.908826 0.0444272 0.243349
0.872064 0.5 0.6 0.905392 0.0479165 0.371683
1.0271 0.5 -0.257759 0.857338 0.0663396 0.256551
1.0271 0.5 0.257759 0.853529 0.0692296 0.345278
0.151149 0.5 -1.05 0.951111 0.00670432 0.298319
0.151149 0.5 1.05 0.95128 0.00657426 0.320789
1.05695 0.5 0.108229 0.838738 0.0739824 0.319777
1.05695 0.5 -0.108229 0.841345 0.0722966 0.278535
1.04168 0.5 -0.218749 0.8512 0.0686936 0.260935
1.04168 0.5 0.218749 0.847736 0.0712679 0.339378
0.90582 0.5 -0.5625 0.902152 0.0477842 0.240855
0.905821 0.5 0.5625 0.898171 0.0515507 0.372575
1.00005 0.5 -0.374654 0.872492 0.0604816 0.244713
1.00005 0.5 0.374654 0.867704 0.064205 0.360933
0.350249 0.5 1.0125 0.950108 0.0141003 0.335413
0.350249 0.5 -1.0125 0.949618 0.0140258 0.284895
1.05695 0.5 -0.180382 0.844962 0.0710435 0.265605
1.05695 0.5 0.180382 0.841881 0.0732798 0.333071
1.07319 0.5 0.0709442 0.834391 0.0755672 0.315267
0.939201 0.5 -0.525 0.894819 0.0513667 0.238687
0.939201 0.5 0.525 0.890199 0.0554034 0.372886
1.0271 0.5 -0.331404 0.863194 0.0644551 0.246102
1.0271 0.5 0.331404 0.858356 0.0680772 0.357096
1.08112 0.5 3.23815e-17 0.83186 0.0761561 0.297925
1.04168 0.5 -0.291665 0.856629 0.0669414 0.249723
1.04168 0.5 0.291665 0.85205 0.0702997 0.351844
1.08112 0.5 -0.0709442 0.833306 0.0754769 0.283917
0.969689 0.5 -0.4875 0.887018 0.0550181 0.236906
0.96969 0.5 0.4875 0.881849 0.0592667 0.372646
1.05695 0.5 0.252535 0.845629 0.0725051 0.346168
1.05695 0.5 -0.252535 0.849921 0.0694324 0.253639
0.288069 0.5 -1.05 0.950451 0.0115518 0.289193
0.288069 0.5 1.05 0.950844 0.0115177 0.330723
0.075776 0.5 -1.0875 0.951232 0.00394004 0.302982
0.075776 0.5 1.0875 0.951277 0.00381414 0.315631
1.08112 0.5 -0.141888 0.83628 0.0743934 0.270273
1.08145 0.5 0.140165 0.833929 0.0761605 0.326742
0.715434 0.5 0.825 0.932752 0.0325936 0.365586
0.715434 0.5 -0.825 0.93378 0.0304456 0.25464
0.756813 0.5 0.7875 0.92817 0.0357377 0.36891
0.756814 0.5 -0.7875 0.929717 0.0332106 0.250714
0.67013 0.5 -0.8625 0.93751 0.0277275 0.258772
0.67013 0.5 0.8625 0.937007 0.0294691 0.361912
0.797732 0.5 -0.75 0.925026 0.0361681 0.246859
0.797732 0.5 0.75 0.922813 0.039111 0.371908
0.624316 0.5 -0.9 0.940623 0.0251833 0.262866
0.624316 0.5 0.9 0.940473 0.0265817 0.358063
1.00005 0.5 -0.449585 0.879231 0.058266 0.236562
1.00005 0.5 0.449585 0.87369 0.0625703 0.37081
0.835106 0.5 -0.7125 0.919948 0.0391831 0.243222
0.835106 0.5 0.7125 0.917087 0.0425046 0.37453
0.574156 0.5 -0.9375 0.943453 0.022673 0.26717
0.574157 0.5 0.9375 0.943649 0.0237065 0.353883
1.10076 0.5 -0.0349809 0.826372 0.0781704 0.289957
1.10076 0.5 0.0349809 0.82564 0.0786582 0.304454
1.08112 0.5 -0.212832 0.840744 0.0729287 0.257371
1.08112 0.5 0.212832 0.836753 0.0756988 0.340159
0.872064 0.5 -0.675 0.914231 0.042361 0.239818
0.872064 0.5 0.675 0.910666 0.0460658 0.376654
1.04168 0.5 -0.364581 0.863146 0.0648801 0.239673
1.04168 0.5 0.364581 0.857521 0.0689634 0.363465
1.0271 0.5 0.405049 0.864239 0.0665739 0.367975
1.0271 0.5 -0.405049 0.870005 0.0622868 0.236914