# UMean  POINT_DATA 63140
# x  y  z  UMean_x  UMean_y  UMean_z
0 0.1 0 0.951057 0 0.309017
0 0.1 -0.0179898 0.951057 0 0.309017
0 0.1 0.0179898 0.951057 0 0.309017
0.0363518 0.1 0.0179898 0.953986 0.00732227 0.309531
0.0363518 0.1 -0.0179898 0.953953 0.00731732 0.309128
0 0.1 -0.0570102 0.951057 0 0.309017
0 0.1 0.0570102 0.951057 0 0.309017
0.0363518 0.1 0.0570102 0.953986 0.00732227 0.309531
0.0363518 0.1 -0.0570102 0.953953 0.00731732 0.309128
0 0.1 -0.075 0.951057 0 0.309017
0 0.1 0.075 0.951057 0 0.309017
0.075776 0.1 -0.0375 0.957139 0.0153784 0.309244
0.075776 0.1 0.0375 0.957207 0.0153884 0.310085
0 0.1 -0.0929898 0.951057 0 0.309017
0 0.1 0.0929898 0.951057 0 0.309017
0.0363518 0.1 -0.0929898 0.953891 0.00728556 0.308733
0.0363518 0.1 0.0929898 0.953985 0.00730429 0.309915
0 0.1 -0.13201 0.951057 0 0.309017
0 0.1 0.13201 0.951057 0 0.309017
0.075776 0.1 -0.1125 0.957011 0.015314 0.30842
0.075776 0.1 0.1125 0.957207 0.0153515 0.310887
0.0363518 0.1 -0.13201 0.953891 0.00728556 0.308733
0.0363518 0.1 0.13201 0.953985 0.00730429 0.309915
0 0.1 -0.15 0.951057 0 0.309017
0 0.1 0.15 0.951057 0 0.309017
0.150379 0.1 -2.22623e-17 0.959235 0.0147308 0.309824
0 0.1 -0.16799 0.951057 0 0.309017
0 0.1 0.16799 0.951057 0 0.309017
0.150379 0.1 -0.075 0.959298 0.0146881 0.308408
0.150379 0.1 0.075 0.959287 0.0147414 0.311224
0.0363518 0.1 -0.16799 0.953832 0.00725066 0.308337
0.0363518 0.1 0.16799 0.953947 0.00726999 0.310289
0.075776 0.1 -0.1875 0.956888 0.0152437 0.307595
0.075776 0.1 0.1875 0.957129 0.0152822 0.311665
0 0.1 -0.20701 0.951057 0 0.309017
0 0.1 0.20701 0.951057 0 0.309017
0.0363518 0.1 -0.20701 0.953832 0.00725066 0.308337
0.0363518 0.1 0.20701 0.953947 0.00726999 0.310289
0.150379 0.1 -0.15 0.959469 0.0146332 0.306986
0.150379 0.1 0.15 0.959443 0.0147163 0.312605
0.219993 0.1 -0.0375 0.961236 0.014089 0.308995
0.219993 0.1 0.0375 0.961174 0.0141348 0.310955
0 0.1 -0.225 0.951057 0 0.309017
0 0.1 0.225 0.951057 0 0.309017
0 0.1 -0.24299 0.951057 0 0.309017
0 0.1 0.24299 0.951057 0 0.309017
0.0363518 0.1 0.24299 0.953898 0.00723115 0.31064
0.0363518 0.1 -0.24299 0.953795 0.00722286 0.307963
0.219993 0.1 -0.1125 0.96161 0.0140392 0.307012
0.219993 0.1 0.1125 0.961376 0.0141562 0.312901
0.150379 0.1 -0.225 0.959681 0.0145852 0.305591
0.150379 0.1 0.225 0.959679 0.014662 0.313964
0.075776 0.1 -0.2625 0.956814 0.0151871 0.306815
0.075776 0.1 0.2625 0.95703 0.0152036 0.312398
0 0.1 -0.28201 0.951057 0 0.309017
0 0.1 0.28201 0.951057 0 0.309017
0.0363518 0.1 -0.28201 0.953795 0.00722286 0.307963
0.0363518 0.1 0.28201 0.953898 0.00723115 0.31064
0.287374 0.1 -2.89121e-19 0.958268 0.0136343 0.309895
0.219992 0.1 0.1875 0.961857 0.0141382 0.314847
0.219992 0.1 -0.1875 0.962144 0.014003 0.30501
0.287374 0.1 -0.075 0.958468 0.0136018 0.307336
0.287374 0.1 0.075 0.958329 0.0136627 0.312429
0 0.1 -0.3 0.951057 0 0.309017
0 0.1 0.3 0.951057 0 0.309017
0 0.1 0.31799 0.951057 0 0.309017
0 0.1 -0.31799 0.951057 0 0.309017
0.0363518 0.1 -0.31799 0.953771 0.00719429 0.307618
0.0363518 0.1 0.31799 0.953861 0.00719619 0.310966
0.287374 0.1 0.15 0.958644 0.0136727 0.314946
0.287374 0.1 -0.15 0.958902 0.0135692 0.304764
0.150379 0.1 -0.3 0.959879 0.0145385 0.304277
0.150379 0.1 0.3 0.959936 0.014592 0.315266
0.219993 0.1 0.2625 0.962472 0.0140853 0.316771
0.219993 0.1 -0.2625 0.962626 0.0139728 0.303091
0.075776 0.1 -0.3375 0.956766 0.0151284 0.306095
0.075776 0.1 0.3375 0.956953 0.0151322 0.313077
0.350249 0.1 -0.0375 0.955493 0.0131681 0.308267
0.350249 0.1 0.0375 0.95543 0.0131887 0.311368
0 0.1 -0.35701 0.951057 0 0.309017
0 0.1 0.35701 0.951057 0 0.309017
0.0363518 0.1 -0.35701 0.953771 0.00719429 0.307618
0.0363518 0.1 0.35701 0.953861 0.00719619 0.310966
0.287374 0.1 -0.225 0.959449 0.0135287 0.302238
0.287374 0.1 0.225 0.959186 0.0136471 0.317437
0.350249 0.1 -0.1125 0.955799 0.013153 0.30513
0.350249 0.1 0.1125 0.955599 0.0132148 0.314447
0 0.1 -0.375 0.951057 0 0.309017
0 0.1 0.375 0.951057 0 0.309017
0 0.1 -0.39299 0.951057 0 0.309017
0 0.1 0.39299 0.951057 0 0.309017
0.0363518 0.1 -0.39299 0.953761 0.00716731 0.307302
0.0363518 0.1 0.39299 0.953834 0.00716303 0.311252
0.350249 0.1 -0.1875 0.956322 0.0131231 0.302013
0.350249 0.1 0.1875 0.95601 0.0132247 0.317495
0.219992 0.1 -0.3375 0.963036 0.0139305 0.301303
0.219992 0.1 0.3375 0.963026 0.0140078 0.318591
0.150379 0.1 0.375 0.96018 0.0145154 0.316483
0.150379 0.1 -0.375 0.960077 0.0144867 0.303058
0.411108 0.1 4.33681e-19 0.950475 0.0134274 0.309488
0.287374 0.1 -0.3 0.960008 0.0134688 0.299839
0.287374 0.1 0.3 0.959848 0.0135801 0.319852
0.411108 0.1 -0.075 0.950696 0.0134087 0.30572
0.411108 0.1 0.075 0.950532 0.0134479 0.313234
0.075776 0.1 -0.4125 0.956747 0.0150735 0.305437
0.075776 0.1 0.4125 0.9569 0.0150643 0.313673
0 0.1 0.43201 0.951057 0 0.309017
0 0.1 -0.43201 0.951057 0 0.309017
0.0363518 0.1 0.43201 0.953834 0.00716303 0.311252
0.0363518 0.1 -0.43201 0.953761 0.00716731 0.307302
0.411108 0.1 -0.15 0.951185 0.0133806 0.301973
0.411108 0.1 0.15 0.950865 0.0134627 0.316937
0.350249 0.1 -0.2625 0.956968 0.0130581 0.298996
0.350249 0.1 0.2625 0.956674 0.0131826 0.320496
0 0.1 -0.45 0.951057 0 0.309017
0 0.1 0.45 0.951057 0 0.309017
0.219992 0.1 0.4125 0.963551 0.0139191 0.320311
0.219992 0.1 -0.4125 0.963462 0.0138792 0.299642
0 0.1 -0.46799 0.951057 0 0.309017
0 0.1 0.46799 0.951057 0 0.309017
0.411108 0.1 -0.225 0.951896 0.0133238 0.298324
0.411108 0.1 0.225 0.951488 0.0134455 0.320572
0.467897 0.1 -0.0375 0.945745 0.0136563 0.306974
0.467897 0.1 0.0375 0.945648 0.0136731 0.311368
0.0363518 0.1 0.46799 0.95382 0.00713754 0.311503
0.0363518 0.1 -0.46799 0.953769 0.00714402 0.307009
0.287374 0.1 -0.375 0.960573 0.0133869 0.297608
0.287374 0.1 0.375 0.960544 0.013481 0.322127
0.150379 0.1 0.45 0.960416 0.0144421 0.31758
0.150379 0.1 -0.45 0.960274 0.0144314 0.301943
0.467897 0.1 0.1125 0.945864 0.0136917 0.315725
0.467897 0.1 -0.1125 0.946159 0.0136342 0.302587
0.350249 0.1 -0.3375 0.957656 0.0129582 0.296168
0.350249 0.1 0.3375 0.957484 0.0130878 0.323363
0.075776 0.1 -0.4875 0.956763 0.015026 0.304826
0.075776 0.1 0.4875 0.95687 0.0150125 0.314197
0.467897 0.1 0.1875 0.946397 0.0136966 0.320002
0.467897 0.1 -0.1875 0.946869 0.0135891 0.298294
0 0.1 -0.50701 0.951057 0 0.309017
0 0.1 0.50701 0.951057 0 0.309017
0.0363518 0.1 -0.50701 0.953769 0.00714402 0.307009
0.0363518 0.1 0.50701 0.95382 0.00713754 0.311503
0.411108 0.1 0.3 0.952373 0.0133761 0.324085
0.411108 0.1 -0.3 0.952755 0.0132263 0.294858
0.522865 0.1 1.41031e-17 0.93935 0.01427 0.308625
0 0.1 -0.525 0.951057 0 0.309017
0 0.1 0.525 0.951057 0 0.309017
0.522865 0.1 -0.075 0.939667 0.0142409 0.303552
0.522865 0.1 0.075 0.93941 0.0142865 0.313694
0.287374 0.1 0.45 0.961244 0.013359 0.324208
0.287374 0.1 -0.45 0.961131 0.013284 0.295576
0.219992 0.1 0.4875 0.964028 0.0138354 0.32181
0.219992 0.1 -0.4875 0.963812 0.0138122 0.298157
0.467897 0.1 -0.2625 0.947825 0.0135029 0.294172
0.467897 0.1 0.2625 0.947274 0.0136551 0.324167
0.350249 0.1 -0.4125 0.958378 0.0128274 0.293565
0.350249 0.1 0.4125 0.958365 0.0129539 0.326012
0 0.1 -0.54299 0.951057 0 0.309017
0 0.1 0.54299 0.951057 0 0.309017
0.522865 0.1 0.15 0.939849 0.0142884 0.318695
0.522865 0.1 -0.15 0.940352 0.0141866 0.29856
0.0363518 0.1 0.54299 0.953823 0.00711347 0.311733
0.0363518 0.1 -0.54299 0.953787 0.00711985 0.306739
0.150379 0.1 -0.525 0.96046 0.0143706 0.300942
0.150379 0.1 0.525 0.960628 0.0143722 0.318524
0.411108 0.1 -0.375 0.953704 0.0130883 0.291645
0.411108 0.1 0.375 0.953442 0.0132554 0.32739
0.075776 0.1 -0.5625 0.9568 0.0149766 0.304264
0.075776 0.1 0.5625 0.956877 0.0149635 0.314675
0.522865 0.1 -0.225 0.941368 0.0140921 0.293747
0.522865 0.1 0.225 0.940676 0.0142565 0.323572
0.574156 0.1 0.0375 0.933171 0.0148611 0.310977
0.574157 0.1 -0.0375 0.933329 0.0148371 0.305221
0.467897 0.1 -0.3375 0.948951 0.0133653 0.29032
0.467897 0.1 0.3375 0.948453 0.0135564 0.328137
0 0.1 -0.58201 0.951057 0 0.309017
0 0.1 0.58201 0.951057 0 0.309017
0.0363518 0.1 -0.58201 0.953787 0.00711985 0.306739
0.0363518 0.1 0.58201 0.953823 0.00711347 0.311733
0.574157 0.1 -0.1125 0.933925 0.0147843 0.29952
0.574157 0.1 0.1125 0.933452 0.0148676 0.316694
0.287374 0.1 -0.525 0.961665 0.0131652 0.293768
0.287374 0.1 0.525 0.961899 0.013221 0.326036
0 0.1 -0.6 0.951057 0 0.309017
0 0.1 0.6 0.951057 0 0.309017
0.350249 0.1 0.4875 0.959262 0.0127753 0.328427
0.350249 0.1 -0.4875 0.959097 0.0126689 0.291227
0.522865 0.1 -0.3 0.942657 0.0139462 0.289205
0.522865 0.1 0.3 0.94189 0.0141705 0.328262
0.219992 0.1 -0.5625 0.964135 0.0137341 0.296847
0.219992 0.1 0.5625 0.964402 0.0137424 0.323046
0.574156 0.1 -0.1875 0.934934 0.0146887 0.293983
0.574156 0.1 0.1875 0.93417 0.014846 0.322294
0.411108 0.1 0.45 0.954616 0.0130841 0.330431
0.411108 0.1 -0.45 0.954711 0.0129158 0.288729
0 0.1 -0.61799 0.951057 0 0.309017
0 0.1 0.61799 0.951057 0 0.309017
0.150379 0.1 -0.6 0.960651 0.0143053 0.300053
0.150379 0.1 0.6 0.960827 0.014298 0.319326
0.0363518 0.1 -0.61799 0.953807 0.00709615 0.306499
0.0363518 0.1 0.61799 0.953836 0.00708724 0.311937
0.467897 0.1 -0.4125 0.950193 0.0131835 0.286791
0.467897 0.1 0.4125 0.949841 0.0134014 0.331826
0.623803 0.1 2.34188e-17 0.925875 0.0157519 0.307374
0.623803 0.1 0.075 0.925931 0.0157697 0.31384
0.623803 0.1 -0.075 0.926342 0.0156962 0.300932
0.574156 0.1 0.2625 0.935344 0.0147775 0.327711
0.574156 0.1 -0.2625 0.936312 0.0145401 0.288729
0.623803 0.1 0.15 0.926509 0.015752 0.320223
0.623803 0.1 -0.15 0.927314 0.0155916 0.294636
0.075776 0.1 0.6375 0.956904 0.01491 0.315101
0.075776 0.1 -0.6375 0.956842 0.0149281 0.303764
0.522865 0.1 -0.375 0.944147 0.0137471 0.285013
0.522865 0.1 0.375 0.94343 0.0140228 0.332675
0 0.1 0.65701 0.951057 0 0.309017
0 0.1 -0.65701 0.951057 0 0.309017
0.0363518 0.1 0.65701 0.953836 0.00708724 0.311937
0.0363518 0.1 -0.65701 0.953807 0.00709615 0.306499
0.350249 0.1 0.5625 0.960112 0.0125829 0.33055
0.350249 0.1 -0.5625 0.959824 0.0125011 0.289166
0.623803 0.1 0.225 0.927611 0.015688 0.326431
0.623803 0.1 -0.225 0.928754 0.0154292 0.28861
0.287374 0.1 -0.6 0.962207 0.0130377 0.292183
0.287374 0.1 0.6 0.962509 0.0130747 0.327597
0.574157 0.1 -0.3375 0.937986 0.0143314 0.283832
0.574157 0.1 0.3375 0.936954 0.0146437 0.332872
0.411108 0.1 0.525 0.955825 0.0128733 0.333163
0.411108 0.1 -0.525 0.955756 0.0127198 0.286141
0.67013 0.1 0.0375 0.918639 0.01664 0.310265
0.67013 0.1 -0.0375 0.918893 0.0165963 0.303083
0.219992 0.1 -0.6375 0.964483 0.0136503 0.295694
0.219993 0.1 0.6375 0.964773 0.0136433 0.32408
0 0.1 -0.675 0.951057 0 0.309017
0 0.1 0.675 0.951057 0 0.309017
0.467897 0.1 -0.4875 0.951514 0.0129668 0.283633
0.467897 0.1 0.4875 0.951351 0.013185 0.335194
0.67013 0.1 -0.1125 0.919744 0.0164956 0.296007
0.67013 0.1 0.1125 0.918994 0.0166367 0.317422
0.522865 0.1 0.45 0.945203 0.0138107 0.336738
0.522865 0.1 -0.45 0.945786 0.0135033 0.281232
0.150379 0.1 0.675 0.961036 0.0142199 0.320003
0.150379 0.1 -0.675 0.960854 0.0142388 0.299277
0.623803 0.1 0.3 0.929234 0.0155614 0.332381
0.623803 0.1 -0.3 0.930596 0.0152029 0.282958
0 0.1 -0.69299 0.951057 0 0.309017
0 0.1 0.69299 0.951057 0 0.309017
0.0363518 0.1 -0.69299 0.953824 0.00707548 0.306292
0.0363518 0.1 0.69299 0.953852 0.00706156 0.312112
0.67013 0.1 -0.1875 0.921168 0.0163285 0.289182
0.67013 0.1 0.1875 0.919946 0.0165851 0.32443
0.574156 0.1 0.4125 0.938916 0.0144421 0.337659
0.574157 0.1 -0.4125 0.939881 0.0140664 0.279381
0.714971 0.1 -2.8382e-17 0.910612 0.0177902 0.305797
0.075776 0.1 -0.7125 0.956878 0.014886 0.303332
0.075776 0.1 0.7125 0.956937 0.0148576 0.315464
0.714971 0.1 -0.075 0.911276 0.0176928 0.297921
0.714971 0.1 0.075 0.910649 0.0178186 0.313734
0.67013 0.1 0.2625 0.921498 0.0164722 0.331184
0.67013 0.1 -0.2625 0.9231 0.0160934 0.282741
0.411108 0.1 -0.6 0.956837 0.0125093 0.283891
0.411108 0.1 0.6 0.957028 0.0126441 0.335544
0.350249 0.1 0.6375 0.960939 0.0123865 0.332364
0.350249 0.1 -0.6375 0.960578 0.0123248 0.28738
0.623803 0.1 0.375 0.931327 0.0153617 0.337971
0.623803 0.1 -0.375 0.932763 0.0149114 0.277772
0.714971 0.1 -0.15 0.912621 0.0175188 0.290258
0.714971 0.1 0.15 0.911388 0.0177825 0.321582
0.467897 0.1 -0.5625 0.952899 0.0127284 0.280869
0.467897 0.1 0.5625 0.952901 0.0129311 0.338179
0 0.1 -0.73201 0.951057 0 0.309017
0 0.1 0.73201 0.951057 0 0.309017
0.0363518 0.1 0.73201 0.953852 0.00706156 0.312112
0.0363518 0.1 -0.73201 0.953824 0.00707548 0.306292
0.287374 0.1 -0.675 0.962774 0.0129032 0.290819
0.287374 0.1 0.675 0.963118 0.0129229 0.328909
0.522865 0.1 -0.525 0.947536 0.0132272 0.2779
0.522865 0.1 0.525 0.947118 0.0135415 0.340394
0.219993 0.1 -0.7125 0.964854 0.0135608 0.294703
0.219992 0.1 0.7125 0.965163 0.0135383 0.324941
0.714971 0.1 -0.225 0.914594 0.0172623 0.282961
0.714971 0.1 0.225 0.912818 0.0176781 0.329205
0 0.1 0.75 0.951057 0 0.309017
0 0.1 -0.75 0.951057 0 0.309017
0.67013 0.1 -0.3375 0.925461 0.0157838 0.276764
0.67013 0.1 0.3375 0.923638 0.0162832 0.337608
0.574156 0.1 -0.4875 0.94195 0.0137582 0.275427
0.574157 0.1 0.4875 0.941127 0.0141689 0.342023
0.756813 0.1 0.0375 0.902538 0.0189569 0.309288
0.756814 0.1 -0.0375 0.902916 0.0188798 0.300609
0.150379 0.1 0.746002 0.961165 0.0141566 0.320447
0.150379 0.1 -0.75 0.961061 0.0141727 0.298619
0.756813 0.1 -0.1125 0.904082 0.0187133 0.29209
0.756813 0.1 0.1125 0.902965 0.0189523 0.317966
0 0.1 0.76799 0.951057 0 0.309017
0 0.1 -0.76799 0.951057 0 0.309017
0.0363518 0.1 0.76799 0.953867 0.00703886 0.312253
0.0363518 0.1 -0.76799 0.953838 0.0070577 0.306119
0.623803 0.1 -0.45 0.935184 0.0145652 0.273132
0.623803 0.1 0.45 0.933791 0.0150871 0.343107
0.714971 0.1 -0.3 0.917118 0.0169241 0.276157
0.714971 0.1 0.3 0.914927 0.0174945 0.336494
0.756814 0.1 -0.1875 0.906008 0.0184543 0.283906
0.756814 0.1 0.1875 0.904181 0.0188683 0.326465
0.67013 0.1 -0.4125 0.928172 0.0154053 0.271382
0.67013 0.1 0.4125 0.926276 0.0160113 0.343551
0.411108 0.1 0.675 0.958223 0.0124056 0.337557
0.411108 0.1 -0.675 0.957951 0.0122881 0.281986
0.467897 0.1 0.6375 0.954452 0.01266 0.340746
0.467897 0.1 -0.6375 0.954331 0.0124725 0.278509
0.075776 0.1 0.7875 0.956968 0.0148114 0.315758
0.075776 0.1 -0.7875 0.956907 0.0148498 0.302972
0.350249 0.1 -0.7125 0.961355 0.0121407 0.285876
0.350249 0.1 0.7125 0.961765 0.0121842 0.333872
0.522865 0.1 -0.6 0.949366 0.0129286 0.275038
0.522865 0.1 0.6 0.949097 0.0132352 0.343588
0.797314 0.1 -3.59473e-17 0.894009 0.0204162 0.303956
0.287374 0.1 0.746002 0.963733 0.012786 0.329852
0.797314 0.1 -0.075 0.894918 0.0202595 0.294578
0.797314 0.1 0.075 0.894008 0.0204671 0.313433
0.756814 0.1 -0.2625 0.908602 0.0180935 0.27621
0.756814 0.1 0.2625 0.906167 0.0187007 0.334648
0.287374 0.1 -0.75 0.963357 0.0127632 0.289679
0.574156 0.1 -0.5625 0.944145 0.013421 0.272004
0.574156 0.1 0.5625 0.943485 0.0138383 0.345892
0 0.1 0.80701 0.951057 0 0.309017
0 0.1 -0.80701 0.951057 0 0.309017
0.714971 0.1 -0.375 0.920103 0.0165092 0.269962
0.714971 0.1 0.375 0.917663 0.0172215 0.343331
0.0363518 0.1 0.80701 0.953867 0.00703886 0.312253
0.0363518 0.1 -0.80701 0.953838 0.0070577 0.306119
0.797314 0.1 -0.15 0.896709 0.0199909 0.285482
0.797314 0.1 0.15 0.894919 0.020417 0.32282
0.623803 0.1 -0.525 0.937797 0.0141799 0.269085
0.623803 0.1 0.525 0.936519 0.0147424 0.347722
0.219992 0.1 0.7875 0.965566 0.0134287 0.325635
0.219992 0.1 -0.7875 0.965234 0.0134667 0.293881
0.149792 0.1 0.80701 0.961413 0.0140834 0.3209
0 0.1 0.825 0.951057 0 0.309017
0 0.1 -0.825 0.951057 0 0.309017
0.797314 0.1 -0.225 0.899319 0.0196081 0.276856
0.797314 0.1 0.225 0.896718 0.0202664 0.331938
0.756813 0.1 -0.3375 0.911783 0.0176508 0.269149
0.756813 0.1 0.3375 0.908909 0.0184379 0.342396
0.67013 0.1 0.4875 0.929296 0.0156622 0.34896
0.67013 0.1 -0.4875 0.931149 0.0149767 0.266644
0.835106 0.1 -0.0375 0.885825 0.0217994 0.297873
0.835106 0.1 0.0375 0.885281 0.021926 0.308111
0.150379 0.1 -0.825 0.961265 0.0141081 0.298084
0.835106 0.1 -0.1125 0.887363 0.0215449 0.287843
0.835106 0.1 0.1125 0.885773 0.0219295 0.318376
0 0.1 -0.84299 0.951057 0 0.309017
0 0.1 0.84299 0.951057 0 0.309017
0.0363518 0.1 -0.84299 0.953847 0.00704243 0.305981
0.0363518 0.1 0.84299 0.953878 0.0070195 0.312359
0.714971 0.1 -0.45 0.923455 0.0160302 0.264464
0.714971 0.1 0.45 0.920917 0.0168593 0.349595
0.411108 0.1 0.746002 0.959409 0.0121705 0.339048
0.797314 0.1 -0.3 0.90265 0.0191226 0.268868
0.797314 0.1 0.3 0.899377 0.020009 0.340637
0.467897 0.1 -0.7125 0.955795 0.0122073 0.276557
0.467897 0.1 0.7125 0.956 0.0123791 0.342882
0.522865 0.1 0.675 0.951095 0.0129088 0.346292
0.522865 0.1 -0.675 0.951245 0.0126146 0.272655
0.411108 0.1 -0.75 0.959082 0.01206 0.280425
0.835106 0.1 -0.1875 0.889885 0.0211544 0.278238
0.835107 0.1 0.1875 0.887277 0.0218146 0.328436
0.286844 0.1 0.80701 0.964209 0.0126458 0.330643
0.574156 0.1 0.6375 0.945908 0.0134723 0.349217
0.574157 0.1 -0.6375 0.946422 0.0130623 0.269127
0.350249 0.1 -0.7875 0.962141 0.0119527 0.284653
0.350249 0.1 0.7875 0.962593 0.0119772 0.335082
0.756813 0.1 -0.4125 0.915443 0.0171268 0.262821
0.756814 0.1 0.4125 0.912311 0.0180725 0.349587
0.623803 0.1 -0.6 0.940539 0.0137673 0.265658
0.623803 0.1 0.6 0.939402 0.0143417 0.351747
0.075776 0.1 0.8625 0.956992 0.014772 0.315979
0.075776 0.1 -0.8625 0.956927 0.0148188 0.302684
0.871687 0.1 -3.2767e-18 0.876508 0.0235927 0.301899
0.287374 0.1 -0.825 0.963939 0.0126206 0.288762
0.871687 0.1 -0.075 0.877692 0.0233544 0.290962
0.871687 0.1 0.075 0.876454 0.0236807 0.312974
0.67013 0.1 -0.5625 0.934321 0.0145142 0.262596
0.67013 0.1 0.5625 0.932584 0.0152394 0.35374
0.835106 0.1 0.2625 0.889754 0.0215805 0.338119
0.835106 0.1 -0.2625 0.893264 0.0206379 0.26926
0.797314 0.1 -0.375 0.906593 0.0185474 0.261646
0.797314 0.1 0.375 0.902837 0.0196381 0.348781
0 0.1 -0.88201 0.951057 0 0.309017
0 0.1 0.88201 0.951057 0 0.309017
0.0363518 0.1 0.88201 0.953878 0.0070195 0.312359
0.0363518 0.1 -0.88201 0.953847 0.00704243 0.305981
0.871687 0.1 0.15 0.877543 0.0236216 0.323963
0.871687 0.1 -0.15 0.879981 0.0229606 0.280377
0.714971 0.1 0.525 0.924564 0.0164144 0.3552
0.714971 0.1 -0.525 0.92708 0.015506 0.259723
0.219993 0.1 0.8625 0.965967 0.0133168 0.326173
0.219992 0.1 -0.8625 0.965605 0.0133723 0.293228
0 0.1 0.9 0.951057 0 0.309017
0 0.1 -0.9 0.951057 0 0.309017
0.756813 0.1 0.4875 0.91624 0.0176136 0.356061
0.756814 0.1 -0.4875 0.919468 0.0165472 0.25731
0.871687 0.1 0.225 0.879737 0.0234189 0.334639
0.871687 0.1 -0.225 0.883304 0.0224172 0.270385
0.835106 0.1 -0.3375 0.897407 0.0200212 0.26108
0.835106 0.1 0.3375 0.893167 0.0212177 0.347255
0.41063 0.1 0.80701 0.960328 0.011971 0.340216
0.90582 0.1 -0.0375 0.868069 0.0251699 0.294913
0.905821 0.1 0.0375 0.867348 0.0253671 0.306757
0.522865 0.1 0.746002 0.953062 0.0125816 0.348319
0.150379 0.1 0.9 0.961684 0.0139893 0.321327
0.90582 0.1 0.1125 0.867905 0.0253904 0.318666
0.905821 0.1 -0.1125 0.869994 0.024798 0.283322
0.522865 0.1 -0.75 0.95314 0.0122921 0.270748
0.574156 0.1 0.7125 0.948343 0.0130889 0.351977
0.574156 0.1 -0.7125 0.948732 0.0126904 0.266801
0.797314 0.1 -0.45 0.911019 0.017897 0.25529
0.797314 0.1 0.45 0.906979 0.0191575 0.356221
0.467897 0.1 -0.7875 0.957263 0.0119358 0.275008
0.467897 0.1 0.7875 0.957543 0.0120916 0.344592
0.150379 0.1 -0.903998 0.961539 0.0140354 0.297596
0 0.1 0.91799 0.951057 0 0.309017
0 0.1 -0.91799 0.951057 0 0.309017
0.0363518 0.1 0.91799 0.953885 0.00700341 0.31243
0.0363518 0.1 -0.91799 0.953854 0.00702871 0.305876
0.623803 0.1 0.675 0.942354 0.0139064 0.355144
0.623803 0.1 -0.675 0.943349 0.0133371 0.26286
0.411108 0.1 -0.825 0.960206 0.0118287 0.279202
0.871687 0.1 0.3 0.882986 0.0230707 0.344808
0.871687 0.1 -0.3 0.887534 0.0217456 0.261182
0.67013 0.1 -0.6375 0.937611 0.0140272 0.259255
0.67013 0.1 0.6375 0.936014 0.0147602 0.357837
0.90582 0.1 -0.1875 0.873149 0.0242435 0.272249
0.90582 0.1 0.1875 0.869703 0.0252425 0.330344
0.350249 0.1 0.8625 0.963411 0.0117677 0.336
0.350249 0.1 -0.8625 0.962915 0.011763 0.283702
0.835106 0.1 -0.4125 0.90216 0.0193097 0.253794
0.835106 0.1 0.4125 0.897428 0.0207288 0.35572
0.714971 0.1 -0.6 0.930886 0.0149518 0.255772
0.714971 0.1 0.6 0.928468 0.0158977 0.360075
0.93886 0.1 -1.15648e-17 0.858418 0.0275704 0.299678
0.075776 0.1 0.9375 0.957008 0.0147393 0.316127
0.075776 0.1 -0.9375 0.956942 0.0147908 0.302466
0.93886 0.1 0.075 0.858288 0.0277131 0.312436
0.93886 0.1 -0.075 0.859909 0.0272221 0.2871
0.756813 0.1 0.5625 0.920559 0.0170691 0.361782
0.756814 0.1 -0.5625 0.923757 0.0159267 0.252666
0.905821 0.1 -0.2625 0.877365 0.0235366 0.261971
0.905821 0.1 0.2625 0.872688 0.0249301 0.341581
0.287374 0.1 0.9 0.964954 0.0124449 0.331452
0.287374 0.1 -0.903998 0.964426 0.012473 0.288016
0.871687 0.1 0.375 0.88722 0.0225772 0.354306
0.871687 0.1 -0.375 0.892527 0.0209648 0.25291
0.93886 0.1 -0.15 0.86275 0.0266637 0.274946
0.93886 0.1 0.15 0.859557 0.0276486 0.325113
0.797314 0.1 0.525 0.911649 0.0185777 0.362845
0.797314 0.1 -0.525 0.915807 0.0171939 0.249874
0 0.1 0.95701 0.951057 0 0.309017
0 0.1 -0.95701 0.951057 0 0.309017
0.0363518 0.1 0.95701 0.953885 0.00700341 0.31243
0.0363518 0.1 -0.95701 0.953854 0.00702871 0.305876
0.522433 0.1 0.80701 0.954605 0.0123109 0.349851
0.219992 0.1 0.9375 0.966348 0.0132079 0.326549
0.219992 0.1 -0.9375 0.965957 0.0132764 0.29274
0.93886 0.1 0.225 0.862169 0.0273823 0.337426
0.93886 0.1 -0.225 0.86687 0.0259115 0.263514
0.90582 0.1 0.3375 0.876791 0.0244496 0.352162
0.905821 0.1 -0.3375 0.882522 0.0226962 0.252633
0.835106 0.1 -0.4875 0.907394 0.0185295 0.247519
0.835107 0.1 0.4875 0.902376 0.020124 0.36331
0.969689 0.1 -0.0375 0.84983 0.0296615 0.291765
0.969689 0.1 0.0375 0.848869 0.0299557 0.305331
0.61613 0.1 0.75 0.945314 0.0134539 0.357899
0.574156 0.1 -0.7875 0.951033 0.0123133 0.265012
0.574156 0.1 0.7875 0.950765 0.0126961 0.354173
0 0.1 0.975 0.951057 0 0.309017
0 0.1 -0.975 0.951057 0 0.309017
0.623803 0.1 -0.75 0.946168 0.0128983 0.260682
0.969689 0.1 -0.1125 0.852182 0.0291348 0.278496
0.969689 0.1 0.1125 0.849478 0.0300102 0.319003
0.522865 0.1 -0.825 0.955012 0.011966 0.269304
0.67013 0.1 0.7125 0.939495 0.0142523 0.361217
0.67013 0.1 -0.7125 0.940939 0.0135289 0.25662
0.871687 0.1 -0.45 0.898126 0.0200971 0.245691
0.871687 0.1 0.45 0.89231 0.0219466 0.362963
0.467897 0.1 0.8625 0.959066 0.0117989 0.345887
0.467897 0.1 -0.8625 0.958703 0.0116634 0.27385
0.714971 0.1 -0.675 0.934778 0.0143807 0.252617
0.714971 0.1 0.675 0.932499 0.0153308 0.36417
0.93886 0.1 -0.3 0.872086 0.0249965 0.253019
0.93886 0.1 0.3 0.866052 0.0269198 0.349141
0.150379 0.1 0.975 0.961878 0.0139193 0.321534
0.150379 0.1 -0.975 0.961639 0.013982 0.297369
0.969689 0.1 -0.1875 0.8561 0.028359 0.26585
0.969689 0.1 0.1875 0.851586 0.0298222 0.332409
0.411108 0.1 0.9 0.961762 0.0116591 0.341434
0.756813 0.1 0.6375 0.925101 0.0164536 0.366659
0.756814 0.1 -0.6375 0.928194 0.0152853 0.24891
0.990306 0.1 -2.19732e-17 0.844083 0.031063 0.297837
0 0.1 0.99299 0.951057 0 0.309017
0 0.1 -0.99299 0.951057 0 0.309017
0.411108 0.1 -0.903998 0.961156 0.0116172 0.278266
0.990306 0.1 -0.075 0.845825 0.0306176 0.283982
0.990306 0.1 0.075 0.843891 0.0312598 0.311907
0.0363518 0.1 0.99299 0.953889 0.00698969 0.312468
0.0363518 0.1 -0.99299 0.953858 0.00701573 0.305804
0.90582 0.1 -0.4125 0.888412 0.0217484 0.244376
0.905821 0.1 0.4125 0.881928 0.0238113 0.361932
0.797314 0.1 -0.6 0.920825 0.0164588 0.245435
0.797314 0.1 0.6 0.91668 0.0179109 0.368583
0.350249 0.1 0.9375 0.964205 0.0115611 0.336645
0.350249 0.1 -0.9375 0.963665 0.0115712 0.283015
0.990306 0.1 0.15 0.845308 0.031199 0.325902
0.990306 0.1 -0.15 0.849122 0.0299156 0.270593
0.969689 0.1 -0.2625 0.861268 0.0273934 0.254158
0.969689 0.1 0.2625 0.855131 0.0294069 0.345298
0.835106 0.1 -0.5625 0.912959 0.0177038 0.242306
0.835106 0.1 0.5625 0.907827 0.019418 0.369988
0.93886 0.1 -0.375 0.878233 0.0239458 0.243624
0.93886 0.1 0.375 0.871118 0.0262692 0.360049
0.075776 0.1 1.0125 0.957017 0.0147113 0.316207
0.075776 0.1 -1.0125 0.956952 0.0147643 0.302317
0.990306 0.1 -0.225 0.853896 0.0289803 0.258024
0.990306 0.1 0.225 0.848262 0.0308863 0.339495
0.287374 0.1 0.975 0.965531 0.0122874 0.331861
0.287374 0.1 -0.975 0.965047 0.0123308 0.287578
0.871687 0.1 -0.525 0.904177 0.0191716 0.239615
0.871687 0.1 0.525 0.898071 0.0211935 0.370641
1.02149 0.1 -0.0369628 0.833923 0.0336375 0.28901
1.02149 0.1 0.0369628 0.832817 0.0340211 0.30375
0.969689 0.1 -0.3375 0.867565 0.0262533 0.243519
0.969689 0.1 0.3375 0.860014 0.0287684 0.35741
1.02149 0.1 -0.110888 0.836607 0.0329921 0.274572
1.02149 0.1 0.110888 0.833462 0.0341224 0.31865
0.90582 0.1 0.4875 0.887916 0.0230258 0.370702
0.90582 0.1 -0.4875 0.894896 0.0207243 0.23734
0.623803 0.1 0.819003 0.947372 0.013123 0.360343
0 0.1 1.03201 0.951057 0 0.309017
0 0.1 -1.03201 0.951057 0 0.309017
0.0363518 0.1 1.03201 0.953889 0.00698969 0.312468
0.0363518 0.1 -1.03201 0.953858 0.00701573 0.305804
0.67013 0.1 -0.7875 0.944237 0.0130257 0.254667
0.67013 0.1 0.7875 0.942961 0.0137311 0.363882
0.623803 0.1 -0.825 0.94894 0.0124576 0.2591
0.990306 0.1 -0.3 0.859921 0.0278536 0.246498
0.990306 0.1 0.3 0.852667 0.0303326 0.352422
0.219992 0.1 -1.0125 0.966287 0.0131782 0.292409
0.219993 0.1 1.0125 0.966703 0.0131013 0.326768
0.574156 0.1 0.8625 0.953144 0.0122975 0.35582
0.574157 0.1 -0.8625 0.953283 0.0119343 0.263737
0.714971 0.1 -0.75 0.938665 0.0138028 0.250242
0.714971 0.1 0.75 0.93656 0.0147376 0.367466
1.02149 0.1 0.184814 0.835787 0.033933 0.333276
1.02149 0.1 -0.184814 0.841038 0.0320426 0.26078
0.756814 0.1 -0.7125 0.932667 0.0146332 0.246034
0.756814 0.1 0.7125 0.929734 0.0157937 0.370661
0.522865 0.1 0.9 0.956993 0.011881 0.351457
0.93886 0.1 -0.45 0.885126 0.0227945 0.235511
0.93886 0.1 0.45 0.877226 0.0254439 0.369976
1.04168 0.1 0 0.826712 0.0356943 0.295525
1.04168 0.1 -0.0729162 0.828681 0.0351383 0.280511
1.04168 0.1 0.0729162 0.826451 0.035967 0.310782
0.522865 0.1 -0.903998 0.956603 0.0116741 0.268264
0.797314 0.1 -0.675 0.925939 0.0157112 0.241978
0.797314 0.1 0.675 0.921909 0.0171779 0.373374
0.467897 0.1 0.9375 0.960541 0.0115066 0.346784
0.467897 0.1 -0.9375 0.960088 0.0113889 0.273058
0 0.1 1.05 0.951057 0 0.309017
0 0.1 -1.05 0.951057 0 0.309017
0.835106 0.1 -0.6375 0.918702 0.0168578 0.23818
0.835106 0.1 0.6375 0.913604 0.0186224 0.375642
1.04168 0.1 -0.145832 0.832352 0.0342801 0.265962
1.04168 0.1 0.145832 0.827943 0.0359345 0.325993
1.02149 0.1 -0.25874 0.846886 0.0308794 0.248053
1.02149 0.1 0.25874 0.839717 0.0334697 0.347358
0.969689 0.1 -0.4125 0.874779 0.0249871 0.234201
0.969689 0.1 0.4125 0.866135 0.0279279 0.368545
0.411108 0.1 0.975 0.962877 0.0114103 0.34205
0.411108 0.1 -0.975 0.962349 0.0113618 0.277712
0.871687 0.1 -0.6 0.910506 0.0182177 0.234725
0.871687 0.1 0.6 0.904299 0.0203355 0.377247
1.0579 0.1 -0.0360525 0.822096 0.0369759 0.28697
1.0579 0.1 0.0360525 0.820897 0.0374303 0.30245
0.990306 0.1 -0.375 0.867031 0.0265684 0.236226
0.990306 0.1 0.375 0.858414 0.0295523 0.364441
0.150379 0.1 1.05 0.962054 0.0138524 0.321631
0.150379 0.1 -1.05 0.961807 0.0139195 0.29718
1.0579 0.1 0.108157 0.821495 0.0375728 0.31812
1.0579 0.1 -0.108157 0.824982 0.0362429 0.271796
1.04168 0.1 -0.218749 0.837643 0.0331448 0.252291
1.04168 0.1 0.218749 0.831113 0.0356017 0.34079
0.90582 0.1 -0.5625 0.901782 0.0196593 0.231581
0.90582 0.1 0.5625 0.894545 0.0221156 0.378346
0 0.1 -1.06799 0.951057 0 0.309017
0 0.1 1.06799 0.951057 0 0.309017
0.0363518 0.1 -1.06799 0.953862 0.0070052 0.305763
0.0363518 0.1 1.06799 0.953891 0.00697746 0.312474
0.350249 0.1 1.0125 0.964962 0.0113577 0.337031
0.350249 0.1 -1.0125 0.964381 0.0113784 0.282578
1.0579 0.1 -0.180262 0.829624 0.0351619 0.257271
1.0579 0.1 0.180262 0.82383 0.0373926 0.333519
1.02149 0.1 -0.332665 0.854026 0.0295127 0.236465
1.02149 0.1 0.332665 0.845137 0.0327408 0.360617
0.93886 0.1 -0.525 0.892568 0.0215795 0.228789
0.93886 0.1 0.525 0.884161 0.0244637 0.378749
1.08012 0.1 5.49329e-18 0.813811 0.0395955 0.293687
1.04168 0.1 -0.291665 0.844334 0.0317904 0.239749
1.04168 0.1 0.291665 0.835867 0.0349812 0.354898
1.08012 0.1 0.0709941 0.813482 0.0399308 0.309747
1.08012 0.1 -0.0709941 0.815932 0.0389521 0.277885
0.969689 0.1 -0.4875 0.882729 0.0236283 0.226384
0.96969 0.1 0.4875 0.873293 0.0268969 0.378547
1.0579 0.1 0.252367 0.82783 0.0369075 0.348375
1.0579 0.1 -0.252367 0.835768 0.033851 0.243863
0.990306 0.1 -0.45 0.875018 0.0251671 0.227423
0.990306 0.1 0.45 0.865349 0.0285629 0.375368
0.287374 0.1 -1.05 0.965558 0.0121843 0.287285
0.287374 0.1 1.05 0.966073 0.012132 0.332069
0.714971 0.1 0.821002 0.940224 0.0141903 0.369928
1.08012 0.1 -0.141988 0.819814 0.0379734 0.26255
1.08012 0.1 0.141988 0.814958 0.039929 0.325777
0.075776 0.1 1.0875 0.95702 0.0146864 0.316219
0.075776 0.1 -1.0875 0.95696 0.0147429 0.302232
0.714971 0.1 -0.825 0.942468 0.0132285 0.248608
0.756813 0.1 -0.7875 0.937079 0.0139809 0.244001
0.756814 0.1 0.7875 0.934359 0.0151154 0.373779
0.67013 0.1 -0.8625 0.947442 0.0125269 0.253363
0.67013 0.1 0.8625 0.94636 0.0132065 0.365855
0.797314 0.1 -0.75 0.931022 0.0149656 0.239474
0.797314 0.1 0.75 0.927196 0.0164082 0.377197
0.623803 0.1 0.9 0.951089 0.0125315 0.361539
0.835106 0.1 -0.7125 0.924466 0.0160135 0.235117
0.835106 0.1 0.7125 0.919528 0.0177678 0.380248
0.623803 0.1 -0.903998 0.951305 0.0120701 0.25804
0.574156 0.1 0.9375 0.955442 0.0118988 0.356942
0.574156 0.1 -0.9375 0.95544 0.0115589 0.262939
1.02149 0.1 -0.406591 0.862256 0.0279997 0.226421
1.02149 0.1 0.406591 0.851918 0.0317716 0.372821
1.08012 0.1 -0.212982 0.825366 0.0366863 0.248117
1.08012 0.1 0.212982 0.818173 0.0395948 0.341397
1.10076 0.1 -0.0349809 0.806948 0.0417071 0.284498
1.10076 0.1 0.0349809 0.805665 0.0422514 0.300901
0.871687 0.1 -0.675 0.916938 0.0172575 0.231022
0.871687 0.1 0.675 0.910787 0.0193967 0.382724
1.04168 0.1 -0.364581 0.852269 0.0302492 0.228582
1.04168 0.1 0.364581 0.842081 0.0340907 0.36805
1.10076 0.1 -0.104943 0.810051 0.0408659 0.2684
1.10076 0.1 0.104943 0.806245 0.0424468 0.317531
0.522865 0.1 0.975 0.958843 0.0115366 0.352253
0.522865 0.1 -0.975 0.958559 0.0113161 0.267698