# wallShearStress  FACE_DATA 60650
# x  y  z  wallShearStress_x  wallShearStress_y  wallShearStress_z
8.48833 0 0.815368 0.00110458 -3.73518e-06 0.000359975
8.46695 0 0.797732 0.00105023 -4.14189e-06 0.000265423
8.44642 0 0.780797 0.000971883 -4.53063e-06 0.000159913
8.51058 0 0.88426 0.00106399 -7.39068e-06 0.000449
8.48833 0 0.864784 0.00103373 -8.54822e-06 0.00038109
8.46695 0 0.84608 0.000999452 -9.0006e-06 0.000313656
8.44642 0 0.828118 0.00095138 -8.04785e-06 0.00023396
8.42671 0 0.810869 0.000890342 -8.38327e-06 0.000139842
8.51058 0 0.934789 0.00107676 5.30127e-07 0.000513471
8.48833 0 0.9142 0.00104525 2.97471e-07 0.000451637
8.46695 0 0.894427 0.00101564 -5.31891e-07 0.000385539
8.44642 0 0.875439 0.000990956 -1.35979e-06 0.000316224
8.42671 0 0.857205 0.000959321 -1.25128e-06 0.000235311
8.40778 0 0.839693 0.000911066 -1.29633e-06 0.000143581
8.5579 0 1.03145 0.000997712 -7.8606e-06 0.00051363
8.53376 0 1.00792 0.000995518 -7.54092e-06 0.000494075
8.51058 0 0.985317 0.00098934 -8.23192e-06 0.000463792
8.48833 0 0.963616 0.000979543 -9.01536e-06 0.000423751
8.46695 0 0.942775 0.000963337 -1.02435e-05 0.000374324
8.44642 0 0.92276 0.00093468 -1.15253e-05 0.000322903
8.42671 0 0.90354 0.000896119 -1.32713e-05 0.000268884
8.40778 0 0.885082 0.000862535 -1.36367e-05 0.000211056
8.38959 0 0.867357 0.000811506 -1.44482e-05 0.000147415
7.21655 0 0.872138 -0.00700143 1.2028e-06 -0.00312712
7.21088 0 0.889597 -0.00705869 5.69288e-06 -0.00346372
7.20497 0 0.907776 -0.00699068 9.89311e-06 -0.00374553
7.19882 0 0.926708 -0.00683027 1.13621e-05 -0.00395775
7.19241 0 0.94642 -0.00660967 8.87578e-06 -0.00408362
7.2692 0 0.839271 -0.00561556 -1.58245e-05 -0.0018148
7.26477 0 0.855372 -0.00603112 -1.4224e-05 -0.00207227
7.26016 0 0.872138 -0.00639244 -1.02974e-05 -0.00235625
7.25536 0 0.889597 -0.00667171 -4.2123e-06 -0.00266642
7.25036 0 0.907777 -0.00684028 1.44566e-06 -0.00298211
7.24516 0 0.926707 -0.00688642 5.74529e-06 -0.00327566
7.23974 0 0.94642 -0.00681922 8.67995e-06 -0.00351947
7.23409 0 0.966948 -0.00666074 8.0522e-06 -0.00368852
7.31464 0 0.823809 -0.00430825 -1.45068e-05 -0.0011871
7.31116 0 0.839271 -0.00474483 -1.42702e-05 -0.00136954
7.30754 0 0.855372 -0.00517627 -1.43172e-05 -0.00156453
7.30377 0 0.872138 -0.00559825 -1.3225e-05 -0.00178261
7.29984 0 0.889597 -0.00598928 -1.10582e-05 -0.00202724
7.29575 0 0.907776 -0.00631907 -7.51562e-06 -0.00229375
7.29149 0 0.926707 -0.00656299 -2.74088e-06 -0.00257436
7.28705 0 0.946421 -0.00670156 1.54717e-06 -0.00285359
7.28243 0 0.966948 -0.00672412 4.60488e-06 -0.00310197
7.27762 0 0.988324 -0.00664463 6.00303e-06 -0.00329502
7.27262 0 1.01058 -0.00649172 5.1795e-06 -0.00342128
7.35843 0 0.80896 -0.00313467 -1.16899e-05 -0.000760868
7.35584 0 0.823809 -0.0035656 -1.20841e-05 -0.000904073
7.35313 0 0.839271 -0.00398512 -1.2579e-05 -0.00105389
7.35031 0 0.855372 -0.00439681 -1.29537e-05 -0.00120724
7.34738 0 0.872138 -0.00480904 -1.28974e-05 -0.00136955
7.34432 0 0.889597 -0.00522158 -1.26343e-05 -0.00155063
7.34114 0 0.907777 -0.00562035 -1.0771e-05 -0.00175871
7.33783 0 0.926708 -0.00597581 -8.68876e-06 -0.00198778
7.33437 0 0.94642 -0.00626473 -5.74495e-06 -0.00223223
7.33078 0 0.966948 -0.00646624 -1.89305e-06 -0.00248138
7.32704 0 0.988324 -0.00656682 1.47057e-06 -0.00271917
7.32315 0 1.01058 -0.00656035 3.39773e-06 -0.00292221
7.31909 0 1.03376 -0.00646517 3.76608e-06 -0.00307128
7.40066 0 0.794701 -0.00213693 -7.06617e-06 -0.000485509
7.39888 0 0.80896 -0.00252023 -9.00027e-06 -0.00058985
7.39702 0 0.823809 -0.0029223 -1.035e-05 -0.000701604
7.39509 0 0.839272 -0.00332737 -1.1028e-05 -0.000821152
7.39308 0 0.855371 -0.00372436 -1.14162e-05 -0.000946716
7.39098 0 0.872138 -0.00411392 -1.19681e-05 -0.00107608
7.3888 0 0.889597 -0.00450411 -1.26024e-05 -0.00121156
7.38653 0 0.907777 -0.00489937 -1.23312e-05 -0.00136072
7.38416 0 0.926708 -0.0052913 -1.11309e-05 -0.00153302
7.3817 0 0.946421 -0.00565728 -9.16626e-06 -0.00172808
7.37913 0 0.966948 -0.00596915 -7.21273e-06 -0.00193704
7.37646 0 0.988324 -0.00621321 -4.50178e-06 -0.0021548
7.37368 0 1.01058 -0.00636819 -1.49787e-06 -0.00236539
7.37078 0 1.03376 -0.00642668 6.69677e-07 -0.00255875
7.36776 0 1.0579 -0.00638919 1.63746e-06 -0.00270024
7.44241 0 0.767858 -0.00116076 -1.98455e-06 -0.00023189
7.44143 0 0.781008 -0.00141421 -3.58452e-06 -0.0003088
7.4404 0 0.794701 -0.00170105 -5.47374e-06 -0.000388303
7.43933 0 0.80896 -0.00202144 -7.16222e-06 -0.00047168
7.43821 0 0.823809 -0.00237094 -8.93105e-06 -0.000559988
7.43705 0 0.839271 -0.00274192 -1.0572e-05 -0.000651981
7.43585 0 0.855372 -0.00312211 -1.11706e-05 -0.000749074
7.43459 0 0.872138 -0.00349907 -1.15421e-05 -0.000852234
7.43328 0 0.889597 -0.0038708 -1.19017e-05 -0.000960553
7.43192 0 0.907776 -0.00424136 -1.23546e-05 -0.00107342
7.4305 0 0.926707 -0.00461764 -1.22727e-05 -0.00119729
7.42902 0 0.946421 -0.0049967 -1.16596e-05 -0.00133968
7.42748 0 0.966948 -0.00536098 -9.75151e-06 -0.00150271
7.42587 0 0.988324 -0.00568726 -7.89572e-06 -0.00168251
7.42421 0 1.01058 -0.00595629 -5.80714e-06 -0.00186902
7.42247 0 1.03376 -0.0061554 -3.47059e-06 -0.00205829
7.42066 0 1.0579 -0.00627139 -8.65679e-07 -0.00223737
7.4808 0 0.767857 -0.000920275 -3.46743e-06 -0.000173795
7.48048 0 0.781008 -0.00112041 -4.95279e-06 -0.000235236
7.48013 0 0.794701 -0.00135001 -6.5063e-06 -0.000300232
7.47978 0 0.80896 -0.00161092 -8.0263e-06 -0.000369628
7.4794 0 0.823809 -0.00190219 -9.46621e-06 -0.000443041
7.47902 0 0.839271 -0.00222064 -1.10314e-05 -0.000518446
7.47861 0 0.855372 -0.00256191 -1.24071e-05 -0.000594878
7.4782 0 0.872138 -0.00291627 -1.31904e-05 -0.000673586
7.47776 0 0.889597 -0.00327411 -1.3241e-05 -0.000757928
7.47731 0 0.907777 -0.00362964 -1.3421e-05 -0.000848048
7.47683 0 0.926708 -0.00398532 -1.33308e-05 -0.000943496
7.47634 0 0.94642 -0.00434609 -1.33956e-05 -0.0010468
7.47583 0 0.966948 -0.00471241 -1.2629e-05 -0.00116536
7.47529 0 0.988324 -0.00507163 -1.10647e-05 -0.00130168
7.47474 0 1.01058 -0.00540468 -9.02996e-06 -0.00145382
7.47416 0 1.03376 -0.00569235 -7.00547e-06 -0.00161581
7.47355 0 1.0579 -0.0059211 -5.10875e-06 -0.00178205
7.47292 0 1.08303 -0.00607678 -3.36199e-06 -0.00194409
7.5192 0 0.767857 -0.000672938 -8.08445e-06 -0.000116496
7.51952 0 0.781008 -0.000820294 -9.42094e-06 -0.00015623
7.51987 0 0.794701 -0.000999332 -1.08107e-05 -0.000204858
7.52022 0 0.80896 -0.00120813 -1.21014e-05 -0.000259987
7.5206 0 0.823809 -0.00144801 -1.31496e-05 -0.000319902
7.52098 0 0.839271 -0.00171652 -1.39755e-05 -0.000384497
7.52139 0 0.855372 -0.00201227 -1.49348e-05 -0.00045146
7.5218 0 0.872138 -0.00233067 -1.60301e-05 -0.000518077
7.52224 0 0.889597 -0.00266679 -1.63773e-05 -0.000585688
7.52269 0 0.907777 -0.00301138 -1.60679e-05 -0.000657445
7.52317 0 0.926708 -0.00335774 -1.56149e-05 -0.000734428
7.52366 0 0.94642 -0.00370569 -1.53241e-05 -0.000816536
7.52417 0 0.966948 -0.00406017 -1.46386e-05 -0.00090568
7.52471 0 0.988324 -0.00442021 -1.37937e-05 -0.00100631
7.52526 0 1.01058 -0.00477783 -1.22758e-05 -0.00112199
7.52584 0 1.03376 -0.00511638 -1.02016e-05 -0.00125078
7.52645 0 1.0579 -0.00542114 -8.06433e-06 -0.00138994
7.52708 0 1.08303 -0.00567554 -6.32236e-06 -0.00153378
7.52773 0 1.1092 -0.00586337 -4.68395e-06 -0.00167269
7.55759 0 0.767858 -0.000370602 -1.06701e-05 -4.71793e-05
7.55857 0 0.781008 -0.00046939 -1.13714e-05 -7.66591e-05
7.5596 0 0.794701 -0.000596212 -1.29939e-05 -0.0001088
7.56067 0 0.80896 -0.000754886 -1.50006e-05 -0.000147652
7.56179 0 0.823809 -0.000946501 -1.65298e-05 -0.000195652
7.56295 0 0.839271 -0.00117123 -1.73343e-05 -0.000248563
7.56415 0 0.855372 -0.00142592 -1.82068e-05 -0.000307682
7.56541 0 0.872138 -0.00170722 -1.90862e-05 -0.000369838
7.56672 0 0.889597 -0.00201335 -1.96896e-05 -0.000433038
7.56808 0 0.907776 -0.00233953 -1.99376e-05 -0.00049731
7.5695 0 0.926707 -0.0026794 -1.95055e-05 -0.00056261
7.57098 0 0.946421 -0.0030274 -1.8556e-05 -0.000631136
7.57252 0 0.966948 -0.00338069 -1.76732e-05 -0.00070486
7.57413 0 0.988324 -0.00374184 -1.66017e-05 -0.000784415
7.57579 0 1.01058 -0.0041101 -1.54732e-05 -0.000872643
7.57753 0 1.03376 -0.00447527 -1.35537e-05 -0.000971447
7.57934 0 1.0579 -0.00482573 -1.1489e-05 -0.00108016
7.58123 0 1.08303 -0.0051491 -9.16706e-06 -0.0011981
7.58319 0 1.1092 -0.00543123 -6.98237e-06 -0.00132201
7.58523 0 1.13646 -0.00565285 -5.76716e-06 -0.00144411
7.59598 0 0.767857 -6.28993e-06 -4.03637e-06 9.68566e-05
7.59762 0 0.781008 -8.04048e-05 -6.69562e-06 5.63737e-05
7.59934 0 0.794701 -0.000169133 -8.49404e-06 1.8587e-05
7.60112 0 0.80896 -0.00027953 -1.1011e-05 -1.91443e-05
7.60298 0 0.823809 -0.000416868 -1.26333e-05 -6.03462e-05
7.60491 0 0.839272 -0.000586119 -1.38151e-05 -0.000107019
7.60692 0 0.855371 -0.000789052 -1.58803e-05 -0.000160768
7.60902 0 0.872138 -0.00102667 -1.88785e-05 -0.000221386
7.6112 0 0.889597 -0.00129559 -2.03541e-05 -0.000287415
7.61347 0 0.907777 -0.0015929 -2.1615e-05 -0.000355753
7.61584 0 0.926708 -0.00191662 -2.22431e-05 -0.000424004
7.6183 0 0.946421 -0.00226386 -2.19393e-05 -0.000492629
7.62087 0 0.966948 -0.00262793 -2.10508e-05 -0.000561765
7.62354 0 0.988324 -0.00300484 -1.9589e-05 -0.000633096
7.62632 0 1.01058 -0.0033903 -1.87332e-05 -0.000705068
7.62922 0 1.03376 -0.00378101 -1.70053e-05 -0.000778881
7.63224 0 1.0579 -0.00416841 -1.48778e-05 -0.00085965
7.63538 0 1.08303 -0.00454235 -1.24284e-05 -0.000949064
7.63865 0 1.1092 -0.00488888 -1.01671e-05 -0.00104523
7.64205 0 1.13646 -0.00519451 -8.00214e-06 -0.00114563
7.6456 0 1.16484 -0.00544498 -6.59264e-06 -0.00124733
7.63438 0 0.767858 0.000297244 6.7569e-06 0.000348438
7.63668 0 0.781008 0.000260558 6.80976e-06 0.000296726
7.63907 0 0.794701 0.000205723 5.22696e-06 0.000246261
7.64157 0 0.80896 0.000134789 2.982e-06 0.000199543
7.64416 0 0.823809 4.72221e-05 -9.96877e-07 0.000152703
7.64687 0 0.839271 -6.0745e-05 -5.2253e-06 0.000100559
7.64969 0 0.855372 -0.000194372 -8.18042e-06 3.6344e-05
7.65262 0 0.872138 -0.000358739 -9.86091e-06 -3.92889e-05
7.65568 0 0.889597 -0.000561012 -1.21221e-05 -0.000122443
7.65886 0 0.907777 -0.000808556 -1.60403e-05 -0.000212493
7.66217 0 0.926708 -0.00110194 -2.0731e-05 -0.000305541
7.66563 0 0.94642 -0.00143644 -2.24125e-05 -0.000396563
7.66922 0 0.966948 -0.00180809 -2.33655e-05 -0.000480033
7.67296 0 0.988324 -0.00219913 -2.34695e-05 -0.00055228
7.67685 0 1.01058 -0.00261254 -2.1896e-05 -0.000617506
7.68091 0 1.03376 -0.00303863 -1.99212e-05 -0.000678205
7.68513 0 1.0579 -0.0034684 -1.79102e-05 -0.000736754
7.68953 0 1.08303 -0.00388949 -1.58283e-05 -0.000794947
7.69411 0 1.1092 -0.00428948 -1.34399e-05 -0.000855629
7.69888 0 1.13646 -0.00465921 -1.08938e-05 -0.000922756
7.70385 0 1.16483 -0.00498741 -8.82529e-06 -0.000995825
7.67277 0 0.767857 0.000378423 2.07701e-06 0.000610998
7.67573 0 0.781008 0.000364103 4.43463e-06 0.000601256
7.67881 0 0.794701 0.000342008 7.68399e-06 0.000585396
7.68201 0 0.80896 0.000309618 1.00788e-05 0.000555944
7.68536 0 0.823809 0.00026612 1.06368e-05 0.000508166
7.68884 0 0.839271 0.00021229 1.10228e-05 0.000439558
7.69246 0 0.855372 0.000146864 1.21004e-05 0.00034668
7.69623 0 0.872138 6.48513e-05 1.10001e-05 0.000223603
7.70016 0 0.889597 -4.82565e-05 7.58289e-06 7.42479e-05
7.70425 0 0.907776 -0.000190716 4.45452e-06 -7.55595e-05
7.70851 0 0.926707 -0.000383276 -1.24855e-06 -0.000218198
7.71295 0 0.946421 -0.00063363 -1.24002e-05 -0.000353526
7.71757 0 0.966948 -0.000961062 -1.85991e-05 -0.000462274
7.72238 0 0.988324 -0.0013688 -2.13464e-05 -0.000537331
7.72738 0 1.01058 -0.00183177 -2.15312e-05 -0.000610722
7.7326 0 1.03376 -0.00228599 -2.29329e-05 -0.000664108
7.73803 0 1.0579 -0.00275409 -2.2209e-05 -0.000699902
7.74368 0 1.08303 -0.00322374 -1.93074e-05 -0.00072553
7.74957 0 1.1092 -0.00367656 -1.66104e-05 -0.000749518
7.7557 0 1.13646 -0.00410007 -1.39556e-05 -0.000777768
7.76209 0 1.16484 -0.00448631 -1.13595e-05 -0.000813101
7.76874 0 1.19439 -0.00482604 -9.39196e-06 -0.000855091
7.71116 0 0.767857 0.000284116 -1.51479e-06 0.000683837
7.71478 0 0.781008 0.000257986 -5.08671e-06 0.000731917
7.71854 0 0.794701 0.000233785 -7.23222e-06 0.000800125
7.72246 0 0.80896 0.000218228 -7.1442e-06 0.000871562
7.72655 0 0.823809 0.00021173 -4.81502e-06 0.000923577
7.7308 0 0.839271 0.000207905 2.49295e-06 0.000933384
7.73523 0 0.855372 0.000187239 1.28925e-05 0.000868049
7.73984 0 0.872138 0.000135583 2.35579e-05 0.000714722
7.74464 0 0.889597 4.54787e-05 3.46724e-05 0.000477649
7.74964 0 0.907777 -7.71427e-05 4.01829e-05 0.000183429
7.75484 0 0.926707 -0.000236228 3.68065e-05 -0.000127351
7.76026 0 0.94642 -0.000404205 2.84822e-05 -0.000354863
7.76591 0 0.966948 -0.000576418 1.71955e-05 -0.00053027
7.77179 0 0.988324 -0.000798878 1.52137e-06 -0.000658005
7.77791 0 1.01058 -0.00112277 -1.0915e-05 -0.000720304
7.78428 0 1.03376 -0.00154644 -1.84419e-05 -0.000731001
7.79092 0 1.0579 -0.00204817 -2.17892e-05 -0.000724962
7.79783 0 1.08303 -0.00257125 -2.26e-05 -0.000714807
7.80503 0 1.1092 -0.0030768 -2.01238e-05 -0.000697312
7.81252 0 1.13646 -0.00354627 -1.70125e-05 -0.000684562
7.82033 0 1.16483 -0.00398032 -1.41467e-05 -0.000679527
7.82845 0 1.19439 -0.0043678 -1.10933e-05 -0.000683471
7.83692 0 1.22516 -0.00470789 -9.26225e-06 -0.000702128
7.74955 0 0.767858 0.000112579 1.0233e-05 0.000480132
7.75383 0 0.781007 9.022e-05 -4.00317e-06 0.000508113
7.75828 0 0.794701 7.14502e-05 -1.55143e-05 0.000602882
7.76291 0 0.80896 6.14894e-05 -2.37904e-05 0.000758719
7.76774 0 0.823809 6.37356e-05 -2.43618e-05 0.000933299
7.77277 0 0.839271 7.8107e-05 -1.7299e-05 0.0010579
7.778 0 0.855372 8.65003e-05 -8.75566e-06 0.00109236
7.78345 0 0.872138 6.92551e-05 5.025e-06 0.00102524
7.78912 0 0.889597 1.4515e-05 1.80598e-05 0.000877284
7.79503 0 0.907776 -7.61158e-05 3.70475e-05 0.00063936
7.80118 0 0.926708 -0.000235137 4.92123e-05 0.000299019
7.80759 0 0.94642 -0.000441958 6.17978e-05 -6.57337e-05
7.81425 0 0.966948 -0.000681616 6.05969e-05 -0.000422118
7.82121 0 0.988324 -0.000909037 4.31691e-05 -0.00070285
7.82844 0 1.01058 -0.00110288 2.16517e-05 -0.000836931
7.83597 0 1.03376 -0.0012931 2.52941e-06 -0.000855934
7.84382 0 1.0579 -0.0015787 -1.04688e-05 -0.000808506
7.85199 0 1.08303 -0.00200034 -1.84821e-05 -0.000734012
7.86049 0 1.1092 -0.0025053 -2.15665e-05 -0.00065196
7.86935 0 1.13646 -0.00300065 -1.96213e-05 -0.000600947
7.87857 0 1.16484 -0.00348051 -1.62389e-05 -0.000566762
7.88818 0 1.19439 -0.00390619 -1.38104e-05 -0.000533982
7.89818 0 1.22516 -0.00428077 -1.10725e-05 -0.000521035
7.90859 0 1.25721 -0.00460859 -1.00419e-05 -0.000525103
7.78795 0 0.767857 -3.85573e-05 5.76205e-06 0.000262808
7.79288 0 0.781008 -4.63788e-05 7.40439e-06 0.000252425
7.79801 0 0.794701 -1.73949e-05 -1.87228e-06 0.000306221
7.80336 0 0.80896 2.71482e-05 -1.56515e-05 0.000434498
7.80893 0 0.823809 7.1161e-05 -2.73022e-05 0.000625493
7.81473 0 0.839271 0.000100621 -2.43008e-05 0.000778712
7.82076 0 0.855372 9.45878e-05 -1.41229e-05 0.000821818
7.82705 0 0.872138 1.83884e-05 -8.06969e-06 0.000752696
7.8336 0 0.889597 -0.000121906 -3.54144e-06 0.000632059
7.84042 0 0.907777 -0.000289021 4.19969e-06 0.000500866
7.84752 0 0.926707 -0.000454578 1.11367e-05 0.000317356
7.85491 0 0.946421 -0.000608049 1.71591e-05 0.000136827
7.8626 0 0.966948 -0.000785937 2.90427e-05 -9.90863e-05
7.87062 0 0.988324 -0.000970832 4.33698e-05 -0.000409841
7.87897 0 1.01058 -0.00114704 3.75047e-05 -0.000661355
7.88766 0 1.03376 -0.0013192 2.15516e-05 -0.000785995
7.89671 0 1.0579 -0.0014754 3.05205e-06 -0.000784867
7.90614 0 1.08303 -0.00171512 -1.02731e-05 -0.000705929
7.91595 0 1.1092 -0.00205622 -1.86225e-05 -0.000569566
7.92617 0 1.13646 -0.00250119 -1.94769e-05 -0.000481031
7.93681 0 1.16483 -0.00299425 -1.76654e-05 -0.000444237
7.9479 0 1.19439 -0.00345005 -1.52888e-05 -0.000388394
7.95943 0 1.22516 -0.00384434 -1.27002e-05 -0.000354449
7.97145 0 1.25721 -0.00418787 -1.16099e-05 -0.000340884
7.98397 0 1.29057 -0.00450593 -1.01652e-05 -0.000358574
7.99699 0 1.32531 -0.00476603 -9.90048e-06 -0.000377517
7.82634 0 0.767858 -6.45345e-05 -5.91232e-06 0.000147789
7.83193 0 0.781007 -8.57337e-05 -1.8536e-06 0.000144039
7.83775 0 0.794701 -4.46901e-05 -5.20035e-06 0.000162463
7.84381 0 0.808961 6.51425e-05 -1.54222e-05 0.000234774
7.85012 0 0.823809 0.000205879 -2.09453e-05 0.000347391
7.85669 0 0.839271 0.000318474 -1.67765e-05 0.000406202
7.86353 0 0.855372 0.000347738 -9.11537e-06 0.000368162
7.87066 0 0.872138 0.000294357 -5.74346e-06 0.000242639
7.87808 0 0.889596 0.000171687 -4.95721e-06 9.81332e-05
7.88581 0 0.907777 1.78241e-05 -7.59919e-06 -1.95611e-06
7.89385 0 0.926708 -0.000160406 -9.18576e-06 -7.36507e-05
7.90223 0 0.94642 -0.000372133 -1.00403e-05 -0.000165255
7.91095 0 0.966948 -0.000599823 -1.36066e-05 -0.000215376
7.92003 0 0.988324 -0.000789074 -4.54835e-06 -0.000265042
7.9295 0 1.01058 -0.000952033 5.02558e-06 -0.000385493
7.93935 0 1.03376 -0.00111521 6.93365e-06 -0.000497998
7.94961 0 1.0579 -0.00127367 3.91747e-06 -0.000566263
7.96029 0 1.08303 -0.0014451 -6.29543e-06 -0.000523897
7.97141 0 1.1092 -0.00168159 -1.33382e-05 -0.000407857
7.98299 0 1.13646 -0.00205688 -1.74154e-05 -0.000333164
7.99505 0 1.16484 -0.00251327 -1.7726e-05 -0.000287609
8.00761 0 1.19439 -0.00298226 -1.58929e-05 -0.000218802
8.02069 0 1.22516 -0.00340653 -1.28593e-05 -0.000175348
8.03431 0 1.25721 -0.0037652 -1.20228e-05 -0.000152176
8.04849 0 1.29057 -0.00410324 -9.94262e-06 -0.000165277
8.06326 0 1.32531 -0.00438566 -1.09237e-05 -0.000173157
7.86473 0 0.767857 5.65922e-05 -1.12268e-05 4.65574e-05
7.87098 0 0.781008 6.87432e-05 -1.00414e-05 4.84737e-05
7.87748 0 0.794701 0.00015054 -1.28978e-05 6.32618e-05
7.88426 0 0.80896 0.000309531 -1.88082e-05 9.85397e-05
7.89131 0 0.823809 0.000489515 -1.92261e-05 9.22641e-05
7.89865 0 0.839271 0.000595436 -1.25747e-05 1.04943e-05
7.9063 0 0.855372 0.000601319 -4.80323e-06 -0.000122139
7.91427 0 0.872138 0.000531381 -1.42008e-06 -0.0002747
7.92256 0 0.889597 0.000417916 -3.16422e-06 -0.000368131
7.93119 0 0.907776 0.000287423 -9.50115e-06 -0.000404275
7.94019 0 0.926708 0.000143416 -1.42531e-05 -0.000459369
7.94955 0 0.94642 1.30421e-06 -2.05414e-05 -0.000501446
7.9593 0 0.966948 -0.000133162 -2.41178e-05 -0.000480141
7.96945 0 0.988324 -0.000279503 -2.41222e-05 -0.000446346
7.98003 0 1.01058 -0.00043526 -2.56849e-05 -0.000401408
7.99104 0 1.03376 -0.000600088 -2.30077e-05 -0.000353517
8.0025 0 1.0579 -0.000799799 -1.72391e-05 -0.000327401
8.01444 0 1.08303 -0.0010184 -1.31686e-05 -0.000269486
8.02687 0 1.1092 -0.00128451 -1.42403e-05 -0.000200694
8.03981 0 1.13646 -0.0016458 -1.67647e-05 -0.000156999
8.05329 0 1.16483 -0.00208301 -1.68322e-05 -9.69491e-05
8.06733 0 1.19439 -0.00255325 -1.53595e-05 -4.04356e-05
8.08195 0 1.22516 -0.00299426 -1.36483e-05 -1.34172e-05
8.09717 0 1.25721 -0.00336828 -1.24412e-05 4.31072e-06
8.11302 0 1.29057 -0.00372136 -1.17916e-05 -7.78581e-06
8.12952 0 1.32531 -0.00401402 -8.6769e-06 -1.09065e-05
7.90312 0 0.767857 0.000241499 -1.52053e-05 -6.12238e-05
7.91003 0 0.781008 0.000342965 -1.64963e-05 -6.31272e-05
7.91722 0 0.794701 0.0005077 -1.88654e-05 -7.69871e-05
7.92471 0 0.80896 0.000692217 -1.54089e-05 -0.000122103
7.9325 0 0.823809 0.000821527 -5.03982e-06 -0.00022726
7.94062 0 0.839271 0.000851726 7.73519e-07 -0.000371938
7.94907 0 0.855372 0.000803122 -6.58315e-07 -0.000529536
7.95787 0 0.872138 0.000714662 -3.33039e-06 -0.000655617
7.96704 0 0.889597 0.000615026 -6.16498e-06 -0.000716845
7.97658 0 0.907777 0.000510511 -9.30907e-06 -0.000732067
7.98652 0 0.926707 0.00040352 -1.29044e-05 -0.000723106
7.99687 0 0.946421 0.000306527 -1.22733e-05 -0.000712184
8.00765 0 0.966948 0.000203135 -1.58214e-05 -0.000679351
8.01887 0 0.988324 9.81113e-05 -1.92394e-05 -0.000613259
8.03055 0 1.01058 8.50219e-06 -2.39843e-05 -0.00052168
8.04273 0 1.03376 -7.40484e-05 -2.88085e-05 -0.000398074
8.0554 0 1.0579 -0.000199092 -3.14233e-05 -0.000244868
8.06859 0 1.08303 -0.000432486 -2.77566e-05 -0.000106107
8.08233 0 1.1092 -0.000789032 -2.4203e-05 -1.6932e-05
8.09664 0 1.13646 -0.00119066 -1.94793e-05 2.93767e-05
8.11154 0 1.16484 -0.00164359 -1.69015e-05 6.40234e-05
8.12705 0 1.19439 -0.00210752 -1.55951e-05 8.92095e-05
8.14321 0 1.22516 -0.00255864 -1.40496e-05 0.000107632
8.16003 0 1.25721 -0.00294995 -1.31551e-05 0.000130854
8.17755 0 1.29057 -0.00331796 -1.32407e-05 0.000135101
8.19579 0 1.32531 -0.00363208 -1.27699e-05 0.000146272
7.94152 0 0.767858 0.000581275 -1.54371e-05 -0.00019375
7.94908 0 0.781008 0.000764147 -1.56755e-05 -0.000224265
7.95695 0 0.794701 0.000934261 -1.23143e-05 -0.000294873
7.96516 0 0.80896 0.00103911 -4.81394e-06 -0.000427755
7.97369 0 0.823809 0.0010538 9.84379e-07 -0.000597993
7.98258 0 0.839271 0.000989238 2.35316e-06 -0.000746134
7.99184 0 0.855371 0.000889494 2.88334e-07 -0.000833948
8.00148 0 0.872138 0.000790238 -1.89339e-06 -0.000859288
8.01152 0 0.889596 0.000706523 -3.2411e-06 -0.00084885
8.02197 0 0.907777 0.000633099 -2.39374e-06 -0.000838475
8.03286 0 0.926708 0.000548836 -1.09617e-06 -0.000838304
8.04419 0 0.94642 0.000449663 -3.48652e-06 -0.000813198
8.05599 0 0.966948 0.000359845 -8.12322e-06 -0.000735016
8.06829 0 0.988324 0.000301215 -1.12196e-05 -0.000630734
8.08108 0 1.01058 0.000268414 -1.57291e-05 -0.000514463
8.09441 0 1.03376 0.000234358 -2.09676e-05 -0.000385619
8.10829 0 1.0579 0.000181985 -2.72229e-05 -0.000240549
8.12274 0 1.08303 2.79498e-05 -2.92176e-05 -4.6055e-05
8.13779 0 1.1092 -0.00031931 -2.59511e-05 0.000100241
8.15346 0 1.13646 -0.000785599 -2.02517e-05 0.000164316
8.16978 0 1.16483 -0.00126966 -1.47895e-05 0.000188171
8.18677 0 1.19439 -0.00173465 -1.29324e-05 0.000195449
8.20447 0 1.22516 -0.0021821 -1.23452e-05 0.000192389
8.22289 0 1.25721 -0.00257875 -1.17757e-05 0.000197969
8.24208 0 1.29057 -0.00295342 -1.07934e-05 0.000194742
8.26206 0 1.32531 -0.00326272 -1.13327e-05 0.000229606
7.97991 0 0.767857 0.00101906 -1.54959e-05 -0.000379694
7.98813 0 0.781008 0.00115867 -7.94471e-06 -0.000485669
7.99669 0 0.794701 0.00121972 8.21008e-07 -0.000643261
8.0056 0 0.80896 0.0011903 4.77337e-06 -0.000806402
8.01488 0 0.823809 0.0010997 4.41831e-06 -0.000943337
8.02455 0 0.839272 0.000990177 3.24733e-07 -0.00100991
8.03461 0 0.855372 0.000888321 -1.69151e-06 -0.000996274
8.04508 0 0.872138 0.000805673 -1.59891e-06 -0.000937157
8.056 0 0.889597 0.000730445 1.64075e-06 -0.000894403
8.06736 0 0.907776 0.000630298 2.53509e-06 -0.00087247
8.07919 0 0.926707 0.000517918 -1.51553e-06 -0.000810988
8.09151 0 0.946421 0.0004401 -4.99527e-06 -0.00071047
8.10434 0 0.966948 0.000413283 -8.25622e-06 -0.000605043
8.1177 0 0.988324 0.000422883 -1.16313e-05 -0.000507434
8.13161 0 1.01058 0.00044385 -1.37552e-05 -0.000415137
8.1461 0 1.03376 0.000439147 -1.59122e-05 -0.000312729
8.16118 0 1.0579 0.000374488 -1.8559e-05 -0.000212901
8.17689 0 1.08303 0.000249591 -2.68653e-05 -5.81404e-05
8.19325 0 1.1092 5.71994e-06 -2.52716e-05 0.000120796
8.21028 0 1.13646 -0.000399074 -1.95787e-05 0.000195251
8.22802 0 1.16484 -0.000858635 -1.48632e-05 0.000217597
8.24649 0 1.19439 -0.00131179 -1.26807e-05 0.000222494
8.26572 0 1.22516 -0.00175109 -1.13107e-05 0.000223106
8.28575 0 1.25721 -0.00215572 -1.05096e-05 0.000241143
8.30661 0 1.29057 -0.00255151 -9.74293e-06 0.00024028
8.32832 0 1.32531 -0.00288569 -1.04668e-05 0.000259396
8.0183 0 0.767858 0.00133484 -1.05527e-06 -0.000697487
8.02718 0 0.781008 0.00133188 5.69293e-06 -0.000863966
8.03642 0 0.794701 0.00125019 6.56438e-06 -0.00100761
8.04605 0 0.80896 0.00112954 3.1429e-06 -0.00110555
8.05607 0 0.823809 0.00101054 -8.36147e-08 -0.00112981
8.06651 0 0.839271 0.000914523 -1.08129e-06 -0.00108499
8.07738 0 0.855372 0.000833542 4.12461e-07 -0.0010089
8.08869 0 0.872138 0.0007463 4.59963e-06 -0.000938341
8.10048 0 0.889597 0.000630443 3.78699e-06 -0.000870954
8.11275 0 0.907777 0.000522033 8.36095e-08 -0.000777254
8.12553 0 0.926708 0.000466765 -2.7669e-06 -0.000661386
8.13883 0 0.94642 0.000463885 -6.04317e-06 -0.000549796
8.15269 0 0.966948 0.000493457 -7.52645e-06 -0.000433807
8.16712 0 0.988324 0.000534607 -8.43037e-06 -0.000321519
8.18214 0 1.01058 0.000555931 -9.27062e-06 -0.000225652
8.19779 0 1.03376 0.000530849 -7.60856e-06 -0.000165583
8.21408 0 1.0579 0.000432496 -5.76315e-06 -0.000107701
8.23104 0 1.08303 0.000293296 -1.30888e-05 3.03237e-05
8.24871 0 1.1092 8.89564e-05 -1.55574e-05 0.000182643
8.26711 0 1.13646 -0.000224506 -1.57369e-05 0.000260353
8.28626 0 1.16483 -0.000615545 -1.30106e-05 0.000297593
8.30621 0 1.19439 -0.00102406 -1.40156e-05 0.000313051
8.32698 0 1.22516 -0.00144507 -1.40347e-05 0.000304365
8.34861 0 1.25721 -0.0018466 -1.06439e-05 0.000304608
8.37113 0 1.29057 -0.00225019 -7.17816e-06 0.000292556
8.39459 0 1.32531 -0.00259528 -8.17195e-06 0.000318298
8.0567 0 0.767857 0.00135826 7.40026e-06 -0.00109647
8.06623 0 0.781008 0.00123101 4.75196e-06 -0.00120669
8.07616 0 0.794701 0.00109748 4.99777e-07 -0.00125694
8.0865 0 0.80896 0.000980673 -1.99622e-06 -0.00121935
8.09726 0 0.823809 0.000894186 -1.26994e-06 -0.00113961
8.10847 0 0.839271 0.000814212 2.20022e-06 -0.00105413
8.12014 0 0.855372 0.000718869 4.52505e-06 -0.000970205
8.1323 0 0.872138 0.000607707 1.92712e-06 -0.000871382
8.14496 0 0.889596 0.000521706 -2.64228e-06 -0.000751481
8.15814 0 0.907777 0.000495449 -6.63108e-06 -0.000627609
8.17186 0 0.926708 0.000516899 -9.09998e-06 -0.000511738
8.18616 0 0.94642 0.000564962 -1.02759e-05 -0.000402579
8.20104 0 0.966948 0.000619411 -1.02422e-05 -0.000286077
8.21654 0 0.988324 0.000651829 -9.368e-06 -0.000193381
8.23267 0 1.01058 0.000649676 -8.49417e-06 -0.000139315
8.24948 0 1.03376 0.000608575 -7.09541e-06 -9.40417e-05
8.26697 0 1.0579 0.000545863 -6.76168e-06 -2.24496e-05
8.2852 0 1.08303 0.000436585 -1.09625e-05 8.84352e-05
8.30417 0 1.1092 0.000245879 -1.4537e-05 0.000183056
8.32393 0 1.13646 -1.89463e-05 -1.76646e-05 0.00023947
8.3445 0 1.16484 -0.000329509 -1.54794e-05 0.000267938
8.36593 0 1.19439 -0.000668086 -1.65852e-05 0.000288243
8.38824 0 1.22516 -0.00104129 -2.07703e-05 0.000283669
8.41147 0 1.25721 -0.00144253 -1.73339e-05 0.000284755
8.10528 0 0.781008 0.00101481 -4.74943e-07 -0.00134064
8.11589 0 0.794701 0.000915404 -1.95202e-06 -0.00125215
8.12694 0 0.80896 0.000835932 8.56993e-07 -0.00115242
8.13845 0 0.823809 0.000755517 5.88388e-06 -0.00105729
8.15044 0 0.839271 0.000658145 5.48931e-06 -0.000956972
8.16292 0 0.855372 0.000565726 1.83216e-06 -0.00084099
8.17591 0 0.872138 0.000511458 -2.76637e-06 -0.000698291
8.18944 0 0.889597 0.000512687 -5.88337e-06 -0.000555082
8.20352 0 0.907776 0.000552449 -6.76614e-06 -0.000424497
8.2182 0 0.926707 0.000602383 -8.4552e-06 -0.000298831
8.23348 0 0.946421 0.000654717 -7.07384e-06 -0.000179932
8.24938 0 0.966948 0.000691559 -3.99862e-06 -8.4619e-05
8.26595 0 0.988324 0.000701945 -7.80337e-08 -2.34206e-05
8.2832 0 1.01058 0.000688123 1.23859e-06 2.81131e-05
8.30116 0 1.03376 0.000654842 1.82268e-06 9.96247e-05
8.31987 0 1.0579 0.000588698 1.68837e-06 0.000184669
8.33935 0 1.08303 0.000458923 1.45556e-06 0.000265416
8.35963 0 1.1092 0.000266558 -1.90109e-06 0.00031847
8.38075 0 1.13646 2.2365e-05 -3.43483e-06 0.000343923
8.40275 0 1.16483 -0.000257998 -5.64659e-06 0.000354307
8.42565 0 1.19439 -0.000552585 -5.24934e-06 0.000348524
8.4495 0 1.22516 -0.000889118 -4.48826e-06 0.000371324
8.16739 0 0.80896 0.000687652 3.19165e-06 -0.00105225
8.17964 0 0.823809 0.000597749 9.1629e-07 -0.000928201
8.1924 0 0.839271 0.000529196 -3.65967e-06 -0.000794275
8.20568 0 0.855372 0.000513078 -7.60388e-06 -0.00065198
8.21951 0 0.872138 0.00054557 -9.56224e-06 -0.000521462
8.23392 0 0.889597 0.000600902 -1.10109e-05 -0.000402581
8.24892 0 0.907777 0.000662003 -1.12495e-05 -0.000294742
8.26453 0 0.926707 0.000710019 -1.11322e-05 -0.000184581
8.28079 0 0.94642 0.000743507 -1.10773e-05 -9.42852e-05
8.29773 0 0.966948 0.000754149 -1.07541e-05 -2.50367e-05
8.31537 0 0.988324 0.00076178 -7.699e-06 2.70586e-05
8.33373 0 1.01058 0.000769703 -5.94065e-06 7.844e-05
8.35285 0 1.03376 0.000765596 -6.24401e-06 0.000141931
8.37277 0 1.0579 0.000732866 -6.72849e-06 0.000199205
8.3935 0 1.08303 0.000652554 -8.28422e-06 0.000257906
8.41509 0 1.1092 0.000514566 -9.92484e-06 0.000282462
8.43757 0 1.13646 0.000311378 -1.2377e-05 0.000264517
8.46099 0 1.16484 5.51462e-05 -1.6025e-05 0.000254067
8.20784 0 0.80896 0.000542178 -1.34994e-06 -0.000888221
8.22083 0 0.823809 0.00050191 -5.46674e-06 -0.000726987
8.23436 0 0.839272 0.000511845 -5.92167e-06 -0.000574665
8.24845 0 0.855372 0.00055917 -6.6433e-06 -0.000432374
8.26312 0 0.872138 0.000621775 -7.71118e-06 -0.00029514
8.2784 0 0.889596 0.000684555 -6.27075e-06 -0.000157788
8.29431 0 0.907777 0.000736296 -1.99931e-06 -4.59218e-05
8.31087 0 0.926708 0.000774859 -1.70701e-06 3.83534e-05
8.32812 0 0.946421 0.000796565 -1.00465e-07 0.000114445
8.34608 0 0.966948 0.000809143 2.03408e-06 0.000182085
8.36478 0 0.988324 0.000813294 4.09237e-06 0.000267417
8.38426 0 1.01058 0.000805901 5.22424e-06 0.000342105
8.40454 0 1.03376 0.000775565 5.75956e-06 0.000412456
8.42566 0 1.0579 0.000711267 5.17828e-06 0.000473946
8.44765 0 1.08303 0.000603825 4.67688e-06 0.000526707
8.47055 0 1.1092 0.000444987 3.60841e-06 0.000572326
8.4944 0 1.13646 0.000246955 4.72434e-06 0.000585556
8.26202 0 0.823809 0.000541953 -1.2242e-05 -0.000549738
8.27633 0 0.839271 0.000603832 -1.3227e-05 -0.000433287
8.29122 0 0.855372 0.000666085 -1.4682e-05 -0.000315296
8.30673 0 0.872138 0.000729476 -1.6877e-05 -0.000199305
8.32288 0 0.889597 0.000778622 -1.55411e-05 -0.000103678
8.33969 0 0.907776 0.000810173 -1.45642e-05 -1.82578e-05
8.35721 0 0.926707 0.00084327 -1.22377e-05 4.72691e-05
8.37544 0 0.946421 0.000868692 -1.1109e-05 0.000106523
8.39443 0 0.966948 0.000896189 -1.02588e-05 0.000166177
8.4142 0 0.988324 0.000913557 -1.00346e-05 0.000207234
8.43479 0 1.01058 0.000916413 -8.96968e-06 0.000244284
8.45623 0 1.03376 0.000902627 -1.03679e-05 0.000275744
8.47855 0 1.0579 0.000870202 -1.07705e-05 0.000309067
8.5018 0 1.08303 0.000819826 -1.17462e-05 0.000340401
8.52601 0 1.1092 0.000741305 -1.30119e-05 0.00035916