# kMean  POINT_DATA 128349
# x  y  z  kMean
0 0.5 1.2073e-17 0.00375
0 0.5 -0.0163116 0.00375
0 0.5 0.0163116 0.00375
0 0.5 -0.0336884 0.00375
0 0.5 0.0336884 0.00375
0.0380405 0.5 0.025 0.00375089
0.0380405 0.5 -0.025 0.00375089
0 0.5 0.05 0.00375
0 0.5 -0.05 0.00375
0 0.5 -0.0663116 0.00375
0 0.5 0.0663116 0.00375
0.0760811 0.5 1.2073e-17 0.00375191
0 0.5 -0.0836884 0.00375
0 0.5 0.0836884 0.00375
0.0380405 0.5 0.075 0.00375091
0.0380405 0.5 -0.075 0.00375091
0.0760811 0.5 0.05 0.00375193
0.0760811 0.5 -0.05 0.00375193
0 0.5 0.1 0.00375
0 0.5 -0.1 0.00375
0.112331 0.5 0.025 0.00375299
0.112331 0.5 -0.025 0.00375299
0 0.5 -0.116312 0.00375
0 0.5 0.116312 0.00375
0.0760811 0.5 0.1 0.00375197
0.0760811 0.5 -0.1 0.00375197
0.0380405 0.5 0.125 0.00375094
0.0380405 0.5 -0.125 0.00375094
0 0.5 -0.133688 0.00375
0 0.5 0.133688 0.00375
0.112331 0.5 0.075 0.00375303
0.112331 0.5 -0.075 0.00375304
0.14858 0.5 1.2073e-17 0.00375434
0 0.5 0.15 0.00375
0 0.5 -0.15 0.00375
0.14858 0.5 0.05 0.00375437
0.14858 0.5 -0.05 0.00375437
0 0.5 -0.166312 0.00375
0 0.5 0.166312 0.00375
0.112331 0.5 0.125 0.00375312
0.112331 0.5 -0.125 0.00375313
0.0760811 0.5 0.15 0.00375204
0.0760811 0.5 -0.15 0.00375205
0.0380405 0.5 0.175 0.00375098
0.0380405 0.5 -0.175 0.00375098
0.14858 0.5 0.1 0.00375445
0.14858 0.5 -0.1 0.00375446
0 0.5 -0.183688 0.00375
0 0.5 0.183688 0.00375
0.183123 0.5 0.025 0.00375579
0.183123 0.5 -0.025 0.0037558
0.183123 0.5 0.075 0.00375586
0.183123 0.5 -0.075 0.00375586
0 0.5 0.2 0.00375
0 0.5 -0.2 0.00375
0.112331 0.5 -0.175 0.00375326
0.112331 0.5 0.175 0.00375325
0.14858 0.5 0.15 0.00375459
0.14858 0.5 -0.15 0.0037546
0.0760811 0.5 0.2 0.00375214
0.0760811 0.5 -0.2 0.00375215
0 0.5 0.216312 0.00375
0 0.5 -0.216312 0.00375
0.217666 0.5 0 0.00375759
0.183123 0.5 0.125 0.00375599
0.183123 0.5 -0.125 0.003756
0.217666 0.5 0.05 0.00375762
0.217666 0.5 -0.05 0.00375763
0.0380405 0.5 0.225 0.00375104
0.0380405 0.5 -0.225 0.00375104
0 0.5 -0.233688 0.00375
0 0.5 0.233688 0.00375
0.217666 0.5 0.1 0.00375773
0.217666 0.5 -0.1 0.00375774
0.14858 0.5 0.2 0.00375477
0.14858 0.5 -0.2 0.00375479
0 0.5 0.25 0.00375
0 0.5 -0.25 0.00375
0.112331 0.5 0.225 0.00375341
0.112331 0.5 -0.225 0.00375342
0.250583 0.5 0.025 0.00375951
0.250583 0.5 -0.025 0.00375951
0.183123 0.5 0.175 0.00375618
0.183123 0.5 -0.175 0.0037562
0.0760811 0.5 0.25 0.00375227
0.0760811 0.5 -0.25 0.00375227
0.250582 0.5 0.075 0.00375958
0.250582 0.5 -0.075 0.00375959
0.217666 0.5 0.15 0.00375791
0.217666 0.5 -0.15 0.00375793
0 0.5 -0.266312 0.00375
0 0.5 0.266312 0.00375
0.0380406 0.5 0.275 0.0037511
0.0380405 0.5 -0.275 0.00375111
0.250582 0.5 0.125 0.00375974
0.250582 0.5 -0.125 0.00375975
0.283499 0.5 0 0.00376184
0 0.5 0.283688 0.00375
0 0.5 -0.283688 0.00375
0.283499 0.5 0.05 0.00376188
0.283499 0.5 -0.05 0.00376189
0.183123 0.5 0.225 0.00375643
0.183123 0.5 -0.225 0.00375645
0.14858 0.5 0.25 0.003755
0.14858 0.5 -0.25 0.00375502
0.217666 0.5 0.2 0.00375816
0.217666 0.5 -0.2 0.00375817
0.112331 0.5 0.275 0.0037536
0.112331 0.5 -0.275 0.00375362
0 0.5 0.3 0.00375
0 0.5 -0.3 0.00375
0.283499 0.5 0.1 0.003762
0.283499 0.5 -0.1 0.00376201
0.250582 0.5 0.175 0.00375997
0.250583 0.5 -0.175 0.00375999
0.0760811 0.5 0.3 0.00375241
0.0760811 0.5 -0.3 0.00375241
0.314865 0.5 -0.025 0.00376432
0.314866 0.5 0.025 0.00376432
0 0.5 0.316312 0.00375
0 0.5 -0.316312 0.00375
0.283499 0.5 0.15 0.0037622
0.283499 0.5 -0.15 0.00376222
0.314866 0.5 0.075 0.0037644
0.314866 0.5 -0.075 0.00376441
0.0380405 0.5 0.325 0.00375118
0.0380406 0.5 -0.325 0.00375118
0.183123 0.5 0.275 0.00375672
0.183123 0.5 -0.275 0.00375674
0.217666 0.5 0.25 0.00375845
0.217666 0.5 -0.25 0.00375848
0 0.5 -0.333688 0.00375
0 0.5 0.333688 0.00375
0.14858 0.5 0.3 0.00375526
0.14858 0.5 -0.3 0.00375528
0.250582 0.5 0.225 0.00376026
0.250583 0.5 -0.225 0.00376029
0.314865 0.5 0.125 0.00376456
0.314865 0.5 -0.125 0.00376458
0.112331 0.5 0.325 0.00375382
0.112331 0.5 -0.325 0.00375383
0.346232 0.5 5.64234e-18 0.00376724
0.283499 0.5 0.2 0.00376247
0.283499 0.5 -0.2 0.0037625
0.346232 0.5 0.05 0.00376728
0.346232 0.5 -0.05 0.00376729
0 0.5 0.35 0.00375
0 0.5 -0.35 0.00375
0.0760811 0.5 0.35 0.00375256
0.0760811 0.5 -0.35 0.00375257
0.314865 0.5 0.175 0.0037648
0.314865 0.5 -0.175 0.00376482
0.346232 0.5 0.1 0.0037674
0.346232 0.5 -0.1 0.00376741
0 0.5 -0.366312 0.00375
0 0.5 0.366312 0.00375
0.217666 0.5 0.3 0.00375879
0.217666 0.5 -0.3 0.00375882
0.250582 0.5 -0.275 0.00376064
0.250582 0.5 0.275 0.00376061
0.183123 0.5 0.325 0.00375704
0.183123 0.5 -0.325 0.00375706
0.0380405 0.5 0.375 0.00375126
0.0380405 0.5 -0.375 0.00375126
0.376122 0.5 0.025 0.00377031
0.376122 0.5 -0.025 0.00377031
0.346232 0.5 0.15 0.00376759
0.346232 0.5 -0.15 0.00376762
0.283499 0.5 0.25 0.0037628
0.283499 0.5 -0.25 0.00376283
0.14858 0.5 0.35 0.00375554
0.14858 0.5 -0.35 0.00375556
0.376122 0.5 0.075 0.00377038
0.376122 0.5 -0.075 0.00377039
0 0.5 -0.383688 0.00375
0 0.5 0.383688 0.00375
0.314865 0.5 0.225 0.00376511
0.314865 0.5 -0.225 0.00376514
0.112331 0.5 0.375 0.00375405
0.112331 0.5 -0.375 0.00375406
0.376122 0.5 0.125 0.00377053
0.376122 0.5 -0.125 0.00377055
0.346232 0.5 0.2 0.00376786
0.346232 0.5 -0.2 0.00376789
0 0.5 0.4 0.00375
0 0.5 -0.4 0.00375
0.406012 0.5 1.85037e-17 0.00377383
0.0760811 0.5 0.4 0.00375272
0.0760811 0.5 -0.4 0.00375273
0.406012 0.5 0.05 0.00377386
0.406012 0.5 -0.05 0.00377387
0.250582 0.5 0.325 0.003761
0.250583 0.5 -0.325 0.00376103
0.217666 0.5 0.35 0.00375916
0.217666 0.5 -0.35 0.00375919
0.283499 0.5 0.3 0.00376318
0.283499 0.5 -0.3 0.00376321
0.376122 0.5 -0.175 0.00377078
0.376122 0.5 0.175 0.00377076
0 0.5 -0.416312 0.00375
0 0.5 0.416312 0.00375
0.183123 0.5 0.375 0.00375738
0.183123 0.5 -0.375 0.00375741
0.314865 0.5 -0.275 0.0037655
0.314866 0.5 0.275 0.00376547
0.406012 0.5 0.1 0.00377397
0.406012 0.5 -0.1 0.00377398
0.0380406 0.5 -0.425 0.00375134
0.0380406 0.5 0.425 0.00375134
0.14858 0.5 0.4 0.00375584
0.14858 0.5 -0.4 0.00375586
0.346232 0.5 0.25 0.00376819
0.346232 0.5 -0.25 0.00376823
0.406012 0.5 0.15 0.00377414
0.406012 0.5 -0.15 0.00377417
0 0.5 -0.433688 0.00375
0 0.5 0.433688 0.00375
0.434495 0.5 -0.025 0.00377749
0.434495 0.5 0.025 0.00377749
0.376122 0.5 -0.225 0.00377108
0.376122 0.5 0.225 0.00377105
0.112331 0.5 -0.425 0.0037543
0.112331 0.5 0.425 0.00375428
0.434495 0.5 0.075 0.00377755
0.434495 0.5 -0.075 0.00377756
0 0.5 0.45 0.00375
0 0.5 -0.45 0.00375
0.283499 0.5 0.35 0.00376359
0.283499 0.5 -0.35 0.00376363
0.250583 0.5 -0.375 0.00376144
0.250583 0.5 0.375 0.00376141
0.434495 0.5 0.125 0.00377767
0.434495 0.5 -0.125 0.00377769
0.314865 0.5 0.325 0.00376587
0.314865 0.5 -0.325 0.00376591
0.406012 0.5 0.2 0.00377438
0.406012 0.5 -0.2 0.00377441
0.217666 0.5 0.4 0.00375955
0.217666 0.5 -0.4 0.00375959
0.0760811 0.5 0.45 0.00375288
0.0760811 0.5 -0.45 0.00375289
0.346232 0.5 0.3 0.00376857
0.346232 0.5 -0.3 0.0037686
0.183123 0.5 -0.425 0.00375777
0.183123 0.5 0.425 0.00375774
0.462978 0.5 1.85037e-17 0.0037816
0.462978 0.5 0.05 0.00378162
0.462978 0.5 -0.05 0.00378163
0.376122 0.5 0.275 0.00377139
0.376122 0.5 -0.275 0.00377143
0 0.5 0.466312 0.00375
0 0.5 -0.466312 0.00375
0.434495 0.5 -0.175 0.00377789
0.434495 0.5 0.175 0.00377787
0.462978 0.5 0.1 0.0037817
0.462978 0.5 -0.1 0.00378172
0.14858 0.5 0.45 0.00375614
0.14858 0.5 -0.45 0.00375616
0.0380405 0.5 -0.475 0.00375142
0.0380405 0.5 0.475 0.00375142
0.406012 0.5 0.25 0.00377468
0.406012 0.5 -0.25 0.00377471
0 0.5 -0.483688 0.00375
0 0.5 0.483688 0.00375
0.462978 0.5 0.15 0.00378184
0.462978 0.5 -0.15 0.00378187
0.112331 0.5 0.475 0.00375452
0.112331 0.5 -0.475 0.00375454
0.434495 0.5 0.225 0.00377811
0.434495 0.5 -0.225 0.00377814
0.314866 0.5 0.375 0.0037663
0.314865 0.5 -0.375 0.00376634
0.283499 0.5 0.4 0.00376402
0.283499 0.5 -0.4 0.00376406
0.490119 0.5 0.025 0.00378583
0.490119 0.5 -0.025 0.00378584
0.346232 0.5 0.35 0.00376897
0.346232 0.5 -0.35 0.00376901
0.250582 0.5 -0.425 0.00376187
0.250583 0.5 0.425 0.00376184
0.490119 0.5 0.075 0.00378587
0.49012 0.5 -0.075 0.00378588
0.376122 0.5 0.325 0.00377176
0.376122 0.5 -0.325 0.00377181
0.217666 0.5 0.45 0.00375995
0.217666 0.5 -0.45 0.00375999
0 0.5 0.5 0.00375
0 0.5 -0.5 0.00375
0.462978 0.5 0.2 0.00378203
0.462978 0.5 -0.2 0.00378206
0.406012 0.5 0.3 0.00377501
0.406012 0.5 -0.3 0.00377505
0.0760811 0.5 0.5 0.00375304
0.0760811 0.5 -0.5 0.00375305
0.490119 0.5 0.125 0.00378596
0.490119 0.5 -0.125 0.00378598
0.183123 0.5 0.475 0.0037581
0.183123 0.5 -0.475 0.00375813
0.434495 0.5 -0.275 0.00377843
0.434495 0.5 0.275 0.00377839
0 0.5 -0.516312 0.00375
0 0.5 0.516312 0.00375
0.517261 0.5 1.2073e-17 0.00379051
0.517261 0.5 0.05 0.00379052
0.517261 0.5 -0.05 0.00379053
0.490119 0.5 0.175 0.0037861
0.490119 0.5 -0.175 0.00378613
0.14858 0.5 0.5 0.00375644
0.14858 0.5 -0.5 0.00375646
0.462978 0.5 0.25 0.00378226
0.462978 0.5 -0.25 0.0037823
0.0380405 0.5 0.525 0.0037515
0.0380405 0.5 -0.525 0.0037515
0.517261 0.5 0.1 0.00379057
0.517261 0.5 -0.1 0.00379059
0.314865 0.5 0.425 0.00376674
0.314865 0.5 -0.425 0.00376678
0.346232 0.5 0.4 0.00376939
0.346232 0.5 -0.4 0.00376944
0.376122 0.5 0.375 0.00377216
0.376122 0.5 -0.375 0.00377221
0.283499 0.5 0.45 0.00376447
0.283499 0.5 -0.45 0.00376451
0 0.5 -0.533688 0.00375
0 0.5 0.533688 0.00375
0.406012 0.5 0.35 0.00377536
0.406012 0.5 -0.35 0.00377541
0.112331 0.5 0.525 0.00375475
0.112331 0.5 -0.525 0.00375477
0.250582 0.5 0.475 0.00376227
0.250583 0.5 -0.475 0.00376231
0.517261 0.5 0.15 0.00379066
0.517261 0.5 -0.15 0.00379068
0.490119 0.5 0.225 0.00378627
0.490119 0.5 -0.225 0.00378631
0.434495 0.5 0.325 0.00377871
0.434495 0.5 -0.325 0.00377875
0.543125 0.5 -0.025 0.0037953
0.543125 0.5 0.025 0.0037953
0.217666 0.5 0.5 0.00376035
0.217666 0.5 -0.5 0.00376039
0.543125 0.5 -0.075 0.00379532
0.543125 0.5 0.075 0.00379531
0 0.5 0.55 0.00375
0 0.5 -0.55 0.00375
0.462978 0.5 0.3 0.00378252
0.462978 0.5 -0.3 0.00378256
0.517261 0.5 0.2 0.00379077
0.517261 0.5 -0.2 0.00379081
0.0760811 0.5 0.55 0.00375319
0.0760811 0.5 -0.55 0.0037532
0.183123 0.5 0.525 0.00375845
0.183123 0.5 -0.525 0.00375848
0.543125 0.5 0.125 0.00379535
0.543125 0.5 -0.125 0.00379538
0.490119 0.5 -0.275 0.00378651
0.490119 0.5 0.275 0.00378647
0 0.5 -0.566312 0.00375
0 0.5 0.566312 0.00375
0.376122 0.5 0.425 0.00377256
0.376122 0.5 -0.425 0.00377261
0.346232 0.5 0.45 0.00376982
0.346232 0.5 -0.45 0.00376987
0.568989 0.5 1.2073e-17 0.00380052
0.14858 0.5 0.55 0.00375673
0.14858 0.5 -0.55 0.00375675
0.314865 0.5 0.475 0.00376718
0.314865 0.5 -0.475 0.00376723
0.406012 0.5 0.4 0.00377573
0.406012 0.5 -0.4 0.00377578
0.543125 0.5 0.175 0.00379542
0.543125 0.5 -0.175 0.00379545
0.568989 0.5 0.05 0.00380051
0.568989 0.5 -0.05 0.00380052
0.434495 0.5 0.375 0.00377903
0.434495 0.5 -0.375 0.00377908
0.517261 0.5 0.25 0.00379091
0.517261 0.5 -0.25 0.00379095
0.283499 0.5 0.5 0.0037649
0.283499 0.5 -0.5 0.00376495
0.0380405 0.5 0.575 0.00375157
0.0380405 0.5 -0.575 0.00375158
0.568989 0.5 0.1 0.00380052
0.568989 0.5 -0.1 0.00380054
0.462978 0.5 0.35 0.00378279
0.462978 0.5 -0.35 0.00378284
0.250582 0.5 0.525 0.00376269
0.250582 0.5 -0.525 0.00376273
0 0.5 -0.583688 0.00375
0 0.5 0.583688 0.00375
0.112331 0.5 0.575 0.00375498
0.112331 0.5 -0.575 0.00375499
0.543125 0.5 0.225 0.0037955
0.543125 0.5 -0.225 0.00379554
0.490119 0.5 0.325 0.00378669
0.490119 0.5 -0.325 0.00378674
0.568989 0.5 0.15 0.00380054
0.568989 0.5 -0.15 0.00380057
0.217666 0.5 0.55 0.00376074
0.217666 0.5 -0.55 0.00376077
0.593635 0.5 0.025 0.00380582
0.593635 0.5 -0.025 0.00380583
0.517261 0.5 0.3 0.00379106
0.517261 0.5 -0.3 0.00379111
0.593635 0.5 0.075 0.00380581
0.593635 0.5 -0.075 0.00380582
0 0.5 0.6 0.00375
0 0.5 -0.6 0.00375
0.568989 0.5 0.2 0.00380057
0.568989 0.5 -0.2 0.0038006
0.183123 0.5 0.575 0.00375879
0.183123 0.5 -0.575 0.00375882
0.0760811 0.5 0.6 0.00375334
0.0760811 0.5 -0.6 0.00375335
0.376122 0.5 0.475 0.00377296
0.376122 0.5 -0.475 0.00377301
0.406012 0.5 0.45 0.00377609
0.406012 0.5 -0.45 0.00377614
0.593635 0.5 0.125 0.00380579
0.593635 0.5 -0.125 0.00380582
0.434495 0.5 0.425 0.00377935
0.434495 0.5 -0.425 0.0037794
0.346232 0.5 0.5 0.00377024
0.346232 0.5 -0.5 0.00377029
0.543125 0.5 -0.275 0.00379563
0.543125 0.5 0.275 0.00379559
0.462978 0.5 0.4 0.00378305
0.462978 0.5 -0.4 0.00378311
0.314865 0.5 0.525 0.00376761
0.314865 0.5 -0.525 0.00376766
0 0.5 -0.616312 0.00375
0 0.5 0.616312 0.00375
0.490119 0.5 0.375 0.0037869
0.490119 0.5 -0.375 0.00378696
0.14858 0.5 0.6 0.00375701
0.14858 0.5 -0.6 0.00375703
0.618281 0.5 1.85037e-17 0.00381155
0.283499 0.5 0.55 0.00376532
0.283499 0.5 -0.55 0.00376537
0.593635 0.5 0.175 0.00380577
0.593635 0.5 -0.175 0.00380581
0.618281 0.5 0.05 0.00381153
0.618281 0.5 -0.05 0.00381154
0.568989 0.5 0.25 0.00380059
0.568989 0.5 -0.25 0.00380063
0.517261 0.5 0.35 0.00379122
0.517261 0.5 -0.35 0.00379127
0.0380405 0.5 -0.625 0.00375165
0.0380405 0.5 0.625 0.00375164
0.618281 0.5 0.1 0.00381149
0.618281 0.5 -0.1 0.00381151
0.250582 0.5 0.575 0.00376309
0.250582 0.5 -0.575 0.00376313
0.543125 0.5 0.325 0.00379568
0.543125 0.5 -0.325 0.00379573
0 0.5 -0.633688 0.00375
0 0.5 0.633688 0.00375
0.593635 0.5 -0.225 0.00380578
0.593635 0.5 0.225 0.00380574
0.112331 0.5 0.625 0.00375518
0.112331 0.5 -0.625 0.0037552
0.618281 0.5 0.15 0.00381144
0.618281 0.5 -0.15 0.00381146
0.217666 0.5 0.6 0.0037611
0.217666 0.5 -0.6 0.00376114
0.641766 0.5 0.025 0.00381735
0.641766 0.5 -0.025 0.00381736
0.568989 0.5 0.3 0.00380061
0.568989 0.5 -0.3 0.00380066
0.434495 0.5 0.475 0.00377966
0.434495 0.5 -0.475 0.00377971
0.406012 0.5 0.5 0.00377644
0.406012 0.5 -0.5 0.00377649
0.462978 0.5 0.45 0.0037833
0.462978 0.5 -0.45 0.00378336
0.376122 0.5 0.525 0.00377334
0.376122 0.5 -0.525 0.0037734
0.641766 0.5 0.075 0.0038173
0.641766 0.5 -0.075 0.00381732
0.490119 0.5 0.425 0.0037871
0.490119 0.5 -0.425 0.00378716
0.618281 0.5 0.2 0.00381136
0.618281 0.5 -0.2 0.00381139
0.346232 0.5 0.55 0.00377063
0.346232 0.5 -0.55 0.00377069
0 0.5 0.65 0.00375
0 0.5 -0.65 0.00375
0.183123 0.5 0.625 0.00375911
0.183123 0.5 -0.625 0.00375914
0.641766 0.5 0.125 0.00381722
0.641766 0.5 -0.125 0.00381724
0.517261 0.5 0.4 0.00379135
0.517261 0.5 -0.4 0.00379141
0.593635 0.5 0.275 0.0038057
0.593635 0.5 -0.275 0.00380574
0.0760811 0.5 0.65 0.00375347
0.0760811 0.5 -0.65 0.00375349
0.314865 0.5 0.575 0.00376802
0.314865 0.5 -0.575 0.00376807
0.543125 0.5 0.375 0.00379575
0.543125 0.5 -0.375 0.00379581
0.283499 0.5 0.6 0.00376572
0.283499 0.5 -0.6 0.00376577
0.641766 0.5 0.175 0.0038171
0.641766 0.5 -0.175 0.00381713
0.665252 0.5 0 0.00382356
0 0.5 0.666312 0.00375
0 0.5 -0.666312 0.00375
0.14858 0.5 0.65 0.00375726
0.14858 0.5 -0.65 0.00375729
0.618281 0.5 0.25 0.00381125
0.618281 0.5 -0.25 0.00381129
0.665252 0.5 0.05 0.00382353
0.665252 0.5 -0.05 0.00382354
0.568989 0.5 0.35 0.00380061
0.568989 0.5 -0.35 0.00380067
0.665252 0.5 0.1 0.00382343
0.665252 0.5 -0.1 0.00382345
0.250582 0.5 0.625 0.00376347
0.250582 0.5 -0.625 0.00376351
0.0380405 0.5 0.675 0.00375171
0.0380405 0.5 -0.675 0.00375171
0.593635 0.5 -0.325 0.00380568
0.593635 0.5 0.325 0.00380563
0.641766 0.5 -0.225 0.00381698
0.641766 0.5 0.225 0.00381694
0.462978 0.5 0.5 0.00378353
0.462978 0.5 -0.5 0.00378359
0.434495 0.5 -0.525 0.00378
0.434495 0.5 0.525 0.00377994
0.665252 0.5 0.15 0.00382328
0.665252 0.5 -0.15 0.00382331
0.490119 0.5 0.475 0.00378727
0.490119 0.5 -0.475 0.00378733
0.406012 0.5 0.55 0.00377676
0.406012 0.5 -0.55 0.00377681
0 0.5 -0.683688 0.00375
0 0.5 0.683688 0.00375
0.112331 0.5 0.675 0.00375537
0.112331 0.5 -0.675 0.00375539
0.217666 0.5 0.65 0.00376144
0.217666 0.5 -0.65 0.00376147
0.517261 0.5 0.45 0.00379145
0.517261 0.5 -0.45 0.00379151
0.376122 0.5 0.575 0.0037737
0.376122 0.5 -0.575 0.00377375
0.618281 0.5 0.3 0.0038111
0.618281 0.5 -0.3 0.00381115
0.687632 0.5 0.025 0.00382983
0.687632 0.5 -0.025 0.00382983
0.543125 0.5 -0.425 0.00379585
0.543125 0.5 0.425 0.00379579
0.687632 0.5 0.075 0.00382974
0.687632 0.5 -0.075 0.00382975
0.346232 0.5 0.6 0.003771
0.346232 0.5 -0.6 0.00377106
0.665252 0.5 0.2 0.00382308
0.665252 0.5 -0.2 0.00382312
0.568989 0.5 0.4 0.00380058
0.568989 0.5 -0.4 0.00380064
0.641766 0.5 -0.275 0.00381678
0.641766 0.5 0.275 0.00381674
0.687632 0.5 0.125 0.00382958
0.687632 0.5 -0.125 0.0038296
0.183123 0.5 0.675 0.0037594
0.183123 0.5 -0.675 0.00375943
0.314865 0.5 -0.625 0.00376845
0.314865 0.5 0.625 0.0037684
0 0.5 0.7 0.00375
0 0.5 -0.7 0.00375
0.593635 0.5 0.375 0.00380552
0.593635 0.5 -0.375 0.00380558
0.0760811 0.5 0.7 0.0037536
0.0760811 0.5 -0.7 0.00375361
0.283499 0.5 0.65 0.00376608
0.283499 0.5 -0.65 0.00376613
0.687632 0.5 0.175 0.00382935
0.687632 0.5 -0.175 0.00382938
0.710013 0.5 1.2073e-17 0.00383648
0.618281 0.5 0.35 0.00381092
0.618281 0.5 -0.35 0.00381098
0.665252 0.5 0.25 0.00382282
0.665252 0.5 -0.25 0.00382286
0.710013 0.5 0.05 0.00383643
0.710013 0.5 -0.05 0.00383644
0.14858 0.5 0.7 0.00375749
0.14858 0.5 -0.7 0.00375752
0 0.5 -0.716312 0.00375
0 0.5 0.716312 0.00375
0.710013 0.5 0.1 0.00383627
0.710013 0.5 -0.1 0.00383629
0.490119 0.5 0.525 0.0037874
0.490119 0.5 -0.525 0.00378747
0.462978 0.5 0.55 0.00378372
0.462978 0.5 -0.55 0.00378379
0.641766 0.5 0.325 0.00381648
0.641766 0.5 -0.325 0.00381654
0.517261 0.5 0.5 0.00379151
0.517261 0.5 -0.5 0.00379158
0.250583 0.5 -0.675 0.00376385
0.250583 0.5 0.675 0.00376381
0.434495 0.5 0.575 0.00378018
0.434495 0.5 -0.575 0.00378025
0.543125 0.5 -0.475 0.00379584
0.543125 0.5 0.475 0.00379578
0.687632 0.5 0.225 0.00382904
0.687632 0.5 -0.225 0.00382908
0.406012 0.5 0.6 0.00377704
0.406012 0.5 -0.6 0.0037771
0.568989 0.5 0.45 0.00380049
0.568989 0.5 -0.45 0.00380056
0.710013 0.5 0.15 0.00383602
0.710013 0.5 -0.15 0.00383605
0.0380405 0.5 -0.725 0.00375177
0.0380405 0.5 0.725 0.00375176
0.376122 0.5 0.625 0.00377402
0.376122 0.5 -0.625 0.00377407
0.665252 0.5 0.3 0.00382249
0.665252 0.5 -0.3 0.00382254
0.593635 0.5 0.425 0.00380537
0.593635 0.5 -0.425 0.00380543
0.731339 0.5 -0.025 0.00384318
0.731339 0.5 0.025 0.00384318
0.217666 0.5 0.7 0.00376174
0.217666 0.5 -0.7 0.00376178
0.112331 0.5 0.725 0.00375555
0.112331 0.5 -0.725 0.00375556
0 0.5 -0.733688 0.00375
0 0.5 0.733688 0.00375
0.731339 0.5 0.075 0.00384305
0.731339 0.5 -0.075 0.00384306
0.618281 0.5 0.4 0.00381069
0.618281 0.5 -0.4 0.00381075
0.346232 0.5 0.65 0.00377133
0.346232 0.5 -0.65 0.00377139
0.710013 0.5 0.2 0.00383568
0.710013 0.5 -0.2 0.00383572
0.687632 0.5 -0.275 0.00382871
0.687632 0.5 0.275 0.00382866
0.731339 0.5 0.125 0.0038428
0.731339 0.5 -0.125 0.00384282
0.641766 0.5 -0.375 0.00381623
0.641766 0.5 0.375 0.00381617
0.314865 0.5 0.675 0.00376873
0.314865 0.5 -0.675 0.00376878
0.183123 0.5 -0.725 0.00375969
0.183123 0.5 0.725 0.00375966
0 0.5 0.75 0.00375
0 0.5 -0.75 0.00375
0.665252 0.5 0.35 0.0038221
0.665252 0.5 -0.35 0.00382216
0.731339 0.5 0.175 0.00384245
0.731339 0.5 -0.175 0.00384248
0.752665 0.5 0 0.00385025
0.710013 0.5 0.25 0.00383525
0.710013 0.5 -0.25 0.00383529
0.0760811 0.5 0.75 0.00375371
0.0760811 0.5 -0.75 0.00375372
0.752665 0.5 0.05 0.00385017
0.752665 0.5 -0.05 0.00385018
0.517261 0.5 0.55 0.00379153
0.517261 0.5 -0.55 0.0037916
0.283499 0.5 0.7 0.00376641
0.283499 0.5 -0.7 0.00376645
0.543125 0.5 0.525 0.00379573
0.543125 0.5 -0.525 0.00379579
0.490119 0.5 -0.575 0.00378756
0.490119 0.5 0.575 0.0037875
0.568989 0.5 0.5 0.00380036
0.568989 0.5 -0.5 0.00380042
0.462978 0.5 0.6 0.00378387
0.462978 0.5 -0.6 0.00378394
0.752665 0.5 0.1 0.00384995
0.752665 0.5 -0.1 0.00384997
0.593635 0.5 0.475 0.00380515
0.593635 0.5 -0.475 0.00380522
0.687632 0.5 0.325 0.00382819
0.687632 0.5 -0.325 0.00382825
0.434495 0.5 0.625 0.00378039
0.434495 0.5 -0.625 0.00378045
0.14858 0.5 0.75 0.0037577
0.14858 0.5 -0.75 0.00375772
0.618281 0.5 0.45 0.0038104
0.618281 0.5 -0.45 0.00381046
0.731339 0.5 0.225 0.00384198
0.731339 0.5 -0.225 0.00384202
0 0.5 -0.766312 0.00375
0 0.5 0.766312 0.00375
0.406012 0.5 0.65 0.00377728
0.406012 0.5 -0.65 0.00377734
0.250582 0.5 0.725 0.00376412
0.250583 0.5 -0.725 0.00376416
0.752665 0.5 0.15 0.00384959
0.752665 0.5 -0.15 0.00384962
0.641766 0.5 0.425 0.0038158
0.641766 0.5 -0.425 0.00381587
0.710013 0.5 0.3 0.00383472
0.710013 0.5 -0.3 0.00383477
0.376122 0.5 0.675 0.00377429
0.376122 0.5 -0.675 0.00377434
0.772987 0.5 0.025 0.00385735
0.772987 0.5 -0.025 0.00385735
0.0380405 0.5 0.775 0.00375182
0.0380405 0.5 -0.775 0.00375182
0.665252 0.5 0.4 0.00382164
0.665252 0.5 -0.4 0.00382171
0.772987 0.5 0.075 0.00385717
0.772987 0.5 -0.075 0.00385718
0.752665 0.5 0.2 0.0038491
0.752665 0.5 -0.2 0.00384914
0.346232 0.5 0.7 0.00377162
0.346232 0.5 -0.7 0.00377167
0.217666 0.5 0.75 0.00376201
0.217666 0.5 -0.75 0.00376204
0.731339 0.5 0.275 0.0038414
0.731339 0.5 -0.275 0.00384145
0.772987 0.5 0.125 0.00385683
0.772987 0.5 -0.125 0.00385685
0.112331 0.5 0.775 0.00375569
0.112331 0.5 -0.775 0.00375571
0.687632 0.5 -0.375 0.0038277
0.687632 0.5 0.375 0.00382764
0 0.5 -0.783688 0.00375
0 0.5 0.783688 0.00375
0.314865 0.5 0.725 0.00376903
0.314865 0.5 -0.725 0.00376907
0.543125 0.5 0.575 0.00379562
0.543125 0.5 -0.575 0.00379569
0.568989 0.5 0.55 0.00380016
0.568989 0.5 -0.55 0.00380023
0.710013 0.5 0.35 0.00383409
0.710013 0.5 -0.35 0.00383415
0.517261 0.5 0.6 0.0037915
0.517261 0.5 -0.6 0.00379157
0.593635 0.5 0.525 0.00380487
0.593635 0.5 -0.525 0.00380494
0.772987 0.5 -0.175 0.00385637
0.772988 0.5 0.175 0.00385634
0.752665 0.5 0.25 0.00384848
0.752665 0.5 -0.25 0.00384853
0.79331 0.5 2.13249e-17 0.0038648
0.490119 0.5 0.625 0.00378754
0.490119 0.5 -0.625 0.0037876
0.79331 0.5 0.05 0.0038647
0.79331 0.5 -0.05 0.0038647
0.618281 0.5 0.5 0.00381002
0.618281 0.5 -0.5 0.00381009
0.183123 0.5 0.775 0.00375989
0.183123 0.5 -0.775 0.00375992
0.462978 0.5 0.65 0.00378397
0.462978 0.5 -0.65 0.00378404
0.641766 0.5 0.475 0.00381535
0.641766 0.5 -0.475 0.00381541
0.79331 0.5 0.1 0.0038644
0.79331 0.5 -0.1 0.00386442
0 0.5 0.8 0.00375
0 0.5 -0.8 0.00375
0.731339 0.5 -0.325 0.00384076
0.731339 0.5 0.325 0.0038407
0.283499 0.5 0.75 0.00376668
0.283499 0.5 -0.75 0.00376673
0.434495 0.5 -0.675 0.0037806
0.434495 0.5 0.675 0.00378054
0.665252 0.5 0.45 0.00382111
0.665252 0.5 -0.45 0.00382117
0.0760811 0.5 0.8 0.0037538
0.0760811 0.5 -0.8 0.00375381
0.772987 0.5 0.225 0.0038557
0.772987 0.5 -0.225 0.00385574
0.79331 0.5 0.15 0.00386392
0.79331 0.5 -0.15 0.00386395
0.687632 0.5 -0.425 0.0038271
0.687632 0.5 0.425 0.00382704
0.406012 0.5 0.7 0.00377747
0.406012 0.5 -0.7 0.00377753
0.752665 0.5 0.3 0.00384773
0.752665 0.5 -0.3 0.00384778
0.812675 0.5 -0.025 0.00387227
0.812676 0.5 0.025 0.00387226
0.14858 0.5 0.8 0.00375787
0.14858 0.5 -0.8 0.00375789
0.250582 0.5 -0.775 0.00376441
0.250583 0.5 0.775 0.00376437
0.710013 0.5 0.4 0.00383338
0.710013 0.5 -0.4 0.00383344
0.812675 0.5 -0.075 0.00387205
0.812675 0.5 0.075 0.00387203
0 0.5 -0.816312 0.00375
0 0.5 0.816312 0.00375
0.376122 0.5 0.725 0.00377451
0.376122 0.5 -0.725 0.00377456
0.79331 0.5 0.2 0.00386328
0.79331 0.5 -0.2 0.00386331
0.772987 0.5 0.275 0.0038549
0.772987 0.5 -0.275 0.00385495
0.731339 0.5 0.375 0.00383989
0.731339 0.5 -0.375 0.00383995
0.812675 0.5 -0.125 0.00387162
0.812676 0.5 0.125 0.0038716
0.0380405 0.5 0.825 0.00375186
0.0380406 0.5 -0.825 0.00375186
0.346232 0.5 0.75 0.00377185
0.346232 0.5 -0.75 0.0037719
0.593635 0.5 0.575 0.00380453
0.593635 0.5 -0.575 0.0038046
0.568989 0.5 0.6 0.00379991
0.568989 0.5 -0.6 0.00379998
0.618281 0.5 0.55 0.00380958
0.618281 0.5 -0.55 0.00380965
0.543125 0.5 0.625 0.00379545
0.543125 0.5 -0.625 0.00379552
0.217666 0.5 0.8 0.00376223
0.217666 0.5 -0.8 0.00376226
0.641766 0.5 0.525 0.0038148
0.641766 0.5 -0.525 0.00381487
0.752665 0.5 0.35 0.00384684
0.752665 0.5 -0.35 0.0038469
0.517261 0.5 0.65 0.00379141
0.517261 0.5 -0.65 0.00379148
0.812675 0.5 0.175 0.00387096
0.812675 0.5 -0.175 0.00387099
0.79331 0.5 0.25 0.00386245
0.79331 0.5 -0.25 0.0038625
0.832041 0.5 2.13249e-17 0.0038801
0.665252 0.5 0.5 0.00382047
0.665252 0.5 -0.5 0.00382053
0.112331 0.5 0.825 0.00375582
0.112331 0.5 -0.825 0.00375583
0.832041 0.5 0.05 0.00387997
0.832041 0.5 -0.05 0.00387998
0 0.5 -0.833688 0.00375
0 0.5 0.833688 0.00375
0.490119 0.5 0.675 0.00378752
0.490119 0.5 -0.675 0.00378759
0.687632 0.5 0.475 0.00382631
0.687632 0.5 -0.475 0.00382637
0.314865 0.5 0.775 0.00376926
0.314865 0.5 -0.775 0.00376931
0.832041 0.5 0.1 0.00387959
0.832041 0.5 -0.1 0.00387961
0.772987 0.5 -0.325 0.00385401
0.772988 0.5 0.325 0.00385395
0.462978 0.5 0.7 0.00378402
0.462978 0.5 -0.7 0.00378408
0.710013 0.5 0.45 0.00383257
0.710013 0.5 -0.45 0.00383264
0.812675 0.5 0.225 0.00387013
0.812675 0.5 -0.225 0.00387017
0.183123 0.5 0.825 0.00376007
0.183123 0.5 -0.825 0.0037601
0.434495 0.5 0.725 0.00378064
0.434495 0.5 -0.725 0.0037807
0.832041 0.5 0.15 0.00387899
0.832041 0.5 -0.15 0.00387901
0.731339 0.5 0.425 0.003839
0.731339 0.5 -0.425 0.00383907
0.79331 0.5 0.3 0.00386145
0.79331 0.5 -0.3 0.00386151
0.283499 0.5 0.8 0.00376691
0.283499 0.5 -0.8 0.00376695
0 0.5 0.85 0.00375
0 0.5 -0.85 0.00375
0.850494 0.5 -0.025 0.00388791
0.850495 0.5 0.025 0.0038879
0.752665 0.5 0.4 0.00384584
0.752665 0.5 -0.4 0.0038459
0.406012 0.5 0.75 0.00377761
0.406012 0.5 -0.75 0.00377766
0.0760811 0.5 0.85 0.00375387
0.0760811 0.5 -0.85 0.00375388
0.850494 0.5 0.075 0.00388762
0.850494 0.5 -0.075 0.00388763
0.832041 0.5 0.2 0.00387816
0.832041 0.5 -0.2 0.00387819
0.812675 0.5 -0.275 0.00386915
0.812676 0.5 0.275 0.0038691
0.772987 0.5 -0.375 0.00385292
0.772987 0.5 0.375 0.00385286
0.850494 0.5 0.125 0.00388707
0.850494 0.5 -0.125 0.00388709
0.376122 0.5 -0.775 0.00377473
0.376122 0.5 0.775 0.00377467
0.618281 0.5 0.6 0.00380905
0.618281 0.5 -0.6 0.00380913
0.641766 0.5 -0.575 0.00381425
0.641766 0.5 0.575 0.00381418
0.593635 0.5 -0.625 0.00380418
0.593635 0.5 0.625 0.00380411
0.250582 0.5 0.825 0.00376458
0.250583 0.5 -0.825 0.00376462
0.14858 0.5 0.85 0.00375801
0.14858 0.5 -0.85 0.00375803
0.665252 0.5 0.55 0.00381973
0.665252 0.5 -0.55 0.0038198
0.568989 0.5 0.65 0.00379958
0.568989 0.5 -0.65 0.00379965
0.687632 0.5 0.525 0.00382547
0.687632 0.5 -0.525 0.00382554
0 0.5 -0.866312 0.00375
0 0.5 0.866312 0.00375
0.543125 0.5 -0.675 0.00379529
0.543125 0.5 0.675 0.00379522
0.79331 0.5 0.35 0.00386029
0.79331 0.5 -0.35 0.00386035
0.850494 0.5 0.175 0.00388628
0.850494 0.5 -0.175 0.00388631
0.710013 0.5 0.5 0.00383163
0.710013 0.5 -0.5 0.0038317
0.832041 0.5 0.25 0.00387711
0.832041 0.5 -0.25 0.00387715
0.868948 0.5 1.2073e-17 0.00389587
0.517261 0.5 0.7 0.00379126
0.517261 0.5 -0.7 0.00379133
0.868948 0.5 0.05 0.00389571
0.868948 0.5 -0.05 0.00389572
0.346232 0.5 0.8 0.00377203
0.346232 0.5 -0.8 0.00377208
0.731339 0.5 -0.475 0.00383805
0.731339 0.5 0.475 0.00383798
0.868948 0.5 0.1 0.00389527
0.868948 0.5 -0.1 0.00389529
0.490119 0.5 -0.725 0.00378751
0.490119 0.5 0.725 0.00378744
0.812675 0.5 0.325 0.00386788
0.812676 0.5 -0.325 0.00386794
0.0380405 0.5 0.875 0.00375189
0.0380405 0.5 -0.875 0.0037519
0.752665 0.5 0.45 0.00384473
0.752665 0.5 -0.45 0.0038448
0.217666 0.5 0.85 0.00376241
0.217666 0.5 -0.85 0.00376244
0.850494 0.5 0.225 0.00388523
0.850494 0.5 -0.225 0.00388527
0.462978 0.5 0.75 0.003784
0.462978 0.5 -0.75 0.00378406
0.868948 0.5 0.15 0.00389456
0.868948 0.5 -0.15 0.00389459
0.772987 0.5 0.425 0.00385165
0.772987 0.5 -0.425 0.00385171
0.112331 0.5 0.875 0.00375592
0.112331 0.5 -0.875 0.00375593
0.314865 0.5 0.825 0.00376945
0.314865 0.5 -0.825 0.00376949
0 0.5 -0.883688 0.00375
0 0.5 0.883688 0.00375
0.832041 0.5 0.3 0.00387585
0.832041 0.5 -0.3 0.0038759
0.886533 0.5 0.025 0.00390373
0.886533 0.5 -0.025 0.00390373
0.79331 0.5 0.4 0.00385897
0.79331 0.5 -0.4 0.00385904
0.434495 0.5 -0.775 0.00378074
0.434495 0.5 0.775 0.00378068
0.886533 0.5 0.075 0.00390341
0.886533 0.5 -0.075 0.00390343
0.868948 0.5 0.2 0.00389359
0.868948 0.5 -0.2 0.00389363
0.850494 0.5 -0.275 0.003884
0.850495 0.5 0.275 0.00388395
0.183123 0.5 0.875 0.00376022
0.183123 0.5 -0.875 0.00376025
0.812675 0.5 -0.375 0.00386655
0.812675 0.5 0.375 0.00386648
0.886533 0.5 0.125 0.00390281
0.886533 0.5 -0.125 0.00390284
0.641766 0.5 0.625 0.00381347
0.641766 0.5 -0.625 0.00381355
0.665252 0.5 0.6 0.00381891
0.665252 0.5 -0.6 0.00381898
0.283499 0.5 0.85 0.00376708
0.283499 0.5 -0.85 0.00376712
0.687632 0.5 -0.575 0.0038246
0.687632 0.5 0.575 0.00382453
0.618281 0.5 0.65 0.00380846
0.618281 0.5 -0.65 0.00380853
0.406012 0.5 0.8 0.00377768
0.406012 0.5 -0.8 0.00377773
0.710013 0.5 0.55 0.00383058
0.710013 0.5 -0.55 0.00383065
0.593635 0.5 0.675 0.00380362
0.593635 0.5 -0.675 0.00380369
0 0.5 0.9 0.00375
0 0.5 -0.9 0.00375
0.731339 0.5 0.525 0.00383682
0.731339 0.5 -0.525 0.00383689
0.568989 0.5 0.7 0.00379919
0.568989 0.5 -0.7 0.00379926
0.832041 0.5 0.35 0.00387438
0.832041 0.5 -0.35 0.00387444
0.0760811 0.5 0.9 0.00375393
0.0760811 0.5 -0.9 0.00375394
0.752665 0.5 0.5 0.00384348
0.752665 0.5 -0.5 0.00384355
0.886533 0.5 0.175 0.00390194
0.886533 0.5 -0.175 0.00390197
0.904118 0.5 2.44417e-17 0.00391167
0.868948 0.5 0.25 0.00389236
0.868948 0.5 -0.25 0.00389241
0.904118 0.5 0.05 0.0039115
0.904118 0.5 -0.05 0.00391151
0.543125 0.5 0.725 0.00379492
0.543125 0.5 -0.725 0.00379499
0.376122 0.5 -0.825 0.00377483
0.376122 0.5 0.825 0.00377478
0.772987 0.5 -0.475 0.00385039
0.772987 0.5 0.475 0.00385032
0.904118 0.5 0.1 0.00391103
0.904118 0.5 -0.1 0.00391105
0.250583 0.5 0.875 0.00376474
0.250582 0.5 -0.875 0.00376478
0.850494 0.5 0.325 0.00388244
0.850495 0.5 -0.325 0.00388249
0.517261 0.5 0.75 0.00379104
0.517261 0.5 -0.75 0.00379111
0.79331 0.5 0.45 0.00385754
0.79331 0.5 -0.45 0.00385761
0.14858 0.5 0.9 0.00375812
0.14858 0.5 -0.9 0.00375814
0.886533 0.5 0.225 0.00390079
0.886533 0.5 -0.225 0.00390082
0 0.5 -0.916312 0.00375
0 0.5 0.916312 0.00375
0.904118 0.5 0.15 0.00391026
0.904118 0.5 -0.15 0.00391029
0.490119 0.5 -0.775 0.00378737
0.490119 0.5 0.775 0.0037873
0.812676 0.5 0.425 0.00386493
0.812676 0.5 -0.425 0.003865
0.346232 0.5 0.85 0.00377214
0.346232 0.5 -0.85 0.00377219
0.868948 0.5 0.3 0.00389086
0.868948 0.5 -0.3 0.00389091
0.920875 0.5 -0.025 0.00391948
0.920875 0.5 0.025 0.00391948
0.832041 0.5 0.4 0.00387273