# kMean  POINT_DATA 129309
# x  y  z  kMean
0 0.1 0 0.00375
0 0.1 -0.0208665 0.00375
0 0.1 0.0208665 0.00375
0 0.1 -0.0291335 0.00375
0 0.1 0.0291335 0.00375
0.0380405 0.1 -0.025 0.00375401
0.0380405 0.1 0.025 0.00375401
0 0.1 -0.05 0.00375
0 0.1 0.05 0.00375
0 0.1 -0.0708665 0.00375
0 0.1 0.0708665 0.00375
0.0760811 0.1 0 0.0037569
0 0.1 -0.0791335 0.00375
0 0.1 0.0791335 0.00375
0.0380405 0.1 -0.075 0.00375404
0.0380405 0.1 0.075 0.00375403
0.0760811 0.1 -0.05 0.00375695
0.0760811 0.1 0.05 0.00375695
0 0.1 -0.1 0.00375
0 0.1 0.1 0.00375
0.112331 0.1 -0.025 0.00375969
0.112331 0.1 0.025 0.00375969
0 0.1 -0.120866 0.00375
0 0.1 0.120866 0.00375
0.0760811 0.1 -0.1 0.00375704
0.0760811 0.1 0.1 0.00375703
0 0.1 -0.129134 0.00375
0 0.1 0.129134 0.00375
0.0380405 0.1 0.125 0.00375407
0.0380405 0.1 -0.125 0.00375407
0.112331 0.1 -0.075 0.00375984
0.112331 0.1 0.075 0.00375984
0.14858 0.1 0 0.00376193
0 0.1 -0.15 0.00375
0 0.1 0.15 0.00375
0.14858 0.1 -0.05 0.00376202
0.14858 0.1 0.05 0.00376201
0.112331 0.1 0.125 0.00375998
0.112331 0.1 -0.125 0.00375998
0.0760811 0.1 -0.15 0.00375715
0.0760811 0.1 0.15 0.00375714
0 0.1 -0.170866 0.00375
0 0.1 0.170866 0.00375
0.0380405 0.1 0.175 0.00375411
0.0380405 0.1 -0.175 0.00375411
0.14858 0.1 -0.1 0.00376221
0.14858 0.1 0.1 0.0037622
0 0.1 -0.179134 0.00375
0 0.1 0.179134 0.00375
0.183123 0.1 0.025 0.00376408
0.183123 0.1 -0.025 0.00376408
0.183123 0.1 -0.075 0.00376424
0.183123 0.1 0.075 0.00376423
0 0.1 -0.2 0.00375
0 0.1 0.2 0.00375
0.112331 0.1 -0.175 0.0037602
0.112331 0.1 0.175 0.00376019
0.14858 0.1 -0.15 0.00376247
0.14858 0.1 0.15 0.00376245
0.0760811 0.1 -0.2 0.00375731
0.0760811 0.1 0.2 0.0037573
0.217666 0.1 0 0.00376157
0 0.1 -0.220866 0.00375
0 0.1 0.220866 0.00375
0.183123 0.1 -0.125 0.00376452
0.183123 0.1 0.125 0.00376451
0.217666 0.1 -0.05 0.00376164
0.217666 0.1 0.05 0.00376163
0.0380405 0.1 0.225 0.00375417
0.0380405 0.1 -0.225 0.00375417
0 0.1 -0.229134 0.00375
0 0.1 0.229134 0.00375
0.217666 0.1 -0.1 0.00376181
0.217666 0.1 0.1 0.0037618
0.14858 0.1 -0.2 0.00376282
0.14858 0.1 0.2 0.00376281
0 0.1 -0.25 0.00375
0 0.1 0.25 0.00375
0.112331 0.1 -0.225 0.0037605
0.112331 0.1 0.225 0.00376049
0.250582 0.1 -0.025 0.00375919
0.250582 0.1 0.025 0.00375919
0.183123 0.1 -0.175 0.0037649
0.183123 0.1 0.175 0.00376489
0.0760811 0.1 -0.25 0.00375751
0.0760811 0.1 0.25 0.0037575
0.250582 0.1 -0.075 0.00375928
0.250582 0.1 0.075 0.00375928
0.217666 0.1 -0.15 0.0037621
0.217666 0.1 0.15 0.00376209
0 0.1 -0.270866 0.00375
0 0.1 0.270866 0.00375
0.0380405 0.1 -0.275 0.00375424
0.0380405 0.1 0.275 0.00375423
0 0.1 -0.279134 0.00375
0 0.1 0.279134 0.00375
0.250582 0.1 0.125 0.00375939
0.250583 0.1 -0.125 0.0037594
0.283499 0.1 0 0.00375633
0.283499 0.1 -0.05 0.00375639
0.283499 0.1 0.05 0.00375638
0.183123 0.1 -0.225 0.00376541
0.183123 0.1 0.225 0.00376539
0.14858 0.1 -0.25 0.00376327
0.14858 0.1 0.25 0.00376325
0.217666 0.1 -0.2 0.00376255
0.217666 0.1 0.2 0.00376253
0.112331 0.1 0.275 0.00376085
0.112331 0.1 -0.275 0.00376086
0 0.1 -0.3 0.00375
0 0.1 0.3 0.00375
0.283499 0.1 -0.1 0.00375654
0.283499 0.1 0.1 0.00375653
0.250583 0.1 -0.175 0.00375973
0.250583 0.1 0.175 0.00375971
0.0760811 0.1 -0.3 0.00375773
0.0760811 0.1 0.3 0.00375772
0.314865 0.1 -0.025 0.00375387
0.314866 0.1 0.025 0.00375387
0.283499 0.1 -0.15 0.00375684
0.283499 0.1 0.15 0.00375682
0 0.1 -0.320866 0.00375
0 0.1 0.320866 0.00375
0.314866 0.1 -0.075 0.00375399
0.314866 0.1 0.075 0.00375398
0.0380405 0.1 0.325 0.0037543
0.0380405 0.1 -0.325 0.00375431
0 0.1 -0.329134 0.00375
0 0.1 0.329134 0.00375
0.183123 0.1 -0.275 0.00376602
0.183123 0.1 0.275 0.00376599
0.217666 0.1 -0.25 0.00376313
0.217666 0.1 0.25 0.00376311
0.14858 0.1 -0.3 0.00376378
0.14858 0.1 0.3 0.00376376
0.250582 0.1 -0.225 0.00376024
0.250583 0.1 0.225 0.00376021
0.314865 0.1 -0.125 0.00375421
0.314865 0.1 0.125 0.0037542
0.112331 0.1 -0.325 0.00376125
0.112331 0.1 0.325 0.00376124
0.346232 0.1 2.31665e-17 0.00375118
0.283499 0.1 -0.2 0.00375734
0.283499 0.1 0.2 0.00375731
0.346232 0.1 -0.05 0.00375126
0.346232 0.1 0.05 0.00375125
0 0.1 -0.35 0.00375
0 0.1 0.35 0.00375
0.0760811 0.1 -0.35 0.00375797
0.0760811 0.1 0.35 0.00375796
0.314865 0.1 0.175 0.00375463
0.314866 0.1 -0.175 0.00375465
0.346232 0.1 -0.1 0.00375146
0.346232 0.1 0.1 0.00375145
0.217666 0.1 -0.3 0.00376381
0.217666 0.1 0.3 0.00376378
0 0.1 -0.370866 0.00375
0 0.1 0.370866 0.00375
0.250582 0.1 0.275 0.00376085
0.250583 0.1 -0.275 0.00376089
0.183123 0.1 -0.325 0.00376666
0.183123 0.1 0.325 0.00376664
0.0380405 0.1 -0.375 0.00375438
0.0380405 0.1 0.375 0.00375438
0.376122 0.1 -0.025 0.00374892
0.376122 0.1 0.025 0.00374892
0.346232 0.1 -0.15 0.00375183
0.346232 0.1 0.15 0.00375181
0.283499 0.1 -0.25 0.003758
0.283499 0.1 0.25 0.00375797
0 0.1 -0.379134 0.00375
0 0.1 0.379134 0.00375
0.14858 0.1 -0.35 0.00376431
0.14858 0.1 0.35 0.00376429
0.376122 0.1 -0.075 0.00374908
0.376122 0.1 0.075 0.00374907
0.314866 0.1 -0.225 0.00375529
0.314866 0.1 0.225 0.00375526
0.112331 0.1 -0.375 0.00376165
0.112331 0.1 0.375 0.00376164
0.376122 0.1 0.125 0.00374936
0.376122 0.1 -0.125 0.00374938
0.346232 0.1 -0.2 0.0037524
0.346232 0.1 0.2 0.00375237
0 0.1 -0.4 0.00375
0 0.1 0.4 0.00375
0.406012 0.1 1.85037e-17 0.00374642
0.0760811 0.1 -0.4 0.00375821
0.0760811 0.1 0.4 0.0037582
0.406012 0.1 -0.05 0.0037465
0.406012 0.1 0.05 0.00374649
0.250582 0.1 0.325 0.0037616
0.250582 0.1 -0.325 0.00376165
0.217666 0.1 -0.35 0.00376458
0.217666 0.1 0.35 0.00376454
0.283499 0.1 -0.3 0.00375878
0.283499 0.1 0.3 0.00375873
0.376122 0.1 -0.175 0.00374987
0.376122 0.1 0.175 0.00374984
0.183123 0.1 -0.375 0.00376728
0.183123 0.1 0.375 0.00376725
0.314866 0.1 -0.275 0.00375606
0.314866 0.1 0.275 0.00375602
0.406012 0.1 -0.1 0.00374674
0.406012 0.1 0.1 0.00374672
0 0.1 -0.420866 0.00375
0 0.1 0.420866 0.00375
0.0380405 0.1 -0.425 0.00375446
0.0380405 0.1 0.425 0.00375446
0.14858 0.1 -0.4 0.0037648
0.14858 0.1 0.4 0.00376478
0.346232 0.1 -0.25 0.00375312
0.346232 0.1 0.25 0.00375308
0 0.1 -0.429134 0.00375
0 0.1 0.429134 0.00375
0.406012 0.1 -0.15 0.00374715
0.406012 0.1 0.15 0.00374712
0.434495 0.1 -0.025 0.00374439
0.434495 0.1 0.025 0.00374439
0.376122 0.1 -0.225 0.00375053
0.376122 0.1 0.225 0.0037505
0.112331 0.1 -0.425 0.00376205
0.112331 0.1 0.425 0.00376204
0.434495 0.1 -0.075 0.00374456
0.434495 0.1 0.075 0.00374454
0 0.1 -0.45 0.00375
0 0.1 0.45 0.00375
0.283499 0.1 -0.35 0.00375969
0.283499 0.1 0.35 0.00375964
0.250582 0.1 0.375 0.00376261
0.250582 0.1 -0.375 0.00376267
0.434495 0.1 -0.125 0.00374488
0.434495 0.1 0.125 0.00374486
0.314866 0.1 -0.325 0.00375693
0.314866 0.1 0.325 0.00375688
0.406012 0.1 -0.2 0.00374772
0.406012 0.1 0.2 0.00374768
0.217666 0.1 -0.4 0.0037654
0.217666 0.1 0.4 0.00376536
0.0760811 0.1 -0.45 0.00375846
0.0760811 0.1 0.45 0.00375845
0.346232 0.1 -0.3 0.00375394
0.346232 0.1 0.3 0.0037539
0.183123 0.1 -0.425 0.00376779
0.183123 0.1 0.425 0.00376776
0.462978 0.1 2.62258e-17 0.00374216
0.462978 0.1 -0.05 0.00374224
0.462978 0.1 0.05 0.00374223
0.376122 0.1 -0.275 0.00375132
0.376122 0.1 0.275 0.00375127
0.434495 0.1 -0.175 0.00374537
0.434495 0.1 0.175 0.00374533
0 0.1 -0.470866 0.00375
0 0.1 0.470866 0.00375
0.462978 0.1 -0.1 0.00374248
0.462978 0.1 0.1 0.00374246
0.14858 0.1 -0.45 0.00376524
0.14858 0.1 0.45 0.00376522
0.0380405 0.1 0.475 0.00375454
0.0380405 0.1 -0.475 0.00375455
0.406012 0.1 -0.25 0.00374843
0.406012 0.1 0.25 0.00374838
0 0.1 -0.479134 0.00375
0 0.1 0.479134 0.00375
0.462978 0.1 -0.15 0.00374287
0.462978 0.1 0.15 0.00374284
0.112331 0.1 -0.475 0.00376245
0.112331 0.1 0.475 0.00376244
0.434495 0.1 0.225 0.00374596
0.434495 0.1 -0.225 0.003746
0.314866 0.1 0.375 0.00375789
0.314866 0.1 -0.375 0.00375794
0.283499 0.1 -0.4 0.00376074
0.283499 0.1 0.4 0.00376069
0.490119 0.1 -0.025 0.00374045
0.490119 0.1 0.025 0.00374044
0.346232 0.1 -0.35 0.00375485
0.346232 0.1 0.35 0.0037548
0.250582 0.1 -0.425 0.00376383
0.250582 0.1 0.425 0.00376378
0.490119 0.1 0.075 0.00374059
0.490119 0.1 -0.075 0.00374061
0.376122 0.1 -0.325 0.00375217
0.376122 0.1 0.325 0.00375211
0.217666 0.1 -0.45 0.00376619
0.217666 0.1 0.45 0.00376615
0 0.1 -0.5 0.00375
0 0.1 0.5 0.00375
0.462978 0.1 -0.2 0.0037434
0.462978 0.1 0.2 0.00374337
0.406012 0.1 -0.3 0.00374921
0.406012 0.1 0.3 0.00374916
0.0760811 0.1 -0.5 0.00375871
0.0760811 0.1 0.5 0.0037587
0.490119 0.1 -0.125 0.00374092
0.490119 0.1 0.125 0.00374089
0.183123 0.1 -0.475 0.00376824
0.183123 0.1 0.475 0.00376822
0.434495 0.1 -0.275 0.00374673
0.434495 0.1 0.275 0.00374668
0.517261 0.1 -7.72214e-18 0.00373857
0.517261 0.1 -0.05 0.00373865
0.517261 0.1 0.05 0.00373863
0.490119 0.1 -0.175 0.00374135
0.490119 0.1 0.175 0.00374132
0 0.1 -0.520866 0.00375
0 0.1 0.520866 0.00375
0.14858 0.1 -0.5 0.00376567
0.14858 0.1 0.5 0.00376565
0.462978 0.1 -0.25 0.00374404
0.462978 0.1 0.25 0.003744
0.0380405 0.1 -0.525 0.00375463
0.0380405 0.1 0.525 0.00375462
0.517261 0.1 -0.1 0.00373886
0.517261 0.1 0.1 0.00373884
0.314866 0.1 -0.425 0.00375903
0.314866 0.1 0.425 0.00375897
0.346232 0.1 -0.4 0.00375583
0.346232 0.1 0.4 0.00375577
0 0.1 -0.529134 0.00375
0 0.1 0.529134 0.00375
0.376122 0.1 -0.375 0.00375308
0.376122 0.1 0.375 0.00375302
0.283499 0.1 -0.45 0.0037618
0.283499 0.1 0.45 0.00376175
0.406012 0.1 -0.35 0.00375005
0.406012 0.1 0.35 0.00374999
0.112331 0.1 -0.525 0.00376287
0.112331 0.1 0.525 0.00376285
0.250582 0.1 -0.475 0.00376494
0.250583 0.1 0.475 0.00376489
0.517261 0.1 -0.15 0.00373921
0.517261 0.1 0.15 0.00373918
0.490119 0.1 -0.225 0.00374191
0.490119 0.1 0.225 0.00374186
0.434495 0.1 0.325 0.00374745
0.434495 0.1 -0.325 0.0037475
0.543125 0.1 -0.025 0.00373726
0.543125 0.1 0.025 0.00373725
0.217666 0.1 -0.5 0.00376696
0.217666 0.1 0.5 0.00376692
0.543125 0.1 -0.075 0.0037374
0.543125 0.1 0.075 0.00373738
0 0.1 -0.55 0.00375
0 0.1 0.55 0.00375
0.462978 0.1 -0.3 0.00374475
0.462978 0.1 0.3 0.0037447
0.517261 0.1 -0.2 0.00373966
0.517261 0.1 0.2 0.00373962
0.0760811 0.1 -0.55 0.00375897
0.0760811 0.1 0.55 0.00375895
0.183123 0.1 0.525 0.00376865
0.183123 0.1 -0.525 0.00376868
0.543125 0.1 0.125 0.00373763
0.543125 0.1 -0.125 0.00373766
0.490119 0.1 0.275 0.00374249
0.490119 0.1 -0.275 0.00374254
0.376122 0.1 -0.425 0.003754
0.376122 0.1 0.425 0.00375394
0.346232 0.1 -0.45 0.00375679
0.346232 0.1 0.45 0.00375673
0.568989 0.1 0 0.00373579
0.14858 0.1 -0.55 0.00376609
0.14858 0.1 0.55 0.00376607
0.314866 0.1 -0.475 0.00376005
0.314866 0.1 0.475 0.00375999
0.406012 0.1 -0.4 0.0037509
0.406012 0.1 0.4 0.00375084
0.543125 0.1 -0.175 0.00373802
0.543125 0.1 0.175 0.00373798
0 0.1 0.570866 0.00375
0 0.1 -0.570866 0.00375
0.568989 0.1 -0.05 0.00373585
0.568989 0.1 0.05 0.00373584
0.434495 0.1 0.375 0.00374824
0.434495 0.1 -0.375 0.00374829
0.517261 0.1 -0.25 0.0037402
0.517261 0.1 0.25 0.00374015
0.283499 0.1 -0.5 0.00376285
0.283499 0.1 0.5 0.00376279
0.0380405 0.1 0.575 0.00375469
0.0380406 0.1 -0.575 0.0037547
0.568989 0.1 -0.1 0.00373603
0.568989 0.1 0.1 0.00373601
0 0.1 -0.579134 0.00375
0 0.1 0.579134 0.00375
0.462978 0.1 -0.35 0.00374548
0.462978 0.1 0.35 0.00374542
0.250582 0.1 -0.525 0.00376611
0.250582 0.1 0.525 0.00376605
0.112331 0.1 -0.575 0.00376331
0.112331 0.1 0.575 0.00376329
0.543125 0.1 -0.225 0.00373847
0.543125 0.1 0.225 0.00373842
0.490119 0.1 -0.325 0.00374321
0.490119 0.1 0.325 0.00374316
0.568989 0.1 -0.15 0.0037363
0.568989 0.1 0.15 0.00373627
0.217666 0.1 -0.55 0.00376771
0.217666 0.1 0.55 0.00376767
0.593635 0.1 -0.025 0.00373493
0.593635 0.1 0.025 0.00373492
0.517261 0.1 -0.3 0.00374079
0.517261 0.1 0.3 0.00374073
0.593635 0.1 -0.075 0.00373504
0.593635 0.1 0.075 0.00373502
0 0.1 -0.6 0.00375
0 0.1 0.6 0.00375
0.568989 0.1 -0.2 0.00373666
0.568989 0.1 0.2 0.00373661
0.183123 0.1 -0.575 0.00376906
0.183123 0.1 0.575 0.00376904
0.0760811 0.1 -0.6 0.00375923
0.0760811 0.1 0.6 0.00375921
0.376122 0.1 -0.475 0.00375487
0.376122 0.1 0.475 0.00375481
0.406012 0.1 -0.45 0.00375171
0.406012 0.1 0.45 0.00375165
0.593635 0.1 -0.125 0.00373523
0.593635 0.1 0.125 0.0037352
0.434495 0.1 -0.425 0.00374906
0.434495 0.1 0.425 0.003749
0.346232 0.1 -0.5 0.00375772
0.346232 0.1 0.5 0.00375766
0.543125 0.1 -0.275 0.00373897
0.543125 0.1 0.275 0.00373892
0.462978 0.1 -0.4 0.00374619
0.462978 0.1 0.4 0.00374613
0.314866 0.1 -0.525 0.00376107
0.314866 0.1 0.525 0.00376101
0.490119 0.1 -0.375 0.00374386
0.490119 0.1 0.375 0.0037438
0.14858 0.1 -0.6 0.00376649
0.14858 0.1 0.6 0.00376646
0.618281 0.1 7.72214e-18 0.0037339
0.283499 0.1 -0.55 0.00376389
0.283499 0.1 0.55 0.00376384
0.593635 0.1 0.175 0.00373546
0.593635 0.1 -0.175 0.0037355
0.618281 0.1 -0.05 0.00373395
0.618281 0.1 0.05 0.00373394
0 0.1 -0.620866 0.00375
0 0.1 0.620866 0.00375
0.568989 0.1 -0.25 0.00373707
0.568989 0.1 0.25 0.00373702
0.517261 0.1 -0.35 0.00374138
0.517261 0.1 0.35 0.00374132
0.0380405 0.1 -0.625 0.00375476
0.0380405 0.1 0.625 0.00375476
0.618281 0.1 -0.1 0.00373407
0.618281 0.1 0.1 0.00373405
0.250582 0.1 0.575 0.00376713
0.250583 0.1 -0.575 0.00376718
0 0.1 -0.629134 0.00375
0 0.1 0.629134 0.00375
0.543125 0.1 -0.325 0.0037395
0.543125 0.1 0.325 0.00373944
0.593635 0.1 -0.225 0.00373582
0.593635 0.1 0.225 0.00373577
0.112331 0.1 -0.625 0.00376375
0.112331 0.1 0.625 0.00376373
0.618281 0.1 -0.15 0.00373426
0.618281 0.1 0.15 0.00373422
0.217666 0.1 -0.6 0.00376838
0.217666 0.1 0.6 0.00376835
0.641766 0.1 -0.025 0.00373352
0.641766 0.1 0.025 0.00373352
0.568989 0.1 -0.3 0.0037375
0.568989 0.1 0.3 0.00373745
0.434495 0.1 -0.475 0.00374977
0.434495 0.1 0.475 0.00374971
0.406012 0.1 -0.5 0.00375248
0.406012 0.1 0.5 0.00375242
0.462978 0.1 -0.45 0.00374685
0.462978 0.1 0.45 0.00374678
0.376122 0.1 -0.525 0.0037557
0.376122 0.1 0.525 0.00375564
0.641766 0.1 -0.075 0.00373359
0.641766 0.1 0.075 0.00373357
0.490119 0.1 0.425 0.00374441
0.490119 0.1 -0.425 0.00374447
0.618281 0.1 -0.2 0.00373449
0.618281 0.1 0.2 0.00373444
0.346232 0.1 -0.55 0.00375861
0.346232 0.1 0.55 0.00375855
0 0.1 -0.65 0.00375
0 0.1 0.65 0.00375
0.183123 0.1 -0.625 0.00376937
0.183123 0.1 0.625 0.00376935
0.641767 0.1 -0.125 0.0037337
0.641767 0.1 0.125 0.00373367
0.517261 0.1 -0.4 0.00374193
0.517261 0.1 0.4 0.00374187
0.593635 0.1 -0.275 0.00373617
0.593635 0.1 0.275 0.00373611
0.0760811 0.1 -0.65 0.00375949
0.0760811 0.1 0.65 0.00375947
0.314865 0.1 -0.575 0.00376204
0.314866 0.1 0.575 0.00376198
0.543125 0.1 -0.375 0.00374
0.543125 0.1 0.375 0.00373993
0.283499 0.1 -0.6 0.00376484
0.283499 0.1 0.6 0.00376479
0.641766 0.1 -0.175 0.00373385
0.641766 0.1 0.175 0.00373381
0.665252 0.1 4.66273e-18 0.00373295
0.14858 0.1 -0.65 0.00376685
0.14858 0.1 0.65 0.00376683
0.618281 0.1 -0.25 0.00373474
0.618281 0.1 0.25 0.00373469
0.665252 0.1 -0.05 0.00373297
0.665252 0.1 0.05 0.00373296
0.568989 0.1 -0.35 0.00373794
0.568989 0.1 0.35 0.00373787
0 0.1 0.670866 0.00375
0 0.1 -0.670866 0.00375
0.665252 0.1 -0.1 0.00373303
0.665252 0.1 0.1 0.003733
0.250582 0.1 -0.625 0.00376809
0.250582 0.1 0.625 0.00376804
0.0380405 0.1 -0.675 0.00375483
0.0380405 0.1 0.675 0.00375482
0.593635 0.1 -0.325 0.00373652
0.593635 0.1 0.325 0.00373646
0 0.1 0.679134 0.00375
0 0.1 -0.679134 0.00375
0.641766 0.1 0.225 0.00373398
0.641766 0.1 -0.225 0.00373403
0.462978 0.1 -0.5 0.00374744
0.462978 0.1 0.5 0.00374737
0.434495 0.1 -0.525 0.00375043
0.434495 0.1 0.525 0.00375036
0.665252 0.1 -0.15 0.00373311
0.665252 0.1 0.15 0.00373307
0.490119 0.1 0.475 0.00374494
0.49012 0.1 -0.475 0.003745
0.406012 0.1 -0.55 0.00375319
0.406012 0.1 0.55 0.00375313
0.112331 0.1 -0.675 0.00376419
0.112331 0.1 0.675 0.00376417
0.217666 0.1 -0.65 0.00376896
0.217666 0.1 0.65 0.00376892
0.517261 0.1 -0.45 0.00374242
0.517261 0.1 0.45 0.00374235
0.376122 0.1 -0.575 0.00375647
0.376122 0.1 0.575 0.00375641
0.618281 0.1 -0.3 0.003735
0.618281 0.1 0.3 0.00373494
0.687632 0.1 -0.025 0.00373306
0.687632 0.1 0.025 0.00373305
0.543125 0.1 -0.425 0.00374043
0.543125 0.1 0.425 0.00374036
0.687632 0.1 -0.075 0.00373307
0.687632 0.1 0.075 0.00373305
0.346232 0.1 -0.6 0.00375942
0.346232 0.1 0.6 0.00375936
0.665252 0.1 -0.2 0.0037332
0.665252 0.1 0.2 0.00373316
0.568989 0.1 -0.4 0.00373831
0.568989 0.1 0.4 0.00373824
0.641767 0.1 -0.275 0.0037342
0.641767 0.1 0.275 0.00373414
0.687632 0.1 -0.125 0.0037331
0.687632 0.1 0.125 0.00373307
0.183123 0.1 -0.675 0.00376966
0.183123 0.1 0.675 0.00376963
0.314866 0.1 -0.625 0.00376289
0.314866 0.1 0.625 0.00376283
0 0.1 -0.7 0.00375
0 0.1 0.7 0.00375
0.593635 0.1 -0.375 0.00373685
0.593635 0.1 0.375 0.00373678
0.0760811 0.1 -0.7 0.00375975
0.0760811 0.1 0.7 0.00375974
0.283499 0.1 -0.65 0.00376567
0.283499 0.1 0.65 0.00376562
0.687632 0.1 0.175 0.00373308
0.687632 0.1 -0.175 0.00373312
0.710013 0.1 1.54443e-17 0.00373294
0.618281 0.1 -0.35 0.00373524
0.618281 0.1 0.35 0.00373517
0.665252 0.1 -0.25 0.00373328
0.665252 0.1 0.25 0.00373323
0.710013 0.1 -0.05 0.00373294
0.710013 0.1 0.05 0.00373292
0.14858 0.1 -0.7 0.00376721
0.14858 0.1 0.7 0.00376719
0.710013 0.1 -0.1 0.00373292
0.710013 0.1 0.1 0.00373289
0.490119 0.1 -0.525 0.00374546
0.490119 0.1 0.525 0.0037454
0.462978 0.1 -0.55 0.00374797
0.462978 0.1 0.55 0.0037479
0.641767 0.1 -0.325 0.00373434
0.641767 0.1 0.325 0.00373427
0.517261 0.1 -0.5 0.00374282
0.517261 0.1 0.5 0.00374275
0.250583 0.1 -0.675 0.00376886
0.250583 0.1 0.675 0.00376881
0.434495 0.1 0.575 0.00375095
0.434495 0.1 -0.575 0.00375102
0 0.1 -0.720866 0.00375
0 0.1 0.720866 0.00375
0.543125 0.1 0.475 0.0037407
0.543125 0.1 -0.475 0.00374076
0.687632 0.1 -0.225 0.00373312
0.687632 0.1 0.225 0.00373307
0.406012 0.1 -0.6 0.00375382
0.406012 0.1 0.6 0.00375376
0.568989 0.1 -0.45 0.00373859
0.568989 0.1 0.45 0.00373852
0.710013 0.1 -0.15 0.00373288
0.710013 0.1 0.15 0.00373285
0.0380405 0.1 -0.725 0.00375489
0.0380405 0.1 0.725 0.00375489
0 0.1 -0.729134 0.00375
0 0.1 0.729134 0.00375
0.376122 0.1 -0.625 0.00375714
0.376122 0.1 0.625 0.00375709
0.665252 0.1 -0.3 0.00373334
0.665252 0.1 0.3 0.00373328
0.593635 0.1 -0.425 0.00373706
0.593635 0.1 0.425 0.00373699
0.731339 0.1 -0.025 0.00373353
0.731339 0.1 0.025 0.00373352
0.217666 0.1 -0.7 0.00376949
0.217666 0.1 0.7 0.00376945
0.112331 0.1 -0.725 0.00376464
0.112331 0.1 0.725 0.00376462
0.731339 0.1 -0.075 0.00373349
0.731339 0.1 0.075 0.00373347
0.618281 0.1 -0.4 0.0037354
0.618281 0.1 0.4 0.00373533
0.346232 0.1 -0.65 0.00376014
0.346232 0.1 0.65 0.00376008
0.710013 0.1 -0.2 0.00373282
0.710013 0.1 0.2 0.00373277
0.687632 0.1 -0.275 0.00373309
0.687632 0.1 0.275 0.00373303
0.731339 0.1 -0.125 0.00373341
0.731339 0.1 0.125 0.00373338
0.641766 0.1 -0.375 0.00373444
0.641766 0.1 0.375 0.00373437
0.314865 0.1 0.675 0.0037636
0.314865 0.1 -0.675 0.00376365
0.183123 0.1 0.725 0.00376991
0.183123 0.1 -0.725 0.00376994
0 0.1 -0.75 0.00375
0 0.1 0.75 0.00375
0.665252 0.1 -0.35 0.00373334
0.665252 0.1 0.35 0.00373327
0.731339 0.1 -0.175 0.00373329
0.731339 0.1 0.175 0.00373325
0.752665 0.1 -5.39078e-18 0.00373385
0.710013 0.1 -0.25 0.0037327
0.710013 0.1 0.25 0.00373265
0.0760811 0.1 -0.75 0.00376002
0.0760811 0.1 0.75 0.00376
0.752665 0.1 -0.05 0.00373382
0.752665 0.1 0.05 0.00373381
0.517261 0.1 -0.55 0.00374314
0.517261 0.1 0.55 0.00374307
0.283499 0.1 -0.7 0.00376645
0.283499 0.1 0.7 0.0037664
0.543125 0.1 -0.525 0.00374101
0.543125 0.1 0.525 0.00374094
0.49012 0.1 -0.575 0.00374586
0.49012 0.1 0.575 0.00374579
0.568989 0.1 -0.5 0.00373876
0.568989 0.1 0.5 0.00373869
0.462978 0.1 -0.6 0.00374842
0.462978 0.1 0.6 0.00374835
0.752665 0.1 -0.1 0.00373372
0.752665 0.1 0.1 0.0037337
0.593635 0.1 -0.475 0.00373716
0.593635 0.1 0.475 0.00373709
0.687632 0.1 -0.325 0.003733
0.687632 0.1 0.325 0.00373294
0.434495 0.1 -0.625 0.00375151
0.434495 0.1 0.625 0.00375145
0.14858 0.1 -0.75 0.00376757
0.14858 0.1 0.75 0.00376755
0.618281 0.1 -0.45 0.00373544
0.618281 0.1 0.45 0.00373537
0.731339 0.1 -0.225 0.00373311
0.731339 0.1 0.225 0.00373306
0.406012 0.1 -0.65 0.00375437
0.406012 0.1 0.65 0.00375431
0.250582 0.1 0.725 0.00376957
0.250582 0.1 -0.725 0.00376961
0.752665 0.1 -0.15 0.00373356
0.752665 0.1 0.15 0.00373352
0.641767 0.1 -0.425 0.00373442
0.641767 0.1 0.425 0.00373435
0.710013 0.1 -0.3 0.00373253
0.710013 0.1 0.3 0.00373246
0 0.1 0.770866 0.00375
0 0.1 -0.770866 0.00375
0.376122 0.1 -0.675 0.00375775
0.376122 0.1 0.675 0.00375769
0.772987 0.1 -0.025 0.0037349
0.772987 0.1 0.025 0.0037349
0.0380405 0.1 0.775 0.00375495
0.0380405 0.1 -0.775 0.00375496
0.665252 0.1 -0.4 0.00373326
0.665252 0.1 0.4 0.00373319
0.772987 0.1 -0.075 0.00373481
0.772987 0.1 0.075 0.00373479
0.752665 0.1 -0.2 0.00373332
0.752665 0.1 0.2 0.00373327
0 0.1 0.779134 0.00375
0 0.1 -0.779134 0.00375
0.346232 0.1 -0.7 0.00376081
0.346232 0.1 0.7 0.00376075
0.217666 0.1 -0.75 0.00376997
0.217666 0.1 0.75 0.00376993
0.731339 0.1 0.275 0.00373279
0.731339 0.1 -0.275 0.00373285
0.772987 0.1 0.125 0.0037346
0.772987 0.1 -0.125 0.00373463
0.112331 0.1 0.775 0.00376508
0.112331 0.1 -0.775 0.0037651
0.687632 0.1 -0.375 0.00373284
0.687632 0.1 0.375 0.00373276
0.314866 0.1 0.725 0.00376435
0.314866 0.1 -0.725 0.0037644
0.543125 0.1 0.575 0.0037411
0.543125 0.1 -0.575 0.00374117
0.568989 0.1 -0.55 0.00373884
0.568989 0.1 0.55 0.00373877
0.710013 0.1 -0.35 0.00373227
0.710013 0.1 0.35 0.0037322
0.517261 0.1 -0.6 0.00374337
0.517261 0.1 0.6 0.00374331
0.593635 0.1 0.525 0.00373709
0.593635 0.1 -0.525 0.00373716
0.772987 0.1 -0.175 0.00373435
0.772987 0.1 0.175 0.00373431
0.752665 0.1 -0.25 0.003733
0.752665 0.1 0.25 0.00373294
0.79331 0.1 9.25186e-18 0.00373564
0.490119 0.1 -0.625 0.00374616
0.490119 0.1 0.625 0.0037461
0.79331 0.1 -0.05 0.00373558
0.79331 0.1 0.05 0.00373557
0.618281 0.1 -0.5 0.00373536
0.618281 0.1 0.5 0.00373529
0.183123 0.1 -0.775 0.00377019
0.183123 0.1 0.775 0.00377017
0.462978 0.1 -0.65 0.00374879
0.462978 0.1 0.65 0.00374872
0.641766 0.1 -0.475 0.00373426
0.641767 0.1 0.475 0.00373419
0.79331 0.1 -0.1 0.0037354
0.79331 0.1 0.1 0.00373538
0 0.1 -0.8 0.00375
0 0.1 0.8 0.00375
0.731339 0.1 -0.325 0.00373251
0.731339 0.1 0.325 0.00373244
0.283499 0.1 -0.75 0.00376714
0.283499 0.1 0.75 0.0037671
0.434495 0.1 -0.675 0.00375194
0.434495 0.1 0.675 0.00375188
0.665252 0.1 -0.45 0.00373305
0.665252 0.1 0.45 0.00373297
0.0760811 0.1 -0.8 0.00376029
0.0760811 0.1 0.8 0.00376028
0.772987 0.1 -0.225 0.00373397
0.772988 0.1 0.225 0.00373391
0.79331 0.1 -0.15 0.00373511
0.79331 0.1 0.15 0.00373507
0.687632 0.1 -0.425 0.00373258
0.687632 0.1 0.425 0.0037325
0.406012 0.1 -0.7 0.00375487
0.406012 0.1 0.7 0.00375481
0.752665 0.1 -0.3 0.00373257
0.752665 0.1 0.3 0.00373251
0.812675 0.1 -0.025 0.00373713
0.812675 0.1 0.025 0.00373712
0.14858 0.1 -0.8 0.00376793
0.14858 0.1 0.8 0.0037679
0.250582 0.1 0.775 0.00377017
0.250582 0.1 -0.775 0.00377021
0.710013 0.1 -0.4 0.00373192
0.710013 0.1 0.4 0.00373185
0.812675 0.1 -0.075 0.00373698
0.812675 0.1 0.075 0.00373696
0.376122 0.1 -0.725 0.00375831
0.376122 0.1 0.725 0.00375826
0.79331 0.1 -0.2 0.00373469
0.79331 0.1 0.2 0.00373464
0.772987 0.1 -0.275 0.00373347
0.772987 0.1 0.275 0.00373341
0 0.1 -0.820866 0.00375
0 0.1 0.820866 0.00375
0.731339 0.1 -0.375 0.00373206
0.731339 0.1 0.375 0.00373198
0.812675 0.1 -0.125 0.00373669
0.812675 0.1 0.125 0.00373665
0.0380405 0.1 -0.825 0.00375502
0.0380405 0.1 0.825 0.00375501
0.346232 0.1 -0.75 0.00376141
0.346232 0.1 0.75 0.00376136
0.593635 0.1 -0.575 0.00373705
0.593635 0.1 0.575 0.00373698
0.568989 0.1 -0.6 0.00373883
0.568989 0.1 0.6 0.00373876
0.618281 0.1 -0.55 0.00373517
0.618281 0.1 0.55 0.0037351
0.543125 0.1 -0.625 0.00374124
0.543125 0.1 0.625 0.00374117
0.217666 0.1 -0.8 0.00377035
0.217666 0.1 0.8 0.00377032
0 0.1 -0.829134 0.00375
0 0.1 0.829134 0.00375
0.641766 0.1 -0.525 0.00373397
0.641766 0.1 0.525 0.0037339
0.752665 0.1 -0.35 0.00373204
0.752665 0.1 0.35 0.00373196
0.517261 0.1 -0.65 0.00374354
0.517261 0.1 0.65 0.00374347
0.812675 0.1 0.175 0.0037362
0.812675 0.1 -0.175 0.00373625
0.79331 0.1 -0.25 0.00373414
0.79331 0.1 0.25 0.00373408
0.832041 0.1 9.25186e-18 0.00373824
0.665252 0.1 -0.5 0.00373267
0.665252 0.1 0.5 0.0037326
0.112331 0.1 -0.825 0.00376557
0.112331 0.1 0.825 0.00376555
0.832041 0.1 -0.05 0.00373816
0.832041 0.1 0.05 0.00373814
0.49012 0.1 0.675 0.00374634
0.49012 0.1 -0.675 0.00374641
0.687632 0.1 -0.475 0.00373212
0.687632 0.1 0.475 0.00373204
0.314866 0.1 0.775 0.00376496
0.314866 0.1 -0.775 0.00376501
0.832041 0.1 -0.1 0.0037379
0.832041 0.1 0.1 0.00373787
0.772987 0.1 -0.325 0.00373285
0.772988 0.1 0.325 0.00373278
0.462978 0.1 -0.7 0.0037491
0.462978 0.1 0.7 0.00374904
0.710013 0.1 -0.45 0.00373142
0.710013 0.1 0.45 0.00373135
0.812675 0.1 -0.225 0.00373566
0.812675 0.1 0.225 0.0037356
0.183123 0.1 -0.825 0.00377042
0.183123 0.1 0.825 0.0037704
0.434495 0.1 0.725 0.00375226
0.434495 0.1 -0.725 0.00375232
0.832041 0.1 -0.15 0.00373746
0.832041 0.1 0.15 0.00373742
0.731339 0.1 -0.425 0.00373151
0.731339 0.1 0.425 0.00373143
0.79331 0.1 -0.3 0.00373345
0.79331 0.1 0.3 0.00373338
0.283499 0.1 -0.8 0.00376766
0.283499 0.1 0.8 0.00376762
0 0.1 -0.85 0.00375
0 0.1 0.85 0.00375
0.850494 0.1 -0.025 0.00374013
0.850494 0.1 0.025 0.00374012
0.752665 0.1 -0.4 0.00373138
0.752665 0.1 0.4 0.0037313
0.406012 0.1 -0.75 0.00375531
0.406012 0.1 0.75 0.00375525
0.0760811 0.1 -0.85 0.00376058
0.0760811 0.1 0.85 0.00376056
0.850494 0.1 -0.075 0.00373992
0.850494 0.1 0.075 0.0037399
0.832041 0.1 -0.2 0.00373686
0.832041 0.1 0.2 0.00373681
0.812675 0.1 -0.275 0.00373491
0.812675 0.1 0.275 0.00373484
0.772987 0.1 -0.375 0.0037321
0.772987 0.1 0.375 0.00373202
0.850494 0.1 -0.125 0.00373952
0.850494 0.1 0.125 0.00373949
0.376122 0.1 0.775 0.00375873
0.376122 0.1 -0.775 0.00375879
0.618281 0.1 -0.6 0.00373488
0.618281 0.1 0.6 0.00373481
0.641766 0.1 -0.575 0.00373358
0.641766 0.1 0.575 0.0037335
0.593635 0.1 0.625 0.00373679
0.593635 0.1 -0.625 0.00373686
0.250582 0.1 -0.825 0.00377067
0.250582 0.1 0.825 0.00377063
0.14858 0.1 -0.85 0.0037683
0.14858 0.1 0.85 0.00376827
0.665252 0.1 -0.55 0.00373217
0.665252 0.1 0.55 0.0037321
0.568989 0.1 -0.65 0.00373874
0.568989 0.1 0.65 0.00373867
0.687632 0.1 -0.525 0.00373151
0.687632 0.1 0.525 0.00373143
0.543125 0.1 0.675 0.00374118
0.543125 0.1 -0.675 0.00374125
0.79331 0.1 -0.35 0.00373261
0.79331 0.1 0.35 0.00373253
0.850494 0.1 -0.175 0.00373892
0.850494 0.1 0.175 0.00373887
0.710013 0.1 -0.5 0.00373073
0.710013 0.1 0.5 0.00373065
0.832041 0.1 -0.25 0.00373607
0.832041 0.1 0.25 0.00373601
0.868948 0.1 0 0.00374158
0.517261 0.1 -0.7 0.00374365
0.517261 0.1 0.7 0.00374358
0.868948 0.1 -0.05 0.00374146
0.868948 0.1 0.05 0.00374145
0 0.1 -0.870866 0.00375
0 0.1 0.870866 0.00375
0.346232 0.1 -0.8 0.00376187
0.346232 0.1 0.8 0.00376182
0.731339 0.1 -0.475 0.00373075
0.731339 0.1 0.475 0.00373066
0.868948 0.1 -0.1 0.00374112
0.868948 0.1 0.1 0.00374109
0.49012 0.1 -0.725 0.00374661
0.49012 0.1 0.725 0.00374655
0.812675 0.1 0.325 0.00373392
0.812675 0.1 -0.325 0.003734
0.0380405 0.1 -0.875 0.00375507
0.0380405 0.1 0.875 0.00375506
0.752665 0.1 -0.45 0.00373057
0.752665 0.1 0.45 0.00373049
0.217666 0.1 -0.85 0.00377068
0.217666 0.1 0.85 0.00377065
0 0.1 -0.879134 0.00375
0 0.1 0.879134 0.00375
0.850494 0.1 -0.225 0.00373812
0.850494 0.1 0.225 0.00373806
0.462978 0.1 -0.75 0.00374939
0.462978 0.1 0.75 0.00374933
0.868948 0.1 -0.15 0.00374055
0.868948 0.1 0.15 0.00374051
0.772987 0.1 -0.425 0.00373122
0.772987 0.1 0.425 0.00373113
0.112331 0.1 -0.875 0.00376609
0.112331 0.1 0.875 0.00376607
0.314866 0.1 -0.825 0.00376539
0.314866 0.1 0.825 0.00376534
0.832041 0.1 -0.3 0.00373511
0.832041 0.1 0.3 0.00373504
0.886533 0.1 -0.025 0.00374381
0.886533 0.1 0.025 0.0037438
0.79331 0.1 -0.4 0.00373163
0.79331 0.1 0.4 0.00373154
0.434495 0.1 -0.775 0.00375266
0.434495 0.1 0.775 0.0037526
0.886533 0.1 -0.075 0.00374354
0.886533 0.1 0.075 0.00374352
0.868948 0.1 -0.2 0.00373975
0.868948 0.1 0.2 0.0037397
0.850494 0.1 0.275 0.00373705
0.850495 0.1 -0.275 0.00373711
0.183123 0.1 0.875 0.00377066
0.183123 0.1 -0.875 0.00377068
0.812676 0.1 -0.375 0.00373292
0.812676 0.1 0.375 0.00373284
0.886533 0.1 -0.125 0.00374303
0.886533 0.1 0.125 0.00374299
0.641766 0.1 -0.625 0.00373308
0.641766 0.1 0.625 0.00373301
0.665252 0.1 -0.6 0.00373157
0.665252 0.1 0.6 0.00373149
0.283499 0.1 -0.85 0.00376805
0.283499 0.1 0.85 0.00376801
0.687632 0.1 0.575 0.0037307
0.687632 0.1 -0.575 0.00373078
0.618281 0.1 -0.65 0.00373451
0.618281 0.1 0.65 0.00373443
0.406012 0.1 -0.8 0.00375569
0.406012 0.1 0.8 0.00375563
0.710013 0.1 -0.55 0.00372989
0.710013 0.1 0.55 0.00372981
0.593635 0.1 0.675 0.00373653
0.593635 0.1 -0.675 0.0037366
0 0.1 -0.9 0.00375
0 0.1 0.9 0.00375
0.731339 0.1 0.525 0.00372971
0.731339 0.1 -0.525 0.00372979
0.568989 0.1 -0.7 0.00373862
0.568989 0.1 0.7 0.00373854
0.832041 0.1 -0.35 0.00373396
0.832041 0.1 0.35 0.00373389
0.0760811 0.1 -0.9 0.00376086
0.0760811 0.1 0.9 0.00376085
0.752665 0.1 -0.5 0.00372955
0.752665 0.1 0.5 0.00372947
0.886533 0.1 -0.175 0.00374226
0.886533 0.1 0.175 0.00374222
0.904118 0.1 9.25186e-18 0.00374557
0.868948 0.1 -0.25 0.00373874
0.868948 0.1 0.25 0.00373868
0.904118 0.1 -0.05 0.00374542
0.904118 0.1 0.05 0.00374541
0.543125 0.1 -0.725 0.00374124
0.543125 0.1 0.725 0.00374117
0.376122 0.1 -0.825 0.00375914
0.376122 0.1 0.825 0.00375909
0.772987 0.1 0.475 0.00373005
0.772987 0.1 -0.475 0.00373013
0.904118 0.1 -0.1 0.00374499
0.904118 0.1 0.1 0.00374496
0.250582 0.1 0.875 0.00377102
0.250582 0.1 -0.875 0.00377106
0.850494 0.1 -0.325 0.0037359
0.850494 0.1 0.325 0.00373583
0.517261 0.1 -0.75 0.00374375
0.517261 0.1 0.75 0.00374368
0.79331 0.1 -0.45 0.00373049
0.79331 0.1 0.45 0.0037304
0.14858 0.1 -0.9 0.00376869
0.14858 0.1 0.9 0.00376866
0.886533 0.1 -0.225 0.00374125
0.886533 0.1 0.225 0.0037412
0.904118 0.1 -0.15 0.00374429
0.904118 0.1 0.15 0.00374425
0.490119 0.1 0.775 0.00374673
0.49012 0.1 -0.775 0.0037468
0.812675 0.1 -0.425 0.00373168
0.812675 0.1 0.425 0.00373159
0.346232 0.1 -0.85 0.00376221
0.346232 0.1 0.85 0.00376216
0.868948 0.1 -0.3 0.0037375
0.868948 0.1 0.3 0.00373743
0 0.1 0.920866 0.00375
0 0.1 -0.920866 0.00375
0.920875 0.1 0.025 0.00374809
0.920875 0.1 -0.025 0.0037481
0.832041 0.1 -0.4 0.00373263
0.832041 0.1 0.4 0.00373254