# nutMean  POINT_DATA 129309
# x  y  z  nutMean
0 0.1 0 0.00375318
0 0.1 -0.0208665 0.00375043
0 0.1 0.0208665 0.00375035
0 0.1 -0.0291335 0.00375077
0 0.1 0.0291335 0.00375067
0.0380405 0.1 -0.025 0.00855407
0.0380405 0.1 0.025 0.00855422
0 0.1 -0.05 0.00375507
0 0.1 0.05 0.003755
0 0.1 -0.0708665 0.00375382
0 0.1 0.0708665 0.00375376
0.0760811 0.1 0 0.00851593
0 0.1 -0.0791335 0.00375413
0 0.1 0.0791335 0.00375408
0.0380405 0.1 -0.075 0.00854609
0.0380405 0.1 0.075 0.00854701
0.0760811 0.1 -0.05 0.0084889
0.0760811 0.1 0.05 0.00849005
0 0.1 -0.1 0.00375672
0 0.1 0.1 0.00375669
0.112331 0.1 -0.025 0.00794102
0.112331 0.1 0.025 0.00794285
0 0.1 -0.120866 0.00375367
0 0.1 0.120866 0.00375367
0.0760811 0.1 -0.1 0.00846774
0.0760811 0.1 0.1 0.00846763
0 0.1 -0.129134 0.00375382
0 0.1 0.129134 0.00375382
0.0380405 0.1 0.125 0.00850843
0.0380405 0.1 -0.125 0.00850604
0.112331 0.1 -0.075 0.00785799
0.112331 0.1 0.075 0.00785969
0.14858 0.1 0 0.006894
0 0.1 -0.15 0.00375731
0 0.1 0.15 0.00375729
0.14858 0.1 -0.05 0.0068694
0.14858 0.1 0.05 0.00687087
0.112331 0.1 0.125 0.0079093
0.112331 0.1 -0.125 0.00791428
0.0760811 0.1 -0.15 0.00845986
0.0760811 0.1 0.15 0.00845927
0 0.1 -0.170866 0.00375501
0 0.1 0.170866 0.00375499
0.0380405 0.1 0.175 0.00844843
0.0380405 0.1 -0.175 0.00844488
0.14858 0.1 -0.1 0.00685559
0.14858 0.1 0.1 0.00685526
0 0.1 -0.179134 0.00375541
0 0.1 0.179134 0.00375539
0.183123 0.1 0.025 0.00588645
0.183123 0.1 -0.025 0.00588672
0.183123 0.1 -0.075 0.00588825
0.183123 0.1 0.075 0.00589108
0 0.1 -0.2 0.00375928
0 0.1 0.2 0.00375926
0.112331 0.1 -0.175 0.00793348
0.112331 0.1 0.175 0.00792972
0.14858 0.1 -0.15 0.00686758
0.14858 0.1 0.15 0.00686518
0.0760811 0.1 -0.2 0.00841137
0.0760811 0.1 0.2 0.00841231
0.217666 0.1 0 0.00753003
0 0.1 -0.220866 0.00375724
0 0.1 0.220866 0.00375723
0.183123 0.1 -0.125 0.00586117
0.183123 0.1 0.125 0.00586141
0.217666 0.1 -0.05 0.00755318
0.217666 0.1 0.05 0.00755142
0.0380405 0.1 0.225 0.0083685
0.0380405 0.1 -0.225 0.00836412
0 0.1 -0.229134 0.00375768
0 0.1 0.229134 0.00375767
0.217666 0.1 -0.1 0.00764087
0.217666 0.1 0.1 0.0076378
0.14858 0.1 -0.2 0.006853
0.14858 0.1 0.2 0.00685146
0 0.1 -0.25 0.00376143
0 0.1 0.25 0.00376143
0.112331 0.1 -0.225 0.00789215
0.112331 0.1 0.225 0.00789036
0.250582 0.1 -0.025 0.0093916
0.250582 0.1 0.025 0.00939011
0.183123 0.1 -0.175 0.00584202
0.183123 0.1 0.175 0.00584206
0.0760811 0.1 -0.25 0.0083278
0.0760811 0.1 0.25 0.00833011
0.250582 0.1 -0.075 0.00947988
0.250582 0.1 0.075 0.00947192
0.217666 0.1 -0.15 0.00768301
0.217666 0.1 0.15 0.00768477
0 0.1 -0.270866 0.00375917
0 0.1 0.270866 0.0037592
0.0380405 0.1 -0.275 0.00827249
0.0380405 0.1 0.275 0.00827746
0 0.1 -0.279134 0.0037595
0 0.1 0.279134 0.00375953
0.250582 0.1 0.125 0.00974718
0.250583 0.1 -0.125 0.00975261
0.283499 0.1 0 0.0083212
0.283499 0.1 -0.05 0.00834318
0.283499 0.1 0.05 0.00834104
0.183123 0.1 -0.225 0.00581079
0.183123 0.1 0.225 0.00581098
0.14858 0.1 -0.25 0.00681025
0.14858 0.1 0.25 0.00680946
0.217666 0.1 -0.2 0.00757037
0.217666 0.1 0.2 0.00757896
0.112331 0.1 0.275 0.00781435
0.112331 0.1 -0.275 0.00781467
0 0.1 -0.3 0.00376292
0 0.1 0.3 0.00376299
0.283499 0.1 -0.1 0.00843014
0.283499 0.1 0.1 0.00842701
0.250583 0.1 -0.175 0.00963994
0.250583 0.1 0.175 0.00965678
0.0760811 0.1 -0.3 0.00822601
0.0760811 0.1 0.3 0.00822916
0.314865 0.1 -0.025 0.00744505
0.314866 0.1 0.025 0.00744532
0.283499 0.1 -0.15 0.00846302
0.283499 0.1 0.15 0.00846631
0 0.1 -0.320866 0.00376023
0 0.1 0.320866 0.00376033
0.314866 0.1 -0.075 0.00744367
0.314866 0.1 0.075 0.00744393
0.0380405 0.1 0.325 0.00817878
0.0380405 0.1 -0.325 0.00817346
0 0.1 -0.329134 0.00376043
0 0.1 0.329134 0.00376053
0.183123 0.1 -0.275 0.00577499
0.183123 0.1 0.275 0.00577434
0.217666 0.1 -0.25 0.00733061
0.217666 0.1 0.25 0.00734072
0.14858 0.1 -0.3 0.00677497
0.14858 0.1 0.3 0.00677385
0.250582 0.1 -0.225 0.00923719
0.250583 0.1 0.225 0.00926092
0.314865 0.1 -0.125 0.00742756
0.314865 0.1 0.125 0.00742965
0.112331 0.1 -0.325 0.00773511
0.112331 0.1 0.325 0.00773524
0.346232 0.1 2.31665e-17 0.00708836
0.283499 0.1 -0.2 0.008325
0.283499 0.1 0.2 0.00833577
0.346232 0.1 -0.05 0.00708504
0.346232 0.1 0.05 0.0070856
0 0.1 -0.35 0.00376359
0 0.1 0.35 0.00376372
0.0760811 0.1 -0.35 0.00811746
0.0760811 0.1 0.35 0.00812119
0.314865 0.1 0.175 0.00737146
0.314866 0.1 -0.175 0.00736669
0.346232 0.1 -0.1 0.00707309
0.346232 0.1 0.1 0.00707427
0.217666 0.1 -0.3 0.00704892
0.217666 0.1 0.3 0.00705837
0 0.1 -0.370866 0.00376052
0 0.1 0.370866 0.00376069
0.250582 0.1 0.275 0.00859865
0.250583 0.1 -0.275 0.00857428
0.183123 0.1 -0.325 0.00582614
0.183123 0.1 0.325 0.00582217
0.0380405 0.1 -0.375 0.00806885
0.0380405 0.1 0.375 0.00807444
0.376122 0.1 -0.025 0.00678787
0.376122 0.1 0.025 0.0067883
0.346232 0.1 -0.15 0.00704741
0.346232 0.1 0.15 0.00704965
0.283499 0.1 -0.25 0.00805316
0.283499 0.1 0.25 0.00806566
0 0.1 -0.379134 0.00376057
0 0.1 0.379134 0.00376076
0.14858 0.1 -0.35 0.00677978
0.14858 0.1 0.35 0.00677813
0.376122 0.1 -0.075 0.00677766
0.376122 0.1 0.075 0.00677875
0.314866 0.1 -0.225 0.0072611
0.314866 0.1 0.225 0.00726661
0.112331 0.1 -0.375 0.00766129
0.112331 0.1 0.375 0.00766267
0.376122 0.1 0.125 0.00675627
0.376122 0.1 -0.125 0.00675466
0.346232 0.1 -0.2 0.00700473
0.346232 0.1 0.2 0.00700778
0 0.1 -0.4 0.00376335
0 0.1 0.4 0.00376356
0.406012 0.1 1.85037e-17 0.00649716
0.0760811 0.1 -0.4 0.00800821
0.0760811 0.1 0.4 0.00801249
0.406012 0.1 -0.05 0.0064936
0.406012 0.1 0.05 0.0064943
0.250582 0.1 0.325 0.00790467
0.250582 0.1 -0.325 0.00788114
0.217666 0.1 -0.35 0.00678404
0.217666 0.1 0.35 0.00679261
0.283499 0.1 -0.3 0.00772585
0.283499 0.1 0.3 0.00773821
0.376122 0.1 -0.175 0.00673216
0.376122 0.1 0.175 0.00673402
0.183123 0.1 -0.375 0.00597207
0.183123 0.1 0.375 0.00596712
0.314866 0.1 -0.275 0.00713864
0.314866 0.1 0.275 0.00714374
0.406012 0.1 -0.1 0.00648379
0.406012 0.1 0.1 0.00648495
0 0.1 -0.420866 0.00375982
0 0.1 0.420866 0.00376006
0.0380405 0.1 -0.425 0.00796015
0.0380405 0.1 0.425 0.00796574
0.14858 0.1 -0.4 0.00682639
0.14858 0.1 0.4 0.00682531
0.346232 0.1 -0.25 0.00695171
0.346232 0.1 0.25 0.00695474
0 0.1 -0.429134 0.00375958
0 0.1 0.429134 0.00375984
0.406012 0.1 -0.15 0.0064737
0.406012 0.1 0.15 0.00647506
0.434495 0.1 -0.025 0.00619614
0.434495 0.1 0.025 0.00619649
0.376122 0.1 -0.225 0.00670852
0.376122 0.1 0.225 0.00671057
0.112331 0.1 -0.425 0.00758723
0.112331 0.1 0.425 0.00758988
0.434495 0.1 -0.075 0.00619258
0.434495 0.1 0.075 0.00619346
0 0.1 -0.45 0.00376155
0 0.1 0.45 0.00376187
0.283499 0.1 -0.35 0.00739041
0.283499 0.1 0.35 0.00740249
0.250582 0.1 0.375 0.00715223
0.250582 0.1 -0.375 0.0071313
0.434495 0.1 -0.125 0.00618803
0.434495 0.1 0.125 0.00618917
0.314866 0.1 -0.325 0.00704338
0.314866 0.1 0.325 0.00704719
0.406012 0.1 -0.2 0.0064681
0.406012 0.1 0.2 0.00646959
0.217666 0.1 -0.4 0.00654337
0.217666 0.1 0.4 0.0065501
0.0760811 0.1 -0.45 0.00789677
0.0760811 0.1 0.45 0.00790177
0.346232 0.1 -0.3 0.00691114
0.346232 0.1 0.3 0.00691357
0.183123 0.1 -0.425 0.00618904
0.183123 0.1 0.425 0.00618532
0.462978 0.1 2.62258e-17 0.00588667
0.462978 0.1 -0.05 0.00588662
0.462978 0.1 0.05 0.00588713
0.376122 0.1 -0.275 0.0066885
0.376122 0.1 0.275 0.00669007
0.434495 0.1 -0.175 0.00619184
0.434495 0.1 0.175 0.00619292
0 0.1 -0.470866 0.00375715
0 0.1 0.470866 0.00375752
0.462978 0.1 -0.1 0.00588799
0.462978 0.1 0.1 0.00588884
0.14858 0.1 -0.45 0.00688276
0.14858 0.1 0.45 0.00688291
0.0380405 0.1 0.475 0.00785937
0.0380405 0.1 -0.475 0.00785377
0.406012 0.1 -0.25 0.00646726
0.406012 0.1 0.25 0.00646873
0 0.1 -0.479134 0.00375657
0 0.1 0.479134 0.00375696
0.462978 0.1 -0.15 0.00589507
0.462978 0.1 0.15 0.00589602
0.112331 0.1 -0.475 0.00748626
0.112331 0.1 0.475 0.00749106
0.434495 0.1 0.225 0.00620433
0.434495 0.1 -0.225 0.00620314
0.314866 0.1 0.375 0.00699154
0.314866 0.1 -0.375 0.00698823
0.283499 0.1 -0.4 0.00705413
0.283499 0.1 0.4 0.00706425
0.490119 0.1 -0.025 0.00557337
0.490119 0.1 0.025 0.00557357
0.346232 0.1 -0.35 0.00690182
0.346232 0.1 0.35 0.00690378
0.250582 0.1 -0.425 0.00648064
0.250582 0.1 0.425 0.00649184
0.490119 0.1 0.075 0.0055775
0.490119 0.1 -0.075 0.00557692
0.376122 0.1 -0.325 0.00669548
0.376122 0.1 0.325 0.0066965
0.217666 0.1 -0.45 0.00637737
0.217666 0.1 0.45 0.00638147
0 0.1 -0.5 0.00375798
0 0.1 0.5 0.00375839
0.462978 0.1 -0.2 0.00591045
0.462978 0.1 0.2 0.00591149
0.406012 0.1 -0.3 0.00647822
0.406012 0.1 0.3 0.00647943
0.0760811 0.1 -0.5 0.00777274
0.0760811 0.1 0.5 0.00777842
0.490119 0.1 -0.125 0.00558582
0.490119 0.1 0.125 0.0055866
0.183123 0.1 -0.475 0.0063829
0.183123 0.1 0.475 0.00637993
0.434495 0.1 -0.275 0.00622383
0.434495 0.1 0.275 0.00622499
0.517261 0.1 -7.72214e-18 0.00527448
0.517261 0.1 -0.05 0.00527726
0.517261 0.1 0.05 0.00527759
0.490119 0.1 -0.175 0.00560399
0.490119 0.1 0.175 0.0056048
0 0.1 -0.520866 0.00375305
0 0.1 0.520866 0.00375348
0.14858 0.1 -0.5 0.00691037
0.14858 0.1 0.5 0.0069116
0.462978 0.1 -0.25 0.00593449
0.462978 0.1 0.25 0.00593561
0.0380405 0.1 -0.525 0.00775298
0.0380405 0.1 0.525 0.00775844
0.517261 0.1 -0.1 0.00528638
0.517261 0.1 0.1 0.00528696
0.314866 0.1 -0.425 0.00695626
0.314866 0.1 0.425 0.00695899
0.346232 0.1 -0.4 0.00691948
0.346232 0.1 0.4 0.00692133
0 0.1 -0.529134 0.00375231
0 0.1 0.529134 0.00375274
0.376122 0.1 -0.375 0.00673689
0.376122 0.1 0.375 0.00673772
0.283499 0.1 -0.45 0.00678583
0.283499 0.1 0.45 0.00679291
0.406012 0.1 -0.35 0.00651214
0.406012 0.1 0.35 0.00651315
0.112331 0.1 -0.525 0.00733687
0.112331 0.1 0.525 0.00734251
0.250582 0.1 -0.475 0.00611988
0.250583 0.1 0.475 0.00612616
0.517261 0.1 -0.15 0.00530364
0.517261 0.1 0.15 0.00530435
0.490119 0.1 -0.225 0.00563049
0.490119 0.1 0.225 0.0056315
0.434495 0.1 0.325 0.00625625
0.434495 0.1 -0.325 0.00625523
0.543125 0.1 -0.025 0.00498242
0.543125 0.1 0.025 0.00498255
0.217666 0.1 -0.5 0.00630221
0.217666 0.1 0.5 0.00630409
0.543125 0.1 -0.075 0.00499003
0.543125 0.1 0.075 0.00499044
0 0.1 -0.55 0.00375362
0 0.1 0.55 0.00375407
0.462978 0.1 -0.3 0.00596552
0.462978 0.1 0.3 0.00596682
0.517261 0.1 -0.2 0.0053301
0.517261 0.1 0.2 0.00533093
0.0760811 0.1 -0.55 0.00763509
0.0760811 0.1 0.55 0.00764119
0.183123 0.1 0.525 0.00654207
0.183123 0.1 -0.525 0.00654419
0.543125 0.1 0.125 0.00500629
0.543125 0.1 -0.125 0.00500573
0.490119 0.1 0.275 0.00566824
0.490119 0.1 -0.275 0.00566725
0.376122 0.1 -0.425 0.00680051
0.376122 0.1 0.425 0.00680148
0.346232 0.1 -0.45 0.00694998
0.346232 0.1 0.45 0.00695208
0.568989 0.1 0 0.00471362
0.14858 0.1 -0.55 0.00691316
0.14858 0.1 0.55 0.00691521
0.314866 0.1 -0.475 0.00694434
0.314866 0.1 0.475 0.00694694
0.406012 0.1 -0.4 0.00657055
0.406012 0.1 0.4 0.00657153
0.543125 0.1 -0.175 0.00503097
0.543125 0.1 0.175 0.00503167
0 0.1 0.570866 0.00374916
0 0.1 -0.570866 0.0037487
0.568989 0.1 -0.05 0.00471787
0.568989 0.1 0.05 0.00471809
0.434495 0.1 0.375 0.00631186
0.434495 0.1 -0.375 0.00631092
0.517261 0.1 -0.25 0.00536595
0.517261 0.1 0.25 0.00536688
0.283499 0.1 -0.5 0.00662513
0.283499 0.1 0.5 0.00662957
0.0380405 0.1 0.575 0.00766291
0.0380406 0.1 -0.575 0.00765751
0.568989 0.1 -0.1 0.00473081
0.568989 0.1 0.1 0.00473121
0 0.1 -0.579134 0.00374795
0 0.1 0.579134 0.00374841
0.462978 0.1 -0.35 0.00601114
0.462978 0.1 0.35 0.00601243
0.250582 0.1 -0.525 0.00597603
0.250582 0.1 0.525 0.00597792
0.112331 0.1 -0.575 0.00716571
0.112331 0.1 0.575 0.0071724
0.543125 0.1 -0.225 0.00506579
0.543125 0.1 0.225 0.00506658
0.490119 0.1 -0.325 0.0057051
0.490119 0.1 0.325 0.00570689
0.568989 0.1 -0.15 0.00475293
0.568989 0.1 0.15 0.00475347
0.217666 0.1 -0.55 0.00630355
0.217666 0.1 0.55 0.00630401
0.593635 0.1 -0.025 0.00445542
0.593635 0.1 0.025 0.00445549
0.517261 0.1 -0.3 0.00540925
0.517261 0.1 0.3 0.00541043
0.593635 0.1 -0.075 0.00446481
0.593635 0.1 0.075 0.00446508
0 0.1 -0.6 0.00374928
0 0.1 0.6 0.00374976
0.568989 0.1 -0.2 0.00478489
0.568989 0.1 0.2 0.00478554
0.183123 0.1 -0.575 0.00669984
0.183123 0.1 0.575 0.00669851
0.0760811 0.1 -0.6 0.00749243
0.0760811 0.1 0.6 0.00749856
0.376122 0.1 -0.475 0.00686851
0.376122 0.1 0.475 0.00687032
0.406012 0.1 -0.45 0.0066438
0.406012 0.1 0.45 0.00664512
0.593635 0.1 -0.125 0.00448347
0.593635 0.1 0.125 0.00448384
0.434495 0.1 -0.425 0.00638495
0.434495 0.1 0.425 0.00638597
0.346232 0.1 -0.5 0.00698588
0.346232 0.1 0.5 0.00698811
0.543125 0.1 -0.275 0.00510992
0.543125 0.1 0.275 0.00511083
0.462978 0.1 -0.4 0.00607731
0.462978 0.1 0.4 0.00607831
0.314866 0.1 -0.525 0.00695889
0.314866 0.1 0.525 0.00696058
0.490119 0.1 -0.375 0.00576772
0.490119 0.1 0.375 0.00576883
0.14858 0.1 -0.6 0.00690574
0.14858 0.1 0.6 0.00690799
0.618281 0.1 7.72214e-18 0.00422262
0.283499 0.1 -0.55 0.00655326
0.283499 0.1 0.55 0.00655586
0.593635 0.1 0.175 0.0045124
0.593635 0.1 -0.175 0.00451188
0.618281 0.1 -0.05 0.00422746
0.618281 0.1 0.05 0.0042276
0 0.1 -0.620866 0.0037445
0 0.1 0.620866 0.00374498
0.568989 0.1 -0.25 0.00482639
0.568989 0.1 0.25 0.00482718
0.517261 0.1 -0.35 0.00546294
0.517261 0.1 0.35 0.00546416
0.0380405 0.1 -0.625 0.00756815
0.0380405 0.1 0.625 0.0075733
0.618281 0.1 -0.1 0.00424191
0.618281 0.1 0.1 0.00424218
0.250582 0.1 0.575 0.00593752
0.250583 0.1 -0.575 0.00593662
0 0.1 -0.629134 0.00374374
0 0.1 0.629134 0.00374423
0.543125 0.1 -0.325 0.00516418
0.543125 0.1 0.325 0.00516514
0.593635 0.1 -0.225 0.00455056
0.593635 0.1 0.225 0.00455117
0.112331 0.1 -0.625 0.00698415
0.112331 0.1 0.625 0.00699024
0.618281 0.1 -0.15 0.00426595
0.618281 0.1 0.15 0.00426633
0.217666 0.1 -0.6 0.00635293
0.217666 0.1 0.6 0.00635276
0.641766 0.1 -0.025 0.00400067
0.641766 0.1 0.025 0.00400071
0.568989 0.1 -0.3 0.00487828
0.568989 0.1 0.3 0.0048791
0.434495 0.1 -0.475 0.00647067
0.434495 0.1 0.475 0.00647209
0.406012 0.1 -0.5 0.00672079
0.406012 0.1 0.5 0.00672254
0.462978 0.1 -0.45 0.00615917
0.462978 0.1 0.45 0.0061602
0.376122 0.1 -0.525 0.00693088
0.376122 0.1 0.525 0.00693295
0.641766 0.1 -0.075 0.00401064
0.641766 0.1 0.075 0.00401082
0.490119 0.1 0.425 0.00584522
0.490119 0.1 -0.425 0.00584438
0.618281 0.1 -0.2 0.00430001
0.618281 0.1 0.2 0.00430051
0.346232 0.1 -0.55 0.00702404
0.346232 0.1 0.55 0.00702635
0 0.1 -0.65 0.00374495
0 0.1 0.65 0.00374546
0.183123 0.1 -0.625 0.00684402
0.183123 0.1 0.625 0.00684251
0.641767 0.1 -0.125 0.0040302
0.641767 0.1 0.125 0.00403044
0.517261 0.1 -0.4 0.00553198
0.517261 0.1 0.4 0.00553291
0.593635 0.1 -0.275 0.00459831
0.593635 0.1 0.275 0.00459913
0.0760811 0.1 -0.65 0.00735485
0.0760811 0.1 0.65 0.00736068
0.314865 0.1 -0.575 0.00698876
0.314866 0.1 0.575 0.00699069
0.543125 0.1 -0.375 0.00522501
0.543125 0.1 0.375 0.00522594
0.283499 0.1 -0.6 0.00653583
0.283499 0.1 0.6 0.00653772
0.641766 0.1 -0.175 0.00405952
0.641766 0.1 0.175 0.0040599
0.665252 0.1 4.66273e-18 0.00380161
0.14858 0.1 -0.65 0.00689684
0.14858 0.1 0.65 0.00689967
0.618281 0.1 -0.25 0.00434385
0.618281 0.1 0.25 0.00434448
0.665252 0.1 -0.05 0.0038066
0.665252 0.1 0.05 0.00380668
0.568989 0.1 -0.35 0.00493703
0.568989 0.1 0.35 0.00493806
0 0.1 0.670866 0.00374065
0 0.1 -0.670866 0.00374013
0.665252 0.1 -0.1 0.00382134
0.665252 0.1 0.1 0.00382151
0.250582 0.1 -0.625 0.00593904
0.250582 0.1 0.625 0.00593926
0.0380405 0.1 -0.675 0.00748718
0.0380405 0.1 0.675 0.00749192
0.593635 0.1 -0.325 0.0046584
0.593635 0.1 0.325 0.00465904
0 0.1 0.679134 0.00373985
0 0.1 -0.679134 0.00373934
0.641766 0.1 0.225 0.00409946
0.641766 0.1 -0.225 0.00409899
0.462978 0.1 -0.5 0.00625276
0.462978 0.1 0.5 0.006254
0.434495 0.1 -0.525 0.0065581
0.434495 0.1 0.525 0.00655974
0.665252 0.1 -0.15 0.00384568
0.665252 0.1 0.15 0.00384592
0.490119 0.1 0.475 0.00593818
0.49012 0.1 -0.475 0.00593729
0.406012 0.1 -0.55 0.00679285
0.406012 0.1 0.55 0.00679496
0.112331 0.1 -0.675 0.00681765
0.112331 0.1 0.675 0.00682395
0.217666 0.1 -0.65 0.00642555
0.217666 0.1 0.65 0.00642551
0.517261 0.1 -0.45 0.00561662
0.517261 0.1 0.45 0.00561745
0.376122 0.1 -0.575 0.00698535
0.376122 0.1 0.575 0.00698797
0.618281 0.1 -0.3 0.00439825
0.618281 0.1 0.3 0.00439894
0.687632 0.1 -0.025 0.00361245
0.687632 0.1 0.025 0.00361246
0.543125 0.1 -0.425 0.00530205
0.543125 0.1 0.425 0.00530288
0.687632 0.1 -0.075 0.00362239
0.687632 0.1 0.075 0.00362249
0.346232 0.1 -0.6 0.0070652
0.346232 0.1 0.6 0.00706767
0.665252 0.1 -0.2 0.00387983
0.665252 0.1 0.2 0.00388018
0.568989 0.1 -0.4 0.00500674
0.568989 0.1 0.4 0.00500781
0.641767 0.1 -0.275 0.00414815
0.641767 0.1 0.275 0.00414878
0.687632 0.1 -0.125 0.00364178
0.687632 0.1 0.125 0.00364192
0.183123 0.1 -0.675 0.0069877
0.183123 0.1 0.675 0.00698907
0.314866 0.1 -0.625 0.00703006
0.314866 0.1 0.625 0.00703178
0 0.1 -0.7 0.00374045
0 0.1 0.7 0.00374098
0.593635 0.1 -0.375 0.00471849
0.593635 0.1 0.375 0.00472004
0.0760811 0.1 -0.7 0.00722644
0.0760811 0.1 0.7 0.00723224
0.283499 0.1 -0.65 0.00655134
0.283499 0.1 0.65 0.00655247
0.687632 0.1 0.175 0.003671
0.687632 0.1 -0.175 0.00367076
0.710013 0.1 1.54443e-17 0.00344262
0.618281 0.1 -0.35 0.00446082
0.618281 0.1 0.35 0.00446176
0.665252 0.1 -0.25 0.00392387
0.665252 0.1 0.25 0.00392433
0.710013 0.1 -0.05 0.00344751
0.710013 0.1 0.05 0.00344757
0.14858 0.1 -0.7 0.00687568
0.14858 0.1 0.7 0.0068798
0.710013 0.1 -0.1 0.00346194
0.710013 0.1 0.1 0.00346206
0.490119 0.1 -0.525 0.00604255
0.490119 0.1 0.525 0.00604368
0.462978 0.1 -0.55 0.00634993
0.462978 0.1 0.55 0.00635145
0.641767 0.1 -0.325 0.00420801
0.641767 0.1 0.325 0.00420871
0.517261 0.1 -0.5 0.00571613
0.517261 0.1 0.5 0.00571706
0.250583 0.1 -0.675 0.00596763
0.250583 0.1 0.675 0.00596725
0.434495 0.1 0.575 0.00664141
0.434495 0.1 -0.575 0.00663945
0 0.1 -0.720866 0.0037356
0 0.1 0.720866 0.00373613
0.543125 0.1 0.475 0.00539588
0.543125 0.1 -0.475 0.0053951
0.687632 0.1 -0.225 0.00370947
0.687632 0.1 0.225 0.0037098
0.406012 0.1 -0.6 0.00686056
0.406012 0.1 0.6 0.00686297
0.568989 0.1 -0.45 0.00509306
0.568989 0.1 0.45 0.00509385
0.710013 0.1 -0.15 0.0034857
0.710013 0.1 0.15 0.00348588
0.0380405 0.1 -0.725 0.00741708
0.0380405 0.1 0.725 0.00742149
0 0.1 -0.729134 0.00373481
0 0.1 0.729134 0.00373534
0.376122 0.1 -0.625 0.00703948
0.376122 0.1 0.625 0.0070422
0.665252 0.1 -0.3 0.00397786
0.665252 0.1 0.3 0.00397845
0.593635 0.1 -0.425 0.00480024
0.593635 0.1 0.425 0.00480116
0.731339 0.1 -0.025 0.00328151
0.731339 0.1 0.025 0.00328154
0.217666 0.1 -0.7 0.00649699
0.217666 0.1 0.7 0.00649814
0.112331 0.1 -0.725 0.0066512
0.112331 0.1 0.725 0.00665801
0.731339 0.1 -0.075 0.00329112
0.731339 0.1 0.075 0.00329122
0.618281 0.1 -0.4 0.00453245
0.618281 0.1 0.4 0.0045335
0.346232 0.1 -0.65 0.00711564
0.346232 0.1 0.65 0.00711786
0.710013 0.1 -0.2 0.00351891
0.710013 0.1 0.2 0.00351917
0.687632 0.1 -0.275 0.00375812
0.687632 0.1 0.275 0.00375858
0.731339 0.1 -0.125 0.00330984
0.731339 0.1 0.125 0.00330997
0.641766 0.1 -0.375 0.00427793
0.641766 0.1 0.375 0.00427875
0.314865 0.1 0.675 0.00709229
0.314865 0.1 -0.675 0.00709113
0.183123 0.1 0.725 0.00707771
0.183123 0.1 -0.725 0.00707479
0 0.1 -0.75 0.00373609
0 0.1 0.75 0.00373663
0.665252 0.1 -0.35 0.00404277
0.665252 0.1 0.35 0.00404346
0.731339 0.1 -0.175 0.00333776
0.731339 0.1 0.175 0.00333796
0.752665 0.1 -5.39078e-18 0.0031363
0.710013 0.1 -0.25 0.00356177
0.710013 0.1 0.25 0.00356212
0.0760811 0.1 -0.75 0.00710396
0.0760811 0.1 0.75 0.00710965
0.752665 0.1 -0.05 0.00314098
0.752665 0.1 0.05 0.00314105
0.517261 0.1 -0.55 0.00582585
0.517261 0.1 0.55 0.00582698
0.283499 0.1 -0.7 0.00659211
0.283499 0.1 0.7 0.00659275
0.543125 0.1 -0.525 0.00550194
0.543125 0.1 0.525 0.00550287
0.49012 0.1 -0.575 0.00615241
0.49012 0.1 0.575 0.00615382
0.568989 0.1 -0.5 0.00519274
0.568989 0.1 0.5 0.00519353
0.462978 0.1 -0.6 0.00644709
0.462978 0.1 0.6 0.00644885
0.752665 0.1 -0.1 0.00315481
0.752665 0.1 0.1 0.00315492
0.593635 0.1 -0.475 0.00489339
0.593635 0.1 0.475 0.00489405
0.687632 0.1 -0.325 0.00381633
0.687632 0.1 0.325 0.00381691
0.434495 0.1 -0.625 0.00672116
0.434495 0.1 0.625 0.00672322
0.14858 0.1 -0.75 0.00683234
0.14858 0.1 0.75 0.00683704
0.618281 0.1 -0.45 0.00461764
0.618281 0.1 0.45 0.00461842
0.731339 0.1 -0.225 0.00337498
0.731339 0.1 0.225 0.00337525
0.406012 0.1 -0.65 0.0069305
0.406012 0.1 0.65 0.00693306
0.250582 0.1 0.725 0.00600926
0.250582 0.1 -0.725 0.00600837
0.752665 0.1 -0.15 0.00317754
0.752665 0.1 0.15 0.00317771
0.641767 0.1 -0.425 0.004353
0.641767 0.1 0.425 0.00435384
0.710013 0.1 -0.3 0.00361422
0.710013 0.1 0.3 0.00361469
0 0.1 0.770866 0.003732
0 0.1 -0.770866 0.00373146
0.376122 0.1 -0.675 0.00710016
0.376122 0.1 0.675 0.00710269
0.772987 0.1 -0.025 0.00299874
0.772987 0.1 0.025 0.00299877
0.0380405 0.1 0.775 0.00736112
0.0380405 0.1 -0.775 0.00735696
0.665252 0.1 -0.4 0.00411384
0.665252 0.1 0.4 0.00411455
0.772987 0.1 -0.075 0.00300787
0.772987 0.1 0.075 0.00300797
0.752665 0.1 -0.2 0.00320928
0.752665 0.1 0.2 0.00320951
0 0.1 0.779134 0.00373129
0 0.1 -0.779134 0.00373076
0.346232 0.1 -0.7 0.0071798
0.346232 0.1 0.7 0.00718136
0.217666 0.1 -0.75 0.00654161
0.217666 0.1 0.75 0.00654389
0.731339 0.1 0.275 0.00342213
0.731339 0.1 -0.275 0.00342177
0.772987 0.1 0.125 0.0030258
0.772987 0.1 -0.125 0.00302566
0.112331 0.1 0.775 0.00649183
0.112331 0.1 -0.775 0.00648525
0.687632 0.1 -0.375 0.00388699
0.687632 0.1 0.375 0.00388765
0.314866 0.1 0.725 0.00717815
0.314866 0.1 -0.725 0.0071782
0.543125 0.1 0.575 0.00561983
0.543125 0.1 -0.575 0.00561878
0.568989 0.1 -0.55 0.00530464
0.568989 0.1 0.55 0.00530554
0.710013 0.1 -0.35 0.00367739
0.710013 0.1 0.35 0.00367793
0.517261 0.1 -0.6 0.00594178
0.517261 0.1 0.6 0.00594303
0.593635 0.1 0.525 0.00500003
0.593635 0.1 -0.525 0.00499924
0.772987 0.1 -0.175 0.00305216
0.772987 0.1 0.175 0.00305236
0.752665 0.1 -0.25 0.0032502
0.752665 0.1 0.25 0.0032505
0.79331 0.1 9.25186e-18 0.00287423
0.490119 0.1 -0.625 0.00626538
0.490119 0.1 0.625 0.00626695
0.79331 0.1 -0.05 0.00287866
0.79331 0.1 0.05 0.00287872
0.618281 0.1 -0.5 0.00471608
0.618281 0.1 0.5 0.00471681
0.183123 0.1 -0.775 0.00713488
0.183123 0.1 0.775 0.0071385
0.462978 0.1 -0.65 0.00654594
0.462978 0.1 0.65 0.006548
0.641766 0.1 -0.475 0.00444374
0.641767 0.1 0.475 0.00444445
0.79331 0.1 -0.1 0.00289173
0.79331 0.1 0.1 0.00289186
0 0.1 -0.8 0.00373223
0 0.1 0.8 0.00373276
0.731339 0.1 -0.325 0.00347802
0.731339 0.1 0.325 0.0034785
0.283499 0.1 -0.75 0.00665825
0.283499 0.1 0.75 0.0066585
0.434495 0.1 -0.675 0.00680641
0.434495 0.1 0.675 0.00680896
0.665252 0.1 -0.45 0.00419502
0.665252 0.1 0.45 0.00419572
0.0760811 0.1 -0.8 0.00699048
0.0760811 0.1 0.8 0.00699583
0.772987 0.1 -0.225 0.00308751
0.772988 0.1 0.225 0.00308777
0.79331 0.1 -0.15 0.00291323
0.79331 0.1 0.15 0.00291341
0.687632 0.1 -0.425 0.00395616
0.687632 0.1 0.425 0.00395672
0.406012 0.1 -0.7 0.00700374
0.406012 0.1 0.7 0.00700636
0.752665 0.1 -0.3 0.00330046
0.752665 0.1 0.3 0.00330086
0.812675 0.1 -0.025 0.00275646
0.812675 0.1 0.025 0.0027565
0.14858 0.1 -0.8 0.00677133
0.14858 0.1 0.8 0.00677686
0.250582 0.1 0.775 0.0060125
0.250582 0.1 -0.775 0.00601021
0.710013 0.1 -0.4 0.00374761
0.710013 0.1 0.4 0.00374839
0.812675 0.1 -0.075 0.00276506
0.812675 0.1 0.075 0.00276516
0.376122 0.1 -0.725 0.00716775
0.376122 0.1 0.725 0.00716994
0.79331 0.1 -0.2 0.00294325
0.79331 0.1 0.2 0.00294348
0.772987 0.1 -0.275 0.00313186
0.772987 0.1 0.275 0.0031322
0 0.1 -0.820866 0.00372784
0 0.1 0.820866 0.00372836
0.731339 0.1 -0.375 0.00354507
0.731339 0.1 0.375 0.00354552
0.812675 0.1 -0.125 0.00278181
0.812675 0.1 0.125 0.00278198
0.0380405 0.1 -0.825 0.00730983
0.0380405 0.1 0.825 0.00731339
0.346232 0.1 -0.75 0.00727897
0.346232 0.1 0.75 0.00727964
0.593635 0.1 -0.575 0.00511704
0.593635 0.1 0.575 0.00511788
0.568989 0.1 -0.6 0.00542663
0.568989 0.1 0.6 0.00542756
0.618281 0.1 -0.55 0.00482694
0.618281 0.1 0.55 0.00482773
0.543125 0.1 -0.625 0.00574348
0.543125 0.1 0.625 0.00574454
0.217666 0.1 -0.8 0.00654781
0.217666 0.1 0.8 0.00655148
0 0.1 -0.829134 0.00372725
0 0.1 0.829134 0.00372777
0.641766 0.1 -0.525 0.00454782
0.641766 0.1 0.525 0.00454857
0.752665 0.1 -0.35 0.0033605
0.752665 0.1 0.35 0.00336096
0.517261 0.1 -0.65 0.00606251
0.517261 0.1 0.65 0.00606398
0.812675 0.1 0.175 0.00280698
0.812675 0.1 -0.175 0.00280677
0.79331 0.1 -0.25 0.00298194
0.79331 0.1 0.25 0.00298224
0.832041 0.1 9.25186e-18 0.00264919
0.665252 0.1 -0.5 0.00429187
0.665252 0.1 0.5 0.00429259
0.112331 0.1 -0.825 0.00632611
0.112331 0.1 0.825 0.00633267
0.832041 0.1 -0.05 0.00265334
0.832041 0.1 0.05 0.00265341
0.49012 0.1 0.675 0.00637969
0.49012 0.1 -0.675 0.00637771
0.687632 0.1 -0.475 0.00404691
0.687632 0.1 0.475 0.00404763
0.314866 0.1 0.775 0.00733087
0.314866 0.1 -0.775 0.00733329
0.832041 0.1 -0.1 0.0026656
0.832041 0.1 0.1 0.00266573
0.772987 0.1 -0.325 0.00318559
0.772988 0.1 0.325 0.00318602
0.462978 0.1 -0.7 0.00664461
0.462978 0.1 0.7 0.00664698
0.710013 0.1 -0.45 0.00382635
0.710013 0.1 0.45 0.00382724
0.812675 0.1 -0.225 0.00284009
0.812675 0.1 0.225 0.00284035
0.183123 0.1 -0.825 0.00713818
0.183123 0.1 0.825 0.00714514
0.434495 0.1 0.725 0.00689411
0.434495 0.1 -0.725 0.00689146
0.832041 0.1 -0.15 0.00268576
0.832041 0.1 0.15 0.00268596
0.731339 0.1 -0.425 0.00361929
0.731339 0.1 0.425 0.0036207
0.79331 0.1 -0.3 0.0030296
0.79331 0.1 0.3 0.00302998
0.283499 0.1 -0.8 0.00673394
0.283499 0.1 0.8 0.00673534
0 0.1 -0.85 0.00372911
0 0.1 0.85 0.00372962
0.850494 0.1 -0.025 0.00254793
0.850494 0.1 0.025 0.00254797
0.752665 0.1 -0.4 0.00343022
0.752665 0.1 0.4 0.00343099
0.406012 0.1 -0.75 0.00708243
0.406012 0.1 0.75 0.00708524
0.0760811 0.1 -0.85 0.00688462
0.0760811 0.1 0.85 0.00688991
0.850494 0.1 -0.075 0.00255596
0.850494 0.1 0.075 0.00255605
0.832041 0.1 -0.2 0.00271395
0.832041 0.1 0.2 0.00271418
0.812675 0.1 -0.275 0.00288188
0.812675 0.1 0.275 0.00288222
0.772987 0.1 -0.375 0.00324873
0.772987 0.1 0.375 0.00324922
0.850494 0.1 -0.125 0.0025716
0.850494 0.1 0.125 0.00257178
0.376122 0.1 0.775 0.00725775
0.376122 0.1 -0.775 0.00725509
0.618281 0.1 -0.6 0.00494911
0.618281 0.1 0.6 0.00494989
0.641766 0.1 -0.575 0.00466355
0.641766 0.1 0.575 0.00466433
0.593635 0.1 0.625 0.0052458
0.593635 0.1 -0.625 0.00524498
0.250582 0.1 -0.825 0.00596601
0.250582 0.1 0.825 0.00596942
0.14858 0.1 -0.85 0.00664805
0.14858 0.1 0.85 0.00665541
0.665252 0.1 -0.55 0.00440019
0.665252 0.1 0.55 0.00440094
0.568989 0.1 -0.65 0.00555729
0.568989 0.1 0.65 0.00555834
0.687632 0.1 -0.525 0.00414819
0.687632 0.1 0.525 0.0041489
0.543125 0.1 0.675 0.00587635
0.543125 0.1 -0.675 0.005875
0.79331 0.1 -0.35 0.00308635
0.79331 0.1 0.35 0.00308681
0.850494 0.1 -0.175 0.00259494
0.850494 0.1 0.175 0.00259515
0.710013 0.1 -0.5 0.00391887
0.710013 0.1 0.5 0.00391961
0.832041 0.1 -0.25 0.00275028
0.832041 0.1 0.25 0.00275058
0.868948 0.1 0 0.00245561
0.517261 0.1 -0.7 0.00618504
0.517261 0.1 0.7 0.0061868
0.868948 0.1 -0.05 0.00245949
0.868948 0.1 0.05 0.00245955
0 0.1 -0.870866 0.00372513
0 0.1 0.870866 0.00372563
0.346232 0.1 -0.8 0.00740354
0.346232 0.1 0.8 0.00740544
0.731339 0.1 -0.475 0.00370095
0.731339 0.1 0.475 0.00370176
0.868948 0.1 -0.1 0.00247093
0.868948 0.1 0.1 0.00247105
0.49012 0.1 -0.725 0.00648506
0.49012 0.1 0.725 0.00648721
0.812675 0.1 0.325 0.00293314
0.812675 0.1 -0.325 0.00293272
0.0380405 0.1 -0.875 0.00728077
0.0380405 0.1 0.875 0.00728389
0.752665 0.1 -0.45 0.0035065
0.752665 0.1 0.45 0.00350737
0.217666 0.1 -0.85 0.00648299
0.217666 0.1 0.85 0.00648821
0 0.1 -0.879134 0.00372471
0 0.1 0.879134 0.00372521
0.850494 0.1 -0.225 0.0026261
0.850494 0.1 0.225 0.00262638
0.462978 0.1 -0.75 0.00674116
0.462978 0.1 0.75 0.00674377
0.868948 0.1 -0.15 0.00248976
0.868948 0.1 0.15 0.00248995
0.772987 0.1 -0.425 0.00332261
0.772987 0.1 0.425 0.00332332
0.112331 0.1 -0.875 0.00614696
0.112331 0.1 0.875 0.00615455
0.314866 0.1 -0.825 0.0075896
0.314866 0.1 0.825 0.00758695
0.832041 0.1 -0.3 0.00279514
0.832041 0.1 0.3 0.00279551
0.886533 0.1 -0.025 0.0023687
0.886533 0.1 0.025 0.00236874
0.79331 0.1 -0.4 0.00315338
0.79331 0.1 0.4 0.00315396
0.434495 0.1 -0.775 0.0069796
0.434495 0.1 0.775 0.00698267
0.886533 0.1 -0.075 0.00237621
0.886533 0.1 0.075 0.00237628
0.868948 0.1 -0.2 0.00251609
0.868948 0.1 0.2 0.00251633
0.850494 0.1 0.275 0.00266561
0.850495 0.1 -0.275 0.00266527
0.183123 0.1 0.875 0.00693975
0.183123 0.1 -0.875 0.00693019
0.812676 0.1 -0.375 0.00299223
0.812676 0.1 0.375 0.00299274
0.886533 0.1 -0.125 0.00239079
0.886533 0.1 0.125 0.00239095
0.641766 0.1 -0.625 0.0047906
0.641766 0.1 0.625 0.00479131
0.665252 0.1 -0.6 0.00451989
0.665252 0.1 0.6 0.00452062
0.283499 0.1 -0.85 0.00675592
0.283499 0.1 0.85 0.00676128
0.687632 0.1 0.575 0.00426122
0.687632 0.1 -0.575 0.00426046
0.618281 0.1 -0.65 0.00508169
0.618281 0.1 0.65 0.00508253
0.406012 0.1 -0.8 0.00716084
0.406012 0.1 0.8 0.00716432
0.710013 0.1 -0.55 0.00402332
0.710013 0.1 0.55 0.00402406
0.593635 0.1 0.675 0.00538323
0.593635 0.1 -0.675 0.00538219
0 0.1 -0.9 0.00372704
0 0.1 0.9 0.00372755
0.731339 0.1 0.525 0.00379793
0.731339 0.1 -0.525 0.00379722
0.568989 0.1 -0.7 0.00569428
0.568989 0.1 0.7 0.00569558
0.832041 0.1 -0.35 0.00284857
0.832041 0.1 0.35 0.00284903
0.0760811 0.1 -0.9 0.00677926
0.0760811 0.1 0.9 0.00678431
0.752665 0.1 -0.5 0.00359255
0.752665 0.1 0.5 0.00359322
0.886533 0.1 -0.175 0.00241258
0.886533 0.1 0.175 0.00241278
0.904118 0.1 9.25186e-18 0.00228888
0.868948 0.1 -0.25 0.0025501
0.868948 0.1 0.25 0.00255041
0.904118 0.1 -0.05 0.00229248
0.904118 0.1 0.05 0.00229254
0.543125 0.1 -0.725 0.00600919
0.543125 0.1 0.725 0.00601079
0.376122 0.1 -0.825 0.00731967
0.376122 0.1 0.825 0.00732437
0.772987 0.1 0.475 0.00339896
0.772987 0.1 -0.475 0.00339845
0.904118 0.1 -0.1 0.00230313
0.904118 0.1 0.1 0.00230324
0.250582 0.1 0.875 0.00590648
0.250582 0.1 -0.875 0.00590354
0.850494 0.1 -0.325 0.00271296
0.850494 0.1 0.325 0.00271335
0.517261 0.1 -0.75 0.0063062
0.517261 0.1 0.75 0.00630817
0.79331 0.1 -0.45 0.00322556
0.79331 0.1 0.45 0.00322615
0.14858 0.1 -0.9 0.00644752
0.14858 0.1 0.9 0.00645564
0.886533 0.1 -0.225 0.00244168
0.886533 0.1 0.225 0.00244196
0.904118 0.1 -0.15 0.00232064
0.904118 0.1 0.15 0.00232082
0.490119 0.1 0.775 0.00659248
0.49012 0.1 -0.775 0.00659007