# nutMean  POINT_DATA 128349
# x  y  z  nutMean
0 0.5 1.2073e-17 0.0167466
0 0.5 -0.0163116 0.016748
0 0.5 0.0163116 0.0167494
0 0.5 -0.0336884 0.0167296
0 0.5 0.0336884 0.0167333
0.0380405 0.5 0.025 0.0220313
0.0380405 0.5 -0.025 0.0220277
0 0.5 0.05 0.0166994
0 0.5 -0.05 0.0166927
0 0.5 -0.0663116 0.01666
0 0.5 0.0663116 0.0166695
0.0760811 0.5 1.2073e-17 0.0213561
0 0.5 -0.0836884 0.0166009
0 0.5 0.0836884 0.0166131
0.0380405 0.5 0.075 0.021938
0.0380405 0.5 -0.075 0.0219236
0.0760811 0.5 0.05 0.0213087
0.0760811 0.5 -0.05 0.0213003
0 0.5 0.1 0.0165341
0 0.5 -0.1 0.0165199
0.112331 0.5 0.025 0.0194909
0.112331 0.5 -0.025 0.0194872
0 0.5 -0.116312 0.0164429
0 0.5 0.116312 0.0164592
0.0760811 0.5 0.1 0.0211225
0.0760811 0.5 -0.1 0.0211053
0.0380405 0.5 0.125 0.0216406
0.0380405 0.5 -0.125 0.021618
0 0.5 -0.133688 0.0163451
0 0.5 0.133688 0.0163633
0.112331 0.5 0.075 0.0193836
0.112331 0.5 -0.075 0.0193727
0.14858 0.5 1.2073e-17 0.0178985
0 0.5 0.15 0.0162536
0 0.5 -0.15 0.0162336
0.14858 0.5 0.05 0.0178612
0.14858 0.5 -0.05 0.0178554
0 0.5 -0.166312 0.0161261
0 0.5 0.166312 0.0161478
0.112331 0.5 0.125 0.0191612
0.112331 0.5 -0.125 0.0191432
0.0760811 0.5 0.15 0.0207963
0.0760811 0.5 -0.15 0.0207721
0.0380405 0.5 0.175 0.0212203
0.0380405 0.5 -0.175 0.021191
0.14858 0.5 0.1 0.0177367
0.14858 0.5 -0.1 0.0177247
0 0.5 -0.183688 0.0160009
0 0.5 0.183688 0.0160241
0.183123 0.5 0.025 0.0164025
0.183123 0.5 -0.025 0.0164005
0.183123 0.5 0.075 0.016354
0.183123 0.5 -0.075 0.0163472
0 0.5 0.2 0.0158921
0 0.5 -0.2 0.0158677
0.112331 0.5 -0.175 0.0188318
0.112331 0.5 0.175 0.0188551
0.14858 0.5 0.15 0.0175322
0.14858 0.5 -0.15 0.0175149
0.0760811 0.5 0.2 0.0203766
0.0760811 0.5 -0.2 0.0203469
0 0.5 0.216312 0.0157639
0 0.5 -0.216312 0.0157382
0.217666 0.5 0 0.0149247
0.183123 0.5 0.125 0.0162364
0.183123 0.5 -0.125 0.0162242
0.217666 0.5 0.05 0.0149117
0.217666 0.5 -0.05 0.0149084
0.0380405 0.5 0.225 0.0207109
0.0380405 0.5 -0.225 0.0206767
0 0.5 -0.233688 0.0155946
0 0.5 0.233688 0.0156213
0.217666 0.5 0.1 0.0148598
0.217666 0.5 -0.1 0.0148526
0.14858 0.5 0.2 0.017269
0.14858 0.5 -0.2 0.0172479
0 0.5 0.25 0.0154758
0 0.5 -0.25 0.0154483
0.112331 0.5 0.225 0.0184798
0.112331 0.5 -0.225 0.0184523
0.250583 0.5 0.025 0.0135158
0.250583 0.5 -0.025 0.0135148
0.183123 0.5 0.175 0.0160659
0.183123 0.5 -0.175 0.0160505
0.0760811 0.5 0.25 0.019889
0.0760811 0.5 -0.25 0.0198554
0.250582 0.5 0.075 0.013503
0.250582 0.5 -0.075 0.0134993
0.217666 0.5 0.15 0.0147652
0.217666 0.5 -0.15 0.0147545
0 0.5 -0.266312 0.0153056
0 0.5 0.266312 0.0153339
0.0380406 0.5 0.275 0.0201462
0.0380405 0.5 -0.275 0.0201088
0.250582 0.5 0.125 0.013464
0.250582 0.5 -0.125 0.0134577
0.283499 0.5 0 0.0122655
0 0.5 0.283688 0.0151811
0 0.5 -0.283688 0.0151521
0.283499 0.5 0.05 0.0122646
0.283499 0.5 -0.05 0.0122629
0.183123 0.5 0.225 0.0158615
0.183123 0.5 -0.225 0.015843
0.14858 0.5 0.25 0.0169614
0.14858 0.5 -0.25 0.0169371
0.217666 0.5 0.2 0.0146411
0.217666 0.5 -0.2 0.0146278
0.112331 0.5 0.275 0.0180577
0.112331 0.5 -0.275 0.0180272
0 0.5 0.3 0.0150299
0 0.5 -0.3 0.0150006
0.283499 0.5 0.1 0.012255
0.283499 0.5 -0.1 0.0122513
0.250582 0.5 0.175 0.0134038
0.250583 0.5 -0.175 0.0133945
0.0760811 0.5 0.3 0.0193623
0.0760811 0.5 -0.3 0.0193261
0.314865 0.5 -0.025 0.0111153
0.314866 0.5 0.025 0.0111158
0 0.5 0.316312 0.0148822
0 0.5 -0.316312 0.0148524
0.283499 0.5 0.15 0.0122332
0.283499 0.5 -0.15 0.0122275
0.314866 0.5 0.075 0.0111198
0.314866 0.5 -0.075 0.0111179
0.0380405 0.5 0.325 0.0195569
0.0380406 0.5 -0.325 0.0195177
0.183123 0.5 0.275 0.0156287
0.183123 0.5 -0.275 0.0156078
0.217666 0.5 0.25 0.0144965
0.217666 0.5 -0.25 0.014481
0 0.5 -0.333688 0.0146963
0 0.5 0.333688 0.0147264
0.14858 0.5 0.3 0.0166237
0.14858 0.5 -0.3 0.0165971
0.250582 0.5 0.225 0.0133295
0.250583 0.5 -0.225 0.0133187
0.314865 0.5 0.125 0.0111209
0.314865 0.5 -0.125 0.0111176
0.112331 0.5 0.325 0.0176103
0.112331 0.5 -0.325 0.0175778
0.346232 0.5 5.64234e-18 0.0101595
0.283499 0.5 0.2 0.012202
0.283499 0.5 -0.2 0.0121947
0.346232 0.5 0.05 0.0101639
0.346232 0.5 -0.05 0.010163
0 0.5 0.35 0.0145759
0 0.5 -0.35 0.0145458
0.0760811 0.5 0.35 0.0188215
0.0760811 0.5 -0.35 0.0187841
0.314865 0.5 0.175 0.0111214
0.314865 0.5 -0.175 0.0111168
0.346232 0.5 0.1 0.0101734
0.346232 0.5 -0.1 0.0101714
0 0.5 -0.366312 0.0143984
0 0.5 0.366312 0.0144287
0.217666 0.5 0.3 0.0143362
0.217666 0.5 -0.3 0.0143188
0.250582 0.5 -0.275 0.0132334
0.250582 0.5 0.275 0.0132459
0.183123 0.5 0.325 0.0153774
0.183123 0.5 -0.325 0.0153547
0.0380405 0.5 0.375 0.0189681
0.0380405 0.5 -0.375 0.0189284
0.376122 0.5 0.025 0.0092956
0.376122 0.5 -0.025 0.0092953
0.346232 0.5 0.15 0.010186
0.346232 0.5 -0.15 0.0101831
0.283499 0.5 0.25 0.0121659
0.283499 0.5 -0.25 0.0121572
0.14858 0.5 0.35 0.0162711
0.14858 0.5 -0.35 0.016243
0.376122 0.5 0.075 0.00930644
0.376122 0.5 -0.075 0.00930542
0 0.5 -0.383688 0.0142455
0 0.5 0.383688 0.0142758
0.314865 0.5 0.225 0.0111173
0.314865 0.5 -0.225 0.0111119
0.112331 0.5 0.375 0.0171566
0.112331 0.5 -0.375 0.0171233
0.376122 0.5 0.125 0.00932439
0.376122 0.5 -0.125 0.00932261
0.346232 0.5 0.2 0.0102018
0.346232 0.5 -0.2 0.0101981
0 0.5 0.4 0.0141309
0 0.5 -0.4 0.0141008
0.406012 0.5 1.85037e-17 0.0085765
0.0760811 0.5 0.4 0.0182872
0.0760811 0.5 -0.4 0.0182495
0.406012 0.5 0.05 0.0085829
0.406012 0.5 -0.05 0.00858241
0.250582 0.5 0.325 0.0131553
0.250583 0.5 -0.325 0.0131414
0.217666 0.5 0.35 0.0141663
0.217666 0.5 -0.35 0.0141475
0.283499 0.5 0.3 0.0121284
0.283499 0.5 -0.3 0.0121183
0.376122 0.5 -0.175 0.00934685
0.376122 0.5 0.175 0.00934929
0 0.5 -0.416312 0.0139589
0 0.5 0.416312 0.0139889
0.183123 0.5 0.375 0.0151177
0.183123 0.5 -0.375 0.0150937
0.314865 0.5 -0.275 0.011112
0.314866 0.5 0.275 0.0111189
0.406012 0.5 0.1 0.00860004
0.406012 0.5 -0.1 0.00859899
0.0380406 0.5 -0.425 0.0183597
0.0380406 0.5 0.425 0.018399
0.14858 0.5 0.4 0.015917
0.14858 0.5 -0.4 0.0158881
0.346232 0.5 0.25 0.0102209
0.346232 0.5 -0.25 0.0102163
0.406012 0.5 0.15 0.00862622
0.406012 0.5 -0.15 0.00862462
0 0.5 -0.433688 0.0138134
0 0.5 0.433688 0.0138432
0.434495 0.5 -0.025 0.00792589
0.434495 0.5 0.025 0.00792605
0.376122 0.5 -0.225 0.00938019
0.376122 0.5 0.225 0.00938328
0.112331 0.5 -0.425 0.0166787
0.112331 0.5 0.425 0.0167121
0.434495 0.5 0.075 0.00793945
0.434495 0.5 -0.075 0.00793889
0 0.5 0.45 0.0137072
0 0.5 -0.45 0.0136777
0.283499 0.5 0.35 0.0120898
0.283499 0.5 -0.35 0.0120786
0.250583 0.5 -0.375 0.013046
0.250583 0.5 0.375 0.0130611
0.434495 0.5 0.125 0.0079639
0.434495 0.5 -0.125 0.00796292
0.314865 0.5 0.325 0.0111229
0.314865 0.5 -0.325 0.011115
0.406012 0.5 0.2 0.00866236
0.406012 0.5 -0.2 0.00866026
0.217666 0.5 0.4 0.0139929
0.217666 0.5 -0.4 0.0139731
0.0760811 0.5 0.45 0.0177748
0.0760811 0.5 -0.45 0.0177376
0.346232 0.5 0.3 0.0102459
0.346232 0.5 -0.3 0.0102403
0.183123 0.5 -0.425 0.0148336
0.183123 0.5 0.425 0.0148583
0.462978 0.5 1.85037e-17 0.00737621
0.462978 0.5 0.05 0.00738327
0.462978 0.5 -0.05 0.00738301
0.376122 0.5 0.275 0.00941967
0.376122 0.5 -0.275 0.00941584
0 0.5 0.466312 0.0135738
0 0.5 -0.466312 0.0135446
0.434495 0.5 -0.175 0.00799764
0.434495 0.5 0.175 0.00799899
0.462978 0.5 0.1 0.00740314
0.462978 0.5 -0.1 0.00740257
0.14858 0.5 0.45 0.0155719
0.14858 0.5 -0.45 0.0155429
0.0380405 0.5 -0.475 0.0178251
0.0380405 0.5 0.475 0.0178634
0.406012 0.5 0.25 0.00870751
0.406012 0.5 -0.25 0.00870487
0 0.5 -0.483688 0.0134094
0 0.5 0.483688 0.0134383
0.462978 0.5 0.15 0.00743456
0.462978 0.5 -0.15 0.00743369
0.112331 0.5 0.475 0.0162885
0.112331 0.5 -0.475 0.0162555
0.434495 0.5 0.225 0.00804557
0.434495 0.5 -0.225 0.00804383
0.314866 0.5 0.375 0.0111306
0.314865 0.5 -0.375 0.0111219
0.283499 0.5 0.4 0.0120522
0.283499 0.5 -0.4 0.0120401
0.490119 0.5 0.025 0.00687613
0.490119 0.5 -0.025 0.00687605
0.346232 0.5 0.35 0.010278
0.346232 0.5 -0.35 0.0102716
0.250582 0.5 -0.425 0.0129505
0.250583 0.5 0.425 0.0129665
0.490119 0.5 0.075 0.00689024
0.49012 0.5 -0.075 0.00688995
0.376122 0.5 0.325 0.00946717
0.376122 0.5 -0.325 0.00946275
0.217666 0.5 0.45 0.0138222
0.217666 0.5 -0.45 0.0138017
0 0.5 0.5 0.0133133
0 0.5 -0.5 0.0132848
0.462978 0.5 0.2 0.0074777
0.462978 0.5 -0.2 0.00747653
0.406012 0.5 0.3 0.00875973
0.406012 0.5 -0.3 0.00875657
0.0760811 0.5 0.5 0.0172955
0.0760811 0.5 -0.5 0.0172593
0.490119 0.5 0.125 0.00691677
0.490119 0.5 -0.125 0.00691625
0.183123 0.5 0.475 0.0146065
0.183123 0.5 -0.475 0.0145815
0.434495 0.5 -0.275 0.00810193
0.434495 0.5 0.275 0.00810409
0 0.5 -0.516312 0.0131625
0 0.5 0.516312 0.0131906
0.517261 0.5 1.2073e-17 0.00644712
0.517261 0.5 0.05 0.00645425
0.517261 0.5 -0.05 0.00645412
0.490119 0.5 0.175 0.00695538
0.490119 0.5 -0.175 0.00695466
0.14858 0.5 0.5 0.0152444
0.14858 0.5 -0.5 0.0152156
0.462978 0.5 0.25 0.00753375
0.462978 0.5 -0.25 0.00753237
0.0380405 0.5 0.525 0.0173699
0.0380405 0.5 -0.525 0.0173331
0.517261 0.5 0.1 0.00647469
0.517261 0.5 -0.1 0.00647439
0.314865 0.5 0.425 0.011143
0.314865 0.5 -0.425 0.0111335
0.346232 0.5 0.4 0.0103168
0.346232 0.5 -0.4 0.0103098
0.376122 0.5 0.375 0.00952385
0.376122 0.5 -0.375 0.00951891
0.283499 0.5 0.45 0.0120181
0.283499 0.5 -0.45 0.0120052
0 0.5 -0.533688 0.0130393
0 0.5 0.533688 0.013067
0.406012 0.5 0.35 0.0088219
0.406012 0.5 -0.35 0.0088183
0.112331 0.5 0.525 0.015894
0.112331 0.5 -0.525 0.0158619
0.250582 0.5 0.475 0.0128765
0.250583 0.5 -0.475 0.01286
0.517261 0.5 0.15 0.00650747
0.517261 0.5 -0.15 0.00650701
0.490119 0.5 0.225 0.00700639
0.490119 0.5 -0.225 0.00700544
0.434495 0.5 0.325 0.00816646
0.434495 0.5 -0.325 0.00816386
0.543125 0.5 -0.025 0.0060548
0.543125 0.5 0.025 0.00605484
0.217666 0.5 0.5 0.0136591
0.217666 0.5 -0.5 0.0136383
0.543125 0.5 -0.075 0.00606866
0.543125 0.5 0.075 0.00606881
0 0.5 0.55 0.0129542
0 0.5 -0.55 0.012927
0.462978 0.5 0.3 0.00759759
0.462978 0.5 -0.3 0.0075954
0.517261 0.5 0.2 0.00655263
0.517261 0.5 -0.2 0.00655199
0.0760811 0.5 0.55 0.0168561
0.0760811 0.5 -0.55 0.0168213
0.183123 0.5 0.525 0.0143683
0.183123 0.5 -0.525 0.0143433
0.543125 0.5 0.125 0.0060954
0.543125 0.5 -0.125 0.00609513
0.490119 0.5 -0.275 0.00706985
0.490119 0.5 0.275 0.00707084
0 0.5 -0.566312 0.0128166
0 0.5 0.566312 0.0128434
0.376122 0.5 0.425 0.00958954
0.376122 0.5 -0.425 0.00958407
0.346232 0.5 0.45 0.0103627
0.346232 0.5 -0.45 0.0103551
0.568989 0.5 1.2073e-17 0.00571332
0.14858 0.5 0.55 0.0149404
0.14858 0.5 -0.55 0.0149122
0.314865 0.5 0.475 0.0111609
0.314865 0.5 -0.475 0.0111508
0.406012 0.5 0.4 0.00889576
0.406012 0.5 -0.4 0.00889174
0.543125 0.5 0.175 0.00613435
0.543125 0.5 -0.175 0.00613396
0.568989 0.5 0.05 0.00572025
0.568989 0.5 -0.05 0.00572019
0.434495 0.5 0.375 0.0082436
0.434495 0.5 -0.375 0.00824067
0.517261 0.5 0.25 0.00661077
0.517261 0.5 -0.25 0.00661005
0.283499 0.5 0.5 0.0119896
0.283499 0.5 -0.5 0.0119762
0.0380405 0.5 0.575 0.0169237
0.0380405 0.5 -0.575 0.0168886
0.568989 0.5 0.1 0.00574029
0.568989 0.5 -0.1 0.00574014
0.462978 0.5 0.35 0.00767131
0.462978 0.5 -0.35 0.00766867
0.250582 0.5 0.525 0.0127934
0.250582 0.5 -0.525 0.0127764
0 0.5 -0.583688 0.0127063
0 0.5 0.583688 0.0127327
0.112331 0.5 0.575 0.0155341
0.112331 0.5 -0.575 0.0155032
0.543125 0.5 0.225 0.00618593
0.543125 0.5 -0.225 0.00618541
0.490119 0.5 0.325 0.00713938
0.490119 0.5 -0.325 0.00713643
0.568989 0.5 0.15 0.00577264
0.568989 0.5 -0.15 0.0057724
0.217666 0.5 0.55 0.0135072
0.217666 0.5 -0.55 0.0134863
0.593635 0.5 0.025 0.00539942
0.593635 0.5 -0.025 0.00539941
0.517261 0.5 0.3 0.00667976
0.517261 0.5 -0.3 0.00667836
0.593635 0.5 0.075 0.00541288
0.593635 0.5 -0.075 0.00541282
0 0.5 0.6 0.0126326
0 0.5 -0.6 0.0126068
0.568989 0.5 0.2 0.00581736
0.568989 0.5 -0.2 0.00581704
0.183123 0.5 0.575 0.0141481
0.183123 0.5 -0.575 0.0141235
0.0760811 0.5 0.6 0.0164608
0.0760811 0.5 -0.6 0.0164277
0.376122 0.5 0.475 0.00966412
0.376122 0.5 -0.475 0.00965818
0.406012 0.5 0.45 0.00897994
0.406012 0.5 -0.45 0.00897552
0.593635 0.5 0.125 0.00543868
0.593635 0.5 -0.125 0.00543855
0.434495 0.5 0.425 0.00833285
0.434495 0.5 -0.425 0.00832967
0.346232 0.5 0.5 0.010416
0.346232 0.5 -0.5 0.0104079
0.543125 0.5 -0.275 0.00624933
0.543125 0.5 0.275 0.00624999
0.462978 0.5 0.4 0.00775991
0.462978 0.5 -0.4 0.0077575
0.314865 0.5 0.525 0.0111852
0.314865 0.5 -0.525 0.0111746
0 0.5 -0.616312 0.0125089
0 0.5 0.616312 0.0125343
0.490119 0.5 0.375 0.00722534
0.490119 0.5 -0.375 0.00722341
0.14858 0.5 0.6 0.0146643
0.14858 0.5 -0.6 0.014637
0.618281 0.5 1.85037e-17 0.00512242
0.283499 0.5 0.55 0.011968
0.283499 0.5 -0.55 0.0119542
0.593635 0.5 0.175 0.00547659
0.593635 0.5 -0.175 0.00547639
0.618281 0.5 0.05 0.00512904
0.618281 0.5 -0.05 0.00512902
0.568989 0.5 0.25 0.0058745
0.568989 0.5 -0.25 0.00587407
0.517261 0.5 0.35 0.00675822
0.517261 0.5 -0.35 0.00675654
0.0380405 0.5 -0.625 0.016494
0.0380405 0.5 0.625 0.0165272
0.618281 0.5 0.1 0.00514828
0.618281 0.5 -0.1 0.00514822
0.250582 0.5 0.575 0.012719
0.250582 0.5 -0.575 0.0127018
0.543125 0.5 0.325 0.00632744
0.543125 0.5 -0.325 0.00632654
0 0.5 -0.633688 0.0124119
0 0.5 0.633688 0.0124367
0.593635 0.5 -0.225 0.00552658
0.593635 0.5 0.225 0.00552683
0.112331 0.5 0.625 0.0152121
0.112331 0.5 -0.625 0.0151825
0.618281 0.5 0.15 0.00517944
0.618281 0.5 -0.15 0.00517933
0.217666 0.5 0.6 0.0133696
0.217666 0.5 -0.6 0.0133488
0.641766 0.5 0.025 0.00486664
0.641766 0.5 -0.025 0.00486665
0.568989 0.5 0.3 0.00594481
0.568989 0.5 -0.3 0.00594436
0.434495 0.5 0.475 0.00843314
0.434495 0.5 -0.475 0.00842964
0.406012 0.5 0.5 0.00907413
0.406012 0.5 -0.5 0.00906933
0.462978 0.5 0.45 0.00786027
0.462978 0.5 -0.45 0.00785767
0.376122 0.5 0.525 0.00974757
0.376122 0.5 -0.525 0.00974121
0.641766 0.5 0.075 0.00487946
0.641766 0.5 -0.075 0.00487944
0.490119 0.5 0.425 0.00732331
0.490119 0.5 -0.425 0.00732145
0.618281 0.5 0.2 0.0052226
0.618281 0.5 -0.2 0.00522245
0.346232 0.5 0.55 0.010477
0.346232 0.5 -0.55 0.0104684
0 0.5 0.65 0.0123495
0 0.5 -0.65 0.0123251
0.183123 0.5 0.625 0.0139494
0.183123 0.5 -0.625 0.0139254
0.641766 0.5 0.125 0.00490409
0.641766 0.5 -0.125 0.00490405
0.517261 0.5 0.4 0.00684956
0.517261 0.5 -0.4 0.0068482
0.593635 0.5 0.275 0.00558928
0.593635 0.5 -0.275 0.00558892
0.0760811 0.5 0.65 0.0161117
0.0760811 0.5 -0.65 0.0160803
0.314865 0.5 0.575 0.0112166
0.314865 0.5 -0.575 0.0112056
0.543125 0.5 0.375 0.00640938
0.543125 0.5 -0.375 0.0064085
0.283499 0.5 0.6 0.0119545
0.283499 0.5 -0.6 0.0119404
0.641766 0.5 0.175 0.00494039
0.641766 0.5 -0.175 0.00494031
0.665252 0.5 0 0.00463835
0 0.5 0.666312 0.0122637
0 0.5 -0.666312 0.0122398
0.14858 0.5 0.65 0.0144187
0.14858 0.5 -0.65 0.0143924
0.618281 0.5 0.25 0.00527782
0.618281 0.5 -0.25 0.00527759
0.665252 0.5 0.05 0.00464462
0.665252 0.5 -0.05 0.00464462
0.568989 0.5 0.35 0.00602529
0.568989 0.5 -0.35 0.00602432
0.665252 0.5 0.1 0.00466289
0.665252 0.5 -0.1 0.00466288
0.250582 0.5 0.625 0.0126554
0.250582 0.5 -0.625 0.012638
0.0380405 0.5 0.675 0.0161809
0.0380405 0.5 -0.675 0.0161496
0.593635 0.5 -0.325 0.00566473
0.593635 0.5 0.325 0.0056649
0.641766 0.5 -0.225 0.00498842
0.641766 0.5 0.225 0.00498852
0.462978 0.5 0.5 0.00797225
0.462978 0.5 -0.5 0.00796941
0.434495 0.5 -0.525 0.00854056
0.434495 0.5 0.525 0.00854436
0.665252 0.5 0.15 0.00469258
0.665252 0.5 -0.15 0.00469254
0.490119 0.5 0.475 0.00743369
0.490119 0.5 -0.475 0.00743162
0.406012 0.5 0.55 0.00917824
0.406012 0.5 -0.55 0.0091731
0 0.5 -0.683688 0.0121559
0 0.5 0.683688 0.0121793
0.112331 0.5 0.675 0.0149296
0.112331 0.5 -0.675 0.0149015
0.217666 0.5 0.65 0.0132486
0.217666 0.5 -0.65 0.0132281
0.517261 0.5 0.45 0.00695491
0.517261 0.5 -0.45 0.00695339
0.376122 0.5 0.575 0.00983991
0.376122 0.5 -0.575 0.00983317
0.618281 0.5 0.3 0.00534547
0.618281 0.5 -0.3 0.00534531
0.687632 0.5 0.025 0.00442672
0.687632 0.5 -0.025 0.00442673
0.543125 0.5 -0.425 0.00650682
0.543125 0.5 0.425 0.00650795
0.687632 0.5 0.075 0.00443884
0.687632 0.5 -0.075 0.00443884
0.346232 0.5 0.6 0.0105459
0.346232 0.5 -0.6 0.010537
0.665252 0.5 0.2 0.00473373
0.665252 0.5 -0.2 0.00473368
0.568989 0.5 0.4 0.00611475
0.568989 0.5 -0.4 0.00611349
0.641766 0.5 -0.275 0.00504841
0.641766 0.5 0.275 0.00504858
0.687632 0.5 0.125 0.00446219
0.687632 0.5 -0.125 0.00446218
0.183123 0.5 0.675 0.0137748
0.183123 0.5 -0.675 0.0137514
0.314865 0.5 -0.625 0.0112442
0.314865 0.5 0.625 0.0112556
0 0.5 0.7 0.0121045
0 0.5 -0.7 0.0120816
0.593635 0.5 0.375 0.00575083
0.593635 0.5 -0.375 0.0057489
0.0760811 0.5 0.7 0.015809
0.0760811 0.5 -0.7 0.0157794
0.283499 0.5 0.65 0.0119504
0.283499 0.5 -0.65 0.0119361
0.687632 0.5 0.175 0.00449667
0.687632 0.5 -0.175 0.00449665
0.710013 0.5 1.2073e-17 0.00423594
0.618281 0.5 0.35 0.00542578
0.618281 0.5 -0.35 0.00542508
0.665252 0.5 0.25 0.00478652
0.665252 0.5 -0.25 0.00478643
0.710013 0.5 0.05 0.00424186
0.710013 0.5 -0.05 0.00424188
0.14858 0.5 0.7 0.0142054
0.14858 0.5 -0.7 0.0141802
0 0.5 -0.716312 0.0120087
0 0.5 0.716312 0.0120311
0.710013 0.5 0.1 0.00425914
0.710013 0.5 -0.1 0.00425915
0.490119 0.5 0.525 0.00755607
0.490119 0.5 -0.525 0.00755381
0.462978 0.5 0.55 0.00809567
0.462978 0.5 -0.55 0.00809259
0.641766 0.5 0.325 0.0051209
0.641766 0.5 -0.325 0.00512077
0.517261 0.5 0.5 0.00707287
0.517261 0.5 -0.5 0.0070712
0.250583 0.5 -0.675 0.0125869
0.250583 0.5 0.675 0.0126042
0.434495 0.5 0.575 0.00866632
0.434495 0.5 -0.575 0.00866224
0.543125 0.5 -0.475 0.00661895
0.543125 0.5 0.475 0.00662015
0.687632 0.5 0.225 0.00454241
0.687632 0.5 -0.225 0.00454238
0.406012 0.5 0.6 0.00929214
0.406012 0.5 -0.6 0.00928667
0.568989 0.5 0.45 0.00621794
0.568989 0.5 -0.45 0.006217
0.710013 0.5 0.15 0.00428725
0.710013 0.5 -0.15 0.00428726
0.0380405 0.5 -0.725 0.0158548
0.0380405 0.5 0.725 0.0158841
0.376122 0.5 0.625 0.0099411
0.376122 0.5 -0.625 0.00993399
0.665252 0.5 0.3 0.00485105
0.665252 0.5 -0.3 0.00485096
0.593635 0.5 0.425 0.00584332
0.593635 0.5 -0.425 0.00584244
0.731339 0.5 -0.025 0.00405852
0.731339 0.5 0.025 0.00405851
0.217666 0.5 0.7 0.0131462
0.217666 0.5 -0.7 0.013126
0.112331 0.5 0.725 0.014687
0.112331 0.5 -0.725 0.0146605
0 0.5 -0.733688 0.0119377
0 0.5 0.733688 0.0119596
0.731339 0.5 0.075 0.00406994
0.731339 0.5 -0.075 0.00406996
0.618281 0.5 0.4 0.00551326
0.618281 0.5 -0.4 0.00551245
0.346232 0.5 0.65 0.0106232
0.346232 0.5 -0.65 0.0106139
0.710013 0.5 0.2 0.00432626
0.710013 0.5 -0.2 0.00432626
0.687632 0.5 -0.275 0.00459961
0.687632 0.5 0.275 0.00459965
0.731339 0.5 0.125 0.004092
0.731339 0.5 -0.125 0.00409202
0.641766 0.5 -0.375 0.00520569
0.641766 0.5 0.375 0.00520609
0.314865 0.5 0.675 0.0113032
0.314865 0.5 -0.675 0.0112916
0.183123 0.5 -0.725 0.0136032
0.183123 0.5 0.725 0.0136257
0 0.5 0.75 0.0118969
0 0.5 -0.75 0.0118755
0.665252 0.5 0.35 0.00492847
0.665252 0.5 -0.35 0.00492841
0.731339 0.5 0.175 0.00412462
0.731339 0.5 -0.175 0.00412464
0.752665 0.5 0 0.0038972
0.710013 0.5 0.25 0.00437636
0.710013 0.5 -0.25 0.00437636
0.0760811 0.5 0.75 0.0155523
0.0760811 0.5 -0.75 0.0155245
0.752665 0.5 0.05 0.00390278
0.752665 0.5 -0.05 0.0039028
0.517261 0.5 0.55 0.00720303
0.517261 0.5 -0.55 0.00720121
0.283499 0.5 0.7 0.0119575
0.283499 0.5 -0.7 0.0119431
0.543125 0.5 0.525 0.00674499
0.543125 0.5 -0.525 0.00674368
0.490119 0.5 -0.575 0.00768782
0.490119 0.5 0.575 0.00769026
0.568989 0.5 0.5 0.00633556
0.568989 0.5 -0.5 0.0063346
0.462978 0.5 0.6 0.00823031
0.462978 0.5 -0.6 0.008227
0.752665 0.5 0.1 0.00391908
0.752665 0.5 -0.1 0.0039191
0.593635 0.5 0.475 0.00595253
0.593635 0.5 -0.475 0.00595187
0.687632 0.5 0.325 0.00466845
0.687632 0.5 -0.325 0.00466839
0.434495 0.5 0.625 0.00879878
0.434495 0.5 -0.625 0.00879443
0.14858 0.5 0.75 0.0140249
0.14858 0.5 -0.75 0.014001
0.618281 0.5 0.45 0.00561137
0.618281 0.5 -0.45 0.00561099
0.731339 0.5 0.225 0.00416791
0.731339 0.5 -0.225 0.00416793
0 0.5 -0.766312 0.0118145
0 0.5 0.766312 0.0118355
0.406012 0.5 0.65 0.00941563
0.406012 0.5 -0.65 0.00940985
0.250582 0.5 0.725 0.012567
0.250583 0.5 -0.725 0.0125499
0.752665 0.5 0.15 0.00394563
0.752665 0.5 -0.15 0.00394566
0.641766 0.5 0.425 0.00529317
0.641766 0.5 -0.425 0.00529324
0.710013 0.5 0.3 0.00443771
0.710013 0.5 -0.3 0.00443769
0.376122 0.5 0.675 0.0100511
0.376122 0.5 -0.675 0.0100436
0.772987 0.5 0.025 0.00374673
0.772987 0.5 -0.025 0.00374675
0.0380405 0.5 0.775 0.0156355
0.0380405 0.5 -0.775 0.0156081
0.665252 0.5 0.4 0.00501261
0.665252 0.5 -0.4 0.00501225
0.772987 0.5 0.075 0.00375752
0.772987 0.5 -0.075 0.00375754
0.752665 0.5 0.2 0.00398252
0.752665 0.5 -0.2 0.00398256
0.346232 0.5 0.7 0.0107096
0.346232 0.5 -0.7 0.0107001
0.217666 0.5 0.75 0.0130637
0.217666 0.5 -0.75 0.0130441
0.731339 0.5 0.275 0.00422212
0.731339 0.5 -0.275 0.00422216
0.772987 0.5 0.125 0.00377833
0.772987 0.5 -0.125 0.00377836
0.112331 0.5 0.775 0.014484
0.112331 0.5 -0.775 0.014459
0.687632 0.5 -0.375 0.0047501
0.687632 0.5 0.375 0.00474995
0 0.5 -0.783688 0.0117559
0 0.5 0.783688 0.0117764
0.314865 0.5 0.725 0.0113619
0.314865 0.5 -0.725 0.0113501
0.543125 0.5 0.575 0.00688219
0.543125 0.5 -0.575 0.00688075
0.568989 0.5 0.55 0.00646588
0.568989 0.5 -0.55 0.00646482
0.710013 0.5 0.35 0.00451092
0.710013 0.5 -0.35 0.00451101
0.517261 0.5 0.6 0.00734525
0.517261 0.5 -0.6 0.00734326
0.593635 0.5 0.525 0.00607541
0.593635 0.5 -0.525 0.00607466
0.772987 0.5 -0.175 0.00380918
0.772988 0.5 0.175 0.00380913
0.752665 0.5 0.25 0.00402991
0.752665 0.5 -0.25 0.00402995
0.79331 0.5 2.13249e-17 0.00360887
0.490119 0.5 0.625 0.0078361
0.490119 0.5 -0.625 0.00783346
0.79331 0.5 0.05 0.00361413
0.79331 0.5 -0.05 0.00361416
0.618281 0.5 0.5 0.00572578
0.618281 0.5 -0.5 0.00572526
0.183123 0.5 0.775 0.0135034
0.183123 0.5 -0.775 0.0134818
0.462978 0.5 0.65 0.00837595
0.462978 0.5 -0.65 0.00837241
0.641766 0.5 0.475 0.00539856
0.641766 0.5 -0.475 0.00539821
0.79331 0.5 0.1 0.00362952
0.79331 0.5 -0.1 0.00362955
0 0.5 0.8 0.0117253
0 0.5 -0.8 0.0117054
0.731339 0.5 -0.325 0.0042875
0.731339 0.5 0.325 0.00428749
0.283499 0.5 0.75 0.0119768
0.283499 0.5 -0.75 0.0119625
0.434495 0.5 -0.675 0.00893685
0.434495 0.5 0.675 0.00894147
0.665252 0.5 0.45 0.00510624
0.665252 0.5 -0.45 0.00510572
0.0760811 0.5 0.8 0.0153402
0.0760811 0.5 -0.8 0.0153142
0.772987 0.5 0.225 0.00385007
0.772987 0.5 -0.225 0.00385012
0.79331 0.5 0.15 0.0036546
0.79331 0.5 -0.15 0.00365464
0.687632 0.5 -0.425 0.00483257
0.687632 0.5 0.425 0.00483389
0.406012 0.5 0.7 0.0095485
0.406012 0.5 -0.7 0.00954244
0.752665 0.5 0.3 0.00408811
0.752665 0.5 -0.3 0.00408815
0.812675 0.5 -0.025 0.00347999
0.812676 0.5 0.025 0.00347997
0.14858 0.5 0.8 0.0138776
0.14858 0.5 -0.8 0.0138549
0.250582 0.5 -0.775 0.0125283
0.250583 0.5 0.775 0.0125452
0.710013 0.5 0.4 0.00459362
0.710013 0.5 -0.4 0.00459325
0.812675 0.5 -0.075 0.00349018
0.812675 0.5 0.075 0.00349015
0 0.5 -0.816312 0.0116559
0 0.5 0.816312 0.0116754
0.376122 0.5 0.725 0.01017
0.376122 0.5 -0.725 0.0101623
0.79331 0.5 0.2 0.00368947
0.79331 0.5 -0.2 0.00368952
0.772987 0.5 0.275 0.00390134
0.772987 0.5 -0.275 0.0039014
0.731339 0.5 0.375 0.00436402
0.731339 0.5 -0.375 0.00436411
0.812675 0.5 -0.125 0.00350985
0.812676 0.5 0.125 0.00350981
0.0380405 0.5 0.825 0.0154333
0.0380406 0.5 -0.825 0.0154078
0.346232 0.5 0.75 0.0108057
0.346232 0.5 -0.75 0.010796
0.593635 0.5 0.575 0.00621078
0.593635 0.5 -0.575 0.00620996
0.568989 0.5 0.6 0.00660863
0.568989 0.5 -0.6 0.00660747
0.618281 0.5 0.55 0.005853
0.618281 0.5 -0.55 0.00585242
0.543125 0.5 0.625 0.00703167
0.543125 0.5 -0.625 0.0070301
0.217666 0.5 0.8 0.0130025
0.217666 0.5 -0.8 0.0129835
0.641766 0.5 0.525 0.00551746
0.641766 0.5 -0.525 0.00551707
0.752665 0.5 0.35 0.0041571
0.752665 0.5 -0.35 0.00415717
0.517261 0.5 0.65 0.00749934
0.517261 0.5 -0.65 0.0074972
0.812675 0.5 0.175 0.00353893
0.812675 0.5 -0.175 0.00353898
0.79331 0.5 0.25 0.0037343
0.79331 0.5 -0.25 0.00373436
0.832041 0.5 2.13249e-17 0.00336119
0.665252 0.5 0.5 0.00521614
0.665252 0.5 -0.5 0.00521583
0.112331 0.5 0.825 0.0143197
0.112331 0.5 -0.825 0.0142963
0.832041 0.5 0.05 0.00336616
0.832041 0.5 -0.05 0.00336619
0 0.5 -0.833688 0.0116092
0 0.5 0.833688 0.0116282
0.490119 0.5 0.675 0.00799331
0.490119 0.5 -0.675 0.00799048
0.687632 0.5 0.475 0.00493416
0.687632 0.5 -0.475 0.00493377
0.314865 0.5 0.775 0.0114308
0.314865 0.5 -0.775 0.0114189
0.832041 0.5 0.1 0.00338069
0.832041 0.5 -0.1 0.00338073
0.772987 0.5 -0.325 0.00396344
0.772988 0.5 0.325 0.00396339
0.462978 0.5 0.7 0.00853224
0.462978 0.5 -0.7 0.00852847
0.710013 0.5 0.45 0.00468372
0.710013 0.5 -0.45 0.00468312
0.812675 0.5 0.225 0.00357767
0.812675 0.5 -0.225 0.00357773
0.183123 0.5 0.825 0.0134085
0.183123 0.5 -0.825 0.0133879
0.434495 0.5 0.725 0.00909404
0.434495 0.5 -0.725 0.00908917
0.832041 0.5 0.15 0.00340439
0.832041 0.5 -0.15 0.00340443
0.731339 0.5 0.425 0.00445209
0.731339 0.5 -0.425 0.00445186
0.79331 0.5 0.3 0.00378946
0.79331 0.5 -0.3 0.00378953
0.283499 0.5 0.8 0.012009
0.283499 0.5 -0.8 0.0119947
0 0.5 0.85 0.0115883
0 0.5 -0.85 0.0115697
0.850494 0.5 -0.025 0.00324988
0.850495 0.5 0.025 0.00324986
0.752665 0.5 0.4 0.00423836
0.752665 0.5 -0.4 0.00423838
0.406012 0.5 0.75 0.00969064
0.406012 0.5 -0.75 0.00968431
0.0760811 0.5 0.85 0.0151713
0.0760811 0.5 -0.85 0.0151471
0.850494 0.5 0.075 0.00325948
0.850494 0.5 -0.075 0.00325951
0.832041 0.5 0.2 0.00343737
0.832041 0.5 -0.2 0.00343743
0.812675 0.5 -0.275 0.00362628
0.812676 0.5 0.275 0.00362621
0.772987 0.5 -0.375 0.00403588
0.772987 0.5 0.375 0.0040358
0.850494 0.5 0.125 0.00327805
0.850494 0.5 -0.125 0.00327809
0.376122 0.5 -0.775 0.0102899
0.376122 0.5 0.775 0.0102978
0.618281 0.5 0.6 0.00599269
0.618281 0.5 -0.6 0.00599204
0.641766 0.5 -0.575 0.0056483
0.641766 0.5 0.575 0.00564873
0.593635 0.5 -0.625 0.00635778
0.593635 0.5 0.625 0.00635869
0.250582 0.5 0.825 0.0125398
0.250583 0.5 -0.825 0.0125233
0.14858 0.5 0.85 0.0137632
0.14858 0.5 -0.85 0.0137418
0.665252 0.5 0.55 0.00533875
0.665252 0.5 -0.55 0.00533846
0.568989 0.5 0.65 0.00676375
0.568989 0.5 -0.65 0.00676248
0.687632 0.5 0.525 0.00504776
0.687632 0.5 -0.525 0.00504758
0 0.5 -0.866312 0.0115312
0 0.5 0.866312 0.0115493
0.543125 0.5 -0.675 0.00719152
0.543125 0.5 0.675 0.00719322
0.79331 0.5 0.35 0.00385483
0.79331 0.5 -0.35 0.00385491
0.850494 0.5 0.175 0.00330558
0.850494 0.5 -0.175 0.00330563
0.710013 0.5 0.5 0.0047861
0.710013 0.5 -0.5 0.00478592
0.832041 0.5 0.25 0.0034798
0.832041 0.5 -0.25 0.00347987
0.868948 0.5 1.2073e-17 0.0031463
0.517261 0.5 0.7 0.00766505
0.517261 0.5 -0.7 0.00766275
0.868948 0.5 0.05 0.003151
0.868948 0.5 -0.05 0.00315102
0.346232 0.5 0.8 0.0109113
0.346232 0.5 -0.8 0.0109014
0.731339 0.5 -0.475 0.00454141
0.731339 0.5 0.475 0.00454156
0.868948 0.5 0.1 0.00316475
0.868948 0.5 -0.1 0.00316479
0.490119 0.5 -0.725 0.00815854
0.490119 0.5 0.725 0.00816156
0.812675 0.5 0.325 0.00368503
0.812676 0.5 -0.325 0.00368512
0.0380405 0.5 0.875 0.0152754
0.0380405 0.5 -0.875 0.0152517
0.752665 0.5 0.45 0.00432398
0.752665 0.5 -0.45 0.00432398
0.217666 0.5 0.85 0.0129633
0.217666 0.5 -0.85 0.0129451
0.850494 0.5 0.225 0.00334224
0.850494 0.5 -0.225 0.0033423
0.462978 0.5 0.75 0.0086989
0.462978 0.5 -0.75 0.00869491
0.868948 0.5 0.15 0.00318719
0.868948 0.5 -0.15 0.00318724
0.772987 0.5 0.425 0.00412124
0.772987 0.5 -0.425 0.00412128
0.112331 0.5 0.875 0.0141932
0.112331 0.5 -0.875 0.0141713
0.314865 0.5 0.825 0.0115105
0.314865 0.5 -0.825 0.0114986
0 0.5 -0.883688 0.0114958
0 0.5 0.883688 0.0115135
0.832041 0.5 0.3 0.00353203
0.832041 0.5 -0.3 0.00353212
0.886533 0.5 0.025 0.0030491
0.886533 0.5 -0.025 0.00304912
0.79331 0.5 0.4 0.00393205
0.79331 0.5 -0.4 0.00393222
0.434495 0.5 -0.775 0.0092512
0.434495 0.5 0.775 0.00925632
0.886533 0.5 0.075 0.00305822
0.886533 0.5 -0.075 0.00305825
0.868948 0.5 0.2 0.00321845
0.868948 0.5 -0.2 0.00321851
0.850494 0.5 -0.275 0.00338828
0.850495 0.5 0.275 0.00338821
0.183123 0.5 0.875 0.0133413
0.183123 0.5 -0.875 0.0133218
0.812675 0.5 -0.375 0.0037539
0.812675 0.5 0.375 0.0037538
0.886533 0.5 0.125 0.00307584
0.886533 0.5 -0.125 0.00307589
0.641766 0.5 0.625 0.00579252
0.641766 0.5 -0.625 0.00579203
0.665252 0.5 0.6 0.00547374
0.665252 0.5 -0.6 0.00547341
0.283499 0.5 0.85 0.0120548
0.283499 0.5 -0.85 0.0120407
0.687632 0.5 -0.575 0.00517379
0.687632 0.5 0.575 0.00517399
0.618281 0.5 0.65 0.00614491
0.618281 0.5 -0.65 0.00614419
0.406012 0.5 0.8 0.00984201
0.406012 0.5 -0.8 0.00983546
0.710013 0.5 0.55 0.00490317
0.710013 0.5 -0.55 0.00490304
0.593635 0.5 0.675 0.00651905
0.593635 0.5 -0.675 0.00651805
0 0.5 0.9 0.0114842
0 0.5 -0.9 0.011467
0.731339 0.5 0.525 0.0046486
0.731339 0.5 -0.525 0.00464852
0.568989 0.5 0.7 0.00693104
0.568989 0.5 -0.7 0.00692966
0.832041 0.5 0.35 0.00359415
0.832041 0.5 -0.35 0.00359424
0.0760811 0.5 0.9 0.015044
0.0760811 0.5 -0.9 0.0150214
0.752665 0.5 0.5 0.00441863
0.752665 0.5 -0.5 0.00441866
0.886533 0.5 0.175 0.00310198
0.886533 0.5 -0.175 0.00310203
0.904118 0.5 2.44417e-17 0.00295873
0.868948 0.5 0.25 0.0032587
0.868948 0.5 -0.25 0.00325877
0.904118 0.5 0.05 0.00296321
0.904118 0.5 -0.05 0.00296323
0.543125 0.5 0.725 0.0073666
0.543125 0.5 -0.725 0.00736476
0.376122 0.5 -0.825 0.0104269
0.376122 0.5 0.825 0.010435
0.772987 0.5 -0.475 0.00420269
0.772987 0.5 0.475 0.00420253
0.904118 0.5 0.1 0.00297629
0.904118 0.5 -0.1 0.00297632
0.250583 0.5 0.875 0.0125521
0.250582 0.5 -0.875 0.0125361
0.850494 0.5 0.325 0.00344392
0.850495 0.5 -0.325 0.00344402
0.517261 0.5 0.75 0.00784212
0.517261 0.5 -0.75 0.00783964
0.79331 0.5 0.45 0.00401483
0.79331 0.5 -0.45 0.00401462
0.14858 0.5 0.9 0.0136812
0.14858 0.5 -0.9 0.0136611
0.886533 0.5 0.225 0.00313682
0.886533 0.5 -0.225 0.00313688
0 0.5 -0.916312 0.0114389
0 0.5 0.916312 0.0114557
0.904118 0.5 0.15 0.00299763
0.904118 0.5 -0.15 0.00299768
0.490119 0.5 -0.775 0.0083374
0.490119 0.5 0.775 0.00834063
0.812676 0.5 0.425 0.00383435
0.812676 0.5 -0.425 0.00383465
0.346232 0.5 0.85 0.0110276
0.346232 0.5 -0.85 0.0110176
0.868948 0.5 0.3 0.00330823
0.868948 0.5 -0.3 0.00330832
0.920875 0.5 -0.025 0.00287321
0.920875 0.5 0.025 0.00287319
0.832041 0.5 0.4 0.00366686
0.832041 0.5 -0.4 0.00366707
0.920875 0.5 0.075 0.00288187
0.920875 0.5 -0.075 0.00288189
0.462978 0.5 0.8 0.00887572
0.462978 0.5 -0.8 0.00887149