# pMean  POINT_DATA 128349
# x  y  z  pMean
0 0.5 1.2073e-17 0.190619
0 0.5 -0.0163116 0.190623
0 0.5 0.0163116 0.190627
0 0.5 -0.0336884 0.19057
0 0.5 0.0336884 0.19058
0.0380405 0.5 0.025 0.19063
0.0380405 0.5 -0.025 0.190623
0 0.5 0.05 0.190482
0 0.5 -0.05 0.190467
0 0.5 -0.0663116 0.190377
0 0.5 0.0663116 0.190396
0.0760811 0.5 1.2073e-17 0.190769
0 0.5 -0.0836884 0.190226
0 0.5 0.0836884 0.19025
0.0380405 0.5 0.075 0.19035
0.0380405 0.5 -0.075 0.190328
0.0760811 0.5 0.05 0.190633
0.0760811 0.5 -0.05 0.190619
0 0.5 0.1 0.190061
0 0.5 -0.1 0.190032
0.112331 0.5 0.025 0.190998
0.112331 0.5 -0.025 0.190991
0 0.5 -0.116312 0.189852
0 0.5 0.116312 0.189885
0.0760811 0.5 0.1 0.190212
0.0760811 0.5 -0.1 0.190183
0.0380405 0.5 0.125 0.18979
0.0380405 0.5 -0.125 0.189754
0 0.5 -0.133688 0.189604
0 0.5 0.133688 0.189643
0.112331 0.5 0.075 0.19072
0.112331 0.5 -0.075 0.190699
0.14858 0.5 1.2073e-17 0.191672
0 0.5 0.15 0.189362
0 0.5 -0.15 0.189319
0.14858 0.5 0.05 0.191535
0.14858 0.5 -0.05 0.19152
0 0.5 -0.166312 0.189047
0 0.5 0.166312 0.189095
0.112331 0.5 0.125 0.190153
0.112331 0.5 -0.125 0.190116
0.0760811 0.5 0.15 0.189509
0.0760811 0.5 -0.15 0.189466
0.0380405 0.5 0.175 0.188951
0.0380405 0.5 -0.175 0.1889
0.14858 0.5 0.1 0.191105
0.14858 0.5 -0.1 0.191076
0 0.5 -0.183688 0.188703
0 0.5 0.183688 0.188756
0.183123 0.5 0.025 0.192456
0.183123 0.5 -0.025 0.192449
0.183123 0.5 0.075 0.192167
0.183123 0.5 -0.075 0.192145
0 0.5 0.2 0.188386
0 0.5 -0.2 0.188329
0.112331 0.5 -0.175 0.189255
0.112331 0.5 0.175 0.189305
0.14858 0.5 0.15 0.190387
0.14858 0.5 -0.15 0.190343
0.0760811 0.5 0.2 0.18853
0.0760811 0.5 -0.2 0.188472
0 0.5 0.216312 0.188029
0 0.5 -0.216312 0.187967
0.217666 0.5 0 0.193541
0.183123 0.5 0.125 0.191582
0.183123 0.5 -0.125 0.191545
0.217666 0.5 0.05 0.193397
0.217666 0.5 -0.05 0.193382
0.0380405 0.5 0.225 0.187838
0.0380405 0.5 -0.225 0.187774
0 0.5 -0.233688 0.18753
0 0.5 0.233688 0.187597
0.217666 0.5 0.1 0.192951
0.217666 0.5 -0.1 0.192921
0.14858 0.5 0.2 0.189387
0.14858 0.5 -0.2 0.189329
0 0.5 0.25 0.187141
0 0.5 -0.25 0.187069
0.112331 0.5 0.225 0.188183
0.112331 0.5 -0.225 0.188118
0.250583 0.5 0.025 0.194696
0.250583 0.5 -0.025 0.194688
0.183123 0.5 0.175 0.190708
0.183123 0.5 -0.175 0.190656
0.0760811 0.5 0.25 0.18728
0.0760811 0.5 -0.25 0.187208
0.250582 0.5 0.075 0.194393
0.250582 0.5 -0.075 0.194371
0.217666 0.5 0.15 0.192205
0.217666 0.5 -0.15 0.19216
0 0.5 -0.266312 0.186621
0 0.5 0.266312 0.186697
0.0380406 0.5 0.275 0.18646
0.0380405 0.5 -0.275 0.186381
0.250582 0.5 0.125 0.193783
0.250582 0.5 -0.125 0.193745
0.283499 0.5 0 0.196165
0 0.5 0.283688 0.186174
0 0.5 -0.283688 0.186093
0.283499 0.5 0.05 0.196013
0.283499 0.5 -0.05 0.195998
0.183123 0.5 0.225 0.18955
0.183123 0.5 -0.225 0.189484
0.14858 0.5 0.25 0.188113
0.14858 0.5 -0.25 0.18804
0.217666 0.5 0.2 0.191167
0.217666 0.5 -0.2 0.191108
0.112331 0.5 0.275 0.186793
0.112331 0.5 -0.275 0.186715
0 0.5 0.3 0.185634
0 0.5 -0.3 0.185549
0.283499 0.5 0.1 0.195544
0.283499 0.5 -0.1 0.195514
0.250582 0.5 0.175 0.19287
0.250583 0.5 -0.175 0.192817
0.0760811 0.5 0.3 0.185768
0.0760811 0.5 -0.3 0.185683
0.314865 0.5 -0.025 0.19768
0.314866 0.5 0.025 0.197688
0 0.5 0.316312 0.185106
0 0.5 -0.316312 0.185016
0.283499 0.5 0.15 0.194762
0.283499 0.5 -0.15 0.194716
0.314866 0.5 0.075 0.197369
0.314866 0.5 -0.075 0.197346
0.0380405 0.5 0.325 0.184824
0.0380406 0.5 -0.325 0.184732
0.183123 0.5 0.275 0.188118
0.183123 0.5 -0.275 0.188038
0.217666 0.5 0.25 0.189844
0.217666 0.5 -0.25 0.18977
0 0.5 -0.333688 0.184402
0 0.5 0.333688 0.184496
0.14858 0.5 0.3 0.186573
0.14858 0.5 -0.3 0.186486
0.250582 0.5 0.225 0.191662
0.250583 0.5 -0.225 0.191594
0.314865 0.5 0.125 0.196726
0.314865 0.5 -0.125 0.196687
0.112331 0.5 0.325 0.185146
0.112331 0.5 -0.325 0.185054
0.346232 0.5 5.64234e-18 0.199497
0.283499 0.5 0.2 0.193673
0.283499 0.5 -0.2 0.193612
0.346232 0.5 0.05 0.199337
0.346232 0.5 -0.05 0.199321
0 0.5 0.35 0.183876
0 0.5 -0.35 0.183777
0.0760811 0.5 0.35 0.184005
0.0760811 0.5 -0.35 0.183906
0.314865 0.5 0.175 0.195763
0.314865 0.5 -0.175 0.195709
0.346232 0.5 0.1 0.198841
0.346232 0.5 -0.1 0.198809
0 0.5 -0.366312 0.183164
0 0.5 0.366312 0.183267
0.217666 0.5 0.3 0.188246
0.217666 0.5 -0.3 0.188158
0.250582 0.5 -0.275 0.190086
0.250582 0.5 0.275 0.190167
0.183123 0.5 0.325 0.186421
0.183123 0.5 -0.325 0.186327
0.0380405 0.5 0.375 0.182943
0.0380405 0.5 -0.375 0.182837
0.376122 0.5 0.025 0.201339
0.376122 0.5 -0.025 0.201331
0.346232 0.5 0.15 0.198014
0.346232 0.5 -0.15 0.197967
0.283499 0.5 0.25 0.192285
0.283499 0.5 -0.25 0.19221
0.14858 0.5 0.35 0.184777
0.14858 0.5 -0.35 0.184677
0.376122 0.5 0.075 0.201001
0.376122 0.5 -0.075 0.200977
0 0.5 -0.383688 0.182466
0 0.5 0.383688 0.182574
0.314865 0.5 0.225 0.19449
0.314865 0.5 -0.225 0.194421
0.112331 0.5 0.375 0.183252
0.112331 0.5 -0.375 0.183147
0.376122 0.5 0.125 0.200319
0.376122 0.5 -0.125 0.200279
0.346232 0.5 0.2 0.196863
0.346232 0.5 -0.2 0.1968
0 0.5 0.4 0.181877
0 0.5 -0.4 0.181765
0.406012 0.5 1.85037e-17 0.203438
0.0760811 0.5 0.4 0.182002
0.0760811 0.5 -0.4 0.181889
0.406012 0.5 0.05 0.203268
0.406012 0.5 -0.05 0.203252
0.250582 0.5 0.325 0.188398
0.250583 0.5 -0.325 0.188302
0.217666 0.5 0.35 0.186385
0.217666 0.5 -0.35 0.186283
0.283499 0.5 0.3 0.19061
0.283499 0.5 -0.3 0.19052
0.376122 0.5 -0.175 0.199243
0.376122 0.5 0.175 0.199299
0 0.5 -0.416312 0.181076
0 0.5 0.416312 0.181192
0.183123 0.5 0.375 0.184471
0.183123 0.5 -0.375 0.184364
0.314865 0.5 -0.275 0.192832
0.314866 0.5 0.275 0.192915
0.406012 0.5 0.1 0.202742
0.406012 0.5 -0.1 0.202709
0.0380406 0.5 -0.425 0.180709
0.0380406 0.5 0.425 0.180827
0.14858 0.5 0.4 0.182738
0.14858 0.5 -0.4 0.182625
0.346232 0.5 0.25 0.195396
0.346232 0.5 -0.25 0.195319
0.406012 0.5 0.15 0.201863
0.406012 0.5 -0.15 0.201815
0 0.5 -0.433688 0.180299
0 0.5 0.433688 0.18042
0.434495 0.5 -0.025 0.205544
0.434495 0.5 0.025 0.205553
0.376122 0.5 -0.225 0.197879
0.376122 0.5 0.225 0.197951
0.112331 0.5 -0.425 0.181004
0.112331 0.5 0.425 0.181123
0.434495 0.5 0.075 0.205193
0.434495 0.5 -0.075 0.205168
0 0.5 0.45 0.179651
0 0.5 -0.45 0.179526
0.283499 0.5 0.35 0.188659
0.283499 0.5 -0.35 0.188554
0.250583 0.5 -0.375 0.186256
0.250583 0.5 0.375 0.186365
0.434495 0.5 0.125 0.204468
0.434495 0.5 -0.125 0.204426
0.314865 0.5 0.325 0.191052
0.314865 0.5 -0.325 0.190954
0.406012 0.5 0.2 0.200641
0.406012 0.5 -0.2 0.200577
0.217666 0.5 0.4 0.184271
0.217666 0.5 -0.4 0.184156
0.0760811 0.5 0.45 0.17977
0.0760811 0.5 -0.45 0.179645
0.346232 0.5 0.3 0.193627
0.346232 0.5 -0.3 0.193534
0.183123 0.5 -0.425 0.18216
0.183123 0.5 0.425 0.182281
0.462978 0.5 1.85037e-17 0.207908
0.462978 0.5 0.05 0.207726
0.462978 0.5 -0.05 0.207709
0.376122 0.5 0.275 0.196284
0.376122 0.5 -0.275 0.196197
0 0.5 0.466312 0.178893
0 0.5 -0.466312 0.178764
0.434495 0.5 -0.175 0.203326
0.434495 0.5 0.175 0.203383
0.462978 0.5 0.1 0.207165
0.462978 0.5 -0.1 0.207131
0.14858 0.5 0.45 0.180468
0.14858 0.5 -0.45 0.180342
0.0380405 0.5 -0.475 0.178359
0.0380405 0.5 0.475 0.17849
0.406012 0.5 0.25 0.199086
0.406012 0.5 -0.25 0.199005
0 0.5 -0.483688 0.177913
0 0.5 0.483688 0.178046
0.462978 0.5 0.15 0.206229
0.462978 0.5 -0.15 0.206179
0.112331 0.5 0.475 0.178772
0.112331 0.5 -0.475 0.17864
0.434495 0.5 0.225 0.201949
0.434495 0.5 -0.225 0.201875
0.314866 0.5 0.375 0.188914
0.314865 0.5 -0.375 0.188801
0.283499 0.5 0.4 0.186446
0.283499 0.5 -0.4 0.186328
0.490119 0.5 0.025 0.210263
0.490119 0.5 -0.025 0.210254
0.346232 0.5 0.35 0.191567
0.346232 0.5 -0.35 0.19146
0.250582 0.5 -0.425 0.183961
0.250583 0.5 0.425 0.184084
0.490119 0.5 0.075 0.209878
0.49012 0.5 -0.075 0.209852
0.376122 0.5 0.325 0.194311
0.376122 0.5 -0.325 0.19421
0.217666 0.5 0.45 0.181921
0.217666 0.5 -0.45 0.181792
0 0.5 0.5 0.177209
0 0.5 -0.5 0.177072
0.462978 0.5 0.2 0.204927
0.462978 0.5 -0.2 0.20486
0.406012 0.5 0.3 0.197209
0.406012 0.5 -0.3 0.197113
0.0760811 0.5 0.5 0.177323
0.0760811 0.5 -0.5 0.177186
0.490119 0.5 0.125 0.209104
0.490119 0.5 -0.125 0.209061
0.183123 0.5 0.475 0.179863
0.183123 0.5 -0.475 0.17973
0.434495 0.5 -0.275 0.200088
0.434495 0.5 0.275 0.200177
0 0.5 -0.516312 0.176242
0 0.5 0.516312 0.176384
0.517261 0.5 1.2073e-17 0.212842
0.517261 0.5 0.05 0.212647
0.517261 0.5 -0.05 0.21263
0.490119 0.5 0.175 0.207947
0.490119 0.5 -0.175 0.207887
0.14858 0.5 0.5 0.17798
0.14858 0.5 -0.5 0.177841
0.462978 0.5 0.25 0.20327
0.462978 0.5 -0.25 0.203187
0.0380405 0.5 0.525 0.175945
0.0380405 0.5 -0.525 0.175802
0.517261 0.5 0.1 0.212047
0.517261 0.5 -0.1 0.212012
0.314865 0.5 0.425 0.186515
0.314865 0.5 -0.425 0.186388
0.346232 0.5 0.4 0.189233
0.346232 0.5 -0.4 0.189111
0.376122 0.5 0.375 0.192049
0.376122 0.5 -0.375 0.191932
0.283499 0.5 0.45 0.183987
0.283499 0.5 -0.45 0.183855
0 0.5 -0.533688 0.175322
0 0.5 0.533688 0.175468
0.406012 0.5 0.35 0.195025
0.406012 0.5 -0.35 0.194914
0.112331 0.5 0.525 0.176212
0.112331 0.5 -0.525 0.176068
0.250582 0.5 0.475 0.181568
0.250583 0.5 -0.475 0.181432
0.517261 0.5 0.15 0.211047
0.517261 0.5 -0.15 0.210995
0.490119 0.5 0.225 0.206417
0.490119 0.5 -0.225 0.206341
0.434495 0.5 0.325 0.198082
0.434495 0.5 -0.325 0.197977
0.543125 0.5 -0.025 0.215398
0.543125 0.5 0.025 0.215407
0.217666 0.5 0.5 0.179347
0.217666 0.5 -0.5 0.179206
0.543125 0.5 -0.075 0.214969
0.543125 0.5 0.075 0.214995
0 0.5 0.55 0.174568
0 0.5 -0.55 0.174418
0.462978 0.5 0.3 0.201272
0.462978 0.5 -0.3 0.201173
0.517261 0.5 0.2 0.209656
0.517261 0.5 -0.2 0.209587
0.0760811 0.5 0.55 0.174676
0.0760811 0.5 -0.55 0.174526
0.183123 0.5 0.525 0.177233
0.183123 0.5 -0.525 0.177087
0.543125 0.5 0.125 0.214167
0.543125 0.5 -0.125 0.214123
0.490119 0.5 -0.275 0.204435
0.490119 0.5 0.275 0.204527
0 0.5 -0.566312 0.173526
0 0.5 0.566312 0.173679
0.376122 0.5 0.425 0.189512
0.376122 0.5 -0.425 0.189382
0.346232 0.5 0.45 0.18664
0.346232 0.5 -0.45 0.186505
0.568989 0.5 1.2073e-17 0.218181
0.14858 0.5 0.55 0.17529
0.14858 0.5 -0.55 0.175139
0.314865 0.5 0.475 0.183873
0.314865 0.5 -0.475 0.183733
0.406012 0.5 0.4 0.19255
0.406012 0.5 -0.4 0.192425
0.543125 0.5 0.175 0.212929
0.543125 0.5 -0.175 0.212868
0.568989 0.5 0.05 0.217972
0.568989 0.5 -0.05 0.217954
0.434495 0.5 0.375 0.195679
0.434495 0.5 -0.375 0.195559
0.517261 0.5 0.25 0.207886
0.517261 0.5 -0.25 0.207801
0.283499 0.5 0.5 0.181297
0.283499 0.5 -0.5 0.181152
0.0380405 0.5 0.575 0.173207
0.0380405 0.5 -0.575 0.173052
0.568989 0.5 0.1 0.217329
0.568989 0.5 -0.1 0.217294
0.462978 0.5 0.35 0.198948
0.462978 0.5 -0.35 0.198834
0.250582 0.5 0.525 0.178834
0.250582 0.5 -0.525 0.178685
0 0.5 -0.583688 0.172541
0 0.5 0.583688 0.172699
0.112331 0.5 0.575 0.173458
0.112331 0.5 -0.575 0.173302
0.543125 0.5 0.225 0.211293
0.543125 0.5 -0.225 0.211214
0.490119 0.5 0.325 0.202293
0.490119 0.5 -0.325 0.202185
0.568989 0.5 0.15 0.216259
0.568989 0.5 -0.15 0.216205
0.217666 0.5 0.55 0.176567
0.217666 0.5 -0.55 0.176413
0.593635 0.5 0.025 0.220928
0.593635 0.5 -0.025 0.220919
0.517261 0.5 0.3 0.205753
0.517261 0.5 -0.3 0.205651
0.593635 0.5 0.075 0.220487
0.593635 0.5 -0.075 0.22046
0 0.5 0.6 0.171741
0 0.5 -0.6 0.17158
0.568989 0.5 0.2 0.21477
0.568989 0.5 -0.2 0.214698
0.183123 0.5 0.575 0.174406
0.183123 0.5 -0.575 0.174248
0.0760811 0.5 0.6 0.171843
0.0760811 0.5 -0.6 0.171681
0.376122 0.5 0.475 0.186721
0.376122 0.5 -0.475 0.186577
0.406012 0.5 0.45 0.189804
0.406012 0.5 -0.45 0.189665
0.593635 0.5 0.125 0.219599
0.593635 0.5 -0.125 0.219553
0.434495 0.5 0.425 0.192987
0.434495 0.5 -0.425 0.192852
0.346232 0.5 0.5 0.183807
0.346232 0.5 -0.5 0.183659
0.543125 0.5 -0.275 0.209176
0.543125 0.5 0.275 0.209272
0.462978 0.5 0.4 0.196317
0.462978 0.5 -0.4 0.196187
0.314865 0.5 0.525 0.181004
0.314865 0.5 -0.525 0.180851
0 0.5 -0.616312 0.170629
0 0.5 0.616312 0.170794
0.490119 0.5 0.375 0.199733
0.490119 0.5 -0.375 0.199609
0.14858 0.5 0.6 0.172412
0.14858 0.5 -0.6 0.172249
0.618281 0.5 1.85037e-17 0.22387
0.283499 0.5 0.55 0.178394
0.283499 0.5 -0.55 0.178236
0.593635 0.5 0.175 0.218273
0.593635 0.5 -0.175 0.218209
0.618281 0.5 0.05 0.223646
0.618281 0.5 -0.05 0.223627
0.568989 0.5 0.25 0.212876
0.568989 0.5 -0.25 0.212787
0.517261 0.5 0.35 0.203274
0.517261 0.5 -0.35 0.203156
0.0380405 0.5 -0.625 0.170124
0.0380405 0.5 0.625 0.170291
0.618281 0.5 0.1 0.222956
0.618281 0.5 -0.1 0.222919
0.250582 0.5 0.575 0.175899
0.250582 0.5 -0.575 0.175737
0.543125 0.5 0.325 0.206886
0.543125 0.5 -0.325 0.206774
0 0.5 -0.633688 0.169585
0 0.5 0.633688 0.169754
0.593635 0.5 -0.225 0.216439
0.593635 0.5 0.225 0.216521
0.112331 0.5 0.625 0.170526
0.112331 0.5 -0.625 0.170359
0.618281 0.5 0.15 0.221809
0.618281 0.5 -0.15 0.221753
0.217666 0.5 0.6 0.173595
0.217666 0.5 -0.6 0.173429
0.641766 0.5 0.025 0.226773
0.641766 0.5 -0.025 0.226763
0.568989 0.5 0.3 0.210594
0.568989 0.5 -0.3 0.210488
0.434495 0.5 0.475 0.190026
0.434495 0.5 -0.475 0.189877
0.406012 0.5 0.5 0.186807
0.406012 0.5 -0.5 0.186653
0.462978 0.5 0.45 0.193399
0.462978 0.5 -0.45 0.193255
0.376122 0.5 0.525 0.183693
0.376122 0.5 -0.525 0.183535
0.641766 0.5 0.075 0.226299
0.641766 0.5 -0.075 0.226271
0.490119 0.5 0.425 0.196868
0.490119 0.5 -0.425 0.196728
0.618281 0.5 0.2 0.220213
0.618281 0.5 -0.2 0.220139
0.346232 0.5 0.55 0.180753
0.346232 0.5 -0.55 0.180591
0 0.5 0.65 0.168744
0 0.5 -0.65 0.168571
0.183123 0.5 0.625 0.171399
0.183123 0.5 -0.625 0.171229
0.641766 0.5 0.125 0.225347
0.641766 0.5 -0.125 0.225299
0.517261 0.5 0.4 0.200469
0.517261 0.5 -0.4 0.200335
0.593635 0.5 0.275 0.214358
0.593635 0.5 -0.275 0.214258
0.0760811 0.5 0.65 0.168839
0.0760811 0.5 -0.65 0.168667
0.314865 0.5 0.575 0.177928
0.314865 0.5 -0.575 0.177763
0.543125 0.5 0.375 0.204154
0.543125 0.5 -0.375 0.204026
0.283499 0.5 0.6 0.175295
0.283499 0.5 -0.6 0.175125
0.641766 0.5 0.175 0.223925
0.641766 0.5 -0.175 0.223859
0.665252 0.5 0 0.229856
0 0.5 0.666312 0.167744
0 0.5 -0.666312 0.167568
0.14858 0.5 0.65 0.169362
0.14858 0.5 -0.65 0.169188
0.618281 0.5 0.25 0.218185
0.618281 0.5 -0.25 0.218092
0.665252 0.5 0.05 0.229615
0.665252 0.5 -0.05 0.229596
0.568989 0.5 0.35 0.207945
0.568989 0.5 -0.35 0.207823
0.665252 0.5 0.1 0.228876
0.665252 0.5 -0.1 0.228837
0.250582 0.5 0.625 0.172779
0.250582 0.5 -0.625 0.172606
0.0380405 0.5 0.675 0.167213
0.0380405 0.5 -0.675 0.167035
0.593635 0.5 -0.325 0.211688
0.593635 0.5 0.325 0.211804
0.641766 0.5 -0.225 0.221962
0.641766 0.5 0.225 0.222047
0.462978 0.5 0.5 0.190216
0.462978 0.5 -0.5 0.190058
0.434495 0.5 -0.525 0.186655
0.434495 0.5 0.525 0.186817
0.665252 0.5 0.15 0.227645
0.665252 0.5 -0.15 0.227587
0.490119 0.5 0.475 0.193718
0.490119 0.5 -0.475 0.193564
0.406012 0.5 0.55 0.183578
0.406012 0.5 -0.55 0.183411
0 0.5 -0.683688 0.166471
0 0.5 0.683688 0.166651
0.112331 0.5 0.675 0.167431
0.112331 0.5 -0.675 0.167253
0.217666 0.5 0.65 0.170449
0.217666 0.5 -0.65 0.170272
0.517261 0.5 0.45 0.197361
0.517261 0.5 -0.45 0.197211
0.376122 0.5 0.575 0.180449
0.376122 0.5 -0.575 0.180279
0.618281 0.5 0.3 0.215742
0.618281 0.5 -0.3 0.215632
0.687632 0.5 0.025 0.23289
0.687632 0.5 -0.025 0.232881
0.543125 0.5 -0.425 0.200952
0.543125 0.5 0.425 0.201097
0.687632 0.5 0.075 0.232382
0.687632 0.5 -0.075 0.232353
0.346232 0.5 0.6 0.177497
0.346232 0.5 -0.6 0.177323
0.665252 0.5 0.2 0.225935
0.665252 0.5 -0.2 0.225858
0.568989 0.5 0.4 0.20495
0.568989 0.5 -0.4 0.204811
0.641766 0.5 -0.275 0.219627
0.641766 0.5 0.275 0.219731
0.687632 0.5 0.125 0.231361
0.687632 0.5 -0.125 0.231311
0.183123 0.5 0.675 0.168226
0.183123 0.5 -0.675 0.168045
0.314865 0.5 -0.625 0.174485
0.314865 0.5 0.625 0.174663
0 0.5 0.7 0.165592
0 0.5 -0.7 0.165409
0.593635 0.5 0.375 0.208884
0.593635 0.5 -0.375 0.208751
0.0760811 0.5 0.7 0.165682
0.0760811 0.5 -0.7 0.165498
0.283499 0.5 0.65 0.172018
0.283499 0.5 -0.65 0.171837
0.687632 0.5 0.175 0.229836
0.687632 0.5 -0.175 0.229767
0.710013 0.5 1.2073e-17 0.236092
0.618281 0.5 0.35 0.212907
0.618281 0.5 -0.35 0.21278
0.665252 0.5 0.25 0.223762
0.665252 0.5 -0.25 0.223666
0.710013 0.5 0.05 0.235834
0.710013 0.5 -0.05 0.235814
0.14858 0.5 0.7 0.166157
0.14858 0.5 -0.7 0.165972
0 0.5 -0.716312 0.164358
0 0.5 0.716312 0.164545
0.710013 0.5 0.1 0.235041
0.710013 0.5 -0.1 0.235001
0.490119 0.5 0.525 0.190309
0.490119 0.5 -0.525 0.19014
0.462978 0.5 0.55 0.186791
0.462978 0.5 -0.55 0.186619
0.641766 0.5 0.325 0.216997
0.641766 0.5 -0.325 0.216876
0.517261 0.5 0.5 0.193973
0.517261 0.5 -0.5 0.193809
0.250583 0.5 -0.675 0.169308
0.250583 0.5 0.675 0.169492
0.434495 0.5 0.575 0.183384
0.434495 0.5 -0.575 0.183208
0.543125 0.5 -0.475 0.19758
0.543125 0.5 0.475 0.19774
0.687632 0.5 0.225 0.227824
0.687632 0.5 -0.225 0.227735
0.406012 0.5 0.6 0.180139
0.406012 0.5 -0.6 0.179959
0.568989 0.5 0.45 0.201633
0.568989 0.5 -0.45 0.201478
0.710013 0.5 0.15 0.233722
0.710013 0.5 -0.15 0.233661
0.0380405 0.5 -0.725 0.1638
0.0380405 0.5 0.725 0.163989
0.376122 0.5 0.625 0.17701
0.376122 0.5 -0.625 0.176828
0.665252 0.5 0.3 0.221146
0.665252 0.5 -0.3 0.221031
0.593635 0.5 0.425 0.205619
0.593635 0.5 -0.425 0.205469
0.731339 0.5 -0.025 0.239224
0.731339 0.5 0.025 0.239235
0.217666 0.5 0.7 0.167146
0.217666 0.5 -0.7 0.166958
0.112331 0.5 0.725 0.16419
0.112331 0.5 -0.725 0.164001
0 0.5 -0.733688 0.163213
0 0.5 0.733688 0.163403
0.731339 0.5 0.075 0.23869
0.731339 0.5 -0.075 0.238659
0.618281 0.5 0.4 0.209706
0.618281 0.5 -0.4 0.209562
0.346232 0.5 0.65 0.174058
0.346232 0.5 -0.65 0.173872
0.710013 0.5 0.2 0.231889
0.710013 0.5 -0.2 0.231809
0.687632 0.5 -0.275 0.225235
0.687632 0.5 0.275 0.225343
0.731339 0.5 0.125 0.237595
0.731339 0.5 -0.125 0.237543
0.641766 0.5 -0.375 0.213734
0.641766 0.5 0.375 0.213873
0.314865 0.5 0.675 0.171227
0.314865 0.5 -0.675 0.171038
0.183123 0.5 -0.725 0.164714
0.183123 0.5 0.725 0.164906
0 0.5 0.75 0.162303
0 0.5 -0.75 0.162109
0.665252 0.5 0.35 0.218112
0.665252 0.5 -0.35 0.21798
0.731339 0.5 0.175 0.235961
0.731339 0.5 -0.175 0.23589
0.752665 0.5 0 0.242533
0.710013 0.5 0.25 0.229561
0.710013 0.5 -0.25 0.229461
0.0760811 0.5 0.75 0.162385
0.0760811 0.5 -0.75 0.162192
0.752665 0.5 0.05 0.242256
0.752665 0.5 -0.05 0.242235
0.517261 0.5 0.55 0.190332
0.517261 0.5 -0.55 0.190153
0.283499 0.5 0.7 0.168583
0.283499 0.5 -0.7 0.16839
0.543125 0.5 0.525 0.19411
0.543125 0.5 -0.525 0.193935
0.490119 0.5 -0.575 0.186482
0.490119 0.5 0.575 0.186664
0.568989 0.5 0.5 0.198022
0.568989 0.5 -0.5 0.197852
0.462978 0.5 0.6 0.183148
0.462978 0.5 -0.6 0.182963
0.752665 0.5 0.1 0.241406
0.752665 0.5 -0.1 0.241364
0.593635 0.5 0.475 0.202036
0.593635 0.5 -0.475 0.201871
0.687632 0.5 0.325 0.222416
0.687632 0.5 -0.325 0.22229
0.434495 0.5 0.625 0.179748
0.434495 0.5 -0.625 0.179559
0.14858 0.5 0.75 0.162813
0.14858 0.5 -0.75 0.162618
0.618281 0.5 0.45 0.206164
0.618281 0.5 -0.45 0.206003
0.731339 0.5 0.225 0.233805
0.731339 0.5 -0.225 0.233714
0 0.5 -0.766312 0.161015
0 0.5 0.766312 0.161212
0.406012 0.5 0.65 0.176513
0.406012 0.5 -0.65 0.176321
0.250582 0.5 0.725 0.166056
0.250583 0.5 -0.725 0.165861
0.752665 0.5 0.15 0.239993
0.752665 0.5 -0.15 0.23993
0.641766 0.5 0.425 0.210384
0.641766 0.5 -0.425 0.210228
0.710013 0.5 0.3 0.22676
0.710013 0.5 -0.3 0.226641
0.376122 0.5 0.675 0.173398
0.376122 0.5 -0.675 0.173203
0.772987 0.5 0.025 0.245763
0.772987 0.5 -0.025 0.245752
0.0380405 0.5 0.775 0.160634
0.0380405 0.5 -0.775 0.160436
0.665252 0.5 0.4 0.214689
0.665252 0.5 -0.4 0.214539
0.772987 0.5 0.075 0.245179
0.772987 0.5 -0.075 0.245147
0.752665 0.5 0.2 0.23803
0.752665 0.5 -0.2 0.237947
0.346232 0.5 0.7 0.170458
0.346232 0.5 -0.7 0.170261
0.217666 0.5 0.75 0.163703
0.217666 0.5 -0.75 0.163505
0.731339 0.5 0.275 0.231149
0.731339 0.5 -0.275 0.231037
0.772987 0.5 0.125 0.244007
0.772987 0.5 -0.125 0.243953
0.112331 0.5 0.775 0.160817
0.112331 0.5 -0.775 0.160618
0.687632 0.5 -0.375 0.218929
0.687632 0.5 0.375 0.219073
0 0.5 -0.783688 0.159829
0 0.5 0.783688 0.160029
0.314865 0.5 0.725 0.167641
0.314865 0.5 -0.725 0.167441
0.543125 0.5 0.575 0.190233
0.543125 0.5 -0.575 0.190045
0.568989 0.5 0.55 0.194144
0.568989 0.5 -0.55 0.193959
0.710013 0.5 0.35 0.223514
0.710013 0.5 -0.35 0.223376
0.517261 0.5 0.6 0.186463
0.517261 0.5 -0.6 0.186271
0.593635 0.5 0.525 0.198166
0.593635 0.5 -0.525 0.197985
0.772987 0.5 -0.175 0.242183
0.772988 0.5 0.175 0.242258
0.752665 0.5 0.25 0.235538
0.752665 0.5 -0.25 0.235435
0.79331 0.5 2.13249e-17 0.249138
0.490119 0.5 0.625 0.18281
0.490119 0.5 -0.625 0.182614
0.79331 0.5 0.05 0.248841
0.79331 0.5 -0.05 0.24882
0.618281 0.5 0.5 0.202311
0.618281 0.5 -0.5 0.202134
0.183123 0.5 0.775 0.161455
0.183123 0.5 -0.775 0.161253
0.462978 0.5 0.65 0.179311
0.462978 0.5 -0.65 0.179113
0.641766 0.5 0.475 0.206558
0.641766 0.5 -0.475 0.206386
0.79331 0.5 0.1 0.247932
0.79331 0.5 -0.1 0.247888
0 0.5 0.8 0.158891
0 0.5 -0.8 0.158688
0.731339 0.5 -0.325 0.227887
0.731339 0.5 0.325 0.228018
0.283499 0.5 0.75 0.165007
0.283499 0.5 -0.75 0.164804
0.434495 0.5 -0.675 0.175733
0.434495 0.5 0.675 0.175933
0.665252 0.5 0.45 0.210906
0.665252 0.5 -0.45 0.210739
0.0760811 0.5 0.8 0.158967
0.0760811 0.5 -0.8 0.158763
0.772987 0.5 0.225 0.23995
0.772987 0.5 -0.225 0.239855
0.79331 0.5 0.15 0.246419
0.79331 0.5 -0.15 0.246354
0.687632 0.5 -0.425 0.215183
0.687632 0.5 0.425 0.215344
0.406012 0.5 0.7 0.172721
0.406012 0.5 -0.7 0.172518
0.752665 0.5 0.3 0.232542
0.752665 0.5 -0.3 0.232419
0.812675 0.5 -0.025 0.252425
0.812676 0.5 0.025 0.252436
0.14858 0.5 0.8 0.159347
0.14858 0.5 -0.8 0.159142
0.250582 0.5 -0.775 0.162284
0.250583 0.5 0.775 0.162489
0.710013 0.5 0.4 0.219854
0.710013 0.5 -0.4 0.219698
0.812675 0.5 -0.075 0.251778
0.812675 0.5 0.075 0.251811
0 0.5 -0.816312 0.157557
0 0.5 0.816312 0.157763
0.376122 0.5 0.725 0.169632
0.376122 0.5 -0.725 0.169427
0.79331 0.5 0.2 0.24432
0.79331 0.5 -0.2 0.244233
0.772987 0.5 0.275 0.237109
0.772987 0.5 -0.275 0.236993
0.731339 0.5 0.375 0.224442
0.731339 0.5 -0.375 0.224292
0.812675 0.5 -0.125 0.250501
0.812676 0.5 0.125 0.250557
0.0380405 0.5 0.825 0.157165
0.0380406 0.5 -0.825 0.156957
0.346232 0.5 0.75 0.166717
0.346232 0.5 -0.75 0.166509
0.593635 0.5 0.575 0.194039
0.593635 0.5 -0.575 0.193844
0.568989 0.5 0.6 0.19003
0.568989 0.5 -0.6 0.189831
0.618281 0.5 0.55 0.198179
0.618281 0.5 -0.55 0.197987
0.543125 0.5 0.625 0.186139
0.543125 0.5 -0.625 0.185937
0.217666 0.5 0.8 0.160138
0.217666 0.5 -0.8 0.15993
0.641766 0.5 0.525 0.202431
0.641766 0.5 -0.525 0.202243
0.752665 0.5 0.35 0.229072
0.752665 0.5 -0.35 0.228928
0.517261 0.5 0.65 0.182394
0.517261 0.5 -0.65 0.182189
0.812675 0.5 0.175 0.248687
0.812675 0.5 -0.175 0.248609
0.79331 0.5 0.25 0.241655
0.79331 0.5 -0.25 0.241547
0.832041 0.5 2.13249e-17 0.25587
0.665252 0.5 0.5 0.206794
0.665252 0.5 -0.5 0.20661
0.112331 0.5 0.825 0.157331
0.112331 0.5 -0.825 0.157122
0.832041 0.5 0.05 0.255553
0.832041 0.5 -0.05 0.25553
0 0.5 -0.833688 0.156333
0 0.5 0.833688 0.156543
0.490119 0.5 0.675 0.178771
0.490119 0.5 -0.675 0.178563
0.687632 0.5 0.475 0.211261
0.687632 0.5 -0.475 0.211082
0.314865 0.5 0.775 0.163924
0.314865 0.5 -0.775 0.163714
0.832041 0.5 0.1 0.25458
0.832041 0.5 -0.1 0.254535
0.772987 0.5 -0.325 0.233626
0.772988 0.5 0.325 0.233762
0.462978 0.5 0.7 0.175305
0.462978 0.5 -0.7 0.175095
0.710013 0.5 0.45 0.215815
0.710013 0.5 -0.45 0.215641
0.812675 0.5 0.225 0.246221
0.812675 0.5 -0.225 0.246122
0.183123 0.5 0.825 0.157889
0.183123 0.5 -0.825 0.157678
0.434495 0.5 0.725 0.171963
0.434495 0.5 -0.725 0.171751
0.832041 0.5 0.15 0.252964
0.832041 0.5 -0.15 0.252896
0.731339 0.5 0.425 0.22046
0.731339 0.5 -0.425 0.220291
0.79331 0.5 0.3 0.238454
0.79331 0.5 -0.3 0.238325
0.283499 0.5 0.8 0.161309
0.283499 0.5 -0.8 0.161096
0 0.5 0.85 0.155373
0 0.5 -0.85 0.155161
0.850494 0.5 -0.025 0.259206
0.850495 0.5 0.025 0.259218
0.752665 0.5 0.4 0.225162
0.752665 0.5 -0.4 0.224999
0.406012 0.5 0.75 0.168787
0.406012 0.5 -0.75 0.168573
0.0760811 0.5 0.85 0.155442
0.0760811 0.5 -0.85 0.155229
0.850494 0.5 0.075 0.258551
0.850494 0.5 -0.075 0.258516
0.832041 0.5 0.2 0.250721
0.832041 0.5 -0.2 0.250631
0.812675 0.5 -0.275 0.243064
0.812676 0.5 0.275 0.243185
0.772987 0.5 -0.375 0.229786
0.772987 0.5 0.375 0.229942
0.850494 0.5 0.125 0.257211
0.850494 0.5 -0.125 0.257153
0.376122 0.5 -0.775 0.165519
0.376122 0.5 0.775 0.165735
0.618281 0.5 0.6 0.1938
0.618281 0.5 -0.6 0.193593
0.641766 0.5 -0.575 0.197831
0.641766 0.5 0.575 0.198035
0.593635 0.5 -0.625 0.189476
0.593635 0.5 0.625 0.189686
0.250582 0.5 0.825 0.158809
0.250583 0.5 -0.825 0.158594
0.14858 0.5 0.85 0.155774
0.14858 0.5 -0.85 0.15556
0.665252 0.5 0.55 0.20239
0.665252 0.5 -0.55 0.20219
0.568989 0.5 0.65 0.185709
0.568989 0.5 -0.65 0.185496
0.687632 0.5 0.525 0.206859
0.687632 0.5 -0.525 0.206664
0 0.5 -0.866312 0.153998
0 0.5 0.866312 0.154213
0.543125 0.5 -0.675 0.18164
0.543125 0.5 0.675 0.181855
0.79331 0.5 0.35 0.234748
0.79331 0.5 -0.35 0.234598
0.850494 0.5 0.175 0.255215
0.850494 0.5 -0.175 0.255134
0.710013 0.5 0.5 0.211429
0.710013 0.5 -0.5 0.211238
0.832041 0.5 0.25 0.247876
0.832041 0.5 -0.25 0.247764
0.868948 0.5 1.2073e-17 0.262695
0.517261 0.5 0.7 0.178152
0.517261 0.5 -0.7 0.177934
0.868948 0.5 0.05 0.262356
0.868948 0.5 -0.05 0.262332
0.346232 0.5 0.8 0.162854
0.346232 0.5 -0.8 0.162636
0.731339 0.5 -0.475 0.215918
0.731339 0.5 0.475 0.216105
0.868948 0.5 0.1 0.261319
0.868948 0.5 -0.1 0.261271
0.490119 0.5 -0.725 0.174354
0.490119 0.5 0.725 0.174574
0.812675 0.5 0.325 0.239612
0.812676 0.5 -0.325 0.23947
0.0380405 0.5 0.875 0.153598
0.0380405 0.5 -0.875 0.153381
0.752665 0.5 0.45 0.220852
0.752665 0.5 -0.45 0.220671
0.217666 0.5 0.85 0.156468
0.217666 0.5 -0.85 0.15625
0.850494 0.5 0.225 0.252583
0.850494 0.5 -0.225 0.25248
0.462978 0.5 0.75 0.171154
0.462978 0.5 -0.75 0.170933
0.868948 0.5 0.15 0.259594
0.868948 0.5 -0.15 0.259523
0.772987 0.5 0.425 0.225691
0.772987 0.5 -0.425 0.225516
0.112331 0.5 0.875 0.153746
0.112331 0.5 -0.875 0.153528
0.314865 0.5 0.825 0.160095
0.314865 0.5 -0.825 0.159875
0 0.5 -0.883688 0.152743
0 0.5 0.883688 0.152961
0.832041 0.5 0.3 0.24446
0.832041 0.5 -0.3 0.244325
0.886533 0.5 0.025 0.266078
0.886533 0.5 -0.025 0.266066
0.79331 0.5 0.4 0.230575
0.79331 0.5 -0.4 0.230406
0.434495 0.5 -0.775 0.167638
0.434495 0.5 0.775 0.167861
0.886533 0.5 0.075 0.265366
0.886533 0.5 -0.075 0.26533
0.868948 0.5 0.2 0.257202
0.868948 0.5 -0.2 0.257108
0.850494 0.5 -0.275 0.249219
0.850495 0.5 0.275 0.249345
0.183123 0.5 0.875 0.154226
0.183123 0.5 -0.875 0.154006
0.812675 0.5 -0.375 0.235375
0.812675 0.5 0.375 0.235537
0.886533 0.5 0.125 0.263938
0.886533 0.5 -0.125 0.263878
0.641766 0.5 0.625 0.193404
0.641766 0.5 -0.625 0.193186
0.665252 0.5 0.6 0.197729
0.665252 0.5 -0.6 0.197514
0.283499 0.5 0.85 0.157508
0.283499 0.5 -0.85 0.157285
0.687632 0.5 -0.575 0.201965
0.687632 0.5 0.575 0.202176
0.618281 0.5 0.65 0.189207
0.618281 0.5 -0.65 0.188987
0.406012 0.5 0.8 0.164731
0.406012 0.5 -0.8 0.164506
0.710013 0.5 0.55 0.206736
0.710013 0.5 -0.55 0.206528
0.593635 0.5 0.675 0.185138
0.593635 0.5 -0.675 0.184915
0 0.5 0.9 0.151765
0 0.5 -0.9 0.151544
0.731339 0.5 0.525 0.211411
0.731339 0.5 -0.525 0.211208
0.568989 0.5 0.7 0.18121
0.568989 0.5 -0.7 0.180985
0.832041 0.5 0.35 0.240507
0.832041 0.5 -0.35 0.240351
0.0760811 0.5 0.9 0.151826
0.0760811 0.5 -0.9 0.151605
0.752665 0.5 0.5 0.216176
0.752665 0.5 -0.5 0.215977
0.886533 0.5 0.175 0.26181
0.886533 0.5 -0.175 0.261726
0.904118 0.5 2.44417e-17 0.269583
0.868948 0.5 0.25 0.254169
0.868948 0.5 -0.25 0.254052
0.904118 0.5 0.05 0.269221
0.904118 0.5 -0.05 0.269197
0.543125 0.5 0.725 0.177411
0.543125 0.5 -0.725 0.177183
0.376122 0.5 -0.825 0.1615
0.376122 0.5 0.825 0.161727
0.772987 0.5 -0.475 0.220854
0.772987 0.5 0.475 0.221047
0.904118 0.5 0.1 0.268116
0.904118 0.5 -0.1 0.268067
0.250583 0.5 0.875 0.155033
0.250582 0.5 -0.875 0.154809
0.850494 0.5 0.325 0.245535
0.850495 0.5 -0.325 0.245387
0.517261 0.5 0.75 0.173763
0.517261 0.5 -0.75 0.173534
0.79331 0.5 0.45 0.225978
0.79331 0.5 -0.45 0.22579
0.14858 0.5 0.9 0.152111
0.14858 0.5 -0.9 0.151888
0.886533 0.5 0.225 0.259006
0.886533 0.5 -0.225 0.258898
0 0.5 -0.916312 0.150354
0 0.5 0.916312 0.150577
0.904118 0.5 0.15 0.26628
0.904118 0.5 -0.15 0.266206
0.490119 0.5 -0.775 0.170013
0.490119 0.5 0.775 0.170244
0.812676 0.5 0.425 0.231002
0.812676 0.5 -0.425 0.23082
0.346232 0.5 0.85 0.158889
0.346232 0.5 -0.85 0.158661
0.868948 0.5 0.3 0.250528
0.868948 0.5 -0.3 0.250388
0.920875 0.5 -0.025 0.272974
0.920875 0.5 0.025 0.272986
0.832041 0.5 0.4 0.236059
0.832041 0.5 -0.4 0.235882
0.920875 0.5 0.075 0.272228
0.920875 0.5 -0.075 0.272191
0.462978 0.5 0.8 0.166883
0.462978 0.5 -0.8 0.16665
0.0380405 0.5 0.925 0.149948
0.0380405 0.5 -0.925 0.149723
0.217666 0.5 0.9 0.15271
0.217666 0.5 -0.9 0.152483
0.904118 0.5 0.2 0.263733
0.904118 0.5 -0.2 0.263635
0.886533 0.5 -0.275 0.255426
0.886533 0.5 0.275 0.255557
0.687632 0.5 0.625 0.197251
0.687632 0.5 -0.625 0.197024
0.920875 0.5 -0.125 0.270646
0.920875 0.5 0.125 0.270709
0.850494 0.5 0.375 0.241193
0.850494 0.5 -0.375 0.241024
0.710013 0.5 0.6 0.201775
0.710013 0.5 -0.6 0.201552
0.314865 0.5 0.875 0.156173
0.314865 0.5 -0.875 0.155944
0.665252 0.5 0.65 0.192847
0.665252 0.5 -0.65 0.192618
0.731339 0.5 -0.575 0.206206
0.731339 0.5 0.575 0.206426
0.641766 0.5 0.675 0.188573
0.641766 0.5 -0.675 0.188341
0.112331 0.5 -0.925 0.149852
0.112331 0.5 0.925 0.150078
0.752665 0.5 0.55 0.211178
0.752665 0.5 -0.55 0.210962
0.434495 0.5 0.825 0.163649
0.434495 0.5 -0.825 0.163415
0 0.5 -0.933688 0.149073
0 0.5 0.933688 0.1493
0.618281 0.5 0.7 0.184434
0.618281 0.5 -0.7 0.1842
0.772987 0.5 0.525 0.21605
0.772987 0.5 -0.525 0.215838
0.868948 0.5 0.35 0.246319
0.868948 0.5 -0.35 0.246157
0.593635 0.5 -0.725 0.18019
0.593635 0.5 0.725 0.180426
0.920875 0.5 -0.175 0.268357
0.920875 0.5 0.175 0.268445
0.937632 0.5 2.82116e-18 0.276509
0.79331 0.5 0.5 0.221
0.79331 0.5 -0.5 0.220793
0.904118 0.5 0.25 0.260505
0.904118 0.5 -0.25 0.260383
0.937632 0.5 0.05 0.276124
0.937632 0.5 -0.05 0.276099
0.812675 0.5 0.475 0.226058
0.812676 0.5 -0.475 0.225856
0.568989 0.5 0.75 0.176564
0.568989 0.5 -0.75 0.176326
0.406012 0.5 0.85 0.160576
0.406012 0.5 -0.85 0.160341
0.937632 0.5 0.1 0.274949
0.937632 0.5 -0.1 0.274898