# pMean  POINT_DATA 129309
# x  y  z  pMean
0 0.1 0 0.221681
0 0.1 -0.0208665 0.221675
0 0.1 0.0208665 0.221681
0 0.1 -0.0291335 0.221649
0 0.1 0.0291335 0.221657
0.0380405 0.1 -0.025 0.221276
0.0380405 0.1 0.025 0.221283
0 0.1 -0.05 0.221523
0 0.1 0.05 0.221537
0 0.1 -0.0708665 0.22139
0 0.1 0.0708665 0.22141
0.0760811 0.1 0 0.216115
0 0.1 -0.0791335 0.221316
0 0.1 0.0791335 0.221338
0.0380405 0.1 -0.075 0.220966
0.0380405 0.1 0.075 0.220987
0.0760811 0.1 -0.05 0.215953
0.0760811 0.1 0.05 0.215968
0 0.1 -0.1 0.221073
0 0.1 0.1 0.221101
0.112331 0.1 -0.025 0.211033
0.112331 0.1 0.025 0.21104
0 0.1 -0.120866 0.220824
0 0.1 0.120866 0.220858
0.0760811 0.1 -0.1 0.215484
0.0760811 0.1 0.1 0.215513
0 0.1 -0.129134 0.220702
0 0.1 0.129134 0.220738
0.0380405 0.1 0.125 0.220409
0.0380405 0.1 -0.125 0.220374
0.112331 0.1 -0.075 0.210711
0.112331 0.1 0.075 0.210734
0.14858 0.1 0 0.209862
0 0.1 -0.15 0.220333
0 0.1 0.15 0.220375
0.14858 0.1 -0.05 0.209696
0.14858 0.1 0.05 0.209711
0.112331 0.1 0.125 0.210096
0.112331 0.1 -0.125 0.210058
0.0760811 0.1 -0.15 0.214708
0.0760811 0.1 0.15 0.214752
0 0.1 -0.170866 0.219958
0 0.1 0.170866 0.220007
0.0380405 0.1 0.175 0.219531
0.0380405 0.1 -0.175 0.219481
0.14858 0.1 -0.1 0.209204
0.14858 0.1 0.1 0.209234
0 0.1 -0.179134 0.219787
0 0.1 0.179134 0.219838
0.183123 0.1 0.025 0.209053
0.183123 0.1 -0.025 0.209046
0.183123 0.1 -0.075 0.208717
0.183123 0.1 0.075 0.208739
0 0.1 -0.2 0.219298
0 0.1 0.2 0.219354
0.112331 0.1 -0.175 0.209092
0.112331 0.1 0.175 0.209146
0.14858 0.1 -0.15 0.208378
0.14858 0.1 0.15 0.208425
0.0760811 0.1 -0.2 0.21363
0.0760811 0.1 0.2 0.213689
0.217666 0.1 0 0.208675
0 0.1 -0.220866 0.218802
0 0.1 0.220866 0.218865
0.183123 0.1 -0.125 0.208048
0.183123 0.1 0.125 0.208087
0.217666 0.1 -0.05 0.208493
0.217666 0.1 0.05 0.208509
0.0380405 0.1 0.225 0.218362
0.0380405 0.1 -0.225 0.218298
0 0.1 -0.229134 0.218583
0 0.1 0.229134 0.218648
0.217666 0.1 -0.1 0.207963
0.217666 0.1 0.1 0.207995
0.14858 0.1 -0.2 0.207232
0.14858 0.1 0.2 0.207293
0 0.1 -0.25 0.217973
0 0.1 0.25 0.218044
0.112331 0.1 -0.225 0.207819
0.112331 0.1 0.225 0.207887
0.250582 0.1 -0.025 0.208452
0.250582 0.1 0.025 0.208461
0.183123 0.1 -0.175 0.207038
0.183123 0.1 0.175 0.207092
0.0760811 0.1 -0.25 0.212256
0.0760811 0.1 0.25 0.21233
0.250582 0.1 -0.075 0.208072
0.250582 0.1 0.075 0.208098
0.217666 0.1 -0.15 0.207098
0.217666 0.1 0.15 0.207145
0 0.1 -0.270866 0.217358
0 0.1 0.270866 0.217435
0.0380405 0.1 -0.275 0.216826
0.0380405 0.1 0.275 0.216904
0 0.1 -0.279134 0.217092
0 0.1 0.279134 0.217171
0.250582 0.1 0.125 0.207371
0.250583 0.1 -0.125 0.207331
0.283499 0.1 0 0.209853
0.283499 0.1 -0.05 0.209663
0.283499 0.1 0.05 0.209679
0.183123 0.1 -0.225 0.205707
0.183123 0.1 0.225 0.205777
0.14858 0.1 -0.25 0.205778
0.14858 0.1 0.25 0.205854
0.217666 0.1 -0.2 0.205918
0.217666 0.1 0.2 0.205979
0.112331 0.1 0.275 0.206334
0.112331 0.1 -0.275 0.206251
0 0.1 -0.3 0.216367
0 0.1 0.3 0.216452
0.283499 0.1 -0.1 0.209114
0.283499 0.1 0.1 0.209146
0.250583 0.1 -0.175 0.206293
0.250583 0.1 0.175 0.206347
0.0760811 0.1 -0.3 0.210596
0.0760811 0.1 0.3 0.210684
0.314865 0.1 -0.025 0.21135
0.314866 0.1 0.025 0.211357
0.283499 0.1 -0.15 0.208227
0.283499 0.1 0.15 0.208274
0 0.1 -0.320866 0.215635
0 0.1 0.320866 0.215726
0.314866 0.1 -0.075 0.210986
0.314866 0.1 0.075 0.211009
0.0380405 0.1 0.325 0.215169
0.0380405 0.1 -0.325 0.215077
0 0.1 -0.329134 0.215324
0 0.1 0.329134 0.215418
0.183123 0.1 -0.275 0.204072
0.183123 0.1 0.275 0.204156
0.217666 0.1 -0.25 0.204432
0.217666 0.1 0.25 0.204508
0.14858 0.1 -0.3 0.20403
0.14858 0.1 0.3 0.204121
0.250582 0.1 -0.225 0.204953
0.250583 0.1 0.225 0.205022
0.314865 0.1 -0.125 0.210275
0.314865 0.1 0.125 0.210314
0.112331 0.1 -0.325 0.204397
0.112331 0.1 0.325 0.204494
0.346232 0.1 2.31665e-17 0.213364
0.283499 0.1 -0.2 0.207015
0.283499 0.1 0.2 0.207077
0.346232 0.1 -0.05 0.213172
0.346232 0.1 0.05 0.213188
0 0.1 -0.35 0.214487
0 0.1 0.35 0.214586
0.0760811 0.1 -0.35 0.208661
0.0760811 0.1 0.35 0.208762
0.314865 0.1 0.175 0.209267
0.314866 0.1 -0.175 0.209212
0.346232 0.1 -0.1 0.212613
0.346232 0.1 0.1 0.212644
0.217666 0.1 -0.3 0.202649
0.217666 0.1 0.3 0.20274
0 0.1 -0.370866 0.213644
0 0.1 0.370866 0.213748
0.250582 0.1 0.275 0.203399
0.250583 0.1 -0.275 0.203317
0.183123 0.1 -0.325 0.202146
0.183123 0.1 0.325 0.202244
0.0380405 0.1 -0.375 0.21306
0.0380405 0.1 0.375 0.213166
0.376122 0.1 -0.025 0.215368
0.376122 0.1 0.025 0.215376
0.346232 0.1 -0.15 0.21169
0.346232 0.1 0.15 0.211737
0.283499 0.1 -0.25 0.205485
0.283499 0.1 0.25 0.205561
0 0.1 -0.379134 0.21329
0 0.1 0.379134 0.213397
0.14858 0.1 -0.35 0.202002
0.14858 0.1 0.35 0.202107
0.376122 0.1 -0.075 0.214977
0.376122 0.1 0.075 0.215001
0.314866 0.1 -0.225 0.207804
0.314866 0.1 0.225 0.207874
0.112331 0.1 -0.375 0.202271
0.112331 0.1 0.375 0.202382
0.376122 0.1 0.125 0.214245
0.376122 0.1 -0.125 0.214205
0.346232 0.1 -0.2 0.210408
0.346232 0.1 0.2 0.210471
0 0.1 -0.4 0.212345
0 0.1 0.4 0.212458
0.406012 0.1 1.85037e-17 0.217853
0.0760811 0.1 -0.4 0.206462
0.0760811 0.1 0.4 0.206577
0.406012 0.1 -0.05 0.217646
0.406012 0.1 0.05 0.217662
0.250582 0.1 0.325 0.201481
0.250582 0.1 -0.325 0.201384
0.217666 0.1 -0.35 0.200582
0.217666 0.1 0.35 0.200686
0.283499 0.1 -0.3 0.203644
0.283499 0.1 0.3 0.203735
0.376122 0.1 -0.175 0.21306
0.376122 0.1 0.175 0.213115
0.183123 0.1 -0.375 0.199947
0.183123 0.1 0.375 0.200058
0.314866 0.1 -0.275 0.206065
0.314866 0.1 0.275 0.20615
0.406012 0.1 -0.1 0.217044
0.406012 0.1 0.1 0.217076
0 0.1 -0.420866 0.211395
0 0.1 0.420866 0.211514
0.0380405 0.1 -0.425 0.210787
0.0380405 0.1 0.425 0.210906
0.14858 0.1 -0.4 0.19971
0.14858 0.1 0.4 0.199828
0.346232 0.1 -0.25 0.208778
0.346232 0.1 0.25 0.208857
0 0.1 -0.429134 0.211
0 0.1 0.429134 0.211121
0.406012 0.1 -0.15 0.216051
0.406012 0.1 0.15 0.2161
0.434495 0.1 -0.025 0.220306
0.434495 0.1 0.025 0.220314
0.376122 0.1 -0.225 0.211551
0.376122 0.1 0.225 0.211622
0.112331 0.1 -0.425 0.199891
0.112331 0.1 0.425 0.200015
0.434495 0.1 -0.075 0.219887
0.434495 0.1 0.075 0.219912
0 0.1 -0.45 0.209955
0 0.1 0.45 0.210081
0.283499 0.1 -0.35 0.201503
0.283499 0.1 0.35 0.201608
0.250582 0.1 0.375 0.199282
0.250582 0.1 -0.375 0.199172
0.434495 0.1 -0.125 0.219062
0.434495 0.1 0.125 0.219103
0.314866 0.1 -0.325 0.204009
0.314866 0.1 0.325 0.204109
0.406012 0.1 -0.2 0.214677
0.406012 0.1 0.2 0.214741
0.217666 0.1 -0.4 0.198244
0.217666 0.1 0.4 0.198362
0.0760811 0.1 -0.45 0.204016
0.0760811 0.1 0.45 0.204145
0.346232 0.1 -0.3 0.206814
0.346232 0.1 0.3 0.206907
0.183123 0.1 -0.425 0.197489
0.183123 0.1 0.425 0.197615
0.462978 0.1 2.62258e-17 0.223193
0.462978 0.1 -0.05 0.222972
0.462978 0.1 0.05 0.222988
0.376122 0.1 -0.275 0.209691
0.376122 0.1 0.275 0.209778
0.434495 0.1 -0.175 0.217837
0.434495 0.1 0.175 0.217894
0 0.1 -0.470866 0.208905
0 0.1 0.470866 0.209036
0.462978 0.1 -0.1 0.222326
0.462978 0.1 0.1 0.222359
0.14858 0.1 -0.45 0.197171
0.14858 0.1 0.45 0.197302
0.0380405 0.1 0.475 0.208405
0.0380405 0.1 -0.475 0.208273
0.406012 0.1 -0.25 0.212933
0.406012 0.1 0.25 0.213014
0 0.1 -0.479134 0.208471
0 0.1 0.479134 0.208604
0.462978 0.1 -0.15 0.221262
0.462978 0.1 0.15 0.221312
0.112331 0.1 -0.475 0.197274
0.112331 0.1 0.475 0.197411
0.434495 0.1 0.225 0.216296
0.434495 0.1 -0.225 0.216222
0.314866 0.1 0.375 0.201761
0.314866 0.1 -0.375 0.201646
0.283499 0.1 -0.4 0.199076
0.283499 0.1 0.4 0.199195
0.490119 0.1 -0.025 0.226029
0.490119 0.1 0.025 0.226038
0.346232 0.1 -0.35 0.20453
0.346232 0.1 0.35 0.204638
0.250582 0.1 -0.425 0.196689
0.250582 0.1 0.425 0.196813
0.490119 0.1 0.075 0.225605
0.490119 0.1 -0.075 0.22558
0.376122 0.1 -0.325 0.207494
0.376122 0.1 0.325 0.207596
0.217666 0.1 -0.45 0.195651
0.217666 0.1 0.45 0.195782
0 0.1 -0.5 0.207331
0 0.1 0.5 0.20747
0.462978 0.1 -0.2 0.21979
0.462978 0.1 0.2 0.219856
0.406012 0.1 -0.3 0.210835
0.406012 0.1 0.3 0.210931
0.0760811 0.1 -0.5 0.20134
0.0760811 0.1 0.5 0.201481
0.490119 0.1 -0.125 0.224693
0.490119 0.1 0.125 0.224735
0.183123 0.1 -0.475 0.194795
0.183123 0.1 0.475 0.194933
0.434495 0.1 -0.275 0.214234
0.434495 0.1 0.275 0.214324
0.517261 0.1 -7.72214e-18 0.229239
0.517261 0.1 -0.05 0.229001
0.517261 0.1 0.05 0.229018
0.490119 0.1 -0.175 0.223377
0.490119 0.1 0.175 0.223436
0 0.1 -0.520866 0.206185
0 0.1 0.520866 0.20633
0.14858 0.1 -0.5 0.194403
0.14858 0.1 0.5 0.194547
0.462978 0.1 -0.25 0.217922
0.462978 0.1 0.25 0.218004
0.0380405 0.1 -0.525 0.205532
0.0380405 0.1 0.525 0.205677
0.517261 0.1 -0.1 0.228307
0.517261 0.1 0.1 0.228341
0.314866 0.1 -0.425 0.198997
0.314866 0.1 0.425 0.199125
0.346232 0.1 -0.4 0.201943
0.346232 0.1 0.4 0.202066
0 0.1 -0.529134 0.205716
0 0.1 0.529134 0.205862
0.376122 0.1 -0.375 0.204978
0.376122 0.1 0.375 0.205095
0.283499 0.1 -0.45 0.196379
0.283499 0.1 0.45 0.196512
0.406012 0.1 -0.35 0.208398
0.406012 0.1 0.35 0.20851
0.112331 0.1 -0.525 0.194439
0.112331 0.1 0.525 0.194588
0.250582 0.1 -0.475 0.19395
0.250583 0.1 0.475 0.194088
0.517261 0.1 -0.15 0.227163
0.517261 0.1 0.15 0.227214
0.490119 0.1 -0.225 0.221644
0.490119 0.1 0.225 0.221719
0.434495 0.1 0.325 0.211994
0.434495 0.1 -0.325 0.211889
0.543125 0.1 -0.025 0.232383
0.543125 0.1 0.025 0.232391
0.217666 0.1 -0.5 0.192821
0.217666 0.1 0.5 0.192965
0.543125 0.1 -0.075 0.231899
0.543125 0.1 0.075 0.231925
0 0.1 -0.55 0.204488
0 0.1 0.55 0.20464
0.462978 0.1 -0.3 0.215674
0.462978 0.1 0.3 0.215773
0.517261 0.1 -0.2 0.22558
0.517261 0.1 0.2 0.225648
0.0760811 0.1 -0.55 0.198448
0.0760811 0.1 0.55 0.198601
0.183123 0.1 0.525 0.192031
0.183123 0.1 -0.525 0.19188
0.543125 0.1 0.125 0.230988
0.543125 0.1 -0.125 0.230945
0.490119 0.1 0.275 0.219602
0.490119 0.1 -0.275 0.21951
0.376122 0.1 -0.425 0.202163
0.376122 0.1 0.425 0.202294
0.346232 0.1 -0.45 0.199073
0.346232 0.1 0.45 0.19921
0.568989 0.1 0 0.235869
0.14858 0.1 -0.55 0.191424
0.14858 0.1 0.55 0.19158
0.314866 0.1 -0.475 0.19608
0.314866 0.1 0.475 0.196222
0.406012 0.1 -0.4 0.205643
0.406012 0.1 0.4 0.205769
0.543125 0.1 -0.175 0.229529
0.543125 0.1 0.175 0.229589
0 0.1 0.570866 0.203411
0 0.1 -0.570866 0.203254
0.568989 0.1 -0.05 0.235614
0.568989 0.1 0.05 0.235631
0.434495 0.1 0.375 0.209325
0.434495 0.1 -0.375 0.209205
0.517261 0.1 -0.25 0.223572
0.517261 0.1 0.25 0.223657
0.283499 0.1 -0.5 0.19343
0.283499 0.1 0.5 0.193576
0.0380405 0.1 0.575 0.202738
0.0380406 0.1 -0.575 0.202581
0.568989 0.1 -0.1 0.234866
0.568989 0.1 0.1 0.234901
0 0.1 -0.579134 0.202751
0 0.1 0.579134 0.20291
0.462978 0.1 -0.35 0.213066
0.462978 0.1 0.35 0.21318
0.250582 0.1 -0.525 0.190973
0.250582 0.1 0.525 0.191124
0.112331 0.1 -0.575 0.1914
0.112331 0.1 0.575 0.191561
0.543125 0.1 -0.225 0.227664
0.543125 0.1 0.225 0.227742
0.490119 0.1 -0.325 0.216991
0.490119 0.1 0.325 0.217099
0.568989 0.1 -0.15 0.233635
0.568989 0.1 0.15 0.233687
0.217666 0.1 -0.55 0.18977
0.217666 0.1 0.55 0.189927
0.593635 0.1 -0.025 0.23928
0.593635 0.1 0.025 0.239288
0.517261 0.1 -0.3 0.221157
0.517261 0.1 0.3 0.221258
0.593635 0.1 -0.075 0.238759
0.593635 0.1 0.075 0.238785
0 0.1 -0.6 0.201443
0 0.1 0.6 0.201607
0.568989 0.1 -0.2 0.23193
0.568989 0.1 0.2 0.232
0.183123 0.1 -0.575 0.188759
0.183123 0.1 0.575 0.188922
0.0760811 0.1 -0.6 0.195357
0.0760811 0.1 0.6 0.195523
0.376122 0.1 -0.475 0.199068
0.376122 0.1 0.475 0.199214
0.406012 0.1 -0.45 0.20259
0.406012 0.1 0.45 0.20273
0.593635 0.1 -0.125 0.23773
0.593635 0.1 0.125 0.237774
0.434495 0.1 -0.425 0.206203
0.434495 0.1 0.425 0.206338
0.346232 0.1 -0.5 0.19594
0.346232 0.1 0.5 0.19609
0.543125 0.1 -0.275 0.225367
0.543125 0.1 0.275 0.225461
0.462978 0.1 -0.4 0.210119
0.462978 0.1 0.4 0.210248
0.314866 0.1 -0.525 0.192914
0.314866 0.1 0.525 0.193069
0.490119 0.1 -0.375 0.214111
0.490119 0.1 0.375 0.214234
0.14858 0.1 -0.6 0.188248
0.14858 0.1 0.6 0.188416
0.618281 0.1 7.72214e-18 0.243003
0.283499 0.1 -0.55 0.190248
0.283499 0.1 0.55 0.190408
0.593635 0.1 0.175 0.236267
0.593635 0.1 -0.175 0.236205
0.618281 0.1 -0.05 0.242728
0.618281 0.1 0.05 0.242746
0 0.1 -0.620866 0.200128
0 0.1 0.620866 0.200297
0.568989 0.1 -0.25 0.229769
0.568989 0.1 0.25 0.229856
0.517261 0.1 -0.35 0.218357
0.517261 0.1 0.35 0.218474
0.0380405 0.1 -0.625 0.199436
0.0380405 0.1 0.625 0.199606
0.618281 0.1 -0.1 0.241923
0.618281 0.1 0.1 0.241959
0.250582 0.1 0.575 0.187941
0.250583 0.1 -0.575 0.187777
0 0.1 -0.629134 0.199595
0 0.1 0.629134 0.199765
0.543125 0.1 -0.325 0.222662
0.543125 0.1 0.325 0.222773
0.593635 0.1 -0.225 0.234197
0.593635 0.1 0.225 0.234276
0.112331 0.1 -0.625 0.188172
0.112331 0.1 0.625 0.188346
0.618281 0.1 -0.15 0.240595
0.618281 0.1 0.15 0.240649
0.217666 0.1 -0.6 0.186516
0.217666 0.1 0.6 0.186685
0.641766 0.1 -0.025 0.246643
0.641766 0.1 0.025 0.246651
0.568989 0.1 -0.3 0.227171
0.568989 0.1 0.3 0.227275
0.434495 0.1 -0.475 0.202906
0.434495 0.1 0.475 0.203056
0.406012 0.1 -0.5 0.199261
0.406012 0.1 0.5 0.199416
0.462978 0.1 -0.45 0.206857
0.462978 0.1 0.45 0.207001
0.376122 0.1 -0.525 0.195716
0.376122 0.1 0.525 0.195875
0.641766 0.1 -0.075 0.246081
0.641766 0.1 0.075 0.246108
0.490119 0.1 0.425 0.211033
0.490119 0.1 -0.425 0.210894
0.618281 0.1 -0.2 0.238759
0.618281 0.1 0.2 0.23883
0.346232 0.1 -0.55 0.192565
0.346232 0.1 0.55 0.192729
0 0.1 -0.65 0.198213
0 0.1 0.65 0.198389
0.183123 0.1 -0.625 0.185449
0.183123 0.1 0.625 0.185624
0.641767 0.1 -0.125 0.244972
0.641767 0.1 0.125 0.245017
0.517261 0.1 -0.4 0.215195
0.517261 0.1 0.4 0.215328
0.593635 0.1 -0.275 0.231724
0.593635 0.1 0.275 0.231821
0.0760811 0.1 -0.65 0.192084
0.0760811 0.1 0.65 0.192262
0.314865 0.1 -0.575 0.189523
0.314866 0.1 0.575 0.189691
0.543125 0.1 -0.375 0.219571
0.543125 0.1 0.375 0.219697
0.283499 0.1 -0.6 0.186855
0.283499 0.1 0.6 0.187027
0.641766 0.1 -0.175 0.243328
0.641766 0.1 0.175 0.243391
0.665252 0.1 4.66273e-18 0.25057
0.14858 0.1 -0.65 0.184891
0.14858 0.1 0.65 0.185071
0.618281 0.1 -0.25 0.236431
0.618281 0.1 0.25 0.23652
0.665252 0.1 -0.05 0.250274
0.665252 0.1 0.05 0.250292
0.568989 0.1 -0.35 0.224161
0.568989 0.1 0.35 0.224281
0 0.1 0.670866 0.197006
0 0.1 -0.670866 0.196826
0.665252 0.1 -0.1 0.249406
0.665252 0.1 0.1 0.249443
0.250582 0.1 -0.625 0.184383
0.250582 0.1 0.625 0.184559
0.0380405 0.1 -0.675 0.196117
0.0380405 0.1 0.675 0.196298
0.593635 0.1 -0.325 0.228813
0.593635 0.1 0.325 0.228927
0 0.1 0.679134 0.196446
0 0.1 -0.679134 0.196264
0.641766 0.1 0.225 0.241244
0.641766 0.1 -0.225 0.241163
0.462978 0.1 -0.5 0.203303
0.462978 0.1 0.5 0.203461
0.434495 0.1 -0.525 0.199338
0.434495 0.1 0.525 0.199502
0.665252 0.1 -0.15 0.247975
0.665252 0.1 0.15 0.24803
0.490119 0.1 0.475 0.207518
0.49012 0.1 -0.475 0.207364
0.406012 0.1 -0.55 0.195681
0.406012 0.1 0.55 0.195849
0.112331 0.1 -0.675 0.184772
0.112331 0.1 0.675 0.184957
0.217666 0.1 -0.65 0.183077
0.217666 0.1 0.65 0.183258
0.517261 0.1 -0.45 0.211696
0.517261 0.1 0.45 0.211844
0.376122 0.1 -0.575 0.192131
0.376122 0.1 0.575 0.192303
0.618281 0.1 -0.3 0.233633
0.618281 0.1 0.3 0.23374
0.687632 0.1 -0.025 0.254406
0.687632 0.1 0.025 0.254416
0.543125 0.1 -0.425 0.216115
0.543125 0.1 0.425 0.216257
0.687632 0.1 -0.075 0.253801
0.687632 0.1 0.075 0.253829
0.346232 0.1 -0.6 0.188972
0.346232 0.1 0.6 0.189148
0.665252 0.1 -0.2 0.245996
0.665252 0.1 0.2 0.246069
0.568989 0.1 -0.4 0.220762
0.568989 0.1 0.4 0.220898
0.641767 0.1 -0.275 0.2385
0.641767 0.1 0.275 0.238599
0.687632 0.1 -0.125 0.252606
0.687632 0.1 0.125 0.252653
0.183123 0.1 -0.675 0.181965
0.183123 0.1 0.675 0.182151
0.314866 0.1 -0.625 0.185928
0.314866 0.1 0.625 0.186108
0 0.1 -0.7 0.194817
0 0.1 0.7 0.195004
0.593635 0.1 -0.375 0.225484
0.593635 0.1 0.375 0.225615
0.0760811 0.1 -0.7 0.188647
0.0760811 0.1 0.7 0.188835
0.283499 0.1 -0.65 0.183271
0.283499 0.1 0.65 0.183455
0.687632 0.1 0.175 0.250899
0.687632 0.1 -0.175 0.250834
0.710013 0.1 1.54443e-17 0.258508
0.618281 0.1 -0.35 0.230392
0.618281 0.1 0.35 0.230516
0.665252 0.1 -0.25 0.243487
0.665252 0.1 0.25 0.243578
0.710013 0.1 -0.05 0.258189
0.710013 0.1 0.05 0.258208
0.14858 0.1 -0.7 0.181371
0.14858 0.1 0.7 0.181562
0.710013 0.1 -0.1 0.257254
0.710013 0.1 0.1 0.257291
0.490119 0.1 -0.525 0.203549
0.490119 0.1 0.525 0.203717
0.462978 0.1 -0.55 0.199484
0.462978 0.1 0.55 0.199657
0.641767 0.1 -0.325 0.235361
0.641767 0.1 0.325 0.235478
0.517261 0.1 -0.5 0.20789
0.517261 0.1 0.5 0.208053
0.250583 0.1 -0.675 0.180811
0.250583 0.1 0.675 0.180999
0.434495 0.1 0.575 0.195702
0.434495 0.1 -0.575 0.195525
0 0.1 -0.720866 0.193364
0 0.1 0.720866 0.193555
0.543125 0.1 0.475 0.212487
0.543125 0.1 -0.475 0.212329
0.687632 0.1 -0.225 0.248501
0.687632 0.1 0.225 0.248584
0.406012 0.1 -0.6 0.191873
0.406012 0.1 0.6 0.192054
0.568989 0.1 -0.45 0.217005
0.568989 0.1 0.45 0.217158
0.710013 0.1 -0.15 0.255712
0.710013 0.1 0.15 0.255768
0.0380405 0.1 -0.725 0.192639
0.0380405 0.1 0.725 0.192831
0 0.1 -0.729134 0.192778
0 0.1 0.729134 0.19297
0.376122 0.1 -0.625 0.188335
0.376122 0.1 0.625 0.18852
0.665252 0.1 -0.3 0.240474
0.665252 0.1 0.3 0.240583
0.593635 0.1 -0.425 0.22177
0.593635 0.1 0.425 0.221917
0.731339 0.1 -0.025 0.262511
0.731339 0.1 0.025 0.26252
0.217666 0.1 -0.7 0.179473
0.217666 0.1 0.7 0.179665
0.112331 0.1 -0.725 0.181218
0.112331 0.1 0.725 0.181414
0.731339 0.1 -0.075 0.261859
0.731339 0.1 0.075 0.261888
0.618281 0.1 -0.4 0.226738
0.618281 0.1 0.4 0.226879
0.346232 0.1 -0.65 0.185184
0.346232 0.1 0.65 0.185372
0.710013 0.1 -0.2 0.253579
0.710013 0.1 0.2 0.253654
0.687632 0.1 -0.275 0.245633
0.687632 0.1 0.275 0.245734
0.731339 0.1 -0.125 0.260572
0.731339 0.1 0.125 0.260619
0.641766 0.1 -0.375 0.231783
0.641766 0.1 0.375 0.231917
0.314865 0.1 0.675 0.182344
0.314865 0.1 -0.675 0.182151
0.183123 0.1 0.725 0.178528
0.183123 0.1 -0.725 0.178331
0 0.1 -0.75 0.191272
0 0.1 0.75 0.191469
0.665252 0.1 -0.35 0.236986
0.665252 0.1 0.35 0.237113
0.731339 0.1 -0.175 0.258662
0.731339 0.1 0.175 0.258729
0.752665 0.1 -5.39078e-18 0.266755
0.710013 0.1 -0.25 0.250878
0.710013 0.1 0.25 0.250971
0.0760811 0.1 -0.75 0.185062
0.0760811 0.1 0.75 0.185261
0.752665 0.1 -0.05 0.266412
0.752665 0.1 0.05 0.266431
0.517261 0.1 -0.55 0.203805
0.517261 0.1 0.55 0.203982
0.283499 0.1 -0.7 0.179517
0.283499 0.1 0.7 0.179712
0.543125 0.1 -0.525 0.208242
0.543125 0.1 0.525 0.208414
0.49012 0.1 -0.575 0.199476
0.49012 0.1 0.575 0.199658
0.568989 0.1 -0.5 0.212923
0.568989 0.1 0.5 0.213091
0.462978 0.1 -0.6 0.195428
0.462978 0.1 0.6 0.195614
0.752665 0.1 -0.1 0.265405
0.752665 0.1 0.1 0.265444
0.593635 0.1 -0.475 0.217706
0.593635 0.1 0.475 0.217869
0.687632 0.1 -0.325 0.242256
0.687632 0.1 0.325 0.242375
0.434495 0.1 -0.625 0.191493
0.434495 0.1 0.625 0.191683
0.14858 0.1 -0.75 0.177708
0.14858 0.1 0.75 0.17791
0.618281 0.1 -0.45 0.222703
0.618281 0.1 0.45 0.22286
0.731339 0.1 -0.225 0.256151
0.731339 0.1 0.225 0.256237
0.406012 0.1 -0.65 0.187864
0.406012 0.1 0.65 0.188057
0.250582 0.1 0.725 0.177281
0.250582 0.1 -0.725 0.177082
0.752665 0.1 -0.15 0.263746
0.752665 0.1 0.15 0.263804
0.641767 0.1 -0.425 0.227795
0.641767 0.1 0.425 0.227946
0.710013 0.1 -0.3 0.247635
0.710013 0.1 0.3 0.247747
0 0.1 0.770866 0.189961
0 0.1 -0.770866 0.18976
0.376122 0.1 -0.675 0.184354
0.376122 0.1 0.675 0.184551
0.772987 0.1 -0.025 0.270895
0.772987 0.1 0.025 0.270905
0.0380405 0.1 0.775 0.189224
0.0380405 0.1 -0.775 0.189022
0.665252 0.1 -0.4 0.233058
0.665252 0.1 0.4 0.233202
0.772987 0.1 -0.075 0.270194
0.772987 0.1 0.075 0.270223
0.752665 0.1 -0.2 0.261451
0.752665 0.1 0.2 0.261528
0 0.1 0.779134 0.189356
0 0.1 -0.779134 0.189152
0.346232 0.1 -0.7 0.181222
0.346232 0.1 0.7 0.181422
0.217666 0.1 -0.75 0.175723
0.217666 0.1 0.75 0.175926
0.731339 0.1 0.275 0.253168
0.731339 0.1 -0.275 0.253064
0.772987 0.1 0.125 0.268858
0.772987 0.1 -0.125 0.268809
0.112331 0.1 0.775 0.177735
0.112331 0.1 -0.775 0.177529
0.687632 0.1 -0.375 0.238406
0.687632 0.1 0.375 0.238544
0.314866 0.1 0.725 0.178416
0.314866 0.1 -0.725 0.178213
0.543125 0.1 0.575 0.204071
0.543125 0.1 -0.575 0.203884
0.568989 0.1 -0.55 0.208547
0.568989 0.1 0.55 0.20873
0.710013 0.1 -0.35 0.243883
0.710013 0.1 0.35 0.244012
0.517261 0.1 -0.6 0.199471
0.517261 0.1 0.6 0.199663
0.593635 0.1 0.525 0.213501
0.593635 0.1 -0.525 0.213323
0.772987 0.1 -0.175 0.266756
0.772987 0.1 0.175 0.266824
0.752665 0.1 -0.25 0.258545
0.752665 0.1 0.25 0.258641
0.79331 0.1 9.25186e-18 0.27525
0.490119 0.1 -0.625 0.195175
0.490119 0.1 0.625 0.19537
0.79331 0.1 -0.05 0.274881
0.79331 0.1 0.05 0.274901
0.618281 0.1 -0.5 0.218321
0.618281 0.1 0.5 0.218493
0.183123 0.1 -0.775 0.17456
0.183123 0.1 0.775 0.174767
0.462978 0.1 -0.65 0.191162
0.462978 0.1 0.65 0.191361
0.641766 0.1 -0.475 0.223426
0.641767 0.1 0.475 0.223594
0.79331 0.1 -0.1 0.2738
0.79331 0.1 0.1 0.273839
0 0.1 -0.8 0.187596
0 0.1 0.8 0.187803
0.731339 0.1 -0.325 0.249432
0.731339 0.1 0.325 0.249554
0.283499 0.1 -0.75 0.175614
0.283499 0.1 0.75 0.17582
0.434495 0.1 -0.675 0.187268
0.434495 0.1 0.675 0.187471
0.665252 0.1 -0.45 0.228721
0.665252 0.1 0.45 0.228882
0.0760811 0.1 -0.8 0.18135
0.0760811 0.1 0.8 0.181559
0.772987 0.1 -0.225 0.264056
0.772988 0.1 0.225 0.264143
0.79331 0.1 -0.15 0.272016
0.79331 0.1 0.15 0.272075
0.687632 0.1 -0.425 0.234116
0.687632 0.1 0.425 0.23427
0.406012 0.1 -0.7 0.183677
0.406012 0.1 0.7 0.183882
0.752665 0.1 -0.3 0.255058
0.752665 0.1 0.3 0.255173
0.812675 0.1 -0.025 0.279494
0.812675 0.1 0.025 0.279504
0.14858 0.1 -0.8 0.173918
0.14858 0.1 0.8 0.17413
0.250582 0.1 0.775 0.173422
0.250582 0.1 -0.775 0.173213
0.710013 0.1 -0.4 0.239659
0.710013 0.1 0.4 0.239807
0.812675 0.1 -0.075 0.278742
0.812675 0.1 0.075 0.278772
0.376122 0.1 -0.725 0.180209
0.376122 0.1 0.725 0.180417
0.79331 0.1 -0.2 0.269551
0.79331 0.1 0.2 0.26963
0.772987 0.1 -0.275 0.260737
0.772987 0.1 0.275 0.260843
0 0.1 -0.820866 0.186033
0 0.1 0.820866 0.186245
0.731339 0.1 -0.375 0.245289
0.731339 0.1 0.375 0.245429
0.812675 0.1 -0.125 0.277255
0.812675 0.1 0.125 0.277305
0.0380405 0.1 -0.825 0.185283
0.0380405 0.1 0.825 0.185495
0.346232 0.1 -0.75 0.177111
0.346232 0.1 0.75 0.177322
0.593635 0.1 -0.575 0.208656
0.593635 0.1 0.575 0.208849
0.568989 0.1 -0.6 0.203912
0.568989 0.1 0.6 0.204109
0.618281 0.1 -0.55 0.21363
0.618281 0.1 0.55 0.213818
0.543125 0.1 -0.625 0.199289
0.543125 0.1 0.625 0.19949
0.217666 0.1 -0.8 0.171843
0.217666 0.1 0.8 0.172056
0 0.1 -0.829134 0.185407
0 0.1 0.829134 0.18562
0.641766 0.1 -0.525 0.218723
0.641766 0.1 0.525 0.218906
0.752665 0.1 -0.35 0.251026
0.752665 0.1 0.35 0.251158
0.517261 0.1 -0.65 0.194921
0.517261 0.1 0.65 0.195125
0.812675 0.1 0.175 0.275121
0.812675 0.1 -0.175 0.275051
0.79331 0.1 -0.25 0.26643
0.79331 0.1 0.25 0.266528
0.832041 0.1 9.25186e-18 0.28393
0.665252 0.1 -0.5 0.224017
0.665252 0.1 0.5 0.224195
0.112331 0.1 -0.825 0.173724
0.112331 0.1 0.825 0.17394
0.832041 0.1 -0.05 0.283535
0.832041 0.1 0.05 0.283556
0.49012 0.1 0.675 0.190883
0.49012 0.1 -0.675 0.190675
0.687632 0.1 -0.475 0.229425
0.687632 0.1 0.475 0.229597
0.314866 0.1 0.775 0.174351
0.314866 0.1 -0.775 0.174137
0.832041 0.1 -0.1 0.282376
0.832041 0.1 0.1 0.282416
0.772987 0.1 -0.325 0.256836
0.772988 0.1 0.325 0.256961
0.462978 0.1 -0.7 0.186715
0.462978 0.1 0.7 0.186926
0.710013 0.1 -0.45 0.235004
0.710013 0.1 0.45 0.235169
0.812675 0.1 -0.225 0.272154
0.812675 0.1 0.225 0.272243
0.183123 0.1 -0.825 0.170669
0.183123 0.1 0.825 0.170887
0.434495 0.1 0.725 0.183091
0.434495 0.1 -0.725 0.182877
0.832041 0.1 -0.15 0.280464
0.832041 0.1 0.15 0.280525
0.731339 0.1 -0.425 0.240686
0.731339 0.1 0.425 0.240844
0.79331 0.1 -0.3 0.262688
0.79331 0.1 0.3 0.262804
0.283499 0.1 -0.8 0.171581
0.283499 0.1 0.8 0.171798
0 0.1 -0.85 0.183807
0 0.1 0.85 0.184024
0.850494 0.1 -0.025 0.28825
0.850494 0.1 0.025 0.28826
0.752665 0.1 -0.4 0.24649
0.752665 0.1 0.4 0.246642
0.406012 0.1 -0.75 0.179339
0.406012 0.1 0.75 0.179556
0.0760811 0.1 -0.85 0.177529
0.0760811 0.1 0.85 0.177747
0.850494 0.1 -0.075 0.287445
0.850494 0.1 0.075 0.287476
0.832041 0.1 -0.2 0.277822
0.832041 0.1 0.2 0.277903
0.812675 0.1 -0.275 0.268594
0.812675 0.1 0.275 0.268702
0.772987 0.1 -0.375 0.252389
0.772987 0.1 0.375 0.252533
0.850494 0.1 -0.125 0.285854
0.850494 0.1 0.125 0.285904
0.376122 0.1 0.775 0.176148
0.376122 0.1 -0.775 0.175929
0.618281 0.1 -0.6 0.208668
0.618281 0.1 0.6 0.208871
0.641766 0.1 -0.575 0.213722
0.641766 0.1 0.575 0.21392
0.593635 0.1 0.625 0.203948
0.593635 0.1 -0.625 0.203741
0.250582 0.1 -0.825 0.16922
0.250582 0.1 0.825 0.169439
0.14858 0.1 -0.85 0.17002
0.14858 0.1 0.85 0.170241
0.665252 0.1 -0.55 0.218989
0.665252 0.1 0.55 0.219182
0.568989 0.1 -0.65 0.199051
0.568989 0.1 0.65 0.199262
0.687632 0.1 -0.525 0.224382
0.687632 0.1 0.525 0.22457
0.543125 0.1 0.675 0.194703
0.543125 0.1 -0.675 0.194489
0.79331 0.1 -0.35 0.258361
0.79331 0.1 0.35 0.258497
0.850494 0.1 -0.175 0.283494
0.850494 0.1 0.175 0.283565
0.710013 0.1 -0.5 0.229958
0.710013 0.1 0.5 0.230141
0.832041 0.1 -0.25 0.274478
0.832041 0.1 0.25 0.274579
0.868948 0.1 0 0.292728
0.517261 0.1 -0.7 0.190184
0.517261 0.1 0.7 0.190401
0.868948 0.1 -0.05 0.292307
0.868948 0.1 0.05 0.292327
0 0.1 -0.870866 0.182201
0 0.1 0.870866 0.182421
0.346232 0.1 -0.8 0.172876
0.346232 0.1 0.8 0.173098
0.731339 0.1 -0.475 0.235658
0.731339 0.1 0.475 0.235834
0.868948 0.1 -0.1 0.291067
0.868948 0.1 0.1 0.291108
0.49012 0.1 -0.725 0.186007
0.49012 0.1 0.725 0.186227
0.812675 0.1 0.325 0.264538
0.812675 0.1 -0.325 0.26441
0.0380405 0.1 -0.875 0.18144
0.0380405 0.1 0.875 0.181662
0.752665 0.1 -0.45 0.241498
0.752665 0.1 0.45 0.241668
0.217666 0.1 -0.85 0.167851
0.217666 0.1 0.85 0.168074
0 0.1 -0.879134 0.181558
0 0.1 0.879134 0.18178
0.850494 0.1 -0.225 0.280393
0.850494 0.1 0.225 0.280484
0.462978 0.1 -0.75 0.182113
0.462978 0.1 0.75 0.182336
0.868948 0.1 -0.15 0.289024
0.868948 0.1 0.15 0.289085
0.772987 0.1 -0.425 0.24745
0.772987 0.1 0.425 0.247612
0.112331 0.1 -0.875 0.169824
0.112331 0.1 0.875 0.170048
0.314866 0.1 -0.825 0.169947
0.314866 0.1 0.825 0.170172
0.832041 0.1 -0.3 0.270469
0.832041 0.1 0.3 0.270589
0.886533 0.1 -0.025 0.297086
0.886533 0.1 0.025 0.297096
0.79331 0.1 -0.4 0.253499
0.79331 0.1 0.4 0.253654
0.434495 0.1 -0.775 0.178344
0.434495 0.1 0.775 0.17857
0.886533 0.1 -0.075 0.296226
0.886533 0.1 0.075 0.296258
0.868948 0.1 -0.2 0.286199
0.868948 0.1 0.2 0.286281
0.850494 0.1 0.275 0.276694
0.850495 0.1 -0.275 0.276584
0.183123 0.1 0.875 0.166904
0.183123 0.1 -0.875 0.166678
0.812676 0.1 -0.375 0.259647
0.812676 0.1 0.375 0.259794
0.886533 0.1 -0.125 0.294527
0.886533 0.1 0.125 0.294579
0.641766 0.1 -0.625 0.208464
0.641766 0.1 0.625 0.208677
0.665252 0.1 -0.6 0.213677
0.665252 0.1 0.6 0.213885
0.283499 0.1 -0.85 0.167442
0.283499 0.1 0.85 0.167668
0.687632 0.1 0.575 0.219229
0.687632 0.1 -0.575 0.219025
0.618281 0.1 -0.65 0.203473
0.618281 0.1 0.65 0.20369
0.406012 0.1 -0.8 0.174876
0.406012 0.1 0.8 0.175103
0.710013 0.1 -0.55 0.224569
0.710013 0.1 0.55 0.224768
0.593635 0.1 0.675 0.198836
0.593635 0.1 -0.675 0.198616
0 0.1 -0.9 0.179922
0 0.1 0.9 0.180148
0.731339 0.1 0.525 0.23044
0.731339 0.1 -0.525 0.230248
0.568989 0.1 -0.7 0.194
0.568989 0.1 0.7 0.194223
0.832041 0.1 -0.35 0.265838
0.832041 0.1 0.35 0.265977
0.0760811 0.1 -0.9 0.173617
0.0760811 0.1 0.9 0.173843
0.752665 0.1 -0.5 0.236091
0.752665 0.1 0.5 0.236278
0.886533 0.1 -0.175 0.292008
0.886533 0.1 0.175 0.29208
0.904118 0.1 9.25186e-18 0.301586
0.868948 0.1 -0.25 0.282625
0.868948 0.1 0.25 0.282727
0.904118 0.1 -0.05 0.301137
0.904118 0.1 0.05 0.301158
0.543125 0.1 -0.725 0.189516
0.543125 0.1 0.725 0.189743
0.376122 0.1 -0.825 0.171539
0.376122 0.1 0.825 0.171768
0.772987 0.1 0.475 0.242241
0.772987 0.1 -0.475 0.242061
0.904118 0.1 -0.1 0.299817
0.904118 0.1 0.1 0.299859
0.250582 0.1 0.875 0.165355
0.250582 0.1 -0.875 0.165127
0.850494 0.1 -0.325 0.272108
0.850494 0.1 0.325 0.272239
0.517261 0.1 -0.75 0.185292
0.517261 0.1 0.75 0.185522
0.79331 0.1 -0.45 0.24815
0.79331 0.1 0.45 0.248323
0.14858 0.1 -0.9 0.166031
0.14858 0.1 0.9 0.166261
0.886533 0.1 -0.225 0.288697
0.886533 0.1 0.225 0.28879
0.904118 0.1 -0.15 0.297639
0.904118 0.1 0.15 0.297702
0.490119 0.1 0.775 0.181431
0.49012 0.1 -0.775 0.1812
0.812675 0.1 -0.425 0.254356
0.812675 0.1 0.425 0.254522
0.346232 0.1 -0.85 0.168539
0.346232 0.1 0.85 0.168771
0.868948 0.1 -0.3 0.278341
0.868948 0.1 0.3 0.278463
0 0.1 0.920866 0.178508
0 0.1 -0.920866 0.178279
0.920875 0.1 0.025 0.305971
0.920875 0.1 -0.025 0.30596
0.832041 0.1 -0.4 0.260635
0.832041 0.1 0.4 0.260793
0.920875 0.1 -0.075 0.305046
0.920875 0.1 0.075 0.305078
0.462978 0.1 -0.8 0.177385
0.462978 0.1 0.8 0.177619
0.0380405 0.1 -0.925 0.17751
0.0380405 0.1 0.925 0.17774
0.217666 0.1 -0.9 0.163767
0.217666 0.1 0.9 0.163999
0.904118 0.1 -0.2 0.294629
0.904118 0.1 0.2 0.294713
0.886533 0.1 -0.275 0.284631
0.886533 0.1 0.275 0.284745
0 0.1 0.929134 0.177854
0 0.1 -0.929134 0.177624
0.687632 0.1 -0.625 0.213401
0.687632 0.1 0.625 0.21362
0.920875 0.1 -0.125 0.303239
0.920875 0.1 0.125 0.303292
0.850494 0.1 -0.375 0.267016
0.850494 0.1 0.375 0.267166
0.710013 0.1 -0.6 0.218885
0.710013 0.1 0.6 0.219099
0.314866 0.1 0.875 0.1659
0.314866 0.1 -0.875 0.165666
0.665252 0.1 -0.65 0.208124
0.665252 0.1 0.65 0.208347
0.731339 0.1 -0.575 0.224513
0.731339 0.1 0.575 0.224723
0.641766 0.1 -0.675 0.202989
0.641766 0.1 0.675 0.203217
0.112331 0.1 -0.925 0.165845
0.112331 0.1 0.925 0.166078
0.752665 0.1 -0.55 0.230322
0.752665 0.1 0.55 0.230526
0.434495 0.1 -0.825 0.173698
0.434495 0.1 0.825 0.173934
0.618281 0.1 -0.7 0.198083
0.618281 0.1 0.7 0.198313
0.772987 0.1 -0.525 0.236271
0.772987 0.1 0.525 0.236469
0.868948 0.1 -0.35 0.273395
0.868948 0.1 0.35 0.273537
0.593635 0.1 -0.725 0.193316
0.593635 0.1 0.725 0.193549
0.920875 0.1 0.175 0.300633
0.920875 0.1 -0.175 0.300559
0.937632 0.1 -6.55647e-18 0.31042
0.79331 0.1 -0.5 0.242363
0.79331 0.1 0.5 0.242555
0.904118 0.1 -0.25 0.290822
0.904118 0.1 0.25 0.290926
0.937632 0.1 -0.05 0.309943
0.937632 0.1 0.05 0.309965
0.812675 0.1 0.475 0.248774
0.812675 0.1 -0.475 0.248589
0.568989 0.1 -0.75 0.188792
0.568989 0.1 0.75 0.189028
0.406012 0.1 -0.85 0.170312
0.406012 0.1 0.85 0.170549
0.937632 0.1 -0.1 0.30854
0.937632 0.1 0.1 0.308583
0.183123 0.1 -0.925 0.162598