# Force coefficients
# liftDir     : (0.000000e+00 0.000000e+00 1.000000e+00)
# dragDir     : (1.000000e+00 0.000000e+00 0.000000e+00)
# pitchAxis   : (0.000000e+00 1.000000e+00 0.000000e+00)
# magUInf     : 1.000000e+00
# lRef        : 1.000000e+00
# Aref        : 1.000000e+00
# CofR        : (2.500000e+00 0.000000e+00 0.000000e+00)
#
# Time        	Cm            	Cd            	Cl            	Cl(f)         	Cl(r)         
1             	-4.465216e-04	9.486208e-01	-1.609441e-02	-8.493726e-03	-7.600683e-03
2             	-1.295661e-03	1.617181e+00	-1.431456e-02	-8.452943e-03	-5.861621e-03
3             	-1.431825e-03	2.224519e+00	1.101655e-02	4.076451e-03	6.940100e-03
4             	-5.876582e-04	2.439983e+00	5.008280e-02	2.445374e-02	2.562906e-02
5             	5.767720e-04	2.319156e+00	9.406837e-02	4.761096e-02	4.645741e-02
6             	1.499285e-03	2.025339e+00	1.357871e-01	6.939282e-02	6.639425e-02
7             	2.140030e-03	1.708405e+00	1.726080e-01	8.844404e-02	8.416398e-02
8             	2.741720e-03	1.477053e+00	2.052559e-01	1.053697e-01	9.988624e-02
9             	3.165351e-03	1.364110e+00	2.353435e-01	1.208371e-01	1.145064e-01
10            	3.734530e-03	1.348928e+00	2.654633e-01	1.364662e-01	1.289971e-01
11            	4.592592e-03	1.387245e+00	2.980238e-01	1.536045e-01	1.444193e-01
12            	5.801307e-03	1.440330e+00	3.327802e-01	1.721914e-01	1.605888e-01
13            	7.200147e-03	1.478742e+00	3.685981e-01	1.914992e-01	1.770989e-01
14            	8.933158e-03	1.490967e+00	4.038128e-01	2.108396e-01	1.929733e-01
15            	1.091494e-02	1.480262e+00	4.383992e-01	2.301145e-01	2.082846e-01
16            	1.283846e-02	1.454270e+00	4.719711e-01	2.488240e-01	2.231471e-01
17            	1.467012e-02	1.422022e+00	5.036437e-01	2.664920e-01	2.371517e-01
18            	1.628405e-02	1.390468e+00	5.326423e-01	2.826052e-01	2.500371e-01
19            	1.793527e-02	1.367396e+00	5.593871e-01	2.976288e-01	2.617583e-01
20            	1.936319e-02	1.354061e+00	5.837986e-01	3.112625e-01	2.725361e-01
21            	2.066710e-02	1.348604e+00	6.070231e-01	3.241786e-01	2.828444e-01
22            	2.159393e-02	1.348159e+00	6.300429e-01	3.366154e-01	2.934275e-01
23            	2.197919e-02	1.349454e+00	6.546116e-01	3.492850e-01	3.053266e-01
24            	2.166085e-02	1.349860e+00	6.804547e-01	3.618882e-01	3.185665e-01
25            	2.053062e-02	1.348777e+00	7.048730e-01	3.729671e-01	3.319059e-01
26            	1.856622e-02	1.347000e+00	7.256745e-01	3.814035e-01	3.442711e-01
27            	1.559082e-02	1.345693e+00	7.426448e-01	3.869132e-01	3.557316e-01
28            	1.165115e-02	1.345968e+00	7.565265e-01	3.899144e-01	3.666121e-01
29            	6.686284e-03	1.347869e+00	7.677190e-01	3.905458e-01	3.771732e-01
30            	5.970517e-04	1.351091e+00	7.769241e-01	3.890591e-01	3.878650e-01
31            	-6.534048e-03	1.355546e+00	7.845932e-01	3.857626e-01	3.988307e-01
32            	-1.451438e-02	1.361281e+00	7.906813e-01	3.808263e-01	4.098551e-01
33            	-2.311658e-02	1.368355e+00	7.951701e-01	3.744685e-01	4.207016e-01
34            	-3.249964e-02	1.377165e+00	7.972593e-01	3.661300e-01	4.311293e-01
35            	-4.267011e-02	1.387579e+00	7.970062e-01	3.558330e-01	4.411732e-01
36            	-5.348253e-02	1.399435e+00	7.943741e-01	3.437045e-01	4.506696e-01
37            	-6.472576e-02	1.412530e+00	7.897149e-01	3.301317e-01	4.595832e-01
38            	-7.629473e-02	1.426543e+00	7.828012e-01	3.151059e-01	4.676953e-01
39            	-8.797050e-02	1.440841e+00	7.738346e-01	2.989468e-01	4.748878e-01
40            	-9.929586e-02	1.454685e+00	7.628687e-01	2.821385e-01	4.807302e-01
41            	-1.098599e-01	1.467582e+00	7.501198e-01	2.652000e-01	4.849198e-01
42            	-1.192790e-01	1.479678e+00	7.353866e-01	2.484142e-01	4.869723e-01
43            	-1.273482e-01	1.490601e+00	7.184490e-01	2.318763e-01	4.865728e-01
44            	-1.340425e-01	1.500714e+00	6.996480e-01	2.157815e-01	4.838664e-01
45            	-1.395433e-01	1.510382e+00	6.796887e-01	2.003010e-01	4.793877e-01
46            	-1.442903e-01	1.519707e+00	6.586882e-01	1.850538e-01	4.736344e-01
47            	-1.484475e-01	1.529513e+00	6.362661e-01	1.696856e-01	4.665806e-01
48            	-1.520721e-01	1.540703e+00	6.126954e-01	1.542756e-01	4.584198e-01
49            	-1.553628e-01	1.553306e+00	5.879573e-01	1.386158e-01	4.493415e-01
50            	-1.581689e-01	1.566731e+00	5.624147e-01	1.230385e-01	4.393762e-01
51            	-1.603669e-01	1.580013e+00	5.360473e-01	1.076567e-01	4.283906e-01
52            	-1.621191e-01	1.592063e+00	5.085322e-01	9.214705e-02	4.163852e-01
53            	-1.635157e-01	1.602691e+00	4.806024e-01	7.678554e-02	4.038168e-01
54            	-1.646538e-01	1.612059e+00	4.532236e-01	6.195799e-02	3.912656e-01
55            	-1.655901e-01	1.620297e+00	4.265167e-01	4.766826e-02	3.788485e-01
56            	-1.663625e-01	1.628245e+00	4.002000e-01	3.373746e-02	3.664626e-01
57            	-1.669331e-01	1.636549e+00	3.747641e-01	2.044894e-02	3.543151e-01
58            	-1.673291e-01	1.644941e+00	3.501428e-01	7.742288e-03	3.424005e-01
59            	-1.674170e-01	1.653554e+00	3.261518e-01	-4.341096e-03	3.304929e-01
60            	-1.672296e-01	1.662304e+00	3.021364e-01	-1.616135e-02	3.182978e-01
61            	-1.667382e-01	1.670940e+00	2.787219e-01	-2.737724e-02	3.060991e-01
62            	-1.660630e-01	1.679128e+00	2.562443e-01	-3.794084e-02	2.941851e-01
63            	-1.652973e-01	1.686491e+00	2.344692e-01	-4.806269e-02	2.825319e-01
64            	-1.645637e-01	1.693156e+00	2.132159e-01	-5.795574e-02	2.711716e-01
65            	-1.639213e-01	1.699331e+00	1.927141e-01	-6.756421e-02	2.602783e-01
66            	-1.634596e-01	1.705298e+00	1.733611e-01	-7.677904e-02	2.501401e-01
67            	-1.632404e-01	1.711378e+00	1.553708e-01	-8.555501e-02	2.409258e-01
68            	-1.632690e-01	1.717388e+00	1.389235e-01	-9.380730e-02	2.327308e-01
69            	-1.635748e-01	1.722817e+00	1.241962e-01	-1.014767e-01	2.256729e-01
70            	-1.641247e-01	1.727573e+00	1.110643e-01	-1.085925e-01	2.196568e-01
71            	-1.648649e-01	1.731635e+00	9.952183e-02	-1.151040e-01	2.146258e-01
72            	-1.657343e-01	1.735221e+00	8.996937e-02	-1.207496e-01	2.107190e-01
73            	-1.667308e-01	1.738693e+00	8.251503e-02	-1.254733e-01	2.079883e-01
74            	-1.678382e-01	1.742272e+00	7.681594e-02	-1.294302e-01	2.062462e-01
75            	-1.690190e-01	1.745855e+00	7.235040e-02	-1.328438e-01	2.051942e-01
76            	-1.701784e-01	1.748958e+00	6.870680e-02	-1.358250e-01	2.045318e-01
77            	-1.711363e-01	1.750832e+00	6.572083e-02	-1.382759e-01	2.039967e-01
78            	-1.718042e-01	1.751126e+00	6.330905e-02	-1.401496e-01	2.034587e-01
79            	-1.722328e-01	1.749597e+00	6.157719e-02	-1.414442e-01	2.030214e-01
80            	-1.724773e-01	1.746449e+00	6.039045e-02	-1.422821e-01	2.026725e-01
81            	-1.726511e-01	1.742071e+00	5.922778e-02	-1.430372e-01	2.022650e-01
82            	-1.728034e-01	1.736441e+00	5.789756e-02	-1.438546e-01	2.017522e-01
83            	-1.729256e-01	1.729601e+00	5.641272e-02	-1.447193e-01	2.011320e-01
84            	-1.729867e-01	1.722113e+00	5.474759e-02	-1.456129e-01	2.003605e-01
85            	-1.728602e-01	1.714131e+00	5.310839e-02	-1.463060e-01	1.994144e-01
86            	-1.724599e-01	1.705943e+00	5.157735e-02	-1.466712e-01	1.982486e-01
87            	-1.717125e-01	1.697828e+00	5.016327e-02	-1.466309e-01	1.967942e-01
88            	-1.705857e-01	1.690066e+00	4.902597e-02	-1.460727e-01	1.950986e-01
89            	-1.690762e-01	1.682594e+00	4.831626e-02	-1.449180e-01	1.932343e-01
90            	-1.671822e-01	1.675456e+00	4.824895e-02	-1.430577e-01	1.913066e-01
91            	-1.649978e-01	1.668459e+00	4.905699e-02	-1.404693e-01	1.895263e-01
92            	-1.626044e-01	1.661508e+00	5.084685e-02	-1.371810e-01	1.880279e-01
93            	-1.601961e-01	1.654354e+00	5.365189e-02	-1.333701e-01	1.870220e-01
94            	-1.578726e-01	1.646913e+00	5.778318e-02	-1.289810e-01	1.867642e-01
95            	-1.556816e-01	1.639177e+00	6.315127e-02	-1.241060e-01	1.872572e-01
96            	-1.537063e-01	1.631147e+00	6.940967e-02	-1.190014e-01	1.884111e-01
97            	-1.519681e-01	1.622885e+00	7.636309e-02	-1.137865e-01	1.901496e-01
98            	-1.504532e-01	1.614588e+00	8.378098e-02	-1.085627e-01	1.923437e-01
99            	-1.491808e-01	1.606334e+00	9.116088e-02	-1.036004e-01	1.947612e-01
100           	-1.480782e-01	1.598261e+00	9.855732e-02	-9.879952e-02	1.973568e-01
101           	-1.470915e-01	1.590531e+00	1.060310e-01	-9.407595e-02	2.001070e-01
102           	-1.462190e-01	1.583248e+00	1.133078e-01	-8.956508e-02	2.028729e-01
103           	-1.454110e-01	1.576423e+00	1.202508e-01	-8.528560e-02	2.055364e-01
104           	-1.446612e-01	1.570096e+00	1.266258e-01	-8.134827e-02	2.079741e-01
105           	-1.439680e-01	1.564442e+00	1.322590e-01	-7.783848e-02	2.100975e-01
106           	-1.433502e-01	1.559534e+00	1.369908e-01	-7.485485e-02	2.118456e-01
107           	-1.428216e-01	1.555332e+00	1.406872e-01	-7.247802e-02	2.131653e-01
108           	-1.423594e-01	1.551775e+00	1.433008e-01	-7.070900e-02	2.140098e-01
109           	-1.419529e-01	1.548689e+00	1.447602e-01	-6.957284e-02	2.143330e-01
110           	-1.415995e-01	1.546033e+00	1.450438e-01	-6.907763e-02	2.141214e-01
111           	-1.412464e-01	1.543702e+00	1.441065e-01	-6.919319e-02	2.132996e-01
112           	-1.408460e-01	1.541719e+00	1.419203e-01	-6.988589e-02	2.118062e-01
113           	-1.403486e-01	1.539925e+00	1.385877e-01	-7.105470e-02	2.096424e-01
114           	-1.397278e-01	1.538422e+00	1.342750e-01	-7.259029e-02	2.068653e-01
115           	-1.389831e-01	1.537320e+00	1.292072e-01	-7.437952e-02	2.035867e-01
116           	-1.381433e-01	1.536532e+00	1.234616e-01	-7.641254e-02	1.998741e-01
117           	-1.372063e-01	1.535963e+00	1.170855e-01	-7.866359e-02	1.957491e-01
118           	-1.361779e-01	1.535585e+00	1.101084e-01	-8.112375e-02	1.912321e-01
119           	-1.350863e-01	1.535368e+00	1.026141e-01	-8.377927e-02	1.863933e-01
120           	-1.339718e-01	1.535273e+00	9.479215e-02	-8.657575e-02	1.813679e-01
121           	-1.329065e-01	1.535288e+00	8.682940e-02	-8.949179e-02	1.763212e-01
122           	-1.319401e-01	1.535360e+00	7.866325e-02	-9.260845e-02	1.712717e-01
123           	-1.311013e-01	1.535515e+00	7.033312e-02	-9.593476e-02	1.662679e-01
124           	-1.304196e-01	1.535909e+00	6.195923e-02	-9.944003e-02	1.613993e-01
125           	-1.298820e-01	1.536564e+00	5.335031e-02	-1.032068e-01	1.565571e-01
126           	-1.294590e-01	1.537458e+00	4.424236e-02	-1.073379e-01	1.515802e-01
127           	-1.291212e-01	1.538625e+00	3.456296e-02	-1.118397e-01	1.464027e-01
128           	-1.288643e-01	1.540026e+00	2.438163e-02	-1.166734e-01	1.410551e-01
129           	-1.286873e-01	1.541627e+00	1.377930e-02	-1.217977e-01	1.355770e-01
130           	-1.285847e-01	1.543532e+00	2.703399e-03	-1.272330e-01	1.299364e-01
131           	-1.285279e-01	1.545785e+00	-8.880958e-03	-1.329684e-01	1.240875e-01
132           	-1.285129e-01	1.548447e+00	-2.093305e-02	-1.389794e-01	1.180464e-01
133           	-1.285501e-01	1.551408e+00	-3.343474e-02	-1.452675e-01	1.118328e-01
134           	-1.286545e-01	1.554711e+00	-4.624057e-02	-1.517747e-01	1.055342e-01
135           	-1.288181e-01	1.558326e+00	-5.928526e-02	-1.584607e-01	9.917547e-02
136           	-1.290133e-01	1.562279e+00	-7.248008e-02	-1.652534e-01	9.277327e-02
137           	-1.292439e-01	1.566631e+00	-8.570750e-02	-1.720976e-01	8.639015e-02
138           	-1.294998e-01	1.571330e+00	-9.885988e-02	-1.789297e-01	8.006984e-02
139           	-1.297629e-01	1.576211e+00	-1.119119e-01	-1.857188e-01	7.380692e-02
140           	-1.300272e-01	1.581204e+00	-1.248421e-01	-1.924482e-01	6.760612e-02
141           	-1.302772e-01	1.586267e+00	-1.376676e-01	-1.991110e-01	6.144337e-02
142           	-1.305112e-01	1.591353e+00	-1.503241e-01	-2.056733e-01	5.534919e-02
143           	-1.307291e-01	1.596474e+00	-1.627000e-01	-2.120791e-01	4.937910e-02
144           	-1.309324e-01	1.601641e+00	-1.746953e-01	-2.182800e-01	4.358473e-02
145           	-1.311175e-01	1.606835e+00	-1.861550e-01	-2.241949e-01	3.803998e-02
146           	-1.312813e-01	1.612091e+00	-1.970393e-01	-2.298009e-01	3.276162e-02
147           	-1.314186e-01	1.617379e+00	-2.072927e-01	-2.350650e-01	2.777226e-02
148           	-1.315319e-01	1.622699e+00	-2.168470e-01	-2.399554e-01	2.310840e-02
149           	-1.316204e-01	1.628048e+00	-2.256762e-01	-2.444585e-01	1.878234e-02
150           	-1.316740e-01	1.633308e+00	-2.337525e-01	-2.485502e-01	1.479771e-02
151           	-1.316819e-01	1.638346e+00	-2.411021e-01	-2.522329e-01	1.113080e-02
152           	-1.316442e-01	1.643017e+00	-2.477152e-01	-2.555018e-01	7.786617e-03
153           	-1.315597e-01	1.647330e+00	-2.537379e-01	-2.584287e-01	4.690803e-03
154           	-1.314280e-01	1.651221e+00	-2.591757e-01	-2.610159e-01	1.840138e-03
155           	-1.312499e-01	1.654621e+00	-2.641118e-01	-2.633058e-01	-8.060065e-04
156           	-1.310257e-01	1.657474e+00	-2.685510e-01	-2.653012e-01	-3.249766e-03
157           	-1.307538e-01	1.659763e+00	-2.724722e-01	-2.669899e-01	-5.482277e-03
158           	-1.304346e-01	1.661472e+00	-2.759121e-01	-2.683906e-01	-7.521479e-03
159           	-1.300573e-01	1.662623e+00	-2.788836e-01	-2.694991e-01	-9.384506e-03
160           	-1.296206e-01	1.663214e+00	-2.813757e-01	-2.703084e-01	-1.106732e-02
161           	-1.291261e-01	1.663239e+00	-2.833969e-01	-2.708245e-01	-1.257236e-02
162           	-1.285714e-01	1.662678e+00	-2.849775e-01	-2.710601e-01	-1.391734e-02
163           	-1.279559e-01	1.661557e+00	-2.861965e-01	-2.710542e-01	-1.514231e-02
164           	-1.272872e-01	1.659955e+00	-2.871022e-01	-2.708383e-01	-1.626390e-02
165           	-1.265681e-01	1.657935e+00	-2.877365e-01	-2.704363e-01	-1.730019e-02
166           	-1.257951e-01	1.655540e+00	-2.881343e-01	-2.698623e-01	-1.827199e-02
167           	-1.249572e-01	1.652821e+00	-2.882821e-01	-2.690983e-01	-1.918382e-02
168           	-1.240455e-01	1.649815e+00	-2.881860e-01	-2.681385e-01	-2.004749e-02
169           	-1.230489e-01	1.646556e+00	-2.878732e-01	-2.669855e-01	-2.088764e-02
170           	-1.219599e-01	1.643095e+00	-2.873250e-01	-2.656224e-01	-2.170266e-02
171           	-1.207710e-01	1.639484e+00	-2.865277e-01	-2.640349e-01	-2.249279e-02
172           	-1.194690e-01	1.635720e+00	-2.856007e-01	-2.622693e-01	-2.333140e-02
173           	-1.180454e-01	1.631806e+00	-2.845879e-01	-2.603393e-01	-2.424858e-02
174           	-1.165005e-01	1.627808e+00	-2.834429e-01	-2.582220e-01	-2.522096e-02
175           	-1.148364e-01	1.623703e+00	-2.821377e-01	-2.559053e-01	-2.623244e-02
176           	-1.130629e-01	1.619519e+00	-2.806142e-01	-2.533700e-01	-2.724423e-02
177           	-1.111861e-01	1.615336e+00	-2.788522e-01	-2.506122e-01	-2.823999e-02
178           	-1.092138e-01	1.611216e+00	-2.768830e-01	-2.476553e-01	-2.922768e-02
179           	-1.071663e-01	1.607183e+00	-2.747350e-01	-2.445338e-01	-3.020115e-02
180           	-1.050413e-01	1.603102e+00	-2.724205e-01	-2.412515e-01	-3.116898e-02
181           	-1.028521e-01	1.598949e+00	-2.699809e-01	-2.378426e-01	-3.213831e-02
182           	-1.006349e-01	1.594748e+00	-2.673793e-01	-2.343246e-01	-3.305472e-02
183           	-9.841939e-02	1.590575e+00	-2.645144e-01	-2.306766e-01	-3.383783e-02
184           	-9.622838e-02	1.586463e+00	-2.612749e-01	-2.268658e-01	-3.440904e-02
185           	-9.407857e-02	1.582432e+00	-2.575773e-01	-2.228672e-01	-3.471009e-02
186           	-9.199335e-02	1.578528e+00	-2.532847e-01	-2.186357e-01	-3.464900e-02
187           	-9.000857e-02	1.574770e+00	-2.482722e-01	-2.141447e-01	-3.412751e-02
188           	-8.816666e-02	1.571141e+00	-2.424711e-01	-2.094022e-01	-3.306891e-02
189           	-8.649959e-02	1.567577e+00	-2.358456e-01	-2.044224e-01	-3.142320e-02
190           	-8.504235e-02	1.564055e+00	-2.283847e-01	-1.992347e-01	-2.914999e-02
191           	-8.383725e-02	1.560597e+00	-2.201003e-01	-1.938874e-01	-2.621289e-02
192           	-8.290821e-02	1.557170e+00	-2.110512e-01	-1.884338e-01	-2.261737e-02
193           	-8.227609e-02	1.553754e+00	-2.012601e-01	-1.829061e-01	-1.835397e-02
194           	-8.196809e-02	1.550365e+00	-1.907300e-01	-1.773331e-01	-1.339691e-02
195           	-8.198877e-02	1.546975e+00	-1.794850e-01	-1.717313e-01	-7.753721e-03
196           	-8.232450e-02	1.543540e+00	-1.675941e-01	-1.661215e-01	-1.472537e-03
197           	-8.295087e-02	1.540017e+00	-1.552454e-01	-1.605736e-01	5.328173e-03
198           	-8.383820e-02	1.536392e+00	-1.424940e-01	-1.550852e-01	1.259121e-02
199           	-8.495466e-02	1.532687e+00	-1.293371e-01	-1.496232e-01	2.028610e-02
200           	-8.627313e-02	1.528872e+00	-1.157359e-01	-1.441411e-01	2.840517e-02
201           	-8.775386e-02	1.524936e+00	-1.016666e-01	-1.385872e-01	3.692054e-02
202           	-8.934015e-02	1.520743e+00	-8.736614e-02	-1.330232e-01	4.565709e-02
203           	-9.103160e-02	1.516108e+00	-7.293104e-02	-1.274971e-01	5.456608e-02
204           	-9.280336e-02	1.511016e+00	-5.833768e-02	-1.219722e-01	6.363452e-02
205           	-9.459782e-02	1.505565e+00	-4.359643e-02	-1.163960e-01	7.279960e-02
206           	-9.636788e-02	1.499887e+00	-2.869451e-02	-1.107151e-01	8.202063e-02
207           	-9.810035e-02	1.494080e+00	-1.366699e-02	-1.049338e-01	9.126685e-02
208           	-9.977498e-02	1.488085e+00	1.300421e-03	-9.912477e-02	1.004252e-01
209           	-1.013817e-01	1.481909e+00	1.622080e-02	-9.327132e-02	1.094921e-01
210           	-1.029127e-01	1.475715e+00	3.119337e-02	-8.731602e-02	1.185094e-01
211           	-1.043382e-01	1.469589e+00	4.606324e-02	-8.130662e-02	1.273699e-01
212           	-1.056353e-01	1.463563e+00	6.066355e-02	-7.530357e-02	1.359671e-01
213           	-1.067770e-01	1.457711e+00	7.476578e-02	-6.939410e-02	1.441599e-01
214           	-1.077286e-01	1.452152e+00	8.829824e-02	-6.357944e-02	1.518777e-01
215           	-1.084590e-01	1.447016e+00	1.011486e-01	-5.788476e-02	1.590333e-01
216           	-1.089618e-01	1.442250e+00	1.132080e-01	-5.235775e-02	1.655658e-01
217           	-1.092478e-01	1.437882e+00	1.245143e-01	-4.699062e-02	1.715049e-01
218           	-1.093251e-01	1.433829e+00	1.350003e-01	-4.182498e-02	1.768252e-01
219           	-1.092028e-01	1.430074e+00	1.445754e-01	-3.691513e-02	1.814906e-01
220           	-1.088862e-01	1.426646e+00	1.532307e-01	-3.227082e-02	1.855015e-01
221           	-1.083971e-01	1.423558e+00	1.608558e-01	-2.796920e-02	1.888250e-01
222           	-1.077503e-01	1.420760e+00	1.673461e-01	-2.407725e-02	1.914233e-01
223           	-1.069610e-01	1.418273e+00	1.726531e-01	-2.063449e-02	1.932876e-01
224           	-1.060525e-01	1.416165e+00	1.767388e-01	-1.768311e-02	1.944219e-01
225           	-1.050470e-01	1.414512e+00	1.796196e-01	-1.523722e-02	1.948568e-01
226           	-1.039885e-01	1.413372e+00	1.813239e-01	-1.332651e-02	1.946504e-01
227           	-1.029349e-01	1.412672e+00	1.818792e-01	-1.199526e-02	1.938744e-01
228           	-1.019338e-01	1.412364e+00	1.813648e-01	-1.125135e-02	1.926162e-01
229           	-1.010073e-01	1.412388e+00	1.796652e-01	-1.117468e-02	1.908398e-01
230           	-1.001838e-01	1.412844e+00	1.767245e-01	-1.182157e-02	1.885460e-01
231           	-9.949752e-02	1.413811e+00	1.727303e-01	-1.313237e-02	1.858627e-01
232           	-9.898692e-02	1.415375e+00	1.677962e-01	-1.508883e-02	1.828850e-01
233           	-9.867494e-02	1.417540e+00	1.620212e-01	-1.766436e-02	1.796855e-01
234           	-9.857083e-02	1.420311e+00	1.554260e-01	-2.085784e-02	1.762838e-01
235           	-9.865568e-02	1.423559e+00	1.480322e-01	-2.463958e-02	1.726718e-01
236           	-9.893465e-02	1.427114e+00	1.398220e-01	-2.902366e-02	1.688456e-01
237           	-9.939021e-02	1.430890e+00	1.308756e-01	-3.395242e-02	1.648280e-01
238           	-1.000000e-01	1.434880e+00	1.212955e-01	-3.935228e-02	1.606477e-01
239           	-1.007453e-01	1.438976e+00	1.111792e-01	-4.515569e-02	1.563349e-01
240           	-1.016239e-01	1.443207e+00	1.005596e-01	-5.134414e-02	1.519037e-01
241           	-1.026133e-01	1.447512e+00	8.954392e-02	-5.784139e-02	1.473853e-01
242           	-1.036942e-01	1.451899e+00	7.825816e-02	-6.456509e-02	1.428233e-01
243           	-1.048479e-01	1.456270e+00	6.673065e-02	-7.148257e-02	1.382132e-01
244           	-1.060401e-01	1.460600e+00	5.495905e-02	-7.856059e-02	1.335196e-01
245           	-1.072439e-01	1.464844e+00	4.298841e-02	-8.574966e-02	1.287381e-01
246           	-1.084364e-01	1.468975e+00	3.088670e-02	-9.299303e-02	1.238797e-01
247           	-1.096005e-01	1.472976e+00	1.867493e-02	-1.002630e-01	1.189379e-01
248           	-1.107224e-01	1.476796e+00	6.424429e-03	-1.075102e-01	1.139346e-01
249           	-1.117801e-01	1.480421e+00	-5.823931e-03	-1.146921e-01	1.088682e-01
250           	-1.127665e-01	1.483881e+00	-1.805364e-02	-1.217933e-01	1.037396e-01
251           	-1.136801e-01	1.487191e+00	-3.024235e-02	-1.288013e-01	9.855896e-02
252           	-1.145153e-01	1.490360e+00	-4.233817e-02	-1.356844e-01	9.334619e-02
253           	-1.152668e-01	1.493406e+00	-5.431569e-02	-1.424246e-01	8.810891e-02
254           	-1.159314e-01	1.496331e+00	-6.615850e-02	-1.490107e-01	8.285218e-02
255           	-1.165085e-01	1.499148e+00	-7.783946e-02	-1.554282e-01	7.758877e-02
256           	-1.169992e-01	1.501883e+00	-8.930193e-02	-1.616502e-01	7.234826e-02
257           	-1.174050e-01	1.504511e+00	-1.004904e-01	-1.676502e-01	6.715979e-02
258           	-1.177296e-01	1.507005e+00	-1.113731e-01	-1.734161e-01	6.204304e-02
259           	-1.179762e-01	1.509362e+00	-1.219248e-01	-1.789386e-01	5.701375e-02
260           	-1.181458e-01	1.511602e+00	-1.321241e-01	-1.842078e-01	5.208377e-02
261           	-1.182438e-01	1.513750e+00	-1.419500e-01	-1.892188e-01	4.726873e-02
262           	-1.182766e-01	1.515829e+00	-1.513857e-01	-1.939695e-01	4.258376e-02
263           	-1.182538e-01	1.517842e+00	-1.604070e-01	-1.984573e-01	3.805031e-02
264           	-1.181871e-01	1.519768e+00	-1.689790e-01	-2.026766e-01	3.369761e-02
265           	-1.180867e-01	1.521583e+00	-1.770731e-01	-2.066232e-01	2.955015e-02
266           	-1.179606e-01	1.523284e+00	-1.846632e-01	-2.102922e-01	2.562897e-02
267           	-1.178123e-01	1.524855e+00	-1.917496e-01	-2.136871e-01	2.193745e-02
268           	-1.176429e-01	1.526279e+00	-1.983262e-01	-2.168060e-01	1.847982e-02
269           	-1.174575e-01	1.527552e+00	-2.043888e-01	-2.196519e-01	1.526311e-02
270           	-1.172602e-01	1.528679e+00	-2.099294e-01	-2.222249e-01	1.229550e-02
271           	-1.170534e-01	1.529650e+00	-2.149442e-01	-2.245255e-01	9.581300e-03
272           	-1.168366e-01	1.530459e+00	-2.194231e-01	-2.265481e-01	7.125045e-03
273           	-1.166109e-01	1.531091e+00	-2.233580e-01	-2.282899e-01	4.931951e-03
274           	-1.163734e-01	1.531524e+00	-2.267666e-01	-2.297567e-01	2.990084e-03
275           	-1.161222e-01	1.531742e+00	-2.296622e-01	-2.309533e-01	1.291118e-03
276           	-1.158598e-01	1.531725e+00	-2.320429e-01	-2.318812e-01	-1.616625e-04
277           	-1.155874e-01	1.531460e+00	-2.339038e-01	-2.325393e-01	-1.364500e-03
278           	-1.153071e-01	1.530946e+00	-2.352521e-01	-2.329332e-01	-2.318982e-03
279           	-1.150280e-01	1.530203e+00	-2.360847e-01	-2.330704e-01	-3.014352e-03
280           	-1.147364e-01	1.529144e+00	-2.364328e-01	-2.329528e-01	-3.479976e-03
281           	-1.144172e-01	1.527708e+00	-2.363192e-01	-2.325767e-01	-3.742414e-03
282           	-1.140745e-01	1.525975e+00	-2.357371e-01	-2.319431e-01	-3.794024e-03
283           	-1.137191e-01	1.523980e+00	-2.346611e-01	-2.310497e-01	-3.611414e-03
284           	-1.133569e-01	1.521703e+00	-2.330799e-01	-2.298969e-01	-3.183022e-03
285           	-1.129858e-01	1.519155e+00	-2.310123e-01	-2.284920e-01	-2.520373e-03
286           	-1.126010e-01	1.516354e+00	-2.284801e-01	-2.268411e-01	-1.639025e-03
287           	-1.121965e-01	1.513323e+00	-2.255129e-01	-2.249529e-01	-5.599831e-04
288           	-1.117691e-01	1.510086e+00	-2.221375e-01	-2.228379e-01	7.003676e-04
289           	-1.113194e-01	1.506654e+00	-2.183647e-01	-2.205018e-01	2.137076e-03
290           	-1.108488e-01	1.503041e+00	-2.142030e-01	-2.179503e-01	3.747238e-03
291           	-1.103567e-01	1.499261e+00	-2.096687e-01	-2.151910e-01	5.522355e-03
292           	-1.098406e-01	1.495340e+00	-2.047937e-01	-2.122375e-01	7.443738e-03
293           	-1.092994e-01	1.491302e+00	-1.996150e-01	-2.091069e-01	9.491944e-03
294           	-1.087327e-01	1.487171e+00	-1.941704e-01	-2.058179e-01	1.164751e-02
295           	-1.081402e-01	1.482974e+00	-1.884960e-01	-2.023882e-01	1.389218e-02
296           	-1.075184e-01	1.478695e+00	-1.825830e-01	-1.988099e-01	1.622688e-02
297           	-1.068698e-01	1.474413e+00	-1.765212e-01	-1.951304e-01	1.860923e-02
298           	-1.061981e-01	1.470160e+00	-1.703343e-01	-1.913652e-01	2.103095e-02
299           	-1.055074e-01	1.465944e+00	-1.640381e-01	-1.875265e-01	2.348836e-02
300           	-1.048023e-01	1.461785e+00	-1.576324e-01	-1.836185e-01	2.598615e-02
301           	-1.040843e-01	1.457699e+00	-1.511338e-01	-1.796512e-01	2.851738e-02
302           	-1.033541e-01	1.453705e+00	-1.445693e-01	-1.756388e-01	3.106948e-02
303           	-1.026188e-01	1.449765e+00	-1.379639e-01	-1.716007e-01	3.363681e-02
304           	-1.018844e-01	1.445886e+00	-1.313371e-01	-1.675530e-01	3.621589e-02
305           	-1.011591e-01	1.442101e+00	-1.247015e-01	-1.635098e-01	3.880838e-02
306           	-1.004467e-01	1.438421e+00	-1.181189e-01	-1.595061e-01	4.138722e-02
307           	-9.975414e-02	1.434852e+00	-1.116154e-01	-1.555619e-01	4.394642e-02
308           	-9.909046e-02	1.431416e+00	-1.051905e-01	-1.516857e-01	4.649521e-02
309           	-9.846350e-02	1.428119e+00	-9.885036e-02	-1.478887e-01	4.903832e-02
310           	-9.787110e-02	1.424922e+00	-9.264030e-02	-1.441913e-01	5.155095e-02
311           	-9.731989e-02	1.421845e+00	-8.654145e-02	-1.405906e-01	5.404916e-02
312           	-9.681656e-02	1.418913e+00	-8.052838e-02	-1.370807e-01	5.655237e-02
313           	-9.635886e-02	1.416077e+00	-7.473293e-02	-1.337253e-01	5.899240e-02
314           	-9.595510e-02	1.413388e+00	-6.922520e-02	-1.305677e-01	6.134250e-02
315           	-9.559855e-02	1.410812e+00	-6.386316e-02	-1.275301e-01	6.366697e-02
316           	-9.528832e-02	1.408313e+00	-5.867724e-02	-1.246269e-01	6.594970e-02
317           	-9.502382e-02	1.405920e+00	-5.367582e-02	-1.218617e-01	6.818591e-02
318           	-9.480646e-02	1.403636e+00	-4.888906e-02	-1.192510e-01	7.036194e-02
319           	-9.463527e-02	1.401457e+00	-4.438045e-02	-1.168255e-01	7.244504e-02
320           	-9.451102e-02	1.399431e+00	-4.014881e-02	-1.145854e-01	7.443662e-02
321           	-9.442774e-02	1.397551e+00	-3.620463e-02	-1.125301e-01	7.632543e-02
322           	-9.438416e-02	1.395840e+00	-3.256828e-02	-1.106683e-01	7.810002e-02
323           	-9.437281e-02	1.394285e+00	-2.926745e-02	-1.090065e-01	7.973909e-02
324           	-9.439612e-02	1.392889e+00	-2.628781e-02	-1.075400e-01	8.125222e-02
325           	-9.444598e-02	1.391629e+00	-2.363536e-02	-1.062637e-01	8.262830e-02
326           	-9.452412e-02	1.390542e+00	-2.131939e-02	-1.051838e-01	8.386443e-02
327           	-9.462518e-02	1.389577e+00	-1.932677e-02	-1.042886e-01	8.496180e-02
328           	-9.474635e-02	1.388786e+00	-1.767475e-02	-1.035837e-01	8.590898e-02
329           	-9.488414e-02	1.388130e+00	-1.635654e-02	-1.030624e-01	8.670587e-02
330           	-9.503681e-02	1.387637e+00	-1.536705e-02	-1.027203e-01	8.735329e-02
331           	-9.519861e-02	1.387321e+00	-1.471046e-02	-1.025538e-01	8.784338e-02
332           	-9.537160e-02	1.387157e+00	-1.438744e-02	-1.025653e-01	8.817788e-02
333           	-9.554698e-02	1.387130e+00	-1.440974e-02	-1.027519e-01	8.834211e-02
334           	-9.572962e-02	1.387238e+00	-1.475696e-02	-1.031081e-01	8.835114e-02
335           	-9.591409e-02	1.387490e+00	-1.542080e-02	-1.036245e-01	8.820370e-02
336           	-9.609939e-02	1.387901e+00	-1.640226e-02	-1.043005e-01	8.789826e-02
337           	-9.628482e-02	1.388476e+00	-1.770277e-02	-1.051362e-01	8.743344e-02
338           	-9.646759e-02	1.389197e+00	-1.933373e-02	-1.061345e-01	8.680072e-02
339           	-9.664771e-02	1.390037e+00	-2.129076e-02	-1.072931e-01	8.600233e-02
340           	-9.682435e-02	1.391021e+00	-2.356818e-02	-1.086084e-01	8.504026e-02
341           	-9.699450e-02	1.392117e+00	-2.615998e-02	-1.100745e-01	8.391451e-02
342           	-9.715872e-02	1.393348e+00	-2.905696e-02	-1.116872e-01	8.263024e-02
343           	-9.731794e-02	1.394724e+00	-3.226103e-02	-1.134485e-01	8.118742e-02
344           	-9.747104e-02	1.396199e+00	-3.576015e-02	-1.153511e-01	7.959096e-02
345           	-9.761551e-02	1.397780e+00	-3.954182e-02	-1.173864e-01	7.784461e-02
346           	-9.775063e-02	1.399476e+00	-4.360091e-02	-1.195511e-01	7.595018e-02
347           	-9.787879e-02	1.401291e+00	-4.792178e-02	-1.218397e-01	7.391790e-02
348           	-9.799948e-02	1.403207e+00	-5.249722e-02	-1.242481e-01	7.175087e-02
349           	-9.811130e-02	1.405210e+00	-5.731853e-02	-1.267706e-01	6.945204e-02
350           	-9.821491e-02	1.407305e+00	-6.237053e-02	-1.294002e-01	6.702965e-02
351           	-9.831061e-02	1.409474e+00	-6.764379e-02	-1.321325e-01	6.448872e-02
352           	-9.839916e-02	1.411712e+00	-7.313781e-02	-1.349681e-01	6.183026e-02
353           	-9.848132e-02	1.414007e+00	-7.882455e-02	-1.378936e-01	5.906905e-02
354           	-9.855952e-02	1.416352e+00	-8.467791e-02	-1.408985e-01	5.622056e-02
355           	-9.863460e-02	1.418747e+00	-9.068451e-02	-1.439769e-01	5.329235e-02
356           	-9.870716e-02	1.421194e+00	-9.683097e-02	-1.471226e-01	5.029167e-02
357           	-9.877768e-02	1.423685e+00	-1.031004e-01	-1.503279e-01	4.722747e-02
358           	-9.884664e-02	1.426211e+00	-1.094729e-01	-1.535831e-01	4.411021e-02