0.00193819 	0 	0 	0
0.078365 	0 	0 	0
0.0884981 	0 	0 	0
0.0994401 	0 	0 	0
0.111256 	0 	0 	0
0.124016 	0 	0 	0
0.137793 	0 	0 	0
0.152671 	0 	0 	0
0.168737 	0 	0 	0
0.186085 	0 	0 	0
0.204819 	0 	0 	0
0.225048 	0 	0 	0
0.296488 	0 	0 	0
0.324578 	0 	0 	0
0.354383 	0 	0 	0
0.386566 	0 	0 	0
0.42132 	0 	0 	0
0.458849 	0 	0 	0
0.499373 	0 	0 	0
0.541258 	0 	0 	0
0.588349 	0 	0 	0
0.6392 	0 	0 	0
0.694111 	0 	0 	0
0.753405 	0 	0 	0
0.817434 	0 	0 	0
0.886575 	0 	0 	0
0.961236 	0 	0 	0
