7.025 	0 	0 	0
7.075 	0 	0 	0
7.125 	0 	0 	0
7.175 	0 	0 	0
7.225 	0 	0 	0
7.275 	0 	0 	0
7.325 	0 	0 	0
7.375 	0 	0 	0
7.425 	0 	0 	0
7.475 	0 	0 	0
7.525 	0 	0 	0
7.575 	0 	0 	0
7.625 	0 	0 	0
7.675 	0 	0 	0
7.725 	0 	0 	0
7.775 	0 	0 	0
7.825 	0 	0 	0
7.875 	0 	0 	0
7.925 	0 	0 	0
7.975 	0 	0 	0
