0.961236 	0 	0 	0
0.886575 	0 	0 	0
0.817434 	0 	0 	0
0.753405 	0 	0 	0
0.69411 	0 	0 	0
0.323457 	0 	0 	0
0.295952 	0 	0 	0
0.270481 	0 	0 	0
0.246893 	0 	0 	0
0.137793 	0 	0 	0
0.124016 	0 	0 	0
0.111256 	0 	0 	0
0.0994401 	0 	0 	0
0.088498 	0 	0 	0
0.0783649 	0 	0 	0
0.0689811 	0 	0 	0
0.060291 	0 	0 	0
0.0522435 	0 	0 	0
0.044791 	0 	0 	0
0.0378895 	0 	0 	0
