# wallShearStress  FACE_DATA 60650
# x  y  z  wallShearStress_x  wallShearStress_y  wallShearStress_z
8.7572 0 0.345731 -0.000469502 -8.27078e-06 0.00257187
8.72516 0 0.336919 -0.000382193 -8.70083e-06 0.00256995
8.69439 0 0.328456 -0.000306813 -8.5255e-06 0.00256504
8.66483 0 0.32033 -0.000229991 -9.13728e-06 0.00254979
8.63646 0 0.312525 -0.000160692 -9.64722e-06 0.00252901
8.6092 0 0.305031 -9.47536e-05 -9.37194e-06 0.00250273
8.58303 0 0.297834 -3.30397e-05 -8.17267e-06 0.00246995
8.82532 0 0.430728 -0.000797568 -3.63583e-06 0.002444
8.79057 0 0.419435 -0.000694019 -5.96677e-06 0.0024886
8.7572 0 0.408591 -0.000617427 -5.21308e-06 0.00253724
8.72516 0 0.398176 -0.000527479 -5.8443e-06 0.0025712
8.69439 0 0.388175 -0.000446308 -6.06327e-06 0.00259833
8.66483 0 0.378571 -0.000363586 -6.57308e-06 0.00261446
8.63646 0 0.369348 -0.000285809 -6.85212e-06 0.00262211
8.6092 0 0.360491 -0.000209658 -7.31566e-06 0.00262012
8.58303 0 0.351985 -0.000137988 -7.76724e-06 0.00260958
8.5579 0 0.343817 -7.01933e-05 -6.97449e-06 0.00258997
8.53376 0 0.335973 -8.67354e-06 -6.51421e-06 0.00256451
8.51058 0 0.32844 4.87348e-05 -7.39307e-06 0.00253214
8.93841 0 0.539402 -0.00114366 -6.44922e-06 0.00190507
8.89917 0 0.52469 -0.00113384 2.84739e-06 0.00203182
8.8615 0 0.510561 -0.00100215 -2.82296e-06 0.00211544
8.82532 0 0.496993 -0.000942342 2.38828e-07 0.00221575
8.79057 0 0.483964 -0.000841723 -1.9991e-06 0.00229474
8.7572 0 0.471451 -0.000762647 -1.65851e-06 0.00237437
8.72516 0 0.459434 -0.00067139 -2.92166e-06 0.00244082
8.69439 0 0.447895 -0.000586727 -3.14924e-06 0.0025016
8.66483 0 0.436813 -0.00049931 -3.79467e-06 0.00255146
8.63646 0 0.426171 -0.000414752 -4.09775e-06 0.00259194
8.6092 0 0.415951 -0.000331546 -4.60262e-06 0.00262102
8.58303 0 0.406137 -0.000251553 -5.11494e-06 0.00264007
8.5579 0 0.396712 -0.000175287 -5.80524e-06 0.00264866
8.53376 0 0.387661 -0.000102838 -5.33067e-06 0.00264801
8.51058 0 0.378969 -3.54669e-05 -4.6233e-06 0.00263843
8.48832 0 0.370622 2.77253e-05 -4.99166e-06 0.00262057
8.46695 0 0.362606 8.6243e-05 -6.01628e-06 0.00259509
8.93841 0 0.611323 -0.00126159 -4.5269e-06 0.00151808
8.89917 0 0.594649 -0.00125076 3.86572e-06 0.00165548
8.8615 0 0.578636 -0.00112898 -1.21705e-06 0.00176856
8.82532 0 0.563259 -0.00106947 1.53004e-06 0.00188718
8.79057 0 0.548492 -0.00097347 2.5879e-07 0.00199191
8.7572 0 0.534311 -0.000894057 8.89222e-07 0.0020957
8.72516 0 0.520692 -0.00080305 4.84659e-07 0.00219019
8.69439 0 0.507614 -0.000716429 1.54319e-07 0.00227833
8.66483 0 0.495055 -0.00062688 -3.54869e-07 0.0023576
8.63646 0 0.482994 -0.000539369 -1.00101e-06 0.00242871
8.6092 0 0.471411 -0.000451792 -1.60559e-06 0.00249025
8.58303 0 0.460288 -0.000366088 -2.18459e-06 0.00254233
8.5579 0 0.449607 -0.000281891 -2.59003e-06 0.00258429
8.53376 0 0.439349 -0.00020138 -3.08701e-06 0.0026152
8.51058 0 0.429498 -0.000123975 -3.46796e-06 0.00263491
8.48832 0 0.420038 -5.14481e-05 -2.88315e-06 0.00264324
8.46695 0 0.410953 1.67792e-05 -2.45076e-06 0.00264245
8.44642 0 0.402229 7.99818e-05 -3.40685e-06 0.00263321
8.42671 0 0.393851 0.000137224 -4.09037e-06 0.00261438
8.93841 0 0.683243 -0.00135764 -1.99229e-06 0.00110777
8.89917 0 0.664607 -0.00134437 5.68368e-06 0.00124718
8.8615 0 0.646711 -0.0012306 9.85007e-07 0.00138007
8.82532 0 0.629525 -0.00117058 2.76953e-06 0.00151173
8.79057 0 0.61302 -0.0010795 1.32978e-06 0.00163475
8.7572 0 0.597171 -0.00100157 1.76541e-06 0.00175311
8.72516 0 0.58195 -0.000913765 1.51784e-06 0.00186416
8.69439 0 0.567333 -0.000828676 1.70219e-06 0.00197057
8.66483 0 0.553296 -0.000739534 1.6827e-06 0.00207074
8.63646 0 0.539816 -0.000650754 1.59833e-06 0.002164
8.6092 0 0.526871 -0.000560472 1.38846e-06 0.0022497
8.58303 0 0.51444 -0.000471035 9.52178e-07 0.00232717
8.5579 0 0.502501 -0.000383032 4.86879e-07 0.00239642
8.53376 0 0.491037 -0.000297542 -9.85784e-08 0.00245706
8.51058 0 0.480027 -0.000214341 -6.1585e-07 0.00250817
8.48832 0 0.469454 -0.000133839 -1.20748e-06 0.00255017
8.46695 0 0.459301 -5.69539e-05 -4.23539e-07 0.00258013
8.44642 0 0.44955 1.52163e-05 3.9222e-07 0.0026001
8.42671 0 0.440186 8.29279e-05 -7.92053e-07 0.00260913
8.40778 0 0.431194 0.000145912 -1.79019e-06 0.00260819
8.3896 0 0.422558 0.000204197 -1.89541e-06 0.00259859
8.93841 0 0.755163 -0.00142984 -5.88833e-07 0.000679443
8.89917 0 0.734566 -0.00141064 6.2538e-06 0.000818909
8.8615 0 0.714786 -0.00131071 2.51489e-06 0.000968391
8.82532 0 0.695791 -0.00125273 3.93609e-06 0.00111003
8.79057 0 0.677549 -0.0011686 2.77396e-06 0.00124759
8.7572 0 0.660031 -0.00109157 2.65009e-06 0.00138018
8.72516 0 0.643208 -0.00100494 2.18443e-06 0.0015071
8.69439 0 0.627053 -0.000919807 2.26139e-06 0.00162702
8.66483 0 0.611538 -0.000831133 2.30115e-06 0.00173996
8.63646 0 0.596639 -0.000742294 2.37531e-06 0.00184669
8.6092 0 0.582331 -0.000652472 2.39554e-06 0.00194753
8.58303 0 0.568591 -0.000562608 2.36542e-06 0.00204165
8.5579 0 0.555396 -0.000473234 2.35312e-06 0.00212909
8.53376 0 0.542725 -0.000384868 2.18495e-06 0.00220965
8.51058 0 0.530556 -0.000297594 1.94882e-06 0.002283
8.48832 0 0.51887 -0.000212431 1.51183e-06 0.00234837
8.46695 0 0.507648 -0.00012976 1.17648e-06 0.00240509
8.44642 0 0.496871 -5.07201e-05 2.05308e-06 0.00245303
8.42671 0 0.486521 2.44494e-05 2.82304e-06 0.00249208
8.40778 0 0.476583 9.49916e-05 1.49967e-06 0.00252056
8.3896 0 0.467038 0.000161852 5.01529e-07 0.00253918
8.93841 0 0.827084 -0.0014915 1.85736e-06 0.000263299
8.89917 0 0.804525 -0.00147035 5.55708e-06 0.000399833
8.8615 0 0.782861 -0.00137658 2.55184e-06 0.00055147
8.82532 0 0.762056 -0.00131144 4.16706e-06 0.000694873
8.79057 0 0.742077 -0.0012346 3.57313e-06 0.000842486
8.7572 0 0.722891 -0.00116366 3.75754e-06 0.00098617
8.72516 0 0.704466 -0.00108359 3.44521e-06 0.00112517
8.69439 0 0.686772 -0.00100076 3.1697e-06 0.00125814
8.66483 0 0.66978 -0.000913184 3.01173e-06 0.00138599
8.63646 0 0.653462 -0.000823549 2.96412e-06 0.00150631
8.6092 0 0.637792 -0.000732095 3.05064e-06 0.00161942
8.58303 0 0.622743 -0.000639656 3.03151e-06 0.00172577
8.5579 0 0.608291 -0.000547895 3.0879e-06 0.00182555
8.53376 0 0.594413 -0.000457279 3.00231e-06 0.00191836
8.51058 0 0.581085 -0.000368022 2.92662e-06 0.00200482
8.48832 0 0.568286 -0.000280586 2.7625e-06 0.00208475
8.46695 0 0.555995 -0.00019525 2.52449e-06 0.00215828
8.44642 0 0.544192 -0.000112188 2.974e-06 0.00222472
8.42671 0 0.532857 -3.21137e-05 4.16364e-06 0.00228406
8.40778 0 0.521971 4.50193e-05 4.50389e-06 0.00233573
8.3896 0 0.511518 0.000117816 3.31182e-06 0.00237899
8.93841 0 0.899004 -0.00153137 1.73398e-06 -0.000129562
8.89917 0 0.874483 -0.00149796 6.64204e-06 -4.62172e-07
8.8615 0 0.850936 -0.00142437 5.54114e-06 0.000154119
8.82532 0 0.828322 -0.00137161 5.34775e-06 0.000299997
8.79057 0 0.806606 -0.00130198 3.5726e-06 0.000448022
8.7572 0 0.785751 -0.00122222 3.30295e-06 0.000589281
8.72516 0 0.765724 -0.00114014 3.29116e-06 0.00073344
8.69439 0 0.746491 -0.00106208 3.58863e-06 0.000876429
8.66483 0 0.728022 -0.000981415 3.59888e-06 0.00101552
8.63646 0 0.710285 -0.000895246 3.425e-06 0.00114785
8.6092 0 0.693252 -0.000805109 3.31034e-06 0.00127353
8.58303 0 0.676894 -0.000711645 3.36084e-06 0.0013913
8.5579 0 0.661186 -0.000617783 3.55136e-06 0.00150246
8.53376 0 0.646101 -0.000523829 3.45089e-06 0.0016069
8.51058 0 0.631614 -0.000430823 3.38985e-06 0.00170509
8.48832 0 0.617703 -0.000339242 3.2904e-06 0.00179643
8.46695 0 0.604343 -0.000250001 3.11284e-06 0.0018809
8.44642 0 0.591513 -0.000163638 2.70278e-06 0.00195875
8.42671 0 0.579192 -8.0248e-05 4.02196e-06 0.00203018
8.40778 0 0.56736 1.42418e-07 5.81037e-06 0.0020952
8.3896 0 0.555998 7.6937e-05 4.88702e-06 0.00215386
8.37214 0 0.545086 0.000150371 3.97298e-06 0.00220625
8.93841 0 0.970924 -0.00154321 2.07327e-06 -0.000492985
8.89917 0 0.944442 -0.0015204 5.11834e-06 -0.000364239
8.8615 0 0.91901 -0.0014642 4.42617e-06 -0.000209612
8.82532 0 0.894588 -0.00141032 5.3467e-06 -6.99029e-05
8.79057 0 0.871134 -0.00134284 5.94502e-06 7.46413e-05
8.7572 0 0.848611 -0.00127512 6.0933e-06 0.000217234
8.72516 0 0.826982 -0.00120799 4.37145e-06 0.000363411
8.69439 0 0.806211 -0.00112723 3.62579e-06 0.000503017
8.66483 0 0.786263 -0.00103892 3.15354e-06 0.000641035
8.63646 0 0.767108 -0.000951129 3.31904e-06 0.000780933
8.6092 0 0.748712 -0.000863155 3.57423e-06 0.000917367
8.58303 0 0.731046 -0.000773153 3.94146e-06 0.00104704
8.5579 0 0.714081 -0.000680944 4.07386e-06 0.00116902
8.53376 0 0.697789 -0.0005861 4.29702e-06 0.00128274
8.51058 0 0.682144 -0.00049097 4.29849e-06 0.00138973
8.48832 0 0.667119 -0.000396223 4.30811e-06 0.00149135
8.46695 0 0.65269 -0.000303076 4.2607e-06 0.00158673
8.44642 0 0.638834 -0.000212151 4.09564e-06 0.00167535
8.42671 0 0.625528 -0.000123929 4.66121e-06 0.00175717
8.40778 0 0.612749 -3.88643e-05 5.84522e-06 0.0018327
8.3896 0 0.600478 4.27605e-05 6.51891e-06 0.00190178
8.37214 0 0.588693 0.000119993 5.41534e-06 0.00196444
8.97926 0 1.07246 -0.00155476 1.67609e-06 -0.000996596
8.93841 0 1.04284 -0.00155531 1.06698e-06 -0.000808927
8.89917 0 1.0144 -0.00152692 2.59804e-06 -0.000693147
8.8615 0 0.987085 -0.0014774 3.22077e-06 -0.000542345
8.82532 0 0.960854 -0.00142606 3.90574e-06 -0.000409461
8.79057 0 0.935663 -0.00138029 4.52204e-06 -0.000262398
8.7572 0 0.911471 -0.00132331 4.33895e-06 -0.000121891
8.72516 0 0.88824 -0.00125411 5.41919e-06 1.87879e-05
8.69439 0 0.86593 -0.00117473 5.70024e-06 0.000157944
8.66483 0 0.844505 -0.00110343 4.57793e-06 0.000297338
8.63646 0 0.82393 -0.0010222 3.61958e-06 0.000434705
8.6092 0 0.804172 -0.000928543 3.15126e-06 0.000568843
8.58303 0 0.785198 -0.000833117 2.96838e-06 0.00070353
8.5579 0 0.766976 -0.000739328 2.92636e-06 0.000836105
8.53376 0 0.749477 -0.000645961 3.15879e-06 0.000963185
8.51058 0 0.732673 -0.000551799 3.21859e-06 0.00108093
8.48832 0 0.716535 -0.000456804 3.35235e-06 0.00119035
8.46695 0 0.701038 -0.000361985 3.40074e-06 0.0012938
8.44642 0 0.686155 -0.000268593 3.38209e-06 0.00139124
8.42671 0 0.671863 -0.000176825 2.93948e-06 0.00148214
8.40778 0 0.658138 -8.72927e-05 4.43627e-06 0.00156658
8.3896 0 0.644957 -7.9605e-07 6.48724e-06 0.00164476
8.37214 0 0.6323 8.21398e-05 5.5579e-06 0.0017164
8.97926 0 1.14643 -0.0015244 7.85118e-08 -0.00126015
8.93841 0 1.11476 -0.00155246 4.57125e-07 -0.0010843
8.89917 0 1.08436 -0.00151616 1.94881e-06 -0.00098848
8.8615 0 1.05516 -0.00148967 2.25826e-06 -0.000847602
8.82532 0 1.02712 -0.00144318 2.90219e-06 -0.00072195
8.79057 0 1.00019 -0.00140372 3.78971e-06 -0.000580407
8.7572 0 0.974332 -0.00134095 4.7559e-06 -0.000446271
8.72516 0 0.949498 -0.00128985 5.84732e-06 -0.000306282
8.69439 0 0.925649 -0.00122523 5.71878e-06 -0.000166355
8.66483 0 0.902747 -0.00115403 6.79161e-06 -3.01926e-05
8.63646 0 0.880753 -0.00107085 7.46889e-06 0.000105598
8.6092 0 0.859632 -0.000988648 6.88396e-06 0.000242101
8.58303 0 0.839349 -0.000906025 5.76229e-06 0.000377032
8.5579 0 0.819871 -0.00081475 4.50773e-06 0.000506487
8.53376 0 0.801165 -0.000714806 3.39108e-06 0.000635387
8.51058 0 0.783202 -0.000612155 3.01295e-06 0.00076139
8.48832 0 0.765951 -0.000512034 3.16451e-06 0.00088047
8.46695 0 0.749385 -0.000413764 3.47613e-06 0.000992352
8.44642 0 0.733476 -0.000316852 3.82076e-06 0.00109729
8.42671 0 0.718198 -0.000221273 3.90966e-06 0.0011963
8.40778 0 0.703527 -0.000127048 5.15527e-06 0.00128917
8.3896 0 0.689437 -3.54802e-05 6.77716e-06 0.00137583
8.37214 0 0.675907 5.28152e-05 7.10459e-06 0.00145632
8.97926 0 1.22039 -0.00148698 -1.09175e-06 -0.00146927
8.93841 0 1.18669 -0.00153518 -1.04083e-06 -0.00131393
8.89917 0 1.15432 -0.00149518 1.32808e-07 -0.00122435
8.8615 0 1.12324 -0.00148603 2.25374e-07 -0.00109929
8.82532 0 1.09339 -0.00144373 5.6168e-07 -0.000981942
8.79057 0 1.06472 -0.00141689 9.68718e-07 -0.000853724
8.7572 0 1.03719 -0.00136795 6.78607e-07 -0.000722751
8.72516 0 1.01076 -0.00132494 1.32051e-06 -0.000586822
8.69439 0 0.985369 -0.00125588 2.28632e-06 -0.000449821
8.66483 0 0.960989 -0.00119622 3.2238e-06 -0.000314253
8.63646 0 0.937576 -0.00113251 3.24706e-06 -0.00017942
8.6092 0 0.915092 -0.0010603 3.82984e-06 -4.52459e-05
8.58303 0 0.893501 -0.000973115 4.33145e-06 8.81921e-05
8.5579 0 0.872766 -0.000882571 4.20966e-06 0.000216511
8.53376 0 0.852853 -0.000790253 3.32392e-06 0.000342818
8.51058 0 0.833731 -0.00068915 3.10769e-06 0.00046673
8.48832 0 0.815367 -0.000586726 2.63612e-06 0.000589122
8.46695 0 0.797732 -0.000486136 2.51381e-06 0.000709298
8.44642 0 0.780797 -0.000387664 2.55582e-06 0.000824025
8.42671 0 0.764534 -0.000292016 2.63415e-06 0.000932614
8.40778 0 0.748916 -0.000197695 2.52086e-06 0.00103474
8.3896 0 0.733917 -0.000105149 3.69783e-06 0.0011302
8.37214 0 0.719514 -1.49353e-05 5.44374e-06 0.00121863
8.97926 0 1.29435 -0.00144453 -1.88173e-06 -0.00163177
8.93841 0 1.25861 -0.0015174 -1.32899e-07 -0.00152119
8.89917 0 1.22428 -0.00148374 1.38711e-06 -0.00144592
8.8615 0 1.19131 -0.00148703 2.2172e-06 -0.00134805
8.82532 0 1.15965 -0.00145054 3.04348e-06 -0.00124301
8.79057 0 1.12925 -0.00142845 4.10408e-06 -0.00112958
8.7572 0 1.10005 -0.00138343 4.82723e-06 -0.00100819
8.72516 0 1.07201 -0.00134495 5.69794e-06 -0.000884606
8.69439 0 1.04509 -0.0012909 5.92131e-06 -0.000752067
8.66483 0 1.01923 -0.00123382 6.63681e-06 -0.000614891
8.63646 0 0.994399 -0.00116497 7.97043e-06 -0.000478976
8.6092 0 0.970552 -0.00110115 9.29271e-06 -0.000343788
8.58303 0 0.947652 -0.00102713 9.2541e-06 -0.000208677
8.5579 0 0.925661 -0.0009437 9.50889e-06 -7.88291e-05
8.53376 0 0.904541 -0.00085169 1.05228e-05 5.02054e-05
8.51058 0 0.88426 -0.00075602 9.90116e-06 0.000180891
8.48832 0 0.864784 -0.000665293 8.56173e-06 0.000309719
8.46695 0 0.84608 -0.000571179 6.87358e-06 0.000432024
8.44642 0 0.828118 -0.000471796 4.63513e-06 0.000548161
8.42671 0 0.810869 -0.000367871 3.56446e-06 0.000658432
8.40778 0 0.794304 -0.00026208 2.8309e-06 0.000763769
8.3896 0 0.778397 -0.000158693 3.26584e-06 0.000864167
8.37214 0 0.763121 -5.84567e-05 4.91923e-06 0.000959057
8.97926 0 1.36832 -0.00137264 -2.25972e-06 -0.00172849
8.93841 0 1.33053 -0.00144172 -2.30612e-06 -0.00164767
8.89917 0 1.29424 -0.00142532 -2.44675e-06 -0.00157509
8.8615 0 1.25938 -0.00143719 -2.8107e-06 -0.00149672
8.82532 0 1.22592 -0.00142071 -3.54024e-06 -0.00139813
8.79057 0 1.19378 -0.00141169 -3.75167e-06 -0.00130241
8.7572 0 1.16291 -0.00138318 -4.07764e-06 -0.0011908
8.72516 0 1.13327 -0.00135689 -3.75354e-06 -0.00108051
8.69439 0 1.10481 -0.00131665 -3.74765e-06 -0.000961799
8.66483 0 1.07747 -0.00127035 -3.05263e-06 -0.000839565
8.63646 0 1.05122 -0.0012196 -2.67356e-06 -0.000710425
8.6092 0 1.02601 -0.00116265 -2.13869e-06 -0.000579156
8.58303 0 1.0018 -0.00108431 -5.93371e-07 -0.000445889
8.5579 0 0.978555 -0.001008 9.2153e-07 -0.00031359
8.53376 0 0.95623 -0.000935544 5.99319e-07 -0.000187161
8.51058 0 0.934789 -0.000858025 9.60196e-07 -6.13188e-05
8.48832 0 0.9142 -0.000764081 1.3922e-06 6.50692e-05
8.46695 0 0.894427 -0.000658753 1.48672e-06 0.000188342
8.44642 0 0.875439 -0.000554261 2.11891e-06 0.000311779
8.42671 0 0.857204 -0.000455369 2.44357e-06 0.000430572
8.40778 0 0.839693 -0.000360554 2.48841e-06 0.000546236
8.3896 0 0.822877 -0.000263938 2.49872e-06 0.000656229
8.37214 0 0.806727 -0.000167221 3.0839e-06 0.000759699
8.97926 0 1.44228 -0.00137751 -1.35262e-06 -0.00183015
8.93841 0 1.40245 -0.00147252 4.53101e-06 -0.0018366
8.89917 0 1.36419 -0.00148119 6.31088e-06 -0.00177532
8.8615 0 1.32746 -0.0014996 8.514e-06 -0.00172754
8.82532 0 1.29218 -0.00149329 1.02388e-05 -0.00164394
8.79057 0 1.25831 -0.00147944 1.14259e-05 -0.00155832
8.7572 0 1.22577 -0.00145387 1.24545e-05 -0.00145414
8.72516 0 1.19453 -0.00142142 1.28534e-05 -0.00134383
8.69439 0 1.16453 -0.00138157 1.31163e-05 -0.00122596
8.66483 0 1.13571 -0.00133486 1.30843e-05 -0.00110417
8.63646 0 1.10804 -0.00128237 1.32818e-05 -0.000977272
8.6092 0 1.08147 -0.00121873 1.29145e-05 -0.000853334
8.58303 0 1.05596 -0.00114819 1.26904e-05 -0.000726587
8.5579 0 1.03145 -0.00106379 1.31019e-05 -0.000593539
8.53376 0 1.00792 -0.000972471 1.49892e-05 -0.000462945
8.51058 0 0.985319 -0.000888375 1.49826e-05 -0.000336073
8.48832 0 0.963616 -0.000806049 1.38694e-05 -0.000209481
8.46695 0 0.942775 -0.000721611 1.33948e-05 -8.25717e-05
8.44642 0 0.92276 -0.000628064 1.26287e-05 4.50046e-05
8.42671 0 0.90354 -0.000523464 1.12132e-05 0.000168438
8.40778 0 0.885082 -0.000419075 9.97502e-06 0.00028769
8.3896 0 0.867357 -0.000312436 8.7701e-06 0.000401505
8.37214 0 0.850334 -0.000204169 7.89569e-06 0.000508357
7.66922 0 0.966948 0.00112535 -8.86089e-06 0.00127469
7.67296 0 0.988324 0.000980673 -6.93469e-06 0.00130475
7.67685 0 1.01058 0.000825975 -8.34025e-06 0.0013054
7.68091 0 1.03376 0.00066398 -9.1849e-06 0.00127712
7.68513 0 1.0579 0.000480014 -8.03858e-06 0.00122659
7.68953 0 1.08303 0.000283142 -6.3693e-06 0.00114511
7.69411 0 1.1092 5.88083e-05 -7.96424e-06 0.00102417
7.69888 0 1.13646 -0.000180616 -5.25998e-06 0.000862158
7.70385 0 1.16483 -0.000447701 3.53447e-06 0.000653399
7.70902 0 1.19439 -0.00072809 8.88153e-06 0.000385653
7.7144 0 1.22516 -0.00100177 1.10604e-05 6.05681e-05
7.72001 0 1.2572 -0.00125471 1.11763e-05 -0.000292014
7.72585 0 1.29057 -0.00149398 1.10327e-05 -0.000689299
7.73193 0 1.32532 -0.00167335 8.41985e-06 -0.00105883
7.70425 0 0.907776 0.00146315 -8.31051e-06 0.00121917
7.70851 0 0.926708 0.00139205 -7.91573e-06 0.00126384
7.71294 0 0.946421 0.00130947 -6.74683e-06 0.00130266
7.71756 0 0.966948 0.00120735 -5.21035e-06 0.00133409
7.72237 0 0.988324 0.00109091 -3.77552e-06 0.00134975
7.72738 0 1.01058 0.000961562 -1.92663e-06 0.0013415
7.7326 0 1.03376 0.000815674 -1.1656e-06 0.00130651
7.73803 0 1.0579 0.000653015 5.95416e-08 0.00124485
7.74368 0 1.08303 0.000468025 2.09066e-06 0.00115401
7.74957 0 1.1092 0.00025341 1.28838e-06 0.00102663
7.7557 0 1.13646 2.44105e-05 2.25579e-06 0.000850465
7.76209 0 1.16483 -0.000224859 7.48518e-06 0.000634208
7.76874 0 1.19439 -0.000489652 9.32958e-06 0.000370661
7.77566 0 1.22516 -0.000760938 1.29556e-05 5.64659e-05
7.78287 0 1.2572 -0.0010067 1.16757e-05 -0.000275013
7.79038 0 1.29057 -0.00126241 1.18113e-05 -0.00065449
7.7982 0 1.32532 -0.0014639 1.0866e-05 -0.00100111
7.73984 0 0.872138 0.00160689 -8.0563e-06 0.00119749
7.74464 0 0.889596 0.00153481 -7.85992e-06 0.00125912
7.74964 0 0.907776 0.00146002 -7.84012e-06 0.00131267
7.75484 0 0.926708 0.00138143 -7.21085e-06 0.00135488
7.76027 0 0.946421 0.00128654 -5.73213e-06 0.00138262
7.76591 0 0.966948 0.00117851 -4.04858e-06 0.00139451
7.77179 0 0.988324 0.0010616 -3.17168e-06 0.001388
7.77791 0 1.01058 0.000929421 -2.27076e-06 0.00135887
7.78428 0 1.03376 0.000784408 2.1106e-06 0.00130051
7.79092 0 1.0579 0.000623972 5.8452e-06 0.00121365
7.79783 0 1.08303 0.000435616 6.06698e-06 0.00109744
7.80503 0 1.1092 0.00022486 8.48643e-06 0.00094469
7.81253 0 1.13646 3.8032e-06 1.11368e-05 0.000747763
7.82033 0 1.16483 -0.00023162 1.13482e-05 0.000517676
7.82846 0 1.19439 -0.000474385 1.22036e-05 0.00025187
7.83692 0 1.22516 -0.000722974 1.48516e-05 -4.77996e-05
7.84573 0 1.2572 -0.000955248 1.25205e-05 -0.000377929
7.85491 0 1.29057 -0.00119689 1.37734e-05 -0.000729795
7.86446 0 1.32532 -0.00137399 1.10607e-05 -0.00104216
7.87441 0 1.3615 -0.00153084 7.86282e-06 -0.00136329
7.778 0 0.855372 0.00169723 -7.61025e-06 0.00117321
7.78344 0 0.872138 0.00161894 -7.57892e-06 0.00123793
7.78912 0 0.889596 0.00153565 -7.31634e-06 0.00129907
7.79503 0 0.907776 0.00144709 -7.12287e-06 0.00135495
7.80118 0 0.926708 0.00134974 -6.10251e-06 0.00140029
7.80759 0 0.946421 0.001236 -4.65434e-06 0.00142634
7.81426 0 0.966948 0.00111192 -3.64576e-06 0.00142992
7.82121 0 0.988324 0.00097651 -2.43926e-06 0.00141026
7.82844 0 1.01058 0.0008299 -6.50019e-07 0.00136143
7.83597 0 1.03376 0.000669304 5.19792e-06 0.00127761
7.84382 0 1.0579 0.000492314 6.68163e-06 0.00116258
7.85199 0 1.08303 0.000293942 7.10546e-06 0.0010153
7.86049 0 1.1092 8.67593e-05 1.08569e-05 0.00083157
7.86935 0 1.13646 -0.000127482 1.27042e-05 0.000610697
7.87857 0 1.16483 -0.00034947 1.20337e-05 0.000363555
7.88818 0 1.19439 -0.000570911 1.31155e-05 9.86424e-05
7.89818 0 1.22516 -0.000794721 1.30042e-05 -0.000207857
7.90859 0 1.2572 -0.00101729 1.36367e-05 -0.000522925
7.91944 0 1.29057 -0.00122117 1.59426e-05 -0.000844459
7.93073 0 1.32532 -0.00136664 9.06112e-06 -0.00113055
7.94249 0 1.3615 -0.0014853 6.08168e-06 -0.00141471
7.81473 0 0.839271 0.00179537 -5.83518e-06 0.00113271
7.82076 0 0.855372 0.00172194 -6.15081e-06 0.00119095
7.82705 0 0.872138 0.00163983 -6.2735e-06 0.00124761
7.8336 0 0.889596 0.00155001 -6.01882e-06 0.00129957
7.84042 0 0.907776 0.0014508 -5.3731e-06 0.00134297
7.84752 0 0.926708 0.00133622 -4.0944e-06 0.00137475
7.85491 0 0.946421 0.00120249 -2.71437e-06 0.00139036
7.86261 0 0.966948 0.00105794 -1.24573e-06 0.00138575
7.87062 0 0.988324 0.000899732 6.37799e-07 0.00135617
7.87897 0 1.01058 0.000732668 3.3034e-06 0.00129492
7.88766 0 1.03376 0.000549227 6.63101e-06 0.0011971
7.89671 0 1.0579 0.000353791 7.39247e-06 0.00106537
7.90614 0 1.08303 0.000146149 9.94439e-06 0.00089974
7.91595 0 1.1092 -6.31146e-05 1.30164e-05 0.000697342
7.92617 0 1.13646 -0.000274447 1.29394e-05 0.00046556
7.93681 0 1.16483 -0.000484246 1.39829e-05 0.000211879
7.94789 0 1.19439 -0.000684344 1.39903e-05 -6.38444e-05
7.95943 0 1.22516 -0.000900917 1.42251e-05 -0.000368909
7.97145 0 1.2572 -0.00108263 1.44267e-05 -0.000644232
7.98396 0 1.29057 -0.00125524 1.54327e-05 -0.000942155
7.99699 0 1.32532 -0.00136415 7.43336e-06 -0.00121422
8.01056 0 1.3615 -0.00144889 6.15845e-06 -0.00145476
8.02469 0 1.39917 -0.00147542 5.76728e-07 -0.00160257
7.85669 0 0.839271 0.00179415 -4.5315e-06 0.00112618
7.86353 0 0.855372 0.00172112 -4.18646e-06 0.00117232
7.87066 0 0.872138 0.00163747 -3.76771e-06 0.00121466
7.87808 0 0.889596 0.00154402 -3.42233e-06 0.00125124
7.8858 0 0.907776 0.0014389 -2.73553e-06 0.00128001
7.89385 0 0.926708 0.00131596 -1.25134e-06 0.00129675
7.90223 0 0.946421 0.00117245 -2.55944e-07 0.00129516
7.91095 0 0.966948 0.00101673 1.06857e-06 0.00127235
7.92004 0 0.988324 0.000846444 3.10253e-06 0.00122509
7.9295 0 1.01058 0.000666612 6.13068e-06 0.0011485
7.93935 0 1.03376 0.000468782 8.18344e-06 0.0010402
7.94961 0 1.0579 0.000263798 9.3242e-06 0.000900225
7.96029 0 1.08303 5.26221e-05 1.18078e-05 0.000729486
7.97141 0 1.1092 -0.000156233 1.43125e-05 0.000525618
7.98299 0 1.13646 -0.000361919 1.38616e-05 0.000299786
7.99505 0 1.16483 -0.000560652 1.4772e-05 5.34831e-05
8.00761 0 1.19439 -0.000755379 1.29749e-05 -0.000222848
8.02069 0 1.22516 -0.000953279 1.68683e-05 -0.00049627
8.03431 0 1.2572 -0.00110364 1.61137e-05 -0.000750248
8.04849 0 1.29057 -0.00124456 1.20965e-05 -0.00102997
8.06326 0 1.32532 -0.00132611 6.43e-06 -0.00126591
8.07864 0 1.3615 -0.00139251 6.10973e-06 -0.00146949
8.09465 0 1.39917 -0.00140788 1.00824e-06 -0.00159949
7.89865 0 0.839271 0.00175699 -2.94852e-06 0.00109686
7.9063 0 0.855372 0.00168251 -2.44524e-06 0.00112917
7.91427 0 0.872138 0.00159847 -1.99197e-06 0.00115481
7.92256 0 0.889596 0.00150371 -2.12873e-06 0.00117161
7.93119 0 0.907776 0.00139766 -1.15525e-06 0.00117806
7.94019 0 0.926708 0.00127037 4.71709e-07 0.00117178
7.94955 0 0.946421 0.00112492 1.8469e-06 0.00114925
7.9593 0 0.966948 0.000967021 3.35299e-06 0.00110811
7.96945 0 0.988324 0.000794679 5.16786e-06 0.00104392
7.98003 0 1.01058 0.000612977 7.99217e-06 0.000952293
7.99104 0 1.03376 0.000415405 8.98544e-06 0.000832924
8.0025 0 1.0579 0.000213791 9.93665e-06 0.000687832
8.01444 0 1.08303 1.00183e-05 1.27802e-05 0.000516143
8.02687 0 1.1092 -0.000189103 1.38983e-05 0.000321593
8.03982 0 1.13646 -0.000385414 1.34838e-05 0.000106312
8.0533 0 1.16483 -0.000578135 1.22102e-05 -0.000139272
8.06733 0 1.19439 -0.00076927 1.41152e-05 -0.000383658
8.08195 0 1.22516 -0.000932174 1.55251e-05 -0.000611182
8.09717 0 1.2572 -0.00107694 1.31966e-05 -0.000858096
8.11302 0 1.29057 -0.00119132 8.3389e-06 -0.00111831
8.12952 0 1.32532 -0.00125945 5.5428e-06 -0.00131593
8.14671 0 1.3615 -0.00131406 4.71005e-06 -0.00148678
8.16461 0 1.39917 -0.00132646 6.74942e-07 -0.00159745
8.18324 0 1.43841 -0.00133728 2.50539e-07 -0.00168374
7.94062 0 0.839271 0.00168509 -1.83367e-06 0.00105207
7.94907 0 0.855372 0.00160597 -1.74667e-06 0.00106656
7.95787 0 0.872138 0.00151699 -2.11556e-06 0.0010726
7.96704 0 0.889596 0.00141815 -1.44361e-06 0.00106907
7.97658 0 0.907776 0.00130534 3.64846e-08 0.00105433
7.98652 0 0.926708 0.00117558 1.34706e-06 0.00102608
7.99687 0 0.946421 0.00103099 2.77292e-06 0.0009815
8.00765 0 0.966948 0.00087591 3.66994e-06 0.000918532
8.01887 0 0.988324 0.000709082 4.40748e-06 0.000835552
8.03056 0 1.01058 0.000533405 8.16433e-06 0.000731442
8.04272 0 1.03376 0.000346153 8.83255e-06 0.000603971
8.0554 0 1.0579 0.000157475 1.0032e-05 0.000454951
8.06859 0 1.08303 -2.9253e-05 1.19459e-05 0.000287558
8.08233 0 1.1092 -0.000217368 1.03401e-05 9.80476e-05
8.09664 0 1.13646 -0.000402983 9.20049e-06 -0.000115292
8.11154 0 1.16483 -0.000591004 1.05981e-05 -0.000331437
8.12705 0 1.19439 -0.00075724 1.26055e-05 -0.000532171
8.14321 0 1.22516 -0.000907265 1.26954e-05 -0.00075834
8.16003 0 1.2572 -0.00103736 7.86774e-06 -0.000990702
8.17755 0 1.29057 -0.00113527 6.02553e-06 -0.00120593
8.19579 0 1.32532 -0.00119708 4.16726e-06 -0.00137444
8.21479 0 1.3615 -0.00124355 2.9633e-06 -0.00151887
8.23457 0 1.39917 -0.00125363 -4.4428e-07 -0.00161252
8.25516 0 1.43841 -0.00126137 -1.02042e-06 -0.00167503
8.27661 0 1.47926 -0.00122662 -6.23023e-06 -0.00169256
7.99184 0 0.855372 0.00149548 -2.06414e-06 0.000993844
8.00148 0 0.872138 0.00140129 -1.88904e-06 0.000979025
8.01152 0 0.889596 0.00129297 -7.50399e-07 0.000952916
8.02197 0 0.907776 0.00117259 3.68903e-07 0.00091523
8.03286 0 0.926708 0.00104011 1.22463e-06 0.000864151
8.04419 0 0.946421 0.000898511 1.60694e-06 0.000798311
8.056 0 0.966948 0.000746859 1.67314e-06 0.000716529
8.06829 0 0.988324 0.000589108 4.63804e-06 0.000618523
8.08109 0 1.01058 0.00042059 6.77149e-06 0.000502286
8.09441 0 1.03376 0.000249203 5.95477e-06 0.00036767
8.10829 0 1.0579 7.5132e-05 7.83332e-06 0.000219446
8.12274 0 1.08303 -9.81893e-05 6.883e-06 4.65962e-05
8.13779 0 1.1092 -0.000274829 5.0281e-06 -0.000140493
8.15346 0 1.13646 -0.000450347 6.17433e-06 -0.000334415
8.16978 0 1.16483 -0.000616192 8.87636e-06 -0.000526763
8.18677 0 1.19439 -0.000760254 9.32823e-06 -0.000700547
8.20447 0 1.22516 -0.000899844 7.10077e-06 -0.000911276
8.22289 0 1.2572 -0.00100705 3.37202e-06 -0.00112446
8.24208 0 1.29057 -0.00109255 3.67089e-06 -0.00129855
8.26206 0 1.32532 -0.00115071 2.23048e-06 -0.00144303
8.28286 0 1.3615 -0.00119127 9.4493e-07 -0.00156225
8.30452 0 1.39917 -0.00120258 -1.50084e-06 -0.00164221
8.32708 0 1.43841 -0.00120654 -2.29935e-06 -0.00168332
8.35057 0 1.47926 -0.00117873 -6.60768e-06 -0.00169873
8.03461 0 0.855372 0.00135245 -6.65138e-07 0.000926495
8.04509 0 0.872138 0.00124737 4.01088e-07 0.000891469
8.056 0 0.889596 0.00113175 7.19319e-07 0.000845004
8.06736 0 0.907776 0.00100703 8.72106e-07 0.000787077
8.07919 0 0.926708 0.000873361 6.07132e-07 0.000717174
8.09151 0 0.946421 0.000731114 8.94399e-07 0.000634517
8.10434 0 0.966948 0.000582634 3.09641e-06 0.00053839
8.1177 0 0.988324 0.000425839 6.04344e-06 0.000425676
8.13161 0 1.01058 0.000265864 5.16275e-06 0.000299282
8.1461 0 1.03376 0.000102901 5.27575e-06 0.000156985
8.16119 0 1.0579 -6.22115e-05 5.05552e-06 -1.76501e-06
8.17689 0 1.08303 -0.000227436 3.87563e-06 -0.000168743
8.19325 0 1.1092 -0.000391235 4.12828e-06 -0.000349184
8.21028 0 1.13646 -0.000549639 6.73518e-06 -0.000524152
8.22802 0 1.16483 -0.000688459 7.46205e-06 -0.000685783
8.24649 0 1.19439 -0.000816392 6.83061e-06 -0.000870761
8.26572 0 1.22516 -0.000935463 3.78432e-06 -0.00106363
8.28575 0 1.2572 -0.00102282 2.56897e-06 -0.00123691
8.30661 0 1.29057 -0.00109447 2.87174e-06 -0.00138571
8.32832 0 1.32532 -0.00114308 1.2438e-06 -0.00151118
8.35094 0 1.3615 -0.0011747 -1.22547e-07 -0.00160749
8.37448 0 1.39917 -0.00118488 -1.68092e-06 -0.00167486
8.399 0 1.43841 -0.00118485 -2.67308e-06 -0.00169945
8.42454 0 1.47926 -0.00116196 -6.29916e-06 -0.00171727
8.07738 0 0.855372 0.00117531 1.20154e-06 0.000855913
8.08869 0 0.872138 0.00106406 1.30626e-06 0.0008032
8.10048 0 0.889596 0.000944982 1.07788e-06 0.000739264
8.11275 0 0.907776 0.000817361 3.45869e-07 0.000664123
8.12553 0 0.926708 0.000683043 1.5429e-06 0.000577837
8.13883 0 0.946421 0.000542777 3.11125e-06 0.000479893
8.15269 0 0.966948 0.0003954 4.5683e-06 0.000370464
8.16712 0 0.988324 0.000245514 3.39135e-06 0.000247235
8.18214 0 1.01058 9.28867e-05 3.08773e-06 0.000109311
8.19779 0 1.03376 -6.12315e-05 3.69276e-06 -4.2213e-05
8.21408 0 1.0579 -0.000214811 2.28696e-06 -0.000196906
8.23105 0 1.08303 -0.00036494 1.52431e-06 -0.000364934
8.24871 0 1.1092 -0.000514546 4.59669e-06 -0.000529743
8.26711 0 1.13646 -0.000644124 5.43247e-06 -0.000684199
8.28626 0 1.16483 -0.000764417 4.47945e-06 -0.000839576
8.30621 0 1.19439 -0.000878046 2.63574e-06 -0.00101296
8.32698 0 1.22516 -0.000972658 1.06858e-06 -0.00118619
8.34861 0 1.2572 -0.00104577 1.19962e-06 -0.00133275
8.37113 0 1.29057 -0.00110526 1.06121e-06 -0.00146175
8.39459 0 1.32532 -0.0011445 -2.19302e-07 -0.00157087
8.41901 0 1.3615 -0.00116754 -1.48785e-06 -0.00164917
8.44444 0 1.39917 -0.00117482 -2.39422e-06 -0.0017057
8.47092 0 1.43841 -0.00117064 -3.55688e-06 -0.00171475
8.4985 0 1.47926 -0.00115394 -5.97243e-06 -0.00173253
8.12014 0 0.855372 0.00097791 1.91923e-06 0.000793613
8.1323 0 0.872138 0.000860988 1.85356e-06 0.000727108
8.14496 0 0.889596 0.000736992 2.08111e-06 0.000649883
8.15814 0 0.907776 0.000608136 3.05789e-06 0.000562688
8.17186 0 0.926708 0.000472794 4.36834e-06 0.000466333
8.18616 0 0.946421 0.00033249 5.39474e-06 0.000359521
8.20104 0 0.966948 0.000188084 3.97784e-06 0.000242131
8.21654 0 0.988324 4.13398e-05 4.45921e-06 0.000108498
8.23267 0 1.01058 -0.000107005 5.08614e-06 -3.31255e-05
8.24948 0 1.03376 -0.000252653 3.50712e-06 -0.000182578
8.26698 0 1.0579 -0.000395993 3.13781e-06 -0.000340364