0 	-1.03896e-14 	0 	5.62769e-16 	0 	0 	3.24675e-15
0.00128482 	5.27407e-08 	-1.80702e-08 	-5.3396e-09 	7.06099e-08 	1.21328e-08 	3.07327e-08
0.00256965 	5.27068e-08 	-1.80586e-08 	-5.33617e-09 	7.05645e-08 	1.2125e-08 	3.07129e-08
0.00387803 	5.40721e-08 	-5.51681e-09 	-2.85623e-09 	1.37118e-08 	7.23859e-09 	9.17872e-09
0.00518642 	5.40367e-08 	-5.51319e-09 	-2.85436e-09 	1.37028e-08 	7.23385e-09 	9.1727e-09
0.00651881 	5.78601e-08 	-2.93823e-09 	-9.64798e-10 	5.30218e-09 	8.35372e-10 	2.68255e-09
0.00785119 	5.78215e-08 	-2.93626e-09 	-9.64153e-10 	5.29864e-09 	8.34814e-10 	2.68076e-09
0.00920802 	6.11119e-08 	-2.65529e-09 	3.05864e-10 	5.96394e-09 	-1.67575e-10 	2.1756e-09
0.0105648 	6.10702e-08 	-2.65348e-09 	3.05656e-10 	5.95987e-09 	-1.67461e-10 	2.17412e-09
0.0119465 	6.38756e-08 	-2.83365e-09 	6.52961e-10 	5.30108e-09 	-7.53656e-10 	2.80068e-09
0.0133283 	6.38312e-08 	-2.83168e-09 	6.52507e-10 	5.29739e-09 	-7.53132e-10 	2.79873e-09
0.0147353 	6.58728e-08 	-3.37055e-09 	4.8796e-10 	4.20008e-09 	-9.37921e-10 	3.26576e-09
0.0161424 	6.58261e-08 	-3.36816e-09 	4.87614e-10 	4.1971e-09 	-9.37257e-10 	3.26345e-09
0.0175752 	6.71706e-08 	-4.17334e-09 	1.56685e-10 	3.37957e-09 	-8.75052e-10 	3.37414e-09
0.0190081 	6.7122e-08 	-4.17032e-09 	1.56572e-10 	3.37712e-09 	-8.74419e-10 	3.3717e-09
0.0204672 	6.79168e-08 	-5.12128e-09 	-1.93785e-10 	2.86693e-09 	-7.10444e-10 	3.2455e-09
0.0219263 	6.78667e-08 	-5.1175e-09 	-1.93642e-10 	2.86481e-09 	-7.0992e-10 	3.24311e-09
0.0234122 	6.82139e-08 	-6.09131e-09 	-5.30212e-10 	2.56324e-09 	-5.36847e-10 	3.03656e-09
0.0248981 	6.81626e-08 	-6.08673e-09 	-5.29813e-10 	2.56131e-09 	-5.36444e-10 	3.03428e-09
0.0264113 	6.82354e-08 	-7.06285e-09 	-8.15895e-10 	2.50645e-09 	-4.03407e-10 	2.79847e-09
0.0279244 	6.8183e-08 	-7.05743e-09 	-8.1527e-10 	2.50453e-09 	-4.03097e-10 	2.79632e-09
0.0294653 	6.80971e-08 	-8.04709e-09 	-1.01135e-09 	2.68835e-09 	-3.09821e-10 	2.54061e-09
0.0310063 	6.80438e-08 	-8.0408e-09 	-1.01056e-09 	2.68624e-09 	-3.09578e-10 	2.53863e-09
0.0325754 	6.78489e-08 	-8.96125e-09 	-1.15441e-09 	3.01695e-09 	-2.31757e-10 	2.31806e-09
0.0341446 	6.77948e-08 	-8.95411e-09 	-1.15348e-09 	3.01455e-09 	-2.31572e-10 	2.31622e-09
0.0357425 	6.74294e-08 	-9.7586e-09 	-1.27471e-09 	3.44413e-09 	-1.61379e-10 	2.15082e-09
0.0373405 	6.73745e-08 	-9.75067e-09 	-1.27367e-09 	3.44133e-09 	-1.61247e-10 	2.14907e-09
0.0389677 	6.67172e-08 	-1.04821e-08 	-1.36074e-09 	3.97545e-09 	-1.04008e-10 	2.02086e-09
0.040595 	6.66619e-08 	-1.04734e-08 	-1.35961e-09 	3.97215e-09 	-1.03921e-10 	2.01919e-09
0.0422521 	6.57507e-08 	-1.11587e-08 	-1.40281e-09 	4.60534e-09 	-6.02164e-11 	1.90306e-09
0.0439092 	6.5695e-08 	-1.11493e-08 	-1.40162e-09 	4.60145e-09 	-6.01654e-11 	1.90145e-09
0.0455967 	6.47237e-08 	-1.18098e-08 	-1.39182e-09 	5.31843e-09 	-2.70529e-11 	1.78393e-09
0.0472842 	6.46679e-08 	-1.17996e-08 	-1.39062e-09 	5.31384e-09 	-2.70295e-11 	1.78239e-09
0.0490026 	6.37208e-08 	-1.24606e-08 	-1.33505e-09 	6.10635e-09 	-6.04872e-12 	1.6773e-09
0.0507211 	6.36647e-08 	-1.24496e-08 	-1.33387e-09 	6.10097e-09 	-6.04339e-12 	1.67582e-09
0.052471 	6.26534e-08 	-1.31165e-08 	-1.25086e-09 	6.96332e-09 	3.68892e-12 	1.59457e-09
0.054221 	6.25971e-08 	-1.31047e-08 	-1.24973e-09 	6.95706e-09 	3.6856e-12 	1.59314e-09
0.056003 	6.14175e-08 	-1.37667e-08 	-1.15496e-09 	7.88371e-09 	4.65378e-12 	1.53677e-09
0.0577851 	6.13612e-08 	-1.37541e-08 	-1.1539e-09 	7.87648e-09 	4.64952e-12 	1.53536e-09
0.0595998 	5.99341e-08 	-1.43772e-08 	-1.06808e-09 	8.86366e-09 	-1.35339e-12 	1.49623e-09
0.0614146 	5.9878e-08 	-1.43637e-08 	-1.06708e-09 	8.85537e-09 	-1.35212e-12 	1.49483e-09
0.0632626 	5.81268e-08 	-1.49117e-08 	-1.00673e-09 	9.89886e-09 	-1.2023e-11 	1.46472e-09
0.0651106 	5.80713e-08 	-1.48975e-08 	-1.00577e-09 	9.88942e-09 	-1.20115e-11 	1.46332e-09
0.0669925 	5.5908e-08 	-1.53469e-08 	-9.78293e-10 	1.09834e-08 	-2.55481e-11 	1.43826e-09
0.0688745 	5.58536e-08 	-1.5332e-08 	-9.77341e-10 	1.09728e-08 	-2.55232e-11 	1.43686e-09
0.0707909 	5.31961e-08 	-1.5669e-08 	-9.95547e-10 	1.21303e-08 	-3.79318e-11 	1.4147e-09
0.0727073 	5.31432e-08 	-1.56534e-08 	-9.94558e-10 	1.21183e-08 	-3.78941e-11 	1.4133e-09
0.0746589 	4.9938e-08 	-1.58088e-08 	-1.07342e-09 	1.32829e-08 	-2.61174e-11 	1.39665e-09
0.0766105 	4.98874e-08 	-1.57928e-08 	-1.07234e-09 	1.32695e-08 	-2.6091e-11 	1.39523e-09
0.0785979 	4.65377e-08 	-1.57561e-08 	-1.13739e-09 	1.40797e-08 	1.61829e-11 	1.41402e-09
0.0805853 	4.64896e-08 	-1.57398e-08 	-1.13621e-09 	1.40651e-08 	1.61662e-11 	1.41256e-09
0.0826091 	4.29442e-08 	-1.53437e-08 	-1.32859e-09 	1.4003e-08 	1.32806e-10 	1.44237e-09
0.0846329 	4.28988e-08 	-1.53275e-08 	-1.32719e-09 	1.39882e-08 	1.32666e-10 	1.44085e-09
0.0866939 	3.97326e-08 	-1.45122e-08 	-1.56578e-09 	1.30756e-08 	2.61405e-10 	1.44992e-09
0.0887548 	3.96898e-08 	-1.44966e-08 	-1.5641e-09 	1.30616e-08 	2.61123e-10 	1.44836e-09
0.0908536 	3.73973e-08 	-1.36384e-08 	-1.61912e-09 	1.19775e-08 	2.97188e-10 	1.45236e-09
0.0929523 	3.73562e-08 	-1.36234e-08 	-1.61734e-09 	1.19644e-08 	2.96861e-10 	1.45077e-09
0.0950896 	3.5329e-08 	-1.28253e-08 	-1.59129e-09 	1.099e-08 	2.84722e-10 	1.44802e-09
0.0972268 	3.52894e-08 	-1.28109e-08 	-1.58951e-09 	1.09777e-08 	2.84402e-10 	1.44639e-09
0.0994033 	3.34827e-08 	-1.20032e-08 	-1.52776e-09 	9.99199e-09 	2.58245e-10 	1.44001e-09
0.10158 	3.34444e-08 	-1.19895e-08 	-1.52601e-09 	9.98055e-09 	2.57949e-10 	1.43836e-09
0.103796 	3.18644e-08 	-1.122e-08 	-1.45047e-09 	9.01924e-09 	2.23938e-10 	1.4304e-09
0.106012 	3.18271e-08 	-1.12068e-08 	-1.44878e-09 	9.0087e-09 	2.23676e-10 	1.42873e-09
0.108269 	3.04229e-08 	-1.04765e-08 	-1.36727e-09 	8.08821e-09 	1.851e-10 	1.42011e-09
0.110526 	3.03866e-08 	-1.0464e-08 	-1.36564e-09 	8.07856e-09 	1.84879e-10 	1.41842e-09
0.112825 	2.91238e-08 	-9.73163e-09 	-1.28637e-09 	7.17807e-09 	1.52224e-10 	1.40789e-09
0.115123 	2.90883e-08 	-9.71977e-09 	-1.2848e-09 	7.16933e-09 	1.52038e-10 	1.40618e-09
0.117464 	2.79618e-08 	-8.94552e-09 	-1.21643e-09 	6.26209e-09 	1.33515e-10 	1.39232e-09
0.119804 	2.79271e-08 	-8.9344e-09 	-1.21492e-09 	6.2543e-09 	1.33349e-10 	1.39059e-09
0.122188 	2.69356e-08 	-8.16834e-09 	-1.15176e-09 	5.38797e-09 	1.1638e-10 	1.37607e-09
0.124571 	2.69014e-08 	-8.15797e-09 	-1.15029e-09 	5.38113e-09 	1.16232e-10 	1.37433e-09
0.126999 	2.60483e-08 	-7.46834e-09 	-1.083e-09 	4.61199e-09 	8.86324e-11 	1.36103e-09
0.129426 	2.60145e-08 	-7.45866e-09 	-1.0816e-09 	4.60601e-09 	8.85175e-11 	1.35927e-09
0.131897 	2.52954e-08 	-6.83835e-09 	-1.0095e-09 	3.92722e-09 	5.24387e-11 	1.3464e-09
0.134369 	2.52619e-08 	-6.8293e-09 	-1.00816e-09 	3.92203e-09 	5.23693e-11 	1.34462e-09
0.136886 	2.46756e-08 	-6.25709e-09 	-9.32643e-10 	3.31674e-09 	1.241e-11 	1.33191e-09
0.139403 	2.46422e-08 	-6.24864e-09 	-9.31383e-10 	3.31226e-09 	1.23932e-11 	1.33011e-09
0.141967 	2.41859e-08 	-5.68923e-09 	-8.51909e-10 	2.75734e-09 	-3.98113e-11 	1.31773e-09
0.14453 	2.41525e-08 	-5.68138e-09 	-8.50734e-10 	2.75354e-09 	-3.97564e-11 	1.31591e-09
0.14714 	2.38134e-08 	-5.12443e-09 	-7.68565e-10 	2.26107e-09 	-1.00733e-10 	1.30617e-09
0.14975 	2.37799e-08 	-5.11721e-09 	-7.67482e-10 	2.25789e-09 	-1.00591e-10 	1.30433e-09
0.152408 	2.35194e-08 	-4.62291e-09 	-6.75235e-10 	1.87771e-09 	-1.39365e-10 	1.29365e-09
0.155066 	2.34856e-08 	-4.61626e-09 	-6.74264e-10 	1.87501e-09 	-1.39165e-10 	1.29179e-09
0.157773 	2.32549e-08 	-4.15583e-09 	-5.67822e-10 	1.58898e-09 	-1.62267e-10 	1.27796e-09
0.16048 	2.32208e-08 	-4.14972e-09 	-5.66988e-10 	1.58664e-09 	-1.62028e-10 	1.27608e-09
0.163237 	2.30195e-08 	-3.65689e-09 	-4.39158e-10 	1.34739e-09 	-1.76608e-10 	1.26443e-09
0.165993 	2.29849e-08 	-3.6514e-09 	-4.38499e-10 	1.34536e-09 	-1.76343e-10 	1.26253e-09
0.1688 	2.30022e-08 	-3.30111e-09 	-2.42242e-10 	1.19451e-09 	-2.08411e-10 	1.26978e-09
0.171607 	2.2967e-08 	-3.29605e-09 	-2.41871e-10 	1.19268e-09 	-2.08091e-10 	1.26784e-09
0.174466 	2.28721e-08 	-3.07688e-09 	-9.14362e-11 	1.17647e-09 	-2.78085e-10 	1.26025e-09
0.177324 	2.28363e-08 	-3.07206e-09 	-9.12931e-11 	1.17463e-09 	-2.7765e-10 	1.25827e-09
0.180235 	2.25697e-08 	-2.70389e-09 	6.30619e-12 	1.21332e-09 	-3.24501e-10 	1.23528e-09
0.183146 	2.25336e-08 	-2.69957e-09 	6.29611e-12 	1.21138e-09 	-3.23982e-10 	1.2333e-09
0.186111 	2.24053e-08 	-2.22864e-09 	1.54806e-10 	1.28626e-09 	-3.39704e-10 	1.23033e-09
0.189075 	2.23687e-08 	-2.225e-09 	1.54553e-10 	1.28416e-09 	-3.39149e-10 	1.22832e-09
0.192094 	2.21988e-08 	-1.76785e-09 	3.13815e-10 	1.44432e-09 	-3.52005e-10 	1.23139e-09
0.195113 	2.21617e-08 	-1.7649e-09 	3.13291e-10 	1.44191e-09 	-3.51418e-10 	1.22933e-09
0.198187 	2.18589e-08 	-1.29582e-09 	4.81646e-10 	1.68522e-09 	-3.56635e-10 	1.23633e-09
0.201261 	2.18217e-08 	-1.29361e-09 	4.80825e-10 	1.68234e-09 	-3.56026e-10 	1.23422e-09
0.204391 	2.133e-08 	-8.17971e-10 	6.58961e-10 	2.01272e-09 	-3.50135e-10 	1.2447e-09
0.207522 	2.12929e-08 	-8.16545e-10 	6.57813e-10 	2.00921e-09 	-3.49524e-10 	1.24253e-09
0.21071 	2.06237e-08 	-3.54717e-10 	8.45899e-10 	2.43578e-09 	-3.30383e-10 	1.25616e-09
0.213898 	2.05869e-08 	-3.54085e-10 	8.44392e-10 	2.43144e-09 	-3.29794e-10 	1.25392e-09
0.217144 	1.9817e-08 	6.71283e-11 	1.04215e-09 	2.96984e-09 	-2.96065e-10 	1.27021e-09
0.22039 	1.97809e-08 	6.7006e-11 	1.04025e-09 	2.96443e-09 	-2.95526e-10 	1.26789e-09
0.220531 	1.91825e-08 	4.4609e-10 	1.2449e-09 	3.64497e-09 	-2.46736e-10 	1.28863e-09
0.220671 	1.9181e-08 	4.46055e-10 	1.2448e-09 	3.64468e-09 	-2.46716e-10 	1.28853e-09
0.223836 	1.91469e-08 	4.45261e-10 	1.24258e-09 	3.6382e-09 	-2.46277e-10 	1.28624e-09
0.227002 	1.91128e-08 	4.44468e-10 	1.24037e-09 	3.63171e-09 	-2.45838e-10 	1.28394e-09
0.230267 	1.88746e-08 	7.9319e-10 	1.43853e-09 	4.47278e-09 	-1.80777e-10 	1.3038e-09
0.233531 	1.88398e-08 	7.91727e-10 	1.43588e-09 	4.46453e-09 	-1.80443e-10 	1.30139e-09
0.233633 	1.88387e-08 	7.91681e-10 	1.43579e-09 	4.46427e-09 	-1.80433e-10 	1.30132e-09
0.233735 	1.88377e-08 	7.91635e-10 	1.43571e-09 	4.46402e-09 	-1.80422e-10 	1.30124e-09
0.237164 	1.90838e-08 	1.10608e-09 	1.62464e-09 	5.51063e-09 	-9.92907e-11 	1.32143e-09
0.240592 	1.90467e-08 	1.10393e-09 	1.62148e-09 	5.49991e-09 	-9.90976e-11 	1.31886e-09
0.244083 	1.98459e-08 	1.36999e-09 	1.80533e-09 	6.80097e-09 	-1.742e-12 	1.33912e-09
0.247574 	1.98064e-08 	1.36727e-09 	1.80174e-09 	6.78744e-09 	-1.73854e-12 	1.33646e-09
0.251129 	2.12055e-08 	1.57211e-09 	1.98423e-09 	8.40359e-09 	1.11724e-10 	1.35662e-09
0.254685 	2.11624e-08 	1.56891e-09 	1.9802e-09 	8.3865e-09 	1.11497e-10 	1.35386e-09
0.258305 	2.31246e-08 	1.70373e-09 	2.16147e-09 	1.03911e-08 	2.40434e-10 	1.37314e-09
0.261925 	2.30765e-08 	1.70018e-09 	2.15697e-09 	1.03695e-08 	2.39934e-10 	1.37028e-09
0.265612 	2.52418e-08 	1.74005e-09 	2.32773e-09 	1.2849e-08 	3.83513e-10 	1.38835e-09
0.269299 	2.51882e-08 	1.73635e-09 	2.32278e-09 	1.28217e-08 	3.82698e-10 	1.3854e-09
0.273053 	2.64721e-08 	1.53796e-09 	2.44346e-09 	1.58292e-08 	5.37922e-10 	1.40401e-09
0.276808 	2.64145e-08 	1.53462e-09 	2.43815e-09 	1.57948e-08 	5.36753e-10 	1.40096e-09
0.280631 	2.62882e-08 	1.36046e-09 	2.5139e-09 	1.96681e-08 	7.41687e-10 	1.42776e-09
0.284454 	2.62298e-08 	1.35743e-09 	2.50831e-09 	1.96244e-08 	7.40038e-10 	1.42459e-09
0.288348 	2.4963e-08 	2.09514e-09 	2.56108e-09 	2.25532e-08 	1.12566e-09 	1.46418e-09
0.292241 	2.49062e-08 	2.09037e-09 	2.55525e-09 	2.25019e-08 	1.1231e-09 	1.46085e-09
0.296206 	2.39069e-08 	3.21394e-09 	2.77373e-09 	2.24187e-08 	1.47899e-09 	1.53737e-09
0.300171 	2.38513e-08 	3.20646e-09 	2.76728e-09 	2.23665e-08 	1.47555e-09 	1.5338e-09
0.304208 	2.4152e-08 	4.02725e-09 	3.15867e-09 	2.10247e-08 	1.61353e-09 	1.61983e-09
0.308246 	2.40945e-08 	4.01766e-09 	3.15115e-09 	2.09747e-08 	1.60969e-09 	1.61597e-09
0.312358 	2.51677e-08 	4.77101e-09 	3.515e-09 	1.98404e-08 	1.66478e-09 	1.66656e-09
0.316469 	2.51063e-08 	4.75938e-09 	3.50643e-09 	1.9792e-08 	1.66072e-09 	1.6625e-09
0.320656 	2.66139e-08 	5.33065e-09 	3.83016e-09 	1.86028e-08 	1.66379e-09 	1.69189e-09
0.324843 	2.65476e-08 	5.31736e-09 	3.82061e-09 	1.85565e-08 	1.65965e-09 	1.68767e-09
0.329107 	2.82633e-08 	5.73203e-09 	4.10452e-09 	1.73219e-08 	1.63179e-09 	1.70628e-09
0.333371 	2.81911e-08 	5.71741e-09 	4.09404e-09 	1.72777e-08 	1.62762e-09 	1.70193e-09
0.337713 	2.99857e-08 	6.04246e-09 	4.34374e-09 	1.60842e-08 	1.58873e-09 	1.71513e-09
0.342055 	2.99074e-08 	6.02668e-09 	4.3324e-09 	1.60422e-08 	1.58458e-09 	1.71065e-09
0.346476 	3.17087e-08 	6.25178e-09 	4.55252e-09 	1.48821e-08 	1.53726e-09 	1.72104e-09
0.350898 	3.16239e-08 	6.23507e-09 	4.54035e-09 	1.48423e-08 	1.53315e-09 	1.71644e-09
0.355401 	3.33958e-08 	6.31299e-09 	4.73448e-09 	1.36651e-08 	1.4729e-09 	1.72486e-09
0.359903 	3.33043e-08 	6.29571e-09 	4.72151e-09 	1.36277e-08 	1.46886e-09 	1.72014e-09
0.364489 	3.5034e-08 	6.23166e-09 	4.89023e-09 	1.24385e-08 	1.39606e-09 	1.72605e-09
0.369074 	3.49358e-08 	6.21419e-09 	4.87652e-09 	1.24037e-08 	1.39214e-09 	1.72121e-09
0.373744 	3.66251e-08 	6.04203e-09 	5.01973e-09 	1.12364e-08 	1.31038e-09 	1.7239e-09
0.378413 	3.65199e-08 	6.02468e-09 	5.00532e-09 	1.12041e-08 	1.30662e-09 	1.71895e-09
0.383168 	3.81677e-08 	5.80614e-09 	5.13442e-09 	1.01118e-08 	1.22687e-09 	1.72095e-09
0.387923 	3.80555e-08 	5.78907e-09 	5.11932e-09 	1.00821e-08 	1.22326e-09 	1.71589e-09
0.392765 	3.965e-08 	5.56227e-09 	5.23822e-09 	9.08654e-09 	1.15008e-09 	1.71812e-09
0.397608 	3.95305e-08 	5.54551e-09 	5.22243e-09 	9.05917e-09 	1.14661e-09 	1.71295e-09
0.402539 	4.1059e-08 	5.28571e-09 	5.32547e-09 	8.1321e-09 	1.07392e-09 	1.71386e-09
0.40747 	4.09322e-08 	5.2694e-09 	5.30903e-09 	8.107e-09 	1.07061e-09 	1.70857e-09
0.412491 	4.23871e-08 	4.96584e-09 	5.39842e-09 	7.23998e-09 	9.97063e-10 	1.70847e-09
0.417513 	4.22531e-08 	4.95013e-09 	5.38134e-09 	7.21708e-09 	9.93909e-10 	1.70306e-09
0.422626 	4.36285e-08 	4.62753e-09 	5.45873e-09 	6.42864e-09 	9.20391e-10 	1.70227e-09
0.42774 	4.34871e-08 	4.61253e-09 	5.44103e-09 	6.4078e-09 	9.17408e-10 	1.69675e-09
0.432948 	4.47784e-08 	4.25376e-09 	5.51082e-09 	5.67829e-09 	8.4293e-10 	1.69608e-09
0.438155 	4.46296e-08 	4.23962e-09 	5.49251e-09 	5.65942e-09 	8.40129e-10 	1.69045e-09
0.443458 	4.57718e-08 	3.85811e-09 	5.55041e-09 	4.99846e-09 	7.66669e-10 	1.68949e-09
0.448761 	4.56159e-08 	3.84497e-09 	5.5315e-09 	4.98143e-09 	7.64057e-10 	1.68373e-09
0.454161 	4.71488e-08 	3.4637e-09 	5.61495e-09 	4.43541e-09 	6.81386e-10 	1.68557e-09
0.459561 	4.69841e-08 	3.4516e-09 	5.59533e-09 	4.41992e-09 	6.79006e-10 	1.67968e-09
0.46506 	4.8971e-08 	3.06914e-09 	5.65708e-09 	3.9611e-09 	5.81587e-10 	1.67554e-09
0.47056 	4.87955e-08 	3.05815e-09 	5.63682e-09 	3.94691e-09 	5.79504e-10 	1.66953e-09
0.47616 	5.08577e-08 	2.82468e-09 	5.67691e-09 	3.52337e-09 	5.0422e-10 	1.66185e-09
0.48176 	5.06708e-08 	2.8143e-09 	5.65605e-09 	3.51042e-09 	5.02367e-10 	1.65574e-09
0.487463 	5.28249e-08 	2.70417e-09 	5.72383e-09 	3.10746e-09 	4.5437e-10 	1.65282e-09
0.493165 	5.26257e-08 	2.69398e-09 	5.70225e-09 	3.09574e-09 	4.52657e-10 	1.64659e-09
0.498973 	5.47235e-08 	2.57794e-09 	5.76131e-09 	2.72858e-09 	4.10628e-10 	1.64252e-09
0.50478 	5.45118e-08 	2.56796e-09 	5.73902e-09 	2.71803e-09 	4.09039e-10 	1.63616e-09
0.510694 	5.65362e-08 	2.4643e-09 	5.79372e-09 	2.39096e-09 	3.73704e-10 	1.63171e-09
0.516608 	5.63117e-08 	2.45452e-09 	5.77071e-09 	2.38147e-09 	3.7222e-10 	1.62523e-09
0.52263 	5.82603e-08 	2.35757e-09 	5.82307e-09 	2.08611e-09 	3.42362e-10 	1.62081e-09
0.528653 	5.80228e-08 	2.34795e-09 	5.79933e-09 	2.0776e-09 	3.40966e-10 	1.6142e-09
0.534786 	5.98992e-08 	2.25368e-09 	5.85124e-09 	1.80807e-09 	3.15539e-10 	1.61002e-09
0.540918 	5.96484e-08 	2.24425e-09 	5.82675e-09 	1.8005e-09 	3.14218e-10 	1.60328e-09
0.547164 	6.14535e-08 	2.14775e-09 	5.87931e-09 	1.55267e-09 	2.91858e-10 	1.59897e-09
0.553409 	6.11894e-08 	2.13852e-09 	5.85403e-09 	1.546e-09 	2.90604e-10 	1.5921e-09
0.559769 	6.29221e-08 	2.03282e-09 	5.90707e-09 	1.3166e-09 	2.69143e-10 	1.58729e-09
0.566129 	6.26442e-08 	2.02385e-09 	5.88098e-09 	1.31078e-09 	2.67955e-10 	1.58028e-09
0.572605 	6.42954e-08 	1.90168e-09 	5.93343e-09 	1.0982e-09 	2.46076e-10 	1.57529e-09
0.579082 	6.40037e-08 	1.89305e-09 	5.90651e-09 	1.09322e-09 	2.44959e-10 	1.56815e-09
0.585677 	6.55686e-08 	1.74744e-09 	5.95817e-09 	8.9701e-10 	2.21669e-10 	1.56333e-09
0.592272 	6.52628e-08 	1.73929e-09 	5.93039e-09 	8.92827e-10 	2.20635e-10 	1.55604e-09
0.598989 	6.67336e-08 	1.56247e-09 	5.98064e-09 	7.13483e-10 	1.94179e-10 	1.55115e-09
0.605705 	6.64137e-08 	1.55498e-09 	5.95197e-09 	7.10063e-10 	1.93248e-10 	1.54372e-09
0.612544 	6.77664e-08 	1.34022e-09 	5.99514e-09 	5.4918e-10 	1.61352e-10 	1.53734e-09
0.619384 	6.74323e-08 	1.33361e-09 	5.96558e-09 	5.46472e-10 	1.60557e-10 	1.52976e-09
0.626349 	6.85912e-08 	1.07829e-09 	5.99346e-09 	4.06599e-10 	1.21045e-10 	1.51949e-09
0.633314 	6.82435e-08 	1.07282e-09 	5.96307e-09 	4.04538e-10 	1.20431e-10 	1.51179e-09
0.640406 	6.90768e-08 	7.20645e-10 	5.96331e-09 	2.86279e-10 	6.69755e-11 	1.49783e-09
0.647499 	6.87164e-08 	7.16886e-10 	5.9322e-09 	2.84786e-10 	6.66261e-11 	1.49002e-09
0.654722 	6.89633e-08 	3.37881e-10 	5.88236e-09 	1.99906e-10 	5.59184e-13 	1.47304e-09
0.661944 	6.8593e-08 	3.36067e-10 	5.85078e-09 	1.98833e-10 	5.56182e-13 	1.46513e-09
0.669299 	6.77988e-08 	-2.23712e-10 	5.68252e-09 	1.53803e-10 	-8.73524e-11 	1.4393e-09
0.676655 	6.7424e-08 	-2.22476e-10 	5.65111e-09 	1.52953e-10 	-8.68696e-11 	1.43135e-09
0.684145 	6.49575e-08 	-5.84121e-10 	5.4363e-09 	1.7344e-10 	-1.76863e-10 	1.40229e-09
0.691635 	6.45877e-08 	-5.80796e-10 	5.40536e-09 	1.72453e-10 	-1.75856e-10 	1.39431e-09
0.699262 	6.26006e-08 	-1.08768e-09 	5.15711e-09 	2.30079e-10 	-2.83224e-10 	1.37533e-09
0.70689 	6.22335e-08 	-1.0813e-09 	5.12687e-09 	2.2873e-10 	-2.81563e-10 	1.36726e-09
0.714657 	6.01639e-08 	-2.29659e-09 	4.87143e-09 	3.38423e-10 	-4.24612e-10 	1.31897e-09
0.722424 	5.98003e-08 	-2.28272e-09 	4.842e-09 	3.36378e-10 	-4.22046e-10 	1.311e-09
0.730334 	5.65859e-08 	-2.34221e-09 	4.47465e-09 	5.8648e-10 	-4.47961e-10 	1.24482e-09
0.738244 	5.62334e-08 	-2.32762e-09 	4.44678e-09 	5.82826e-10 	-4.4517e-10 	1.23706e-09
0.746299 	5.43991e-08 	-1.77928e-09 	4.30493e-09 	6.73042e-10 	-3.81323e-10 	1.27684e-09
0.754354 	5.40496e-08 	-1.76785e-09 	4.27727e-09 	6.68718e-10 	-3.78873e-10 	1.26864e-09
0.762556 	5.19492e-08 	-2.50924e-09 	4.39901e-09 	7.83092e-10 	-6.10641e-10 	1.32755e-09
0.770759 	5.16048e-08 	-2.49261e-09 	4.36985e-09 	7.77901e-10 	-6.06593e-10 	1.31875e-09
0.779112 	4.8283e-08 	-3.08392e-09 	5.34652e-09 	1.00874e-09 	-8.73285e-10 	1.58831e-09
0.787465 	4.79526e-08 	-3.06282e-09 	5.30994e-09 	1.00184e-09 	-8.6731e-10 	1.57744e-09
0.795971 	4.53953e-08 	-3.98767e-09 	6.35777e-09 	1.1001e-09 	-1.03818e-09 	1.94357e-09
0.804478 	4.50746e-08 	-3.9595e-09 	6.31285e-09 	1.09233e-09 	-1.03084e-09 	1.92983e-09
0.81314 	4.21465e-08 	-4.87764e-09 	6.42009e-09 	1.31502e-09 	-1.36123e-09 	2.15304e-09
0.821802 	4.18389e-08 	-4.84204e-09 	6.37323e-09 	1.30543e-09 	-1.3513e-09 	2.13732e-09
0.830623 	3.91232e-08 	-4.54035e-09 	6.342e-09 	1.36562e-09 	-1.4589e-09 	2.30451e-09
0.839445 	3.8828e-08 	-4.5061e-09 	6.29416e-09 	1.35532e-09 	-1.44789e-09 	2.28713e-09
0.848428 	3.79051e-08 	-4.35097e-09 	5.95925e-09 	1.30185e-09 	-1.34332e-09 	2.11999e-09
0.857411 	3.76094e-08 	-4.31703e-09 	5.91276e-09 	1.2917e-09 	-1.33284e-09 	2.10345e-09
0.866558 	3.72232e-08 	-4.45488e-09 	5.59372e-09 	1.36054e-09 	-1.29148e-09 	1.85317e-09
0.875706 	3.69228e-08 	-4.41892e-09 	5.54858e-09 	1.34956e-09 	-1.28106e-09 	1.83822e-09
0.885021 	3.64343e-08 	-4.48361e-09 	5.39337e-09 	1.37071e-09 	-1.26626e-09 	1.75535e-09
0.894337 	3.61299e-08 	-4.44615e-09 	5.34831e-09 	1.35926e-09 	-1.25568e-09 	1.74068e-09
0.903823 	3.5517e-08 	-4.43968e-09 	5.1416e-09 	1.37324e-09 	-1.23888e-09 	1.66935e-09
0.91331 	3.52097e-08 	-4.40126e-09 	5.0971e-09 	1.36135e-09 	-1.22816e-09 	1.65491e-09
0.92297 	3.46169e-08 	-4.38543e-09 	4.90865e-09 	1.37284e-09 	-1.20801e-09 	1.59023e-09
0.93263 	3.43064e-08 	-4.34609e-09 	4.86462e-09 	1.36053e-09 	-1.19718e-09 	1.57597e-09
0.942468 	3.37128e-08 	-4.31396e-09 	4.70292e-09 	1.36489e-09 	-1.17754e-09 	1.52233e-09
0.952305 	3.33992e-08 	-4.27383e-09 	4.65917e-09 	1.35219e-09 	-1.16658e-09 	1.50817e-09
0.962323 	3.28031e-08 	-4.23649e-09 	4.51531e-09 	1.35598e-09 	-1.14958e-09 	1.4635e-09
0.972341 	3.24864e-08 	-4.19559e-09 	4.47172e-09 	1.34289e-09 	-1.13848e-09 	1.44937e-09
0.982543 	3.1876e-08 	-4.16496e-09 	4.3258e-09 	1.3502e-09 	-1.12287e-09 	1.40548e-09
0.992745 	3.15564e-08 	-4.1232e-09 	4.28243e-09 	1.33666e-09 	-1.11162e-09 	1.39139e-09
1.00313 	3.0925e-08 	-4.09591e-09 	4.12976e-09 	1.34657e-09 	-1.09526e-09 	1.3446e-09
1.01352 	3.06027e-08 	-4.05323e-09 	4.08673e-09 	1.33254e-09 	-1.08385e-09 	1.33059e-09
1.0241 	2.99483e-08 	-4.02492e-09 	3.92267e-09 	1.34303e-09 	-1.06437e-09 	1.28011e-09
1.03468 	2.96236e-08 	-3.98129e-09 	3.88015e-09 	1.32847e-09 	-1.05284e-09 	1.26623e-09
1.04545 	2.89455e-08 	-3.94666e-09 	3.70406e-09 	1.33706e-09 	-1.0288e-09 	1.21182e-09
1.05623 	2.86188e-08 	-3.90212e-09 	3.66226e-09 	1.32197e-09 	-1.01719e-09 	1.19814e-09
1.0672 	2.79226e-08 	-3.85786e-09 	3.47718e-09 	1.32661e-09 	-9.88158e-10 	1.14037e-09
1.07817 	2.75942e-08 	-3.81249e-09 	3.43629e-09 	1.31101e-09 	-9.76536e-10 	1.12696e-09
1.08934 	2.68918e-08 	-3.75717e-09 	3.24912e-09 	1.31019e-09 	-9.4299e-10 	1.06625e-09
1.10051 	2.65619e-08 	-3.71107e-09 	3.20926e-09 	1.29411e-09 	-9.31421e-10 	1.05317e-09
1.11189 	2.58589e-08 	-3.6456e-09 	3.02337e-09 	1.28731e-09 	-8.93993e-10 	9.91255e-10
1.12327 	2.55276e-08 	-3.59889e-09 	2.98464e-09 	1.27082e-09 	-8.8254e-10 	9.78556e-10
1.13485 	2.48256e-08 	-3.52377e-09 	2.80044e-09 	1.25824e-09 	-8.41971e-10 	9.16944e-10
1.14644 	2.44931e-08 	-3.47658e-09 	2.76294e-09 	1.24139e-09 	-8.30696e-10 	9.04665e-10
1.15824 	2.37946e-08 	-3.3928e-09 	2.58109e-09 	1.2235e-09 	-7.87833e-10 	8.44393e-10
1.17004 	2.34611e-08 	-3.34525e-09 	2.54491e-09 	1.20636e-09 	-7.7679e-10 	8.32558e-10
1.18205 	2.27706e-08 	-3.2542e-09 	2.36676e-09 	1.18383e-09 	-7.32504e-10 	7.74386e-10
1.19407 	2.24361e-08 	-3.2064e-09 	2.33199e-09 	1.16644e-09 	-7.21744e-10 	7.63011e-10
1.2063 	2.17593e-08 	-3.10994e-09 	2.16057e-09 	1.14027e-09 	-6.77105e-10 	7.07451e-10
1.21854 	2.14239e-08 	-3.062e-09 	2.12726e-09 	1.12269e-09 	-6.66668e-10 	6.96546e-10
1.23099 	2.07651e-08 	-2.96299e-09 	1.96477e-09 	1.09326e-09 	-6.22106e-10 	6.43819e-10
1.24345 	2.04286e-08 	-2.91499e-09 	1.93294e-09 	1.07555e-09 	-6.12026e-10 	6.33388e-10
1.25614 	1.97909e-08 	-2.81195e-09 	1.78052e-09 	1.044e-09 	-5.68697e-10 	5.83708e-10
1.26883 	1.94533e-08 	-2.76398e-09 	1.75015e-09 	1.02619e-09 	-5.58997e-10 	5.73751e-10
1.28175 	1.88405e-08 	-2.66759e-09 	1.60915e-09 	9.912e-10 	-5.16262e-10 	5.27082e-10
1.29467 	1.85015e-08 	-2.6196e-09 	1.5802e-09 	9.7337e-10 	-5.06975e-10 	5.176e-10
1.30783 	1.79078e-08 	-2.51713e-09 	1.45518e-09 	9.38736e-10 	-4.66637e-10 	4.74027e-10
1.32099 	1.75674e-08 	-2.46928e-09 	1.42752e-09 	9.20892e-10 	-4.57767e-10 	4.65016e-10
1.33439 	1.70444e-08 	-2.39921e-09 	1.31372e-09 	9.00067e-10 	-4.26514e-10 	4.25214e-10
1.34778 	1.67013e-08 	-2.35092e-09 	1.28727e-09 	8.81949e-10 	-4.17928e-10 	4.16654e-10
1.36143 	1.61186e-08 	-2.33426e-09 	1.17614e-09 	8.66103e-10 	-3.90797e-10 	3.80161e-10
1.37507 	1.57742e-08 	-2.28439e-09 	1.151e-09 	8.47596e-10 	-3.82447e-10 	3.72038e-10
1.38897 	1.51688e-08 	-2.20225e-09 	1.04601e-09 	8.12746e-10 	-3.50635e-10 	3.38483e-10
1.40286 	1.48238e-08 	-2.15217e-09 	1.02222e-09 	7.94264e-10 	-3.42661e-10 	3.30786e-10
1.41701 	1.4321e-08 	-2.01799e-09 	9.27736e-10 	7.45074e-10 	-3.07632e-10 	3.00271e-10
1.43116 	1.39734e-08 	-1.96901e-09 	9.05218e-10 	7.2699e-10 	-3.00166e-10 	2.92983e-10
1.44557 	1.34967e-08 	-1.85258e-09 	8.17739e-10 	6.78637e-10 	-2.66689e-10 	2.65329e-10
1.45998 	1.31459e-08 	-1.80444e-09 	7.96486e-10 	6.60999e-10 	-2.59758e-10 	2.58433e-10
1.47466 	1.26908e-08 	-1.69389e-09 	7.13689e-10 	6.15306e-10 	-2.2931e-10 	2.337e-10
1.48933 	1.23363e-08 	-1.64658e-09 	6.93755e-10 	5.98119e-10 	-2.22905e-10 	2.27173e-10
1.50427 	1.18949e-08 	-1.54511e-09 	6.16124e-10 	5.54861e-10 	-1.95034e-10 	2.05213e-10
1.51921 	1.15363e-08 	-1.49854e-09 	5.97552e-10 	5.38136e-10 	-1.89155e-10 	1.99027e-10
1.53443 	1.11054e-08 	-1.40583e-09 	5.24312e-10 	4.97748e-10 	-1.64047e-10 	1.79617e-10
1.54965 	1.07424e-08 	-1.35988e-09 	5.07175e-10 	4.81479e-10 	-1.58686e-10 	1.73746e-10
1.56514 	1.0318e-08 	-1.27617e-09 	4.3875e-10 	4.44074e-10 	-1.3625e-10 	1.56647e-10
1.58064 	9.95036e-09 	-1.23069e-09 	4.23116e-10 	4.2825e-10 	-1.31395e-10 	1.51065e-10
1.59642 	9.52927e-09 	-1.15561e-09 	3.59485e-10 	3.93964e-10 	-1.11495e-10 	1.36047e-10
1.6122 	9.15667e-09 	-1.11042e-09 	3.45429e-10 	3.7856e-10 	-1.07135e-10 	1.30728e-10
1.62827 	8.73649e-09 	-1.04326e-09 	2.86623e-10 	3.47373e-10 	-8.95879e-11 	1.17543e-10
1.64434 	8.35882e-09 	-9.98157e-10 	2.74233e-10 	3.32357e-10 	-8.57151e-11 	1.12462e-10
1.6607 	7.93798e-09 	-9.38056e-10 	2.20343e-10 	3.042e-10 	-7.03147e-11 	1.00898e-10
1.67707 	7.55513e-09 	-8.92814e-10 	2.09716e-10 	2.89528e-10 	-6.69234e-11 	9.60317e-11
1.69373 	7.13275e-09 	-8.38818e-10 	1.60813e-10 	2.64258e-10 	-5.3413e-11 	8.58989e-11
1.7104 	6.74465e-09 	-7.93177e-10 	1.52063e-10 	2.4988e-10 	-5.05067e-11 	8.12253e-11
1.72737 	6.32052e-09 	-7.4355e-10 	1.08449e-10 	2.2733e-10 	-3.87722e-11 	7.23443e-11
1.74434 	5.9271e-09 	-6.97268e-10 	1.01699e-10 	2.1318e-10 	-3.63588e-11 	6.78415e-11
1.76162 	5.50165e-09 	-6.49501e-10 	6.35361e-11 	1.93062e-10 	-2.6399e-11 	6.01517e-11
1.7789 	5.10282e-09 	-6.02417e-10 	5.89302e-11 	1.79066e-10 	-2.44852e-11 	5.57914e-11
1.7965 	4.67668e-09 	-5.54491e-10 	2.67035e-11 	1.6086e-10 	-1.62066e-11 	4.91861e-11
1.81409 	4.27226e-09 	-5.06541e-10 	2.43943e-11 	1.4695e-10 	-1.48051e-11 	4.4933e-11
1.83202 	3.84615e-09 	-4.57428e-10 	-1.09978e-12 	1.30045e-10 	-8.03826e-12 	3.92355e-11
1.84994 	3.43583e-09 	-4.08628e-10 	-9.82377e-13 	1.16172e-10 	-7.18072e-12 	3.50502e-11
1.86819 	3.00984e-09 	-3.58454e-10 	-1.8931e-11 	1.003e-10 	-1.93295e-12 	3.0068e-11
1.88644 	2.59313e-09 	-3.08826e-10 	-1.63099e-11 	8.64136e-11 	-1.66533e-12 	2.59056e-11
1.90502 	2.16774e-09 	-2.5706e-10 	-2.67262e-11 	7.14361e-11 	1.99988e-12 	2.13762e-11
1.9236 	1.74358e-09 	-2.06761e-10 	-2.14966e-11 	5.74584e-11 	1.60857e-12 	1.71944e-11
1.94253 	1.30798e-09 	-1.53644e-10 	-2.37728e-11 	4.3056e-11 	3.44951e-12 	1.29561e-11
1.96146 	8.77249e-10 	-1.03048e-10 	-1.59441e-11 	2.88774e-11 	2.31356e-12 	8.69091e-12
1.98073 	4.36601e-10 	-5.17299e-11 	-1.02011e-11 	1.45124e-11 	1.87699e-12 	4.39576e-12
2 	-1.33227e-14 	0 	7.21645e-16 	0 	0 	4.16334e-15
