0 1e-10
0.0012616 0.00494263
0.0025232 0.01234
0.00254642 0.0125132
0.00256965 0.0126863
0.00352477 0.0138853
0.00447989 0.0150569
0.00483316 0.0152953
0.00518642 0.0155337
0.00649473 0.0177385
0.00780303 0.0196729
0.00782711 0.0197044
0.00785119 0.019736
0.00884167 0.0208862
0.00983216 0.0220049
0.0101985 0.0221948
0.0105648 0.0223847
0.0119465 0.0225702
0.0133283 0.0220889
0.0147099 0.0207687
0.0160915 0.0188444
0.0161169 0.0187999
0.0161424 0.0187553
0.0171883 0.0170913
0.0182343 0.0154002
0.0186212 0.0145824
0.0190081 0.0137647
0.0204672 0.011467
0.0219263 0.00908047
0.0233854 0.00738156
0.0248444 0.00584334
0.0248713 0.00581745
0.0248981 0.00579155
0.0260027 0.0050268
0.0271073 0.00427576
0.0275159 0.00409529
0.0279244 0.00391482
0.0294653 0.00335353
0.0310063 0.00294883
0.0325754 0.00264222
0.0341446 0.00243113
0.0357425 0.00223806
0.0373405 0.00210365
0.0389677 0.00196437
0.040595 0.00186018
0.0422521 0.00175084
0.0439092 0.00165988
0.0455662 0.00157003
0.0472232 0.00148749
0.0472537 0.00148608
0.0472842 0.00148468
0.0485386 0.00142672
0.0497931 0.00136875
0.0502571 0.0013472
0.0507211 0.00132564
0.052471 0.00125635
0.054221 0.00117986
0.056003 0.00112067
0.0577851 0.0010463
0.0595998 0.000994821
0.0614146 0.000918196
0.0629797 0.000879483
0.0645449 0.000825248
0.0648277 0.00080945
0.0651106 0.000793652
0.0667385 0.000759753
0.0683663 0.000704797
0.0686204 0.000690221
0.0688745 0.000675645
0.0707563 0.00064449
0.0726381 0.000570685
0.0726727 0.000568684
0.0727073 0.000566683
0.074132 0.000548798
0.0755567 0.000528133
0.0760836 0.000500748
0.0766105 0.000473363
0.0785979 0.000454628
0.0805853 0.000400989
0.0825725 0.000387129
0.0845598 0.00034934
0.0845964 0.000348284
0.0846329 0.000347228
0.0861374 0.000339052
0.0876419 0.000329733
0.0881984 0.000318161
0.0887548 0.000306589
0.0908536 0.000297249
0.0929523 0.00027569
0.0950896 0.000268196
0.0972268 0.000252019
0.0994033 0.000246048
0.10158 0.000234133
0.103796 0.000229655
0.106012 0.000221375
0.108269 0.000218156
0.110526 0.000212562
0.112825 0.000210789
0.115123 0.000207338
0.115755 0.000207325
0.116387 0.000207312
0.118096 0.000207278
0.119804 0.000205791
0.121866 0.000207747
0.123928 0.000208838
0.12425 0.000208762
0.124571 0.000208686
0.126999 0.000215469
0.129426 0.000219804
0.131897 0.000232852
0.134369 0.000242842
0.136886 0.000262688
0.139403 0.000279796
0.141574 0.000301547
0.143745 0.00032286
0.144137 0.000326542
0.14453 0.000330224
0.146788 0.000354245
0.149045 0.000379315
0.149398 0.000383526
0.14975 0.000387738
0.152408 0.000412876
0.155066 0.000442374
0.157773 0.000464471
0.16048 0.00049137
0.163187 0.000515014
0.165894 0.000541485
0.165943 0.000542014
0.165993 0.000542544
0.168042 0.000564707
0.170091 0.000586907
0.170849 0.000595384
0.171607 0.000603861
0.174466 0.000640546
0.177324 0.000677969
0.180235 0.000720378
0.183146 0.00076963
0.186111 0.000824464
0.189075 0.000895086
0.192094 0.000963226
0.195113 0.00104361
0.198187 0.0011008
0.201261 0.00115598
0.204335 0.0011822
0.207409 0.00120137
0.207465 0.00120162
0.207522 0.00120187
0.209849 0.00120134
0.212176 0.00120032
0.213037 0.00119651
0.213898 0.0011927
0.217144 0.00116852
0.22039 0.00113655
0.223696 0.00110694
0.227002 0.00107358
0.230308 0.00105826
0.233614 0.00104253
0.233674 0.00104223
0.233735 0.00104193
0.236238 0.00103925
0.238741 0.00103659
0.239666 0.0010358
0.240592 0.00103501
0.244083 0.00104055
0.247574 0.00104799
0.251129 0.00106322
0.254685 0.00108289
0.258305 0.00110435
0.261925 0.001132
0.265612 0.00115708
0.269299 0.00118753
0.272986 0.00121526
0.276672 0.00124665
0.27674 0.00124728
0.276808 0.00124792
0.279599 0.0012703
0.28239 0.00129292
0.283422 0.00130294
0.284454 0.00131295
0.288348 0.00134625
0.292241 0.00138298
0.296134 0.00141773
0.300028 0.00145517
0.300099 0.0014559
0.300171 0.00145663
0.303118 0.00148282
0.306066 0.00150922
0.307156 0.00152045
0.308246 0.00153167
0.312283 0.00156545
0.316321 0.00160325
0.316395 0.001604
0.316469 0.00160476
0.319526 0.0016273
0.322582 0.00165015
0.323713 0.00166083
0.324843 0.00167151
0.329107 0.00169814
0.333371 0.00173048
0.337713 0.00175249
0.342055 0.00177954
0.346476 0.00179678
0.350898 0.00181629
0.355319 0.00183006
0.359741 0.00184435
0.359822 0.00184463
0.359903 0.0018449
0.364489 0.0018576
0.369074 0.0018701
0.372483 0.00187847
0.375891 0.00188674
0.377152 0.00188903
0.378413 0.00189132
0.383168 0.00190131
0.387923 0.0019088
0.392765 0.00191761
0.397608 0.00192329
0.402539 0.00193156
0.40747 0.00193547
0.412401 0.00194418
0.417331 0.00194758
0.417422 0.00194756
0.417513 0.00194754
0.422626 0.00195775
0.42774 0.00196114
0.431542 0.00197005
0.435343 0.00197845
0.436749 0.00197799
0.438155 0.00197754
0.443458 0.00199195
0.448761 0.00199715
0.454063 0.0020101
0.459366 0.00201226
0.459464 0.00201213
0.459561 0.00201201
0.463576 0.0020173
0.46759 0.00202156
0.469075 0.00201587
0.47056 0.00201017
0.47616 0.00200744
0.48176 0.00198526
0.487463 0.0019671
0.493165 0.00192957
0.498973 0.00189258
0.50478 0.00183487
0.510694 0.00177927
0.516608 0.00170315
0.522522 0.00163575
0.528435 0.00155307
0.528544 0.00155132
0.528653 0.00154957
0.534786 0.00147987
0.540918 0.00139691
0.545478 0.0013545
0.550037 0.00131139
0.551723 0.00129046
0.553409 0.00126953
0.559654 0.0012366
0.565899 0.00119849
0.566014 0.00119771
0.566129 0.00119693
0.572605 0.00119065
0.579082 0.00119142
0.583896 0.00119993
0.588711 0.00121014
0.590492 0.001226
0.592272 0.00124185
0.598989 0.00125934
0.605705 0.00131245
0.612421 0.00132927
0.619137 0.00137095
0.61926 0.0013721
0.619384 0.00137324
0.61951 0.00137372
0.619636 0.00137419
0.626475 0.00140009
0.633314 0.00144137
0.638235 0.00146851
0.643156 0.00149566
0.643412 0.00149707
0.643669 0.00149909
0.645584 0.00151413
0.647499 0.00152918
0.654722 0.00158688
0.661944 0.00165245
0.669299 0.00173916
0.676655 0.00183233
0.684009 0.00191513
0.691364 0.00201363
0.691499 0.00201568
0.691635 0.00201773
0.699262 0.00203428
0.70689 0.00209606
0.713608 0.00200011
0.720327 0.00194416
0.721376 0.00194683
0.722424 0.00194949
0.730334 0.00171171
0.738244 0.00153232
0.745066 0.00129899
0.751888 0.00106042
0.753121 0.00101529
0.754354 0.000970146
0.761449 0.000797556
0.768544 0.000589726
0.769652 0.000547251
0.770759 0.000504776
0.779112 0.000409733
0.787465 0.000252504
0.795971 0.000219656
0.804478 0.000156365
0.812983 0.000156645
0.821489 0.000153309
0.821646 0.000153193
0.821802 0.000153077
0.828242 0.000168834
0.834681 0.000185741
0.837063 0.00020016
0.839445 0.000214578
0.847053 0.000236641
0.85466 0.000268613
0.856035 0.000278218
0.857411 0.000287824
0.866558 0.00030233
0.875706 0.000326996
0.885021 0.000326672
0.894337 0.000327276
0.901262 0.000311137
0.908187 0.000294326
0.910748 0.000283343
0.91331 0.00027236
0.92297 0.000234561
0.93263 0.000173134
0.940962 0.000147341
0.949294 0.000110556
0.950799 9.96625e-05
0.952305 8.87686e-05
0.960971 7.63273e-05
0.969636 5.74023e-05
0.970989 5.26015e-05
0.972341 4.78007e-05
0.980981 4.37924e-05
0.989621 3.77968e-05
0.991183 3.59457e-05
0.992745 3.40945e-05
1.00173 3.30458e-05
1.01072 3.14415e-05
1.01212 3.10328e-05
1.01352 3.06242e-05
1.0241 3.02324e-05
1.03468 2.97746e-05
1.04545 2.95711e-05
1.05623 2.94987e-05
1.0672 2.9557e-05
1.07817 2.98001e-05
1.08934 2.9945e-05
1.10051 3.02005e-05
1.11189 3.01627e-05
1.12327 2.99843e-05
1.13485 2.97361e-05
1.14644 2.90908e-05
1.15824 2.8921e-05
1.17004 2.84276e-05
1.18205 2.8486e-05
1.19407 2.84451e-05
1.2063 2.85766e-05
1.21854 2.86777e-05
1.23077 2.8807e-05
1.243 2.8914e-05
1.24323 2.89156e-05
1.24345 2.89173e-05
1.25272 2.9009e-05
1.26198 2.90991e-05
1.2654 2.91212e-05
1.26883 2.91433e-05
1.28152 2.92626e-05
1.2942 2.93612e-05
1.29444 2.93627e-05
1.29467 2.93643e-05
1.30428 2.94492e-05
1.31388 2.9533e-05
1.31743 2.95564e-05
1.32099 2.95798e-05
1.33439 2.96866e-05
1.34778 2.97762e-05
1.35934 2.98572e-05
1.3709 2.99307e-05
1.37298 2.99411e-05
1.37507 2.99516e-05
1.38709 3.00167e-05
1.39911 3.00738e-05
1.40099 3.00804e-05
1.40286 3.0087e-05
1.41701 3.01351e-05
1.43116 3.0168e-05
1.44531 3.01958e-05
1.45946 3.0212e-05
1.45972 3.02121e-05
1.45998 3.02122e-05
1.47069 3.02317e-05
1.4814 3.02508e-05
1.48537 3.02548e-05
1.48933 3.02588e-05
1.50427 3.03095e-05
1.51921 3.03603e-05
1.53443 3.04499e-05
1.54965 3.05427e-05
1.56486 3.06662e-05
1.58008 3.07902e-05
1.58036 3.07924e-05
1.58064 3.07947e-05
1.59216 3.0905e-05
1.60368 3.10152e-05
1.60794 3.10549e-05
1.6122 3.10947e-05
1.62827 3.12568e-05
1.64434 3.14172e-05
1.6607 3.15935e-05
1.67707 3.17704e-05
1.69373 3.19606e-05
1.7104 3.21527e-05
1.72737 3.23675e-05
1.74434 3.25846e-05
1.76162 3.28208e-05
1.7789 3.30589e-05
1.7965 3.33111e-05
1.81409 3.35648e-05
1.83202 3.3829e-05
1.84994 3.4095e-05
1.86819 3.43763e-05
1.88644 3.46604e-05
1.90502 3.49619e-05
1.9236 3.52658e-05
1.94219 3.55152e-05
1.96077 3.57677e-05
1.96111 3.57724e-05
1.96146 3.57771e-05
1.97552 3.58205e-05
1.98959 3.58645e-05
1.9948 3.58843e-05
2 3.59042e-05
