0 1e-10
0.00128482 0.00760706
0.00256965 0.0149451
0.00387803 0.0136317
0.00518642 0.0123729
0.00651881 0.0112612
0.00785119 0.0102098
0.00920802 0.00918404
0.0105648 0.00824632
0.0119465 0.00729863
0.0133283 0.00645131
0.0147353 0.00562589
0.0161424 0.00488159
0.0175752 0.00422065
0.0190081 0.00359833
0.0204672 0.00310071
0.0219263 0.00259205
0.0234122 0.00222907
0.0248981 0.00182509
0.0264113 0.00158487
0.0279244 0.00130614
0.0294653 0.00117662
0.0310063 0.00102618
0.0325754 0.000967923
0.0341446 0.000901486
0.0357425 0.000877451
0.0373405 0.000850741
0.0389677 0.000842399
0.040595 0.000833712
0.0422521 0.000834003
0.0439092 0.000835478
0.0455967 0.000842862
0.0472842 0.000853279
0.0490026 0.000867484
0.0507211 0.000886746
0.052471 0.000907211
0.054221 0.000934643
0.056003 0.000960568
0.0577851 0.000995466
0.0595998 0.00102676
0.0614146 0.00106914
0.0632626 0.00110376
0.0651106 0.00114994
0.0669925 0.00118278
0.0688745 0.00122422
0.0707909 0.00124481
0.0727073 0.001267
0.0746589 0.0012692
0.0766105 0.00126529
0.0785979 0.00124942
0.0805853 0.00122247
0.0826091 0.00118532
0.0846329 0.00113377
0.0866939 0.0010765
0.0887548 0.00100356
0.0908536 0.000934559
0.0929523 0.000851654
0.0950896 0.000780182
0.0972268 0.000698226
0.0994033 0.00063248
0.10158 0.000559447
0.103796 0.000505914
0.106012 0.000447526
0.108269 0.000408001
0.110526 0.000365751
0.112825 0.000338432
0.115123 0.0003101
0.117464 0.000292118
0.119804 0.000274017
0.122188 0.000262684
0.124571 0.000251646
0.126999 0.000244771
0.129426 0.000238344
0.131897 0.000234204
0.134369 0.000230505
0.136886 0.000227658
0.139403 0.00022515
0.141967 0.00022237
0.14453 0.000219775
0.14714 0.000216094
0.14975 0.000212436
0.152408 0.00020731
0.155066 0.000202122
0.157773 0.000195523
0.16048 0.000188812
0.163237 0.000181166
0.165993 0.000173375
0.1688 0.000165599
0.171607 0.000157844
0.174466 0.000150494
0.177324 0.000143497
0.180235 0.000136397
0.183146 0.000129704
0.186111 0.000123043
0.189075 0.000116492
0.192094 0.000110631
0.195113 0.000104604
0.198187 9.96074e-05
0.201261 9.43085e-05
0.204391 9.0277e-05
0.207522 8.59405e-05
0.21071 8.25994e-05
0.213898 7.89815e-05
0.217144 7.56754e-05
0.22039 7.20402e-05
0.223696 6.83568e-05
0.227002 6.42628e-05
0.227615 6.36966e-05
0.228228 6.31305e-05
0.230982 5.95635e-05
0.233735 5.59965e-05
0.237164 5.24236e-05
0.240592 4.84408e-05
0.241227 4.80138e-05
0.241863 4.75868e-05
0.244719 4.50005e-05
0.247574 4.24142e-05
0.251129 4.02711e-05
0.254685 3.79354e-05
0.258305 3.64081e-05
0.261925 3.47659e-05
0.265612 3.37084e-05
0.269299 3.2592e-05
0.273053 3.18561e-05
0.276808 3.10945e-05
0.280631 3.05876e-05
0.284454 3.00823e-05
0.288348 2.97491e-05
0.292241 2.94436e-05
0.296206 2.92498e-05
0.300171 2.91084e-05
0.304208 2.90313e-05
0.308246 2.9027e-05
0.312358 2.90413e-05
0.316469 2.91483e-05
0.320656 2.92352e-05
0.324843 2.94386e-05
0.329107 2.95958e-05
0.333371 2.98963e-05
0.337713 3.01334e-05
0.342055 3.05437e-05
0.346476 3.08738e-05
0.350898 3.14064e-05
0.355401 3.18375e-05
0.359903 3.24915e-05
0.364489 3.30279e-05
0.369074 3.37954e-05
0.373744 3.44411e-05
0.378413 3.53183e-05
0.383168 3.60863e-05
0.387923 3.70929e-05
0.392765 3.80201e-05
0.397608 3.92187e-05
0.402539 4.03465e-05
0.40747 4.18062e-05
0.412491 4.31354e-05
0.417513 4.48639e-05
0.422626 4.63141e-05
0.42774 4.81988e-05
0.432948 4.95576e-05
0.438155 5.13022e-05
0.443458 5.23166e-05
0.448761 5.35848e-05
0.454161 5.41572e-05
0.459561 5.4839e-05
0.46506 5.5011e-05
0.47056 5.51756e-05
0.47616 5.49568e-05
0.48176 5.46181e-05
0.487463 5.39759e-05
0.493165 5.3094e-05
0.498973 5.20118e-05
0.50478 5.05676e-05
0.510694 4.89785e-05
0.516608 4.68856e-05
0.52263 4.47625e-05
0.528653 4.19868e-05
0.534786 3.94885e-05
0.540918 3.62356e-05
0.547164 3.38946e-05
0.553409 3.08561e-05
0.559769 2.92424e-05
0.566129 2.71556e-05
0.572605 2.63163e-05
0.579082 2.52311e-05
0.585677 2.48909e-05
0.592272 2.44461e-05
0.598989 2.43267e-05
0.605705 2.41658e-05
0.612544 2.40817e-05
0.619384 2.39674e-05
0.626349 2.38554e-05
0.633314 2.37068e-05
0.640406 2.35826e-05
0.647499 2.34195e-05
0.654722 2.33034e-05
0.661944 2.3151e-05
0.669299 2.30622e-05
0.676655 2.29427e-05
0.684145 2.2899e-05
0.691635 2.28341e-05
0.699262 2.28224e-05
0.70689 2.2797e-05
0.714657 2.27925e-05
0.722424 2.27759e-05
0.730334 2.27755e-05
0.738244 2.27631e-05
0.746299 2.27713e-05
0.754354 2.2768e-05
0.762556 2.27858e-05
0.770759 2.2793e-05
0.779112 2.28212e-05
0.787465 2.28398e-05
0.795971 2.28787e-05
0.804478 2.29089e-05
0.81314 2.29581e-05
0.821802 2.29993e-05
0.830623 2.30596e-05
0.839445 2.3113e-05
0.848428 2.31819e-05
0.857411 2.32447e-05
0.866558 2.33178e-05
0.875706 2.33842e-05
0.885021 2.34608e-05
0.894337 2.35302e-05
0.903823 2.36131e-05
0.91331 2.36897e-05
0.92297 2.37817e-05
0.93263 2.38693e-05
0.942468 2.39659e-05
0.952305 2.40587e-05
0.962323 2.41565e-05
0.972341 2.42501e-05
0.982543 2.43526e-05
0.992745 2.4451e-05
1.00313 2.45605e-05
1.01352 2.46663e-05
1.0241 2.47796e-05
1.03468 2.48894e-05
1.04545 2.50046e-05
1.05623 2.51165e-05
1.0672 2.52355e-05
1.07817 2.53512e-05
1.08934 2.54746e-05
1.10051 2.55948e-05
1.11189 2.57218e-05
1.12327 2.58463e-05
1.13485 2.59763e-05
1.14644 2.61041e-05
1.15824 2.62382e-05
1.17004 2.63703e-05
1.18205 2.65083e-05
1.19407 2.66449e-05
1.2063 2.67855e-05
1.21854 2.69248e-05
1.23099 2.70668e-05
1.24345 2.7207e-05
1.25614 2.73501e-05
1.26883 2.74915e-05
1.28175 2.76365e-05
1.29467 2.778e-05
1.30783 2.79289e-05
1.32099 2.80767e-05
1.33439 2.82304e-05
1.34778 2.83836e-05
1.36143 2.85406e-05
1.37507 2.86967e-05
1.38897 2.8858e-05
1.40286 2.90187e-05
1.41701 2.91834e-05
1.43116 2.93479e-05
1.44557 2.95138e-05
1.45998 2.96785e-05
1.47466 2.98438e-05
1.48933 3.00067e-05
1.50427 3.0162e-05
1.51921 3.03132e-05
1.53443 3.04479e-05
1.54965 3.05774e-05
1.56514 3.06917e-05
1.58064 3.08025e-05
1.59642 3.09022e-05
1.6122 3.09991e-05
1.62827 3.11003e-05
1.64434 3.12014e-05
1.6607 3.13262e-05
1.67707 3.14548e-05
1.69373 3.16127e-05
1.7104 3.17742e-05
1.72737 3.19543e-05
1.74434 3.21364e-05
1.76162 3.2327e-05
1.7789 3.25182e-05
1.7965 3.27234e-05
1.81409 3.29295e-05
1.83202 3.31423e-05
1.84994 3.33568e-05
1.86819 3.35899e-05
1.88644 3.3825e-05
1.90502 3.40738e-05
1.9236 3.43242e-05
1.94253 3.45371e-05
1.96146 3.47494e-05
1.98073 3.46568e-05
2 3.45683e-05
