0 	0 	0 	0 	0 	0 	0
0.000204505 	0.000439364 	-2.23159e-06 	7.37872e-06 	3.04422e-07 	-1.21266e-06 	0.000239963
0.00040901 	0.000878727 	-4.46319e-06 	1.47574e-05 	6.08844e-07 	-2.42532e-06 	0.000479926
0.00148933 	0.00326375 	-1.59978e-05 	6.06907e-05 	2.33444e-06 	-9.50028e-06 	0.00178376
0.00256965 	0.00564877 	-2.75324e-05 	0.000106624 	4.06004e-06 	-1.65752e-05 	0.00308759
0.00387803 	0.00663593 	-5.24601e-05 	1.93073e-05 	1.05996e-05 	-2.89685e-05 	0.00407463
0.00518642 	0.00763913 	-7.72874e-05 	-6.91686e-05 	1.72897e-05 	-4.1708e-05 	0.00507189
0.00651881 	0.00880112 	-0.000124019 	-0.000169462 	3.21206e-05 	-6.31502e-05 	0.00617366
0.00785119 	0.00998489 	-0.000170848 	-0.000271809 	4.72951e-05 	-8.5272e-05 	0.00728873
0.00920802 	0.011303 	-0.000239532 	-0.000377171 	7.17856e-05 	-0.000113566 	0.00845029
0.0105648 	0.0126481 	-0.000308518 	-0.000485084 	9.68196e-05 	-0.000142727 	0.00962756
0.0119465 	0.0140474 	-0.000397974 	-0.000587925 	0.000132669 	-0.000178113 	0.0108109
0.0133283 	0.0154775 	-0.000487945 	-0.000693395 	0.000169247 	-0.000214552 	0.012011
0.0147353 	0.016864 	-0.000592553 	-0.000780324 	0.000217526 	-0.000256473 	0.0131907
0.0161424 	0.0182824 	-0.000697768 	-0.000869647 	0.00026667 	-0.000299589 	0.0143863
0.0175752 	0.0195661 	-0.000809748 	-0.000918704 	0.000327882 	-0.000347143 	0.0155414
0.0190081 	0.0208807 	-0.000922276 	-0.000969549 	0.000390013 	-0.000396023 	0.0167096
0.0204672 	0.0219994 	-0.00103428 	-0.000955453 	0.00046421 	-0.00044778 	0.0178173
0.0219263 	0.0231478 	-0.00114681 	-0.00094224 	0.000539272 	-0.000500986 	0.0189334
0.0234122 	0.0240787 	-0.00125416 	-0.000847325 	0.000625989 	-0.000554411 	0.0199674
0.0248981 	0.0250392 	-0.00136237 	-0.000752384 	0.000713404 	-0.000609337 	0.021004
0.0264113 	0.0257864 	-0.00146333 	-0.0005732 	0.000811677 	-0.000660583 	0.0219419
0.0279244 	0.0265623 	-0.00156591 	-0.000393332 	0.000910394 	-0.000713265 	0.0228761
0.0294653 	0.0271368 	-0.00165996 	-0.000137216 	0.00101887 	-0.00075792 	0.0237045
0.0310063 	0.0277375 	-0.00175674 	0.00011979 	0.00112749 	-0.000803872 	0.0245237
0.0325754 	0.0281521 	-0.00184324 	0.000442046 	0.00124457 	-0.000838014 	0.0252401
0.0341446 	0.0285885 	-0.00193385 	0.000764793 	0.00136148 	-0.000873376 	0.0259425
0.0343989 	0.0286267 	-0.00194435 	0.00082504 	0.00138134 	-0.000876232 	0.0260458
0.0346533 	0.028665 	-0.00195484 	0.000885287 	0.0014012 	-0.000879088 	0.0261491
0.0359969 	0.0289073 	-0.0020252 	0.00120235 	0.00150503 	-0.000897586 	0.0266483
0.0373405 	0.0291497 	-0.00209556 	0.00151942 	0.00160886 	-0.000916083 	0.0271475
0.0389677 	0.0293071 	-0.00216432 	0.00193989 	0.00173783 	-0.000921865 	0.0276634
0.040595 	0.0294712 	-0.00224029 	0.00235853 	0.00186629 	-0.000929172 	0.0281596
0.0408587 	0.0294833 	-0.00224673 	0.00243094 	0.00188749 	-0.000927112 	0.0282345
0.0411225 	0.0294953 	-0.00225318 	0.00250335 	0.00190869 	-0.000925051 	0.0283094
0.0425158 	0.0295523 	-0.00230996 	0.00287662 	0.0020197 	-0.000919251 	0.0286513
0.0439092 	0.0296093 	-0.00236674 	0.0032499 	0.00213072 	-0.000913451 	0.0289932
0.0455967 	0.0296174 	-0.00241552 	0.00370455 	0.0022651 	-0.000892188 	0.0293341
0.0472842 	0.0296135 	-0.00247395 	0.00415424 	0.00239953 	-0.000873348 	0.0296558
0.0490026 	0.0295804 	-0.00251281 	0.00459377 	0.00253465 	-0.000843512 	0.0299128
0.0507211 	0.0295268 	-0.00256189 	0.00502787 	0.00267057 	-0.000816545 	0.030154
0.052471 	0.0294718 	-0.00259151 	0.00542923 	0.00280538 	-0.000783311 	0.030331
0.054221 	0.0293907 	-0.00263143 	0.00582641 	0.00294204 	-0.000753188 	0.0304984
0.0545046 	0.0293913 	-0.00263145 	0.00588142 	0.00296222 	-0.000747269 	0.0305153
0.0547883 	0.0293919 	-0.00263148 	0.00593644 	0.0029824 	-0.000741351 	0.0305322
0.0562867 	0.0293207 	-0.00265784 	0.00622397 	0.00309734 	-0.000717925 	0.0306188
0.0577851 	0.0292495 	-0.0026842 	0.00651151 	0.00321228 	-0.0006945 	0.0307054
0.0595998 	0.0292104 	-0.00269879 	0.00678401 	0.00334363 	-0.000671812 	0.0307455
0.0614146 	0.0291449 	-0.00272267 	0.00705971 	0.00347955 	-0.000651408 	0.0307947
0.0632626 	0.0291354 	-0.00273208 	0.00726025 	0.0036078 	-0.000641779 	0.0307803
0.0651106 	0.0291039 	-0.00274994 	0.00746907 	0.00374204 	-0.000633287 	0.0307848
0.0657097 	0.0291223 	-0.00274673 	0.00750402 	0.00377676 	-0.000635578 	0.0307473
0.0663088 	0.0291239 	-0.00275097 	0.00755196 	0.00381872 	-0.000637643 	0.0307367
0.0675916 	0.0291274 	-0.00276003 	0.00765462 	0.00390856 	-0.000642064 	0.0307141
0.0688745 	0.0291308 	-0.0027691 	0.00775729 	0.00399841 	-0.000646485 	0.0306914
0.0699852 	0.0291613 	-0.00276866 	0.00780248 	0.00406503 	-0.000661268 	0.0306223
0.0710959 	0.0291796 	-0.00277449 	0.00786422 	0.00413974 	-0.000674479 	0.0305842
0.0719016 	0.0291928 	-0.00277872 	0.00790901 	0.00419394 	-0.000684062 	0.0305566
0.0727073 	0.029206 	-0.00278295 	0.0079538 	0.00424813 	-0.000693645 	0.030529
0.0746589 	0.0292539 	-0.0027862 	0.00801343 	0.00436542 	-0.000734561 	0.030407
0.0766105 	0.0292924 	-0.0027944 	0.00809188 	0.00449129 	-0.000772723 	0.0303167
0.0785979 	0.029324 	-0.00279881 	0.00813525 	0.00460591 	-0.000826711 	0.0301863
0.0805853 	0.0293473 	-0.0028067 	0.00819843 	0.00472915 	-0.000877042 	0.0300862
0.0809074 	0.0293496 	-0.00280719 	0.00819718 	0.00474437 	-0.000888342 	0.030058
0.0812295 	0.0293518 	-0.00280767 	0.00819593 	0.00475959 	-0.000899642 	0.0300298
0.0829312 	0.0293429 	-0.00281531 	0.00824098 	0.00486165 	-0.000948101 	0.0299513
0.0846329 	0.029334 	-0.00282295 	0.00828603 	0.00496372 	-0.000996561 	0.0298729
0.0866939 	0.0292902 	-0.00283439 	0.00831126 	0.0050766 	-0.00106044 	0.0297779
0.0887548 	0.02924 	-0.00284625 	0.00835481 	0.00519692 	-0.00111963 	0.0297043
0.0908536 	0.0291608 	-0.00286349 	0.00837006 	0.00531021 	-0.00117991 	0.0296423
0.0929523 	0.0290787 	-0.00287997 	0.00840181 	0.0054299 	-0.00123505 	0.0295953
0.0950896 	0.0289748 	-0.00290409 	0.00840874 	0.0055437 	-0.00128711 	0.0295681
0.0972268 	0.0288728 	-0.00292683 	0.00842988 	0.0056627 	-0.00133355 	0.0295495
0.0994033 	0.0287509 	-0.00295799 	0.00843341 	0.00577649 	-0.00137452 	0.0295546
0.10158 	0.0286357 	-0.00298764 	0.00844818 	0.00589434 	-0.00140928 	0.0295633
0.103796 	0.028499 	-0.00302452 	0.008453 	0.00600686 	-0.00143849 	0.0295949
0.106012 	0.0283731 	-0.00305987 	0.00846486 	0.00612241 	-0.00146096 	0.0296266
0.108269 	0.0282289 	-0.00309952 	0.00847238 	0.00623216 	-0.00147974 	0.0296786
0.110526 	0.0280976 	-0.00313747 	0.00848117 	0.00634409 	-0.00149158 	0.0297286
0.112825 	0.0279569 	-0.00317721 	0.00849056 	0.00644973 	-0.00150277 	0.0297966
0.115123 	0.0278281 	-0.00321502 	0.00849502 	0.00655681 	-0.00150725 	0.0298615
0.116346 	0.0277556 	-0.00323652 	0.00850562 	0.00660878 	-0.00151404 	0.0299049
0.117569 	0.0276899 	-0.00325587 	0.00850647 	0.00666139 	-0.00151464 	0.0299449
0.118687 	0.0276299 	-0.00327356 	0.00850726 	0.00670947 	-0.00151519 	0.0299814
0.119804 	0.0275698 	-0.00329124 	0.00850804 	0.00675755 	-0.00151574 	0.030018
0.122188 	0.0274389 	-0.00333049 	0.00852272 	0.00685071 	-0.00152214 	0.0301019
0.124571 	0.0273074 	-0.00336739 	0.00852527 	0.00694353 	-0.0015231 	0.0301825
0.126999 	0.0271675 	-0.00340744 	0.00854392 	0.00702885 	-0.00152993 	0.0302564
0.129426 	0.0270202 	-0.00344488 	0.0085505 	0.00711273 	-0.0015322 	0.0303274
0.131897 	0.026866 	-0.00348455 	0.00857354 	0.00718956 	-0.00153899 	0.0303729
0.134369 	0.0267011 	-0.00352132 	0.00858683 	0.00726377 	-0.0015421 	0.0304154
0.136886 	0.0265355 	-0.00355718 	0.00861505 	0.00733171 	-0.00154607 	0.0304127
0.139403 	0.026359 	-0.00359009 	0.00863738 	0.00739589 	-0.00154724 	0.0304068
0.139539 	0.0263506 	-0.00359187 	0.00863924 	0.00739955 	-0.0015473 	0.0304037
0.139675 	0.0263423 	-0.00359365 	0.0086411 	0.00740322 	-0.00154736 	0.0304006
0.142103 	0.026172 	-0.00361864 	0.00866979 	0.00745747 	-0.00154389 	0.030337
0.14453 	0.0259958 	-0.00364166 	0.00869717 	0.0075085 	-0.0015391 	0.030271
0.146043 	0.0258837 	-0.00365111 	0.00871048 	0.0075396 	-0.00153137 	0.0301955
0.147555 	0.0257666 	-0.00365774 	0.00872512 	0.0075649 	-0.00152235 	0.0301165
0.148653 	0.0256817 	-0.00366255 	0.00873574 	0.00758326 	-0.0015158 	0.0300592
0.14975 	0.0255968 	-0.00366736 	0.00874636 	0.00760161 	-0.00150926 	0.0300019
0.152408 	0.0253664 	-0.00366817 	0.00874694 	0.00764192 	-0.00148117 	0.0298098
0.155066 	0.0251365 	-0.00366708 	0.00875134 	0.00767577 	-0.00145221 	0.0296149
0.157773 	0.0248591 	-0.00365802 	0.00871043 	0.00770688 	-0.0014098 	0.0293746
0.16048 	0.0245858 	-0.00364761 	0.00867457 	0.00773115 	-0.00136676 	0.0291314
0.163237 	0.0242627 	-0.00363369 	0.00858142 	0.00775252 	-0.00131174 	0.0288541
0.165993 	0.0239454 	-0.00361767 	0.00849318 	0.00776699 	-0.00125624 	0.0285728
0.1688 	0.0235983 	-0.00360386 	0.0083523 	0.00777775 	-0.00119166 	0.0282703
0.171607 	0.0232558 	-0.00358712 	0.00821459 	0.0077818 	-0.00112664 	0.0279624
0.174466 	0.0229137 	-0.00357751 	0.0080441 	0.00778148 	-0.00105597 	0.0276469
0.177324 	0.0225715 	-0.00356444 	0.00787356 	0.00777476 	-0.000984767 	0.0273246
0.177788 	0.0225234 	-0.00356507 	0.00784649 	0.00777501 	-0.000973349 	0.0272766
0.178251 	0.0224754 	-0.00356569 	0.00781942 	0.00777526 	-0.00096193 	0.0272286
0.180699 	0.022205 	-0.00355911 	0.00766463 	0.00776086 	-0.000899377 	0.0269533
0.183146 	0.0219346 	-0.00355253 	0.00750984 	0.00774645 	-0.000836824 	0.0266781
0.186111 	0.0216534 	-0.00355276 	0.00733473 	0.00772567 	-0.000763372 	0.0263605
0.189075 	0.0213601 	-0.00354945 	0.00715016 	0.00769957 	-0.000688526 	0.0260334
0.192094 	0.021109 	-0.00355121 	0.00698375 	0.00767137 	-0.000618302 	0.0257184
0.195113 	0.0208427 	-0.00354987 	0.00680345 	0.00763873 	-0.000546119 	0.0253933
0.198187 	0.0206139 	-0.0035492 	0.00664212 	0.00760545 	-0.000481679 	0.0250772
0.201261 	0.0203704 	-0.00354563 	0.00646431 	0.00756869 	-0.000414845 	0.0247523
0.201759 	0.0203403 	-0.0035457 	0.00644396 	0.00756383 	-0.000406673 	0.0247028
0.202257 	0.0203101 	-0.00354578 	0.0064236 	0.00755896 	-0.0003985 	0.0246534
0.20489 	0.0201196 	-0.00353728 	0.00627247 	0.00752638 	-0.000348367 	0.0243762
0.207522 	0.0199291 	-0.00352878 	0.00612134 	0.00749379 	-0.000298233 	0.0240991
0.21071 	0.019718 	-0.00351356 	0.00595218 	0.00745646 	-0.000249458 	0.0237602
0.213898 	0.0194973 	-0.00349392 	0.00576879 	0.00741714 	-0.000198113 	0.0234186
0.217144 	0.0192788 	-0.00346886 	0.00559707 	0.00737924 	-0.000157682 	0.023057
0.22039 	0.0190501 	-0.00343785 	0.00541477 	0.00733962 	-0.00011525 	0.0226953
0.223696 	0.018816 	-0.00340229 	0.00524845 	0.00730161 	-8.39345e-05 	0.0223094
0.227002 	0.0185692 	-0.00335908 	0.00507544 	0.00726195 	-5.19405e-05 	0.0219252
0.230369 	0.018322 	-0.00331265 	0.0049214 	0.00722447 	-3.10934e-05 	0.021522
0.233735 	0.0180596 	-0.00325704 	0.00476411 	0.0071854 	-1.15838e-05 	0.0211216
0.234281 	0.018026 	-0.00325133 	0.00474216 	0.00718017 	-8.93036e-06 	0.0210559
0.234827 	0.0179923 	-0.00324562 	0.00472021 	0.00717494 	-6.27691e-06 	0.0209901
0.237709 	0.0177734 	-0.00318948 	0.00460356 	0.00714354 	-1.93908e-06 	0.0206491
0.240592 	0.0175544 	-0.00313333 	0.00448692 	0.00711214 	2.39874e-06 	0.0203081
0.244083 	0.0173347 	-0.00306813 	0.00436503 	0.00707922 	-1.34926e-06 	0.0199061
0.247574 	0.0171024 	-0.00299409 	0.00424521 	0.0070453 	-1.07415e-05 	0.0195048
0.250563 	0.0169529 	-0.00293721 	0.00415676 	0.00702135 	-2.20247e-05 	0.0191759
0.253553 	0.0167948 	-0.00287423 	0.00407146 	0.00699707 	-4.01977e-05 	0.0188457
0.254119 	0.0167649 	-0.00286231 	0.00405532 	0.00699247 	-4.36379e-05 	0.0187832
0.254685 	0.016735 	-0.00285039 	0.00403917 	0.00698787 	-4.70781e-05 	0.0187207
0.255261 	0.0167151 	-0.00284052 	0.00402426 	0.00698405 	-4.81241e-05 	0.0186613
0.255837 	0.0166952 	-0.00283065 	0.00400936 	0.00698022 	-4.91701e-05 	0.0186018
0.258881 	0.0165691 	-0.00277242 	0.00393933 	0.00696154 	-7.45707e-05 	0.0182806
0.261925 	0.016443 	-0.00271419 	0.00386931 	0.00694287 	-9.99713e-05 	0.0179594
0.265612 	0.0163293 	-0.00265308 	0.003801 	0.00692667 	-0.000127522 	0.0175985
0.269299 	0.0162053 	-0.00259337 	0.00373611 	0.00691213 	-0.0001629 	0.017235
0.273053 	0.0161197 	-0.00254063 	0.003684 	0.00690212 	-0.000193223 	0.016906
0.276808 	0.0160218 	-0.00249189 	0.00363559 	0.00689483 	-0.000231688 	0.0165764
0.280631 	0.0159711 	-0.00244953 	0.00359171 	0.00688935 	-0.000263795 	0.0162953
0.284454 	0.0159093 	-0.00241209 	0.00355087 	0.00688753 	-0.000304554 	0.0160168
0.288348 	0.0158915 	-0.00238207 	0.00350265 	0.00688434 	-0.000337943 	0.0157978
0.292241 	0.0158679 	-0.00235623 	0.00345503 	0.00688554 	-0.000380558 	0.0155853
0.296206 	0.0158654 	-0.00233943 	0.00338998 	0.00688129 	-0.000415014 	0.0154385
0.300171 	0.0158644 	-0.0023251 	0.00332179 	0.00688203 	-0.000459265 	0.0153019
0.300814 	0.0158611 	-0.00232426 	0.00330978 	0.00687875 	-0.000461571 	0.0152861
0.301456 	0.0158578 	-0.00232342 	0.00329777 	0.00687547 	-0.000463877 	0.0152704
0.304851 	0.0158569 	-0.0023207 	0.00321575 	0.00687265 	-0.000502405 	0.0152207
0.308246 	0.015856 	-0.00231799 	0.00313373 	0.00686982 	-0.000540934 	0.0151711
0.312358 	0.0158338 	-0.00232355 	0.00301484 	0.00685225 	-0.000576521 	0.0151674
0.316469 	0.0158192 	-0.0023284 	0.00288622 	0.0068404 	-0.000621311 	0.0151759
0.320656 	0.0157839 	-0.00233678 	0.0027411 	0.00681145 	-0.000656132 	0.015221
0.324843 	0.0157561 	-0.00234363 	0.00258508 	0.00678811 	-0.00069871 	0.0152741
0.329107 	0.0157155 	-0.00234771 	0.00242255 	0.00674732 	-0.000731749 	0.0153364
0.333371 	0.0156827 	-0.00234973 	0.00224967 	0.00671163 	-0.00077007 	0.0153989
0.337713 	0.0156391 	-0.00234405 	0.00208632 	0.00665812 	-0.000798097 	0.0154427
0.342055 	0.015604 	-0.0023361 	0.00191505 	0.00660871 	-0.000827728 	0.0154774
0.346476 	0.0155526 	-0.00231998 	0.00177262 	0.00654218 	-0.000849619 	0.0154776
0.350898 	0.015509 	-0.00230173 	0.00162653 	0.00647842 	-0.000869162 	0.0154617
0.355401 	0.0154434 	-0.0022793 	0.00152968 	0.00639882 	-0.000884714 	0.0154116
0.359903 	0.015383 	-0.00225515 	0.00143525 	0.00632041 	-0.000894281 	0.0153433
0.364489 	0.015297 	-0.00223224 	0.00140458 	0.00622815 	-0.000903167 	0.0152495
0.369074 	0.0152125 	-0.00220815 	0.00138326 	0.00613554 	-0.000903129 	0.0151397
0.373744 	0.0151016 	-0.00218805 	0.00142349 	0.00603284 	-0.000905079 	0.0150064
0.378413 	0.0149885 	-0.0021671 	0.00147779 	0.00592833 	-0.00089631 	0.0148608
0.383168 	0.0148522 	-0.00214815 	0.00156806 	0.00581916 	-0.000893719 	0.0146821
0.387923 	0.014714 	-0.00212794 	0.0016715 	0.0057069 	-0.000880195 	0.014494
0.391995 	0.0145847 	-0.00210956 	0.00175483 	0.00561414 	-0.000879384 	0.0142995
0.396066 	0.0144584 	-0.00208879 	0.00184588 	0.00551724 	-0.000868775 	0.0140976
0.396837 	0.0144345 	-0.00208486 	0.00186312 	0.00549889 	-0.000866767 	0.0140594
0.397608 	0.0144106 	-0.00208093 	0.00188036 	0.00548055 	-0.000864759 	0.0140212
0.398393 	0.0143826 	-0.00207752 	0.00189204 	0.00546481 	-0.000867325 	0.0139778
0.399177 	0.0143547 	-0.00207411 	0.00190373 	0.00544908 	-0.00086989 	0.0139344
0.403324 	0.0142273 	-0.00204643 	0.00197116 	0.005353 	-0.000862434 	0.013693
0.40747 	0.0140999 	-0.00201876 	0.00203859 	0.00525692 	-0.000854978 	0.0134517
0.412491 	0.0139377 	-0.00198174 	0.00208312 	0.0051512 	-0.000855043 	0.0131435
0.417513 	0.013784 	-0.00194023 	0.00212689 	0.00504025 	-0.000849366 	0.0128352
0.422626 	0.0136151 	-0.00189708 	0.00214174 	0.0049388 	-0.000848639 	0.0125323
0.42774 	0.0134531 	-0.00184949 	0.00215605 	0.00483226 	-0.00084463 	0.0122338
0.432948 	0.0132709 	-0.00180232 	0.0021498 	0.00473481 	-0.000841718 	0.01196
0.438155 	0.0130931 	-0.00175178 	0.00214484 	0.00463273 	-0.00083782 	0.0116927
0.443458 	0.0128917 	-0.00170297 	0.00212344 	0.00453871 	-0.000832111 	0.0114612
0.448761 	0.0126925 	-0.00165246 	0.00210441 	0.00444083 	-0.000826982 	0.0112353
0.454161 	0.0124725 	-0.00160467 	0.00206683 	0.00434976 	-0.000819184 	0.0110486
0.459561 	0.0122537 	-0.00155697 	0.00203017 	0.00425602 	-0.000812896 	0.0108649
0.46506 	0.0120189 	-0.00151139 	0.00197271 	0.00416743 	-0.00080522 	0.0107176
0.47056 	0.0117865 	-0.00146752 	0.00191188 	0.00407768 	-0.0008001 	0.0105697
0.47616 	0.0115347 	-0.00142344 	0.00183738 	0.00399182 	-0.000795854 	0.0104503
0.48176 	0.0112862 	-0.00138229 	0.00175421 	0.00390635 	-0.000795654 	0.0103262
0.487463 	0.0110101 	-0.00133646 	0.00167314 	0.00382474 	-0.00079834 	0.0102168
0.493165 	0.0107356 	-0.00129386 	0.00157951 	0.0037449 	-0.000806404 	0.0101004
0.49409 	0.0106882 	-0.00128458 	0.00157125 	0.00373202 	-0.000806283 	0.0100837
0.495014 	0.0106409 	-0.0012753 	0.00156299 	0.00371913 	-0.000806161 	0.0100671
0.499897 	0.0103868 	-0.00123231 	0.00148465 	0.00365856 	-0.000820026 	0.00996103
0.50478 	0.0101327 	-0.00118933 	0.00140631 	0.00359799 	-0.000833892 	0.00985498
0.510694 	0.00981046 	-0.00112244 	0.001327 	0.00353238 	-0.000850085 	0.00971381
0.516608 	0.00948469 	-0.00105728 	0.00123798 	0.0034703 	-0.000870113 	0.00956838
0.52263 	0.00914629 	-0.000973545 	0.00115943 	0.00341422 	-0.000884164 	0.00940941
0.528653 	0.00880319 	-0.000891214 	0.00107682 	0.00336191 	-0.000898971 	0.00924979
0.534786 	0.00846906 	-0.000795513 	0.00100534 	0.00331187 	-0.000903232 	0.00908866
0.540918 	0.0081309 	-0.000698767 	0.000934988 	0.00326508 	-0.000904871 	0.00892976
0.547164 	0.00782789 	-0.000605441 	0.000876602 	0.00321494 	-0.000895807 	0.00878197
0.553409 	0.00752249 	-0.000509524 	0.000822559 	0.00316686 	-0.000881801 	0.0086371
0.559769 	0.00726378 	-0.000429546 	0.000773694 	0.0031109 	-0.000860855 	0.00851302
0.566129 	0.00700235 	-0.000347952 	0.000729321 	0.00305545 	-0.000834299 	0.00839051
0.56716 	0.00696988 	-0.000338345 	0.000720836 	0.00304569 	-0.000831523 	0.00837541
0.568191 	0.00693741 	-0.000328738 	0.000712351 	0.00303593 	-0.000828748 	0.00836032
0.573636 	0.00675526 	-0.000273839 	0.000674103 	0.00298179 	-0.000800444 	0.00827813
0.579082 	0.00657312 	-0.00021894 	0.000635856 	0.00292766 	-0.000772139 	0.00819594
0.585677 	0.00641167 	-0.000172109 	0.000584586 	0.00285948 	-0.000741993 	0.00811851
0.592272 	0.00624581 	-0.000123264 	0.000533855 	0.00278947 	-0.000707471 	0.00803732
0.598989 	0.00614398 	-9.00909e-05 	0.000484063 	0.00272037 	-0.000682536 	0.0079604
0.605705 	0.00603842 	-5.50825e-05 	0.000433693 	0.00264934 	-0.000654336 	0.00787717
0.612544 	0.00599164 	-2.77033e-05 	0.000400376 	0.00258218 	-0.000641577 	0.00778496
0.619384 	0.00594249 	1.3965e-06 	0.000366571 	0.00251337 	-0.000627493 	0.00768505
0.626349 	0.00592443 	3.12815e-05 	0.00036398 	0.00245076 	-0.00063142 	0.00757797
0.633314 	0.0059052 	6.29533e-05 	0.00036115 	0.0023871 	-0.000636912 	0.00746414
0.640406 	0.00588124 	9.87771e-05 	0.00039218 	0.00233219 	-0.00065761 	0.00735511
0.647499 	0.00585661 	0.000136442 	0.000421948 	0.00227707 	-0.000683244 	0.00724162
0.654722 	0.00581055 	0.000174923 	0.000474347 	0.00223325 	-0.000718069 	0.00714399
0.661944 	0.00576431 	0.000214869 	0.000523325 	0.00219013 	-0.000761305 	0.00704272
0.669299 	0.00570264 	0.000250213 	0.0005722 	0.00216035 	-0.000804792 	0.00696103
0.676655 	0.0056418 	0.00028613 	0.000615304 	0.00213197 	-0.00085974 	0.00687319
0.684145 	0.00557504 	0.000314389 	0.000637777 	0.00211737 	-0.000904733 	0.00680159
0.691635 	0.00550936 	0.000342088 	0.000653111 	0.00210445 	-0.000962645 	0.00671931
0.699262 	0.00544061 	0.000361551 	0.000640617 	0.00210227 	-0.00100381 	0.00664428
0.70689 	0.00537172 	0.000379744 	0.000621682 	0.00210145 	-0.00105627 	0.00655651
0.714657 	0.00529892 	0.000389894 	0.000578317 	0.00210441 	-0.00109075 	0.00646446
0.722424 	0.00522414 	0.000399173 	0.000530661 	0.00210789 	-0.00113177 	0.00636363
0.730334 	0.00514658 	0.000401417 	0.000464805 	0.00210711 	-0.00115871 	0.00625506
0.738244 	0.00506624 	0.000404363 	0.000396778 	0.00210577 	-0.0011861 	0.00614611
0.746299 	0.00498681 	0.000401962 	0.000317117 	0.00209496 	-0.00120584 	0.00603286
0.754354 	0.00490568 	0.000402079 	0.00023722 	0.0020828 	-0.001221 	0.0059276
0.762556 	0.00482998 	0.00039941 	0.000154383 	0.0020606 	-0.00123591 	0.00581597
0.770759 	0.004755 	0.000400082 	7.32277e-05 	0.00203694 	-0.00124409 	0.00571687
0.779112 	0.00468726 	0.000401794 	2.18958e-06 	0.00200619 	-0.00125996 	0.00559856
0.787465 	0.00462207 	0.000406283 	-6.47814e-05 	0.00197461 	-0.00127011 	0.00549172
0.795971 	0.00456261 	0.0004148 	-0.000110051 	0.00194159 	-0.00129251 	0.00534936
0.804478 	0.00450566 	0.000424744 	-0.000148186 	0.0019089 	-0.00131216 	0.00521282
0.81314 	0.00445398 	0.000438693 	-0.000165654 	0.00188144 	-0.00134009 	0.00503869
0.821802 	0.00440348 	0.000452546 	-0.000174113 	0.00185547 	-0.0013678 	0.0048634
0.830623 	0.00435766 	0.000467496 	-0.00017296 	0.00183863 	-0.00139271 	0.00467005
0.839445 	0.00431166 	0.000481367 	-0.00016405 	0.00182365 	-0.00141782 	0.00447143
0.848428 	0.00426548 	0.000492278 	-0.000154284 	0.00181622 	-0.00143113 	0.00428236
0.857411 	0.00421841 	0.000502069 	-0.000140097 	0.00180949 	-0.0014437 	0.0040884
0.858867 	0.00421056 	0.000502918 	-0.000138807 	0.00180938 	-0.00144428 	0.00406242
0.860323 	0.00420272 	0.000503767 	-0.000137516 	0.00180928 	-0.00144487 	0.00403644
0.868014 	0.00415786 	0.000505335 	-0.000125973 	0.00180477 	-0.00144441 	0.00389342
0.875706 	0.004113 	0.000506903 	-0.000114429 	0.00180026 	-0.00144396 	0.00375041
0.885021 	0.00405618 	0.000501351 	-0.000106133 	0.00179604 	-0.00143816 	0.00360771
0.894337 	0.00399779 	0.000494429 	-9.75628e-05 	0.00178861 	-0.00143157 	0.00346525
0.895847 	0.00398963 	0.000493722 	-9.74759e-05 	0.00178919 	-0.0014305 	0.00344568
0.897357 	0.00398146 	0.000493016 	-9.73891e-05 	0.00178977 	-0.00142943 	0.00342611
0.905333 	0.00393473 	0.000485317 	-9.93182e-05 	0.00178372 	-0.00142483 	0.00332709
0.91331 	0.003888 	0.000477619 	-0.000101247 	0.00177766 	-0.00142024 	0.00322807
0.92297 	0.00384546 	0.000475538 	-0.000114802 	0.00177594 	-0.00141769 	0.00313049
0.93263 	0.0038023 	0.000471985 	-0.000129928 	0.00177133 	-0.00141651 	0.00303534
0.942468 	0.00377372 	0.000477022 	-0.000153939 	0.00177107 	-0.00141773 	0.00295877
0.952305 	0.00374513 	0.000480642 	-0.000179439 	0.0017686 	-0.00142083 	0.00288492
0.962323 	0.00372616 	0.000492046 	-0.000209708 	0.00176841 	-0.00142501 	0.00282634
0.972341 	0.00370698 	0.000502109 	-0.000240718 	0.00176665 	-0.00143127 	0.00277028
0.982543 	0.0036923 	0.000518202 	-0.000271503 	0.00176581 	-0.0014371 	0.00272285
0.992745 	0.0036763 	0.000533073 	-0.000301852 	0.00176376 	-0.00144496 	0.00267703
0.994398 	0.00367482 	0.000536308 	-0.000306471 	0.00176398 	-0.00144525 	0.00266966
0.996052 	0.00367334 	0.000539543 	-0.000311091 	0.0017642 	-0.00144554 	0.00266229
1.00479 	0.00365816 	0.000553715 	-0.000330979 	0.00176213 	-0.00145136 	0.00262329
1.01352 	0.00364297 	0.000567886 	-0.000350867 	0.00176006 	-0.00145719 	0.0025843
1.0241 	0.0036244 	0.000585652 	-0.000366599 	0.00175882 	-0.00145893 	0.00252993
1.03468 	0.00360198 	0.000602321 	-0.000379713 	0.00175593 	-0.00146141 	0.00247378
1.04545 	0.003578 	0.000616956 	-0.000384467 	0.00175443 	-0.00145647 	0.00240893
1.05623 	0.0035495 	0.000629995 	-0.000386141 	0.00175045 	-0.00145126 	0.0023414
1.0672 	0.00351566 	0.000636632 	-0.000380606 	0.0017476 	-0.00143802 	0.00227182
1.07817 	0.0034764 	0.000640304 	-0.000371822 	0.00174122 	-0.00142401 	0.0022004
1.08934 	0.00342715 	0.000633732 	-0.000358326 	0.00173537 	-0.00140471 	0.00213893
1.10051 	0.00337176 	0.000622485 	-0.000341832 	0.00172504 	-0.00138528 	0.00207858
1.11189 	0.00330788 	0.000601527 	-0.000325334 	0.00171478 	-0.00136738 	0.00204363
1.12327 	0.00323896 	0.000575476 	-0.000306809 	0.00169986 	-0.00135151 	0.00201488
1.13485 	0.00317118 	0.000546804 	-0.000294573 	0.00168551 	-0.00134609 	0.00202737
1.14644 	0.00310161 	0.000515027 	-0.000281815 	0.00166748 	-0.00134574 	0.00205192
1.15824 	0.00304288 	0.000489235 	-0.000278949 	0.00164903 	-0.0013591 	0.00212008
1.17004 	0.00298549 	0.000463246 	-0.000276273 	0.00162777 	-0.00137837 	0.00220164
1.18205 	0.00294148 	0.000444923 	-0.000280521 	0.00159899 	-0.00140027 	0.00229643
1.19407 	0.00289991 	0.000427594 	-0.000283793 	0.00156645 	-0.00142347 	0.00239529
1.2063 	0.00286799 	0.000411939 	-0.000286048 	0.00151986 	-0.00143047 	0.00245652
1.21854 	0.00283794 	0.000396433 	-0.000285069 	0.00146821 	-0.00143119 	0.00250602
1.23099 	0.00281356 	0.000377839 	-0.000276686 	0.00140662 	-0.00140662 	0.00248614
1.24345 	0.00279051 	0.000358977 	-0.000264059 	0.00134114 	-0.00137141 	0.00244392
1.25614 	0.00277313 	0.000340002 	-0.000243229 	0.00127794 	-0.0013174 	0.00233558
1.26883 	0.00275753 	0.000322189 	-0.000219605 	0.00121469 	-0.001254 	0.00220477
1.28175 	0.00274844 	0.000310347 	-0.000190448 	0.00116297 	-0.00118447 	0.00203894
1.29467 	0.00274148 	0.000301205 	-0.000161213 	0.00111473 	-0.00110988 	0.00185961
1.30783 	0.00273896 	0.000299481 	-0.000130894 	0.00107614 	-0.00103727 	0.0016858
1.32099 	0.002738 	0.000300303 	-0.000102829 	0.00104158 	-0.000963381 	0.00150961
1.33439 	0.00273775 	0.000303577 	-7.79564e-05 	0.00100697 	-0.000893403 	0.00136409
1.34778 	0.00273819 	0.000308019 	-5.609e-05 	0.000974595 	-0.000823935 	0.00122189
1.36143 	0.00273366 	0.000305656 	-3.57929e-05 	0.000934371 	-0.000756445 	0.001111
1.37507 	0.00272851 	0.000302975 	-1.70272e-05 	0.000894767 	-0.000689597 	0.00100314
1.38897 	0.00270277 	0.000284684 	1.17776e-05 	0.000850148 	-0.000620849 	0.000910204
1.40286 	0.00267429 	0.000265452 	4.1551e-05 	0.000806339 	-0.000552344 	0.000817781
1.41701 	0.0026184 	0.000234611 	8.30337e-05 	0.000768758 	-0.000483837 	0.000733383
1.43116 	0.0025601 	0.00020383 	0.000125012 	0.000733128 	-0.000416163 	0.000649488
1.44557 	0.00249757 	0.000174832 	0.000156444 	0.000706714 	-0.000358651 	0.000588338
1.45998 	0.00243578 	0.000147103 	0.000185575 	0.000682178 	-0.000303211 	0.000529204
1.47466 	0.00239208 	0.000128536 	0.00019123 	0.000658463 	-0.00026733 	0.000494346
1.48933 	0.00235023 	0.000111192 	0.00019447 	0.000635635 	-0.000233911 	0.000460349
1.50427 	0.00232446 	0.000102129 	0.000184981 	0.00060899 	-0.000218422 	0.000433897
1.51921 	0.00229937 	9.35522e-05 	0.000174685 	0.000582833 	-0.000204401 	0.000406934
1.53443 	0.00228041 	8.91527e-05 	0.000162403 	0.000555747 	-0.000197855 	0.000381729
1.54965 	0.00226114 	8.46208e-05 	0.000150108 	0.000529217 	-0.000191528 	0.000356397
1.56514 	0.0022438 	7.83874e-05 	0.000139248 	0.000504535 	-0.000185245 	0.000334687
1.58064 	0.002226 	7.15618e-05 	0.000128518 	0.000480369 	-0.000178707 	0.000313147
1.59642 	0.00220925 	6.93953e-05 	0.0001159 	0.000458297 	-0.000171344 	0.000295229
1.6122 	0.00219127 	6.71423e-05 	0.000104028 	0.000436599 	-0.000163765 	0.000277359
1.62827 	0.00217613 	7.34513e-05 	9.61515e-05 	0.000416789 	-0.000156388 	0.00026173
1.64434 	0.00216072 	8.0464e-05 	8.83665e-05 	0.000397258 	-0.00014891 	0.000246083
1.6607 	0.00214649 	8.07586e-05 	8.52651e-05 	0.000379001 	-0.0001418 	0.000232096
1.67707 	0.0021331 	8.10363e-05 	8.15065e-05 	0.000360897 	-0.000134618 	0.0002181
1.69373 	0.00211888 	7.60609e-05 	7.58252e-05 	0.000344055 	-0.000128023 	0.000205973
1.7104 	0.00210479 	7.05703e-05 	7.00509e-05 	0.000327274 	-0.000121364 	0.000193822
1.72737 	0.00209176 	6.76811e-05 	6.50448e-05 	0.000312064 	-0.000115386 	0.000183136
1.74434 	0.00207882 	6.45649e-05 	5.9952e-05 	0.000296903 	-0.000109364 	0.000172439
1.76162 	0.00206697 	6.18883e-05 	5.54252e-05 	0.000283071 	-0.000103932 	0.000163048
1.7789 	0.00205518 	5.90481e-05 	5.08633e-05 	0.000269265 	-9.84644e-05 	0.000153644
1.7965 	0.00204447 	5.67226e-05 	4.6845e-05 	0.000256715 	-9.35555e-05 	0.000145331
1.81409 	0.0020338 	5.42554e-05 	4.28011e-05 	0.00024417 	-8.86117e-05 	0.000137004
1.83202 	0.00202414 	5.22015e-05 	3.92259e-05 	0.000232768 	-8.41467e-05 	0.000129606
1.84994 	0.00201452 	5.00275e-05 	3.56288e-05 	0.000221354 	-7.96434e-05 	0.000122187
1.86819 	0.00200583 	4.82065e-05 	3.24667e-05 	0.000210998 	-7.55529e-05 	0.000115526
1.88644 	0.00199718 	4.62807e-05 	2.92813e-05 	0.000200612 	-7.14187e-05 	0.000108837
1.90502 	0.00198939 	4.46159e-05 	2.65134e-05 	0.0001912 	-6.76737e-05 	0.000102825
1.9236 	0.00198163 	4.28591e-05 	2.37193e-05 	0.000181754 	-6.38891e-05 	9.67903e-05
1.94253 	0.00197463 	4.11302e-05 	2.13685e-05 	0.000173248 	-6.05011e-05 	9.1414e-05
1.96146 	0.00196767 	3.93078e-05 	1.89964e-05 	0.000164714 	-5.70891e-05 	8.60348e-05
1.98073 	0.00196191 	3.7565e-05 	1.71354e-05 	0.000157505 	-5.41796e-05 	8.15339e-05
2 	0.00195618 	3.57337e-05 	1.52621e-05 	0.000150283 	-5.12549e-05 	7.70327e-05
