0 1e-10
0.00128482 0.0014237
0.00256965 0.00313485
0.00387803 0.00329232
0.00518642 0.00343548
0.00651881 0.0035421
0.00785119 0.0036439
0.00920802 0.00372431
0.0105648 0.00380366
0.0119465 0.00387042
0.0133283 0.00393639
0.0147353 0.00399485
0.0161424 0.00405088
0.0175752 0.00410181
0.0190081 0.00414821
0.0204672 0.00418913
0.0219263 0.00422123
0.0234122 0.00424801
0.0248981 0.00425828
0.0264113 0.00427069
0.0279244 0.00425645
0.0294653 0.00425001
0.0310063 0.00420679
0.0325754 0.00417154
0.0341446 0.0040935
0.0357425 0.00402638
0.0373405 0.00391333
0.0389677 0.00381592
0.040595 0.00367169
0.0422521 0.00354934
0.0439092 0.00338295
0.0455967 0.00324248
0.0472842 0.00306438
0.0490026 0.00290941
0.0507211 0.00272774
0.052471 0.00256647
0.054221 0.00239129
0.056003 0.0022365
0.0577851 0.00207841
0.0595998 0.00193724
0.0614146 0.00180089
0.0632626 0.00167727
0.0651106 0.00156308
0.0669925 0.00145964
0.0688745 0.0013666
0.0707909 0.00128378
0.0727073 0.00121071
0.0746589 0.00114812
0.0766105 0.00109421
0.0785979 0.0010491
0.0805853 0.00101182
0.0826091 0.000980739
0.0846329 0.000956487
0.0866939 0.000937137
0.0887548 0.000923533
0.0908536 0.000914098
0.0929523 0.000909588
0.0950896 0.000908498
0.0972268 0.000911876
0.0994033 0.000919002
0.10158 0.000929796
0.103796 0.000944605
0.106012 0.000961412
0.108269 0.00098171
0.110526 0.0010013
0.112825 0.00102354
0.115123 0.00104205
0.115474 0.00104457
0.115825 0.00104709
0.117815 0.00106135
0.119804 0.00107063
0.121514 0.00107264
0.123224 0.00107465
0.123898 0.00107519
0.124571 0.00107255
0.126999 0.00106103
0.129426 0.00104801
0.131897 0.00102811
0.134369 0.00100813
0.136886 0.000984859
0.139403 0.000962005
0.140128 0.000955857
0.140852 0.000949708
0.142691 0.000934104
0.14453 0.000917874
0.146353 0.000902823
0.148176 0.000887771
0.148963 0.000881259
0.14975 0.000872386
0.152408 0.000838098
0.155066 0.000802707
0.157773 0.000750102
0.16048 0.000700973
0.163237 0.000643211
0.165993 0.000592826
0.1688 0.000546875
0.171607 0.000509434
0.174466 0.000483547
0.177324 0.000464048
0.180235 0.000453154
0.183146 0.000445298
0.186111 0.000439
0.189075 0.000433928
0.192094 0.000427541
0.195113 0.000421873
0.198187 0.000415378
0.201261 0.000409545
0.204391 0.000404144
0.207522 0.000399315
0.21071 0.000396102
0.213898 0.000393196
0.217144 0.00039262
0.22039 0.000391944
0.223696 0.000393571
0.227002 0.000394698
0.230369 0.000397628
0.233735 0.000399753
0.237164 0.000403273
0.240592 0.000405619
0.244083 0.000409093
0.247574 0.000410935
0.251129 0.000413836
0.254685 0.000414851
0.258305 0.000416941
0.261925 0.000417154
0.265612 0.000418456
0.269299 0.000417996
0.273053 0.000418809
0.276808 0.000418018
0.280631 0.000418811
0.284454 0.000418203
0.288348 0.000419251
0.292241 0.000419131
0.296206 0.000419914
0.300171 0.000419844
0.304208 0.000419695
0.308246 0.000419102
0.312358 0.000417802
0.316469 0.000416473
0.320656 0.000413893
0.324843 0.000411638
0.329107 0.000407908
0.333371 0.000404763
0.337713 0.000400101
0.342055 0.000396187
0.346476 0.00039079
0.350898 0.000386206
0.355401 0.000380239
0.359903 0.00037511
0.364489 0.000368567
0.369074 0.000362869
0.373744 0.000355737
0.378413 0.000349435
0.383168 0.000342159
0.387923 0.000335584
0.392765 0.000328797
0.397608 0.000322392
0.402539 0.00031593
0.40747 0.000309544
0.412491 0.000303294
0.417513 0.000296885
0.422626 0.000293235
0.42774 0.000288853
0.432948 0.000290702
0.438155 0.000290954
0.443458 0.000296257
0.448761 0.000299731
0.454161 0.000303056
0.459561 0.000305315
0.46506 0.000303699
0.47056 0.00030211
0.47616 0.000294431
0.48176 0.000287983
0.487463 0.000273363
0.493165 0.000261063
0.498973 0.000244319
0.50478 0.000230099
0.510694 0.000219113
0.516608 0.000210025
0.52263 0.000206471
0.528653 0.000203833
0.534786 0.000204118
0.540918 0.000204531
0.547164 0.000204253
0.553409 0.00020392
0.559769 0.00019876
0.566129 0.000194289
0.572605 0.000178945
0.579082 0.000165723
0.585677 0.000143967
0.592272 0.000124805
0.598989 0.000104943
0.605705 8.67529e-05
0.612544 7.13096e-05
0.619384 5.59054e-05
0.626349 4.6198e-05
0.633314 3.5323e-05
0.640406 3.05276e-05
0.647499 2.4584e-05
0.654722 2.25456e-05
0.661944 1.98262e-05
0.669299 1.89724e-05
0.676655 1.77873e-05
0.684145 1.7429e-05
0.691635 1.69223e-05
0.699262 1.67769e-05
0.70689 1.65643e-05
0.708055 1.65568e-05
0.70922 1.65494e-05
0.715822 1.65072e-05
0.722424 1.64352e-05
0.727949 1.64351e-05
0.733473 1.64349e-05
0.735858 1.64348e-05
0.738244 1.64238e-05
0.740673 1.64329e-05
0.743103 1.64421e-05
0.748728 1.64633e-05
0.754354 1.6481e-05
0.760083 1.65142e-05
0.765811 1.65475e-05
0.768285 1.65618e-05
0.770759 1.65707e-05
0.779112 1.66297e-05
0.787465 1.668e-05
0.795971 1.67489e-05
0.804478 1.68093e-05
0.81314 1.68893e-05
0.821802 1.69628e-05
0.830623 1.70549e-05
0.839445 1.71423e-05
0.840792 1.71572e-05
0.84214 1.7172e-05
0.849775 1.72564e-05
0.857411 1.73364e-05
0.866558 1.74407e-05
0.875706 1.7541e-05
0.882212 1.76164e-05
0.888718 1.76918e-05
0.891527 1.77243e-05
0.894337 1.77536e-05
0.903823 1.78651e-05
0.91331 1.79738e-05
0.92297 1.80887e-05
0.93263 1.82011e-05
0.942468 1.83186e-05
0.952305 1.84339e-05
0.962323 1.85538e-05
0.972341 1.86718e-05
0.973871 1.86902e-05
0.975402 1.87086e-05
0.984073 1.88126e-05
0.992745 1.89149e-05
1 1.90021e-05
1.00726 1.90894e-05
1.01039 1.91271e-05
1.01352 1.9163e-05
1.0241 1.92906e-05
1.03468 1.94165e-05
1.04545 1.95468e-05
1.05623 1.96761e-05
1.0672 1.98087e-05
1.07817 1.99408e-05
1.08934 2.00754e-05
1.10051 2.02095e-05
1.11189 2.03458e-05
1.12327 2.04817e-05
1.13485 2.06195e-05
1.14644 2.07571e-05
1.15824 2.08965e-05
1.17004 2.10358e-05
1.18205 2.11771e-05
1.19407 2.13184e-05
1.2063 2.14616e-05
1.21854 2.16049e-05
1.23099 2.17498e-05
1.24345 2.18949e-05
1.25614 2.20418e-05
1.26883 2.21889e-05
1.28175 2.23379e-05
1.29467 2.24872e-05
1.30783 2.26383e-05
1.32099 2.27896e-05
1.33439 2.29426e-05
1.34778 2.30957e-05
1.34983 2.3119e-05
1.35188 2.31422e-05
1.36348 2.32737e-05
1.37507 2.34054e-05
1.38478 2.35146e-05
1.39448 2.36239e-05
1.39867 2.36711e-05
1.40286 2.37186e-05
1.41701 2.38771e-05
1.43116 2.40359e-05
1.44557 2.41963e-05
1.45998 2.4357e-05
1.47466 2.45193e-05
1.48933 2.4682e-05
1.50427 2.48462e-05
1.51921 2.50107e-05
1.53443 2.51767e-05
1.54965 2.53429e-05
1.56514 2.55108e-05
1.58064 2.5679e-05
1.59642 2.58487e-05
1.6122 2.60187e-05
1.61461 2.60444e-05
1.61702 2.60702e-05
1.63068 2.62159e-05
1.64434 2.63621e-05
1.65577 2.6483e-05
1.6672 2.6604e-05
1.67213 2.66563e-05
1.67707 2.67089e-05
1.69373 2.6884e-05
1.7104 2.70595e-05
1.72737 2.72361e-05
1.74434 2.7413e-05
1.76162 2.75924e-05
1.7789 2.77722e-05
1.7965 2.79512e-05
1.81409 2.81307e-05
1.83202 2.83145e-05
1.84994 2.84987e-05
1.86819 2.86842e-05
1.88644 2.88701e-05
1.90502 2.90451e-05
1.9236 2.92203e-05
1.94253 2.94313e-05
1.96146 2.96427e-05
1.98073 2.96751e-05
2 2.97069e-05
