1 	-0.183642
1.00148 	-0.219772
1.00296 	-0.255901
1.00447 	-0.274067
1.00598 	-0.292284
1.00753 	-0.302676
1.00907 	-0.314728
1.00964 	-0.322622
1.0102 	-0.330515
1.01121 	-0.323149
1.01222 	-0.315784
1.01383 	-0.313499
1.01544 	-0.307151
1.01709 	-0.306515
1.01873 	-0.302546
1.01978 	-0.302223
1.02083 	-0.301899
1.02146 	-0.299422
1.02209 	-0.296945
1.02381 	-0.293162
1.02552 	-0.287595
1.02727 	-0.287392
1.02902 	-0.283883
1.03047 	-0.283274
1.03191 	-0.282665
1.03226 	-0.281745
1.0326 	-0.280824
1.03443 	-0.276548
1.03625 	-0.271476
1.03812 	-0.270333
1.03998 	-0.266091
1.04173 	-0.264161
1.04348 	-0.26223
1.04363 	-0.261809
1.04379 	-0.261388
1.04574 	-0.256692
1.04768 	-0.251724
1.04967 	-0.249529
1.05165 	-0.245412
1.0536 	-0.242568
1.05556 	-0.239723
1.05563 	-0.239531
1.05571 	-0.239338
1.05778 	-0.234788
1.05985 	-0.230157
1.06197 	-0.226774
1.06409 	-0.222879
1.06613 	-0.219287
1.06818 	-0.215696
1.06829 	-0.215436
1.06841 	-0.215177
1.07061 	-0.210899
1.07282 	-0.2066
1.07507 	-0.202403
1.07733 	-0.19865
1.07936 	-0.195259
1.0814 	-0.191869
1.08166 	-0.191349
1.08193 	-0.190828
1.08428 	-0.186747
1.08663 	-0.182717
1.08903 	-0.178692
1.09143 	-0.174909
1.09333 	-0.172046
1.09524 	-0.169182
1.09578 	-0.168229
1.09633 	-0.167275
1.09883 	-0.163223
1.10133 	-0.159216
1.10389 	-0.155528
1.10644 	-0.152049
1.1081 	-0.149805
1.10976 	-0.147561
1.11071 	-0.146071
1.11166 	-0.144582
1.11433 	-0.140797
1.11699 	-0.137179
1.11972 	-0.133556
1.12244 	-0.130291
1.12372 	-0.128826
1.125 	-0.127361
1.1265 	-0.125471
1.128 	-0.123582
1.13084 	-0.12021
1.13368 	-0.117255
1.13657 	-0.114109
1.13947 	-0.111175
1.14025 	-0.110477
1.14103 	-0.109778
1.14321 	-0.107637
1.14539 	-0.105496
1.14842 	-0.102519
1.15144 	-0.100066
1.15453 	-0.0974388
1.15762 	-0.0948419
1.15776 	-0.094744
1.15789 	-0.0946462
1.15789 	-0.0946462
1.16091 	-0.0923272
1.16392 	-0.0900083
1.16714 	-0.0874508
1.17036 	-0.0853693
1.17302 	-0.0835879
1.17568 	-0.0818065
1.17631 	-0.0813452
1.17694 	-0.0808839
1.1803 	-0.0787414
1.18366 	-0.0766971
1.18709 	-0.0745278
1.19052 	-0.0726481
1.19248 	-0.0716025
1.19444 	-0.0705568
1.19598 	-0.0696678
1.19752 	-0.0687788
1.2011 	-0.0668587
1.20467 	-0.0651377
1.20833 	-0.0633027
1.21198 	-0.0616108
1.21313 	-0.0611267
1.21429 	-0.0606425
1.21686 	-0.0594663
1.21944 	-0.0582901
1.22325 	-0.0565695
1.22706 	-0.0551358
1.23095 	-0.053588
1.23484 	-0.0520643
1.23507 	-0.0519886
1.23529 	-0.0519128
1.23904 	-0.0505658
1.24278 	-0.0492188
1.24684 	-0.047695
1.2509 	-0.0464712
1.25424 	-0.0454218
1.25758 	-0.0443723
1.25838 	-0.0440982
1.25918 	-0.0438241
1.26341 	-0.0425665
1.26764 	-0.0413733
1.27197 	-0.0400969
1.27629 	-0.0390091
1.27877 	-0.0384042
1.28125 	-0.0377994
1.28318 	-0.0372854
1.28511 	-0.0367713
1.28962 	-0.035661
1.29412 	-0.0346835
1.29873 	-0.0336205
1.30333 	-0.032658
1.30489 	-0.0323621
1.30645 	-0.0320661
1.30959 	-0.0314162
1.31273 	-0.0307663
1.31753 	-0.0297833
1.32233 	-0.0289784
1.32723 	-0.0280996
1.33213 	-0.0272526
1.33273 	-0.0271658
1.33333 	-0.027079
1.33774 	-0.0263781
1.34214 	-0.0256772
1.34725 	-0.0248216
1.35236 	-0.0241782
1.35722 	-0.0235145
1.36207 	-0.0228509
1.36244 	-0.0227957
1.3628 	-0.0227405
1.36813 	-0.0220831
1.37346 	-0.0214411
1.37891 	-0.0207342
1.38435 	-0.0201929
1.3886 	-0.0197518
1.39286 	-0.0193107
1.39416 	-0.0191604
1.39547 	-0.0190102
1.40115 	-0.0184511
1.40682 	-0.0179378
1.41262 	-0.0173654
1.41842 	-0.0169143
1.42217 	-0.0166262
1.42593 	-0.016338
1.42809 	-0.0161507
1.43026 	-0.0159633
1.43631 	-0.0154997
1.44236 	-0.0150999
1.44853 	-0.0146414
1.45471 	-0.0142722
1.45812 	-0.0140803
1.46154 	-0.0138884
1.46443 	-0.0137023
1.46732 	-0.0135162
1.47376 	-0.0131401
1.4802 	-0.0128346
1.48678 	-0.0124768
1.49335 	-0.012193
1.49668 	-0.0120606
1.5 	-0.0119282
1.50339 	-0.0117694
1.50679 	-0.0116107
1.51364 	-0.01131
1.5205 	-0.0110758
1.52751 	-0.010796
1.53451 	-0.0105764
1.53809 	-0.0104793
1.54167 	-0.0103821
1.54524 	-0.0102614
1.54882 	-0.0101406
1.55612 	-0.00991668
1.56343 	-0.00975162
1.57089 	-0.00954144
1.57835 	-0.00939404
1.58265 	-0.00931331
1.58696 	-0.00923259
1.59027 	-0.00915247
1.59359 	-0.00907236
1.60137 	-0.00890663
1.60915 	-0.00878354
1.61709 	-0.00862351
1.62504 	-0.00852967
1.6307 	-0.00846102
1.63636 	-0.00839237
1.63881 	-0.00835062
1.64127 	-0.00830886
1.64955 	-0.00820191
1.65784 	-0.00812158
1.6663 	-0.00800077
1.67476 	-0.00795777
1.67476 	-0.00795777
1.68262 	-0.00789474
1.69048 	-0.00783172
1.69126 	-0.00782226
1.69205 	-0.00781281
1.70087 	-0.00775334
1.7097 	-0.00770091
1.71871 	-0.0076127
1.72772 	-0.00760886
1.73693 	-0.00756231
1.74613 	-0.00753126
1.74806 	-0.00753043
1.75 	-0.00752959
1.75746 	-0.00750292
1.76493 	-0.00747626
1.77453 	-0.00743114
1.78412 	-0.00744065
1.79393 	-0.00740583
1.80373 	-0.00741078
1.80976 	-0.00741473
1.81579 	-0.00741868
1.81977 	-0.00741069
1.82375 	-0.00740269
1.83397 	-0.00739017
1.8442 	-0.00740152
1.85464 	-0.00737737
1.86508 	-0.00742133
1.87574 	-0.00742298
1.8864 	-0.00743112
1.88764 	-0.00743568
1.88889 	-0.00744024
1.89853 	-0.00745616
1.90818 	-0.00747208
1.91929 	-0.00746182
1.93041 	-0.00749615
1.94177 	-0.00750852
1.95312 	-0.00756235
1.96186 	-0.00756675
1.97059 	-0.00757115
1.97345 	-0.00756767
1.97632 	-0.00756419
1.97632 	-0.00756419
1.98816 	-0.00757693
2 	-0.00760047
