0 	0 	0 	0 	0 	0 	0
0.00128482 	-0.00376565 	0.00065356 	-0.00347799 	-0.0155962 	0.000436772 	0.0084357
0.00256965 	-0.0075313 	0.00130712 	-0.00695598 	-0.0311925 	0.000873544 	0.0168714
0.00387803 	-0.00550741 	0.00268777 	-0.0066635 	-0.0382843 	0.00140683 	0.020322
0.00518642 	-0.00348353 	0.00406843 	-0.00637101 	-0.045376 	0.00194012 	0.0237726
0.00651881 	-2.25241e-05 	0.00598569 	-0.00125296 	-0.051783 	0.00261654 	0.025677
0.00785119 	0.00343848 	0.00790295 	0.0038651 	-0.0581899 	0.00329296 	0.0275815
0.00920802 	0.00731847 	0.0100622 	0.0140296 	-0.0633735 	0.004043 	0.0278962
0.0105648 	0.0111985 	0.0122215 	0.0241942 	-0.068557 	0.00479303 	0.028211
0.0119465 	0.0154255 	0.0142585 	0.0382232 	-0.0725572 	0.00562234 	0.0271451
0.0133283 	0.0196526 	0.0162955 	0.0522522 	-0.0765573 	0.00645165 	0.0260793
0.0147353 	0.0244161 	0.0178049 	0.0680588 	-0.0797468 	0.00738626 	0.0239492
0.0161424 	0.0291796 	0.0193142 	0.0838653 	-0.0829363 	0.00832087 	0.0218191
0.0175752 	0.0343781 	0.0199571 	0.0992295 	-0.085621 	0.00937266 	0.0188894
0.0190081 	0.0395767 	0.0206 	0.114594 	-0.0883058 	0.0104245 	0.0159597
0.0204672 	0.0448187 	0.0201571 	0.127611 	-0.0906282 	0.0115965 	0.0124076
0.0219263 	0.0500606 	0.0197142 	0.140629 	-0.0929506 	0.0127686 	0.00885549
0.0234122 	0.0549127 	0.0181389 	0.15009 	-0.0949859 	0.014057 	0.00480699
0.0248981 	0.0597648 	0.0165636 	0.15955 	-0.0970212 	0.0153454 	0.000758485
0.0264113 	0.0639131 	0.0139995 	0.165237 	-0.0988384 	0.0167384 	-0.00365125
0.0279244 	0.0680614 	0.0114355 	0.170923 	-0.100655 	0.0181313 	-0.00806098
0.0294653 	0.0714453 	0.00819242 	0.173166 	-0.102319 	0.0196129 	-0.0126734
0.0310063 	0.0748293 	0.00494934 	0.175409 	-0.103983 	0.0210944 	-0.0172858
0.0325754 	0.0776071 	0.00141598 	0.175407 	-0.105537 	0.0226499 	-0.0219531
0.0341446 	0.0803849 	-0.00211737 	0.175404 	-0.107092 	0.0242053 	-0.0266204
0.0357425 	0.0827716 	-0.00561572 	0.174335 	-0.108559 	0.0258228 	-0.031226
0.0373405 	0.0851584 	-0.00911407 	0.173265 	-0.110026 	0.0274403 	-0.0358317
0.0389677 	0.0873498 	-0.0122893 	0.171663 	-0.111406 	0.0291027 	-0.0402919
0.040595 	0.0895411 	-0.0154644 	0.17006 	-0.112787 	0.0307651 	-0.044752
0.0422521 	0.091657 	-0.0181094 	0.168629 	-0.114068 	0.0324519 	-0.049009
0.0439092 	0.0937729 	-0.0207543 	0.167199 	-0.115348 	0.0341387 	-0.053266
0.0455967 	0.0958347 	-0.0228061 	0.166146 	-0.116513 	0.0358277 	-0.0572928
0.0472842 	0.0978965 	-0.0248579 	0.165093 	-0.117678 	0.0375167 	-0.0613197
0.0490026 	0.0998742 	-0.0263114 	0.164196 	-0.118708 	0.0391841 	-0.0651113
0.0507211 	0.101852 	-0.0277649 	0.163299 	-0.119739 	0.0408514 	-0.0689029
0.052471 	0.103702 	-0.0285993 	0.162498 	-0.120635 	0.0424801 	-0.0724649
0.054221 	0.105553 	-0.0294338 	0.161696 	-0.121531 	0.0441087 	-0.0760269
0.056003 	0.107237 	-0.0296643 	0.161082 	-0.122329 	0.045691 	-0.0793847
0.0577851 	0.108921 	-0.0298948 	0.160468 	-0.123126 	0.0472733 	-0.0827425
0.0595998 	0.110403 	-0.0295598 	0.160099 	-0.123889 	0.0488058 	-0.0859407
0.0614146 	0.111886 	-0.0292248 	0.159731 	-0.124651 	0.0503383 	-0.089139
0.0632626 	0.11314 	-0.0283585 	0.159562 	-0.125435 	0.0518199 	-0.092224
0.0651106 	0.114394 	-0.0274922 	0.159393 	-0.126219 	0.0533014 	-0.0953089
0.0669925 	0.115404 	-0.0261569 	0.159352 	-0.127042 	0.0547329 	-0.0983038
0.0688745 	0.116414 	-0.0248216 	0.159311 	-0.127865 	0.0561644 	-0.101299
0.0707909 	0.117207 	-0.0230735 	0.159358 	-0.128714 	0.0575484 	-0.104206
0.0727073 	0.118001 	-0.0213254 	0.159404 	-0.129564 	0.0589325 	-0.107113
0.0746589 	0.118611 	-0.0192104 	0.159506 	-0.130426 	0.0602715 	-0.109921
0.0766105 	0.119221 	-0.0170955 	0.159607 	-0.131289 	0.0616105 	-0.112729
0.0785979 	0.119673 	-0.0146548 	0.159777 	-0.132176 	0.0629058 	-0.115422
0.0805853 	0.120124 	-0.0122141 	0.159948 	-0.133062 	0.0642011 	-0.118116
0.0826091 	0.120499 	-0.00948303 	0.16021 	-0.134003 	0.0654567 	-0.12068
0.0846329 	0.120873 	-0.00675194 	0.160472 	-0.134944 	0.0667124 	-0.123244
0.0866939 	0.121266 	-0.00376177 	0.160837 	-0.13596 	0.0679377 	-0.125682
0.0887548 	0.121659 	-0.000771604 	0.161203 	-0.136976 	0.0691631 	-0.12812
0.0887548 	0.121659 	-0.000771604 	0.161203 	-0.136976 	0.0691631 	-0.12812
0.0908536 	0.122128 	0.00245365 	0.161672 	-0.138068 	0.0703691 	-0.130462
0.0929523 	0.122597 	0.0056789 	0.162141 	-0.139159 	0.0715751 	-0.132804
0.0950896 	0.123136 	0.00913018 	0.16272 	-0.140321 	0.0727675 	-0.1351
0.0972268 	0.123675 	0.0125814 	0.1633 	-0.141483 	0.0739599 	-0.137396
0.0972268 	0.123675 	0.0125814 	0.1633 	-0.141483 	0.0739599 	-0.137396
0.0994033 	0.124231 	0.0162748 	0.164004 	-0.142739 	0.0751459 	-0.139691
0.0994033 	0.124231 	0.0162748 	0.164004 	-0.142739 	0.0751459 	-0.139691
0.10158 	0.124786 	0.0199681 	0.164708 	-0.143996 	0.076332 	-0.141985
0.10158 	0.124786 	0.0199681 	0.164708 	-0.143996 	0.076332 	-0.141985
0.103796 	0.125319 	0.0239328 	0.165521 	-0.145397 	0.0775217 	-0.144299
0.106012 	0.125853 	0.0278976 	0.166334 	-0.146798 	0.0787114 	-0.146612
0.108269 	0.126328 	0.0321696 	0.167167 	-0.148378 	0.0798986 	-0.148956
0.110526 	0.126803 	0.0364417 	0.167999 	-0.149957 	0.0810858 	-0.1513
0.112825 	0.127164 	0.0410517 	0.168666 	-0.151727 	0.0822495 	-0.153695
0.115123 	0.127524 	0.0456618 	0.169333 	-0.153496 	0.0834132 	-0.15609
0.117464 	0.127708 	0.0506486 	0.169602 	-0.155425 	0.0845293 	-0.158558
0.119804 	0.127893 	0.0556354 	0.169871 	-0.157353 	0.0856454 	-0.161026
0.122188 	0.127856 	0.0610077 	0.16945 	-0.159319 	0.0866769 	-0.16354
0.124571 	0.127818 	0.0663799 	0.169029 	-0.161284 	0.0877085 	-0.166054
0.126999 	0.127498 	0.0721477 	0.167644 	-0.163167 	0.0886031 	-0.168532
0.129426 	0.127179 	0.0779155 	0.166258 	-0.165049 	0.0894977 	-0.171009
0.131897 	0.126517 	0.0840148 	0.163655 	-0.166877 	0.0902136 	-0.173377
0.134369 	0.125855 	0.0901141 	0.161051 	-0.168705 	0.0909294 	-0.175745
0.136886 	0.124955 	0.0963645 	0.156976 	-0.170608 	0.0914609 	-0.177983
0.139403 	0.124056 	0.102615 	0.152901 	-0.172511 	0.0919923 	-0.180221
0.141967 	0.123309 	0.108824 	0.147311 	-0.174564 	0.0923637 	-0.182332
0.14453 	0.122562 	0.115034 	0.141722 	-0.176617 	0.092735 	-0.184442
0.147044 	0.122512 	0.120755 	0.135089 	-0.178709 	0.0929752 	-0.186334
0.149557 	0.122461 	0.126476 	0.128457 	-0.180802 	0.0932153 	-0.188225
0.149654 	0.122459 	0.126696 	0.128202 	-0.180882 	0.0932245 	-0.188298
0.14975 	0.122458 	0.126915 	0.127948 	-0.180962 	0.0932337 	-0.18837
0.152408 	0.123564 	0.13231 	0.120199 	-0.183173 	0.0934015 	-0.190149
0.155066 	0.12467 	0.137704 	0.11245 	-0.185384 	0.0935692 	-0.191927
0.157773 	0.127125 	0.142258 	0.104524 	-0.187524 	0.0936973 	-0.193494
0.16048 	0.12958 	0.146811 	0.0965993 	-0.189664 	0.0938254 	-0.195061
0.163237 	0.13312 	0.150324 	0.0892505 	-0.191617 	0.0939681 	-0.196409
0.165993 	0.136659 	0.153838 	0.0819017 	-0.19357 	0.0941107 	-0.197757
0.1688 	0.14063 	0.156294 	0.0755187 	-0.195246 	0.0943251 	-0.198921
0.171607 	0.144601 	0.158751 	0.0691357 	-0.196922 	0.0945395 	-0.200084
0.174466 	0.148136 	0.160273 	0.0636279 	-0.198298 	0.0948646 	-0.201117
0.177324 	0.15167 	0.161795 	0.0581202 	-0.199675 	0.0951896 	-0.20215
0.180235 	0.154101 	0.162552 	0.0531757 	-0.200827 	0.0956356 	-0.203073
0.183146 	0.156533 	0.163309 	0.0482313 	-0.201979 	0.0960815 	-0.203996
0.186111 	0.157517 	0.163529 	0.0435496 	-0.203009 	0.0966298 	-0.204782
0.189075 	0.158501 	0.163748 	0.0388679 	-0.204039 	0.0971782 	-0.205568
0.192094 	0.157484 	0.163722 	0.0344511 	-0.20501 	0.0978017 	-0.206163
0.195113 	0.156466 	0.163697 	0.0300343 	-0.205982 	0.0984252 	-0.206758
0.198187 	0.152644 	0.163587 	0.0264205 	-0.206887 	0.0990905 	-0.207131
0.201261 	0.148821 	0.163478 	0.0228068 	-0.207792 	0.0997559 	-0.207504
0.204391 	0.142 	0.163237 	0.0210395 	-0.20854 	0.100432 	-0.207703
0.207522 	0.135179 	0.162996 	0.0192722 	-0.209289 	0.101108 	-0.207902
0.21071 	0.126462 	0.162846 	0.0203935 	-0.209745 	0.101774 	-0.208033
0.213898 	0.117745 	0.162697 	0.0215147 	-0.210201 	0.102441 	-0.208164
0.217144 	0.108898 	0.163692 	0.026768 	-0.210275 	0.103082 	-0.208309
0.22039 	0.100051 	0.164687 	0.0320212 	-0.210349 	0.103723 	-0.208454
0.223696 	0.0919648 	0.168473 	0.0428948 	-0.210187 	0.104325 	-0.208661
0.227002 	0.0838791 	0.172258 	0.0537684 	-0.210025 	0.104927 	-0.208869
0.230369 	0.0760394 	0.179816 	0.0694336 	-0.209919 	0.105481 	-0.209215
0.233735 	0.0681997 	0.187374 	0.0850988 	-0.209813 	0.106034 	-0.209561
0.237164 	0.0596743 	0.198264 	0.102264 	-0.209967 	0.106575 	-0.210148
0.240592 	0.0511488 	0.209153 	0.119428 	-0.210121 	0.107116 	-0.210735
0.244083 	0.0416784 	0.222502 	0.135172 	-0.210643 	0.10772 	-0.211634
0.247574 	0.0322079 	0.235851 	0.150915 	-0.211166 	0.108324 	-0.212532
0.251129 	0.0224241 	0.251147 	0.164101 	-0.212039 	0.109037 	-0.21367
0.254685 	0.0126402 	0.266444 	0.177286 	-0.212912 	0.10975 	-0.214807
0.258305 	0.00368364 	0.283116 	0.187066 	-0.213962 	0.110551 	-0.215933
0.261925 	-0.00527298 	0.299789 	0.196846 	-0.215012 	0.111351 	-0.21706
0.265612 	-0.0118583 	0.317111 	0.201834 	-0.216022 	0.112185 	-0.217944
0.269299 	-0.0184436 	0.334433 	0.206821 	-0.217032 	0.113018 	-0.218827
0.273053 	-0.0210109 	0.351634 	0.207379 	-0.217857 	0.113844 	-0.219456
0.276808 	-0.0235783 	0.368834 	0.207937 	-0.218683 	0.11467 	-0.220084
0.280631 	-0.0205901 	0.385073 	0.204773 	-0.219244 	0.115479 	-0.220547
0.284454 	-0.0176019 	0.401311 	0.201609 	-0.219805 	0.116289 	-0.22101
0.288348 	-0.00790432 	0.415587 	0.194657 	-0.220019 	0.117106 	-0.221297
0.292241 	0.00179327 	0.429863 	0.187705 	-0.220232 	0.117923 	-0.221584
0.296206 	0.0177425 	0.440937 	0.177172 	-0.220031 	0.118743 	-0.221695
0.300171 	0.0336918 	0.452011 	0.166639 	-0.219829 	0.119564 	-0.221805
0.304208 	0.0527151 	0.457607 	0.152265 	-0.219254 	0.120356 	-0.221857
0.308246 	0.0717385 	0.463204 	0.137891 	-0.218678 	0.121148 	-0.221909
0.312358 	0.0864216 	0.461351 	0.119002 	-0.217869 	0.121869 	-0.22208
0.316469 	0.101105 	0.459498 	0.100112 	-0.217061 	0.122589 	-0.222251
0.320656 	0.103862 	0.448559 	0.0772075 	-0.216121 	0.123195 	-0.22261
0.324843 	0.10662 	0.437621 	0.0543029 	-0.215182 	0.123802 	-0.222969
0.329107 	0.0948321 	0.417162 	0.0305336 	-0.214097 	0.124267 	-0.223435
0.333371 	0.0830445 	0.396703 	0.00676442 	-0.213012 	0.124733 	-0.223902
0.337713 	0.0585308 	0.371566 	-0.0138481 	-0.211729 	0.125089 	-0.224449
0.342055 	0.034017 	0.346429 	-0.0344606 	-0.210445 	0.125444 	-0.224996
0.346476 	0.000111488 	0.324062 	-0.0500279 	-0.209049 	0.125796 	-0.225632
0.350898 	-0.033794 	0.301694 	-0.0655951 	-0.207652 	0.126147 	-0.226268
0.350898 	-0.033794 	0.301694 	-0.0655951 	-0.207652 	0.126147 	-0.226268
0.355401 	-0.0742607 	0.286733 	-0.076223 	-0.206469 	0.126623 	-0.226894
0.355401 	-0.0742607 	0.286733 	-0.076223 	-0.206469 	0.126623 	-0.226894
0.359903 	-0.114727 	0.271772 	-0.0868508 	-0.205285 	0.127098 	-0.22752
0.359903 	-0.114727 	0.271772 	-0.0868508 	-0.205285 	0.127098 	-0.22752
0.364489 	-0.160187 	0.265114 	-0.0934359 	-0.204505 	0.127769 	-0.228003
0.364489 	-0.160187 	0.265114 	-0.0934359 	-0.204505 	0.127769 	-0.228003
0.369074 	-0.205647 	0.258456 	-0.100021 	-0.203724 	0.12844 	-0.228486
0.369074 	-0.205647 	0.258456 	-0.100021 	-0.203724 	0.12844 	-0.228486
0.373744 	-0.251716 	0.257896 	-0.104282 	-0.203071 	0.129231 	-0.228684
0.373744 	-0.251716 	0.257896 	-0.104282 	-0.203071 	0.129231 	-0.228684
0.378413 	-0.297785 	0.257336 	-0.108543 	-0.202417 	0.130022 	-0.228883
0.378413 	-0.297785 	0.257336 	-0.108543 	-0.202417 	0.130022 	-0.228883
0.383168 	-0.329472 	0.258539 	-0.112467 	-0.201506 	0.13077 	-0.228605
0.383168 	-0.329472 	0.258539 	-0.112467 	-0.201506 	0.13077 	-0.228605
0.387923 	-0.361159 	0.259742 	-0.116391 	-0.200594 	0.131518 	-0.228327
0.387923 	-0.361159 	0.259742 	-0.116391 	-0.200594 	0.131518 	-0.228327
0.392765 	-0.369668 	0.259274 	-0.121467 	-0.199346 	0.132121 	-0.227409
0.392765 	-0.369668 	0.259274 	-0.121467 	-0.199346 	0.132121 	-0.227409
0.397608 	-0.378177 	0.258806 	-0.126543 	-0.198097 	0.132725 	-0.226492
0.397608 	-0.378177 	0.258806 	-0.126543 	-0.198097 	0.132725 	-0.226492
0.402539 	-0.369959 	0.255552 	-0.133733 	-0.19672 	0.133194 	-0.224793
0.402539 	-0.369959 	0.255552 	-0.133733 	-0.19672 	0.133194 	-0.224793
0.40747 	-0.361742 	0.252298 	-0.140923 	-0.195344 	0.133662 	-0.223094
0.40747 	-0.361742 	0.252298 	-0.140923 	-0.195344 	0.133662 	-0.223094
0.412491 	-0.345313 	0.247011 	-0.150335 	-0.193846 	0.134001 	-0.220474
0.412491 	-0.345313 	0.247011 	-0.150335 	-0.193846 	0.134001 	-0.220474
0.417513 	-0.328883 	0.241723 	-0.159747 	-0.192349 	0.13434 	-0.217854
0.417513 	-0.328883 	0.241723 	-0.159747 	-0.192349 	0.13434 	-0.217854
0.422626 	-0.311703 	0.236536 	-0.170833 	-0.190535 	0.134624 	-0.214465
0.422626 	-0.311703 	0.236536 	-0.170833 	-0.190535 	0.134624 	-0.214465
0.42774 	-0.294523 	0.23135 	-0.181919 	-0.188721 	0.134907 	-0.211077
0.42774 	-0.294523 	0.23135 	-0.181919 	-0.188721 	0.134907 	-0.211077
0.432948 	-0.281512 	0.228369 	-0.194515 	-0.186632 	0.135282 	-0.207374
0.432948 	-0.281512 	0.228369 	-0.194515 	-0.186632 	0.135282 	-0.207374
0.438155 	-0.268501 	0.225389 	-0.207111 	-0.184544 	0.135657 	-0.203672
0.438155 	-0.268501 	0.225389 	-0.207111 	-0.184544 	0.135657 	-0.203672
0.443458 	-0.261167 	0.225431 	-0.221667 	-0.182479 	0.136154 	-0.200009
0.443458 	-0.261167 	0.225431 	-0.221667 	-0.182479 	0.136154 	-0.200009
0.448761 	-0.253833 	0.225474 	-0.236222 	-0.180415 	0.136651 	-0.196346
0.448761 	-0.253833 	0.225474 	-0.236222 	-0.180415 	0.136651 	-0.196346
0.454161 	-0.251522 	0.227795 	-0.251961 	-0.178787 	0.137243 	-0.192942
0.454161 	-0.251522 	0.227795 	-0.251961 	-0.178787 	0.137243 	-0.192942
0.459561 	-0.24921 	0.230115 	-0.267699 	-0.177158 	0.137836 	-0.189538
0.459561 	-0.24921 	0.230115 	-0.267699 	-0.177158 	0.137836 	-0.189538
0.46506 	-0.250205 	0.232978 	-0.28223 	-0.176197 	0.138546 	-0.186554
0.46506 	-0.250205 	0.232978 	-0.28223 	-0.176197 	0.138546 	-0.186554
0.47056 	-0.2512 	0.23584 	-0.29676 	-0.175236 	0.139257 	-0.183569
0.47056 	-0.2512 	0.23584 	-0.29676 	-0.175236 	0.139257 	-0.183569
0.47616 	-0.253854 	0.237455 	-0.307906 	-0.17477 	0.140137 	-0.181138
0.47616 	-0.253854 	0.237455 	-0.307906 	-0.17477 	0.140137 	-0.181138
0.48176 	-0.256507 	0.23907 	-0.319053 	-0.174305 	0.141017 	-0.178707
0.48176 	-0.256507 	0.23907 	-0.319053 	-0.174305 	0.141017 	-0.178707
0.48176 	-0.256507 	0.23907 	-0.319053 	-0.174305 	0.141017 	-0.178707
0.487463 	-0.259854 	0.238283 	-0.32544 	-0.173777 	0.142052 	-0.176754
0.487463 	-0.259854 	0.238283 	-0.32544 	-0.173777 	0.142052 	-0.176754
0.487463 	-0.259854 	0.238283 	-0.32544 	-0.173777 	0.142052 	-0.176754
0.493165 	-0.263201 	0.237497 	-0.331828 	-0.17325 	0.143087 	-0.1748
0.493165 	-0.263201 	0.237497 	-0.331828 	-0.17325 	0.143087 	-0.1748
0.493165 	-0.263201 	0.237497 	-0.331828 	-0.17325 	0.143087 	-0.1748
0.498973 	-0.266515 	0.234039 	-0.332988 	-0.171871 	0.144211 	-0.17277
0.50478 	-0.269829 	0.230581 	-0.334148 	-0.170491 	0.145334 	-0.170739
0.510694 	-0.271855 	0.224805 	-0.330952 	-0.167653 	0.146485 	-0.168126
0.516608 	-0.273881 	0.21903 	-0.327756 	-0.164815 	0.147635 	-0.165512
0.52263 	-0.272075 	0.210888 	-0.32124 	-0.160505 	0.148766 	-0.162466
0.528653 	-0.270268 	0.202747 	-0.314724 	-0.156195 	0.149896 	-0.159419
0.534786 	-0.262979 	0.191888 	-0.300848 	-0.150955 	0.151025 	-0.156376
0.540918 	-0.255689 	0.181028 	-0.286971 	-0.145715 	0.152155 	-0.153333
0.547164 	-0.246877 	0.169191 	-0.257381 	-0.140341 	0.153277 	-0.150464
0.553409 	-0.238064 	0.157353 	-0.227792 	-0.134967 	0.1544 	-0.147595
0.559769 	-0.234157 	0.146659 	-0.187426 	-0.129928 	0.155571 	-0.144868
0.566129 	-0.230251 	0.135965 	-0.14706 	-0.124889 	0.156743 	-0.142141
0.572605 	-0.230521 	0.125746 	-0.117043 	-0.120014 	0.158056 	-0.139384
0.579082 	-0.230792 	0.115527 	-0.0870253 	-0.115139 	0.159369 	-0.136626
0.585677 	-0.229405 	0.104542 	-0.0773273 	-0.110085 	0.160801 	-0.133314
0.592272 	-0.228018 	0.0935563 	-0.0676293 	-0.105032 	0.162234 	-0.130001
0.592272 	-0.228018 	0.0935563 	-0.0676293 	-0.105032 	0.162234 	-0.130001
0.598989 	-0.222435 	0.0821438 	-0.0694726 	-0.0994994 	0.163775 	-0.125589
0.598989 	-0.222435 	0.0821438 	-0.0694726 	-0.0994994 	0.163775 	-0.125589
0.605705 	-0.216852 	0.0707312 	-0.071316 	-0.0939671 	0.165316 	-0.121176
0.605705 	-0.216852 	0.0707312 	-0.071316 	-0.0939671 	0.165316 	-0.121176
0.612544 	-0.207413 	0.0597416 	-0.074432 	-0.0879266 	0.166759 	-0.115679
0.612544 	-0.207413 	0.0597416 	-0.074432 	-0.0879266 	0.166759 	-0.115679
0.619384 	-0.197974 	0.048752 	-0.077548 	-0.0818861 	0.168202 	-0.110182
0.619384 	-0.197974 	0.048752 	-0.077548 	-0.0818861 	0.168202 	-0.110182
0.626349 	-0.184451 	0.0398833 	-0.0782422 	-0.0757984 	0.1692 	-0.104568
0.633314 	-0.170927 	0.0310145 	-0.0789364 	-0.0697107 	0.170198 	-0.0989533
0.640406 	-0.153633 	0.0269287 	-0.0775412 	-0.0642351 	0.170593 	-0.0943902
0.647499 	-0.136338 	0.0228429 	-0.0761461 	-0.0587595 	0.170988 	-0.089827
0.654722 	-0.119149 	0.0254759 	-0.0736609 	-0.0541601 	0.170861 	-0.0864142
0.661944 	-0.101961 	0.0281088 	-0.0711757 	-0.0495607 	0.170735 	-0.0830015
0.669299 	-0.0901023 	0.0380873 	-0.069188 	-0.045309 	0.170487 	-0.0796831
0.676655 	-0.0782437 	0.0480658 	-0.0672003 	-0.0410573 	0.170239 	-0.0763648
0.684145 	-0.0735119 	0.0633942 	-0.0673466 	-0.0363762 	0.170022 	-0.0721129
0.691635 	-0.0687802 	0.0787227 	-0.0674929 	-0.0316951 	0.169804 	-0.067861
0.699262 	-0.0698173 	0.0952535 	-0.0706697 	-0.0259632 	0.169438 	-0.0627748
0.70689 	-0.0708544 	0.111784 	-0.0738464 	-0.0202313 	0.169072 	-0.0576886
0.714657 	-0.0756382 	0.125272 	-0.0796133 	-0.0136958 	0.168428 	-0.0527618
0.722424 	-0.080422 	0.13876 	-0.0853802 	-0.00716024 	0.167785 	-0.047835
0.730334 	-0.0880313 	0.145518 	-0.09138 	-0.000943215 	0.167012 	-0.0435134
0.738244 	-0.0956406 	0.152275 	-0.0973798 	0.00527381 	0.166238 	-0.0391917
0.738244 	-0.0956406 	0.152275 	-0.0973798 	0.00527381 	0.166238 	-0.0391917
0.746299 	-0.106547 	0.149488 	-0.100146 	0.0108431 	0.165519 	-0.034895
0.746299 	-0.106547 	0.149488 	-0.100146 	0.0108431 	0.165519 	-0.034895
0.754354 	-0.117453 	0.1467 	-0.102913 	0.0164123 	0.1648 	-0.0305982
0.754354 	-0.117453 	0.1467 	-0.102913 	0.0164123 	0.1648 	-0.0305982
0.762556 	-0.13014 	0.132927 	-0.099092 	0.0217598 	0.163884 	-0.0260818
0.762556 	-0.13014 	0.132927 	-0.099092 	0.0217598 	0.163884 	-0.0260818
0.770759 	-0.142826 	0.119153 	-0.0952712 	0.0271072 	0.162967 	-0.0215653
0.770759 	-0.142826 	0.119153 	-0.0952712 	0.0271072 	0.162967 	-0.0215653
0.779112 	-0.153326 	0.096312 	-0.0845509 	0.0323339 	0.161652 	-0.0172773
0.779112 	-0.153326 	0.096312 	-0.0845509 	0.0323339 	0.161652 	-0.0172773
0.787465 	-0.163825 	0.0734706 	-0.0738306 	0.0375607 	0.160338 	-0.0129894
0.787465 	-0.163825 	0.0734706 	-0.0738306 	0.0375607 	0.160338 	-0.0129894
0.795971 	-0.178791 	0.0382184 	-0.0624877 	0.0428549 	0.158782 	-0.00927485
0.795971 	-0.178791 	0.0382184 	-0.0624877 	0.0428549 	0.158782 	-0.00927485
0.804478 	-0.193756 	0.00296616 	-0.0511449 	0.0481492 	0.157226 	-0.00556034
0.804478 	-0.193756 	0.00296616 	-0.0511449 	0.0481492 	0.157226 	-0.00556034
0.81314 	-0.21424 	-0.0388836 	-0.0198872 	0.0542835 	0.155677 	-0.00237192
0.81314 	-0.21424 	-0.0388836 	-0.0198872 	0.0542835 	0.155677 	-0.00237192
0.821802 	-0.234724 	-0.0807333 	0.0113705 	0.0604177 	0.154127 	0.000816491
0.821802 	-0.234724 	-0.0807333 	0.0113705 	0.0604177 	0.154127 	0.000816491
0.830623 	-0.230194 	-0.0885724 	0.096364 	0.0674943 	0.152762 	0.00352007
0.830623 	-0.230194 	-0.0885724 	0.096364 	0.0674943 	0.152762 	0.00352007
0.839445 	-0.225663 	-0.0964114 	0.181358 	0.0745709 	0.151397 	0.00622364
0.839445 	-0.225663 	-0.0964114 	0.181358 	0.0745709 	0.151397 	0.00622364
0.848428 	-0.193165 	-0.066312 	0.296649 	0.0815786 	0.150044 	0.00852996
0.848428 	-0.193165 	-0.066312 	0.296649 	0.0815786 	0.150044 	0.00852996
0.857411 	-0.160667 	-0.0362126 	0.41194 	0.0885863 	0.14869 	0.0108363
0.857411 	-0.160667 	-0.0362126 	0.41194 	0.0885863 	0.14869 	0.0108363
0.866558 	-0.126737 	-0.0182292 	0.481862 	0.0955123 	0.147311 	0.0134
0.866558 	-0.126737 	-0.0182292 	0.481862 	0.0955123 	0.147311 	0.0134
0.875706 	-0.0928064 	-0.000245681 	0.551784 	0.102438 	0.145932 	0.0159638
0.875706 	-0.0928064 	-0.000245681 	0.551784 	0.102438 	0.145932 	0.0159638
0.885021 	-0.0681528 	-0.0170193 	0.534234 	0.109721 	0.144786 	0.0195161
0.885021 	-0.0681528 	-0.0170193 	0.534234 	0.109721 	0.144786 	0.0195161
0.894337 	-0.0434992 	-0.0337929 	0.516684 	0.117004 	0.143641 	0.0230684
0.894337 	-0.0434992 	-0.0337929 	0.516684 	0.117004 	0.143641 	0.0230684
0.903823 	-0.0261033 	-0.0754063 	0.448737 	0.124139 	0.142589 	0.0278273
0.903823 	-0.0261033 	-0.0754063 	0.448737 	0.124139 	0.142589 	0.0278273
0.91331 	-0.00870752 	-0.11702 	0.38079 	0.131274 	0.141538 	0.0325861
0.91331 	-0.00870752 	-0.11702 	0.38079 	0.131274 	0.141538 	0.0325861
0.92297 	0.00169292 	-0.162457 	0.327282 	0.137975 	0.140702 	0.0381608
0.92297 	0.00169292 	-0.162457 	0.327282 	0.137975 	0.140702 	0.0381608
0.93263 	0.0120934 	-0.207895 	0.273775 	0.144675 	0.139866 	0.0437356
0.93263 	0.0120934 	-0.207895 	0.273775 	0.144675 	0.139866 	0.0437356
0.942468 	0.0195439 	-0.238852 	0.257022 	0.151539 	0.139445 	0.0487244
0.942468 	0.0195439 	-0.238852 	0.257022 	0.151539 	0.139445 	0.0487244
0.952305 	0.0269945 	-0.26981 	0.24027 	0.158403 	0.139024 	0.0537133
0.952305 	0.0269945 	-0.26981 	0.24027 	0.158403 	0.139024 	0.0537133
0.962323 	0.0366775 	-0.290478 	0.244953 	0.165932 	0.138555 	0.057123
0.972341 	0.0463605 	-0.311147 	0.249637 	0.17346 	0.138085 	0.0605327
0.972341 	0.0463605 	-0.311147 	0.249637 	0.17346 	0.138085 	0.0605327
0.982543 	0.0546702 	-0.326876 	0.261621 	0.181228 	0.136841 	0.0638134
0.992745 	0.06298 	-0.342606 	0.273606 	0.188996 	0.135597 	0.0670941
0.992745 	0.06298 	-0.342606 	0.273606 	0.188996 	0.135597 	0.0670941
1.00313 	0.0661802 	-0.350159 	0.286723 	0.196669 	0.133137 	0.0725398
1.01352 	0.0693804 	-0.357713 	0.299839 	0.204342 	0.130677 	0.0779854
1.01352 	0.0693804 	-0.357713 	0.299839 	0.204342 	0.130677 	0.0779854
1.0241 	0.0668599 	-0.356097 	0.30607 	0.212592 	0.127567 	0.0863492
1.03468 	0.0643395 	-0.354481 	0.3123 	0.220841 	0.124457 	0.0947131
1.03468 	0.0643395 	-0.354481 	0.3123 	0.220841 	0.124457 	0.0947131
1.04545 	0.0581279 	-0.343202 	0.303894 	0.229831 	0.121099 	0.105862
1.04545 	0.0581279 	-0.343202 	0.303894 	0.229831 	0.121099 	0.105862
1.05623 	0.0519163 	-0.331923 	0.295488 	0.238821 	0.117742 	0.117011
1.05623 	0.0519163 	-0.331923 	0.295488 	0.238821 	0.117742 	0.117011
1.0672 	0.0500647 	-0.312934 	0.278519 	0.249014 	0.113692 	0.130775
1.0672 	0.0500647 	-0.312934 	0.278519 	0.249014 	0.113692 	0.130775
1.07817 	0.0482131 	-0.293944 	0.26155 	0.259206 	0.109641 	0.14454
1.07817 	0.0482131 	-0.293944 	0.26155 	0.259206 	0.109641 	0.14454
1.08934 	0.0644528 	-0.266054 	0.259215 	0.27228 	0.10473 	0.160279
1.08934 	0.0644528 	-0.266054 	0.259215 	0.27228 	0.10473 	0.160279
1.10051 	0.0806926 	-0.238163 	0.256881 	0.285353 	0.0998194 	0.176019
1.10051 	0.0806926 	-0.238163 	0.256881 	0.285353 	0.0998194 	0.176019
1.11189 	0.124378 	-0.200038 	0.293244 	0.303207 	0.0937532 	0.193028
1.11189 	0.124378 	-0.200038 	0.293244 	0.303207 	0.0937532 	0.193028
1.12327 	0.168064 	-0.161912 	0.329607 	0.32106 	0.087687 	0.210038
1.12327 	0.168064 	-0.161912 	0.329607 	0.32106 	0.087687 	0.210038
1.13485 	0.230312 	-0.124083 	0.398923 	0.345632 	0.0798931 	0.228882
1.13485 	0.230312 	-0.124083 	0.398923 	0.345632 	0.0798931 	0.228882
1.14644 	0.292561 	-0.0862549 	0.468239 	0.370203 	0.0720991 	0.247726
1.14644 	0.292561 	-0.0862549 	0.468239 	0.370203 	0.0720991 	0.247726
1.14644 	0.292561 	-0.0862549 	0.468239 	0.370203 	0.0720991 	0.247726
1.15824 	0.354194 	-0.0752416 	0.52168 	0.403093 	0.0632632 	0.269905
1.15824 	0.354194 	-0.0752416 	0.52168 	0.403093 	0.0632632 	0.269905
1.17004 	0.415827 	-0.0642284 	0.575121 	0.435982 	0.0544272 	0.292084
1.17004 	0.415827 	-0.0642284 	0.575121 	0.435982 	0.0544272 	0.292084
1.18205 	0.470995 	-0.0908516 	0.576661 	0.477494 	0.0460813 	0.317465
1.18205 	0.470995 	-0.0908516 	0.576661 	0.477494 	0.0460813 	0.317465
1.19407 	0.526163 	-0.117475 	0.578202 	0.519006 	0.0377355 	0.342847
1.19407 	0.526163 	-0.117475 	0.578202 	0.519006 	0.0377355 	0.342847
1.2063 	0.585796 	-0.158535 	0.540383 	0.566719 	0.0306963 	0.369326
1.2063 	0.585796 	-0.158535 	0.540383 	0.566719 	0.0306963 	0.369326
1.21854 	0.645429 	-0.199596 	0.502565 	0.614432 	0.023657 	0.395804
1.21854 	0.645429 	-0.199596 	0.502565 	0.614432 	0.023657 	0.395804
1.23099 	0.71079 	-0.224369 	0.453687 	0.664829 	0.018468 	0.420681
1.23099 	0.71079 	-0.224369 	0.453687 	0.664829 	0.018468 	0.420681
1.24345 	0.77615 	-0.249142 	0.40481 	0.715227 	0.013279 	0.445558
1.24345 	0.77615 	-0.249142 	0.40481 	0.715227 	0.013279 	0.445558
1.25614 	0.831416 	-0.244441 	0.36721 	0.76525 	0.010159 	0.466224
1.25614 	0.831416 	-0.244441 	0.36721 	0.76525 	0.010159 	0.466224
1.26883 	0.886681 	-0.239739 	0.32961 	0.815274 	0.00703906 	0.486889
1.26883 	0.886681 	-0.239739 	0.32961 	0.815274 	0.00703906 	0.486889
1.26883 	0.886681 	-0.239739 	0.32961 	0.815274 	0.00703906 	0.486889
1.28175 	0.919335 	-0.211885 	0.315786 	0.860812 	0.00581524 	0.502578
1.28175 	0.919335 	-0.211885 	0.315786 	0.860812 	0.00581524 	0.502578
1.29467 	0.951989 	-0.184031 	0.301962 	0.906349 	0.00459142 	0.518267
1.29467 	0.951989 	-0.184031 	0.301962 	0.906349 	0.00459142 	0.518267
1.30783 	0.963957 	-0.148166 	0.310481 	0.943836 	0.00455005 	0.530346
1.32099 	0.975924 	-0.1123 	0.319 	0.981322 	0.00450868 	0.542424
1.33439 	0.977286 	-0.0818347 	0.338481 	1.00943 	0.00458789 	0.551705
1.34778 	0.978648 	-0.0513692 	0.357962 	1.03754 	0.0046671 	0.560986
1.36143 	0.978567 	-0.0300782 	0.377726 	1.05547 	0.00464169 	0.566506
1.37507 	0.978485 	-0.00878725 	0.39749 	1.07341 	0.00461628 	0.572026
1.38897 	0.9806 	0.00607523 	0.413379 	1.08187 	0.00459874 	0.573366
1.40286 	0.982715 	0.0209377 	0.429268 	1.09033 	0.00458119 	0.574705
1.41701 	0.98613 	0.0311361 	0.441607 	1.09247 	0.00435957 	0.57314
1.43116 	0.989544 	0.0413346 	0.453945 	1.09461 	0.00413795 	0.571575
1.44557 	0.993096 	0.0472591 	0.463425 	1.09393 	0.00356919 	0.568735
1.45998 	0.996648 	0.0531837 	0.472905 	1.09324 	0.00300044 	0.565896
1.47466 	1.00004 	0.0559884 	0.480002 	1.09155 	0.00220535 	0.562763
1.48933 	1.00343 	0.058793 	0.487099 	1.08987 	0.00141025 	0.559631
1.50427 	1.00662 	0.0596834 	0.492347 	1.08786 	0.000543384 	0.556448
1.51921 	1.0098 	0.0605739 	0.497595 	1.08585 	-0.000323484 	0.553265
1.53443 	1.0127 	0.0602599 	0.501323 	1.0838 	-0.00112176 	0.550031
1.54965 	1.01559 	0.0599459 	0.505052 	1.08175 	-0.00192004 	0.546797
1.56514 	1.01808 	0.0588625 	0.507417 	1.07972 	-0.00256133 	0.54358
1.58064 	1.02056 	0.0577791 	0.509783 	1.07769 	-0.00320262 	0.540363
1.59642 	1.02255 	0.05622 	0.510972 	1.07572 	-0.00367431 	0.537251
1.6122 	1.02454 	0.054661 	0.51216 	1.07374 	-0.004146 	0.53414
1.62827 	1.02599 	0.0528387 	0.512443 	1.07183 	-0.00445612 	0.53117
1.64434 	1.02745 	0.0510164 	0.512725 	1.06992 	-0.00476624 	0.5282
1.6607 	1.02842 	0.0491022 	0.512361 	1.06805 	-0.00492811 	0.52537
1.67707 	1.02939 	0.047188 	0.511998 	1.06619 	-0.00508998 	0.52254
1.69373 	1.03 	0.045318 	0.511166 	1.06434 	-0.00512095 	0.519844
1.7104 	1.0306 	0.0434479 	0.510334 	1.06249 	-0.00515191 	0.517148
1.72737 	1.03088 	0.0417009 	0.509156 	1.06066 	-0.00506658 	0.514586
1.74434 	1.03117 	0.039954 	0.507978 	1.05883 	-0.00498124 	0.512024
1.76162 	1.03115 	0.0383653 	0.506562 	1.05701 	-0.00479392 	0.509595
1.7789 	1.03114 	0.0367767 	0.505147 	1.05518 	-0.0046066 	0.507165
1.7965 	1.03088 	0.0353621 	0.503579 	1.05336 	-0.00433543 	0.504865
1.81409 	1.03061 	0.0339475 	0.502012 	1.05154 	-0.00406426 	0.502565
1.83202 	1.03013 	0.0327075 	0.500354 	1.04972 	-0.00373189 	0.50039
1.84994 	1.02966 	0.0314675 	0.498696 	1.0479 	-0.00339951 	0.498215
1.86819 	1.02901 	0.0304087 	0.496997 	1.0461 	-0.00299452 	0.496163
1.88644 	1.02836 	0.02935 	0.495297 	1.0443 	-0.00258953 	0.494111
1.90502 	1.02758 	0.0284918 	0.493608 	1.04252 	-0.00209103 	0.492191
1.9236 	1.02679 	0.0276336 	0.491919 	1.04075 	-0.00159253 	0.490272
1.94253 	1.02587 	0.0269761 	0.490325 	1.03894 	-0.00102966 	0.488542
1.96146 	1.02495 	0.0263186 	0.488732 	1.03713 	-0.000466783 	0.486813
1.98073 	1.02402 	0.0253543 	0.487086 	1.03547 	-0.000547229 	0.485081
2 	1.0231 	0.0243901 	0.48544 	1.03382 	-0.000627674 	0.48335
