0 1e-10
0.00128482 0.000220648
0.00256965 0.000441295
0.00387803 0.000586213
0.00518642 0.00073113
0.00651881 0.000875789
0.00785119 0.00102045
0.00920802 0.00116967
0.0105648 0.00131888
0.0119465 0.00144551
0.0133283 0.00157214
0.0147353 0.00163383
0.0161424 0.00169551
0.0175752 0.00167109
0.0190081 0.00164667
0.0204672 0.00155225
0.0219263 0.00145783
0.0234122 0.00133064
0.0248981 0.00120345
0.0264113 0.00107665
0.0279244 0.00094984
0.0294653 0.000845611
0.0310063 0.000741382
0.0325754 0.000670056
0.0341446 0.00059873
0.0357425 0.000556747
0.0373405 0.000514763
0.0389677 0.000492232
0.040595 0.000469701
0.0422521 0.000457285
0.0439092 0.000444869
0.0455967 0.000438223
0.0472842 0.000431578
0.0490026 0.000428624
0.0507211 0.000425671
0.052471 0.000425115
0.054221 0.000424559
0.056003 0.0004259
0.0577851 0.00042724
0.0595998 0.000429928
0.0614146 0.000432616
0.0632626 0.000435935
0.0651106 0.000439254
0.0669925 0.000442897
0.0688745 0.00044654
0.0707909 0.000450549
0.0727073 0.000454558
0.0746589 0.000458776
0.0766105 0.000462994
0.0785979 0.000467394
0.0805853 0.000471794
0.0826091 0.000476436
0.0846329 0.000481078
0.0866939 0.000485943
0.0887548 0.000490808
0.0908536 0.000496059
0.0929523 0.000501309
0.0950896 0.000507169
0.0972268 0.000513029
0.0994033 0.000519712
0.10158 0.000526395
0.103796 0.000534033
0.106012 0.000541671
0.108269 0.000550204
0.110526 0.000558736
0.112825 0.000568223
0.115123 0.000577709
0.117464 0.000588484
0.119804 0.000599259
0.122188 0.000611271
0.124571 0.000623283
0.126999 0.000636043
0.129426 0.000648803
0.131897 0.0006615
0.134369 0.000674197
0.136886 0.000685239
0.139403 0.00069628
0.141967 0.000703134
0.14453 0.000709988
0.14714 0.000708596
0.14975 0.000707204
0.152408 0.000693402
0.155066 0.0006796
0.157773 0.000654686
0.16048 0.000629772
0.163237 0.000605852
0.165993 0.000581932
0.1688 0.000568211
0.171607 0.000554491
0.174466 0.000552039
0.177324 0.000549588
0.180235 0.000558558
0.183146 0.000567529
0.186111 0.000585237
0.189075 0.000602945
0.192094 0.000630583
0.195113 0.000658222
0.198187 0.000700176
0.201261 0.000742129
0.204391 0.000797361
0.207522 0.000852592
0.21071 0.000929991
0.213898 0.00100739
0.217144 0.00115263
0.22039 0.00129787
0.220574 0.00131239
0.220758 0.00132691
0.22388 0.00157322
0.227002 0.00181953
0.233591 0.00248568
0.233735 0.00250031
0.240592 0.00309821
0.247574 0.00345924
0.254685 0.00364128
0.258305 0.00368441
0.261925 0.00372755
0.265612 0.00372751
0.269299 0.00372748
0.273053 0.00368608
0.276808 0.00364469
0.280631 0.00359528
0.284454 0.00354588
0.288348 0.00352029
0.292241 0.0034947
0.296206 0.00348549
0.300171 0.00347628
0.304208 0.003459
0.308246 0.00344172
0.312358 0.00337881
0.316469 0.0033159
0.320656 0.00318832
0.324843 0.00306073
0.329107 0.00291246
0.333371 0.00276418
0.337713 0.00263292
0.342055 0.00250167
0.346476 0.00237516
0.350898 0.00224865
0.355401 0.00217271
0.359903 0.00209677
0.364489 0.0020682
0.369074 0.00203962
0.373744 0.00192331
0.378413 0.00180701
0.383168 0.00159991
0.387923 0.00139282
0.392765 0.00121391
0.397608 0.00103501
0.402539 0.000923547
0.40747 0.000812089
0.412491 0.000744779
0.417513 0.000677469
0.422626 0.000636315
0.42774 0.00059516
0.432948 0.000573475
0.438155 0.00055179
0.443458 0.000543006
0.448761 0.000534222
0.454161 0.000530037
0.459561 0.000525853
0.46506 0.000520279
0.47056 0.000514704
0.47616 0.000507924
0.48176 0.000501143
0.487463 0.000495374
0.493165 0.000489606
0.498973 0.000485751
0.50478 0.000481896
0.510694 0.000484249
0.516608 0.000486602
0.52263 0.000509803
0.528653 0.000533004
0.534786 0.00063163
0.540918 0.000730257
0.547164 0.000917621
0.553409 0.00110498
0.559769 0.00121732
0.566129 0.00132966
0.572605 0.00127963
0.579082 0.00122961
0.585677 0.00112378
0.592272 0.00101796
0.598989 0.000937018
0.605705 0.000856076
0.612544 0.000799592
0.619384 0.000743108
0.626349 0.000704977
0.633314 0.000666846
0.640406 0.000657604
0.647499 0.000648361
0.654722 0.000657071
0.661944 0.00066578
0.669299 0.000674578
0.676655 0.000683376
0.684145 0.000684846
0.691635 0.000686317
0.699262 0.000673952
0.70689 0.000661586
0.714657 0.000632843
0.722424 0.0006041
0.730334 0.000573787
0.738244 0.000543473
0.746299 0.000535743
0.754354 0.000528013
0.762556 0.000554964
0.770759 0.000581915
0.779112 0.000701402
0.787465 0.000820888
0.795971 0.00125925
0.804478 0.00169761
0.81314 0.00265311
0.821802 0.00360862
0.830623 0.00481521
0.839445 0.00602181
0.848428 0.00620774
0.857411 0.00639368
0.866558 0.00582322
0.875706 0.00525275
0.885021 0.00495004
0.894337 0.00464733
0.903823 0.00444123
0.91331 0.00423513
0.92297 0.00400712
0.93263 0.0037791
0.942468 0.00350288
0.952305 0.00322665
0.962323 0.00306392
0.972341 0.00290119
0.982543 0.00298664
0.992745 0.00307208
1.00313 0.00323093
1.01352 0.00338977
1.0241 0.00351076
1.03468 0.00363175
1.04545 0.00364299
1.05623 0.00365422
1.0672 0.0036349
1.07817 0.00361558
1.08934 0.00370453
1.10051 0.00379348
1.11189 0.00395955
1.12327 0.00412563
1.13485 0.00394947
1.14644 0.00377332
1.15824 0.00336888
1.17004 0.00296444
1.18205 0.0029568
1.19407 0.00294915
1.2063 0.0031903
1.21854 0.00343144
1.23099 0.00342584
1.24345 0.00342024
1.25614 0.00316582
1.26883 0.00291139
1.28175 0.00253368
1.29467 0.00215596
1.30783 0.00168899
1.32099 0.00122203
1.33439 0.000876972
1.34778 0.000531914
1.36143 0.000388952
1.37507 0.00024599
1.38897 0.000195789
1.40286 0.000145587
1.41701 0.000125934
1.43116 0.000106281
1.44557 9.75333e-05
1.45998 8.87857e-05
1.47466 8.52621e-05
1.48933 8.17386e-05
1.50427 8.04488e-05
1.51921 7.9159e-05
1.53443 7.87463e-05
1.54965 7.83335e-05
1.56514 7.83487e-05
1.58064 7.83639e-05
1.59642 7.89196e-05
1.6122 7.94753e-05
1.62827 8.08209e-05
1.64434 8.21664e-05
1.6607 8.40929e-05
1.67707 8.60194e-05
1.69373 8.79306e-05
1.7104 8.98419e-05
1.72737 9.14481e-05
1.74434 9.30542e-05
1.76162 9.47119e-05
1.7789 9.63695e-05
1.7965 9.85214e-05
1.81409 0.000100673
1.83202 0.000103152
1.84994 0.000105631
1.86819 0.00010802
1.88644 0.000110409
1.90502 0.000112745
1.9236 0.000115082
1.94253 0.000117587
1.96146 0.000120092
1.98073 0.00012306
2 0.000126028
