0 1e-10
0.00128482 0.00206416
0.00256965 0.00412831
0.00387803 0.00487845
0.00518642 0.00562858
0.00651881 0.00615352
0.00785119 0.00667846
0.00920802 0.00689981
0.0105648 0.00712115
0.0119465 0.00700501
0.0133283 0.00688887
0.0147353 0.0065158
0.0161424 0.00614272
0.0175752 0.00563438
0.0190081 0.00512603
0.0204672 0.00459406
0.0219263 0.00406208
0.0234122 0.00360725
0.0248981 0.00315242
0.0264113 0.00281078
0.0279244 0.00246914
0.0294653 0.00223421
0.0310063 0.00199929
0.0325754 0.0018441
0.0341446 0.00168891
0.0357425 0.00158425
0.0373405 0.0014796
0.0389677 0.00144249
0.040595 0.00140538
0.0422521 0.00148625
0.0439092 0.00156713
0.0455967 0.00184673
0.0472842 0.00212633
0.0490026 0.00261125
0.0507211 0.00309618
0.052471 0.00362192
0.054221 0.00414766
0.056003 0.00448657
0.0577851 0.00482548
0.0595998 0.00484837
0.0614146 0.00487125
0.0632626 0.00457066
0.0651106 0.00427007
0.0669925 0.00372643
0.0688745 0.0031828
0.0707909 0.0026733
0.0727073 0.00216381
0.0746589 0.00188248
0.0766105 0.00160115
0.0785979 0.00151161
0.0805853 0.00142207
0.0826091 0.00152621
0.0846329 0.00163034
0.0866939 0.00199939
0.0887548 0.00236844
0.0908536 0.00309023
0.0929523 0.00381202
0.0950896 0.00476129
0.0972268 0.00571056
0.0994033 0.00642559
0.10158 0.00714062
0.103796 0.0072921
0.106012 0.00744358
0.108269 0.00705792
0.110526 0.00667226
0.112825 0.00611584
0.115123 0.00555942
0.117464 0.00514514
0.119804 0.00473086
0.122188 0.00448788
0.124571 0.00424489
0.126999 0.00417009
0.129426 0.0040953
0.131897 0.00410721
0.134369 0.00411912
0.136886 0.00413203
0.139403 0.00414494
0.141967 0.00411743
0.14453 0.00408992
0.14975 0.00396861
0.155066 0.00387122
0.16048 0.0038347
0.165993 0.00384304
0.171607 0.00389135
0.177324 0.00394092
0.183146 0.00397775
0.189075 0.00405496
0.195113 0.00417499
0.201261 0.00435189
0.207522 0.00458376
0.213898 0.00492028
0.22039 0.0052641
0.220635 0.0052747
0.223819 0.00541248
0.227002 0.00555026
0.230244 0.00562171
0.233486 0.00569316
0.233611 0.00569591
0.233735 0.00569866
0.240592 0.00542007
0.247574 0.00474761
0.254685 0.00404719
0.261925 0.00368516
0.269299 0.00373922
0.276808 0.00418668
0.284454 0.00505258
0.292241 0.0061011
0.300171 0.0068427
0.308246 0.00697327
0.316469 0.0064072
0.324843 0.00523976
0.333371 0.00395611
0.342055 0.00293263
0.350898 0.00219115
0.359903 0.00179871
0.364489 0.00175705
0.369074 0.00171538
0.378413 0.00179133
0.387923 0.00197658
0.397608 0.00220389
0.40747 0.00236635
0.417513 0.00245136
0.42774 0.00252441
0.438155 0.00256733
0.448761 0.00242512
0.459561 0.0020523
0.47056 0.00165744
0.48176 0.00142474
0.493165 0.0013408
0.50478 0.00134207
0.516608 0.00138238
0.528653 0.00141158
0.540918 0.00141184
0.553409 0.0013672
0.566129 0.00129079
0.579082 0.00122691
0.592272 0.00119122
0.605705 0.00118339
0.619384 0.00119423
0.633314 0.00121091
0.647499 0.00122004
0.661944 0.00121987
0.676655 0.0012174
0.691635 0.00121666
0.70689 0.0012094
0.722424 0.0011907
0.738244 0.00114509
0.754354 0.00107531
0.770759 0.00106432
0.787465 0.00125027
0.804478 0.00197078
0.821802 0.00315126
0.830623 0.00368843
0.839445 0.00422561
0.857411 0.00500704
0.875706 0.00553724
0.894337 0.00584147
0.91331 0.00565109
0.93263 0.00520935
0.952305 0.00475092
0.972341 0.00384307
0.992745 0.002881
1.01352 0.00248904
1.03468 0.00254255
1.05623 0.00279284
1.07817 0.00302494
1.08934 0.00304268
1.10051 0.00306041
1.12327 0.00287012
1.14644 0.00257852
1.17004 0.002505
1.19407 0.0028718
1.21854 0.00430346
1.24345 0.00534003
1.25614 0.0048532
1.26883 0.00436637
1.29467 0.00342154
1.32099 0.00341026
1.33439 0.00332923
1.34778 0.0032482
1.36143 0.00281041
1.37507 0.00237263
1.40286 0.00114169
1.43116 0.000413557
1.45998 0.00019186
1.48933 0.000117563
1.51921 9.07187e-05
1.54965 8.11933e-05
1.58064 7.82991e-05
1.6122 7.78428e-05
1.64434 7.87947e-05
1.67707 8.08615e-05
1.69373 8.18473e-05
1.7104 8.2833e-05
1.72737 8.38084e-05
1.74434 8.47838e-05
1.7789 8.73105e-05
1.81409 8.9796e-05
1.83202 9.11005e-05
1.84994 9.24051e-05
1.88644 9.53587e-05
1.9236 9.83238e-05
1.96146 0.000101378
2 0.000103341
