0 1e-10
0.00128482 0.00573443
0.00256965 0.0114689
0.00387803 0.00966665
0.00518642 0.00786444
0.00651881 0.0066813
0.00785119 0.00549815
0.00920802 0.00483079
0.0105648 0.00416342
0.0119465 0.0038166
0.0133283 0.00346978
0.0147353 0.00323942
0.0161424 0.00300906
0.0175752 0.00278401
0.0190081 0.00255896
0.0204672 0.0023216
0.0219263 0.00208425
0.0234122 0.0018629
0.0248981 0.00164156
0.0264113 0.00146638
0.0279244 0.0012912
0.0294653 0.00117304
0.0310063 0.00105487
0.0325754 0.000988992
0.0341446 0.00092311
0.0357425 0.000894787
0.0373405 0.000866463
0.0389677 0.000864393
0.040595 0.000862324
0.0422521 0.000879147
0.0439092 0.000895969
0.0455967 0.000923188
0.0472842 0.000950406
0.0490026 0.000977321
0.0507211 0.00100424
0.052471 0.00103053
0.054221 0.00105683
0.056003 0.00110112
0.0577851 0.0011454
0.0595998 0.0012323
0.0614146 0.0013192
0.0632626 0.00147089
0.0651106 0.00162259
0.0669925 0.00184679
0.0688745 0.00207099
0.0707909 0.00236378
0.0727073 0.00265658
0.0746589 0.00302066
0.0766105 0.00338475
0.0785979 0.00379788
0.0805853 0.004211
0.0826091 0.00459975
0.0846329 0.0049885
0.0866939 0.00528034
0.0887548 0.00557218
0.0908536 0.00573748
0.0929523 0.00590279
0.0950896 0.00593262
0.0972268 0.00596246
0.0994033 0.00585369
0.10158 0.00574492
0.103796 0.00551022
0.106012 0.00527552
0.108269 0.0049678
0.110526 0.00466007
0.112825 0.00435333
0.115123 0.00404659
0.117464 0.00377822
0.119804 0.00350986
0.122188 0.00328864
0.124571 0.00306741
0.126999 0.00289374
0.129426 0.00272006
0.131897 0.00258348
0.134369 0.00244689
0.136886 0.00232881
0.139403 0.00221073
0.141967 0.00209679
0.14453 0.00198285
0.14714 0.00187333
0.14975 0.00176381
0.152408 0.00167005
0.155066 0.00157629
0.157773 0.00149686
0.16048 0.00141743
0.163237 0.00134363
0.165993 0.00126983
0.1688 0.00120687
0.171607 0.00114392
0.174466 0.00109704
0.177324 0.00105017
0.180235 0.0010112
0.183146 0.000972225
0.186111 0.000931434
0.189075 0.000890642
0.192094 0.000847145
0.195113 0.000803648
0.198187 0.000762469
0.201261 0.000721289
0.204391 0.000685609
0.207522 0.000649929
0.21071 0.000616009
0.213898 0.00058209
0.217144 0.000552077
0.22039 0.000522063
0.223696 0.000503137
0.227002 0.000484211
0.230369 0.000475053
0.233735 0.000465895
0.237164 0.000460166
0.240592 0.000454438
0.244083 0.000450521
0.247574 0.000446605
0.251129 0.000445359
0.254685 0.000444113
0.258305 0.000445978
0.261925 0.000447844
0.265612 0.000454784
0.269299 0.000461725
0.273053 0.000476254
0.276808 0.000490783
0.280631 0.000509828
0.284454 0.000528874
0.288348 0.000543815
0.292241 0.000558755
0.296206 0.000562837
0.300171 0.000566918
0.304208 0.00055897
0.308246 0.000551022
0.312358 0.000532475
0.316469 0.000513928
0.320656 0.000492179
0.324843 0.00047043
0.329107 0.00045531
0.333371 0.000440191
0.337713 0.000433066
0.342055 0.000425941
0.346476 0.000424084
0.350898 0.000422227
0.355401 0.000421579
0.359903 0.000420931
0.364489 0.000415573
0.369074 0.000410215
0.373744 0.000394793
0.378413 0.000379372
0.383168 0.000363036
0.387923 0.000346701
0.392765 0.000341376
0.397608 0.000336051
0.402539 0.000344315
0.40747 0.000352578
0.417513 0.000388334
0.42774 0.000396209
0.438155 0.000333791
0.448761 0.000208156
0.459561 0.000103525
0.46506 8.26262e-05
0.47056 6.17279e-05
0.47616 5.45355e-05
0.48176 4.73432e-05
0.487463 4.49383e-05
0.493165 4.25334e-05
0.498973 4.17121e-05
0.50478 4.08907e-05
0.510694 4.06089e-05
0.516608 4.0327e-05
0.52263 4.02717e-05
0.528653 4.02163e-05
0.534786 4.02859e-05
0.540918 4.03555e-05
0.547164 4.05031e-05
0.553409 4.06507e-05
0.559769 4.08331e-05
0.566129 4.10154e-05
0.572605 4.12156e-05
0.579082 4.14158e-05
0.585677 4.16304e-05
0.592272 4.18451e-05
0.598989 4.20723e-05
0.605705 4.22995e-05
0.612544 4.25375e-05
0.619384 4.27756e-05
0.626349 4.30214e-05
0.633314 4.32673e-05
0.640406 4.35203e-05
0.647499 4.37732e-05
0.654722 4.40299e-05
0.661944 4.42866e-05
0.669299 4.45452e-05
0.676655 4.48038e-05
0.684145 4.50646e-05
0.691635 4.53255e-05
0.699262 4.55857e-05
0.70689 4.58459e-05
0.722424 4.63618e-05
0.738244 4.68768e-05
0.754354 4.73931e-05
0.770759 4.79117e-05
0.787465 4.84342e-05
0.804478 4.89588e-05
0.821802 4.94837e-05
0.830623 4.9746e-05
0.839445 5.00083e-05
0.848428 5.02696e-05
0.857411 5.05309e-05
0.866558 5.07901e-05
0.875706 5.10493e-05
0.885021 5.13062e-05
0.894337 5.15631e-05
0.903823 5.18155e-05
0.91331 5.20678e-05
0.92297 5.23155e-05
0.93263 5.25631e-05
0.952305 5.3055e-05
0.972341 5.35477e-05
0.992745 5.40418e-05
1.01352 5.45373e-05
1.03468 5.50362e-05
1.05623 5.5543e-05
1.07817 5.60639e-05
1.10051 5.66054e-05
1.12327 5.71709e-05
1.14644 5.77544e-05
1.17004 5.83415e-05
1.19407 5.8925e-05
1.21854 5.94982e-05
1.24345 6.00622e-05
1.26883 6.06217e-05
1.29467 6.11904e-05
1.32099 6.18063e-05
1.34778 6.24775e-05
1.37507 6.31341e-05
1.40286 6.37597e-05
1.43116 6.44138e-05
1.45998 6.50914e-05
1.48933 6.57772e-05
1.51921 6.64675e-05
1.54965 6.71734e-05
1.58064 6.79067e-05
1.6122 6.86799e-05
1.64434 6.94454e-05
1.67707 7.00732e-05
1.7104 7.05053e-05
1.74434 7.0811e-05
1.7789 7.10917e-05
1.81409 7.14402e-05
1.84994 7.19184e-05
1.88644 7.25353e-05
1.9236 7.32253e-05
1.96146 7.39999e-05
2 7.28171e-05
