0 	0.000283985 	0 	0.326302
0.00387637 	0.00117803 	9.42895e-06 	0.326333
0.00775273 	0.00207207 	1.88579e-05 	0.326365
0.0119386 	0.00336437 	3.78677e-05 	0.326386
0.0161245 	0.00465667 	5.68775e-05 	0.326406
0.0206446 	0.00484262 	7.9869e-05 	0.326291
0.0251646 	0.00502858 	0.000102861 	0.326175
0.0300456 	0.00464908 	0.000145279 	0.325876
0.0349265 	0.00426958 	0.000187697 	0.325577
0.0401972 	0.00404399 	0.000275989 	0.325149
0.0454678 	0.00381839 	0.00036428 	0.324722
0.0511593 	0.00374735 	0.000541955 	0.324222
0.0568507 	0.00367632 	0.000719629 	0.323722
0.0629966 	0.00366738 	0.000968107 	0.32317
0.0691424 	0.00365844 	0.00121658 	0.322619
0.075779 	0.00367203 	0.00143534 	0.322017
0.0824156 	0.00368561 	0.0016541 	0.321416
0.089582 	0.00370698 	0.00179909 	0.320765
0.0967484 	0.00372836 	0.00194408 	0.320114
0.104487 	0.00375148 	0.00203806 	0.319417
0.112226 	0.00377459 	0.00213205 	0.318721
0.120583 	0.00379635 	0.00219841 	0.317982
0.128939 	0.00381812 	0.00226478 	0.317243
0.137963 	0.00383686 	0.00231422 	0.31646
0.146986 	0.0038556 	0.00236365 	0.315678
0.146986 	0.0038556 	0.00236365 	0.315678
0.15673 	0.00387065 	0.00240138 	0.314848
0.15673 	0.00387065 	0.00240138 	0.314848
0.166474 	0.0038857 	0.00243911 	0.314019
0.166474 	0.0038857 	0.00243911 	0.314019
0.176996 	0.00389709 	0.00246828 	0.313139
0.176996 	0.00389709 	0.00246828 	0.313139
0.187518 	0.00390847 	0.00249745 	0.312258
0.187518 	0.00390847 	0.00249745 	0.312258
0.19888 	0.0039166 	0.00252017 	0.311321
0.198881 	0.0039166 	0.00252017 	0.311321
0.210243 	0.00392473 	0.0025429 	0.310384
0.210243 	0.00392473 	0.0025429 	0.310384
0.222512 	0.00393021 	0.00256068 	0.309383
0.222512 	0.00393021 	0.00256068 	0.309383
0.234781 	0.00393569 	0.00257846 	0.308382
0.234781 	0.00393569 	0.00257846 	0.308382
0.234781 	0.00393569 	0.00257846 	0.308382
0.24803 	0.00393906 	0.00259232 	0.307307
0.24803 	0.00393906 	0.00259232 	0.307307
0.261279 	0.00394242 	0.00260617 	0.306231
0.261279 	0.00394242 	0.00260617 	0.306231
0.275586 	0.00394406 	0.00261677 	0.30507
0.275586 	0.00394406 	0.00261677 	0.30507
0.289893 	0.0039457 	0.00262736 	0.303908
0.289893 	0.0039457 	0.00262736 	0.303908
0.305342 	0.00394628 	0.00263538 	0.302644
0.305342 	0.00394628 	0.00263538 	0.302644
0.320791 	0.00394685 	0.00264339 	0.30138
0.320791 	0.00394685 	0.00264339 	0.30138
0.337473 	0.00394707 	0.00264958 	0.299993
0.337473 	0.00394707 	0.00264958 	0.299993
0.354155 	0.00394728 	0.00265577 	0.298606
0.354155 	0.00394728 	0.00265577 	0.298606
0.372169 	0.00394742 	0.00266075 	0.297071
0.372169 	0.00394742 	0.00266075 	0.297071
0.390184 	0.00394756 	0.00266573 	0.295537
0.390184 	0.00394756 	0.00266573 	0.295537
0.409637 	0.00394767 	0.00267014 	0.293822
0.409637 	0.00394767 	0.00267014 	0.293822
0.42909 	0.00394778 	0.00267456 	0.292107
0.42909 	0.00394778 	0.00267456 	0.292107
0.450095 	0.00394782 	0.00267918 	0.290171
0.450095 	0.00394782 	0.00267918 	0.290171
0.471101 	0.00394787 	0.00268381 	0.288236
0.471101 	0.00394787 	0.00268381 	0.288236
0.493784 	0.00394778 	0.00268954 	0.286032
0.493784 	0.00394778 	0.00268954 	0.286032
0.516467 	0.00394769 	0.00269527 	0.283827
0.516467 	0.00394769 	0.00269527 	0.283827
0.540961 	0.00394742 	0.00270314 	0.281296
0.540961 	0.00394742 	0.00270314 	0.281296
0.565455 	0.00394715 	0.00271102 	0.278764
0.565455 	0.00394715 	0.00271102 	0.278764
0.591904 	0.00394664 	0.00272223 	0.275837
0.591905 	0.00394664 	0.00272223 	0.275837
0.618354 	0.00394613 	0.00273344 	0.27291
0.618354 	0.00394613 	0.00273344 	0.27291
0.646915 	0.00394533 	0.00274935 	0.269514
0.675477 	0.00394452 	0.00276527 	0.266117
0.706319 	0.00394334 	0.00278752 	0.262169
0.73716 	0.00394217 	0.00280977 	0.258221
0.770464 	0.00394058 	0.00284035 	0.253641
0.803768 	0.00393898 	0.00287092 	0.249062
0.839732 	0.00393692 	0.00291228 	0.243776
0.875695 	0.00393485 	0.00295365 	0.23849
0.914529 	0.00393221 	0.00300887 	0.232442
0.953363 	0.00392957 	0.00306409 	0.226394
0.995297 	0.00392604 	0.00313621 	0.219563
1.03723 	0.00392252 	0.00320833 	0.212732
1.08251 	0.0039181 	0.00328891 	0.205147
1.1278 	0.00391368 	0.0033695 	0.197561
1.1767 	0.00390849 	0.00346903 	0.189299
1.2256 	0.0039033 	0.00356856 	0.181037
1.2784 	0.0038972 	0.00371273 	0.17222
1.3312 	0.00389111 	0.0038569 	0.163403
1.3312 	0.00389111 	0.0038569 	0.163403
1.3312 	0.00389111 	0.0038569 	0.163403
1.38822 	0.00388408 	0.00406686 	0.154228
1.38822 	0.00388408 	0.00406686 	0.154228
1.44524 	0.00387704 	0.00427682 	0.145052
1.44524 	0.00387704 	0.00427682 	0.145052
1.50681 	0.00386949 	0.00458815 	0.135925
1.50681 	0.00386949 	0.00458815 	0.135925
1.56838 	0.00386194 	0.00489948 	0.126798
1.56838 	0.00386194 	0.00489948 	0.126798
1.63486 	0.00385464 	0.00522984 	0.118231
1.63487 	0.00385464 	0.00522984 	0.118231
1.70135 	0.00384734 	0.00556021 	0.109663
1.70135 	0.00384734 	0.00556021 	0.109663
1.77315 	0.0038387 	0.00638926 	0.101597
1.77315 	0.0038387 	0.00638926 	0.101597
1.84495 	0.00383005 	0.00721832 	0.0935314
1.84495 	0.00383005 	0.00721832 	0.0935314
1.92247 	0.00382495 	0.00767398 	0.0877536
1.92247 	0.00382495 	0.00767398 	0.0877536
2 	0.00381986 	0.00812965 	0.0819757
2 	0.00381986 	0.00812965 	0.0819757
