0 	0 	0 	0
0.00387636 	0.0988307 	-0.000356369 	-0.00203518
0.00775273 	0.189926 	-0.00073958 	-0.00421465
0.0104322 	0.224274 	-0.0012136 	-0.00463502
0.0131117 	0.25382 	-0.00173676 	-0.00508919
0.0146181 	0.270431 	-0.00203088 	-0.00534452
0.0161245 	0.287042 	-0.00232499 	-0.00559985
0.0181582 	0.297439 	-0.00269528 	-0.00564373
0.0201919 	0.305488 	-0.00310755 	-0.00568512
0.0226783 	0.315329 	-0.00361157 	-0.00573574
0.0251646 	0.325169 	-0.0041156 	-0.00578635
0.0300455 	0.335475 	-0.0050675 	-0.0057436
0.0349265 	0.344699 	-0.00606218 	-0.00569565
0.0401971 	0.351641 	-0.0071182 	-0.00561257
0.0454678 	0.358008 	-0.00822302 	-0.00552334
0.0511592 	0.363552 	-0.00937449 	-0.00542059
0.0568507 	0.368751 	-0.0105791 	-0.00531058
0.0629965 	0.373662 	-0.011817 	-0.00519341
0.0691424 	0.378347 	-0.0131113 	-0.00506783
0.075779 	0.382995 	-0.0144325 	-0.0049374
0.0824156 	0.38749 	-0.0158133 	-0.00479732
0.089582 	0.392091 	-0.0172174 	-0.00465332
0.0967484 	0.396589 	-0.0186844 	-0.00449836
0.104487 	0.401294 	-0.0201712 	-0.00433987
0.112226 	0.405934 	-0.0217238 	-0.00416897
0.117575 	0.409098 	-0.0227027 	-0.0040625
0.122924 	0.41223 	-0.0237504 	-0.00394206
0.125932 	0.413991 	-0.0243394 	-0.00387435
0.128939 	0.415752 	-0.0249284 	-0.00380663
0.132999 	0.418114 	-0.0256299 	-0.00372936
0.137059 	0.420474 	-0.0264026 	-0.00363636
0.142022 	0.42336 	-0.0273472 	-0.00352266
0.146986 	0.426246 	-0.0282919 	-0.00340897
0.15673 	0.431912 	-0.0300113 	-0.00320036
0.166474 	0.437607 	-0.0318038 	-0.00297413
0.176996 	0.443783 	-0.0335888 	-0.00274754
0.187518 	0.450018 	-0.035448 	-0.00250141
0.195815 	0.454939 	-0.036771 	-0.00232895
0.204111 	0.459952 	-0.0381683 	-0.00213513
0.207177 	0.461804 	-0.0386846 	-0.00206351
0.210243 	0.463657 	-0.039201 	-0.00199189
0.216868 	0.467625 	-0.0401812 	-0.00186248
0.223493 	0.471719 	-0.0412346 	-0.00171015
0.229137 	0.475206 	-0.0421321 	-0.00158037
0.234781 	0.478694 	-0.0430295 	-0.0014506
0.261279 	0.495282 	-0.0468912 	-0.000885862
0.271582 	0.501726 	-0.048232 	-0.000693604
0.281886 	0.508368 	-0.0496397 	-0.000475759
0.285889 	0.51095 	-0.0501867 	-0.000391111
0.289893 	0.513531 	-0.0507337 	-0.000306463
0.305342 	0.523395 	-0.0525846 	-2.85142e-05
0.320791 	0.533492 	-0.0544977 	0.00027551
0.337473 	0.544192 	-0.0562801 	0.000545721
0.354155 	0.555158 	-0.0581203 	0.000840691
0.372169 	0.566669 	-0.0598016 	0.00109105
0.390184 	0.578479 	-0.061538 	0.0013625
0.409637 	0.590756 	-0.0630852 	0.00157906
0.42909 	0.60337 	-0.0646871 	0.00181078
0.450096 	0.616366 	-0.0660683 	0.00197947
0.471101 	0.629746 	-0.0675064 	0.00215561
0.475296 	0.632128 	-0.0677051 	0.00217602
0.479491 	0.634523 	-0.0679055 	0.00219641
0.497979 	0.646043 	-0.0689221 	0.00228353
0.516467 	0.657562 	-0.0699387 	0.00237066
0.537534 	0.669852 	-0.0707564 	0.0024056
0.558601 	0.682691 	-0.0716442 	0.00243055
0.562028 	0.68478 	-0.0717886 	0.00243461
0.565455 	0.686869 	-0.071933 	0.00243866
0.570304 	0.689416 	-0.0720378 	0.00243874
0.575153 	0.691976 	-0.0721441 	0.00243851
0.596754 	0.704898 	-0.0727926 	0.00239892
0.618354 	0.717819 	-0.0734412 	0.00235933
0.618354 	0.717819 	-0.0734412 	0.00235933
0.632635 	0.725358 	-0.0736163 	0.00232546
0.646915 	0.733783 	-0.0738819 	0.00226873
0.652113 	0.736849 	-0.0739786 	0.00224809
0.652113 	0.736849 	-0.0739786 	0.00224809
0.654684 	0.738366 	-0.0740264 	0.00223788
0.657254 	0.739882 	-0.0740742 	0.00222767
0.663795 	0.743741 	-0.0741958 	0.00220168
0.675477 	0.750633 	-0.074413 	0.00215528
0.675477 	0.750633 	-0.074413 	0.00215528
0.681645 	0.753609 	-0.074406 	0.00213815
0.687814 	0.756709 	-0.0744098 	0.00211825
0.712487 	0.771098 	-0.0745992 	0.00199394
0.73716 	0.785486 	-0.0747887 	0.00186963
0.770464 	0.803229 	-0.0745898 	0.00172411
0.803768 	0.822333 	-0.0744884 	0.00155369
0.839731 	0.840732 	-0.0739061 	0.00141631
0.875695 	0.860708 	-0.0734055 	0.00125645
0.914529 	0.879216 	-0.0723944 	0.00114641
0.953363 	0.899394 	-0.0714336 	0.00101855
0.995297 	0.917179 	-0.0699786 	0.000947518
1.03723 	0.936564 	-0.0685328 	0.000865072
1.08251 	0.952797 	-0.0666589 	0.000834685
1.1278 	0.970444 	-0.0647481 	0.000800118
1.1767 	0.984556 	-0.0625136 	0.000800301
1.2256 	0.999836 	-0.0601986 	0.000802723
1.2784 	1.01157 	-0.0576834 	0.000813467
1.3312 	1.02424 	-0.055051 	0.000830291
1.38822 	1.03346 	-0.0523448 	0.000829413
1.44524 	1.04345 	-0.0494915 	0.000834996
1.50681 	1.05003 	-0.0466941 	0.000808829
1.56838 	1.05723 	-0.0437274 	0.000786689
1.63487 	1.06111 	-0.0409498 	0.000738638
1.70135 	1.06545 	-0.03799 	0.000691522
1.77315 	1.0668 	-0.0353676 	0.000638282
1.84495 	1.06844 	-0.0325658 	0.000584343
1.92247 	1.06793 	-0.0303857 	0.000543263
2 	1.06754 	-0.0280528 	0.000501666
2 	1.06754 	-0.0280528 	0.000501666
2.00979 	1.0673 	-0.0277971 	0.000496789
2.01957 	1.06706 	-0.0275413 	0.000491912
