1 	0 	0 	0
1.00194 	0.074344 	0.347172 	-0.000220714
1.00388 	0.148688 	0.694345 	-0.000441428
1.00597 	0.142293 	0.654994 	-0.000475915
1.00806 	0.13423 	0.614258 	-0.000503242
1.01032 	0.153854 	0.606582 	-0.000500002
1.01258 	0.165558 	0.588163 	-0.000486394
1.01502 	0.192565 	0.602132 	-0.000466733
1.01746 	0.202657 	0.598407 	-0.000449649
1.0201 	0.231288 	0.610839 	-0.000418913
1.02273 	0.241091 	0.603894 	-0.000398237
1.02558 	0.27225 	0.615914 	-0.000364006
1.02843 	0.283264 	0.603856 	-0.000339328
1.02843 	0.283264 	0.603856 	-0.000339328
1.0315 	0.315668 	0.61831 	-0.000310733
1.03457 	0.332052 	0.612043 	-0.000284087
1.03789 	0.364519 	0.627671 	-0.000263793
1.04121 	0.387209 	0.629005 	-0.000240285
1.04479 	0.419407 	0.643637 	-0.000227549
1.04837 	0.447559 	0.651298 	-0.000211287
1.05196 	0.476404 	0.663763 	-0.000205762
1.05555 	0.505249 	0.676228 	-0.000200236
1.05583 	0.506316 	0.676648 	-0.000199366
1.05611 	0.507384 	0.677068 	-0.000198496
1.06029 	0.520985 	0.679524 	-0.00018583
1.06447 	0.53404 	0.681621 	-0.000173662
1.06898 	0.554743 	0.685338 	-0.000160135
1.07349 	0.567339 	0.68198 	-0.000145394
1.07836 	0.595286 	0.690675 	-0.000141005
1.08324 	0.608855 	0.684648 	-0.000123605
1.08324 	0.608855 	0.684648 	-0.000123605
1.0885 	0.641138 	0.699002 	-0.00013959
1.0885 	0.641138 	0.699002 	-0.00013959
1.09376 	0.655428 	0.69197 	-0.000122587
1.09376 	0.655428 	0.69197 	-0.000122587
1.09944 	0.684604 	0.702952 	-0.000146195
1.10512 	0.704779 	0.700926 	-0.000144649
1.11125 	0.730949 	0.707544 	-0.000168044
1.11739 	0.754643 	0.70981 	-0.000180909
1.1212 	0.768302 	0.711438 	-0.000191228
1.125 	0.781962 	0.713067 	-0.000201547
1.12782 	0.788912 	0.711639 	-0.000200475
1.13064 	0.795862 	0.710212 	-0.000199403
1.1378 	0.814776 	0.706978 	-0.000202895
1.14495 	0.830853 	0.700685 	-0.000196544
1.15267 	0.853749 	0.700587 	-0.00022011
1.1604 	0.868886 	0.69085 	-0.000211713
1.16874 	0.89283 	0.692293 	-0.000244226
1.17708 	0.906455 	0.680995 	-0.00023713
1.18608 	0.927265 	0.67835 	-0.00025513
1.19509 	0.944243 	0.67064 	-0.0002607
1.20469 	0.96136 	0.664294 	-0.00026821
1.21428 	0.978478 	0.657948 	-0.000275719
1.21441 	0.978661 	0.657814 	-0.000275708
1.21454 	0.978844 	0.657681 	-0.000275697
1.22504 	0.989745 	0.644642 	-0.000275399
1.23555 	1.00059 	0.631542 	-0.000274895
1.24689 	1.01283 	0.619982 	-0.000284398
1.25823 	1.02149 	0.604331 	-0.000285871
1.27048 	1.03289 	0.593437 	-0.000296587
1.28273 	1.03896 	0.576079 	-0.00030064
1.29595 	1.04617 	0.562332 	-0.000311098
1.30918 	1.05225 	0.546659 	-0.000319104
1.32126 	1.0553 	0.533015 	-0.00032866
1.33334 	1.05835 	0.519372 	-0.000338216
1.33554 	1.05871 	0.516538 	-0.000339926
1.33774 	1.05907 	0.513704 	-0.000341637
1.33774 	1.05907 	0.513704 	-0.000341637
1.33774 	1.05907 	0.513704 	-0.000341637
1.35316 	1.06051 	0.495116 	-0.000353684
1.35316 	1.06051 	0.495116 	-0.000353684
1.36858 	1.06185 	0.476281 	-0.000365216
1.36858 	1.06185 	0.476281 	-0.000365216
1.38523 	1.06266 	0.459071 	-0.000379698
1.38523 	1.06266 	0.459071 	-0.000379698
1.40188 	1.06499 	0.44157 	-0.000388059
1.40188 	1.06499 	0.44157 	-0.000388059
1.41986 	1.06448 	0.424744 	-0.000403901
1.41987 	1.06448 	0.424744 	-0.000403901
1.43785 	1.06764 	0.40862 	-0.000409243
1.43785 	1.06764 	0.40862 	-0.000409243
1.45727 	1.06837 	0.392892 	-0.000420203
1.45727 	1.06837 	0.392892 	-0.000420203
1.47668 	1.07025 	0.377456 	-0.000427936
1.47668 	1.07025 	0.377456 	-0.000427936
1.48834 	1.07124 	0.369478 	-0.000431457
1.48834 	1.07124 	0.369478 	-0.000431457
1.5 	1.07224 	0.361501 	-0.000434978
1.5 	1.07224 	0.361501 	-0.000434978
1.50931 	1.07293 	0.354615 	-0.00043766
1.50931 	1.07293 	0.354615 	-0.00043766
1.51862 	1.07361 	0.34773 	-0.000440343
1.51862 	1.07361 	0.34773 	-0.000440343
1.54126 	1.07495 	0.33331 	-0.000445245
1.54126 	1.07495 	0.33331 	-0.000445245
1.5639 	1.07682 	0.318925 	-0.000448385
1.5639 	1.07682 	0.318925 	-0.000448385
1.58835 	1.0772 	0.305135 	-0.00045341
1.58835 	1.0772 	0.305135 	-0.00045341
1.6128 	1.07901 	0.29144 	-0.000453947
1.6128 	1.07901 	0.29144 	-0.000453947
1.6392 	1.07884 	0.278345 	-0.00045741
1.6392 	1.07884 	0.278345 	-0.00045741
1.6656 	1.08009 	0.265428 	-0.000457208
1.6656 	1.08009 	0.265428 	-0.000457208
1.69411 	1.07981 	0.253268 	-0.000457841
1.69411 	1.07981 	0.253268 	-0.000457841
1.72262 	1.07999 	0.241175 	-0.00045756
1.72262 	1.07999 	0.241175 	-0.00045756
1.73631 	1.07984 	0.236144 	-0.000456642
1.73631 	1.07984 	0.236144 	-0.000456642
1.74999 	1.0797 	0.231113 	-0.000455724
1.74999 	1.0797 	0.231113 	-0.000455724
1.76709 	1.07942 	0.224425 	-0.000454637
1.78419 	1.07914 	0.217736 	-0.00045355
1.81744 	1.07831 	0.206455 	-0.000449839
1.85068 	1.07791 	0.195222 	-0.000445335
1.88658 	1.07631 	0.185325 	-0.000441371
1.92247 	1.07586 	0.175408 	-0.000436161
1.96123 	1.07429 	0.164507 	-0.00043085
2 	1.0741 	0.153433 	-0.000425183
2 	1.0741 	0.153433 	-0.000425183
2.02717 	1.07295 	0.147615 	-0.000419601
2.05434 	1.0718 	0.141796 	-0.000414018
