0 	0 	0 	0
0.00290727 	-0.0178279 	-0.000281901 	-0.0044492
0.00581455 	-0.0506746 	0.00171094 	-0.00617715
0.00895392 	-0.0718453 	0.00435266 	-0.00737545
0.0120933 	-0.109429 	0.00964595 	-0.00736279
0.0154834 	-0.125554 	0.014449 	-0.00675644
0.0188734 	-0.147491 	0.0209737 	-0.0064799
0.0225341 	-0.156682 	0.0262762 	-0.00574325
0.0261948 	-0.165574 	0.0321861 	-0.00553879
0.0301478 	-0.169424 	0.0376569 	-0.00495472
0.0341008 	-0.17086 	0.0429997 	-0.00484423
0.0383694 	-0.170926 	0.0484679 	-0.0044149
0.042638 	-0.167968 	0.0533256 	-0.00436369
0.0472474 	-0.165202 	0.0585543 	-0.00405005
0.0518568 	-0.159302 	0.0628842 	-0.00403145
0.0568342 	-0.154317 	0.0676933 	-0.00378806
0.0618116 	-0.146238 	0.0714716 	-0.00378324
0.0618116 	-0.146238 	0.0714716 	-0.00378324
0.0671864 	-0.139443 	0.0757241 	-0.00357578
0.0725613 	-0.12962 	0.0789242 	-0.00357174
0.0783652 	-0.121318 	0.0824925 	-0.00337406
0.0841692 	-0.110032 	0.085067 	-0.00335754
0.0904365 	-0.100501 	0.0878129 	-0.00314902
0.0967038 	-0.0879901 	0.0896819 	-0.00310707
0.103472 	-0.0775365 	0.0914487 	-0.00286852
0.11024 	-0.0640734 	0.092498 	-0.00278952
0.117548 	-0.0530373 	0.0931311 	-0.00250382
0.124856 	-0.0389626 	0.093232 	-0.00237507
0.132747 	-0.0276907 	0.0925925 	-0.00203197
0.140638 	-0.0134016 	0.0916093 	-0.00184406
0.14916 	-0.0022213 	0.0895716 	-0.00143574
0.157682 	0.0118553 	0.0873676 	-0.00118527
0.166884 	0.0226654 	0.0838412 	-0.000697345
0.176086 	0.0361274 	0.0802919 	-0.000371978
0.186022 	0.0464045 	0.075238 	0.000203493
0.195959 	0.05896 	0.0702322 	0.000623945
0.206689 	0.0686942 	0.0636822 	0.00127558
0.21742 	0.0802213 	0.0571675 	0.00180448
0.229006 	0.0895494 	0.0492663 	0.00249511
0.240593 	0.100102 	0.0413233 	0.0031126
0.240593 	0.100102 	0.0413233 	0.0031126
0.253104 	0.109312 	0.0323161 	0.00378654
0.265616 	0.119132 	0.0231611 	0.00441855
0.279127 	0.128625 	0.0133674 	0.00502852
0.292638 	0.138132 	0.00331785 	0.00559163
0.307227 	0.148326 	-0.00690483 	0.00609529
0.321817 	0.158015 	-0.017471 	0.00654321
0.337571 	0.169254 	-0.0277442 	0.00687371
0.353325 	0.179597 	-0.0384067 	0.00717324
0.370338 	0.192115 	-0.0483359 	0.00723386
0.38735 	0.20349 	-0.0586656 	0.00732484
0.405721 	0.217349 	-0.0678976 	0.00703256
0.424091 	0.229959 	-0.0775415 	0.00683831
0.443928 	0.244959 	-0.0858055 	0.00619304
0.463765 	0.258798 	-0.0944233 	0.00567434
0.485186 	0.274673 	-0.101385 	0.0047787
0.506607 	0.289649 	-0.108549 	0.00398338
0.529738 	0.306033 	-0.113805 	0.00302509
0.55287 	0.321801 	-0.119142 	0.00210737
0.55287 	0.321801 	-0.119142 	0.00210737
0.577848 	0.33816 	-0.122516 	0.00129298
0.577848 	0.33816 	-0.122516 	0.00129298
0.602826 	0.354155 	-0.125861 	0.000447845
0.602826 	0.354155 	-0.125861 	0.000447845
0.629798 	0.370159 	-0.12729 	-9.77272e-05
0.629798 	0.370159 	-0.12729 	-9.77272e-05
0.65677 	0.386021 	-0.128519 	-0.000729512
0.65677 	0.386021 	-0.128519 	-0.000729512
0.685896 	0.401867 	-0.128121 	-0.000999642
0.715022 	0.417621 	-0.127263 	-0.00137315
0.746473 	0.434054 	-0.125332 	-0.0013963
0.777925 	0.450382 	-0.122808 	-0.00150561
0.811887 	0.468391 	-0.118932 	-0.00136909
0.845849 	0.48634 	-0.114564 	-0.00127165
0.882523 	0.507251 	-0.108448 	-0.00107326
0.919197 	0.527989 	-0.101716 	-0.000889659
0.958798 	0.553482 	-0.094551 	-0.000604162
0.998399 	0.57869 	-0.0864648 	-0.000337404
1.04116 	0.609926 	-0.0795824 	3.4124e-05
1.08393 	0.64103 	-0.0718612 	0.000411752
1.13011 	0.678613 	-0.0656423 	0.000765411
1.17629 	0.716271 	-0.0589172 	0.00116846
1.22615 	0.759409 	-0.0543672 	0.00136637
1.27601 	0.802894 	-0.0499349 	0.00164848
1.32986 	0.850658 	-0.0466455 	0.00159586
1.38371 	0.900749 	-0.0439419 	0.0016303
1.44185 	0.931199 	-0.0383856 	0.0015414
1.5 	0.964417 	-0.0327735 	0.00148386
1.5 	0.964417 	-0.0327735 	0.00148386
1.50931 	0.970224 	-0.0324285 	0.00145493
1.51862 	0.976031 	-0.0320834 	0.001426
1.54126 	0.98812 	-0.0312987 	0.00134671
1.5639 	1.00048 	-0.0302703 	0.00126418
1.58751 	1.01125 	-0.0293861 	0.00117394
1.61111 	1.02203 	-0.0285019 	0.00108371
1.61196 	1.02239 	-0.0284951 	0.00108031
1.6128 	1.02275 	-0.0284882 	0.00107692
1.6392 	1.03237 	-0.0280791 	0.000968334
1.6656 	1.04201 	-0.0276548 	0.000859825
1.69411 	1.05031 	-0.0273948 	0.000748548
1.72262 	1.05878 	-0.0269246 	0.000639239
1.73631 	1.06187 	-0.0267215 	0.000594628
1.75 	1.06495 	-0.0265185 	0.000550016
1.76709 	1.06877 	-0.0263845 	0.000492877
1.78419 	1.0726 	-0.0262506 	0.000435737
1.81744 	1.07739 	-0.0258764 	0.00035496
1.85068 	1.08245 	-0.025346 	0.000274996
1.88658 	1.0851 	-0.0248311 	0.000221825
1.92247 	1.08778 	-0.0242924 	0.000168784
1.92552 	1.08783 	-0.0242137 	0.000166115
1.92857 	1.08789 	-0.0241351 	0.000163446
1.96429 	1.08869 	-0.0234395 	0.000129579
2 	1.08949 	-0.0227439 	9.57123e-05
2 	1.08949 	-0.0227439 	9.57123e-05
2.05434 	1.08841 	-0.0219934 	5.96468e-05
2.10867 	1.08741 	-0.0208468 	2.6528e-05
