1 	0.00288497 	0 	-0.101878
1.00194 	0.00346189 	1.01569e-05 	-0.0990184
1.00388 	0.00405894 	2.0245e-05 	-0.0963717
1.00597 	0.0056727 	6.81457e-05 	-0.0923322
1.00806 	0.0075285 	0.000118457 	-0.0891526
1.01032 	0.00932248 	0.000215181 	-0.0848559
1.01258 	0.011617 	0.000325422 	-0.081799
1.01502 	0.0130557 	0.000443955 	-0.0778577
1.01746 	0.0149105 	0.000592916 	-0.0752642
1.02009 	0.0162021 	0.000715486 	-0.0716455
1.02273 	0.0178147 	0.000884762 	-0.0695297
1.02273 	0.0178147 	0.000884762 	-0.0695297
1.02558 	0.0190487 	0.0010109 	-0.065962
1.02843 	0.0205497 	0.0011967 	-0.0642163
1.0315 	0.021801 	0.00133951 	-0.0609804
1.03457 	0.0232025 	0.00152986 	-0.0591406
1.03789 	0.0244647 	0.00169134 	-0.0563151
1.04121 	0.0257802 	0.00188426 	-0.0544714
1.04479 	0.0270107 	0.00206361 	-0.0520727
1.04837 	0.0282299 	0.00226005 	-0.0502958
1.05196 	0.0292773 	0.00244146 	-0.0483873
1.05555 	0.0302945 	0.00262937 	-0.0467275
1.05583 	0.0303489 	0.00264007 	-0.0467708
1.05611 	0.0304039 	0.00265066 	-0.0468129
1.06029 	0.0310038 	0.00280051 	-0.0476019
1.06447 	0.0316024 	0.00294808 	-0.0483239
1.06898 	0.0320147 	0.00309565 	-0.0493745
1.07349 	0.0324074 	0.0032368 	-0.0501841
1.07837 	0.032638 	0.00336505 	-0.0514499
1.08324 	0.0328066 	0.00349244 	-0.0520933
1.0885 	0.0328479 	0.00360412 	-0.0534557
1.09376 	0.0327689 	0.00375144 	-0.0538936
1.09944 	0.0325735 	0.00390358 	-0.0551014
1.10512 	0.0322941 	0.00409962 	-0.055646
1.11126 	0.0319189 	0.00430989 	-0.0566376
1.11739 	0.0315067 	0.00454965 	-0.0572075
1.1212 	0.0312332 	0.00468796 	-0.0576808
1.125 	0.0309522 	0.00483707 	-0.0579959
1.12782 	0.0307498 	0.00493793 	-0.0579971
1.13064 	0.03054 	0.00504084 	-0.0580001
1.13779 	0.0300161 	0.0052719 	-0.0580496
1.14495 	0.0294764 	0.00550763 	-0.0580919
1.15267 	0.0289218 	0.00572602 	-0.0581945
1.1604 	0.0283518 	0.00595013 	-0.0582363
1.1604 	0.0283518 	0.00595013 	-0.0582363
1.1604 	0.0283518 	0.00595013 	-0.0582363
1.16874 	0.0277744 	0.00615145 	-0.0583482
1.16874 	0.0277744 	0.00615145 	-0.0583482
1.17708 	0.0271872 	0.00635906 	-0.0583639
1.17708 	0.0271872 	0.00635906 	-0.0583639
1.18608 	0.0265901 	0.00653756 	-0.0584277
1.18608 	0.0265901 	0.00653756 	-0.0584277
1.19509 	0.0259905 	0.00671998 	-0.0584214
1.19509 	0.0259905 	0.00671998 	-0.0584214
1.20469 	0.0253826 	0.00686525 	-0.0584134
1.20469 	0.0253826 	0.00686525 	-0.0584134
1.21428 	0.0247743 	0.00701205 	-0.0583791
1.21428 	0.0247743 	0.00701205 	-0.0583791
1.21441 	0.0247662 	0.00701397 	-0.0583829
1.21454 	0.0247581 	0.00701592 	-0.0583858
1.22504 	0.0241204 	0.00712161 	-0.0586249
1.23555 	0.0234827 	0.00722928 	-0.0587924
1.24689 	0.0228155 	0.00729065 	-0.0589461
1.25823 	0.0221447 	0.007355 	-0.0589638
1.27048 	0.0214463 	0.00736959 	-0.0589633
1.28273 	0.0207379 	0.00738635 	-0.0588409
1.29595 	0.0200086 	0.00735446 	-0.0586909
1.30918 	0.0192703 	0.00732267 	-0.0585211
1.32126 	0.0186325 	0.00725943 	-0.0583068
1.33334 	0.0179895 	0.00719573 	-0.0581001
1.33554 	0.0178727 	0.0071842 	-0.0580751
1.33774 	0.0177549 	0.00717251 	-0.058046
1.35316 	0.016985 	0.00706321 	-0.057741
1.36858 	0.0162055 	0.00695236 	-0.0574228
1.38523 	0.0154358 	0.00682026 	-0.056998
1.40188 	0.014646 	0.006685 	-0.0565531
1.41986 	0.0138902 	0.00654299 	-0.0559957
1.43785 	0.0131105 	0.00639728 	-0.0554437
1.45726 	0.0123799 	0.00625867 	-0.0547727
1.47668 	0.0116351 	0.00611759 	-0.0541212
1.47668 	0.0116351 	0.00611759 	-0.0541212
1.48834 	0.0112555 	0.00605031 	-0.0536917
1.5 	0.0108708 	0.00598197 	-0.0532761
1.50931 	0.0105656 	0.00592779 	-0.0529706
1.51862 	0.0102564 	0.0058728 	-0.0526566
1.54126 	0.00964109 	0.00578653 	-0.0518508
1.5639 	0.00901274 	0.00569712 	-0.0510323
1.58835 	0.00848428 	0.00567412 	-0.0501114
1.6128 	0.0079347 	0.00564545 	-0.0491962
1.6392 	0.00749688 	0.00572099 	-0.0481758
1.6656 	0.00704091 	0.00579154 	-0.0471835
1.69411 	0.00669472 	0.00600624 	-0.0461005
1.72262 	0.00633939 	0.00621833 	-0.0450425
1.73631 	0.00622583 	0.00639548 	-0.0445428
1.74999 	0.00611005 	0.00657169 	-0.044052
1.76709 	0.00596672 	0.00679284 	-0.0434381
1.78419 	0.00582071 	0.00701318 	-0.0428229
1.81744 	0.00564006 	0.00764056 	-0.0416797
1.85068 	0.00545386 	0.00826372 	-0.0405419
1.88658 	0.00532896 	0.00914075 	-0.0393967
1.92247 	0.00519699 	0.010012 	-0.0382744
1.96124 	0.00510242 	0.0111772 	-0.0370579
2 	0.0050018 	0.0123475 	-0.0358878
2 	0.0050018 	0.0123475 	-0.0358878
2.01811 	0.00497333 	0.0127315 	-0.0354491
2.03622 	0.00494487 	0.0131154 	-0.0350105
