# Force coefficients
# liftDir     : (0.000000e+00 0.000000e+00 1.000000e+00)
# dragDir     : (1.000000e+00 0.000000e+00 0.000000e+00)
# pitchAxis   : (0.000000e+00 1.000000e+00 0.000000e+00)
# magUInf     : 1.000000e+00
# lRef        : 1.000000e+00
# Aref        : 1.000000e+00
# CofR        : (7.500000e+00 0.000000e+00 0.000000e+00)
#
# Time        	Cm            	Cd            	Cl            	Cl(f)         	Cl(r)         
1             	3.207914e-05	9.750762e-01	4.769533e-04	2.705558e-04	2.063975e-04
2             	4.303867e-05	1.656774e+00	2.465349e-03	1.275713e-03	1.189636e-03
3             	-1.443278e-04	2.261785e+00	3.275766e-03	1.493555e-03	1.782211e-03
4             	-4.126639e-04	2.465528e+00	2.966241e-03	1.070457e-03	1.895785e-03
5             	-5.926808e-04	2.329091e+00	1.464648e-03	1.396432e-04	1.325005e-03
6             	-5.939792e-04	2.021914e+00	-7.682042e-04	-9.780813e-04	2.098771e-04
7             	-3.946869e-04	1.694641e+00	-2.272897e-03	-1.531136e-03	-7.417618e-04
8             	-1.693358e-04	1.451632e+00	-2.380626e-03	-1.359649e-03	-1.020977e-03
9             	3.521123e-05	1.325773e+00	-1.396718e-03	-6.631480e-04	-7.335704e-04
10            	1.574909e-04	1.297001e+00	1.151000e-04	2.150409e-04	-9.994096e-05
11            	1.214617e-04	1.322771e+00	1.636874e-03	9.398986e-04	6.969751e-04
12            	-3.109717e-05	1.365626e+00	2.540795e-03	1.239301e-03	1.301495e-03
13            	-1.431641e-04	1.398092e+00	2.813795e-03	1.263733e-03	1.550061e-03
14            	-2.000028e-04	1.409316e+00	2.576489e-03	1.088242e-03	1.488247e-03
15            	-2.172054e-04	1.400196e+00	2.051769e-03	8.086793e-04	1.243090e-03
16            	-2.539436e-04	1.375946e+00	1.515235e-03	5.036736e-04	1.011561e-03
17            	-3.326223e-04	1.341921e+00	1.135961e-03	2.353585e-04	9.006030e-04
18            	-4.174382e-04	1.305477e+00	1.277824e-03	2.214736e-04	1.056350e-03
19            	-5.262549e-04	1.275969e+00	1.973224e-03	4.603572e-04	1.512867e-03
20            	-6.622942e-04	1.256104e+00	3.227135e-03	9.512735e-04	2.275862e-03
21            	-8.359430e-04	1.245672e+00	4.752363e-03	1.540238e-03	3.212124e-03
22            	-1.039691e-03	1.240222e+00	6.401319e-03	2.160968e-03	4.240351e-03
23            	-1.304216e-03	1.237132e+00	8.118660e-03	2.755114e-03	5.363546e-03
24            	-1.611289e-03	1.232564e+00	9.830244e-03	3.303832e-03	6.526411e-03
25            	-1.951233e-03	1.224820e+00	1.163442e-02	3.865978e-03	7.768444e-03
26            	-2.337464e-03	1.213675e+00	1.360489e-02	4.464981e-03	9.139909e-03
27            	-2.802064e-03	1.200448e+00	1.561231e-02	5.004092e-03	1.060822e-02
28            	-3.323912e-03	1.186315e+00	1.767474e-02	5.513457e-03	1.216128e-02
29            	-3.888891e-03	1.171740e+00	1.983335e-02	6.027783e-03	1.380556e-02
30            	-4.507632e-03	1.157781e+00	2.200836e-02	6.496550e-03	1.551181e-02
31            	-5.145518e-03	1.144185e+00	2.419168e-02	6.950321e-03	1.724136e-02
32            	-5.759767e-03	1.131218e+00	2.657097e-02	7.525720e-03	1.904525e-02
33            	-6.374711e-03	1.119462e+00	2.916998e-02	8.210277e-03	2.095970e-02
34            	-6.956290e-03	1.109511e+00	3.198826e-02	9.037838e-03	2.295042e-02
35            	-7.461175e-03	1.101495e+00	3.531513e-02	1.019639e-02	2.511874e-02
36            	-7.875147e-03	1.096187e+00	3.901493e-02	1.163232e-02	2.738261e-02
37            	-8.198431e-03	1.092965e+00	4.279658e-02	1.319986e-02	2.959672e-02
38            	-8.447291e-03	1.091333e+00	4.697727e-02	1.504134e-02	3.193593e-02
39            	-8.607498e-03	1.091487e+00	5.185466e-02	1.731983e-02	3.453483e-02
40            	-8.683234e-03	1.093184e+00	5.731669e-02	1.997511e-02	3.734158e-02
41            	-8.697585e-03	1.096383e+00	6.327946e-02	2.294214e-02	4.033731e-02
42            	-8.656771e-03	1.101059e+00	6.960122e-02	2.614384e-02	4.345738e-02
43            	-8.578604e-03	1.106428e+00	7.612464e-02	2.948371e-02	4.664092e-02
44            	-8.484325e-03	1.111519e+00	8.258862e-02	3.280998e-02	4.977863e-02
45            	-8.426424e-03	1.115517e+00	8.874282e-02	3.594498e-02	5.279783e-02
46            	-8.405293e-03	1.117624e+00	9.446935e-02	3.882938e-02	5.563997e-02
47            	-8.555083e-03	1.117273e+00	9.983406e-02	4.136194e-02	5.847211e-02
48            	-8.790478e-03	1.113643e+00	1.047303e-01	4.357466e-02	6.115562e-02
49            	-9.175105e-03	1.107035e+00	1.089785e-01	4.531417e-02	6.366438e-02
50            	-9.737254e-03	1.098004e+00	1.121162e-01	4.632086e-02	6.579537e-02
51            	-1.057771e-02	1.087791e+00	1.142131e-01	4.652883e-02	6.768425e-02
52            	-1.151478e-02	1.077457e+00	1.151777e-01	4.607408e-02	6.910363e-02
53            	-1.240237e-02	1.067767e+00	1.149808e-01	4.508802e-02	6.989277e-02
54            	-1.332981e-02	1.058437e+00	1.137854e-01	4.356291e-02	7.022254e-02
55            	-1.444872e-02	1.049180e+00	1.118472e-01	4.147490e-02	7.037233e-02
56            	-1.581529e-02	1.039918e+00	1.095993e-01	3.898435e-02	7.061493e-02
57            	-1.748369e-02	1.029785e+00	1.076747e-01	3.635365e-02	7.132104e-02
58            	-1.926928e-02	1.019049e+00	1.060131e-01	3.373724e-02	7.227581e-02
59            	-2.086519e-02	1.008300e+00	1.040615e-01	3.116554e-02	7.289593e-02
60            	-2.219170e-02	9.979248e-01	1.023017e-01	2.895913e-02	7.334254e-02
61            	-2.350743e-02	9.881797e-01	1.017034e-01	2.734429e-02	7.435914e-02
62            	-2.492814e-02	9.787565e-01	1.026507e-01	2.639719e-02	7.625348e-02
63            	-2.644211e-02	9.695795e-01	1.052931e-01	2.620445e-02	7.908867e-02
64            	-2.797259e-02	9.605174e-01	1.095609e-01	2.680787e-02	8.275305e-02
65            	-2.932816e-02	9.520100e-01	1.153391e-01	2.834138e-02	8.699770e-02
66            	-3.038827e-02	9.445002e-01	1.226578e-01	3.094064e-02	9.171719e-02
67            	-3.104759e-02	9.378128e-01	1.311159e-01	3.451036e-02	9.660553e-02
68            	-3.125459e-02	9.317134e-01	1.407141e-01	3.910246e-02	1.016116e-01
69            	-3.103281e-02	9.261201e-01	1.512284e-01	4.458136e-02	1.066470e-01
70            	-3.038024e-02	9.205326e-01	1.622588e-01	5.074917e-02	1.115096e-01
71            	-2.936889e-02	9.145180e-01	1.732609e-01	5.726153e-02	1.159993e-01
72            	-2.810414e-02	9.078213e-01	1.839555e-01	6.387362e-02	1.200819e-01
73            	-2.666520e-02	9.006394e-01	1.941213e-01	7.039544e-02	1.237258e-01
74            	-2.502702e-02	8.934740e-01	2.031526e-01	7.654927e-02	1.266033e-01
75            	-2.311841e-02	8.865353e-01	2.108681e-01	8.231564e-02	1.285525e-01
76            	-2.107052e-02	8.797271e-01	2.170691e-01	8.746405e-02	1.296051e-01
77            	-1.906047e-02	8.732512e-01	2.218960e-01	9.188754e-02	1.300085e-01
78            	-1.723702e-02	8.671643e-01	2.257390e-01	9.563248e-02	1.301065e-01
79            	-1.569621e-02	8.616802e-01	2.287128e-01	9.866020e-02	1.300526e-01
80            	-1.446818e-02	8.567748e-01	2.307644e-01	1.009140e-01	1.298504e-01
81            	-1.356229e-02	8.521305e-01	2.316930e-01	1.022842e-01	1.294088e-01
82            	-1.301630e-02	8.475087e-01	2.314255e-01	1.026964e-01	1.287290e-01
83            	-1.284340e-02	8.430012e-01	2.297682e-01	1.020407e-01	1.277275e-01
84            	-1.297918e-02	8.386483e-01	2.266401e-01	1.003409e-01	1.262992e-01
85            	-1.335706e-02	8.341184e-01	2.218588e-01	9.757232e-02	1.242864e-01
86            	-1.389702e-02	8.295451e-01	2.154565e-01	9.383124e-02	1.216253e-01
87            	-1.456034e-02	8.250628e-01	2.076818e-01	8.928053e-02	1.184012e-01
88            	-1.531158e-02	8.212086e-01	1.987769e-01	8.407685e-02	1.147000e-01
89            	-1.607743e-02	8.186341e-01	1.892026e-01	7.852388e-02	1.106787e-01
90            	-1.677197e-02	8.177261e-01	1.794123e-01	7.293420e-02	1.064781e-01
91            	-1.732336e-02	8.186104e-01	1.696381e-01	6.749571e-02	1.021424e-01
92            	-1.766730e-02	8.211681e-01	1.600558e-01	6.236058e-02	9.769518e-02
93            	-1.776955e-02	8.251819e-01	1.510607e-01	5.776079e-02	9.329988e-02
94            	-1.766551e-02	8.303400e-01	1.430579e-01	5.386343e-02	8.919445e-02
95            	-1.743317e-02	8.361438e-01	1.363155e-01	5.072458e-02	8.559093e-02
96            	-1.717646e-02	8.421365e-01	1.309105e-01	4.827880e-02	8.263172e-02
97            	-1.696319e-02	8.480766e-01	1.268561e-01	4.646488e-02	8.039126e-02
98            	-1.685927e-02	8.539802e-01	1.240671e-01	4.517427e-02	7.889281e-02
99            	-1.695108e-02	8.598861e-01	1.224054e-01	4.425159e-02	7.815376e-02
100           	-1.729748e-02	8.660900e-01	1.216786e-01	4.354182e-02	7.813679e-02
101           	-1.794769e-02	8.728076e-01	1.215750e-01	4.283979e-02	7.873517e-02
102           	-1.892252e-02	8.801180e-01	1.216838e-01	4.191936e-02	7.976441e-02
103           	-2.022183e-02	8.880553e-01	1.217298e-01	4.064308e-02	8.108673e-02
104           	-2.184367e-02	8.966622e-01	1.214457e-01	3.887920e-02	8.256655e-02
105           	-2.377069e-02	9.060163e-01	1.206508e-01	3.655469e-02	8.409607e-02
106           	-2.598674e-02	9.160767e-01	1.192066e-01	3.361658e-02	8.559006e-02
107           	-2.845119e-02	9.267410e-01	1.170603e-01	3.007894e-02	8.698132e-02
108           	-3.109273e-02	9.378542e-01	1.142816e-01	2.604808e-02	8.823353e-02
109           	-3.384102e-02	9.492724e-01	1.110353e-01	2.167661e-02	8.935866e-02
110           	-3.666166e-02	9.608802e-01	1.074435e-01	1.706007e-02	9.038339e-02
111           	-3.952604e-02	9.726334e-01	1.036521e-01	1.230002e-02	9.135210e-02
112           	-4.241050e-02	9.844826e-01	9.968617e-02	7.432591e-03	9.225358e-02
113           	-4.527568e-02	9.963408e-01	9.561555e-02	2.532095e-03	9.308346e-02
114           	-4.808117e-02	1.008033e+00	9.154044e-02	-2.310946e-03	9.385139e-02
115           	-5.079449e-02	1.019356e+00	8.757707e-02	-7.005957e-03	9.458303e-02
116           	-5.337181e-02	1.030069e+00	8.381520e-02	-1.146421e-02	9.527941e-02
117           	-5.576697e-02	1.040039e+00	8.043149e-02	-1.555123e-02	9.598272e-02
118           	-5.793006e-02	1.049185e+00	7.755226e-02	-1.915393e-02	9.670619e-02
119           	-5.983128e-02	1.057503e+00	7.520397e-02	-2.222929e-02	9.743327e-02
120           	-6.145635e-02	1.064985e+00	7.342520e-02	-2.474375e-02	9.816895e-02
121           	-6.279951e-02	1.071647e+00	7.224164e-02	-2.667869e-02	9.892033e-02
122           	-6.387757e-02	1.077409e+00	7.171714e-02	-2.801900e-02	9.973614e-02
123           	-6.469389e-02	1.082248e+00	7.190154e-02	-2.874312e-02	1.006447e-01
124           	-6.525750e-02	1.086151e+00	7.278499e-02	-2.886500e-02	1.016500e-01
125           	-6.558063e-02	1.089121e+00	7.434058e-02	-2.841034e-02	1.027509e-01
126           	-6.567391e-02	1.091185e+00	7.655125e-02	-2.739829e-02	1.039495e-01
127           	-6.556484e-02	1.092478e+00	7.935343e-02	-2.588812e-02	1.052416e-01
128           	-6.529319e-02	1.093106e+00	8.260430e-02	-2.399104e-02	1.065953e-01
129           	-6.489757e-02	1.093179e+00	8.609849e-02	-2.184832e-02	1.079468e-01
130           	-6.442888e-02	1.092761e+00	8.966734e-02	-1.959521e-02	1.092625e-01
131           	-6.394599e-02	1.091886e+00	9.318967e-02	-1.735115e-02	1.105408e-01
132           	-6.351444e-02	1.090525e+00	9.652727e-02	-1.525080e-02	1.117781e-01
133           	-6.319295e-02	1.088682e+00	9.956193e-02	-1.341199e-02	1.129739e-01
134           	-6.304850e-02	1.086356e+00	1.021465e-01	-1.197526e-02	1.141217e-01
135           	-6.312710e-02	1.083539e+00	1.041242e-01	-1.106497e-02	1.151892e-01
136           	-6.346758e-02	1.080270e+00	1.054397e-01	-1.074771e-02	1.161874e-01
137           	-6.409465e-02	1.076586e+00	1.060551e-01	-1.106708e-02	1.171222e-01
138           	-6.500477e-02	1.072577e+00	1.059497e-01	-1.202993e-02	1.179796e-01
139           	-6.618199e-02	1.068429e+00	1.051446e-01	-1.360969e-02	1.187543e-01
140           	-6.759889e-02	1.064334e+00	1.037002e-01	-1.574879e-02	1.194490e-01
141           	-6.923541e-02	1.060408e+00	1.016327e-01	-1.841904e-02	1.200518e-01
142           	-7.105166e-02	1.056772e+00	9.899164e-02	-2.155585e-02	1.205475e-01
143           	-7.298945e-02	1.053449e+00	9.583557e-02	-2.507166e-02	1.209072e-01
144           	-7.499662e-02	1.050441e+00	9.224292e-02	-2.887517e-02	1.211181e-01
145           	-7.702700e-02	1.047851e+00	8.839614e-02	-3.282893e-02	1.212251e-01
146           	-7.905054e-02	1.045845e+00	8.450697e-02	-3.679705e-02	1.213040e-01
147           	-8.101073e-02	1.044573e+00	8.077060e-02	-4.062543e-02	1.213960e-01
148           	-8.285069e-02	1.044042e+00	7.725172e-02	-4.422483e-02	1.214766e-01
149           	-8.450659e-02	1.044233e+00	7.402122e-02	-4.749598e-02	1.215172e-01
150           	-8.593907e-02	1.045031e+00	7.112162e-02	-5.037827e-02	1.214999e-01
151           	-8.707885e-02	1.046368e+00	6.863528e-02	-5.276121e-02	1.213965e-01
152           	-8.790560e-02	1.048293e+00	6.664859e-02	-5.458130e-02	1.212299e-01
153           	-8.841232e-02	1.050881e+00	6.524606e-02	-5.578928e-02	1.210353e-01
154           	-8.860168e-02	1.054039e+00	6.448049e-02	-5.636143e-02	1.208419e-01
155           	-8.846034e-02	1.057587e+00	6.442098e-02	-5.624985e-02	1.206708e-01
156           	-8.799847e-02	1.061371e+00	6.507053e-02	-5.546320e-02	1.205337e-01
157           	-8.724387e-02	1.065233e+00	6.642175e-02	-5.403300e-02	1.204547e-01
158           	-8.621988e-02	1.069127e+00	6.841708e-02	-5.201134e-02	1.204284e-01
159           	-8.497093e-02	1.072973e+00	7.096879e-02	-4.948653e-02	1.204553e-01
160           	-8.352430e-02	1.076723e+00	7.397415e-02	-4.653723e-02	1.205114e-01
161           	-8.194090e-02	1.080333e+00	7.735942e-02	-4.326119e-02	1.206206e-01
162           	-8.028559e-02	1.083764e+00	8.106062e-02	-3.975527e-02	1.208159e-01
163           	-7.861798e-02	1.086949e+00	8.498533e-02	-3.612531e-02	1.211106e-01
164           	-7.697646e-02	1.089807e+00	8.902393e-02	-3.246450e-02	1.214884e-01
165           	-7.540696e-02	1.092319e+00	9.315056e-02	-2.883168e-02	1.219822e-01
166           	-7.395558e-02	1.094489e+00	9.739683e-02	-2.525717e-02	1.226540e-01
167           	-7.266697e-02	1.096376e+00	1.017251e-01	-2.180439e-02	1.235295e-01
168           	-7.157593e-02	1.098104e+00	1.060975e-01	-1.852718e-02	1.246247e-01
169           	-7.070477e-02	1.099840e+00	1.104597e-01	-1.547492e-02	1.259346e-01
170           	-7.007839e-02	1.101709e+00	1.147585e-01	-1.269914e-02	1.274576e-01
171           	-6.971943e-02	1.103774e+00	1.189948e-01	-1.022205e-02	1.292168e-01
172           	-6.963977e-02	1.106098e+00	1.231651e-01	-8.057224e-03	1.312223e-01
173           	-6.986211e-02	1.108640e+00	1.272462e-01	-6.239031e-03	1.334852e-01
174           	-7.038910e-02	1.111319e+00	1.312608e-01	-4.758716e-03	1.360195e-01
175           	-7.121875e-02	1.114092e+00	1.351651e-01	-3.636208e-03	1.388013e-01
176           	-7.233802e-02	1.116869e+00	1.389333e-01	-2.871347e-03	1.418047e-01
177           	-7.373038e-02	1.119619e+00	1.425546e-01	-2.453070e-03	1.450077e-01
178           	-7.537506e-02	1.122287e+00	1.460468e-01	-2.351682e-03	1.483984e-01
179           	-7.724041e-02	1.124828e+00	1.494200e-01	-2.530403e-03	1.519504e-01
180           	-7.929226e-02	1.127225e+00	1.526397e-01	-2.972409e-03	1.556121e-01
181           	-8.148883e-02	1.129461e+00	1.557018e-01	-3.637939e-03	1.593397e-01
182           	-8.378672e-02	1.131507e+00	1.586073e-01	-4.483088e-03	1.630903e-01
183           	-8.614851e-02	1.133378e+00	1.613042e-01	-5.496416e-03	1.668006e-01
184           	-8.853637e-02	1.135098e+00	1.637950e-01	-6.638872e-03	1.704339e-01
185           	-9.090521e-02	1.136682e+00	1.660338e-01	-7.888325e-03	1.739221e-01
186           	-9.321883e-02	1.138140e+00	1.679937e-01	-9.221986e-03	1.772157e-01
187           	-9.545120e-02	1.139410e+00	1.697055e-01	-1.059847e-02	1.803039e-01
188           	-9.755610e-02	1.140433e+00	1.712161e-01	-1.194803e-02	1.831642e-01
189           	-9.950897e-02	1.141171e+00	1.724925e-01	-1.326271e-02	1.857552e-01
190           	-1.012784e-01	1.141622e+00	1.735551e-01	-1.450078e-02	1.880559e-01
191           	-1.028358e-01	1.141809e+00	1.744025e-01	-1.563453e-02	1.900370e-01
192           	-1.041768e-01	1.141671e+00	1.750421e-01	-1.665580e-02	1.916978e-01
193           	-1.052834e-01	1.141182e+00	1.754833e-01	-1.754169e-02	1.930250e-01
194           	-1.061428e-01	1.140319e+00	1.757213e-01	-1.828210e-02	1.940034e-01
195           	-1.067584e-01	1.139066e+00	1.757097e-01	-1.890358e-02	1.946133e-01
196           	-1.071320e-01	1.137447e+00	1.754252e-01	-1.941944e-02	1.948446e-01
197           	-1.072735e-01	1.135448e+00	1.748428e-01	-1.985211e-02	1.946950e-01
198           	-1.072043e-01	1.133124e+00	1.739169e-01	-2.024584e-02	1.941628e-01
199           	-1.069615e-01	1.130506e+00	1.726183e-01	-2.065239e-02	1.932707e-01
200           	-1.065710e-01	1.127611e+00	1.709681e-01	-2.108692e-02	1.920550e-01
201           	-1.060612e-01	1.124462e+00	1.689204e-01	-2.160099e-02	1.905214e-01
202           	-1.054473e-01	1.121045e+00	1.664956e-01	-2.219950e-02	1.886951e-01
203           	-1.047591e-01	1.117381e+00	1.636394e-01	-2.293938e-02	1.865788e-01
204           	-1.040274e-01	1.113523e+00	1.603158e-01	-2.386951e-02	1.841853e-01
205           	-1.032783e-01	1.109512e+00	1.565306e-01	-2.501302e-02	1.815436e-01
206           	-1.025406e-01	1.105378e+00	1.522992e-01	-2.639102e-02	1.786902e-01
207           	-1.018279e-01	1.101155e+00	1.476971e-01	-2.797938e-02	1.756764e-01
208           	-1.011628e-01	1.096867e+00	1.427726e-01	-2.977650e-02	1.725491e-01
209           	-1.005550e-01	1.092475e+00	1.375679e-01	-3.177105e-02	1.693389e-01
210           	-1.000080e-01	1.087970e+00	1.321299e-01	-3.394303e-02	1.660730e-01
211           	-9.952953e-02	1.083337e+00	1.264624e-01	-3.629831e-02	1.627607e-01
212           	-9.910901e-02	1.078564e+00	1.206572e-01	-3.878040e-02	1.594376e-01
213           	-9.875488e-02	1.073607e+00	1.147306e-01	-4.138959e-02	1.561202e-01
214           	-9.845738e-02	1.068433e+00	1.087715e-01	-4.407164e-02	1.528431e-01
215           	-9.820446e-02	1.063083e+00	1.028441e-01	-4.678243e-02	1.496265e-01
216           	-9.800123e-02	1.057554e+00	9.700594e-02	-4.949826e-02	1.465042e-01
217           	-9.783894e-02	1.051845e+00	9.134667e-02	-5.216561e-02	1.435123e-01
218           	-9.770658e-02	1.045993e+00	8.590315e-02	-5.475500e-02	1.406582e-01
219           	-9.759974e-02	1.040002e+00	8.069390e-02	-5.725279e-02	1.379467e-01
220           	-9.750418e-02	1.033861e+00	7.574598e-02	-5.963119e-02	1.353772e-01
221           	-9.740981e-02	1.027533e+00	7.106086e-02	-6.187939e-02	1.329402e-01
222           	-9.731182e-02	1.021050e+00	6.669717e-02	-6.396324e-02	1.306604e-01
223           	-9.720308e-02	1.014439e+00	6.269820e-02	-6.585398e-02	1.285522e-01
224           	-9.707277e-02	1.007706e+00	5.905525e-02	-6.754515e-02	1.266004e-01
225           	-9.690589e-02	1.000863e+00	5.578335e-02	-6.901422e-02	1.247976e-01
226           	-9.669027e-02	9.938756e-01	5.285324e-02	-7.026365e-02	1.231169e-01
227           	-9.640722e-02	9.867709e-01	5.021732e-02	-7.129856e-02	1.215159e-01
228           	-9.605264e-02	9.795683e-01	4.783583e-02	-7.213472e-02	1.199706e-01
229           	-9.562973e-02	9.722930e-01	4.570757e-02	-7.277594e-02	1.184835e-01
230           	-9.513555e-02	9.649668e-01	4.381737e-02	-7.322686e-02	1.170442e-01
231           	-9.457568e-02	9.575868e-01	4.217212e-02	-7.348962e-02	1.156617e-01
232           	-9.395273e-02	9.501533e-01	4.075810e-02	-7.357368e-02	1.143318e-01
233           	-9.326470e-02	9.426750e-01	3.955204e-02	-7.348867e-02	1.130407e-01
234           	-9.250481e-02	9.352130e-01	3.852985e-02	-7.323989e-02	1.117697e-01
235           	-9.166768e-02	9.277762e-01	3.763535e-02	-7.285001e-02	1.104854e-01
236           	-9.076211e-02	9.203746e-01	3.682940e-02	-7.234741e-02	1.091768e-01
237           	-8.979462e-02	9.130316e-01	3.610068e-02	-7.174428e-02	1.078450e-01
238           	-8.876739e-02	9.057513e-01	3.542379e-02	-7.105549e-02	1.064793e-01
239           	-8.769999e-02	8.985378e-01	3.470738e-02	-7.034630e-02	1.050537e-01
240           	-8.659328e-02	8.914417e-01	3.399868e-02	-6.959394e-02	1.035926e-01
241           	-8.546341e-02	8.845440e-01	3.333688e-02	-6.879497e-02	1.021319e-01
242           	-8.433368e-02	8.778612e-01	3.270942e-02	-6.797897e-02	1.006884e-01
243           	-8.320989e-02	8.714233e-01	3.215592e-02	-6.713193e-02	9.928785e-02
244           	-8.210460e-02	8.652573e-01	3.167864e-02	-6.626528e-02	9.794392e-02
245           	-8.103537e-02	8.593616e-01	3.133369e-02	-6.536853e-02	9.670222e-02
246           	-8.001068e-02	8.537308e-01	3.119988e-02	-6.441074e-02	9.561062e-02
247           	-7.904266e-02	8.483981e-01	3.134459e-02	-6.337037e-02	9.471496e-02
248           	-7.815187e-02	8.433569e-01	3.173662e-02	-6.228356e-02	9.402018e-02
249           	-7.733783e-02	8.386218e-01	3.239191e-02	-6.114187e-02	9.353379e-02
250           	-7.660812e-02	8.341840e-01	3.336534e-02	-5.992545e-02	9.329079e-02
251           	-7.597616e-02	8.299970e-01	3.468303e-02	-5.863464e-02	9.331768e-02
252           	-7.543213e-02	8.260384e-01	3.640660e-02	-5.722883e-02	9.363543e-02
253           	-7.496912e-02	8.223311e-01	3.853335e-02	-5.570244e-02	9.423580e-02
254           	-7.458385e-02	8.188589e-01	4.109100e-02	-5.403835e-02	9.512935e-02
255           	-7.425436e-02	8.155802e-01	4.410505e-02	-5.220183e-02	9.630688e-02
256           	-7.398241e-02	8.124030e-01	4.762625e-02	-5.016928e-02	9.779553e-02
257           	-7.375848e-02	8.092742e-01	5.162540e-02	-4.794578e-02	9.957118e-02
258           	-7.357519e-02	8.061506e-01	5.609513e-02	-4.552762e-02	1.016228e-01
259           	-7.343412e-02	8.030052e-01	6.100649e-02	-4.293088e-02	1.039374e-01
260           	-7.332151e-02	7.998397e-01	6.634657e-02	-4.014822e-02	1.064948e-01
261           	-7.322667e-02	7.967032e-01	7.207268e-02	-3.719033e-02	1.092630e-01
262           	-7.312920e-02	7.936401e-01	7.816566e-02	-3.404637e-02	1.122120e-01
263           	-7.302678e-02	7.907136e-01	8.455282e-02	-3.075037e-02	1.153032e-01
264           	-7.292939e-02	7.879743e-01	9.119118e-02	-2.733380e-02	1.185250e-01
265           	-7.284186e-02	7.854895e-01	9.803702e-02	-2.382335e-02	1.218604e-01
266           	-7.276256e-02	7.832975e-01	1.049943e-01	-2.026539e-02	1.252597e-01
267           	-7.269783e-02	7.814368e-01	1.119309e-01	-1.673239e-02	1.286633e-01
268           	-7.265434e-02	7.799954e-01	1.188248e-01	-1.324195e-02	1.320667e-01
269           	-7.263898e-02	7.790552e-01	1.256886e-01	-9.794668e-03	1.354833e-01
270           	-7.267596e-02	7.786649e-01	1.324264e-01	-6.462738e-03	1.388892e-01
271           	-7.278937e-02	7.788333e-01	1.388987e-01	-3.340006e-03	1.422387e-01
272           	-7.300116e-02	7.795564e-01	1.449784e-01	-5.119434e-04	1.454904e-01
273           	-7.333632e-02	7.807899e-01	1.505715e-01	1.949440e-03	1.486221e-01
274           	-7.381248e-02	7.825205e-01	1.556549e-01	4.014995e-03	1.516400e-01
275           	-7.443989e-02	7.847183e-01	1.601963e-01	5.658258e-03	1.545380e-01
276           	-7.523112e-02	7.873677e-01	1.641908e-01	6.864272e-03	1.573265e-01
277           	-7.620060e-02	7.905128e-01	1.677006e-01	7.649693e-03	1.600509e-01
278           	-7.735893e-02	7.942289e-01	1.707849e-01	8.033500e-03	1.627514e-01
279           	-7.870662e-02	7.985616e-01	1.734876e-01	8.037159e-03	1.654504e-01
280           	-8.023526e-02	8.035678e-01	1.758586e-01	7.694053e-03	1.681646e-01
281           	-8.193209e-02	8.092542e-01	1.779348e-01	7.035321e-03	1.708995e-01
282           	-8.377907e-02	8.155748e-01	1.797487e-01	6.095282e-03	1.736534e-01
283           	-8.575368e-02	8.224455e-01	1.813370e-01	4.914823e-03	1.764222e-01
284           	-8.783123e-02	8.297486e-01	1.827097e-01	3.523613e-03	1.791861e-01
285           	-8.998189e-02	8.373493e-01	1.838929e-01	1.964573e-03	1.819284e-01
286           	-9.217448e-02	8.451090e-01	1.848998e-01	2.754171e-04	1.846244e-01
287           	-9.437513e-02	8.528718e-01	1.857485e-01	-1.500879e-03	1.872494e-01
288           	-9.654908e-02	8.604852e-01	1.864681e-01	-3.315013e-03	1.897832e-01
289           	-9.866579e-02	8.678116e-01	1.870934e-01	-5.119111e-03	1.922125e-01
290           	-1.007051e-01	8.747455e-01	1.876805e-01	-6.864803e-03	1.945453e-01
291           	-1.026510e-01	8.812104e-01	1.882979e-01	-8.502022e-03	1.967999e-01
292           	-1.044885e-01	8.871127e-01	1.890115e-01	-9.982769e-03	1.989942e-01
293           	-1.062089e-01	8.924206e-01	1.898983e-01	-1.125976e-02	2.011580e-01
294           	-1.078068e-01	8.971100e-01	1.910153e-01	-1.229915e-02	2.033145e-01
295           	-1.092841e-01	9.011788e-01	1.923986e-01	-1.308481e-02	2.054834e-01
296           	-1.106472e-01	9.046358e-01	1.940625e-01	-1.361594e-02	2.076785e-01
297           	-1.119072e-01	9.075146e-01	1.960227e-01	-1.389583e-02	2.099186e-01
298           	-1.130722e-01	9.098429e-01	1.982772e-01	-1.393357e-02	2.122108e-01
299           	-1.141548e-01	9.116572e-01	2.008207e-01	-1.374446e-02	2.145652e-01
300           	-1.151599e-01	9.129799e-01	2.036380e-01	-1.334084e-02	2.169789e-01
301           	-1.160893e-01	9.138298e-01	2.067071e-01	-1.273579e-02	2.194429e-01
302           	-1.169485e-01	9.142239e-01	2.100123e-01	-1.194234e-02	2.219546e-01
303           	-1.177432e-01	9.141809e-01	2.135392e-01	-1.097356e-02	2.245128e-01
304           	-1.184798e-01	9.137011e-01	2.172494e-01	-9.855097e-03	2.271045e-01
305           	-1.191654e-01	9.128599e-01	2.211443e-01	-8.593258e-03	2.297376e-01
306           	-1.198048e-01	9.117224e-01	2.252173e-01	-7.196163e-03	2.324135e-01
307           	-1.204002e-01	9.103118e-01	2.294706e-01	-5.664930e-03	2.351355e-01
308           	-1.209591e-01	9.086611e-01	2.338903e-01	-4.013955e-03	2.379043e-01
309           	-1.214797e-01	9.067875e-01	2.384623e-01	-2.248569e-03	2.407108e-01
310           	-1.219589e-01	9.047027e-01	2.431901e-01	-3.638578e-04	2.435540e-01
311           	-1.224071e-01	9.024071e-01	2.480542e-01	1.619959e-03	2.464342e-01
312           	-1.228264e-01	8.999005e-01	2.530235e-01	3.685356e-03	2.493382e-01
313           	-1.232055e-01	8.972006e-01	2.580943e-01	5.841679e-03	2.522526e-01
314           	-1.235494e-01	8.943240e-01	2.632621e-01	8.081648e-03	2.551804e-01
315           	-1.238596e-01	8.912672e-01	2.685353e-01	1.040801e-02	2.581273e-01
316           	-1.241298e-01	8.880701e-01	2.738870e-01	1.281373e-02	2.610733e-01
317           	-1.243607e-01	8.847171e-01	2.793105e-01	1.529460e-02	2.640159e-01
318           	-1.245584e-01	8.811759e-01	2.847778e-01	1.783051e-02	2.669473e-01
319           	-1.247073e-01	8.774582e-01	2.902942e-01	2.043984e-02	2.698544e-01
320           	-1.248164e-01	8.735644e-01	2.958224e-01	2.309481e-02	2.727276e-01
321           	-1.248832e-01	8.695097e-01	3.013524e-01	2.579300e-02	2.755594e-01
322           	-1.249155e-01	8.652839e-01	3.068520e-01	2.851048e-02	2.783416e-01
323           	-1.249082e-01	8.608784e-01	3.123172e-01	3.125041e-02	2.810668e-01
324           	-1.248500e-01	8.563048e-01	3.177488e-01	3.402439e-02	2.837244e-01
325           	-1.247387e-01	8.515665e-01	3.231079e-01	3.681531e-02	2.862926e-01
326           	-1.245639e-01	8.466423e-01	3.283752e-01	3.962365e-02	2.887515e-01
327           	-1.243185e-01	8.415560e-01	3.335490e-01	4.245599e-02	2.910930e-01
328           	-1.239982e-01	8.363397e-01	3.386264e-01	4.531506e-02	2.933114e-01
329           	-1.235983e-01	8.309740e-01	3.435425e-01	4.817294e-02	2.953695e-01
330           	-1.231179e-01	8.255041e-01	3.482716e-01	5.101786e-02	2.972537e-01
331           	-1.225512e-01	8.199574e-01	3.528096e-01	5.385363e-02	2.989560e-01
332           	-1.218959e-01	8.143285e-01	3.571254e-01	5.666681e-02	3.004586e-01
333           	-1.211531e-01	8.086845e-01	3.611912e-01	5.944252e-02	3.017486e-01
334           	-1.203171e-01	8.030253e-01	3.649760e-01	6.217093e-02	3.028051e-01
335           	-1.193885e-01	7.974075e-01	3.685062e-01	6.486461e-02	3.036416e-01
336           	-1.183631e-01	7.917820e-01	3.717444e-01	6.750909e-02	3.042353e-01
337           	-1.172341e-01	7.861423e-01	3.746716e-01	7.010174e-02	3.045699e-01
338           	-1.160061e-01	7.805717e-01	3.772591e-01	7.262345e-02	3.046356e-01
339           	-1.146906e-01	7.751212e-01	3.794563e-01	7.503757e-02	3.044187e-01
340           	-1.132975e-01	7.698246e-01	3.812261e-01	7.731551e-02	3.039105e-01
341           	-1.118251e-01	7.646656e-01	3.825661e-01	7.945800e-02	3.031081e-01
342           	-1.102803e-01	7.596231e-01	3.835351e-01	8.148726e-02	3.020478e-01
343           	-1.086663e-01	7.546750e-01	3.841587e-01	8.341310e-02	3.007456e-01
344           	-1.069844e-01	7.498176e-01	3.844288e-01	8.523003e-02	2.991988e-01
345           	-1.052409e-01	7.450562e-01	3.843240e-01	8.692113e-02	2.974028e-01
346           	-1.034312e-01	7.404076e-01	3.838380e-01	8.848778e-02	2.953502e-01
347           	-1.015568e-01	7.359045e-01	3.829682e-01	8.992731e-02	2.930409e-01
348           	-9.961873e-02	7.315809e-01	3.817210e-01	9.124178e-02	2.904792e-01
349           	-9.761596e-02	7.274416e-01	3.801061e-01	9.243708e-02	2.876690e-01
350           	-9.556133e-02	7.235234e-01	3.781051e-01	9.349124e-02	2.846139e-01
351           	-9.347531e-02	7.198396e-01	3.756512e-01	9.435027e-02	2.813009e-01
352           	-9.137252e-02	7.163757e-01	3.727418e-01	9.499841e-02	2.777434e-01
353           	-8.926729e-02	7.131506e-01	3.693867e-01	9.542604e-02	2.739606e-01
354           	-8.716912e-02	7.101919e-01	3.656450e-01	9.565339e-02	2.699916e-01
355           	-8.508508e-02	7.074773e-01	3.615450e-01	9.568742e-02	2.658576e-01
356           	-8.303331e-02	7.050322e-01	3.570564e-01	9.549489e-02	2.615615e-01
357           	-8.103068e-02	7.028579e-01	3.521700e-01	9.505431e-02	2.571157e-01
358           	-7.908605e-02	7.009312e-01	3.469075e-01	9.436768e-02	2.525398e-01
359           	-7.721001e-02	6.992214e-01	3.413092e-01	9.344458e-02	2.478646e-01
360           	-7.541583e-02	6.977074e-01	3.354056e-01	9.228697e-02	2.431186e-01
361           	-7.371030e-02	6.963684e-01	3.292463e-01	9.091285e-02	2.383334e-01
362           	-7.210918e-02	6.952206e-01	3.228744e-01	8.932800e-02	2.335464e-01