# p  POINT_DATA 90431
# x  y  z  p
4 0 0 -0.314711
4 0.00256965 0 -0.314708
4 0.00518642 0 -0.31483
4 0.00785119 0 -0.31513
4 0.00128135 -0.00996393 -0.318764
4 0.00128135 0.00996393 -0.310635
4 0.0105648 0 -0.315539
4 0.00386754 -0.00996393 -0.318709
4 0.00386754 0.00996393 -0.310673
4 0.00650117 -0.00996393 -0.319019
4 0.00650117 0.00996393 -0.310867
4 0.0133283 0 -0.31607
4 0.00918311 -0.00996393 -0.31946
4 0.00918311 0.00996393 -0.311131
4 0.0119142 -0.00996393 -0.32005
4 0.0119142 0.00996393 -0.311483
4 0.0161424 0 -0.316732
4 0.0146954 -0.00996393 -0.320801
4 0.0146954 0.00996393 -0.311932
4 0.0190081 0 -0.31753
4 0 -0.02 -0.321205
4 0 0.02 -0.306261
4 0.0175277 -0.00996393 -0.321716
4 0.0175277 0.00996393 -0.312488
4 0.00256965 -0.02 -0.321158
4 0.00256965 0.02 -0.306299
4 0.00518642 -0.02 -0.321275
4 0.00518642 0.02 -0.306414
4 0.00785119 -0.02 -0.321676
4 0.00785119 0.02 -0.306597
4 0.0219263 0 -0.318452
4 0.0105648 -0.02 -0.322233
4 0.0105648 0.02 -0.306842
4 0.0204118 -0.00996393 -0.322788
4 0.0204118 0.00996393 -0.31316
4 0.0133283 -0.02 -0.322958
4 0.0133283 0.02 -0.30716
4 0.0248981 0 -0.319474
4 0.0233489 -0.00996393 -0.323975
4 0.0233489 0.00996393 -0.313947
4 0.0161424 -0.02 -0.323855
4 0.0161424 0.02 -0.307562
4 0.0190081 -0.02 -0.324915
4 0.0190081 0.02 -0.308058
4 0.0279244 0 -0.32056
4 0.0263398 -0.00996393 -0.325244
4 0.0263398 0.00996393 -0.314823
4 0.0219263 -0.02 -0.32611
4 0.0219263 0.02 -0.308655
4 0.00128135 -0.0298918 -0.323603
4 0.00128135 0.0298918 -0.301835
4 0.00386754 -0.0298918 -0.323466
4 0.00386754 0.0298918 -0.301941
4 0.00650117 -0.0298918 -0.323816
4 0.00650117 0.0298918 -0.302059
4 0.0310063 0 -0.321652
4 0.0293856 -0.00996393 -0.326562
4 0.0293856 0.00996393 -0.315732
4 0.00918311 -0.0298918 -0.324332
4 0.00918311 0.0298918 -0.302219
4 0.0248981 -0.02 -0.327397
4 0.0248981 0.02 -0.309344
4 0.0119142 -0.0298918 -0.325027
4 0.0119142 0.0298918 -0.30243
4 0.0146954 -0.0298918 -0.325913
4 0.0146954 0.0298918 -0.302701
4 0.0324873 -0.00996393 -0.327849
4 0.0324873 0.00996393 -0.316614
4 0.0341446 0 -0.322681
4 0.0279244 -0.02 -0.328734
4 0.0279244 0.02 -0.310092
4 0.0175277 -0.0298918 -0.326976
4 0.0175277 0.0298918 -0.303045
4 0.0204118 -0.0298918 -0.328192
4 0.0204118 0.0298918 -0.303475
4 0.0310063 -0.02 -0.330071
4 0.0310063 0.02 -0.310849
4 0.0356458 -0.00996393 -0.329025
4 0.0356458 0.00996393 -0.31741
4 0.0373405 0 -0.323581
4 0.0233489 -0.0298918 -0.32953
4 0.0233489 0.0298918 -0.303997
4 0.0341446 -0.02 -0.331335
4 0.0341446 0.02 -0.311561
4 0.0263398 -0.0298918 -0.330919
4 0.0263398 0.0298918 -0.304593
4 0 0.04 -0.297216
4 0 -0.04 -0.323228
4 0.00256965 0.04 -0.297273
4 0.00256965 -0.04 -0.323162
4 0.0388623 -0.00996393 -0.330022
4 0.0388623 0.00996393 -0.318061
4 0.00518642 0.04 -0.297369
4 0.00518642 -0.04 -0.323249
4 0.040595 0 -0.324293
4 0.00785119 -0.04 -0.32364
4 0.00785119 0.04 -0.297467
4 0.0105648 -0.04 -0.324198
4 0.0105648 0.04 -0.297605
4 0.0293856 -0.0298918 -0.332323
4 0.0293856 0.0298918 -0.305226
4 0.0133283 -0.04 -0.324936
4 0.0133283 0.04 -0.297793
4 0.0373405 -0.02 -0.332453
4 0.0373405 0.02 -0.312167
4 0.0161424 -0.04 -0.32585
4 0.0161424 0.04 -0.298046
4 0.0421378 -0.00996393 -0.330786
4 0.0421378 0.00996393 -0.318515
4 0.0439092 0 -0.324782
4 0.0324873 -0.0298918 -0.333691
4 0.0324873 0.0298918 -0.305851
4 0.0190081 0.04 -0.298378
4 0.0190081 -0.04 -0.326923
4 0.040595 -0.02 -0.333364
4 0.040595 0.02 -0.31261
4 0.0219263 0.04 -0.298802
4 0.0219263 -0.04 -0.328129
4 0.0356458 -0.0298918 -0.334947
4 0.0356458 0.0298918 -0.306409
4 0.0454733 0.00996393 -0.318752
4 0.0454733 -0.00996393 -0.331297
4 0.0248981 0.04 -0.299316
4 0.0248981 -0.04 -0.329426
4 0.0472842 0 -0.325037
4 0.0439092 -0.02 -0.334044
4 0.0439092 0.02 -0.312836
4 0.0279244 0.04 -0.299897
4 0.0279244 -0.04 -0.330766
4 0.0388623 -0.0298918 -0.336018
4 0.0388623 0.0298918 -0.306841
4 0.00128135 0.0498197 -0.292504
4 0.00128135 -0.0498197 -0.322734
4 0.0488701 -0.00996393 -0.331567
4 0.0488701 0.00996393 -0.318765
4 0.00386754 0.0498197 -0.292616
4 0.00386754 -0.0498197 -0.322597
4 0.00650117 -0.0498197 -0.322867
4 0.00650117 0.0498197 -0.29266
4 0.0310063 0.04 -0.300509
4 0.0310063 -0.04 -0.332101
4 0.00918311 -0.0498197 -0.3233
4 0.00918311 0.0498197 -0.29273
4 0.0507211 0 -0.325086
4 0.0119142 0.0498197 -0.292843
4 0.0119142 -0.0498197 -0.323901
4 0.0472842 -0.02 -0.334496
4 0.0472842 0.02 -0.312819
4 0.0421378 -0.0298918 -0.336859
4 0.0421378 0.0298918 -0.307075
4 0.0146954 -0.0498197 -0.324681
4 0.0146954 0.0498197 -0.29301
4 0.0341446 0.04 -0.301102
4 0.0341446 -0.04 -0.333378
4 0.0175277 -0.0498197 -0.325627
4 0.0175277 0.0498197 -0.293247
4 0.0523291 -0.00996393 -0.33168
4 0.0523291 0.00996393 -0.318578
4 0.0204118 0.0498197 -0.293579
4 0.0204118 -0.0498197 -0.326712
4 0.054221 0 -0.324994
4 0.0454733 -0.0298918 -0.33749
4 0.0454733 0.0298918 -0.307052
4 0.0507211 -0.02 -0.334771
4 0.0507211 0.02 -0.312559
4 0.0373405 0.04 -0.301609
4 0.0373405 -0.04 -0.334543
4 0.0233489 0.0498197 -0.294013
4 0.0233489 -0.0498197 -0.327916
4 0.0263398 0.0498197 -0.294542
4 0.0263398 -0.0498197 -0.329196
4 0.0558515 -0.00996393 -0.331739
4 0.0558515 0.00996393 -0.318241
4 0.040595 0.04 -0.301967
4 0.040595 -0.04 -0.335545
4 0.0488701 0.0298918 -0.306745
4 0.0488701 -0.0298918 -0.337915
4 0.0577851 0 -0.324845
4 0.054221 -0.02 -0.335013
4 0.054221 0.02 -0.312091
4 0.0293856 0.0498197 -0.295131
4 0.0293856 -0.0498197 -0.330503
4 0.0439092 0.04 -0.302111
4 0.0439092 -0.04 -0.336403
4 0.0324873 0.0498197 -0.295751
4 0.0324873 -0.0498197 -0.331786
4 0 0.06 -0.288087
4 0 -0.06 -0.320309
4 0.00256965 0.06 -0.288139
4 0.00256965 -0.06 -0.320254
4 0.00518642 0.06 -0.288189
4 0.00518642 -0.06 -0.320304
4 0.0523291 -0.0298918 -0.338248
4 0.0523291 0.0298918 -0.306174
4 0.0594386 -0.00996393 -0.331815
4 0.0594386 0.00996393 -0.317864
4 0.00785119 0.06 -0.288196
4 0.00785119 -0.06 -0.32059
4 0.0105648 0.06 -0.288226
4 0.0105648 -0.06 -0.321024
4 0.0577851 -0.02 -0.335326
4 0.0577851 0.02 -0.311483
4 0.0356458 0.0498197 -0.296333
4 0.0356458 -0.0498197 -0.333007
4 0.0614146 0 -0.324782
4 0.0133283 0.06 -0.288298
4 0.0133283 -0.06 -0.321614
4 0.0472842 0.04 -0.302
4 0.0472842 -0.04 -0.337238
4 0.0161424 0.06 -0.288426
4 0.0161424 -0.06 -0.322362
4 0.0190081 0.06 -0.288635
4 0.0190081 -0.06 -0.323254
4 0.0388623 0.0498197 -0.2968
4 0.0388623 -0.0498197 -0.334141
4 0.0558515 -0.0298918 -0.338769
4 0.0558515 0.0298918 -0.305381
4 0.0630915 -0.00996393 -0.33216
4 0.0630915 0.00996393 -0.317602
4 0.0219263 0.06 -0.288944
4 0.0219263 -0.06 -0.324272
4 0.0614146 -0.02 -0.335717
4 0.0614146 0.02 -0.310838
4 0.0507211 0.04 -0.301627
4 0.0507211 -0.04 -0.338103
4 0.0248981 0.06 -0.289359
4 0.0248981 -0.06 -0.325394
4 0.0651106 0 -0.324938
4 0.0421378 0.0498197 -0.297098
4 0.0421378 -0.0498197 -0.335128
4 0.0279244 0.06 -0.289855
4 0.0279244 -0.06 -0.326587
4 0.0594386 -0.0298918 -0.339439
4 0.0594386 0.0298918 -0.304443
4 0.054221 0.04 -0.300984
4 0.054221 -0.04 -0.338948
4 0.0454733 0.0498197 -0.297154
4 0.0454733 -0.0498197 -0.336145
4 0.0310063 0.06 -0.290387
4 0.0310063 -0.06 -0.327813
4 0.0668113 -0.00996393 -0.332783
4 0.0668113 0.00996393 -0.317579
4 0.0651106 -0.02 -0.336216
4 0.0651106 0.02 -0.310268
4 0.0688745 0 -0.325314
4 0.0341446 0.06 -0.290905
4 0.0341446 -0.06 -0.329041
4 0.00128135 0.0697475 -0.28353
4 0.00128135 -0.0697475 -0.317676
4 0.0488701 0.0498197 -0.296964
4 0.0488701 -0.0498197 -0.33749
4 0.0630915 -0.0298918 -0.339996
4 0.0630915 0.0298918 -0.303436
4 0.00386754 0.0697475 -0.283616
4 0.00386754 -0.0697475 -0.31758
4 0.00650117 0.0697475 -0.28357
4 0.00650117 -0.0697475 -0.317736
4 0.0577851 0.04 -0.300085
4 0.0577851 -0.04 -0.339764
4 0.00918311 0.0697475 -0.283526
4 0.00918311 -0.0697475 -0.318021
4 0.0373405 0.06 -0.291354
4 0.0373405 -0.06 -0.330257
4 0.0119142 0.0697475 -0.283509
4 0.0119142 -0.0697475 -0.318438
4 0.0146954 0.0697475 -0.283535
4 0.0146954 -0.0697475 -0.319
4 0.0705994 -0.00996393 -0.333423
4 0.0705994 0.00996393 -0.317912
4 0.0688745 -0.02 -0.336839
4 0.0688745 0.02 -0.309881
4 0.0175277 0.0697475 -0.283624
4 0.0175277 -0.0697475 -0.319705
4 0.0523291 0.0498197 -0.296508
4 0.0523291 -0.0498197 -0.338958
4 0.040595 0.06 -0.291682
4 0.040595 -0.06 -0.33145
4 0.0204118 0.0697475 -0.283808
4 0.0204118 -0.0697475 -0.320541
4 0.0727073 0 -0.325917
4 0.0668113 -0.0298918 -0.34054
4 0.0668113 0.0298918 -0.302464
4 0.0614146 0.04 -0.298993
4 0.0614146 -0.04 -0.340601
4 0.0233489 0.0697475 -0.284112
4 0.0233489 -0.0697475 -0.321493
4 0.0439092 0.06 -0.291818
4 0.0439092 -0.06 -0.332671
4 0.0263398 0.0697475 -0.284523
4 0.0263398 -0.0697475 -0.32255
4 0.0558515 0.0498197 -0.295716
4 0.0558515 -0.0498197 -0.340129
4 0.074457 -0.00996393 -0.334302
4 0.074457 0.00996393 -0.318547
4 0.0727073 -0.02 -0.337648
4 0.0727073 0.02 -0.309736
4 0.0293856 0.0697475 -0.284995
4 0.0293856 -0.0697475 -0.323686
4 0.0472842 0.06 -0.291657
4 0.0472842 -0.06 -0.334052
4 0.0651106 0.04 -0.297802
4 0.0651106 -0.04 -0.341505
4 0.0766105 0 -0.326807
4 0.0705994 -0.0298918 -0.341252
4 0.0705994 0.0298918 -0.301614
4 0.0324873 0.0697475 -0.285461
4 0.0324873 -0.0697475 -0.324874
4 0.0594386 0.0498197 -0.294609
4 0.0594386 -0.0498197 -0.341126
4 0.0356458 0.0697475 -0.285874
4 0.0356458 -0.0697475 -0.326111
4 0.0507211 0.06 -0.291162
4 0.0507211 -0.06 -0.335645
4 0.0783853 -0.00996393 -0.335467
4 0.0783853 0.00996393 -0.319491
4 0.0766105 -0.02 -0.3387
4 0.0766105 0.02 -0.309859
4 0.0688745 -0.04 -0.342529
4 0.0688745 0.04 -0.296614
4 0.0388623 0.0697475 -0.28621
4 0.0388623 -0.0697475 -0.327412
4 0 0.08 -0.28119
4 0 -0.08 -0.314645
4 0.00256965 0.08 -0.281222
4 0.00256965 -0.08 -0.314608
4 0.00518642 0.08 -0.28123
4 0.00518642 -0.08 -0.31462
4 0.074457 -0.0298918 -0.342246
4 0.074457 0.0298918 -0.300967
4 0.00785119 0.08 -0.281191
4 0.00785119 -0.08 -0.314784
4 0.0630915 0.0498197 -0.293269
4 0.0630915 -0.0498197 -0.342298
4 0.0805853 0 -0.327926
4 0.0105648 0.08 -0.281176
4 0.0105648 -0.08 -0.315068
4 0.054221 0.06 -0.290369
4 0.054221 -0.06 -0.337339
4 0.0133283 0.08 -0.28121
4 0.0133283 -0.08 -0.315483
4 0.0421378 0.0697475 -0.286417
4 0.0421378 -0.0697475 -0.328805
4 0.0161424 0.08 -0.281318
4 0.0161424 -0.08 -0.316037
4 0.0190081 0.08 -0.281526
4 0.0190081 -0.08 -0.316727
4 0.0219263 0.08 -0.28186
4 0.0219263 -0.08 -0.317544
4 0.0727073 -0.04 -0.343654
4 0.0727073 0.04 -0.295519
4 0.0823856 -0.00996393 -0.336798
4 0.0823856 0.00996393 -0.320581
4 0.0805853 -0.02 -0.339841
4 0.0805853 0.02 -0.310232
4 0.0454733 0.0697475 -0.286385
4 0.0454733 -0.0697475 -0.33036
4 0.0577851 0.06 -0.289269
4 0.0577851 -0.06 -0.339018
4 0.0668113 -0.0498197 -0.343624
4 0.0668113 0.0498197 -0.291816
4 0.0248981 0.08 -0.28232
4 0.0248981 -0.08 -0.318475
4 0.0783853 -0.0298918 -0.343405
4 0.0783853 0.0298918 -0.300595
4 0.0846329 0 -0.329106
4 0.0279244 0.08 -0.282875
4 0.0279244 -0.08 -0.319501
4 0.0488701 0.0697475 -0.285887
4 0.0488701 -0.0697475 -0.332069
4 0.0310063 0.08 -0.28347
4 0.0310063 -0.08 -0.320605
4 0.0614146 0.06 -0.287873
4 0.0614146 -0.06 -0.3407
4 0.0705994 -0.0498197 -0.34508
4 0.0705994 0.0498197 -0.290342
4 0.0766105 -0.04 -0.344739
4 0.0766105 0.04 -0.29461
4 0.0846329 -0.02 -0.340813
4 0.0846329 0.02 -0.310787
4 0.0341446 0.08 -0.284052
4 0.0341446 -0.08 -0.321784
4 0.0864594 -0.00996393 -0.338026
4 0.0864594 0.00996393 -0.321689
4 0.0523291 0.0697475 -0.28503
4 0.0523291 -0.0697475 -0.334027
4 0.0823856 -0.0298918 -0.344309
4 0.0823856 0.0298918 -0.300493
4 0.0373405 0.08 -0.284569
4 0.0373405 -0.08 -0.323063
4 0.0651106 0.06 -0.286261
4 0.0651106 -0.06 -0.342398
4 0.0887548 0 -0.330167
4 0.0558515 0.0697475 -0.283933
4 0.0558515 -0.0697475 -0.336293
4 0.074457 -0.0498197 -0.346383
4 0.074457 0.0498197 -0.288957
4 0.00128135 0.0896754 -0.278644
4 0.00128135 -0.0896754 -0.311355
4 0.040595 0.08 -0.284958
4 0.040595 -0.08 -0.324485
4 0.00386754 0.0896754 -0.278676
4 0.00386754 -0.0896754 -0.311283
4 0.00650117 0.0896754 -0.278633
4 0.00650117 -0.0896754 -0.311337
4 0.0805853 -0.04 -0.345602
4 0.0805853 0.04 -0.293951
4 0.00918311 -0.0896754 -0.311493
4 0.00918311 0.0896754 -0.278604
4 0.0119142 0.0896754 -0.278623
4 0.0119142 -0.0896754 -0.311764
4 0.0146954 0.0896754 -0.278722
4 0.0146954 -0.0896754 -0.312165
4 0.0887548 0.02 -0.311488
4 0.0887548 -0.02 -0.34144
4 0.0906078 -0.00996393 -0.338919
4 0.0906078 0.00996393 -0.32272
4 0.0439092 0.08 -0.285129
4 0.0439092 -0.08 -0.326105
4 0.0688745 0.06 -0.284532
4 0.0688745 -0.06 -0.344047
4 0.0175277 0.0896754 -0.278926
4 0.0175277 -0.0896754 -0.312704
4 0.0864594 -0.0298918 -0.344726
4 0.0864594 0.0298918 -0.300682
4 0.0594386 0.0697475 -0.28248
4 0.0594386 -0.0697475 -0.338636
4 0.0204118 0.0896754 -0.279269
4 0.0204118 -0.0896754 -0.313378
4 0.0233489 0.0896754 -0.279765
4 0.0233489 -0.0896754 -0.314177
4 0.0783853 -0.0498197 -0.347274
4 0.0783853 0.0498197 -0.287757
4 0.0472842 0.08 -0.284943
4 0.0472842 -0.08 -0.327959
4 0.0929523 0 -0.330938
4 0.0263398 0.0896754 -0.280391
4 0.0263398 -0.0896754 -0.315084
4 0.0846329 0.04 -0.293593
4 0.0846329 -0.04 -0.346085
4 0.0630915 0.0697475 -0.280747
4 0.0630915 -0.0697475 -0.340881
4 0.0727073 0.06 -0.282831
4 0.0727073 -0.06 -0.345506
4 0.0293856 0.0896754 -0.281095
4 0.0293856 -0.0896754 -0.316086
4 0.0507211 0.08 -0.284307
4 0.0507211 -0.08 -0.330056
4 0.0929523 0.02 -0.312311
4 0.0929523 -0.02 -0.341598
4 0.0948324 -0.00996393 -0.339181
4 0.0948324 0.00996393 -0.323617
4 0.0324873 0.0896754 -0.281826
4 0.0324873 -0.0896754 -0.317182
4 0.0906078 -0.0298918 -0.344685
4 0.0906078 0.0298918 -0.301214
4 0.0823856 -0.0498197 -0.347797
4 0.0823856 0.0498197 -0.286835
4 0.0356458 0.0896754 -0.282529
4 0.0356458 -0.0896754 -0.318399
4 0.0668113 0.0697475 -0.278783
4 0.0668113 -0.0697475 -0.342937
4 0.054221 0.08 -0.283258
4 0.054221 -0.08 -0.332385
4 0.0972268 0 -0.331268
4 0.0766105 0.06 -0.281279
4 0.0766105 -0.06 -0.346595
4 0.0887548 0.04 -0.293591
4 0.0887548 -0.04 -0.346112
4 0.0388623 0.0896754 -0.283123
4 0.0388623 -0.0896754 -0.319796
4 0.0577851 0.08 -0.281808
4 0.0577851 -0.08 -0.334827
4 0.0421378 0.0896754 -0.283505
4 0.0421378 -0.0896754 -0.321448
4 0.0705994 0.0697475 -0.276732
4 0.0705994 -0.0697475 -0.344705
4 0.0972268 0.02 -0.313218
4 0.0972268 -0.02 -0.341182
4 0.0948324 -0.0298918 -0.344184
4 0.0948324 0.0298918 -0.302108
4 0.0991344 -0.00996393 -0.338657
4 0.0991344 0.00996393 -0.324294
4 0.0864594 0.0498197 -0.28628
4 0.0864594 -0.0498197 -0.347914
4 0 0.1 -0.279269
4 0 -0.1 -0.308394
4 0.00256965 0.1 -0.279261
4 0.00256965 -0.1 -0.308357
4 0.00518642 0.1 -0.279263
4 0.00518642 -0.1 -0.308325
4 0.00785119 0.1 -0.279315
4 0.00785119 -0.1 -0.308396
4 0.0805853 0.06 -0.279946
4 0.0805853 -0.06 -0.34725
4 0.0454733 0.0896754 -0.283575
4 0.0454733 -0.0896754 -0.323407
4 0.0105648 0.1 -0.279442
4 0.0105648 -0.1 -0.308578
4 0.0614146 0.08 -0.279924
4 0.0614146 -0.08 -0.337209
4 0.0133283 0.1 -0.27969
4 0.0133283 -0.1 -0.308893
4 0.0929523 0.04 -0.293979
4 0.0929523 -0.04 -0.345684
4 0.0161424 0.1 -0.280097
4 0.0161424 -0.1 -0.309357
4 0.10158 0 -0.331135
4 0.0190081 0.1 -0.280689
4 0.0190081 -0.1 -0.309978
4 0.074457 0.0697475 -0.27482
4 0.074457 -0.0697475 -0.34605
4 0.0488701 0.0896754 -0.283198
4 0.0488701 -0.0896754 -0.325678
4 0.0219263 0.1 -0.281467
4 0.0219263 -0.1 -0.310749
4 0.0248981 0.1 -0.282414
4 0.0248981 -0.1 -0.31165
4 0.0651106 0.08 -0.277627
4 0.0651106 -0.08 -0.339403
4 0.0906078 0.0498197 -0.286156
4 0.0906078 -0.0498197 -0.347556
4 0.10158 0.02 -0.314109
4 0.10158 -0.02 -0.340245
4 0.0991344 0.0298918 -0.303337
4 0.0991344 -0.0298918 -0.343266
4 0.0846329 0.06 -0.278912
4 0.0846329 -0.06 -0.347471
4 0.0279244 0.1 -0.283516
4 0.0279244 -0.1 -0.312656
4 0.0523291 0.0896754 -0.282274
4 0.0523291 -0.0896754 -0.328203
4 0.103515 -0.00996393 -0.337613
4 0.103515 0.00996393 -0.324636
4 0.0310063 0.1 -0.284693
4 0.0310063 -0.1 -0.313744
4 0.0783853 0.0697475 -0.273103
4 0.0783853 -0.0697475 -0.346918
4 0.0972268 0.04 -0.294748
4 0.0972268 -0.04 -0.344838
4 0.0688745 0.08 -0.275076
4 0.0688745 -0.08 -0.341303
4 0.0558515 0.0896754 -0.280845
4 0.0558515 -0.0896754 -0.330835
4 0.0341446 0.1 -0.285825
4 0.0341446 -0.1 -0.314914
4 0.106012 0 -0.330629
4 0.0373405 0.1 -0.286827
4 0.0373405 -0.1 -0.3162
4 0.0948324 0.0498197 -0.286476
4 0.0948324 -0.0498197 -0.346766
4 0.0887548 0.06 -0.278247
4 0.0887548 -0.06 -0.34724
4 0.0594386 0.0896754 -0.278941
4 0.0594386 -0.0896754 -0.333424
4 0.103515 -0.0298918 -0.341988
4 0.103515 0.0298918 -0.30472
4 0.106012 -0.02 -0.338953
4 0.106012 0.02 -0.314852
4 0.040595 0.1 -0.287616
4 0.040595 -0.1 -0.317668
4 0.0823856 0.0697475 -0.271629
4 0.0823856 -0.0697475 -0.347302
4 0.0727073 0.08 -0.272475
4 0.0727073 -0.08 -0.342806
4 0.107977 -0.00996393 -0.336287
4 0.107977 0.00996393 -0.324607
4 0.10158 0.04 -0.295795
4 0.10158 -0.04 -0.343632
4 0.0439092 0.1 -0.288087
4 0.0439092 -0.1 -0.319381
4 0.00128135 0.109603 -0.279635
4 0.00128135 -0.109603 -0.305156
4 0.0630915 0.0896754 -0.276439
4 0.0630915 -0.0896754 -0.335844
4 0.00386754 0.109603 -0.279564
4 0.00386754 -0.109603 -0.305058
4 0.00650117 0.109603 -0.279655
4 0.00650117 -0.109603 -0.305042
4 0.00918311 0.109603 -0.279833
4 0.00918311 -0.109603 -0.305126
4 0.0119142 0.109603 -0.280156
4 0.0119142 -0.109603 -0.305337
4 0.110526 0 -0.32985
4 0.0146954 0.109603 -0.280684
4 0.0146954 -0.109603 -0.305704
4 0.0472842 0.1 -0.288105
4 0.0472842 -0.1 -0.321354
4 0.0929523 0.06 -0.277988
4 0.0929523 -0.06 -0.346585
4 0.0766105 0.08 -0.269926
4 0.0766105 -0.08 -0.34385
4 0.0991344 0.0498197 -0.287209
4 0.0991344 -0.0498197 -0.345611
4 0.0175277 0.109603 -0.281454
4 0.0175277 -0.109603 -0.306245
4 0.0864594 0.0697475 -0.270482
4 0.0864594 -0.0697475 -0.347196
4 0.0204118 -0.109603 -0.306963
4 0.0204118 0.109603 -0.282465
4 0.0668113 0.0896754 -0.273421
4 0.0668113 -0.0896754 -0.337964
4 0.107977 -0.0298918 -0.340448
4 0.107977 0.0298918 -0.306041
4 0.0233489 0.109603 -0.283684
4 0.0233489 -0.109603 -0.307841
4 0.0507211 0.1 -0.287624
4 0.0507211 -0.1 -0.323557
4 0.110526 -0.02 -0.337447
4 0.110526 0.02 -0.315367
4 0.0263398 0.109603 -0.285086
4 0.0263398 -0.109603 -0.308847
4 0.11252 -0.00996393 -0.334777
4 0.11252 0.00996393 -0.3243
4 0.106012 -0.04 -0.342141
4 0.106012 0.04 -0.296915
4 0.0293856 0.109603 -0.286704
4 0.0293856 -0.109603 -0.309941
4 0.0805853 0.08 -0.267521
4 0.0805853 -0.08 -0.344431
4 0.054221 0.1 -0.286503
4 0.054221 -0.1 -0.325901
4 0.0705994 0.0896754 -0.270239
4 0.0705994 -0.0896754 -0.339681
4 0.0972268 0.06 -0.278127
4 0.0972268 -0.06 -0.345573
4 0.0324873 0.109603 -0.288292
4 0.0324873 -0.109603 -0.311097
4 0.0906078 0.0697475 -0.269711
4 0.0906078 -0.0697475 -0.346653
4 0.103515 -0.0498197 -0.344148
4 0.103515 0.0498197 -0.288165
4 0.115123 0 -0.328903
4 0.0356458 0.109603 -0.289717
4 0.0356458 -0.109603 -0.312317
4 0.0577851 0.1 -0.284636
4 0.0577851 -0.1 -0.328251
4 0.0388623 0.109603 -0.29091
4 0.0388623 -0.109603 -0.313654
4 0.11252 -0.0298918 -0.338774
4 0.11252 0.0298918 -0.307125
4 0.0846329 0.08 -0.265391
4 0.0846329 -0.08 -0.344565
4 0.074457 0.0896754 -0.266978
4 0.074457 -0.0896754 -0.340911
4 0.115123 -0.02 -0.335845
4 0.115123 0.02 -0.315658
4 0.0614146 0.1 -0.282058
4 0.0614146 -0.1 -0.330489
4 0.0421378 0.109603 -0.2918
4 0.0421378 -0.109603 -0.315187
4 0.110526 -0.04 -0.34047
4 0.110526 0.04 -0.297933
4 0.117146 -0.00996393 -0.333219
4 0.117146 0.00996393 -0.323824
4 0.0948324 0.0697475 -0.269331
4 0.0948324 -0.0697475 -0.345761
4 0.10158 0.06 -0.278602
4 0.10158 -0.06 -0.344272
4 0.0454733 0.109603 -0.292232
4 0.0454733 -0.109603 -0.316957
4 0.107977 -0.0498197 -0.342476
4 0.107977 0.0498197 -0.289092
4 0.0783853 0.0896754 -0.263695
4 0.0783853 -0.0896754 -0.341684
4 0.0651106 0.1 -0.278852
4 0.0651106 -0.1 -0.332531
4 0.0887548 0.08 -0.263646
4 0.0887548 -0.08 -0.3443
4 0.119804 -3.70074e-17 -0.327904
4 0 0.12 -0.281596
4 0 -0.12 -0.302422
4 0.0488701 0.109603 -0.292054
4 0.0488701 -0.109603 -0.318928
4 0.00256965 0.12 -0.281514
4 0.00256965 -0.12 -0.302365
4 0.00518642 0.12 -0.281518
4 0.00518642 -0.12 -0.302286
4 0.00785119 0.12 -0.281765
4 0.00785119 -0.12 -0.302302
4 0.0105648 0.12 -0.282186
4 0.0105648 -0.12 -0.302435
4 0.0133283 0.12 -0.282853
4 0.0133283 -0.12 -0.302714
4 0.117146 -0.0298918 -0.337082
4 0.117146 0.0298918 -0.307948
4 0.0161424 0.12 -0.283827
4 0.0161424 -0.12 -0.303169
4 0.0991344 0.0697475 -0.26932
4 0.0991344 -0.0697475 -0.344587
4 0.0688745 0.1 -0.275219
4 0.0688745 -0.1 -0.334279
4 0.0523291 0.109603 -0.291447
4 0.0523291 -0.109603 -0.321045
4 0.119804 -0.02 -0.334266
4 0.119804 0.02 -0.315768
4 0.0190081 0.12 -0.285126
4 0.0190081 -0.12 -0.303819
4 0.0823856 0.0896754 -0.260602
4 0.0823856 -0.0896754 -0.342018
4 0.106012 -0.06 -0.342762
4 0.106012 0.06 -0.279277
4 0.115123 -0.04 -0.338728
4 0.115123 0.04 -0.298821
4 0.0219263 0.12 -0.286726
4 0.0219263 -0.12 -0.304663
4 0.121857 -0.00996393 -0.331757
4 0.121857 0.00996393 -0.323264
4 0.0248981 0.12 -0.288575
4 0.0248981 -0.12 -0.305678
4 0.0929523 0.08 -0.262352
4 0.0929523 -0.08 -0.343716
4 0.0558515 0.109603 -0.289774
4 0.0558515 -0.109603 -0.323216
4 0.11252 0.0498197 -0.289899
4 0.11252 -0.0498197 -0.340689
4 0.0279244 0.12 -0.290603
4 0.0279244 -0.12 -0.306819
4 0.0727073 0.1 -0.271341
4 0.0727073 -0.1 -0.335643
4 0.0310063 0.12 -0.292676
4 0.0310063 -0.12 -0.308031
4 0.0864594 0.0896754 -0.257879
4 0.0864594 -0.0896754 -0.341978
4 0.124571 0 -0.326952
4 0.0594386 0.109603 -0.287199
4 0.0594386 -0.109603 -0.325286
4 0.0341446 0.12 -0.294621
4 0.0341446 -0.12 -0.309277
4 0.103515 -0.0697475 -0.343209
4 0.103515 0.0697475 -0.269658
4 0.121857 -0.0298918 -0.335455
4 0.121857 0.0298918 -0.308545
4 0.0373405 0.12 -0.296304
4 0.0373405 -0.12 -0.310553
4 0.110526 -0.06 -0.341135
4 0.110526 0.06 -0.280031
4 0.0972268 0.08 -0.261527
4 0.0972268 -0.08 -0.342895
4 0.0766105 0.1 -0.26737
4 0.0766105 -0.1 -0.336612
4 0.124571 -0.02 -0.332802
4 0.124571 0.02 -0.315757
4 0.119804 -0.04 -0.337006
4 0.119804 0.04 -0.299617
4 0.0630915 0.109603 -0.283787
4 0.0630915 -0.109603 -0.327218
4 0.040595 0.12 -0.297612
4 0.040595 -0.12 -0.3119
4 0.126655 -0.00996393 -0.330486
4 0.126655 0.00996393 -0.322702
4 0.117146 0.0498197 -0.290769
4 0.117146 -0.0498197 -0.338884
4 0.0906078 0.0896754 -0.255643
4 0.0906078 -0.0896754 -0.341644
4 0.0439092 0.12 -0.298409
4 0.0439092 -0.12 -0.313372
4 0.0668113 0.109603 -0.279834
4 0.0668113 -0.109603 -0.32897
4 0.0805853 0.1 -0.263497
4 0.0805853 -0.1 -0.337232
4 0.107977 -0.0697475 -0.341716
4 0.107977 0.0697475 -0.270251
4 0.0472842 0.12 -0.298538
4 0.0472842 -0.12 -0.314999
4 0.10158 0.08 -0.261159
4 0.10158 -0.08 -0.341913
4 0.129426 0 -0.326098
4 0.00128135 0.129531 -0.283373
4 0.00128135 -0.129531 -0.299405
4 0.00386754 0.129531 -0.283115
4 0.00386754 -0.129531 -0.299255
4 0.00650117 0.129531 -0.283375
4 0.00650117 -0.129531 -0.299199
4 0.115123 -0.06 -0.339479
4 0.115123 0.06 -0.280841
4 0.00918311 0.129531 -0.283828
4 0.00918311 -0.129531 -0.299249
4 0.0119142 0.129531 -0.284551
4 0.0119142 -0.129531 -0.299432
4 0.126655 -0.0298918 -0.333953
4 0.126655 0.0298918 -0.308982
4 0.0507211 0.12 -0.297959
4 0.0507211 -0.12 -0.31676
4 0.0146954 0.129531 -0.285638
4 0.0146954 -0.129531 -0.299785
4 0.0705994 0.109603 -0.275414
4 0.0705994 -0.109603 -0.330425
4 0.0948324 0.0896754 -0.253977
4 0.0948324 -0.0896754 -0.34111
4 0.0175277 0.129531 -0.287134
4 0.0175277 -0.129531 -0.300343
4 0.124571 -0.04 -0.335365
4 0.124571 0.04 -0.300275
4 0.129426 -0.02 -0.3315
4 0.129426 0.02 -0.315656
4 0.0846329 0.1 -0.259928
4 0.0846329 -0.1 -0.33757
4 0.0204118 0.129531 -0.289027
4 0.0204118 -0.129531 -0.301123
4 0.0233489 0.129531 -0.291271
4 0.0233489 -0.129531 -0.302119
4 0.121857 -0.0498197 -0.337137
4 0.121857 0.0498197 -0.291682
4 0.054221 0.12 -0.296536
4 0.054221 -0.12 -0.318587
4 0.131541 -0.00996393 -0.329419
4 0.131541 0.00996393 -0.322163
4 0.0263398 0.129531 -0.293749
4 0.0263398 -0.129531 -0.303291
4 0.11252 -0.0697475 -0.340195
4 0.11252 0.0697475 -0.271035
4 0.074457 0.109603 -0.270756
4 0.074457 -0.109603 -0.331527
4 0.106012 -0.08 -0.340848
4 0.106012 0.08 -0.261212
4 0.0293856 0.129531 -0.296295
4 0.0293856 -0.129531 -0.304571
4 0.0577851 0.12 -0.294158
4 0.0577851 -0.12 -0.320383
4 0.0324873 0.129531 -0.298754
4 0.0324873 -0.129531 -0.30588
4 0.0991344 0.0896754 -0.252875
4 0.0991344 -0.0896754 -0.34046
4 0.0887548 0.1 -0.256817
4 0.0887548 -0.1 -0.337705
4 0.119804 -0.06 -0.337871
4 0.119804 0.06 -0.281702
4 0.0356458 0.129531 -0.300958
4 0.0356458 -0.129531 -0.30717
4 0.134369 0 -0.325333
4 0.0783853 0.109603 -0.266094
4 0.0783853 -0.109603 -0.332333
4 0.0614146 0.12 -0.290927
4 0.0614146 -0.12 -0.322093
4 0.131541 -0.0298918 -0.33259
4 0.131541 0.0298918 -0.309219
4 0.0388623 0.129531 -0.302748
4 0.0388623 -0.129531 -0.308434
4 0.129426 -0.04 -0.333837
4 0.129426 0.04 -0.300733
4 0.134369 -0.02 -0.330341
4 0.134369 0.02 -0.31545
4 0.126655 -0.0498197 -0.335472
4 0.126655 0.0498197 -0.292381
4 0.0421378 0.129531 -0.303978
4 0.0421378 -0.129531 -0.309711
4 0.117146 -0.0697475 -0.338713
4 0.117146 0.0697475 -0.271894
4 0.110526 -0.08 -0.339775
4 0.110526 0.08 -0.261621
4 0.0651106 0.12 -0.287012
4 0.0651106 -0.12 -0.323701
4 0.0929523 0.1 -0.254276
4 0.0929523 -0.1 -0.33772
4 0.136516 -0.00996393 -0.3285
4 0.136516 0.00996393 -0.32163
4 0.103515 0.0896754 -0.252327
4 0.103515 -0.0896754 -0.339766
4 0.0823856 0.109603 -0.26169
4 0.0823856 -0.109603 -0.332934
4 0.0454733 0.129531 -0.304472
4 0.0454733 -0.129531 -0.31106
4 0.124571 -0.06 -0.336356
4 0.124571 0.06 -0.282523
4 0.0688745 0.12 -0.282617
4 0.0688745 -0.12 -0.325165
4 0.0488701 0.129531 -0.304093
4 0.0488701 -0.129531 -0.312531
4 0.139403 0 -0.324602
4 0.0972268 0.1 -0.252365
4 0.0972268 -0.1 -0.337692
4 0.0864594 0.109603 -0.257715
4 0.0864594 -0.109603 -0.333418
4 0.0523291 0.129531 -0.302785
4 0.0523291 -0.129531 -0.31408
4 0.136516 -0.0298918 -0.331318
4 0.136516 0.0298918 -0.30922
4 0 0.14 -0.28318
4 0 -0.14 -0.297757
4 0.00256965 0.14 -0.282949
4 0.00256965 -0.14 -0.297714
4 0.00518642 0.14 -0.282849
4 0.00518642 -0.14 -0.297649
4 0.115123 -0.08 -0.338752
4 0.115123 0.08 -0.262313
4 0.134369 -0.04 -0.332415
4 0.134369 0.04 -0.300988
4 0.00785119 0.14 -0.283196
4 0.00785119 -0.14 -0.297644
4 0.0727073 0.12 -0.277938
4 0.0727073 -0.12 -0.326428
4 0.107977 -0.0896754 -0.339097
4 0.107977 0.0896754 -0.252308
4 0.0105648 0.14 -0.283758
4 0.0105648 -0.14 -0.297713
4 0.121857 -0.0697475 -0.337341
4 0.121857 0.0697475 -0.272773
4 0.0133283 0.14 -0.284631
4 0.0133283 -0.14 -0.297886
4 0.131541 -0.0498197 -0.333906
4 0.131541 0.0498197 -0.292856
4 0.139403 -0.02 -0.32926
4 0.139403 0.02 -0.315141
4 0.0161424 0.14 -0.285889
4 0.0161424 -0.14 -0.298211
4 0.0558515 0.129531 -0.300528
4 0.0558515 -0.129531 -0.31561
4 0.0190081 0.14 -0.287552
4 0.0190081 -0.14 -0.298754
4 0.0219263 0.14 -0.289591
4 0.0219263 -0.14 -0.29956
4 0.141583 -0.00996393 -0.327622
4 0.141583 0.00996393 -0.321061
4 0.0248981 0.14 -0.29192
4 0.0248981 -0.14 -0.300624
4 0.0906078 0.109603 -0.254313
4 0.0906078 -0.109603 -0.33387
4 0.0766105 0.12 -0.273205
4 0.0766105 -0.12 -0.327496
4 0.0594386 0.129531 -0.297373
4 0.0594386 -0.129531 -0.317077
4 0.10158 0.1 -0.251083
4 0.10158 -0.1 -0.33767
4 0.129426 -0.06 -0.334942
4 0.129426 0.06 -0.283234
4 0.0279244 0.14 -0.294393
4 0.0279244 -0.14 -0.301895
4 0.0310063 0.14 -0.296832
4 0.0310063 -0.14 -0.303293
4 0.11252 -0.0896754 -0.338507
4 0.11252 0.0896754 -0.252726
4 0.119804 -0.08 -0.337813
4 0.119804 0.08 -0.263183
4 0.0630915 -0.129531 -0.318501
4 0.0630915 0.129531 -0.293451
4 0.0341446 0.14 -0.29908
4 0.0341446 -0.14 -0.304728
4 0.14453 -3.70074e-17 -0.323842
4 0.0805853 0.12 -0.268652
4 0.0805853 -0.12 -0.328447
4 0.126655 -0.0697475 -0.336084
4 0.126655 0.0697475 -0.273634
4 0.141583 -0.0298918 -0.330079
4 0.141583 0.0298918 -0.309095
4 0.0373405 0.14 -0.300999
4 0.0373405 -0.14 -0.306127
4 0.0948324 0.109603 -0.251578
4 0.0948324 -0.109603 -0.334361
4 0.139403 -0.04 -0.331079
4 0.139403 0.04 -0.301102
4 0.136516 0.0498197 -0.293171
4 0.136516 -0.0498197 -0.33244
4 0.106012 -0.1 -0.33768
4 0.106012 0.1 -0.250404
4 0.0668113 0.129531 -0.28896
4 0.0668113 -0.129531 -0.319881
4 0.040595 0.14 -0.302448
4 0.040595 -0.14 -0.307456
4 0.14453 -0.02 -0.328182
4 0.14453 0.02 -0.314763
4 0.0439092 0.14 -0.303275
4 0.0439092 -0.14 -0.308733
4 0.0846329 0.12 -0.26448
4 0.0846329 -0.12 -0.329355
4 0.146742 -0.00996393 -0.326676
4 0.146742 0.00996393 -0.320446
4 0.134369 -0.06 -0.333631
4 0.134369 0.06 -0.283865
4 0.0705994 0.129531 -0.284147
4 0.0705994 -0.129531 -0.3212
4 0.117146 -0.0896754 -0.338017
4 0.117146 0.0896754 -0.253557
4 0.0472842 0.14 -0.303353
4 0.0472842 -0.14 -0.310014
4 0.0991344 0.109603 -0.249573
4 0.0991344 -0.109603 -0.334947
4 0.124571 -0.08 -0.336983
4 0.124571 0.08 -0.264163
4 0.131541 0.0697475 -0.274489
4 0.131541 -0.0697475 -0.33493
4 0.0507211 0.14 -0.302615
4 0.0507211 -0.14 -0.311353
4 0.110526 -0.1 -0.33775
4 0.110526 0.1 -0.250282
4 0.0887548 0.12 -0.260844
4 0.0887548 -0.12 -0.330279
4 0.074457 0.129531 -0.279255
4 0.074457 -0.129531 -0.322406
4 0.00128135 0.149459 -0.283046
4 0.00128135 -0.149459 -0.295775
4 0.00386754 -0.149459 -0.29573
4 0.00386754 0.149459 -0.282373
4 0.00650117 0.149459 -0.282648
4 0.00650117 -0.149459 -0.295709
4 0.00918311 0.149459 -0.283074
4 0.00918311 -0.149459 -0.295712
4 0.14975 0 -0.322983
4 0.146742 -0.0298918 -0.328844
4 0.146742 0.0298918 -0.308916
4 0.0119142 0.149459 -0.283752
4 0.0119142 -0.149459 -0.295755
4 0.14453 -0.04 -0.329814
4 0.14453 0.04 -0.301175
4 0.141583 -0.0498197 -0.331083
4 0.141583 0.0498197 -0.293447
4 0.054221 0.14 -0.301055
4 0.054221 -0.14 -0.31275
4 0.0146954 0.149459 -0.284798
4 0.0146954 -0.149459 -0.295877
4 0.0175277 0.149459 -0.286254
4 0.0175277 -0.149459 -0.296164
4 0.103515 -0.109603 -0.335616
4 0.103515 0.109603 -0.248249
4 0.0204118 0.149459 -0.288112
4 0.0204118 -0.149459 -0.296736
4 0.14975 -0.02 -0.327061
4 0.14975 0.02 -0.314311
4 0.0233489 0.149459 -0.290315
4 0.0233489 -0.149459 -0.297636