# p  POINT_DATA 90431
# x  y  z  p
5 0 0 -0.0442035
5 0.00256965 0 -0.0441961
5 0.00518642 0 -0.0441558
5 0.00785119 0 -0.0440733
5 0.00128482 0.01 -0.0444229
5 0.00128482 -0.01 -0.0439841
5 0.0105648 0 -0.043961
5 0.00387803 0.01 -0.0443963
5 0.00387803 -0.01 -0.0439809
5 0.00651881 0.01 -0.0443217
5 0.00651881 -0.01 -0.0439245
5 0.0133283 0 -0.0438303
5 0.00920802 0.01 -0.0442194
5 0.00920802 -0.01 -0.0438275
5 0.0119465 0.01 -0.0440974
5 0.0119465 -0.01 -0.0436998
5 0.0161424 0 -0.0436963
5 0.0147353 0.01 -0.0439699
5 0.0147353 -0.01 -0.0435542
5 0.0190081 0 -0.043576
5 0 0.02 -0.045585
5 0 -0.02 -0.0450217
5 0.00256965 0.02 -0.0455684
5 0.00256965 -0.02 -0.0450268
5 0.0175752 0.01 -0.0438528
5 0.0175752 -0.01 -0.0434081
5 0.00518642 0.02 -0.0455183
5 0.00518642 -0.02 -0.0450172
5 0.00785119 0.02 -0.0454428
5 0.00785119 -0.02 -0.044972
5 0.0219263 0 -0.043486
5 0.0105648 0.02 -0.0453543
5 0.0105648 -0.02 -0.0448979
5 0.0204672 0.01 -0.0437625
5 0.0204672 -0.01 -0.0432805
5 0.0133283 0.02 -0.045263
5 0.0133283 -0.02 -0.0448009
5 0.0248981 0 -0.0434404
5 0.0234122 0.01 -0.0437132
5 0.0234122 -0.01 -0.0431879
5 0.0161424 0.02 -0.0451816
5 0.0161424 -0.02 -0.0446894
5 0.0190081 0.02 -0.0451228
5 0.0190081 -0.02 -0.0445744
5 0.0279244 0 -0.0434486
5 0.0264113 0.01 -0.0437159
5 0.0264113 -0.01 -0.0431446
5 0.0219263 0.02 -0.0450975
5 0.0219263 -0.02 -0.0444674
5 0.00128482 0.03 -0.0467472
5 0.00128482 -0.03 -0.0460593
5 0.00387803 0.03 -0.0467074
5 0.00387803 -0.03 -0.0460829
5 0.00651881 0.03 -0.046648
5 0.00651881 -0.03 -0.0460805
5 0.0310063 0 -0.0435123
5 0.0294653 0.01 -0.0437765
5 0.0294653 -0.01 -0.0431573
5 0.00920802 0.03 -0.0465822
5 0.00920802 -0.03 -0.0460553
5 0.0248981 0.02 -0.0451147
5 0.0248981 -0.02 -0.044381
5 0.0119465 0.03 -0.0465182
5 0.0119465 -0.03 -0.0460089
5 0.0147353 0.03 -0.0464664
5 0.0147353 -0.03 -0.0459407
5 0.0325754 0.01 -0.043894
5 0.0325754 -0.01 -0.0432214
5 0.0341446 0 -0.0436223
5 0.0279244 0.02 -0.0451812
5 0.0279244 -0.02 -0.0443278
5 0.0175752 0.03 -0.0464373
5 0.0175752 -0.03 -0.0458546
5 0.0204672 0.03 -0.0464386
5 0.0204672 -0.03 -0.0457543
5 0.0310063 0.02 -0.0452996
5 0.0310063 -0.02 -0.0443121
5 0.0357425 0.01 -0.0440566
5 0.0357425 -0.01 -0.0433174
5 0.0373405 0 -0.0437583
5 0.0234122 0.03 -0.0464757
5 0.0234122 -0.03 -0.0456468
5 0.0341446 0.02 -0.0454668
5 0.0341446 -0.02 -0.0443222
5 0.0264113 0.03 -0.0465539
5 0.0264113 -0.03 -0.0455446
5 0 0.04 -0.0486041
5 0 -0.04 -0.0478409
5 0.00256965 0.04 -0.0485862
5 0.00256965 -0.04 -0.0478505
5 0.0389677 0.01 -0.0442426
5 0.0389677 -0.01 -0.0434164
5 0.00518642 0.04 -0.0485479
5 0.00518642 -0.04 -0.0478653
5 0.040595 0 -0.0438912
5 0.00785119 0.04 -0.0485105
5 0.00785119 -0.04 -0.0478694
5 0.0105648 0.04 -0.0484828
5 0.0105648 -0.04 -0.0478598
5 0.0294653 0.03 -0.0466783
5 0.0294653 -0.03 -0.0454647
5 0.0133283 0.04 -0.0484716
5 0.0133283 -0.04 -0.0478288
5 0.0373405 0.02 -0.0456712
5 0.0373405 -0.02 -0.0443366
5 0.0161424 0.04 -0.0484837
5 0.0161424 -0.04 -0.0477653
5 0.0422521 0.01 -0.0444232
5 0.0422521 -0.01 -0.0434828
5 0.0439092 0 -0.0439914
5 0.0325754 0.03 -0.0468497
5 0.0325754 -0.03 -0.0454052
5 0.0190081 0.04 -0.0485251
5 0.0190081 -0.04 -0.0476654
5 0.040595 0.02 -0.0458876
5 0.040595 -0.02 -0.0443307
5 0.0219263 0.04 -0.0486002
5 0.0219263 -0.04 -0.047535
5 0.0357425 0.03 -0.047067
5 0.0357425 -0.03 -0.0453447
5 0.0455967 0.01 -0.0445651
5 0.0455967 -0.01 -0.0434947
5 0.0248981 0.04 -0.048713
5 0.0248981 -0.04 -0.0473879
5 0.0472842 0 -0.0440356
5 0.0439092 0.02 -0.0460816
5 0.0439092 -0.02 -0.0442802
5 0.0279244 0.04 -0.0488695
5 0.0279244 -0.04 -0.04724
5 0.0389677 0.03 -0.0473185
5 0.0389677 -0.03 -0.045268
5 0.0490026 0.01 -0.044641
5 0.0490026 -0.01 -0.0434415
5 0.00128482 0.05 -0.050461
5 0.00128482 -0.05 -0.0496225
5 0.00387803 0.05 -0.0504292
5 0.00387803 -0.05 -0.0496374
5 0.00651881 0.05 -0.0504071
5 0.00651881 -0.05 -0.0496604
5 0.0310063 0.04 -0.0490761
5 0.0310063 -0.04 -0.0471002
5 0.0507211 0 -0.0440095
5 0.00920802 0.05 -0.0504047
5 0.00920802 -0.05 -0.0496816
5 0.0472842 0.02 -0.0462284
5 0.0472842 -0.02 -0.0441699
5 0.0119465 0.05 -0.0504261
5 0.0119465 -0.05 -0.0496933
5 0.0422521 0.03 -0.0475661
5 0.0422521 -0.03 -0.0451555
5 0.0147353 0.05 -0.0504755
5 0.0147353 -0.05 -0.0496723
5 0.0341446 0.04 -0.0493363
5 0.0341446 -0.04 -0.0469679
5 0.0175752 0.05 -0.0505557
5 0.0175752 -0.05 -0.0495937
5 0.052471 0.01 -0.0446463
5 0.052471 -0.01 -0.0433093
5 0.0204672 0.05 -0.0506689
5 0.0204672 -0.05 -0.0494588
5 0.054221 0 -0.0439114
5 0.0507211 0.02 -0.0463228
5 0.0507211 -0.02 -0.043993
5 0.0455967 0.03 -0.0477722
5 0.0455967 -0.03 -0.0449876
5 0.0373405 0.04 -0.0496467
5 0.0373405 -0.04 -0.0468354
5 0.0234122 0.05 -0.0508176
5 0.0234122 -0.05 -0.0492799
5 0.0264113 0.05 -0.0510049
5 0.0264113 -0.05 -0.0490801
5 0.056003 0.01 -0.0445908
5 0.056003 -0.01 -0.0430993
5 0.040595 0.04 -0.0499867
5 0.040595 -0.04 -0.0466887
5 0.0490026 0.03 -0.0479352
5 0.0490026 -0.03 -0.0447558
5 0.0577851 0 -0.0437513
5 0.054221 0.02 -0.0463692
5 0.054221 -0.02 -0.0437455
5 0.0294653 0.05 -0.0512408
5 0.0294653 -0.05 -0.0488708
5 0.0439092 0.04 -0.0503159
5 0.0439092 -0.04 -0.0465133
5 0.0325754 0.05 -0.0515355
5 0.0325754 -0.05 -0.0486602
5 0 0.06 -0.0525405
5 0 -0.06 -0.0512335
5 0.00256965 0.06 -0.0525359
5 0.00256965 -0.06 -0.0512313
5 0.00518642 0.06 -0.0525397
5 0.00518642 -0.06 -0.0512352
5 0.0595998 0.01 -0.044484
5 0.0595998 -0.01 -0.0428312
5 0.052471 0.03 -0.0480689
5 0.052471 -0.03 -0.0444654
5 0.00785119 0.06 -0.0525742
5 0.00785119 -0.06 -0.0512442
5 0.0105648 0.06 -0.0526453
5 0.0105648 -0.06 -0.0512429
5 0.0577851 0.02 -0.0463642
5 0.0577851 -0.02 -0.0434265
5 0.0614146 0 -0.0435446
5 0.0357425 0.05 -0.051893
5 0.0357425 -0.05 -0.0484617
5 0.0133283 0.06 -0.0527557
5 0.0133283 -0.06 -0.0512138
5 0.0472842 0.04 -0.0505916
5 0.0472842 -0.04 -0.0462943
5 0.0161424 0.06 -0.0529072
5 0.0161424 -0.06 -0.0511366
5 0.0190081 0.06 -0.0530993
5 0.0190081 -0.06 -0.0510045
5 0.0389677 0.05 -0.0523084
5 0.0389677 -0.05 -0.0482672
5 0.056003 0.03 -0.0481707
5 0.056003 -0.03 -0.044108
5 0.0219263 0.06 -0.053331
5 0.0219263 -0.06 -0.0508259
5 0.0632626 0.01 -0.04434
5 0.0632626 -0.01 -0.0425233
5 0.0614146 0.02 -0.0462995
5 0.0614146 -0.02 -0.0430377
5 0.0507211 0.04 -0.0507788
5 0.0507211 -0.04 -0.0460122
5 0.0248981 0.06 -0.053605
5 0.0248981 -0.06 -0.0506195
5 0.0651106 0 -0.0433047
5 0.0422521 0.05 -0.0527541
5 0.0422521 -0.05 -0.0480639
5 0.0279244 0.06 -0.0539248
5 0.0279244 -0.06 -0.0504056
5 0.0595998 0.03 -0.0482111
5 0.0595998 -0.03 -0.0436674
5 0.054221 0.04 -0.0508505
5 0.054221 -0.04 -0.045641
5 0.0310063 0.06 -0.0542896
5 0.0310063 -0.06 -0.0502001
5 0.0455967 0.05 -0.0531714
5 0.0455967 -0.05 -0.047846
5 0.0669925 0.01 -0.0441692
5 0.0669925 -0.01 -0.0421864
5 0.0651106 0.02 -0.0461782
5 0.0651106 -0.02 -0.0425801
5 0.0688745 0 -0.0430412
5 0.0341446 0.06 -0.0546871
5 0.0341446 -0.06 -0.0500133
5 0.0490026 0.05 -0.0534875
5 0.0490026 -0.05 -0.0475878
5 0.00128482 0.07 -0.0546201
5 0.00128482 -0.07 -0.0528444
5 0.0632626 0.03 -0.048163
5 0.0632626 -0.03 -0.0431286
5 0.00387803 0.07 -0.0546334
5 0.00387803 -0.07 -0.0528208
5 0.0577851 0.04 -0.0508
5 0.0577851 -0.04 -0.0451519
5 0.00651881 0.07 -0.0546891
5 0.00651881 -0.07 -0.0528221
5 0.00920802 0.07 -0.0547959
5 0.00920802 -0.07 -0.0528128
5 0.0373405 0.06 -0.0550907
5 0.0373405 -0.06 -0.0498445
5 0.0119465 0.07 -0.0549546
5 0.0119465 -0.07 -0.0527837
5 0.0707909 -0.01 -0.0418246
5 0.0707909 0.01 -0.0439847
5 0.0147353 0.07 -0.0551666
5 0.0147353 -0.07 -0.0527058
5 0.0688745 -0.02 -0.0420545
5 0.0688745 0.02 -0.0460194
5 0.0175752 0.07 -0.0554312
5 0.0175752 -0.07 -0.0525745
5 0.040595 0.06 -0.0554639
5 0.040595 -0.06 -0.049685
5 0.052471 0.05 -0.0536235
5 0.052471 -0.05 -0.0472397
5 0.0727073 0 -0.042765
5 0.0204672 0.07 -0.0557412
5 0.0204672 -0.07 -0.0523911
5 0.0614146 0.04 -0.0506481
5 0.0614146 -0.04 -0.0445236
5 0.0669925 0.03 -0.0480407
5 0.0669925 -0.03 -0.0424821
5 0.0234122 0.07 -0.0560963
5 0.0234122 -0.07 -0.0521737
5 0.0439092 0.06 -0.0557624
5 0.0439092 -0.06 -0.0495194
5 0.0264113 0.07 -0.0565013
5 0.0264113 -0.07 -0.0519442
5 0.056003 0.05 -0.0535389
5 0.056003 -0.05 -0.0467506
5 0.0746589 -0.01 -0.0414415
5 0.0746589 0.01 -0.0438091
5 0.0727073 -0.02 -0.0414693
5 0.0727073 0.02 -0.0458618
5 0.0294653 0.07 -0.0569521
5 0.0294653 -0.07 -0.0517273
5 0.0472842 0.06 -0.0559407
5 0.0472842 -0.06 -0.0493183
5 0.0651106 -0.04 -0.0437497
5 0.0651106 0.04 -0.0504323
5 0.0766105 0 -0.0424916
5 0.0707909 -0.03 -0.0417248
5 0.0707909 0.03 -0.0478829
5 0.0325754 0.07 -0.0574301
5 0.0325754 -0.07 -0.0515421
5 0.0595998 0.05 -0.0532793
5 0.0595998 -0.05 -0.0460815
5 0.0507211 0.06 -0.0559617
5 0.0507211 -0.06 -0.049036
5 0.0357425 0.07 -0.0578898
5 0.0357425 -0.07 -0.0513891
5 0.0766105 -0.02 -0.0408514
5 0.0766105 0.02 -0.0457555
5 0.0785979 -0.01 -0.0410499
5 0.0785979 0.01 -0.0436657
5 0.0688745 -0.04 -0.0428438
5 0.0688745 0.04 -0.0502052
5 0 0.08 -0.0551464
5 0 -0.08 -0.0541714
5 0.00256965 0.08 -0.0551651
5 0.00256965 -0.08 -0.054155
5 0.0389677 0.07 -0.0582716
5 0.0389677 -0.07 -0.0512601
5 0.00518642 0.08 -0.055221
5 0.00518642 -0.08 -0.0541291
5 0.00785119 0.08 -0.0553197
5 0.00785119 -0.08 -0.0541044
5 0.0746589 -0.03 -0.0408862
5 0.0746589 0.03 -0.0477705
5 0.0805853 0 -0.0422255
5 0.0632626 0.05 -0.0529387
5 0.0632626 -0.05 -0.0452165
5 0.0105648 0.08 -0.0554673
5 0.0105648 -0.08 -0.0540652
5 0.054221 0.06 -0.0558114
5 0.054221 -0.06 -0.0486177
5 0.0133283 0.08 -0.0556632
5 0.0133283 -0.08 -0.0539994
5 0.0161424 0.08 -0.0559064
5 0.0161424 -0.08 -0.0538943
5 0.0422521 0.07 -0.0585214
5 0.0422521 -0.07 -0.0511489
5 0.0190081 0.08 -0.0561945
5 0.0190081 -0.08 -0.0537444
5 0.0219263 0.08 -0.0565267
5 0.0219263 -0.08 -0.0535672
5 0.0727073 -0.04 -0.0418475
5 0.0727073 0.04 -0.0500342
5 0.0805853 -0.02 -0.0402086
5 0.0805853 0.02 -0.0457284
5 0.0826091 -0.01 -0.0406192
5 0.0826091 0.01 -0.043567
5 0.0577851 0.06 -0.0555187
5 0.0577851 -0.06 -0.0480189
5 0.0455967 0.07 -0.0586027
5 0.0455967 -0.07 -0.0510186
5 0.0669925 -0.05 -0.0441713
5 0.0669925 0.05 -0.0525869
5 0.0248981 0.08 -0.0569143
5 0.0248981 -0.08 -0.0533873
5 0.0785979 -0.03 -0.040028
5 0.0785979 0.03 -0.0477766
5 0.0846329 0 -0.0419477
5 0.0279244 0.08 -0.0573656
5 0.0279244 -0.08 -0.0532177
5 0.0490026 0.07 -0.0585014
5 0.0490026 -0.07 -0.0508208
5 0.0310063 0.08 -0.0578655
5 0.0310063 -0.08 -0.0530743
5 0.0614146 -0.06 -0.0472248
5 0.0614146 0.06 -0.0551487
5 0.0766105 -0.04 -0.0408249
5 0.0766105 0.04 -0.0499836
5 0.0707909 -0.05 -0.0429967
5 0.0707909 0.05 -0.0523102
5 0.0846329 -0.02 -0.0395265
5 0.0846329 0.02 -0.0457545
5 0.0341446 0.08 -0.0583776
5 0.0341446 -0.08 -0.0529642
5 0.0866939 -0.01 -0.040126
5 0.0866939 0.01 -0.0434785
5 0.052471 0.07 -0.0582342
5 0.052471 -0.07 -0.0504955
5 0.0826091 -0.03 -0.0391372
5 0.0826091 0.03 -0.0479045
5 0.0373405 0.08 -0.0588457
5 0.0373405 -0.08 -0.0528834
5 0.0651106 -0.06 -0.0462582
5 0.0651106 0.06 -0.0547689
5 0.0887548 0 -0.0416123
5 0.056003 0.07 -0.0578491
5 0.056003 -0.07 -0.0499847
5 0.040595 0.08 -0.0592033
5 0.040595 -0.08 -0.0528225
5 0.0746589 -0.05 -0.041782
5 0.0746589 0.05 -0.0521733
5 0.0805853 -0.04 -0.039825
5 0.0805853 0.04 -0.0500641
5 0.00128482 0.09 -0.0556727
5 0.00128482 -0.09 -0.0554984
5 0.00387803 0.09 -0.0557343
5 0.00387803 -0.09 -0.0554564
5 0.00651881 0.09 -0.0558272
5 0.00651881 -0.09 -0.0554171
5 0.00920802 0.09 -0.0559667
5 0.00920802 -0.09 -0.0553654
5 0.0119465 0.09 -0.056152
5 0.0119465 -0.09 -0.055299
5 0.0887548 -0.02 -0.0388132
5 0.0887548 0.02 -0.0457514
5 0.0147353 0.09 -0.0563795
5 0.0147353 -0.09 -0.055209
5 0.0439092 0.08 -0.0593969
5 0.0439092 -0.08 -0.0527584
5 0.0688745 -0.06 -0.0451727
5 0.0688745 0.06 -0.0544426
5 0.0908536 -0.01 -0.0395335
5 0.0908536 0.01 -0.0433111
5 0.0175752 0.09 -0.0566485
5 0.0175752 -0.09 -0.0550882
5 0.0866939 -0.03 -0.0382233
5 0.0866939 0.03 -0.0480682
5 0.0595998 0.07 -0.0574074
5 0.0595998 -0.07 -0.0492584
5 0.0204672 0.09 -0.0569573
5 0.0204672 -0.09 -0.0549237
5 0.0472842 0.08 -0.05941
5 0.0472842 -0.08 -0.0526493
5 0.0929523 0 -0.0411792
5 0.0234122 0.09 -0.0573118
5 0.0234122 -0.09 -0.0547802
5 0.0785979 -0.05 -0.0406029
5 0.0785979 0.05 -0.0522139
5 0.0846329 -0.04 -0.0388701
5 0.0846329 0.04 -0.0502204
5 0.0264113 0.09 -0.0577478
5 0.0264113 -0.09 -0.054651
5 0.0727073 -0.06 -0.0440491
5 0.0727073 0.06 -0.054228
5 0.0632626 -0.07 -0.0483427
5 0.0632626 0.07 -0.0569692
5 0.0294653 0.09 -0.0582611
5 0.0294653 -0.09 -0.0545482
5 0.0507211 0.08 -0.0592867
5 0.0507211 -0.08 -0.0524454
5 0.0929523 -0.02 -0.038079
5 0.0929523 0.02 -0.0456294
5 0.0950896 -0.01 -0.0388823
5 0.0950896 0.01 -0.0429898
5 0.0908536 -0.03 -0.0373699
5 0.0908536 0.03 -0.0481476
5 0.0325754 0.09 -0.0588188
5 0.0325754 -0.09 -0.0544795
5 0.0826091 -0.05 -0.0395315
5 0.0826091 0.05 -0.0523614
5 0.054221 0.08 -0.0590911
5 0.054221 -0.08 -0.0521014
5 0.0357425 0.09 -0.0593719
5 0.0357425 -0.09 -0.0544458
5 0.0669925 -0.07 -0.047302
5 0.0669925 0.07 -0.0565808
5 0.0972268 0 -0.0406447
5 0.0766105 -0.06 -0.0429682
5 0.0766105 0.06 -0.0541607
5 0.0887548 -0.04 -0.0379985
5 0.0887548 0.04 -0.0503749
5 0.0389677 0.09 -0.0598494
5 0.0389677 -0.09 -0.0544386
5 0.0577851 -0.08 -0.0515924
5 0.0577851 0.08 -0.058869
5 0.0972268 -0.02 -0.0373263
5 0.0972268 0.02 -0.0453454
5 0.0422521 0.09 -0.0601709
5 0.0422521 -0.09 -0.0544426
5 0.0707909 -0.07 -0.0462206
5 0.0707909 0.07 -0.0562926
5 0.0950896 -0.03 -0.03653
5 0.0950896 0.03 -0.048069
5 0.0994033 -0.01 -0.038191
5 0.0994033 0.01 -0.0425155
5 0 0.1 -0.0547782
5 0 -0.1 -0.0571238
5 0.00256965 0.1 -0.0548155
5 0.00256965 -0.1 -0.0571027
5 0.0866939 -0.05 -0.0385881
5 0.0866939 0.05 -0.0525476
5 0.00518642 0.1 -0.0548834
5 0.00518642 -0.1 -0.0570593
5 0.00785119 0.1 -0.0549703
5 0.00785119 -0.1 -0.0570071
5 0.0805853 -0.06 -0.0419924
5 0.0805853 0.06 -0.054231
5 0.0105648 0.1 -0.0550962
5 0.0105648 -0.1 -0.0569413
5 0.0614146 -0.08 -0.0509249
5 0.0614146 0.08 -0.0586642
5 0.0133283 0.1 -0.0552503
5 0.0133283 -0.1 -0.0568631
5 0.0455967 0.09 -0.0602928
5 0.0455967 -0.09 -0.0544236
5 0.0929523 -0.04 -0.0372091
5 0.0929523 0.04 -0.0504626
5 0.0161424 0.1 -0.0554376
5 0.0161424 -0.1 -0.0567735
5 0.10158 0 -0.040012
5 0.0190081 0.1 -0.0556642
5 0.0190081 -0.1 -0.0566703
5 0.0746589 -0.07 -0.0451967
5 0.0746589 0.07 -0.056136
5 0.0219263 0.1 -0.0559384
5 0.0219263 -0.1 -0.0565668
5 0.0490026 0.09 -0.0602431
5 0.0490026 -0.09 -0.0543343
5 0.0248981 0.1 -0.056281
5 0.0248981 -0.1 -0.0564806
5 0.0651106 -0.08 -0.050141
5 0.0651106 0.08 -0.0584807
5 0.10158 -0.02 -0.0365381
5 0.10158 0.02 -0.0449051
5 0.0908536 -0.05 -0.0378125
5 0.0908536 0.05 -0.0527364
5 0.0846329 -0.06 -0.0411503
5 0.0846329 0.06 -0.0543935
5 0.0279244 0.1 -0.0567103
5 0.0279244 -0.1 -0.0564143
5 0.0994033 -0.03 -0.0357017
5 0.0994033 0.03 -0.0478071
5 0.052471 0.09 -0.060168
5 0.052471 -0.09 -0.0541311
5 0.103796 -0.01 -0.0374332
5 0.103796 0.01 -0.0419078
5 0.0310063 0.1 -0.057217
5 0.0310063 -0.1 -0.0563639
5 0.0972268 -0.04 -0.0364305
5 0.0972268 0.04 -0.0504434
5 0.0785979 -0.07 -0.0442908
5 0.0785979 0.07 -0.0561197
5 0.0688745 -0.08 -0.0493077
5 0.0688745 0.08 -0.0583246
5 0.0341446 0.1 -0.0577679
5 0.0341446 -0.1 -0.0563212
5 0.056003 0.09 -0.0601129
5 0.056003 -0.09 -0.0537944
5 0.106012 0 -0.039272
5 0.0373405 0.1 -0.0583171
5 0.0373405 -0.1 -0.056293
5 0.0887548 -0.06 -0.0404296
5 0.0887548 0.06 -0.0546101
5 0.0950896 -0.05 -0.0371238
5 0.0950896 0.05 -0.0528976
5 0.106012 -0.02 -0.0356439
5 0.106012 0.02 -0.044333
5 0.040595 0.1 -0.0588229
5 0.040595 -0.1 -0.0562898
5 0.0595998 -0.09 -0.0533318
5 0.0595998 0.09 -0.0601066
5 0.103796 -0.03 -0.0348263
5 0.103796 0.03 -0.0473899
5 0.0727073 -0.08 -0.0484941
5 0.0727073 0.08 -0.0582422
5 0.0826091 -0.07 -0.0435442
5 0.0826091 0.07 -0.0562291
5 0.108269 -0.01 -0.0365479
5 0.108269 0.01 -0.0411987
5 0.10158 -0.04 -0.0355785
5 0.10158 0.04 -0.0503095
5 0.0439092 0.1 -0.0592516
5 0.0439092 -0.1 -0.0562962
5 0.00128482 0.11 -0.0538837
5 0.00128482 -0.11 -0.0587492
5 0.0632626 -0.09 -0.0527667
5 0.0632626 0.09 -0.0601735
5 0.00387803 0.11 -0.0539713
5 0.00387803 -0.11 -0.0587068
5 0.00651881 0.11 -0.054001
5 0.00651881 -0.11 -0.0586568
5 0.00920802 0.11 -0.0540866
5 0.00920802 -0.11 -0.0585892
5 0.110526 0 -0.0383824
5 0.0472842 0.1 -0.0595745
5 0.0472842 -0.1 -0.0562789
5 0.0929523 -0.06 -0.0397799
5 0.0929523 0.06 -0.0548657
5 0.0119465 0.11 -0.0541794
5 0.0119465 -0.11 -0.0585114
5 0.0766105 -0.08 -0.0477538
5 0.0766105 0.08 -0.0582479
5 0.0147353 0.11 -0.0542903
5 0.0147353 -0.11 -0.058433
5 0.0994033 -0.05 -0.036366
5 0.0994033 0.05 -0.0529999
5 0.0175752 0.11 -0.0544321
5 0.0175752 -0.11 -0.0583639
5 0.0866939 -0.07 -0.0429371
5 0.0866939 0.07 -0.0564359
5 0.0204672 0.11 -0.0546188
5 0.0204672 -0.11 -0.0583052
5 0.0507211 0.1 -0.0597951
5 0.0507211 -0.1 -0.0562062
5 0.0669925 -0.09 -0.0521524
5 0.0669925 0.09 -0.0601994
5 0.110526 -0.02 -0.0345509
5 0.110526 0.02 -0.0436373
5 0.108269 -0.03 -0.0337677
5 0.108269 0.03 -0.0468354
5 0.0234122 0.11 -0.0548655
5 0.0234122 -0.11 -0.0582582
5 0.0264113 0.11 -0.055199
5 0.0264113 -0.11 -0.058233
5 0.112825 -0.01 -0.0354511
5 0.112825 0.01 -0.0403314
5 0.106012 -0.04 -0.0345763
5 0.106012 0.04 -0.0500702
5 0.0805853 -0.08 -0.0471307
5 0.0805853 0.08 -0.0583235
5 0.054221 0.1 -0.0599548
5 0.054221 -0.1 -0.056054
5 0.0294653 0.11 -0.0556334
5 0.0294653 -0.11 -0.0582249
5 0.0972268 -0.06 -0.039114
5 0.0972268 0.06 -0.0551698
5 0.0707909 -0.09 -0.0515558
5 0.0707909 0.09 -0.0602254
5 0.0908536 -0.07 -0.0423803
5 0.0908536 0.07 -0.0567206
5 0.0325754 0.11 -0.0561549
5 0.0325754 -0.11 -0.058203
5 0.115123 0 -0.0372735
5 0.103796 -0.05 -0.0354195
5 0.103796 0.05 -0.0530412
5 0.0577851 -0.1 -0.0558125
5 0.0577851 0.1 -0.0601053
5 0.0357425 0.11 -0.056726
5 0.0357425 -0.11 -0.0581563
5 0.0846329 -0.08 -0.0466332
5 0.0846329 0.08 -0.0584743
5 0.0389677 0.11 -0.0573212
5 0.0389677 -0.11 -0.0581311
5 0.112825 -0.03 -0.0324363
5 0.112825 0.03 -0.0461832
5 0.115123 -0.02 -0.0332008
5 0.115123 0.02 -0.0428114
5 0.0746589 -0.09 -0.051003
5 0.0746589 0.09 -0.060315
5 0.0614146 -0.1 -0.0554925
5 0.0614146 0.1 -0.0602938
5 0.110526 -0.04 -0.0333867
5 0.110526 0.04 -0.0497406
5 0.0422521 0.11 -0.0579501
5 0.0422521 -0.11 -0.0581467
5 0.117464 -0.01 -0.0340301
5 0.117464 0.01 -0.0392808
5 0.10158 -0.06 -0.0383414
5 0.10158 0.06 -0.0555168
5 0.0950896 -0.07 -0.0418029
5 0.0950896 0.07 -0.0571084
5 0.0455967 0.11 -0.0585927
5 0.0455967 -0.11 -0.0581719
5 0.108269 -0.05 -0.0342911
5 0.108269 0.05 -0.0530141
5 0.0651106 -0.1 -0.0551254
5 0.0651106 0.1 -0.0605387
5 0.0887548 -0.08 -0.0462144
5 0.0887548 0.08 -0.0587255
5 0.0785979 -0.09 -0.0505242
5 0.0785979 0.09 -0.0604212
5 0.119804 -3.70074e-17 -0.0359859
5 0 0.12 -0.0530203
5 0 -0.12 -0.0610237
5 0.00256965 0.12 -0.0530626
5 0.00256965 -0.12 -0.061007
5 0.00518642 0.12 -0.0531175
5 0.00518642 -0.12 -0.0609687
5 0.00785119 0.12 -0.0531606
5 0.00785119 -0.12 -0.0609183
5 0.0490026 0.11 -0.0591696
5 0.0490026 -0.11 -0.0581858
5 0.0105648 0.12 -0.0532226
5 0.0105648 -0.12 -0.0608588
5 0.0133283 0.12 -0.0532909
5 0.0133283 -0.12 -0.0607995
5 0.0161424 0.12 -0.0533774
5 0.0161424 -0.12 -0.060748
5 0.117464 -0.03 -0.0308852
5 0.117464 0.03 -0.0454497
5 0.0688745 -0.1 -0.0547549
5 0.0688745 0.1 -0.0608338
5 0.119804 -0.02 -0.0317018
5 0.119804 0.02 -0.041857
5 0.0190081 0.12 -0.0535012
5 0.0190081 -0.12 -0.0607041
5 0.0994033 -0.07 -0.0411628
5 0.0994033 0.07 -0.0576735
5 0.106012 -0.06 -0.0373885
5 0.106012 0.06 -0.0558941
5 0.052471 0.11 -0.0595995
5 0.052471 -0.11 -0.0581738
5 0.115123 -0.04 -0.0320211
5 0.115123 0.04 -0.0493509
5 0.0219263 0.12 -0.0536837
5 0.0219263 -0.12 -0.0606622
5 0.0826091 -0.09 -0.0501632
5 0.0826091 0.09 -0.0605242
5 0.0248981 0.12 -0.0539463
5 0.0248981 -0.12 -0.0606314
5 0.122188 -0.01 -0.0325744
5 0.122188 0.01 -0.0380575
5 0.0929523 -0.08 -0.045805
5 0.0929523 0.08 -0.0591066
5 0.0279244 0.12 -0.0543081
5 0.0279244 -0.12 -0.0606262
5 0.112825 -0.05 -0.033051
5 0.112825 0.05 -0.0529296
5 0.056003 0.11 -0.0599388
5 0.056003 -0.11 -0.0581169
5 0.0727073 -0.1 -0.0544247
5 0.0727073 0.1 -0.0611744
5 0.0310063 0.12 -0.0547788
5 0.0310063 -0.12 -0.0606429
5 0.124571 0 -0.0345764
5 0.0341446 0.12 -0.0553465
5 0.0341446 -0.12 -0.0606731
5 0.0866939 -0.09 -0.0498881
5 0.0866939 0.09 -0.060708
5 0.0595998 -0.11 -0.0580069
5 0.0595998 0.11 -0.060263
5 0.103796 -0.07 -0.0404171
5 0.103796 0.07 -0.0583529
5 0.0373405 0.12 -0.055973
5 0.0373405 -0.12 -0.0607126
5 0.110526 -0.06 -0.0361952
5 0.110526 0.06 -0.056317
5 0.122188 -0.03 -0.029317
5 0.122188 0.03 -0.0446393
5 0.0972268 -0.08 -0.0453166
5 0.0972268 0.08 -0.0596722
5 0.0766105 -0.1 -0.0541678
5 0.0766105 0.1 -0.0615495
5 0.124571 -0.02 -0.030186
5 0.124571 0.02 -0.040802
5 0.119804 -0.04 -0.0305209
5 0.119804 0.04 -0.0489231
5 0.040595 0.12 -0.056614
5 0.040595 -0.12 -0.0607547
5 0.0632626 -0.11 -0.0578647
5 0.0632626 0.11 -0.0606323
5 0.126999 -0.01 -0.0309533
5 0.126999 0.01 -0.0367196
5 0.117464 -0.05 -0.0317113
5 0.117464 0.05 -0.0528408
5 0.0439092 0.12 -0.0572504
5 0.0439092 -0.12 -0.0607951
5 0.0908536 -0.09 -0.0496519
5 0.0908536 0.09 -0.0610375
5 0.0805853 -0.1 -0.0540012
5 0.0805853 0.1 -0.0619522
5 0.0669925 -0.11 -0.0577177
5 0.0669925 0.11 -0.0611497
5 0.108269 -0.07 -0.0394258
5 0.108269 0.07 -0.0591683
5 0.0472842 0.12 -0.0578837
5 0.0472842 -0.12 -0.0608332
5 0.10158 -0.08 -0.0446344
5 0.10158 0.08 -0.0604765
5 0.129426 0 -0.0331115
5 0.115123 -0.06 -0.0347075
5 0.115123 0.06 -0.056807
5 0.00128482 0.13 -0.052157
5 0.00128482 -0.13 -0.0632981
5 0.00387803 0.13 -0.0522384
5 0.00387803 -0.13 -0.063274
5 0.00651881 0.13 -0.0522594
5 0.00651881 -0.13 -0.0632371
5 0.0507211 0.12 -0.058495
5 0.0507211 -0.12 -0.0608674
5 0.00920802 0.13 -0.0522954
5 0.00920802 -0.13 -0.06319
5 0.126999 -0.03 -0.0278984
5 0.126999 0.03 -0.0437911
5 0.0119465 0.13 -0.0523288
5 0.0119465 -0.13 -0.0631447
5 0.0707909 -0.11 -0.0575937
5 0.0707909 0.11 -0.0617607
5 0.0147353 0.13 -0.0523649
5 0.0147353 -0.13 -0.063109
5 0.124571 -0.04 -0.028965
5 0.124571 0.04 -0.0484742
5 0.0950896 -0.09 -0.0493847
5 0.0950896 0.09 -0.0615602
5 0.129426 -0.02 -0.0287047
5 0.129426 0.02 -0.0397051
5 0.0846329 -0.1 -0.0539082
5 0.0846329 0.1 -0.0624185
5 0.0175752 0.13 -0.0524223
5 0.0175752 -0.13 -0.0630862
5 0.0204672 0.13 -0.0525314
5 0.0204672 -0.13 -0.063061
5 0.054221 -0.12 -0.0608886
5 0.054221 0.12 -0.0590706
5 0.122188 -0.05 -0.0301693
5 0.122188 0.05 -0.0527622
5 0.0234122 0.13 -0.0527191
5 0.0234122 -0.13 -0.0630243
5 0.131897 -0.01 -0.0293855
5 0.131897 0.01 -0.0353868
5 0.0264113 0.13 -0.0530016
5 0.0264113 -0.13 -0.0630102
5 0.112825 -0.07 -0.0380125
5 0.112825 0.07 -0.060156
5 0.106012 -0.08 -0.0436247
5 0.106012 0.08 -0.061559
5 0.0746589 -0.11 -0.0575464
5 0.0746589 0.11 -0.0623968
5 0.0577851 -0.12 -0.0609034
5 0.0577851 0.12 -0.0596417
5 0.0294653 0.13 -0.0533987
5 0.0294653 -0.13 -0.0630366
5 0.0887548 -0.1 -0.0538358
5 0.0887548 0.1 -0.0630287
5 0.119804 -0.06 -0.0328726
5 0.119804 0.06 -0.0573631
5 0.0325754 0.13 -0.0539284
5 0.0325754 -0.13 -0.0631071
5 0.0994033 -0.09 -0.048916
5 0.0994033 0.09 -0.0623469
5 0.134369 0 -0.0316931
5 0.0614146 -0.12 -0.0609328
5 0.0614146 0.12 -0.0602552
5 0.0357425 0.13 -0.0545768
5 0.0357425 -0.13 -0.063226
5 0.0785979 -0.11 -0.0575975
5 0.0785979 0.11 -0.0630651
5 0.131897 -0.03 -0.0265808
5 0.131897 0.03 -0.0429222
5 0.129426 -0.04 -0.0274303
5 0.129426 0.04 -0.0480158
5 0.0389677 0.13 -0.0552681
5 0.0389677 -0.13 -0.0633367
5 0.134369 -0.02 -0.0273308
5 0.134369 0.02 -0.0385871
5 0.110526 -0.08 -0.0421355
5 0.110526 0.08 -0.0629406
5 0.126999 -0.05 -0.0284747
5 0.126999 0.05 -0.052704
5 0.0651106 -0.12 -0.060991
5 0.0651106 0.12 -0.0609681
5 0.0929523 -0.1 -0.0536964
5 0.0929523 0.1 -0.0638481
5 0.0422521 0.13 -0.0559168
5 0.0422521 -0.13 -0.0634041
5 0.117464 -0.07 -0.0360545
5 0.117464 0.07 -0.061302
5 0.136886 -0.01 -0.0279807
5 0.136886 0.01 -0.0340184
5 0.103796 -0.09 -0.0480414
5 0.103796 0.09 -0.0635332
5 0.0826091 -0.11 -0.0577196
5 0.0826091 0.11 -0.0637985
5 0.0455967 0.13 -0.0565421
5 0.0455967 -0.13 -0.0634578
5 0.124571 -0.06 -0.0307535
5 0.124571 0.06 -0.0579523
5 0.0688745 -0.12 -0.0610896
5 0.0688745 0.12 -0.0618113
5 0.0490026 0.13 -0.0572306
5 0.0490026 -0.13 -0.0635174
5 0.139403 0 -0.0303465
5 0.0972268 -0.1 -0.0533786
5 0.0972268 0.1 -0.064893
5 0 0.14 -0.0518807
5 0 -0.14 -0.0666083
5 0.00256965 0.14 -0.0519204
5 0.00256965 -0.14 -0.0666023
5 0.0866939 -0.11 -0.0578617
5 0.0866939 0.11 -0.0646435
5 0.00518642 0.14 -0.0519733
5 0.00518642 -0.14 -0.0665873
5 0.136886 -0.03 -0.0253753
5 0.136886 0.03 -0.0420205
5 0.052471 0.13 -0.0579804
5 0.052471 -0.13 -0.0635925
5 0.115123 -0.08 -0.0400487
5 0.115123 0.08 -0.0645989
5 0.134369 -0.04 -0.0259885
5 0.134369 0.04 -0.0475285
5 0.00785119 0.14 -0.0520051
5 0.00785119 -0.14 -0.0665649
5 0.0727073 -0.12 -0.0612448
5 0.0727073 0.12 -0.0627681
5 0.0105648 0.14 -0.0520404
5 0.0105648 -0.14 -0.0665393
5 0.0133283 0.14 -0.0520728
5 0.0133283 -0.14 -0.0665197
5 0.108269 -0.09 -0.046614
5 0.108269 0.09 -0.065182
5 0.122188 -0.07 -0.0335544
5 0.122188 0.07 -0.0625477
5 0.139403 -0.02 -0.0260977
5 0.139403 0.02 -0.0374235
5 0.0161424 0.14 -0.0521114
5 0.0161424 -0.14 -0.0665109
5 0.131897 -0.05 -0.0267668
5 0.131897 0.05 -0.0526456
5 0.0190081 0.14 -0.0521787
5 0.0190081 -0.14 -0.0665139
5 0.056003 -0.13 -0.0636712
5 0.056003 0.13 -0.0587637
5 0.0219263 0.14 -0.0523035
5 0.0219263 -0.14 -0.0665299
5 0.0248981 0.14 -0.0525092
5 0.0248981 -0.14 -0.0665557
5 0.141967 -0.01 -0.0267525
5 0.141967 0.01 -0.0326338
5 0.0766105 -0.12 -0.0614654
5 0.0766105 0.12 -0.0638433
5 0.10158 -0.1 -0.0527025
5 0.10158 0.1 -0.0662066
5 0.129426 -0.06 -0.0285898
5 0.129426 0.06 -0.0585146
5 0.0908536 -0.11 -0.0579415
5 0.0908536 0.11 -0.0657261
5 0.0279244 0.14 -0.0528143
5 0.0279244 -0.14 -0.0665884
5 0.0595998 -0.13 -0.0638186
5 0.0595998 0.13 -0.0596013
5 0.0310063 0.14 -0.0532353
5 0.0310063 -0.14 -0.0666297
5 0.119804 -0.08 -0.0373642
5 0.119804 0.08 -0.0664766
5 0.0341446 0.14 -0.0537763
5 0.0341446 -0.14 -0.0666784
5 0.112825 -0.09 -0.044489
5 0.112825 0.09 -0.0672568
5 0.14453 -3.70074e-17 -0.0290577
5 0.0805853 -0.12 -0.0617465
5 0.0805853 0.12 -0.0650636
5 0.0632626 -0.13 -0.064041
5 0.0632626 0.13 -0.0605245
5 0.0373405 0.14 -0.0544157
5 0.0373405 -0.14 -0.0667298
5 0.126999 -0.07 -0.0308146
5 0.126999 0.07 -0.0637957
5 0.139403 -0.04 -0.0247192
5 0.139403 0.04 -0.0469504
5 0.141967 -0.03 -0.0242818
5 0.141967 0.03 -0.0410207
5 0.0950896 -0.11 -0.0578076
5 0.0950896 0.11 -0.067069
5 0.136886 -0.05 -0.0252303
5 0.136886 0.05 -0.0525253
5 0.106012 -0.1 -0.0514826
5 0.106012 0.1 -0.0678638
5 0.040595 0.14 -0.0551102
5 0.040595 -0.14 -0.0667744
5 0.14453 -0.02 -0.0249765
5 0.14453 0.02 -0.0361854
5 0.0669925 -0.13 -0.0643407
5 0.0669925 0.13 -0.061566
5 0.0439092 0.14 -0.0558237
5 0.0439092 -0.14 -0.0668229
5 0.0846329 -0.12 -0.0620703
5 0.0846329 0.12 -0.0664399
5 0.134369 -0.06 -0.0266584
5 0.134369 0.06 -0.0589716
5 0.14714 -0.01 -0.0256
5 0.14714 0.01 -0.0312437
5 0.0472842 0.14 -0.0565531
5 0.0472842 -0.14 -0.0669108
5 0.117464 -0.09 -0.0416375
5 0.117464 0.09 -0.0696815
5 0.0707909 -0.13 -0.0647066
5 0.0707909 0.13 -0.0627691
5 0.124571 -0.08 -0.0343417
5 0.124571 0.08 -0.0684253
5 0.0994033 -0.11 -0.0574058
5 0.0994033 0.11 -0.0685964
5 0.0507211 -0.14 -0.0670637
5 0.0507211 0.14 -0.0573091
5 0.110526 -0.1 -0.0496139
5 0.110526 0.1 -0.069895
5 0.0887548 -0.12 -0.0623627
5 0.0887548 0.12 -0.0680078
5 0.131897 -0.07 -0.0283021
5 0.131897 0.07 -0.0649135
5 0.14975 0 -0.0277339
5 0.0746589 -0.13 -0.0651327
5 0.0746589 0.13 -0.0641461
5 0.14453 -0.04 -0.0236675
5 0.14453 0.04 -0.0461814
5 0.00128482 0.15 -0.0516044
5 0.00128482 -0.15 -0.0699184
5 0.00387803 0.15 -0.0516821
5 0.00387803 -0.15 -0.0699187
5 0.054221 -0.14 -0.0672871
5 0.054221 0.14 -0.0580982
5 0.00651881 0.15 -0.0517133
5 0.00651881 -0.15 -0.0699195
5 0.14714 -0.03 -0.0232708
5 0.14714 0.03 -0.0398427
5 0.00920802 0.15 -0.0517521
5 0.00920802 -0.15 -0.0699132
5 0.0119465 0.15 -0.0517851
5 0.0119465 -0.15 -0.0699094
5 0.141967 -0.05 -0.0239886
5 0.141967 0.05 -0.0522348
5 0.0147353 0.15 -0.0518123
5 0.0147353 -0.15 -0.0699157
5 0.0175752 0.15 -0.0518461
5 0.0175752 -0.15 -0.0699327
5 0.14975 -0.02 -0.0239201
5 0.14975 0.02 -0.0348012
5 0.103796 -0.11 -0.0564466
5 0.103796 0.11 -0.0703506
5 0.0204672 0.15 -0.0519148
5 0.0204672 -0.15 -0.0699759
5 0.0577851 -0.14 -0.0675921
5 0.0577851 0.14 -0.0589363
5 0.122188 -0.09 -0.0382088
5 0.122188 0.09 -0.0723764
5 0.139403 -0.06 -0.025137
5 0.139403 0.06 -0.0592128
5 0.0929523 -0.12 -0.062492
5 0.0929523 0.12 -0.0697766
5 0.0234122 0.15 -0.0520488
5 0.0234122 -0.15 -0.0700585
5 0.0785979 -0.13 -0.065585
5 0.0785979 0.13 -0.0657657
5 0.129426 -0.08 -0.0315212
5 0.129426 0.08 -0.0702431
5 0.0264113 0.15 -0.0522675
5 0.0264113 -0.15 -0.0701298
5 0.115123 -0.1 -0.0470727
5 0.115123 0.1 -0.0722938
5 0.152408 -0.01 -0.024401
5 0.152408 0.01 -0.02969
5 0.0294653 0.15 -0.0525894
5 0.0294653 -0.15 -0.0701771
5 0.0614146 -0.14 -0.0679897
5 0.0614146 0.14 -0.0598546
5 0.0325754 0.15 -0.053025
5 0.0325754 -0.15 -0.0701979
5 0.136886 -0.07 -0.0263336
5 0.136886 0.07 -0.0658024
5 0.0826091 -0.13 -0.0660838
5 0.0826091 0.13 -0.0676257
5 0.0357425 0.15 -0.0535752
5 0.0357425 -0.15 -0.0701827
5 0.108269 -0.11 -0.0548277
5 0.108269 0.11 -0.0723904
5 0.0651106 -0.14 -0.0684838
5 0.0651106 0.14 -0.0608939
5 0.0972268 -0.12 -0.0623509
5 0.0972268 0.12 -0.0716668
5 0.0389677 0.15 -0.0542429
5 0.0389677 -0.15 -0.0701737
5 0.14975 -0.04 -0.0228863
5 0.14975 0.04 -0.0450987
5 0.155066 0 -0.0262876
5 0.152408 -0.03 -0.0224081
5 0.152408 0.03 -0.0384273
5 0.14714 -0.05 -0.0231282
5 0.14714 0.05 -0.051627
5 0.126999 -0.09 -0.0347875
5 0.126999 0.09 -0.0749824
5 0.0422521 0.15 -0.055013
5 0.0422521 -0.15 -0.0701831
5 0.0688745 -0.14 -0.0690812
5 0.0688745 0.14 -0.0621046
5 0.119804 -0.1 -0.0440005
5 0.119804 0.1 -0.0750191