# U  POINT_DATA 90431
# x  y  z  U_x  U_y  U_z
5 0 0 0 0 0
5 0.00256965 0 -0.0747251 -0.000416249 0.0398771
5 0.00518642 0 -0.114415 -0.000735211 0.0638053
5 0.00785119 0 -0.146721 -0.000839514 0.0870667
5 0.00128482 0.01 -0.0525957 -1.48893e-05 0.0293232
5 0.00128482 -0.01 -0.0535423 -0.000439311 0.0259954
5 0.0105648 0 -0.171335 -0.000627155 0.110061
5 0.00387803 0.01 -0.0956159 0.00028147 0.0532235
5 0.00387803 -0.01 -0.097153 -0.00149232 0.0509698
5 0.00651881 0.01 -0.131559 0.000996529 0.0752146
5 0.00651881 -0.01 -0.13334 -0.00272656 0.0758171
5 0.0133283 0 -0.187993 -8.73064e-05 0.13265
5 0.00920802 0.01 -0.16029 0.00220187 0.0966402
5 0.00920802 -0.01 -0.161701 -0.00382989 0.100599
5 0.0119465 0.01 -0.181751 0.00382738 0.117956
5 0.0119465 -0.01 -0.181603 -0.00470793 0.125052
5 0.0161424 0 -0.196683 0.000794601 0.15435
5 0.0147353 0.01 -0.196149 0.00579043 0.139001
5 0.0147353 -0.01 -0.192472 -0.00525899 0.148593
5 0.0190081 0 -0.197831 0.00203882 0.174576
5 0 0.02 0 0 0
5 0 -0.02 0 0 0
5 0.00256965 0.02 -0.0766805 0.000574127 0.0405794
5 0.00256965 -0.02 -0.080853 -0.00123087 0.0354496
5 0.0175752 0.01 -0.203871 0.0080173 0.15925
5 0.0175752 -0.01 -0.194241 -0.00537015 0.170559
5 0.00518642 0.02 -0.117701 0.00168978 0.0622224
5 0.00518642 -0.02 -0.122639 -0.00284563 0.0605693
5 0.00785119 0.02 -0.151789 0.00336003 0.0826245
5 0.00785119 -0.02 -0.155891 -0.00465343 0.086668
5 0.0219263 0 -0.192459 0.00365216 0.192808
5 0.0105648 0.02 -0.178783 0.00553401 0.102865
5 0.0105648 -0.02 -0.179588 -0.00636324 0.113003
5 0.0204672 0.01 -0.205564 0.0104632 0.178072
5 0.0204672 -0.01 -0.187649 -0.0049548 0.190426
5 0.0133283 0.02 -0.198611 0.00811413 0.123119
5 0.0133283 -0.02 -0.192745 -0.00775338 0.138808
5 0.0248981 0 -0.182087 0.00559699 0.208639
5 0.0234122 0.01 -0.202023 0.0131094 0.194928
5 0.0234122 -0.01 -0.174598 -0.00400884 0.20781
5 0.0161424 0.02 -0.211532 0.0110166 0.143035
5 0.0161424 -0.02 -0.195194 -0.00864149 0.163303
5 0.0190081 0.02 -0.218168 0.014176 0.162014
5 0.0190081 -0.02 -0.188021 -0.00891005 0.185807
5 0.0279244 0 -0.168499 0.00778905 0.221748
5 0.0264113 0.01 -0.194425 0.0159349 0.209443
5 0.0264113 -0.01 -0.157301 -0.00264716 0.222377
5 0.0219263 0.02 -0.21943 0.0175558 0.179431
5 0.0219263 -0.02 -0.173367 -0.00856135 0.205715
5 0.00128482 0.03 -0.0563064 0.000323992 0.0291617
5 0.00128482 -0.03 -0.0623271 -0.000592788 0.0204641
5 0.00387803 0.03 -0.102211 0.00170606 0.0506124
5 0.00387803 -0.03 -0.110397 -0.00239927 0.0443729
5 0.00651881 0.03 -0.141425 0.00377527 0.0698422
5 0.00651881 -0.03 -0.149674 -0.00476464 0.0711213
5 0.0310063 0 -0.153573 0.0101225 0.231862
5 0.0294653 0.01 -0.184219 0.0188988 0.221388
5 0.0294653 -0.01 -0.138048 -0.00102986 0.233786
5 0.00920802 0.03 -0.173888 0.00646675 0.0888042
5 0.00920802 -0.03 -0.178854 -0.00729294 0.0991393
5 0.0248981 0.02 -0.21644 0.0211435 0.194778
5 0.0248981 -0.02 -0.153772 -0.00773413 0.222415
5 0.0119465 0.03 -0.199206 0.00964045 0.108064
5 0.0119465 -0.03 -0.196197 -0.00962247 0.127228
5 0.0147353 0.03 -0.217341 0.0131987 0.127457
5 0.0147353 -0.03 -0.200711 -0.0114243 0.154362
5 0.0325754 0.01 -0.172999 0.0219312 0.230595
5 0.0325754 -0.01 -0.119021 0.000690498 0.241682
5 0.0341446 0 -0.139133 0.0125144 0.238864
5 0.0279244 0.02 -0.210499 0.0249305 0.207713
5 0.0279244 -0.02 -0.131723 -0.00662817 0.235312
5 0.0175752 0.03 -0.228768 0.0170605 0.146434
5 0.0175752 -0.03 -0.193351 -0.0125126 0.179703
5 0.0204672 0.03 -0.23447 0.0211636 0.164304
5 0.0204672 -0.03 -0.176842 -0.0128026 0.202543
5 0.0310063 0.02 -0.202939 0.0288921 0.218026
5 0.0310063 -0.02 -0.109588 -0.00539873 0.243991
5 0.0357425 0.01 -0.162312 0.0249611 0.237003
5 0.0357425 -0.01 -0.102195 0.00247517 0.246175
5 0.0373405 0 -0.126821 0.0149688 0.24291
5 0.0234122 0.03 -0.235663 0.0254876 0.180423
5 0.0234122 -0.03 -0.154374 -0.012479 0.222085
5 0.0341446 0.02 -0.195033 0.0329673 0.225607
5 0.0341446 -0.02 -0.0895838 -0.00409322 0.248587
5 0.0264113 0.03 -0.23365 0.0300428 0.19432
5 0.0264113 -0.03 -0.128812 -0.0118013 0.237392
5 0 0.04 0 0 0
5 0 -0.04 0 0 0
5 0.00256965 0.04 -0.0822311 0.00138469 0.0366031
5 0.00256965 -0.04 -0.0923025 -0.0012015 0.0299748
5 0.0389677 0.01 -0.1535 0.0279698 0.240714
5 0.0389677 -0.01 -0.0892769 0.00446968 0.247747
5 0.00518642 0.04 -0.126742 0.00351748 0.0554462
5 0.00518642 -0.04 -0.137184 -0.00293764 0.0547868
5 0.040595 0 -0.117956 0.0175953 0.244398
5 0.00785119 0.04 -0.164852 0.00626339 0.0736862
5 0.00785119 -0.04 -0.171572 -0.00500892 0.0828358
5 0.0105648 0.04 -0.196226 0.00947345 0.092341
5 0.0105648 -0.04 -0.193608 -0.00710088 0.112491
5 0.0294653 0.03 -0.229699 0.0348461 0.205702
5 0.0294653 -0.03 -0.102727 -0.011034 0.247695
5 0.0133283 0.04 -0.220323 0.0130273 0.111323
5 0.0133283 -0.04 -0.202006 -0.00887807 0.142307
5 0.0373405 0.02 -0.187942 0.0370562 0.230484
5 0.0373405 -0.02 -0.0736925 -0.0026189 0.249814
5 0.0161424 0.04 -0.237 0.0168609 0.130026
5 0.0161424 -0.04 -0.197305 -0.0101092 0.170937
5 0.0422521 0.01 -0.147517 0.0310008 0.242025
5 0.0422521 -0.01 -0.0815299 0.00694175 0.247104
5 0.0439092 0 -0.11333 0.0205632 0.243892
5 0.0325754 0.03 -0.224837 0.0398933 0.214419
5 0.0325754 -0.03 -0.0785511 -0.0102213 0.252802
5 0.0190081 0.04 -0.246732 0.020944 0.147632
5 0.0190081 -0.04 -0.181944 -0.0107297 0.197099
5 0.040595 0.02 -0.182406 0.0410434 0.232878
5 0.040595 -0.02 -0.0634913 -0.000697995 0.248595
5 0.0219263 0.04 -0.250626 0.025277 0.163346
5 0.0219263 -0.04 -0.159166 -0.0108466 0.219471
5 0.0357425 0.03 -0.219981 0.0450846 0.220411
5 0.0357425 -0.03 -0.0585636 -0.00931697 0.25369
5 0.0455967 0.01 -0.144701 0.0341595 0.241402
5 0.0455967 -0.01 -0.0795708 0.0101517 0.245038
5 0.0248981 0.04 -0.2502 0.0298881 0.176588
5 0.0248981 -0.04 -0.13217 -0.0107312 0.236717
5 0.0472842 0 -0.113039 0.0239922 0.242082
5 0.0439092 0.02 -0.178605 0.044804 0.233214
5 0.0439092 -0.02 -0.0599595 0.00194831 0.24582
5 0.0279244 0.04 -0.246971 0.0347945 0.187075
5 0.0279244 -0.04 -0.103972 -0.0106375 0.247889
5 0.0389677 0.03 -0.215974 0.0502103 0.22381
5 0.0389677 -0.03 -0.0447313 -0.00810309 0.251645
5 0.0490026 0.01 -0.144709 0.0374952 0.239747
5 0.0490026 -0.01 -0.0831744 0.0141633 0.242139
5 0.00128482 0.05 -0.0604543 0.000654404 0.0244576
5 0.00128482 -0.05 -0.0725943 -0.000313234 0.0167353
5 0.00387803 0.05 -0.10996 0.00285456 0.0421834
5 0.00387803 -0.05 -0.123899 -0.00150095 0.0383306
5 0.00651881 0.05 -0.153377 0.00573441 0.0591495
5 0.00651881 -0.05 -0.164772 -0.00308603 0.0653266
5 0.0310063 0.04 -0.24227 0.0399219 0.194832
5 0.0310063 -0.04 -0.0774545 -0.0106826 0.253029
5 0.0507211 0 -0.11647 0.0278348 0.239564
5 0.00920802 0.05 -0.190726 0.00907763 0.0769517
5 0.00920802 -0.05 -0.192993 -0.00489241 0.0957607
5 0.0472842 0.02 -0.176338 0.0481731 0.232134
5 0.0472842 -0.02 -0.0632583 0.00542964 0.242136
5 0.0119465 0.05 -0.221087 0.0127095 0.0955476
5 0.0119465 -0.05 -0.206392 -0.00659602 0.127841
5 0.0422521 0.03 -0.212633 0.0549938 0.224963
5 0.0422521 -0.03 -0.0384255 -0.00609977 0.247882
5 0.0147353 0.05 -0.243664 0.0165611 0.114227
5 0.0147353 -0.05 -0.204723 -0.00786975 0.159803
5 0.0341446 0.04 -0.236995 0.0450588 0.200196
5 0.0341446 -0.04 -0.0552404 -0.0108066 0.253274
5 0.0175752 0.05 -0.25823 0.0206242 0.131989
5 0.0175752 -0.05 -0.190433 -0.00863018 0.189885
5 0.052471 0.01 -0.146671 0.0409468 0.237537
5 0.052471 -0.01 -0.0913258 0.0187349 0.238833
5 0.0204672 0.05 -0.265461 0.0249287 0.147803
5 0.0204672 -0.05 -0.167146 -0.00897355 0.216268
5 0.054221 0 -0.122492 0.0318491 0.236781
5 0.0507211 0.02 -0.175093 0.050977 0.23042
5 0.0507211 -0.02 -0.0725957 0.00963112 0.237925
5 0.0455967 0.03 -0.209569 0.0590626 0.224465
5 0.0455967 -0.03 -0.040312 -0.00319966 0.243254
5 0.0373405 0.04 -0.231599 0.0499042 0.203676
5 0.0373405 -0.04 -0.039447 -0.0107715 0.25035
5 0.0234122 0.05 -0.26691 0.0295288 0.160859
5 0.0234122 -0.05 -0.138299 -0.00913114 0.236993
5 0.0264113 0.05 -0.264579 0.0344943 0.170754
5 0.0264113 -0.05 -0.107188 -0.00951314 0.250401
5 0.056003 0.01 -0.149484 0.0442771 0.23534
5 0.056003 -0.01 -0.102487 0.0234387 0.235414
5 0.040595 0.04 -0.226406 0.0540923 0.205978
5 0.040595 -0.04 -0.031522 -0.0102342 0.245886
5 0.0490026 0.03 -0.206373 0.0619757 0.22292
5 0.0490026 -0.03 -0.0499776 0.000604236 0.238112
5 0.0577851 0 -0.129779 0.0356281 0.234098
5 0.054221 0.02 -0.174227 0.0530138 0.228956
5 0.054221 -0.02 -0.0863608 0.014167 0.233473
5 0.0294653 0.05 -0.259956 0.0397958 0.177524
5 0.0294653 -0.05 -0.0771548 -0.0102013 0.256069
5 0.0439092 0.04 -0.221457 0.0571866 0.207943
5 0.0439092 -0.04 -0.0321269 -0.00892969 0.240874
5 0.0325754 0.05 -0.254587 0.0451534 0.181684
5 0.0325754 -0.05 -0.0513795 -0.011274 0.255551
5 0 0.06 0 0 0
5 0 -0.06 0 0 0
5 0.00256965 0.06 -0.0887523 0.00186344 0.0287514
5 0.00256965 -0.06 -0.10005 -0.000417085 0.0280997
5 0.00518642 0.06 -0.137241 0.00439397 0.0452808
5 0.00518642 -0.06 -0.14569 -0.00108434 0.0523231
5 0.0595998 0.01 -0.152163 0.0470353 0.23366
5 0.0595998 -0.01 -0.114985 0.0277625 0.231975
5 0.052471 0.03 -0.20262 0.0634907 0.221475
5 0.052471 -0.03 -0.0659081 0.0050232 0.232615
5 0.00785119 0.06 -0.179861 0.00733721 0.0627392
5 0.00785119 -0.06 -0.179192 -0.00191595 0.0813929
5 0.0105648 0.06 -0.215929 0.010513 0.0812103
5 0.0105648 -0.06 -0.198424 -0.00281912 0.113618
5 0.0577851 0.02 -0.173004 0.0539997 0.228697
5 0.0577851 -0.02 -0.102437 0.0184954 0.229053
5 0.0614146 0 -0.13714 0.0386653 0.231659
5 0.0357425 0.05 -0.248575 0.0501051 0.184272
5 0.0357425 -0.05 -0.032463 -0.0124143 0.251051
5 0.0133283 0.06 -0.244189 0.0137936 0.0998317
5 0.0133283 -0.06 -0.20236 -0.00361323 0.14697
5 0.0472842 0.04 -0.216543 0.058775 0.210268
5 0.0472842 -0.04 -0.0409415 -0.00678012 0.23561
5 0.0161424 0.06 -0.263647 0.0171173 0.117397
5 0.0161424 -0.06 -0.192222 -0.00425185 0.179074
5 0.0190081 0.06 -0.274145 0.0204756 0.132667
5 0.0190081 -0.06 -0.171086 -0.00484516 0.20739
5 0.0389677 0.05 -0.241866 0.0542179 0.18621
5 0.0389677 -0.05 -0.0220274 -0.0132517 0.245012
5 0.056003 0.03 -0.198134 0.0633409 0.221472
5 0.056003 -0.03 -0.0857262 0.0094723 0.22703
5 0.0219263 0.06 -0.276781 0.0238789 0.144702
5 0.0219263 -0.06 -0.142735 -0.00561416 0.229502
5 0.0632626 0.01 -0.154147 0.0487219 0.232677
5 0.0632626 -0.01 -0.127267 0.0311423 0.228323
5 0.0614146 0.02 -0.170793 0.0535895 0.230404
5 0.0614146 -0.02 -0.118539 0.0220633 0.224858
5 0.0507211 0.04 -0.211382 0.0585455 0.213763
5 0.0507211 -0.04 -0.0565779 -0.00392042 0.230048
5 0.0248981 0.06 -0.273666 0.0273438 0.153076
5 0.0248981 -0.06 -0.111093 -0.00683694 0.243658
5 0.0651106 0 -0.14365 0.0404379 0.229372
5 0.0422521 0.05 -0.235151 0.0569483 0.188931
5 0.0422521 -0.05 -0.0209029 -0.013482 0.239006
5 0.0279244 0.06 -0.267025 0.0308398 0.158443
5 0.0279244 -0.06 -0.080075 -0.00865617 0.249508
5 0.0595998 0.03 -0.192233 0.0613455 0.224318
5 0.0595998 -0.03 -0.106553 0.0133092 0.221793
5 0.054221 0.04 -0.205575 0.056264 0.219414
5 0.054221 -0.04 -0.0767219 -0.000715963 0.224281
5 0.0310063 0.06 -0.258548 0.0341493 0.162358
5 0.0310063 -0.06 -0.0532566 -0.0109891 0.24851
5 0.0455967 0.05 -0.228474 0.0577424 0.193416
5 0.0455967 -0.05 -0.0288684 -0.0129368 0.233354
5 0.0669925 0.01 -0.155327 0.0487795 0.232081
5 0.0669925 -0.01 -0.137859 0.0331081 0.224405
5 0.0651106 0.02 -0.167638 0.0515037 0.233937
5 0.0651106 -0.02 -0.132472 0.0244324 0.221058
5 0.0688745 0 -0.14867 0.0405831 0.22712
5 0.0341446 0.06 -0.249272 0.0368667 0.166421
5 0.0341446 -0.06 -0.0334228 -0.0135551 0.243296
5 0.0490026 0.05 -0.221753 0.0563194 0.200272
5 0.0490026 -0.05 -0.0446114 -0.0115875 0.227717
5 0.00128482 0.07 -0.06566 0.000796894 0.0167872
5 0.00128482 -0.07 -0.0763621 7.00582e-05 0.0180562
5 0.0632626 0.03 -0.184629 0.057255 0.230962
5 0.0632626 -0.03 -0.125355 0.01604 0.21734
5 0.00387803 0.07 -0.118943 0.00314826 0.0315798
5 0.00387803 -0.07 -0.127353 7.56928e-05 0.0392802
5 0.0577851 0.04 -0.198671 0.0518574 0.227893
5 0.0577851 -0.04 -0.0984018 0.00234494 0.218789
5 0.00651881 0.07 -0.166692 0.00583909 0.0482128
5 0.00651881 -0.07 -0.166741 0.000173802 0.0663593
5 0.00920802 0.07 -0.208656 0.00869824 0.0666457
5 0.00920802 -0.07 -0.192264 0.000140704 0.0981299
5 0.0373405 0.06 -0.239726 0.0385285 0.171933
5 0.0373405 -0.06 -0.0220372 -0.0159768 0.2366
5 0.0119465 0.07 -0.243252 0.0115671 0.0856994
5 0.0119465 -0.07 -0.202049 7.10954e-05 0.132746
5 0.0707909 -0.01 -0.145532 0.0335497 0.220793
5 0.0707909 0.01 -0.155962 0.0468948 0.231199
5 0.0147353 0.07 -0.268757 0.0143373 0.103856
5 0.0147353 -0.07 -0.196277 -5.83692e-05 0.167496
5 0.0688745 -0.02 -0.142513 0.025439 0.218136
5 0.0688745 0.02 -0.164517 0.0477841 0.237707
5 0.0175752 0.07 -0.28394 0.0169472 0.119519
5 0.0175752 -0.07 -0.177451 -0.000449211 0.199116
5 0.040595 0.06 -0.23041 0.038696 0.179863
5 0.040595 -0.06 -0.0195418 -0.0179973 0.230364
5 0.052471 0.05 -0.214779 0.0523958 0.210387
5 0.052471 -0.05 -0.0658194 -0.00972073 0.221747
5 0.0727073 0 -0.15167 0.0391648 0.224824
5 0.0204672 0.07 -0.288949 0.0194029 0.13136
5 0.0204672 -0.07 -0.149308 -0.00132781 0.224296
5 0.0614146 0.04 -0.190569 0.0456283 0.23887
5 0.0614146 -0.04 -0.1183 0.00479098 0.214272
5 0.0669925 0.03 -0.176449 0.0512573 0.240029
5 0.0669925 -0.03 -0.139411 0.0174396 0.214164
5 0.0234122 0.07 -0.285803 0.0216559 0.138788
5 0.0234122 -0.07 -0.116181 -0.00302434 0.240455
5 0.0439092 0.06 -0.221839 0.0370121 0.190798
5 0.0439092 -0.06 -0.0255032 -0.0194477 0.225173
5 0.0264113 0.07 -0.277369 0.023697 0.141905
5 0.0264113 -0.07 -0.0826991 -0.00567944 0.246785
5 0.056003 0.05 -0.206767 0.0458276 0.224325
5 0.056003 -0.05 -0.0894398 -0.00763771 0.215729
5 0.0746589 -0.01 -0.148968 0.0327777 0.21819
5 0.0746589 0.01 -0.156218 0.0434362 0.229115
5 0.0727073 -0.02 -0.147293 0.0252765 0.216863
5 0.0727073 0.02 -0.162497 0.0429711 0.238927
5 0.0294653 0.07 -0.266192 0.0253727 0.143588
5 0.0294653 -0.07 -0.053252 -0.00923126 0.24478
5 0.0472842 0.06 -0.214188 0.0332969 0.204699
5 0.0472842 -0.06 -0.0385326 -0.0202245 0.220523
5 0.0651106 -0.04 -0.133625 0.00634052 0.211358
5 0.0651106 0.04 -0.182108 0.0382133 0.250042
5 0.0766105 0 -0.151598 0.0367926 0.222883
5 0.0707909 -0.03 -0.147251 0.0176586 0.213182
5 0.0707909 0.03 -0.17033 0.0442033 0.247523
5 0.0325754 0.07 -0.253454 0.0262758 0.146635
5 0.0325754 -0.07 -0.031235 -0.0132506 0.237639
5 0.0595998 0.05 -0.19755 0.0369138 0.24146
5 0.0595998 -0.05 -0.111894 -0.00576315 0.210601
5 0.0507211 0.06 -0.20722 0.0275985 0.221041
5 0.0507211 -0.06 -0.0566483 -0.0203513 0.215676
5 0.0357425 0.07 -0.240468 0.0259329 0.153095
5 0.0357425 -0.07 -0.0186102 -0.0172822 0.228942
5 0.0766105 -0.02 -0.145809 0.0243543 0.218324
5 0.0766105 0.02 -0.160608 0.0380296 0.235791
5 0.0785979 -0.01 -0.146618 0.0314224 0.218362
5 0.0785979 0.01 -0.154585 0.0395333 0.225865
5 0.0688745 -0.04 -0.142547 0.00696257 0.210613
5 0.0688745 0.04 -0.175079 0.0305395 0.256797
5 0 0.08 0 0 0
5 0 -0.08 0 0 0
5 0.00256965 0.08 -0.09534 0.00152327 0.0233977
5 0.00256965 -0.08 -0.100512 0.000223853 0.0317226
5 0.0389677 0.07 -0.227995 0.0238585 0.164156
5 0.0389677 -0.07 -0.0150466 -0.0209596 0.221393
5 0.00518642 0.08 -0.147354 0.00337396 0.0402146
5 0.00518642 -0.08 -0.144154 0.000590221 0.0571355
5 0.00785119 0.08 -0.193958 0.00526977 0.0591503
5 0.00785119 -0.08 -0.174406 0.00107268 0.0873815
5 0.0746589 -0.03 -0.147423 0.0171198 0.215286
5 0.0746589 0.03 -0.167475 0.0373484 0.247872
5 0.0805853 0 -0.146617 0.0342994 0.22271
5 0.0632626 0.05 -0.187861 0.0269968 0.258744
5 0.0632626 -0.05 -0.129403 -0.00442148 0.207355
5 0.0105648 0.08 -0.233889 0.0071228 0.0790119
5 0.0105648 -0.08 -0.189462 0.00146284 0.120878
5 0.054221 0.06 -0.200327 0.0201643 0.238861
5 0.054221 -0.06 -0.0772695 -0.0199253 0.210461
5 0.0133283 0.08 -0.265051 0.00876717 0.0981443
5 0.0133283 -0.08 -0.188733 0.00160557 0.154959
5 0.0161424 0.08 -0.285377 0.0100021 0.11475
5 0.0161424 -0.08 -0.173873 0.001237 0.186119
5 0.0422521 0.07 -0.216625 0.0197593 0.180159
5 0.0422521 -0.07 -0.0201909 -0.0242964 0.216045
5 0.0190081 0.08 -0.293877 0.010666 0.127275
5 0.0190081 -0.08 -0.148498 2.88365e-05 0.210846
5 0.0219263 0.08 -0.291763 0.0106669 0.135204
5 0.0219263 -0.08 -0.117291 -0.00228355 0.226613
5 0.0727073 -0.04 -0.143194 0.0067736 0.212486
5 0.0727073 0.04 -0.170422 0.0236923 0.255624
5 0.0805853 -0.02 -0.136908 0.0229579 0.223508
5 0.0805853 0.02 -0.155554 0.033897 0.229986
5 0.0826091 -0.01 -0.137334 0.0299307 0.223067
5 0.0826091 0.01 -0.147929 0.0363104 0.223545
5 0.0577851 0.06 -0.193038 0.0114953 0.255763
5 0.0577851 -0.06 -0.0973056 -0.0191612 0.205494
5 0.0455967 0.07 -0.207104 0.0135975 0.200691
5 0.0455967 -0.07 -0.0320532 -0.0270757 0.212285
5 0.0669925 -0.05 -0.140335 -0.0036957 0.206575
5 0.0669925 0.05 -0.179491 0.0173416 0.270436
5 0.0248981 0.08 -0.282089 0.00996748 0.139321
5 0.0248981 -0.08 -0.085225 -0.00576297 0.232743
5 0.0785979 -0.03 -0.140224 0.0160968 0.221459
5 0.0785979 0.03 -0.164152 0.0317991 0.240309
5 0.0846329 0 -0.135008 0.0321264 0.226137
5 0.0279244 0.08 -0.268102 0.00855201 0.141871
5 0.0279244 -0.08 -0.0567658 -0.0102136 0.230748
5 0.0490026 0.07 -0.199419 0.00552683 0.224422
5 0.0490026 -0.07 -0.0486018 -0.029298 0.208734
5 0.0310063 0.08 -0.252094 0.00631056 0.146192
5 0.0310063 -0.08 -0.0352118 -0.0152007 0.223741
5 0.0614146 -0.06 -0.113448 -0.0183509 0.201691
5 0.0614146 0.06 -0.185612 0.00259582 0.268624
5 0.0766105 -0.04 -0.134108 0.00585092 0.216994
5 0.0766105 0.04 -0.166074 0.0184087 0.246926
5 0.0707909 -0.05 -0.143192 -0.0035522 0.208531
5 0.0707909 0.05 -0.174042 0.00935345 0.269203
5 0.0846329 -0.02 -0.119838 0.0211422 0.232445
5 0.0846329 0.02 -0.143722 0.0309495 0.22541
5 0.0341446 0.08 -0.235763 0.003074 0.154925
5 0.0341446 -0.08 -0.022196 -0.0202128 0.215203
5 0.0866939 -0.01 -0.121064 0.0282625 0.233025
5 0.0866939 0.01 -0.1337 0.0340013 0.224912
5 0.052471 0.07 -0.192924 -0.00384973 0.249087
5 0.052471 -0.07 -0.067566 -0.0307987 0.204505
5 0.0826091 -0.03 -0.123451 0.0143812 0.231147
5 0.0826091 0.03 -0.155547 0.0279441 0.230225
5 0.0373405 0.08 -0.220605 -0.00130489 0.169147
5 0.0373405 -0.08 -0.0175636 -0.0249087 0.207753
5 0.0651106 -0.06 -0.122967 -0.017673 0.199595
5 0.0651106 0.06 -0.178882 -0.00536687 0.274664
5 0.0887548 0 -0.116314 0.0302108 0.234368
5 0.056003 0.07 -0.186835 -0.0137187 0.271652
5 0.056003 -0.07 -0.0862587 -0.0315437 0.19986
5 0.040595 0.08 -0.207635 -0.0068727 0.188391
5 0.040595 -0.08 -0.0201175 -0.0291871 0.202457
5 0.0746589 -0.05 -0.134909 -0.00413205 0.212947
5 0.0746589 0.05 -0.16984 0.00386211 0.257895
5 0.0805853 -0.04 -0.11516 0.00423747 0.223362
5 0.0805853 0.04 -0.157814 0.0149051 0.234568
5 0.00128482 0.09 -0.0704541 0.000425451 0.0144589
5 0.00128482 -0.09 -0.0748247 0.000145535 0.0226666
5 0.00387803 0.09 -0.126311 0.00172276 0.0307672
5 0.00387803 -0.09 -0.123514 0.000604162 0.0468909
5 0.00651881 0.09 -0.177478 0.00278601 0.0503015
5 0.00651881 -0.09 -0.159014 0.0015073 0.0760159
5 0.00920802 0.09 -0.223011 0.00375607 0.0714445
5 0.00920802 -0.09 -0.179608 0.00246899 0.109026
5 0.0119465 0.09 -0.260644 0.00447011 0.0922616
5 0.0119465 -0.09 -0.183927 0.00317063 0.143615
5 0.0887548 -0.02 -0.0949606 0.0189213 0.24428
5 0.0887548 0.02 -0.123801 0.0290194 0.225028
5 0.0147353 0.09 -0.287554 0.00469448 0.110764
5 0.0147353 -0.09 -0.172677 0.00323891 0.175985
5 0.0439092 0.08 -0.197452 -0.0135001 0.210998
5 0.0439092 -0.08 -0.028141 -0.033 0.198923
5 0.0688745 -0.06 -0.123884 -0.0172755 0.199149
5 0.0688745 0.06 -0.173762 -0.0113849 0.271505
5 0.0908536 -0.01 -0.0981968 0.0262906 0.247603
5 0.0908536 0.01 -0.112287 0.0322882 0.231939
5 0.0175752 0.09 -0.301258 0.00402961 0.124865
5 0.0175752 -0.09 -0.149085 0.00221656 0.201884
5 0.0866939 -0.03 -0.097494 0.0119936 0.242546
5 0.0866939 0.03 -0.137706 0.0255413 0.222956
5 0.0595998 0.07 -0.180997 -0.0230441 0.28562
5 0.0595998 -0.07 -0.101635 -0.0316998 0.195787
5 0.0204672 0.09 -0.301361 0.00228453 0.13336
5 0.0204672 -0.09 -0.11814 -0.000324513 0.218093
5 0.0472842 0.08 -0.190098 -0.0209232 0.234631
5 0.0472842 -0.08 -0.0398208 -0.0362432 0.196006
5 0.0929523 0 -0.0915209 0.0283719 0.247678
5 0.0234122 0.09 -0.290936 -0.000675601 0.137309
5 0.0234122 -0.09 -0.0855274 -0.00445811 0.223609
5 0.0785979 -0.05 -0.11387 -0.00568139 0.218288
5 0.0785979 0.05 -0.162826 0.000623657 0.241624
5 0.0846329 -0.04 -0.0869293 0.00204646 0.230123
5 0.0846329 0.04 -0.142191 0.0130346 0.223375
5 0.0264113 0.09 -0.274244 -0.00480759 0.139282
5 0.0264113 -0.09 -0.0564863 -0.0098908 0.220125
5 0.0727073 -0.06 -0.11468 -0.0173239 0.19986
5 0.0727073 0.06 -0.169513 -0.0150609 0.259726
5 0.0632626 -0.07 -0.110863 -0.0315188 0.193021
5 0.0632626 0.07 -0.176039 -0.0304858 0.288674
5 0.0294653 0.09 -0.254599 -0.0100545 0.142709
5 0.0294653 -0.09 -0.0346203 -0.0160539 0.211304
5 0.0507211 0.08 -0.184843 -0.0286856 0.256453
5 0.0507211 -0.08 -0.0534506 -0.0387621 0.192711
5 0.0929523 -0.02 -0.0624516 0.0163046 0.257585
5 0.0929523 0.02 -0.0979556 0.0278081 0.230359
5 0.0950896 -0.01 -0.0690105 0.0239955 0.26559
5 0.0950896 0.01 -0.0865787 0.0309127 0.245587
5 0.0908536 -0.03 -0.0630763 0.00913749 0.253952
5 0.0908536 0.03 -0.111501 0.0242463 0.220306
5 0.0325754 0.09 -0.234128 -0.0163523 0.151838
5 0.0325754 -0.09 -0.0217362 -0.0222682 0.201238
5 0.0826091 -0.05 -0.0830859 -0.00784739 0.222557
5 0.0826091 0.05 -0.148728 -0.000747414 0.22611
5 0.054221 0.08 -0.180783 -0.0358481 0.273841
5 0.054221 -0.08 -0.0670013 -0.0403987 0.188745
5 0.0357425 0.09 -0.214996 -0.0235612 0.168135
5 0.0357425 -0.09 -0.0172006 -0.0280515 0.192992
5 0.0669925 -0.07 -0.111267 -0.031056 0.191428
5 0.0669925 0.07 -0.172137 -0.0353223 0.280805
5 0.0972268 0 -0.0616082 0.0264626 0.265166
5 0.0766105 -0.06 -0.0945753 -0.017876 0.200658
5 0.0766105 0.06 -0.163565 -0.0166 0.243378
5 0.0887548 -0.04 -0.0501729 -0.000549556 0.235635
5 0.0887548 0.04 -0.118623 0.0124649 0.21581
5 0.0389677 0.09 -0.198957 -0.0314509 0.191205
5 0.0389677 -0.09 -0.0193969 -0.0333426 0.187682
5 0.0577851 -0.08 -0.0780747 -0.0411356 0.184474
5 0.0577851 0.08 -0.177436 -0.0416673 0.284038
5 0.0972268 -0.02 -0.0220402 0.0132643 0.269816
5 0.0972268 0.02 -0.0696698 0.027131 0.242543
5 0.0422521 0.09 -0.18696 -0.0396592 0.21805
5 0.0422521 -0.09 -0.025837 -0.038151 0.184705
5 0.0707909 -0.07 -0.100742 -0.0307979 0.190064
5 0.0707909 0.07 -0.169377 -0.0369139 0.265573
5 0.0950896 -0.03 -0.0195084 0.00579372 0.263201
5 0.0950896 0.03 -0.0814445 0.0237846 0.223606
5 0.0994033 -0.01 -0.0322403 0.0212334 0.283488
5 0.0994033 0.01 -0.05859 0.029708 0.266008
5 0 0.1 0 0 0
5 0 -0.1 0 0 0
5 0.00256965 0.1 -0.0987584 0.00060448 0.0266181
5 0.00256965 -0.1 -0.0971517 0.000222241 0.0378728
5 0.0866939 -0.05 -0.0436739 -0.0103425 0.224244
5 0.0866939 0.05 -0.126774 -0.000599913 0.214205
5 0.00518642 0.1 -0.152413 0.00111999 0.0469754
5 0.00518642 -0.1 -0.137028 0.000722758 0.0664525
5 0.00785119 0.1 -0.201279 0.00139351 0.0694133
5 0.00785119 -0.1 -0.161769 0.00141857 0.0985094
5 0.0805853 -0.06 -0.0648199 -0.0187918 0.200219
5 0.0805853 0.06 -0.153243 -0.0162879 0.227058
5 0.0105648 0.1 -0.243679 0.00146847 0.0920859
5 0.0105648 -0.1 -0.17028 0.00189054 0.131594
5 0.0614146 -0.08 -0.0842632 -0.0411135 0.180379
5 0.0614146 0.08 -0.174907 -0.0455908 0.285234
5 0.0133283 0.1 -0.276922 0.00109672 0.113122
5 0.0133283 -0.1 -0.163134 0.00167551 0.16215
5 0.0455967 0.09 -0.179118 -0.0476998 0.245099
5 0.0455967 -0.09 -0.0344854 -0.0424777 0.182654
5 0.0929523 -0.04 -0.00581504 -0.00333231 0.238968
5 0.0929523 0.04 -0.0895614 0.0129308 0.212686
5 0.0161424 0.1 -0.297965 -9.98175e-05 0.130527
5 0.0161424 -0.1 -0.143422 0.000300617 0.186306
5 0.10158 0 -0.0260712 0.0242413 0.284064
5 0.0190081 0.1 -0.304985 -0.00259303 0.142493
5 0.0190081 -0.1 -0.116191 -0.00255831 0.201296
5 0.0746589 -0.07 -0.0798712 -0.0308135 0.187897
5 0.0746589 0.07 -0.16479 -0.0365459 0.246226
5 0.0219263 0.1 -0.29905 -0.00669121 0.148802
5 0.0219263 -0.1 -0.0870762 -0.00691372 0.206504
5 0.0490026 0.09 -0.17475 -0.0551192 0.268316
5 0.0490026 -0.09 -0.0441462 -0.0461222 0.180351
5 0.0248981 0.1 -0.283887 -0.0123988 0.151819
5 0.0248981 -0.1 -0.0610804 -0.0124247 0.203645
5 0.0651106 -0.08 -0.0835447 -0.0404967 0.176558
5 0.0651106 0.08 -0.173317 -0.046913 0.277103
5 0.10158 -0.02 0.0256432 0.01001 0.278616
5 0.10158 0.02 -0.040576 0.0268097 0.261437
5 0.0908536 -0.05 0.0035682 -0.0129879 0.221798
5 0.0908536 0.05 -0.0985016 0.000671832 0.205771
5 0.0846329 -0.06 -0.0279217 -0.0197977 0.198369
5 0.0846329 0.06 -0.136996 -0.0144925 0.213577
5 0.0279244 0.1 -0.263813 -0.0194421 0.155225
5 0.0279244 -0.1 -0.0413354 -0.0185087 0.196032
5 0.0994033 -0.03 0.0326167 0.00203325 0.266989
5 0.0994033 0.03 -0.052054 0.0241185 0.234979
5 0.052471 0.09 -0.172277 -0.0613024 0.28399
5 0.052471 -0.09 -0.053492 -0.0488301 0.177251
5 0.103796 -0.01 0.0134974 0.017782 0.297295
5 0.103796 0.01 -0.0269352 0.0282406 0.289472
5 0.0310063 0.1 -0.242128 -0.0273901 0.162576
5 0.0310063 -0.1 -0.0289683 -0.0245071 0.187208
5 0.0972268 -0.04 0.0437618 -0.00603676 0.240654
5 0.0972268 0.04 -0.0587275 0.0142851 0.21529
5 0.0785979 -0.07 -0.0496422 -0.0308775 0.183499
5 0.0785979 0.07 -0.156802 -0.0343401 0.227761
5 0.0688745 -0.08 -0.0745838 -0.0394864 0.172639
5 0.0688745 0.08 -0.172407 -0.0456986 0.26207
5 0.0341446 0.1 -0.22129 -0.0357413 0.176164
5 0.0341446 -0.1 -0.0235219 -0.0299501 0.179677
5 0.056003 0.09 -0.171094 -0.0645236 0.290639
5 0.056003 -0.09 -0.060692 -0.0504226 0.173363
5 0.106012 0 0.016091 0.021672 0.300705
5 0.0373405 0.1 -0.203362 -0.044002 0.19595
5 0.0373405 -0.1 -0.0232998 -0.0347334 0.174394
5 0.0887548 -0.06 0.0137401 -0.0206615 0.195825
5 0.0887548 0.06 -0.114792 -0.0115415 0.203389
5 0.0950896 -0.05 0.0557754 -0.0152736 0.216921
5 0.0950896 0.05 -0.0667859 0.00302077 0.20106
5 0.106012 -0.02 0.0774034 0.00721007 0.284851
5 0.106012 0.02 -0.00928895 0.0265226 0.283799
5 0.040595 0.1 -0.189737 -0.0517244 0.219549
5 0.040595 -0.1 -0.026372 -0.0389214 0.171091
5 0.0595998 -0.09 -0.0637157 -0.0508765 0.168885
5 0.0595998 0.09 -0.170818 -0.0653842 0.288244
5 0.103796 -0.03 0.0887209 -0.00101015 0.266695
5 0.103796 0.03 -0.024712 0.0251716 0.255298
5 0.0727073 -0.08 -0.0574607 -0.0382293 0.168246
5 0.0727073 0.08 -0.171253 -0.042436 0.244144
5 0.0826091 -0.07 -0.012669 -0.0307613 0.176532
5 0.0826091 0.07 -0.144612 -0.0306874 0.212731
5 0.108269 -0.01 0.0664606 0.0144471 0.305726
5 0.108269 0.01 0.0113613 0.0262173 0.310335
5 0.10158 -0.04 0.0933553 -0.00810061 0.243127
5 0.10158 0.04 -0.0288084 0.0164995 0.225538
5 0.0439092 0.1 -0.180771 -0.0584281 0.243171
5 0.0439092 -0.1 -0.0311383 -0.0424992 0.168917
5 0.00128482 0.11 -0.0712838 6.50791e-05 0.0199191
5 0.00128482 -0.11 -0.0724187 1.7242e-06 0.0267014
5 0.0632626 -0.09 -0.06084 -0.0503586 0.163822
5 0.0632626 0.09 -0.171774 -0.06345 0.278398
5 0.00387803 0.11 -0.126993 0.000204739 0.0413301
5 0.00387803 -0.11 -0.117856 0.000137588 0.0552364
5 0.00651881 0.11 -0.178877 -0.00023351 0.0655062
5 0.00651881 -0.11 -0.147733 0.000642089 0.0876716
5 0.00920802 0.11 -0.225758 -0.000734482 0.0904049
5 0.00920802 -0.11 -0.160723 0.00105599 0.121329
5 0.110526 0 0.0639471 0.0193152 0.313177
5 0.0472842 0.1 -0.175821 -0.0636209 0.262941
5 0.0472842 -0.1 -0.0364978 -0.0453585 0.166992
5 0.0929523 -0.06 0.0567134 -0.0210866 0.194251
5 0.0929523 0.06 -0.0875404 -0.00778151 0.196003
5 0.0119465 0.11 -0.265308 -0.00161783 0.114236
5 0.0119465 -0.11 -0.156863 0.000866597 0.152412
5 0.0766105 -0.08 -0.033627 -0.0366326 0.163457
5 0.0766105 0.08 -0.168317 -0.0375454 0.226564
5 0.0147353 0.11 -0.294188 -0.00316001 0.135231
5 0.0147353 -0.11 -0.139068 -0.000574215 0.176594
5 0.0994033 -0.05 0.106185 -0.0167014 0.215505
5 0.0994033 0.05 -0.0346129 0.00621723 0.201519
5 0.0175752 0.11 -0.308864 -0.00596366 0.15125
5 0.0175752 -0.11 -0.112852 -0.00367916 0.190766
5 0.0866939 -0.07 0.0277568 -0.0302402 0.170141
5 0.0866939 0.07 -0.127862 -0.0259344 0.201257
5 0.0204672 0.11 -0.308455 -0.0107232 0.160498
5 0.0204672 -0.11 -0.0846799 -0.00844682 0.194444
5 0.0507211 0.1 -0.173884 -0.0669904 0.276101
5 0.0507211 -0.1 -0.0416221 -0.0473249 0.16471
5 0.0669925 -0.09 -0.0512071 -0.0490531 0.157959
5 0.0669925 0.09 -0.173318 -0.0583936 0.260533
5 0.110526 -0.02 0.127141 0.00571281 0.292318
5 0.110526 0.02 0.0266247 0.0261134 0.304825
5 0.108269 -0.03 0.140958 -0.00237974 0.26969
5 0.108269 0.03 0.00314479 0.0264609 0.280102
5 0.0234122 0.11 -0.295447 -0.0176515 0.164041
5 0.0234122 -0.11 -0.059952 -0.0144264 0.18987
5 0.0264113 0.11 -0.274918 -0.0264618 0.166645
5 0.0264113 -0.11 -0.0423514 -0.0209247 0.180974
5 0.112825 -0.01 0.121039 0.0124353 0.311313
5 0.112825 0.01 0.0569506 0.0241604 0.32534
5 0.106012 -0.04 0.136597 -0.00885452 0.250668
5 0.106012 0.04 -0.000130738 0.0195162 0.24355
5 0.0805853 -0.08 -0.00539846 -0.0345455 0.1588
5 0.0805853 0.08 -0.162394 -0.0315116 0.211911
5 0.054221 0.1 -0.174156 -0.0681129 0.281188
5 0.054221 -0.1 -0.0454958 -0.0482071 0.161794
5 0.0294653 0.11 -0.251487 -0.036446 0.172264
5 0.0294653 -0.11 -0.0318801 -0.0271665 0.171722
5 0.0972268 -0.06 0.0959123 -0.0208076 0.197123
5 0.0972268 0.06 -0.0567235 -0.00346564 0.191668
5 0.0707909 -0.09 -0.0351145 -0.0470381 0.151103
5 0.0707909 0.09 -0.174798 -0.0521638 0.241366
5 0.0908536 -0.07 0.0673259 -0.0290759 0.167117
5 0.0908536 0.07 -0.106018 -0.0203023 0.192319
5 0.0325754 0.11 -0.228292 -0.0467094 0.183495
5 0.0325754 -0.11 -0.0276346 -0.0325408 0.164567
5 0.115123 0 0.113505 0.0182065 0.323093
5 0.103796 -0.05 0.145919 -0.0167248 0.22332
5 0.103796 0.05 -0.00384241 0.0104918 0.210363
5 0.0577851 -0.1 -0.046901 -0.0478913 0.158214
5 0.0577851 0.1 -0.176134 -0.0666747 0.277939
5 0.0357425 0.11 -0.207741 -0.0563444 0.201194
5 0.0357425 -0.11 -0.0275157 -0.0369411 0.15991
5 0.0846329 -0.08 0.0242347 -0.0318306 0.155638
5 0.0846329 0.08 -0.152487 -0.0248094 0.200983
5 0.0389677 0.11 -0.191749 -0.0646535 0.223271
5 0.0389677 -0.11 -0.0290866 -0.0405997 0.156992