# UMean  POINT_DATA 90431
# x  y  z  UMean_x  UMean_y  UMean_z
5 0 0 0 0 0
5 0.00256965 0 -0.0859174 -0.000409343 0.019368
5 0.00518642 0 -0.1214 -0.000894497 0.0283602
5 0.00785119 0 -0.149526 -0.00158994 0.0371055
5 0.00128482 0.01 -0.0664802 -0.000203619 0.0144253
5 0.00128482 -0.01 -0.0663175 -0.000331236 0.0152495
5 0.0105648 0 -0.170406 -0.00233146 0.0455831
5 0.00387803 0.01 -0.105841 -0.000458188 0.023116
5 0.00387803 -0.01 -0.105036 -0.000644371 0.0246827
5 0.00651881 0.01 -0.138323 -0.00110338 0.0319739
5 0.00651881 -0.01 -0.136405 -0.00137216 0.0336696
5 0.0133283 0 -0.185189 -0.00312244 0.0539807
5 0.00920802 0.01 -0.163403 -0.00181803 0.0406606
5 0.00920802 -0.01 -0.159975 -0.00206632 0.0421193
5 0.0119465 0.01 -0.181582 -0.00265685 0.0491502
5 0.0119465 -0.01 -0.176669 -0.00278479 0.0504036
5 0.0161424 0 -0.195383 -0.00393102 0.0623898
5 0.0147353 0.01 -0.194209 -0.00357175 0.0575435
5 0.0147353 -0.01 -0.1883 -0.00347653 0.0588271
5 0.0190081 0 -0.202216 -0.00474473 0.0707309
5 0 0.02 0 0 0
5 0 -0.02 0 0 0
5 0.00256965 0.02 -0.0872347 -0.000352985 0.0184989
5 0.00256965 -0.02 -0.0862892 -0.000548815 0.0194865
5 0.0175752 0.01 -0.202646 -0.00453116 0.0658304
5 0.0175752 -0.01 -0.196381 -0.00414479 0.0673599
5 0.00518642 0.02 -0.12377 -0.000843502 0.0271191
5 0.00518642 -0.02 -0.120984 -0.00113065 0.0291578
5 0.00785119 0.02 -0.153167 -0.00155557 0.0356581
5 0.00785119 -0.02 -0.147812 -0.00187929 0.0384892
5 0.0219263 0 -0.206528 -0.00556008 0.0788621
5 0.0105648 0.02 -0.175313 -0.00232461 0.0439589
5 0.0105648 -0.02 -0.167156 -0.00257782 0.0475065
5 0.0204672 0.01 -0.207999 -0.00550497 0.0739055
5 0.0204672 -0.01 -0.201841 -0.00479816 0.0758294
5 0.0133283 0.02 -0.191037 -0.00314675 0.0520965
5 0.0133283 -0.02 -0.180555 -0.00322985 0.0564378
5 0.0248981 0 -0.208883 -0.00637348 0.0866378
5 0.0234122 0.01 -0.21106 -0.00645947 0.0816455
5 0.0234122 -0.01 -0.205212 -0.00547789 0.0840694
5 0.0161424 0.02 -0.201684 -0.00398198 0.0601006
5 0.0161424 -0.02 -0.189762 -0.00382639 0.0653644
5 0.0190081 0.02 -0.20855 -0.00479899 0.06788
5 0.0190081 -0.02 -0.196024 -0.00438471 0.0741775
5 0.0279244 0 -0.209701 -0.00718038 0.0939121
5 0.0264113 0.01 -0.212373 -0.00735892 0.0889146
5 0.0264113 -0.01 -0.206886 -0.00619779 0.0919231
5 0.0219263 0.02 -0.212674 -0.00556436 0.0752961
5 0.0219263 -0.02 -0.200077 -0.00493135 0.0827026
5 0.00128482 0.03 -0.0680382 -0.000215607 0.0140019
5 0.00128482 -0.03 -0.0677253 -0.000386717 0.0139323
5 0.00387803 0.03 -0.108585 -0.000534568 0.0224537
5 0.00387803 -0.03 -0.106083 -0.000832994 0.0240829
5 0.00651881 0.03 -0.142337 -0.00127798 0.0309341
5 0.00651881 -0.03 -0.136417 -0.00167321 0.0341974
5 0.0310063 0 -0.209322 -0.00797914 0.100555
5 0.0294653 0.01 -0.212353 -0.00817845 0.0956055
5 0.0294653 -0.01 -0.20719 -0.00698652 0.0992066
5 0.00920802 0.03 -0.16861 -0.002023 0.0390654
5 0.00920802 -0.03 -0.158454 -0.00240557 0.043972
5 0.0248981 0.02 -0.214803 -0.00624449 0.0822301
5 0.0248981 -0.02 -0.202383 -0.00549814 0.0907674
5 0.0119465 0.03 -0.18766 -0.0028007 0.0469609
5 0.0119465 -0.03 -0.173529 -0.00305471 0.0535327
5 0.0147353 0.03 -0.200701 -0.00355784 0.054733
5 0.0147353 -0.03 -0.183725 -0.00360349 0.0629892
5 0.0325754 0.01 -0.211326 -0.00889697 0.101651
5 0.0325754 -0.01 -0.20642 -0.0078548 0.105758
5 0.0341446 0 -0.208037 -0.00876668 0.10645
5 0.0279244 0.02 -0.215459 -0.0068144 0.0886061
5 0.0279244 -0.02 -0.20329 -0.00611683 0.0982061
5 0.0175752 0.03 -0.209182 -0.00426732 0.0622971
5 0.0175752 -0.03 -0.190645 -0.00408087 0.072283
5 0.0204672 0.03 -0.214374 -0.00489266 0.0694886
5 0.0204672 -0.03 -0.19523 -0.00451512 0.0812395
5 0.0310063 0.02 -0.215003 -0.00725869 0.0943832
5 0.0310063 -0.02 -0.203082 -0.00681589 0.104873
5 0.0357425 0.01 -0.209583 -0.00950595 0.106944
5 0.0357425 -0.01 -0.20482 -0.00880917 0.111446
5 0.0373405 0 -0.206074 -0.0095395 0.111481
5 0.0234122 0.03 -0.217262 -0.00540048 0.0761464
5 0.0234122 -0.03 -0.198025 -0.00493433 0.0896737
5 0.0341446 0.02 -0.213696 -0.00756714 0.0995289
5 0.0341446 -0.02 -0.201995 -0.00761332 0.110659
5 0.0264113 0.03 -0.218519 -0.00575921 0.0822154
5 0.0264113 -0.03 -0.19941 -0.00538268 0.0974049
5 0 0.04 0 0 0
5 0 -0.04 0 0 0
5 0.00256965 0.04 -0.0895972 -0.000342754 0.0176369
5 0.00256965 -0.04 -0.0871415 -0.0004535 0.0187285
5 0.0389677 0.01 -0.207317 -0.0100068 0.111379
5 0.0389677 -0.01 -0.202575 -0.00983628 0.116154
5 0.00518642 0.04 -0.127283 -0.000826858 0.02578
5 0.00518642 -0.04 -0.121164 -0.000945777 0.0292067
5 0.040595 0 -0.203596 -0.0102905 0.115555
5 0.00785119 0.04 -0.157785 -0.00150035 0.0336306
5 0.00785119 -0.04 -0.146856 -0.00156473 0.0397417
5 0.0105648 0.04 -0.180888 -0.00217433 0.0410624
5 0.0105648 -0.04 -0.164814 -0.00212679 0.0500362
5 0.0294653 0.03 -0.218592 -0.00596111 0.0876902
5 0.0294653 -0.03 -0.199673 -0.00590047 0.104291
5 0.0133283 0.04 -0.197275 -0.0028161 0.0482503
5 0.0133283 -0.04 -0.17677 -0.00263694 0.0600503
5 0.0373405 0.02 -0.211733 -0.00774285 0.103998
5 0.0373405 -0.02 -0.200214 -0.00851365 0.115484
5 0.0161424 0.04 -0.208283 -0.00337019 0.0552504
5 0.0161424 -0.04 -0.184622 -0.0030973 0.0697989
5 0.0422521 0.01 -0.204664 -0.0103901 0.114866
5 0.0422521 -0.01 -0.199828 -0.0109292 0.119822
5 0.0439092 0 -0.200734 -0.0110139 0.118646
5 0.0325754 0.03 -0.217742 -0.00599829 0.0925867
5 0.0325754 -0.03 -0.199045 -0.00652194 0.110238
5 0.0190081 0.04 -0.215325 -0.00380299 0.0619556
5 0.0190081 -0.04 -0.189719 -0.00352773 0.0792012
5 0.040595 0.02 -0.209263 -0.00779719 0.107738
5 0.040595 -0.02 -0.197886 -0.00950694 0.11932
5 0.0219263 0.04 -0.219575 -0.00409238 0.068239
5 0.0219263 -0.04 -0.192872 -0.00394283 0.0880916
5 0.0357425 0.03 -0.216131 -0.00586739 0.0969339
5 0.0357425 -0.03 -0.197695 -0.00726755 0.115192
5 0.0455967 0.01 -0.201735 -0.0107144 0.117389
5 0.0455967 -0.01 -0.196708 -0.012022 0.122508
5 0.0248981 0.04 -0.221873 -0.00422741 0.0740188
5 0.0248981 -0.04 -0.194563 -0.0043583 0.0962939
5 0.0472842 0 -0.19761 -0.0117029 0.120837
5 0.0439092 0.02 -0.206423 -0.00776285 0.110713
5 0.0439092 -0.02 -0.195144 -0.0105607 0.122225
5 0.0279244 0.04 -0.222771 -0.00420874 0.0792612
5 0.0279244 -0.04 -0.195104 -0.00479728 0.103654
5 0.0389677 0.03 -0.2139 -0.00559132 0.100735
5 0.0389677 -0.03 -0.195764 -0.00814181 0.119144
5 0.0490026 0.01 -0.198634 -0.0109681 0.119056
5 0.0490026 -0.01 -0.193363 -0.0131073 0.124396
5 0.00128482 0.05 -0.0700342 -0.000176795 0.0130881
5 0.00128482 -0.05 -0.0684098 -0.000190241 0.0131931
5 0.00387803 0.05 -0.111737 -0.000444088 0.0210054
5 0.00387803 -0.05 -0.106353 -0.000404097 0.0237073
5 0.00651881 0.05 -0.146479 -0.0010509 0.0287282
5 0.00651881 -0.05 -0.135806 -0.00087291 0.0348411
5 0.0310063 0.04 -0.222603 -0.0040429 0.0839653
5 0.0310063 -0.04 -0.194723 -0.00528044 0.110052
5 0.0507211 0 -0.194358 -0.0123353 0.122293
5 0.00920802 0.05 -0.173718 -0.00164964 0.0357958
5 0.00920802 -0.05 -0.156749 -0.00130731 0.0459579
5 0.0472842 0.02 -0.203355 -0.00767852 0.112943
5 0.0472842 -0.02 -0.192114 -0.0116306 0.124362
5 0.0119465 0.05 -0.193568 -0.0022241 0.0424288
5 0.0119465 -0.05 -0.170528 -0.00173967 0.0566837
5 0.0422521 0.03 -0.211171 -0.00520056 0.103974
5 0.0422521 -0.03 -0.193377 -0.00912072 0.122161
5 0.0147353 0.05 -0.207174 -0.00268185 0.0488799
5 0.0147353 -0.05 -0.179299 -0.00214996 0.0669973
5 0.0341446 0.04 -0.221569 -0.00373849 0.0881563
5 0.0341446 -0.04 -0.193606 -0.00582406 0.115421
5 0.0175752 0.05 -0.216075 -0.00297383 0.0550931
5 0.0175752 -0.05 -0.184818 -0.00255497 0.0769279
5 0.052471 0.01 -0.195483 -0.0111634 0.12005
5 0.052471 -0.01 -0.189951 -0.0141026 0.125672
5 0.0204672 0.05 -0.221671 -0.00307822 0.0609449
5 0.0204672 -0.05 -0.188186 -0.00296005 0.086356
5 0.054221 0 -0.191098 -0.0128849 0.123193
5 0.0507211 0.02 -0.2002 -0.00756859 0.114517
5 0.0507211 -0.02 -0.188918 -0.0126661 0.125933
5 0.0455967 0.03 -0.208123 -0.00474639 0.106626
5 0.0455967 -0.03 -0.190663 -0.0101713 0.124412
5 0.0373405 0.04 -0.219807 -0.00331119 0.0918704
5 0.0373405 -0.04 -0.191911 -0.00643863 0.119751
5 0.0234122 0.05 -0.224992 -0.00299821 0.0663771
5 0.0234122 -0.05 -0.190049 -0.00336191 0.0950989
5 0.0264113 0.05 -0.226719 -0.00275176 0.0713375
5 0.0264113 -0.05 -0.190767 -0.00375438 0.102999
5 0.056003 0.01 -0.192375 -0.0113079 0.120586
5 0.056003 -0.01 -0.186582 -0.014966 0.126466
5 0.040595 0.04 -0.217451 -0.00278485 0.0951356
5 0.040595 -0.04 -0.189778 -0.00711656 0.123106
5 0.0490026 0.03 -0.20493 -0.00428521 0.108701
5 0.0490026 -0.03 -0.187721 -0.0112223 0.126132
5 0.0577851 0 -0.187918 -0.0133345 0.1237
5 0.054221 0.02 -0.197077 -0.00745821 0.11558
5 0.054221 -0.02 -0.185657 -0.013609 0.127105
5 0.0294653 0.05 -0.227254 -0.00236287 0.0758029
5 0.0294653 -0.05 -0.190564 -0.00415169 0.109921
5 0.0439092 0.04 -0.214672 -0.00218734 0.0979678
5 0.0439092 -0.04 -0.187321 -0.0078343 0.125647
5 0.0325754 0.05 -0.226826 -0.00184928 0.0797824
5 0.0325754 -0.05 -0.18961 -0.00454778 0.115761
5 0 0.06 0 0 0
5 0 -0.06 0 0 0
5 0.00256965 0.06 -0.0922751 -0.000220213 0.0161958
5 0.00256965 -0.06 -0.0866235 -0.000170546 0.0196689
5 0.00518642 0.06 -0.130934 -0.000543253 0.0236774
5 0.00518642 -0.06 -0.119824 -0.000358216 0.0310256
5 0.0595998 0.01 -0.189381 -0.0114018 0.120845
5 0.0595998 -0.01 -0.183332 -0.0156624 0.126904
5 0.052471 0.03 -0.201751 -0.00385764 0.110262
5 0.052471 -0.03 -0.184634 -0.0122324 0.127535
5 0.00785119 0.06 -0.162133 -0.00100152 0.0307176
5 0.00785119 -0.06 -0.144472 -0.000645607 0.0426358
5 0.0105648 0.06 -0.185833 -0.00145814 0.0370743
5 0.0105648 -0.06 -0.16132 -0.000935148 0.0539662
5 0.0577851 0.02 -0.194074 -0.00736162 0.116275
5 0.0577851 -0.02 -0.182401 -0.0144146 0.127982
5 0.0614146 0 -0.184876 -0.0136771 0.123932
5 0.0357425 0.05 -0.225579 -0.00123892 0.083323
5 0.0357425 -0.05 -0.188072 -0.0049591 0.120495
5 0.0133283 0.06 -0.202808 -0.00184605 0.0429305
5 0.0133283 -0.06 -0.17209 -0.00123767 0.0647577
5 0.0472842 0.04 -0.211664 -0.00156058 0.100381
5 0.0472842 -0.04 -0.184637 -0.00855227 0.127602
5 0.0161424 0.06 -0.214434 -0.00209518 0.0484631
5 0.0161424 -0.06 -0.178706 -0.001543 0.0750042
5 0.0190081 0.06 -0.222114 -0.00217988 0.0537071
5 0.0190081 -0.06 -0.182609 -0.00185265 0.0847156
5 0.0389677 0.05 -0.22362 -0.000547028 0.0864906
5 0.0389677 -0.05 -0.186115 -0.0053862 0.124173
5 0.056003 0.03 -0.1987 -0.00350387 0.111423
5 0.056003 -0.03 -0.18146 -0.0131351 0.128746
5 0.0219263 0.06 -0.226975 -0.00209676 0.058648
5 0.0219263 -0.06 -0.184697 -0.00215964 0.0938162
5 0.0632626 0.01 -0.186552 -0.0114624 0.120902
5 0.0632626 -0.01 -0.180238 -0.0161819 0.127078
5 0.0614146 0.02 -0.191243 -0.0072876 0.116691
5 0.0614146 -0.02 -0.179201 -0.0150564 0.128629
5 0.0507211 0.04 -0.208597 -0.000948857 0.102404
5 0.0507211 -0.04 -0.181799 -0.00923009 0.129198
5 0.0248981 0.06 -0.229818 -0.0018553 0.0632495
5 0.0248981 -0.06 -0.185488 -0.002454 0.102175
5 0.0651106 0 -0.18202 -0.0139185 0.123961
5 0.0422521 0.05 -0.221114 0.000199651 0.0893441
5 0.0422521 -0.05 -0.183857 -0.00581766 0.126949
5 0.0279244 0.06 -0.231179 -0.00147476 0.0674783
5 0.0279244 -0.06 -0.185286 -0.00273375 0.109644
5 0.0595998 0.03 -0.19584 -0.00323294 0.112245
5 0.0595998 -0.03 -0.178231 -0.0138953 0.129814
5 0.054221 0.04 -0.205593 -0.000391666 0.104078
5 0.054221 -0.04 -0.178833 -0.00982749 0.130581
5 0.0310063 0.06 -0.231406 -0.000974772 0.0713287
5 0.0310063 -0.06 -0.184298 -0.0029994 0.116093
5 0.0455967 0.05 -0.21828 0.000998091 0.0919286
5 0.0455967 -0.05 -0.181385 -0.00622772 0.129067
5 0.0669925 0.01 -0.183926 -0.0115057 0.120775
5 0.0669925 -0.01 -0.177362 -0.0165243 0.127088
5 0.0651106 0.02 -0.188608 -0.00724779 0.116883
5 0.0651106 -0.02 -0.176116 -0.0155192 0.129075
5 0.0688745 0 -0.179404 -0.0140687 0.123846
5 0.0341446 0.06 -0.230722 -0.000376969 0.0748228
5 0.0341446 -0.06 -0.182709 -0.00325384 0.121452
5 0.0490026 0.05 -0.215321 0.00179136 0.0942715
5 0.0490026 -0.05 -0.17878 -0.00658796 0.130799
5 0.00128482 0.07 -0.0722275 -6.80859e-05 0.0117448
5 0.00128482 -0.07 -0.0673257 -7.48183e-05 0.0150697
5 0.0632626 0.03 -0.193196 -0.00305326 0.112773
5 0.0632626 -0.03 -0.175003 -0.0144863 0.13072
5 0.00387803 0.07 -0.115108 -0.000191913 0.0189461
5 0.00387803 -0.07 -0.104411 -1.30387e-05 0.0267071
5 0.0577851 0.04 -0.20272 7.86326e-05 0.10543
5 0.0577851 -0.04 -0.17574 -0.0103111 0.131804
5 0.00651881 0.07 -0.150416 -0.000486182 0.0260309
5 0.00651881 -0.07 -0.132729 -0.000142867 0.0388486
5 0.00920802 0.07 -0.177924 -0.000819418 0.0323166
5 0.00920802 -0.07 -0.152609 -0.00025939 0.0508977
5 0.0373405 0.06 -0.229284 0.000295951 0.0780081
5 0.0373405 -0.06 -0.180697 -0.00350171 0.125734
5 0.0119465 0.07 -0.198124 -0.00113947 0.0377569
5 0.0119465 -0.07 -0.165398 -0.000434278 0.0623271
5 0.0707909 -0.01 -0.174781 -0.0166981 0.126993
5 0.0707909 0.01 -0.181546 -0.0115469 0.12053
5 0.0147353 0.07 -0.212367 -0.00133884 0.0426575
5 0.0147353 -0.07 -0.173136 -0.000626819 0.0730243
5 0.0688745 -0.02 -0.173224 -0.0158016 0.129346
5 0.0688745 0.02 -0.186186 -0.00725708 0.116899
5 0.0175752 0.07 -0.222121 -0.00138623 0.0472231
5 0.0175752 -0.07 -0.177573 -0.000840307 0.0830692
5 0.040595 0.06 -0.227248 0.00102304 0.0809438
5 0.040595 -0.06 -0.17842 -0.00373732 0.129048
5 0.052471 0.05 -0.212384 0.00255622 0.0963807
5 0.052471 -0.05 -0.176059 -0.00687785 0.132329
5 0.0727073 0 -0.177067 -0.0141401 0.123657
5 0.0204672 0.07 -0.22859 -0.00128124 0.0515682
5 0.0204672 -0.07 -0.179862 -0.00105534 0.0925111
5 0.0614146 0.04 -0.20001 0.000438671 0.106454
5 0.0614146 -0.04 -0.172534 -0.0106677 0.132862
5 0.0669925 0.03 -0.190757 -0.00296987 0.113082
5 0.0669925 -0.03 -0.171859 -0.0148843 0.131415
5 0.0234122 0.07 -0.232648 -0.00102933 0.0557028
5 0.0234122 -0.07 -0.180692 -0.00126134 0.1013
5 0.0439092 0.06 -0.224805 0.0017853 0.0836836
5 0.0439092 -0.06 -0.175989 -0.00393854 0.131593
5 0.0264113 0.07 -0.234913 -0.000641839 0.0595816
5 0.0264113 -0.07 -0.180445 -0.00143843 0.109304
5 0.056003 0.05 -0.209538 0.00323877 0.0982454
5 0.056003 -0.05 -0.17318 -0.00706469 0.133716
5 0.0746589 -0.01 -0.172514 -0.0167082 0.126841
5 0.0746589 0.01 -0.179425 -0.0116071 0.120265
5 0.0727073 -0.02 -0.170596 -0.0159125 0.129477
5 0.0727073 0.02 -0.183978 -0.00733556 0.116814
5 0.0294653 0.07 -0.235832 -0.00014246 0.063192
5 0.0294653 -0.07 -0.179366 -0.00159057 0.116355
5 0.0472842 0.06 -0.222158 0.00255955 0.0862685
5 0.0472842 -0.06 -0.173467 -0.00408389 0.133605
5 0.0651106 -0.04 -0.169279 -0.010889 0.13372
5 0.0651106 0.04 -0.197471 0.000666346 0.107176
5 0.0766105 0 -0.17499 -0.0141423 0.123491
5 0.0707909 -0.03 -0.168895 -0.0150999 0.131887
5 0.0707909 0.03 -0.188515 -0.00300587 0.113208
5 0.0325754 0.07 -0.235714 0.000455642 0.0665385
5 0.0325754 -0.07 -0.177652 -0.00170761 0.122338
5 0.0595998 0.05 -0.206803 0.00381269 0.0998071
5 0.0595998 -0.05 -0.17009 -0.0071496 0.134939
5 0.0507211 0.06 -0.219472 0.00331018 0.088718
5 0.0507211 -0.06 -0.170855 -0.00415936 0.135291
5 0.0357425 0.07 -0.23477 0.00112482 0.0696478
5 0.0357425 -0.07 -0.175501 -0.00180095 0.127214
5 0.0766105 -0.02 -0.168242 -0.0158651 0.129559
5 0.0766105 0.02 -0.181929 -0.00749487 0.116731
5 0.0785979 -0.01 -0.170524 -0.0165742 0.126741
5 0.0785979 0.01 -0.177497 -0.0116796 0.120118
5 0.0688745 -0.04 -0.166076 -0.0109759 0.134335
5 0.0688745 0.04 -0.195102 0.000743127 0.10767
5 0 0.08 0 0 0
5 0 -0.08 0 0 0
5 0.00256965 0.08 -0.0951202 -8.9592e-05 0.0137342
5 0.00256965 -0.08 -0.084921 1.35685e-05 0.0222337
5 0.0389677 0.07 -0.233167 0.00184509 0.0725717
5 0.0389677 -0.07 -0.1731 -0.00186064 0.131055
5 0.00518642 0.08 -0.1348 -0.000255514 0.0203916
5 0.00518642 -0.08 -0.117025 3.772e-05 0.0347981
5 0.00785119 0.08 -0.166571 -0.000509137 0.0267128
5 0.00785119 -0.08 -0.140462 -1.56884e-05 0.0474679
5 0.0746589 -0.03 -0.166196 -0.0151436 0.132187
5 0.0746589 0.03 -0.186425 -0.00318234 0.113254
5 0.0805853 0 -0.173069 -0.0140752 0.123469
5 0.0632626 0.05 -0.204198 0.00422828 0.100991
5 0.0632626 -0.05 -0.166813 -0.00713995 0.135974
5 0.0105648 0.08 -0.190659 -0.000786477 0.0321594
5 0.0105648 -0.08 -0.156196 -0.000104897 0.0596476
5 0.054221 0.06 -0.216848 0.00400234 0.0910265
5 0.054221 -0.06 -0.168094 -0.00414779 0.136772
5 0.0133283 0.08 -0.208041 -0.00101949 0.0368069
5 0.0133283 -0.08 -0.165975 -0.00024223 0.0710179
5 0.0161424 0.08 -0.220158 -0.00114871 0.0409832
5 0.0161424 -0.08 -0.17164 -0.000401604 0.0815872
5 0.0422521 0.07 -0.231088 0.00259462 0.0753696
5 0.0422521 -0.07 -0.170608 -0.00188482 0.134018
5 0.0190081 0.08 -0.228358 -0.00116122 0.0449011
5 0.0190081 -0.08 -0.174575 -0.000569938 0.0914448
5 0.0219263 0.08 -0.2337 -0.00105809 0.048638
5 0.0219263 -0.08 -0.17568 -0.000734995 0.100608
5 0.0727073 -0.04 -0.16304 -0.0109406 0.134719
5 0.0727073 0.04 -0.192886 0.000644223 0.108052
5 0.0805853 -0.02 -0.166077 -0.0156743 0.129701
5 0.0805853 0.02 -0.179918 -0.00772357 0.116759
5 0.0826091 -0.01 -0.168652 -0.0163087 0.126814
5 0.0826091 0.01 -0.1756 -0.0117381 0.120201
5 0.0577851 0.06 -0.214314 0.00459581 0.0931497
5 0.0577851 -0.06 -0.16511 -0.00404937 0.13807
5 0.0455967 0.07 -0.228739 0.00334902 0.0780925
5 0.0455967 -0.07 -0.168105 -0.001824 0.136338
5 0.0669925 -0.05 -0.163441 -0.00704535 0.136772
5 0.0669925 0.05 -0.20173 0.00446028 0.101856
5 0.0248981 0.08 -0.236952 -0.000842991 0.0521976
5 0.0248981 -0.08 -0.175511 -0.000888656 0.109001
5 0.0785979 -0.03 -0.163735 -0.0150344 0.132468
5 0.0785979 0.03 -0.184367 -0.00351043 0.113286
5 0.0846329 0 -0.171136 -0.0139416 0.123666
5 0.0279244 0.08 -0.238664 -0.000526772 0.0555648
5 0.0279244 -0.08 -0.174408 -0.00102544 0.116506
5 0.0490026 0.07 -0.226293 0.00409994 0.0807819
5 0.0490026 -0.07 -0.165595 -0.00169589 0.138216
5 0.0310063 0.08 -0.239215 -0.0001221 0.0587378
5 0.0310063 -0.08 -0.172593 -0.00114457 0.123019
5 0.0614146 -0.06 -0.161888 -0.00387792 0.139171
5 0.0614146 0.06 -0.211871 0.00505099 0.0950157
5 0.0766105 -0.04 -0.160231 -0.0107944 0.134984
5 0.0766105 0.04 -0.190741 0.000345323 0.108441
5 0.0707909 -0.05 -0.160109 -0.00687421 0.137267
5 0.0707909 0.05 -0.199406 0.00448797 0.102535
5 0.0846329 -0.02 -0.163966 -0.0153699 0.129951
5 0.0846329 0.02 -0.177809 -0.00799564 0.116993
5 0.0341446 0.08 -0.238861 0.000356199 0.0617431
5 0.0341446 -0.08 -0.170251 -0.00124653 0.128489
5 0.0866939 -0.01 -0.16673 -0.0159514 0.127087
5 0.0866939 0.01 -0.173563 -0.0117683 0.120563
5 0.052471 0.07 -0.223892 0.0047934 0.0834385
5 0.052471 -0.07 -0.162986 -0.00147575 0.13982
5 0.0826091 -0.03 -0.161397 -0.0147796 0.13278
5 0.0826091 0.03 -0.182209 -0.0039662 0.113429
5 0.0373405 0.08 -0.237787 0.000891017 0.0646361
5 0.0373405 -0.08 -0.167567 -0.00133018 0.132944
5 0.0651106 -0.06 -0.158494 -0.00365134 0.140047
5 0.0651106 0.06 -0.209525 0.00532886 0.0965935
5 0.0887548 0 -0.16905 -0.0137531 0.124079
5 0.056003 0.07 -0.221579 0.00542116 0.0860421
5 0.056003 -0.07 -0.160148 -0.00117285 0.141222
5 0.040595 0.08 -0.236162 0.00146841 0.0674792
5 0.040595 -0.08 -0.164716 -0.00138982 0.136494
5 0.0746589 -0.05 -0.156958 -0.00664479 0.137536
5 0.0746589 0.05 -0.197198 0.00427707 0.103211
5 0.0805853 -0.04 -0.157602 -0.0105508 0.135242
5 0.0805853 0.04 -0.188531 -0.000163227 0.10892
5 0.00128482 0.09 -0.0744113 -1.08002e-05 0.00911582
5 0.00128482 -0.09 -0.0659681 3.6706e-07 0.0170479
5 0.00387803 0.09 -0.118741 -8.75839e-05 0.0151311
5 0.00387803 -0.09 -0.101985 0.000141779 0.0301121
5 0.00651881 0.09 -0.15494 -0.000256412 0.0214591
5 0.00651881 -0.09 -0.12898 0.000164999 0.0435266
5 0.00920802 0.09 -0.18301 -0.000474581 0.0270456
5 0.00920802 -0.09 -0.147535 0.000174496 0.0566009
5 0.0119465 0.09 -0.203581 -0.000712488 0.0315195
5 0.0119465 -0.09 -0.159247 9.95632e-05 0.0687666
5 0.0887548 -0.02 -0.161793 -0.014985 0.130332
5 0.0887548 0.02 -0.175512 -0.00828877 0.117456
5 0.0147353 0.09 -0.218096 -0.000887178 0.0352944
5 0.0147353 -0.09 -0.166122 -7.41328e-06 0.0799557
5 0.0439092 0.08 -0.234166 0.00207036 0.0703242
5 0.0439092 -0.08 -0.161828 -0.00140158 0.139308
5 0.0688745 -0.06 -0.155042 -0.0033881 0.140655
5 0.0688745 0.06 -0.207276 0.00539855 0.0979302
5 0.0908536 -0.01 -0.164632 -0.0155215 0.127536
5 0.0908536 0.01 -0.171272 -0.011771 0.121131
5 0.0175752 0.09 -0.228048 -0.000982623 0.0387586
5 0.0175752 -0.09 -0.16973 -0.000131907 0.0903013
5 0.0866939 -0.03 -0.159085 -0.0144398 0.133123
5 0.0866939 0.03 -0.179863 -0.0045101 0.113777
5 0.0595998 0.07 -0.219334 0.00591077 0.0885048
5 0.0595998 -0.07 -0.15702 -0.000810301 0.142405
5 0.0204672 0.09 -0.234672 -0.000994796 0.042055
5 0.0204672 -0.09 -0.171134 -0.000252235 0.0998992
5 0.0472842 0.08 -0.231967 0.00268128 0.0732164
5 0.0472842 -0.08 -0.158948 -0.00134909 0.141558
5 0.0929523 0 -0.166744 -0.0135142 0.124647
5 0.0234122 0.09 -0.23889 -0.000926962 0.0452267
5 0.0234122 -0.09 -0.171032 -0.0003711 0.108724
5 0.0785979 -0.05 -0.154033 -0.00635484 0.137747
5 0.0785979 0.05 -0.194975 0.00379685 0.104014
5 0.0846329 -0.04 -0.15505 -0.010243 0.135534
5 0.0846329 0.04 -0.18614 -0.000861454 0.109533
5 0.0264113 0.09 -0.241358 -0.000773778 0.0482802
5 0.0264113 -0.09 -0.169877 -0.000483784 0.116679
5 0.0727073 -0.06 -0.151665 -0.00310127 0.14099
5 0.0727073 0.06 -0.205099 0.00523684 0.0991475
5 0.0632626 -0.07 -0.15363 -0.000411781 0.143365
5 0.0632626 0.07 -0.217148 0.00625232 0.0907604
5 0.0294653 0.09 -0.242552 -0.000548936 0.0512062
5 0.0294653 -0.09 -0.167944 -0.000588991 0.123689
5 0.0507211 0.08 -0.229693 0.00327483 0.0761759
5 0.0507211 -0.08 -0.156036 -0.00122287 0.143387
5 0.0929523 -0.02 -0.159488 -0.0145385 0.130838
5 0.0929523 0.02 -0.173049 -0.00857933 0.118098
5 0.0950896 -0.01 -0.162303 -0.0150364 0.128096
5 0.0950896 0.01 -0.168766 -0.0117276 0.121827
5 0.0908536 -0.03 -0.156724 -0.014027 0.133582
5 0.0908536 0.03 -0.177348 -0.00510579 0.114353
5 0.0325754 0.09 -0.242764 -0.000252551 0.0540153
5 0.0325754 -0.09 -0.16541 -0.000691142 0.129696
5 0.0826091 -0.05 -0.151241 -0.00603423 0.137972
5 0.0826091 0.05 -0.192571 0.00302665 0.104951
5 0.054221 0.08 -0.227409 0.00382292 0.0791799
5 0.054221 -0.08 -0.152989 -0.00101753 0.144895
5 0.0357425 0.09 -0.242198 9.69989e-05 0.0567715
5 0.0357425 -0.09 -0.162442 -0.000786429 0.134708
5 0.0669925 -0.07 -0.150092 -8.21003e-06 0.144077
5 0.0669925 0.07 -0.215022 0.00637461 0.0927667
5 0.0972268 0 -0.164235 -0.013248 0.125289
5 0.0766105 -0.06 -0.148483 -0.00279388 0.141132
5 0.0766105 0.06 -0.20291 0.00481792 0.100386
5 0.0887548 -0.04 -0.152496 -0.00990462 0.135909
5 0.0887548 0.04 -0.183549 -0.00169761 0.11029
5 0.0389677 0.09 -0.241013 0.000497289 0.0595542
5 0.0389677 -0.09 -0.159226 -0.000872736 0.1388
5 0.0577851 -0.08 -0.149721 -0.000751177 0.146128
5 0.0577851 0.08 -0.225131 0.00429527 0.08216
5 0.0972268 -0.02 -0.157014 -0.0140535 0.131376
5 0.0972268 0.02 -0.170506 -0.00886643 0.118866
5 0.0422521 0.09 -0.239379 0.000936768 0.0624219
5 0.0422521 -0.09 -0.155932 -0.000941105 0.142106
5 0.0707909 -0.07 -0.146525 0.000375441 0.144503
5 0.0707909 0.07 -0.212944 0.00627134 0.0945631
5 0.0950896 -0.03 -0.15429 -0.013569 0.13414
5 0.0950896 0.03 -0.174807 -0.00571301 0.115083
5 0.0994033 -0.01 -0.159743 -0.0145315 0.128622
5 0.0994033 0.01 -0.166125 -0.0116965 0.122613
5 0 0.1 0 0 0
5 0 -0.1 0 0 0
5 0.00256965 0.1 -0.0974787 -1.66031e-05 0.0103407
5 0.00256965 -0.1 -0.0830581 8.30824e-05 0.0251908
5 0.0866939 -0.05 -0.148474 -0.00571804 0.138262
5 0.0866939 0.05 -0.189916 0.00200354 0.105974
5 0.00518642 0.1 -0.138153 -8.45188e-05 0.0160019
5 0.00518642 -0.1 -0.114073 0.000177123 0.0391121
5 0.00785119 0.1 -0.170689 -0.000173518 0.0215444
5 0.00785119 -0.1 -0.136331 0.000204566 0.0528842
5 0.0805853 -0.06 -0.145527 -0.00247764 0.141167
5 0.0805853 0.06 -0.200587 0.00412831 0.101705
5 0.0105648 0.1 -0.195407 -0.000276436 0.0262158
5 0.0105648 -0.1 -0.150987 0.000179397 0.0658795
5 0.0614146 -0.08 -0.146229 -0.000450543 0.147094
5 0.0614146 0.08 -0.22288 0.00466244 0.0850318
5 0.0133283 0.1 -0.213293 -0.000364135 0.0299408
5 0.0133283 -0.1 -0.159862 9.57285e-05 0.0778063
5 0.0455967 0.09 -0.237458 0.00140118 0.0654133
5 0.0455967 -0.09 -0.152664 -0.000956378 0.144769
5 0.0929523 -0.04 -0.149908 -0.00956277 0.136412
5 0.0929523 0.04 -0.180847 -0.00260538 0.111175
5 0.0161424 0.1 -0.225777 -0.000408332 0.0330863
5 0.0161424 -0.1 -0.164722 -1.29876e-05 0.0887198
5 0.10158 0 -0.161553 -0.0130018 0.125914
5 0.0190081 0.1 -0.23422 -0.000405904 0.0359886
5 0.0190081 -0.1 -0.166855 -0.000130749 0.0987541
5 0.0746589 -0.07 -0.143067 0.000738562 0.144655
5 0.0746589 0.07 -0.210846 0.0059109 0.0962812
5 0.0219263 0.1 -0.239727 -0.000352107 0.0388097
5 0.0219263 -0.1 -0.167133 -0.000251328 0.107965
5 0.0490026 0.09 -0.235378 0.00187513 0.0685787
5 0.0490026 -0.09 -0.149426 -0.000920055 0.14691
5 0.0248981 0.1 -0.243132 -0.000239644 0.0416012
5 0.0248981 -0.1 -0.166129 -0.00037682 0.116315
5 0.0651106 -0.08 -0.1426 -0.000159347 0.147792
5 0.0651106 0.08 -0.220686 0.00489335 0.0877254
5 0.10158 -0.02 -0.154337 -0.0135596 0.131812
5 0.10158 0.02 -0.167916 -0.00916494 0.119697
5 0.0908536 -0.05 -0.1457 -0.00543347 0.13867
5 0.0908536 0.05 -0.187066 0.000821585 0.107057
5 0.0846329 -0.06 -0.142729 -0.00219055 0.141162
5 0.0846329 0.06 -0.198033 0.00318621 0.103048
5 0.0279244 0.1 -0.245017 -6.96852e-05 0.0443658
5 0.0279244 -0.1 -0.164201 -0.00051386 0.123738
5 0.0994033 -0.03 -0.151719 -0.0130769 0.134647
5 0.0994033 0.03 -0.172325 -0.00632878 0.115944
5 0.052471 0.09 -0.233209 0.002331 0.0719052
5 0.052471 -0.09 -0.146136 -0.00079972 0.148603
5 0.103796 -0.01 -0.156973 -0.0140704 0.129014
5 0.103796 0.01 -0.16337 -0.0117086 0.123408
5 0.0310063 0.1 -0.245772 0.000150686 0.0470956
5 0.0310063 -0.1 -0.161567 -0.000666014 0.130185
5 0.0972268 -0.04 -0.147248 -0.00924133 0.137
5 0.0972268 0.04 -0.178179 -0.00353428 0.112145
5 0.0785979 -0.07 -0.13987 0.00108565 0.144592
5 0.0785979 0.07 -0.208622 0.00528666 0.0980388
5 0.0688745 -0.08 -0.138963 8.31739e-05 0.148208
5 0.0688745 0.08 -0.218562 0.00495447 0.090184
5 0.0341446 0.1 -0.245653 0.000412724 0.0498047
5 0.0341446 -0.1 -0.158389 -0.000836147 0.135649
5 0.056003 0.09 -0.230956 0.00274629 0.0753344
5 0.056003 -0.09 -0.142685 -0.000621734 0.149936
5 0.106012 0 -0.158702 -0.0128149 0.126422
5 0.0373405 0.1 -0.244842 0.000712483 0.0525349
5 0.0373405 -0.1 -0.154836 -0.00102315 0.140175
5 0.0887548 -0.06 -0.139993 -0.00197907 0.141193
5 0.0887548 0.06 -0.19523 0.0020602 0.104312
5 0.0950896 -0.05 -0.142918 -0.00522145 0.139255
5 0.0950896 0.05 -0.184165 -0.000424653 0.108206
5 0.106012 -0.02 -0.151392 -0.0130912 0.132069
5 0.106012 0.02 -0.165246 -0.00948355 0.120435
5 0.040595 0.1 -0.243502 0.00104994 0.0553462
5 0.040595 -0.1 -0.151079 -0.00122688 0.143864
5 0.0595998 -0.09 -0.139029 -0.000399736 0.150948
5 0.0595998 0.09 -0.228656 0.00310298 0.0787597
5 0.103796 -0.03 -0.14891 -0.0125594 0.134964
5 0.103796 0.03 -0.169844 -0.00692607 0.116825
5 0.0727073 -0.08 -0.13545 0.000256881 0.148336
5 0.0727073 0.08 -0.216468 0.00482849 0.0923972
5 0.0826091 -0.07 -0.136964 0.00139298 0.144358
5 0.0826091 0.07 -0.20618 0.00440276 0.0998177
5 0.108269 -0.01 -0.153964 -0.0136973 0.129264
5 0.108269 0.01 -0.160498 -0.0117834 0.124002
5 0.10158 -0.04 -0.144421 -0.00894637 0.137527
5 0.10158 0.04 -0.175622 -0.00445886 0.113138
5 0.0439092 0.1 -0.241792 0.00141983 0.0583025
5 0.0439092 -0.1 -0.147253 -0.0014355 0.146846
5 0.00128482 0.11 -0.0757956 3.30365e-05 0.00610874
5 0.00128482 -0.11 -0.0645921 1.57991e-05 0.0195176
5 0.0632626 -0.09 -0.135234 -0.000180262 0.151657
5 0.0632626 0.09 -0.22638 0.00338376 0.0821033
5 0.00387803 0.11 -0.120974 -1.07328e-06 0.011008
5 0.00387803 -0.11 -0.0996927 0.000174407 0.0340877
5 0.00651881 0.11 -0.157962 6.98102e-06 0.0164105
5 0.00651881 -0.11 -0.125639 0.000227312 0.0487243
5 0.00920802 0.11 -0.186848 2.99228e-05 0.0212634
5 0.00920802 -0.11 -0.143174 0.000251459 0.0626873
5 0.110526 0 -0.155643 -0.0126912 0.126729
5 0.0472842 0.1 -0.239851 0.00181775 0.0614646
5 0.0472842 -0.1 -0.143434 -0.00162689 0.149234
5 0.0929523 -0.06 -0.137247 -0.00188854 0.141338
5 0.0929523 0.06 -0.192261 0.000839996 0.105456
5 0.0119465 0.11 -0.20819 5.13862e-05 0.0250353
5 0.0119465 -0.11 -0.153996 0.000192059 0.0754653
5 0.0766105 -0.08 -0.13218 0.000359554 0.148194
5 0.0766105 0.08 -0.214311 0.00450366 0.0944034
5 0.0147353 0.11 -0.223307 9.17296e-05 0.0279144
5 0.0147353 -0.11 -0.160087 9.86874e-05 0.0870395
5 0.0994033 -0.05 -0.140064 -0.00509777 0.139957
5 0.0994033 0.05 -0.18142 -0.00167108 0.109349
5 0.0175752 0.11 -0.233659 0.000144741 0.0303781
5 0.0175752 -0.11 -0.162948 -1.13392e-05 0.0975844
5 0.0866939 -0.07 -0.134237 0.00159719 0.144057
5 0.0866939 0.07 -0.203463 0.00331148 0.101448
5 0.0204672 0.11 -0.240501 0.000209067 0.0327633
5 0.0204672 -0.11 -0.163608 -0.000127536 0.107233
5 0.0507211 0.1 -0.237765 0.00223232 0.0648436
5 0.0507211 -0.1 -0.139618 -0.00178464 0.15111
5 0.0669925 -0.09 -0.131443 -3.70502e-05 0.152068
5 0.0669925 0.09 -0.224193 0.00356275 0.0852719
5 0.110526 -0.02 -0.148116 -0.0126711 0.132154
5 0.110526 0.02 -0.162472 -0.00982751 0.120913
5 0.108269 -0.03 -0.145719 -0.0120375 0.135034
5 0.108269 0.03 -0.16727 -0.00751634 0.117507
5 0.0234122 0.11 -0.244846 0.000304279 0.0351945
5 0.0234122 -0.11 -0.162758 -0.000254463 0.116006
5 0.0264113 0.11 -0.247433 0.000437913 0.037704
5 0.0264113 -0.11 -0.160848 -0.000397959 0.123855
5 0.112825 -0.01 -0.150638 -0.0133971 0.129387
5 0.112825 0.01 -0.15747 -0.011887 0.124263
5 0.106012 -0.04 -0.141304 -0.00868054 0.13783
5 0.106012 0.04 -0.173117 -0.0053714 0.114038
5 0.0805853 -0.08 -0.129214 0.000391598 0.147798
5 0.0805853 0.08 -0.211987 0.00397806 0.0962152
5 0.054221 0.1 -0.235574 0.00264767 0.0683707
5 0.054221 -0.1 -0.135765 -0.00190686 0.152532
5 0.0294653 0.11 -0.248726 0.000606101 0.0402733
5 0.0294653 -0.11 -0.158135 -0.000584736 0.13073
5 0.0972268 -0.06 -0.134415 -0.00195473 0.141614
5 0.0972268 0.06 -0.189284 -0.000404369 0.106508
5 0.0707909 -0.09 -0.127791 2.5826e-06 0.152182
5 0.0707909 0.09 -0.222088 0.00360915 0.0881352
5 0.0908536 -0.07 -0.13156 0.00163809 0.143784