# Force coefficients
# liftDir     : (0.000000e+00 0.000000e+00 1.000000e+00)
# dragDir     : (1.000000e+00 0.000000e+00 0.000000e+00)
# pitchAxis   : (0.000000e+00 1.000000e+00 0.000000e+00)
# magUInf     : 1.000000e+00
# lRef        : 1.000000e+00
# Aref        : 1.000000e+00
# CofR        : (2.500000e+00 0.000000e+00 0.000000e+00)
#
# Time        	Cm            	Cd            	Cl            	Cl(f)         	Cl(r)         
1             	-2.782678e-04	9.256266e-01	-1.807513e-02	-9.315835e-03	-8.759299e-03
2             	-6.580436e-04	1.563632e+00	-1.152693e-02	-6.421509e-03	-5.105422e-03
3             	-9.631559e-04	2.153725e+00	2.065862e-02	9.366156e-03	1.129247e-02
4             	-5.810487e-04	2.370299e+00	6.779187e-02	3.331488e-02	3.447698e-02
5             	3.172482e-04	2.261951e+00	1.202674e-01	6.045096e-02	5.981646e-02
6             	1.270049e-03	1.983267e+00	1.701672e-01	8.635366e-02	8.381357e-02
7             	2.055696e-03	1.677507e+00	2.146507e-01	1.093810e-01	1.052697e-01
8             	3.046279e-03	1.449779e+00	2.543705e-01	1.302315e-01	1.241390e-01
9             	4.053074e-03	1.333428e+00	2.906579e-01	1.493820e-01	1.412759e-01
10            	5.264287e-03	1.310331e+00	3.268679e-01	1.686982e-01	1.581696e-01
11            	6.605172e-03	1.341298e+00	3.660136e-01	1.896120e-01	1.764017e-01
12            	8.081805e-03	1.391078e+00	4.082646e-01	2.122141e-01	1.960505e-01
13            	9.737600e-03	1.431359e+00	4.519381e-01	2.357066e-01	2.162314e-01
14            	1.177030e-02	1.448413e+00	4.943701e-01	2.589553e-01	2.354147e-01
15            	1.403505e-02	1.442976e+00	5.353177e-01	2.816939e-01	2.536238e-01
16            	1.631037e-02	1.421404e+00	5.746459e-01	3.036333e-01	2.710126e-01
17            	1.851638e-02	1.391116e+00	6.113004e-01	3.241666e-01	2.871338e-01
18            	2.049800e-02	1.359629e+00	6.448574e-01	3.429267e-01	3.019307e-01
19            	2.249017e-02	1.335077e+00	6.758025e-01	3.603914e-01	3.154111e-01
20            	2.423851e-02	1.320214e+00	7.047432e-01	3.766101e-01	3.281331e-01
21            	2.586722e-02	1.314088e+00	7.326823e-01	3.922084e-01	3.404739e-01
22            	2.706480e-02	1.314389e+00	7.607933e-01	4.074614e-01	3.533318e-01
23            	2.761916e-02	1.318257e+00	7.906810e-01	4.229597e-01	3.677213e-01
24            	2.729699e-02	1.322425e+00	8.197843e-01	4.371891e-01	3.825952e-01
25            	2.606295e-02	1.325238e+00	8.454278e-01	4.487768e-01	3.966509e-01
26            	2.374448e-02	1.327276e+00	8.672240e-01	4.573565e-01	4.098675e-01
27            	2.008772e-02	1.329570e+00	8.850361e-01	4.626058e-01	4.224303e-01
28            	1.502223e-02	1.333173e+00	8.986861e-01	4.643653e-01	4.343208e-01
29            	8.689992e-03	1.338052e+00	9.084669e-01	4.629235e-01	4.455435e-01
30            	1.171729e-03	1.344195e+00	9.154431e-01	4.588933e-01	4.565498e-01
31            	-7.358484e-03	1.351527e+00	9.206031e-01	4.529431e-01	4.676600e-01
32            	-1.670957e-02	1.360385e+00	9.237046e-01	4.451427e-01	4.785619e-01
33            	-2.668731e-02	1.371240e+00	9.240310e-01	4.353282e-01	4.887028e-01
34            	-3.732153e-02	1.384085e+00	9.213067e-01	4.233318e-01	4.979749e-01
35            	-4.867221e-02	1.398623e+00	9.159550e-01	4.093053e-01	5.066497e-01
36            	-6.063344e-02	1.414579e+00	9.077539e-01	3.932435e-01	5.145104e-01
37            	-7.282439e-02	1.431356e+00	8.968122e-01	3.755817e-01	5.212305e-01
38            	-8.497792e-02	1.449056e+00	8.836861e-01	3.568651e-01	5.268209e-01
39            	-9.668513e-02	1.466719e+00	8.686219e-01	3.376258e-01	5.309961e-01
40            	-1.074671e-01	1.483622e+00	8.525952e-01	3.188306e-01	5.337647e-01
41            	-1.169170e-01	1.499206e+00	8.366009e-01	3.013834e-01	5.352175e-01
42            	-1.249417e-01	1.512878e+00	8.210014e-01	2.855590e-01	5.354424e-01
43            	-1.314841e-01	1.524928e+00	8.051358e-01	2.710838e-01	5.340520e-01
44            	-1.368712e-01	1.535487e+00	7.890626e-01	2.576601e-01	5.314025e-01
45            	-1.415601e-01	1.544969e+00	7.722054e-01	2.445426e-01	5.276628e-01
46            	-1.457284e-01	1.554295e+00	7.531402e-01	2.308417e-01	5.222985e-01
47            	-1.494833e-01	1.564359e+00	7.316564e-01	2.163449e-01	5.153115e-01
48            	-1.527567e-01	1.575302e+00	7.088300e-01	2.016583e-01	5.071716e-01
49            	-1.553934e-01	1.586063e+00	6.849967e-01	1.871050e-01	4.978918e-01
50            	-1.573581e-01	1.595983e+00	6.607116e-01	1.729977e-01	4.877139e-01
51            	-1.587513e-01	1.604841e+00	6.365850e-01	1.595412e-01	4.770438e-01
52            	-1.598289e-01	1.613119e+00	6.130268e-01	1.466845e-01	4.663423e-01
53            	-1.607860e-01	1.621542e+00	5.902093e-01	1.343186e-01	4.558907e-01
54            	-1.617014e-01	1.630262e+00	5.678641e-01	1.222306e-01	4.456335e-01
55            	-1.625523e-01	1.639294e+00	5.458115e-01	1.103535e-01	4.354580e-01
56            	-1.632889e-01	1.648894e+00	5.238183e-01	9.862022e-02	4.251981e-01
57            	-1.639346e-01	1.659068e+00	5.012554e-01	8.669314e-02	4.145623e-01
58            	-1.643993e-01	1.669666e+00	4.779723e-01	7.458682e-02	4.033854e-01
59            	-1.646275e-01	1.680478e+00	4.540156e-01	6.238030e-02	3.916353e-01
60            	-1.645445e-01	1.690999e+00	4.297679e-01	5.033945e-02	3.794284e-01
61            	-1.641698e-01	1.701102e+00	4.051217e-01	3.839106e-02	3.667307e-01
62            	-1.636219e-01	1.710826e+00	3.803043e-01	2.653028e-02	3.537740e-01
63            	-1.629794e-01	1.720514e+00	3.555696e-01	1.480541e-02	3.407642e-01
64            	-1.623277e-01	1.729905e+00	3.310169e-01	3.180753e-03	3.278362e-01
65            	-1.617589e-01	1.738999e+00	3.070522e-01	-8.232801e-03	3.152850e-01
66            	-1.613820e-01	1.747691e+00	2.841474e-01	-1.930826e-02	3.034557e-01
67            	-1.612496e-01	1.755967e+00	2.630301e-01	-2.973457e-02	2.927647e-01
68            	-1.613666e-01	1.763581e+00	2.442517e-01	-3.924078e-02	2.834925e-01
69            	-1.617068e-01	1.770431e+00	2.279822e-01	-4.771566e-02	2.756978e-01
70            	-1.622123e-01	1.776554e+00	2.139846e-01	-5.522000e-02	2.692046e-01
71            	-1.627617e-01	1.782021e+00	2.015044e-01	-6.200947e-02	2.635138e-01
72            	-1.632560e-01	1.786933e+00	1.898397e-01	-6.833612e-02	2.581759e-01
73            	-1.636590e-01	1.791491e+00	1.787964e-01	-7.426083e-02	2.530572e-01
74            	-1.639353e-01	1.795797e+00	1.684779e-01	-7.969638e-02	2.481742e-01
75            	-1.640868e-01	1.799328e+00	1.592106e-01	-8.448146e-02	2.436921e-01
76            	-1.640824e-01	1.801241e+00	1.512927e-01	-8.843610e-02	2.397288e-01
77            	-1.639093e-01	1.800863e+00	1.452051e-01	-9.130673e-02	2.365118e-01
78            	-1.636616e-01	1.798036e+00	1.410092e-01	-9.315695e-02	2.341662e-01
79            	-1.635296e-01	1.793355e+00	1.381427e-01	-9.445830e-02	2.326010e-01
80            	-1.636206e-01	1.787349e+00	1.357211e-01	-9.575999e-02	2.314811e-01
81            	-1.638702e-01	1.780408e+00	1.331661e-01	-9.728720e-02	2.304533e-01
82            	-1.641753e-01	1.772969e+00	1.304992e-01	-9.892568e-02	2.294248e-01
83            	-1.644419e-01	1.765488e+00	1.277786e-01	-1.005526e-01	2.283312e-01
84            	-1.645344e-01	1.758479e+00	1.254323e-01	-1.018182e-01	2.272505e-01
85            	-1.643633e-01	1.752183e+00	1.237785e-01	-1.024741e-01	2.262526e-01
86            	-1.638909e-01	1.746662e+00	1.229017e-01	-1.024400e-01	2.253417e-01
87            	-1.631373e-01	1.741409e+00	1.230198e-01	-1.016274e-01	2.246472e-01
88            	-1.622171e-01	1.735865e+00	1.240891e-01	-1.001726e-01	2.242616e-01
89            	-1.611913e-01	1.729558e+00	1.266303e-01	-9.787613e-02	2.245064e-01
90            	-1.600745e-01	1.722406e+00	1.307339e-01	-9.470754e-02	2.254414e-01
91            	-1.588714e-01	1.714327e+00	1.362944e-01	-9.072416e-02	2.270186e-01
92            	-1.576082e-01	1.705310e+00	1.431099e-01	-8.605331e-02	2.291632e-01
93            	-1.563733e-01	1.695585e+00	1.507667e-01	-8.098994e-02	2.317566e-01
94            	-1.552110e-01	1.685422e+00	1.589294e-01	-7.574624e-02	2.346757e-01
95            	-1.541075e-01	1.675176e+00	1.674056e-01	-7.040476e-02	2.378103e-01
96            	-1.530255e-01	1.665037e+00	1.759113e-01	-6.506981e-02	2.409812e-01
97            	-1.519202e-01	1.654990e+00	1.844288e-01	-5.970580e-02	2.441346e-01
98            	-1.507594e-01	1.645084e+00	1.927127e-01	-5.440302e-02	2.471158e-01
99            	-1.495081e-01	1.635580e+00	2.005832e-01	-4.921652e-02	2.497997e-01
100           	-1.481754e-01	1.626504e+00	2.079048e-01	-4.422305e-02	2.521278e-01
101           	-1.467823e-01	1.617779e+00	2.145356e-01	-3.951451e-02	2.540501e-01
102           	-1.453094e-01	1.609527e+00	2.204951e-01	-3.506185e-02	2.555569e-01
103           	-1.437990e-01	1.601809e+00	2.256024e-01	-3.099775e-02	2.566002e-01
104           	-1.423178e-01	1.594664e+00	2.297486e-01	-2.744353e-02	2.571921e-01
105           	-1.408319e-01	1.588201e+00	2.330004e-01	-2.433165e-02	2.573321e-01
106           	-1.393360e-01	1.582497e+00	2.354152e-01	-2.162835e-02	2.570436e-01
107           	-1.378743e-01	1.577398e+00	2.370702e-01	-1.933923e-02	2.564094e-01
108           	-1.364874e-01	1.572906e+00	2.379831e-01	-1.749586e-02	2.554790e-01
109           	-1.352138e-01	1.569077e+00	2.382020e-01	-1.611281e-02	2.543148e-01
110           	-1.340701e-01	1.565813e+00	2.379532e-01	-1.509352e-02	2.530467e-01
111           	-1.330527e-01	1.562979e+00	2.373024e-01	-1.440144e-02	2.517039e-01
112           	-1.321869e-01	1.560603e+00	2.362540e-01	-1.405984e-02	2.503139e-01
113           	-1.314810e-01	1.558767e+00	2.348546e-01	-1.405369e-02	2.489083e-01
114           	-1.309452e-01	1.557285e+00	2.332286e-01	-1.433089e-02	2.475595e-01
115           	-1.305648e-01	1.556206e+00	2.314665e-01	-1.483155e-02	2.462981e-01
116           	-1.303449e-01	1.555404e+00	2.296203e-01	-1.553474e-02	2.451550e-01
117           	-1.302753e-01	1.554818e+00	2.277102e-01	-1.642017e-02	2.441304e-01
118           	-1.303588e-01	1.554450e+00	2.256965e-01	-1.751054e-02	2.432071e-01
119           	-1.305674e-01	1.554228e+00	2.236064e-01	-1.876422e-02	2.423706e-01
120           	-1.309197e-01	1.554101e+00	2.212739e-01	-2.028272e-02	2.415566e-01
121           	-1.313592e-01	1.554072e+00	2.187425e-01	-2.198792e-02	2.407304e-01
122           	-1.318669e-01	1.554097e+00	2.158409e-01	-2.394643e-02	2.397873e-01
123           	-1.324040e-01	1.554042e+00	2.124107e-01	-2.619866e-02	2.386094e-01
124           	-1.329399e-01	1.553899e+00	2.085550e-01	-2.866241e-02	2.372174e-01
125           	-1.334527e-01	1.553697e+00	2.041642e-01	-3.137064e-02	2.355348e-01
126           	-1.339387e-01	1.553445e+00	1.991941e-01	-3.434165e-02	2.335357e-01
127           	-1.343861e-01	1.553249e+00	1.935075e-01	-3.763234e-02	2.311399e-01
128           	-1.347858e-01	1.553134e+00	1.872144e-01	-4.117855e-02	2.283930e-01
129           	-1.351332e-01	1.553159e+00	1.803202e-01	-4.497312e-02	2.252933e-01
130           	-1.354421e-01	1.553356e+00	1.729126e-01	-4.898581e-02	2.218985e-01
131           	-1.357088e-01	1.553831e+00	1.651014e-01	-5.315806e-02	2.182595e-01
132           	-1.359583e-01	1.554547e+00	1.568116e-01	-5.755246e-02	2.143641e-01
133           	-1.362074e-01	1.555412e+00	1.480220e-01	-6.219637e-02	2.102184e-01
134           	-1.364752e-01	1.556382e+00	1.388224e-01	-6.706400e-02	2.058864e-01
135           	-1.367833e-01	1.557472e+00	1.292506e-01	-7.215799e-02	2.014085e-01
136           	-1.371556e-01	1.558584e+00	1.193790e-01	-7.746613e-02	1.968452e-01
137           	-1.375930e-01	1.559736e+00	1.092699e-01	-8.295810e-02	1.922280e-01
138           	-1.380942e-01	1.561008e+00	9.899949e-02	-8.859441e-02	1.875939e-01
139           	-1.386567e-01	1.562388e+00	8.881209e-02	-9.425061e-02	1.830627e-01
140           	-1.393172e-01	1.564040e+00	7.876046e-02	-9.993701e-02	1.786975e-01
141           	-1.401022e-01	1.566013e+00	6.884626e-02	-1.056790e-01	1.745253e-01
142           	-1.409887e-01	1.568220e+00	5.911120e-02	-1.114331e-01	1.705443e-01
143           	-1.419339e-01	1.570771e+00	4.967176e-02	-1.170980e-01	1.667698e-01
144           	-1.429635e-01	1.573722e+00	4.052069e-02	-1.227032e-01	1.632238e-01
145           	-1.440838e-01	1.576921e+00	3.173801e-02	-1.282148e-01	1.599528e-01
146           	-1.452297e-01	1.580491e+00	2.357424e-02	-1.334426e-01	1.570168e-01
147           	-1.463850e-01	1.584409e+00	1.587521e-02	-1.384474e-01	1.543226e-01
148           	-1.475001e-01	1.588471e+00	8.646481e-03	-1.431768e-01	1.518233e-01
149           	-1.485165e-01	1.592711e+00	1.796305e-03	-1.476184e-01	1.494147e-01
150           	-1.494037e-01	1.596949e+00	-4.839441e-03	-1.518234e-01	1.469840e-01
151           	-1.500843e-01	1.600988e+00	-1.126996e-02	-1.557193e-01	1.444493e-01
152           	-1.505097e-01	1.604648e+00	-1.767237e-02	-1.593459e-01	1.416735e-01
153           	-1.506447e-01	1.607929e+00	-2.402917e-02	-1.626593e-01	1.386301e-01
154           	-1.504807e-01	1.610763e+00	-3.054375e-02	-1.657526e-01	1.352088e-01
155           	-1.500084e-01	1.613162e+00	-3.740002e-02	-1.687084e-01	1.313083e-01
156           	-1.492442e-01	1.615162e+00	-4.460215e-02	-1.715453e-01	1.269431e-01
157           	-1.482406e-01	1.616988e+00	-5.209004e-02	-1.742856e-01	1.221956e-01
158           	-1.470852e-01	1.618880e+00	-5.988757e-02	-1.770290e-01	1.171415e-01
159           	-1.458677e-01	1.620765e+00	-6.759262e-02	-1.796640e-01	1.120714e-01
160           	-1.446475e-01	1.622539e+00	-7.476226e-02	-1.820286e-01	1.072664e-01
161           	-1.434558e-01	1.624029e+00	-8.132422e-02	-1.841179e-01	1.027937e-01
162           	-1.422808e-01	1.625058e+00	-8.720356e-02	-1.858826e-01	9.867903e-02
163           	-1.411133e-01	1.625526e+00	-9.243415e-02	-1.873304e-01	9.489624e-02
164           	-1.399530e-01	1.625427e+00	-9.695876e-02	-1.884324e-01	9.147365e-02
165           	-1.387995e-01	1.624767e+00	-1.007407e-01	-1.891698e-01	8.842911e-02
166           	-1.376585e-01	1.623661e+00	-1.038569e-01	-1.895869e-01	8.573001e-02
167           	-1.365191e-01	1.622269e+00	-1.063552e-01	-1.896967e-01	8.334153e-02
168           	-1.353767e-01	1.620731e+00	-1.082029e-01	-1.894782e-01	8.127529e-02
169           	-1.342219e-01	1.619159e+00	-1.093934e-01	-1.889186e-01	7.952520e-02
170           	-1.330805e-01	1.617601e+00	-1.100817e-01	-1.881213e-01	7.803965e-02
171           	-1.319481e-01	1.616148e+00	-1.103207e-01	-1.871084e-01	7.678775e-02
172           	-1.308284e-01	1.614805e+00	-1.100785e-01	-1.858677e-01	7.578914e-02
173           	-1.297181e-01	1.613520e+00	-1.094062e-01	-1.844212e-01	7.501496e-02
174           	-1.286085e-01	1.612250e+00	-1.083570e-01	-1.827870e-01	7.443002e-02
175           	-1.274945e-01	1.610970e+00	-1.069223e-01	-1.809556e-01	7.403334e-02
176           	-1.263859e-01	1.609680e+00	-1.050945e-01	-1.789332e-01	7.383868e-02
177           	-1.253056e-01	1.608344e+00	-1.029013e-01	-1.767562e-01	7.385492e-02
178           	-1.242511e-01	1.606973e+00	-1.003286e-01	-1.744153e-01	7.408678e-02
179           	-1.232347e-01	1.605535e+00	-9.739218e-02	-1.719308e-01	7.453863e-02
180           	-1.222544e-01	1.603985e+00	-9.406403e-02	-1.692865e-01	7.522243e-02
181           	-1.213161e-01	1.602349e+00	-9.026788e-02	-1.664500e-01	7.618215e-02
182           	-1.204235e-01	1.600459e+00	-8.601128e-02	-1.634292e-01	7.741788e-02
183           	-1.195560e-01	1.598237e+00	-8.132010e-02	-1.602161e-01	7.889596e-02
184           	-1.187418e-01	1.595662e+00	-7.612197e-02	-1.568028e-01	8.068081e-02
185           	-1.179965e-01	1.592700e+00	-7.037703e-02	-1.531850e-01	8.280797e-02
186           	-1.173334e-01	1.589359e+00	-6.414221e-02	-1.494045e-01	8.526228e-02
187           	-1.167261e-01	1.585698e+00	-5.739472e-02	-1.454234e-01	8.802869e-02
188           	-1.161708e-01	1.581753e+00	-5.010579e-02	-1.412237e-01	9.111789e-02
189           	-1.156638e-01	1.577532e+00	-4.228865e-02	-1.368081e-01	9.451949e-02
190           	-1.152063e-01	1.572971e+00	-3.389718e-02	-1.321549e-01	9.825775e-02
191           	-1.148026e-01	1.568056e+00	-2.487412e-02	-1.272396e-01	1.023655e-01
192           	-1.144618e-01	1.562795e+00	-1.519612e-02	-1.220598e-01	1.068637e-01
193           	-1.141819e-01	1.557253e+00	-4.943794e-03	-1.166538e-01	1.117100e-01
194           	-1.139418e-01	1.551425e+00	5.778820e-03	-1.110524e-01	1.168312e-01
195           	-1.137297e-01	1.545318e+00	1.687264e-02	-1.052934e-01	1.221660e-01
196           	-1.135470e-01	1.538925e+00	2.829280e-02	-9.940064e-02	1.276934e-01
197           	-1.134012e-01	1.532251e+00	3.998895e-02	-9.340674e-02	1.333957e-01
198           	-1.132555e-01	1.525436e+00	5.186285e-02	-8.732406e-02	1.391869e-01
199           	-1.131041e-01	1.518561e+00	6.386505e-02	-8.117154e-02	1.450366e-01
200           	-1.129348e-01	1.511728e+00	7.588143e-02	-7.499411e-02	1.508755e-01
201           	-1.127450e-01	1.504964e+00	8.783904e-02	-6.882547e-02	1.566645e-01
202           	-1.125296e-01	1.498271e+00	9.967887e-02	-6.269012e-02	1.623690e-01
203           	-1.122773e-01	1.491678e+00	1.113928e-01	-5.658095e-02	1.679737e-01
204           	-1.119833e-01	1.485313e+00	1.228828e-01	-5.054185e-02	1.734247e-01
205           	-1.116339e-01	1.479329e+00	1.340282e-01	-4.461982e-02	1.786480e-01
206           	-1.112183e-01	1.473821e+00	1.446531e-01	-3.889175e-02	1.835448e-01
207           	-1.107323e-01	1.468870e+00	1.545927e-01	-3.343595e-02	1.880286e-01
208           	-1.101773e-01	1.464501e+00	1.637259e-01	-2.831431e-02	1.920402e-01
209           	-1.095747e-01	1.460817e+00	1.718359e-01	-2.365677e-02	1.954927e-01
210           	-1.089305e-01	1.457713e+00	1.790810e-01	-1.938996e-02	1.984710e-01
211           	-1.082593e-01	1.455237e+00	1.853669e-01	-1.557586e-02	2.009427e-01
212           	-1.075705e-01	1.453411e+00	1.906012e-01	-1.226987e-02	2.028711e-01
213           	-1.069033e-01	1.452168e+00	1.947162e-01	-9.545162e-03	2.042614e-01
214           	-1.062846e-01	1.451500e+00	1.978014e-01	-7.383878e-03	2.051853e-01
215           	-1.057283e-01	1.451373e+00	1.999574e-01	-5.749671e-03	2.057070e-01
216           	-1.052449e-01	1.451752e+00	2.011570e-01	-4.666326e-03	2.058234e-01
217           	-1.048439e-01	1.452580e+00	2.012940e-01	-4.196907e-03	2.054909e-01
218           	-1.045214e-01	1.453715e+00	2.003007e-01	-4.371074e-03	2.046718e-01
219           	-1.042708e-01	1.455140e+00	1.981554e-01	-5.193133e-03	2.033485e-01
220           	-1.041056e-01	1.456714e+00	1.948568e-01	-6.677225e-03	2.015340e-01
221           	-1.040418e-01	1.458204e+00	1.904398e-01	-8.821886e-03	1.992617e-01
222           	-1.041074e-01	1.459678e+00	1.850288e-01	-1.159305e-02	1.966218e-01
223           	-1.043099e-01	1.461213e+00	1.787260e-01	-1.494686e-02	1.936729e-01
224           	-1.046245e-01	1.462876e+00	1.716653e-01	-1.879183e-02	1.904572e-01
225           	-1.050396e-01	1.464803e+00	1.639931e-01	-2.304306e-02	1.870362e-01
226           	-1.055524e-01	1.466994e+00	1.558828e-01	-2.761093e-02	1.834938e-01
227           	-1.061431e-01	1.469514e+00	1.473943e-01	-3.244594e-02	1.798403e-01
228           	-1.068181e-01	1.472343e+00	1.385921e-01	-3.752202e-02	1.761141e-01
229           	-1.075780e-01	1.475405e+00	1.295527e-01	-4.280165e-02	1.723544e-01
230           	-1.084104e-01	1.478677e+00	1.203760e-01	-4.822238e-02	1.685984e-01
231           	-1.093153e-01	1.482124e+00	1.110087e-01	-5.381099e-02	1.648197e-01
232           	-1.102811e-01	1.485724e+00	1.015752e-01	-5.949350e-02	1.610687e-01
233           	-1.112947e-01	1.489506e+00	9.214637e-02	-6.522155e-02	1.573679e-01
234           	-1.123543e-01	1.493425e+00	8.268833e-02	-7.101016e-02	1.536985e-01
235           	-1.134516e-01	1.497536e+00	7.325616e-02	-7.682350e-02	1.500797e-01
236           	-1.145658e-01	1.501849e+00	6.387038e-02	-8.263061e-02	1.465010e-01
237           	-1.156965e-01	1.506309e+00	5.452447e-02	-8.843422e-02	1.429587e-01
238           	-1.168288e-01	1.510819e+00	4.518677e-02	-9.423542e-02	1.394222e-01
239           	-1.179534e-01	1.515401e+00	3.584065e-02	-1.000331e-01	1.358738e-01
240           	-1.190470e-01	1.519896e+00	2.662171e-02	-1.057362e-01	1.323579e-01
241           	-1.201020e-01	1.524308e+00	1.755955e-02	-1.113223e-01	1.288818e-01
242           	-1.211050e-01	1.528547e+00	8.735401e-03	-1.167373e-01	1.254727e-01
243           	-1.220610e-01	1.532686e+00	1.223640e-05	-1.220549e-01	1.220671e-01
244           	-1.229578e-01	1.536690e+00	-8.562999e-03	-1.272393e-01	1.186763e-01
245           	-1.237835e-01	1.540570e+00	-1.701982e-02	-1.322934e-01	1.152736e-01
246           	-1.245327e-01	1.544340e+00	-2.532336e-02	-1.371944e-01	1.118710e-01
247           	-1.251960e-01	1.547946e+00	-3.343896e-02	-1.419155e-01	1.084765e-01
248           	-1.257817e-01	1.551370e+00	-4.128560e-02	-1.464245e-01	1.051389e-01
249           	-1.262876e-01	1.554643e+00	-4.880947e-02	-1.506924e-01	1.018829e-01
250           	-1.267118e-01	1.557687e+00	-5.600670e-02	-1.547151e-01	9.870843e-02
251           	-1.270616e-01	1.560487e+00	-6.285098e-02	-1.584871e-01	9.563611e-02
252           	-1.273398e-01	1.563057e+00	-6.931521e-02	-1.619974e-01	9.268216e-02
253           	-1.275540e-01	1.565378e+00	-7.537953e-02	-1.652438e-01	8.986424e-02
254           	-1.277100e-01	1.567450e+00	-8.101303e-02	-1.682165e-01	8.720348e-02
255           	-1.278159e-01	1.569305e+00	-8.620335e-02	-1.709176e-01	8.471425e-02
256           	-1.278796e-01	1.570950e+00	-9.094002e-02	-1.733496e-01	8.240955e-02
257           	-1.279055e-01	1.572384e+00	-9.521138e-02	-1.755112e-01	8.029982e-02
258           	-1.279013e-01	1.573578e+00	-9.900155e-02	-1.774021e-01	7.840051e-02
259           	-1.278757e-01	1.574541e+00	-1.022843e-01	-1.790178e-01	7.673353e-02
260           	-1.278317e-01	1.575287e+00	-1.050278e-01	-1.803456e-01	7.531778e-02
261           	-1.277712e-01	1.575808e+00	-1.072347e-01	-1.813885e-01	7.415380e-02
262           	-1.276952e-01	1.576096e+00	-1.089323e-01	-1.821613e-01	7.322905e-02
263           	-1.276020e-01	1.576156e+00	-1.101335e-01	-1.826688e-01	7.253527e-02
264           	-1.274929e-01	1.575980e+00	-1.108513e-01	-1.829185e-01	7.206722e-02
265           	-1.273688e-01	1.575555e+00	-1.110697e-01	-1.829037e-01	7.183395e-02
266           	-1.272304e-01	1.574883e+00	-1.107967e-01	-1.826288e-01	7.183205e-02
267           	-1.270801e-01	1.573952e+00	-1.100502e-01	-1.821052e-01	7.205499e-02
268           	-1.269143e-01	1.572760e+00	-1.088455e-01	-1.813370e-01	7.249152e-02
269           	-1.267347e-01	1.571317e+00	-1.072086e-01	-1.803390e-01	7.313046e-02
270           	-1.265429e-01	1.569636e+00	-1.051709e-01	-1.791284e-01	7.395746e-02
271           	-1.263392e-01	1.567718e+00	-1.027467e-01	-1.777126e-01	7.496586e-02
272           	-1.261204e-01	1.565563e+00	-9.994937e-02	-1.760951e-01	7.614568e-02
273           	-1.258876e-01	1.563162e+00	-9.678537e-02	-1.742803e-01	7.749494e-02
274           	-1.256412e-01	1.560525e+00	-9.324836e-02	-1.722654e-01	7.901699e-02
275           	-1.253801e-01	1.557674e+00	-8.935075e-02	-1.700555e-01	8.070473e-02
276           	-1.251029e-01	1.554622e+00	-8.511851e-02	-1.676621e-01	8.254363e-02
277           	-1.248081e-01	1.551367e+00	-8.059298e-02	-1.651046e-01	8.451160e-02
278           	-1.244933e-01	1.547932e+00	-7.582574e-02	-1.624061e-01	8.658041e-02
279           	-1.241543e-01	1.544333e+00	-7.087028e-02	-1.595895e-01	8.871918e-02
280           	-1.237913e-01	1.540617e+00	-6.576657e-02	-1.566746e-01	9.090802e-02
281           	-1.234056e-01	1.536807e+00	-6.054277e-02	-1.536770e-01	9.313425e-02
282           	-1.230056e-01	1.532924e+00	-5.521491e-02	-1.506130e-01	9.539812e-02
283           	-1.226034e-01	1.528983e+00	-4.979237e-02	-1.474996e-01	9.770726e-02
284           	-1.222003e-01	1.524968e+00	-4.428878e-02	-1.443447e-01	1.000560e-01
285           	-1.217827e-01	1.520794e+00	-3.872971e-02	-1.411476e-01	1.024178e-01
286           	-1.213496e-01	1.516487e+00	-3.312029e-02	-1.379097e-01	1.047894e-01
287           	-1.209138e-01	1.512129e+00	-2.745330e-02	-1.346404e-01	1.071871e-01
288           	-1.204816e-01	1.507754e+00	-2.171556e-02	-1.313393e-01	1.096238e-01
289           	-1.200575e-01	1.503387e+00	-1.593743e-02	-1.280263e-01	1.120888e-01
290           	-1.196466e-01	1.499065e+00	-1.016420e-02	-1.247287e-01	1.145645e-01
291           	-1.192497e-01	1.494820e+00	-4.449851e-03	-1.214747e-01	1.170248e-01
292           	-1.188630e-01	1.490683e+00	1.180377e-03	-1.182728e-01	1.194532e-01
293           	-1.184863e-01	1.486688e+00	6.699062e-03	-1.151368e-01	1.218359e-01
294           	-1.181274e-01	1.482839e+00	1.209253e-02	-1.120811e-01	1.241737e-01
295           	-1.177862e-01	1.479142e+00	1.736760e-02	-1.091024e-01	1.264700e-01
296           	-1.174649e-01	1.475605e+00	2.251733e-02	-1.062062e-01	1.287236e-01
297           	-1.171632e-01	1.472224e+00	2.752676e-02	-1.033998e-01	1.309265e-01
298           	-1.168818e-01	1.468996e+00	3.237425e-02	-1.006947e-01	1.330689e-01
299           	-1.166209e-01	1.465914e+00	3.705052e-02	-9.809565e-02	1.351462e-01
300           	-1.163807e-01	1.462973e+00	4.154141e-02	-9.560997e-02	1.371514e-01
301           	-1.161618e-01	1.460189e+00	4.581865e-02	-9.325245e-02	1.390711e-01
302           	-1.159635e-01	1.457562e+00	4.985105e-02	-9.103795e-02	1.408890e-01
303           	-1.157848e-01	1.455102e+00	5.361314e-02	-8.897826e-02	1.425914e-01
304           	-1.156266e-01	1.452809e+00	5.710639e-02	-8.707341e-02	1.441798e-01
305           	-1.154877e-01	1.450690e+00	6.025753e-02	-8.535896e-02	1.456165e-01
306           	-1.153643e-01	1.448746e+00	6.303812e-02	-8.384523e-02	1.468834e-01
307           	-1.152542e-01	1.446996e+00	6.544470e-02	-8.253189e-02	1.479766e-01
308           	-1.151552e-01	1.445455e+00	6.747235e-02	-8.141899e-02	1.488913e-01
309           	-1.150672e-01	1.444124e+00	6.913766e-02	-8.049837e-02	1.496360e-01
310           	-1.149840e-01	1.442949e+00	7.042733e-02	-7.977038e-02	1.501977e-01
311           	-1.149024e-01	1.441930e+00	7.129424e-02	-7.925526e-02	1.505495e-01
312           	-1.148249e-01	1.441129e+00	7.171969e-02	-7.896511e-02	1.506848e-01
313           	-1.147512e-01	1.440520e+00	7.170800e-02	-7.889715e-02	1.506052e-01
314           	-1.146782e-01	1.440060e+00	7.128400e-02	-7.903623e-02	1.503202e-01
315           	-1.146083e-01	1.439804e+00	7.044314e-02	-7.938678e-02	1.498299e-01
316           	-1.145399e-01	1.439712e+00	6.916513e-02	-7.995731e-02	1.491224e-01
317           	-1.144727e-01	1.439827e+00	6.748228e-02	-8.073157e-02	1.482138e-01
318           	-1.144103e-01	1.440164e+00	6.536960e-02	-8.172546e-02	1.470951e-01
319           	-1.143472e-01	1.440657e+00	6.280808e-02	-8.294315e-02	1.457512e-01
320           	-1.142880e-01	1.441356e+00	5.985358e-02	-8.436118e-02	1.442148e-01
321           	-1.142348e-01	1.442259e+00	5.647265e-02	-8.599843e-02	1.424711e-01
322           	-1.141890e-01	1.443352e+00	5.268100e-02	-8.784850e-02	1.405295e-01
323           	-1.141517e-01	1.444665e+00	4.853215e-02	-8.988561e-02	1.384178e-01
324           	-1.141205e-01	1.446169e+00	4.400333e-02	-9.211888e-02	1.361222e-01
325           	-1.141002e-01	1.447896e+00	3.913647e-02	-9.453199e-02	1.336685e-01
326           	-1.140902e-01	1.449812e+00	3.394507e-02	-9.711766e-02	1.310627e-01
327           	-1.140963e-01	1.451939e+00	2.845874e-02	-9.986697e-02	1.283257e-01
328           	-1.141172e-01	1.454235e+00	2.269475e-02	-1.027698e-01	1.254645e-01
329           	-1.141541e-01	1.456717e+00	1.668105e-02	-1.058135e-01	1.224946e-01
330           	-1.142044e-01	1.459346e+00	1.045947e-02	-1.089747e-01	1.194341e-01
331           	-1.142732e-01	1.462162e+00	4.055727e-03	-1.122454e-01	1.163011e-01
332           	-1.143540e-01	1.465132e+00	-2.539406e-03	-1.156237e-01	1.130843e-01
333           	-1.144544e-01	1.468267e+00	-9.297554e-03	-1.191032e-01	1.098056e-01
334           	-1.145661e-01	1.471523e+00	-1.624838e-02	-1.226903e-01	1.064419e-01
335           	-1.146922e-01	1.474908e+00	-2.335279e-02	-1.263686e-01	1.030158e-01
336           	-1.148264e-01	1.478383e+00	-3.058898e-02	-1.301209e-01	9.953188e-02
337           	-1.149772e-01	1.481984e+00	-3.788441e-02	-1.339194e-01	9.603494e-02
338           	-1.151409e-01	1.485664e+00	-4.519484e-02	-1.377383e-01	9.254345e-02
339           	-1.153248e-01	1.489441e+00	-5.245193e-02	-1.415507e-01	8.909880e-02
340           	-1.155213e-01	1.493255e+00	-5.963584e-02	-1.453392e-01	8.570339e-02
341           	-1.157336e-01	1.497122e+00	-6.671460e-02	-1.490909e-01	8.237627e-02
342           	-1.159566e-01	1.500975e+00	-7.365335e-02	-1.527832e-01	7.912990e-02
343           	-1.161912e-01	1.504794e+00	-8.042354e-02	-1.564030e-01	7.597943e-02
344           	-1.164340e-01	1.508593e+00	-8.700160e-02	-1.599348e-01	7.293317e-02
345           	-1.166796e-01	1.512313e+00	-9.337729e-02	-1.633682e-01	6.999091e-02
346           	-1.169332e-01	1.515948e+00	-9.953202e-02	-1.666993e-01	6.716724e-02
347           	-1.171872e-01	1.519517e+00	-1.054408e-01	-1.699076e-01	6.446674e-02
348           	-1.174366e-01	1.522943e+00	-1.111046e-01	-1.729890e-01	6.188431e-02
349           	-1.176822e-01	1.526222e+00	-1.165169e-01	-1.759407e-01	5.942378e-02
350           	-1.179164e-01	1.529371e+00	-1.216446e-01	-1.787387e-01	5.709409e-02
351           	-1.181328e-01	1.532390e+00	-1.265011e-01	-1.813833e-01	5.488220e-02
352           	-1.183297e-01	1.535212e+00	-1.310327e-01	-1.838461e-01	5.281335e-02
353           	-1.185029e-01	1.537853e+00	-1.352353e-01	-1.861206e-01	5.088532e-02
354           	-1.186487e-01	1.540337e+00	-1.391276e-01	-1.882125e-01	4.908496e-02
355           	-1.187639e-01	1.542641e+00	-1.427247e-01	-1.901263e-01	4.740155e-02
356           	-1.188460e-01	1.544761e+00	-1.460310e-01	-1.918615e-01	4.583054e-02
357           	-1.188914e-01	1.546706e+00	-1.490476e-01	-1.934152e-01	4.436759e-02
358           	-1.188985e-01	1.548479e+00	-1.517821e-01	-1.947895e-01	4.300745e-02
359           	-1.188648e-01	1.550090e+00	-1.542353e-01	-1.959824e-01	4.174719e-02
360           	-1.187881e-01	1.551551e+00	-1.564101e-01	-1.969932e-01	4.058308e-02