0 	0.000111937 	0 	-0.0360385
0.00184056 	0.000154974 	3.71063e-07 	-0.0360372
0.00368111 	0.000210061 	8.19613e-07 	-0.0360354
0.00431344 	0.000319755 	2.2e-06 	-0.0360344
0.00494577 	0.000429448 	3.58039e-06 	-0.0360334
0.00622082 	0.000680862 	6.63358e-06 	-0.0360307
0.00749587 	0.000949665 	9.84194e-06 	-0.0360275
0.00773715 	0.00102538 	1.13798e-05 	-0.036027
0.00797843 	0.0011011 	1.29176e-05 	-0.0360264
0.00971376 	0.00166546 	2.41628e-05 	-0.0360218
0.0114491 	0.0022908 	3.59769e-05 	-0.0360156
0.0121282 	0.00247031 	4.22274e-05 	-0.0360134
0.0128073 	0.00264983 	4.8478e-05 	-0.0360112
0.0141766 	0.00303114 	6.12358e-05 	-0.0360057
0.0155459 	0.00342356 	7.40822e-05 	-0.0359997
0.015805 	0.00346468 	7.6604e-05 	-0.0359987
0.0160641 	0.00350579 	7.91258e-05 	-0.0359977
0.0179278 	0.00380433 	9.72247e-05 	-0.0359905
0.0197915 	0.00411153 	0.000115204 	-0.0359827
0.0219913 	0.00431253 	0.000136197 	-0.0359748
0.0241911 	0.00451392 	0.000156553 	-0.0359682
0.0241911 	0.00451392 	0.000156553 	-0.0359682
0.0264708 	0.0046284 	0.000177166 	-0.0359612
0.0287506 	0.00474112 	0.000196963 	-0.0359576
0.031113 	0.0047986 	0.000216779 	-0.035952
0.0334755 	0.00485577 	0.000236055 	-0.0359516
0.0340307 	0.00486003 	0.000240338 	-0.0359506
0.034586 	0.0048643 	0.000244622 	-0.0359495
0.0356965 	0.00487282 	0.000253189 	-0.0359474
0.036151 	0.0048766 	0.00025673 	-0.035948
0.0370342 	0.00488395 	0.00026361 	-0.0359491
0.0372615 	0.00488584 	0.000265381 	-0.0359494
0.038372 	0.00489508 	0.000274031 	-0.0359507
0.038372 	0.00489508 	0.000274031 	-0.0359507
0.0389429 	0.00489343 	0.000278101 	-0.0359501
0.0395137 	0.00489177 	0.000282171 	-0.0359494
0.0409092 	0.00488789 	0.000292245 	-0.0359485
0.0434463 	0.00488222 	0.000311681 	-0.0359546
0.0460756 	0.00485748 	0.000329522 	-0.0359541
0.0487048 	0.00483286 	0.00034998 	-0.0359629
0.0514296 	0.00479685 	0.000367741 	-0.0359641
0.0541543 	0.00475911 	0.000389822 	-0.0359756
0.0569779 	0.00471663 	0.000407714 	-0.0359785
0.0598016 	0.00467097 	0.000431535 	-0.0359929
0.0627277 	0.00462591 	0.000449677 	-0.0359975
0.0656539 	0.00457701 	0.000474533 	-0.0360149
0.0686863 	0.00453273 	0.000493026 	-0.0360211
0.0717187 	0.00448476 	0.000517944 	-0.0360417
0.0748612 	0.00444433 	0.000536942 	-0.0360493
0.0780037 	0.00440067 	0.000561577 	-0.0360729
0.0812603 	0.004367 	0.000581279 	-0.0360817
0.0845169 	0.00433066 	0.00060598 	-0.0361077
0.0878918 	0.00430615 	0.000626663 	-0.0361177
0.0912666 	0.00427974 	0.000651668 	-0.0361456
0.094764 	0.00426613 	0.000673491 	-0.0361567
0.0982613 	0.00425146 	0.000698651 	-0.036186
0.101886 	0.0042499 	0.000721825 	-0.0361984
0.10551 	0.00424782 	0.000747065 	-0.0362287
0.109266 	0.00425884 	0.000771285 	-0.0362424
0.113022 	0.00426915 	0.000796037 	-0.0362733
0.116914 	0.00429272 	0.000820787 	-0.0362882
0.120806 	0.00431435 	0.00084451 	-0.0363194
0.12484 	0.00434983 	0.000869721 	-0.0363358
0.128874 	0.00438111 	0.000892468 	-0.036367
0.13077 	0.00440251 	0.000904279 	-0.0363745
0.132666 	0.0044239 	0.00091609 	-0.036382
0.13495 	0.00444526 	0.000928025 	-0.0363988
0.137234 	0.00446662 	0.000939961 	-0.0364156
0.141566 	0.00452281 	0.000966078 	-0.0364348
0.145897 	0.00456804 	0.00098723 	-0.0364646
0.147933 	0.00459796 	0.000999576 	-0.0364736
0.14997 	0.00462787 	0.00101192 	-0.0364826
0.152423 	0.00465523 	0.00102329 	-0.036498
0.154876 	0.00468259 	0.00103465 	-0.0365133
0.159528 	0.00475343 	0.00106182 	-0.0365357
0.16418 	0.00480741 	0.00108252 	-0.0365616
0.169001 	0.00488229 	0.00111023 	-0.0365856
0.173822 	0.00493935 	0.0011312 	-0.036609
0.178818 	0.00501539 	0.00115925 	-0.0366346
0.183814 	0.00507422 	0.00118093 	-0.0366549
0.188992 	0.00514791 	0.00120934 	-0.036682
0.194169 	0.00520627 	0.00123214 	-0.0366989
0.199535 	0.00527346 	0.00126093 	-0.036727
0.2049 	0.00532786 	0.00128532 	-0.0367402
0.21046 	0.00538386 	0.00131402 	-0.036769
0.21602 	0.0054296 	0.00134015 	-0.0367783
0.221782 	0.00546939 	0.00136819 	-0.0368072
0.227544 	0.00550097 	0.00139572 	-0.0368127
0.228898 	0.00550543 	0.00140204 	-0.0368199
0.230253 	0.00550989 	0.00140837 	-0.036827
0.23487 	0.00552268 	0.00143019 	-0.036842
0.239487 	0.00553204 	0.0014524 	-0.0368436
0.242868 	0.00552969 	0.00146923 	-0.0368609
0.246249 	0.00552612 	0.00148607 	-0.0368723
0.249056 	0.00552118 	0.00150007 	-0.036872
0.251863 	0.00551624 	0.00151406 	-0.0368717
0.253317 	0.0055096 	0.00152268 	-0.036879
0.254772 	0.00550296 	0.0015313 	-0.0368862
0.25973 	0.00547839 	0.00155938 	-0.0369
0.264688 	0.00545105 	0.00158562 	-0.0368983
0.266195 	0.00543898 	0.0015968 	-0.0369057
0.267703 	0.0054269 	0.00160798 	-0.0369131
0.272841 	0.00538365 	0.00164291 	-0.0369273
0.27798 	0.00533744 	0.00167331 	-0.0369256
0.284867 	0.00526366 	0.00173591 	-0.0369564
0.291753 	0.00518311 	0.00178658 	-0.0369562
0.29889 	0.00509723 	0.00186646 	-0.0369884
0.306027 	0.00500441 	0.00193306 	-0.0369916
0.313423 	0.00491559 	0.00202936 	-0.0370245
0.320819 	0.00482072 	0.00211149 	-0.037031
0.328484 	0.00473622 	0.00222046 	-0.037064
0.336148 	0.0046473 	0.00231754 	-0.0370735
0.344091 	0.00457145 	0.00244159 	-0.0371069
0.352034 	0.00449328 	0.00255771 	-0.0371196
0.360265 	0.00442849 	0.00270561 	-0.0371544
0.368496 	0.00436354 	0.00284888 	-0.0371711
0.377027 	0.00431087 	0.00302903 	-0.0372081
0.385557 	0.00425987 	0.00320651 	-0.0372291
0.394397 	0.00421926 	0.00342132 	-0.0372686
0.403236 	0.00418159 	0.00363205 	-0.0372941
0.403236 	0.00418159 	0.00363205 	-0.0372941
0.412396 	0.00415196 	0.00387669 	-0.0373357
0.421557 	0.00412591 	0.00411189 	-0.0373648
0.424286 	0.00411994 	0.00418875 	-0.0373776
0.427016 	0.00411397 	0.0042656 	-0.0373903
0.43378 	0.00410074 	0.00444896 	-0.0374173
0.440544 	0.00408888 	0.00462614 	-0.0374401
0.442178 	0.00408666 	0.00467273 	-0.0374476
0.443812 	0.00408444 	0.00471932 	-0.0374552
0.452016 	0.00407431 	0.004946 	-0.0374902
0.46022 	0.00406644 	0.00515651 	-0.0375186
0.470415 	0.00405912 	0.00543932 	-0.0375638
0.48061 	0.00405504 	0.00568351 	-0.0375989
0.486044 	0.00405338 	0.00583019 	-0.0376227
0.491478 	0.00405209 	0.005969 	-0.0376451
0.496609 	0.00405203 	0.00607604 	-0.0376619
0.501741 	0.00405198 	0.00618309 	-0.0376786
0.51269 	0.00405243 	0.00644393 	-0.0377231
0.523639 	0.00405528 	0.00662988 	-0.0377556
0.531723 	0.00405739 	0.00679871 	-0.0377873
0.539808 	0.00406062 	0.0069251 	-0.0378115
0.54307 	0.0040621 	0.00696966 	-0.0378201
0.546332 	0.00406358 	0.00701423 	-0.0378287
0.558091 	0.00406895 	0.00721789 	-0.0378706
0.569849 	0.0040759 	0.00735451 	-0.0378983
0.582034 	0.00408313 	0.00754348 	-0.0379391
0.594219 	0.00409154 	0.0076687 	-0.0379642
0.595752 	0.00409259 	0.00769083 	-0.0379692
0.597286 	0.00409365 	0.00771295 	-0.0379742
0.60838 	0.00410149 	0.0078585 	-0.0380062
0.619475 	0.00410995 	0.00795889 	-0.038025
0.621648 	0.00411161 	0.00798657 	-0.0380316
0.623822 	0.00411327 	0.00801426 	-0.0380382
0.634734 	0.0041218 	0.00813673 	-0.0380654
0.645647 	0.00413073 	0.00822251 	-0.0380793
0.652622 	0.00413642 	0.00829968 	-0.0380987
0.659596 	0.00414218 	0.00836983 	-0.0381148
0.666183 	0.00414786 	0.00841464 	-0.0381202
0.67277 	0.00415354 	0.00845945 	-0.0381255
0.686824 	0.00416548 	0.00859051 	-0.0381577
0.700877 	0.00417802 	0.00867386 	-0.0381618
0.703296 	0.00418009 	0.00869443 	-0.0381671
0.705715 	0.00418216 	0.00871501 	-0.0381724
0.71786 	0.00419274 	0.00880598 	-0.0381898
0.730005 	0.00420381 	0.00886954 	-0.0381862
0.734344 	0.00420747 	0.00890156 	-0.0381944
0.738683 	0.00421113 	0.00893358 	-0.0382025
0.749437 	0.00422061 	0.00899736 	-0.0382066
0.76019 	0.00423044 	0.00904755 	-0.0381967
0.765385 	0.00423467 	0.00908011 	-0.0382046
0.770581 	0.0042389 	0.00911266 	-0.0382125
0.781026 	0.00424795 	0.00916427 	-0.0382076
0.791472 	0.00425733 	0.00920797 	-0.0381909
0.79344 	0.00425884 	0.00921825 	-0.0381932
0.795408 	0.00426036 	0.00922853 	-0.0381954
0.809648 	0.00427162 	0.0092979 	-0.0381997
0.823889 	0.00428383 	0.0093518 	-0.0381666
0.826679 	0.00428582 	0.00936393 	-0.0381687
0.829468 	0.00428781 	0.00937606 	-0.0381708
0.843476 	0.00429815 	0.00943331 	-0.0381647
0.857483 	0.00430926 	0.00948246 	-0.0381217
0.87489 	0.00432062 	0.00954723 	-0.0381211
0.892297 	0.00433297 	0.00960643 	-0.0380543
0.910336 	0.00434337 	0.00966742 	-0.0380457
0.928375 	0.00435442 	0.00972877 	-0.0379627
0.947069 	0.00436369 	0.00978798 	-0.0379454
0.965762 	0.00437318 	0.00985219 	-0.037845
0.985136 	0.00438118 	0.00991426 	-0.0378183
1.00451 	0.0043889 	0.00998327 	-0.0376995
1.01028 	0.00439083 	0.0100035 	-0.0376919
1.01605 	0.00439275 	0.0100238 	-0.0376843
1.03036 	0.00439718 	0.0100763 	-0.0376231
1.04466 	0.00440133 	0.010131 	-0.0375248
1.04812 	0.0044022 	0.0101447 	-0.0375188
1.05157 	0.00440308 	0.0101585 	-0.0375129
1.06892 	0.0044071 	0.0102283 	-0.0374514
1.08627 	0.00441029 	0.0103003 	-0.0373199
1.10783 	0.0044139 	0.010397 	-0.037262
1.12939 	0.00441567 	0.010494 	-0.0370841
1.15173 	0.00441771 	0.0106063 	-0.0370153
1.17408 	0.00441743 	0.010715 	-0.0368172
1.17689 	0.00441752 	0.0107307 	-0.0368092
1.1797 	0.0044176 	0.0107463 	-0.0368012
1.20004 	0.0044176 	0.0108578 	-0.0367108
1.22038 	0.00441561 	0.0109642 	-0.0365195
1.22437 	0.00441547 	0.0109884 	-0.0365068
1.22835 	0.00441532 	0.0110125 	-0.0364942
1.24836 	0.00441374 	0.0111306 	-0.0363891
1.26837 	0.00441027 	0.0112421 	-0.0361915
1.29324 	0.00440745 	0.0114037 	-0.0360895
1.3181 	0.00440147 	0.0115506 	-0.0358342
1.34387 	0.00439697 	0.0117315 	-0.0357212
1.36964 	0.0043892 	0.0118935 	-0.0354484
1.39635 	0.004383 	0.0120968 	-0.0353248
1.42305 	0.00437345 	0.0122768 	-0.0350353
1.43101 	0.00437128 	0.0123435 	-0.0350018
1.43896 	0.0043691 	0.0124101 	-0.0349683
1.44816 	0.00436659 	0.0124872 	-0.0349296
1.46328 	0.0043604 	0.0125977 	-0.0347629
1.4784 	0.00435422 	0.0127082 	-0.0345962
1.48163 	0.00435318 	0.0127376 	-0.034582
1.48485 	0.00435214 	0.012767 	-0.0345678
1.50442 	0.00434582 	0.0129455 	-0.0344817
1.50442 	0.00434582 	0.0129455 	-0.0344817
1.52009 	0.0043387 	0.0130707 	-0.0343072
1.52009 	0.0043387 	0.0130707 	-0.0343072
1.53576 	0.00433158 	0.013196 	-0.0341326
1.53576 	0.00433158 	0.013196 	-0.0341326
1.56548 	0.00432035 	0.0134882 	-0.0339786
1.56548 	0.00432035 	0.0134882 	-0.0339786
1.5952 	0.00430574 	0.0137494 	-0.0336458
1.5952 	0.00430574 	0.0137494 	-0.0336458
1.62599 	0.00429303 	0.0140804 	-0.0334824
1.626 	0.00429303 	0.0140804 	-0.0334824
1.65679 	0.00427704 	0.0143783 	-0.0331374
1.65679 	0.00427704 	0.0143783 	-0.0331374
1.67127 	0.00427082 	0.0145502 	-0.0330677
1.68575 	0.00426459 	0.0147221 	-0.0329979
1.68871 	0.004263 	0.0147536 	-0.0329649
1.72063 	0.0042459 	0.0150928 	-0.0326089
1.75371 	0.00423072 	0.0155169 	-0.0324276
1.78678 	0.00421275 	0.0159012 	-0.0320619
1.82105 	0.00419661 	0.0163783 	-0.0318723
1.85533 	0.00417801 	0.0168121 	-0.0314984
1.89085 	0.00416113 	0.0173426 	-0.0313011
1.92638 	0.00414212 	0.0178273 	-0.0309206
1.96319 	0.00412489 	0.0183999 	-0.0307188
2 	0.00410587 	0.0189233 	-0.0303383
