# wallShearStress  POINT_DATA 91129
# x  y  z  wallShearStress_x  wallShearStress_y  wallShearStress_z
0 0 0 -0.00438424 -0.000100475 -0.000763437
0 0.00368111 0 0 0 0
0 0.00749587 0 0 0 0
0 0.0114491 0 0 0 0
0 0.0155459 0 0 0 0
0 0.0197915 0 0 0 0
0 0.0241911 0 0 0 0
0 0.0287506 0 0 0 0
0 0.0334755 0 0 0 0
0 0.038372 0 0 0 0
0 0.0434463 0 0 0 0
0 0.0487048 0 0 0 0
0 0.0541543 0 0 0 0
0 0.0598016 0 0 0 0
0 0.0656539 0 0 0 0
0 0.0717187 0 0 0 0
0.075776 0.00184055 0 0 0 0
0.075776 0.00558849 0 0 0 0
0.075776 0.00947248 -3.46945e-18 0 0 0
0.075776 0.0134975 -3.46945e-18 0 0 0
0.075776 0.0176687 3.46945e-18 0 0 0
0 0.0780037 0 0 0 0
0.075776 0.0219913 3.46945e-18 0 0 0
0.075776 0.0264709 3.46945e-18 0 0 0
0.075776 0.031113 -3.46945e-18 0 0 0
0.075776 0.0359237 -3.46945e-18 0 0 0
0 0.0845169 0 0 0 0
0.075776 0.0409092 0 0 0 0
0.075776 0.0460755 -3.46945e-18 0 0 0
0 0.0912666 0 0 0 0
0.075776 0.0514296 -3.46945e-18 0 0 0
0.075776 0.0569779 0 0 0 0
0 0.0982613 0 0 0 0
0.075776 0.0627278 0 0 0 0
0.075776 0.0686863 0 0 0 0
0 0.10551 0 0 0 0
0.075776 0.0748612 3.46945e-18 0 0 0
0.075776 0.0812603 -3.46945e-18 0 0 0
0 0.113022 0 0 0 0
0.075776 0.0878918 3.46945e-18 0 0 0
0 0.120806 0 0 0 0
0.075776 0.0947639 3.46945e-18 0 0 0
0.075776 0.101886 -3.46945e-18 0 0 0
0 0.128874 0 0 0 0
0.075776 0.109266 3.46945e-18 0 0 0
0 0.137234 0 0 0 0
0.075776 0.116914 3.46945e-18 0 0 0
0 0.145897 0 0 0 0
0.075776 0.12484 0 0 0 0
0.151552 0 0 -0.0101709 -0.000207464 -0.00174632
0.151552 0.00368111 0 0 0 0
0.151552 0.00749587 0 0 0 0
0.151552 0.0114491 0 0 0 0
0.151552 0.0155459 0 0 0 0
0.151552 0.0197915 0 0 0 0
0.075776 0.133054 0 0 0 0
0.151552 0.0241911 0 0 0 0
0.151552 0.0287506 0 0 0 0
0 0.154876 0 0 0 0
0.151552 0.0334755 0 0 0 0
0.151552 0.038372 0 0 0 0
0.151552 0.0434463 0 0 0 0
0.151552 0.0487048 0 0 0 0
0.075776 0.141566 0 0 0 0
0.151552 0.0541543 0 0 0 0
0.151552 0.0598016 0 0 0 0
0 0.16418 0 0 0 0
0.151552 0.0656539 0 0 0 0
0.151552 0.0717187 0 0 0 0
0.075776 0.150387 0 0 0 0
0.151552 0.0780037 0 0 0 0
0.151552 0.0845169 0 0 0 0
0 0.173822 0 0 0 0
0.075776 0.159528 0 0 0 0
0.151552 0.0912666 0 0 0 0
0.151552 0.0982613 0 0 0 0
0 0.183814 0 0 0 0
0.151552 0.10551 0 0 0 0
0.075776 0.169001 3.46945e-18 0 0 0
0.151552 0.113022 0 0 0 0
0.151552 0.120806 0 0 0 0
0 0.194169 0 0 0 0
0.075776 0.178818 3.46945e-18 0 0 0
0.151552 0.128874 0 0 0 0
0.075776 0.188992 3.46945e-18 0 0 0
0.151552 0.137234 0 0 0 0
0 0.2049 0 0 0 0
0.151552 0.145897 0 0 0 0
0.075776 0.199535 0 0 0 0
0 0.21602 0 0 0 0
0.151552 0.154876 0 0 0 0
0.219992 0.00184055 0 0 0 0
0.219992 0.00558849 0 0 0 0
0.219992 0.00947248 -3.46945e-18 0 0 0
0.219992 0.0134975 3.46945e-18 0 0 0
0.219992 0.0176687 0 0 0 0
0.219992 0.0219913 0 0 0 0
0.219993 0.0264709 -3.46945e-18 0 0 0
0.219992 0.031113 -3.46945e-18 0 0 0
0.219992 0.0359238 3.46945e-18 0 0 0
0.151552 0.16418 0 0 0 0
0.075776 0.21046 0 0 0 0
0.219992 0.0409092 3.46945e-18 0 0 0
0.219992 0.0460755 0 0 0 0
0.219993 0.0514296 -3.46945e-18 0 0 0
0.219992 0.0569779 0 0 0 0
0 0.227544 0 0 0 0
0.219992 0.0627277 3.46945e-18 0 0 0
0.219992 0.0686863 0 0 0 0
0.151552 0.173822 0 0 0 0
0.219992 0.0748612 3.46945e-18 0 0 0
0.075776 0.221782 0 0 0 0
0.219992 0.0812603 3.46945e-18 0 0 0
0.219992 0.0878917 -3.46945e-18 0 0 0
0.151552 0.183814 0 0 0 0
7.47806e-17 0.239487 0 0 0 0
0.219992 0.0947639 3.46945e-18 0 0 0
0.219993 0.101886 3.46945e-18 0 0 0
0.075776 0.233516 0 0 0 0
0.219993 0.109266 0 0 0 0
0.151552 0.194169 0 0 0 0
0.219993 0.116914 0 0 0 0
0 0.251863 0 0 0 0
0.219993 0.12484 0 0 0 0
0.151552 0.2049 0 0 0 0
0.075776 0.245675 0 0 0 0
0.219992 0.133054 3.46945e-18 0 0 0
0.219992 0.141565 0 0 0 0
0.151552 0.21602 0 0 0 0
0 0.264688 0 0 0 0
0.219992 0.150387 3.46945e-18 0 0 0
0.075776 0.258275 3.46945e-18 0 0 0
0.219992 0.159528 -3.46945e-18 0 0 0
0.151552 0.227544 0 0 0 0
0.219992 0.169001 3.46945e-18 0 0 0
0 0.27798 0 0 0 0
0.075776 0.271334 3.46945e-18 0 0 0
0.151552 0.239487 3.70071e-18 0 0 0
0.219992 0.178818 3.46945e-18 0 0 0
0.288433 0 0 -0.00519368 -5.54454e-05 -0.000894563
0.288433 0.00368111 0 0 0 0
0.288433 0.00749587 0 0 0 0
0.288433 0.0114491 0 0 0 0
0.288433 0.0155459 3.70071e-18 0 0 0
0.288433 0.0197915 0 0 0 0
0.288433 0.0241911 3.70071e-18 0 0 0
0.288433 0.0287506 0 0 0 0
0.219992 0.188991 0 0 0 0
0.288433 0.0334755 0 0 0 0
0.288433 0.038372 0 0 0 0
0.288433 0.0434463 0 0 0 0
7.47806e-17 0.291753 0 0 0 0
0.288433 0.0487048 0 0 0 0
0.288433 0.0541543 0 0 0 0
0.151552 0.251863 0 0 0 0
0.288433 0.0598016 3.70071e-18 0 0 0
0.075776 0.284866 0 0 0 0
0.288433 0.0656539 3.70071e-18 0 0 0
0.219992 0.199534 0 0 0 0
0.288433 0.0717187 0 0 0 0
0.288433 0.0780037 0 0 0 0
0.288433 0.0845169 0 0 0 0
0.288433 0.0912666 0 0 0 0
0.219992 0.21046 -3.46945e-18 0 0 0
0.288433 0.0982613 0 0 0 0
0.151552 0.264688 3.70071e-18 0 0 0
0 0.306027 0 0 0 0
0.288433 0.10551 0 0 0 0
0.075776 0.29889 3.46945e-18 0 0 0
0.288433 0.113022 0 0 0 0
0.219993 0.221782 0 0 0 0
0.288433 0.120806 0 0 0 0
0.288433 0.128874 0 0 0 0
0.151552 0.27798 0 0 0 0
0.288433 0.137234 0 0 0 0
0 0.320819 0 0 0 0
0.219992 0.233515 -3.46945e-18 0 0 0
0.075776 0.313423 -3.46945e-18 0 0 0
0.288433 0.145897 0 0 0 0
0.288433 0.154876 0 0 0 0
0.151552 0.291753 0 0 0 0
0.219993 0.245675 0 0 0 0
0.288433 0.16418 0 0 0 0
0 0.336148 0 0 0 0
0.288433 0.173822 0 0 0 0
0.075776 0.328484 -3.46945e-18 0 0 0
0.219993 0.258275 -3.46945e-18 0 0 0
0.151552 0.306027 0 0 0 0
0.288433 0.183814 0 0 0 0
0.288433 0.194169 0 0 0 0
0.219992 0.271334 3.46945e-18 0 0 0
0.350249 0.00184056 -3.46945e-18 0 0 0
0.350249 0.00558849 0 0 0 0
0.350249 0.00947248 3.46945e-18 0 0 0
0.350249 0.0134975 0 0 0 0
0.350249 0.0176687 0 0 0 0
0.350249 0.0219913 0 0 0 0
0.350249 0.0264708 3.46945e-18 0 0 0
0.350249 0.031113 0 0 0 0
0 0.352034 0 0 0 0
0.350249 0.0359238 0 0 0 0
0.075776 0.344091 0 0 0 0
0.350249 0.0409091 0 0 0 0
0.350249 0.0460756 3.46945e-18 0 0 0
0.288433 0.2049 0 0 0 0
0.350249 0.0514296 0 0 0 0
0.151552 0.320819 0 0 0 0
0.350249 0.0569779 0 0 0 0
0.350249 0.0627277 3.46945e-18 0 0 0
0.350249 0.0686863 3.46945e-18 0 0 0
0.350249 0.0748612 3.46945e-18 0 0 0
0.350249 0.0812603 0 0 0 0
0.219992 0.284867 0 0 0 0
0.288433 0.21602 0 0 0 0
0.350249 0.0878917 0 0 0 0
0.350249 0.094764 0 0 0 0
0.350249 0.101886 0 0 0 0
0.350249 0.109266 0 0 0 0
0.288433 0.227544 0 0 0 0
0.075776 0.360265 3.46945e-18 0 0 0
0 0.368496 0 0 0 0
0.151552 0.336148 0 0 0 0
0.350249 0.116914 3.46945e-18 0 0 0
0.219992 0.29889 0 0 0 0
0.370854 0.0241911 1.54074e-33 0 0 0
0.350249 0.12484 0 0 0 0
0.350249 0.133054 0 0 0 0
0.288433 0.239487 -9.25154e-19 0 0 0
0.350249 0.141566 3.46945e-18 0 0 0
0.350249 0.150387 3.46945e-18 0 0 0
0.288433 0.251863 0 0 0 0
0.219992 0.313423 0 0 0 0
0.151552 0.352034 0 0 0 0
0.075776 0.377027 0 0 0 0
0.350249 0.159528 0 0 0 0
0 0.385557 0 0 0 0
0.350249 0.169001 0 0 0 0
0.288433 0.264688 0 0 0 0
0.350249 0.178818 0 0 0 0
0.219992 0.328484 0 0 0 0
0.350249 0.188992 0 0 0 0
0.151552 0.368496 0 0 0 0
0.288433 0.27798 3.70071e-18 0 0 0
0.075776 0.394397 0 0 0 0
0.350249 0.199535 0 0 0 0
7.47806e-17 0.403236 0 0 0 0
0.219992 0.344091 0 0 0 0
0.350249 0.21046 -3.46945e-18 0 0 0
0.288433 0.291753 0 0 0 0
0.412065 9.08189e-19 3.08149e-33 -0.0036354 -1.21108e-05 -0.000683735
0.412065 0.00368111 -2.31298e-18 0 0 0
0.412065 0.00749587 -2.31298e-18 0 0 0
0.412065 0.0114491 -2.31298e-18 0 0 0
0.412065 0.0155459 -2.31298e-18 0 0 0
0.412065 0.0197915 0 0 0 0
0.412065 0.0241911 -3.08149e-33 0 0 0
0.412065 0.0264709 0 0 0 0
0.412065 0.0287506 -2.31298e-18 0 0 0
0.412065 0.0334755 -2.31298e-18 0 0 0
0.412065 0.038372 -2.31298e-18 0 0 0
0.151552 0.385557 0 0 0 0
0.412065 0.0434463 0 0 0 0
0.350249 0.221782 0 0 0 0
0.412065 0.0487048 0 0 0 0
0.412065 0.0541543 -3.08149e-33 0 0 0
0.412065 0.0569779 0 0 0 0
0.412065 0.0598016 -2.31298e-18 0 0 0
0.412065 0.0656539 -2.31298e-18 0 0 0
0.412065 0.0717187 -2.31298e-18 0 0 0
0.075776 0.412396 -3.46945e-18 0 0 0
0.412065 0.0780037 -2.31298e-18 0 0 0
0.288433 0.306027 0 0 0 0
0.412065 0.0845169 -2.31298e-18 0 0 0
0.350249 0.233516 3.46945e-18 0 0 0
0 0.421557 0 0 0 0
0.412065 0.0912666 -2.31298e-18 0 0 0
0.219992 0.360265 3.46945e-18 0 0 0
0.412065 0.0982613 0 0 0 0
0.412065 0.10551 0 0 0 0
0.412065 0.113022 -2.31298e-18 0 0 0
0.350249 0.245675 0 0 0 0
0.412065 0.120806 0 0 0 0
0.151552 0.403236 0 0 0 0
0.288433 0.320819 0 0 0 0
0.412065 0.128874 -2.31298e-18 0 0 0
0.412065 0.137234 0 0 0 0
0.350249 0.258275 -3.46945e-18 0 0 0
0.219992 0.377026 0 0 0 0
0.412065 0.145897 -2.31298e-18 0 0 0
0.075776 0.431051 0 0 0 0
0.412065 0.154876 -2.31298e-18 0 0 0
0 0.440544 0 0 0 0
0.288433 0.336148 0 0 0 0
0.350249 0.271334 0 0 0 0
0.412065 0.16418 -2.31298e-18 0 0 0
0.412065 0.173822 -2.31298e-18 0 0 0
0.151552 0.421557 0 0 0 0
0.412065 0.183814 -2.31298e-18 0 0 0
0.350249 0.284867 3.46945e-18 0 0 0
0.219992 0.394397 0 0 0 0
0.288433 0.352034 3.70071e-18 0 0 0
0.412065 0.194169 0 0 0 0
0.075776 0.450382 0 0 0 0
0.412065 0.2049 -2.31298e-18 0 0 0
0 0.46022 0 0 0 0
0.350249 0.29889 3.46945e-18 0 0 0
0.412065 0.21602 0 0 0 0
0.151552 0.440544 0 0 0 0
0.219993 0.412396 3.46945e-18 0 0 0
0.467897 0.00184056 -3.46945e-18 0 0 0
0.467897 0.00558849 0 0 0 0
0.288433 0.368496 0 0 0 0
0.467897 0.00947248 0 0 0 0
0.467897 0.0134975 0 0 0 0
0.467897 0.0176687 3.46945e-18 0 0 0
0.467897 0.0219913 -3.46945e-18 0 0 0
0.467897 0.0264709 3.46945e-18 0 0 0
0.467897 0.0311131 3.46945e-18 0 0 0
0.467897 0.0359238 -3.46945e-18 0 0 0
0.467897 0.038372 0 0 0 0
0.467897 0.0409092 3.46945e-18 0 0 0
0.350249 0.313423 0 0 0 0
0.467897 0.0460755 0 0 0 0
0.467897 0.0514296 3.46945e-18 0 0 0
0.412065 0.227544 -2.31298e-18 0 0 0
0.467897 0.0569779 0 0 0 0
0.467897 0.0627277 -3.46945e-18 0 0 0
0.467897 0.0686863 3.46945e-18 0 0 0
0.467897 0.0748612 0 0 0 0
0.467897 0.0812603 0 0 0 0
0.467897 0.0878918 3.46945e-18 0 0 0
0.075776 0.470415 3.46945e-18 0 0 0
0.412065 0.239487 -2.31298e-18 0 0 0
0.467897 0.0947639 -3.46945e-18 0 0 0
0.467897 0.101886 3.46945e-18 0 0 0
0.350249 0.328483 0 0 0 0
0.467897 0.109266 0 0 0 0
0 0.48061 0 0 0 0
0.288433 0.385557 0 0 0 0
0.467897 0.116914 0 0 0 0
0.412065 0.251863 -2.31298e-18 0 0 0
0.219992 0.431051 0 0 0 0
0.467897 0.12484 0 0 0 0
0.151552 0.46022 0 0 0 0
0.467897 0.133054 3.46945e-18 0 0 0
0.467897 0.141566 3.46945e-18 0 0 0
0.412065 0.264688 -2.31298e-18 0 0 0
0.350249 0.344091 -3.46945e-18 0 0 0
0.467897 0.150387 3.46945e-18 0 0 0
0.467897 0.154876 0 0 0 0
0.467897 0.159528 3.46945e-18 0 0 0
0.288433 0.403236 0 0 0 0
0.075776 0.491175 0 0 0 0
0.412065 0.27798 -2.31298e-18 0 0 0
0.467897 0.169001 0 0 0 0
0.467897 0.178818 3.46945e-18 0 0 0
0.219992 0.450382 0 0 0 0
6.73026e-17 0.501741 3.70071e-18 0 0 0
0.350249 0.360265 0 0 0 0
0.151552 0.48061 0 0 0 0
0.467897 0.188991 0 0 0 0
0.412065 0.291753 0 0 0 0
0.467897 0.199535 0 0 0 0
0.288433 0.421557 0 0 0 0
0.467897 0.21046 0 0 0 0
0.412065 0.306027 0 0 0 0
0.350249 0.377027 0 0 0 0
0.467897 0.221782 3.46945e-18 0 0 0
0.075776 0.51269 0 0 0 0
0.219993 0.470415 3.46945e-18 0 0 0
0.467897 0.227544 0 0 0 0
0.412065 0.320819 -2.31298e-18 0 0 0
0.467897 0.233515 0 0 0 0
6.73026e-17 0.523639 3.70071e-18 0 0 0
0.523729 0 0 -0.00293752 -7.20198e-06 -0.000607161
0.523729 0.00368111 0 0 0 0
0.523729 0.00749587 -2.31298e-18 0 0 0
0.523729 0.0114491 0 0 0 0
0.523729 0.0155459 0 0 0 0
0.523729 0.0197915 -2.31298e-18 0 0 0
0.151552 0.501741 0 0 0 0
0.523729 0.0241911 0 0 0 0
0.523729 0.0287506 0 0 0 0
0.523729 0.0334755 0 0 0 0
0.523729 0.038372 -3.08149e-33 0 0 0
0.523729 0.0434463 0 0 0 0
0.523729 0.0487048 0 0 0 0
0.523729 0.0541543 0 0 0 0
0.288433 0.440544 0 0 0 0
0.523729 0.0598016 0 0 0 0
0.350249 0.394397 -3.46945e-18 0 0 0
0.523729 0.0656539 0 0 0 0
0.467897 0.245675 0 0 0 0
0.523729 0.0717187 0 0 0 0
0.523729 0.0780037 0 0 0 0
0.523729 0.0845169 0 0 0 0
0.523729 0.0912666 0 0 0 0
0.412065 0.336148 0 0 0 0
0.523729 0.0982613 0 0 0 0
0.523729 0.10551 -2.31298e-18 0 0 0
0.467897 0.258275 -3.46945e-18 0 0 0
0.523729 0.113022 0 0 0 0
0.523729 0.120806 -3.08149e-33 0 0 0
0.219993 0.491176 0 0 0 0
0.523729 0.12484 0 0 0 0
0.523729 0.128874 -2.31298e-18 0 0 0
0.075776 0.534986 0 0 0 0
0.467897 0.271334 3.46945e-18 0 0 0
0.350249 0.412396 -3.46945e-18 0 0 0
0.523729 0.137234 0 0 0 0
0.412065 0.352034 -2.31298e-18 0 0 0
0.288433 0.46022 0 0 0 0
0.523729 0.145897 0 0 0 0
0.151552 0.523639 0 0 0 0
0.523729 0.154876 -3.08149e-33 0 0 0
0 0.546332 0 0 0 0
0.523729 0.159528 0 0 0 0
0.467897 0.284867 -3.46945e-18 0 0 0
0.523729 0.16418 -2.31298e-18 0 0 0
0.523729 0.173822 0 0 0 0
0.412065 0.368496 0 0 0 0
0.523729 0.183814 0 0 0 0
0.467897 0.29889 0 0 0 0
0.350249 0.431051 -3.46945e-18 0 0 0
0.219992 0.51269 0 0 0 0
0.523729 0.194169 0 0 0 0
0.288433 0.48061 0 0 0 0
0.523729 0.2049 0 0 0 0
0.467897 0.313423 3.46945e-18 0 0 0
0.075776 0.558091 0 0 0 0
0.412065 0.385557 0 0 0 0
0.523729 0.21602 -3.08149e-33 0 0 0
0.151552 0.546332 0 0 0 0
0 0.569849 0 0 0 0
0.350249 0.450382 3.46945e-18 0 0 0
0.523729 0.227544 -3.08149e-33 0 0 0
0.467897 0.328483 0 0 0 0
0.523729 0.231525 1.54074e-33 0 0 0
0.574156 0.00184056 0 0 0 0
0.574156 0.00558849 0 0 0 0
0.574157 0.00947248 0 0 0 0
0.574156 0.0134975 -3.46945e-18 0 0 0
0.574156 0.0176687 -3.46945e-18 0 0 0
0.574156 0.0219913 0 0 0 0
0.574156 0.0264708 -3.46945e-18 0 0 0
0.574156 0.031113 0 0 0 0
0.574156 0.0359238 -3.46945e-18 0 0 0
0.574157 0.0409092 0 0 0 0
0.523729 0.239487 3.70071e-18 0 0 0
0.574156 0.0460755 -3.46945e-18 0 0 0
0.574156 0.0514295 0 0 0 0
0.412065 0.403236 0 0 0 0
0.574157 0.0569779 0 0 0 0
0.574156 0.0627277 0 0 0 0
0.574156 0.0686863 0 0 0 0
0.219992 0.534986 0 0 0 0
0.288433 0.501741 0 0 0 0
0.574156 0.0748612 3.46945e-18 0 0 0
0.574156 0.0812603 0 0 0 0
0.467897 0.344091 0 0 0 0
0.574156 0.0878917 3.46945e-18 0 0 0
0.523729 0.251863 0 0 0 0
0.574157 0.0947639 0 0 0 0
0.574156 0.101886 0 0 0 0
0.574156 0.109266 0 0 0 0
0.574156 0.116914 0 0 0 0
0.412065 0.416977 -6.16298e-33 0 0 0
0.350249 0.470415 0 0 0 0
0.523729 0.264688 0 0 0 0
0.075776 0.582034 0 0 0 0
0.574156 0.12484 0 0 0 0
0.574156 0.133054 3.46945e-18 0 0 0
0.412065 0.421557 -2.31298e-18 0 0 0
0.151552 0.569849 0 0 0 0
0.467897 0.360265 -3.46945e-18 0 0 0
0.574157 0.141566 -3.46945e-18 0 0 0
0.523729 0.27798 0 0 0 0
0.574156 0.150386 3.46945e-18 0 0 0
0 0.594219 0 0 0 0
0.574156 0.159528 -3.46945e-18 0 0 0
0.574156 0.16418 0 0 0 0
0.288433 0.523639 1.2326e-32 0 0 0
0.574157 0.169001 0 0 0 0
0.523729 0.291753 0 0 0 0
0.219993 0.558091 3.46945e-18 0 0 0
0.467897 0.377026 0 0 0 0
0.574156 0.178818 3.46945e-18 0 0 0
0.412065 0.440544 -2.31298e-18 0 0 0
0.350249 0.491175 0 0 0 0
0.574156 0.188992 3.46945e-18 0 0 0
0.523729 0.306027 -3.08149e-33 0 0 0
0.574157 0.199535 0 0 0 0
0.574157 0.21046 0 0 0 0
0.075776 0.606847 0 0 0 0
0.467897 0.394397 0 0 0 0
0.151552 0.594219 0 0 0 0
0.523729 0.320819 0 0 0 0
0.574157 0.221782 -3.46945e-18 0 0 0
0.412065 0.46022 3.08149e-33 0 0 0
0.288433 0.546332 0 0 0 0
0 0.619475 0 0 0 0
0.574156 0.233515 3.46945e-18 0 0 0
0.350249 0.51269 3.46945e-18 0 0 0
0.219992 0.582034 3.46945e-18 0 0 0
0.523729 0.336148 0 0 0 0
0.467897 0.412396 0 0 0 0
0.574156 0.245675 0 0 0 0
0.624584 0 0 -0.00242405 -6.21813e-06 -0.000559572
0.624584 0.00368111 0 0 0 0
0.624584 0.00749587 0 0 0 0
0.624584 0.0114491 0 0 0 0
0.624584 0.0155459 0 0 0 0
0.624584 0.0197915 0 0 0 0
0.624584 0.0241911 -2.31298e-18 0 0 0
0.624584 0.0287506 0 0 0 0
0.624584 0.0334755 0 0 0 0
0.624584 0.038372 0 0 0 0
0.624584 0.0434463 -2.31298e-18 0 0 0
0.624584 0.0487048 0 0 0 0
0.624584 0.0541543 0 0 0 0
0.624584 0.0598016 0 0 0 0
0.624584 0.0656539 0 0 0 0
0.624584 0.0717187 0 0 0 0
0.624584 0.0780037 0 0 0 0
0.574157 0.258276 3.46945e-18 0 0 0
0.624584 0.0845169 0 0 0 0
0.523729 0.352034 0 0 0 0
0.624584 0.0912666 0 0 0 0
0.624584 0.0982613 0 0 0 0
0.412065 0.48061 3.08149e-33 0 0 0
0.624584 0.10551 0 0 0 0
0.624584 0.113022 -2.31298e-18 0 0 0
0.574156 0.271334 0 0 0 0
0.624584 0.120806 0 0 0 0
0.467897 0.431051 0 0 0 0
0.075776 0.632561 -3.46945e-18 0 0 0
0.624584 0.128874 0 0 0 0
0.151552 0.619475 0 0 0 0
0.288433 0.569849 0 0 0 0
0.350249 0.534985 0 0 0 0
0.624584 0.137234 -2.31298e-18 0 0 0
0.523729 0.368496 0 0 0 0
0.574156 0.284866 -3.46945e-18 0 0 0
0.624584 0.145897 0 0 0 0
0.467897 0.440544 0 0 0 0
0.624584 0.154876 0 0 0 0
0.219992 0.606847 -3.46945e-18 0 0 0
0 0.645647 0 0 0 0
0.624584 0.16418 -3.08149e-33 0 0 0
0.574156 0.29889 -3.46945e-18 0 0 0
0.624584 0.173822 0 0 0 0
0.412065 0.501741 1.54074e-33 0 0 0
0.467897 0.450382 -3.46945e-18 0 0 0
0.523729 0.385557 0 0 0 0
0.624584 0.183814 0 0 0 0
0.624584 0.194169 0 0 0 0
0.574156 0.313423 0 0 0 0
0.624584 0.2049 0 0 0 0
0.350249 0.558091 3.46945e-18 0 0 0
0.288433 0.594219 0 0 0 0
0.624584 0.21602 0 0 0 0
0.523729 0.403236 0 0 0 0
0.574156 0.328483 -3.46945e-18 0 0 0
0.151552 0.645647 0 0 0 0
0.467897 0.470415 3.46945e-18 0 0 0
0.075776 0.659208 0 0 0 0
0.624584 0.227544 0 0 0 0
0.412065 0.523639 0 0 0 0
0.523729 0.41545 3.08149e-33 0 0 0
0.624584 0.239487 3.70071e-18 0 0 0
0.574156 0.344091 0 0 0 0
0.219992 0.632561 0 0 0 0
0.67013 0.00184055 0 0 0 0
0.67013 0.00558849 0 0 0 0
0.67013 0.00947248 0 0 0 0
0.67013 0.0134975 0 0 0 0
0.67013 0.0176687 -3.46945e-18 0 0 0
0.67013 0.0219913 0 0 0 0
0.67013 0.0264708 3.46945e-18 0 0 0
0.67013 0.0311131 0 0 0 0
0.67013 0.0359237 0 0 0 0
0.67013 0.0409092 -3.46945e-18 0 0 0
0.67013 0.0460755 0 0 0 0
0.67013 0.0514296 3.46945e-18 0 0 0
0.523729 0.421557 -2.31298e-18 0 0 0
0.67013 0.056978 0 0 0 0
0 0.67277 0 0 0 0
0.67013 0.0627277 0 0 0 0
0.624584 0.251863 0 0 0 0
0.67013 0.0686863 0 0 0 0
0.67013 0.0748612 3.46945e-18 0 0 0
0.67013 0.0812603 0 0 0 0
0.67013 0.0878917 0 0 0 0
0.67013 0.0947639 3.46945e-18 0 0 0
0.574156 0.360265 0 0 0 0
0.67013 0.101886 0 0 0 0
0.523729 0.431051 0 0 0 0
0.624584 0.264688 0 0 0 0
0.467897 0.491175 0 0 0 0
0.67013 0.109266 3.46945e-18 0 0 0
0.350249 0.582034 0 0 0 0
0.67013 0.116914 0 0 0 0
0.67013 0.12484 0 0 0 0
0.67013 0.133054 0 0 0 0
0.288433 0.619475 0 0 0 0
0.624584 0.27798 -3.08149e-33 0 0 0
0.412065 0.546332 1.54074e-33 0 0 0
0.523729 0.440544 -3.08149e-33 0 0 0
0.67013 0.141566 3.46945e-18 0 0 0
0.685312 0.0241911 -7.70372e-34 0 0 0
0.685312 0.0434463 -7.70372e-34 0 0 0
0.67013 0.150387 0 0 0 0
0.574156 0.377026 -3.46945e-18 0 0 0
0.67013 0.159528 0 0 0 0
0.624584 0.291753 0 0 0 0
0.151552 0.67277 0 0 0 0
0.075776 0.686823 0 0 0 0
0.67013 0.169001 0 0 0 0
0.67013 0.178818 0 0 0 0
0.467897 0.51269 0 0 0 0
0.685312 0.113022 -7.70372e-34 0 0 0
0.219992 0.659208 0 0 0 0
0.624584 0.306027 0 0 0 0
0.67013 0.188991 0 0 0 0
0.574156 0.394397 3.46945e-18 0 0 0
0.523729 0.46022 0 0 0 0
0.685312 0.137234 -7.70372e-34 0 0 0
0.67013 0.199535 -3.46945e-18 0 0 0
0.350249 0.606847 0 0 0 0
0 0.700877 0 0 0 0
0.624584 0.320819 0 0 0 0
0.67013 0.21046 0 0 0 0
0.412065 0.569849 -2.31298e-18 0 0 0
0.67013 0.221782 -3.46945e-18 0 0 0
0.574157 0.412396 0 0 0 0
0.288433 0.645647 0 0 0 0
0.624584 0.336148 -3.08149e-33 0 0 0
0.67013 0.233515 3.46945e-18 0 0 0
0.467897 0.534986 0 0 0 0
0.523729 0.48061 0 0 0 0
0.624584 0.344091 0 0 0 0
0.67013 0.245675 0 0 0 0
0.715676 4.54095e-19 0 -0.00196296 -5.79099e-06 -0.000523302
0.715676 0.00368111 0 0 0 0
0.715676 0.00749587 0 0 0 0
0.715676 0.0114491 0 0 0 0
0.715676 0.0155459 0 0 0 0
0.715676 0.0197915 0 0 0 0
0.715676 0.0241911 0 0 0 0
0.715676 0.0287506 0 0 0 0
0.715676 0.0334755 0 0 0 0
0.715676 0.038372 0 0 0 0
0.624584 0.352034 -2.31298e-18 0 0 0
0.715676 0.0434463 0 0 0 0
0.151552 0.700877 0 0 0 0
0.715676 0.0487048 0 0 0 0
0.715676 0.0541543 0 0 0 0
0.574156 0.43105 0 0 0 0
0.715676 0.0598016 0 0 0 0
0.67013 0.258275 0 0 0 0
0.715676 0.0656539 0 0 0 0
0.715676 0.0717187 0 0 0 0
0.075776 0.715441 0 0 0 0
0.715676 0.0780037 0 0 0 0
0.715676 0.0845169 0 0 0 0
0.219992 0.686824 0 0 0 0
0.715676 0.0912666 0 0 0 0
0.715676 0.0982613 0 0 0 0
0.67013 0.271334 -3.46945e-18 0 0 0
0.350249 0.632561 -3.46945e-18 0 0 0
0.412065 0.594219 3.08149e-33 0 0 0
0.715676 0.10551 0 0 0 0
0.715676 0.113022 0 0 0 0
0.624584 0.368496 0 0 0 0
0.523729 0.501741 0 0 0 0
0.715676 0.120806 0 0 0 0
0.715676 0.128874 0 0 0 0
0.67013 0.284867 0 0 0 0
0.467897 0.558091 3.46945e-18 0 0 0
0.715676 0.137234 0 0 0 0
0.574156 0.450382 0 0 0 0
0 0.730005 0 0 0 0
0.715676 0.145897 0 0 0 0
0.288433 0.67277 0 0 0 0
0.715676 0.154876 0 0 0 0
0.67013 0.29889 0 0 0 0
0.624584 0.385557 0 0 0 0
0.715676 0.16418 -9.25187e-19 0 0 0
0.715676 0.173822 0 0 0 0
0.715676 0.183814 0 0 0 0
0.67013 0.313423 0 0 0 0
0.523729 0.523639 0 0 0 0
0.715676 0.194169 0 0 0 0
0.574156 0.470415 3.46945e-18 0 0 0
0.624584 0.403236 0 0 0 0
0.743101 0.0241911 -7.70372e-34 0 0 0
0.412065 0.619475 3.08149e-33 0 0 0
0.715676 0.2049 0 0 0 0
0.151552 0.730005 0 0 0 0
0.67013 0.328484 3.46945e-18 0 0 0
0.350249 0.659208 0 0 0 0
0.467897 0.582034 0 0 0 0
0.715676 0.21602 0 0 0 0
0.219992 0.715441 0 0 0 0
0.075776 0.745097 -3.46945e-18 0 0 0
0.715676 0.227544 0 0 0 0
0.67013 0.344091 0 0 0 0
0.624584 0.421557 0 0 0 0
0.743101 0.128874 -7.70372e-34 0 0 0
0.715676 0.239487 3.70071e-18 0 0 0
0.574156 0.491175 0 0 0 0
0.756814 0.00184055 0 0 0 0
0.523729 0.546332 0 0 0 0
0.756813 0.00558849 0 0 0 0
0.756813 0.00947248 0 0 0 0
0.756814 0.0134975 -3.46945e-18 0 0 0
0.756814 0.0155459 0 0 0 0
0.756814 0.0176687 0 0 0 0
0.756814 0.0219913 0 0 0 0
0.756814 0.0264709 0 0 0 0
0.756814 0.031113 -3.46945e-18 0 0 0
0.756813 0.0359238 -3.46945e-18 0 0 0
0.288433 0.700877 0 0 0 0
0.756814 0.0409092 -3.46945e-18 0 0 0
0.756813 0.0460755 3.46945e-18 0 0 0
0.756813 0.0514296 0 0 0 0
0.715676 0.251863 0 0 0 0
0.756813 0.0569779 0 0 0 0
0.756814 0.0627277 -3.46945e-18 0 0 0
0.756814 0.0686863 -3.46945e-18 0 0 0
0 0.76019 0 0 0 0
0.756814 0.0748612 0 0 0 0
0.67013 0.360265 3.46945e-18 0 0 0
0.756814 0.0812603 -3.46945e-18 0 0 0
0.756814 0.0878917 -3.46945e-18 0 0 0
0.756814 0.0947639 -3.46945e-18 0 0 0
0.715676 0.264688 0 0 0 0
0.756813 0.101886 0 0 0 0
0.624584 0.440544 0 0 0 0
0.756813 0.109266 3.46945e-18 0 0 0
0.756813 0.116914 3.46945e-18 0 0 0
0.412065 0.645647 0 0 0 0
0.467897 0.606847 0 0 0 0
0.756814 0.120806 0 0 0 0
0.756813 0.12484 0 0 0 0
0.715676 0.27798 0 0 0 0
0.756814 0.133054 -3.46945e-18 0 0 0
0.67013 0.377026 -3.46945e-18 0 0 0
0.756814 0.137234 0 0 0 0
0.574156 0.51269 0 0 0 0
0.756813 0.141566 3.46945e-18 0 0 0
0.685312 0.352034 -7.70372e-34 0 0 0
0.743101 0.2049 -7.70372e-34 0 0 0
0.350249 0.686824 0 0 0 0
0.756814 0.150387 0 0 0 0
0.756814 0.154876 0 0 0 0
0.715676 0.291753 0 0 0 0
0.756814 0.159528 -3.46945e-18 0 0 0
0.523729 0.569849 0 0 0 0
0.72743 0.264688 0 0 0 0
0.756814 0.16418 0 0 0 0
0.151552 0.76019 0 0 0 0
0.756813 0.169001 3.46945e-18 0 0 0
0.624584 0.46022 0 0 0 0
0.219993 0.745097 0 0 0 0
0.67013 0.394396 0 0 0 0
0.756813 0.178818 -3.46945e-18 0 0 0
0.715676 0.306027 0 0 0 0
0.075776 0.775831 0 0 0 0
0.756813 0.188991 0 0 0 0
0.756814 0.199535 0 0 0 0
0.715676 0.320819 0 0 0 0
0.574156 0.534985 0 0 0 0
0.288433 0.730005 0 0 0 0
0.756813 0.21046 0 0 0 0
0.467897 0.632561 0 0 0 0
0.67013 0.412396 -3.46945e-18 0 0 0
0.624584 0.48061 -3.08149e-33 0 0 0
0.756814 0.221782 0 0 0 0
0.412065 0.67277 3.08149e-33 0 0 0
0.715676 0.336148 0 0 0 0
0 0.791472 0 0 0 0
0.756813 0.233516 3.46945e-18 0 0 0
0.523729 0.594219 0 0 0 0
0.624584 0.487654 1.54074e-33 0 0 0
0.756814 0.245675 3.46945e-18 0 0 0
0.350249 0.715441 3.46945e-18 0 0 0
0.67013 0.43105 0 0 0 0
0.715676 0.352034 -9.25187e-19 0 0 0
0.797951 9.08189e-19 -3.08149e-33 -0.00152398 -5.27712e-06 -0.000492849
0.797951 0.00368111 2.31298e-18 0 0 0
0.797951 0.00749587 2.31298e-18 0 0 0
0.797951 0.0114491 2.31298e-18 0 0 0
0.797951 0.0141803 7.70372e-34 0 0 0
0.797951 0.0155459 0 0 0 0
0.797951 0.0169611 7.70372e-34 0 0 0
0.797951 0.0197915 2.31298e-18 0 0 0
0.797951 0.0219913 0 0 0 0
0.797951 0.0241911 3.08149e-33 0 0 0
0.797951 0.0264709 0 0 0 0
0.797951 0.0287506 -3.08149e-33 0 0 0
0.797951 0.0334755 2.31298e-18 0 0 0
0.797951 0.038372 2.31298e-18 0 0 0
0.797951 0.0434463 2.31298e-18 0 0 0
0.797951 0.0487048 0 0 0 0
0.756813 0.258275 -3.46945e-18 0 0 0
0.797951 0.0541543 2.31298e-18 0 0 0
0.797951 0.0598016 2.31298e-18 0 0 0
0.797951 0.0656539 2.31298e-18 0 0 0
0.574156 0.55809 0 0 0 0
0.624584 0.501741 0 0 0 0
0.797951 0.0717187 2.31298e-18 0 0 0
0.797951 0.0780037 -3.08149e-33 0 0 0
0.797951 0.0845169 2.31298e-18 0 0 0
0.797951 0.0912666 -3.08149e-33 0 0 0
0.797951 0.0982613 2.31298e-18 0 0 0
0.756813 0.271334 0 0 0 0
0.797951 0.10551 2.31298e-18 0 0 0
0.715676 0.368496 0 0 0 0
0.151552 0.791472 0 0 0 0
0.797951 0.113022 2.31298e-18 0 0 0
0.219992 0.775831 3.46945e-18 0 0 0
0.797951 0.118211 7.70372e-34 0 0 0
0.770526 0.239487 1.54074e-33 0 0 0
0.797951 0.120806 0 0 0 0
0.67013 0.450382 3.46945e-18 0 0 0
0.797951 0.128874 3.08149e-33 0 0 0
0.467897 0.659208 0 0 0 0
0.756813 0.284866 -3.46945e-18 0 0 0
0.743101 0.320819 -7.70372e-34 0 0 0
0.797951 0.137234 0 0 0 0
0.797951 0.141566 0 0 0 0
0.797951 0.145897 -9.25187e-19 0 0 0
0.523729 0.619475 0 0 0 0
0.075776 0.807681 0 0 0 0
0.797951 0.150387 0 0 0 0
0.797951 0.154876 0 0 0 0
0.715676 0.385557 0 0 0 0
0.412065 0.700877 3.08149e-33 0 0 0
0.288433 0.76019 0 0 0 0
0.756813 0.29889 0 0 0 0
0.797951 0.16418 0 0 0 0
0.624584 0.523639 0 0 0 0
0.797951 0.167394 7.70372e-34 0 0 0
0.797951 0.173822 2.31298e-18 0 0 0
0.574156 0.582034 0 0 0 0
0.67013 0.470415 0 0 0 0
0.797951 0.183814 2.31298e-18 0 0 0
0.756813 0.313423 -3.46945e-18 0 0 0
0.797951 0.194169 -9.25187e-19 0 0 0
0.715676 0.403236 0 0 0 0
0.151552 0.807681 0 0 0 0
0.797951 0.197746 -7.70372e-34 0 0 0
0.350249 0.745097 0 0 0 0
0.797951 0.2049 3.08149e-33 0 0 0
0 0.823889 0 0 0 0
0.756813 0.328483 -3.46945e-18 0 0 0
0.797951 0.21046 0 0 0 0
0.797951 0.21602 -3.08149e-33 0 0 0
0.797951 0.223703 7.70372e-34 0 0 0
0.797951 0.227544 9.25187e-19 0 0 0
0.624584 0.546332 0 0 0 0
0.715676 0.421557 0 0 0 0
0.67013 0.491176 -3.46945e-18 0 0 0
0.797951 0.231525 7.70372e-34 0 0 0
0.467897 0.686824 -3.46945e-18 0 0 0
0.523729 0.645647 0 0 0 0
0.756813 0.344091 -3.46945e-18 0 0 0
0.822721 0.120806 7.70372e-34 0 0 0
0.797951 0.239487 -3.08149e-33 0 0 0
0.822721 0.137234 7.70372e-34 0 0 0
0.835106 0.00184056 0 0 0 0
0.835106 0.00558849 0 0 0 0
0.835106 0.00947248 0 0 0 0
0.835106 0.0134975 0 0 0 0
0.835107 0.0176687 0 0 0 0
0.835106 0.0219913 -3.46945e-18 0 0 0
0.574156 0.606847 3.46945e-18 0 0 0
0.835106 0.0241911 0 0 0 0
0.835106 0.0264709 -3.46945e-18 0 0 0
0.822721 0.145897 -7.70372e-34 0 0 0
0.835106 0.031113 3.46945e-18 0 0 0
0.835106 0.0359238 3.46945e-18 0 0 0
0.835106 0.0409092 -3.46945e-18 0 0 0
0.835106 0.0460755 3.46945e-18 0 0 0
0.835106 0.0514296 0 0 0 0
0.797951 0.251863 -3.08149e-33 0 0 0
0.835106 0.0541543 0 0 0 0
0.835106 0.0569779 0 0 0 0
0.219992 0.807681 3.46945e-18 0 0 0
0.822721 0.154876 7.70372e-34 0 0 0
0.835106 0.0627277 0 0 0 0
0.151552 0.823889 0 0 0 0
0.797951 0.255069 -1.54074e-33 0 0 0
0.835106 0.0686863 3.46945e-18 0 0 0
0.756814 0.360265 -3.46945e-18 0 0 0
0.412065 0.730005 0 0 0 0
0.835106 0.0748612 0 0 0 0
0.822721 0.16418 7.70372e-34 0 0 0
0.835106 0.0812603 0 0 0 0
0.835106 0.0878917 -3.46945e-18 0 0 0
0.715676 0.440544 0 0 0 0
0.835106 0.094764 0 0 0 0
0.797951 0.264688 -1.2326e-32 0 0 0
0.835106 0.101886 -3.46945e-18 0 0 0
0.835106 0.109266 3.46945e-18 0 0 0
0.288433 0.791472 0 0 0 0
0.835106 0.116914 0 0 0 0
0.67013 0.51269 3.46945e-18 0 0 0
0.797951 0.274657 6.16298e-33 0 0 0
0.075776 0.840686 -3.46945e-18 0 0 0
0.835106 0.12484 0 0 0 0
0.797951 0.27798 -3.08149e-33 0 0 0
0.624584 0.569849 0 0 0 0
0.756813 0.377026 -3.46945e-18 0 0 0
0.835106 0.133054 3.46945e-18 0 0 0
0.835106 0.141565 3.46945e-18 0 0 0
0.835106 0.150386 0 0 0 0
0.797951 0.291753 0 0 0 0
0.835106 0.159528 3.46945e-18 0 0 0
0.715676 0.46022 0 0 0 0
0.816529 0.239487 -1.54074e-33 0 0 0
0.350249 0.775831 3.46945e-18 0 0 0
0.835106 0.169001 0 0 0 0
0.523729 0.67277 0 0 0 0
0.756814 0.394397 3.46945e-18 0 0 0
0.822721 0.227544 7.70372e-34 0 0 0
0.835106 0.178818 0 0 0 0
0.574156 0.632561 -3.46945e-18 0 0 0
0.797951 0.306027 0 0 0 0
0.467897 0.715441 3.46945e-18 0 0 0
0.835106 0.188992 -3.46945e-18 0 0 0
0.797951 0.310958 -7.70372e-34 0 0 0
0 0.857483 0 0 0 0
0.67013 0.534986 0 0 0 0
0.835106 0.199535 0 0 0 0
0.835106 0.2049 0 0 0 0
0.797951 0.320819 3.08149e-33 0 0 0
0.835106 0.21046 3.46945e-18 0 0 0
0.756814 0.412397 -3.46945e-18 0 0 0
0.715676 0.48061 0 0 0 0
0.624584 0.594219 0 0 0 0
0.797951 0.328484 0 0 0 0
0.835106 0.221782 0 0 0 0
0.412065 0.76019 0 0 0 0
0.797951 0.336148 -3.08149e-33 0 0 0
0.835106 0.233515 3.46945e-18 0 0 0
0.219992 0.840686 -3.46945e-18 0 0 0
0.835106 0.245675 0 0 0 0
0.151552 0.857483 0 0 0 0
0.756813 0.431051 -3.46945e-18 0 0 0
0.67013 0.558091 0 0 0 0
0.797951 0.352034 0 0 0 0
0.872262 9.08189e-19 -3.08149e-33 -0.00108326 -4.27552e-06 -0.000465657
0.872262 0.00368111 2.31298e-18 0 0 0
0.872262 0.00749587 -9.25187e-19 0 0 0
0.872262 0.0114491 2.31298e-18 0 0 0
0.872262 0.0134975 0 0 0 0
0.872262 0.0155459 -2.31298e-18 0 0 0
0.872262 0.0183763 -7.70372e-34 0 0 0
0.872262 0.0197915 -9.25187e-19 0 0 0
0.872262 0.0241911 -3.08149e-33 0 0 0
0.872262 0.0287506 2.31298e-18 0 0 0
0.872262 0.0334755 2.31298e-18 0 0 0
0.288433 0.823889 0 0 0 0
0.872262 0.038372 -9.25187e-19 0 0 0
0.872262 0.0434463 -9.25187e-19 0 0 0
0.872262 0.0487048 2.31298e-18 0 0 0
0.872262 0.0514296 0 0 0 0
0.872262 0.0541543 3.08149e-33 0 0 0
0.715676 0.501741 -6.16298e-33 0 0 0
0.872262 0.0569779 0 0 0 0
0.835106 0.258275 -3.46945e-18 0 0 0
0.574156 0.659208 3.46945e-18 0 0 0
0.872262 0.0598016 2.31298e-18 0 0 0
0.872262 0.0656539 2.31298e-18 0 0 0
0.523729 0.700877 0 0 0 0
0.872262 0.0717187 2.31298e-18 0 0 0
0.872262 0.0780037 2.31298e-18 0 0 0
0.872262 0.0845169 2.31298e-18 0 0 0
0.872262 0.0912666 2.31298e-18 0 0 0
0.872262 0.0982613 2.31298e-18 0 0 0
0.835106 0.271334 0 0 0 0
0.075776 0.87489 -3.46945e-18 0 0 0
0.872262 0.10551 2.31298e-18 0 0 0
0.797951 0.368496 -3.08149e-33 0 0 0
0.872262 0.113022 2.31298e-18 0 0 0
0.624584 0.619475 0 0 0 0
0.467897 0.745097 0 0 0 0
0.835106 0.27798 0 0 0 0
0.350249 0.807681 3.46945e-18 0 0 0
0.872262 0.120806 -3.08149e-33 0 0 0
0.756814 0.450382 -3.46945e-18 0 0 0