# wallShearStress  FACE_DATA 60650
# x  y  z  wallShearStress_x  wallShearStress_y  wallShearStress_z
8.75721 0 0.345731 0.00110631 -9.86195e-06 0.00136624
8.72516 0 0.336919 0.00102855 -9.57403e-06 0.00123377
8.69439 0 0.328456 0.000923507 -1.05539e-05 0.00109702
8.66483 0 0.320329 0.000799649 -9.85496e-06 0.000963971
8.63646 0 0.312526 0.000709575 -8.18943e-06 0.000849267
8.6092 0 0.305031 0.000625116 -9.32685e-06 0.000740453
8.58303 0 0.297833 0.000531981 -9.88456e-06 0.000634133
8.82531 0 0.430728 0.00138657 -9.97926e-06 0.00189863
8.79057 0 0.419435 0.00130469 -1.16244e-05 0.00173709
8.75721 0 0.408591 0.00121189 -1.10792e-05 0.00157999
8.72516 0 0.398176 0.00112319 -1.06064e-05 0.00142789
8.69439 0 0.388175 0.00102496 -1.08429e-05 0.00128575
8.66483 0 0.378571 0.000909688 -1.0568e-05 0.00113938
8.63646 0 0.369348 0.000798041 -1.03926e-05 0.000996634
8.6092 0 0.360491 0.000699293 -9.8242e-06 0.000874634
8.58303 0 0.351985 0.000605499 -1.00915e-05 0.000759144
8.5579 0 0.343817 0.000505981 -1.08264e-05 0.000645065
8.53376 0 0.335973 0.000400791 -1.05219e-05 0.000531134
8.51058 0 0.32844 0.000295766 -9.17707e-06 0.000421889
8.9384 0 0.539403 0.00167364 -1.3832e-05 0.00261163
8.89917 0 0.52469 0.00161345 -4.85277e-06 0.00248678
8.8615 0 0.510562 0.00156647 -1.02537e-05 0.00231821
8.82531 0 0.496994 0.00149687 -8.4052e-06 0.00215946
8.79057 0 0.483964 0.00141753 -1.03028e-05 0.00199143
8.75721 0 0.471451 0.00132845 -1.10435e-05 0.00182431
8.72516 0 0.459434 0.00123688 -1.20609e-05 0.00165573
8.69439 0 0.447895 0.00113844 -1.15218e-05 0.00149891
8.66483 0 0.436813 0.00103779 -1.12891e-05 0.00134091
8.63646 0 0.426171 0.000918718 -1.16727e-05 0.00118245
8.6092 0 0.415951 0.000798217 -1.08686e-05 0.00103332
8.58303 0 0.406136 0.000692857 -1.10492e-05 0.000900427
8.5579 0 0.396712 0.00059048 -1.12315e-05 0.000776307
8.53376 0 0.387661 0.000483484 -1.19602e-05 0.000654744
8.51058 0 0.378969 0.000369502 -1.15655e-05 0.000534491
8.48833 0 0.370622 0.000253903 -1.00132e-05 0.00042028
8.46695 0 0.362605 0.000146025 -8.57874e-06 0.000315146
8.9384 0 0.611323 0.00173201 -1.4701e-05 0.00281465
8.89917 0 0.594649 0.00168868 -2.99561e-06 0.00272472
8.8615 0 0.578636 0.00165877 -9.63514e-06 0.00256538
8.82531 0 0.563259 0.00160066 -7.29873e-06 0.00241801
8.79057 0 0.548492 0.00153619 -9.51564e-06 0.00225087
8.75721 0 0.534311 0.00145459 -9.40951e-06 0.0020816
8.72516 0 0.520692 0.00136293 -1.09818e-05 0.00190877
8.69439 0 0.507614 0.00126592 -1.20792e-05 0.00173396
8.66483 0 0.495055 0.00116571 -1.2352e-05 0.00156668
8.63646 0 0.482994 0.00105751 -1.2177e-05 0.00140108
8.6092 0 0.471411 0.000934559 -1.21234e-05 0.00123523
8.58303 0 0.460288 0.000808826 -1.1949e-05 0.00107244
8.5579 0 0.449607 0.000692701 -1.21506e-05 0.000929556
8.53376 0 0.439349 0.000581728 -1.22053e-05 0.000797005
8.51058 0 0.429498 0.000464605 -1.32645e-05 0.000666345
8.48833 0 0.420038 0.000338829 -1.25382e-05 0.000538503
8.46695 0 0.410953 0.000213218 -1.07664e-05 0.000416327
8.44642 0 0.402229 9.43446e-05 -1.08239e-05 0.000304365
8.42671 0 0.393851 -7.1642e-06 -9.10609e-06 0.000205221
8.9384 0 0.683243 0.00177009 -1.54065e-05 0.00293976
8.89917 0 0.664607 0.00173985 -1.24046e-06 0.00290082
8.8615 0 0.646711 0.00173481 -9.17719e-06 0.00276615
8.82531 0 0.629525 0.00169701 -5.76538e-06 0.00264287
8.79057 0 0.613021 0.00164738 -8.67444e-06 0.00248963
8.75721 0 0.597171 0.00157792 -8.41895e-06 0.002332
8.72516 0 0.58195 0.0014987 -9.70016e-06 0.0021623
8.69439 0 0.567333 0.0014041 -1.02634e-05 0.00198845
8.66483 0 0.553296 0.00130331 -1.1981e-05 0.00181091
8.63646 0 0.539816 0.00119584 -1.29663e-05 0.00163562
8.6092 0 0.526871 0.00108854 -1.29595e-05 0.00146276
8.58303 0 0.51444 0.000964842 -1.2981e-05 0.00129033
8.5579 0 0.502501 0.000826301 -1.25593e-05 0.00111916
8.53376 0 0.491037 0.000703074 -1.26917e-05 0.00096495
8.51058 0 0.480027 0.000581734 -1.36261e-05 0.00082114
8.48833 0 0.469454 0.000453898 -1.40263e-05 0.000680307
8.46695 0 0.4593 0.000317612 -1.37119e-05 0.000541471
8.44642 0 0.44955 0.000177839 -1.34086e-05 0.000409628
8.42671 0 0.440186 4.54052e-05 -1.21173e-05 0.000289753
8.40778 0 0.431194 -6.97985e-05 -8.06319e-06 0.00018577
8.38959 0 0.422558 -0.000158535 -4.50878e-06 9.55347e-05
8.9384 0 0.755163 0.00177735 -1.66688e-05 0.00296166
8.89917 0 0.734566 0.0017661 1.21863e-06 0.00298653
8.8615 0 0.714786 0.00178822 -9.34775e-06 0.00288756
8.82531 0 0.69579 0.00176877 -4.80244e-06 0.00280028
8.79057 0 0.677549 0.00173752 -7.59427e-06 0.00267653
8.75721 0 0.660031 0.00168544 -7.04161e-06 0.00254449
8.72516 0 0.643208 0.00162144 -8.69365e-06 0.00239319
8.69439 0 0.627053 0.00154153 -9.1897e-06 0.00223114
8.66483 0 0.611538 0.00144942 -1.02982e-05 0.00205954
8.63646 0 0.596639 0.00134547 -1.13142e-05 0.00188437
8.6092 0 0.582331 0.00123401 -1.32777e-05 0.00170247
8.58303 0 0.568591 0.00112459 -1.34009e-05 0.00152799
8.5579 0 0.555397 0.00100005 -1.32413e-05 0.00135069
8.53376 0 0.542725 0.000855626 -1.33933e-05 0.00116933
8.51058 0 0.530556 0.000721152 -1.36226e-05 0.001002
8.48833 0 0.518871 0.000589909 -1.43904e-05 0.000845761
8.46695 0 0.507648 0.000451247 -1.5264e-05 0.000692584
8.44642 0 0.496871 0.000302422 -1.46989e-05 0.000541844
8.42671 0 0.486522 0.000148796 -1.54699e-05 0.000396606
8.40778 0 0.476583 1.81121e-06 -1.30726e-05 0.000263401
8.38959 0 0.467038 -0.000123009 -8.877e-06 0.000147372
8.9384 0 0.827083 0.00174654 -1.5971e-05 0.00285581
8.89917 0 0.804525 0.0017582 3.70639e-06 0.00294904
8.8615 0 0.782861 0.0018069 -7.35555e-06 0.00290761
8.82531 0 0.762056 0.00181117 -3.42856e-06 0.00287149
8.79057 0 0.742077 0.00180185 -6.62185e-06 0.00279042
8.75721 0 0.722891 0.0017695 -5.5622e-06 0.00269507
8.72516 0 0.704466 0.00172305 -7.25417e-06 0.00257463
8.69439 0 0.686772 0.00165939 -7.75069e-06 0.00243853
8.66483 0 0.66978 0.00158309 -8.9806e-06 0.00228669
8.63646 0 0.653462 0.00149294 -9.7128e-06 0.00212239
8.6092 0 0.637792 0.00138869 -1.09626e-05 0.00194978
8.58303 0 0.622743 0.0012758 -1.26327e-05 0.00176902
8.5579 0 0.608291 0.00116792 -1.35466e-05 0.00159268
8.53376 0 0.594413 0.00104368 -1.37267e-05 0.00140961
8.51058 0 0.581085 0.000894818 -1.40686e-05 0.00122416
8.48833 0 0.568287 0.000752259 -1.42619e-05 0.00104419
8.46695 0 0.555995 0.000611089 -1.5503e-05 0.000872993
8.44642 0 0.544192 0.000464257 -1.60266e-05 0.000707792
8.42671 0 0.532857 0.000308375 -1.6051e-05 0.000544133
8.40778 0 0.521972 0.000144498 -1.72902e-05 0.00038444
8.38959 0 0.511518 -1.52313e-05 -1.47211e-05 0.000235554
8.9384 0 0.899004 0.00167432 -1.57581e-05 0.00261563
8.89917 0 0.874483 0.00171033 6.23488e-06 0.00277748
8.8615 0 0.850935 0.00178866 -5.85106e-06 0.00279725
8.82531 0 0.828322 0.00181624 -1.23288e-06 0.00283447
8.79057 0 0.806606 0.00183153 -4.83033e-06 0.00280934
8.75721 0 0.785751 0.00182314 -3.97346e-06 0.00276332
8.72516 0 0.765724 0.00179715 -5.5223e-06 0.00268439
8.69439 0 0.746491 0.00175266 -6.06846e-06 0.00258415
8.66483 0 0.728022 0.0016934 -7.391e-06 0.00246299
8.63646 0 0.710285 0.00161944 -8.21462e-06 0.00232447
8.6092 0 0.693252 0.00153372 -9.28272e-06 0.00217108
8.58303 0 0.676895 0.00143624 -1.02925e-05 0.00200522
8.5579 0 0.661186 0.0013261 -1.1814e-05 0.00183116
8.53376 0 0.646101 0.00120809 -1.33021e-05 0.00165587
8.51058 0 0.631614 0.0010848 -1.40288e-05 0.00147291
8.48833 0 0.617703 0.000943071 -1.45944e-05 0.00128226
8.46695 0 0.604343 0.000795254 -1.52283e-05 0.00108936
8.44642 0 0.591513 0.000646362 -1.59987e-05 0.000907378
8.42671 0 0.579192 0.000494565 -1.70226e-05 0.000731003
8.40778 0 0.56736 0.000334647 -1.69078e-05 0.000555666
8.38959 0 0.555998 0.000163684 -1.883e-05 0.000379269
8.37214 0 0.545086 -6.36629e-06 -1.61957e-05 0.000212223
8.9384 0 0.970925 0.00156565 -1.51244e-05 0.00227793
8.89917 0 0.944442 0.00163043 8.31116e-06 0.00249462
8.8615 0 0.91901 0.00173434 -5.56542e-06 0.00257057
8.82531 0 0.894588 0.00178369 9.99519e-07 0.00267347
8.79057 0 0.871135 0.00182294 -3.27353e-06 0.00271149
8.75721 0 0.848612 0.00183767 -2.50138e-06 0.00272887
8.72516 0 0.826982 0.00183666 -3.68855e-06 0.00270435
8.69439 0 0.806211 0.00181426 -4.05598e-06 0.00265151
8.66483 0 0.786263 0.00177462 -5.22278e-06 0.00257045
8.63646 0 0.767108 0.00171975 -6.22967e-06 0.00246683
8.6092 0 0.748712 0.00165038 -7.59235e-06 0.00234361
8.58303 0 0.731046 0.0015678 -8.58371e-06 0.00220373
8.5579 0 0.714081 0.00147408 -9.59194e-06 0.00204995
8.53376 0 0.697789 0.00136723 -1.0912e-05 0.00188425
8.51058 0 0.682144 0.00124959 -1.31087e-05 0.0017091
8.48833 0 0.667119 0.00113673 -1.43884e-05 0.00152544
8.46695 0 0.65269 0.00100532 -1.43769e-05 0.00133847
8.44642 0 0.638834 0.000850407 -1.49034e-05 0.00114313
8.42671 0 0.625528 0.000699795 -1.5898e-05 0.00095018
8.40778 0 0.612749 0.000546896 -1.70428e-05 0.000761328
8.38959 0 0.600478 0.000385535 -1.79094e-05 0.000572794
8.37214 0 0.588693 0.000213853 -2.00427e-05 0.000382715
8.97926 0 1.07246 0.00118841 1.96641e-05 0.0018192
8.9384 0 1.04284 0.00144024 -1.60258e-05 0.0018935
8.89917 0 1.0144 0.00151017 9.29893e-06 0.00214236
8.8615 0 0.987085 0.0016386 -6.02902e-06 0.00225638
8.82531 0 0.960854 0.00170648 2.25118e-06 0.00241221
8.79057 0 0.935663 0.00177381 -2.10445e-06 0.00250727
8.75721 0 0.911471 0.00181366 -7.21347e-07 0.00258467
8.72516 0 0.88824 0.00183651 -2.54042e-06 0.00261935
8.69439 0 0.86593 0.00183836 -2.71332e-06 0.00262374
8.66483 0 0.844505 0.00182218 -3.25334e-06 0.00259357
8.63646 0 0.823931 0.0017864 -4.56109e-06 0.00253511
8.6092 0 0.804172 0.00173622 -5.53843e-06 0.00245108
8.58303 0 0.785198 0.00167225 -6.73734e-06 0.00234515
8.5579 0 0.766976 0.00159404 -8.13787e-06 0.00221997
8.53376 0 0.749477 0.00150551 -9.23133e-06 0.00207983
8.51058 0 0.732673 0.00140725 -1.0555e-05 0.00192583
8.48833 0 0.716535 0.00129529 -1.21596e-05 0.00176025
8.46695 0 0.701038 0.00118053 -1.38738e-05 0.00158952
8.44642 0 0.686155 0.00105684 -1.50429e-05 0.00140406
8.42671 0 0.671863 0.000907594 -1.58948e-05 0.00120787
8.40778 0 0.658138 0.000757471 -1.63653e-05 0.00100605
8.38959 0 0.644957 0.00060521 -1.79354e-05 0.000808814
8.37214 0 0.6323 0.000448247 -1.88546e-05 0.000612212
8.97926 0 1.14643 0.00102838 1.80126e-05 0.00144808
8.9384 0 1.11476 0.00130394 -1.78305e-05 0.00152966
8.89917 0 1.08436 0.00136708 9.20927e-06 0.00178134
8.8615 0 1.05516 0.00152095 -8.23891e-06 0.00190502
8.82531 0 1.02712 0.00160496 2.00286e-06 0.00208502
8.79057 0 1.00019 0.00169415 -1.62647e-06 0.00221355
8.75721 0 0.974331 0.00175746 1.14233e-06 0.00233833
8.72516 0 0.949498 0.0018041 2.45624e-07 0.00242796
8.69439 0 0.925649 0.00182985 -2.94956e-08 0.00248842
8.66483 0 0.902747 0.00183691 -1.17604e-06 0.00251221
8.63646 0 0.880753 0.00182426 -1.53844e-06 0.00250601
8.6092 0 0.859632 0.00179461 -2.37876e-06 0.00246882
8.58303 0 0.839349 0.00174893 -3.68654e-06 0.00240555
8.5579 0 0.819871 0.00169005 -4.8791e-06 0.00231873
8.53376 0 0.801165 0.00161848 -6.22702e-06 0.00221169
8.51058 0 0.783202 0.00153301 -7.53956e-06 0.00208656
8.48833 0 0.765951 0.00143952 -8.71544e-06 0.00194612
8.46695 0 0.749385 0.00133975 -1.03944e-05 0.00179141
8.44642 0 0.733476 0.00123047 -1.20959e-05 0.0016289
8.42671 0 0.718198 0.00112171 -1.36566e-05 0.00145283
8.40778 0 0.703526 0.000991392 -1.38107e-05 0.00126533
8.38959 0 0.689437 0.000839715 -1.50517e-05 0.00106529
8.37214 0 0.675907 0.000693036 -1.62097e-05 0.000863205
8.97926 0 1.22039 0.000855376 1.70914e-05 0.00111783
8.9384 0 1.18669 0.00115522 -1.99672e-05 0.00121438
8.89917 0 1.15432 0.00120771 9.60903e-06 0.00146081
8.8615 0 1.12324 0.00137916 -9.62039e-06 0.00159666
8.82531 0 1.09339 0.00146327 9.44573e-07 0.00178524
8.79057 0 1.06472 0.00156313 -4.40226e-06 0.00192736
8.75721 0 1.03719 0.00163193 -1.34705e-06 0.00207046
8.72516 0 1.01076 0.00169258 -2.28556e-06 0.00218793
8.69439 0 0.985369 0.00173958 -2.00184e-06 0.00228713
8.66483 0 0.960988 0.00177041 -2.40565e-06 0.00235817
8.63646 0 0.937576 0.00178522 -3.12552e-06 0.00240388
8.6092 0 0.915092 0.00177961 -3.89408e-06 0.0024157
8.58303 0 0.893501 0.0017566 -4.52348e-06 0.00240099
8.5579 0 0.872766 0.00171698 -5.479e-06 0.00235775
8.53376 0 0.852853 0.00166439 -6.55047e-06 0.00229071
8.51058 0 0.833731 0.00160108 -7.53988e-06 0.00220177
8.48833 0 0.815368 0.00152743 -8.76323e-06 0.00209386
8.46695 0 0.797732 0.00144155 -1.01291e-05 0.00196897
8.44642 0 0.780797 0.00134435 -1.12785e-05 0.00183034
8.42671 0 0.764534 0.00123946 -1.3337e-05 0.00167803
8.40778 0 0.748915 0.0011351 -1.45825e-05 0.0015183
8.38959 0 0.733917 0.0010214 -1.60488e-05 0.00133847
8.37214 0 0.719513 0.000885339 -1.67132e-05 0.001147
8.97926 0 1.29435 0.000615933 1.50881e-05 0.000841935
8.9384 0 1.25861 0.000971381 -1.75331e-05 0.000947189
8.89917 0 1.22428 0.00102753 9.65943e-06 0.00114521
8.8615 0 1.19131 0.00122887 -9.28727e-06 0.00127619
8.82531 0 1.15965 0.00134179 5.24219e-07 0.00144405
8.79057 0 1.12925 0.00146788 -5.18147e-06 0.00158327
8.75721 0 1.10005 0.00156492 -2.78726e-06 0.00172455
8.72516 0 1.07202 0.00164684 -1.89611e-06 0.00185315
8.69439 0 1.04509 0.00171215 -2.36761e-07 0.00197435
8.66483 0 1.01923 0.00176124 3.34003e-07 0.00207773
8.63646 0 0.994399 0.00179398 5.77434e-07 0.00216328
8.6092 0 0.970553 0.00181047 3.86843e-07 0.00222382
8.58303 0 0.947652 0.00180783 -2.05483e-08 0.00225632
8.5579 0 0.925661 0.00178902 -2.91003e-07 0.00226044
8.53376 0 0.904541 0.00175413 -1.17479e-06 0.00223985
8.51058 0 0.88426 0.00170575 -2.30132e-06 0.00219341
8.48833 0 0.864784 0.00164603 -3.31929e-06 0.00212554
8.46695 0 0.84608 0.00157602 -5.04152e-06 0.00203826
8.44642 0 0.828118 0.0014973 -6.53648e-06 0.0019347
8.42671 0 0.810869 0.00141041 -8.10556e-06 0.00181438
8.40778 0 0.794304 0.00131931 -9.47716e-06 0.00168246
8.38959 0 0.778397 0.0012167 -1.14153e-05 0.00154071
8.37214 0 0.76312 0.00112644 -1.12369e-05 0.00138841
8.97926 0 1.36832 0.00041513 2.09182e-05 0.00059547
8.9384 0 1.33053 0.000804807 -1.55646e-05 0.000819388
8.89917 0 1.29423 0.000836795 5.33454e-06 0.000987684
8.8615 0 1.25938 0.00101704 -9.43038e-06 0.00114556
8.82531 0 1.22592 0.00112364 -8.6768e-07 0.00129465
8.79057 0 1.19378 0.00124328 -4.22346e-06 0.00142975
8.75721 0 1.16291 0.0013436 -2.4665e-06 0.00156227
8.72516 0 1.13327 0.00142945 -3.21532e-06 0.00168696
8.69439 0 1.10481 0.00150119 -4.59298e-06 0.00180758
8.66484 0 1.07747 0.00155618 -4.86535e-06 0.00191617
8.63646 0 1.05122 0.00159791 -4.52156e-06 0.00201605
8.6092 0 1.02601 0.00162555 -5.07455e-06 0.00209881
8.58303 0 1.0018 0.00163998 -5.91024e-06 0.002165
8.5579 0 0.978555 0.00163985 -7.02546e-06 0.00220794
8.53376 0 0.956229 0.00162534 -7.75798e-06 0.00222584
8.51058 0 0.934789 0.00159714 -8.59775e-06 0.00221895
8.48833 0 0.9142 0.00155673 -8.92743e-06 0.00218926
8.46695 0 0.894427 0.00150693 -9.30661e-06 0.00213603
8.44642 0 0.875439 0.001449 -9.62481e-06 0.00206178
8.42671 0 0.857205 0.00138406 -1.01573e-05 0.00196804
8.40778 0 0.839693 0.00131436 -1.05281e-05 0.00185869
8.38959 0 0.822877 0.00123742 -1.10167e-05 0.00173523
8.37214 0 0.806727 0.00115788 -1.26913e-05 0.00159374
8.97926 0 1.44228 0.00010382 3.71126e-05 0.000202321
8.9384 0 1.40245 0.000600941 -2.52167e-06 0.000484531
8.89917 0 1.36419 0.000737528 4.27952e-06 0.000632388
8.8615 0 1.32746 0.000949338 -6.55638e-06 0.000808326
8.82531 0 1.29218 0.0011101 -2.29895e-06 0.000949438
8.79057 0 1.2583 0.00125702 -2.20258e-06 0.00107832
8.75721 0 1.22577 0.00138886 -1.5903e-06 0.00119927
8.72516 0 1.19453 0.00150156 -2.38295e-06 0.00131257
8.69439 0 1.16453 0.00159641 -1.3338e-06 0.00142382
8.66483 0 1.13571 0.00167246 1.40434e-06 0.00152874
8.63646 0 1.10804 0.00173517 3.44456e-06 0.00163141
8.6092 0 1.08147 0.00178244 4.11376e-06 0.00172616
8.58303 0 1.05595 0.00181656 4.14713e-06 0.00181417
8.5579 0 1.03145 0.00183615 3.63272e-06 0.00188832
8.53376 0 1.00792 0.00184008 3.30876e-06 0.00194975
8.51058 0 0.985317 0.00182685 2.14905e-06 0.00198852
8.48833 0 0.963616 0.00180034 8.23634e-07 0.00201146
8.46695 0 0.942775 0.00175921 -9.85942e-07 0.00201151
8.44642 0 0.92276 0.00170418 -3.32235e-06 0.00198974
8.42671 0 0.90354 0.00163708 -5.99056e-06 0.00194589
8.40778 0 0.885082 0.00156142 -8.20017e-06 0.00188356
8.38959 0 0.867357 0.00147644 -1.05045e-05 0.00180354
8.37214 0 0.850334 0.00138536 -1.21653e-05 0.00170757
7.66922 0 0.966948 0.000148346 -1.71026e-06 0.000480284
7.67296 0 0.988324 0.000112523 -7.90943e-07 0.00049006
7.67685 0 1.01058 7.1996e-05 -3.44127e-07 0.000491347
7.68091 0 1.03376 2.56202e-05 9.11805e-07 0.00048359
7.68513 0 1.0579 -2.89879e-05 1.43996e-06 0.000466693
7.68953 0 1.08303 -9.34791e-05 2.07651e-06 0.000439182
7.69411 0 1.1092 -0.000173011 2.56819e-06 0.000397224
7.69888 0 1.13646 -0.000271339 2.05408e-06 0.000337914
7.70385 0 1.16483 -0.000394765 1.77787e-06 0.000260393
7.70902 0 1.19439 -0.000548655 1.21374e-06 0.000164353
7.7144 0 1.22516 -0.000737801 -2.19491e-06 6.40399e-05
7.72001 0 1.25721 -0.00098489 -2.61596e-06 -3.8971e-05
7.72585 0 1.29057 -0.00128247 -4.30895e-06 -0.000147235
7.73193 0 1.32531 -0.00164911 -8.10325e-06 -0.000277404
7.70425 0 0.907776 0.000283927 -5.0342e-06 0.000426391
7.70851 0 0.926707 0.00025687 -4.09877e-06 0.000468963
7.71295 0 0.946421 0.000227253 -3.2211e-06 0.00050212
7.71757 0 0.966948 0.000194572 -2.45453e-06 0.000526244
7.72238 0 0.988324 0.000158692 -1.63777e-06 0.000541847
7.72738 0 1.01058 0.000119224 -1.30484e-06 0.000548999
7.7326 0 1.03376 7.54555e-05 -7.54477e-07 0.000547877
7.73803 0 1.0579 2.51733e-05 -1.24038e-07 0.000538795
7.74368 0 1.08303 -3.22649e-05 5.1868e-07 0.00052124
7.74957 0 1.1092 -9.93537e-05 5.69579e-07 0.000494269
7.7557 0 1.13646 -0.000178792 1.70668e-06 0.000456394
7.76209 0 1.16484 -0.000275063 1.82738e-06 0.00040341
7.76874 0 1.19439 -0.000391507 9.9718e-07 0.000335149
7.77566 0 1.22516 -0.000533135 7.22273e-07 0.000250769
7.78287 0 1.25721 -0.000706609 6.30537e-07 0.000157538
7.79038 0 1.29057 -0.000914564 -1.87045e-06 5.68613e-05
7.7982 0 1.32531 -0.00117239 -2.73918e-06 -2.77745e-05
7.73984 0 0.872138 0.000383679 -7.55599e-06 0.000322957
7.74464 0 0.889597 0.000362724 -7.04128e-06 0.000391891
7.74964 0 0.907777 0.000338751 -5.66684e-06 0.000454874
7.75484 0 0.926707 0.000311751 -4.88954e-06 0.000504046
7.76026 0 0.94642 0.000282363 -4.00919e-06 0.000544213
7.76591 0 0.966948 0.000250164 -3.26644e-06 0.000573807
7.77179 0 0.988324 0.000215095 -2.40751e-06 0.000593518
7.77791 0 1.01058 0.000176617 -1.85178e-06 0.000604835
7.78428 0 1.03376 0.000134623 -1.16121e-06 0.000607502
7.79092 0 1.0579 8.77336e-05 -9.80463e-07 0.000602696
7.79783 0 1.08303 3.51032e-05 -8.39898e-08 0.000590556
7.80503 0 1.1092 -2.53475e-05 -3.63479e-07 0.000571922
7.81252 0 1.13646 -9.32532e-05 1.10085e-07 0.000545861
7.82033 0 1.16483 -0.000173961 1.45358e-07 0.00051044
7.82845 0 1.19439 -0.000267434 1.53668e-06 0.000463568
7.83692 0 1.22516 -0.000380688 4.51685e-07 0.000402291
7.84573 0 1.25721 -0.00051318 1.3806e-07 0.000332834
7.85491 0 1.29057 -0.000672936 6.44773e-07 0.000241617
7.86446 0 1.32531 -0.000855435 -1.49487e-06 0.000170882
7.87441 0 1.3615 -0.00109881 -1.66103e-06 4.63908e-05
7.778 0 0.855372 0.000460403 -8.87522e-06 0.000251492
7.78345 0 0.872138 0.000441681 -8.7326e-06 0.000331772
7.78912 0 0.889597 0.00042371 -8.001e-06 0.000410591
7.79503 0 0.907776 0.000399604 -6.30633e-06 0.000482191
7.80118 0 0.926708 0.000374711 -5.6103e-06 0.000539915
7.80759 0 0.94642 0.000347165 -4.54847e-06 0.000586845
7.81425 0 0.966948 0.000316802 -3.86542e-06 0.000622059
7.82121 0 0.988324 0.000283945 -2.89188e-06 0.000647033
7.82844 0 1.01058 0.000247896 -2.33977e-06 0.000662532
7.83597 0 1.03376 0.000208852 -1.42906e-06 0.00066872
7.84382 0 1.0579 0.000165489 -1.35737e-06 0.000667221
7.85199 0 1.08303 0.000118473 -2.57344e-07 0.000658653
7.86049 0 1.1092 6.49758e-05 -2.81483e-07 0.000644529
7.86935 0 1.13646 5.46891e-06 1.32114e-07 0.000624663
7.87857 0 1.16484 -6.37554e-05 -3.91991e-07 0.000598996
7.88818 0 1.19439 -0.00014116 -3.09923e-08 0.000568293
7.89818 0 1.22516 -0.00023344 -8.5339e-08 0.000528013
7.90859 0 1.25721 -0.000338037 1.37346e-07 0.000481891
7.91943 0 1.29057 -0.000467795 -4.86627e-07 0.000417046
7.93073 0 1.32531 -0.00060703 -1.22493e-06 0.000366388
7.94249 0 1.3615 -0.000794235 2.46937e-06 0.000257352
7.81473 0 0.839271 0.000531289 -9.48212e-06 0.000157298
7.82076 0 0.855372 0.000514903 -9.53396e-06 0.000246767
7.82705 0 0.872138 0.000495576 -1.02558e-05 0.000343357
7.8336 0 0.889597 0.000483736 -8.53438e-06 0.000431983
7.84042 0 0.907777 0.000463287 -6.45543e-06 0.000512162
7.84752 0 0.926707 0.000440629 -6.03319e-06 0.000581607
7.85491 0 0.946421 0.000415839 -4.91457e-06 0.00063587
7.8626 0 0.966948 0.000388995 -4.10462e-06 0.000678067
7.87062 0 0.988324 0.000360001 -3.00647e-06 0.000707982
7.87897 0 1.01058 0.000328102 -2.53798e-06 0.000727619
7.88766 0 1.03376 0.000294025 -1.52253e-06 0.000737328
7.89671 0 1.0579 0.000256459 -1.54396e-06 0.000739071
7.90614 0 1.08303 0.000216003 -8.70668e-07 0.000733272
7.91595 0 1.1092 0.000170623 -1.07038e-06 0.000721394
7.92617 0 1.13646 0.000120466 -1.6745e-08 0.000704573
7.93681 0 1.16483 6.27054e-05 -6.12138e-07 0.000683757
7.9479 0 1.19439 -2.01549e-06 -6.7208e-07 0.000660444
7.95943 0 1.22516 -7.8501e-05 -1.57579e-06 0.000632674
7.97145 0 1.25721 -0.000164556 -1.48781e-06 0.000603261
7.98397 0 1.29057 -0.000270526 -1.30059e-06 0.000561635
7.99699 0 1.32531 -0.000381478 -3.24865e-06 0.000525302
8.01056 0 1.3615 -0.000532299 -1.42296e-06 0.000456249
8.02469 0 1.39917 -0.000659018 -3.97361e-06 0.000439055
7.85669 0 0.839271 0.000586699 -1.06374e-05 0.000137097
7.86353 0 0.855372 0.000569301 -1.05112e-05 0.000235466
7.87066 0 0.872138 0.000551264 -1.23688e-05 0.000357439
7.87808 0 0.889596 0.000546271 -9.03577e-06 0.000464224
7.88581 0 0.907777 0.000532127 -7.2993e-06 0.000546411
7.89385 0 0.926708 0.000513624 -6.95452e-06 0.000624813
7.90223 0 0.94642 0.000494298 -5.72113e-06 0.000687445
7.91095 0 0.966948 0.000473141 -4.85664e-06 0.000737249
7.92003 0 0.988324 0.000450386 -3.63119e-06 0.000773324
7.9295 0 1.01058 0.000425069 -3.21418e-06 0.000798182
7.93935 0 1.03376 0.000397714 -2.19975e-06 0.000812492
7.94961 0 1.0579 0.000367121 -2.19936e-06 0.000818003
7.96029 0 1.08303 0.000333827 -1.36238e-06 0.000815288
7.97141 0 1.1092 0.000296238 -1.78254e-06 0.000806197
7.98299 0 1.13646 0.000255152 -8.88702e-07 0.000792117
7.99505 0 1.16484 0.000207898 -1.25234e-06 0.000774579
8.00761 0 1.19439 0.00015499 -8.77894e-07 0.000755591
8.02069 0 1.22516 9.27276e-05 -2.05454e-06 0.000735057
8.03431 0 1.25721 2.25633e-05 -2.28169e-06 0.000715333
8.04849 0 1.29057 -6.38184e-05 -3.31177e-06 0.000692598
8.06326 0 1.32531 -0.000156974 -4.15009e-06 0.000671139
8.07864 0 1.3615 -0.000280491 -3.36441e-06 0.000633265
8.09465 0 1.39917 -0.000390332 -8.24507e-06 0.000611516
7.89865 0 0.839271 0.000626628 -1.20068e-05 0.000126533
7.9063 0 0.855372 0.000611176 -1.05986e-05 0.000242833
7.91427 0 0.872138 0.000599139 -1.306e-05 0.000388373
7.92256 0 0.889597 0.000598492 -9.16665e-06 0.000513422
7.93119 0 0.907776 0.000590534 -7.5334e-06 0.000600949
7.94019 0 0.926708 0.000577476 -6.7844e-06 0.000689069
7.94955 0 0.94642 0.000565703 -5.58751e-06 0.000760292
7.9593 0 0.966948 0.000552249 -4.67717e-06 0.000817365
7.96945 0 0.988324 0.000537577 -3.29564e-06 0.000858669
7.98003 0 1.01058 0.000520484 -2.91681e-06 0.000887096
7.99104 0 1.03376 0.000501473 -1.78867e-06 0.00090395
8.0025 0 1.0579 0.000479283 -1.72695e-06 0.000911146
8.01444 0 1.08303 0.000455304 -8.24078e-07 0.000910524
8.02687 0 1.1092 0.000427503 -1.37728e-06 0.00090309
8.03981 0 1.13646 0.000396425 -8.12319e-07 0.00089063
8.05329 0 1.16483 0.000359605 -1.22628e-06 0.000874885
8.06733 0 1.19439 0.000318259 -9.37409e-07 0.000859026
8.08195 0 1.22516 0.000269243 -1.83072e-06 0.000842808
8.09717 0 1.25721 0.000212385 -2.32183e-06 0.000829271
8.11302 0 1.29057 0.000142374 -3.43616e-06 0.000816389
8.12952 0 1.32531 6.40902e-05 -4.03813e-06 0.000806801
8.14671 0 1.3615 -3.55561e-05 -4.82227e-06 0.000791515
8.16461 0 1.39917 -0.00012983 -7.33229e-06 0.000770493
8.18324 0 1.4384 -0.00026572 -4.7787e-06 0.000719773
7.94062 0 0.839271 0.000655895 -1.46495e-05 0.000113754
7.94907 0 0.855372 0.000648656 -1.29268e-05 0.000256579
7.95787 0 0.872138 0.000649577 -1.44258e-05 0.00042373
7.96704 0 0.889597 0.000656248 -1.12976e-05 0.000561864
7.97658 0 0.907777 0.000657541 -8.95873e-06 0.000655545
7.98652 0 0.926707 0.000655515 -7.97206e-06 0.000751611
7.99687 0 0.946421 0.00065281 -6.87047e-06 0.000832883
8.00765 0 0.966948 0.00064888 -6.03224e-06 0.000895441
8.01887 0 0.988324 0.000643548 -4.59273e-06 0.000942331
8.03055 0 1.01058 0.000635605 -4.20672e-06 0.000974953
8.04273 0 1.03376 0.000625832 -3.07941e-06 0.000995075
8.0554 0 1.0579 0.000612668 -3.20453e-06 0.00100507
8.06859 0 1.08303 0.000597324 -2.18837e-06 0.00100696
8.08233 0 1.1092 0.000577793 -2.53097e-06 0.00100143
8.09664 0 1.13646 0.000554946 -1.8026e-06 0.000991173
8.11154 0 1.16484 0.000526665 -2.26904e-06 0.000978238
8.12705 0 1.19439 0.000493571 -1.49808e-06 0.000965593
8.14321 0 1.22516 0.000453453 -1.86727e-06 0.000953359
8.16003 0 1.25721 0.000407487 -2.29106e-06 0.000944161
8.17755 0 1.29057 0.000351087 -3.5957e-06 0.000936835
8.19579 0 1.32531 0.000285286 -4.50119e-06 0.000934104
8.21479 0 1.3615 0.000202126 -4.54514e-06 0.000929665
8.23457 0 1.39917 0.000112803 -4.30156e-06 0.000913447
8.25516 0 1.4384 -1.11014e-05 -6.92265e-06 0.000893021
8.27661 0 1.47926 -0.000115391 -1.20659e-05 0.000842306
7.99184 0 0.855371 0.000670473 -1.15634e-05 0.000338386
8.00148 0 0.872138 0.000685589 -1.18484e-05 0.000519605
8.01152 0 0.889596 0.000698143 -9.53099e-06 0.000660902
8.02197 0 0.907777 0.000705423 -7.11344e-06 0.000765119
8.03286 0 0.926708 0.000713553 -6.37391e-06 0.000865714
8.04419 0 0.94642 0.000720047 -4.97209e-06 0.000949277
8.05599 0 0.966948 0.000725543 -4.07538e-06 0.00101524
8.06829 0 0.988324 0.000729432 -2.49947e-06 0.00106276
8.08108 0 1.01058 0.000730856 -2.25187e-06 0.00109477
8.09441 0 1.03376 0.000730444 -1.19961e-06 0.00111403
8.10829 0 1.0579 0.00072652 -1.54838e-06 0.00112236
8.12274 0 1.08303 0.000720359 -5.92287e-07 0.00112199
8.13779 0 1.1092 0.000709621 -1.07761e-06 0.00111352
8.15346 0 1.13646 0.000696281 -4.23709e-07 0.00110032
8.16978 0 1.16483 0.000677602 -1.46428e-06 0.00108492
8.18677 0 1.19439 0.000654645 -1.05799e-06 0.00107151
8.20447 0 1.22516 0.000622974 -2.25905e-06 0.00106008
8.22289 0 1.25721 0.000585817 -1.77974e-06 0.00105304
8.24208 0 1.29057 0.00053697 -3.19006e-06 0.00104882
8.26206 0 1.32531 0.00048004 -3.94754e-06 0.00104853
8.28286 0 1.3615 0.000405563 -6.56318e-06 0.00104898
8.30453 0 1.39917 0.000317748 -4.44704e-06 0.00103258
8.32708 0 1.4384 0.000198217 -7.69316e-06 0.00102282
8.35057 0 1.47926 7.19498e-05 -8.62043e-06 0.000938187
8.03461 0 0.855372 0.000709406 -1.63558e-05 0.000394783
8.04508 0 0.872138 0.000748042 -1.48667e-05 0.000577805
8.056 0 0.889597 0.000770012 -1.26416e-05 0.000714828
8.06736 0 0.907776 0.00078973 -1.02217e-05 0.000828482
8.07919 0 0.926707 0.000808324 -9.92638e-06 0.000937002
8.09151 0 0.946421 0.000825755 -8.71297e-06 0.00102268
8.10434 0 0.966948 0.000840353 -8.0434e-06 0.00109224
8.1177 0 0.988324 0.000852467 -6.52806e-06 0.00114375
8.13161 0 1.01058 0.00086127 -5.8783e-06 0.00117974
8.1461 0 1.03376 0.000867586 -4.46506e-06 0.00120188
8.16118 0 1.0579 0.000869882 -4.3702e-06 0.00121206
8.17689 0 1.08303 0.000869728 -3.06964e-06 0.00121238
8.19325 0 1.1092 0.000864945 -3.53112e-06 0.00120432
8.21028 0 1.13646 0.000856795 -2.65386e-06 0.00119243
8.22802 0 1.16484 0.000842143 -2.9479e-06 0.00117732
8.24649 0 1.19439 0.000823146 -2.07266e-06 0.00116318
8.26572 0 1.22516 0.000796039 -2.94645e-06 0.00115083
8.28575 0 1.25721 0.000761193 -2.4304e-06 0.00114267
8.30661 0 1.29057 0.000711823 -4.11818e-06 0.00113764
8.32832 0 1.32531 0.000653249 -3.48734e-06 0.00113571
8.35093 0 1.3615 0.000575777 -6.99694e-06 0.00113276
8.37448 0 1.39917 0.000487344 -5.00479e-06 0.00110525
8.399 0 1.4384 0.000369833 -1.07099e-05 0.00108964
8.42454 0 1.47926 0.000226308 -4.05595e-06 0.0009608
8.07738 0 0.855372 0.000746448 -1.29042e-05 0.000612953
8.08869 0 0.872138 0.00078754 -9.30672e-06 0.000782716
8.10048 0 0.889597 0.000809691 -6.99551e-06 0.000900151
8.11275 0 0.907777 0.000835515 -5.58992e-06 0.00101747
8.12553 0 0.926708 0.000858705 -5.03678e-06 0.00112486
8.13883 0 0.94642 0.000881995 -3.51584e-06 0.00120416
8.15269 0 0.966948 0.000902856 -2.86861e-06 0.00126592
8.16712 0 0.988324 0.00092245 -1.54199e-06 0.00130932
8.18214 0 1.01058 0.000939165 -1.20799e-06 0.00133647
8.19779 0 1.03376 0.000954006 3.18026e-08 0.0013494
8.21408 0 1.0579 0.000964784 -6.92761e-08 0.00135026
8.23104 0 1.08303 0.000972251 4.28495e-07 0.00134291
8.24871 0 1.1092 0.000973751 -4.57307e-07 0.00132756
8.26711 0 1.13646 0.00096989 -1.00949e-07 0.00130596
8.28626 0 1.16483 0.000958708 -1.13064e-06 0.00128134
8.30621 0 1.19439 0.000942413 -7.82742e-07 0.00125834
8.32698 0 1.22516 0.000917343 -2.1508e-06 0.00123787
8.34861 0 1.25721 0.000883966 -2.22183e-06 0.00122261
8.37113 0 1.29057 0.000835879 -3.75833e-06 0.00120754
8.39459 0 1.32531 0.000775995 -3.17876e-06 0.00119322
8.41901 0 1.3615 0.000696522 -6.38079e-06 0.00117804
8.44444 0 1.39917 0.000605718 -2.65374e-06 0.00113797
8.47093 0 1.4384 0.000490127 -1.30478e-05 0.00112165
8.4985 0 1.47926 0.000343701 -1.13328e-06 0.000973837
8.12014 0 0.855372 0.000811574 -1.82367e-05 0.000634941
8.1323 0 0.872138 0.000854233 -1.47211e-05 0.000797733
8.14496 0 0.889596 0.000895456 -1.29522e-05 0.000925188
8.15814 0 0.907777 0.000940609 -1.13203e-05 0.0010536
8.17186 0 0.926708 0.000977726 -1.05282e-05 0.00116086
8.18616 0 0.94642 0.00101278 -8.78201e-06 0.00124575
8.20104 0 0.966948 0.0010429 -7.97906e-06 0.00131098
8.21654 0 0.988324 0.00106944 -6.76018e-06 0.00135779
8.23267 0 1.01058 0.00109117 -6.70158e-06 0.00138806
8.24948 0 1.03376 0.00110981 -6.10704e-06 0.00140443
8.26697 0 1.0579 0.00112329 -6.38353e-06 0.00140613
8.2852 0 1.08303 0.00113197 -5.43813e-06 0.00139575
8.30417 0 1.1092 0.00113316 -5.37976e-06 0.00137561