# kMean  POINT_DATA 63840
# x  y  z  kMean
0 0.5 3.39583e-17 0.00375
0 0.5 -0.00617931 0.00375
0 0.5 0.00617931 0.00375
0.0124865 0.5 -0.00617931 0.0037503
0.0124865 0.5 0.00617931 0.0037503
0 0.5 -0.0688207 0.00375
0 0.5 0.0688207 0.00375
0.0124865 0.5 -0.0688207 0.0037503
0.0124865 0.5 0.0688207 0.0037503
0 0.5 -0.075 0.00375
0 0.5 0.075 0.00375
0 0.5 -0.0811793 0.00375
0 0.5 0.0811793 0.00375
0.0124865 0.5 -0.0811793 0.0037503
0.0124865 0.5 0.0811793 0.00375031
0.075776 0.5 -0.0375 0.0037518
0.075776 0.5 0.0375 0.00375182
0.075776 0.5 -0.1125 0.00375182
0.075776 0.5 0.1125 0.00375189
0 0.5 -0.143821 0.00375
0 0.5 0.143821 0.00375
0.0124865 0.5 -0.143821 0.0037503
0.0124865 0.5 0.143821 0.00375031
0 0.5 -0.15 0.00375
0 0.5 0.15 0.00375
0.151149 0.5 -0.00137318 0.00375399
0 0.5 -0.156179 0.00375
0 0.5 0.156179 0.00375
0.0124865 0.5 -0.156179 0.00375031
0.0124865 0.5 0.156179 0.00375033
0.151149 0.5 0.075 0.00375406
0.151149 0.5 -0.075 0.00375403
0.075776 0.5 -0.1875 0.0037519
0.075776 0.5 0.1875 0.00375203
0.151149 0.5 0.15 0.00375422
0.151149 0.5 -0.15 0.00375415
0 0.5 -0.218821 0.00375
0 0.5 0.218821 0.00375
0.0124865 0.5 -0.218821 0.00375031
0.0124865 0.5 0.218821 0.00375033
0.219992 0.5 0.0375 0.00375605
0.219993 0.5 -0.0375 0.00375604
0 0.5 -0.225 0.00375
0 0.5 0.225 0.00375
0 0.5 -0.231179 0.00375
0 0.5 0.231179 0.00375
0.0124865 0.5 -0.231179 0.00375033
0.0124865 0.5 0.231179 0.00375036
0.219992 0.5 0.1125 0.00375619
0.219993 0.5 -0.1125 0.00375615
0.151149 0.5 -0.225 0.00375437
0.151149 0.5 0.225 0.00375448
0.075776 0.5 -0.2625 0.00375204
0.075776 0.5 0.2625 0.0037522
0.288069 0.5 -0.00137318 0.00376046
0.219992 0.5 0.1875 0.00375648
0.219993 0.5 -0.1875 0.00375641
0 0.5 0.293821 0.00375
0 0.5 -0.293821 0.00375
0.0124865 0.5 -0.293821 0.00375033
0.0124865 0.5 0.293821 0.00375036
0.288069 0.5 -0.075 0.00376058
0.288069 0.5 0.075 0.00376053
0 0.5 -0.3 0.00375
0 0.5 0.3 0.00375
0 0.5 0.306179 0.00375
0 0.5 -0.306179 0.00375
0.0124865 0.5 -0.306179 0.00375036
0.0124865 0.5 0.306179 0.0037504
0.288069 0.5 -0.15 0.0037608
0.288069 0.5 0.15 0.00376071
0.151149 0.5 -0.3 0.00375467
0.151149 0.5 0.3 0.00375483
0.219992 0.5 -0.2625 0.00375681
0.219992 0.5 0.2625 0.00375691
0.075776 0.5 0.3375 0.00375241
0.075776 0.5 -0.3375 0.0037522
0.350249 0.5 -0.0375 0.00376468
0.350249 0.5 0.0375 0.00376462
0.288069 0.5 -0.225 0.00376116
0.288069 0.5 0.225 0.00376105
0.350249 0.5 0.1125 0.00376469
0.350249 0.5 -0.1125 0.00376486
0 0.5 0.368821 0.00375
0 0.5 -0.368821 0.00375
0.0124865 0.5 -0.368821 0.00375036
0.0124865 0.5 0.368821 0.0037504
0 0.5 -0.375 0.00375
0 0.5 0.375 0.00375
0 0.5 -0.381179 0.00375
0 0.5 0.381179 0.00375
0.0124865 0.5 -0.381179 0.00375039
0.0124865 0.5 0.381179 0.00375043
0.350249 0.5 -0.1875 0.00376519
0.350249 0.5 0.1875 0.00376493
0.219992 0.5 -0.3375 0.0037573
0.219992 0.5 0.3375 0.00375745
0.151149 0.5 -0.375 0.00375502
0.151149 0.5 0.375 0.00375522
0.411736 0.5 -0.00137318 0.00377157
0.288069 0.5 -0.3 0.00376164
0.288069 0.5 0.3 0.00376153
0.411736 0.5 -0.075 0.00377176
0.411736 0.5 0.075 0.00377158
0.075776 0.5 -0.4125 0.00375239
0.075776 0.5 0.4125 0.00375262
0.350249 0.5 -0.2625 0.00376567
0.350249 0.5 0.2625 0.00376533
0.411736 0.5 -0.15 0.003772
0.411736 0.5 0.15 0.00377165
0 0.5 -0.443821 0.00375
0 0.5 0.443821 0.00375
0.0124865 0.5 -0.443821 0.00375039
0.0124865 0.5 0.443821 0.00375043
0 0.5 -0.45 0.00375
0 0.5 0.45 0.00375
0 0.5 -0.456179 0.00375
0 0.5 0.456179 0.00375
0.0124865 0.5 -0.456179 0.00375043
0.0124865 0.5 0.456179 0.00375047
0.219992 0.5 -0.4125 0.00375782
0.219993 0.5 0.4125 0.00375804
0.411736 0.5 -0.225 0.00377235
0.411736 0.5 0.225 0.00377185
0.467897 0.5 0.0375 0.00377811
0.467897 0.5 -0.0375 0.00377823
0.288069 0.5 -0.375 0.00376217
0.288069 0.5 0.375 0.0037621
0.151149 0.5 -0.45 0.00375538
0.151149 0.5 0.45 0.00375563
0.467897 0.5 -0.1125 0.00377842
0.467897 0.5 0.1125 0.00377805
0.350249 0.5 0.3375 0.00376586
0.350249 0.5 -0.3375 0.00376622
0.075776 0.5 -0.4875 0.00375258
0.075776 0.5 0.4875 0.00375284
0.467897 0.5 -0.1875 0.0037787
0.467897 0.5 0.1875 0.00377809
0.411736 0.5 -0.3 0.00377277
0.411736 0.5 0.3 0.0037722
0 0.5 -0.518821 0.00375
0 0.5 0.518821 0.00375
0.0124865 0.5 0.518821 0.00375047
0.0124865 0.5 -0.518821 0.00375043
0.523432 0.5 -0.00137318 0.00378743
0 0.5 -0.525 0.00375
0 0.5 0.525 0.00375
0.523432 0.5 -0.075 0.00378763
0.523432 0.5 0.075 0.00378737
0 0.5 -0.531179 0.00375
0 0.5 0.531179 0.00375
0.0124865 0.5 -0.531179 0.00375046
0.0124865 0.5 0.531179 0.0037505
0.288069 0.5 -0.45 0.00376271
0.288069 0.5 0.45 0.00376272
0.219992 0.5 -0.4875 0.00375835
0.219993 0.5 0.4875 0.00375865
0.467897 0.5 -0.2625 0.00377902
0.467897 0.5 0.2625 0.00377826
0.350249 0.5 -0.4125 0.00376678
0.350249 0.5 0.4125 0.00376649
0.523432 0.5 -0.15 0.00378779
0.523432 0.5 0.15 0.00378726
0.151149 0.5 -0.525 0.00375574
0.151149 0.5 0.525 0.00375605
0.411736 0.5 -0.375 0.00377321
0.411736 0.5 0.375 0.00377266
0.075776 0.5 -0.5625 0.00375277
0.075776 0.5 0.5625 0.00375304
0.523432 0.5 -0.225 0.00378795
0.523432 0.5 0.225 0.0037872
0.574156 0.5 -0.0375 0.00379637
0.574156 0.5 0.0375 0.00379623
0.467897 0.5 0.3375 0.00377857
0.467897 0.5 -0.3375 0.00377937
0.574156 0.5 -0.1125 0.00379647
0.574156 0.5 0.1125 0.00379603
0 0.5 -0.593821 0.00375
0 0.5 0.593821 0.00375
0.0124865 0.5 -0.593821 0.00375046
0.0124865 0.5 0.593821 0.0037505
0.288069 0.5 -0.525 0.00376322
0.288069 0.5 0.525 0.00376335
0 0.5 -0.6 0.00375
0 0.5 0.6 0.00375
0.350249 0.5 -0.4875 0.00376731
0.350249 0.5 0.4875 0.00376715
0.523432 0.5 -0.3 0.00378808
0.523432 0.5 0.3 0.00378725
0.219992 0.5 -0.5625 0.00375886
0.219992 0.5 0.5625 0.00375925
0.574156 0.5 -0.1875 0.00379653
0.574156 0.5 0.1875 0.00379582
0 0.5 -0.606179 0.00375
0 0.5 0.606179 0.00375
0.0124865 0.5 -0.606179 0.00375048
0.0124865 0.5 0.606179 0.00375053
0.411736 0.5 -0.45 0.0037736
0.411736 0.5 0.45 0.00377317
0.151149 0.5 -0.6 0.00375607
0.151149 0.5 0.6 0.00375644
0.62168 0.5 2.64545e-17 0.00380701
0.467897 0.5 0.4125 0.00377895
0.467897 0.5 -0.4125 0.00377966
0.624316 0.5 0.0729402 0.00380752
0.624316 0.5 -0.075 0.00380776
0.574156 0.5 -0.2625 0.00379652
0.574157 0.5 0.2625 0.00379563
0.075776 0.5 -0.6375 0.00375293
0.075776 0.5 0.6375 0.00375323
0.624316 0.5 -0.15 0.00380769
0.624316 0.5 0.15 0.00380721
0.523432 0.5 -0.375 0.00378815
0.523432 0.5 0.375 0.00378737
0.350249 0.5 -0.5625 0.00376778
0.350249 0.5 0.5625 0.0037678
0.624316 0.5 -0.225 0.0038075
0.624316 0.5 0.225 0.00380683
0.288069 0.5 0.6 0.00376395
0.288069 0.5 -0.6 0.00376367
0.574156 0.5 -0.3375 0.00379643
0.574156 0.5 0.3375 0.00379553
0.411736 0.5 -0.525 0.00377392
0.411736 0.5 0.525 0.00377369
0 0.5 -0.668821 0.00375
0 0.5 0.668821 0.00375
0.0124865 0.5 -0.668821 0.00375048
0.0124865 0.5 0.668821 0.00375053
0.67013 0.5 0.0375 0.00381848
0.67013 0.5 -0.0375 0.00381856
0.219993 0.5 -0.6375 0.00375931
0.219993 0.5 0.6375 0.0037598
0 0.5 -0.675 0.00375
0 0.5 0.675 0.00375
0.467897 0.5 0.4875 0.00377935
0.467897 0.5 -0.4875 0.00377987
0.67013 0.5 -0.1125 0.00381845
0.67013 0.5 0.1125 0.00381816
0 0.5 -0.681179 0.00375
0 0.5 0.681179 0.00375
0.0124865 0.5 -0.681179 0.00375051
0.0124865 0.5 0.681179 0.00375056
0.523432 0.5 -0.45 0.00378811
0.523432 0.5 0.45 0.00378751
0.151149 0.5 -0.675 0.00375636
0.151149 0.5 0.675 0.00375679
0.624316 0.5 -0.3 0.00380715
0.624316 0.5 0.3 0.00380643
0.67013 0.5 0.1875 0.00381766
0.67013 0.5 -0.1875 0.00381816
0.574156 0.5 -0.4125 0.00379619
0.574157 0.5 0.4125 0.00379546
0.708171 0.5 1.88651e-17 0.00382956
0.075776 0.5 -0.7125 0.00375307
0.075776 0.5 0.7125 0.00375338
0.715434 0.5 0.0736268 0.00383124
0.715434 0.5 -0.075 0.00383158
0.67013 0.5 0.2625 0.00381705
0.67013 0.5 -0.2625 0.00381766
0.350249 0.5 -0.6375 0.00376816
0.350249 0.5 0.6375 0.00376841
0.411736 0.5 -0.6 0.00377414
0.411736 0.5 0.6 0.00377418
0.624316 0.5 -0.375 0.00380661
0.624316 0.5 0.375 0.00380605
0.715434 0.5 -0.15 0.00383117
0.715434 0.5 0.15 0.00383102
0.467897 0.5 -0.5625 0.00377996
0.467897 0.5 0.5625 0.00377973
0.288069 0.5 -0.675 0.00376404
0.288069 0.5 0.675 0.0037645
0.523432 0.5 -0.525 0.00378792
0.523432 0.5 0.525 0.00378764
0 0.5 -0.743821 0.00375
0 0.5 0.743821 0.00375
0.0124865 0.5 -0.743821 0.00375051
0.0124865 0.5 0.743821 0.00375056
0.219992 0.5 0.7125 0.00376029
0.219992 0.5 -0.7125 0.00375969
0.715434 0.5 -0.225 0.00383046
0.715434 0.5 0.225 0.00383027
0 0.5 -0.75 0.00375
0 0.5 0.75 0.00375
0.67013 0.5 0.3375 0.00381638
0.67013 0.5 -0.3375 0.00381689
0.574156 0.5 -0.4875 0.00379578
0.574156 0.5 0.4875 0.00379537
0 0.5 -0.756179 0.00375
0 0.5 0.756179 0.00375
0.0124865 0.5 -0.756179 0.00375052
0.0124865 0.5 0.756179 0.00375058
0.756813 0.5 -0.0375 0.00384424
0.756813 0.5 0.0375 0.00384428
0.151149 0.5 -0.75 0.00375659
0.151149 0.5 0.75 0.00375708
0.756813 0.5 -0.1125 0.00384382
0.756813 0.5 0.1125 0.00384389
0.624316 0.5 -0.45 0.00380587
0.624316 0.5 0.45 0.00380565
0.715434 0.5 -0.3 0.00382944
0.715434 0.5 0.3 0.00382935
0.756813 0.5 0.1875 0.00384311
0.756813 0.5 -0.1875 0.00384302
0.67013 0.5 -0.4125 0.00381588
0.67013 0.5 0.4125 0.00381573
0.411736 0.5 -0.675 0.00377423
0.411736 0.5 0.675 0.00377461
0.467897 0.5 0.6375 0.00378006
0.467897 0.5 -0.6375 0.00377991
0.075776 0.5 -0.7875 0.00375318
0.075776 0.5 0.7875 0.0037535
0.350249 0.5 -0.7125 0.00376843
0.350249 0.5 0.7125 0.00376894
0.523432 0.5 -0.6 0.00378758
0.523432 0.5 0.6 0.00378772
0.797732 0.5 2.68882e-17 0.00385888
0.756813 0.5 -0.2625 0.00384183
0.756814 0.5 0.2625 0.00384204
0.797732 0.5 0.0736268 0.00385863
0.797732 0.5 -0.075 0.00385848
0.288069 0.5 -0.75 0.00376431
0.288069 0.5 0.75 0.00376496
0.574156 0.5 -0.5625 0.00379519
0.574157 0.5 0.5625 0.00379522
0.715434 0.5 -0.375 0.00382809
0.715434 0.5 0.375 0.00382833
0.797732 0.5 -0.15 0.00385758
0.797732 0.5 0.15 0.00385808
0.624316 0.5 -0.525 0.0038049
0.624316 0.5 0.525 0.00380517
0.219992 0.5 -0.7875 0.00375998
0.219992 0.5 0.7875 0.00376069
0 0.5 -0.818821 0.00375
0 0.5 0.818821 0.00375
0.0124865 0.5 0.818821 0.00375058
0.0124865 0.5 -0.818821 0.00375052
0 0.5 -0.825 0.00375
0 0.5 0.825 0.00375
0.756813 0.5 0.3375 0.00384074
0.756814 0.5 -0.3375 0.00384023
0.67013 0.5 -0.4875 0.0038146
0.67013 0.5 0.4875 0.00381497
0.797732 0.5 -0.225 0.00385619
0.797732 0.5 0.225 0.00385694
0 0.5 -0.831179 0.00375
0 0.5 0.831179 0.00375
0.0124865 0.5 -0.831179 0.00375054
0.0124865 0.5 0.831179 0.00375059
0.835106 0.5 0.0375 0.00387301
0.835106 0.5 -0.0375 0.00387275
0.151149 0.5 -0.825 0.00375676
0.151149 0.5 0.825 0.00375731
0.835106 0.5 0.1125 0.00387257
0.835106 0.5 -0.1125 0.00387188
0.715434 0.5 -0.45 0.00382642
0.715434 0.5 0.45 0.00382722
0.797732 0.5 -0.3 0.00385435
0.797732 0.5 0.3 0.00385544
0.467897 0.5 0.7125 0.00378032
0.467897 0.5 -0.7125 0.00377972
0.523432 0.5 -0.675 0.00378708
0.523432 0.5 0.675 0.00378773
0.411736 0.5 -0.75 0.0037742
0.411736 0.5 0.75 0.00377495
0.835106 0.5 -0.1875 0.00387039
0.835106 0.5 0.1875 0.00387148
0.574156 0.5 -0.6375 0.00379441
0.574157 0.5 0.6375 0.00379501
0.350249 0.5 -0.7875 0.00376858
0.350249 0.5 0.7875 0.00376938
0.756813 0.5 -0.4125 0.00383825
0.756814 0.5 0.4125 0.00383931
0.075776 0.5 -0.8625 0.00375325
0.075776 0.5 0.8625 0.00375358
0.624316 0.5 0.6 0.0038046
0.624316 0.5 -0.6 0.00380373
0.872064 0.5 5.91974e-17 0.00388865
0.870122 0.5 0.075 0.00388768
0.288069 0.5 -0.825 0.00376447
0.288069 0.5 0.825 0.00376532
0.67013 0.5 -0.5625 0.00381308
0.67013 0.5 0.5625 0.00381409
0.872064 0.5 -0.075 0.00388794
0.835106 0.5 -0.2625 0.00386836
0.835106 0.5 0.2625 0.00386988
0.797732 0.5 -0.375 0.00385202
0.797732 0.5 0.375 0.00385367
0.872064 0.5 0.14794 0.00388792
0.872064 0.5 -0.15 0.00388654
0.715434 0.5 -0.525 0.00382445
0.715434 0.5 0.525 0.00382597
0.219992 0.5 0.8625 0.00376099
0.219993 0.5 -0.8625 0.00376017
0 0.5 -0.893821 0.00375
0 0.5 0.893821 0.00375
0.0124865 0.5 -0.893821 0.00375054
0.0124865 0.5 0.893821 0.00375059
0 0.5 -0.9 0.00375
0 0.5 0.9 0.00375
0.756813 0.5 -0.4875 0.0038359
0.756813 0.5 0.4875 0.00383776
0.872064 0.5 -0.225 0.0038844
0.872064 0.5 0.225 0.00388647
0.835106 0.5 -0.3375 0.00386584
0.835106 0.5 0.3375 0.00386789
0 0.5 0.906179 0.00375
0 0.5 -0.906179 0.00375
0.0124865 0.5 -0.906179 0.00375054
0.0124865 0.5 0.906179 0.0037506
0.90582 0.5 -0.0375 0.00390358
0.90582 0.5 0.0375 0.00390406
0.151149 0.5 -0.9 0.00375686
0.151149 0.5 0.9 0.00375747
0.90582 0.5 -0.1125 0.00390236
0.905821 0.5 0.1125 0.00390376
0.523432 0.5 -0.75 0.00378642
0.523432 0.5 0.75 0.00378765
0.574156 0.5 -0.7125 0.00379347
0.574156 0.5 0.7125 0.0037947
0.797732 0.5 -0.45 0.00384923
0.797732 0.5 0.45 0.00385172
0.467897 0.5 0.7875 0.00378047
0.467897 0.5 -0.7875 0.00377938
0.624316 0.5 -0.675 0.00380236
0.624316 0.5 0.675 0.00380393
0.411736 0.5 -0.825 0.00377402
0.411736 0.5 0.825 0.00377517
0.872064 0.5 0.3 0.00388438
0.872064 0.5 -0.3 0.00388159
0.67013 0.5 -0.6375 0.00381132
0.67013 0.5 0.6375 0.00381309
0.90582 0.5 0.1875 0.00390265
0.905821 0.5 -0.1875 0.00390034
0.350249 0.5 -0.8625 0.00376859
0.350249 0.5 0.8625 0.00376969
0.835106 0.5 -0.4125 0.00386268
0.835106 0.5 0.4125 0.00386558
0.715434 0.5 -0.6 0.0038222
0.715434 0.5 0.6 0.00382456
0.939201 0.5 2.75387e-17 0.00391945
0.075776 0.5 0.9375 0.00375363
0.075776 0.5 -0.9375 0.00375329
0.939111 0.5 0.075 0.00391963
0.939201 0.5 -0.075 0.00391843
0.756813 0.5 0.5625 0.00383599
0.756814 0.5 -0.5625 0.00383322
0.90582 0.5 0.2625 0.00390067
0.905821 0.5 -0.2625 0.00389737
0.288069 0.5 -0.9 0.00376451
0.288069 0.5 0.9 0.00376557
0.872064 0.5 -0.375 0.00387813
0.872064 0.5 0.375 0.00388178
0.939201 0.5 0.148627 0.00391889
0.939201 0.5 -0.15 0.00391657
0.797732 0.5 -0.525 0.00384606
0.797732 0.5 0.525 0.00384957
0.219992 0.5 0.9375 0.00376119
0.219992 0.5 -0.9375 0.00376027
0.939201 0.5 -0.225 0.00391376
0.939201 0.5 0.225 0.00391746
0.905821 0.5 -0.3375 0.00389367
0.90582 0.5 0.3375 0.0038979
0.835106 0.5 -0.4875 0.00385907
0.835106 0.5 0.4875 0.00386311
0 0.5 0.968821 0.00375
0 0.5 -0.968821 0.00375
0.0124865 0.5 -0.968821 0.00375054
0.0124865 0.5 0.968821 0.0037506
0.969689 0.5 -0.0375 0.00393416
0.969689 0.5 0.0375 0.00393493
0.574156 0.5 -0.7875 0.00379236
0.574156 0.5 0.7875 0.00379429
0 0.5 -0.975 0.00375
0 0.5 0.975 0.00375
0.624316 0.5 -0.75 0.00380081
0.624316 0.5 0.75 0.00380316
0.969689 0.5 -0.1125 0.00393256
0.96969 0.5 0.1125 0.0039348
0.523432 0.5 -0.825 0.00378561
0.523432 0.5 0.825 0.00378745
0.67013 0.5 0.7125 0.00381199
0.67013 0.5 -0.7125 0.00380937
0 0.5 -0.981179 0.00375
0 0.5 0.981179 0.00375
0.467897 0.5 0.8625 0.00378049
0.467897 0.5 -0.8625 0.0037789
0.0124865 0.5 -0.981179 0.00375055
0.0124865 0.5 0.981179 0.0037506
0.872064 0.5 -0.45 0.00387408
0.872064 0.5 0.45 0.00387887
0.715434 0.5 -0.675 0.00381973
0.715434 0.5 0.675 0.003823
0.939201 0.5 -0.3 0.00391004
0.939201 0.5 0.3 0.00391499
0.151149 0.5 0.975 0.00375757
0.151149 0.5 -0.975 0.00375691
0.969689 0.5 -0.1875 0.00392998
0.969689 0.5 0.1875 0.00393375
0.756813 0.5 -0.6375 0.00383026
0.756813 0.5 0.6375 0.00383403
0.411736 0.5 -0.9 0.00377371
0.411736 0.5 0.9 0.00377527
0.90582 0.5 -0.4125 0.00388926
0.90582 0.5 0.4125 0.00389459
0.995005 0.5 0.0749309 0.0039465
0.797732 0.5 -0.6 0.00384254
0.797732 0.5 0.6 0.00384716
1.00005 0.5 -8.47123e-18 0.00394865
0.350249 0.5 -0.9375 0.00376848
0.350249 0.5 0.9375 0.00376986
1.00005 0.5 -0.0749309 0.00394733
0.969689 0.5 -0.2625 0.00392635
0.969689 0.5 0.2625 0.0039317
0.835106 0.5 -0.5625 0.00385506
0.835106 0.5 0.5625 0.00386033
1.00005 0.5 -0.149862 0.00394507
0.939201 0.5 -0.375 0.00390539
0.939201 0.5 0.375 0.00391167
1.00029 0.5 0.148988 0.00394826
0.075776 0.5 -1.0125 0.00375331
0.075776 0.5 1.0125 0.00375365
0.288069 0.5 0.975 0.0037657
0.288069 0.5 -0.975 0.00376444
0.872064 0.5 -0.525 0.00386955
0.872064 0.5 0.525 0.00387569
1.00005 0.5 0.224793 0.00394707
1.00005 0.5 -0.224793 0.00394177
0.969689 0.5 0.3375 0.00392863
0.96969 0.5 -0.3375 0.00392177
1.0271 0.5 -0.0368226 0.0039636
1.0271 0.5 0.0368226 0.00396459
0.90582 0.5 0.4875 0.00389106
0.905821 0.5 -0.4875 0.00388432
1.0271 0.5 -0.110468 0.00396167
1.0271 0.5 0.110468 0.0039663
0.67013 0.5 0.7875 0.00381077
0.67013 0.5 -0.7875 0.00380724
0.624316 0.5 0.825 0.00380228
0.624316 0.5 -0.825 0.00379911
0.219993 0.5 -1.0125 0.00376028
0.219993 0.5 1.0125 0.00376129
0.574156 0.5 -0.8625 0.0037911
0.574156 0.5 0.8625 0.00379376
0.715434 0.5 -0.75 0.00381705
0.715434 0.5 0.75 0.00382132
0.756813 0.5 0.7125 0.00383192
0.756814 0.5 -0.7125 0.00382708
0.523432 0.5 -0.9 0.00378466
0.523432 0.5 0.9 0.00378712
0.939201 0.5 -0.45 0.00389986
0.939201 0.5 0.45 0.00390771
1.04168 0.5 0 0.00397204
1.0271 0.5 -0.184113 0.00395871
1.0271 0.5 0.184113 0.00396377
0 0.5 -1.04382 0.00375
0 0.5 1.04382 0.00375
0.0124865 0.5 -1.04382 0.00375055
0.0124865 0.5 1.04382 0.0037506
1.00005 0.5 -0.299723 0.00393744
1.00005 0.5 0.299723 0.00394455
1.04168 0.5 -0.0729162 0.00397051
1.04168 0.5 0.0729162 0.00397263
0.797732 0.5 -0.675 0.00383876
0.797732 0.5 0.675 0.00384454
0.467897 0.5 0.9375 0.00378038
0.467897 0.5 -0.9375 0.00377827
0 0.5 -1.05 0.00375
0 0.5 1.05 0.00375
0.835106 0.5 -0.6375 0.00385072
0.835106 0.5 0.6375 0.00385726
1.04168 0.5 -0.145832 0.00396797
1.04168 0.5 0.145832 0.00397229
0.969689 0.5 -0.4125 0.00391589
0.96969 0.5 0.4125 0.00392449
0 0.5 -1.05618 0.00375
0 0.5 1.05618 0.00375
0.0124865 0.5 -1.05618 0.00375055
0.0124865 0.5 1.05618 0.0037506
1.05695 0.5 -0.0360764 0.0039795
1.05695 0.5 0.0360764 0.00398061
0.411736 0.5 -0.975 0.00377326
0.411736 0.5 0.975 0.00377522
0.872064 0.5 -0.6 0.00386456
0.872064 0.5 0.6 0.00387218
1.0271 0.5 -0.257759 0.00395469
1.0271 0.5 0.257759 0.00396185
0.151149 0.5 -1.05 0.00375688
0.151149 0.5 1.05 0.00375759
1.05695 0.5 0.108229 0.00398246
1.05695 0.5 -0.108229 0.00397738
1.04168 0.5 -0.218749 0.00396439
1.04168 0.5 0.218749 0.00397093
0.90582 0.5 -0.5625 0.0038788
0.905821 0.5 0.5625 0.00388717
1.00005 0.5 -0.374654 0.00393191
1.00005 0.5 0.374654 0.00394093
0.350249 0.5 1.0125 0.0037699
0.350249 0.5 -1.0125 0.00376823
1.05695 0.5 -0.180382 0.00397423
1.05695 0.5 0.180382 0.00398003
1.07319 0.5 0.0709442 0.00399046
0.939201 0.5 -0.525 0.00389373
0.939201 0.5 0.525 0.00390331
1.0271 0.5 -0.331404 0.00394961
1.0271 0.5 0.331404 0.00395886
1.08112 0.5 3.23815e-17 0.00399413
1.04168 0.5 -0.291665 0.00395974
1.04168 0.5 0.291665 0.00396852
1.08112 0.5 -0.0709442 0.00399238
0.969689 0.5 -0.4875 0.00390909
0.96969 0.5 0.4875 0.00391966
1.05695 0.5 0.252535 0.00397821
1.05695 0.5 -0.252535 0.00397001
0.288069 0.5 -1.05 0.00376426
0.288069 0.5 1.05 0.0037657
0.075776 0.5 -1.0875 0.0037533
0.075776 0.5 1.0875 0.00375363
1.08112 0.5 -0.141888 0.00398959
1.08145 0.5 0.140165 0.0039942
0.715434 0.5 0.825 0.00381952
0.715434 0.5 -0.825 0.00381423
0.756813 0.5 0.7875 0.00382967
0.756814 0.5 -0.7875 0.00382371
0.67013 0.5 -0.8625 0.00380497
0.67013 0.5 0.8625 0.00380944
0.797732 0.5 -0.75 0.00383476
0.797732 0.5 0.75 0.00384176
0.624316 0.5 -0.9 0.00379726
0.624316 0.5 0.9 0.00380127
1.00005 0.5 -0.449585 0.00392521
1.00005 0.5 0.449585 0.00393634
0.835106 0.5 -0.7125 0.00384611
0.835106 0.5 0.7125 0.00385398
0.574156 0.5 -0.9375 0.00378969
0.574157 0.5 0.9375 0.00379309
1.10076 0.5 -0.0349809 0.00400509
1.10076 0.5 0.0349809 0.00400641
1.08112 0.5 -0.212832 0.00398572
1.08112 0.5 0.212832 0.0039935
0.872064 0.5 -0.675 0.00385924
0.872064 0.5 0.675 0.00386838
1.04168 0.5 -0.364581 0.00395387
1.04168 0.5 0.364581 0.00396499
1.0271 0.5 0.405049 0.0039547
1.0271 0.5 -0.405049 0.00394316
1.05695 0.5 -0.324688 0.00396472
1.05695 0.5 0.324688 0.00397532
1.10076 0.5 -0.104943 0.00400269
1.10076 0.5 0.104943 0.00400679
0.523432 0.5 0.975 0.00378664
0.523432 0.5 -0.975 0.00378356
0.90582 0.5 0.6375 0.00388293
0.905821 0.5 -0.6375 0.00387277
0.219992 0.5 1.0875 0.00376128
0.219992 0.5 -1.0875 0.00376019
1.11376 0.5 3.81639e-17 0.00401368
0.939201 0.5 0.6 0.00389847
0.939201 0.5 -0.6 0.00388717
1.10076 0.5 -0.174905 0.00399923
1.10076 0.5 0.174905 0.00400619
0.467897 0.5 -1.0125 0.00377749
0.467897 0.5 1.0125 0.00378011
1.11376 0.5 -0.0693118 0.00401174
1.11376 0.5 0.0693118 0.0040146
1.08112 0.5 0.283777 0.00399122
1.08112 0.5 -0.283777 0.00398079
0 0.5 -1.11882 0.00375
0 0.5 1.11882 0.00375
0.0124865 0.5 -1.11882 0.00375055
0.0124865 0.5 1.11882 0.0037506
0.969689 0.5 -0.5625 0.00390187
0.969689 0.5 0.5625 0.00391436
1.11376 0.5 0.138624 0.00401449
1.11376 0.5 -0.138624 0.00400871
0 0.5 -1.125 0.00375
0 0.5 1.125 0.00375
1.10076 0.5 0.244866 0.00400452
1.10076 0.5 -0.244866 0.00399469
0.411736 0.5 -1.05 0.00377268
0.411736 0.5 1.05 0.00377503
1.05695 0.5 -0.396841 0.00395803
1.05695 0.5 0.396841 0.00397124
1.00005 0.5 -0.524516 0.00391781
1.00005 0.5 0.524516 0.00393105
1.04168 0.5 -0.437497 0.00394676
1.04168 0.5 0.437497 0.00396037
0 0.5 -1.13118 0.00375
0 0.5 1.13118 0.00375
0.0124865 0.5 -1.13118 0.00375054
0.0124865 0.5 1.13118 0.00375059
1.11376 0.5 -0.207935 0.0040046
1.11376 0.5 0.207935 0.00401346
1.0271 0.5 -0.478694 0.00393569
1.0271 0.5 0.478694 0.00394961
0.151149 0.5 -1.125 0.0037568
0.151149 0.5 1.125 0.00375754
1.08112 0.5 -0.354722 0.00397462
1.08112 0.5 0.354722 0.00398781
1.13882 0.5 -0.0340295 0.00402855
1.13882 0.5 0.0340295 0.00403009
0.350249 0.5 -1.0875 0.00376786
0.350249 0.5 1.0875 0.0037698
1.13882 0.5 -0.102088 0.00402587
1.13882 0.5 0.102088 0.00403157
1.10076 0.5 -0.314829 0.00398907
1.10076 0.5 0.314829 0.00400177
0.756813 0.5 -0.8625 0.00382021
0.756814 0.5 0.8625 0.00382732
0.797732 0.5 -0.825 0.00383061
0.797732 0.5 0.825 0.00383886
1.11376 0.5 -0.277247 0.00399941
1.11376 0.5 0.277247 0.00401129
0.835106 0.5 0.7875 0.00385055
0.835106 0.5 -0.7875 0.00384134
0.715434 0.5 -0.9 0.00381127
0.715434 0.5 0.9 0.00381761
0.872064 0.5 -0.75 0.00385372
0.872064 0.5 0.75 0.00386433
1.13882 0.5 0.170147 0.0040302
1.13882 0.5 -0.170147 0.0040221
0.67013 0.5 -0.9375 0.00380258
0.67013 0.5 0.9375 0.00380799
0.905821 0.5 -0.7125 0.00386655
0.905821 0.5 0.7125 0.00387835
1.05695 0.5 0.468994 0.00396614
1.05695 0.5 -0.468994 0.00395029
0.939201 0.5 -0.675 0.00388028
0.939201 0.5 0.675 0.00389332
0.624316 0.5 0.975 0.00380013
0.624316 0.5 -0.975 0.00379529
1.04168 0.5 -0.510414 0.0039389
1.04168 0.5 0.510414 0.00395489
0.969689 0.5 -0.6375 0.00389449
0.96969 0.5 0.6375 0.00390851
0.288069 0.5 -1.125 0.00376397
0.288069 0.5 1.125 0.00376559
1.16179 0.5 5.78241e-19 0.00404474
1.08112 0.5 0.425666 0.00398327
1.08112 0.5 -0.425666 0.0039672
1.13882 0.5 -0.238206 0.00401724
1.13882 0.5 0.238206 0.00402867
1.16179 0.5 0.0669104 0.00404842
1.16179 0.5 -0.0669104 0.00404246
0.574156 0.5 -1.0125 0.00378816
0.574156 0.5 1.0125 0.00379227
0.075776 0.5 -1.1625 0.00375325
0.075776 0.5 1.1625 0.00375358
1.00005 0.5 -0.599447 0.00390994
1.00005 0.5 0.599447 0.003925
1.10076 0.5 0.384791 0.00399784
1.10076 0.5 -0.384791 0.00398205
1.0271 0.5 -0.55234 0.0039277
1.0271 0.5 0.55234 0.00394376
1.11376 0.5 -0.346559 0.00399298
1.11376 0.5 0.346559 0.00400798
1.16179 0.5 -0.133821 0.00403903
1.16179 0.5 0.133821 0.00404644
0.523432 0.5 -1.05 0.00378234
0.523432 0.5 1.05 0.00378602
1.17463 0.5 -0.0331343 0.00405181
1.17463 0.5 0.0331343 0.00405356
1.17463 0.5 -0.0994029 0.00404885
1.17463 0.5 0.0994029 0.00405427
1.16179 0.5 -0.200731 0.00403449
1.16179 0.5 0.200731 0.00404519
1.13882 0.5 -0.306265 0.00401127
1.13882 0.5 0.306265 0.00402603
0.219992 0.5 -1.1625 0.00376
0.219992 0.5 1.1625 0.00376116
0.467897 0.5 -1.0875 0.00377659
0.467897 0.5 1.0875 0.0037797
1.17463 0.5 0.165672 0.00405399
1.17463 0.5 -0.165672 0.00404476
1.05695 0.5 -0.541147 0.00394209
1.05695 0.5 0.541147 0.00396026
1.18772 0.5 -5.78241e-19 0.00406176
1.11376 0.5 -0.41587 0.00398529
1.11376 0.5 0.41587 0.00400352
1.18772 0.5 -0.065614 0.00405929
1.18772 0.5 0.065614 0.00406312
1.08112 0.5 -0.49661 0.00395903
1.08112 0.5 0.49661 0.00397778
1.10076 0.5 -0.454752 0.00397393
1.10076 0.5 0.454752 0.00399278
1.18534 0.5 0.118202 0.00406334
1.16179 0.5 -0.267642 0.00402885
1.16179 0.5 0.267642 0.00404317
0 0.5 -1.19382 0.00375
0 0.5 1.19382 0.00375
0.0124865 0.5 1.19382 0.00375059
0.0124865 0.5 -1.19382 0.00375054
1.04168 0.5 -0.58333 0.00393043
1.04168 0.5 0.58333 0.00394844
1.18772 0.5 -0.131228 0.00405564
1.17463 0.5 -0.23194 0.00403957
1.17463 0.5 0.23194 0.00405258
0.411736 0.5 -1.125 0.00377198
0.411736 0.5 1.125 0.00377472
1.13882 0.5 -0.374324 0.00400393
1.13882 0.5 0.374324 0.00402221
0 0.5 -1.2 0.00375
0 0.5 1.2 0.00375
0.905821 0.5 0.7875 0.00387351
0.905821 0.5 -0.7875 0.00386013
0.872064 0.5 -0.825 0.00384806
0.872064 0.5 0.825 0.0038601
0.835106 0.5 0.8625 0.00384701
0.835106 0.5 -0.8625 0.00383644
0.939201 0.5 -0.75 0.00387312
0.939201 0.5 0.75 0.00388796
0.797732 0.5 -0.9 0.00382636
0.797732 0.5 0.9 0.00383585
1.0271 0.5 0.625985 0.00393683
1.0271 0.5 -0.625985 0.00391899
0.969689 0.5 0.7125 0.00390263
0.96969 0.5 -0.7125 0.00388659
1.18772 0.5 -0.196842 0.00405087
1.18772 0.5 0.196842 0.00406255
0.756814 0.5 -0.9375 0.0038166
0.756814 0.5 0.9375 0.00382486
0 0.5 1.20618 0.00375
0 0.5 -1.20618 0.00375
1.00005 0.5 -0.674378 0.00390153
1.00005 0.5 0.674378 0.00391852
0.0124865 0.5 1.20618 0.00375058
0.0124865 0.5 -1.20618 0.00375053
1.16179 0.5 -0.334552 0.00402196
1.16179 0.5 0.334552 0.00404001
0.715434 0.5 0.975 0.00381558
0.715434 0.5 -0.975 0.0038082
0.151149 0.5 -1.2 0.00375665
0.151149 0.5 1.2 0.00375742
1.20942 0.5 0.0322645 0.00407837
1.20942 0.5 -0.0322645 0.00407605
1.17463 0.5 -0.298209 0.00403327
1.17463 0.5 0.298209 0.00405003
1.20942 0.5 -0.0967935 0.00407278
1.20942 0.5 0.0967935 0.00407893
0.350249 0.5 -1.1625 0.00376737
0.350249 0.5 1.1625 0.00376959
0.67013 0.5 1.0125 0.0038064
0.67013 0.5 -1.0125 0.00380007
1.11376 0.5 0.485183 0.00399805
1.11376 0.5 -0.485183 0.00397686
1.18772 0.5 0.262456 0.0040606
1.18772 0.5 -0.262456 0.00404498
1.10076 0.5 -0.524714 0.00396541
1.10076 0.5 0.524714 0.00398689
1.20942 0.5 -0.161322 0.00406834
1.20942 0.5 0.161322 0.0040788
1.08112 0.5 -0.567554 0.00395025
1.08112 0.5 0.567554 0.00397131
0.624316 0.5 -1.05 0.0037932
0.624316 0.5 1.05 0.00379886
1.13882 0.5 -0.442383 0.0039955
1.13882 0.5 0.442383 0.00401724
1.05695 0.5 0.6133 0.00395322
1.05695 0.5 -0.6133 0.00393309
1.16179 0.5 -0.401463 0.00401381
1.16179 0.5 0.401463 0.00403566
0.574156 0.5 -1.0875 0.00378652
0.574156 0.5 1.0875 0.00379132
1.17463 0.5 0.364477 0.00404631
1.17463 0.5 -0.364477 0.00402558
1.20942 0.5 -0.225851 0.00406279
1.20942 0.5 0.225851 0.00407751
1.23036 0.5 -1.32995e-17 0.00409303
1.2294 0.5 0.0634819 0.00409433
1.04168 0.5 -0.656246 0.00392122
1.04168 0.5 0.656246 0.00394128
1.23036 0.5 -0.0634819 0.00409018
1.18772 0.5 0.32807 0.00405749
1.18772 0.5 -0.32807 0.00403783
0.288069 0.5 -1.2 0.00376358
0.288069 0.5 1.2 0.00376535
1.23036 0.5 -0.126964 0.00408609
1.23036 0.5 0.126964 0.00409512
0.075776 0.5 -1.2375 0.00375317
0.075776 0.5 1.2375 0.0037535
0.523432 0.5 -1.125 0.00378101
0.523432 0.5 1.125 0.00378529
1.0271 0.5 -0.69963 0.00390959
1.0271 0.5 0.69963 0.0039297
1.24274 0.5 0.0314313 0.00410313
1.24274 0.5 -0.0314313 0.00410086
1.20942 0.5 0.29038 0.00407504
1.20942 0.5 -0.29038 0.00405608
1.11376 0.5 -0.554494 0.00396785
1.11376 0.5 0.554494 0.00399159
1.23036 0.5 -0.190445 0.00408083
1.23036 0.5 0.190445 0.00409451
1.24274 0.5 -0.0942942 0.00409727
1.24274 0.5 0.0942942 0.00410419
1.13882 0.5 0.510442 0.00401132
1.13882 0.5 -0.510442 0.00398665
0.969689 0.5 -0.7875 0.00387856
0.969689 0.5 0.7875 0.00389654
1.00005 0.5 -0.749309 0.00389277
1.00005 0.5 0.749309 0.00391189
0.939201 0.5 -0.825 0.00386585
0.939201 0.5 0.825 0.00388237
0.90582 0.5 0.8625 0.00386848
0.90582 0.5 -0.8625 0.00385362
1.17463 0.5 -0.430746 0.00401675
1.17463 0.5 0.430746 0.00404137
1.10076 0.5 -0.594676 0.00395611
1.10076 0.5 0.594676 0.00397987
1.18772 0.5 -0.393684 0.00402942
1.18772 0.5 0.393684 0.00405318
1.24274 0.5 -0.157157 0.00409245
1.24274 0.5 0.157157 0.00410422
1.16179 0.5 -0.468373 0.00400492
1.16179 0.5 0.468373 0.00403022
0.467897 0.5 -1.1625 0.0037756
0.467897 0.5 1.1625 0.00377919
0.872064 0.5 -0.9 0.00384232
0.872064 0.5 0.9 0.00385576
1.25401 0.5 2.08167e-17 0.00411031
0.835106 0.5 0.9375 0.00384338
0.835106 0.5 -0.9375 0.0038315
1.25401 0.5 -0.0622994 0.00410727
1.25401 0.5 0.0622994 0.00411227
1.08112 0.5 -0.638498 0.00394072
1.08112 0.5 0.638498 0.00396399
1.23036 0.5 -0.253927 0.00407442
1.23036 0.5 0.253927 0.0040927
0.219992 0.5 1.2375 0.00376093
0.219992 0.5 -1.2375 0.00375972
1.25309 0.5 0.121964 0.00411267
1.05695 0.5 0.685452 0.00394579
1.05695 0.5 -0.685452 0.00392338
0.797732 0.5 0.975 0.00383275
0.797732 0.5 -0.975 0.00382205
1.25401 0.5 -0.124599 0.00410292
1.20942 0.5 -0.354909 0.004048
1.20942 0.5 0.354909 0.00407138
1.24274 0.5 -0.220019 0.0040865
1.24274 0.5 0.220019 0.00410304
0.756814 0.5 -1.0125 0.00381292
0.756813 0.5 1.0125 0.00382229
1.25401 0.5 -0.186898 0.00409739
1.25401 0.5 0.186898 0.00411214
0.411736 0.5 -1.2 0.00377117
0.411736 0.5 1.2 0.00377428
0 0.5 -1.26882 0.00375
0 0.5 1.26882 0.00375
0.0124865 0.5 1.26882 0.00375058
0.0124865 0.5 -1.26882 0.00375053
0.715434 0.5 -1.05 0.00380507
0.715434 0.5 1.05 0.00381344
1.23036 0.5 -0.31741 0.00406674
1.23036 0.5 0.31741 0.00408967
1.04168 0.5 -0.729162 0.00391141
1.04168 0.5 0.729162 0.00393384
1.18772 0.5 -0.459298 0.00402026
1.18772 0.5 0.459298 0.00404774
1.24274 0.5 -0.282882 0.00407937
1.24274 0.5 0.282882 0.00410064
0 0.5 -1.275 0.00375
0 0.5 1.275 0.00375
1.27472 0.5 -0.0306319 0.00412644
1.27472 0.5 0.0306319 0.00412901
1.17463 0.5 0.497015 0.00403544
1.17463 0.5 -0.497015 0.00400757
1.11376 0.5 -0.623806 0.0039581
1.11376 0.5 0.623806 0.00398423
1.13882 0.5 -0.578501 0.00397707
1.13882 0.5 0.578501 0.00400436
0.67013 0.5 -1.0875 0.00379747
0.67013 0.5 1.0875 0.0038047
1.27472 0.5 -0.0918959 0.00412249
1.27472 0.5 0.0918959 0.00412714
1.25401 0.5 -0.249197 0.00409069
1.25401 0.5 0.249197 0.00411038
1.16179 0.5 -0.535284 0.0039955
1.16179 0.5 0.535284 0.00402378
1.20942 0.5 -0.419438 0.00403876
1.20942 0.5 0.419438 0.00406649
0 0.5 -1.28118 0.00375
0 0.5 1.28118 0.00375
0.0124865 0.5 1.28118 0.00375056
0.0124865 0.5 -1.28118 0.00375051
1.27472 0.5 0.15316 0.00413044