# kMean  POINT_DATA 91129
# x  y  z  kMean
0 0 0 0.00558573
0 0.00368111 0 0.00375
0 0.00749587 0 0.00375
0 0.0114491 0 0.00375
0 0.0155459 0 0.00375
0 0.0197915 0 0.00375
0 0.0241911 0 0.00375
0 0.0287506 0 0.00375
0 0.0334755 0 0.00375
0 0.038372 0 0.00375
0 0.0434463 0 0.00375
0 0.0487048 0 0.00375
0 0.0541543 0 0.00375
0 0.0598016 0 0.00375
0 0.0656539 0 0.00375
0 0.0717187 0 0.00375
0.075776 0.00184055 0 0.00971959
0.075776 0.00558849 0 0.0033966
0.075776 0.00947248 -3.46945e-18 0.0030499
0.075776 0.0134975 -3.46945e-18 0.00342377
0.075776 0.0176687 3.46945e-18 0.00358685
0 0.0780037 0 0.00375
0.075776 0.0219913 3.46945e-18 0.00365018
0.075776 0.0264709 3.46945e-18 0.00368236
0.075776 0.031113 -3.46945e-18 0.00370087
0.075776 0.0359237 -3.46945e-18 0.00371261
0 0.0845169 0 0.00375
0.075776 0.0409092 0 0.0037206
0.075776 0.0460755 -3.46945e-18 0.00372632
0 0.0912666 0 0.00375
0.075776 0.0514296 -3.46945e-18 0.00373058
0.075776 0.0569779 0 0.00373383
0 0.0982613 0 0.00375
0.075776 0.0627278 0 0.00373644
0.075776 0.0686863 0 0.00373864
0 0.10551 0 0.00375
0.075776 0.0748612 3.46945e-18 0.00374054
0.075776 0.0812603 -3.46945e-18 0.00374215
0 0.113022 0 0.00375
0.075776 0.0878918 3.46945e-18 0.00374352
0 0.120806 0 0.00375
0.075776 0.0947639 3.46945e-18 0.00374466
0.075776 0.101886 -3.46945e-18 0.00374562
0 0.128874 0 0.00375
0.075776 0.109266 3.46945e-18 0.00374642
0 0.137234 0 0.00375
0.075776 0.116914 3.46945e-18 0.00374707
0 0.145897 0 0.00375
0.075776 0.12484 0 0.00374762
0.151552 0 0 0.00605666
0.151552 0.00368111 0 0.00426666
0.151552 0.00749587 0 0.0025837
0.151552 0.0114491 0 0.0029375
0.151552 0.0155459 0 0.00330292
0.151552 0.0197915 0 0.00347763
0.075776 0.133054 0 0.00374808
0.151552 0.0241911 0 0.00356544
0.151552 0.0287506 0 0.00361738
0 0.154876 0 0.00375
0.151552 0.0334755 0 0.00365074
0.151552 0.038372 0 0.00367339
0.151552 0.0434463 0 0.00368943
0.151552 0.0487048 0 0.00370123
0.075776 0.141566 0 0.00374847
0.151552 0.0541543 0 0.00371018
0.151552 0.0598016 0 0.00371715
0 0.16418 0 0.00375
0.151552 0.0656539 0 0.00372272
0.151552 0.0717187 0 0.00372727
0.075776 0.150387 0 0.00374882
0.151552 0.0780037 0 0.00373103
0.151552 0.0845169 0 0.00373416
0 0.173822 0 0.00375
0.075776 0.159528 0 0.00374914
0.151552 0.0912666 0 0.00373676
0.151552 0.0982613 0 0.00373894
0 0.183814 0 0.00375
0.151552 0.10551 0 0.00374078
0.075776 0.169001 3.46945e-18 0.00374945
0.151552 0.113022 0 0.00374236
0.151552 0.120806 0 0.00374373
0 0.194169 0 0.00375
0.075776 0.178818 3.46945e-18 0.00374975
0.151552 0.128874 0 0.00374491
0.075776 0.188992 3.46945e-18 0.00375005
0.151552 0.137234 0 0.00374591
0 0.2049 0 0.00375
0.151552 0.145897 0 0.00374676
0.075776 0.199535 0 0.00375035
0 0.21602 0 0.00375
0.151552 0.154876 0 0.00374748
0.219992 0.00184055 0 0.00267563
0.219992 0.00558849 0 0.00162726
0.219992 0.00947248 -3.46945e-18 0.00235944
0.219992 0.0134975 3.46945e-18 0.00296293
0.219992 0.0176687 0 0.00326929
0.219992 0.0219913 0 0.00342586
0.219993 0.0264709 -3.46945e-18 0.00351889
0.219992 0.031113 -3.46945e-18 0.00357881
0.219992 0.0359238 3.46945e-18 0.00361929
0.151552 0.16418 0 0.00374811
0.075776 0.21046 0 0.00375065
0.219992 0.0409092 3.46945e-18 0.0036477
0.219992 0.0460755 0 0.00366835
0.219993 0.0514296 -3.46945e-18 0.00368386
0.219992 0.0569779 0 0.00369582
0 0.227544 0 0.00375
0.219992 0.0627277 3.46945e-18 0.00370525
0.219992 0.0686863 0 0.00371282
0.151552 0.173822 0 0.00374867
0.219992 0.0748612 3.46945e-18 0.00371898
0.075776 0.221782 0 0.00375094
0.219992 0.0812603 3.46945e-18 0.00372405
0.219992 0.0878917 -3.46945e-18 0.00372825
0.151552 0.183814 0 0.00374919
7.47806e-17 0.239487 0 0.00375
0.219992 0.0947639 3.46945e-18 0.00373174
0.219993 0.101886 3.46945e-18 0.00373468
0.075776 0.233516 0 0.00375121
0.219993 0.109266 0 0.00373721
0.151552 0.194169 0 0.00374967
0.219993 0.116914 0 0.00373942
0 0.251863 0 0.00375
0.219993 0.12484 0 0.00374136
0.151552 0.2049 0 0.00375013
0.075776 0.245675 0 0.00375143
0.219992 0.133054 3.46945e-18 0.00374303
0.219992 0.141565 0 0.00374443
0.151552 0.21602 0 0.00375055
0 0.264688 0 0.00375
0.219992 0.150387 3.46945e-18 0.0037456
0.075776 0.258275 3.46945e-18 0.0037516
0.219992 0.159528 -3.46945e-18 0.00374659
0.151552 0.227544 0 0.00375095
0.219992 0.169001 3.46945e-18 0.00374744
0 0.27798 0 0.00375
0.075776 0.271334 3.46945e-18 0.0037517
0.151552 0.239487 3.70071e-18 0.00375131
0.219992 0.178818 3.46945e-18 0.00374819
0.288433 0 0 0.0017907
0.288433 0.00368111 0 0.0015418
0.288433 0.00749587 0 0.00179107
0.288433 0.0114491 0 0.0026038
0.288433 0.0155459 3.70071e-18 0.00307232
0.288433 0.0197915 0 0.00329707
0.288433 0.0241911 3.70071e-18 0.00341279
0.288433 0.0287506 0 0.00349082
0.219992 0.188991 0 0.00374887
0.288433 0.0334755 0 0.00354825
0.288433 0.038372 0 0.00359076
0.288433 0.0434463 0 0.00362256
7.47806e-17 0.291753 0 0.00375
0.288433 0.0487048 0 0.00364676
0.288433 0.0541543 0 0.00366552
0.151552 0.251863 0 0.00375163
0.288433 0.0598016 3.70071e-18 0.00368032
0.075776 0.284866 0 0.00375173
0.288433 0.0656539 3.70071e-18 0.00369218
0.219992 0.199534 0 0.0037495
0.288433 0.0717187 0 0.00370179
0.288433 0.0780037 0 0.00370967
0.288433 0.0845169 0 0.00371616
0.288433 0.0912666 0 0.00372158
0.219992 0.21046 -3.46945e-18 0.00375007
0.288433 0.0982613 0 0.00372625
0.151552 0.264688 3.70071e-18 0.00375189
0 0.306027 0 0.00375
0.288433 0.10551 0 0.00373039
0.075776 0.29889 3.46945e-18 0.00375172
0.288433 0.113022 0 0.00373405
0.219993 0.221782 0 0.0037506
0.288433 0.120806 0 0.00373728
0.288433 0.128874 0 0.00374008
0.151552 0.27798 0 0.0037521
0.288433 0.137234 0 0.0037425
0 0.320819 0 0.00375
0.219992 0.233515 -3.46945e-18 0.00375108
0.075776 0.313423 -3.46945e-18 0.00375167
0.288433 0.145897 0 0.00374457
0.288433 0.154876 0 0.00374634
0.151552 0.291753 0 0.00375226
0.219993 0.245675 0 0.00375152
0.288433 0.16418 0 0.00374784
0 0.336148 0 0.00375
0.288433 0.173822 0 0.00374911
0.075776 0.328484 -3.46945e-18 0.00375158
0.219993 0.258275 -3.46945e-18 0.00375193
0.151552 0.306027 0 0.00375238
0.288433 0.183814 0 0.00375019
0.288433 0.194169 0 0.00375112
0.219992 0.271334 3.46945e-18 0.00375229
0.350249 0.00184056 -3.46945e-18 0.000970859
0.350249 0.00558849 0 0.000983044
0.350249 0.00947248 3.46945e-18 0.0022243
0.350249 0.0134975 0 0.00287699
0.350249 0.0176687 0 0.0031865
0.350249 0.0219913 0 0.00331404
0.350249 0.0264708 3.46945e-18 0.00340115
0.350249 0.031113 0 0.00347295
0 0.352034 0 0.00375
0.350249 0.0359238 0 0.00352942
0.075776 0.344091 0 0.00375149
0.350249 0.0409091 0 0.00357292
0.350249 0.0460756 3.46945e-18 0.00360648
0.288433 0.2049 0 0.00375192
0.350249 0.0514296 0 0.00363265
0.151552 0.320819 0 0.00375246
0.350249 0.0569779 0 0.00365332
0.350249 0.0627277 3.46945e-18 0.00366986
0.350249 0.0686863 3.46945e-18 0.00368325
0.350249 0.0748612 3.46945e-18 0.00369419
0.350249 0.0812603 0 0.0037032
0.219992 0.284867 0 0.00375261
0.288433 0.21602 0 0.00375261
0.350249 0.0878917 0 0.00371062
0.350249 0.094764 0 0.00371695
0.350249 0.101886 0 0.00372265
0.350249 0.109266 0 0.00372782
0.288433 0.227544 0 0.00375323
0.075776 0.360265 3.46945e-18 0.00375145
0 0.368496 0 0.00375
0.151552 0.336148 0 0.00375253
0.350249 0.116914 3.46945e-18 0.00373239
0.219992 0.29889 0 0.00375289
0.370854 0.0241911 1.54074e-33 0.003368
0.350249 0.12484 0 0.00373638
0.350249 0.133054 0 0.00373985
0.288433 0.239487 -9.25154e-19 0.00375378
0.350249 0.141566 3.46945e-18 0.00374287
0.350249 0.150387 3.46945e-18 0.00374546
0.288433 0.251863 0 0.00375428
0.219992 0.313423 0 0.00375313
0.151552 0.352034 0 0.00375261
0.075776 0.377027 0 0.00375149
0.350249 0.159528 0 0.00374767
0 0.385557 0 0.00375
0.350249 0.169001 0 0.00374954
0.288433 0.264688 0 0.00375474
0.350249 0.178818 0 0.00375109
0.219992 0.328484 0 0.00375335
0.350249 0.188992 0 0.00375237
0.151552 0.368496 0 0.00375274
0.288433 0.27798 3.70071e-18 0.00375519
0.075776 0.394397 0 0.00375158
0.350249 0.199535 0 0.00375345
7.47806e-17 0.403236 0 0.00375
0.219992 0.344091 0 0.00375355
0.350249 0.21046 -3.46945e-18 0.00375434
0.288433 0.291753 0 0.0037556
0.412065 9.08189e-19 3.08149e-33 0.000802172
0.412065 0.00368111 -2.31298e-18 0.000869617
0.412065 0.00749587 -2.31298e-18 0.00162828
0.412065 0.0114491 -2.31298e-18 0.00264439
0.412065 0.0155459 -2.31298e-18 0.00309347
0.412065 0.0197915 0 0.00326667
0.412065 0.0241911 -3.08149e-33 0.00334561
0.412065 0.0264709 0 0.00337599
0.412065 0.0287506 -2.31298e-18 0.00340638
0.412065 0.0334755 -2.31298e-18 0.0034653
0.412065 0.038372 -2.31298e-18 0.00351686
0.151552 0.385557 0 0.00375292
0.412065 0.0434463 0 0.00355927
0.350249 0.221782 0 0.00375511
0.412065 0.0487048 0 0.00359345
0.412065 0.0541543 -3.08149e-33 0.00362093
0.412065 0.0569779 0 0.00363202
0.412065 0.0598016 -2.31298e-18 0.00364311
0.412065 0.0656539 -2.31298e-18 0.00366113
0.412065 0.0717187 -2.31298e-18 0.00367584
0.075776 0.412396 -3.46945e-18 0.00375167
0.412065 0.0780037 -2.31298e-18 0.00368789
0.288433 0.306027 0 0.003756
0.412065 0.0845169 -2.31298e-18 0.00369792
0.350249 0.233516 3.46945e-18 0.00375577
0 0.421557 0 0.00375
0.412065 0.0912666 -2.31298e-18 0.00370658
0.219992 0.360265 3.46945e-18 0.00375378
0.412065 0.0982613 0 0.00371436
0.412065 0.10551 0 0.00372141
0.412065 0.113022 -2.31298e-18 0.00372775
0.350249 0.245675 0 0.00375637
0.412065 0.120806 0 0.00373339
0.151552 0.403236 0 0.00375313
0.288433 0.320819 0 0.00375638
0.412065 0.128874 -2.31298e-18 0.00373835
0.412065 0.137234 0 0.00374268
0.350249 0.258275 -3.46945e-18 0.00375692
0.219992 0.377026 0 0.00375405
0.412065 0.145897 -2.31298e-18 0.00374642
0.075776 0.431051 0 0.00375172
0.412065 0.154876 -2.31298e-18 0.00374964
0 0.440544 0 0.00375
0.288433 0.336148 0 0.00375675
0.350249 0.271334 0 0.00375746
0.412065 0.16418 -2.31298e-18 0.00375237
0.412065 0.173822 -2.31298e-18 0.00375466
0.151552 0.421557 0 0.00375334
0.412065 0.183814 -2.31298e-18 0.00375659
0.350249 0.284867 3.46945e-18 0.00375799
0.219992 0.394397 0 0.00375436
0.288433 0.352034 3.70071e-18 0.00375712
0.412065 0.194169 0 0.00375818
0.075776 0.450382 0 0.00375176
0.412065 0.2049 -2.31298e-18 0.0037595
0 0.46022 0 0.00375
0.350249 0.29889 3.46945e-18 0.00375851
0.412065 0.21602 0 0.00376059
0.151552 0.440544 0 0.00375354
0.219993 0.412396 3.46945e-18 0.0037547
0.467897 0.00184056 -3.46945e-18 0.000645253
0.467897 0.00558849 0 0.000894282
0.288433 0.368496 0 0.00375751
0.467897 0.00947248 0 0.0024081
0.467897 0.0134975 0 0.0030551
0.467897 0.0176687 3.46945e-18 0.0032467
0.467897 0.0219913 -3.46945e-18 0.00331714
0.467897 0.0264709 3.46945e-18 0.00335177
0.467897 0.0311131 3.46945e-18 0.00340391
0.467897 0.0359238 -3.46945e-18 0.00345991
0.467897 0.038372 0 0.00348913
0.467897 0.0409092 3.46945e-18 0.00350999
0.350249 0.313423 0 0.00375903
0.467897 0.0460755 0 0.00355195
0.467897 0.0514296 3.46945e-18 0.00358637
0.412065 0.227544 -2.31298e-18 0.00376151
0.467897 0.0569779 0 0.00361445
0.467897 0.0627277 -3.46945e-18 0.00363738
0.467897 0.0686863 3.46945e-18 0.00365616
0.467897 0.0748612 0 0.00367154
0.467897 0.0812603 0 0.00368415
0.467897 0.0878918 3.46945e-18 0.00369497
0.075776 0.470415 3.46945e-18 0.00375178
0.412065 0.239487 -2.31298e-18 0.00376229
0.467897 0.0947639 -3.46945e-18 0.0037048
0.467897 0.101886 3.46945e-18 0.00371378
0.350249 0.328483 0 0.00375955
0.467897 0.109266 0 0.00372192
0 0.48061 0 0.00375
0.288433 0.385557 0 0.00375793
0.467897 0.116914 0 0.00372922
0.412065 0.251863 -2.31298e-18 0.00376297
0.219992 0.431051 0 0.00375504
0.467897 0.12484 0 0.00373571
0.151552 0.46022 0 0.00375371
0.467897 0.133054 3.46945e-18 0.00374141
0.467897 0.141566 3.46945e-18 0.00374638
0.412065 0.264688 -2.31298e-18 0.00376359
0.350249 0.344091 -3.46945e-18 0.00376007
0.467897 0.150387 3.46945e-18 0.00375067
0.467897 0.154876 0 0.00375399
0.467897 0.159528 3.46945e-18 0.00375432
0.288433 0.403236 0 0.00375837
0.075776 0.491175 0 0.0037518
0.412065 0.27798 -2.31298e-18 0.00376418
0.467897 0.169001 0 0.0037574
0.467897 0.178818 3.46945e-18 0.00376002
0.219992 0.450382 0 0.00375536
6.73026e-17 0.501741 3.70071e-18 0.00375
0.350249 0.360265 0 0.00376059
0.151552 0.48061 0 0.00375387
0.467897 0.188991 0 0.00376219
0.412065 0.291753 0 0.00376474
0.467897 0.199535 0 0.00376398
0.288433 0.421557 0 0.00375883
0.467897 0.21046 0 0.00376545
0.412065 0.306027 0 0.00376529
0.350249 0.377027 0 0.00376111
0.467897 0.221782 3.46945e-18 0.00376666
0.075776 0.51269 0 0.00375183
0.219993 0.470415 3.46945e-18 0.00375566
0.467897 0.227544 0 0.00376891
0.412065 0.320819 -2.31298e-18 0.00376584
0.467897 0.233515 0 0.00376765
6.73026e-17 0.523639 3.70071e-18 0.00375
0.523729 0 0 0.000557235
0.523729 0.00368111 0 0.000712221
0.523729 0.00749587 -2.31298e-18 0.0017057
0.523729 0.0114491 0 0.00289119
0.523729 0.0155459 0 0.00329502
0.523729 0.0197915 -2.31298e-18 0.00335846
0.151552 0.501741 0 0.00375403
0.523729 0.0241911 0 0.00336407
0.523729 0.0287506 0 0.00337695
0.523729 0.0334755 0 0.00341401
0.523729 0.038372 -3.08149e-33 0.00346139
0.523729 0.0434463 0 0.00350729
0.523729 0.0487048 0 0.00354751
0.523729 0.0541543 0 0.00358147
0.288433 0.440544 0 0.00375929
0.523729 0.0598016 0 0.00360976
0.350249 0.394397 -3.46945e-18 0.00376166
0.523729 0.0656539 0 0.0036332
0.467897 0.245675 0 0.0037685
0.523729 0.0717187 0 0.00365254
0.523729 0.0780037 0 0.00366859
0.523729 0.0845169 0 0.00368237
0.523729 0.0912666 0 0.00369475
0.412065 0.336148 0 0.00376638
0.523729 0.0982613 0 0.00370606
0.523729 0.10551 -2.31298e-18 0.00371635
0.467897 0.258275 -3.46945e-18 0.00376923
0.523729 0.113022 0 0.00372564
0.523729 0.120806 -3.08149e-33 0.00373396
0.219993 0.491176 0 0.00375594
0.523729 0.12484 0 0.00373765
0.523729 0.128874 -2.31298e-18 0.00374134
0.075776 0.534986 0 0.00375186
0.467897 0.271334 3.46945e-18 0.00376988
0.350249 0.412396 -3.46945e-18 0.00376222
0.523729 0.137234 0 0.00374783
0.412065 0.352034 -2.31298e-18 0.00376693
0.288433 0.46022 0 0.00375973
0.523729 0.145897 0 0.00375348
0.151552 0.523639 0 0.00375418
0.523729 0.154876 -3.08149e-33 0.00375834
0 0.546332 0 0.00375
0.523729 0.159528 0 0.00376042
0.467897 0.284867 -3.46945e-18 0.00377049
0.523729 0.16418 -2.31298e-18 0.00376249
0.523729 0.173822 0 0.00376599
0.412065 0.368496 0 0.00376749
0.523729 0.183814 0 0.00376893
0.467897 0.29889 0 0.00377107
0.350249 0.431051 -3.46945e-18 0.0037628
0.219992 0.51269 0 0.0037562
0.523729 0.194169 0 0.00377137
0.288433 0.48061 0 0.00376015
0.523729 0.2049 0 0.00377337
0.467897 0.313423 3.46945e-18 0.00377165
0.075776 0.558091 0 0.0037519
0.412065 0.385557 0 0.00376807
0.523729 0.21602 -3.08149e-33 0.00377499
0.151552 0.546332 0 0.00375433
0 0.569849 0 0.00375
0.350249 0.450382 3.46945e-18 0.00376337
0.523729 0.227544 -3.08149e-33 0.00377632
0.467897 0.328483 0 0.00377221
0.523729 0.231525 1.54074e-33 0.00377668
0.574156 0.00184056 0 0.000474994
0.574156 0.00558849 0 0.000841912
0.574157 0.00947248 0 0.0026714
0.574156 0.0134975 -3.46945e-18 0.00340927
0.574156 0.0176687 -3.46945e-18 0.00345011
0.574156 0.0219913 0 0.00340986
0.574156 0.0264708 -3.46945e-18 0.00337364
0.574156 0.031113 0 0.00337858
0.574156 0.0359238 -3.46945e-18 0.00341599
0.574157 0.0409092 0 0.00346277
0.523729 0.239487 3.70071e-18 0.0037774
0.574156 0.0460755 -3.46945e-18 0.00350756
0.574156 0.0514295 0 0.00354698
0.412065 0.403236 0 0.00376867
0.574157 0.0569779 0 0.00358056
0.574156 0.0627277 0 0.00360877
0.574156 0.0686863 0 0.00363226
0.219992 0.534986 0 0.00375646
0.288433 0.501741 0 0.00376054
0.574156 0.0748612 3.46945e-18 0.00365168
0.574156 0.0812603 0 0.00366822
0.467897 0.344091 0 0.00377279
0.574156 0.0878917 3.46945e-18 0.0036831
0.523729 0.251863 0 0.0037783
0.574157 0.0947639 0 0.00369679
0.574156 0.101886 0 0.00370929
0.574156 0.109266 0 0.00372061
0.574156 0.116914 0 0.00373081
0.412065 0.416977 -6.16298e-33 0.00376913
0.350249 0.470415 0 0.00376392
0.523729 0.264688 0 0.00377906
0.075776 0.582034 0 0.00375194
0.574156 0.12484 0 0.00373992
0.574156 0.133054 3.46945e-18 0.00374798
0.412065 0.421557 -2.31298e-18 0.00376929
0.151552 0.569849 0 0.00375448
0.467897 0.360265 -3.46945e-18 0.00377338
0.574157 0.141566 -3.46945e-18 0.00375504
0.523729 0.27798 0 0.00377973
0.574156 0.150386 3.46945e-18 0.00376118
0 0.594219 0 0.00375
0.574156 0.159528 -3.46945e-18 0.00376644
0.574156 0.16418 0 0.00377009
0.288433 0.523639 1.2326e-32 0.00376092
0.574157 0.169001 0 0.00377092
0.523729 0.291753 0 0.00378034
0.219993 0.558091 3.46945e-18 0.00375672
0.467897 0.377026 0 0.00377398
0.574156 0.178818 3.46945e-18 0.00377469
0.412065 0.440544 -2.31298e-18 0.00376991
0.350249 0.491175 0 0.00376445
0.574156 0.188992 3.46945e-18 0.00377782
0.523729 0.306027 -3.08149e-33 0.0037809
0.574157 0.199535 0 0.0037804
0.574157 0.21046 0 0.0037825
0.075776 0.606847 0 0.003752
0.467897 0.394397 0 0.00377461
0.151552 0.594219 0 0.00375464
0.523729 0.320819 0 0.00378145
0.574157 0.221782 -3.46945e-18 0.0037842
0.412065 0.46022 3.08149e-33 0.00377053
0.288433 0.546332 0 0.00376128
0 0.619475 0 0.00375
0.574156 0.233515 3.46945e-18 0.00378557
0.350249 0.51269 3.46945e-18 0.00376494
0.219992 0.582034 3.46945e-18 0.00375697
0.523729 0.336148 0 0.003782
0.467897 0.412396 0 0.00377526
0.574156 0.245675 0 0.00378668
0.624584 0 0 0.000413544
0.624584 0.00368111 0 0.00062063
0.624584 0.00749587 0 0.00181722
0.624584 0.0114491 0 0.00322641
0.624584 0.0155459 0 0.00364031
0.624584 0.0197915 0 0.00357014
0.624584 0.0241911 -2.31298e-18 0.00346217
0.624584 0.0287506 0 0.0034043
0.624584 0.0334755 0 0.00339959
0.624584 0.038372 0 0.00342872
0.624584 0.0434463 -2.31298e-18 0.00346972
0.624584 0.0487048 0 0.0035113
0.624584 0.0541543 0 0.00354905
0.624584 0.0598016 0 0.00358185
0.624584 0.0656539 0 0.00360972
0.624584 0.0717187 0 0.00363311
0.624584 0.0780037 0 0.00365299
0.574157 0.258276 3.46945e-18 0.00378758
0.624584 0.0845169 0 0.0036707
0.523729 0.352034 0 0.00378255
0.624584 0.0912666 0 0.00368699
0.624584 0.0982613 0 0.00370196
0.412065 0.48061 3.08149e-33 0.00377113
0.624584 0.10551 0 0.00371562
0.624584 0.113022 -2.31298e-18 0.00372798
0.574156 0.271334 0 0.00378833
0.624584 0.120806 0 0.00373909
0.467897 0.431051 0 0.00377593
0.075776 0.632561 -3.46945e-18 0.00375206
0.624584 0.128874 0 0.00374899
0.151552 0.619475 0 0.00375479
0.288433 0.569849 0 0.00376163
0.350249 0.534985 0 0.00376541
0.624584 0.137234 -2.31298e-18 0.00375774
0.523729 0.368496 0 0.00378312
0.574156 0.284866 -3.46945e-18 0.00378898
0.624584 0.145897 0 0.00376539
0.467897 0.440544 0 0.00377778
0.624584 0.154876 0 0.00377201
0.219992 0.606847 -3.46945e-18 0.00375723
0 0.645647 0 0.00375
0.624584 0.16418 -3.08149e-33 0.00377769
0.574156 0.29889 -3.46945e-18 0.00378956
0.624584 0.173822 0 0.0037825
0.412065 0.501741 1.54074e-33 0.0037717
0.467897 0.450382 -3.46945e-18 0.00377661
0.523729 0.385557 0 0.00378371
0.624584 0.183814 0 0.00378653
0.624584 0.194169 0 0.00378986
0.574156 0.313423 0 0.0037901
0.624584 0.2049 0 0.00379259
0.350249 0.558091 3.46945e-18 0.00376586
0.288433 0.594219 0 0.00376197
0.624584 0.21602 0 0.0037948
0.523729 0.403236 0 0.00378433
0.574156 0.328483 -3.46945e-18 0.00379062
0.151552 0.645647 0 0.00375495
0.467897 0.470415 3.46945e-18 0.00377728
0.075776 0.659208 0 0.00375212
0.624584 0.227544 0 0.00379657
0.412065 0.523639 0 0.00377224
0.523729 0.41545 3.08149e-33 0.00378476
0.624584 0.239487 3.70071e-18 0.00379798
0.574156 0.344091 0 0.00379114
0.219992 0.632561 0 0.00375747
0.67013 0.00184055 0 0.000355853
0.67013 0.00558849 0 0.000814398
0.67013 0.00947248 0 0.00293385
0.67013 0.0134975 0 0.00386839
0.67013 0.0176687 -3.46945e-18 0.00380771
0.67013 0.0219913 0 0.00359573
0.67013 0.0264708 3.46945e-18 0.00346085
0.67013 0.0311131 0 0.00340069
0.67013 0.0359237 0 0.00340283
0.67013 0.0409092 -3.46945e-18 0.00343458
0.67013 0.0460755 0 0.00347587
0.67013 0.0514296 3.46945e-18 0.00351673
0.523729 0.421557 -2.31298e-18 0.00378498
0.67013 0.056978 0 0.00355372
0 0.67277 0 0.00375
0.67013 0.0627277 0 0.0035859
0.624584 0.251863 0 0.0037991
0.67013 0.0686863 0 0.00361327
0.67013 0.0748612 3.46945e-18 0.0036363
0.67013 0.0812603 0 0.0036566
0.67013 0.0878917 0 0.00367548
0.67013 0.0947639 3.46945e-18 0.00369294
0.574156 0.360265 0 0.00379167
0.67013 0.101886 0 0.00370896
0.523729 0.431051 0 0.00378531
0.624584 0.264688 0 0.00379999
0.467897 0.491175 0 0.00377792
0.67013 0.109266 3.46945e-18 0.00372353
0.350249 0.582034 0 0.00376629
0.67013 0.116914 0 0.00373669
0.67013 0.12484 0 0.00374849
0.67013 0.133054 0 0.00375897
0.288433 0.619475 0 0.00376229
0.624584 0.27798 -3.08149e-33 0.00380073
0.412065 0.546332 1.54074e-33 0.00377274
0.523729 0.440544 -3.08149e-33 0.00378564
0.67013 0.141566 3.46945e-18 0.0037682
0.685312 0.0241911 -7.70372e-34 0.00358641
0.685312 0.0434463 -7.70372e-34 0.0034566
0.67013 0.150387 0 0.00377625
0.574156 0.377026 -3.46945e-18 0.00379223
0.67013 0.159528 0 0.00378319
0.624584 0.291753 0 0.00380134
0.151552 0.67277 0 0.0037551
0.075776 0.686823 0 0.00375218
0.67013 0.169001 0 0.00378911
0.67013 0.178818 0 0.0037941
0.467897 0.51269 0 0.00377853
0.685312 0.113022 -7.70372e-34 0.0037322
0.219992 0.659208 0 0.00375771
0.624584 0.306027 0 0.00380187
0.67013 0.188991 0 0.00379825
0.574156 0.394397 3.46945e-18 0.00379282
0.523729 0.46022 0 0.00378631
0.685312 0.137234 -7.70372e-34 0.00376708
0.67013 0.199535 -3.46945e-18 0.00380167
0.350249 0.606847 0 0.00376669
0 0.700877 0 0.00375
0.624584 0.320819 0 0.00380236
0.67013 0.21046 0 0.00380444
0.412065 0.569849 -2.31298e-18 0.00377322
0.67013 0.221782 -3.46945e-18 0.00380666
0.574157 0.412396 0 0.00379344
0.288433 0.645647 0 0.0037626
0.624584 0.336148 -3.08149e-33 0.00380283
0.67013 0.233515 3.46945e-18 0.00380842
0.467897 0.534986 0 0.0037791
0.523729 0.48061 0 0.00378697
0.624584 0.344091 0 0.00380306
0.67013 0.245675 0 0.0038098
0.715676 4.54095e-19 0 0.000309096
0.715676 0.00368111 0 0.00055836
0.715676 0.00749587 0 0.00193412
0.715676 0.0114491 0 0.00359133
0.715676 0.0155459 0 0.004087
0.715676 0.0197915 0 0.00390046
0.715676 0.0241911 0 0.00364853
0.715676 0.0287506 0 0.00349458
0.715676 0.0334755 0 0.00342767
0.715676 0.038372 0 0.00342337
0.624584 0.352034 -2.31298e-18 0.0038033
0.715676 0.0434463 0 0.00345004
0.151552 0.700877 0 0.00375525
0.715676 0.0487048 0 0.00348722
0.715676 0.0541543 0 0.00352542
0.574156 0.43105 0 0.00379408
0.715676 0.0598016 0 0.00356071
0.67013 0.258275 0 0.00381088
0.715676 0.0656539 0 0.00359173
0.715676 0.0717187 0 0.00361844
0.075776 0.715441 0 0.00375225
0.715676 0.0780037 0 0.00364187
0.715676 0.0845169 0 0.00366334
0.219992 0.686824 0 0.00375795
0.715676 0.0912666 0 0.00368336
0.715676 0.0982613 0 0.00370188
0.67013 0.271334 -3.46945e-18 0.00381173
0.350249 0.632561 -3.46945e-18 0.00376707
0.412065 0.594219 3.08149e-33 0.00377366
0.715676 0.10551 0 0.00371886
0.715676 0.113022 0 0.0037343
0.624584 0.368496 0 0.00380378
0.523729 0.501741 0 0.00378759
0.715676 0.120806 0 0.00374823
0.715676 0.128874 0 0.0037607
0.67013 0.284867 0 0.0038124
0.467897 0.558091 3.46945e-18 0.00377963
0.715676 0.137234 0 0.00377174
0.574156 0.450382 0 0.00379475
0 0.730005 0 0.00375
0.715676 0.145897 0 0.00378145
0.288433 0.67277 0 0.0037629
0.715676 0.154876 0 0.00378988
0.67013 0.29889 0 0.00381295
0.624584 0.385557 0 0.00380429
0.715676 0.16418 -9.25187e-19 0.00379713
0.715676 0.173822 0 0.00380329
0.715676 0.183814 0 0.00380845
0.67013 0.313423 0 0.00381342
0.523729 0.523639 0 0.00378818
0.715676 0.194169 0 0.00381273
0.574156 0.470415 3.46945e-18 0.00379541
0.624584 0.403236 0 0.00380483
0.743101 0.0241911 -7.70372e-34 0.00374441
0.412065 0.619475 3.08149e-33 0.00377407
0.715676 0.2049 0 0.00381623
0.151552 0.730005 0 0.0037554
0.67013 0.328484 3.46945e-18 0.00381385
0.350249 0.659208 0 0.00376743
0.467897 0.582034 0 0.00378012
0.715676 0.21602 0 0.00381904
0.219992 0.715441 0 0.00375818
0.075776 0.745097 -3.46945e-18 0.00375232
0.715676 0.227544 0 0.00382128
0.67013 0.344091 0 0.00381426
0.624584 0.421557 0 0.00380541
0.743101 0.128874 -7.70372e-34 0.00376573
0.715676 0.239487 3.70071e-18 0.00382302
0.574156 0.491175 0 0.00379605
0.756814 0.00184055 0 0.00026498
0.523729 0.546332 0 0.00378872
0.756813 0.00558849 0 0.000801248
0.756813 0.00947248 0 0.00318031
0.756814 0.0134975 -3.46945e-18 0.00436136
0.756814 0.0155459 0 0.00433345
0.756814 0.0176687 0 0.00428243
0.756814 0.0219913 0 0.00389353
0.756814 0.0264709 0 0.00363045
0.756814 0.031113 -3.46945e-18 0.00347912
0.756813 0.0359238 -3.46945e-18 0.00342512
0.288433 0.700877 0 0.00376318
0.756814 0.0409092 -3.46945e-18 0.00343044
0.756813 0.0460755 3.46945e-18 0.00345988
0.756813 0.0514296 0 0.00349741
0.715676 0.251863 0 0.00382437
0.756813 0.0569779 0 0.00353494
0.756814 0.0627277 -3.46945e-18 0.0035693
0.756814 0.0686863 -3.46945e-18 0.00359934
0 0.76019 0 0.00375
0.756814 0.0748612 0 0.00362558
0.67013 0.360265 3.46945e-18 0.00381468
0.756814 0.0812603 -3.46945e-18 0.00364954
0.756814 0.0878917 -3.46945e-18 0.00367206
0.756814 0.0947639 -3.46945e-18 0.00369307
0.715676 0.264688 0 0.0038254
0.756813 0.101886 0 0.00371246
0.624584 0.440544 0 0.00380601
0.756813 0.109266 3.46945e-18 0.00373021
0.756813 0.116914 3.46945e-18 0.00374631
0.412065 0.645647 0 0.00377445
0.467897 0.606847 0 0.00378057
0.756814 0.120806 0 0.00375451
0.756813 0.12484 0 0.00376081
0.715676 0.27798 0 0.00382619
0.756814 0.133054 -3.46945e-18 0.00377373
0.67013 0.377026 -3.46945e-18 0.00381512
0.756814 0.137234 0 0.00378044
0.574156 0.51269 0 0.00379666
0.756813 0.141566 3.46945e-18 0.00378515
0.685312 0.352034 -7.70372e-34 0.00382
0.743101 0.2049 -7.70372e-34 0.00382528
0.350249 0.686824 0 0.00376777
0.756814 0.150387 0 0.00379515
0.756814 0.154876 0 0.00380052
0.715676 0.291753 0 0.00382679
0.756814 0.159528 -3.46945e-18 0.00380379
0.523729 0.569849 0 0.00378921
0.72743 0.264688 0 0.00382954
0.756814 0.16418 0 0.00380856
0.151552 0.76019 0 0.00375555
0.756813 0.169001 3.46945e-18 0.00381119
0.624584 0.46022 0 0.00380662
0.219993 0.745097 0 0.0037584
0.67013 0.394396 0 0.00381559
0.756813 0.178818 -3.46945e-18 0.00381744
0.715676 0.306027 0 0.00382726
0.075776 0.775831 0 0.00375239
0.756813 0.188991 0 0.00382265
0.756814 0.199535 0 0.00382693
0.715676 0.320819 0 0.00382766
0.574156 0.534985 0 0.00379722
0.288433 0.730005 0 0.00376344
0.756813 0.21046 0 0.0038304
0.467897 0.632561 0 0.00378098
0.67013 0.412396 -3.46945e-18 0.00381609
0.624584 0.48061 -3.08149e-33 0.00380722
0.756814 0.221782 0 0.00383316
0.412065 0.67277 3.08149e-33 0.0037748
0.715676 0.336148 0 0.00382801
0 0.791472 0 0.00375
0.756813 0.233516 3.46945e-18 0.00383532
0.523729 0.594219 0 0.00378966
0.624584 0.487654 1.54074e-33 0.00380741
0.756814 0.245675 3.46945e-18 0.00383699
0.350249 0.715441 3.46945e-18 0.00376808
0.67013 0.43105 0 0.00381663
0.715676 0.352034 -9.25187e-19 0.00382835
0.797951 9.08189e-19 -3.08149e-33 0.000229394
0.797951 0.00368111 2.31298e-18 0.000512276
0.797951 0.00749587 2.31298e-18 0.00204121
0.797951 0.0114491 2.31298e-18 0.003943
0.797951 0.0141803 7.70372e-34 0.00436761
0.797951 0.0155459 0 0.00457991
0.797951 0.0169611 7.70372e-34 0.00449832
0.797951 0.0197915 2.31298e-18 0.00433514
0.797951 0.0219913 0 0.00413565
0.797951 0.0241911 3.08149e-33 0.00393616
0.797951 0.0264709 0 0.00379653
0.797951 0.0287506 -3.08149e-33 0.00365689
0.797951 0.0334755 2.31298e-18 0.00350436
0.797951 0.038372 2.31298e-18 0.00344969
0.797951 0.0434463 2.31298e-18 0.00345095
0.797951 0.0487048 0 0.00347713
0.756813 0.258275 -3.46945e-18 0.00383824
0.797951 0.0541543 2.31298e-18 0.00351174
0.797951 0.0598016 2.31298e-18 0.00354704
0.797951 0.0656539 2.31298e-18 0.00357965
0.574156 0.55809 0 0.00379773
0.624584 0.501741 0 0.0038078
0.797951 0.0717187 2.31298e-18 0.00360878
0.797951 0.0780037 -3.08149e-33 0.0036353
0.797951 0.0845169 2.31298e-18 0.00366019
0.797951 0.0912666 -3.08149e-33 0.00368363
0.797951 0.0982613 2.31298e-18 0.00370548
0.756813 0.271334 0 0.00383918
0.797951 0.10551 2.31298e-18 0.00372565
0.715676 0.368496 0 0.00382869
0.151552 0.791472 0 0.00375569
0.797951 0.113022 2.31298e-18 0.00374409
0.219992 0.775831 3.46945e-18 0.00375861
0.797951 0.118211 7.70372e-34 0.00375522
0.770526 0.239487 1.54074e-33 0.0038421
0.797951 0.120806 0 0.00376079
0.67013 0.450382 3.46945e-18 0.00381719
0.797951 0.128874 3.08149e-33 0.00377579
0.467897 0.659208 0 0.00378135
0.756813 0.284866 -3.46945e-18 0.00383986
0.743101 0.320819 -7.70372e-34 0.0038373
0.797951 0.137234 0 0.00378914
0.797951 0.141566 0 0.00379502
0.797951 0.145897 -9.25187e-19 0.0038009
0.523729 0.619475 0 0.00379006
0.075776 0.807681 0 0.00375246
0.797951 0.150387 0 0.00380603
0.797951 0.154876 0 0.00381116
0.715676 0.385557 0 0.00382906
0.412065 0.700877 3.08149e-33 0.00377512
0.288433 0.76019 0 0.00376369
0.756813 0.29889 0 0.00384037
0.797951 0.16418 0 0.00382
0.624584 0.523639 0 0.00380834
0.797951 0.167394 7.70372e-34 0.00382251
0.797951 0.173822 2.31298e-18 0.00382753
0.574156 0.582034 0 0.00379818
0.67013 0.470415 0 0.00381775
0.797951 0.183814 2.31298e-18 0.00383386
0.756813 0.313423 -3.46945e-18 0.00384075
0.797951 0.194169 -9.25187e-19 0.0038391
0.715676 0.403236 0 0.00382946
0.151552 0.807681 0 0.00375576
0.797951 0.197746 -7.70372e-34 0.00384053
0.350249 0.745097 0 0.00376837
0.797951 0.2049 3.08149e-33 0.00384339
0 0.823889 0 0.00375
0.756813 0.328483 -3.46945e-18 0.00384105
0.797951 0.21046 0 0.00384511
0.797951 0.21602 -3.08149e-33 0.00384683
0.797951 0.223703 7.70372e-34 0.00384863
0.797951 0.227544 9.25187e-19 0.00384954
0.624584 0.546332 0 0.00380882
0.715676 0.421557 0 0.0038299
0.67013 0.491176 -3.46945e-18 0.00381831
0.797951 0.231525 7.70372e-34 0.00385024
0.467897 0.686824 -3.46945e-18 0.00378169
0.523729 0.645647 0 0.00379041
0.756813 0.344091 -3.46945e-18 0.00384132
0.822721 0.120806 7.70372e-34 0.00376589
0.797951 0.239487 -3.08149e-33 0.00385163
0.822721 0.137234 7.70372e-34 0.00379584
0.835106 0.00184056 0 0.000195647
0.835106 0.00558849 0 0.000789403
0.835106 0.00947248 0 0.00338878
0.835106 0.0134975 0 0.00482385
0.835107 0.0176687 0 0.00482539
0.835106 0.0219913 -3.46945e-18 0.0043137