# kMean  POINT_DATA 63140
# x  y  z  kMean
0 0.1 0 0.00375
0 0.1 -0.0179898 0.00375
0 0.1 0.0179898 0.00375
0.0363518 0.1 0.0179898 0.00374787
0.0363518 0.1 -0.0179898 0.00374792
0 0.1 -0.0570102 0.00375
0 0.1 0.0570102 0.00375
0.0363518 0.1 0.0570102 0.00374787
0.0363518 0.1 -0.0570102 0.00374792
0 0.1 -0.075 0.00375
0 0.1 0.075 0.00375
0.075776 0.1 -0.0375 0.00374542
0.075776 0.1 0.0375 0.00374531
0 0.1 -0.0929898 0.00375
0 0.1 0.0929898 0.00375
0.0363518 0.1 -0.0929898 0.00374814
0.0363518 0.1 0.0929898 0.00374799
0 0.1 -0.13201 0.00375
0 0.1 0.13201 0.00375
0.075776 0.1 -0.1125 0.00374587
0.075776 0.1 0.1125 0.00374555
0.0363518 0.1 -0.13201 0.00374814
0.0363518 0.1 0.13201 0.00374799
0 0.1 -0.15 0.00375
0 0.1 0.15 0.00375
0.150379 0.1 -2.22623e-17 0.0037395
0 0.1 -0.16799 0.00375
0 0.1 0.16799 0.00375
0.150379 0.1 -0.075 0.00374008
0.150379 0.1 0.075 0.00373947
0.0363518 0.1 -0.16799 0.00374839
0.0363518 0.1 0.16799 0.00374825
0.075776 0.1 -0.1875 0.00374638
0.075776 0.1 0.1875 0.00374609
0 0.1 -0.20701 0.00375
0 0.1 0.20701 0.00375
0.0363518 0.1 -0.20701 0.00374839
0.0363518 0.1 0.20701 0.00374825
0.150379 0.1 -0.15 0.00374086
0.150379 0.1 0.15 0.00374004
0.219993 0.1 -0.0375 0.00373422
0.219993 0.1 0.0375 0.00373359
0 0.1 -0.225 0.00375
0 0.1 0.225 0.00375
0 0.1 -0.24299 0.00375
0 0.1 0.24299 0.00375
0.0363518 0.1 0.24299 0.00374858
0.0363518 0.1 -0.24299 0.00374861
0.219993 0.1 -0.1125 0.00373533
0.219993 0.1 0.1125 0.00373397
0.150379 0.1 -0.225 0.00374161
0.150379 0.1 0.225 0.00374095
0.075776 0.1 -0.2625 0.00374683
0.075776 0.1 0.2625 0.00374678
0 0.1 -0.28201 0.00375
0 0.1 0.28201 0.00375
0.0363518 0.1 -0.28201 0.00374861
0.0363518 0.1 0.28201 0.00374858
0.287374 0.1 -2.89121e-19 0.00372739
0.219992 0.1 0.1875 0.00373508
0.219992 0.1 -0.1875 0.00373634
0.287374 0.1 -0.075 0.00372847
0.287374 0.1 0.075 0.00372705
0 0.1 -0.3 0.00375
0 0.1 0.3 0.00375
0 0.1 0.31799 0.00375
0 0.1 -0.31799 0.00375
0.0363518 0.1 -0.31799 0.00374883
0.0363518 0.1 0.31799 0.00374889
0.287374 0.1 0.15 0.00372767
0.287374 0.1 -0.15 0.0037297
0.150379 0.1 -0.3 0.00374229
0.150379 0.1 0.3 0.00374193
0.219993 0.1 0.2625 0.00373634
0.219993 0.1 -0.2625 0.00373731
0.075776 0.1 -0.3375 0.00374729
0.075776 0.1 0.3375 0.00374742
0.350249 0.1 -0.0375 0.00372168
0.350249 0.1 0.0375 0.0037206
0 0.1 -0.35701 0.00375
0 0.1 0.35701 0.00375
0.0363518 0.1 -0.35701 0.00374883
0.0363518 0.1 0.35701 0.00374889
0.287374 0.1 -0.225 0.00373079
0.287374 0.1 0.225 0.00372888
0.350249 0.1 -0.1125 0.00372318
0.350249 0.1 0.1125 0.00372058
0 0.1 -0.375 0.00375
0 0.1 0.375 0.00375
0 0.1 -0.39299 0.00375
0 0.1 0.39299 0.00375
0.0363518 0.1 -0.39299 0.00374906
0.0363518 0.1 0.39299 0.00374916
0.350249 0.1 -0.1875 0.00372446
0.350249 0.1 0.1875 0.0037216
0.219992 0.1 -0.3375 0.00373816
0.219992 0.1 0.3375 0.00373767
0.150379 0.1 0.375 0.0037428
0.150379 0.1 -0.375 0.00374281
0.411108 0.1 4.33681e-19 0.00371619
0.287374 0.1 -0.3 0.00373174
0.287374 0.1 0.3 0.00373028
0.411108 0.1 -0.075 0.00371756
0.411108 0.1 0.075 0.00371544
0.075776 0.1 -0.4125 0.00374776
0.075776 0.1 0.4125 0.00374797
0 0.1 0.43201 0.00375
0 0.1 -0.43201 0.00375
0.0363518 0.1 0.43201 0.00374916
0.0363518 0.1 -0.43201 0.00374906
0.411108 0.1 -0.15 0.00371899
0.411108 0.1 0.15 0.00371569
0.350249 0.1 -0.2625 0.00372554
0.350249 0.1 0.2625 0.00372307
0 0.1 -0.45 0.00375
0 0.1 0.45 0.00375
0.219992 0.1 0.4125 0.00373859
0.219992 0.1 -0.4125 0.00373843
0 0.1 -0.46799 0.00375
0 0.1 0.46799 0.00375
0.411108 0.1 -0.225 0.00372017
0.411108 0.1 0.225 0.00371676
0.467897 0.1 -0.0375 0.00371208
0.467897 0.1 0.0375 0.00371073
0.0363518 0.1 0.46799 0.00374941
0.0363518 0.1 -0.46799 0.0037493
0.287374 0.1 -0.375 0.00373239
0.287374 0.1 0.375 0.00373155
0.150379 0.1 0.45 0.00374342
0.150379 0.1 -0.45 0.00374329
0.467897 0.1 0.1125 0.00371022
0.467897 0.1 -0.1125 0.00371366
0.350249 0.1 -0.3375 0.00372642
0.350249 0.1 0.3375 0.0037246
0.075776 0.1 -0.4875 0.00374827
0.075776 0.1 0.4875 0.00374849
0.467897 0.1 0.1875 0.00371076
0.467897 0.1 -0.1875 0.003715
0 0.1 -0.50701 0.00375
0 0.1 0.50701 0.00375
0.0363518 0.1 -0.50701 0.0037493
0.0363518 0.1 0.50701 0.00374941
0.411108 0.1 0.3 0.00371819
0.411108 0.1 -0.3 0.00372109
0.522865 0.1 1.41031e-17 0.00370866
0 0.1 -0.525 0.00375
0 0.1 0.525 0.00375
0.522865 0.1 -0.075 0.00371011
0.522865 0.1 0.075 0.0037076
0.287374 0.1 0.45 0.00373244
0.287374 0.1 -0.45 0.00373296
0.219992 0.1 0.4875 0.00373907
0.219992 0.1 -0.4875 0.00373913
0.467897 0.1 -0.2625 0.00371599
0.467897 0.1 0.2625 0.003712
0.350249 0.1 -0.4125 0.00372702
0.350249 0.1 0.4125 0.00372588
0 0.1 -0.54299 0.00375
0 0.1 0.54299 0.00375
0.522865 0.1 0.15 0.00370733
0.522865 0.1 -0.15 0.00371147
0.0363518 0.1 0.54299 0.00374967
0.0363518 0.1 -0.54299 0.00374956
0.150379 0.1 -0.525 0.00374393
0.150379 0.1 0.525 0.00374397
0.411108 0.1 -0.375 0.00372177
0.411108 0.1 0.375 0.00371958
0.075776 0.1 -0.5625 0.00374879
0.075776 0.1 0.5625 0.00374902
0.522865 0.1 -0.225 0.00371249
0.522865 0.1 0.225 0.00370792
0.574156 0.1 0.0375 0.00370526
0.574157 0.1 -0.0375 0.0037067
0.467897 0.1 -0.3375 0.00371673
0.467897 0.1 0.3375 0.00371347
0 0.1 -0.58201 0.00375
0 0.1 0.58201 0.00375
0.0363518 0.1 -0.58201 0.00374956
0.0363518 0.1 0.58201 0.00374967
0.574157 0.1 -0.1125 0.00370813
0.574157 0.1 0.1125 0.0037043
0.287374 0.1 -0.525 0.00373371
0.287374 0.1 0.525 0.00373312
0 0.1 -0.6 0.00375
0 0.1 0.6 0.00375
0.350249 0.1 0.4875 0.00372673
0.350249 0.1 -0.4875 0.00372773
0.522865 0.1 -0.3 0.00371316
0.522865 0.1 0.3 0.00370902
0.219992 0.1 -0.5625 0.00373994
0.219992 0.1 0.5625 0.00373973
0.574156 0.1 -0.1875 0.00370922
0.574156 0.1 0.1875 0.0037042
0.411108 0.1 0.45 0.00372066
0.411108 0.1 -0.45 0.00372235
0 0.1 -0.61799 0.00375
0 0.1 0.61799 0.00375
0.150379 0.1 -0.6 0.00374459
0.150379 0.1 0.6 0.0037446
0.0363518 0.1 -0.61799 0.00374981
0.0363518 0.1 0.61799 0.00374993
0.467897 0.1 -0.4125 0.00371724
0.467897 0.1 0.4125 0.00371476
0.623803 0.1 2.34188e-17 0.00370538
0.623803 0.1 0.075 0.00370411
0.623803 0.1 -0.075 0.00370672
0.574156 0.1 0.2625 0.00370487
0.574156 0.1 -0.2625 0.00370987
0.623803 0.1 0.15 0.00370334
0.623803 0.1 -0.15 0.0037078
0.075776 0.1 0.6375 0.00374955
0.075776 0.1 -0.6375 0.00374931
0.522865 0.1 -0.375 0.00371355
0.522865 0.1 0.375 0.00371021
0 0.1 0.65701 0.00375
0 0.1 -0.65701 0.00375
0.0363518 0.1 0.65701 0.00374993
0.0363518 0.1 -0.65701 0.00374981
0.350249 0.1 0.5625 0.00372744
0.350249 0.1 -0.5625 0.00372851
0.623803 0.1 0.225 0.00370328
0.623803 0.1 -0.225 0.00370844
0.287374 0.1 -0.6 0.00373448
0.287374 0.1 0.6 0.00373383
0.574157 0.1 -0.3375 0.00371018
0.574157 0.1 0.3375 0.00370592
0.411108 0.1 0.525 0.0037214
0.411108 0.1 -0.525 0.00372295
0.67013 0.1 0.0375 0.00370402
0.67013 0.1 -0.0375 0.00370541
0.219992 0.1 -0.6375 0.0037407
0.219993 0.1 0.6375 0.0037405
0 0.1 -0.675 0.00375
0 0.1 0.675 0.00375
0.467897 0.1 -0.4875 0.00371773
0.467897 0.1 0.4875 0.00371563
0.67013 0.1 -0.1125 0.00370654
0.67013 0.1 0.1125 0.00370274
0.522865 0.1 0.45 0.00371114
0.522865 0.1 -0.45 0.00371376
0.150379 0.1 0.675 0.00374524
0.150379 0.1 -0.675 0.00374519
0.623803 0.1 0.3 0.00370378
0.623803 0.1 -0.3 0.00370862
0 0.1 -0.69299 0.00375
0 0.1 0.69299 0.00375
0.0363518 0.1 -0.69299 0.00375004
0.0363518 0.1 0.69299 0.00375018
0.67013 0.1 -0.1875 0.00370721
0.67013 0.1 0.1875 0.00370201
0.574156 0.1 0.4125 0.00370689
0.574157 0.1 -0.4125 0.00371018
0.714971 0.1 -2.8382e-17 0.0037061
0.075776 0.1 -0.7125 0.00374979
0.075776 0.1 0.7125 0.00375006
0.714971 0.1 -0.075 0.00370721
0.714971 0.1 0.075 0.00370476
0.67013 0.1 0.2625 0.00370196
0.67013 0.1 -0.2625 0.00370737
0.411108 0.1 -0.6 0.00372354
0.411108 0.1 0.6 0.00372201
0.350249 0.1 0.6375 0.00372817
0.350249 0.1 -0.6375 0.00372924
0.623803 0.1 0.375 0.00370448
0.623803 0.1 -0.375 0.00370842
0.714971 0.1 -0.15 0.00370786
0.714971 0.1 0.15 0.00370356
0.467897 0.1 -0.5625 0.00371819
0.467897 0.1 0.5625 0.00371618
0 0.1 -0.73201 0.00375
0 0.1 0.73201 0.00375
0.0363518 0.1 0.73201 0.00375018
0.0363518 0.1 -0.73201 0.00375004
0.287374 0.1 -0.675 0.00373518
0.287374 0.1 0.675 0.00373459
0.522865 0.1 -0.525 0.0037139
0.522865 0.1 0.525 0.00371167
0.219993 0.1 -0.7125 0.00374136
0.219992 0.1 0.7125 0.00374125
0.714971 0.1 -0.225 0.00370795
0.714971 0.1 0.225 0.00370282
0 0.1 0.75 0.00375
0 0.1 -0.75 0.00375
0.67013 0.1 -0.3375 0.00370701
0.67013 0.1 0.3375 0.00370232
0.574156 0.1 -0.4875 0.00371005
0.574157 0.1 0.4875 0.00370747
0.756813 0.1 0.0375 0.00370672
0.756814 0.1 -0.0375 0.00370794
0.150379 0.1 0.746002 0.00374589
0.150379 0.1 -0.75 0.00374572
0.756813 0.1 -0.1125 0.00370866
0.756813 0.1 0.1125 0.00370524
0 0.1 0.76799 0.00375
0 0.1 -0.76799 0.00375
0.0363518 0.1 0.76799 0.00375039
0.0363518 0.1 -0.76799 0.00375025
0.623803 0.1 -0.45 0.00370795
0.623803 0.1 0.45 0.00370499
0.714971 0.1 -0.3 0.00370745
0.714971 0.1 0.3 0.00370257
0.756814 0.1 -0.1875 0.00370875
0.756814 0.1 0.1875 0.00370395
0.67013 0.1 -0.4125 0.00370628
0.67013 0.1 0.4125 0.00370277
0.411108 0.1 0.675 0.00372263
0.411108 0.1 -0.675 0.00372404
0.467897 0.1 0.6375 0.00371666
0.467897 0.1 -0.6375 0.00371858
0.075776 0.1 0.7875 0.00375051
0.075776 0.1 -0.7875 0.00375021
0.350249 0.1 -0.7125 0.00372987
0.350249 0.1 0.7125 0.00372893
0.522865 0.1 -0.6 0.00371396
0.522865 0.1 0.6 0.00371192
0.797314 0.1 -3.59473e-17 0.00371046
0.287374 0.1 0.746002 0.0037354
0.797314 0.1 -0.075 0.00371125
0.797314 0.1 0.075 0.00370916
0.756814 0.1 -0.2625 0.0037082
0.756814 0.1 0.2625 0.00370312
0.287374 0.1 -0.75 0.00373577
0.574156 0.1 -0.5625 0.00370982
0.574156 0.1 0.5625 0.0037076
0 0.1 0.80701 0.00375
0 0.1 -0.80701 0.00375
0.714971 0.1 -0.375 0.00370646
0.714971 0.1 0.375 0.00370255
0.0363518 0.1 0.80701 0.00375039
0.0363518 0.1 -0.80701 0.00375025
0.797314 0.1 -0.15 0.00371137
0.797314 0.1 0.15 0.00370763
0.623803 0.1 -0.525 0.00370731
0.623803 0.1 0.525 0.00370504
0.219992 0.1 0.7875 0.00374194
0.219992 0.1 -0.7875 0.00374192
0.149792 0.1 0.80701 0.00374627
0 0.1 0.825 0.00375
0 0.1 -0.825 0.00375
0.797314 0.1 -0.225 0.00371076
0.797314 0.1 0.225 0.00370626
0.756813 0.1 -0.3375 0.003707
0.756813 0.1 0.3375 0.00370264
0.67013 0.1 0.4875 0.00370281
0.67013 0.1 -0.4875 0.00370529
0.835106 0.1 -0.0375 0.00371386
0.835106 0.1 0.0375 0.00371289
0.150379 0.1 -0.825 0.00374618
0.835106 0.1 -0.1125 0.00371411
0.835106 0.1 0.1125 0.00371133
0 0.1 -0.84299 0.00375
0 0.1 0.84299 0.00375
0.0363518 0.1 -0.84299 0.00375042
0.0363518 0.1 0.84299 0.00375057
0.714971 0.1 -0.45 0.0037051
0.714971 0.1 0.45 0.00370241
0.411108 0.1 0.746002 0.00372335
0.797314 0.1 -0.3 0.00370944
0.797314 0.1 0.3 0.00370519
0.467897 0.1 -0.7125 0.00371884
0.467897 0.1 0.7125 0.00371719
0.522865 0.1 0.675 0.00371208
0.522865 0.1 -0.675 0.00371392
0.411108 0.1 -0.75 0.00372442
0.835106 0.1 -0.1875 0.00371353
0.835107 0.1 0.1875 0.00370956
0.286844 0.1 0.80701 0.00373587
0.574156 0.1 0.6375 0.00370747
0.574157 0.1 -0.6375 0.00370947
0.350249 0.1 -0.7875 0.0037304
0.350249 0.1 0.7875 0.00372967
0.756813 0.1 -0.4125 0.00370535
0.756814 0.1 0.4125 0.00370226
0.623803 0.1 -0.6 0.00370653
0.623803 0.1 0.6 0.00370469
0.075776 0.1 0.8625 0.00375088
0.075776 0.1 -0.8625 0.00375057
0.871687 0.1 -3.2767e-18 0.00371794
0.287374 0.1 -0.825 0.00373626
0.871687 0.1 -0.075 0.00371834
0.871687 0.1 0.075 0.00371675
0.67013 0.1 -0.5625 0.00370409
0.67013 0.1 0.5625 0.00370231
0.835106 0.1 0.2625 0.00370797
0.835106 0.1 -0.2625 0.00371215
0.797314 0.1 -0.375 0.00370751
0.797314 0.1 0.375 0.00370429
0 0.1 -0.88201 0.00375
0 0.1 0.88201 0.00375
0.0363518 0.1 0.88201 0.00375057
0.0363518 0.1 -0.88201 0.00375042
0.871687 0.1 0.15 0.003715
0.871687 0.1 -0.15 0.00371785
0.714971 0.1 0.525 0.00370182
0.714971 0.1 -0.525 0.00370345
0.219993 0.1 0.8625 0.00374253
0.219992 0.1 -0.8625 0.00374238
0 0.1 0.9 0.00375
0 0.1 -0.9 0.00375
0.756813 0.1 0.4875 0.00370161
0.756814 0.1 -0.4875 0.00370332
0.871687 0.1 0.225 0.00371306
0.871687 0.1 -0.225 0.00371645
0.835106 0.1 -0.3375 0.00371004
0.835106 0.1 0.3375 0.00370661
0.41063 0.1 0.80701 0.00372376
0.90582 0.1 -0.0375 0.00372255
0.905821 0.1 0.0375 0.00372189
0.522865 0.1 0.746002 0.00371234
0.150379 0.1 0.9 0.00374681
0.90582 0.1 0.1125 0.00372034
0.905821 0.1 -0.1125 0.00372228
0.522865 0.1 -0.75 0.00371379
0.574156 0.1 0.7125 0.00370727
0.574156 0.1 -0.7125 0.00370903
0.797314 0.1 -0.45 0.0037051
0.797314 0.1 0.45 0.00370332
0.467897 0.1 -0.7875 0.00371897
0.467897 0.1 0.7875 0.00371771
0.150379 0.1 -0.903998 0.00374642
0 0.1 0.91799 0.00375
0 0.1 -0.91799 0.00375
0.0363518 0.1 0.91799 0.00375072
0.0363518 0.1 -0.91799 0.00375056
0.623803 0.1 0.675 0.0037041
0.623803 0.1 -0.675 0.00370564
0.411108 0.1 -0.825 0.00372469
0.871687 0.1 0.3 0.00371118
0.871687 0.1 -0.3 0.00371426
0.67013 0.1 -0.6375 0.00370279
0.67013 0.1 0.6375 0.0037014
0.90582 0.1 -0.1875 0.00372094
0.90582 0.1 0.1875 0.00371822
0.350249 0.1 0.8625 0.00373035
0.350249 0.1 -0.8625 0.00373081
0.835106 0.1 -0.4125 0.00370731
0.835106 0.1 0.4125 0.00370527
0.714971 0.1 -0.6 0.0037016
0.714971 0.1 0.6 0.00370069
0.93886 0.1 -1.15648e-17 0.00372824
0.075776 0.1 0.9375 0.00375119
0.075776 0.1 -0.9375 0.00375085
0.93886 0.1 0.075 0.00372723
0.93886 0.1 -0.075 0.00372823
0.756813 0.1 0.5625 0.00370037
0.756814 0.1 -0.5625 0.00370099
0.905821 0.1 -0.2625 0.00371868
0.905821 0.1 0.2625 0.00371593
0.287374 0.1 0.9 0.00373658
0.287374 0.1 -0.903998 0.00373648
0.871687 0.1 0.375 0.00370935
0.871687 0.1 -0.375 0.0037113
0.93886 0.1 -0.15 0.00372712
0.93886 0.1 0.15 0.00372533
0.797314 0.1 0.525 0.00370194
0.797314 0.1 -0.525 0.00370231
0 0.1 0.95701 0.00375
0 0.1 -0.95701 0.00375
0.0363518 0.1 0.95701 0.00375072
0.0363518 0.1 -0.95701 0.00375056
0.522433 0.1 0.80701 0.00371244
0.219992 0.1 0.9375 0.003743
0.219992 0.1 -0.9375 0.00374273
0.93886 0.1 0.225 0.0037229
0.93886 0.1 -0.225 0.00372494
0.90582 0.1 0.3375 0.00371368
0.905821 0.1 -0.3375 0.00371567
0.835106 0.1 -0.4875 0.00370411
0.835107 0.1 0.4875 0.00370379
0.969689 0.1 -0.0375 0.00373411
0.969689 0.1 0.0375 0.00373376
0.61613 0.1 0.75 0.00370348
0.574156 0.1 -0.7875 0.00370858
0.574156 0.1 0.7875 0.00370715
0 0.1 0.975 0.00375
0 0.1 -0.975 0.00375
0.623803 0.1 -0.75 0.00370468
0.969689 0.1 -0.1125 0.00373335
0.969689 0.1 0.1125 0.00373226
0.522865 0.1 -0.825 0.00371356
0.67013 0.1 0.7125 0.00370034
0.67013 0.1 -0.7125 0.00370137
0.871687 0.1 -0.45 0.00370768
0.871687 0.1 0.45 0.00370743
0.467897 0.1 0.8625 0.00371816
0.467897 0.1 -0.8625 0.00371898
0.714971 0.1 -0.675 0.00369962
0.714971 0.1 0.675 0.00369921
0.93886 0.1 -0.3 0.00372183
0.93886 0.1 0.3 0.00372028
0.150379 0.1 0.975 0.00374714
0.150379 0.1 -0.975 0.00374681
0.969689 0.1 -0.1875 0.0037313
0.969689 0.1 0.1875 0.00372985
0.411108 0.1 0.9 0.00372437
0.756813 0.1 0.6375 0.00369856
0.756814 0.1 -0.6375 0.00369846
0.990306 0.1 -2.19732e-17 0.003735
0 0.1 0.99299 0.00375
0 0.1 -0.99299 0.00375
0.411108 0.1 -0.903998 0.00372469
0.990306 0.1 -0.075 0.00373471
0.990306 0.1 0.075 0.00373412
0.0363518 0.1 0.99299 0.00375083
0.0363518 0.1 -0.99299 0.00375066
0.90582 0.1 -0.4125 0.00371172
0.905821 0.1 0.4125 0.00371133
0.797314 0.1 -0.6 0.00369922
0.797314 0.1 0.6 0.00369995
0.350249 0.1 0.9375 0.00373092
0.350249 0.1 -0.9375 0.00373107
0.990306 0.1 0.15 0.00373216
0.990306 0.1 -0.15 0.00373318
0.969689 0.1 -0.2625 0.00372822
0.969689 0.1 0.2625 0.00372696
0.835106 0.1 -0.5625 0.00370054
0.835106 0.1 0.5625 0.00370167
0.93886 0.1 -0.375 0.00371771
0.93886 0.1 0.375 0.00371755
0.075776 0.1 1.0125 0.00375142
0.075776 0.1 -1.0125 0.00375107
0.990306 0.1 -0.225 0.00373046
0.990306 0.1 0.225 0.00372942
0.287374 0.1 0.975 0.00373703
0.287374 0.1 -0.975 0.00373687
0.871687 0.1 -0.525 0.00370358
0.871687 0.1 0.525 0.00370512
1.02149 0.1 -0.0369628 0.00374192
1.02149 0.1 0.0369628 0.00374179
0.969689 0.1 -0.3375 0.00372415
0.969689 0.1 0.3375 0.00372391
1.02149 0.1 -0.110888 0.00374081
1.02149 0.1 0.110888 0.00374042
0.90582 0.1 0.4875 0.00370885
0.90582 0.1 -0.4875 0.00370717
0.623803 0.1 0.819003 0.00370255
0 0.1 1.03201 0.00375
0 0.1 -1.03201 0.00375
0.0363518 0.1 1.03201 0.00375083
0.0363518 0.1 -1.03201 0.00375066
0.67013 0.1 -0.7875 0.00369988
0.67013 0.1 0.7875 0.00369927
0.623803 0.1 -0.825 0.00370367
0.990306 0.1 -0.3 0.00372668
0.990306 0.1 0.3 0.00372628
0.219992 0.1 -1.0125 0.00374295
0.219993 0.1 1.0125 0.00374334
0.574156 0.1 0.8625 0.00370709
0.574157 0.1 -0.8625 0.00370801
0.714971 0.1 -0.75 0.00369755
0.714971 0.1 0.75 0.00369759
1.02149 0.1 0.184814 0.00373794
1.02149 0.1 -0.184814 0.00373833
0.756814 0.1 -0.7125 0.00369584
0.756814 0.1 0.7125 0.00369643
0.522865 0.1 0.9 0.00371262
0.93886 0.1 -0.45 0.00371272
0.93886 0.1 0.45 0.00371465
1.04168 0.1 0 0.00374671
1.04168 0.1 -0.0729162 0.00374613
1.04168 0.1 0.0729162 0.00374603
0.522865 0.1 -0.903998 0.00371312
0.797314 0.1 -0.675 0.00369594
0.797314 0.1 0.675 0.00369744
0.467897 0.1 0.9375 0.0037185
0.467897 0.1 -0.9375 0.00371886
0 0.1 1.05 0.00375
0 0.1 -1.05 0.00375
0.835106 0.1 -0.6375 0.00369667
0.835106 0.1 0.6375 0.00369889
1.04168 0.1 -0.145832 0.00374421
1.04168 0.1 0.145832 0.00374412
1.02149 0.1 -0.25874 0.00373475
1.02149 0.1 0.25874 0.00373472
0.969689 0.1 -0.4125 0.00371873
0.969689 0.1 0.4125 0.00372066
0.411108 0.1 0.975 0.00372476
0.411108 0.1 -0.975 0.00372484
0.871687 0.1 -0.6 0.00369909
0.871687 0.1 0.6 0.00370214
1.0579 0.1 -0.0360525 0.00375094
1.0579 0.1 0.0360525 0.00375097
0.990306 0.1 -0.375 0.00372164
0.990306 0.1 0.375 0.00372291
0.150379 0.1 1.05 0.00374738
0.150379 0.1 -1.05 0.00374699
1.0579 0.1 0.108157 0.00374972
1.0579 0.1 -0.108157 0.00374962
1.04168 0.1 -0.218749 0.00374103
1.04168 0.1 0.218749 0.00374122
0.90582 0.1 -0.5625 0.00370213
0.90582 0.1 0.5625 0.00370572
0 0.1 -1.06799 0.00375
0 0.1 1.06799 0.00375
0.0363518 0.1 -1.06799 0.00375074
0.0363518 0.1 1.06799 0.00375091
0.350249 0.1 1.0125 0.00373134
0.350249 0.1 -1.0125 0.00373121
1.0579 0.1 -0.180262 0.0037469
1.0579 0.1 0.180262 0.00374728
1.02149 0.1 -0.332665 0.00372995
1.02149 0.1 0.332665 0.00373109
0.93886 0.1 -0.525 0.0037072
0.93886 0.1 0.525 0.00371135
1.08012 0.1 5.49329e-18 0.00375715
1.04168 0.1 -0.291665 0.00373665
1.04168 0.1 0.291665 0.00373766
1.08012 0.1 0.0709941 0.00375661
1.08012 0.1 -0.0709941 0.0037564
0.969689 0.1 -0.4875 0.00371277
0.96969 0.1 0.4875 0.00371719
1.0579 0.1 0.252367 0.00374394
1.0579 0.1 -0.252367 0.00374303
0.990306 0.1 -0.45 0.00371564
0.990306 0.1 0.45 0.0037193
0.287374 0.1 -1.05 0.003737
0.287374 0.1 1.05 0.00373735
0.714971 0.1 0.821002 0.00369605
1.08012 0.1 -0.141988 0.00375427
1.08012 0.1 0.141988 0.0037548
0.075776 0.1 1.0875 0.00375157
0.075776 0.1 -1.0875 0.00375123
0.714971 0.1 -0.825 0.00369543
0.756813 0.1 -0.7875 0.00369312
0.756814 0.1 0.7875 0.00369425
0.67013 0.1 -0.8625 0.00369838
0.67013 0.1 0.8625 0.00369828
0.797314 0.1 -0.75 0.00369255
0.797314 0.1 0.75 0.00369468
0.623803 0.1 0.9 0.00370241
0.835106 0.1 -0.7125 0.00369262
0.835106 0.1 0.7125 0.00369563
0.623803 0.1 -0.903998 0.00370258
0.574156 0.1 0.9375 0.00370703
0.574156 0.1 -0.9375 0.00370724
1.02149 0.1 -0.406591 0.00372367
1.02149 0.1 0.406591 0.00372717
1.08012 0.1 -0.212982 0.00375084
1.08012 0.1 0.212982 0.00375189
1.10076 0.1 -0.0349809 0.00376291
1.10076 0.1 0.0349809 0.00376307
0.871687 0.1 -0.675 0.00369431
0.871687 0.1 0.675 0.00369854
1.04168 0.1 -0.364581 0.00373084
1.04168 0.1 0.364581 0.00373369
1.10076 0.1 -0.104943 0.00376141
1.10076 0.1 0.104943 0.00376196
0.522865 0.1 0.975 0.0037127
0.522865 0.1 -0.975 0.00371272
1.0579 0.1 -0.324472 0.00373781
1.0579 0.1 0.324472 0.00374004
0 0.1 -1.10701 0.00375
0 0.1 1.10701 0.00375
0.0363518 0.1 1.10701 0.00375091
0.0363518 0.1 -1.10701 0.00375074
0.90582 0.1 0.6375 0.00370187
0.905821 0.1 -0.6375 0.00369668
0.219992 0.1 1.0875 0.00374357
0.219992 0.1 -1.0875 0.00374307
0.93886 0.1 0.6 0.00370729
0.93886 0.1 -0.6 0.00370124
1.10076 0.1 -0.174905 0.00375847
1.10076 0.1 0.174905 0.00375955
0.467897 0.1 1.0125 0.00371874
0.467897 0.1 -1.0125 0.00371866
1.08012 0.1 -0.283976 0.00374613
1.08012 0.1 0.283976 0.00374816
1.11928 0.1 3.93204e-18 0.00376852
0.990306 0.1 -0.525 0.00370911
0.990306 0.1 0.525 0.00371526
0.96969 0.1 -0.5625 0.00370627
0.969689 0.1 0.5625 0.0037131
1.11928 0.1 -0.0690357 0.00376763
1.11928 0.1 0.0690357 0.0037681
0 0.1 1.125 0.00375
0 0.1 -1.125 0.00375
0.411108 0.1 -1.05 0.00372477
0.411108 0.1 1.05 0.00372503
1.10076 0.1 0.244866 0.00375612
1.10076 0.1 -0.244866 0.00375434
1.11928 0.1 -0.138072 0.00376535
1.11928 0.1 0.138072 0.00376639
1.02149 0.1 0.480517 0.00372292
1.02149 0.1 -0.480517 0.00371682
1.0579 0.1 -0.396577 0.00373106
1.0579 0.1 0.396577 0.00373575
1.04168 0.1 -0.437497 0.00372396
1.04168 0.1 0.437497 0.00372938
0.150379 0.1 1.125 0.00374753
0.150379 0.1 -1.125 0.00374709
0.714971 0.1 0.88201 0.00369357
1.08012 0.1 0.354971 0.0037439
1.08012 0.1 -0.354971 0.00373991
1.11928 0.1 -0.207107 0.00376175
1.11928 0.1 0.207107 0.00376349
0.350249 0.1 -1.0875 0.00373125
0.350249 0.1 1.0875 0.00373163
0 0.1 1.14299 0.00375
0 0.1 -1.14299 0.00375
0.0363518 0.1 1.14299 0.00375095
0.0363518 0.1 -1.14299 0.00375078
1.14316 0.1 -0.0339211 0.00377588
1.14316 0.1 0.0339211 0.00377618
0.797314 0.1 0.821002 0.00369204
1.10076 0.1 -0.314829 0.00374874
1.10076 0.1 0.314829 0.00375195
0.797314 0.1 -0.825 0.00368914
0.756814 0.1 -0.8625 0.0036904
0.756814 0.1 0.8625 0.00369212
1.14316 0.1 -0.101763 0.00377423
1.14316 0.1 0.101763 0.0037752
0.835106 0.1 -0.7875 0.0036885
0.835106 0.1 0.7875 0.00369219
0.871687 0.1 -0.75 0.00368946
0.871687 0.1 0.75 0.00369451
0.67013 0.1 0.9375 0.00369741
0.67013 0.1 -0.9375 0.00369685
0.90582 0.1 -0.7125 0.00369099
0.905821 0.1 0.7125 0.00369737
0.714971 0.1 -0.903998 0.00369346
1.11928 0.1 0.276143 0.00375966
1.11928 0.1 -0.276143 0.00375678
1.14316 0.1 0.169605 0.00377293
1.14316 0.1 -0.169605 0.00377117
0.93886 0.1 -0.675 0.00369499
0.93886 0.1 0.675 0.00370247
1.15704 0.1 0 0.00378037
1.0579 0.1 0.468682 0.00373106
1.0579 0.1 -0.468682 0.00372364
0.623803 0.1 0.975 0.00370192
0.623803 0.1 -0.975 0.0037014
0.990306 0.1 0.6 0.00371037
0.990306 0.1 -0.6 0.0037021
1.15704 0.1 -0.0671479 0.00377938
1.15704 0.1 0.0671479 0.00378004
1.04168 0.1 -0.510414 0.00371657
1.04168 0.1 0.510414 0.00372462
0.969689 0.1 -0.6375 0.00369943
0.969689 0.1 0.6375 0.00370793
1.08012 0.1 0.425965 0.00373921
1.08012 0.1 -0.425965 0.0037325
0.287374 0.1 -1.125 0.00373704
0.287374 0.1 1.125 0.00373754
1.02149 0.1 -0.554443 0.00370945
1.02149 0.1 0.554443 0.00371811
0.574156 0.1 1.0125 0.00370688
0.574156 0.1 -1.0125 0.00370646
1.15704 0.1 -0.134296 0.003777
1.15704 0.1 0.134296 0.00377844
0.075776 0.1 1.1625 0.00375167
0.075776 0.1 -1.1625 0.00375133
1.10076 0.1 -0.384791 0.00374151
1.10076 0.1 0.384791 0.0037473
1.14316 0.1 -0.237448 0.00376682
1.14316 0.1 0.237448 0.00376953
1.11928 0.1 -0.345179 0.00375023
1.11928 0.1 0.345179 0.00375517
0.522865 0.1 1.05 0.00371269
0.522865 0.1 -1.05 0.00371222
1.15704 0.1 -0.201444 0.00377328
1.15704 0.1 0.201444 0.0037756
1.1744 0.1 -0.0331401 0.00378558
1.1744 0.1 0.0331401 0.0037859
1.1744 0.1 -0.0994202 0.0037839
1.1744 0.1 0.0994202 0.003785
0 0.1 1.18201 0.00375
0 0.1 -1.18201 0.00375
0.0363518 0.1 1.18201 0.00375095
0.0363518 0.1 -1.18201 0.00375078
0.219992 0.1 1.1625 0.00374369
0.219993 0.1 -1.1625 0.00374311
1.14316 0.1 0.30529 0.00376527
1.14316 0.1 -0.30529 0.00376092
0.467897 0.1 1.0875 0.00371887
0.467897 0.1 -1.0875 0.00371841
1.1744 0.1 -0.1657 0.00378082
1.1744 0.1 0.1657 0.00378279
1.15704 0.1 -0.268592 0.00376813
1.15704 0.1 0.268592 0.00377174
1.0579 0.1 0.540787 0.00372584
1.0579 0.1 -0.540787 0.00371582
0.796996 0.1 0.88201 0.00368984
1.08012 0.1 -0.496959 0.00372461
1.08012 0.1 0.496959 0.00373403
1.10076 0.1 0.454752 0.00374217
1.10076 0.1 -0.454752 0.00373343
1.11928 0.1 -0.414214 0.00374239
1.11928 0.1 0.414214 0.00375016
1.04168 0.1 -0.58333 0.00370859
1.04168 0.1 0.58333 0.00371906
1.1744 0.1 -0.231981 0.00377647
1.1744 0.1 0.231981 0.00377943
0.871687 0.1 0.821002 0.00369054
0.411108 0.1 1.125 0.00372517
0.411108 0.1 -1.125 0.00372461
1.19808 0.1 1.73472e-17 0.00379435
0.990306 0.1 0.675 0.00370467
0.990306 0.1 -0.675 0.00369483
1.02149 0.1 0.628368 0.00371224
1.02149 0.1 -0.628368 0.00370155
1.19808 0.1 -0.0650961 0.00379328
1.19808 0.1 0.0650961 0.00379413
0 0.1 1.2 0.00375
0 0.1 -1.2 0.00375
0.871687 0.1 -0.825 0.00368463
0.905821 0.1 -0.7875 0.00368549
0.90582 0.1 0.7875 0.00369251
0.835106 0.1 -0.8625 0.00368446
0.835106 0.1 0.8625 0.00368877
0.93886 0.1 -0.75 0.00368867
0.93886 0.1 0.75 0.00369717
1.14316 0.1 -0.373132 0.00375341
1.14316 0.1 0.373132 0.00376038
0.969689 0.1 0.7125 0.0037022
0.969689 0.1 -0.7125 0.00369247
1.15704 0.1 -0.33574 0.00376136
1.15704 0.1 0.33574 0.00376709
0.756813 0.1 0.9375 0.00369013
0.756814 0.1 -0.9375 0.00368784
1.19808 0.1 0.130192 0.00379264
1.19808 0.1 -0.130192 0.00379085
0.797314 0.1 -0.903998 0.00368608
0.714971 0.1 0.975 0.00369309
0.714971 0.1 -0.975 0.00369131
0.150379 0.1 1.2 0.0037476
0.150379 0.1 -1.2 0.00374713
1.20938 0.1 -0.0322656 0.00379752
1.20938 0.1 0.0322656 0.00379791
1.1744 0.1 -0.298261 0.00377049
1.1744 0.1 0.298261 0.00377513
1.20938 0.1 -0.0967968 0.00379576
1.20938 0.1 0.0967968 0.0037971
1.19808 0.1 -0.195288 0.00378709
1.19808 0.1 0.195288 0.00378991
0.350249 0.1 1.1625 0.00373177
0.350249 0.1 -1.1625 0.00373119
0.67013 0.1 1.0125 0.00369656
0.67013 0.1 -1.0125 0.00369531
0 0.1 1.21799 0.00375
0 0.1 -1.21799 0.00375
0.0363518 0.1 -1.21799 0.0037508
0.0363518 0.1 1.21799 0.00375097
1.11928 0.1 -0.48325 0.00373406
1.11928 0.1 0.48325 0.00374462
1.10076 0.1 -0.524714 0.0037252
1.10076 0.1 0.524714 0.00373652
1.20938 0.1 0.161328 0.00379499
1.20938 0.1 -0.161328 0.00379265
1.08012 0.1 0.567953 0.0037281
1.08012 0.1 -0.567953 0.00371608
0.623803 0.1 1.05 0.00370139
0.623803 0.1 -1.05 0.00370027
1.0579 0.1 -0.612892 0.00370722
1.0579 0.1 0.612892 0.00371961
1.15704 0.1 -0.402888 0.0037532
1.15704 0.1 0.402888 0.00376185
1.14316 0.1 0.440974 0.00375494
1.14316 0.1 -0.440974 0.0037449
1.19808 0.1 -0.260384 0.00378185
1.19808 0.1 0.260384 0.00378608
1.2267 0.1 3.57064e-18 0.00380462
1.2267 0.1 -0.0636649 0.00380348
1.2267 0.1 0.0636649 0.00380447
1.1744 0.1 -0.364541 0.00376288
1.1744 0.1 0.364541 0.00377014
0.574156 0.1 1.0875 0.00370665
0.574156 0.1 -1.0875 0.00370572
1.20938 0.1 0.225859 0.0037917
1.20938 0.1 -0.225859 0.00378825
1.04168 0.1 -0.656246 0.00370013
1.04168 0.1 0.656246 0.00371267
1.2267 0.1 -0.12733 0.00380099
1.2267 0.1 0.12733 0.00380307
0.287374 0.1 1.2 0.0037376
0.287374 0.1 -1.2 0.00373697
1.02149 0.1 -0.702294 0.00369343
1.02149 0.1 0.702294 0.0037058
0.075776 0.1 -1.2375 0.00375137
0.075776 0.1 1.2375 0.00375171
0.871399 0.1 0.88201 0.00368725
0.522865 0.1 1.125 0.00371258
0.522865 0.1 -1.125 0.00371168
1.2267 0.1 -0.190994 0.00379718
1.2267 0.1 0.190994 0.00380041
1.19808 0.1 -0.32548 0.00377498
1.19808 0.1 0.32548 0.00378138
0.990306 0.1 -0.75 0.00368739
0.990306 0.1 0.75 0.00369849
1.24274 0.1 -0.0314313 0.00380999
1.24274 0.1 0.0314313 0.00381047
1.20938 0.1 -0.29039 0.00378219
1.20938 0.1 0.29039 0.00378739
1.24274 0.1 -0.0942942 0.00380814
1.24274 0.1 0.0942942 0.00380977
0.93886 0.1 0.821002 0.00369187
1.11928 0.1 -0.552285 0.00372506
1.11928 0.1 0.552285 0.00373836
1.15704 0.1 -0.470036 0.00374451
1.15704 0.1 0.470036 0.00375602
0.969689 0.1 -0.7875 0.00368537
0.96969 0.1 0.7875 0.00369612
0.93886 0.1 -0.825 0.00368232
0.90582 0.1 0.8625 0.00368757
0.905821 0.1 -0.8625 0.0036799
1.1744 0.1 -0.430821 0.00375409
1.1744 0.1 0.430821 0.00376456
1.10076 0.1 -0.594676 0.00371584
1.10076 0.1 0.594676 0.00372991
1.14316 0.1 -0.508816 0.00373622
1.14316 0.1 0.508816 0.00374891
1.24274 0.1 -0.157157 0.00380496
1.24274 0.1 0.157157 0.00380775
1.2267 0.1 -0.254659 0.00379189
1.2267 0.1 0.254659 0.00379662
0.467897 0.1 1.1625 0.00371888
0.467897 0.1 -1.1625 0.00371807
1.08012 0.1 0.638947 0.00372133
1.08012 0.1 -0.638947 0.00370683
1.25511 0.1 -5.78241e-19 0.0038157
0.835106 0.1 -0.9375 0.00368058
0.835106 0.1 0.9375 0.00368548
0.871687 0.1 -0.903998 0.00368032
1.25511 0.1 0.0622446 0.00381567
1.25511 0.1 -0.0622446 0.00381443
0.219992 0.1 1.2375 0.00374371
0.219992 0.1 -1.2375 0.00374308
0 0.1 -1.25701 0.00375
0 0.1 1.25701 0.00375
0.0363518 0.1 -1.25701 0.0037508
0.0363518 0.1 1.25701 0.00375097
0.797314 0.1 0.975 0.0036866
0.797314 0.1 -0.975 0.0036827
1.19808 0.1 -0.390576 0.00376663
1.19808 0.1 0.390576 0.00377599
1.0579 0.1 -0.684997 0.00369825
1.0579 0.1 0.684997 0.00371278
1.20938 0.1 -0.354921 0.0037745
1.20938 0.1 0.354921 0.00378229
1.25511 0.1 0.124489 0.00381438
1.25511 0.1 -0.124489 0.0038118
1.24274 0.1 -0.220019 0.00380049
1.24274 0.1 0.220019 0.00380453
0.756813 0.1 1.0125 0.00368832
0.756814 0.1 -1.0125 0.00368537
1.2267 0.1 -0.318324 0.00378496
1.2267 0.1 0.318324 0.00379188
0.411108 0.1 1.2 0.00372517
0.411108 0.1 -1.2 0.00372435
1.25511 0.1 -0.186734 0.00380786
1.25511 0.1 0.186734 0.00381179
0.714971 0.1 1.05 0.00369177
0.714971 0.1 -1.05 0.00368938
1.04168 0.1 -0.729162 0.0036914
1.04168 0.1 0.729162 0.00370572
1.24274 0.1 0.282882 0.00380022
1.24274 0.1 -0.282882 0.00379436
0 0.1 1.275 0.00375
0 0.1 -1.275 0.00375
1.1744 0.1 0.497102 0.00375837
1.1744 0.1 -0.497102 0.00374532
1.15704 0.1 -0.537184 0.00373515
1.15704 0.1 0.537184 0.00374951
1.2756 0.1 -0.03061 0.00382414
1.2756 0.1 0.03061 0.0038248
0.67013 0.1 1.0875 0.00369571
0.67013 0.1 -1.0875 0.00369387
1.2756 0.1 -0.09183 0.00382211
1.2756 0.1 0.09183 0.00382423
1.25511 0.1 -0.248978 0.00380243
1.25511 0.1 0.248978 0.00380803
1.20938 0.1 0.419453 0.00377657
1.20938 0.1 -0.419453 0.00376547
1.11928 0.1 -0.621322 0.00371509
1.11928 0.1 0.621322 0.00373125
1.14316 0.1 -0.576659 0.00372632
1.14316 0.1 0.576659 0.00374205
1.19808 0.1 -0.455673 0.00375767
1.19808 0.1 0.455673 0.00376997
1.02149 0.1 0.776219 0.00369887
1.02149 0.1 -0.776219 0.00368507
0.150379 0.1 1.275 0.0037476
0.150379 0.1 -1.275 0.0037471
1.2756 0.1 -0.15305 0.00381874
1.2756 0.1 0.15305 0.00382234
1.2267 0.1 -0.381989 0.00377651
1.2267 0.1 0.381989 0.00378639
1.10076 0.1 -0.664638 0.00370588
1.10076 0.1 0.664638 0.00372261