# nutMean  POINT_DATA 63140
# x  y  z  nutMean
0 0.1 0 0.0053182
0 0.1 -0.0179898 0.00532645
0 0.1 0.0179898 0.00530995
0.0363518 0.1 0.0179898 0.0119243
0.0363518 0.1 -0.0179898 0.0117064
0 0.1 -0.0570102 0.00535508
0 0.1 0.0570102 0.00530323
0.0363518 0.1 0.0570102 0.0119175
0.0363518 0.1 -0.0570102 0.0117351
0 0.1 -0.075 0.00537329
0 0.1 0.075 0.00530504
0.075776 0.1 -0.0375 0.0184539
0.075776 0.1 0.0375 0.0189044
0 0.1 -0.0929898 0.00539231
0 0.1 0.0929898 0.00530672
0.0363518 0.1 -0.0929898 0.011193
0.0363518 0.1 0.0929898 0.0115307
0 0.1 -0.13201 0.0054296
0 0.1 0.13201 0.0053191
0.075776 0.1 -0.1125 0.0173234
0.075776 0.1 0.1125 0.0181146
0.0363518 0.1 -0.13201 0.0112303
0.0363518 0.1 0.13201 0.011543
0 0.1 -0.15 0.00544575
0 0.1 0.15 0.00532846
0.150379 0.1 -2.22623e-17 0.0178604
0 0.1 -0.16799 0.0054636
0 0.1 0.16799 0.0053383
0.150379 0.1 -0.075 0.0165912
0.150379 0.1 0.075 0.0176403
0.0363518 0.1 -0.16799 0.0105303
0.0363518 0.1 0.16799 0.0107638
0.075776 0.1 -0.1875 0.0159102
0.075776 0.1 0.1875 0.0165097
0 0.1 -0.20701 0.00548785
0 0.1 0.20701 0.00535987
0.0363518 0.1 -0.20701 0.0105545
0.0363518 0.1 0.20701 0.0107854
0.150379 0.1 -0.15 0.0149216
0.150379 0.1 0.15 0.016095
0.219993 0.1 -0.0375 0.0168867
0.219993 0.1 0.0375 0.0172659
0 0.1 -0.225 0.00549483
0 0.1 0.225 0.00537025
0 0.1 -0.24299 0.00550309
0 0.1 0.24299 0.00538191
0.0363518 0.1 0.24299 0.00999215
0.0363518 0.1 -0.24299 0.0100974
0.219993 0.1 -0.1125 0.0137995
0.219993 0.1 0.1125 0.0163419
0.150379 0.1 -0.225 0.0140921
0.150379 0.1 0.225 0.0143484
0.075776 0.1 -0.2625 0.0150079
0.075776 0.1 0.2625 0.0149012
0 0.1 -0.28201 0.00550885
0 0.1 0.28201 0.00539612
0.0363518 0.1 -0.28201 0.0101031
0.0363518 0.1 0.28201 0.0100064
0.287374 0.1 -2.89121e-19 0.0136399
0.219992 0.1 0.1875 0.0134961
0.219992 0.1 -0.1875 0.0127781
0.287374 0.1 -0.075 0.0126734
0.287374 0.1 0.075 0.0135283
0 0.1 -0.3 0.00550778
0 0.1 0.3 0.00539914
0 0.1 0.31799 0.00540331
0 0.1 -0.31799 0.00550715
0.0363518 0.1 -0.31799 0.00985053
0.0363518 0.1 0.31799 0.00950864
0.287374 0.1 0.15 0.012522
0.287374 0.1 -0.15 0.0115553
0.150379 0.1 -0.3 0.0136539
0.150379 0.1 0.3 0.0133968
0.219993 0.1 0.2625 0.0125816
0.219993 0.1 -0.2625 0.012779
0.075776 0.1 -0.3375 0.014491
0.075776 0.1 0.3375 0.013901
0.350249 0.1 -0.0375 0.0102721
0.350249 0.1 0.0375 0.0104168
0 0.1 -0.35701 0.00550074
0 0.1 0.35701 0.00540246
0.0363518 0.1 -0.35701 0.00984412
0.0363518 0.1 0.35701 0.00950779
0.287374 0.1 -0.225 0.0112905
0.287374 0.1 0.225 0.0114816
0.350249 0.1 -0.1125 0.00995331
0.350249 0.1 0.1125 0.0103489
0 0.1 -0.375 0.00549621
0 0.1 0.375 0.00539887
0 0.1 -0.39299 0.00549199
0 0.1 0.39299 0.00539586
0.0363518 0.1 -0.39299 0.00956216
0.0363518 0.1 0.39299 0.00923028
0.350249 0.1 -0.1875 0.00983147
0.350249 0.1 0.1875 0.0100846
0.219992 0.1 -0.3375 0.0124244
0.219992 0.1 0.3375 0.0122773
0.150379 0.1 0.375 0.0129884
0.150379 0.1 -0.375 0.0135521
0.411108 0.1 4.33681e-19 0.00856168
0.287374 0.1 -0.3 0.0112534
0.287374 0.1 0.3 0.0111372
0.411108 0.1 -0.075 0.00843659
0.411108 0.1 0.075 0.00859312
0.075776 0.1 -0.4125 0.0139183
0.075776 0.1 0.4125 0.0133378
0 0.1 0.43201 0.00538359
0 0.1 -0.43201 0.00547405
0.0363518 0.1 0.43201 0.00921801
0.0363518 0.1 -0.43201 0.00954422
0.411108 0.1 -0.15 0.00832453
0.411108 0.1 0.15 0.0085202
0.350249 0.1 -0.2625 0.00990113
0.350249 0.1 0.2625 0.00988544
0 0.1 -0.45 0.00546245
0 0.1 0.45 0.00537603
0.219992 0.1 0.4125 0.0124828
0.219992 0.1 -0.4125 0.0134253
0 0.1 -0.46799 0.00545069
0 0.1 0.46799 0.00536862
0.411108 0.1 -0.225 0.00833387
0.411108 0.1 0.225 0.00841468
0.467897 0.1 -0.0375 0.00683644
0.467897 0.1 0.0375 0.00686353
0.0363518 0.1 0.46799 0.00897057
0.0363518 0.1 -0.46799 0.00928029
0.287374 0.1 -0.375 0.0114844
0.287374 0.1 0.375 0.0111561
0.150379 0.1 0.45 0.0131641
0.150379 0.1 -0.45 0.0137543
0.467897 0.1 0.1125 0.00688604
0.467897 0.1 -0.1125 0.00681733
0.350249 0.1 -0.3375 0.0100243
0.350249 0.1 0.3375 0.00991122
0.075776 0.1 -0.4875 0.0133816
0.075776 0.1 0.4875 0.0128353
0.467897 0.1 0.1875 0.00689575
0.467897 0.1 -0.1875 0.00682014
0 0.1 -0.50701 0.00542438
0 0.1 0.50701 0.00534745
0.0363518 0.1 -0.50701 0.00925399
0.0363518 0.1 0.50701 0.00894939
0.411108 0.1 0.3 0.00839226
0.411108 0.1 -0.3 0.00843361
0.522865 0.1 1.41031e-17 0.005906
0 0.1 -0.525 0.00541202
0 0.1 0.525 0.00533571
0.522865 0.1 -0.075 0.00590105
0.522865 0.1 0.075 0.00592361
0.287374 0.1 0.45 0.011673
0.287374 0.1 -0.45 0.0120309
0.219992 0.1 0.4875 0.0139914
0.219992 0.1 -0.4875 0.0142803
0.467897 0.1 -0.2625 0.00690552
0.467897 0.1 0.2625 0.00691687
0.350249 0.1 -0.4125 0.0101953
0.350249 0.1 0.4125 0.0100582
0 0.1 -0.54299 0.00539886
0 0.1 0.54299 0.00532358
0.522865 0.1 0.15 0.00594712
0.522865 0.1 -0.15 0.00591553
0.0363518 0.1 0.54299 0.00873214
0.0363518 0.1 -0.54299 0.009016
0.150379 0.1 -0.525 0.0137101
0.150379 0.1 0.525 0.0134159
0.411108 0.1 -0.375 0.00857938
0.411108 0.1 0.375 0.00848419
0.075776 0.1 -0.5625 0.0128938
0.075776 0.1 0.5625 0.0123916
0.522865 0.1 -0.225 0.00597018
0.522865 0.1 0.225 0.00597913
0.574156 0.1 0.0375 0.00499746
0.574157 0.1 -0.0375 0.00499824
0.467897 0.1 -0.3375 0.00702771
0.467897 0.1 0.3375 0.00697527
0 0.1 -0.58201 0.00537339
0 0.1 0.58201 0.00529879
0.0363518 0.1 -0.58201 0.00899052
0.0363518 0.1 0.58201 0.00870735
0.574157 0.1 -0.1125 0.0050224
0.574157 0.1 0.1125 0.00501965
0.287374 0.1 -0.525 0.0123159
0.287374 0.1 0.525 0.01226
0 0.1 -0.6 0.00536257
0 0.1 0.6 0.00528787
0.350249 0.1 0.4875 0.010303
0.350249 0.1 -0.4875 0.0103946
0.522865 0.1 -0.3 0.00607016
0.522865 0.1 0.3 0.00603417
0.219992 0.1 -0.5625 0.0142308
0.219992 0.1 0.5625 0.0143756
0.574156 0.1 -0.1875 0.00507067
0.574156 0.1 0.1875 0.00505867
0.411108 0.1 0.45 0.00866774
0.411108 0.1 -0.45 0.00876584
0 0.1 -0.61799 0.0053508
0 0.1 0.61799 0.00527623
0.150379 0.1 -0.6 0.0134161
0.150379 0.1 0.6 0.0132408
0.0363518 0.1 -0.61799 0.00877783
0.0363518 0.1 0.61799 0.00851577
0.467897 0.1 -0.4125 0.00719647
0.467897 0.1 0.4125 0.00711276
0.623803 0.1 2.34188e-17 0.00445166
0.623803 0.1 0.075 0.0044594
0.623803 0.1 -0.075 0.00446758
0.574156 0.1 0.2625 0.00511548
0.574156 0.1 -0.2625 0.00515217
0.623803 0.1 0.15 0.00448863
0.623803 0.1 -0.15 0.00450701
0.075776 0.1 0.6375 0.0119976
0.075776 0.1 -0.6375 0.0124557
0.522865 0.1 -0.375 0.00620761
0.522865 0.1 0.375 0.0061325
0 0.1 0.65701 0.00525442
0 0.1 -0.65701 0.00532834
0.0363518 0.1 0.65701 0.00849396
0.0363518 0.1 -0.65701 0.00875536
0.350249 0.1 0.5625 0.0105459
0.350249 0.1 -0.5625 0.0105346
0.623803 0.1 0.225 0.00453634
0.623803 0.1 -0.225 0.00457018
0.287374 0.1 -0.6 0.0123127
0.287374 0.1 0.6 0.0123897
0.574157 0.1 -0.3375 0.00526364
0.574157 0.1 0.3375 0.00519817
0.411108 0.1 0.525 0.00890719
0.411108 0.1 -0.525 0.00895656
0.67013 0.1 0.0375 0.0039207
0.67013 0.1 -0.0375 0.00392855
0.219992 0.1 -0.6375 0.014014
0.219993 0.1 0.6375 0.0141042
0 0.1 -0.675 0.00531869
0 0.1 0.675 0.00524551
0.467897 0.1 -0.4875 0.00740552
0.467897 0.1 0.4875 0.0073204
0.67013 0.1 -0.1125 0.00395919
0.67013 0.1 0.1125 0.00393831
0.522865 0.1 0.45 0.00628804
0.522865 0.1 -0.45 0.00638525
0.150379 0.1 0.675 0.0129053
0.150379 0.1 -0.675 0.0131062
0.623803 0.1 0.3 0.00460635
0.623803 0.1 -0.3 0.00466323
0 0.1 -0.69299 0.00530809
0 0.1 0.69299 0.0052358
0.0363518 0.1 -0.69299 0.00857499
0.0363518 0.1 0.69299 0.00833014
0.67013 0.1 -0.1875 0.00401356
0.67013 0.1 0.1875 0.00397646
0.574156 0.1 0.4125 0.00531312
0.574157 0.1 -0.4125 0.00541207
0.714971 0.1 -2.8382e-17 0.0035642
0.075776 0.1 -0.7125 0.0120842
0.075776 0.1 0.7125 0.0116596
0.714971 0.1 -0.075 0.00358392
0.714971 0.1 0.075 0.00356731
0.67013 0.1 0.2625 0.00403331
0.67013 0.1 -0.2625 0.00408226
0.411108 0.1 -0.6 0.00911855
0.411108 0.1 0.6 0.00913771
0.350249 0.1 0.6375 0.0106985
0.350249 0.1 -0.6375 0.0106332
0.623803 0.1 0.375 0.0047014
0.623803 0.1 -0.375 0.00478914
0.714971 0.1 -0.15 0.0036255
0.714971 0.1 0.15 0.00359278
0.467897 0.1 -0.5625 0.00761979
0.467897 0.1 0.5625 0.00758521
0 0.1 -0.73201 0.00528849
0 0.1 0.73201 0.00521811
0.0363518 0.1 0.73201 0.00831245
0.0363518 0.1 -0.73201 0.00855539
0.287374 0.1 -0.675 0.012257
0.287374 0.1 0.675 0.0123007
0.522865 0.1 -0.525 0.0065929
0.522865 0.1 0.525 0.00649922
0.219993 0.1 -0.7125 0.0137915
0.219992 0.1 0.7125 0.0137612
0.714971 0.1 -0.225 0.00368703
0.714971 0.1 0.225 0.00363758
0 0.1 0.75 0.00521107
0 0.1 -0.75 0.00528039
0.67013 0.1 -0.3375 0.00419306
0.67013 0.1 0.3375 0.00411697
0.574156 0.1 -0.4875 0.00559773
0.574157 0.1 0.4875 0.00547687
0.756813 0.1 0.0375 0.00321009
0.756814 0.1 -0.0375 0.00322054
0.150379 0.1 0.746002 0.0125837
0.150379 0.1 -0.75 0.0128353
0.756813 0.1 -0.1125 0.00325042
0.756813 0.1 0.1125 0.00322333
0 0.1 0.76799 0.0052032
0 0.1 -0.76799 0.00527134
0.0363518 0.1 0.76799 0.00817833
0.0363518 0.1 -0.76799 0.00840736
0.623803 0.1 -0.45 0.00494655
0.623803 0.1 0.45 0.00483075
0.714971 0.1 -0.3 0.00377331
0.714971 0.1 0.3 0.00370368
0.756814 0.1 -0.1875 0.00330193
0.756814 0.1 0.1875 0.00325636
0.67013 0.1 -0.4125 0.00432635
0.67013 0.1 0.4125 0.00421615
0.411108 0.1 0.675 0.00932007
0.411108 0.1 -0.675 0.00926961
0.467897 0.1 0.6375 0.00784573
0.467897 0.1 -0.6375 0.00781065
0.075776 0.1 0.7875 0.0113827
0.075776 0.1 -0.7875 0.0117791
0.350249 0.1 -0.7125 0.0107352
0.350249 0.1 0.7125 0.010784
0.522865 0.1 -0.6 0.00681433
0.522865 0.1 0.6 0.00674515
0.797314 0.1 -3.59473e-17 0.00296022
0.287374 0.1 0.746002 0.0122116
0.797314 0.1 -0.075 0.00297953
0.797314 0.1 0.075 0.00296081
0.756814 0.1 -0.2625 0.00337347
0.756814 0.1 0.2625 0.00330766
0.287374 0.1 -0.75 0.0122133
0.574156 0.1 -0.5625 0.00581978
0.574156 0.1 0.5625 0.0056878
0 0.1 0.80701 0.00518949
0 0.1 -0.80701 0.00525524
0.714971 0.1 -0.375 0.00388754
0.714971 0.1 0.375 0.00379201
0.0363518 0.1 0.80701 0.00816461
0.0363518 0.1 -0.80701 0.00839126
0.797314 0.1 -0.15 0.00301812
0.797314 0.1 0.15 0.00298183
0.623803 0.1 -0.525 0.00513772
0.623803 0.1 0.525 0.00500283
0.219992 0.1 0.7875 0.0134526
0.219992 0.1 -0.7875 0.0136001
0.149792 0.1 0.80701 0.012383
0 0.1 0.825 0.00518441
0 0.1 -0.825 0.00524896
0.797314 0.1 -0.225 0.00307719
0.797314 0.1 0.225 0.00302101
0.756813 0.1 -0.3375 0.00346775
0.756813 0.1 0.3375 0.00338051
0.67013 0.1 0.4875 0.00435644
0.67013 0.1 -0.4875 0.00448934
0.835106 0.1 -0.0375 0.00271772
0.835106 0.1 0.0375 0.0027072
0.150379 0.1 -0.825 0.0126093
0.835106 0.1 -0.1125 0.00274414
0.835106 0.1 0.1125 0.00271735
0 0.1 -0.84299 0.00524173
0 0.1 0.84299 0.00517847
0.0363518 0.1 -0.84299 0.00827401
0.0363518 0.1 0.84299 0.00805996
0.714971 0.1 -0.45 0.00402788
0.714971 0.1 0.45 0.00390484
0.411108 0.1 0.746002 0.00948638
0.797314 0.1 -0.3 0.00315464
0.797314 0.1 0.3 0.00307865
0.467897 0.1 -0.7125 0.00801703
0.467897 0.1 0.7125 0.00807195
0.522865 0.1 0.675 0.00699796
0.522865 0.1 -0.675 0.00705169
0.411108 0.1 -0.75 0.00944913
0.835106 0.1 -0.1875 0.00279083
0.835107 0.1 0.1875 0.00274511
0.286844 0.1 0.80701 0.0121118
0.574156 0.1 0.6375 0.00593668
0.574157 0.1 -0.6375 0.0060758
0.350249 0.1 -0.7875 0.0108566
0.350249 0.1 0.7875 0.0108544
0.756813 0.1 -0.4125 0.00358681
0.756814 0.1 0.4125 0.00347834
0.623803 0.1 -0.6 0.0053627
0.623803 0.1 0.6 0.00521308
0.075776 0.1 0.8625 0.0111664
0.075776 0.1 -0.8625 0.0115373
0.871687 0.1 -3.2767e-18 0.00252297
0.287374 0.1 -0.825 0.0121931
0.871687 0.1 -0.075 0.00254051
0.871687 0.1 0.075 0.00252212
0.67013 0.1 -0.5625 0.00468423
0.67013 0.1 0.5625 0.00453095
0.835106 0.1 0.2625 0.00278992
0.835106 0.1 -0.2625 0.0028575
0.797314 0.1 -0.375 0.00325395
0.797314 0.1 0.375 0.00315806
0 0.1 -0.88201 0.00522957
0 0.1 0.88201 0.0051689
0.0363518 0.1 0.88201 0.00805038
0.0363518 0.1 -0.88201 0.00826185
0.871687 0.1 0.15 0.00253925
0.871687 0.1 -0.15 0.00257513
0.714971 0.1 0.525 0.00404924
0.714971 0.1 -0.525 0.00419756
0.219993 0.1 0.8625 0.0132159
0.219992 0.1 -0.8625 0.0134291
0 0.1 0.9 0.00516586
0 0.1 -0.9 0.0052253
0.756813 0.1 0.4875 0.00359282
0.756814 0.1 -0.4875 0.00373337
0.871687 0.1 0.225 0.00257279
0.871687 0.1 -0.225 0.00262884
0.835106 0.1 -0.3375 0.00293513
0.835106 0.1 0.3375 0.00285176
0.41063 0.1 0.80701 0.00958631
0.90582 0.1 -0.0375 0.00234353
0.905821 0.1 0.0375 0.00233304
0.522865 0.1 0.746002 0.00725481
0.150379 0.1 0.9 0.0121294
0.90582 0.1 0.1125 0.00234054
0.905821 0.1 -0.1125 0.00236628
0.522865 0.1 -0.75 0.00732391
0.574156 0.1 0.7125 0.00621108
0.574156 0.1 -0.7125 0.00636743
0.797314 0.1 -0.45 0.00337911
0.797314 0.1 0.45 0.00325635
0.467897 0.1 -0.7875 0.00829883
0.467897 0.1 0.7875 0.00827941
0.150379 0.1 -0.903998 0.0124637
0 0.1 0.91799 0.00516192
0 0.1 -0.91799 0.00522004
0.0363518 0.1 0.91799 0.00797364
0.0363518 0.1 -0.91799 0.0081722
0.623803 0.1 0.675 0.00545509
0.623803 0.1 -0.675 0.00562163
0.411108 0.1 -0.825 0.00967044
0.871687 0.1 0.3 0.00262237
0.871687 0.1 -0.3 0.00269604
0.67013 0.1 -0.6375 0.00491215
0.67013 0.1 0.6375 0.0047391
0.90582 0.1 -0.1875 0.00240901
0.90582 0.1 0.1875 0.00236374
0.350249 0.1 0.8625 0.0109435
0.350249 0.1 -0.8625 0.0110021
0.835106 0.1 -0.4125 0.00304185
0.835106 0.1 0.4125 0.00293721
0.714971 0.1 -0.6 0.00439798
0.714971 0.1 0.6 0.00422688
0.93886 0.1 -1.15648e-17 0.00223348
0.075776 0.1 0.9375 0.0110077
0.075776 0.1 -0.9375 0.0113522
0.93886 0.1 0.075 0.00223236
0.93886 0.1 -0.075 0.00224869
0.756813 0.1 0.5625 0.00374202
0.756814 0.1 -0.5625 0.00390828
0.905821 0.1 -0.2625 0.00246792
0.905821 0.1 0.2625 0.00240228
0.287374 0.1 0.9 0.0120364
0.287374 0.1 -0.903998 0.0121717
0.871687 0.1 0.375 0.00269074
0.871687 0.1 -0.375 0.00278348
0.93886 0.1 -0.15 0.00227908
0.93886 0.1 0.15 0.00224712
0.797314 0.1 0.525 0.0033785
0.797314 0.1 -0.525 0.00353003
0 0.1 0.95701 0.00515657
0 0.1 -0.95701 0.00521207
0.0363518 0.1 0.95701 0.00796829
0.0363518 0.1 -0.95701 0.00816423
0.522433 0.1 0.80701 0.00744998
0.219992 0.1 0.9375 0.0130285
0.219992 0.1 -0.9375 0.0132962
0.93886 0.1 0.225 0.00227644
0.93886 0.1 -0.225 0.00232616
0.90582 0.1 0.3375 0.00245557
0.905821 0.1 -0.3375 0.00253377
0.835106 0.1 -0.4875 0.0031706
0.835107 0.1 0.4875 0.00303309
0.969689 0.1 -0.0375 0.00213525
0.969689 0.1 0.0375 0.00212649
0.61613 0.1 0.75 0.00572269
0.574156 0.1 -0.7875 0.00667486
0.574156 0.1 0.7875 0.00650599
0 0.1 0.975 0.0051556
0 0.1 -0.975 0.00520986
0.623803 0.1 -0.75 0.00591005
0.969689 0.1 -0.1125 0.00215413
0.969689 0.1 0.1125 0.00213372
0.522865 0.1 -0.825 0.00762566
0.67013 0.1 0.7125 0.00497702
0.67013 0.1 -0.7125 0.00517321
0.871687 0.1 -0.45 0.0028973
0.871687 0.1 0.45 0.0027758
0.467897 0.1 0.8625 0.00851612
0.467897 0.1 -0.8625 0.00862878
0.714971 0.1 -0.675 0.00463082
0.714971 0.1 0.675 0.00443494
0.93886 0.1 -0.3 0.00238594
0.93886 0.1 0.3 0.00231982
0.150379 0.1 0.975 0.0119812
0.150379 0.1 -0.975 0.0122932
0.969689 0.1 -0.1875 0.00219145
0.969689 0.1 0.1875 0.00215487
0.411108 0.1 0.9 0.00980215
0.756813 0.1 0.6375 0.00392166
0.756814 0.1 -0.6375 0.00411291
0.990306 0.1 -2.19732e-17 0.00204903
0 0.1 0.99299 0.00515367
0 0.1 -0.99299 0.00520663
0.411108 0.1 -0.903998 0.00986392
0.990306 0.1 -0.075 0.00206225
0.990306 0.1 0.075 0.00204832
0.0363518 0.1 0.99299 0.00791631
0.0363518 0.1 -0.99299 0.00809977
0.90582 0.1 -0.4125 0.00263359
0.905821 0.1 0.4125 0.00252874
0.797314 0.1 -0.6 0.00370916
0.797314 0.1 0.6 0.0035315
0.350249 0.1 0.9375 0.0110526
0.350249 0.1 -0.9375 0.0111629
0.990306 0.1 0.15 0.00206182
0.990306 0.1 -0.15 0.00208936
0.969689 0.1 -0.2625 0.00224097
0.969689 0.1 0.2625 0.00218929
0.835106 0.1 -0.5625 0.00332466
0.835106 0.1 0.5625 0.00316271
0.93886 0.1 -0.375 0.00246969
0.93886 0.1 0.375 0.0023786
0.075776 0.1 1.0125 0.0109001
0.075776 0.1 -1.0125 0.011219
0.990306 0.1 -0.225 0.00213128
0.990306 0.1 0.225 0.00208867
0.287374 0.1 0.975 0.0120183
0.287374 0.1 -0.975 0.0122247
0.871687 0.1 -0.525 0.00303435
0.871687 0.1 0.525 0.00288202
1.02149 0.1 -0.0369628 0.00189734
1.02149 0.1 0.0369628 0.00189105
0.969689 0.1 -0.3375 0.00230596
0.969689 0.1 0.3375 0.00223668
1.02149 0.1 -0.110888 0.00191466
1.02149 0.1 0.110888 0.00189617
0.90582 0.1 0.4875 0.00261477
0.90582 0.1 -0.4875 0.00275379
0.623803 0.1 0.819003 0.0058914
0 0.1 1.03201 0.00515252
0 0.1 -1.03201 0.0052026
0.0363518 0.1 1.03201 0.00791516
0.0363518 0.1 -1.03201 0.00809574
0.67013 0.1 -0.7875 0.00546765
0.67013 0.1 0.7875 0.00524131
0.623803 0.1 -0.825 0.00621588
0.990306 0.1 -0.3 0.00218773
0.990306 0.1 0.3 0.00212845
0.219992 0.1 -1.0125 0.0132085
0.219993 0.1 1.0125 0.0128906
0.574156 0.1 0.8625 0.0068208
0.574157 0.1 -0.8625 0.00696399
0.714971 0.1 -0.75 0.00489847
0.714971 0.1 0.75 0.00467086
1.02149 0.1 0.184814 0.00191427
1.02149 0.1 -0.184814 0.00194617
0.756814 0.1 -0.7125 0.00435136
0.756814 0.1 0.7125 0.00412915
0.522865 0.1 0.9 0.00780102
0.93886 0.1 -0.45 0.0025792
0.93886 0.1 0.45 0.00245361
1.04168 0.1 0 0.00182011
1.04168 0.1 -0.0729162 0.00183066
1.04168 0.1 0.0729162 0.00181937
0.522865 0.1 -0.903998 0.00789613
0.797314 0.1 -0.675 0.00391883
0.797314 0.1 0.675 0.00371134
0.467897 0.1 0.9375 0.00879586
0.467897 0.1 -0.9375 0.00895792
0 0.1 1.05 0.00515357
0 0.1 -1.05 0.00520218
0.835106 0.1 -0.6375 0.00350819
0.835106 0.1 0.6375 0.00331693
1.04168 0.1 -0.145832 0.00185226
1.04168 0.1 0.145832 0.0018291
1.02149 0.1 -0.25874 0.00199021
1.02149 0.1 0.25874 0.00194422
0.969689 0.1 -0.4125 0.00241021
0.969689 0.1 0.4125 0.00229815
0.411108 0.1 0.975 0.0100014
0.411108 0.1 -0.975 0.0101512
0.871687 0.1 -0.6 0.00319873
0.871687 0.1 0.6 0.00301579
1.0579 0.1 -0.0360525 0.00176888
1.0579 0.1 0.0360525 0.00176394
0.990306 0.1 -0.375 0.00226911
0.990306 0.1 0.375 0.00218161
0.150379 0.1 1.05 0.0118816
0.150379 0.1 -1.05 0.0122052
1.0579 0.1 0.108157 0.00176712
1.0579 0.1 -0.108157 0.00178345
1.04168 0.1 -0.218749 0.00188543
1.04168 0.1 0.218749 0.0018497
0.90582 0.1 -0.5625 0.0028992
0.90582 0.1 0.5625 0.00272846
0 0.1 -1.06799 0.00520069
0 0.1 1.06799 0.00515361
0.0363518 0.1 -1.06799 0.00805239
0.0363518 0.1 1.06799 0.00788547
0.350249 0.1 1.0125 0.011184
0.350249 0.1 -1.0125 0.0113214
1.0579 0.1 -0.180262 0.00180773
1.0579 0.1 0.180262 0.00178004
1.02149 0.1 -0.332665 0.00205254
1.02149 0.1 0.332665 0.0019866
0.93886 0.1 -0.525 0.00270628
0.93886 0.1 0.525 0.00254828
1.08012 0.1 5.49329e-18 0.00170524
1.04168 0.1 -0.291665 0.00193242
1.04168 0.1 0.291665 0.00188096
1.08012 0.1 0.0709941 0.00170467
1.08012 0.1 -0.0709941 0.0017139
0.969689 0.1 -0.4875 0.002524
0.96969 0.1 0.4875 0.00237773
1.0579 0.1 0.252367 0.00180208
1.0579 0.1 -0.252367 0.00184243
0.990306 0.1 -0.45 0.002373
0.990306 0.1 0.45 0.002251
0.287374 0.1 -1.05 0.0122752
0.287374 0.1 1.05 0.0120371
0.714971 0.1 0.821002 0.00490506
1.08012 0.1 -0.141988 0.0017316
1.08012 0.1 0.141988 0.00171235
0.075776 0.1 1.0875 0.0108385
0.075776 0.1 -1.0875 0.0111292
0.714971 0.1 -0.825 0.0052022
0.756813 0.1 -0.7875 0.00462851
0.756814 0.1 0.7875 0.00436402
0.67013 0.1 -0.8625 0.00579913
0.67013 0.1 0.8625 0.00553102
0.797314 0.1 -0.75 0.00416253
0.797314 0.1 0.75 0.00391793
0.623803 0.1 0.9 0.00632233
0.835106 0.1 -0.7125 0.00372095
0.835106 0.1 0.7125 0.0034958
0.623803 0.1 -0.903998 0.00650039
0.574156 0.1 0.9375 0.00713626
0.574156 0.1 -0.9375 0.00730551
1.02149 0.1 -0.406591 0.00213507
1.02149 0.1 0.406591 0.00204198
1.08012 0.1 -0.212982 0.00175853
1.08012 0.1 0.212982 0.00172879
1.10076 0.1 -0.0349809 0.00165125
1.10076 0.1 0.0349809 0.00164769
0.871687 0.1 -0.675 0.00339326
0.871687 0.1 0.675 0.00317491
1.04168 0.1 -0.364581 0.00199614
1.04168 0.1 0.364581 0.00192335
1.10076 0.1 -0.104943 0.0016632
1.10076 0.1 0.104943 0.00165101
0.522865 0.1 0.975 0.00809314
0.522865 0.1 -0.975 0.00827636
1.0579 0.1 -0.324472 0.00189208
1.0579 0.1 0.324472 0.00183389
0 0.1 -1.10701 0.00520019
0 0.1 1.10701 0.00515636
0.0363518 0.1 1.10701 0.00788823
0.0363518 0.1 -1.10701 0.00805189
0.90582 0.1 0.6375 0.00286648
0.905821 0.1 -0.6375 0.00307395
0.219992 0.1 1.0875 0.0128005
0.219992 0.1 -1.0875 0.0131649
0.93886 0.1 0.6 0.00267253
0.93886 0.1 -0.6 0.00285325
1.10076 0.1 -0.174905 0.00168416
1.10076 0.1 0.174905 0.00166327
0.467897 0.1 1.0125 0.00906904
0.467897 0.1 -1.0125 0.00926017
1.08012 0.1 -0.283976 0.00179706
1.08012 0.1 0.283976 0.0017539
1.11928 0.1 3.93204e-18 0.00160806
0.990306 0.1 -0.525 0.00248817
0.990306 0.1 0.525 0.00233957
0.96969 0.1 -0.5625 0.00265322
0.969689 0.1 0.5625 0.00247733
1.11928 0.1 -0.0690357 0.00161503
1.11928 0.1 0.0690357 0.00160795
0 0.1 1.125 0.00515919
0 0.1 -1.125 0.00520145
0.411108 0.1 -1.05 0.0103853
0.411108 0.1 1.05 0.0102088
1.10076 0.1 0.244866 0.0016833
1.10076 0.1 -0.244866 0.0017138
1.11928 0.1 -0.138072 0.00162995
1.11928 0.1 0.138072 0.00161505
1.02149 0.1 0.480517 0.0021157
1.02149 0.1 -0.480517 0.00223445
1.0579 0.1 -0.396577 0.00195608
1.0579 0.1 0.396577 0.00187591
1.04168 0.1 -0.437497 0.0020779
1.04168 0.1 0.437497 0.00197975
0.150379 0.1 1.125 0.0118264
0.150379 0.1 -1.125 0.0121554
0.714971 0.1 0.88201 0.00493431
1.08012 0.1 0.354971 0.00178805
1.08012 0.1 -0.354971 0.00184871
1.11928 0.1 -0.207107 0.00165299
1.11928 0.1 0.207107 0.00162979
0.350249 0.1 -1.0875 0.0114873
0.350249 0.1 1.0875 0.0113442
0 0.1 1.14299 0.00516096
0 0.1 -1.14299 0.00520157
0.0363518 0.1 1.14299 0.00787539
0.0363518 0.1 -1.14299 0.0080255
1.14316 0.1 -0.0339211 0.00155074
1.14316 0.1 0.0339211 0.00154794
0.797314 0.1 0.821002 0.00414702
1.10076 0.1 -0.314829 0.00175629
1.10076 0.1 0.314829 0.00171198
0.797314 0.1 -0.825 0.00444096
0.756814 0.1 -0.8625 0.00494084
0.756814 0.1 0.8625 0.00462617
1.14316 0.1 -0.101763 0.00156011
1.14316 0.1 0.101763 0.0015507
0.835106 0.1 -0.7875 0.00396817
0.835106 0.1 0.7875 0.0037018
0.871687 0.1 -0.75 0.00361106
0.871687 0.1 0.75 0.00336085
0.67013 0.1 0.9375 0.0058477
0.67013 0.1 -0.9375 0.00616172
0.90582 0.1 -0.7125 0.00328122
0.905821 0.1 0.7125 0.00303228
0.714971 0.1 -0.903998 0.00549598
1.11928 0.1 0.276143 0.00165209
1.11928 0.1 -0.276143 0.00168596
1.14316 0.1 0.169605 0.0015606
1.14316 0.1 -0.169605 0.00157673
0.93886 0.1 -0.675 0.00302152
0.93886 0.1 0.675 0.00282093
1.15704 0.1 0 0.00151985
1.0579 0.1 0.468682 0.00193285
1.0579 0.1 -0.468682 0.00203839
0.623803 0.1 0.975 0.006642
0.623803 0.1 -0.975 0.00689596
0.990306 0.1 0.6 0.00245889
0.990306 0.1 -0.6 0.00261973
1.15704 0.1 -0.0671479 0.0015254
1.15704 0.1 0.0671479 0.00151988
1.04168 0.1 -0.510414 0.0021663
1.04168 0.1 0.510414 0.00205322
0.969689 0.1 -0.6375 0.00279233
0.969689 0.1 0.6375 0.00262311
1.08012 0.1 0.425965 0.00183336
1.08012 0.1 -0.425965 0.00191648
0.287374 0.1 -1.125 0.0123552
0.287374 0.1 1.125 0.0120935
1.02149 0.1 -0.554443 0.00233716
1.02149 0.1 0.554443 0.00220905
0.574156 0.1 1.0125 0.00743731
0.574156 0.1 -1.0125 0.00765125
1.15704 0.1 -0.134296 0.00153744
1.15704 0.1 0.134296 0.00152592
0.075776 0.1 1.1625 0.0108114
0.075776 0.1 -1.1625 0.0110744
1.10076 0.1 -0.384791 0.00180979
1.10076 0.1 0.384791 0.00174889
1.14316 0.1 -0.237448 0.00160056
1.14316 0.1 0.237448 0.00157674
1.11928 0.1 -0.345179 0.00173009
1.11928 0.1 0.345179 0.00168224
0.522865 0.1 1.05 0.00836581
0.522865 0.1 -1.05 0.00859757
1.15704 0.1 -0.201444 0.00155609
1.15704 0.1 0.201444 0.00153825
1.1744 0.1 -0.0331401 0.00148639
1.1744 0.1 0.0331401 0.00148424
1.1744 0.1 -0.0994202 0.00149427
1.1744 0.1 0.0994202 0.00148662
0 0.1 1.18201 0.00516697
0 0.1 -1.18201 0.00520453
0.0363518 0.1 1.18201 0.0078814
0.0363518 0.1 -1.18201 0.00802846
0.219992 0.1 1.1625 0.0127598
0.219993 0.1 -1.1625 0.0131522
1.14316 0.1 0.30529 0.00160006
1.14316 0.1 -0.30529 0.00163467
0.467897 0.1 1.0875 0.00933561
0.467897 0.1 -1.0875 0.00957349
1.1744 0.1 -0.1657 0.00150815
1.1744 0.1 0.1657 0.00149553
1.15704 0.1 -0.268592 0.00158283
1.15704 0.1 0.268592 0.00155679
1.0579 0.1 0.540787 0.00200611
1.0579 0.1 -0.540787 0.00211519
0.796996 0.1 0.88201 0.00434862
1.08012 0.1 -0.496959 0.00198958
1.08012 0.1 0.496959 0.00189267
1.10076 0.1 0.454752 0.00179768
1.10076 0.1 -0.454752 0.00188255
1.11928 0.1 -0.414214 0.00178847
1.11928 0.1 0.414214 0.00172159
1.04168 0.1 -0.58333 0.00227262
1.04168 0.1 0.58333 0.00214802
1.1744 0.1 -0.231981 0.0015279
1.1744 0.1 0.231981 0.00150936
0.871687 0.1 0.821002 0.00356804
0.411108 0.1 1.125 0.0104337
0.411108 0.1 -1.125 0.0106326
1.19808 0.1 1.73472e-17 0.00143529
0.990306 0.1 0.675 0.00259612
0.990306 0.1 -0.675 0.0027708
1.02149 0.1 0.628368 0.00233054
1.02149 0.1 -0.628368 0.00247671
1.19808 0.1 -0.0650961 0.00143988
1.19808 0.1 0.0650961 0.00143537
0 0.1 1.2 0.00517126
0 0.1 -1.2 0.00520751
0.871687 0.1 -0.825 0.00386246
0.905821 0.1 -0.7875 0.00348578
0.90582 0.1 0.7875 0.00322573
0.835106 0.1 -0.8625 0.004246
0.835106 0.1 0.8625 0.00393617
0.93886 0.1 -0.75 0.00321253
0.93886 0.1 0.75 0.00298454
1.14316 0.1 -0.373132 0.00167873
1.14316 0.1 0.373132 0.00163032
0.969689 0.1 0.7125 0.00276731
0.969689 0.1 -0.7125 0.00294538
1.15704 0.1 -0.33574 0.00161878
1.15704 0.1 0.33574 0.00158195
0.756813 0.1 0.9375 0.00491627
0.756814 0.1 -0.9375 0.00528932
1.19808 0.1 0.130192 0.00144059
1.19808 0.1 -0.130192 0.00144972
0.797314 0.1 -0.903998 0.00471517
0.714971 0.1 0.975 0.00554153
0.714971 0.1 -0.975 0.00589826
0.150379 0.1 1.2 0.0118103
0.150379 0.1 -1.2 0.012137
1.20938 0.1 -0.0322656 0.00141611
1.20938 0.1 0.0322656 0.00141425
1.1744 0.1 -0.298261 0.00155633
1.1744 0.1 0.298261 0.00152949
1.20938 0.1 -0.0967968 0.00142298
1.20938 0.1 0.0967968 0.00141635
1.19808 0.1 -0.195288 0.00146473
1.19808 0.1 0.195288 0.00145103
0.350249 0.1 1.1625 0.0115314
0.350249 0.1 -1.1625 0.0116917
0.67013 0.1 1.0125 0.00619257
0.67013 0.1 -1.0125 0.00650881
0 0.1 1.21799 0.00517441
0 0.1 -1.21799 0.0052093
0.0363518 0.1 -1.21799 0.00801497
0.0363518 0.1 1.21799 0.00788236
1.11928 0.1 -0.48325 0.00185271
1.11928 0.1 0.48325 0.00177287
1.10076 0.1 -0.524714 0.00194823
1.10076 0.1 0.524714 0.00185977
1.20938 0.1 0.161328 0.0014244
1.20938 0.1 -0.161328 0.00143485
1.08012 0.1 0.567953 0.00196852
1.08012 0.1 -0.567953 0.00207503
0.623803 0.1 1.05 0.00694919
0.623803 0.1 -1.05 0.00723444
1.0579 0.1 -0.612892 0.0022284
1.0579 0.1 0.612892 0.00209969
1.15704 0.1 -0.402888 0.00166679
1.15704 0.1 0.402888 0.00161446
1.14316 0.1 0.440974 0.00166993
1.14316 0.1 -0.440974 0.00173743
1.19808 0.1 -0.260384 0.00148594
1.19808 0.1 0.260384 0.00146648
1.2267 0.1 3.57064e-18 0.00138263
1.2267 0.1 -0.0636649 0.00138687
1.2267 0.1 0.0636649 0.00138266
1.1744 0.1 -0.364541 0.00159271
1.1744 0.1 0.364541 0.00155553
0.574156 0.1 1.0875 0.00769406
0.574156 0.1 -1.0875 0.00798649
1.20938 0.1 0.225859 0.00143651
1.20938 0.1 -0.225859 0.0014514
1.04168 0.1 -0.656246 0.00241276
1.04168 0.1 0.656246 0.0022539
1.2267 0.1 -0.12733 0.00139579
1.2267 0.1 0.12733 0.00138746
0.287374 0.1 1.2 0.0121706
0.287374 0.1 -1.2 0.0124726
1.02149 0.1 -0.702294 0.00264575
1.02149 0.1 0.702294 0.0024495
0.075776 0.1 -1.2375 0.0110461
0.075776 0.1 1.2375 0.0108128
0.871399 0.1 0.88201 0.00375257
0.522865 0.1 1.125 0.00863871
0.522865 0.1 -1.125 0.0089114
1.2267 0.1 -0.190994 0.00140921
1.2267 0.1 0.190994 0.00139702
1.19808 0.1 -0.32548 0.00151449
1.19808 0.1 0.32548 0.00148745
0.990306 0.1 -0.75 0.00295304
0.990306 0.1 0.75 0.00274229
1.24274 0.1 -0.0314313 0.00135317
1.24274 0.1 0.0314313 0.0013513
1.20938 0.1 -0.29039 0.00147486
1.20938 0.1 0.29039 0.00145404
1.24274 0.1 -0.0942942 0.00135941
1.24274 0.1 0.0942942 0.0013532
0.93886 0.1 0.821002 0.00316133
1.11928 0.1 -0.552285 0.00192654
1.11928 0.1 0.552285 0.00183729
1.15704 0.1 -0.470036 0.00172135
1.15704 0.1 0.470036 0.00165692
0.969689 0.1 -0.7875 0.00314526
0.96969 0.1 0.7875 0.00291907
0.93886 0.1 -0.825 0.0034393
0.90582 0.1 0.8625 0.00344467
0.905821 0.1 -0.8625 0.00376227
1.1744 0.1 -0.430821 0.00164301
1.1744 0.1 0.430821 0.00158878
1.10076 0.1 -0.594676 0.00204187
1.10076 0.1 0.594676 0.00193745
1.14316 0.1 -0.508816 0.00179422
1.14316 0.1 0.508816 0.00172136
1.24274 0.1 -0.157157 0.00137004
1.24274 0.1 0.157157 0.00136048
1.2267 0.1 -0.254659 0.00142786
1.2267 0.1 0.254659 0.00141107
0.467897 0.1 1.1625 0.00962595
0.467897 0.1 -1.1625 0.00988454
1.08012 0.1 0.638947 0.00205606
1.08012 0.1 -0.638947 0.00219079
1.25511 0.1 -5.78241e-19 0.00132946
0.835106 0.1 -0.9375 0.00456857
0.835106 0.1 0.9375 0.00419923
0.871687 0.1 -0.903998 0.00412062
1.25511 0.1 0.0622446 0.00132923
1.25511 0.1 -0.0622446 0.00133367
0.219992 0.1 1.2375 0.0127623
0.219992 0.1 -1.2375 0.0131724
0 0.1 -1.25701 0.00521548
0 0.1 1.25701 0.00518344
0.0363518 0.1 -1.25701 0.00802115
0.0363518 0.1 1.25701 0.00789138
0.797314 0.1 0.975 0.00470672
0.797314 0.1 -0.975 0.00510526
1.19808 0.1 -0.390576 0.00155407
1.19808 0.1 0.390576 0.00151411
1.0579 0.1 -0.684997 0.00236975
1.0579 0.1 0.684997 0.00219371
1.20938 0.1 -0.354921 0.0015053
1.20938 0.1 0.354921 0.00147671
1.25511 0.1 0.124489 0.00133352
1.25511 0.1 -0.124489 0.00134213
1.24274 0.1 -0.220019 0.00138464
1.24274 0.1 0.220019 0.00137139
0.756813 0.1 1.0125 0.00524045
0.756814 0.1 -1.0125 0.0056619
1.2267 0.1 -0.318324 0.00145293
1.2267 0.1 0.318324 0.00143018
0.411108 0.1 1.2 0.0106543
0.411108 0.1 -1.2 0.0108433
1.25511 0.1 -0.186734 0.00135462
1.25511 0.1 0.186734 0.00134225
0.714971 0.1 1.05 0.00587628
0.714971 0.1 -1.05 0.00624467
1.04168 0.1 -0.729162 0.00258215
1.04168 0.1 0.729162 0.00237369
1.24274 0.1 0.282882 0.00138717
1.24274 0.1 -0.282882 0.00140475
0 0.1 1.275 0.00518928
0 0.1 -1.275 0.00521995
1.1744 0.1 0.497102 0.00163258
1.1744 0.1 -0.497102 0.00169322
1.15704 0.1 -0.537184 0.00178303
1.15704 0.1 0.537184 0.00170996
1.2756 0.1 -0.03061 0.00129111
1.2756 0.1 0.03061 0.00128872
0.67013 0.1 1.0875 0.00652038
0.67013 0.1 -1.0875 0.00684468
1.2756 0.1 -0.09183 0.0012971
1.2756 0.1 0.09183 0.00129027
1.25511 0.1 -0.248978 0.00137159
1.25511 0.1 0.248978 0.00135515
1.20938 0.1 0.419453 0.00150496
1.20938 0.1 -0.419453 0.00155075
1.11928 0.1 -0.621322 0.00202475
1.11928 0.1 0.621322 0.00191611
1.14316 0.1 -0.576659 0.0018714
1.14316 0.1 0.576659 0.00178432
1.19808 0.1 -0.455673 0.00160166
1.19808 0.1 0.455673 0.00154851
1.02149 0.1 0.776219 0.0026031
1.02149 0.1 -0.776219 0.00284745
0.150379 0.1 1.275 0.0118297
0.150379 0.1 -1.275 0.0121513
1.2756 0.1 -0.15305 0.00130731
1.2756 0.1 0.15305 0.00129669