# nutMean  POINT_DATA 91129
# x  y  z  nutMean
0 0 0 5.02561e-06
0 0.00368111 0 1.82063e-05
0 0.00749587 0 7.11115e-05
0 0.0114491 0 0.000264301
0 0.0155459 0 0.000692742
0 0.0197915 0 0.00176097
0 0.0241911 0 0.00264522
0 0.0287506 0 0.00299517
0 0.0334755 0 0.00343299
0 0.038372 0 0.00373812
0 0.0434463 0 0.00395436
0 0.0487048 0 0.00412182
0 0.0541543 0 0.00426445
0 0.0598016 0 0.00439803
0 0.0656539 0 0.00453378
0 0.0717187 0 0.00467547
0.075776 0.00184055 0 8.8393e-06
0.075776 0.00558849 0 1.3043e-05
0.075776 0.00947248 -3.46945e-18 6.19256e-05
0.075776 0.0134975 -3.46945e-18 0.000290439
0.075776 0.0176687 3.46945e-18 0.000829732
0 0.0780037 0 0.00482152
0.075776 0.0219913 3.46945e-18 0.00167609
0.075776 0.0264709 3.46945e-18 0.00283844
0.075776 0.031113 -3.46945e-18 0.00429267
0.075776 0.0359237 -3.46945e-18 0.00598825
0 0.0845169 0 0.00497108
0.075776 0.0409092 0 0.00786258
0.075776 0.0460755 -3.46945e-18 0.00984847
0 0.0912666 0 0.0051243
0.075776 0.0514296 -3.46945e-18 0.011879
0.075776 0.0569779 0 0.0138877
0 0.0982613 0 0.00528046
0.075776 0.0627278 0 0.0150507
0.075776 0.0686863 0 0.015533
0 0.10551 0 0.00543782
0.075776 0.0748612 3.46945e-18 0.0160674
0.075776 0.0812603 -3.46945e-18 0.0166606
0 0.113022 0 0.00559405
0.075776 0.0878918 3.46945e-18 0.0173203
0 0.120806 0 0.00574728
0.075776 0.0947639 3.46945e-18 0.0180588
0.075776 0.101886 -3.46945e-18 0.0189026
0 0.128874 0 0.00590106
0.075776 0.109266 3.46945e-18 0.0199063
0 0.137234 0 0.0060716
0.075776 0.116914 3.46945e-18 0.0211468
0 0.145897 0 0.00627742
0.075776 0.12484 0 0.0227164
0.151552 0 0 0
0.151552 0.00368111 0 7.28699e-06
0.151552 0.00749587 0 2.5029e-05
0.151552 0.0114491 0 0.000110089
0.151552 0.0155459 0 0.000345508
0.151552 0.0197915 0 0.000785428
0.075776 0.133054 0 0.0246917
0.151552 0.0241911 0 0.00144549
0.151552 0.0287506 0 0.00232704
0 0.154876 0 0.00651942
0.151552 0.0334755 0 0.00341435
0.151552 0.038372 0 0.0046806
0.151552 0.0434463 0 0.00609303
0.151552 0.0487048 0 0.00761607
0.075776 0.141566 0 0.0270231
0.151552 0.0541543 0 0.00921333
0.151552 0.0598016 0 0.0106663
0 0.16418 0 0.0067861
0.151552 0.0656539 0 0.0118111
0.151552 0.0717187 0 0.0128565
0.075776 0.150387 0 0.0291538
0.151552 0.0780037 0 0.013971
0.151552 0.0845169 0 0.015146
0 0.173822 0 0.00707119
0.075776 0.159528 0 0.0306714
0.151552 0.0912666 0 0.0163652
0.151552 0.0982613 0 0.0175697
0 0.183814 0 0.00737371
0.151552 0.10551 0 0.0186488
0.075776 0.169001 3.46945e-18 0.0312847
0.151552 0.113022 0 0.01964
0.151552 0.120806 0 0.0206621
0 0.194169 0 0.00769147
0.075776 0.178818 3.46945e-18 0.0309367
0.151552 0.128874 0 0.0219599
0.075776 0.188992 3.46945e-18 0.0298374
0.151552 0.137234 0 0.0236945
0 0.2049 0 0.00802001
0.151552 0.145897 0 0.0256149
0.075776 0.199535 0 0.0283213
0 0.21602 0 0.00835146
0.151552 0.154876 0 0.0273494
0.219992 0.00184055 0 2.47587e-06
0.219992 0.00558849 0 5.35205e-06
0.219992 0.00947248 -3.46945e-18 2.1712e-05
0.219992 0.0134975 3.46945e-18 7.64486e-05
0.219992 0.0176687 0 0.000218424
0.219992 0.0219913 0 0.000489388
0.219993 0.0264709 -3.46945e-18 0.000902924
0.219992 0.031113 -3.46945e-18 0.00146464
0.219992 0.0359238 3.46945e-18 0.0021773
0.151552 0.16418 0 0.0286072
0.075776 0.21046 0 0.0266509
0.219992 0.0409092 3.46945e-18 0.00303952
0.219992 0.0460755 0 0.00404636
0.219993 0.0514296 -3.46945e-18 0.00518989
0.219992 0.0569779 0 0.00646108
0 0.227544 0 0.00869805
0.219992 0.0627277 3.46945e-18 0.00785042
0.219992 0.0686863 0 0.00934537
0.151552 0.173822 0 0.0292649
0.219992 0.0748612 3.46945e-18 0.0109327
0.075776 0.221782 0 0.0249244
0.219992 0.0812603 3.46945e-18 0.012591
0.219992 0.0878917 -3.46945e-18 0.0142954
0.151552 0.183814 0 0.029359
7.47806e-17 0.239487 0 0.00913658
0.219992 0.0947639 3.46945e-18 0.01599
0.219993 0.101886 3.46945e-18 0.0174675
0.075776 0.233516 0 0.0234472
0.219993 0.109266 0 0.0184349
0.151552 0.194169 0 0.0290326
0.219993 0.116914 0 0.0192081
0 0.251863 0 0.00967554
0.219993 0.12484 0 0.019772
0.151552 0.2049 0 0.0284449
0.075776 0.245675 0 0.0228744
0.219992 0.133054 3.46945e-18 0.0209275
0.219992 0.141565 0 0.0224679
0.151552 0.21602 0 0.027696
0 0.264688 0 0.0102601
0.219992 0.150387 3.46945e-18 0.0241946
0.075776 0.258275 3.46945e-18 0.0225653
0.219992 0.159528 -3.46945e-18 0.0257714
0.151552 0.227544 0 0.026891
0.219992 0.169001 3.46945e-18 0.0270652
0 0.27798 0 0.0108886
0.075776 0.271334 3.46945e-18 0.0223992
0.151552 0.239487 3.70071e-18 0.0262654
0.219992 0.178818 3.46945e-18 0.0280563
0.288433 0 0 0
0.288433 0.00368111 0 3.02375e-06
0.288433 0.00749587 0 1.14075e-05
0.288433 0.0114491 0 3.91187e-05
0.288433 0.0155459 3.70071e-18 0.000111522
0.288433 0.0197915 0 0.000267209
0.288433 0.0241911 3.70071e-18 0.00053209
0.288433 0.0287506 0 0.000916625
0.219992 0.188991 0 0.0287632
0.288433 0.0334755 0 0.00142844
0.288433 0.038372 0 0.00206964
0.288433 0.0434463 0 0.0028395
7.47806e-17 0.291753 0 0.0115632
0.288433 0.0487048 0 0.00373484
0.288433 0.0541543 0 0.00475039
0.151552 0.251863 0 0.0258319
0.288433 0.0598016 3.70071e-18 0.00587939
0.075776 0.284866 0 0.0223923
0.288433 0.0656539 3.70071e-18 0.00711264
0.219992 0.199534 0 0.0292157
0.288433 0.0717187 0 0.00843801
0.288433 0.0780037 0 0.00983885
0.288433 0.0845169 0 0.0112927
0.288433 0.0912666 0 0.0125526
0.219992 0.21046 -3.46945e-18 0.0294445
0.288433 0.0982613 0 0.01342
0.151552 0.264688 3.70071e-18 0.0254198
0 0.306027 0 0.0122943
0.288433 0.10551 0 0.0140258
0.075776 0.29889 3.46945e-18 0.0225257
0.288433 0.113022 0 0.0145433
0.219993 0.221782 0 0.0294715
0.288433 0.120806 0 0.0150048
0.288433 0.128874 0 0.0155286
0.151552 0.27798 0 0.0250822
0.288433 0.137234 0 0.0162505
0 0.320819 0 0.0131932
0.219992 0.233515 -3.46945e-18 0.0293064
0.075776 0.313423 -3.46945e-18 0.0228251
0.288433 0.145897 0 0.0171086
0.288433 0.154876 0 0.017986
0.151552 0.291753 0 0.0248778
0.219993 0.245675 0 0.0289583
0.288433 0.16418 0 0.018762
0 0.336148 0 0.0146225
0.288433 0.173822 0 0.019394
0.075776 0.328484 -3.46945e-18 0.023836
0.219993 0.258275 -3.46945e-18 0.0284533
0.151552 0.306027 0 0.0247071
0.288433 0.183814 0 0.0198796
0.288433 0.194169 0 0.02023
0.219992 0.271334 3.46945e-18 0.0278119
0.350249 0.00184056 -3.46945e-18 9.02228e-07
0.350249 0.00558849 0 3.49576e-06
0.350249 0.00947248 3.46945e-18 1.53827e-05
0.350249 0.0134975 0 4.43969e-05
0.350249 0.0176687 0 0.000112099
0.350249 0.0219913 0 0.000261675
0.350249 0.0264708 3.46945e-18 0.000498495
0.350249 0.031113 0 0.000839712
0 0.352034 0 0.0160771
0.350249 0.0359238 0 0.00128979
0.075776 0.344091 0 0.0269282
0.350249 0.0409091 0 0.00185112
0.350249 0.0460756 3.46945e-18 0.00252439
0.288433 0.2049 0 0.02046
0.350249 0.0514296 0 0.00330851
0.151552 0.320819 0 0.0246473
0.350249 0.0569779 0 0.00420006
0.350249 0.0627277 3.46945e-18 0.00519353
0.350249 0.0686863 3.46945e-18 0.00627946
0.350249 0.0748612 3.46945e-18 0.00744436
0.350249 0.0812603 0 0.00866973
0.219992 0.284867 0 0.0273149
0.288433 0.21602 0 0.0205819
0.350249 0.0878917 0 0.00993062
0.350249 0.094764 0 0.0103746
0.350249 0.101886 0 0.0103336
0.350249 0.109266 0 0.0104431
0.288433 0.227544 0 0.0206026
0.075776 0.360265 3.46945e-18 0.0277746
0 0.368496 0 0.016587
0.151552 0.336148 0 0.025214
0.350249 0.116914 3.46945e-18 0.010715
0.219992 0.29889 0 0.0269087
0.370854 0.0241911 1.54074e-33 0.000387125
0.350249 0.12484 0 0.0109823
0.350249 0.133054 0 0.0111399
0.288433 0.239487 -9.25154e-19 0.020525
0.350249 0.141566 3.46945e-18 0.0112655
0.350249 0.150387 3.46945e-18 0.011419
0.288433 0.251863 0 0.0203559
0.219992 0.313423 0 0.0262583
0.151552 0.352034 0 0.0257264
0.075776 0.377027 0 0.0262119
0.350249 0.159528 0 0.0115848
0 0.385557 0 0.0160834
0.350249 0.169001 0 0.0117485
0.288433 0.264688 0 0.0201042
0.350249 0.178818 0 0.0119026
0.219992 0.328484 0 0.0254688
0.350249 0.188992 0 0.0120456
0.151552 0.368496 0 0.0250835
0.288433 0.27798 3.70071e-18 0.0198393
0.075776 0.394397 0 0.0234177
0.350249 0.199535 0 0.0121779
7.47806e-17 0.403236 0 0.015481
0.219992 0.344091 0 0.0246489
0.350249 0.21046 -3.46945e-18 0.0122998
0.288433 0.291753 0 0.0196149
0.412065 9.08189e-19 3.08149e-33 2.43173e-22
0.412065 0.00368111 -2.31298e-18 2.09036e-06
0.412065 0.00749587 -2.31298e-18 9.38745e-06
0.412065 0.0114491 -2.31298e-18 2.78161e-05
0.412065 0.0155459 -2.31298e-18 6.81162e-05
0.412065 0.0197915 0 0.000155522
0.412065 0.0241911 -3.08149e-33 0.000314643
0.412065 0.0264709 0 0.000436315
0.412065 0.0287506 -2.31298e-18 0.000557987
0.412065 0.0334755 -2.31298e-18 0.000894355
0.412065 0.038372 -2.31298e-18 0.00132954
0.151552 0.385557 0 0.0235063
0.412065 0.0434463 0 0.0018653
0.350249 0.221782 0 0.0124103
0.412065 0.0487048 0 0.00250164
0.412065 0.0541543 -3.08149e-33 0.00323658
0.412065 0.0569779 0 0.00365116
0.412065 0.0598016 -2.31298e-18 0.00406575
0.412065 0.0656539 -2.31298e-18 0.00498157
0.412065 0.0717187 -2.31298e-18 0.00597213
0.075776 0.412396 -3.46945e-18 0.0224744
0.412065 0.0780037 -2.31298e-18 0.00701925
0.288433 0.306027 0 0.0193392
0.412065 0.0845169 -2.31298e-18 0.00791328
0.350249 0.233516 3.46945e-18 0.0125071
0 0.421557 0 0.0154036
0.412065 0.0912666 -2.31298e-18 0.00840179
0.219992 0.360265 3.46945e-18 0.0238017
0.412065 0.0982613 0 0.00853326
0.412065 0.10551 0 0.00857647
0.412065 0.113022 -2.31298e-18 0.00870029
0.350249 0.245675 0 0.0125865
0.412065 0.120806 0 0.00886509
0.151552 0.403236 0 0.0220535
0.288433 0.320819 0 0.0189594
0.412065 0.128874 -2.31298e-18 0.00900245
0.412065 0.137234 0 0.00910557
0.350249 0.258275 -3.46945e-18 0.0126455
0.219992 0.377026 0 0.0228364
0.412065 0.145897 -2.31298e-18 0.00920859
0.075776 0.431051 0 0.0223908
0.412065 0.154876 -2.31298e-18 0.00932132
0 0.440544 0 0.0155307
0.288433 0.336148 0 0.0185293
0.350249 0.271334 0 0.0126783
0.412065 0.16418 -2.31298e-18 0.00943559
0.412065 0.173822 -2.31298e-18 0.0095461
0.151552 0.421557 0 0.0212957
0.412065 0.183814 -2.31298e-18 0.00965059
0.350249 0.284867 3.46945e-18 0.0126793
0.219992 0.394397 0 0.0217577
0.288433 0.352034 3.70071e-18 0.0180778
0.412065 0.194169 0 0.00974874
0.075776 0.450382 0 0.0224445
0.412065 0.2049 -2.31298e-18 0.00984064
0 0.46022 0 0.0156805
0.350249 0.29889 3.46945e-18 0.01265
0.412065 0.21602 0 0.00992603
0.151552 0.440544 0 0.0208588
0.219993 0.412396 3.46945e-18 0.0206995
0.467897 0.00184056 -3.46945e-18 6.00129e-07
0.467897 0.00558849 0 3.37852e-06
0.288433 0.368496 0 0.0175824
0.467897 0.00947248 0 1.53004e-05
0.467897 0.0134975 0 3.64743e-05
0.467897 0.0176687 3.46945e-18 8.09089e-05
0.467897 0.0219913 -3.46945e-18 0.000171781
0.467897 0.0264709 3.46945e-18 0.000335749
0.467897 0.0311131 3.46945e-18 0.00057349
0.467897 0.0359238 -3.46945e-18 0.000898189
0.467897 0.038372 0 0.00114944
0.467897 0.0409092 3.46945e-18 0.00131266
0.350249 0.313423 0 0.0125957
0.467897 0.0460755 0 0.00181797
0.467897 0.0514296 3.46945e-18 0.00241351
0.412065 0.227544 -2.31298e-18 0.010004
0.467897 0.0569779 0 0.00309641
0.467897 0.0627277 -3.46945e-18 0.00386094
0.467897 0.0686863 3.46945e-18 0.00469755
0.467897 0.0748612 0 0.00559115
0.467897 0.0812603 0 0.00651637
0.467897 0.0878918 3.46945e-18 0.00672959
0.075776 0.470415 3.46945e-18 0.0225452
0.412065 0.239487 -2.31298e-18 0.0100728
0.467897 0.0947639 -3.46945e-18 0.00681616
0.467897 0.101886 3.46945e-18 0.00686217
0.350249 0.328483 0 0.0125203
0.467897 0.109266 0 0.0069192
0 0.48061 0 0.0158265
0.288433 0.385557 0 0.017018
0.467897 0.116914 0 0.00698534
0.412065 0.251863 -2.31298e-18 0.0101309
0.219992 0.431051 0 0.0197906
0.467897 0.12484 0 0.00705377
0.151552 0.46022 0 0.0205427
0.467897 0.133054 3.46945e-18 0.00712019
0.467897 0.141566 3.46945e-18 0.00718833
0.412065 0.264688 -2.31298e-18 0.0101759
0.350249 0.344091 -3.46945e-18 0.0124295
0.467897 0.150387 3.46945e-18 0.00725816
0.467897 0.154876 0 0.00780673
0.467897 0.159528 3.46945e-18 0.00732634
0.288433 0.403236 0 0.0164161
0.075776 0.491175 0 0.0226475
0.412065 0.27798 -2.31298e-18 0.0102055
0.467897 0.169001 0 0.0073927
0.467897 0.178818 3.46945e-18 0.00745718
0.219992 0.450382 0 0.019046
6.73026e-17 0.501741 3.70071e-18 0.0159267
0.350249 0.360265 0 0.0123253
0.151552 0.48061 0 0.0202924
0.467897 0.188991 0 0.00751959
0.412065 0.291753 0 0.0102189
0.467897 0.199535 0 0.0075798
0.288433 0.421557 0 0.0158452
0.467897 0.21046 0 0.00763772
0.412065 0.306027 0 0.0102172
0.350249 0.377027 0 0.0121999
0.467897 0.221782 3.46945e-18 0.00769309
0.075776 0.51269 0 0.0226301
0.219993 0.470415 3.46945e-18 0.0184312
0.467897 0.227544 0 0.00832572
0.412065 0.320819 -2.31298e-18 0.0102015
0.467897 0.233515 0 0.0077456
6.73026e-17 0.523639 3.70071e-18 0.0159527
0.523729 0 0 0
0.523729 0.00368111 0 1.9346e-06
0.523729 0.00749587 -2.31298e-18 9.74594e-06
0.523729 0.0114491 0 2.62677e-05
0.523729 0.0155459 0 5.55861e-05
0.523729 0.0197915 -2.31298e-18 0.000112008
0.151552 0.501741 0 0.0200468
0.523729 0.0241911 0 0.000221166
0.523729 0.0287506 0 0.000396185
0.523729 0.0334755 0 0.000642155
0.523729 0.038372 -3.08149e-33 0.000969339
0.523729 0.0434463 0 0.00137983
0.523729 0.0487048 0 0.0018737
0.523729 0.0541543 0 0.00244896
0.288433 0.440544 0 0.0153492
0.523729 0.0598016 0 0.00310099
0.350249 0.394397 -3.46945e-18 0.0120443
0.523729 0.0656539 0 0.00382166
0.467897 0.245675 0 0.00779491
0.523729 0.0717187 0 0.00459805
0.523729 0.0780037 0 0.00531347
0.523729 0.0845169 0 0.00570017
0.523729 0.0912666 0 0.005811
0.412065 0.336148 0 0.0101734
0.523729 0.0982613 0 0.0058791
0.523729 0.10551 -2.31298e-18 0.00593764
0.467897 0.258275 -3.46945e-18 0.00784071
0.523729 0.113022 0 0.00599842
0.523729 0.120806 -3.08149e-33 0.00605981
0.219993 0.491176 0 0.0178948
0.523729 0.12484 0 0.0060896
0.523729 0.128874 -2.31298e-18 0.00611938
0.075776 0.534986 0 0.0225193
0.467897 0.271334 3.46945e-18 0.00788307
0.350249 0.412396 -3.46945e-18 0.011861
0.523729 0.137234 0 0.00617741
0.412065 0.352034 -2.31298e-18 0.0101341
0.288433 0.46022 0 0.0149316
0.523729 0.145897 0 0.00623519
0.151552 0.523639 0 0.0197734
0.523729 0.154876 -3.08149e-33 0.00629214
0 0.546332 0 0.0159197
0.523729 0.159528 0 0.00631984
0.467897 0.284867 -3.46945e-18 0.00792313
0.523729 0.16418 -2.31298e-18 0.00634755
0.523729 0.173822 0 0.00640145
0.412065 0.368496 0 0.0100822
0.523729 0.183814 0 0.00645383
0.467897 0.29889 0 0.00796102
0.350249 0.431051 -3.46945e-18 0.0116672
0.219992 0.51269 0 0.0174069
0.523729 0.194169 0 0.00650466
0.288433 0.48061 0 0.0145759
0.523729 0.2049 0 0.00655391
0.467897 0.313423 3.46945e-18 0.00799424
0.075776 0.558091 0 0.0223457
0.412065 0.385557 0 0.0100133
0.523729 0.21602 -3.08149e-33 0.00660155
0.151552 0.546332 0 0.019485
0 0.569849 0 0.0158421
0.350249 0.450382 3.46945e-18 0.0114819
0.523729 0.227544 -3.08149e-33 0.00664747
0.467897 0.328483 0 0.00802099
0.523729 0.231525 1.54074e-33 0.00666218
0.574156 0.00184056 0 4.41964e-07
0.574156 0.00558849 0 3.32503e-06
0.574157 0.00947248 0 1.69269e-05
0.574156 0.0134975 -3.46945e-18 3.632e-05
0.574156 0.0176687 -3.46945e-18 6.90497e-05
0.574156 0.0219913 0 0.000128174
0.574156 0.0264708 -3.46945e-18 0.000253238
0.574156 0.031113 0 0.00042993
0.574156 0.0359238 -3.46945e-18 0.000679306
0.574157 0.0409092 0 0.00100505
0.523729 0.239487 3.70071e-18 0.00669159
0.574156 0.0460755 -3.46945e-18 0.00140799
0.574156 0.0514295 0 0.00188707
0.412065 0.403236 0 0.00992568
0.574157 0.0569779 0 0.00243899
0.574156 0.0627277 0 0.00305714
0.574156 0.0686863 0 0.00373101
0.219992 0.534986 0 0.0169607
0.288433 0.501741 0 0.014262
0.574156 0.0748612 3.46945e-18 0.00444409
0.574156 0.0812603 0 0.00479927
0.467897 0.344091 0 0.00803997
0.574156 0.0878917 3.46945e-18 0.0048763
0.523729 0.251863 0 0.0067338
0.574157 0.0947639 0 0.00494789
0.574156 0.101886 0 0.00501584
0.574156 0.109266 0 0.00507806
0.574156 0.116914 0 0.0051359
0.412065 0.416977 -6.16298e-33 0.00984957
0.350249 0.470415 0 0.0113178
0.523729 0.264688 0 0.00677415
0.075776 0.582034 0 0.0221314
0.574156 0.12484 0 0.00518978
0.574156 0.133054 3.46945e-18 0.00524034
0.412065 0.421557 -2.31298e-18 0.0098242
0.151552 0.569849 0 0.0191948
0.467897 0.360265 -3.46945e-18 0.00805065
0.574157 0.141566 -3.46945e-18 0.00528851
0.523729 0.27798 0 0.006813
0.574156 0.150386 3.46945e-18 0.0053349
0 0.594219 0 0.0157312
0.574156 0.159528 -3.46945e-18 0.00537983
0.574156 0.16418 0 0.00558475
0.288433 0.523639 1.2326e-32 0.0139784
0.574157 0.169001 0 0.0054235
0.523729 0.291753 0 0.00685063
0.219993 0.558091 3.46945e-18 0.0165591
0.467897 0.377026 0 0.00805283
0.574156 0.178818 3.46945e-18 0.00546604
0.412065 0.440544 -2.31298e-18 0.00971881
0.350249 0.491175 0 0.0111778
0.574156 0.188992 3.46945e-18 0.00550753
0.523729 0.306027 -3.08149e-33 0.00688621
0.574157 0.199535 0 0.00554804
0.574157 0.21046 0 0.00558763
0.075776 0.606847 0 0.0218915
0.467897 0.394397 0 0.00804606
0.151552 0.594219 0 0.018911
0.523729 0.320819 0 0.0069183
0.574157 0.221782 -3.46945e-18 0.00562639
0.412065 0.46022 3.08149e-33 0.00961936
0.288433 0.546332 0 0.0137225
0 0.619475 0 0.0155953
0.574156 0.233515 3.46945e-18 0.00566441
0.350249 0.51269 3.46945e-18 0.0110569
0.219992 0.582034 3.46945e-18 0.0162017
0.523729 0.336148 0 0.0069457
0.467897 0.412396 0 0.00802975
0.574156 0.245675 0 0.00570183
0.624584 0 0 0
0.624584 0.00368111 0 1.85719e-06
0.624584 0.00749587 0 1.06944e-05
0.624584 0.0114491 0 2.79692e-05
0.624584 0.0155459 0 5.25215e-05
0.624584 0.0197915 0 9.27521e-05
0.624584 0.0241911 -2.31298e-18 0.000170581
0.624584 0.0287506 0 0.000304018
0.624584 0.0334755 0 0.000496782
0.624584 0.038372 0 0.000755568
0.624584 0.0434463 -2.31298e-18 0.00108623
0.624584 0.0487048 0 0.00148872
0.624584 0.0541543 0 0.00196067
0.624584 0.0598016 0 0.0024969
0.624584 0.0656539 0 0.00308859
0.624584 0.0717187 0 0.00370937
0.624584 0.0780037 0 0.00413463
0.574157 0.258276 3.46945e-18 0.00573878
0.624584 0.0845169 0 0.00428581
0.523729 0.352034 0 0.00696763
0.624584 0.0912666 0 0.00436014
0.624584 0.0982613 0 0.00442893
0.412065 0.48061 3.08149e-33 0.00953201
0.624584 0.10551 0 0.00449139
0.624584 0.113022 -2.31298e-18 0.00454842
0.574156 0.271334 0 0.00577545
0.624584 0.120806 0 0.00460115
0.467897 0.431051 0 0.00800495
0.075776 0.632561 -3.46945e-18 0.0216353
0.624584 0.128874 0 0.00465017
0.151552 0.619475 0 0.018638
0.288433 0.569849 0 0.0134941
0.350249 0.534985 0 0.0109506
0.624584 0.137234 -2.31298e-18 0.00469619
0.523729 0.368496 0 0.00698375
0.574156 0.284866 -3.46945e-18 0.00581196
0.624584 0.145897 0 0.00473987
0.467897 0.440544 0 0.00835328
0.624584 0.154876 0 0.00478168
0.219992 0.606847 -3.46945e-18 0.0158861
0 0.645647 0 0.0154409
0.624584 0.16418 -3.08149e-33 0.00482196
0.574156 0.29889 -3.46945e-18 0.00584808
0.624584 0.173822 0 0.00486092
0.412065 0.501741 1.54074e-33 0.00945782
0.467897 0.450382 -3.46945e-18 0.00797536
0.523729 0.385557 0 0.00699385
0.624584 0.183814 0 0.00489873
0.624584 0.194169 0 0.00493551
0.574156 0.313423 0 0.00588308
0.624584 0.2049 0 0.00497138
0.350249 0.558091 3.46945e-18 0.0108564
0.288433 0.594219 0 0.0132924
0.624584 0.21602 0 0.00500646
0.523729 0.403236 0 0.00699762
0.574156 0.328483 -3.46945e-18 0.00591607
0.151552 0.645647 0 0.0183775
0.467897 0.470415 3.46945e-18 0.00794595
0.075776 0.659208 0 0.0213692
0.624584 0.227544 0 0.00504089
0.412065 0.523639 0 0.00939506
0.523729 0.41545 3.08149e-33 0.00699596
0.624584 0.239487 3.70071e-18 0.0050748
0.574156 0.344091 0 0.00594622
0.219992 0.632561 0 0.0156087
0.67013 0.00184055 0 3.31204e-07
0.67013 0.00558849 0 3.33386e-06
0.67013 0.00947248 0 1.9123e-05
0.67013 0.0134975 0 3.93433e-05
0.67013 0.0176687 -3.46945e-18 6.53942e-05
0.67013 0.0219913 0 0.000109109
0.67013 0.0264708 3.46945e-18 0.000194266
0.67013 0.0311131 0 0.000343237
0.67013 0.0359237 0 0.000541735
0.67013 0.0409092 -3.46945e-18 0.000806776
0.67013 0.0460755 0 0.0011398
0.67013 0.0514296 3.46945e-18 0.00153945
0.523729 0.421557 -2.31298e-18 0.00699514
0.67013 0.056978 0 0.00200193
0 0.67277 0 0.0152729
0.67013 0.0627277 0 0.00252026
0.624584 0.251863 0 0.00510834
0.67013 0.0686863 0 0.00308331
0.67013 0.0748612 3.46945e-18 0.0036253
0.67013 0.0812603 0 0.00372933
0.67013 0.0878917 0 0.0038057
0.67013 0.0947639 3.46945e-18 0.00387804
0.574156 0.360265 0 0.00597305
0.67013 0.101886 0 0.00394141
0.523729 0.431051 0 0.00699144
0.624584 0.264688 0 0.00514165
0.467897 0.491175 0 0.00792085
0.67013 0.109266 3.46945e-18 0.00399801
0.350249 0.582034 0 0.0107736
0.67013 0.116914 0 0.00404984
0.67013 0.12484 0 0.00409755
0.67013 0.133054 0 0.00414183
0.288433 0.619475 0 0.013116
0.624584 0.27798 -3.08149e-33 0.00517485
0.412065 0.546332 1.54074e-33 0.00934197
0.523729 0.440544 -3.08149e-33 0.00698775
0.67013 0.141566 3.46945e-18 0.00418328
0.685312 0.0241911 -7.70372e-34 0.000149603
0.685312 0.0434463 -7.70372e-34 0.000954252
0.67013 0.150387 0 0.00422241
0.574156 0.377026 -3.46945e-18 0.00599643
0.67013 0.159528 0 0.00425967
0.624584 0.291753 0 0.00520788
0.151552 0.67277 0 0.0181298
0.075776 0.686823 0 0.0210979
0.67013 0.169001 0 0.00429537
0.67013 0.178818 0 0.00432977
0.467897 0.51269 0 0.00790204
0.685312 0.113022 -7.70372e-34 0.0039537
0.219992 0.659208 0 0.0153652
0.624584 0.306027 0 0.00524045
0.67013 0.188991 0 0.00436305
0.574156 0.394397 3.46945e-18 0.00601628
0.523729 0.46022 0 0.00697814
0.685312 0.137234 -7.70372e-34 0.00409224
0.67013 0.199535 -3.46945e-18 0.00439538
0.350249 0.606847 0 0.0107024
0 0.700877 0 0.0150954
0.624584 0.320819 0 0.00527201
0.67013 0.21046 0 0.00442691
0.412065 0.569849 -2.31298e-18 0.00929749
0.67013 0.221782 -3.46945e-18 0.00445782
0.574157 0.412396 0 0.00603245
0.288433 0.645647 0 0.0129634
0.624584 0.336148 -3.08149e-33 0.00530196
0.67013 0.233515 3.46945e-18 0.00448827
0.467897 0.534986 0 0.00788974
0.523729 0.48061 0 0.00696944
0.624584 0.344091 0 0.0053159
0.67013 0.245675 0 0.00451842
0.715676 4.54095e-19 0 4.73392e-23
0.715676 0.00368111 0 1.82437e-06
0.715676 0.00749587 0 1.18788e-05
0.715676 0.0114491 0 3.10093e-05
0.715676 0.0155459 0 5.37752e-05
0.715676 0.0197915 0 8.49417e-05
0.715676 0.0241911 0 0.000139114
0.715676 0.0287506 0 0.00024405
0.715676 0.0334755 0 0.000403435
0.715676 0.038372 0 0.000614053
0.624584 0.352034 -2.31298e-18 0.00532983
0.715676 0.0434463 0 0.000888266
0.151552 0.700877 0 0.0178952
0.715676 0.0487048 0 0.00122625
0.715676 0.0541543 0 0.0016254
0.574156 0.43105 0 0.00604495
0.715676 0.0598016 0 0.00208011
0.67013 0.258275 0 0.00454844
0.715676 0.0656539 0 0.00258098
0.715676 0.0717187 0 0.00305512
0.075776 0.715441 0 0.0208252
0.715676 0.0780037 0 0.00331794
0.715676 0.0845169 0 0.0034055
0.219992 0.686824 0 0.0151516
0.715676 0.0912666 0 0.0034791
0.715676 0.0982613 0 0.00354519
0.67013 0.271334 -3.46945e-18 0.00457843
0.350249 0.632561 -3.46945e-18 0.0106433
0.412065 0.594219 3.08149e-33 0.00926141
0.715676 0.10551 0 0.0036036
0.715676 0.113022 0 0.00365633
0.624584 0.368496 0 0.00535534
0.523729 0.501741 0 0.00696408
0.715676 0.120806 0 0.00370458
0.715676 0.128874 0 0.00374901
0.67013 0.284867 0 0.0046084
0.467897 0.558091 3.46945e-18 0.00788336
0.715676 0.137234 0 0.00379027
0.574156 0.450382 0 0.00605453
0 0.730005 0 0.0149122
0.715676 0.145897 0 0.0038289
0.288433 0.67277 0 0.0128325
0.715676 0.154876 0 0.00386539
0.67013 0.29889 0 0.00463828
0.624584 0.385557 0 0.00537838
0.715676 0.16418 -9.25187e-19 0.00390008
0.715676 0.173822 0 0.00393327
0.715676 0.183814 0 0.00396519
0.67013 0.313423 0 0.00466784
0.523729 0.523639 0 0.00696329
0.715676 0.194169 0 0.00399603
0.574156 0.470415 3.46945e-18 0.00606277
0.624584 0.403236 0 0.00539887
0.743101 0.0241911 -7.70372e-34 0.000133058
0.412065 0.619475 3.08149e-33 0.00923402
0.715676 0.2049 0 0.00402596
0.151552 0.730005 0 0.0176735
0.67013 0.328484 3.46945e-18 0.00469674
0.350249 0.659208 0 0.0105965
0.467897 0.582034 0 0.00788246
0.715676 0.21602 0 0.00405515
0.219992 0.715441 0 0.0149642
0.075776 0.745097 -3.46945e-18 0.020554
0.715676 0.227544 0 0.00408376
0.67013 0.344091 0 0.00472462
0.624584 0.421557 0 0.00541675
0.743101 0.128874 -7.70372e-34 0.0035462
0.715676 0.239487 3.70071e-18 0.00411195
0.574156 0.491175 0 0.00607167
0.756814 0.00184055 0 2.46679e-07
0.523729 0.546332 0 0.00696736
0.756813 0.00558849 0 3.38677e-06
0.756813 0.00947248 0 2.1599e-05
0.756814 0.0134975 -3.46945e-18 4.37724e-05
0.756814 0.0155459 0 5.54413e-05
0.756814 0.0176687 0 6.64332e-05
0.756814 0.0219913 0 9.90931e-05
0.756814 0.0264709 0 0.000155409
0.756814 0.031113 -3.46945e-18 0.000286081
0.756813 0.0359238 -3.46945e-18 0.000447103
0.288433 0.700877 0 0.0127213
0.756814 0.0409092 -3.46945e-18 0.000667405
0.756813 0.0460755 3.46945e-18 0.000948689
0.756813 0.0514296 0 0.00128987
0.715676 0.251863 0 0.00413987
0.756813 0.0569779 0 0.00168677
0.756814 0.0627277 -3.46945e-18 0.00213191
0.756814 0.0686863 -3.46945e-18 0.00261336
0 0.76019 0 0.0147264
0.756814 0.0748612 0 0.00293224
0.67013 0.360265 3.46945e-18 0.00475121
0.756814 0.0812603 -3.46945e-18 0.00302537
0.756814 0.0878917 -3.46945e-18 0.00310239
0.756814 0.0947639 -3.46945e-18 0.00317113
0.715676 0.264688 0 0.00416762
0.756813 0.101886 0 0.00323123
0.624584 0.440544 0 0.00543227
0.756813 0.109266 3.46945e-18 0.00328498
0.756813 0.116914 3.46945e-18 0.00333387
0.412065 0.645647 0 0.00921572
0.467897 0.606847 0 0.00788711
0.756814 0.120806 0 0.00340121
0.756813 0.12484 0 0.00337858
0.715676 0.27798 0 0.00419527
0.756814 0.133054 -3.46945e-18 0.00341976
0.67013 0.377026 -3.46945e-18 0.00477632
0.756814 0.137234 0 0.00348515
0.574156 0.51269 0 0.0060829
0.756813 0.141566 3.46945e-18 0.00345803
0.685312 0.352034 -7.70372e-34 0.00466269
0.743101 0.2049 -7.70372e-34 0.00381695
0.350249 0.686824 0 0.010562
0.756814 0.150387 0 0.0034939
0.756814 0.154876 0 0.00355828
0.715676 0.291753 0 0.00422283
0.756814 0.159528 -3.46945e-18 0.00352775
0.523729 0.569849 0 0.00697618
0.72743 0.264688 0 0.00407567
0.756814 0.16418 0 0.00359185
0.151552 0.76019 0 0.0174647
0.756813 0.169001 3.46945e-18 0.0035599
0.624584 0.46022 0 0.00544621
0.219993 0.745097 0 0.0148001
0.67013 0.394396 0 0.00479987
0.756813 0.178818 -3.46945e-18 0.0035906
0.715676 0.306027 0 0.0042502
0.075776 0.775831 0 0.0202874
0.756813 0.188991 0 0.00362009
0.756814 0.199535 0 0.00364855
0.715676 0.320819 0 0.00427719
0.574156 0.534985 0 0.00609752
0.288433 0.730005 0 0.0126281
0.756813 0.21046 0 0.00367616
0.467897 0.632561 0 0.00789768
0.67013 0.412396 -3.46945e-18 0.00482183
0.624584 0.48061 -3.08149e-33 0.00545982
0.756814 0.221782 0 0.00370307
0.412065 0.67277 3.08149e-33 0.00920677
0.715676 0.336148 0 0.00430358
0 0.791472 0 0.0145411
0.756813 0.233516 3.46945e-18 0.00372944
0.523729 0.594219 0 0.00698969
0.624584 0.487654 1.54074e-33 0.00546471
0.756814 0.245675 3.46945e-18 0.00375543
0.350249 0.715441 3.46945e-18 0.0105394
0.67013 0.43105 0 0.00484219
0.715676 0.352034 -9.25187e-19 0.00432913
0.797951 9.08189e-19 -3.08149e-33 7.14956e-23
0.797951 0.00368111 2.31298e-18 1.81408e-06
0.797951 0.00749587 2.31298e-18 1.31663e-05
0.797951 0.0114491 2.31298e-18 3.4572e-05
0.797951 0.0141803 7.70372e-34 4.95956e-05
0.797951 0.0155459 0 5.71075e-05
0.797951 0.0169611 7.70372e-34 6.54755e-05
0.797951 0.0197915 2.31298e-18 8.22114e-05
0.797951 0.0219913 0 0.000101579
0.797951 0.0241911 3.08149e-33 0.000120947
0.797951 0.0264709 0 0.000160946
0.797951 0.0287506 -3.08149e-33 0.000200946
0.797951 0.0334755 2.31298e-18 0.000334521
0.797951 0.038372 2.31298e-18 0.000513687
0.797951 0.0434463 2.31298e-18 0.000745025
0.797951 0.0487048 0 0.00103422
0.756813 0.258275 -3.46945e-18 0.00378113
0.797951 0.0541543 2.31298e-18 0.0013787
0.797951 0.0598016 2.31298e-18 0.00177251
0.797951 0.0656539 2.31298e-18 0.00220427
0.574156 0.55809 0 0.00611593
0.624584 0.501741 0 0.00547448
0.797951 0.0717187 2.31298e-18 0.00255065
0.797951 0.0780037 -3.08149e-33 0.00271997
0.797951 0.0845169 2.31298e-18 0.00280551
0.797951 0.0912666 -3.08149e-33 0.0028789
0.797951 0.0982613 2.31298e-18 0.00294315
0.756813 0.271334 0 0.00380664
0.797951 0.10551 2.31298e-18 0.00299997
0.715676 0.368496 0 0.00435364
0.151552 0.791472 0 0.0172693
0.797951 0.113022 2.31298e-18 0.0030512
0.219992 0.775831 3.46945e-18 0.014657
0.797951 0.118211 7.70372e-34 0.0030823
0.770526 0.239487 1.54074e-33 0.00368762
0.797951 0.120806 0 0.00309785
0.67013 0.450382 3.46945e-18 0.00486119
0.797951 0.128874 3.08149e-33 0.00314058
0.467897 0.659208 0 0.00791465
0.756813 0.284866 -3.46945e-18 0.00383201
0.743101 0.320819 -7.70372e-34 0.00405738
0.797951 0.137234 0 0.00318004
0.797951 0.141566 0 0.0031984
0.797951 0.145897 -9.25187e-19 0.00321676
0.523729 0.619475 0 0.00700811
0.075776 0.807681 0 0.0200279
0.797951 0.150387 0 0.00323396
0.797951 0.154876 0 0.00325117
0.715676 0.385557 0 0.00437701
0.412065 0.700877 3.08149e-33 0.00920728
0.288433 0.76019 0 0.0125516
0.756813 0.29889 0 0.00385724
0.797951 0.16418 0 0.00328362
0.624584 0.523639 0 0.00549137
0.797951 0.167394 7.70372e-34 0.00329388
0.797951 0.173822 2.31298e-18 0.0033144
0.574156 0.582034 0 0.00613821
0.67013 0.470415 0 0.0048794
0.797951 0.183814 2.31298e-18 0.00334375
0.756813 0.313423 -3.46945e-18 0.00388226
0.797951 0.194169 -9.25187e-19 0.00337186
0.715676 0.403236 0 0.00439919
0.151552 0.807681 0 0.0171784
0.797951 0.197746 -7.70372e-34 0.00338089
0.350249 0.745097 0 0.0105284
0.797951 0.2049 3.08149e-33 0.00339893
0 0.823889 0 0.0143589
0.756813 0.328483 -3.46945e-18 0.00390697
0.797951 0.21046 0 0.00341202
0.797951 0.21602 -3.08149e-33 0.00342512
0.797951 0.223703 7.70372e-34 0.00344209
0.797951 0.227544 9.25187e-19 0.00345057
0.624584 0.546332 0 0.00551119
0.715676 0.421557 0 0.00442018
0.67013 0.491176 -3.46945e-18 0.00489774
0.797951 0.231525 7.70372e-34 0.00345887
0.467897 0.686824 -3.46945e-18 0.00793845
0.523729 0.645647 0 0.00703181
0.756813 0.344091 -3.46945e-18 0.0039312
0.822721 0.120806 7.70372e-34 0.00295237
0.797951 0.239487 -3.08149e-33 0.00347545
0.822721 0.137234 7.70372e-34 0.0030344
0.835106 0.00184056 0 1.82163e-07
0.835106 0.00558849 0 3.44112e-06
0.835106 0.00947248 0 2.41698e-05
0.835106 0.0134975 0 4.85532e-05
0.835107 0.0176687 0 6.94655e-05
0.835106 0.0219913 -3.46945e-18 9.39123e-05
0.574156 0.606847 3.46945e-18 0.00616449