# nutMean  POINT_DATA 63840
# x  y  z  nutMean
0 0.5 3.39583e-17 0.0159184
0 0.5 -0.00617931 0.0159309
0 0.5 0.00617931 0.0159127
0.0124865 0.5 -0.00617931 0.0170386
0.0124865 0.5 0.00617931 0.0170297
0 0.5 -0.0688207 0.0159938
0 0.5 0.0688207 0.0157337
0.0124865 0.5 -0.0688207 0.0171015
0.0124865 0.5 0.0688207 0.0168507
0 0.5 -0.075 0.0159939
0 0.5 0.075 0.0157039
0 0.5 -0.0811793 0.0160008
0 0.5 0.0811793 0.0156807
0.0124865 0.5 -0.0811793 0.0171264
0.0124865 0.5 0.0811793 0.016783
0.075776 0.5 -0.0375 0.0226665
0.075776 0.5 0.0375 0.0226142
0.075776 0.5 -0.1125 0.022814
0.075776 0.5 0.1125 0.0222066
0 0.5 -0.143821 0.0159271
0 0.5 0.143821 0.0153486
0.0124865 0.5 -0.143821 0.0170527
0.0124865 0.5 0.143821 0.0164509
0 0.5 -0.15 0.0159055
0 0.5 0.15 0.0153061
0.151149 0.5 -0.00137318 0.020098
0 0.5 -0.156179 0.0158907
0 0.5 0.156179 0.0152697
0.0124865 0.5 -0.156179 0.0170057
0.0124865 0.5 0.156179 0.016337
0.151149 0.5 0.075 0.0199426
0.151149 0.5 -0.075 0.0201242
0.075776 0.5 -0.1875 0.0225334
0.075776 0.5 0.1875 0.0215231
0.151149 0.5 0.15 0.019601
0.151149 0.5 -0.15 0.0200592
0 0.5 -0.218821 0.0156371
0 0.5 0.218821 0.0148418
0.0124865 0.5 -0.218821 0.016752
0.0124865 0.5 0.218821 0.0159091
0.219992 0.5 0.0375 0.0176822
0.219993 0.5 -0.0375 0.0177072
0 0.5 -0.225 0.0156015
0 0.5 0.225 0.0147936
0 0.5 -0.231179 0.0155723
0 0.5 0.231179 0.0147506
0.0124865 0.5 -0.231179 0.0166526
0.0124865 0.5 0.231179 0.015776
0.219992 0.5 0.1125 0.0175988
0.219993 0.5 -0.1125 0.01766
0.151149 0.5 -0.225 0.0197473
0.151149 0.5 0.225 0.0190932
0.075776 0.5 -0.2625 0.0219381
0.075776 0.5 0.2625 0.0207237
0.288069 0.5 -0.00137318 0.0143296
0.219992 0.5 0.1875 0.0173797
0.219993 0.5 -0.1875 0.0175801
0 0.5 0.293821 0.0142847
0 0.5 -0.293821 0.0152095
0.0124865 0.5 -0.293821 0.0162897
0.0124865 0.5 0.293821 0.0153101
0.288069 0.5 -0.075 0.0142996
0.288069 0.5 0.075 0.0142937
0 0.5 -0.3 0.0151673
0 0.5 0.3 0.0142363
0 0.5 0.306179 0.0141909
0 0.5 -0.306179 0.0151299
0.0124865 0.5 -0.306179 0.0161695
0.0124865 0.5 0.306179 0.0151717
0.288069 0.5 -0.15 0.0142876
0.288069 0.5 0.15 0.014244
0.151149 0.5 -0.3 0.0192605
0.151149 0.5 0.3 0.0185027
0.219992 0.5 -0.2625 0.0172712
0.219992 0.5 0.2625 0.0170192
0.075776 0.5 0.3375 0.0198926
0.075776 0.5 -0.3375 0.0212173
0.350249 0.5 -0.0375 0.01112
0.350249 0.5 0.0375 0.0111365
0.288069 0.5 -0.225 0.0142219
0.288069 0.5 0.225 0.0141312
0.350249 0.5 0.1125 0.0111786
0.350249 0.5 -0.1125 0.0111374
0 0.5 0.368821 0.0137268
0 0.5 -0.368821 0.0147137
0.0124865 0.5 -0.368821 0.0157533
0.0124865 0.5 0.368821 0.0147077
0 0.5 -0.375 0.0146696
0 0.5 0.375 0.0136815
0 0.5 -0.381179 0.0146279
0 0.5 0.381179 0.0136364
0.0124865 0.5 -0.381179 0.0156252
0.0124865 0.5 0.381179 0.0145736
0.350249 0.5 -0.1875 0.0111926
0.350249 0.5 0.1875 0.0112276
0.219992 0.5 -0.3375 0.0169255
0.219992 0.5 0.3375 0.0166174
0.151149 0.5 -0.375 0.0187173
0.151149 0.5 0.375 0.0178963
0.411736 0.5 -0.00137318 0.00948425
0.288069 0.5 -0.3 0.0140926
0.288069 0.5 0.3 0.0139753
0.411736 0.5 -0.075 0.00947881
0.411736 0.5 0.075 0.0094998
0.075776 0.5 -0.4125 0.0204489
0.075776 0.5 0.4125 0.0190882
0.350249 0.5 -0.2625 0.0112471
0.350249 0.5 0.2625 0.011285
0.411736 0.5 -0.15 0.00951883
0.411736 0.5 0.15 0.00955332
0 0.5 -0.443821 0.0141998
0 0.5 0.443821 0.0132065
0.0124865 0.5 -0.443821 0.0151971
0.0124865 0.5 0.443821 0.0141436
0 0.5 -0.45 0.0141579
0 0.5 0.45 0.0131676
0 0.5 -0.456179 0.0141154
0 0.5 0.456179 0.0131274
0.0124865 0.5 -0.456179 0.0150717
0.0124865 0.5 0.456179 0.0140267
0.219992 0.5 -0.4125 0.0165596
0.219993 0.5 0.4125 0.0162001
0.411736 0.5 -0.225 0.00958986
0.411736 0.5 0.225 0.00962462
0.467897 0.5 0.0375 0.00791611
0.467897 0.5 -0.0375 0.00791016
0.288069 0.5 -0.375 0.0139563
0.288069 0.5 0.375 0.0138078
0.151149 0.5 -0.45 0.0181644
0.151149 0.5 0.45 0.0173162
0.467897 0.5 -0.1125 0.00794253
0.467897 0.5 0.1125 0.00796379
0.350249 0.5 0.3375 0.0113378
0.350249 0.5 -0.3375 0.0113052
0.075776 0.5 -0.4875 0.0196979
0.075776 0.5 0.4875 0.0183749
0.467897 0.5 -0.1875 0.00799714
0.467897 0.5 0.1875 0.00803818
0.411736 0.5 -0.3 0.00967995
0.411736 0.5 0.3 0.00970713
0 0.5 -0.518821 0.0137122
0 0.5 0.518821 0.0127519
0.0124865 0.5 0.518821 0.0136512
0.0124865 0.5 -0.518821 0.0146685
0.523432 0.5 -0.00137318 0.00697573
0 0.5 -0.525 0.0136759
0 0.5 0.525 0.0127189
0.523432 0.5 -0.075 0.00698415
0.523432 0.5 0.075 0.0069915
0 0.5 -0.531179 0.0136376
0 0.5 0.531179 0.0126851
0.0124865 0.5 -0.531179 0.0145592
0.0124865 0.5 0.531179 0.0135526
0.288069 0.5 -0.45 0.01383
0.288069 0.5 0.45 0.0136452
0.219992 0.5 -0.4875 0.0162044
0.219993 0.5 0.4875 0.01579
0.467897 0.5 -0.2625 0.00811499
0.467897 0.5 0.2625 0.00814044
0.350249 0.5 -0.4125 0.0113854
0.350249 0.5 0.4125 0.0114035
0.523432 0.5 -0.15 0.00703139
0.523432 0.5 0.15 0.00704881
0.151149 0.5 -0.525 0.0176462
0.151149 0.5 0.525 0.0167926
0.411736 0.5 -0.375 0.00978716
0.411736 0.5 0.375 0.0098032
0.075776 0.5 -0.5625 0.0190314
0.075776 0.5 0.5625 0.0177652
0.523432 0.5 -0.225 0.0071155
0.523432 0.5 0.225 0.00713459
0.574156 0.5 -0.0375 0.00607675
0.574156 0.5 0.0375 0.0060758
0.467897 0.5 0.3375 0.0082548
0.467897 0.5 -0.3375 0.00824095
0.574156 0.5 -0.1125 0.00611064
0.574156 0.5 0.1125 0.00611449
0 0.5 -0.593821 0.0132825
0 0.5 0.593821 0.0123718
0.0124865 0.5 -0.593821 0.0142041
0.0124865 0.5 0.593821 0.0132393
0.288069 0.5 -0.525 0.013727
0.288069 0.5 0.525 0.0134987
0 0.5 -0.6 0.0132515
0 0.5 0.6 0.0123446
0.350249 0.5 -0.4875 0.0114918
0.350249 0.5 0.4875 0.0114834
0.523432 0.5 -0.3 0.00723479
0.523432 0.5 0.3 0.00724337
0.219992 0.5 -0.5625 0.0158786
0.219992 0.5 0.5625 0.0154103
0.574156 0.5 -0.1875 0.0061783
0.574156 0.5 0.1875 0.0061834
0 0.5 -0.606179 0.0132193
0 0.5 0.606179 0.0123172
0.0124865 0.5 -0.606179 0.0141125
0.0124865 0.5 0.606179 0.0131586
0.411736 0.5 -0.45 0.00992396
0.411736 0.5 0.45 0.00992111
0.151149 0.5 -0.6 0.0171922
0.151149 0.5 0.6 0.0163422
0.62168 0.5 2.64545e-17 0.00551197
0.467897 0.5 0.4125 0.0084019
0.467897 0.5 -0.4125 0.00840105
0.624316 0.5 0.0729402 0.00549154
0.624316 0.5 -0.075 0.00549412
0.574156 0.5 -0.2625 0.00627486
0.574157 0.5 0.2625 0.00628127
0.075776 0.5 -0.6375 0.018464
0.075776 0.5 0.6375 0.0172703
0.624316 0.5 -0.15 0.00554403
0.624316 0.5 0.15 0.00554067
0.523432 0.5 -0.375 0.00738212
0.523432 0.5 0.375 0.00737407
0.350249 0.5 -0.5625 0.0116243
0.350249 0.5 0.5625 0.0115759
0.624316 0.5 -0.225 0.00562229
0.624316 0.5 0.225 0.00561826
0.288069 0.5 0.6 0.0133781
0.288069 0.5 -0.6 0.0136563
0.574156 0.5 -0.3375 0.00641193
0.574156 0.5 0.3375 0.00640186
0.411736 0.5 -0.525 0.0100914
0.411736 0.5 0.525 0.0100588
0 0.5 -0.668821 0.0129222
0 0.5 0.668821 0.0120706
0.0124865 0.5 -0.668821 0.0138154
0.0124865 0.5 0.668821 0.012912
0.67013 0.5 0.0375 0.00490345
0.67013 0.5 -0.0375 0.00490803
0.219993 0.5 -0.6375 0.0156003
0.219993 0.5 0.6375 0.0150791
0 0.5 -0.675 0.0128967
0 0.5 0.675 0.0120501
0.467897 0.5 0.4875 0.0085756
0.467897 0.5 -0.4875 0.00859647
0.67013 0.5 -0.1125 0.00494178
0.67013 0.5 0.1125 0.00493353
0 0.5 -0.681179 0.0128706
0 0.5 0.681179 0.0120288
0.0124865 0.5 -0.681179 0.0137414
0.0124865 0.5 0.681179 0.0128503
0.523432 0.5 -0.45 0.00756243
0.523432 0.5 0.45 0.0075339
0.151149 0.5 -0.675 0.0168167
0.151149 0.5 0.675 0.015976
0.624316 0.5 -0.3 0.00573419
0.624316 0.5 0.3 0.00572293
0.67013 0.5 0.1875 0.00499288
0.67013 0.5 -0.1875 0.00500618
0.574156 0.5 -0.4125 0.00657763
0.574157 0.5 0.4125 0.00654263
0.708171 0.5 1.88651e-17 0.0045631
0.075776 0.5 -0.7125 0.0180083
0.075776 0.5 0.7125 0.0168946
0.715434 0.5 0.0736268 0.00451713
0.715434 0.5 -0.075 0.00451644
0.67013 0.5 0.2625 0.0050777
0.67013 0.5 -0.2625 0.00509098
0.350249 0.5 -0.6375 0.0117841
0.350249 0.5 0.6375 0.0116823
0.411736 0.5 -0.6 0.0102895
0.411736 0.5 0.6 0.0102155
0.624316 0.5 -0.375 0.00588075
0.624316 0.5 0.375 0.00584833
0.715434 0.5 -0.15 0.00456342
0.715434 0.5 0.15 0.00454913
0.467897 0.5 -0.5625 0.00882635
0.467897 0.5 0.5625 0.00877431
0.288069 0.5 -0.675 0.0136259
0.288069 0.5 0.675 0.0132907
0.523432 0.5 -0.525 0.0077776
0.523432 0.5 0.525 0.00772313
0 0.5 -0.743821 0.0126385
0 0.5 0.743821 0.0118487
0.0124865 0.5 -0.743821 0.0135094
0.0124865 0.5 0.743821 0.0126702
0.219992 0.5 0.7125 0.0148064
0.219992 0.5 -0.7125 0.0153818
0.715434 0.5 -0.225 0.00463748
0.715434 0.5 0.225 0.00461631
0 0.5 -0.75 0.0126197
0 0.5 0.75 0.0118356
0.67013 0.5 0.3375 0.00519359
0.67013 0.5 -0.3375 0.00522065
0.574156 0.5 -0.4875 0.00677742
0.574156 0.5 0.4875 0.00672046
0 0.5 -0.756179 0.0125995
0 0.5 0.756179 0.0118203
0.0124865 0.5 -0.756179 0.0134544
0.0124865 0.5 0.756179 0.0126288
0.756813 0.5 -0.0375 0.00411124
0.756813 0.5 0.0375 0.00410501
0.151149 0.5 -0.75 0.0165295
0.151149 0.5 0.75 0.0156994
0.756813 0.5 -0.1125 0.00414246
0.756813 0.5 0.1125 0.00412896
0.624316 0.5 -0.45 0.00605712
0.624316 0.5 0.45 0.00599959
0.715434 0.5 -0.3 0.00473924
0.715434 0.5 0.3 0.00470981
0.756813 0.5 0.1875 0.00417945
0.756813 0.5 -0.1875 0.00420121
0.67013 0.5 -0.4125 0.00537496
0.67013 0.5 0.4125 0.00531847
0.411736 0.5 -0.675 0.0105181
0.411736 0.5 0.675 0.0103906
0.467897 0.5 0.6375 0.00899677
0.467897 0.5 -0.6375 0.00909023
0.075776 0.5 -0.7875 0.017673
0.075776 0.5 0.7875 0.0166369
0.350249 0.5 -0.7125 0.0119719
0.350249 0.5 0.7125 0.0118032
0.523432 0.5 -0.6 0.00802766
0.523432 0.5 0.6 0.0079383
0.797732 0.5 2.68882e-17 0.00381985
0.756813 0.5 -0.2625 0.00428954
0.756814 0.5 0.2625 0.00425397
0.797732 0.5 0.0736268 0.00383044
0.797732 0.5 -0.075 0.00383765
0.288069 0.5 -0.75 0.0136397
0.288069 0.5 0.75 0.0132416
0.574156 0.5 -0.5625 0.00701276
0.574157 0.5 0.5625 0.00692685
0.715434 0.5 -0.375 0.00487142
0.715434 0.5 0.375 0.00482642
0.797732 0.5 -0.15 0.00388042
0.797732 0.5 0.15 0.00386206
0.624316 0.5 -0.525 0.00626734
0.624316 0.5 0.525 0.00618374
0.219992 0.5 -0.7875 0.0152277
0.219992 0.5 0.7875 0.0146006
0 0.5 -0.818821 0.0124342
0 0.5 0.818821 0.0117076
0.0124865 0.5 0.818821 0.0125161
0.0124865 0.5 -0.818821 0.013289
0 0.5 -0.825 0.0124232
0 0.5 0.825 0.0117013
0.756813 0.5 0.3375 0.00435341
0.756814 0.5 -0.3375 0.00439428
0.67013 0.5 -0.4875 0.00556131
0.67013 0.5 0.4875 0.00548086
0.797732 0.5 -0.225 0.00395064
0.797732 0.5 0.225 0.00392067
0 0.5 -0.831179 0.0124091
0 0.5 0.831179 0.0116939
0.0124865 0.5 -0.831179 0.0132554
0.0124865 0.5 0.831179 0.0124975
0.835106 0.5 0.0375 0.00354032
0.835106 0.5 -0.0375 0.00354691
0.151149 0.5 -0.825 0.016335
0.151149 0.5 0.825 0.0155176
0.835106 0.5 0.1125 0.00356029
0.835106 0.5 -0.1125 0.00357413
0.715434 0.5 -0.45 0.00503407
0.715434 0.5 0.45 0.00496365
0.797732 0.5 -0.3 0.00404074
0.797732 0.5 0.3 0.00400232
0.467897 0.5 0.7125 0.00924027
0.467897 0.5 -0.7125 0.00938681
0.523432 0.5 -0.675 0.00831206
0.523432 0.5 0.675 0.00817748
0.411736 0.5 -0.75 0.0107765
0.411736 0.5 0.75 0.0105838
0.835106 0.5 -0.1875 0.00362822
0.835106 0.5 0.1875 0.00360395
0.574156 0.5 -0.6375 0.00728359
0.574157 0.5 0.6375 0.0071595
0.350249 0.5 -0.7875 0.0121869
0.350249 0.5 0.7875 0.0119406
0.756813 0.5 -0.4125 0.00453522
0.756814 0.5 0.4125 0.00447999
0.075776 0.5 -0.8625 0.017459
0.075776 0.5 0.8625 0.0165081
0.624316 0.5 0.6 0.00639542
0.624316 0.5 -0.6 0.00651251
0.872064 0.5 5.91974e-17 0.00331879
0.870122 0.5 0.075 0.00333877
0.288069 0.5 -0.825 0.0136997
0.288069 0.5 0.825 0.0132347
0.67013 0.5 -0.5625 0.00578146
0.67013 0.5 0.5625 0.00567167
0.872064 0.5 -0.075 0.00333452
0.835106 0.5 -0.2625 0.00370823
0.835106 0.5 0.2625 0.00367008
0.797732 0.5 -0.375 0.00415633
0.797732 0.5 0.375 0.00410916
0.872064 0.5 0.14794 0.00335378
0.872064 0.5 -0.15 0.00337272
0.715434 0.5 -0.525 0.00522808
0.715434 0.5 0.525 0.00512838
0.219992 0.5 0.8625 0.0144643
0.219993 0.5 -0.8625 0.0151422
0 0.5 -0.893821 0.0123147
0 0.5 0.893821 0.0116417
0.0124865 0.5 -0.893821 0.013161
0.0124865 0.5 0.893821 0.0124453
0 0.5 -0.9 0.0123104
0 0.5 0.9 0.0116369
0.756813 0.5 -0.4875 0.0047049
0.756813 0.5 0.4875 0.00461561
0.872064 0.5 -0.225 0.00343611
0.872064 0.5 0.225 0.0034051
0.835106 0.5 -0.3375 0.00379608
0.835106 0.5 0.3375 0.00375702
0 0.5 0.906179 0.0116348
0 0.5 -0.906179 0.0123061
0.0124865 0.5 -0.906179 0.0131534
0.0124865 0.5 0.906179 0.0124344
0.90582 0.5 -0.0375 0.00310612
0.90582 0.5 0.0375 0.00309865
0.151149 0.5 -0.9 0.0162387
0.151149 0.5 0.9 0.0154209
0.90582 0.5 -0.1125 0.00312784
0.905821 0.5 0.1125 0.00311513
0.523432 0.5 -0.75 0.00862992
0.523432 0.5 0.75 0.00843894
0.574156 0.5 -0.7125 0.00758949
0.574156 0.5 0.7125 0.00741699
0.797732 0.5 -0.45 0.00430433
0.797732 0.5 0.45 0.0042335
0.467897 0.5 0.7875 0.00950344
0.467897 0.5 -0.7875 0.00971454
0.624316 0.5 -0.675 0.00679282
0.624316 0.5 0.675 0.00663314
0.411736 0.5 -0.825 0.0110639
0.411736 0.5 0.825 0.0107955
0.872064 0.5 0.3 0.00347698
0.872064 0.5 -0.3 0.00351702
0.67013 0.5 -0.6375 0.00603662
0.67013 0.5 0.6375 0.00588937
0.90582 0.5 0.1875 0.00315286
0.905821 0.5 -0.1875 0.00317781
0.350249 0.5 -0.8625 0.0124291
0.350249 0.5 0.8625 0.0120973
0.835106 0.5 -0.4125 0.00392552
0.835106 0.5 0.4125 0.00387194
0.715434 0.5 -0.6 0.00545539
0.715434 0.5 0.6 0.0053226
0.939201 0.5 2.75387e-17 0.00298814
0.075776 0.5 0.9375 0.0164588
0.075776 0.5 -0.9375 0.0173889
0.939111 0.5 0.075 0.00299433
0.939201 0.5 -0.075 0.00300158
0.756813 0.5 0.5625 0.00478683
0.756814 0.5 -0.5625 0.00490562
0.90582 0.5 0.2625 0.0032109
0.905821 0.5 -0.2625 0.00324759
0.288069 0.5 -0.9 0.013806
0.288069 0.5 0.9 0.013271
0.872064 0.5 -0.375 0.00362049
0.872064 0.5 0.375 0.00357161
0.939201 0.5 0.148627 0.00302155
0.939201 0.5 -0.15 0.0030357
0.797732 0.5 -0.525 0.00448001
0.797732 0.5 0.525 0.00437858
0.219992 0.5 0.9375 0.0143934
0.219992 0.5 -0.9375 0.0151216
0.939201 0.5 -0.225 0.00309336
0.939201 0.5 0.225 0.00306801
0.905821 0.5 -0.3375 0.00333381
0.90582 0.5 0.3375 0.00328768
0.835106 0.5 -0.4875 0.00407805
0.835106 0.5 0.4875 0.00399274
0 0.5 0.968821 0.011614
0 0.5 -0.968821 0.0122686
0.0124865 0.5 -0.968821 0.013116
0.0124865 0.5 0.968821 0.0124136
0.969689 0.5 -0.0375 0.00288118
0.969689 0.5 0.0375 0.00287408
0.574156 0.5 -0.7875 0.00793008
0.574156 0.5 0.7875 0.00769779
0 0.5 -0.975 0.0122616
0 0.5 0.975 0.0116089
0.624316 0.5 -0.75 0.00710811
0.624316 0.5 0.75 0.0068959
0.969689 0.5 -0.1125 0.00289871
0.96969 0.5 0.1125 0.00289118
0.523432 0.5 -0.825 0.00898027
0.523432 0.5 0.825 0.00872134
0.67013 0.5 0.7125 0.00613319
0.67013 0.5 -0.7125 0.00632681
0 0.5 -0.981179 0.01226
0 0.5 0.981179 0.0116063
0.467897 0.5 0.8625 0.00978537
0.467897 0.5 -0.8625 0.0100721
0.0124865 0.5 -0.981179 0.0131029
0.0124865 0.5 0.981179 0.0123957
0.872064 0.5 -0.45 0.00375171
0.872064 0.5 0.45 0.00368433
0.715434 0.5 -0.675 0.00571689
0.715434 0.5 0.675 0.00554317
0.939201 0.5 -0.3 0.00316963
0.939201 0.5 0.3 0.0031348
0.151149 0.5 0.975 0.0153716
0.151149 0.5 -0.975 0.0162189
0.969689 0.5 -0.1875 0.00294611
0.969689 0.5 0.1875 0.00292925
0.756813 0.5 -0.6375 0.00513978
0.756813 0.5 0.6375 0.00498492
0.411736 0.5 -0.9 0.0113797
0.411736 0.5 0.9 0.0110268
0.90582 0.5 -0.4125 0.00344454
0.90582 0.5 0.4125 0.00338802
0.995005 0.5 0.0749309 0.00274966
0.797732 0.5 -0.6 0.00468725
0.797732 0.5 0.6 0.0045536
1.00005 0.5 -8.47123e-18 0.00271421
0.350249 0.5 -0.9375 0.0126983
0.350249 0.5 0.9375 0.0122754
1.00005 0.5 -0.0749309 0.00272584
0.969689 0.5 -0.2625 0.00300972
0.969689 0.5 0.2625 0.00298648
0.835106 0.5 -0.5625 0.00425864
0.835106 0.5 0.5625 0.00414613
1.00005 0.5 -0.149862 0.00275708
0.939201 0.5 -0.375 0.00326952
0.939201 0.5 0.375 0.00322103
1.00029 0.5 0.148988 0.00274973
0.075776 0.5 -1.0125 0.0173572
0.075776 0.5 1.0125 0.0163963
0.288069 0.5 0.975 0.0133461
0.288069 0.5 -0.975 0.013959
0.872064 0.5 -0.525 0.00390858
0.872064 0.5 0.525 0.00381609
1.00005 0.5 0.224793 0.00279199
1.00005 0.5 -0.224793 0.00281025
0.969689 0.5 0.3375 0.00306164
0.96969 0.5 -0.3375 0.0030953
1.0271 0.5 -0.0368226 0.00254432
1.0271 0.5 0.0368226 0.00254077
0.90582 0.5 0.4875 0.00350323
0.905821 0.5 -0.4875 0.00357745
1.0271 0.5 -0.110468 0.00256229
1.0271 0.5 0.110468 0.0025435
0.67013 0.5 0.7875 0.00640276
0.67013 0.5 -0.7875 0.00665208
0.624316 0.5 0.825 0.00718266
0.624316 0.5 -0.825 0.00745814
0.219993 0.5 -1.0125 0.0151611
0.219993 0.5 1.0125 0.0143767
0.574156 0.5 -0.8625 0.00830478
0.574156 0.5 0.8625 0.0080004
0.715434 0.5 -0.75 0.00601357
0.715434 0.5 0.75 0.00578967
0.756813 0.5 0.7125 0.00520853
0.756814 0.5 -0.7125 0.00540731
0.523432 0.5 -0.9 0.00936238
0.523432 0.5 0.9 0.00902478
0.939201 0.5 -0.45 0.00339919
0.939201 0.5 0.45 0.00332655
1.04168 0.5 0 0.00246358
1.0271 0.5 -0.184113 0.00260215
1.0271 0.5 0.184113 0.00258904
0 0.5 -1.04382 0.0122356
0 0.5 1.04382 0.0116192
0.0124865 0.5 -1.04382 0.0130784
0.0124865 0.5 1.04382 0.0124087
1.00005 0.5 -0.299723 0.00288339
1.00005 0.5 0.299723 0.00285633
1.04168 0.5 -0.0729162 0.00247335
1.04168 0.5 0.0729162 0.00246813
0.797732 0.5 -0.675 0.00492923
0.797732 0.5 0.675 0.00475375
0.467897 0.5 0.9375 0.0100866
0.467897 0.5 -0.9375 0.0104592
0 0.5 -1.05 0.0122299
0 0.5 1.05 0.0116243
0.835106 0.5 -0.6375 0.00447296
0.835106 0.5 0.6375 0.00432432
1.04168 0.5 -0.145832 0.00249972
1.04168 0.5 0.145832 0.0024896
0.969689 0.5 -0.4125 0.00321221
0.96969 0.5 0.4125 0.00315443
0 0.5 -1.05618 0.0122248
0 0.5 1.05618 0.0116293
0.0124865 0.5 -1.05618 0.0130561
0.0124865 0.5 1.05618 0.0124195
1.05695 0.5 -0.0360764 0.00238517
1.05695 0.5 0.0360764 0.00238281
0.411736 0.5 -0.975 0.011729
0.411736 0.5 0.975 0.0112781
0.872064 0.5 -0.6 0.00409911
0.872064 0.5 0.6 0.00397276
1.0271 0.5 -0.257759 0.00266012
1.0271 0.5 0.257759 0.00264025
0.151149 0.5 -1.05 0.0162256
0.151149 0.5 1.05 0.0153786
1.05695 0.5 0.108229 0.00237689
1.05695 0.5 -0.108229 0.00240097
1.04168 0.5 -0.218749 0.00254422
1.04168 0.5 0.218749 0.0025281
0.90582 0.5 -0.5625 0.00373962
0.905821 0.5 0.5625 0.00364124
1.00005 0.5 -0.374654 0.00298193
1.00005 0.5 0.374654 0.00293849
0.350249 0.5 1.0125 0.0124697
0.350249 0.5 -1.0125 0.013004
1.05695 0.5 -0.180382 0.00243345
1.05695 0.5 0.180382 0.00242041
1.07319 0.5 0.0709442 0.00231972
0.939201 0.5 -0.525 0.00355196
0.939201 0.5 0.525 0.00345258
1.0271 0.5 -0.331404 0.00274012
1.0271 0.5 0.331404 0.00270898
1.08112 0.5 3.23815e-17 0.00228742
1.04168 0.5 -0.291665 0.0026071
1.04168 0.5 0.291665 0.0025825
1.08112 0.5 -0.0709442 0.00229512
0.969689 0.5 -0.4875 0.00336979
0.96969 0.5 0.4875 0.0032683
1.05695 0.5 0.252535 0.00246171
1.05695 0.5 -0.252535 0.00248143
0.288069 0.5 -1.05 0.014158
0.288069 0.5 1.05 0.0134599
0.075776 0.5 -1.0875 0.017267
0.075776 0.5 1.0875 0.0164445
1.08112 0.5 -0.141888 0.00231701
1.08145 0.5 0.140165 0.0023126
0.715434 0.5 0.825 0.00606188
0.715434 0.5 -0.825 0.00634718
0.756813 0.5 0.7875 0.00545847
0.756814 0.5 -0.7875 0.00571207
0.67013 0.5 -0.8625 0.00701241
0.67013 0.5 0.8625 0.00669732
0.797732 0.5 -0.75 0.00520586
0.797732 0.5 0.75 0.00497958
0.624316 0.5 -0.9 0.00784284
0.624316 0.5 0.9 0.00749284
1.00005 0.5 -0.449585 0.00311311
1.00005 0.5 0.449585 0.00304076
0.835106 0.5 -0.7125 0.00472563
0.835106 0.5 0.7125 0.00452591
0.574156 0.5 -0.9375 0.00871275
0.574157 0.5 0.9375 0.00832707
1.10076 0.5 -0.0349809 0.00221702
1.10076 0.5 0.0349809 0.00221627
1.08112 0.5 -0.212832 0.00235411
1.08112 0.5 0.212832 0.0023414
0.872064 0.5 -0.675 0.00432425
0.872064 0.5 0.675 0.00415252
1.04168 0.5 -0.364581 0.00269145
1.04168 0.5 0.364581 0.00265294
1.0271 0.5 0.405049 0.00279504
1.0271 0.5 -0.405049 0.00284488
1.05695 0.5 -0.324688 0.00254805
1.05695 0.5 0.324688 0.00251815
1.10076 0.5 -0.104943 0.00222954
1.10076 0.5 0.104943 0.00222534
0.523432 0.5 0.975 0.00935092
0.523432 0.5 -0.975 0.00977962
0.90582 0.5 0.6375 0.003799
0.905821 0.5 -0.6375 0.00394516
0.219992 0.5 1.0875 0.0144324
0.219992 0.5 -1.0875 0.0152589
1.11376 0.5 3.81639e-17 0.00217329
0.939201 0.5 0.6 0.00361001
0.939201 0.5 -0.6 0.00371413
1.10076 0.5 -0.174905 0.00225801
1.10076 0.5 0.174905 0.00225111
0.467897 0.5 -1.0125 0.0108871
0.467897 0.5 1.0125 0.0104104
1.11376 0.5 -0.0693118 0.00217938
1.11376 0.5 0.0693118 0.00217744
1.08112 0.5 0.283777 0.00238752
1.08112 0.5 -0.283777 0.0024069
0 0.5 -1.11882 0.0122512
0 0.5 1.11882 0.0117084
0.0124865 0.5 -1.11882 0.0130825
0.0124865 0.5 1.11882 0.0124986
0.969689 0.5 -0.5625 0.00352786
0.969689 0.5 0.5625 0.00340535
1.11376 0.5 0.138624 0.00219675
1.11376 0.5 -0.138624 0.00219908
0 0.5 -1.125 0.0122624
0 0.5 1.125 0.0117197
1.10076 0.5 0.244866 0.00228926
1.10076 0.5 -0.244866 0.00230053
0.411736 0.5 -1.05 0.0121149
0.411736 0.5 1.05 0.0115482
1.05695 0.5 -0.396841 0.00263558
1.05695 0.5 0.396841 0.00258925
1.00005 0.5 -0.524516 0.00325505
1.00005 0.5 0.524516 0.00316578
1.04168 0.5 -0.437497 0.00280213
1.04168 0.5 0.437497 0.00274191
0 0.5 -1.13118 0.0122721
0 0.5 1.13118 0.0117311
0.0124865 0.5 -1.13118 0.0131141
0.0124865 0.5 1.13118 0.0125288
1.11376 0.5 -0.207935 0.00223372
1.11376 0.5 0.207935 0.00222609
1.0271 0.5 -0.478694 0.00297695
1.0271 0.5 0.478694 0.00290352
0.151149 0.5 -1.125 0.016319
0.151149 0.5 1.125 0.0154869
1.08112 0.5 -0.354722 0.00247774
1.08112 0.5 0.354722 0.00244775
1.13882 0.5 -0.0340295 0.00208739
1.13882 0.5 0.0340295 0.002087
0.350249 0.5 -1.0875 0.0133403
0.350249 0.5 1.0875 0.0126796
1.13882 0.5 -0.102088 0.00209749
1.13882 0.5 0.102088 0.00209161
1.10076 0.5 -0.314829 0.00235883
1.10076 0.5 0.314829 0.00234175
0.756813 0.5 -0.8625 0.00605699
0.756814 0.5 0.8625 0.00573419
0.797732 0.5 -0.825 0.00552068
0.797732 0.5 0.825 0.00523245
1.11376 0.5 -0.277247 0.00228275
1.11376 0.5 0.277247 0.00227061
0.835106 0.5 0.7875 0.004755
0.835106 0.5 -0.7875 0.00500796
0.715434 0.5 -0.9 0.00671969
0.715434 0.5 0.9 0.00635928
0.872064 0.5 -0.75 0.00458251
0.872064 0.5 0.75 0.00435901
1.13882 0.5 0.170147 0.00212038
1.13882 0.5 -0.170147 0.00212376
0.67013 0.5 -0.9375 0.00740888
0.67013 0.5 0.9375 0.00701464
0.905821 0.5 -0.7125 0.00417379
0.905821 0.5 0.7125 0.00398126
1.05695 0.5 0.468994 0.00268024
1.05695 0.5 -0.468994 0.00274968
0.939201 0.5 -0.675 0.00390593
0.939201 0.5 0.675 0.00378072
0.624316 0.5 0.975 0.00782766
0.624316 0.5 -0.975 0.00826639
1.04168 0.5 -0.510414 0.00291621
1.04168 0.5 0.510414 0.00285235
0.969689 0.5 -0.6375 0.00365222
0.96969 0.5 0.6375 0.00360159
0.288069 0.5 -1.125 0.0144087
0.288069 0.5 1.125 0.01361
1.16179 0.5 5.78241e-19 0.00200426
1.08112 0.5 0.425666 0.00252395
1.08112 0.5 -0.425666 0.00257141
1.13882 0.5 -0.238206 0.00216312
1.13882 0.5 0.238206 0.00215649
1.16179 0.5 0.0669104 0.00199613
1.16179 0.5 -0.0669104 0.00200842
0.574156 0.5 -1.0125 0.00915763
0.574156 0.5 1.0125 0.00867841
0.075776 0.5 -1.1625 0.0174186
0.075776 0.5 1.1625 0.0166319
1.00005 0.5 -0.599447 0.00340061
1.00005 0.5 0.599447 0.00332668
1.10076 0.5 0.384791 0.00240754
1.10076 0.5 -0.384791 0.0024353
1.0271 0.5 -0.55234 0.00309674
1.0271 0.5 0.55234 0.00303519
1.11376 0.5 -0.346559 0.00234809
1.11376 0.5 0.346559 0.00232867
1.16179 0.5 -0.133821 0.00202461
1.16179 0.5 0.133821 0.00202223
0.523432 0.5 -1.05 0.0102375
0.523432 0.5 1.05 0.00969957
1.17463 0.5 -0.0331343 0.0019601
1.17463 0.5 0.0331343 0.00196015
1.17463 0.5 -0.0994029 0.00196744
1.17463 0.5 0.0994029 0.00196781
1.16179 0.5 -0.200731 0.00205483
1.16179 0.5 0.200731 0.00205204
1.13882 0.5 -0.306265 0.00221645
1.13882 0.5 0.306265 0.00220596
0.219992 0.5 -1.1625 0.0154644
0.219992 0.5 1.1625 0.0145759
0.467897 0.5 -1.0875 0.0113532
0.467897 0.5 1.0875 0.0107543
1.17463 0.5 0.165672 0.00199022
1.17463 0.5 -0.165672 0.0019903
1.05695 0.5 -0.541147 0.00284309
1.05695 0.5 0.541147 0.00279188
1.18772 0.5 -5.78241e-19 0.00191629
1.11376 0.5 -0.41587 0.00243371
1.11376 0.5 0.41587 0.00240142
1.18772 0.5 -0.065614 0.00191947
1.18772 0.5 0.065614 0.00192063
1.08112 0.5 -0.49661 0.00266753
1.08112 0.5 0.49661 0.00261879
1.10076 0.5 -0.454752 0.00253726
1.10076 0.5 0.454752 0.00249041
1.18534 0.5 0.118202 0.00193459
1.16179 0.5 -0.267642 0.0020975
1.16179 0.5 0.267642 0.00209186
0 0.5 -1.19382 0.0123695
0 0.5 1.19382 0.011862
0.0124865 0.5 1.19382 0.0126597
0.0124865 0.5 -1.19382 0.0132115
1.04168 0.5 -0.58333 0.00304674
1.04168 0.5 0.58333 0.00298923
1.18772 0.5 -0.131228 0.00193346
1.17463 0.5 -0.23194 0.00202495
1.17463 0.5 0.23194 0.0020224
0.411736 0.5 -1.125 0.0125217
0.411736 0.5 1.125 0.0118138
1.13882 0.5 -0.374324 0.00228595
1.13882 0.5 0.374324 0.00226807
0 0.5 -1.2 0.0123788
0 0.5 1.2 0.0118756
0.905821 0.5 0.7875 0.00419492
0.905821 0.5 -0.7875 0.00444388
0.872064 0.5 -0.825 0.00487869
0.872064 0.5 0.825 0.00459786
0.835106 0.5 0.8625 0.00501256
0.835106 0.5 -0.8625 0.00533605
0.939201 0.5 -0.75 0.00414074
0.939201 0.5 0.75 0.00395705
0.797732 0.5 -0.9 0.00587576
0.797732 0.5 0.9 0.00551319
1.0271 0.5 0.625985 0.00319728
1.0271 0.5 -0.625985 0.00326446
0.969689 0.5 0.7125 0.0037481
0.96969 0.5 -0.7125 0.00386259
1.18772 0.5 -0.196842 0.00196055
1.18772 0.5 0.196842 0.00196078
0.756814 0.5 -0.9375 0.00644581
0.756814 0.5 0.9375 0.00603695
0 0.5 1.20618 0.0118898
0 0.5 -1.20618 0.0123895
1.00005 0.5 -0.674378 0.00358353
1.00005 0.5 0.674378 0.00348749
0.0124865 0.5 1.20618 0.0126961
0.0124865 0.5 -1.20618 0.0132381
1.16179 0.5 -0.334552 0.00215408
1.16179 0.5 0.334552 0.00214401
0.715434 0.5 0.975 0.00668337
0.715434 0.5 -0.975 0.00713424
0.151149 0.5 -1.2 0.0165279
0.151149 0.5 1.2 0.0156845
1.20942 0.5 0.0322645 0.00184059
1.20942 0.5 -0.0322645 0.00184114
1.17463 0.5 -0.298209 0.00207175
1.17463 0.5 0.298209 0.00206687
1.20942 0.5 -0.0967935 0.00184669
1.20942 0.5 0.0967935 0.00184878
0.350249 0.5 -1.1625 0.0136905
0.350249 0.5 1.1625 0.0128644
0.67013 0.5 1.0125 0.00735903
0.67013 0.5 -1.0125 0.007854
1.11376 0.5 0.485183 0.00249095
1.11376 0.5 -0.485183 0.00252331
1.18772 0.5 0.262456 0.00199748
1.18772 0.5 -0.262456 0.00199914
1.10076 0.5 -0.524714 0.00262072
1.10076 0.5 0.524714 0.00259103
1.20942 0.5 -0.161322 0.0018655
1.20942 0.5 0.161322 0.00186892
1.08112 0.5 -0.567554 0.00277685
1.08112 0.5 0.567554 0.00273516
0.624316 0.5 -1.05 0.00873622
0.624316 0.5 1.05 0.00818767
1.13882 0.5 -0.442383 0.0023729
1.13882 0.5 0.442383 0.00234516
1.05695 0.5 0.6133 0.00293005
1.05695 0.5 -0.6133 0.00299049
1.16179 0.5 -0.401463 0.00222666
1.16179 0.5 0.401463 0.00220908
0.574156 0.5 -1.0875 0.00964908
0.574156 0.5 1.0875 0.00905226
1.17463 0.5 0.364477 0.00212297
1.17463 0.5 -0.364477 0.00213302
1.20942 0.5 -0.225851 0.00189534
1.20942 0.5 0.225851 0.00189749
1.23036 0.5 -1.32995e-17 0.00177331
1.2294 0.5 0.0634819 0.00177981
1.04168 0.5 -0.656246 0.00322419
1.04168 0.5 0.656246 0.00312876
1.23036 0.5 -0.0634819 0.00177513
1.18772 0.5 0.32807 0.00204576
1.18772 0.5 -0.32807 0.00205054
0.288069 0.5 -1.2 0.0147242
0.288069 0.5 1.2 0.0138161
1.23036 0.5 -0.126964 0.00178588
1.23036 0.5 0.126964 0.00178997
0.075776 0.5 -1.2375 0.0175973
0.075776 0.5 1.2375 0.016859
0.523432 0.5 -1.125 0.0107273
0.523432 0.5 1.125 0.0100526
1.0271 0.5 -0.69963 0.00347242
1.0271 0.5 0.69963 0.00333593
1.24274 0.5 0.0314313 0.00173539
1.24274 0.5 -0.0314313 0.00173417
1.20942 0.5 0.29038 0.00193699
1.20942 0.5 -0.29038 0.00193572
1.11376 0.5 -0.554494 0.00262387
1.11376 0.5 0.554494 0.00259825
1.23036 0.5 -0.190445 0.0018081
1.23036 0.5 0.190445 0.00181295
1.24274 0.5 -0.0942942 0.0017382
1.24274 0.5 0.0942942 0.001742
1.13882 0.5 0.510442 0.00243808
1.13882 0.5 -0.510442 0.00245269
0.969689 0.5 -0.7875 0.0040937
0.969689 0.5 0.7875 0.00391243
1.00005 0.5 -0.749309 0.00381031
1.00005 0.5 0.749309 0.00364897
0.939201 0.5 -0.825 0.00440529
0.939201 0.5 0.825 0.00416421
0.90582 0.5 0.8625 0.00445031
0.90582 0.5 -0.8625 0.00474872
1.17463 0.5 -0.430746 0.00220991
1.17463 0.5 0.430746 0.00219247
1.10076 0.5 -0.594676 0.00274459
1.10076 0.5 0.594676 0.00271344
1.18772 0.5 -0.393684 0.00211694
1.18772 0.5 0.393684 0.00210616
1.24274 0.5 -0.157157 0.00175377
1.24274 0.5 0.157157 0.00176072
1.16179 0.5 -0.468373 0.00230461
1.16179 0.5 0.468373 0.00228887
0.467897 0.5 -1.1625 0.0118199
0.467897 0.5 1.1625 0.0110701
0.872064 0.5 -0.9 0.00521427
0.872064 0.5 0.9 0.00487047
1.25401 0.5 2.08167e-17 0.00170374
0.835106 0.5 0.9375 0.00530017
0.835106 0.5 -0.9375 0.00569551
1.25401 0.5 -0.0622994 0.00170493
1.25401 0.5 0.0622994 0.00170719
1.08112 0.5 -0.638498 0.00292928
1.08112 0.5 0.638498 0.00285821
1.23036 0.5 -0.253927 0.00184035
1.23036 0.5 0.253927 0.00184471
0.219992 0.5 1.2375 0.0148095
0.219992 0.5 -1.2375 0.0157593
1.25309 0.5 0.121964 0.00171979
1.05695 0.5 0.685452 0.0030485
1.05695 0.5 -0.685452 0.00317536
0.797732 0.5 0.975 0.00582176
0.797732 0.5 -0.975 0.00626879
1.25401 0.5 -0.124599 0.00171407
1.20942 0.5 -0.354909 0.00198946
1.20942 0.5 0.354909 0.00198741
1.24274 0.5 -0.220019 0.00177997
1.24274 0.5 0.220019 0.00178667
0.756814 0.5 -1.0125 0.00687415
0.756813 0.5 1.0125 0.00636945
1.25401 0.5 -0.186898 0.00173395
1.25401 0.5 0.186898 0.00174138
0.411736 0.5 -1.2 0.0129575
0.411736 0.5 1.2 0.0120869
0 0.5 -1.26882 0.0125227
0 0.5 1.26882 0.0120602
0.0124865 0.5 1.26882 0.0128665
0.0124865 0.5 -1.26882 0.0133713
0.715434 0.5 -1.05 0.0075934
0.715434 0.5 1.05 0.00703506
1.23036 0.5 -0.31741 0.00188371
1.23036 0.5 0.31741 0.00188672
1.04168 0.5 -0.729162 0.00343676
1.04168 0.5 0.729162 0.00327684
1.18772 0.5 -0.459298 0.00219062
1.18772 0.5 0.459298 0.00218049
1.24274 0.5 -0.282882 0.00181489
1.24274 0.5 0.282882 0.0018221
0 0.5 -1.275 0.0125374
0 0.5 1.275 0.0120789
1.27472 0.5 -0.0306319 0.0016359
1.27472 0.5 0.0306319 0.00163737
1.17463 0.5 0.497015 0.00227711
1.17463 0.5 -0.497015 0.00228244
1.11376 0.5 -0.623806 0.00276027
1.11376 0.5 0.623806 0.00271794
1.13882 0.5 -0.578501 0.00256438
1.13882 0.5 0.578501 0.00254464
0.67013 0.5 -1.0875 0.00835165
0.67013 0.5 1.0875 0.00772972
1.27472 0.5 -0.0918959 0.00163887
1.27472 0.5 0.0918959 0.00165611
1.25401 0.5 -0.249197 0.00176321
1.25401 0.5 0.249197 0.00177107
1.16179 0.5 -0.535284 0.00239296
1.16179 0.5 0.535284 0.00238149
1.20942 0.5 -0.419438 0.00205932
1.20942 0.5 0.419438 0.00204987
0 0.5 -1.28118 0.0125528
0 0.5 1.28118 0.0120983
0.0124865 0.5 1.28118 0.0129181
0.0124865 0.5 -1.28118 0.0134131
1.27472 0.5 0.15316 0.00166057
1.27472 0.5 -0.15316 0.00165135
0.151149 0.5 -1.275 0.0168005