# pMean  POINT_DATA 63840
# x  y  z  pMean
0 0.5 3.39583e-17 0.18718
0 0.5 -0.00617931 0.187228
0 0.5 0.00617931 0.187136
0.0124865 0.5 -0.00617931 0.187228
0.0124865 0.5 0.00617931 0.187136
0 0.5 -0.0688207 0.187445
0 0.5 0.0688207 0.186428
0.0124865 0.5 -0.0688207 0.187445
0.0124865 0.5 0.0688207 0.186428
0 0.5 -0.075 0.18744
0 0.5 0.075 0.186333
0 0.5 -0.0811793 0.187439
0 0.5 0.0811793 0.186241
0.0124865 0.5 -0.0811793 0.187439
0.0124865 0.5 0.0811793 0.186241
0.075776 0.5 -0.0375 0.187469
0.075776 0.5 0.0375 0.186912
0.075776 0.5 -0.1125 0.187432
0.075776 0.5 0.1125 0.185775
0 0.5 -0.143821 0.187158
0 0.5 0.143821 0.185051
0.0124865 0.5 -0.143821 0.187158
0.0124865 0.5 0.143821 0.185051
0 0.5 -0.15 0.187104
0 0.5 0.15 0.184907
0.151149 0.5 -0.00137318 0.187444
0 0.5 -0.156179 0.187053
0 0.5 0.156179 0.184767
0.0124865 0.5 -0.156179 0.187053
0.0124865 0.5 0.156179 0.184767
0.151149 0.5 0.075 0.186604
0.151149 0.5 -0.075 0.187733
0.075776 0.5 -0.1875 0.186796
0.075776 0.5 0.1875 0.18406
0.151149 0.5 0.15 0.185156
0.151149 0.5 -0.15 0.187396
0 0.5 -0.218821 0.186284
0 0.5 0.218821 0.183107
0.0124865 0.5 -0.218821 0.186284
0.0124865 0.5 0.218821 0.183107
0.219992 0.5 0.0375 0.187449
0.219993 0.5 -0.0375 0.188026
0 0.5 -0.225 0.186183
0 0.5 0.225 0.182918
0 0.5 -0.231179 0.186084
0 0.5 0.231179 0.182732
0.0124865 0.5 -0.231179 0.186084
0.0124865 0.5 0.231179 0.182732
0.219992 0.5 0.1125 0.186278
0.219993 0.5 -0.1125 0.188
0.151149 0.5 -0.225 0.186464
0.151149 0.5 0.225 0.183137
0.075776 0.5 -0.2625 0.185589
0.075776 0.5 0.2625 0.181795
0.288069 0.5 -0.00137318 0.190807
0.219992 0.5 0.1875 0.184512
0.219993 0.5 -0.1875 0.187354
0 0.5 0.293821 0.180626
0 0.5 -0.293821 0.184846
0.0124865 0.5 -0.293821 0.184846
0.0124865 0.5 0.293821 0.180626
0.288069 0.5 -0.075 0.191126
0.288069 0.5 0.075 0.18993
0 0.5 -0.3 0.184698
0 0.5 0.3 0.180395
0 0.5 0.306179 0.180167
0 0.5 -0.306179 0.184554
0.0124865 0.5 -0.306179 0.184554
0.0124865 0.5 0.306179 0.180167
0.288069 0.5 -0.15 0.190749
0.288069 0.5 0.15 0.188373
0.151149 0.5 -0.3 0.184958
0.151149 0.5 0.3 0.18058
0.219992 0.5 -0.2625 0.186112
0.219992 0.5 0.2625 0.182186
0.075776 0.5 0.3375 0.179015
0.075776 0.5 -0.3375 0.183827
0.350249 0.5 -0.0375 0.194096
0.350249 0.5 0.0375 0.193475
0.288069 0.5 -0.225 0.189725
0.288069 0.5 0.225 0.1862
0.350249 0.5 0.1125 0.19217
0.350249 0.5 -0.1125 0.194029
0 0.5 0.368821 0.177647
0 0.5 -0.368821 0.182866
0.0124865 0.5 -0.368821 0.182866
0.0124865 0.5 0.368821 0.177647
0 0.5 -0.375 0.182676
0 0.5 0.375 0.177377
0 0.5 -0.381179 0.182488
0 0.5 0.381179 0.177109
0.0124865 0.5 -0.381179 0.182488
0.0124865 0.5 0.381179 0.177109
0.350249 0.5 -0.1875 0.193265
0.350249 0.5 0.1875 0.190194
0.219992 0.5 -0.3375 0.184304
0.219992 0.5 0.3375 0.179334
0.151149 0.5 -0.375 0.182908
0.151149 0.5 0.375 0.177522
0.411736 0.5 -0.00137318 0.19784
0.288069 0.5 -0.3 0.188083
0.288069 0.5 0.3 0.183451
0.411736 0.5 -0.075 0.198173
0.411736 0.5 0.075 0.196873
0.075776 0.5 -0.4125 0.181543
0.075776 0.5 0.4125 0.175757
0.350249 0.5 -0.2625 0.19183
0.350249 0.5 0.2625 0.187587
0.411736 0.5 -0.15 0.197711
0.411736 0.5 0.15 0.19513
0 0.5 -0.443821 0.18038
0 0.5 0.443821 0.17421
0.0124865 0.5 -0.443821 0.18038
0.0124865 0.5 0.443821 0.17421
0 0.5 -0.45 0.180149
0 0.5 0.45 0.173904
0 0.5 -0.456179 0.179922
0 0.5 0.456179 0.1736
0.0124865 0.5 -0.456179 0.179922
0.0124865 0.5 0.456179 0.1736
0.219992 0.5 -0.4125 0.181961
0.219993 0.5 0.4125 0.175996
0.411736 0.5 -0.225 0.196515
0.411736 0.5 0.225 0.19269
0.467897 0.5 0.0375 0.201434
0.467897 0.5 -0.0375 0.202115
0.288069 0.5 -0.375 0.185856
0.288069 0.5 0.375 0.180167
0.151149 0.5 -0.45 0.180349
0.151149 0.5 0.45 0.174006
0.467897 0.5 -0.1125 0.202005
0.467897 0.5 0.1125 0.199973
0.350249 0.5 0.3375 0.184394
0.350249 0.5 -0.3375 0.18976
0.075776 0.5 -0.4875 0.178775
0.075776 0.5 0.4875 0.172068
0.467897 0.5 -0.1875 0.201102
0.467897 0.5 0.1875 0.197754
0.411736 0.5 -0.3 0.194619
0.411736 0.5 0.3 0.189598
0 0.5 -0.518821 0.177427
0 0.5 0.518821 0.17036
0.0124865 0.5 0.518821 0.17036
0.0124865 0.5 -0.518821 0.177427
0.523432 0.5 -0.00137318 0.206598
0 0.5 -0.525 0.17716
0 0.5 0.525 0.170022
0.523432 0.5 -0.075 0.206952
0.523432 0.5 0.075 0.205519
0 0.5 -0.531179 0.176896
0 0.5 0.531179 0.169687
0.0124865 0.5 -0.531179 0.176896
0.0124865 0.5 0.531179 0.169687
0.288069 0.5 -0.45 0.183085
0.288069 0.5 0.45 0.176396
0.219992 0.5 -0.4875 0.179123
0.219993 0.5 0.4875 0.172221
0.467897 0.5 -0.2625 0.199432
0.467897 0.5 0.2625 0.194815
0.350249 0.5 -0.4125 0.187093
0.350249 0.5 0.4125 0.180662
0.523432 0.5 -0.15 0.206393
0.523432 0.5 0.15 0.203552
0.151149 0.5 -0.525 0.177321
0.151149 0.5 0.525 0.17008
0.411736 0.5 -0.375 0.192062
0.411736 0.5 0.375 0.185905
0.075776 0.5 -0.5625 0.175565
0.075776 0.5 0.5625 0.167994
0.523432 0.5 -0.225 0.204996
0.523432 0.5 0.225 0.200792
0.574156 0.5 -0.0375 0.211671
0.574156 0.5 0.0375 0.210915
0.467897 0.5 0.3375 0.191207
0.467897 0.5 -0.3375 0.197038
0.574156 0.5 -0.1125 0.211515
0.574156 0.5 0.1125 0.209262
0 0.5 -0.593821 0.174053
0 0.5 0.593821 0.166147
0.0124865 0.5 -0.593821 0.174053
0.0124865 0.5 0.593821 0.166147
0.288069 0.5 -0.525 0.179816
0.288069 0.5 0.525 0.172194
0 0.5 -0.6 0.173753
0 0.5 0.6 0.165781
0.350249 0.5 -0.4875 0.183878
0.350249 0.5 0.4875 0.17645
0.523432 0.5 -0.3 0.202795
0.523432 0.5 0.3 0.197288
0.219992 0.5 -0.5625 0.175833
0.219992 0.5 0.5625 0.168058
0.574156 0.5 -0.1875 0.210456
0.574156 0.5 0.1875 0.206742
0 0.5 -0.606179 0.173457
0 0.5 0.606179 0.165418
0.0124865 0.5 -0.606179 0.173457
0.0124865 0.5 0.606179 0.165418
0.411736 0.5 -0.45 0.188895
0.411736 0.5 0.45 0.18167
0.151149 0.5 -0.6 0.173871
0.151149 0.5 0.6 0.165792
0.62168 0.5 2.64545e-17 0.216453
0.467897 0.5 0.4125 0.186993
0.467897 0.5 -0.4125 0.193965
0.624316 0.5 0.0729402 0.215534
0.624316 0.5 -0.075 0.217134
0.574156 0.5 -0.2625 0.208512
0.574157 0.5 0.2625 0.203398
0.075776 0.5 -0.6375 0.17196
0.075776 0.5 0.6375 0.163586
0.624316 0.5 -0.15 0.216466
0.624316 0.5 0.15 0.213297
0.523432 0.5 -0.375 0.19984
0.523432 0.5 0.375 0.193105
0.350249 0.5 -0.5625 0.180171
0.350249 0.5 0.5625 0.17182
0.624316 0.5 -0.225 0.214833
0.624316 0.5 0.225 0.21015
0.288069 0.5 0.6 0.167617
0.288069 0.5 -0.6 0.176103
0.574156 0.5 -0.3375 0.205733
0.574156 0.5 0.3375 0.199299
0.411736 0.5 -0.525 0.185176
0.411736 0.5 0.525 0.176962
0 0.5 -0.668821 0.170304
0 0.5 0.668821 0.161621
0.0124865 0.5 -0.668821 0.170304
0.0124865 0.5 0.668821 0.161621
0.67013 0.5 0.0375 0.221664
0.67013 0.5 -0.0375 0.222515
0.219993 0.5 -0.6375 0.172141
0.219993 0.5 0.6375 0.163557
0 0.5 -0.675 0.169976
0 0.5 0.675 0.161232
0.467897 0.5 0.4875 0.182243
0.467897 0.5 -0.4875 0.190277
0.67013 0.5 -0.1125 0.222312
0.67013 0.5 0.1125 0.219781
0 0.5 -0.681179 0.169651
0 0.5 0.681179 0.160846
0.0124865 0.5 -0.681179 0.169651
0.0124865 0.5 0.681179 0.160846
0.523432 0.5 -0.45 0.196195
0.523432 0.5 0.45 0.188315
0.151149 0.5 -0.675 0.170047
0.151149 0.5 0.675 0.161195
0.624316 0.5 -0.3 0.212275
0.624316 0.5 0.3 0.206156
0.67013 0.5 0.1875 0.216902
0.67013 0.5 -0.1875 0.221063
0.574156 0.5 -0.4125 0.202184
0.574157 0.5 0.4125 0.194516
0.708171 0.5 1.88651e-17 0.227018
0.075776 0.5 -0.7125 0.16801
0.075776 0.5 0.7125 0.158896
0.715434 0.5 0.0736268 0.226427
0.715434 0.5 -0.075 0.228397
0.67013 0.5 0.2625 0.213078
0.67013 0.5 -0.2625 0.218797
0.350249 0.5 -0.6375 0.176032
0.350249 0.5 0.6375 0.166836
0.411736 0.5 -0.6 0.18097
0.411736 0.5 0.6 0.171849
0.624316 0.5 -0.375 0.208853
0.624316 0.5 0.375 0.201395
0.715434 0.5 -0.15 0.227604
0.715434 0.5 0.15 0.224041
0.467897 0.5 -0.5625 0.186041
0.467897 0.5 0.5625 0.177033
0.288069 0.5 -0.675 0.172
0.288069 0.5 0.675 0.162724
0.523432 0.5 -0.525 0.19193
0.523432 0.5 0.525 0.182999
0 0.5 -0.743821 0.166231
0 0.5 0.743821 0.156835
0.0124865 0.5 -0.743821 0.166231
0.0124865 0.5 0.743821 0.156835
0.219992 0.5 0.7125 0.158773
0.219992 0.5 -0.7125 0.168096
0.715434 0.5 -0.225 0.225699
0.715434 0.5 0.225 0.220444
0 0.5 -0.75 0.165878
0 0.5 0.75 0.156427
0.67013 0.5 0.3375 0.208396
0.67013 0.5 -0.3375 0.215571
0.574156 0.5 -0.4875 0.197939
0.574156 0.5 0.4875 0.189133
0 0.5 -0.756179 0.165529
0 0.5 0.756179 0.156022
0.0124865 0.5 -0.756179 0.165529
0.0124865 0.5 0.756179 0.156022
0.756813 0.5 -0.0375 0.234251
0.756813 0.5 0.0375 0.233291
0.151149 0.5 -0.75 0.165899
0.151149 0.5 0.75 0.156341
0.756813 0.5 -0.1125 0.233997
0.756813 0.5 0.1125 0.231141
0.624316 0.5 -0.45 0.204647
0.624316 0.5 0.45 0.195952
0.715434 0.5 -0.3 0.222732
0.715434 0.5 0.3 0.21588
0.756813 0.5 0.1875 0.227849
0.756813 0.5 -0.1875 0.232533
0.67013 0.5 -0.4125 0.211465
0.67013 0.5 0.4125 0.202947
0.411736 0.5 -0.675 0.176346
0.411736 0.5 0.675 0.166404
0.467897 0.5 0.6375 0.171441
0.467897 0.5 -0.6375 0.181331
0.075776 0.5 -0.7875 0.163764
0.075776 0.5 0.7875 0.153975
0.350249 0.5 -0.7125 0.171524
0.350249 0.5 0.7125 0.161564
0.523432 0.5 -0.6 0.187127
0.523432 0.5 0.6 0.177244
0.797732 0.5 2.68882e-17 0.239986
0.756813 0.5 -0.2625 0.229907
0.756814 0.5 0.2625 0.223479
0.797732 0.5 0.0736268 0.238199
0.797732 0.5 -0.075 0.24036
0.288069 0.5 -0.75 0.167565
0.288069 0.5 0.75 0.157574
0.574156 0.5 -0.5625 0.193082
0.574157 0.5 0.5625 0.183248
0.715434 0.5 -0.375 0.218773
0.715434 0.5 0.375 0.21045
0.797732 0.5 -0.15 0.239434
0.797732 0.5 0.15 0.235406
0.624316 0.5 -0.525 0.199744
0.624316 0.5 0.525 0.189928
0.219992 0.5 -0.7875 0.163752
0.219992 0.5 0.7875 0.153758
0 0.5 -0.818821 0.161883
0 0.5 0.818821 0.15184
0.0124865 0.5 0.818821 0.15184
0.0124865 0.5 -0.818821 0.161883
0 0.5 -0.825 0.161511
0 0.5 0.825 0.151417
0.756813 0.5 0.3375 0.218127
0.756814 0.5 -0.3375 0.226175
0.67013 0.5 -0.4875 0.206569
0.67013 0.5 0.4875 0.196827
0.797732 0.5 -0.225 0.23723
0.797732 0.5 0.225 0.231304
0 0.5 -0.831179 0.161141
0 0.5 0.831179 0.150997
0.0124865 0.5 -0.831179 0.161141
0.0124865 0.5 0.831179 0.150997
0.835106 0.5 0.0375 0.245417
0.835106 0.5 -0.0375 0.246503
0.151149 0.5 -0.825 0.16148
0.151149 0.5 0.825 0.151282
0.835106 0.5 0.1125 0.242967
0.835106 0.5 -0.1125 0.246208
0.715434 0.5 -0.45 0.213921
0.715434 0.5 0.45 0.204261
0.797732 0.5 -0.3 0.233807
0.797732 0.5 0.3 0.226103
0.467897 0.5 0.7125 0.165546
0.467897 0.5 -0.7125 0.176225
0.523432 0.5 -0.675 0.18187
0.523432 0.5 0.675 0.171137
0.411736 0.5 -0.75 0.171375
0.411736 0.5 0.75 0.160699
0.835106 0.5 -0.1875 0.24452
0.835106 0.5 0.1875 0.239213
0.574156 0.5 -0.6375 0.187706
0.574157 0.5 0.6375 0.176954
0.350249 0.5 -0.7875 0.166711
0.350249 0.5 0.7875 0.156067
0.756813 0.5 -0.4125 0.221432
0.756814 0.5 0.4125 0.211922
0.075776 0.5 -0.8625 0.159274
0.075776 0.5 0.8625 0.148875
0.624316 0.5 0.6 0.18343
0.624316 0.5 -0.6 0.194244
0.872064 0.5 5.91974e-17 0.252347
0.870122 0.5 0.075 0.24997
0.288069 0.5 -0.825 0.162857
0.288069 0.5 0.825 0.152225
0.67013 0.5 -0.5625 0.200989
0.67013 0.5 0.5625 0.190157
0.872064 0.5 -0.075 0.252768
0.835106 0.5 -0.2625 0.241495
0.835106 0.5 0.2625 0.23424
0.797732 0.5 -0.375 0.229251
0.797732 0.5 0.375 0.219925
0.872064 0.5 0.14794 0.247147
0.872064 0.5 -0.15 0.251704
0.715434 0.5 -0.525 0.208285
0.715434 0.5 0.525 0.197429
0.219992 0.5 0.8625 0.148563
0.219993 0.5 -0.8625 0.159162
0 0.5 -0.893821 0.157311
0 0.5 0.893821 0.146685
0.0124865 0.5 -0.893821 0.157311
0.0124865 0.5 0.893821 0.146685
0 0.5 -0.9 0.156922
0 0.5 0.9 0.146251
0.756813 0.5 -0.4875 0.215799
0.756813 0.5 0.4875 0.204977
0.872064 0.5 -0.225 0.249171
0.872064 0.5 0.225 0.242487
0.835106 0.5 -0.3375 0.237205
0.835106 0.5 0.3375 0.228158
0 0.5 0.906179 0.14582
0 0.5 -0.906179 0.156535
0.0124865 0.5 -0.906179 0.156535
0.0124865 0.5 0.906179 0.14582
0.90582 0.5 -0.0375 0.259126
0.90582 0.5 0.0375 0.257906
0.151149 0.5 -0.9 0.156839
0.151149 0.5 0.9 0.146068
0.90582 0.5 -0.1125 0.258797
0.905821 0.5 0.1125 0.255127
0.523432 0.5 -0.75 0.176248
0.523432 0.5 0.75 0.164765
0.574156 0.5 -0.7125 0.181908
0.574156 0.5 0.7125 0.170347
0.797732 0.5 -0.45 0.223683
0.797732 0.5 0.45 0.212906
0.467897 0.5 0.7875 0.159426
0.467897 0.5 -0.7875 0.170803
0.624316 0.5 -0.675 0.188253
0.624316 0.5 0.675 0.176563
0.411736 0.5 -0.825 0.166128
0.411736 0.5 0.825 0.154803
0.872064 0.5 0.3 0.236589
0.872064 0.5 -0.3 0.245249
0.67013 0.5 -0.6375 0.194839
0.67013 0.5 0.6375 0.183054
0.90582 0.5 0.1875 0.250868
0.905821 0.5 -0.1875 0.256855
0.350249 0.5 -0.8625 0.161656
0.350249 0.5 0.8625 0.150407
0.835106 0.5 -0.4125 0.231773
0.835106 0.5 0.4125 0.221118
0.715434 0.5 -0.6 0.201988
0.715434 0.5 0.6 0.190086
0.939201 0.5 2.75387e-17 0.264764
0.075776 0.5 0.9375 0.143643
0.075776 0.5 -0.9375 0.154586
0.939111 0.5 0.075 0.262388
0.939201 0.5 -0.075 0.26525
0.756813 0.5 0.5625 0.197424
0.756814 0.5 -0.5625 0.209401
0.90582 0.5 0.2625 0.245235
0.905821 0.5 -0.2625 0.253393
0.288069 0.5 -0.9 0.157933
0.288069 0.5 0.9 0.146733
0.872064 0.5 -0.375 0.240043
0.872064 0.5 0.375 0.229594
0.939201 0.5 0.148627 0.258777
0.939201 0.5 -0.15 0.264057
0.797732 0.5 -0.525 0.217236
0.797732 0.5 0.525 0.205183
0.219992 0.5 0.9375 0.14324
0.219992 0.5 -0.9375 0.154374
0.939201 0.5 -0.225 0.261185
0.939201 0.5 0.225 0.253629
0.905821 0.5 -0.3375 0.2485
0.90582 0.5 0.3375 0.238359
0.835106 0.5 -0.4875 0.225339
0.835106 0.5 0.4875 0.213268
0 0.5 0.968821 0.141419
0 0.5 -0.968821 0.15256
0.0124865 0.5 -0.968821 0.15256
0.0124865 0.5 0.968821 0.141419
0.969689 0.5 -0.0375 0.271508
0.969689 0.5 0.0375 0.270144
0.574156 0.5 -0.7875 0.175783
0.574156 0.5 0.7875 0.163519
0 0.5 -0.975 0.152159
0 0.5 0.975 0.140979
0.624316 0.5 -0.75 0.181878
0.624316 0.5 0.75 0.169431
0.969689 0.5 -0.1125 0.271197
0.96969 0.5 0.1125 0.267
0.523432 0.5 -0.825 0.170347
0.523432 0.5 0.825 0.158211
0.67013 0.5 0.7125 0.175631
0.67013 0.5 -0.7125 0.188238
0 0.5 -0.981179 0.151761
0 0.5 0.981179 0.140541
0.467897 0.5 0.8625 0.153154
0.467897 0.5 -0.8625 0.165141
0.0124865 0.5 -0.981179 0.151761
0.0124865 0.5 0.981179 0.140541
0.872064 0.5 -0.45 0.233698
0.872064 0.5 0.45 0.221667
0.715434 0.5 -0.675 0.19516
0.715434 0.5 0.675 0.182361
0.939201 0.5 -0.3 0.256744
0.939201 0.5 0.3 0.24699
0.151149 0.5 0.975 0.140751
0.151149 0.5 -0.975 0.152028
0.969689 0.5 -0.1875 0.269008
0.969689 0.5 0.1875 0.262204
0.756813 0.5 -0.6375 0.202378
0.756813 0.5 0.6375 0.189419
0.411736 0.5 -0.9 0.160674
0.411736 0.5 0.9 0.148782
0.90582 0.5 -0.4125 0.24232
0.90582 0.5 0.4125 0.230409
0.995005 0.5 0.0749309 0.273183
0.797732 0.5 -0.6 0.210058
0.797732 0.5 0.6 0.196914
1.00005 0.5 -8.47123e-18 0.276873
0.350249 0.5 -0.9375 0.156419
0.350249 0.5 0.9375 0.144644
1.00005 0.5 -0.0749309 0.277428
0.969689 0.5 -0.2625 0.265126
0.969689 0.5 0.2625 0.25588
0.835106 0.5 -0.5625 0.218054
0.835106 0.5 0.5625 0.204763
1.00005 0.5 -0.149862 0.276093
0.939201 0.5 -0.375 0.250857
0.939201 0.5 0.375 0.239132
1.00029 0.5 0.148988 0.270093
0.075776 0.5 -1.0125 0.149748
0.075776 0.5 1.0125 0.13833
0.288069 0.5 0.975 0.141154
0.288069 0.5 -0.975 0.152848
0.872064 0.5 -0.525 0.22637
0.872064 0.5 0.525 0.21298
1.00005 0.5 0.224793 0.264388
1.00005 0.5 -0.224793 0.27284
0.969689 0.5 0.3375 0.248183
0.96969 0.5 -0.3375 0.259617
1.0271 0.5 -0.0368226 0.283766
1.0271 0.5 0.0368226 0.2823
0.90582 0.5 0.4875 0.221577
0.905821 0.5 -0.4875 0.235012
1.0271 0.5 -0.110468 0.283476
1.0271 0.5 0.110468 0.2785
0.67013 0.5 0.7875 0.168
0.67013 0.5 -0.7875 0.181305
0.624316 0.5 0.825 0.162133
0.624316 0.5 -0.825 0.175226
0.219993 0.5 -1.0125 0.149445
0.219993 0.5 1.0125 0.137847
0.574156 0.5 -0.8625 0.169426
0.574156 0.5 0.8625 0.15656
0.715434 0.5 -0.75 0.187934
0.715434 0.5 0.75 0.174377
0.756813 0.5 0.7125 0.181092
0.756814 0.5 -0.7125 0.194881
0.523432 0.5 -0.9 0.16425
0.523432 0.5 0.9 0.151553
0.939201 0.5 -0.45 0.243694
0.939201 0.5 0.45 0.230248
1.04168 0.5 0 0.286682
1.0271 0.5 -0.184113 0.28104
1.0271 0.5 0.184113 0.273545
0 0.5 -1.04382 0.147682
0 0.5 1.04382 0.136093
0.0124865 0.5 -1.04382 0.147682
0.0124865 0.5 1.04382 0.136093
1.00005 0.5 -0.299723 0.267834
1.00005 0.5 0.299723 0.256951
1.04168 0.5 -0.0729162 0.287299
1.04168 0.5 0.0729162 0.284182
0.797732 0.5 -0.675 0.202308
0.797732 0.5 0.675 0.188257
0.467897 0.5 0.9375 0.146801
0.467897 0.5 -0.9375 0.159312
0 0.5 -1.05 0.147274
0 0.5 1.05 0.13565
0.835106 0.5 -0.6375 0.210085
0.835106 0.5 0.6375 0.195791
1.04168 0.5 -0.145832 0.285959
1.04168 0.5 0.145832 0.279742
0.969689 0.5 -0.4125 0.25267
0.96969 0.5 0.4125 0.239302
0 0.5 -1.05618 0.146867
0 0.5 1.05618 0.13521
0.0124865 0.5 -1.05618 0.146867
0.0124865 0.5 1.05618 0.13521
1.05695 0.5 -0.0360764 0.291011
1.05695 0.5 0.0360764 0.289526
0.411736 0.5 -0.975 0.155078
0.411736 0.5 0.975 0.142699
0.872064 0.5 -0.6 0.21823
0.872064 0.5 0.6 0.203717
1.0271 0.5 -0.257759 0.276762
1.0271 0.5 0.257759 0.266584
0.151149 0.5 -1.05 0.147096
0.151149 0.5 1.05 0.135381
1.05695 0.5 0.108229 0.286567
1.05695 0.5 -0.108229 0.29079
1.04168 0.5 -0.218749 0.282593
1.04168 0.5 0.218749 0.273556
0.90582 0.5 -0.5625 0.226761
0.905821 0.5 0.5625 0.21205
1.00005 0.5 -0.374654 0.261202
1.00005 0.5 0.374654 0.248165
0.350249 0.5 1.0125 0.138832
0.350249 0.5 -1.0125 0.151061
1.05695 0.5 -0.180382 0.288348
1.05695 0.5 0.180382 0.280577
1.07319 0.5 0.0709442 0.29117
0.939201 0.5 -0.525 0.235445
0.939201 0.5 0.525 0.220546
1.0271 0.5 -0.331404 0.270691
1.0271 0.5 0.331404 0.25812
1.08112 0.5 3.23815e-17 0.296438
1.04168 0.5 -0.291665 0.277398
1.04168 0.5 0.291665 0.265766
1.08112 0.5 -0.0709442 0.297124
0.969689 0.5 -0.4875 0.244482
0.96969 0.5 0.4875 0.229463
1.05695 0.5 0.252535 0.273501
1.05695 0.5 -0.252535 0.284064
0.288069 0.5 -1.05 0.147659
0.288069 0.5 1.05 0.135537
0.075776 0.5 -1.0875 0.144814
0.075776 0.5 1.0875 0.132984
1.08112 0.5 -0.141888 0.295833
1.08145 0.5 0.140165 0.288898
0.715434 0.5 0.825 0.166252
0.715434 0.5 -0.825 0.180436
0.756813 0.5 0.7875 0.172576
0.756814 0.5 -0.7875 0.187048
0.67013 0.5 -0.8625 0.174153
0.67013 0.5 0.8625 0.160266
0.797732 0.5 -0.75 0.194148
0.797732 0.5 0.75 0.179353
0.624316 0.5 -0.9 0.168397
0.624316 0.5 0.9 0.154762
1.00005 0.5 -0.449585 0.253151
1.00005 0.5 0.449585 0.238259
0.835106 0.5 -0.7125 0.201614
0.835106 0.5 0.7125 0.186505
0.574156 0.5 -0.9375 0.162925
0.574157 0.5 0.9375 0.149549
1.10076 0.5 -0.0349809 0.302302
1.10076 0.5 0.0349809 0.300719
1.08112 0.5 -0.212832 0.292483
1.08112 0.5 0.212832 0.282917
0.872064 0.5 -0.675 0.209479
0.872064 0.5 0.675 0.194063
1.04168 0.5 -0.364581 0.270488
1.04168 0.5 0.364581 0.256569
1.0271 0.5 0.405049 0.24837
1.0271 0.5 -0.405049 0.263039
1.05695 0.5 -0.324688 0.277931
1.05695 0.5 0.324688 0.2649
1.10076 0.5 -0.104943 0.302178
1.10076 0.5 0.104943 0.296969
0.523432 0.5 0.975 0.144864
0.523432 0.5 -0.975 0.158035
0.90582 0.5 0.6375 0.202042
0.905821 0.5 -0.6375 0.217744
0.219992 0.5 1.0875 0.132421
0.219992 0.5 -1.0875 0.144424
1.11376 0.5 3.81639e-17 0.304824
0.939201 0.5 0.6 0.210251
0.939201 0.5 -0.6 0.226311
1.10076 0.5 -0.174905 0.29979
1.10076 0.5 0.174905 0.291405
0.467897 0.5 -1.0125 0.153385
0.467897 0.5 1.0125 0.14043
1.11376 0.5 -0.0693118 0.305581
1.11376 0.5 0.0693118 0.302111
1.08112 0.5 0.283777 0.274944
1.08112 0.5 -0.283777 0.287256
0 0.5 -1.11882 0.142725
0 0.5 1.11882 0.13075
0.0124865 0.5 -1.11882 0.142725
0.0124865 0.5 1.11882 0.13075
0.969689 0.5 -0.5625 0.235263
0.969689 0.5 0.5625 0.218886
1.11376 0.5 0.138624 0.296933
1.11376 0.5 -0.138624 0.304338
0 0.5 -1.125 0.142312
0 0.5 1.125 0.130308
1.10076 0.5 0.244866 0.284108
1.10076 0.5 -0.244866 0.295518
0.411736 0.5 -1.05 0.149403
0.411736 0.5 1.05 0.136611
1.05695 0.5 -0.396841 0.270183
1.05695 0.5 0.396841 0.25499
1.00005 0.5 -0.524516 0.243894
1.00005 0.5 0.524516 0.227479
1.04168 0.5 -0.437497 0.262078
1.04168 0.5 0.437497 0.246203
0 0.5 -1.13118 0.1419
0 0.5 1.13118 0.129867
0.0124865 0.5 -1.13118 0.1419
0.0124865 0.5 1.13118 0.129867
1.11376 0.5 -0.207935 0.300999
1.11376 0.5 0.207935 0.290878
1.0271 0.5 -0.478694 0.254011
1.0271 0.5 0.478694 0.237594
0.151149 0.5 -1.125 0.142088
0.151149 0.5 1.125 0.129995
1.08112 0.5 -0.354722 0.280256
1.08112 0.5 0.354722 0.265532
1.13882 0.5 -0.0340295 0.312199
1.13882 0.5 0.0340295 0.310494
0.350249 0.5 -1.0875 0.145637
0.350249 0.5 1.0875 0.133019
1.13882 0.5 -0.102088 0.312108
1.13882 0.5 0.102088 0.306754
1.10076 0.5 -0.314829 0.289323
1.10076 0.5 0.314829 0.275249
0.756813 0.5 -0.8625 0.179017
0.756814 0.5 0.8625 0.163995
0.797732 0.5 -0.825 0.18573
0.797732 0.5 0.825 0.170343
1.11376 0.5 -0.277247 0.295734
1.11376 0.5 0.277247 0.282703
0.835106 0.5 0.7875 0.177058
0.835106 0.5 -0.7875 0.192815
0.715434 0.5 -0.9 0.172787
0.715434 0.5 0.9 0.158094
0.872064 0.5 -0.75 0.200319
0.872064 0.5 0.75 0.184179
1.13882 0.5 0.170147 0.300826
1.13882 0.5 -0.170147 0.309745
0.67013 0.5 -0.9375 0.166886
0.67013 0.5 0.9375 0.152524
0.905821 0.5 -0.7125 0.208234
0.905821 0.5 0.7125 0.191728
1.05695 0.5 0.468994 0.244027
1.05695 0.5 -0.468994 0.261013
0.939201 0.5 -0.675 0.216524
0.939201 0.5 0.675 0.199583
0.624316 0.5 0.975 0.1474
0.624316 0.5 -0.975 0.161481
1.04168 0.5 -0.510414 0.252382
1.04168 0.5 0.510414 0.234928
0.969689 0.5 -0.6375 0.225245
0.96969 0.5 0.6375 0.207851
0.288069 0.5 -1.125 0.142408
0.288069 0.5 1.125 0.129921
1.16179 0.5 5.78241e-19 0.317879
1.08112 0.5 0.425666 0.254915
1.08112 0.5 -0.425666 0.271694
1.13882 0.5 -0.238206 0.305411
1.13882 0.5 0.238206 0.293279
1.16179 0.5 0.0669104 0.315809
1.16179 0.5 -0.0669104 0.318738
0.574156 0.5 -1.0125 0.156358
0.574156 0.5 1.0125 0.142561
0.075776 0.5 -1.1625 0.139824
0.075776 0.5 1.1625 0.127645
1.00005 0.5 -0.599447 0.233689
1.00005 0.5 0.599447 0.216088
1.10076 0.5 0.384791 0.265041
1.10076 0.5 -0.384791 0.281441
1.0271 0.5 -0.55234 0.243839
1.0271 0.5 0.55234 0.226054
1.11376 0.5 -0.346559 0.28864
1.11376 0.5 0.346559 0.273055
1.16179 0.5 -0.133821 0.317537
1.16179 0.5 0.133821 0.310086
0.523432 0.5 -1.05 0.151773
0.523432 0.5 1.05 0.138209
1.17463 0.5 -0.0331343 0.322123
1.17463 0.5 0.0331343 0.320339
1.17463 0.5 -0.0994029 0.32213
1.17463 0.5 0.0994029 0.316252
1.16179 0.5 -0.200731 0.314163
1.16179 0.5 0.200731 0.303233
1.13882 0.5 -0.306265 0.299099
1.13882 0.5 0.306265 0.284124
0.219992 0.5 -1.1625 0.139343
0.219992 0.5 1.1625 0.126992
0.467897 0.5 -1.0875 0.147426
0.467897 0.5 1.0875 0.134104
1.17463 0.5 0.165672 0.310277
1.17463 0.5 -0.165672 0.319772
1.05695 0.5 -0.541147 0.250653
1.05695 0.5 0.541147 0.232272
1.18772 0.5 -5.78241e-19 0.325014
1.11376 0.5 -0.41587 0.279922
1.11376 0.5 0.41587 0.262168
1.18772 0.5 -0.065614 0.325944
1.18772 0.5 0.065614 0.321755
1.08112 0.5 -0.49661 0.261786
1.08112 0.5 0.49661 0.243351
1.10076 0.5 -0.454752 0.272054
1.10076 0.5 0.454752 0.253734
1.18534 0.5 0.118202 0.316927
1.16179 0.5 -0.267642 0.308774
1.16179 0.5 0.267642 0.2947
0 0.5 -1.19382 0.137731
0 0.5 1.19382 0.125428
0.0124865 0.5 1.19382 0.125428
0.0124865 0.5 -1.19382 0.137731
1.04168 0.5 -0.58333 0.241667
1.04168 0.5 0.58333 0.223008
1.18772 0.5 -0.131228 0.324792
1.17463 0.5 -0.23194 0.31539
1.17463 0.5 0.23194 0.302473
0.411736 0.5 -1.125 0.143703
0.411736 0.5 1.125 0.130568
1.13882 0.5 -0.374324 0.291023
1.13882 0.5 0.374324 0.273574
0 0.5 -1.2 0.137317
0 0.5 1.2 0.12499
0.905821 0.5 0.7875 0.181277
0.905821 0.5 -0.7875 0.198414
0.872064 0.5 -0.825 0.190926
0.872064 0.5 0.825 0.174232
0.835106 0.5 0.8625 0.167599
0.835106 0.5 -0.8625 0.183844
0.939201 0.5 -0.75 0.206321
0.939201 0.5 0.75 0.188716
0.797732 0.5 -0.9 0.177194
0.797732 0.5 0.9 0.161355
1.0271 0.5 0.625985 0.214014
1.0271 0.5 -0.625985 0.232839
0.969689 0.5 0.7125 0.196568
0.96969 0.5 -0.7125 0.214673
1.18772 0.5 -0.196842 0.321425
1.18772 0.5 0.196842 0.309955
0.756814 0.5 -0.9375 0.170908
0.756814 0.5 0.9375 0.15546
0 0.5 1.20618 0.124553
0 0.5 -1.20618 0.136905
1.00005 0.5 -0.674378 0.222808
1.00005 0.5 0.674378 0.204332
0.0124865 0.5 1.20618 0.124553
0.0124865 0.5 -1.20618 0.136905
1.16179 0.5 -0.334552 0.301467
1.16179 0.5 0.334552 0.284632
0.715434 0.5 0.975 0.149998
0.715434 0.5 -0.975 0.165091
0.151149 0.5 -1.2 0.137046
0.151149 0.5 1.2 0.124632
1.20942 0.5 0.0322645 0.33055
1.20942 0.5 -0.0322645 0.332409
1.17463 0.5 -0.298209 0.308958
1.17463 0.5 0.298209 0.293013
1.20942 0.5 -0.0967935 0.332483
1.20942 0.5 0.0967935 0.32626
0.350249 0.5 -1.1625 0.140184
0.350249 0.5 1.1625 0.127245
0.67013 0.5 1.0125 0.144854
0.67013 0.5 -1.0125 0.159594
1.11376 0.5 0.485183 0.250299
1.11376 0.5 -0.485183 0.269801
1.18772 0.5 0.262456 0.301225
1.18772 0.5 -0.262456 0.315995
1.10076 0.5 -0.524714 0.261414
1.10076 0.5 0.524714 0.241589
1.20942 0.5 -0.161322 0.330176
1.20942 0.5 0.161322 0.320089
1.08112 0.5 -0.567554 0.250792
1.08112 0.5 0.567554 0.231102
0.624316 0.5 -1.05 0.154559
0.624316 0.5 1.05 0.14012
1.13882 0.5 -0.442383 0.281367
1.13882 0.5 0.442383 0.261879
1.05695 0.5 0.6133 0.219987
1.05695 0.5 -0.6133 0.239396
1.16179 0.5 -0.401463 0.292438
1.16179 0.5 0.401463 0.273263
0.574156 0.5 -1.0875 0.149797
0.574156 0.5 1.0875 0.135659
1.17463 0.5 0.364477 0.282111
1.17463 0.5 -0.364477 0.300693
1.20942 0.5 -0.225851 0.325763
1.20942 0.5 0.225851 0.312049
1.23036 0.5 -1.32995e-17 0.338084
1.2294 0.5 0.0634819 0.334194
1.04168 0.5 -0.656246 0.230246
1.04168 0.5 0.656246 0.210691
1.23036 0.5 -0.0634819 0.339115
1.18772 0.5 0.32807 0.290929
1.18772 0.5 -0.32807 0.308599
0.288069 0.5 -1.2 0.137136
0.288069 0.5 1.2 0.124344
1.23036 0.5 -0.126964 0.338021
1.23036 0.5 0.126964 0.329633
0.075776 0.5 -1.2375 0.134824
0.075776 0.5 1.2375 0.122348
0.523432 0.5 -1.125 0.145529
0.523432 0.5 1.125 0.131647
1.0271 0.5 -0.69963 0.221288
1.0271 0.5 0.69963 0.201704
1.24274 0.5 0.0314313 0.340788
1.24274 0.5 -0.0314313 0.342808
1.20942 0.5 0.29038 0.302308
1.20942 0.5 -0.29038 0.319246
1.11376 0.5 -0.554494 0.258544
1.11376 0.5 0.554494 0.237714
1.23036 0.5 -0.190445 0.334655
1.23036 0.5 0.190445 0.322407
1.24274 0.5 -0.0942942 0.342957
1.24274 0.5 0.0942942 0.336369
1.13882 0.5 0.510442 0.24931
1.13882 0.5 -0.510442 0.27039
0.969689 0.5 -0.7875 0.203799
0.969689 0.5 0.7875 0.185179
1.00005 0.5 -0.749309 0.211518
1.00005 0.5 0.749309 0.192417
0.939201 0.5 -0.825 0.195916
0.939201 0.5 0.825 0.17783
0.90582 0.5 0.8625 0.170882
0.90582 0.5 -0.8625 0.188467
1.17463 0.5 -0.430746 0.29077
1.17463 0.5 0.430746 0.27002
1.10076 0.5 -0.594676 0.249794
1.10076 0.5 0.594676 0.228873
1.18772 0.5 -0.393684 0.299427
1.18772 0.5 0.393684 0.279299
1.24274 0.5 -0.157157 0.340722
1.24274 0.5 0.157157 0.330002
1.16179 0.5 -0.468373 0.28191
1.16179 0.5 0.468373 0.260855
0.467897 0.5 -1.1625 0.141492
0.467897 0.5 1.1625 0.127874
0.872064 0.5 -0.9 0.181463
0.872064 0.5 0.9 0.164372
1.25401 0.5 2.08167e-17 0.345152
0.835106 0.5 0.9375 0.158255
0.835106 0.5 -0.9375 0.174848
1.25401 0.5 -0.0622994 0.346259
1.25401 0.5 0.0622994 0.34176
1.08112 0.5 -0.638498 0.239026
1.08112 0.5 0.638498 0.21843
1.23036 0.5 -0.253927 0.32914
1.23036 0.5 0.253927 0.313367
0.219992 0.5 1.2375 0.121611
0.219992 0.5 -1.2375 0.134249
1.25309 0.5 0.121964 0.336455
1.05695 0.5 0.685452 0.20741
1.05695 0.5 -0.685452 0.227576
0.797732 0.5 0.975 0.152492
0.797732 0.5 -0.975 0.168667
1.25401 0.5 -0.124599 0.345229
1.20942 0.5 -0.354909 0.31082
1.20942 0.5 0.354909 0.29108
1.24274 0.5 -0.220019 0.336292
1.24274 0.5 0.220019 0.321726
0.756814 0.5 -1.0125 0.162832
0.756813 0.5 1.0125 0.147057
1.25401 0.5 -0.186898 0.341896
1.25401 0.5 0.186898 0.329073
0.411736 0.5 -1.2 0.138022
0.411736 0.5 1.2 0.12461
0 0.5 -1.26882 0.13274
0 0.5 1.26882 0.120163
0.0124865 0.5 1.26882 0.120163
0.0124865 0.5 -1.26882 0.13274
0.715434 0.5 -1.05 0.157444
0.715434 0.5 1.05 0.142042
1.23036 0.5 -0.31741 0.321578
1.23036 0.5 0.31741 0.302701
1.04168 0.5 -0.729162 0.218408
1.04168 0.5 0.729162 0.19821
1.18772 0.5 -0.459298 0.288703
1.18772 0.5 0.459298 0.266602
1.24274 0.5 -0.282882 0.329707
1.24274 0.5 0.282882 0.311703
0 0.5 -1.275 0.132327
0 0.5 1.275 0.11973
1.27472 0.5 -0.0306319 0.353266
1.27472 0.5 0.0306319 0.351092
1.17463 0.5 0.497015 0.257018
1.17463 0.5 -0.497015 0.279457
1.11376 0.5 -0.623806 0.246459
1.11376 0.5 0.623806 0.22469
1.13882 0.5 -0.578501 0.258389
1.13882 0.5 0.578501 0.236139
0.67013 0.5 -1.0875 0.15236
0.67013 0.5 1.0875 0.137326
1.27472 0.5 -0.0918959 0.35346
1.27472 0.5 0.0918959 0.344972
1.25401 0.5 -0.249197 0.336366
1.25401 0.5 0.249197 0.319849
1.16179 0.5 -0.535284 0.270165
1.16179 0.5 0.535284 0.247685
1.20942 0.5 -0.419438 0.30065
1.20942 0.5 0.419438 0.278614
0 0.5 -1.28118 0.131917
0 0.5 1.28118 0.1193
0.0124865 0.5 1.28118 0.1193
0.0124865 0.5 -1.28118 0.131917
1.27472 0.5 0.15316 0.339972
1.27472 0.5 -0.15316 0.351315
0.151149 0.5 -1.275 0.13201
0.151149 0.5 1.275 0.11933
1.0271 0.5 0.773275 0.18935
1.0271 0.5 -0.773275 0.209472
1.10076 0.5 0.664638 0.215864
1.10076 0.5 -0.664638 0.237537
0.350249 0.5 -1.2375 0.134747
0.350249 0.5 1.2375 0.121544
0.624316 0.5 -1.125 0.147702
0.624316 0.5 1.125 0.132983
1.23036 0.5 0.380892 0.290638
1.23036 0.5 -0.380892 0.312133
1.24274 0.5 -0.345745 0.321136
1.24274 0.5 0.345745 0.300148
1.2906 0.5 0 0.357611
1.2906 0.5 -0.0604698 0.358851
1.2906 0.5 0.0604698 0.354161
1.25401 0.5 -0.311497 0.328746
1.25401 0.5 0.311497 0.308969
1.27472 0.5 -0.214423 0.346873
1.27472 0.5 0.214423 0.33147
1.08112 0.5 0.709442 0.205577
1.08112 0.5 -0.709442 0.226801
1.00005 0.5 -0.824239 0.200079
1.00005 0.5 0.824239 0.180542
1.2906 0.5 -0.12094 0.357932
1.2906 0.5 0.12094 0.348495
0.574156 0.5 -1.1625 0.143305
0.574156 0.5 1.1625 0.1289
0.969689 0.5 -0.8625 0.192852
0.96969 0.5 0.8625 0.173897
1.18772 0.5 0.524912 0.253117
1.18772 0.5 -0.524912 0.276712
1.05695 0.5 -0.757605 0.215469
1.05695 0.5 0.757605 0.194777
0.939201 0.5 -0.9 0.185501
0.939201 0.5 0.9 0.167117
1.30091 0.5 -0.0299772 0.362225
1.30091 0.5 0.0299772 0.35991
1.20942 0.5 -0.483967 0.289031
1.20942 0.5 0.483967 0.265192
1.17463 0.5 -0.563284 0.267053
1.17463 0.5 0.563284 0.243383
1.2906 0.5 -0.181409 0.354666
1.2906 0.5 0.181409 0.340849
0.90582 0.5 0.9375 0.160673
0.90582 0.5 -0.9375 0.178562
1.30091 0.5 -0.0899316 0.36247
1.30091 0.5 0.0899316 0.353024
1.27472 0.5 0.275687 0.32118
1.27472 0.5 -0.275687 0.340237
0.288069 0.5 -1.275 0.131887
0.288069 0.5 1.275 0.118846
0.872064 0.5 -0.975 0.172071
0.872064 0.5 0.975 0.154714
1.23036 0.5 -0.444373 0.301044
1.23036 0.5 0.444373 0.277443