# pMean  POINT_DATA 63140
# x  y  z  pMean
0 0.1 0 0.213937
0 0.1 -0.0179898 0.214087
0 0.1 0.0179898 0.213791
0.0363518 0.1 0.0179898 0.213791
0.0363518 0.1 -0.0179898 0.214087
0 0.1 -0.0570102 0.214263
0 0.1 0.0570102 0.213331
0.0363518 0.1 0.0570102 0.213331
0.0363518 0.1 -0.0570102 0.214263
0 0.1 -0.075 0.214275
0 0.1 0.075 0.213054
0.075776 0.1 -0.0375 0.214252
0.075776 0.1 0.0375 0.213634
0 0.1 -0.0929898 0.21429
0 0.1 0.0929898 0.21278
0.0363518 0.1 -0.0929898 0.21429
0.0363518 0.1 0.0929898 0.21278
0 0.1 -0.13201 0.214159
0 0.1 0.13201 0.212038
0.075776 0.1 -0.1125 0.214309
0.075776 0.1 0.1125 0.212485
0.0363518 0.1 -0.13201 0.214159
0.0363518 0.1 0.13201 0.212038
0 0.1 -0.15 0.214023
0 0.1 0.15 0.211629
0.150379 0.1 -2.22623e-17 0.206419
0 0.1 -0.16799 0.213892
0 0.1 0.16799 0.211223
0.150379 0.1 -0.075 0.206694
0.150379 0.1 0.075 0.205499
0.0363518 0.1 -0.16799 0.213892
0.0363518 0.1 0.16799 0.211223
0.075776 0.1 -0.1875 0.213749
0.075776 0.1 0.1875 0.210784
0 0.1 -0.20701 0.213435
0 0.1 0.20701 0.210187
0.0363518 0.1 -0.20701 0.213435
0.0363518 0.1 0.20701 0.210187
0.150379 0.1 -0.15 0.206288
0.150379 0.1 0.15 0.20394
0.219993 0.1 -0.0375 0.199529
0.219993 0.1 0.0375 0.198959
0 0.1 -0.225 0.213149
0 0.1 0.225 0.209641
0 0.1 -0.24299 0.212866
0 0.1 0.24299 0.209097
0.0363518 0.1 0.24299 0.209097
0.0363518 0.1 -0.24299 0.212866
0.219993 0.1 -0.1125 0.199387
0.219993 0.1 0.1125 0.197617
0.150379 0.1 -0.225 0.205193
0.150379 0.1 0.225 0.201738
0.075776 0.1 -0.2625 0.212559
0.075776 0.1 0.2625 0.208508
0 0.1 -0.28201 0.212083
0 0.1 0.28201 0.207761
0.0363518 0.1 -0.28201 0.212083
0.0363518 0.1 0.28201 0.207761
0.287374 0.1 -2.89121e-19 0.202465
0.219992 0.1 0.1875 0.195585
0.219992 0.1 -0.1875 0.198425
0.287374 0.1 -0.075 0.202722
0.287374 0.1 0.075 0.201478
0 0.1 -0.3 0.211647
0 0.1 0.3 0.207075
0 0.1 0.31799 0.206391
0 0.1 -0.31799 0.211213
0.0363518 0.1 -0.31799 0.211213
0.0363518 0.1 0.31799 0.206391
0.287374 0.1 0.15 0.19977
0.287374 0.1 -0.15 0.20223
0.150379 0.1 -0.3 0.203466
0.150379 0.1 0.3 0.198909
0.219993 0.1 0.2625 0.192806
0.219993 0.1 -0.2625 0.196776
0.075776 0.1 -0.3375 0.210744
0.075776 0.1 0.3375 0.205651
0.350249 0.1 -0.0375 0.205879
0.350249 0.1 0.0375 0.205214
0 0.1 -0.35701 0.210119
0 0.1 0.35701 0.204761
0.0363518 0.1 -0.35701 0.210119
0.0363518 0.1 0.35701 0.204761
0.287374 0.1 -0.225 0.200993
0.287374 0.1 0.225 0.197356
0.350249 0.1 -0.1125 0.205811
0.350249 0.1 0.1125 0.203843
0 0.1 -0.375 0.209545
0 0.1 0.375 0.203945
0 0.1 -0.39299 0.208973
0 0.1 0.39299 0.203129
0.0363518 0.1 -0.39299 0.208973
0.0363518 0.1 0.39299 0.203129
0.350249 0.1 -0.1875 0.205007
0.350249 0.1 0.1875 0.201762
0.219992 0.1 -0.3375 0.194542
0.219992 0.1 0.3375 0.189424
0.150379 0.1 0.375 0.195525
0.150379 0.1 -0.375 0.201149
0.411108 0.1 4.33681e-19 0.21061
0.287374 0.1 -0.3 0.199078
0.287374 0.1 0.3 0.194277
0.411108 0.1 -0.075 0.210886
0.411108 0.1 0.075 0.209527
0.075776 0.1 -0.4125 0.208355
0.075776 0.1 0.4125 0.202247
0 0.1 0.43201 0.201229
0 0.1 -0.43201 0.207584
0.0363518 0.1 0.43201 0.201229
0.0363518 0.1 -0.43201 0.207584
0.411108 0.1 -0.15 0.210346
0.411108 0.1 0.15 0.207647
0.350249 0.1 -0.2625 0.20347
0.350249 0.1 0.2625 0.198999
0 0.1 -0.45 0.206878
0 0.1 0.45 0.200294
0.219992 0.1 0.4125 0.185556
0.219992 0.1 -0.4125 0.191729
0 0.1 -0.46799 0.206172
0 0.1 0.46799 0.19936
0.411108 0.1 -0.225 0.209003
0.411108 0.1 0.225 0.204999
0.467897 0.1 -0.0375 0.215817
0.467897 0.1 0.0375 0.215117
0.0363518 0.1 0.46799 0.19936
0.0363518 0.1 -0.46799 0.206172
0.287374 0.1 -0.375 0.19653
0.287374 0.1 0.375 0.190614
0.150379 0.1 0.45 0.191655
0.150379 0.1 -0.45 0.198288
0.467897 0.1 0.1125 0.213523
0.467897 0.1 -0.1125 0.215623
0.350249 0.1 -0.3375 0.201228
0.350249 0.1 0.3375 0.195603
0.075776 0.1 -0.4875 0.205409
0.075776 0.1 0.4875 0.19835
0.467897 0.1 0.1875 0.211063
0.467897 0.1 -0.1875 0.214539
0 0.1 -0.50701 0.204507
0 0.1 0.50701 0.197215
0.0363518 0.1 -0.50701 0.204507
0.0363518 0.1 0.50701 0.197215
0.411108 0.1 0.3 0.201635
0.411108 0.1 -0.3 0.206886
0.522865 0.1 1.41031e-17 0.22155
0 0.1 -0.525 0.203679
0 0.1 0.525 0.196173
0.522865 0.1 -0.075 0.221807
0.522865 0.1 0.075 0.22033
0.287374 0.1 0.45 0.186429
0.287374 0.1 -0.45 0.193399
0.219992 0.1 0.4875 0.181262
0.219992 0.1 -0.4875 0.18845
0.467897 0.1 -0.2625 0.212605
0.467897 0.1 0.2625 0.207795
0.350249 0.1 -0.4125 0.198324
0.350249 0.1 0.4125 0.191601
0 0.1 -0.54299 0.202851
0 0.1 0.54299 0.195132
0.522865 0.1 0.15 0.218165
0.522865 0.1 -0.15 0.221102
0.0363518 0.1 0.54299 0.195132
0.0363518 0.1 -0.54299 0.202851
0.150379 0.1 -0.525 0.194943
0.150379 0.1 0.525 0.187364
0.411108 0.1 -0.375 0.204039
0.411108 0.1 0.375 0.197606
0.075776 0.1 -0.5625 0.201956
0.075776 0.1 0.5625 0.194005
0.522865 0.1 -0.225 0.219457
0.522865 0.1 0.225 0.215098
0.574156 0.1 0.0375 0.22701
0.574157 0.1 -0.0375 0.22779
0.467897 0.1 -0.3375 0.20987
0.467897 0.1 0.3375 0.203789
0 0.1 -0.58201 0.200938
0 0.1 0.58201 0.192771
0.0363518 0.1 -0.58201 0.200938
0.0363518 0.1 0.58201 0.192771
0.574157 0.1 -0.1125 0.227533
0.574157 0.1 0.1125 0.225209
0.287374 0.1 -0.525 0.189759
0.287374 0.1 0.525 0.181797
0 0.1 -0.6 0.200002
0 0.1 0.6 0.191636
0.350249 0.1 0.4875 0.187034
0.350249 0.1 -0.4875 0.194806
0.522865 0.1 -0.3 0.216915
0.522865 0.1 0.3 0.211196
0.219992 0.1 -0.5625 0.184762
0.219992 0.1 0.5625 0.176652
0.574156 0.1 -0.1875 0.226253
0.574156 0.1 0.1875 0.222415
0.411108 0.1 0.45 0.192963
0.411108 0.1 -0.45 0.200515
0 0.1 -0.61799 0.199067
0 0.1 0.61799 0.190503
0.150379 0.1 -0.6 0.191158
0.150379 0.1 0.6 0.182708
0.0363518 0.1 -0.61799 0.199067
0.0363518 0.1 0.61799 0.190503
0.467897 0.1 -0.4125 0.206384
0.467897 0.1 0.4125 0.199101
0.623803 0.1 2.34188e-17 0.234338
0.623803 0.1 0.075 0.232958
0.623803 0.1 -0.075 0.234605
0.574156 0.1 0.2625 0.218685
0.574156 0.1 -0.2625 0.223981
0.623803 0.1 0.15 0.23049
0.623803 0.1 -0.15 0.233755
0.075776 0.1 0.6375 0.189276
0.075776 0.1 -0.6375 0.198055
0.522865 0.1 -0.375 0.213534
0.522865 0.1 0.375 0.206531
0 0.1 0.65701 0.187957
0 0.1 -0.65701 0.196935
0.0363518 0.1 0.65701 0.187957
0.0363518 0.1 -0.65701 0.196935
0.350249 0.1 0.5625 0.181993
0.350249 0.1 -0.5625 0.190745
0.623803 0.1 0.225 0.226979
0.623803 0.1 -0.225 0.231811
0.287374 0.1 -0.6 0.185661
0.287374 0.1 0.6 0.17679
0.574157 0.1 -0.3375 0.220769
0.574157 0.1 0.3375 0.214099
0.411108 0.1 0.525 0.187786
0.411108 0.1 -0.525 0.19638
0.67013 0.1 0.0375 0.240593
0.67013 0.1 -0.0375 0.241466
0.219992 0.1 -0.6375 0.180675
0.219993 0.1 0.6375 0.171724
0 0.1 -0.675 0.195906
0 0.1 0.675 0.186745
0.467897 0.1 -0.4875 0.20222
0.467897 0.1 0.4875 0.193819
0.67013 0.1 -0.1125 0.241135
0.67013 0.1 0.1125 0.238532
0.522865 0.1 0.45 0.201184
0.522865 0.1 -0.45 0.209385
0.150379 0.1 0.675 0.177725
0.150379 0.1 -0.675 0.186977
0.623803 0.1 0.3 0.222503
0.623803 0.1 -0.3 0.22882
0 0.1 -0.69299 0.194878
0 0.1 0.69299 0.185533
0.0363518 0.1 -0.69299 0.194878
0.0363518 0.1 0.69299 0.185533
0.67013 0.1 -0.1875 0.239609
0.67013 0.1 0.1875 0.235327
0.574156 0.1 0.4125 0.208743
0.574157 0.1 -0.4125 0.216698
0.714971 0.1 -2.8382e-17 0.248562
0.075776 0.1 -0.7125 0.193765
0.075776 0.1 0.7125 0.184222
0.714971 0.1 -0.075 0.248835
0.714971 0.1 0.075 0.246994
0.67013 0.1 0.2625 0.231033
0.67013 0.1 -0.2625 0.236922
0.411108 0.1 -0.6 0.191708
0.411108 0.1 0.6 0.182161
0.350249 0.1 0.6375 0.176563
0.350249 0.1 -0.6375 0.186208
0.623803 0.1 0.375 0.217153
0.623803 0.1 -0.375 0.22486
0.714971 0.1 -0.15 0.24781
0.714971 0.1 0.15 0.244164
0.467897 0.1 -0.5625 0.197453
0.467897 0.1 0.5625 0.188029
0 0.1 -0.73201 0.192559
0 0.1 0.73201 0.182835
0.0363518 0.1 0.73201 0.182835
0.0363518 0.1 -0.73201 0.192559
0.287374 0.1 -0.675 0.181156
0.287374 0.1 0.675 0.171457
0.522865 0.1 -0.525 0.204553
0.522865 0.1 0.525 0.195252
0.219993 0.1 -0.7125 0.176235
0.219992 0.1 0.7125 0.166511
0.714971 0.1 -0.225 0.245509
0.714971 0.1 0.225 0.240131
0 0.1 0.75 0.18156
0 0.1 -0.75 0.19145
0.67013 0.1 -0.3375 0.233149
0.67013 0.1 0.3375 0.22576
0.574156 0.1 -0.4875 0.211849
0.574157 0.1 0.4875 0.202711
0.756813 0.1 0.0375 0.25536
0.756814 0.1 -0.0375 0.256334
0.150379 0.1 0.746002 0.172878
0.150379 0.1 -0.75 0.182452
0.756813 0.1 -0.1125 0.255913
0.756813 0.1 0.1125 0.253003
0 0.1 0.76799 0.180285
0 0.1 -0.76799 0.190342
0.0363518 0.1 0.76799 0.180285
0.0363518 0.1 -0.76799 0.190342
0.623803 0.1 -0.45 0.220021
0.623803 0.1 0.45 0.211031
0.714971 0.1 -0.3 0.241997
0.714971 0.1 0.3 0.234981
0.756814 0.1 -0.1875 0.254094
0.756814 0.1 0.1875 0.249321
0.67013 0.1 -0.4125 0.228388
0.67013 0.1 0.4125 0.219604
0.411108 0.1 0.675 0.176173
0.411108 0.1 -0.675 0.18658
0.467897 0.1 0.6375 0.18182
0.467897 0.1 -0.6375 0.192163
0.075776 0.1 0.7875 0.178905
0.075776 0.1 -0.7875 0.189143
0.350249 0.1 -0.7125 0.181271
0.350249 0.1 0.7125 0.170826
0.522865 0.1 -0.6 0.199127
0.522865 0.1 0.6 0.188834
0.797314 0.1 -3.59473e-17 0.263766
0.287374 0.1 0.746002 0.166088
0.797314 0.1 -0.075 0.264055
0.797314 0.1 0.075 0.261985
0.756814 0.1 -0.2625 0.250935
0.756814 0.1 0.2625 0.244389
0.287374 0.1 -0.75 0.176305
0.574156 0.1 -0.5625 0.206327
0.574156 0.1 0.5625 0.196117
0 0.1 0.80701 0.177466
0 0.1 -0.80701 0.187867
0.714971 0.1 -0.375 0.237362
0.714971 0.1 0.375 0.228833
0.0363518 0.1 0.80701 0.177466
0.0363518 0.1 -0.80701 0.187867
0.797314 0.1 -0.15 0.262839
0.797314 0.1 0.15 0.258749
0.623803 0.1 -0.525 0.214405
0.623803 0.1 0.525 0.204252
0.219992 0.1 0.7875 0.161063
0.219992 0.1 -0.7875 0.171493
0.149792 0.1 0.80701 0.168345
0 0.1 0.825 0.176142
0 0.1 -0.825 0.186693
0.797314 0.1 -0.225 0.260148
0.797314 0.1 0.225 0.254133
0.756813 0.1 -0.3375 0.246524
0.756813 0.1 0.3375 0.238313
0.67013 0.1 0.4875 0.212687
0.67013 0.1 -0.4875 0.222737
0.835106 0.1 -0.0375 0.271998
0.835106 0.1 0.0375 0.270901
0.150379 0.1 -0.825 0.177641
0.835106 0.1 -0.1125 0.271502
0.835106 0.1 0.1125 0.268211
0 0.1 -0.84299 0.18552
0 0.1 0.84299 0.174818
0.0363518 0.1 -0.84299 0.18552
0.0363518 0.1 0.84299 0.174818
0.714971 0.1 -0.45 0.231715
0.714971 0.1 0.45 0.221813
0.411108 0.1 0.746002 0.170168
0.797314 0.1 -0.3 0.256061
0.797314 0.1 0.3 0.248236
0.467897 0.1 -0.7125 0.186447
0.467897 0.1 0.7125 0.175279
0.522865 0.1 0.675 0.182028
0.522865 0.1 -0.675 0.193205
0.411108 0.1 -0.75 0.181078
0.835106 0.1 -0.1875 0.26938
0.835107 0.1 0.1875 0.264009
0.286844 0.1 0.80701 0.161468
0.574156 0.1 0.6375 0.189069
0.574157 0.1 -0.6375 0.200233
0.350249 0.1 -0.7875 0.176011
0.350249 0.1 0.7875 0.164859
0.756813 0.1 -0.4125 0.240953
0.756814 0.1 0.4125 0.231252
0.623803 0.1 -0.6 0.20813
0.623803 0.1 0.6 0.196942
0.075776 0.1 0.8625 0.173386
0.075776 0.1 -0.8625 0.18425
0.871687 0.1 -3.2767e-18 0.27953
0.287374 0.1 -0.825 0.171176
0.871687 0.1 -0.075 0.279838
0.871687 0.1 0.075 0.277515
0.67013 0.1 -0.5625 0.216327
0.67013 0.1 0.5625 0.20515
0.835106 0.1 0.2625 0.258379
0.835106 0.1 -0.2625 0.265727
0.797314 0.1 -0.375 0.250679
0.797314 0.1 0.375 0.241203
0 0.1 -0.88201 0.182919
0 0.1 0.88201 0.171909
0.0363518 0.1 0.88201 0.171909
0.0363518 0.1 -0.88201 0.182919
0.871687 0.1 0.15 0.273829
0.871687 0.1 -0.15 0.278419
0.714971 0.1 0.525 0.214058
0.714971 0.1 -0.525 0.22519
0.219993 0.1 0.8625 0.155443
0.219992 0.1 -0.8625 0.16651
0 0.1 0.9 0.170551
0 0.1 -0.9 0.181694
0.756813 0.1 0.4875 0.223338
0.756814 0.1 -0.4875 0.23438
0.871687 0.1 0.225 0.26857
0.871687 0.1 -0.225 0.2753
0.835106 0.1 -0.3375 0.260618
0.835106 0.1 0.3375 0.251452
0.41063 0.1 0.80701 0.165007
0.90582 0.1 -0.0375 0.288001
0.905821 0.1 0.0375 0.286787
0.522865 0.1 0.746002 0.175214
0.150379 0.1 0.9 0.161354
0.90582 0.1 0.1125 0.283733
0.905821 0.1 -0.1125 0.287418
0.522865 0.1 -0.75 0.186889
0.574156 0.1 0.7125 0.181678
0.574156 0.1 -0.7125 0.193679
0.797314 0.1 -0.45 0.244146
0.797314 0.1 0.45 0.233194
0.467897 0.1 -0.7875 0.180384
0.467897 0.1 0.7875 0.168496
0.150379 0.1 -0.903998 0.172911
0 0.1 0.91799 0.169194
0 0.1 -0.91799 0.18047
0.0363518 0.1 0.91799 0.169194
0.0363518 0.1 -0.91799 0.18047
0.623803 0.1 0.675 0.189222
0.623803 0.1 -0.675 0.201318
0.411108 0.1 -0.825 0.175283
0.871687 0.1 0.3 0.261858
0.871687 0.1 -0.3 0.270576
0.67013 0.1 -0.6375 0.209287
0.67013 0.1 0.6375 0.197123
0.90582 0.1 -0.1875 0.284947
0.90582 0.1 0.1875 0.27895
0.350249 0.1 0.8625 0.158726
0.350249 0.1 -0.8625 0.170499
0.835106 0.1 -0.4125 0.254206
0.835106 0.1 0.4125 0.243412
0.714971 0.1 -0.6 0.21793
0.714971 0.1 0.6 0.205719
0.93886 0.1 -1.15648e-17 0.295382
0.075776 0.1 0.9375 0.167724
0.075776 0.1 -0.9375 0.179145
0.93886 0.1 0.075 0.293105
0.93886 0.1 -0.075 0.295739
0.756813 0.1 0.5625 0.214719
0.756814 0.1 -0.5625 0.226946
0.905821 0.1 -0.2625 0.280729
0.905821 0.1 0.2625 0.272546
0.287374 0.1 0.9 0.154125
0.287374 0.1 -0.903998 0.166399
0.871687 0.1 0.375 0.253861
0.871687 0.1 -0.375 0.264374
0.93886 0.1 -0.15 0.294142
0.93886 0.1 0.15 0.28894
0.797314 0.1 0.525 0.224366
0.797314 0.1 -0.525 0.236622
0 0.1 0.95701 0.166226
0 0.1 -0.95701 0.177774
0.0363518 0.1 0.95701 0.166226
0.0363518 0.1 -0.95701 0.177774
0.522433 0.1 0.80701 0.169403
0.219992 0.1 0.9375 0.149713
0.219992 0.1 -0.9375 0.161334
0.93886 0.1 0.225 0.28301
0.93886 0.1 -0.225 0.290607
0.90582 0.1 0.3375 0.264682
0.905821 0.1 -0.3375 0.274833
0.835106 0.1 -0.4875 0.246659
0.835107 0.1 0.4875 0.234422
0.969689 0.1 -0.0375 0.303869
0.969689 0.1 0.0375 0.30249
0.61613 0.1 0.75 0.181212
0.574156 0.1 -0.7875 0.18678
0.574156 0.1 0.7875 0.174048
0 0.1 0.975 0.164848
0 0.1 -0.975 0.176512
0.623803 0.1 -0.75 0.194093
0.969689 0.1 -0.1125 0.303283
0.969689 0.1 0.1125 0.299037
0.522865 0.1 -0.825 0.180277
0.67013 0.1 0.7125 0.188743
0.67013 0.1 -0.7125 0.201761
0.871687 0.1 -0.45 0.256868
0.871687 0.1 0.45 0.244768
0.467897 0.1 0.8625 0.161554
0.467897 0.1 -0.8625 0.174072
0.714971 0.1 -0.675 0.21009
0.714971 0.1 0.675 0.19695
0.93886 0.1 -0.3 0.285253
0.93886 0.1 0.3 0.275462
0.150379 0.1 0.975 0.155622
0.150379 0.1 -0.975 0.167387
0.969689 0.1 -0.1875 0.300539
0.969689 0.1 0.1875 0.293676
0.411108 0.1 0.9 0.156849
0.756813 0.1 0.6375 0.205586
0.756814 0.1 -0.6375 0.218825
0.990306 0.1 -2.19732e-17 0.30765
0 0.1 0.99299 0.163471
0 0.1 -0.99299 0.175251
0.411108 0.1 -0.903998 0.169902
0.990306 0.1 -0.075 0.308056
0.990306 0.1 0.075 0.305145
0.0363518 0.1 0.99299 0.163471
0.0363518 0.1 -0.99299 0.175251
0.90582 0.1 -0.4125 0.267466
0.905821 0.1 0.4125 0.255552
0.797314 0.1 -0.6 0.228281
0.797314 0.1 0.6 0.214909
0.350249 0.1 0.9375 0.152482
0.350249 0.1 -0.9375 0.164802
0.990306 0.1 0.15 0.30056
0.990306 0.1 -0.15 0.306313
0.969689 0.1 -0.2625 0.29584
0.969689 0.1 0.2625 0.286523
0.835106 0.1 -0.5625 0.238149
0.835106 0.1 0.5625 0.224667
0.93886 0.1 -0.375 0.278231
0.93886 0.1 0.375 0.266483
0.075776 0.1 1.0125 0.161979
0.075776 0.1 -1.0125 0.173886
0.990306 0.1 -0.225 0.30242
0.990306 0.1 0.225 0.294051
0.287374 0.1 0.975 0.148105
0.287374 0.1 -0.975 0.16032
0.871687 0.1 -0.525 0.248242
0.871687 0.1 0.525 0.234778
1.02149 0.1 -0.0369628 0.317536
1.02149 0.1 0.0369628 0.316058
0.969689 0.1 -0.3375 0.289253
0.969689 0.1 0.3375 0.277771
1.02149 0.1 -0.110888 0.316921
1.02149 0.1 0.110888 0.312265
0.90582 0.1 0.4875 0.245374
0.90582 0.1 -0.4875 0.258794
0.623803 0.1 0.819003 0.174598
0 0.1 1.03201 0.160473
0 0.1 -1.03201 0.172489
0.0363518 0.1 1.03201 0.160473
0.0363518 0.1 -1.03201 0.172489
0.67013 0.1 -0.7875 0.193879
0.67013 0.1 0.7875 0.18014
0.623803 0.1 -0.825 0.186578
0.990306 0.1 -0.3 0.296531
0.990306 0.1 0.3 0.285777
0.219992 0.1 -1.0125 0.156024
0.219993 0.1 1.0125 0.143921
0.574156 0.1 0.8625 0.166282
0.574157 0.1 -0.8625 0.17964
0.714971 0.1 -0.75 0.201822
0.714971 0.1 0.75 0.187894
1.02149 0.1 0.184814 0.306388
1.02149 0.1 -0.184814 0.313874
0.756814 0.1 -0.7125 0.210187
0.756814 0.1 0.7125 0.196085
0.522865 0.1 0.9 0.160254
0.93886 0.1 -0.45 0.269741
0.93886 0.1 0.45 0.256293
1.04168 0.1 0 0.322515
1.04168 0.1 -0.0729162 0.323003
1.04168 0.1 0.0729162 0.319822
0.522865 0.1 -0.903998 0.174194
0.797314 0.1 -0.675 0.219312
0.797314 0.1 0.675 0.205009
0.467897 0.1 0.9375 0.154532
0.467897 0.1 -0.9375 0.167589
0 0.1 1.05 0.159087
0 0.1 -1.05 0.171204
0.835106 0.1 -0.6375 0.228881
0.835106 0.1 0.6375 0.214381
1.04168 0.1 -0.145832 0.321226
1.04168 0.1 0.145832 0.314921
1.02149 0.1 -0.25874 0.308702
1.02149 0.1 0.25874 0.298545
0.969689 0.1 -0.4125 0.281034
0.969689 0.1 0.4125 0.267625
0.411108 0.1 0.975 0.150194
0.411108 0.1 -0.975 0.163118
0.871687 0.1 -0.6 0.23871
0.871687 0.1 0.6 0.224111
1.0579 0.1 -0.0360525 0.327784
1.0579 0.1 0.0360525 0.326229
0.990306 0.1 -0.375 0.288806
0.990306 0.1 0.375 0.275948
0.150379 0.1 1.05 0.14984
0.150379 0.1 -1.05 0.162055
1.0579 0.1 0.108157 0.322359
1.0579 0.1 -0.108157 0.327246
1.04168 0.1 -0.218749 0.317154
1.04168 0.1 0.218749 0.308
0.90582 0.1 -0.5625 0.249053
0.90582 0.1 0.5625 0.23437
0 0.1 -1.06799 0.169919
0 0.1 1.06799 0.157701
0.0363518 0.1 -1.06799 0.169919
0.0363518 0.1 1.06799 0.157701
0.350249 0.1 1.0125 0.146192
0.350249 0.1 -1.0125 0.158977
1.0579 0.1 -0.180262 0.324294
1.0579 0.1 0.180262 0.316424
1.02149 0.1 -0.332665 0.301462
1.02149 0.1 0.332665 0.288949
0.93886 0.1 -0.525 0.259997
0.93886 0.1 0.525 0.245124
1.08012 0.1 5.49329e-18 0.333371
1.04168 0.1 -0.291665 0.310968
1.04168 0.1 0.291665 0.299214
1.08012 0.1 0.0709941 0.330579
1.08012 0.1 -0.0709941 0.333953
0.969689 0.1 -0.4875 0.271357
0.96969 0.1 0.4875 0.256345
1.0579 0.1 0.252367 0.30853
1.0579 0.1 -0.252367 0.319198
0.990306 0.1 -0.45 0.279464
0.990306 0.1 0.45 0.264813
0.287374 0.1 -1.05 0.154709
0.287374 0.1 1.05 0.142056
0.714971 0.1 0.821002 0.17939
1.08012 0.1 -0.141988 0.332272
1.08012 0.1 0.141988 0.32558
0.075776 0.1 1.0875 0.156201
0.075776 0.1 -1.0875 0.168528
0.714971 0.1 -0.825 0.193273
0.756813 0.1 -0.7875 0.201198
0.756814 0.1 0.7875 0.186382
0.67013 0.1 -0.8625 0.185773
0.67013 0.1 0.8625 0.171436
0.797314 0.1 -0.75 0.2099
0.797314 0.1 0.75 0.194832
0.623803 0.1 0.9 0.164777
0.835106 0.1 -0.7125 0.219068
0.835106 0.1 0.7125 0.203735
0.623803 0.1 -0.903998 0.179704
0.574156 0.1 0.9375 0.158478
0.574156 0.1 -0.9375 0.172366
1.02149 0.1 -0.406591 0.292391
1.02149 0.1 0.406591 0.277833
1.08012 0.1 -0.212982 0.328288
1.08012 0.1 0.212982 0.318568
1.10076 0.1 -0.0349809 0.340334
1.10076 0.1 0.0349809 0.338643
0.871687 0.1 -0.675 0.228503
0.871687 0.1 0.675 0.212982
1.04168 0.1 -0.364581 0.302803
1.04168 0.1 0.364581 0.288784
1.10076 0.1 -0.104943 0.339945
1.10076 0.1 0.104943 0.33458
0.522865 0.1 0.975 0.152841
0.522865 0.1 -0.975 0.166542
1.0579 0.1 -0.324472 0.311998
1.0579 0.1 0.324472 0.298882
0 0.1 -1.10701 0.167119
0 0.1 1.10701 0.154699
0.0363518 0.1 1.10701 0.154699
0.0363518 0.1 -1.10701 0.167119
0.90582 0.1 0.6375 0.222781
0.905821 0.1 -0.6375 0.238478
0.219992 0.1 1.0875 0.13811
0.219992 0.1 -1.0875 0.150624
0.93886 0.1 0.6 0.233236
0.93886 0.1 -0.6 0.249252
1.10076 0.1 -0.174905 0.337093
1.10076 0.1 0.174905 0.32846
0.467897 0.1 1.0125 0.1475
0.467897 0.1 -1.0125 0.161004
1.08012 0.1 -0.283976 0.322157
1.08012 0.1 0.283976 0.309688
1.11928 0.1 3.93204e-18 0.344566
0.990306 0.1 -0.525 0.268749
0.990306 0.1 0.525 0.252634
0.96969 0.1 -0.5625 0.260493
0.969689 0.1 0.5625 0.244158
1.11928 0.1 -0.0690357 0.345269
1.11928 0.1 0.0690357 0.341621
0 0.1 1.125 0.153317
0 0.1 -1.125 0.165823
0.411108 0.1 -1.05 0.156886
0.411108 0.1 1.05 0.143542
1.10076 0.1 0.244866 0.320357
1.10076 0.1 -0.244866 0.332067
1.11928 0.1 -0.138072 0.343686
1.11928 0.1 0.138072 0.33645
1.02149 0.1 0.480517 0.265488
1.02149 0.1 -0.480517 0.2817
1.0579 0.1 -0.396577 0.302929
1.0579 0.1 0.396577 0.287703
1.04168 0.1 -0.437497 0.292883
1.04168 0.1 0.437497 0.276967
0.150379 0.1 1.125 0.144054
0.150379 0.1 -1.125 0.156653
0.714971 0.1 0.88201 0.172913
1.08012 0.1 0.354971 0.299151
1.08012 0.1 -0.354971 0.314
1.11928 0.1 -0.207107 0.339766
1.11928 0.1 0.207107 0.329248
0.350249 0.1 -1.0875 0.153091
0.350249 0.1 1.0875 0.13991
0 0.1 1.14299 0.151935
0 0.1 -1.14299 0.164527
0.0363518 0.1 1.14299 0.151935
0.0363518 0.1 -1.14299 0.164527
1.14316 0.1 -0.0339211 0.352618
1.14316 0.1 0.0339211 0.350775
0.797314 0.1 0.821002 0.184968
1.10076 0.1 -0.314829 0.324864
1.10076 0.1 0.314829 0.310478
0.797314 0.1 -0.825 0.200224
0.756814 0.1 -0.8625 0.192016
0.756814 0.1 0.8625 0.17662
1.14316 0.1 -0.101763 0.352301
1.14316 0.1 0.101763 0.34657
0.835106 0.1 -0.7875 0.208897
0.835106 0.1 0.7875 0.192912
0.871687 0.1 -0.75 0.217858
0.871687 0.1 0.75 0.201587
0.67013 0.1 0.9375 0.162741
0.67013 0.1 -0.9375 0.177568
0.90582 0.1 -0.7125 0.227342
0.905821 0.1 0.7125 0.210822
0.714971 0.1 -0.903998 0.185496
1.11928 0.1 0.276143 0.320155
1.11928 0.1 -0.276143 0.333645
1.14316 0.1 0.169605 0.34027
1.14316 0.1 -0.169605 0.349539
0.93886 0.1 -0.675 0.237781
0.93886 0.1 0.675 0.220891
1.15704 0.1 0 0.355612
1.0579 0.1 0.468682 0.275267
1.0579 0.1 -0.468682 0.292197
0.623803 0.1 0.975 0.156553
0.623803 0.1 -0.975 0.171125
0.990306 0.1 0.6 0.239708
0.990306 0.1 -0.6 0.256958
1.15704 0.1 -0.0671479 0.356453
1.15704 0.1 0.0671479 0.352506
1.04168 0.1 -0.510414 0.281466
1.04168 0.1 0.510414 0.264049
0.969689 0.1 -0.6375 0.248723
0.969689 0.1 0.6375 0.231414
1.08012 0.1 0.425965 0.287203
1.08012 0.1 -0.425965 0.304033
0.287374 0.1 -1.125 0.149045
0.287374 0.1 1.125 0.136023
1.02149 0.1 -0.554443 0.269708
1.02149 0.1 0.554443 0.25221
0.574156 0.1 1.0125 0.150713
0.574156 0.1 -1.0125 0.165037
1.15704 0.1 -0.134296 0.354989
1.15704 0.1 0.134296 0.347156
0.075776 0.1 1.1625 0.150439
0.075776 0.1 -1.1625 0.163124
1.10076 0.1 -0.384791 0.315717
1.10076 0.1 0.384791 0.299036
1.14316 0.1 -0.237448 0.34453
1.14316 0.1 0.237448 0.33197
1.11928 0.1 -0.345179 0.325435
1.11928 0.1 0.345179 0.309379
0.522865 0.1 1.05 0.145478
0.522865 0.1 -1.05 0.159581
1.15704 0.1 -0.201444 0.35116
1.15704 0.1 0.201444 0.339764
1.1744 0.1 -0.0331401 0.361589
1.1744 0.1 0.0331401 0.359615
1.1744 0.1 -0.0994202 0.36142
1.1744 0.1 0.0994202 0.355236
0 0.1 1.18201 0.148954
0 0.1 -1.18201 0.161715
0.0363518 0.1 1.18201 0.148954
0.0363518 0.1 -1.18201 0.161715
0.219992 0.1 1.1625 0.132318
0.219993 0.1 -1.1625 0.145182
1.14316 0.1 0.30529 0.321867
1.14316 0.1 -0.30529 0.337301
0.467897 0.1 1.0875 0.140525
0.467897 0.1 -1.0875 0.154403
1.1744 0.1 -0.1657 0.358778
1.1744 0.1 0.1657 0.348778
1.15704 0.1 -0.268592 0.345084
1.15704 0.1 0.268592 0.330463
1.0579 0.1 0.540787 0.261857
1.0579 0.1 -0.540787 0.280097
0.796996 0.1 0.88201 0.176733
1.08012 0.1 -0.496959 0.292504
1.08012 0.1 0.496959 0.274116
1.10076 0.1 0.454752 0.286296
1.10076 0.1 -0.454752 0.304811
1.11928 0.1 -0.414214 0.315336
1.11928 0.1 0.414214 0.297155
1.04168 0.1 -0.58333 0.268864
1.04168 0.1 0.58333 0.250324
1.1744 0.1 -0.231981 0.35387
1.1744 0.1 0.231981 0.340306
0.871687 0.1 0.821002 0.190609
0.411108 0.1 1.125 0.136949
0.411108 0.1 -1.125 0.15064
1.19808 0.1 1.73472e-17 0.367761
0.990306 0.1 0.675 0.226322
0.990306 0.1 -0.675 0.244409
1.02149 0.1 0.628368 0.238294
1.02149 0.1 -0.628368 0.256749
1.19808 0.1 -0.0650961 0.368769
1.19808 0.1 0.0650961 0.364469
0 0.1 1.2 0.147588
0 0.1 -1.2 0.16042
0.871687 0.1 -0.825 0.206984
0.905821 0.1 -0.7875 0.215917
0.90582 0.1 0.7875 0.198706
0.835106 0.1 -0.8625 0.19857
0.835106 0.1 0.8625 0.182081
0.93886 0.1 -0.75 0.225868
0.93886 0.1 0.75 0.2083
1.14316 0.1 -0.373132 0.328049
1.14316 0.1 0.373132 0.310168
0.969689 0.1 0.7125 0.218352
0.969689 0.1 -0.7125 0.23635
1.15704 0.1 -0.33574 0.33686
1.15704 0.1 0.33574 0.319458
0.756813 0.1 0.9375 0.166931
0.756814 0.1 -0.9375 0.182787
1.19808 0.1 0.130192 0.358933
1.19808 0.1 -0.130192 0.367466
0.797314 0.1 -0.903998 0.191472
0.714971 0.1 0.975 0.160338
0.714971 0.1 -0.975 0.175873
0.150379 0.1 1.2 0.138305
0.150379 0.1 -1.2 0.151229
1.20938 0.1 -0.0322656 0.371852
1.20938 0.1 0.0322656 0.36972
1.1744 0.1 -0.298261 0.346698
1.1744 0.1 0.298261 0.330025
1.20938 0.1 -0.0967968 0.371822
1.20938 0.1 0.0967968 0.365175
1.19808 0.1 -0.195288 0.363786
1.19808 0.1 0.195288 0.35135
0.350249 0.1 1.1625 0.133681
0.350249 0.1 -1.1625 0.147182
0.67013 0.1 1.0125 0.154141
0.67013 0.1 -1.0125 0.169357
0 0.1 1.21799 0.146221
0 0.1 -1.21799 0.159124
0.0363518 0.1 -1.21799 0.159124
0.0363518 0.1 1.21799 0.146221
1.11928 0.1 -0.48325 0.303588
1.11928 0.1 0.48325 0.283755
1.10076 0.1 -0.524714 0.292444
1.10076 0.1 0.524714 0.272534
1.20938 0.1 0.161328 0.358554
1.20938 0.1 -0.161328 0.369331
1.08012 0.1 0.567953 0.260174
1.08012 0.1 -0.567953 0.279708
0.623803 0.1 1.05 0.148437
0.623803 0.1 -1.05 0.163379
1.0579 0.1 -0.612892 0.266935
1.0579 0.1 0.612892 0.247766
1.15704 0.1 -0.402888 0.326674
1.15704 0.1 0.402888 0.306978
1.14316 0.1 0.440974 0.297131
1.14316 0.1 -0.440974 0.316955
1.19808 0.1 -0.260384 0.357819
1.19808 0.1 0.260384 0.34185
1.2267 0.1 3.57064e-18 0.375721
1.2267 0.1 -0.0636649 0.376849
1.2267 0.1 0.0636649 0.372298
1.1744 0.1 -0.364541 0.337458
1.1744 0.1 0.364541 0.318132
0.574156 0.1 1.0875 0.143061
0.574156 0.1 -1.0875 0.157735
1.20938 0.1 0.225859 0.349914
1.20938 0.1 -0.225859 0.364543
1.04168 0.1 -0.656246 0.255431
1.04168 0.1 0.656246 0.236075
1.2267 0.1 -0.12733 0.375664
1.2267 0.1 0.12733 0.366632
0.287374 0.1 1.2 0.130041
0.287374 0.1 -1.2 0.14337
1.02149 0.1 -0.702294 0.243191
1.02149 0.1 0.702294 0.224001
0.075776 0.1 -1.2375 0.157722
0.075776 0.1 1.2375 0.144743
0.871399 0.1 0.88201 0.181466
0.522865 0.1 1.125 0.13823
0.522865 0.1 -1.125 0.152657
1.2267 0.1 -0.190994 0.372099
1.2267 0.1 0.190994 0.358916
1.19808 0.1 -0.32548 0.34966
1.19808 0.1 0.32548 0.330634
0.990306 0.1 -0.75 0.231413
0.990306 0.1 0.75 0.212716
1.24274 0.1 -0.0314313 0.381468
1.24274 0.1 0.0314313 0.379166
1.20938 0.1 -0.29039 0.357462
1.20938 0.1 0.29039 0.339458
1.24274 0.1 -0.0942942 0.381569
1.24274 0.1 0.0942942 0.374464
0.93886 0.1 0.821002 0.196213
1.11928 0.1 -0.552285 0.29049
1.11928 0.1 0.552285 0.269457
1.15704 0.1 -0.470036 0.314755
1.15704 0.1 0.470036 0.293291
0.969689 0.1 -0.7875 0.223662
0.96969 0.1 0.7875 0.205151
0.93886 0.1 -0.825 0.213758
0.90582 0.1 0.8625 0.186657
0.905821 0.1 -0.8625 0.204377
1.1744 0.1 -0.430821 0.3263
1.1744 0.1 0.430821 0.304881
1.10076 0.1 -0.594676 0.278912
1.10076 0.1 0.594676 0.258031
1.14316 0.1 -0.508816 0.304309
1.14316 0.1 0.508816 0.283035
1.24274 0.1 -0.157157 0.379244
1.24274 0.1 0.157157 0.36768
1.2267 0.1 -0.254659 0.366224
1.2267 0.1 0.254659 0.34928
0.467897 0.1 1.1625 0.133668
0.467897 0.1 -1.1625 0.147845
1.08012 0.1 0.638947 0.245676
1.08012 0.1 -0.638947 0.265986
1.25511 0.1 -5.78241e-19 0.383616
0.835106 0.1 -0.9375 0.188262
0.835106 0.1 0.9375 0.171395
0.871687 0.1 -0.903998 0.197188
1.25511 0.1 0.0622446 0.380078
1.25511 0.1 -0.0622446 0.384852
0.219992 0.1 1.2375 0.126574
0.219992 0.1 -1.2375 0.139732
0 0.1 -1.25701 0.156325
0 0.1 1.25701 0.143284
0.0363518 0.1 -1.25701 0.156325
0.0363518 0.1 1.25701 0.143284
0.797314 0.1 0.975 0.164207
0.797314 0.1 -0.975 0.180731
1.19808 0.1 -0.390576 0.339462
1.19808 0.1 0.390576 0.317919
1.0579 0.1 -0.684997 0.25309
1.0579 0.1 0.684997 0.233273
1.20938 0.1 -0.354921 0.348269
1.20938 0.1 0.354921 0.327378
1.25511 0.1 0.124489 0.374298
1.25511 0.1 -0.124489 0.383771
1.24274 0.1 -0.220019 0.374582
1.24274 0.1 0.220019 0.358874
0.756813 0.1 1.0125 0.157416
0.756814 0.1 -1.0125 0.173623
1.2267 0.1 -0.318324 0.358132
1.2267 0.1 0.318324 0.33792
0.411108 0.1 1.2 0.130462
0.411108 0.1 -1.2 0.144432
1.25511 0.1 -0.186734 0.380309
1.25511 0.1 0.186734 0.366465
0.714971 0.1 1.05 0.151388
0.714971 0.1 -1.05 0.167249
1.04168 0.1 -0.729162 0.241518
1.04168 0.1 0.729162 0.221573
1.24274 0.1 0.282882 0.348248
1.24274 0.1 -0.282882 0.367613
0 0.1 1.275 0.141943
0 0.1 -1.275 0.155041
1.1744 0.1 0.497102 0.290551
1.1744 0.1 -0.497102 0.31353
1.15704 0.1 -0.537184 0.301403
1.15704 0.1 0.537184 0.278672
1.2756 0.1 -0.03061 0.390875
1.2756 0.1 0.03061 0.38838
0.67013 0.1 1.0875 0.145724
0.67013 0.1 -1.0875 0.161246
1.2756 0.1 -0.09183 0.391105
1.2756 0.1 0.09183 0.383532
1.25511 0.1 -0.248978 0.374516
1.25511 0.1 0.248978 0.356706
1.20938 0.1 0.419453 0.313917
1.20938 0.1 -0.419453 0.337074
1.11928 0.1 -0.621322 0.27638
1.11928 0.1 0.621322 0.254564
1.14316 0.1 -0.576659 0.290421
1.14316 0.1 0.576659 0.268151
1.19808 0.1 -0.455673 0.327452
1.19808 0.1 0.455673 0.303971
1.02149 0.1 0.776219 0.209627
1.02149 0.1 -0.776219 0.229335
0.150379 0.1 1.275 0.13263
0.150379 0.1 -1.275 0.145819
1.2756 0.1 -0.15305 0.388965
1.2756 0.1 0.15305 0.376585
1.2267 0.1 -0.381989 0.347956
1.2267 0.1 0.381989 0.32505
1.10076 0.1 -0.664638 0.264593
1.10076 0.1 0.664638 0.24312
0.350249 0.1 1.2375 0.127537
0.350249 0.1 -1.2375 0.141302
0.623803 0.1 1.125 0.140497
0.623803 0.1 -1.125 0.155729
0.9386 0.1 0.88201 0.186203
0.990306 0.1 0.825 0.199542
0.990306 0.1 -0.825 0.218254
1.24274 0.1 -0.345745 0.358492
1.24274 0.1 0.345745 0.335988
1.2906 0.1 0 0.393688
1.07933 0.1 0.709941 0.230888
1.2906 0.1 -0.0604698 0.395134
1.2906 0.1 0.0604698 0.389925
1.08012 0.1 -0.709941 0.251703
0 0.1 1.29299 0.140601
0 0.1 -1.29299 0.153756
1.25511 0.1 0.311223 0.345216
1.25511 0.1 -0.311223 0.366485
1.2756 0.1 -0.214269 0.384443
1.2756 0.1 0.214269 0.36762
0.0363518 0.1 1.29299 0.140601
0.0363518 0.1 -1.29299 0.153756
1.2906 0.1 -0.12094 0.394265
1.2906 0.1 0.12094 0.383937
0.574156 0.1 1.1625 0.135581
0.574157 0.1 -1.1625 0.150528
0.969689 0.1 0.8625 0.192079
0.969689 0.1 -0.8625 0.210905
1.0579 0.1 0.757102 0.218637
1.0579 0.1 -0.757102 0.238903
1.1744 0.1 -0.563382 0.299432
1.1744 0.1 0.563382 0.275412
1.20938 0.1 0.483984 0.299357
1.20938 0.1 -0.483984 0.324219
1.2906 0.1 -0.181409 0.391014
1.2906 0.1 0.181409 0.375892
0.93886 0.1 -0.903998 0.202909
0.90582 0.1 0.9375 0.174847
0.90582 0.1 -0.9375 0.192929
1.2756 0.1 0.275489 0.356826
1.2756 0.1 -0.275489 0.377608
1.2267 0.1 -0.445653 0.335919
1.2267 0.1 0.445653 0.310933
1.15704 0.1 -0.604332 0.286945
1.15704 0.1 0.604332 0.263419
1.19808 0.1 -0.520769 0.313918
1.19808 0.1 0.520769 0.289064
1.30646 0.1 0.0298385 0.396739
1.30646 0.1 -0.0298385 0.399419
0.287374 0.1 -1.275 0.13772
0.287374 0.1 1.275 0.124142
0.871687 0.1 0.975 0.167673
0.871687 0.1 -0.975 0.185281
1.24274 0.1 0.408607 0.322331
1.24274 0.1 -0.408607 0.347308
0.522865 0.1 1.2 0.131155
0.522865 0.1 -1.2 0.145831
1.25511 0.1 -0.373467 0.356335