# pMean  POINT_DATA 91129
# x  y  z  pMean
0 0 0 0.228918
0 0.00368111 0 0.228594
0 0.00749587 0 0.227891
0 0.0114491 0 0.227198
0 0.0155459 0 0.226571
0 0.0197915 0 0.225907
0 0.0241911 0 0.225155
0 0.0287506 0 0.224326
0 0.0334755 0 0.223447
0 0.038372 0 0.222538
0 0.0434463 0 0.221608
0 0.0487048 0 0.220666
0 0.0541543 0 0.219736
0 0.0598016 0 0.218858
0 0.0656539 0 0.218054
0 0.0717187 0 0.217289
0.075776 0.00184055 0 0.228918
0.075776 0.00558849 0 0.22827
0.075776 0.00947248 -3.46945e-18 0.227513
0.075776 0.0134975 -3.46945e-18 0.226882
0.075776 0.0176687 3.46945e-18 0.22626
0 0.0780037 0 0.216522
0.075776 0.0219913 3.46945e-18 0.225554
0.075776 0.0264709 3.46945e-18 0.224756
0.075776 0.031113 -3.46945e-18 0.223895
0.075776 0.0359237 -3.46945e-18 0.222998
0 0.0845169 0 0.215739
0.075776 0.0409092 0 0.222077
0.075776 0.0460755 -3.46945e-18 0.221139
0 0.0912666 0 0.214942
0.075776 0.0514296 -3.46945e-18 0.220194
0.075776 0.0569779 0 0.219278
0 0.0982613 0 0.214134
0.075776 0.0627278 0 0.218439
0.075776 0.0686863 0 0.217668
0 0.10551 0 0.213314
0.075776 0.0748612 3.46945e-18 0.216909
0.075776 0.0812603 -3.46945e-18 0.216134
0 0.113022 0 0.212479
0.075776 0.0878918 3.46945e-18 0.215343
0 0.120806 0 0.211626
0.075776 0.0947639 3.46945e-18 0.214541
0.075776 0.101886 -3.46945e-18 0.213727
0 0.128874 0 0.210754
0.075776 0.109266 3.46945e-18 0.2129
0 0.137234 0 0.209864
0.075776 0.116914 3.46945e-18 0.212057
0 0.145897 0 0.208972
0.075776 0.12484 0 0.211195
0.151552 0 0 0.211695
0.151552 0.00368111 0 0.21157
0.151552 0.00749587 0 0.21133
0.151552 0.0114491 0 0.21114
0.151552 0.0155459 0 0.210984
0.151552 0.0197915 0 0.210803
0.075776 0.133054 0 0.210312
0.151552 0.0241911 0 0.210574
0.151552 0.0287506 0 0.210301
0 0.154876 0 0.20811
0.151552 0.0334755 0 0.209998
0.151552 0.038372 0 0.209674
0.151552 0.0434463 0 0.209334
0.151552 0.0487048 0 0.208984
0.075776 0.141566 0 0.209415
0.151552 0.0541543 0 0.208632
0.151552 0.0598016 0 0.208298
0 0.16418 0 0.207308
0.151552 0.0656539 0 0.207992
0.151552 0.0717187 0 0.207697
0.075776 0.150387 0 0.208529
0.151552 0.0780037 0 0.207392
0.151552 0.0845169 0 0.207069
0 0.173822 0 0.206572
0.075776 0.159528 0 0.207692
0.151552 0.0912666 0 0.206732
0.151552 0.0982613 0 0.206383
0 0.183814 0 0.205891
0.151552 0.10551 0 0.206026
0.075776 0.169001 3.46945e-18 0.206924
0.151552 0.113022 0 0.205659
0.151552 0.120806 0 0.205274
0 0.194169 0 0.205241
0.075776 0.178818 3.46945e-18 0.206221
0.151552 0.128874 0 0.204861
0.075776 0.188992 3.46945e-18 0.205562
0.151552 0.137234 0 0.20442
0 0.2049 0 0.2046
0.151552 0.145897 0 0.203961
0.075776 0.199535 0 0.204921
0 0.21602 0 0.20395
0.151552 0.154876 0 0.203503
0.219992 0.00184055 0 0.195797
0.219992 0.00558849 0 0.195913
0.219992 0.00947248 -3.46945e-18 0.196173
0.219992 0.0134975 3.46945e-18 0.196461
0.219992 0.0176687 0 0.196732
0.219992 0.0219913 0 0.19699
0.219993 0.0264709 -3.46945e-18 0.197239
0.219992 0.031113 -3.46945e-18 0.197472
0.219992 0.0359238 3.46945e-18 0.197693
0.151552 0.16418 0 0.203065
0.075776 0.21046 0 0.20428
0.219992 0.0409092 3.46945e-18 0.197904
0.219992 0.0460755 0 0.198105
0.219993 0.0514296 -3.46945e-18 0.198293
0.219992 0.0569779 0 0.198469
0 0.227544 0 0.203269
0.219992 0.0627277 3.46945e-18 0.198631
0.219992 0.0686863 0 0.198778
0.151552 0.173822 0 0.202649
0.219992 0.0748612 3.46945e-18 0.198908
0.075776 0.221782 0 0.203621
0.219992 0.0812603 3.46945e-18 0.19902
0.219992 0.0878917 -3.46945e-18 0.199113
0.151552 0.183814 0 0.202248
7.47806e-17 0.239487 0 0.202534
0.219992 0.0947639 3.46945e-18 0.199191
0.219993 0.101886 3.46945e-18 0.199263
0.075776 0.233516 0 0.202916
0.219993 0.109266 0 0.199334
0.151552 0.194169 0 0.201848
0.219993 0.116914 0 0.199393
0 0.251863 0 0.201751
0.219993 0.12484 0 0.199425
0.151552 0.2049 0 0.201439
0.075776 0.245675 0 0.202151
0.219992 0.133054 3.46945e-18 0.199418
0.219992 0.141565 0 0.199372
0.151552 0.21602 0 0.20101
0 0.264688 0 0.200941
0.219992 0.150387 3.46945e-18 0.199297
0.075776 0.258275 3.46945e-18 0.20135
0.219992 0.159528 -3.46945e-18 0.199203
0.151552 0.227544 0 0.20055
0.219992 0.169001 3.46945e-18 0.199092
0 0.27798 0 0.200116
0.075776 0.271334 3.46945e-18 0.200532
0.151552 0.239487 3.70071e-18 0.200047
0.219992 0.178818 3.46945e-18 0.198961
0.288433 0 0 0.199812
0.288433 0.00368111 0 0.199854
0.288433 0.00749587 0 0.199981
0.288433 0.0114491 0 0.200165
0.288433 0.0155459 3.70071e-18 0.200359
0.288433 0.0197915 0 0.200549
0.288433 0.0241911 3.70071e-18 0.200738
0.288433 0.0287506 0 0.200921
0.219992 0.188991 0 0.198806
0.288433 0.0334755 0 0.201097
0.288433 0.038372 0 0.201268
0.288433 0.0434463 0 0.201434
7.47806e-17 0.291753 0 0.199275
0.288433 0.0487048 0 0.201592
0.288433 0.0541543 0 0.201741
0.151552 0.251863 0 0.199503
0.288433 0.0598016 3.70071e-18 0.201882
0.075776 0.284866 0 0.1997
0.288433 0.0656539 3.70071e-18 0.202013
0.219992 0.199534 0 0.198624
0.288433 0.0717187 0 0.202135
0.288433 0.0780037 0 0.202248
0.288433 0.0845169 0 0.202349
0.288433 0.0912666 0 0.202434
0.219992 0.21046 -3.46945e-18 0.198415
0.288433 0.0982613 0 0.202501
0.151552 0.264688 3.70071e-18 0.198929
0 0.306027 0 0.198408
0.288433 0.10551 0 0.202554
0.075776 0.29889 3.46945e-18 0.198849
0.288433 0.113022 0 0.202593
0.219993 0.221782 0 0.198175
0.288433 0.120806 0 0.202614
0.288433 0.128874 0 0.202616
0.151552 0.27798 0 0.198334
0.288433 0.137234 0 0.202596
0 0.320819 0 0.197506
0.219992 0.233515 -3.46945e-18 0.197903
0.075776 0.313423 -3.46945e-18 0.197967
0.288433 0.145897 0 0.202551
0.288433 0.154876 0 0.202482
0.151552 0.291753 0 0.197718
0.219993 0.245675 0 0.197598
0.288433 0.16418 0 0.202392
0 0.336148 0 0.196571
0.288433 0.173822 0 0.202281
0.075776 0.328484 -3.46945e-18 0.197043
0.219993 0.258275 -3.46945e-18 0.197258
0.151552 0.306027 0 0.197074
0.288433 0.183814 0 0.202147
0.288433 0.194169 0 0.201987
0.219992 0.271334 3.46945e-18 0.196885
0.350249 0.00184056 -3.46945e-18 0.203533
0.350249 0.00558849 0 0.203585
0.350249 0.00947248 3.46945e-18 0.203676
0.350249 0.0134975 0 0.203786
0.350249 0.0176687 0 0.203904
0.350249 0.0219913 0 0.20403
0.350249 0.0264708 3.46945e-18 0.204159
0.350249 0.031113 0 0.204289
0 0.352034 0 0.195639
0.350249 0.0359238 0 0.204419
0.075776 0.344091 0 0.196098
0.350249 0.0409091 0 0.204548
0.350249 0.0460756 3.46945e-18 0.204674
0.288433 0.2049 0 0.201799
0.350249 0.0514296 0 0.204796
0.151552 0.320819 0 0.196392
0.350249 0.0569779 0 0.204914
0.350249 0.0627277 3.46945e-18 0.205026
0.350249 0.0686863 3.46945e-18 0.205133
0.350249 0.0748612 3.46945e-18 0.205238
0.350249 0.0812603 0 0.205343
0.219992 0.284867 0 0.19649
0.288433 0.21602 0 0.201581
0.350249 0.0878917 0 0.205439
0.350249 0.094764 0 0.205512
0.350249 0.101886 0 0.205559
0.350249 0.109266 0 0.205583
0.288433 0.227544 0 0.201333
0.075776 0.360265 3.46945e-18 0.19518
0 0.368496 0 0.194729
0.151552 0.336148 0 0.195666
0.350249 0.116914 3.46945e-18 0.205587
0.219992 0.29889 0 0.19607
0.370854 0.0241911 1.54074e-33 0.206746
0.350249 0.12484 0 0.20558
0.350249 0.133054 0 0.205571
0.288433 0.239487 -9.25154e-19 0.201051
0.350249 0.141566 3.46945e-18 0.205552
0.350249 0.150387 3.46945e-18 0.205511
0.288433 0.251863 0 0.200735
0.219992 0.313423 0 0.195615
0.151552 0.352034 0 0.194914
0.075776 0.377027 0 0.194277
0.350249 0.159528 0 0.205444
0 0.385557 0 0.1938
0.350249 0.169001 0 0.205355
0.288433 0.264688 0 0.200383
0.350249 0.178818 0 0.205241
0.219992 0.328484 0 0.195111
0.350249 0.188992 0 0.205102
0.151552 0.368496 0 0.194146
0.288433 0.27798 3.70071e-18 0.199998
0.075776 0.394397 0 0.193322
0.350249 0.199535 0 0.204936
7.47806e-17 0.403236 0 0.192808
0.219992 0.344091 0 0.194551
0.350249 0.21046 -3.46945e-18 0.204741
0.288433 0.291753 0 0.199583
0.412065 9.08189e-19 3.08149e-33 0.209376
0.412065 0.00368111 -2.31298e-18 0.209395
0.412065 0.00749587 -2.31298e-18 0.209445
0.412065 0.0114491 -2.31298e-18 0.209513
0.412065 0.0155459 -2.31298e-18 0.209589
0.412065 0.0197915 0 0.209668
0.412065 0.0241911 -3.08149e-33 0.20975
0.412065 0.0264709 0 0.209792
0.412065 0.0287506 -2.31298e-18 0.209835
0.412065 0.0334755 -2.31298e-18 0.209921
0.412065 0.038372 -2.31298e-18 0.21001
0.151552 0.385557 0 0.193343
0.412065 0.0434463 0 0.2101
0.350249 0.221782 0 0.204515
0.412065 0.0487048 0 0.21019
0.412065 0.0541543 -3.08149e-33 0.210279
0.412065 0.0569779 0 0.210323
0.412065 0.0598016 -2.31298e-18 0.210366
0.412065 0.0656539 -2.31298e-18 0.210451
0.412065 0.0717187 -2.31298e-18 0.210533
0.075776 0.412396 -3.46945e-18 0.192293
0.412065 0.0780037 -2.31298e-18 0.210604
0.288433 0.306027 0 0.199134
0.412065 0.0845169 -2.31298e-18 0.210656
0.350249 0.233516 3.46945e-18 0.204257
0 0.421557 0 0.191751
0.412065 0.0912666 -2.31298e-18 0.210682
0.219992 0.360265 3.46945e-18 0.193938
0.412065 0.0982613 0 0.210687
0.412065 0.10551 0 0.210674
0.412065 0.113022 -2.31298e-18 0.210647
0.350249 0.245675 0 0.203964
0.412065 0.120806 0 0.210604
0.151552 0.403236 0 0.192485
0.288433 0.320819 0 0.198642
0.412065 0.128874 -2.31298e-18 0.210551
0.412065 0.137234 0 0.210488
0.350249 0.258275 -3.46945e-18 0.203636
0.219992 0.377026 0 0.193276
0.412065 0.145897 -2.31298e-18 0.21041
0.075776 0.431051 0 0.191207
0.412065 0.154876 -2.31298e-18 0.210314
0 0.440544 0 0.190644
0.288433 0.336148 0 0.198103
0.350249 0.271334 0 0.20327
0.412065 0.16418 -2.31298e-18 0.210199
0.412065 0.173822 -2.31298e-18 0.210063
0.151552 0.421557 0 0.191567
0.412065 0.183814 -2.31298e-18 0.209905
0.350249 0.284867 3.46945e-18 0.202866
0.219992 0.394397 0 0.192567
0.288433 0.352034 3.70071e-18 0.197512
0.412065 0.194169 0 0.209723
0.075776 0.450382 0 0.19008
0.412065 0.2049 -2.31298e-18 0.209516
0 0.46022 0 0.189498
0.350249 0.29889 3.46945e-18 0.202425
0.412065 0.21602 0 0.209281
0.151552 0.440544 0 0.190595
0.219993 0.412396 3.46945e-18 0.191807
0.467897 0.00184056 -3.46945e-18 0.214812
0.467897 0.00558849 0 0.214835
0.288433 0.368496 0 0.196869
0.467897 0.00947248 0 0.214872
0.467897 0.0134975 0 0.214912
0.467897 0.0176687 3.46945e-18 0.214953
0.467897 0.0219913 -3.46945e-18 0.214992
0.467897 0.0264709 3.46945e-18 0.215032
0.467897 0.0311131 3.46945e-18 0.215077
0.467897 0.0359238 -3.46945e-18 0.215125
0.467897 0.038372 0 0.215791
0.467897 0.0409092 3.46945e-18 0.215178
0.350249 0.313423 0 0.201944
0.467897 0.0460755 0 0.215235
0.467897 0.0514296 3.46945e-18 0.215294
0.412065 0.227544 -2.31298e-18 0.209016
0.467897 0.0569779 0 0.215356
0.467897 0.0627277 -3.46945e-18 0.215419
0.467897 0.0686863 3.46945e-18 0.21548
0.467897 0.0748612 0 0.215534
0.467897 0.0812603 0 0.215561
0.467897 0.0878918 3.46945e-18 0.215547
0.075776 0.470415 3.46945e-18 0.188915
0.412065 0.239487 -2.31298e-18 0.20872
0.467897 0.0947639 -3.46945e-18 0.215505
0.467897 0.101886 3.46945e-18 0.215453
0.350249 0.328483 0 0.201421
0.467897 0.109266 0 0.215392
0 0.48061 0 0.188311
0.288433 0.385557 0 0.196176
0.467897 0.116914 0 0.21532
0.412065 0.251863 -2.31298e-18 0.20839
0.219992 0.431051 0 0.19099
0.467897 0.12484 0 0.215232
0.151552 0.46022 0 0.189573
0.467897 0.133054 3.46945e-18 0.215129
0.467897 0.141566 3.46945e-18 0.215014
0.412065 0.264688 -2.31298e-18 0.208024
0.350249 0.344091 -3.46945e-18 0.200851
0.467897 0.150387 3.46945e-18 0.214886
0.467897 0.154876 0 0.215553
0.467897 0.159528 3.46945e-18 0.214744
0.288433 0.403236 0 0.195429
0.075776 0.491175 0 0.187706
0.412065 0.27798 -2.31298e-18 0.207621
0.467897 0.169001 0 0.214586
0.467897 0.178818 3.46945e-18 0.214408
0.219992 0.450382 0 0.190112
6.73026e-17 0.501741 3.70071e-18 0.187078
0.350249 0.360265 0 0.200231
0.151552 0.48061 0 0.188499
0.467897 0.188991 0 0.214211
0.412065 0.291753 0 0.207178
0.467897 0.199535 0 0.213991
0.288433 0.421557 0 0.194625
0.467897 0.21046 0 0.213746
0.412065 0.306027 0 0.206694
0.350249 0.377027 0 0.199558
0.467897 0.221782 3.46945e-18 0.213476
0.075776 0.51269 0 0.186449
0.219993 0.470415 3.46945e-18 0.189173
0.467897 0.227544 0 0.21403
0.412065 0.320819 -2.31298e-18 0.206167
0.467897 0.233515 0 0.213176
6.73026e-17 0.523639 3.70071e-18 0.185796
0.523729 0 0 0.221342
0.523729 0.00368111 0 0.221352
0.523729 0.00749587 -2.31298e-18 0.221377
0.523729 0.0114491 0 0.221409
0.523729 0.0155459 0 0.22144
0.523729 0.0197915 -2.31298e-18 0.221466
0.151552 0.501741 0 0.187371
0.523729 0.0241911 0 0.221489
0.523729 0.0287506 0 0.221513
0.523729 0.0334755 0 0.221541
0.523729 0.038372 -3.08149e-33 0.221572
0.523729 0.0434463 0 0.221605
0.523729 0.0487048 0 0.221642
0.523729 0.0541543 0 0.221681
0.288433 0.440544 0 0.19376
0.523729 0.0598016 0 0.221723
0.350249 0.394397 -3.46945e-18 0.198829
0.523729 0.0656539 0 0.221765
0.467897 0.245675 0 0.212845
0.523729 0.0717187 0 0.2218
0.523729 0.0780037 0 0.221812
0.523729 0.0845169 0 0.221787
0.523729 0.0912666 0 0.221729
0.412065 0.336148 0 0.205593
0.523729 0.0982613 0 0.221654
0.523729 0.10551 -2.31298e-18 0.22157
0.467897 0.258275 -3.46945e-18 0.212481
0.523729 0.113022 0 0.221475
0.523729 0.120806 -3.08149e-33 0.221367
0.219993 0.491176 0 0.188175
0.523729 0.12484 0 0.221306
0.523729 0.128874 -2.31298e-18 0.221245
0.075776 0.534986 0 0.185142
0.467897 0.271334 3.46945e-18 0.212079
0.350249 0.412396 -3.46945e-18 0.198042
0.523729 0.137234 0 0.221109
0.412065 0.352034 -2.31298e-18 0.20497
0.288433 0.46022 0 0.192832
0.523729 0.145897 0 0.220958
0.151552 0.523639 0 0.186181
0.523729 0.154876 -3.08149e-33 0.220792
0 0.546332 0 0.184462
0.523729 0.159528 0 0.2207
0.467897 0.284867 -3.46945e-18 0.211639
0.523729 0.16418 -2.31298e-18 0.220608
0.523729 0.173822 0 0.220406
0.412065 0.368496 0 0.204293
0.523729 0.183814 0 0.220183
0.467897 0.29889 0 0.211157
0.350249 0.431051 -3.46945e-18 0.197193
0.219992 0.51269 0 0.187109
0.523729 0.194169 0 0.219937
0.288433 0.48061 0 0.191838
0.523729 0.2049 0 0.219666
0.467897 0.313423 3.46945e-18 0.21063
0.075776 0.558091 0 0.18378
0.412065 0.385557 0 0.203559
0.523729 0.21602 -3.08149e-33 0.219369
0.151552 0.546332 0 0.184926
0 0.569849 0 0.183071
0.350249 0.450382 3.46945e-18 0.19628
0.523729 0.227544 -3.08149e-33 0.219044
0.467897 0.328483 0 0.210055
0.523729 0.231525 1.54074e-33 0.218925
0.574156 0.00184056 0 0.227444
0.574156 0.00558849 0 0.22746
0.574157 0.00947248 0 0.227485
0.574156 0.0134975 -3.46945e-18 0.227511
0.574156 0.0176687 -3.46945e-18 0.227529
0.574156 0.0219913 0 0.227538
0.574156 0.0264708 -3.46945e-18 0.227544
0.574156 0.031113 0 0.227553
0.574156 0.0359238 -3.46945e-18 0.227565
0.574157 0.0409092 0 0.227578
0.523729 0.239487 3.70071e-18 0.218687
0.574156 0.0460755 -3.46945e-18 0.227592
0.574156 0.0514295 0 0.22761
0.412065 0.403236 0 0.202767
0.574157 0.0569779 0 0.227631
0.574156 0.0627277 0 0.227654
0.574156 0.0686863 0 0.227677
0.219992 0.534986 0 0.185967
0.288433 0.501741 0 0.190776
0.574156 0.0748612 3.46945e-18 0.227684
0.574156 0.0812603 0 0.227649
0.467897 0.344091 0 0.209431
0.574156 0.0878917 3.46945e-18 0.227573
0.523729 0.251863 0 0.218298
0.574157 0.0947639 0 0.227477
0.574156 0.101886 0 0.227372
0.574156 0.109266 0 0.227257
0.574156 0.116914 0 0.22713
0.412065 0.416977 -6.16298e-33 0.202127
0.350249 0.470415 0 0.1953
0.523729 0.264688 0 0.217873
0.075776 0.582034 0 0.18236
0.574156 0.12484 0 0.226991
0.574156 0.133054 3.46945e-18 0.226836
0.412065 0.421557 -2.31298e-18 0.201914
0.151552 0.569849 0 0.183602
0.467897 0.360265 -3.46945e-18 0.208754
0.574157 0.141566 -3.46945e-18 0.226667
0.523729 0.27798 0 0.217409
0.574156 0.150386 3.46945e-18 0.22648
0 0.594219 0 0.181619
0.574156 0.159528 -3.46945e-18 0.226276
0.574156 0.16418 0 0.226776
0.288433 0.523639 1.2326e-32 0.18964
0.574157 0.169001 0 0.226052
0.523729 0.291753 0 0.216905
0.219993 0.558091 3.46945e-18 0.184745
0.467897 0.377026 0 0.208021
0.574156 0.178818 3.46945e-18 0.225806
0.412065 0.440544 -2.31298e-18 0.200995
0.350249 0.491175 0 0.194248
0.574156 0.188992 3.46945e-18 0.225538
0.523729 0.306027 -3.08149e-33 0.216357
0.574157 0.199535 0 0.225245
0.574157 0.21046 0 0.224926
0.075776 0.606847 0 0.180875
0.467897 0.394397 0 0.207229
0.151552 0.594219 0 0.182205
0.523729 0.320819 0 0.215763
0.574157 0.221782 -3.46945e-18 0.224578
0.412065 0.46022 3.08149e-33 0.200008
0.288433 0.546332 0 0.188425
0 0.619475 0 0.1801
0.574156 0.233515 3.46945e-18 0.2242
0.350249 0.51269 3.46945e-18 0.193121
0.219992 0.582034 3.46945e-18 0.183441
0.523729 0.336148 0 0.215119
0.467897 0.412396 0 0.206375
0.574156 0.245675 0 0.223789
0.624584 0 0 0.234756
0.624584 0.00368111 0 0.234763
0.624584 0.00749587 0 0.234782
0.624584 0.0114491 0 0.234808
0.624584 0.0155459 0 0.234829
0.624584 0.0197915 0 0.234838
0.624584 0.0241911 -2.31298e-18 0.234837
0.624584 0.0287506 0 0.234832
0.624584 0.0334755 0 0.23483
0.624584 0.038372 0 0.234828
0.624584 0.0434463 -2.31298e-18 0.234829
0.624584 0.0487048 0 0.23483
0.624584 0.0541543 0 0.234832
0.624584 0.0598016 0 0.234836
0.624584 0.0656539 0 0.234838
0.624584 0.0717187 0 0.234828
0.624584 0.0780037 0 0.234783
0.574157 0.258276 3.46945e-18 0.223343
0.624584 0.0845169 0 0.234697
0.523729 0.352034 0 0.214423
0.624584 0.0912666 0 0.234585
0.624584 0.0982613 0 0.23446
0.412065 0.48061 3.08149e-33 0.19895
0.624584 0.10551 0 0.234323
0.624584 0.113022 -2.31298e-18 0.234174
0.574156 0.271334 0 0.22286
0.624584 0.120806 0 0.234011
0.467897 0.431051 0 0.205455
0.075776 0.632561 -3.46945e-18 0.179322
0.624584 0.128874 0 0.233832
0.151552 0.619475 0 0.180731
0.288433 0.569849 0 0.187127
0.350249 0.534985 0 0.191916
0.624584 0.137234 -2.31298e-18 0.233637
0.523729 0.368496 0 0.213672
0.574156 0.284866 -3.46945e-18 0.222337
0.624584 0.145897 0 0.233425
0.467897 0.440544 0 0.205521
0.624584 0.154876 0 0.233194
0.219992 0.606847 -3.46945e-18 0.182054
0 0.645647 0 0.17851
0.624584 0.16418 -3.08149e-33 0.232943
0.574156 0.29889 -3.46945e-18 0.221772
0.624584 0.173822 0 0.23267
0.412065 0.501741 1.54074e-33 0.197816
0.467897 0.450382 -3.46945e-18 0.204467
0.523729 0.385557 0 0.212862
0.624584 0.183814 0 0.232373
0.624584 0.194169 0 0.232052
0.574156 0.313423 0 0.221161
0.624584 0.2049 0 0.231703
0.350249 0.558091 3.46945e-18 0.190629
0.288433 0.594219 0 0.185744
0.624584 0.21602 0 0.231326
0.523729 0.403236 0 0.21199
0.574156 0.328483 -3.46945e-18 0.220502
0.151552 0.645647 0 0.179177
0.467897 0.470415 3.46945e-18 0.203408
0.075776 0.659208 0 0.177695
0.624584 0.227544 0 0.230919
0.412065 0.523639 0 0.196603
0.523729 0.41545 3.08149e-33 0.211365
0.624584 0.239487 3.70071e-18 0.230478
0.574156 0.344091 0 0.219792
0.219992 0.632561 0 0.180578
0.67013 0.00184055 0 0.24162
0.67013 0.00558849 0 0.241634
0.67013 0.00947248 0 0.241657
0.67013 0.0134975 0 0.241685
0.67013 0.0176687 -3.46945e-18 0.241699
0.67013 0.0219913 0 0.241694
0.67013 0.0264708 3.46945e-18 0.241678
0.67013 0.0311131 0 0.241663
0.67013 0.0359237 0 0.241649
0.67013 0.0409092 -3.46945e-18 0.241636
0.67013 0.0460755 0 0.241623
0.67013 0.0514296 3.46945e-18 0.241611
0.523729 0.421557 -2.31298e-18 0.211053
0.67013 0.056978 0 0.241597
0 0.67277 0 0.176843
0.67013 0.0627277 0 0.241583
0.624584 0.251863 0 0.230003
0.67013 0.0686863 0 0.241563
0.67013 0.0748612 3.46945e-18 0.241515
0.67013 0.0812603 0 0.241417
0.67013 0.0878917 0 0.241286
0.67013 0.0947639 3.46945e-18 0.241143
0.574156 0.360265 0 0.219027
0.67013 0.101886 0 0.240988
0.523729 0.431051 0 0.21055
0.624584 0.264688 0 0.22949
0.467897 0.491175 0 0.202273
0.67013 0.109266 3.46945e-18 0.24082
0.350249 0.582034 0 0.189256
0.67013 0.116914 0 0.240637
0.67013 0.12484 0 0.240438
0.67013 0.133054 0 0.240221
0.288433 0.619475 0 0.184272
0.624584 0.27798 -3.08149e-33 0.228938
0.412065 0.546332 1.54074e-33 0.195307
0.523729 0.440544 -3.08149e-33 0.210047
0.67013 0.141566 3.46945e-18 0.239987
0.685312 0.0241911 -7.70372e-34 0.244688
0.685312 0.0434463 -7.70372e-34 0.244603
0.67013 0.150387 0 0.239733
0.574156 0.377026 -3.46945e-18 0.218204
0.67013 0.159528 0 0.239458
0.624584 0.291753 0 0.228343
0.151552 0.67277 0 0.177539
0.075776 0.686823 0 0.175988
0.67013 0.169001 0 0.239161
0.67013 0.178818 0 0.23884
0.467897 0.51269 0 0.201058
0.685312 0.113022 -7.70372e-34 0.243588
0.219992 0.659208 0 0.179013
0.624584 0.306027 0 0.227703
0.67013 0.188991 0 0.238494
0.574156 0.394397 3.46945e-18 0.217319
0.523729 0.46022 0 0.208968
0.685312 0.137234 -7.70372e-34 0.242922
0.67013 0.199535 -3.46945e-18 0.23812
0.350249 0.606847 0 0.187794
0 0.700877 0 0.175095
0.624584 0.320819 0 0.227015
0.67013 0.21046 0 0.237718
0.412065 0.569849 -2.31298e-18 0.193924
0.67013 0.221782 -3.46945e-18 0.237285
0.574157 0.412396 0 0.216369
0.288433 0.645647 0 0.182707
0.624584 0.336148 -3.08149e-33 0.226275
0.67013 0.233515 3.46945e-18 0.23682
0.467897 0.534986 0 0.19976
0.523729 0.48061 0 0.207812
0.624584 0.344091 0 0.225879
0.67013 0.245675 0 0.236319
0.715676 4.54095e-19 0 0.249566
0.715676 0.00368111 0 0.249572
0.715676 0.00749587 0 0.249591
0.715676 0.0114491 0 0.249616
0.715676 0.0155459 0 0.249635
0.715676 0.0197915 0 0.249634
0.715676 0.0241911 0 0.249614
0.715676 0.0287506 0 0.249585
0.715676 0.0334755 0 0.249554
0.715676 0.038372 0 0.249523
0.624584 0.352034 -2.31298e-18 0.225482
0.715676 0.0434463 0 0.249491
0.151552 0.700877 0 0.175811
0.715676 0.0487048 0 0.249458
0.715676 0.0541543 0 0.249425
0.574156 0.43105 0 0.21535
0.715676 0.0598016 0 0.24939
0.67013 0.258275 0 0.235781
0.715676 0.0656539 0 0.249349
0.715676 0.0717187 0 0.249286
0.075776 0.715441 0 0.174198
0.715676 0.0780037 0 0.249182
0.715676 0.0845169 0 0.249039
0.219992 0.686824 0 0.177353
0.715676 0.0912666 0 0.248874
0.715676 0.0982613 0 0.248696
0.67013 0.271334 -3.46945e-18 0.235203
0.350249 0.632561 -3.46945e-18 0.186237
0.412065 0.594219 3.08149e-33 0.19245
0.715676 0.10551 0 0.248504
0.715676 0.113022 0 0.248296
0.624584 0.368496 0 0.22463
0.523729 0.501741 0 0.206577
0.715676 0.120806 0 0.248071
0.715676 0.128874 0 0.247827
0.67013 0.284867 0 0.234583
0.467897 0.558091 3.46945e-18 0.198374
0.715676 0.137234 0 0.247565
0.574156 0.450382 0 0.214259
0 0.730005 0 0.173261
0.715676 0.145897 0 0.247282
0.288433 0.67277 0 0.181045
0.715676 0.154876 0 0.246978
0.67013 0.29889 0 0.233919
0.624584 0.385557 0 0.223717
0.715676 0.16418 -9.25187e-19 0.246651
0.715676 0.173822 0 0.246299
0.715676 0.183814 0 0.245922
0.67013 0.313423 0 0.233206
0.523729 0.523639 0 0.205256
0.715676 0.194169 0 0.245517
0.574156 0.470415 3.46945e-18 0.21309
0.624584 0.403236 0 0.222739
0.743101 0.0241911 -7.70372e-34 0.254914
0.412065 0.619475 3.08149e-33 0.190879
0.715676 0.2049 0 0.245082
0.151552 0.730005 0 0.17399
0.67013 0.328484 3.46945e-18 0.232443
0.350249 0.659208 0 0.184582
0.467897 0.582034 0 0.196896
0.715676 0.21602 0 0.244616
0.219992 0.715441 0 0.175595
0.075776 0.745097 -3.46945e-18 0.172319
0.715676 0.227544 0 0.244117
0.67013 0.344091 0 0.231626
0.624584 0.421557 0 0.221692
0.743101 0.128874 -7.70372e-34 0.2528
0.715676 0.239487 3.70071e-18 0.243583
0.574156 0.491175 0 0.21184
0.756814 0.00184055 0 0.257062
0.523729 0.546332 0 0.203846
0.756813 0.00558849 0 0.257076
0.756813 0.00947248 0 0.257099
0.756814 0.0134975 -3.46945e-18 0.257126
0.756814 0.0155459 0 0.257602
0.756814 0.0176687 0 0.257134
0.756814 0.0219913 0 0.257114
0.756814 0.0264709 0 0.257074
0.756814 0.031113 -3.46945e-18 0.25703
0.756813 0.0359238 -3.46945e-18 0.256984
0.288433 0.700877 0 0.179283
0.756814 0.0409092 -3.46945e-18 0.256934
0.756813 0.0460755 3.46945e-18 0.256884
0.756813 0.0514296 0 0.256832
0.715676 0.251863 0 0.243011
0.756813 0.0569779 0 0.256779
0.756814 0.0627277 -3.46945e-18 0.256723
0.756814 0.0686863 -3.46945e-18 0.256652
0 0.76019 0 0.171335
0.756814 0.0748612 0 0.256542
0.67013 0.360265 3.46945e-18 0.230751
0.756814 0.0812603 -3.46945e-18 0.256385
0.756814 0.0878917 -3.46945e-18 0.256201
0.756814 0.0947639 -3.46945e-18 0.256003
0.715676 0.264688 0 0.242399
0.756813 0.101886 0 0.255791
0.624584 0.440544 0 0.220572
0.756813 0.109266 3.46945e-18 0.255561
0.756813 0.116914 3.46945e-18 0.255313
0.412065 0.645647 0 0.189209
0.467897 0.606847 0 0.19532
0.756814 0.120806 0 0.255569
0.756813 0.12484 0 0.255047
0.715676 0.27798 0 0.241746
0.756814 0.133054 -3.46945e-18 0.254761
0.67013 0.377026 -3.46945e-18 0.229815
0.756814 0.137234 0 0.254984
0.574156 0.51269 0 0.210505
0.756813 0.141566 3.46945e-18 0.254453
0.685312 0.352034 -7.70372e-34 0.233658
0.743101 0.2049 -7.70372e-34 0.249815
0.350249 0.686824 0 0.182824
0.756814 0.150387 0 0.254124
0.756814 0.154876 0 0.254312
0.715676 0.291753 0 0.241047
0.756814 0.159528 -3.46945e-18 0.25377
0.523729 0.569849 0 0.202342
0.72743 0.264688 0 0.244354
0.756814 0.16418 0 0.253941
0.151552 0.76019 0 0.172072
0.756813 0.169001 3.46945e-18 0.253392
0.624584 0.46022 0 0.219375
0.219993 0.745097 0 0.173737
0.67013 0.394396 0 0.228815
0.756813 0.178818 -3.46945e-18 0.252987
0.715676 0.306027 0 0.240301
0.075776 0.775831 0 0.170346
0.756813 0.188991 0 0.252554
0.756814 0.199535 0 0.252091
0.715676 0.320819 0 0.239504
0.574156 0.534985 0 0.20908
0.288433 0.730005 0 0.177417
0.756813 0.21046 0 0.251596
0.467897 0.632561 0 0.193643
0.67013 0.412396 -3.46945e-18 0.227746
0.624584 0.48061 -3.08149e-33 0.218096
0.756814 0.221782 0 0.251068
0.412065 0.67277 3.08149e-33 0.187433
0.715676 0.336148 0 0.238653
0 0.791472 0 0.169312
0.756813 0.233516 3.46945e-18 0.250505
0.523729 0.594219 0 0.200739
0.624584 0.487654 1.54074e-33 0.21764
0.756814 0.245675 3.46945e-18 0.249903
0.350249 0.715441 3.46945e-18 0.18096
0.67013 0.43105 0 0.226604
0.715676 0.352034 -9.25187e-19 0.237746
0.797951 9.08189e-19 -3.08149e-33 0.265501
0.797951 0.00368111 2.31298e-18 0.265508
0.797951 0.00749587 2.31298e-18 0.265526
0.797951 0.0114491 2.31298e-18 0.265552
0.797951 0.0141803 7.70372e-34 0.265563
0.797951 0.0155459 0 0.265568
0.797951 0.0169611 7.70372e-34 0.265564
0.797951 0.0197915 2.31298e-18 0.265556
0.797951 0.0219913 0 0.265535
0.797951 0.0241911 3.08149e-33 0.265514
0.797951 0.0264709 0 0.265485
0.797951 0.0287506 -3.08149e-33 0.265456
0.797951 0.0334755 2.31298e-18 0.265389
0.797951 0.038372 2.31298e-18 0.265317
0.797951 0.0434463 2.31298e-18 0.265242
0.797951 0.0487048 0 0.265163
0.756813 0.258275 -3.46945e-18 0.249263
0.797951 0.0541543 2.31298e-18 0.265082
0.797951 0.0598016 2.31298e-18 0.264997
0.797951 0.0656539 2.31298e-18 0.2649
0.574156 0.55809 0 0.20756
0.624584 0.501741 0 0.21673
0.797951 0.0717187 2.31298e-18 0.26477
0.797951 0.0780037 -3.08149e-33 0.264596
0.797951 0.0845169 2.31298e-18 0.264387
0.797951 0.0912666 -3.08149e-33 0.264159
0.797951 0.0982613 2.31298e-18 0.263914
0.756813 0.271334 0 0.24858
0.797951 0.10551 2.31298e-18 0.263651
0.715676 0.368496 0 0.236777
0.151552 0.791472 0 0.170051
0.797951 0.113022 2.31298e-18 0.26337
0.219992 0.775831 3.46945e-18 0.171773
0.797951 0.118211 7.70372e-34 0.263169
0.770526 0.239487 1.54074e-33 0.252845
0.797951 0.120806 0 0.263068
0.67013 0.450382 3.46945e-18 0.225385
0.797951 0.128874 3.08149e-33 0.262747
0.467897 0.659208 0 0.191858
0.756813 0.284866 -3.46945e-18 0.247852
0.743101 0.320819 -7.70372e-34 0.243913
0.797951 0.137234 0 0.262403
0.797951 0.141566 0 0.26222
0.797951 0.145897 -9.25187e-19 0.262037
0.523729 0.619475 0 0.199032
0.075776 0.807681 0 0.168274
0.797951 0.150387 0 0.261841
0.797951 0.154876 0 0.261646
0.715676 0.385557 0 0.235745
0.412065 0.700877 3.08149e-33 0.185547
0.288433 0.76019 0 0.175442
0.756813 0.29889 0 0.247077
0.797951 0.16418 0 0.26123
0.624584 0.523639 0 0.215274
0.797951 0.167394 7.70372e-34 0.261083
0.797951 0.173822 2.31298e-18 0.260787
0.574156 0.582034 0 0.205939
0.67013 0.470415 0 0.224084
0.797951 0.183814 2.31298e-18 0.260316
0.756813 0.313423 -3.46945e-18 0.246251
0.797951 0.194169 -9.25187e-19 0.259815
0.715676 0.403236 0 0.234644
0.151552 0.807681 0 0.168987
0.797951 0.197746 -7.70372e-34 0.259638
0.350249 0.745097 0 0.178984
0.797951 0.2049 3.08149e-33 0.259282
0 0.823889 0 0.167189
0.756813 0.328483 -3.46945e-18 0.245373
0.797951 0.21046 0 0.258999
0.797951 0.21602 -3.08149e-33 0.258716
0.797951 0.223703 7.70372e-34 0.258316
0.797951 0.227544 9.25187e-19 0.258115
0.624584 0.546332 0 0.213721
0.715676 0.421557 0 0.23347
0.67013 0.491176 -3.46945e-18 0.222696
0.797951 0.231525 7.70372e-34 0.257902
0.467897 0.686824 -3.46945e-18 0.189962
0.523729 0.645647 0 0.197216
0.756813 0.344091 -3.46945e-18 0.244437
0.822721 0.120806 7.70372e-34 0.268245
0.797951 0.239487 -3.08149e-33 0.257477
0.822721 0.137234 7.70372e-34 0.267521
0.835106 0.00184056 0 0.273504
0.835106 0.00558849 0 0.273518
0.835106 0.00947248 0 0.273543
0.835106 0.0134975 0 0.27357
0.835107 0.0176687 0 0.273572
0.835106 0.0219913 -3.46945e-18 0.273534
0.574156 0.606847 3.46945e-18 0.204213
0.835106 0.0241911 0 0.273794
0.835106 0.0264709 -3.46945e-18 0.273468
0.822721 0.145897 -7.70372e-34 0.267124
0.835106 0.031113 3.46945e-18 0.273384
0.835106 0.0359238 3.46945e-18 0.273293
0.835106 0.0409092 -3.46945e-18 0.273196
0.835106 0.0460755 3.46945e-18 0.273094
0.835106 0.0514296 0 0.272988
0.797951 0.251863 -3.08149e-33 0.256799
0.835106 0.0541543 0 0.273218
0.835106 0.0569779 0 0.272877
0.219992 0.807681 3.46945e-18 0.169699
0.822721 0.154876 7.70372e-34 0.266701
0.835106 0.0627277 0 0.27276
0.151552 0.823889 0 0.167924
0.797951 0.255069 -1.54074e-33 0.256619
0.835106 0.0686863 3.46945e-18 0.272618
0.756814 0.360265 -3.46945e-18 0.243442
0.412065 0.730005 0 0.183546
0.835106 0.0748612 0 0.272427
0.822721 0.16418 7.70372e-34 0.266253
0.835106 0.0812603 0 0.272193
0.835106 0.0878917 -3.46945e-18 0.271937
0.715676 0.440544 0 0.232219
0.835106 0.094764 0 0.271664
0.797951 0.264688 -1.2326e-32 0.256079
0.835106 0.101886 -3.46945e-18 0.271372
0.835106 0.109266 3.46945e-18 0.27106
0.288433 0.791472 0 0.173354
0.835106 0.116914 0 0.270728
0.67013 0.51269 3.46945e-18 0.221217
0.797951 0.274657 6.16298e-33 0.255506
0.075776 0.840686 -3.46945e-18 0.166098
0.835106 0.12484 0 0.270375
0.797951 0.27798 -3.08149e-33 0.255315
0.624584 0.569849 0 0.212066
0.756813 0.377026 -3.46945e-18 0.242382
0.835106 0.133054 3.46945e-18 0.269999
0.835106 0.141565 3.46945e-18 0.269599
0.835106 0.150386 0 0.269175
0.797951 0.291753 0 0.254505
0.835106 0.159528 3.46945e-18 0.268726
0.715676 0.46022 0 0.230886
0.816529 0.239487 -1.54074e-33 0.261059