# UMean  POINT_DATA 63140
# x  y  z  UMean_x  UMean_y  UMean_z
0 0.1 0 0.961262 0 0.275637
0 0.1 -0.0179898 0.961262 0 0.275637
0 0.1 0.0179898 0.961262 0 0.275637
0.0363518 0.1 0.0179898 0.964185 0.00734655 0.276046
0.0363518 0.1 -0.0179898 0.964148 0.00733758 0.275646
0 0.1 -0.0570102 0.961262 0 0.275637
0 0.1 0.0570102 0.961262 0 0.275637
0.0363518 0.1 0.0570102 0.964185 0.00734655 0.276046
0.0363518 0.1 -0.0570102 0.964148 0.00733758 0.275646
0 0.1 -0.075 0.961262 0 0.275637
0 0.1 0.075 0.961262 0 0.275637
0.075776 0.1 -0.0375 0.967323 0.0154218 0.275653
0.075776 0.1 0.0375 0.9674 0.01544 0.276487
0 0.1 -0.0929898 0.961262 0 0.275637
0 0.1 0.0929898 0.961262 0 0.275637
0.0363518 0.1 -0.0929898 0.964085 0.0073054 0.275249
0.0363518 0.1 0.0929898 0.964181 0.00732933 0.276435
0 0.1 -0.13201 0.961262 0 0.275637
0 0.1 0.13201 0.961262 0 0.275637
0.075776 0.1 -0.1125 0.967193 0.0153567 0.274824
0.075776 0.1 0.1125 0.967394 0.0154046 0.277299
0.0363518 0.1 -0.13201 0.964085 0.0073054 0.275249
0.0363518 0.1 0.13201 0.964181 0.00732933 0.276435
0 0.1 -0.15 0.961262 0 0.275637
0 0.1 0.15 0.961262 0 0.275637
0.150379 0.1 -2.22623e-17 0.969518 0.0147953 0.276118
0 0.1 -0.16799 0.961262 0 0.275637
0 0.1 0.16799 0.961262 0 0.275637
0.150379 0.1 -0.075 0.969597 0.0147532 0.274697
0.150379 0.1 0.075 0.969554 0.0148063 0.277524
0.0363518 0.1 -0.16799 0.964032 0.00727331 0.274857
0.0363518 0.1 0.16799 0.964144 0.00729553 0.276811
0.075776 0.1 -0.1875 0.967084 0.0152919 0.274006
0.075776 0.1 0.1875 0.967317 0.0153362 0.278082
0 0.1 -0.20701 0.961262 0 0.275637
0 0.1 0.20701 0.961262 0 0.275637
0.0363518 0.1 -0.20701 0.964032 0.00727331 0.274857
0.0363518 0.1 0.20701 0.964144 0.00729553 0.276811
0.150379 0.1 -0.15 0.969771 0.0147022 0.27327
0.150379 0.1 0.15 0.969696 0.0147808 0.278915
0.219993 0.1 -0.0375 0.971632 0.014172 0.275176
0.219993 0.1 0.0375 0.971527 0.0142136 0.27715
0 0.1 -0.225 0.961262 0 0.275637
0 0.1 0.225 0.961262 0 0.275637
0 0.1 -0.24299 0.961262 0 0.275637
0 0.1 0.24299 0.961262 0 0.275637
0.0363518 0.1 0.24299 0.964096 0.00725897 0.277167
0.0363518 0.1 -0.24299 0.963998 0.00724589 0.274487
0.219993 0.1 -0.1125 0.972031 0.0141286 0.273182
0.219993 0.1 0.1125 0.971705 0.0142314 0.279102
0.150379 0.1 -0.225 0.969972 0.0146564 0.271881
0.150379 0.1 0.225 0.96992 0.0147282 0.280286
0.075776 0.1 -0.2625 0.967015 0.0152358 0.273235
0.075776 0.1 0.2625 0.96722 0.0152622 0.278824
0 0.1 -0.28201 0.961262 0 0.275637
0 0.1 0.28201 0.961262 0 0.275637
0.0363518 0.1 -0.28201 0.963998 0.00724589 0.274487
0.0363518 0.1 0.28201 0.964096 0.00725897 0.277167
0.287374 0.1 -2.89121e-19 0.968633 0.0137138 0.276002
0.219992 0.1 0.1875 0.972161 0.0142128 0.281067
0.219992 0.1 -0.1875 0.972543 0.0140968 0.271172
0.287374 0.1 -0.075 0.968862 0.0136857 0.273428
0.287374 0.1 0.075 0.968667 0.0137376 0.278551
0 0.1 -0.3 0.961262 0 0.275637
0 0.1 0.3 0.961262 0 0.275637
0 0.1 0.31799 0.961262 0 0.275637
0 0.1 -0.31799 0.961262 0 0.275637
0.0363518 0.1 -0.31799 0.963976 0.00721666 0.274147
0.0363518 0.1 0.31799 0.96406 0.00722519 0.277496
0.287374 0.1 0.15 0.968962 0.0137443 0.281084
0.287374 0.1 -0.15 0.969306 0.013655 0.270843
0.150379 0.1 -0.3 0.970163 0.0146087 0.270575
0.150379 0.1 0.3 0.970167 0.0146618 0.281601
0.219993 0.1 0.2625 0.972749 0.0141621 0.283004
0.219993 0.1 -0.2625 0.972987 0.0140648 0.269266
0.075776 0.1 -0.3375 0.966971 0.0151759 0.272526
0.075776 0.1 0.3375 0.967146 0.0151932 0.27951
0.350249 0.1 -0.0375 0.965861 0.013249 0.274286
0.350249 0.1 0.0375 0.965774 0.0132642 0.27741
0 0.1 -0.35701 0.961262 0 0.275637
0 0.1 0.35701 0.961262 0 0.275637
0.0363518 0.1 -0.35701 0.963976 0.00721666 0.274147
0.0363518 0.1 0.35701 0.96406 0.00722519 0.277496
0.287374 0.1 -0.225 0.969841 0.0136125 0.268315
0.287374 0.1 0.225 0.969485 0.0137179 0.283594
0.350249 0.1 -0.1125 0.966192 0.0132356 0.271132
0.350249 0.1 0.1125 0.965925 0.0132854 0.280505
0 0.1 -0.375 0.961262 0 0.275637
0 0.1 0.375 0.961262 0 0.275637
0 0.1 -0.39299 0.961262 0 0.275637
0 0.1 0.39299 0.961262 0 0.275637
0.0363518 0.1 -0.39299 0.963969 0.00719037 0.273835
0.0363518 0.1 0.39299 0.964034 0.00719407 0.277787
0.350249 0.1 -0.1875 0.966727 0.0132013 0.267998
0.350249 0.1 0.1875 0.966325 0.0132913 0.283574
0.219992 0.1 -0.3375 0.973397 0.0140213 0.267482
0.219992 0.1 0.3375 0.973288 0.0140898 0.284847
0.150379 0.1 0.375 0.970407 0.0145904 0.28283
0.150379 0.1 -0.375 0.970362 0.0145565 0.269366
0.411108 0.1 4.33681e-19 0.960815 0.0135019 0.275462
0.287374 0.1 -0.3 0.970391 0.0135498 0.265923
0.287374 0.1 0.3 0.970129 0.0136535 0.286028
0.411108 0.1 -0.075 0.961059 0.0134859 0.271673
0.411108 0.1 0.075 0.960851 0.0135174 0.27923
0.075776 0.1 -0.4125 0.966958 0.0151225 0.271876
0.075776 0.1 0.4125 0.967095 0.0151296 0.280116
0 0.1 0.43201 0.961262 0 0.275637
0 0.1 -0.43201 0.961262 0 0.275637
0.0363518 0.1 0.43201 0.964034 0.00719407 0.277787
0.0363518 0.1 -0.43201 0.963969 0.00719037 0.273835
0.411108 0.1 -0.15 0.96157 0.0134563 0.26791
0.411108 0.1 0.15 0.96117 0.0135273 0.282956
0.350249 0.1 -0.2625 0.967371 0.0131306 0.264987
0.350249 0.1 0.2625 0.966975 0.0132488 0.286596
0 0.1 -0.45 0.961262 0 0.275637
0 0.1 0.45 0.961262 0 0.275637
0.219992 0.1 0.4125 0.973806 0.0140097 0.286574
0.219992 0.1 -0.4125 0.97382 0.013969 0.265836
0 0.1 -0.46799 0.961262 0 0.275637
0 0.1 0.46799 0.961262 0 0.275637
0.411108 0.1 -0.225 0.962296 0.013395 0.264252
0.411108 0.1 0.225 0.961783 0.0135068 0.286616
0.467897 0.1 -0.0375 0.956081 0.0137289 0.272883
0.467897 0.1 0.0375 0.955961 0.0137421 0.277301
0.0363518 0.1 0.46799 0.964023 0.00716874 0.278045
0.0363518 0.1 -0.46799 0.963981 0.00716641 0.273542
0.287374 0.1 -0.375 0.970957 0.0134652 0.263703
0.287374 0.1 0.375 0.97081 0.0135589 0.288321
0.150379 0.1 0.45 0.970638 0.0145215 0.283936
0.150379 0.1 -0.45 0.970559 0.0145003 0.268263
0.467897 0.1 0.1125 0.95616 0.013755 0.281682
0.467897 0.1 -0.1125 0.956517 0.0137072 0.268475
0.350249 0.1 -0.3375 0.968064 0.013028 0.262167
0.350249 0.1 0.3375 0.967766 0.013157 0.289482
0.075776 0.1 -0.4875 0.966983 0.0150736 0.271266
0.075776 0.1 0.4875 0.967071 0.0150781 0.280655
0.467897 0.1 0.1875 0.956684 0.0137549 0.285986
0.467897 0.1 -0.1875 0.957253 0.0136589 0.264167
0 0.1 -0.50701 0.961262 0 0.275637
0 0.1 0.50701 0.961262 0 0.275637
0.0363518 0.1 -0.50701 0.963981 0.00716641 0.273542
0.0363518 0.1 0.50701 0.964023 0.00716874 0.278045
0.411108 0.1 0.3 0.962654 0.0134371 0.290152
0.411108 0.1 -0.3 0.963163 0.0132926 0.260789
0.522865 0.1 1.41031e-17 0.949651 0.0143404 0.274515
0 0.1 -0.525 0.961262 0 0.275637
0 0.1 0.525 0.961262 0 0.275637
0.522865 0.1 -0.075 0.949992 0.0143128 0.269418
0.522865 0.1 0.075 0.949691 0.0143528 0.279612
0.287374 0.1 0.45 0.971494 0.013442 0.290416
0.287374 0.1 -0.45 0.971512 0.0133594 0.26169
0.219992 0.1 0.4875 0.974264 0.0139304 0.288079
0.219992 0.1 -0.4875 0.974154 0.0138994 0.264375
0.467897 0.1 -0.2625 0.958229 0.0135675 0.26004
0.467897 0.1 0.2625 0.957553 0.0137098 0.290183
0.350249 0.1 -0.4125 0.968789 0.0128914 0.259581
0.350249 0.1 0.4125 0.96863 0.0130245 0.292155
0 0.1 -0.54299 0.961262 0 0.275637
0 0.1 0.54299 0.961262 0 0.275637
0.522865 0.1 0.15 0.950117 0.0143493 0.284643
0.522865 0.1 -0.15 0.950703 0.0142576 0.264405
0.0363518 0.1 0.54299 0.964028 0.00714397 0.278281
0.0363518 0.1 -0.54299 0.964 0.00714103 0.273276
0.150379 0.1 -0.525 0.970744 0.0144371 0.267274
0.150379 0.1 0.525 0.970848 0.0144535 0.284893
0.411108 0.1 -0.375 0.964123 0.0131491 0.257585
0.411108 0.1 0.375 0.963706 0.0133172 0.293481
0.075776 0.1 -0.5625 0.967023 0.0150217 0.270711
0.075776 0.1 0.5625 0.967081 0.0150276 0.281147
0.522865 0.1 -0.225 0.951747 0.0141599 0.259577
0.522865 0.1 0.225 0.950938 0.0143126 0.289553
0.574156 0.1 0.0375 0.943438 0.01493 0.276853
0.574157 0.1 -0.0375 0.943618 0.014908 0.271068
0.467897 0.1 -0.3375 0.959372 0.0134239 0.256189
0.467897 0.1 0.3375 0.958718 0.0136108 0.294176
0 0.1 -0.58201 0.961262 0 0.275637
0 0.1 0.58201 0.961262 0 0.275637
0.0363518 0.1 -0.58201 0.964 0.00714103 0.273276
0.0363518 0.1 0.58201 0.964028 0.00714397 0.278281
0.574157 0.1 -0.1125 0.944241 0.0148557 0.265341
0.574157 0.1 0.1125 0.943702 0.0149315 0.282603
0.287374 0.1 -0.525 0.972047 0.0132379 0.259902
0.287374 0.1 0.525 0.972136 0.0133083 0.292259
0 0.1 -0.6 0.961262 0 0.275637
0 0.1 0.6 0.961262 0 0.275637
0.350249 0.1 0.4875 0.969506 0.0128518 0.294589
0.350249 0.1 -0.4875 0.969509 0.0127306 0.257261
0.522865 0.1 -0.3 0.95306 0.0140087 0.255028
0.522865 0.1 0.3 0.952144 0.0142236 0.294274
0.219992 0.1 -0.5625 0.974483 0.0138182 0.263081
0.219992 0.1 0.5625 0.974638 0.0138412 0.289331
0.574156 0.1 -0.1875 0.945281 0.0147585 0.259785
0.574156 0.1 0.1875 0.944411 0.0149041 0.288236
0.411108 0.1 0.45 0.964861 0.0131481 0.296546
0.411108 0.1 -0.45 0.96514 0.0129716 0.254684
0 0.1 -0.61799 0.961262 0 0.275637
0 0.1 0.61799 0.961262 0 0.275637
0.150379 0.1 -0.6 0.97094 0.0143695 0.266397
0.150379 0.1 0.6 0.971048 0.0143802 0.285711
0.0363518 0.1 -0.61799 0.96402 0.00711714 0.273039
0.0363518 0.1 0.61799 0.964042 0.00711708 0.278492
0.467897 0.1 -0.4125 0.960629 0.0132349 0.25267
0.467897 0.1 0.4125 0.960087 0.0134549 0.297895
0.623803 0.1 2.34188e-17 0.936126 0.0158239 0.273227
0.623803 0.1 0.075 0.936162 0.0158384 0.279729
0.623803 0.1 -0.075 0.936617 0.01577 0.266753
0.574156 0.1 0.2625 0.945584 0.0148311 0.293692
0.574156 0.1 -0.2625 0.946692 0.0146068 0.254512
0.623803 0.1 0.15 0.936728 0.0158152 0.286149
0.623803 0.1 -0.15 0.937621 0.0156658 0.260427
0.075776 0.1 0.6375 0.967111 0.0149728 0.281586
0.075776 0.1 -0.6375 0.967065 0.0149728 0.270219
0.522865 0.1 -0.375 0.954574 0.0138032 0.250837
0.522865 0.1 0.375 0.953671 0.0140737 0.298716
0 0.1 0.65701 0.961262 0 0.275637
0 0.1 -0.65701 0.961262 0 0.275637
0.0363518 0.1 0.65701 0.964042 0.00711708 0.278492
0.0363518 0.1 -0.65701 0.96402 0.00711714 0.273039
0.350249 0.1 0.5625 0.970345 0.0126624 0.296731
0.350249 0.1 -0.5625 0.970246 0.01256 0.255221
0.623803 0.1 0.225 0.937827 0.0157452 0.292396
0.623803 0.1 -0.225 0.939096 0.0155018 0.254375
0.287374 0.1 -0.6 0.972599 0.0131074 0.258336
0.287374 0.1 0.6 0.972742 0.0131647 0.293839
0.574157 0.1 -0.3375 0.948396 0.0143917 0.249607
0.574157 0.1 0.3375 0.947188 0.0146935 0.298883
0.411108 0.1 0.525 0.966052 0.0129411 0.299299
0.411108 0.1 -0.525 0.966197 0.0127721 0.252113
0.67013 0.1 0.0375 0.928852 0.016713 0.27613
0.67013 0.1 -0.0375 0.929127 0.0166717 0.268909
0.219992 0.1 -0.6375 0.97484 0.0137315 0.261945
0.219993 0.1 0.6375 0.975008 0.0137447 0.290386
0 0.1 -0.675 0.961262 0 0.275637
0 0.1 0.675 0.961262 0 0.275637
0.467897 0.1 -0.4875 0.961968 0.0130135 0.249527
0.467897 0.1 0.4875 0.961575 0.0132409 0.301286
0.67013 0.1 -0.1125 0.930009 0.0165729 0.261797
0.67013 0.1 0.1125 0.929191 0.0167055 0.283327
0.522865 0.1 0.45 0.955427 0.0138605 0.302806
0.522865 0.1 -0.45 0.956237 0.0135533 0.247063
0.150379 0.1 0.675 0.971258 0.0143024 0.286405
0.150379 0.1 -0.675 0.971147 0.0143017 0.265635
0.623803 0.1 0.3 0.939451 0.0156131 0.298385
0.623803 0.1 -0.3 0.940974 0.0152709 0.248704
0 0.1 -0.69299 0.961262 0 0.275637
0 0.1 0.69299 0.961262 0 0.275637
0.0363518 0.1 -0.69299 0.964037 0.00709672 0.272837
0.0363518 0.1 0.69299 0.964059 0.00709078 0.278672
0.67013 0.1 -0.1875 0.931467 0.0164066 0.254937
0.67013 0.1 0.1875 0.930136 0.0166471 0.290376
0.574156 0.1 0.4125 0.949136 0.0144883 0.303702
0.574157 0.1 -0.4125 0.950322 0.0141203 0.245155
0.714971 0.1 -2.8382e-17 0.920802 0.0178688 0.271653
0.075776 0.1 -0.7125 0.9671 0.0149312 0.269797
0.075776 0.1 0.7125 0.967146 0.0149191 0.28196
0.714971 0.1 -0.075 0.921492 0.0177746 0.263732
0.714971 0.1 0.075 0.920822 0.0178931 0.279635
0.67013 0.1 0.2625 0.931693 0.0165272 0.297175
0.67013 0.1 -0.2625 0.93344 0.0161687 0.248465
0.411108 0.1 -0.6 0.967296 0.0125582 0.249886
0.411108 0.1 0.6 0.967241 0.012715 0.3017
0.350249 0.1 0.6375 0.971165 0.0124678 0.298565
0.350249 0.1 -0.6375 0.971015 0.0123807 0.253459
0.623803 0.1 0.375 0.941539 0.0154083 0.304007
0.623803 0.1 -0.375 0.943179 0.0149736 0.243507
0.714971 0.1 -0.15 0.922871 0.0176034 0.256026
0.714971 0.1 0.15 0.921552 0.017851 0.287528
0.467897 0.1 -0.5625 0.963373 0.0127713 0.246782
0.467897 0.1 0.5625 0.963106 0.0129912 0.304292
0 0.1 -0.73201 0.961262 0 0.275637
0 0.1 0.73201 0.961262 0 0.275637
0.0363518 0.1 0.73201 0.964059 0.00709078 0.278672
0.0363518 0.1 -0.73201 0.964037 0.00709672 0.272837
0.287374 0.1 -0.675 0.973178 0.0129699 0.256993
0.287374 0.1 0.675 0.973348 0.013015 0.295173
0.522865 0.1 -0.525 0.958014 0.0132724 0.243745
0.522865 0.1 0.525 0.957322 0.0135926 0.306483
0.219993 0.1 -0.7125 0.975221 0.0136397 0.260974
0.219992 0.1 0.7125 0.975399 0.0136407 0.29127
0.714971 0.1 -0.225 0.924886 0.0173471 0.248689
0.714971 0.1 0.225 0.922983 0.0177387 0.295198
0 0.1 0.75 0.961262 0 0.275637
0 0.1 -0.75 0.961262 0 0.275637
0.67013 0.1 -0.3375 0.935844 0.0158535 0.242469
0.67013 0.1 0.3375 0.933837 0.0163316 0.303637
0.574156 0.1 -0.4875 0.952424 0.0138061 0.241208
0.574157 0.1 0.4875 0.95133 0.0142128 0.308092
0.756813 0.1 0.0375 0.912685 0.0190377 0.275181
0.756814 0.1 -0.0375 0.913084 0.0189646 0.26645
0.150379 0.1 0.746002 0.971388 0.0142385 0.286867
0.150379 0.1 -0.75 0.971359 0.0142345 0.264994
0.756813 0.1 -0.1125 0.914282 0.0188029 0.25788
0.756813 0.1 0.1125 0.913101 0.0190274 0.283908
0 0.1 0.76799 0.961262 0 0.275637
0 0.1 -0.76799 0.961262 0 0.275637
0.0363518 0.1 0.76799 0.964074 0.00706759 0.278818
0.0363518 0.1 -0.76799 0.96405 0.00707886 0.27267
0.623803 0.1 -0.45 0.94564 0.0146216 0.238865
0.623803 0.1 0.45 0.943993 0.0151288 0.309172
0.714971 0.1 -0.3 0.927456 0.0170061 0.241851
0.714971 0.1 0.3 0.925102 0.0175464 0.302531
0.756814 0.1 -0.1875 0.916247 0.0185476 0.249645
0.756814 0.1 0.1875 0.914314 0.0189357 0.292456
0.67013 0.1 -0.4125 0.938601 0.0154701 0.237074
0.67013 0.1 0.4125 0.936473 0.0160531 0.309612
0.411108 0.1 0.675 0.96843 0.0124788 0.303734
0.411108 0.1 -0.675 0.968429 0.0123331 0.248006
0.467897 0.1 0.6375 0.964644 0.0127235 0.306878
0.467897 0.1 -0.6375 0.96483 0.0125108 0.244446
0.075776 0.1 0.7875 0.967177 0.0148718 0.282265
0.075776 0.1 -0.7875 0.967127 0.0148948 0.269449
0.350249 0.1 -0.7125 0.971807 0.0121928 0.251982
0.350249 0.1 0.7125 0.97199 0.0122683 0.300095
0.522865 0.1 -0.6 0.959873 0.0129692 0.240902
0.522865 0.1 0.6 0.959283 0.0132896 0.309697
0.797314 0.1 -3.59473e-17 0.904125 0.0205056 0.269847
0.287374 0.1 0.746002 0.973964 0.0128799 0.296139
0.797314 0.1 -0.075 0.90506 0.0203554 0.260408
0.797314 0.1 0.075 0.904111 0.0205498 0.279383
0.756814 0.1 -0.2625 0.918891 0.0181857 0.241904
0.756814 0.1 0.2625 0.916313 0.0187583 0.30069
0.287374 0.1 -0.75 0.973772 0.0128272 0.255879
0.574156 0.1 -0.5625 0.954654 0.0134643 0.2378
0.574156 0.1 0.5625 0.953668 0.0138835 0.311979
0 0.1 0.80701 0.961262 0 0.275637
0 0.1 -0.80701 0.961262 0 0.275637
0.714971 0.1 -0.375 0.930492 0.0165867 0.23563
0.714971 0.1 0.375 0.927846 0.0172646 0.309405
0.0363518 0.1 0.80701 0.964074 0.00706759 0.278818
0.0363518 0.1 -0.80701 0.96405 0.00707886 0.27267
0.797314 0.1 -0.15 0.906888 0.020093 0.251252
0.797314 0.1 0.15 0.905019 0.0204919 0.288825
0.623803 0.1 -0.525 0.948294 0.0142308 0.234823
0.623803 0.1 0.525 0.946705 0.014781 0.313808
0.219992 0.1 0.7875 0.975802 0.0135316 0.291989
0.219992 0.1 -0.7875 0.975607 0.0135433 0.260175
0.149792 0.1 0.80701 0.971636 0.0141656 0.287333
0 0.1 0.825 0.961262 0 0.275637
0 0.1 -0.825 0.961262 0 0.275637
0.797314 0.1 -0.225 0.909545 0.019713 0.242568
0.797314 0.1 0.225 0.906828 0.0203311 0.297997
0.756813 0.1 -0.3375 0.922124 0.017741 0.234803
0.756813 0.1 0.3375 0.919073 0.0184844 0.308482
0.67013 0.1 0.4875 0.939484 0.0156973 0.315047
0.67013 0.1 -0.4875 0.941627 0.0150355 0.232332
0.835106 0.1 -0.0375 0.895909 0.0218992 0.263753
0.835106 0.1 0.0375 0.895349 0.0220178 0.274061
0.150379 0.1 -0.825 0.971565 0.0141689 0.264477
0.835106 0.1 -0.1125 0.897482 0.0216538 0.253654
0.835106 0.1 0.1125 0.895837 0.0220124 0.284389
0 0.1 -0.84299 0.961262 0 0.275637
0 0.1 0.84299 0.961262 0 0.275637
0.0363518 0.1 -0.84299 0.964059 0.00706367 0.272538
0.0363518 0.1 0.84299 0.964085 0.00704777 0.27893
0.714971 0.1 -0.45 0.933898 0.0161019 0.230116
0.714971 0.1 0.45 0.931101 0.0168938 0.315697
0.411108 0.1 0.746002 0.969613 0.0122458 0.305247
0.797314 0.1 -0.3 0.91293 0.0192274 0.234528
0.797314 0.1 0.3 0.909509 0.0200607 0.306747
0.467897 0.1 -0.7125 0.966317 0.0122417 0.242523
0.467897 0.1 0.7125 0.966185 0.012444 0.309037
0.522865 0.1 0.675 0.961269 0.0129663 0.312419
0.522865 0.1 -0.675 0.961783 0.0126504 0.238545
0.411108 0.1 -0.75 0.969579 0.0121013 0.246476
0.835106 0.1 -0.1875 0.900046 0.0212703 0.24398
0.835107 0.1 0.1875 0.897347 0.0218884 0.294507
0.286844 0.1 0.80701 0.97444 0.012741 0.29695
0.574156 0.1 0.6375 0.956074 0.0135216 0.31532
0.574157 0.1 -0.6375 0.956967 0.0130999 0.234944
0.350249 0.1 -0.7875 0.972606 0.0120024 0.25079
0.350249 0.1 0.7875 0.972818 0.012064 0.301329
0.756813 0.1 -0.4125 0.925844 0.0172113 0.228444
0.756814 0.1 0.4125 0.922486 0.0181082 0.315704
0.623803 0.1 -0.6 0.951079 0.0138124 0.23141
0.623803 0.1 0.6 0.949572 0.014381 0.317848
0.075776 0.1 0.8625 0.967202 0.0148314 0.282497
0.075776 0.1 -0.8625 0.967147 0.014864 0.269174
0.871687 0.1 -3.2767e-18 0.886539 0.0236986 0.267852
0.287374 0.1 -0.825 0.974364 0.0126824 0.254992
0.871687 0.1 -0.075 0.887748 0.0234714 0.256834
0.871687 0.1 0.075 0.886478 0.023775 0.279003
0.67013 0.1 -0.5625 0.94485 0.0145674 0.228288
0.67013 0.1 0.5625 0.942757 0.0152704 0.319842
0.835106 0.1 0.2625 0.899847 0.0216403 0.304249
0.835106 0.1 -0.2625 0.903478 0.0207552 0.234936
0.797314 0.1 -0.375 0.916934 0.0186495 0.227261
0.797314 0.1 0.375 0.912993 0.0196763 0.314931
0 0.1 -0.88201 0.961262 0 0.275637
0 0.1 0.88201 0.961262 0 0.275637
0.0363518 0.1 0.88201 0.964085 0.00704777 0.27893
0.0363518 0.1 -0.88201 0.964059 0.00706367 0.272538
0.871687 0.1 0.15 0.887573 0.0237038 0.29006
0.871687 0.1 -0.15 0.890075 0.023088 0.246169
0.714971 0.1 0.525 0.934742 0.0164414 0.321321
0.714971 0.1 -0.525 0.93758 0.0155712 0.225368
0.219993 0.1 0.8625 0.976204 0.013421 0.292552
0.219992 0.1 -0.8625 0.975983 0.0134473 0.259548
0 0.1 0.9 0.961262 0 0.275637
0 0.1 -0.9 0.961262 0 0.275637
0.756813 0.1 0.4875 0.926418 0.0176392 0.322204
0.756814 0.1 -0.4875 0.929932 0.0166254 0.222914
0.871687 0.1 0.225 0.889788 0.0234864 0.300798
0.871687 0.1 -0.225 0.893446 0.0225514 0.236096
0.835106 0.1 -0.3375 0.907683 0.0201399 0.226696
0.835106 0.1 0.3375 0.903296 0.021261 0.313434
0.41063 0.1 0.80701 0.97053 0.0120475 0.306434
0.90582 0.1 -0.0375 0.87806 0.0252924 0.260855
0.905821 0.1 0.0375 0.877329 0.025476 0.272792
0.522865 0.1 0.746002 0.96323 0.0126409 0.314464
0.150379 0.1 0.9 0.971908 0.0140715 0.287782
0.90582 0.1 0.1125 0.877889 0.025484 0.28478
0.905821 0.1 -0.1125 0.880022 0.0249337 0.249174
0.522865 0.1 -0.75 0.963705 0.0123231 0.236671
0.574156 0.1 0.7125 0.958498 0.0131415 0.318096
0.574156 0.1 -0.7125 0.959313 0.0127232 0.232647
0.797314 0.1 -0.45 0.921429 0.0179932 0.220869
0.797314 0.1 0.45 0.917152 0.0191826 0.322397
0.467897 0.1 -0.7875 0.967807 0.0119656 0.241011
0.467897 0.1 0.7875 0.967725 0.0121572 0.310768
0.150379 0.1 -0.903998 0.971842 0.0140957 0.264005
0 0.1 0.91799 0.961262 0 0.275637
0 0.1 -0.91799 0.961262 0 0.275637
0.0363518 0.1 0.91799 0.964093 0.00703123 0.279006
0.0363518 0.1 -0.91799 0.964065 0.00705007 0.27244
0.623803 0.1 0.675 0.952509 0.0139488 0.321257
0.623803 0.1 -0.675 0.953933 0.013376 0.228634
0.411108 0.1 -0.825 0.97072 0.0118668 0.24529
0.871687 0.1 0.3 0.893072 0.02312 0.311024
0.871687 0.1 -0.3 0.897738 0.021883 0.226819
0.67013 0.1 -0.6375 0.948189 0.0140729 0.224962
0.67013 0.1 0.6375 0.946172 0.0147927 0.323948
0.90582 0.1 -0.1875 0.883219 0.024392 0.238012
0.90582 0.1 0.1875 0.879705 0.0253207 0.296528
0.350249 0.1 0.8625 0.973636 0.0118569 0.302275
0.350249 0.1 -0.8625 0.973392 0.0118102 0.249875
0.835106 0.1 -0.4125 0.912508 0.0194237 0.219359
0.835106 0.1 0.4125 0.907587 0.0207563 0.321932
0.714971 0.1 -0.6 0.941446 0.0150096 0.221421
0.714971 0.1 0.6 0.938634 0.0159208 0.326206
0.93886 0.1 -1.15648e-17 0.868347 0.027699 0.265713
0.075776 0.1 0.9375 0.967218 0.0147978 0.282656
0.075776 0.1 -0.9375 0.96716 0.0148363 0.268969
0.93886 0.1 0.075 0.868221 0.0278226 0.278569
0.93886 0.1 -0.075 0.86986 0.0273669 0.25303
0.756813 0.1 0.5625 0.930733 0.0170859 0.327935
0.756814 0.1 -0.5625 0.934289 0.0159968 0.218262
0.905821 0.1 -0.2625 0.887492 0.0236908 0.227639
0.905821 0.1 0.2625 0.882726 0.0249883 0.30783
0.287374 0.1 0.9 0.975186 0.0125419 0.29779
0.287374 0.1 -0.903998 0.974859 0.0125323 0.254272
0.871687 0.1 0.375 0.897348 0.0226072 0.320564
0.871687 0.1 -0.375 0.902805 0.0211015 0.21848
0.93886 0.1 -0.15 0.872741 0.0268244 0.240774
0.93886 0.1 0.15 0.869509 0.0277376 0.291329
0.797314 0.1 0.525 0.921829 0.0185907 0.329036
0.797314 0.1 -0.525 0.92629 0.0172816 0.215431
0 0.1 0.95701 0.961262 0 0.275637
0 0.1 -0.95701 0.961262 0 0.275637
0.0363518 0.1 0.95701 0.964093 0.00703123 0.279006
0.0363518 0.1 -0.95701 0.964065 0.00705007 0.27244
0.522433 0.1 0.80701 0.964769 0.0123709 0.316012
0.219992 0.1 0.9375 0.976586 0.0133127 0.292951
0.219992 0.1 -0.9375 0.976339 0.0133489 0.259088
0.93886 0.1 0.225 0.872156 0.0274489 0.303714
0.93886 0.1 -0.225 0.876908 0.026085 0.229238
0.90582 0.1 0.3375 0.886879 0.0244855 0.318463
0.905821 0.1 -0.3375 0.892723 0.0228545 0.218219
0.835106 0.1 -0.4875 0.917821 0.0186364 0.213047
0.835107 0.1 0.4875 0.912555 0.0201358 0.329542
0.969689 0.1 -0.0375 0.8597 0.0298136 0.257785
0.969689 0.1 0.0375 0.858746 0.0300855 0.271471
0.61613 0.1 0.75 0.95546 0.0134988 0.324023
0.574156 0.1 -0.7875 0.961647 0.0123406 0.230895
0.574156 0.1 0.7875 0.960912 0.0127503 0.320308
0 0.1 0.975 0.961262 0 0.275637
0 0.1 -0.975 0.961262 0 0.275637
0.623803 0.1 -0.75 0.956794 0.0129309 0.226488
0.969689 0.1 -0.1125 0.862099 0.0293026 0.244401
0.969689 0.1 0.1125 0.859371 0.0301151 0.285241
0.522865 0.1 -0.825 0.965605 0.0119923 0.235267
0.67013 0.1 0.7125 0.94964 0.014288 0.327336
0.67013 0.1 -0.7125 0.951569 0.0135679 0.222353
0.871687 0.1 -0.45 0.908486 0.0202278 0.211206
0.871687 0.1 0.45 0.902475 0.0219578 0.329245
0.467897 0.1 0.8625 0.969247 0.011866 0.312087
0.467897 0.1 -0.8625 0.969267 0.0116896 0.239895
0.714971 0.1 -0.675 0.945397 0.0144304 0.218283
0.714971 0.1 0.675 0.942653 0.0153541 0.330304
0.93886 0.1 -0.3 0.882194 0.0251772 0.218644
0.93886 0.1 0.3 0.876092 0.0269618 0.31549
0.150379 0.1 0.975 0.972103 0.0140015 0.288006
0.150379 0.1 -0.975 0.971942 0.0140406 0.263804
0.969689 0.1 -0.1875 0.866048 0.0285487 0.231643
0.969689 0.1 0.1875 0.861515 0.0299014 0.298732
0.411108 0.1 0.9 0.971965 0.0117377 0.307684
0.756813 0.1 0.6375 0.935263 0.0164663 0.332813
0.756814 0.1 -0.6375 0.938793 0.0153469 0.214513
0.990306 0.1 -2.19732e-17 0.853922 0.0312139 0.26395
0 0.1 0.99299 0.961262 0 0.275637
0 0.1 -0.99299 0.961262 0 0.275637
0.411108 0.1 -0.903998 0.971684 0.0116517 0.244389
0.990306 0.1 -0.075 0.855685 0.0307887 0.249968
0.990306 0.1 0.075 0.853745 0.0313837 0.278136
0.0363518 0.1 0.99299 0.964097 0.00701735 0.279049
0.0363518 0.1 -0.99299 0.964069 0.00703724 0.272375
0.90582 0.1 -0.4125 0.8987 0.0219029 0.20989
0.905821 0.1 0.4125 0.892068 0.0238253 0.328271
0.797314 0.1 -0.6 0.931385 0.0165365 0.210986
0.797314 0.1 0.6 0.926858 0.017915 0.334776
0.350249 0.1 0.9375 0.974431 0.0116518 0.302947
0.350249 0.1 -0.9375 0.974151 0.0116151 0.249227
0.990306 0.1 0.15 0.855191 0.031294 0.292228
0.990306 0.1 -0.15 0.859021 0.0301073 0.23646
0.969689 0.1 -0.2625 0.871279 0.0275941 0.219831
0.969689 0.1 0.2625 0.865113 0.0294579 0.311693
0.835106 0.1 -0.5625 0.92347 0.0177988 0.207811
0.835106 0.1 0.5625 0.918016 0.0194162 0.336224
0.93886 0.1 -0.375 0.888425 0.0241285 0.209161
0.93886 0.1 0.375 0.881222 0.0262859 0.326445
0.075776 0.1 1.0125 0.967227 0.0147695 0.282746
0.075776 0.1 -1.0125 0.967169 0.0148101 0.268834
0.990306 0.1 -0.225 0.863843 0.0291913 0.223769
0.990306 0.1 0.225 0.858193 0.030951 0.305903
0.287374 0.1 0.975 0.975763 0.0123854 0.298224
0.287374 0.1 -0.975 0.975485 0.012387 0.253874
0.871687 0.1 -0.525 0.914625 0.0192916 0.205091
0.871687 0.1 0.525 0.908261 0.0211875 0.33693
1.02149 0.1 -0.0369628 0.843691 0.0338254 0.25511
1.02149 0.1 0.0369628 0.842594 0.0341772 0.269998
0.969689 0.1 -0.3375 0.87766 0.026462 0.209094
0.969689 0.1 0.3375 0.870067 0.0287915 0.323861
1.02149 0.1 -0.110888 0.846414 0.0331949 0.240536
1.02149 0.1 0.110888 0.843264 0.0342437 0.285011
0.90582 0.1 0.4875 0.8981 0.023018 0.337044
0.90582 0.1 -0.4875 0.905276 0.0208703 0.202796
0.623803 0.1 0.819003 0.957511 0.0131683 0.326477
0 0.1 1.03201 0.961262 0 0.275637
0 0.1 -1.03201 0.961262 0 0.275637
0.0363518 0.1 1.03201 0.964097 0.00701735 0.279049
0.0363518 0.1 -1.03201 0.964069 0.00703724 0.272375
0.67013 0.1 -0.7875 0.954915 0.0130569 0.220436
0.67013 0.1 0.7875 0.953097 0.0137691 0.330007
0.623803 0.1 -0.825 0.959606 0.0124835 0.224948
0.990306 0.1 -0.3 0.869943 0.0280759 0.212126
0.990306 0.1 0.3 0.862665 0.0303665 0.318895
0.219992 0.1 -1.0125 0.976673 0.0132478 0.258787
0.219993 0.1 1.0125 0.976942 0.0132065 0.293192
0.574156 0.1 0.8625 0.963287 0.0123524 0.321973
0.574157 0.1 -0.8625 0.963928 0.0119562 0.229665
0.714971 0.1 -0.75 0.949342 0.0138441 0.215936
0.714971 0.1 0.75 0.946704 0.0147629 0.3336
1.02149 0.1 0.184814 0.845633 0.0340178 0.299735
1.02149 0.1 -0.184814 0.850883 0.0322785 0.226622
0.756814 0.1 -0.7125 0.943335 0.0146855 0.211657
0.756814 0.1 0.7125 0.939886 0.0158068 0.33681
0.522865 0.1 0.9 0.967154 0.0119425 0.317644
0.93886 0.1 -0.45 0.895413 0.0229715 0.200966
0.93886 0.1 0.45 0.88739 0.0254354 0.336395
1.04168 0.1 0 0.836442 0.0358822 0.261742
1.04168 0.1 -0.0729162 0.83842 0.0353507 0.246575
1.04168 0.1 0.0729162 0.8362 0.0361167 0.277138
0.522865 0.1 -0.903998 0.967219 0.0116958 0.234267
0.797314 0.1 -0.675 0.936577 0.0157787 0.207537
0.797314 0.1 0.675 0.93208 0.0171781 0.339559
0.467897 0.1 0.9375 0.970721 0.0115752 0.313009
0.467897 0.1 -0.9375 0.97067 0.0114101 0.239149
0 0.1 1.05 0.961262 0 0.275637
0 0.1 -1.05 0.961262 0 0.275637
0.835106 0.1 -0.6375 0.929301 0.0169413 0.203681
0.835106 0.1 0.6375 0.923792 0.0186119 0.341869
1.04168 0.1 -0.145832 0.842126 0.034519 0.23189
1.04168 0.1 0.145832 0.83773 0.0360443 0.29246
1.02149 0.1 -0.25874 0.856796 0.031132 0.213753
1.02149 0.1 0.25874 0.849628 0.0335169 0.313897
0.969689 0.1 -0.4125 0.884968 0.0251948 0.199674
0.969689 0.1 0.4125 0.876267 0.0279222 0.335037
0.411108 0.1 0.975 0.973079 0.0114905 0.308325
0.411108 0.1 -0.975 0.97289 0.0113919 0.243884
0.871687 0.1 -0.6 0.921049 0.0183246 0.200179
0.871687 0.1 0.6 0.9145 0.0203159 0.34353
1.0579 0.1 -0.0360525 0.831791 0.0371963 0.253137
1.0579 0.1 0.0360525 0.830599 0.0376106 0.26878
0.990306 0.1 -0.375 0.877144 0.0267952 0.201743
0.990306 0.1 0.375 0.868494 0.0295555 0.330963
0.150379 0.1 1.05 0.97228 0.0139346 0.288119
0.150379 0.1 -1.05 0.972111 0.0139769 0.263638
1.0579 0.1 0.108157 0.831227 0.037711 0.284575
1.0579 0.1 -0.108157 0.834692 0.0364768 0.23781
1.04168 0.1 -0.218749 0.847469 0.0334135 0.218081
1.04168 0.1 0.218749 0.84096 0.0356699 0.307351
0.90582 0.1 -0.5625 0.91226 0.0197902 0.196997
0.90582 0.1 0.5625 0.904753 0.0220898 0.344689
0 0.1 -1.06799 0.961262 0 0.275637
0 0.1 1.06799 0.961262 0 0.275637
0.0363518 0.1 -1.06799 0.964073 0.00702639 0.272342
0.0363518 0.1 1.06799 0.964098 0.00700506 0.27906
0.350249 0.1 1.0125 0.975189 0.0114496 0.30336
0.350249 0.1 -1.0125 0.974877 0.0114185 0.248831
1.0579 0.1 -0.180262 0.839381 0.0354392 0.223152
1.0579 0.1 0.180262 0.833614 0.0374862 0.300083
1.02149 0.1 -0.332665 0.864026 0.0297787 0.202039
1.02149 0.1 0.332665 0.855133 0.0327527 0.327216
0.93886 0.1 -0.525 0.90296 0.0217438 0.19418
0.93886 0.1 0.525 0.894371 0.0244315 0.34517
1.08012 0.1 5.49329e-18 0.823459 0.0398176 0.259989
1.04168 0.1 -0.291665 0.854238 0.032077 0.205396
1.04168 0.1 0.291665 0.845793 0.0350091 0.321531
1.08012 0.1 0.0709941 0.823149 0.040106 0.276202
1.08012 0.1 -0.0709941 0.825575 0.0392032 0.244018
0.969689 0.1 -0.4875 0.893024 0.0238266 0.191763
0.96969 0.1 0.4875 0.883493 0.0268629 0.345045
1.0579 0.1 0.252367 0.837687 0.036956 0.315026
1.0579 0.1 -0.252367 0.845586 0.0341501 0.209589
0.990306 0.1 -0.45 0.885234 0.0253889 0.192834
0.990306 0.1 0.45 0.87551 0.0285353 0.341915
0.287374 0.1 -1.05 0.976003 0.0122381 0.253618
0.287374 0.1 1.05 0.976306 0.0122309 0.298456
0.714971 0.1 0.821002 0.950361 0.0142171 0.336061
1.08012 0.1 -0.141988 0.829485 0.0382568 0.228531
1.08012 0.1 0.141988 0.82467 0.040056 0.292357
0.075776 0.1 1.0875 0.967231 0.0147445 0.282769
0.075776 0.1 -1.0875 0.967177 0.014788 0.268765
0.714971 0.1 -0.825 0.953198 0.0132606 0.214343
0.756813 0.1 -0.7875 0.94781 0.0140229 0.209657
0.756814 0.1 0.7875 0.944503 0.0151305 0.33992
0.67013 0.1 -0.8625 0.958164 0.0125504 0.219178
0.67013 0.1 0.8625 0.95649 0.0132458 0.331986
0.797314 0.1 -0.75 0.941735 0.0150219 0.205057
0.797314 0.1 0.75 0.937359 0.0164081 0.343368
0.623803 0.1 0.9 0.961223 0.0125792 0.327688
0.835106 0.1 -0.7125 0.935151 0.0160853 0.200631
0.835106 0.1 0.7125 0.92971 0.0177539 0.346457
0.623803 0.1 -0.903998 0.962004 0.0120903 0.223931
0.574156 0.1 0.9375 0.965584 0.0119547 0.323114
0.574156 0.1 -0.9375 0.966113 0.0115751 0.228918
1.02149 0.1 -0.406591 0.872349 0.0282664 0.19186
1.02149 0.1 0.406591 0.862014 0.0317481 0.339463
1.08012 0.1 -0.212982 0.835091 0.0370081 0.213947
1.08012 0.1 0.212982 0.827952 0.0396714 0.308081
1.10076 0.1 -0.0349809 0.816544 0.0419767 0.250766
1.10076 0.1 0.0349809 0.815265 0.0424682 0.267346
0.871687 0.1 -0.675 0.927576 0.0173509 0.196474
0.871687 0.1 0.675 0.920991 0.0193686 0.348988
1.04168 0.1 -0.364581 0.862263 0.0305452 0.194087
1.04168 0.1 0.364581 0.852107 0.03408 0.334737
1.10076 0.1 -0.104943 0.819627 0.0411478 0.23449
1.10076 0.1 0.104943 0.815882 0.0426126 0.284118
0.522865 0.1 0.975 0.969002 0.0115997 0.318462
0.522865 0.1 -0.975 0.969197 0.0113321 0.233759