# UMean  POINT_DATA 63840
# x  y  z  UMean_x  UMean_y  UMean_z
0 0.5 3.39583e-17 0.961262 0 0.275637
0 0.5 -0.00617931 0.961262 0 0.275637
0 0.5 0.00617931 0.961262 0 0.275637
0.0124865 0.5 -0.00617931 0.961232 0.000901944 0.275647
0.0124865 0.5 0.00617931 0.961233 0.000901939 0.275766
0 0.5 -0.0688207 0.961262 0 0.275637
0 0.5 0.0688207 0.961262 0 0.275637
0.0124865 0.5 -0.0688207 0.961232 0.000901944 0.275647
0.0124865 0.5 0.0688207 0.961233 0.000901939 0.275766
0 0.5 -0.075 0.961262 0 0.275637
0 0.5 0.075 0.961262 0 0.275637
0 0.5 -0.0811793 0.961262 0 0.275637
0 0.5 0.0811793 0.961262 0 0.275637
0.0124865 0.5 -0.0811793 0.961231 0.000898785 0.275528
0.0124865 0.5 0.0811793 0.961233 0.000898412 0.275884
0.075776 0.5 -0.0375 0.961058 0.00546583 0.275699
0.075776 0.5 0.0375 0.96106 0.00546559 0.276417
0.075776 0.5 -0.1125 0.96105 0.00544665 0.274981
0.075776 0.5 0.1125 0.961062 0.00544416 0.277131
0 0.5 -0.143821 0.961262 0 0.275637
0 0.5 0.143821 0.961262 0 0.275637
0.0124865 0.5 -0.143821 0.961231 0.000898785 0.275528
0.0124865 0.5 0.143821 0.961233 0.000898412 0.275884
0 0.5 -0.15 0.961262 0 0.275637
0 0.5 0.15 0.961262 0 0.275637
0.151149 0.5 -0.00137318 0.959894 0.00915114 0.276249
0 0.5 -0.156179 0.961262 0 0.275637
0 0.5 0.156179 0.961262 0 0.275637
0.0124865 0.5 -0.156179 0.961233 0.000891865 0.27541
0.0124865 0.5 0.156179 0.961235 0.000891132 0.275999
0.151149 0.5 0.075 0.959901 0.00916358 0.277479
0.151149 0.5 -0.075 0.959883 0.00915682 0.274928
0.075776 0.5 -0.1875 0.961057 0.00540486 0.274266
0.075776 0.5 0.1875 0.961073 0.00540009 0.277826
0.151149 0.5 0.15 0.959936 0.00911502 0.278733
0.151149 0.5 -0.15 0.959902 0.00910189 0.273668
0 0.5 -0.218821 0.961262 0 0.275637
0 0.5 0.218821 0.961262 0 0.275637
0.0124865 0.5 -0.218821 0.961233 0.000891865 0.27541
0.0124865 0.5 0.218821 0.961235 0.000891132 0.275999
0.219992 0.5 0.0375 0.958797 0.0126493 0.277247
0.219993 0.5 -0.0375 0.958784 0.0126429 0.275437
0 0.5 -0.225 0.961262 0 0.275637
0 0.5 0.225 0.961262 0 0.275637
0 0.5 -0.231179 0.961262 0 0.275637
0 0.5 0.231179 0.961262 0 0.275637
0.0124865 0.5 -0.231179 0.961235 0.000881359 0.275297
0.0124865 0.5 0.231179 0.961238 0.000880476 0.27611
0.219992 0.5 0.1125 0.958838 0.0126096 0.279032
0.219993 0.5 -0.1125 0.958795 0.0125873 0.273649
0.151149 0.5 -0.225 0.959951 0.00901399 0.272443
0.151149 0.5 0.225 0.959995 0.00903194 0.279947
0.075776 0.5 -0.2625 0.961074 0.00534135 0.273585
0.075776 0.5 0.2625 0.96109 0.00533539 0.278492
0.288069 0.5 -0.00137318 0.955959 0.0160533 0.276346
0.219992 0.5 0.1875 0.958921 0.0125227 0.28078
0.219993 0.5 -0.1875 0.958858 0.0124873 0.271898
0 0.5 0.293821 0.961262 0 0.275637
0 0.5 -0.293821 0.961262 0 0.275637
0.0124865 0.5 -0.293821 0.961235 0.000881359 0.275297
0.0124865 0.5 0.293821 0.961238 0.000880476 0.27611
0.288069 0.5 -0.075 0.955952 0.0160306 0.273895
0.288069 0.5 0.075 0.955987 0.0160607 0.278632
0 0.5 -0.3 0.961262 0 0.275637
0 0.5 0.3 0.961262 0 0.275637
0 0.5 0.306179 0.961262 0 0.275637
0 0.5 -0.306179 0.961262 0 0.275637
0.0124865 0.5 -0.306179 0.961238 0.000867965 0.27519
0.0124865 0.5 0.306179 0.961242 0.000866666 0.276213
0.288069 0.5 -0.15 0.956042 0.0159229 0.27157
0.288069 0.5 0.15 0.956106 0.0159824 0.280964
0.151149 0.5 -0.3 0.960022 0.00889594 0.271275
0.151149 0.5 0.3 0.960077 0.00891646 0.281102
0.219992 0.5 -0.2625 0.958964 0.0123456 0.270214
0.219992 0.5 0.2625 0.959042 0.0123898 0.282457
0.075776 0.5 0.3375 0.961114 0.00525153 0.279118
0.075776 0.5 -0.3375 0.961092 0.00526031 0.272941
0.350249 0.5 -0.0375 0.953253 0.0192801 0.27473
0.350249 0.5 0.0375 0.953274 0.0193025 0.277648
0.288069 0.5 -0.225 0.956211 0.0157591 0.269317
0.288069 0.5 0.225 0.956297 0.0158435 0.283228
0.350249 0.5 0.1125 0.953395 0.0192478 0.280542
0.350249 0.5 -0.1125 0.953333 0.0191804 0.271845
0 0.5 0.368821 0.961262 0 0.275637
0 0.5 -0.368821 0.961262 0 0.275637
0.0124865 0.5 -0.368821 0.961238 0.000867965 0.27519
0.0124865 0.5 0.368821 0.961242 0.000866666 0.276213
0 0.5 -0.375 0.961262 0 0.275637
0 0.5 0.375 0.961262 0 0.275637
0 0.5 -0.381179 0.961262 0 0.275637
0 0.5 0.381179 0.961262 0 0.275637
0.0124865 0.5 -0.381179 0.961242 0.00085211 0.275091
0.0124865 0.5 0.381179 0.961247 0.000850131 0.276309
0.350249 0.5 -0.1875 0.953529 0.0190087 0.269036
0.350249 0.5 0.1875 0.953618 0.019118 0.283373
0.219992 0.5 -0.3375 0.959099 0.0121656 0.268617
0.219992 0.5 0.3375 0.959197 0.0122147 0.284044
0.151149 0.5 -0.375 0.96011 0.00875111 0.270177
0.151149 0.5 0.375 0.960178 0.00877139 0.282185
0.411736 0.5 -0.00137318 0.949232 0.0226039 0.276032
0.288069 0.5 -0.3 0.956449 0.0155434 0.267169
0.288069 0.5 0.3 0.956556 0.0156467 0.285389
0.411736 0.5 -0.075 0.949262 0.0225426 0.272418
0.411736 0.5 0.075 0.949294 0.0226143 0.279412
0.075776 0.5 -0.4125 0.961115 0.00516417 0.27234
0.075776 0.5 0.4125 0.961144 0.00515101 0.279696
0.350249 0.5 -0.2625 0.953832 0.0187723 0.266334
0.350249 0.5 0.2625 0.953943 0.0189155 0.286103
0.411736 0.5 -0.15 0.949481 0.0223666 0.268997
0.411736 0.5 0.15 0.949536 0.0225075 0.282866
0 0.5 -0.443821 0.961262 0 0.275637
0 0.5 0.443821 0.961262 0 0.275637
0.0124865 0.5 -0.443821 0.961242 0.00085211 0.275091
0.0124865 0.5 0.443821 0.961247 0.000850131 0.276309
0 0.5 -0.45 0.961262 0 0.275637
0 0.5 0.45 0.961262 0 0.275637
0 0.5 -0.456179 0.961262 0 0.275637
0 0.5 0.456179 0.961262 0 0.275637
0.0124865 0.5 -0.456179 0.961247 0.000834037 0.275
0.0124865 0.5 0.456179 0.961253 0.000831132 0.276395
0.219992 0.5 -0.4125 0.959264 0.0119509 0.267128
0.219993 0.5 0.4125 0.959382 0.0120009 0.285519
0.411736 0.5 -0.225 0.949858 0.0221054 0.265694
0.411736 0.5 0.225 0.949926 0.0223086 0.286222
0.467897 0.5 0.0375 0.945386 0.0257832 0.277683
0.467897 0.5 -0.0375 0.945372 0.0257344 0.273609
0.288069 0.5 -0.375 0.956746 0.0152795 0.265155
0.288069 0.5 0.375 0.956876 0.0153967 0.287417
0.151149 0.5 -0.45 0.960214 0.00858179 0.269161
0.151149 0.5 0.45 0.960295 0.00859943 0.28318
0.467897 0.5 -0.1125 0.945565 0.0255733 0.269588
0.467897 0.5 0.1125 0.945598 0.0257184 0.281738
0.350249 0.5 0.3375 0.954362 0.0186444 0.288687
0.350249 0.5 -0.3375 0.954225 0.0184744 0.263787
0.075776 0.5 -0.4875 0.961143 0.00505438 0.271788
0.075776 0.5 0.4875 0.961179 0.00503527 0.280221
0.467897 0.5 -0.1875 0.945962 0.0253067 0.265685
0.467897 0.5 0.1875 0.946002 0.0255423 0.285706
0.411736 0.5 -0.3 0.950379 0.0217656 0.262558
0.411736 0.5 0.3 0.950458 0.0220221 0.289428
0 0.5 -0.518821 0.961262 0 0.275637
0 0.5 0.518821 0.961262 0 0.275637
0.0124865 0.5 0.518821 0.961253 0.000831132 0.276395
0.0124865 0.5 -0.518821 0.961247 0.000834037 0.275
0.523432 0.5 -0.00137318 0.940403 0.0290495 0.275361
0 0.5 -0.525 0.961262 0 0.275637
0 0.5 0.525 0.961262 0 0.275637
0.523432 0.5 -0.075 0.940503 0.0289367 0.270537
0.523432 0.5 0.075 0.940497 0.0290718 0.279884
0 0.5 -0.531179 0.961262 0 0.275637
0 0.5 0.531179 0.961262 0 0.275637
0.0124865 0.5 -0.531179 0.961253 0.000814054 0.274918
0.0124865 0.5 0.531179 0.96126 0.000809972 0.276472
0.288069 0.5 -0.45 0.957099 0.0149713 0.263299
0.288069 0.5 0.45 0.95725 0.0150982 0.289288
0.219992 0.5 -0.4875 0.959456 0.011703 0.265762
0.219993 0.5 0.4875 0.959592 0.0117516 0.286865
0.467897 0.5 -0.2625 0.946558 0.0249432 0.26195
0.467897 0.5 0.2625 0.946596 0.0252593 0.289533
0.350249 0.5 -0.4125 0.954703 0.0181201 0.261423
0.350249 0.5 0.4125 0.954866 0.0183113 0.291093
0.523432 0.5 -0.15 0.940908 0.0286747 0.26598
0.523432 0.5 0.15 0.940885 0.0289397 0.284515
0.151149 0.5 -0.525 0.960334 0.00838991 0.268237
0.151149 0.5 0.525 0.960426 0.00840304 0.284078
0.411736 0.5 -0.375 0.951028 0.0213534 0.259635
0.411736 0.5 0.375 0.95112 0.0216545 0.292439
0.075776 0.5 -0.5625 0.961177 0.00493262 0.271292
0.075776 0.5 0.5625 0.961218 0.00490628 0.280686
0.523432 0.5 -0.225 0.941573 0.0282931 0.261601
0.523432 0.5 0.225 0.941522 0.0286781 0.289014
0.574156 0.5 -0.0375 0.935637 0.0321478 0.272133
0.574156 0.5 0.0375 0.935622 0.0322343 0.277413
0.467897 0.5 0.3375 0.947367 0.0248759 0.293154
0.467897 0.5 -0.3375 0.94733 0.0244908 0.25845
0.574156 0.5 -0.1125 0.935984 0.031911 0.266932
0.574156 0.5 0.1125 0.935931 0.0321669 0.282684
0 0.5 -0.593821 0.961262 0 0.275637
0 0.5 0.593821 0.961262 0 0.275637
0.0124865 0.5 -0.593821 0.961253 0.000814054 0.274918
0.0124865 0.5 0.593821 0.96126 0.000809972 0.276472
0.288069 0.5 -0.525 0.957498 0.0146224 0.26162
0.288069 0.5 0.525 0.957668 0.014756 0.290979
0 0.5 -0.6 0.961262 0 0.275637
0 0.5 0.6 0.961262 0 0.275637
0.350249 0.5 -0.4875 0.955256 0.0177139 0.259269
0.350249 0.5 0.4875 0.955441 0.0179222 0.293292
0.523432 0.5 -0.3 0.942481 0.0278018 0.257465
0.523432 0.5 0.3 0.942398 0.0282937 0.293312
0.219992 0.5 -0.5625 0.959671 0.0114249 0.264535
0.219992 0.5 0.5625 0.95982 0.0114698 0.288069
0.574156 0.5 -0.1875 0.936653 0.0315329 0.261896
0.574156 0.5 0.1875 0.936549 0.0319482 0.287846
0 0.5 -0.606179 0.961262 0 0.275637
0 0.5 0.606179 0.961262 0 0.275637
0.0124865 0.5 -0.606179 0.961259 0.000792461 0.274846
0.0124865 0.5 0.606179 0.961267 0.000787081 0.276539
0.411736 0.5 -0.45 0.951792 0.020875 0.256958
0.411736 0.5 0.45 0.951895 0.0212136 0.295215
0.151149 0.5 -0.6 0.960467 0.00817795 0.267415
0.151149 0.5 0.6 0.960567 0.00818499 0.284869
0.62168 0.5 2.64545e-17 0.930198 0.0353213 0.274469
0.467897 0.5 0.4125 0.948296 0.0244009 0.296525
0.467897 0.5 -0.4125 0.94826 0.0239568 0.255223
0.624316 0.5 0.0729402 0.930009 0.0355362 0.280114
0.624316 0.5 -0.075 0.930096 0.0353189 0.26831
0.574156 0.5 -0.2625 0.937634 0.0310226 0.257113
0.574157 0.5 0.2625 0.937468 0.0315837 0.29282
0.075776 0.5 -0.6375 0.961215 0.00480083 0.270854
0.075776 0.5 0.6375 0.96126 0.00476657 0.281088
0.624316 0.5 -0.15 0.930744 0.0349573 0.262576
0.624316 0.5 0.15 0.93056 0.0353839 0.285977
0.523432 0.5 -0.375 0.943605 0.0272103 0.253632
0.523432 0.5 0.375 0.943491 0.0277955 0.297345
0.350249 0.5 -0.5625 0.955869 0.0172614 0.257349
0.350249 0.5 0.5625 0.956074 0.0174834 0.295259
0.624316 0.5 -0.225 0.931779 0.0344393 0.257089
0.624316 0.5 0.225 0.931488 0.0350613 0.291675
0.288069 0.5 0.6 0.958118 0.0143748 0.292476
0.288069 0.5 -0.6 0.957934 0.0142374 0.260135
0.574156 0.5 -0.3375 0.938894 0.0303929 0.252643
0.574156 0.5 0.3375 0.938666 0.0310829 0.29753
0.411736 0.5 -0.525 0.95265 0.0203376 0.254558
0.411736 0.5 0.525 0.952764 0.0207078 0.297724
0 0.5 -0.668821 0.961262 0 0.275637
0 0.5 0.668821 0.961262 0 0.275637
0.0124865 0.5 -0.668821 0.961259 0.000792461 0.274846
0.0124865 0.5 0.668821 0.961267 0.000787081 0.276539
0.67013 0.5 0.0375 0.92433 0.0387212 0.276906
0.67013 0.5 -0.0375 0.924398 0.0385895 0.270364
0.219993 0.5 -0.6375 0.959902 0.01112 0.263455
0.219993 0.5 0.6375 0.960061 0.0111591 0.289118
0 0.5 -0.675 0.961262 0 0.275637
0 0.5 0.675 0.961262 0 0.275637
0.467897 0.5 0.4875 0.949361 0.0238444 0.2996
0.467897 0.5 -0.4875 0.949324 0.0233498 0.25231
0.67013 0.5 -0.1125 0.924945 0.0382669 0.263933
0.67013 0.5 0.1125 0.924738 0.0386572 0.283447
0 0.5 -0.681179 0.961262 0 0.275637
0 0.5 0.681179 0.961262 0 0.275637
0.0124865 0.5 -0.681179 0.961266 0.000769615 0.274784
0.0124865 0.5 0.681179 0.961274 0.000762848 0.276594
0.523432 0.5 -0.45 0.944916 0.0265287 0.250152
0.523432 0.5 0.45 0.944774 0.0271947 0.301058
0.151149 0.5 -0.675 0.960608 0.00794895 0.266701
0.151149 0.5 0.675 0.960715 0.00794843 0.285549
0.624316 0.5 -0.3 0.933173 0.0337773 0.251931
0.624316 0.5 0.3 0.932771 0.0345769 0.297117
0.67013 0.5 0.1875 0.925599 0.0383993 0.289861
0.67013 0.5 -0.1875 0.92596 0.0377636 0.257729
0.574156 0.5 -0.4125 0.940398 0.0296544 0.24856
0.574157 0.5 0.4125 0.940112 0.030457 0.301899
0.708171 0.5 1.88651e-17 0.919043 0.0414717 0.273596
0.075776 0.5 -0.7125 0.961256 0.00466115 0.270477
0.075776 0.5 0.7125 0.961305 0.00461858 0.281425
0.715434 0.5 0.0736268 0.918335 0.0419737 0.280343
0.715434 0.5 -0.075 0.918407 0.0417276 0.265791
0.67013 0.5 0.2625 0.926895 0.0379537 0.296038
0.67013 0.5 -0.2625 0.927414 0.0370914 0.251858
0.350249 0.5 -0.6375 0.956527 0.016769 0.255676
0.350249 0.5 0.6375 0.956747 0.0170008 0.296979
0.411736 0.5 -0.6 0.953582 0.0197489 0.252456
0.411736 0.5 0.6 0.953706 0.0201452 0.299943
0.624316 0.5 -0.375 0.934887 0.0329853 0.247182
0.624316 0.5 0.375 0.934377 0.0339424 0.302215
0.715434 0.5 -0.15 0.919354 0.041255 0.258833
0.715434 0.5 0.15 0.918923 0.0418729 0.287315
0.467897 0.5 -0.5625 0.950496 0.0226789 0.249739
0.467897 0.5 0.5625 0.950535 0.0232167 0.302347
0.288069 0.5 -0.675 0.958396 0.0138219 0.258854
0.288069 0.5 0.675 0.958591 0.0139597 0.293766
0.523432 0.5 -0.525 0.946378 0.0257679 0.247063
0.523432 0.5 0.525 0.946214 0.0265037 0.304408
0 0.5 -0.743821 0.961262 0 0.275637
0 0.5 0.743821 0.961262 0 0.275637
0.0124865 0.5 -0.743821 0.961266 0.000769615 0.274784
0.0124865 0.5 0.743821 0.961274 0.000762848 0.276594
0.219992 0.5 0.7125 0.960309 0.0108235 0.290008
0.219992 0.5 -0.7125 0.960145 0.0107927 0.262531
0.715434 0.5 -0.225 0.920835 0.040587 0.252196
0.715434 0.5 0.225 0.920177 0.0414906 0.294268
0 0.5 -0.75 0.961262 0 0.275637
0 0.5 0.75 0.961262 0 0.275637
0.67013 0.5 0.3375 0.928594 0.0373326 0.301887
0.67013 0.5 -0.3375 0.929268 0.0362655 0.246405
0.574156 0.5 -0.4875 0.942108 0.0288199 0.244908
0.574156 0.5 0.4875 0.941771 0.029721 0.305883
0 0.5 -0.756179 0.961262 0 0.275637
0 0.5 0.756179 0.961262 0 0.275637
0.0124865 0.5 -0.756179 0.961273 0.000745867 0.274732
0.0124865 0.5 0.756179 0.961281 0.000737701 0.276639
0.756813 0.5 -0.0375 0.912037 0.0450662 0.268353
0.756813 0.5 0.0375 0.911896 0.0452501 0.276214
0.151149 0.5 -0.75 0.960756 0.00770636 0.266097
0.151149 0.5 0.75 0.960865 0.00769703 0.286114
0.756813 0.5 -0.1125 0.912826 0.0446484 0.260638
0.756813 0.5 0.1125 0.912403 0.0451935 0.284085
0.624316 0.5 -0.45 0.93687 0.0320774 0.242908
0.624316 0.5 0.45 0.936261 0.0331726 0.306898
0.715434 0.5 -0.3 0.92281 0.0397386 0.245992
0.715434 0.5 0.3 0.921925 0.0409045 0.300904
0.756813 0.5 0.1875 0.913531 0.0448982 0.291808
0.756813 0.5 -0.1875 0.914248 0.0440077 0.253216
0.67013 0.5 -0.4125 0.931469 0.0353029 0.241463
0.67013 0.5 0.4125 0.930644 0.0365501 0.307295
0.411736 0.5 -0.675 0.954564 0.0191181 0.250665
0.411736 0.5 0.675 0.954697 0.0195337 0.301854
0.467897 0.5 0.6375 0.951788 0.0225276 0.304743
0.467897 0.5 -0.6375 0.951745 0.0219545 0.247531
0.075776 0.5 -0.7875 0.9613 0.00451574 0.270164
0.075776 0.5 0.7875 0.961349 0.00446506 0.281697
0.350249 0.5 -0.7125 0.957215 0.0162442 0.254261
0.350249 0.5 0.7125 0.957447 0.0164811 0.29844
0.523432 0.5 -0.6 0.947955 0.0249403 0.244391
0.523432 0.5 0.6 0.947774 0.0257345 0.30736
0.797732 0.5 2.68882e-17 0.905192 0.048494 0.271511
0.756813 0.5 -0.2625 0.91626 0.0431599 0.246217
0.756814 0.5 0.2625 0.915245 0.0443711 0.299244
0.797732 0.5 0.0736268 0.905444 0.048549 0.280373
0.797732 0.5 -0.075 0.905753 0.0481526 0.263032
0.288069 0.5 -0.75 0.958873 0.013382 0.257781
0.288069 0.5 0.75 0.959076 0.0135166 0.294843
0.574156 0.5 -0.5625 0.943975 0.0279034 0.241724
0.574157 0.5 0.5625 0.943599 0.0288886 0.309429
0.715434 0.5 -0.375 0.925221 0.0387277 0.240319
0.715434 0.5 0.375 0.924118 0.0401293 0.307114
0.797732 0.5 -0.15 0.907051 0.04756 0.2548
0.797732 0.5 0.15 0.906291 0.0483919 0.288579
0.624316 0.5 -0.525 0.93907 0.0310694 0.239154
0.624316 0.5 0.525 0.938378 0.0322841 0.311112
0.219992 0.5 -0.7875 0.960394 0.0104479 0.261764
0.219992 0.5 0.7875 0.960562 0.0104683 0.290735
0 0.5 -0.818821 0.961262 0 0.275637
0 0.5 0.818821 0.961262 0 0.275637
0.0124865 0.5 0.818821 0.961281 0.000737701 0.276639
0.0124865 0.5 -0.818821 0.961273 0.000745867 0.274732
0 0.5 -0.825 0.961262 0 0.275637
0 0.5 0.825 0.961262 0 0.275637
0.756813 0.5 0.3375 0.917505 0.043626 0.306269
0.756814 0.5 -0.3375 0.91881 0.0421219 0.239775
0.67013 0.5 -0.4875 0.933952 0.03422 0.237085
0.67013 0.5 0.4875 0.932993 0.0356248 0.312215
0.797732 0.5 -0.225 0.909053 0.0467307 0.246975
0.797732 0.5 0.225 0.907903 0.0479503 0.29684
0 0.5 -0.831179 0.961262 0 0.275637
0 0.5 0.831179 0.961262 0 0.275637
0.0124865 0.5 -0.831179 0.96128 0.000721552 0.27469
0.0124865 0.5 0.831179 0.961288 0.000712178 0.276673
0.835106 0.5 0.0375 0.898583 0.0517905 0.275388
0.835106 0.5 -0.0375 0.89882 0.0515498 0.266154
0.151149 0.5 -0.825 0.960906 0.00745391 0.265605
0.151149 0.5 0.825 0.961017 0.0074351 0.286564
0.835106 0.5 0.1125 0.899187 0.051744 0.284643
0.835106 0.5 -0.1125 0.899888 0.0510301 0.257104
0.715434 0.5 -0.45 0.927995 0.0375738 0.235254
0.715434 0.5 0.45 0.926693 0.039183 0.312802
0.797732 0.5 -0.3 0.911699 0.0456825 0.2397
0.797732 0.5 0.3 0.910165 0.0472608 0.304715
0.467897 0.5 0.7125 0.953091 0.0217868 0.306773
0.467897 0.5 -0.7125 0.953041 0.0211876 0.245692
0.523432 0.5 -0.675 0.949604 0.024059 0.242151
0.523432 0.5 0.675 0.949418 0.0248993 0.309893
0.411736 0.5 -0.75 0.955572 0.0184545 0.24919
0.411736 0.5 0.75 0.955716 0.018882 0.303448
0.835106 0.5 -0.1875 0.901783 0.0502437 0.248419
0.835106 0.5 0.1875 0.900602 0.051412 0.293728
0.574156 0.5 -0.6375 0.945952 0.02692 0.23903
0.574157 0.5 0.6375 0.94555 0.0279739 0.312508
0.350249 0.5 -0.7875 0.957917 0.015695 0.253105
0.350249 0.5 0.7875 0.958158 0.0159317 0.299637
0.756813 0.5 -0.4125 0.921814 0.0409165 0.233964
0.756814 0.5 0.4125 0.92024 0.0426815 0.312777
0.075776 0.5 -0.8625 0.961343 0.00436686 0.269912
0.075776 0.5 0.8625 0.961391 0.00430882 0.281905
0.624316 0.5 0.6 0.940671 0.0312936 0.31481
0.624316 0.5 -0.6 0.941424 0.0299785 0.235952
0.872064 0.5 5.91974e-17 0.891731 0.0549398 0.269939
0.870122 0.5 0.075 0.892364 0.0548571 0.280322
0.288069 0.5 -0.825 0.959357 0.0129244 0.256917
0.288069 0.5 0.825 0.959565 0.0130522 0.295705
0.67013 0.5 -0.5625 0.936648 0.0330362 0.233317
0.67013 0.5 0.5625 0.935585 0.034576 0.316576
0.872064 0.5 -0.075 0.892486 0.0545176 0.260089
0.835106 0.5 -0.2625 0.904438 0.049209 0.240273
0.835106 0.5 0.2625 0.902776 0.0508029 0.302472
0.797732 0.5 -0.375 0.914907 0.0444377 0.23309
0.797732 0.5 0.375 0.913014 0.0463409 0.312077
0.872064 0.5 0.14794 0.893025 0.0548607 0.289792
0.872064 0.5 -0.15 0.894174 0.0537996 0.25054
0.715434 0.5 -0.525 0.931053 0.0362976 0.230856
0.715434 0.5 0.525 0.929584 0.0380867 0.317896
0.219992 0.5 0.8625 0.960815 0.0100996 0.291299
0.219993 0.5 -0.8625 0.960645 0.0100911 0.261154
0 0.5 -0.893821 0.961262 0 0.275637
0 0.5 0.893821 0.961262 0 0.275637
0.0124865 0.5 -0.893821 0.96128 0.000721552 0.27469
0.0124865 0.5 0.893821 0.961288 0.000712178 0.276673
0 0.5 -0.9 0.961262 0 0.275637
0 0.5 0.9 0.961262 0 0.275637
0.756813 0.5 -0.4875 0.925184 0.039565 0.228872
0.756813 0.5 0.4875 0.923371 0.0415579 0.318642
0.872064 0.5 -0.225 0.896757 0.052802 0.241494
0.872064 0.5 0.225 0.895021 0.0543612 0.299405
0.835106 0.5 -0.3375 0.907774 0.0479466 0.232808
0.835106 0.5 0.3375 0.905652 0.0499315 0.310715
0 0.5 0.906179 0.961262 0 0.275637
0 0.5 -0.906179 0.961262 0 0.275637
0.0124865 0.5 -0.906179 0.961286 0.000697104 0.274659
0.0124865 0.5 0.906179 0.961293 0.000686553 0.276697
0.90582 0.5 -0.0375 0.885194 0.0579139 0.263818
0.90582 0.5 0.0375 0.884848 0.0582145 0.274457
0.151149 0.5 -0.9 0.961057 0.00719556 0.265221
0.151149 0.5 0.9 0.961167 0.00716707 0.286901
0.90582 0.5 -0.1125 0.886555 0.0572895 0.253394
0.905821 0.5 0.1125 0.885552 0.0581806 0.285136
0.523432 0.5 -0.75 0.951287 0.0231372 0.240343
0.523432 0.5 0.75 0.951106 0.0240102 0.311995
0.574156 0.5 -0.7125 0.947988 0.0258851 0.236832
0.574156 0.5 0.7125 0.947577 0.0269916 0.315101
0.797732 0.5 -0.45 0.918578 0.0430213 0.227235
0.797732 0.5 0.45 0.916363 0.0452119 0.318798
0.467897 0.5 0.7875 0.954415 0.0210041 0.30843
0.467897 0.5 -0.7875 0.954354 0.0203895 0.244223
0.624316 0.5 -0.675 0.943872 0.0288226 0.233317
0.624316 0.5 0.675 0.943084 0.0302178 0.317964
0.411736 0.5 -0.825 0.956586 0.0177676 0.248027
0.411736 0.5 0.825 0.956741 0.018199 0.304723
0.872064 0.5 0.3 0.897836 0.0535691 0.308558
0.872064 0.5 -0.3 0.900146 0.0515467 0.233121
0.67013 0.5 -0.6375 0.939483 0.0317717 0.230182
0.67013 0.5 0.6375 0.938349 0.0334223 0.320341
0.90582 0.5 0.1875 0.88727 0.057815 0.295619
0.905821 0.5 -0.1875 0.888967 0.0563531 0.243409
0.350249 0.5 -0.8625 0.958619 0.0151291 0.252202
0.350249 0.5 0.8625 0.958869 0.0153605 0.300572
0.835106 0.5 -0.4125 0.911681 0.0464844 0.226124
0.835106 0.5 0.4125 0.909147 0.0488198 0.318339
0.715434 0.5 -0.6 0.934309 0.0349218 0.22716
0.715434 0.5 0.6 0.932713 0.0368627 0.322346
0.939201 0.5 2.75387e-17 0.877673 0.061459 0.268265
0.075776 0.5 0.9375 0.961427 0.00415198 0.282051
0.075776 0.5 -0.9375 0.961383 0.00421662 0.26972
0.939111 0.5 0.075 0.877901 0.0616082 0.280641
0.939201 0.5 -0.075 0.878647 0.0609493 0.256977
0.756813 0.5 0.5625 0.926821 0.0402815 0.323831
0.756814 0.5 -0.5625 0.928823 0.0380926 0.224546
0.90582 0.5 0.2625 0.889933 0.0571263 0.305704
0.905821 0.5 -0.2625 0.892314 0.0551277 0.234087
0.288069 0.5 -0.9 0.959838 0.0124557 0.256255
0.288069 0.5 0.9 0.960051 0.0125737 0.296357
0.872064 0.5 -0.375 0.904232 0.0500599 0.22556
0.872064 0.5 0.375 0.901392 0.0525041 0.317097
0.939201 0.5 0.148627 0.879228 0.0613764 0.291222
0.939201 0.5 -0.15 0.88077 0.0600944 0.246044
0.797732 0.5 -0.525 0.922606 0.04146 0.222211
0.797732 0.5 0.525 0.920117 0.0438995 0.324786
0.219992 0.5 0.9375 0.96107 0.00972403 0.291708
0.219992 0.5 -0.9375 0.960899 0.00972806 0.260695
0.939201 0.5 -0.225 0.884005 0.0589134 0.235718
0.939201 0.5 0.225 0.88156 0.0608406 0.302069
0.905821 0.5 -0.3375 0.896501 0.0536377 0.225568
0.90582 0.5 0.3375 0.89346 0.056132 0.315196
0.835106 0.5 -0.4875 0.916046 0.0448506 0.220327
0.835106 0.5 0.4875 0.913149 0.0474925 0.325181
0 0.5 0.968821 0.961262 0 0.275637
0 0.5 -0.968821 0.961262 0 0.275637
0.0124865 0.5 -0.968821 0.961286 0.000697104 0.274659
0.0124865 0.5 0.968821 0.961293 0.000686553 0.276697
0.969689 0.5 -0.0375 0.87082 0.0645323 0.261351
0.969689 0.5 0.0375 0.870315 0.0648992 0.273493
0.574156 0.5 -0.7875 0.950034 0.0248139 0.235124
0.574156 0.5 0.7875 0.949633 0.0259559 0.317201
0 0.5 -0.975 0.961262 0 0.275637
0 0.5 0.975 0.961262 0 0.275637
0.624316 0.5 -0.75 0.946352 0.0276195 0.231244
0.624316 0.5 0.75 0.945558 0.0290737 0.320562
0.969689 0.5 -0.1125 0.872495 0.0637884 0.249453
0.96969 0.5 0.1125 0.871113 0.0648756 0.285702
0.523432 0.5 -0.825 0.952965 0.0221879 0.238959
0.523432 0.5 0.825 0.952802 0.0230796 0.313666
0.67013 0.5 0.7125 0.941215 0.0321836 0.323489
0.67013 0.5 -0.7125 0.942382 0.0304468 0.227684
0 0.5 -0.981179 0.961262 0 0.275637
0 0.5 0.981179 0.961262 0 0.275637
0.467897 0.5 0.8625 0.955735 0.0201904 0.309718
0.467897 0.5 -0.8625 0.955655 0.0195709 0.243112
0.0124865 0.5 -0.981179 0.961291 0.000672645 0.274637
0.0124865 0.5 0.981179 0.961298 0.00066111 0.276712
0.872064 0.5 -0.45 0.908887 0.0483725 0.218924
0.872064 0.5 0.45 0.905582 0.0511909 0.324875
0.715434 0.5 -0.675 0.937673 0.0334702 0.22418
0.715434 0.5 0.675 0.936 0.0355326 0.326117
0.939201 0.5 -0.3 0.888214 0.0574325 0.226197
0.939201 0.5 0.3 0.884973 0.059937 0.312553
0.151149 0.5 0.975 0.961316 0.00689619 0.28713
0.151149 0.5 -0.975 0.961206 0.0069346 0.264942
0.969689 0.5 -0.1875 0.875523 0.0626793 0.238074
0.969689 0.5 0.1875 0.873152 0.0644664 0.297679
0.756813 0.5 -0.6375 0.93263 0.0365256 0.221014
0.756813 0.5 0.6375 0.930493 0.0388767 0.328282
0.411736 0.5 -0.9 0.957584 0.0170661 0.247163
0.411736 0.5 0.9 0.957754 0.0174941 0.305686
0.90582 0.5 -0.4125 0.901382 0.0519158 0.218026
0.90582 0.5 0.4125 0.897759 0.0548555 0.32395
0.995005 0.5 0.0749309 0.865328 0.0669474 0.280445
0.797732 0.5 -0.6 0.926876 0.0397826 0.218055
0.797732 0.5 0.6 0.924173 0.0424323 0.329991
1.00005 0.5 -8.47123e-18 0.863919 0.067238 0.266562
0.350249 0.5 -0.9375 0.959309 0.0145537 0.251543
0.350249 0.5 0.9375 0.959564 0.0147756 0.301252
1.00005 0.5 -0.0749309 0.865115 0.0666516 0.253925
0.969689 0.5 -0.2625 0.879651 0.0612337 0.2275
0.969689 0.5 0.2625 0.876347 0.063681 0.309184
0.835106 0.5 -0.5625 0.920741 0.0430769 0.215469
0.835106 0.5 0.5625 0.917542 0.045981 0.331199
1.00005 0.5 -0.149862 0.867684 0.0656809 0.241673
0.939201 0.5 -0.375 0.893266 0.0556831 0.217644
0.939201 0.5 0.375 0.889295 0.0587147 0.322308
1.00029 0.5 0.148988 0.865752 0.0671558 0.292293
0.075776 0.5 -1.0125 0.961416 0.00406673 0.269587
0.075776 0.5 1.0125 0.961456 0.00399615 0.282139
0.288069 0.5 0.975 0.960526 0.0120866 0.296809
0.288069 0.5 -0.975 0.96031 0.0119807 0.255785
0.872064 0.5 -0.525 0.913973 0.0465169 0.213287
0.872064 0.5 0.525 0.910272 0.0496604 0.331772
1.00005 0.5 0.224793 0.868411 0.0666097 0.304457
1.00005 0.5 -0.224793 0.871586 0.0643469 0.230127
0.969689 0.5 0.3375 0.880595 0.06254 0.319993
0.96969 0.5 -0.3375 0.884795 0.0594806 0.217869
1.0271 0.5 -0.0368226 0.857081 0.070163 0.259055
1.0271 0.5 0.0368226 0.856465 0.0705746 0.272319
0.90582 0.5 0.4875 0.902687 0.0533267 0.331801
0.905821 0.5 -0.4875 0.906811 0.049996 0.211534
1.0271 0.5 -0.110468 0.859045 0.0693517 0.246035
1.0271 0.5 0.110468 0.856897 0.0708669 0.288786
0.67013 0.5 0.7875 0.944119 0.0308788 0.326015
0.67013 0.5 -0.7875 0.945278 0.0290818 0.225808
0.624316 0.5 0.825 0.948039 0.027878 0.322605
0.624316 0.5 -0.825 0.948809 0.0263866 0.229716
0.219993 0.5 -1.0125 0.961155 0.00936208 0.260377
0.219993 0.5 1.0125 0.961331 0.00934391 0.29197
0.574156 0.5 -0.8625 0.952047 0.0237208 0.233887
0.574156 0.5 0.8625 0.951677 0.0248811 0.318816
0.715434 0.5 -0.75 0.941062 0.0319658 0.221905
0.715434 0.5 0.75 0.939365 0.0341182 0.329196
0.756813 0.5 0.7125 0.934295 0.0373669 0.331974
0.756814 0.5 -0.7125 0.936502 0.0348912 0.218273
0.523432 0.5 -0.9 0.954605 0.0212228 0.23798
0.523432 0.5 0.9 0.954473 0.02212 0.314914
0.939201 0.5 -0.45 0.898998 0.0537019 0.210196
0.939201 0.5 0.45 0.894394 0.057203 0.331171
1.04168 0.5 0 0.852717 0.0720118 0.265197
1.0271 0.5 -0.184113 0.862565 0.0681533 0.233552
1.0271 0.5 0.184113 0.859653 0.0701662 0.298815
0 0.5 -1.04382 0.961262 0 0.275637
0 0.5 1.04382 0.961262 0 0.275637
0.0124865 0.5 -1.04382 0.961291 0.000672645 0.274637
0.0124865 0.5 1.04382 0.961298 0.00066111 0.276712
1.00005 0.5 -0.299723 0.876632 0.062679 0.219512
1.00005 0.5 0.299723 0.872434 0.0656249 0.316203
1.04168 0.5 -0.0729162 0.854052 0.071386 0.251772
1.04168 0.5 0.0729162 0.852832 0.072226 0.278806
0.797732 0.5 -0.675 0.931263 0.038018 0.214779
0.797732 0.5 0.675 0.928427 0.0408373 0.334368
0.467897 0.5 0.9375 0.957024 0.0193563 0.310648
0.467897 0.5 -0.9375 0.956919 0.018741 0.242341
0 0.5 -1.05 0.961262 0 0.275637
0 0.5 1.05 0.961262 0 0.275637
0.835106 0.5 -0.6375 0.925634 0.0411953 0.21158
0.835106 0.5 0.6375 0.922212 0.0443166 0.336326
1.04168 0.5 -0.145832 0.856876 0.070362 0.238719
1.04168 0.5 0.145832 0.854449 0.0720261 0.292358
0.969689 0.5 -0.4125 0.890761 0.0574589 0.209384
0.96969 0.5 0.4125 0.885781 0.0610697 0.329916
0 0.5 -1.05618 0.961262 0 0.275637
0 0.5 1.05618 0.961262 0 0.275637
0.0124865 0.5 -1.05618 0.961295 0.000648714 0.274624
0.0124865 0.5 1.05618 0.961301 0.000636762 0.276717
1.05695 0.5 -0.0360764 0.84904 0.0734035 0.257758
1.05695 0.5 0.0360764 0.848351 0.0738382 0.271555
0.411736 0.5 -0.975 0.958548 0.0163573 0.246583
0.411736 0.5 0.975 0.958733 0.0167762 0.306349
0.872064 0.5 -0.6 0.919338 0.0445276 0.2087
0.872064 0.5 0.6 0.915326 0.0479473 0.337723
1.0271 0.5 -0.257759 0.867345 0.0665968 0.221972
1.0271 0.5 0.257759 0.863293 0.0693605 0.311435
0.151149 0.5 -1.05 0.961354 0.00667333 0.264761
0.151149 0.5 1.05 0.961462 0.00662552 0.28726
1.05695 0.5 0.108229 0.848448 0.074185 0.285815
1.05695 0.5 -0.108229 0.851131 0.0725583 0.244182
1.04168 0.5 -0.218749 0.861146 0.0689608 0.226409
1.04168 0.5 0.218749 0.857477 0.0714192 0.305525
0.90582 0.5 -0.5625 0.912625 0.0479136 0.206156
0.905821 0.5 0.5625 0.908088 0.0515819 0.338645
1.00005 0.5 -0.374654 0.882677 0.0607118 0.210009
1.00005 0.5 0.374654 0.877531 0.0642849 0.327116
0.350249 0.5 1.0125 0.960228 0.014182 0.301692
0.350249 0.5 -1.0125 0.959973 0.0139727 0.25111
1.05695 0.5 -0.180382 0.854852 0.0713196 0.231131
1.05695 0.5 0.180382 0.851598 0.0734528 0.299202
1.07319 0.5 0.0709442 0.84408 0.0757858 0.281291
0.939201 0.5 -0.525 0.905237 0.0515273 0.203949
0.939201 0.5 0.525 0.900102 0.0554375 0.339002
1.0271 0.5 -0.331404 0.873301 0.0647111 0.211422
1.0271 0.5 0.331404 0.868143 0.068177 0.323313
1.08112 0.5 3.23815e-17 0.841562 0.0764096 0.263811
1.04168 0.5 -0.291665 0.866662 0.0672105 0.215088
1.04168 0.5 0.291665 0.86181 0.0704195 0.318062
1.08112 0.5 -0.0709442 0.84303 0.0757494 0.249659
0.969689 0.5 -0.4875 0.897371 0.0552098 0.202136
0.96969 0.5 0.4875 0.891733 0.0593071 0.338806
1.05695 0.5 0.252535 0.855361 0.0726463 0.312384
1.05695 0.5 -0.252535 0.859877 0.0697138 0.219058
0.288069 0.5 -1.05 0.960768 0.0115026 0.255494
0.288069 0.5 1.05 0.960986 0.0115941 0.297072
0.075776 0.5 -1.0875 0.961443 0.00391907 0.269506
0.075776 0.5 1.0875 0.961477 0.00384588 0.282174
1.08112 0.5 -0.141888 0.846067 0.0746818 0.235867
1.08145 0.5 0.140165 0.843606 0.0763592 0.29287
0.715434 0.5 0.825 0.942731 0.0326413 0.331587
0.715434 0.5 -0.825 0.944396 0.030431 0.220306
0.756813 0.5 0.7875 0.938138 0.035777 0.334902
0.756814 0.5 -0.7875 0.940343 0.0332142 0.216297
0.67013 0.5 -0.8625 0.948107 0.0276956 0.224524
0.67013 0.5 0.8625 0.946996 0.0295268 0.327928
0.797732 0.5 -0.75 0.935652 0.0361955 0.212363
0.797732 0.5 0.75 0.932776 0.0391414 0.337906
0.624316 0.5 -0.9 0.951193 0.0251396 0.228703
0.624316 0.5 0.9 0.950477 0.0266472 0.324108
1.00005 0.5 -0.449585 0.889519 0.0584859 0.201787
1.00005 0.5 0.449585 0.883546 0.0626214 0.337018
0.835106 0.5 -0.7125 0.930565 0.0392352 0.20865
0.835106 0.5 0.7125 0.927042 0.0425283 0.340541
0.574156 0.5 -0.9375 0.953988 0.0226185 0.233093
0.574157 0.5 0.9375 0.953669 0.0237809 0.319963
1.10076 0.5 -0.0349809 0.836056 0.0784488 0.255805
1.10076 0.5 0.0349809 0.835285 0.078913 0.270431
1.08112 0.5 -0.212832 0.850619 0.0732286 0.222845
1.08112 0.5 0.212832 0.846441 0.0758667 0.306385
0.872064 0.5 -0.675 0.924825 0.0424415 0.205178
0.872064 0.5 0.675 0.920611 0.0460837 0.342691
1.04168 0.5 -0.364581 0.873281 0.0651458 0.204937
1.04168 0.5 0.364581 0.867312 0.0690502 0.329735
1.0271 0.5 0.405049 0.874059 0.0666419 0.334232