# wallShearStress  FACE_DATA 60650
# x  y  z  wallShearStress_x  wallShearStress_y  wallShearStress_z
8.7572 0 0.345731 -0.000257282 -4.27641e-08 0.00161887
8.72516 0 0.336919 -0.000175007 3.00457e-07 0.00166444
8.69439 0 0.328456 -0.000102 -5.08624e-07 0.00170331
8.66483 0 0.32033 -3.39793e-05 -1.7619e-06 0.0017324
8.63646 0 0.312525 2.67758e-05 -2.91761e-06 0.00175203
8.6092 0 0.305031 7.82882e-05 -3.59978e-06 0.0017626
8.58303 0 0.297834 0.000118335 -5.25169e-06 0.00176314
8.82532 0 0.430728 -0.000664915 2.04049e-06 0.00134354
8.79057 0 0.419435 -0.000575619 4.71938e-07 0.00143391
8.7572 0 0.408591 -0.000500613 5.53063e-07 0.00152069
8.72516 0 0.398176 -0.000421759 -4.78075e-07 0.00159759
8.69439 0 0.388175 -0.000349924 -9.56417e-07 0.00166653
8.66483 0 0.378571 -0.000280701 -1.49809e-06 0.001725
8.63646 0 0.369348 -0.000217489 -6.1301e-07 0.00177394
8.6092 0 0.360491 -0.000161017 -7.93394e-07 0.00181237
8.58303 0 0.351985 -0.000111851 -1.96323e-06 0.00183932
8.5579 0 0.343817 -6.99691e-05 -3.1961e-06 0.00185454
8.53376 0 0.335973 -3.76659e-05 -4.27782e-06 0.00185837
8.51058 0 0.32844 -1.4902e-05 -5.59539e-06 0.00185067
8.93841 0 0.539402 -0.00102945 -3.58216e-07 0.000728905
8.89917 0 0.52469 -0.00101248 5.08712e-06 0.000848966
8.8615 0 0.510561 -0.000920523 1.68046e-06 0.000971906
8.82532 0 0.496993 -0.000867735 2.86305e-06 0.00109032
8.79057 0 0.483964 -0.000790033 1.83675e-06 0.00120321
8.7572 0 0.471451 -0.000723391 1.66075e-06 0.00131267
8.72516 0 0.459434 -0.000653128 9.07583e-07 0.0014169
8.69439 0 0.447895 -0.000587426 3.82813e-07 0.00151404
8.66483 0 0.436813 -0.000523177 5.59891e-08 0.00160336
8.63646 0 0.426171 -0.000462246 -3.76439e-07 0.00168332
8.6092 0 0.415951 -0.000405094 -8.95841e-07 0.00175286
8.58303 0 0.406137 -0.000352372 -1.72302e-06 0.00180982
8.5579 0 0.396712 -0.00030482 -2.18699e-06 0.00185539
8.53376 0 0.387661 -0.000263176 -2.6942e-06 0.00188856
8.51058 0 0.378969 -0.000227969 -3.37128e-06 0.00190964
8.48832 0 0.370622 -0.000199989 -4.05105e-06 0.00191846
8.46695 0 0.362606 -0.000179728 -4.83272e-06 0.00191536
8.93841 0 0.611323 -0.00115958 2.12224e-06 0.000407458
8.89917 0 0.594649 -0.00114736 5.40748e-06 0.000515261
8.8615 0 0.578636 -0.00106775 1.78143e-06 0.00064248
8.82532 0 0.563259 -0.00102368 3.12419e-06 0.000769671
8.79057 0 0.548492 -0.000966112 2.32766e-06 0.000901278
8.7572 0 0.534311 -0.000916548 2.58421e-06 0.00102876
8.72516 0 0.520692 -0.000859843 2.25351e-06 0.00115181
8.69439 0 0.507614 -0.000802539 2.19197e-06 0.00126954
8.66483 0 0.495055 -0.000744647 1.58922e-06 0.00138222
8.63646 0 0.482994 -0.000688464 1.0652e-06 0.00148796
8.6092 0 0.471411 -0.000634602 5.26387e-07 0.00158568
8.58303 0 0.460288 -0.000583944 4.48495e-07 0.00167376
8.5579 0 0.449607 -0.000536346 1.54871e-07 0.00175138
8.53376 0 0.439349 -0.000491699 -4.40218e-08 0.00181687
8.51058 0 0.429498 -0.000452054 -4.97109e-07 0.00186923
8.48832 0 0.420038 -0.000416689 -1.09976e-06 0.00190885
8.46695 0 0.410953 -0.000386128 -1.75772e-06 0.00193625
8.44642 0 0.402229 -0.000361158 -2.48383e-06 0.00195138
8.42671 0 0.393851 -0.000341575 -3.39292e-06 0.00195431
8.93841 0 0.683243 -0.00123574 3.00945e-06 0.00010128
8.89917 0 0.664607 -0.00122969 6.39732e-06 0.000201464
8.8615 0 0.646711 -0.00118042 4.02262e-06 0.000322897
8.82532 0 0.629525 -0.00114891 3.93241e-06 0.000437367
8.79057 0 0.61302 -0.0010995 2.26685e-06 0.000561202
8.7572 0 0.597171 -0.00105522 2.41882e-06 0.000689562
8.72516 0 0.58195 -0.00101277 2.47057e-06 0.000822621
8.69439 0 0.567333 -0.000973662 2.74555e-06 0.000954571
8.66483 0 0.553296 -0.000931958 2.57401e-06 0.00108274
8.63646 0 0.539816 -0.000886213 2.65313e-06 0.00120612
8.6092 0 0.526871 -0.000838981 2.38134e-06 0.00132431
8.58303 0 0.51444 -0.000792339 2.14602e-06 0.00143598
8.5579 0 0.502501 -0.000747464 1.62039e-06 0.00153958
8.53376 0 0.491037 -0.000705014 1.26121e-06 0.00163365
8.51058 0 0.480027 -0.000665086 8.50249e-07 0.0017175
8.48832 0 0.469454 -0.000627352 6.23474e-07 0.00179015
8.46695 0 0.459301 -0.00059205 2.43241e-07 0.00185075
8.44642 0 0.44955 -0.000559835 -9.14163e-08 0.00189822
8.42671 0 0.440186 -0.000530733 -7.53636e-07 0.00193257
8.40778 0 0.431194 -0.000504469 -1.44829e-06 0.00195468
8.3896 0 0.422558 -0.000481044 -2.14725e-06 0.0019657
8.93841 0 0.755163 -0.0012885 1.74626e-06 -0.000186089
8.89917 0 0.734566 -0.00127607 3.99745e-06 -9.47301e-05
8.8615 0 0.714786 -0.00124223 4.25205e-06 2.42292e-05
8.82532 0 0.695791 -0.00121893 5.26797e-06 0.000133074
8.79057 0 0.677549 -0.00119379 4.60614e-06 0.000247009
8.7572 0 0.660031 -0.00116484 3.8328e-06 0.000361521
8.72516 0 0.643208 -0.00112918 2.80942e-06 0.000481596
8.69439 0 0.627053 -0.00109232 2.41551e-06 0.000607605
8.66483 0 0.611538 -0.00105975 2.7674e-06 0.000738
8.63646 0 0.596639 -0.00103019 3.13172e-06 0.000869276
8.6092 0 0.582331 -0.000999297 3.11903e-06 0.00099819
8.58303 0 0.568591 -0.000964935 3.15131e-06 0.00112355
8.5579 0 0.555396 -0.000927609 3.05378e-06 0.00124389
8.53376 0 0.542725 -0.000889188 2.92738e-06 0.0013583
8.51058 0 0.530556 -0.000851167 2.62739e-06 0.00146492
8.48832 0 0.51887 -0.000814485 2.23573e-06 0.00156307
8.46695 0 0.507648 -0.000779929 1.70682e-06 0.00165136
8.44642 0 0.496871 -0.000747113 1.32867e-06 0.00172982
8.42671 0 0.486521 -0.000715033 9.77854e-07 0.00179764
8.40778 0 0.476583 -0.000683313 7.01692e-07 0.00185373
8.3896 0 0.467038 -0.00065294 5.24864e-07 0.00189738
8.93841 0 0.827084 -0.00131328 3.17438e-06 -0.00044496
8.89917 0 0.804525 -0.00129798 3.04544e-06 -0.000363661
8.8615 0 0.782861 -0.00128117 3.3077e-06 -0.000255214
8.82532 0 0.762056 -0.00125771 2.91282e-06 -0.00015188
8.79057 0 0.742077 -0.00123967 3.77143e-06 -4.26122e-05
8.7572 0 0.722891 -0.00122108 4.5683e-06 6.62181e-05
8.72516 0 0.704466 -0.00120595 4.96717e-06 0.000175558
8.69439 0 0.686772 -0.00118418 3.86314e-06 0.00028664
8.66483 0 0.66978 -0.00115686 3.0843e-06 0.000402304
8.63646 0 0.653462 -0.00112715 2.77533e-06 0.000523267
8.6092 0 0.637792 -0.00110033 2.97771e-06 0.000647498
8.58303 0 0.622743 -0.00107733 3.54145e-06 0.000773492
8.5579 0 0.608291 -0.0010554 3.7136e-06 0.000899416
8.53376 0 0.594413 -0.00103002 3.85063e-06 0.00102279
8.51058 0 0.581085 -0.001001 3.77719e-06 0.00114213
8.48832 0 0.568286 -0.000970297 3.80663e-06 0.00125673
8.46695 0 0.555995 -0.000938661 3.65664e-06 0.00136503
8.44642 0 0.544192 -0.000906917 3.511e-06 0.00146596
8.42671 0 0.532857 -0.000874932 3.13874e-06 0.00155819
8.40778 0 0.521971 -0.000843312 2.76067e-06 0.00164116
8.3896 0 0.511518 -0.000812124 2.3655e-06 0.00171472
8.93841 0 0.899004 -0.00130539 2.19541e-06 -0.000660645
8.89917 0 0.874483 -0.00128836 1.52608e-06 -0.000594058
8.8615 0 0.850936 -0.00129631 3.68715e-06 -0.000496073
8.82532 0 0.828322 -0.00127952 2.8387e-06 -0.000407241
8.79057 0 0.806606 -0.00127253 3.02945e-06 -0.000308205
8.7572 0 0.785751 -0.0012537 3.01494e-06 -0.000206432
8.72516 0 0.765724 -0.00123863 3.48681e-06 -0.000102158
8.69439 0 0.746491 -0.00122501 4.45195e-06 2.11967e-06
8.66483 0 0.728022 -0.00121511 4.89853e-06 0.000106551
8.63646 0 0.710285 -0.00119942 4.17004e-06 0.000212789
8.6092 0 0.693252 -0.00117675 3.18223e-06 0.000322486
8.58303 0 0.676894 -0.00115405 3.08066e-06 0.000437731
8.5579 0 0.661186 -0.00113244 3.12145e-06 0.000554741
8.53376 0 0.646101 -0.00111307 3.78693e-06 0.000674209
8.51058 0 0.631614 -0.00109667 4.21086e-06 0.000793317
8.48832 0 0.617703 -0.00107887 4.3976e-06 0.000911203
8.46695 0 0.604343 -0.00105747 4.5079e-06 0.00102699
8.44642 0 0.591513 -0.00103251 4.4219e-06 0.0011394
8.42671 0 0.579192 -0.00100519 4.5022e-06 0.00124662
8.40778 0 0.56736 -0.000976908 4.47901e-06 0.00134813
8.3896 0 0.555998 -0.00094745 4.40431e-06 0.00144275
8.37214 0 0.545086 -0.000917097 4.21492e-06 0.00153008
8.93841 0 0.970924 -0.00127658 8.19477e-07 -0.000831359
8.89917 0 0.944442 -0.00124679 -2.51026e-07 -0.000779547
8.8615 0 0.91901 -0.00128064 1.97713e-06 -0.000693222
8.82532 0 0.894588 -0.001263 1.39343e-06 -0.000621476
8.79057 0 0.871134 -0.00127581 3.3529e-06 -0.000534947
8.7572 0 0.848611 -0.0012648 2.97092e-06 -0.000450073
8.72516 0 0.826982 -0.00126318 3.6013e-06 -0.000356406
8.69439 0 0.806211 -0.00125032 3.16408e-06 -0.000260077
8.66483 0 0.786263 -0.00123755 3.84532e-06 -0.000160556
8.63646 0 0.767108 -0.00122663 4.66765e-06 -6.14582e-05
8.6092 0 0.748712 -0.00121995 5.48664e-06 3.81851e-05
8.58303 0 0.731046 -0.00120905 4.96106e-06 0.000139712
8.5579 0 0.714081 -0.00119169 3.64398e-06 0.000243235
8.53376 0 0.697789 -0.00117221 2.91047e-06 0.000351381
8.51058 0 0.682144 -0.00115278 3.43976e-06 0.000461751
8.48832 0 0.667119 -0.00113612 3.91153e-06 0.000571612
8.46695 0 0.65269 -0.00112212 4.79196e-06 0.000682525
8.44642 0 0.638834 -0.00110827 5.16679e-06 0.000793564
8.42671 0 0.625528 -0.00109154 5.48305e-06 0.000903437
8.40778 0 0.612749 -0.00107126 5.59745e-06 0.00101138
8.3896 0 0.600478 -0.00104829 5.53775e-06 0.00111624
8.37214 0 0.588693 -0.00102319 5.55111e-06 0.00121659
8.97926 0 1.07246 -0.00114629 -6.58669e-06 -0.0010173
8.93841 0 1.04284 -0.00122821 3.55575e-07 -0.000950497
8.89917 0 1.0144 -0.00119731 -1.83239e-06 -0.000909588
8.8615 0 0.987085 -0.00124361 4.9878e-08 -0.000842437
8.82532 0 0.960854 -0.00122582 -9.64308e-08 -0.000787904
8.79057 0 0.935663 -0.00125237 1.13087e-06 -0.000712383
8.7572 0 0.911471 -0.0012444 1.24504e-06 -0.000643498
8.72516 0 0.88824 -0.0012563 2.79324e-06 -0.00056385
8.69439 0 0.86593 -0.00125169 2.67754e-06 -0.000484416
8.66483 0 0.844505 -0.00125118 3.19949e-06 -0.000396817
8.63646 0 0.82393 -0.00124487 3.03888e-06 -0.000305196
8.6092 0 0.804172 -0.00123486 2.92028e-06 -0.000212062
8.58303 0 0.785198 -0.001226 3.68894e-06 -0.000118983
8.5579 0 0.766976 -0.0012216 4.69028e-06 -2.46905e-05
8.53376 0 0.749477 -0.00121206 4.68212e-06 6.90893e-05
8.51058 0 0.732673 -0.001196 4.0576e-06 0.000166752
8.48832 0 0.716535 -0.00117821 3.07475e-06 0.000266806
8.46695 0 0.701038 -0.00116323 3.20682e-06 0.000370039
8.44642 0 0.686155 -0.0011495 3.73665e-06 0.000474311
8.42671 0 0.671863 -0.00113698 4.30221e-06 0.000578208
8.40778 0 0.658138 -0.00112597 4.78857e-06 0.000681652
8.3896 0 0.644957 -0.00111311 5.066e-06 0.000784685
8.37214 0 0.6323 -0.00109719 5.25363e-06 0.000886966
8.97926 0 1.14643 -0.00106768 -8.77414e-06 -0.00104076
8.93841 0 1.11476 -0.00116491 7.02331e-07 -0.00102237
8.89917 0 1.08436 -0.00113946 -2.78605e-06 -0.000991679
8.8615 0 1.05516 -0.00119165 -3.25435e-07 -0.000953544
8.82532 0 1.02712 -0.00118293 4.52665e-08 -0.000912919
8.79057 0 1.00019 -0.00121318 5.2204e-07 -0.000856091
8.7572 0 0.974332 -0.0012085 8.48642e-07 -0.000801777
8.72516 0 0.949498 -0.00122776 1.49424e-06 -0.000735752
8.69439 0 0.925649 -0.00122893 2.39974e-06 -0.000670209
8.66483 0 0.902747 -0.00123771 3.26009e-06 -0.000597347
8.63646 0 0.880753 -0.00123794 3.81082e-06 -0.000521794
8.6092 0 0.859632 -0.00123769 4.34156e-06 -0.000441178
8.58303 0 0.839349 -0.00123506 4.33452e-06 -0.000355254
8.5579 0 0.819871 -0.00122677 4.31718e-06 -0.000267865
8.53376 0 0.801165 -0.00121723 4.61386e-06 -0.000180001
8.51058 0 0.783202 -0.00121345 5.75329e-06 -9.04999e-05
8.48832 0 0.765951 -0.00120828 6.38967e-06 -1.2486e-06
8.46695 0 0.749385 -0.00119886 5.50049e-06 8.9792e-05
8.44642 0 0.733476 -0.00118423 4.61189e-06 0.000182632
8.42671 0 0.718198 -0.0011671 3.88577e-06 0.000277291
8.40778 0 0.703527 -0.00115077 4.45823e-06 0.000372897
8.3896 0 0.689437 -0.00113651 5.14799e-06 0.000467857
8.37214 0 0.675907 -0.00112311 5.8184e-06 0.000562832
8.97926 0 1.22039 -0.000976503 -1.06492e-05 -0.000995489
8.93841 0 1.18669 -0.00108569 3.60639e-07 -0.00102262
8.89917 0 1.15432 -0.00106856 -4.70739e-06 -0.00100374
8.8615 0 1.12324 -0.00112289 -2.6058e-06 -0.000997518
8.82532 0 1.09339 -0.0011265 -1.90404e-06 -0.000973892
8.79057 0 1.06472 -0.00115776 -1.84355e-06 -0.000943314
8.7572 0 1.03719 -0.00116581 -9.64514e-07 -0.000901574
8.72516 0 1.01076 -0.00118865 -1.00999e-06 -0.000853039
8.69439 0 0.985369 -0.00119542 -4.32786e-07 -0.000798947
8.66483 0 0.960989 -0.0012088 -1.08938e-07 -0.000739247
8.63646 0 0.937576 -0.00121698 3.60204e-07 -0.000675786
8.6092 0 0.915092 -0.00122745 1.09078e-06 -0.000607528
8.58303 0 0.893501 -0.00123016 1.60259e-06 -0.000536739
8.5579 0 0.872766 -0.00123061 1.72387e-06 -0.000463057
8.53376 0 0.852853 -0.00123119 1.9255e-06 -0.000383162
8.51058 0 0.833731 -0.00122464 2.19845e-06 -0.000301259
8.48832 0 0.815367 -0.00121333 2.03537e-06 -0.000219566
8.46695 0 0.797732 -0.00120597 3.20755e-06 -0.000139031
8.44642 0 0.780797 -0.00119782 3.38939e-06 -5.73603e-05
8.42671 0 0.764534 -0.00118671 3.58071e-06 2.4528e-05
8.40778 0 0.748916 -0.0011743 3.54321e-06 0.000109741
8.3896 0 0.733917 -0.00116085 3.53256e-06 0.000196602
8.37214 0 0.719514 -0.00114807 3.50123e-06 0.000284627
8.97926 0 1.29435 -0.000881554 -1.16226e-05 -0.000913178
8.93841 0 1.25861 -0.000998946 1.10082e-06 -0.000993539
8.89917 0 1.22428 -0.000990537 -4.41278e-06 -0.000990537
8.8615 0 1.19131 -0.00104246 -1.58522e-06 -0.00102381
8.82532 0 1.15965 -0.00106073 -1.55155e-07 -0.00101955
8.79057 0 1.12925 -0.00109683 4.22818e-07 -0.0010195
8.7572 0 1.10005 -0.00111871 1.49097e-06 -0.000996092
8.72516 0 1.07201 -0.00114178 1.67613e-06 -0.000968844
8.69439 0 1.04509 -0.00115613 2.75393e-06 -0.000930748
8.66483 0 1.01923 -0.00117305 3.18702e-06 -0.000886584
8.63646 0 0.994399 -0.00118631 3.64202e-06 -0.000834874
8.6092 0 0.970552 -0.0011962 3.93006e-06 -0.000777967
8.58303 0 0.947652 -0.00120193 4.76709e-06 -0.000717908
8.5579 0 0.925661 -0.00121228 5.45699e-06 -0.000653303
8.53376 0 0.904541 -0.00121673 6.0497e-06 -0.000586486
8.51058 0 0.88426 -0.00121471 6.61165e-06 -0.000517188
8.48832 0 0.864784 -0.00121023 7.19243e-06 -0.000441864
8.46695 0 0.84608 -0.00120558 7.4813e-06 -0.000364123
8.44642 0 0.828118 -0.00119732 7.82012e-06 -0.000286002
8.42671 0 0.810869 -0.00118777 8.19027e-06 -0.000206366
8.40778 0 0.794304 -0.00118068 8.41571e-06 -0.000126508
8.3896 0 0.778397 -0.00117176 8.3323e-06 -4.75608e-05
8.37214 0 0.763121 -0.00116204 7.9336e-06 3.12659e-05
8.97926 0 1.36832 -0.000761659 -1.38415e-05 -0.000747086
8.93841 0 1.33053 -0.000889563 -2.46717e-06 -0.000858875
8.89917 0 1.29424 -0.00089667 -8.66755e-06 -0.000866516
8.8615 0 1.25938 -0.000952357 -6.31899e-06 -0.000928605
8.82532 0 1.22592 -0.000987455 -5.8212e-06 -0.00094319
8.79057 0 1.19378 -0.00102052 -5.69923e-06 -0.000969481
8.7572 0 1.16291 -0.00105578 -5.14866e-06 -0.000970481
8.72516 0 1.13327 -0.00108263 -5.41103e-06 -0.000967821
8.69439 0 1.10481 -0.00110551 -4.95994e-06 -0.000948118
8.66483 0 1.07747 -0.0011286 -4.95058e-06 -0.000922346
8.63646 0 1.05122 -0.00115111 -4.92232e-06 -0.00088733
8.6092 0 1.02601 -0.00116885 -5.08074e-06 -0.000846331
8.58303 0 1.0018 -0.00118585 -4.68188e-06 -0.000797087
8.5579 0 0.978555 -0.00120006 -4.60263e-06 -0.000743098
8.53376 0 0.95623 -0.0012091 -4.24273e-06 -0.000685315
8.51058 0 0.934789 -0.00121734 -3.92117e-06 -0.000624574
8.48832 0 0.9142 -0.00122377 -3.27803e-06 -0.000560031
8.46695 0 0.894427 -0.00122532 -2.87485e-06 -0.000492078
8.44642 0 0.875439 -0.0012226 -2.84344e-06 -0.000424066
8.42671 0 0.857204 -0.0012169 -3.00718e-06 -0.000351915
8.40778 0 0.839693 -0.00120697 -2.73607e-06 -0.000278686
8.3896 0 0.822877 -0.00119557 -2.40211e-06 -0.000206685
8.37214 0 0.806727 -0.00118329 -1.69869e-06 -0.000134962
8.97926 0 1.44228 -0.000654219 -1.26148e-05 -0.000606173
8.93841 0 1.40245 -0.000806671 -1.6826e-06 -0.000785974
8.89917 0 1.36419 -0.000829468 -4.01572e-06 -0.000851173
8.8615 0 1.32746 -0.000880321 -1.92849e-07 -0.000944081
8.82532 0 1.29218 -0.00092054 2.91767e-06 -0.000999034
8.79057 0 1.25831 -0.000957696 5.38932e-06 -0.00104625
8.7572 0 1.22577 -0.00100094 6.0715e-06 -0.00106859
8.72516 0 1.19453 -0.00103878 7.39095e-06 -0.00108333
8.69439 0 1.16453 -0.00107124 7.98198e-06 -0.00108195
8.66483 0 1.13571 -0.00110099 8.9988e-06 -0.00107346
8.63646 0 1.10804 -0.0011268 9.73079e-06 -0.00105382
8.6092 0 1.08147 -0.00114982 1.07881e-05 -0.00102751
8.58303 0 1.05596 -0.00116859 1.15481e-05 -0.000991824
8.5579 0 1.03145 -0.00118305 1.25214e-05 -0.000950839
8.53376 0 1.00792 -0.00119316 1.31363e-05 -0.000902598
8.51058 0 0.985319 -0.00119907 1.40002e-05 -0.000849172
8.48832 0 0.963616 -0.0012017 1.45989e-05 -0.000791991
8.46695 0 0.942775 -0.00119781 1.51169e-05 -0.000731915
8.44642 0 0.92276 -0.00119255 1.56728e-05 -0.000669397
8.42671 0 0.90354 -0.00118831 1.63236e-05 -0.000604845
8.40778 0 0.885082 -0.00117968 1.64095e-05 -0.000536011
8.3896 0 0.867357 -0.00116833 1.66166e-05 -0.000464422
8.37214 0 0.850334 -0.00115805 1.67247e-05 -0.000392979
7.66922 0 0.966948 -0.00165341 6.84965e-06 -0.000564536
7.67296 0 0.988324 -0.00170685 6.22309e-06 -0.000737462
7.67685 0 1.01058 -0.00174764 5.53472e-06 -0.000909198
7.68091 0 1.03376 -0.00177488 4.6061e-06 -0.00107521
7.68513 0 1.0579 -0.0017885 3.68737e-06 -0.00123187
7.68953 0 1.08303 -0.0017881 2.66876e-06 -0.00137215
7.69411 0 1.1092 -0.00177486 1.41939e-06 -0.00149126
7.69888 0 1.13646 -0.00174982 -1.29327e-07 -0.00158501
7.70385 0 1.16483 -0.0017141 -1.55642e-06 -0.00164892
7.70902 0 1.19439 -0.00166819 -3.5197e-06 -0.00167931
7.7144 0 1.22516 -0.00161293 -5.33603e-06 -0.00167002
7.72001 0 1.2572 -0.00155319 -7.06155e-06 -0.00161908
7.72585 0 1.29057 -0.00148706 -9.01124e-06 -0.00152248
7.73193 0 1.32532 -0.00141203 -1.24799e-05 -0.00137005
7.70425 0 0.907776 -0.00129255 6.32661e-06 -0.000135636
7.70851 0 0.926708 -0.00137571 6.71809e-06 -0.000269471
7.71294 0 0.946421 -0.00144733 6.65024e-06 -0.000409174
7.71756 0 0.966948 -0.00150954 6.12038e-06 -0.000561194
7.72237 0 0.988324 -0.00156127 5.56972e-06 -0.000714365
7.72738 0 1.01058 -0.00160242 4.93717e-06 -0.000866402
7.7326 0 1.03376 -0.00163204 4.04915e-06 -0.00101313
7.73803 0 1.0579 -0.00165027 3.20526e-06 -0.00115098
7.74368 0 1.08303 -0.00165643 2.24307e-06 -0.0012747
7.74957 0 1.1092 -0.00165093 1.08002e-06 -0.00138069
7.7557 0 1.13646 -0.00163397 -3.00685e-07 -0.00146399
7.76209 0 1.16483 -0.00160642 -1.48394e-06 -0.00152163
7.76874 0 1.19439 -0.00156822 -3.12168e-06 -0.00154775
7.77566 0 1.22516 -0.00152012 -4.80013e-06 -0.00153995
7.78287 0 1.2572 -0.00146684 -6.26478e-06 -0.00149498
7.79038 0 1.29057 -0.00140682 -8.08442e-06 -0.00141115
7.7982 0 1.32532 -0.00133882 -1.04559e-05 -0.00127455
7.73984 0 0.872138 -0.000993139 5.01516e-06 2.8269e-05
7.74464 0 0.889596 -0.00108255 5.34686e-06 -7.44717e-05
7.74964 0 0.907776 -0.00116847 6.16604e-06 -0.000186958
7.75484 0 0.926708 -0.00124593 6.27144e-06 -0.000305492
7.76027 0 0.946421 -0.00131616 5.85356e-06 -0.000433249
7.76591 0 0.966948 -0.00137689 5.42464e-06 -0.000568754
7.77179 0 0.988324 -0.00142853 4.95647e-06 -0.000704564
7.77791 0 1.01058 -0.00147081 4.40659e-06 -0.000839456
7.78428 0 1.03376 -0.00150228 3.62221e-06 -0.000969467
7.79092 0 1.0579 -0.00152304 2.80255e-06 -0.00109087
7.79783 0 1.08303 -0.00153344 1.88434e-06 -0.00119906
7.80503 0 1.1092 -0.00153358 8.48067e-07 -0.00129127
7.81253 0 1.13646 -0.0015228 -3.64833e-07 -0.00136337
7.82033 0 1.16483 -0.00150194 -1.40142e-06 -0.00141246
7.82846 0 1.19439 -0.0014699 -2.95888e-06 -0.0014331
7.83692 0 1.22516 -0.00142882 -4.53214e-06 -0.00142358
7.84573 0 1.2572 -0.00137989 -5.89331e-06 -0.00138553
7.85491 0 1.29057 -0.00132701 -7.28803e-06 -0.00130824
7.86446 0 1.32532 -0.00126259 -9.42731e-06 -0.00118274
7.87441 0 1.3615 -0.00119117 -1.1602e-05 -0.00101953
7.778 0 0.855372 -0.000810337 4.15402e-06 3.43038e-05
7.78344 0 0.872138 -0.000897591 4.41598e-06 -4.84037e-05
7.78912 0 0.889596 -0.000984003 5.12755e-06 -0.000144479
7.79503 0 0.907776 -0.00106575 5.32074e-06 -0.000243127
7.80118 0 0.926708 -0.00114055 5.4828e-06 -0.000349203
7.80759 0 0.946421 -0.00120838 4.95419e-06 -0.000467017
7.81426 0 0.966948 -0.00126807 4.64839e-06 -0.000587759
7.82121 0 0.988324 -0.00131956 4.25243e-06 -0.000708719
7.82844 0 1.01058 -0.00136237 3.73523e-06 -0.000828187
7.83597 0 1.03376 -0.00139556 3.12632e-06 -0.000942545
7.84382 0 1.0579 -0.00141863 2.40906e-06 -0.00104938
7.85199 0 1.08303 -0.00143098 1.5141e-06 -0.00114393
7.86049 0 1.1092 -0.00143347 5.09904e-07 -0.00122274
7.86935 0 1.13646 -0.00142562 -4.98509e-07 -0.00128312
7.87857 0 1.16483 -0.00140763 -1.57848e-06 -0.00132233
7.88818 0 1.19439 -0.00137924 -3.149e-06 -0.0013376
7.89818 0 1.22516 -0.00134235 -4.23441e-06 -0.0013237
7.90859 0 1.2572 -0.00129761 -5.76934e-06 -0.00128857
7.91944 0 1.29057 -0.00124954 -6.72834e-06 -0.00121794
7.93073 0 1.32532 -0.0011899 -8.16845e-06 -0.00109859
7.94249 0 1.3615 -0.00112351 -1.0039e-05 -0.000952753
7.81473 0 0.839271 -0.000671812 3.28888e-06 1.83774e-05
7.82076 0 0.855372 -0.000754542 3.60033e-06 -4.79313e-05
7.82705 0 0.872138 -0.00083616 3.79828e-06 -0.000130872
7.8336 0 0.889596 -0.000919781 4.32217e-06 -0.000216771
7.84042 0 0.907776 -0.000996747 4.84055e-06 -0.000302023
7.84752 0 0.926708 -0.00106678 4.37284e-06 -0.000400434
7.85491 0 0.946421 -0.00113094 4.01392e-06 -0.000507871
7.86261 0 0.966948 -0.00118844 3.81297e-06 -0.000615562
7.87062 0 0.988324 -0.00123851 3.43526e-06 -0.000723279
7.87897 0 1.01058 -0.00128038 2.94123e-06 -0.000829198
7.88766 0 1.03376 -0.00131315 2.39771e-06 -0.000929735
7.89671 0 1.0579 -0.0013364 1.72417e-06 -0.00102238
7.90614 0 1.08303 -0.00134916 9.73703e-07 -0.00110379
7.91595 0 1.1092 -0.00135175 5.18662e-08 -0.00117139
7.92617 0 1.13646 -0.00134413 -8.63043e-07 -0.00122126
7.93681 0 1.16483 -0.00132739 -1.62853e-06 -0.00125222
7.94789 0 1.19439 -0.00130121 -2.85688e-06 -0.00125957
7.95943 0 1.22516 -0.00126587 -4.00944e-06 -0.00124102
7.97145 0 1.2572 -0.00122411 -5.55014e-06 -0.0012086
7.98396 0 1.29057 -0.00117862 -6.13529e-06 -0.00114012
7.99699 0 1.32532 -0.00112164 -7.13837e-06 -0.00102301
8.01056 0 1.3615 -0.00105955 -9.09419e-06 -0.000891856
8.02469 0 1.39917 -0.000978918 -1.24725e-05 -0.000709668
7.85669 0 0.839271 -0.000662275 3.13684e-06 -6.02402e-05
7.86353 0 0.855372 -0.000737192 3.05841e-06 -0.000128356
7.87066 0 0.872138 -0.000816601 3.83505e-06 -0.000204848
7.87808 0 0.889596 -0.000890777 3.58462e-06 -0.000281563
7.8858 0 0.907776 -0.000962315 4.28375e-06 -0.000360606
7.89385 0 0.926708 -0.00102692 3.63297e-06 -0.000452363
7.90223 0 0.946421 -0.00108643 3.35679e-06 -0.000548909
7.91095 0 0.966948 -0.00114067 3.18517e-06 -0.000645431
7.92004 0 0.988324 -0.00118753 2.82826e-06 -0.000741907
7.9295 0 1.01058 -0.00122636 2.3779e-06 -0.000835639
7.93935 0 1.03376 -0.00125584 1.84941e-06 -0.000923621
7.94961 0 1.0579 -0.00127638 1.17797e-06 -0.00100359
7.96029 0 1.08303 -0.00128679 4.84087e-07 -0.00107307
7.97141 0 1.1092 -0.0012884 -2.93586e-07 -0.00113023
7.98299 0 1.13646 -0.00127988 -1.09731e-06 -0.00117156
7.99505 0 1.16483 -0.00126263 -1.86713e-06 -0.00119504
8.00761 0 1.19439 -0.00123618 -2.85861e-06 -0.00119729
8.02069 0 1.22516 -0.00120264 -3.74577e-06 -0.00117743
8.03431 0 1.2572 -0.00116116 -5.77092e-06 -0.00114379
8.04849 0 1.29057 -0.00111615 -5.90667e-06 -0.00107516
8.06326 0 1.32532 -0.00106287 -6.06536e-06 -0.00096259
8.07864 0 1.3615 -0.00100404 -7.96308e-06 -0.00084157
8.09465 0 1.39917 -0.000925293 -1.11741e-05 -0.000675186
7.89865 0 0.839271 -0.000681529 2.50296e-06 -0.000128533
7.9063 0 0.855372 -0.000749233 3.38486e-06 -0.000197308
7.91427 0 0.872138 -0.000820802 3.18417e-06 -0.000270717
7.92256 0 0.889596 -0.000888072 3.45565e-06 -0.000335771
7.93119 0 0.907776 -0.000952849 4.0124e-06 -0.000411793
7.94019 0 0.926708 -0.00100945 2.95219e-06 -0.000499068
7.94955 0 0.946421 -0.00106244 2.58514e-06 -0.000587129
7.9593 0 0.966948 -0.00111149 2.54049e-06 -0.0006734
7.96945 0 0.988324 -0.00115379 2.33171e-06 -0.000759399
7.98003 0 1.01058 -0.00118749 1.87408e-06 -0.000841989
7.99104 0 1.03376 -0.00121252 1.21669e-06 -0.00091931
8.0025 0 1.0579 -0.00122907 7.03658e-07 -0.000988513
8.01444 0 1.08303 -0.00123734 8.68838e-10 -0.0010478
8.02687 0 1.1092 -0.00123745 -5.56766e-07 -0.00109622
8.03982 0 1.13646 -0.00122879 -1.21724e-06 -0.00113011
8.0533 0 1.16483 -0.00121128 -1.87287e-06 -0.00114836
8.06733 0 1.19439 -0.00118394 -2.96523e-06 -0.00114485
8.08195 0 1.22516 -0.00115026 -3.8413e-06 -0.00112568
8.09717 0 1.2572 -0.00110789 -6.12756e-06 -0.00109223
8.11302 0 1.29057 -0.00106513 -5.25824e-06 -0.00102241
8.12952 0 1.32532 -0.00101251 -5.2609e-06 -0.000911956
8.14671 0 1.3615 -0.000954953 -7.0094e-06 -0.000798844
8.16461 0 1.39917 -0.000878106 -1.06201e-05 -0.000647049
8.18324 0 1.43841 -0.000802399 -9.76456e-06 -0.000479254
7.94062 0 0.839271 -0.000724799 3.14057e-06 -0.00018084
7.94907 0 0.855372 -0.000784123 3.5782e-06 -0.000248397
7.95787 0 0.872138 -0.000846055 2.68196e-06 -0.000317313
7.96704 0 0.889596 -0.000906877 3.37899e-06 -0.000377723
7.97658 0 0.907776 -0.000964658 3.95613e-06 -0.000449706
7.98652 0 0.926708 -0.00101418 3.0284e-06 -0.000531641
7.99687 0 0.946421 -0.00105988 2.5516e-06 -0.000614412
8.00765 0 0.966948 -0.00110142 2.16547e-06 -0.000694211
8.01887 0 0.988324 -0.00113683 1.85491e-06 -0.00077129
8.03056 0 1.01058 -0.00116505 1.49634e-06 -0.000845357
8.04272 0 1.03376 -0.00118579 1.03422e-06 -0.000913892
8.0554 0 1.0579 -0.00119849 4.98501e-07 -0.000975419
8.06859 0 1.08303 -0.00120405 -2.76464e-08 -0.00102719
8.08233 0 1.1092 -0.00120127 -6.33672e-07 -0.00106795
8.09664 0 1.13646 -0.00119109 -1.10387e-06 -0.00109587
8.11154 0 1.16483 -0.00117228 -1.75068e-06 -0.00110863
8.12705 0 1.19439 -0.00114421 -2.831e-06 -0.00110476
8.14321 0 1.22516 -0.00111062 -4.26365e-06 -0.00108348
8.16003 0 1.2572 -0.00106663 -6.01419e-06 -0.00105003
8.17755 0 1.29057 -0.00102504 -4.63384e-06 -0.000979948
8.19579 0 1.32532 -0.000972491 -4.49212e-06 -0.000871174
8.21479 0 1.3615 -0.00091441 -6.65386e-06 -0.000766705
8.23457 0 1.39917 -0.000840257 -9.81436e-06 -0.000627783
8.25516 0 1.43841 -0.000765156 -9.25146e-06 -0.000468862
8.27661 0 1.47926 -0.000655289 -1.3453e-05 -0.000267289
7.99184 0 0.855372 -0.000823405 3.87358e-06 -0.000288296
8.00148 0 0.872138 -0.000876161 1.62497e-06 -0.000357831
8.01152 0 0.889596 -0.000930124 2.8867e-06 -0.000413947
8.02197 0 0.907776 -0.000980291 3.36806e-06 -0.000482179
8.03286 0 0.926708 -0.00102399 2.84096e-06 -0.000558371
8.04419 0 0.946421 -0.00106168 2.18921e-06 -0.000634759
8.056 0 0.966948 -0.0010949 1.81003e-06 -0.000709074
8.06829 0 0.988324 -0.0011228 1.42522e-06 -0.000780291
8.08109 0 1.01058 -0.00114469 9.61989e-07 -0.000847102
8.09441 0 1.03376 -0.00116077 6.28407e-07 -0.00090839
8.10829 0 1.0579 -0.00117033 1.19345e-07 -0.000963093
8.12274 0 1.08303 -0.00117323 -2.97769e-07 -0.00100887
8.13779 0 1.1092 -0.00116876 -8.34905e-07 -0.00104339
8.15346 0 1.13646 -0.00115691 -1.28316e-06 -0.00106643
8.16978 0 1.16483 -0.00113728 -1.79659e-06 -0.00107453
8.18677 0 1.19439 -0.0011086 -3.15434e-06 -0.0010711
8.20447 0 1.22516 -0.00107434 -4.94264e-06 -0.00105007
8.22289 0 1.2572 -0.00103046 -5.81265e-06 -0.00101395
8.24208 0 1.29057 -0.000990806 -3.34935e-06 -0.000944157
8.26206 0 1.32532 -0.000938402 -3.77985e-06 -0.000837143
8.28286 0 1.3615 -0.000880246 -6.61169e-06 -0.000739718
8.30452 0 1.39917 -0.00080567 -9.92065e-06 -0.000613146
8.32708 0 1.43841 -0.000731553 -9.2237e-06 -0.000462264
8.35057 0 1.47926 -0.000625523 -1.24594e-05 -0.000278316
8.03461 0 0.855372 -0.000874772 4.52735e-06 -0.000310187
8.04509 0 0.872138 -0.000919095 1.7656e-06 -0.00038392
8.056 0 0.889596 -0.000966555 3.24005e-06 -0.000437906
8.06736 0 0.907776 -0.00101006 3.79391e-06 -0.00050455
8.07919 0 0.926708 -0.00104722 3.39641e-06 -0.000577314
8.09151 0 0.946421 -0.00107834 2.75091e-06 -0.000648103
8.10434 0 0.966948 -0.00110471 2.22933e-06 -0.000716949
8.1177 0 0.988324 -0.00112625 1.85698e-06 -0.00078315
8.13161 0 1.01058 -0.00114318 1.37477e-06 -0.00084569
8.1461 0 1.03376 -0.00115461 9.5325e-07 -0.00090229
8.16119 0 1.0579 -0.00115978 3.91898e-07 -0.00095192
8.17689 0 1.08303 -0.00115884 -2.37734e-08 -0.000992911
8.19325 0 1.1092 -0.00115102 -6.19558e-07 -0.00102302
8.21028 0 1.13646 -0.00113668 -1.07132e-06 -0.00104139
8.22802 0 1.16483 -0.00111462 -1.95722e-06 -0.00104644
8.24649 0 1.19439 -0.00108586 -3.17649e-06 -0.00104396
8.26572 0 1.22516 -0.00104948 -4.78539e-06 -0.00102319
8.28575 0 1.2572 -0.00100493 -5.0632e-06 -0.000982335
8.30661 0 1.29057 -0.00096512 -2.23038e-06 -0.000912434
8.32832 0 1.32532 -0.000914964 -2.9653e-06 -0.000812332
8.35094 0 1.3615 -0.000857292 -6.4061e-06 -0.000722226
8.37448 0 1.39917 -0.000782578 -9.81435e-06 -0.00060504
8.399 0 1.43841 -0.000708634 -8.64231e-06 -0.000459299
8.42454 0 1.47926 -0.000605681 -1.1321e-05 -0.000289017
8.07738 0 0.855372 -0.00091169 3.93902e-06 -0.000331899
8.08869 0 0.872138 -0.000948403 6.1012e-07 -0.00040883
8.10048 0 0.889596 -0.000988269 2.32517e-06 -0.000462676
8.11275 0 0.907776 -0.00102497 2.72996e-06 -0.000527673
8.12553 0 0.926708 -0.00105471 2.2967e-06 -0.000598542
8.13883 0 0.946421 -0.00107954 1.89233e-06 -0.00066641
8.15269 0 0.966948 -0.00110029 1.45764e-06 -0.000729807
8.16712 0 0.988324 -0.00111606 9.59562e-07 -0.000790044
8.18214 0 1.01058 -0.00112772 4.01579e-07 -0.000847706
8.19779 0 1.03376 -0.00113477 4.57462e-08 -0.000899405
8.21408 0 1.0579 -0.00113662 -4.70591e-07 -0.000943927
8.23105 0 1.08303 -0.00113298 -7.77825e-07 -0.000980114
8.24871 0 1.1092 -0.00112336 -1.37681e-06 -0.00100622
8.26711 0 1.13646 -0.00110652 -2.06464e-06 -0.00102224
8.28626 0 1.16483 -0.00108357 -3.0091e-06 -0.00102494
8.30621 0 1.19439 -0.00105384 -3.83594e-06 -0.00102044
8.32698 0 1.22516 -0.0010167 -5.06887e-06 -0.00100016
8.34861 0 1.2572 -0.00097318 -4.61564e-06 -0.00095642
8.37113 0 1.29057 -0.000935529 -1.85685e-06 -0.000885709
8.39459 0 1.32532 -0.000889925 -2.752e-06 -0.000793422
8.41901 0 1.3615 -0.000833699 -6.39452e-06 -0.000710493
8.44444 0 1.39917 -0.000760134 -9.56135e-06 -0.000600979
8.47092 0 1.43841 -0.000686035 -8.4065e-06 -0.00045976
8.4985 0 1.47926 -0.000588045 -1.03842e-05 -0.000304445
8.12014 0 0.855372 -0.000970147 5.27841e-06 -0.000337555
8.1323 0 0.872138 -0.000999711 2.11329e-06 -0.000415558
8.14496 0 0.889596 -0.00103569 3.60428e-06 -0.000466676
8.15814 0 0.907776 -0.00106756 3.79894e-06 -0.000535567