# wallShearStress  FACE_DATA 60650
# x  y  z  wallShearStress_x  wallShearStress_y  wallShearStress_z
8.75721 0 0.345731 0.00138384 -7.96612e-06 0.000474842
8.72516 0 0.336919 0.00123609 -6.82474e-06 0.000447472
8.69439 0 0.328456 0.00107398 -8.2377e-06 0.000390985
8.66483 0 0.320329 0.000900369 -7.67059e-06 0.000318754
8.63646 0 0.312526 0.000739135 -6.72346e-06 0.00024547
8.6092 0 0.305031 0.000584021 -6.74044e-06 0.000169102
8.58303 0 0.297833 0.000422282 -9.14875e-06 8.12938e-05
8.82531 0 0.430728 0.00169577 -9.905e-06 0.000764647
8.79057 0 0.419435 0.00160586 -8.83253e-06 0.000710916
8.75721 0 0.408591 0.00149023 -8.30917e-06 0.000653956
8.72516 0 0.398176 0.00135237 -7.36564e-06 0.000595894
8.69439 0 0.388175 0.00120908 -7.97261e-06 0.000528361
8.66483 0 0.378571 0.00106072 -6.44297e-06 0.000450245
8.63646 0 0.369348 0.000907528 -7.15879e-06 0.000356557
8.6092 0 0.360491 0.000747837 -6.52782e-06 0.000260839
8.58303 0 0.351985 0.000584461 -7.72463e-06 0.000159565
8.5579 0 0.343817 0.000413097 -9.83978e-06 5.87327e-05
8.53376 0 0.335973 0.000254477 -8.13509e-06 -4.171e-05
8.51058 0 0.32844 0.000115068 -1.00589e-05 -0.000138686
8.9384 0 0.539403 0.00200506 -9.10002e-06 0.00115359
8.89917 0 0.52469 0.00193183 -7.46852e-06 0.00108777
8.8615 0 0.510562 0.00185039 -8.91826e-06 0.00101962
8.82531 0 0.496994 0.00176407 -8.11825e-06 0.000947373
8.79057 0 0.483964 0.00168417 -7.25979e-06 0.000877169
8.75721 0 0.471451 0.00157747 -6.94279e-06 0.000809111
8.72516 0 0.459434 0.00145508 -6.56023e-06 0.000737533
8.69439 0 0.447895 0.00133135 -7.31309e-06 0.000656456
8.66483 0 0.436813 0.00120046 -6.55289e-06 0.000567585
8.63646 0 0.426171 0.00105722 -7.30906e-06 0.000469922
8.6092 0 0.415951 0.000906969 -6.45532e-06 0.000367355
8.58303 0 0.406136 0.000749198 -7.0048e-06 0.000258019
8.5579 0 0.396712 0.000585119 -7.52363e-06 0.000145935
8.53376 0 0.387661 0.000422213 -8.98441e-06 2.89741e-05
8.51058 0 0.378969 0.000266651 -7.00385e-06 -8.34841e-05
8.48833 0 0.370622 0.000125992 -1.02977e-05 -0.000192152
8.46695 0 0.362605 6.4844e-06 -8.20222e-06 -0.000294232
8.9384 0 0.611323 0.00205603 -9.34258e-06 0.00134256
8.89917 0 0.594649 0.00198504 -5.38639e-06 0.001261
8.8615 0 0.578636 0.00191726 -6.33677e-06 0.00117543
8.82531 0 0.563259 0.00183105 -7.70332e-06 0.00108787
8.79057 0 0.548492 0.00175363 -5.6574e-06 0.00100799
8.75721 0 0.534311 0.00165794 -5.27618e-06 0.000932371
8.72516 0 0.520692 0.00155166 -5.29038e-06 0.000851939
8.69439 0 0.507614 0.00144387 -6.4731e-06 0.000764822
8.66483 0 0.495055 0.00132705 -6.04916e-06 0.000671665
8.63646 0 0.482994 0.00119827 -6.90173e-06 0.000571316
8.6092 0 0.471411 0.00106252 -6.46099e-06 0.000465993
8.58303 0 0.460288 0.000916601 -6.93193e-06 0.000354439
8.5579 0 0.449607 0.00076261 -6.2484e-06 0.000237572
8.53376 0 0.439349 0.000602604 -8.37087e-06 0.000115361
8.51058 0 0.429498 0.000441901 -7.97634e-06 -8.62009e-06
8.48833 0 0.420038 0.000288927 -6.67968e-06 -0.000130568
8.46695 0 0.410953 0.000151171 -9.1812e-06 -0.000247742
8.44642 0 0.402229 3.61312e-05 -7.16716e-06 -0.000359858
8.42671 0 0.393851 -3.95015e-05 -2.63423e-06 -0.000461294
8.9384 0 0.683243 0.00210945 -1.04856e-05 0.00147828
8.89917 0 0.664607 0.00204565 -5.97462e-06 0.00138971
8.8615 0 0.646711 0.00196974 -7.42605e-06 0.00129553
8.82531 0 0.629525 0.00189176 -5.89078e-06 0.00120432
8.79057 0 0.613021 0.00181782 -6.19239e-06 0.00111445
8.75721 0 0.597171 0.00173016 -4.75714e-06 0.00103251
8.72516 0 0.58195 0.00163956 -4.50258e-06 0.000941466
8.69439 0 0.567333 0.00154509 -5.3383e-06 0.000854113
8.66483 0 0.553296 0.00144268 -5.66796e-06 0.000762672
8.63646 0 0.539816 0.0013276 -6.28703e-06 0.000662472
8.6092 0 0.526871 0.00120487 -6.06551e-06 0.000556399
8.58303 0 0.51444 0.00107306 -6.76317e-06 0.000445119
8.5579 0 0.502501 0.000933811 -6.35496e-06 0.000328707
8.53376 0 0.491037 0.000786068 -6.94953e-06 0.000206164
8.51058 0 0.480027 0.000631695 -8.72818e-06 7.86018e-05
8.48833 0 0.469454 0.000474692 -7.85627e-06 -5.17788e-05
8.46695 0 0.4593 0.00032387 -6.6538e-06 -0.00018012
8.44642 0 0.44955 0.000188485 -8.36718e-06 -0.000303677
8.42671 0 0.440186 7.56776e-05 -5.46215e-06 -0.000420866
8.40778 0 0.431194 -7.97009e-07 -3.45196e-06 -0.000529346
8.38959 0 0.422558 -4.23222e-05 -1.59555e-06 -0.000634375
8.9384 0 0.755163 0.00215319 -6.03409e-06 0.00157795
8.89917 0 0.734566 0.00209397 -5.44018e-06 0.00148614
8.8615 0 0.714786 0.00203332 -5.86863e-06 0.00139619
8.82531 0 0.69579 0.00195762 -5.72582e-06 0.00130229
8.79057 0 0.677549 0.00187925 -5.64879e-06 0.00120825
8.75721 0 0.660031 0.00180353 -5.76604e-06 0.00111599
8.72516 0 0.643208 0.00172159 -4.04308e-06 0.00102504
8.69439 0 0.627053 0.0016285 -4.04194e-06 0.000930522
8.66483 0 0.611538 0.00154198 -4.56752e-06 0.000839704
8.63646 0 0.596639 0.00144668 -5.75244e-06 0.000744736
8.6092 0 0.582331 0.00133874 -5.78591e-06 0.000641796
8.58303 0 0.568591 0.00121927 -6.18413e-06 0.000531684
8.5579 0 0.555397 0.00109346 -6.28908e-06 0.000416488
8.53376 0 0.542725 0.000959052 -6.57334e-06 0.000296119
8.51058 0 0.530556 0.000817104 -7.23904e-06 0.000170183
8.48833 0 0.518871 0.000667389 -9.4327e-06 3.90926e-05
8.46695 0 0.507648 0.000514629 -7.39379e-06 -9.57507e-05
8.44642 0 0.496871 0.000366192 -7.63412e-06 -0.000229232
8.42671 0 0.486522 0.000231624 -6.77532e-06 -0.0003587
8.40778 0 0.476583 0.000122973 -3.62932e-06 -0.000482295
8.38959 0 0.467038 5.08637e-05 -4.51833e-06 -0.000599923
8.9384 0 0.827083 0.00218416 -7.31986e-06 0.0016528
8.89917 0 0.804525 0.00212277 -3.86711e-06 0.00156319
8.8615 0 0.782861 0.00205935 -6.9254e-06 0.00147007
8.82531 0 0.762056 0.00199973 -5.47634e-06 0.00138355
8.79057 0 0.742077 0.00193785 -5.49285e-06 0.00129188
8.75721 0 0.722891 0.00186204 -5.60197e-06 0.001198
8.72516 0 0.704466 0.00179151 -5.30611e-06 0.00110645
8.69439 0 0.686772 0.00171009 -4.5377e-06 0.00101182
8.66483 0 0.66978 0.00162077 -4.29703e-06 0.000912762
8.63646 0 0.653462 0.00153894 -4.57948e-06 0.000817165
8.6092 0 0.637792 0.00145088 -5.54512e-06 0.000720529
8.58303 0 0.622743 0.00134865 -6.0541e-06 0.000617437
8.5579 0 0.608291 0.00123648 -5.98232e-06 0.00050586
8.53376 0 0.594413 0.00111603 -6.37379e-06 0.000387985
8.51058 0 0.581085 0.000989216 -6.31346e-06 0.000264503
8.48833 0 0.568287 0.000853796 -7.99384e-06 0.000135871
8.46695 0 0.555995 0.00071091 -9.46578e-06 1.88724e-06
8.44642 0 0.544192 0.000563404 -7.57531e-06 -0.000136857
8.42671 0 0.532857 0.0004192 -8.41369e-06 -0.000274427
8.40778 0 0.521972 0.000287054 -6.79014e-06 -0.000409519
8.38959 0 0.511518 0.000179902 -2.84246e-06 -0.000538185
8.9384 0 0.899004 0.00217643 -8.15239e-06 0.00171357
8.89917 0 0.874483 0.00213246 -1.45445e-06 0.00162731
8.8615 0 0.850935 0.00208504 -4.87341e-06 0.00153349
8.82531 0 0.828322 0.00202858 -4.54442e-06 0.00144217
8.79057 0 0.806606 0.00197371 -5.4298e-06 0.00135394
8.75721 0 0.785751 0.0019153 -4.42149e-06 0.00126692
8.72516 0 0.765724 0.0018479 -4.99791e-06 0.00117466
8.69439 0 0.746491 0.00178167 -4.87714e-06 0.00108362
8.66483 0 0.728022 0.00171265 -4.41336e-06 0.000987681
8.63646 0 0.710285 0.00162754 -3.98458e-06 0.000889118
8.6092 0 0.693252 0.0015461 -4.32205e-06 0.000788415
8.58303 0 0.676895 0.00146551 -4.83511e-06 0.000691327
8.5579 0 0.661186 0.00137445 -5.64377e-06 0.000589188
8.53376 0 0.646101 0.00126955 -5.8881e-06 0.00047854
8.51058 0 0.631614 0.00115613 -6.08676e-06 0.000359371
8.48833 0 0.617703 0.00103449 -6.2717e-06 0.000234937
8.46695 0 0.604343 0.000906255 -8.28649e-06 0.000105409
8.44642 0 0.591513 0.000769723 -9.26824e-06 -2.96445e-05
8.42671 0 0.579192 0.00062774 -7.72512e-06 -0.000170035
8.40778 0 0.56736 0.000487399 -9.27789e-06 -0.000310061
8.38959 0 0.555998 0.000354799 -6.90208e-06 -0.000448965
8.37214 0 0.545086 0.000250511 -3.24833e-06 -0.000582623
8.9384 0 0.970925 0.00213241 -8.17883e-06 0.00176086
8.89917 0 0.944442 0.00210064 -1.05995e-06 0.00168142
8.8615 0 0.91901 0.00205763 -5.26026e-06 0.00159052
8.82531 0 0.894588 0.00201382 -3.40221e-06 0.00150829
8.79057 0 0.871135 0.0019675 -5.39573e-06 0.00141766
8.75721 0 0.848612 0.00191509 -5.61563e-06 0.00132775
8.72516 0 0.826982 0.00186532 -5.50493e-06 0.00123731
8.69439 0 0.806211 0.00180334 -5.1416e-06 0.00114588
8.66483 0 0.786263 0.00173725 -5.4688e-06 0.00105649
8.63646 0 0.767108 0.00167808 -4.93524e-06 0.000967117
8.6092 0 0.748712 0.00160496 -4.55836e-06 0.000868912
8.58303 0 0.731046 0.00152447 -4.83957e-06 0.000762629
8.5579 0 0.714081 0.00144722 -5.59439e-06 0.000664778
8.53376 0 0.697789 0.0013677 -5.78538e-06 0.000563717
8.51058 0 0.682144 0.00127584 -6.32192e-06 0.000451794
8.48833 0 0.667119 0.00116983 -6.22457e-06 0.00033254
8.46695 0 0.65269 0.00105782 -6.45894e-06 0.000206654
8.44642 0 0.638834 0.000938812 -8.53018e-06 7.61391e-05
8.42671 0 0.625528 0.000812925 -9.12578e-06 -5.97934e-05
8.40778 0 0.612749 0.000681234 -8.08731e-06 -0.000200893
8.38959 0 0.600478 0.000549049 -8.9275e-06 -0.000342845
8.37214 0 0.588693 0.000426097 -6.68393e-06 -0.000484645
8.97926 0 1.07246 0.00189209 1.8561e-05 0.00188524
8.9384 0 1.04284 0.00205418 -9.44788e-06 0.00176059
8.89917 0 1.0144 0.00203641 -1.91509e-07 0.00170329
8.8615 0 0.987085 0.00200835 -5.99347e-06 0.00161326
8.82531 0 0.960854 0.00198528 -2.43408e-06 0.00153454
8.79057 0 0.935663 0.00196364 -4.82828e-06 0.00144384
8.75721 0 0.911471 0.00193162 -4.08924e-06 0.00135651
8.72516 0 0.88824 0.00189067 -5.16243e-06 0.00127157
8.69439 0 0.86593 0.00184453 -4.19532e-06 0.00119238
8.66483 0 0.844505 0.00179212 -4.13442e-06 0.00110941
8.63646 0 0.823931 0.00174217 -3.66084e-06 0.00102512
8.6092 0 0.804172 0.00170361 -3.6608e-06 0.00094099
8.58303 0 0.785198 0.00163585 -4.21582e-06 0.000845831
8.5579 0 0.766976 0.00155094 -4.23896e-06 0.000745386
8.53376 0 0.749477 0.0014844 -5.20137e-06 0.000648873
8.51058 0 0.732673 0.00141086 -5.74468e-06 0.000552448
8.48833 0 0.716535 0.00132295 -6.14205e-06 0.000444937
8.46695 0 0.701038 0.00122621 -6.38952e-06 0.000326796
8.44642 0 0.686155 0.00111944 -6.90594e-06 0.000201868
8.42671 0 0.671863 0.00100712 -8.7829e-06 7.10116e-05
8.40778 0 0.658138 0.000888699 -8.96077e-06 -6.51771e-05
8.38959 0 0.644957 0.000764902 -8.58678e-06 -0.000207586
8.37214 0 0.6323 0.000639579 -9.21078e-06 -0.000351321
8.97926 0 1.14643 0.00165554 3.14265e-05 0.00186688
8.9384 0 1.11476 0.00191731 -1.56751e-05 0.00171152
8.89917 0 1.08436 0.00187924 7.32077e-07 0.001712
8.8615 0 1.05516 0.0018773 -5.80885e-06 0.00164055
8.82531 0 1.02712 0.00187369 -1.09205e-06 0.00157989
8.79057 0 1.00019 0.00186317 -4.94892e-06 0.00150031
8.75721 0 0.974331 0.00183457 -3.93063e-06 0.00141881
8.72516 0 0.949498 0.00180035 -5.60763e-06 0.00133014
8.69439 0 0.925649 0.00176483 -6.04499e-06 0.00123886
8.66483 0 0.902747 0.00173331 -6.79621e-06 0.00114499
8.63646 0 0.880753 0.00169709 -6.04706e-06 0.0010518
8.6092 0 0.859632 0.00165196 -6.10849e-06 0.000963717
8.58303 0 0.839349 0.0016075 -5.55911e-06 0.000884738
8.5579 0 0.819871 0.00155904 -3.53063e-06 0.000797527
8.53376 0 0.801165 0.00149904 -3.79677e-06 0.000699629
8.51058 0 0.783202 0.00144371 -4.6795e-06 0.00060738
8.48833 0 0.765951 0.00138744 -5.90127e-06 0.000515992
8.46695 0 0.749385 0.00131605 -6.30566e-06 0.000415241
8.44642 0 0.733476 0.00123144 -6.45027e-06 0.000303427
8.42671 0 0.718198 0.00113852 -7.16984e-06 0.000181537
8.40778 0 0.703526 0.00103699 -8.82139e-06 5.45064e-05
8.38959 0 0.689437 0.000930541 -9.32432e-06 -7.86654e-05
8.37214 0 0.675907 0.000816006 -9.46799e-06 -0.000218064
8.97926 0 1.22039 0.00133581 4.62291e-05 0.00174324
8.9384 0 1.18669 0.00168945 -2.22024e-05 0.00155116
8.89917 0 1.15432 0.00164957 8.92982e-06 0.00163131
8.8615 0 1.12324 0.00172216 -4.0938e-06 0.00157682
8.82531 0 1.09339 0.00176012 4.48158e-08 0.00154238
8.79057 0 1.06472 0.00178516 -5.1052e-06 0.0014817
8.75721 0 1.03719 0.00179198 -3.90448e-06 0.00141639
8.72516 0 1.01076 0.00178691 -5.61207e-06 0.00133863
8.69439 0 0.985369 0.00177254 -4.24427e-06 0.00126069
8.66483 0 0.960988 0.00174744 -5.45546e-06 0.00118091
8.63646 0 0.937576 0.00170706 -5.9053e-06 0.00110448
8.6092 0 0.915092 0.00166708 -5.72483e-06 0.00102742
8.58303 0 0.893501 0.00162968 -4.86088e-06 0.000947881
8.5579 0 0.872766 0.00160479 -4.4364e-06 0.000866894
8.53376 0 0.852853 0.00156134 -5.97123e-06 0.000774101
8.51058 0 0.833731 0.00149552 -4.34016e-06 0.000680624
8.48833 0 0.815368 0.00144328 -4.32152e-06 0.000590605
8.46695 0 0.797732 0.00139773 -5.20314e-06 0.000504213
8.44642 0 0.780797 0.00134141 -5.72727e-06 0.000411297
8.42671 0 0.764534 0.00126954 -5.95998e-06 0.00030688
8.40778 0 0.748915 0.00118551 -6.77395e-06 0.000190542
8.38959 0 0.733917 0.00109617 -8.47076e-06 6.54821e-05
8.37214 0 0.719513 0.00099957 -8.59519e-06 -6.52992e-05
8.97926 0 1.29435 0.000936047 4.39864e-05 0.00152465
8.9384 0 1.25861 0.00133876 -3.03852e-05 0.00139485
8.89917 0 1.22428 0.00131138 1.84739e-05 0.00155294
8.8615 0 1.19131 0.0014865 -6.47547e-06 0.00151261
8.82531 0 1.15965 0.00153125 2.63385e-06 0.00151023
8.79057 0 1.12925 0.00158052 -2.03917e-06 0.0014723
8.75721 0 1.10005 0.00160876 -1.22225e-06 0.00142309
8.72516 0 1.07202 0.00161578 -3.89399e-06 0.00135598
8.69439 0 1.04509 0.0016111 -3.5437e-06 0.00128167
8.66483 0 1.01923 0.00159874 -4.87384e-06 0.00120395
8.63646 0 0.994399 0.00158555 -4.45184e-06 0.00112481
8.6092 0 0.970553 0.00157871 -5.1778e-06 0.00104275
8.58303 0 0.947652 0.00156943 -6.30403e-06 0.00095853
8.5579 0 0.925661 0.00154942 -7.06708e-06 0.00087828
8.53376 0 0.904541 0.00151114 -8.09666e-06 0.000803242
8.51058 0 0.88426 0.00147319 -6.31881e-06 0.000728589
8.48833 0 0.864784 0.00143195 -4.73981e-06 0.000643848
8.46695 0 0.84608 0.00138958 -4.40935e-06 0.000555051
8.44642 0 0.828118 0.00134931 -5.73014e-06 0.000473004
8.42671 0 0.810869 0.00130517 -6.76234e-06 0.000390601
8.40778 0 0.794304 0.00125129 -6.90999e-06 0.000297121
8.38959 0 0.778397 0.0011788 -8.25651e-06 0.000191999
8.37214 0 0.76312 0.00109433 -1.03305e-05 7.88407e-05
8.97926 0 1.36832 0.000564537 3.93773e-05 0.0010929
8.9384 0 1.33053 0.00102592 -2.57826e-05 0.00117155
8.89917 0 1.29423 0.00106242 2.30066e-05 0.00133521
8.8615 0 1.25938 0.00127466 -9.10862e-06 0.0013669
8.82531 0 1.22592 0.00134756 3.69549e-06 0.00140995
8.79057 0 1.19378 0.00142734 3.55471e-07 0.00142216
8.75721 0 1.16291 0.00148968 -4.7399e-07 0.00141244
8.72516 0 1.13327 0.00153146 -2.06678e-06 0.00138396
8.69439 0 1.10481 0.00155852 -1.58478e-06 0.00133613
8.66484 0 1.07747 0.0015728 -2.25917e-06 0.00127338
8.63646 0 1.05122 0.00157846 -2.91685e-06 0.00119779
8.6092 0 1.02601 0.00157438 -4.20533e-06 0.00111587
8.58303 0 1.0018 0.00155585 -5.40033e-06 0.00103516
8.5579 0 0.978555 0.00153391 -4.86236e-06 0.000958315
8.53376 0 0.956229 0.00150705 -4.29231e-06 0.00088297
8.51058 0 0.934789 0.00149096 -3.03766e-06 0.000806531
8.48833 0 0.9142 0.00148428 -3.88264e-06 0.000724289
8.46695 0 0.894427 0.00145197 -3.16209e-06 0.00063519
8.44642 0 0.875439 0.00140287 -2.98828e-06 0.000542971
8.42671 0 0.857205 0.00136979 -2.9043e-06 0.000456228
8.40778 0 0.839693 0.00134027 -2.9987e-06 0.0003698
8.38959 0 0.822877 0.00129679 -2.72271e-06 0.000278749
8.37214 0 0.806727 0.00124161 -2.72138e-06 0.000180674
8.97926 0 1.44228 0.000242742 4.42768e-05 0.00057646
8.9384 0 1.40245 0.000723087 -2.45533e-05 0.000815996
8.89917 0 1.36419 0.000816756 5.00135e-07 0.000929208
8.8615 0 1.32746 0.00101824 -1.48427e-05 0.00103466
8.82531 0 1.29218 0.0011263 -8.35978e-06 0.00109658
8.79057 0 1.2583 0.00123371 -8.03552e-06 0.00113424
8.75721 0 1.22577 0.00131458 -7.2226e-06 0.00115109
8.72516 0 1.19453 0.00136942 -7.05007e-06 0.00114953
8.69439 0 1.16453 0.00140272 -7.47132e-06 0.00113152
8.66483 0 1.13571 0.0014223 -8.41531e-06 0.00109989
8.63646 0 1.10804 0.0014301 -8.99673e-06 0.00105836
8.6092 0 1.08147 0.0014273 -9.0446e-06 0.00101272
8.58303 0 1.05595 0.0014185 -8.56776e-06 0.000962664
8.5579 0 1.03145 0.00140977 -9.42373e-06 0.000906536
8.53376 0 1.00792 0.00140017 -1.08579e-05 0.000845478
8.51058 0 0.985317 0.00138717 -1.19014e-05 0.000778586
8.48833 0 0.963616 0.00136325 -1.21612e-05 0.000716522
8.46695 0 0.942775 0.00133465 -1.26909e-05 0.000658922
8.44642 0 0.92276 0.00130018 -1.22073e-05 0.000594715
8.42671 0 0.90354 0.00126097 -1.05008e-05 0.000528221
8.40778 0 0.885082 0.00123021 -1.10377e-05 0.000461352
8.38959 0 0.867357 0.00119707 -1.16782e-05 0.000394365
8.37214 0 0.850334 0.00115845 -1.22112e-05 0.00032284
7.66922 0 0.966948 -0.000117132 -7.81034e-06 -0.000288419
7.67296 0 0.988324 -0.000207636 -8.95539e-06 -0.000288761
7.67685 0 1.01058 -0.000324029 -9.42684e-06 -0.000302257
7.68091 0 1.03376 -0.000483664 -9.58719e-06 -0.000335575
7.68513 0 1.0579 -0.000694684 -9.96304e-06 -0.000389292
7.68953 0 1.08303 -0.000954504 -1.13428e-05 -0.000452649
7.69411 0 1.1092 -0.00126647 -1.29239e-05 -0.000520179
7.69888 0 1.13646 -0.00162712 -1.53708e-05 -0.00058424
7.70385 0 1.16483 -0.00204686 -1.69275e-05 -0.000649451
7.70902 0 1.19439 -0.00250953 -1.90702e-05 -0.000714131
7.7144 0 1.22516 -0.00300591 -2.01342e-05 -0.00077575
7.72001 0 1.25721 -0.00351531 -2.08179e-05 -0.000840302
7.72585 0 1.29057 -0.00401349 -1.81294e-05 -0.000916443
7.73193 0 1.32531 -0.00447274 -1.56414e-05 -0.00100725
7.70425 0 0.907776 0.000344509 -6.65193e-06 -0.000254304
7.70851 0 0.926707 0.000271622 -6.60492e-06 -0.000247643
7.71295 0 0.946421 0.000170692 -6.95476e-06 -0.000216917
7.71757 0 0.966948 7.36616e-05 -7.51742e-06 -0.00017104
7.72238 0 0.988324 1.16066e-05 -6.13781e-06 -0.000135059
7.72738 0 1.01058 -3.94444e-05 -4.3785e-06 -0.00012018
7.7326 0 1.03376 -0.000122234 -4.34335e-06 -0.00013327
7.73803 0 1.0579 -0.000266808 -5.24038e-06 -0.000174605
7.74368 0 1.08303 -0.000470788 -6.01259e-06 -0.000240989
7.74957 0 1.1092 -0.000724367 -7.80455e-06 -0.000314099
7.7557 0 1.13646 -0.00102903 -9.54255e-06 -0.000390193
7.76209 0 1.16484 -0.00138373 -1.26277e-05 -0.000460568
7.76874 0 1.19439 -0.00179736 -1.44638e-05 -0.000531505
7.77566 0 1.22516 -0.00225358 -1.77756e-05 -0.000595737
7.78287 0 1.25721 -0.00274932 -1.9302e-05 -0.000648681
7.79038 0 1.29057 -0.00326317 -1.93252e-05 -0.000704258
7.7982 0 1.32531 -0.00376504 -1.82709e-05 -0.000760774
7.73984 0 0.872138 0.000591566 -6.21736e-06 -0.000265887
7.74464 0 0.889597 0.000562639 -5.20021e-06 -0.000262637
7.74964 0 0.907777 0.000498997 -4.32648e-06 -0.000262083
7.75484 0 0.926707 0.000391461 -4.72041e-06 -0.000237881
7.76026 0 0.94642 0.000270178 -5.25306e-06 -0.000191801
7.76591 0 0.966948 0.000183375 -5.53071e-06 -0.000144812
7.77179 0 0.988324 0.000131017 -5.0851e-06 -0.000103714
7.77791 0 1.01058 9.30474e-05 -5.35753e-06 -6.50481e-05
7.78428 0 1.03376 5.3007e-05 -4.29819e-06 -3.57816e-05
7.79092 0 1.0579 -1.31435e-05 -3.96915e-06 -2.32683e-05
7.79783 0 1.08303 -0.000139377 -3.24066e-06 -5.40274e-05
7.80503 0 1.1092 -0.000329124 -2.5868e-06 -0.000117193
7.81252 0 1.13646 -0.000571664 -3.90736e-06 -0.000198014
7.82033 0 1.16483 -0.000857726 -6.8937e-06 -0.000284925
7.82845 0 1.19439 -0.00119348 -1.07973e-05 -0.000359693
7.83692 0 1.22516 -0.00158734 -1.26624e-05 -0.000431018
7.84573 0 1.25721 -0.00203547 -1.63246e-05 -0.000493197
7.85491 0 1.29057 -0.00252991 -1.84914e-05 -0.000542099
7.86446 0 1.32531 -0.00304286 -1.91022e-05 -0.000581692
7.87441 0 1.3615 -0.00356251 -1.81128e-05 -0.000633057
7.778 0 0.855372 0.000760882 -6.27283e-06 -0.00029471
7.78345 0 0.872138 0.000734079 -5.01219e-06 -0.000282082
7.78912 0 0.889597 0.000678604 -3.31057e-06 -0.0002833
7.79503 0 0.907776 0.000577598 -2.66293e-06 -0.00027697
7.80118 0 0.926708 0.000447708 -3.79686e-06 -0.000245823
7.80759 0 0.94642 0.000339552 -5.29353e-06 -0.000200769
7.81425 0 0.966948 0.000275017 -6.02288e-06 -0.00015436
7.82121 0 0.988324 0.000237904 -6.07814e-06 -0.00010748
7.82844 0 1.01058 0.000205814 -6.26318e-06 -6.04513e-05
7.83597 0 1.03376 0.000166891 -5.95959e-06 -1.65719e-05
7.84382 0 1.0579 0.000118671 -4.82783e-06 2.66244e-05
7.85199 0 1.08303 5.382e-05 -3.5123e-06 5.27231e-05
7.86049 0 1.1092 -4.92876e-05 -2.16486e-06 4.56826e-05
7.86935 0 1.13646 -0.00022879 -1.1887e-06 -7.10073e-06
7.87857 0 1.16484 -0.000458803 -1.5737e-06 -9.31007e-05
7.88818 0 1.19439 -0.00072777 -3.80036e-06 -0.000188548
7.89818 0 1.22516 -0.00104358 -8.48504e-06 -0.000274293
7.90859 0 1.25721 -0.00141317 -1.20396e-05 -0.000344845
7.91943 0 1.29057 -0.00184944 -1.54273e-05 -0.00040556
7.93073 0 1.32531 -0.0023382 -1.80115e-05 -0.000445562
7.94249 0 1.3615 -0.00286111 -1.83975e-05 -0.000485259
7.81473 0 0.839271 0.000918493 -5.86517e-06 -0.000337275
7.82076 0 0.855372 0.000885613 -5.00925e-06 -0.000318295
7.82705 0 0.872138 0.000833484 -2.57179e-06 -0.000316731
7.8336 0 0.889597 0.00073475 -1.46707e-06 -0.000318457
7.84042 0 0.907777 0.000601114 -2.19037e-06 -0.000297764
7.84752 0 0.926707 0.000476 -4.00343e-06 -0.000257402
7.85491 0 0.946421 0.000400892 -5.42874e-06 -0.000212619
7.8626 0 0.966948 0.000362924 -6.52374e-06 -0.000163964
7.87062 0 0.988324 0.000339278 -7.04979e-06 -0.000110534
7.87897 0 1.01058 0.000313116 -6.815e-06 -5.75596e-05
7.88766 0 1.03376 0.00027745 -6.41264e-06 -8.07159e-06
7.89671 0 1.0579 0.000231752 -5.74315e-06 3.39674e-05
7.90614 0 1.08303 0.00017297 -5.42527e-06 7.02554e-05
7.91595 0 1.1092 0.000105488 -4.26976e-06 0.000101958
7.92617 0 1.13646 1.03678e-05 -2.43503e-06 0.00011179
7.93681 0 1.16483 -0.00014326 -1.54952e-06 7.49099e-05
7.9479 0 1.19439 -0.000360604 -8.31904e-07 -1.02077e-06
7.95943 0 1.22516 -0.000621526 -2.17965e-06 -9.99751e-05
7.97145 0 1.25721 -0.000923041 -6.79366e-06 -0.000185404
7.98397 0 1.29057 -0.00128366 -1.07838e-05 -0.000259436
7.99699 0 1.32531 -0.00170874 -1.52319e-05 -0.000311129
8.01056 0 1.3615 -0.00219631 -1.70677e-05 -0.000359085
8.02469 0 1.39917 -0.00269086 -1.98801e-05 -0.000356388
7.85669 0 0.839271 0.00102872 -4.78079e-06 -0.000369107
7.86353 0 0.855372 0.000972438 -2.5638e-06 -0.000361722
7.87066 0 0.872138 0.00087634 -9.77955e-07 -0.00037711
7.87808 0 0.889596 0.000739637 -1.44432e-06 -0.000367388
7.88581 0 0.907777 0.000600039 -3.16833e-06 -0.000316666
7.89385 0 0.926708 0.000506956 -4.66383e-06 -0.000266929
7.90223 0 0.94642 0.000460466 -5.51119e-06 -0.00021373
7.91095 0 0.966948 0.00043862 -6.62465e-06 -0.000157842
7.92003 0 0.988324 0.000422505 -6.69372e-06 -0.000101804
7.9295 0 1.01058 0.000401668 -6.17813e-06 -4.79367e-05
7.93935 0 1.03376 0.000371805 -5.98804e-06 1.80877e-06
7.94961 0 1.0579 0.000330564 -5.68249e-06 4.54444e-05
7.96029 0 1.08303 0.000278635 -5.27435e-06 8.0805e-05
7.97141 0 1.1092 0.000217178 -5.49719e-06 0.000109135
7.98299 0 1.13646 0.000145481 -5.02904e-06 0.000133387
7.99505 0 1.16484 6.20477e-05 -3.58205e-06 0.000143146
8.00761 0 1.19439 -6.40759e-05 -2.01635e-06 0.000125537
8.02069 0 1.22516 -0.000255405 -1.24031e-06 6.08424e-05
8.03431 0 1.25721 -0.000504588 -1.57103e-06 -2.44254e-05
8.04849 0 1.29057 -0.000804649 -4.14281e-06 -0.000122689
8.06326 0 1.32531 -0.0011473 -1.19407e-05 -0.000179868
8.07864 0 1.3615 -0.0015806 -1.51336e-05 -0.000235795
8.09465 0 1.39917 -0.00203427 -2.05007e-05 -0.000223635
7.89865 0 0.839271 0.00109994 -2.93354e-06 -0.000431242
7.9063 0 0.855372 0.00100397 -5.19103e-07 -0.000441723
7.91427 0 0.872138 0.000863958 -1.19831e-06 -0.000440365
7.92256 0 0.889597 0.000717155 -2.64931e-06 -0.000396959
7.93119 0 0.907776 0.000608465 -4.30787e-06 -0.000339859
7.94019 0 0.926708 0.000550692 -5.11642e-06 -0.000281718
7.94955 0 0.94642 0.000524389 -6.31067e-06 -0.00021688
7.9593 0 0.966948 0.000511141 -6.75782e-06 -0.000148455
7.96945 0 0.988324 0.000497522 -6.10116e-06 -8.14959e-05
7.98003 0 1.01058 0.000479005 -6.13958e-06 -2.15984e-05
7.99104 0 1.03376 0.000453458 -5.37574e-06 2.78427e-05
8.0025 0 1.0579 0.00041957 -4.83279e-06 6.63839e-05
8.01444 0 1.08303 0.00037418 -4.0322e-06 9.92849e-05
8.02687 0 1.1092 0.000323478 -4.51727e-06 0.000125692
8.03981 0 1.13646 0.000262822 -4.74679e-06 0.000146955
8.05329 0 1.16483 0.000192994 -5.39152e-06 0.000160647
8.06733 0 1.19439 0.000111566 -4.38878e-06 0.00017126
8.08195 0 1.22516 8.21883e-06 -3.20955e-06 0.000159505
8.09717 0 1.25721 -0.000156181 -3.09386e-06 0.000126709
8.11302 0 1.29057 -0.000387569 -1.15116e-06 3.4675e-05
8.12952 0 1.32531 -0.000657018 -4.04392e-06 -3.45449e-05
8.14671 0 1.3615 -0.001029 -5.71124e-06 -0.00013762
8.16461 0 1.39917 -0.00140801 -1.76722e-05 -0.000133946
8.18324 0 1.4384 -0.0019864 -1.50989e-05 -0.000189246
7.94062 0 0.839271 0.00111599 -9.55696e-07 -0.000521465
7.94907 0 0.855372 0.000973036 -9.06849e-07 -0.000525525
7.95787 0 0.872138 0.000818165 -2.32968e-06 -0.000486224
7.96704 0 0.889597 0.000699657 -4.65386e-06 -0.000415108
7.97658 0 0.907777 0.00063282 -5.40945e-06 -0.00035066
7.98652 0 0.926707 0.000604103 -6.7237e-06 -0.00027894
7.99687 0 0.946421 0.000594695 -6.85205e-06 -0.000201902
8.00765 0 0.966948 0.00058845 -6.78428e-06 -0.000127017
8.01887 0 0.988324 0.000577283 -7.27384e-06 -5.71889e-05
8.03055 0 1.01058 0.000560653 -6.97482e-06 4.03552e-06
8.04273 0 1.03376 0.000537387 -6.35867e-06 5.78244e-05
8.0554 0 1.0579 0.000508035 -4.7894e-06 9.83753e-05
8.06859 0 1.08303 0.000469309 -4.17629e-06 0.000136788
8.08233 0 1.1092 0.000429461 -3.89974e-06 0.000163056
8.09664 0 1.13646 0.000378529 -3.79984e-06 0.000177307
8.11154 0 1.16484 0.000320384 -4.25659e-06 0.000186789
8.12705 0 1.19439 0.000252183 -4.80578e-06 0.000194705
8.14321 0 1.22516 0.00017468 -3.85237e-06 0.000192761
8.16003 0 1.25721 7.88214e-05 -3.61214e-06 0.000189532
8.17755 0 1.29057 -6.18534e-05 -2.59582e-06 0.000146625
8.19579 0 1.32531 -0.00025683 -4.38387e-06 0.000118477
8.21479 0 1.3615 -0.000554193 -1.91503e-06 -2.13036e-06
8.23457 0 1.39917 -0.000827343 -1.2389e-05 -1.17294e-05
8.25516 0 1.4384 -0.00139797 -8.20883e-06 -0.00010779
8.27661 0 1.47926 -0.00168867 -2.49e-05 2.91101e-05
7.99184 0 0.855371 0.000895068 -1.70435e-06 -0.000580976
8.00148 0 0.872138 0.000770825 -4.28626e-06 -0.000496333
8.01152 0 0.889596 0.000701061 -5.38816e-06 -0.000424522
8.02197 0 0.907777 0.000671789 -6.82723e-06 -0.000341096
8.03286 0 0.926708 0.000665805 -7.07211e-06 -0.000252808
8.04419 0 0.94642 0.000665521 -7.37098e-06 -0.000165651
8.05599 0 0.966948 0.000663628 -8.05775e-06 -8.47271e-05
8.06829 0 0.988324 0.000655114 -7.66889e-06 -1.18866e-05
8.08108 0 1.01058 0.000641053 -6.84557e-06 5.20239e-05
8.09441 0 1.03376 0.000620656 -5.47029e-06 0.000105738
8.10829 0 1.0579 0.000591495 -4.01902e-06 0.000146772
8.12274 0 1.08303 0.000560036 -3.42474e-06 0.000191135
8.13779 0 1.1092 0.000522616 -2.4341e-06 0.000225705
8.15346 0 1.13646 0.000478025 -3.00593e-06 0.00023885
8.16978 0 1.16483 0.0004257 -3.24535e-06 0.000247139
8.18677 0 1.19439 0.000365845 -3.21875e-06 0.000247928
8.20447 0 1.22516 0.000298779 -2.81848e-06 0.000238918
8.22289 0 1.25721 0.000223974 -4.10263e-06 0.000229608
8.24208 0 1.29057 0.000132871 -3.55835e-06 0.000203081
8.26206 0 1.32531 1.88226e-05 -6.45537e-06 0.000198092
8.28286 0 1.3615 -0.000166569 -1.25713e-06 0.000115373
8.30453 0 1.39917 -0.000358514 -1.1617e-05 0.000136786
8.32708 0 1.4384 -0.000884975 -4.05937e-06 8.90624e-06
8.35057 0 1.47926 -0.00105975 -2.7002e-05 0.000107072
8.03461 0 0.855372 0.000821276 -4.35584e-06 -0.000578452
8.04508 0 0.872138 0.000755284 -5.92329e-06 -0.000496215
8.056 0 0.889597 0.0007309 -7.49014e-06 -0.000401739
8.06736 0 0.907776 0.000729523 -7.76518e-06 -0.000300522
8.07919 0 0.926707 0.000735363 -8.38062e-06 -0.000203232
8.09151 0 0.946421 0.00073943 -9.5085e-06 -0.000112105
8.10434 0 0.966948 0.000739603 -8.90019e-06 -3.32884e-05
8.1177 0 0.988324 0.000731703 -8.5209e-06 3.91374e-05
8.13161 0 1.01058 0.000720255 -6.41109e-06 0.000104219
8.1461 0 1.03376 0.000702466 -5.57554e-06 0.000154427
8.16118 0 1.0579 0.00067691 -4.83494e-06 0.000205622
8.17689 0 1.08303 0.00065644 -3.96142e-06 0.000252172
8.19325 0 1.1092 0.000621598 -4.08647e-06 0.000287083
8.21028 0 1.13646 0.000583007 -3.89642e-06 0.000304471
8.22802 0 1.16484 0.000536309 -4.37916e-06 0.000313648
8.24649 0 1.19439 0.000483922 -4.28643e-06 0.000314092
8.26572 0 1.22516 0.000424528 -3.66467e-06 0.000304505
8.28575 0 1.25721 0.000359918 -4.0403e-06 0.000288714
8.30661 0 1.29057 0.000284955 -4.40803e-06 0.000258429
8.32832 0 1.32531 0.000206172 -6.33659e-06 0.000245476
8.35093 0 1.3615 9.1733e-05 -2.8692e-06 0.000192719
8.37448 0 1.39917 -3.87207e-05 -1.06684e-05 0.000232656
8.399 0 1.4384 -0.000405684 -2.96724e-06 0.000127019
8.42454 0 1.47926 -0.000498594 -2.502e-05 0.00018837
8.07738 0 0.855372 0.00079122 -5.26869e-06 -0.000559457
8.08869 0 0.872138 0.000778068 -7.11551e-06 -0.000452796
8.10048 0 0.889597 0.000784842 -6.99363e-06 -0.000339158
8.11275 0 0.907777 0.000796246 -7.95908e-06 -0.000230999
8.12553 0 0.926708 0.000806282 -9.49356e-06 -0.000131992
8.13883 0 0.94642 0.000809305 -8.68731e-06 -4.09056e-05
8.15269 0 0.966948 0.000809462 -7.48809e-06 4.07278e-05
8.16712 0 0.988324 0.000803003 -6.12594e-06 0.000116941
8.18214 0 1.01058 0.0007956 -4.01128e-06 0.000184368
8.19779 0 1.03376 0.0007826 -3.63865e-06 0.000234153
8.21408 0 1.0579 0.000761038 -3.75995e-06 0.000297169
8.23104 0 1.08303 0.000737815 -1.74413e-06 0.000354345
8.24871 0 1.1092 0.000704681 -1.81871e-06 0.000385838
8.26711 0 1.13646 0.000667398 -1.02922e-06 0.00041031
8.28626 0 1.16483 0.000624005 -6.7619e-07 0.000422714
8.30621 0 1.19439 0.000575569 -1.51609e-07 0.000422402
8.32698 0 1.22516 0.000520414 -5.01313e-07 0.000407939
8.34861 0 1.25721 0.000461929 -1.31717e-06 0.000382868
8.37113 0 1.29057 0.00039636 -1.23588e-06 0.00034263
8.39459 0 1.32531 0.000333319 -3.32164e-06 0.000311459
8.41901 0 1.3615 0.000249548 -1.5303e-06 0.000261201
8.44444 0 1.39917 0.000168748 -9.35683e-06 0.000281442
8.47093 0 1.4384 -3.60003e-05 -1.15791e-06 0.000212613
8.4985 0 1.47926 -9.37331e-05 -2.04152e-05 0.000254491
8.12014 0 0.855372 0.000814227 -8.12851e-06 -0.000496144
8.1323 0 0.872138 0.000833456 -7.74597e-06 -0.000372249
8.14496 0 0.889596 0.000852756 -9.72393e-06 -0.000257561
8.15814 0 0.907777 0.000867884 -1.14699e-05 -0.000150602
8.17186 0 0.926708 0.000878185 -9.84238e-06 -5.91167e-05
8.18616 0 0.94642 0.000880552 -1.02796e-05 2.509e-05