# Force coefficients
# liftDir     : (0.000000e+00 0.000000e+00 1.000000e+00)
# dragDir     : (1.000000e+00 0.000000e+00 0.000000e+00)
# pitchAxis   : (0.000000e+00 1.000000e+00 0.000000e+00)
# magUInf     : 1.000000e+00
# lRef        : 1.000000e+00
# Aref        : 1.000000e+00
# CofR        : (2.500000e+00 0.000000e+00 0.000000e+00)
#
# Time        	Cm            	Cd            	Cl            	Cl(f)         	Cl(r)         
1             	-2.741288e-04	8.904419e-01	-2.022218e-02	-1.038522e-02	-9.836963e-03
2             	-5.890283e-04	1.489331e+00	-1.080757e-02	-5.992816e-03	-4.814759e-03
3             	-8.013523e-04	2.050698e+00	2.914329e-02	1.377029e-02	1.537300e-02
4             	-2.964343e-04	2.259819e+00	8.649758e-02	4.295235e-02	4.354522e-02
5             	6.863383e-04	2.159569e+00	1.501740e-01	7.577334e-02	7.440066e-02
6             	1.627684e-03	1.895887e+00	2.115702e-01	1.074128e-01	1.041574e-01
7             	2.342043e-03	1.605732e+00	2.674114e-01	1.360477e-01	1.313636e-01
8             	3.330285e-03	1.389254e+00	3.177213e-01	1.621910e-01	1.555304e-01
9             	4.518866e-03	1.278550e+00	3.636679e-01	1.863528e-01	1.773151e-01
10            	6.024754e-03	1.256593e+00	4.084671e-01	2.102583e-01	1.982088e-01
11            	7.720431e-03	1.285685e+00	4.554968e-01	2.354688e-01	2.200280e-01
12            	9.649157e-03	1.331886e+00	5.051744e-01	2.622364e-01	2.429381e-01
13            	1.192616e-02	1.369103e+00	5.563157e-01	2.900840e-01	2.662317e-01
14            	1.458529e-02	1.384209e+00	6.066710e-01	3.179208e-01	2.887502e-01
15            	1.748597e-02	1.377877e+00	6.553752e-01	3.451736e-01	3.102016e-01
16            	2.037060e-02	1.357069e+00	7.022321e-01	3.714866e-01	3.307454e-01
17            	2.306703e-02	1.328514e+00	7.457828e-01	3.959584e-01	3.498244e-01
18            	2.564620e-02	1.299560e+00	7.858852e-01	4.185888e-01	3.672964e-01
19            	2.819860e-02	1.277839e+00	8.223925e-01	4.393948e-01	3.829976e-01
20            	3.056468e-02	1.266100e+00	8.562524e-01	4.586909e-01	3.975615e-01
21            	3.267784e-02	1.263334e+00	8.887375e-01	4.770466e-01	4.116909e-01
22            	3.409664e-02	1.267130e+00	9.214434e-01	4.948183e-01	4.266250e-01
23            	3.476013e-02	1.274545e+00	9.547829e-01	5.121516e-01	4.426313e-01
24            	3.449010e-02	1.282231e+00	9.852163e-01	5.270982e-01	4.581180e-01
25            	3.300559e-02	1.288894e+00	1.011330e+00	5.386707e-01	4.726595e-01
26            	2.997696e-02	1.294833e+00	1.033232e+00	5.465931e-01	4.866392e-01
27            	2.524780e-02	1.301291e+00	1.050866e+00	5.506807e-01	5.001850e-01
28            	1.887167e-02	1.308934e+00	1.063801e+00	5.507721e-01	5.130288e-01
29            	1.093131e-02	1.318043e+00	1.071967e+00	5.469147e-01	5.250521e-01
30            	1.697775e-03	1.328474e+00	1.076151e+00	5.397735e-01	5.363780e-01
31            	-8.607000e-03	1.340479e+00	1.076479e+00	5.296323e-01	5.468463e-01
32            	-1.981055e-02	1.354170e+00	1.073182e+00	5.167803e-01	5.564014e-01
33            	-3.158176e-02	1.369996e+00	1.066554e+00	5.016955e-01	5.648590e-01
34            	-4.373210e-02	1.388225e+00	1.057077e+00	4.848063e-01	5.722705e-01
35            	-5.619427e-02	1.407959e+00	1.045419e+00	4.665155e-01	5.789040e-01
36            	-6.875995e-02	1.428406e+00	1.031931e+00	4.472055e-01	5.847253e-01
37            	-8.091436e-02	1.448905e+00	1.017222e+00	4.276966e-01	5.895253e-01
38            	-9.226443e-02	1.469447e+00	1.001572e+00	4.085215e-01	5.930503e-01
39            	-1.024443e-01	1.489174e+00	9.859462e-01	3.905288e-01	5.954174e-01
40            	-1.112025e-01	1.507102e+00	9.716639e-01	3.746295e-01	5.970345e-01
41            	-1.184373e-01	1.522577e+00	9.584929e-01	3.608092e-01	5.976837e-01
42            	-1.243698e-01	1.534785e+00	9.458910e-01	3.485757e-01	5.973153e-01
43            	-1.292619e-01	1.544100e+00	9.334243e-01	3.374502e-01	5.959741e-01
44            	-1.331864e-01	1.551495e+00	9.211625e-01	3.273948e-01	5.937677e-01
45            	-1.364825e-01	1.558196e+00	9.084089e-01	3.177219e-01	5.906870e-01
46            	-1.394341e-01	1.564527e+00	8.945483e-01	3.078401e-01	5.867083e-01
47            	-1.421204e-01	1.571198e+00	8.793006e-01	2.975299e-01	5.817707e-01
48            	-1.445112e-01	1.578344e+00	8.632372e-01	2.871074e-01	5.761298e-01
49            	-1.466935e-01	1.585870e+00	8.474904e-01	2.770517e-01	5.704387e-01
50            	-1.488470e-01	1.593853e+00	8.324852e-01	2.673956e-01	5.650896e-01
51            	-1.510548e-01	1.602294e+00	8.176866e-01	2.577884e-01	5.598981e-01
52            	-1.533224e-01	1.611118e+00	8.018086e-01	2.475819e-01	5.542267e-01
53            	-1.556199e-01	1.620275e+00	7.835812e-01	2.361707e-01	5.474105e-01
54            	-1.578836e-01	1.629810e+00	7.623849e-01	2.233088e-01	5.390761e-01
55            	-1.598982e-01	1.639648e+00	7.382627e-01	2.092332e-01	5.290295e-01
56            	-1.613129e-01	1.649728e+00	7.113875e-01	1.943809e-01	5.170067e-01
57            	-1.619042e-01	1.659875e+00	6.822869e-01	1.792393e-01	5.030476e-01
58            	-1.616192e-01	1.669778e+00	6.517817e-01	1.642716e-01	4.875100e-01
59            	-1.605161e-01	1.679401e+00	6.208449e-01	1.499063e-01	4.709385e-01
60            	-1.588641e-01	1.688805e+00	5.901660e-01	1.362189e-01	4.539471e-01
61            	-1.569284e-01	1.698046e+00	5.599050e-01	1.230241e-01	4.368809e-01
62            	-1.549098e-01	1.707080e+00	5.304705e-01	1.103254e-01	4.201451e-01
63            	-1.529721e-01	1.715783e+00	5.030460e-01	9.855087e-02	4.044951e-01
64            	-1.512551e-01	1.724089e+00	4.785148e-01	8.800235e-02	3.905125e-01
65            	-1.498304e-01	1.731795e+00	4.574141e-01	7.887664e-02	3.785374e-01
66            	-1.486817e-01	1.738904e+00	4.395622e-01	7.109939e-02	3.684628e-01
67            	-1.477725e-01	1.745405e+00	4.245175e-01	6.448621e-02	3.600313e-01
68            	-1.470310e-01	1.751255e+00	4.117179e-01	5.882789e-02	3.528900e-01
69            	-1.463466e-01	1.756640e+00	4.004310e-01	5.386890e-02	3.465621e-01
70            	-1.456542e-01	1.761578e+00	3.899162e-01	4.930390e-02	3.406123e-01
71            	-1.449377e-01	1.765745e+00	3.798643e-01	4.499443e-02	3.348698e-01
72            	-1.441410e-01	1.768899e+00	3.702416e-01	4.097977e-02	3.292618e-01
73            	-1.432401e-01	1.770987e+00	3.615799e-01	3.754983e-02	3.240301e-01
74            	-1.423515e-01	1.772070e+00	3.542809e-01	3.478899e-02	3.194919e-01
75            	-1.414761e-01	1.771646e+00	3.482826e-01	3.266519e-02	3.156174e-01
76            	-1.406570e-01	1.769170e+00	3.433884e-01	3.103724e-02	3.123512e-01
77            	-1.399944e-01	1.764700e+00	3.393122e-01	2.966173e-02	3.096505e-01
78            	-1.395989e-01	1.758908e+00	3.359046e-01	2.835339e-02	3.075512e-01
79            	-1.395521e-01	1.752259e+00	3.331511e-01	2.702351e-02	3.061276e-01
80            	-1.398541e-01	1.745285e+00	3.310585e-01	2.567512e-02	3.053834e-01
81            	-1.403867e-01	1.738445e+00	3.294146e-01	2.432063e-02	3.050939e-01
82            	-1.410070e-01	1.732079e+00	3.279055e-01	2.294574e-02	3.049598e-01
83            	-1.415343e-01	1.726280e+00	3.262097e-01	2.157061e-02	3.046391e-01
84            	-1.419074e-01	1.720983e+00	3.243491e-01	2.026713e-02	3.040819e-01
85            	-1.420780e-01	1.715815e+00	3.223635e-01	1.910372e-02	3.032597e-01
86            	-1.420341e-01	1.710453e+00	3.204701e-01	1.820098e-02	3.022691e-01
87            	-1.418132e-01	1.704518e+00	3.191085e-01	1.774104e-02	3.013674e-01
88            	-1.413943e-01	1.697891e+00	3.184827e-01	1.784709e-02	3.006356e-01
89            	-1.407815e-01	1.690372e+00	3.186845e-01	1.856078e-02	3.001237e-01
90            	-1.399910e-01	1.682050e+00	3.197055e-01	1.986178e-02	2.998438e-01
91            	-1.390272e-01	1.672995e+00	3.215280e-01	2.173684e-02	2.997912e-01
92            	-1.379335e-01	1.663312e+00	3.239153e-01	2.402418e-02	2.998911e-01
93            	-1.367617e-01	1.653211e+00	3.267795e-01	2.662802e-02	3.001515e-01
94            	-1.355323e-01	1.642897e+00	3.302115e-01	2.957346e-02	3.006380e-01
95            	-1.342273e-01	1.632647e+00	3.343458e-01	3.294561e-02	3.014002e-01
96            	-1.328700e-01	1.622763e+00	3.390771e-01	3.666858e-02	3.024085e-01
97            	-1.314997e-01	1.613476e+00	3.442351e-01	4.061787e-02	3.036173e-01
98            	-1.301453e-01	1.604809e+00	3.496439e-01	4.467659e-02	3.049673e-01
99            	-1.288132e-01	1.596786e+00	3.552603e-01	4.881692e-02	3.064434e-01
100           	-1.275581e-01	1.589498e+00	3.609101e-01	5.289699e-02	3.080131e-01
101           	-1.264510e-01	1.582951e+00	3.663980e-01	5.674800e-02	3.096500e-01
102           	-1.255334e-01	1.577110e+00	3.716250e-01	6.027905e-02	3.113459e-01
103           	-1.248402e-01	1.571958e+00	3.764178e-01	6.336876e-02	3.130491e-01
104           	-1.243540e-01	1.567396e+00	3.807961e-01	6.604403e-02	3.147520e-01
105           	-1.240545e-01	1.563258e+00	3.846285e-01	6.825979e-02	3.163687e-01
106           	-1.239380e-01	1.559551e+00	3.878613e-01	6.999262e-02	3.178687e-01
107           	-1.239990e-01	1.556347e+00	3.904735e-01	7.123778e-02	3.192357e-01
108           	-1.242115e-01	1.553624e+00	3.926616e-01	7.211926e-02	3.205424e-01
109           	-1.245465e-01	1.551283e+00	3.945546e-01	7.273083e-02	3.218238e-01
110           	-1.250082e-01	1.549240e+00	3.961613e-01	7.307241e-02	3.230889e-01
111           	-1.255501e-01	1.547446e+00	3.975751e-01	7.323742e-02	3.243377e-01
112           	-1.261146e-01	1.545878e+00	3.988357e-01	7.330323e-02	3.255324e-01
113           	-1.266887e-01	1.544491e+00	3.998062e-01	7.321441e-02	3.265918e-01
114           	-1.272102e-01	1.543144e+00	4.003703e-01	7.297498e-02	3.273953e-01
115           	-1.275702e-01	1.541765e+00	4.005986e-01	7.272910e-02	3.278695e-01
116           	-1.277707e-01	1.540235e+00	4.004423e-01	7.245044e-02	3.279919e-01
117           	-1.278490e-01	1.538520e+00	3.998692e-01	7.208558e-02	3.277836e-01
118           	-1.277527e-01	1.536691e+00	3.990453e-01	7.176991e-02	3.272754e-01
119           	-1.275482e-01	1.534805e+00	3.977662e-01	7.133494e-02	3.264312e-01
120           	-1.272759e-01	1.532929e+00	3.959323e-01	7.069024e-02	3.252421e-01
121           	-1.269377e-01	1.531021e+00	3.937891e-01	6.995686e-02	3.238322e-01
122           	-1.266525e-01	1.529013e+00	3.911605e-01	6.892776e-02	3.222327e-01
123           	-1.264105e-01	1.526936e+00	3.883371e-01	6.775805e-02	3.205791e-01
124           	-1.262615e-01	1.524832e+00	3.852299e-01	6.635346e-02	3.188764e-01
125           	-1.261993e-01	1.522666e+00	3.819739e-01	6.478765e-02	3.171862e-01
126           	-1.262147e-01	1.520413e+00	3.785205e-01	6.304558e-02	3.154750e-01
127           	-1.262832e-01	1.518128e+00	3.749283e-01	6.118092e-02	3.137474e-01
128           	-1.264177e-01	1.515891e+00	3.711364e-01	5.915048e-02	3.119859e-01
129           	-1.265979e-01	1.513682e+00	3.671505e-01	5.697736e-02	3.101732e-01
130           	-1.268118e-01	1.511557e+00	3.628634e-01	5.461993e-02	3.082435e-01
131           	-1.270504e-01	1.509653e+00	3.581253e-01	5.201226e-02	3.061130e-01
132           	-1.273103e-01	1.508022e+00	3.529353e-01	4.915731e-02	3.037780e-01
133           	-1.275838e-01	1.506705e+00	3.473896e-01	4.611095e-02	3.012786e-01
134           	-1.278941e-01	1.505664e+00	3.415228e-01	4.286734e-02	2.986555e-01
135           	-1.282338e-01	1.504904e+00	3.355150e-01	3.952372e-02	2.959913e-01
136           	-1.285961e-01	1.504337e+00	3.294693e-01	3.613856e-02	2.933308e-01
137           	-1.289844e-01	1.503879e+00	3.234204e-01	3.272582e-02	2.906946e-01
138           	-1.294027e-01	1.503630e+00	3.173749e-01	2.928474e-02	2.880902e-01
139           	-1.298753e-01	1.503589e+00	3.113783e-01	2.581382e-02	2.855645e-01
140           	-1.304339e-01	1.503811e+00	3.055014e-01	2.231678e-02	2.831846e-01
141           	-1.310560e-01	1.504314e+00	2.997974e-01	1.884273e-02	2.809547e-01
142           	-1.317295e-01	1.505024e+00	2.943199e-01	1.543045e-02	2.788895e-01
143           	-1.324728e-01	1.506000e+00	2.889565e-01	1.200543e-02	2.769511e-01
144           	-1.332320e-01	1.507235e+00	2.837131e-01	8.624560e-03	2.750886e-01
145           	-1.339512e-01	1.508582e+00	2.785472e-01	5.322404e-03	2.732248e-01
146           	-1.346328e-01	1.509926e+00	2.733342e-01	2.034267e-03	2.712999e-01
147           	-1.352200e-01	1.511314e+00	2.680789e-01	-1.180504e-03	2.692594e-01
148           	-1.356585e-01	1.512729e+00	2.627933e-01	-4.261833e-03	2.670551e-01
149           	-1.359638e-01	1.514065e+00	2.573495e-01	-7.289073e-03	2.646386e-01
150           	-1.361026e-01	1.515396e+00	2.516861e-01	-1.025956e-02	2.619457e-01
151           	-1.360803e-01	1.516799e+00	2.458555e-01	-1.315250e-02	2.590080e-01
152           	-1.359580e-01	1.518261e+00	2.398067e-01	-1.605462e-02	2.558613e-01
153           	-1.357064e-01	1.519714e+00	2.337637e-01	-1.882453e-02	2.525882e-01
154           	-1.353888e-01	1.521052e+00	2.276958e-01	-2.154092e-02	2.492368e-01
155           	-1.349951e-01	1.522178e+00	2.217863e-01	-2.410190e-02	2.458882e-01
156           	-1.345100e-01	1.523164e+00	2.160151e-01	-2.650243e-02	2.425175e-01
157           	-1.339849e-01	1.523986e+00	2.103592e-01	-2.880531e-02	2.391645e-01
158           	-1.334034e-01	1.524639e+00	2.049161e-01	-3.094535e-02	2.358615e-01
159           	-1.327707e-01	1.525120e+00	1.997267e-01	-3.290732e-02	2.326340e-01
160           	-1.320892e-01	1.525456e+00	1.948413e-01	-3.466859e-02	2.295099e-01
161           	-1.313871e-01	1.525697e+00	1.902986e-01	-3.623782e-02	2.265365e-01
162           	-1.306906e-01	1.525878e+00	1.861259e-01	-3.762762e-02	2.237535e-01
163           	-1.299915e-01	1.526026e+00	1.823436e-01	-3.881971e-02	2.211633e-01
164           	-1.292911e-01	1.526121e+00	1.789159e-01	-3.983317e-02	2.187490e-01
165           	-1.286044e-01	1.526131e+00	1.758294e-01	-4.068968e-02	2.165190e-01
166           	-1.279441e-01	1.526084e+00	1.730367e-01	-4.142575e-02	2.144624e-01
167           	-1.273045e-01	1.526027e+00	1.705314e-01	-4.203885e-02	2.125702e-01
168           	-1.266960e-01	1.525944e+00	1.682989e-01	-4.254653e-02	2.108454e-01
169           	-1.261014e-01	1.525836e+00	1.664524e-01	-4.287515e-02	2.093276e-01
170           	-1.255305e-01	1.525773e+00	1.649616e-01	-4.304972e-02	2.080113e-01
171           	-1.250051e-01	1.525736e+00	1.637643e-01	-4.312290e-02	2.068872e-01
172           	-1.245354e-01	1.525728e+00	1.629047e-01	-4.308303e-02	2.059877e-01
173           	-1.241007e-01	1.525792e+00	1.624130e-01	-4.289417e-02	2.053072e-01
174           	-1.236999e-01	1.525917e+00	1.622828e-01	-4.255843e-02	2.048413e-01
175           	-1.233736e-01	1.526073e+00	1.625281e-01	-4.210957e-02	2.046377e-01
176           	-1.231068e-01	1.526251e+00	1.632430e-01	-4.148534e-02	2.047283e-01
177           	-1.228808e-01	1.526430e+00	1.644733e-01	-4.064415e-02	2.051174e-01
178           	-1.227301e-01	1.526617e+00	1.660772e-01	-3.969155e-02	2.057687e-01
179           	-1.225995e-01	1.526840e+00	1.680083e-01	-3.859538e-02	2.066037e-01
180           	-1.224516e-01	1.527024e+00	1.702453e-01	-3.732901e-02	2.075743e-01
181           	-1.223161e-01	1.527095e+00	1.726252e-01	-3.600353e-02	2.086287e-01
182           	-1.221375e-01	1.527010e+00	1.752146e-01	-3.453018e-02	2.097448e-01
183           	-1.218916e-01	1.526702e+00	1.779768e-01	-3.290313e-02	2.108800e-01
184           	-1.216106e-01	1.526166e+00	1.808156e-01	-3.120281e-02	2.120184e-01
185           	-1.212274e-01	1.525302e+00	1.837299e-01	-2.936246e-02	2.130923e-01
186           	-1.207592e-01	1.524091e+00	1.866351e-01	-2.744166e-02	2.140767e-01
187           	-1.202388e-01	1.522616e+00	1.894953e-01	-2.549112e-02	2.149864e-01
188           	-1.196927e-01	1.520883e+00	1.923545e-01	-2.351547e-02	2.158700e-01
189           	-1.191426e-01	1.518914e+00	1.952713e-01	-2.150699e-02	2.167783e-01
190           	-1.185981e-01	1.516723e+00	1.983165e-01	-1.943988e-02	2.177564e-01
191           	-1.180698e-01	1.514347e+00	2.015013e-01	-1.731913e-02	2.188205e-01
192           	-1.175431e-01	1.511749e+00	2.049303e-01	-1.507802e-02	2.200083e-01
193           	-1.170343e-01	1.508871e+00	2.085494e-01	-1.275959e-02	2.213090e-01
194           	-1.165337e-01	1.505690e+00	2.124209e-01	-1.032325e-02	2.227442e-01
195           	-1.160488e-01	1.502182e+00	2.165602e-01	-7.768702e-03	2.243289e-01
196           	-1.155765e-01	1.498458e+00	2.209181e-01	-5.117413e-03	2.260356e-01
197           	-1.151305e-01	1.494629e+00	2.254100e-01	-2.425461e-03	2.278355e-01
198           	-1.147038e-01	1.490750e+00	2.300215e-01	3.070186e-04	2.297145e-01
199           	-1.143160e-01	1.486888e+00	2.346272e-01	2.997579e-03	2.316296e-01
200           	-1.139657e-01	1.483145e+00	2.391904e-01	5.629525e-03	2.335609e-01
201           	-1.136337e-01	1.479578e+00	2.436756e-01	8.204076e-03	2.354715e-01
202           	-1.133301e-01	1.476178e+00	2.480227e-01	1.068128e-02	2.373414e-01
203           	-1.130548e-01	1.472992e+00	2.522046e-01	1.304750e-02	2.391571e-01
204           	-1.128198e-01	1.470104e+00	2.561481e-01	1.525425e-02	2.408939e-01
205           	-1.126192e-01	1.467533e+00	2.598424e-01	1.730201e-02	2.425404e-01
206           	-1.124407e-01	1.465282e+00	2.632362e-01	1.917741e-02	2.440588e-01
207           	-1.122807e-01	1.463373e+00	2.662443e-01	2.084146e-02	2.454028e-01
208           	-1.121612e-01	1.461778e+00	2.689239e-01	2.230075e-02	2.466231e-01
209           	-1.121062e-01	1.460464e+00	2.713614e-01	2.357447e-02	2.477869e-01
210           	-1.120973e-01	1.459455e+00	2.735619e-01	2.468361e-02	2.488783e-01
211           	-1.121346e-01	1.458721e+00	2.754132e-01	2.557195e-02	2.498412e-01
212           	-1.122131e-01	1.458237e+00	2.768527e-01	2.621322e-02	2.506395e-01
213           	-1.122972e-01	1.458024e+00	2.779529e-01	2.667921e-02	2.512737e-01
214           	-1.124005e-01	1.457990e+00	2.786793e-01	2.693916e-02	2.517402e-01
215           	-1.125098e-01	1.458111e+00	2.790229e-01	2.700162e-02	2.520213e-01
216           	-1.125980e-01	1.458317e+00	2.789885e-01	2.689628e-02	2.520922e-01
217           	-1.126601e-01	1.458607e+00	2.785127e-01	2.659629e-02	2.519164e-01
218           	-1.126858e-01	1.458950e+00	2.775400e-01	2.608424e-02	2.514558e-01
219           	-1.126825e-01	1.459302e+00	2.760615e-01	2.534825e-02	2.507132e-01
220           	-1.126598e-01	1.459666e+00	2.741428e-01	2.441165e-02	2.497312e-01
221           	-1.126224e-01	1.460121e+00	2.717794e-01	2.326729e-02	2.485121e-01
222           	-1.125717e-01	1.460638e+00	2.690619e-01	2.195921e-02	2.471027e-01
223           	-1.125241e-01	1.461198e+00	2.660328e-01	2.049230e-02	2.455405e-01
224           	-1.124864e-01	1.461828e+00	2.627657e-01	1.889651e-02	2.438692e-01
225           	-1.124571e-01	1.462500e+00	2.592669e-01	1.717636e-02	2.420905e-01
226           	-1.124389e-01	1.463236e+00	2.555675e-01	1.534483e-02	2.402226e-01
227           	-1.124411e-01	1.464103e+00	2.517568e-01	1.343731e-02	2.383195e-01
228           	-1.124589e-01	1.465118e+00	2.478397e-01	1.146089e-02	2.363788e-01
229           	-1.124943e-01	1.466296e+00	2.438703e-01	9.440850e-03	2.344295e-01
230           	-1.125621e-01	1.467722e+00	2.399802e-01	7.428016e-03	2.325522e-01
231           	-1.126453e-01	1.469276e+00	2.360146e-01	5.362021e-03	2.306526e-01
232           	-1.127474e-01	1.470971e+00	2.318882e-01	3.196714e-03	2.286915e-01
233           	-1.128673e-01	1.472762e+00	2.276379e-01	9.516378e-04	2.266862e-01
234           	-1.130077e-01	1.474697e+00	2.233002e-01	-1.357562e-03	2.246578e-01
235           	-1.131763e-01	1.476807e+00	2.189488e-01	-3.701896e-03	2.226507e-01
236           	-1.133735e-01	1.479105e+00	2.146331e-01	-6.056918e-03	2.206900e-01
237           	-1.135996e-01	1.481520e+00	2.103147e-01	-8.442282e-03	2.187570e-01
238           	-1.138559e-01	1.484002e+00	2.059302e-01	-1.089079e-02	2.168210e-01
239           	-1.141369e-01	1.486564e+00	2.015437e-01	-1.336504e-02	2.149087e-01
240           	-1.144439e-01	1.489181e+00	1.971896e-01	-1.584911e-02	2.130387e-01
241           	-1.147981e-01	1.491840e+00	1.929257e-01	-1.833525e-02	2.112610e-01
242           	-1.151821e-01	1.494532e+00	1.887928e-01	-2.078567e-02	2.095785e-01
243           	-1.155753e-01	1.497289e+00	1.848579e-01	-2.314638e-02	2.080043e-01
244           	-1.159806e-01	1.500007e+00	1.810643e-01	-2.544845e-02	2.065127e-01
245           	-1.164007e-01	1.502694e+00	1.773723e-01	-2.771458e-02	2.050869e-01
246           	-1.167989e-01	1.505290e+00	1.738291e-01	-2.988434e-02	2.037135e-01
247           	-1.171919e-01	1.507734e+00	1.704144e-01	-3.198465e-02	2.023991e-01
248           	-1.175777e-01	1.509997e+00	1.671401e-01	-3.400767e-02	2.011478e-01
249           	-1.179206e-01	1.512081e+00	1.639885e-01	-3.592631e-02	1.999148e-01
250           	-1.182321e-01	1.513948e+00	1.609545e-01	-3.775485e-02	1.987094e-01
251           	-1.185099e-01	1.515598e+00	1.580260e-01	-3.949695e-02	1.975229e-01
252           	-1.187352e-01	1.517045e+00	1.552017e-01	-4.113438e-02	1.963360e-01
253           	-1.189160e-01	1.518299e+00	1.524922e-01	-4.266993e-02	1.951622e-01
254           	-1.190574e-01	1.519355e+00	1.499299e-01	-4.409248e-02	1.940224e-01
255           	-1.191571e-01	1.520228e+00	1.475352e-01	-4.538952e-02	1.929247e-01
256           	-1.192112e-01	1.520946e+00	1.452820e-01	-4.657021e-02	1.918522e-01
257           	-1.192272e-01	1.521461e+00	1.431650e-01	-4.764471e-02	1.908097e-01
258           	-1.192059e-01	1.521780e+00	1.411700e-01	-4.862094e-02	1.897909e-01
259           	-1.191493e-01	1.521907e+00	1.393242e-01	-4.948722e-02	1.888114e-01
260           	-1.190549e-01	1.521843e+00	1.376742e-01	-5.021780e-02	1.878920e-01
261           	-1.189354e-01	1.521574e+00	1.362540e-01	-5.080839e-02	1.870624e-01
262           	-1.187942e-01	1.521114e+00	1.350901e-01	-5.124916e-02	1.863393e-01
263           	-1.186390e-01	1.520508e+00	1.341216e-01	-5.157825e-02	1.856998e-01
264           	-1.184656e-01	1.519776e+00	1.333409e-01	-5.179517e-02	1.851361e-01
265           	-1.182685e-01	1.518931e+00	1.327425e-01	-5.189729e-02	1.846398e-01
266           	-1.180507e-01	1.517998e+00	1.323393e-01	-5.188104e-02	1.842203e-01
267           	-1.178242e-01	1.516997e+00	1.321166e-01	-5.176585e-02	1.838825e-01
268           	-1.176040e-01	1.515927e+00	1.320419e-01	-5.158305e-02	1.836249e-01
269           	-1.173894e-01	1.514780e+00	1.321467e-01	-5.131603e-02	1.834627e-01
270           	-1.171797e-01	1.513605e+00	1.324073e-01	-5.097604e-02	1.833834e-01
271           	-1.169786e-01	1.512437e+00	1.328305e-01	-5.056335e-02	1.833939e-01
272           	-1.167836e-01	1.511247e+00	1.334601e-01	-5.005355e-02	1.835137e-01
273           	-1.165951e-01	1.510019e+00	1.342367e-01	-4.947680e-02	1.837135e-01
274           	-1.164093e-01	1.508764e+00	1.351239e-01	-4.884732e-02	1.839713e-01
275           	-1.162279e-01	1.507482e+00	1.361521e-01	-4.815179e-02	1.843039e-01
276           	-1.160572e-01	1.506180e+00	1.373059e-01	-4.740426e-02	1.847101e-01
277           	-1.158947e-01	1.504870e+00	1.385543e-01	-4.661757e-02	1.851719e-01
278           	-1.157365e-01	1.503574e+00	1.399034e-01	-4.578475e-02	1.856882e-01
279           	-1.155805e-01	1.502290e+00	1.413068e-01	-4.492712e-02	1.862340e-01
280           	-1.154296e-01	1.501034e+00	1.427302e-01	-4.406445e-02	1.867947e-01
281           	-1.152769e-01	1.499775e+00	1.441293e-01	-4.321232e-02	1.873416e-01
282           	-1.151233e-01	1.498527e+00	1.454814e-01	-4.238259e-02	1.878640e-01
283           	-1.149640e-01	1.497278e+00	1.468033e-01	-4.156232e-02	1.883656e-01
284           	-1.148002e-01	1.496032e+00	1.481158e-01	-4.074237e-02	1.888581e-01
285           	-1.146354e-01	1.494799e+00	1.494035e-01	-3.993364e-02	1.893372e-01
286           	-1.144726e-01	1.493574e+00	1.506276e-01	-3.915880e-02	1.897864e-01
287           	-1.143000e-01	1.492291e+00	1.517237e-01	-3.843816e-02	1.901619e-01
288           	-1.141142e-01	1.490938e+00	1.526791e-01	-3.777462e-02	1.904537e-01
289           	-1.139276e-01	1.489584e+00	1.535117e-01	-3.717176e-02	1.906834e-01
290           	-1.137405e-01	1.488298e+00	1.542286e-01	-3.662618e-02	1.908548e-01
291           	-1.135560e-01	1.487067e+00	1.548369e-01	-3.613758e-02	1.909745e-01
292           	-1.133777e-01	1.485875e+00	1.553516e-01	-3.570192e-02	1.910535e-01
293           	-1.132048e-01	1.484741e+00	1.557715e-01	-3.531899e-02	1.910905e-01
294           	-1.130353e-01	1.483686e+00	1.560874e-01	-3.499162e-02	1.910790e-01
295           	-1.128687e-01	1.482727e+00	1.562985e-01	-3.471943e-02	1.910179e-01
296           	-1.127070e-01	1.481872e+00	1.563984e-01	-3.450776e-02	1.909062e-01
297           	-1.125521e-01	1.481126e+00	1.563748e-01	-3.436472e-02	1.907395e-01
298           	-1.124100e-01	1.480494e+00	1.562175e-01	-3.430121e-02	1.905188e-01
299           	-1.122876e-01	1.479963e+00	1.559344e-01	-3.432042e-02	1.902548e-01
300           	-1.121828e-01	1.479533e+00	1.555322e-01	-3.441666e-02	1.899489e-01
301           	-1.120965e-01	1.479201e+00	1.550127e-01	-3.459016e-02	1.896029e-01
302           	-1.120348e-01	1.478947e+00	1.543892e-01	-3.484023e-02	1.892294e-01
303           	-1.119947e-01	1.478773e+00	1.536681e-01	-3.516060e-02	1.888287e-01
304           	-1.119695e-01	1.478691e+00	1.528349e-01	-3.555206e-02	1.883869e-01
305           	-1.119602e-01	1.478684e+00	1.519031e-01	-3.600868e-02	1.879117e-01
306           	-1.119689e-01	1.478735e+00	1.508697e-01	-3.653409e-02	1.874038e-01
307           	-1.119913e-01	1.478870e+00	1.497172e-01	-3.713269e-02	1.868499e-01
308           	-1.120262e-01	1.479101e+00	1.484425e-01	-3.780491e-02	1.862474e-01
309           	-1.120768e-01	1.479406e+00	1.470539e-01	-3.854981e-02	1.856037e-01
310           	-1.121392e-01	1.479781e+00	1.455539e-01	-3.936226e-02	1.849162e-01
311           	-1.122073e-01	1.480242e+00	1.439309e-01	-4.024192e-02	1.841728e-01
312           	-1.122772e-01	1.480759e+00	1.421777e-01	-4.118833e-02	1.833660e-01
313           	-1.123474e-01	1.481308e+00	1.402656e-01	-4.221457e-02	1.824802e-01
314           	-1.124159e-01	1.481892e+00	1.381996e-01	-4.331604e-02	1.815157e-01
315           	-1.124802e-01	1.482491e+00	1.360032e-01	-4.447862e-02	1.804818e-01
316           	-1.125380e-01	1.483130e+00	1.336851e-01	-4.569545e-02	1.793805e-01
317           	-1.125853e-01	1.483787e+00	1.312618e-01	-4.695445e-02	1.782162e-01
318           	-1.126166e-01	1.484456e+00	1.287179e-01	-4.825765e-02	1.769756e-01
319           	-1.126349e-01	1.485136e+00	1.260905e-01	-4.958966e-02	1.756802e-01
320           	-1.126389e-01	1.485819e+00	1.234082e-01	-5.093478e-02	1.743429e-01
321           	-1.126317e-01	1.486518e+00	1.206686e-01	-5.229743e-02	1.729660e-01
322           	-1.126146e-01	1.487250e+00	1.179091e-01	-5.366005e-02	1.715692e-01
323           	-1.125835e-01	1.487981e+00	1.151614e-01	-5.500273e-02	1.701642e-01
324           	-1.125379e-01	1.488728e+00	1.124438e-01	-5.631598e-02	1.687598e-01
325           	-1.124821e-01	1.489518e+00	1.097886e-01	-5.758774e-02	1.673764e-01
326           	-1.124178e-01	1.490325e+00	1.071817e-01	-5.882696e-02	1.660086e-01
327           	-1.123468e-01	1.491132e+00	1.046291e-01	-6.003230e-02	1.646614e-01
328           	-1.122851e-01	1.491961e+00	1.021865e-01	-6.119184e-02	1.633784e-01
329           	-1.122268e-01	1.492772e+00	9.986162e-02	-6.229597e-02	1.621576e-01
330           	-1.121755e-01	1.493564e+00	9.767943e-02	-6.333578e-02	1.610152e-01
331           	-1.121450e-01	1.494363e+00	9.570275e-02	-6.429365e-02	1.599964e-01
332           	-1.121285e-01	1.495106e+00	9.394636e-02	-6.515534e-02	1.591017e-01
333           	-1.121295e-01	1.495823e+00	9.242787e-02	-6.591556e-02	1.583434e-01
334           	-1.121489e-01	1.496478e+00	9.118748e-02	-6.655513e-02	1.577426e-01
335           	-1.121913e-01	1.497075e+00	9.022835e-02	-6.707713e-02	1.573055e-01
336           	-1.122509e-01	1.497602e+00	8.955751e-02	-6.747217e-02	1.570297e-01
337           	-1.123223e-01	1.498054e+00	8.917416e-02	-6.773525e-02	1.569094e-01
338           	-1.124104e-01	1.498428e+00	8.903381e-02	-6.789350e-02	1.569273e-01
339           	-1.125125e-01	1.498687e+00	8.912628e-02	-6.794932e-02	1.570756e-01
340           	-1.126221e-01	1.498813e+00	8.948041e-02	-6.788187e-02	1.573623e-01
341           	-1.127349e-01	1.498815e+00	9.009403e-02	-6.768790e-02	1.577819e-01
342           	-1.128570e-01	1.498706e+00	9.095233e-02	-6.738084e-02	1.583332e-01
343           	-1.129791e-01	1.498450e+00	9.205333e-02	-6.695248e-02	1.590058e-01
344           	-1.131015e-01	1.498098e+00	9.339052e-02	-6.640619e-02	1.597967e-01
345           	-1.132155e-01	1.497596e+00	9.494751e-02	-6.574170e-02	1.606892e-01
346           	-1.133228e-01	1.496948e+00	9.669727e-02	-6.497413e-02	1.616714e-01
347           	-1.134210e-01	1.496167e+00	9.862666e-02	-6.410764e-02	1.627343e-01
348           	-1.135035e-01	1.495223e+00	1.007330e-01	-6.313696e-02	1.638700e-01
349           	-1.135758e-01	1.494158e+00	1.030252e-01	-6.206317e-02	1.650884e-01
350           	-1.136293e-01	1.492946e+00	1.054783e-01	-6.089020e-02	1.663685e-01
351           	-1.136644e-01	1.491565e+00	1.080672e-01	-5.963080e-02	1.676980e-01
352           	-1.136823e-01	1.490067e+00	1.107939e-01	-5.828529e-02	1.690792e-01
353           	-1.136782e-01	1.488459e+00	1.136273e-01	-5.686454e-02	1.704918e-01
354           	-1.136552e-01	1.486743e+00	1.165159e-01	-5.539727e-02	1.719131e-01
355           	-1.136169e-01	1.484922e+00	1.194620e-01	-5.388593e-02	1.733479e-01
356           	-1.135611e-01	1.483016e+00	1.224826e-01	-5.231981e-02	1.748024e-01
357           	-1.134851e-01	1.481058e+00	1.255498e-01	-5.071023e-02	1.762600e-01
358           	-1.133903e-01	1.479053e+00	1.286570e-01	-4.906176e-02	1.777188e-01
359           	-1.132771e-01	1.477014e+00	1.317895e-01	-4.738236e-02	1.791719e-01
360           	-1.131454e-01	1.474992e+00	1.349316e-01	-4.567963e-02	1.806112e-01
361           	-1.129951e-01	1.473000e+00	1.380799e-01	-4.395518e-02	1.820351e-01
362           	-1.128318e-01	1.471021e+00	1.412139e-01	-4.222488e-02	1.834388e-01
363           	-1.126610e-01	1.469037e+00	1.442798e-01	-4.052109e-02	1.848009e-01