# p  POINT_DATA 90431
# x  y  z  p
4 0 0 -0.250115
4 0.00256965 0 -0.250148
4 0.00518642 0 -0.250223
4 0.00785119 0 -0.250329
4 0.00128135 -0.00996393 -0.250089
4 0.00128135 0.00996393 -0.25027
4 0.0105648 0 -0.250475
4 0.00386754 -0.00996393 -0.250181
4 0.00386754 0.00996393 -0.250312
4 0.00650117 -0.00996393 -0.250273
4 0.00650117 0.00996393 -0.250384
4 0.0133283 0 -0.250624
4 0.00918311 -0.00996393 -0.250413
4 0.00918311 0.00996393 -0.250503
4 0.0119142 -0.00996393 -0.250571
4 0.0119142 0.00996393 -0.250664
4 0.0161424 0 -0.250739
4 0.0146954 -0.00996393 -0.250671
4 0.0146954 0.00996393 -0.250838
4 0.0190081 0 -0.250799
4 0 -0.02 -0.250031
4 0 0.02 -0.250123
4 0.0175277 -0.00996393 -0.250699
4 0.0175277 0.00996393 -0.250989
4 0.00256965 -0.02 -0.25009
4 0.00256965 0.02 -0.250139
4 0.00518642 -0.02 -0.250174
4 0.00518642 0.02 -0.25018
4 0.00785119 -0.02 -0.250212
4 0.00785119 0.02 -0.250248
4 0.0219263 0 -0.250793
4 0.0105648 -0.02 -0.250226
4 0.0105648 0.02 -0.25036
4 0.0204118 -0.00996393 -0.250665
4 0.0204118 0.00996393 -0.251075
4 0.0133283 -0.02 -0.250205
4 0.0133283 0.02 -0.250505
4 0.0248981 0 -0.250732
4 0.0233489 -0.00996393 -0.250591
4 0.0233489 0.00996393 -0.251062
4 0.0161424 -0.02 -0.250152
4 0.0161424 0.02 -0.250658
4 0.0190081 -0.02 -0.250111
4 0.0190081 0.02 -0.250787
4 0.0279244 0 -0.250665
4 0.0263398 0.00996393 -0.250963
4 0.0263398 -0.00996393 -0.25053
4 0.0219263 -0.02 -0.25015
4 0.0219263 0.02 -0.250865
4 0.00128135 -0.0298918 -0.250015
4 0.00128135 0.0298918 -0.250099
4 0.00386754 -0.0298918 -0.250161
4 0.00386754 0.0298918 -0.250125
4 0.00650117 -0.0298918 -0.250165
4 0.00650117 0.0298918 -0.250145
4 0.0310063 0 -0.250636
4 0.0293856 0.00996393 -0.250847
4 0.0293856 -0.00996393 -0.250535
4 0.00918311 -0.0298918 -0.250085
4 0.00918311 0.0298918 -0.250202
4 0.0248981 -0.02 -0.250311
4 0.0248981 0.02 -0.250886
4 0.0119142 -0.0298918 -0.249934
4 0.0119142 0.0298918 -0.250302
4 0.0146954 -0.0298918 -0.249758
4 0.0146954 0.0298918 -0.250433
4 0.0324873 -0.00996393 -0.250619
4 0.0324873 0.00996393 -0.250754
4 0.0341446 0 -0.250666
4 0.0279244 -0.02 -0.250613
4 0.0279244 0.02 -0.250867
4 0.0175277 -0.0298918 -0.2496
4 0.0175277 0.0298918 -0.250574
4 0.0204118 -0.0298918 -0.249602
4 0.0204118 0.0298918 -0.250702
4 0.0310063 -0.02 -0.251053
4 0.0310063 0.02 -0.250838
4 0.0356458 -0.00996393 -0.250779
4 0.0356458 0.00996393 -0.250723
4 0.0373405 0 -0.25078
4 0.0233489 -0.0298918 -0.249856
4 0.0233489 0.0298918 -0.250812
4 0.0341446 -0.02 -0.251608
4 0.0341446 0.02 -0.250816
4 0.0263398 -0.0298918 -0.250363
4 0.0263398 0.0298918 -0.250901
4 0 0.04 -0.250322
4 0 -0.04 -0.254208
4 0.00256965 0.04 -0.250331
4 0.00256965 -0.04 -0.254117
4 0.0388623 -0.00996393 -0.251028
4 0.0388623 0.00996393 -0.250803
4 0.00518642 0.04 -0.250335
4 0.00518642 -0.04 -0.254023
4 0.040595 0 -0.251001
4 0.00785119 -0.04 -0.254117
4 0.00785119 0.04 -0.250337
4 0.0105648 -0.04 -0.254392
4 0.0105648 0.04 -0.250369
4 0.0293856 -0.0298918 -0.251093
4 0.0293856 0.0298918 -0.250968
4 0.0133283 -0.04 -0.254793
4 0.0133283 0.04 -0.250436
4 0.0373405 -0.02 -0.252232
4 0.0373405 0.02 -0.250822
4 0.0161424 -0.04 -0.255259
4 0.0161424 0.04 -0.250533
4 0.0421378 -0.00996393 -0.251371
4 0.0421378 0.00996393 -0.25103
4 0.0439092 0 -0.25135
4 0.0324873 -0.0298918 -0.252007
4 0.0324873 0.0298918 -0.251019
4 0.0190081 0.04 -0.250651
4 0.0190081 -0.04 -0.255796
4 0.040595 -0.02 -0.252868
4 0.040595 0.02 -0.250879
4 0.0219263 0.04 -0.250776
4 0.0219263 -0.04 -0.256434
4 0.0356458 -0.0298918 -0.253041
4 0.0356458 0.0298918 -0.251037
4 0.0454733 -0.00996393 -0.25182
4 0.0454733 0.00996393 -0.251432
4 0.0248981 0.04 -0.250898
4 0.0248981 -0.04 -0.257154
4 0.0472842 0 -0.251852
4 0.0439092 -0.02 -0.253481
4 0.0439092 0.02 -0.251013
4 0.0279244 0.04 -0.251002
4 0.0279244 -0.04 -0.25791
4 0.0388623 -0.0298918 -0.254069
4 0.0388623 0.0298918 -0.251029
4 0.00128135 0.0498197 -0.250643
4 0.00128135 -0.0498197 -0.25815
4 0.0488701 -0.00996393 -0.252421
4 0.0488701 0.00996393 -0.252032
4 0.00386754 0.0498197 -0.250655
4 0.00386754 -0.0498197 -0.257659
4 0.00650117 -0.0498197 -0.257635
4 0.00650117 0.0498197 -0.250613
4 0.0310063 0.04 -0.251071
4 0.0310063 -0.04 -0.258651
4 0.00918311 -0.0498197 -0.258061
4 0.00918311 0.0498197 -0.250582
4 0.0507211 0 -0.252541
4 0.0119142 -0.0498197 -0.258883
4 0.0119142 0.0498197 -0.250575
4 0.0472842 -0.02 -0.254084
4 0.0472842 0.02 -0.251257
4 0.0421378 -0.0298918 -0.25497
4 0.0421378 0.0298918 -0.251003
4 0.0146954 -0.0498197 -0.259899
4 0.0146954 0.0498197 -0.250609
4 0.0341446 0.04 -0.251085
4 0.0341446 -0.04 -0.25932
4 0.0175277 -0.0498197 -0.260993
4 0.0175277 0.0498197 -0.250688
4 0.0523291 -0.00996393 -0.253236
4 0.0523291 0.00996393 -0.252837
4 0.0204118 0.0498197 -0.250807
4 0.0204118 -0.0498197 -0.262132
4 0.054221 0 -0.253453
4 0.0454733 -0.0298918 -0.255718
4 0.0454733 0.0298918 -0.250986
4 0.0507211 -0.02 -0.254725
4 0.0507211 0.02 -0.251643
4 0.0373405 0.04 -0.251037
4 0.0373405 -0.04 -0.259869
4 0.0233489 0.0498197 -0.250953
4 0.0233489 -0.0498197 -0.263248
4 0.0263398 0.0498197 -0.251105
4 0.0263398 -0.0498197 -0.26424
4 0.0558515 -0.00996393 -0.254327
4 0.0558515 0.00996393 -0.253861
4 0.040595 0.04 -0.250941
4 0.040595 -0.04 -0.260282
4 0.0488701 -0.0298918 -0.256342
4 0.0488701 0.0298918 -0.251038
4 0.0577851 0 -0.254625
4 0.054221 -0.02 -0.255479
4 0.054221 0.02 -0.252206
4 0.0293856 0.0498197 -0.251226
4 0.0293856 -0.0498197 -0.265055
4 0.0439092 0.04 -0.250822
4 0.0439092 -0.04 -0.260579
4 0.0324873 0.0498197 -0.251274
4 0.0324873 -0.0498197 -0.265607
4 0 0.06 -0.251646
4 0 -0.06 -0.27665
4 0.00256965 0.06 -0.251651
4 0.00256965 -0.06 -0.276139
4 0.00518642 0.06 -0.251647
4 0.00518642 -0.06 -0.276324
4 0.0523291 -0.0298918 -0.256902
4 0.0523291 0.0298918 -0.251203
4 0.0594386 -0.00996393 -0.255741
4 0.0594386 0.00996393 -0.255132
4 0.00785119 0.06 -0.251636
4 0.00785119 -0.06 -0.278032
4 0.0105648 0.06 -0.251653
4 0.0105648 -0.06 -0.280149
4 0.0577851 -0.02 -0.256432
4 0.0577851 0.02 -0.25299
4 0.0356458 0.0498197 -0.251222
4 0.0356458 -0.0498197 -0.265846
4 0.0614146 0 -0.256089
4 0.0133283 0.06 -0.251718
4 0.0133283 -0.06 -0.282272
4 0.0472842 0.04 -0.250736
4 0.0472842 -0.04 -0.260812
4 0.0161424 0.06 -0.251852
4 0.0161424 -0.06 -0.284096
4 0.0190081 0.06 -0.252063
4 0.0190081 -0.06 -0.285478
4 0.0388623 0.0498197 -0.251078
4 0.0388623 -0.0498197 -0.265815
4 0.0558515 -0.0298918 -0.257521
4 0.0558515 0.0298918 -0.251551
4 0.0630915 -0.00996393 -0.257511
4 0.0630915 0.00996393 -0.256666
4 0.0219263 0.06 -0.252353
4 0.0219263 -0.06 -0.28639
4 0.0614146 -0.02 -0.257657
4 0.0614146 0.02 -0.254042
4 0.0507211 0.04 -0.250759
4 0.0507211 -0.04 -0.260994
4 0.0248981 0.06 -0.252702
4 0.0248981 -0.06 -0.286791
4 0.0651106 0 -0.257858
4 0.0421378 0.0498197 -0.250876
4 0.0421378 -0.0498197 -0.265641
4 0.0279244 0.06 -0.253069
4 0.0279244 -0.06 -0.286597
4 0.0594386 -0.0298918 -0.258309
4 0.0594386 0.0298918 -0.25215
4 0.054221 0.04 -0.250983
4 0.054221 -0.04 -0.261058
4 0.0454733 0.0498197 -0.250657
4 0.0454733 -0.0498197 -0.265414
4 0.0310063 0.06 -0.253401
4 0.0310063 -0.06 -0.285724
4 0.0668113 -0.00996393 -0.259649
4 0.0668113 0.00996393 -0.258454
4 0.0651106 -0.02 -0.259211
4 0.0651106 0.02 -0.255381
4 0.0688745 0 -0.259919
4 0.0341446 0.06 -0.253652
4 0.0341446 -0.06 -0.284171
4 0.00128135 0.0697475 -0.252726
4 0.00128135 -0.0697475 -0.29451
4 0.0488701 0.0498197 -0.250512
4 0.0488701 -0.0498197 -0.26526
4 0.0630915 -0.0298918 -0.259367
4 0.0630915 0.0298918 -0.253069
4 0.00386754 0.0697475 -0.252739
4 0.00386754 -0.0697475 -0.292977
4 0.00650117 0.0697475 -0.252737
4 0.00650117 -0.0697475 -0.295722
4 0.0577851 0.04 -0.251501
4 0.0577851 -0.04 -0.261052
4 0.00918311 0.0697475 -0.252763
4 0.00918311 -0.0697475 -0.299246
4 0.0373405 0.06 -0.253795
4 0.0373405 -0.06 -0.282095
4 0.0119142 0.0697475 -0.252836
4 0.0119142 -0.0697475 -0.302758
4 0.0146954 0.0697475 -0.252987
4 0.0146954 -0.0697475 -0.3057
4 0.0705994 -0.00996393 -0.262122
4 0.0705994 0.00996393 -0.260464
4 0.0688745 -0.02 -0.261113
4 0.0688745 0.02 -0.256986
4 0.0175277 0.0697475 -0.253244
4 0.0175277 -0.0697475 -0.307731
4 0.0523291 0.0498197 -0.250569
4 0.0523291 -0.0498197 -0.26502
4 0.040595 0.06 -0.253836
4 0.040595 -0.06 -0.279732
4 0.0204118 0.0697475 -0.253621
4 0.0204118 -0.0697475 -0.308815
4 0.0727073 0 -0.262222
4 0.0668113 -0.0298918 -0.260771
4 0.0668113 0.0298918 -0.254304
4 0.0614146 0.04 -0.252378
4 0.0614146 -0.04 -0.261157
4 0.0233489 0.0697475 -0.25412
4 0.0233489 -0.0697475 -0.309015
4 0.0439092 0.06 -0.253824
4 0.0439092 -0.06 -0.27724
4 0.0263398 0.0697475 -0.254698
4 0.0263398 -0.0697475 -0.308291
4 0.0558515 -0.0498197 -0.264432
4 0.0558515 0.0498197 -0.250948
4 0.074457 -0.00996393 -0.264866
4 0.074457 0.00996393 -0.26262
4 0.0727073 -0.02 -0.263338
4 0.0727073 0.02 -0.258804
4 0.0293856 0.0697475 -0.255287
4 0.0293856 -0.0697475 -0.306504
4 0.0472842 0.06 -0.253852
4 0.0472842 -0.06 -0.274682
4 0.0651106 0.04 -0.25363
4 0.0651106 -0.04 -0.261507
4 0.0766105 0 -0.264687
4 0.0705994 -0.0298918 -0.262542
4 0.0705994 0.0298918 -0.255813
4 0.0324873 0.0697475 -0.255818
4 0.0324873 -0.0697475 -0.303582
4 0.0594386 0.0498197 -0.251757
4 0.0594386 -0.0498197 -0.263716
4 0.0356458 0.0697475 -0.256243
4 0.0356458 -0.0697475 -0.299702
4 0.0507211 0.06 -0.25403
4 0.0507211 -0.06 -0.272141
4 0.0783853 -0.00996393 -0.267788
4 0.0783853 0.00996393 -0.264823
4 0.0766105 -0.02 -0.265819
4 0.0766105 0.02 -0.260752
4 0.0688745 -0.04 -0.262168
4 0.0688745 0.04 -0.255211
4 0.0388623 0.0697475 -0.256528
4 0.0388623 -0.0697475 -0.2953
4 0 0.08 -0.25442
4 0 -0.08 -0.285086
4 0.00256965 0.08 -0.254423
4 0.00256965 -0.08 -0.284993
4 0.00518642 0.08 -0.254444
4 0.00518642 -0.08 -0.28631
4 0.074457 -0.0298918 -0.264651
4 0.074457 0.0298918 -0.257522
4 0.00785119 0.08 -0.254503
4 0.00785119 -0.08 -0.289622
4 0.0630915 0.0498197 -0.253016
4 0.0630915 -0.0498197 -0.263154
4 0.0805853 0 -0.267188
4 0.0105648 0.08 -0.254631
4 0.0105648 -0.08 -0.293484
4 0.054221 0.06 -0.254481
4 0.054221 -0.06 -0.269693
4 0.0133283 0.08 -0.254856
4 0.0133283 -0.08 -0.29712
4 0.0421378 0.0697475 -0.256697
4 0.0421378 -0.0697475 -0.290706
4 0.0161424 0.08 -0.255208
4 0.0161424 -0.08 -0.300041
4 0.0190081 0.08 -0.2557
4 0.0190081 -0.08 -0.302057
4 0.0219263 0.08 -0.25632
4 0.0219263 -0.08 -0.303102
4 0.0727073 -0.04 -0.263167
4 0.0727073 0.04 -0.257032
4 0.0823856 -0.00996393 -0.270698
4 0.0823856 0.00996393 -0.266939
4 0.0805853 -0.02 -0.268439
4 0.0805853 0.02 -0.262719
4 0.0454733 0.0697475 -0.256853
4 0.0454733 -0.0697475 -0.285989
4 0.0577851 0.06 -0.255331
4 0.0577851 -0.06 -0.26738
4 0.0668113 -0.0498197 -0.262829
4 0.0668113 0.0498197 -0.254687
4 0.0248981 0.08 -0.257037
4 0.0248981 -0.08 -0.303093
4 0.0783853 -0.0298918 -0.267002
4 0.0783853 0.0298918 -0.259339
4 0.0846329 0 -0.269563
4 0.0279244 0.08 -0.257795
4 0.0279244 -0.08 -0.301911
4 0.0488701 0.0697475 -0.257144
4 0.0488701 -0.0697475 -0.281107
4 0.0310063 0.08 -0.258532
4 0.0310063 -0.08 -0.299527
4 0.0614146 0.06 -0.256616
4 0.0614146 -0.06 -0.265287
4 0.0705994 -0.0498197 -0.262814
4 0.0705994 0.0498197 -0.256668
4 0.0766105 -0.04 -0.26448
4 0.0766105 0.04 -0.258985
4 0.0846329 -0.02 -0.271044
4 0.0846329 0.02 -0.264567
4 0.0341446 0.08 -0.259197
4 0.0341446 -0.08 -0.296112
4 0.0864594 -0.00996393 -0.273397
4 0.0864594 0.00996393 -0.268825
4 0.0523291 0.0697475 -0.257654
4 0.0523291 -0.0697475 -0.276455
4 0.0823856 -0.0298918 -0.269499
4 0.0823856 0.0298918 -0.261134
4 0.0373405 0.08 -0.25976
4 0.0373405 -0.08 -0.292005
4 0.0651106 0.06 -0.258274
4 0.0651106 -0.06 -0.263504
4 0.0887548 0 -0.271663
4 0.0558515 0.0697475 -0.258547
4 0.0558515 -0.0697475 -0.272362
4 0.074457 -0.0498197 -0.263155
4 0.074457 0.0498197 -0.258813
4 0.00128135 0.0896754 -0.25621
4 0.00128135 -0.0896754 -0.276385
4 0.040595 0.08 -0.260241
4 0.040595 -0.08 -0.287555
4 0.00386754 0.0896754 -0.256218
4 0.00386754 -0.0896754 -0.277482
4 0.00650117 0.0896754 -0.25628
4 0.00650117 -0.0896754 -0.280361
4 0.0805853 -0.04 -0.26605
4 0.0805853 0.04 -0.260946
4 0.00918311 0.0896754 -0.256427
4 0.00918311 -0.0896754 -0.284428
4 0.0119142 0.0896754 -0.256685
4 0.0119142 -0.0896754 -0.288715
4 0.0146954 0.0896754 -0.257093
4 0.0146954 -0.0896754 -0.292418
4 0.0887548 -0.02 -0.273464
4 0.0887548 0.02 -0.266195
4 0.0906078 -0.00996393 -0.275731
4 0.0906078 0.00996393 -0.270367
4 0.0439092 0.08 -0.260711
4 0.0439092 -0.08 -0.282978
4 0.0688745 0.06 -0.260191
4 0.0688745 -0.06 -0.26209
4 0.0175277 0.0896754 -0.257673
4 0.0175277 -0.0896754 -0.29528
4 0.0864594 -0.0298918 -0.271986
4 0.0864594 0.0298918 -0.262752
4 0.0594386 0.0697475 -0.259921
4 0.0594386 -0.0697475 -0.268713
4 0.0204118 0.0896754 -0.258408
4 0.0204118 -0.0896754 -0.297195
4 0.0233489 0.0896754 -0.259256
4 0.0233489 -0.0896754 -0.298016
4 0.0783853 -0.0498197 -0.263829
4 0.0783853 0.0498197 -0.260999
4 0.0472842 0.08 -0.261277
4 0.0472842 -0.08 -0.278348
4 0.0929523 0 -0.273378
4 0.0263398 0.0896754 -0.260167
4 0.0263398 -0.0896754 -0.29755
4 0.0846329 0.04 -0.262764
4 0.0846329 -0.04 -0.267781
4 0.0630915 0.0697475 -0.261684
4 0.0630915 -0.0697475 -0.265467
4 0.0727073 0.06 -0.26221
4 0.0727073 -0.06 -0.261087
4 0.0293856 0.0896754 -0.26108
4 0.0293856 -0.0896754 -0.295714
4 0.0507211 0.08 -0.262059
4 0.0507211 -0.08 -0.273804
4 0.0929523 -0.02 -0.275536
4 0.0929523 0.02 -0.267583
4 0.0948324 -0.00996393 -0.277556
4 0.0948324 0.00996393 -0.27154
4 0.0324873 0.0896754 -0.261945
4 0.0324873 -0.0896754 -0.292687
4 0.0906078 -0.0298918 -0.27429
4 0.0906078 0.0298918 -0.264204
4 0.0823856 -0.0498197 -0.264805
4 0.0823856 0.0498197 -0.263068
4 0.0356458 0.0896754 -0.262722
4 0.0356458 -0.0896754 -0.288853
4 0.0668113 0.0697475 -0.26369
4 0.0668113 -0.0697475 -0.262671
4 0.054221 0.08 -0.263163
4 0.054221 -0.08 -0.269571
4 0.0972268 0 -0.274648
4 0.0766105 0.06 -0.264162
4 0.0766105 -0.06 -0.260505
4 0.0887548 0.04 -0.264335
4 0.0887548 -0.04 -0.269542
4 0.0388623 0.0896754 -0.26342
4 0.0388623 -0.0896754 -0.284564
4 0.0577851 0.08 -0.264601
4 0.0577851 -0.08 -0.265721
4 0.0421378 0.0896754 -0.264124
4 0.0421378 -0.0896754 -0.280093
4 0.0705994 0.0697475 -0.265759
4 0.0705994 -0.0697475 -0.26036
4 0.0972268 -0.02 -0.277124
4 0.0972268 0.02 -0.268736
4 0.0948324 -0.0298918 -0.276206
4 0.0948324 0.0298918 -0.265546
4 0.0991344 -0.00996393 -0.278817
4 0.0991344 0.00996393 -0.272327
4 0.0864594 0.0498197 -0.264856
4 0.0864594 -0.0498197 -0.265977
4 0 0.1 -0.257081
4 0 -0.1 -0.240028
4 0.00256965 0.1 -0.257071
4 0.00256965 -0.1 -0.240946
4 0.00518642 0.1 -0.25709
4 0.00518642 -0.1 -0.24308
4 0.00785119 0.1 -0.257197
4 0.00785119 -0.1 -0.246095
4 0.0805853 0.06 -0.265906
4 0.0805853 -0.06 -0.260331
4 0.0454733 0.0896754 -0.264916
4 0.0454733 -0.0896754 -0.275624
4 0.0105648 0.1 -0.25742
4 0.0105648 -0.1 -0.249895
4 0.0614146 0.08 -0.266285
4 0.0614146 -0.08 -0.262228
4 0.0133283 0.1 -0.257786
4 0.0133283 -0.1 -0.253717
4 0.0929523 0.04 -0.265635
4 0.0929523 -0.04 -0.271178
4 0.0161424 0.1 -0.258318
4 0.0161424 -0.1 -0.257077
4 0.10158 0 -0.275496
4 0.0190081 0.1 -0.259015
4 0.0190081 -0.1 -0.259829
4 0.074457 0.0697475 -0.267688
4 0.074457 -0.0697475 -0.258545
4 0.0488701 0.0896754 -0.265897
4 0.0488701 -0.0896754 -0.271235
4 0.0219263 0.1 -0.259852
4 0.0219263 -0.1 -0.261915
4 0.0248981 0.1 -0.260794
4 0.0248981 -0.1 -0.263247
4 0.0651106 0.08 -0.268093
4 0.0651106 -0.08 -0.259109
4 0.0906078 0.0498197 -0.266253
4 0.0906078 -0.0498197 -0.267239
4 0.10158 -0.02 -0.278199
4 0.10158 0.02 -0.269669
4 0.0991344 0.0298918 -0.266794
4 0.0991344 -0.0298918 -0.277588
4 0.0846329 0.06 -0.267345
4 0.0846329 -0.06 -0.260526
4 0.0279244 0.1 -0.261795
4 0.0279244 -0.1 -0.263724
4 0.0523291 0.0896754 -0.267224
4 0.0523291 -0.0896754 -0.267034
4 0.103515 -0.00996393 -0.279621
4 0.103515 0.00996393 -0.2728
4 0.0310063 0.1 -0.262828
4 0.0310063 -0.1 -0.263323
4 0.0783853 0.0697475 -0.269263
4 0.0783853 -0.0697475 -0.25723
4 0.0972268 -0.04 -0.272533
4 0.0972268 0.04 -0.266672
4 0.0688745 0.08 -0.269869
4 0.0688745 -0.08 -0.256404
4 0.0558515 0.0896754 -0.268911
4 0.0558515 -0.0896754 -0.263099
4 0.0341446 0.1 -0.263883
4 0.0341446 -0.1 -0.262172
4 0.106012 0 -0.27602
4 0.0373405 0.1 -0.264958
4 0.0373405 -0.1 -0.260485
4 0.0948324 0.0498197 -0.267213
4 0.0948324 -0.0498197 -0.268442
4 0.0887548 0.06 -0.268403
4 0.0887548 -0.06 -0.261018
4 0.0594386 0.0896754 -0.270736
4 0.0594386 -0.0896754 -0.259437
4 0.103515 -0.0298918 -0.278406
4 0.103515 0.0298918 -0.267948
4 0.106012 -0.02 -0.278815
4 0.106012 0.02 -0.270417
4 0.040595 0.1 -0.266093
4 0.040595 -0.1 -0.258457
4 0.0823856 0.0697475 -0.270415
4 0.0823856 -0.0697475 -0.256402
4 0.0727073 0.08 -0.271438
4 0.0727073 -0.08 -0.254145
4 0.107977 -0.00996393 -0.280041
4 0.107977 0.00996393 -0.273096
4 0.10158 -0.04 -0.273494
4 0.10158 0.04 -0.267467
4 0.0439092 0.1 -0.267392
4 0.0439092 -0.1 -0.256227
4 0.00128135 0.109603 -0.258174
4 0.00128135 -0.109603 -0.205483
4 0.0630915 0.0896754 -0.272549
4 0.0630915 -0.0896754 -0.256084
4 0.00386754 0.109603 -0.258134
4 0.00386754 -0.109603 -0.208036
4 0.00650117 0.109603 -0.258185
4 0.00650117 -0.109603 -0.21004
4 0.00918311 -0.109603 -0.213225
4 0.00918311 0.109603 -0.258361
4 0.0119142 0.109603 -0.258678
4 0.0119142 -0.109603 -0.216936
4 0.110526 0 -0.27635
4 0.0146954 0.109603 -0.259167
4 0.0146954 -0.109603 -0.220528
4 0.0472842 0.1 -0.268923
4 0.0472842 -0.1 -0.253877
4 0.0929523 0.06 -0.269041
4 0.0929523 -0.06 -0.26171
4 0.0766105 0.08 -0.272644
4 0.0766105 -0.08 -0.252349
4 0.0991344 0.0498197 -0.267752
4 0.0991344 -0.0498197 -0.269441
4 0.0175277 0.109603 -0.259829
4 0.0175277 -0.109603 -0.22377
4 0.0864594 0.0697475 -0.271151
4 0.0864594 -0.0697475 -0.256049
4 0.0204118 0.109603 -0.260646
4 0.0204118 -0.109603 -0.226673
4 0.0668113 0.0896754 -0.274236
4 0.0668113 -0.0896754 -0.253077
4 0.107977 -0.0298918 -0.278739
4 0.107977 0.0298918 -0.268945
4 0.0233489 0.109603 -0.261591
4 0.0233489 -0.109603 -0.229253
4 0.0507211 0.1 -0.270619
4 0.0507211 -0.1 -0.251478
4 0.110526 -0.02 -0.279061
4 0.110526 0.02 -0.271008
4 0.0263398 0.109603 -0.262632
4 0.0263398 -0.109603 -0.231483
4 0.11252 -0.00996393 -0.28021
4 0.11252 0.00996393 -0.273415
4 0.106012 -0.04 -0.274036
4 0.106012 0.04 -0.268052
4 0.0293856 0.109603 -0.263734
4 0.0293856 -0.109603 -0.233275
4 0.0805853 0.08 -0.273398
4 0.0805853 -0.08 -0.251026
4 0.054221 0.1 -0.272385
4 0.054221 -0.1 -0.249109
4 0.0705994 0.0896754 -0.275606
4 0.0705994 -0.0896754 -0.250455
4 0.0972268 0.06 -0.269285
4 0.0972268 -0.06 -0.26249
4 0.0324873 0.109603 -0.264926
4 0.0324873 -0.109603 -0.234544
4 0.0906078 0.0697475 -0.271433
4 0.0906078 -0.0697475 -0.256098
4 0.103515 -0.0498197 -0.270101
4 0.103515 0.0498197 -0.26793
4 0.115123 0 -0.276604
4 0.0356458 0.109603 -0.266235
4 0.0356458 -0.109603 -0.235333
4 0.0577851 0.1 -0.274156
4 0.0577851 -0.1 -0.246819
4 0.0388623 0.109603 -0.26766
4 0.0388623 -0.109603 -0.235736
4 0.11252 -0.0298918 -0.278678
4 0.11252 0.0298918 -0.269623
4 0.0846329 0.08 -0.273695
4 0.0846329 -0.08 -0.250177
4 0.074457 0.0896754 -0.276522
4 0.074457 -0.0896754 -0.248253
4 0.115123 -0.02 -0.279009
4 0.115123 0.02 -0.271476
4 0.0614146 0.1 -0.275829
4 0.0614146 -0.1 -0.244645
4 0.0421378 0.109603 -0.269275
4 0.0421378 -0.109603 -0.235813
4 0.110526 -0.04 -0.27419
4 0.110526 0.04 -0.26843
4 0.117146 -0.00996393 -0.28019
4 0.117146 0.00996393 -0.273843
4 0.0948324 0.0697475 -0.271307
4 0.0948324 -0.0697475 -0.256477
4 0.10158 0.06 -0.269199
4 0.10158 -0.06 -0.263248
4 0.0454733 0.109603 -0.271278
4 0.0454733 -0.109603 -0.235598
4 0.107977 -0.0498197 -0.270407
4 0.107977 0.0498197 -0.267883
4 0.0783853 0.0896754 -0.276918
4 0.0783853 -0.0896754 -0.246491
4 0.0651106 0.1 -0.27726
4 0.0651106 -0.1 -0.242621
4 0.0887548 0.08 -0.27356
4 0.0887548 -0.08 -0.249776
4 0.119804 -3.70074e-17 -0.276781
4 0 0.12 -0.258602
4 0 -0.12 -0.184019
4 0.0488701 0.109603 -0.273571
4 0.0488701 -0.109603 -0.235133
4 0.00256965 0.12 -0.258571
4 0.00256965 -0.12 -0.184939
4 0.00518642 0.12 -0.258563
4 0.00518642 -0.12 -0.186721
4 0.00785119 0.12 -0.258667
4 0.00785119 -0.12 -0.188929
4 0.0105648 0.12 -0.258916
4 0.0105648 -0.12 -0.19195
4 0.0133283 0.12 -0.259339
4 0.0133283 -0.12 -0.195409
4 0.117146 -0.0298918 -0.278245
4 0.117146 0.0298918 -0.27
4 0.0161424 0.12 -0.259956
4 0.0161424 -0.12 -0.19897
4 0.0991344 0.0697475 -0.270858
4 0.0991344 -0.0697475 -0.257099
4 0.0688745 0.1 -0.278308
4 0.0688745 -0.1 -0.240783
4 0.0523291 0.109603 -0.275717
4 0.0523291 -0.109603 -0.234473
4 0.119804 -0.02 -0.278633
4 0.119804 0.02 -0.271875
4 0.0190081 0.12 -0.260775
4 0.0190081 -0.12 -0.202463
4 0.0823856 0.0896754 -0.276786
4 0.0823856 -0.0896754 -0.245189
4 0.106012 -0.06 -0.263899
4 0.106012 0.06 -0.268881
4 0.115123 -0.04 -0.273974
4 0.115123 0.04 -0.268632
4 0.0219263 0.12 -0.261804
4 0.0219263 -0.12 -0.205803
4 0.121857 -0.00996393 -0.279905
4 0.121857 0.00996393 -0.274318
4 0.0248981 0.12 -0.263052
4 0.0248981 -0.12 -0.208906
4 0.0929523 0.08 -0.273049
4 0.0929523 -0.08 -0.249776
4 0.0558515 0.109603 -0.277585
4 0.0558515 -0.109603 -0.233686
4 0.11252 -0.0498197 -0.270353
4 0.11252 0.0498197 -0.26772
4 0.0279244 0.12 -0.264507
4 0.0279244 -0.12 -0.211682
4 0.0727073 0.1 -0.278869
4 0.0727073 -0.1 -0.23917
4 0.0310063 0.12 -0.266183
4 0.0310063 -0.12 -0.214062
4 0.0864594 0.0896754 -0.27618
4 0.0864594 -0.0896754 -0.244352
4 0.124571 0 -0.276782
4 0.0594386 0.109603 -0.279266
4 0.0594386 -0.109603 -0.232826
4 0.0341446 0.12 -0.268127
4 0.0341446 -0.12 -0.216012
4 0.103515 -0.0697475 -0.257884
4 0.103515 0.0697475 -0.270195
4 0.121857 -0.0298918 -0.277348
4 0.121857 0.0298918 -0.270262
4 0.0373405 0.12 -0.270262
4 0.0373405 -0.12 -0.217544
4 0.110526 -0.06 -0.264365
4 0.110526 0.06 -0.268436
4 0.0972268 0.08 -0.272255
4 0.0972268 -0.08 -0.250126
4 0.0766105 0.1 -0.278903
4 0.0766105 -0.1 -0.237821
4 0.124571 -0.02 -0.277848
4 0.124571 0.02 -0.27224
4 0.119804 -0.04 -0.273339
4 0.119804 0.04 -0.268769
4 0.0630915 0.109603 -0.280626
4 0.0630915 -0.109603 -0.231929
4 0.040595 0.12 -0.272423
4 0.040595 -0.12 -0.218695
4 0.126655 -0.00996393 -0.279179
4 0.126655 0.00996393 -0.274775
4 0.117146 -0.0498197 -0.269922
4 0.117146 0.0498197 -0.267598
4 0.0906078 0.0896754 -0.275192
4 0.0906078 -0.0896754 -0.243959
4 0.0439092 0.12 -0.274587
4 0.0439092 -0.12 -0.219502
4 0.0668113 0.109603 -0.281474
4 0.0668113 -0.109603 -0.231029
4 0.0805853 0.1 -0.278427
4 0.0805853 -0.1 -0.236773
4 0.107977 -0.0697475 -0.258713
4 0.107977 0.0697475 -0.269411
4 0.0472842 0.12 -0.276775
4 0.0472842 -0.12 -0.220004
4 0.10158 0.08 -0.271278
4 0.10158 -0.08 -0.250775
4 0.129426 0 -0.276463
4 0.00128135 0.129531 -0.259326
4 0.00128135 -0.129531 -0.163704
4 0.00386754 0.129531 -0.259256
4 0.00386754 -0.129531 -0.164894
4 0.00650117 0.129531 -0.259284
4 0.00650117 -0.129531 -0.166347
4 0.115123 -0.06 -0.264596
4 0.115123 0.06 -0.267981
4 0.00918311 0.129531 -0.259453
4 0.00918311 -0.129531 -0.168589
4 0.0119142 0.129531 -0.259797
4 0.0119142 -0.129531 -0.171599
4 0.126655 -0.0298918 -0.276017
4 0.126655 0.0298918 -0.270495
4 0.0507211 0.12 -0.278848
4 0.0507211 -0.12 -0.22025
4 0.0146954 0.129531 -0.260348
4 0.0146954 -0.129531 -0.175157
4 0.0705994 0.109603 -0.281736
4 0.0705994 -0.109603 -0.230159
4 0.0948324 0.0896754 -0.273945
4 0.0948324 -0.0896754 -0.243973
4 0.0175277 0.129531 -0.261124
4 0.0175277 -0.129531 -0.179007
4 0.124571 -0.04 -0.272235
4 0.124571 0.04 -0.268953
4 0.129426 -0.02 -0.276535
4 0.129426 0.02 -0.272563
4 0.0846329 0.1 -0.277505
4 0.0846329 -0.1 -0.236052
4 0.0204118 -0.129531 -0.182951
4 0.0204118 0.129531 -0.262147
4 0.0233489 0.129531 -0.263466
4 0.0233489 -0.129531 -0.18683
4 0.121857 -0.0498197 -0.269038
4 0.121857 0.0498197 -0.267616
4 0.054221 0.12 -0.280662
4 0.054221 -0.12 -0.220304
4 0.131541 -0.00996393 -0.277867
4 0.131541 0.00996393 -0.275037
4 0.0263398 0.129531 -0.265117
4 0.0263398 -0.129531 -0.190486
4 0.11252 -0.0697475 -0.259435
4 0.11252 0.0697475 -0.268601
4 0.074457 0.109603 -0.281402
4 0.074457 -0.109603 -0.22936
4 0.106012 -0.08 -0.251639
4 0.106012 0.08 -0.270218
4 0.0293856 0.129531 -0.267074
4 0.0293856 -0.129531 -0.19384
4 0.0577851 0.12 -0.282134
4 0.0577851 -0.12 -0.220242
4 0.0324873 0.129531 -0.26944
4 0.0324873 -0.129531 -0.196865
4 0.0991344 0.0896754 -0.272565
4 0.0991344 -0.0896754 -0.244391
4 0.0887548 0.1 -0.276243
4 0.0887548 -0.1 -0.235662
4 0.119804 -0.06 -0.264542
4 0.119804 0.06 -0.267628
4 0.0356458 0.129531 -0.272257
4 0.0356458 -0.129531 -0.199495
4 0.134369 0 -0.275694
4 0.0783853 0.109603 -0.280521
4 0.0783853 -0.109603 -0.228693
4 0.0614146 0.12 -0.283171
4 0.0614146 -0.12 -0.220127
4 0.131541 -0.0298918 -0.274075
4 0.131541 0.0298918 -0.270822
4 0.0388623 0.129531 -0.275156
4 0.0388623 -0.129531 -0.201715
4 0.129426 -0.04 -0.270611
4 0.129426 0.04 -0.269254
4 0.134369 -0.02 -0.274634
4 0.134369 0.02 -0.272795
4 0.126655 -0.0498197 -0.267645
4 0.126655 0.0498197 -0.267852
4 0.0421378 0.129531 -0.277768
4 0.0421378 -0.129531 -0.20354
4 0.117146 -0.0697475 -0.260033
4 0.117146 0.0697475 -0.267877
4 0.110526 -0.08 -0.252602
4 0.110526 0.08 -0.269174
4 0.0651106 0.12 -0.283669
4 0.0651106 -0.12 -0.220009
4 0.0929523 0.1 -0.274782
4 0.0929523 -0.1 -0.235606
4 0.136516 -0.00996393 -0.275973
4 0.136516 0.00996393 -0.2749
4 0.103515 -0.0896754 -0.245171
4 0.103515 0.0896754 -0.271142
4 0.0823856 0.109603 -0.279192
4 0.0823856 -0.109603 -0.228208
4 0.0454733 0.129531 -0.280111
4 0.0454733 -0.129531 -0.205004
4 0.124571 -0.06 -0.264125
4 0.124571 0.06 -0.267478
4 0.0688745 0.12 -0.283576
4 0.0688745 -0.12 -0.219927
4 0.0488701 0.129531 -0.282167
4 0.0488701 -0.129531 -0.206152
4 0.139403 0 -0.274458
4 0.0972268 0.1 -0.273238
4 0.0972268 -0.1 -0.235888
4 0.0864594 0.109603 -0.277532
4 0.0864594 -0.109603 -0.227922
4 0.0523291 -0.129531 -0.207038
4 0.0523291 0.129531 -0.283932
4 0.136516 -0.0298918 -0.271586
4 0.136516 0.0298918 -0.271305
4 0 0.14 -0.261294
4 0 -0.14 -0.15769
4 0.00256965 0.14 -0.26127
4 0.00256965 -0.14 -0.158183
4 0.00518642 0.14 -0.261295
4 0.00518642 -0.14 -0.159304
4 0.115123 -0.08 -0.253562
4 0.115123 0.08 -0.268239
4 0.134369 -0.04 -0.268475
4 0.134369 0.04 -0.269714
4 0.00785119 0.14 -0.261473
4 0.00785119 -0.14 -0.160929
4 0.0727073 0.12 -0.282904
4 0.0727073 -0.12 -0.219918
4 0.107977 -0.0896754 -0.246221
4 0.107977 0.0896754 -0.269778
4 0.0105648 0.14 -0.261849
4 0.0105648 -0.14 -0.163316
4 0.121857 -0.0697475 -0.260443
4 0.121857 0.0697475 -0.267329
4 0.0133283 0.14 -0.262477
4 0.0133283 -0.14 -0.1664
4 0.131541 -0.0498197 -0.265756
4 0.131541 0.0498197 -0.268295
4 0.139403 -0.02 -0.272284
4 0.139403 0.02 -0.272848
4 0.0161424 0.14 -0.263412
4 0.0161424 -0.14 -0.169992
4 0.0558515 0.129531 -0.285382
4 0.0558515 -0.129531 -0.207745
4 0.0190081 0.14 -0.2647
4 0.0190081 -0.14 -0.173875
4 0.0219263 0.14 -0.266373
4 0.0219263 -0.14 -0.177839
4 0.141583 -0.00996393 -0.273736
4 0.141583 0.00996393 -0.27423
4 0.0248981 0.14 -0.268429
4 0.0248981 -0.14 -0.181697
4 0.0906078 0.109603 -0.275711
4 0.0906078 -0.109603 -0.227855
4 0.0766105 0.12 -0.281729
4 0.0766105 -0.12 -0.220014
4 0.0594386 0.129531 -0.286257
4 0.0594386 -0.129531 -0.20837
4 0.10158 0.1 -0.271672
4 0.10158 -0.1 -0.236482
4 0.129426 -0.06 -0.263306
4 0.129426 0.06 -0.267605
4 0.0279244 0.14 -0.270805
4 0.0279244 -0.14 -0.185291
4 0.0310063 0.14 -0.273367
4 0.0310063 -0.14 -0.1885
4 0.11252 -0.0896754 -0.24744
4 0.11252 0.0896754 -0.268588
4 0.119804 -0.08 -0.254424
4 0.119804 0.08 -0.267495
4 0.0630915 0.129531 -0.286472
4 0.0630915 -0.129531 -0.208986
4 0.0341446 0.14 -0.276001
4 0.0341446 -0.14 -0.191227
4 0.14453 -3.70074e-17 -0.27288
4 0.0805853 0.12 -0.280179
4 0.0805853 -0.12 -0.220231
4 0.126655 -0.0697475 -0.260552
4 0.126655 0.0697475 -0.267089
4 0.141583 -0.0298918 -0.268775
4 0.141583 0.0298918 -0.271858
4 0.0373405 0.14 -0.278651
4 0.0373405 -0.14 -0.193386
4 0.0948324 0.109603 -0.273906
4 0.0948324 -0.109603 -0.22805
4 0.139403 -0.04 -0.265987
4 0.139403 0.04 -0.270353
4 0.136516 -0.0498197 -0.263493
4 0.136516 0.0498197 -0.26893
4 0.106012 -0.1 -0.237321
4 0.106012 0.1 -0.27015
4 0.0668113 0.129531 -0.286023
4 0.0668113 -0.129531 -0.209635
4 0.040595 0.14 -0.281163
4 0.040595 -0.14 -0.194919
4 0.14453 -0.02 -0.269738
4 0.14453 0.02 -0.272698
4 0.0439092 0.14 -0.283363
4 0.0439092 -0.14 -0.195832
4 0.0846329 0.12 -0.278366
4 0.0846329 -0.12 -0.220578
4 0.146742 -0.00996393 -0.271386
4 0.146742 0.00996393 -0.273167
4 0.134369 -0.06 -0.262101
4 0.134369 0.06 -0.268043
4 0.0705994 0.129531 -0.284963
4 0.0705994 -0.129531 -0.21036
4 0.117146 -0.0896754 -0.248689
4 0.117146 0.0896754 -0.267614
4 0.0472842 0.14 -0.285158
4 0.0472842 -0.14 -0.196227
4 0.0991344 0.109603 -0.272154
4 0.0991344 -0.109603 -0.228518
4 0.124571 -0.08 -0.255084
4 0.124571 0.08 -0.267061
4 0.131541 -0.0697475 -0.260356
4 0.131541 0.0697475 -0.267253
4 0.0507211 0.14 -0.286506
4 0.0507211 -0.14 -0.196279
4 0.110526 -0.1 -0.23832
4 0.110526 0.1 -0.268782
4 0.0887548 0.12 -0.276387
4 0.0887548 -0.12 -0.221056
4 0.074457 0.129531 -0.283373
4 0.074457 -0.129531 -0.211197
4 0.00128135 -0.149459 -0.15215
4 0.00128135 0.149459 -0.263518
4 0.00386754 0.149459 -0.263503
4 0.00386754 -0.149459 -0.152958
4 0.00650117 0.149459 -0.263654
4 0.00650117 -0.149459 -0.154023
4 0.00918311 0.149459 -0.264016
4 0.00918311 -0.149459 -0.155801
4 0.14975 0 -0.271184
4 0.146742 -0.0298918 -0.265946
4 0.146742 0.0298918 -0.272461
4 0.0119142 0.149459 -0.264649
4 0.0119142 -0.149459 -0.15837
4 0.14453 -0.04 -0.263389
4 0.14453 0.04 -0.271169
4 0.141583 -0.0498197 -0.261059
4 0.141583 0.0498197 -0.26988
4 0.054221 0.14 -0.2874
4 0.054221 -0.14 -0.196185
4 0.0146954 0.149459 -0.265635
4 0.0146954 -0.149459 -0.161625
4 0.0175277 0.149459 -0.267055
4 0.0175277 -0.149459 -0.16538
4 0.103515 -0.109603 -0.2292
4 0.103515 0.109603 -0.270448
4 0.0204118 0.149459 -0.26896
4 0.0204118 -0.149459 -0.169404
4 0.14975 -0.02 -0.267237
4 0.14975 0.02 -0.272473
4 0.0233489 0.149459 -0.271365
4 0.0233489 -0.149459 -0.173447