# p  POINT_DATA 90431
# x  y  z  p
5 0 0 -0.183158
5 0.00256965 0 -0.183131
5 0.00518642 0 -0.18316
5 0.00785119 0 -0.183307
5 0.00128482 -0.01 -0.181838
5 0.00128482 0.01 -0.184479
5 0.0105648 0 -0.183524
5 0.00387803 -0.01 -0.181796
5 0.00387803 0.01 -0.184412
5 0.00651881 -0.01 -0.181909
5 0.00651881 0.01 -0.184522
5 0.0133283 0 -0.183801
5 0.00920802 -0.01 -0.182095
5 0.00920802 0.01 -0.184702
5 0.0119465 -0.01 -0.182349
5 0.0119465 0.01 -0.184949
5 0.0161424 0 -0.184122
5 0.0147353 -0.01 -0.182652
5 0.0147353 0.01 -0.185253
5 0.0190081 0 -0.184466
5 0 -0.02 -0.179609
5 0 0.02 -0.185315
5 0.00256965 -0.02 -0.179592
5 0.00256965 0.02 -0.185275
5 0.0175752 -0.01 -0.182982
5 0.0175752 0.01 -0.185599
5 0.00518642 -0.02 -0.179627
5 0.00518642 0.02 -0.185287
5 0.00785119 -0.02 -0.179772
5 0.00785119 0.02 -0.185423
5 0.0219263 0 -0.184811
5 0.0105648 -0.02 -0.179989
5 0.0105648 0.02 -0.185628
5 0.0204672 -0.01 -0.183316
5 0.0204672 0.01 -0.185967
5 0.0133283 -0.02 -0.180262
5 0.0133283 0.02 -0.185903
5 0.0248981 0 -0.18513
5 0.0234122 -0.01 -0.183626
5 0.0234122 0.01 -0.186335
5 0.0161424 -0.02 -0.180569
5 0.0161424 0.02 -0.186238
5 0.0190081 -0.02 -0.180888
5 0.0190081 0.02 -0.186618
5 0.0279244 0 -0.185397
5 0.0264113 -0.01 -0.183885
5 0.0264113 0.01 -0.186676
5 0.0219263 -0.02 -0.18119
5 0.0219263 0.02 -0.187021
5 0.00128482 -0.03 -0.177381
5 0.00128482 0.03 -0.18615
5 0.00387803 -0.03 -0.177352
5 0.00387803 0.03 -0.18606
5 0.00651881 -0.03 -0.177453
5 0.00651881 0.03 -0.186153
5 0.0310063 0 -0.185585
5 0.0294653 -0.01 -0.18407
5 0.0294653 0.01 -0.186958
5 0.00920802 -0.03 -0.177633
5 0.00920802 0.03 -0.186313
5 0.0248981 -0.02 -0.181449
5 0.0248981 0.02 -0.187421
5 0.0119465 -0.03 -0.177879
5 0.0119465 0.03 -0.186548
5 0.0147353 -0.03 -0.178166
5 0.0147353 0.03 -0.18686
5 0.0325754 -0.01 -0.184159
5 0.0325754 0.01 -0.187153
5 0.0341446 0 -0.18567
5 0.0279244 -0.02 -0.181641
5 0.0279244 0.02 -0.187785
5 0.0175752 -0.03 -0.178476
5 0.0175752 0.03 -0.187239
5 0.0204672 -0.03 -0.178777
5 0.0204672 0.03 -0.187666
5 0.0310063 -0.02 -0.181747
5 0.0310063 0.02 -0.188081
5 0.0357425 -0.01 -0.184132
5 0.0357425 0.01 -0.187235
5 0.0373405 0 -0.185626
5 0.0234122 -0.03 -0.179041
5 0.0234122 0.03 -0.188116
5 0.0341446 -0.02 -0.181747
5 0.0341446 0.02 -0.188279
5 0.0264113 -0.03 -0.179243
5 0.0264113 0.03 -0.188556
5 0 -0.04 -0.174212
5 0 0.04 -0.187199
5 0.00256965 -0.04 -0.174193
5 0.00256965 0.04 -0.187152
5 0.0389677 -0.01 -0.183963
5 0.0389677 0.01 -0.187175
5 0.00518642 -0.04 -0.174217
5 0.00518642 0.04 -0.187146
5 0.040595 0 -0.185424
5 0.00785119 -0.04 -0.174346
5 0.00785119 0.04 -0.187264
5 0.0105648 -0.04 -0.174551
5 0.0105648 0.04 -0.187459
5 0.0294653 -0.03 -0.179367
5 0.0294653 0.03 -0.18895
5 0.0133283 -0.04 -0.174809
5 0.0133283 0.04 -0.18774
5 0.0373405 -0.02 -0.181617
5 0.0373405 0.02 -0.188347
5 0.0161424 -0.04 -0.175095
5 0.0161424 0.04 -0.188104
5 0.0422521 -0.01 -0.183617
5 0.0422521 0.01 -0.186939
5 0.0439092 0 -0.185018
5 0.0325754 -0.03 -0.179393
5 0.0325754 0.03 -0.189264
5 0.0190081 -0.04 -0.175389
5 0.0190081 0.04 -0.188539
5 0.040595 -0.02 -0.181328
5 0.040595 0.02 -0.188254
5 0.0219263 -0.04 -0.175661
5 0.0219263 0.04 -0.189017
5 0.0357425 -0.03 -0.179303
5 0.0357425 0.03 -0.189463
5 0.0455967 -0.01 -0.183041
5 0.0455967 0.01 -0.186477
5 0.0248981 -0.04 -0.175886
5 0.0248981 0.04 -0.189504
5 0.0472842 0 -0.184354
5 0.0439092 -0.02 -0.180833
5 0.0439092 0.02 -0.187958
5 0.0279244 -0.04 -0.176043
5 0.0279244 0.04 -0.189962
5 0.0389677 -0.03 -0.179071
5 0.0389677 0.03 -0.189516
5 0.0490026 -0.01 -0.182173
5 0.0490026 0.01 -0.185723
5 0.00128482 -0.05 -0.171043
5 0.00128482 0.05 -0.188248
5 0.00387803 -0.05 -0.170994
5 0.00387803 0.05 -0.188148
5 0.00651881 -0.05 -0.171068
5 0.00651881 0.05 -0.188221
5 0.0310063 -0.04 -0.176114
5 0.0310063 0.04 -0.190354
5 0.0507211 0 -0.183366
5 0.00920802 -0.05 -0.171229
5 0.00920802 0.05 -0.188368
5 0.0472842 -0.02 -0.18008
5 0.0472842 0.02 -0.187402
5 0.0119465 -0.05 -0.171462
5 0.0119465 0.05 -0.188608
5 0.0422521 -0.03 -0.178659
5 0.0422521 0.03 -0.189386
5 0.0147353 -0.05 -0.171727
5 0.0147353 0.05 -0.188944
5 0.0341446 -0.04 -0.17608
5 0.0341446 0.04 -0.190642
5 0.0175752 -0.05 -0.172013
5 0.0175752 0.05 -0.189375
5 0.052471 -0.01 -0.180957
5 0.052471 0.01 -0.18461
5 0.0204672 -0.05 -0.172291
5 0.0204672 0.05 -0.189876
5 0.054221 0 -0.182007
5 0.0507211 -0.02 -0.179015
5 0.0507211 0.02 -0.186518
5 0.0455967 -0.03 -0.178015
5 0.0455967 0.03 -0.189028
5 0.0373405 -0.04 -0.175917
5 0.0373405 0.04 -0.190796
5 0.0234122 -0.05 -0.172536
5 0.0234122 0.05 -0.19041
5 0.0264113 -0.05 -0.172725
5 0.0264113 0.05 -0.190934
5 0.056003 -0.01 -0.17937
5 0.056003 0.01 -0.183092
5 0.040595 -0.04 -0.175592
5 0.040595 0.04 -0.190781
5 0.0490026 -0.03 -0.177089
5 0.0490026 0.03 -0.188378
5 0.0577851 0 -0.180273
5 0.054221 -0.02 -0.17761
5 0.054221 0.02 -0.185242
5 0.0294653 -0.05 -0.172839
5 0.0294653 0.05 -0.191409
5 0.0439092 -0.04 -0.175063
5 0.0439092 0.04 -0.190553
5 0.0325754 -0.05 -0.172859
5 0.0325754 0.05 -0.191792
5 0 -0.06 -0.167458
5 0 0.06 -0.190029
5 0.00256965 -0.06 -0.16742
5 0.00256965 0.06 -0.189979
5 0.00518642 -0.06 -0.167419
5 0.00518642 0.06 -0.189975
5 0.0595998 -0.01 -0.177451
5 0.0595998 0.01 -0.181178
5 0.052471 -0.03 -0.175841
5 0.052471 0.03 -0.187359
5 0.00785119 -0.06 -0.167529
5 0.00785119 0.06 -0.190107
5 0.0105648 -0.06 -0.167708
5 0.0105648 0.06 -0.190325
5 0.0577851 -0.02 -0.175886
5 0.0577851 0.02 -0.183548
5 0.0614146 0 -0.178226
5 0.0357425 -0.05 -0.172765
5 0.0357425 0.05 -0.192051
5 0.0133283 -0.06 -0.167937
5 0.0133283 0.06 -0.190644
5 0.0472842 -0.04 -0.174286
5 0.0472842 0.04 -0.190056
5 0.0161424 -0.06 -0.168196
5 0.0161424 0.06 -0.191062
5 0.0190081 -0.06 -0.168464
5 0.0190081 0.06 -0.191558
5 0.0389677 -0.05 -0.172528
5 0.0389677 0.05 -0.192155
5 0.056003 -0.03 -0.174273
5 0.056003 0.03 -0.185908
5 0.0219263 -0.06 -0.168718
5 0.0219263 0.06 -0.192098
5 0.0632626 -0.01 -0.17531
5 0.0632626 0.01 -0.178963
5 0.0614146 -0.02 -0.173923
5 0.0614146 0.02 -0.181473
5 0.0507211 -0.04 -0.173222
5 0.0507211 0.04 -0.189217
5 0.0248981 -0.06 -0.168932
5 0.0248981 0.06 -0.192639
5 0.0651106 0 -0.175987
5 0.0422521 -0.05 -0.17211
5 0.0422521 0.05 -0.192066
5 0.0279244 -0.06 -0.169086
5 0.0279244 0.06 -0.193137
5 0.0595998 -0.03 -0.172449
5 0.0595998 0.03 -0.184012
5 0.054221 -0.04 -0.171863
5 0.054221 0.04 -0.187963
5 0.0310063 -0.06 -0.169159
5 0.0310063 0.06 -0.193552
5 0.0455967 -0.05 -0.17147
5 0.0455967 0.05 -0.191731
5 0.0669925 -0.01 -0.173084
5 0.0669925 0.01 -0.176591
5 0.0651106 -0.02 -0.17184
5 0.0651106 0.02 -0.179133
5 0.0688745 0 -0.173689
5 0.0341446 -0.06 -0.169129
5 0.0341446 0.06 -0.193848
5 0.0490026 -0.05 -0.170569
5 0.0490026 0.05 -0.191084
5 0.00128482 -0.07 -0.163873
5 0.00128482 0.07 -0.19181
5 0.0632626 -0.03 -0.170481
5 0.0632626 0.03 -0.18174
5 0.00387803 -0.07 -0.163771
5 0.00387803 0.07 -0.191707
5 0.0577851 -0.04 -0.170252
5 0.0577851 0.04 -0.18625
5 0.00651881 -0.07 -0.163844
5 0.00651881 0.07 -0.191823
5 0.00920802 -0.07 -0.163977
5 0.00920802 0.07 -0.192017
5 0.0373405 -0.06 -0.168971
5 0.0373405 0.06 -0.193993
5 0.0119465 -0.07 -0.164165
5 0.0119465 0.07 -0.192308
5 0.0707909 -0.01 -0.170882
5 0.0707909 0.01 -0.174196
5 0.0147353 -0.07 -0.164395
5 0.0147353 0.07 -0.192716
5 0.0688745 -0.02 -0.169746
5 0.0688745 0.02 -0.176672
5 0.0175752 -0.07 -0.164649
5 0.0175752 0.07 -0.193213
5 0.040595 -0.06 -0.168652
5 0.040595 0.06 -0.193953
5 0.052471 -0.05 -0.169387
5 0.052471 0.05 -0.190045
5 0.0727073 0 -0.171421
5 0.0204672 -0.07 -0.164905
5 0.0204672 0.07 -0.193767
5 0.0614146 -0.04 -0.168475
5 0.0614146 0.04 -0.184101
5 0.0669925 -0.03 -0.168484
5 0.0669925 0.03 -0.179238
5 0.0234122 -0.07 -0.165139
5 0.0234122 0.07 -0.194338
5 0.0439092 -0.06 -0.168139
5 0.0439092 0.06 -0.193679
5 0.0264113 -0.07 -0.165329
5 0.0264113 0.07 -0.194874
5 0.056003 -0.05 -0.167951
5 0.056003 0.05 -0.188539
5 0.0746589 -0.01 -0.168751
5 0.0746589 0.01 -0.171856
5 0.0727073 -0.02 -0.167706
5 0.0727073 0.02 -0.174206
5 0.0294653 -0.07 -0.165452
5 0.0294653 0.07 -0.195332
5 0.0472842 -0.06 -0.167397
5 0.0472842 0.06 -0.193107
5 0.0651106 -0.04 -0.166636
5 0.0651106 0.04 -0.181621
5 0.0766105 0 -0.169224
5 0.0707909 -0.03 -0.166534
5 0.0707909 0.03 -0.176661
5 0.0325754 -0.07 -0.165485
5 0.0325754 0.07 -0.195676
5 0.0595998 -0.05 -0.166334
5 0.0595998 0.05 -0.186542
5 0.0507211 -0.06 -0.166404
5 0.0507211 0.06 -0.192158
5 0.0357425 -0.07 -0.165405
5 0.0357425 0.07 -0.195873
5 0.0766105 -0.02 -0.165738
5 0.0766105 0.02 -0.171795
5 0.0785979 -0.01 -0.166698
5 0.0785979 0.01 -0.169589
5 0.0688745 -0.04 -0.164814
5 0.0688745 0.04 -0.178964
5 0 -0.08 -0.160429
5 0 0.08 -0.193926
5 0.00256965 -0.08 -0.160369
5 0.00256965 0.08 -0.193875
5 0.0389677 -0.07 -0.165183
5 0.0389677 0.07 -0.195893
5 0.00518642 -0.08 -0.160342
5 0.00518642 0.08 -0.193909
5 0.00785119 -0.08 -0.160435
5 0.00785119 0.08 -0.194124
5 0.0746589 -0.03 -0.164655
5 0.0746589 0.03 -0.174111
5 0.0805853 0 -0.1671
5 0.0632626 -0.05 -0.164635
5 0.0632626 0.05 -0.184111
5 0.0105648 -0.08 -0.160578
5 0.0105648 0.08 -0.194433
5 0.054221 -0.06 -0.165175
5 0.054221 0.06 -0.190755
5 0.0133283 -0.08 -0.160767
5 0.0133283 0.08 -0.194844
5 0.0161424 -0.08 -0.160989
5 0.0161424 0.08 -0.195345
5 0.0422521 -0.07 -0.164788
5 0.0422521 0.07 -0.195697
5 0.0190081 -0.08 -0.161227
5 0.0190081 0.08 -0.195903
5 0.0219263 -0.08 -0.161458
5 0.0219263 0.08 -0.196478
5 0.0727073 -0.04 -0.163049
5 0.0727073 0.04 -0.176268
5 0.0805853 -0.02 -0.163838
5 0.0805853 0.02 -0.169453
5 0.0826091 -0.01 -0.164715
5 0.0826091 0.01 -0.167396
5 0.0577851 -0.06 -0.163763
5 0.0577851 0.06 -0.188848
5 0.0455967 -0.07 -0.164189
5 0.0455967 0.07 -0.195223
5 0.0669925 -0.05 -0.162942
5 0.0669925 0.05 -0.181394
5 0.0248981 -0.08 -0.16166
5 0.0248981 0.08 -0.197021
5 0.0785979 -0.03 -0.162845
5 0.0785979 0.03 -0.171623
5 0.0846329 0 -0.165045
5 0.0279244 -0.08 -0.16181
5 0.0279244 0.08 -0.197485
5 0.0490026 -0.07 -0.16336
5 0.0490026 0.07 -0.19439
5 0.0310063 -0.08 -0.161882
5 0.0310063 0.08 -0.19783
5 0.0614146 -0.06 -0.162247
5 0.0614146 0.06 -0.186457
5 0.0766105 -0.04 -0.161346
5 0.0766105 0.04 -0.173606
5 0.0707909 -0.05 -0.161297
5 0.0707909 0.05 -0.178563
5 0.0846329 -0.02 -0.162
5 0.0846329 0.02 -0.167183
5 0.0341446 -0.08 -0.161854
5 0.0341446 0.08 -0.198022
5 0.0866939 -0.01 -0.162796
5 0.0866939 0.01 -0.165273
5 0.052471 -0.07 -0.162302
5 0.052471 0.07 -0.193114
5 0.0826091 -0.03 -0.161094
5 0.0826091 0.03 -0.169203
5 0.0373405 -0.08 -0.1617
5 0.0373405 0.08 -0.19803
5 0.0651106 -0.06 -0.160707
5 0.0651106 0.06 -0.183693
5 0.0887548 0 -0.163057
5 0.056003 -0.07 -0.161061
5 0.056003 0.07 -0.191322
5 0.040595 -0.08 -0.161392
5 0.040595 0.08 -0.197815
5 0.0746589 -0.05 -0.15971
5 0.0746589 0.05 -0.175734
5 0.0805853 -0.04 -0.159697
5 0.0805853 0.04 -0.171005
5 0.00128482 -0.09 -0.156985
5 0.00128482 0.09 -0.196041
5 0.00387803 -0.09 -0.156846
5 0.00387803 0.09 -0.195939
5 0.00651881 -0.09 -0.156908
5 0.00651881 0.09 -0.196165
5 0.00920802 -0.09 -0.157011
5 0.00920802 0.09 -0.19649
5 0.0119465 -0.09 -0.15716
5 0.0119465 0.09 -0.196918
5 0.0887548 -0.02 -0.160219
5 0.0887548 0.02 -0.164987
5 0.0147353 -0.09 -0.157349
5 0.0147353 0.09 -0.197436
5 0.0439092 -0.08 -0.160905
5 0.0439092 0.08 -0.19732
5 0.0688745 -0.06 -0.159194
5 0.0688745 0.06 -0.180722
5 0.0908536 -0.01 -0.160938
5 0.0908536 0.01 -0.163221
5 0.0175752 -0.09 -0.157565
5 0.0175752 0.09 -0.198014
5 0.0866939 -0.03 -0.159395
5 0.0866939 0.03 -0.166858
5 0.0595998 -0.07 -0.159706
5 0.0595998 0.07 -0.188989
5 0.0204672 -0.09 -0.157789
5 0.0204672 0.09 -0.198615
5 0.0472842 -0.08 -0.160216
5 0.0472842 0.08 -0.196472
5 0.0929523 0 -0.161137
5 0.0234122 -0.09 -0.158
5 0.0234122 0.09 -0.19919
5 0.0785979 -0.05 -0.158174
5 0.0785979 0.05 -0.172954
5 0.0846329 -0.04 -0.158094
5 0.0846329 0.04 -0.168478
5 0.0264113 -0.09 -0.158174
5 0.0264113 0.09 -0.199683
5 0.0727073 -0.06 -0.157727
5 0.0727073 0.06 -0.177694
5 0.0632626 -0.07 -0.158313
5 0.0632626 0.07 -0.186186
5 0.0294653 -0.09 -0.158285
5 0.0294653 0.09 -0.200051
5 0.0507211 -0.08 -0.159322
5 0.0507211 0.08 -0.195186
5 0.0929523 -0.02 -0.158495
5 0.0929523 0.02 -0.162869
5 0.0950896 -0.01 -0.159144
5 0.0950896 0.01 -0.161242
5 0.0908536 -0.03 -0.157747
5 0.0908536 0.03 -0.164594
5 0.0325754 -0.09 -0.158308
5 0.0325754 0.09 -0.200262
5 0.0826091 -0.05 -0.156675
5 0.0826091 0.05 -0.170241
5 0.054221 -0.08 -0.158252
5 0.054221 0.08 -0.193389
5 0.0357425 -0.09 -0.158218
5 0.0357425 0.09 -0.200279
5 0.0669925 -0.07 -0.156937
5 0.0669925 0.07 -0.183078
5 0.0972268 0 -0.159285
5 0.0766105 -0.06 -0.156303
5 0.0766105 0.06 -0.17469
5 0.0887548 -0.04 -0.156537
5 0.0887548 0.04 -0.166034
5 0.0389677 -0.09 -0.157992
5 0.0389677 0.09 -0.200075
5 0.0577851 -0.08 -0.157061
5 0.0577851 0.08 -0.191042
5 0.0972268 -0.02 -0.156827
5 0.0972268 0.02 -0.160835
5 0.0422521 -0.09 -0.157606
5 0.0422521 0.09 -0.199595
5 0.0707909 -0.07 -0.155599
5 0.0707909 0.07 -0.179852
5 0.0950896 -0.03 -0.156149
5 0.0950896 0.03 -0.162419
5 0.0994033 -0.01 -0.157413
5 0.0994033 0.01 -0.159341
5 0 -0.1 -0.153903
5 0 0.1 -0.196732
5 0.00256965 -0.1 -0.153843
5 0.00256965 0.1 -0.196673
5 0.0866939 -0.05 -0.155214
5 0.0866939 0.05 -0.167608
5 0.00518642 -0.1 -0.15381
5 0.00518642 0.1 -0.196766
5 0.00785119 -0.1 -0.153883
5 0.00785119 0.1 -0.197116
5 0.0805853 -0.06 -0.154912
5 0.0805853 0.06 -0.171746
5 0.0105648 -0.1 -0.153995
5 0.0105648 0.1 -0.197569
5 0.0614146 -0.08 -0.155814
5 0.0614146 0.08 -0.188185
5 0.0133283 -0.1 -0.154144
5 0.0133283 0.1 -0.198118
5 0.0455967 -0.09 -0.157038
5 0.0455967 0.09 -0.198767
5 0.0929523 -0.04 -0.155025
5 0.0929523 0.04 -0.163685
5 0.0161424 -0.1 -0.154325
5 0.0161424 0.1 -0.198735
5 0.10158 0 -0.157505
5 0.0190081 -0.1 -0.154522
5 0.0190081 0.1 -0.199385
5 0.0746589 -0.07 -0.154302
5 0.0746589 0.07 -0.176625
5 0.0219263 -0.1 -0.154717
5 0.0219263 0.1 -0.200019
5 0.0490026 -0.09 -0.156279
5 0.0490026 0.09 -0.197508
5 0.0248981 -0.1 -0.154887
5 0.0248981 0.1 -0.200582
5 0.0651106 -0.08 -0.154563
5 0.0651106 0.08 -0.184949
5 0.10158 -0.02 -0.155218
5 0.10158 0.02 -0.158889
5 0.0908536 -0.05 -0.153794
5 0.0908536 0.05 -0.165073
5 0.0846329 -0.06 -0.153553
5 0.0846329 0.06 -0.168882
5 0.0279244 -0.1 -0.155007
5 0.0279244 0.1 -0.201019
5 0.0994033 -0.03 -0.154602
5 0.0994033 0.03 -0.160338
5 0.052471 -0.09 -0.155349
5 0.052471 0.09 -0.195732
5 0.103796 -0.01 -0.155748
5 0.103796 0.01 -0.157519
5 0.0310063 -0.1 -0.155052
5 0.0310063 0.1 -0.201287
5 0.0972268 -0.04 -0.153556
5 0.0972268 0.04 -0.161441
5 0.0785979 -0.07 -0.153028
5 0.0785979 0.07 -0.173446
5 0.0688745 -0.08 -0.153338
5 0.0688745 0.08 -0.18152
5 0.0341446 -0.1 -0.154999
5 0.0341446 0.1 -0.201343
5 0.056003 -0.09 -0.154296
5 0.056003 0.09 -0.193386
5 0.106012 0 -0.155801
5 0.0373405 -0.1 -0.154824
5 0.0373405 0.1 -0.201148
5 0.0887548 -0.06 -0.152228
5 0.0887548 0.06 -0.166119
5 0.0950896 -0.05 -0.15241
5 0.0950896 0.05 -0.162652
5 0.106012 -0.02 -0.153672
5 0.106012 0.02 -0.157035
5 0.040595 -0.1 -0.154506
5 0.040595 0.1 -0.200651
5 0.0595998 -0.09 -0.153181
5 0.0595998 0.09 -0.190471
5 0.103796 -0.03 -0.15311
5 0.103796 0.03 -0.158357
5 0.0727073 -0.08 -0.152146
5 0.0727073 0.08 -0.178045
5 0.0826091 -0.07 -0.151772
5 0.0826091 0.07 -0.170342
5 0.108269 -0.01 -0.154154
5 0.108269 0.01 -0.155782
5 0.10158 -0.04 -0.152134
5 0.10158 0.04 -0.15931
5 0.0439092 -0.1 -0.154028
5 0.0439092 0.1 -0.199785
5 0.00128482 -0.11 -0.150821
5 0.00128482 0.11 -0.197422
5 0.0632626 -0.09 -0.152055
5 0.0632626 0.09 -0.187091
5 0.00387803 -0.11 -0.150719
5 0.00387803 0.11 -0.197291
5 0.00651881 -0.11 -0.150767
5 0.00651881 0.11 -0.197669
5 0.00920802 -0.11 -0.150847
5 0.00920802 0.11 -0.198141
5 0.110526 0 -0.154176
5 0.0472842 -0.1 -0.15338
5 0.0472842 0.1 -0.198473
5 0.0929523 -0.06 -0.150935
5 0.0929523 0.06 -0.163479
5 0.0119465 -0.11 -0.15096
5 0.0119465 0.11 -0.198727
5 0.0766105 -0.08 -0.150978
5 0.0766105 0.08 -0.174606
5 0.0147353 -0.11 -0.151108
5 0.0147353 0.11 -0.19939
5 0.0994033 -0.05 -0.151063
5 0.0994033 0.05 -0.160354
5 0.0175752 -0.11 -0.151278
5 0.0175752 0.11 -0.200101
5 0.0866939 -0.07 -0.150549
5 0.0866939 0.07 -0.167336
5 0.0204672 -0.11 -0.151457
5 0.0204672 0.11 -0.200809
5 0.0507211 -0.1 -0.152574
5 0.0507211 0.1 -0.196642
5 0.0669925 -0.09 -0.150947
5 0.0669925 0.09 -0.183441
5 0.110526 -0.02 -0.152192
5 0.110526 0.02 -0.155277
5 0.108269 -0.03 -0.151676
5 0.108269 0.03 -0.156481
5 0.0234122 -0.11 -0.151623
5 0.0234122 0.11 -0.201461
5 0.0264113 -0.11 -0.151752
5 0.0264113 0.11 -0.201993
5 0.112825 -0.01 -0.152634
5 0.112825 0.01 -0.154133
5 0.106012 -0.04 -0.150761
5 0.106012 0.04 -0.157296
5 0.0805853 -0.08 -0.149825
5 0.0805853 0.08 -0.171239
5 0.054221 -0.1 -0.151646
5 0.054221 0.1 -0.19424
5 0.0294653 -0.11 -0.151818
5 0.0294653 0.11 -0.202348
5 0.0972268 -0.06 -0.149672
5 0.0972268 0.06 -0.160978
5 0.0707909 -0.09 -0.149867
5 0.0707909 0.09 -0.179706
5 0.0908536 -0.07 -0.149354
5 0.0908536 0.07 -0.164459
5 0.0325754 -0.11 -0.151798
5 0.0325754 0.11 -0.202485
5 0.115123 0 -0.152633
5 0.103796 -0.05 -0.149758
5 0.103796 0.05 -0.158188
5 0.0577851 -0.1 -0.150646
5 0.0577851 0.1 -0.191268
5 0.0357425 -0.11 -0.15167
5 0.0357425 0.11 -0.202347
5 0.0846329 -0.08 -0.148692
5 0.0846329 0.08 -0.167973
5 0.0389677 -0.11 -0.151414
5 0.0389677 0.11 -0.20189
5 0.112825 -0.03 -0.150304
5 0.112825 0.03 -0.154711
5 0.115123 -0.02 -0.150782
5 0.115123 0.02 -0.153616
5 0.0746589 -0.09 -0.148814
5 0.0746589 0.09 -0.175996
5 0.0614146 -0.1 -0.149622
5 0.0614146 0.1 -0.187805
5 0.110526 -0.04 -0.149443
5 0.110526 0.04 -0.155401
5 0.0422521 -0.11 -0.151013
5 0.0422521 0.11 -0.201045
5 0.117464 -0.01 -0.151191
5 0.117464 0.01 -0.152573
5 0.10158 -0.06 -0.148442
5 0.10158 0.06 -0.158626
5 0.0950896 -0.07 -0.148181
5 0.0950896 0.07 -0.161732
5 0.0455967 -0.11 -0.150455
5 0.0455967 0.11 -0.199734
5 0.108269 -0.05 -0.148499
5 0.108269 0.05 -0.156156
5 0.0651106 -0.1 -0.148605
5 0.0651106 0.1 -0.184012
5 0.0887548 -0.08 -0.147583
5 0.0887548 0.08 -0.16484
5 0.0785979 -0.09 -0.14777
5 0.0785979 0.09 -0.172355
5 0.119804 -3.70074e-17 -0.151173
5 0 -0.12 -0.148027
5 0 0.12 -0.195419
5 0.00256965 -0.12 -0.147997
5 0.00256965 0.12 -0.195352
5 0.00518642 -0.12 -0.147987
5 0.00518642 0.12 -0.195531
5 0.00785119 -0.12 -0.148043
5 0.00785119 0.12 -0.196044
5 0.0490026 -0.11 -0.149747
5 0.0490026 0.11 -0.197884
5 0.0105648 -0.12 -0.14813
5 0.0105648 0.12 -0.196643
5 0.0133283 -0.12 -0.148247
5 0.0133283 0.12 -0.197346
5 0.0161424 -0.12 -0.148388
5 0.0161424 0.12 -0.198105
5 0.117464 -0.03 -0.148998
5 0.117464 0.03 -0.153046
5 0.0688745 -0.1 -0.147609
5 0.0688745 0.1 -0.180076
5 0.119804 -0.02 -0.149444
5 0.119804 0.02 -0.152052
5 0.0190081 -0.12 -0.148543
5 0.0190081 0.12 -0.198874
5 0.0994033 -0.07 -0.147033
5 0.0994033 0.07 -0.159173
5 0.106012 -0.06 -0.147251
5 0.106012 0.06 -0.156429
5 0.052471 -0.11 -0.14892
5 0.052471 0.11 -0.195442
5 0.115123 -0.04 -0.148183
5 0.115123 0.04 -0.153625
5 0.0219263 -0.12 -0.148692
5 0.0219263 0.12 -0.199598
5 0.0826091 -0.09 -0.146731
5 0.0826091 0.09 -0.168811
5 0.0248981 -0.12 -0.148814
5 0.0248981 0.12 -0.200217
5 0.122188 -0.01 -0.149826
5 0.122188 0.01 -0.151102
5 0.0929523 -0.08 -0.146494
5 0.0929523 0.08 -0.161868
5 0.0279244 -0.12 -0.148886
5 0.0279244 0.12 -0.200665
5 0.112825 -0.05 -0.147291
5 0.112825 0.05 -0.154256
5 0.056003 -0.11 -0.148019
5 0.056003 0.11 -0.192399
5 0.0727073 -0.1 -0.146636
5 0.0727073 0.1 -0.176135
5 0.0310063 -0.12 -0.148883
5 0.0310063 0.12 -0.20088
5 0.124571 0 -0.149797
5 0.0341446 -0.12 -0.148785
5 0.0341446 0.12 -0.200803
5 0.0866939 -0.09 -0.145714
5 0.0866939 0.09 -0.165401
5 0.0595998 -0.11 -0.147089
5 0.0595998 0.11 -0.188816
5 0.103796 -0.07 -0.145914
5 0.103796 0.07 -0.15679
5 0.0373405 -0.12 -0.148573
5 0.0373405 0.12 -0.200373
5 0.110526 -0.06 -0.146103
5 0.110526 0.06 -0.154385
5 0.122188 -0.03 -0.147761
5 0.122188 0.03 -0.151486
5 0.0972268 -0.08 -0.145424
5 0.0972268 0.08 -0.159079
5 0.0766105 -0.1 -0.145679
5 0.0766105 0.1 -0.17226
5 0.124571 -0.02 -0.14818
5 0.124571 0.02 -0.150583
5 0.119804 -0.04 -0.146986
5 0.119804 0.04 -0.151967
5 0.040595 -0.12 -0.14823
5 0.040595 0.12 -0.199524
5 0.0632626 -0.11 -0.146163
5 0.0632626 0.11 -0.184841
5 0.126999 -0.01 -0.148539
5 0.126999 0.01 -0.149719
5 0.117464 -0.05 -0.146139
5 0.117464 0.05 -0.152486
5 0.0439092 -0.12 -0.147747
5 0.0439092 0.12 -0.198188
5 0.0908536 -0.09 -0.144714
5 0.0908536 0.09 -0.162161
5 0.0805853 -0.1 -0.14473
5 0.0805853 0.1 -0.168486
5 0.0669925 -0.11 -0.145255
5 0.0669925 0.11 -0.180674
5 0.108269 -0.07 -0.144831
5 0.108269 0.07 -0.154582
5 0.0472842 -0.12 -0.147126
5 0.0472842 0.12 -0.196302
5 0.10158 -0.08 -0.144377
5 0.10158 0.08 -0.156487
5 0.129426 0 -0.148502
5 0.115123 -0.06 -0.145003
5 0.115123 0.06 -0.15249
5 0.00128482 -0.13 -0.145234
5 0.00128482 0.13 -0.193415
5 0.00387803 -0.13 -0.145214
5 0.00387803 0.13 -0.193278
5 0.00651881 -0.13 -0.145248
5 0.00651881 0.13 -0.193888
5 0.0507211 -0.12 -0.14639
5 0.0507211 0.12 -0.193826
5 0.00920802 -0.13 -0.145312
5 0.00920802 0.13 -0.194478
5 0.126999 -0.03 -0.146592
5 0.126999 0.03 -0.150025
5 0.0119465 -0.13 -0.145402
5 0.0119465 0.13 -0.195225
5 0.0707909 -0.11 -0.144368
5 0.0707909 0.11 -0.176483
5 0.0147353 -0.13 -0.145518
5 0.0147353 0.13 -0.196043
5 0.124571 -0.04 -0.145852
5 0.124571 0.04 -0.150422
5 0.0950896 -0.09 -0.143726
5 0.0950896 0.09 -0.159118
5 0.129426 -0.02 -0.146987
5 0.129426 0.02 -0.149206
5 0.0846329 -0.1 -0.143789
5 0.0846329 0.1 -0.164847
5 0.0175752 -0.13 -0.14565
5 0.0175752 0.13 -0.196885
5 0.0204672 -0.13 -0.145785
5 0.0204672 0.13 -0.197699
5 0.054221 -0.12 -0.145575
5 0.054221 0.12 -0.190759
5 0.122188 -0.05 -0.145045
5 0.122188 0.05 -0.150851
5 0.0234122 -0.13 -0.145903
5 0.0234122 0.13 -0.198424
5 0.131897 -0.01 -0.147327
5 0.131897 0.01 -0.14842
5 0.0264113 -0.13 -0.14598
5 0.0264113 0.13 -0.19899
5 0.112825 -0.07 -0.143789
5 0.112825 0.07 -0.152545
5 0.106012 -0.08 -0.143358
5 0.106012 0.08 -0.154096
5 0.0746589 -0.11 -0.143496
5 0.0746589 0.11 -0.172355
5 0.0577851 -0.12 -0.144723
5 0.0577851 0.12 -0.187159
5 0.0294653 -0.13 -0.145993
5 0.0294653 0.13 -0.199327
5 0.0887548 -0.1 -0.142861
5 0.0887548 0.1 -0.16138
5 0.119804 -0.06 -0.143955
5 0.119804 0.06 -0.15074
5 0.0325754 -0.13 -0.145923
5 0.0325754 0.13 -0.19936
5 0.0994033 -0.09 -0.142754
5 0.0994033 0.09 -0.156293
5 0.134369 0 -0.147287
5 0.0614146 -0.12 -0.143866
5 0.0614146 0.12 -0.18315
5 0.0357425 -0.13 -0.145749
5 0.0357425 0.13 -0.199021
5 0.0785979 -0.11 -0.142636
5 0.0785979 0.11 -0.168332
5 0.131897 -0.03 -0.145489
5 0.131897 0.03 -0.148661
5 0.129426 -0.04 -0.14478
5 0.129426 0.04 -0.14898
5 0.0389677 -0.13 -0.145457
5 0.0389677 0.13 -0.198234
5 0.134369 -0.02 -0.145865
5 0.134369 0.02 -0.14792
5 0.110526 -0.08 -0.142374
5 0.110526 0.08 -0.151899
5 0.126999 -0.05 -0.144008
5 0.126999 0.05 -0.149324
5 0.0651106 -0.12 -0.143021
5 0.0651106 0.12 -0.178909
5 0.0929523 -0.1 -0.141943
5 0.0929523 0.1 -0.158117
5 0.0422521 -0.13 -0.145036
5 0.0422521 0.13 -0.196929
5 0.117464 -0.07 -0.142792
5 0.117464 0.07 -0.150672
5 0.136886 -0.01 -0.146191
5 0.136886 0.01 -0.147207
5 0.103796 -0.09 -0.141805
5 0.103796 0.09 -0.153693
5 0.0826091 -0.11 -0.141781
5 0.0826091 0.11 -0.164444
5 0.0455967 -0.13 -0.144484
5 0.0455967 0.13 -0.195045
5 0.124571 -0.06 -0.14296
5 0.124571 0.06 -0.149125
5 0.0688745 -0.12 -0.142194
5 0.0688745 0.12 -0.174605
5 0.0490026 -0.13 -0.143818
5 0.0490026 0.13 -0.192545
5 0.139403 0 -0.146152
5 0.0972268 -0.1 -0.141037
5 0.0972268 0.1 -0.155082
5 0 -0.14 -0.142624
5 0 0.14 -0.187929
5 0.00256965 -0.14 -0.142628
5 0.00256965 0.14 -0.187921
5 0.0866939 -0.11 -0.140931
5 0.0866939 0.11 -0.16073
5 0.00518642 -0.14 -0.14265
5 0.00518642 0.14 -0.188229
5 0.136886 -0.03 -0.144453
5 0.136886 0.03 -0.147393
5 0.052471 -0.13 -0.143074
5 0.052471 0.13 -0.189432
5 0.115123 -0.08 -0.141429
5 0.115123 0.08 -0.14989
5 0.134369 -0.04 -0.14377
5 0.134369 0.04 -0.147644
5 0.00785119 -0.14 -0.142696
5 0.00785119 0.14 -0.188882
5 0.0727073 -0.12 -0.141384
5 0.0727073 0.12 -0.17035
5 0.0105648 -0.14 -0.142768
5 0.0105648 0.14 -0.189628
5 0.0133283 -0.14 -0.142863
5 0.0133283 0.14 -0.190476
5 0.108269 -0.09 -0.140883
5 0.108269 0.09 -0.151317
5 0.122188 -0.07 -0.141843
5 0.122188 0.07 -0.148951
5 0.139403 -0.02 -0.144815
5 0.139403 0.02 -0.146725
5 0.0161424 -0.14 -0.142976
5 0.0161424 0.14 -0.191357
5 0.131897 -0.05 -0.14303
5 0.131897 0.05 -0.147911
5 0.0190081 -0.14 -0.143095
5 0.0190081 0.14 -0.192216
5 0.056003 -0.13 -0.142289
5 0.056003 0.13 -0.185763
5 0.0219263 -0.14 -0.143203
5 0.0219263 0.14 -0.19299
5 0.0248981 -0.14 -0.14328
5 0.0248981 0.14 -0.193612
5 0.141967 -0.01 -0.145132
5 0.141967 0.01 -0.146079
5 0.0766105 -0.12 -0.140585
5 0.0766105 0.12 -0.1662
5 0.10158 -0.1 -0.140148
5 0.10158 0.1 -0.152288
5 0.129426 -0.06 -0.142018
5 0.129426 0.06 -0.147635
5 0.0908536 -0.11 -0.140085
5 0.0908536 0.11 -0.157226
5 0.0279244 -0.14 -0.143304
5 0.0279244 0.14 -0.194004
5 0.0595998 -0.13 -0.141496
5 0.0595998 0.13 -0.181657
5 0.0310063 -0.14 -0.143255
5 0.0310063 0.14 -0.194088
5 0.119804 -0.08 -0.140527
5 0.119804 0.08 -0.148054
5 0.0341446 -0.14 -0.143113
5 0.0341446 0.14 -0.193785
5 0.112825 -0.09 -0.139994
5 0.112825 0.09 -0.149153
5 0.14453 -3.70074e-17 -0.145099
5 0.0805853 -0.12 -0.139792
5 0.0805853 0.12 -0.16219
5 0.0632626 -0.13 -0.140714
5 0.0632626 0.13 -0.177287
5 0.0373405 -0.14 -0.142864
5 0.0373405 0.14 -0.193021
5 0.126999 -0.07 -0.140943
5 0.126999 0.07 -0.147373
5 0.139403 -0.04 -0.142823
5 0.139403 0.04 -0.146412
5 0.141967 -0.03 -0.143485
5 0.141967 0.03 -0.146221
5 0.0950896 -0.11 -0.139246
5 0.0950896 0.11 -0.153961
5 0.136886 -0.05 -0.142109
5 0.136886 0.05 -0.146611
5 0.106012 -0.1 -0.139282
5 0.106012 0.1 -0.149738
5 0.040595 -0.14 -0.142498
5 0.040595 0.14 -0.191733
5 0.14453 -0.02 -0.143837
5 0.14453 0.02 -0.145621
5 0.0669925 -0.13 -0.139951
5 0.0669925 0.13 -0.172835
5 0.0439092 -0.14 -0.142012
5 0.0439092 0.14 -0.189867
5 0.0846329 -0.12 -0.139003
5 0.0846329 0.12 -0.158353
5 0.134369 -0.06 -0.14113
5 0.134369 0.06 -0.14627
5 0.14714 -0.01 -0.144149
5 0.14714 0.01 -0.145036
5 0.0472842 -0.14 -0.141418
5 0.0472842 0.14 -0.1874
5 0.117464 -0.09 -0.139142
5 0.117464 0.09 -0.147187
5 0.0707909 -0.13 -0.139204
5 0.0707909 0.13 -0.168429
5 0.124571 -0.08 -0.139668
5 0.124571 0.08 -0.146381
5 0.0994033 -0.11 -0.138421
5 0.0994033 0.11 -0.150955
5 0.0507211 -0.14 -0.140741
5 0.0507211 0.14 -0.184343
5 0.110526 -0.1 -0.138445
5 0.110526 0.1 -0.147422
5 0.0887548 -0.12 -0.138216
5 0.0887548 0.12 -0.154722
5 0.131897 -0.07 -0.140092
5 0.131897 0.07 -0.145932
5 0.14975 0 -0.144125
5 0.0746589 -0.13 -0.138468
5 0.0746589 0.13 -0.164132
5 0.14453 -0.04 -0.141939
5 0.14453 0.04 -0.145284
5 0.00128482 -0.15 -0.140014
5 0.00128482 0.15 -0.182444
5 0.00387803 -0.15 -0.140052
5 0.00387803 0.15 -0.182549
5 0.054221 -0.14 -0.140017
5 0.054221 0.14 -0.180753
5 0.00651881 -0.15 -0.140085
5 0.00651881 0.15 -0.183203
5 0.14714 -0.03 -0.142583
5 0.14714 0.03 -0.145146
5 0.00920802 -0.15 -0.14014
5 0.00920802 0.15 -0.183959
5 0.0119465 -0.15 -0.140218
5 0.0119465 0.15 -0.184849
5 0.141967 -0.05 -0.141246
5 0.141967 0.05 -0.145422
5 0.0147353 -0.15 -0.140314
5 0.0147353 0.15 -0.185787
5 0.0175752 -0.15 -0.140421
5 0.0175752 0.15 -0.186714
5 0.14975 -0.02 -0.142929
5 0.14975 0.02 -0.144607
5 0.103796 -0.11 -0.137613
5 0.103796 0.11 -0.148212
5 0.0204672 -0.15 -0.140523
5 0.0204672 0.15 -0.187566
5 0.0577851 -0.14 -0.139277
5 0.0577851 0.14 -0.176739
5 0.122188 -0.09 -0.138329
5 0.122188 0.09 -0.145405
5 0.139403 -0.06 -0.140295
5 0.139403 0.06 -0.145026
5 0.0929523 -0.12 -0.137435
5 0.0929523 0.12 -0.151326
5 0.0234122 -0.15 -0.140602
5 0.0234122 0.15 -0.188273
5 0.0785979 -0.13 -0.137739
5 0.0785979 0.13 -0.15998
5 0.129426 -0.08 -0.138854
5 0.129426 0.08 -0.144862
5 0.0264113 -0.15 -0.140637
5 0.0264113 0.15 -0.188761
5 0.115123 -0.1 -0.137639
5 0.115123 0.1 -0.145328
5 0.152408 -0.01 -0.143239
5 0.152408 0.01 -0.144077
5 0.0294653 -0.15 -0.140607
5 0.0294653 0.15 -0.18894
5 0.0614146 -0.14 -0.138542
5 0.0614146 0.14 -0.172451
5 0.0325754 -0.15 -0.140495
5 0.0325754 0.15 -0.188725
5 0.136886 -0.07 -0.139289
5 0.136886 0.07 -0.144623
5 0.0826091 -0.13 -0.137012
5 0.0826091 0.13 -0.156003
5 0.0357425 -0.15 -0.140285
5 0.0357425 0.15 -0.188033
5 0.108269 -0.11 -0.136829
5 0.108269 0.11 -0.145728
5 0.0651106 -0.14 -0.137822
5 0.0651106 0.14 -0.168051
5 0.0972268 -0.12 -0.136663
5 0.0972268 0.12 -0.148187
5 0.0389677 -0.15 -0.139966
5 0.0389677 0.15 -0.186798
5 0.14975 -0.04 -0.141115
5 0.14975 0.04 -0.144259
5 0.155066 0 -0.143229
5 0.152408 -0.03 -0.141746
5 0.152408 0.03 -0.144167
5 0.14714 -0.05 -0.14044
5 0.14714 0.05 -0.144344
5 0.126999 -0.09 -0.137557
5 0.126999 0.09 -0.143794
5 0.0422521 -0.15 -0.139534
5 0.0422521 0.15 -0.184969
5 0.0688745 -0.14 -0.137119
5 0.0688745 0.14 -0.163674
5 0.119804 -0.1 -0.136868
5 0.119804 0.1 -0.143439
5 0.0866939 -0.13 -0.136286
5 0.0866939 0.13 -0.152233
5 0.155066 -0.02 -0.142088
5 0.155066 0.02 -0.143682
5 0.134369 -0.08 -0.138085
5 0.134369 0.08 -0.143489
5 0.14453 -0.06 -0.139512
5 0.14453 0.06 -0.143902
5 0.0455967 -0.15 -0.138996
5 0.0455967 0.15 -0.182526
5 0.10158 -0.12 -0.135906
5 0.10158 0.12 -0.145315
5 0.112825 -0.11 -0.136073
5 0.112825 0.11 -0.14349
5 0.0727073 -0.14 -0.136428
5 0.0727073 0.14 -0.1594
5 0.0490026 -0.15 -0.138374
5 0.0490026 0.15 -0.179485
5 0.157773 -0.01 -0.142399
5 0.157773 0.01 -0.143201
5 0.141967 -0.07 -0.138535
5 0.141967 0.07 -0.143445
5 0.0908536 -0.13 -0.135562
5 0.0908536 0.13 -0.148697
5 0.052471 -0.15 -0.1377
5 0.052471 0.15 -0.175909
5 0.0766105 -0.14 -0.135745
5 0.0766105 0.14 -0.155275
5 0.131897 -0.09 -0.136825
5 0.131897 0.09 -0.142346
5 0.124571 -0.1 -0.136133
5 0.124571 0.1 -0.14174
5 0 -0.16 -0.137531
5 0 0.16 -0.172617
5 0.00256965 -0.16 -0.137549
5 0.00256965 0.16 -0.172744
5 0.00518642 -0.16 -0.137584
5 0.00518642 0.16 -0.173199
5 0.056003 -0.15 -0.137007
5 0.056003 0.15 -0.171908