# U  POINT_DATA 90431
# x  y  z  U_x  U_y  U_z
4 0 0 0 0 0
4 0.00256965 0 0.0903313 -0.00151149 -0.0303758
4 0.00518642 0 0.130732 -0.00364761 -0.0485826
4 0.00785119 0 0.157701 -0.00601234 -0.0655301
4 0.00128135 -0.00996393 0.0644929 -0.00109221 -0.0239148
4 0.00128135 0.00996393 0.0696811 -0.00013508 -0.0180863
4 0.0105648 0 0.171196 -0.00761546 -0.080742
4 0.00386754 -0.00996393 0.109393 -0.00403811 -0.044833
4 0.00386754 0.00996393 0.118372 -0.000636174 -0.0340235
4 0.00650117 -0.00996393 0.141126 -0.00807866 -0.0640427
4 0.00650117 0.00996393 0.154816 -0.00150743 -0.0506766
4 0.0133283 0 0.173561 -0.00778681 -0.0951214
4 0.00918311 -0.00996393 0.158372 -0.0117564 -0.0797908
4 0.00918311 0.00996393 0.177224 -0.00216204 -0.0671181
4 0.0119142 -0.00996393 0.163635 -0.0137671 -0.0932467
4 0.0119142 0.00996393 0.185979 -0.00202528 -0.0829244
4 0.0161424 0 0.167792 -0.00618469 -0.109702
4 0.0146954 -0.00996393 0.160933 -0.0137959 -0.106464
4 0.0146954 0.00996393 0.183569 -0.000605916 -0.0987358
4 0.0190081 0 0.156308 -0.00255323 -0.124985
4 0 -0.02 0 0 0
4 0 0.02 0 0 0
4 0.0175277 -0.00996393 0.152604 -0.0115854 -0.120012
4 0.0175277 0.00996393 0.173192 0.00239859 -0.115268
4 0.00256965 -0.02 0.0714907 -0.00247642 -0.0394804
4 0.00256965 0.02 0.094234 8.83238e-05 -0.0235437
4 0.00518642 -0.02 0.10406 -0.00480704 -0.0578575
4 0.00518642 0.02 0.137112 0.000236272 -0.0383274
4 0.00785119 -0.02 0.125255 -0.00649929 -0.0701119
4 0.00785119 0.02 0.166891 0.000598126 -0.0539024
4 0.0219263 0 0.140674 0.00318821 -0.140919
4 0.0105648 -0.02 0.136063 -0.00654093 -0.0779063
4 0.0105648 0.02 0.182506 0.00161534 -0.0701029
4 0.0204118 -0.00996393 0.14076 -0.00708128 -0.134536
4 0.0204118 0.00996393 0.15689 0.00738854 -0.132486
4 0.0133283 -0.02 0.1391 -0.00468533 -0.0844719
4 0.0133283 0.02 0.184955 0.00363555 -0.086953
4 0.0248981 0 0.121947 0.010829 -0.156822
4 0.0233489 -0.00996393 0.126373 -0.00041684 -0.149817
4 0.0233489 0.00996393 0.13584 0.014365 -0.149675
4 0.0161424 -0.02 0.136969 -0.000968933 -0.0923676
4 0.0161424 0.02 0.176749 0.00696187 -0.104635
4 0.0190081 -0.02 0.131332 0.00419108 -0.103016
4 0.0190081 0.02 0.160626 0.0118222 -0.122971
4 0.0279244 0 0.101119 0.0199864 -0.171687
4 0.0263398 0.00996393 0.111761 0.023003 -0.16578
4 0.0263398 -0.00996393 0.109943 0.00801018 -0.165041
4 0.0219263 -0.02 0.123103 0.0106015 -0.116788
4 0.0219263 0.02 0.138759 0.018249 -0.141228
4 0.00128135 -0.0298918 0.0412611 -0.00163192 -0.0331791
4 0.00128135 0.0298918 0.0695292 0.000156308 -0.0146961
4 0.00386754 -0.0298918 0.073394 -0.00324286 -0.0552186
4 0.00386754 0.0298918 0.118635 0.00103642 -0.0275032
4 0.00650117 -0.0298918 0.0957718 -0.0041623 -0.0668596
4 0.00650117 0.0298918 0.155601 0.00224479 -0.0413273
4 0.0310063 0 0.0790542 0.0301641 -0.184482
4 0.0293856 0.00996393 0.0859323 0.0330056 -0.179565
4 0.0293856 -0.00996393 0.0920936 0.0176632 -0.179245
4 0.00918311 -0.0298918 0.109577 -0.00261087 -0.0702003
4 0.00918311 0.0298918 0.178518 0.00419532 -0.0568855
4 0.0248981 -0.02 0.112494 0.0180035 -0.132943
4 0.0248981 0.02 0.112948 0.026008 -0.15831
4 0.0119142 -0.0298918 0.116378 0.00100468 -0.0701533
4 0.0119142 0.0298918 0.186493 0.00706511 -0.0742121
4 0.0146954 -0.0298918 0.118663 0.00653255 -0.0711843
4 0.0146954 0.0298918 0.181516 0.0109833 -0.0930951
4 0.0324873 -0.00996393 0.0732957 0.028045 -0.191604
4 0.0324873 0.00996393 0.0594887 0.0436908 -0.189922
4 0.0341446 0 0.0566281 0.0408065 -0.194466
4 0.0279244 -0.02 0.0996898 0.0257838 -0.150323
4 0.0279244 0.02 0.0851563 0.0347273 -0.173007
4 0.0175277 -0.0298918 0.118148 0.0134548 -0.0762452
4 0.0175277 0.0298918 0.165953 0.0162187 -0.113008
4 0.0204118 -0.0298918 0.115371 0.0203198 -0.0867421
4 0.0204118 0.0298918 0.143155 0.0226846 -0.13298
4 0.0310063 -0.02 0.0850452 0.0335753 -0.167758
4 0.0310063 0.02 0.0571838 0.0439655 -0.184283
4 0.0356458 -0.00996393 0.0538491 0.0386073 -0.201585
4 0.0356458 0.00996393 0.0340614 0.054556 -0.196404
4 0.0373405 0 0.0347904 0.0514793 -0.201333
4 0.0233489 -0.0298918 0.11042 0.0279352 -0.102234
4 0.0233489 0.0298918 0.115287 0.0301728 -0.151723
4 0.0341446 -0.02 0.068681 0.041086 -0.184135
4 0.0341446 0.02 0.0306516 0.0533055 -0.191683
4 0.0263398 -0.0298918 0.102693 0.0349683 -0.121147
4 0.0263398 0.0298918 0.0846295 0.0382663 -0.167849
4 0 0.04 0 0 0
4 0 -0.04 0 0 0
4 0.00256965 0.04 0.089658 0.000417401 -0.0186576
4 0.00256965 -0.04 0.0438315 0.00423402 -0.0204727
4 0.0388623 -0.00996393 0.0339335 0.0490086 -0.208916
4 0.0388623 0.00996393 0.0113157 0.0652682 -0.199162
4 0.00518642 0.04 0.130074 0.00140676 -0.0316392
4 0.00518642 -0.04 0.0688834 0.0114353 -0.0180372
4 0.040595 0 0.0141016 0.0619225 -0.205205
4 0.00785119 -0.04 0.0872054 0.0211237 -0.0107209
4 0.00785119 0.04 0.156527 0.00317873 -0.0465897
4 0.0105648 -0.04 0.0984391 0.0319763 -0.00409316
4 0.0105648 0.04 0.167871 0.00599752 -0.063942
4 0.0293856 -0.0298918 0.0924621 0.0411721 -0.142159
4 0.0293856 0.0298918 0.0538296 0.0465027 -0.180152
4 0.0133283 -0.04 0.103332 0.0429384 -0.00260498
4 0.0133283 0.04 0.164885 0.0098618 -0.0834365
4 0.0373405 -0.02 0.0505682 0.0482697 -0.198755
4 0.0373405 0.02 0.00719579 0.0625249 -0.195457
4 0.0161424 -0.04 0.103305 0.0532109 -0.00860798
4 0.0161424 0.04 0.150159 0.0147389 -0.104276
4 0.0421378 -0.00996393 0.0133017 0.0590821 -0.213691
4 0.0421378 0.00996393 -0.00823758 0.0756531 -0.198859
4 0.0439092 0 -0.00542685 0.0720244 -0.206531
4 0.0324873 -0.0298918 0.0797757 0.0463408 -0.163717
4 0.0324873 0.0298918 0.0250232 0.0545522 -0.188041
4 0.0190081 0.04 0.127102 0.0204743 -0.1253
4 0.0190081 -0.04 0.0994715 0.0620132 -0.0227755
4 0.040595 -0.02 0.0304119 0.0551715 -0.211078
4 0.040595 0.02 -0.0121544 0.0716103 -0.196378
4 0.0219263 0.04 0.0991029 0.0267608 -0.145154
4 0.0219263 -0.04 0.0927359 0.0691553 -0.0442529
4 0.0356458 -0.0298918 0.0642947 0.0505164 -0.184365
4 0.0356458 0.0298918 -0.000232021 0.0622756 -0.191924
4 0.0454733 -0.00996393 -0.00824358 0.0687331 -0.216166
4 0.0454733 0.00996393 -0.0247724 0.0857223 -0.196416
4 0.0248981 0.04 0.0690787 0.0332421 -0.162532
4 0.0248981 -0.04 0.0841188 0.0743664 -0.0711873
4 0.0472842 0 -0.0238966 0.0817853 -0.205913
4 0.0439092 -0.02 0.00786549 0.0617656 -0.220631
4 0.0439092 0.02 -0.0273006 0.0807037 -0.195465
4 0.0279244 0.04 0.0399021 0.0396084 -0.176442
4 0.0279244 -0.04 0.0746717 0.0770332 -0.101572
4 0.0388623 -0.0298918 0.0457683 0.0543475 -0.203765
4 0.0388623 0.0298918 -0.0203408 0.069789 -0.192835
4 0.00128135 0.0498197 0.0625329 -5.00737e-05 -0.0106564
4 0.00128135 -0.0498197 0.0190401 0.00424792 -0.00733105
4 0.0488701 -0.00996393 -0.0305109 0.0779327 -0.216585
4 0.0488701 0.00996393 -0.0385842 0.0955981 -0.192889
4 0.00386754 0.0498197 0.107202 0.000518856 -0.0224616
4 0.00386754 -0.0498197 0.0436584 0.0167445 0.0107792
4 0.00650117 -0.0498197 0.0651963 0.0346999 0.0339721
4 0.00650117 0.0498197 0.137696 0.00183836 -0.0363561
4 0.0310063 0.04 0.0137279 0.0457152 -0.186566
4 0.0310063 -0.04 0.0650357 0.0770736 -0.133312
4 0.00918311 -0.0498197 0.0809075 0.0537867 0.0533037
4 0.00918311 0.0498197 0.152586 0.00451166 -0.0532335
4 0.0507211 0 -0.0412355 0.0912734 -0.204043
4 0.0119142 -0.0498197 0.0895613 0.0719657 0.0625494
4 0.0119142 0.0498197 0.151657 0.00840461 -0.0731902
4 0.0472842 -0.02 -0.0166732 0.0680834 -0.227341
4 0.0472842 0.02 -0.0385559 0.090043 -0.193817
4 0.0421378 -0.0298918 0.0233107 0.0578511 -0.220527
4 0.0421378 0.0298918 -0.0350762 0.0774657 -0.19215
4 0.0146954 -0.0498197 0.0914361 0.0876758 0.0595568
4 0.0146954 0.0498197 0.137223 0.0133211 -0.095263
4 0.0341446 0.04 -0.00806692 0.0516737 -0.19341
4 0.0341446 -0.04 0.0546739 0.0747863 -0.164295
4 0.0175277 -0.0498197 0.0878001 0.100045 0.0443815
4 0.0175277 0.0498197 0.113017 0.0189047 -0.117931
4 0.0523291 -0.00996393 -0.0527897 0.0866747 -0.215401
4 0.0523291 0.00996393 -0.0499513 0.105474 -0.189298
4 0.0204118 0.0498197 0.0832716 0.0246862 -0.139514
4 0.0204118 -0.0498197 0.0796279 0.108807 0.0184751
4 0.054221 0 -0.0571435 0.100595 -0.201672
4 0.0454733 -0.0298918 -0.00308285 0.0611216 -0.233927
4 0.0454733 0.0298918 -0.0446789 0.0856921 -0.191066
4 0.0507211 -0.02 -0.0420726 0.0741277 -0.231317
4 0.0507211 0.02 -0.0463298 0.0999022 -0.1925
4 0.0373405 0.04 -0.0247816 0.0578643 -0.198114
4 0.0373405 -0.04 0.0420781 0.0709894 -0.193139
4 0.0233489 0.0498197 0.0518445 0.0301832 -0.158451
4 0.0233489 -0.0498197 0.0689304 0.114098 -0.0153561
4 0.0263398 0.0498197 0.0221123 0.0350738 -0.173686
4 0.0263398 -0.0498197 0.058202 0.11518 -0.054537
4 0.0558515 -0.00996393 -0.0740527 0.0949792 -0.213296
4 0.0558515 0.00996393 -0.0590246 0.11557 -0.186466
4 0.040595 0.04 -0.0367059 0.0648453 -0.20212
4 0.040595 -0.04 0.0253778 0.0667869 -0.218888
4 0.0488701 -0.0298918 -0.0316997 0.0642708 -0.243872
4 0.0488701 0.0298918 -0.0497253 0.094904 -0.190833
4 0.0577851 0 -0.0710666 0.109858 -0.199522
4 0.054221 -0.02 -0.06693 0.0798918 -0.23275
4 0.054221 0.02 -0.051069 0.110508 -0.192327
4 0.0293856 0.0498197 -0.00281546 0.0393392 -0.184886
4 0.0293856 -0.0498197 0.0492615 0.111859 -0.0964743
4 0.0439092 0.04 -0.0442246 0.0731078 -0.206699
4 0.0439092 -0.04 0.00336303 0.0631888 -0.240328
4 0.0324873 0.0498197 -0.0223795 0.0432482 -0.19297
4 0.0324873 -0.0498197 0.0423032 0.104449 -0.138182
4 0 0.06 0 0 0
4 0 -0.06 0 0 0
4 0.00256965 0.06 0.0780328 9.78959e-05 -0.0144892
4 0.00256965 -0.06 0.0693808 0.0163368 0.0932103
4 0.00518642 0.06 0.110692 0.000915095 -0.0282331
4 0.00518642 -0.06 0.0968112 0.0336401 0.128019
4 0.0523291 -0.0298918 -0.0605621 0.0672094 -0.250092
4 0.0523291 0.0298918 -0.0506887 0.105427 -0.192376
4 0.0594386 -0.00996393 -0.0929906 0.102916 -0.211024
4 0.0594386 0.00996393 -0.065651 0.126016 -0.184981
4 0.00785119 0.06 0.126978 0.00290001 -0.0451061
4 0.00785119 -0.06 0.114436 0.0534697 0.145969
4 0.0105648 0.06 0.127364 0.00627071 -0.0649268
4 0.0105648 -0.06 0.122783 0.0697231 0.145385
4 0.0577851 -0.02 -0.0898427 0.085428 -0.23229
4 0.0577851 0.02 -0.0531736 0.121981 -0.193748
4 0.0356458 0.0498197 -0.0355342 0.0474795 -0.199364
4 0.0356458 -0.0498197 0.0351281 0.0939741 -0.17714
4 0.0614146 0 -0.0821767 0.119141 -0.198155
4 0.0133283 0.06 0.114252 0.0107809 -0.0868935
4 0.0133283 -0.06 0.122624 0.0815241 0.129029
4 0.0472842 0.04 -0.0475878 0.0830351 -0.21271
4 0.0472842 -0.04 -0.0233637 0.0603803 -0.256271
4 0.0161424 0.06 0.0916353 0.0160195 -0.109639
4 0.0161424 -0.06 0.114667 0.088772 0.101444
4 0.0190081 0.06 0.0640454 0.0214842 -0.131627
4 0.0190081 -0.06 0.0995637 0.0918178 0.0656399
4 0.0388623 0.0498197 -0.0437078 0.052921 -0.205871
4 0.0388623 -0.0498197 0.0244919 0.0819882 -0.212208
4 0.0558515 -0.0298918 -0.0877584 0.0699941 -0.252443
4 0.0558515 0.0298918 -0.0483893 0.117403 -0.196159
4 0.0630915 -0.00996393 -0.108154 0.110547 -0.209162
4 0.0630915 0.00996393 -0.069347 0.136851 -0.185135
4 0.0219263 0.06 0.0357659 0.0267018 -0.151542
4 0.0219263 -0.06 0.0788148 0.0913508 0.0228299
4 0.0614146 -0.02 -0.109524 0.0907808 -0.230795
4 0.0614146 0.02 -0.0528523 0.134289 -0.196841
4 0.0507211 0.04 -0.0474006 0.0948903 -0.220591
4 0.0507211 -0.04 -0.0523438 0.058598 -0.26627
4 0.0248981 0.06 0.0101412 0.0314013 -0.168717
4 0.0248981 -0.06 0.0555003 0.0877043 -0.0259358
4 0.0651106 0 -0.0896093 0.128467 -0.197894
4 0.0421378 0.0498197 -0.0483163 0.0604283 -0.214068
4 0.0421378 -0.0498197 0.00749037 0.0706392 -0.242683
4 0.0279244 0.06 -0.010637 0.0356479 -0.183339
4 0.0279244 -0.06 0.0346349 0.0810959 -0.0788756
4 0.0594386 -0.0298918 -0.111935 0.0727217 -0.252259
4 0.0594386 0.0298918 -0.0435075 0.130794 -0.202073
4 0.054221 0.04 -0.0444964 0.108628 -0.230364
4 0.054221 -0.04 -0.0803986 0.0577301 -0.270983
4 0.0454733 0.0498197 -0.0494175 0.0703346 -0.224868
4 0.0454733 -0.0498197 -0.0164969 0.0616119 -0.266776
4 0.0310063 0.06 -0.0257438 0.0398292 -0.196394
4 0.0310063 -0.06 0.020325 0.0717018 -0.132607
4 0.0668113 -0.00996393 -0.118402 0.117955 -0.207974
4 0.0668113 0.00996393 -0.0697071 0.147984 -0.187054
4 0.0651106 -0.02 -0.12485 0.0959798 -0.22895
4 0.0651106 0.02 -0.0502057 0.147216 -0.201508
4 0.0688745 0 -0.0926924 0.137787 -0.198861
4 0.0341446 0.06 -0.0353059 0.0446439 -0.209316
4 0.0341446 -0.06 0.0119681 0.0602455 -0.182145
4 0.00128135 0.0697475 0.0526765 -0.000148378 -0.00642402
4 0.00128135 -0.0697475 0.0857292 0.0147104 0.146749
4 0.0488701 0.0498197 -0.0471573 0.0829809 -0.238318
4 0.0488701 -0.0498197 -0.04562 0.0536125 -0.28245
4 0.0630915 -0.0298918 -0.132105 0.0753902 -0.25035
4 0.0630915 0.0298918 -0.0367396 0.145319 -0.209629
4 0.00386754 0.0697475 0.0893683 2.647e-05 -0.019309
4 0.00386754 -0.0697475 0.126199 0.0290834 0.211735
4 0.00650117 0.0697475 0.107724 0.00118732 -0.0362764
4 0.00650117 -0.0697475 0.149412 0.0533117 0.242921
4 0.0577851 0.04 -0.0396506 0.123945 -0.241658
4 0.0577851 -0.04 -0.105339 0.0569324 -0.271845
4 0.00918311 0.0697475 0.108494 0.00393179 -0.0565571
4 0.00918311 -0.0697475 0.159767 0.0712361 0.240773
4 0.0373405 0.06 -0.0399252 0.0509305 -0.223494
4 0.0373405 -0.06 0.00404224 0.048027 -0.222931
4 0.0119142 0.0697475 0.0946492 0.00806433 -0.079194
4 0.0119142 -0.0697475 0.158821 0.0812068 0.212915
4 0.0146954 0.0697475 0.0709174 0.0131091 -0.102794
4 0.0146954 -0.0697475 0.149016 0.0848766 0.170716
4 0.0705994 -0.00996393 -0.122903 0.125186 -0.207575
4 0.0705994 0.00996393 -0.0664307 0.159172 -0.190719
4 0.0688745 -0.02 -0.134873 0.101059 -0.227265
4 0.0688745 0.02 -0.045326 0.160395 -0.207634
4 0.0175277 0.0697475 0.0426297 0.0184328 -0.125724
4 0.0175277 -0.0697475 0.12938 0.0824818 0.122732
4 0.0523291 0.0498197 -0.042696 0.0982714 -0.253954
4 0.0523291 -0.0498197 -0.0753886 0.0487143 -0.29021
4 0.040595 0.06 -0.0406756 0.0594005 -0.23994
4 0.040595 -0.06 -0.00904758 0.036544 -0.253213
4 0.0204118 0.0697475 0.0147036 0.0234708 -0.146582
4 0.0204118 -0.0697475 0.101438 0.0762439 0.0705252
4 0.0727073 0 -0.0910356 0.14696 -0.201078
4 0.0668113 -0.0298918 -0.147421 0.0780138 -0.247806
4 0.0668113 0.0298918 -0.0286226 0.160442 -0.218522
4 0.0614146 0.04 -0.0335624 0.140332 -0.253778
4 0.0614146 -0.04 -0.126459 0.0561929 -0.270316
4 0.0233489 0.0697475 -0.00873638 0.0278511 -0.164648
4 0.0233489 -0.0697475 0.0666987 0.0668787 0.0127506
4 0.0439092 0.06 -0.0386176 0.0705206 -0.258966
4 0.0439092 -0.06 -0.028553 0.0271444 -0.274504
4 0.0263398 0.0697475 -0.0258334 0.0316982 -0.18056
4 0.0263398 -0.0697475 0.0314219 0.055601 -0.0505027
4 0.0558515 -0.0498197 -0.101716 0.0444142 -0.292386
4 0.0558515 0.0498197 -0.0368168 0.115631 -0.27098
4 0.074457 -0.00996393 -0.121571 0.13223 -0.208168
4 0.074457 0.00996393 -0.0592011 0.170055 -0.195897
4 0.0727073 -0.02 -0.138992 0.106038 -0.226016
4 0.0727073 0.02 -0.0383476 0.173371 -0.215012
4 0.0293856 0.0697475 -0.0364516 0.0355337 -0.195892
4 0.0293856 -0.0697475 0.00470487 0.0429292 -0.117211
4 0.0472842 0.06 -0.0352487 0.0843369 -0.280084
4 0.0472842 -0.06 -0.052109 0.019978 -0.288762
4 0.0651106 0.04 -0.0268027 0.157099 -0.26598
4 0.0651106 -0.04 -0.143521 0.0557191 -0.267608
4 0.0766105 0 -0.0844901 0.155795 -0.204625
4 0.0705994 -0.0298918 -0.156977 0.0806041 -0.245203
4 0.0705994 0.0298918 -0.0196676 0.17556 -0.228506
4 0.0324873 0.0697475 -0.0412991 0.0401828 -0.212543
4 0.0324873 -0.0697475 -0.00876607 0.0289561 -0.181255
4 0.0594386 0.0498197 -0.0302948 0.1343 -0.288443
4 0.0594386 -0.0498197 -0.123542 0.0397863 -0.291125
4 0.0356458 0.0697475 -0.0417974 0.0466936 -0.232051
4 0.0356458 -0.0697475 -0.0145205 0.0152117 -0.234224
4 0.0507211 0.06 -0.0317414 0.10054 -0.302152
4 0.0507211 -0.06 -0.0763802 0.0143542 -0.296946
4 0.0783853 -0.00996393 -0.113901 0.139023 -0.209782
4 0.0783853 0.00996393 -0.0483663 0.180318 -0.202907
4 0.0766105 -0.02 -0.13657 0.110945 -0.225246
4 0.0766105 0.02 -0.0294341 0.185701 -0.223394
4 0.0688745 -0.04 -0.155861 0.0555626 -0.2646
4 0.0688745 0.04 -0.0199413 0.173506 -0.277751
4 0.0388623 0.0697475 -0.038504 0.055803 -0.255189
4 0.0388623 -0.0697475 -0.0235879 0.00279832 -0.269915
4 0 0.08 0 0 0
4 0 -0.08 0 0 0
4 0.00256965 0.08 0.0628107 0.00053623 -0.0106516
4 0.00256965 -0.08 0.126494 0.0109894 0.226969
4 0.00518642 0.08 0.0851002 0.00202967 -0.0258727
4 0.00518642 -0.08 0.153466 0.0180859 0.261867
4 0.074457 -0.0298918 -0.160203 0.0832099 -0.242717
4 0.074457 0.0298918 -0.0105463 0.190062 -0.239265
4 0.00785119 0.08 0.0897712 0.00488183 -0.0452073
4 0.00785119 -0.08 0.162206 0.0230084 0.247293
4 0.0630915 0.0498197 -0.02375 0.153321 -0.305192
4 0.0630915 -0.0498197 -0.141658 0.0357156 -0.288056
4 0.0805853 0 -0.073184 0.164094 -0.209392
4 0.0105648 0.08 0.0802456 0.00917734 -0.0671197
4 0.0105648 -0.08 0.15787 0.0228053 0.199354
4 0.054221 0.06 -0.0285383 0.118395 -0.323848
4 0.054221 -0.06 -0.0985613 0.00969021 -0.30048
4 0.0133283 0.08 0.0612451 0.0145302 -0.0902603
4 0.0133283 -0.08 0.143127 0.0182978 0.137208
4 0.0421378 0.0697475 -0.0322925 0.0678603 -0.281802
4 0.0421378 -0.0697475 -0.0407362 -0.0071044 -0.289374
4 0.0161424 0.08 0.0380074 0.0204108 -0.113297
4 0.0161424 -0.08 0.120146 0.010597 0.0756975
4 0.0190081 0.08 0.0152545 0.0263625 -0.135164
4 0.0190081 -0.08 0.0919491 0.000764283 0.0214114
4 0.0219263 0.08 -0.00350013 0.0321212 -0.155539
4 0.0219263 -0.08 0.061841 -0.00997086 -0.028248
4 0.0727073 -0.04 -0.162385 0.0558872 -0.261508
4 0.0727073 0.04 -0.0135596 0.188865 -0.288741
4 0.0823856 -0.00996393 -0.0997817 0.145419 -0.21212
4 0.0823856 0.00996393 -0.0347479 0.189705 -0.211265
4 0.0805853 -0.02 -0.126864 0.115822 -0.224712
4 0.0805853 0.02 -0.0189694 0.196998 -0.232573
4 0.0454733 0.0697475 -0.0249973 0.0831609 -0.310793
4 0.0454733 -0.0697475 -0.0621233 -0.0141629 -0.300243
4 0.0577851 0.06 -0.0260932 0.136957 -0.343637
4 0.0577851 -0.06 -0.117487 0.00540042 -0.301062
4 0.0668113 -0.0498197 -0.156235 0.0322013 -0.284577
4 0.0668113 0.0498197 -0.017601 0.171728 -0.320271
4 0.0248981 0.08 -0.016301 0.0377526 -0.175095
4 0.0248981 -0.08 0.0325432 -0.0209677 -0.0779407
4 0.0783853 -0.0298918 -0.155705 0.0859757 -0.240085
4 0.0783853 0.0298918 -0.00126204 0.203474 -0.250028
4 0.0846329 0 -0.0576538 0.171689 -0.214983
4 0.0279244 0.08 -0.0227661 0.0437135 -0.195245
4 0.0279244 -0.08 0.00763826 -0.0316657 -0.128656
4 0.0488701 0.0697475 -0.0203147 0.10089 -0.340385
4 0.0488701 -0.0697475 -0.0828629 -0.0185994 -0.306656
4 0.0310063 0.08 -0.0236881 0.0506839 -0.217638
4 0.0310063 -0.08 -0.0101065 -0.0418131 -0.177829
4 0.0614146 0.06 -0.0246751 0.155251 -0.360317
4 0.0614146 -0.06 -0.133353 0.00132379 -0.29988
4 0.0705994 -0.0498197 -0.166198 0.0294677 -0.281178
4 0.0705994 0.0498197 -0.0127056 0.188674 -0.333179
4 0.0766105 -0.04 -0.161829 0.0568723 -0.257988
4 0.0766105 0.04 -0.00791373 0.202582 -0.298635
4 0.0846329 -0.02 -0.109817 0.120667 -0.224153
4 0.0846329 0.02 -0.00754205 0.20694 -0.242279
4 0.0341446 0.08 -0.0208534 0.0593621 -0.243461
4 0.0341446 -0.08 -0.0217506 -0.0509438 -0.220584
4 0.0864594 -0.00996393 -0.0798267 0.151321 -0.215279
4 0.0864594 0.00996393 -0.0192222 0.198061 -0.220049
4 0.0523291 0.0697475 -0.0177687 0.120351 -0.368306
4 0.0523291 -0.0697475 -0.100764 -0.0237689 -0.309719
4 0.0823856 -0.0298918 -0.142495 0.0891505 -0.236821
4 0.0823856 0.0298918 0.00776444 0.215307 -0.260898
4 0.0373405 0.08 -0.0160493 0.0702377 -0.272892
4 0.0373405 -0.08 -0.0321913 -0.0584539 -0.252421
4 0.0651106 0.06 -0.0244553 0.172228 -0.373325
4 0.0651106 -0.06 -0.146287 -0.00222674 -0.297652
4 0.0887548 0 -0.0387461 0.178509 -0.22097
4 0.0558515 0.0697475 -0.0176881 0.139978 -0.392929
4 0.0558515 -0.0697475 -0.115671 -0.028235 -0.31097
4 0.074457 -0.0498197 -0.169639 0.0278998 -0.277441
4 0.074457 0.0498197 -0.00944761 0.203485 -0.34359
4 0.00128135 0.0896754 0.0409645 0.000282359 -0.00236844
4 0.00128135 -0.0896754 0.128816 0.000891346 0.240512
4 0.040595 0.08 -0.0105975 0.0834412 -0.30523
4 0.040595 -0.08 -0.0456553 -0.0641505 -0.272755
4 0.00386754 0.0896754 0.0675408 0.00189764 -0.015283
4 0.00386754 -0.0896754 0.164819 0.000487117 0.300509
4 0.00650117 0.0896754 0.0744414 0.00480541 -0.0340534
4 0.00650117 -0.0896754 0.174181 -0.0080328 0.284914
4 0.0805853 -0.04 -0.152879 0.0586711 -0.25353
4 0.0805853 0.04 -0.00299582 0.214274 -0.307372
4 0.00918311 0.0896754 0.0662678 0.00926203 -0.056037
4 0.00918311 -0.0896754 0.167154 -0.0202692 0.215358
4 0.0119142 0.0896754 0.0485614 0.0149388 -0.0794516
4 0.0119142 -0.0896754 0.147915 -0.0352819 0.124919
4 0.0146954 0.0896754 0.0271851 0.0212779 -0.102992
4 0.0146954 -0.0896754 0.119069 -0.0507072 0.0375922
4 0.0887548 -0.02 -0.0861433 0.125461 -0.22338
4 0.0887548 0.02 0.00429502 0.215321 -0.25216
4 0.0906078 -0.00996393 -0.0553673 0.156757 -0.218755
4 0.0906078 0.00996393 -0.00241244 0.205351 -0.228882
4 0.0439092 0.08 -0.00629893 0.0987653 -0.338934
4 0.0439092 -0.08 -0.0618638 -0.0681161 -0.285227
4 0.0688745 0.06 -0.0255558 0.187053 -0.382363
4 0.0688745 -0.06 -0.155818 -0.0049435 -0.294632
4 0.0175277 0.0896754 0.00733393 0.0278154 -0.125563
4 0.0175277 -0.0896754 0.0854608 -0.0664988 -0.030648
4 0.0864594 -0.0298918 -0.1208 0.0927397 -0.232522
4 0.0864594 0.0298918 0.0162312 0.225177 -0.272112
4 0.0594386 0.0697475 -0.0200002 0.15889 -0.411686
4 0.0594386 -0.0697475 -0.128539 -0.0323488 -0.311108
4 0.0204118 0.0896754 -0.00748534 0.0343953 -0.146898
4 0.0204118 -0.0896754 0.0538956 -0.0809614 -0.0790252
4 0.0233489 0.0896754 -0.0158535 0.0410799 -0.16803
4 0.0233489 -0.0896754 0.0278351 -0.0936888 -0.118971
4 0.0783853 -0.0498197 -0.165338 0.0276406 -0.272444
4 0.0783853 0.0498197 -0.00786082 0.215545 -0.351607
4 0.0472842 0.08 -0.00478972 0.115475 -0.371745
4 0.0472842 -0.08 -0.0781426 -0.0705815 -0.293551
4 0.0929523 0 -0.0174887 0.184586 -0.226939
4 0.0263398 0.0896754 -0.0175472 0.0483587 -0.190738
4 0.0263398 -0.0896754 0.00706044 -0.104375 -0.156672
4 0.0846329 0.04 0.00113784 0.223667 -0.315201
4 0.0846329 -0.04 -0.134984 0.0613683 -0.247674
4 0.0630915 0.0697475 -0.0244827 0.175766 -0.424587
4 0.0630915 -0.0697475 -0.139631 -0.0362891 -0.310506
4 0.0727073 0.06 -0.0279808 0.199102 -0.387609
4 0.0727073 -0.06 -0.160217 -0.00645532 -0.290709
4 0.0293856 0.0896754 -0.0135168 0.0569718 -0.216762
4 0.0293856 -0.0896754 -0.00922243 -0.112769 -0.192058
4 0.0507211 0.08 -0.00663492 0.132592 -0.401146
4 0.0507211 -0.08 -0.0927371 -0.0726778 -0.299086
4 0.0929523 -0.02 -0.0569896 0.130183 -0.221835
4 0.0929523 0.02 0.0158982 0.222153 -0.26211
4 0.0948324 -0.00996393 -0.027482 0.161822 -0.221149
4 0.0948324 0.00996393 0.0145466 0.211635 -0.238362
4 0.0324873 0.0896754 -0.00559094 0.067584 -0.247512
4 0.0324873 -0.0896754 -0.0231773 -0.118687 -0.223036
4 0.0906078 -0.0298918 -0.0913399 0.0967411 -0.227211
4 0.0906078 0.0298918 0.0236663 0.232848 -0.283327
4 0.0823856 -0.0498197 -0.151559 0.0287814 -0.265769
4 0.0823856 0.0498197 -0.00747564 0.224904 -0.357505
4 0.0356458 0.0896754 0.00314418 0.0804618 -0.282869
4 0.0356458 -0.0896754 -0.0363181 -0.122009 -0.246604
4 0.0668113 0.0697475 -0.0310667 0.189668 -0.431489
4 0.0668113 -0.0697475 -0.148241 -0.0394554 -0.30876
4 0.054221 0.08 -0.0119175 0.149069 -0.424888
4 0.054221 -0.08 -0.105291 -0.0748799 -0.302349
4 0.0972268 0 0.00502248 0.190081 -0.23263
4 0.0766105 0.06 -0.0315922 0.207988 -0.389591
4 0.0766105 -0.06 -0.157615 -0.00645535 -0.285657
4 0.0887548 0.04 0.00430069 0.230637 -0.322308
4 0.0887548 -0.04 -0.10861 0.0649208 -0.240078
4 0.0388623 0.0896754 0.0106975 0.0955113 -0.321343
4 0.0388623 -0.0896754 -0.0502813 -0.123012 -0.262105
4 0.0577851 0.08 -0.0204205 0.163872 -0.441537
4 0.0577851 -0.08 -0.116088 -0.0767355 -0.304012
4 0.0421378 0.0896754 0.0152429 0.112266 -0.361003
4 0.0421378 -0.0896754 -0.0644932 -0.122898 -0.272873
4 0.0705994 0.0697475 -0.0391276 0.199995 -0.432821
4 0.0705994 -0.0697475 -0.153951 -0.0414248 -0.305462
4 0.0972268 -0.02 -0.0239201 0.134842 -0.219062
4 0.0972268 0.02 0.0266857 0.227634 -0.272078
4 0.0948324 -0.0298918 -0.0556009 0.100969 -0.220578
4 0.0948324 0.0298918 0.029681 0.238593 -0.294172
4 0.0991344 -0.00996393 0.00228068 0.166811 -0.222553
4 0.0991344 0.00996393 0.0309859 0.217121 -0.248099
4 0.0864594 0.0498197 -0.00828303 0.231289 -0.361629
4 0.0864594 -0.0498197 -0.128521 0.0313435 -0.256843
4 0 0.1 0 0 0
4 0 -0.1 0 0 0
4 0.00256965 0.1 0.0499579 0.00188769 -0.00995868
4 0.00256965 -0.1 0.12278 -0.0111497 0.234944
4 0.00518642 0.1 0.0648101 0.0052868 -0.0256294
4 0.00518642 -0.1 0.13603 -0.0265588 0.243662
4 0.00785119 0.1 0.0644765 0.0101777 -0.0453956
4 0.00785119 -0.1 0.130686 -0.0479076 0.203236
4 0.0805853 0.06 -0.0361259 0.213619 -0.389024
4 0.0805853 -0.06 -0.147122 -0.00483301 -0.279012
4 0.0454733 0.0896754 0.014326 0.129728 -0.398918
4 0.0454733 -0.0896754 -0.0772323 -0.122322 -0.281599
4 0.0105648 0.1 0.054543 0.0163428 -0.067309
4 0.0105648 -0.1 0.116304 -0.068494 0.13989
4 0.0614146 0.08 -0.0315029 0.176103 -0.450548
4 0.0614146 -0.08 -0.125219 -0.078258 -0.304651
4 0.0133283 0.1 0.0403907 0.0234333 -0.0901514
4 0.0133283 -0.1 0.0963778 -0.0872163 0.0722416
4 0.0929523 0.04 0.00627185 0.235339 -0.328764
4 0.0929523 -0.04 -0.074995 0.0691331 -0.230667
4 0.0161424 0.1 0.0268403 0.0311708 -0.113248
4 0.0161424 -0.1 0.0727565 -0.103595 0.0111168
4 0.10158 0 0.0277596 0.195136 -0.237888
4 0.0190081 0.1 0.0171815 0.0394619 -0.136633
4 0.0190081 -0.1 0.0485235 -0.11791 -0.0387817
4 0.074457 0.0697475 -0.0481605 0.206367 -0.429638
4 0.074457 -0.0697475 -0.153203 -0.0417343 -0.300517
4 0.0488701 0.0896754 0.00943492 0.146469 -0.431992
4 0.0488701 -0.0896754 -0.0880011 -0.121659 -0.288857
4 0.0219263 0.1 0.012806 0.0484259 -0.161186
4 0.0219263 -0.1 0.0266221 -0.130264 -0.0795404
4 0.0248981 0.1 0.0136352 0.0583477 -0.188374
4 0.0248981 -0.1 0.00805656 -0.140664 -0.115552
4 0.0651106 0.08 -0.0444002 0.185034 -0.452241
4 0.0651106 -0.08 -0.132153 -0.0791746 -0.304382
4 0.0906078 0.0498197 -0.0102903 0.235087 -0.364429
4 0.0906078 -0.0498197 -0.096928 0.0351445 -0.245207
4 0.10158 -0.02 0.0111045 0.139328 -0.21539
4 0.10158 0.02 0.0363338 0.232039 -0.281851
4 0.0991344 0.0298918 0.034108 0.242696 -0.304507
4 0.0991344 -0.0298918 -0.0157658 0.105251 -0.212427
4 0.0846329 0.06 -0.0414063 0.216134 -0.386664
4 0.0846329 -0.06 -0.1285 -0.00161699 -0.270227
4 0.0279244 0.1 0.0178169 0.0695844 -0.219564
4 0.0279244 -0.1 -0.00748661 -0.148945 -0.148545
4 0.0523291 0.0896754 -2.62417e-05 0.161518 -0.457472
4 0.0523291 -0.0896754 -0.0973612 -0.121509 -0.294267
4 0.103515 -0.00996393 0.0324921 0.171478 -0.223023
4 0.103515 0.00996393 0.0464072 0.222118 -0.257622
4 0.0310063 0.1 0.0231021 0.0823225 -0.255348
4 0.0310063 -0.1 -0.0208543 -0.155 -0.178082
4 0.0783853 0.0697475 -0.057763 0.208884 -0.42313
4 0.0783853 -0.0697475 -0.145197 -0.0401352 -0.29442
4 0.0972268 -0.04 -0.0362935 0.0737319 -0.21973
4 0.0972268 0.04 0.00689738 0.238019 -0.334667
4 0.0688745 0.08 -0.0583262 0.190309 -0.447651
4 0.0688745 -0.08 -0.136115 -0.0791047 -0.303029
4 0.0558515 0.0896754 -0.0139027 0.1739 -0.473188
4 0.0558515 -0.0896754 -0.105826 -0.1213 -0.297554
4 0.0341446 0.1 0.0277721 0.0964308 -0.295025
4 0.0341446 -0.1 -0.0329843 -0.158939 -0.203061
4 0.106012 0 0.0497953 0.199813 -0.242998
4 0.0373405 0.1 0.0302736 0.111534 -0.336613
4 0.0373405 -0.1 -0.0446027 -0.161082 -0.222866
4 0.0948324 0.0498197 -0.0135338 0.236514 -0.366379
4 0.0948324 -0.0498197 -0.0587988 0.0397757 -0.231287
4 0.0887548 0.06 -0.0474911 0.21586 -0.383243
4 0.0887548 -0.06 -0.102452 0.00296976 -0.259066
4 0.0594386 0.0896754 -0.0312203 0.182864 -0.479824
4 0.0594386 -0.0896754 -0.113338 -0.120876 -0.299466
4 0.103515 -0.0298918 0.0254413 0.10927 -0.204042
4 0.103515 0.0298918 0.0369615 0.245483 -0.314431
4 0.106012 -0.02 0.0459729 0.143316 -0.212225
4 0.106012 0.02 0.0446422 0.235626 -0.291414
4 0.040595 0.1 0.0290782 0.126961 -0.377426
4 0.040595 -0.1 -0.0559192 -0.162029 -0.238389
4 0.0823856 0.0697475 -0.0677363 0.207645 -0.414487
4 0.0823856 -0.0697475 -0.129998 -0.0366408 -0.286108
4 0.0727073 0.08 -0.0726363 0.191811 -0.438209
4 0.0727073 -0.08 -0.135925 -0.0777816 -0.300355
4 0.107977 -0.00996393 0.0617325 0.17591 -0.223931
4 0.107977 0.00996393 0.0604373 0.226722 -0.26703
4 0.10158 -0.04 0.00469804 0.0782942 -0.208418
4 0.10158 0.04 0.00611133 0.239019 -0.340176
4 0.0439092 0.1 0.0227718 0.141545 -0.414487
4 0.0439092 -0.1 -0.0663915 -0.162371 -0.251301
4 0.00128135 0.109603 0.0344314 0.000857617 -0.00451279
4 0.00128135 -0.109603 0.0930457 -0.0134924 0.190224
4 0.0630915 0.0896754 -0.0507229 0.187739 -0.477109
4 0.0630915 -0.0896754 -0.119131 -0.119913 -0.300577
4 0.00386754 0.109603 0.0550727 0.00448533 -0.0178566
4 0.00386754 -0.109603 0.109876 -0.0312912 0.211905
4 0.00650117 0.109603 0.0593332 0.00987829 -0.0360401
4 0.00650117 -0.109603 0.102251 -0.0651801 0.181512
4 0.00918311 -0.109603 0.0868752 -0.0948091 0.134876
4 0.00918311 0.109603 0.0539827 0.0166153 -0.05681
4 0.0119142 0.109603 0.0445081 0.0242942 -0.0789729
4 0.0119142 -0.109603 0.0709688 -0.119517 0.0864997
4 0.110526 0 0.070231 0.204115 -0.249167
4 0.0146954 0.109603 0.0356954 0.0327868 -0.101848
4 0.0146954 -0.109603 0.0546812 -0.138726 0.0397039
4 0.0472842 0.1 0.0114483 0.154389 -0.444905
4 0.0472842 -0.1 -0.0755681 -0.162396 -0.262484
4 0.0929523 0.06 -0.0545112 0.213256 -0.379375
4 0.0929523 -0.06 -0.0705558 0.00847475 -0.245759
4 0.0766105 0.08 -0.0869436 0.189705 -0.425551
4 0.0766105 -0.08 -0.130495 -0.0750494 -0.29608
4 0.0991344 0.0498197 -0.0180461 0.235782 -0.367834
4 0.0991344 -0.0498197 -0.0170753 0.0449133 -0.216297
4 0.0175277 0.109603 0.0310988 0.0421164 -0.125688
4 0.0175277 -0.109603 0.038034 -0.153464 -0.00462991
4 0.0864594 0.0697475 -0.0780594 0.203322 -0.404825
4 0.0864594 -0.0697475 -0.108025 -0.0314259 -0.275395
4 0.0204118 0.109603 0.0316734 0.052518 -0.151602
4 0.0204118 -0.109603 0.0219544 -0.165542 -0.0446266
4 0.0668113 0.0896754 -0.0709777 0.188496 -0.466771
4 0.0668113 -0.0896754 -0.122282 -0.118051 -0.300871
4 0.107977 -0.0298918 0.0651082 0.112195 -0.198204
4 0.107977 0.0298918 0.0382992 0.247275 -0.324113
4 0.0233489 0.109603 0.037074 0.0643553 -0.181167
4 0.0233489 -0.109603 0.0072807 -0.17562 -0.0799323