# U  POINT_DATA 90431
# x  y  z  U_x  U_y  U_z
5 0 0 0 0 0
5 0.00256965 0 -0.139557 0.00147548 0.0397029
5 0.00518642 0 -0.185238 0.00322647 0.0678528
5 0.00785119 0 -0.203436 0.0050847 0.103454
5 0.00128482 -0.01 -0.106805 0.000845165 0.0302069
5 0.00128482 0.01 -0.112356 0.000747772 0.0247121
5 0.0105648 0 -0.198772 0.0064961 0.14559
5 0.00387803 -0.01 -0.165831 0.00234737 0.0560949
5 0.00387803 0.01 -0.173245 0.00196181 0.0478013
5 0.00651881 -0.01 -0.197086 0.00455638 0.0886154
5 0.00651881 0.01 -0.204794 0.00404068 0.0789047
5 0.0133283 0 -0.177876 0.00767579 0.192265
5 0.00920802 -0.01 -0.202401 0.00617348 0.128392
5 0.00920802 0.01 -0.209465 0.00556851 0.117912
5 0.0119465 -0.01 -0.188458 0.0074605 0.173695
5 0.0119465 0.01 -0.194761 0.00678212 0.16237
5 0.0161424 0 -0.145543 0.00878111 0.241632
5 0.0147353 -0.01 -0.16094 0.00861629 0.222809
5 0.0147353 0.01 -0.16734 0.00784446 0.210192
5 0.0190081 0 -0.104301 0.00989234 0.291714
5 0 -0.02 0 0 0
5 0 0.02 0 0 0
5 0.00256965 -0.02 -0.135942 0.00173674 0.0465422
5 0.00256965 0.02 -0.147396 0.00140207 0.0327572
5 0.0175752 -0.01 -0.122975 0.00978612 0.273929
5 0.0175752 0.01 -0.130911 0.00887777 0.259606
5 0.00518642 -0.02 -0.181703 0.00376771 0.0760023
5 0.00518642 0.02 -0.195517 0.00317065 0.0576222
5 0.00785119 -0.02 -0.200871 0.0058791 0.111932
5 0.00785119 0.02 -0.215444 0.00521266 0.0907149
5 0.0219263 0 -0.0554524 0.010987 0.340158
5 0.0105648 -0.02 -0.196919 0.00757648 0.154512
5 0.0105648 0.02 -0.212012 0.00686508 0.130985
5 0.0204672 -0.01 -0.0760984 0.0109852 0.324721
5 0.0204672 0.01 -0.087211 0.00992049 0.308609
5 0.0133283 -0.02 -0.175493 0.00907599 0.2023
5 0.0133283 0.02 -0.192212 0.00826273 0.176127
5 0.0248981 0 6.45411e-05 0.0119625 0.384466
5 0.0234122 -0.01 -0.0213942 0.0121237 0.372439
5 0.0234122 0.01 -0.0370957 0.0109188 0.354871
5 0.0161424 -0.02 -0.140812 0.0104972 0.253409
5 0.0161424 0.02 -0.161183 0.00949555 0.224091
5 0.0190081 -0.02 -0.095557 0.0118937 0.305467
5 0.0190081 0.02 -0.121809 0.0106107 0.272911
5 0.0279244 0 0.0612754 0.0126958 0.422579
5 0.0264113 -0.01 0.0399682 0.0130608 0.414483
5 0.0264113 0.01 0.0187916 0.011747 0.396081
5 0.0219263 -0.02 -0.0414454 0.0131967 0.355647
5 0.0219263 0.02 -0.0756574 0.0115974 0.320419
5 0.00128482 -0.03 -0.105856 0.000965662 0.0362689
5 0.00128482 0.03 -0.119673 0.000797452 0.0199772
5 0.00387803 -0.03 -0.165283 0.00278903 0.0636022
5 0.00387803 0.03 -0.18432 0.00210145 0.0385414
5 0.00651881 -0.03 -0.198616 0.00537843 0.0957018
5 0.00651881 0.03 -0.219716 0.004579 0.0652456
5 0.0310063 0 0.127169 0.0131083 0.453702
5 0.0294653 -0.01 0.106641 0.0136851 0.449181
5 0.0294653 0.01 0.0797142 0.0122905 0.430576
5 0.00920802 -0.03 -0.205381 0.00740843 0.135027
5 0.00920802 0.03 -0.227802 0.00666272 0.100804
5 0.0248981 -0.02 0.0200292 0.0142789 0.401103
5 0.0248981 0.02 -0.0236815 0.0123877 0.364331
5 0.0119465 -0.03 -0.191435 0.0092638 0.180941
5 0.0119465 0.03 -0.216018 0.00844722 0.142862
5 0.0147353 -0.03 -0.161135 0.0109636 0.231765
5 0.0147353 0.03 -0.190723 0.00997735 0.189093
5 0.0325754 -0.01 0.177405 0.0139621 0.47677
5 0.0325754 0.01 0.144931 0.0124957 0.458288
5 0.0341446 0 0.196985 0.0132261 0.479161
5 0.0279244 -0.02 0.0873423 0.0150228 0.439692
5 0.0279244 0.02 0.033405 0.0128861 0.402663
5 0.0175752 -0.03 -0.118191 0.0126232 0.285143
5 0.0175752 0.03 -0.15575 0.0112829 0.237483
5 0.0204672 -0.03 -0.0649537 0.0141806 0.338084
5 0.0204672 0.03 -0.113355 0.0123619 0.285956
5 0.0310063 -0.02 0.159061 0.0153846 0.47087
5 0.0310063 0.02 0.0949889 0.013024 0.434445
5 0.0357425 -0.01 0.251579 0.0140315 0.500093
5 0.0357425 0.01 0.214042 0.012415 0.481498
5 0.0373405 0 0.270492 0.0132487 0.502716
5 0.0234122 -0.03 -0.00332401 0.0154976 0.387353
5 0.0234122 0.03 -0.0649584 0.0131886 0.332249
5 0.0341446 -0.02 0.234183 0.0154676 0.496477
5 0.0341446 0.02 0.160665 0.0128089 0.460549
5 0.0264113 -0.03 0.0648798 0.0164338 0.430147
5 0.0264113 0.03 -0.0114524 0.0136965 0.37413
5 0 -0.04 0 0 0
5 0 0.04 0 0 0
5 0.00256965 -0.04 -0.136944 0.00190488 0.0529356
5 0.00256965 0.04 -0.154661 0.00176278 0.0252313
5 0.0389677 -0.01 0.329176 0.0142219 0.524348
5 0.0389677 0.01 0.287188 0.0123263 0.504932
5 0.00518642 -0.04 -0.183518 0.0042207 0.0829339
5 0.00518642 0.04 -0.206445 0.0040935 0.0447606
5 0.040595 0 0.347904 0.0135213 0.529669
5 0.00785119 -0.04 -0.203107 0.00676029 0.118901
5 0.00785119 0.04 -0.230652 0.00691573 0.0729114
5 0.0105648 -0.04 -0.197665 0.00903218 0.162304
5 0.0105648 0.04 -0.232051 0.00937727 0.109461
5 0.0294653 -0.03 0.137895 0.0169116 0.464966
5 0.0294653 0.03 0.046579 0.0138104 0.409874
5 0.0133283 -0.04 -0.172362 0.0111828 0.211864
5 0.0133283 0.04 -0.217213 0.0114584 0.152244
5 0.0373405 -0.02 0.31235 0.0155605 0.520785
5 0.0373405 0.02 0.230427 0.0123986 0.484197
5 0.0161424 -0.04 -0.13198 0.0131772 0.265142
5 0.0161424 0.04 -0.190522 0.0131201 0.199023
5 0.0422521 -0.01 0.410486 0.0149357 0.555096
5 0.0422521 0.01 0.364784 0.0126015 0.53431
5 0.0439092 0 0.429324 0.0143861 0.564589
5 0.0325754 -0.03 0.214321 0.0169797 0.492568
5 0.0325754 0.03 0.108745 0.0134993 0.439049
5 0.0190081 -0.04 -0.0801161 0.0150162 0.319119
5 0.0190081 0.04 -0.154317 0.0143702 0.247612
5 0.040595 -0.02 0.393647 0.0160573 0.549116
5 0.040595 0.02 0.304599 0.0121058 0.51045
5 0.0219263 -0.04 -0.0192165 0.0165688 0.370517
5 0.0219263 0.04 -0.110362 0.015197 0.295707
5 0.0357425 -0.03 0.293443 0.0168969 0.516484
5 0.0357425 0.03 0.174958 0.0128255 0.463367
5 0.0455967 -0.01 0.49526 0.0164454 0.595401
5 0.0455967 0.01 0.446787 0.0135622 0.573559
5 0.0248981 -0.04 0.0487007 0.0176907 0.41633
5 0.0248981 0.04 -0.0600523 0.0155869 0.340952
5 0.0472842 0 0.51393 0.0160051 0.608925
5 0.0439092 -0.02 0.477889 0.0172715 0.585341
5 0.0439092 0.02 0.383357 0.0122799 0.544283
5 0.0279244 -0.04 0.121805 0.018294 0.454608
5 0.0279244 0.04 -0.0044711 0.0155161 0.381255
5 0.0389677 -0.03 0.375223 0.0170917 0.542221
5 0.0389677 0.03 0.245537 0.0120274 0.486997
5 0.0490026 -0.01 0.581699 0.0187102 0.644099
5 0.0490026 0.01 0.531995 0.0153032 0.622654
5 0.00128482 -0.05 -0.108295 0.00100354 0.0417369
5 0.00128482 0.05 -0.12346 0.00108619 0.0148759
5 0.00387803 -0.05 -0.168351 0.00286157 0.0701386
5 0.00387803 0.05 -0.1912 0.00306629 0.0275329
5 0.00651881 -0.05 -0.201826 0.00585421 0.102298
5 0.00651881 0.05 -0.230549 0.00662772 0.0477261
5 0.0310063 -0.04 0.198573 0.0184129 0.485361
5 0.0310063 0.04 0.0556579 0.0149774 0.41536
5 0.0507211 0 0.599241 0.0182527 0.660097
5 0.00920802 -0.05 -0.206607 0.00840046 0.142583
5 0.00920802 0.05 -0.244542 0.00979392 0.0778756
5 0.0472842 -0.02 0.56372 0.0192531 0.629807
5 0.0472842 0.02 0.466093 0.0131529 0.58809
5 0.0119465 -0.05 -0.187237 0.0110564 0.190675
5 0.0119465 0.05 -0.239841 0.0126056 0.116311
5 0.0422521 -0.03 0.459725 0.01798 0.574806
5 0.0422521 0.03 0.320906 0.0114681 0.51557
5 0.0147353 -0.05 -0.149636 0.0134479 0.244085
5 0.0147353 0.05 -0.222266 0.0148037 0.160717
5 0.0341446 -0.04 0.278031 0.0182686 0.511142
5 0.0341446 0.04 0.120025 0.0140142 0.443633
5 0.0175752 -0.05 -0.0989473 0.0156745 0.299586
5 0.0175752 0.05 -0.193346 0.0164169 0.208807
5 0.052471 -0.01 0.666023 0.0213873 0.696295
5 0.052471 0.01 0.617269 0.0176109 0.677355
5 0.0204672 -0.05 -0.0383613 0.0175869 0.353673
5 0.0204672 0.05 -0.154812 0.0174192 0.25821
5 0.054221 0 0.680995 0.0207484 0.71253
5 0.0507211 -0.02 0.648115 0.021749 0.67912
5 0.0507211 0.02 0.550812 0.0147178 0.640233
5 0.0455967 -0.03 0.546106 0.0197254 0.616071
5 0.0455967 0.03 0.400972 0.0114878 0.553702
5 0.0373405 -0.04 0.35982 0.0182582 0.536632
5 0.0373405 0.04 0.188749 0.0127813 0.468688
5 0.0234122 -0.05 0.0297856 0.0190103 0.402969
5 0.0234122 0.05 -0.108313 0.0178183 0.306423
5 0.0264113 -0.05 0.103476 0.0198213 0.44486
5 0.0264113 0.05 -0.0554744 0.0176442 0.351015
5 0.056003 -0.01 0.74304 0.0239523 0.745525
5 0.056003 0.01 0.697668 0.0200437 0.73096
5 0.040595 -0.04 0.443801 0.0188059 0.566781
5 0.040595 0.04 0.262133 0.0115706 0.495179
5 0.0490026 -0.03 0.631836 0.0221321 0.663669
5 0.0490026 0.03 0.484639 0.0122589 0.602457
5 0.0577851 0 0.753452 0.0229464 0.759612
5 0.054221 -0.02 0.726517 0.0242938 0.727632
5 0.054221 0.02 0.633807 0.0167118 0.695501
5 0.0294653 -0.05 0.180987 0.0200092 0.478466
5 0.0294653 0.05 0.00247554 0.0169134 0.390009
5 0.0439092 -0.04 0.529277 0.0201452 0.604334
5 0.0439092 0.04 0.340162 0.0107185 0.528264
5 0.0325754 -0.05 0.261105 0.019751 0.505449
5 0.0325754 0.05 0.0648454 0.0156863 0.422514
5 0 -0.06 0 0 0
5 0 0.06 0 0 0
5 0.00256965 -0.06 -0.137615 0.00183931 0.0588938
5 0.00256965 0.06 -0.156441 0.00255712 0.0147994
5 0.00518642 -0.06 -0.182272 0.00425783 0.0909423
5 0.00518642 0.06 -0.209686 0.00584598 0.0282456
5 0.0595998 -0.01 0.806284 0.0257767 0.785494
5 0.0595998 0.01 0.766834 0.0220135 0.776481
5 0.052471 -0.03 0.712922 0.0247671 0.712429
5 0.052471 0.03 0.569368 0.0136987 0.658482
5 0.00785119 -0.06 -0.197585 0.00720982 0.129283
5 0.00785119 0.06 -0.236611 0.00963295 0.0516206
5 0.0105648 -0.06 -0.185454 0.0100501 0.175549
5 0.0105648 0.06 -0.243391 0.0128097 0.0851479
5 0.0577851 -0.02 0.793144 0.026312 0.76929
5 0.0577851 0.02 0.709731 0.0186759 0.746941
5 0.0614146 0 0.810377 0.024287 0.795727
5 0.0357425 -0.05 0.343272 0.0194469 0.530074
5 0.0357425 0.05 0.131566 0.0140457 0.449607
5 0.0133283 -0.06 -0.152391 0.0127847 0.227805
5 0.0133283 0.06 -0.236401 0.0153225 0.126452
5 0.0472842 -0.04 0.614278 0.0221914 0.648397
5 0.0472842 0.04 0.42205 0.0104774 0.571152
5 0.0161424 -0.06 -0.10453 0.0152882 0.282912
5 0.0161424 0.06 -0.218339 0.0171245 0.17297
5 0.0190081 -0.06 -0.0460169 0.0174596 0.337467
5 0.0190081 0.06 -0.189481 0.0181926 0.222315
5 0.0389677 -0.05 0.42736 0.0195975 0.557753
5 0.0389677 0.05 0.202951 0.0122265 0.474786
5 0.056003 -0.03 0.784101 0.0270693 0.756294
5 0.056003 0.03 0.650946 0.0154946 0.715224
5 0.0219263 -0.06 0.0204617 0.0191264 0.388142
5 0.0219263 0.06 -0.15061 0.0185424 0.272054
5 0.0632626 -0.01 0.850113 0.0264013 0.812219
5 0.0632626 0.01 0.818292 0.0229569 0.808724
5 0.0614146 -0.02 0.842412 0.0273222 0.799563
5 0.0614146 0.02 0.772246 0.0200627 0.788058
5 0.0507211 -0.04 0.695422 0.0245928 0.694972
5 0.0507211 0.04 0.505941 0.010921 0.62321
5 0.0248981 -0.06 0.0928461 0.0201555 0.432238
5 0.0248981 0.06 -0.103036 0.0182331 0.319726
5 0.0651106 0 0.847996 0.0245156 0.818564
5 0.0422521 -0.05 0.512917 0.0205544 0.592352
5 0.0422521 0.05 0.279156 0.0105601 0.503372
5 0.0279244 -0.06 0.169422 0.0205162 0.468487
5 0.0279244 0.06 -0.0483639 0.017326 0.363102
5 0.0595998 -0.03 0.839167 0.02845 0.789859
5 0.0595998 0.03 0.723494 0.0171525 0.765113
5 0.054221 -0.04 0.768054 0.0268498 0.738596
5 0.054221 0.04 0.588711 0.0119189 0.679854
5 0.0310063 -0.06 0.248884 0.0203466 0.497819
5 0.0310063 0.06 0.0121045 0.0158925 0.400667
5 0.0455967 -0.05 0.598382 0.0223214 0.634119
5 0.0455967 0.05 0.359636 0.00935774 0.54042
5 0.0669925 -0.01 0.874017 0.0259134 0.826324
5 0.0669925 0.01 0.849569 0.0227905 0.826994
5 0.0651106 -0.02 0.872241 0.0272362 0.817496
5 0.0651106 0.02 0.816531 0.0205194 0.815364
5 0.0688745 0 0.86798 0.0238815 0.830215
5 0.0341446 -0.06 0.330438 0.0199907 0.523561
5 0.0341446 0.06 0.0776838 0.0140268 0.43229
5 0.0490026 -0.05 0.680809 0.0245874 0.679741
5 0.0490026 0.05 0.442972 0.00880516 0.588041
5 0.00128482 -0.07 -0.108138 0.000904996 0.0461002
5 0.00128482 0.07 -0.121769 0.00153379 0.00561904
5 0.0632626 -0.03 0.874095 0.0286608 0.810688
5 0.0632626 0.03 0.78038 0.0181281 0.801924
5 0.00387803 -0.07 -0.165683 0.00258739 0.0776039
5 0.00387803 0.07 -0.189345 0.00454257 0.0111711
5 0.0577851 -0.04 0.826643 0.0284368 0.774007
5 0.0577851 0.04 0.665775 0.0131506 0.734091
5 0.00651881 -0.07 -0.193234 0.00572864 0.113734
5 0.00651881 0.07 -0.227658 0.00914797 0.0265552
5 0.00920802 -0.07 -0.188674 0.00885643 0.158524
5 0.00920802 0.07 -0.243699 0.0129627 0.0543301
5 0.0373405 -0.06 0.413673 0.0199132 0.550446
5 0.0373405 0.06 0.148221 0.0118887 0.45992
5 0.0119465 -0.07 -0.159295 0.0118876 0.210421
5 0.0119465 0.07 -0.24548 0.0158771 0.0920812
5 0.0707909 -0.01 0.883677 0.0248845 0.832242
5 0.0707909 0.01 0.864663 0.0219373 0.835304
5 0.0147353 -0.07 -0.11339 0.0147475 0.266047
5 0.0147353 0.07 -0.238015 0.0180041 0.136705
5 0.0688745 -0.02 0.886138 0.0264435 0.825994
5 0.0688745 0.02 0.842667 0.020142 0.830121
5 0.0175752 -0.07 -0.056137 0.0172833 0.32194
5 0.0175752 0.07 -0.219727 0.0192737 0.185662
5 0.040595 -0.06 0.498067 0.0204947 0.582488
5 0.040595 0.06 0.223652 0.00971841 0.487653
5 0.052471 -0.05 0.756143 0.0268852 0.724063
5 0.052471 0.05 0.526807 0.00892141 0.643877
5 0.0727073 0 0.876421 0.0228954 0.835272
5 0.0204672 -0.07 0.00938959 0.0192938 0.374678
5 0.0204672 0.07 -0.190034 0.0196608 0.236589
5 0.0614146 -0.04 0.866881 0.0290345 0.798061
5 0.0614146 0.04 0.731264 0.0141721 0.778772
5 0.0669925 -0.03 0.890744 0.027969 0.820756
5 0.0669925 0.03 0.817895 0.0182022 0.823822
5 0.0234122 -0.07 0.0810465 0.0206147 0.421257
5 0.0234122 0.07 -0.149271 0.0192715 0.287005
5 0.0439092 -0.06 0.582322 0.0218389 0.62093
5 0.0439092 0.06 0.303412 0.00778033 0.520553
5 0.0264113 -0.07 0.157092 0.0211757 0.459875
5 0.0264113 0.07 -0.0990735 0.0181985 0.334469
5 0.056003 -0.05 0.81907 0.0286783 0.761611
5 0.056003 0.05 0.607747 0.00956128 0.701851
5 0.0746589 -0.01 0.886542 0.0238272 0.834647
5 0.0746589 0.01 0.870804 0.0209322 0.838896
5 0.0727073 -0.02 0.890883 0.0254694 0.829455
5 0.0727073 0.02 0.855739 0.0193469 0.83695
5 0.0294653 -0.07 0.236152 0.0210587 0.490753
5 0.0294653 0.07 -0.0413711 0.0165476 0.376925
5 0.0472842 -0.06 0.663974 0.0237463 0.663702
5 0.0472842 0.06 0.386135 0.0062941 0.562359
5 0.0651106 -0.04 0.888867 0.028752 0.811262
5 0.0651106 0.04 0.780053 0.0146214 0.809435
5 0.0766105 0 0.879498 0.0219214 0.837651
5 0.0707909 -0.03 0.896119 0.0270068 0.824655
5 0.0707909 0.03 0.838548 0.0176379 0.834368
5 0.0325754 -0.07 0.317311 0.0205675 0.516615
5 0.0325754 0.07 0.0224819 0.0144223 0.413226
5 0.0595998 -0.05 0.864249 0.0295498 0.788272
5 0.0595998 0.05 0.680934 0.0103944 0.754192
5 0.0507211 -0.06 0.739411 0.0258256 0.706491
5 0.0507211 0.06 0.469699 0.00537776 0.613303
5 0.0357425 -0.07 0.40008 0.0201971 0.542112
5 0.0357425 0.07 0.0918577 0.0119526 0.44382
5 0.0766105 -0.02 0.89218 0.0245996 0.831107
5 0.0766105 0.02 0.861897 0.0184839 0.840328
5 0.0785979 -0.01 0.887324 0.0229236 0.836077
5 0.0785979 0.01 0.873325 0.0200022 0.840983
5 0.0688745 -0.04 0.897737 0.0280494 0.817091
5 0.0688745 0.04 0.811238 0.0144622 0.826631
5 0 -0.08 0 0 0
5 0 0.08 0 0 0
5 0.00256965 -0.08 -0.12983 0.00161855 0.066594
5 0.00256965 0.08 -0.154628 0.00324926 -0.00151525
5 0.0389677 -0.07 0.483997 0.0204114 0.571851
5 0.0389677 0.07 0.166528 0.00932958 0.471474
5 0.00518642 -0.08 -0.166834 0.00396712 0.104417
5 0.00518642 0.08 -0.2056 0.00701889 0.00725044
5 0.00785119 -0.08 -0.172129 0.00708459 0.148451
5 0.00785119 0.08 -0.230512 0.0108884 0.030138
5 0.0746589 -0.03 0.897196 0.0261589 0.826277
5 0.0746589 0.03 0.848943 0.0168798 0.839232
5 0.0805853 0 0.880664 0.0210522 0.839263
5 0.0632626 -0.05 0.890023 0.0294776 0.803433
5 0.0632626 0.05 0.740265 0.0110138 0.793871
5 0.0105648 -0.08 -0.150323 0.0101479 0.199014
5 0.0105648 0.08 -0.238761 0.013641 0.065389
5 0.054221 -0.06 0.803956 0.0276145 0.744274
5 0.054221 0.06 0.551306 0.00503641 0.669522
5 0.0133283 -0.08 -0.109524 0.0130828 0.253495
5 0.0133283 0.08 -0.237115 0.0154752 0.108922
5 0.0161424 -0.08 -0.0560037 0.015739 0.308703
5 0.0161424 0.08 -0.227023 0.0165027 0.157382
5 0.0422521 -0.07 0.568016 0.0214157 0.608004
5 0.0422521 0.07 0.245994 0.0067569 0.500988
5 0.0190081 -0.08 0.00650557 0.0179267 0.361465
5 0.0190081 0.08 -0.206831 0.0167389 0.20827
5 0.0219263 -0.08 0.075642 0.0194696 0.408929
5 0.0219263 0.08 -0.175261 0.016226 0.259407
5 0.0727073 -0.04 0.900291 0.0273549 0.819466
5 0.0727073 0.04 0.828984 0.0139608 0.834976
5 0.0805853 -0.02 0.892795 0.0238648 0.832347
5 0.0805853 0.02 0.864927 0.0176555 0.842606
5 0.0826091 -0.01 0.887663 0.0221385 0.837322
5 0.0826091 0.01 0.874346 0.0191444 0.842672
5 0.0577851 -0.06 0.852784 0.0287294 0.772918
5 0.0577851 0.06 0.627246 0.00514348 0.724283
5 0.0455967 -0.07 0.649994 0.0230645 0.649253
5 0.0455967 0.07 0.328885 0.0044461 0.537442
5 0.0669925 -0.05 0.900613 0.0289004 0.810174
5 0.0669925 0.05 0.781685 0.0111417 0.818132
5 0.0248981 -0.08 0.149645 0.0202697 0.44919
5 0.0248981 0.08 -0.132536 0.0150509 0.308697
5 0.0785979 -0.03 0.897659 0.0254883 0.827428
5 0.0785979 0.03 0.854518 0.0161212 0.842201
5 0.0846329 0 0.881027 0.0202527 0.840669
5 0.0279244 -0.08 0.227094 0.0203716 0.482032
5 0.0279244 0.08 -0.080122 0.0133205 0.354203
5 0.0490026 -0.07 0.726733 0.0250124 0.691707
5 0.0490026 0.07 0.41307 0.00256711 0.583544
5 0.0310063 -0.08 0.306924 0.0200125 0.509409
5 0.0310063 0.08 -0.0196846 0.011144 0.394469
5 0.0614146 -0.06 0.883546 0.0290678 0.790929
5 0.0614146 0.06 0.692641 0.0054429 0.770194
5 0.0766105 -0.04 0.901258 0.0268082 0.820811
5 0.0766105 0.04 0.839029 0.0133665 0.839373
5 0.0707909 -0.05 0.903475 0.0283214 0.812781
5 0.0707909 0.05 0.806832 0.0108669 0.830205
5 0.0846329 -0.02 0.893446 0.0231939 0.833529
5 0.0846329 0.02 0.866145 0.0168476 0.844459
5 0.0341446 -0.08 0.388421 0.0196048 0.535135
5 0.0341446 0.08 0.0475506 0.00863276 0.429098
5 0.0866939 -0.01 0.887794 0.0214049 0.838532
5 0.0866939 0.01 0.874306 0.0183228 0.844151
5 0.052471 -0.07 0.793979 0.0268179 0.730464
5 0.052471 0.07 0.49597 0.00121718 0.637764
5 0.0826091 -0.03 0.898536 0.0249086 0.828559
5 0.0826091 0.03 0.857521 0.0153538 0.84457
5 0.0373405 -0.08 0.470972 0.0195899 0.563425
5 0.0373405 0.08 0.120814 0.00591405 0.459504
5 0.0651106 -0.06 0.898668 0.0288909 0.800112
5 0.0651106 0.06 0.742907 0.00564586 0.802245
5 0.0887548 0 0.880749 0.0194757 0.841908
5 0.056003 -0.07 0.84665 0.028077 0.760966
5 0.056003 0.07 0.574721 0.000445741 0.694611
5 0.040595 -0.08 0.553581 0.020229 0.596876
5 0.040595 0.08 0.199342 0.00311738 0.489178
5 0.0746589 -0.05 0.904377 0.0279324 0.814151
5 0.0746589 0.05 0.821616 0.0104584 0.836099
5 0.0805853 -0.04 0.902546 0.0263557 0.822012
5 0.0805853 0.04 0.845016 0.0127416 0.842447
5 0.00128482 -0.09 -0.0984537 0.000772848 0.0517081
5 0.00128482 0.09 -0.121098 0.00190289 -0.0105298
5 0.00387803 -0.09 -0.147053 0.0022092 0.0909692
5 0.00387803 0.09 -0.186309 0.00501825 -0.012321
5 0.00651881 -0.09 -0.161369 0.00534376 0.135365
5 0.00651881 0.09 -0.219092 0.00936746 0.00359894
5 0.00920802 -0.09 -0.145237 0.00841001 0.18619
5 0.00920802 0.09 -0.231602 0.0120761 0.0360726
5 0.0119465 -0.09 -0.108082 0.0114381 0.240928
5 0.0119465 0.09 -0.234266 0.0136484 0.0790788
5 0.0887548 -0.02 0.894097 0.0224934 0.834671
5 0.0887548 0.02 0.865823 0.016056 0.845886
5 0.0147353 -0.09 -0.0573214 0.0142587 0.296595
5 0.0147353 0.09 -0.230699 0.0143714 0.127833
5 0.0439092 -0.08 0.634389 0.0214951 0.635186
5 0.0439092 0.08 0.281751 0.000376795 0.522748
5 0.0688745 -0.06 0.904253 0.0286056 0.804084
5 0.0688745 0.06 0.776999 0.00561597 0.820576
5 0.0908536 -0.01 0.887631 0.020647 0.83964
5 0.0908536 0.01 0.873264 0.0175278 0.845308
5 0.0175752 -0.09 0.00284417 0.016667 0.35024
5 0.0175752 0.09 -0.219647 0.0143618 0.17934
5 0.0866939 -0.03 0.899794 0.0243232 0.829703
5 0.0866939 0.03 0.858408 0.0145692 0.846446
5 0.0595998 -0.07 0.881179 0.0286129 0.78083
5 0.0595998 0.07 0.645603 0.000172599 0.746495
5 0.0204672 -0.09 0.0699379 0.0184632 0.399013
5 0.0204672 0.09 -0.197911 0.0136593 0.2315
5 0.0472842 -0.08 0.710527 0.0231343 0.675426
5 0.0472842 0.08 0.365806 -0.00216378 0.563899
5 0.0929523 0 0.879815 0.0186835 0.842858
5 0.0234122 -0.09 0.142208 0.0195069 0.440778
5 0.0234122 0.09 -0.163821 0.0123124 0.282544
5 0.0785979 -0.05 0.9058 0.0276529 0.815387
5 0.0785979 0.05 0.83104 0.0100064 0.839959
5 0.0846329 -0.04 0.904445 0.0258788 0.82322
5 0.0846329 0.04 0.84815 0.0120767 0.84485
5 0.0264113 -0.09 0.218248 0.0197818 0.474858
5 0.0264113 0.09 -0.117969 0.0104209 0.33078
5 0.0727073 -0.06 0.90632 0.0284428 0.805979
5 0.0727073 0.06 0.798491 0.0054317 0.829813
5 0.0632626 -0.07 0.898739 0.0286307 0.791187
5 0.0632626 0.07 0.703778 0.000190906 0.78623
5 0.0294653 -0.09 0.296902 0.0194704 0.502647
5 0.0294653 0.09 -0.0620629 0.0081147 0.374647
5 0.0507211 -0.08 0.778165 0.0247886 0.713299
5 0.0507211 0.08 0.448789 -0.00435291 0.613189
5 0.0929523 -0.02 0.894563 0.0216893 0.835684
5 0.0929523 0.02 0.864099 0.0152867 0.846735
5 0.0950896 -0.01 0.887065 0.0198205 0.840504
5 0.0950896 0.01 0.871299 0.0167382 0.845982
5 0.0908536 -0.03 0.90117 0.0235981 0.830808
5 0.0908536 0.03 0.857315 0.0138039 0.847638
5 0.0325754 -0.09 0.377349 0.0189534 0.527627
5 0.0325754 0.09 0.00222765 0.00549096 0.413085
5 0.0826091 -0.05 0.908189 0.0273728 0.816673
5 0.0826091 0.05 0.836989 0.00948475 0.84306
5 0.054221 -0.08 0.832858 0.0261151 0.74454
5 0.054221 0.08 0.527953 -0.0060357 0.667256
5 0.0357425 -0.09 0.458961 0.0187012 0.554192
5 0.0357425 0.09 0.0736508 0.00266456 0.446268
5 0.0669925 -0.07 0.9053 0.0285549 0.795657
5 0.0669925 0.07 0.745914 0.000237081 0.810754
5 0.0972268 0 0.878219 0.0178379 0.843416
5 0.0766105 -0.06 0.908292 0.0283815 0.807397
5 0.0766105 0.06 0.812416 0.0051924 0.835036
5 0.0887548 -0.04 0.906703 0.0252532 0.824399
5 0.0887548 0.04 0.84867 0.0113939 0.846473
5 0.0389677 -0.09 0.54087 0.0190501 0.585552
5 0.0389677 0.09 0.151237 -0.000291211 0.476462
5 0.0577851 -0.08 0.87118 0.0269351 0.766466
5 0.0577851 0.08 0.600338 -0.00710729 0.719809
5 0.0972268 -0.02 0.894653 0.0207373 0.836474
5 0.0972268 0.02 0.861186 0.0145232 0.846935
5 0.0422521 -0.09 0.621461 0.0200391 0.622106
5 0.0422521 0.09 0.233629 -0.00332644 0.507794
5 0.0707909 -0.07 0.907625 0.0286456 0.797727
5 0.0707909 0.07 0.773573 0.000218139 0.823218
5 0.0950896 -0.03 0.902385 0.0226914 0.831786
5 0.0950896 0.03 0.854519 0.0130768 0.848011
5 0.0994033 -0.01 0.88599 0.0188769 0.841043
5 0.0994033 0.01 0.868521 0.0159154 0.846135
5 0 -0.1 0 0 0
5 0 0.1 0 0 0
5 0.00256965 -0.1 -0.110834 0.00146942 0.0782106
5 0.00256965 0.1 -0.156681 0.00324311 -0.0219387
5 0.0866939 -0.05 0.911261 0.0269106 0.817945
5 0.0866939 0.05 0.839685 0.00889871 0.845323
5 0.00518642 -0.1 -0.135696 0.00365457 0.124644
5 0.00518642 0.1 -0.203647 0.00626607 -0.0145027
5 0.00785119 -0.1 -0.129475 0.00655653 0.175334
5 0.00785119 0.1 -0.222672 0.00877791 0.0132003
5 0.0805853 -0.06 0.911232 0.0282919 0.808801
5 0.0805853 0.06 0.821771 0.00489794 0.838865
5 0.0105648 -0.1 -0.0996643 0.0093998 0.229422
5 0.0105648 0.1 -0.226803 0.00976672 0.0549854
5 0.0614146 -0.08 0.89324 0.0273462 0.779224
5 0.0614146 0.08 0.662326 -0.00759165 0.763797
5 0.0133283 -0.1 -0.0540817 0.012109 0.284485
5 0.0133283 0.1 -0.223837 0.00987318 0.10412
5 0.0455967 -0.09 0.698104 0.0214615 0.661391
5 0.0455967 0.09 0.318518 -0.00637004 0.544776
5 0.0929523 -0.04 0.908971 0.0243991 0.82549
5 0.0929523 0.04 0.846835 0.0107321 0.847149
5 0.0161424 -0.1 0.00217746 0.0145015 0.337895
5 0.0161424 0.1 -0.215104 0.0093192 0.15628
5 0.10158 0 0.875963 0.0168812 0.843567
5 0.0190081 -0.1 0.0661601 0.0163826 0.387089
5 0.0190081 0.1 -0.198326 0.0082068 0.208965
5 0.0746589 -0.07 0.909803 0.0288717 0.799257
5 0.0746589 0.07 0.791949 0.000183298 0.829733
5 0.0219263 -0.1 0.135928 0.0175982 0.430001
5 0.0219263 0.1 -0.170871 0.00656387 0.260569
5 0.0490026 -0.09 0.767296 0.0229992 0.699362
5 0.0490026 0.09 0.402773 -0.0092989 0.589846
5 0.0248981 -0.1 0.209973 0.0180973 0.465729
5 0.0248981 0.1 -0.131782 0.00444014 0.309812
5 0.0651106 -0.08 0.903398 0.0276379 0.785455
5 0.0651106 0.08 0.710652 -0.00767197 0.794499
5 0.10158 -0.02 0.894185 0.0195922 0.836992
5 0.10158 0.02 0.857336 0.0137073 0.846549
5 0.0908536 -0.05 0.914586 0.0261806 0.819142
5 0.0908536 0.05 0.839271 0.00830373 0.846484
5 0.0846329 -0.06 0.915052 0.0280122 0.810198
5 0.0846329 0.06 0.827323 0.00452973 0.841779
5 0.0279244 -0.1 0.287041 0.017993 0.495127
5 0.0279244 0.1 -0.0817325 0.00193225 0.355499
5 0.0994033 -0.03 0.903171 0.0215598 0.832564
5 0.0994033 0.03 0.850403 0.0123619 0.847614
5 0.052471 -0.09 0.82467 0.0243254 0.73167
5 0.052471 0.09 0.483364 -0.0118976 0.641616
5 0.103796 -0.01 0.884298 0.0177544 0.841259
5 0.103796 0.01 0.86504 0.0149776 0.845833
5 0.0310063 -0.1 0.366138 0.017577 0.520917
5 0.0310063 0.1 -0.0220736 -0.000860455 0.39664
5 0.0972268 -0.04 0.910913 0.0232784 0.826435
5 0.0972268 0.04 0.843111 0.0100972 0.846874
5 0.0785979 -0.07 0.913189 0.029069 0.800795
5 0.0785979 0.07 0.805061 0.000121478 0.834355
5 0.0688745 -0.08 0.907745 0.0280351 0.788405
5 0.0688745 0.08 0.744958 -0.00757326 0.812229
5 0.0341446 -0.1 0.446459 0.0172454 0.546887
5 0.0341446 0.1 0.0458343 -0.00385011 0.432987
5 0.056003 -0.09 0.866148 0.0252403 0.755067
5 0.056003 0.09 0.557778 -0.0139086 0.695048
5 0.106012 0 0.873062 0.0157245 0.843329
5 0.0373405 -0.1 0.527084 0.0173369 0.576256
5 0.0373405 0.1 0.120734 -0.00698367 0.465769
5 0.0887548 -0.06 0.919319 0.0274182 0.811519
5 0.0887548 0.06 0.829174 0.00411502 0.84355
5 0.0950896 -0.05 0.917745 0.0251257 0.820226
5 0.0950896 0.05 0.836236 0.00774361 0.846462
5 0.106012 -0.02 0.893003 0.0182026 0.837203
5 0.106012 0.02 0.852819 0.012732 0.84568
5 0.040595 -0.1 0.606526 0.0179778 0.610109
5 0.040595 0.1 0.201095 -0.0102503 0.497918
5 0.0595998 -0.09 0.890749 0.0258104 0.769008
5 0.0595998 0.09 0.623271 -0.0151391 0.743096
5 0.103796 -0.03 0.90328 0.0201771 0.833104
5 0.103796 0.03 0.845377 0.0115739 0.846612
5 0.0727073 -0.08 0.910882 0.0285412 0.790267
5 0.0727073 0.08 0.768508 -0.00741398 0.821583
5 0.0826091 -0.07 0.917751 0.029073 0.80235
5 0.0826091 0.07 0.813997 -2.09545e-05 0.838085
5 0.108269 -0.01 0.881916 0.0163654 0.84111
5 0.108269 0.01 0.860993 0.0137999 0.845115
5 0.10158 -0.04 0.912221 0.0218774 0.827182
5 0.10158 0.04 0.838055 0.0094395 0.845812
5 0.0439092 -0.1 0.682428 0.0190659 0.646938
5 0.0439092 0.1 0.284574 -0.0136195 0.533231
5 0.00128482 -0.11 -0.0813447 0.000730144 0.0602751
5 0.00128482 0.11 -0.127712 0.00206213 -0.0295453
5 0.0632626 -0.09 0.902297 0.0263309 0.775874
5 0.0632626 0.09 0.676668 -0.015591 0.779379
5 0.00387803 -0.11 -0.11649 0.0021657 0.109897
5 0.00387803 0.11 -0.191613 0.00398955 -0.0353591
5 0.00651881 -0.11 -0.117875 0.00490008 0.162354
5 0.00651881 0.11 -0.217578 0.00668958 -0.0139268
5 0.00920802 -0.11 -0.0934146 0.00757273 0.217434
5 0.00920802 0.11 -0.222415 0.00697878 0.0270624
5 0.110526 0 0.869618 0.0142477 0.842708
5 0.0472842 -0.1 0.751562 0.0203657 0.683403
5 0.0472842 0.1 0.368014 -0.0169914 0.574575
5 0.0929523 -0.06 0.923551 0.0264573 0.812722
5 0.0929523 0.06 0.827702 0.00370214 0.844012
5 0.0119465 -0.11 -0.0519167 0.0101788 0.273145
5 0.0119465 0.11 -0.21893 0.00636367 0.0777358
5 0.0766105 -0.08 0.914883 0.0290072 0.791943
5 0.0766105 0.08 0.785318 -0.00724148 0.827361
5 0.0147353 -0.11 0.00100229 0.0125607 0.32728
5 0.0147353 0.11 -0.211451 0.00510921 0.131841
5 0.0994033 -0.05 0.920353 0.0237362 0.821163
5 0.0994033 0.05 0.831282 0.00720611 0.84541
5 0.0175752 -0.11 0.0621958 0.01452 0.377475
5 0.0175752 0.11 -0.198619 0.00343429 0.186114
5 0.0866939 -0.07 0.923011 0.0286922 0.803825
5 0.0866939 0.07 0.818625 -0.000243712 0.840647
5 0.0204672 -0.11 0.129675 0.0158804 0.421636
5 0.0204672 0.11 -0.177122 0.00137156 0.238916
5 0.0507211 -0.1 0.810034 0.0216183 0.715566
5 0.0507211 0.1 0.44819 -0.0201605 0.622077
5 0.0669925 -0.09 0.907259 0.0270352 0.779105
5 0.0669925 0.09 0.716259 -0.0155248 0.801639
5 0.110526 -0.02 0.891046 0.0164937 0.837071
5 0.110526 0.02 0.847965 0.0114542 0.844429
5 0.108269 -0.03 0.902516 0.0185127 0.833341
5 0.108269 0.03 0.839863 0.0105759 0.845159
5 0.0234122 -0.11 0.201906 0.0165424 0.458583
5 0.0234122 0.11 -0.144624 -0.00108813 0.289326
5 0.0264113 -0.11 0.277547 0.0165581 0.488704
5 0.0264113 0.11 -0.100706 -0.0038851 0.336609
5 0.112825 -0.01 0.878915 0.0145918 0.840581
5 0.112825 0.01 0.856645 0.0122328 0.844025
5 0.106012 -0.04 0.912644 0.0201954 0.827681
5 0.106012 0.04 0.832248 0.00865065 0.844192
5 0.0805853 -0.08 0.920103 0.0292548 0.793601
5 0.0805853 0.08 0.797366 -0.00710782 0.831807
5 0.054221 -0.1 0.854207 0.0226536 0.740211
5 0.054221 0.1 0.522448 -0.0228253 0.672494
5 0.0294653 -0.11 0.355485 0.0161614 0.514306
5 0.0294653 0.11 -0.0461811 -0.00692209 0.379969
5 0.0972268 -0.06 0.927304 0.025112 0.813786
5 0.0972268 0.06 0.823635 0.0033104 0.84323
5 0.0707909 -0.09 0.910798 0.0279047 0.781131
5 0.0707909 0.09 0.744093 -0.0152234 0.813308
5 0.0908536 -0.07 0.928419 0.0278891 0.805164
5 0.0908536 0.07 0.819114 -0.000498814 0.841747
5 0.0325754 -0.11 0.434832 0.0157227 0.539093
5 0.0325754 0.11 0.0177357 -0.010126 0.418866
5 0.115123 0 0.865926 0.012315 0.841782
5 0.103796 -0.05 0.922082 0.0220357 0.821896
5 0.103796 0.05 0.825157 0.00661571 0.843612
5 0.0577851 -0.1 0.882736 0.0234909 0.756197
5 0.0577851 0.1 0.588482 -0.0246819 0.720127
5 0.0357425 -0.11 0.51471 0.0156045 0.566641
5 0.0357425 0.11 0.0897392 -0.0134306 0.453737
5 0.0846329 -0.08 0.926172 0.02911 0.795184
5 0.0846329 0.08 0.804862 -0.00704624 0.835148
5 0.0389677 -0.11 0.593813 0.0159918 0.598646
5 0.0389677 0.11 0.168326 -0.0168781 0.486614
5 0.112825 -0.03 0.900837 0.0165042 0.833254
5 0.112825 0.03 0.834356 0.0092074 0.843418
5 0.115123 -0.02 0.888482 0.0143643 0.836643
5 0.115123 0.02 0.843231 0.00972274 0.842955
5 0.0746589 -0.09 0.915304 0.0287429 0.782955
5 0.0746589 0.09 0.764424 -0.0148339 0.820075
5 0.0614146 -0.1 0.898152 0.0243179 0.76495
5 0.0614146 0.1 0.643983 -0.025586 0.758988
5 0.110526 -0.04 0.912046 0.0182174 0.8279
5 0.110526 0.04 0.826277 0.00758078 0.842256
5 0.0422521 -0.11 0.669978 0.0168305 0.634141
5 0.0422521 0.11 0.251207 -0.0205064 0.520808
5 0.117464 -0.01 0.875661 0.0123044 0.839794
5 0.117464 0.01 0.852479 0.0101301 0.842727
5 0.10158 -0.06 0.930199 0.0234114 0.814679
5 0.10158 0.06 0.817845 0.00290118 0.841471
5 0.0950896 -0.07 0.933455 0.0266333 0.806357
5 0.0950896 0.07 0.816186 -0.000740141 0.841355
5 0.0455967 -0.11 0.740186 0.0179328 0.670123