# UMean  POINT_DATA 90431
# x  y  z  UMean_x  UMean_y  UMean_z
5 0 0 0 0 0
5 0.00256965 0 0.00593747 0.000544446 0.0345558
5 0.00518642 0 0.0188645 0.00116395 0.0549127
5 0.00785119 0 0.0399372 0.00206397 0.0797583
5 0.00128482 -0.01 0.00344376 0.000336236 0.0285054
5 0.00128482 0.01 0.000381672 0.000302653 0.0226517
5 0.0105648 0 0.0662625 0.00313103 0.108015
5 0.00387803 -0.01 0.0123693 0.000820697 0.0479857
5 0.00387803 0.01 0.00755636 0.000718267 0.0390831
5 0.00651881 -0.01 0.0311832 0.00166527 0.0719683
5 0.00651881 0.01 0.0243519 0.0014517 0.0606172
5 0.0133283 0 0.0959081 0.00431962 0.138123
5 0.00920802 -0.01 0.0567726 0.00273901 0.099828
5 0.00920802 0.01 0.0474451 0.00240008 0.0866239
5 0.0119465 -0.01 0.0865638 0.00392556 0.130106
5 0.0119465 0.01 0.0742734 0.00345968 0.115505
5 0.0161424 0 0.127868 0.00562065 0.168637
5 0.0147353 -0.01 0.119203 0.00522768 0.161231
5 0.0147353 0.01 0.103598 0.00466577 0.145655
5 0.0190081 0 0.161496 0.00699859 0.198488
5 0 -0.02 0 0 0
5 0 0.02 0 0 0
5 0.00256965 -0.02 0.0104263 0.000558308 0.0419133
5 0.00256965 0.02 0.00234497 0.000402011 0.0276902
5 0.0175752 -0.01 0.153899 0.0066064 0.191923
5 0.0175752 0.01 0.13478 0.00598301 0.175743
5 0.00518642 -0.02 0.0257261 0.00121015 0.0650198
5 0.00518642 0.02 0.0139089 0.00085043 0.0456111
5 0.00785119 -0.02 0.049534 0.00213831 0.0919979
5 0.00785119 0.02 0.0332751 0.00149795 0.0686152
5 0.0219263 0 0.196211 0.00841694 0.227055
5 0.0105648 -0.02 0.0789519 0.00321587 0.121775
5 0.0105648 0.02 0.0574018 0.00228673 0.0954488
5 0.0204672 -0.01 0.190021 0.00802102 0.221337
5 0.0204672 0.01 0.167292 0.0073842 0.204954
5 0.0133283 -0.02 0.111939 0.00437712 0.152874
5 0.0133283 0.02 0.0843646 0.00318761 0.124454
5 0.0248981 0 0.231448 0.00983903 0.254041
5 0.0234122 -0.01 0.226897 0.0094112 0.249083
5 0.0234122 0.01 0.200639 0.0088516 0.232854
5 0.0161424 -0.02 0.147315 0.00559661 0.183933
5 0.0161424 0.02 0.113252 0.00422091 0.154125
5 0.0190081 -0.02 0.184273 0.00683584 0.213944
5 0.0190081 0.02 0.143554 0.00537531 0.183357
5 0.0279244 0 0.266695 0.0112428 0.279238
5 0.0264113 -0.01 0.263872 0.0107362 0.275004
5 0.0264113 0.01 0.234393 0.0103574 0.259229
5 0.0219263 -0.02 0.222118 0.00805557 0.242327
5 0.0219263 0.02 0.174856 0.00663741 0.211482
5 0.00128482 -0.03 0.00715765 0.000298936 0.0343239
5 0.00128482 0.03 -0.00248468 0.000154692 0.0175575
5 0.00387803 -0.03 0.0187359 0.000777436 0.0568414
5 0.00387803 0.03 0.00392754 0.000432482 0.0314708
5 0.00651881 -0.03 0.0406191 0.00157734 0.0832877
5 0.00651881 0.03 0.0198024 0.000799358 0.0512765
5 0.0310063 0 0.30151 0.012608 0.302417
5 0.0294653 -0.01 0.300388 0.0119482 0.298929
5 0.0294653 0.01 0.268135 0.0119297 0.283797
5 0.00920802 -0.03 0.0695655 0.0025718 0.112912
5 0.00920802 0.03 0.0415047 0.00134081 0.0759474
5 0.0248981 -0.02 0.260207 0.00921515 0.268825
5 0.0248981 0.02 0.20681 0.00800261 0.238136
5 0.0119465 -0.03 0.102911 0.00362729 0.144261
5 0.0119465 0.03 0.0663883 0.00194651 0.103723
5 0.0147353 -0.03 0.139084 0.00472816 0.175903
5 0.0147353 0.03 0.0932038 0.00267865 0.132936
5 0.0325754 -0.01 0.336035 0.0130236 0.320632
5 0.0325754 0.01 0.30149 0.0135307 0.306316
5 0.0341446 0 0.335576 0.0139056 0.323365
5 0.0279244 -0.02 0.297964 0.0102711 0.293288
5 0.0279244 0.02 0.23909 0.00948309 0.263101
5 0.0175752 -0.03 0.177081 0.00582441 0.206679
5 0.0175752 0.03 0.121431 0.00355642 0.162172
5 0.0204672 -0.03 0.216098 0.00689176 0.235842
5 0.0204672 0.03 0.150721 0.00457782 0.190565
5 0.0310063 -0.02 0.334918 0.0111905 0.315551
5 0.0310063 0.02 0.27134 0.0110846 0.286199
5 0.0357425 -0.01 0.37061 0.0139436 0.339947
5 0.0357425 0.01 0.334176 0.015125 0.32657
5 0.0373405 0 0.368692 0.0150972 0.341937
5 0.0234122 -0.03 0.255463 0.00789855 0.263052
5 0.0234122 0.03 0.180779 0.00573627 0.217559
5 0.0341446 -0.02 0.370748 0.0119617 0.335469
5 0.0341446 0.02 0.303212 0.0127886 0.30728
5 0.0264113 -0.03 0.294603 0.00881484 0.288166
5 0.0264113 0.03 0.211434 0.00706548 0.242907
5 0 -0.04 0 0 0
5 0 0.04 0 0 0
5 0.00256965 -0.04 0.0161736 0.000475534 0.0487871
5 0.00256965 0.04 -0.000580464 0.000110256 0.0218373
5 0.0389677 -0.01 0.404015 0.0146831 0.356793
5 0.0389677 0.01 0.365973 0.0166375 0.344442
5 0.00518642 -0.04 0.0344564 0.00104746 0.0744946
5 0.00518642 0.04 0.010069 0.000209365 0.0378761
5 0.040595 0 0.400697 0.0161418 0.358074
5 0.00785119 -0.04 0.0615049 0.00184397 0.103394
5 0.00785119 0.04 0.0281737 0.00035935 0.0596213
5 0.0105648 -0.04 0.0942794 0.00275857 0.134417
5 0.0105648 0.04 0.0506661 0.000635096 0.0854301
5 0.0294653 -0.03 0.333003 0.00958541 0.311057
5 0.0294653 0.03 0.242406 0.00858017 0.266477
5 0.0133283 -0.04 0.130582 0.0037211 0.166168
5 0.0133283 0.04 0.0756286 0.00101862 0.113483
5 0.0373405 -0.02 0.405284 0.0125763 0.352969
5 0.0373405 0.02 0.334412 0.0145479 0.326229
5 0.0161424 -0.04 0.169063 0.00470172 0.197418
5 0.0161424 0.04 0.102202 0.00155742 0.142226
5 0.0422521 -0.01 0.436114 0.0152403 0.371203
5 0.0422521 0.01 0.396692 0.0180063 0.359862
5 0.0439092 0 0.43141 0.0170069 0.371808
5 0.0325754 -0.03 0.370252 0.010205 0.33159
5 0.0325754 0.03 0.273337 0.0102981 0.288209
5 0.0190081 -0.04 0.208784 0.00566297 0.227275
5 0.0190081 0.04 0.129986 0.00226516 0.170517
5 0.040595 -0.02 0.438407 0.0130413 0.368083
5 0.040595 0.02 0.36469 0.0162907 0.342974
5 0.0219263 -0.04 0.248997 0.00657721 0.25521
5 0.0219263 0.04 0.158687 0.00314153 0.197635
5 0.0357425 -0.03 0.406104 0.0106747 0.349709
5 0.0357425 0.03 0.303854 0.0122012 0.308028
5 0.0455967 -0.01 0.466715 0.0156241 0.383275
5 0.0455967 0.01 0.426126 0.0191572 0.372894
5 0.0248981 -0.04 0.289084 0.00741969 0.280962
5 0.0248981 0.04 0.188059 0.00419901 0.223172
5 0.0472842 0 0.46063 0.0176806 0.383271
5 0.0439092 -0.02 0.469978 0.0133814 0.380945
5 0.0439092 0.02 0.39382 0.0179313 0.357508
5 0.0279244 -0.04 0.32852 0.00815642 0.304425
5 0.0279244 0.04 0.217833 0.00544784 0.246929
5 0.0389677 -0.03 0.440416 0.0110039 0.365432
5 0.0389677 0.03 0.333653 0.0142282 0.32588
5 0.0490026 -0.01 0.495603 0.0158829 0.393246
5 0.0490026 0.01 0.454083 0.0200583 0.38367
5 0.00128482 -0.05 0.0121215 0.000213668 0.0393196
5 0.00128482 0.05 -0.00471316 -7.271e-05 0.0132743
5 0.00387803 -0.05 0.0266813 0.000612163 0.064667
5 0.00387803 0.05 0.000949351 -7.34208e-05 0.0250484
5 0.00651881 -0.05 0.051793 0.00122302 0.0931865
5 0.00651881 0.05 0.0155991 -0.00032095 0.0437119
5 0.0310063 -0.04 0.366847 0.00876288 0.325542
5 0.0310063 0.04 0.247659 0.00689839 0.268828
5 0.0507211 0 0.488158 0.0181752 0.392705
5 0.00920802 -0.05 0.0840469 0.00200387 0.124196
5 0.00920802 0.05 0.0357918 -0.000381775 0.0675533
5 0.0472842 -0.02 0.499828 0.0136364 0.391769
5 0.0472842 0.02 0.421584 0.0193902 0.369908
5 0.0119465 -0.05 0.1206 0.00283148 0.156306
5 0.0119465 0.05 0.0589836 -0.000365105 0.0945011
5 0.0422521 -0.03 0.473089 0.0112382 0.378909
5 0.0422521 0.03 0.362451 0.0162912 0.341717
5 0.0147353 -0.05 0.159737 0.00369764 0.188207
5 0.0147353 0.05 0.0839431 -0.000185502 0.122777
5 0.0341446 -0.04 0.40372 0.00924169 0.344286
5 0.0341446 0.04 0.277155 0.00855677 0.288854
5 0.0175752 -0.05 0.200355 0.00455682 0.218887
5 0.0175752 0.05 0.110234 0.000180208 0.151024
5 0.052471 -0.01 0.522606 0.0160698 0.401453
5 0.052471 0.01 0.480345 0.0206901 0.392452
5 0.0204672 -0.05 0.24161 0.00537905 0.247698
5 0.0204672 0.05 0.137563 0.000746321 0.178312
5 0.054221 0 0.513753 0.0185168 0.40042
5 0.0507211 -0.02 0.527769 0.0138578 0.400826
5 0.0507211 0.02 0.447757 0.0206055 0.380311
5 0.0455967 -0.03 0.504003 0.0114233 0.390395
5 0.0455967 0.03 0.390016 0.0182709 0.355561
5 0.0373405 -0.04 0.438928 0.00960757 0.3607
5 0.0373405 0.04 0.305982 0.0103983 0.307029
5 0.0234122 -0.05 0.282823 0.00613963 0.274252
5 0.0234122 0.05 0.165692 0.0015059 0.204109
5 0.0264113 -0.05 0.323457 0.00682591 0.298381
5 0.0264113 0.05 0.194338 0.00248861 0.228115
5 0.056003 -0.01 0.547474 0.0162311 0.40822
5 0.056003 0.01 0.504595 0.0210761 0.399557
5 0.040595 -0.04 0.472358 0.00989951 0.374926
5 0.040595 0.04 0.333883 0.0123735 0.323408
5 0.0490026 -0.03 0.532998 0.0116153 0.400164
5 0.0490026 0.03 0.416118 0.0200747 0.367508
5 0.0577851 0 0.537144 0.0187346 0.406708
5 0.054221 -0.02 0.553596 0.0140897 0.40839
5 0.054221 0.02 0.472067 0.0215375 0.388893
5 0.0294653 -0.05 0.363027 0.00739967 0.3201
5 0.0294653 0.05 0.22316 0.00365739 0.250219
5 0.0439092 -0.04 0.50397 0.0101707 0.387214
5 0.0439092 0.04 0.360658 0.0143978 0.338058
5 0.0325754 -0.05 0.401112 0.00786158 0.339426
5 0.0325754 0.05 0.25174 0.0050583 0.270412
5 0 -0.06 0 0 0
5 0 0.06 0 0 0
5 0.00256965 -0.06 0.0227138 0.000362649 0.0543434
5 0.00256965 0.06 -0.00425716 -0.000356876 0.0184309
5 0.00518642 -0.06 0.0440531 0.000801396 0.0822108
5 0.00518642 0.06 0.00512661 -0.000867431 0.0333515
5 0.0595998 -0.01 0.569977 0.016388 0.413812
5 0.0595998 0.01 0.526539 0.0212431 0.405246
5 0.052471 -0.03 0.559875 0.0118634 0.408443
5 0.052471 0.03 0.440487 0.0215994 0.377615
5 0.00785119 -0.06 0.074297 0.0014197 0.112689
5 0.00785119 0.06 0.0217665 -0.0014934 0.0541777
5 0.0105648 -0.06 0.110217 0.0021457 0.144762
5 0.0105648 0.06 0.04272 -0.00197861 0.0789185
5 0.0577851 -0.02 0.577105 0.0143582 0.414707
5 0.0577851 0.02 0.494267 0.022175 0.395856
5 0.0614146 0 0.558157 0.0188559 0.411847
5 0.0357425 -0.05 0.437422 0.00822567 0.356422
5 0.0357425 0.05 0.279694 0.00666993 0.28877
5 0.0133283 -0.06 0.149445 0.00291699 0.177091
5 0.0133283 0.06 0.066151 -0.00231275 0.105711
5 0.0472842 -0.04 0.533723 0.0104683 0.397845
5 0.0472842 0.04 0.386124 0.0163782 0.351062
5 0.0161424 -0.06 0.190516 0.00370885 0.208536
5 0.0161424 0.06 0.0911812 -0.00242139 0.133082
5 0.0190081 -0.06 0.232442 0.00448299 0.238287
5 0.0190081 0.06 0.117365 -0.00228025 0.15995
5 0.0389677 -0.05 0.471779 0.00852618 0.371239
5 0.0389677 0.05 0.306734 0.00849448 0.305441
5 0.056003 -0.03 0.584434 0.0121947 0.415445
5 0.056003 0.03 0.46285 0.0227846 0.385952
5 0.0219263 -0.06 0.274468 0.00521306 0.265832
5 0.0219263 0.06 0.144392 -0.0018887 0.185623
5 0.0632626 -0.01 0.589986 0.0165554 0.418499
5 0.0632626 0.01 0.546134 0.0212371 0.409832
5 0.0614146 -0.02 0.59818 0.0146743 0.420014
5 0.0614146 0.02 0.514281 0.0225359 0.401452
5 0.0507211 -0.04 0.561506 0.0108305 0.407045
5 0.0507211 0.04 0.410061 0.0182216 0.362473
5 0.0248981 -0.06 0.315991 0.00588718 0.290906
5 0.0248981 0.06 0.171971 -0.00124447 0.209715
5 0.0651106 0 0.576823 0.0189103 0.416131
5 0.0422521 -0.05 0.504156 0.00882992 0.384127
5 0.0422521 0.05 0.3327 0.0104805 0.320598
5 0.0279244 -0.06 0.356523 0.00649161 0.313442
5 0.0279244 0.06 0.19976 -0.000365195 0.232028
5 0.0595998 -0.03 0.606542 0.012619 0.421353
5 0.0595998 0.03 0.483091 0.0235962 0.39267
5 0.054221 -0.04 0.587151 0.0112796 0.414975
5 0.054221 0.04 0.432246 0.0198438 0.37227
5 0.0310063 -0.06 0.395647 0.00702051 0.333501
5 0.0310063 0.06 0.227366 0.000741223 0.252483
5 0.0455967 -0.05 0.53464 0.00919139 0.395428
5 0.0455967 0.05 0.357472 0.012549 0.33436
5 0.0669925 -0.01 0.607566 0.0167347 0.422536
5 0.0669925 0.01 0.563612 0.0211142 0.41366
5 0.0651106 -0.02 0.616856 0.0150406 0.424554
5 0.0651106 0.02 0.532287 0.0226674 0.406011
5 0.0688745 0 0.593326 0.0189213 0.419843
5 0.0341446 -0.06 0.433028 0.00748308 0.351214
5 0.0341446 0.06 0.254404 0.0020737 0.271107
5 0.0490026 -0.05 0.563259 0.00964329 0.405397
5 0.0490026 0.05 0.380896 0.0146186 0.346823
5 0.00128482 -0.07 0.0173004 0.000168711 0.0429717
5 0.00128482 0.07 -0.00870139 -0.000337874 0.0121017
5 0.0632626 -0.03 0.626222 0.0131351 0.426393
5 0.0632626 0.03 0.501368 0.0240671 0.398061
5 0.00387803 -0.07 0.0347545 0.000456108 0.0704192
5 0.00387803 0.07 -0.00456272 -0.000943545 0.0233011
5 0.0577851 -0.04 0.610495 0.0118205 0.42177
5 0.0577851 0.04 0.452571 0.0211886 0.38047
5 0.00651881 -0.07 0.0629876 0.000914377 0.100575
5 0.00651881 0.07 0.00852293 -0.00213192 0.0413475
5 0.00920802 -0.07 0.0983658 0.00153764 0.132804
5 0.00920802 0.07 0.0271552 -0.00313904 0.064102
5 0.0373405 -0.06 0.468454 0.00789845 0.366789
5 0.0373405 0.06 0.280583 0.00361801 0.288016
5 0.0119465 -0.07 0.137861 0.00220994 0.165746
5 0.0119465 0.07 0.0489533 -0.00402859 0.0895219
5 0.0707909 -0.01 0.622896 0.0169294 0.426201
5 0.0707909 0.01 0.579236 0.0209068 0.416976
5 0.0147353 -0.07 0.17959 0.00292901 0.198111
5 0.0147353 0.07 0.0727281 -0.00467185 0.116048
5 0.0688745 -0.02 0.633294 0.015449 0.428586
5 0.0688745 0.02 0.548562 0.0226174 0.409858
5 0.0175752 -0.07 0.222388 0.00365208 0.228946
5 0.0175752 0.07 0.097824 -0.0050084 0.142484
5 0.040595 -0.06 0.501848 0.00830683 0.380498
5 0.040595 0.06 0.305736 0.00535622 0.303385
5 0.052471 -0.05 0.5899 0.0102003 0.414179
5 0.052471 0.05 0.402751 0.0165942 0.357947
5 0.0727073 0 0.607872 0.0189085 0.423231
5 0.0204672 -0.07 0.265423 0.00434413 0.257621
5 0.0204672 0.07 0.123842 -0.00503908 0.167987
5 0.0614146 -0.04 0.631459 0.012449 0.427595
5 0.0614146 0.04 0.471129 0.0222332 0.387228
5 0.0669925 -0.03 0.643655 0.0137373 0.430792
5 0.0669925 0.03 0.518037 0.0242513 0.402494
5 0.0234122 -0.07 0.308024 0.00498957 0.283763
5 0.0234122 0.07 0.150475 -0.00476785 0.192088
5 0.0439092 -0.06 0.533266 0.00875471 0.392639
5 0.0439092 0.06 0.329789 0.00723927 0.317398
5 0.0264113 -0.07 0.349669 0.00559375 0.307231
5 0.0264113 0.07 0.177383 -0.0042044 0.214553
5 0.056003 -0.05 0.614401 0.0108601 0.421837
5 0.056003 0.05 0.422902 0.0183975 0.367568
5 0.0746589 -0.01 0.636172 0.0171328 0.429685
5 0.0746589 0.01 0.59319 0.0206649 0.420062
5 0.0727073 -0.02 0.647675 0.0158829 0.432322
5 0.0727073 0.02 0.563298 0.0224425 0.413251
5 0.0294653 -0.07 0.389949 0.00614722 0.328061
5 0.0294653 0.07 0.204163 -0.00340217 0.235227
5 0.0472842 -0.06 0.562801 0.00927602 0.403445
5 0.0472842 0.06 0.352667 0.00920873 0.330196
5 0.0651106 -0.04 0.650115 0.0131543 0.432647
5 0.0651106 0.04 0.488142 0.0229864 0.392825
5 0.0766105 0 0.62065 0.018889 0.426506
5 0.0707909 -0.03 0.659062 0.0143949 0.434816
5 0.0707909 0.03 0.533369 0.0241972 0.406301
5 0.0325754 -0.07 0.428506 0.00667369 0.34642
5 0.0325754 0.07 0.230408 -0.00234836 0.254078
5 0.0595998 -0.05 0.636611 0.0116084 0.428448
5 0.0595998 0.05 0.441448 0.0199762 0.375691
5 0.0507211 -0.06 0.590458 0.00988862 0.413036
5 0.0507211 0.06 0.374232 0.0112068 0.341815
5 0.0357425 -0.07 0.465081 0.00717149 0.362591
5 0.0357425 0.07 0.255782 -0.00108474 0.271173
5 0.0766105 -0.02 0.66017 0.0163317 0.435894
5 0.0766105 0.02 0.576573 0.0221938 0.416412
5 0.0785979 -0.01 0.647639 0.0173463 0.433086
5 0.0785979 0.01 0.605605 0.0204119 0.423193
5 0.0688745 -0.04 0.666654 0.013917 0.437136
5 0.0688745 0.04 0.503819 0.0234766 0.397545
5 0 -0.08 0 0 0
5 0 0.08 0 0 0
5 0.00256965 -0.08 0.0292507 0.000292294 0.058645
5 0.00256965 0.08 -0.0099384 -0.000862752 0.0189591
5 0.0389677 -0.07 0.499543 0.00767058 0.376907
5 0.0389677 0.07 0.280127 0.000392744 0.286686
5 0.00518642 -0.08 0.0534804 0.000636345 0.0882387
5 0.00518642 0.08 -0.00234294 -0.00206873 0.0337169
5 0.00785119 -0.08 0.0866509 0.00115247 0.120001
5 0.00785119 0.08 0.0126489 -0.00352577 0.053734
5 0.0746589 -0.03 0.672572 0.0150744 0.438587
5 0.0746589 0.03 0.547401 0.0240012 0.409667
5 0.0805853 0 0.63189 0.0188764 0.429805
5 0.0632626 -0.05 0.656467 0.0124337 0.434187
5 0.0632626 0.05 0.458613 0.0212934 0.382494
5 0.0105648 -0.08 0.125411 0.00178012 0.152935
5 0.0105648 0.08 0.0321609 -0.00483757 0.077013
5 0.054221 -0.06 0.616123 0.0105922 0.421475
5 0.054221 0.06 0.394345 0.0131755 0.352183
5 0.0133283 -0.08 0.167267 0.00245814 0.185755
5 0.0133283 0.08 0.0543468 -0.00594674 0.101922
5 0.0161424 -0.08 0.210634 0.00316715 0.217405
5 0.0161424 0.08 0.0781721 -0.00675566 0.127206
5 0.0422521 -0.07 0.531923 0.00820076 0.389721
5 0.0422521 0.07 0.30339 0.00205757 0.300819
5 0.0190081 -0.08 0.254484 0.00387682 0.247135
5 0.0190081 0.08 0.103033 -0.00723281 0.151944
5 0.0219263 -0.08 0.298077 0.00456816 0.274476
5 0.0219263 0.08 0.128561 -0.00737727 0.175568
5 0.0727073 -0.04 0.68125 0.0147146 0.441249
5 0.0727073 0.04 0.518239 0.0237553 0.401585
5 0.0805853 -0.02 0.671007 0.0167955 0.439411
5 0.0805853 0.02 0.588469 0.0219124 0.419493
5 0.0826091 -0.01 0.657688 0.017575 0.436505
5 0.0826091 0.01 0.616633 0.0201722 0.426439
5 0.0577851 -0.06 0.63962 0.0113733 0.428826
5 0.0577851 0.06 0.412984 0.0150597 0.361232
5 0.0455967 -0.07 0.562353 0.00879689 0.401282
5 0.0455967 0.07 0.325601 0.00387046 0.313817
5 0.0669925 -0.05 0.674122 0.0133113 0.439217
5 0.0669925 0.05 0.474555 0.0223338 0.388251
5 0.0248981 -0.08 0.340836 0.00523348 0.299199
5 0.0248981 0.08 0.154451 -0.00719649 0.197764
5 0.0785979 -0.03 0.684302 0.0157735 0.44222
5 0.0785979 0.03 0.5601 0.0236972 0.412727
5 0.0846329 0 0.641857 0.0188858 0.433178
5 0.0279244 -0.08 0.382298 0.00587197 0.321263
5 0.0279244 0.08 0.180358 -0.00671395 0.218338
5 0.0490026 -0.07 0.590959 0.00947265 0.411676
5 0.0490026 0.07 0.346705 0.00579739 0.325787
5 0.0310063 -0.08 0.422088 0.00648708 0.340764
5 0.0310063 0.08 0.205904 -0.00595549 0.237216
5 0.0614146 -0.06 0.660795 0.0122194 0.435193
5 0.0614146 0.06 0.430251 0.016811 0.369009
5 0.0766105 -0.04 0.694033 0.0155366 0.44515
5 0.0766105 0.04 0.531391 0.0238734 0.405073
5 0.0707909 -0.05 0.689783 0.0142247 0.443721
5 0.0707909 0.05 0.489318 0.0231244 0.393134
5 0.0846329 -0.02 0.680454 0.0172773 0.442976
5 0.0846329 0.02 0.59912 0.0216391 0.422556
5 0.0341446 -0.08 0.45991 0.00708283 0.357923
5 0.0341446 0.08 0.230748 -0.00495212 0.254441
5 0.0866939 -0.01 0.666651 0.0178318 0.440021
5 0.0866939 0.01 0.62646 0.019964 0.429747
5 0.052471 -0.07 0.617721 0.0102384 0.420896
5 0.052471 0.07 0.366582 0.00781759 0.336708
5 0.0826091 -0.03 0.694403 0.0164874 0.445837
5 0.0826091 0.03 0.571544 0.023368 0.415613
5 0.0373405 -0.08 0.495588 0.00766616 0.373046
5 0.0373405 0.08 0.254678 -0.00372701 0.270143
5 0.0651106 -0.06 0.679634 0.0131121 0.440708
5 0.0651106 0.06 0.446257 0.0183876 0.375672
5 0.0887548 0 0.650733 0.0189396 0.436611
5 0.056003 -0.07 0.642478 0.0110702 0.42899
5 0.056003 0.07 0.385149 0.00989308 0.34651
5 0.040595 -0.08 0.529103 0.00825305 0.386483
5 0.040595 0.08 0.27763 -0.00229569 0.284514
5 0.0746589 -0.05 0.703589 0.0151647 0.447874
5 0.0746589 0.05 0.502874 0.0236983 0.397238
5 0.0805853 -0.04 0.705136 0.0163825 0.448993
5 0.0805853 0.04 0.543313 0.0238856 0.408147
5 0.00128482 -0.09 0.0223577 0.000157925 0.045971
5 0.00128482 0.09 -0.0142314 -0.000510779 0.0142237
5 0.00387803 -0.09 0.0425931 0.00038647 0.0752225
5 0.00387803 0.09 -0.0122577 -0.00165895 0.0262117
5 0.00651881 -0.09 0.0735911 0.000788495 0.106743
5 0.00651881 0.09 -0.0010724 -0.00354076 0.0440101
5 0.00920802 -0.09 0.111665 0.00136945 0.139886
5 0.00920802 0.09 0.0159926 -0.00529159 0.06548
5 0.0119465 -0.09 0.153757 0.00200355 0.173308
5 0.0119465 0.09 0.0365459 -0.00689128 0.0889523
5 0.0887548 -0.02 0.688721 0.017785 0.446619
5 0.0887548 0.02 0.608645 0.0214104 0.42559
5 0.0147353 -0.09 0.197865 0.00269017 0.20586
5 0.0147353 0.09 0.0591639 -0.00819539 0.11317
5 0.0439092 -0.08 0.560567 0.00886257 0.398539
5 0.0439092 0.08 0.299614 -0.000692171 0.297755
5 0.0688745 -0.06 0.696269 0.0140369 0.445539
5 0.0688745 0.06 0.46106 0.0197705 0.381398
5 0.0908536 -0.01 0.674645 0.0181357 0.44365
5 0.0908536 0.01 0.63518 0.019827 0.433026
5 0.0175752 -0.09 0.242701 0.00339748 0.236707
5 0.0175752 0.09 0.0829768 -0.00914713 0.137125
5 0.0866939 -0.03 0.703078 0.0172151 0.449542
5 0.0866939 0.03 0.581846 0.0230519 0.418426
5 0.0595998 -0.07 0.664998 0.0119549 0.436032
5 0.0595998 0.07 0.402442 0.0119727 0.355162
5 0.0204672 -0.09 0.287431 0.00411374 0.265272
5 0.0204672 0.09 0.107495 -0.00973669 0.160186
5 0.0472842 -0.08 0.590128 0.00951656 0.409405
5 0.0472842 0.08 0.32062 0.00105596 0.309988
5 0.0929523 0 0.658606 0.0190595 0.440055
5 0.0234122 -0.09 0.331439 0.00482533 0.291253
5 0.0234122 0.09 0.132439 -0.00996546 0.182017
5 0.0785979 -0.05 0.715671 0.0161341 0.45192
5 0.0785979 0.05 0.515195 0.0240969 0.400662
5 0.0846329 -0.04 0.714713 0.0172476 0.452864
5 0.0846329 0.04 0.554109 0.0238481 0.410934
5 0.0264113 -0.09 0.374218 0.00552539 0.314554
5 0.0264113 0.09 0.157511 -0.00984818 0.202401
5 0.0727073 -0.06 0.71088 0.0149938 0.449905
5 0.0727073 0.06 0.47469 0.0209698 0.386301
5 0.0632626 -0.07 0.685111 0.0128809 0.442105
5 0.0632626 0.07 0.418506 0.0140021 0.362691
5 0.0294653 -0.09 0.415364 0.00622165 0.33521
5 0.0294653 0.09 0.182378 -0.00940092 0.221176
5 0.0507211 -0.08 0.617838 0.0102326 0.419143
5 0.0507211 0.08 0.340556 0.00293503 0.321209
5 0.0929523 -0.02 0.695937 0.0183192 0.450266
5 0.0929523 0.02 0.617127 0.0212651 0.42856
5 0.0950896 -0.01 0.681716 0.0184883 0.447293
5 0.0950896 0.01 0.642884 0.0197873 0.436252
5 0.0908536 -0.03 0.710512 0.0179575 0.453266
5 0.0908536 0.03 0.591098 0.0227988 0.421164
5 0.0325754 -0.09 0.454541 0.00690589 0.35337
5 0.0325754 0.09 0.206674 -0.00867034 0.238387
5 0.0826091 -0.05 0.726172 0.0171356 0.455998
5 0.0826091 0.05 0.526419 0.0243804 0.403586
5 0.054221 -0.08 0.643588 0.0110141 0.427764
5 0.054221 0.08 0.359299 0.0049321 0.331354
5 0.0357425 -0.09 0.491518 0.00758036 0.369313
5 0.0357425 0.09 0.230135 -0.00770477 0.254131
5 0.0669925 -0.07 0.702841 0.0138226 0.447326
5 0.0669925 0.07 0.433359 0.0159215 0.369254
5 0.0972268 0 0.665547 0.0192546 0.443451
5 0.0766105 -0.06 0.723662 0.0159897 0.45405
5 0.0766105 0.06 0.487206 0.0220013 0.390462
5 0.0887548 -0.04 0.722903 0.0181184 0.456736
5 0.0887548 0.04 0.563862 0.0238103 0.413507
5 0.0389677 -0.09 0.526218 0.00824233 0.383377
5 0.0389677 0.09 0.252675 -0.00651094 0.268587
5 0.0577851 -0.08 0.667153 0.0118533 0.435303
5 0.0577851 0.08 0.376774 0.00702501 0.340388
5 0.0972268 -0.02 0.702218 0.0188662 0.453797
5 0.0972268 0.02 0.624652 0.0212342 0.431461
5 0.0422521 -0.09 0.558736 0.0088987 0.395927
5 0.0422521 0.09 0.274335 -0.00512175 0.281968
5 0.0707909 -0.07 0.718337 0.0147891 0.451894
5 0.0707909 0.07 0.447013 0.0177027 0.374953
5 0.0950896 -0.03 0.716876 0.0186956 0.456855
5 0.0950896 0.03 0.599348 0.0226473 0.423799
5 0.0994033 -0.01 0.687909 0.0188674 0.45081
5 0.0994033 0.01 0.649681 0.0198754 0.439452
5 0 -0.1 0 0 0
5 0 0.1 0 0 0
5 0.00256965 -0.1 0.0350611 0.000297492 0.0623043
5 0.00256965 0.1 -0.0172572 -0.00113464 0.0221259
5 0.0866939 -0.05 0.735203 0.0181526 0.460083
5 0.0866939 0.05 0.53663 0.024592 0.406112
5 0.00518642 -0.1 0.0617893 0.000650734 0.0933462
5 0.00518642 0.1 -0.0120941 -0.00272344 0.0372221
5 0.00785119 -0.1 0.0974423 0.00117963 0.126196
5 0.00785119 0.1 0.000862333 -0.004612 0.0564744
5 0.0805853 -0.06 0.734821 0.0170249 0.458157
5 0.0805853 0.06 0.498732 0.0228892 0.393968
5 0.0105648 -0.1 0.138654 0.00183496 0.159865
5 0.0105648 0.1 0.0187031 -0.00636669 0.078154
5 0.0614146 -0.08 0.688328 0.0127393 0.441835
5 0.0614146 0.08 0.392943 0.00917584 0.348335
5 0.0133283 -0.1 0.182885 0.00255745 0.193117
5 0.0133283 0.1 0.0394097 -0.00790257 0.101003
5 0.0455967 -0.09 0.589264 0.00955412 0.407229
5 0.0455967 0.09 0.295135 -0.00357455 0.294419
5 0.0929523 -0.04 0.72984 0.0189752 0.460487
5 0.0929523 0.04 0.572642 0.0238205 0.415897
5 0.0161424 -0.1 0.228466 0.00333096 0.224993
5 0.0161424 0.1 0.0617482 -0.00911735 0.12404
5 0.10158 0 0.671671 0.0195228 0.446758
5 0.0190081 -0.1 0.274308 0.00412667 0.254841
5 0.0190081 0.1 0.0850205 -0.00998054 0.146521
5 0.0746589 -0.07 0.731815 0.0157968 0.456134
5 0.0746589 0.07 0.459559 0.0193543 0.37988
5 0.0219263 -0.1 0.319665 0.00492434 0.282244
5 0.0219263 0.1 0.108862 -0.010494 0.167972
5 0.0490026 -0.09 0.617943 0.0102428 0.417435
5 0.0490026 0.09 0.315043 -0.00186898 0.305934
5 0.0248981 -0.1 0.363943 0.0057035 0.306984
5 0.0248981 0.1 0.133015 -0.0106737 0.188115
5 0.0651106 -0.08 0.70708 0.0136586 0.447491
5 0.0651106 0.08 0.407804 0.0113346 0.3553
5 0.10158 -0.02 0.707734 0.0194133 0.457159
5 0.10158 0.02 0.631338 0.0213428 0.434317
5 0.0908536 -0.05 0.742823 0.0191489 0.464054
5 0.0908536 0.05 0.545879 0.0247985 0.408329
5 0.0846329 -0.06 0.744486 0.018072 0.462266
5 0.0846329 0.06 0.509377 0.0236619 0.396896
5 0.0279244 -0.1 0.406639 0.00645326 0.329009
5 0.0279244 0.1 0.157197 -0.0105497 0.206779
5 0.0994033 -0.03 0.722374 0.0194139 0.460232
5 0.0994033 0.03 0.606697 0.0226269 0.426343
5 0.052471 -0.09 0.644736 0.0109769 0.426567
5 0.052471 0.09 0.333897 -5.35439e-06 0.316409
5 0.103796 -0.01 0.693381 0.0192536 0.454122
5 0.103796 0.01 0.655715 0.0200949 0.442649
5 0.0310063 -0.1 0.447347 0.00717188 0.348391
5 0.0310063 0.1 0.181096 -0.0101573 0.223913
5 0.0972268 -0.04 0.735702 0.0198012 0.464019
5 0.0972268 0.04 0.580525 0.0239121 0.418137
5 0.0785979 -0.07 0.743579 0.0168637 0.460274
5 0.0785979 0.07 0.4712 0.020856 0.384072
5 0.0688745 -0.08 0.723538 0.0146129 0.452477
5 0.0688745 0.08 0.421409 0.0134602 0.361413
5 0.0341446 -0.1 0.485777 0.00785645 0.365329
5 0.0341446 0.1 0.204424 -0.00953645 0.239586
5 0.056003 -0.09 0.669425 0.0117711 0.434604
5 0.056003 0.09 0.351574 0.00202366 0.325792
5 0.106012 0 0.677115 0.0198604 0.449932
5 0.0373405 -0.1 0.521805 0.0085085 0.38014
5 0.0373405 0.1 0.226989 -0.00870652 0.253954
5 0.0887548 -0.06 0.752713 0.0190932 0.466288
5 0.0887548 0.06 0.519152 0.0243515 0.399314
5 0.0950896 -0.05 0.749149 0.0200992 0.467777
5 0.0950896 0.05 0.554245 0.0250375 0.410299
5 0.106012 -0.02 0.712653 0.0199611 0.460375
5 0.106012 0.02 0.637323 0.0216077 0.437116
5 0.040595 -0.1 0.555486 0.00913192 0.393198
5 0.040595 0.1 0.248713 -0.00766836 0.267224
5 0.0595998 -0.09 0.691717 0.0126174 0.441588
5 0.0595998 0.09 0.367934 0.00421125 0.334092
5 0.103796 -0.03 0.727275 0.0201183 0.463472
5 0.103796 0.03 0.613263 0.0227742 0.428826
5 0.0727073 -0.08 0.737905 0.015615 0.457054
5 0.0727073 0.08 0.433893 0.0155343 0.366763
5 0.0826091 -0.07 0.753865 0.0179666 0.464437
5 0.0826091 0.07 0.482119 0.022224 0.387555
5 0.108269 -0.01 0.698231 0.0196512 0.457231
5 0.108269 0.01 0.661137 0.020442 0.445727
5 0.10158 -0.04 0.740732 0.0205981 0.467339
5 0.10158 0.04 0.587609 0.0241173 0.420289
5 0.0439092 -0.1 0.586995 0.00973251 0.404852
5 0.0439092 0.1 0.269563 -0.00643233 0.27956
5 0.00128482 -0.11 0.0264184 0.000165991 0.0486595
5 0.00128482 0.11 -0.0207194 -0.00053095 0.0175138
5 0.0632626 -0.09 0.711494 0.0135041 0.447618
5 0.0632626 0.09 0.382896 0.00651805 0.341397
5 0.00387803 -0.11 0.0488785 0.000479622 0.0793688
5 0.00387803 0.11 -0.0218204 -0.00183806 0.0305561
5 0.00651881 -0.11 0.0820994 0.000948417 0.112056
5 0.00651881 0.11 -0.0132242 -0.00385632 0.0481131
5 0.00920802 -0.11 0.12242 0.00161228 0.146104
5 0.00920802 0.11 0.0017559 -0.00575962 0.0682979
5 0.110526 0 0.681976 0.0202703 0.452897
5 0.0472842 -0.1 0.616505 0.0103272 0.415343
5 0.0472842 0.1 0.289502 -0.00499741 0.291016
5 0.0929523 -0.06 0.759585 0.0200589 0.470116
5 0.0929523 0.06 0.52804 0.024992 0.401325
5 0.0119465 -0.11 0.166782 0.0023547 0.180166
5 0.0119465 0.11 0.0205212 -0.00752455 0.0898895
5 0.0766105 -0.08 0.750412 0.0166716 0.46145
5 0.0766105 0.08 0.445465 0.017538 0.371403
5 0.0147353 -0.11 0.213145 0.0031815 0.213138
5 0.0147353 0.11 0.0414114 -0.0089993 0.112003
5 0.0994033 -0.05 0.754412 0.0209964 0.471212
5 0.0994033 0.05 0.561812 0.0253368 0.412111
5 0.0175752 -0.11 0.260161 0.00405485 0.244273
5 0.0175752 0.11 0.0634447 -0.0101278 0.133865
5 0.0866939 -0.07 0.762709 0.0190335 0.468548
5 0.0866939 0.07 0.492344 0.0234516 0.390332
5 0.0204672 -0.11 0.306948 0.00494079 0.273116
5 0.0204672 0.11 0.0861699 -0.0109107 0.154912
5 0.0507211 -0.1 0.644075 0.0109385 0.424792
5 0.0507211 0.1 0.308452 -0.00335292 0.301525
5 0.0669925 -0.09 0.728881 0.014427 0.452918
5 0.0669925 0.09 0.396458 0.00889751 0.347859
5 0.110526 -0.02 0.717086 0.0205195 0.463481
5 0.110526 0.02 0.642728 0.0220256 0.439757
5 0.108269 -0.03 0.731727 0.0208215 0.466677
5 0.108269 0.03 0.619182 0.0231197 0.431263
5 0.0234122 -0.11 0.352851 0.00581766 0.29934
5 0.0234122 0.11 0.109351 -0.0113633 0.174779
5 0.0264113 -0.11 0.397273 0.00664578 0.322796
5 0.0264113 0.11 0.132765 -0.0115177 0.193269
5 0.112825 -0.01 0.702539 0.020089 0.460135
5 0.112825 0.01 0.666001 0.0208994 0.448494
5 0.106012 -0.04 0.745188 0.021376 0.470526
5 0.106012 0.04 0.594003 0.0244702 0.422403
5 0.0805853 -0.08 0.761267 0.0177697 0.46576
5 0.0805853 0.08 0.456348 0.019448 0.375365
5 0.054221 -0.1 0.669607 0.0115891 0.433231
5 0.054221 0.1 0.326313 -0.0014948 0.310993
5 0.0294653 -0.11 0.439709 0.00742035 0.343481
5 0.0294653 0.11 0.15614 -0.0114318 0.210276
5 0.0972268 -0.06 0.765304 0.0209612 0.473703
5 0.0972268 0.06 0.536063 0.0256114 0.403055
5 0.0707909 -0.09 0.744096 0.0154134 0.457771
5 0.0707909 0.09 0.408808 0.0113198 0.35359
5 0.0908536 -0.07 0.770121 0.0200381 0.472468
5 0.0908536 0.07 0.50176 0.0245642 0.392484
5 0.0325754 -0.11 0.479782 0.00813979 0.361506
5 0.0325754 0.11 0.179198 -0.0111261 0.225816
5 0.115123 0 0.686369 0.0207615 0.455557
5 0.103796 -0.05 0.758871 0.0218641 0.474442
5 0.103796 0.05 0.568666 0.0257315 0.413878
5 0.0577851 -0.1 0.692901 0.0122948 0.440686
5 0.0577851 0.1 0.342969 0.000570641 0.319397
5 0.0357425 -0.11 0.517275 0.00879989 0.377131
5 0.0357425 0.11 0.201693 -0.0106444 0.240014
5 0.0846329 -0.08 0.770627 0.0188612 0.469962
5 0.0846329 0.08 0.466644 0.0212376 0.37865
5 0.0389677 -0.11 0.552218 0.00941156 0.39074
5 0.0389677 0.11 0.22346 -0.00996573 0.253089
5 0.112825 -0.03 0.73585 0.0215166 0.46988
5 0.112825 0.03 0.624594 0.0236413 0.433543
5 0.115123 -0.02 0.721188 0.0211042 0.46644
5 0.115123 0.02 0.647658 0.0225781 0.442106
5 0.0746589 -0.09 0.757378 0.0164611 0.46242
5 0.0746589 0.09 0.420194 0.0137611 0.358633
5 0.0614146 -0.1 0.713813 0.0130595 0.447234
5 0.0614146 0.1 0.358284 0.0028192 0.326806
5 0.110526 -0.04 0.749313 0.0221311 0.473639
5 0.110526 0.04 0.599824 0.0249845 0.424449
5 0.0422521 -0.11 0.584782 0.00997526 0.402752
5 0.0422521 0.11 0.244386 -0.00907476 0.265254
5 0.117464 -0.01 0.706497 0.0205922 0.462767
5 0.117464 0.01 0.670443 0.0214658 0.450833
5 0.10158 -0.06 0.770157 0.0218171 0.477065
5 0.10158 0.06 0.543283 0.0262439 0.404636
5 0.0950896 -0.07 0.77625 0.0209498 0.476167