# UMean  POINT_DATA 90431
# x  y  z  UMean_x  UMean_y  UMean_z
4 0 0 0 0 0
4 0.00256965 0 -0.0580551 0.00109685 -0.0086081
4 0.00518642 0 -0.0831878 0.00241938 -0.0111047
4 0.00785119 0 -0.10481 0.00414979 -0.0140681
4 0.00128135 -0.00996393 -0.0397213 0.000564253 -0.00483969
4 0.00128135 0.00996393 -0.0500522 0.000611879 -0.0102231
4 0.0105648 0 -0.121782 0.00605269 -0.0172727
4 0.00386754 -0.00996393 -0.0632284 0.0014875 -0.00576176
4 0.00386754 0.00996393 -0.0794421 0.00173545 -0.0136846
4 0.00650117 -0.00996393 -0.0842583 0.00308462 -0.00766001
4 0.00650117 0.00996393 -0.106113 0.00338659 -0.0174303
4 0.0133283 0 -0.134336 0.00807323 -0.0206798
4 0.00918311 -0.00996393 -0.101227 0.00496157 -0.00994595
4 0.00918311 0.00996393 -0.127932 0.00518128 -0.0213963
4 0.0119142 -0.00996393 -0.113754 0.00703629 -0.012481
4 0.0119142 0.00996393 -0.144454 0.00703494 -0.0254597
4 0.0161424 0 -0.143468 0.0101577 -0.0243477
4 0.0146954 -0.00996393 -0.122674 0.00925931 -0.0153805
4 0.0146954 0.00996393 -0.156622 0.00894459 -0.0296005
4 0.0190081 0 -0.150173 0.0122336 -0.0283129
4 0 -0.02 0 0 0
4 0 0.02 0 0 0
4 0.0175277 -0.00996393 -0.129086 0.0115381 -0.0187265
4 0.0175277 0.00996393 -0.165551 0.0108427 -0.0338761
4 0.00256965 -0.02 -0.0438904 0.00103374 -0.00186702
4 0.00256965 0.02 -0.0708967 0.00106791 -0.0146236
4 0.00518642 -0.02 -0.0629132 0.00234367 -0.00179608
4 0.00518642 0.02 -0.101187 0.00232072 -0.0189307
4 0.00785119 -0.02 -0.0790127 0.00418725 -0.00253755
4 0.00785119 0.02 -0.127457 0.00386102 -0.0232742
4 0.0219263 0 -0.155202 0.0142442 -0.032552
4 0.0105648 -0.02 -0.0913555 0.00632981 -0.00387174
4 0.0105648 0.02 -0.148398 0.00548174 -0.0277234
4 0.0204118 -0.00996393 -0.133881 0.0138049 -0.0225102
4 0.0204118 0.00996393 -0.172125 0.0126691 -0.0383059
4 0.0133283 -0.02 -0.100144 0.00868101 -0.00581377
4 0.0133283 0.02 -0.164272 0.00715021 -0.0322751
4 0.0248981 0 -0.159095 0.0161552 -0.0370267
4 0.0233489 -0.00996393 -0.137616 0.0160071 -0.0266879
4 0.0233489 0.00996393 -0.177029 0.0143799 -0.0428324
4 0.0161424 -0.02 -0.106278 0.0111551 -0.00841105
4 0.0161424 0.02 -0.176125 0.00885706 -0.0368839
4 0.0190081 -0.02 -0.11071 0.013663 -0.0116512
4 0.0190081 0.02 -0.18494 0.0105514 -0.0415228
4 0.0279244 0 -0.162264 0.0179606 -0.041726
4 0.0263398 0.00996393 -0.18083 0.0159604 -0.0474579
4 0.0263398 -0.00996393 -0.140654 0.0181209 -0.031209
4 0.0219263 -0.02 -0.114137 0.0161383 -0.0154624
4 0.0219263 0.02 -0.191484 0.0121828 -0.0461761
4 0.00128135 -0.0298918 -0.0279736 0.000551492 0.000454777
4 0.00128135 0.0298918 -0.0600733 0.000501062 -0.0147327
4 0.00386754 -0.0298918 -0.0448264 0.0015329 0.00248325
4 0.00386754 0.0298918 -0.0942498 0.00143972 -0.019896
4 0.00650117 -0.0298918 -0.0596123 0.00326407 0.00347017
4 0.00650117 0.0298918 -0.125228 0.00274924 -0.0247586
4 0.0310063 0 -0.165015 0.0196786 -0.0466476
4 0.0293856 0.00996393 -0.183974 0.0174229 -0.052253
4 0.0293856 -0.00996393 -0.143267 0.0201497 -0.0360149
4 0.00918311 -0.0298918 -0.0712639 0.00542099 0.00362318
4 0.00918311 0.0298918 -0.150812 0.00415945 -0.0295581
4 0.0248981 -0.02 -0.116979 0.018538 -0.0197403
4 0.0248981 0.02 -0.19642 0.0137226 -0.0508563
4 0.0119142 -0.0298918 -0.0794827 0.00786319 0.00289212
4 0.0119142 0.0298918 -0.170565 0.00557876 -0.0345147
4 0.0146954 -0.0298918 -0.0849378 0.0105032 0.00125009
4 0.0146954 0.0298918 -0.185503 0.00705602 -0.0395337
4 0.0324873 -0.00996393 -0.145689 0.0221278 -0.0410361
4 0.0324873 0.00996393 -0.186741 0.0187924 -0.0572722
4 0.0341446 0 -0.167572 0.0213433 -0.0517595
4 0.0279244 -0.02 -0.11948 0.0208444 -0.024363
4 0.0279244 0.02 -0.200306 0.0151625 -0.0556266
4 0.0175277 -0.0298918 -0.0886338 0.0132304 -0.00126266
4 0.0175277 0.0298918 -0.196753 0.00857726 -0.0444948
4 0.0204118 -0.0298918 -0.0913966 0.0159626 -0.00456258
4 0.0204118 0.0298918 -0.205125 0.0100822 -0.0493372
4 0.0310063 -0.02 -0.121809 0.0230645 -0.0291981
4 0.0310063 0.02 -0.203547 0.0165082 -0.0605678
4 0.0356458 -0.00996393 -0.148079 0.0240953 -0.0461622
4 0.0356458 0.00996393 -0.189353 0.0201081 -0.0625142
4 0.0373405 0 -0.170084 0.0229967 -0.0569827
4 0.0233489 -0.0298918 -0.0937412 0.0186393 -0.00850178
4 0.0233489 0.0298918 -0.211331 0.0115352 -0.0540965
4 0.0341446 -0.02 -0.124104 0.0252342 -0.0341184
4 0.0341446 0.02 -0.2064 0.01778 -0.0657338
4 0.0263398 -0.0298918 -0.0959165 0.0212259 -0.0129117
4 0.0263398 0.0298918 -0.216057 0.0129177 -0.0588484
4 0 0.04 0 0 0
4 0 -0.04 0 0 0
4 0.00256965 0.04 -0.0806224 0.000738623 -0.0190489
4 0.00256965 -0.04 -0.0278681 0.00116927 0.00648527
4 0.0388623 -0.00996393 -0.150506 0.0261031 -0.051261
4 0.0388623 0.00996393 -0.19194 0.0214083 -0.0679072
4 0.00518642 0.04 -0.114275 0.00162923 -0.0245386
4 0.00518642 -0.04 -0.0401548 0.00268273 0.00994577
4 0.040595 0 -0.172603 0.0246899 -0.0622103
4 0.00785119 -0.04 -0.0503179 0.00483134 0.0122888
4 0.00785119 0.04 -0.143597 0.00271878 -0.0297922
4 0.0105648 -0.04 -0.0577751 0.00736049 0.0133859
4 0.0105648 0.04 -0.167295 0.00389868 -0.0352062
4 0.0293856 -0.0298918 -0.0980187 0.0237066 -0.017591
4 0.0293856 0.0298918 -0.219847 0.0142179 -0.0637072
4 0.0133283 -0.04 -0.0626713 0.0101255 0.0131432
4 0.0133283 0.04 -0.185666 0.00513677 -0.0408851
4 0.0373405 -0.02 -0.126441 0.0273971 -0.0390136
4 0.0373405 0.02 -0.209028 0.0190046 -0.0711369
4 0.0161424 -0.04 -0.065729 0.0130146 0.0116229
4 0.0161424 0.04 -0.199785 0.00644176 -0.0466353
4 0.0421378 -0.00996393 -0.152957 0.0281844 -0.056199
4 0.0421378 0.00996393 -0.194522 0.0227752 -0.0733594
4 0.0439092 0 -0.175111 0.0264606 -0.0673341
4 0.0324873 -0.0298918 -0.100132 0.0260889 -0.0223481
4 0.0324873 0.0298918 -0.223041 0.0154345 -0.0687635
4 0.0190081 0.04 -0.210649 0.00779147 -0.0522443
4 0.0190081 -0.04 -0.067774 0.0159183 0.00895341
4 0.040595 -0.02 -0.128825 0.0295937 -0.0437848
4 0.040595 0.02 -0.211507 0.0202244 -0.0767323
4 0.0219263 0.04 -0.219023 0.00916285 -0.057635
4 0.0219263 -0.04 -0.0694339 0.0187635 0.00533259
4 0.0356458 -0.0298918 -0.102335 0.0284329 -0.0270528
4 0.0356458 0.0298918 -0.225831 0.0165884 -0.0740876
4 0.0454733 -0.00996393 -0.155376 0.0303474 -0.0609013
4 0.0454733 0.00996393 -0.197075 0.0242345 -0.0787388
4 0.0248981 0.04 -0.225551 0.0105407 -0.0628598
4 0.0248981 -0.04 -0.0710613 0.0215053 0.00100696
4 0.0472842 0 -0.17757 0.0283358 -0.0722783
4 0.0439092 -0.02 -0.131203 0.0318533 -0.0483411
4 0.0439092 0.02 -0.213865 0.0214857 -0.0824108
4 0.0279244 0.04 -0.230779 0.0119099 -0.068031
4 0.0279244 -0.04 -0.0727842 0.0241258 -0.00376241
4 0.0388623 -0.0298918 -0.104625 0.0307617 -0.0316424
4 0.0388623 0.0298918 -0.22831 0.0176888 -0.0797262
4 0.00128135 0.0498197 -0.0659443 0.000218021 -0.0176698
4 0.00128135 -0.0498197 -0.014708 0.000669458 0.00836479
4 0.0488701 -0.00996393 -0.157714 0.032622 -0.0653285
4 0.0488701 0.00996393 -0.19958 0.0258303 -0.0839869
4 0.00386754 0.0498197 -0.102354 0.000801447 -0.0239479
4 0.00386754 -0.0498197 -0.0241762 0.00192508 0.0142782
4 0.00650117 -0.0498197 -0.0323395 0.0040093 0.0190658
4 0.00650117 0.0498197 -0.135444 0.00153197 -0.0295867
4 0.0310063 0.04 -0.235102 0.0132572 -0.0732588
4 0.0310063 -0.04 -0.0746197 0.0266304 -0.00871937
4 0.00918311 -0.0498197 -0.0384783 0.00662444 0.0224197
4 0.00918311 0.0498197 -0.163054 0.00243489 -0.0352747
4 0.0507211 0 -0.179976 0.0303473 -0.0770167
4 0.0119142 -0.0498197 -0.0423382 0.00951605 0.0239702
4 0.0119142 0.0498197 -0.184812 0.003411 -0.0414483
4 0.0472842 -0.02 -0.133505 0.0341966 -0.0526337
4 0.0472842 0.02 -0.216137 0.0228234 -0.0880487
4 0.0421378 -0.0298918 -0.106966 0.033129 -0.0360521
4 0.0421378 0.0298918 -0.230538 0.0187764 -0.08561
4 0.0146954 -0.0498197 -0.0443859 0.0125913 0.0237896
4 0.0146954 0.0498197 -0.20173 0.00447524 -0.0479651
4 0.0341446 0.04 -0.238767 0.0145814 -0.0786352
4 0.0341446 -0.04 -0.0765629 0.0290435 -0.0136641
4 0.0175277 -0.0498197 -0.045381 0.0156983 0.0220459
4 0.0175277 0.0498197 -0.214979 0.0056151 -0.0544119
4 0.0523291 -0.00996393 -0.16 0.0350331 -0.0695363
4 0.0523291 0.00996393 -0.202061 0.0275926 -0.0890374
4 0.0204118 0.0498197 -0.225451 0.0068294 -0.0605355
4 0.0204118 -0.0498197 -0.046048 0.0187449 0.0189609
4 0.054221 0 -0.18238 0.032514 -0.0815233
4 0.0454733 -0.0298918 -0.109256 0.0355548 -0.0401917
4 0.0454733 0.0298918 -0.232571 0.0198876 -0.0915956
4 0.0507211 -0.02 -0.135712 0.0366461 -0.0566804
4 0.0507211 0.02 -0.218397 0.0242746 -0.0935498
4 0.0373405 0.04 -0.241918 0.0158857 -0.0842334
4 0.0373405 -0.04 -0.0785832 0.0314007 -0.0184817
4 0.0233489 0.0498197 -0.233795 0.00812368 -0.0663054
4 0.0233489 -0.0498197 -0.0468428 0.021674 0.0148676
4 0.0263398 0.0498197 -0.240535 0.00948687 -0.0718523
4 0.0263398 -0.0498197 -0.0479661 0.0244562 0.0100932
4 0.0558515 -0.00996393 -0.1623 0.0375958 -0.0735537
4 0.0558515 0.00996393 -0.204603 0.0295276 -0.0937632
4 0.040595 0.04 -0.244643 0.017176 -0.0900662
4 0.040595 -0.04 -0.0806323 0.0337426 -0.0231143
4 0.0488701 -0.0298918 -0.111418 0.0380643 -0.0440657
4 0.0488701 0.0298918 -0.23454 0.0210572 -0.0975253
4 0.0577851 0 -0.184865 0.0348361 -0.0857503
4 0.054221 -0.02 -0.137881 0.0392155 -0.0605343
4 0.054221 0.02 -0.22074 0.0258655 -0.0988333
4 0.0293856 0.0498197 -0.246097 0.0109012 -0.0773133
4 0.0293856 -0.0498197 -0.0493895 0.027097 0.00497383
4 0.0439092 0.04 -0.247028 0.0184709 -0.0960567
4 0.0439092 -0.04 -0.0826428 0.0361049 -0.0275267
4 0.0324873 0.0498197 -0.25076 0.0123431 -0.0827949
4 0.0324873 -0.0498197 -0.0510336 0.0296194 -0.000202595
4 0 0.06 0 0 0
4 0 -0.06 0 0 0
4 0.00256965 0.06 -0.086156 0.0003507 -0.0212436
4 0.00256965 -0.06 -0.0112491 0.00137282 0.0177334
4 0.00518642 0.06 -0.121605 0.000863389 -0.0277729
4 0.00518642 -0.06 -0.0165816 0.00310299 0.0250274
4 0.0523291 -0.0298918 -0.113471 0.0406686 -0.047715
4 0.0523291 0.0298918 -0.236606 0.0223259 -0.103296
4 0.0594386 -0.00996393 -0.164743 0.0402969 -0.0773463
4 0.0594386 0.00996393 -0.207255 0.0316288 -0.0981012
4 0.00785119 0.06 -0.15283 0.00154618 -0.0341538
4 0.00785119 -0.06 -0.0206693 0.00549354 0.0306531
4 0.0105648 0.06 -0.178693 0.00239445 -0.0408272
4 0.0105648 -0.06 -0.0232214 0.00823645 0.0341504
4 0.0577851 -0.02 -0.140118 0.0419034 -0.0642334
4 0.0577851 0.02 -0.22324 0.0276109 -0.103826
4 0.0356458 0.0498197 -0.254704 0.0138113 -0.0883991
4 0.0356458 -0.0498197 -0.0527998 0.0320285 -0.00525183
4 0.0614146 0 -0.187499 0.0373037 -0.0896719
4 0.0133283 0.06 -0.199438 0.00335083 -0.0478402
4 0.0133283 -0.06 -0.0244519 0.0111568 0.0354166
4 0.0472842 0.04 -0.249187 0.0197918 -0.102072
4 0.0472842 -0.04 -0.0845449 0.0385085 -0.0317224
4 0.0161424 0.06 -0.215954 0.00439574 -0.0549482
4 0.0161424 -0.06 -0.0249114 0.0141567 0.0347118
4 0.0190081 0.06 -0.22913 0.00551448 -0.0618657
4 0.0190081 -0.06 -0.0251522 0.0171275 0.0323596
4 0.0388623 0.0498197 -0.258032 0.0152884 -0.0941958
4 0.0388623 -0.0498197 -0.0545913 0.0343773 -0.0100994
4 0.0558515 -0.0298918 -0.115526 0.0433732 -0.0512188
4 0.0558515 0.0298918 -0.23888 0.0237207 -0.108878
4 0.0630915 -0.00996393 -0.167414 0.0431223 -0.0809139
4 0.0630915 0.00996393 -0.21002 0.0338893 -0.102047
4 0.0219263 0.06 -0.239676 0.00671123 -0.0684465
4 0.0219263 -0.06 -0.0255648 0.0200166 0.0286796
4 0.0614146 -0.02 -0.14253 0.0446948 -0.0677966
4 0.0614146 0.02 -0.225916 0.0295185 -0.108468
4 0.0507211 0.04 -0.251276 0.0211672 -0.107999
4 0.0507211 -0.04 -0.0863377 0.0409598 -0.0357432
4 0.0248981 0.06 -0.248138 0.00798864 -0.0747071
4 0.0248981 -0.06 -0.0263303 0.0227963 0.0240202
4 0.0651106 0 -0.190301 0.0398989 -0.0933047
4 0.0421378 0.0498197 -0.26085 0.0167663 -0.100185
4 0.0421378 -0.0498197 -0.056354 0.0366988 -0.0147234
4 0.0279244 0.06 -0.254969 0.00933839 -0.0807567
4 0.0279244 -0.06 -0.0274525 0.0254601 0.0187693
4 0.0594386 -0.0298918 -0.117696 0.0461655 -0.0546569
4 0.0594386 0.0298918 -0.241407 0.0252745 -0.114192
4 0.054221 0.04 -0.253444 0.0226242 -0.113785
4 0.054221 -0.04 -0.0881184 0.0434604 -0.0396389
4 0.0454733 0.0498197 -0.263269 0.0182506 -0.106272
4 0.0454733 -0.0498197 -0.0580127 0.039029 -0.0191598
4 0.0310063 0.06 -0.260554 0.0107505 -0.0867142
4 0.0310063 -0.06 -0.0288229 0.0280019 0.0133097
4 0.0668113 -0.00996393 -0.170308 0.0460363 -0.084272
4 0.0668113 0.00996393 -0.212891 0.0362918 -0.105659
4 0.0651106 -0.02 -0.145159 0.0475646 -0.0712433
4 0.0651106 0.02 -0.228735 0.0315866 -0.112736
4 0.0688745 0 -0.193232 0.0425998 -0.0966523
4 0.0341446 0.06 -0.265203 0.0122236 -0.0926782
4 0.0341446 -0.06 -0.0302896 0.0304349 0.00793635
4 0.00128135 0.0697475 -0.0693148 2.9322e-05 -0.0181057
4 0.00128135 -0.0697475 -0.00205526 0.000753909 0.0189081
4 0.0488701 0.0498197 -0.265451 0.0197518 -0.112321
4 0.0488701 -0.0498197 -0.0595392 0.041372 -0.0234644
4 0.0630915 -0.0298918 -0.120075 0.0490243 -0.0580645
4 0.0630915 0.0298918 -0.244164 0.0269972 -0.119139
4 0.00386754 0.0697475 -0.107085 0.000344657 -0.0253373
4 0.00386754 -0.0697475 -0.00432036 0.00215403 0.0289073
4 0.00650117 0.0697475 -0.141655 0.00075345 -0.0322728
4 0.00650117 -0.0697475 -0.00591162 0.00435457 0.0372517
4 0.0577851 0.04 -0.255772 0.0241814 -0.119379
4 0.0577851 -0.04 -0.0900079 0.0460074 -0.0434476
4 0.00918311 0.0697475 -0.171263 0.00142475 -0.039493
4 0.00918311 -0.0697475 -0.00650448 0.00703555 0.0431902
4 0.0373405 0.06 -0.26913 0.0137506 -0.0987073
4 0.0373405 -0.06 -0.0317059 0.0327728 0.00281408
4 0.0119142 0.0697475 -0.195649 0.00224855 -0.0470633
4 0.0119142 -0.0697475 -0.00620362 0.00984224 0.0463087
4 0.0146954 0.0697475 -0.215434 0.00318924 -0.0548142
4 0.0146954 -0.0697475 -0.0055369 0.0127767 0.0469005
4 0.0705994 -0.00996393 -0.173316 0.0490001 -0.0873917
4 0.0705994 0.00996393 -0.215836 0.038837 -0.108912
4 0.0688745 -0.02 -0.147951 0.0504829 -0.0745615
4 0.0688745 0.02 -0.231632 0.0338167 -0.116623
4 0.0175277 0.0697475 -0.231403 0.00420352 -0.0624856
4 0.0175277 -0.0697475 -0.00495636 0.0156903 0.0454562
4 0.0523291 0.0498197 -0.267575 0.0212986 -0.118276
4 0.0523291 -0.0498197 -0.0610116 0.0437156 -0.0276928
4 0.040595 0.06 -0.272486 0.015321 -0.104816
4 0.040595 -0.06 -0.0329771 0.0350361 -0.00203512
4 0.0204118 0.0697475 -0.244285 0.0052903 -0.069856
4 0.0204118 -0.0697475 -0.00475048 0.018538 0.042376
4 0.0727073 0 -0.196159 0.0453893 -0.0996872
4 0.0668113 -0.0298918 -0.122658 0.0519172 -0.0614709
4 0.0668113 0.0298918 -0.247045 0.0288943 -0.123671
4 0.0614146 0.04 -0.25828 0.0258479 -0.124706
4 0.0614146 -0.04 -0.0920723 0.0485873 -0.0471905
4 0.0233489 0.0697475 -0.254657 0.00646382 -0.0768464
4 0.0233489 -0.0697475 -0.00503619 0.0213004 0.0379776
4 0.0439092 0.06 -0.2754 0.0169334 -0.110984
4 0.0439092 -0.06 -0.0340662 0.0372619 -0.00671584
4 0.0263398 0.0697475 -0.262951 0.00772765 -0.0835072
4 0.0263398 -0.0697475 -0.00578552 0.0239691 0.0326748
4 0.0558515 -0.0498197 -0.0626061 0.046064 -0.0318647
4 0.0558515 0.0498197 -0.269777 0.0229029 -0.124111
4 0.074457 -0.00996393 -0.176236 0.052005 -0.0902244
4 0.074457 0.00996393 -0.218669 0.0415015 -0.111802
4 0.0727073 -0.02 -0.150787 0.0534199 -0.0777077
4 0.0727073 0.02 -0.234493 0.0362109 -0.120106
4 0.0293856 0.0697475 -0.269592 0.00907506 -0.0899614
4 0.0293856 -0.0697475 -0.00688129 0.0265468 0.0269383
4 0.0472842 0.06 -0.278005 0.0185911 -0.117136
4 0.0472842 -0.06 -0.0349981 0.0394727 -0.0113548
4 0.0651106 0.04 -0.260931 0.0276226 -0.129694
4 0.0651106 -0.04 -0.0943344 0.0511856 -0.0509022
4 0.0766105 0 -0.198899 0.0482457 -0.102407
4 0.0705994 -0.0298918 -0.125347 0.0548293 -0.0648157
4 0.0705994 0.0298918 -0.249935 0.0309818 -0.127778
4 0.0324873 0.0697475 -0.274997 0.0105133 -0.0963254
4 0.0324873 -0.0697475 -0.00811935 0.0289788 0.0212021
4 0.0594386 0.0498197 -0.272098 0.0245679 -0.129754
4 0.0594386 -0.0498197 -0.0643958 0.0484078 -0.035955
4 0.0356458 0.0697475 -0.279526 0.0120522 -0.102671
4 0.0356458 -0.0697475 -0.00927539 0.0313406 0.0157376
4 0.0507211 0.06 -0.280449 0.0203079 -0.123184
4 0.0507211 -0.06 -0.0358857 0.0416855 -0.0160047
4 0.0783853 -0.00996393 -0.178904 0.0550126 -0.092768
4 0.0783853 0.00996393 -0.2212 0.0442669 -0.114377
4 0.0766105 -0.02 -0.153554 0.0563533 -0.0806662
4 0.0766105 0.02 -0.237168 0.0387586 -0.12318
4 0.0688745 -0.04 -0.0967686 0.0537953 -0.054593
4 0.0688745 0.04 -0.263662 0.0295102 -0.134286
4 0.0388623 0.0697475 -0.283398 0.0136718 -0.108988
4 0.0388623 -0.0697475 -0.0101801 0.0335531 0.0106656
4 0 0.08 0 0 0
4 0 -0.08 0 0 0
4 0.00256965 0.08 -0.0893997 0.000305138 -0.0214874
4 0.00256965 -0.08 0.0039011 0.00133912 0.0297088
4 0.00518642 0.08 -0.126487 0.00081853 -0.0291518
4 0.00518642 -0.08 0.00498293 0.00292873 0.0405874
4 0.074457 -0.0298918 -0.128081 0.0577033 -0.0680653
4 0.074457 0.0298918 -0.252719 0.0332718 -0.131412
4 0.00785119 0.08 -0.159822 0.00156838 -0.036991
4 0.00785119 -0.08 0.00660055 0.00503012 0.0488455
4 0.0630915 0.0498197 -0.274536 0.0262831 -0.135141
4 0.0630915 -0.0498197 -0.0663564 0.0507357 -0.0399579
4 0.0805853 0 -0.201347 0.0511374 -0.104863
4 0.0105648 0.08 -0.188321 0.00251572 -0.0452557
4 0.0105648 -0.08 0.0086527 0.0073169 0.0540235
4 0.054221 0.06 -0.282857 0.0220987 -0.129045
4 0.054221 -0.06 -0.0368909 0.0439086 -0.0206497
4 0.0133283 0.08 -0.211955 0.00359691 -0.0538148
4 0.0133283 -0.08 0.0107501 0.00966647 0.0563341
4 0.0421378 0.0697475 -0.286784 0.0153738 -0.115276
4 0.0421378 -0.0697475 -0.0107776 0.0356953 0.00585219
4 0.0161424 0.08 -0.23123 0.00476872 -0.0623833
4 0.0161424 -0.08 0.0124671 0.0120477 0.0563422
4 0.0190081 0.08 -0.246769 0.00599772 -0.0706903
4 0.0190081 -0.08 0.0135751 0.0144238 0.0545557
4 0.0219263 0.08 -0.259173 0.00728033 -0.0785722
4 0.0219263 -0.08 0.0140239 0.0168035 0.05132
4 0.0727073 -0.04 -0.0993346 0.0564099 -0.0582099
4 0.0727073 0.04 -0.266384 0.0315219 -0.138421
4 0.0823856 -0.00996393 -0.18129 0.0579858 -0.0951137
4 0.0823856 0.00996393 -0.223398 0.047101 -0.116702
4 0.0805853 -0.02 -0.156198 0.0592628 -0.08346
4 0.0805853 0.02 -0.239559 0.0414383 -0.12587
4 0.0454733 0.0697475 -0.289809 0.0171524 -0.121544
4 0.0454733 -0.0697475 -0.0111145 0.0377716 0.00103217
4 0.0577851 0.06 -0.2853 0.0239565 -0.134642
4 0.0577851 -0.06 -0.0381156 0.0461432 -0.0252335
4 0.0668113 -0.0498197 -0.068514 0.053051 -0.0439504
4 0.0668113 0.0498197 -0.277081 0.0280397 -0.140201
4 0.0248981 0.08 -0.268978 0.00862477 -0.0860111
4 0.0248981 -0.08 0.0138754 0.019205 0.0469378
4 0.0783853 -0.0298918 -0.130835 0.0605559 -0.0712419
4 0.0783853 0.0298918 -0.255277 0.0357491 -0.134555
4 0.0846329 0 -0.203502 0.0540339 -0.107088
4 0.0279244 0.08 -0.276672 0.0100362 -0.0931073
4 0.0279244 -0.08 0.0132773 0.021641 0.0418047
4 0.0488701 0.0697475 -0.292602 0.0190101 -0.127722
4 0.0488701 -0.0697475 -0.0113524 0.039832 -0.00393416
4 0.0310063 0.08 -0.282752 0.0115154 -0.0999964
4 0.0310063 -0.08 0.012432 0.0240984 0.036346
4 0.0614146 0.06 -0.287789 0.0258627 -0.139918
4 0.0614146 -0.06 -0.0395724 0.0483855 -0.029698
4 0.0705994 -0.0498197 -0.0708479 0.0553684 -0.0479269
4 0.0705994 0.0498197 -0.279704 0.0298432 -0.144833
4 0.0766105 -0.04 -0.10201 0.0590459 -0.0616749
4 0.0766105 0.04 -0.268987 0.0336681 -0.142055
4 0.0846329 -0.02 -0.158703 0.0621482 -0.0860696
4 0.0846329 0.02 -0.241655 0.0442214 -0.128215
4 0.0341446 0.08 -0.287704 0.0130697 -0.106763
4 0.0341446 -0.08 0.0115529 0.0265715 0.0309041
4 0.0864594 -0.00996393 -0.183448 0.060894 -0.0972401
4 0.0864594 0.00996393 -0.225264 0.0499806 -0.118776
4 0.0523291 0.0697475 -0.295281 0.02096 -0.133706
4 0.0523291 -0.0697475 -0.0117251 0.0419077 -0.00900072
4 0.0823856 -0.0298918 -0.133606 0.0633667 -0.0743228
4 0.0823856 0.0298918 -0.257559 0.0383935 -0.137225
4 0.0373405 0.08 -0.291938 0.0147051 -0.113425
4 0.0373405 -0.08 0.0108481 0.0290307 0.0256589
4 0.0651106 0.06 -0.290313 0.0277857 -0.14486
4 0.0651106 -0.06 -0.0412585 0.0506382 -0.0340159
4 0.0887548 0 -0.205384 0.0569238 -0.109055
4 0.0558515 0.0697475 -0.297925 0.0230082 -0.139361
4 0.0558515 -0.0697475 -0.0123785 0.0440107 -0.0140766
4 0.074457 -0.0498197 -0.0733826 0.0577176 -0.0517746
4 0.074457 0.0498197 -0.282309 0.0317043 -0.148956
4 0.00128135 0.0896754 -0.0709981 0.000173033 -0.0172066
4 0.00128135 -0.0896754 0.008915 0.000693198 0.0283172
4 0.040595 0.08 -0.295752 0.0164304 -0.119987
4 0.040595 -0.08 0.0104638 0.0314494 0.0206093
4 0.00386754 0.0896754 -0.110339 0.000647178 -0.0253615
4 0.00386754 -0.0896754 0.01277 0.00178519 0.0422314
4 0.00650117 0.0896754 -0.147061 0.001477 -0.0336556
4 0.00650117 -0.0896754 0.0169582 0.00349677 0.0533998
4 0.0805853 -0.04 -0.104754 0.0617245 -0.0649062
4 0.0805853 0.04 -0.271399 0.0359531 -0.145189
4 0.00918311 0.0896754 -0.17948 0.00253452 -0.0425168
4 0.00918311 -0.0896754 0.0213077 0.00536913 0.0609568
4 0.0119142 0.0896754 -0.206962 0.00374015 -0.0518829
4 0.0119142 -0.0896754 0.0253942 0.00722545 0.0650815
4 0.0146954 0.0896754 -0.229698 0.00506085 -0.061393
4 0.0146954 -0.0896754 0.0287216 0.009098 0.0665381
4 0.0887548 -0.02 -0.161046 0.0650139 -0.0883919
4 0.0887548 0.02 -0.243493 0.0470876 -0.130258
4 0.0906078 -0.00996393 -0.185383 0.0637469 -0.0990299
4 0.0906078 0.00996393 -0.22682 0.0529047 -0.120622
4 0.0439092 0.08 -0.299306 0.0182538 -0.126474
4 0.0439092 -0.08 0.0104021 0.0338325 0.0156474
4 0.0688745 0.06 -0.29285 0.029692 -0.149463
4 0.0688745 -0.06 -0.0431799 0.0529181 -0.0381523
4 0.0175277 0.0896754 -0.248139 0.00643583 -0.0706898
4 0.0175277 -0.0896754 0.0310563 0.0109715 0.0660123
4 0.0864594 -0.0298918 -0.136314 0.0662239 -0.0771807
4 0.0864594 0.0298918 -0.259603 0.0411672 -0.139491
4 0.0594386 0.0697475 -0.300554 0.0251054 -0.144605
4 0.0594386 -0.0697475 -0.0133112 0.0461389 -0.0190348
4 0.0204118 0.0896754 -0.262834 0.00783817 -0.0795227
4 0.0204118 -0.0896754 0.0324383 0.0129015 0.0639465
4 0.0233489 0.0896754 -0.274356 0.00926902 -0.0877911
4 0.0233489 -0.0896754 0.0330114 0.0149287 0.0605603
4 0.0783853 -0.0498197 -0.0760862 0.0601772 -0.0553087
4 0.0783853 0.0498197 -0.284789 0.0336569 -0.152548
4 0.0472842 0.08 -0.302648 0.0201712 -0.132871
4 0.0472842 -0.08 0.0105203 0.0361945 0.0106454
4 0.0929523 0 -0.207032 0.0598208 -0.110766
4 0.0263398 0.0896754 -0.283267 0.0107442 -0.0955569
4 0.0263398 -0.0896754 0.0329557 0.0171082 0.0561188
4 0.0846329 0.04 -0.273619 0.0383715 -0.147853
4 0.0846329 -0.04 -0.107502 0.0644635 -0.0678129
4 0.0630915 0.0697475 -0.303148 0.027235 -0.149423
4 0.0630915 -0.0697475 -0.0145157 0.0482985 -0.0238007
4 0.0727073 0.06 -0.295359 0.0315715 -0.153703
4 0.0727073 -0.06 -0.0453277 0.0552559 -0.042023
4 0.0293856 0.0896754 -0.290107 0.0122737 -0.10299
4 0.0293856 -0.0896754 0.0325322 0.0194401 0.0510578
4 0.0507211 0.08 -0.305801 0.0221794 -0.139081
4 0.0507211 -0.08 0.0105941 0.0385704 0.00554238
4 0.0929523 -0.02 -0.163194 0.067866 -0.0903535
4 0.0929523 0.02 -0.245149 0.050025 -0.132034
4 0.0948324 -0.00996393 -0.187093 0.0665804 -0.100581
4 0.0948324 0.00996393 -0.2282 0.0558837 -0.122245
4 0.0324873 0.0896754 -0.295476 0.0138512 -0.110227
4 0.0324873 -0.0896754 0.0319674 0.0219201 0.0457355
4 0.0906078 -0.0298918 -0.138877 0.0690782 -0.0796715
4 0.0906078 0.0298918 -0.261491 0.0440525 -0.141436
4 0.0823856 -0.0498197 -0.0788532 0.0627583 -0.0583901
4 0.0823856 0.0498197 -0.287127 0.0357214 -0.155629
4 0.0356458 0.0896754 -0.299943 0.0154963 -0.117285
4 0.0356458 -0.0896754 0.0314645 0.0245084 0.0404628
4 0.0668113 0.0697475 -0.305678 0.029308 -0.153908
4 0.0668113 -0.0697475 -0.0159862 0.050499 -0.0282708
4 0.054221 0.08 -0.308795 0.0242651 -0.14495
4 0.054221 -0.08 0.010444 0.0409844 0.000381219
4 0.0972268 0 -0.208518 0.0627367 -0.11224
4 0.0766105 0.06 -0.297774 0.0334351 -0.157554
4 0.0766105 -0.06 -0.0476721 0.057687 -0.0455234
4 0.0887548 0.04 -0.275699 0.0409058 -0.150092
4 0.0887548 -0.04 -0.110189 0.0672625 -0.0703182
4 0.0388623 0.0896754 -0.304005 0.0172218 -0.124156
4 0.0388623 -0.0896754 0.031263 0.0271326 0.0352651
4 0.0577851 0.08 -0.311624 0.0263932 -0.150341
4 0.0577851 -0.08 0.0100287 0.0434458 -0.0046984
4 0.0421378 0.0896754 -0.307946 0.0190681 -0.130879
4 0.0421378 -0.0896754 0.0314781 0.0297642 0.0301346
4 0.0705994 0.0697475 -0.308128 0.031283 -0.158126
4 0.0705994 -0.0697475 -0.0177527 0.0527765 -0.0323387
4 0.0972268 -0.02 -0.165139 0.0707232 -0.0919579
4 0.0972268 0.02 -0.246694 0.0530125 -0.133535
4 0.0948324 -0.0298918 -0.141252 0.0719552 -0.0816646
4 0.0948324 0.0298918 -0.263298 0.0470133 -0.143091
4 0.0991344 -0.00996393 -0.188651 0.06941 -0.10192
4 0.0991344 0.00996393 -0.229488 0.0589049 -0.123597
4 0.0864594 0.0498197 -0.289348 0.0379139 -0.158225
4 0.0864594 -0.0498197 -0.0816064 0.0654553 -0.0609456
4 0 0.1 0 0 0
4 0 -0.1 0 0 0
4 0.00256965 0.1 -0.0908341 0.000685131 -0.0230618
4 0.00256965 -0.1 0.0179759 0.0011138 0.0399209
4 0.00518642 0.1 -0.129556 0.00170857 -0.0320189
4 0.00518642 -0.1 0.0245549 0.00232655 0.0532829
4 0.00785119 0.1 -0.165175 0.00312897 -0.0412321
4 0.00785119 -0.1 0.0310592 0.00382702 0.0629944
4 0.0805853 0.06 -0.300054 0.0353042 -0.160993
4 0.0805853 -0.06 -0.0501536 0.0602191 -0.0485966
4 0.0454733 0.0896754 -0.311816 0.0210281 -0.137504
4 0.0454733 -0.0896754 0.0319782 0.032374 0.0250531
4 0.0105648 0.1 -0.196464 0.00474673 -0.0508972
4 0.0105648 -0.1 0.0371376 0.00538246 0.0690938
4 0.0614146 0.08 -0.314245 0.0285202 -0.155201
4 0.0614146 -0.08 0.00936797 0.0459547 -0.00955324
4 0.0133283 0.1 -0.222936 0.00647846 -0.0608547
4 0.0133283 -0.1 0.0424244 0.00692643 0.0722997
4 0.0929523 0.04 -0.277696 0.0435282 -0.15194
4 0.0929523 -0.04 -0.112769 0.070097 -0.0723682
4 0.0161424 0.1 -0.244718 0.00825252 -0.07079
4 0.0161424 -0.1 0.046668 0.00848534 0.0734092
4 0.10158 0 -0.209893 0.0656646 -0.113461
4 0.0190081 0.1 -0.262243 0.0100119 -0.0804278
4 0.0190081 -0.1 0.0498227 0.0100826 0.072974
4 0.074457 0.0697475 -0.310477 0.033146 -0.162101
4 0.074457 -0.0697475 -0.0197475 0.0551687 -0.0358897
4 0.0488701 0.0896754 -0.315496 0.0230948 -0.143978
4 0.0488701 -0.0896754 0.0325217 0.0350012 0.0199383
4 0.0219263 0.1 -0.276088 0.0117385 -0.0895846
4 0.0219263 -0.1 0.0519571 0.0117709 0.0712764
4 0.0248981 0.1 -0.286871 0.0134439 -0.0981879
4 0.0248981 -0.1 0.0532019 0.0136173 0.0685146
4 0.0651106 0.08 -0.316626 0.0305865 -0.159582
4 0.0651106 -0.08 0.00847683 0.0485152 -0.0141071
4 0.0906078 0.0498197 -0.291513 0.0402048 -0.16034
4 0.0906078 -0.0498197 -0.0843313 0.0682357 -0.0630185
4 0.10158 -0.02 -0.166912 0.073583 -0.093239
4 0.10158 0.02 -0.248129 0.0560168 -0.134696
4 0.0991344 0.0298918 -0.265004 0.0500052 -0.144432
4 0.0991344 -0.0298918 -0.143378 0.0748538 -0.0831687
4 0.0846329 0.06 -0.302214 0.0372019 -0.163992
4 0.0846329 -0.06 -0.0527057 0.0628393 -0.0512527
4 0.0279244 0.1 -0.295206 0.0151457 -0.10628
4 0.0279244 -0.1 0.0537629 0.0156715 0.0649357
4 0.0523291 0.0896754 -0.318959 0.0252461 -0.150137
4 0.0523291 -0.0896754 0.0328541 0.0376728 0.0147226
4 0.103515 -0.00996393 -0.190107 0.0722367 -0.103062
4 0.103515 0.00996393 -0.23067 0.0619392 -0.124603
4 0.0310063 0.1 -0.301711 0.0168546 -0.113979
4 0.0310063 -0.1 0.0538975 0.0179579 0.060814
4 0.0783853 0.0697475 -0.312684 0.0349119 -0.165801
4 0.0783853 -0.0697475 -0.0219209 0.0576716 -0.0389124
4 0.0972268 -0.04 -0.11519 0.0729553 -0.0739606
4 0.0972268 0.04 -0.279613 0.0462046 -0.153409
4 0.0688745 0.08 -0.318776 0.0325256 -0.163601
4 0.0688745 -0.08 0.00736239 0.0511331 -0.0183195
4 0.0558515 0.0896754 -0.322155 0.0274312 -0.155778
4 0.0558515 -0.0896754 0.0329124 0.0404184 0.00950219
4 0.0341446 0.1 -0.306983 0.0185854 -0.121401
4 0.0341446 -0.1 0.0538721 0.020463 0.0563915
4 0.106012 0 -0.211105 0.0685646 -0.11443
4 0.0373405 0.1 -0.31154 0.020359 -0.128614
4 0.0373405 -0.1 0.0539614 0.0231251 0.0517979
4 0.0948324 0.0498197 -0.293635 0.042567 -0.161983
4 0.0948324 -0.0498197 -0.0869803 0.0710583 -0.0646262
4 0.0887548 0.06 -0.30429 0.0391358 -0.166514
4 0.0887548 -0.06 -0.0553048 0.0655143 -0.0535264
4 0.0594386 0.0896754 -0.325008 0.0296041 -0.160774
4 0.0594386 -0.0896754 0.0327537 0.0432363 0.00451165
4 0.103515 -0.0298918 -0.145301 0.0777481 -0.0842583
4 0.103515 0.0298918 -0.266552 0.052982 -0.145351
4 0.106012 -0.02 -0.168514 0.0764077 -0.094252
4 0.106012 0.02 -0.249367 0.0590012 -0.135464
4 0.040595 0.1 -0.315743 0.0221961 -0.135657
4 0.040595 -0.1 0.054374 0.0258831 0.0470686
4 0.0823856 0.0697475 -0.314757 0.0365993 -0.169165
4 0.0823856 -0.0697475 -0.0242196 0.0602321 -0.041504
4 0.0727073 0.08 -0.320721 0.0342961 -0.167348
4 0.0727073 -0.08 0.00603745 0.0538064 -0.0221451
4 0.107977 -0.00996393 -0.191394 0.074996 -0.104045
4 0.107977 0.00996393 -0.231549 0.0649202 -0.12529
4 0.10158 -0.04 -0.117427 0.0758137 -0.0751823
4 0.10158 0.04 -0.281396 0.0488998 -0.154472
4 0.0439092 0.1 -0.319755 0.0241053 -0.142555
4 0.0439092 -0.1 0.0551312 0.0286892 0.0422311
4 0.00128135 0.109603 -0.0708607 0.000441249 -0.0199661
4 0.00128135 -0.109603 0.0203232 0.000552688 0.0362822
4 0.0630915 0.0896754 -0.327423 0.0317025 -0.165133
4 0.0630915 -0.0896754 0.0323906 0.046124 -0.000121386
4 0.00386754 0.109603 -0.111363 0.00145185 -0.0296415
4 0.00386754 -0.109603 0.0294535 0.0014792 0.0524832
4 0.00650117 0.109603 -0.149785 0.00319578 -0.0392902
4 0.00650117 -0.109603 0.0384644 0.00266356 0.064655
4 0.00918311 -0.109603 0.0468462 0.00397769 0.0726682
4 0.00918311 0.109603 -0.184703 0.00520522 -0.0492909
4 0.0119142 0.109603 -0.214961 0.00736198 -0.0596878
4 0.0119142 -0.109603 0.0543133 0.00523117 0.07745
4 0.110526 0 -0.212028 0.0713706 -0.115234
4 0.0146954 0.109603 -0.240232 0.0095598 -0.070217
4 0.0146954 -0.109603 0.0606028 0.00649192 0.079974
4 0.0472842 0.1 -0.323572 0.0260706 -0.149262
4 0.0472842 -0.1 0.0560851 0.0315235 0.0372984
4 0.0929523 0.06 -0.306306 0.0410975 -0.168547
4 0.0929523 -0.06 -0.0579272 0.068198 -0.0554259
4 0.0766105 0.08 -0.322483 0.0358913 -0.170848
4 0.0766105 -0.08 0.00450785 0.056506 -0.0255654
4 0.0991344 0.0498197 -0.295659 0.044971 -0.163197
4 0.0991344 -0.0498197 -0.0894963 0.0738928 -0.0658497
4 0.0175277 0.109603 -0.260735 0.0117133 -0.0805917
4 0.0175277 -0.109603 0.0656841 0.00777695 0.0809899
4 0.0864594 0.0697475 -0.316741 0.0382463 -0.172099
4 0.0864594 -0.0697475 -0.026617 0.0628473 -0.0438208