# wallShearStress  FACE_DATA 60650
# x  y  z  wallShearStress_x  wallShearStress_y  wallShearStress_z
8.75721 0 0.345731 0.000984762 -8.03387e-06 0.002538
8.72516 0 0.336919 0.000964836 -8.8117e-06 0.00242116
8.69439 0 0.328456 0.000929923 -9.93838e-06 0.00229342
8.66483 0 0.320329 0.000886842 -1.04974e-05 0.00216218
8.63646 0 0.312526 0.00084657 -9.95631e-06 0.00203465
8.6092 0 0.305031 0.00080287 -9.81336e-06 0.00190608
8.58303 0 0.297833 0.000749066 -9.77855e-06 0.00177955
8.82531 0 0.430728 0.000965443 -4.75717e-06 0.00303718
8.79057 0 0.419435 0.00100253 -7.59219e-06 0.0029283
8.75721 0 0.408591 0.00100515 -5.66322e-06 0.00282557
8.72516 0 0.398176 0.00100219 -6.81989e-06 0.0027029
8.69439 0 0.388175 0.000982088 -7.41608e-06 0.0025764
8.66483 0 0.378571 0.000956522 -7.48545e-06 0.00244308
8.63646 0 0.369348 0.000925662 -8.22838e-06 0.00230349
8.6092 0 0.360491 0.000886871 -8.42161e-06 0.00216587
8.58303 0 0.351985 0.00084204 -8.58508e-06 0.00202852
8.5579 0 0.343817 0.000789903 -9.30781e-06 0.00189316
8.53376 0 0.335973 0.000735674 -9.01108e-06 0.00176122
8.51058 0 0.32844 0.000682139 -9.02776e-06 0.00163299
8.9384 0 0.539403 0.00074739 -9.41609e-06 0.00322508
8.89917 0 0.52469 0.000735952 1.5535e-06 0.00333068
8.8615 0 0.510562 0.00088519 -8.85231e-06 0.00323935
8.82531 0 0.496994 0.000919002 -3.42734e-06 0.00322526
8.79057 0 0.483964 0.000989181 -7.59561e-06 0.00313841
8.75721 0 0.471451 0.00101336 -5.69581e-06 0.00305624
8.72516 0 0.459434 0.00103167 -6.03755e-06 0.00295008
8.69439 0 0.447895 0.00103304 -6.01716e-06 0.00283441
8.66483 0 0.436813 0.00102641 -6.59838e-06 0.00270568
8.63646 0 0.426171 0.00100637 -7.34391e-06 0.00256853
8.6092 0 0.415951 0.000978033 -7.40603e-06 0.00242844
8.58303 0 0.406136 0.000941788 -8.00402e-06 0.002284
8.5579 0 0.396712 0.00089879 -7.99064e-06 0.00214066
8.53376 0 0.387661 0.000851781 -8.66198e-06 0.00199658
8.51058 0 0.378969 0.000800633 -8.84628e-06 0.00185642
8.48833 0 0.370622 0.000743127 -9.35405e-06 0.00171864
8.46695 0 0.362605 0.00068043 -9.52504e-06 0.00158563
8.9384 0 0.611323 0.000607203 -1.00939e-05 0.00312229
8.89917 0 0.594649 0.000611244 5.05138e-06 0.00329172
8.8615 0 0.578636 0.000794401 -7.78652e-06 0.00326362
8.82531 0 0.563259 0.000849255 -3.07847e-06 0.00330088
8.79057 0 0.548492 0.00094675 -7.58552e-06 0.00325587
8.75721 0 0.534311 0.000998302 -6.61949e-06 0.00320965
8.72516 0 0.520692 0.00104542 -6.31256e-06 0.00313365
8.69439 0 0.507614 0.00106829 -5.26912e-06 0.00303934
8.66483 0 0.495055 0.00107922 -5.99729e-06 0.00293039
8.63646 0 0.482994 0.00107795 -6.60752e-06 0.00280786
8.6092 0 0.471411 0.0010674 -6.6188e-06 0.00267681
8.58303 0 0.460288 0.00104464 -7.37602e-06 0.00253535
8.5579 0 0.449607 0.00101139 -7.69377e-06 0.00239035
8.53376 0 0.439349 0.000970836 -8.22011e-06 0.00224278
8.51058 0 0.429498 0.000924906 -8.29217e-06 0.00209563
8.48833 0 0.420038 0.000873981 -8.79241e-06 0.00194922
8.46695 0 0.410953 0.000817074 -9.24401e-06 0.00180442
8.44642 0 0.402229 0.00075451 -9.76198e-06 0.00166297
8.42671 0 0.393851 0.000691398 -1.03217e-05 0.0015247
8.9384 0 0.683243 0.000434218 -9.47241e-06 0.00284155
8.89917 0 0.664607 0.000458879 9.87056e-06 0.00306162
8.8615 0 0.646711 0.00067273 -4.46327e-06 0.00312165
8.82531 0 0.629525 0.000753836 -2.54717e-06 0.00321903
8.79057 0 0.613021 0.000881124 -6.07972e-06 0.00324693
8.75721 0 0.597171 0.000962822 -5.86538e-06 0.003259
8.72516 0 0.58195 0.00103742 -7.08385e-06 0.00322875
8.69439 0 0.567333 0.0010857 -6.8364e-06 0.00317436
8.66483 0 0.553296 0.00111844 -5.5131e-06 0.00309716
8.63646 0 0.539816 0.00113704 -5.791e-06 0.00299915
8.6092 0 0.526871 0.00114255 -6.08981e-06 0.00288792
8.58303 0 0.51444 0.00113571 -6.84225e-06 0.00276209
8.5579 0 0.502501 0.00111878 -6.72567e-06 0.00262851
8.53376 0 0.491037 0.00109197 -7.50555e-06 0.00248595
8.51058 0 0.480027 0.00105568 -7.91522e-06 0.00233884
8.48833 0 0.469454 0.00101123 -8.50151e-06 0.00218923
8.46695 0 0.4593 0.00096053 -8.76181e-06 0.00204023
8.44642 0 0.44955 0.000905631 -9.21147e-06 0.00189133
8.42671 0 0.440186 0.000843341 -9.59601e-06 0.00174401
8.40778 0 0.431194 0.000776158 -1.03476e-05 0.00159999
8.38959 0 0.422558 0.000703601 -1.10083e-05 0.0014569
8.9384 0 0.755163 0.00026423 -7.76993e-06 0.00240526
8.89917 0 0.734566 0.000308374 1.05353e-05 0.00265915
8.8615 0 0.714786 0.000536352 -1.64587e-06 0.00279617
8.82531 0 0.69579 0.00064247 4.58349e-07 0.0029533
8.79057 0 0.677549 0.000785888 -5.2894e-06 0.00305085
8.75721 0 0.660031 0.000891492 -4.16564e-06 0.00313603
8.72516 0 0.643208 0.000994993 -5.29065e-06 0.00317898
8.69439 0 0.627053 0.00107513 -6.39358e-06 0.0031919
8.66483 0 0.611538 0.00113714 -5.8313e-06 0.00316845
8.63646 0 0.596639 0.00117704 -5.44061e-06 0.00311459
8.6092 0 0.582331 0.00120283 -5.06264e-06 0.0030369
8.58303 0 0.568591 0.00121521 -5.65942e-06 0.00294029
8.5579 0 0.555397 0.00121576 -5.71903e-06 0.0028289
8.53376 0 0.542725 0.00120181 -6.76624e-06 0.00270263
8.51058 0 0.530556 0.00117723 -7.04829e-06 0.00256793
8.48833 0 0.518871 0.00114497 -7.68651e-06 0.00242613
8.46695 0 0.507648 0.00110565 -8.04513e-06 0.00227975
8.44642 0 0.496871 0.00105828 -8.7642e-06 0.0021297
8.42671 0 0.486522 0.00100302 -9.29845e-06 0.00197945
8.40778 0 0.476583 0.000940165 -9.97711e-06 0.00182856
8.38959 0 0.467038 0.000869008 -1.06357e-05 0.00167863
8.9384 0 0.827083 0.000120143 -1.34994e-06 0.00186902
8.89917 0 0.804525 0.000185016 1.1801e-05 0.00212871
8.8615 0 0.782861 0.000406347 5.87634e-07 0.0023265
8.82531 0 0.762056 0.000527114 4.07731e-06 0.00253309
8.79057 0 0.742077 0.000682735 -5.21523e-07 0.00269277
8.75721 0 0.722891 0.000804521 -2.08568e-06 0.00283975
8.72516 0 0.704466 0.000929108 -3.06375e-06 0.00295138
8.69439 0 0.686772 0.00103376 -4.23655e-06 0.00303441
8.66483 0 0.66978 0.00112428 -4.9358e-06 0.00308219
8.63646 0 0.653462 0.00119375 -5.10869e-06 0.00309891
8.6092 0 0.637792 0.00124318 -4.18695e-06 0.00308205
8.58303 0 0.622743 0.00127666 -4.81919e-06 0.00303297
8.5579 0 0.608291 0.00129409 -4.98097e-06 0.00295817
8.53376 0 0.594413 0.00130029 -5.09604e-06 0.00286483
8.51058 0 0.581085 0.00129445 -5.36233e-06 0.00275605
8.48833 0 0.568287 0.00127539 -6.44304e-06 0.00263148
8.46695 0 0.555995 0.00124511 -7.07344e-06 0.00249764
8.44642 0 0.544192 0.0012066 -7.71534e-06 0.00235693
8.42671 0 0.532857 0.001162 -8.17025e-06 0.00221233
8.40778 0 0.521972 0.00111129 -8.89212e-06 0.00206385
8.38959 0 0.511518 0.00105327 -9.76389e-06 0.00191239
8.9384 0 0.899004 2.34847e-06 1.36936e-07 0.00129314
8.89917 0 0.874483 8.23691e-05 1.31815e-05 0.00155121
8.8615 0 0.850935 0.000294741 3.44932e-06 0.00178026
8.82531 0 0.828322 0.000427537 8.10847e-06 0.0020101
8.79057 0 0.806606 0.000591272 2.76918e-06 0.0022125
8.75721 0 0.785751 0.000721893 1.09921e-07 0.0024065
8.72516 0 0.765724 0.000857957 -8.7456e-07 0.00257146
8.69439 0 0.746491 0.000977216 -1.16202e-06 0.00271258
8.66483 0 0.728022 0.00108943 -2.21244e-06 0.00282662
8.63646 0 0.710285 0.00118435 -3.57667e-06 0.00291056
8.6092 0 0.693252 0.00126219 -3.2673e-06 0.00296187
8.58303 0 0.676895 0.00131781 -3.24522e-06 0.00298186
8.5579 0 0.661186 0.00135775 -3.5017e-06 0.00297156
8.53376 0 0.646101 0.00138312 -4.22382e-06 0.00292838
8.51058 0 0.631614 0.00139375 -4.35908e-06 0.0028599
8.48833 0 0.617703 0.001392 -4.64834e-06 0.00277166
8.46695 0 0.604343 0.0013779 -5.03008e-06 0.00266793
8.44642 0 0.591513 0.00135289 -6.1398e-06 0.00254895
8.42671 0 0.579192 0.00131789 -6.91929e-06 0.00241954
8.40778 0 0.56736 0.00127442 -7.75302e-06 0.00228248
8.38959 0 0.555998 0.00122471 -8.36684e-06 0.00214124
8.37214 0 0.545086 0.00116824 -9.60393e-06 0.00199563
8.9384 0 0.970925 -8.72618e-05 -1.906e-06 0.000714154
8.89917 0 0.944442 1.78551e-05 1.03007e-05 0.000961894
8.8615 0 0.91901 0.00021965 2.9705e-06 0.00120411
8.82531 0 0.894588 0.000354523 8.65198e-06 0.00144664
8.79057 0 0.871135 0.000519119 5.34692e-06 0.00167271
8.75721 0 0.848612 0.000654921 3.39383e-06 0.00189039
8.72516 0 0.826982 0.000796796 8.71117e-07 0.00208827
8.69439 0 0.806211 0.000925808 6.94866e-07 0.00227237
8.66483 0 0.786263 0.00104923 3.53736e-07 0.00243224
8.63646 0 0.767108 0.00116025 -7.07028e-07 0.00256866
8.6092 0 0.748712 0.00125791 -8.944e-07 0.00268055
8.58303 0 0.731046 0.00133848 -1.46274e-06 0.00276556
8.5579 0 0.714081 0.00140084 -1.06217e-06 0.0028207
8.53376 0 0.697789 0.00144711 -1.84917e-06 0.00284539
8.51058 0 0.682144 0.00147796 -2.15135e-06 0.00284092
8.48833 0 0.667119 0.00149496 -3.02661e-06 0.00280474
8.46695 0 0.65269 0.0014979 -3.13058e-06 0.00274373
8.44642 0 0.638834 0.00148783 -3.80073e-06 0.00266227
8.42671 0 0.625528 0.00146611 -4.41272e-06 0.00256504
8.40778 0 0.612749 0.001435 -5.21775e-06 0.00245388
8.38959 0 0.600478 0.00139574 -6.18109e-06 0.00233163
8.37214 0 0.588693 0.00134829 -6.96561e-06 0.00220062
8.97926 0 1.07246 -0.000339764 1.51261e-05 -2.78089e-05
8.9384 0 1.04284 -0.000158946 3.28683e-06 0.000211386
8.89917 0 1.0144 -5.36153e-05 1.00471e-05 0.00042683
8.8615 0 0.987085 0.000153116 1.36238e-06 0.000649864
8.82531 0 0.960854 0.000293383 4.58276e-06 0.000882415
8.79057 0 0.935663 0.000462598 3.40145e-06 0.00111326
8.75721 0 0.911471 0.000607667 2.72848e-06 0.00134055
8.72516 0 0.88824 0.0007561 6.29718e-07 0.00155772
8.69439 0 0.86593 0.000891107 1.46508e-06 0.0017657
8.66483 0 0.844505 0.00101733 1.33471e-06 0.00195696
8.63646 0 0.823931 0.00113337 2.976e-08 0.00213141
8.6092 0 0.804172 0.00124023 -1.83787e-07 0.00228384
8.58303 0 0.785198 0.00133689 -3.54955e-07 0.00241594
8.5579 0 0.766976 0.0014197 5.90292e-07 0.0025257
8.53376 0 0.749477 0.00148672 -1.33985e-07 0.00260989
8.51058 0 0.732673 0.00153805 -3.71268e-07 0.00266715
8.48833 0 0.716535 0.00157384 -1.31993e-06 0.00269593
8.46695 0 0.701038 0.00159482 -1.61651e-06 0.0026977
8.44642 0 0.686155 0.00160228 -2.64131e-06 0.00266999
8.42671 0 0.671863 0.00159605 -3.02298e-06 0.00261738
8.40778 0 0.658138 0.00157799 -3.98857e-06 0.00254399
8.38959 0 0.644957 0.00154964 -4.75178e-06 0.00245511
8.37214 0 0.6323 0.00151292 -5.47689e-06 0.00235254
8.97926 0 1.14643 -0.000364388 9.80367e-06 -0.000405191
8.9384 0 1.11476 -0.000186042 8.25057e-07 -0.000183096
8.89917 0 1.08436 -9.0866e-05 1.28583e-05 1.59241e-06
8.8615 0 1.05516 9.79066e-05 6.56222e-06 0.000195759
8.82531 0 1.02712 0.000234009 6.12319e-06 0.00039453
8.79057 0 1.00019 0.000412192 2.77516e-06 0.0005983
8.75721 0 0.974331 0.000564563 8.40931e-07 0.000811186
8.72516 0 0.949498 0.000712961 -1.8685e-06 0.00102478
8.69439 0 0.925649 0.000853001 -1.07188e-06 0.00123498
8.66483 0 0.902747 0.000991075 -1.06532e-07 0.0014389
8.63646 0 0.880753 0.0011214 -5.26716e-09 0.00163168
8.6092 0 0.859632 0.00124083 8.88544e-08 0.00181008
8.58303 0 0.839349 0.00134688 5.22458e-07 0.00197301
8.5579 0 0.819871 0.00143998 2.27292e-06 0.00211733
8.53376 0 0.801165 0.00151885 3.07938e-06 0.00224511
8.51058 0 0.783202 0.0015867 3.6544e-06 0.00235339
8.48833 0 0.765951 0.00164165 3.03112e-06 0.00243711
8.46695 0 0.749385 0.00168296 2.91048e-06 0.00249533
8.44642 0 0.733476 0.00170978 2.20968e-06 0.00252667
8.42671 0 0.718198 0.00172287 1.92626e-06 0.00253182
8.40778 0 0.703526 0.00172135 1.03557e-06 0.00250994
8.38959 0 0.689437 0.00170735 3.8961e-07 0.00246532
8.37214 0 0.675907 0.00168267 -3.534e-07 0.00240185
8.97926 0 1.22039 -0.000407955 1.04909e-05 -0.000722801
8.9384 0 1.18669 -0.000239909 -3.06973e-06 -0.000507164
8.89917 0 1.15432 -0.000132835 7.59982e-06 -0.000341762
8.8615 0 1.12324 6.64974e-05 4.58015e-06 -0.000152536
8.82531 0 1.09339 0.000199249 7.61625e-06 2.03236e-05
8.79057 0 1.06472 0.000360807 5.95925e-06 0.000199086
8.75721 0 1.03719 0.000510189 3.73554e-06 0.000381867
8.72516 0 1.01076 0.000672978 -5.5451e-07 0.000567
8.69439 0 0.985369 0.000826197 -2.21822e-06 0.000758975
8.66483 0 0.960988 0.00096773 -1.74914e-06 0.000954408
8.63646 0 0.937576 0.00109833 -1.95669e-06 0.00115
8.6092 0 0.915092 0.0012197 -2.37225e-06 0.00134041
8.58303 0 0.893501 0.00132995 -2.20013e-06 0.00152155
8.5579 0 0.872766 0.00142818 -1.34727e-06 0.00169127
8.53376 0 0.852853 0.00151046 -6.94719e-07 0.0018462
8.51058 0 0.833731 0.00158222 8.57512e-08 0.00198616
8.48833 0 0.815368 0.00164406 -1.67108e-07 0.00210896
8.46695 0 0.797732 0.00169691 -7.7842e-09 0.00221344
8.44642 0 0.780797 0.00173945 -5.42982e-07 0.0022972
8.42671 0 0.764534 0.00176837 -1.03482e-06 0.00235699
8.40778 0 0.748915 0.00178226 -2.3127e-06 0.00239219
8.38959 0 0.733917 0.00178082 -3.08432e-06 0.00240096
8.37214 0 0.719513 0.00176911 -4.02858e-06 0.00238742
8.97926 0 1.29435 -0.000475339 8.29753e-06 -0.000959105
8.9384 0 1.25861 -0.000300199 -3.20627e-06 -0.000761084
8.89917 0 1.22428 -0.000208034 8.54727e-06 -0.000628927
8.8615 0 1.19131 -7.39962e-06 9.23622e-07 -0.000445943
8.82531 0 1.15965 0.000140396 4.06272e-06 -0.00027741
8.79057 0 1.12925 0.000312683 6.31331e-06 -0.000109415
8.75721 0 1.10005 0.000470199 7.69749e-06 5.04926e-05
8.72516 0 1.07202 0.000626927 3.60511e-06 0.000212979
8.69439 0 1.04509 0.000773254 3.43551e-07 0.000376418
8.66483 0 1.01923 0.000918629 1.28527e-07 0.000539397
8.63646 0 0.994399 0.00106379 -7.80218e-07 0.000701667
8.6092 0 0.970553 0.00120553 -1.69347e-06 0.000864959
8.58303 0 0.947652 0.00133574 -2.15916e-06 0.0010286
8.5579 0 0.925661 0.00145253 -1.73851e-06 0.00118919
8.53376 0 0.904541 0.00155614 -1.24136e-06 0.00134397
8.51058 0 0.88426 0.00164946 5.92929e-08 0.00149133
8.48833 0 0.864784 0.00173189 1.08146e-06 0.0016295
8.46695 0 0.84608 0.00180196 2.53135e-06 0.00175625
8.44642 0 0.828118 0.00186059 3.44758e-06 0.00187088
8.42671 0 0.810869 0.00190778 4.4285e-06 0.00197025
8.40778 0 0.794304 0.00194317 4.82821e-06 0.00205193
8.38959 0 0.778397 0.00196529 5.11105e-06 0.0021129
8.37214 0 0.76312 0.00197082 4.71355e-06 0.00215235
8.97926 0 1.36832 -0.000529531 5.23317e-06 -0.00116572
8.9384 0 1.33053 -0.000350819 -1.5322e-06 -0.000976595
8.89917 0 1.29423 -0.000267248 6.4704e-06 -0.000846593
8.8615 0 1.25938 -9.5511e-05 1.82175e-06 -0.000672189
8.82531 0 1.22592 5.05082e-05 2.31157e-06 -0.000513138
8.79057 0 1.19378 0.000231426 -1.37359e-06 -0.000341694
8.75721 0 1.16291 0.000389725 2.76451e-07 -0.000182124
8.72516 0 1.13327 0.000553434 -1.81573e-06 -2.39362e-05
8.69439 0 1.10481 0.000721046 -4.02035e-06 0.000126281
8.66484 0 1.07747 0.000884259 -3.98712e-06 0.000279653
8.63646 0 1.05122 0.00103313 -2.93591e-06 0.000429542
8.6092 0 1.02601 0.00116903 -2.58521e-06 0.000581749
8.58303 0 1.0018 0.00129589 -2.55178e-06 0.000735815
8.5579 0 0.978555 0.00141192 -2.2265e-06 0.000890249
8.53376 0 0.956229 0.00151463 -1.63183e-06 0.00104279
8.51058 0 0.934789 0.0016037 -6.85128e-07 0.00119269
8.48833 0 0.9142 0.00168066 -2.4943e-07 0.00133952
8.46695 0 0.894427 0.0017454 6.41455e-08 0.00147936
8.44642 0 0.875439 0.00179889 -3.64709e-07 0.0016099
8.42671 0 0.857205 0.00184132 -7.13409e-07 0.00172955
8.40778 0 0.839693 0.00187324 -1.38806e-06 0.00183811
8.38959 0 0.822877 0.00189502 -1.95157e-06 0.00193305
8.37214 0 0.806727 0.00191004 -2.58815e-06 0.00201292
8.97926 0 1.44228 -0.000630957 6.41505e-06 -0.00136802
8.9384 0 1.40245 -0.000453769 2.37134e-06 -0.00118272
8.89917 0 1.36419 -0.000364609 4.54794e-06 -0.00105446
8.8615 0 1.32746 -0.000196861 5.25589e-06 -0.000897169
8.82531 0 1.29218 -3.50734e-05 7.40083e-06 -0.000767576
8.79057 0 1.2583 0.00015167 3.48019e-06 -0.000617998
8.75721 0 1.22577 0.000335732 4.61987e-06 -0.00047986
8.72516 0 1.19453 0.000515899 4.78797e-06 -0.000340708
8.69439 0 1.16453 0.000686849 4.00437e-06 -0.000206324
8.66483 0 1.13571 0.000851771 5.02124e-06 -6.87102e-05
8.63646 0 1.10804 0.00101655 4.95682e-06 6.77049e-05
8.6092 0 1.08147 0.00117397 4.76248e-06 0.000198812
8.58303 0 1.05595 0.00132426 3.7544e-06 0.000325793
8.5579 0 1.03145 0.00146328 3.92813e-06 0.000452248
8.53376 0 1.00792 0.00159194 4.28901e-06 0.000577119
8.51058 0 0.985317 0.00170504 5.28046e-06 0.00070044
8.48833 0 0.963616 0.00180915 6.33536e-06 0.000822942
8.46695 0 0.942775 0.00190405 7.38329e-06 0.000943989
8.44642 0 0.92276 0.00198908 8.21076e-06 0.00106261
8.42671 0 0.90354 0.00206173 9.03176e-06 0.00117738
8.40778 0 0.885082 0.00212246 9.90735e-06 0.00128865
8.38959 0 0.867357 0.00217076 1.04232e-05 0.00139354
8.37214 0 0.850334 0.00220893 1.0404e-05 0.00149374
7.66922 0 0.966948 0.000279639 -5.91989e-06 0.000370642
7.67296 0 0.988324 0.000198382 -6.26722e-06 0.000358757
7.67685 0 1.01058 0.000114674 -6.81547e-06 0.000349623
7.68091 0 1.03376 2.914e-05 -7.3578e-06 0.00034329
7.68513 0 1.0579 -5.92695e-05 -7.28346e-06 0.000339155
7.68953 0 1.08303 -0.000152978 -7.00039e-06 0.000335121
7.69411 0 1.1092 -0.000256045 -6.98086e-06 0.000329648
7.69888 0 1.13646 -0.000368886 -6.91839e-06 0.000317314
7.70385 0 1.16483 -0.000490949 -7.53443e-06 0.000295462
7.70902 0 1.19439 -0.000620969 -4.85209e-06 0.000257581
7.7144 0 1.22516 -0.000756535 -3.27177e-06 0.00020354
7.72001 0 1.25721 -0.000900415 -3.48359e-06 0.000128732
7.72585 0 1.29057 -0.00105345 -2.48444e-06 3.37647e-05
7.73193 0 1.32531 -0.00121911 1.06559e-06 -7.63264e-05
7.70425 0 0.907776 0.00067633 -4.61121e-06 0.000493518
7.70851 0 0.926707 0.000627969 -4.67895e-06 0.000490567
7.71295 0 0.946421 0.000573679 -4.95391e-06 0.000486411
7.71757 0 0.966948 0.000513071 -4.87184e-06 0.000479243
7.72238 0 0.988324 0.000444893 -5.66992e-06 0.000470501
7.72738 0 1.01058 0.000368904 -5.83294e-06 0.000460088
7.7326 0 1.03376 0.000285911 -6.19915e-06 0.000446681
7.73803 0 1.0579 0.000196704 -6.85785e-06 0.000436577
7.74368 0 1.08303 0.000106909 -7.06146e-06 0.000428745
7.74957 0 1.1092 1.32627e-05 -8.32269e-06 0.000423885
7.7557 0 1.13646 -8.4375e-05 -7.97003e-06 0.000418516
7.76209 0 1.16484 -0.000192171 -8.21052e-06 0.000409798
7.76874 0 1.19439 -0.000307967 -7.84698e-06 0.000393238
7.77566 0 1.22516 -0.000432973 -8.6967e-06 0.000364717
7.78287 0 1.25721 -0.000564571 -5.99501e-06 0.000322212
7.79038 0 1.29057 -0.000702796 -3.26288e-06 0.000256394
7.7982 0 1.32531 -0.000846228 -2.86934e-06 0.000178139
7.73984 0 0.872138 0.000930231 -4.46522e-06 0.000575788
7.74464 0 0.889597 0.000897761 -4.52753e-06 0.000578843
7.74964 0 0.907777 0.000860171 -4.44907e-06 0.000581745
7.75484 0 0.926707 0.000819819 -4.10638e-06 0.000580831
7.76026 0 0.94642 0.000775038 -4.81687e-06 0.000580484
7.76591 0 0.966948 0.000726897 -4.39972e-06 0.000581107
7.77179 0 0.988324 0.000674295 -4.43647e-06 0.000577197
7.77791 0 1.01058 0.000613852 -5.03925e-06 0.000572506
7.78428 0 1.03376 0.000547515 -5.15453e-06 0.00056454
7.79092 0 1.0579 0.000472657 -6.3666e-06 0.000554842
7.79783 0 1.08303 0.000391472 -6.40666e-06 0.000543623
7.80503 0 1.1092 0.000301784 -7.10588e-06 0.000533984
7.81252 0 1.13646 0.000208896 -7.06464e-06 0.000526464
7.82033 0 1.16483 0.00011167 -7.97762e-06 0.000520364
7.82845 0 1.19439 1.20313e-05 -8.68596e-06 0.000512403
7.83692 0 1.22516 -9.79454e-05 -8.67955e-06 0.000497376
7.84573 0 1.25721 -0.000211381 -8.17657e-06 0.000474007
7.85491 0 1.29057 -0.000338158 -8.3627e-06 0.000431762
7.86446 0 1.32531 -0.000463115 -7.11735e-06 0.000379855
7.87441 0 1.3615 -0.000605436 -3.16008e-06 0.000281215
7.778 0 0.855372 0.00111978 -4.46754e-06 0.00064812
7.78345 0 0.872138 0.00109569 -4.63542e-06 0.000653895
7.78912 0 0.889597 0.0010683 -4.29023e-06 0.000657975
7.79503 0 0.907776 0.00103696 -4.31919e-06 0.000659718
7.80118 0 0.926708 0.00100215 -4.28096e-06 0.000661366
7.80759 0 0.94642 0.000964985 -4.10096e-06 0.000661364
7.81425 0 0.966948 0.000922976 -4.32246e-06 0.000662019
7.82121 0 0.988324 0.000878636 -4.28059e-06 0.000662642
7.82844 0 1.01058 0.000829951 -4.76643e-06 0.000664464
7.83597 0 1.03376 0.000777353 -4.58454e-06 0.00066548
7.84382 0 1.0579 0.000718548 -5.26276e-06 0.000666409
7.85199 0 1.08303 0.000655673 -4.90743e-06 0.000665215
7.86049 0 1.1092 0.000584588 -5.87927e-06 0.000662227
7.86935 0 1.13646 0.000506487 -5.68782e-06 0.000657197
7.87857 0 1.16484 0.000418078 -6.30996e-06 0.000651351
7.88818 0 1.19439 0.000326303 -5.60694e-06 0.000645291
7.89818 0 1.22516 0.000226964 -6.40115e-06 0.000636526
7.90859 0 1.25721 0.000125431 -6.52433e-06 0.000621113
7.91943 0 1.29057 1.40647e-05 -6.76528e-06 0.000592443
7.93073 0 1.32531 -9.67612e-05 -6.82546e-06 0.00055673
7.94249 0 1.3615 -0.000226622 -4.55918e-06 0.000483582
7.81473 0 0.839271 0.00129377 -5.17472e-06 0.000708787
7.82076 0 0.855372 0.00127916 -5.11402e-06 0.00071684
7.82705 0 0.872138 0.00126148 -4.45958e-06 0.00072192
7.8336 0 0.889597 0.00123817 -4.43907e-06 0.000724058
7.84042 0 0.907777 0.00121144 -4.20723e-06 0.000724251
7.84752 0 0.926707 0.00117991 -4.34116e-06 0.000724222
7.85491 0 0.946421 0.00114612 -3.99256e-06 0.000724146
7.8626 0 0.966948 0.00110805 -4.3154e-06 0.00072437
7.87062 0 0.988324 0.0010679 -4.19809e-06 0.000724811
7.87897 0 1.01058 0.00102398 -4.7566e-06 0.000727768
7.88766 0 1.03376 0.000978483 -4.38311e-06 0.000732426
7.89671 0 1.0579 0.000928247 -4.95242e-06 0.000739775
7.90614 0 1.08303 0.000875622 -4.3294e-06 0.00074758
7.91595 0 1.1092 0.000817555 -4.98014e-06 0.000754843
7.92617 0 1.13646 0.000756355 -4.16891e-06 0.000759766
7.93681 0 1.16483 0.000686786 -4.9758e-06 0.000762579
7.9479 0 1.19439 0.000610847 -3.53468e-06 0.000762905
7.95943 0 1.22516 0.000524954 -4.34608e-06 0.000758871
7.97145 0 1.25721 0.00043668 -2.89652e-06 0.000749927
7.98397 0 1.29057 0.000341203 -4.59084e-06 0.000728872
7.99699 0 1.32531 0.000241856 -4.84425e-06 0.000693967
8.01056 0 1.3615 0.000128999 -5.67928e-06 0.000642694
8.02469 0 1.39917 2.40351e-05 -7.46093e-06 0.000556875
7.85669 0 0.839271 0.0014516 -4.3169e-06 0.000768261
7.86353 0 0.855372 0.00144276 -4.8807e-06 0.000772424
7.87066 0 0.872138 0.00142898 -4.68796e-06 0.000774868
7.87808 0 0.889596 0.00141023 -4.82283e-06 0.000774943
7.88581 0 0.907777 0.00138757 -4.47487e-06 0.000772821
7.89385 0 0.926708 0.0013596 -4.86934e-06 0.000770131
7.90223 0 0.94642 0.00132906 -4.55551e-06 0.0007676
7.91095 0 0.966948 0.00129374 -4.95743e-06 0.000766139
7.92003 0 0.988324 0.00125666 -4.51259e-06 0.000765049
7.9295 0 1.01058 0.00121524 -5.14609e-06 0.000766136
7.93935 0 1.03376 0.00117334 -4.61509e-06 0.000769753
7.94961 0 1.0579 0.00112773 -5.3595e-06 0.000776747
7.96029 0 1.08303 0.00108144 -4.74281e-06 0.00078554
7.97141 0 1.1092 0.00102994 -5.75312e-06 0.00079562
7.98299 0 1.13646 0.000977713 -4.82413e-06 0.000806823
7.99505 0 1.16484 0.000920739 -5.34475e-06 0.000817359
8.00761 0 1.19439 0.000862646 -3.94866e-06 0.0008259
8.02069 0 1.22516 0.00079638 -4.75971e-06 0.000828999
8.03431 0 1.25721 0.000724565 -3.54439e-06 0.000824761
8.04849 0 1.29057 0.000643294 -5.20131e-06 0.000806969
8.06326 0 1.32531 0.000558129 -4.94425e-06 0.000771905
8.07864 0 1.3615 0.000461105 -7.5161e-06 0.000721329
8.09465 0 1.39917 0.000361634 -6.62396e-06 0.000624736
7.89865 0 0.839271 0.00160113 -4.35171e-06 0.000824189
7.9063 0 0.855372 0.00159708 -4.11476e-06 0.000822966
7.91427 0 0.872138 0.00158999 -3.85692e-06 0.000819342
7.92256 0 0.889597 0.00157757 -4.29976e-06 0.000815083
7.93119 0 0.907776 0.00156067 -4.06819e-06 0.000809084
7.94019 0 0.926708 0.00153747 -4.60454e-06 0.000802387
7.94955 0 0.94642 0.00151136 -4.45336e-06 0.000795581
7.9593 0 0.966948 0.00147984 -5.20913e-06 0.000790382
7.96945 0 0.988324 0.00144688 -4.81727e-06 0.00078657
7.98003 0 1.01058 0.00140893 -5.61984e-06 0.000784967
7.99104 0 1.03376 0.00137067 -5.11524e-06 0.000786066
8.0025 0 1.0579 0.00132852 -6.03463e-06 0.000790374
8.01444 0 1.08303 0.0012869 -5.4433e-06 0.000797617
8.02687 0 1.1092 0.00124059 -6.38981e-06 0.000805944
8.03981 0 1.13646 0.00119363 -5.63163e-06 0.000814945
8.05329 0 1.16483 0.00114158 -6.6662e-06 0.000824031
8.06733 0 1.19439 0.00108944 -5.88508e-06 0.000832982
8.08195 0 1.22516 0.00103189 -7.07029e-06 0.000836481
8.09717 0 1.25721 0.000969751 -7.07056e-06 0.000832331
8.11302 0 1.29057 0.000894222 -8.55688e-06 0.000812954
8.12952 0 1.32531 0.000810866 -7.51635e-06 0.000771339
8.14671 0 1.3615 0.000708606 -1.13931e-05 0.000716203
8.16461 0 1.39917 0.000599916 -9.02045e-06 0.000599654
8.18324 0 1.4384 0.00046735 -1.32341e-05 0.000501885
7.94062 0 0.839271 0.00174992 -4.98707e-06 0.000860521
7.94907 0 0.855372 0.0017499 -6.29094e-06 0.000859829
7.95787 0 0.872138 0.00175057 -4.66752e-06 0.000858274
7.96704 0 0.889597 0.00174386 -4.48717e-06 0.000847808
7.97658 0 0.907777 0.00173241 -4.06522e-06 0.00083494
7.98652 0 0.926707 0.00171403 -4.87755e-06 0.000822114
7.99687 0 0.946421 0.00169296 -4.60526e-06 0.000810596
8.00765 0 0.966948 0.00166581 -5.52008e-06 0.000800394
8.01887 0 0.988324 0.00163728 -5.29418e-06 0.000792715
8.03055 0 1.01058 0.00160321 -6.24341e-06 0.000787863
8.04273 0 1.03376 0.00156872 -5.67087e-06 0.00078595
8.0554 0 1.0579 0.0015296 -6.65847e-06 0.000786409
8.06859 0 1.08303 0.00149085 -6.20041e-06 0.0007896
8.08233 0 1.1092 0.00144674 -7.32905e-06 0.000794564
8.09664 0 1.13646 0.00140179 -6.696e-06 0.000802296
8.11154 0 1.16484 0.00135106 -7.45289e-06 0.00080902
8.12705 0 1.19439 0.00129851 -6.92711e-06 0.000813759
8.14321 0 1.22516 0.00123817 -8.25763e-06 0.000810943
8.16003 0 1.25721 0.00117286 -8.35702e-06 0.000798161
8.17755 0 1.29057 0.00109185 -9.54003e-06 0.000767729
8.19579 0 1.32531 0.000996096 -8.75463e-06 0.00071147
8.21479 0 1.3615 0.000877879 -1.14253e-05 0.000641303
8.23457 0 1.39917 0.00074796 -6.26509e-06 0.000489267
8.25516 0 1.4384 0.000593113 -1.27482e-05 0.000381303
8.27661 0 1.47926 0.000415188 -1.90839e-06 6.85365e-05
7.99184 0 0.855371 0.00189815 -2.8385e-06 0.000902008
8.00148 0 0.872138 0.00190279 -2.21981e-06 0.000889178
8.01152 0 0.889596 0.00190099 -3.00217e-06 0.0008704
8.02197 0 0.907777 0.0018948 -2.93221e-06 0.000851276
8.03286 0 0.926708 0.00188193 -3.95667e-06 0.00083229
8.04419 0 0.94642 0.00186601 -3.90765e-06 0.000814833
8.05599 0 0.966948 0.00184392 -5.0581e-06 0.000799182
8.06829 0 0.988324 0.00181997 -4.89583e-06 0.000786303
8.08108 0 1.01058 0.00178961 -6.03782e-06 0.00077591
8.09441 0 1.03376 0.00175852 -5.78015e-06 0.000769771
8.10829 0 1.0579 0.00172182 -7.03985e-06 0.000765706
8.12274 0 1.08303 0.00168435 -6.89744e-06 0.000764695
8.13779 0 1.1092 0.00164034 -7.82795e-06 0.000764345
8.15346 0 1.13646 0.00159368 -7.23907e-06 0.000766061
8.16978 0 1.16483 0.00153838 -8.28184e-06 0.000766361
8.18677 0 1.19439 0.00147822 -8.2313e-06 0.00076329
8.20447 0 1.22516 0.00140661 -9.54716e-06 0.000749082
8.22289 0 1.25721 0.00132644 -9.17387e-06 0.000722002
8.24208 0 1.29057 0.00122399 -1.02964e-05 0.00067692
8.26206 0 1.32531 0.00110443 -9.0737e-06 0.000598661
8.28286 0 1.3615 0.000960372 -1.08478e-05 0.000508594
8.30453 0 1.39917 0.000800745 -4.5101e-06 0.000325584
8.32708 0 1.4384 0.000625083 -9.46057e-06 0.000215587
8.35057 0 1.47926 0.00040855 2.69979e-06 -0.00015152
8.03461 0 0.855372 0.00203142 -2.69603e-06 0.000944113
8.04508 0 0.872138 0.00204063 -2.5786e-06 0.000921689
8.056 0 0.889597 0.00204518 -2.73992e-06 0.000895817
8.06736 0 0.907776 0.00204464 -2.75307e-06 0.000866031
8.07919 0 0.926707 0.00203756 -4.04889e-06 0.000837793
8.09151 0 0.946421 0.00202747 -4.24503e-06 0.000811815
8.10434 0 0.966948 0.00201036 -5.46987e-06 0.000788206
8.1177 0 0.988324 0.00199051 -5.52002e-06 0.000768222
8.13161 0 1.01058 0.00196339 -6.77612e-06 0.000751533
8.1461 0 1.03376 0.00193398 -6.72825e-06 0.000739347
8.16118 0 1.0579 0.00189732 -7.88922e-06 0.000728658
8.17689 0 1.08303 0.0018579 -7.87329e-06 0.000720727
8.19325 0 1.1092 0.00180934 -8.72355e-06 0.000714357
8.21028 0 1.13646 0.0017552 -8.19814e-06 0.000710828
8.22802 0 1.16484 0.00168937 -8.93972e-06 0.000702362
8.24649 0 1.19439 0.00161442 -9.25831e-06 0.000686435
8.26572 0 1.22516 0.00152414 -1.01859e-05 0.000658051
8.28575 0 1.25721 0.00141876 -8.78411e-06 0.000613847
8.30661 0 1.29057 0.00128732 -9.58942e-06 0.000551339
8.32832 0 1.32531 0.00113892 -7.34415e-06 0.000445049
8.35093 0 1.3615 0.000963961 -8.36713e-06 0.000340455
8.37448 0 1.39917 0.000771705 1.07629e-06 0.000124238
8.399 0 1.4384 0.000573973 -4.58889e-06 2.06597e-05
8.42454 0 1.47926 0.000331553 4.46751e-06 -0.000364649
8.07738 0 0.855372 0.00213975 1.55181e-06 0.00100835
8.08869 0 0.872138 0.00215373 1.53742e-06 0.000971343
8.10048 0 0.889597 0.00216021 3.63392e-07 0.000933685
8.11275 0 0.907777 0.00216301 2.42298e-07 0.000895707
8.12553 0 0.926708 0.00215942 -7.66148e-07 0.000857985
8.13883 0 0.94642 0.00215262 -9.46508e-07 0.000821912
8.15269 0 0.966948 0.00213856 -2.52721e-06 0.000788445
8.16712 0 0.988324 0.00212128 -2.97767e-06 0.000758997
8.18214 0 1.01058 0.00209577 -4.35835e-06 0.000731365
8.19779 0 1.03376 0.00206549 -4.75662e-06 0.000707593
8.21408 0 1.0579 0.00202555 -6.47876e-06 0.000686263
8.23104 0 1.08303 0.00198015 -6.78815e-06 0.000670246
8.24871 0 1.1092 0.00192269 -7.55942e-06 0.000654745
8.26711 0 1.13646 0.00185543 -7.60423e-06 0.000638695
8.28626 0 1.16483 0.00177327 -8.56479e-06 0.000615645
8.30621 0 1.19439 0.00167722 -8.54613e-06 0.000584384
8.32698 0 1.22516 0.00156364 -8.23897e-06 0.000540127
8.34861 0 1.25721 0.00142898 -7.50117e-06 0.00047597
8.37113 0 1.29057 0.00126843 -7.48089e-06 0.000394545
8.39459 0 1.32531 0.00109106 -3.44362e-06 0.000263981
8.41901 0 1.3615 0.000893871 -5.00382e-06 0.000148938
8.44444 0 1.39917 0.000674462 3.88897e-06 -9.53587e-05
8.47093 0 1.4384 0.000465696 -6.85888e-07 -0.000192855
8.4985 0 1.47926 0.000203339 8.02065e-06 -0.00056667
8.12014 0 0.855372 0.00222378 -7.84765e-07 0.00104852
8.1323 0 0.872138 0.00223902 -1.44359e-06 0.00100968
8.14496 0 0.889596 0.0022492 -2.02474e-06 0.000966403
8.15814 0 0.907777 0.00225392 -2.19292e-06 0.000918937
8.17186 0 0.926708 0.00225069 -3.35559e-06 0.000872174
8.18616 0 0.94642 0.00224277 -3.67914e-06 0.000827568
8.20104 0 0.966948 0.00222652 -5.00006e-06 0.000784392
8.21654 0 0.988324 0.00220615 -5.26375e-06 0.000744339
8.23267 0 1.01058 0.00217648 -6.38106e-06 0.000705956
8.24948 0 1.03376 0.00214063 -6.59667e-06 0.000672807
8.26697 0 1.0579 0.00209411 -7.41932e-06 0.000641283
8.2852 0 1.08303 0.00203702 -7.14245e-06 0.000613172
8.30417 0 1.1092 0.00196544 -7.67688e-06 0.000583457
8.32393 0 1.13646 0.00188094 -7.80384e-06 0.000551993
8.3445 0 1.16484 0.00178027 -8.30271e-06 0.000511646