1 	0.000300629 	0 	-0.241136
1.00104 	0.000284426 	1.45643e-07 	-0.241337
1.00208 	0.000267662 	2.72457e-07 	-0.241543
1.00317 	0.000470727 	1.94892e-06 	-0.241193
1.00425 	0.000611617 	3.1285e-06 	-0.240875
1.00538 	0.00110734 	1.0695e-05 	-0.240353
1.00651 	0.00139009 	1.47608e-05 	-0.239877
1.00769 	0.001911 	3.08011e-05 	-0.239478
1.00887 	0.00212902 	3.66008e-05 	-0.239143
1.01009 	0.00254618 	5.88082e-05 	-0.238849
1.01132 	0.00265823 	6.26229e-05 	-0.238696
1.01259 	0.00299374 	8.84331e-05 	-0.238576
1.01387 	0.00304263 	8.74062e-05 	-0.238496
1.0152 	0.00329055 	0.000110624 	-0.238462
1.01652 	0.00334386 	0.000108019 	-0.238345
1.01791 	0.00352345 	0.000126143 	-0.238281
1.01929 	0.00357988 	0.000122139 	-0.238142
1.02073 	0.00370618 	0.000133407 	-0.238108
1.02217 	0.00376183 	0.000127711 	-0.238003
1.02367 	0.00384826 	0.000130659 	-0.238027
1.02517 	0.00390185 	0.000122999 	-0.237994
1.02574 	0.0039275 	0.000122522 	-0.238003
1.02632 	0.00394627 	0.000118957 	-0.237989
1.02731 	0.00407637 	0.000128544 	-0.237599
1.02829 	0.00417724 	0.000136608 	-0.237309
1.02992 	0.00437119 	0.000154096 	-0.23676
1.03155 	0.00448762 	0.000166009 	-0.236463
1.03324 	0.00466918 	0.000185952 	-0.236052
1.03493 	0.00472591 	0.000194278 	-0.236024
1.0367 	0.00489495 	0.000216672 	-0.235672
1.03846 	0.00489957 	0.000220024 	-0.235828
1.0403 	0.00505334 	0.000245229 	-0.235515
1.04213 	0.00501755 	0.000242296 	-0.235791
1.04405 	0.00511538 	0.000263896 	-0.235705
1.04596 	0.00508377 	0.000259499 	-0.235998
1.04795 	0.00513188 	0.00027485 	-0.236096
1.04994 	0.00510376 	0.000268702 	-0.236382
1.05201 	0.00511225 	0.000274657 	-0.236571
1.05409 	0.00508556 	0.000266117 	-0.236825
1.05482 	0.00508426 	0.000266654 	-0.23689
1.05556 	0.00507649 	0.000262901 	-0.236961
1.05698 	0.00519835 	0.000277811 	-0.236685
1.05841 	0.00528079 	0.000288287 	-0.236487
1.06065 	0.00546036 	0.000313693 	-0.236059
1.0629 	0.00553956 	0.000326239 	-0.235835
1.06524 	0.00571401 	0.000354266 	-0.235395
1.06759 	0.00573464 	0.000360061 	-0.235267
1.07002 	0.00589665 	0.000390489 	-0.234815
1.07246 	0.00586924 	0.000388212 	-0.234729
1.075 	0.0059773 	0.000414748 	-0.234339
1.07754 	0.00594629 	0.000409376 	-0.234163
1.08018 	0.00599987 	0.000427679 	-0.233814
1.08283 	0.00597977 	0.000421302 	-0.233496
1.08553 	0.0060041 	0.000428523 	-0.233083
1.08824 	0.00600368 	0.000421774 	-0.232603
1.08828 	0.00600732 	0.000422268 	-0.232593
1.08833 	0.00600967 	0.000422586 	-0.232586
1.0912 	0.00622059 	0.000454925 	-0.232
1.09407 	0.00635797 	0.000476292 	-0.231575
1.09705 	0.00656512 	0.000513007 	-0.231046
1.10004 	0.00664118 	0.000526929 	-0.230734
1.10314 	0.00683727 	0.000568276 	-0.230271
1.10625 	0.00686973 	0.000573145 	-0.229937
1.10949 	0.00702828 	0.000612977 	-0.229478
1.11273 	0.00707168 	0.000614678 	-0.228967
1.1161 	0.00719762 	0.000645968 	-0.228381
1.11947 	0.00728235 	0.000650705 	-0.227665
1.12223 	0.00738388 	0.000669316 	-0.227073
1.125 	0.00748246 	0.00067529 	-0.226388
1.12574 	0.00754129 	0.00068455 	-0.226192
1.12649 	0.0075866 	0.000691439 	-0.226015
1.13014 	0.00786687 	0.000741958 	-0.225107
1.13379 	0.00808912 	0.000778588 	-0.224217
1.1376 	0.00836456 	0.000836432 	-0.223339
1.14141 	0.00857708 	0.000868304 	-0.222325
1.14537 	0.00884194 	0.000933193 	-0.221495
1.14933 	0.00908036 	0.000960329 	-0.220275
1.15346 	0.00934145 	0.0010195 	-0.219333
1.15758 	0.00962582 	0.00105285 	-0.218057
1.15758 	0.00962582 	0.00105285 	-0.218057
1.16188 	0.00991435 	0.00110449 	-0.216969
1.16618 	0.0102344 	0.0011434 	-0.215709
1.16642 	0.0102506 	0.00114635 	-0.215651
1.16667 	0.0102693 	0.00114875 	-0.215585
1.1709 	0.0106758 	0.00122705 	-0.21464
1.17513 	0.0110866 	0.00129885 	-0.2136
1.17979 	0.0115041 	0.00138314 	-0.212673
1.18445 	0.0119668 	0.00145925 	-0.211519
1.1893 	0.0123674 	0.00153515 	-0.210647
1.19415 	0.0128896 	0.00161622 	-0.209418
1.1992 	0.0133367 	0.00168745 	-0.208484
1.20426 	0.013897 	0.00177226 	-0.207316
1.20927 	0.0144114 	0.00184303 	-0.206399
1.21429 	0.0149951 	0.00191964 	-0.205377
1.21453 	0.0150309 	0.00192504 	-0.205337
1.21478 	0.0150695 	0.00193101 	-0.205294
1.22026 	0.0159117 	0.00205362 	-0.204585
1.22574 	0.01683 	0.0021907 	-0.203794
1.23144 	0.0177919 	0.00233586 	-0.203201
1.23714 	0.018917 	0.00250532 	-0.202433
1.24309 	0.0200587 	0.00268697 	-0.201923
1.24903 	0.0214001 	0.00288354 	-0.201179
1.25521 	0.0227867 	0.00309853 	-0.200696
1.2614 	0.0242798 	0.00330661 	-0.200048
1.26531 	0.0252283 	0.00344333 	-0.19978
1.26923 	0.026214 	0.00357072 	-0.199437
1.27176 	0.0268723 	0.00365969 	-0.1993
1.27428 	0.0275397 	0.00374073 	-0.199118
1.28099 	0.0293137 	0.00395489 	-0.198822
1.2877 	0.0311439 	0.00413605 	-0.198353
1.29468 	0.0330565 	0.00430946 	-0.198062
1.30167 	0.0351102 	0.00444632 	-0.197492
1.30894 	0.037293 	0.00457578 	-0.197151
1.31621 	0.0396102 	0.00469614 	-0.196589
1.32379 	0.0421505 	0.00479511 	-0.196206
1.33136 	0.0447514 	0.00488071 	-0.195707
1.33235 	0.0451117 	0.00488624 	-0.195665
1.33333 	0.0454771 	0.00488874 	-0.195607
1.34023 	0.0479712 	0.00491155 	-0.195429
1.34713 	0.0504709 	0.00491459 	-0.195176
1.35535 	0.0536261 	0.00489857 	-0.195029
1.36356 	0.0567424 	0.00487929 	-0.194702
1.37211 	0.0600638 	0.00490147 	-0.194606
1.38066 	0.0631916 	0.00495401 	-0.194244
1.38957 	0.066257 	0.00507062 	-0.194098
1.39847 	0.0691015 	0.0052014 	-0.193759
1.40378 	0.0704936 	0.00527229 	-0.193614
1.40909 	0.0717734 	0.00533299 	-0.193373
1.41305 	0.0726944 	0.00538178 	-0.193307
1.41702 	0.0735244 	0.00541567 	-0.193157
1.42667 	0.0747571 	0.00539251 	-0.192843
1.43633 	0.0756049 	0.00532012 	-0.192207
1.44639 	0.0755691 	0.00516049 	-0.191717
1.45644 	0.0746702 	0.0049586 	-0.190635
1.45644 	0.0746702 	0.0049586 	-0.190635
1.46691 	0.0725174 	0.00469775 	-0.189764
1.47738 	0.0693927 	0.00440388 	-0.188367
1.48828 	0.064073 	0.00402686 	-0.186938
1.49919 	0.0581055 	0.00363384 	-0.185231
1.49959 	0.0578127 	0.00361715 	-0.185168
1.5 	0.0575003 	0.00360028 	-0.185097
1.51095 	0.0490969 	0.00314489 	-0.183411
1.52189 	0.0405056 	0.00270226 	-0.181495
1.53372 	0.0309361 	0.00224755 	-0.179547
1.54554 	0.0226098 	0.00189596 	-0.177245
1.55785 	0.0156461 	0.00165319 	-0.175135
1.57016 	0.0113152 	0.00163117 	-0.172629
1.58298 	0.00876911 	0.0018147 	-0.170219
1.5958 	0.00734179 	0.00212175 	-0.167565
1.60346 	0.00703673 	0.00236604 	-0.166037
1.61111 	0.0068669 	0.00261963 	-0.164424
1.6168 	0.00673073 	0.00280877 	-0.163265
1.6225 	0.00662702 	0.00298823 	-0.162035
1.6364 	0.00653503 	0.00331489 	-0.15918
1.6503 	0.00645119 	0.00351306 	-0.15613
1.66477 	0.00636954 	0.00348584 	-0.15318
1.67925 	0.00627131 	0.00331032 	-0.149997
1.69432 	0.00616171 	0.00310154 	-0.14699
1.7094 	0.00604048 	0.00295749 	-0.143859
1.72509 	0.00592118 	0.00293414 	-0.14088
1.74079 	0.00580196 	0.00295355 	-0.137851
1.74539 	0.0057721 	0.00296882 	-0.137027
1.75 	0.00574311 	0.00298562 	-0.136194
1.76174 	0.00566796 	0.00302722 	-0.134071
1.77348 	0.00559554 	0.00306719 	-0.131922
1.79049 	0.00550757 	0.00311595 	-0.129016
1.80751 	0.00542458 	0.0031622 	-0.126067
1.82524 	0.00534828 	0.00320679 	-0.123214
1.84296 	0.00527753 	0.00325208 	-0.120323
1.86141 	0.00521015 	0.00330804 	-0.117524
1.87987 	0.0051462 	0.00336514 	-0.114716
1.89909 	0.00508583 	0.00341253 	-0.111967
1.9183 	0.00502707 	0.00346133 	-0.109225
1.92344 	0.00501267 	0.00347511 	-0.108555
1.92857 	0.00499855 	0.00348919 	-0.107887
1.94345 	0.00495716 	0.00352887 	-0.105924
1.95832 	0.00491661 	0.00356944 	-0.103968
1.97916 	0.00485496 	0.00372018 	-0.100974
2 	0.0047954 	0.00387023 	-0.0980204
