# Force coefficients
# liftDir     : (0.000000e+00 0.000000e+00 1.000000e+00)
# dragDir     : (1.000000e+00 0.000000e+00 0.000000e+00)
# pitchAxis   : (0.000000e+00 1.000000e+00 0.000000e+00)
# magUInf     : 1.000000e+00
# lRef        : 1.000000e+00
# Aref        : 1.000000e+00
# CofR        : (7.500000e+00 0.000000e+00 0.000000e+00)
#
# Time        	Cm            	Cd            	Cl            	Cl(f)         	Cl(r)         
10.7005       	-2.124546e-02	1.055807e+00	1.925474e-01	7.502825e-02	1.175192e-01
10.701        	-2.121439e-02	1.056405e+00	1.927413e-01	7.515626e-02	1.175850e-01
10.7015       	-2.099879e-02	1.056094e+00	1.934087e-01	7.570556e-02	1.177031e-01
10.702        	-2.095886e-02	1.056817e+00	1.936272e-01	7.585476e-02	1.177725e-01
10.7025       	-2.068829e-02	1.056725e+00	1.943097e-01	7.646658e-02	1.178432e-01
10.703        	-2.063088e-02	1.057327e+00	1.945353e-01	7.663676e-02	1.178985e-01
10.7035       	-2.048042e-02	1.057266e+00	1.949884e-01	7.701377e-02	1.179746e-01
10.704        	-2.035777e-02	1.057873e+00	1.952938e-01	7.728913e-02	1.180047e-01
10.7045       	-2.019055e-02	1.057869e+00	1.957096e-01	7.766426e-02	1.180454e-01
10.705        	-2.013987e-02	1.058182e+00	1.960998e-01	7.791003e-02	1.181898e-01
10.7055       	-1.990893e-02	1.058105e+00	1.968377e-01	7.850990e-02	1.183278e-01
10.706        	-1.976611e-02	1.058792e+00	1.971029e-01	7.878533e-02	1.183175e-01
10.7065       	-1.953850e-02	1.058745e+00	1.977111e-01	7.931707e-02	1.183941e-01
10.707        	-1.947016e-02	1.059406e+00	1.980790e-01	7.956935e-02	1.185097e-01
10.7075       	-1.926538e-02	1.059098e+00	1.987951e-01	8.013218e-02	1.186629e-01
10.708        	-1.921315e-02	1.059655e+00	1.989655e-01	8.026963e-02	1.186959e-01
10.7085       	-1.899353e-02	1.059412e+00	1.996546e-01	8.083377e-02	1.188208e-01
10.709        	-1.887078e-02	1.060013e+00	2.000293e-01	8.114389e-02	1.188854e-01
10.7095       	-1.864324e-02	1.059866e+00	2.004612e-01	8.158739e-02	1.188739e-01
10.71         	-1.845386e-02	1.060469e+00	2.008712e-01	8.198174e-02	1.188895e-01
10.7105       	-1.824403e-02	1.060371e+00	2.013517e-01	8.243180e-02	1.189199e-01
10.711        	-1.813543e-02	1.060922e+00	2.016357e-01	8.268244e-02	1.189533e-01
10.7115       	-1.793636e-02	1.060406e+00	2.024829e-01	8.330511e-02	1.191778e-01
10.712        	-1.783009e-02	1.061055e+00	2.025708e-01	8.345531e-02	1.191155e-01
10.7125       	-1.748676e-02	1.060744e+00	2.034569e-01	8.424168e-02	1.192152e-01
10.713        	-1.740517e-02	1.061483e+00	2.037342e-01	8.446192e-02	1.192722e-01
10.7135       	-1.702369e-02	1.061236e+00	2.045738e-01	8.526323e-02	1.193106e-01
10.714        	-1.704845e-02	1.061758e+00	2.045269e-01	8.521499e-02	1.193119e-01
10.7145       	-1.677692e-02	1.061314e+00	2.053214e-01	8.588376e-02	1.194376e-01
10.715        	-1.679489e-02	1.061896e+00	2.053561e-01	8.588318e-02	1.194730e-01
10.7155       	-1.650210e-02	1.061585e+00	2.060929e-01	8.654433e-02	1.195485e-01
10.716        	-1.636178e-02	1.062450e+00	2.062644e-01	8.677040e-02	1.194940e-01
10.7165       	-1.610952e-02	1.062089e+00	2.070525e-01	8.741675e-02	1.196358e-01
10.717        	-1.599472e-02	1.062899e+00	2.071724e-01	8.759149e-02	1.195809e-01
10.7175       	-1.584914e-02	1.062335e+00	2.079409e-01	8.812132e-02	1.198196e-01
10.718        	-1.583184e-02	1.062867e+00	2.079547e-01	8.814550e-02	1.198092e-01
10.7185       	-1.548118e-02	1.062580e+00	2.088472e-01	8.894244e-02	1.199048e-01
10.719        	-1.551118e-02	1.063354e+00	2.087425e-01	8.886008e-02	1.198824e-01
10.7195       	-1.503667e-02	1.063057e+00	2.097517e-01	8.983916e-02	1.199125e-01
10.72         	-1.511003e-02	1.063786e+00	2.096461e-01	8.971303e-02	1.199331e-01
10.7205       	-1.472623e-02	1.063414e+00	2.107694e-01	9.065846e-02	1.201109e-01
10.721        	-1.479051e-02	1.063738e+00	2.107476e-01	9.058327e-02	1.201643e-01
10.7215       	-1.454372e-02	1.063564e+00	2.115664e-01	9.123947e-02	1.203269e-01
10.722        	-1.445278e-02	1.063927e+00	2.117397e-01	9.141708e-02	1.203226e-01
10.7225       	-1.421013e-02	1.064201e+00	2.124440e-01	9.201190e-02	1.204322e-01
10.723        	-1.397350e-02	1.064446e+00	2.128390e-01	9.244600e-02	1.203930e-01
10.7235       	-1.385576e-02	1.064600e+00	2.132113e-01	9.274992e-02	1.204614e-01
10.724        	-1.369168e-02	1.064528e+00	2.136966e-01	9.315664e-02	1.205400e-01
10.7245       	-1.366624e-02	1.064676e+00	2.138139e-01	9.324069e-02	1.205732e-01
10.725        	-1.338226e-02	1.064624e+00	2.145303e-01	9.388287e-02	1.206474e-01
10.7255       	-1.331736e-02	1.065114e+00	2.147143e-01	9.403976e-02	1.206745e-01
10.726        	-1.301299e-02	1.065142e+00	2.154028e-01	9.468843e-02	1.207144e-01
10.7265       	-1.285971e-02	1.065477e+00	2.159952e-01	9.513788e-02	1.208573e-01
10.727        	-1.266917e-02	1.065500e+00	2.165002e-01	9.558091e-02	1.209192e-01
10.7275       	-1.244065e-02	1.065555e+00	2.171707e-01	9.614472e-02	1.210260e-01
10.728        	-1.238981e-02	1.065532e+00	2.173385e-01	9.627945e-02	1.210591e-01
10.7285       	-1.213669e-02	1.065572e+00	2.180594e-01	9.689300e-02	1.211664e-01
10.729        	-1.198176e-02	1.065705e+00	2.184498e-01	9.724315e-02	1.212067e-01
10.7295       	-1.171432e-02	1.065967e+00	2.190477e-01	9.780955e-02	1.212382e-01
10.73         	-1.149182e-02	1.066101e+00	2.194196e-01	9.821797e-02	1.212016e-01
10.7305       	-1.128108e-02	1.065961e+00	2.201010e-01	9.876944e-02	1.213316e-01
10.731        	-1.116766e-02	1.065900e+00	2.204913e-01	9.907798e-02	1.214133e-01
10.7315       	-1.095305e-02	1.065833e+00	2.210838e-01	9.958885e-02	1.214950e-01
10.732        	-1.077046e-02	1.065989e+00	2.215921e-01	1.000256e-01	1.215665e-01
10.7325       	-1.046860e-02	1.066144e+00	2.222818e-01	1.006723e-01	1.216095e-01
10.733        	-1.030160e-02	1.066469e+00	2.227087e-01	1.010527e-01	1.216559e-01
10.7335       	-1.001931e-02	1.066518e+00	2.235394e-01	1.017504e-01	1.217890e-01
10.734        	-9.971847e-03	1.066684e+00	2.236874e-01	1.018719e-01	1.218156e-01
10.7345       	-9.702675e-03	1.066370e+00	2.245048e-01	1.025497e-01	1.219551e-01
10.735        	-9.593857e-03	1.066555e+00	2.247661e-01	1.027892e-01	1.219769e-01
10.7355       	-9.275903e-03	1.066532e+00	2.255274e-01	1.034878e-01	1.220396e-01
10.736        	-9.185315e-03	1.066856e+00	2.256646e-01	1.036470e-01	1.220176e-01
10.7365       	-8.785724e-03	1.067063e+00	2.264507e-01	1.044396e-01	1.220111e-01
10.737        	-8.720956e-03	1.067238e+00	2.268326e-01	1.046953e-01	1.221372e-01
10.7375       	-8.485671e-03	1.067149e+00	2.276153e-01	1.053220e-01	1.222933e-01
10.738        	-8.361177e-03	1.067220e+00	2.280058e-01	1.056417e-01	1.223641e-01
10.7385       	-8.081500e-03	1.067300e+00	2.285733e-01	1.062052e-01	1.223682e-01
10.739        	-7.924712e-03	1.067445e+00	2.290559e-01	1.066032e-01	1.224527e-01
10.7395       	5.745078e-03	1.163210e+00	2.445140e-01	1.280021e-01	1.165119e-01
10.74         	1.062150e-03	1.142704e+00	2.397768e-01	1.209506e-01	1.188262e-01
10.7405       	-1.139673e-03	1.127959e+00	2.382914e-01	1.180060e-01	1.202854e-01
10.741        	-2.840893e-03	1.115160e+00	2.364475e-01	1.153828e-01	1.210646e-01
10.7415       	-3.461872e-03	1.108455e+00	2.360780e-01	1.145771e-01	1.215009e-01
10.742        	-3.942156e-03	1.102603e+00	2.358550e-01	1.139853e-01	1.218697e-01
10.7425       	-3.994147e-03	1.100059e+00	2.361542e-01	1.140830e-01	1.220712e-01
10.743        	-3.849446e-03	1.097807e+00	2.363244e-01	1.143127e-01	1.220116e-01
10.7435       	-3.624896e-03	1.096055e+00	2.370436e-01	1.148969e-01	1.221467e-01
10.744        	-3.444142e-03	1.094392e+00	2.373709e-01	1.152413e-01	1.221296e-01
10.7445       	-3.207921e-03	1.092584e+00	2.380914e-01	1.158378e-01	1.222536e-01
10.745        	-3.255836e-03	1.091060e+00	2.383361e-01	1.159122e-01	1.224239e-01
10.7455       	-3.151841e-03	1.089650e+00	2.388406e-01	1.162684e-01	1.225721e-01
10.746        	-3.084666e-03	1.088345e+00	2.392201e-01	1.165254e-01	1.226947e-01
10.7465       	-3.079783e-03	1.087259e+00	2.393756e-01	1.166080e-01	1.227676e-01
10.747        	-2.945628e-03	1.086185e+00	2.397934e-01	1.169511e-01	1.228423e-01
10.7475       	-2.890023e-03	1.085272e+00	2.398866e-01	1.170533e-01	1.228333e-01
10.748        	-2.684955e-03	1.084148e+00	2.404511e-01	1.175406e-01	1.229105e-01
10.7485       	-2.540706e-03	1.083339e+00	2.409009e-01	1.179097e-01	1.229912e-01
10.749        	-2.307089e-03	1.082476e+00	2.414697e-01	1.184278e-01	1.230420e-01
10.7495       	-2.130479e-03	1.081748e+00	2.421294e-01	1.189342e-01	1.231952e-01
10.75         	-1.860159e-03	1.081054e+00	2.427942e-01	1.195370e-01	1.232573e-01
10.7505       	-1.670515e-03	1.080369e+00	2.432599e-01	1.199594e-01	1.233004e-01
10.751        	-1.389700e-03	1.079788e+00	2.439542e-01	1.205874e-01	1.233668e-01
10.7515       	-1.234136e-03	1.079118e+00	2.444384e-01	1.209851e-01	1.234533e-01
10.752        	-9.413869e-04	1.078621e+00	2.450176e-01	1.215674e-01	1.234502e-01
10.7525       	-8.324611e-04	1.077923e+00	2.453991e-01	1.218671e-01	1.235320e-01
10.753        	-5.208535e-04	1.077509e+00	2.460370e-01	1.224977e-01	1.235394e-01
10.7535       	-3.472209e-04	1.077036e+00	2.465125e-01	1.229090e-01	1.236035e-01
10.754        	2.424102e-05	1.076707e+00	2.472441e-01	1.236463e-01	1.235978e-01
10.7545       	1.914547e-04	1.076245e+00	2.477583e-01	1.240706e-01	1.236877e-01
10.755        	5.108025e-04	1.075852e+00	2.484445e-01	1.247331e-01	1.237115e-01
10.7555       	6.643692e-04	1.075420e+00	2.488780e-01	1.251034e-01	1.237746e-01
10.756        	9.694482e-04	1.074990e+00	2.494751e-01	1.257070e-01	1.237681e-01
10.7565       	1.152141e-03	1.074679e+00	2.499122e-01	1.261082e-01	1.238040e-01
10.757        	1.444201e-03	1.074305e+00	2.505033e-01	1.266959e-01	1.238075e-01
10.7575       	1.617200e-03	1.074108e+00	2.509755e-01	1.271050e-01	1.238706e-01
10.758        	1.894549e-03	1.073858e+00	2.516324e-01	1.277107e-01	1.239216e-01
10.7585       	2.105177e-03	1.073567e+00	2.522992e-01	1.282548e-01	1.240444e-01
10.759        	2.354674e-03	1.073178e+00	2.529229e-01	1.288161e-01	1.241068e-01
10.7595       	2.577354e-03	1.072996e+00	2.533859e-01	1.292703e-01	1.241156e-01
10.76         	2.827367e-03	1.072765e+00	2.539379e-01	1.297963e-01	1.241416e-01
10.7605       	3.126409e-03	1.072602e+00	2.546009e-01	1.304269e-01	1.241741e-01
10.761        	3.339721e-03	1.072418e+00	2.551962e-01	1.309378e-01	1.242584e-01
10.7615       	3.613740e-03	1.072319e+00	2.559550e-01	1.315912e-01	1.243638e-01
10.762        	3.861930e-03	1.072093e+00	2.565286e-01	1.321262e-01	1.244024e-01
10.7625       	4.127890e-03	1.071901e+00	2.572919e-01	1.327739e-01	1.245181e-01
10.763        	4.358768e-03	1.071705e+00	2.576031e-01	1.331603e-01	1.244428e-01
10.7635       	4.655446e-03	1.071587e+00	2.582769e-01	1.337939e-01	1.244830e-01
10.764        	4.829837e-03	1.071309e+00	2.587809e-01	1.342203e-01	1.245606e-01
10.7645       	5.160576e-03	1.071164e+00	2.595201e-01	1.349206e-01	1.245995e-01
10.765        	5.330487e-03	1.071132e+00	2.599199e-01	1.352904e-01	1.246295e-01
10.7655       	5.743407e-03	1.070942e+00	2.607234e-01	1.361051e-01	1.246183e-01
10.766        	5.900498e-03	1.070971e+00	2.611757e-01	1.364884e-01	1.246874e-01
10.7665       	6.331981e-03	1.070715e+00	2.618852e-01	1.372746e-01	1.246106e-01
10.767        	6.447330e-03	1.070664e+00	2.622872e-01	1.375910e-01	1.246963e-01
10.7675       	6.872513e-03	1.070415e+00	2.630535e-01	1.383993e-01	1.246543e-01
10.768        	6.939346e-03	1.070418e+00	2.633285e-01	1.386036e-01	1.247249e-01
10.7685       	7.335061e-03	1.070049e+00	2.641412e-01	1.394057e-01	1.247355e-01
10.769        	7.423699e-03	1.070103e+00	2.644601e-01	1.396537e-01	1.248064e-01
10.7695       	7.810024e-03	1.069746e+00	2.653630e-01	1.404915e-01	1.248715e-01
10.77         	7.989718e-03	1.069748e+00	2.659201e-01	1.409498e-01	1.249704e-01
10.7705       	8.331643e-03	1.069575e+00	2.666581e-01	1.416607e-01	1.249974e-01
10.771        	8.515042e-03	1.069520e+00	2.671361e-01	1.420831e-01	1.250530e-01
10.7715       	8.830284e-03	1.069303e+00	2.677876e-01	1.427241e-01	1.250635e-01
10.772        	9.013933e-03	1.069075e+00	2.681808e-01	1.431044e-01	1.250765e-01
10.7725       	9.324159e-03	1.068754e+00	2.688420e-01	1.437452e-01	1.250968e-01
10.773        	9.459857e-03	1.068584e+00	2.693930e-01	1.441564e-01	1.252366e-01
10.7735       	9.805154e-03	1.068508e+00	2.700340e-01	1.448222e-01	1.252119e-01
10.774        	9.951512e-03	1.068381e+00	2.703086e-01	1.451058e-01	1.252028e-01
10.7745       	1.031212e-02	1.068286e+00	2.709680e-01	1.457961e-01	1.251719e-01
10.775        	1.045933e-02	1.068167e+00	2.713748e-01	1.461467e-01	1.252281e-01
10.7755       	1.076891e-02	1.067930e+00	2.720601e-01	1.467989e-01	1.252611e-01
10.776        	1.086467e-02	1.067670e+00	2.723402e-01	1.470348e-01	1.253055e-01
10.7765       	1.112356e-02	1.067509e+00	2.729508e-01	1.475990e-01	1.253518e-01
10.777        	1.125596e-02	1.067148e+00	2.734817e-01	1.479968e-01	1.254849e-01
10.7775       	1.157773e-02	1.067262e+00	2.741913e-01	1.486734e-01	1.255179e-01
10.778        	1.179004e-02	1.066897e+00	2.745659e-01	1.490730e-01	1.254929e-01
10.7785       	1.198301e-02	1.067032e+00	2.748899e-01	1.494280e-01	1.254620e-01
10.779        	1.219959e-02	1.066482e+00	2.753970e-01	1.498981e-01	1.254989e-01
10.7795       	1.236563e-02	1.066583e+00	2.758802e-01	1.503057e-01	1.255744e-01
10.78         	1.260270e-02	1.065988e+00	2.764719e-01	1.508386e-01	1.256332e-01
10.7805       	1.270925e-02	1.066225e+00	2.767084e-01	1.510634e-01	1.256449e-01
10.781        	1.302958e-02	1.065684e+00	2.773201e-01	1.516896e-01	1.256304e-01
10.7815       	1.311306e-02	1.066049e+00	2.775805e-01	1.519033e-01	1.256772e-01
10.782        	1.347006e-02	1.065549e+00	2.783265e-01	1.526333e-01	1.256932e-01
10.7825       	1.354842e-02	1.065883e+00	2.785467e-01	1.528218e-01	1.257249e-01
10.783        	1.381489e-02	1.065203e+00	2.791651e-01	1.533974e-01	1.257676e-01
10.7835       	1.392283e-02	1.065477e+00	2.795228e-01	1.536843e-01	1.258386e-01
10.784        	1.415897e-02	1.064847e+00	2.800862e-01	1.542021e-01	1.258841e-01
10.7845       	1.429909e-02	1.065162e+00	2.804038e-01	1.545010e-01	1.259028e-01
10.785        	1.452527e-02	1.064625e+00	2.808250e-01	1.549378e-01	1.258872e-01
10.7855       	1.467872e-02	1.064890e+00	2.812016e-01	1.552795e-01	1.259221e-01
10.786        	1.489341e-02	1.064362e+00	2.817729e-01	1.557798e-01	1.259930e-01
10.7865       	1.508409e-02	1.064615e+00	2.821136e-01	1.561409e-01	1.259727e-01
10.787        	1.528308e-02	1.063973e+00	2.826496e-01	1.566079e-01	1.260417e-01
10.7875       	1.547445e-02	1.064067e+00	2.831443e-01	1.570466e-01	1.260977e-01
10.788        	1.566862e-02	1.063448e+00	2.836533e-01	1.574953e-01	1.261580e-01
10.7885       	1.590579e-02	1.063658e+00	2.840623e-01	1.579370e-01	1.261254e-01
10.789        	1.611125e-02	1.063183e+00	2.845706e-01	1.583965e-01	1.261741e-01
10.7895       	1.632893e-02	1.063407e+00	2.850308e-01	1.588444e-01	1.261865e-01
10.79         	1.653994e-02	1.062929e+00	2.854572e-01	1.592686e-01	1.261887e-01
10.7905       	1.672707e-02	1.062912e+00	2.858156e-01	1.596349e-01	1.261807e-01
10.791        	1.696974e-02	1.062456e+00	2.865550e-01	1.602472e-01	1.263078e-01
10.7915       	1.713232e-02	1.062407e+00	2.869838e-01	1.606242e-01	1.263596e-01
10.792        	1.741339e-02	1.062154e+00	2.876125e-01	1.612197e-01	1.263929e-01
10.7925       	1.759402e-02	1.062100e+00	2.879388e-01	1.615634e-01	1.263754e-01
10.793        	1.785578e-02	1.061834e+00	2.885903e-01	1.621509e-01	1.264393e-01
10.7935       	1.802793e-02	1.061721e+00	2.889860e-01	1.625209e-01	1.264651e-01
10.794        	1.825737e-02	1.061317e+00	2.896106e-01	1.630627e-01	1.265479e-01
10.7945       	1.840493e-02	1.061271e+00	2.899983e-01	1.634041e-01	1.265942e-01
10.795        	1.865474e-02	1.060883e+00	2.905212e-01	1.639153e-01	1.266059e-01
10.7955       	1.881012e-02	1.060876e+00	2.910038e-01	1.643120e-01	1.266918e-01
10.796        	1.906467e-02	1.060507e+00	2.915634e-01	1.648464e-01	1.267171e-01
10.7965       	1.919001e-02	1.060533e+00	2.919283e-01	1.651542e-01	1.267741e-01
10.797        	1.944877e-02	1.060194e+00	2.923752e-01	1.656364e-01	1.267388e-01
10.7975       	1.957332e-02	1.060191e+00	2.926136e-01	1.658801e-01	1.267335e-01
10.798        	1.975764e-02	1.059717e+00	2.931797e-01	1.663475e-01	1.268322e-01
10.7985       	1.987347e-02	1.059798e+00	2.933955e-01	1.665712e-01	1.268243e-01
10.799        	2.007874e-02	1.059438e+00	2.939434e-01	1.670504e-01	1.268930e-01
10.7995       	2.017859e-02	1.059527e+00	2.942123e-01	1.672848e-01	1.269276e-01
10.8          	2.037679e-02	1.059155e+00	2.947879e-01	1.677707e-01	1.270172e-01
10.8005       	2.053086e-02	1.059261e+00	2.949934e-01	1.680276e-01	1.269659e-01
10.801        	2.073720e-02	1.059017e+00	2.955326e-01	1.685035e-01	1.270291e-01
10.8015       	2.085182e-02	1.059049e+00	2.957848e-01	1.687442e-01	1.270406e-01
10.802        	2.102069e-02	1.058625e+00	2.963758e-01	1.692086e-01	1.271672e-01
10.8025       	2.114214e-02	1.058533e+00	2.966096e-01	1.694469e-01	1.271627e-01
10.803        	2.138597e-02	1.058131e+00	2.972219e-01	1.699969e-01	1.272250e-01
10.8035       	2.154874e-02	1.058088e+00	2.975378e-01	1.703176e-01	1.272201e-01
10.804        	2.174951e-02	1.057683e+00	2.980643e-01	1.707817e-01	1.272826e-01
10.8045       	2.195397e-02	1.057747e+00	2.985487e-01	1.712283e-01	1.273204e-01
10.805        	2.210722e-02	1.057375e+00	2.989218e-01	1.715681e-01	1.273537e-01
10.8055       	2.227092e-02	1.057393e+00	2.992527e-01	1.718973e-01	1.273554e-01
10.806        	2.244335e-02	1.056985e+00	2.997148e-01	1.723007e-01	1.274140e-01
10.8065       	2.263306e-02	1.057006e+00	3.002300e-01	1.727480e-01	1.274819e-01
10.807        	2.281861e-02	1.056491e+00	3.006682e-01	1.731527e-01	1.275155e-01
10.8075       	2.299827e-02	1.056517e+00	3.009688e-01	1.734827e-01	1.274861e-01
10.808        	2.323676e-02	1.056149e+00	3.015305e-01	1.740020e-01	1.275285e-01
10.8085       	2.343104e-02	1.056212e+00	3.018642e-01	1.743631e-01	1.275010e-01
10.809        	2.357408e-02	1.055703e+00	3.022102e-01	1.746792e-01	1.275310e-01
10.8095       	2.372553e-02	1.055592e+00	3.026669e-01	1.750590e-01	1.276079e-01
10.81         	2.386155e-02	1.055111e+00	3.030000e-01	1.753616e-01	1.276385e-01
10.8105       	2.401650e-02	1.055117e+00	3.034025e-01	1.757178e-01	1.276848e-01
10.811        	2.415409e-02	1.054686e+00	3.037058e-01	1.760070e-01	1.276988e-01
10.8115       	2.438199e-02	1.054803e+00	3.042249e-01	1.764944e-01	1.277305e-01
10.812        	2.454160e-02	1.054410e+00	3.045575e-01	1.768203e-01	1.277371e-01
10.8125       	2.469952e-02	1.054368e+00	3.050426e-01	1.772208e-01	1.278218e-01
10.813        	2.482300e-02	1.053978e+00	3.054056e-01	1.775258e-01	1.278798e-01
10.8135       	2.495965e-02	1.053864e+00	3.057645e-01	1.778419e-01	1.279226e-01
10.814        	2.510303e-02	1.053459e+00	3.061206e-01	1.781633e-01	1.279573e-01
10.8145       	2.524077e-02	1.053441e+00	3.064020e-01	1.784418e-01	1.279602e-01
10.815        	2.545509e-02	1.053235e+00	3.068835e-01	1.788968e-01	1.279867e-01
10.8155       	2.558562e-02	1.053120e+00	3.070665e-01	1.791189e-01	1.279476e-01
10.816        	2.583573e-02	1.052806e+00	3.076797e-01	1.796756e-01	1.280041e-01
10.8165       	2.592049e-02	1.052576e+00	3.079420e-01	1.798915e-01	1.280505e-01
10.817        	2.616573e-02	1.052258e+00	3.084961e-01	1.804138e-01	1.280823e-01
10.8175       	2.617704e-02	1.052053e+00	3.087953e-01	1.805747e-01	1.282206e-01
10.818        	2.644104e-02	1.051799e+00	3.094044e-01	1.811432e-01	1.282611e-01
10.8185       	2.648603e-02	1.051736e+00	3.095957e-01	1.812839e-01	1.283118e-01
10.819        	2.678094e-02	1.051571e+00	3.101558e-01	1.818589e-01	1.282970e-01
10.8195       	2.686362e-02	1.051460e+00	3.104855e-01	1.821064e-01	1.283791e-01
10.82         	2.714759e-02	1.051250e+00	3.109958e-01	1.826455e-01	1.283503e-01
10.8205       	2.721209e-02	1.051089e+00	3.111934e-01	1.828088e-01	1.283846e-01
10.821        	2.741376e-02	1.050798e+00	3.116780e-01	1.832528e-01	1.284253e-01
10.8215       	2.747648e-02	1.050553e+00	3.119731e-01	1.834630e-01	1.285101e-01
10.822        	2.764409e-02	1.050371e+00	3.124490e-01	1.838686e-01	1.285804e-01
10.8225       	2.778723e-02	1.050378e+00	3.127701e-01	1.841723e-01	1.285978e-01
10.823        	2.800793e-02	1.050193e+00	3.132632e-01	1.846395e-01	1.286237e-01
10.8235       	2.812608e-02	1.049960e+00	3.136292e-01	1.849407e-01	1.286885e-01
10.824        	2.834188e-02	1.049726e+00	3.141656e-01	1.854247e-01	1.287409e-01
10.8245       	2.840147e-02	1.049374e+00	3.145254e-01	1.856642e-01	1.288612e-01
10.825        	2.857974e-02	1.049170e+00	3.151892e-01	1.861743e-01	1.290149e-01
10.8255       	2.863788e-02	1.048933e+00	3.154266e-01	1.863512e-01	1.290754e-01
10.826        	2.881158e-02	1.048732e+00	3.157443e-01	1.866837e-01	1.290606e-01
10.8265       	2.892508e-02	1.048691e+00	3.159068e-01	1.868785e-01	1.290283e-01
10.827        	2.912347e-02	1.048569e+00	3.163675e-01	1.873072e-01	1.290603e-01
10.8275       	2.926503e-02	1.048426e+00	3.166852e-01	1.876076e-01	1.290776e-01
10.828        	2.941197e-02	1.048114e+00	3.172038e-01	1.880139e-01	1.291899e-01
10.8285       	2.952597e-02	1.047884e+00	3.174346e-01	1.882433e-01	1.291913e-01
10.829        	2.965390e-02	1.047613e+00	3.179832e-01	1.886455e-01	1.293377e-01
10.8295       	2.976166e-02	1.047446e+00	3.181190e-01	1.888212e-01	1.292978e-01
10.83         	2.987679e-02	1.047290e+00	3.184085e-01	1.890810e-01	1.293274e-01
10.8305       	3.008604e-02	1.047241e+00	3.187366e-01	1.894543e-01	1.292823e-01
10.831        	3.018096e-02	1.046919e+00	3.190397e-01	1.897008e-01	1.293389e-01
10.8315       	3.038799e-02	1.046834e+00	3.193071e-01	1.900416e-01	1.292656e-01
10.832        	3.042986e-02	1.046354e+00	3.196166e-01	1.902381e-01	1.293784e-01
10.8325       	3.065890e-02	1.046326e+00	3.202922e-01	1.908050e-01	1.294872e-01
10.833        	3.075112e-02	1.046012e+00	3.206085e-01	1.910554e-01	1.295531e-01
10.8335       	3.094505e-02	1.046058e+00	3.210616e-01	1.914759e-01	1.295858e-01
10.834        	3.103910e-02	1.045774e+00	3.212374e-01	1.916578e-01	1.295796e-01
10.8345       	3.118700e-02	1.045799e+00	3.215157e-01	1.919449e-01	1.295709e-01
10.835        	3.132866e-02	1.045621e+00	3.217561e-01	1.922067e-01	1.295494e-01
10.8355       	3.146342e-02	1.045602e+00	3.221671e-01	1.925470e-01	1.296201e-01
10.836        	3.156431e-02	1.045204e+00	3.225144e-01	1.928215e-01	1.296929e-01
10.8365       	3.171298e-02	1.045114e+00	3.230493e-01	1.932376e-01	1.298116e-01
10.837        	3.180072e-02	1.044805e+00	3.233475e-01	1.934745e-01	1.298730e-01
10.8375       	3.199226e-02	1.044859e+00	3.238565e-01	1.939205e-01	1.299360e-01
10.838        	3.209785e-02	1.044588e+00	3.241498e-01	1.941727e-01	1.299771e-01
10.8385       	3.222504e-02	1.044578e+00	3.244993e-01	1.944747e-01	1.300246e-01
10.839        	3.231786e-02	1.044191e+00	3.246441e-01	1.946399e-01	1.300042e-01
10.8395       	3.241820e-02	1.044086e+00	3.250399e-01	1.949381e-01	1.301017e-01
10.84         	3.253374e-02	1.043681e+00	3.253179e-01	1.951927e-01	1.301252e-01
10.8405       	3.265191e-02	1.043678e+00	3.257454e-01	1.955246e-01	1.302208e-01
10.841        	3.283378e-02	1.043438e+00	3.261969e-01	1.959323e-01	1.302647e-01
10.8415       	3.287597e-02	1.043418e+00	3.264937e-01	1.961228e-01	1.303709e-01
10.842        	3.306101e-02	1.043297e+00	3.267308e-01	1.964264e-01	1.303044e-01
10.8425       	3.300987e-02	1.043111e+00	3.269473e-01	1.964835e-01	1.304638e-01
10.843        	3.319782e-02	1.042776e+00	3.272728e-01	1.968342e-01	1.304386e-01
10.8435       	3.318566e-02	1.042696e+00	3.275714e-01	1.969714e-01	1.306001e-01
10.844        	3.338193e-02	1.042312e+00	3.280257e-01	1.973948e-01	1.306309e-01
10.8445       	3.344330e-02	1.042369e+00	3.283422e-01	1.976144e-01	1.307278e-01
10.845        	3.361482e-02	1.042061e+00	3.287057e-01	1.979677e-01	1.307380e-01
10.8455       	3.367025e-02	1.042135e+00	3.288931e-01	1.981168e-01	1.307763e-01
10.846        	3.381969e-02	1.041940e+00	3.292133e-01	1.984263e-01	1.307870e-01
10.8465       	3.388650e-02	1.041930e+00	3.295763e-01	1.986746e-01	1.309016e-01
10.847        	3.393436e-02	1.041585e+00	3.297248e-01	1.987968e-01	1.309280e-01
10.8475       	3.404755e-02	1.041617e+00	3.300832e-01	1.990892e-01	1.309940e-01
10.848        	3.415246e-02	1.041414e+00	3.302730e-01	1.992890e-01	1.309841e-01
10.8485       	3.430099e-02	1.041373e+00	3.308964e-01	1.997492e-01	1.311472e-01
10.849        	3.435846e-02	1.041181e+00	3.310990e-01	1.999080e-01	1.311911e-01
10.8495       	3.449897e-02	1.041128e+00	3.314059e-01	2.002019e-01	1.312040e-01
10.85         	3.448401e-02	1.040842e+00	3.314664e-01	2.002172e-01	1.312492e-01
10.8505       	3.464684e-02	1.040857e+00	3.319557e-01	2.006247e-01	1.313310e-01
10.851        	3.459463e-02	1.040522e+00	3.319184e-01	2.005538e-01	1.313646e-01
10.8515       	3.478312e-02	1.040461e+00	3.322824e-01	2.009243e-01	1.313581e-01
10.852        	3.475132e-02	1.040184e+00	3.323138e-01	2.009082e-01	1.314056e-01
10.8525       	3.500304e-02	1.040247e+00	3.327353e-01	2.013707e-01	1.313646e-01
10.853        	3.498983e-02	1.040050e+00	3.328986e-01	2.014391e-01	1.314595e-01
10.8535       	3.523436e-02	1.040070e+00	3.334837e-01	2.019762e-01	1.315075e-01
10.854        	3.519576e-02	1.039798e+00	3.336739e-01	2.020327e-01	1.316412e-01
10.8545       	3.536997e-02	1.039703e+00	3.339611e-01	2.023505e-01	1.316106e-01
10.855        	3.530559e-02	1.039386e+00	3.339978e-01	2.023045e-01	1.316933e-01
10.8555       	3.546658e-02	1.039322e+00	3.343126e-01	2.026229e-01	1.316897e-01
10.856        	3.543129e-02	1.039178e+00	3.343538e-01	2.026082e-01	1.317456e-01
10.8565       	3.560814e-02	1.039107e+00	3.347785e-01	2.029974e-01	1.317811e-01
10.857        	3.561288e-02	1.038911e+00	3.348948e-01	2.030603e-01	1.318345e-01
10.8575       	3.583392e-02	1.038847e+00	3.353264e-01	2.034971e-01	1.318293e-01
10.858        	3.586258e-02	1.038618e+00	3.355249e-01	2.036250e-01	1.318999e-01
10.8585       	3.604351e-02	1.038550e+00	3.359919e-01	2.040395e-01	1.319525e-01
10.859        	3.599651e-02	1.038280e+00	3.359005e-01	2.039467e-01	1.319537e-01
10.8595       	3.611991e-02	1.038119e+00	3.362989e-01	2.042694e-01	1.320295e-01
10.86         	3.610923e-02	1.037836e+00	3.363168e-01	2.042676e-01	1.320491e-01
10.8605       	3.627532e-02	1.037808e+00	3.366232e-01	2.045869e-01	1.320363e-01
10.861        	3.629708e-02	1.037500e+00	3.366114e-01	2.046028e-01	1.320086e-01
10.8615       	3.646157e-02	1.037474e+00	3.372422e-01	2.050827e-01	1.321595e-01
10.862        	3.650727e-02	1.037264e+00	3.373790e-01	2.051968e-01	1.321822e-01
10.8625       	3.661084e-02	1.037224e+00	3.377089e-01	2.054653e-01	1.322436e-01
10.863        	3.662232e-02	1.036881e+00	3.378058e-01	2.055252e-01	1.322806e-01
10.8635       	3.668221e-02	1.036781e+00	3.381313e-01	2.057478e-01	1.323834e-01
10.864        	3.671007e-02	1.036368e+00	3.382103e-01	2.058152e-01	1.323951e-01
10.8645       	3.678896e-02	1.036325e+00	3.383576e-01	2.059678e-01	1.323898e-01
10.865        	3.688787e-02	1.036172e+00	3.386052e-01	2.061905e-01	1.324147e-01
10.8655       	3.695533e-02	1.036212e+00	3.388321e-01	2.063714e-01	1.324607e-01
10.866        	3.706310e-02	1.035989e+00	3.391192e-01	2.066227e-01	1.324965e-01
10.8665       	3.712056e-02	1.035903e+00	3.394657e-01	2.068534e-01	1.326123e-01
10.867        	3.719105e-02	1.035529e+00	3.399559e-01	2.071690e-01	1.327869e-01
10.8675       	3.723845e-02	1.035427e+00	3.401642e-01	2.073206e-01	1.328437e-01
10.868        	3.727175e-02	1.035113e+00	3.403629e-01	2.074532e-01	1.329097e-01
10.8685       	3.727106e-02	1.034991e+00	3.403834e-01	2.074627e-01	1.329206e-01
10.869        	3.731908e-02	1.034758e+00	3.406194e-01	2.076288e-01	1.329906e-01
10.8695       	3.739492e-02	1.034740e+00	3.407423e-01	2.077661e-01	1.329762e-01
10.87         	3.744678e-02	1.034567e+00	3.410650e-01	2.079793e-01	1.330857e-01
10.8705       	3.758379e-02	1.034487e+00	3.413561e-01	2.082618e-01	1.330943e-01
10.871        	3.765356e-02	1.034287e+00	3.416288e-01	2.084680e-01	1.331609e-01
10.8715       	3.772008e-02	1.034165e+00	3.419025e-01	2.086713e-01	1.332312e-01
10.872        	3.776420e-02	1.034039e+00	3.420301e-01	2.087793e-01	1.332509e-01
10.8725       	3.780103e-02	1.033913e+00	3.422490e-01	2.089255e-01	1.333235e-01
10.873        	3.781658e-02	1.033703e+00	3.423785e-01	2.090058e-01	1.333727e-01
10.8735       	3.788678e-02	1.033579e+00	3.426426e-01	2.092081e-01	1.334345e-01
10.874        	3.793090e-02	1.033367e+00	3.426491e-01	2.092555e-01	1.333937e-01
10.8745       	3.797144e-02	1.033092e+00	3.428022e-01	2.093725e-01	1.334297e-01
10.875        	3.801584e-02	1.032861e+00	3.430453e-01	2.095385e-01	1.335068e-01
10.8755       	3.808671e-02	1.032725e+00	3.432102e-01	2.096918e-01	1.335184e-01
10.876        	3.812388e-02	1.032510e+00	3.434529e-01	2.098503e-01	1.336026e-01
10.8765       	3.817704e-02	1.032470e+00	3.436512e-01	2.100026e-01	1.336486e-01
10.877        	3.818777e-02	1.032120e+00	3.438882e-01	2.101319e-01	1.337563e-01
10.8775       	3.819807e-02	1.031831e+00	3.438850e-01	2.101406e-01	1.337444e-01
10.878        	3.824472e-02	1.031654e+00	3.440418e-01	2.102656e-01	1.337762e-01
10.8785       	3.825850e-02	1.031381e+00	3.442732e-01	2.103951e-01	1.338781e-01
10.879        	3.834554e-02	1.031267e+00	3.446454e-01	2.106682e-01	1.339772e-01
10.8795       	3.836210e-02	1.031006e+00	3.447858e-01	2.107550e-01	1.340308e-01
10.88         	3.842204e-02	1.030905e+00	3.450403e-01	2.109422e-01	1.340981e-01
10.8805       	3.841127e-02	1.030566e+00	3.449585e-01	2.108905e-01	1.340680e-01
10.881        	3.843734e-02	1.030473e+00	3.452216e-01	2.110481e-01	1.341735e-01
10.8815       	3.844483e-02	1.030106e+00	3.453559e-01	2.111228e-01	1.342331e-01
10.882        	3.852994e-02	1.030037e+00	3.455963e-01	2.113281e-01	1.342682e-01
10.8825       	3.856562e-02	1.029830e+00	3.458209e-01	2.114761e-01	1.343448e-01
10.883        	3.860087e-02	1.029754e+00	3.460923e-01	2.116470e-01	1.344453e-01
10.8835       	3.863467e-02	1.029572e+00	3.462489e-01	2.117591e-01	1.344898e-01
10.884        	3.865600e-02	1.029512e+00	3.464265e-01	2.118693e-01	1.345573e-01