# kMean  POINT_DATA 91129
# x  y  z  kMean
0 0 0 0.0051532
0 0.00368111 0 0.00375
0 0.00749587 0 0.00375
0 0.0114491 0 0.00375
0 0.0155459 0 0.00375
0 0.0197915 0 0.00375
0 0.0241911 0 0.00375
0 0.0287506 0 0.00375
0 0.0334755 0 0.00375
0 0.038372 0 0.00375
0 0.0434463 0 0.00375
0 0.0487048 0 0.00375
0 0.0541543 0 0.00375
0 0.0598016 0 0.00375
0 0.0656539 0 0.00375
0 0.0717187 0 0.00375
0.075776 0.00184055 0 0.00831303
0.075776 0.00558849 0 0.00306031
0.075776 0.00947248 -3.46945e-18 0.00296799
0.075776 0.0134975 -3.46945e-18 0.003371
0.075776 0.0176687 3.46945e-18 0.00355347
0 0.0780037 0 0.00375
0.075776 0.0219913 3.46945e-18 0.00362907
0.075776 0.0264709 3.46945e-18 0.00366702
0.075776 0.031113 -3.46945e-18 0.00368907
0.075776 0.0359237 -3.46945e-18 0.00370322
0 0.0845169 0 0.00375
0.075776 0.0409092 0 0.00371289
0.075776 0.0460755 -3.46945e-18 0.00371986
0 0.0912666 0 0.00375
0.075776 0.0514296 -3.46945e-18 0.00372508
0.075776 0.0569779 0 0.00372912
0 0.0982613 0 0.00375
0.075776 0.0627278 0 0.00373233
0.075776 0.0686863 0 0.00373492
0 0.10551 0 0.00375
0.075776 0.0748612 3.46945e-18 0.00373704
0.075776 0.0812603 -3.46945e-18 0.00373884
0 0.113022 0 0.00375
0.075776 0.0878918 3.46945e-18 0.00374039
0 0.120806 0 0.00375
0.075776 0.0947639 3.46945e-18 0.00374174
0.075776 0.101886 -3.46945e-18 0.00374292
0 0.128874 0 0.00375
0.075776 0.109266 3.46945e-18 0.00374395
0 0.137234 0 0.00375
0.075776 0.116914 3.46945e-18 0.00374485
0 0.145897 0 0.00375
0.075776 0.12484 0 0.00374564
0.151552 0 0 0.00504556
0.151552 0.00368111 0 0.00362175
0.151552 0.00749587 0 0.00244418
0.151552 0.0114491 0 0.00294778
0.151552 0.0155459 0 0.00330973
0.151552 0.0197915 0 0.0034625
0.075776 0.133054 0 0.00374634
0.151552 0.0241911 0 0.0035418
0.151552 0.0287506 0 0.00359436
0 0.154876 0 0.00375
0.151552 0.0334755 0 0.00363047
0.151552 0.038372 0 0.00365576
0.151552 0.0434463 0 0.00367402
0.151552 0.0487048 0 0.00368761
0.075776 0.141566 0 0.00374697
0.151552 0.0541543 0 0.003698
0.151552 0.0598016 0 0.00370614
0 0.16418 0 0.00375
0.151552 0.0656539 0 0.00371265
0.151552 0.0717187 0 0.00371795
0.075776 0.150387 0 0.00374754
0.151552 0.0780037 0 0.00372234
0.151552 0.0845169 0 0.00372604
0 0.173822 0 0.00375
0.075776 0.159528 0 0.00374808
0.151552 0.0912666 0 0.00372919
0.151552 0.0982613 0 0.0037319
0 0.183814 0 0.00375
0.151552 0.10551 0 0.00373426
0.075776 0.169001 3.46945e-18 0.00374859
0.151552 0.113022 0 0.00373631
0.151552 0.120806 0 0.00373812
0 0.194169 0 0.00375
0.075776 0.178818 3.46945e-18 0.0037491
0.151552 0.128874 0 0.00373972
0.075776 0.188992 3.46945e-18 0.0037496
0.151552 0.137234 0 0.00374115
0 0.2049 0 0.00375
0.151552 0.145897 0 0.00374243
0.075776 0.199535 0 0.00375009
0 0.21602 0 0.00375
0.151552 0.154876 0 0.00374359
0.219992 0.00184055 0 0.00202955
0.219992 0.00558849 0 0.00140172
0.219992 0.00947248 -3.46945e-18 0.00243441
0.219992 0.0134975 3.46945e-18 0.00305184
0.219992 0.0176687 0 0.00328608
0.219992 0.0219913 0 0.00340119
0.219993 0.0264709 -3.46945e-18 0.00348628
0.219992 0.031113 -3.46945e-18 0.00354796
0.219992 0.0359238 3.46945e-18 0.00359172
0.151552 0.16418 0 0.00374465
0.075776 0.21046 0 0.00375056
0.219992 0.0409092 3.46945e-18 0.00362325
0.219992 0.0460755 0 0.00364658
0.219993 0.0514296 -3.46945e-18 0.00366427
0.219992 0.0569779 0 0.003678
0 0.227544 0 0.00375
0.219992 0.0627277 3.46945e-18 0.00368889
0.219992 0.0686863 0 0.00369768
0.151552 0.173822 0 0.00374563
0.219992 0.0748612 3.46945e-18 0.00370492
0.075776 0.221782 0 0.003751
0.219992 0.0812603 3.46945e-18 0.00371096
0.219992 0.0878917 -3.46945e-18 0.00371606
0.151552 0.183814 0 0.00374655
7.47806e-17 0.239487 0 0.00375
0.219992 0.0947639 3.46945e-18 0.0037204
0.219993 0.101886 3.46945e-18 0.00372415
0.075776 0.233516 0 0.00375138
0.219993 0.109266 0 0.00372741
0.151552 0.194169 0 0.00374741
0.219993 0.116914 0 0.00373027
0 0.251863 0 0.00375
0.219993 0.12484 0 0.0037328
0.151552 0.2049 0 0.00374822
0.075776 0.245675 0 0.00375172
0.219992 0.133054 3.46945e-18 0.00373505
0.219992 0.141565 0 0.00373707
0.151552 0.21602 0 0.00374897
0 0.264688 0 0.00375
0.219992 0.150387 3.46945e-18 0.00373888
0.075776 0.258275 3.46945e-18 0.003752
0.219992 0.159528 -3.46945e-18 0.0037405
0.151552 0.227544 0 0.00374968
0.219992 0.169001 3.46945e-18 0.00374198
0 0.27798 0 0.00375
0.075776 0.271334 3.46945e-18 0.00375222
0.151552 0.239487 3.70071e-18 0.00375033
0.219992 0.178818 3.46945e-18 0.00374334
0.288433 0 0 0.0014326
0.288433 0.00368111 0 0.00130277
0.288433 0.00749587 0 0.00180033
0.288433 0.0114491 0 0.00275051
0.288433 0.0155459 3.70071e-18 0.00318016
0.288433 0.0197915 0 0.00332563
0.288433 0.0241911 3.70071e-18 0.00339672
0.288433 0.0287506 0 0.00345929
0.219992 0.188991 0 0.00374458
0.288433 0.0334755 0 0.00351405
0.288433 0.038372 0 0.00355801
0.288433 0.0434463 0 0.00359232
7.47806e-17 0.291753 0 0.00375
0.288433 0.0487048 0 0.00361919
0.288433 0.0541543 0 0.00364044
0.151552 0.251863 0 0.00375092
0.288433 0.0598016 3.70071e-18 0.00365746
0.075776 0.284866 0 0.00375239
0.288433 0.0656539 3.70071e-18 0.00367128
0.219992 0.199534 0 0.00374573
0.288433 0.0717187 0 0.00368264
0.288433 0.0780037 0 0.00369211
0.288433 0.0845169 0 0.00370006
0.288433 0.0912666 0 0.00370677
0.219992 0.21046 -3.46945e-18 0.00374681
0.288433 0.0982613 0 0.00371247
0.151552 0.264688 3.70071e-18 0.00375146
0 0.306027 0 0.00375
0.288433 0.10551 0 0.00371739
0.075776 0.29889 3.46945e-18 0.0037525
0.288433 0.113022 0 0.00372174
0.219993 0.221782 0 0.00374781
0.288433 0.120806 0 0.00372564
0.288433 0.128874 0 0.00372915
0.151552 0.27798 0 0.00375194
0.288433 0.137234 0 0.00373234
0 0.320819 0 0.00375
0.219992 0.233515 -3.46945e-18 0.00374876
0.075776 0.313423 -3.46945e-18 0.00375254
0.288433 0.145897 0 0.00373522
0.288433 0.154876 0 0.00373783
0.151552 0.291753 0 0.00375237
0.219993 0.245675 0 0.00374964
0.288433 0.16418 0 0.00374017
0 0.336148 0 0.00375
0.288433 0.173822 0 0.00374229
0.075776 0.328484 -3.46945e-18 0.00375251
0.219993 0.258275 -3.46945e-18 0.00375047
0.151552 0.306027 0 0.00375273
0.288433 0.183814 0 0.00374419
0.288433 0.194169 0 0.00374591
0.219992 0.271334 3.46945e-18 0.00375125
0.350249 0.00184056 -3.46945e-18 0.000879558
0.350249 0.00558849 0 0.000960943
0.350249 0.00947248 3.46945e-18 0.00242157
0.350249 0.0134975 0 0.00309316
0.350249 0.0176687 0 0.00328794
0.350249 0.0219913 0 0.00332996
0.350249 0.0264708 3.46945e-18 0.00337635
0.350249 0.031113 0 0.00343507
0 0.352034 0 0.00375
0.350249 0.0359238 0 0.00348964
0.075776 0.344091 0 0.00375247
0.350249 0.0409091 0 0.0035347
0.350249 0.0460756 3.46945e-18 0.00357102
0.288433 0.2049 0 0.00374746
0.350249 0.0514296 0 0.0036002
0.151552 0.320819 0 0.00375304
0.350249 0.0569779 0 0.00362378
0.350249 0.0627277 3.46945e-18 0.00364298
0.350249 0.0686863 3.46945e-18 0.00365879
0.350249 0.0748612 3.46945e-18 0.00367192
0.350249 0.0812603 0 0.00368295
0.219992 0.284867 0 0.00375197
0.288433 0.21602 0 0.00374886
0.350249 0.0878917 0 0.00369224
0.350249 0.094764 0 0.00370006
0.350249 0.101886 0 0.0037067
0.350249 0.109266 0 0.00371253
0.288433 0.227544 0 0.00375012
0.075776 0.360265 3.46945e-18 0.00375248
0 0.368496 0 0.00375
0.151552 0.336148 0 0.0037533
0.350249 0.116914 3.46945e-18 0.0037178
0.219992 0.29889 0 0.00375263
0.370854 0.0241911 1.54074e-33 0.00338323
0.350249 0.12484 0 0.00372256
0.350249 0.133054 0 0.0037269
0.288433 0.239487 -9.25154e-19 0.00375128
0.350249 0.141566 3.46945e-18 0.00373087
0.350249 0.150387 3.46945e-18 0.00373447
0.288433 0.251863 0 0.00375233
0.219992 0.313423 0 0.00375324
0.151552 0.352034 0 0.00375355
0.075776 0.377027 0 0.00375254
0.350249 0.159528 0 0.00373772
0 0.385557 0 0.00375
0.350249 0.169001 0 0.00374064
0.288433 0.264688 0 0.00375331
0.350249 0.178818 0 0.00374324
0.219992 0.328484 0 0.00375379
0.350249 0.188992 0 0.00374557
0.151552 0.368496 0 0.00375382
0.288433 0.27798 3.70071e-18 0.00375421
0.075776 0.394397 0 0.00375264
0.350249 0.199535 0 0.00374766
7.47806e-17 0.403236 0 0.00375
0.219992 0.344091 0 0.0037543
0.350249 0.21046 -3.46945e-18 0.00374949
0.288433 0.291753 0 0.00375504
0.412065 9.08189e-19 3.08149e-33 0.000766817
0.412065 0.00368111 -2.31298e-18 0.000853129
0.412065 0.00749587 -2.31298e-18 0.00175108
0.412065 0.0114491 -2.31298e-18 0.00291727
0.412065 0.0155459 -2.31298e-18 0.00333404
0.412065 0.0197915 0 0.00338731
0.412065 0.0241911 -3.08149e-33 0.00337648
0.412065 0.0264709 0 0.00338358
0.412065 0.0287506 -2.31298e-18 0.00339068
0.412065 0.0334755 -2.31298e-18 0.00343008
0.412065 0.038372 -2.31298e-18 0.00347591
0.151552 0.385557 0 0.00375411
0.412065 0.0434463 0 0.00351806
0.350249 0.221782 0 0.00375111
0.412065 0.0487048 0 0.00355426
0.412065 0.0541543 -3.08149e-33 0.00358458
0.412065 0.0569779 0 0.00359718
0.412065 0.0598016 -2.31298e-18 0.00360979
0.412065 0.0656539 -2.31298e-18 0.00363076
0.412065 0.0717187 -2.31298e-18 0.00364828
0.075776 0.412396 -3.46945e-18 0.00375272
0.412065 0.0780037 -2.31298e-18 0.003663
0.288433 0.306027 0 0.00375582
0.412065 0.0845169 -2.31298e-18 0.00367541
0.350249 0.233516 3.46945e-18 0.00375255
0 0.421557 0 0.00375
0.412065 0.0912666 -2.31298e-18 0.0036859
0.219992 0.360265 3.46945e-18 0.00375478
0.412065 0.0982613 0 0.00369489
0.412065 0.10551 0 0.00370285
0.412065 0.113022 -2.31298e-18 0.00371008
0.350249 0.245675 0 0.00375385
0.412065 0.120806 0 0.00371666
0.151552 0.403236 0 0.0037544
0.288433 0.320819 0 0.00375657
0.412065 0.128874 -2.31298e-18 0.00372266
0.412065 0.137234 0 0.00372812
0.350249 0.258275 -3.46945e-18 0.00375504
0.219992 0.377026 0 0.00375526
0.412065 0.145897 -2.31298e-18 0.00373306
0.075776 0.431051 0 0.00375277
0.412065 0.154876 -2.31298e-18 0.00373751
0 0.440544 0 0.00375
0.288433 0.336148 0 0.00375731
0.350249 0.271334 0 0.00375612
0.412065 0.16418 -2.31298e-18 0.0037415
0.412065 0.173822 -2.31298e-18 0.00374504
0.151552 0.421557 0 0.00375468
0.412065 0.183814 -2.31298e-18 0.00374818
0.350249 0.284867 3.46945e-18 0.00375711
0.219992 0.394397 0 0.00375575
0.288433 0.352034 3.70071e-18 0.00375802
0.412065 0.194169 0 0.00375096
0.075776 0.450382 0 0.0037528
0.412065 0.2049 -2.31298e-18 0.00375341
0 0.46022 0 0.00375
0.350249 0.29889 3.46945e-18 0.00375804
0.412065 0.21602 0 0.00375557
0.151552 0.440544 0 0.00375494
0.219993 0.412396 3.46945e-18 0.00375623
0.467897 0.00184056 -3.46945e-18 0.000661941
0.467897 0.00558849 0 0.00091944
0.288433 0.368496 0 0.00375872
0.467897 0.00947248 0 0.00269408
0.467897 0.0134975 0 0.003438
0.467897 0.0176687 3.46945e-18 0.00349707
0.467897 0.0219913 -3.46945e-18 0.00342336
0.467897 0.0264709 3.46945e-18 0.00337302
0.467897 0.0311131 3.46945e-18 0.00338039
0.467897 0.0359238 -3.46945e-18 0.00341971
0.467897 0.038372 0 0.00345055
0.467897 0.0409092 3.46945e-18 0.00346465
0.350249 0.313423 0 0.00375895
0.467897 0.0460755 0 0.00350672
0.467897 0.0514296 3.46945e-18 0.00354346
0.412065 0.227544 -2.31298e-18 0.00375749
0.467897 0.0569779 0 0.00357469
0.467897 0.0627277 -3.46945e-18 0.00360099
0.467897 0.0686863 3.46945e-18 0.0036231
0.467897 0.0748612 0 0.00364171
0.467897 0.0812603 0 0.00365743
0.467897 0.0878918 3.46945e-18 0.00367073
0.075776 0.470415 3.46945e-18 0.00375281
0.412065 0.239487 -2.31298e-18 0.00375919
0.467897 0.0947639 -3.46945e-18 0.003682
0.467897 0.101886 3.46945e-18 0.00369197
0.350249 0.328483 0 0.00375987
0.467897 0.109266 0 0.00370113
0 0.48061 0 0.00375
0.288433 0.385557 0 0.0037594
0.467897 0.116914 0 0.00370955
0.412065 0.251863 -2.31298e-18 0.0037607
0.219992 0.431051 0 0.00375671
0.467897 0.12484 0 0.00371724
0.151552 0.46022 0 0.00375517
0.467897 0.133054 3.46945e-18 0.00372423
0.467897 0.141566 3.46945e-18 0.00373057
0.412065 0.264688 -2.31298e-18 0.00376204
0.350249 0.344091 -3.46945e-18 0.00376079
0.467897 0.150387 3.46945e-18 0.00373627
0.467897 0.154876 0 0.00374041
0.467897 0.159528 3.46945e-18 0.00374138
0.288433 0.403236 0 0.00376008
0.075776 0.491175 0 0.00375282
0.412065 0.27798 -2.31298e-18 0.00376325
0.467897 0.169001 0 0.00374592
0.467897 0.178818 3.46945e-18 0.00374993
0.219992 0.450382 0 0.00375716
6.73026e-17 0.501741 3.70071e-18 0.00375
0.350249 0.360265 0 0.0037617
0.151552 0.48061 0 0.00375539
0.467897 0.188991 0 0.00375346
0.412065 0.291753 0 0.00376435
0.467897 0.199535 0 0.00375654
0.288433 0.421557 0 0.00376075
0.467897 0.21046 0 0.00375927
0.412065 0.306027 0 0.00376539
0.350249 0.377027 0 0.00376258
0.467897 0.221782 3.46945e-18 0.0037617
0.075776 0.51269 0 0.00375284
0.219993 0.470415 3.46945e-18 0.00375757
0.467897 0.227544 0 0.00376478
0.412065 0.320819 -2.31298e-18 0.00376639
0.467897 0.233515 0 0.00376383
6.73026e-17 0.523639 3.70071e-18 0.00375
0.523729 0 0 0.000603846
0.523729 0.00368111 0 0.000759019
0.523729 0.00749587 -2.31298e-18 0.00188267
0.523729 0.0114491 0 0.00326873
0.523729 0.0155459 0 0.00369282
0.523729 0.0197915 -2.31298e-18 0.00362118
0.151552 0.501741 0 0.00375559
0.523729 0.0241911 0 0.00348417
0.523729 0.0287506 0 0.00340779
0.523729 0.0334755 0 0.00339882
0.523729 0.038372 -3.08149e-33 0.00342518
0.523729 0.0434463 0 0.00346281
0.523729 0.0487048 0 0.00350141
0.523729 0.0541543 0 0.00353689
0.288433 0.440544 0 0.0037614
0.523729 0.0598016 0 0.00356807
0.350249 0.394397 -3.46945e-18 0.00376345
0.523729 0.0656539 0 0.00359494
0.467897 0.245675 0 0.0037657
0.523729 0.0717187 0 0.00361791
0.523729 0.0780037 0 0.00363746
0.523729 0.0845169 0 0.00365406
0.523729 0.0912666 0 0.00366827
0.412065 0.336148 0 0.00376738
0.523729 0.0982613 0 0.00368084
0.523729 0.10551 -2.31298e-18 0.00369232
0.467897 0.258275 -3.46945e-18 0.00376734
0.523729 0.113022 0 0.00370288
0.523729 0.120806 -3.08149e-33 0.00371258
0.219993 0.491176 0 0.00375796
0.523729 0.12484 0 0.00371701
0.523729 0.128874 -2.31298e-18 0.00372144
0.075776 0.534986 0 0.00375287
0.467897 0.271334 3.46945e-18 0.00376878
0.350249 0.412396 -3.46945e-18 0.0037643
0.523729 0.137234 0 0.0037295
0.412065 0.352034 -2.31298e-18 0.00376836
0.288433 0.46022 0 0.00376202
0.523729 0.145897 0 0.00373678
0.151552 0.523639 0 0.00375578
0.523729 0.154876 -3.08149e-33 0.00374332
0 0.546332 0 0.00375
0.523729 0.159528 0 0.00374623
0.467897 0.284867 -3.46945e-18 0.00377007
0.523729 0.16418 -2.31298e-18 0.00374915
0.523729 0.173822 0 0.00375432
0.412065 0.368496 0 0.00376932
0.523729 0.183814 0 0.00375887
0.467897 0.29889 0 0.00377125
0.350249 0.431051 -3.46945e-18 0.00376514
0.219992 0.51269 0 0.00375832
0.523729 0.194169 0 0.00376286
0.288433 0.48061 0 0.0037626
0.523729 0.2049 0 0.00376634
0.467897 0.313423 3.46945e-18 0.00377236
0.075776 0.558091 0 0.00375291
0.412065 0.385557 0 0.00377027
0.523729 0.21602 -3.08149e-33 0.0037694
0.151552 0.546332 0 0.00375597
0 0.569849 0 0.00375
0.350249 0.450382 3.46945e-18 0.00376595
0.523729 0.227544 -3.08149e-33 0.00377206
0.467897 0.328483 0 0.00377343
0.523729 0.231525 1.54074e-33 0.00377283
0.574156 0.00184056 0 0.000549563
0.574156 0.00558849 0 0.000909294
0.574157 0.00947248 0 0.00299798
0.574156 0.0134975 -3.46945e-18 0.00391832
0.574156 0.0176687 -3.46945e-18 0.00388835
0.574156 0.0219913 0 0.00365483
0.574156 0.0264708 -3.46945e-18 0.00347418
0.574156 0.031113 0 0.00339949
0.574156 0.0359238 -3.46945e-18 0.00339586
0.574157 0.0409092 0 0.00342274
0.523729 0.239487 3.70071e-18 0.00377438
0.574156 0.0460755 -3.46945e-18 0.00346014
0.574156 0.0514295 0 0.00349843
0.412065 0.403236 0 0.00377121
0.574157 0.0569779 0 0.00353388
0.574156 0.0627277 0 0.00356531
0.574156 0.0686863 0 0.00359262
0.219992 0.534986 0 0.00375866
0.288433 0.501741 0 0.00376315
0.574156 0.0748612 3.46945e-18 0.00361612
0.574156 0.0812603 0 0.00363619
0.467897 0.344091 0 0.00377447
0.574156 0.0878917 3.46945e-18 0.00365322
0.523729 0.251863 0 0.00377638
0.574157 0.0947639 0 0.00366819
0.574156 0.101886 0 0.003682
0.574156 0.109266 0 0.00369472
0.574156 0.116914 0 0.00370644
0.412065 0.416977 -6.16298e-33 0.00377191
0.350249 0.470415 0 0.00376672
0.523729 0.264688 0 0.00377812
0.075776 0.582034 0 0.00375296
0.574156 0.12484 0 0.00371719
0.574156 0.133054 3.46945e-18 0.00372701
0.412065 0.421557 -2.31298e-18 0.00377214
0.151552 0.569849 0 0.00375616
0.467897 0.360265 -3.46945e-18 0.0037755
0.574157 0.141566 -3.46945e-18 0.00373591
0.523729 0.27798 0 0.00377964
0.574156 0.150386 3.46945e-18 0.00374393
0 0.594219 0 0.00375
0.574156 0.159528 -3.46945e-18 0.00375111
0.574156 0.16418 0 0.0037558
0.288433 0.523639 1.2326e-32 0.00376366
0.574157 0.169001 0 0.00375748
0.523729 0.291753 0 0.00378098
0.219993 0.558091 3.46945e-18 0.00375898
0.467897 0.377026 0 0.00377652
0.574156 0.178818 3.46945e-18 0.00376311
0.412065 0.440544 -2.31298e-18 0.00377305
0.350249 0.491175 0 0.00376746
0.574156 0.188992 3.46945e-18 0.00376805
0.523729 0.306027 -3.08149e-33 0.0037822
0.574157 0.199535 0 0.00377236
0.574157 0.21046 0 0.0037761
0.075776 0.606847 0 0.00375302
0.467897 0.394397 0 0.00377754
0.151552 0.594219 0 0.00375635
0.523729 0.320819 0 0.00378333
0.574157 0.221782 -3.46945e-18 0.00377935
0.412065 0.46022 3.08149e-33 0.00377394
0.288433 0.546332 0 0.00376414
0 0.619475 0 0.00375
0.574156 0.233515 3.46945e-18 0.00378215
0.350249 0.51269 3.46945e-18 0.00376814
0.219992 0.582034 3.46945e-18 0.0037593
0.523729 0.336148 0 0.0037844
0.467897 0.412396 0 0.00377855
0.574156 0.245675 0 0.00378456
0.624584 0 0 0.00051006
0.624584 0.00368111 0 0.000709762
0.624584 0.00749587 0 0.00201955
0.624584 0.0114491 0 0.00364651
0.624584 0.0155459 0 0.00415382
0.624584 0.0197915 0 0.00399126
0.624584 0.0241911 -2.31298e-18 0.00371137
0.624584 0.0287506 0 0.0035168
0.624584 0.0334755 0 0.0034298
0.624584 0.038372 0 0.00341468
0.624584 0.0434463 -2.31298e-18 0.00343332
0.624584 0.0487048 0 0.00346546
0.624584 0.0541543 0 0.00350086
0.624584 0.0598016 0 0.00353489
0.624584 0.0656539 0 0.00356579
0.624584 0.0717187 0 0.00359308
0.624584 0.0780037 0 0.00361677
0.574157 0.258276 3.46945e-18 0.00378663
0.624584 0.0845169 0 0.00363718
0.523729 0.352034 0 0.00378544
0.624584 0.0912666 0 0.00365507
0.624584 0.0982613 0 0.0036714
0.412065 0.48061 3.08149e-33 0.0037748
0.624584 0.10551 0 0.00368656
0.624584 0.113022 -2.31298e-18 0.00370056
0.574156 0.271334 0 0.00378841
0.624584 0.120806 0 0.00371344
0.467897 0.431051 0 0.00377956
0.075776 0.632561 -3.46945e-18 0.00375309
0.624584 0.128874 0 0.00372526
0.151552 0.619475 0 0.00375653
0.288433 0.569849 0 0.00376459
0.350249 0.534985 0 0.00376878
0.624584 0.137234 -2.31298e-18 0.00373604
0.523729 0.368496 0 0.00378646
0.574156 0.284866 -3.46945e-18 0.00378995
0.624584 0.145897 0 0.00374581
0.467897 0.440544 0 0.00378177
0.624584 0.154876 0 0.0037546
0.219992 0.606847 -3.46945e-18 0.0037596
0 0.645647 0 0.00375
0.624584 0.16418 -3.08149e-33 0.00376244
0.574156 0.29889 -3.46945e-18 0.00379131
0.624584 0.173822 0 0.00376939
0.412065 0.501741 1.54074e-33 0.0037756
0.467897 0.450382 -3.46945e-18 0.00378055
0.523729 0.385557 0 0.00378747
0.624584 0.183814 0 0.00377551
0.624584 0.194169 0 0.00378085
0.574156 0.313423 0 0.00379253
0.624584 0.2049 0 0.00378549
0.350249 0.558091 3.46945e-18 0.00376937
0.288433 0.594219 0 0.00376502
0.624584 0.21602 0 0.0037895
0.523729 0.403236 0 0.00378847
0.574156 0.328483 -3.46945e-18 0.00379365
0.151552 0.645647 0 0.00375672
0.467897 0.470415 3.46945e-18 0.00378151
0.075776 0.659208 0 0.00375315
0.624584 0.227544 0 0.00379294
0.412065 0.523639 0 0.00377635
0.523729 0.41545 3.08149e-33 0.00378914
0.624584 0.239487 3.70071e-18 0.00379588
0.574156 0.344091 0 0.00379471
0.219992 0.632561 0 0.0037599
0.67013 0.00184055 0 0.000472974
0.67013 0.00558849 0 0.000909633
0.67013 0.00947248 0 0.00325331
0.67013 0.0134975 0 0.00439345
0.67013 0.0176687 -3.46945e-18 0.00438456
0.67013 0.0219913 0 0.00401044
0.67013 0.0264708 3.46945e-18 0.00368804
0.67013 0.0311131 0 0.00349572
0.67013 0.0359237 0 0.0034242
0.67013 0.0409092 -3.46945e-18 0.00341528
0.67013 0.0460755 0 0.00343614
0.67013 0.0514296 3.46945e-18 0.00346885
0.523729 0.421557 -2.31298e-18 0.00378948
0.67013 0.056978 0 0.00350416
0 0.67277 0 0.00375
0.67013 0.0627277 0 0.00353802
0.624584 0.251863 0 0.00379838
0.67013 0.0686863 0 0.00356884
0.67013 0.0748612 3.46945e-18 0.00359612
0.67013 0.0812603 0 0.00361981
0.67013 0.0878917 0 0.00364042
0.67013 0.0947639 3.46945e-18 0.00365914
0.574156 0.360265 0 0.00379573
0.67013 0.101886 0 0.00367672
0.523729 0.431051 0 0.00378998
0.624584 0.264688 0 0.00380051
0.467897 0.491175 0 0.00378244
0.67013 0.109266 3.46945e-18 0.00369303
0.350249 0.582034 0 0.00376992
0.67013 0.116914 0 0.00370805
0.67013 0.12484 0 0.00372188
0.67013 0.133054 0 0.00373457
0.288433 0.619475 0 0.00376542
0.624584 0.27798 -3.08149e-33 0.00380231
0.412065 0.546332 1.54074e-33 0.00377705
0.523729 0.440544 -3.08149e-33 0.00379048
0.67013 0.141566 3.46945e-18 0.00374612
0.685312 0.0241911 -7.70372e-34 0.00393663
0.685312 0.0434463 -7.70372e-34 0.00343545
0.67013 0.150387 0 0.00375657
0.574156 0.377026 -3.46945e-18 0.00379673
0.67013 0.159528 0 0.00376593
0.624584 0.291753 0 0.00380386
0.151552 0.67277 0 0.0037569
0.075776 0.686823 0 0.00375322
0.67013 0.169001 0 0.00377426
0.67013 0.178818 0 0.00378161
0.467897 0.51269 0 0.0037833
0.685312 0.113022 -7.70372e-34 0.00370183
0.219992 0.659208 0 0.00376019
0.624584 0.306027 0 0.0038052
0.67013 0.188991 0 0.00378805
0.574156 0.394397 3.46945e-18 0.00379773
0.523729 0.46022 0 0.00379146
0.685312 0.137234 -7.70372e-34 0.00374322
0.67013 0.199535 -3.46945e-18 0.00379365
0.350249 0.606847 0 0.00377044
0 0.700877 0 0.00375
0.624584 0.320819 0 0.00380639
0.67013 0.21046 0 0.00379849
0.412065 0.569849 -2.31298e-18 0.00377769
0.67013 0.221782 -3.46945e-18 0.00380263
0.574157 0.412396 0 0.00379873
0.288433 0.645647 0 0.00376581
0.624584 0.336148 -3.08149e-33 0.00380747
0.67013 0.233515 3.46945e-18 0.00380616
0.467897 0.534986 0 0.00378411
0.523729 0.48061 0 0.00379241
0.624584 0.344091 0 0.00380797
0.67013 0.245675 0 0.00380914
0.715676 4.54095e-19 0 0.000442999
0.715676 0.00368111 0 0.0006756
0.715676 0.00749587 0 0.00212904
0.715676 0.0114491 0 0.00397781
0.715676 0.0155459 0 0.00462632
0.715676 0.0197915 0 0.00444533
0.715676 0.0241911 0 0.00404926
0.715676 0.0287506 0 0.00372492
0.715676 0.0334755 0 0.00353381
0.715676 0.038372 0 0.00345321
0.624584 0.352034 -2.31298e-18 0.00380847
0.715676 0.0434463 0 0.00343652
0.151552 0.700877 0 0.00375708
0.715676 0.0487048 0 0.00345155
0.715676 0.0541543 0 0.00347996
0.574156 0.43105 0 0.00379973
0.715676 0.0598016 0 0.00351259
0.67013 0.258275 0 0.00381165
0.715676 0.0656539 0 0.00354487
0.715676 0.0717187 0 0.00357478
0.075776 0.715441 0 0.0037533
0.715676 0.0780037 0 0.00360152
0.715676 0.0845169 0 0.00362513
0.219992 0.686824 0 0.00376048
0.715676 0.0912666 0 0.00364646
0.715676 0.0982613 0 0.00366638
0.67013 0.271334 -3.46945e-18 0.00381376
0.350249 0.632561 -3.46945e-18 0.00377093
0.412065 0.594219 3.08149e-33 0.00377828
0.715676 0.10551 0 0.00368509
0.715676 0.113022 0 0.00370246
0.624584 0.368496 0 0.00380943
0.523729 0.501741 0 0.00379332
0.715676 0.120806 0 0.0037185
0.715676 0.128874 0 0.00373328
0.67013 0.284867 0 0.00381554
0.467897 0.558091 3.46945e-18 0.00378485
0.715676 0.137234 0 0.00374682
0.574156 0.450382 0 0.00380073
0 0.730005 0 0.00375
0.715676 0.145897 0 0.00375913
0.288433 0.67277 0 0.00376618
0.715676 0.154876 0 0.00377024
0.67013 0.29889 0 0.00381704
0.624584 0.385557 0 0.00381037
0.715676 0.16418 -9.25187e-19 0.00378019
0.715676 0.173822 0 0.00378901
0.715676 0.183814 0 0.00379678
0.67013 0.313423 0 0.00381832
0.523729 0.523639 0 0.00379417
0.715676 0.194169 0 0.00380356
0.574156 0.470415 3.46945e-18 0.00380171
0.624584 0.403236 0 0.0038113
0.743101 0.0241911 -7.70372e-34 0.00418981
0.412065 0.619475 3.08149e-33 0.00377882
0.715676 0.2049 0 0.00380943
0.151552 0.730005 0 0.00375726
0.67013 0.328484 3.46945e-18 0.00381945
0.350249 0.659208 0 0.00377138
0.467897 0.582034 0 0.00378552
0.715676 0.21602 0 0.00381446
0.219992 0.715441 0 0.00376075
0.075776 0.745097 -3.46945e-18 0.00375337
0.715676 0.227544 0 0.00381875
0.67013 0.344091 0 0.00382046
0.624584 0.421557 0 0.00381223
0.743101 0.128874 -7.70372e-34 0.00373701
0.715676 0.239487 3.70071e-18 0.00382237
0.574156 0.491175 0 0.00380266
0.756814 0.00184055 0 0.000414717
0.523729 0.546332 0 0.00379496
0.756813 0.00558849 0 0.000906867
0.756813 0.00947248 0 0.00344109
0.756814 0.0134975 -3.46945e-18 0.00480599
0.756814 0.0155459 0 0.00483362
0.756814 0.0176687 0 0.00489451
0.756814 0.0219913 0 0.00446383
0.756814 0.0264709 0 0.00401215
0.756814 0.031113 -3.46945e-18 0.00368876
0.756813 0.0359238 -3.46945e-18 0.00351822
0.288433 0.700877 0 0.00376652
0.756814 0.0409092 -3.46945e-18 0.00345138
0.756813 0.0460755 3.46945e-18 0.00344206
0.756813 0.0514296 0 0.00345926
0.715676 0.251863 0 0.0038254
0.756813 0.0569779 0 0.00348832
0.756814 0.0627277 -3.46945e-18 0.00352083
0.756814 0.0686863 -3.46945e-18 0.00355276
0 0.76019 0 0.00375
0.756814 0.0748612 0 0.00358228
0.67013 0.360265 3.46945e-18 0.00382139
0.756814 0.0812603 -3.46945e-18 0.0036086
0.756814 0.0878917 -3.46945e-18 0.00363225
0.756814 0.0947639 -3.46945e-18 0.00365441
0.715676 0.264688 0 0.00382793
0.756813 0.101886 0 0.00367544
0.624584 0.440544 0 0.00381316
0.756813 0.109266 3.46945e-18 0.00369515
0.756813 0.116914 3.46945e-18 0.00371341
0.412065 0.645647 0 0.00377932
0.467897 0.606847 0 0.00378614
0.756814 0.120806 0 0.00372265
0.756813 0.12484 0 0.00373028
0.715676 0.27798 0 0.00383002
0.756814 0.133054 -3.46945e-18 0.00374582
0.67013 0.377026 -3.46945e-18 0.00382228
0.756814 0.137234 0 0.00375376
0.574156 0.51269 0 0.00380356
0.756813 0.141566 3.46945e-18 0.00376003
0.685312 0.352034 -7.70372e-34 0.00382707
0.743101 0.2049 -7.70372e-34 0.00381854
0.350249 0.686824 0 0.00377181
0.756814 0.150387 0 0.00377293
0.756814 0.154876 0 0.00377963
0.715676 0.291753 0 0.00383175
0.756814 0.159528 -3.46945e-18 0.00378454
0.523729 0.569849 0 0.00379567
0.72743 0.264688 0 0.00383237
0.756814 0.16418 0 0.00379065
0.151552 0.76019 0 0.00375743
0.756813 0.169001 3.46945e-18 0.0037949
0.624584 0.46022 0 0.00381409
0.219993 0.745097 0 0.00376102
0.67013 0.394396 0 0.00382315
0.756813 0.178818 -3.46945e-18 0.00380405
0.715676 0.306027 0 0.0038332
0.075776 0.775831 0 0.00375345
0.756813 0.188991 0 0.00381208
0.756814 0.199535 0 0.00381904
0.715676 0.320819 0 0.00383441
0.574156 0.534985 0 0.00380439
0.288433 0.730005 0 0.00376685
0.756813 0.21046 0 0.00382504
0.467897 0.632561 0 0.00378669
0.67013 0.412396 -3.46945e-18 0.00382402
0.624584 0.48061 -3.08149e-33 0.003815
0.756814 0.221782 0 0.00383015
0.412065 0.67277 3.08149e-33 0.00377978
0.715676 0.336148 0 0.00383545
0 0.791472 0 0.00375
0.756813 0.233516 3.46945e-18 0.00383446
0.523729 0.594219 0 0.0037963
0.624584 0.487654 1.54074e-33 0.00381529
0.756814 0.245675 3.46945e-18 0.00383808
0.350249 0.715441 3.46945e-18 0.00377221
0.67013 0.43105 0 0.00382489
0.715676 0.352034 -9.25187e-19 0.00383637
0.797951 9.08189e-19 -3.08149e-33 0.000390902
0.797951 0.00368111 2.31298e-18 0.00064393
0.797951 0.00749587 2.31298e-18 0.00219401
0.797951 0.0114491 2.31298e-18 0.00422277
0.797951 0.0141803 7.70372e-34 0.00476821
0.797951 0.0155459 0 0.00504093
0.797951 0.0169611 7.70372e-34 0.00500188
0.797951 0.0197915 2.31298e-18 0.00492378
0.797951 0.0219913 0 0.00469734
0.797951 0.0241911 3.08149e-33 0.00447091
0.797951 0.0264709 0 0.00424841
0.797951 0.0287506 -3.08149e-33 0.00402591
0.797951 0.0334755 2.31298e-18 0.00371635
0.797951 0.038372 2.31298e-18 0.00354905
0.797951 0.0434463 2.31298e-18 0.00347839
0.797951 0.0487048 0 0.00346343
0.756813 0.258275 -3.46945e-18 0.00384107
0.797951 0.0541543 2.31298e-18 0.00347687
0.797951 0.0598016 2.31298e-18 0.00350291
0.797951 0.0656539 2.31298e-18 0.00353325
0.574156 0.55809 0 0.00380515
0.624584 0.501741 0 0.00381587
0.797951 0.0717187 2.31298e-18 0.00356367
0.797951 0.0780037 -3.08149e-33 0.00359206
0.797951 0.0845169 2.31298e-18 0.00361795
0.797951 0.0912666 -3.08149e-33 0.00364213
0.797951 0.0982613 2.31298e-18 0.00366523
0.756813 0.271334 0 0.00384353
0.797951 0.10551 2.31298e-18 0.00368715
0.715676 0.368496 0 0.00383721
0.151552 0.791472 0 0.00375759
0.797951 0.113022 2.31298e-18 0.00370771
0.219992 0.775831 3.46945e-18 0.00376128
0.797951 0.118211 7.70372e-34 0.00372044
0.770526 0.239487 1.54074e-33 0.00384242
0.797951 0.120806 0 0.0037268
0.67013 0.450382 3.46945e-18 0.00382576
0.797951 0.128874 3.08149e-33 0.00374446
0.467897 0.659208 0 0.00378719
0.756813 0.284866 -3.46945e-18 0.00384554
0.743101 0.320819 -7.70372e-34 0.00384499
0.797951 0.137234 0 0.00376071
0.797951 0.141566 0 0.00376814
0.797951 0.145897 -9.25187e-19 0.00377556
0.523729 0.619475 0 0.00379687
0.075776 0.807681 0 0.00375352
0.797951 0.150387 0 0.00378229
0.797951 0.154876 0 0.00378902
0.715676 0.385557 0 0.003838
0.412065 0.700877 3.08149e-33 0.00378019
0.288433 0.76019 0 0.00376716
0.756813 0.29889 0 0.00384718
0.797951 0.16418 0 0.0038011
0.624584 0.523639 0 0.00381669
0.797951 0.167394 7.70372e-34 0.00380469
0.797951 0.173822 2.31298e-18 0.00381185
0.574156 0.582034 0 0.00380582
0.67013 0.470415 0 0.00382663
0.797951 0.183814 2.31298e-18 0.00382133
0.756813 0.313423 -3.46945e-18 0.00384852
0.797951 0.194169 -9.25187e-19 0.00382961
0.715676 0.403236 0 0.00383877
0.151552 0.807681 0 0.00375767
0.797951 0.197746 -7.70372e-34 0.003832
0.350249 0.745097 0 0.00377258
0.797951 0.2049 3.08149e-33 0.00383677
0 0.823889 0 0.00375
0.756813 0.328483 -3.46945e-18 0.00384963
0.797951 0.21046 0 0.00383984
0.797951 0.21602 -3.08149e-33 0.0038429
0.797951 0.223703 7.70372e-34 0.00384637
0.797951 0.227544 9.25187e-19 0.0038481
0.624584 0.546332 0 0.00381743
0.715676 0.421557 0 0.00383953
0.67013 0.491176 -3.46945e-18 0.00382747
0.797951 0.231525 7.70372e-34 0.00384955
0.467897 0.686824 -3.46945e-18 0.00378763
0.523729 0.645647 0 0.00379736
0.756813 0.344091 -3.46945e-18 0.00385056
0.822721 0.120806 7.70372e-34 0.00373034
0.797951 0.239487 -3.08149e-33 0.00385245
0.822721 0.137234 7.70372e-34 0.00376605
0.835106 0.00184056 0 0.000368318
0.835106 0.00558849 0 0.00088758
0.835106 0.00947248 0 0.00353857
0.835106 0.0134975 0 0.00509528
0.835107 0.0176687 0 0.00534827
0.835106 0.0219913 -3.46945e-18 0.00496327