# kMean  POINT_DATA 63140
# x  y  z  kMean
0 0.1 0 0.00375
0 0.1 -0.0179898 0.00375
0 0.1 0.0179898 0.00375
0.0363518 0.1 0.0179898 0.00374678
0.0363518 0.1 -0.0179898 0.00374643
0 0.1 -0.0570102 0.00375
0 0.1 0.0570102 0.00375
0.0363518 0.1 0.0570102 0.00374678
0.0363518 0.1 -0.0570102 0.00374643
0 0.1 -0.075 0.00375
0 0.1 0.075 0.00375
0.075776 0.1 -0.0375 0.00374225
0.075776 0.1 0.0375 0.00374296
0 0.1 -0.0929898 0.00375
0 0.1 0.0929898 0.00375
0.0363518 0.1 -0.0929898 0.00374614
0.0363518 0.1 0.0929898 0.00374719
0 0.1 -0.13201 0.00375
0 0.1 0.13201 0.00375
0.075776 0.1 -0.1125 0.00374167
0.075776 0.1 0.1125 0.00374379
0.0363518 0.1 -0.13201 0.00374614
0.0363518 0.1 0.13201 0.00374719
0 0.1 -0.15 0.00375
0 0.1 0.15 0.00375
0.150379 0.1 -2.22623e-17 0.00373266
0 0.1 -0.16799 0.00375
0 0.1 0.16799 0.00375
0.150379 0.1 -0.075 0.0037319
0.150379 0.1 0.075 0.00373381
0.0363518 0.1 -0.16799 0.00374601
0.0363518 0.1 0.16799 0.00374764
0.075776 0.1 -0.1875 0.00374139
0.075776 0.1 0.1875 0.00374473
0 0.1 -0.20701 0.00375
0 0.1 0.20701 0.00375
0.0363518 0.1 -0.20701 0.00374601
0.0363518 0.1 0.20701 0.00374764
0.150379 0.1 -0.15 0.00373156
0.150379 0.1 0.15 0.00373527
0.219993 0.1 -0.0375 0.00372256
0.219993 0.1 0.0375 0.00372376
0 0.1 -0.225 0.00375
0 0.1 0.225 0.00375
0 0.1 -0.24299 0.00375
0 0.1 0.24299 0.00375
0.0363518 0.1 0.24299 0.00374814
0.0363518 0.1 -0.24299 0.00374605
0.219993 0.1 -0.1125 0.00372202
0.219993 0.1 0.1125 0.0037256
0.150379 0.1 -0.225 0.00373174
0.150379 0.1 0.225 0.00373686
0.075776 0.1 -0.2625 0.00374149
0.075776 0.1 0.2625 0.00374575
0 0.1 -0.28201 0.00375
0 0.1 0.28201 0.00375
0.0363518 0.1 -0.28201 0.00374605
0.0363518 0.1 0.28201 0.00374814
0.287374 0.1 -2.89121e-19 0.00371386
0.219992 0.1 0.1875 0.00372779
0.219992 0.1 -0.1875 0.00372206
0.287374 0.1 -0.075 0.00371337
0.287374 0.1 0.075 0.00371501
0 0.1 -0.3 0.00375
0 0.1 0.3 0.00375
0 0.1 0.31799 0.00375
0 0.1 -0.31799 0.00375
0.0363518 0.1 -0.31799 0.00374623
0.0363518 0.1 0.31799 0.00374865
0.287374 0.1 0.15 0.00371671
0.287374 0.1 -0.15 0.00371354
0.150379 0.1 -0.3 0.00373247
0.150379 0.1 0.3 0.00373847
0.219993 0.1 0.2625 0.00372991
0.219993 0.1 -0.2625 0.0037229
0.075776 0.1 -0.3375 0.00374187
0.075776 0.1 0.3375 0.0037468
0.350249 0.1 -0.0375 0.0037047
0.350249 0.1 0.0375 0.00370518
0 0.1 -0.35701 0.00375
0 0.1 0.35701 0.00375
0.0363518 0.1 -0.35701 0.00374623
0.0363518 0.1 0.35701 0.00374865
0.287374 0.1 -0.225 0.0037144
0.287374 0.1 0.225 0.00371874
0.350249 0.1 -0.1125 0.00370494
0.350249 0.1 0.1125 0.00370631
0 0.1 -0.375 0.00375
0 0.1 0.375 0.00375
0 0.1 -0.39299 0.00375
0 0.1 0.39299 0.00375
0.0363518 0.1 -0.39299 0.00374654
0.0363518 0.1 0.39299 0.00374914
0.350249 0.1 -0.1875 0.00370585
0.350249 0.1 0.1875 0.00370799
0.219992 0.1 -0.3375 0.00372447
0.219992 0.1 0.3375 0.00373211
0.150379 0.1 0.375 0.00374008
0.150379 0.1 -0.375 0.0037337
0.411108 0.1 4.33681e-19 0.00369699
0.287374 0.1 -0.3 0.00371593
0.287374 0.1 0.3 0.00372097
0.411108 0.1 -0.075 0.0036973
0.411108 0.1 0.075 0.00369734
0.075776 0.1 -0.4125 0.0037425
0.075776 0.1 0.4125 0.0037478
0 0.1 0.43201 0.00375
0 0.1 -0.43201 0.00375
0.0363518 0.1 0.43201 0.00374914
0.0363518 0.1 -0.43201 0.00374654
0.411108 0.1 -0.15 0.00369823
0.411108 0.1 0.15 0.00369829
0.350249 0.1 -0.2625 0.00370745
0.350249 0.1 0.2625 0.00371011
0 0.1 -0.45 0.00375
0 0.1 0.45 0.00375
0.219992 0.1 0.4125 0.00373424
0.219992 0.1 -0.4125 0.0037267
0 0.1 -0.46799 0.00375
0 0.1 0.46799 0.00375
0.411108 0.1 -0.225 0.00369972
0.411108 0.1 0.225 0.00369979
0.467897 0.1 -0.0375 0.00368953
0.467897 0.1 0.0375 0.00368912
0.0363518 0.1 0.46799 0.00374953
0.0363518 0.1 -0.46799 0.0037469
0.287374 0.1 -0.375 0.00371799
0.287374 0.1 0.375 0.00372333
0.150379 0.1 0.45 0.00374153
0.150379 0.1 -0.45 0.00373524
0.467897 0.1 0.1125 0.00368934
0.467897 0.1 -0.1125 0.00369055
0.350249 0.1 -0.3375 0.00370956
0.350249 0.1 0.3375 0.00371259
0.075776 0.1 -0.4875 0.00374323
0.075776 0.1 0.4875 0.00374862
0.467897 0.1 0.1875 0.00369018
0.467897 0.1 -0.1875 0.00369209
0 0.1 -0.50701 0.00375
0 0.1 0.50701 0.00375
0.0363518 0.1 -0.50701 0.0037469
0.0363518 0.1 0.50701 0.00374953
0.411108 0.1 0.3 0.00370177
0.411108 0.1 -0.3 0.00370163
0.522865 0.1 1.41031e-17 0.00368376
0 0.1 -0.525 0.00375
0 0.1 0.525 0.00375
0.522865 0.1 -0.075 0.00368479
0.522865 0.1 0.075 0.00368324
0.287374 0.1 0.45 0.00372561
0.287374 0.1 -0.45 0.00372026
0.219992 0.1 0.4875 0.00373606
0.219992 0.1 -0.4875 0.00372921
0.467897 0.1 -0.2625 0.00369399
0.467897 0.1 0.2625 0.00369156
0.350249 0.1 -0.4125 0.00371187
0.350249 0.1 0.4125 0.00371519
0 0.1 -0.54299 0.00375
0 0.1 0.54299 0.00375
0.522865 0.1 0.15 0.00368329
0.522865 0.1 -0.15 0.00368622
0.0363518 0.1 0.54299 0.00374984
0.0363518 0.1 -0.54299 0.00374724
0.150379 0.1 -0.525 0.00373654
0.150379 0.1 0.525 0.00374266
0.411108 0.1 -0.375 0.0037037
0.411108 0.1 0.375 0.00370412
0.075776 0.1 -0.5625 0.00374392
0.075776 0.1 0.5625 0.00374924
0.522865 0.1 -0.225 0.00368792
0.522865 0.1 0.225 0.00368389
0.574156 0.1 0.0375 0.00367777
0.574157 0.1 -0.0375 0.00367892
0.467897 0.1 -0.3375 0.003696
0.467897 0.1 0.3375 0.00369352
0 0.1 -0.58201 0.00375
0 0.1 0.58201 0.00375
0.0363518 0.1 -0.58201 0.00374724
0.0363518 0.1 0.58201 0.00374984
0.574157 0.1 -0.1125 0.00368041
0.574157 0.1 0.1125 0.00367707
0.287374 0.1 -0.525 0.00372201
0.287374 0.1 0.525 0.00372754
0 0.1 -0.6 0.00375
0 0.1 0.6 0.00375
0.350249 0.1 0.4875 0.00371771
0.350249 0.1 -0.4875 0.00371391
0.522865 0.1 -0.3 0.00368968
0.522865 0.1 0.3 0.00368506
0.219992 0.1 -0.5625 0.00373045
0.219992 0.1 0.5625 0.00373728
0.574156 0.1 -0.1875 0.0036821
0.574156 0.1 0.1875 0.00367691
0.411108 0.1 0.45 0.00370665
0.411108 0.1 -0.45 0.00370562
0 0.1 -0.61799 0.00375
0 0.1 0.61799 0.00375
0.150379 0.1 -0.6 0.00373744
0.150379 0.1 0.6 0.00374346
0.0363518 0.1 -0.61799 0.00374755
0.0363518 0.1 0.61799 0.00375008
0.467897 0.1 -0.4125 0.00369789
0.467897 0.1 0.4125 0.00369591
0.623803 0.1 2.34188e-17 0.00367519
0.623803 0.1 0.075 0.00367399
0.623803 0.1 -0.075 0.00367663
0.574156 0.1 0.2625 0.00367732
0.574156 0.1 -0.2625 0.00368377
0.623803 0.1 0.15 0.00367314
0.623803 0.1 -0.15 0.00367815
0.075776 0.1 0.6375 0.00374975
0.075776 0.1 -0.6375 0.00374455
0.522865 0.1 -0.375 0.00369129
0.522865 0.1 0.375 0.00368675
0 0.1 0.65701 0.00375
0 0.1 -0.65701 0.00375
0.0363518 0.1 0.65701 0.00375008
0.0363518 0.1 -0.65701 0.00374755
0.350249 0.1 0.5625 0.00371983
0.350249 0.1 -0.5625 0.00371512
0.623803 0.1 0.225 0.00367273
0.623803 0.1 -0.225 0.00367959
0.287374 0.1 -0.6 0.00372307
0.287374 0.1 0.6 0.00372899
0.574157 0.1 -0.3375 0.00368523
0.574157 0.1 0.3375 0.00367827
0.411108 0.1 0.525 0.00370909
0.411108 0.1 -0.525 0.00370701
0.67013 0.1 0.0375 0.00367128
0.67013 0.1 -0.0375 0.00367284
0.219992 0.1 -0.6375 0.00373144
0.219993 0.1 0.6375 0.00373812
0 0.1 -0.675 0.00375
0 0.1 0.675 0.00375
0.467897 0.1 -0.4875 0.00369933
0.467897 0.1 0.4875 0.00369851
0.67013 0.1 -0.1125 0.00367438
0.67013 0.1 0.1125 0.00366988
0.522865 0.1 0.45 0.00368886
0.522865 0.1 -0.45 0.00369255
0.150379 0.1 0.675 0.00374409
0.150379 0.1 -0.675 0.00373818
0.623803 0.1 0.3 0.00367283
0.623803 0.1 -0.3 0.00368078
0 0.1 -0.69299 0.00375
0 0.1 0.69299 0.00375
0.0363518 0.1 -0.69299 0.00374782
0.0363518 0.1 0.69299 0.0037503
0.67013 0.1 -0.1875 0.00367575
0.67013 0.1 0.1875 0.00366876
0.574156 0.1 0.4125 0.00367977
0.574157 0.1 -0.4125 0.00368634
0.714971 0.1 -2.8382e-17 0.00367101
0.075776 0.1 -0.7125 0.00374511
0.075776 0.1 0.7125 0.00375018
0.714971 0.1 -0.075 0.00367248
0.714971 0.1 0.075 0.00366943
0.67013 0.1 0.2625 0.00366806
0.67013 0.1 -0.2625 0.00367679
0.411108 0.1 -0.6 0.00370786
0.411108 0.1 0.6 0.00371121
0.350249 0.1 0.6375 0.00372145
0.350249 0.1 -0.6375 0.00371594
0.623803 0.1 0.375 0.00367346
0.623803 0.1 -0.375 0.0036816
0.714971 0.1 -0.15 0.00367369
0.714971 0.1 0.15 0.0036679
0.467897 0.1 -0.5625 0.00370021
0.467897 0.1 0.5625 0.00370103
0 0.1 -0.73201 0.00375
0 0.1 0.73201 0.00375
0.0363518 0.1 0.73201 0.0037503
0.0363518 0.1 -0.73201 0.00374782
0.287374 0.1 -0.675 0.00372386
0.287374 0.1 0.675 0.0037301
0.522865 0.1 -0.525 0.00369332
0.522865 0.1 0.525 0.00369117
0.219993 0.1 -0.7125 0.00373221
0.219992 0.1 0.7125 0.00373883
0.714971 0.1 -0.225 0.00367452
0.714971 0.1 0.225 0.00366657
0 0.1 0.75 0.00375
0 0.1 -0.75 0.00375
0.67013 0.1 -0.3375 0.0036774
0.67013 0.1 0.3375 0.00366784
0.574156 0.1 -0.4875 0.00368697
0.574157 0.1 0.4875 0.00368174
0.756813 0.1 0.0375 0.00366909
0.756814 0.1 -0.0375 0.00367066
0.150379 0.1 0.746002 0.0037447
0.150379 0.1 -0.75 0.00373875
0.756813 0.1 -0.1125 0.00367187
0.756813 0.1 0.1125 0.0036673
0 0.1 0.76799 0.00375
0 0.1 -0.76799 0.00375
0.0363518 0.1 0.76799 0.00375047
0.0363518 0.1 -0.76799 0.00374806
0.623803 0.1 -0.45 0.00368199
0.623803 0.1 0.45 0.00367462
0.714971 0.1 -0.3 0.00367488
0.714971 0.1 0.3 0.00366557
0.756814 0.1 -0.1875 0.00367261
0.756814 0.1 0.1875 0.00366549
0.67013 0.1 -0.4125 0.00367756
0.67013 0.1 0.4125 0.00366817
0.411108 0.1 0.675 0.00371292
0.411108 0.1 -0.675 0.00370839
0.467897 0.1 0.6375 0.00370322
0.467897 0.1 -0.6375 0.00370071
0.075776 0.1 0.7875 0.00375055
0.075776 0.1 -0.7875 0.0037456
0.350249 0.1 -0.7125 0.00371651
0.350249 0.1 0.7125 0.00372269
0.522865 0.1 -0.6 0.00369368
0.522865 0.1 0.6 0.00369345
0.797314 0.1 -3.59473e-17 0.00367061
0.287374 0.1 0.746002 0.0037311
0.797314 0.1 -0.075 0.00367178
0.797314 0.1 0.075 0.00366899
0.756814 0.1 -0.2625 0.0036728
0.756814 0.1 0.2625 0.00366382
0.287374 0.1 -0.75 0.0037244
0.574156 0.1 -0.5625 0.00368715
0.574156 0.1 0.5625 0.00368394
0 0.1 0.80701 0.00375
0 0.1 -0.80701 0.00375
0.714971 0.1 -0.375 0.00367471
0.714971 0.1 0.375 0.00366498
0.0363518 0.1 0.80701 0.00375047
0.0363518 0.1 -0.80701 0.00374806
0.797314 0.1 -0.15 0.0036724
0.797314 0.1 0.15 0.00366708
0.623803 0.1 -0.525 0.00368195
0.623803 0.1 0.525 0.00367621
0.219992 0.1 0.7875 0.00373946
0.219992 0.1 -0.7875 0.00373269
0.149792 0.1 0.80701 0.00374501
0 0.1 0.825 0.00375
0 0.1 -0.825 0.00375
0.797314 0.1 -0.225 0.00367241
0.797314 0.1 0.225 0.00366505
0.756813 0.1 -0.3375 0.00367241
0.756813 0.1 0.3375 0.00366243
0.67013 0.1 0.4875 0.00366904
0.67013 0.1 -0.4875 0.00367727
0.835106 0.1 -0.0375 0.00367181
0.835106 0.1 0.0375 0.00367052
0.150379 0.1 -0.825 0.0037392
0.835106 0.1 -0.1125 0.00367244
0.835106 0.1 0.1125 0.00366868
0 0.1 -0.84299 0.00375
0 0.1 0.84299 0.00375
0.0363518 0.1 -0.84299 0.00374827
0.0363518 0.1 0.84299 0.0037506
0.714971 0.1 -0.45 0.00367408
0.714971 0.1 0.45 0.0036649
0.411108 0.1 0.746002 0.00371437
0.797314 0.1 -0.3 0.00367178
0.797314 0.1 0.3 0.00366308
0.467897 0.1 -0.7125 0.00370098
0.467897 0.1 0.7125 0.00370499
0.522865 0.1 0.675 0.00369545
0.522865 0.1 -0.675 0.00369376
0.411108 0.1 -0.75 0.00370872
0.835106 0.1 -0.1875 0.00367236
0.835107 0.1 0.1875 0.00366647
0.286844 0.1 0.80701 0.00373161
0.574156 0.1 0.6375 0.00368611
0.574157 0.1 -0.6375 0.00368703
0.350249 0.1 -0.7875 0.00371687
0.350249 0.1 0.7875 0.00372366
0.756813 0.1 -0.4125 0.00367143
0.756814 0.1 0.4125 0.00366142
0.623803 0.1 -0.6 0.00368154
0.623803 0.1 0.6 0.00367802
0.075776 0.1 0.8625 0.00375082
0.075776 0.1 -0.8625 0.00374602
0.871687 0.1 -3.2767e-18 0.00367343
0.287374 0.1 -0.825 0.00372479
0.871687 0.1 -0.075 0.00367403
0.871687 0.1 0.075 0.00367206
0.67013 0.1 -0.5625 0.00367658
0.67013 0.1 0.5625 0.00367037
0.835106 0.1 0.2625 0.00366407
0.835106 0.1 -0.2625 0.00367156
0.797314 0.1 -0.375 0.00367055
0.797314 0.1 0.375 0.00366131
0 0.1 -0.88201 0.00375
0 0.1 0.88201 0.00375
0.0363518 0.1 0.88201 0.0037506
0.0363518 0.1 -0.88201 0.00374827
0.871687 0.1 0.15 0.00367006
0.871687 0.1 -0.15 0.00367383
0.714971 0.1 0.525 0.00366534
0.714971 0.1 -0.525 0.00367305
0.219993 0.1 0.8625 0.00374002
0.219992 0.1 -0.8625 0.00373309
0 0.1 0.9 0.00375
0 0.1 -0.9 0.00375
0.756813 0.1 0.4875 0.00366094
0.756814 0.1 -0.4875 0.00367004
0.871687 0.1 0.225 0.00366759
0.871687 0.1 -0.225 0.00367284
0.835106 0.1 -0.3375 0.0036701
0.835106 0.1 0.3375 0.00366166
0.41063 0.1 0.80701 0.00371514
0.90582 0.1 -0.0375 0.0036758
0.905821 0.1 0.0375 0.00367507
0.522865 0.1 0.746002 0.00369719
0.150379 0.1 0.9 0.00374546
0.90582 0.1 0.1125 0.00367345
0.905821 0.1 -0.1125 0.00367559
0.522865 0.1 -0.75 0.00369368
0.574156 0.1 0.7125 0.00368802
0.574156 0.1 -0.7125 0.00368674
0.797314 0.1 -0.45 0.00366878
0.797314 0.1 0.45 0.00365988
0.467897 0.1 -0.7875 0.0037011
0.467897 0.1 0.7875 0.00370638
0.150379 0.1 -0.903998 0.00373946
0 0.1 0.91799 0.00375
0 0.1 -0.91799 0.00375
0.0363518 0.1 0.91799 0.00375069
0.0363518 0.1 -0.91799 0.00374846
0.623803 0.1 0.675 0.00367981
0.623803 0.1 -0.675 0.0036809
0.411108 0.1 -0.825 0.00370893
0.871687 0.1 0.3 0.00366486
0.871687 0.1 -0.3 0.00367116
0.67013 0.1 -0.6375 0.0036756
0.67013 0.1 0.6375 0.00367195
0.90582 0.1 -0.1875 0.00367446
0.90582 0.1 0.1875 0.0036711
0.350249 0.1 0.8625 0.00372449
0.350249 0.1 -0.8625 0.00371719
0.835106 0.1 -0.4125 0.00366803
0.835106 0.1 0.4125 0.00365942
0.714971 0.1 -0.6 0.0036717
0.714971 0.1 0.6 0.0036662
0.93886 0.1 -1.15648e-17 0.00367902
0.075776 0.1 0.9375 0.003751
0.075776 0.1 -0.9375 0.00374643
0.93886 0.1 0.075 0.00367812
0.93886 0.1 -0.075 0.0036789
0.756813 0.1 0.5625 0.00366101
0.756814 0.1 -0.5625 0.00366832
0.905821 0.1 -0.2625 0.00367257
0.905821 0.1 0.2625 0.00366822
0.287374 0.1 0.9 0.00373239
0.287374 0.1 -0.903998 0.003725
0.871687 0.1 0.375 0.00366205
0.871687 0.1 -0.375 0.00366881
0.93886 0.1 -0.15 0.00367777
0.93886 0.1 0.15 0.00367627
0.797314 0.1 0.525 0.00365893
0.797314 0.1 -0.525 0.00366662
0 0.1 0.95701 0.00375
0 0.1 -0.95701 0.00375
0.0363518 0.1 0.95701 0.00375069
0.0363518 0.1 -0.95701 0.00374846
0.522433 0.1 0.80701 0.00369817
0.219992 0.1 0.9375 0.00374047
0.219992 0.1 -0.9375 0.00373363
0.93886 0.1 0.225 0.00367363
0.93886 0.1 -0.225 0.00367577
0.90582 0.1 0.3375 0.00366499
0.905821 0.1 -0.3375 0.00367001
0.835106 0.1 -0.4875 0.00366547
0.835107 0.1 0.4875 0.0036575
0.969689 0.1 -0.0375 0.00368234
0.969689 0.1 0.0375 0.00368227
0.61613 0.1 0.75 0.0036814
0.574156 0.1 -0.7875 0.00368636
0.574156 0.1 0.7875 0.00368957
0 0.1 0.975 0.00375
0 0.1 -0.975 0.00375
0.623803 0.1 -0.75 0.00368016
0.969689 0.1 -0.1125 0.00368127
0.969689 0.1 0.1125 0.00368106
0.522865 0.1 -0.825 0.00369353
0.67013 0.1 0.7125 0.00367348
0.67013 0.1 -0.7125 0.00367449
0.871687 0.1 -0.45 0.00366586
0.871687 0.1 0.45 0.00365934
0.467897 0.1 0.8625 0.00370746
0.467897 0.1 -0.8625 0.00370118
0.714971 0.1 -0.675 0.00367014
0.714971 0.1 0.675 0.00366729
0.93886 0.1 -0.3 0.00367302
0.93886 0.1 0.3 0.0036704
0.150379 0.1 0.975 0.00374572
0.150379 0.1 -0.975 0.0037401
0.969689 0.1 -0.1875 0.0036792
0.969689 0.1 0.1875 0.00367883
0.411108 0.1 0.9 0.00371622
0.756813 0.1 0.6375 0.00366154
0.756814 0.1 -0.6375 0.00366634
0.990306 0.1 -2.19732e-17 0.00368249
0 0.1 0.99299 0.00375
0 0.1 -0.99299 0.00375
0.411108 0.1 -0.903998 0.00370896
0.990306 0.1 -0.075 0.00368181
0.990306 0.1 0.075 0.00368198
0.0363518 0.1 0.99299 0.00375074
0.0363518 0.1 -0.99299 0.00374864
0.90582 0.1 -0.4125 0.00366675
0.905821 0.1 0.4125 0.00366165
0.797314 0.1 -0.6 0.00366417
0.797314 0.1 0.6 0.0036585
0.350249 0.1 0.9375 0.0037252
0.350249 0.1 -0.9375 0.00371761
0.990306 0.1 0.15 0.00368034
0.990306 0.1 -0.15 0.00368002
0.969689 0.1 -0.2625 0.00367633
0.969689 0.1 0.2625 0.00367574
0.835106 0.1 -0.5625 0.00366253
0.835106 0.1 0.5625 0.00365608
0.93886 0.1 -0.375 0.00366949
0.93886 0.1 0.375 0.00366677
0.075776 0.1 1.0125 0.0037511
0.075776 0.1 -1.0125 0.0037468
0.990306 0.1 -0.225 0.00367729
0.990306 0.1 0.225 0.00367769
0.287374 0.1 0.975 0.00373289
0.287374 0.1 -0.975 0.00372566
0.871687 0.1 -0.525 0.00366244
0.871687 0.1 0.525 0.00365696
1.02149 0.1 -0.0369628 0.00368669
1.02149 0.1 0.0369628 0.00368716
0.969689 0.1 -0.3375 0.00367268
0.969689 0.1 0.3375 0.00367199
1.02149 0.1 -0.110888 0.003685
1.02149 0.1 0.110888 0.00368638
0.90582 0.1 0.4875 0.00365837
0.90582 0.1 -0.4875 0.0036629
0.623803 0.1 0.819003 0.00368169
0 0.1 1.03201 0.00375
0 0.1 -1.03201 0.00375
0.0363518 0.1 1.03201 0.00375074
0.0363518 0.1 -1.03201 0.00374864
0.67013 0.1 -0.7875 0.00367334
0.67013 0.1 0.7875 0.00367486
0.623803 0.1 -0.825 0.00367938
0.990306 0.1 -0.3 0.00367372
0.990306 0.1 0.3 0.00367419
0.219992 0.1 -1.0125 0.00373411
0.219993 0.1 1.0125 0.00374076
0.574156 0.1 0.8625 0.00369075
0.574157 0.1 -0.8625 0.00368595
0.714971 0.1 -0.75 0.0036685
0.714971 0.1 0.75 0.00366838
1.02149 0.1 0.184814 0.0036844
1.02149 0.1 -0.184814 0.00368222
0.756814 0.1 -0.7125 0.00366422
0.756814 0.1 0.7125 0.00366228
0.522865 0.1 0.9 0.00369941
0.93886 0.1 -0.45 0.0036652
0.93886 0.1 0.45 0.00366298
1.04168 0.1 0 0.00369118
1.04168 0.1 -0.0729162 0.00368984
1.04168 0.1 0.0729162 0.00369125
0.522865 0.1 -0.903998 0.00369319
0.797314 0.1 -0.675 0.00366154
0.797314 0.1 0.675 0.00365848
0.467897 0.1 0.9375 0.00370836
0.467897 0.1 -0.9375 0.00370128
0 0.1 1.05 0.00375
0 0.1 -1.05 0.00375
0.835106 0.1 -0.6375 0.00365939
0.835106 0.1 0.6375 0.00365521
1.04168 0.1 -0.145832 0.00368731
1.04168 0.1 0.145832 0.00369004
1.02149 0.1 -0.25874 0.00367852
1.02149 0.1 0.25874 0.00368135
0.969689 0.1 -0.4125 0.00366805
0.969689 0.1 0.4125 0.00366782
0.411108 0.1 0.975 0.00371694
0.411108 0.1 -0.975 0.00370939
0.871687 0.1 -0.6 0.00365873
0.871687 0.1 0.6 0.00365504
1.0579 0.1 -0.0360525 0.00369378
1.0579 0.1 0.0360525 0.00369468
0.990306 0.1 -0.375 0.00366922
0.990306 0.1 0.375 0.00367006
0.150379 0.1 1.05 0.00374585
0.150379 0.1 -1.05 0.0037405
1.0579 0.1 0.108157 0.00369429
1.0579 0.1 -0.108157 0.00369161
1.04168 0.1 -0.218749 0.00368372
1.04168 0.1 0.218749 0.00368763
0.90582 0.1 -0.5625 0.00365862
0.90582 0.1 0.5625 0.00365548
0 0.1 -1.06799 0.00375
0 0.1 1.06799 0.00375
0.0363518 0.1 -1.06799 0.00374881
0.0363518 0.1 1.06799 0.00375074
0.350249 0.1 1.0125 0.00372576
0.350249 0.1 -1.0125 0.00371798
1.0579 0.1 -0.180262 0.0036883
1.0579 0.1 0.180262 0.00369261
1.02149 0.1 -0.332665 0.00367386
1.02149 0.1 0.332665 0.0036774
0.93886 0.1 -0.525 0.00366043
0.93886 0.1 0.525 0.00365931
1.08012 0.1 5.49329e-18 0.00369978
1.04168 0.1 -0.291665 0.00367912
1.04168 0.1 0.291665 0.00368416
1.08012 0.1 0.0709941 0.00370028
1.08012 0.1 -0.0709941 0.00369796
0.969689 0.1 -0.4875 0.00366267
0.96969 0.1 0.4875 0.00366348
1.0579 0.1 0.252367 0.00368974
1.0579 0.1 -0.252367 0.00368392
0.990306 0.1 -0.45 0.0036639
0.990306 0.1 0.45 0.00366555
0.287374 0.1 -1.05 0.00372605
0.287374 0.1 1.05 0.00373323
0.714971 0.1 0.821002 0.00366916
1.08012 0.1 -0.141988 0.00369488
1.08012 0.1 0.141988 0.00369947
0.075776 0.1 1.0875 0.00375111
0.075776 0.1 -1.0875 0.00374714
0.714971 0.1 -0.825 0.00366688
0.756813 0.1 -0.7875 0.00366209
0.756814 0.1 0.7875 0.00366304
0.67013 0.1 -0.8625 0.00367219
0.67013 0.1 0.8625 0.00367591
0.797314 0.1 -0.75 0.00365885
0.797314 0.1 0.75 0.0036587
0.623803 0.1 0.9 0.00368363
0.835106 0.1 -0.7125 0.00365616
0.835106 0.1 0.7125 0.00365478
0.623803 0.1 -0.903998 0.00367849
0.574156 0.1 0.9375 0.00369159
0.574156 0.1 -0.9375 0.00368545
1.02149 0.1 -0.406591 0.00366821
1.02149 0.1 0.406591 0.00367274
1.08012 0.1 -0.212982 0.00369063
1.08012 0.1 0.212982 0.00369736
1.10076 0.1 -0.0349809 0.0037042
1.10076 0.1 0.0349809 0.00370561
0.871687 0.1 -0.675 0.00365491
0.871687 0.1 0.675 0.00365359
1.04168 0.1 -0.364581 0.00367354
1.04168 0.1 0.364581 0.00367979
1.10076 0.1 -0.104943 0.00370146
1.10076 0.1 0.104943 0.00370569
0.522865 0.1 0.975 0.00370018
0.522865 0.1 -0.975 0.00369312
1.0579 0.1 -0.324472 0.0036785
1.0579 0.1 0.324472 0.00368582
0 0.1 -1.10701 0.00375
0 0.1 1.10701 0.00375
0.0363518 0.1 1.10701 0.00375074
0.0363518 0.1 -1.10701 0.00374881
0.90582 0.1 0.6375 0.00365301
0.905821 0.1 -0.6375 0.00365418
0.219992 0.1 1.0875 0.00374089
0.219992 0.1 -1.0875 0.00373454
0.93886 0.1 0.6 0.00365596
0.93886 0.1 -0.6 0.00365545
1.10076 0.1 -0.174905 0.00369742
1.10076 0.1 0.174905 0.00370441
0.467897 0.1 1.0125 0.00370906
0.467897 0.1 -1.0125 0.00370133
1.08012 0.1 -0.283976 0.00368527
1.08012 0.1 0.283976 0.00369406
1.11928 0.1 3.93204e-18 0.00371058
0.990306 0.1 -0.525 0.00365819
0.990306 0.1 0.525 0.00366094
0.96969 0.1 -0.5625 0.00365716
0.969689 0.1 0.5625 0.00365932
1.11928 0.1 -0.0690357 0.00370823
1.11928 0.1 0.0690357 0.00371156
0 0.1 1.125 0.00375
0 0.1 -1.125 0.00375
0.411108 0.1 -1.05 0.00370954
0.411108 0.1 1.05 0.00371748
1.10076 0.1 0.244866 0.00370181
1.10076 0.1 -0.244866 0.00369217
1.11928 0.1 -0.138072 0.00370451
1.11928 0.1 0.138072 0.00371118
1.02149 0.1 0.480517 0.00366763
1.02149 0.1 -0.480517 0.00366202
1.0579 0.1 -0.396577 0.00367216
1.0579 0.1 0.396577 0.00368103
1.04168 0.1 -0.437497 0.00366725
1.04168 0.1 0.437497 0.00367473
0.150379 0.1 1.125 0.00374587
0.150379 0.1 -1.125 0.00374086
0.714971 0.1 0.88201 0.00366721
1.08012 0.1 0.354971 0.00368972
1.08012 0.1 -0.354971 0.00367896
1.11928 0.1 -0.207107 0.00369949
1.11928 0.1 0.207107 0.00370943
0.350249 0.1 -1.0875 0.00371827
0.350249 0.1 1.0875 0.00372614
0 0.1 1.14299 0.00375
0 0.1 -1.14299 0.00375
0.0363518 0.1 1.14299 0.00375072
0.0363518 0.1 -1.14299 0.00374895
1.14316 0.1 -0.0339211 0.00371719
1.14316 0.1 0.0339211 0.00371923
0.797314 0.1 0.821002 0.00365903
1.10076 0.1 -0.314829 0.00368585
1.10076 0.1 0.314829 0.00369803
0.797314 0.1 -0.825 0.00365623
0.756814 0.1 -0.8625 0.00366006
0.756814 0.1 0.8625 0.00366368
1.14316 0.1 -0.101763 0.00371371
1.14316 0.1 0.101763 0.00371986
0.835106 0.1 -0.7875 0.00365293
0.835106 0.1 0.7875 0.0036546
0.871687 0.1 -0.75 0.00365108
0.871687 0.1 0.75 0.00365255
0.67013 0.1 0.9375 0.00367665
0.67013 0.1 -0.9375 0.003671
0.90582 0.1 -0.7125 0.00364973
0.905821 0.1 0.7125 0.00365105
0.714971 0.1 -0.903998 0.00366529
1.11928 0.1 0.276143 0.00370637
1.11928 0.1 -0.276143 0.00369335
1.14316 0.1 0.169605 0.0037191
1.14316 0.1 -0.169605 0.00370883
0.93886 0.1 -0.675 0.0036504
0.93886 0.1 0.675 0.003653
1.15704 0.1 0 0.00372352
1.0579 0.1 0.468682 0.00367559
1.0579 0.1 -0.468682 0.00366547
0.623803 0.1 0.975 0.00368428
0.623803 0.1 -0.975 0.00367769
0.990306 0.1 0.6 0.00365651
0.990306 0.1 -0.6 0.00365232
1.15704 0.1 -0.0671479 0.00372051
1.15704 0.1 0.0671479 0.00372506
1.04168 0.1 -0.510414 0.0036607
1.04168 0.1 0.510414 0.00366922
0.969689 0.1 -0.6375 0.0036515
0.969689 0.1 0.6375 0.0036555
1.08012 0.1 0.425965 0.00368449
1.08012 0.1 -0.425965 0.00367206
0.287374 0.1 -1.125 0.00372638
0.287374 0.1 1.125 0.0037334
1.02149 0.1 -0.554443 0.00365577
1.02149 0.1 0.554443 0.00366235
0.574156 0.1 1.0125 0.00369224
0.574156 0.1 -1.0125 0.00368496
1.15704 0.1 -0.134296 0.00371604
1.15704 0.1 0.134296 0.00372516
0.075776 0.1 1.1625 0.00375106
0.075776 0.1 -1.1625 0.00374744
1.10076 0.1 -0.384791 0.00367877
1.10076 0.1 0.384791 0.00369317
1.14316 0.1 -0.237448 0.0037027
1.14316 0.1 0.237448 0.00371692
1.11928 0.1 -0.345179 0.00368636
1.11928 0.1 0.345179 0.00370211
0.522865 0.1 1.05 0.00370077
0.522865 0.1 -1.05 0.00369283
1.15704 0.1 -0.201444 0.00371022
1.15704 0.1 0.201444 0.00372384
1.1744 0.1 -0.0331401 0.00372739
1.1744 0.1 0.0331401 0.0037299
1.1744 0.1 -0.0994202 0.00372338
1.1744 0.1 0.0994202 0.00373091
0 0.1 1.18201 0.00375
0 0.1 -1.18201 0.00375
0.0363518 0.1 1.18201 0.00375072
0.0363518 0.1 -1.18201 0.00374895
0.219992 0.1 1.1625 0.00374086
0.219993 0.1 -1.1625 0.00373491
1.14316 0.1 0.30529 0.00371341
1.14316 0.1 -0.30529 0.00369563
0.467897 0.1 1.0875 0.00370956
0.467897 0.1 -1.0875 0.00370122
1.1744 0.1 -0.1657 0.0037179
1.1744 0.1 0.1657 0.00373051
1.15704 0.1 -0.268592 0.00370334
1.15704 0.1 0.268592 0.00372109
1.0579 0.1 0.540787 0.00366974
1.0579 0.1 -0.540787 0.00365865
0.796996 0.1 0.88201 0.00365913
1.08012 0.1 -0.496959 0.00366493
1.08012 0.1 0.496959 0.00367862
1.10076 0.1 0.454752 0.00368745
1.10076 0.1 -0.454752 0.0036714
1.11928 0.1 -0.414214 0.00367885
1.11928 0.1 0.414214 0.0036968
1.04168 0.1 -0.58333 0.00365393
1.04168 0.1 0.58333 0.00366357
1.1744 0.1 -0.231981 0.0037112
1.1744 0.1 0.231981 0.00372866
0.871687 0.1 0.821002 0.00365184
0.411108 0.1 1.125 0.00371779
0.411108 0.1 -1.125 0.00370958
1.19808 0.1 1.73472e-17 0.00374009
0.990306 0.1 0.675 0.00365236
0.990306 0.1 -0.675 0.00364636
1.02149 0.1 0.628368 0.00365721
1.02149 0.1 -0.628368 0.0036492
1.19808 0.1 -0.0650961 0.0037362
1.19808 0.1 0.0650961 0.00374241
0 0.1 1.2 0.00375
0 0.1 -1.2 0.00375
0.871687 0.1 -0.825 0.00364734
0.905821 0.1 -0.7875 0.00364534
0.90582 0.1 0.7875 0.00364949
0.835106 0.1 -0.8625 0.00364986
0.835106 0.1 0.8625 0.00365445
0.93886 0.1 -0.75 0.00364541
0.93886 0.1 0.75 0.00365047
1.14316 0.1 -0.373132 0.00368793
1.14316 0.1 0.373132 0.00370867
0.969689 0.1 0.7125 0.00365194
0.969689 0.1 -0.7125 0.0036459
1.15704 0.1 -0.33574 0.00369571
1.15704 0.1 0.33574 0.00371701
0.756813 0.1 0.9375 0.00366408
0.756814 0.1 -0.9375 0.00365805
1.19808 0.1 0.130192 0.00374319
1.19808 0.1 -0.130192 0.00373079
0.797314 0.1 -0.903998 0.00365383
0.714971 0.1 0.975 0.00367044
0.714971 0.1 -0.975 0.00366363
0.150379 0.1 1.2 0.00374578
0.150379 0.1 -1.2 0.00374117
1.20938 0.1 -0.0322656 0.00374233
1.20938 0.1 0.0322656 0.00374564
1.1744 0.1 -0.298261 0.00370368
1.1744 0.1 0.298261 0.00372539
1.20938 0.1 -0.0967968 0.00373745
1.20938 0.1 0.0967968 0.00374733
1.19808 0.1 -0.195288 0.00372409
1.19808 0.1 0.195288 0.00374248
0.350249 0.1 1.1625 0.00372629
0.350249 0.1 -1.1625 0.00371849
0.67013 0.1 1.0125 0.00367703
0.67013 0.1 -1.0125 0.00366976
0 0.1 1.21799 0.00375
0 0.1 -1.21799 0.00375
0.0363518 0.1 -1.21799 0.00374908
0.0363518 0.1 1.21799 0.00375066
1.11928 0.1 -0.48325 0.00367103
1.11928 0.1 0.48325 0.00369063
1.10076 0.1 -0.524714 0.00366381
1.10076 0.1 0.524714 0.00368107
1.20938 0.1 0.161328 0.00374753
1.20938 0.1 -0.161328 0.00373111
1.08012 0.1 0.567953 0.00367233
1.08012 0.1 -0.567953 0.0036575
0.623803 0.1 1.05 0.00368472
0.623803 0.1 -1.05 0.00367681
1.0579 0.1 -0.612892 0.00365142
1.0579 0.1 0.612892 0.00366375
1.15704 0.1 -0.402888 0.00368758
1.15704 0.1 0.402888 0.00371169
1.14316 0.1 0.440974 0.00370283
1.14316 0.1 -0.440974 0.00367984
1.19808 0.1 -0.260384 0.00371646
1.19808 0.1 0.260384 0.00374024
1.2267 0.1 3.57064e-18 0.00375375
1.2267 0.1 -0.0636649 0.00374907
1.2267 0.1 0.0636649 0.0037568
1.1744 0.1 -0.364541 0.0036956
1.1744 0.1 0.364541 0.00372077
0.574156 0.1 1.0875 0.00369276
0.574156 0.1 -1.0875 0.00368439
1.20938 0.1 0.225859 0.00374619
1.20938 0.1 -0.225859 0.00372367
1.04168 0.1 -0.656246 0.00364691
1.04168 0.1 0.656246 0.00365797
1.2267 0.1 -0.12733 0.00374292
1.2267 0.1 0.12733 0.00375823
0.287374 0.1 1.2 0.0037334
0.287374 0.1 -1.2 0.00372664
1.02149 0.1 -0.702294 0.0036426
1.02149 0.1 0.702294 0.00365228
0.075776 0.1 -1.2375 0.0037477
0.075776 0.1 1.2375 0.00375095
0.871399 0.1 0.88201 0.00365125
0.522865 0.1 1.125 0.00370117
0.522865 0.1 -1.125 0.00369243
1.2267 0.1 -0.190994 0.00373555
1.2267 0.1 0.190994 0.00375806
1.19808 0.1 -0.32548 0.00370819
1.19808 0.1 0.32548 0.0037365
0.990306 0.1 -0.75 0.00364049
0.990306 0.1 0.75 0.00364859
1.24274 0.1 -0.0314313 0.00375937
1.24274 0.1 0.0314313 0.00376373
1.20938 0.1 -0.29039 0.00371555
1.20938 0.1 0.29039 0.0037433
1.24274 0.1 -0.0942942 0.00375347
1.24274 0.1 0.0942942 0.00376636
0.93886 0.1 0.821002 0.00364845
1.11928 0.1 -0.552285 0.00366284
1.11928 0.1 0.552285 0.00368382
1.15704 0.1 -0.470036 0.00367902
1.15704 0.1 0.470036 0.00370531
0.969689 0.1 -0.7875 0.00364041
0.96969 0.1 0.7875 0.00364892
0.93886 0.1 -0.825 0.00364056
0.90582 0.1 0.8625 0.00364823
0.905821 0.1 -0.8625 0.00364115
1.1744 0.1 -0.430821 0.00368705
1.1744 0.1 0.430821 0.00371493
1.10076 0.1 -0.594676 0.00365577
1.10076 0.1 0.594676 0.00367427
1.14316 0.1 -0.508816 0.00367135
1.14316 0.1 0.508816 0.00369611
1.24274 0.1 -0.157157 0.0037462
1.24274 0.1 0.157157 0.00376733
1.2267 0.1 -0.254659 0.00372736
1.2267 0.1 0.254659 0.00375629
0.467897 0.1 1.1625 0.0037098
0.467897 0.1 -1.1625 0.00370102
1.08012 0.1 0.638947 0.00366588
1.08012 0.1 -0.638947 0.00364972
1.25511 0.1 -5.78241e-19 0.00377011
0.835106 0.1 -0.9375 0.00364691
0.835106 0.1 0.9375 0.00365424
0.871687 0.1 -0.903998 0.00364402
1.25511 0.1 0.0622446 0.00377419
1.25511 0.1 -0.0622446 0.00376439
0.219992 0.1 1.2375 0.0037407
0.219992 0.1 -1.2375 0.0037352
0 0.1 -1.25701 0.00375
0 0.1 1.25701 0.00375
0.0363518 0.1 -1.25701 0.00374908
0.0363518 0.1 1.25701 0.00375066
0.797314 0.1 0.975 0.00365907
0.797314 0.1 -0.975 0.0036512
1.19808 0.1 -0.390576 0.00369937
1.19808 0.1 0.390576 0.00373135
1.0579 0.1 -0.684997 0.00364406
1.0579 0.1 0.684997 0.00365782
1.20938 0.1 -0.354921 0.00370687
1.20938 0.1 0.354921 0.00373892
1.25511 0.1 0.124489 0.00377653
1.25511 0.1 -0.124489 0.00375727
1.24274 0.1 -0.220019 0.003738
1.24274 0.1 0.220019 0.00376667
0.756813 0.1 1.0125 0.00366419
0.756814 0.1 -1.0125 0.00365598
1.2267 0.1 -0.318324 0.00371856
1.2267 0.1 0.318324 0.00375289
0.411108 0.1 1.2 0.00371794
0.411108 0.1 -1.2 0.00370956
1.25511 0.1 -0.186734 0.00374906
1.25511 0.1 0.186734 0.00377714
0.714971 0.1 1.05 0.00367056
0.714971 0.1 -1.05 0.003662
1.04168 0.1 -0.729162 0.00363991
1.04168 0.1 0.729162 0.00365258
1.24274 0.1 0.282882 0.00376433
1.24274 0.1 -0.282882 0.0037292
0 0.1 1.275 0.00375
0 0.1 -1.275 0.00375
1.1744 0.1 0.497102 0.00370805
1.1744 0.1 -0.497102 0.003678
1.15704 0.1 -0.537184 0.00367002
1.15704 0.1 0.537184 0.00369806
1.2756 0.1 -0.03061 0.00378026
1.2756 0.1 0.03061 0.00378605
0.67013 0.1 1.0875 0.00367726
0.67013 0.1 -1.0875 0.00366855
1.2756 0.1 -0.09183 0.00377301
1.2756 0.1 0.09183 0.00379011
1.25511 0.1 -0.248978 0.00374013
1.25511 0.1 0.248978 0.00377602
1.20938 0.1 0.419453 0.00373312
1.20938 0.1 -0.419453 0.00369761
1.11928 0.1 -0.621322 0.00365419
1.11928 0.1 0.621322 0.00367661
1.14316 0.1 -0.576659 0.00366242
1.14316 0.1 0.576659 0.00368871
1.19808 0.1 -0.455673 0.00369
1.19808 0.1 0.455673 0.00372491
1.02149 0.1 0.776219 0.00364774
1.02149 0.1 -0.776219 0.00363611
0.150379 0.1 1.275 0.00374559
0.150379 0.1 -1.275 0.00374142
1.2756 0.1 -0.15305 0.00376457
1.2756 0.1 0.15305 0.00379232
1.2267 0.1 -0.381989 0.00370916
1.2267 0.1 0.381989 0.00374793
1.10076 0.1 -0.664638 0.00364738
1.10076 0.1 0.664638 0.00366732