# kMean  POINT_DATA 63840
# x  y  z  kMean
0 0.5 3.39583e-17 0.00375
0 0.5 -0.00617931 0.00375
0 0.5 0.00617931 0.00375
0.0124865 0.5 -0.00617931 0.00375044
0.0124865 0.5 0.00617931 0.00375049
0 0.5 -0.0688207 0.00375
0 0.5 0.0688207 0.00375
0.0124865 0.5 -0.0688207 0.00375044
0.0124865 0.5 0.0688207 0.00375049
0 0.5 -0.075 0.00375
0 0.5 0.075 0.00375
0 0.5 -0.0811793 0.00375
0 0.5 0.0811793 0.00375
0.0124865 0.5 -0.0811793 0.00375039
0.0124865 0.5 0.0811793 0.00375055
0.075776 0.5 -0.0375 0.00375266
0.075776 0.5 0.0375 0.003753
0.075776 0.5 -0.1125 0.00375238
0.075776 0.5 0.1125 0.00375336
0 0.5 -0.143821 0.00375
0 0.5 0.143821 0.00375
0.0124865 0.5 -0.143821 0.00375039
0.0124865 0.5 0.143821 0.00375055
0 0.5 -0.15 0.00375
0 0.5 0.15 0.00375
0.151149 0.5 -0.00137318 0.00375556
0 0.5 -0.156179 0.00375
0 0.5 0.156179 0.00375
0.0124865 0.5 -0.156179 0.00375035
0.0124865 0.5 0.156179 0.00375062
0.151149 0.5 0.075 0.00375614
0.151149 0.5 -0.075 0.00375509
0.075776 0.5 -0.1875 0.00375215
0.075776 0.5 0.1875 0.00375374
0.151149 0.5 0.15 0.00375679
0.151149 0.5 -0.15 0.00375475
0 0.5 -0.218821 0.00375
0 0.5 0.218821 0.00375
0.0124865 0.5 -0.218821 0.00375035
0.0124865 0.5 0.218821 0.00375062
0.219992 0.5 0.0375 0.00375847
0.219993 0.5 -0.0375 0.00375775
0 0.5 -0.225 0.00375
0 0.5 0.225 0.00375
0 0.5 -0.231179 0.00375
0 0.5 0.231179 0.00375
0.0124865 0.5 -0.231179 0.00375033
0.0124865 0.5 0.231179 0.00375068
0.219992 0.5 0.1125 0.00375933
0.219993 0.5 -0.1125 0.00375724
0.151149 0.5 -0.225 0.0037545
0.151149 0.5 0.225 0.0037575
0.075776 0.5 -0.2625 0.003752
0.075776 0.5 0.2625 0.00375411
0.288069 0.5 -0.00137318 0.00376307
0.219992 0.5 0.1875 0.00376031
0.219993 0.5 -0.1875 0.00375689
0 0.5 0.293821 0.00375
0 0.5 -0.293821 0.00375
0.0124865 0.5 -0.293821 0.00375033
0.0124865 0.5 0.293821 0.00375068
0.288069 0.5 -0.075 0.00376248
0.288069 0.5 0.075 0.00376384
0 0.5 -0.3 0.00375
0 0.5 0.3 0.00375
0 0.5 0.306179 0.00375
0 0.5 -0.306179 0.00375
0.0124865 0.5 -0.306179 0.00375032
0.0124865 0.5 0.306179 0.00375074
0.288069 0.5 -0.15 0.00376203
0.288069 0.5 0.15 0.00376477
0.151149 0.5 -0.3 0.00375436
0.151149 0.5 0.3 0.00375821
0.219992 0.5 -0.2625 0.00375663
0.219992 0.5 0.2625 0.00376135
0.075776 0.5 0.3375 0.00375446
0.075776 0.5 -0.3375 0.00375195
0.350249 0.5 -0.0375 0.00376741
0.350249 0.5 0.0375 0.00376806
0.288069 0.5 -0.225 0.00376171
0.288069 0.5 0.225 0.00376584
0.350249 0.5 0.1125 0.00376888
0.350249 0.5 -0.1125 0.00376688
0 0.5 0.368821 0.00375
0 0.5 -0.368821 0.00375
0.0124865 0.5 -0.368821 0.00375032
0.0124865 0.5 0.368821 0.00375074
0 0.5 -0.375 0.00375
0 0.5 0.375 0.00375
0 0.5 -0.381179 0.00375
0 0.5 0.381179 0.00375
0.0124865 0.5 -0.381179 0.00375031
0.0124865 0.5 0.381179 0.00375079
0.350249 0.5 -0.1875 0.00376649
0.350249 0.5 0.1875 0.00376993
0.219992 0.5 -0.3375 0.00375654
0.219992 0.5 0.3375 0.00376241
0.151149 0.5 -0.375 0.00375431
0.151149 0.5 0.375 0.00375891
0.411736 0.5 -0.00137318 0.00377546
0.288069 0.5 -0.3 0.00376151
0.288069 0.5 0.3 0.00376699
0.411736 0.5 -0.075 0.00377493
0.411736 0.5 0.075 0.00377617
0.075776 0.5 -0.4125 0.00375193
0.075776 0.5 0.4125 0.00375477
0.350249 0.5 -0.2625 0.0037662
0.350249 0.5 0.2625 0.00377114
0.411736 0.5 -0.15 0.00377445
0.411736 0.5 0.15 0.00377699
0 0.5 -0.443821 0.00375
0 0.5 0.443821 0.00375
0.0124865 0.5 -0.443821 0.00375031
0.0124865 0.5 0.443821 0.00375079
0 0.5 -0.45 0.00375
0 0.5 0.45 0.00375
0 0.5 -0.456179 0.00375
0 0.5 0.456179 0.00375
0.0124865 0.5 -0.456179 0.00375032
0.0124865 0.5 0.456179 0.00375083
0.219992 0.5 -0.4125 0.00375652
0.219993 0.5 0.4125 0.00376344
0.411736 0.5 -0.225 0.00377405
0.411736 0.5 0.225 0.00377796
0.467897 0.5 0.0375 0.00378308
0.467897 0.5 -0.0375 0.00378251
0.288069 0.5 -0.375 0.00376141
0.288069 0.5 0.375 0.00376817
0.151149 0.5 -0.45 0.00375434
0.151149 0.5 0.45 0.00375957
0.467897 0.5 -0.1125 0.00378197
0.467897 0.5 0.1125 0.00378374
0.350249 0.5 0.3375 0.00377243
0.350249 0.5 -0.3375 0.00376603
0.075776 0.5 -0.4875 0.00375194
0.075776 0.5 0.4875 0.00375505
0.467897 0.5 -0.1875 0.0037815
0.467897 0.5 0.1875 0.00378448
0.411736 0.5 -0.3 0.00377373
0.411736 0.5 0.3 0.00377909
0 0.5 -0.518821 0.00375
0 0.5 0.518821 0.00375
0.0124865 0.5 0.518821 0.00375083
0.0124865 0.5 -0.518821 0.00375032
0.523432 0.5 -0.00137318 0.00379315
0 0.5 -0.525 0.00375
0 0.5 0.525 0.00375
0.523432 0.5 -0.075 0.00379263
0.523432 0.5 0.075 0.00379378
0 0.5 -0.531179 0.00375
0 0.5 0.531179 0.00375
0.0124865 0.5 -0.531179 0.00375033
0.0124865 0.5 0.531179 0.00375087
0.288069 0.5 -0.45 0.00376145
0.288069 0.5 0.45 0.00376934
0.219992 0.5 -0.4875 0.00375663
0.219993 0.5 0.4875 0.00376441
0.467897 0.5 -0.2625 0.00378108
0.467897 0.5 0.2625 0.00378541
0.350249 0.5 -0.4125 0.00376595
0.350249 0.5 0.4125 0.00377376
0.523432 0.5 -0.15 0.00379204
0.523432 0.5 0.15 0.00379437
0.151149 0.5 -0.525 0.00375446
0.151149 0.5 0.525 0.00376017
0.411736 0.5 -0.375 0.00377349
0.411736 0.5 0.375 0.00378031
0.075776 0.5 -0.5625 0.00375202
0.075776 0.5 0.5625 0.00375527
0.523432 0.5 -0.225 0.00379146
0.523432 0.5 0.225 0.00379502
0.574156 0.5 -0.0375 0.00380275
0.574156 0.5 0.0375 0.00380331
0.467897 0.5 0.3375 0.0037865
0.467897 0.5 -0.3375 0.0037807
0.574156 0.5 -0.1125 0.00380211
0.574156 0.5 0.1125 0.00380382
0 0.5 -0.593821 0.00375
0 0.5 0.593821 0.00375
0.0124865 0.5 -0.593821 0.00375033
0.0124865 0.5 0.593821 0.00375087
0.288069 0.5 -0.525 0.00376164
0.288069 0.5 0.525 0.00377044
0 0.5 -0.6 0.00375
0 0.5 0.6 0.00375
0.350249 0.5 -0.4875 0.00376606
0.350249 0.5 0.4875 0.00377506
0.523432 0.5 -0.3 0.00379087
0.523432 0.5 0.3 0.00379579
0.219992 0.5 -0.5625 0.00375693
0.219992 0.5 0.5625 0.00376529
0.574156 0.5 -0.1875 0.00380142
0.574156 0.5 0.1875 0.00380429
0 0.5 -0.606179 0.00375
0 0.5 0.606179 0.00375
0.0124865 0.5 -0.606179 0.00375035
0.0124865 0.5 0.606179 0.0037509
0.411736 0.5 -0.45 0.00377338
0.411736 0.5 0.45 0.00378156
0.151149 0.5 -0.6 0.00375468
0.151149 0.5 0.6 0.00376069
0.62168 0.5 2.64545e-17 0.003815
0.467897 0.5 0.4125 0.00378768
0.467897 0.5 -0.4125 0.00378039
0.624316 0.5 0.0729402 0.00381629
0.624316 0.5 -0.075 0.00381505
0.574156 0.5 -0.2625 0.00380068
0.574157 0.5 0.2625 0.00380478
0.075776 0.5 -0.6375 0.00375214
0.075776 0.5 0.6375 0.00375545
0.624316 0.5 -0.15 0.0038142
0.624316 0.5 0.15 0.00381671
0.523432 0.5 -0.375 0.0037903
0.523432 0.5 0.375 0.00379667
0.350249 0.5 -0.5625 0.00376632
0.350249 0.5 0.5625 0.0037763
0.624316 0.5 -0.225 0.00381324
0.624316 0.5 0.225 0.00381703
0.288069 0.5 0.6 0.00377145
0.288069 0.5 -0.6 0.00376193
0.574156 0.5 -0.3375 0.00379991
0.574156 0.5 0.3375 0.00380536
0.411736 0.5 -0.525 0.0037734
0.411736 0.5 0.525 0.0037828
0 0.5 -0.668821 0.00375
0 0.5 0.668821 0.00375
0.0124865 0.5 -0.668821 0.00375035
0.0124865 0.5 0.668821 0.0037509
0.67013 0.5 0.0375 0.00382814
0.67013 0.5 -0.0375 0.00382746
0.219993 0.5 -0.6375 0.00375728
0.219993 0.5 0.6375 0.00376604
0 0.5 -0.675 0.00375
0 0.5 0.675 0.00375
0.467897 0.5 0.4875 0.00378889
0.467897 0.5 -0.4875 0.00378025
0.67013 0.5 -0.1125 0.00382655
0.67013 0.5 0.1125 0.00382859
0 0.5 -0.681179 0.00375
0 0.5 0.681179 0.00375
0.0124865 0.5 -0.681179 0.00375037
0.0124865 0.5 0.681179 0.00375092
0.523432 0.5 -0.45 0.00378979
0.523432 0.5 0.45 0.00379761
0.151149 0.5 -0.675 0.00375492
0.151149 0.5 0.675 0.00376112
0.624316 0.5 -0.3 0.00381218
0.624316 0.5 0.3 0.00381732
0.67013 0.5 0.1875 0.00382883
0.67013 0.5 -0.1875 0.00382544
0.574156 0.5 -0.4125 0.00379911
0.574157 0.5 0.4125 0.00380605
0.708171 0.5 1.88651e-17 0.0038401
0.075776 0.5 -0.7125 0.00375227
0.075776 0.5 0.7125 0.00375558
0.715434 0.5 0.0736268 0.00384279
0.715434 0.5 -0.075 0.00384141
0.67013 0.5 0.2625 0.00382893
0.67013 0.5 -0.2625 0.00382416
0.350249 0.5 -0.6375 0.00376657
0.350249 0.5 0.6375 0.00377743
0.411736 0.5 -0.6 0.00377342
0.411736 0.5 0.6 0.00378397
0.624316 0.5 -0.375 0.00381102
0.624316 0.5 0.375 0.00381764
0.715434 0.5 -0.15 0.00384011
0.715434 0.5 0.15 0.00384342
0.467897 0.5 -0.5625 0.0037801
0.467897 0.5 0.5625 0.00379008
0.288069 0.5 -0.675 0.00376223
0.288069 0.5 0.675 0.00377233
0.523432 0.5 -0.525 0.00378929
0.523432 0.5 0.525 0.00379859
0 0.5 -0.743821 0.00375
0 0.5 0.743821 0.00375
0.0124865 0.5 -0.743821 0.00375037
0.0124865 0.5 0.743821 0.00375092
0.219992 0.5 0.7125 0.00376666
0.219992 0.5 -0.7125 0.00375765
0.715434 0.5 -0.225 0.00383856
0.715434 0.5 0.225 0.00384347
0 0.5 -0.75 0.00375
0 0.5 0.75 0.00375
0.67013 0.5 0.3375 0.00382894
0.67013 0.5 -0.3375 0.00382272
0.574156 0.5 -0.4875 0.00379835
0.574156 0.5 0.4875 0.0038068
0 0.5 -0.756179 0.00375
0 0.5 0.756179 0.00375
0.0124865 0.5 -0.756179 0.0037504
0.0124865 0.5 0.756179 0.00375094
0.756813 0.5 -0.0375 0.00385582
0.756813 0.5 0.0375 0.00385681
0.151149 0.5 -0.75 0.00375518
0.151149 0.5 0.75 0.00376145
0.756813 0.5 -0.1125 0.00385444
0.756813 0.5 0.1125 0.00385736
0.624316 0.5 -0.45 0.00380979
0.624316 0.5 0.45 0.003818
0.715434 0.5 -0.3 0.00383676
0.715434 0.5 0.3 0.0038433
0.756813 0.5 0.1875 0.00385749
0.756813 0.5 -0.1875 0.00385269
0.67013 0.5 -0.4125 0.00382115
0.67013 0.5 0.4125 0.00382895
0.411736 0.5 -0.675 0.00377341
0.411736 0.5 0.675 0.00378503
0.467897 0.5 0.6375 0.0037912
0.467897 0.5 -0.6375 0.00377987
0.075776 0.5 -0.7875 0.00375241
0.075776 0.5 0.7875 0.00375566
0.350249 0.5 -0.7125 0.00376681
0.350249 0.5 0.7125 0.00377842
0.523432 0.5 -0.6 0.00378869
0.523432 0.5 0.6 0.00379953
0.797732 0.5 2.68882e-17 0.0038723
0.756813 0.5 -0.2625 0.00385063
0.756814 0.5 0.2625 0.00385725
0.797732 0.5 0.0736268 0.00387316
0.797732 0.5 -0.075 0.00387082
0.288069 0.5 -0.75 0.00376251
0.288069 0.5 0.75 0.00377305
0.574156 0.5 -0.5625 0.00379744
0.574157 0.5 0.5625 0.00380756
0.715434 0.5 -0.375 0.00383474
0.715434 0.5 0.375 0.00384299
0.797732 0.5 -0.15 0.00386886
0.797732 0.5 0.15 0.00387367
0.624316 0.5 -0.525 0.00380842
0.624316 0.5 0.525 0.00381838
0.219992 0.5 -0.7875 0.00375801
0.219992 0.5 0.7875 0.00376713
0 0.5 -0.818821 0.00375
0 0.5 0.818821 0.00375
0.0124865 0.5 0.818821 0.00375094
0.0124865 0.5 -0.818821 0.0037504
0 0.5 -0.825 0.00375
0 0.5 0.825 0.00375
0.756813 0.5 0.3375 0.00385673
0.756814 0.5 -0.3375 0.00384827
0.67013 0.5 -0.4875 0.0038194
0.67013 0.5 0.4875 0.00382898
0.797732 0.5 -0.225 0.00386648
0.797732 0.5 0.225 0.00387356
0 0.5 -0.831179 0.00375
0 0.5 0.831179 0.00375
0.0124865 0.5 -0.831179 0.00375042
0.0124865 0.5 0.831179 0.00375094
0.835106 0.5 0.0375 0.00388832
0.835106 0.5 -0.0375 0.00388686
0.151149 0.5 -0.825 0.00375543
0.151149 0.5 0.825 0.00376169
0.835106 0.5 0.1125 0.00388913
0.835106 0.5 -0.1125 0.0038848
0.715434 0.5 -0.45 0.00383246
0.715434 0.5 0.45 0.00384261
0.797732 0.5 -0.3 0.0038637
0.797732 0.5 0.3 0.00387301
0.467897 0.5 0.7125 0.00379221
0.467897 0.5 -0.7125 0.00377957
0.523432 0.5 -0.675 0.00378799
0.523432 0.5 0.675 0.00380042
0.411736 0.5 -0.75 0.00377333
0.411736 0.5 0.75 0.00378595
0.835106 0.5 -0.1875 0.0038822
0.835106 0.5 0.1875 0.00388929
0.574156 0.5 -0.6375 0.00379638
0.574157 0.5 0.6375 0.0038083
0.350249 0.5 -0.7875 0.003767
0.350249 0.5 0.7875 0.00377923
0.756813 0.5 -0.4125 0.0038456
0.756814 0.5 0.4125 0.00385601
0.075776 0.5 -0.8625 0.00375254
0.075776 0.5 0.8625 0.00375571
0.624316 0.5 0.6 0.00381877
0.624316 0.5 -0.6 0.00380687
0.872064 0.5 5.91974e-17 0.00390488
0.870122 0.5 0.075 0.00390526
0.288069 0.5 -0.825 0.00376277
0.288069 0.5 0.825 0.00377362
0.67013 0.5 -0.5625 0.0038174
0.67013 0.5 0.5625 0.00382903
0.872064 0.5 -0.075 0.00390272
0.835106 0.5 -0.2625 0.00387911
0.835106 0.5 0.2625 0.00388882
0.797732 0.5 -0.375 0.00386054
0.797732 0.5 0.375 0.00387209
0.872064 0.5 0.14794 0.00390693
0.872064 0.5 -0.15 0.00389989
0.715434 0.5 -0.525 0.00382991
0.715434 0.5 0.525 0.0038422
0.219992 0.5 0.8625 0.00376746
0.219993 0.5 -0.8625 0.00375836
0 0.5 -0.893821 0.00375
0 0.5 0.893821 0.00375
0.0124865 0.5 -0.893821 0.00375042
0.0124865 0.5 0.893821 0.00375094
0 0.5 -0.9 0.00375
0 0.5 0.9 0.00375
0.756813 0.5 -0.4875 0.00384255
0.756813 0.5 0.4875 0.00385521
0.872064 0.5 -0.225 0.00389644
0.872064 0.5 0.225 0.0039068
0.835106 0.5 -0.3375 0.00387557
0.835106 0.5 0.3375 0.00388784
0 0.5 0.906179 0.00375
0 0.5 -0.906179 0.00375
0.0124865 0.5 -0.906179 0.00375044
0.0124865 0.5 0.906179 0.00375094
0.90582 0.5 -0.0375 0.00392043
0.90582 0.5 0.0375 0.00392256
0.151149 0.5 -0.9 0.00375566
0.151149 0.5 0.9 0.00376182
0.90582 0.5 -0.1125 0.0039175
0.905821 0.5 0.1125 0.00392379
0.523432 0.5 -0.75 0.00378718
0.523432 0.5 0.75 0.00380119
0.574156 0.5 -0.7125 0.0037952
0.574156 0.5 0.7125 0.00380897
0.797732 0.5 -0.45 0.00385695
0.797732 0.5 0.45 0.00387093
0.467897 0.5 0.7875 0.00379308
0.467897 0.5 -0.7875 0.00377919
0.624316 0.5 -0.675 0.00380515
0.624316 0.5 0.675 0.00381912
0.411736 0.5 -0.825 0.00377319
0.411736 0.5 0.825 0.00378669
0.872064 0.5 0.3 0.00390596
0.872064 0.5 -0.3 0.00389246
0.67013 0.5 -0.6375 0.00381521
0.67013 0.5 0.6375 0.00382906
0.90582 0.5 0.1875 0.00392413
0.905821 0.5 -0.1875 0.0039138
0.350249 0.5 -0.8625 0.00376714
0.350249 0.5 0.8625 0.00377986
0.835106 0.5 -0.4125 0.00387155
0.835106 0.5 0.4125 0.00388642
0.715434 0.5 -0.6 0.00382712
0.715434 0.5 0.6 0.00384176
0.939201 0.5 2.75387e-17 0.0039387
0.075776 0.5 0.9375 0.00375569
0.075776 0.5 -0.9375 0.00375267
0.939111 0.5 0.075 0.00394085
0.939201 0.5 -0.075 0.00393569
0.756813 0.5 0.5625 0.00385433
0.756814 0.5 -0.5625 0.00383921
0.90582 0.5 0.2625 0.00392358
0.905821 0.5 -0.2625 0.00390945
0.288069 0.5 -0.9 0.00376298
0.288069 0.5 0.9 0.00377401
0.872064 0.5 -0.375 0.00388794
0.872064 0.5 0.375 0.0039045
0.939201 0.5 0.148627 0.00394165
0.939201 0.5 -0.15 0.00393178
0.797732 0.5 -0.525 0.00385297
0.797732 0.5 0.525 0.00386962
0.219992 0.5 0.9375 0.00376764
0.219992 0.5 -0.9375 0.00375866
0.939201 0.5 -0.225 0.00392707
0.939201 0.5 0.225 0.00394174
0.905821 0.5 -0.3375 0.00390454
0.90582 0.5 0.3375 0.00392222
0.835106 0.5 -0.4875 0.00386699
0.835106 0.5 0.4875 0.00388476
0 0.5 0.968821 0.00375
0 0.5 -0.968821 0.00375
0.0124865 0.5 -0.968821 0.00375044
0.0124865 0.5 0.968821 0.00375094
0.969689 0.5 -0.0375 0.00395385
0.969689 0.5 0.0375 0.00395679
0.574156 0.5 -0.7875 0.00379391
0.574156 0.5 0.7875 0.00380954
0 0.5 -0.975 0.00375
0 0.5 0.975 0.00375
0.624316 0.5 -0.75 0.00380332
0.624316 0.5 0.75 0.00381941
0.969689 0.5 -0.1125 0.00394985
0.96969 0.5 0.1125 0.0039586
0.523432 0.5 -0.825 0.00378629
0.523432 0.5 0.825 0.00380182
0.67013 0.5 0.7125 0.00382906
0.67013 0.5 -0.7125 0.00381286
0 0.5 -0.981179 0.00375
0 0.5 0.981179 0.00375
0.467897 0.5 0.8625 0.00379376
0.467897 0.5 -0.8625 0.00377872
0.0124865 0.5 -0.981179 0.00375046
0.0124865 0.5 0.981179 0.00375093
0.872064 0.5 -0.45 0.00388284
0.872064 0.5 0.45 0.00390256
0.715434 0.5 -0.675 0.00382413
0.715434 0.5 0.675 0.00384129
0.939201 0.5 -0.3 0.00392168
0.939201 0.5 0.3 0.00394073
0.151149 0.5 0.975 0.00376185
0.151149 0.5 -0.975 0.00375585
0.969689 0.5 -0.1875 0.00394488
0.969689 0.5 0.1875 0.00395926
0.756813 0.5 -0.6375 0.00383563
0.756813 0.5 0.6375 0.00385341
0.411736 0.5 -0.9 0.00377298
0.411736 0.5 0.9 0.00378724
0.90582 0.5 -0.4125 0.003899
0.90582 0.5 0.4125 0.00392016
0.995005 0.5 0.0749309 0.00397177
0.797732 0.5 -0.6 0.00384871
0.797732 0.5 0.6 0.00386818
1.00005 0.5 -8.47123e-18 0.003972
0.350249 0.5 -0.9375 0.0037672
0.350249 0.5 0.9375 0.00378027
1.00005 0.5 -0.0749309 0.0039681
0.969689 0.5 -0.2625 0.00393909
0.969689 0.5 0.2625 0.00395875
0.835106 0.5 -0.5625 0.00386211
0.835106 0.5 0.5625 0.00388288
1.00005 0.5 -0.149862 0.0039631
0.939201 0.5 -0.375 0.00391563
0.939201 0.5 0.375 0.00393883
1.00029 0.5 0.148988 0.00397578
0.075776 0.5 -1.0125 0.00375278
0.075776 0.5 1.0125 0.00375562
0.288069 0.5 0.975 0.00377423
0.288069 0.5 -0.975 0.00376313
0.872064 0.5 -0.525 0.00387725
0.872064 0.5 0.525 0.00390029
1.00005 0.5 0.224793 0.00397629
1.00005 0.5 -0.224793 0.00395711
0.969689 0.5 0.3375 0.00395715
0.96969 0.5 -0.3375 0.00393265
1.0271 0.5 -0.0368226 0.0039884
1.0271 0.5 0.0368226 0.00399213
0.90582 0.5 0.4875 0.00391758
0.905821 0.5 -0.4875 0.00389278
1.0271 0.5 -0.110468 0.00398346
1.0271 0.5 0.110468 0.00399703
0.67013 0.5 0.7875 0.003829
0.67013 0.5 -0.7875 0.00381039
0.624316 0.5 0.825 0.0038196
0.624316 0.5 -0.825 0.00380137
0.219993 0.5 -1.0125 0.0037589
0.219993 0.5 1.0125 0.00376764
0.574156 0.5 -0.8625 0.00379252
0.574156 0.5 0.8625 0.00380997
0.715434 0.5 -0.75 0.00382101
0.715434 0.5 0.75 0.00384078
0.756813 0.5 0.7125 0.00385246
0.756814 0.5 -0.7125 0.00383188
0.523432 0.5 -0.9 0.00378531
0.523432 0.5 0.9 0.00380228
0.939201 0.5 -0.45 0.00390881
0.939201 0.5 0.45 0.00393617
1.04168 0.5 0 0.00399982
1.0271 0.5 -0.184113 0.00397739
1.0271 0.5 0.184113 0.00399551
0 0.5 -1.04382 0.00375
0 0.5 1.04382 0.00375
0.0124865 0.5 -1.04382 0.00375046
0.0124865 0.5 1.04382 0.00375093
1.00005 0.5 -0.299723 0.0039503
1.00005 0.5 0.299723 0.00397523
1.04168 0.5 -0.0729162 0.00399521
1.04168 0.5 0.0729162 0.00400311
0.797732 0.5 -0.675 0.00384424
0.797732 0.5 0.675 0.00386666
0.467897 0.5 0.9375 0.00379423
0.467897 0.5 -0.9375 0.00377817
0 0.5 -1.05 0.00375
0 0.5 1.05 0.00375
0.835106 0.5 -0.6375 0.00385694
0.835106 0.5 0.6375 0.00388085
1.04168 0.5 -0.145832 0.00398944
1.04168 0.5 0.145832 0.00400502
0.969689 0.5 -0.4125 0.00392537
0.96969 0.5 0.4125 0.00395457
0 0.5 -1.05618 0.00375
0 0.5 1.05618 0.00375
0.0124865 0.5 -1.05618 0.00375047
0.0124865 0.5 1.05618 0.00375091
1.05695 0.5 -0.0360764 0.00400728
1.05695 0.5 0.0360764 0.00401154
0.411736 0.5 -0.975 0.00377269
0.411736 0.5 0.975 0.0037876
0.872064 0.5 -0.6 0.00387133
0.872064 0.5 0.6 0.00389779
1.0271 0.5 -0.257759 0.00397033
1.0271 0.5 0.257759 0.00399522
0.151149 0.5 -1.05 0.00375601
0.151149 0.5 1.05 0.00376176
1.05695 0.5 0.108229 0.00401644
1.05695 0.5 -0.108229 0.00400182
1.04168 0.5 -0.218749 0.00398262
1.04168 0.5 0.218749 0.0040056
0.90582 0.5 -0.5625 0.00388617
0.905821 0.5 0.5625 0.00391467
1.00005 0.5 -0.374654 0.00394265
1.00005 0.5 0.374654 0.003973
0.350249 0.5 1.0125 0.00378054
0.350249 0.5 -1.0125 0.00376719
1.05695 0.5 -0.180382 0.00399523
1.05695 0.5 0.180382 0.00401582
1.07319 0.5 0.0709442 0.00402544
0.939201 0.5 -0.525 0.00390135
0.939201 0.5 0.525 0.00393297
1.0271 0.5 -0.331404 0.00396245
1.0271 0.5 0.331404 0.00399357
1.08112 0.5 3.23815e-17 0.0040263
1.04168 0.5 -0.291665 0.00397488
1.04168 0.5 0.291665 0.00400482
1.08112 0.5 -0.0709442 0.00402098
0.969689 0.5 -0.4875 0.00391719
0.96969 0.5 0.4875 0.00395118
1.05695 0.5 0.252535 0.00401596
1.05695 0.5 -0.252535 0.00398766
0.288069 0.5 -1.05 0.0037632
0.288069 0.5 1.05 0.00377426
0.075776 0.5 -1.0875 0.00375286
0.075776 0.5 1.0875 0.00375551
1.08112 0.5 -0.141888 0.0040145
1.08145 0.5 0.140165 0.00403232
0.715434 0.5 0.825 0.00384021
0.715434 0.5 -0.825 0.00381779
0.756813 0.5 0.7875 0.00385147
0.756814 0.5 -0.7875 0.00382801
0.67013 0.5 -0.8625 0.00380784
0.67013 0.5 0.8625 0.00382886
0.797732 0.5 -0.75 0.00383963
0.797732 0.5 0.75 0.00386511
0.624316 0.5 -0.9 0.00379935
0.624316 0.5 0.9 0.00381965
1.00005 0.5 -0.449585 0.00393403
1.00005 0.5 0.449585 0.00396976
0.835106 0.5 -0.7125 0.00385161
0.835106 0.5 0.7125 0.00387875
0.574156 0.5 -0.9375 0.00379105
0.574157 0.5 0.9375 0.00381022
1.10076 0.5 -0.0349809 0.00403767
1.10076 0.5 0.0349809 0.00404278
1.08112 0.5 -0.212832 0.00400699
1.08112 0.5 0.212832 0.00403409
0.872064 0.5 -0.675 0.00386516
0.872064 0.5 0.675 0.0038951
1.04168 0.5 -0.364581 0.0039662
1.04168 0.5 0.364581 0.00400265
1.0271 0.5 0.405049 0.00399069
1.0271 0.5 -0.405049 0.00395355
1.05695 0.5 -0.324688 0.00397923
1.05695 0.5 0.324688 0.00401467
1.10076 0.5 -0.104943 0.00403139
1.10076 0.5 0.104943 0.00404644
0.523432 0.5 0.975 0.00380254
0.523432 0.5 -0.975 0.00378425
0.90582 0.5 0.6375 0.0039115
0.905821 0.5 -0.6375 0.00387919
0.219992 0.5 1.0875 0.00376746
0.219992 0.5 -1.0875 0.00375909
1.11376 0.5 3.81639e-17 0.00404968
0.939201 0.5 0.6 0.00392932
0.939201 0.5 -0.6 0.00389355
1.10076 0.5 -0.174905 0.00402401
1.10076 0.5 0.174905 0.00404866
0.467897 0.5 -1.0125 0.00377754
0.467897 0.5 1.0125 0.00379452
1.11376 0.5 -0.0693118 0.00404372
1.11376 0.5 0.0693118 0.00405433
1.08112 0.5 0.283777 0.00403393
1.08112 0.5 -0.283777 0.00399853
0 0.5 -1.11882 0.00375
0 0.5 1.11882 0.00375
0.0124865 0.5 -1.11882 0.00375047
0.0124865 0.5 1.11882 0.00375091
0.969689 0.5 -0.5625 0.00390846
0.969689 0.5 0.5625 0.00394729
1.11376 0.5 0.138624 0.00405773
1.11376 0.5 -0.138624 0.00403664
0 0.5 -1.125 0.00375
0 0.5 1.125 0.00375
1.10076 0.5 0.244866 0.00404954
1.10076 0.5 -0.244866 0.00401567
0.411736 0.5 -1.05 0.00377232
0.411736 0.5 1.05 0.00378778
1.05695 0.5 -0.396841 0.0039697
1.05695 0.5 0.396841 0.00401186
1.00005 0.5 -0.524516 0.0039247
1.00005 0.5 0.524516 0.00396575
1.04168 0.5 -0.437497 0.00395644
1.04168 0.5 0.437497 0.00399918
0 0.5 -1.13118 0.00375
0 0.5 1.13118 0.00375
0.0124865 0.5 -1.13118 0.00375048
0.0124865 0.5 1.13118 0.00375089
1.11376 0.5 -0.207935 0.00402852
1.11376 0.5 0.207935 0.00405934
1.0271 0.5 -0.478694 0.00394365
1.0271 0.5 0.478694 0.00398673
0.151149 0.5 -1.125 0.00375613
0.151149 0.5 1.125 0.00376156
1.08112 0.5 -0.354722 0.00398905
1.08112 0.5 0.354722 0.00403221
1.13882 0.5 -0.0340295 0.00406534
1.13882 0.5 0.0340295 0.00407122
0.350249 0.5 -1.0875 0.0037671
0.350249 0.5 1.0875 0.00378055
1.13882 0.5 -0.102088 0.0040583
1.13882 0.5 0.102088 0.00407698
1.10076 0.5 -0.314829 0.00400637
1.10076 0.5 0.314829 0.00404905
0.756813 0.5 -0.8625 0.00382408
0.756814 0.5 0.8625 0.00385045
0.797732 0.5 -0.825 0.00383494
0.797732 0.5 0.825 0.00386353
1.11376 0.5 -0.277247 0.00401943
1.11376 0.5 0.277247 0.00405978
0.835106 0.5 0.7875 0.00387664
0.835106 0.5 -0.7875 0.00384619
0.715434 0.5 -0.9 0.00381451
0.715434 0.5 0.9 0.00383957
0.872064 0.5 -0.75 0.00385887
0.872064 0.5 0.75 0.0038923
1.13882 0.5 0.170147 0.00407867
1.13882 0.5 -0.170147 0.00405019
0.67013 0.5 -0.9375 0.00380522
0.67013 0.5 0.9375 0.00382859
0.905821 0.5 -0.7125 0.00387206
0.905821 0.5 0.7125 0.0039081
1.05695 0.5 0.468994 0.00400773
1.05695 0.5 -0.468994 0.00395907
0.939201 0.5 -0.675 0.00388558
0.939201 0.5 0.675 0.00392533
0.624316 0.5 0.975 0.00381955
0.624316 0.5 -0.975 0.00379727
1.04168 0.5 -0.510414 0.0039459
1.04168 0.5 0.510414 0.00399468
0.969689 0.5 -0.6375 0.00389964
0.96969 0.5 0.6375 0.00394269
0.288069 0.5 -1.125 0.00376321
0.288069 0.5 1.125 0.00377406
1.16179 0.5 5.78241e-19 0.00408651
1.08112 0.5 0.425666 0.00402884
1.08112 0.5 -0.425666 0.00397848
1.13882 0.5 -0.238206 0.00404109
1.13882 0.5 0.238206 0.00408026
1.16179 0.5 0.0669104 0.00409545
1.16179 0.5 -0.0669104 0.00407953
0.574156 0.5 -1.0125 0.00378952
0.574156 0.5 1.0125 0.00381028
0.075776 0.5 -1.1625 0.00375292
0.075776 0.5 1.1625 0.00375536
1.00005 0.5 -0.599447 0.00391516
1.00005 0.5 0.599447 0.00396105
1.10076 0.5 0.384791 0.00404671
1.10076 0.5 -0.384791 0.00399592
1.0271 0.5 -0.55234 0.00393331
1.0271 0.5 0.55234 0.00398201
1.11376 0.5 -0.346559 0.00400928
1.11376 0.5 0.346559 0.00405864
1.16179 0.5 -0.133821 0.00407145
1.16179 0.5 0.133821 0.00409698
0.523432 0.5 -1.05 0.00378312
0.523432 0.5 1.05 0.00380266
1.17463 0.5 -0.0331343 0.0040926
1.17463 0.5 0.0331343 0.00409925
1.17463 0.5 -0.0994029 0.00408481
1.17463 0.5 0.0994029 0.00410452
1.16179 0.5 -0.200731 0.00406233
1.16179 0.5 0.200731 0.00409924
1.13882 0.5 -0.306265 0.00403096
1.13882 0.5 0.306265 0.00408049
0.219992 0.5 -1.1625 0.00375921
0.219992 0.5 1.1625 0.00376712
0.467897 0.5 -1.0875 0.00377683
0.467897 0.5 1.0875 0.00379467
1.17463 0.5 0.165672 0.00410827
1.17463 0.5 -0.165672 0.00407595
1.05695 0.5 -0.541147 0.00394793
1.05695 0.5 0.541147 0.00400265
1.18772 0.5 -5.78241e-19 0.00410659
1.11376 0.5 -0.41587 0.00399809
1.11376 0.5 0.41587 0.0040556
1.18772 0.5 -0.065614 0.00409907
1.18772 0.5 0.065614 0.00411321
1.08112 0.5 -0.49661 0.00396712
1.08112 0.5 0.49661 0.00402409
1.10076 0.5 -0.454752 0.00398446
1.10076 0.5 0.454752 0.00404257
1.18534 0.5 0.118202 0.00411767
1.16179 0.5 -0.267642 0.00405217
1.16179 0.5 0.267642 0.00410061
0 0.5 -1.19382 0.00375
0 0.5 1.19382 0.00375
0.0124865 0.5 1.19382 0.00375089
0.0124865 0.5 -1.19382 0.00375048
1.04168 0.5 -0.58333 0.00393525
1.04168 0.5 0.58333 0.00398935
1.18772 0.5 -0.131228 0.00409043
1.17463 0.5 -0.23194 0.00406607
1.17463 0.5 0.23194 0.00411054
0.411736 0.5 -1.125 0.00377187
0.411736 0.5 1.125 0.00378772
1.13882 0.5 -0.374324 0.00401973
1.13882 0.5 0.374324 0.004079
0 0.5 -1.2 0.00375
0 0.5 1.2 0.00375
0.905821 0.5 0.7875 0.00390457
0.905821 0.5 -0.7875 0.00386487
0.872064 0.5 -0.825 0.00385255
0.872064 0.5 0.825 0.00388947
0.835106 0.5 0.8625 0.00387448
0.835106 0.5 -0.8625 0.00384073
0.939201 0.5 -0.75 0.00387758
0.939201 0.5 0.75 0.00392119
0.797732 0.5 -0.9 0.00383023
0.797732 0.5 0.9 0.00386191
1.0271 0.5 0.625985 0.00397646
1.0271 0.5 -0.625985 0.00392305
0.969689 0.5 0.7125 0.00393795
0.96969 0.5 -0.7125 0.00389077
1.18772 0.5 -0.196842 0.00408074
1.18772 0.5 0.196842 0.00412098
0.756814 0.5 -0.9375 0.00382013
0.756814 0.5 0.9375 0.00384937
0 0.5 1.20618 0.00375
0 0.5 -1.20618 0.00375
1.00005 0.5 -0.674378 0.00390554
1.00005 0.5 0.674378 0.00395582
0.0124865 0.5 1.20618 0.00375085
0.0124865 0.5 -1.20618 0.00375049
1.16179 0.5 -0.334552 0.00404095
1.16179 0.5 0.334552 0.00410051
0.715434 0.5 0.975 0.00383883
0.715434 0.5 -0.975 0.0038112
0.151149 0.5 -1.2 0.0037562
0.151149 0.5 1.2 0.00376126
1.20942 0.5 0.0322645 0.00412874
1.20942 0.5 -0.0322645 0.0041208
1.17463 0.5 -0.298209 0.00405511
1.17463 0.5 0.298209 0.00411145
1.20942 0.5 -0.0967935 0.00411221
1.20942 0.5 0.0967935 0.00413434
0.350249 0.5 -1.1625 0.00376693
0.350249 0.5 1.1625 0.00378028
0.67013 0.5 1.0125 0.00382816
0.67013 0.5 -1.0125 0.00380256
1.11376 0.5 0.485183 0.00405079
1.11376 0.5 -0.485183 0.0039862
1.18772 0.5 0.262456 0.00412283
1.18772 0.5 -0.262456 0.00406999
1.10076 0.5 -0.524714 0.00397254
1.10076 0.5 0.524714 0.00403704
1.20942 0.5 -0.161322 0.00410252
1.20942 0.5 0.161322 0.00413889
1.08112 0.5 -0.567554 0.00395554
1.08112 0.5 0.567554 0.00401827
0.624316 0.5 -1.05 0.00379513
0.624316 0.5 1.05 0.00381932
1.13882 0.5 -0.442383 0.00400765
1.13882 0.5 0.442383 0.00407532
1.05695 0.5 0.6133 0.0039967
1.05695 0.5 -0.6133 0.00393705
1.16179 0.5 -0.401463 0.00402884
1.16179 0.5 0.401463 0.00409853
0.574156 0.5 -1.0875 0.00378792
0.574156 0.5 1.0875 0.00381026
1.17463 0.5 0.364477 0.00411083
1.17463 0.5 -0.364477 0.00404311
1.20942 0.5 -0.225851 0.00409176
1.20942 0.5 0.225851 0.00414192
1.23036 0.5 -1.32995e-17 0.0041431
1.2294 0.5 0.0634819 0.0041508
1.04168 0.5 -0.656246 0.00392449
1.04168 0.5 0.656246 0.00398328
1.23036 0.5 -0.0634819 0.00413452
1.18772 0.5 0.32807 0.00412325
1.18772 0.5 -0.32807 0.0040582
0.288069 0.5 -1.2 0.00376314
0.288069 0.5 1.2 0.00377365
1.23036 0.5 -0.126964 0.0041248
1.23036 0.5 0.126964 0.0041563
0.075776 0.5 -1.2375 0.00375296
0.075776 0.5 1.2375 0.00375516
0.523432 0.5 -1.125 0.00378192
0.523432 0.5 1.125 0.00380259
1.0271 0.5 -0.69963 0.00391257
1.0271 0.5 0.69963 0.00397048
1.24274 0.5 0.0314313 0.00415773
1.24274 0.5 -0.0314313 0.00414946
1.20942 0.5 0.29038 0.00414349
1.20942 0.5 -0.29038 0.00407993
1.11376 0.5 -0.554494 0.00397397
1.11376 0.5 0.554494 0.00404464
1.23036 0.5 -0.190445 0.00411398
1.23036 0.5 0.190445 0.00416063
1.24274 0.5 -0.0942942 0.00414001
1.24274 0.5 0.0942942 0.00416468
1.13882 0.5 0.510442 0.00406973
1.13882 0.5 -0.510442 0.0039952
0.969689 0.5 -0.7875 0.00388201
0.969689 0.5 0.7875 0.00393311
1.00005 0.5 -0.749309 0.00389593
1.00005 0.5 0.749309 0.00395042
0.939201 0.5 -0.825 0.00386965
0.939201 0.5 0.825 0.00391698
0.90582 0.5 0.8625 0.00390111
0.90582 0.5 -0.8625 0.00385771
1.17463 0.5 -0.430746 0.00403042
1.17463 0.5 0.430746 0.00410808
1.10076 0.5 -0.594676 0.00396045
1.10076 0.5 0.594676 0.00403049
1.18772 0.5 -0.393684 0.0040456
1.18772 0.5 0.393684 0.00412192
1.24274 0.5 -0.157157 0.00412943
1.24274 0.5 0.157157 0.00417005
1.16179 0.5 -0.468373 0.00401617
1.16179 0.5 0.468373 0.00409429
0.467897 0.5 -1.1625 0.00377604
0.467897 0.5 1.1625 0.00379452
0.872064 0.5 -0.9 0.00384627
0.872064 0.5 0.9 0.00388665
1.25401 0.5 2.08167e-17 0.00416317
0.835106 0.5 0.9375 0.00387232
0.835106 0.5 -0.9375 0.00383529
1.25401 0.5 -0.0622994 0.00415401
1.25401 0.5 0.0622994 0.00417158
1.08112 0.5 -0.638498 0.00394372
1.08112 0.5 0.638498 0.00401155
1.23036 0.5 -0.253927 0.00410209
1.23036 0.5 0.253927 0.00416342
0.219992 0.5 1.2375 0.00376665
0.219992 0.5 -1.2375 0.00375927
1.25309 0.5 0.121964 0.00417752
1.05695 0.5 0.685452 0.00399006
1.05695 0.5 -0.685452 0.00392569
0.797732 0.5 0.975 0.00386026
0.797732 0.5 -0.975 0.00382555
1.25401 0.5 -0.124599 0.00414367
1.20942 0.5 -0.354909 0.00406719
1.20942 0.5 0.354909 0.00414363
1.24274 0.5 -0.220019 0.00411775
1.24274 0.5 0.220019 0.00417386
0.756814 0.5 -1.0125 0.00381619
0.756813 0.5 1.0125 0.0038482
1.25401 0.5 -0.186898 0.00413221
1.25401 0.5 0.186898 0.0041824
0.411736 0.5 -1.2 0.00377134
0.411736 0.5 1.2 0.00378735
0 0.5 -1.26882 0.00375
0 0.5 1.26882 0.00375
0.0124865 0.5 1.26882 0.00375085
0.0124865 0.5 -1.26882 0.00375049
0.715434 0.5 -1.05 0.00380788
0.715434 0.5 1.05 0.00383799
1.23036 0.5 -0.31741 0.00408927
1.23036 0.5 0.31741 0.00416472
1.04168 0.5 -0.729162 0.00391364
1.04168 0.5 0.729162 0.00397689
1.18772 0.5 -0.459298 0.00403251
1.18772 0.5 0.459298 0.00411828
1.24274 0.5 -0.282882 0.00410505
1.24274 0.5 0.282882 0.00417612
0 0.5 -1.275 0.00375
0 0.5 1.275 0.00375
1.27472 0.5 -0.0306319 0.00417872
1.27472 0.5 0.0306319 0.00418786
1.17463 0.5 0.497015 0.00410281
1.17463 0.5 -0.497015 0.00401742
1.11376 0.5 -0.623806 0.00396123
1.11376 0.5 0.623806 0.00403743
1.13882 0.5 -0.578501 0.00398233
1.13882 0.5 0.578501 0.00406275
0.67013 0.5 -1.0875 0.00379988
0.67013 0.5 1.0875 0.00382766
1.27472 0.5 -0.0918959 0.00416834
1.27472 0.5 0.0918959 0.00419225
1.25401 0.5 -0.249197 0.00411971
1.25401 0.5 0.249197 0.0041857
1.16179 0.5 -0.535284 0.0040031
1.16179 0.5 0.535284 0.00408802
1.20942 0.5 -0.419438 0.00405387
1.20942 0.5 0.419438 0.00414194
0 0.5 -1.28118 0.00375
0 0.5 1.28118 0.00375
0.0124865 0.5 1.28118 0.00375081
0.0124865 0.5 -1.28118 0.00375049
1.27472 0.5 0.15316 0.0042019