# nutMean  POINT_DATA 91129
# x  y  z  nutMean
0 0 0 4.9167e-06
0 0.00368111 0 1.64956e-05
0 0.00749587 0 5.74721e-05
0 0.0114491 0 0.000209426
0 0.0155459 0 0.000557136
0 0.0197915 0 0.00121708
0 0.0241911 0 0.00216764
0 0.0287506 0 0.00299783
0 0.0334755 0 0.00351808
0 0.038372 0 0.00387903
0 0.0434463 0 0.00414218
0 0.0487048 0 0.0043372
0 0.0541543 0 0.00449319
0 0.0598016 0 0.0046287
0 0.0656539 0 0.0047545
0 0.0717187 0 0.00487728
0.075776 0.00184055 0 7.586e-06
0.075776 0.00558849 0 1.18151e-05
0.075776 0.00947248 -3.46945e-18 5.48142e-05
0.075776 0.0134975 -3.46945e-18 0.000244263
0.075776 0.0176687 3.46945e-18 0.000670485
0 0.0780037 0 0.00500182
0.075776 0.0219913 3.46945e-18 0.00134409
0.075776 0.0264709 3.46945e-18 0.00228707
0.075776 0.031113 -3.46945e-18 0.003492
0.075776 0.0359237 -3.46945e-18 0.00492957
0 0.0845169 0 0.00513071
0.075776 0.0409092 0 0.00655975
0.075776 0.0460755 -3.46945e-18 0.00833619
0 0.0912666 0 0.00526424
0.075776 0.0514296 -3.46945e-18 0.0102101
0.075776 0.0569779 0 0.0121336
0 0.0982613 0 0.00540172
0.075776 0.0627278 0 0.0140577
0.075776 0.0686863 0 0.0159383
0 0.10551 0 0.00554232
0.075776 0.0748612 3.46945e-18 0.0175989
0.075776 0.0812603 -3.46945e-18 0.0187315
0 0.113022 0 0.00568518
0.075776 0.0878918 3.46945e-18 0.0196266
0 0.120806 0 0.0058298
0.075776 0.0947639 3.46945e-18 0.0203699
0.075776 0.101886 -3.46945e-18 0.0211532
0 0.128874 0 0.00597615
0.075776 0.109266 3.46945e-18 0.0219946
0 0.137234 0 0.00612776
0.075776 0.116914 3.46945e-18 0.0229147
0 0.145897 0 0.0062956
0.075776 0.12484 0 0.0239129
0.151552 0 0 0
0.151552 0.00368111 0 6.37239e-06
0.151552 0.00749587 0 2.22581e-05
0.151552 0.0114491 0 9.27352e-05
0.151552 0.0155459 0 0.00027928
0.151552 0.0197915 0 0.000623735
0.075776 0.133054 0 0.0249851
0.151552 0.0241911 0 0.00114761
0.151552 0.0287506 0 0.00186236
0 0.154876 0 0.00648799
0.151552 0.0334755 0 0.00276211
0.151552 0.038372 0 0.00383162
0.151552 0.0434463 0 0.00505021
0.151552 0.0487048 0 0.00639375
0.075776 0.141566 0 0.0261094
0.151552 0.0541543 0 0.00783637
0.151552 0.0598016 0 0.00935102
0 0.16418 0 0.00670109
0.151552 0.0656539 0 0.0109106
0.151552 0.0717187 0 0.0124564
0.075776 0.150387 0 0.0270142
0.151552 0.0780037 0 0.0138653
0.151552 0.0845169 0 0.0151257
0 0.173822 0 0.00692756
0.075776 0.159528 0 0.0273316
0.151552 0.0912666 0 0.0163194
0.151552 0.0982613 0 0.0175031
0 0.183814 0 0.0071649
0.151552 0.10551 0 0.0187162
0.075776 0.169001 3.46945e-18 0.0268764
0.151552 0.113022 0 0.0199569
0.151552 0.120806 0 0.0212197
0 0.194169 0 0.00742278
0.075776 0.178818 3.46945e-18 0.0257927
0.151552 0.128874 0 0.0224936
0.075776 0.188992 3.46945e-18 0.0244191
0.151552 0.137234 0 0.0237629
0 0.2049 0 0.00771742
0.151552 0.145897 0 0.0249488
0.075776 0.199535 0 0.0231007
0 0.21602 0 0.0080652
0.151552 0.154876 0 0.0258885
0.219992 0.00184055 0 1.88108e-06
0.219992 0.00558849 0 4.71943e-06
0.219992 0.00947248 -3.46945e-18 1.93851e-05
0.219992 0.0134975 3.46945e-18 6.12189e-05
0.219992 0.0176687 0 0.000168552
0.219992 0.0219913 0 0.000370816
0.219993 0.0264709 -3.46945e-18 0.000691222
0.219992 0.031113 -3.46945e-18 0.00113713
0.219992 0.0359238 3.46945e-18 0.00171254
0.151552 0.16418 0 0.0264031
0.075776 0.21046 0 0.0220358
0.219992 0.0409092 3.46945e-18 0.00241882
0.219992 0.0460755 0 0.00325484
0.219993 0.0514296 -3.46945e-18 0.00421669
0.219992 0.0569779 0 0.005298
0 0.227544 0 0.00846045
0.219992 0.0627277 3.46945e-18 0.00649057
0.219992 0.0686863 0 0.0077843
0.151552 0.173822 0 0.0264279
0.219992 0.0748612 3.46945e-18 0.00916693
0.075776 0.221782 0 0.0213036
0.219992 0.0812603 3.46945e-18 0.0106248
0.219992 0.0878917 -3.46945e-18 0.0121427
0.151552 0.183814 0 0.0261213
7.47806e-17 0.239487 0 0.00888641
0.219992 0.0947639 3.46945e-18 0.0137035
0.219993 0.101886 3.46945e-18 0.0152866
0.075776 0.233516 0 0.0207686
0.219993 0.109266 0 0.0168695
0.151552 0.194169 0 0.025698
0.219993 0.116914 0 0.0184325
0 0.251863 0 0.00934106
0.219993 0.12484 0 0.0199557
0.151552 0.2049 0 0.0252281
0.075776 0.245675 0 0.0203942
0.219992 0.133054 3.46945e-18 0.0214209
0.219992 0.141565 0 0.0228102
0.151552 0.21602 0 0.024757
0 0.264688 0 0.00982322
0.219992 0.150387 3.46945e-18 0.0241091
0.075776 0.258275 3.46945e-18 0.0201615
0.219992 0.159528 -3.46945e-18 0.0252962
0.151552 0.227544 0 0.0243373
0.219992 0.169001 3.46945e-18 0.0262158
0 0.27798 0 0.0103316
0.075776 0.271334 3.46945e-18 0.0200512
0.151552 0.239487 3.70071e-18 0.0239617
0.219992 0.178818 3.46945e-18 0.0268124
0.288433 0 0 0
0.288433 0.00368111 0 2.72203e-06
0.288433 0.00749587 0 1.09088e-05
0.288433 0.0114491 0 3.40944e-05
0.288433 0.0155459 3.70071e-18 8.94434e-05
0.288433 0.0197915 0 0.000205522
0.288433 0.0241911 3.70071e-18 0.000405288
0.288433 0.0287506 0 0.000703042
0.219992 0.188991 0 0.0273054
0.288433 0.0334755 0 0.00110821
0.288433 0.038372 0 0.00162446
0.288433 0.0434463 0 0.00225323
7.47806e-17 0.291753 0 0.0108672
0.288433 0.0487048 0 0.00299399
0.288433 0.0541543 0 0.00384422
0.151552 0.251863 0 0.0236194
0.288433 0.0598016 3.70071e-18 0.00479974
0.075776 0.284866 0 0.0200531
0.288433 0.0656539 3.70071e-18 0.00585447
0.219992 0.199534 0 0.0276696
0.288433 0.0717187 0 0.00700009
0.288433 0.0780037 0 0.00822616
0.288433 0.0845169 0 0.00951975
0.288433 0.0912666 0 0.010865
0.219992 0.21046 -3.46945e-18 0.0276986
0.288433 0.0982613 0 0.0121792
0.151552 0.264688 3.70071e-18 0.023339
0 0.306027 0 0.0114436
0.288433 0.10551 0 0.0132663
0.075776 0.29889 3.46945e-18 0.0201644
0.288433 0.113022 0 0.0141988
0.219993 0.221782 0 0.0275169
0.288433 0.120806 0 0.0151109
0.288433 0.128874 0 0.0159198
0.151552 0.27798 0 0.0231266
0.288433 0.137234 0 0.0166446
0 0.320819 0 0.0121201
0.219992 0.233515 -3.46945e-18 0.0272545
0.075776 0.313423 -3.46945e-18 0.0204367
0.288433 0.145897 0 0.017336
0.288433 0.154876 0 0.0179945
0.151552 0.291753 0 0.0229294
0.219993 0.245675 0 0.0269121
0.288433 0.16418 0 0.0185701
0 0.336148 0 0.0129885
0.288433 0.173822 0 0.0190064
0.075776 0.328484 -3.46945e-18 0.021112
0.219993 0.258275 -3.46945e-18 0.0264984
0.151552 0.306027 0 0.0227382
0.288433 0.183814 0 0.0193401
0.288433 0.194169 0 0.019616
0.219992 0.271334 3.46945e-18 0.0261505
0.350249 0.00184056 -3.46945e-18 8.17575e-07
0.350249 0.00558849 0 3.5551e-06
0.350249 0.00947248 3.46945e-18 1.61441e-05
0.350249 0.0134975 0 4.05428e-05
0.350249 0.0176687 0 9.12015e-05
0.350249 0.0219913 0 0.000200952
0.350249 0.0264708 3.46945e-18 0.000376649
0.350249 0.031113 0 0.000638204
0 0.352034 0 0.0136633
0.350249 0.0359238 0 0.000991501
0.075776 0.344091 0 0.0224061
0.350249 0.0409091 0 0.00143982
0.350249 0.0460756 3.46945e-18 0.00198521
0.288433 0.2049 0 0.0197771
0.350249 0.0514296 0 0.00262822
0.151552 0.320819 0 0.0226367
0.350249 0.0569779 0 0.00336816
0.350249 0.0627277 3.46945e-18 0.00420307
0.350249 0.0686863 3.46945e-18 0.00512843
0.350249 0.0748612 3.46945e-18 0.00613747
0.350249 0.0812603 0 0.00722073
0.219992 0.284867 0 0.0257814
0.288433 0.21602 0 0.0198027
0.350249 0.0878917 0 0.00836448
0.350249 0.094764 0 0.0095513
0.350249 0.101886 0 0.0105152
0.350249 0.109266 0 0.0108066
0.288433 0.227544 0 0.0197532
0.075776 0.360265 3.46945e-18 0.0222059
0 0.368496 0 0.0138144
0.151552 0.336148 0 0.0227528
0.350249 0.116914 3.46945e-18 0.0111931
0.219992 0.29889 0 0.0252876
0.370854 0.0241911 1.54074e-33 0.000296097
0.350249 0.12484 0 0.0114613
0.350249 0.133054 0 0.0115408
0.288433 0.239487 -9.25154e-19 0.0196583
0.350249 0.141566 3.46945e-18 0.0116087
0.350249 0.150387 3.46945e-18 0.0117137
0.288433 0.251863 0 0.0195177
0.219992 0.313423 0 0.0246915
0.151552 0.352034 0 0.0226384
0.075776 0.377027 0 0.0213379
0.350249 0.159528 0 0.0118421
0 0.385557 0 0.0136206
0.350249 0.169001 0 0.0119792
0.288433 0.264688 0 0.0193641
0.350249 0.178818 0 0.0121181
0.219992 0.328484 0 0.0240224
0.350249 0.188992 0 0.0122549
0.151552 0.368496 0 0.0219735
0.288433 0.27798 3.70071e-18 0.0192083
0.075776 0.394397 0 0.0202212
0.350249 0.199535 0 0.0123865
7.47806e-17 0.403236 0 0.0134348
0.219992 0.344091 0 0.0233191
0.350249 0.21046 -3.46945e-18 0.0125107
0.288433 0.291753 0 0.0190049
0.412065 9.08189e-19 3.08149e-33 2.3083e-22
0.412065 0.00368111 -2.31298e-18 2.14895e-06
0.412065 0.00749587 -2.31298e-18 1.02387e-05
0.412065 0.0114491 -2.31298e-18 2.8094e-05
0.412065 0.0155459 -2.31298e-18 6.03125e-05
0.412065 0.0197915 0 0.000124712
0.412065 0.0241911 -3.08149e-33 0.000241502
0.412065 0.0264709 0 0.000332531
0.412065 0.0287506 -2.31298e-18 0.00042356
0.412065 0.0334755 -2.31298e-18 0.000681584
0.412065 0.038372 -2.31298e-18 0.00102291
0.151552 0.385557 0 0.0210559
0.412065 0.0434463 0 0.0014505
0.350249 0.221782 0 0.0126264
0.412065 0.0487048 0 0.00196589
0.412065 0.0541543 -3.08149e-33 0.00256931
0.412065 0.0569779 0 0.00291445
0.412065 0.0598016 -2.31298e-18 0.00325958
0.412065 0.0656539 -2.31298e-18 0.0040338
0.412065 0.0717187 -2.31298e-18 0.00488669
0.075776 0.412396 -3.46945e-18 0.0198376
0.412065 0.0780037 -2.31298e-18 0.00581014
0.288433 0.306027 0 0.0187343
0.412065 0.0845169 -2.31298e-18 0.00679222
0.350249 0.233516 3.46945e-18 0.012731
0 0.421557 0 0.0134573
0.412065 0.0912666 -2.31298e-18 0.00777718
0.219992 0.360265 3.46945e-18 0.0225717
0.412065 0.0982613 0 0.00851337
0.412065 0.10551 0 0.0088608
0.412065 0.113022 -2.31298e-18 0.00906976
0.350249 0.245675 0 0.0128207
0.412065 0.120806 0 0.00927205
0.151552 0.403236 0 0.0202482
0.288433 0.320819 0 0.0184096
0.412065 0.128874 -2.31298e-18 0.00939616
0.412065 0.137234 0 0.0094708
0.350249 0.258275 -3.46945e-18 0.0128898
0.219992 0.377026 0 0.0217475
0.412065 0.145897 -2.31298e-18 0.00955197
0.075776 0.431051 0 0.0197877
0.412065 0.154876 -2.31298e-18 0.00964745
0 0.440544 0 0.0135545
0.288433 0.336148 0 0.018048
0.350249 0.271334 0 0.012934
0.412065 0.16418 -2.31298e-18 0.00974996
0.412065 0.173822 -2.31298e-18 0.00985423
0.151552 0.421557 0 0.0197256
0.412065 0.183814 -2.31298e-18 0.00995761
0.350249 0.284867 3.46945e-18 0.0129537
0.219992 0.394397 0 0.0208747
0.288433 0.352034 3.70071e-18 0.0176566
0.412065 0.194169 0 0.0100583
0.075776 0.450382 0 0.0198096
0.412065 0.2049 -2.31298e-18 0.0101551
0 0.46022 0 0.0136553
0.350249 0.29889 3.46945e-18 0.0129491
0.412065 0.21602 0 0.010247
0.151552 0.440544 0 0.01935
0.219993 0.412396 3.46945e-18 0.0200258
0.467897 0.00184056 -3.46945e-18 6.1563e-07
0.467897 0.00558849 0 3.61277e-06
0.288433 0.368496 0 0.0172234
0.467897 0.00947248 0 1.75888e-05
0.467897 0.0134975 0 3.81356e-05
0.467897 0.0176687 3.46945e-18 7.21464e-05
0.467897 0.0219913 -3.46945e-18 0.00013753
0.467897 0.0264709 3.46945e-18 0.000257475
0.467897 0.0311131 3.46945e-18 0.00043361
0.467897 0.0359238 -3.46945e-18 0.000681608
0.467897 0.038372 0 0.000880165
0.467897 0.0409092 3.46945e-18 0.00100559
0.350249 0.313423 0 0.0129206
0.467897 0.0460755 0 0.0014079
0.467897 0.0514296 3.46945e-18 0.00188975
0.412065 0.227544 -2.31298e-18 0.0103332
0.467897 0.0569779 0 0.00245091
0.467897 0.0627277 -3.46945e-18 0.00308953
0.467897 0.0686863 3.46945e-18 0.00380224
0.467897 0.0748612 0 0.00458262
0.467897 0.0812603 0 0.00542082
0.467897 0.0878918 3.46945e-18 0.00630224
0.075776 0.470415 3.46945e-18 0.0198451
0.412065 0.239487 -2.31298e-18 0.0104118
0.467897 0.0947639 -3.46945e-18 0.00705514
0.467897 0.101886 3.46945e-18 0.00714342
0.350249 0.328483 0 0.0128701
0.467897 0.109266 0 0.00722853
0 0.48061 0 0.013757
0.288433 0.385557 0 0.0167449
0.467897 0.116914 0 0.0073194
0.412065 0.251863 -2.31298e-18 0.0104806
0.219992 0.431051 0 0.0192641
0.467897 0.12484 0 0.00740025
0.151552 0.46022 0 0.0190478
0.467897 0.133054 3.46945e-18 0.00747504
0.467897 0.141566 3.46945e-18 0.00755119
0.412065 0.264688 -2.31298e-18 0.010537
0.350249 0.344091 -3.46945e-18 0.0127989
0.467897 0.150387 3.46945e-18 0.00762752
0.467897 0.154876 0 0.00815233
0.467897 0.159528 3.46945e-18 0.00770258
0.288433 0.403236 0 0.016246
0.075776 0.491175 0 0.01992
0.412065 0.27798 -2.31298e-18 0.0105802
0.467897 0.169001 0 0.0077762
0.467897 0.178818 3.46945e-18 0.00784827
0.219992 0.450382 0 0.0186065
6.73026e-17 0.501741 3.70071e-18 0.0138424
0.350249 0.360265 0 0.0127059
0.151552 0.48061 0 0.018802
0.467897 0.188991 0 0.00791864
0.412065 0.291753 0 0.0106096
0.467897 0.199535 0 0.00798719
0.288433 0.421557 0 0.015764
0.467897 0.21046 0 0.00805401
0.412065 0.306027 0 0.0106245
0.350249 0.377027 0 0.0125856
0.467897 0.221782 3.46945e-18 0.0081189
0.075776 0.51269 0 0.0199274
0.219993 0.470415 3.46945e-18 0.0180482
0.467897 0.227544 0 0.00870094
0.412065 0.320819 -2.31298e-18 0.0106246
0.467897 0.233515 0 0.00818151
6.73026e-17 0.523639 3.70071e-18 0.0138843
0.523729 0 0 0
0.523729 0.00368111 0 2.11357e-06
0.523729 0.00749587 -2.31298e-18 1.13403e-05
0.523729 0.0114491 0 2.94511e-05
0.523729 0.0155459 0 5.50606e-05
0.523729 0.0197915 -2.31298e-18 9.69866e-05
0.151552 0.501741 0 0.0185794
0.523729 0.0241911 0 0.000176002
0.523729 0.0287506 0 0.000303724
0.523729 0.0334755 0 0.00048699
0.523729 0.038372 -3.08149e-33 0.000737421
0.523729 0.0434463 0 0.0010588
0.523729 0.0487048 0 0.00145301
0.523729 0.0541543 0 0.00192052
0.288433 0.440544 0 0.0153256
0.523729 0.0598016 0 0.00246021
0.350249 0.394397 -3.46945e-18 0.0124346
0.523729 0.0656539 0 0.00306926
0.467897 0.245675 0 0.00824153
0.523729 0.0717187 0 0.00374267
0.523729 0.0780037 0 0.00447228
0.523729 0.0845169 0 0.00524567
0.523729 0.0912666 0 0.00587278
0.412065 0.336148 0 0.0106102
0.523729 0.0982613 0 0.00614595
0.523729 0.10551 -2.31298e-18 0.0062291
0.467897 0.258275 -3.46945e-18 0.00829891
0.523729 0.113022 0 0.00631128
0.523729 0.120806 -3.08149e-33 0.00638874
0.219993 0.491176 0 0.0175582
0.523729 0.12484 0 0.00642396
0.523729 0.128874 -2.31298e-18 0.00645918
0.075776 0.534986 0 0.0198792
0.467897 0.271334 3.46945e-18 0.00835399
0.350249 0.412396 -3.46945e-18 0.0122584
0.523729 0.137234 0 0.00652643
0.412065 0.352034 -2.31298e-18 0.0105807
0.288433 0.46022 0 0.0149406
0.523729 0.145897 0 0.00659256
0.151552 0.523639 0 0.018351
0.523729 0.154876 -3.08149e-33 0.00665722
0 0.546332 0 0.0138877
0.523729 0.159528 0 0.00668874
0.467897 0.284867 -3.46945e-18 0.00840598
0.523729 0.16418 -2.31298e-18 0.00672026
0.523729 0.173822 0 0.00678178
0.412065 0.368496 0 0.0105341
0.523729 0.183814 0 0.00684185
0.467897 0.29889 0 0.00845316
0.350249 0.431051 -3.46945e-18 0.01207
0.219992 0.51269 0 0.0171155
0.523729 0.194169 0 0.00690051
0.288433 0.48061 0 0.0146052
0.523729 0.2049 0 0.00695785
0.467897 0.313423 3.46945e-18 0.00849403
0.075776 0.558091 0 0.0197896
0.412065 0.385557 0 0.0104679
0.523729 0.21602 -3.08149e-33 0.00701394
0.151552 0.546332 0 0.0181208
0 0.569849 0 0.0138608
0.350249 0.450382 3.46945e-18 0.0118842
0.523729 0.227544 -3.08149e-33 0.00706871
0.467897 0.328483 0 0.00852722
0.523729 0.231525 1.54074e-33 0.00708649
0.574156 0.00184056 0 5.11259e-07
0.574156 0.00558849 0 3.71478e-06
0.574157 0.00947248 0 2.03484e-05
0.574156 0.0134975 -3.46945e-18 4.15241e-05
0.574156 0.0176687 -3.46945e-18 6.84478e-05
0.574156 0.0219913 0 0.000110854
0.574156 0.0264708 -3.46945e-18 0.000200971
0.574156 0.031113 0 0.00032833
0.574156 0.0359238 -3.46945e-18 0.000513682
0.574157 0.0409092 0 0.000762738
0.523729 0.239487 3.70071e-18 0.00712206
0.574156 0.0460755 -3.46945e-18 0.00107837
0.574156 0.0514295 0 0.0014617
0.412065 0.403236 0 0.0103824
0.574157 0.0569779 0 0.00191247
0.574156 0.0627277 0 0.00242859
0.574156 0.0686863 0 0.00300606
0.219992 0.534986 0 0.0167166
0.288433 0.501741 0 0.014308
0.574156 0.0748612 3.46945e-18 0.00363873
0.574156 0.0812603 0 0.00431633
0.467897 0.344091 0 0.00855145
0.574156 0.0878917 3.46945e-18 0.00502399
0.523729 0.251863 0 0.00717394
0.574157 0.0947639 0 0.0052153
0.574156 0.101886 0 0.00529473
0.574156 0.109266 0 0.00537494
0.574156 0.116914 0 0.00544822
0.412065 0.416977 -6.16298e-33 0.0103072
0.350249 0.470415 0 0.011713
0.523729 0.264688 0 0.00722442
0.075776 0.582034 0 0.0196711
0.574156 0.12484 0 0.0055141
0.574156 0.133054 3.46945e-18 0.00557527
0.412065 0.421557 -2.31298e-18 0.0102822
0.151552 0.569849 0 0.0178936
0.467897 0.360265 -3.46945e-18 0.00856587
0.574157 0.141566 -3.46945e-18 0.00563322
0.523729 0.27798 0 0.0072733
0.574156 0.150386 3.46945e-18 0.00568859
0 0.594219 0 0.0138107
0.574156 0.159528 -3.46945e-18 0.00574187
0.574156 0.16418 0 0.00594557
0.288433 0.523639 1.2326e-32 0.0140425
0.574157 0.169001 0 0.00579349
0.523729 0.291753 0 0.00731974
0.219993 0.558091 3.46945e-18 0.0163564
0.467897 0.377026 0 0.00856976
0.574156 0.178818 3.46945e-18 0.00584371
0.412065 0.440544 -2.31298e-18 0.0101753
0.350249 0.491175 0 0.0115628
0.574156 0.188992 3.46945e-18 0.00589272
0.523729 0.306027 -3.08149e-33 0.00736267
0.574157 0.199535 0 0.00594075
0.574157 0.21046 0 0.005988
0.075776 0.606847 0 0.0195324
0.467897 0.394397 0 0.00856243
0.151552 0.594219 0 0.017674
0.523729 0.320819 0 0.00740103
0.574157 0.221782 -3.46945e-18 0.0060346
0.412065 0.46022 3.08149e-33 0.0100701
0.288433 0.546332 0 0.0138053
0 0.619475 0 0.0137428
0.574156 0.233515 3.46945e-18 0.00608069
0.350249 0.51269 3.46945e-18 0.0114323
0.219992 0.582034 3.46945e-18 0.0160342
0.523729 0.336148 0 0.00743383
0.467897 0.412396 0 0.0085437
0.574156 0.245675 0 0.00612634
0.624584 0 0 0
0.624584 0.00368111 0 2.12481e-06
0.624584 0.00749587 0 1.28222e-05
0.624584 0.0114491 0 3.29652e-05
0.624584 0.0155459 0 5.67131e-05
0.624584 0.0197915 0 8.7782e-05
0.624584 0.0241911 -2.31298e-18 0.000143232
0.624584 0.0287506 0 0.000238874
0.624584 0.0334755 0 0.0003793
0.624584 0.038372 0 0.000572435
0.624584 0.0434463 -2.31298e-18 0.000826219
0.624584 0.0487048 0 0.00114293
0.624584 0.0541543 0 0.00152302
0.624584 0.0598016 0 0.00196525
0.624584 0.0656539 0 0.00246642
0.624584 0.0717187 0 0.00302122
0.624584 0.0780037 0 0.00362131
0.574157 0.258276 3.46945e-18 0.00617161
0.624584 0.0845169 0 0.00421814
0.523729 0.352034 0 0.00746023
0.624584 0.0912666 0 0.00457458
0.624584 0.0982613 0 0.00468356
0.412065 0.48061 3.08149e-33 0.00997348
0.624584 0.10551 0 0.00476154
0.624584 0.113022 -2.31298e-18 0.00483508
0.574156 0.271334 0 0.00621645
0.624584 0.120806 0 0.00490137
0.467897 0.431051 0 0.00851478
0.075776 0.632561 -3.46945e-18 0.0193802
0.624584 0.128874 0 0.0049619
0.151552 0.619475 0 0.0174642
0.288433 0.569849 0 0.0135941
0.350249 0.534985 0 0.0113193
0.624584 0.137234 -2.31298e-18 0.00501839
0.523729 0.368496 0 0.00747962
0.574156 0.284866 -3.46945e-18 0.00626055
0.624584 0.145897 0 0.00507171
0.467897 0.440544 0 0.00882794
0.624584 0.154876 0 0.00512238
0.219992 0.606847 -3.46945e-18 0.0157482
0 0.645647 0 0.0136614
0.624584 0.16418 -3.08149e-33 0.00517089
0.574156 0.29889 -3.46945e-18 0.00630335
0.624584 0.173822 0 0.00521764
0.412065 0.501741 1.54074e-33 0.00988855
0.467897 0.450382 -3.46945e-18 0.00847891
0.523729 0.385557 0 0.00749143
0.624584 0.183814 0 0.00526293
0.624584 0.194169 0 0.00530702
0.574156 0.313423 0 0.00634423
0.624584 0.2049 0 0.00535016
0.350249 0.558091 3.46945e-18 0.0112216
0.288433 0.594219 0 0.0134075
0.624584 0.21602 0 0.00539254
0.523729 0.403236 0 0.00749526
0.574156 0.328483 -3.46945e-18 0.00638245
0.151552 0.645647 0 0.0172652
0.467897 0.470415 3.46945e-18 0.00844071
0.075776 0.659208 0 0.0192192
0.624584 0.227544 0 0.00543432
0.412065 0.523639 0 0.00981578
0.523729 0.41545 3.08149e-33 0.00749258
0.624584 0.239487 3.70071e-18 0.00547564
0.574156 0.344091 0 0.00641734
0.219992 0.632561 0 0.0154952
0.67013 0.00184055 0 4.40093e-07
0.67013 0.00558849 0 3.83176e-06
0.67013 0.00947248 0 2.32979e-05
0.67013 0.0134975 0 4.64431e-05
0.67013 0.0176687 -3.46945e-18 7.02273e-05
0.67013 0.0219913 0 0.000101829
0.67013 0.0264708 3.46945e-18 0.000160829
0.67013 0.0311131 0 0.000268523
0.67013 0.0359237 0 0.00041177
0.67013 0.0409092 -3.46945e-18 0.0006096
0.67013 0.0460755 0 0.000865707
0.67013 0.0514296 3.46945e-18 0.00118149
0.523729 0.421557 -2.31298e-18 0.00749124
0.67013 0.056978 0 0.00155648
0 0.67277 0 0.0135699
0.67013 0.0627277 0 0.00198856
0.624584 0.251863 0 0.0055166
0.67013 0.0686863 0 0.00247315
0.67013 0.0748612 3.46945e-18 0.00300374
0.67013 0.0812603 0 0.00356998
0.67013 0.0878917 0 0.00401748
0.67013 0.0947639 3.46945e-18 0.00410808
0.574156 0.360265 0 0.00644835
0.67013 0.101886 0 0.00418585
0.523729 0.431051 0 0.00748592
0.624584 0.264688 0 0.00555721
0.467897 0.491175 0 0.00840468
0.67013 0.109266 3.46945e-18 0.00426055
0.350249 0.582034 0 0.0111374
0.67013 0.116914 0 0.00432691
0.67013 0.12484 0 0.00438692
0.67013 0.133054 0 0.00444234
0.288433 0.619475 0 0.0132439
0.624584 0.27798 -3.08149e-33 0.00559739
0.412065 0.546332 1.54074e-33 0.00975478
0.523729 0.440544 -3.08149e-33 0.00748059
0.67013 0.141566 3.46945e-18 0.0044941
0.685312 0.0241911 -7.70372e-34 0.000131359
0.685312 0.0434463 -7.70372e-34 0.00072402
0.67013 0.150387 0 0.00454269
0.574156 0.377026 -3.46945e-18 0.00647507
0.67013 0.159528 0 0.00458855
0.624584 0.291753 0 0.00563686
0.151552 0.67277 0 0.017077
0.075776 0.686823 0 0.0190528
0.67013 0.169001 0 0.00463226
0.67013 0.178818 0 0.00467419
0.467897 0.51269 0 0.00837386
0.685312 0.113022 -7.70372e-34 0.00422391
0.219992 0.659208 0 0.0152713
0.624584 0.306027 0 0.00567526
0.67013 0.188991 0 0.00471468
0.574156 0.394397 3.46945e-18 0.00649712
0.523729 0.46022 0 0.00746571
0.685312 0.137234 -7.70372e-34 0.00439804
0.67013 0.199535 -3.46945e-18 0.00475402
0.350249 0.606847 0 0.0110658
0 0.700877 0 0.0134712
0.624584 0.320819 0 0.00571212
0.67013 0.21046 0 0.00479245
0.412065 0.569849 -2.31298e-18 0.00970476
0.67013 0.221782 -3.46945e-18 0.00483019
0.574157 0.412396 0 0.00651411
0.288433 0.645647 0 0.0131014
0.624584 0.336148 -3.08149e-33 0.00574694
0.67013 0.233515 3.46945e-18 0.00486741
0.467897 0.534986 0 0.00835008
0.523729 0.48061 0 0.00744976
0.624584 0.344091 0 0.00576312
0.67013 0.245675 0 0.00490425
0.715676 4.54095e-19 0 6.82081e-23
0.715676 0.00368111 0 2.14419e-06
0.715676 0.00749587 0 1.43124e-05
0.715676 0.0114491 0 3.69535e-05
0.715676 0.0155459 0 6.0757e-05
0.715676 0.0197915 0 8.65653e-05
0.715676 0.0241911 0 0.000125422
0.715676 0.0287506 0 0.000198184
0.715676 0.0334755 0 0.000312133
0.715676 0.038372 0 0.000467116
0.624584 0.352034 -2.31298e-18 0.00577929
0.715676 0.0434463 0 0.000672921
0.151552 0.700877 0 0.0168996
0.715676 0.0487048 0 0.000934479
0.715676 0.0541543 0 0.00125242
0.574156 0.43105 0 0.00652598
0.715676 0.0598016 0 0.00162555
0.67013 0.258275 0 0.0049408
0.715676 0.0656539 0 0.00205051
0.715676 0.0717187 0 0.00252166
0.075776 0.715441 0 0.0188839
0.715676 0.0780037 0 0.00303054
0.715676 0.0845169 0 0.00346891
0.219992 0.686824 0 0.015073
0.715676 0.0912666 0 0.00368976
0.715676 0.0982613 0 0.00377393
0.67013 0.271334 -3.46945e-18 0.00497708
0.350249 0.632561 -3.46945e-18 0.0110064
0.412065 0.594219 3.08149e-33 0.00966499
0.715676 0.10551 0 0.00384951
0.715676 0.113022 0 0.00391832
0.624584 0.368496 0 0.00580877
0.523729 0.501741 0 0.00743566
0.715676 0.120806 0 0.00397989
0.715676 0.128874 0 0.00403599
0.67013 0.284867 0 0.00501302
0.467897 0.558091 3.46945e-18 0.00833413
0.715676 0.137234 0 0.00408786
0.574156 0.450382 0 0.00653328
0 0.730005 0 0.0133677
0.715676 0.145897 0 0.00413623
0.288433 0.67277 0 0.0129782
0.715676 0.154876 0 0.00418158
0.67013 0.29889 0 0.00504849
0.624584 0.385557 0 0.00583504
0.715676 0.16418 -9.25187e-19 0.0042244
0.715676 0.173822 0 0.00426513
0.715676 0.183814 0 0.00430414
0.67013 0.313423 0 0.00508327
0.523729 0.523639 0 0.00742563
0.715676 0.194169 0 0.00434175
0.574156 0.470415 3.46945e-18 0.00653749
0.624584 0.403236 0 0.00585779
0.743101 0.0241911 -7.70372e-34 0.000123016
0.412065 0.619475 3.08149e-33 0.00963498
0.715676 0.2049 0 0.00437823
0.151552 0.730005 0 0.0167329
0.67013 0.328484 3.46945e-18 0.00511707
0.350249 0.659208 0 0.0109586
0.467897 0.582034 0 0.00832595
0.715676 0.21602 0 0.00441381
0.219992 0.715441 0 0.0148978
0.075776 0.745097 -3.46945e-18 0.0187147
0.715676 0.227544 0 0.00444868
0.67013 0.344091 0 0.00514959
0.624584 0.421557 0 0.00587682
0.743101 0.128874 -7.70372e-34 0.0038286
0.715676 0.239487 3.70071e-18 0.00448301
0.574156 0.491175 0 0.00654078
0.756814 0.00184055 0 3.85941e-07
0.523729 0.546332 0 0.00742111
0.756813 0.00558849 0 3.91816e-06
0.756813 0.00947248 0 2.61183e-05
0.756814 0.0134975 -3.46945e-18 5.17209e-05
0.756814 0.0155459 0 6.3103e-05
0.756814 0.0176687 0 7.43647e-05
0.756814 0.0219913 0 9.97808e-05
0.756814 0.0264709 0 0.000139919
0.756814 0.031113 -3.46945e-18 0.000225332
0.756813 0.0359238 -3.46945e-18 0.000346075
0.288433 0.700877 0 0.0128724
0.756814 0.0409092 -3.46945e-18 0.000505944
0.756813 0.0460755 3.46945e-18 0.000717749
0.756813 0.0514296 0 0.000983043
0.715676 0.251863 0 0.00451691
0.756813 0.0569779 0 0.00130184
0.756814 0.0627277 -3.46945e-18 0.00167193
0.756814 0.0686863 -3.46945e-18 0.00208877
0 0.76019 0 0.0132616
0.756814 0.0748612 0 0.00254546
0.67013 0.360265 3.46945e-18 0.00518053
0.756814 0.0812603 -3.46945e-18 0.00303191
0.756814 0.0878917 -3.46945e-18 0.00329289
0.756814 0.0947639 -3.46945e-18 0.00338259
0.715676 0.264688 0 0.00455046
0.756813 0.101886 0 0.00346122
0.624584 0.440544 0 0.00589224
0.756813 0.109266 3.46945e-18 0.00353248
0.756813 0.116914 3.46945e-18 0.0035956
0.412065 0.645647 0 0.00961446
0.467897 0.606847 0 0.00832523
0.756814 0.120806 0 0.00366959
0.756813 0.12484 0 0.00365256
0.715676 0.27798 0 0.00458367
0.756814 0.133054 -3.46945e-18 0.00370472
0.67013 0.377026 -3.46945e-18 0.00520959
0.756814 0.137234 0 0.00377589
0.574156 0.51269 0 0.00654527
0.756813 0.141566 3.46945e-18 0.00375305
0.685312 0.352034 -7.70372e-34 0.00508723
0.743101 0.2049 -7.70372e-34 0.00416407
0.350249 0.686824 0 0.0109222
0.756814 0.150387 0 0.00379802
0.756814 0.154876 0 0.00386753
0.715676 0.291753 0 0.0046165
0.756814 0.159528 -3.46945e-18 0.0038402
0.523729 0.569849 0 0.0074228
0.72743 0.264688 0 0.00445572
0.756814 0.16418 0 0.00390917
0.151552 0.76019 0 0.016577
0.756813 0.169001 3.46945e-18 0.00387993
0.624584 0.46022 0 0.00590468
0.219993 0.745097 0 0.0147433
0.67013 0.394396 0 0.00523652
0.756813 0.178818 -3.46945e-18 0.00391769
0.715676 0.306027 0 0.00464885
0.075776 0.775831 0 0.0185477
0.756813 0.188991 0 0.00395379
0.756814 0.199535 0 0.00398854
0.715676 0.320819 0 0.00468055
0.574156 0.534985 0 0.00655281
0.288433 0.730005 0 0.012783
0.756813 0.21046 0 0.00402218
0.467897 0.632561 0 0.00833178
0.67013 0.412396 -3.46945e-18 0.00526107
0.624584 0.48061 -3.08149e-33 0.00591539
0.756814 0.221782 0 0.00405493
0.412065 0.67277 3.08149e-33 0.00960327
0.715676 0.336148 0 0.00471141
0 0.791472 0 0.0131551
0.756813 0.233516 3.46945e-18 0.00408697
0.523729 0.594219 0 0.00743086
0.624584 0.487654 1.54074e-33 0.00591891
0.756814 0.245675 3.46945e-18 0.00411844
0.350249 0.715441 3.46945e-18 0.010897
0.67013 0.43105 0 0.00528312
0.715676 0.352034 -9.25187e-19 0.00474121
0.797951 9.08189e-19 -3.08149e-33 1.22347e-22
0.797951 0.00368111 2.31298e-18 2.14272e-06
0.797951 0.00749587 2.31298e-18 1.56321e-05
0.797951 0.0114491 2.31298e-18 4.07215e-05
0.797951 0.0141803 7.70372e-34 5.72064e-05
0.797951 0.0155459 0 6.54489e-05
0.797951 0.0169611 7.70372e-34 7.31828e-05
0.797951 0.0197915 2.31298e-18 8.86505e-05
0.797951 0.0219913 0 0.000103427
0.797951 0.0241911 3.08149e-33 0.000118203
0.797951 0.0264709 0 0.000145075
0.797951 0.0287506 -3.08149e-33 0.000171947
0.797951 0.0334755 2.31298e-18 0.000265073
0.797951 0.038372 2.31298e-18 0.000394857
0.797951 0.0434463 2.31298e-18 0.000564577
0.797951 0.0487048 0 0.000784245
0.756813 0.258275 -3.46945e-18 0.00414946
0.797951 0.0541543 2.31298e-18 0.00105515
0.797951 0.0598016 2.31298e-18 0.00137624
0.797951 0.0656539 2.31298e-18 0.00174428
0.574156 0.55809 0 0.00656473
0.624584 0.501741 0 0.00592595
0.797951 0.0717187 2.31298e-18 0.00215358
0.797951 0.0780037 -3.08149e-33 0.00259559
0.797951 0.0845169 2.31298e-18 0.00292484
0.797951 0.0912666 -3.08149e-33 0.00307116
0.797951 0.0982613 2.31298e-18 0.00315617
0.756813 0.271334 0 0.00418008
0.797951 0.10551 2.31298e-18 0.00323187
0.715676 0.368496 0 0.00476973
0.151552 0.791472 0 0.016432
0.797951 0.113022 2.31298e-18 0.00329916
0.219992 0.775831 3.46945e-18 0.0146077
0.797951 0.118211 7.70372e-34 0.00333924
0.770526 0.239487 1.54074e-33 0.0040469
0.797951 0.120806 0 0.00335928
0.67013 0.450382 3.46945e-18 0.00530273
0.797951 0.128874 3.08149e-33 0.00341383
0.467897 0.659208 0 0.00834554
0.756813 0.284866 -3.46945e-18 0.00421036
0.743101 0.320819 -7.70372e-34 0.00445318
0.797951 0.137234 0 0.00346392
0.797951 0.141566 0 0.0034871
0.797951 0.145897 -9.25187e-19 0.00351029
0.523729 0.619475 0 0.00744531
0.075776 0.807681 0 0.0183848
0.797951 0.150387 0 0.00353188
0.797951 0.154876 0 0.00355348
0.715676 0.385557 0 0.00479678
0.412065 0.700877 3.08149e-33 0.00960134
0.288433 0.76019 0 0.0127087
0.756813 0.29889 0 0.00424027
0.797951 0.16418 0 0.00359393
0.624584 0.523639 0 0.00593792
0.797951 0.167394 7.70372e-34 0.00360663
0.797951 0.173822 2.31298e-18 0.00363203
0.574156 0.582034 0 0.0065817
0.67013 0.470415 0 0.00532044
0.797951 0.183814 2.31298e-18 0.00366815
0.756813 0.313423 -3.46945e-18 0.00426977
0.797951 0.194169 -9.25187e-19 0.00370263
0.715676 0.403236 0 0.00482215
0.151552 0.807681 0 0.0163653
0.797951 0.197746 -7.70372e-34 0.00371367
0.350249 0.745097 0 0.0108826
0.797951 0.2049 3.08149e-33 0.00373573
0 0.823889 0 0.01305
0.756813 0.328483 -3.46945e-18 0.00429874
0.797951 0.21046 0 0.0037517
0.797951 0.21602 -3.08149e-33 0.00376768
0.797951 0.223703 7.70372e-34 0.00378833
0.797951 0.227544 9.25187e-19 0.00379866
0.624584 0.546332 0 0.00595268
0.715676 0.421557 0 0.00484573
0.67013 0.491176 -3.46945e-18 0.00533712
0.797951 0.231525 7.70372e-34 0.00380872
0.467897 0.686824 -3.46945e-18 0.00836658
0.523729 0.645647 0 0.00746612
0.756813 0.344091 -3.46945e-18 0.00432707
0.822721 0.120806 7.70372e-34 0.00321011
0.797951 0.239487 -3.08149e-33 0.00382885
0.822721 0.137234 7.70372e-34 0.00331477
0.835106 0.00184056 0 3.42801e-07
0.835106 0.00558849 0 3.92508e-06
0.835106 0.00947248 0 2.85046e-05
0.835106 0.0134975 0 5.63576e-05
0.835107 0.0176687 0 7.91054e-05
0.835106 0.0219913 -3.46945e-18 0.00010119