# nutMean  POINT_DATA 63140
# x  y  z  nutMean
0 0.1 0 0.00543544
0 0.1 -0.0179898 0.00543799
0 0.1 0.0179898 0.00543226
0.0363518 0.1 0.0179898 0.0122648
0.0363518 0.1 -0.0179898 0.0136515
0 0.1 -0.0570102 0.00544763
0 0.1 0.0570102 0.0054251
0.0363518 0.1 0.0570102 0.0122576
0.0363518 0.1 -0.0570102 0.0136611
0 0.1 -0.075 0.00545371
0 0.1 0.075 0.00542189
0.075776 0.1 -0.0375 0.0223513
0.075776 0.1 0.0375 0.0195403
0 0.1 -0.0929898 0.00545893
0 0.1 0.0929898 0.00541809
0.0363518 0.1 -0.0929898 0.0144617
0.0363518 0.1 0.0929898 0.011173
0 0.1 -0.13201 0.0054797
0 0.1 0.13201 0.00541088
0.075776 0.1 -0.1125 0.0238932
0.075776 0.1 0.1125 0.0173264
0.0363518 0.1 -0.13201 0.0144825
0.0363518 0.1 0.13201 0.0111658
0 0.1 -0.15 0.00549411
0 0.1 0.15 0.00540825
0.150379 0.1 -2.22623e-17 0.0178404
0 0.1 -0.16799 0.00550732
0 0.1 0.16799 0.00540512
0.150379 0.1 -0.075 0.0189084
0.150379 0.1 0.075 0.0166086
0.0363518 0.1 -0.16799 0.0145021
0.0363518 0.1 0.16799 0.0102854
0.075776 0.1 -0.1875 0.023932
0.075776 0.1 0.1875 0.015522
0 0.1 -0.20701 0.0055355
0 0.1 0.20701 0.00540141
0.0363518 0.1 -0.20701 0.0145303
0.0363518 0.1 0.20701 0.0102817
0.150379 0.1 -0.15 0.0192982
0.150379 0.1 0.15 0.0156157
0.219993 0.1 -0.0375 0.0148716
0.219993 0.1 0.0375 0.0148634
0 0.1 -0.225 0.00554948
0 0.1 0.225 0.00540148
0 0.1 -0.24299 0.00556212
0 0.1 0.24299 0.00540133
0.0363518 0.1 0.24299 0.00955526
0.0363518 0.1 -0.24299 0.0145395
0.219993 0.1 -0.1125 0.0148786
0.219993 0.1 0.1125 0.0148582
0.150379 0.1 -0.225 0.019317
0.150379 0.1 0.225 0.014594
0.075776 0.1 -0.2625 0.0239504
0.075776 0.1 0.2625 0.0140287
0 0.1 -0.28201 0.00559194
0 0.1 0.28201 0.00540298
0.0363518 0.1 -0.28201 0.0145693
0.0363518 0.1 0.28201 0.00955691
0.287374 0.1 -2.89121e-19 0.0125147
0.219992 0.1 0.1875 0.0148212
0.219992 0.1 -0.1875 0.0148851
0.287374 0.1 -0.075 0.0125687
0.287374 0.1 0.075 0.0124774
0 0.1 -0.3 0.00560784
0 0.1 0.3 0.00540518
0 0.1 0.31799 0.00540759
0 0.1 -0.31799 0.00562245
0.0363518 0.1 -0.31799 0.0145801
0.0363518 0.1 0.31799 0.008977
0.287374 0.1 0.15 0.0124248
0.287374 0.1 -0.15 0.0126153
0.150379 0.1 -0.3 0.0193343
0.150379 0.1 0.3 0.0133875
0.219993 0.1 0.2625 0.0140192
0.219993 0.1 -0.2625 0.0148973
0.075776 0.1 -0.3375 0.0239708
0.075776 0.1 0.3375 0.0128315
0.350249 0.1 -0.0375 0.0103137
0.350249 0.1 0.0375 0.0102063
0 0.1 -0.35701 0.00566351
0 0.1 0.35701 0.00541067
0.0363518 0.1 -0.35701 0.0146212
0.0363518 0.1 0.35701 0.00898008
0.287374 0.1 -0.225 0.0126456
0.287374 0.1 0.225 0.0121396
0.350249 0.1 -0.1125 0.0104062
0.350249 0.1 0.1125 0.0101779
0 0.1 -0.375 0.00568792
0 0.1 0.375 0.00541186
0 0.1 -0.39299 0.00571159
0 0.1 0.39299 0.0054134
0.0363518 0.1 -0.39299 0.0143517
0.0363518 0.1 0.39299 0.00854431
0.350249 0.1 -0.1875 0.0104854
0.350249 0.1 0.1875 0.0100393
0.219992 0.1 -0.3375 0.0149156
0.219992 0.1 0.3375 0.0126735
0.150379 0.1 0.375 0.0124033
0.150379 0.1 -0.375 0.0192102
0.411108 0.1 4.33681e-19 0.00865641
0.287374 0.1 -0.3 0.0126604
0.287374 0.1 0.3 0.0115327
0.411108 0.1 -0.075 0.00871974
0.411108 0.1 0.075 0.00861926
0.075776 0.1 -0.4125 0.0234071
0.075776 0.1 0.4125 0.0119318
0 0.1 0.43201 0.00541006
0 0.1 -0.43201 0.00576102
0.0363518 0.1 0.43201 0.00854096
0.0363518 0.1 -0.43201 0.0144012
0.411108 0.1 -0.15 0.00878752
0.411108 0.1 0.15 0.00858992
0.350249 0.1 -0.2625 0.0105067
0.350249 0.1 0.2625 0.00987227
0 0.1 -0.45 0.00578527
0 0.1 0.45 0.00540614
0.219992 0.1 0.4125 0.0121679
0.219992 0.1 -0.4125 0.0149259
0 0.1 -0.46799 0.00580938
0 0.1 0.46799 0.00540234
0.411108 0.1 -0.225 0.00884657
0.411108 0.1 0.225 0.00853999
0.467897 0.1 -0.0375 0.0071284
0.467897 0.1 0.0375 0.00711169
0.0363518 0.1 0.46799 0.0083245
0.0363518 0.1 -0.46799 0.0132084
0.287374 0.1 -0.375 0.0126705
0.287374 0.1 0.375 0.0110277
0.150379 0.1 0.45 0.0118586
0.150379 0.1 -0.45 0.0184745
0.467897 0.1 0.1125 0.00711219
0.467897 0.1 -0.1125 0.00716946
0.350249 0.1 -0.3375 0.0105134
0.350249 0.1 0.3375 0.00972745
0.075776 0.1 -0.4875 0.0209952
0.075776 0.1 0.4875 0.011484
0.467897 0.1 0.1875 0.00715598
0.467897 0.1 -0.1875 0.00722993
0 0.1 -0.50701 0.00585112
0 0.1 0.50701 0.00539077
0.0363518 0.1 -0.50701 0.0132501
0.0363518 0.1 0.50701 0.00831293
0.411108 0.1 0.3 0.00848548
0.411108 0.1 -0.3 0.00889237
0.522865 0.1 1.41031e-17 0.00617914
0 0.1 -0.525 0.0058694
0 0.1 0.525 0.00538421
0.522865 0.1 -0.075 0.00620088
0.522865 0.1 0.075 0.00618027
0.287374 0.1 0.45 0.0108113
0.287374 0.1 -0.45 0.0126499
0.219992 0.1 0.4875 0.0118309
0.219992 0.1 -0.4875 0.0148775
0.467897 0.1 -0.2625 0.00730378
0.467897 0.1 0.2625 0.00720796
0.350249 0.1 -0.4125 0.0105159
0.350249 0.1 0.4125 0.00966651
0 0.1 -0.54299 0.00588762
0 0.1 0.54299 0.00537744
0.522865 0.1 0.15 0.00620736
0.522865 0.1 -0.15 0.00624581
0.0363518 0.1 0.54299 0.00817135
0.0363518 0.1 -0.54299 0.0119799
0.150379 0.1 -0.525 0.0171975
0.150379 0.1 0.525 0.0118284
0.411108 0.1 -0.375 0.00894532
0.411108 0.1 0.375 0.00845554
0.075776 0.1 -0.5625 0.0184524
0.075776 0.1 0.5625 0.0111935
0.522865 0.1 -0.225 0.00630952
0.522865 0.1 0.225 0.00625728
0.574156 0.1 0.0375 0.00527292
0.574157 0.1 -0.0375 0.00527447
0.467897 0.1 -0.3375 0.00738262
0.467897 0.1 0.3375 0.00724015
0 0.1 -0.58201 0.00591321
0 0.1 0.58201 0.00536181
0.0363518 0.1 -0.58201 0.0120055
0.0363518 0.1 0.58201 0.00815572
0.574157 0.1 -0.1125 0.00530268
0.574157 0.1 0.1125 0.00529452
0.287374 0.1 -0.525 0.0125579
0.287374 0.1 0.525 0.0109849
0 0.1 -0.6 0.00592255
0 0.1 0.6 0.00535409
0.350249 0.1 0.4875 0.00968982
0.350249 0.1 -0.4875 0.0104675
0.522865 0.1 -0.3 0.00638703
0.522865 0.1 0.3 0.00631618
0.219992 0.1 -0.5625 0.0146872
0.219992 0.1 0.5625 0.0127565
0.574156 0.1 -0.1875 0.00535316
0.574156 0.1 0.1875 0.00533659
0.411108 0.1 0.45 0.00847711
0.411108 0.1 -0.45 0.00898028
0 0.1 -0.61799 0.00593144
0 0.1 0.61799 0.00534591
0.150379 0.1 -0.6 0.0160809
0.150379 0.1 0.6 0.0119792
0.0363518 0.1 -0.61799 0.0111593
0.0363518 0.1 0.61799 0.00804911
0.467897 0.1 -0.4125 0.00750237
0.467897 0.1 0.4125 0.0072889
0.623803 0.1 2.34188e-17 0.00470971
0.623803 0.1 0.075 0.0047188
0.623803 0.1 -0.075 0.00472447
0.574156 0.1 0.2625 0.0053983
0.574156 0.1 -0.2625 0.00542348
0.623803 0.1 0.15 0.00474983
0.623803 0.1 -0.15 0.00476212
0.075776 0.1 0.6375 0.0109744
0.075776 0.1 -0.6375 0.0167475
0.522865 0.1 -0.375 0.00649141
0.522865 0.1 0.375 0.0063818
0 0.1 0.65701 0.00533144
0 0.1 -0.65701 0.00594052
0.0363518 0.1 0.65701 0.00803464
0.0363518 0.1 -0.65701 0.0111684
0.350249 0.1 0.5625 0.00978748
0.350249 0.1 -0.5625 0.0104042
0.623803 0.1 0.225 0.00480067
0.623803 0.1 -0.225 0.00481998
0.287374 0.1 -0.6 0.0124642
0.287374 0.1 0.6 0.0113005
0.574157 0.1 -0.3375 0.00551084
0.574157 0.1 0.3375 0.00548679
0.411108 0.1 0.525 0.00855695
0.411108 0.1 -0.525 0.00898913
0.67013 0.1 0.0375 0.00416348
0.67013 0.1 -0.0375 0.00416703
0.219992 0.1 -0.6375 0.0145942
0.219993 0.1 0.6375 0.0129089
0 0.1 -0.675 0.0059425
0 0.1 0.675 0.00532607
0.467897 0.1 -0.4875 0.00756585
0.467897 0.1 0.4875 0.00736514
0.67013 0.1 -0.1125 0.00419276
0.67013 0.1 0.1125 0.00418341
0.522865 0.1 0.45 0.0064644
0.522865 0.1 -0.45 0.00660184
0.150379 0.1 0.675 0.0118632
0.150379 0.1 -0.675 0.0153027
0.623803 0.1 0.3 0.00487246
0.623803 0.1 -0.3 0.0048944
0 0.1 -0.69299 0.00594358
0 0.1 0.69299 0.00532006
0.0363518 0.1 -0.69299 0.0105896
0.0363518 0.1 0.69299 0.00795089
0.67013 0.1 -0.1875 0.00423906
0.67013 0.1 0.1875 0.00422397
0.574156 0.1 0.4125 0.00557822
0.574157 0.1 -0.4125 0.00564322
0.714971 0.1 -2.8382e-17 0.00379702
0.075776 0.1 -0.7125 0.0155715
0.075776 0.1 0.7125 0.0108013
0.714971 0.1 -0.075 0.00381308
0.714971 0.1 0.075 0.00380234
0.67013 0.1 0.2625 0.00428304
0.67013 0.1 -0.2625 0.00430356
0.411108 0.1 -0.6 0.00902472
0.411108 0.1 0.6 0.0086843
0.350249 0.1 0.6375 0.00989683
0.350249 0.1 -0.6375 0.0103931
0.623803 0.1 0.375 0.00496013
0.623803 0.1 -0.375 0.00499825
0.714971 0.1 -0.15 0.00384921
0.714971 0.1 0.15 0.00382876
0.467897 0.1 -0.5625 0.00765133
0.467897 0.1 0.5625 0.00749219
0 0.1 -0.73201 0.00593834
0 0.1 0.73201 0.00531036
0.0363518 0.1 0.73201 0.00794119
0.0363518 0.1 -0.73201 0.0105844
0.287374 0.1 -0.675 0.0123953
0.287374 0.1 0.675 0.0113255
0.522865 0.1 -0.525 0.00670968
0.522865 0.1 0.525 0.00658026
0.219993 0.1 -0.7125 0.0143995
0.219992 0.1 0.7125 0.012678
0.714971 0.1 -0.225 0.00390393
0.714971 0.1 0.225 0.00387456
0 0.1 0.75 0.00530734
0 0.1 -0.75 0.00593339
0.67013 0.1 -0.3375 0.00437935
0.67013 0.1 0.3375 0.00436117
0.574156 0.1 -0.4875 0.00576925
0.574157 0.1 0.4875 0.00569165
0.756813 0.1 0.0375 0.00343638
0.756814 0.1 -0.0375 0.00344442
0.150379 0.1 0.746002 0.0116593
0.150379 0.1 -0.75 0.0147463
0.756813 0.1 -0.1125 0.00347124
0.756813 0.1 0.1125 0.00344949
0 0.1 0.76799 0.00530363
0 0.1 -0.76799 0.0059273
0.0363518 0.1 0.76799 0.00787871
0.0363518 0.1 -0.76799 0.010234
0.623803 0.1 -0.45 0.00512491
0.623803 0.1 0.45 0.00506217
0.714971 0.1 -0.3 0.00397267
0.714971 0.1 0.3 0.00393861
0.756814 0.1 -0.1875 0.00351688
0.756814 0.1 0.1875 0.00348181
0.67013 0.1 -0.4125 0.00449967
0.67013 0.1 0.4125 0.00445398
0.411108 0.1 0.675 0.00882435
0.411108 0.1 -0.675 0.00910451
0.467897 0.1 0.6375 0.00767267
0.467897 0.1 -0.6375 0.00778242
0.075776 0.1 0.7875 0.0106719
0.075776 0.1 -0.7875 0.0148532
0.350249 0.1 -0.7125 0.0104101
0.350249 0.1 0.7125 0.00996313
0.522865 0.1 -0.6 0.00684209
0.522865 0.1 0.6 0.00673535
0.797314 0.1 -3.59473e-17 0.0031781
0.287374 0.1 0.746002 0.0112661
0.797314 0.1 -0.075 0.00319564
0.797314 0.1 0.075 0.00317902
0.756814 0.1 -0.2625 0.00357932
0.756814 0.1 0.2625 0.00353324
0.287374 0.1 -0.75 0.0123186
0.574156 0.1 -0.5625 0.00592434
0.574156 0.1 0.5625 0.00583912
0 0.1 0.80701 0.00529924
0 0.1 -0.80701 0.00590988
0.714971 0.1 -0.375 0.00406625
0.714971 0.1 0.375 0.0040197
0.0363518 0.1 0.80701 0.00787433
0.0363518 0.1 -0.80701 0.0102166
0.797314 0.1 -0.15 0.00323087
0.797314 0.1 0.15 0.00319855
0.623803 0.1 -0.525 0.00526605
0.623803 0.1 0.525 0.00518801
0.219992 0.1 0.7875 0.0124297
0.219992 0.1 -0.7875 0.0142245
0.149792 0.1 0.80701 0.0115361
0 0.1 0.825 0.005299
0 0.1 -0.825 0.00589993
0.797314 0.1 -0.225 0.00328351
0.797314 0.1 0.225 0.00323602
0.756813 0.1 -0.3375 0.00365155
0.756813 0.1 0.3375 0.00360105
0.67013 0.1 0.4875 0.00456459
0.67013 0.1 -0.4875 0.00462783
0.835106 0.1 -0.0375 0.00292809
0.835106 0.1 0.0375 0.00291842
0.150379 0.1 -0.825 0.0145478
0.835106 0.1 -0.1125 0.00295368
0.835106 0.1 0.1125 0.00292678
0 0.1 -0.84299 0.00588843
0 0.1 0.84299 0.005298
0.0363518 0.1 -0.84299 0.00999158
0.0363518 0.1 0.84299 0.00783535
0.714971 0.1 -0.45 0.00418511
0.714971 0.1 0.45 0.00411576
0.411108 0.1 0.746002 0.00896306
0.797314 0.1 -0.3 0.00335034
0.797314 0.1 0.3 0.00329064
0.467897 0.1 -0.7125 0.00796059
0.467897 0.1 0.7125 0.00787986
0.522865 0.1 0.675 0.00691955
0.522865 0.1 -0.675 0.00700214
0.411108 0.1 -0.75 0.00919906
0.835106 0.1 -0.1875 0.00299659
0.835107 0.1 0.1875 0.00295128
0.286844 0.1 0.80701 0.0111894
0.574156 0.1 0.6375 0.00600825
0.574157 0.1 -0.6375 0.00608372
0.350249 0.1 -0.7875 0.010441
0.350249 0.1 0.7875 0.0100279
0.756813 0.1 -0.4125 0.00375776
0.756814 0.1 0.4125 0.0036869
0.623803 0.1 -0.6 0.00542885
0.623803 0.1 0.6 0.00534034
0.075776 0.1 0.8625 0.010591
0.075776 0.1 -0.8625 0.0143934
0.871687 0.1 -3.2767e-18 0.0027288
0.287374 0.1 -0.825 0.0124256
0.871687 0.1 -0.075 0.00274699
0.871687 0.1 0.075 0.00272653
0.67013 0.1 -0.5625 0.00478318
0.67013 0.1 0.5625 0.00469692
0.835106 0.1 0.2625 0.00299313
0.835106 0.1 -0.2625 0.0030562
0.797314 0.1 -0.375 0.00343472
0.797314 0.1 0.375 0.00336165
0 0.1 -0.88201 0.00586534
0 0.1 0.88201 0.00529913
0.0363518 0.1 0.88201 0.00783648
0.0363518 0.1 -0.88201 0.00996849
0.871687 0.1 0.15 0.00274011
0.871687 0.1 -0.15 0.00278196
0.714971 0.1 0.525 0.00422998
0.714971 0.1 -0.525 0.00432287
0.219993 0.1 0.8625 0.012251
0.219992 0.1 -0.8625 0.0147437
0 0.1 0.9 0.00530145
0 0.1 -0.9 0.00585494
0.756813 0.1 0.4875 0.00378221
0.756814 0.1 -0.4875 0.00387884
0.871687 0.1 0.225 0.00276919
0.871687 0.1 -0.225 0.0028345
0.835106 0.1 -0.3375 0.00312921
0.835106 0.1 0.3375 0.00305077
0.41063 0.1 0.80701 0.00903517
0.90582 0.1 -0.0375 0.00254496
0.905821 0.1 0.0375 0.00253345
0.522865 0.1 0.746002 0.00711803
0.150379 0.1 0.9 0.0114012
0.90582 0.1 0.1125 0.00253724
0.905821 0.1 -0.1125 0.00257092
0.522865 0.1 -0.75 0.00717779
0.574156 0.1 0.7125 0.00619612
0.574156 0.1 -0.7125 0.00626114
0.797314 0.1 -0.45 0.00354072
0.797314 0.1 0.45 0.00344729
0.467897 0.1 -0.7875 0.0081057
0.467897 0.1 0.7875 0.00805036
0.150379 0.1 -0.903998 0.014522
0 0.1 0.91799 0.00530296
0 0.1 -0.91799 0.00584265
0.0363518 0.1 0.91799 0.00781984
0.0363518 0.1 -0.91799 0.00977761
0.623803 0.1 0.675 0.00551725
0.623803 0.1 -0.675 0.00560822
0.411108 0.1 -0.825 0.00926885
0.871687 0.1 0.3 0.00281419
0.871687 0.1 -0.3 0.00289972
0.67013 0.1 -0.6375 0.004965
0.67013 0.1 0.6375 0.00485854
0.90582 0.1 -0.1875 0.00261628
0.90582 0.1 0.1875 0.00255509
0.350249 0.1 0.8625 0.0100857
0.350249 0.1 -0.8625 0.0104861
0.835106 0.1 -0.4125 0.00321552
0.835106 0.1 0.4125 0.00312377
0.714971 0.1 -0.6 0.00448794
0.714971 0.1 0.6 0.0043684
0.93886 0.1 -1.15648e-17 0.00243707
0.075776 0.1 0.9375 0.0105561
0.075776 0.1 -0.9375 0.0140014
0.93886 0.1 0.075 0.00243353
0.93886 0.1 -0.075 0.00245458
0.756813 0.1 0.5625 0.00390138
0.756814 0.1 -0.5625 0.00402561
0.905821 0.1 -0.2625 0.00267845
0.905821 0.1 0.2625 0.0025874
0.287374 0.1 0.9 0.011122
0.287374 0.1 -0.903998 0.0125435
0.871687 0.1 0.375 0.00287421
0.871687 0.1 -0.375 0.00297648
0.93886 0.1 -0.15 0.00248802
0.93886 0.1 0.15 0.00244376
0.797314 0.1 0.525 0.00354793
0.797314 0.1 -0.525 0.00366856
0 0.1 0.95701 0.00530915
0 0.1 -0.95701 0.00582031
0.0363518 0.1 0.95701 0.00782603
0.0363518 0.1 -0.95701 0.00975528
0.522433 0.1 0.80701 0.00724665
0.219992 0.1 0.9375 0.0121295
0.219992 0.1 -0.9375 0.0148202
0.93886 0.1 0.225 0.00246706
0.93886 0.1 -0.225 0.00253795
0.90582 0.1 0.3375 0.0026358
0.905821 0.1 -0.3375 0.00274456
0.835106 0.1 -0.4875 0.00332628
0.835107 0.1 0.4875 0.00321239
0.969689 0.1 -0.0375 0.0023419
0.969689 0.1 0.0375 0.00233206
0.61613 0.1 0.75 0.00571039
0.574156 0.1 -0.7875 0.00646835
0.574156 0.1 0.7875 0.00640976
0 0.1 0.975 0.00531384
0 0.1 -0.975 0.00581101
0.623803 0.1 -0.75 0.00580143
0.969689 0.1 -0.1125 0.00236468
0.969689 0.1 0.1125 0.00233544
0.522865 0.1 -0.825 0.00733403
0.67013 0.1 0.7125 0.0050501
0.67013 0.1 -0.7125 0.00516552
0.871687 0.1 -0.45 0.00307458
0.871687 0.1 0.45 0.00294963
0.467897 0.1 0.8625 0.00809543
0.467897 0.1 -0.8625 0.00815245
0.714971 0.1 -0.675 0.00467934
0.714971 0.1 0.675 0.00453422
0.93886 0.1 -0.3 0.00259725
0.93886 0.1 0.3 0.00250403
0.150379 0.1 0.975 0.0113474
0.150379 0.1 -0.975 0.0143421
0.969689 0.1 -0.1875 0.00240443
0.969689 0.1 0.1875 0.00235134
0.411108 0.1 0.9 0.00908508
0.756813 0.1 0.6375 0.00404263
0.756814 0.1 -0.6375 0.00420234
0.990306 0.1 -2.19732e-17 0.0022452
0 0.1 0.99299 0.00531767
0 0.1 -0.99299 0.00579977
0.411108 0.1 -0.903998 0.00928636
0.990306 0.1 -0.075 0.00226075
0.990306 0.1 0.075 0.00224188
0.0363518 0.1 0.99299 0.00782768
0.0363518 0.1 -0.99299 0.0095881
0.90582 0.1 -0.4125 0.00282627
0.905821 0.1 0.4125 0.00269709
0.797314 0.1 -0.6 0.003823
0.797314 0.1 0.6 0.00366838
0.350249 0.1 0.9375 0.0101409
0.350249 0.1 -0.9375 0.0105278
0.990306 0.1 0.15 0.00225085
0.990306 0.1 -0.15 0.00229065
0.969689 0.1 -0.2625 0.00245708
0.969689 0.1 0.2625 0.00237855
0.835106 0.1 -0.5625 0.00345932
0.835106 0.1 0.5625 0.00331221
0.93886 0.1 -0.375 0.00266815
0.93886 0.1 0.375 0.00255452
0.075776 0.1 1.0125 0.010559
0.075776 0.1 -1.0125 0.0136579
0.990306 0.1 -0.225 0.0023354
0.990306 0.1 0.225 0.00227154
0.287374 0.1 0.975 0.0111098
0.287374 0.1 -0.975 0.0126444
0.871687 0.1 -0.525 0.00319721
0.871687 0.1 0.525 0.00303699
1.02149 0.1 -0.0369628 0.00207895
1.02149 0.1 0.0369628 0.0020704
0.969689 0.1 -0.3375 0.00251356
0.969689 0.1 0.3375 0.00241866
1.02149 0.1 -0.110888 0.00209823
1.02149 0.1 0.110888 0.0020718
0.90582 0.1 0.4875 0.00277607
0.90582 0.1 -0.4875 0.00293987
0.623803 0.1 0.819003 0.00579741
0 0.1 1.03201 0.00532847
0 0.1 -1.03201 0.00577946
0.0363518 0.1 1.03201 0.00783848
0.0363518 0.1 -1.03201 0.00956779
0.67013 0.1 -0.7875 0.00535891
0.67013 0.1 0.7875 0.00523578
0.623803 0.1 -0.825 0.00600981
0.990306 0.1 -0.3 0.00239025
0.990306 0.1 0.3 0.002304
0.219992 0.1 -1.0125 0.0148466
0.219993 0.1 1.0125 0.0120704
0.574156 0.1 0.8625 0.00662085
0.574157 0.1 -0.8625 0.00669159
0.714971 0.1 -0.75 0.00488073
0.714971 0.1 0.75 0.00471923
1.02149 0.1 0.184814 0.00208474
1.02149 0.1 -0.184814 0.0021322
0.756814 0.1 -0.7125 0.00440929
0.756814 0.1 0.7125 0.00421253
0.522865 0.1 0.9 0.00736418
0.93886 0.1 -0.45 0.00277044
0.93886 0.1 0.45 0.00261858
1.04168 0.1 0 0.00199058
1.04168 0.1 -0.0729162 0.00200372
1.04168 0.1 0.0729162 0.00198642
0.522865 0.1 -0.903998 0.00740811
0.797314 0.1 -0.675 0.00400632
0.797314 0.1 0.675 0.00381229
0.467897 0.1 0.9375 0.00813134
0.467897 0.1 -0.9375 0.00819969
0 0.1 1.05 0.00533532
0 0.1 -1.05 0.005771
0.835106 0.1 -0.6375 0.00362105
0.835106 0.1 0.6375 0.00343438
1.04168 0.1 -0.145832 0.00202824
1.04168 0.1 0.145832 0.0019916
1.02149 0.1 -0.25874 0.00218002
1.02149 0.1 0.25874 0.00210824
0.969689 0.1 -0.4125 0.00259299
0.969689 0.1 0.4125 0.00247098
0.411108 0.1 0.975 0.00913458
0.411108 0.1 -0.975 0.0093619
0.871687 0.1 -0.6 0.00334366
0.871687 0.1 0.6 0.0031397
1.0579 0.1 -0.0360525 0.00193558
1.0579 0.1 0.0360525 0.00192683
0.990306 0.1 -0.375 0.00246012
0.990306 0.1 0.375 0.00234893
0.150379 0.1 1.05 0.0113402
0.150379 0.1 -1.05 0.0141935
1.0579 0.1 0.108157 0.00192613
1.0579 0.1 -0.108157 0.00195266
1.04168 0.1 -0.218749 0.00206618
1.04168 0.1 0.218749 0.00200645
0.90582 0.1 -0.5625 0.00307282
0.90582 0.1 0.5625 0.0028584
0 0.1 -1.06799 0.00576061
0 0.1 1.06799 0.0053412
0.0363518 0.1 -1.06799 0.00942148
0.0363518 0.1 1.06799 0.00785757
0.350249 0.1 1.0125 0.0102115
0.350249 0.1 -1.0125 0.0105561
1.0579 0.1 -0.180262 0.00198188
1.0579 0.1 0.180262 0.00193365
1.02149 0.1 -0.332665 0.0022409
1.02149 0.1 0.332665 0.00214285
0.93886 0.1 -0.525 0.00289565
0.93886 0.1 0.525 0.00269398
1.08012 0.1 5.49329e-18 0.00185957
1.04168 0.1 -0.291665 0.00211723
1.04168 0.1 0.291665 0.00203079
1.08012 0.1 0.0709941 0.00185523
1.08012 0.1 -0.0709941 0.00187133
0.969689 0.1 -0.4875 0.00272712
0.96969 0.1 0.4875 0.00253489
1.0579 0.1 0.252367 0.00194969
1.0579 0.1 -0.252367 0.00202362
0.990306 0.1 -0.45 0.00256233
0.990306 0.1 0.45 0.002406
0.287374 0.1 -1.05 0.0126658
0.287374 0.1 1.05 0.0111337
0.714971 0.1 0.821002 0.00488465
1.08012 0.1 -0.141988 0.00189311
1.08012 0.1 0.141988 0.00185845
0.075776 0.1 1.0875 0.0105979
0.075776 0.1 -1.0875 0.013357
0.714971 0.1 -0.825 0.00508624
0.756813 0.1 -0.7875 0.00461662
0.756814 0.1 0.7875 0.00440742
0.67013 0.1 -0.8625 0.00557749
0.67013 0.1 0.8625 0.00544463
0.797314 0.1 -0.75 0.00420966
0.797314 0.1 0.75 0.00398071
0.623803 0.1 0.9 0.00608756
0.835106 0.1 -0.7125 0.00380961
0.835106 0.1 0.7125 0.0035775
0.623803 0.1 -0.903998 0.00615593
0.574156 0.1 0.9375 0.00668722
0.574156 0.1 -0.9375 0.00674925
1.02149 0.1 -0.406591 0.00232322
1.02149 0.1 0.406591 0.00218977
1.08012 0.1 -0.212982 0.00192738
1.08012 0.1 0.212982 0.00186954
1.10076 0.1 -0.0349809 0.00179697
1.10076 0.1 0.0349809 0.00178993
0.871687 0.1 -0.675 0.00351662
0.871687 0.1 0.675 0.0032654
1.04168 0.1 -0.364581 0.00218356
1.04168 0.1 0.364581 0.00206562
1.10076 0.1 -0.104943 0.00181121
1.10076 0.1 0.104943 0.00178967
0.522865 0.1 0.975 0.00741291
0.522865 0.1 -0.975 0.00748581
1.0579 0.1 -0.324472 0.00207879
1.0579 0.1 0.324472 0.00197413
0 0.1 -1.10701 0.00574269
0 0.1 1.10701 0.00535632
0.0363518 0.1 1.10701 0.00787269
0.0363518 0.1 -1.10701 0.00940357
0.90582 0.1 0.6375 0.00296531
0.905821 0.1 -0.6375 0.00323093
0.219992 0.1 1.0875 0.0120613
0.219992 0.1 -1.0875 0.0148578
0.93886 0.1 0.6 0.00278502
0.93886 0.1 -0.6 0.00303357
1.10076 0.1 -0.174905 0.00183843
1.10076 0.1 0.174905 0.0017971
0.467897 0.1 1.0125 0.0081646
0.467897 0.1 -1.0125 0.00824367
1.08012 0.1 -0.283976 0.00197358
1.08012 0.1 0.283976 0.00188839
1.11928 0.1 3.93204e-18 0.0017427
0.990306 0.1 -0.525 0.00268142
0.990306 0.1 0.525 0.00247594
0.96969 0.1 -0.5625 0.0028471
0.969689 0.1 0.5625 0.00261146
1.11928 0.1 -0.0690357 0.00175295
1.11928 0.1 0.0690357 0.00173882
0 0.1 1.125 0.00536525
0 0.1 -1.125 0.00573589
0.411108 0.1 -1.05 0.00939542
0.411108 0.1 1.05 0.00919131
1.10076 0.1 0.244866 0.00181219
1.10076 0.1 -0.244866 0.00187852
1.11928 0.1 -0.138072 0.00177285
1.11928 0.1 0.138072 0.00174157
1.02149 0.1 0.480517 0.00224856
1.02149 0.1 -0.480517 0.00242226
1.0579 0.1 -0.396577 0.00214812
1.0579 0.1 0.396577 0.00200867
1.04168 0.1 -0.437497 0.00226542
1.04168 0.1 0.437497 0.00211154
0.150379 0.1 1.125 0.0113766
0.150379 0.1 -1.125 0.0140611
0.714971 0.1 0.88201 0.00483564
1.08012 0.1 0.354971 0.00191565
1.08012 0.1 -0.354971 0.00203153
1.11928 0.1 -0.207107 0.00180518
1.11928 0.1 0.207107 0.00175142
0.350249 0.1 -1.0875 0.0105758
0.350249 0.1 1.0875 0.0103018
0 0.1 1.14299 0.00537311
0 0.1 -1.14299 0.00572705
0.0363518 0.1 1.14299 0.00790595
0.0363518 0.1 -1.14299 0.00927797
1.14316 0.1 -0.0339211 0.00167439
1.14316 0.1 0.0339211 0.00166751
0.797314 0.1 0.821002 0.00416185
1.10076 0.1 -0.314829 0.00192785
1.10076 0.1 0.314829 0.00183438
0.797314 0.1 -0.825 0.00441635
0.756814 0.1 -0.8625 0.00482616
0.756814 0.1 0.8625 0.00459051
1.14316 0.1 -0.101763 0.00168746
1.14316 0.1 0.101763 0.0016662
0.835106 0.1 -0.7875 0.0040212
0.835106 0.1 0.7875 0.00374441
0.871687 0.1 -0.75 0.00371422
0.871687 0.1 0.75 0.003417
0.67013 0.1 0.9375 0.00565865
0.67013 0.1 -0.9375 0.00577015
0.90582 0.1 -0.7125 0.00341462
0.905821 0.1 0.7125 0.0030963
0.714971 0.1 -0.903998 0.00526186
1.11928 0.1 0.276143 0.00176816
1.11928 0.1 -0.276143 0.00184751
1.14316 0.1 0.169605 0.00167119
1.14316 0.1 -0.169605 0.0017124
0.93886 0.1 -0.675 0.00319545
0.93886 0.1 0.675 0.00290293
1.15704 0.1 0 0.00163382
1.0579 0.1 0.468682 0.00205342
1.0579 0.1 -0.468682 0.00222785
0.623803 0.1 0.975 0.00619143
0.623803 0.1 -0.975 0.00627682
0.990306 0.1 0.6 0.00256261
0.990306 0.1 -0.6 0.00280671
1.15704 0.1 -0.0671479 0.00164356
1.15704 0.1 0.0671479 0.00162956
1.04168 0.1 -0.510414 0.00235902
1.04168 0.1 0.510414 0.00216984
0.969689 0.1 -0.6375 0.00298803
0.969689 0.1 0.6375 0.00270988
1.08012 0.1 0.425965 0.00195218
1.08012 0.1 -0.425965 0.00210084
0.287374 0.1 -1.125 0.01268
0.287374 0.1 1.125 0.01119
1.02149 0.1 -0.554443 0.00252912
1.02149 0.1 0.554443 0.00232272
0.574156 0.1 1.0125 0.00673563
0.574156 0.1 -1.0125 0.00680283
1.15704 0.1 -0.134296 0.00166193
1.15704 0.1 0.134296 0.00163103
0.075776 0.1 1.1625 0.0106663
0.075776 0.1 -1.1625 0.0130989
1.10076 0.1 -0.384791 0.0019872
1.10076 0.1 0.384791 0.00186496
1.14316 0.1 -0.237448 0.00174818
1.14316 0.1 0.237448 0.00168252
1.11928 0.1 -0.345179 0.00189816
1.11928 0.1 0.345179 0.00179212
0.522865 0.1 1.05 0.00745565
0.522865 0.1 -1.05 0.00753441
1.15704 0.1 -0.201444 0.0016914
1.15704 0.1 0.201444 0.00163849
1.1744 0.1 -0.0331401 0.00159569
1.1744 0.1 0.0331401 0.00158875
1.1744 0.1 -0.0994202 0.00160804
1.1744 0.1 0.0994202 0.00158695
0 0.1 1.18201 0.0053918
0 0.1 -1.18201 0.00571268
0.0363518 0.1 1.18201 0.00792463
0.0363518 0.1 -1.18201 0.0092636
0.219992 0.1 1.1625 0.0121103
0.219993 0.1 -1.1625 0.0148668
1.14316 0.1 0.30529 0.0017
1.14316 0.1 -0.30529 0.00179039
0.467897 0.1 1.0875 0.00819554
0.467897 0.1 -1.0875 0.00827813
1.1744 0.1 -0.1657 0.00163125
1.1744 0.1 0.1657 0.00159094
1.15704 0.1 -0.268592 0.00172865
1.15704 0.1 0.268592 0.00165183
1.0579 0.1 0.540787 0.00211051
1.0579 0.1 -0.540787 0.00231949
0.796996 0.1 0.88201 0.00430103
1.08012 0.1 -0.496959 0.00218245
1.08012 0.1 0.496959 0.00199881
1.10076 0.1 0.454752 0.00190414
1.10076 0.1 -0.454752 0.00205807
1.11928 0.1 -0.414214 0.00195924
1.11928 0.1 0.414214 0.00182414
1.04168 0.1 -0.58333 0.00246016
1.04168 0.1 0.58333 0.00224231
1.1744 0.1 -0.231981 0.00166406
1.1744 0.1 0.231981 0.00160017
0.871687 0.1 0.821002 0.00358897
0.411108 0.1 1.125 0.0092507
0.411108 0.1 -1.125 0.00942258
1.19808 0.1 1.73472e-17 0.00152889
0.990306 0.1 0.675 0.00267588
0.990306 0.1 -0.675 0.00295684
1.02149 0.1 0.628368 0.00241223
1.02149 0.1 -0.628368 0.00264858
1.19808 0.1 -0.0650961 0.00153901
1.19808 0.1 0.0650961 0.00152376
0 0.1 1.2 0.0054022
0 0.1 -1.2 0.00570793
0.871687 0.1 -0.825 0.00391919
0.905821 0.1 -0.7875 0.00362155
0.90582 0.1 0.7875 0.00326203
0.835106 0.1 -0.8625 0.00422353
0.835106 0.1 0.8625 0.00393947
0.93886 0.1 -0.75 0.00338015
0.93886 0.1 0.75 0.00304336
1.14316 0.1 -0.373132 0.00183996
1.14316 0.1 0.373132 0.00172434
0.969689 0.1 0.7125 0.00284525
0.969689 0.1 -0.7125 0.00315338
1.15704 0.1 -0.33574 0.00177163
1.15704 0.1 0.33574 0.00167135
0.756813 0.1 0.9375 0.00479111
0.756814 0.1 -0.9375 0.00505529
1.19808 0.1 0.130192 0.00152389
1.19808 0.1 -0.130192 0.00155642
0.797314 0.1 -0.903998 0.00459294
0.714971 0.1 0.975 0.00528238
0.714971 0.1 -0.975 0.00543802
0.150379 0.1 1.2 0.0114585
0.150379 0.1 -1.2 0.0139486
1.20938 0.1 -0.0322656 0.00150791
1.20938 0.1 0.0322656 0.00150012
1.1744 0.1 -0.298261 0.00170101
1.1744 0.1 0.298261 0.00161493
1.20938 0.1 -0.0967968 0.00152052
1.20938 0.1 0.0967968 0.0014973
1.19808 0.1 -0.195288 0.00158271
1.19808 0.1 0.195288 0.00152907
0.350249 0.1 1.1625 0.010397
0.350249 0.1 -1.1625 0.010596
0.67013 0.1 1.0125 0.005737
0.67013 0.1 -1.0125 0.00582888
0 0.1 1.21799 0.0054114
0 0.1 -1.21799 0.00570107
0.0363518 0.1 -1.21799 0.00915873
0.0363518 0.1 1.21799 0.00796979
1.11928 0.1 -0.48325 0.00203368
1.11928 0.1 0.48325 0.00186482
1.10076 0.1 -0.524714 0.00214443
1.10076 0.1 0.524714 0.00195291
1.20938 0.1 0.161328 0.00149983
1.20938 0.1 -0.161328 0.00154223
1.08012 0.1 0.567953 0.00205776
1.08012 0.1 -0.567953 0.00226888
0.623803 0.1 1.05 0.00625224
0.623803 0.1 -1.05 0.00633588
1.0579 0.1 -0.612892 0.00241426
1.0579 0.1 0.612892 0.00218143
1.15704 0.1 -0.402888 0.00182368
1.15704 0.1 0.402888 0.00169777
1.14316 0.1 0.440974 0.00175637
1.14316 0.1 -0.440974 0.00190164
1.19808 0.1 -0.260384 0.00161457
1.19808 0.1 0.260384 0.00153908
1.2267 0.1 3.57064e-18 0.00146411
1.2267 0.1 -0.0636649 0.00147493
1.2267 0.1 0.0636649 0.00145779
1.1744 0.1 -0.364541 0.00174351
1.1744 0.1 0.364541 0.00163566
0.574156 0.1 1.0875 0.00678272
0.574156 0.1 -1.0875 0.00685214
1.20938 0.1 0.225859 0.00150672
1.20938 0.1 -0.225859 0.00157148
1.04168 0.1 -0.656246 0.00258382
1.04168 0.1 0.656246 0.00233052
1.2267 0.1 -0.12733 0.00149192
1.2267 0.1 0.12733 0.00145644
0.287374 0.1 1.2 0.0112625
0.287374 0.1 -1.2 0.0126935
1.02149 0.1 -0.702294 0.00280561
1.02149 0.1 0.702294 0.00252603
0.075776 0.1 -1.2375 0.012883
0.075776 0.1 1.2375 0.0107593
0.871399 0.1 0.88201 0.00372565
0.522865 0.1 1.125 0.00749366
0.522865 0.1 -1.125 0.00757549
1.2267 0.1 -0.190994 0.00151626
1.2267 0.1 0.190994 0.0014598
1.19808 0.1 -0.32548 0.00165057
1.19808 0.1 0.32548 0.00155436
0.990306 0.1 -0.75 0.00313219
0.990306 0.1 0.75 0.00280502
1.24274 0.1 -0.0314313 0.00143162
1.24274 0.1 0.0314313 0.00142227
1.20938 0.1 -0.29039 0.00160329
1.20938 0.1 0.29039 0.00151844
1.24274 0.1 -0.0942942 0.00144476
1.24274 0.1 0.0942942 0.0014174
0.93886 0.1 0.821002 0.00319762
1.11928 0.1 -0.552285 0.00211159
1.11928 0.1 0.552285 0.00191629
1.15704 0.1 -0.470036 0.0018884
1.15704 0.1 0.470036 0.00173152
0.969689 0.1 -0.7875 0.00333693
0.96969 0.1 0.7875 0.0029754
0.93886 0.1 -0.825 0.0035753
0.90582 0.1 0.8625 0.00343889
0.905821 0.1 -0.8625 0.00382316
1.1744 0.1 -0.430821 0.00179708
1.1744 0.1 0.430821 0.00166313
1.10076 0.1 -0.594676 0.0022233
1.10076 0.1 0.594676 0.00201526
1.14316 0.1 -0.508816 0.00197567
1.14316 0.1 0.508816 0.00179664
1.24274 0.1 -0.157157 0.00146506
1.24274 0.1 0.157157 0.00141765
1.2267 0.1 -0.254659 0.00154497
1.2267 0.1 0.254659 0.00146756
0.467897 0.1 1.1625 0.00821658
0.467897 0.1 -1.1625 0.00831129
1.08012 0.1 0.638947 0.00212888
1.08012 0.1 -0.638947 0.00237268
1.25511 0.1 -5.78241e-19 0.00139957
0.835106 0.1 -0.9375 0.00443802
0.835106 0.1 0.9375 0.00412665
0.871687 0.1 -0.903998 0.00409352
1.25511 0.1 0.0622446 0.00139124
1.25511 0.1 -0.0622446 0.00141175
0.219992 0.1 1.2375 0.012227
0.219992 0.1 -1.2375 0.0148746
0 0.1 -1.25701 0.00569042
0 0.1 1.25701 0.00543286
0.0363518 0.1 -1.25701 0.00914809
0.0363518 0.1 1.25701 0.00799125
0.797314 0.1 0.975 0.00455113
0.797314 0.1 -0.975 0.00480279
1.19808 0.1 -0.390576 0.0016942
1.19808 0.1 0.390576 0.00157547
1.0579 0.1 -0.684997 0.00254385
1.0579 0.1 0.684997 0.002265
1.20938 0.1 -0.354921 0.00164025
1.20938 0.1 0.354921 0.00153542
1.25511 0.1 0.124489 0.00138758
1.25511 0.1 -0.124489 0.00142892
1.24274 0.1 -0.220019 0.00149115
1.24274 0.1 0.220019 0.00142191
0.756813 0.1 1.0125 0.0049878
0.756814 0.1 -1.0125 0.00513472
1.2267 0.1 -0.318324 0.00157725
1.2267 0.1 0.318324 0.0014801
0.411108 0.1 1.2 0.00929264
0.411108 0.1 -1.2 0.00944918
1.25511 0.1 -0.186734 0.00145193
1.25511 0.1 0.186734 0.00138853
0.714971 0.1 1.05 0.00538505
0.714971 0.1 -1.05 0.00550661
1.04168 0.1 -0.729162 0.00273784
1.04168 0.1 0.729162 0.00243549
1.24274 0.1 0.282882 0.00143053
1.24274 0.1 -0.282882 0.00151893
0 0.1 1.275 0.00544468
0 0.1 -1.275 0.00568729
1.1744 0.1 0.497102 0.00169714
1.1744 0.1 -0.497102 0.00186328
1.15704 0.1 -0.537184 0.0019566
1.15704 0.1 0.537184 0.00177388
1.2756 0.1 -0.03061 0.00135892
1.2756 0.1 0.03061 0.00134693
0.67013 0.1 1.0875 0.00579374
0.67013 0.1 -1.0875 0.00588686
1.2756 0.1 -0.09183 0.00137392
1.2756 0.1 0.09183 0.00133873
1.25511 0.1 -0.248978 0.00147811
1.25511 0.1 0.248978 0.00139366
1.20938 0.1 0.419453 0.00155837
1.20938 0.1 -0.419453 0.00168682
1.11928 0.1 -0.621322 0.00220499
1.11928 0.1 0.621322 0.00197897
1.14316 0.1 -0.576659 0.0020465
1.14316 0.1 0.576659 0.00184802
1.19808 0.1 -0.455673 0.00174872
1.19808 0.1 0.455673 0.00160273
1.02149 0.1 0.776219 0.00264936
1.02149 0.1 -0.776219 0.00299023
0.150379 0.1 1.275 0.0115898
0.150379 0.1 -1.275 0.0138565
1.2756 0.1 -0.15305 0.00139383
1.2756 0.1 0.15305 0.00133547
1.2267 0.1 -0.381989 0.00161642