# nutMean  POINT_DATA 63840
# x  y  z  nutMean
0 0.5 3.39583e-17 0.0138353
0 0.5 -0.00617931 0.0138958
0 0.5 0.00617931 0.0137785
0.0124865 0.5 -0.00617931 0.0149308
0.0124865 0.5 0.00617931 0.0147569
0 0.5 -0.0688207 0.0144934
0 0.5 0.0688207 0.0132088
0.0124865 0.5 -0.0688207 0.0155284
0.0124865 0.5 0.0688207 0.0141872
0 0.5 -0.075 0.0145513
0 0.5 0.075 0.0131532
0 0.5 -0.0811793 0.0146134
0 0.5 0.0811793 0.0131003
0.0124865 0.5 -0.0811793 0.0157022
0.0124865 0.5 0.0811793 0.0140244
0.075776 0.5 -0.0375 0.0204462
0.075776 0.5 0.0375 0.0193999
0.075776 0.5 -0.1125 0.021491
0.075776 0.5 0.1125 0.0184193
0 0.5 -0.143821 0.0152121
0 0.5 0.143821 0.0125802
0.0124865 0.5 -0.143821 0.0163008
0.0124865 0.5 0.143821 0.0135043
0 0.5 -0.15 0.0152689
0 0.5 0.15 0.0125309
0.151149 0.5 -0.00137318 0.0185851
0 0.5 -0.156179 0.0153304
0 0.5 0.156179 0.0124831
0.0124865 0.5 -0.156179 0.0164807
0.0124865 0.5 0.156179 0.0133574
0.151149 0.5 0.075 0.0177852
0.151149 0.5 -0.075 0.0193916
0.075776 0.5 -0.1875 0.0225603
0.075776 0.5 0.1875 0.0175337
0.151149 0.5 0.15 0.01701
0.151149 0.5 -0.15 0.0200245
0 0.5 -0.218821 0.0158985
0 0.5 0.218821 0.0120228
0.0124865 0.5 -0.218821 0.0170488
0.0124865 0.5 0.218821 0.012897
0.219992 0.5 0.0375 0.0170529
0.219993 0.5 -0.0375 0.0177004
0 0.5 -0.225 0.01595
0 0.5 0.225 0.0119805
0 0.5 -0.231179 0.0160069
0 0.5 0.231179 0.0119382
0.0124865 0.5 -0.231179 0.017233
0.0124865 0.5 0.231179 0.0127685
0.219992 0.5 0.1125 0.0164224
0.219993 0.5 -0.1125 0.0181438
0.151149 0.5 -0.225 0.0206594
0.151149 0.5 0.225 0.0162924
0.075776 0.5 -0.2625 0.0236679
0.075776 0.5 0.2625 0.0167575
0.288069 0.5 -0.00137318 0.0143603
0.219992 0.5 0.1875 0.0157964
0.219993 0.5 -0.1875 0.0181738
0 0.5 0.293821 0.0115438
0 0.5 -0.293821 0.016424
0.0124865 0.5 -0.293821 0.0176501
0.0124865 0.5 0.293821 0.0123741
0.288069 0.5 -0.075 0.0146271
0.288069 0.5 0.075 0.0140404
0 0.5 -0.3 0.0164496
0 0.5 0.3 0.0115089
0 0.5 0.306179 0.0114736
0 0.5 -0.306179 0.0164812
0.0124865 0.5 -0.306179 0.0176648
0.0124865 0.5 0.306179 0.0122674
0.288069 0.5 -0.15 0.014795
0.288069 0.5 0.15 0.0137046
0.151149 0.5 -0.3 0.0211099
0.151149 0.5 0.3 0.0156507
0.219992 0.5 -0.2625 0.0185664
0.219992 0.5 0.2625 0.0151976
0.075776 0.5 0.3375 0.0161057
0.075776 0.5 -0.3375 0.0237679
0.350249 0.5 -0.0375 0.0114907
0.350249 0.5 0.0375 0.0115278
0.288069 0.5 -0.225 0.014962
0.288069 0.5 0.225 0.013366
0.350249 0.5 0.1125 0.0114985
0.350249 0.5 -0.1125 0.0115887
0 0.5 0.368821 0.0111451
0 0.5 -0.368821 0.01674
0.0124865 0.5 -0.368821 0.0179236
0.0124865 0.5 0.368821 0.0119389
0 0.5 -0.375 0.0167591
0 0.5 0.375 0.0111162
0 0.5 -0.381179 0.0167848
0 0.5 0.381179 0.0110874
0.0124865 0.5 -0.381179 0.0179685
0.0124865 0.5 0.381179 0.0118509
0.350249 0.5 -0.1875 0.0116977
0.350249 0.5 0.1875 0.0114043
0.219992 0.5 -0.3375 0.0187889
0.219992 0.5 0.3375 0.0146471
0.151149 0.5 -0.375 0.0213232
0.151149 0.5 0.375 0.015093
0.411736 0.5 -0.00137318 0.00991543
0.288069 0.5 -0.3 0.015186
0.288069 0.5 0.3 0.0130541
0.411736 0.5 -0.075 0.00992694
0.411736 0.5 0.075 0.0099096
0.075776 0.5 -0.4125 0.0240393
0.075776 0.5 0.4125 0.0155655
0.350249 0.5 -0.2625 0.0118398
0.350249 0.5 0.2625 0.0113343
0.411736 0.5 -0.15 0.0100045
0.411736 0.5 0.15 0.00991171
0 0.5 -0.443821 0.0169737
0 0.5 0.443821 0.0108225
0.0124865 0.5 -0.443821 0.0181574
0.0124865 0.5 0.443821 0.011586
0 0.5 -0.45 0.0169845
0 0.5 0.45 0.0107995
0 0.5 -0.456179 0.0170025
0 0.5 0.456179 0.0107767
0.0124865 0.5 -0.456179 0.0182337
0.0124865 0.5 0.456179 0.0115157
0.219992 0.5 -0.4125 0.0190446
0.219993 0.5 0.4125 0.0141534
0.411736 0.5 -0.225 0.0101081
0.411736 0.5 0.225 0.00991437
0.467897 0.5 0.0375 0.00839363
0.467897 0.5 -0.0375 0.00839044
0.288069 0.5 -0.375 0.0154157
0.288069 0.5 0.375 0.0127722
0.151149 0.5 -0.45 0.021681
0.151149 0.5 0.45 0.0146215
0.467897 0.5 -0.1125 0.00842872
0.467897 0.5 0.1125 0.0084081
0.350249 0.5 0.3375 0.0112729
0.350249 0.5 -0.3375 0.0119894
0.075776 0.5 -0.4875 0.0245079
0.075776 0.5 0.4875 0.0151395
0.467897 0.5 -0.1875 0.00849694
0.467897 0.5 0.1875 0.00851806
0.411736 0.5 -0.3 0.0102372
0.411736 0.5 0.3 0.00991541
0 0.5 -0.518821 0.0170213
0 0.5 0.518821 0.0105736
0.0124865 0.5 0.518821 0.0113127
0.0124865 0.5 -0.518821 0.0182525
0.523432 0.5 -0.00137318 0.00744831
0 0.5 -0.525 0.0170061
0 0.5 0.525 0.0105568
0.523432 0.5 -0.075 0.00745393
0.523432 0.5 0.075 0.00745774
0 0.5 -0.531179 0.0169972
0 0.5 0.531179 0.0105395
0.0124865 0.5 -0.531179 0.0182039
0.0124865 0.5 0.531179 0.0112601
0.288069 0.5 -0.45 0.0157209
0.288069 0.5 0.45 0.0125242
0.219992 0.5 -0.4875 0.019482
0.219993 0.5 0.4875 0.013725
0.467897 0.5 -0.2625 0.00859446
0.467897 0.5 0.2625 0.00857293
0.350249 0.5 -0.4125 0.0122817
0.350249 0.5 0.4125 0.0112207
0.523432 0.5 -0.15 0.00750167
0.523432 0.5 0.15 0.0075137
0.151149 0.5 -0.525 0.0217944
0.151149 0.5 0.525 0.014238
0.411736 0.5 -0.375 0.0104372
0.411736 0.5 0.375 0.00993085
0.075776 0.5 -0.5625 0.0242297
0.075776 0.5 0.5625 0.0148195
0.523432 0.5 -0.225 0.00757937
0.523432 0.5 0.225 0.00759413
0.574156 0.5 -0.0375 0.00653759
0.574156 0.5 0.0375 0.00654765
0.467897 0.5 0.3375 0.00864577
0.467897 0.5 -0.3375 0.00872391
0.574156 0.5 -0.1125 0.00656422
0.574156 0.5 0.1125 0.00658544
0 0.5 -0.593821 0.0168333
0 0.5 0.593821 0.0103954
0.0124865 0.5 -0.593821 0.01804
0.0124865 0.5 0.593821 0.0111159
0.288069 0.5 -0.525 0.0158863
0.288069 0.5 0.525 0.0123132
0 0.5 -0.6 0.0168098
0 0.5 0.6 0.0103849
0.350249 0.5 -0.4875 0.0125222
0.350249 0.5 0.4875 0.0111762
0.523432 0.5 -0.3 0.00768722
0.523432 0.5 0.3 0.00767805
0.219992 0.5 -0.5625 0.0193045
0.219992 0.5 0.5625 0.013366
0.574156 0.5 -0.1875 0.00662265
0.574156 0.5 0.1875 0.00664776
0 0.5 -0.606179 0.0167896
0 0.5 0.606179 0.0103732
0.0124865 0.5 -0.606179 0.0179661
0.0124865 0.5 0.606179 0.0110812
0.411736 0.5 -0.45 0.0106717
0.411736 0.5 0.45 0.00995871
0.151149 0.5 -0.6 0.0215365
0.151149 0.5 0.6 0.013942
0.62168 0.5 2.64545e-17 0.00596521
0.467897 0.5 0.4125 0.00873981
0.467897 0.5 -0.4125 0.00895488
0.624316 0.5 0.0729402 0.00594948
0.624316 0.5 -0.075 0.00593746
0.574156 0.5 -0.2625 0.00670982
0.574157 0.5 0.2625 0.00674254
0.075776 0.5 -0.6375 0.0237965
0.075776 0.5 0.6375 0.0146045
0.624316 0.5 -0.15 0.00597917
0.624316 0.5 0.15 0.00599833
0.523432 0.5 -0.375 0.00784995
0.523432 0.5 0.375 0.00777899
0.350249 0.5 -0.5625 0.012679
0.350249 0.5 0.5625 0.011141
0.624316 0.5 -0.225 0.00604995
0.624316 0.5 0.225 0.0060728
0.288069 0.5 0.6 0.0121418
0.288069 0.5 -0.6 0.0158984
0.574156 0.5 -0.3375 0.00682768
0.574156 0.5 0.3375 0.0068535
0.411736 0.5 -0.525 0.0108683
0.411736 0.5 0.525 0.00999616
0 0.5 -0.668821 0.0165391
0 0.5 0.668821 0.0102886
0.0124865 0.5 -0.668821 0.0177157
0.0124865 0.5 0.668821 0.0109966
0.67013 0.5 0.0375 0.00534614
0.67013 0.5 -0.0375 0.0053419
0.219993 0.5 -0.6375 0.0191475
0.219993 0.5 0.6375 0.0130792
0 0.5 -0.675 0.0165103
0 0.5 0.675 0.010284
0.467897 0.5 0.4875 0.00884488
0.467897 0.5 -0.4875 0.00913307
0.67013 0.5 -0.1125 0.00536837
0.67013 0.5 0.1125 0.00538135
0 0.5 -0.681179 0.016481
0 0.5 0.681179 0.0102791
0.0124865 0.5 -0.681179 0.017623
0.0124865 0.5 0.681179 0.0109814
0.523432 0.5 -0.45 0.0080382
0.523432 0.5 0.45 0.00789589
0.151149 0.5 -0.675 0.0212093
0.151149 0.5 0.675 0.0137353
0.624316 0.5 -0.3 0.00614948
0.624316 0.5 0.3 0.00617043
0.67013 0.5 0.1875 0.00544158
0.67013 0.5 -0.1875 0.00542377
0.574156 0.5 -0.4125 0.00700226
0.574157 0.5 0.4125 0.00697751
0.708171 0.5 1.88651e-17 0.00499341
0.075776 0.5 -0.7125 0.0232502
0.075776 0.5 0.7125 0.014501
0.715434 0.5 0.0736268 0.00495055
0.715434 0.5 -0.075 0.00493809
0.67013 0.5 0.2625 0.00552255
0.67013 0.5 -0.2625 0.00550606
0.350249 0.5 -0.6375 0.0128824
0.350249 0.5 0.6375 0.0111173
0.411736 0.5 -0.6 0.0110749
0.411736 0.5 0.6 0.0100432
0.624316 0.5 -0.375 0.00628469
0.624316 0.5 0.375 0.00628582
0.715434 0.5 -0.15 0.00497887
0.715434 0.5 0.15 0.00498459
0.467897 0.5 -0.5625 0.00934386
0.467897 0.5 0.5625 0.00896014
0.288069 0.5 -0.675 0.0159239
0.288069 0.5 0.675 0.0120122
0.523432 0.5 -0.525 0.0082314
0.523432 0.5 0.525 0.00802674
0 0.5 -0.743821 0.0161836
0 0.5 0.743821 0.0102471
0.0124865 0.5 -0.743821 0.0173256
0.0124865 0.5 0.743821 0.0109494
0.219992 0.5 0.7125 0.0128641
0.219992 0.5 -0.7125 0.0189521
0.715434 0.5 -0.225 0.00504631
0.715434 0.5 0.225 0.00505117
0 0.5 -0.75 0.0161548
0 0.5 0.75 0.0102444
0.67013 0.5 0.3375 0.00562687
0.67013 0.5 -0.3375 0.00561715
0.574156 0.5 -0.4875 0.00717337
0.574156 0.5 0.4875 0.00712011
0 0.5 -0.756179 0.0161234
0 0.5 0.756179 0.0102434
0.0124865 0.5 -0.756179 0.0172336
0.0124865 0.5 0.756179 0.0109405
0.756813 0.5 -0.0375 0.00452658
0.756813 0.5 0.0375 0.00452531
0.151149 0.5 -0.75 0.02084
0.151149 0.5 0.75 0.013608
0.756813 0.5 -0.1125 0.00455412
0.756813 0.5 0.1125 0.00455167
0.624316 0.5 -0.45 0.0064476
0.624316 0.5 0.45 0.0064188
0.715434 0.5 -0.3 0.00513926
0.715434 0.5 0.3 0.00513922
0.756813 0.5 0.1875 0.00460334
0.756813 0.5 -0.1875 0.0046078
0.67013 0.5 -0.4125 0.00575562
0.67013 0.5 0.4125 0.00574936
0.411736 0.5 -0.675 0.0113188
0.411736 0.5 0.675 0.0101003
0.467897 0.5 0.6375 0.00908276
0.467897 0.5 -0.6375 0.00959635
0.075776 0.5 -0.7875 0.0226901
0.075776 0.5 0.7875 0.014464
0.350249 0.5 -0.7125 0.0131078
0.350249 0.5 0.7125 0.0111091
0.523432 0.5 -0.6 0.00846271
0.523432 0.5 0.6 0.00816898
0.797732 0.5 2.68882e-17 0.00422957
0.756813 0.5 -0.2625 0.00468631
0.756814 0.5 0.2625 0.00467718
0.797732 0.5 0.0736268 0.00424307
0.797732 0.5 -0.075 0.00424433
0.288069 0.5 -0.75 0.0159508
0.288069 0.5 0.75 0.0119256
0.574156 0.5 -0.5625 0.00738621
0.574157 0.5 0.5625 0.00727831
0.715434 0.5 -0.375 0.00525504
0.715434 0.5 0.375 0.00524758
0.797732 0.5 -0.15 0.00428405
0.797732 0.5 0.15 0.00427552
0.624316 0.5 -0.525 0.00663627
0.624316 0.5 0.525 0.00657023
0.219992 0.5 -0.7875 0.018751
0.219992 0.5 0.7875 0.0127182
0 0.5 -0.818821 0.0158165
0 0.5 0.818821 0.010244
0.0124865 0.5 0.818821 0.0109411
0.0124865 0.5 -0.818821 0.0169267
0 0.5 -0.825 0.015788
0 0.5 0.825 0.0102434
0.756813 0.5 0.3375 0.00477069
0.756814 0.5 -0.3375 0.00478658
0.67013 0.5 -0.4875 0.00592409
0.67013 0.5 0.4875 0.00589222
0.797732 0.5 -0.225 0.00434887
0.797732 0.5 0.225 0.004334
0 0.5 -0.831179 0.0157576
0 0.5 0.831179 0.0102441
0.0124865 0.5 -0.831179 0.0168393
0.0124865 0.5 0.831179 0.0109347
0.835106 0.5 0.0375 0.00394373
0.835106 0.5 -0.0375 0.00394745
0.151149 0.5 -0.825 0.0204721
0.151149 0.5 0.825 0.0135285
0.835106 0.5 0.1125 0.00396467
0.835106 0.5 -0.1125 0.0039739
0.715434 0.5 -0.45 0.00540157
0.715434 0.5 0.45 0.00537428
0.797732 0.5 -0.3 0.00443545
0.797732 0.5 0.3 0.00441315
0.467897 0.5 0.7125 0.0092118
0.467897 0.5 -0.7125 0.00988714
0.523432 0.5 -0.675 0.00873287
0.523432 0.5 0.675 0.00832024
0.411736 0.5 -0.75 0.0115933
0.411736 0.5 0.75 0.0101692
0.835106 0.5 -0.1875 0.00402519
0.835106 0.5 0.1875 0.0040077
0.574156 0.5 -0.6375 0.00763541
0.574157 0.5 0.6375 0.00744866
0.350249 0.5 -0.7875 0.0133585
0.350249 0.5 0.7875 0.0111202
0.756813 0.5 -0.4125 0.00490069
0.756814 0.5 0.4125 0.00488427
0.075776 0.5 -0.8625 0.0221477
0.075776 0.5 0.8625 0.0144459
0.624316 0.5 0.6 0.00673741
0.624316 0.5 -0.6 0.00686159
0.872064 0.5 5.91974e-17 0.00371336
0.870122 0.5 0.075 0.00373508
0.288069 0.5 -0.825 0.0159907
0.288069 0.5 0.825 0.0118725
0.67013 0.5 -0.5625 0.0061267
0.67013 0.5 0.5625 0.00605418
0.872064 0.5 -0.075 0.00372897
0.835106 0.5 -0.2625 0.00410108
0.835106 0.5 0.2625 0.00407346
0.797732 0.5 -0.375 0.00453757
0.797732 0.5 0.375 0.00451198
0.872064 0.5 0.14794 0.003749
0.872064 0.5 -0.15 0.00376756
0.715434 0.5 -0.525 0.0055828
0.715434 0.5 0.525 0.00552052
0.219992 0.5 0.8625 0.0126069
0.219993 0.5 -0.8625 0.0185585
0 0.5 -0.893821 0.0154622
0 0.5 0.893821 0.0102879
0.0124865 0.5 -0.893821 0.0165439
0.0124865 0.5 0.893821 0.0109786
0 0.5 -0.9 0.0154352
0 0.5 0.9 0.0102963
0.756813 0.5 -0.4875 0.00506644
0.756813 0.5 0.4875 0.00501271
0.872064 0.5 -0.225 0.00383108
0.872064 0.5 0.225 0.00379894
0.835106 0.5 -0.3375 0.00419294
0.835106 0.5 0.3375 0.00415734
0 0.5 0.906179 0.010305
0 0.5 -0.906179 0.0154076
0.0124865 0.5 -0.906179 0.0164644
0.0124865 0.5 0.906179 0.0109993
0.90582 0.5 -0.0375 0.0034929
0.90582 0.5 0.0375 0.00348679
0.151149 0.5 -0.9 0.0201287
0.151149 0.5 0.9 0.0135079
0.90582 0.5 -0.1125 0.00351899
0.905821 0.5 0.1125 0.00350303
0.523432 0.5 -0.75 0.00904075
0.523432 0.5 0.75 0.00847944
0.574156 0.5 -0.7125 0.00792378
0.574156 0.5 0.7125 0.00762886
0.797732 0.5 -0.45 0.0046707
0.797732 0.5 0.45 0.00462662
0.467897 0.5 0.7875 0.00934763
0.467897 0.5 -0.7875 0.0102143
0.624316 0.5 -0.675 0.00712361
0.624316 0.5 0.675 0.00691715
0.411736 0.5 -0.825 0.0118974
0.411736 0.5 0.825 0.0102492
0.872064 0.5 0.3 0.00386921
0.872064 0.5 -0.3 0.00391249
0.67013 0.5 -0.6375 0.00636393
0.67013 0.5 0.6375 0.00623212
0.90582 0.5 0.1875 0.00353843
0.905821 0.5 -0.1875 0.00356951
0.350249 0.5 -0.8625 0.013631
0.350249 0.5 0.8625 0.0111439
0.835106 0.5 -0.4125 0.00429562
0.835106 0.5 0.4125 0.0042621
0.715434 0.5 -0.6 0.0057952
0.715434 0.5 0.6 0.00568655
0.939201 0.5 2.75387e-17 0.00338382
0.075776 0.5 0.9375 0.0145546
0.075776 0.5 -0.9375 0.0216521
0.939111 0.5 0.075 0.00339151
0.939201 0.5 -0.075 0.00339809
0.756813 0.5 0.5625 0.00516499
0.756814 0.5 -0.5625 0.00525492
0.90582 0.5 0.2625 0.00359432
0.905821 0.5 -0.2625 0.00364588
0.288069 0.5 -0.9 0.01605
0.288069 0.5 0.9 0.0118529
0.872064 0.5 -0.375 0.0040042
0.872064 0.5 0.375 0.00395836
0.939201 0.5 0.148627 0.00341781
0.939201 0.5 -0.15 0.00343417
0.797732 0.5 -0.525 0.0048399
0.797732 0.5 0.525 0.00476019
0.219992 0.5 0.9375 0.0125531
0.219992 0.5 -0.9375 0.0183924
0.939201 0.5 -0.225 0.00349616
0.939201 0.5 0.225 0.00346206
0.905821 0.5 -0.3375 0.0037276
0.90582 0.5 0.3375 0.00367025
0.835106 0.5 -0.4875 0.00444615
0.835106 0.5 0.4875 0.00437439
0 0.5 0.968821 0.0104092
0 0.5 -0.968821 0.0151449
0.0124865 0.5 -0.968821 0.0162017
0.0124865 0.5 0.968821 0.0111035
0.969689 0.5 -0.0375 0.00328286
0.969689 0.5 0.0375 0.00327963
0.574156 0.5 -0.7875 0.00824919
0.574156 0.5 0.7875 0.00781762
0 0.5 -0.975 0.0151216
0 0.5 0.975 0.0104213
0.624316 0.5 -0.75 0.0074227
0.624316 0.5 0.75 0.00710737
0.969689 0.5 -0.1125 0.00330462
0.96969 0.5 0.1125 0.00329757
0.523432 0.5 -0.825 0.00938455
0.523432 0.5 0.825 0.00864496
0.67013 0.5 0.7125 0.00642212
0.67013 0.5 -0.7125 0.00663792
0 0.5 -0.981179 0.0150972
0 0.5 0.981179 0.0104337
0.467897 0.5 0.8625 0.00948953
0.467897 0.5 -0.8625 0.0105752
0.0124865 0.5 -0.981179 0.0161337
0.0124865 0.5 0.981179 0.0111337
0.872064 0.5 -0.45 0.00412363
0.872064 0.5 0.45 0.00406435
0.715434 0.5 -0.675 0.00604233
0.715434 0.5 0.675 0.00586854
0.939201 0.5 -0.3 0.00357377
0.939201 0.5 0.3 0.0035268
0.151149 0.5 0.975 0.0135794
0.151149 0.5 -0.975 0.0198331
0.969689 0.5 -0.1875 0.00335069
0.969689 0.5 0.1875 0.00333411
0.756813 0.5 -0.6375 0.00547689
0.756813 0.5 0.6375 0.0053373
0.411736 0.5 -0.9 0.0122286
0.411736 0.5 0.9 0.0103461
0.90582 0.5 -0.4125 0.00381856
0.90582 0.5 0.4125 0.00376265
0.995005 0.5 0.0749309 0.00314424
0.797732 0.5 -0.6 0.005038
0.797732 0.5 0.6 0.0049166
1.00005 0.5 -8.47123e-18 0.00310394
0.350249 0.5 -0.9375 0.0139243
0.350249 0.5 0.9375 0.0111984
1.00005 0.5 -0.0749309 0.0031145
0.969689 0.5 -0.2625 0.0034258
0.969689 0.5 0.2625 0.00338817
0.835106 0.5 -0.5625 0.00461886
0.835106 0.5 0.5625 0.00451622
1.00005 0.5 -0.149862 0.003146
0.939201 0.5 -0.375 0.00365823
0.939201 0.5 0.375 0.00360916
1.00029 0.5 0.148988 0.00314227
0.075776 0.5 -1.0125 0.0212405
0.075776 0.5 1.0125 0.014751
0.288069 0.5 0.975 0.0118565
0.288069 0.5 -0.975 0.0161345
0.872064 0.5 -0.525 0.00427867
0.872064 0.5 0.525 0.00418484
1.00005 0.5 0.224793 0.00318238
1.00005 0.5 -0.224793 0.00320344
0.969689 0.5 0.3375 0.00346134
0.96969 0.5 -0.3375 0.00350309
1.0271 0.5 -0.0368226 0.0029196
1.0271 0.5 0.0368226 0.00291844
0.90582 0.5 0.4875 0.00387737
0.905821 0.5 -0.4875 0.00395267
1.0271 0.5 -0.110468 0.00293648
1.0271 0.5 0.110468 0.00292134
0.67013 0.5 0.7875 0.00662348
0.67013 0.5 -0.7875 0.00694733
0.624316 0.5 0.825 0.00730593
0.624316 0.5 -0.825 0.00775806
0.219993 0.5 -1.0125 0.0182621
0.219993 0.5 1.0125 0.0125985
0.574156 0.5 -0.8625 0.008611
0.574156 0.5 0.8625 0.00801029
0.715434 0.5 -0.75 0.0063254
0.715434 0.5 0.75 0.00606303
0.756813 0.5 0.7125 0.00552519
0.756814 0.5 -0.7125 0.00573303
0.523432 0.5 -0.9 0.00976269
0.523432 0.5 0.9 0.00881984
0.939201 0.5 -0.45 0.00377019
0.939201 0.5 0.45 0.00370929
1.04168 0.5 0 0.0028371
1.0271 0.5 -0.184113 0.00297685
1.0271 0.5 0.184113 0.00296709
0 0.5 -1.04382 0.0148788
0 0.5 1.04382 0.0105816
0.0124865 0.5 -1.04382 0.0159153
0.0124865 0.5 1.04382 0.0112816
1.00005 0.5 -0.299723 0.00327731
1.00005 0.5 0.299723 0.00324425
1.04168 0.5 -0.0729162 0.00284575
1.04168 0.5 0.0729162 0.00284243
0.797732 0.5 -0.675 0.00527113
0.797732 0.5 0.675 0.00508919
0.467897 0.5 0.9375 0.00964982
0.467897 0.5 -0.9375 0.0109679
0 0.5 -1.05 0.0148612
0 0.5 1.05 0.0105975
0.835106 0.5 -0.6375 0.0048287
0.835106 0.5 0.6375 0.00467598
1.04168 0.5 -0.145832 0.00287242
1.04168 0.5 0.145832 0.00286313
0.969689 0.5 -0.4125 0.00359106
0.96969 0.5 0.4125 0.0035494
0 0.5 -1.05618 0.0148404
0 0.5 1.05618 0.0106136
0.0124865 0.5 -1.05618 0.015862
0.0124865 0.5 1.05618 0.0113224
1.05695 0.5 -0.0360764 0.00275599
1.05695 0.5 0.0360764 0.00275298
0.411736 0.5 -0.975 0.0125851
0.411736 0.5 0.975 0.010429
0.872064 0.5 -0.6 0.00446549
0.872064 0.5 0.6 0.00432486
1.0271 0.5 -0.257759 0.00304058
1.0271 0.5 0.257759 0.00301584
0.151149 0.5 -1.05 0.0195978
0.151149 0.5 1.05 0.0137416
1.05695 0.5 0.108229 0.00274577
1.05695 0.5 -0.108229 0.00277045
1.04168 0.5 -0.218749 0.00292112
1.04168 0.5 0.218749 0.00289889
0.90582 0.5 -0.5625 0.00411596
0.905821 0.5 0.5625 0.00399096
1.00005 0.5 -0.374654 0.00336207
1.00005 0.5 0.374654 0.00332342
0.350249 0.5 1.0125 0.0111654
0.350249 0.5 -1.0125 0.0142364
1.05695 0.5 -0.180382 0.00280646
1.05695 0.5 0.180382 0.0027871
1.07319 0.5 0.0709442 0.00268952
0.939201 0.5 -0.525 0.00393039
0.939201 0.5 0.525 0.00382026
1.0271 0.5 -0.331404 0.00311568
1.0271 0.5 0.331404 0.00308172
1.08112 0.5 3.23815e-17 0.00265789
1.04168 0.5 -0.291665 0.00298552
1.04168 0.5 0.291665 0.00294967
1.08112 0.5 -0.0709442 0.00266495
0.969689 0.5 -0.4875 0.00372591
0.96969 0.5 0.4875 0.00365501
1.05695 0.5 0.252535 0.00282438
1.05695 0.5 -0.252535 0.00286023
0.288069 0.5 -1.05 0.0162464
0.288069 0.5 1.05 0.0119209
0.075776 0.5 -1.0875 0.0209135
0.075776 0.5 1.0875 0.015001
1.08112 0.5 -0.141888 0.00268877
1.08145 0.5 0.140165 0.00268237
0.715434 0.5 0.825 0.00626785
0.715434 0.5 -0.825 0.00664529
0.756813 0.5 0.7875 0.005724
0.756814 0.5 -0.7875 0.00602657
0.67013 0.5 -0.8625 0.00729299
0.67013 0.5 0.8625 0.00683414
0.797732 0.5 -0.75 0.00553874
0.797732 0.5 0.75 0.00527462
0.624316 0.5 -0.9 0.00812939
0.624316 0.5 0.9 0.00751186
1.00005 0.5 -0.449585 0.00347727
1.00005 0.5 0.449585 0.00341964
0.835106 0.5 -0.7125 0.00507376
0.835106 0.5 0.7125 0.00484697
0.574156 0.5 -0.9375 0.00900806
0.574157 0.5 0.9375 0.00821228
1.10076 0.5 -0.0349809 0.00258879
1.10076 0.5 0.0349809 0.0025885
1.08112 0.5 -0.212832 0.00273282
1.08112 0.5 0.212832 0.00270891
0.872064 0.5 -0.675 0.00468729
0.872064 0.5 0.675 0.00448654
1.04168 0.5 -0.364581 0.0030649
1.04168 0.5 0.364581 0.00301632
1.0271 0.5 0.405049 0.00316441
1.0271 0.5 -0.405049 0.00321032
1.05695 0.5 -0.324688 0.0029251
1.05695 0.5 0.324688 0.0028759
1.10076 0.5 -0.104943 0.00259946
1.10076 0.5 0.104943 0.00259991
0.523432 0.5 0.975 0.00899973
0.523432 0.5 -0.975 0.0101735
0.90582 0.5 0.6375 0.0041367
0.905821 0.5 -0.6375 0.00431776
0.219992 0.5 1.0875 0.0127631
0.219992 0.5 -1.0875 0.0181718
1.11376 0.5 3.81639e-17 0.00254356
0.939201 0.5 0.6 0.00396153
0.939201 0.5 -0.6 0.00412132
1.10076 0.5 -0.174905 0.00263483
1.10076 0.5 0.174905 0.00262484
0.467897 0.5 -1.0125 0.0113895
0.467897 0.5 1.0125 0.00979116
1.11376 0.5 -0.0693118 0.00254833
1.11376 0.5 0.0693118 0.00254957
1.08112 0.5 0.283777 0.00275178
1.08112 0.5 -0.283777 0.00278881
0 0.5 -1.11882 0.0146696
0 0.5 1.11882 0.010805
0.0124865 0.5 -1.11882 0.0156912
0.0124865 0.5 1.11882 0.0115137
0.969689 0.5 -0.5625 0.00393368
0.969689 0.5 0.5625 0.00376518
1.11376 0.5 0.138624 0.00256988
1.11376 0.5 -0.138624 0.00257075
0 0.5 -1.125 0.0146586
0 0.5 1.125 0.0108262
1.10076 0.5 0.244866 0.00266213
1.10076 0.5 -0.244866 0.00268825
0.411736 0.5 -1.05 0.0129644
0.411736 0.5 1.05 0.0104936
1.05695 0.5 -0.396841 0.00301061
1.05695 0.5 0.396841 0.00294252
1.00005 0.5 -0.524516 0.00363961
1.00005 0.5 0.524516 0.00352987
1.04168 0.5 -0.437497 0.0031716
1.04168 0.5 0.437497 0.00309937
0 0.5 -1.13118 0.0146422
0 0.5 1.13118 0.0108477
0.0124865 0.5 -1.13118 0.0156555
0.0124865 0.5 1.13118 0.0115701
1.11376 0.5 -0.207935 0.0026149
1.11376 0.5 0.207935 0.00259874
1.0271 0.5 -0.478694 0.00334296
1.0271 0.5 0.478694 0.00326484
0.151149 0.5 -1.125 0.0194285
0.151149 0.5 1.125 0.0139816
1.08112 0.5 -0.354722 0.00285792
1.08112 0.5 0.354722 0.00280845
1.13882 0.5 -0.0340295 0.00245321
1.13882 0.5 0.0340295 0.00245469
0.350249 0.5 -1.0875 0.0145648
0.350249 0.5 1.0875 0.0112511
1.13882 0.5 -0.102088 0.00246231
1.13882 0.5 0.102088 0.00246249
1.10076 0.5 -0.314829 0.00274419
1.10076 0.5 0.314829 0.00271241
0.756813 0.5 -0.8625 0.00635824
0.756814 0.5 0.8625 0.00593259
0.797732 0.5 -0.825 0.00584169
0.797732 0.5 0.825 0.0054745
1.11376 0.5 -0.277247 0.00266855
1.11376 0.5 0.277247 0.00264202
0.835106 0.5 0.7875 0.00503169
0.835106 0.5 -0.7875 0.00535006
0.715434 0.5 -0.9 0.00700097
0.715434 0.5 0.9 0.00648051
0.872064 0.5 -0.75 0.0049411
0.872064 0.5 0.75 0.00466503
1.13882 0.5 0.170147 0.0024914
1.13882 0.5 -0.170147 0.0024961
0.67013 0.5 -0.9375 0.00767462
0.67013 0.5 0.9375 0.00705164
0.905821 0.5 -0.7125 0.00454866
0.905821 0.5 0.7125 0.00430719
1.05695 0.5 0.468994 0.00302518
1.05695 0.5 -0.468994 0.00312622
0.939201 0.5 -0.675 0.0043334
0.939201 0.5 0.675 0.00412275
0.624316 0.5 0.975 0.00772625
0.624316 0.5 -0.975 0.00853607
1.04168 0.5 -0.510414 0.00330699
1.04168 0.5 0.510414 0.0031995
0.969689 0.5 -0.6375 0.00412396
0.96969 0.5 0.6375 0.00395995
0.288069 0.5 -1.125 0.0163871
0.288069 0.5 1.125 0.0120739
1.16179 0.5 5.78241e-19 0.00236717
1.08112 0.5 0.425666 0.00287966
1.08112 0.5 -0.425666 0.00295167
1.13882 0.5 -0.238206 0.00254802
1.13882 0.5 0.238206 0.00252747
1.16179 0.5 0.0669104 0.00236176
1.16179 0.5 -0.0669104 0.00236977
0.574156 0.5 -1.0125 0.00943959
0.574156 0.5 1.0125 0.00842493
0.075776 0.5 -1.1625 0.020684
0.075776 0.5 1.1625 0.0153461
1.00005 0.5 -0.599447 0.00381417
1.00005 0.5 0.599447 0.00367209
1.10076 0.5 0.384791 0.00277639
1.10076 0.5 -0.384791 0.00281825
1.0271 0.5 -0.55234 0.00350135
1.0271 0.5 0.55234 0.00338098
1.11376 0.5 -0.346559 0.00273093
1.11376 0.5 0.346559 0.00269838
1.16179 0.5 -0.133821 0.00238953
1.16179 0.5 0.133821 0.00239004
0.523432 0.5 -1.05 0.0106152
0.523432 0.5 1.05 0.00913969
1.17463 0.5 -0.0331343 0.00231962
1.17463 0.5 0.0331343 0.00232183
1.17463 0.5 -0.0994029 0.00232609
1.17463 0.5 0.0994029 0.00233351
1.16179 0.5 -0.200731 0.00243127
1.16179 0.5 0.200731 0.00242013
1.13882 0.5 -0.306265 0.00259921
1.13882 0.5 0.306265 0.00257566
0.219992 0.5 -1.1625 0.0181263
0.219992 0.5 1.1625 0.0129707
0.467897 0.5 -1.0875 0.0118379
0.467897 0.5 1.0875 0.00985071
1.17463 0.5 0.165672 0.00235613
1.17463 0.5 -0.165672 0.00235728
1.05695 0.5 -0.541147 0.00325715
1.05695 0.5 0.541147 0.00312604
1.18772 0.5 -5.78241e-19 0.00227563
1.11376 0.5 -0.41587 0.00281643
1.11376 0.5 0.41587 0.00276813
1.18772 0.5 -0.065614 0.00227737
1.18772 0.5 0.065614 0.00228336
1.08112 0.5 -0.49661 0.00306646
1.08112 0.5 0.49661 0.00296751
1.10076 0.5 -0.454752 0.00292256
1.10076 0.5 0.454752 0.0028543
1.18534 0.5 0.118202 0.00229934
1.16179 0.5 -0.267642 0.00248009
1.16179 0.5 0.267642 0.00245957
0 0.5 -1.19382 0.0145254
0 0.5 1.19382 0.011094
0.0124865 0.5 1.19382 0.0118163
0.0124865 0.5 -1.19382 0.0155387
1.04168 0.5 -0.58333 0.00344354
1.04168 0.5 0.58333 0.00331742
1.18772 0.5 -0.131228 0.00229527
1.17463 0.5 -0.23194 0.00240741
1.17463 0.5 0.23194 0.00238876
0.411736 0.5 -1.125 0.0133647
0.411736 0.5 1.125 0.0106137
1.13882 0.5 -0.374324 0.00266427
1.13882 0.5 0.374324 0.00263673
0 0.5 -1.2 0.01452
0 0.5 1.2 0.0111206
0.905821 0.5 0.7875 0.00449485
0.905821 0.5 -0.7875 0.00481211
0.872064 0.5 -0.825 0.00522977
0.872064 0.5 0.825 0.00485301
0.835106 0.5 0.8625 0.00523941
0.835106 0.5 -0.8625 0.00566118
0.939201 0.5 -0.75 0.00457332
0.939201 0.5 0.75 0.00428323
0.797732 0.5 -0.9 0.00618253
0.797732 0.5 0.9 0.00568448
1.0271 0.5 0.625985 0.00352087
1.0271 0.5 -0.625985 0.00364558
0.969689 0.5 0.7125 0.00409362
0.96969 0.5 -0.7125 0.00434955
1.18772 0.5 -0.196842 0.00233455
1.18772 0.5 0.196842 0.0023261
0.756814 0.5 -0.9375 0.00672273
0.756814 0.5 0.9375 0.00614663
0 0.5 1.20618 0.0111475
0 0.5 -1.20618 0.0145104
1.00005 0.5 -0.674378 0.00401081
1.00005 0.5 0.674378 0.0038297
0.0124865 0.5 1.20618 0.0118883
0.0124865 0.5 -1.20618 0.0155233
1.16179 0.5 -0.334552 0.0025324
1.16179 0.5 0.334552 0.00251082
0.715434 0.5 0.975 0.00670109
0.715434 0.5 -0.975 0.0073926
0.151149 0.5 -1.2 0.0193327
0.151149 0.5 1.2 0.014294
1.20942 0.5 0.0322645 0.00219862
1.20942 0.5 -0.0322645 0.00219705
1.17463 0.5 -0.298209 0.00245217
1.17463 0.5 0.298209 0.0024322
1.20942 0.5 -0.0967935 0.00220216
1.20942 0.5 0.0967935 0.00221107
0.350249 0.5 -1.1625 0.0149087
0.350249 0.5 1.1625 0.0114094
0.67013 0.5 1.0125 0.00727636
0.67013 0.5 -1.0125 0.00809193
1.11376 0.5 0.485183 0.00285329
1.11376 0.5 -0.485183 0.00292241
1.18772 0.5 0.262456 0.00236283
1.18772 0.5 -0.262456 0.00238018
1.10076 0.5 -0.524714 0.00303792
1.10076 0.5 0.524714 0.0029504
1.20942 0.5 -0.161322 0.00222994
1.20942 0.5 0.161322 0.00223199
1.08112 0.5 -0.567554 0.00318373
1.08112 0.5 0.567554 0.00307152
0.624316 0.5 -1.05 0.00897846
0.624316 0.5 1.05 0.00792301
1.13882 0.5 -0.442383 0.00275592
1.13882 0.5 0.442383 0.00271028
1.05695 0.5 0.6133 0.00324268
1.05695 0.5 -0.6133 0.00337363
1.16179 0.5 -0.401463 0.00260323
1.16179 0.5 0.401463 0.00257406
0.574156 0.5 -1.0875 0.00990395
0.574156 0.5 1.0875 0.00856674
1.17463 0.5 0.364477 0.00248767
1.17463 0.5 -0.364477 0.00250683
1.20942 0.5 -0.225851 0.00227597
1.20942 0.5 0.225851 0.00226179
1.23036 0.5 -1.32995e-17 0.0021267
1.2294 0.5 0.0634819 0.00213765
1.04168 0.5 -0.656246 0.00360436
1.04168 0.5 0.656246 0.00345678
1.23036 0.5 -0.0634819 0.00212731
1.18772 0.5 0.32807 0.0024106
1.18772 0.5 -0.32807 0.0024271
0.288069 0.5 -1.2 0.0165569
0.288069 0.5 1.2 0.0122909
1.23036 0.5 -0.126964 0.0021428
1.23036 0.5 0.126964 0.00215049
0.075776 0.5 -1.2375 0.0205669
0.075776 0.5 1.2375 0.0157864
0.523432 0.5 -1.125 0.0110873
0.523432 0.5 1.125 0.00928473
1.0271 0.5 -0.69963 0.00385608
1.0271 0.5 0.69963 0.00367261
1.24274 0.5 0.0314313 0.00208773
1.24274 0.5 -0.0314313 0.00208419
1.20942 0.5 0.29038 0.0023012
1.20942 0.5 -0.29038 0.00231519
1.11376 0.5 -0.554494 0.00303689
1.11376 0.5 0.554494 0.00295375
1.23036 0.5 -0.190445 0.0021784
1.23036 0.5 0.190445 0.00217526
1.24274 0.5 -0.0942942 0.00208817
1.24274 0.5 0.0942942 0.00209985
1.13882 0.5 0.510442 0.00279959
1.13882 0.5 -0.510442 0.00286039
0.969689 0.5 -0.7875 0.00458974
0.969689 0.5 0.7875 0.00424496
1.00005 0.5 -0.749309 0.00424758
1.00005 0.5 0.749309 0.00397656
0.939201 0.5 -0.825 0.00482976
0.939201 0.5 0.825 0.00446184
0.90582 0.5 0.8625 0.00466728
0.90582 0.5 -0.8625 0.00511628
1.17463 0.5 -0.430746 0.00258573
1.17463 0.5 0.430746 0.00255443
1.10076 0.5 -0.594676 0.00315327
1.10076 0.5 0.594676 0.00306021
1.18772 0.5 -0.393684 0.00249007
1.18772 0.5 0.393684 0.00246982
1.24274 0.5 -0.157157 0.00211355
1.24274 0.5 0.157157 0.00212104
1.16179 0.5 -0.468373 0.00269375
1.16179 0.5 0.468373 0.0026504
0.467897 0.5 -1.1625 0.0123106
0.467897 0.5 1.1625 0.0100276
0.872064 0.5 -0.9 0.00555449
0.872064 0.5 0.9 0.00505019
1.25401 0.5 2.08167e-17 0.00205351
0.835106 0.5 0.9375 0.0054491
0.835106 0.5 -0.9375 0.00601782
1.25401 0.5 -0.0622994 0.00205373
1.25401 0.5 0.0622994 0.00206072
1.08112 0.5 -0.638498 0.00332301
1.08112 0.5 0.638498 0.00319607
1.23036 0.5 -0.253927 0.00221887
1.23036 0.5 0.253927 0.00220824
0.219992 0.5 1.2375 0.0132374
0.219992 0.5 -1.2375 0.0181253
1.25309 0.5 0.121964 0.00207666
1.05695 0.5 0.685452 0.00338523
1.05695 0.5 -0.685452 0.00355339
0.797732 0.5 0.975 0.00590493
0.797732 0.5 -0.975 0.00656288
1.25401 0.5 -0.124599 0.00206777
1.20942 0.5 -0.354909 0.00236101
1.20942 0.5 0.354909 0.00235171
1.24274 0.5 -0.220019 0.00215729
1.24274 0.5 0.220019 0.00214917
0.756814 0.5 -1.0125 0.00712654
0.756813 0.5 1.0125 0.00637273
1.25401 0.5 -0.186898 0.00210087
1.25401 0.5 0.186898 0.0021003
0.411736 0.5 -1.2 0.013789
0.411736 0.5 1.2 0.0108107
0 0.5 -1.26882 0.014449
0 0.5 1.26882 0.0114488
0.0124865 0.5 1.26882 0.0121896
0.0124865 0.5 -1.26882 0.0154619
0.715434 0.5 -1.05 0.00782418
0.715434 0.5 1.05 0.00692281
1.23036 0.5 -0.31741 0.00225758
1.23036 0.5 0.31741 0.00225076
1.04168 0.5 -0.729162 0.00381785
1.04168 0.5 0.729162 0.00359678
1.18772 0.5 -0.459298 0.00257263
1.18772 0.5 0.459298 0.00254116
1.24274 0.5 -0.282882 0.00219247
1.24274 0.5 0.282882 0.0021856
0 0.5 -1.275 0.0144447
0 0.5 1.275 0.0114807
1.27472 0.5 -0.0306319 0.00198166
1.27472 0.5 0.0306319 0.00198498
1.17463 0.5 0.497015 0.00263512
1.17463 0.5 -0.497015 0.00267906
1.11376 0.5 -0.623806 0.00317031
1.11376 0.5 0.623806 0.00306974
1.13882 0.5 -0.578501 0.00297888
1.13882 0.5 0.578501 0.00290109
0.67013 0.5 -1.0875 0.00854885
0.67013 0.5 1.0875 0.00748215
1.27472 0.5 -0.0918959 0.00198538
1.27472 0.5 0.0918959 0.00200877
1.25401 0.5 -0.249197 0.00213855
1.25401 0.5 0.249197 0.00213166
1.16179 0.5 -0.535284 0.00280214
1.16179 0.5 0.535284 0.00274078
1.20942 0.5 -0.419438 0.00242875
1.20942 0.5 0.419438 0.00241324
0 0.5 -1.28118 0.0144438
0 0.5 1.28118 0.011513
0.0124865 0.5 1.28118 0.0122771
0.0124865 0.5 -1.28118 0.0154611
1.27472 0.5 0.15316 0.00201419
1.27472 0.5 -0.15316 0.00200713
0.151149 0.5 -1.275 0.0193078
0.151149 0.5 1.275 0.0146834