# pMean  POINT_DATA 63840
# x  y  z  pMean
0 0.5 3.39583e-17 0.144127
0 0.5 -0.00617931 0.144355
0 0.5 0.00617931 0.143901
0.0124865 0.5 -0.00617931 0.144355
0.0124865 0.5 0.00617931 0.143901
0 0.5 -0.0688207 0.14648
0 0.5 0.0688207 0.141438
0.0124865 0.5 -0.0688207 0.14648
0.0124865 0.5 0.0688207 0.141438
0 0.5 -0.075 0.146671
0 0.5 0.075 0.141177
0 0.5 -0.0811793 0.146866
0 0.5 0.0811793 0.140919
0.0124865 0.5 -0.0811793 0.146866
0.0124865 0.5 0.0811793 0.140919
0.075776 0.5 -0.0375 0.145511
0.075776 0.5 0.0375 0.142758
0.075776 0.5 -0.1125 0.147847
0.075776 0.5 0.1125 0.139613
0 0.5 -0.143821 0.148651
0 0.5 0.143821 0.138141
0.0124865 0.5 -0.143821 0.148651
0.0124865 0.5 0.143821 0.138141
0 0.5 -0.15 0.14881
0 0.5 0.15 0.13785
0.151149 0.5 -0.00137318 0.144108
0 0.5 -0.156179 0.148972
0 0.5 0.156179 0.137562
0.0124865 0.5 -0.156179 0.148972
0.0124865 0.5 0.156179 0.137562
0.151149 0.5 0.075 0.141227
0.151149 0.5 -0.075 0.146762
0.075776 0.5 -0.1875 0.149789
0.075776 0.5 0.1875 0.136103
0.151149 0.5 0.15 0.137874
0.151149 0.5 -0.15 0.148901
0 0.5 -0.218821 0.150386
0 0.5 0.218821 0.134493
0.0124865 0.5 -0.218821 0.150386
0.0124865 0.5 0.218821 0.134493
0.219992 0.5 0.0375 0.142876
0.219993 0.5 -0.0375 0.14568
0 0.5 -0.225 0.150503
0 0.5 0.225 0.134174
0 0.5 -0.231179 0.150624
0 0.5 0.231179 0.133858
0.0124865 0.5 -0.231179 0.150624
0.0124865 0.5 0.231179 0.133858
0.219992 0.5 0.1125 0.139678
0.219993 0.5 -0.1125 0.148023
0.151149 0.5 -0.225 0.150616
0.151149 0.5 0.225 0.134175
0.075776 0.5 -0.2625 0.151234
0.075776 0.5 0.2625 0.13226
0.288069 0.5 -0.00137318 0.14646
0.219992 0.5 0.1875 0.136122
0.219993 0.5 -0.1875 0.149959
0 0.5 0.293821 0.130528
0 0.5 -0.293821 0.151641
0.0124865 0.5 -0.293821 0.151641
0.0124865 0.5 0.293821 0.130528
0.288069 0.5 -0.075 0.149261
0.288069 0.5 0.075 0.143459
0 0.5 -0.3 0.151721
0 0.5 0.3 0.130186
0 0.5 0.306179 0.129845
0 0.5 -0.306179 0.151804
0.0124865 0.5 -0.306179 0.151804
0.0124865 0.5 0.306179 0.129845
0.288069 0.5 -0.15 0.151484
0.288069 0.5 0.15 0.139941
0.151149 0.5 -0.3 0.15187
0.151149 0.5 0.3 0.130162
0.219992 0.5 -0.2625 0.151493
0.219992 0.5 0.2625 0.132237
0.075776 0.5 0.3375 0.128125
0.075776 0.5 -0.3375 0.152223
0.350249 0.5 -0.0375 0.150252
0.350249 0.5 0.0375 0.147234
0.288069 0.5 -0.225 0.153243
0.288069 0.5 0.225 0.136048
0.350249 0.5 0.1125 0.143802
0.350249 0.5 -0.1125 0.152816
0 0.5 0.368821 0.126287
0 0.5 -0.368821 0.152483
0.0124865 0.5 -0.368821 0.152483
0.0124865 0.5 0.368821 0.126287
0 0.5 -0.375 0.152534
0 0.5 0.375 0.125923
0 0.5 -0.381179 0.152588
0 0.5 0.381179 0.125561
0.0124865 0.5 -0.381179 0.152588
0.0124865 0.5 0.381179 0.125561
0.350249 0.5 -0.1875 0.154855
0.350249 0.5 0.1875 0.139934
0.219992 0.5 -0.3375 0.152538
0.219992 0.5 0.3375 0.128054
0.151149 0.5 -0.375 0.152697
0.151149 0.5 0.375 0.125873
0.411736 0.5 -0.00137318 0.15158
0.288069 0.5 -0.3 0.154526
0.288069 0.5 0.3 0.131824
0.411736 0.5 -0.075 0.15459
0.411736 0.5 0.075 0.148342
0.075776 0.5 -0.4125 0.15286
0.075776 0.5 0.4125 0.123734
0.350249 0.5 -0.2625 0.156379
0.350249 0.5 0.2625 0.135691
0.411736 0.5 -0.15 0.156953
0.411736 0.5 0.15 0.144517
0 0.5 -0.443821 0.152924
0 0.5 0.443821 0.121806
0.0124865 0.5 -0.443821 0.152924
0.0124865 0.5 0.443821 0.121806
0 0.5 -0.45 0.152936
0 0.5 0.45 0.121424
0 0.5 -0.456179 0.152951
0 0.5 0.456179 0.121045
0.0124865 0.5 -0.456179 0.152951
0.0124865 0.5 0.456179 0.121045
0.219992 0.5 -0.4125 0.153172
0.219993 0.5 0.4125 0.123607
0.411736 0.5 -0.225 0.158768
0.411736 0.5 0.225 0.140274
0.467897 0.5 0.0375 0.152895
0.467897 0.5 -0.0375 0.156129
0.288069 0.5 -0.375 0.155341
0.288069 0.5 0.375 0.127312
0.151149 0.5 -0.45 0.1531
0.151149 0.5 0.45 0.121344
0.467897 0.5 -0.1125 0.158831
0.467897 0.5 0.1125 0.149133
0.350249 0.5 0.3375 0.131131
0.350249 0.5 -0.3375 0.15741
0.075776 0.5 -0.4875 0.153028
0.075776 0.5 0.4875 0.119128
0.467897 0.5 -0.1875 0.160969
0.467897 0.5 0.1875 0.144915
0.411736 0.5 -0.3 0.160048
0.411736 0.5 0.3 0.13566
0 0.5 -0.518821 0.152908
0 0.5 0.518821 0.117126
0.0124865 0.5 0.518821 0.117126
0.0124865 0.5 -0.518821 0.152908
0.523432 0.5 -0.00137318 0.157843
0 0.5 -0.525 0.152883
0 0.5 0.525 0.11673
0.523432 0.5 -0.075 0.161074
0.523432 0.5 0.075 0.154331
0 0.5 -0.531179 0.152862
0 0.5 0.531179 0.116336
0.0124865 0.5 -0.531179 0.152862
0.0124865 0.5 0.531179 0.116336
0.288069 0.5 -0.45 0.155684
0.288069 0.5 0.45 0.12255
0.219992 0.5 -0.4875 0.153344
0.219993 0.5 0.4875 0.11894
0.467897 0.5 -0.2625 0.162528
0.467897 0.5 0.2625 0.140293
0.350249 0.5 -0.4125 0.157959
0.350249 0.5 0.4125 0.126293
0.523432 0.5 -0.15 0.163577
0.523432 0.5 0.15 0.150154
0.151149 0.5 -0.525 0.153042
0.151149 0.5 0.525 0.116618
0.411736 0.5 -0.375 0.160804
0.411736 0.5 0.375 0.130724
0.075776 0.5 -0.5625 0.152754
0.075776 0.5 0.5625 0.114346
0.523432 0.5 -0.225 0.165468
0.523432 0.5 0.225 0.145506
0.574156 0.5 -0.0375 0.163034
0.574156 0.5 0.0375 0.159522
0.467897 0.5 0.3375 0.135285
0.467897 0.5 -0.3375 0.163534
0.574156 0.5 -0.1125 0.165936
0.574156 0.5 0.1125 0.155438
0 0.5 -0.593821 0.152472
0 0.5 0.593821 0.112289
0.0124865 0.5 -0.593821 0.152472
0.0124865 0.5 0.593821 0.112289
0.288069 0.5 -0.525 0.155539
0.288069 0.5 0.525 0.117586
0 0.5 -0.6 0.152416
0 0.5 0.6 0.111882
0.350249 0.5 -0.4875 0.157983
0.350249 0.5 0.4875 0.121223
0.523432 0.5 -0.3 0.166753
0.523432 0.5 0.3 0.140438
0.219992 0.5 -0.5625 0.153046
0.219992 0.5 0.5625 0.114095
0.574156 0.5 -0.1875 0.168196
0.574156 0.5 0.1875 0.150815
0 0.5 -0.606179 0.152362
0 0.5 0.606179 0.111477
0.0124865 0.5 -0.606179 0.152362
0.0124865 0.5 0.606179 0.111477
0.411736 0.5 -0.45 0.161021
0.411736 0.5 0.45 0.12552
0.151149 0.5 -0.6 0.15256
0.151149 0.5 0.6 0.111736
0.62168 0.5 2.64545e-17 0.164783
0.467897 0.5 0.4125 0.129974
0.467897 0.5 -0.4125 0.163976
0.624316 0.5 0.0729402 0.161185
0.624316 0.5 -0.075 0.168522
0.574156 0.5 -0.2625 0.1698
0.574157 0.5 0.2625 0.14571
0.075776 0.5 -0.6375 0.152093
0.075776 0.5 0.6375 0.10943
0.624316 0.5 -0.15 0.1712
0.624316 0.5 0.15 0.156608
0.523432 0.5 -0.375 0.167438
0.523432 0.5 0.375 0.13501
0.350249 0.5 -0.5625 0.157517
0.350249 0.5 0.5625 0.115973
0.624316 0.5 -0.225 0.173181
0.624316 0.5 0.225 0.151488
0.288069 0.5 0.6 0.112466
0.288069 0.5 -0.6 0.154948
0.574156 0.5 -0.3375 0.170771
0.574156 0.5 0.3375 0.1402
0.411736 0.5 -0.525 0.160705
0.411736 0.5 0.525 0.120102
0 0.5 -0.668821 0.151651
0 0.5 0.668821 0.107335
0.0124865 0.5 -0.668821 0.151651
0.0124865 0.5 0.668821 0.107335
0.67013 0.5 0.0375 0.166962
0.67013 0.5 -0.0375 0.1708
0.219993 0.5 -0.6375 0.152355
0.219993 0.5 0.6375 0.109112
0 0.5 -0.675 0.151564
0 0.5 0.675 0.10692
0.467897 0.5 0.4875 0.124407
0.467897 0.5 -0.4875 0.163834
0.67013 0.5 -0.1125 0.173938
0.67013 0.5 0.1125 0.162472
0 0.5 -0.681179 0.151478
0 0.5 0.681179 0.106507
0.0124865 0.5 -0.681179 0.151478
0.0124865 0.5 0.681179 0.106507
0.523432 0.5 -0.45 0.167512
0.523432 0.5 0.45 0.129286
0.151149 0.5 -0.675 0.151691
0.151149 0.5 0.675 0.106739
0.624316 0.5 -0.3 0.174471
0.624316 0.5 0.3 0.145893
0.67013 0.5 0.1875 0.157381
0.67013 0.5 -0.1875 0.17634
0.574156 0.5 -0.4125 0.171095
0.574157 0.5 0.4125 0.134346
0.708171 0.5 1.88651e-17 0.172045
0.075776 0.5 -0.7125 0.15105
0.075776 0.5 0.7125 0.104421
0.715434 0.5 0.0736268 0.168469
0.715434 0.5 -0.075 0.176687
0.67013 0.5 0.2625 0.151745
0.67013 0.5 -0.2625 0.177996
0.350249 0.5 -0.6375 0.15662
0.350249 0.5 0.6375 0.110594
0.411736 0.5 -0.6 0.159904
0.411736 0.5 0.6 0.114524
0.624316 0.5 -0.375 0.175072
0.624316 0.5 0.375 0.1399
0.715434 0.5 -0.15 0.179565
0.715434 0.5 0.15 0.163621
0.467897 0.5 -0.5625 0.163164
0.467897 0.5 0.5625 0.118647
0.288069 0.5 -0.675 0.15395
0.288069 0.5 0.675 0.107235
0.523432 0.5 -0.525 0.167
0.523432 0.5 0.525 0.123329
0 0.5 -0.743821 0.150464
0 0.5 0.743821 0.102304
0.0124865 0.5 -0.743821 0.150464
0.0124865 0.5 0.743821 0.102304
0.219992 0.5 0.7125 0.104035
0.219992 0.5 -0.7125 0.151276
0.715434 0.5 -0.225 0.181647
0.715434 0.5 0.225 0.157969
0 0.5 -0.75 0.150348
0 0.5 0.75 0.101884
0.67013 0.5 0.3375 0.145646
0.67013 0.5 -0.3375 0.178921
0.574156 0.5 -0.4875 0.170774
0.574156 0.5 0.4875 0.128212
0 0.5 -0.756179 0.150234
0 0.5 0.756179 0.101467
0.0124865 0.5 -0.756179 0.150234
0.0124865 0.5 0.756179 0.101467
0.756813 0.5 -0.0375 0.17912
0.756813 0.5 0.0375 0.174918
0.151149 0.5 -0.75 0.150455
0.151149 0.5 0.75 0.101668
0.756813 0.5 -0.1125 0.182521
0.756813 0.5 0.1125 0.169972
0.624316 0.5 -0.45 0.174987
0.624316 0.5 0.45 0.13358
0.715434 0.5 -0.3 0.182937
0.715434 0.5 0.3 0.151782
0.756813 0.5 0.1875 0.164347
0.756813 0.5 -0.1875 0.185081
0.67013 0.5 -0.4125 0.179111
0.67013 0.5 0.4125 0.139166
0.411736 0.5 -0.675 0.158656
0.411736 0.5 0.675 0.108841
0.467897 0.5 0.6375 0.112754
0.467897 0.5 -0.6375 0.162007
0.075776 0.5 -0.7875 0.14966
0.075776 0.5 0.7875 0.0993587
0.350249 0.5 -0.7125 0.155308
0.350249 0.5 0.7125 0.105133
0.523432 0.5 -0.6 0.16595
0.523432 0.5 0.6 0.117206
0.797732 0.5 2.68882e-17 0.181302
0.756813 0.5 -0.2625 0.186788
0.756814 0.5 0.2625 0.158115
0.797732 0.5 0.0736268 0.176291
0.797732 0.5 -0.075 0.185282
0.288069 0.5 -0.75 0.152568
0.288069 0.5 0.75 0.101938
0.574156 0.5 -0.5625 0.16987
0.574157 0.5 0.5625 0.121875
0.715434 0.5 -0.375 0.183442
0.715434 0.5 0.375 0.145149
0.797732 0.5 -0.15 0.188385
0.797732 0.5 0.15 0.170934
0.624316 0.5 -0.525 0.174249
0.624316 0.5 0.525 0.12701
0.219992 0.5 -0.7875 0.149843
0.219992 0.5 0.7875 0.0989026
0 0.5 -0.818821 0.148941
0 0.5 0.818821 0.0972364
0.0124865 0.5 0.818821 0.0972364
0.0124865 0.5 -0.818821 0.148941
0 0.5 -0.825 0.148798
0 0.5 0.825 0.0968168
0.756813 0.5 0.3375 0.151363
0.756814 0.5 -0.3375 0.187657
0.67013 0.5 -0.4875 0.178585
0.67013 0.5 0.4875 0.132386
0.797732 0.5 -0.225 0.190577
0.797732 0.5 0.225 0.164689
0 0.5 -0.831179 0.148658
0 0.5 0.831179 0.0963986
0.0124865 0.5 -0.831179 0.148658
0.0124865 0.5 0.831179 0.0963986
0.835106 0.5 0.0375 0.183118
0.835106 0.5 -0.0375 0.187724
0.151149 0.5 -0.825 0.148882
0.151149 0.5 0.825 0.0965662
0.835106 0.5 0.1125 0.177671
0.835106 0.5 -0.1125 0.191423
0.715434 0.5 -0.45 0.183177
0.715434 0.5 0.45 0.13816
0.797732 0.5 -0.3 0.191865
0.797732 0.5 0.3 0.157849
0.467897 0.5 0.7125 0.106785
0.467897 0.5 -0.7125 0.160397
0.523432 0.5 -0.675 0.164404
0.523432 0.5 0.675 0.110982
0.411736 0.5 -0.75 0.156993
0.411736 0.5 0.75 0.103105
0.835106 0.5 -0.1875 0.194162
0.835106 0.5 0.1875 0.171459
0.574156 0.5 -0.6375 0.168419
0.574157 0.5 0.6375 0.115404
0.350249 0.5 -0.7875 0.153619
0.350249 0.5 0.7875 0.0996389
0.756813 0.5 -0.4125 0.187698
0.756814 0.5 0.4125 0.144192
0.075776 0.5 -0.8625 0.147951
0.075776 0.5 0.8625 0.0942855
0.624316 0.5 0.6 0.120272
0.624316 0.5 -0.6 0.172911
0.872064 0.5 5.91974e-17 0.189793
0.870122 0.5 0.075 0.184035
0.288069 0.5 -0.825 0.150837
0.288069 0.5 0.825 0.0966213
0.67013 0.5 -0.5625 0.177399
0.67013 0.5 0.5625 0.125392
0.872064 0.5 -0.075 0.194134
0.835106 0.5 -0.2625 0.195921
0.835106 0.5 0.2625 0.164573
0.797732 0.5 -0.375 0.192271
0.797732 0.5 0.375 0.150516
0.872064 0.5 0.14794 0.1784
0.872064 0.5 -0.15 0.19748
0.715434 0.5 -0.525 0.18218
0.715434 0.5 0.525 0.130906
0.219992 0.5 0.8625 0.0937685
0.219993 0.5 -0.8625 0.148086
0 0.5 -0.893821 0.147111
0 0.5 0.893821 0.0921746
0.0124865 0.5 -0.893821 0.147111
0.0124865 0.5 0.893821 0.0921746
0 0.5 -0.9 0.146944
0 0.5 0.9 0.0917572
0.756813 0.5 -0.4875 0.186941
0.756813 0.5 0.4875 0.136699
0.872064 0.5 -0.225 0.19978
0.872064 0.5 0.225 0.171514
0.835106 0.5 -0.3375 0.196738
0.835106 0.5 0.3375 0.157112
0 0.5 0.906179 0.0913409
0 0.5 -0.906179 0.14678
0.0124865 0.5 -0.906179 0.14678
0.0124865 0.5 0.906179 0.0913409
0.90582 0.5 -0.0375 0.196532
0.90582 0.5 0.0375 0.191502
0.151149 0.5 -0.9 0.147002
0.151149 0.5 0.9 0.0914756
0.90582 0.5 -0.1125 0.200547
0.905821 0.5 0.1125 0.185524
0.523432 0.5 -0.75 0.162406
0.523432 0.5 0.75 0.104718
0.574156 0.5 -0.7125 0.166469
0.574156 0.5 0.7125 0.10887
0.797732 0.5 -0.45 0.191815
0.797732 0.5 0.45 0.142799
0.467897 0.5 0.7875 0.100798
0.467897 0.5 -0.7875 0.158378
0.624316 0.5 -0.675 0.171019
0.624316 0.5 0.675 0.11344
0.411736 0.5 -0.825 0.154958
0.411736 0.5 0.825 0.0973683
0.872064 0.5 0.3 0.163971
0.872064 0.5 -0.3 0.201058
0.67013 0.5 -0.6375 0.175601
0.67013 0.5 0.6375 0.118271
0.90582 0.5 0.1875 0.17869
0.905821 0.5 -0.1875 0.203468
0.350249 0.5 -0.8625 0.151589
0.350249 0.5 0.8625 0.0941559
0.835106 0.5 -0.4125 0.196638
0.835106 0.5 0.4125 0.149195
0.715434 0.5 -0.6 0.180505
0.715434 0.5 0.6 0.123482
0.939201 0.5 2.75387e-17 0.19823
0.075776 0.5 0.9375 0.0892388
0.075776 0.5 -0.9375 0.145952
0.939111 0.5 0.075 0.191936
0.939201 0.5 -0.075 0.202971
0.756813 0.5 0.5625 0.128983
0.756814 0.5 -0.5625 0.185435
0.90582 0.5 0.2625 0.171104
0.905821 0.5 -0.2625 0.205246
0.288069 0.5 -0.9 0.14879
0.288069 0.5 0.9 0.0913283
0.872064 0.5 -0.375 0.201366
0.872064 0.5 0.375 0.155885
0.939201 0.5 0.148627 0.185592
0.939201 0.5 -0.15 0.2066
0.797732 0.5 -0.525 0.190534
0.797732 0.5 0.525 0.134804
0.219992 0.5 0.9375 0.088663
0.219992 0.5 -0.9375 0.146037
0.939201 0.5 -0.225 0.209019
0.939201 0.5 0.225 0.178161
0.905821 0.5 -0.3375 0.206005
0.90582 0.5 0.3375 0.162888
0.835106 0.5 -0.4875 0.195637
0.835106 0.5 0.4875 0.14094
0 0.5 0.968821 0.0871524
0 0.5 -0.968821 0.145005
0.0124865 0.5 -0.968821 0.145005
0.0124865 0.5 0.968821 0.0871524
0.969689 0.5 -0.0375 0.205076
0.969689 0.5 0.0375 0.199565
0.574156 0.5 -0.7875 0.164075
0.574156 0.5 0.7875 0.102336
0 0.5 -0.975 0.144817
0 0.5 0.975 0.08674
0.624316 0.5 -0.75 0.168633
0.624316 0.5 0.75 0.106588
0.969689 0.5 -0.1125 0.209471
0.96969 0.5 0.1125 0.193001
0.523432 0.5 -0.825 0.160006
0.523432 0.5 0.825 0.0984728
0.67013 0.5 0.7125 0.111103
0.67013 0.5 -0.7125 0.173252
0 0.5 -0.981179 0.144631
0 0.5 0.981179 0.0863287
0.467897 0.5 0.8625 0.0948416
0.467897 0.5 -0.8625 0.155994
0.0124865 0.5 -0.981179 0.144631
0.0124865 0.5 0.981179 0.0863287
0.872064 0.5 -0.45 0.200711
0.872064 0.5 0.45 0.147389
0.715434 0.5 -0.675 0.178216
0.715434 0.5 0.675 0.115979
0.939201 0.5 -0.3 0.210282
0.939201 0.5 0.3 0.169874
0.151149 0.5 0.975 0.086425
0.151149 0.5 -0.975 0.144848
0.969689 0.5 -0.1875 0.212647
0.969689 0.5 0.1875 0.185495
0.756813 0.5 -0.6375 0.183243
0.756813 0.5 0.6375 0.12115
0.411736 0.5 -0.9 0.152591
0.411736 0.5 0.9 0.0916768
0.90582 0.5 -0.4125 0.205767
0.90582 0.5 0.4125 0.154169
0.995005 0.5 0.0749309 0.198885
0.797732 0.5 -0.6 0.188488
0.797732 0.5 0.6 0.126644
1.00005 0.5 -8.47123e-18 0.206414
0.350249 0.5 -0.9375 0.149255
0.350249 0.5 0.9375 0.0887272
1.00005 0.5 -0.0749309 0.211558
0.969689 0.5 -0.2625 0.214443
0.969689 0.5 0.2625 0.177172
0.835106 0.5 -0.5625 0.193789
0.835106 0.5 0.5625 0.132455
1.00005 0.5 -0.149862 0.21548
0.939201 0.5 -0.375 0.210512
0.939201 0.5 0.375 0.161
1.00029 0.5 0.148988 0.192573
0.075776 0.5 -1.0125 0.143695
0.075776 0.5 1.0125 0.0842506
0.288069 0.5 0.975 0.0860917
0.288069 0.5 -0.975 0.146463
0.872064 0.5 -0.525 0.199118
0.872064 0.5 0.525 0.138607
1.00005 0.5 0.224793 0.184485
1.00005 0.5 -0.224793 0.217972
0.969689 0.5 0.3375 0.168171
0.96969 0.5 -0.3375 0.215162
1.0271 0.5 -0.0368226 0.213488
1.0271 0.5 0.0368226 0.207593
0.90582 0.5 0.4875 0.145104
0.905821 0.5 -0.4875 0.204489
1.0271 0.5 -0.110468 0.218178
1.0271 0.5 0.110468 0.199244
0.67013 0.5 0.7875 0.103961
0.67013 0.5 -0.7875 0.17042
0.624316 0.5 0.825 0.0997805
0.624316 0.5 -0.825 0.165813
0.219993 0.5 -1.0125 0.143728
0.219993 0.5 1.0125 0.0836045
0.574156 0.5 -0.8625 0.161291
0.574156 0.5 0.8625 0.0958613
0.715434 0.5 -0.75 0.175383
0.715434 0.5 0.75 0.108479
0.756813 0.5 0.7125 0.113293
0.756814 0.5 -0.7125 0.180443
0.523432 0.5 -0.9 0.157254
0.523432 0.5 0.9 0.0923009
0.939201 0.5 -0.45 0.209667
0.939201 0.5 0.45 0.15169
1.04168 0.5 0 0.212993
1.0271 0.5 -0.184113 0.221546
1.0271 0.5 0.184113 0.19246
0 0.5 -1.04382 0.142653
0 0.5 1.04382 0.0822014
0.0124865 0.5 -1.04382 0.142653
0.0124865 0.5 1.04382 0.0822014
1.00005 0.5 -0.299723 0.219158
1.00005 0.5 0.299723 0.175413
1.04168 0.5 -0.0729162 0.218354
1.04168 0.5 0.0729162 0.206448
0.797732 0.5 -0.675 0.185756
0.797732 0.5 0.675 0.118431
0.467897 0.5 0.9375 0.0889701
0.467897 0.5 -0.9375 0.153294
0 0.5 -1.05 0.142447
0 0.5 1.05 0.0817964
0.835106 0.5 -0.6375 0.191167
0.835106 0.5 0.6375 0.12388
1.04168 0.5 -0.145832 0.222484
1.04168 0.5 0.145832 0.198806
0.969689 0.5 -0.4125 0.214843
0.96969 0.5 0.4125 0.158638
0 0.5 -1.05618 0.142242
0 0.5 1.05618 0.0813922
0.0124865 0.5 -1.05618 0.142242
0.0124865 0.5 1.05618 0.0813922
1.05695 0.5 -0.0360764 0.218447
1.05695 0.5 0.0360764 0.212428
0.411736 0.5 -0.975 0.149934
0.411736 0.5 0.975 0.0860791
0.872064 0.5 -0.6 0.196663
0.872064 0.5 0.6 0.129666
1.0271 0.5 -0.257759 0.223265
1.0271 0.5 0.257759 0.183489
0.151149 0.5 -1.05 0.142451
0.151149 0.5 1.05 0.0814458
1.05695 0.5 0.108229 0.205534
1.05695 0.5 -0.108229 0.22327
1.04168 0.5 -0.218749 0.225089
1.04168 0.5 0.218749 0.190205
0.90582 0.5 -0.5625 0.202259
0.905821 0.5 0.5625 0.135811
1.00005 0.5 -0.374654 0.219323
1.00005 0.5 0.374654 0.165704
0.350249 0.5 1.0125 0.0833917
0.350249 0.5 -1.0125 0.146657
1.05695 0.5 -0.180382 0.226835
1.05695 0.5 0.180382 0.197031
1.07319 0.5 0.0709442 0.210018
0.939201 0.5 -0.525 0.207756
0.939201 0.5 0.525 0.142091
1.0271 0.5 -0.331404 0.223913
1.0271 0.5 0.331404 0.173778
1.08112 0.5 3.23815e-17 0.219517
1.04168 0.5 -0.291665 0.226269
1.04168 0.5 0.291665 0.180787
1.08112 0.5 -0.0709442 0.225064
0.969689 0.5 -0.4875 0.213301
0.96969 0.5 0.4875 0.148743
1.05695 0.5 0.252535 0.187928
1.05695 0.5 -0.252535 0.228615
0.288069 0.5 -1.05 0.143891
0.288069 0.5 1.05 0.0809409
0.075776 0.5 -1.0875 0.141212
0.075776 0.5 1.0875 0.079351
1.08112 0.5 -0.141888 0.229406
1.08145 0.5 0.140165 0.204577
0.715434 0.5 0.825 0.101056
0.715434 0.5 -0.825 0.172084
0.756813 0.5 0.7875 0.105491
0.756814 0.5 -0.7875 0.177117
0.67013 0.5 -0.8625 0.167173
0.67013 0.5 0.8625 0.0969121
0.797732 0.5 -0.75 0.18243
0.797732 0.5 0.75 0.110254
0.624316 0.5 -0.9 0.162622
0.624316 0.5 0.9 0.0930802
1.00005 0.5 -0.449585 0.218279
1.00005 0.5 0.449585 0.15553
0.835106 0.5 -0.7125 0.187873
0.835106 0.5 0.7125 0.11532
0.574156 0.5 -0.9375 0.158176
0.574157 0.5 0.9375 0.0895029
1.10076 0.5 -0.0349809 0.225984
1.10076 0.5 0.0349809 0.219735
1.08112 0.5 -0.212832 0.232202
1.08112 0.5 0.212832 0.196143
0.872064 0.5 -0.675 0.193445
0.872064 0.5 0.675 0.120698
1.04168 0.5 -0.364581 0.226464
1.04168 0.5 0.364581 0.170709
1.0271 0.5 0.405049 0.163495
1.0271 0.5 -0.405049 0.223577
1.05695 0.5 -0.324688 0.229274
1.05695 0.5 0.324688 0.178079
1.10076 0.5 -0.104943 0.231035
1.10076 0.5 0.104943 0.2123
0.523432 0.5 0.975 0.0862556
0.523432 0.5 -0.975 0.154203
0.90582 0.5 0.6375 0.12643
0.905821 0.5 -0.6375 0.199155
0.219992 0.5 1.0875 0.0786379
0.219992 0.5 -1.0875 0.141191
1.11376 0.5 3.81639e-17 0.225038
0.939201 0.5 0.6 0.132356
0.939201 0.5 -0.6 0.204878
1.10076 0.5 -0.174905 0.234893
1.10076 0.5 0.174905 0.203832
0.467897 0.5 -1.0125 0.150321
0.467897 0.5 1.0125 0.0832391
1.11376 0.5 -0.0693118 0.230762
1.11376 0.5 0.0693118 0.218113
1.08112 0.5 0.283777 0.186519
1.08112 0.5 -0.283777 0.233476
0 0.5 -1.11882 0.140087
0 0.5 1.11882 0.0773512
0.0124865 0.5 -1.11882 0.140087
0.0124865 0.5 1.11882 0.0773512
0.969689 0.5 -0.5625 0.210718
0.969689 0.5 0.5625 0.138624
1.11376 0.5 0.138624 0.209377
1.11376 0.5 -0.138624 0.235287
0 0.5 -1.125 0.139864
0 0.5 1.125 0.076956
1.10076 0.5 0.244866 0.194466
1.10076 0.5 -0.244866 0.236843
0.411736 0.5 -1.05 0.147029
0.411736 0.5 1.05 0.0806095
1.05695 0.5 -0.396841 0.229026
1.05695 0.5 0.396841 0.167654
1.00005 0.5 -0.524516 0.216009
1.00005 0.5 0.524516 0.145062
1.04168 0.5 -0.437497 0.225449
1.04168 0.5 0.437497 0.160148
0 0.5 -1.13118 0.139644
0 0.5 1.13118 0.0765615
0.0124865 0.5 -1.13118 0.139644
0.0124865 0.5 1.13118 0.0765615
1.11376 0.5 -0.207935 0.238253
1.11376 0.5 0.207935 0.201057
1.0271 0.5 -0.478694 0.221799
1.0271 0.5 0.478694 0.152824
0.151149 0.5 -1.125 0.139841
0.151149 0.5 1.125 0.0765716
1.08112 0.5 -0.354722 0.233732
1.08112 0.5 0.354722 0.176225
1.13882 0.5 -0.0340295 0.23258
1.13882 0.5 0.0340295 0.226102
0.350249 0.5 -1.0875 0.143831
0.350249 0.5 1.0875 0.0781651
1.13882 0.5 -0.102088 0.237836
1.13882 0.5 0.102088 0.218303
1.10076 0.5 -0.314829 0.23756
1.10076 0.5 0.314829 0.184342
0.756813 0.5 -0.8625 0.173348
0.756814 0.5 0.8625 0.0978221
0.797732 0.5 -0.825 0.178602
0.797732 0.5 0.825 0.102191
1.11376 0.5 -0.277247 0.239622
1.11376 0.5 0.277247 0.191208
0.835106 0.5 0.7875 0.106859
0.835106 0.5 -0.7875 0.18401
0.715434 0.5 -0.9 0.168394
0.715434 0.5 0.9 0.0937825
0.872064 0.5 -0.75 0.189584
0.872064 0.5 0.75 0.111802
1.13882 0.5 0.170147 0.209685
1.13882 0.5 -0.170147 0.241865
0.67013 0.5 -0.9375 0.163578
0.67013 0.5 0.9375 0.0900205
0.905821 0.5 -0.7125 0.195321
0.905821 0.5 0.7125 0.117105
1.05695 0.5 0.468994 0.15683
1.05695 0.5 -0.468994 0.227297
0.939201 0.5 -0.675 0.201144
0.939201 0.5 0.675 0.122667
0.624316 0.5 0.975 0.0865413
0.624316 0.5 -0.975 0.159121
1.04168 0.5 -0.510414 0.223118
1.04168 0.5 0.510414 0.149286
0.969689 0.5 -0.6375 0.207134
0.96969 0.5 0.6375 0.128504
0.288069 0.5 -1.125 0.141107
0.288069 0.5 1.125 0.0759043
1.16179 0.5 5.78241e-19 0.233646
1.08112 0.5 0.425666 0.165436
1.08112 0.5 -0.425666 0.232801
1.13882 0.5 -0.238206 0.243997
1.13882 0.5 0.238206 0.200034
1.16179 0.5 0.0669104 0.22666
1.16179 0.5 -0.0669104 0.23965
0.574156 0.5 -1.0125 0.154783
0.574156 0.5 1.0125 0.083308
0.075776 0.5 -1.1625 0.138531
0.075776 0.5 1.1625 0.0745693
1.00005 0.5 -0.599447 0.212652
1.00005 0.5 0.599447 0.13447
1.10076 0.5 0.384791 0.173627
1.10076 0.5 -0.384791 0.237426
1.0271 0.5 -0.55234 0.218884
1.0271 0.5 0.55234 0.141942
1.11376 0.5 -0.346559 0.239936
1.11376 0.5 0.346559 0.180678
1.16179 0.5 -0.133821 0.244443
1.16179 0.5 0.133821 0.217972
0.523432 0.5 -1.05 0.150902
0.523432 0.5 1.05 0.0803832
1.17463 0.5 -0.0331343 0.239178
1.17463 0.5 0.0331343 0.232473
1.17463 0.5 -0.0994029 0.24464
1.17463 0.5 0.0994029 0.224538
1.16179 0.5 -0.200731 0.247644
1.16179 0.5 0.200731 0.208658
1.13882 0.5 -0.306265 0.244799
1.13882 0.5 0.306265 0.189604
0.219992 0.5 -1.1625 0.138456
0.219992 0.5 1.1625 0.0737925
0.467897 0.5 -1.0875 0.14712
0.467897 0.5 1.0875 0.0776749
1.17463 0.5 0.165672 0.215536
1.17463 0.5 -0.165672 0.248913
1.05695 0.5 -0.541147 0.224429
1.05695 0.5 0.541147 0.145793
1.18772 0.5 -5.78241e-19 0.238293
1.11376 0.5 -0.41587 0.239069
1.11376 0.5 0.41587 0.169638
1.18772 0.5 -0.065614 0.244461
1.18772 0.5 0.065614 0.230355
1.08112 0.5 -0.49661 0.230534
1.08112 0.5 0.49661 0.154334
1.10076 0.5 -0.454752 0.23579
1.10076 0.5 0.454752 0.162497
1.18534 0.5 0.118202 0.222319
1.16179 0.5 -0.267642 0.249161
1.16179 0.5 0.267642 0.198425
0 0.5 -1.19382 0.137336
0 0.5 1.19382 0.0726294
0.0124865 0.5 1.19382 0.0726294
0.0124865 0.5 -1.19382 0.137336
1.04168 0.5 -0.58333 0.219669
1.04168 0.5 0.58333 0.138291
1.18772 0.5 -0.131228 0.249411
1.17463 0.5 -0.23194 0.251185
1.17463 0.5 0.23194 0.205602
0.411736 0.5 -1.125 0.143916
0.411736 0.5 1.125 0.0752863
1.13882 0.5 -0.374324 0.2447
1.13882 0.5 0.374324 0.178565
0 0.5 -1.2 0.137099
0 0.5 1.2 0.072246
0.905821 0.5 0.7875 0.107891
0.905821 0.5 -0.7875 0.190886
0.872064 0.5 -0.825 0.185187
0.872064 0.5 0.825 0.10306
0.835106 0.5 0.8625 0.0985654
0.835106 0.5 -0.8625 0.179679
0.939201 0.5 -0.75 0.196716
0.939201 0.5 0.75 0.113111
0.797732 0.5 -0.9 0.174367
0.797732 0.5 0.9 0.0943227
1.0271 0.5 0.625985 0.130994
1.0271 0.5 -0.625985 0.214846
0.969689 0.5 0.7125 0.118593
0.96969 0.5 -0.7125 0.202738
1.18772 0.5 -0.196842 0.252763
1.18772 0.5 0.196842 0.212752
0.756814 0.5 -0.9375 0.169223
0.756814 0.5 0.9375 0.0903633
0 0.5 1.20618 0.0718633
0 0.5 -1.20618 0.136865
1.00005 0.5 -0.674378 0.208345
1.00005 0.5 0.674378 0.123899
0.0124865 0.5 1.20618 0.0718633
0.0124865 0.5 -1.20618 0.136865
1.16179 0.5 -0.334552 0.249564
1.16179 0.5 0.334552 0.187485
0.715434 0.5 0.975 0.0867183
0.715434 0.5 -0.975 0.164389
0.151149 0.5 -1.2 0.137048
0.151149 0.5 1.2 0.0718289
1.20942 0.5 0.0322645 0.238936
1.20942 0.5 -0.0322645 0.245972
1.17463 0.5 -0.298209 0.252044
1.17463 0.5 0.298209 0.194872
1.20942 0.5 -0.0967935 0.251653
1.20942 0.5 0.0967935 0.230854
0.350249 0.5 -1.1625 0.140812
0.350249 0.5 1.1625 0.0730726
0.67013 0.5 1.0125 0.083335
0.67013 0.5 -1.0125 0.159703
1.11376 0.5 0.485183 0.158273
1.11376 0.5 -0.485183 0.236834
1.18772 0.5 0.262456 0.202314
1.18772 0.5 -0.262456 0.254384
1.10076 0.5 -0.524714 0.232954
1.10076 0.5 0.524714 0.15114
1.20942 0.5 -0.161322 0.256137
1.20942 0.5 0.161322 0.221596
1.08112 0.5 -0.567554 0.227135
1.08112 0.5 0.567554 0.143097
0.624316 0.5 -1.05 0.155371
0.624316 0.5 1.05 0.0802147
1.13882 0.5 -0.442383 0.243119
1.13882 0.5 0.442383 0.167094
1.05695 0.5 0.6133 0.134708
1.05695 0.5 -0.6133 0.22046
1.16179 0.5 -0.401463 0.248776
1.16179 0.5 0.401463 0.176011
0.574156 0.5 -1.0875 0.151166
0.574156 0.5 1.0875 0.0773319
1.17463 0.5 0.364477 0.183514
1.17463 0.5 -0.364477 0.252047
1.20942 0.5 -0.225851 0.258614
1.20942 0.5 0.225851 0.211391
1.23036 0.5 -1.32995e-17 0.246853
1.2294 0.5 0.0634819 0.237949
1.04168 0.5 -0.656246 0.215187
1.04168 0.5 0.656246 0.127306
1.23036 0.5 -0.0634819 0.253297
1.18772 0.5 0.32807 0.191158
1.18772 0.5 -0.32807 0.254848
0.288069 0.5 -1.2 0.138144
0.288069 0.5 1.2 0.0710126
1.23036 0.5 -0.126964 0.258512
1.23036 0.5 0.126964 0.230277
0.075776 0.5 -1.2375 0.135681
0.075776 0.5 1.2375 0.0699307
0.523432 0.5 -1.125 0.147398
0.523432 0.5 1.125 0.0747089
1.0271 0.5 -0.69963 0.209952
1.0271 0.5 0.69963 0.120048
1.24274 0.5 0.0314313 0.245612
1.24274 0.5 -0.0314313 0.252786
1.20942 0.5 0.29038 0.200373
1.20942 0.5 -0.29038 0.25958
1.11376 0.5 -0.554494 0.233435
1.11376 0.5 0.554494 0.146761
1.23036 0.5 -0.190445 0.262115
1.23036 0.5 0.190445 0.220383
1.24274 0.5 -0.0942942 0.258689
1.24274 0.5 0.0942942 0.237182
1.13882 0.5 0.510442 0.155379
1.13882 0.5 -0.510442 0.24026
0.969689 0.5 -0.7875 0.197708
0.969689 0.5 0.7875 0.108837
1.00005 0.5 -0.749309 0.203307
1.00005 0.5 0.749309 0.113505
0.939201 0.5 -0.825 0.191728
0.939201 0.5 0.825 0.103723
0.90582 0.5 0.8625 0.0989215
0.90582 0.5 -0.8625 0.18595
1.17463 0.5 -0.430746 0.250529
1.17463 0.5 0.430746 0.171705
1.10076 0.5 -0.594676 0.229021
1.10076 0.5 0.594676 0.13973
1.18772 0.5 -0.393684 0.254125
1.18772 0.5 0.393684 0.179455
1.24274 0.5 -0.157157 0.263399
1.24274 0.5 0.157157 0.227663
1.16179 0.5 -0.468373 0.246563
1.16179 0.5 0.468373 0.164188
0.467897 0.5 -1.1625 0.143734
0.467897 0.5 1.1625 0.0722834
0.872064 0.5 -0.9 0.18037
0.872064 0.5 0.9 0.0945828
1.25401 0.5 2.08167e-17 0.251388
0.835106 0.5 0.9375 0.090539
0.835106 0.5 -0.9375 0.174984
1.25401 0.5 -0.0622994 0.257996
1.25401 0.5 0.0622994 0.243171
1.08112 0.5 -0.638498 0.222663
1.08112 0.5 0.638498 0.131907
1.23036 0.5 -0.253927 0.263926
1.23036 0.5 0.253927 0.209597
0.219992 0.5 1.2375 0.0690909
0.219992 0.5 -1.2375 0.135553
1.25309 0.5 0.121964 0.234462
1.05695 0.5 0.685452 0.123757
1.05695 0.5 -0.685452 0.215504
0.797732 0.5 0.975 0.0867192
0.797732 0.5 -0.975 0.169811
1.25401 0.5 -0.124599 0.263369
1.20942 0.5 -0.354909 0.259652
1.20942 0.5 0.354909 0.188709
1.24274 0.5 -0.220019 0.266093
1.24274 0.5 0.220019 0.217185
0.756814 0.5 -1.0125 0.16482
0.756813 0.5 1.0125 0.0831667
1.25401 0.5 -0.186898 0.267135
1.25401 0.5 0.186898 0.224382
0.411736 0.5 -1.2 0.140632
0.411736 0.5 1.2 0.0701392
0 0.5 -1.26882 0.134428
0 0.5 1.26882 0.0680575
0.0124865 0.5 1.26882 0.0680575
0.0124865 0.5 -1.26882 0.134428
0.715434 0.5 -1.05 0.160139
0.715434 0.5 1.05 0.0799137
1.23036 0.5 -0.31741 0.264498
1.23036 0.5 0.31741 0.198068
1.04168 0.5 -0.729162 0.209918
1.04168 0.5 0.729162 0.1165
1.18772 0.5 -0.459298 0.251955
1.18772 0.5 0.459298 0.167391
1.24274 0.5 -0.282882 0.267177
1.24274 0.5 0.282882 0.205876
0 0.5 -1.275 0.134179
0 0.5 1.275 0.0676874
1.27472 0.5 -0.0306319 0.259608
1.27472 0.5 0.0306319 0.252197
1.17463 0.5 0.497015 0.159639
1.17463 0.5 -0.497015 0.247661
1.11376 0.5 -0.623806 0.228939
1.11376 0.5 0.623806 0.135275
1.13882 0.5 -0.578501 0.236277
1.13882 0.5 0.578501 0.143592
0.67013 0.5 -1.0875 0.15561
0.67013 0.5 1.0875 0.0769084
1.27472 0.5 -0.0918959 0.26574
1.27472 0.5 0.0918959 0.242275
1.25401 0.5 -0.249197 0.269077
1.25401 0.5 0.249197 0.213402
1.16179 0.5 -0.535284 0.243125
1.16179 0.5 0.535284 0.1522
1.20942 0.5 -0.419438 0.258239
1.20942 0.5 0.419438 0.176575
0 0.5 -1.28118 0.133933
0 0.5 1.28118 0.0673178
0.0124865 0.5 1.28118 0.0673178
0.0124865 0.5 -1.28118 0.133933
1.27472 0.5 0.15316 0.233756
1.27472 0.5 -0.15316 0.270633
0.151149 0.5 -1.275 0.134101
0.151149 0.5 1.275 0.0672426
1.0271 0.5 0.773275 0.109415
1.0271 0.5 -0.773275 0.204403
1.10076 0.5 0.664638 0.12845
1.10076 0.5 -0.664638 0.22401
0.350249 0.5 -1.2375 0.137634
0.350249 0.5 1.2375 0.0681591
0.624316 0.5 -1.125 0.151426
0.624316 0.5 1.125 0.0741386
1.23036 0.5 0.380892 0.185966
1.23036 0.5 -0.380892 0.263878
1.24274 0.5 -0.345745 0.267328
1.24274 0.5 0.345745 0.1939
1.2906 0.5 0 0.259368
1.2906 0.5 -0.0604698 0.266261
1.2906 0.5 0.0604698 0.251197
1.25401 0.5 -0.311497 0.269725
1.25401 0.5 0.311497 0.201665
1.27472 0.5 -0.214423 0.273574
1.27472 0.5 0.214423 0.223013
1.08112 0.5 0.709442 0.120945
1.08112 0.5 -0.709442 0.217319
1.00005 0.5 -0.824239 0.197705
1.00005 0.5 0.824239 0.103459
1.2906 0.5 -0.12094 0.271909
1.2906 0.5 0.12094 0.241839
0.574156 0.5 -1.1625 0.147375
0.574156 0.5 1.1625 0.071587
0.969689 0.5 -0.8625 0.192178
0.96969 0.5 0.8625 0.0992456
1.18772 0.5 0.524912 0.155154
1.18772 0.5 -0.524912 0.248517
1.05695 0.5 -0.757605 0.209871
1.05695 0.5 0.757605 0.113102
0.939201 0.5 -0.9 0.186308
0.939201 0.5 0.9 0.094636
1.30091 0.5 -0.0299772 0.265408
1.30091 0.5 0.0299772 0.25779
1.20942 0.5 -0.483967 0.255397
1.20942 0.5 0.483967 0.164163
1.17463 0.5 -0.563284 0.243655
1.17463 0.5 0.563284 0.147496
1.2906 0.5 -0.181409 0.275961
1.2906 0.5 0.181409 0.231441
0.90582 0.5 0.9375 0.0903227
0.90582 0.5 -0.9375 0.180665
1.30091 0.5 -0.0899316 0.271741
1.30091 0.5 0.0899316 0.246198
1.27472 0.5 0.275687 0.211423
1.27472 0.5 -0.275687 0.27483
0.288069 0.5 -1.275 0.135034