# pMean  POINT_DATA 63140
# x  y  z  pMean
0 0.1 0 0.163783
0 0.1 -0.0179898 0.164435
0 0.1 0.0179898 0.163133
0.0363518 0.1 0.0179898 0.163133
0.0363518 0.1 -0.0179898 0.164435
0 0.1 -0.0570102 0.165748
0 0.1 0.0570102 0.161603
0.0363518 0.1 0.0570102 0.161603
0.0363518 0.1 -0.0570102 0.165748
0 0.1 -0.075 0.166302
0 0.1 0.075 0.160844
0.075776 0.1 -0.0375 0.165145
0.075776 0.1 0.0375 0.162429
0 0.1 -0.0929898 0.166856
0 0.1 0.0929898 0.160086
0.0363518 0.1 -0.0929898 0.166856
0.0363518 0.1 0.0929898 0.160086
0 0.1 -0.13201 0.16796
0 0.1 0.13201 0.158336
0.075776 0.1 -0.1125 0.167464
0.075776 0.1 0.1125 0.159266
0.0363518 0.1 -0.13201 0.16796
0.0363518 0.1 0.13201 0.158336
0 0.1 -0.15 0.168421
0 0.1 0.15 0.157482
0.150379 0.1 -2.22623e-17 0.158
0 0.1 -0.16799 0.168879
0 0.1 0.16799 0.156629
0.150379 0.1 -0.075 0.160666
0.150379 0.1 0.075 0.154885
0.0363518 0.1 -0.16799 0.168879
0.0363518 0.1 0.16799 0.156629
0.075776 0.1 -0.1875 0.16938
0.075776 0.1 0.1875 0.155705
0 0.1 -0.20701 0.169746
0 0.1 0.20701 0.154674
0.0363518 0.1 -0.20701 0.169746
0.0363518 0.1 0.20701 0.154674
0.150379 0.1 -0.15 0.162901
0.150379 0.1 0.15 0.151338
0.219993 0.1 -0.0375 0.154001
0.219993 0.1 0.0375 0.150959
0 0.1 -0.225 0.170087
0 0.1 0.225 0.153726
0 0.1 -0.24299 0.170424
0 0.1 0.24299 0.152778
0.0363518 0.1 0.24299 0.152778
0.0363518 0.1 -0.24299 0.170424
0.219993 0.1 -0.1125 0.156577
0.219993 0.1 0.1125 0.147439
0.150379 0.1 -0.225 0.164646
0.150379 0.1 0.225 0.147396
0.075776 0.1 -0.2625 0.170795
0.075776 0.1 0.2625 0.151753
0 0.1 -0.28201 0.171072
0 0.1 0.28201 0.150632
0.0363518 0.1 -0.28201 0.171072
0.0363518 0.1 0.28201 0.150632
0.287374 0.1 -2.89121e-19 0.155257
0.219992 0.1 0.1875 0.143511
0.219992 0.1 -0.1875 0.158693
0.287374 0.1 -0.075 0.158104
0.287374 0.1 0.075 0.151929
0 0.1 -0.3 0.17133
0 0.1 0.3 0.149602
0 0.1 0.31799 0.148572
0 0.1 -0.31799 0.171585
0.0363518 0.1 -0.31799 0.171585
0.0363518 0.1 0.31799 0.148572
0.287374 0.1 0.15 0.148158
0.287374 0.1 -0.15 0.160454
0.150379 0.1 -0.3 0.16589
0.150379 0.1 0.3 0.143092
0.219993 0.1 0.2625 0.1392
0.219993 0.1 -0.2625 0.160219
0.075776 0.1 -0.3375 0.171866
0.075776 0.1 0.3375 0.147456
0.350249 0.1 -0.0375 0.159489
0.350249 0.1 0.0375 0.156338
0 0.1 -0.35701 0.17204
0 0.1 0.35701 0.146258
0.0363518 0.1 -0.35701 0.17204
0.0363518 0.1 0.35701 0.146258
0.287374 0.1 -0.225 0.162272
0.287374 0.1 0.225 0.143969
0.350249 0.1 -0.1125 0.162106
0.350249 0.1 0.1125 0.152745
0 0.1 -0.375 0.172203
0 0.1 0.375 0.145155
0 0.1 -0.39299 0.172366
0 0.1 0.39299 0.144053
0.0363518 0.1 -0.39299 0.172366
0.0363518 0.1 0.39299 0.144053
0.350249 0.1 -0.1875 0.164197
0.350249 0.1 0.1875 0.148705
0.219992 0.1 -0.3375 0.161184
0.219992 0.1 0.3375 0.134559
0.150379 0.1 0.375 0.138468
0.150379 0.1 -0.375 0.166677
0.411108 0.1 4.33681e-19 0.161632
0.287374 0.1 -0.3 0.163538
0.287374 0.1 0.3 0.139409
0.411108 0.1 -0.075 0.164645
0.411108 0.1 0.075 0.158075
0.075776 0.1 -0.4125 0.172546
0.075776 0.1 0.4125 0.142859
0 0.1 0.43201 0.141592
0 0.1 -0.43201 0.172626
0.0363518 0.1 0.43201 0.141592
0.0363518 0.1 -0.43201 0.172626
0.411108 0.1 -0.15 0.16708
0.411108 0.1 0.15 0.154013
0.350249 0.1 -0.2625 0.165735
0.350249 0.1 0.2625 0.144236
0 0.1 -0.45 0.172704
0 0.1 0.45 0.140425
0.219992 0.1 0.4125 0.129614
0.219992 0.1 -0.4125 0.161624
0 0.1 -0.46799 0.172784
0 0.1 0.46799 0.139259
0.411108 0.1 -0.225 0.168919
0.411108 0.1 0.225 0.149485
0.467897 0.1 -0.0375 0.166918
0.467897 0.1 0.0375 0.163481
0.0363518 0.1 0.46799 0.139259
0.0363518 0.1 -0.46799 0.172784
0.287374 0.1 -0.375 0.164273
0.287374 0.1 0.375 0.134527
0.150379 0.1 0.45 0.13358
0.150379 0.1 -0.45 0.167004
0.467897 0.1 0.1125 0.159447
0.467897 0.1 -0.1125 0.169752
0.350249 0.1 -0.3375 0.166768
0.350249 0.1 0.3375 0.139421
0.075776 0.1 -0.4875 0.17287
0.075776 0.1 0.4875 0.137997
0.467897 0.1 0.1875 0.154885
0.467897 0.1 -0.1875 0.171944
0 0.1 -0.50701 0.172826
0 0.1 0.50701 0.136669
0.0363518 0.1 -0.50701 0.172826
0.0363518 0.1 0.50701 0.136669
0.411108 0.1 0.3 0.144542
0.411108 0.1 -0.3 0.170172
0.522865 0.1 1.41031e-17 0.169496
0 0.1 -0.525 0.17279
0 0.1 0.525 0.135448
0.522865 0.1 -0.075 0.172754
0.522865 0.1 0.075 0.1656
0.287374 0.1 0.45 0.129374
0.287374 0.1 -0.45 0.164459
0.219992 0.1 0.4875 0.124479
0.219992 0.1 -0.4875 0.161505
0.467897 0.1 -0.2625 0.173478
0.467897 0.1 0.2625 0.149866
0.350249 0.1 -0.4125 0.167269
0.350249 0.1 0.4125 0.134301
0 0.1 -0.54299 0.172756
0 0.1 0.54299 0.134227
0.522865 0.1 0.15 0.161108
0.522865 0.1 -0.15 0.175345
0.0363518 0.1 0.54299 0.134227
0.0363518 0.1 -0.54299 0.172756
0.150379 0.1 -0.525 0.166857
0.150379 0.1 0.525 0.12849
0.411108 0.1 -0.375 0.170846
0.411108 0.1 0.375 0.139246
0.075776 0.1 -0.5625 0.172718
0.075776 0.1 0.5625 0.132904
0.522865 0.1 -0.225 0.177243
0.522865 0.1 0.225 0.156077
0.574156 0.1 0.0375 0.171766
0.574157 0.1 -0.0375 0.17549
0.467897 0.1 -0.3375 0.174388
0.467897 0.1 0.3375 0.144425
0 0.1 -0.58201 0.172542
0 0.1 0.58201 0.131534
0.0363518 0.1 -0.58201 0.172542
0.0363518 0.1 0.58201 0.131534
0.574157 0.1 -0.1125 0.178518
0.574157 0.1 0.1125 0.167391
0.287374 0.1 -0.525 0.164112
0.287374 0.1 0.525 0.124012
0 0.1 -0.6 0.172383
0 0.1 0.6 0.130272
0.350249 0.1 0.4875 0.128898
0.350249 0.1 -0.4875 0.167186
0.522865 0.1 -0.3 0.178455
0.522865 0.1 0.3 0.150571
0.219992 0.1 -0.5625 0.160882
0.219992 0.1 0.5625 0.119221
0.574156 0.1 -0.1875 0.180821
0.574156 0.1 0.1875 0.162407
0.411108 0.1 0.45 0.133647
0.411108 0.1 -0.45 0.170916
0 0.1 -0.61799 0.172227
0 0.1 0.61799 0.129011
0.150379 0.1 -0.6 0.166229
0.150379 0.1 0.6 0.123254
0.0363518 0.1 -0.61799 0.172227
0.0363518 0.1 0.61799 0.129011
0.467897 0.1 -0.4125 0.174646
0.467897 0.1 0.4125 0.138644
0.623803 0.1 2.34188e-17 0.178569
0.623803 0.1 0.075 0.174315
0.623803 0.1 -0.075 0.182096
0.574156 0.1 0.2625 0.156868
0.574156 0.1 -0.2625 0.18238
0.623803 0.1 0.15 0.169385
0.623803 0.1 -0.15 0.184856
0.075776 0.1 0.6375 0.127646
0.075776 0.1 -0.6375 0.172056
0.522865 0.1 -0.375 0.178986
0.522865 0.1 0.375 0.14466
0 0.1 0.65701 0.126247
0 0.1 -0.65701 0.171766
0.0363518 0.1 0.65701 0.126247
0.0363518 0.1 -0.65701 0.171766
0.350249 0.1 0.5625 0.123261
0.350249 0.1 -0.5625 0.166623
0.623803 0.1 0.225 0.163834
0.623803 0.1 -0.225 0.186825
0.287374 0.1 -0.6 0.163292
0.287374 0.1 0.6 0.118503
0.574157 0.1 -0.3375 0.183226
0.574157 0.1 0.3375 0.150864
0.411108 0.1 0.525 0.127791
0.411108 0.1 -0.525 0.17042
0.67013 0.1 0.0375 0.181297
0.67013 0.1 -0.0375 0.185371
0.219992 0.1 -0.6375 0.159828
0.219993 0.1 0.6375 0.11389
0 0.1 -0.675 0.171501
0 0.1 0.675 0.124959
0.467897 0.1 -0.4875 0.174261
0.467897 0.1 0.4875 0.132577
0.67013 0.1 -0.1125 0.18864
0.67013 0.1 0.1125 0.176471
0.522865 0.1 0.45 0.138415
0.522865 0.1 -0.45 0.178833
0.150379 0.1 0.675 0.117909
0.150379 0.1 -0.675 0.165164
0.623803 0.1 0.3 0.157737
0.623803 0.1 -0.3 0.188009
0 0.1 -0.69299 0.171237
0 0.1 0.69299 0.123672
0.0363518 0.1 -0.69299 0.171237
0.0363518 0.1 0.69299 0.123672
0.67013 0.1 -0.1875 0.191075
0.67013 0.1 0.1875 0.170952
0.574156 0.1 0.4125 0.14447
0.574157 0.1 -0.4125 0.183344
0.714971 0.1 -2.8382e-17 0.188612
0.075776 0.1 -0.7125 0.170952
0.075776 0.1 0.7125 0.122278
0.714971 0.1 -0.075 0.192445
0.714971 0.1 0.075 0.18394
0.67013 0.1 0.2625 0.16481
0.67013 0.1 -0.2625 0.192652
0.411108 0.1 -0.6 0.169411
0.411108 0.1 0.6 0.121744
0.350249 0.1 0.6375 0.117468
0.350249 0.1 -0.6375 0.16558
0.623803 0.1 0.375 0.15118
0.623803 0.1 -0.375 0.188419
0.714971 0.1 -0.15 0.195395
0.714971 0.1 0.15 0.178492
0.467897 0.1 -0.5625 0.173321
0.467897 0.1 0.5625 0.126288
0 0.1 -0.73201 0.170557
0 0.1 0.73201 0.120865
0.0363518 0.1 0.73201 0.120865
0.0363518 0.1 -0.73201 0.170557
0.287374 0.1 -0.675 0.162037
0.287374 0.1 0.675 0.112892
0.522865 0.1 -0.525 0.178043
0.522865 0.1 0.525 0.131903
0.219993 0.1 -0.7125 0.158404
0.219992 0.1 0.7125 0.108471
0.714971 0.1 -0.225 0.197433
0.714971 0.1 0.225 0.172339
0 0.1 0.75 0.119565
0 0.1 -0.75 0.170195
0.67013 0.1 -0.3375 0.193406
0.67013 0.1 0.3375 0.15813
0.574156 0.1 -0.4875 0.182748
0.574157 0.1 0.4875 0.137755
0.756813 0.1 0.0375 0.191491
0.756814 0.1 -0.0375 0.195944
0.150379 0.1 0.746002 0.112866
0.150379 0.1 -0.75 0.16371
0.756813 0.1 -0.1125 0.199469
0.756813 0.1 0.1125 0.186172
0 0.1 0.76799 0.118265
0 0.1 -0.76799 0.169835
0.0363518 0.1 0.76799 0.118265
0.0363518 0.1 -0.76799 0.169835
0.623803 0.1 -0.45 0.188061
0.623803 0.1 0.45 0.144246
0.714971 0.1 -0.3 0.19857
0.714971 0.1 0.3 0.165564
0.756814 0.1 -0.1875 0.202031
0.756814 0.1 0.1875 0.18006
0.67013 0.1 -0.4125 0.193335
0.67013 0.1 0.4125 0.151005
0.411108 0.1 0.675 0.115577
0.411108 0.1 -0.675 0.167915
0.467897 0.1 0.6375 0.119846
0.467897 0.1 -0.6375 0.171848
0.075776 0.1 0.7875 0.116857
0.075776 0.1 -0.7875 0.169445
0.350249 0.1 -0.7125 0.164083
0.350249 0.1 0.7125 0.111591
0.522865 0.1 -0.6 0.176669
0.522865 0.1 0.6 0.125198
0.797314 0.1 -3.59473e-17 0.199224
0.287374 0.1 0.746002 0.107456
0.797314 0.1 -0.075 0.203399
0.797314 0.1 0.075 0.194089
0.756814 0.1 -0.2625 0.203609
0.756814 0.1 0.2625 0.17324
0.287374 0.1 -0.75 0.160386
0.574156 0.1 -0.5625 0.181516
0.574156 0.1 0.5625 0.130803
0 0.1 0.80701 0.11544
0 0.1 -0.80701 0.168957
0.714971 0.1 -0.375 0.198824
0.714971 0.1 0.375 0.158266
0.0363518 0.1 0.80701 0.11544
0.0363518 0.1 -0.80701 0.168957
0.797314 0.1 -0.15 0.206561
0.797314 0.1 0.15 0.188069
0.623803 0.1 -0.525 0.18698
0.623803 0.1 0.525 0.137023
0.219992 0.1 0.7875 0.102995
0.219992 0.1 -0.7875 0.156637
0.149792 0.1 0.80701 0.108359
0 0.1 0.825 0.114137
0 0.1 -0.825 0.168508
0.797314 0.1 -0.225 0.208679
0.797314 0.1 0.225 0.181251
0.756813 0.1 -0.3375 0.204249
0.756813 0.1 0.3375 0.165807
0.67013 0.1 0.4875 0.143532
0.67013 0.1 -0.4875 0.192458
0.835106 0.1 -0.0375 0.207008
0.835106 0.1 0.0375 0.202124
0.150379 0.1 -0.825 0.161901
0.835106 0.1 -0.1125 0.210838
0.835106 0.1 0.1125 0.196256
0 0.1 -0.84299 0.168061
0 0.1 0.84299 0.112833
0.0363518 0.1 -0.84299 0.168061
0.0363518 0.1 0.84299 0.112833
0.714971 0.1 -0.45 0.198206
0.714971 0.1 0.45 0.150549
0.411108 0.1 0.746002 0.109632
0.797314 0.1 -0.3 0.20977
0.797314 0.1 0.3 0.173733
0.467897 0.1 -0.7125 0.169898
0.467897 0.1 0.7125 0.113318
0.522865 0.1 0.675 0.118373
0.522865 0.1 -0.675 0.174756
0.411108 0.1 -0.75 0.165974
0.835106 0.1 -0.1875 0.213561
0.835107 0.1 0.1875 0.189493
0.286844 0.1 0.80701 0.102887
0.574156 0.1 0.6375 0.123691
0.574157 0.1 -0.6375 0.179678
0.350249 0.1 -0.7875 0.162173
0.350249 0.1 0.7875 0.105686
0.756813 0.1 -0.4125 0.203948
0.756814 0.1 0.4125 0.157879
0.623803 0.1 -0.6 0.185238
0.623803 0.1 0.6 0.1296
0.075776 0.1 0.8625 0.111422
0.075776 0.1 -0.8625 0.167578
0.871687 0.1 -3.2767e-18 0.210095
0.287374 0.1 -0.825 0.158373
0.871687 0.1 -0.075 0.214633
0.871687 0.1 0.075 0.204469
0.67013 0.1 -0.5625 0.190855
0.67013 0.1 0.5625 0.135808
0.835106 0.1 0.2625 0.181935
0.835106 0.1 -0.2625 0.215163
0.797314 0.1 -0.375 0.20986
0.797314 0.1 0.375 0.16563
0 0.1 -0.88201 0.167004
0 0.1 0.88201 0.110011
0.0363518 0.1 0.88201 0.110011
0.0363518 0.1 -0.88201 0.167004
0.871687 0.1 0.15 0.19784
0.871687 0.1 -0.15 0.218014
0.714971 0.1 0.525 0.142518
0.714971 0.1 -0.525 0.19677
0.219993 0.1 0.8625 0.097516
0.219992 0.1 -0.8625 0.154553
0 0.1 0.9 0.108713
0 0.1 -0.9 0.166478
0.756813 0.1 0.4875 0.149566
0.756814 0.1 -0.4875 0.202736
0.871687 0.1 0.225 0.190311
0.871687 0.1 -0.225 0.220197
0.835106 0.1 -0.3375 0.215709
0.835106 0.1 0.3375 0.173698
0.41063 0.1 0.80701 0.10462
0.90582 0.1 -0.0375 0.218131
0.905821 0.1 0.0375 0.21282
0.522865 0.1 0.746002 0.111795
0.150379 0.1 0.9 0.101593
0.90582 0.1 0.1125 0.206393
0.905821 0.1 -0.1125 0.222249
0.522865 0.1 -0.75 0.17236
0.574156 0.1 0.7125 0.116502
0.574156 0.1 -0.7125 0.177303
0.797314 0.1 -0.45 0.208963
0.797314 0.1 0.45 0.157068
0.467897 0.1 -0.7875 0.167508
0.467897 0.1 0.7875 0.106766
0.150379 0.1 -0.903998 0.159856
0 0.1 0.91799 0.107416
0 0.1 -0.91799 0.165953
0.0363518 0.1 0.91799 0.107416
0.0363518 0.1 -0.91799 0.165953
0.623803 0.1 0.675 0.122064
0.623803 0.1 -0.675 0.182891
0.411108 0.1 -0.825 0.163628
0.871687 0.1 0.3 0.181999
0.871687 0.1 -0.3 0.221226
0.67013 0.1 -0.6375 0.188574
0.67013 0.1 0.6375 0.127931
0.90582 0.1 -0.1875 0.225098
0.90582 0.1 0.1875 0.198952
0.350249 0.1 0.8625 0.0997972
0.350249 0.1 -0.8625 0.159887
0.835106 0.1 -0.4125 0.215189
0.835106 0.1 0.4125 0.164911
0.714971 0.1 -0.6 0.194585
0.714971 0.1 0.6 0.134279
0.93886 0.1 -1.15648e-17 0.220947
0.075776 0.1 0.9375 0.10601
0.075776 0.1 -0.9375 0.165384
0.93886 0.1 0.075 0.214782
0.93886 0.1 -0.075 0.225899
0.756813 0.1 0.5625 0.140979
0.756814 0.1 -0.5625 0.200695
0.905821 0.1 -0.2625 0.226654
0.905821 0.1 0.2625 0.190616
0.287374 0.1 0.9 0.0958629
0.287374 0.1 -0.903998 0.156337
0.871687 0.1 0.375 0.173038
0.871687 0.1 -0.375 0.221136
0.93886 0.1 -0.15 0.229549
0.93886 0.1 0.15 0.2075
0.797314 0.1 0.525 0.148169
0.797314 0.1 -0.525 0.207138
0 0.1 0.95701 0.10462
0 0.1 -0.95701 0.164735
0.0363518 0.1 0.95701 0.10462
0.0363518 0.1 -0.95701 0.164735
0.522433 0.1 0.80701 0.106284
0.219992 0.1 0.9375 0.0920788
0.219992 0.1 -0.9375 0.152207
0.93886 0.1 0.225 0.199225
0.93886 0.1 -0.225 0.231826
0.90582 0.1 0.3375 0.181525
0.905821 0.1 -0.3375 0.227065
0.835106 0.1 -0.4875 0.213643
0.835107 0.1 0.4875 0.155719
0.969689 0.1 -0.0375 0.229207
0.969689 0.1 0.0375 0.223368
0.61613 0.1 0.75 0.114498
0.574156 0.1 -0.7875 0.174451
0.574156 0.1 0.7875 0.109311
0 0.1 0.975 0.10334
0 0.1 -0.975 0.164139
0.623803 0.1 -0.75 0.180009
0.969689 0.1 -0.1125 0.233735
0.969689 0.1 0.1125 0.216299
0.522865 0.1 -0.825 0.169534
0.67013 0.1 0.7125 0.119992
0.67013 0.1 -0.7125 0.185697
0.871687 0.1 -0.45 0.21993
0.871687 0.1 0.45 0.163573
0.467897 0.1 0.8625 0.100253
0.467897 0.1 -0.8625 0.164732
0.714971 0.1 -0.675 0.191726
0.714971 0.1 0.675 0.12594
0.93886 0.1 -0.3 0.232812
0.93886 0.1 0.3 0.190093
0.150379 0.1 0.975 0.0962062
0.150379 0.1 -0.975 0.157369
0.969689 0.1 -0.1875 0.236836
0.969689 0.1 0.1875 0.208128
0.411108 0.1 0.9 0.0969666
0.756813 0.1 0.6375 0.132243
0.756814 0.1 -0.6375 0.197897
0.990306 0.1 -2.19732e-17 0.229286
0 0.1 0.99299 0.10206
0 0.1 -0.99299 0.163544
0.411108 0.1 -0.903998 0.161254
0.990306 0.1 -0.075 0.234595
0.990306 0.1 0.075 0.222659
0.0363518 0.1 0.99299 0.10206
0.0363518 0.1 -0.99299 0.163544
0.90582 0.1 -0.4125 0.226275
0.905821 0.1 0.4125 0.171817
0.797314 0.1 -0.6 0.204466
0.797314 0.1 0.6 0.13906
0.350249 0.1 0.9375 0.0939661
0.350249 0.1 -0.9375 0.157276
0.990306 0.1 0.15 0.214819
0.990306 0.1 -0.15 0.238479
0.969689 0.1 -0.2625 0.238431
0.969689 0.1 0.2625 0.198992
0.835106 0.1 -0.5625 0.211154
0.835106 0.1 0.5625 0.146241
0.93886 0.1 -0.375 0.232576
0.93886 0.1 0.375 0.180255
0.075776 0.1 1.0125 0.100675
0.075776 0.1 -1.0125 0.1629
0.990306 0.1 -0.225 0.240814
0.990306 0.1 0.225 0.205905
0.287374 0.1 0.975 0.0902678
0.287374 0.1 -0.975 0.153423
0.871687 0.1 -0.525 0.217672
0.871687 0.1 0.525 0.153751
1.02149 0.1 -0.0369628 0.23856
1.02149 0.1 0.0369628 0.232349
0.969689 0.1 -0.3375 0.238811
0.969689 0.1 0.3375 0.189048
1.02149 0.1 -0.110888 0.243358
1.02149 0.1 0.110888 0.224794
0.90582 0.1 0.4875 0.161671
0.90582 0.1 -0.4875 0.224316
0.623803 0.1 0.819003 0.108243
0 0.1 1.03201 0.0993111
0 0.1 -1.03201 0.162187
0.0363518 0.1 1.03201 0.0993111
0.0363518 0.1 -1.03201 0.162187
0.67013 0.1 -0.7875 0.182293
0.67013 0.1 0.7875 0.112075
0.623803 0.1 -0.825 0.176662
0.990306 0.1 -0.3 0.241758
0.990306 0.1 0.3 0.196069
0.219992 0.1 -1.0125 0.149607
0.219993 0.1 1.0125 0.0867173
0.574156 0.1 0.8625 0.102187
0.574157 0.1 -0.8625 0.171184
0.714971 0.1 -0.75 0.188279
0.714971 0.1 0.75 0.117594
1.02149 0.1 0.184814 0.216035
1.02149 0.1 -0.184814 0.246576
0.756814 0.1 -0.7125 0.194436
0.756814 0.1 0.7125 0.123464
0.522865 0.1 0.9 0.0978854
0.93886 0.1 -0.45 0.231086
0.93886 0.1 0.45 0.169878
1.04168 0.1 0 0.239324
1.04168 0.1 -0.0729162 0.244938
1.04168 0.1 0.0729162 0.232342
0.522865 0.1 -0.903998 0.16673
0.797314 0.1 -0.675 0.20104
0.797314 0.1 0.675 0.129871
0.467897 0.1 0.9375 0.0938432
0.467897 0.1 -0.9375 0.161618
0 0.1 1.05 0.0980562
0 0.1 -1.05 0.161532
0.835106 0.1 -0.6375 0.207809
0.835106 0.1 0.6375 0.136634
1.04168 0.1 -0.145832 0.249076
1.04168 0.1 0.145832 0.224092
1.02149 0.1 -0.25874 0.248063
1.02149 0.1 0.25874 0.206224
0.969689 0.1 -0.4125 0.23787
0.969689 0.1 0.4125 0.178462
0.411108 0.1 0.975 0.0909003
0.411108 0.1 -0.975 0.157916
0.871687 0.1 -0.6 0.214458
0.871687 0.1 0.6 0.143712
1.0579 0.1 -0.0360525 0.245618
1.0579 0.1 0.0360525 0.239251
0.990306 0.1 -0.375 0.241416
0.990306 0.1 0.375 0.185481
0.150379 0.1 1.05 0.0909079
0.150379 0.1 -1.05 0.154708
1.0579 0.1 0.108157 0.231558
1.0579 0.1 -0.108157 0.250601
1.04168 0.1 -0.218749 0.251521
1.04168 0.1 0.218749 0.214721
0.90582 0.1 -0.5625 0.221292
0.90582 0.1 0.5625 0.151225
0 0.1 -1.06799 0.160878
0 0.1 1.06799 0.0968011
0.0363518 0.1 -1.06799 0.160878
0.0363518 0.1 1.06799 0.0968011
0.350249 0.1 1.0125 0.0882322
0.350249 0.1 -1.0125 0.154383
1.0579 0.1 -0.180262 0.254046
1.0579 0.1 0.180262 0.222681
1.02149 0.1 -0.332665 0.248382
1.02149 0.1 0.332665 0.195527
0.93886 0.1 -0.525 0.228402
0.93886 0.1 0.525 0.159128
1.08012 0.1 5.49329e-18 0.246709
1.04168 0.1 -0.291665 0.252475
1.04168 0.1 0.291665 0.204386
1.08012 0.1 0.0709941 0.23954
1.08012 0.1 -0.0709941 0.252523
0.969689 0.1 -0.4875 0.235605
0.96969 0.1 0.4875 0.167413
1.0579 0.1 0.252367 0.212768
1.0579 0.1 -0.252367 0.255672
0.990306 0.1 -0.45 0.23968
0.990306 0.1 0.45 0.174321
0.287374 0.1 -1.05 0.150558
0.287374 0.1 1.05 0.0847737
0.714971 0.1 0.821002 0.10992
1.08012 0.1 -0.141988 0.256894
1.08012 0.1 0.141988 0.231114
0.075776 0.1 1.0875 0.0954425
0.075776 0.1 -1.0875 0.16017
0.714971 0.1 -0.825 0.18433
0.756813 0.1 -0.7875 0.190409
0.756814 0.1 0.7875 0.114742
0.67013 0.1 -0.8625 0.178446
0.67013 0.1 0.8625 0.104259
0.797314 0.1 -0.75 0.196971
0.797314 0.1 0.75 0.120714
0.623803 0.1 0.9 0.0995809
0.835106 0.1 -0.7125 0.203729
0.835106 0.1 0.7125 0.127023
0.623803 0.1 -0.903998 0.173377
0.574156 0.1 0.9375 0.0951947
0.574156 0.1 -0.9375 0.167561
1.02149 0.1 -0.406591 0.247272
1.02149 0.1 0.406591 0.184131
1.08012 0.1 -0.212982 0.259543
1.08012 0.1 0.212982 0.221579
1.10076 0.1 -0.0349809 0.254129
1.10076 0.1 0.0349809 0.24749
0.871687 0.1 -0.675 0.210409
0.871687 0.1 0.675 0.133608
1.04168 0.1 -0.364581 0.252161
1.04168 0.1 0.364581 0.193261
1.10076 0.1 -0.104943 0.259383
1.10076 0.1 0.104943 0.239514
0.522865 0.1 0.975 0.09126
0.522865 0.1 -0.975 0.162817
1.0579 0.1 -0.324472 0.256073
1.0579 0.1 0.324472 0.201978
0 0.1 -1.10701 0.159401
0 0.1 1.10701 0.0941154
0.0363518 0.1 1.10701 0.0941154
0.0363518 0.1 -1.10701 0.159401
0.90582 0.1 0.6375 0.140627
0.905821 0.1 -0.6375 0.21731
0.219992 0.1 1.0875 0.0814547
0.219992 0.1 -1.0875 0.146782
0.93886 0.1 0.6 0.14817
0.93886 0.1 -0.6 0.224639
1.10076 0.1 -0.174905 0.263153
1.10076 0.1 0.174905 0.230354
0.467897 0.1 1.0125 0.087576
0.467897 0.1 -1.0125 0.158217
1.08012 0.1 -0.283976 0.26062
1.08012 0.1 0.283976 0.211087
1.11928 0.1 3.93204e-18 0.254273
0.990306 0.1 -0.525 0.236618
0.990306 0.1 0.525 0.16278
0.96969 0.1 -0.5625 0.23213
0.969689 0.1 0.5625 0.156078
1.11928 0.1 -0.0690357 0.260336
1.11928 0.1 0.0690357 0.246842
0 0.1 1.125 0.0928942
0 0.1 -1.125 0.158694
0.411108 0.1 -1.05 0.154646
0.411108 0.1 1.05 0.0849743
1.10076 0.1 0.244866 0.220158
1.10076 0.1 -0.244866 0.264933
1.11928 0.1 -0.138072 0.264968
1.11928 0.1 0.138072 0.238148
1.02149 0.1 0.480517 0.172231
1.02149 0.1 -0.480517 0.244639
1.0579 0.1 -0.396577 0.255128
1.0579 0.1 0.396577 0.190495
1.04168 0.1 -0.437497 0.25037
1.04168 0.1 0.437497 0.181533
0.150379 0.1 1.125 0.085728
0.150379 0.1 -1.125 0.151828
0.714971 0.1 0.88201 0.103595
1.08012 0.1 0.354971 0.199808
1.08012 0.1 -0.354971 0.260427
1.11928 0.1 -0.207107 0.26785
1.11928 0.1 0.207107 0.228342
0.350249 0.1 -1.0875 0.151255
0.350249 0.1 1.0875 0.0826295
0 0.1 1.14299 0.0916728
0 0.1 -1.14299 0.157988
0.0363518 0.1 1.14299 0.0916728
0.0363518 0.1 -1.14299 0.157988
1.14316 0.1 -0.0339211 0.262639
1.14316 0.1 0.0339211 0.25572
0.797314 0.1 0.821002 0.112074
1.10076 0.1 -0.314829 0.26545
1.10076 0.1 0.314829 0.20908
0.797314 0.1 -0.825 0.192365
0.756814 0.1 -0.8625 0.185913
0.756814 0.1 0.8625 0.106159
1.14316 0.1 -0.101763 0.268154
1.14316 0.1 0.101763 0.247462
0.835106 0.1 -0.7875 0.199038
0.835106 0.1 0.7875 0.117533
0.871687 0.1 -0.75 0.205666
0.871687 0.1 0.75 0.123568
0.67013 0.1 0.9375 0.0966205
0.67013 0.1 -0.9375 0.174235
0.90582 0.1 -0.7125 0.21254
0.905821 0.1 0.7125 0.130052
0.714971 0.1 -0.903998 0.18049
1.11928 0.1 0.276143 0.217574
1.11928 0.1 -0.276143 0.269066
1.14316 0.1 0.169605 0.238016
1.14316 0.1 -0.169605 0.272177
0.93886 0.1 -0.675 0.219944
0.93886 0.1 0.675 0.137187
1.15704 0.1 0 0.261767
1.0579 0.1 0.468682 0.178505
1.0579 0.1 -0.468682 0.252644
0.623803 0.1 0.975 0.0923627
0.623803 0.1 -0.975 0.168851
0.990306 0.1 0.6 0.151043
0.990306 0.1 -0.6 0.232366
1.15704 0.1 -0.0671479 0.268099
1.15704 0.1 0.0671479 0.254058
1.04168 0.1 -0.510414 0.247145
1.04168 0.1 0.510414 0.169402
0.969689 0.1 -0.6375 0.227568
0.969689 0.1 0.6375 0.144645
1.08012 0.1 0.425965 0.187925
1.08012 0.1 -0.425965 0.25878
0.287374 0.1 -1.125 0.147482
0.287374 0.1 1.125 0.0794083
1.02149 0.1 -0.554443 0.240692
1.02149 0.1 0.554443 0.160036
0.574156 0.1 1.0125 0.0883848
0.574156 0.1 -1.0125 0.163651
1.15704 0.1 -0.134296 0.273012
1.15704 0.1 0.134296 0.245086
0.075776 0.1 1.1625 0.0903506
0.075776 0.1 -1.1625 0.157224
1.10076 0.1 -0.384791 0.264669
1.10076 0.1 0.384791 0.197302
1.14316 0.1 -0.237448 0.274226
1.14316 0.1 0.237448 0.22753
1.11928 0.1 -0.345179 0.26899
1.11928 0.1 0.345179 0.206013
0.522865 0.1 1.05 0.0848232
0.522865 0.1 -1.05 0.159041
1.15704 0.1 -0.201444 0.276172
1.15704 0.1 0.201444 0.235005
1.1744 0.1 -0.0331401 0.268752
1.1744 0.1 0.0331401 0.261588
1.1744 0.1 -0.0994202 0.274498
1.1744 0.1 0.0994202 0.253086
0 0.1 1.18201 0.089068
0 0.1 -1.18201 0.156409
0.0363518 0.1 1.18201 0.089068
0.0363518 0.1 -1.18201 0.156409
0.219992 0.1 1.1625 0.0763233
0.219993 0.1 -1.1625 0.143769
1.14316 0.1 0.30529 0.21616
1.14316 0.1 -0.30529 0.274861
0.467897 0.1 1.0875 0.0814968
0.467897 0.1 -1.0875 0.154578
1.1744 0.1 -0.1657 0.278828
1.1744 0.1 0.1657 0.243404
1.15704 0.1 -0.268592 0.277571
1.15704 0.1 0.268592 0.223963
1.0579 0.1 0.540787 0.166208
1.0579 0.1 -0.540787 0.248841
0.796996 0.1 0.88201 0.104937
1.08012 0.1 -0.496959 0.255674
1.08012 0.1 0.496959 0.175629
1.10076 0.1 0.454752 0.185006
1.10076 0.1 -0.454752 0.262277
1.11928 0.1 -0.414214 0.267455
1.11928 0.1 0.414214 0.19384
1.04168 0.1 -0.58333 0.24265
1.04168 0.1 0.58333 0.157062
1.1744 0.1 -0.231981 0.281089
1.1744 0.1 0.231981 0.23269
0.871687 0.1 0.821002 0.114136
0.411108 0.1 1.125 0.079221
0.411108 0.1 -1.125 0.151161
1.19808 0.1 1.73472e-17 0.270022
0.990306 0.1 0.675 0.139304
0.990306 0.1 -0.675 0.227105
1.02149 0.1 0.628368 0.147724
1.02149 0.1 -0.628368 0.235561
1.19808 0.1 -0.0650961 0.276676
1.19808 0.1 0.0650961 0.261988
0 0.1 1.2 0.087888
0 0.1 -1.2 0.155661
0.871687 0.1 -0.825 0.200355
0.905821 0.1 -0.7875 0.207126
0.90582 0.1 0.7875 0.119598
0.835106 0.1 -0.8625 0.193848
0.835106 0.1 0.8625 0.108216
0.93886 0.1 -0.75 0.214496
0.93886 0.1 0.75 0.126345
1.14316 0.1 -0.373132 0.274205
1.14316 0.1 0.373132 0.204081
0.969689 0.1 0.7125 0.133336
0.969689 0.1 -0.7125 0.222118
1.15704 0.1 -0.33574 0.277645
1.15704 0.1 0.33574 0.212126
0.756813 0.1 0.9375 0.0978161
0.756814 0.1 -0.9375 0.181049
1.19808 0.1 0.130192 0.252701
1.19808 0.1 -0.130192 0.281926
0.797314 0.1 -0.903998 0.18792
0.714971 0.1 0.975 0.0933608
0.714971 0.1 -0.975 0.17528
0.150379 0.1 1.2 0.0806942
0.150379 0.1 -1.2 0.148763
1.20938 0.1 -0.0322656 0.275799
1.20938 0.1 0.0322656 0.268348
1.1744 0.1 -0.298261 0.28184
1.1744 0.1 0.298261 0.221094
1.20938 0.1 -0.0967968 0.281822
1.20938 0.1 0.0967968 0.259566
1.19808 0.1 -0.195288 0.285452
1.19808 0.1 0.195288 0.242314
0.350249 0.1 1.1625 0.0771791
0.350249 0.1 -1.1625 0.147931
0.67013 0.1 1.0125 0.0892109
0.67013 0.1 -1.0125 0.169725
0 0.1 1.21799 0.0867077
0 0.1 -1.21799 0.154912
0.0363518 0.1 -1.21799 0.154912
0.0363518 0.1 1.21799 0.0867077
1.11928 0.1 -0.48325 0.264407
1.11928 0.1 0.48325 0.181244
1.10076 0.1 -0.524714 0.258523
1.10076 0.1 0.524714 0.172392
1.20938 0.1 0.161328 0.249614
1.20938 0.1 -0.161328 0.286469
1.08012 0.1 0.567953 0.163111
1.08012 0.1 -0.567953 0.251262
0.623803 0.1 1.05 0.0853829
0.623803 0.1 -1.05 0.164525
1.0579 0.1 -0.612892 0.243803
1.0579 0.1 0.612892 0.153786
1.15704 0.1 -0.402888 0.276269
1.15704 0.1 0.402888 0.199674
1.14316 0.1 0.440974 0.191477
1.14316 0.1 -0.440974 0.271929
1.19808 0.1 -0.260384 0.287129
1.19808 0.1 0.260384 0.230974
1.2267 0.1 3.57064e-18 0.275404
1.2267 0.1 -0.0636649 0.282294
1.2267 0.1 0.0636649 0.267137
1.1744 0.1 -0.364541 0.281387
1.1744 0.1 0.364541 0.208791
0.574156 0.1 1.0875 0.0818135
0.574156 0.1 -1.0875 0.159515
1.20938 0.1 0.225859 0.238637
1.20938 0.1 -0.225859 0.289067
1.04168 0.1 -0.656246 0.237049
1.04168 0.1 0.656246 0.14469
1.2267 0.1 -0.12733 0.287784
1.2267 0.1 0.12733 0.257625
0.287374 0.1 1.2 0.0741966
0.287374 0.1 -1.2 0.14423
1.02149 0.1 -0.702294 0.229502
1.02149 0.1 0.702294 0.135453
0.075776 0.1 -1.2375 0.154103
0.075776 0.1 1.2375 0.0854301
0.871399 0.1 0.88201 0.106364
0.522865 0.1 1.125 0.0786152
0.522865 0.1 -1.125 0.155059
1.2267 0.1 -0.190994 0.291589
1.2267 0.1 0.190994 0.247022
1.19808 0.1 -0.32548 0.287412
1.19808 0.1 0.32548 0.218844
0.990306 0.1 -0.75 0.221048
0.990306 0.1 0.75 0.127721
1.24274 0.1 -0.0314313 0.282371
1.24274 0.1 0.0314313 0.274626
1.20938 0.1 -0.29039 0.289978
1.20938 0.1 0.29039 0.226784
1.24274 0.1 -0.0942942 0.288685
1.24274 0.1 0.0942942 0.265562
0.93886 0.1 0.821002 0.116177
1.11928 0.1 -0.552285 0.260002
1.11928 0.1 0.552285 0.168416
1.15704 0.1 -0.470036 0.273324
1.15704 0.1 0.470036 0.186795
0.969689 0.1 -0.7875 0.215976
0.96969 0.1 0.7875 0.122326
0.93886 0.1 -0.825 0.208451
0.90582 0.1 0.8625 0.109401
0.905821 0.1 -0.8625 0.2012
1.1744 0.1 -0.430821 0.279257
1.1744 0.1 0.430821 0.195964
1.10076 0.1 -0.594676 0.253456
1.10076 0.1 0.594676 0.159638
1.14316 0.1 -0.508816 0.268215
1.14316 0.1 0.508816 0.178542
1.24274 0.1 -0.157157 0.293636
1.24274 0.1 0.157157 0.25534
1.2267 0.1 -0.254659 0.293498
1.2267 0.1 0.254659 0.235473
0.467897 0.1 1.1625 0.0756346
0.467897 0.1 -1.1625 0.15075
1.08012 0.1 0.638947 0.150556
1.08012 0.1 -0.638947 0.245678
1.25511 0.1 -5.78241e-19 0.280763
0.835106 0.1 -0.9375 0.188281
0.835106 0.1 0.9375 0.0991778
0.871687 0.1 -0.903998 0.19526
1.25511 0.1 0.0622446 0.272265
1.25511 0.1 -0.0622446 0.287889
0.219992 0.1 1.2375 0.0713346
0.219992 0.1 -1.2375 0.140593
0 0.1 -1.25701 0.153251
0 0.1 1.25701 0.084194
0.0363518 0.1 -1.25701 0.153251
0.0363518 0.1 1.25701 0.084194
0.797314 0.1 0.975 0.0943223
0.797314 0.1 -0.975 0.181967
1.19808 0.1 -0.390576 0.286275
1.19808 0.1 0.390576 0.2061
1.0579 0.1 -0.684997 0.23773
1.0579 0.1 0.684997 0.141427
1.20938 0.1 -0.354921 0.289744
1.20938 0.1 0.354921 0.214229
1.25511 0.1 0.124489 0.262533
1.25511 0.1 -0.124489 0.29362
1.24274 0.1 -0.220019 0.296628
1.24274 0.1 0.220019 0.244103
0.756813 0.1 1.0125 0.0897684
0.756814 0.1 -1.0125 0.175894
1.2267 0.1 -0.318324 0.293947
1.2267 0.1 0.318324 0.223138
0.411108 0.1 1.2 0.0736708
0.411108 0.1 -1.2 0.147505
1.25511 0.1 -0.186734 0.297706
1.25511 0.1 0.186734 0.251717
0.714971 0.1 1.05 0.0857923
0.714971 0.1 -1.05 0.17034
1.04168 0.1 -0.729162 0.230593
1.04168 0.1 0.729162 0.132433
1.24274 0.1 0.282882 0.231998
1.24274 0.1 -0.282882 0.29775
0 0.1 1.275 0.0830569
0 0.1 -1.275 0.152468
1.1744 0.1 0.497102 0.182805
1.1744 0.1 -0.497102 0.275632
1.15704 0.1 -0.537184 0.268974
1.15704 0.1 0.537184 0.173679
1.2756 0.1 -0.03061 0.288736
1.2756 0.1 0.03061 0.280684
0.67013 0.1 1.0875 0.0821029
0.67013 0.1 -1.0875 0.164998
1.2756 0.1 -0.09183 0.295374
1.2756 0.1 0.09183 0.271332
1.25511 0.1 -0.248978 0.299871
1.25511 0.1 0.248978 0.239961
1.20938 0.1 0.419453 0.201152
1.20938 0.1 -0.419453 0.287831
1.11928 0.1 -0.621322 0.254365
1.11928 0.1 0.621322 0.155536
1.14316 0.1 -0.576659 0.263157
1.14316 0.1 0.576659 0.165459
1.19808 0.1 -0.455673 0.283517
1.19808 0.1 0.455673 0.19293
1.02149 0.1 0.776219 0.123288
1.02149 0.1 -0.776219 0.222734
0.150379 0.1 1.275 0.0758299
0.150379 0.1 -1.275 0.145545
1.2756 0.1 -0.15305 0.300619
1.2756 0.1 0.15305 0.260835
1.2267 0.1 -0.381989 0.292999
1.2267 0.1 0.381989 0.210194
1.10076 0.1 -0.664638 0.247304
1.10076 0.1 0.664638 0.146927
0.350249 0.1 1.2375 0.0719157
0.350249 0.1 -1.2375 0.14445
0.623803 0.1 1.125 0.0786854
0.623803 0.1 -1.125 0.160005
0.9386 0.1 0.88201 0.107808
0.990306 0.1 0.825 0.116784
0.990306 0.1 -0.825 0.214374
1.24274 0.1 -0.345745 0.29773
1.24274 0.1 0.345745 0.219196
1.2906 0.1 0 0.287348
1.07933 0.1 0.709941 0.138147
1.2906 0.1 -0.0604698 0.294843
1.2906 0.1 0.0604698 0.278498
1.08012 0.1 -0.709941 0.239168
0 0.1 1.29299 0.0819195
0 0.1 -1.29299 0.151685
1.25511 0.1 0.311223 0.227423
1.25511 0.1 -0.311223 0.300498
1.2756 0.1 -0.214269 0.304052
1.2756 0.1 0.214269 0.249334
0.0363518 0.1 1.29299 0.0819195
0.0363518 0.1 -1.29299 0.151685
1.2906 0.1 -0.12094 0.300944
1.2906 0.1 0.12094 0.268433
0.574156 0.1 1.1625 0.0755121
0.574157 0.1 -1.1625 0.155207
0.969689 0.1 0.8625 0.111461
0.969689 0.1 -0.8625 0.209297
1.0579 0.1 0.757102 0.12931
1.0579 0.1 -0.757102 0.230907
1.1744 0.1 -0.563382 0.270641
1.1744 0.1 0.563382 0.1695
1.20938 0.1 0.483984 0.187744
1.20938 0.1 -0.483984 0.284338
1.2906 0.1 -0.181409 0.305478
1.2906 0.1 0.181409 0.2573
0.93886 0.1 -0.903998 0.202691
0.90582 0.1 0.9375 0.0996177
0.90582 0.1 -0.9375 0.194904
1.2756 0.1 0.275489 0.236975
1.2756 0.1 -0.275489 0.30551
1.2267 0.1 -0.445653 0.290406
1.2267 0.1 0.445653 0.196826
1.15704 0.1 -0.604332 0.263323
1.15704 0.1 0.604332 0.160505
1.19808 0.1 -0.520769 0.279291
1.19808 0.1 0.520769 0.17952
1.30646 0.1 0.0298385 0.286071
1.30646 0.1 -0.0298385 0.294425
0.287374 0.1 -1.275 0.140833
0.287374 0.1 1.275 0.069165
0.871687 0.1 0.975 0.0948923
0.871687 0.1 -0.975 0.188537
1.24274 0.1 0.408607 0.205879
1.24274 0.1 -0.408607 0.296081