# pMean  POINT_DATA 91129
# x  y  z  pMean
0 0 0 0.175182
0 0.00368111 0 0.174939
0 0.00749587 0 0.174419
0 0.0114491 0 0.173916
0 0.0155459 0 0.173464
0 0.0197915 0 0.172982
0 0.0241911 0 0.172442
0 0.0287506 0 0.171846
0 0.0334755 0 0.171204
0 0.038372 0 0.170533
0 0.0434463 0 0.169843
0 0.0487048 0 0.169142
0 0.0541543 0 0.168436
0 0.0598016 0 0.16773
0 0.0656539 0 0.167032
0 0.0717187 0 0.166354
0.075776 0.00184055 0 0.175182
0.075776 0.00558849 0 0.174697
0.075776 0.00947248 -3.46945e-18 0.174142
0.075776 0.0134975 -3.46945e-18 0.17369
0.075776 0.0176687 3.46945e-18 0.173238
0 0.0780037 0 0.16571
0.075776 0.0219913 3.46945e-18 0.172726
0.075776 0.0264709 3.46945e-18 0.172157
0.075776 0.031113 -3.46945e-18 0.171534
0.075776 0.0359237 -3.46945e-18 0.170874
0 0.0845169 0 0.165101
0.075776 0.0409092 0 0.170192
0.075776 0.0460755 -3.46945e-18 0.169494
0 0.0912666 0 0.16451
0.075776 0.0514296 -3.46945e-18 0.168789
0.075776 0.0569779 0 0.168082
0 0.0982613 0 0.163925
0.075776 0.0627278 0 0.167378
0.075776 0.0686863 0 0.166685
0 0.10551 0 0.163336
0.075776 0.0748612 3.46945e-18 0.166022
0.075776 0.0812603 -3.46945e-18 0.165398
0 0.113022 0 0.162743
0.075776 0.0878918 3.46945e-18 0.164803
0 0.120806 0 0.162147
0.075776 0.0947639 3.46945e-18 0.164218
0.075776 0.101886 -3.46945e-18 0.163631
0 0.128874 0 0.161551
0.075776 0.109266 3.46945e-18 0.16304
0 0.137234 0 0.160958
0.075776 0.116914 3.46945e-18 0.162445
0 0.145897 0 0.160374
0.075776 0.12484 0 0.161849
0.151552 0 0 0.16181
0.151552 0.00368111 0 0.161716
0.151552 0.00749587 0 0.161541
0.151552 0.0114491 0 0.161413
0.151552 0.0155459 0 0.161314
0.151552 0.0197915 0 0.161195
0.075776 0.133054 0 0.161253
0.151552 0.0241911 0 0.161044
0.151552 0.0287506 0 0.160863
0 0.154876 0 0.159809
0.151552 0.0334755 0 0.160656
0.151552 0.038372 0 0.16043
0.151552 0.0434463 0 0.160193
0.151552 0.0487048 0 0.159947
0.075776 0.141566 0 0.160663
0.151552 0.0541543 0 0.159694
0.151552 0.0598016 0 0.159436
0 0.16418 0 0.159275
0.151552 0.0656539 0 0.159177
0.151552 0.0717187 0 0.158922
0.075776 0.150387 0 0.160085
0.151552 0.0780037 0 0.158677
0.151552 0.0845169 0 0.158441
0 0.173822 0 0.158772
0.075776 0.159528 0 0.159533
0.151552 0.0912666 0 0.158206
0.151552 0.0982613 0 0.157965
0 0.183814 0 0.158286
0.151552 0.10551 0 0.157716
0.075776 0.169001 3.46945e-18 0.159016
0.151552 0.113022 0 0.157456
0.151552 0.120806 0 0.157185
0 0.194169 0 0.157793
0.075776 0.178818 3.46945e-18 0.158528
0.151552 0.128874 0 0.156902
0.075776 0.188992 3.46945e-18 0.158044
0.151552 0.137234 0 0.156611
0 0.2049 0 0.157276
0.151552 0.145897 0 0.156316
0.075776 0.199535 0 0.157542
0 0.21602 0 0.15673
0.151552 0.154876 0 0.156022
0.219992 0.00184055 0 0.149467
0.219992 0.00558849 0 0.149551
0.219992 0.00947248 -3.46945e-18 0.149756
0.219992 0.0134975 3.46945e-18 0.149988
0.219992 0.0176687 0 0.150208
0.219992 0.0219913 0 0.150419
0.219993 0.0264709 -3.46945e-18 0.150626
0.219992 0.031113 -3.46945e-18 0.150824
0.219992 0.0359238 3.46945e-18 0.151013
0.151552 0.16418 0 0.155738
0.075776 0.21046 0 0.15701
0.219992 0.0409092 3.46945e-18 0.151196
0.219992 0.0460755 0 0.151374
0.219993 0.0514296 -3.46945e-18 0.151543
0.219992 0.0569779 0 0.151704
0 0.227544 0 0.15616
0.219992 0.0627277 3.46945e-18 0.151856
0.219992 0.0686863 0 0.151997
0.151552 0.173822 0 0.155463
0.219992 0.0748612 3.46945e-18 0.152126
0.075776 0.221782 0 0.156449
0.219992 0.0812603 3.46945e-18 0.152242
0.219992 0.0878917 -3.46945e-18 0.152343
0.151552 0.183814 0 0.155187
7.47806e-17 0.239487 0 0.155576
0.219992 0.0947639 3.46945e-18 0.152428
0.219993 0.101886 3.46945e-18 0.152498
0.075776 0.233516 0 0.15587
0.219993 0.109266 0 0.152556
0.151552 0.194169 0 0.154897
0.219993 0.116914 0 0.152595
0 0.251863 0 0.154981
0.219993 0.12484 0 0.152611
0.151552 0.2049 0 0.154583
0.075776 0.245675 0 0.155281
0.219992 0.133054 3.46945e-18 0.152608
0.219992 0.141565 0 0.152588
0.151552 0.21602 0 0.154244
0 0.264688 0 0.154376
0.219992 0.150387 3.46945e-18 0.152551
0.075776 0.258275 3.46945e-18 0.154681
0.219992 0.159528 -3.46945e-18 0.152502
0.151552 0.227544 0 0.153881
0.219992 0.169001 3.46945e-18 0.152444
0 0.27798 0 0.153758
0.075776 0.271334 3.46945e-18 0.15407
0.151552 0.239487 3.70071e-18 0.153497
0.219992 0.178818 3.46945e-18 0.152371
0.288433 0 0 0.153116
0.288433 0.00368111 0 0.153146
0.288433 0.00749587 0 0.153241
0.288433 0.0114491 0 0.153382
0.288433 0.0155459 3.70071e-18 0.15353
0.288433 0.0197915 0 0.153675
0.288433 0.0241911 3.70071e-18 0.153818
0.288433 0.0287506 0 0.153959
0.219992 0.188991 0 0.152279
0.288433 0.0334755 0 0.154096
0.288433 0.038372 0 0.154229
0.288433 0.0434463 0 0.154358
7.47806e-17 0.291753 0 0.153126
0.288433 0.0487048 0 0.154483
0.288433 0.0541543 0 0.154604
0.151552 0.251863 0 0.153096
0.288433 0.0598016 3.70071e-18 0.15472
0.075776 0.284866 0 0.153445
0.288433 0.0656539 3.70071e-18 0.154832
0.219992 0.199534 0 0.152165
0.288433 0.0717187 0 0.154939
0.288433 0.0780037 0 0.15504
0.288433 0.0845169 0 0.155135
0.288433 0.0912666 0 0.155221
0.219992 0.21046 -3.46945e-18 0.152029
0.288433 0.0982613 0 0.155287
0.151552 0.264688 3.70071e-18 0.152679
0 0.306027 0 0.152477
0.288433 0.10551 0 0.155329
0.075776 0.29889 3.46945e-18 0.152806
0.288433 0.113022 0 0.155347
0.219993 0.221782 0 0.151869
0.288433 0.120806 0 0.15535
0.288433 0.128874 0 0.155341
0.151552 0.27798 0 0.152247
0.288433 0.137234 0 0.15532
0 0.320819 0 0.151808
0.219992 0.233515 -3.46945e-18 0.151684
0.075776 0.313423 -3.46945e-18 0.152147
0.288433 0.145897 0 0.155283
0.288433 0.154876 0 0.155231
0.151552 0.291753 0 0.151796
0.219993 0.245675 0 0.151472
0.288433 0.16418 0 0.155165
0 0.336148 0 0.151128
0.288433 0.173822 0 0.155085
0.075776 0.328484 -3.46945e-18 0.151469
0.219993 0.258275 -3.46945e-18 0.151238
0.151552 0.306027 0 0.151321
0.288433 0.183814 0 0.154987
0.288433 0.194169 0 0.15487
0.219992 0.271334 3.46945e-18 0.150987
0.350249 0.00184056 -3.46945e-18 0.156498
0.350249 0.00558849 0 0.156533
0.350249 0.00947248 3.46945e-18 0.156598
0.350249 0.0134975 0 0.15667
0.350249 0.0176687 0 0.156748
0.350249 0.0219913 0 0.156829
0.350249 0.0264708 3.46945e-18 0.156913
0.350249 0.031113 0 0.156998
0 0.352034 0 0.150451
0.350249 0.0359238 0 0.157081
0.075776 0.344091 0 0.150787
0.350249 0.0409091 0 0.157165
0.350249 0.0460756 3.46945e-18 0.157247
0.288433 0.2049 0 0.154731
0.350249 0.0514296 0 0.157326
0.151552 0.320819 0 0.150819
0.350249 0.0569779 0 0.157404
0.350249 0.0627277 3.46945e-18 0.157483
0.350249 0.0686863 3.46945e-18 0.157563
0.350249 0.0748612 3.46945e-18 0.157644
0.350249 0.0812603 0 0.157727
0.219992 0.284867 0 0.150716
0.288433 0.21602 0 0.154571
0.350249 0.0878917 0 0.157811
0.350249 0.094764 0 0.157884
0.350249 0.101886 0 0.157924
0.350249 0.109266 0 0.157926
0.288433 0.227544 0 0.154387
0.075776 0.360265 3.46945e-18 0.150115
0 0.368496 0 0.149773
0.151552 0.336148 0 0.150292
0.350249 0.116914 3.46945e-18 0.157906
0.219992 0.29889 0 0.150419
0.370854 0.0241911 1.54074e-33 0.158598
0.350249 0.12484 0 0.157883
0.350249 0.133054 0 0.15786
0.288433 0.239487 -9.25154e-19 0.154179
0.350249 0.141566 3.46945e-18 0.157825
0.350249 0.150387 3.46945e-18 0.157772
0.288433 0.251863 0 0.153945
0.219992 0.313423 0 0.150088
0.151552 0.352034 0 0.149748
0.075776 0.377027 0 0.14943
0.350249 0.159528 0 0.157702
0 0.385557 0 0.149067
0.350249 0.169001 0 0.157617
0.288433 0.264688 0 0.153689
0.350249 0.178818 0 0.157514
0.219992 0.328484 0 0.149722
0.350249 0.188992 0 0.157393
0.151552 0.368496 0 0.149184
0.288433 0.27798 3.70071e-18 0.15341
0.075776 0.394397 0 0.148704
0.350249 0.199535 0 0.157253
7.47806e-17 0.403236 0 0.148318
0.219992 0.344091 0 0.149318
0.350249 0.21046 -3.46945e-18 0.157092
0.288433 0.291753 0 0.153106
0.412065 9.08189e-19 3.08149e-33 0.160734
0.412065 0.00368111 -2.31298e-18 0.160746
0.412065 0.00749587 -2.31298e-18 0.160781
0.412065 0.0114491 -2.31298e-18 0.16083
0.412065 0.0155459 -2.31298e-18 0.160882
0.412065 0.0197915 0 0.160935
0.412065 0.0241911 -3.08149e-33 0.160989
0.412065 0.0264709 0 0.161016
0.412065 0.0287506 -2.31298e-18 0.161044
0.412065 0.0334755 -2.31298e-18 0.161099
0.412065 0.038372 -2.31298e-18 0.161156
0.151552 0.385557 0 0.148587
0.412065 0.0434463 0 0.161215
0.350249 0.221782 0 0.15691
0.412065 0.0487048 0 0.161275
0.412065 0.0541543 -3.08149e-33 0.161335
0.412065 0.0569779 0 0.161365
0.412065 0.0598016 -2.31298e-18 0.161395
0.412065 0.0656539 -2.31298e-18 0.161453
0.412065 0.0717187 -2.31298e-18 0.16151
0.075776 0.412396 -3.46945e-18 0.147931
0.412065 0.0780037 -2.31298e-18 0.161567
0.288433 0.306027 0 0.152773
0.412065 0.0845169 -2.31298e-18 0.161623
0.350249 0.233516 3.46945e-18 0.156704
0 0.421557 0 0.147528
0.412065 0.0912666 -2.31298e-18 0.161669
0.219992 0.360265 3.46945e-18 0.148879
0.412065 0.0982613 0 0.161688
0.412065 0.10551 0 0.161673
0.412065 0.113022 -2.31298e-18 0.161635
0.350249 0.245675 0 0.156474
0.412065 0.120806 0 0.161586
0.151552 0.403236 0 0.147946
0.288433 0.320819 0 0.152407
0.412065 0.128874 -2.31298e-18 0.161531
0.412065 0.137234 0 0.161467
0.350249 0.258275 -3.46945e-18 0.156218
0.219992 0.377026 0 0.148402
0.412065 0.145897 -2.31298e-18 0.161392
0.075776 0.431051 0 0.147123
0.412065 0.154876 -2.31298e-18 0.161303
0 0.440544 0 0.146705
0.288433 0.336148 0 0.152006
0.350249 0.271334 0 0.155935
0.412065 0.16418 -2.31298e-18 0.1612
0.412065 0.173822 -2.31298e-18 0.161081
0.151552 0.421557 0 0.147263
0.412065 0.183814 -2.31298e-18 0.160947
0.350249 0.284867 3.46945e-18 0.155627
0.219992 0.394397 0 0.147884
0.288433 0.352034 3.70071e-18 0.151568
0.412065 0.194169 0 0.160795
0.075776 0.450382 0 0.146285
0.412065 0.2049 -2.31298e-18 0.160625
0 0.46022 0 0.145852
0.350249 0.29889 3.46945e-18 0.155291
0.412065 0.21602 0 0.160434
0.151552 0.440544 0 0.14654
0.219993 0.412396 3.46945e-18 0.147323
0.467897 0.00184056 -3.46945e-18 0.164674
0.467897 0.00558849 0 0.16469
0.288433 0.368496 0 0.151093
0.467897 0.00947248 0 0.164717
0.467897 0.0134975 0 0.164749
0.467897 0.0176687 3.46945e-18 0.164779
0.467897 0.0219913 -3.46945e-18 0.164806
0.467897 0.0264709 3.46945e-18 0.164832
0.467897 0.0311131 3.46945e-18 0.164861
0.467897 0.0359238 -3.46945e-18 0.164891
0.467897 0.038372 0 0.165287
0.467897 0.0409092 3.46945e-18 0.164926
0.350249 0.313423 0 0.154926
0.467897 0.0460755 0 0.164964
0.467897 0.0514296 3.46945e-18 0.165006
0.412065 0.227544 -2.31298e-18 0.160222
0.467897 0.0569779 0 0.16505
0.467897 0.0627277 -3.46945e-18 0.165092
0.467897 0.0686863 3.46945e-18 0.165128
0.467897 0.0748612 0 0.165161
0.467897 0.0812603 0 0.165194
0.467897 0.0878918 3.46945e-18 0.165223
0.075776 0.470415 3.46945e-18 0.145418
0.412065 0.239487 -2.31298e-18 0.159987
0.467897 0.0947639 -3.46945e-18 0.165226
0.467897 0.101886 3.46945e-18 0.16519
0.350249 0.328483 0 0.154527
0.467897 0.109266 0 0.16513
0 0.48061 0 0.144969
0.288433 0.385557 0 0.150578
0.467897 0.116914 0 0.165061
0.412065 0.251863 -2.31298e-18 0.159726
0.219992 0.431051 0 0.146715
0.467897 0.12484 0 0.164981
0.151552 0.46022 0 0.145777
0.467897 0.133054 3.46945e-18 0.16489
0.467897 0.141566 3.46945e-18 0.16479
0.412065 0.264688 -2.31298e-18 0.15944
0.350249 0.344091 -3.46945e-18 0.154094
0.467897 0.150387 3.46945e-18 0.164681
0.467897 0.154876 0 0.165083
0.467897 0.159528 3.46945e-18 0.16456
0.288433 0.403236 0 0.150021
0.075776 0.491175 0 0.144519
0.412065 0.27798 -2.31298e-18 0.159127
0.467897 0.169001 0 0.164427
0.467897 0.178818 3.46945e-18 0.164279
0.219992 0.450382 0 0.14606
6.73026e-17 0.501741 3.70071e-18 0.144051
0.350249 0.360265 0 0.153623
0.151552 0.48061 0 0.144975
0.467897 0.188991 0 0.164116
0.412065 0.291753 0 0.158786
0.467897 0.199535 0 0.163936
0.288433 0.421557 0 0.149418
0.467897 0.21046 0 0.163738
0.412065 0.306027 0 0.158413
0.350249 0.377027 0 0.153113
0.467897 0.221782 3.46945e-18 0.16352
0.075776 0.51269 0 0.143581
0.219993 0.470415 3.46945e-18 0.145357
0.467897 0.227544 0 0.163849
0.412065 0.320819 -2.31298e-18 0.158009
0.467897 0.233515 0 0.16328
6.73026e-17 0.523639 3.70071e-18 0.143091
0.523729 0 0 0.169243
0.523729 0.00368111 0 0.16925
0.523729 0.00749587 -2.31298e-18 0.169269
0.523729 0.0114491 0 0.169296
0.523729 0.0155459 0 0.169324
0.523729 0.0197915 -2.31298e-18 0.169346
0.151552 0.501741 0 0.144131
0.523729 0.0241911 0 0.169363
0.523729 0.0287506 0 0.16938
0.523729 0.0334755 0 0.169398
0.523729 0.038372 -3.08149e-33 0.169417
0.523729 0.0434463 0 0.169439
0.523729 0.0487048 0 0.169465
0.523729 0.0541543 0 0.169493
0.288433 0.440544 0 0.148768
0.523729 0.0598016 0 0.169523
0.350249 0.394397 -3.46945e-18 0.152561
0.523729 0.0656539 0 0.169551
0.467897 0.245675 0 0.163017
0.523729 0.0717187 0 0.169577
0.523729 0.0780037 0 0.169601
0.523729 0.0845169 0 0.169618
0.523729 0.0912666 0 0.169611
0.412065 0.336148 0 0.157569
0.523729 0.0982613 0 0.16957
0.523729 0.10551 -2.31298e-18 0.169503
0.467897 0.258275 -3.46945e-18 0.162729
0.523729 0.113022 0 0.169422
0.523729 0.120806 -3.08149e-33 0.169332
0.219993 0.491176 0 0.144606
0.523729 0.12484 0 0.169282
0.523729 0.128874 -2.31298e-18 0.169232
0.075776 0.534986 0 0.1426
0.467897 0.271334 3.46945e-18 0.162414
0.350249 0.412396 -3.46945e-18 0.151965
0.523729 0.137234 0 0.16912
0.412065 0.352034 -2.31298e-18 0.157092
0.288433 0.46022 0 0.14807
0.523729 0.145897 0 0.168998
0.151552 0.523639 0 0.143241
0.523729 0.154876 -3.08149e-33 0.168863
0 0.546332 0 0.142088
0.523729 0.159528 0 0.168789
0.467897 0.284867 -3.46945e-18 0.162069
0.523729 0.16418 -2.31298e-18 0.168715
0.523729 0.173822 0 0.168553
0.412065 0.368496 0 0.156575
0.523729 0.183814 0 0.168374
0.467897 0.29889 0 0.161694
0.350249 0.431051 -3.46945e-18 0.151322
0.219992 0.51269 0 0.143806
0.523729 0.194169 0 0.168179
0.288433 0.48061 0 0.147321
0.523729 0.2049 0 0.167965
0.467897 0.313423 3.46945e-18 0.161286
0.075776 0.558091 0 0.141575
0.412065 0.385557 0 0.156016
0.523729 0.21602 -3.08149e-33 0.167731
0.151552 0.546332 0 0.1423
0 0.569849 0 0.141041
0.350249 0.450382 3.46945e-18 0.150631
0.523729 0.227544 -3.08149e-33 0.167475
0.467897 0.328483 0 0.160843
0.523729 0.231525 1.54074e-33 0.167382
0.574156 0.00184056 0 0.173512
0.574156 0.00558849 0 0.173524
0.574157 0.00947248 0 0.173545
0.574156 0.0134975 -3.46945e-18 0.173573
0.574156 0.0176687 -3.46945e-18 0.173595
0.574156 0.0219913 0 0.173606
0.574156 0.0264708 -3.46945e-18 0.173613
0.574156 0.031113 0 0.173619
0.574156 0.0359238 -3.46945e-18 0.173626
0.574157 0.0409092 0 0.173634
0.523729 0.239487 3.70071e-18 0.167197
0.574156 0.0460755 -3.46945e-18 0.173644
0.574156 0.0514295 0 0.173657
0.412065 0.403236 0 0.155413
0.574157 0.0569779 0 0.173674
0.574156 0.0627277 0 0.173692
0.574156 0.0686863 0 0.17371
0.219992 0.534986 0 0.142953
0.288433 0.501741 0 0.14652
0.574156 0.0748612 3.46945e-18 0.173728
0.574156 0.0812603 0 0.173741
0.467897 0.344091 0 0.160362
0.574156 0.0878917 3.46945e-18 0.173735
0.523729 0.251863 0 0.166893
0.574157 0.0947639 0 0.173687
0.574156 0.101886 0 0.173607
0.574156 0.109266 0 0.173516
0.574156 0.116914 0 0.173416
0.412065 0.416977 -6.16298e-33 0.154925
0.350249 0.470415 0 0.149889
0.523729 0.264688 0 0.166563
0.075776 0.582034 0 0.140505
0.574156 0.12484 0 0.173307
0.574156 0.133054 3.46945e-18 0.173187
0.412065 0.421557 -2.31298e-18 0.154763
0.151552 0.569849 0 0.141306
0.467897 0.360265 -3.46945e-18 0.159842
0.574157 0.141566 -3.46945e-18 0.173054
0.523729 0.27798 0 0.166204
0.574156 0.150386 3.46945e-18 0.172908
0 0.594219 0 0.139946
0.574156 0.159528 -3.46945e-18 0.172748
0.574156 0.16418 0 0.173098
0.288433 0.523639 1.2326e-32 0.145664
0.574157 0.169001 0 0.172574
0.523729 0.291753 0 0.165814
0.219993 0.558091 3.46945e-18 0.14204
0.467897 0.377026 0 0.159279
0.574156 0.178818 3.46945e-18 0.172383
0.412065 0.440544 -2.31298e-18 0.154064
0.350249 0.491175 0 0.149093
0.574156 0.188992 3.46945e-18 0.172174
0.523729 0.306027 -3.08149e-33 0.165392
0.574157 0.199535 0 0.171947
0.574157 0.21046 0 0.1717
0.075776 0.606847 0 0.139386
0.467897 0.394397 0 0.158673
0.151552 0.594219 0 0.140256
0.523729 0.320819 0 0.164935
0.574157 0.221782 -3.46945e-18 0.171431
0.412065 0.46022 3.08149e-33 0.153315
0.288433 0.546332 0 0.14475
0 0.619475 0 0.1388
0.574156 0.233515 3.46945e-18 0.171139
0.350249 0.51269 3.46945e-18 0.14824
0.219992 0.582034 3.46945e-18 0.141064
0.523729 0.336148 0 0.164441
0.467897 0.412396 0 0.158019
0.574156 0.245675 0 0.170823
0.624584 0 0 0.178727
0.624584 0.00368111 0 0.178733
0.624584 0.00749587 0 0.178749
0.624584 0.0114491 0 0.178773
0.624584 0.0155459 0 0.178796
0.624584 0.0197915 0 0.178809
0.624584 0.0241911 -2.31298e-18 0.178813
0.624584 0.0287506 0 0.178811
0.624584 0.0334755 0 0.178809
0.624584 0.038372 0 0.178806
0.624584 0.0434463 -2.31298e-18 0.178804
0.624584 0.0487048 0 0.178803
0.624584 0.0541543 0 0.178805
0.624584 0.0598016 0 0.178808
0.624584 0.0656539 0 0.178811
0.624584 0.0717187 0 0.178814
0.624584 0.0780037 0 0.178812
0.574157 0.258276 3.46945e-18 0.17048
0.624584 0.0845169 0 0.178795
0.523729 0.352034 0 0.163907
0.624584 0.0912666 0 0.178744
0.624584 0.0982613 0 0.178657
0.412065 0.48061 3.08149e-33 0.152511
0.624584 0.10551 0 0.178551
0.624584 0.113022 -2.31298e-18 0.178435
0.574156 0.271334 0 0.170109
0.624584 0.120806 0 0.178308
0.467897 0.431051 0 0.157317
0.075776 0.632561 -3.46945e-18 0.138213
0.624584 0.128874 0 0.17817
0.151552 0.619475 0 0.139147
0.288433 0.569849 0 0.143773
0.350249 0.534985 0 0.147328
0.624584 0.137234 -2.31298e-18 0.178019
0.523729 0.368496 0 0.163332
0.574156 0.284866 -3.46945e-18 0.169708
0.624584 0.145897 0 0.177854
0.467897 0.440544 0 0.157314
0.624584 0.154876 0 0.177675
0.219992 0.606847 -3.46945e-18 0.140023
0 0.645647 0 0.1376
0.624584 0.16418 -3.08149e-33 0.177481
0.574156 0.29889 -3.46945e-18 0.169274
0.624584 0.173822 0 0.177269
0.412065 0.501741 1.54074e-33 0.15165
0.467897 0.450382 -3.46945e-18 0.156563
0.523729 0.385557 0 0.162713
0.624584 0.183814 0 0.17704
0.624584 0.194169 0 0.176792
0.574156 0.313423 0 0.168807
0.624584 0.2049 0 0.176524
0.350249 0.558091 3.46945e-18 0.146354
0.288433 0.594219 0 0.142731
0.624584 0.21602 0 0.176234
0.523729 0.403236 0 0.162046
0.574156 0.328483 -3.46945e-18 0.168302
0.151552 0.645647 0 0.137976
0.467897 0.470415 3.46945e-18 0.155756
0.075776 0.659208 0 0.136984
0.624584 0.227544 0 0.17592
0.412065 0.523639 0 0.150729
0.523729 0.41545 3.08149e-33 0.161569
0.624584 0.239487 3.70071e-18 0.175582
0.574156 0.344091 0 0.167759
0.219992 0.632561 0 0.138914
0.67013 0.00184055 0 0.183623
0.67013 0.00558849 0 0.183634
0.67013 0.00947248 0 0.183654
0.67013 0.0134975 0 0.18368
0.67013 0.0176687 -3.46945e-18 0.183699
0.67013 0.0219913 0 0.183702
0.67013 0.0264708 3.46945e-18 0.183694
0.67013 0.0311131 0 0.183684
0.67013 0.0359237 0 0.183671
0.67013 0.0409092 -3.46945e-18 0.183658
0.67013 0.0460755 0 0.183647
0.67013 0.0514296 3.46945e-18 0.183636
0.523729 0.421557 -2.31298e-18 0.161331
0.67013 0.056978 0 0.183625
0 0.67277 0 0.13634
0.67013 0.0627277 0 0.183614
0.624584 0.251863 0 0.175218
0.67013 0.0686863 0 0.183603
0.67013 0.0748612 3.46945e-18 0.183591
0.67013 0.0812603 0 0.18357
0.67013 0.0878917 0 0.183518
0.67013 0.0947639 3.46945e-18 0.183423
0.574156 0.360265 0 0.167175
0.67013 0.101886 0 0.183302
0.523729 0.431051 0 0.160947
0.624584 0.264688 0 0.174825
0.467897 0.491175 0 0.154891
0.67013 0.109266 3.46945e-18 0.183171
0.350249 0.582034 0 0.145315
0.67013 0.116914 0 0.18303
0.67013 0.12484 0 0.182877
0.67013 0.133054 0 0.18271
0.288433 0.619475 0 0.141621
0.624584 0.27798 -3.08149e-33 0.174402
0.412065 0.546332 1.54074e-33 0.149746
0.523729 0.440544 -3.08149e-33 0.160563
0.67013 0.141566 3.46945e-18 0.182529
0.685312 0.0241911 -7.70372e-34 0.185777
0.685312 0.0434463 -7.70372e-34 0.185714
0.67013 0.150387 0 0.182333
0.574156 0.377026 -3.46945e-18 0.166546
0.67013 0.159528 0 0.182121
0.624584 0.291753 0 0.173947
0.151552 0.67277 0 0.13674
0.075776 0.686823 0 0.135694
0.67013 0.169001 0 0.181893
0.67013 0.178818 0 0.181646
0.467897 0.51269 0 0.153967
0.685312 0.113022 -7.70372e-34 0.185081
0.219992 0.659208 0 0.137736
0.624584 0.306027 0 0.173458
0.67013 0.188991 0 0.18138
0.574156 0.394397 3.46945e-18 0.165871
0.523729 0.46022 0 0.159741
0.685312 0.137234 -7.70372e-34 0.184572
0.67013 0.199535 -3.46945e-18 0.181093
0.350249 0.606847 0 0.144207
0 0.700877 0 0.135018
0.624584 0.320819 0 0.172932
0.67013 0.21046 0 0.180784
0.412065 0.569849 -2.31298e-18 0.148697
0.67013 0.221782 -3.46945e-18 0.180453
0.574157 0.412396 0 0.165146
0.288433 0.645647 0 0.14044
0.624584 0.336148 -3.08149e-33 0.172368
0.67013 0.233515 3.46945e-18 0.180096
0.467897 0.534986 0 0.15298
0.523729 0.48061 0 0.15886
0.624584 0.344091 0 0.172065
0.67013 0.245675 0 0.179713
0.715676 4.54095e-19 0 0.189194
0.715676 0.00368111 0 0.189199
0.715676 0.00749587 0 0.189215
0.715676 0.0114491 0 0.189238
0.715676 0.0155459 0 0.189259
0.715676 0.0197915 0 0.189267
0.715676 0.0241911 0 0.189259
0.715676 0.0287506 0 0.189242
0.715676 0.0334755 0 0.189219
0.715676 0.038372 0 0.189195
0.624584 0.352034 -2.31298e-18 0.171763
0.715676 0.0434463 0 0.189169
0.151552 0.700877 0 0.135436
0.715676 0.0487048 0 0.189143
0.715676 0.0541543 0 0.189116
0.574156 0.43105 0 0.164369
0.715676 0.0598016 0 0.18909
0.67013 0.258275 0 0.179302
0.715676 0.0656539 0 0.189062
0.715676 0.0717187 0 0.189033
0.075776 0.715441 0 0.134339
0.715676 0.0780037 0 0.188997
0.715676 0.0845169 0 0.188937
0.219992 0.686824 0 0.136486
0.715676 0.0912666 0 0.188839
0.715676 0.0982613 0 0.188709
0.67013 0.271334 -3.46945e-18 0.17886
0.350249 0.632561 -3.46945e-18 0.143029
0.412065 0.594219 3.08149e-33 0.147579
0.715676 0.10551 0 0.188562
0.715676 0.113022 0 0.188404
0.624584 0.368496 0 0.171113
0.523729 0.501741 0 0.15792
0.715676 0.120806 0 0.188233
0.715676 0.128874 0 0.188048
0.67013 0.284867 0 0.178387
0.467897 0.558091 3.46945e-18 0.151926
0.715676 0.137234 0 0.187849
0.574156 0.450382 0 0.163537
0 0.730005 0 0.13363
0.715676 0.145897 0 0.187633
0.288433 0.67277 0 0.139185
0.715676 0.154876 0 0.187402
0.67013 0.29889 0 0.17788
0.624584 0.385557 0 0.170417
0.715676 0.16418 -9.25187e-19 0.187153
0.715676 0.173822 0 0.186885
0.715676 0.183814 0 0.186598
0.67013 0.313423 0 0.177337
0.523729 0.523639 0 0.156915
0.715676 0.194169 0 0.18629
0.574156 0.470415 3.46945e-18 0.162646
0.624584 0.403236 0 0.169672
0.743101 0.0241911 -7.70372e-34 0.192959
0.412065 0.619475 3.08149e-33 0.146388
0.715676 0.2049 0 0.185959
0.151552 0.730005 0 0.134061
0.67013 0.328484 3.46945e-18 0.176755
0.350249 0.659208 0 0.141776
0.467897 0.582034 0 0.150803
0.715676 0.21602 0 0.185605
0.219992 0.715441 0 0.135161
0.075776 0.745097 -3.46945e-18 0.132917
0.715676 0.227544 0 0.185226
0.67013 0.344091 0 0.176133
0.624584 0.421557 0 0.168875
0.743101 0.128874 -7.70372e-34 0.191519
0.715676 0.239487 3.70071e-18 0.18482
0.574156 0.491175 0 0.161695
0.756814 0.00184055 0 0.194451
0.523729 0.546332 0 0.155843
0.756813 0.00558849 0 0.194461
0.756813 0.00947248 0 0.194481
0.756814 0.0134975 -3.46945e-18 0.194507
0.756814 0.0155459 0 0.194817
0.756814 0.0176687 0 0.194521
0.756814 0.0219913 0 0.194516
0.756814 0.0264709 0 0.194496
0.756814 0.031113 -3.46945e-18 0.194466
0.756813 0.0359238 -3.46945e-18 0.194431
0.288433 0.700877 0 0.137854
0.756814 0.0409092 -3.46945e-18 0.194393
0.756813 0.0460755 3.46945e-18 0.194354
0.756813 0.0514296 0 0.194313
0.715676 0.251863 0 0.184386
0.756813 0.0569779 0 0.194272
0.756814 0.0627277 -3.46945e-18 0.19423
0.756814 0.0686863 -3.46945e-18 0.194187
0 0.76019 0 0.132171
0.756814 0.0748612 0 0.19414
0.67013 0.360265 3.46945e-18 0.175467
0.756814 0.0812603 -3.46945e-18 0.194078
0.756814 0.0878917 -3.46945e-18 0.193977
0.756814 0.0947639 -3.46945e-18 0.193836
0.715676 0.264688 0 0.183921
0.756813 0.101886 0 0.193675
0.624584 0.440544 0 0.168022
0.756813 0.109266 3.46945e-18 0.193501
0.756813 0.116914 3.46945e-18 0.193316
0.412065 0.645647 0 0.145122
0.467897 0.606847 0 0.149607
0.756814 0.120806 0 0.193467
0.756813 0.12484 0 0.193115
0.715676 0.27798 0 0.183425
0.756814 0.133054 -3.46945e-18 0.1929
0.67013 0.377026 -3.46945e-18 0.174755
0.756814 0.137234 0 0.193026
0.574156 0.51269 0 0.160679
0.756813 0.141566 3.46945e-18 0.192668
0.685312 0.352034 -7.70372e-34 0.177513
0.743101 0.2049 -7.70372e-34 0.189262
0.350249 0.686824 0 0.140446
0.756814 0.150387 0 0.192419
0.756814 0.154876 0 0.19252
0.715676 0.291753 0 0.182895
0.756814 0.159528 -3.46945e-18 0.192153
0.523729 0.569849 0 0.1547
0.72743 0.264688 0 0.185284
0.756814 0.16418 0 0.19224
0.151552 0.76019 0 0.13261
0.756813 0.169001 3.46945e-18 0.191867
0.624584 0.46022 0 0.167111
0.219993 0.745097 0 0.133759
0.67013 0.394396 0 0.173993
0.756813 0.178818 -3.46945e-18 0.191562
0.715676 0.306027 0 0.182328
0.075776 0.775831 0 0.131422
0.756813 0.188991 0 0.191235
0.756814 0.199535 0 0.190885
0.715676 0.320819 0 0.181723
0.574156 0.534985 0 0.159595
0.288433 0.730005 0 0.136444
0.756813 0.21046 0 0.190512
0.467897 0.632561 0 0.148334
0.67013 0.412396 -3.46945e-18 0.17318
0.624584 0.48061 -3.08149e-33 0.166138
0.756814 0.221782 0 0.190113
0.412065 0.67277 3.08149e-33 0.143776
0.715676 0.336148 0 0.181078
0 0.791472 0 0.130638
0.756813 0.233516 3.46945e-18 0.189688
0.523729 0.594219 0 0.153483
0.624584 0.487654 1.54074e-33 0.165792
0.756814 0.245675 3.46945e-18 0.189234
0.350249 0.715441 3.46945e-18 0.139034
0.67013 0.43105 0 0.172312
0.715676 0.352034 -9.25187e-19 0.180389
0.797951 9.08189e-19 -3.08149e-33 0.200312
0.797951 0.00368111 2.31298e-18 0.200318
0.797951 0.00749587 2.31298e-18 0.200334
0.797951 0.0114491 2.31298e-18 0.200356
0.797951 0.0141803 7.70372e-34 0.200369
0.797951 0.0155459 0 0.200375
0.797951 0.0169611 7.70372e-34 0.200375
0.797951 0.0197915 2.31298e-18 0.200376
0.797951 0.0219913 0 0.200367
0.797951 0.0241911 3.08149e-33 0.200358
0.797951 0.0264709 0 0.200341
0.797951 0.0287506 -3.08149e-33 0.200323
0.797951 0.0334755 2.31298e-18 0.200278
0.797951 0.038372 2.31298e-18 0.200226
0.797951 0.0434463 2.31298e-18 0.200169
0.797951 0.0487048 0 0.20011
0.756813 0.258275 -3.46945e-18 0.18875
0.797951 0.0541543 2.31298e-18 0.200049
0.797951 0.0598016 2.31298e-18 0.199986
0.797951 0.0656539 2.31298e-18 0.199921
0.574156 0.55809 0 0.158439
0.624584 0.501741 0 0.1651
0.797951 0.0717187 2.31298e-18 0.199852
0.797951 0.0780037 -3.08149e-33 0.199772
0.797951 0.0845169 2.31298e-18 0.199661
0.797951 0.0912666 -3.08149e-33 0.199509
0.797951 0.0982613 2.31298e-18 0.199329
0.756813 0.271334 0 0.188233
0.797951 0.10551 2.31298e-18 0.199134
0.715676 0.368496 0 0.179653
0.151552 0.791472 0 0.131081
0.797951 0.113022 2.31298e-18 0.198924
0.219992 0.775831 3.46945e-18 0.132275
0.797951 0.118211 7.70372e-34 0.198775
0.770526 0.239487 1.54074e-33 0.19128
0.797951 0.120806 0 0.1987
0.67013 0.450382 3.46945e-18 0.171385
0.797951 0.128874 3.08149e-33 0.198461
0.467897 0.659208 0 0.14698
0.756813 0.284866 -3.46945e-18 0.187683
0.743101 0.320819 -7.70372e-34 0.184794
0.797951 0.137234 0 0.198204
0.797951 0.141566 0 0.198067
0.797951 0.145897 -9.25187e-19 0.19793
0.523729 0.619475 0 0.152187
0.075776 0.807681 0 0.129851
0.797951 0.150387 0 0.197784
0.797951 0.154876 0 0.197638
0.715676 0.385557 0 0.178869
0.412065 0.700877 3.08149e-33 0.142347
0.288433 0.76019 0 0.13495
0.756813 0.29889 0 0.187097
0.797951 0.16418 0 0.197327
0.624584 0.523639 0 0.163993
0.797951 0.167394 7.70372e-34 0.197216
0.797951 0.173822 2.31298e-18 0.196995
0.574156 0.582034 0 0.157208
0.67013 0.470415 0 0.170396
0.797951 0.183814 2.31298e-18 0.196642
0.756813 0.313423 -3.46945e-18 0.186473
0.797951 0.194169 -9.25187e-19 0.196266
0.715676 0.403236 0 0.178034
0.151552 0.807681 0 0.130276
0.797951 0.197746 -7.70372e-34 0.196133
0.350249 0.745097 0 0.137538
0.797951 0.2049 3.08149e-33 0.195867
0 0.823889 0 0.129028
0.756813 0.328483 -3.46945e-18 0.185808
0.797951 0.21046 0 0.195654
0.797951 0.21602 -3.08149e-33 0.195442
0.797951 0.223703 7.70372e-34 0.195141
0.797951 0.227544 9.25187e-19 0.19499
0.624584 0.546332 0 0.162813
0.715676 0.421557 0 0.177143
0.67013 0.491176 -3.46945e-18 0.169342
0.797951 0.231525 7.70372e-34 0.19483
0.467897 0.686824 -3.46945e-18 0.145542
0.523729 0.645647 0 0.150809
0.756813 0.344091 -3.46945e-18 0.1851
0.822721 0.120806 7.70372e-34 0.202273
0.797951 0.239487 -3.08149e-33 0.19451
0.822721 0.137234 7.70372e-34 0.201738
0.835106 0.00184056 0 0.205872
0.835106 0.00558849 0 0.205883
0.835106 0.00947248 0 0.205904
0.835106 0.0134975 0 0.205928
0.835107 0.0176687 0 0.205939
0.835106 0.0219913 -3.46945e-18 0.205925
0.574156 0.606847 3.46945e-18 0.155897
0.835106 0.0241911 0 0.20605
0.835106 0.0264709 -3.46945e-18 0.205891
0.822721 0.145897 -7.70372e-34 0.201444
0.835106 0.031113 3.46945e-18 0.205839
0.835106 0.0359238 3.46945e-18 0.205776
0.835106 0.0409092 -3.46945e-18 0.205705
0.835106 0.0460755 3.46945e-18 0.205629
0.835106 0.0514296 0 0.20555
0.797951 0.251863 -3.08149e-33 0.194
0.835106 0.0541543 0 0.205652
0.835106 0.0569779 0 0.205468
0.219992 0.807681 3.46945e-18 0.130708
0.822721 0.154876 7.70372e-34 0.201131
0.835106 0.0627277 0 0.205383
0.151552 0.823889 0 0.129471
0.797951 0.255069 -1.54074e-33 0.193865
0.835106 0.0686863 3.46945e-18 0.205295
0.756814 0.360265 -3.46945e-18 0.184346
0.412065 0.730005 0 0.140832
0.835106 0.0748612 0 0.205202
0.822721 0.16418 7.70372e-34 0.200798
0.835106 0.0812603 0 0.205085
0.835106 0.0878917 -3.46945e-18 0.204923
0.715676 0.440544 0 0.176193
0.835106 0.094764 0 0.204724
0.797951 0.264688 -1.2326e-32 0.193459
0.835106 0.101886 -3.46945e-18 0.204509
0.835106 0.109266 3.46945e-18 0.204279
0.288433 0.791472 0 0.133371
0.835106 0.116914 0 0.204034
0.67013 0.51269 3.46945e-18 0.168218
0.797951 0.274657 6.16298e-33 0.193027
0.075776 0.840686 -3.46945e-18 0.128201
0.835106 0.12484 0 0.203773
0.797951 0.27798 -3.08149e-33 0.192884
0.624584 0.569849 0 0.161557
0.756813 0.377026 -3.46945e-18 0.183543
0.835106 0.133054 3.46945e-18 0.203494
0.835106 0.141565 3.46945e-18 0.203198
0.835106 0.150386 0 0.202883
0.797951 0.291753 0 0.192273
0.835106 0.159528 3.46945e-18 0.202548
0.715676 0.46022 0 0.175182
0.816529 0.239487 -1.54074e-33 0.196988
0.350249 0.775831 3.46945e-18 0.135954