# UMean  POINT_DATA 63140
# x  y  z  UMean_x  UMean_y  UMean_z
0 0.1 0 0.766044 0 0.642788
0 0.1 -0.0179898 0.766044 0 0.642788
0 0.1 0.0179898 0.766044 0 0.642788
0.0363518 0.1 0.0179898 0.768885 0.00674212 0.64482
0.0363518 0.1 -0.0179898 0.768895 0.00675768 0.644481
0 0.1 -0.0570102 0.766044 0 0.642788
0 0.1 0.0570102 0.766044 0 0.642788
0.0363518 0.1 0.0570102 0.768885 0.00674212 0.64482
0.0363518 0.1 -0.0570102 0.768895 0.00675768 0.644481
0 0.1 -0.075 0.766044 0 0.642788
0 0.1 0.075 0.766044 0 0.642788
0.075776 0.1 -0.0375 0.772027 0.0141974 0.646307
0.075776 0.1 0.0375 0.772008 0.0141658 0.647015
0 0.1 -0.0929898 0.766044 0 0.642788
0 0.1 0.0929898 0.766044 0 0.642788
0.0363518 0.1 -0.0929898 0.768888 0.00677124 0.644123
0.0363518 0.1 0.0929898 0.768873 0.00671602 0.64515
0 0.1 -0.13201 0.766044 0 0.642788
0 0.1 0.13201 0.766044 0 0.642788
0.075776 0.1 -0.1125 0.772009 0.0142253 0.64556
0.075776 0.1 0.1125 0.771983 0.0141129 0.6477
0.0363518 0.1 -0.13201 0.768888 0.00677124 0.644123
0.0363518 0.1 0.13201 0.768873 0.00671602 0.64515
0 0.1 -0.15 0.766044 0 0.642788
0 0.1 0.15 0.766044 0 0.642788
0.150379 0.1 -2.22623e-17 0.773373 0.0133704 0.648653
0 0.1 -0.16799 0.766044 0 0.642788
0 0.1 0.16799 0.766044 0 0.642788
0.150379 0.1 -0.075 0.773255 0.0133741 0.647347
0.150379 0.1 0.075 0.773532 0.0133487 0.649909
0.0363518 0.1 -0.16799 0.768851 0.00677826 0.643741
0.0363518 0.1 0.16799 0.768859 0.00668044 0.645458
0.075776 0.1 -0.1875 0.771932 0.0142404 0.644764
0.075776 0.1 0.1875 0.771955 0.0140404 0.648342
0 0.1 -0.20701 0.766044 0 0.642788
0 0.1 0.20701 0.766044 0 0.642788
0.0363518 0.1 -0.20701 0.768851 0.00677826 0.643741
0.0363518 0.1 0.20701 0.768859 0.00668044 0.645458
0.150379 0.1 -0.15 0.773168 0.0133605 0.646009
0.150379 0.1 0.15 0.773733 0.0133031 0.651109
0.219993 0.1 -0.0375 0.774525 0.0125957 0.649643
0.219993 0.1 0.0375 0.774812 0.0126035 0.651465
0 0.1 -0.225 0.766044 0 0.642788
0 0.1 0.225 0.766044 0 0.642788
0 0.1 -0.24299 0.766044 0 0.642788
0 0.1 0.24299 0.766044 0 0.642788
0.0363518 0.1 0.24299 0.768839 0.00663788 0.645737
0.0363518 0.1 -0.24299 0.768813 0.00677876 0.64333
0.219993 0.1 -0.1125 0.774349 0.0125615 0.647747
0.219993 0.1 0.1125 0.775187 0.0125918 0.653225
0.150379 0.1 -0.225 0.773123 0.0133313 0.644661
0.150379 0.1 0.225 0.773982 0.0132317 0.65223
0.075776 0.1 -0.2625 0.771853 0.0142414 0.643907
0.075776 0.1 0.2625 0.771916 0.0139536 0.648924
0 0.1 -0.28201 0.766044 0 0.642788
0 0.1 0.28201 0.766044 0 0.642788
0.0363518 0.1 -0.28201 0.768813 0.00677876 0.64333
0.0363518 0.1 0.28201 0.768839 0.00663788 0.645737
0.287374 0.1 -2.89121e-19 0.771611 0.0122352 0.651859
0.219992 0.1 0.1875 0.775649 0.012545 0.654887
0.219992 0.1 -0.1875 0.774275 0.0125012 0.645888
0.287374 0.1 -0.075 0.771387 0.0122087 0.649484
0.287374 0.1 0.075 0.771957 0.01224 0.654183
0 0.1 -0.3 0.766044 0 0.642788
0 0.1 0.3 0.766044 0 0.642788
0 0.1 0.31799 0.766044 0 0.642788
0 0.1 -0.31799 0.766044 0 0.642788
0.0363518 0.1 -0.31799 0.768776 0.00675723 0.642939
0.0363518 0.1 0.31799 0.768812 0.00659353 0.645978
0.287374 0.1 0.15 0.772415 0.0122175 0.656421
0.287374 0.1 -0.15 0.771294 0.0121619 0.647094
0.150379 0.1 -0.3 0.773145 0.0132831 0.643327
0.150379 0.1 0.3 0.774269 0.0131401 0.653265
0.219993 0.1 0.2625 0.776224 0.0124652 0.656441
0.219993 0.1 -0.2625 0.774322 0.012432 0.644055
0.075776 0.1 -0.3375 0.771774 0.0141962 0.643094
0.075776 0.1 0.3375 0.771861 0.0138632 0.649427
0.350249 0.1 -0.0375 0.768542 0.0118751 0.651681
0.350249 0.1 0.0375 0.768837 0.011899 0.654534
0 0.1 -0.35701 0.766044 0 0.642788
0 0.1 0.35701 0.766044 0 0.642788
0.0363518 0.1 -0.35701 0.768776 0.00675723 0.642939
0.0363518 0.1 0.35701 0.768812 0.00659353 0.645978
0.287374 0.1 -0.225 0.771331 0.0121015 0.644738
0.287374 0.1 0.225 0.772992 0.012163 0.658541
0.350249 0.1 -0.1125 0.768403 0.0118354 0.648795
0.350249 0.1 0.1125 0.769263 0.0118977 0.657348
0 0.1 -0.375 0.766044 0 0.642788
0 0.1 0.375 0.766044 0 0.642788
0 0.1 -0.39299 0.766044 0 0.642788
0 0.1 0.39299 0.766044 0 0.642788
0.0363518 0.1 -0.39299 0.768726 0.00671127 0.642574
0.0363518 0.1 0.39299 0.768786 0.00655493 0.646184
0.350249 0.1 -0.1875 0.768416 0.0117826 0.645922
0.350249 0.1 0.1875 0.769829 0.0118672 0.660021
0.219992 0.1 -0.3375 0.774514 0.012355 0.642267
0.219992 0.1 0.3375 0.776862 0.0123562 0.657896
0.150379 0.1 0.375 0.774559 0.0130381 0.654202
0.150379 0.1 -0.375 0.773231 0.013207 0.642049
0.411108 0.1 4.33681e-19 0.763894 0.012211 0.653906
0.287374 0.1 -0.3 0.771509 0.0120323 0.64243
0.287374 0.1 0.3 0.77368 0.0120738 0.660537
0.411108 0.1 -0.075 0.763678 0.0121747 0.650463
0.411108 0.1 0.075 0.764302 0.0122278 0.657308
0.075776 0.1 -0.4125 0.771672 0.0141012 0.642333
0.075776 0.1 0.4125 0.771808 0.0137845 0.649857
0 0.1 0.43201 0.766044 0 0.642788
0 0.1 -0.43201 0.766044 0 0.642788
0.0363518 0.1 0.43201 0.768786 0.00655493 0.646184
0.0363518 0.1 -0.43201 0.768726 0.00671127 0.642574
0.411108 0.1 -0.15 0.763659 0.012123 0.647021
0.411108 0.1 0.15 0.764896 0.012219 0.660614
0.350249 0.1 -0.2625 0.768575 0.011723 0.643105
0.350249 0.1 0.2625 0.770525 0.0118057 0.662566
0 0.1 -0.45 0.766044 0 0.642788
0 0.1 0.45 0.766044 0 0.642788
0.219992 0.1 0.4125 0.777465 0.0122277 0.659214
0.219992 0.1 -0.4125 0.77483 0.0122682 0.640563
0 0.1 -0.46799 0.766044 0 0.642788
0 0.1 0.46799 0.766044 0 0.642788
0.411108 0.1 -0.225 0.763833 0.0120619 0.64363
0.411108 0.1 0.225 0.765669 0.0121754 0.663778
0.467897 0.1 -0.0375 0.759129 0.0125047 0.652677
0.467897 0.1 0.0375 0.759465 0.012535 0.656666
0.0363518 0.1 0.46799 0.768766 0.0065229 0.64635
0.0363518 0.1 -0.46799 0.768689 0.00666313 0.642224
0.287374 0.1 -0.375 0.771826 0.0119566 0.640204
0.287374 0.1 0.375 0.774442 0.0119484 0.662382
0.150379 0.1 0.45 0.774832 0.012935 0.655031
0.150379 0.1 -0.45 0.773386 0.0131197 0.64083
0.467897 0.1 0.1125 0.760037 0.0125491 0.66057
0.467897 0.1 -0.1125 0.759033 0.0124537 0.648679
0.350249 0.1 -0.3375 0.768883 0.0116514 0.640354
0.350249 0.1 0.3375 0.771364 0.0116986 0.664952
0.075776 0.1 -0.4875 0.771597 0.0140024 0.6416
0.075776 0.1 0.4875 0.771769 0.0137192 0.650204
0.467897 0.1 0.1875 0.76084 0.0125308 0.66436
0.467897 0.1 -0.1875 0.759177 0.0123912 0.644716
0 0.1 -0.50701 0.766044 0 0.642788
0 0.1 0.50701 0.766044 0 0.642788
0.0363518 0.1 -0.50701 0.768689 0.00666313 0.642224
0.0363518 0.1 0.50701 0.768766 0.0065229 0.64635
0.411108 0.1 0.3 0.766617 0.0120921 0.666764
0.411108 0.1 -0.3 0.764192 0.0119903 0.640327
0.522865 0.1 1.41031e-17 0.753325 0.0131319 0.654954
0 0.1 -0.525 0.766044 0 0.642788
0 0.1 0.525 0.766044 0 0.642788
0.522865 0.1 -0.075 0.753126 0.0130873 0.65037
0.522865 0.1 0.075 0.753817 0.0131519 0.659498
0.287374 0.1 0.45 0.775231 0.0117941 0.664045
0.287374 0.1 -0.45 0.772283 0.011888 0.638073
0.219992 0.1 0.4875 0.778017 0.0120907 0.660396
0.219992 0.1 -0.4875 0.77529 0.0121991 0.638927
0.467897 0.1 -0.2625 0.759549 0.0123221 0.64085
0.467897 0.1 0.2625 0.761856 0.0124664 0.667962
0.350249 0.1 -0.4125 0.769332 0.0115838 0.637737
0.350249 0.1 0.4125 0.772322 0.0115423 0.667135
0 0.1 -0.54299 0.766044 0 0.642788
0 0.1 0.54299 0.766044 0 0.642788
0.522865 0.1 0.15 0.754598 0.0131431 0.663936
0.522865 0.1 -0.15 0.753222 0.0130214 0.645816
0.0363518 0.1 0.54299 0.768752 0.00650183 0.646482
0.0363518 0.1 -0.54299 0.768666 0.00662344 0.64189
0.150379 0.1 -0.525 0.77363 0.0130492 0.639656
0.150379 0.1 0.525 0.77508 0.0128389 0.65573
0.411108 0.1 -0.375 0.764729 0.0119142 0.637155
0.411108 0.1 0.375 0.767735 0.0119625 0.669534
0.075776 0.1 -0.5625 0.771552 0.0139224 0.640904
0.075776 0.1 0.5625 0.77174 0.0136765 0.650478
0.522865 0.1 -0.225 0.753601 0.0129409 0.641355
0.522865 0.1 0.225 0.755657 0.0130952 0.668208
0.574156 0.1 0.0375 0.747762 0.0137342 0.657804
0.574157 0.1 -0.0375 0.747405 0.0137005 0.652645
0.467897 0.1 -0.3375 0.76014 0.0122366 0.63711
0.467897 0.1 0.3375 0.763083 0.012366 0.67133
0 0.1 -0.58201 0.766044 0 0.642788
0 0.1 0.58201 0.766044 0 0.642788
0.0363518 0.1 -0.58201 0.768666 0.00662344 0.64189
0.0363518 0.1 0.58201 0.768752 0.00650183 0.646482
0.574157 0.1 -0.1125 0.747399 0.0136372 0.6475
0.574157 0.1 0.1125 0.748463 0.0137362 0.662883
0.287374 0.1 -0.525 0.772879 0.0118322 0.636027
0.287374 0.1 0.525 0.776003 0.011618 0.665492
0 0.1 -0.6 0.766044 0 0.642788
0 0.1 0.6 0.766044 0 0.642788
0.350249 0.1 0.4875 0.773343 0.011349 0.669068
0.350249 0.1 -0.4875 0.76993 0.0115321 0.635207
0.522865 0.1 -0.3 0.754247 0.0128426 0.637038
0.522865 0.1 0.3 0.756979 0.0130032 0.672249
0.219992 0.1 -0.5625 0.775898 0.0121632 0.637338
0.219992 0.1 0.5625 0.778498 0.0119551 0.661354
0.574156 0.1 -0.1875 0.747733 0.0135515 0.642435
0.574156 0.1 0.1875 0.749503 0.0137037 0.667819
0.411108 0.1 0.45 0.768991 0.0117842 0.672044
0.411108 0.1 -0.45 0.765429 0.0118445 0.634132
0 0.1 -0.61799 0.766044 0 0.642788
0 0.1 0.61799 0.766044 0 0.642788
0.150379 0.1 -0.6 0.773899 0.0130011 0.638543
0.150379 0.1 0.6 0.775294 0.0127516 0.656277
0.0363518 0.1 -0.61799 0.768651 0.00659917 0.641579
0.0363518 0.1 0.61799 0.768744 0.00648421 0.646587
0.467897 0.1 -0.4125 0.760928 0.0121576 0.633574
0.467897 0.1 0.4125 0.764513 0.0122112 0.674431
0.623803 0.1 2.34188e-17 0.740705 0.0145987 0.655079
0.623803 0.1 0.075 0.741264 0.0146188 0.660816
0.623803 0.1 -0.075 0.740563 0.01454 0.649324
0.574156 0.1 0.2625 0.750868 0.0136278 0.672531
0.574156 0.1 -0.2625 0.74839 0.013448 0.637526
0.623803 0.1 0.15 0.742233 0.0145975 0.666443
0.623803 0.1 -0.15 0.740831 0.0144473 0.643638
0.075776 0.1 0.6375 0.771722 0.0136409 0.650696
0.075776 0.1 -0.6375 0.771523 0.0138736 0.640255
0.522865 0.1 -0.375 0.755135 0.0127319 0.632924
0.522865 0.1 0.375 0.758554 0.0128621 0.676008
0 0.1 0.65701 0.766044 0 0.642788
0 0.1 -0.65701 0.766044 0 0.642788
0.0363518 0.1 0.65701 0.768744 0.00648421 0.646587
0.0363518 0.1 -0.65701 0.768651 0.00659917 0.641579
0.350249 0.1 0.5625 0.774355 0.0111141 0.670751
0.350249 0.1 -0.5625 0.77064 0.011466 0.632817
0.623803 0.1 0.225 0.743598 0.014531 0.671874
0.623803 0.1 -0.225 0.741489 0.014326 0.638103
0.287374 0.1 -0.6 0.773521 0.0117733 0.6341
0.287374 0.1 0.6 0.776718 0.01143 0.666686
0.574157 0.1 -0.3375 0.749342 0.0133145 0.632815
0.574157 0.1 0.3375 0.752535 0.0135013 0.67697
0.411108 0.1 0.525 0.770326 0.0115588 0.674265
0.411108 0.1 -0.525 0.766263 0.0117662 0.63127
0.67013 0.1 0.0375 0.734247 0.0154678 0.658118
0.67013 0.1 -0.0375 0.733901 0.0154212 0.651758
0.219992 0.1 -0.6375 0.776414 0.0121343 0.635857
0.219993 0.1 0.6375 0.778899 0.0118244 0.662064
0 0.1 -0.675 0.766044 0 0.642788
0 0.1 0.675 0.766044 0 0.642788
0.467897 0.1 -0.4875 0.761876 0.012078 0.630199
0.467897 0.1 0.4875 0.766106 0.0120029 0.677217
0.67013 0.1 -0.1125 0.734038 0.0153305 0.645443
0.67013 0.1 0.1125 0.735076 0.0154657 0.664422
0.522865 0.1 0.45 0.760357 0.012666 0.679436
0.522865 0.1 -0.45 0.756226 0.0126149 0.629041
0.150379 0.1 0.675 0.775485 0.0126707 0.656679
0.150379 0.1 -0.675 0.774128 0.0129614 0.637521
0.623803 0.1 0.3 0.745339 0.0144134 0.677032
0.623803 0.1 -0.3 0.742506 0.0141724 0.632784
0 0.1 -0.69299 0.766044 0 0.642788
0 0.1 0.69299 0.766044 0 0.642788
0.0363518 0.1 -0.69299 0.768647 0.00658075 0.641298
0.0363518 0.1 0.69299 0.768742 0.00646701 0.646666
0.67013 0.1 -0.1875 0.734638 0.015201 0.639266
0.67013 0.1 0.1875 0.736374 0.0154133 0.670566
0.574156 0.1 0.4125 0.754493 0.0133197 0.68106
0.574157 0.1 -0.4125 0.750547 0.0131721 0.628382
0.714971 0.1 -2.8382e-17 0.726549 0.0165598 0.654432
0.075776 0.1 -0.7125 0.771516 0.0138363 0.63967
0.075776 0.1 0.7125 0.771718 0.013606 0.650859
0.714971 0.1 -0.075 0.726505 0.0164706 0.647479
0.714971 0.1 0.075 0.727152 0.0165916 0.661397
0.67013 0.1 0.2625 0.738121 0.0153091 0.676455
0.67013 0.1 -0.2625 0.735668 0.0150365 0.633317
0.411108 0.1 -0.6 0.76718 0.0116564 0.628622
0.411108 0.1 0.6 0.771671 0.0112965 0.676174
0.350249 0.1 0.6375 0.775299 0.0108683 0.672144
0.350249 0.1 -0.6375 0.771367 0.0113638 0.630603
0.623803 0.1 0.375 0.747432 0.0142392 0.681846
0.623803 0.1 -0.375 0.743839 0.0139902 0.627751
0.714971 0.1 -0.15 0.727006 0.016329 0.640647
0.714971 0.1 0.15 0.728309 0.0165627 0.668262
0.467897 0.1 -0.5625 0.762943 0.0119638 0.627081
0.467897 0.1 0.5625 0.767794 0.0117389 0.679666
0 0.1 -0.73201 0.766044 0 0.642788
0 0.1 0.73201 0.766044 0 0.642788
0.0363518 0.1 0.73201 0.768742 0.00646701 0.646666
0.0363518 0.1 -0.73201 0.768647 0.00658075 0.641298
0.287374 0.1 -0.675 0.774113 0.011696 0.632335
0.287374 0.1 0.675 0.777371 0.0112448 0.667613
0.522865 0.1 -0.525 0.757481 0.0124719 0.625426
0.522865 0.1 0.525 0.762335 0.0124127 0.682495
0.219993 0.1 -0.7125 0.776827 0.0120903 0.634521
0.219992 0.1 0.7125 0.779267 0.0117065 0.66256
0.714971 0.1 -0.225 0.728017 0.0161393 0.634038
0.714971 0.1 0.225 0.730002 0.016472 0.674913
0 0.1 0.75 0.766044 0 0.642788
0 0.1 -0.75 0.766044 0 0.642788
0.67013 0.1 -0.3375 0.737081 0.0148261 0.627647
0.67013 0.1 0.3375 0.740289 0.0151466 0.682005
0.574156 0.1 -0.4875 0.751957 0.0130082 0.624226
0.574157 0.1 0.4875 0.756699 0.0130813 0.684758
0.756813 0.1 0.0375 0.719422 0.0176714 0.657737
0.756814 0.1 -0.0375 0.719123 0.0175949 0.650145
0.150379 0.1 0.746002 0.775591 0.0126168 0.656831
0.150379 0.1 -0.75 0.774327 0.0129182 0.636601
0.756813 0.1 -0.1125 0.719452 0.0174534 0.642642
0.756813 0.1 0.1125 0.720358 0.0176772 0.665301
0 0.1 0.76799 0.766044 0 0.642788
0 0.1 -0.76799 0.766044 0 0.642788
0.0363518 0.1 0.76799 0.768744 0.00645202 0.646716
0.0363518 0.1 -0.76799 0.76865 0.00656342 0.641049
0.623803 0.1 -0.45 0.745439 0.0137836 0.623054
0.623803 0.1 0.45 0.749845 0.0140058 0.686253
0.714971 0.1 -0.3 0.72949 0.0159 0.627728
0.714971 0.1 0.3 0.732199 0.0163175 0.681244
0.756814 0.1 -0.1875 0.72038 0.017251 0.635348
0.756814 0.1 0.1875 0.721918 0.0176103 0.672705
0.67013 0.1 -0.4125 0.738825 0.0145871 0.622361
0.67013 0.1 0.4125 0.742849 0.0149219 0.687145
0.411108 0.1 0.675 0.772976 0.0110183 0.677739
0.411108 0.1 -0.675 0.76812 0.011512 0.626219
0.467897 0.1 0.6375 0.7695 0.0114365 0.681747
0.467897 0.1 -0.6375 0.764088 0.0118092 0.624239
0.075776 0.1 0.7875 0.771722 0.0135755 0.650964
0.075776 0.1 -0.7875 0.771523 0.013801 0.639152
0.350249 0.1 -0.7125 0.772066 0.0112334 0.628606
0.350249 0.1 0.7125 0.776174 0.010627 0.673223
0.522865 0.1 -0.6 0.758856 0.0122893 0.622137
0.522865 0.1 0.6 0.76442 0.0121057 0.685154
0.797314 0.1 -3.59473e-17 0.711333 0.0190242 0.653159
0.287374 0.1 0.746002 0.77798 0.0110852 0.668154
0.797314 0.1 -0.075 0.711442 0.0188798 0.644989
0.797314 0.1 0.075 0.711941 0.0190858 0.66138
0.756814 0.1 -0.2625 0.721854 0.0169916 0.628366
0.756814 0.1 0.2625 0.724071 0.0174718 0.679829
0.287374 0.1 -0.75 0.774652 0.0116 0.630749
0.574156 0.1 -0.5625 0.75353 0.0127972 0.620445
0.574156 0.1 0.5625 0.7591 0.0127803 0.688027
0 0.1 0.80701 0.766044 0 0.642788
0 0.1 -0.80701 0.766044 0 0.642788
0.714971 0.1 -0.375 0.73137 0.0156147 0.621805
0.714971 0.1 0.375 0.734865 0.0160961 0.687169
0.0363518 0.1 0.80701 0.768744 0.00645202 0.646716
0.0363518 0.1 -0.80701 0.76865 0.00656342 0.641049
0.797314 0.1 -0.15 0.712244 0.0186576 0.637
0.797314 0.1 0.15 0.713265 0.0190607 0.669515
0.623803 0.1 -0.525 0.747257 0.0135375 0.618747
0.623803 0.1 0.525 0.752526 0.0137102 0.690202
0.219992 0.1 0.7875 0.779629 0.0115939 0.662878
0.219992 0.1 -0.7875 0.777191 0.0120349 0.633315
0.149792 0.1 0.80701 0.775806 0.0125434 0.657071
0 0.1 0.825 0.766044 0 0.642788
0 0.1 -0.825 0.766044 0 0.642788
0.797314 0.1 -0.225 0.713689 0.0183641 0.629317
0.797314 0.1 0.225 0.715285 0.018948 0.677426
0.756813 0.1 -0.3375 0.723812 0.0166724 0.62176
0.756813 0.1 0.3375 0.726776 0.0172607 0.686552
0.67013 0.1 0.4875 0.745752 0.0146345 0.691808
0.67013 0.1 -0.4875 0.740847 0.01431 0.617479
0.835106 0.1 -0.0375 0.703535 0.0203018 0.647977
0.835106 0.1 0.0375 0.70373 0.0204329 0.65682
0.150379 0.1 -0.825 0.774498 0.0128726 0.635782
0.835106 0.1 -0.1125 0.70413 0.0200757 0.639272
0.835106 0.1 0.1125 0.70473 0.0204646 0.665664
0 0.1 -0.84299 0.766044 0 0.642788
0 0.1 0.84299 0.766044 0 0.642788
0.0363518 0.1 -0.84299 0.768658 0.00655065 0.640829
0.0363518 0.1 0.84299 0.768748 0.00643777 0.646734
0.714971 0.1 -0.45 0.733599 0.0152878 0.616339
0.714971 0.1 0.45 0.737954 0.0158058 0.692607
0.411108 0.1 0.746002 0.774206 0.0107459 0.678794
0.797314 0.1 -0.3 0.715708 0.0180043 0.622035
0.797314 0.1 0.3 0.717958 0.0187486 0.68498
0.467897 0.1 -0.7125 0.765258 0.0116212 0.621704
0.467897 0.1 0.7125 0.771162 0.0111161 0.683427
0.522865 0.1 0.675 0.766537 0.0117602 0.687379
0.522865 0.1 -0.675 0.760304 0.0120721 0.619194
0.411108 0.1 -0.75 0.76905 0.0113415 0.62408
0.835106 0.1 -0.1875 0.705475 0.0197598 0.630853
0.835107 0.1 0.1875 0.706526 0.0203935 0.674353
0.286844 0.1 0.80701 0.778437 0.0109361 0.668627
0.574156 0.1 0.6375 0.761617 0.0124218 0.690832
0.574157 0.1 -0.6375 0.755225 0.0125506 0.617052
0.350249 0.1 -0.7875 0.772734 0.0110834 0.626827
0.350249 0.1 0.7875 0.776998 0.0103916 0.673988
0.756813 0.1 -0.4125 0.726197 0.0163037 0.615658
0.756814 0.1 0.4125 0.729988 0.0169751 0.6928
0.623803 0.1 -0.6 0.749242 0.0132499 0.614882
0.623803 0.1 0.6 0.755409 0.0133513 0.69365
0.075776 0.1 0.8625 0.77173 0.0135466 0.651
0.075776 0.1 -0.8625 0.77154 0.0137749 0.638692
0.871687 0.1 -3.2767e-18 0.695458 0.0219025 0.651374
0.287374 0.1 -0.825 0.775138 0.0114897 0.629345
0.871687 0.1 -0.075 0.695752 0.0216698 0.641974
0.871687 0.1 0.075 0.696043 0.0220201 0.660866
0.67013 0.1 -0.5625 0.74309 0.0139817 0.613092
0.67013 0.1 0.5625 0.74894 0.0142811 0.695938
0.835106 0.1 0.2625 0.709085 0.0202198 0.682745
0.835106 0.1 -0.2625 0.707493 0.0193677 0.622849
0.797314 0.1 -0.375 0.718236 0.0175814 0.615252
0.797314 0.1 0.375 0.721233 0.0184635 0.692061
0 0.1 -0.88201 0.766044 0 0.642788
0 0.1 0.88201 0.766044 0 0.642788
0.0363518 0.1 0.88201 0.768748 0.00643777 0.646734
0.0363518 0.1 -0.88201 0.768658 0.00655065 0.640829
0.871687 0.1 0.15 0.697514 0.0220181 0.670289
0.871687 0.1 -0.15 0.696898 0.0213288 0.632826
0.714971 0.1 0.525 0.741405 0.0154468 0.697489
0.714971 0.1 -0.525 0.736116 0.014914 0.611389
0.219993 0.1 0.8625 0.779986 0.0114822 0.66304
0.219992 0.1 -0.8625 0.777471 0.0119706 0.632254
0 0.1 0.9 0.766044 0 0.642788
0 0.1 -0.9 0.766044 0 0.642788
0.756813 0.1 0.4875 0.733645 0.0166143 0.698466
0.756814 0.1 -0.4875 0.728941 0.0158859 0.610091
0.871687 0.1 0.225 0.699849 0.0218946 0.679484
0.871687 0.1 -0.225 0.698832 0.0208957 0.624085
0.835106 0.1 -0.3375 0.710099 0.0189034 0.615343
0.835106 0.1 0.3375 0.712346 0.019947 0.690684
0.41063 0.1 0.80701 0.775138 0.0105248 0.679609
0.90582 0.1 -0.0375 0.687459 0.023279 0.645322
0.905821 0.1 0.0375 0.687547 0.0234994 0.655428
0.522865 0.1 0.746002 0.768584 0.0114031 0.688977
0.150379 0.1 0.9 0.776042 0.0124531 0.657155
0.90582 0.1 0.1125 0.688607 0.0235845 0.665566
0.905821 0.1 -0.1125 0.688322 0.0229288 0.635411
0.522865 0.1 -0.75 0.761782 0.0118288 0.616611
0.574156 0.1 0.7125 0.764164 0.0120238 0.69314
0.574156 0.1 -0.7125 0.756987 0.0122746 0.61407
0.797314 0.1 -0.45 0.721208 0.017101 0.60905
0.797314 0.1 0.45 0.72505 0.0180933 0.698573
0.467897 0.1 -0.7875 0.766424 0.01141 0.619478
0.467897 0.1 0.7875 0.772754 0.0107911 0.684685
0.150379 0.1 -0.903998 0.774697 0.0128105 0.635053
0 0.1 0.91799 0.766044 0 0.642788
0 0.1 -0.91799 0.766044 0 0.642788
0.0363518 0.1 0.91799 0.76875 0.00642426 0.64672
0.0363518 0.1 -0.91799 0.768666 0.00653832 0.640634
0.623803 0.1 0.675 0.758408 0.0129369 0.696563
0.623803 0.1 -0.675 0.751338 0.0129319 0.611475
0.411108 0.1 -0.825 0.769956 0.0111524 0.622209
0.871687 0.1 0.3 0.702998 0.0216516 0.688291
0.871687 0.1 -0.3 0.701459 0.0203829 0.615864
0.67013 0.1 -0.6375 0.745492 0.0136214 0.609211
0.67013 0.1 0.6375 0.752335 0.0138607 0.699497
0.90582 0.1 -0.1875 0.690092 0.0224609 0.625882
0.90582 0.1 0.1875 0.69063 0.0235299 0.675554
0.350249 0.1 0.8625 0.777783 0.0101657 0.674454
0.350249 0.1 -0.8625 0.773354 0.0109163 0.625279
0.835106 0.1 -0.4125 0.713241 0.0183692 0.608451
0.835106 0.1 0.4125 0.716251 0.0195784 0.698061
0.714971 0.1 -0.6 0.738851 0.0145004 0.607006
0.714971 0.1 0.6 0.745145 0.0150187 0.701766
0.93886 0.1 -1.15648e-17 0.679223 0.0254025 0.649197
0.075776 0.1 0.9375 0.771736 0.0135191 0.650972
0.075776 0.1 -0.9375 0.771556 0.0137496 0.638287
0.93886 0.1 0.075 0.679747 0.0256093 0.659994
0.93886 0.1 -0.075 0.679756 0.0250396 0.638538
0.756813 0.1 0.5625 0.737676 0.0161823 0.703504
0.756814 0.1 -0.5625 0.731975 0.0154185 0.605149
0.905821 0.1 -0.2625 0.692682 0.0219087 0.616901
0.905821 0.1 0.2625 0.693582 0.0233353 0.685229
0.287374 0.1 0.9 0.779135 0.0107252 0.668926
0.287374 0.1 -0.903998 0.775497 0.0113708 0.628155
0.871687 0.1 0.375 0.706893 0.0212953 0.696559
0.871687 0.1 -0.375 0.7047 0.0197903 0.608245
0.93886 0.1 -0.15 0.681316 0.0245324 0.628207
0.93886 0.1 0.15 0.681334 0.0256529 0.670741
0.797314 0.1 0.525 0.729331 0.0176422 0.704427
0.797314 0.1 -0.525 0.724544 0.0165692 0.603496
0 0.1 0.95701 0.766044 0 0.642788
0 0.1 -0.95701 0.766044 0 0.642788
0.0363518 0.1 0.95701 0.76875 0.00642426 0.64672
0.0363518 0.1 -0.95701 0.768666 0.00653832 0.640634
0.522433 0.1 0.80701 0.77017 0.0111097 0.69017
0.219992 0.1 0.9375 0.780328 0.0113711 0.66305
0.219992 0.1 -0.9375 0.777728 0.0118982 0.631336
0.93886 0.1 0.225 0.683963 0.0255304 0.681251
0.93886 0.1 -0.225 0.683827 0.0239146 0.618401
0.90582 0.1 0.3375 0.697394 0.0230054 0.694418
0.905821 0.1 -0.3375 0.695958 0.021271 0.608532
0.835106 0.1 -0.4875 0.716835 0.0177737 0.602227
0.835107 0.1 0.4875 0.720721 0.0191157 0.704786
0.969689 0.1 -0.0375 0.671194 0.0271838 0.642335
0.969689 0.1 0.0375 0.671088 0.0275351 0.653757
0.61613 0.1 0.75 0.761435 0.0124827 0.698912
0.574156 0.1 -0.7875 0.758775 0.0119801 0.611497
0.574156 0.1 0.7875 0.766667 0.0116043 0.694923
0 0.1 0.975 0.766044 0 0.642788
0 0.1 -0.975 0.766044 0 0.642788
0.623803 0.1 -0.75 0.753493 0.0125927 0.608535
0.969689 0.1 -0.1125 0.672438 0.0266578 0.631168
0.969689 0.1 0.1125 0.672144 0.0277027 0.665244
0.522865 0.1 -0.825 0.763259 0.011569 0.614388
0.67013 0.1 0.7125 0.755839 0.0133828 0.702452
0.67013 0.1 -0.7125 0.747992 0.0132363 0.605856
0.871687 0.1 -0.45 0.708489 0.0191259 0.601325
0.871687 0.1 0.45 0.711458 0.0208296 0.704178
0.467897 0.1 0.8625 0.774268 0.0104708 0.685528
0.467897 0.1 -0.8625 0.767572 0.0111847 0.617565
0.714971 0.1 -0.675 0.741726 0.0140613 0.603204
0.714971 0.1 0.675 0.749082 0.0145244 0.705395
0.93886 0.1 -0.3 0.687131 0.0232079 0.609233
0.93886 0.1 0.3 0.687581 0.0252446 0.691343
0.150379 0.1 0.975 0.776215 0.0123835 0.657094
0.150379 0.1 -0.975 0.774785 0.0127743 0.634442
0.969689 0.1 -0.1875 0.67479 0.025978 0.62048
0.969689 0.1 0.1875 0.674352 0.0276778 0.676587
0.411108 0.1 0.9 0.776544 0.0101876 0.68027
0.756813 0.1 0.6375 0.741992 0.0156787 0.707854
0.756814 0.1 -0.6375 0.735205 0.014925 0.600843
0.990306 0.1 -2.19732e-17 0.666451 0.0283821 0.647258
0 0.1 0.99299 0.766044 0 0.642788
0 0.1 -0.99299 0.766044 0 0.642788
0.411108 0.1 -0.903998 0.770692 0.0109766 0.620661
0.990306 0.1 -0.075 0.667183 0.0278953 0.635637
0.990306 0.1 0.075 0.666919 0.028681 0.659048
0.0363518 0.1 0.99299 0.768753 0.00641091 0.646678
0.0363518 0.1 -0.99299 0.768672 0.00652516 0.640466
0.90582 0.1 -0.4125 0.699879 0.0205423 0.600848
0.905821 0.1 0.4125 0.70198 0.0225536 0.702952
0.797314 0.1 -0.6 0.728151 0.0160021 0.598644
0.797314 0.1 0.6 0.733987 0.0171142 0.709556
0.350249 0.1 0.9375 0.778539 0.00994509 0.674651
0.350249 0.1 -0.9375 0.773947 0.0107487 0.623951
0.990306 0.1 0.15 0.668595 0.028782 0.670805
0.990306 0.1 -0.15 0.669091 0.0272339 0.624397
0.969689 0.1 -0.2625 0.678106 0.0252119 0.61048
0.969689 0.1 0.2625 0.677676 0.0274617 0.687588
0.835106 0.1 -0.5625 0.720782 0.0171327 0.596762
0.835106 0.1 0.5625 0.72566 0.0185704 0.710741
0.93886 0.1 -0.375 0.691147 0.0224008 0.600752
0.93886 0.1 0.375 0.692106 0.024806 0.700836
0.075776 0.1 1.0125 0.771742 0.0134919 0.650884
0.075776 0.1 -1.0125 0.771569 0.0137227 0.637937
0.990306 0.1 -0.225 0.672085 0.026453 0.61378
0.990306 0.1 0.225 0.671453 0.0286796 0.682318
0.287374 0.1 0.975 0.779674 0.0105595 0.66893
0.287374 0.1 -0.975 0.77601 0.0112496 0.627082
0.871687 0.1 -0.525 0.712726 0.0184084 0.595199
0.871687 0.1 0.525 0.716601 0.0202608 0.71103
1.02149 0.1 -0.0369628 0.657022 0.0304151 0.639561
1.02149 0.1 0.0369628 0.656817 0.0308972 0.651852
0.969689 0.1 -0.3375 0.682124 0.0243472 0.601181
0.969689 0.1 0.3375 0.682049 0.0270602 0.69806
1.02149 0.1 -0.110888 0.658493 0.0297341 0.627549
1.02149 0.1 0.110888 0.657899 0.031172 0.66423
0.90582 0.1 0.4875 0.707259 0.0219768 0.710759
0.90582 0.1 -0.4875 0.704356 0.0197486 0.593989
0.623803 0.1 0.819003 0.763567 0.0121538 0.701065
0 0.1 1.03201 0.766044 0 0.642788
0 0.1 -1.03201 0.766044 0 0.642788
0.0363518 0.1 1.03201 0.768753 0.00641091 0.646678
0.0363518 0.1 -1.03201 0.768672 0.00652516 0.640466
0.67013 0.1 -0.7875 0.750534 0.0128395 0.603017
0.67013 0.1 0.7875 0.759357 0.012865 0.70478
0.623803 0.1 -0.825 0.755662 0.0122421 0.606053
0.990306 0.1 -0.3 0.675948 0.0255856 0.603894
0.990306 0.1 0.3 0.675438 0.0283768 0.693391
0.219992 0.1 -1.0125 0.777999 0.0118221 0.630541
0.219993 0.1 1.0125 0.780651 0.0112621 0.662911
0.574156 0.1 0.8625 0.769072 0.0111805 0.69618
0.574157 0.1 -0.8625 0.760558 0.0116753 0.609327
0.714971 0.1 -0.75 0.744677 0.0136068 0.599983
0.714971 0.1 0.75 0.753111 0.0139745 0.70835
1.02149 0.1 0.184814 0.660254 0.0312244 0.676482
1.02149 0.1 -0.184814 0.661195 0.0288711 0.616065
0.756814 0.1 -0.7125 0.738548 0.0144119 0.597187
0.756814 0.1 0.7125 0.746493 0.0151064 0.711484
0.522865 0.1 0.9 0.772561 0.0106492 0.691259
0.93886 0.1 -0.45 0.695845 0.0215044 0.593097
0.93886 0.1 0.45 0.697445 0.0242227 0.709588
1.04168 0.1 0 0.65101 0.0321722 0.64474
1.04168 0.1 -0.0729162 0.651912 0.0315296 0.63229
1.04168 0.1 0.0729162 0.651403 0.032603 0.657378
0.522865 0.1 -0.903998 0.764508 0.0113325 0.61259
0.797314 0.1 -0.675 0.731925 0.0154164 0.594507
0.797314 0.1 0.675 0.738918 0.0165113 0.713916
0.467897 0.1 0.9375 0.775723 0.0101557 0.685978
0.467897 0.1 -0.9375 0.768699 0.0109553 0.615952
0 0.1 1.05 0.766044 0 0.642788
0 0.1 -1.05 0.766044 0 0.642788
0.835106 0.1 -0.6375 0.724968 0.0164719 0.59208
0.835106 0.1 0.6375 0.73097 0.0179428 0.715889
1.04168 0.1 -0.145832 0.654081 0.0306821 0.620246
1.04168 0.1 0.145832 0.653098 0.0328089 0.670007
1.02149 0.1 -0.25874 0.664985 0.0279461 0.605403
1.02149 0.1 0.25874 0.663838 0.0310524 0.688394
0.969689 0.1 -0.4125 0.686953 0.0233563 0.59263
0.969689 0.1 0.4125 0.687363 0.0264914 0.707805
0.411108 0.1 0.975 0.777628 0.00992087 0.680438
0.411108 0.1 -0.975 0.771691 0.0107557 0.619256
0.871687 0.1 -0.6 0.71729 0.0176612 0.589923
0.871687 0.1 0.6 0.722206 0.0196015 0.71703
1.0579 0.1 -0.0360525 0.646523 0.0331042 0.637469
1.0579 0.1 0.0360525 0.646205 0.0336899 0.650276
0.990306 0.1 -0.375 0.680612 0.0245967 0.594747
0.990306 0.1 0.375 0.680461 0.0278847 0.703829
0.150379 0.1 1.05 0.776378 0.0123161 0.656933
0.150379 0.1 -1.05 0.774932 0.0127225 0.633909
1.0579 0.1 0.108157 0.647205 0.0340532 0.663186
1.0579 0.1 -0.108157 0.648134 0.0323034 0.624951
1.04168 0.1 -0.218749 0.657444 0.0297098 0.60891
1.04168 0.1 0.218749 0.656067 0.0327791 0.68241
0.90582 0.1 -0.5625 0.70926 0.0189147 0.588044
0.90582 0.1 0.5625 0.713117 0.0212902 0.717654
0 0.1 -1.06799 0.766044 0 0.642788
0 0.1 1.06799 0.766044 0 0.642788
0.0363518 0.1 -1.06799 0.768679 0.00651337 0.640323
0.0363518 0.1 1.06799 0.768756 0.00639718 0.646609
0.350249 0.1 1.0125 0.779255 0.00972793 0.674594
0.350249 0.1 -1.0125 0.774531 0.0105842 0.622831
1.0579 0.1 -0.180262 0.650993 0.0312983 0.612976
1.0579 0.1 0.180262 0.649512 0.0341745 0.675988
1.02149 0.1 -0.332665 0.669584 0.0269248 0.595497
1.02149 0.1 0.332665 0.668583 0.0306602 0.699773
0.93886 0.1 -0.525 0.701087 0.0205527 0.586418
0.93886 0.1 0.525 0.703487 0.0235059 0.717473
1.08012 0.1 5.49329e-18 0.639551 0.0353178 0.642687
1.04168 0.1 -0.291665 0.6618 0.0286673 0.598409
1.04168 0.1 0.291665 0.660255 0.0325133 0.694382
1.08012 0.1 0.0709941 0.639852 0.0358591 0.655873
1.08012 0.1 -0.0709941 0.64058 0.0345501 0.6297
0.969689 0.1 -0.4875 0.692491 0.0222905 0.585124
0.96969 0.1 0.4875 0.693518 0.0257593 0.716699
1.0579 0.1 0.252367 0.653082 0.0340492 0.688466
1.0579 0.1 -0.252367 0.65501 0.0302384 0.601894
0.990306 0.1 -0.45 0.686085 0.0235024 0.586543
0.990306 0.1 0.45 0.686412 0.0272147 0.713461
0.287374 0.1 -1.05 0.77644 0.0111282 0.626201
0.287374 0.1 1.05 0.780181 0.0103992 0.668745
0.714971 0.1 0.821002 0.75678 0.013446 0.71058
1.08012 0.1 -0.141988 0.642902 0.0335582 0.617127
1.08012 0.1 0.141988 0.64149 0.0361589 0.669067
0.075776 0.1 1.0875 0.771749 0.0134639 0.650739
0.075776 0.1 -1.0875 0.771583 0.0136988 0.637639
0.714971 0.1 -0.825 0.747643 0.013147 0.597329
0.756813 0.1 -0.7875 0.741937 0.0138931 0.594164
0.756814 0.1 0.7875 0.751053 0.0144784 0.71437
0.67013 0.1 -0.8625 0.753071 0.0124369 0.600681
0.67013 0.1 0.8625 0.762797 0.0123294 0.706472
0.797314 0.1 -0.75 0.735774 0.0148225 0.591077
0.797314 0.1 0.75 0.744008 0.0158413 0.717479
0.623803 0.1 0.9 0.76728 0.0115267 0.701873
0.835106 0.1 -0.7125 0.729276 0.0158015 0.588185
0.835106 0.1 0.7125 0.736534 0.0172389 0.720178
0.623803 0.1 -0.903998 0.757528 0.0119293 0.604097
0.574156 0.1 0.9375 0.771372 0.0107599 0.696924
0.574156 0.1 -0.9375 0.762317 0.0113669 0.607542
1.02149 0.1 -0.406591 0.675112 0.0257364 0.586371
1.02149 0.1 0.406591 0.674378 0.0300614 0.710424
1.08012 0.1 -0.212982 0.646468 0.0324298 0.6053
1.08012 0.1 0.212982 0.644438 0.0362025 0.682055
1.10076 0.1 -0.0349809 0.633099 0.036866 0.634806
1.10076 0.1 0.0349809 0.632683 0.0375912 0.648241
0.871687 0.1 -0.675 0.722048 0.0169038 0.585512
0.871687 0.1 0.675 0.728151 0.01886 0.722136
1.04168 0.1 -0.364581 0.667051 0.0274839 0.58868
1.04168 0.1 0.364581 0.665575 0.0320187 0.70573
1.10076 0.1 -0.104943 0.634856 0.0359105 0.621667
1.10076 0.1 0.104943 0.633633 0.0380793 0.661792
0.522865 0.1 0.975 0.774399 0.0102837 0.691642
0.522865 0.1 -0.975 0.766151 0.0110308 0.610979