# UMean  POINT_DATA 63840
# x  y  z  UMean_x  UMean_y  UMean_z
0 0.5 3.39583e-17 0.766044 0 0.642788
0 0.5 -0.00617931 0.766044 0 0.642788
0 0.5 0.00617931 0.766044 0 0.642788
0.0124865 0.5 -0.00617931 0.766018 0.000865929 0.643324
0.0124865 0.5 0.00617931 0.76602 0.000858328 0.643432
0 0.5 -0.0688207 0.766044 0 0.642788
0 0.5 0.0688207 0.766044 0 0.642788
0.0124865 0.5 -0.0688207 0.766018 0.000865929 0.643324
0.0124865 0.5 0.0688207 0.76602 0.000858328 0.643432
0 0.5 -0.075 0.766044 0 0.642788
0 0.5 0.075 0.766044 0 0.642788
0 0.5 -0.0811793 0.766044 0 0.642788
0 0.5 0.0811793 0.766044 0 0.642788
0.0124865 0.5 -0.0811793 0.766018 0.000869374 0.643214
0.0124865 0.5 0.0811793 0.766023 0.000846851 0.643534
0.075776 0.5 -0.0375 0.765866 0.00525053 0.646031
0.075776 0.5 0.0375 0.765877 0.00520425 0.646679
0.075776 0.5 -0.1125 0.765866 0.00527177 0.645364
0.075776 0.5 0.1125 0.765896 0.00513484 0.647297
0 0.5 -0.143821 0.766044 0 0.642788
0 0.5 0.143821 0.766044 0 0.642788
0.0124865 0.5 -0.143821 0.766018 0.000869374 0.643214
0.0124865 0.5 0.143821 0.766023 0.000846851 0.643534
0 0.5 -0.15 0.766044 0 0.642788
0 0.5 0.15 0.766044 0 0.642788
0.151149 0.5 -0.00137318 0.764773 0.00873443 0.64863
0 0.5 -0.156179 0.766044 0 0.642788
0 0.5 0.156179 0.766044 0 0.642788
0.0124865 0.5 -0.156179 0.766018 0.000868817 0.643101
0.0124865 0.5 0.156179 0.766028 0.000832007 0.643629
0.151149 0.5 0.075 0.764824 0.00868961 0.649746
0.151149 0.5 -0.075 0.764723 0.0088011 0.647433
0.075776 0.5 -0.1875 0.765866 0.00526903 0.644685
0.075776 0.5 0.1875 0.76592 0.00504509 0.647876
0.151149 0.5 0.15 0.764903 0.00858416 0.650836
0.151149 0.5 -0.15 0.764702 0.00880951 0.646236
0 0.5 -0.218821 0.766044 0 0.642788
0 0.5 0.218821 0.766044 0 0.642788
0.0124865 0.5 -0.218821 0.766018 0.000868817 0.643101
0.0124865 0.5 0.218821 0.766028 0.000832007 0.643629
0.219992 0.5 0.0375 0.763774 0.0120325 0.651529
0.219993 0.5 -0.0375 0.763684 0.012095 0.64989
0 0.5 -0.225 0.766044 0 0.642788
0 0.5 0.225 0.766044 0 0.642788
0 0.5 -0.231179 0.766044 0 0.642788
0 0.5 0.231179 0.766044 0 0.642788
0.0124865 0.5 -0.231179 0.766015 0.000865389 0.642993
0.0124865 0.5 0.231179 0.766033 0.000814348 0.643717
0.219992 0.5 0.1125 0.76389 0.0119255 0.653119
0.219993 0.5 -0.1125 0.763626 0.012123 0.648222
0.151149 0.5 -0.225 0.76469 0.0087872 0.64504
0.151149 0.5 0.225 0.765001 0.00844615 0.651861
0.075776 0.5 -0.2625 0.765848 0.00524842 0.644031
0.075776 0.5 0.2625 0.76595 0.00493767 0.648408
0.288069 0.5 -0.00137318 0.761034 0.0153301 0.652335
0.219992 0.5 0.1875 0.764039 0.0117733 0.654631
0.219993 0.5 -0.1875 0.763603 0.0121102 0.646514
0 0.5 0.293821 0.766044 0 0.642788
0 0.5 -0.293821 0.766044 0 0.642788
0.0124865 0.5 -0.293821 0.766015 0.000865389 0.642993
0.0124865 0.5 0.293821 0.766033 0.000814348 0.643717
0.288069 0.5 -0.075 0.760889 0.0154016 0.650093
0.288069 0.5 0.075 0.76119 0.0152578 0.654408
0 0.5 -0.3 0.766044 0 0.642788
0 0.5 0.3 0.766044 0 0.642788
0 0.5 0.306179 0.766044 0 0.642788
0 0.5 -0.306179 0.766044 0 0.642788
0.0124865 0.5 -0.306179 0.766015 0.000860613 0.642877
0.0124865 0.5 0.306179 0.766039 0.000794192 0.643797
0.288069 0.5 -0.15 0.760831 0.0153977 0.647897
0.288069 0.5 0.15 0.761431 0.0151055 0.656464
0.151149 0.5 -0.3 0.764691 0.00873969 0.64386
0.151149 0.5 0.3 0.765115 0.00827772 0.652807
0.219992 0.5 -0.2625 0.763597 0.0120584 0.644841
0.219992 0.5 0.2625 0.764219 0.0115759 0.656047
0.075776 0.5 0.3375 0.765984 0.00481481 0.648888
0.075776 0.5 -0.3375 0.765846 0.00521951 0.643334
0.350249 0.5 -0.0375 0.758356 0.018478 0.652403
0.350249 0.5 0.0375 0.758565 0.0184007 0.655071
0.288069 0.5 -0.225 0.760836 0.0153423 0.64571
0.288069 0.5 0.225 0.761729 0.0148988 0.658419
0.350249 0.5 0.1125 0.758864 0.0182575 0.657654
0.350249 0.5 -0.1125 0.758234 0.0184934 0.649729
0 0.5 0.368821 0.766044 0 0.642788
0 0.5 -0.368821 0.766044 0 0.642788
0.0124865 0.5 -0.368821 0.766015 0.000860613 0.642877
0.0124865 0.5 0.368821 0.766039 0.000794192 0.643797
0 0.5 -0.375 0.766044 0 0.642788
0 0.5 0.375 0.766044 0 0.642788
0 0.5 -0.381179 0.766044 0 0.642788
0 0.5 0.381179 0.766044 0 0.642788
0.0124865 0.5 -0.381179 0.766016 0.000853335 0.642769
0.0124865 0.5 0.381179 0.766045 0.000771977 0.643866
0.350249 0.5 -0.1875 0.758211 0.0184484 0.647056
0.350249 0.5 0.1875 0.759247 0.0180539 0.660133
0.219992 0.5 -0.3375 0.763627 0.0119727 0.643211
0.219992 0.5 0.3375 0.764423 0.0113369 0.657344
0.151149 0.5 -0.375 0.764716 0.00866842 0.642701
0.151149 0.5 0.375 0.765243 0.00808184 0.653661
0.411736 0.5 -0.00137318 0.754677 0.0216419 0.654837
0.288069 0.5 -0.3 0.760897 0.0152379 0.643571
0.288069 0.5 0.3 0.76208 0.0146376 0.660244
0.411736 0.5 -0.075 0.754444 0.021707 0.651541
0.411736 0.5 0.075 0.754969 0.0215487 0.657881
0.075776 0.5 -0.4125 0.765849 0.00517573 0.642682
0.075776 0.5 0.4125 0.766022 0.00467931 0.649311
0.350249 0.5 -0.2625 0.758278 0.0183394 0.644424
0.350249 0.5 0.2625 0.75971 0.0177844 0.662484
0.411736 0.5 -0.15 0.75438 0.021669 0.648349
0.411736 0.5 0.15 0.755427 0.0213525 0.660938
0 0.5 -0.443821 0.766044 0 0.642788
0 0.5 0.443821 0.766044 0 0.642788
0.0124865 0.5 -0.443821 0.766016 0.000853335 0.642769
0.0124865 0.5 0.443821 0.766045 0.000771977 0.643866
0 0.5 -0.45 0.766044 0 0.642788
0 0.5 0.45 0.766044 0 0.642788
0 0.5 -0.456179 0.766044 0 0.642788
0 0.5 0.456179 0.766044 0 0.642788
0.0124865 0.5 -0.456179 0.766018 0.000843035 0.642663
0.0124865 0.5 0.456179 0.766052 0.000748155 0.643926
0.219992 0.5 -0.4125 0.763693 0.0118506 0.641614
0.219993 0.5 0.4125 0.764646 0.0110595 0.658508
0.411736 0.5 -0.225 0.754449 0.0215533 0.645197
0.411736 0.5 0.225 0.756007 0.02108 0.663865
0.467897 0.5 0.0375 0.751202 0.0246592 0.657514
0.467897 0.5 -0.0375 0.750889 0.0247392 0.653834
0.288069 0.5 -0.375 0.761022 0.0150861 0.641497
0.288069 0.5 0.375 0.762477 0.0143254 0.661914
0.151149 0.5 -0.45 0.764764 0.00857007 0.64159
0.151149 0.5 0.45 0.765382 0.00786173 0.654413
0.467897 0.5 -0.1125 0.750749 0.0247256 0.65014
0.467897 0.5 0.1125 0.751688 0.0244861 0.661107
0.350249 0.5 0.3375 0.760249 0.0174513 0.664665
0.350249 0.5 -0.3375 0.758428 0.018173 0.641865
0.075776 0.5 -0.4875 0.76586 0.00511334 0.642039
0.075776 0.5 0.4875 0.766064 0.00453371 0.649673
0.467897 0.5 -0.1875 0.750778 0.0246194 0.646476
0.467897 0.5 0.1875 0.752337 0.0242241 0.664618
0.411736 0.5 -0.3 0.754644 0.0213626 0.642124
0.411736 0.5 0.3 0.7567 0.0207305 0.666616
0 0.5 -0.518821 0.766044 0 0.642788
0 0.5 0.518821 0.766044 0 0.642788
0.0124865 0.5 0.518821 0.766052 0.000748155 0.643926
0.0124865 0.5 -0.518821 0.766018 0.000843035 0.642663
0.523432 0.5 -0.00137318 0.746417 0.0278803 0.656341
0 0.5 -0.525 0.766044 0 0.642788
0 0.5 0.525 0.766044 0 0.642788
0.523432 0.5 -0.075 0.746124 0.0279183 0.65198
0.523432 0.5 0.075 0.74684 0.0277822 0.66038
0 0.5 -0.531179 0.766044 0 0.642788
0 0.5 0.531179 0.766044 0 0.642788
0.0124865 0.5 -0.531179 0.766023 0.000829663 0.642563
0.0124865 0.5 0.531179 0.76606 0.000722956 0.643975
0.288069 0.5 -0.45 0.761211 0.0148878 0.639521
0.288069 0.5 0.45 0.762913 0.0139662 0.663408
0.219992 0.5 -0.4875 0.763799 0.0116914 0.640125
0.219993 0.5 0.4875 0.764884 0.0107481 0.659523
0.467897 0.5 -0.2625 0.750975 0.0244214 0.642895
0.467897 0.5 0.2625 0.753141 0.023874 0.667926
0.350249 0.5 -0.4125 0.758673 0.0179461 0.63941
0.350249 0.5 0.4125 0.760851 0.0170587 0.666649
0.523432 0.5 -0.15 0.746099 0.0278211 0.647781
0.523432 0.5 0.15 0.747524 0.0275508 0.664463
0.151149 0.5 -0.525 0.764838 0.00844568 0.640535
0.151149 0.5 0.525 0.765529 0.00762085 0.655057
0.411736 0.5 -0.375 0.754964 0.0210997 0.639171
0.411736 0.5 0.375 0.757495 0.0203071 0.669161
0.075776 0.5 -0.5625 0.765891 0.00503241 0.641437
0.075776 0.5 0.5625 0.766109 0.0043798 0.649971
0.523432 0.5 -0.225 0.746291 0.0276158 0.643662
0.523432 0.5 0.225 0.748416 0.0272143 0.668393
0.574156 0.5 -0.0375 0.741751 0.0309542 0.654335
0.574156 0.5 0.0375 0.742154 0.030897 0.659063
0.467897 0.5 0.3375 0.754087 0.0234346 0.671037
0.467897 0.5 -0.3375 0.751332 0.0241383 0.63943
0.574156 0.5 -0.1125 0.741622 0.0308846 0.649611
0.574156 0.5 0.1125 0.74282 0.0307145 0.663718
0 0.5 -0.593821 0.766044 0 0.642788
0 0.5 0.593821 0.766044 0 0.642788
0.0124865 0.5 -0.593821 0.766023 0.000829663 0.642563
0.0124865 0.5 0.593821 0.76606 0.000722956 0.643975
0.288069 0.5 -0.525 0.761451 0.0146504 0.637653
0.288069 0.5 0.525 0.763377 0.0135656 0.664709
0 0.5 -0.6 0.766044 0 0.642788
0 0.5 0.6 0.766044 0 0.642788
0.350249 0.5 -0.4875 0.758997 0.0176681 0.637099
0.350249 0.5 0.4875 0.761503 0.0166119 0.668412
0.523432 0.5 -0.3 0.746694 0.027308 0.639672
0.523432 0.5 0.3 0.749502 0.0267745 0.672111
0.219992 0.5 -0.5625 0.76394 0.0115033 0.638694
0.219992 0.5 0.5625 0.765134 0.0104075 0.660381
0.574156 0.5 -0.1875 0.741759 0.0306895 0.644955
0.574156 0.5 0.1875 0.743744 0.0304084 0.668235
0 0.5 -0.606179 0.766044 0 0.642788
0 0.5 0.606179 0.766044 0 0.642788
0.0124865 0.5 -0.606179 0.766027 0.000814536 0.642471
0.0124865 0.5 0.606179 0.766067 0.000696734 0.644014
0.411736 0.5 -0.45 0.755398 0.0207705 0.636372
0.411736 0.5 0.45 0.758375 0.0198153 0.671461
0.151149 0.5 -0.6 0.764925 0.00830016 0.639544
0.151149 0.5 0.6 0.765682 0.00736286 0.655587
0.62168 0.5 2.64545e-17 0.736943 0.0339338 0.657052
0.467897 0.5 0.4125 0.755154 0.0229136 0.673885
0.467897 0.5 -0.4125 0.751846 0.0237709 0.636147
0.624316 0.5 0.0729402 0.737198 0.0340182 0.662087
0.624316 0.5 -0.075 0.736334 0.0340876 0.651576
0.574156 0.5 -0.2625 0.742157 0.0303735 0.640433
0.574157 0.5 0.2625 0.744917 0.0299844 0.672562
0.075776 0.5 -0.6375 0.765914 0.00494071 0.640882
0.075776 0.5 0.6375 0.766155 0.00421971 0.650204
0.624316 0.5 -0.15 0.736396 0.0339066 0.646364
0.624316 0.5 0.15 0.738113 0.0337684 0.667226
0.523432 0.5 -0.375 0.747293 0.0269033 0.635866
0.523432 0.5 0.375 0.750762 0.0262354 0.675571
0.350249 0.5 -0.5625 0.759371 0.0173521 0.634908
0.350249 0.5 0.5625 0.762193 0.0161177 0.669934
0.624316 0.5 -0.225 0.736778 0.0335869 0.641282
0.624316 0.5 0.225 0.739335 0.0333799 0.672187
0.288069 0.5 0.6 0.763862 0.0131296 0.665804
0.288069 0.5 -0.6 0.761724 0.0143801 0.635899
0.574156 0.5 -0.3375 0.742802 0.0299466 0.636091
0.574156 0.5 0.3375 0.746316 0.029444 0.676635
0.411736 0.5 -0.525 0.755917 0.0203879 0.633739
0.411736 0.5 0.525 0.759323 0.0192614 0.673492
0 0.5 -0.668821 0.766044 0 0.642788
0 0.5 0.668821 0.766044 0 0.642788
0.0124865 0.5 -0.668821 0.766027 0.000814536 0.642471
0.0124865 0.5 0.668821 0.766067 0.000696734 0.644014
0.67013 0.5 0.0375 0.731753 0.0371424 0.659878
0.67013 0.5 -0.0375 0.731289 0.037156 0.654082
0.219993 0.5 -0.6375 0.764085 0.0112897 0.637369
0.219993 0.5 0.6375 0.76539 0.0100434 0.661076
0 0.5 -0.675 0.766044 0 0.642788
0 0.5 0.675 0.766044 0 0.642788
0.467897 0.5 0.4875 0.756323 0.0223157 0.676442
0.467897 0.5 -0.4875 0.75248 0.0233357 0.633049
0.67013 0.5 -0.1125 0.731216 0.0370077 0.648316
0.67013 0.5 0.1125 0.7326 0.036967 0.665618
0 0.5 -0.681179 0.766044 0 0.642788
0 0.5 0.681179 0.766044 0 0.642788
0.0124865 0.5 -0.681179 0.76603 0.000797861 0.642386
0.0124865 0.5 0.681179 0.766074 0.000670053 0.644041
0.523432 0.5 -0.45 0.748061 0.0264124 0.632279
0.523432 0.5 0.45 0.752167 0.0256041 0.678721
0.151149 0.5 -0.675 0.765014 0.00813737 0.638626
0.151149 0.5 0.675 0.765837 0.00709189 0.656
0.624316 0.5 -0.3 0.737464 0.0331377 0.636392
0.624316 0.5 0.3 0.740845 0.0328575 0.676907
0.67013 0.5 0.1875 0.733813 0.0366327 0.671207
0.67013 0.5 -0.1875 0.731525 0.0367016 0.642667
0.574156 0.5 -0.4125 0.743665 0.0294141 0.632004
0.574157 0.5 0.4125 0.747913 0.0287954 0.680389
0.708171 0.5 1.88651e-17 0.72668 0.0398277 0.657325
0.075776 0.5 -0.7125 0.765937 0.00483942 0.640368
0.075776 0.5 0.7125 0.766199 0.00405634 0.650372
0.715434 0.5 0.0736268 0.726541 0.0401963 0.663298
0.715434 0.5 -0.075 0.725447 0.0402285 0.650493
0.67013 0.5 0.2625 0.735373 0.0361458 0.676567
0.67013 0.5 -0.2625 0.732199 0.0362468 0.637214
0.350249 0.5 -0.6375 0.759788 0.0169973 0.632888
0.350249 0.5 0.6375 0.762908 0.0155836 0.671201
0.411736 0.5 -0.6 0.756506 0.0199585 0.631296
0.411736 0.5 0.6 0.760321 0.0186535 0.675233
0.624316 0.5 -0.375 0.738424 0.0325683 0.631758
0.624316 0.5 0.375 0.742617 0.0322073 0.681315
0.715434 0.5 -0.15 0.725649 0.0399439 0.644262
0.715434 0.5 0.15 0.727548 0.0400111 0.669378
0.467897 0.5 -0.5625 0.753206 0.0228447 0.630163
0.467897 0.5 0.5625 0.757571 0.0216494 0.67868
0.288069 0.5 -0.675 0.762023 0.0140798 0.634285
0.288069 0.5 0.675 0.764359 0.0126652 0.666687
0.523432 0.5 -0.525 0.748964 0.0258504 0.628935
0.523432 0.5 0.525 0.753692 0.0248882 0.681526
0 0.5 -0.743821 0.766044 0 0.642788
0 0.5 0.743821 0.766044 0 0.642788
0.0124865 0.5 -0.743821 0.76603 0.000797861 0.642386
0.0124865 0.5 0.743821 0.766074 0.000670053 0.644041
0.219992 0.5 0.7125 0.76565 0.00966153 0.661606
0.219992 0.5 -0.7125 0.764243 0.0110538 0.636145
0.715434 0.5 -0.225 0.726287 0.0394906 0.638221
0.715434 0.5 0.225 0.729114 0.0395834 0.675409
0 0.5 -0.75 0.766044 0 0.642788
0 0.5 0.75 0.766044 0 0.642788
0.67013 0.5 0.3375 0.737259 0.0355123 0.681631
0.67013 0.5 -0.3375 0.733209 0.0356557 0.632017
0.574156 0.5 -0.4875 0.744702 0.0287958 0.628168
0.574156 0.5 0.4875 0.749673 0.0280462 0.683781
0 0.5 -0.756179 0.766044 0 0.642788
0 0.5 0.756179 0.766044 0 0.642788
0.0124865 0.5 -0.756179 0.766035 0.000779941 0.642309
0.0124865 0.5 0.756179 0.76608 0.000643281 0.644058
0.756813 0.5 -0.0375 0.719895 0.0433352 0.653227
0.756813 0.5 0.0375 0.720387 0.0433831 0.660109
0.151149 0.5 -0.75 0.765111 0.00795966 0.637785
0.151149 0.5 0.75 0.765992 0.00681258 0.656296
0.756813 0.5 -0.1125 0.719924 0.0430905 0.646411
0.756813 0.5 0.1125 0.721397 0.0432317 0.666953
0.624316 0.5 -0.45 0.739616 0.0318927 0.627419
0.624316 0.5 0.45 0.744612 0.0314378 0.685351
0.715434 0.5 -0.3 0.727327 0.0388805 0.632448
0.715434 0.5 0.3 0.731074 0.0389876 0.681157
0.756813 0.5 0.1875 0.722905 0.042883 0.673645
0.756813 0.5 -0.1875 0.720462 0.0426565 0.639768
0.67013 0.5 -0.4125 0.734508 0.0349379 0.627147
0.67013 0.5 0.4125 0.739435 0.0347401 0.686324
0.411736 0.5 -0.675 0.757158 0.019487 0.629066
0.411736 0.5 0.675 0.761349 0.0180001 0.676668
0.467897 0.5 0.6375 0.758874 0.0209237 0.680575
0.467897 0.5 -0.6375 0.754024 0.0223004 0.627526
0.075776 0.5 -0.7875 0.765963 0.00473021 0.639898
0.075776 0.5 0.7875 0.766238 0.00389257 0.650475
0.350249 0.5 -0.7125 0.760246 0.01661 0.631041
0.350249 0.5 0.7125 0.763635 0.0150178 0.672206
0.523432 0.5 -0.6 0.749987 0.0252261 0.62587
0.523432 0.5 0.6 0.755306 0.0240974 0.683956
0.797732 0.5 2.68882e-17 0.713981 0.0465124 0.656278
0.756813 0.5 -0.2625 0.721478 0.042045 0.633394
0.756814 0.5 0.2625 0.724875 0.0423441 0.680079
0.797732 0.5 0.0736268 0.714845 0.0464603 0.663958
0.797732 0.5 -0.075 0.713791 0.0463212 0.648878
0.288069 0.5 -0.75 0.762347 0.013754 0.632813
0.288069 0.5 0.75 0.76486 0.0121796 0.667354
0.574156 0.5 -0.5625 0.745895 0.028104 0.624648
0.574157 0.5 0.5625 0.75156 0.0272061 0.686771
0.715434 0.5 -0.375 0.728724 0.0381265 0.627005
0.715434 0.5 0.375 0.733394 0.038232 0.686543
0.797732 0.5 -0.15 0.714188 0.0459201 0.641624
0.797732 0.5 0.15 0.716129 0.0462451 0.671045
0.624316 0.5 -0.525 0.741009 0.0311282 0.623416
0.624316 0.5 0.525 0.746786 0.0305595 0.688964
0.219992 0.5 -0.7875 0.764413 0.0107989 0.635031
0.219992 0.5 0.7875 0.765914 0.00926861 0.66197
0 0.5 -0.818821 0.766044 0 0.642788
0 0.5 0.818821 0.766044 0 0.642788
0.0124865 0.5 0.818821 0.76608 0.000643281 0.644058
0.0124865 0.5 -0.818821 0.766035 0.000779941 0.642309
0 0.5 -0.825 0.766044 0 0.642788
0 0.5 0.825 0.766044 0 0.642788
0.756813 0.5 0.3375 0.727275 0.0416242 0.686163
0.756814 0.5 -0.3375 0.722921 0.0412708 0.627363
0.67013 0.5 -0.4875 0.736054 0.0341151 0.622624
0.67013 0.5 0.4875 0.74185 0.0338401 0.690582
0.797732 0.5 -0.225 0.715145 0.04532 0.634629
0.797732 0.5 0.225 0.718047 0.0457895 0.678174
0 0.5 -0.831179 0.766044 0 0.642788
0 0.5 0.831179 0.766044 0 0.642788
0.0124865 0.5 -0.831179 0.76604 0.00076094 0.642239
0.0124865 0.5 0.831179 0.766086 0.00061659 0.644065
0.835106 0.5 0.0375 0.708319 0.0495733 0.659895
0.835106 0.5 -0.0375 0.707837 0.0494545 0.651915
0.151149 0.5 -0.825 0.765215 0.00776919 0.637023
0.151149 0.5 0.825 0.766149 0.00652738 0.656479
0.835106 0.5 0.1125 0.709464 0.0494562 0.667857
0.835106 0.5 -0.1125 0.708019 0.0491048 0.644039
0.715434 0.5 -0.45 0.730431 0.037246 0.621948
0.715434 0.5 0.45 0.736026 0.0373272 0.691492
0.797732 0.5 -0.3 0.716605 0.0445348 0.627985
0.797732 0.5 0.3 0.720478 0.0451291 0.684979
0.467897 0.5 0.7125 0.760207 0.0201487 0.682115
0.467897 0.5 -0.7125 0.754913 0.0217132 0.625145
0.523432 0.5 -0.675 0.75111 0.024548 0.623106
0.523432 0.5 0.675 0.756977 0.0232423 0.68599
0.411736 0.5 -0.75 0.75786 0.0189808 0.627058
0.411736 0.5 0.75 0.762388 0.0173109 0.677792
0.835106 0.5 -0.1875 0.70885 0.0485344 0.636399
0.835106 0.5 0.1875 0.711254 0.0491039 0.675666
0.574156 0.5 -0.6375 0.747223 0.027346 0.621466
0.574157 0.5 0.6375 0.753539 0.0262861 0.68933
0.350249 0.5 -0.7875 0.760737 0.0161951 0.629377
0.350249 0.5 0.7875 0.76436 0.0144287 0.672947
0.756813 0.5 -0.4125 0.724733 0.0403476 0.621728
0.756814 0.5 0.4125 0.730064 0.0407333 0.691821
0.075776 0.5 -0.8625 0.765991 0.00461419 0.639474
0.075776 0.5 0.8625 0.766274 0.00372901 0.650517
0.624316 0.5 0.6 0.749097 0.0295841 0.692115
0.624316 0.5 -0.6 0.742575 0.0302865 0.619794
0.872064 0.5 5.91974e-17 0.701794 0.0525823 0.655338
0.870122 0.5 0.075 0.703067 0.0524248 0.664228
0.288069 0.5 -0.825 0.762692 0.0134065 0.631492
0.288069 0.5 0.825 0.765357 0.0116776 0.667808
0.67013 0.5 -0.5625 0.737822 0.0332018 0.618523
0.67013 0.5 0.5625 0.744452 0.0328253 0.694353
0.872064 0.5 -0.075 0.701693 0.0522998 0.646859
0.835106 0.5 -0.2625 0.710276 0.0477565 0.629115
0.835106 0.5 0.2625 0.713645 0.0485228 0.683198
0.797732 0.5 -0.375 0.71851 0.0435811 0.621754
0.797732 0.5 0.375 0.723375 0.0442746 0.691367
0.872064 0.5 0.14794 0.704208 0.0523914 0.672333
0.872064 0.5 -0.15 0.702323 0.051775 0.638576
0.715434 0.5 -0.525 0.732412 0.0362587 0.617335
0.715434 0.5 0.525 0.738911 0.0362864 0.695938
0.219992 0.5 0.8625 0.766186 0.0088641 0.662178
0.219993 0.5 -0.8625 0.764593 0.0105274 0.634031
0 0.5 -0.893821 0.766044 0 0.642788
0 0.5 0.893821 0.766044 0 0.642788
0.0124865 0.5 -0.893821 0.76604 0.00076094 0.642239
0.0124865 0.5 0.893821 0.766086 0.00061659 0.644065
0 0.5 -0.9 0.766044 0 0.642788
0 0.5 0.9 0.766044 0 0.642788
0.756813 0.5 -0.4875 0.72688 0.0393002 0.616561
0.756813 0.5 0.4875 0.733181 0.0396841 0.696963
0.872064 0.5 -0.225 0.70365 0.0510204 0.630635
0.872064 0.5 0.225 0.706477 0.051918 0.680571
0.835106 0.5 -0.3375 0.712214 0.0467878 0.622265
0.835106 0.5 0.3375 0.716583 0.0477244 0.690325
0 0.5 0.906179 0.766044 0 0.642788
0 0.5 -0.906179 0.766044 0 0.642788
0.0124865 0.5 -0.906179 0.766045 0.000741102 0.642177
0.0124865 0.5 0.906179 0.766089 0.000590865 0.644062
0.90582 0.5 -0.0375 0.695514 0.055415 0.650252
0.90582 0.5 0.0375 0.695976 0.0556118 0.659334
0.151149 0.5 -0.9 0.765324 0.00756794 0.636342
0.151149 0.5 0.9 0.766304 0.00623976 0.656553
0.90582 0.5 -0.1125 0.695864 0.054954 0.641312
0.905821 0.5 0.1125 0.697252 0.0555372 0.66842
0.523432 0.5 -0.75 0.752307 0.0238268 0.620652
0.523432 0.5 0.75 0.758673 0.0223346 0.687616
0.574156 0.5 -0.7125 0.748652 0.026536 0.618637
0.574156 0.5 0.7125 0.75557 0.0252985 0.691438
0.797732 0.5 -0.45 0.720816 0.0424803 0.61601
0.797732 0.5 0.45 0.726683 0.0432385 0.697246
0.467897 0.5 0.7875 0.761543 0.0193355 0.683293
0.467897 0.5 -0.7875 0.755856 0.0210908 0.623033
0.624316 0.5 -0.675 0.744275 0.0293805 0.616569
0.624316 0.5 0.675 0.751497 0.0285248 0.694775
0.411736 0.5 -0.825 0.758598 0.0184462 0.625277
0.411736 0.5 0.825 0.763415 0.0165942 0.678602
0.872064 0.5 0.3 0.709391 0.0512027 0.688452
0.872064 0.5 -0.3 0.705584 0.050052 0.623141
0.67013 0.5 -0.6375 0.739766 0.0322107 0.614863
0.67013 0.5 0.6375 0.747187 0.0317094 0.697598
0.90582 0.5 0.1875 0.69932 0.055191 0.67735
0.905821 0.5 -0.1875 0.697014 0.054241 0.632677
0.350249 0.5 -0.8625 0.761252 0.0157572 0.627901
0.350249 0.5 0.8625 0.76506 0.0138202 0.673429
0.835106 0.5 -0.4125 0.714616 0.0456486 0.615892
0.835106 0.5 0.4125 0.72002 0.0467207 0.696963
0.715434 0.5 -0.6 0.734619 0.0351804 0.613209
0.715434 0.5 0.6 0.741986 0.035125 0.699831
0.939201 0.5 2.75387e-17 0.689204 0.0586631 0.654097
0.075776 0.5 0.9375 0.766297 0.00357045 0.650501
0.075776 0.5 -0.9375 0.766022 0.00449287 0.639097
0.939111 0.5 0.075 0.69018 0.0587515 0.664571
0.939201 0.5 -0.075 0.689237 0.0582815 0.644511
0.756813 0.5 0.5625 0.736555 0.0384937 0.701535
0.756814 0.5 -0.5625 0.729314 0.0381465 0.611925
0.90582 0.5 0.2625 0.702136 0.0545784 0.685985
0.905821 0.5 -0.2625 0.698899 0.0532903 0.624507
0.288069 0.5 -0.9 0.76305 0.0130409 0.630322
0.288069 0.5 0.9 0.765844 0.0111628 0.668056
0.872064 0.5 -0.375 0.708049 0.0488904 0.616147
0.872064 0.5 0.375 0.712888 0.050258 0.695854
0.939201 0.5 0.148627 0.691899 0.0585332 0.673525
0.939201 0.5 -0.15 0.69016 0.0576226 0.635175
0.797732 0.5 -0.525 0.723473 0.0412554 0.610827
0.797732 0.5 0.525 0.730325 0.0420374 0.702537
0.219992 0.5 0.9375 0.766457 0.00845696 0.662232
0.219992 0.5 -0.9375 0.764781 0.0102422 0.633146
0.939201 0.5 -0.225 0.691938 0.0567007 0.626275
0.939201 0.5 0.225 0.694432 0.0580698 0.682744
0.905821 0.5 -0.3375 0.701368 0.0521219 0.616867
0.90582 0.5 0.3375 0.705627 0.0537119 0.694175
0.835106 0.5 -0.4875 0.717451 0.0443658 0.610119
0.835106 0.5 0.4875 0.723878 0.045527 0.703
0 0.5 0.968821 0.766044 0 0.642788
0 0.5 -0.968821 0.766044 0 0.642788
0.0124865 0.5 -0.968821 0.766045 0.000741102 0.642177
0.0124865 0.5 0.968821 0.766089 0.000590865 0.644062
0.969689 0.5 -0.0375 0.682693 0.0615428 0.648308
0.969689 0.5 0.0375 0.683062 0.061824 0.65854
0.574156 0.5 -0.7875 0.750148 0.0256845 0.616166
0.574156 0.5 0.7875 0.757615 0.024257 0.693087
0 0.5 -0.975 0.766044 0 0.642788
0 0.5 0.975 0.766044 0 0.642788
0.624316 0.5 -0.75 0.746068 0.0284244 0.613751
0.624316 0.5 0.75 0.753941 0.0273957 0.696929
0.969689 0.5 -0.1125 0.683299 0.0609588 0.638255
0.96969 0.5 0.1125 0.684415 0.0617933 0.6688
0.523432 0.5 -0.825 0.753552 0.0230719 0.618511
0.523432 0.5 0.825 0.76036 0.0213869 0.68883
0.67013 0.5 0.7125 0.750002 0.0305072 0.700294
0.67013 0.5 -0.7125 0.741834 0.0311592 0.611658
0 0.5 -0.981179 0.766044 0 0.642788
0 0.5 0.981179 0.766044 0 0.642788
0.467897 0.5 0.8625 0.762853 0.018494 0.684111
0.467897 0.5 -0.8625 0.756832 0.0204406 0.621187
0.0124865 0.5 -0.981179 0.76605 0.000720664 0.642122
0.0124865 0.5 0.981179 0.766092 0.000565745 0.644051
0.872064 0.5 -0.45 0.711016 0.0475609 0.609739
0.872064 0.5 0.45 0.716896 0.0490989 0.702677
0.715434 0.5 -0.675 0.73699 0.0340285 0.609589
0.715434 0.5 0.675 0.745186 0.0338587 0.703135
0.939201 0.5 -0.3 0.694416 0.055535 0.617935
0.939201 0.5 0.3 0.697835 0.0573003 0.691724
0.151149 0.5 0.975 0.766452 0.00595358 0.656524
0.151149 0.5 -0.975 0.765437 0.00735812 0.635743
0.969689 0.5 -0.1875 0.684875 0.0600862 0.628573
0.969689 0.5 0.1875 0.68673 0.0614504 0.6789
0.756813 0.5 -0.6375 0.731963 0.0369042 0.607843
0.756813 0.5 0.6375 0.740107 0.0371791 0.705483
0.411736 0.5 -0.9 0.759358 0.017889 0.623724
0.411736 0.5 0.9 0.764414 0.0158564 0.679105
0.90582 0.5 -0.4125 0.704399 0.0507605 0.609778
0.90582 0.5 0.4125 0.709723 0.0526061 0.70179
0.995005 0.5 0.0749309 0.679039 0.0637111 0.664337
0.797732 0.5 -0.6 0.726406 0.0399262 0.606244
0.797732 0.5 0.6 0.73422 0.0406904 0.707181
1.00005 0.5 -8.47123e-18 0.67698 0.0640024 0.652702
0.350249 0.5 -0.9375 0.761782 0.0153009 0.626611
0.350249 0.5 0.9375 0.765738 0.0131952 0.673662
1.00005 0.5 -0.0749309 0.677149 0.0635327 0.642095
0.969689 0.5 -0.2625 0.687359 0.0589415 0.619492
0.969689 0.5 0.2625 0.689956 0.0608 0.688673
0.835106 0.5 -0.5625 0.720635 0.0429614 0.604983
0.835106 0.5 0.5625 0.728066 0.0441639 0.708379
1.00005 0.5 -0.149862 0.678368 0.0627586 0.631771
0.939201 0.5 -0.375 0.697482 0.0541498 0.610177
0.939201 0.5 0.375 0.701951 0.0562641 0.700162
1.00029 0.5 0.148988 0.679955 0.0639337 0.674244
0.075776 0.5 -1.0125 0.766054 0.00436761 0.638766
0.075776 0.5 1.0125 0.766317 0.00341565 0.650433
0.288069 0.5 0.975 0.766319 0.01064 0.668107
0.288069 0.5 -0.975 0.763417 0.0126612 0.629304
0.872064 0.5 -0.525 0.714412 0.0460903 0.604011
0.872064 0.5 0.525 0.72133 0.0477434 0.70882
1.00005 0.5 0.224793 0.682744 0.0635021 0.684489
1.00005 0.5 -0.224793 0.680606 0.0616971 0.621984
0.969689 0.5 0.3375 0.694017 0.0598545 0.697956
0.96969 0.5 -0.3375 0.690414 0.0575507 0.611053
1.0271 0.5 -0.0368226 0.670483 0.0667347 0.64642
1.0271 0.5 0.0368226 0.670816 0.0670772 0.657486
0.90582 0.5 0.4875 0.714341 0.0512786 0.708757
0.905821 0.5 -0.4875 0.707971 0.0492358 0.603407
1.0271 0.5 -0.110468 0.671254 0.0660746 0.635545
1.0271 0.5 0.110468 0.671995 0.0673785 0.671148
0.67013 0.5 0.7875 0.752846 0.0292348 0.70243
0.67013 0.5 -0.7875 0.743977 0.0300612 0.608907
0.624316 0.5 0.825 0.756383 0.0262125 0.698571
0.624316 0.5 -0.825 0.747911 0.0274305 0.611336
0.219993 0.5 -1.0125 0.764972 0.00994617 0.632376
0.219993 0.5 1.0125 0.76672 0.00804988 0.662145
0.574156 0.5 -0.8625 0.75168 0.0248024 0.614047
0.574156 0.5 0.8625 0.759635 0.0231761 0.694274
0.715434 0.5 -0.75 0.739464 0.0328205 0.606478
0.715434 0.5 0.75 0.74845 0.0325048 0.705831
0.756813 0.5 0.7125 0.743765 0.0357581 0.70878
0.756814 0.5 -0.7125 0.734753 0.0355945 0.604327
0.523432 0.5 -0.9 0.754818 0.0222919 0.616677
0.523432 0.5 0.9 0.762014 0.0204097 0.689635
0.939201 0.5 -0.45 0.701162 0.0525736 0.603091
0.939201 0.5 0.45 0.706694 0.054979 0.707943
1.04168 0.5 0 0.667098 0.0684116 0.651516
1.0271 0.5 -0.184113 0.673126 0.0651119 0.625064
1.0271 0.5 0.184113 0.674806 0.0667833 0.679554
0 0.5 -1.04382 0.766044 0 0.642788
0 0.5 1.04382 0.766044 0 0.642788
0.0124865 0.5 -1.04382 0.76605 0.000720664 0.642122
0.0124865 0.5 1.04382 0.766092 0.000565745 0.644051
1.00005 0.5 -0.299723 0.683631 0.0603708 0.612901
1.00005 0.5 0.299723 0.686627 0.0627054 0.69448
1.04168 0.5 -0.0729162 0.667355 0.067893 0.640344
1.04168 0.5 0.0729162 0.667971 0.0686054 0.662809
0.797732 0.5 -0.675 0.729526 0.0385146 0.602285
0.797732 0.5 0.675 0.73828 0.039217 0.711131
0.467897 0.5 0.9375 0.764125 0.0176325 0.684574
0.467897 0.5 -0.9375 0.757823 0.0197699 0.619604
0 0.5 -1.05 0.766044 0 0.642788
0 0.5 1.05 0.766044 0 0.642788
0.835106 0.5 -0.6375 0.724066 0.0414574 0.600526
0.835106 0.5 0.6375 0.732495 0.042653 0.713025
1.04168 0.5 -0.145832 0.668728 0.0670621 0.629453
1.04168 0.5 0.145832 0.669968 0.0684701 0.674054
0.969689 0.5 -0.4125 0.6941 0.0559394 0.603215
0.96969 0.5 0.4125 0.698814 0.0586317 0.706586
0 0.5 -1.05618 0.766044 0 0.642788
0 0.5 1.05618 0.766044 0 0.642788
0.0124865 0.5 -1.05618 0.766055 0.000699789 0.642075
0.0124865 0.5 1.05618 0.766097 0.000541819 0.644032
1.05695 0.5 -0.0360764 0.663422 0.0697052 0.645309
1.05695 0.5 0.0360764 0.663693 0.0700797 0.656762
0.411736 0.5 -0.975 0.760126 0.0173152 0.622393
0.411736 0.5 0.975 0.765375 0.0151046 0.679311
0.872064 0.5 -0.6 0.71813 0.0445035 0.59901
0.872064 0.5 0.6 0.72608 0.0462153 0.714206
1.0271 0.5 -0.257759 0.676026 0.0638672 0.615323
1.0271 0.5 0.257759 0.678378 0.0661511 0.690179
0.151149 0.5 -1.05 0.765551 0.00714191 0.635225
0.151149 0.5 1.05 0.766596 0.00567237 0.6564
1.05695 0.5 0.108229 0.664441 0.0704321 0.668505
1.05695 0.5 -0.108229 0.664286 0.0690087 0.63405
1.04168 0.5 -0.218749 0.671192 0.0659365 0.619152
1.04168 0.5 0.218749 0.673048 0.0680078 0.685059
0.90582 0.5 -0.5625 0.711936 0.0475763 0.597797
0.905821 0.5 0.5625 0.719381 0.0497481 0.714913
1.00005 0.5 -0.374654 0.687303 0.0587999 0.604448
1.00005 0.5 0.374654 0.691357 0.0616132 0.703885
0.350249 0.5 1.0125 0.766399 0.0125581 0.673658
0.350249 0.5 -1.0125 0.762317 0.014831 0.625506
1.05695 0.5 -0.180382 0.666274 0.0680069 0.623168
1.05695 0.5 0.180382 0.667672 0.069836 0.679635
1.07319 0.5 0.0709442 0.660439 0.0718931 0.664685
0.939201 0.5 -0.525 0.70537 0.0508382 0.596818
0.939201 0.5 0.525 0.711961 0.0534649 0.714948
1.0271 0.5 -0.331404 0.67959 0.0623639 0.606338
1.0271 0.5 0.331404 0.682901 0.065208 0.700305
1.08112 0.5 3.23815e-17 0.657355 0.0724453 0.650248
1.04168 0.5 -0.291665 0.674528 0.0645378 0.609663
1.04168 0.5 0.291665 0.677142 0.0672263 0.695649
1.08112 0.5 -0.0709442 0.65771 0.0718846 0.638571
0.969689 0.5 -0.4875 0.698509 0.0541422 0.596192
0.96969 0.5 0.4875 0.704249 0.0571533 0.714466
1.05695 0.5 0.252535 0.6713 0.0692223 0.690671
1.05695 0.5 -0.252535 0.66933 0.0667176 0.613114
0.288069 0.5 -1.05 0.763784 0.0122711 0.628433
0.288069 0.5 1.05 0.766781 0.0101141 0.667974
0.075776 0.5 -1.0875 0.766086 0.0042396 0.638481
0.075776 0.5 1.0875 0.766344 0.00326777 0.650317
1.08112 0.5 -0.141888 0.659221 0.0710084 0.627175
1.08145 0.5 0.140165 0.660456 0.0724812 0.674165
0.715434 0.5 0.825 0.751718 0.0310817 0.707912
0.715434 0.5 -0.825 0.741984 0.0315724 0.603867
0.756813 0.5 0.7875 0.747462 0.0342501 0.711412
0.756814 0.5 -0.7875 0.737614 0.0342352 0.601369
0.67013 0.5 -0.8625 0.746148 0.028931 0.6066
0.67013 0.5 0.8625 0.755664 0.0279103 0.704002
0.797732 0.5 -0.75 0.73275 0.0370424 0.598946
0.797732 0.5 0.75 0.742428 0.0376379 0.714369
0.624316 0.5 -0.9 0.749768 0.0264106 0.609312
0.624316 0.5 0.9 0.758784 0.0249894 0.699703
1.00005 0.5 -0.449585 0.691729 0.0570166 0.596711
1.00005 0.5 0.449585 0.696822 0.0602453 0.712562
0.835106 0.5 -0.7125 0.727643 0.0398797 0.596756
0.835106 0.5 0.7125 0.737059 0.0410164 0.716905
0.574156 0.5 -0.9375 0.753217 0.0238994 0.612271
0.574157 0.5 0.9375 0.761607 0.0220658 0.695008
1.10076 0.5 -0.0349809 0.652145 0.0743149 0.643582
1.10076 0.5 0.0349809 0.652337 0.0747326 0.655613
1.08112 0.5 -0.212832 0.661855 0.0698331 0.616401
1.08112 0.5 0.212832 0.663298 0.0721438 0.685367
0.872064 0.5 -0.675 0.72206 0.0428267 0.594762
0.872064 0.5 0.675 0.731023 0.0445391 0.718797
1.04168 0.5 -0.364581 0.678583 0.0628805 0.60082
1.04168 0.5 0.364581 0.682156 0.0661392 0.705655
1.0271 0.5 0.405049 0.688263 0.0639712 0.709762