# wallShearStress  FACE_DATA 60650
# x  y  z  wallShearStress_x  wallShearStress_y  wallShearStress_z
8.48833 0 0.815368 0.000529115 -7.91941e-06 0.00154255
8.46695 0 0.797732 0.000494128 -8.48644e-06 0.00136007
8.44642 0 0.780797 0.000455398 -9.51343e-06 0.00117766
8.51058 0 0.88426 0.000614176 -1.02695e-05 0.00197605
8.48833 0 0.864784 0.000594974 -8.11986e-06 0.00181803
8.46695 0 0.84608 0.000554746 -9.46783e-06 0.00164933
8.44642 0 0.828118 0.000517337 -9.82864e-06 0.00147402
8.42671 0 0.810869 0.000484769 -1.07879e-05 0.00130019
8.51058 0 0.934789 0.000662602 -3.4627e-06 0.00219118
8.48833 0 0.9142 0.00064627 -3.8561e-06 0.0020414
8.46695 0 0.894427 0.000638998 -3.01842e-06 0.00188911
8.44642 0 0.875439 0.000620943 -1.72131e-06 0.00173095
8.42671 0 0.857205 0.000583976 -2.03671e-06 0.00156606
8.40778 0 0.839693 0.000560317 -2.43015e-06 0.00139259
8.5579 0 1.03145 0.000765282 -1.70692e-05 0.0026337
8.53376 0 1.00792 0.000732856 -1.78604e-05 0.00251396
8.51058 0 0.985317 0.000698323 -1.86078e-05 0.00239112
8.48833 0 0.963616 0.000659871 -1.99572e-05 0.00226531
8.46695 0 0.942775 0.000628406 -2.17398e-05 0.00213178
8.44642 0 0.92276 0.000591843 -2.22863e-05 0.00200046
8.42671 0 0.90354 0.000561268 -2.30894e-05 0.0018603
8.40778 0 0.885082 0.000523395 -2.36791e-05 0.00171642
8.38959 0 0.867357 0.000478707 -2.48484e-05 0.00156252
7.21655 0 0.872138 -0.00311875 -1.96561e-05 -0.00264948
7.21088 0 0.889597 -0.00349929 -2.58257e-05 -0.00281845
7.20497 0 0.907776 -0.00392598 -2.82642e-05 -0.00301077
7.19882 0 0.926708 -0.00436993 -3.05665e-05 -0.00321945
7.19241 0 0.94642 -0.00478654 -3.00286e-05 -0.00343991
7.2692 0 0.839271 -0.00200012 -9.89525e-07 -0.0015657
7.26477 0 0.855372 -0.00219343 -1.61851e-06 -0.00179801
7.26016 0 0.872138 -0.00240348 -2.30737e-06 -0.00203725
7.25536 0 0.889597 -0.00264916 -1.04353e-05 -0.00226796
7.25036 0 0.907777 -0.00294374 -1.85197e-05 -0.00247506
7.24516 0 0.926707 -0.00328977 -2.59018e-05 -0.00261425
7.23974 0 0.94642 -0.00370021 -2.79662e-05 -0.0027489
7.23409 0 0.966948 -0.00414646 -2.9859e-05 -0.00292551
7.31464 0 0.823809 -0.00136524 -1.08424e-05 -0.000950107
7.31116 0 0.839271 -0.00154495 -1.0532e-05 -0.00108925
7.30754 0 0.855372 -0.00173112 -8.59789e-06 -0.00125479
7.30377 0 0.872138 -0.00192284 -5.75838e-06 -0.00145139
7.29984 0 0.889597 -0.00211527 -4.94304e-06 -0.00166755
7.29575 0 0.907776 -0.00231306 -5.7028e-06 -0.00189172
7.29149 0 0.926707 -0.00252766 -1.12505e-05 -0.00209801
7.28705 0 0.946421 -0.00279816 -1.94823e-05 -0.00227404
7.28243 0 0.966948 -0.0031114 -2.84273e-05 -0.00237234
7.27762 0 0.988324 -0.00349666 -2.93409e-05 -0.00246987
7.27262 0 1.01058 -0.00393342 -2.93529e-05 -0.00261753
7.35843 0 0.80896 -0.000712909 -1.26449e-05 -0.000616433
7.35584 0 0.823809 -0.000836537 -1.2804e-05 -0.000695581
7.35313 0 0.839271 -0.000987709 -1.3842e-05 -0.000792744
7.35031 0 0.855372 -0.00116513 -1.48333e-05 -0.000902735
7.34738 0 0.872138 -0.00135965 -1.50898e-05 -0.00102734
7.34432 0 0.889597 -0.00156119 -1.46494e-05 -0.0011657
7.34114 0 0.907777 -0.00176409 -1.31216e-05 -0.00133179
7.33783 0 0.926708 -0.00195597 -1.34221e-05 -0.00151467
7.33437 0 0.94642 -0.00215011 -1.20959e-05 -0.00169804
7.33078 0 0.966948 -0.00235635 -1.42565e-05 -0.00184869
7.32704 0 0.988324 -0.00261077 -1.93376e-05 -0.00197804
7.32315 0 1.01058 -0.002921 -2.58192e-05 -0.00209866
7.31909 0 1.03376 -0.00329856 -2.98157e-05 -0.00220841
7.40066 0 0.794701 -0.00026648 -4.08875e-06 -0.00033241
7.39888 0 0.80896 -0.000317272 -2.34731e-06 -0.000388937
7.39702 0 0.823809 -0.00038462 -1.56204e-06 -0.000473953
7.39509 0 0.839272 -0.000473955 -2.94345e-06 -0.000576119
7.39308 0 0.855371 -0.000590773 -6.2212e-06 -0.00068067
7.39098 0 0.872138 -0.000735094 -1.02609e-05 -0.000778223
7.3888 0 0.889597 -0.000903432 -1.45437e-05 -0.000864673
7.38653 0 0.907777 -0.0010951 -1.69088e-05 -0.000948673
7.38416 0 0.926708 -0.00129595 -1.69668e-05 -0.0010402
7.3817 0 0.946421 -0.00149997 -1.47545e-05 -0.00116233
7.37913 0 0.966948 -0.00170057 -1.4002e-05 -0.00129623
7.37646 0 0.988324 -0.00191412 -1.32484e-05 -0.00143721
7.37368 0 1.01058 -0.00214407 -1.38875e-05 -0.00159014
7.37078 0 1.03376 -0.00240503 -1.79228e-05 -0.00173113
7.36776 0 1.0579 -0.00271638 -2.44611e-05 -0.00184376
7.44241 0 0.767858 -6.4632e-05 2.38218e-07 -0.000117666
7.44143 0 0.781008 -7.68498e-05 2.44215e-06 -0.00014172
7.4404 0 0.794701 -8.52884e-05 5.54855e-06 -0.000200304
7.43933 0 0.80896 -9.83686e-05 4.45818e-06 -0.000288891
7.43821 0 0.823809 -0.000125961 8.05442e-07 -0.00038464
7.43705 0 0.839271 -0.000170598 -2.64111e-06 -0.000473081
7.43585 0 0.855372 -0.000231836 -5.26543e-06 -0.000544798
7.43459 0 0.872138 -0.00030733 -7.2439e-06 -0.000600951
7.43328 0 0.889597 -0.000399169 -9.33546e-06 -0.000646973
7.43192 0 0.907776 -0.000513681 -1.18399e-05 -0.00068644
7.4305 0 0.926707 -0.000656045 -1.33024e-05 -0.00072447
7.42902 0 0.946421 -0.000829239 -1.29609e-05 -0.000778754
7.42748 0 0.966948 -0.0010213 -1.2311e-05 -0.000858433
7.42587 0 0.988324 -0.00123343 -1.24032e-05 -0.000965992
7.42421 0 1.01058 -0.00145325 -1.31933e-05 -0.00109227
7.42247 0 1.03376 -0.00167622 -1.42654e-05 -0.00122094
7.42066 0 1.0579 -0.00191581 -1.48015e-05 -0.00134889
7.4808 0 0.767857 7.60046e-05 7.02333e-06 -0.000112685
7.48048 0 0.781008 0.000141353 7.34848e-06 -0.000215176
7.48013 0 0.794701 0.000191832 1.82723e-06 -0.000344928
7.47978 0 0.80896 0.000201961 -5.89393e-06 -0.000458628
7.4794 0 0.823809 0.000173228 -1.02185e-05 -0.000528128
7.47902 0 0.839271 0.00011787 -1.40437e-05 -0.000558139
7.47861 0 0.855372 4.89803e-05 -1.6008e-05 -0.000545954
7.4782 0 0.872138 -2.13649e-05 -1.45249e-05 -0.000506906
7.47776 0 0.889597 -8.78326e-05 -1.19628e-05 -0.000465738
7.47731 0 0.907777 -0.000152116 -1.00414e-05 -0.000439014
7.47683 0 0.926708 -0.000225326 -8.65093e-06 -0.000433725
7.47634 0 0.94642 -0.000322572 -8.51922e-06 -0.000452983
7.47583 0 0.966948 -0.000451495 -9.15415e-06 -0.000498995
7.47529 0 0.988324 -0.000613368 -9.94131e-06 -0.000571034
7.47474 0 1.01058 -0.000799613 -1.05846e-05 -0.000665723
7.47416 0 1.03376 -0.00100478 -1.14429e-05 -0.000774876
7.47355 0 1.0579 -0.00122626 -1.2387e-05 -0.000891772
7.47292 0 1.08303 -0.00146217 -1.39294e-05 -0.00101064
7.5192 0 0.767857 0.000365673 1.01373e-05 -0.000201534
7.51952 0 0.781008 0.00047859 4.41018e-06 -0.000352879
7.51987 0 0.794701 0.000525099 -5.17914e-06 -0.000481307
7.52022 0 0.80896 0.000507404 -1.15648e-05 -0.000547157
7.5206 0 0.823809 0.000453989 -1.52576e-05 -0.000559642
7.52098 0 0.839271 0.000374851 -1.60555e-05 -0.000523896
7.52139 0 0.855372 0.000280855 -1.4367e-05 -0.000447224
7.5218 0 0.872138 0.000183171 -1.12867e-05 -0.000356068
7.52224 0 0.889597 9.66515e-05 -8.25634e-06 -0.000277165
7.52269 0 0.907777 3.41706e-05 -6.78484e-06 -0.000224102
7.52317 0 0.926708 -6.0787e-06 -7.01151e-06 -0.000196373
7.52366 0 0.94642 -4.315e-05 -6.5527e-06 -0.000190276
7.52417 0 0.966948 -9.69792e-05 -6.5285e-06 -0.000206074
7.52471 0 0.988324 -0.000181325 -7.2635e-06 -0.000244333
7.52526 0 1.01058 -0.000300318 -7.4426e-06 -0.000306919
7.52584 0 1.03376 -0.000450097 -8.1373e-06 -0.000390374
7.52645 0 1.0579 -0.000626612 -9.38915e-06 -0.000489107
7.52708 0 1.08303 -0.000825213 -1.04974e-05 -0.000598963
7.52773 0 1.1092 -0.0010465 -1.18625e-05 -0.000713313
7.55759 0 0.767858 0.000680248 9.21771e-06 -0.000291347
7.55857 0 0.781008 0.000768793 -9.11316e-07 -0.000430828
7.5596 0 0.794701 0.000764118 -9.1448e-06 -0.000505358
7.56067 0 0.80896 0.000710188 -1.35036e-05 -0.000518239
7.56179 0 0.823809 0.000620428 -1.42323e-05 -0.000477702
7.56295 0 0.839271 0.000506549 -1.15964e-05 -0.000392111
7.56415 0 0.855372 0.000378417 -7.75538e-06 -0.000289731
7.56541 0 0.872138 0.000269 -5.45367e-06 -0.000205341
7.56672 0 0.889597 0.000204281 -5.78559e-06 -0.000150172
7.56808 0 0.907776 0.000173085 -6.00986e-06 -0.000111404
7.5695 0 0.926707 0.000154001 -5.65768e-06 -7.81179e-05
7.57098 0 0.946421 0.000135984 -5.54858e-06 -4.76349e-05
7.57252 0 0.966948 0.000115577 -5.24673e-06 -2.38841e-05
7.57413 0 0.988324 8.75431e-05 -4.58374e-06 -1.68782e-05
7.57579 0 1.01058 3.3364e-05 -5.08968e-06 -3.79365e-05
7.57753 0 1.03376 -5.18254e-05 -6.52776e-06 -8.27221e-05
7.57934 0 1.0579 -0.000168165 -6.67077e-06 -0.000150286
7.58123 0 1.08303 -0.0003115 -6.04355e-06 -0.00023738
7.58319 0 1.1092 -0.000480216 -7.91666e-06 -0.000337971
7.58523 0 1.13646 -0.000671635 -1.11272e-05 -0.000441422
7.59598 0 0.767857 0.000948391 5.27688e-06 -0.00033895
7.59762 0 0.781008 0.000976336 -5.91101e-06 -0.000442175
7.59934 0 0.794701 0.000924909 -1.28418e-05 -0.00047554
7.60112 0 0.80896 0.000826583 -1.55247e-05 -0.000451895
7.60298 0 0.823809 0.000703126 -1.20386e-05 -0.000376665
7.60491 0 0.839272 0.00055704 -7.51229e-06 -0.00028431
7.60692 0 0.855371 0.000418143 -5.25156e-06 -0.000204117
7.60902 0 0.872138 0.000333303 -4.91501e-06 -0.000150571
7.6112 0 0.889597 0.000292004 -5.85841e-06 -0.000108546
7.61347 0 0.907777 0.000269773 -6.48892e-06 -6.3116e-05
7.61584 0 0.926708 0.000255031 -6.37323e-06 -1.46573e-05
7.6183 0 0.946421 0.000243866 -7.1169e-06 3.42667e-05
7.62087 0 0.966948 0.00023344 -7.09523e-06 8.06671e-05
7.62354 0 0.988324 0.000222377 -6.07535e-06 0.00012181
7.62632 0 1.01058 0.000209343 -4.78171e-06 0.000153373
7.62922 0 1.03376 0.00018928 -3.64847e-06 0.000165197
7.63224 0 1.0579 0.000150941 -3.73811e-06 0.000143547
7.63538 0 1.08303 7.68719e-05 -4.89105e-06 8.27352e-05
7.63865 0 1.1092 -3.1183e-05 -6.95031e-06 1.89524e-06
7.64205 0 1.13646 -0.000166726 -8.05148e-06 -8.9373e-05
7.6456 0 1.16484 -0.000330984 -7.89476e-06 -0.000191504
7.63438 0 0.767858 0.00114596 2.1866e-06 -0.000343434
7.63668 0 0.781008 0.00112241 -8.60704e-06 -0.000420072
7.63907 0 0.794701 0.00102934 -1.72443e-05 -0.000441092
7.64157 0 0.80896 0.00090242 -1.5584e-05 -0.00038936
7.64416 0 0.823809 0.000753842 -9.1065e-06 -0.000302736
7.64687 0 0.839271 0.000590071 -5.22116e-06 -0.000222185
7.64969 0 0.855372 0.000467747 -4.98588e-06 -0.000167231
7.65262 0 0.872138 0.000405789 -5.93132e-06 -0.000124309
7.65568 0 0.889597 0.000378796 -6.90462e-06 -7.20137e-05
7.65886 0 0.907777 0.000365783 -8.22679e-06 -1.07224e-05
7.66217 0 0.926708 0.000359169 -8.04188e-06 5.511e-05
7.66563 0 0.94642 0.000356117 -6.55419e-06 0.000121258
7.66922 0 0.966948 0.000354491 -5.90287e-06 0.000182845
7.67296 0 0.988324 0.000353054 -5.44255e-06 0.00023521
7.67685 0 1.01058 0.000347627 -4.78273e-06 0.000272806
7.68091 0 1.03376 0.000335801 -4.38342e-06 0.000299492
7.68513 0 1.0579 0.00032291 -4.27319e-06 0.000313661
7.68953 0 1.08303 0.00030348 -3.50488e-06 0.000310529
7.69411 0 1.1092 0.000272147 -1.72441e-06 0.000282127
7.69888 0 1.13646 0.000214611 -2.14215e-06 0.000218374
7.70385 0 1.16483 0.000119061 -5.67059e-06 0.000132402
7.67277 0 0.767857 0.0012914 8.21446e-07 -0.000328547
7.67573 0 0.781008 0.00123169 -1.23341e-05 -0.000400364
7.67881 0 0.794701 0.00110753 -1.91664e-05 -0.000401337
7.68201 0 0.80896 0.000959275 -1.38922e-05 -0.000336091
7.68536 0 0.823809 0.00079224 -6.7368e-06 -0.000255538
7.68884 0 0.839271 0.000628412 -4.5853e-06 -0.000193963
7.69246 0 0.855372 0.000526265 -4.67747e-06 -0.000153118
7.69623 0 0.872138 0.000480796 -6.19452e-06 -0.000102053
7.70016 0 0.889597 0.000461916 -9.17486e-06 -3.47313e-05
7.70425 0 0.907776 0.000454473 -8.96801e-06 4.34864e-05
7.70851 0 0.926707 0.00045286 -8.0442e-06 0.000126662
7.71295 0 0.946421 0.000454389 -7.00965e-06 0.000208037
7.71757 0 0.966948 0.000457865 -6.57084e-06 0.000283352
7.72238 0 0.988324 0.000461567 -5.76596e-06 0.000345526
7.72738 0 1.01058 0.00045972 -4.21984e-06 0.000389764
7.7326 0 1.03376 0.000458677 -3.97073e-06 0.000423896
7.73803 0 1.0579 0.000455436 -3.15034e-06 0.000445166
7.74368 0 1.08303 0.000447896 -2.76579e-06 0.000447495
7.74957 0 1.1092 0.000434454 -2.8294e-06 0.000438796
7.7557 0 1.13646 0.000415747 -3.08336e-06 0.000417609
7.76209 0 1.16484 0.000390136 -2.55645e-06 0.000380942
7.76874 0 1.19439 0.00034312 -1.81212e-06 0.000318279
7.71116 0 0.767857 0.00140965 -1.78903e-07 -0.000307951
7.71478 0 0.781008 0.00131638 -1.54961e-05 -0.000379725
7.71854 0 0.794701 0.00117492 -1.92686e-05 -0.00037145
7.72246 0 0.80896 0.00100903 -1.22769e-05 -0.000308537
7.72655 0 0.823809 0.000825568 -4.62629e-06 -0.000234666
7.7308 0 0.839271 0.000672159 -3.85346e-06 -0.000184701
7.73523 0 0.855372 0.000588669 -6.04226e-06 -0.000144864
7.73984 0 0.872138 0.000553391 -8.13645e-06 -8.00557e-05
7.74464 0 0.889597 0.000539712 -9.96942e-06 3.81076e-06
7.74964 0 0.907777 0.000535836 -9.57923e-06 9.94722e-05
7.75484 0 0.926707 0.000536838 -7.86043e-06 0.00019961
7.76026 0 0.94642 0.0005417 -7.64738e-06 0.000297825
7.76591 0 0.966948 0.000550248 -6.90038e-06 0.000385331
7.77179 0 0.988324 0.000552842 -4.94694e-06 0.000450618
7.77791 0 1.01058 0.000549914 -4.01517e-06 0.000504669
7.78428 0 1.03376 0.00055513 -3.89237e-06 0.000550949
7.79092 0 1.0579 0.000556316 -2.83897e-06 0.000576156
7.79783 0 1.08303 0.000557285 -2.26532e-06 0.000584731
7.80503 0 1.1092 0.000555826 -1.72879e-06 0.000581228
7.81252 0 1.13646 0.000550825 -1.56921e-06 0.000563888
7.82033 0 1.16483 0.000540279 -1.63078e-06 0.000535271
7.82845 0 1.19439 0.000523487 -2.2213e-06 0.000497086
7.83692 0 1.22516 0.000499839 -2.48646e-06 0.00044724
7.74955 0 0.767858 0.00150278 -2.21684e-06 -0.000299008
7.75383 0 0.781007 0.00137703 -1.71009e-05 -0.000357036
7.75828 0 0.794701 0.00122115 -1.7494e-05 -0.000352642
7.76291 0 0.80896 0.00104791 -1.03037e-05 -0.000311527
7.76774 0 0.823809 0.000858865 -3.58501e-06 -0.000241302
7.77277 0 0.839271 0.000718509 -3.00095e-06 -0.000185896
7.778 0 0.855372 0.000648569 -5.75286e-06 -0.000138421
7.78345 0 0.872138 0.000619825 -1.08563e-05 -5.79118e-05
7.78912 0 0.889597 0.000608761 -1.07649e-05 4.34471e-05
7.79503 0 0.907776 0.000606614 -1.00547e-05 0.000156209
7.80118 0 0.926708 0.000609297 -8.82576e-06 0.000274205
7.80759 0 0.94642 0.000617231 -8.62393e-06 0.000391802
7.81425 0 0.966948 0.000626575 -6.74415e-06 0.000482911
7.82121 0 0.988324 0.000626489 -4.69035e-06 0.00054717
7.82844 0 1.01058 0.000626109 -4.49554e-06 0.000620403
7.83597 0 1.03376 0.000632676 -3.61347e-06 0.000679356
7.84382 0 1.0579 0.000636372 -2.63652e-06 0.000708514
7.85199 0 1.08303 0.000640723 -2.06508e-06 0.00072536
7.86049 0 1.1092 0.000644537 -1.72347e-06 0.000727476
7.86935 0 1.13646 0.000647516 -1.38953e-06 0.000717101
7.87857 0 1.16484 0.000649516 -1.11615e-06 0.000693738
7.88818 0 1.19439 0.000648207 -1.06789e-06 0.000658649
7.89818 0 1.22516 0.0006419 -1.23172e-06 0.000611478
7.90859 0 1.25721 0.000628177 -2.25987e-06 0.000558574
7.78795 0 0.767857 0.00156978 -4.88725e-06 -0.000325587
7.79288 0 0.781008 0.00140712 -2.04181e-05 -0.000361779
7.79801 0 0.794701 0.00124388 -1.72639e-05 -0.000339379
7.80336 0 0.80896 0.00108167 -4.17572e-06 -0.000312911
7.80893 0 0.823809 0.000892883 -1.46764e-06 -0.000262017
7.81473 0 0.839271 0.000762044 -4.62491e-06 -0.000199272
7.82076 0 0.855372 0.000700278 -6.8727e-06 -0.000134518
7.82705 0 0.872138 0.000675027 -1.11121e-05 -3.45429e-05
7.8336 0 0.889597 0.00066506 -1.14263e-05 8.58561e-05
7.84042 0 0.907777 0.000663024 -1.0059e-05 0.000217385
7.84752 0 0.926707 0.000666375 -9.56571e-06 0.000355287
7.85491 0 0.946421 0.000676041 -9.38712e-06 0.00048356
7.8626 0 0.966948 0.00068111 -6.15445e-06 0.000580752
7.87062 0 0.988324 0.000682427 -4.96642e-06 0.00065377
7.87897 0 1.01058 0.000685743 -4.4605e-06 0.000740265
7.88766 0 1.03376 0.00069085 -3.36371e-06 0.000808639
7.89671 0 1.0579 0.000696016 -2.53481e-06 0.000844546
7.90614 0 1.08303 0.000702552 -1.83e-06 0.000869557
7.91595 0 1.1092 0.000709778 -1.48816e-06 0.000880057
7.92617 0 1.13646 0.000717103 -1.26812e-06 0.000876549
7.93681 0 1.16483 0.000725386 -1.03366e-06 0.000860312
7.9479 0 1.19439 0.000733926 -7.56109e-07 0.000832575
7.95943 0 1.22516 0.000740429 -7.46972e-07 0.000791331
7.97145 0 1.25721 0.000744264 -1.28855e-06 0.000739322
7.98397 0 1.29057 0.000742951 -1.16456e-06 0.000675235
7.99699 0 1.32531 0.000733893 -3.46992e-06 0.000607618
7.82634 0 0.767858 0.00160852 -7.43841e-06 -0.000362179
7.83193 0 0.781007 0.0014424 -1.85307e-05 -0.000400647
7.83775 0 0.794701 0.00127839 -1.40895e-05 -0.000354625
7.84381 0 0.808961 0.00109557 -2.70151e-06 -0.000326569
7.85012 0 0.823809 0.000912058 -5.14443e-07 -0.000288203
7.85669 0 0.839271 0.000791685 -5.25678e-06 -0.000219096
7.86353 0 0.855372 0.000738459 -9.44165e-06 -0.000132122
7.87066 0 0.872138 0.000717114 -1.23237e-05 -1.03046e-05
7.87808 0 0.889596 0.000709092 -1.22957e-05 0.000129271
7.88581 0 0.907777 0.000707686 -1.0367e-05 0.000279613
7.89385 0 0.926708 0.000711897 -1.06818e-05 0.000437413
7.90223 0 0.94642 0.000721447 -9.29822e-06 0.000571467
7.91095 0 0.966948 0.000723206 -6.73451e-06 0.000673301
7.92003 0 0.988324 0.00072529 -5.49308e-06 0.000764998
7.9295 0 1.01058 0.000733206 -4.57888e-06 0.000861543
7.93935 0 1.03376 0.000736719 -3.54653e-06 0.000936849
7.94961 0 1.0579 0.000742408 -2.77229e-06 0.000982279
7.96029 0 1.08303 0.00075027 -2.10432e-06 0.00101684
7.97141 0 1.1092 0.000759602 -1.66189e-06 0.00103656
7.98299 0 1.13646 0.000770819 -1.4316e-06 0.00104312
7.99505 0 1.16484 0.000783111 -1.36032e-06 0.00103594
8.00761 0 1.19439 0.000797737 -1.43249e-06 0.00101537
8.02069 0 1.22516 0.000813427 -1.10118e-06 0.000982757
8.03431 0 1.25721 0.000828891 -1.45461e-06 0.000938648
8.04849 0 1.29057 0.000843498 -1.21579e-06 0.000881615
8.06326 0 1.32531 0.000856222 -2.68523e-06 0.000810969
7.86473 0 0.767857 0.00161612 -9.21651e-06 -0.000404301
7.87098 0 0.781008 0.00145636 -1.49409e-05 -0.000433718
7.87748 0 0.794701 0.00127552 -1.03836e-05 -0.000399406
7.88426 0 0.80896 0.00106884 -7.89659e-08 -0.000365759
7.89131 0 0.823809 0.00089517 7.67473e-07 -0.00030877
7.89865 0 0.839271 0.00079514 -4.5017e-06 -0.000224788
7.9063 0 0.855372 0.000753097 -1.22617e-05 -0.000112007
7.91427 0 0.872138 0.000735968 -1.31759e-05 3.37081e-05
7.92256 0 0.889597 0.000730309 -1.25087e-05 0.000194124
7.93119 0 0.907776 0.000730629 -1.03433e-05 0.000362919
7.94019 0 0.926708 0.00073632 -1.07223e-05 0.00053447
7.94955 0 0.94642 0.000744207 -7.66109e-06 0.000674197
7.9593 0 0.966948 0.000744878 -6.2659e-06 0.000778529
7.96945 0 0.988324 0.000746704 -5.60386e-06 0.000891584
7.98003 0 1.01058 0.000756482 -4.20345e-06 0.000997808
7.99104 0 1.03376 0.000760817 -3.09204e-06 0.00107477
8.0025 0 1.0579 0.000768318 -2.36474e-06 0.00113097
8.01444 0 1.08303 0.000777812 -1.75141e-06 0.0011755
8.02687 0 1.1092 0.000789568 -1.27936e-06 0.00120562
8.03981 0 1.13646 0.000804054 -1.36009e-06 0.00122265
8.05329 0 1.16483 0.000820963 -9.62275e-07 0.00122683
8.06733 0 1.19439 0.000840326 -1.09587e-06 0.00121782
8.08195 0 1.22516 0.000862265 -9.79228e-07 0.00119618
8.09717 0 1.25721 0.000885803 -1.21253e-06 0.00116183
8.11302 0 1.29057 0.000910121 -8.92858e-07 0.0011165
8.12952 0 1.32531 0.000933304 -2.32533e-06 0.00105953
7.90312 0 0.767857 0.0015997 -9.46713e-06 -0.000483136
7.91003 0 0.781008 0.00142824 -1.2285e-05 -0.000502663
7.91722 0 0.794701 0.00122824 -5.88567e-06 -0.00047331
7.92471 0 0.80896 0.00102299 -1.2454e-08 -0.00041975
7.9325 0 0.823809 0.0008737 -2.75297e-06 -0.000334528
7.94062 0 0.839271 0.00079133 -6.83119e-06 -0.0002303
7.94907 0 0.855372 0.000756833 -1.35956e-05 -9.11125e-05
7.95787 0 0.872138 0.000743963 -1.45452e-05 7.71006e-05
7.96704 0 0.889597 0.000741107 -1.34537e-05 0.000257248
7.97658 0 0.907777 0.000744246 -1.17068e-05 0.000444315
7.98652 0 0.926707 0.000752823 -1.16541e-05 0.000624312
7.99687 0 0.946421 0.000760792 -7.91802e-06 0.000767923
8.00765 0 0.966948 0.00076371 -6.79063e-06 0.000880928
8.01887 0 0.988324 0.000766665 -6.29249e-06 0.00100876
8.03055 0 1.01058 0.000775975 -4.58513e-06 0.00112509
8.04273 0 1.03376 0.000781404 -3.9456e-06 0.00120916
8.0554 0 1.0579 0.000789942 -3.06776e-06 0.00127625
8.06859 0 1.08303 0.000800098 -2.51485e-06 0.00133098
8.08233 0 1.1092 0.000813127 -1.97199e-06 0.00137306
8.09664 0 1.13646 0.000828804 -1.92199e-06 0.00140263
8.11154 0 1.16484 0.000847391 -1.7874e-06 0.00141919
8.12705 0 1.19439 0.000868979 -1.71426e-06 0.00142216
8.14321 0 1.22516 0.000893836 -1.56631e-06 0.00141253
8.16003 0 1.25721 0.000921297 -1.77335e-06 0.00139052
8.17755 0 1.29057 0.000950256 -1.6408e-06 0.00135514
8.19579 0 1.32531 0.000977129 -3.07329e-06 0.00130407
7.94152 0 0.767858 0.0015296 -7.85389e-06 -0.00056199
7.94908 0 0.781008 0.00133636 -5.88155e-06 -0.000578037
7.95695 0 0.794701 0.00112486 6.02336e-07 -0.000530204
7.96516 0 0.80896 0.000936643 2.45755e-06 -0.000437159
7.97369 0 0.823809 0.000812312 -4.07492e-06 -0.000327242
7.98258 0 0.839271 0.000754262 -1.0587e-05 -0.0001933
7.99184 0 0.855371 0.000731384 -1.41259e-05 -2.02822e-05
8.00148 0 0.872138 0.000723883 -1.3874e-05 0.000171393
8.01152 0 0.889596 0.000724161 -1.11251e-05 0.00037034
8.02197 0 0.907777 0.000729311 -1.11463e-05 0.000573383
8.03286 0 0.926708 0.000740187 -1.01029e-05 0.00076112
8.04419 0 0.94642 0.0007496 -6.60785e-06 0.000906512
8.05599 0 0.966948 0.000754611 -5.44317e-06 0.00102389
8.06829 0 0.988324 0.000758787 -4.85531e-06 0.00116243
8.08108 0 1.01058 0.00076753 -3.559e-06 0.00128486
8.09441 0 1.03376 0.0007741 -2.80224e-06 0.00137209
8.10829 0 1.0579 0.000783395 -1.96236e-06 0.00144725
8.12274 0 1.08303 0.000794929 -1.46265e-06 0.00150996
8.13779 0 1.1092 0.000809834 -1.13727e-06 0.00156073
8.15346 0 1.13646 0.000827632 -1.18832e-06 0.00159927
8.16978 0 1.16483 0.000849504 -9.64687e-07 0.0016261
8.18677 0 1.19439 0.000875175 -8.99696e-07 0.00164074
8.20447 0 1.22516 0.000904924 -9.86329e-07 0.00164221
8.22289 0 1.25721 0.000937651 -1.34038e-06 0.00163054
8.24208 0 1.29057 0.000972556 -1.20164e-06 0.00160313
8.26206 0 1.32531 0.00100692 -2.2396e-06 0.00155494
7.97991 0 0.767857 0.00139575 -6.52758e-06 -0.000685616
7.98813 0 0.781008 0.00119878 -1.15328e-06 -0.000666389
7.99669 0 0.794701 0.00100017 6.12405e-07 -0.000569732
8.0056 0 0.80896 0.000845113 -3.50602e-06 -0.000448039
8.01488 0 0.823809 0.000753657 -7.37527e-06 -0.000317207
8.02455 0 0.839272 0.000713675 -1.50862e-05 -0.000150215
8.03461 0 0.855372 0.0007005 -1.58463e-05 4.58029e-05
8.04508 0 0.872138 0.000700569 -1.49197e-05 0.000251186
8.056 0 0.889597 0.000706922 -1.18462e-05 0.000458807
8.06736 0 0.907776 0.000717443 -1.24856e-05 0.000669866
8.07919 0 0.926707 0.000732399 -1.11758e-05 0.000862864
8.09151 0 0.946421 0.000745208 -7.94367e-06 0.00101049
8.10434 0 0.966948 0.000753925 -6.78213e-06 0.0011319
8.1177 0 0.988324 0.000764355 -6.03411e-06 0.00127342
8.13161 0 1.01058 0.000772258 -5.27839e-06 0.00140194
8.1461 0 1.03376 0.00078146 -4.17307e-06 0.00149606
8.16118 0 1.0579 0.000792946 -3.62956e-06 0.0015809
8.17689 0 1.08303 0.000806671 -3.1821e-06 0.00165468
8.19325 0 1.1092 0.000822993 -3.13932e-06 0.00171761
8.21028 0 1.13646 0.000842563 -2.93218e-06 0.00177034
8.22802 0 1.16484 0.000865441 -2.77652e-06 0.00181274
8.24649 0 1.19439 0.000891906 -2.54524e-06 0.00184324
8.26572 0 1.22516 0.000921686 -2.38396e-06 0.00186026
8.28575 0 1.25721 0.000954458 -2.37324e-06 0.00186232
8.30661 0 1.29057 0.000989765 -2.04954e-06 0.00184787
8.32832 0 1.32531 0.00102674 -2.97514e-06 0.00181123
8.0183 0 0.767858 0.00120188 2.97414e-06 -0.000761808
8.02718 0 0.781008 0.00100408 5.61653e-06 -0.000673031
8.03642 0 0.794701 0.000832153 5.02174e-06 -0.000540169
8.04605 0 0.80896 0.000717908 -1.74615e-06 -0.000402129
8.05607 0 0.823809 0.000667993 -1.07502e-05 -0.000233373
8.06651 0 0.839271 0.000653605 -1.41995e-05 -2.24933e-05
8.07738 0 0.855372 0.000656142 -1.37614e-05 0.000204646
8.08869 0 0.872138 0.000665942 -1.01992e-05 0.00043027
8.10048 0 0.889597 0.000676716 -1.02241e-05 0.000650172
8.11275 0 0.907777 0.000688267 -1.08596e-05 0.000866904
8.12553 0 0.926708 0.000703965 -8.76395e-06 0.00105667
8.13883 0 0.94642 0.000715061 -5.743e-06 0.00120253
8.15269 0 0.966948 0.000723039 -4.45955e-06 0.00133396
8.16712 0 0.988324 0.000736504 -3.26086e-06 0.00147413
8.18214 0 1.01058 0.000743085 -2.48996e-06 0.00159634
8.19779 0 1.03376 0.000751984 -1.99276e-06 0.00169544
8.21408 0 1.0579 0.000762601 -1.50986e-06 0.00178535
8.23104 0 1.08303 0.000775577 -1.17612e-06 0.00186308
8.24871 0 1.1092 0.00079182 -1.1411e-06 0.00193148
8.26711 0 1.13646 0.000811924 -1.43043e-06 0.00198907
8.28626 0 1.16483 0.000836707 -1.43177e-06 0.00203681
8.30621 0 1.19439 0.000866095 -1.44227e-06 0.00207375
8.32698 0 1.22516 0.000900184 -1.21028e-06 0.0020977
8.34861 0 1.25721 0.000938849 -1.17102e-06 0.00210581
8.37113 0 1.29057 0.000980667 -1.02286e-06 0.00209721
8.39459 0 1.32531 0.00102512 -1.53442e-06 0.00206923
8.0567 0 0.767857 0.000975058 5.96329e-08 -0.00078922
8.06623 0 0.781008 0.000804986 -2.02551e-06 -0.00064998
8.07616 0 0.794701 0.000681104 -5.90945e-06 -0.000500502
8.0865 0 0.80896 0.000617847 -9.17337e-06 -0.000334706
8.09726 0 0.823809 0.000598019 -1.44403e-05 -0.00013019
8.10847 0 0.839271 0.00060098 -1.63318e-05 9.16623e-05
8.12014 0 0.855372 0.000615557 -1.49961e-05 0.00031712
8.1323 0 0.872138 0.000633173 -1.15605e-05 0.00053346
8.14496 0 0.889596 0.000650216 -1.15006e-05 0.000740915
8.15814 0 0.907777 0.00067045 -1.25566e-05 0.000953033
8.17186 0 0.926708 0.000697447 -1.04245e-05 0.00113488
8.18616 0 0.94642 0.000709345 -8.28863e-06 0.0012759
8.20104 0 0.966948 0.000719128 -7.95566e-06 0.00141518
8.21654 0 0.988324 0.000737963 -6.71267e-06 0.00155774
8.23267 0 1.01058 0.000748988 -6.20244e-06 0.00167913
8.24948 0 1.03376 0.00076275 -5.75023e-06 0.00178338
8.26697 0 1.0579 0.000777898 -5.12631e-06 0.00188214
8.2852 0 1.08303 0.00079562 -4.50301e-06 0.00197283
8.30417 0 1.1092 0.000815856 -4.49495e-06 0.00205561
8.32393 0 1.13646 0.000839576 -4.20006e-06 0.00213095
8.3445 0 1.16484 0.000866824 -3.8739e-06 0.00219766
8.36593 0 1.19439 0.000897422 -3.53188e-06 0.00225355
8.38824 0 1.22516 0.000930556 -2.80919e-06 0.00229672
8.41147 0 1.25721 0.000964384 -3.20959e-06 0.00232182
8.10528 0 0.781008 0.000615389 4.85154e-06 -0.000576305
8.11589 0 0.794701 0.000560916 -2.18178e-06 -0.000390573
8.12694 0 0.80896 0.000551946 -1.15876e-05 -0.000160192
8.13845 0 0.823809 0.000561549 -1.44232e-05 8.49131e-05
8.15044 0 0.839271 0.00057982 -1.23736e-05 0.000330348
8.16292 0 0.855372 0.000599977 -9.0628e-06 0.000563256
8.17591 0 0.872138 0.000618054 -8.78617e-06 0.000780089
8.18944 0 0.889597 0.000633592 -9.89538e-06 0.000996045
8.20352 0 0.907776 0.000650023 -1.17001e-05 0.00122397
8.2182 0 0.926707 0.000670432 -4.0616e-06 0.00139908
8.23348 0 0.946421 0.000677519 -2.77489e-06 0.00151074
8.24938 0 0.966948 0.000683698 -3.91752e-06 0.00166433
8.26595 0 0.988324 0.00069795 -2.36091e-06 0.00180979
8.2832 0 1.01058 0.000705685 -2.21211e-06 0.00192618
8.30116 0 1.03376 0.00071666 -1.94255e-06 0.00203531
8.31987 0 1.0579 0.000729233 -1.7566e-06 0.00213641
8.33935 0 1.08303 0.000744358 -1.7977e-06 0.00222875
8.35963 0 1.1092 0.000762163 -1.36102e-06 0.00231385
8.38075 0 1.13646 0.000783354 -2.01738e-06 0.0023899
8.40275 0 1.16483 0.00080854 -2.02637e-06 0.00245593
8.42565 0 1.19439 0.000837362 -2.10324e-06 0.00250849
8.4495 0 1.22516 0.000869815 -2.65537e-06 0.00254391
8.16739 0 0.80896 0.00050403 -1.53516e-05 -5.97963e-05
8.17964 0 0.823809 0.000532555 -1.83326e-05 0.00016333
8.1924 0 0.839271 0.000565477 -1.5617e-05 0.000391943
8.20568 0 0.855372 0.0005955 -1.38188e-05 0.000612378
8.21951 0 0.872138 0.00061996 -1.29061e-05 0.000818054
8.23392 0 0.889597 0.000641082 -1.30415e-05 0.00101588
8.24892 0 0.907777 0.00066129 -1.41463e-05 0.00121945
8.26453 0 0.926707 0.00067306 -1.07636e-05 0.00139686
8.28079 0 0.94642 0.000685888 -8.21196e-06 0.00152404
8.29773 0 0.966948 0.000702523 -1.09671e-05 0.00167195
8.31537 0 0.988324 0.000712956 -8.71334e-06 0.00182823
8.33373 0 1.01058 0.000725396 -8.15486e-06 0.00194737
8.35285 0 1.03376 0.000740135 -7.36439e-06 0.00206554
8.37277 0 1.0579 0.00075707 -6.65488e-06 0.00217476
8.3935 0 1.08303 0.000776957 -6.16594e-06 0.00227773
8.41509 0 1.1092 0.000799786 -5.92795e-06 0.00237435
8.43757 0 1.13646 0.000825935 -5.49891e-06 0.00246569
8.46099 0 1.16484 0.000856128 -5.54836e-06 0.00254854
8.20784 0 0.80896 0.00043488 -1.5341e-05 0.000328944
8.22083 0 0.823809 0.000470891 -1.14834e-05 0.000568545
8.23436 0 0.839272 0.00050388 -8.62743e-06 0.000792016
8.24845 0 0.855372 0.000531699 -6.32145e-06 0.000994908
8.26312 0 0.872138 0.00055537 -5.6061e-06 0.00118907
8.2784 0 0.889596 0.000578809 -6.86524e-06 0.00139104
8.29431 0 0.907777 0.00060396 -4.7189e-06 0.00158346
8.31087 0 0.926708 0.000620027 -4.29302e-07 0.00173773
8.32812 0 0.946421 0.000636954 6.25677e-07 0.00187412
8.34608 0 0.966948 0.000661824 1.14321e-06 0.00200974
8.36478 0 0.988324 0.000677035 5.98875e-07 0.00213775
8.38426 0 1.01058 0.000693719 4.67156e-07 0.00225987
8.40454 0 1.03376 0.000710516 4.5499e-07 0.00237525
8.42566 0 1.0579 0.000727883 4.42023e-07 0.0024853
8.44765 0 1.08303 0.000745703 1.92347e-07 0.00259002
8.47055 0 1.1092 0.000764948 4.60708e-07 0.00268876
8.4944 0 1.13646 0.000785876 -5.81032e-07 0.00278139
8.26202 0 0.823809 0.00047952 -1.87961e-05 0.000515789
8.27633 0 0.839271 0.000519869 -1.88514e-05 0.000716908
8.29122 0 0.855372 0.000557357 -1.86242e-05 0.00090765
8.30673 0 0.872138 0.000592572 -1.83372e-05 0.00109399
8.32288 0 0.889597 0.00062367 -1.90424e-05 0.00128302
8.33969 0 0.907776 0.000646754 -1.90138e-05 0.00146006
8.35721 0 0.926707 0.000664694 -1.7289e-05 0.00161233
8.37544 0 0.946421 0.00068906 -1.6533e-05 0.00176196
8.39443 0 0.966948 0.000710028 -1.62629e-05 0.00191522
8.4142 0 0.988324 0.00073029 -1.4596e-05 0.00204865
8.43479 0 1.01058 0.000749248 -1.37379e-05 0.00217064
8.45623 0 1.03376 0.000768357 -1.28184e-05 0.00229148
8.47855 0 1.0579 0.000787741 -1.1936e-05 0.00240549
8.5018 0 1.08303 0.000807957 -1.1097e-05 0.00251585
8.52601 0 1.1092 0.000830091 -1.0665e-05 0.00262393
8.33399 0 0.855372 0.000585158 4.48272e-06 0.00143276
8.35033 0 0.872138 0.000603282 5.7786e-06 0.00160787
8.36736 0 0.889597 0.000617212 6.13738e-06 0.00177646
8.38508 0 0.907777 0.00062625 7.10805e-06 0.00193489
8.40354 0 0.926708 0.000637817 8.92767e-06 0.00208161