# kMean  POINT_DATA 63840
# x  y  z  kMean
0 0.5 3.39583e-17 0.00375
0 0.5 -0.00617931 0.00375
0 0.5 0.00617931 0.00375
0.0124865 0.5 -0.00617931 0.00375038
0.0124865 0.5 0.00617931 0.00375042
0 0.5 -0.0688207 0.00375
0 0.5 0.0688207 0.00375
0.0124865 0.5 -0.0688207 0.00375038
0.0124865 0.5 0.0688207 0.00375042
0 0.5 -0.075 0.00375
0 0.5 0.075 0.00375
0 0.5 -0.0811793 0.00375
0 0.5 0.0811793 0.00375
0.0124865 0.5 -0.0811793 0.00375034
0.0124865 0.5 0.0811793 0.00375047
0.075776 0.5 -0.0375 0.0037523
0.075776 0.5 0.0375 0.00375255
0.075776 0.5 -0.1125 0.0037521
0.075776 0.5 0.1125 0.00375284
0 0.5 -0.143821 0.00375
0 0.5 0.143821 0.00375
0.0124865 0.5 -0.143821 0.00375034
0.0124865 0.5 0.143821 0.00375047
0 0.5 -0.15 0.00375
0 0.5 0.15 0.00375
0.151149 0.5 -0.00137318 0.00375494
0 0.5 -0.156179 0.00375
0 0.5 0.156179 0.00375
0.0124865 0.5 -0.156179 0.00375032
0.0124865 0.5 0.156179 0.00375052
0.151149 0.5 0.075 0.00375539
0.151149 0.5 -0.075 0.00375462
0.075776 0.5 -0.1875 0.00375196
0.075776 0.5 0.1875 0.00375316
0.151149 0.5 0.15 0.00375594
0.151149 0.5 -0.15 0.00375439
0 0.5 -0.218821 0.00375
0 0.5 0.218821 0.00375
0.0124865 0.5 -0.218821 0.00375032
0.0124865 0.5 0.218821 0.00375052
0.219992 0.5 0.0375 0.00375756
0.219993 0.5 -0.0375 0.00375704
0 0.5 -0.225 0.00375
0 0.5 0.225 0.00375
0 0.5 -0.231179 0.00375
0 0.5 0.231179 0.00375
0.0124865 0.5 -0.231179 0.00375031
0.0124865 0.5 0.231179 0.00375058
0.219992 0.5 0.1125 0.00375826
0.219993 0.5 -0.1125 0.00375672
0.151149 0.5 -0.225 0.00375426
0.151149 0.5 0.225 0.00375654
0.075776 0.5 -0.2625 0.00375191
0.075776 0.5 0.2625 0.00375349
0.288069 0.5 -0.00137318 0.00376208
0.219992 0.5 0.1875 0.00375909
0.219993 0.5 -0.1875 0.00375647
0 0.5 0.293821 0.00375
0 0.5 -0.293821 0.00375
0.0124865 0.5 -0.293821 0.00375031
0.0124865 0.5 0.293821 0.00375058
0.288069 0.5 -0.075 0.00376167
0.288069 0.5 0.075 0.00376269
0 0.5 -0.3 0.00375
0 0.5 0.3 0.00375
0 0.5 0.306179 0.00375
0 0.5 -0.306179 0.00375
0.0124865 0.5 -0.306179 0.00375031
0.0124865 0.5 0.306179 0.00375063
0.288069 0.5 -0.15 0.00376137
0.288069 0.5 0.15 0.00376345
0.151149 0.5 -0.3 0.00375422
0.151149 0.5 0.3 0.00375716
0.219992 0.5 -0.2625 0.00375639
0.219992 0.5 0.2625 0.00375999
0.075776 0.5 0.3375 0.0037538
0.075776 0.5 -0.3375 0.0037519
0.350249 0.5 -0.0375 0.00376633
0.350249 0.5 0.0375 0.00376685
0.288069 0.5 -0.225 0.00376119
0.288069 0.5 0.225 0.00376435
0.350249 0.5 0.1125 0.00376749
0.350249 0.5 -0.1125 0.00376597
0 0.5 0.368821 0.00375
0 0.5 -0.368821 0.00375
0.0124865 0.5 -0.368821 0.00375031
0.0124865 0.5 0.368821 0.00375063
0 0.5 -0.375 0.00375
0 0.5 0.375 0.00375
0 0.5 -0.381179 0.00375
0 0.5 0.381179 0.00375
0.0124865 0.5 -0.381179 0.00375031
0.0124865 0.5 0.381179 0.00375068
0.350249 0.5 -0.1875 0.00376571
0.350249 0.5 0.1875 0.00376835
0.219992 0.5 -0.3375 0.00375639
0.219992 0.5 0.3375 0.00376091
0.151149 0.5 -0.375 0.00375426
0.151149 0.5 0.375 0.00375779
0.411736 0.5 -0.00137318 0.00377402
0.288069 0.5 -0.3 0.00376112
0.288069 0.5 0.3 0.00376535
0.411736 0.5 -0.075 0.00377363
0.411736 0.5 0.075 0.0037746
0.075776 0.5 -0.4125 0.00375192
0.075776 0.5 0.4125 0.0037541
0.350249 0.5 -0.2625 0.00376557
0.350249 0.5 0.2625 0.00376937
0.411736 0.5 -0.15 0.00377328
0.411736 0.5 0.15 0.00377525
0 0.5 -0.443821 0.00375
0 0.5 0.443821 0.00375
0.0124865 0.5 -0.443821 0.00375031
0.0124865 0.5 0.443821 0.00375068
0 0.5 -0.45 0.00375
0 0.5 0.45 0.00375
0 0.5 -0.456179 0.00375
0 0.5 0.456179 0.00375
0.0124865 0.5 -0.456179 0.00375033
0.0124865 0.5 0.456179 0.00375072
0.219992 0.5 -0.4125 0.0037565
0.219993 0.5 0.4125 0.00376183
0.411736 0.5 -0.225 0.00377302
0.411736 0.5 0.225 0.00377607
0.467897 0.5 0.0375 0.00378131
0.467897 0.5 -0.0375 0.00378085
0.288069 0.5 -0.375 0.00376115
0.288069 0.5 0.375 0.00376638
0.151149 0.5 -0.45 0.00375439
0.151149 0.5 0.45 0.00375838
0.467897 0.5 -0.1125 0.00378046
0.467897 0.5 0.1125 0.00378184
0.350249 0.5 0.3375 0.00377049
0.350249 0.5 -0.3375 0.00376553
0.075776 0.5 -0.4875 0.00375201
0.075776 0.5 0.4875 0.00375436
0.467897 0.5 -0.1875 0.00378011
0.467897 0.5 0.1875 0.00378246
0.411736 0.5 -0.3 0.00377284
0.411736 0.5 0.3 0.00377703
0 0.5 -0.518821 0.00375
0 0.5 0.518821 0.00375
0.0124865 0.5 0.518821 0.00375072
0.0124865 0.5 -0.518821 0.00375033
0.523432 0.5 -0.00137318 0.00379103
0 0.5 -0.525 0.00375
0 0.5 0.525 0.00375
0.523432 0.5 -0.075 0.00379063
0.523432 0.5 0.075 0.00379155
0 0.5 -0.531179 0.00375
0 0.5 0.531179 0.00375
0.0124865 0.5 -0.531179 0.00375035
0.0124865 0.5 0.531179 0.00375076
0.288069 0.5 -0.45 0.00376134
0.288069 0.5 0.45 0.0037674
0.219992 0.5 -0.4875 0.0037568
0.219993 0.5 0.4875 0.0037627
0.467897 0.5 -0.2625 0.00377981
0.467897 0.5 0.2625 0.00378324
0.350249 0.5 -0.4125 0.0037656
0.350249 0.5 0.4125 0.00377165
0.523432 0.5 -0.15 0.00379017
0.523432 0.5 0.15 0.00379202
0.151149 0.5 -0.525 0.00375461
0.151149 0.5 0.525 0.00375893
0.411736 0.5 -0.375 0.00377273
0.411736 0.5 0.375 0.00377808
0.075776 0.5 -0.5625 0.00375213
0.075776 0.5 0.5625 0.00375459
0.523432 0.5 -0.225 0.0037897
0.523432 0.5 0.225 0.00379256
0.574156 0.5 -0.0375 0.00380031
0.574156 0.5 0.0375 0.00380076
0.467897 0.5 0.3375 0.00378416
0.467897 0.5 -0.3375 0.00377956
0.574156 0.5 -0.1125 0.00379979
0.574156 0.5 0.1125 0.00380116
0 0.5 -0.593821 0.00375
0 0.5 0.593821 0.00375
0.0124865 0.5 -0.593821 0.00375035
0.0124865 0.5 0.593821 0.00375076
0.288069 0.5 -0.525 0.00376164
0.288069 0.5 0.525 0.00376837
0 0.5 -0.6 0.00375
0 0.5 0.6 0.00375
0.350249 0.5 -0.4875 0.00376587
0.350249 0.5 0.4875 0.00377278
0.523432 0.5 -0.3 0.00378924
0.523432 0.5 0.3 0.00379321
0.219992 0.5 -0.5625 0.00375716
0.219992 0.5 0.5625 0.0037635
0.574156 0.5 -0.1875 0.00379921
0.574156 0.5 0.1875 0.00380153
0 0.5 -0.606179 0.00375
0 0.5 0.606179 0.00375
0.0124865 0.5 -0.606179 0.00375037
0.0124865 0.5 0.606179 0.00375079
0.411736 0.5 -0.45 0.00377274
0.411736 0.5 0.45 0.00377915
0.151149 0.5 -0.6 0.00375486
0.151149 0.5 0.6 0.00375942
0.62168 0.5 2.64545e-17 0.00381205
0.467897 0.5 0.4125 0.00378517
0.467897 0.5 -0.4125 0.00377937
0.624316 0.5 0.0729402 0.00381321
0.624316 0.5 -0.075 0.00381217
0.574156 0.5 -0.2625 0.00379859
0.574157 0.5 0.2625 0.00380194
0.075776 0.5 -0.6375 0.00375227
0.075776 0.5 0.6375 0.00375477
0.624316 0.5 -0.15 0.00381145
0.624316 0.5 0.15 0.00381352
0.523432 0.5 -0.375 0.00378876
0.523432 0.5 0.375 0.00379394
0.350249 0.5 -0.5625 0.00376615
0.350249 0.5 0.5625 0.00377385
0.624316 0.5 -0.225 0.0038106
0.624316 0.5 0.225 0.00381375
0.288069 0.5 0.6 0.00376926
0.288069 0.5 -0.6 0.00376196
0.574156 0.5 -0.3375 0.00379791
0.574156 0.5 0.3375 0.00380242
0.411736 0.5 -0.525 0.00377282
0.411736 0.5 0.525 0.0037802
0 0.5 -0.668821 0.00375
0 0.5 0.668821 0.00375
0.0124865 0.5 -0.668821 0.00375037
0.0124865 0.5 0.668821 0.00375079
0.67013 0.5 0.0375 0.00382464
0.67013 0.5 -0.0375 0.00382407
0.219993 0.5 -0.6375 0.00375754
0.219993 0.5 0.6375 0.00376419
0 0.5 -0.675 0.00375
0 0.5 0.675 0.00375
0.467897 0.5 0.4875 0.00378619
0.467897 0.5 -0.4875 0.0037793
0.67013 0.5 -0.1125 0.00382327
0.67013 0.5 0.1125 0.00382499
0 0.5 -0.681179 0.00375
0 0.5 0.681179 0.00375
0.0124865 0.5 -0.681179 0.0037504
0.0124865 0.5 0.681179 0.00375081
0.523432 0.5 -0.45 0.00378831
0.523432 0.5 0.45 0.00379472
0.151149 0.5 -0.675 0.00375512
0.151149 0.5 0.675 0.00375982
0.624316 0.5 -0.3 0.00380963
0.624316 0.5 0.3 0.00381395
0.67013 0.5 0.1875 0.00382513
0.67013 0.5 -0.1875 0.00382229
0.574156 0.5 -0.4125 0.00379716
0.574157 0.5 0.4125 0.00380297
0.708171 0.5 1.88651e-17 0.0038362
0.075776 0.5 -0.7125 0.00375241
0.075776 0.5 0.7125 0.00375491
0.715434 0.5 0.0736268 0.00383871
0.715434 0.5 -0.075 0.00383757
0.67013 0.5 0.2625 0.00382514
0.67013 0.5 -0.2625 0.00382112
0.350249 0.5 -0.6375 0.00376643
0.350249 0.5 0.6375 0.00377482
0.411736 0.5 -0.6 0.00377286
0.411736 0.5 0.6 0.00378118
0.624316 0.5 -0.375 0.00380852
0.624316 0.5 0.375 0.00381417
0.715434 0.5 -0.15 0.0038364
0.715434 0.5 0.15 0.0038392
0.467897 0.5 -0.5625 0.00377915
0.467897 0.5 0.5625 0.00378717
0.288069 0.5 -0.675 0.00376228
0.288069 0.5 0.675 0.00377003
0.523432 0.5 -0.525 0.00378784
0.523432 0.5 0.525 0.0037955
0 0.5 -0.743821 0.00375
0 0.5 0.743821 0.00375
0.0124865 0.5 -0.743821 0.0037504
0.0124865 0.5 0.743821 0.00375081
0.219992 0.5 0.7125 0.00376476
0.219992 0.5 -0.7125 0.00375792
0.715434 0.5 -0.225 0.00383496
0.715434 0.5 0.225 0.00383915
0 0.5 -0.75 0.00375
0 0.5 0.75 0.00375
0.67013 0.5 0.3375 0.00382508
0.67013 0.5 -0.3375 0.00381975
0.574156 0.5 -0.4875 0.00379642
0.574156 0.5 0.4875 0.00380355
0 0.5 -0.756179 0.00375
0 0.5 0.756179 0.00375
0.0124865 0.5 -0.756179 0.00375042
0.0124865 0.5 0.756179 0.00375083
0.756813 0.5 -0.0375 0.00385142
0.756813 0.5 0.0375 0.00385227
0.151149 0.5 -0.75 0.00375538
0.151149 0.5 0.75 0.00376014
0.756813 0.5 -0.1125 0.00385018
0.756813 0.5 0.1125 0.00385268
0.624316 0.5 -0.45 0.00380731
0.624316 0.5 0.45 0.00381441
0.715434 0.5 -0.3 0.00383323
0.715434 0.5 0.3 0.00383889
0.756813 0.5 0.1875 0.00385267
0.756813 0.5 -0.1875 0.00384857
0.67013 0.5 -0.4125 0.00381814
0.67013 0.5 0.4125 0.00382502
0.411736 0.5 -0.675 0.00377285
0.411736 0.5 0.675 0.00378205
0.467897 0.5 0.6375 0.00378806
0.467897 0.5 -0.6375 0.00377894
0.075776 0.5 -0.7875 0.00375254
0.075776 0.5 0.7875 0.00375501
0.350249 0.5 -0.7125 0.00376666
0.350249 0.5 0.7125 0.00377566
0.523432 0.5 -0.6 0.00378725
0.523432 0.5 0.6 0.00379623
0.797732 0.5 2.68882e-17 0.00386731
0.756813 0.5 -0.2625 0.0038466
0.756814 0.5 0.2625 0.00385233
0.797732 0.5 0.0736268 0.003868
0.797732 0.5 -0.075 0.003866
0.288069 0.5 -0.75 0.00376256
0.288069 0.5 0.75 0.00377067
0.574156 0.5 -0.5625 0.00379552
0.574157 0.5 0.5625 0.00380412
0.715434 0.5 -0.375 0.00383122
0.715434 0.5 0.375 0.00383851
0.797732 0.5 -0.15 0.00386419
0.797732 0.5 0.15 0.00386834
0.624316 0.5 -0.525 0.00380597
0.624316 0.5 0.525 0.00381464
0.219992 0.5 -0.7875 0.00375827
0.219992 0.5 0.7875 0.0037652
0 0.5 -0.818821 0.00375
0 0.5 0.818821 0.00375
0.0124865 0.5 0.818821 0.00375083
0.0124865 0.5 -0.818821 0.00375042
0 0.5 -0.825 0.00375
0 0.5 0.825 0.00375
0.756813 0.5 0.3375 0.00385171
0.756814 0.5 -0.3375 0.00384425
0.67013 0.5 -0.4875 0.00381644
0.67013 0.5 0.4875 0.00382494
0.797732 0.5 -0.225 0.00386192
0.797732 0.5 0.225 0.00386808
0 0.5 -0.831179 0.00375
0 0.5 0.831179 0.00375
0.0124865 0.5 -0.831179 0.00375044
0.0124865 0.5 0.831179 0.00375084
0.835106 0.5 0.0375 0.00388275
0.835106 0.5 -0.0375 0.00388148
0.151149 0.5 -0.825 0.00375561
0.151149 0.5 0.825 0.00376037
0.835106 0.5 0.1125 0.00388336
0.835106 0.5 -0.1125 0.00387961
0.715434 0.5 -0.45 0.00382898
0.715434 0.5 0.45 0.00383805
0.797732 0.5 -0.3 0.0038592
0.797732 0.5 0.3 0.00386739
0.467897 0.5 0.7125 0.00378885
0.467897 0.5 -0.7125 0.00377864
0.523432 0.5 -0.675 0.00378657
0.523432 0.5 0.675 0.00379687
0.411736 0.5 -0.75 0.00377278
0.411736 0.5 0.75 0.00378278
0.835106 0.5 -0.1875 0.00387714
0.835106 0.5 0.1875 0.00388331
0.574156 0.5 -0.6375 0.00379449
0.574157 0.5 0.6375 0.00380462
0.350249 0.5 -0.7875 0.00376683
0.350249 0.5 0.7875 0.00377634
0.756813 0.5 -0.4125 0.00384158
0.756814 0.5 0.4125 0.00385094
0.075776 0.5 -0.8625 0.00375267
0.075776 0.5 0.8625 0.00375506
0.624316 0.5 0.6 0.00381483
0.624316 0.5 -0.6 0.00380445
0.872064 0.5 5.91974e-17 0.0038989
0.870122 0.5 0.075 0.00389907
0.288069 0.5 -0.825 0.00376279
0.288069 0.5 0.825 0.00377115
0.67013 0.5 -0.5625 0.00381448
0.67013 0.5 0.5625 0.00382483
0.872064 0.5 -0.075 0.00389696
0.835106 0.5 -0.2625 0.00387414
0.835106 0.5 0.2625 0.00388266
0.797732 0.5 -0.375 0.00385608
0.797732 0.5 0.375 0.00386637
0.872064 0.5 0.14794 0.00390046
0.872064 0.5 -0.15 0.00389431
0.715434 0.5 -0.525 0.0038265
0.715434 0.5 0.525 0.00383753
0.219992 0.5 0.8625 0.00376551
0.219993 0.5 -0.8625 0.00375858
0 0.5 -0.893821 0.00375
0 0.5 0.893821 0.00375
0.0124865 0.5 -0.893821 0.00375044
0.0124865 0.5 0.893821 0.00375084
0 0.5 -0.9 0.00375
0 0.5 0.9 0.00375
0.756813 0.5 -0.4875 0.00383865
0.756813 0.5 0.4875 0.00385007
0.872064 0.5 -0.225 0.00389102
0.872064 0.5 0.225 0.00390008
0.835106 0.5 -0.3375 0.00387064
0.835106 0.5 0.3375 0.00388152
0 0.5 0.906179 0.00375
0 0.5 -0.906179 0.00375
0.0124865 0.5 -0.906179 0.00375046
0.0124865 0.5 0.906179 0.00375084
0.90582 0.5 -0.0375 0.0039141
0.90582 0.5 0.0375 0.00391596
0.151149 0.5 -0.9 0.00375581
0.151149 0.5 0.9 0.00376051
0.90582 0.5 -0.1125 0.00391138
0.905821 0.5 0.1125 0.0039169
0.523432 0.5 -0.75 0.00378578
0.523432 0.5 0.75 0.00379739
0.574156 0.5 -0.7125 0.00379333
0.574156 0.5 0.7125 0.00380503
0.797732 0.5 -0.45 0.00385258
0.797732 0.5 0.45 0.00386514
0.467897 0.5 0.7875 0.00378948
0.467897 0.5 -0.7875 0.00377825
0.624316 0.5 -0.675 0.00380279
0.624316 0.5 0.675 0.00381494
0.411736 0.5 -0.825 0.00377262
0.411736 0.5 0.825 0.00378335
0.872064 0.5 0.3 0.00389903
0.872064 0.5 -0.3 0.00388717
0.67013 0.5 -0.6375 0.00381235
0.67013 0.5 0.6375 0.00382466
0.90582 0.5 0.1875 0.00391694
0.905821 0.5 -0.1875 0.00390787
0.350249 0.5 -0.8625 0.00376693
0.350249 0.5 0.8625 0.00377684
0.835106 0.5 -0.4125 0.00386672
0.835106 0.5 0.4125 0.00388
0.715434 0.5 -0.6 0.00382378
0.715434 0.5 0.6 0.00383694
0.939201 0.5 2.75387e-17 0.00393199
0.075776 0.5 0.9375 0.00375507
0.075776 0.5 -0.9375 0.00375277
0.939111 0.5 0.075 0.00393378
0.939201 0.5 -0.075 0.00392924
0.756813 0.5 0.5625 0.0038491
0.756814 0.5 -0.5625 0.00383539
0.90582 0.5 0.2625 0.0039161
0.905821 0.5 -0.2625 0.00390374
0.288069 0.5 -0.9 0.00376296
0.288069 0.5 0.9 0.00377149
0.872064 0.5 -0.375 0.00388278
0.872064 0.5 0.375 0.0038974
0.939201 0.5 0.148627 0.00393423
0.939201 0.5 -0.15 0.00392554
0.797732 0.5 -0.525 0.00384872
0.797732 0.5 0.525 0.00386375
0.219992 0.5 0.9375 0.00376569
0.219992 0.5 -0.9375 0.00375883
0.939201 0.5 -0.225 0.00392107
0.939201 0.5 0.225 0.00393392
0.905821 0.5 -0.3375 0.00389901
0.90582 0.5 0.3375 0.0039145
0.835106 0.5 -0.4875 0.0038623
0.835106 0.5 0.4875 0.00387828
0 0.5 0.968821 0.00375
0 0.5 -0.968821 0.00375
0.0124865 0.5 -0.968821 0.00375046
0.0124865 0.5 0.968821 0.00375084
0.969689 0.5 -0.0375 0.00394706
0.969689 0.5 0.0375 0.00394967
0.574156 0.5 -0.7875 0.00379207
0.574156 0.5 0.7875 0.0038053
0 0.5 -0.975 0.00375
0 0.5 0.975 0.00375
0.624316 0.5 -0.75 0.00380099
0.624316 0.5 0.75 0.00381494
0.969689 0.5 -0.1125 0.00394329
0.96969 0.5 0.1125 0.00395107
0.523432 0.5 -0.825 0.00378489
0.523432 0.5 0.825 0.00379775
0.67013 0.5 0.7125 0.0038244
0.67013 0.5 -0.7125 0.00381006
0 0.5 -0.981179 0.00375
0 0.5 0.981179 0.00375
0.467897 0.5 0.8625 0.00378993
0.467897 0.5 -0.8625 0.00377777
0.0124865 0.5 -0.981179 0.00375047
0.0124865 0.5 0.981179 0.00375083
0.872064 0.5 -0.45 0.00387781
0.872064 0.5 0.45 0.00389534
0.715434 0.5 -0.675 0.00382088
0.715434 0.5 0.675 0.00383626
0.939201 0.5 -0.3 0.00391594
0.939201 0.5 0.3 0.00393254
0.151149 0.5 0.975 0.00376056
0.151149 0.5 -0.975 0.00375597
0.969689 0.5 -0.1875 0.00393853
0.969689 0.5 0.1875 0.00395124
0.756813 0.5 -0.6375 0.00383191
0.756813 0.5 0.6375 0.00384802
0.411736 0.5 -0.9 0.00377238
0.411736 0.5 0.9 0.00378373
0.90582 0.5 -0.4125 0.00389366
0.90582 0.5 0.4125 0.00391226
0.995005 0.5 0.0749309 0.0039637
0.797732 0.5 -0.6 0.00384458
0.797732 0.5 0.6 0.00386221
1.00005 0.5 -8.47123e-18 0.00396415
0.350249 0.5 -0.9375 0.00376695
0.350249 0.5 0.9375 0.00377717
1.00005 0.5 -0.0749309 0.00396057
0.969689 0.5 -0.2625 0.00393311
0.969689 0.5 0.2625 0.00395022
0.835106 0.5 -0.5625 0.00385754
0.835106 0.5 0.5625 0.00387633
1.00005 0.5 -0.149862 0.00395593
0.939201 0.5 -0.375 0.00391004
0.939201 0.5 0.375 0.00393033
1.00029 0.5 0.148988 0.00396723
0.075776 0.5 -1.0125 0.00375285
0.075776 0.5 1.0125 0.00375503
0.288069 0.5 0.975 0.00377166
0.288069 0.5 -0.975 0.00376305
0.872064 0.5 -0.525 0.00387235
0.872064 0.5 0.525 0.00389299
1.00005 0.5 0.224793 0.00396736
1.00005 0.5 -0.224793 0.00395045
0.969689 0.5 0.3375 0.00394815
0.96969 0.5 -0.3375 0.0039269
1.0271 0.5 -0.0368226 0.00397972
1.0271 0.5 0.0368226 0.00398308
0.90582 0.5 0.4875 0.00390956
0.905821 0.5 -0.4875 0.00388755
1.0271 0.5 -0.110468 0.00397518
1.0271 0.5 0.110468 0.00398743
0.67013 0.5 0.7875 0.00382403
0.67013 0.5 -0.7875 0.00380766
0.624316 0.5 0.825 0.00381482
0.624316 0.5 -0.825 0.0037991
0.219993 0.5 -1.0125 0.00375902
0.219993 0.5 1.0125 0.00376572
0.574156 0.5 -0.8625 0.0037907
0.574156 0.5 0.8625 0.00380542
0.715434 0.5 -0.75 0.00381784
0.715434 0.5 0.75 0.00383549
0.756813 0.5 0.7125 0.00384686
0.756814 0.5 -0.7125 0.00382827
0.523432 0.5 -0.9 0.00378391
0.523432 0.5 0.9 0.00379794
0.939201 0.5 -0.45 0.00390331
0.939201 0.5 0.45 0.00392744
1.04168 0.5 0 0.00399033
1.0271 0.5 -0.184113 0.00396971
1.0271 0.5 0.184113 0.00398585
0 0.5 -1.04382 0.00375
0 0.5 1.04382 0.00375
0.0124865 0.5 -1.04382 0.00375047
0.0124865 0.5 1.04382 0.00375083
1.00005 0.5 -0.299723 0.00394417
1.00005 0.5 0.299723 0.00396592
1.04168 0.5 -0.0729162 0.00398617
1.04168 0.5 0.0729162 0.00399323
0.797732 0.5 -0.675 0.00384023
0.797732 0.5 0.675 0.00386054
0.467897 0.5 0.9375 0.00379019
0.467897 0.5 -0.9375 0.00377721
0 0.5 -1.05 0.00375
0 0.5 1.05 0.00375
0.835106 0.5 -0.6375 0.00385253
0.835106 0.5 0.6375 0.0038742
1.04168 0.5 -0.145832 0.00398097
1.04168 0.5 0.145832 0.0039948
0.969689 0.5 -0.4125 0.00391966
0.96969 0.5 0.4125 0.00394522
0 0.5 -1.05618 0.00375
0 0.5 1.05618 0.00375
0.0124865 0.5 -1.05618 0.00375048
0.0124865 0.5 1.05618 0.00375082
1.05695 0.5 -0.0360764 0.0039974
1.05695 0.5 0.0360764 0.0040012
0.411736 0.5 -0.975 0.00377205
0.411736 0.5 0.975 0.00378393
0.872064 0.5 -0.6 0.00386658
0.872064 0.5 0.6 0.0038904
1.0271 0.5 -0.257759 0.00396347
1.0271 0.5 0.257759 0.0039853
0.151149 0.5 -1.05 0.00375608
0.151149 0.5 1.05 0.0037605
1.05695 0.5 0.108229 0.00400555
1.05695 0.5 -0.108229 0.00399248
1.04168 0.5 -0.218749 0.00397494
1.04168 0.5 0.218749 0.00399509
0.90582 0.5 -0.5625 0.00388107
0.905821 0.5 0.5625 0.00390657
1.00005 0.5 -0.374654 0.00393681
1.00005 0.5 0.374654 0.0039633
0.350249 0.5 1.0125 0.00377732
0.350249 0.5 -1.0125 0.00376689
1.05695 0.5 -0.180382 0.00398665
1.05695 0.5 0.180382 0.00400473
1.07319 0.5 0.0709442 0.00401398
0.939201 0.5 -0.525 0.00389601
0.939201 0.5 0.525 0.0039241
1.0271 0.5 -0.331404 0.00395624
1.0271 0.5 0.331404 0.00398334
1.08112 0.5 3.23815e-17 0.00401508
1.04168 0.5 -0.291665 0.003968
1.04168 0.5 0.291665 0.00399401
1.08112 0.5 -0.0709442 0.00401037
0.969689 0.5 -0.4875 0.00391151
0.96969 0.5 0.4875 0.00394158
1.05695 0.5 0.252535 0.00400456
1.05695 0.5 -0.252535 0.00398004
0.288069 0.5 -1.05 0.00376307
0.288069 0.5 1.05 0.00377167
0.075776 0.5 -1.0875 0.00375291
0.075776 0.5 1.0875 0.00375494
1.08112 0.5 -0.141888 0.00400469
1.08145 0.5 0.140165 0.00402013
0.715434 0.5 0.825 0.0038346
0.715434 0.5 -0.825 0.00381471
0.756813 0.5 0.7875 0.00384558
0.756814 0.5 -0.7875 0.00382452
0.67013 0.5 -0.8625 0.00380518
0.67013 0.5 0.8625 0.00382354
0.797732 0.5 -0.75 0.00383575
0.797732 0.5 0.75 0.00385876
0.624316 0.5 -0.9 0.00379713
0.624316 0.5 0.9 0.00381454
1.00005 0.5 -0.449585 0.00392828
1.00005 0.5 0.449585 0.00395969
0.835106 0.5 -0.7125 0.00384735
0.835106 0.5 0.7125 0.00387193
0.574156 0.5 -0.9375 0.00378926
0.574157 0.5 0.9375 0.00380536
1.10076 0.5 -0.0349809 0.00402587
1.10076 0.5 0.0349809 0.00403032
1.08112 0.5 -0.212832 0.00399814
1.08112 0.5 0.212832 0.00402146
0.872064 0.5 -0.675 0.00386057
0.872064 0.5 0.675 0.00388761
1.04168 0.5 -0.364581 0.0039598
1.04168 0.5 0.364581 0.00399152
1.0271 0.5 0.405049 0.00398006
1.0271 0.5 -0.405049 0.00394759
1.05695 0.5 -0.324688 0.00397232
1.05695 0.5 0.324688 0.00400294
1.10076 0.5 -0.104943 0.00402036
1.10076 0.5 0.104943 0.00403339
0.523432 0.5 0.975 0.00379794
0.523432 0.5 -0.975 0.00378286
0.90582 0.5 0.6375 0.00390334
0.905821 0.5 -0.6375 0.00387429
0.219992 0.5 1.0875 0.00376558
0.219992 0.5 -1.0875 0.00375914
1.11376 0.5 3.81639e-17 0.00403695
0.939201 0.5 0.6 0.00392033
0.939201 0.5 -0.6 0.00388844
1.10076 0.5 -0.174905 0.00401399
1.10076 0.5 0.174905 0.0040351
0.467897 0.5 -1.0125 0.00377655
0.467897 0.5 1.0125 0.00379025
1.11376 0.5 -0.0693118 0.00403178
1.11376 0.5 0.0693118 0.00404091
1.08112 0.5 0.283777 0.00402091
1.08112 0.5 -0.283777 0.00399057
0 0.5 -1.11882 0.00375
0 0.5 1.11882 0.00375
0.0124865 0.5 -1.11882 0.00375048
0.0124865 0.5 1.11882 0.00375082
0.969689 0.5 -0.5625 0.00390314
0.969689 0.5 0.5625 0.00393756
1.11376 0.5 0.138624 0.00404364
1.11376 0.5 -0.138624 0.00402566
0 0.5 -1.125 0.00375
0 0.5 1.125 0.00375
1.10076 0.5 0.244866 0.00403554
1.10076 0.5 -0.244866 0.00400672
0.411736 0.5 -1.05 0.00377164
0.411736 0.5 1.05 0.00378396
1.05695 0.5 -0.396841 0.00396312
1.05695 0.5 0.396841 0.00399989
1.00005 0.5 -0.524516 0.00391917
1.00005 0.5 0.524516 0.0039554
1.04168 0.5 -0.437497 0.00395032
1.04168 0.5 0.437497 0.00398776
0 0.5 -1.13118 0.00375
0 0.5 1.13118 0.00375
0.0124865 0.5 -1.13118 0.00375049
0.0124865 0.5 1.13118 0.0037508
1.11376 0.5 -0.207935 0.00401863
1.11376 0.5 0.207935 0.00404477
1.0271 0.5 -0.478694 0.00393785
1.0271 0.5 0.478694 0.00397573
0.151149 0.5 -1.125 0.00375615
0.151149 0.5 1.125 0.00376034
1.08112 0.5 -0.354722 0.00398168
1.08112 0.5 0.354722 0.00401889
1.13882 0.5 -0.0340295 0.00405186
1.13882 0.5 0.0340295 0.00405689
0.350249 0.5 -1.0875 0.00376673
0.350249 0.5 1.0875 0.00377729
1.13882 0.5 -0.102088 0.00404583
1.13882 0.5 0.102088 0.00406175
1.10076 0.5 -0.314829 0.00399821
1.10076 0.5 0.314829 0.00403455
0.756813 0.5 -0.8625 0.0038207
0.756814 0.5 0.8625 0.00384421
0.797732 0.5 -0.825 0.0038312
0.797732 0.5 0.825 0.00385689
1.11376 0.5 -0.277247 0.00401049
1.11376 0.5 0.277247 0.00404469
0.835106 0.5 0.7875 0.00386959
0.835106 0.5 -0.7875 0.00384208
0.715434 0.5 -0.9 0.00381153
0.715434 0.5 0.9 0.00383359
0.872064 0.5 -0.75 0.00385445
0.872064 0.5 0.75 0.00388463
1.13882 0.5 0.170147 0.00406286
1.13882 0.5 -0.170147 0.0040389
0.67013 0.5 -0.9375 0.00380264
0.67013 0.5 0.9375 0.0038229
0.905821 0.5 -0.7125 0.00386732
0.905821 0.5 0.7125 0.00389983
1.05695 0.5 0.468994 0.00399562
1.05695 0.5 -0.468994 0.0039529
0.939201 0.5 -0.675 0.0038807
0.939201 0.5 0.675 0.00391625
0.624316 0.5 0.975 0.00381408
0.624316 0.5 -0.975 0.00379509
1.04168 0.5 -0.510414 0.00394021
1.04168 0.5 0.510414 0.00398304
0.969689 0.5 -0.6375 0.00389455
0.96969 0.5 0.6375 0.0039328
0.288069 0.5 -1.125 0.00376301
0.288069 0.5 1.125 0.00377148
1.16179 0.5 5.78241e-19 0.0040715
1.08112 0.5 0.425666 0.00401545
1.08112 0.5 -0.425666 0.00397159
1.13882 0.5 -0.238206 0.00403094
1.13882 0.5 0.238206 0.00406383
1.16179 0.5 0.0669104 0.00407926
1.16179 0.5 -0.0669104 0.0040656
0.574156 0.5 -1.0125 0.00378774
0.574156 0.5 1.0125 0.00380509
0.075776 0.5 -1.1625 0.00375295
0.075776 0.5 1.1625 0.00375482
1.00005 0.5 -0.599447 0.00390989
1.00005 0.5 0.599447 0.00395046
1.10076 0.5 0.384791 0.00403204
1.10076 0.5 -0.384791 0.00398824
1.0271 0.5 -0.55234 0.00392786
1.0271 0.5 0.55234 0.00397071
1.11376 0.5 -0.346559 0.00400101
1.11376 0.5 0.346559 0.00404313
1.16179 0.5 -0.133821 0.00405874
1.16179 0.5 0.133821 0.00408011
0.523432 0.5 -1.05 0.00378172
0.523432 0.5 1.05 0.00379779
1.17463 0.5 -0.0331343 0.00407756
1.17463 0.5 0.0331343 0.00408315
1.17463 0.5 -0.0994029 0.00407099
1.17463 0.5 0.0994029 0.00408744
1.16179 0.5 -0.200731 0.00405086
1.16179 0.5 0.200731 0.00408163
1.13882 0.5 -0.306265 0.00402166
1.13882 0.5 0.306265 0.00406343
0.219992 0.5 -1.1625 0.00375919
0.219992 0.5 1.1625 0.00376529
0.467897 0.5 -1.0875 0.0037758
0.467897 0.5 1.0875 0.00379021
1.17463 0.5 0.165672 0.00409029
1.17463 0.5 -0.165672 0.00406347
1.05695 0.5 -0.541147 0.00394249
1.05695 0.5 0.541147 0.00399043
1.18772 0.5 -5.78241e-19 0.0040904
1.11376 0.5 -0.41587 0.00399045
1.11376 0.5 0.41587 0.00404009
1.18772 0.5 -0.065614 0.0040841
1.18772 0.5 0.065614 0.00409586
1.08112 0.5 -0.49661 0.00396096
1.08112 0.5 0.49661 0.00401081
1.10076 0.5 -0.454752 0.00397746
1.10076 0.5 0.454752 0.00402812
1.18534 0.5 0.118202 0.00409937
1.16179 0.5 -0.267642 0.00404175
1.16179 0.5 0.267642 0.00408228
0 0.5 -1.19382 0.00375
0 0.5 1.19382 0.00375
0.0124865 0.5 1.19382 0.0037508
0.0124865 0.5 -1.19382 0.00375049
1.04168 0.5 -0.58333 0.00392988
1.04168 0.5 0.58333 0.00397745
1.18772 0.5 -0.131228 0.00407681
1.17463 0.5 -0.23194 0.0040548
1.17463 0.5 0.23194 0.00409178
0.411736 0.5 -1.125 0.00377113
0.411736 0.5 1.125 0.0037838
1.13882 0.5 -0.374324 0.00401109
1.13882 0.5 0.374324 0.0040615
0 0.5 -1.2 0.00375
0 0.5 1.2 0.00375
0.905821 0.5 0.7875 0.00389608
0.905821 0.5 -0.7875 0.0038603
0.872064 0.5 -0.825 0.0038483
0.872064 0.5 0.825 0.00388153
0.835106 0.5 0.8625 0.00386713
0.835106 0.5 -0.8625 0.00383677
0.939201 0.5 -0.75 0.00387292
0.939201 0.5 0.75 0.00391202
0.797732 0.5 -0.9 0.00382663
0.797732 0.5 0.9 0.00385492
1.0271 0.5 0.625985 0.00396489
1.0271 0.5 -0.625985 0.00391778
0.969689 0.5 0.7125 0.00392803
0.96969 0.5 -0.7125 0.00388595
1.18772 0.5 -0.196842 0.00406844
1.18772 0.5 0.196842 0.00410176
0.756814 0.5 -0.9375 0.00381687
0.756814 0.5 0.9375 0.00384274
0 0.5 1.20618 0.00375
0 0.5 -1.20618 0.00375
1.00005 0.5 -0.674378 0.00390053
1.00005 0.5 0.674378 0.00394511
0.0124865 0.5 1.20618 0.00375077
0.0124865 0.5 -1.20618 0.00375049
1.16179 0.5 -0.334552 0.00403135
1.16179 0.5 0.334552 0.00408148
0.715434 0.5 0.975 0.00383244
0.715434 0.5 -0.975 0.00380831
0.151149 0.5 -1.2 0.00375617
0.151149 0.5 1.2 0.00376008
1.20942 0.5 0.0322645 0.00411085
1.20942 0.5 -0.0322645 0.00410424
1.17463 0.5 -0.298209 0.00404477
1.17463 0.5 0.298209 0.00409192
1.20942 0.5 -0.0967935 0.00409707
1.20942 0.5 0.0967935 0.00411531
0.350249 0.5 -1.1625 0.00376649
0.350249 0.5 1.1625 0.00377701
0.67013 0.5 1.0125 0.00382206
0.67013 0.5 -1.0125 0.00380005
1.11376 0.5 0.485183 0.0040357
1.11376 0.5 -0.485183 0.00397943
1.18772 0.5 0.262456 0.00410277
1.18772 0.5 -0.262456 0.0040588
1.10076 0.5 -0.524714 0.00396652
1.10076 0.5 0.524714 0.00402302
1.20942 0.5 -0.161322 0.00408885
1.20942 0.5 0.161322 0.00411877
1.08112 0.5 -0.567554 0.00395001
1.08112 0.5 0.567554 0.00400501
0.624316 0.5 -1.05 0.003793
0.624316 0.5 1.05 0.00381349
1.13882 0.5 -0.442383 0.00399985
1.13882 0.5 0.442383 0.00405805
1.05695 0.5 0.6133 0.00398418
1.05695 0.5 -0.6133 0.00393172
1.16179 0.5 -0.401463 0.00402005
1.16179 0.5 0.401463 0.00407914
0.574156 0.5 -1.0875 0.00378616
0.574156 0.5 1.0875 0.00380476
1.17463 0.5 0.364477 0.00409054
1.17463 0.5 -0.364477 0.00403356
1.20942 0.5 -0.225851 0.0040794
1.20942 0.5 0.225851 0.0041208
1.23036 0.5 -1.32995e-17 0.00412491
1.2294 0.5 0.0634819 0.00413108
1.04168 0.5 -0.656246 0.00391935
1.04168 0.5 0.656246 0.00397117
1.23036 0.5 -0.0634819 0.00411782
1.18772 0.5 0.32807 0.00410236
1.18772 0.5 -0.32807 0.00404791
0.288069 0.5 -1.2 0.00376286
0.288069 0.5 1.2 0.0037711
1.23036 0.5 -0.126964 0.00410966
1.23036 0.5 0.126964 0.00413545
0.075776 0.5 -1.2375 0.00375296
0.075776 0.5 1.2375 0.00375465
0.523432 0.5 -1.125 0.0037805
0.523432 0.5 1.125 0.00379748
1.0271 0.5 -0.69963 0.00390762
1.0271 0.5 0.69963 0.00395884
1.24274 0.5 0.0314313 0.00413822
1.24274 0.5 -0.0314313 0.00413145
1.20942 0.5 0.29038 0.00412146
1.20942 0.5 -0.29038 0.0040686
1.11376 0.5 -0.554494 0.00396806
1.11376 0.5 0.554494 0.00402996
1.23036 0.5 -0.190445 0.0041003
1.23036 0.5 0.190445 0.00413859
1.24274 0.5 -0.0942942 0.00412363
1.24274 0.5 0.0942942 0.00414375
1.13882 0.5 0.510442 0.00405326
1.13882 0.5 -0.510442 0.00398841
0.969689 0.5 -0.7875 0.00387747
0.969689 0.5 0.7875 0.00392315
1.00005 0.5 -0.749309 0.00389122
1.00005 0.5 0.749309 0.0039397
0.939201 0.5 -0.825 0.00386516
0.939201 0.5 0.825 0.0039076
0.90582 0.5 0.8625 0.00389231
0.90582 0.5 -0.8625 0.00385338
1.17463 0.5 -0.430746 0.00402182
1.17463 0.5 0.430746 0.00408757
1.10076 0.5 -0.594676 0.00395506
1.10076 0.5 0.594676 0.00401647
1.18772 0.5 -0.393684 0.00403621
1.18772 0.5 0.393684 0.00410038
1.24274 0.5 -0.157157 0.00411465
1.24274 0.5 0.157157 0.00414782
1.16179 0.5 -0.468373 0.00400839
1.16179 0.5 0.468373 0.0040753
0.467897 0.5 -1.1625 0.00377497
0.467897 0.5 1.1625 0.00378991
0.872064 0.5 -0.9 0.00384221
0.872064 0.5 0.9 0.00387839
1.25401 0.5 2.08167e-17 0.00414394
0.835106 0.5 0.9375 0.00386461
0.835106 0.5 -0.9375 0.00383151
1.25401 0.5 -0.0622994 0.00413641
1.25401 0.5 0.0622994 0.00415074
1.08112 0.5 -0.638498 0.00393856
1.08112 0.5 0.638498 0.0039981
1.23036 0.5 -0.253927 0.00408963
1.23036 0.5 0.253927 0.00414029
0.219992 0.5 1.2375 0.00376488
0.219992 0.5 -1.2375 0.00375917
1.25309 0.5 0.121964 0.00415533
1.05695 0.5 0.685452 0.00397738
1.05695 0.5 -0.685452 0.00392068
0.797732 0.5 0.975 0.00385284
0.797732 0.5 -0.975 0.00382209
1.25401 0.5 -0.124599 0.00412774
1.20942 0.5 -0.354909 0.00405676
1.20942 0.5 0.354909 0.00412063
1.24274 0.5 -0.220019 0.00410437
1.24274 0.5 0.220019 0.00415042
0.756814 0.5 -1.0125 0.00381304
0.756813 0.5 1.0125 0.00384113
1.25401 0.5 -0.186898 0.00411782
1.25401 0.5 0.186898 0.00415886
0.411736 0.5 -1.2 0.00377054
0.411736 0.5 1.2 0.00378337
0 0.5 -1.26882 0.00375
0 0.5 1.26882 0.00375
0.0124865 0.5 1.26882 0.00375077
0.0124865 0.5 -1.26882 0.00375049
0.715434 0.5 -1.05 0.00380509
0.715434 0.5 1.05 0.00383117
1.23036 0.5 -0.31741 0.00407784
1.23036 0.5 0.31741 0.00414055
1.04168 0.5 -0.729162 0.0039088
1.04168 0.5 0.729162 0.00396474
1.18772 0.5 -0.459298 0.00402418
1.18772 0.5 0.459298 0.00409686
1.24274 0.5 -0.282882 0.00409279
1.24274 0.5 0.282882 0.00415158
0 0.5 -1.275 0.00375
0 0.5 1.275 0.00375
1.27472 0.5 -0.0306319 0.00415936
1.27472 0.5 0.0306319 0.00416678
1.17463 0.5 0.497015 0.00408316
1.17463 0.5 -0.497015 0.00400991
1.11376 0.5 -0.623806 0.00395603
1.11376 0.5 0.623806 0.00402275
1.13882 0.5 -0.578501 0.00397644
1.13882 0.5 0.578501 0.00404696
0.67013 0.5 -1.0875 0.00379742
0.67013 0.5 1.0875 0.00382116
1.27472 0.5 -0.0918959 0.00415078
1.27472 0.5 0.0918959 0.00416965
1.25401 0.5 -0.249197 0.00410661
1.25401 0.5 0.249197 0.00416093
1.16179 0.5 -0.535284 0.00399637
1.16179 0.5 0.535284 0.00407003
1.20942 0.5 -0.419438 0.00404447
1.20942 0.5 0.419438 0.00411819
0 0.5 -1.28118 0.00375
0 0.5 1.28118 0.00375
0.0124865 0.5 1.28118 0.00375074
0.0124865 0.5 -1.28118 0.00375049
1.27472 0.5 0.15316 0.00417763