# kMean  POINT_DATA 91129
# x  y  z  kMean
0 0 0 0.00529878
0 0.00368111 0 0.00375
0 0.00749587 0 0.00375
0 0.0114491 0 0.00375
0 0.0155459 0 0.00375
0 0.0197915 0 0.00375
0 0.0241911 0 0.00375
0 0.0287506 0 0.00375
0 0.0334755 0 0.00375
0 0.038372 0 0.00375
0 0.0434463 0 0.00375
0 0.0487048 0 0.00375
0 0.0541543 0 0.00375
0 0.0598016 0 0.00375
0 0.0656539 0 0.00375
0 0.0717187 0 0.00375
0.075776 0.00184055 0 0.00878645
0.075776 0.00558849 0 0.00317164
0.075776 0.00947248 -3.46945e-18 0.00299148
0.075776 0.0134975 -3.46945e-18 0.00338603
0.075776 0.0176687 3.46945e-18 0.00356376
0 0.0780037 0 0.00375
0.075776 0.0219913 3.46945e-18 0.00363564
0.075776 0.0264709 3.46945e-18 0.00367202
0.075776 0.031113 -3.46945e-18 0.00369302
0.075776 0.0359237 -3.46945e-18 0.0037064
0 0.0845169 0 0.00375
0.075776 0.0409092 0 0.00371555
0.075776 0.0460755 -3.46945e-18 0.00372211
0 0.0912666 0 0.00375
0.075776 0.0514296 -3.46945e-18 0.00372702
0.075776 0.0569779 0 0.00373081
0 0.0982613 0 0.00375
0.075776 0.0627278 0 0.0037338
0.075776 0.0686863 0 0.0037362
0 0.10551 0 0.00375
0.075776 0.0748612 3.46945e-18 0.00373819
0.075776 0.0812603 -3.46945e-18 0.00373988
0 0.113022 0 0.00375
0.075776 0.0878918 3.46945e-18 0.00374135
0 0.120806 0 0.00375
0.075776 0.0947639 3.46945e-18 0.00374261
0.075776 0.101886 -3.46945e-18 0.0037437
0 0.128874 0 0.00375
0.075776 0.109266 3.46945e-18 0.00374464
0 0.137234 0 0.00375
0.075776 0.116914 3.46945e-18 0.00374545
0 0.145897 0 0.00375
0.075776 0.12484 0 0.00374615
0.151552 0 0 0.00537736
0.151552 0.00368111 0 0.00383392
0.151552 0.00749587 0 0.00249181
0.151552 0.0114491 0 0.00294612
0.151552 0.0155459 0 0.00330712
0.151552 0.0197915 0 0.00346621
0.075776 0.133054 0 0.00374676
0.151552 0.0241911 0 0.00354902
0.151552 0.0287506 0 0.00360192
0 0.154876 0 0.00375
0.151552 0.0334755 0 0.00363735
0.151552 0.038372 0 0.00366184
0.151552 0.0434463 0 0.00367937
0.151552 0.0487048 0 0.00369234
0.075776 0.141566 0 0.0037473
0.151552 0.0541543 0 0.00370221
0.151552 0.0598016 0 0.00370991
0 0.16418 0 0.00375
0.151552 0.0656539 0 0.00371605
0.151552 0.0717187 0 0.00372103
0.075776 0.150387 0 0.0037478
0.151552 0.0780037 0 0.00372516
0.151552 0.0845169 0 0.00372862
0 0.173822 0 0.00375
0.075776 0.159528 0 0.00374827
0.151552 0.0912666 0 0.00373156
0.151552 0.0982613 0 0.00373408
0 0.183814 0 0.00375
0.151552 0.10551 0 0.00373624
0.075776 0.169001 3.46945e-18 0.00374872
0.151552 0.113022 0 0.00373811
0.151552 0.120806 0 0.00373975
0 0.194169 0 0.00375
0.075776 0.178818 3.46945e-18 0.00374916
0.151552 0.128874 0 0.00374118
0.075776 0.188992 3.46945e-18 0.0037496
0.151552 0.137234 0 0.00374245
0 0.2049 0 0.00375
0.151552 0.145897 0 0.00374358
0.075776 0.199535 0 0.00375004
0 0.21602 0 0.00375
0.151552 0.154876 0 0.0037446
0.219992 0.00184055 0 0.00223063
0.219992 0.00558849 0 0.0014769
0.219992 0.00947248 -3.46945e-18 0.00241793
0.219992 0.0134975 3.46945e-18 0.00302638
0.219992 0.0176687 0 0.0032781
0.219992 0.0219913 0 0.00340786
0.219993 0.0264709 -3.46945e-18 0.00349669
0.219992 0.031113 -3.46945e-18 0.00355836
0.219992 0.0359238 3.46945e-18 0.00360121
0.151552 0.16418 0 0.00374553
0.075776 0.21046 0 0.00375047
0.219992 0.0409092 3.46945e-18 0.00363174
0.219992 0.0460755 0 0.00365414
0.219993 0.0514296 -3.46945e-18 0.00367103
0.219992 0.0569779 0 0.00368409
0 0.227544 0 0.00375
0.219992 0.0627277 3.46945e-18 0.0036944
0.219992 0.0686863 0 0.0037027
0.151552 0.173822 0 0.00374639
0.219992 0.0748612 3.46945e-18 0.00370951
0.075776 0.221782 0 0.00375086
0.219992 0.0812603 3.46945e-18 0.00371517
0.219992 0.0878917 -3.46945e-18 0.00371993
0.151552 0.183814 0 0.00374719
7.47806e-17 0.239487 0 0.00375
0.219992 0.0947639 3.46945e-18 0.00372396
0.219993 0.101886 3.46945e-18 0.00372742
0.075776 0.233516 0 0.00375122
0.219993 0.109266 0 0.00373041
0.151552 0.194169 0 0.00374794
0.219993 0.116914 0 0.00373301
0 0.251863 0 0.00375
0.219993 0.12484 0 0.0037353
0.151552 0.2049 0 0.00374865
0.075776 0.245675 0 0.00375152
0.219992 0.133054 3.46945e-18 0.00373732
0.219992 0.141565 0 0.00373911
0.151552 0.21602 0 0.00374931
0 0.264688 0 0.00375
0.219992 0.150387 3.46945e-18 0.00374071
0.075776 0.258275 3.46945e-18 0.00375177
0.219992 0.159528 -3.46945e-18 0.00374214
0.151552 0.227544 0 0.00374993
0.219992 0.169001 3.46945e-18 0.00374344
0 0.27798 0 0.00375
0.075776 0.271334 3.46945e-18 0.00375197
0.151552 0.239487 3.70071e-18 0.0037505
0.219992 0.178818 3.46945e-18 0.00374462
0.288433 0 0 0.00154493
0.288433 0.00368111 0 0.00137753
0.288433 0.00749587 0 0.00179671
0.288433 0.0114491 0 0.00270124
0.288433 0.0155459 3.70071e-18 0.00314028
0.288433 0.0197915 0 0.00331178
0.288433 0.0241911 3.70071e-18 0.00340005
0.288433 0.0287506 0 0.00346974
0.219992 0.188991 0 0.0037457
0.288433 0.0334755 0 0.00352621
0.288433 0.038372 0 0.00356976
0.288433 0.0434463 0 0.0036032
7.47806e-17 0.291753 0 0.00375
0.288433 0.0487048 0 0.00362908
0.288433 0.0541543 0 0.00364938
0.151552 0.251863 0 0.00375102
0.288433 0.0598016 3.70071e-18 0.00366553
0.075776 0.284866 0 0.00375211
0.288433 0.0656539 3.70071e-18 0.00367858
0.219992 0.199534 0 0.0037467
0.288433 0.0717187 0 0.00368925
0.288433 0.0780037 0 0.00369809
0.288433 0.0845169 0 0.00370548
0.288433 0.0912666 0 0.00371167
0.219992 0.21046 -3.46945e-18 0.00374762
0.288433 0.0982613 0 0.00371694
0.151552 0.264688 3.70071e-18 0.00375148
0 0.306027 0 0.00375
0.288433 0.10551 0 0.00372154
0.075776 0.29889 3.46945e-18 0.00375219
0.288433 0.113022 0 0.00372563
0.219993 0.221782 0 0.00374849
0.288433 0.120806 0 0.00372926
0.288433 0.128874 0 0.0037325
0.151552 0.27798 0 0.00375189
0.288433 0.137234 0 0.0037354
0 0.320819 0 0.00375
0.219992 0.233515 -3.46945e-18 0.00374931
0.075776 0.313423 -3.46945e-18 0.00375218
0.288433 0.145897 0 0.003738
0.288433 0.154876 0 0.00374033
0.151552 0.291753 0 0.00375224
0.219993 0.245675 0 0.00375008
0.288433 0.16418 0 0.00374241
0 0.336148 0 0.00375
0.288433 0.173822 0 0.00374426
0.075776 0.328484 -3.46945e-18 0.00375212
0.219993 0.258275 -3.46945e-18 0.00375079
0.151552 0.306027 0 0.00375253
0.288433 0.183814 0 0.00374593
0.288433 0.194169 0 0.0037474
0.219992 0.271334 3.46945e-18 0.00375146
0.350249 0.00184056 -3.46945e-18 0.000909651
0.350249 0.00558849 0 0.000962949
0.350249 0.00947248 3.46945e-18 0.00235125
0.350249 0.0134975 0 0.0030125
0.350249 0.0176687 0 0.00324592
0.350249 0.0219913 0 0.00331984
0.350249 0.0264708 3.46945e-18 0.0033835
0.350249 0.031113 0 0.00344891
0 0.352034 0 0.00375
0.350249 0.0359238 0 0.00350423
0.075776 0.344091 0 0.00375206
0.350249 0.0409091 0 0.00354873
0.350249 0.0460756 3.46945e-18 0.00358402
0.288433 0.2049 0 0.00374872
0.350249 0.0514296 0 0.00361205
0.151552 0.320819 0 0.00375276
0.350249 0.0569779 0 0.00363449
0.350249 0.0627277 3.46945e-18 0.00365265
0.350249 0.0686863 3.46945e-18 0.0036675
0.350249 0.0748612 3.46945e-18 0.00367977
0.350249 0.0812603 0 0.00369001
0.219992 0.284867 0 0.00375206
0.288433 0.21602 0 0.0037499
0.350249 0.0878917 0 0.00369858
0.350249 0.094764 0 0.00370573
0.350249 0.101886 0 0.00371192
0.350249 0.109266 0 0.0037175
0.288433 0.227544 0 0.00375096
0.075776 0.360265 3.46945e-18 0.00375206
0 0.368496 0 0.00375
0.151552 0.336148 0 0.00375295
0.350249 0.116914 3.46945e-18 0.0037225
0.219992 0.29889 0 0.00375261
0.370854 0.0241911 1.54074e-33 0.00337315
0.350249 0.12484 0 0.00372696
0.350249 0.133054 0 0.00373097
0.288433 0.239487 -9.25154e-19 0.00375194
0.350249 0.141566 3.46945e-18 0.0037346
0.350249 0.150387 3.46945e-18 0.00373786
0.288433 0.251863 0 0.00375282
0.219992 0.313423 0 0.0037531
0.151552 0.352034 0 0.00375314
0.075776 0.377027 0 0.00375211
0.350249 0.159528 0 0.00374077
0 0.385557 0 0.00375
0.350249 0.169001 0 0.00374334
0.288433 0.264688 0 0.00375363
0.350249 0.178818 0 0.00374562
0.219992 0.328484 0 0.00375354
0.350249 0.188992 0 0.00374765
0.151552 0.368496 0 0.00375336
0.288433 0.27798 3.70071e-18 0.00375438
0.075776 0.394397 0 0.00375221
0.350249 0.199535 0 0.0037494
7.47806e-17 0.403236 0 0.00375
0.219992 0.344091 0 0.00375394
0.350249 0.21046 -3.46945e-18 0.00375093
0.288433 0.291753 0 0.00375507
0.412065 9.08189e-19 3.08149e-33 0.000779833
0.412065 0.00368111 -2.31298e-18 0.000857636
0.412065 0.00749587 -2.31298e-18 0.00170536
0.412065 0.0114491 -2.31298e-18 0.00281664
0.412065 0.0155459 -2.31298e-18 0.00324043
0.412065 0.0197915 0 0.0033358
0.412065 0.0241911 -3.08149e-33 0.00335969
0.412065 0.0264709 0 0.00337676
0.412065 0.0287506 -2.31298e-18 0.00339382
0.412065 0.0334755 -2.31298e-18 0.00344234
0.412065 0.038372 -2.31298e-18 0.0034907
0.151552 0.385557 0 0.00375361
0.412065 0.0434463 0 0.00353314
0.350249 0.221782 0 0.00375227
0.412065 0.0487048 0 0.00356868
0.412065 0.0541543 -3.08149e-33 0.00359796
0.412065 0.0569779 0 0.00361
0.412065 0.0598016 -2.31298e-18 0.00362203
0.412065 0.0656539 -2.31298e-18 0.00364187
0.412065 0.0717187 -2.31298e-18 0.0036583
0.075776 0.412396 -3.46945e-18 0.00375229
0.412065 0.0780037 -2.31298e-18 0.00367198
0.288433 0.306027 0 0.00375573
0.412065 0.0845169 -2.31298e-18 0.00368343
0.350249 0.233516 3.46945e-18 0.00375348
0 0.421557 0 0.00375
0.412065 0.0912666 -2.31298e-18 0.00369309
0.219992 0.360265 3.46945e-18 0.00375433
0.412065 0.0982613 0 0.00370151
0.412065 0.10551 0 0.00370909
0.412065 0.113022 -2.31298e-18 0.00371598
0.350249 0.245675 0 0.00375456
0.412065 0.120806 0 0.00372221
0.151552 0.403236 0 0.00375388
0.288433 0.320819 0 0.00375637
0.412065 0.128874 -2.31298e-18 0.00372781
0.412065 0.137234 0 0.00373285
0.350249 0.258275 -3.46945e-18 0.00375552
0.219992 0.377026 0 0.00375474
0.412065 0.145897 -2.31298e-18 0.00373737
0.075776 0.431051 0 0.00375235
0.412065 0.154876 -2.31298e-18 0.0037414
0 0.440544 0 0.00375
0.288433 0.336148 0 0.00375699
0.350249 0.271334 0 0.0037564
0.412065 0.16418 -2.31298e-18 0.00374495
0.412065 0.173822 -2.31298e-18 0.00374807
0.151552 0.421557 0 0.00375413
0.412065 0.183814 -2.31298e-18 0.00375081
0.350249 0.284867 3.46945e-18 0.00375722
0.219992 0.394397 0 0.00375516
0.288433 0.352034 3.70071e-18 0.00375759
0.412065 0.194169 0 0.0037532
0.075776 0.450382 0 0.00375238
0.412065 0.2049 -2.31298e-18 0.00375529
0 0.46022 0 0.00375
0.350249 0.29889 3.46945e-18 0.00375801
0.412065 0.21602 0 0.00375712
0.151552 0.440544 0 0.00375437
0.219993 0.412396 3.46945e-18 0.00375559
0.467897 0.00184056 -3.46945e-18 0.000659072
0.467897 0.00558849 0 0.000909844
0.288433 0.368496 0 0.00375819
0.467897 0.00947248 0 0.00259071
0.467897 0.0134975 0 0.00329332
0.467897 0.0176687 3.46945e-18 0.00339446
0.467897 0.0219913 -3.46945e-18 0.0033756
0.467897 0.0264709 3.46945e-18 0.00335872
0.467897 0.0311131 3.46945e-18 0.00338726
0.467897 0.0359238 -3.46945e-18 0.00343375
0.467897 0.038372 0 0.00346381
0.467897 0.0409092 3.46945e-18 0.00348108
0.350249 0.313423 0 0.0037588
0.467897 0.0460755 0 0.00352337
0.467897 0.0514296 3.46945e-18 0.00355937
0.412065 0.227544 -2.31298e-18 0.00375871
0.467897 0.0569779 0 0.00358947
0.467897 0.0627277 -3.46945e-18 0.00361451
0.467897 0.0686863 3.46945e-18 0.00363534
0.467897 0.0748612 0 0.00365271
0.467897 0.0812603 0 0.00366724
0.467897 0.0878918 3.46945e-18 0.00367939
0.075776 0.470415 3.46945e-18 0.0037524
0.412065 0.239487 -2.31298e-18 0.00376011
0.467897 0.0947639 -3.46945e-18 0.00368991
0.467897 0.101886 3.46945e-18 0.00369949
0.350249 0.328483 0 0.0037596
0.467897 0.109266 0 0.00370825
0 0.48061 0 0.00375
0.288433 0.385557 0 0.00375878
0.467897 0.116914 0 0.00371624
0.412065 0.251863 -2.31298e-18 0.00376133
0.219992 0.431051 0 0.00375602
0.467897 0.12484 0 0.00372348
0.151552 0.46022 0 0.00375459
0.467897 0.133054 3.46945e-18 0.00373
0.467897 0.141566 3.46945e-18 0.00373584
0.412065 0.264688 -2.31298e-18 0.00376241
0.350249 0.344091 -3.46945e-18 0.0037604
0.467897 0.150387 3.46945e-18 0.00374103
0.467897 0.154876 0 0.0037449
0.467897 0.159528 3.46945e-18 0.00374563
0.288433 0.403236 0 0.00375938
0.075776 0.491175 0 0.00375241
0.412065 0.27798 -2.31298e-18 0.00376339
0.467897 0.169001 0 0.00374966
0.467897 0.178818 3.46945e-18 0.00375318
0.219992 0.450382 0 0.00375643
6.73026e-17 0.501741 3.70071e-18 0.00375
0.350249 0.360265 0 0.00376119
0.151552 0.48061 0 0.00375479
0.467897 0.188991 0 0.00375622
0.412065 0.291753 0 0.0037643
0.467897 0.199535 0 0.0037589
0.288433 0.421557 0 0.00375998
0.467897 0.21046 0 0.00376124
0.412065 0.306027 0 0.00376517
0.350249 0.377027 0 0.00376196
0.467897 0.221782 3.46945e-18 0.00376327
0.075776 0.51269 0 0.00375244
0.219993 0.470415 3.46945e-18 0.00375681
0.467897 0.227544 0 0.00376607
0.412065 0.320819 -2.31298e-18 0.00376603
0.467897 0.233515 0 0.00376502
6.73026e-17 0.523639 3.70071e-18 0.00375
0.523729 0 0 0.000591286
0.523729 0.00368111 0 0.000743867
0.523729 0.00749587 -2.31298e-18 0.00181872
0.523729 0.0114491 0 0.00313133
0.523729 0.0155459 0 0.00354139
0.523729 0.0197915 -2.31298e-18 0.00351314
0.151552 0.501741 0 0.00375497
0.523729 0.0241911 0 0.00342913
0.523729 0.0287506 0 0.0033899
0.523729 0.0334755 0 0.00340148
0.523729 0.038372 -3.08149e-33 0.00343692
0.523729 0.0434463 0 0.00347843
0.523729 0.0487048 0 0.0035181
0.523729 0.0541543 0 0.00355328
0.288433 0.440544 0 0.00376057
0.523729 0.0598016 0 0.00358352
0.350249 0.394397 -3.46945e-18 0.00376272
0.523729 0.0656539 0 0.00360917
0.467897 0.245675 0 0.00376653
0.523729 0.0717187 0 0.0036308
0.523729 0.0780037 0 0.003649
0.523729 0.0845169 0 0.00366437
0.523729 0.0912666 0 0.00367769
0.412065 0.336148 0 0.00376688
0.523729 0.0982613 0 0.00368971
0.523729 0.10551 -2.31298e-18 0.00370073
0.467897 0.258275 -3.46945e-18 0.00376784
0.523729 0.113022 0 0.00371081
0.523729 0.120806 -3.08149e-33 0.00371999
0.219993 0.491176 0 0.00375716
0.523729 0.12484 0 0.00372414
0.523729 0.128874 -2.31298e-18 0.0037283
0.075776 0.534986 0 0.00375247
0.467897 0.271334 3.46945e-18 0.003769
0.350249 0.412396 -3.46945e-18 0.00376348
0.523729 0.137234 0 0.00373578
0.412065 0.352034 -2.31298e-18 0.00376772
0.288433 0.46022 0 0.00376113
0.523729 0.145897 0 0.00374247
0.151552 0.523639 0 0.00375515
0.523729 0.154876 -3.08149e-33 0.00374841
0 0.546332 0 0.00375
0.523729 0.159528 0 0.00375103
0.467897 0.284867 -3.46945e-18 0.00377004
0.523729 0.16418 -2.31298e-18 0.00375364
0.523729 0.173822 0 0.00375822
0.412065 0.368496 0 0.00376856
0.523729 0.183814 0 0.0037622
0.467897 0.29889 0 0.00377101
0.350249 0.431051 -3.46945e-18 0.00376423
0.219992 0.51269 0 0.00375749
0.523729 0.194169 0 0.00376565
0.288433 0.48061 0 0.00376166
0.523729 0.2049 0 0.00376864
0.467897 0.313423 3.46945e-18 0.00377193
0.075776 0.558091 0 0.00375252
0.412065 0.385557 0 0.00376938
0.523729 0.21602 -3.08149e-33 0.00377122
0.151552 0.546332 0 0.00375533
0 0.569849 0 0.00375
0.350249 0.450382 3.46945e-18 0.00376496
0.523729 0.227544 -3.08149e-33 0.00377343
0.467897 0.328483 0 0.00377283
0.523729 0.231525 1.54074e-33 0.00377405
0.574156 0.00184056 0 0.00052795
0.574156 0.00558849 0 0.000883936
0.574157 0.00947248 0 0.00288146
0.574156 0.0134975 -3.46945e-18 0.00373503
0.574156 0.0176687 -3.46945e-18 0.00371683
0.574156 0.0219913 0 0.00354887
0.574156 0.0264708 -3.46945e-18 0.00342521
0.574156 0.031113 0 0.00338619
0.574156 0.0359238 -3.46945e-18 0.0033999
0.574157 0.0409092 0 0.00343565
0.523729 0.239487 3.70071e-18 0.00377531
0.574156 0.0460755 -3.46945e-18 0.00347673
0.574156 0.0514295 0 0.00351599
0.412065 0.403236 0 0.00377021
0.574157 0.0569779 0 0.00355105
0.574156 0.0627277 0 0.00358145
0.574156 0.0686863 0 0.00360743
0.219992 0.534986 0 0.00375781
0.288433 0.501741 0 0.00376216
0.574156 0.0748612 3.46945e-18 0.00362946
0.574156 0.0812603 0 0.00364802
0.467897 0.344091 0 0.00377372
0.574156 0.0878917 3.46945e-18 0.00366398
0.523729 0.251863 0 0.00377692
0.574157 0.0947639 0 0.00367838
0.574156 0.101886 0 0.00369169
0.574156 0.109266 0 0.00370389
0.574156 0.116914 0 0.00371503
0.412065 0.416977 -6.16298e-33 0.00377083
0.350249 0.470415 0 0.00376567
0.523729 0.264688 0 0.00377831
0.075776 0.582034 0 0.00375257
0.574156 0.12484 0 0.00372518
0.574156 0.133054 3.46945e-18 0.00373435
0.412065 0.421557 -2.31298e-18 0.00377104
0.151552 0.569849 0 0.00375551
0.467897 0.360265 -3.46945e-18 0.00377461
0.574157 0.141566 -3.46945e-18 0.00374258
0.523729 0.27798 0 0.00377951
0.574156 0.150386 3.46945e-18 0.00374992
0 0.594219 0 0.00375
0.574156 0.159528 -3.46945e-18 0.00375641
0.574156 0.16418 0 0.00376073
0.288433 0.523639 1.2326e-32 0.00376263
0.574157 0.169001 0 0.0037621
0.523729 0.291753 0 0.00378059
0.219993 0.558091 3.46945e-18 0.00375811
0.467897 0.377026 0 0.0037755
0.574156 0.178818 3.46945e-18 0.00376706
0.412065 0.440544 -2.31298e-18 0.00377186
0.350249 0.491175 0 0.00376633
0.574156 0.188992 3.46945e-18 0.00377136
0.523729 0.306027 -3.08149e-33 0.00378157
0.574157 0.199535 0 0.00377506
0.574157 0.21046 0 0.00377824
0.075776 0.606847 0 0.00375263
0.467897 0.394397 0 0.00377639
0.151552 0.594219 0 0.00375569
0.523729 0.320819 0 0.0037825
0.574157 0.221782 -3.46945e-18 0.00378095
0.412065 0.46022 3.08149e-33 0.00377266
0.288433 0.546332 0 0.00376307
0 0.619475 0 0.00375
0.574156 0.233515 3.46945e-18 0.00378325
0.350249 0.51269 3.46945e-18 0.00376696
0.219992 0.582034 3.46945e-18 0.00375841
0.523729 0.336148 0 0.00378339
0.467897 0.412396 0 0.00377728
0.574156 0.245675 0 0.0037852
0.624584 0 0 0.000481639
0.624584 0.00368111 0 0.000681049
0.624584 0.00749587 0 0.00194962
0.624584 0.0114491 0 0.0035024
0.624584 0.0155459 0 0.00396997
0.624584 0.0197915 0 0.00382728
0.624584 0.0241911 -2.31298e-18 0.00360495
0.624584 0.0287506 0 0.00346385
0.624584 0.0334755 0 0.00341171
0.624584 0.038372 0 0.00341588
0.624584 0.0434463 -2.31298e-18 0.00344445
0.624584 0.0487048 0 0.00348116
0.624584 0.0541543 0 0.00351811
0.624584 0.0598016 0 0.00355209
0.624584 0.0656539 0 0.00358213
0.624584 0.0717187 0 0.00360812
0.624584 0.0780037 0 0.0036303
0.574157 0.258276 3.46945e-18 0.00378685
0.624584 0.0845169 0 0.0036494
0.523729 0.352034 0 0.00378426
0.624584 0.0912666 0 0.00366651
0.624584 0.0982613 0 0.00368234
0.412065 0.48061 3.08149e-33 0.00377343
0.624584 0.10551 0 0.00369695
0.624584 0.113022 -2.31298e-18 0.00371034
0.574156 0.271334 0 0.00378825
0.624584 0.120806 0 0.00372258
0.467897 0.431051 0 0.00377818
0.075776 0.632561 -3.46945e-18 0.00375269
0.624584 0.128874 0 0.0037337
0.151552 0.619475 0 0.00375587
0.288433 0.569849 0 0.00376349
0.350249 0.534985 0 0.00376754
0.624584 0.137234 -2.31298e-18 0.00374375
0.523729 0.368496 0 0.00378513
0.574156 0.284866 -3.46945e-18 0.00378946
0.624584 0.145897 0 0.00375275
0.467897 0.440544 0 0.00378025
0.624584 0.154876 0 0.00376076
0.219992 0.606847 -3.46945e-18 0.0037587
0 0.645647 0 0.00375
0.624584 0.16418 -3.08149e-33 0.00376782
0.574156 0.29889 -3.46945e-18 0.00379053
0.624584 0.173822 0 0.003774
0.412065 0.501741 1.54074e-33 0.00377415
0.467897 0.450382 -3.46945e-18 0.00377906
0.523729 0.385557 0 0.003786
0.624584 0.183814 0 0.00377936
0.624584 0.194169 0 0.00378399
0.574156 0.313423 0 0.0037915
0.624584 0.2049 0 0.00378795
0.350249 0.558091 3.46945e-18 0.00376808
0.288433 0.594219 0 0.00376389
0.624584 0.21602 0 0.00379132
0.523729 0.403236 0 0.00378688
0.574156 0.328483 -3.46945e-18 0.00379241
0.151552 0.645647 0 0.00375605
0.467897 0.470415 3.46945e-18 0.00377993
0.075776 0.659208 0 0.00375276
0.624584 0.227544 0 0.00379417
0.412065 0.523639 0 0.00377483
0.523729 0.41545 3.08149e-33 0.00378747
0.624584 0.239487 3.70071e-18 0.00379656
0.574156 0.344091 0 0.00379328
0.219992 0.632561 0 0.00375898
0.67013 0.00184055 0 0.000438162
0.67013 0.00558849 0 0.000877205
0.67013 0.00947248 0 0.00314779
0.67013 0.0134975 0 0.00422165
0.67013 0.0176687 -3.46945e-18 0.00417654
0.67013 0.0219913 0 0.00384311
0.67013 0.0264708 3.46945e-18 0.0035882
0.67013 0.0311131 0 0.00344869
0.67013 0.0359237 0 0.00340979
0.67013 0.0409092 -3.46945e-18 0.00341839
0.67013 0.0460755 0 0.00344847
0.67013 0.0514296 3.46945e-18 0.00348532
0.523729 0.421557 -2.31298e-18 0.00378776
0.67013 0.056978 0 0.00352196
0 0.67277 0 0.00375
0.67013 0.0627277 0 0.00355565
0.624584 0.251863 0 0.00379856
0.67013 0.0686863 0 0.00358549
0.67013 0.0748612 3.46945e-18 0.00361135
0.67013 0.0812603 0 0.00363341
0.67013 0.0878917 0 0.00365298
0.67013 0.0947639 3.46945e-18 0.00367128
0.574156 0.360265 0 0.00379413
0.67013 0.101886 0 0.00368832
0.523729 0.431051 0 0.00378821
0.624584 0.264688 0 0.00380023
0.467897 0.491175 0 0.00378076
0.67013 0.109266 3.46945e-18 0.003704
0.350249 0.582034 0 0.00376859
0.67013 0.116914 0 0.00371835
0.67013 0.12484 0 0.00373145
0.67013 0.133054 0 0.00374335
0.288433 0.619475 0 0.00376427
0.624584 0.27798 -3.08149e-33 0.00380164
0.412065 0.546332 1.54074e-33 0.00377547
0.523729 0.440544 -3.08149e-33 0.00378865
0.67013 0.141566 3.46945e-18 0.00375407
0.685312 0.0241911 -7.70372e-34 0.00379346
0.685312 0.0434463 -7.70372e-34 0.00343904
0.67013 0.150387 0 0.00376364
0.574156 0.377026 -3.46945e-18 0.00379498
0.67013 0.159528 0 0.00377213
0.624584 0.291753 0 0.00380283
0.151552 0.67277 0 0.00375622
0.075776 0.686823 0 0.00375283
0.67013 0.169001 0 0.00377959
0.67013 0.178818 0 0.00378609
0.467897 0.51269 0 0.00378154
0.685312 0.113022 -7.70372e-34 0.00371275
0.219992 0.659208 0 0.00375926
0.624584 0.306027 0 0.00380387
0.67013 0.188991 0 0.00379171
0.574156 0.394397 3.46945e-18 0.00379584
0.523729 0.46022 0 0.00378953
0.685312 0.137234 -7.70372e-34 0.00375183
0.67013 0.199535 -3.46945e-18 0.00379652
0.350249 0.606847 0 0.00376908
0 0.700877 0 0.00375
0.624584 0.320819 0 0.0038048
0.67013 0.21046 0 0.00380061
0.412065 0.569849 -2.31298e-18 0.00377605
0.67013 0.221782 -3.46945e-18 0.00380406
0.574157 0.412396 0 0.00379671
0.288433 0.645647 0 0.00376463
0.624584 0.336148 -3.08149e-33 0.00380565
0.67013 0.233515 3.46945e-18 0.00380695
0.467897 0.534986 0 0.00378227
0.523729 0.48061 0 0.00379039
0.624584 0.344091 0 0.00380605
0.67013 0.245675 0 0.00380934
0.715676 4.54095e-19 0 0.000403262
0.715676 0.00368111 0 0.000639065
0.715676 0.00749587 0 0.00206467
0.715676 0.0114491 0 0.00384922
0.715676 0.0155459 0 0.00444136
0.715676 0.0197915 0 0.004245
0.715676 0.0241911 0 0.00388771
0.715676 0.0287506 0 0.00362386
0.715676 0.0334755 0 0.00348236
0.715676 0.038372 0 0.00343408
0.624584 0.352034 -2.31298e-18 0.00380646
0.715676 0.0434463 0 0.00343633
0.151552 0.700877 0 0.0037564
0.715676 0.0487048 0 0.00346157
0.715676 0.0541543 0 0.00349504
0.574156 0.43105 0 0.00379759
0.715676 0.0598016 0 0.00352959
0.67013 0.258275 0 0.00381133
0.715676 0.0656539 0 0.00356201
0.715676 0.0717187 0 0.00359107
0.075776 0.715441 0 0.0037529
0.715676 0.0780037 0 0.00361649
0.715676 0.0845169 0 0.00363896
0.219992 0.686824 0 0.00375953
0.715676 0.0912666 0 0.00365968
0.715676 0.0982613 0 0.00367915
0.67013 0.271334 -3.46945e-18 0.00381296
0.350249 0.632561 -3.46945e-18 0.00376953
0.412065 0.594219 3.08149e-33 0.0037766
0.715676 0.10551 0 0.00369726
0.715676 0.113022 0 0.00371395
0.624584 0.368496 0 0.00380725
0.523729 0.501741 0 0.0037912
0.715676 0.120806 0 0.00372925
0.715676 0.128874 0 0.00374321
0.67013 0.284867 0 0.00381432
0.467897 0.558091 3.46945e-18 0.00378294
0.715676 0.137234 0 0.00375587
0.574156 0.450382 0 0.00379848
0 0.730005 0 0.00375
0.715676 0.145897 0 0.00376725
0.288433 0.67277 0 0.00376498
0.715676 0.154876 0 0.0037774
0.67013 0.29889 0 0.00381546
0.624584 0.385557 0 0.00380804
0.715676 0.16418 -9.25187e-19 0.00378638
0.715676 0.173822 0 0.00379424
0.715676 0.183814 0 0.00380107
0.67013 0.313423 0 0.00381643
0.523729 0.523639 0 0.00379196
0.715676 0.194169 0 0.00380694
0.574156 0.470415 3.46945e-18 0.00379936
0.624584 0.403236 0 0.00380884
0.743101 0.0241911 -7.70372e-34 0.00401409
0.412065 0.619475 3.08149e-33 0.0037771
0.715676 0.2049 0 0.00381195
0.151552 0.730005 0 0.00375657
0.67013 0.328484 3.46945e-18 0.00381729
0.350249 0.659208 0 0.00376996
0.467897 0.582034 0 0.00378355
0.715676 0.21602 0 0.00381617
0.219992 0.715441 0 0.0037598
0.075776 0.745097 -3.46945e-18 0.00375297
0.715676 0.227544 0 0.00381971
0.67013 0.344091 0 0.00381808
0.624584 0.421557 0 0.00380965
0.743101 0.128874 -7.70372e-34 0.00374744
0.715676 0.239487 3.70071e-18 0.00382264
0.574156 0.491175 0 0.00380021
0.756814 0.00184055 0 0.000370334
0.523729 0.546332 0 0.00379267
0.756813 0.00558849 0 0.00087268
0.756813 0.00947248 0 0.00335521
0.756814 0.0134975 -3.46945e-18 0.00465375
0.756814 0.0155459 0 0.00467114
0.756814 0.0176687 0 0.00468617
0.756814 0.0219913 0 0.00424764
0.756814 0.0264709 0 0.00385247
0.756814 0.031113 -3.46945e-18 0.0035942
0.756813 0.0359238 -3.46945e-18 0.00347075
0.288433 0.700877 0 0.00376531
0.756814 0.0409092 -3.46945e-18 0.00343513
0.756813 0.0460755 3.46945e-18 0.00344302
0.756813 0.0514296 0 0.00347007
0.715676 0.251863 0 0.00382504
0.756813 0.0569779 0 0.00350379
0.756814 0.0627277 -3.46945e-18 0.00353799
0.756814 0.0686863 -3.46945e-18 0.00356989
0 0.76019 0 0.00375
0.756814 0.0748612 0 0.00359838
0.67013 0.360265 3.46945e-18 0.00381882
0.756814 0.0812603 -3.46945e-18 0.00362348
0.756814 0.0878917 -3.46945e-18 0.00364645
0.756814 0.0947639 -3.46945e-18 0.00366827
0.715676 0.264688 0 0.00382701
0.756813 0.101886 0 0.0036888
0.624584 0.440544 0 0.00381047
0.756813 0.109266 3.46945e-18 0.00370782
0.756813 0.116914 3.46945e-18 0.00372533
0.412065 0.645647 0 0.00377756
0.467897 0.606847 0 0.00378411
0.756814 0.120806 0 0.0037342
0.756813 0.12484 0 0.00374138
0.715676 0.27798 0 0.0038286
0.756814 0.133054 -3.46945e-18 0.00375601
0.67013 0.377026 -3.46945e-18 0.00381955
0.756814 0.137234 0 0.00376351
0.574156 0.51269 0 0.00380101
0.756813 0.141566 3.46945e-18 0.00376924
0.685312 0.352034 -7.70372e-34 0.00382438
0.743101 0.2049 -7.70372e-34 0.0038211
0.350249 0.686824 0 0.00377036
0.756814 0.150387 0 0.00378111
0.756814 0.154876 0 0.00378732
0.715676 0.291753 0 0.0038299
0.756814 0.159528 -3.46945e-18 0.00379166
0.523729 0.569849 0 0.0037933
0.72743 0.264688 0 0.00383135
0.756814 0.16418 0 0.00379728
0.151552 0.76019 0 0.00375673
0.756813 0.169001 3.46945e-18 0.00380095
0.624584 0.46022 0 0.00381129
0.219993 0.745097 0 0.00376005
0.67013 0.394396 0 0.00382028
0.756813 0.178818 -3.46945e-18 0.00380905
0.715676 0.306027 0 0.00383097
0.075776 0.775831 0 0.00375305
0.756813 0.188991 0 0.00381605
0.756814 0.199535 0 0.00382204
0.715676 0.320819 0 0.00383186
0.574156 0.534985 0 0.00380175
0.288433 0.730005 0 0.00376562
0.756813 0.21046 0 0.00382711
0.467897 0.632561 0 0.00378462
0.67013 0.412396 -3.46945e-18 0.00382102
0.624584 0.48061 -3.08149e-33 0.0038121
0.756814 0.221782 0 0.00383136
0.412065 0.67277 3.08149e-33 0.00377798
0.715676 0.336148 0 0.00383264
0 0.791472 0 0.00375
0.756813 0.233516 3.46945e-18 0.00383488
0.523729 0.594219 0 0.00379388
0.624584 0.487654 1.54074e-33 0.00381236
0.756814 0.245675 3.46945e-18 0.00383776
0.350249 0.715441 3.46945e-18 0.00377073
0.67013 0.43105 0 0.00382177
0.715676 0.352034 -9.25187e-19 0.00383333
0.797951 9.08189e-19 -3.08149e-33 0.000343559
0.797951 0.00368111 2.31298e-18 0.00060525
0.797951 0.00749587 2.31298e-18 0.0021507
0.797951 0.0114491 2.31298e-18 0.00414554
0.797951 0.0141803 7.70372e-34 0.00464913
0.797951 0.0155459 0 0.00490093
0.797951 0.0169611 7.70372e-34 0.0048411
0.797951 0.0197915 2.31298e-18 0.00472146
0.797951 0.0219913 0 0.00449416
0.797951 0.0241911 3.08149e-33 0.00426685
0.797951 0.0264709 0 0.0040695
0.797951 0.0287506 -3.08149e-33 0.00387214
0.797951 0.0334755 2.31298e-18 0.00362157
0.797951 0.038372 2.31298e-18 0.00349983
0.797951 0.0434463 2.31298e-18 0.00345931
0.797951 0.0487048 0 0.00346266
0.756813 0.258275 -3.46945e-18 0.0038401
0.797951 0.0541543 2.31298e-18 0.00348619
0.797951 0.0598016 2.31298e-18 0.00351723
0.797951 0.0656539 2.31298e-18 0.0035495
0.574156 0.55809 0 0.00380243
0.624584 0.501741 0 0.00381288
0.797951 0.0717187 2.31298e-18 0.00357998
0.797951 0.0780037 -3.08149e-33 0.00360764
0.797951 0.0845169 2.31298e-18 0.00363297
0.797951 0.0912666 -3.08149e-33 0.00365689
0.797951 0.0982613 2.31298e-18 0.00367964
0.756813 0.271334 0 0.00384198
0.797951 0.10551 2.31298e-18 0.00370102
0.715676 0.368496 0 0.00383399
0.151552 0.791472 0 0.00375689
0.797951 0.113022 2.31298e-18 0.00372086
0.219992 0.775831 3.46945e-18 0.0037603
0.797951 0.118211 7.70372e-34 0.00373305
0.770526 0.239487 1.54074e-33 0.00384242
0.797951 0.120806 0 0.00373914
0.67013 0.450382 3.46945e-18 0.00382254
0.797951 0.128874 3.08149e-33 0.0037559
0.467897 0.659208 0 0.00378508
0.756813 0.284866 -3.46945e-18 0.00384348
0.743101 0.320819 -7.70372e-34 0.00384211
0.797951 0.137234 0 0.00377115
0.797951 0.141566 0 0.00377804
0.797951 0.145897 -9.25187e-19 0.00378492
0.523729 0.619475 0 0.00379438
0.075776 0.807681 0 0.00375312
0.797951 0.150387 0 0.00379108
0.797951 0.154876 0 0.00379725
0.715676 0.385557 0 0.00383462
0.412065 0.700877 3.08149e-33 0.00377837
0.288433 0.76019 0 0.00376591
0.756813 0.29889 0 0.00384468
0.797951 0.16418 0 0.00380818
0.624584 0.523639 0 0.00381361
0.797951 0.167394 7.70372e-34 0.00381137
0.797951 0.173822 2.31298e-18 0.00381777
0.574156 0.582034 0 0.00380303
0.67013 0.470415 0 0.00382331
0.797951 0.183814 2.31298e-18 0.00382611
0.756813 0.313423 -3.46945e-18 0.00384564
0.797951 0.194169 -9.25187e-19 0.00383329
0.715676 0.403236 0 0.00383526
0.151552 0.807681 0 0.00375697
0.797951 0.197746 -7.70372e-34 0.00383533
0.350249 0.745097 0 0.00377108
0.797951 0.2049 3.08149e-33 0.0038394
0 0.823889 0 0.00375
0.756813 0.328483 -3.46945e-18 0.00384643
0.797951 0.21046 0 0.00384197
0.797951 0.21602 -3.08149e-33 0.00384454
0.797951 0.223703 7.70372e-34 0.00384738
0.797951 0.227544 9.25187e-19 0.00384881
0.624584 0.546332 0 0.00381427
0.715676 0.421557 0 0.0038359
0.67013 0.491176 -3.46945e-18 0.00382406
0.797951 0.231525 7.70372e-34 0.00384998
0.467897 0.686824 -3.46945e-18 0.00378548
0.523729 0.645647 0 0.00379483
0.756813 0.344091 -3.46945e-18 0.0038471
0.822721 0.120806 7.70372e-34 0.00374324
0.797951 0.239487 -3.08149e-33 0.00385232
0.822721 0.137234 7.70372e-34 0.003777
0.835106 0.00184056 0 0.000318167
0.835106 0.00558849 0 0.000861517
0.835106 0.00947248 0 0.00350972
0.835106 0.0134975 0 0.00504901
0.835107 0.0176687 0 0.00519095
0.835106 0.0219913 -3.46945e-18 0.00473481
0.574156 0.606847 3.46945e-18 0.00380355