# kMean  POINT_DATA 63140
# x  y  z  kMean
0 0.1 0 0.00375
0 0.1 -0.0179898 0.00375
0 0.1 0.0179898 0.00375
0.0363518 0.1 0.0179898 0.00374711
0.0363518 0.1 -0.0179898 0.00374685
0 0.1 -0.0570102 0.00375
0 0.1 0.0570102 0.00375
0.0363518 0.1 0.0570102 0.00374711
0.0363518 0.1 -0.0570102 0.00374685
0 0.1 -0.075 0.00375
0 0.1 0.075 0.00375
0.075776 0.1 -0.0375 0.00374315
0.075776 0.1 0.0375 0.00374368
0 0.1 -0.0929898 0.00375
0 0.1 0.0929898 0.00375
0.0363518 0.1 -0.0929898 0.00374669
0.0363518 0.1 0.0929898 0.00374746
0 0.1 -0.13201 0.00375
0 0.1 0.13201 0.00375
0.075776 0.1 -0.1125 0.00374283
0.075776 0.1 0.1125 0.0037444
0.0363518 0.1 -0.13201 0.00374669
0.0363518 0.1 0.13201 0.00374746
0 0.1 -0.15 0.00375
0 0.1 0.15 0.00375
0.150379 0.1 -2.22623e-17 0.00373477
0 0.1 -0.16799 0.00375
0 0.1 0.16799 0.00375
0.150379 0.1 -0.075 0.00373433
0.150379 0.1 0.075 0.00373567
0.0363518 0.1 -0.16799 0.00374669
0.0363518 0.1 0.16799 0.00374789
0.075776 0.1 -0.1875 0.00374284
0.075776 0.1 0.1875 0.00374527
0 0.1 -0.20701 0.00375
0 0.1 0.20701 0.00375
0.0363518 0.1 -0.20701 0.00374669
0.0363518 0.1 0.20701 0.00374789
0.150379 0.1 -0.15 0.0037344
0.150379 0.1 0.15 0.00373696
0.219993 0.1 -0.0375 0.00372614
0.219993 0.1 0.0375 0.00372688
0 0.1 -0.225 0.00375
0 0.1 0.225 0.00375
0 0.1 -0.24299 0.00375
0 0.1 0.24299 0.00375
0.0363518 0.1 0.24299 0.00374836
0.0363518 0.1 -0.24299 0.00374685
0.219993 0.1 -0.1125 0.003726
0.219993 0.1 0.1125 0.00372846
0.150379 0.1 -0.225 0.00373507
0.150379 0.1 0.225 0.00373841
0.075776 0.1 -0.2625 0.00374316
0.075776 0.1 0.2625 0.00374625
0 0.1 -0.28201 0.00375
0 0.1 0.28201 0.00375
0.0363518 0.1 -0.28201 0.00374685
0.0363518 0.1 0.28201 0.00374836
0.287374 0.1 -2.89121e-19 0.00371822
0.219992 0.1 0.1875 0.00373042
0.219992 0.1 -0.1875 0.0037267
0.287374 0.1 -0.075 0.00371815
0.287374 0.1 0.075 0.00371905
0 0.1 -0.3 0.00375
0 0.1 0.3 0.00375
0 0.1 0.31799 0.00375
0 0.1 -0.31799 0.00375
0.0363518 0.1 -0.31799 0.00374714
0.0363518 0.1 0.31799 0.00374885
0.287374 0.1 0.15 0.00372056
0.287374 0.1 -0.15 0.00371881
0.150379 0.1 -0.3 0.00373629
0.150379 0.1 0.3 0.0037399
0.219993 0.1 0.2625 0.00373237
0.219993 0.1 -0.2625 0.0037283
0.075776 0.1 -0.3375 0.00374375
0.075776 0.1 0.3375 0.00374725
0.350249 0.1 -0.0375 0.00371023
0.350249 0.1 0.0375 0.00371034
0 0.1 -0.35701 0.00375
0 0.1 0.35701 0.00375
0.0363518 0.1 -0.35701 0.00374714
0.0363518 0.1 0.35701 0.00374885
0.287374 0.1 -0.225 0.00372025
0.287374 0.1 0.225 0.00372246
0.350249 0.1 -0.1125 0.00371087
0.350249 0.1 0.1125 0.00371124
0 0.1 -0.375 0.00375
0 0.1 0.375 0.00375
0 0.1 -0.39299 0.00375
0 0.1 0.39299 0.00375
0.0363518 0.1 -0.39299 0.00374748
0.0363518 0.1 0.39299 0.00374929
0.350249 0.1 -0.1875 0.00371231
0.350249 0.1 0.1875 0.00371283
0.219992 0.1 -0.3375 0.00373059
0.219992 0.1 0.3375 0.00373436
0.150379 0.1 0.375 0.00374137
0.150379 0.1 -0.375 0.00373751
0.411108 0.1 4.33681e-19 0.0037035
0.287374 0.1 -0.3 0.00372224
0.287374 0.1 0.3 0.00372456
0.411108 0.1 -0.075 0.00370411
0.411108 0.1 0.075 0.00370361
0.075776 0.1 -0.4125 0.00374444
0.075776 0.1 0.4125 0.00374815
0 0.1 0.43201 0.00375
0 0.1 -0.43201 0.00375
0.0363518 0.1 0.43201 0.00374929
0.0363518 0.1 -0.43201 0.00374748
0.411108 0.1 -0.15 0.00370537
0.411108 0.1 0.15 0.00370445
0.350249 0.1 -0.2625 0.00371429
0.350249 0.1 0.2625 0.00371494
0 0.1 -0.45 0.00375
0 0.1 0.45 0.00375
0.219992 0.1 0.4125 0.0037363
0.219992 0.1 -0.4125 0.00373185
0 0.1 -0.46799 0.00375
0 0.1 0.46799 0.00375
0.411108 0.1 -0.225 0.00370712
0.411108 0.1 0.225 0.00370595
0.467897 0.1 -0.0375 0.00369726
0.467897 0.1 0.0375 0.00369664
0.0363518 0.1 0.46799 0.00374964
0.0363518 0.1 -0.46799 0.00374779
0.287374 0.1 -0.375 0.00372401
0.287374 0.1 0.375 0.00372674
0.150379 0.1 0.45 0.00374263
0.150379 0.1 -0.45 0.00373842
0.467897 0.1 0.1125 0.00369672
0.467897 0.1 -0.1125 0.00369852
0.350249 0.1 -0.3375 0.00371636
0.350249 0.1 0.3375 0.00371731
0.075776 0.1 -0.4875 0.00374508
0.075776 0.1 0.4875 0.00374887
0.467897 0.1 0.1875 0.00369754
0.467897 0.1 -0.1875 0.00370024
0 0.1 -0.50701 0.00375
0 0.1 0.50701 0.00375
0.0363518 0.1 -0.50701 0.00374779
0.0363518 0.1 0.50701 0.00374964
0.411108 0.1 0.3 0.00370794
0.411108 0.1 -0.3 0.003709
0.522865 0.1 1.41031e-17 0.00369251
0 0.1 -0.525 0.00375
0 0.1 0.525 0.00375
0.522865 0.1 -0.075 0.00369364
0.522865 0.1 0.075 0.0036919
0.287374 0.1 0.45 0.00372872
0.287374 0.1 -0.45 0.00372522
0.219992 0.1 0.4875 0.00373772
0.219992 0.1 -0.4875 0.0037329
0.467897 0.1 -0.2625 0.00370208
0.467897 0.1 0.2625 0.00369903
0.350249 0.1 -0.4125 0.00371784
0.350249 0.1 0.4125 0.00371969
0 0.1 -0.54299 0.00375
0 0.1 0.54299 0.00375
0.522865 0.1 0.15 0.00369191
0.522865 0.1 -0.15 0.00369514
0.0363518 0.1 0.54299 0.00374993
0.0363518 0.1 -0.54299 0.00374807
0.150379 0.1 -0.525 0.00373922
0.150379 0.1 0.525 0.00374356
0.411108 0.1 -0.375 0.00371061
0.411108 0.1 0.375 0.00371022
0.075776 0.1 -0.5625 0.00374565
0.075776 0.1 0.5625 0.00374947
0.522865 0.1 -0.225 0.00369675
0.522865 0.1 0.225 0.00369259
0.574156 0.1 0.0375 0.00368758
0.574157 0.1 -0.0375 0.00368876
0.467897 0.1 -0.3375 0.00370371
0.467897 0.1 0.3375 0.00370107
0 0.1 -0.58201 0.00375
0 0.1 0.58201 0.00375
0.0363518 0.1 -0.58201 0.00374807
0.0363518 0.1 0.58201 0.00374993
0.574157 0.1 -0.1125 0.00369024
0.574157 0.1 0.1125 0.00368688
0.287374 0.1 -0.525 0.00372618
0.287374 0.1 0.525 0.00373027
0 0.1 -0.6 0.00375
0 0.1 0.6 0.00375
0.350249 0.1 0.4875 0.00372182
0.350249 0.1 -0.4875 0.00371889
0.522865 0.1 -0.3 0.00369819
0.522865 0.1 0.3 0.0036939
0.219992 0.1 -0.5625 0.00373382
0.219992 0.1 0.5625 0.00373869
0.574156 0.1 -0.1875 0.00369179
0.574156 0.1 0.1875 0.00368678
0.411108 0.1 0.45 0.00371251
0.411108 0.1 -0.45 0.00371176
0 0.1 -0.61799 0.00375
0 0.1 0.61799 0.00375
0.150379 0.1 -0.6 0.00373987
0.150379 0.1 0.6 0.00374429
0.0363518 0.1 -0.61799 0.0037483
0.0363518 0.1 0.61799 0.00375018
0.467897 0.1 -0.4125 0.00370499
0.467897 0.1 0.4125 0.00370339
0.623803 0.1 2.34188e-17 0.003686
0.623803 0.1 0.075 0.00368485
0.623803 0.1 -0.075 0.00368735
0.574156 0.1 0.2625 0.00368732
0.574156 0.1 -0.2625 0.00369312
0.623803 0.1 0.15 0.00368409
0.623803 0.1 -0.15 0.00368871
0.075776 0.1 0.6375 0.00374999
0.075776 0.1 -0.6375 0.00374613
0.522865 0.1 -0.375 0.00369932
0.522865 0.1 0.375 0.00369569
0 0.1 0.65701 0.00375
0 0.1 -0.65701 0.00375
0.0363518 0.1 0.65701 0.00375018
0.0363518 0.1 -0.65701 0.0037483
0.350249 0.1 0.5625 0.00372347
0.350249 0.1 -0.5625 0.00371968
0.623803 0.1 0.225 0.00368384
0.623803 0.1 -0.225 0.00368986
0.287374 0.1 -0.6 0.00372689
0.287374 0.1 0.6 0.00373144
0.574157 0.1 -0.3375 0.0036941
0.574157 0.1 0.3375 0.0036885
0.411108 0.1 0.525 0.00371455
0.411108 0.1 -0.525 0.00371252
0.67013 0.1 0.0375 0.0036831
0.67013 0.1 -0.0375 0.00368452
0.219992 0.1 -0.6375 0.00373443
0.219993 0.1 0.6375 0.00373947
0 0.1 -0.675 0.00375
0 0.1 0.675 0.00375
0.467897 0.1 -0.4875 0.00370578
0.467897 0.1 0.4875 0.00370572
0.67013 0.1 -0.1125 0.00368587
0.67013 0.1 0.1125 0.00368183
0.522865 0.1 0.45 0.00369774
0.522865 0.1 -0.45 0.00370005
0.150379 0.1 0.675 0.00374491
0.150379 0.1 -0.675 0.00374035
0.623803 0.1 0.3 0.00368417
0.623803 0.1 -0.3 0.00369065
0 0.1 -0.69299 0.00375
0 0.1 0.69299 0.00375
0.0363518 0.1 -0.69299 0.00374852
0.0363518 0.1 0.69299 0.00375041
0.67013 0.1 -0.1875 0.00368695
0.67013 0.1 0.1875 0.00368089
0.574156 0.1 0.4125 0.00369016
0.574157 0.1 -0.4125 0.00369476
0.714971 0.1 -2.8382e-17 0.00368364
0.075776 0.1 -0.7125 0.00374658
0.075776 0.1 0.7125 0.00375046
0.714971 0.1 -0.075 0.00368489
0.714971 0.1 0.075 0.00368225
0.67013 0.1 0.2625 0.00368043
0.67013 0.1 -0.2625 0.00368761
0.411108 0.1 -0.6 0.00371303
0.411108 0.1 0.6 0.00371618
0.350249 0.1 0.6375 0.00372472
0.350249 0.1 -0.6375 0.00372021
0.623803 0.1 0.375 0.00368506
0.623803 0.1 -0.375 0.00369103
0.714971 0.1 -0.15 0.00368581
0.714971 0.1 0.15 0.00368091
0.467897 0.1 -0.5625 0.00370622
0.467897 0.1 0.5625 0.00370774
0 0.1 -0.73201 0.00375
0 0.1 0.73201 0.00375
0.0363518 0.1 0.73201 0.00375041
0.0363518 0.1 -0.73201 0.00374852
0.287374 0.1 -0.675 0.00372737
0.287374 0.1 0.675 0.00373238
0.522865 0.1 -0.525 0.00370037
0.522865 0.1 0.525 0.00369979
0.219993 0.1 -0.7125 0.00373481
0.219992 0.1 0.7125 0.00374019
0.714971 0.1 -0.225 0.00368628
0.714971 0.1 0.225 0.00367981
0 0.1 0.75 0.00375
0 0.1 -0.75 0.00375
0.67013 0.1 -0.3375 0.00368779
0.67013 0.1 0.3375 0.00368052
0.574156 0.1 -0.4875 0.00369496
0.574157 0.1 0.4875 0.00369209
0.756813 0.1 0.0375 0.0036827
0.756814 0.1 -0.0375 0.00368402
0.150379 0.1 0.746002 0.00374554
0.150379 0.1 -0.75 0.00374083
0.756813 0.1 -0.1125 0.00368493
0.756813 0.1 0.1125 0.00368115
0 0.1 0.76799 0.00375
0 0.1 -0.76799 0.00375
0.0363518 0.1 0.76799 0.0037506
0.0363518 0.1 -0.76799 0.00374873
0.623803 0.1 -0.45 0.00369101
0.623803 0.1 0.45 0.00368639
0.714971 0.1 -0.3 0.00368625
0.714971 0.1 0.3 0.0036791
0.756814 0.1 -0.1875 0.0036853
0.756814 0.1 0.1875 0.00367957
0.67013 0.1 -0.4125 0.00368756
0.67013 0.1 0.4125 0.00368119
0.411108 0.1 0.675 0.00371746
0.411108 0.1 -0.675 0.00371338
0.467897 0.1 0.6375 0.00370934
0.467897 0.1 -0.6375 0.00370649
0.075776 0.1 0.7875 0.00375085
0.075776 0.1 -0.7875 0.00374702
0.350249 0.1 -0.7125 0.00372061
0.350249 0.1 0.7125 0.00372573
0.522865 0.1 -0.6 0.00370043
0.522865 0.1 0.6 0.00370156
0.797314 0.1 -3.59473e-17 0.00368491
0.287374 0.1 0.746002 0.0037333
0.797314 0.1 -0.075 0.00368578
0.797314 0.1 0.075 0.00368355
0.756814 0.1 -0.2625 0.00368511
0.756814 0.1 0.2625 0.00367817
0.287374 0.1 -0.75 0.00372785
0.574156 0.1 -0.5625 0.00369482
0.574156 0.1 0.5625 0.00369399
0 0.1 0.80701 0.00375
0 0.1 -0.80701 0.00375
0.714971 0.1 -0.375 0.00368572
0.714971 0.1 0.375 0.00367889
0.0363518 0.1 0.80701 0.0037506
0.0363518 0.1 -0.80701 0.00374873
0.797314 0.1 -0.15 0.00368605
0.797314 0.1 0.15 0.00368188
0.623803 0.1 -0.525 0.00369059
0.623803 0.1 0.525 0.00368793
0.219992 0.1 0.7875 0.00374088
0.219992 0.1 -0.7875 0.00373544
0.149792 0.1 0.80701 0.00374588
0 0.1 0.825 0.00375
0 0.1 -0.825 0.00375
0.797314 0.1 -0.225 0.0036857
0.797314 0.1 0.225 0.00368011
0.756813 0.1 -0.3375 0.00368437
0.756813 0.1 0.3375 0.00367713
0.67013 0.1 0.4875 0.00368228
0.67013 0.1 -0.4875 0.00368685
0.835106 0.1 -0.0375 0.00368675
0.835106 0.1 0.0375 0.00368576
0.150379 0.1 -0.825 0.00374135
0.835106 0.1 -0.1125 0.00368703
0.835106 0.1 0.1125 0.00368419
0 0.1 -0.84299 0.00375
0 0.1 0.84299 0.00375
0.0363518 0.1 -0.84299 0.00374894
0.0363518 0.1 0.84299 0.00375074
0.714971 0.1 -0.45 0.00368471
0.714971 0.1 0.45 0.00367917
0.411108 0.1 0.746002 0.0037186
0.797314 0.1 -0.3 0.00368473
0.797314 0.1 0.3 0.00367845
0.467897 0.1 -0.7125 0.00370672
0.467897 0.1 0.7125 0.0037106
0.522865 0.1 0.675 0.00370296
0.522865 0.1 -0.675 0.00370037
0.411108 0.1 -0.75 0.00371373
0.835106 0.1 -0.1875 0.0036866
0.835107 0.1 0.1875 0.00368224
0.286844 0.1 0.80701 0.0037338
0.574156 0.1 0.6375 0.00369558
0.574157 0.1 -0.6375 0.00369451
0.350249 0.1 -0.7875 0.00372112
0.350249 0.1 0.7875 0.00372661
0.756813 0.1 -0.4125 0.00368305
0.756814 0.1 0.4125 0.00367658
0.623803 0.1 -0.6 0.00368993
0.623803 0.1 0.6 0.0036894
0.075776 0.1 0.8625 0.00375116
0.075776 0.1 -0.8625 0.00374745
0.871687 0.1 -3.2767e-18 0.00368921
0.287374 0.1 -0.825 0.0037284
0.871687 0.1 -0.075 0.00368952
0.871687 0.1 0.075 0.00368812
0.67013 0.1 -0.5625 0.00368584
0.67013 0.1 0.5625 0.00368353
0.835106 0.1 0.2625 0.0036801
0.835106 0.1 -0.2625 0.00368548
0.797314 0.1 -0.375 0.00368313
0.797314 0.1 0.375 0.00367709
0 0.1 -0.88201 0.00375
0 0.1 0.88201 0.00375
0.0363518 0.1 0.88201 0.00375074
0.0363518 0.1 -0.88201 0.00374894
0.871687 0.1 0.15 0.00368638
0.871687 0.1 -0.15 0.00368901
0.714971 0.1 0.525 0.00367982
0.714971 0.1 -0.525 0.00368332
0.219993 0.1 0.8625 0.00374147
0.219992 0.1 -0.8625 0.00373603
0 0.1 0.9 0.00375
0 0.1 -0.9 0.00375
0.756813 0.1 0.4875 0.00367656
0.756814 0.1 -0.4875 0.00368131
0.871687 0.1 0.225 0.00368417
0.871687 0.1 -0.225 0.00368774
0.835106 0.1 -0.3375 0.00368368
0.835106 0.1 0.3375 0.00367805
0.41063 0.1 0.80701 0.00371923
0.90582 0.1 -0.0375 0.00369214
0.905821 0.1 0.0375 0.00369168
0.522865 0.1 0.746002 0.00370412
0.150379 0.1 0.9 0.00374638
0.90582 0.1 0.1125 0.00369032
0.905821 0.1 -0.1125 0.00369165
0.522865 0.1 -0.75 0.0037003
0.574156 0.1 0.7125 0.00369674
0.574156 0.1 -0.7125 0.00369413
0.797314 0.1 -0.45 0.00368102
0.797314 0.1 0.45 0.00367616
0.467897 0.1 -0.7875 0.00370697
0.467897 0.1 0.7875 0.00371163
0.150379 0.1 -0.903998 0.00374167
0 0.1 0.91799 0.00375
0 0.1 -0.91799 0.00375
0.0363518 0.1 0.91799 0.00375085
0.0363518 0.1 -0.91799 0.00374913
0.623803 0.1 0.675 0.00369058
0.623803 0.1 -0.675 0.00368917
0.411108 0.1 -0.825 0.00371409
0.871687 0.1 0.3 0.00368174
0.871687 0.1 -0.3 0.00368571
0.67013 0.1 -0.6375 0.00368472
0.67013 0.1 0.6375 0.00368469
0.90582 0.1 -0.1875 0.00369028
0.90582 0.1 0.1875 0.00368823
0.350249 0.1 0.8625 0.00372739
0.350249 0.1 -0.8625 0.00372162
0.835106 0.1 -0.4125 0.0036812
0.835106 0.1 0.4125 0.00367626
0.714971 0.1 -0.6 0.0036817
0.714971 0.1 0.6 0.00368058
0.93886 0.1 -1.15648e-17 0.00369614
0.075776 0.1 0.9375 0.00375138
0.075776 0.1 -0.9375 0.00374784
0.93886 0.1 0.075 0.00369547
0.93886 0.1 -0.075 0.00369578
0.756813 0.1 0.5625 0.00367686
0.756814 0.1 -0.5625 0.00367925
0.905821 0.1 -0.2625 0.00368814
0.905821 0.1 0.2625 0.0036856
0.287374 0.1 0.9 0.00373457
0.287374 0.1 -0.903998 0.00372871
0.871687 0.1 0.375 0.00367932
0.871687 0.1 -0.375 0.00368296
0.93886 0.1 -0.15 0.00369443
0.93886 0.1 0.15 0.00369385
0.797314 0.1 0.525 0.00367567
0.797314 0.1 -0.525 0.00367853
0 0.1 0.95701 0.00375
0 0.1 -0.95701 0.00375
0.0363518 0.1 0.95701 0.00375085
0.0363518 0.1 -0.95701 0.00374913
0.522433 0.1 0.80701 0.00370474
0.219992 0.1 0.9375 0.00374193
0.219992 0.1 -0.9375 0.00373654
0.93886 0.1 0.225 0.00369143
0.93886 0.1 -0.225 0.00369223
0.90582 0.1 0.3375 0.00368269
0.905821 0.1 -0.3375 0.00368515
0.835106 0.1 -0.4875 0.00367831
0.835107 0.1 0.4875 0.00367495
0.969689 0.1 -0.0375 0.0037
0.969689 0.1 0.0375 0.00370013
0.61613 0.1 0.75 0.00369142
0.574156 0.1 -0.7875 0.00369376
0.574156 0.1 0.7875 0.00369759
0 0.1 0.975 0.00375
0 0.1 -0.975 0.00375
0.623803 0.1 -0.75 0.00368836
0.969689 0.1 -0.1125 0.00369874
0.969689 0.1 0.1125 0.00369912
0.522865 0.1 -0.825 0.00370022
0.67013 0.1 0.7125 0.00368554
0.67013 0.1 -0.7125 0.00368352
0.871687 0.1 -0.45 0.00367962
0.871687 0.1 0.45 0.00367713
0.467897 0.1 0.8625 0.00371251
0.467897 0.1 -0.8625 0.00370718
0.714971 0.1 -0.675 0.00367999
0.714971 0.1 0.675 0.00368122
0.93886 0.1 -0.3 0.00368914
0.93886 0.1 0.3 0.00368845
0.150379 0.1 0.975 0.00374666
0.150379 0.1 -0.975 0.00374225
0.969689 0.1 -0.1875 0.0036965
0.969689 0.1 0.1875 0.00369707
0.411108 0.1 0.9 0.00372017
0.756813 0.1 0.6375 0.00367723
0.756814 0.1 -0.6375 0.00367701
0.990306 0.1 -2.19732e-17 0.00370035
0 0.1 0.99299 0.00375
0 0.1 -0.99299 0.00375
0.411108 0.1 -0.903998 0.00371421
0.990306 0.1 -0.075 0.0036995
0.990306 0.1 0.075 0.00370002
0.0363518 0.1 0.99299 0.00375092
0.0363518 0.1 -0.99299 0.0037493
0.90582 0.1 -0.4125 0.00368143
0.905821 0.1 0.4125 0.00367978
0.797314 0.1 -0.6 0.00367577
0.797314 0.1 0.6 0.00367543
0.350249 0.1 0.9375 0.00372807
0.350249 0.1 -0.9375 0.00372205
0.990306 0.1 0.15 0.00369854
0.990306 0.1 -0.15 0.00369757
0.969689 0.1 -0.2625 0.00369344
0.969689 0.1 0.2625 0.00369419
0.835106 0.1 -0.5625 0.00367508
0.835106 0.1 0.5625 0.00367405
0.93886 0.1 -0.375 0.00368515
0.93886 0.1 0.375 0.00368517
0.075776 0.1 1.0125 0.00375152
0.075776 0.1 -1.0125 0.00374819
0.990306 0.1 -0.225 0.0036947
0.990306 0.1 0.225 0.00369607
0.287374 0.1 0.975 0.00373506
0.287374 0.1 -0.975 0.00372933
0.871687 0.1 -0.525 0.00367587
0.871687 0.1 0.525 0.00367533
1.02149 0.1 -0.0369628 0.003705
1.02149 0.1 0.0369628 0.00370558
0.969689 0.1 -0.3375 0.00368933
0.969689 0.1 0.3375 0.00369069
1.02149 0.1 -0.110888 0.0037032
1.02149 0.1 0.110888 0.00370491
0.90582 0.1 0.4875 0.00367709
0.90582 0.1 -0.4875 0.00367721
0.623803 0.1 0.819003 0.00369124
0 0.1 1.03201 0.00375
0 0.1 -1.03201 0.00375
0.0363518 0.1 1.03201 0.00375092
0.0363518 0.1 -1.03201 0.0037493
0.67013 0.1 -0.7875 0.00368225
0.67013 0.1 0.7875 0.00368602
0.623803 0.1 -0.825 0.00368753
0.990306 0.1 -0.3 0.00369084
0.990306 0.1 0.3 0.00369278
0.219992 0.1 -1.0125 0.00373696
0.219993 0.1 1.0125 0.00374222
0.574156 0.1 0.8625 0.00369825
0.574157 0.1 -0.8625 0.00369338
0.714971 0.1 -0.75 0.00367822
0.714971 0.1 0.75 0.00368157
1.02149 0.1 0.184814 0.00370304
1.02149 0.1 -0.184814 0.00370037
0.756814 0.1 -0.7125 0.00367475
0.756814 0.1 0.7125 0.00367742
0.522865 0.1 0.9 0.00370559
0.93886 0.1 -0.45 0.00368041
0.93886 0.1 0.45 0.00368186
1.04168 0.1 0 0.00370949
1.04168 0.1 -0.0729162 0.00370809
1.04168 0.1 0.0729162 0.00370962
0.522865 0.1 -0.903998 0.00369995
0.797314 0.1 -0.675 0.00367288
0.797314 0.1 0.675 0.00367521
0.467897 0.1 0.9375 0.00371325
0.467897 0.1 -0.9375 0.00370726
0 0.1 1.05 0.00375
0 0.1 -1.05 0.00375
0.835106 0.1 -0.6375 0.00367161
0.835106 0.1 0.6375 0.00367337
1.04168 0.1 -0.145832 0.00370554
1.04168 0.1 0.145832 0.00370849
1.02149 0.1 -0.25874 0.00369658
1.02149 0.1 0.25874 0.00370013
0.969689 0.1 -0.4125 0.00368421
0.969689 0.1 0.4125 0.00368689
0.411108 0.1 0.975 0.0037208
0.411108 0.1 -0.975 0.00371459
0.871687 0.1 -0.6 0.00367182
0.871687 0.1 0.6 0.00367387
1.0579 0.1 -0.0360525 0.00371231
1.0579 0.1 0.0360525 0.00371323
0.990306 0.1 -0.375 0.00368589
0.990306 0.1 0.375 0.00368896
0.150379 0.1 1.05 0.00374682
0.150379 0.1 -1.05 0.00374261
1.0579 0.1 0.108157 0.00371288
1.0579 0.1 -0.108157 0.00371012
1.04168 0.1 -0.218749 0.00370195
1.04168 0.1 0.218749 0.00370617
0.90582 0.1 -0.5625 0.0036726
0.90582 0.1 0.5625 0.00367482
0 0.1 -1.06799 0.00375
0 0.1 1.06799 0.00375
0.0363518 0.1 -1.06799 0.00374944
0.0363518 0.1 1.06799 0.00375095
0.350249 0.1 1.0125 0.00372859
0.350249 0.1 -1.0125 0.00372239
1.0579 0.1 -0.180262 0.00370687
1.0579 0.1 0.180262 0.00371124
1.02149 0.1 -0.332665 0.00369158
1.02149 0.1 0.332665 0.00369636
0.93886 0.1 -0.525 0.00367524
0.93886 0.1 0.525 0.0036788
1.08012 0.1 5.49329e-18 0.00371822
1.04168 0.1 -0.291665 0.00369721
1.04168 0.1 0.291665 0.00370283
1.08012 0.1 0.0709941 0.00371869
1.08012 0.1 -0.0709941 0.00371645
0.969689 0.1 -0.4875 0.00367837
0.96969 0.1 0.4875 0.00368309
1.0579 0.1 0.252367 0.00370846
1.0579 0.1 -0.252367 0.0037025
0.990306 0.1 -0.45 0.00368007
0.990306 0.1 0.45 0.00368489
0.287374 0.1 -1.05 0.00372968
0.287374 0.1 1.05 0.00373538
0.714971 0.1 0.821002 0.00368154
1.08012 0.1 -0.141988 0.00371347
1.08012 0.1 0.141988 0.00371786
0.075776 0.1 1.0875 0.00375158
0.075776 0.1 -1.0875 0.00374848
0.714971 0.1 -0.825 0.00367644
0.756813 0.1 -0.7875 0.00367245
0.756814 0.1 0.7875 0.00367734
0.67013 0.1 -0.8625 0.00368102
0.67013 0.1 0.8625 0.00368619
0.797314 0.1 -0.75 0.00366998
0.797314 0.1 0.75 0.00367482
0.623803 0.1 0.9 0.0036923
0.835106 0.1 -0.7125 0.00366806
0.835106 0.1 0.7125 0.00367265
0.623803 0.1 -0.903998 0.00368666
0.574156 0.1 0.9375 0.00369878
0.574156 0.1 -0.9375 0.00369296
1.02149 0.1 -0.406591 0.00368543
1.02149 0.1 0.406591 0.00369201
1.08012 0.1 -0.212982 0.00370935
1.08012 0.1 0.212982 0.00371577
1.10076 0.1 -0.0349809 0.00372261
1.10076 0.1 0.0349809 0.00372391
0.871687 0.1 -0.675 0.00366761
0.871687 0.1 0.675 0.00367256
1.04168 0.1 -0.364581 0.00369124
1.04168 0.1 0.364581 0.00369867
1.10076 0.1 -0.104943 0.00371999
1.10076 0.1 0.104943 0.00372391
0.522865 0.1 0.975 0.00370616
0.522865 0.1 -0.975 0.00369985
1.0579 0.1 -0.324472 0.00369685
1.0579 0.1 0.324472 0.00370468
0 0.1 -1.10701 0.00375
0 0.1 1.10701 0.00375
0.0363518 0.1 1.10701 0.00375095
0.0363518 0.1 -1.10701 0.00374944
0.90582 0.1 0.6375 0.00367288
0.905821 0.1 -0.6375 0.00366775
0.219992 0.1 1.0875 0.00374236
0.219992 0.1 -1.0875 0.00373733
0.93886 0.1 0.6 0.00367603
0.93886 0.1 -0.6 0.00366985
1.10076 0.1 -0.174905 0.00371621
1.10076 0.1 0.174905 0.00372257
0.467897 0.1 1.0125 0.00371382
0.467897 0.1 -1.0125 0.00370722
1.08012 0.1 -0.283976 0.00370396
1.08012 0.1 0.283976 0.00371254
1.11928 0.1 3.93204e-18 0.00372854
0.990306 0.1 -0.525 0.00367388
0.990306 0.1 0.525 0.0036809
0.96969 0.1 -0.5625 0.00367241
0.969689 0.1 0.5625 0.00367962
1.11928 0.1 -0.0690357 0.0037264
1.11928 0.1 0.0690357 0.00372936
0 0.1 1.125 0.00375
0 0.1 -1.125 0.00375
0.411108 0.1 -1.05 0.0037147
0.411108 0.1 1.05 0.00372125
1.10076 0.1 0.244866 0.00371997
1.10076 0.1 -0.244866 0.00371114
1.11928 0.1 -0.138072 0.00372297
1.11928 0.1 0.138072 0.00372884
1.02149 0.1 0.480517 0.00368737
1.02149 0.1 -0.480517 0.00367865
1.0579 0.1 -0.396577 0.00369002
1.0579 0.1 0.396577 0.00370012
1.04168 0.1 -0.437497 0.0036844
1.04168 0.1 0.437497 0.00369396
0.150379 0.1 1.125 0.00374686
0.150379 0.1 -1.125 0.00374291
0.714971 0.1 0.88201 0.00367949
1.08012 0.1 0.354971 0.00370834
1.08012 0.1 -0.354971 0.00369731
1.11928 0.1 -0.207107 0.00371827
1.11928 0.1 0.207107 0.003727
0.350249 0.1 -1.0875 0.00372266
0.350249 0.1 1.0875 0.00372892
0 0.1 1.14299 0.00375
0 0.1 -1.14299 0.00375
0.0363518 0.1 1.14299 0.00375094
0.0363518 0.1 -1.14299 0.00374956
1.14316 0.1 -0.0339211 0.00373477
1.14316 0.1 0.0339211 0.00373649
0.797314 0.1 0.821002 0.00367428
1.10076 0.1 -0.314829 0.00370471
1.10076 0.1 0.314829 0.00371624
0.797314 0.1 -0.825 0.00366712
0.756814 0.1 -0.8625 0.00367018
0.756814 0.1 0.8625 0.00367692
1.14316 0.1 -0.101763 0.00373168
1.14316 0.1 0.101763 0.00373687
0.835106 0.1 -0.7875 0.00366461
0.835106 0.1 0.7875 0.00367174
0.871687 0.1 -0.75 0.00366343
0.871687 0.1 0.75 0.00367118
0.67013 0.1 0.9375 0.00368625
0.67013 0.1 -0.9375 0.00367983
0.90582 0.1 -0.7125 0.00366284
0.905821 0.1 0.7125 0.00367102
0.714971 0.1 -0.903998 0.00367478
1.11928 0.1 0.276143 0.00372392
1.11928 0.1 -0.276143 0.00371222
1.14316 0.1 0.169605 0.0037359
1.14316 0.1 -0.169605 0.00372729
0.93886 0.1 -0.675 0.00366432
0.93886 0.1 0.675 0.00367346
1.15704 0.1 0 0.00374028
1.0579 0.1 0.468682 0.00369507
1.0579 0.1 -0.468682 0.00368272
0.623803 0.1 0.975 0.00369255
0.623803 0.1 -0.975 0.00368587
0.990306 0.1 0.6 0.00367709
0.990306 0.1 -0.6 0.00366753
1.15704 0.1 -0.0671479 0.00373773
1.15704 0.1 0.0671479 0.00374145
1.04168 0.1 -0.510414 0.00367732
1.04168 0.1 0.510414 0.00368899
0.969689 0.1 -0.6375 0.00366628
0.969689 0.1 0.6375 0.00367627
1.08012 0.1 0.425965 0.00370339
1.08012 0.1 -0.425965 0.00368986
0.287374 0.1 -1.125 0.00372996
0.287374 0.1 1.125 0.00373553
1.02149 0.1 -0.554443 0.00367189
1.02149 0.1 0.554443 0.00368276
0.574156 0.1 1.0125 0.00369923
0.574156 0.1 -1.0125 0.00369244
1.15704 0.1 -0.134296 0.00373381
1.15704 0.1 0.134296 0.00374126
0.075776 0.1 1.1625 0.00375157
0.075776 0.1 -1.1625 0.00374874
1.10076 0.1 -0.384791 0.0036971
1.10076 0.1 0.384791 0.00371156
1.14316 0.1 -0.237448 0.0037215
1.14316 0.1 0.237448 0.00373359
1.11928 0.1 -0.345179 0.00370493
1.11928 0.1 0.345179 0.00371975
0.522865 0.1 1.05 0.00370658
0.522865 0.1 -1.05 0.00369953
1.15704 0.1 -0.201444 0.00372851
1.15704 0.1 0.201444 0.00373971
1.1744 0.1 -0.0331401 0.00374418
1.1744 0.1 0.0331401 0.00374615
1.1744 0.1 -0.0994202 0.00374076
1.1744 0.1 0.0994202 0.00374677
0 0.1 1.18201 0.00375
0 0.1 -1.18201 0.00375
0.0363518 0.1 1.18201 0.00375094
0.0363518 0.1 -1.18201 0.00374956
0.219992 0.1 1.1625 0.00374236
0.219993 0.1 -1.1625 0.00373761
1.14316 0.1 0.30529 0.00373006
1.14316 0.1 -0.30529 0.0037144
0.467897 0.1 1.0875 0.00371419
0.467897 0.1 -1.0875 0.00370713
1.1744 0.1 -0.1657 0.00373598
1.1744 0.1 0.1657 0.00374604
1.15704 0.1 -0.268592 0.00372185
1.15704 0.1 0.268592 0.00373684
1.0579 0.1 0.540787 0.00368979
1.0579 0.1 -0.540787 0.00367543
0.796996 0.1 0.88201 0.00367357
1.08012 0.1 -0.496959 0.00368224
1.08012 0.1 0.496959 0.00369796
1.10076 0.1 0.454752 0.00370615
1.10076 0.1 -0.454752 0.00368918
1.11928 0.1 -0.414214 0.00369692
1.11928 0.1 0.414214 0.00371466
1.04168 0.1 -0.58333 0.00367001
1.04168 0.1 0.58333 0.003684
1.1744 0.1 -0.231981 0.00372976
1.1744 0.1 0.231981 0.00374394
0.871687 0.1 0.821002 0.00366971
0.411108 0.1 1.125 0.00372148
0.411108 0.1 -1.125 0.00371475
1.19808 0.1 1.73472e-17 0.0037549
0.990306 0.1 0.675 0.00367347
0.990306 0.1 -0.675 0.00366105
1.02149 0.1 0.628368 0.00367825
1.02149 0.1 -0.628368 0.0036648
1.19808 0.1 -0.0650961 0.00375183
1.19808 0.1 0.0650961 0.00375651
0 0.1 1.2 0.00375
0 0.1 -1.2 0.00375
0.871687 0.1 -0.825 0.00365938
0.905821 0.1 -0.7875 0.00365808
0.90582 0.1 0.7875 0.003669
0.835106 0.1 -0.8625 0.00366122
0.835106 0.1 0.8625 0.0036706
0.93886 0.1 -0.75 0.00365885
0.93886 0.1 0.75 0.00367097
1.14316 0.1 -0.373132 0.00370624
1.14316 0.1 0.373132 0.00372541
0.969689 0.1 0.7125 0.00367319
0.969689 0.1 -0.7125 0.00366011
1.15704 0.1 -0.33574 0.003714
1.15704 0.1 0.33574 0.00373276
0.756813 0.1 0.9375 0.00367629
0.756814 0.1 -0.9375 0.00366809
1.19808 0.1 0.130192 0.00375673
1.19808 0.1 -0.130192 0.0037473
0.797314 0.1 -0.903998 0.00366453
0.714971 0.1 0.975 0.00368107
0.714971 0.1 -0.975 0.0036731
0.150379 0.1 1.2 0.00374681
0.150379 0.1 -1.2 0.00374315
1.20938 0.1 -0.0322656 0.00375714
1.20938 0.1 0.0322656 0.00375957
1.1744 0.1 -0.298261 0.00372228
1.1744 0.1 0.298261 0.00374055
1.20938 0.1 -0.0967968 0.00375319
1.20938 0.1 0.0967968 0.00376055
1.19808 0.1 -0.195288 0.00374135
1.19808 0.1 0.195288 0.00375556
0.350249 0.1 1.1625 0.00372903
0.350249 0.1 -1.1625 0.00372286
0.67013 0.1 1.0125 0.00368624
0.67013 0.1 -1.0125 0.00367862
0 0.1 1.21799 0.00375
0 0.1 -1.21799 0.00375
0.0363518 0.1 -1.21799 0.00374966
0.0363518 0.1 1.21799 0.00375091
1.11928 0.1 -0.48325 0.00368872
1.11928 0.1 0.48325 0.00370887
1.10076 0.1 -0.524714 0.00368128
1.10076 0.1 0.524714 0.00370026
1.20938 0.1 0.161328 0.00376018
1.20938 0.1 -0.161328 0.00374781
1.08012 0.1 0.567953 0.00369229
1.08012 0.1 -0.567953 0.00367427
0.623803 0.1 1.05 0.00369271
0.623803 0.1 -1.05 0.00368497
1.0579 0.1 -0.612892 0.00366759
1.0579 0.1 0.612892 0.00368451
1.15704 0.1 -0.402888 0.00370548
1.15704 0.1 0.402888 0.00372761
1.14316 0.1 0.440974 0.00371984
1.14316 0.1 -0.440974 0.00369776
1.19808 0.1 -0.260384 0.0037341
1.19808 0.1 0.260384 0.00375301
1.2267 0.1 3.57064e-18 0.00376653
1.2267 0.1 -0.0636649 0.00376298
1.2267 0.1 0.0636649 0.00376855
1.1744 0.1 -0.364541 0.00371379
1.1744 0.1 0.364541 0.00373597
0.574156 0.1 1.0875 0.00369954
0.574156 0.1 -1.0875 0.00369184
1.20938 0.1 0.225859 0.00375839
1.20938 0.1 -0.225859 0.00374102
1.04168 0.1 -0.656246 0.00366244
1.04168 0.1 0.656246 0.00367909
1.2267 0.1 -0.12733 0.00375794
1.2267 0.1 0.12733 0.00376913
0.287374 0.1 1.2 0.00373552
0.287374 0.1 -1.2 0.00373015
1.02149 0.1 -0.702294 0.00365762
1.02149 0.1 0.702294 0.00367391
0.075776 0.1 -1.2375 0.00374894
0.075776 0.1 1.2375 0.0037515
0.871399 0.1 0.88201 0.00366832
0.522865 0.1 1.125 0.0037068
0.522865 0.1 -1.125 0.00369914
1.2267 0.1 -0.190994 0.0037515
1.2267 0.1 0.190994 0.00376828
1.19808 0.1 -0.32548 0.00372578
1.19808 0.1 0.32548 0.00374914
0.990306 0.1 -0.75 0.00365463
0.990306 0.1 0.75 0.00367007
1.24274 0.1 -0.0314313 0.00377154
1.24274 0.1 0.0314313 0.00377457
1.20938 0.1 -0.29039 0.00373308
1.20938 0.1 0.29039 0.00375523
1.24274 0.1 -0.0942942 0.00376693
1.24274 0.1 0.0942942 0.00377605
0.93886 0.1 0.821002 0.00366848
1.11928 0.1 -0.552285 0.00368002
1.11928 0.1 0.552285 0.00370264
1.15704 0.1 -0.470036 0.00369667
1.15704 0.1 0.470036 0.00372158
0.969689 0.1 -0.7875 0.00365412
0.96969 0.1 0.7875 0.00367022
0.93886 0.1 -0.825 0.0036536
0.90582 0.1 0.8625 0.00366678
0.905821 0.1 -0.8625 0.00365351
1.1744 0.1 -0.430821 0.00370497
1.1744 0.1 0.430821 0.00373036
1.10076 0.1 -0.594676 0.0036725
1.10076 0.1 0.594676 0.00369415
1.14316 0.1 -0.508816 0.00368903
1.14316 0.1 0.508816 0.00371357
1.24274 0.1 -0.157157 0.00376087
1.24274 0.1 0.157157 0.00377612
1.2267 0.1 -0.254659 0.00374384
1.2267 0.1 0.254659 0.003766
0.467897 0.1 1.1625 0.00371431
0.467897 0.1 -1.1625 0.00370696
1.08012 0.1 0.638947 0.00368656
1.08012 0.1 -0.638947 0.00366589
1.25511 0.1 -5.78241e-19 0.00378003
0.835106 0.1 -0.9375 0.00365803
0.835106 0.1 0.9375 0.00366916
0.871687 0.1 -0.903998 0.0036558
1.25511 0.1 0.0622446 0.00378265
1.25511 0.1 -0.0622446 0.0037758
0.219992 0.1 1.2375 0.00374223
0.219992 0.1 -1.2375 0.00373781
0 0.1 -1.25701 0.00375
0 0.1 1.25701 0.00375
0.0363518 0.1 -1.25701 0.00374966
0.0363518 0.1 1.25701 0.00375091
0.797314 0.1 0.975 0.00367217
0.797314 0.1 -0.975 0.00366179
1.19808 0.1 -0.390576 0.00371678
1.19808 0.1 0.390576 0.00374405
1.0579 0.1 -0.684997 0.00365967
1.0579 0.1 0.684997 0.00367929
1.20938 0.1 -0.354921 0.00372422
1.20938 0.1 0.354921 0.00375077
1.25511 0.1 0.124489 0.00378374
1.25511 0.1 -0.124489 0.00377007
1.24274 0.1 -0.220019 0.00375351
1.24274 0.1 0.220019 0.00377473
0.756813 0.1 1.0125 0.00367562
0.756814 0.1 -1.0125 0.00366608
1.2267 0.1 -0.318324 0.00373519
1.2267 0.1 0.318324 0.00376231
0.411108 0.1 1.2 0.00372152
0.411108 0.1 -1.2 0.0037147
1.25511 0.1 -0.186734 0.003763
1.25511 0.1 0.186734 0.00378333
0.714971 0.1 1.05 0.0036807
0.714971 0.1 -1.05 0.00367146
1.04168 0.1 -0.729162 0.00365488
1.04168 0.1 0.729162 0.00367442
1.24274 0.1 0.282882 0.00377186
1.24274 0.1 -0.282882 0.00374512
0 0.1 1.275 0.00375
0 0.1 -1.275 0.00375
1.1744 0.1 0.497102 0.00372392
1.1744 0.1 -0.497102 0.00369576
1.15704 0.1 -0.537184 0.00368724
1.15704 0.1 0.537184 0.00371489
1.2756 0.1 -0.03061 0.00378874
1.2756 0.1 0.03061 0.0037927
0.67013 0.1 1.0875 0.00368617
0.67013 0.1 -1.0875 0.00367736
1.2756 0.1 -0.09183 0.00378319
1.2756 0.1 0.09183 0.003795
1.25511 0.1 -0.248978 0.00375482
1.25511 0.1 0.248978 0.00378141
1.20938 0.1 0.419453 0.00374513
1.20938 0.1 -0.419453 0.0037149
1.11928 0.1 -0.621322 0.00367076
1.11928 0.1 0.621322 0.00369616
1.14316 0.1 -0.576659 0.00367941
1.14316 0.1 0.576659 0.00370681
1.19808 0.1 -0.455673 0.0037073
1.19808 0.1 0.455673 0.00373792
1.02149 0.1 0.776219 0.00366989
1.02149 0.1 -0.776219 0.00365056
0.150379 0.1 1.275 0.00374667
0.150379 0.1 -1.275 0.00374332
1.2756 0.1 -0.15305 0.00377624
1.2756 0.1 0.15305 0.00379574
1.2267 0.1 -0.381989 0.00372582
1.2267 0.1 0.381989 0.0037573
1.10076 0.1 -0.664638 0.00366359
1.10076 0.1 0.664638 0.00368795