# nutMean  POINT_DATA 63140
# x  y  z  nutMean
0 0.1 0 0.00537016
0 0.1 -0.0179898 0.00537173
0 0.1 0.0179898 0.00536797
0.0363518 0.1 0.0179898 0.0123556
0.0363518 0.1 -0.0179898 0.0135484
0 0.1 -0.0570102 0.00538012
0 0.1 0.0570102 0.00536464
0.0363518 0.1 0.0570102 0.0123522
0.0363518 0.1 -0.0570102 0.0135567
0 0.1 -0.075 0.00538588
0 0.1 0.075 0.00536415
0.075776 0.1 -0.0375 0.0221778
0.075776 0.1 0.0375 0.0197713
0 0.1 -0.0929898 0.00539096
0 0.1 0.0929898 0.0053631
0.0363518 0.1 -0.0929898 0.014565
0.0363518 0.1 0.0929898 0.0112965
0 0.1 -0.13201 0.00540826
0 0.1 0.13201 0.00536251
0.075776 0.1 -0.1125 0.0241896
0.075776 0.1 0.1125 0.0176236
0.0363518 0.1 -0.13201 0.0145823
0.0363518 0.1 0.13201 0.0112959
0 0.1 -0.15 0.00541946
0 0.1 0.15 0.00536338
0.150379 0.1 -2.22623e-17 0.0182797
0 0.1 -0.16799 0.00542984
0 0.1 0.16799 0.00536391
0.150379 0.1 -0.075 0.0193625
0.150379 0.1 0.075 0.0171665
0.0363518 0.1 -0.16799 0.0146461
0.0363518 0.1 0.16799 0.0103675
0.075776 0.1 -0.1875 0.0242877
0.075776 0.1 0.1875 0.0157269
0 0.1 -0.20701 0.00545883
0 0.1 0.20701 0.00536786
0.0363518 0.1 -0.20701 0.0146751
0.0363518 0.1 0.20701 0.0103715
0.150379 0.1 -0.15 0.0198863
0.150379 0.1 0.15 0.0160937
0.219993 0.1 -0.0375 0.0156975
0.219993 0.1 0.0375 0.0156974
0 0.1 -0.225 0.00547633
0 0.1 0.225 0.00537136
0 0.1 -0.24299 0.00549311
0 0.1 0.24299 0.005375
0.0363518 0.1 0.24299 0.00958906
0.0363518 0.1 -0.24299 0.0139935
0.219993 0.1 -0.1125 0.0157064
0.219993 0.1 0.1125 0.0156986
0.150379 0.1 -0.225 0.0195853
0.150379 0.1 0.225 0.01465
0.075776 0.1 -0.2625 0.0229046
0.075776 0.1 0.2625 0.0141159
0 0.1 -0.28201 0.00553743
0 0.1 0.28201 0.00538165
0.0363518 0.1 -0.28201 0.0140379
0.0363518 0.1 0.28201 0.00959571
0.287374 0.1 -2.89121e-19 0.0129966
0.219992 0.1 0.1875 0.0153772
0.219992 0.1 -0.1875 0.015728
0.287374 0.1 -0.075 0.0130484
0.287374 0.1 0.075 0.0129592
0 0.1 -0.3 0.0055633
0 0.1 0.3 0.00538475
0 0.1 0.31799 0.0053884
0 0.1 -0.31799 0.00558885
0.0363518 0.1 -0.31799 0.013125
0.0363518 0.1 0.31799 0.00898744
0.287374 0.1 0.15 0.0128185
0.287374 0.1 -0.15 0.0130942
0.150379 0.1 -0.3 0.0187947
0.150379 0.1 0.3 0.0132266
0.219993 0.1 0.2625 0.013403
0.219993 0.1 -0.2625 0.0157549
0.075776 0.1 -0.3375 0.0210556
0.075776 0.1 0.3375 0.0128651
0.350249 0.1 -0.0375 0.0104525
0.350249 0.1 0.0375 0.0103495
0 0.1 -0.35701 0.00564131
0 0.1 0.35701 0.00538952
0.0363518 0.1 -0.35701 0.0131774
0.0363518 0.1 0.35701 0.00898856
0.287374 0.1 -0.225 0.0131178
0.287374 0.1 0.225 0.0121419
0.350249 0.1 -0.1125 0.0105467
0.350249 0.1 0.1125 0.0103028
0 0.1 -0.375 0.00566717
0 0.1 0.375 0.00538781
0 0.1 -0.39299 0.00569338
0 0.1 0.39299 0.00538647
0.0363518 0.1 -0.39299 0.0119644
0.0363518 0.1 0.39299 0.00860943
0.350249 0.1 -0.1875 0.0106051
0.350249 0.1 0.1875 0.0101144
0.219992 0.1 -0.3375 0.0157236
0.219992 0.1 0.3375 0.0125352
0.150379 0.1 0.375 0.0123783
0.150379 0.1 -0.375 0.0174975
0.411108 0.1 4.33681e-19 0.00868286
0.287374 0.1 -0.3 0.0131165
0.287374 0.1 0.3 0.0113442
0.411108 0.1 -0.075 0.00874952
0.411108 0.1 0.075 0.00863922
0.075776 0.1 -0.4125 0.0186174
0.075776 0.1 0.4125 0.0120848
0 0.1 0.43201 0.00537753
0 0.1 -0.43201 0.00573318
0.0363518 0.1 0.43201 0.00860049
0.0363518 0.1 -0.43201 0.0120042
0.411108 0.1 -0.15 0.00881419
0.411108 0.1 0.15 0.00858317
0.350249 0.1 -0.2625 0.0105926
0.350249 0.1 0.2625 0.00986
0 0.1 -0.45 0.00574741
0 0.1 0.45 0.00537124
0.219992 0.1 0.4125 0.0120278
0.219992 0.1 -0.4125 0.0147921
0 0.1 -0.46799 0.00576228
0 0.1 0.46799 0.00536496
0.411108 0.1 -0.225 0.0088587
0.411108 0.1 0.225 0.00848764
0.467897 0.1 -0.0375 0.00704665
0.467897 0.1 0.0375 0.00702148
0.0363518 0.1 0.46799 0.00840079
0.0363518 0.1 -0.46799 0.0110737
0.287374 0.1 -0.375 0.0128326
0.287374 0.1 0.375 0.0109678
0.150379 0.1 0.45 0.0120255
0.150379 0.1 -0.45 0.0161226
0.467897 0.1 0.1125 0.00701836
0.467897 0.1 -0.1125 0.00709469
0.350249 0.1 -0.3375 0.0106045
0.350249 0.1 0.3375 0.00971299
0.075776 0.1 -0.4875 0.0167459
0.075776 0.1 0.4875 0.0116749
0.467897 0.1 0.1875 0.00702639
0.467897 0.1 -0.1875 0.00715447
0 0.1 -0.50701 0.00578203
0 0.1 0.50701 0.00534806
0.0363518 0.1 -0.50701 0.0110934
0.0363518 0.1 0.50701 0.00838389
0.411108 0.1 0.3 0.00840619
0.411108 0.1 -0.3 0.00891133
0.522865 0.1 1.41031e-17 0.00609023
0 0.1 -0.525 0.00578834
0 0.1 0.525 0.00533879
0.522865 0.1 -0.075 0.00611967
0.522865 0.1 0.075 0.00608452
0.287374 0.1 0.45 0.0109319
0.287374 0.1 -0.45 0.0124733
0.219992 0.1 0.4875 0.0122948
0.219992 0.1 -0.4875 0.0144777
0.467897 0.1 -0.2625 0.00722508
0.467897 0.1 0.2625 0.00706775
0.350249 0.1 -0.4125 0.0104202
0.350249 0.1 0.4125 0.00970564
0 0.1 -0.54299 0.00579489
0 0.1 0.54299 0.00532923
0.522865 0.1 0.15 0.0060989
0.522865 0.1 -0.15 0.00616935
0.0363518 0.1 0.54299 0.00822928
0.0363518 0.1 -0.54299 0.0104753
0.150379 0.1 -0.525 0.0152434
0.150379 0.1 0.525 0.0121448
0.411108 0.1 -0.375 0.00891903
0.411108 0.1 0.375 0.00839219
0.075776 0.1 -0.5625 0.0154923
0.075776 0.1 0.5625 0.0113585
0.522865 0.1 -0.225 0.00623542
0.522865 0.1 0.225 0.00613481
0.574156 0.1 0.0375 0.00517708
0.574157 0.1 -0.0375 0.00518686
0.467897 0.1 -0.3375 0.0073612
0.467897 0.1 0.3375 0.00709219
0 0.1 -0.58201 0.00579683
0 0.1 0.58201 0.00530908
0.0363518 0.1 -0.58201 0.0104772
0.0363518 0.1 0.58201 0.00820913
0.574157 0.1 -0.1125 0.00522219
0.574157 0.1 0.1125 0.00519163
0.287374 0.1 -0.525 0.0123889
0.287374 0.1 0.525 0.0112843
0 0.1 -0.6 0.00579355
0 0.1 0.6 0.00529982
0.350249 0.1 0.4875 0.00980619
0.350249 0.1 -0.4875 0.0104097
0.522865 0.1 -0.3 0.00633444
0.522865 0.1 0.3 0.00618373
0.219992 0.1 -0.5625 0.0143364
0.219992 0.1 0.5625 0.0131922
0.574156 0.1 -0.1875 0.00527805
0.574156 0.1 0.1875 0.00522873
0.411108 0.1 0.45 0.0084662
0.411108 0.1 -0.45 0.00891589
0 0.1 -0.61799 0.00578998
0 0.1 0.61799 0.00528997
0.150379 0.1 -0.6 0.014678
0.150379 0.1 0.6 0.0122127
0.0363518 0.1 -0.61799 0.0101524
0.0363518 0.1 0.61799 0.00808393
0.467897 0.1 -0.4125 0.00742092
0.467897 0.1 0.4125 0.0071621
0.623803 0.1 2.34188e-17 0.00462287
0.623803 0.1 0.075 0.00462525
0.623803 0.1 -0.075 0.00464449
0.574156 0.1 0.2625 0.00528493
0.574156 0.1 -0.2625 0.00535596
0.623803 0.1 0.15 0.00465091
0.623803 0.1 -0.15 0.00468832
0.075776 0.1 0.6375 0.011101
0.075776 0.1 -0.6375 0.0148267
0.522865 0.1 -0.375 0.00643939
0.522865 0.1 0.375 0.00624771
0 0.1 0.65701 0.00527213
0 0.1 -0.65701 0.00577676
0.0363518 0.1 0.65701 0.00806609
0.0363518 0.1 -0.65701 0.0101392
0.350249 0.1 0.5625 0.00997287
0.350249 0.1 -0.5625 0.0105272
0.623803 0.1 0.225 0.00469733
0.623803 0.1 -0.225 0.00475258
0.287374 0.1 -0.6 0.0123736
0.287374 0.1 0.6 0.0115557
0.574157 0.1 -0.3375 0.00546768
0.574157 0.1 0.3375 0.00535731
0.411108 0.1 0.525 0.00861894
0.411108 0.1 -0.525 0.00901845
0.67013 0.1 0.0375 0.00407852
0.67013 0.1 -0.0375 0.00408804
0.219992 0.1 -0.6375 0.0140962
0.219993 0.1 0.6375 0.0131098
0 0.1 -0.675 0.00576867
0 0.1 0.675 0.00526524
0.467897 0.1 -0.4875 0.00753722
0.467897 0.1 0.4875 0.00729446
0.67013 0.1 -0.1125 0.00411993
0.67013 0.1 0.1125 0.0040928
0.522865 0.1 0.45 0.00635032
0.522865 0.1 -0.45 0.00654736
0.150379 0.1 0.675 0.0120046
0.150379 0.1 -0.675 0.014592
0.623803 0.1 0.3 0.00476191
0.623803 0.1 -0.3 0.00483978
0 0.1 -0.69299 0.00575971
0 0.1 0.69299 0.00525768
0.0363518 0.1 -0.69299 0.00989578
0.0363518 0.1 0.69299 0.0079639
0.67013 0.1 -0.1875 0.00417226
0.67013 0.1 0.1875 0.00412948
0.574156 0.1 0.4125 0.0054452
0.574157 0.1 -0.4125 0.0055793
0.714971 0.1 -2.8382e-17 0.00371836
0.075776 0.1 -0.7125 0.0143311
0.075776 0.1 0.7125 0.0108898
0.714971 0.1 -0.075 0.00373961
0.714971 0.1 0.075 0.00371879
0.67013 0.1 0.2625 0.00418514
0.67013 0.1 -0.2625 0.00424335
0.411108 0.1 -0.6 0.00919215
0.411108 0.1 0.6 0.00880714
0.350249 0.1 0.6375 0.0100888
0.350249 0.1 -0.6375 0.0107186
0.623803 0.1 0.375 0.00484155
0.623803 0.1 -0.375 0.00494883
0.714971 0.1 -0.15 0.00378092
0.714971 0.1 0.15 0.00374113
0.467897 0.1 -0.5625 0.00772265
0.467897 0.1 0.5625 0.00750533
0 0.1 -0.73201 0.00573843
0 0.1 0.73201 0.00524496
0.0363518 0.1 0.73201 0.00795117
0.0363518 0.1 -0.73201 0.0098745
0.287374 0.1 -0.675 0.0126761
0.287374 0.1 0.675 0.0115164
0.522865 0.1 -0.525 0.00670363
0.522865 0.1 0.525 0.00650769
0.219993 0.1 -0.7125 0.0151282
0.219992 0.1 0.7125 0.0128257
0.714971 0.1 -0.225 0.00384045
0.714971 0.1 0.225 0.00378355
0 0.1 0.75 0.00524054
0 0.1 -0.75 0.00572767
0.67013 0.1 -0.3375 0.00433188
0.67013 0.1 0.3375 0.0042591
0.574156 0.1 -0.4875 0.0057221
0.574157 0.1 0.4875 0.00556552
0.756813 0.1 0.0375 0.00335892
0.756814 0.1 -0.0375 0.00337121
0.150379 0.1 0.746002 0.0117637
0.150379 0.1 -0.75 0.0147359
0.756813 0.1 -0.1125 0.00340247
0.756813 0.1 0.1125 0.00336831
0 0.1 0.76799 0.00523541
0 0.1 -0.76799 0.00571555
0.0363518 0.1 0.76799 0.00787267
0.0363518 0.1 -0.76799 0.0096641
0.623803 0.1 -0.45 0.00507867
0.623803 0.1 0.45 0.00494202
0.714971 0.1 -0.3 0.00391613
0.714971 0.1 0.3 0.00384418
0.756814 0.1 -0.1875 0.00345227
0.756814 0.1 0.1875 0.00339751
0.67013 0.1 -0.4125 0.00445629
0.67013 0.1 0.4125 0.00434339
0.411108 0.1 0.675 0.00897638
0.411108 0.1 -0.675 0.00940705
0.467897 0.1 0.6375 0.00776223
0.467897 0.1 -0.6375 0.00792681
0.075776 0.1 0.7875 0.0107273
0.075776 0.1 -0.7875 0.0139005
0.350249 0.1 -0.7125 0.0109718
0.350249 0.1 0.7125 0.0101719
0.522865 0.1 -0.6 0.00690135
0.522865 0.1 0.6 0.00672095
0.797314 0.1 -3.59473e-17 0.00310605
0.287374 0.1 0.746002 0.0114432
0.797314 0.1 -0.075 0.00312741
0.797314 0.1 0.075 0.00310357
0.756814 0.1 -0.2625 0.0035173
0.756814 0.1 0.2625 0.00344585
0.287374 0.1 -0.75 0.0131288
0.574156 0.1 -0.5625 0.00590255
0.574156 0.1 0.5625 0.00573286
0 0.1 0.80701 0.00522781
0 0.1 -0.80701 0.00569178
0.714971 0.1 -0.375 0.00401868
0.714971 0.1 0.375 0.00392091
0.0363518 0.1 0.80701 0.00786507
0.0363518 0.1 -0.80701 0.00964032
0.797314 0.1 -0.15 0.00316663
0.797314 0.1 0.15 0.00312022
0.623803 0.1 -0.525 0.0052367
0.623803 0.1 0.525 0.00507571
0.219992 0.1 0.7875 0.0125499
0.219992 0.1 -0.7875 0.0155636
0.149792 0.1 0.80701 0.0116174
0 0.1 0.825 0.00522589
0 0.1 -0.825 0.00568108
0.797314 0.1 -0.225 0.00322174
0.797314 0.1 0.225 0.00315527
0.756813 0.1 -0.3375 0.00359561
0.756813 0.1 0.3375 0.00351066
0.67013 0.1 0.4875 0.00445297
0.67013 0.1 -0.4875 0.00459655
0.835106 0.1 -0.0375 0.00286077
0.835106 0.1 0.0375 0.00284811
0.150379 0.1 -0.825 0.0146504
0.835106 0.1 -0.1125 0.00289003
0.835106 0.1 0.1125 0.0028538
0 0.1 -0.84299 0.00566881
0 0.1 0.84299 0.0052232
0.0363518 0.1 -0.84299 0.00945386
0.0363518 0.1 0.84299 0.00780955
0.714971 0.1 -0.45 0.00414803
0.714971 0.1 0.45 0.00401345
0.411108 0.1 0.746002 0.00913108
0.797314 0.1 -0.3 0.00329124
0.797314 0.1 0.3 0.00320735
0.467897 0.1 -0.7125 0.00814869
0.467897 0.1 0.7125 0.00798282
0.522865 0.1 0.675 0.00696016
0.522865 0.1 -0.675 0.00712804
0.411108 0.1 -0.75 0.00961802
0.835106 0.1 -0.1875 0.00293667
0.835107 0.1 0.1875 0.00287628
0.286844 0.1 0.80701 0.0113539
0.574156 0.1 0.6375 0.00595307
0.574157 0.1 -0.6375 0.00612433
0.350249 0.1 -0.7875 0.011097
0.350249 0.1 0.7875 0.0102411
0.756813 0.1 -0.4125 0.00371472
0.756814 0.1 0.4125 0.00359459
0.623803 0.1 -0.6 0.00542981
0.623803 0.1 0.6 0.00525059
0.075776 0.1 0.8625 0.0106123
0.075776 0.1 -0.8625 0.0135175
0.871687 0.1 -3.2767e-18 0.00266212
0.287374 0.1 -0.825 0.0132808
0.871687 0.1 -0.075 0.00268326
0.871687 0.1 0.075 0.00265755
0.67013 0.1 -0.5625 0.00476537
0.67013 0.1 0.5625 0.00459121
0.835106 0.1 0.2625 0.00291667
0.835106 0.1 -0.2625 0.00299574
0.797314 0.1 -0.375 0.00338422
0.797314 0.1 0.375 0.00327626
0 0.1 -0.88201 0.00564641
0 0.1 0.88201 0.00522081
0.0363518 0.1 0.88201 0.00780716
0.0363518 0.1 -0.88201 0.00943145
0.871687 0.1 0.15 0.00266929
0.871687 0.1 -0.15 0.0027211
0.714971 0.1 0.525 0.00412844
0.714971 0.1 -0.525 0.00429868
0.219993 0.1 0.8625 0.0123472
0.219992 0.1 -0.8625 0.0155716
0 0.1 0.9 0.00522146
0 0.1 -0.9 0.00563712
0.756813 0.1 0.4875 0.00368719
0.756814 0.1 -0.4875 0.00384842
0.871687 0.1 0.225 0.00269719
0.871687 0.1 -0.225 0.00277271
0.835106 0.1 -0.3375 0.00307145
0.835106 0.1 0.3375 0.00297172
0.41063 0.1 0.80701 0.00921811
0.90582 0.1 -0.0375 0.00248137
0.905821 0.1 0.0375 0.00246791
0.522865 0.1 0.746002 0.00720113
0.150379 0.1 0.9 0.0114513
0.90582 0.1 0.1125 0.00247012
0.905821 0.1 -0.1125 0.00251053
0.522865 0.1 -0.75 0.00737229
0.574156 0.1 0.7125 0.00621419
0.574156 0.1 -0.7125 0.0063848
0.797314 0.1 -0.45 0.00350252
0.797314 0.1 0.45 0.00335824
0.467897 0.1 -0.7875 0.00840004
0.467897 0.1 0.7875 0.00818905
0.150379 0.1 -0.903998 0.0144997
0 0.1 0.91799 0.00522127
0 0.1 -0.91799 0.00562609
0.0363518 0.1 0.91799 0.00777661
0.0363518 0.1 -0.91799 0.00926462
0.623803 0.1 0.675 0.00546814
0.623803 0.1 -0.675 0.00565962
0.411108 0.1 -0.825 0.00977784
0.871687 0.1 0.3 0.00274087
0.871687 0.1 -0.3 0.00283869
0.67013 0.1 -0.6375 0.00496745
0.67013 0.1 0.6375 0.00476642
0.90582 0.1 -0.1875 0.00255682
0.90582 0.1 0.1875 0.00248681
0.350249 0.1 0.8625 0.0102952
0.350249 0.1 -0.8625 0.0111353
0.835106 0.1 -0.4125 0.00317055
0.835106 0.1 0.4125 0.00304384
0.714971 0.1 -0.6 0.00447818
0.714971 0.1 0.6 0.00427376
0.93886 0.1 -1.15648e-17 0.00237257
0.075776 0.1 0.9375 0.0105487
0.075776 0.1 -0.9375 0.0131745
0.93886 0.1 0.075 0.00236757
0.93886 0.1 -0.075 0.0023925
0.756813 0.1 0.5625 0.0038072
0.756814 0.1 -0.5625 0.00400834
0.905821 0.1 -0.2625 0.00261132
0.905821 0.1 0.2625 0.00251903
0.287374 0.1 0.9 0.0112776
0.287374 0.1 -0.903998 0.0132318
0.871687 0.1 0.375 0.00279944
0.871687 0.1 -0.375 0.00292422
0.93886 0.1 -0.15 0.00242857
0.93886 0.1 0.15 0.00237666
0.797314 0.1 0.525 0.00345748
0.797314 0.1 -0.525 0.0036431
0 0.1 0.95701 0.00522386
0 0.1 -0.95701 0.00560698
0.0363518 0.1 0.95701 0.00777921
0.0363518 0.1 -0.95701 0.00924551
0.522433 0.1 0.80701 0.00735662
0.219992 0.1 0.9375 0.012215
0.219992 0.1 -0.9375 0.0154618
0.93886 0.1 0.225 0.00239942
0.93886 0.1 -0.225 0.00247597
0.90582 0.1 0.3375 0.00256629
0.905821 0.1 -0.3375 0.00268602
0.835106 0.1 -0.4875 0.00329227
0.835107 0.1 0.4875 0.00312346
0.969689 0.1 -0.0375 0.00227816
0.969689 0.1 0.0375 0.002267
0.61613 0.1 0.75 0.00571424
0.574156 0.1 -0.7875 0.0066335
0.574156 0.1 0.7875 0.00647454
0 0.1 0.975 0.00522681
0 0.1 -0.975 0.00559984
0.623803 0.1 -0.75 0.00591252
0.969689 0.1 -0.1125 0.00230415
0.969689 0.1 0.1125 0.00226938
0.522865 0.1 -0.825 0.00761539
0.67013 0.1 0.7125 0.00498195
0.67013 0.1 -0.7125 0.00520338
0.871687 0.1 -0.45 0.00303262
0.871687 0.1 0.45 0.00287167
0.467897 0.1 0.8625 0.00834417
0.467897 0.1 -0.8625 0.00862044
0.714971 0.1 -0.675 0.00469048
0.714971 0.1 0.675 0.00445316
0.93886 0.1 -0.3 0.00253469
0.93886 0.1 0.3 0.00243621
0.150379 0.1 0.975 0.0113758
0.150379 0.1 -0.975 0.0142325
0.969689 0.1 -0.1875 0.00234707
0.969689 0.1 0.1875 0.00228444
0.411108 0.1 0.9 0.0093389
0.756813 0.1 0.6375 0.00395568
0.756814 0.1 -0.6375 0.00419581
0.990306 0.1 -2.19732e-17 0.00218477
0 0.1 0.99299 0.00522887
0 0.1 -0.99299 0.00559089
0.411108 0.1 -0.903998 0.00984308
0.990306 0.1 -0.075 0.00220254
0.990306 0.1 0.075 0.0021805
0.0363518 0.1 0.99299 0.00776739
0.0363518 0.1 -0.99299 0.00909981
0.90582 0.1 -0.4125 0.00277872
0.905821 0.1 0.4125 0.00262638
0.797314 0.1 -0.6 0.00380987
0.797314 0.1 0.6 0.00358224
0.350249 0.1 0.9375 0.0103517
0.350249 0.1 -0.9375 0.0111641
0.990306 0.1 0.15 0.0021887
0.990306 0.1 -0.15 0.00223547
0.969689 0.1 -0.2625 0.00239311
0.969689 0.1 0.2625 0.00231161
0.835106 0.1 -0.5625 0.00343952
0.835106 0.1 0.5625 0.00322853
0.93886 0.1 -0.375 0.00261308
0.93886 0.1 0.375 0.00248604
0.075776 0.1 1.0125 0.0105237
0.075776 0.1 -1.0125 0.0128746
0.990306 0.1 -0.225 0.00227913
0.990306 0.1 0.225 0.002209
0.287374 0.1 0.975 0.0112599
0.287374 0.1 -0.975 0.0132342
0.871687 0.1 -0.525 0.00316602
0.871687 0.1 0.525 0.00295817
1.02149 0.1 -0.0369628 0.00202503
1.02149 0.1 0.0369628 0.00201588
0.969689 0.1 -0.3375 0.00245303
0.969689 0.1 0.3375 0.00235223
1.02149 0.1 -0.110888 0.00204774
1.02149 0.1 0.110888 0.00201671
0.90582 0.1 0.4875 0.00270366
0.90582 0.1 -0.4875 0.00289889
0.623803 0.1 0.819003 0.00584489
0 0.1 1.03201 0.00523597
0 0.1 -1.03201 0.00557539
0.0363518 0.1 1.03201 0.00777449
0.0363518 0.1 -1.03201 0.00908432
0.67013 0.1 -0.7875 0.00547143
0.67013 0.1 0.7875 0.00523125
0.623803 0.1 -0.825 0.00616968
0.990306 0.1 -0.3 0.0023325
0.990306 0.1 0.3 0.00224173
0.219992 0.1 -1.0125 0.0153399
0.219993 0.1 1.0125 0.0121361
0.574156 0.1 0.8625 0.00669906
0.574157 0.1 -0.8625 0.00689371
0.714971 0.1 -0.75 0.00493642
0.714971 0.1 0.75 0.00466782
1.02149 0.1 0.184814 0.00202927
1.02149 0.1 -0.184814 0.0020833
0.756814 0.1 -0.7125 0.00442004
0.756814 0.1 0.7125 0.00413513
0.522865 0.1 0.9 0.00758744
0.93886 0.1 -0.45 0.00272305
0.93886 0.1 0.45 0.00254941
1.04168 0.1 0 0.00194051
1.04168 0.1 -0.0729162 0.00195548
1.04168 0.1 0.0729162 0.00193616
0.522865 0.1 -0.903998 0.0077899
0.797314 0.1 -0.675 0.00400558
0.797314 0.1 0.675 0.00373323
0.467897 0.1 0.9375 0.00846978
0.467897 0.1 -0.9375 0.00873036
0 0.1 1.05 0.00524102
0 0.1 -1.05 0.00556968
0.835106 0.1 -0.6375 0.00361222
0.835106 0.1 0.6375 0.0033545
1.04168 0.1 -0.145832 0.0019821
1.04168 0.1 0.145832 0.0019411
1.02149 0.1 -0.25874 0.0021298
1.02149 0.1 0.25874 0.00205254
0.969689 0.1 -0.4125 0.00253953
0.969689 0.1 0.4125 0.00240377
0.411108 0.1 0.975 0.00944259
0.411108 0.1 -0.975 0.00993506
0.871687 0.1 -0.6 0.00332421
0.871687 0.1 0.6 0.00306371
1.0579 0.1 -0.0360525 0.00188795
1.0579 0.1 0.0360525 0.00187919
0.990306 0.1 -0.375 0.00240658
0.990306 0.1 0.375 0.00228668
0.150379 0.1 1.05 0.0113451
0.150379 0.1 -1.05 0.0140385
1.0579 0.1 0.108157 0.00187845
1.0579 0.1 -0.108157 0.00190811
1.04168 0.1 -0.218749 0.00201976
1.04168 0.1 0.218749 0.00195573
0.90582 0.1 -0.5625 0.00304335
0.90582 0.1 0.5625 0.00278798
0 0.1 -1.06799 0.00556221
0 0.1 1.06799 0.00524511
0.0363518 0.1 -1.06799 0.00896255
0.0363518 0.1 1.06799 0.00778063
0.350249 0.1 1.0125 0.0104292
0.350249 0.1 -1.0125 0.0111904
1.0579 0.1 -0.180262 0.00193722
1.0579 0.1 0.180262 0.00188591
1.02149 0.1 -0.332665 0.00218942
1.02149 0.1 0.332665 0.00208778
0.93886 0.1 -0.525 0.00285773
0.93886 0.1 0.525 0.00262413
1.08012 0.1 5.49329e-18 0.00181633
1.04168 0.1 -0.291665 0.00206876
1.04168 0.1 0.291665 0.00198021
1.08012 0.1 0.0709941 0.00181221
1.08012 0.1 -0.0709941 0.00182965
0.969689 0.1 -0.4875 0.00267981
0.96969 0.1 0.4875 0.00246857
1.0579 0.1 0.252367 0.00190178
1.0579 0.1 -0.252367 0.00197773
0.990306 0.1 -0.45 0.00251576
0.990306 0.1 0.45 0.00234395
0.287374 0.1 -1.05 0.0131915
0.287374 0.1 1.05 0.0112788
0.714971 0.1 0.821002 0.00488304
1.08012 0.1 -0.141988 0.00185283
1.08012 0.1 0.141988 0.00181555
0.075776 0.1 1.0875 0.0105358
0.075776 0.1 -1.0875 0.0126237
0.714971 0.1 -0.825 0.00520015
0.756813 0.1 -0.7875 0.00467622
0.756814 0.1 0.7875 0.00435081
0.67013 0.1 -0.8625 0.00572833
0.67013 0.1 0.8625 0.00549379
0.797314 0.1 -0.75 0.0042327
0.797314 0.1 0.75 0.00391375
0.623803 0.1 0.9 0.00619486
0.835106 0.1 -0.7125 0.00381116
0.835106 0.1 0.7125 0.00350522
0.623803 0.1 -0.903998 0.00638421
0.574156 0.1 0.9375 0.00691937
0.574156 0.1 -0.9375 0.00717709
1.02149 0.1 -0.406591 0.00227651
1.02149 0.1 0.406591 0.0021348
1.08012 0.1 -0.212982 0.00188548
1.08012 0.1 0.212982 0.00182665
1.10076 0.1 -0.0349809 0.00175797
1.10076 0.1 0.0349809 0.00175133
0.871687 0.1 -0.675 0.00350759
0.871687 0.1 0.675 0.00319388
1.04168 0.1 -0.364581 0.00213607
1.04168 0.1 0.364581 0.00201539
1.10076 0.1 -0.104943 0.0017757
1.10076 0.1 0.104943 0.00175126
0.522865 0.1 0.975 0.00776677
0.522865 0.1 -0.975 0.0079669
1.0579 0.1 -0.324472 0.00202973
1.0579 0.1 0.324472 0.00192661
0 0.1 -1.10701 0.00554983
0 0.1 1.10701 0.00525641
0.0363518 0.1 1.10701 0.00779193
0.0363518 0.1 -1.10701 0.00895017
0.90582 0.1 0.6375 0.00289528
0.905821 0.1 -0.6375 0.00321166
0.219992 0.1 1.0875 0.0121074
0.219992 0.1 -1.0875 0.0152253
0.93886 0.1 0.6 0.00272187
0.93886 0.1 -0.6 0.00300678
1.10076 0.1 -0.174905 0.00180212
1.10076 0.1 0.174905 0.00175899
0.467897 0.1 1.0125 0.00862646
0.467897 0.1 -1.0125 0.00877322
1.08012 0.1 -0.283976 0.00192858
1.08012 0.1 0.283976 0.00184556
1.11928 0.1 3.93204e-18 0.00170777
0.990306 0.1 -0.525 0.00264229
0.990306 0.1 0.525 0.00241309
0.96969 0.1 -0.5625 0.0028135
0.969689 0.1 0.5625 0.00254133
1.11928 0.1 -0.0690357 0.00171923
1.11928 0.1 0.0690357 0.00170438
0 0.1 1.125 0.00526345
0 0.1 -1.125 0.00554559
0.411108 0.1 -1.05 0.00997365
0.411108 0.1 1.05 0.0095487
1.10076 0.1 0.244866 0.00177403
1.10076 0.1 -0.244866 0.00183793
1.11928 0.1 -0.138072 0.00174005
1.11928 0.1 0.138072 0.00170753
1.02149 0.1 0.480517 0.00219447
1.02149 0.1 -0.480517 0.00238406
1.0579 0.1 -0.396577 0.00210323
1.0579 0.1 0.396577 0.0019616
1.04168 0.1 -0.437497 0.0022238
1.04168 0.1 0.437497 0.0020617
0.150379 0.1 1.125 0.0113576
0.150379 0.1 -1.125 0.0138769
0.714971 0.1 0.88201 0.00487439
1.08012 0.1 0.354971 0.00187317
1.08012 0.1 -0.354971 0.00198702
1.11928 0.1 -0.207107 0.00176944
1.11928 0.1 0.207107 0.00171768
0.350249 0.1 -1.0875 0.011216
0.350249 0.1 1.0875 0.0105305
0 0.1 1.14299 0.00526943
0 0.1 -1.14299 0.00553962
0.0363518 0.1 1.14299 0.00781288
0.0363518 0.1 -1.14299 0.00885279
1.14316 0.1 -0.0339211 0.00164465
1.14316 0.1 0.0339211 0.00163847
0.797314 0.1 0.821002 0.00412158
1.10076 0.1 -0.314829 0.00188383
1.10076 0.1 0.314829 0.00179628
0.797314 0.1 -0.825 0.00448772
0.756814 0.1 -0.8625 0.00495173
0.756814 0.1 0.8625 0.00459376
1.14316 0.1 -0.101763 0.00165976
1.14316 0.1 0.101763 0.00163775
0.835106 0.1 -0.7875 0.00404115
0.835106 0.1 0.7875 0.00368244
0.871687 0.1 -0.75 0.00371853
0.871687 0.1 0.75 0.00335244
0.67013 0.1 0.9375 0.00572028
0.67013 0.1 -0.9375 0.00599289
0.90582 0.1 -0.7125 0.00340519
0.905821 0.1 0.7125 0.0030323
0.714971 0.1 -0.903998 0.00541874
1.11928 0.1 0.276143 0.0017345
1.11928 0.1 -0.276143 0.00180762
1.14316 0.1 0.169605 0.0016434
1.14316 0.1 -0.169605 0.00168305
0.93886 0.1 -0.675 0.00317759
0.93886 0.1 0.675 0.00284254
1.15704 0.1 0 0.00160749
1.0579 0.1 0.468682 0.00200691
1.0579 0.1 -0.468682 0.00218768
0.623803 0.1 0.975 0.00641649
0.623803 0.1 -0.975 0.00665427
0.990306 0.1 0.6 0.00250877
0.990306 0.1 -0.6 0.00277885
1.15704 0.1 -0.0671479 0.00161765
1.15704 0.1 0.0671479 0.00160418
1.04168 0.1 -0.510414 0.00231662
1.04168 0.1 0.510414 0.00212104
0.969689 0.1 -0.6375 0.00296351
0.969689 0.1 0.6375 0.00266775
1.08012 0.1 0.425965 0.00191007
1.08012 0.1 -0.425965 0.00206077
0.287374 0.1 -1.125 0.0131566
0.287374 0.1 1.125 0.0113369
1.02149 0.1 -0.554443 0.0024877
1.02149 0.1 0.554443 0.00226946
0.574156 0.1 1.0125 0.00713948
0.574156 0.1 -1.0125 0.00726683
1.15704 0.1 -0.134296 0.00163618
1.15704 0.1 0.134296 0.00160637
0.075776 0.1 1.1625 0.0105787
0.075776 0.1 -1.1625 0.012423
1.10076 0.1 -0.384791 0.0019482
1.10076 0.1 0.384791 0.00182732
1.14316 0.1 -0.237448 0.00171389
1.14316 0.1 0.237448 0.00165511
1.11928 0.1 -0.345179 0.00185875
1.11928 0.1 0.345179 0.00175865
0.522865 0.1 1.05 0.00790534
0.522865 0.1 -1.05 0.00802925
1.15704 0.1 -0.201444 0.00166209
1.15704 0.1 0.201444 0.0016145
1.1744 0.1 -0.0331401 0.00157161
1.1744 0.1 0.0331401 0.00156608
1.1744 0.1 -0.0994202 0.00158553
1.1744 0.1 0.0994202 0.00156511
0 0.1 1.18201 0.00528439
0 0.1 -1.18201 0.00553046
0.0363518 0.1 1.18201 0.00782784
0.0363518 0.1 -1.18201 0.00884363
0.219992 0.1 1.1625 0.0121324
0.219993 0.1 -1.1625 0.0151352
1.14316 0.1 0.30529 0.0016727
1.14316 0.1 -0.30529 0.00175271
0.467897 0.1 1.0875 0.00871651
0.467897 0.1 -1.0875 0.00881799
1.1744 0.1 -0.1657 0.00160679
1.1744 0.1 0.1657 0.00156999
1.15704 0.1 -0.268592 0.00169481
1.15704 0.1 0.268592 0.00162818
1.0579 0.1 0.540787 0.00206613
1.0579 0.1 -0.540787 0.00227007
0.796996 0.1 0.88201 0.00430296
1.08012 0.1 -0.496959 0.00213833
1.08012 0.1 0.496959 0.00195791
1.10076 0.1 0.454752 0.00186661
1.10076 0.1 -0.454752 0.00202218
1.11928 0.1 -0.414214 0.00192336
1.11928 0.1 0.414214 0.00179081
1.04168 0.1 -0.58333 0.00242521
1.04168 0.1 0.58333 0.00219468
1.1744 0.1 -0.231981 0.00163425
1.1744 0.1 0.231981 0.00157992
0.871687 0.1 0.821002 0.00353771
0.411108 0.1 1.125 0.00963715
0.411108 0.1 -1.125 0.0100124
1.19808 0.1 1.73472e-17 0.00151133
0.990306 0.1 0.675 0.00262455
0.990306 0.1 -0.675 0.00293942
1.02149 0.1 0.628368 0.00236346
1.02149 0.1 -0.628368 0.00262842
1.19808 0.1 -0.0650961 0.00152071
1.19808 0.1 0.0650961 0.00150785
0 0.1 1.2 0.00529308
0 0.1 -1.2 0.0055278
0.871687 0.1 -0.825 0.0039602
0.905821 0.1 -0.7875 0.00362669
0.90582 0.1 0.7875 0.00320175
0.835106 0.1 -0.8625 0.00430069
0.835106 0.1 0.8625 0.00389524
0.93886 0.1 -0.75 0.00337194
0.93886 0.1 0.75 0.00297869
1.14316 0.1 -0.373132 0.00180564
1.14316 0.1 0.373132 0.0016973
0.969689 0.1 0.7125 0.00277968
0.969689 0.1 -0.7125 0.00313524
1.15704 0.1 -0.33574 0.00173738
1.15704 0.1 0.33574 0.00164791
0.756813 0.1 0.9375 0.00484144
0.756814 0.1 -0.9375 0.00520251
1.19808 0.1 0.130192 0.0015092
1.19808 0.1 -0.130192 0.00153749
0.797314 0.1 -0.903998 0.00471092
0.714971 0.1 0.975 0.00538343
0.714971 0.1 -0.975 0.00571742
0.150379 0.1 1.2 0.0114136
0.150379 0.1 -1.2 0.0137542
1.20938 0.1 -0.0322656 0.00149135
1.20938 0.1 0.0322656 0.00148581
1.1744 0.1 -0.298261 0.00166757
1.1744 0.1 0.298261 0.00159492
1.20938 0.1 -0.0967968 0.00150412
1.20938 0.1 0.0967968 0.00148439
1.19808 0.1 -0.195288 0.00156019
1.19808 0.1 0.195288 0.00151554
0.350249 0.1 1.1625 0.0106646
0.350249 0.1 -1.1625 0.0112422
0.67013 0.1 1.0125 0.00594896
0.67013 0.1 -1.0125 0.00624132
0 0.1 1.21799 0.0053006
0 0.1 -1.21799 0.00552344
0.0363518 0.1 -1.21799 0.00876858
0.0363518 0.1 1.21799 0.00786093
1.11928 0.1 -0.48325 0.00199521
1.11928 0.1 0.48325 0.00183223
1.10076 0.1 -0.524714 0.00209687
1.10076 0.1 0.524714 0.00191731
1.20938 0.1 0.161328 0.00148821
1.20938 0.1 -0.161328 0.00152404
1.08012 0.1 0.567953 0.00201723
1.08012 0.1 -0.567953 0.00222976
0.623803 0.1 1.05 0.00660493
0.623803 0.1 -1.05 0.00677189
1.0579 0.1 -0.612892 0.00238645
1.0579 0.1 0.612892 0.0021366
1.15704 0.1 -0.402888 0.00179199
1.15704 0.1 0.402888 0.00167437
1.14316 0.1 0.440974 0.00172922
1.14316 0.1 -0.440974 0.00186896
1.19808 0.1 -0.260384 0.00158776
1.19808 0.1 0.260384 0.0015265
1.2267 0.1 3.57064e-18 0.00145246
1.2267 0.1 -0.0636649 0.00146172
1.2267 0.1 0.0636649 0.00144842
1.1744 0.1 -0.364541 0.00171199
1.1744 0.1 0.364541 0.00161593
0.574156 0.1 1.0875 0.00722692
0.574156 0.1 -1.0875 0.00732196
1.20938 0.1 0.225859 0.00149639
1.20938 0.1 -0.225859 0.00154798
1.04168 0.1 -0.656246 0.00256542
1.04168 0.1 0.656246 0.00228587
1.2267 0.1 -0.12733 0.00147772
1.2267 0.1 0.12733 0.00144885
0.287374 0.1 1.2 0.0114018
0.287374 0.1 -1.2 0.0131366
1.02149 0.1 -0.702294 0.00279645
1.02149 0.1 0.702294 0.00247715
0.075776 0.1 -1.2375 0.0122683
0.075776 0.1 1.2375 0.0106466
0.871399 0.1 0.88201 0.00370209
0.522865 0.1 1.125 0.0079706
0.522865 0.1 -1.125 0.00808273
1.2267 0.1 -0.190994 0.00149855
1.2267 0.1 0.190994 0.00145387
1.19808 0.1 -0.32548 0.00162227
1.19808 0.1 0.32548 0.00154244
0.990306 0.1 -0.75 0.00312404
0.990306 0.1 0.75 0.00274235
1.24274 0.1 -0.0314313 0.00142191
1.24274 0.1 0.0314313 0.00141565
1.20938 0.1 -0.29039 0.00157676
1.20938 0.1 0.29039 0.001509
1.24274 0.1 -0.0942942 0.00143407
1.24274 0.1 0.0942942 0.00141306
0.93886 0.1 0.821002 0.00313745
1.11928 0.1 -0.552285 0.00207637
1.11928 0.1 0.552285 0.0018842
1.15704 0.1 -0.470036 0.00185767
1.15704 0.1 0.470036 0.00170832
0.969689 0.1 -0.7875 0.00332645
0.96969 0.1 0.7875 0.00290662
0.93886 0.1 -0.825 0.00358897
0.90582 0.1 0.8625 0.00340372
0.905821 0.1 -0.8625 0.00388271
1.1744 0.1 -0.430821 0.00176765
1.1744 0.1 0.430821 0.00164315
1.10076 0.1 -0.594676 0.0021959
1.10076 0.1 0.594676 0.00197795
1.14316 0.1 -0.508816 0.00194087
1.14316 0.1 0.508816 0.00177055
1.24274 0.1 -0.157157 0.00145304
1.24274 0.1 0.157157 0.0014153
1.2267 0.1 -0.254659 0.00152317
1.2267 0.1 0.254659 0.00146314
0.467897 0.1 1.1625 0.00874479
0.467897 0.1 -1.1625 0.00886104
1.08012 0.1 0.638947 0.00208899
1.08012 0.1 -0.638947 0.00234842
1.25511 0.1 -5.78241e-19 0.00139396
0.835106 0.1 -0.9375 0.00456144
0.835106 0.1 0.9375 0.00414002
0.871687 0.1 -0.903998 0.00418295
1.25511 0.1 0.0622446 0.00138869
1.25511 0.1 -0.0622446 0.00140379
0.219992 0.1 1.2375 0.0122202
0.219992 0.1 -1.2375 0.0150819
0 0.1 -1.25701 0.00551753
0 0.1 1.25701 0.00531852
0.0363518 0.1 -1.25701 0.00876268
0.0363518 0.1 1.25701 0.00787885
0.797314 0.1 0.975 0.00460125
0.797314 0.1 -0.975 0.00500817
1.19808 0.1 -0.390576 0.00166724
1.19808 0.1 0.390576 0.00156398
1.0579 0.1 -0.684997 0.00252562
1.0579 0.1 0.684997 0.00222399
1.20938 0.1 -0.354921 0.0016134
1.20938 0.1 0.354921 0.0015267
1.25511 0.1 0.124489 0.00138762
1.25511 0.1 -0.124489 0.0014197
1.24274 0.1 -0.220019 0.00147362
1.24274 0.1 0.220019 0.0014215
0.756813 0.1 1.0125 0.00506066
0.756814 0.1 -1.0125 0.0054769
1.2267 0.1 -0.318324 0.00155335
1.2267 0.1 0.318324 0.00147698
0.411108 0.1 1.2 0.00968639
0.411108 0.1 -1.2 0.0100479
1.25511 0.1 -0.186734 0.00143919
1.25511 0.1 0.186734 0.00139093
0.714971 0.1 1.05 0.00560392
0.714971 0.1 -1.05 0.0058902
1.04168 0.1 -0.729162 0.0027293
1.04168 0.1 0.729162 0.00238429
1.24274 0.1 0.282882 0.00143194
1.24274 0.1 -0.282882 0.00149887
0 0.1 1.275 0.00532862
0 0.1 -1.275 0.00551643
1.1744 0.1 0.497102 0.00167733
1.1744 0.1 -0.497102 0.00183701
1.15704 0.1 -0.537184 0.00192852
1.15704 0.1 0.537184 0.0017516
1.2756 0.1 -0.03061 0.00135561
1.2756 0.1 0.03061 0.00134743
0.67013 0.1 1.0875 0.00616918
0.67013 0.1 -1.0875 0.00630544
1.2756 0.1 -0.09183 0.00136846
1.2756 0.1 0.09183 0.00134273
1.25511 0.1 -0.248978 0.00146137
1.25511 0.1 0.248978 0.00139834
1.20938 0.1 0.419453 0.00155002
1.20938 0.1 -0.419453 0.00166231
1.11928 0.1 -0.621322 0.00217935
1.11928 0.1 0.621322 0.00194591
1.14316 0.1 -0.576659 0.00201917
1.14316 0.1 0.576659 0.00182199
1.19808 0.1 -0.455673 0.00172524
1.19808 0.1 0.455673 0.00159126
1.02149 0.1 0.776219 0.00258804
1.02149 0.1 -0.776219 0.002994
0.150379 0.1 1.275 0.0115141
0.150379 0.1 -1.275 0.0136658
1.2756 0.1 -0.15305 0.00138738
1.2756 0.1 0.15305 0.00134269