# nutMean  POINT_DATA 91129
# x  y  z  nutMean
0 0 0 4.93958e-06
0 0.00368111 0 1.70171e-05
0 0.00749587 0 6.15757e-05
0 0.0114491 0 0.000227921
0 0.0155459 0 0.000600976
0 0.0197915 0 0.00139135
0 0.0241911 0 0.00231987
0 0.0287506 0 0.00299108
0 0.0334755 0 0.00348728
0 0.038372 0 0.00383187
0 0.0434463 0 0.00407397
0 0.0487048 0 0.00425642
0 0.0541543 0 0.00440604
0 0.0598016 0 0.00453889
0 0.0656539 0 0.00466438
0 0.0717187 0 0.00478939
0.075776 0.00184055 0 8.00878e-06
0.075776 0.00558849 0 1.2216e-05
0.075776 0.00947248 -3.46945e-18 5.70874e-05
0.075776 0.0134975 -3.46945e-18 0.000259354
0.075776 0.0176687 3.46945e-18 0.000722372
0 0.0780037 0 0.00491887
0.075776 0.0219913 3.46945e-18 0.00145265
0.075776 0.0264709 3.46945e-18 0.00246879
0.075776 0.031113 -3.46945e-18 0.00375877
0.075776 0.0359237 -3.46945e-18 0.00528703
0 0.0845169 0 0.00505385
0.075776 0.0409092 0 0.00700737
0.075776 0.0460755 -3.46945e-18 0.00886747
0 0.0912666 0 0.00519295
0.075776 0.0514296 -3.46945e-18 0.0108135
0.075776 0.0569779 0 0.0127928
0 0.0982613 0 0.00533532
0.075776 0.0627278 0 0.014753
0.075776 0.0686863 0 0.0166434
0 0.10551 0 0.00548056
0.075776 0.0748612 3.46945e-18 0.0179216
0.075776 0.0812603 -3.46945e-18 0.0187408
0 0.113022 0 0.00562793
0.075776 0.0878918 3.46945e-18 0.0194939
0 0.120806 0 0.00577672
0.075776 0.0947639 3.46945e-18 0.0203142
0.075776 0.101886 -3.46945e-18 0.0212123
0 0.128874 0 0.00592648
0.075776 0.109266 3.46945e-18 0.0222081
0 0.137234 0 0.0060833
0.075776 0.116914 3.46945e-18 0.0233321
0 0.145897 0 0.00626293
0.075776 0.12484 0 0.0246092
0.151552 0 0 0
0.151552 0.00368111 0 6.67387e-06
0.151552 0.00749587 0 2.31909e-05
0.151552 0.0114491 0 9.85935e-05
0.151552 0.0155459 0 0.000300806
0.151552 0.0197915 0 0.000675909
0.075776 0.133054 0 0.0260683
0.151552 0.0241911 0 0.00124457
0.151552 0.0287506 0 0.00201527
0 0.154876 0 0.00647324
0.151552 0.0334755 0 0.0029793
0.151552 0.038372 0 0.00411819
0.151552 0.0434463 0 0.0054079
0.151552 0.0487048 0 0.0068211
0.075776 0.141566 0 0.0275325
0.151552 0.0541543 0 0.00832881
0.151552 0.0598016 0 0.00990117
0 0.16418 0 0.00670546
0.151552 0.0656539 0 0.011508
0.151552 0.0717187 0 0.0130005
0.075776 0.150387 0 0.0284362
0.151552 0.0780037 0 0.0142779
0.151552 0.0845169 0 0.0154631
0 0.173822 0 0.0069511
0.075776 0.159528 0 0.0289398
0.151552 0.0912666 0 0.0166727
0.151552 0.0982613 0 0.0179298
0 0.183814 0 0.00720907
0.151552 0.10551 0 0.0192286
0.075776 0.169001 3.46945e-18 0.0290672
0.151552 0.113022 0 0.0205699
0.151552 0.120806 0 0.0219561
0 0.194169 0 0.00747918
0.075776 0.178818 3.46945e-18 0.0282147
0.151552 0.128874 0 0.0233898
0.075776 0.188992 3.46945e-18 0.0266424
0.151552 0.137234 0 0.0248268
0 0.2049 0 0.00777024
0.151552 0.145897 0 0.0260818
0.075776 0.199535 0 0.024971
0 0.21602 0 0.00810951
0.151552 0.154876 0 0.0270523
0.219992 0.00184055 0 2.0664e-06
0.219992 0.00558849 0 4.93331e-06
0.219992 0.00947248 -3.46945e-18 2.02905e-05
0.219992 0.0134975 3.46945e-18 6.68171e-05
0.219992 0.0176687 0 0.000183921
0.219992 0.0219913 0 0.000408017
0.219993 0.0264709 -3.46945e-18 0.000758985
0.219992 0.031113 -3.46945e-18 0.00124351
0.219992 0.0359238 3.46945e-18 0.00186531
0.151552 0.16418 0 0.0277379
0.075776 0.21046 0 0.0235007
0.219992 0.0409092 3.46945e-18 0.00262509
0.219992 0.0460755 0 0.00352069
0.219993 0.0514296 -3.46945e-18 0.0045471
0.219992 0.0569779 0 0.00569611
0 0.227544 0 0.0085142
0.219992 0.0627277 3.46945e-18 0.00695808
0.219992 0.0686863 0 0.00832166
0.151552 0.173822 0 0.027961
0.219992 0.0748612 3.46945e-18 0.00977352
0.075776 0.221782 0 0.0224758
0.219992 0.0812603 3.46945e-18 0.0112987
0.219992 0.0878917 -3.46945e-18 0.0128805
0.151552 0.183814 0 0.0276833
7.47806e-17 0.239487 0 0.00896801
0.219992 0.0947639 3.46945e-18 0.0144988
0.219993 0.101886 3.46945e-18 0.0161291
0.075776 0.233516 0 0.0218298
0.219993 0.109266 0 0.0177461
0.151552 0.194169 0 0.0271356
0.219993 0.116914 0 0.0193313
0 0.251863 0 0.00945523
0.219993 0.12484 0 0.0208615
0.151552 0.2049 0 0.0264795
0.075776 0.245675 0 0.0213794
0.219992 0.133054 3.46945e-18 0.0223195
0.219992 0.141565 0 0.0236901
0.151552 0.21602 0 0.025858
0 0.264688 0 0.00997534
0.219992 0.150387 3.46945e-18 0.0249605
0.075776 0.258275 3.46945e-18 0.0210945
0.219992 0.159528 -3.46945e-18 0.0261237
0.151552 0.227544 0 0.0253712
0.219992 0.169001 3.46945e-18 0.027015
0 0.27798 0 0.0105282
0.075776 0.271334 3.46945e-18 0.0209524
0.151552 0.239487 3.70071e-18 0.0249653
0.219992 0.178818 3.46945e-18 0.0276515
0.288433 0 0 0
0.288433 0.00368111 0 2.81441e-06
0.288433 0.00749587 0 1.10865e-05
0.288433 0.0114491 0 3.58666e-05
0.288433 0.0155459 3.70071e-18 9.64426e-05
0.288433 0.0197915 0 0.000224674
0.288433 0.0241911 3.70071e-18 0.000445317
0.288433 0.0287506 0 0.00077159
0.219992 0.188991 0 0.0281854
0.288433 0.0334755 0 0.0012123
0.288433 0.038372 0 0.00177072
0.288433 0.0434463 0 0.00244777
7.47806e-17 0.291753 0 0.0111152
0.288433 0.0487048 0 0.00324215
0.288433 0.0541543 0 0.00415032
0.151552 0.251863 0 0.0245908
0.288433 0.0598016 3.70071e-18 0.0051668
0.075776 0.284866 0 0.0209448
0.288433 0.0656539 3.70071e-18 0.00628409
0.219992 0.199534 0 0.0285397
0.288433 0.0717187 0 0.00749239
0.288433 0.0780037 0 0.00877947
0.288433 0.0845169 0 0.0101301
0.288433 0.0912666 0 0.0115253
0.219992 0.21046 -3.46945e-18 0.0285627
0.288433 0.0982613 0 0.012719
0.151552 0.264688 3.70071e-18 0.0242596
0 0.306027 0 0.0117517
0.288433 0.10551 0 0.0136496
0.075776 0.29889 3.46945e-18 0.0210661
0.288433 0.113022 0 0.0145755
0.219993 0.221782 0 0.0284532
0.288433 0.120806 0 0.0154973
0.288433 0.128874 0 0.0163153
0.151552 0.27798 0 0.0240264
0.288433 0.137234 0 0.0170401
0 0.320819 0 0.0125191
0.219992 0.233515 -3.46945e-18 0.0282331
0.075776 0.313423 -3.46945e-18 0.0213676
0.288433 0.145897 0 0.0177186
0.288433 0.154876 0 0.0183643
0.151552 0.291753 0 0.0238488
0.219993 0.245675 0 0.0279044
0.288433 0.16418 0 0.0189275
0 0.336148 0 0.0135826
0.288433 0.173822 0 0.0193665
0.075776 0.328484 -3.46945e-18 0.0222018
0.219993 0.258275 -3.46945e-18 0.0274714
0.151552 0.306027 0 0.0236658
0.288433 0.183814 0 0.019719
0.288433 0.194169 0 0.0200015
0.219992 0.271334 3.46945e-18 0.0270251
0.350249 0.00184056 -3.46945e-18 8.45482e-07
0.350249 0.00558849 0 3.51329e-06
0.350249 0.00947248 3.46945e-18 1.58336e-05
0.350249 0.0134975 0 4.16561e-05
0.350249 0.0176687 0 9.76302e-05
0.350249 0.0219913 0 0.000219613
0.350249 0.0264708 3.46945e-18 0.000414969
0.350249 0.031113 0 0.000702652
0 0.352034 0 0.0144673
0.350249 0.0359238 0 0.00108801
0.075776 0.344091 0 0.02404
0.350249 0.0409091 0 0.00157422
0.350249 0.0460756 3.46945e-18 0.00216296
0.288433 0.2049 0 0.0201577
0.350249 0.0514296 0 0.00285419
0.151552 0.320819 0 0.0235909
0.350249 0.0569779 0 0.0036466
0.350249 0.0627277 3.46945e-18 0.00453688
0.350249 0.0686863 3.46945e-18 0.00551891
0.350249 0.0748612 3.46945e-18 0.00658394
0.350249 0.0812603 0 0.00771971
0.219992 0.284867 0 0.0267126
0.288433 0.21602 0 0.0201983
0.350249 0.0878917 0 0.00890914
0.350249 0.094764 0 0.0101304
0.350249 0.101886 0 0.0104985
0.350249 0.109266 0 0.0107073
0.288433 0.227544 0 0.0201751
0.075776 0.360265 3.46945e-18 0.0239453
0 0.368496 0 0.014673
0.151552 0.336148 0 0.0238485
0.350249 0.116914 3.46945e-18 0.011099
0.219992 0.29889 0 0.0262371
0.370854 0.0241911 1.54074e-33 0.000324518
0.350249 0.12484 0 0.0113723
0.350249 0.133054 0 0.0114815
0.288433 0.239487 -9.25154e-19 0.0200921
0.350249 0.141566 3.46945e-18 0.0115441
0.350249 0.150387 3.46945e-18 0.0116484
0.288433 0.251863 0 0.0199486
0.219992 0.313423 0 0.0256182
0.151552 0.352034 0 0.0238586
0.075776 0.377027 0 0.0228115
0.350249 0.159528 0 0.0117769
0 0.385557 0 0.0143806
0.350249 0.169001 0 0.0119143
0.288433 0.264688 0 0.0197644
0.350249 0.178818 0 0.0120524
0.219992 0.328484 0 0.0249003
0.350249 0.188992 0 0.0121876
0.151552 0.368496 0 0.0231151
0.288433 0.27798 3.70071e-18 0.019595
0.075776 0.394397 0 0.0212572
0.350249 0.199535 0 0.0123171
7.47806e-17 0.403236 0 0.0140902
0.219992 0.344091 0 0.0241411
0.350249 0.21046 -3.46945e-18 0.0124395
0.288433 0.291753 0 0.0194045
0.412065 9.08189e-19 3.08149e-33 2.35021e-22
0.412065 0.00368111 -2.31298e-18 2.12323e-06
0.412065 0.00749587 -2.31298e-18 9.90309e-06
0.412065 0.0114491 -2.31298e-18 2.78267e-05
0.412065 0.0155459 -2.31298e-18 6.24814e-05
0.412065 0.0197915 0 0.000134051
0.412065 0.0241911 -3.08149e-33 0.000264118
0.412065 0.0264709 0 0.000364983
0.412065 0.0287506 -2.31298e-18 0.000465847
0.412065 0.0334755 -2.31298e-18 0.000749571
0.412065 0.038372 -2.31298e-18 0.00112203
0.151552 0.385557 0 0.0219769
0.412065 0.0434463 0 0.0015859
0.350249 0.221782 0 0.0125532
0.412065 0.0487048 0 0.00214228
0.412065 0.0541543 -3.08149e-33 0.00279077
0.412065 0.0569779 0 0.00316001
0.412065 0.0598016 -2.31298e-18 0.00352925
0.412065 0.0656539 -2.31298e-18 0.00435336
0.412065 0.0717187 -2.31298e-18 0.00525588
0.075776 0.412396 -3.46945e-18 0.0207357
0.412065 0.0780037 -2.31298e-18 0.00622607
0.288433 0.306027 0 0.0191275
0.412065 0.0845169 -2.31298e-18 0.00724858
0.350249 0.233516 3.46945e-18 0.0126551
0 0.421557 0 0.0140902
0.412065 0.0912666 -2.31298e-18 0.00813534
0.219992 0.360265 3.46945e-18 0.0233284
0.412065 0.0982613 0 0.00860669
0.412065 0.10551 0 0.00878461
0.412065 0.113022 -2.31298e-18 0.00897152
0.350249 0.245675 0 0.0127417
0.412065 0.120806 0 0.00917257
0.151552 0.403236 0 0.0209753
0.288433 0.320819 0 0.0187802
0.412065 0.128874 -2.31298e-18 0.0093024
0.412065 0.137234 0 0.00938033
0.350249 0.258275 -3.46945e-18 0.0128076
0.219992 0.377026 0 0.0224148
0.412065 0.145897 -2.31298e-18 0.00945776
0.075776 0.431051 0 0.0206726
0.412065 0.154876 -2.31298e-18 0.00955112
0 0.440544 0 0.0141943
0.288433 0.336148 0 0.0183886
0.350249 0.271334 0 0.0128466
0.412065 0.16418 -2.31298e-18 0.00965184
0.412065 0.173822 -2.31298e-18 0.00975419
0.151552 0.421557 0 0.020368
0.412065 0.183814 -2.31298e-18 0.00985525
0.350249 0.284867 3.46945e-18 0.0128572
0.219992 0.394397 0 0.0214325
0.288433 0.352034 3.70071e-18 0.0179642
0.412065 0.194169 0 0.00995344
0.075776 0.450382 0 0.0206965
0.412065 0.2049 -2.31298e-18 0.0100477
0 0.46022 0 0.0143054
0.350249 0.29889 3.46945e-18 0.0128425
0.412065 0.21602 0 0.0101371
0.151552 0.440544 0 0.0199539
0.219993 0.412396 3.46945e-18 0.0204786
0.467897 0.00184056 -3.46945e-18 6.12965e-07
0.467897 0.00558849 0 3.52909e-06
0.288433 0.368496 0 0.017491
0.467897 0.00947248 0 1.67048e-05
0.467897 0.0134975 0 3.72411e-05
0.467897 0.0176687 3.46945e-18 7.4398e-05
0.467897 0.0219913 -3.46945e-18 0.000147991
0.467897 0.0264709 3.46945e-18 0.000281318
0.467897 0.0311131 3.46945e-18 0.000477418
0.467897 0.0359238 -3.46945e-18 0.000750535
0.467897 0.038372 0 0.00096665
0.467897 0.0409092 3.46945e-18 0.0011045
0.350249 0.313423 0 0.0128034
0.467897 0.0460755 0 0.00154133
0.467897 0.0514296 3.46945e-18 0.00206172
0.412065 0.227544 -2.31298e-18 0.0102204
0.467897 0.0569779 0 0.00266464
0.467897 0.0627277 -3.46945e-18 0.00334728
0.467897 0.0686863 3.46945e-18 0.00410439
0.467897 0.0748612 0 0.00492716
0.467897 0.0812603 0 0.00580249
0.467897 0.0878918 3.46945e-18 0.00671145
0.075776 0.470415 3.46945e-18 0.0207421
0.412065 0.239487 -2.31298e-18 0.0102957
0.467897 0.0947639 -3.46945e-18 0.00698313
0.467897 0.101886 3.46945e-18 0.00705241
0.350249 0.328483 0 0.0127427
0.467897 0.109266 0 0.00713333
0 0.48061 0 0.0144163
0.288433 0.385557 0 0.0169621
0.467897 0.116914 0 0.0072153
0.412065 0.251863 -2.31298e-18 0.0103608
0.219992 0.431051 0 0.019636
0.467897 0.12484 0 0.00729068
0.151552 0.46022 0 0.0196291
0.467897 0.133054 3.46945e-18 0.00736058
0.467897 0.141566 3.46945e-18 0.00743166
0.412065 0.264688 -2.31298e-18 0.010413
0.350249 0.344091 -3.46945e-18 0.0126629
0.467897 0.150387 3.46945e-18 0.00750416
0.467897 0.154876 0 0.00804189
0.467897 0.159528 3.46945e-18 0.00757545
0.288433 0.403236 0 0.0164087
0.075776 0.491175 0 0.0208204
0.412065 0.27798 -2.31298e-18 0.0104506
0.467897 0.169001 0 0.00764547
0.467897 0.178818 3.46945e-18 0.00771415
0.219992 0.450382 0 0.0189213
6.73026e-17 0.501741 3.70071e-18 0.014504
0.350249 0.360265 0 0.0125638
0.151552 0.48061 0 0.0193666
0.467897 0.188991 0 0.00778127
0.412065 0.291753 0 0.0104736
0.467897 0.199535 0 0.00784679
0.288433 0.421557 0 0.0158789
0.467897 0.21046 0 0.00791056
0.412065 0.306027 0 0.010482
0.350249 0.377027 0 0.0124388
0.467897 0.221782 3.46945e-18 0.0079722
0.075776 0.51269 0 0.0208171
0.219993 0.470415 3.46945e-18 0.0183216
0.467897 0.227544 0 0.00857079
0.412065 0.320819 -2.31298e-18 0.0104759
0.467897 0.233515 0 0.00803131
6.73026e-17 0.523639 3.70071e-18 0.0145384
0.523729 0 0 0
0.523729 0.00368111 0 2.05071e-06
0.523729 0.00749587 -2.31298e-18 1.07366e-05
0.523729 0.0114491 0 2.81543e-05
0.523729 0.0155459 0 5.47277e-05
0.523729 0.0197915 -2.31298e-18 0.000101164
0.151552 0.501741 0 0.019125
0.523729 0.0241911 0 0.000189467
0.523729 0.0287506 0 0.000332041
0.523729 0.0334755 0 0.000535646
0.523729 0.038372 -3.08149e-33 0.000811272
0.523729 0.0434463 0 0.00116226
0.523729 0.0487048 0 0.00158999
0.523729 0.0541543 0 0.00209423
0.288433 0.440544 0 0.0154048
0.523729 0.0598016 0 0.00267288
0.350249 0.394397 -3.46945e-18 0.0122827
0.523729 0.0656539 0 0.00332162
0.467897 0.245675 0 0.00808752
0.523729 0.0717187 0 0.00403324
0.523729 0.0780037 0 0.00479656
0.523729 0.0845169 0 0.00551934
0.523729 0.0912666 0 0.00593605
0.412065 0.336148 0 0.0104558
0.523729 0.0982613 0 0.00605947
0.523729 0.10551 -2.31298e-18 0.00613487
0.467897 0.258275 -3.46945e-18 0.0081407
0.523729 0.113022 0 0.00621076
0.523729 0.120806 -3.08149e-33 0.00628184
0.219993 0.491176 0 0.0177966
0.523729 0.12484 0 0.00631461
0.523729 0.128874 -2.31298e-18 0.00634738
0.075776 0.534986 0 0.0207449
0.467897 0.271334 3.46945e-18 0.00819124
0.350249 0.412396 -3.46945e-18 0.0121003
0.523729 0.137234 0 0.00640998
0.412065 0.352034 -2.31298e-18 0.0104218
0.288433 0.46022 0 0.0149948
0.523729 0.145897 0 0.00647182
0.151552 0.523639 0 0.0188719
0.523729 0.154876 -3.08149e-33 0.00653266
0 0.546332 0 0.0145273
0.523729 0.159528 0 0.00656236
0.467897 0.284867 -3.46945e-18 0.00823948
0.523729 0.16418 -2.31298e-18 0.00659206
0.523729 0.173822 0 0.00665012
0.412065 0.368496 0 0.0103719
0.523729 0.183814 0 0.00670688
0.467897 0.29889 0 0.0082836
0.350249 0.431051 -3.46945e-18 0.0119061
0.219992 0.51269 0 0.0173222
0.523729 0.194169 0 0.00676239
0.288433 0.48061 0 0.0146408
0.523729 0.2049 0 0.00681667
0.467897 0.313423 3.46945e-18 0.00832178
0.075776 0.558091 0 0.0206251
0.412065 0.385557 0 0.0103031
0.523729 0.21602 -3.08149e-33 0.00686966
0.151552 0.546332 0 0.0186133
0 0.569849 0 0.0144823
0.350249 0.450382 3.46945e-18 0.0117165
0.523729 0.227544 -3.08149e-33 0.00692122
0.467897 0.328483 0 0.00835254
0.523729 0.231525 1.54074e-33 0.00693788
0.574156 0.00184056 0 4.91177e-07
0.574156 0.00558849 0 3.57237e-06
0.574157 0.00947248 0 1.90594e-05
0.574156 0.0134975 -3.46945e-18 3.94576e-05
0.574156 0.0176687 -3.46945e-18 6.79585e-05
0.574156 0.0219913 0 0.000115624
0.574156 0.0264708 -3.46945e-18 0.00021624
0.574156 0.031113 0 0.000359402
0.574156 0.0359238 -3.46945e-18 0.000565509
0.574157 0.0409092 0 0.000839793
0.523729 0.239487 3.70071e-18 0.00697121
0.574156 0.0460755 -3.46945e-18 0.00118451
0.574156 0.0514295 0 0.00160016
0.412065 0.403236 0 0.0102147
0.574157 0.0569779 0 0.00208567
0.574156 0.0627277 0 0.00263761
0.574156 0.0686863 0 0.00325019
0.219992 0.534986 0 0.0168919
0.288433 0.501741 0 0.0143279
0.574156 0.0748612 3.46945e-18 0.00391448
0.574156 0.0812603 0 0.00461659
0.467897 0.344091 0 0.00837471
0.574156 0.0878917 3.46945e-18 0.00504346
0.523729 0.251863 0 0.00701957
0.574157 0.0947639 0 0.00512548
0.574156 0.101886 0 0.00520232
0.574156 0.109266 0 0.00527679
0.574156 0.116914 0 0.0053437
0.412065 0.416977 -6.16298e-33 0.0101375
0.350249 0.470415 0 0.0115441
0.523729 0.264688 0 0.00706639
0.075776 0.582034 0 0.0204729
0.574156 0.12484 0 0.00540469
0.574156 0.133054 3.46945e-18 0.00546148
0.412065 0.421557 -2.31298e-18 0.0101118
0.151552 0.569849 0 0.0183574
0.467897 0.360265 -3.46945e-18 0.00838759
0.574157 0.141566 -3.46945e-18 0.00551512
0.523729 0.27798 0 0.00711184
0.574156 0.150386 3.46945e-18 0.00556651
0 0.594219 0 0.0144113
0.574156 0.159528 -3.46945e-18 0.00561611
0.574156 0.16418 0 0.0058202
0.288433 0.523639 1.2326e-32 0.0140475
0.574157 0.169001 0 0.00566421
0.523729 0.291753 0 0.00715537
0.219993 0.558091 3.46945e-18 0.0165037
0.467897 0.377026 0 0.00839058
0.574156 0.178818 3.46945e-18 0.00571107
0.412065 0.440544 -2.31298e-18 0.0100029
0.350249 0.491175 0 0.0113943
0.574156 0.188992 3.46945e-18 0.00575687
0.523729 0.306027 -3.08149e-33 0.00719579
0.574157 0.199535 0 0.0058018
0.574157 0.21046 0 0.00584599
0.075776 0.606847 0 0.0202989
0.467897 0.394397 0 0.00838296
0.151552 0.594219 0 0.0181098
0.523729 0.320819 0 0.00723191
0.574157 0.221782 -3.46945e-18 0.00588954
0.412065 0.46022 3.08149e-33 0.00989712
0.288433 0.546332 0 0.013796
0 0.619475 0 0.0143206
0.574156 0.233515 3.46945e-18 0.00593255
0.350249 0.51269 3.46945e-18 0.0112645
0.219992 0.582034 3.46945e-18 0.0161581
0.523729 0.336148 0 0.00726271
0.467897 0.412396 0 0.00836431
0.574156 0.245675 0 0.00597511
0.624584 0 0 0
0.624584 0.00368111 0 2.03347e-06
0.624584 0.00749587 0 1.20488e-05
0.624584 0.0114491 0 3.11075e-05
0.624584 0.0155459 0 5.48813e-05
0.624584 0.0197915 0 8.8616e-05
0.624584 0.0241911 -2.31298e-18 0.000150964
0.624584 0.0287506 0 0.000258297
0.624584 0.0334755 0 0.000415352
0.624584 0.038372 0 0.000629938
0.624584 0.0434463 -2.31298e-18 0.000909134
0.624584 0.0487048 0 0.00125459
0.624584 0.0541543 0 0.00166598
0.624584 0.0598016 0 0.00214102
0.624584 0.0656539 0 0.00267494
0.624584 0.0717187 0 0.00326022
0.624584 0.0780037 0 0.00388425
0.574157 0.258276 3.46945e-18 0.00601733
0.624584 0.0845169 0 0.0043415
0.523729 0.352034 0 0.0072874
0.624584 0.0912666 0 0.00451912
0.624584 0.0982613 0 0.00459737
0.412065 0.48061 3.08149e-33 0.00980139
0.624584 0.10551 0 0.00467102
0.624584 0.113022 -2.31298e-18 0.00473827
0.574156 0.271334 0 0.00605925
0.624584 0.120806 0 0.00479909
0.467897 0.431051 0 0.00833578
0.075776 0.632561 -3.46945e-18 0.0201106
0.624584 0.128874 0 0.00485503
0.151552 0.619475 0 0.0178731
0.288433 0.569849 0 0.0135723
0.350249 0.534985 0 0.0111518
0.624584 0.137234 -2.31298e-18 0.00490723
0.523729 0.368496 0 0.00730546
0.574156 0.284866 -3.46945e-18 0.00610074
0.624584 0.145897 0 0.00495646
0.467897 0.440544 0 0.00865409
0.624584 0.154876 0 0.00500336
0.219992 0.606847 -3.46945e-18 0.0158519
0 0.645647 0 0.014215
0.624584 0.16418 -3.08149e-33 0.00504835
0.574156 0.29889 -3.46945e-18 0.00614126
0.624584 0.173822 0 0.00509175
0.412065 0.501741 1.54074e-33 0.00971828
0.467897 0.450382 -3.46945e-18 0.00830076
0.523729 0.385557 0 0.00731641
0.624584 0.183814 0 0.00513386
0.624584 0.194169 0 0.00517492
0.574156 0.313423 0 0.0061801
0.624584 0.2049 0 0.00521511
0.350249 0.558091 3.46945e-18 0.0110539
0.288433 0.594219 0 0.0133748
0.624584 0.21602 0 0.0052546
0.523729 0.403236 0 0.00731979
0.574156 0.328483 -3.46945e-18 0.00621646
0.151552 0.645647 0 0.0176484
0.467897 0.470415 3.46945e-18 0.00826419
0.075776 0.659208 0 0.0199132
0.624584 0.227544 0 0.00529355
0.412065 0.523639 0 0.00964752
0.523729 0.41545 3.08149e-33 0.00731704
0.624584 0.239487 3.70071e-18 0.00533206
0.574156 0.344091 0 0.00624965
0.219992 0.632561 0 0.0155814
0.67013 0.00184055 0 4.07734e-07
0.67013 0.00558849 0 3.66249e-06
0.67013 0.00947248 0 2.18121e-05
0.67013 0.0134975 0 4.38755e-05
0.67013 0.0176687 -3.46945e-18 6.80911e-05
0.67013 0.0219913 0 0.00010318
0.67013 0.0264708 3.46945e-18 0.000170643
0.67013 0.0311131 0 0.000290516
0.67013 0.0359237 0 0.000451747
0.67013 0.0409092 -3.46945e-18 0.000671602
0.67013 0.0460755 0 0.000953239
0.67013 0.0514296 3.46945e-18 0.00129729
0.523729 0.421557 -2.31298e-18 0.00731567
0.67013 0.056978 0 0.00170245
0 0.67277 0 0.0140984
0.67013 0.0627277 0 0.00216533
0.624584 0.251863 0 0.00537027
0.67013 0.0686863 0 0.00267952
0.67013 0.0748612 3.46945e-18 0.00323605
0.67013 0.0812603 0 0.0038165
0.67013 0.0878917 0 0.00394911
0.67013 0.0947639 3.46945e-18 0.00402742
0.574156 0.360265 0 0.00627912
0.67013 0.101886 0 0.00410339
0.523729 0.431051 0 0.0073105
0.624584 0.264688 0 0.00540825
0.467897 0.491175 0 0.00823077
0.67013 0.109266 3.46945e-18 0.00417091
0.350249 0.582034 0 0.0109693
0.67013 0.116914 0 0.00423143
0.67013 0.12484 0 0.00428665
0.67013 0.133054 0 0.00433774
0.288433 0.619475 0 0.0132018
0.624584 0.27798 -3.08149e-33 0.00544596
0.412065 0.546332 1.54074e-33 0.00958827
0.523729 0.440544 -3.08149e-33 0.00730533
0.67013 0.141566 3.46945e-18 0.00438533
0.685312 0.0241911 -7.70372e-34 0.000136215
0.685312 0.0434463 -7.70372e-34 0.000796866
0.67013 0.150387 0 0.00443005
0.574156 0.377026 -3.46945e-18 0.00630457
0.67013 0.159528 0 0.00447236
0.624584 0.291753 0 0.0054832
0.151552 0.67277 0 0.0174357
0.075776 0.686823 0 0.0197106
0.67013 0.169001 0 0.00451272
0.67013 0.178818 0 0.00455149
0.467897 0.51269 0 0.00820329
0.685312 0.113022 -7.70372e-34 0.00413187
0.219992 0.659208 0 0.0153428
0.624584 0.306027 0 0.00551958
0.67013 0.188991 0 0.00458898
0.574156 0.394397 3.46945e-18 0.00632565
0.523729 0.46022 0 0.00729131
0.685312 0.137234 -7.70372e-34 0.00429184
0.67013 0.199535 -3.46945e-18 0.00462545
0.350249 0.606847 0 0.0108969
0 0.700877 0 0.013974
0.624584 0.320819 0 0.00555458
0.67013 0.21046 0 0.00466112
0.412065 0.569849 -2.31298e-18 0.00953957
0.67013 0.221782 -3.46945e-18 0.00469618
0.574157 0.412396 0 0.00634203
0.288433 0.645647 0 0.0130514
0.624584 0.336148 -3.08149e-33 0.00558768
0.67013 0.233515 3.46945e-18 0.00473081
0.467897 0.534986 0 0.00818302
0.523729 0.48061 0 0.00727691
0.624584 0.344091 0 0.00560305
0.67013 0.245675 0 0.00476516
0.715676 4.54095e-19 0 6.21953e-23
0.715676 0.00368111 0 2.03995e-06
0.715676 0.00749587 0 1.34565e-05
0.715676 0.0114491 0 3.47902e-05
0.715676 0.0155459 0 5.80369e-05
0.715676 0.0197915 0 8.52218e-05
0.715676 0.0241911 0 0.000128841
0.715676 0.0287506 0 0.000211765
0.715676 0.0334755 0 0.000339671
0.715676 0.038372 0 0.000512345
0.624584 0.352034 -2.31298e-18 0.00561842
0.715676 0.0434463 0 0.000740732
0.151552 0.700877 0 0.017235
0.715676 0.0487048 0 0.00102792
0.715676 0.0541543 0 0.00137368
0.574156 0.43105 0 0.00635368
0.715676 0.0598016 0 0.00177563
0.67013 0.258275 0 0.00479932
0.715676 0.0656539 0 0.0022288
0.715676 0.0717187 0 0.00272524
0.075776 0.715441 0 0.0195057
0.715676 0.0780037 0 0.00322457
0.715676 0.0845169 0 0.00352327
0.219992 0.686824 0 0.0151321
0.715676 0.0912666 0 0.00361979
0.715676 0.0982613 0 0.00369628
0.67013 0.271334 -3.46945e-18 0.00483334
0.350249 0.632561 -3.46945e-18 0.0108367
0.412065 0.594219 3.08149e-33 0.00950065
0.715676 0.10551 0 0.00376633
0.715676 0.113022 0 0.00382867
0.624584 0.368496 0 0.00564643
0.523729 0.501741 0 0.00726504
0.715676 0.120806 0 0.00388495
0.715676 0.128874 0 0.00393648
0.67013 0.284867 0 0.00486718
0.467897 0.558091 3.46945e-18 0.00817022
0.715676 0.137234 0 0.00398415
0.574156 0.450382 0 0.00636125
0 0.730005 0 0.0138446
0.715676 0.145897 0 0.00402858
0.288433 0.67277 0 0.0129214
0.715676 0.154876 0 0.00407029
0.67013 0.29889 0 0.0049007
0.624584 0.385557 0 0.00567145
0.715676 0.16418 -9.25187e-19 0.00410975
0.715676 0.173822 0 0.00414733
0.715676 0.183814 0 0.00418339
0.67013 0.313423 0 0.00493366
0.523729 0.523639 0 0.00725766
0.715676 0.194169 0 0.00421819
0.574156 0.470415 3.46945e-18 0.00636623
0.624584 0.403236 0 0.00569322
0.743101 0.0241911 -7.70372e-34 0.000125264
0.412065 0.619475 3.08149e-33 0.00947115
0.715676 0.2049 0 0.00425199
0.151552 0.730005 0 0.0170461
0.67013 0.328484 3.46945e-18 0.00496575
0.350249 0.659208 0 0.0107885
0.467897 0.582034 0 0.00816457
0.715676 0.21602 0 0.004285
0.219992 0.715441 0 0.0149462
0.075776 0.745097 -3.46945e-18 0.0193014
0.715676 0.227544 0 0.0043174
0.67013 0.344091 0 0.00499663
0.624584 0.421557 0 0.00571156
0.743101 0.128874 -7.70372e-34 0.00373088
0.715676 0.239487 3.70071e-18 0.00434936
0.574156 0.491175 0 0.00637079
0.756814 0.00184055 0 3.44674e-07
0.523729 0.546332 0 0.00725584
0.756813 0.00558849 0 3.74448e-06
0.756813 0.00947248 0 2.45268e-05
0.756814 0.0134975 -3.46945e-18 4.87278e-05
0.756814 0.0155459 0 6.02278e-05
0.756814 0.0176687 0 7.12225e-05
0.756814 0.0219913 0 9.84415e-05
0.756814 0.0264709 0 0.000144014
0.756814 0.031113 -3.46945e-18 0.000244014
0.756813 0.0359238 -3.46945e-18 0.000375966
0.288433 0.700877 0 0.0128103
0.756814 0.0409092 -3.46945e-18 0.00055564
0.756813 0.0460755 3.46945e-18 0.000790547
0.756813 0.0514296 0 0.00108161
0.715676 0.251863 0 0.004381
0.756813 0.0569779 0 0.00142762
0.756814 0.0627277 -3.46945e-18 0.00182498
0.756814 0.0686863 -3.46945e-18 0.00226722
0 0.76019 0 0.0137127
0.756814 0.0748612 0 0.00274443
0.67013 0.360265 3.46945e-18 0.005026
0.756814 0.0812603 -3.46945e-18 0.00313534
0.756814 0.0878917 -3.46945e-18 0.00323263
0.756814 0.0947639 -3.46945e-18 0.00331149
0.715676 0.264688 0 0.0044124
0.756813 0.101886 0 0.00338436
0.624584 0.440544 0 0.00572662
0.756813 0.109266 3.46945e-18 0.00344841
0.756813 0.116914 3.46945e-18 0.00350584
0.412065 0.645647 0 0.00945099
0.467897 0.606847 0 0.00816577
0.756814 0.120806 0 0.00357739
0.756813 0.12484 0 0.00355794
0.715676 0.27798 0 0.00444357
0.756814 0.133054 -3.46945e-18 0.00360581
0.67013 0.377026 -3.46945e-18 0.00505361
0.756814 0.137234 0 0.00367485
0.574156 0.51269 0 0.00637704
0.756813 0.141566 3.46945e-18 0.00365014
0.685312 0.352034 -7.70372e-34 0.0049345
0.743101 0.2049 -7.70372e-34 0.00403983
0.350249 0.686824 0 0.0107522
0.756814 0.150387 0 0.0036914
0.756814 0.154876 0 0.00375896
0.715676 0.291753 0 0.00447449
0.756814 0.159528 -3.46945e-18 0.00373014
0.523729 0.569849 0 0.00725995
0.72743 0.264688 0 0.00431867
0.756814 0.16418 0 0.00379726
0.151552 0.76019 0 0.0168689
0.756813 0.169001 3.46945e-18 0.00376674
0.624584 0.46022 0 0.00573909
0.219993 0.745097 0 0.0147824
0.67013 0.394396 0 0.00507925
0.756813 0.178818 -3.46945e-18 0.00380156
0.715676 0.306027 0 0.00450505
0.075776 0.775831 0 0.0191001
0.756813 0.188991 0 0.0038349
0.756814 0.199535 0 0.00386703
0.715676 0.320819 0 0.00453505
0.574156 0.534985 0 0.00638667
0.288433 0.730005 0 0.0127165
0.756813 0.21046 0 0.00389819
0.467897 0.632561 0 0.00817371
0.67013 0.412396 -3.46945e-18 0.00510272
0.624584 0.48061 -3.08149e-33 0.00575022
0.756814 0.221782 0 0.00392857
0.412065 0.67277 3.08149e-33 0.0094402
0.715676 0.336148 0 0.0045643
0 0.791472 0 0.0135806
0.756813 0.233516 3.46945e-18 0.00395836
0.523729 0.594219 0 0.00726999
0.624584 0.487654 1.54074e-33 0.00575402
0.756814 0.245675 3.46945e-18 0.00398769
0.350249 0.715441 3.46945e-18 0.0107274
0.67013 0.43105 0 0.00512393
0.715676 0.352034 -9.25187e-19 0.00459254
0.797951 9.08189e-19 -3.08149e-33 1.07843e-22
0.797951 0.00368111 2.31298e-18 2.04458e-06
0.797951 0.00749587 2.31298e-18 1.4831e-05
0.797951 0.0114491 2.31298e-18 3.86486e-05
0.797951 0.0141803 7.70372e-34 5.44953e-05
0.797951 0.0155459 0 6.24187e-05
0.797951 0.0169611 7.70372e-34 7.02112e-05
0.797951 0.0197915 2.31298e-18 8.57964e-05
0.797951 0.0219913 0 0.000101954
0.797951 0.0241911 3.08149e-33 0.000118111
0.797951 0.0264709 0 0.000149154
0.797951 0.0287506 -3.08149e-33 0.000180198
0.797951 0.0334755 2.31298e-18 0.000285611
0.797951 0.038372 2.31298e-18 0.000430736
0.797951 0.0434463 2.31298e-18 0.000620615
0.797951 0.0487048 0 0.000863598
0.756813 0.258275 -3.46945e-18 0.00401666
0.797951 0.0541543 2.31298e-18 0.00115982
0.797951 0.0598016 2.31298e-18 0.00150688
0.797951 0.0656539 2.31298e-18 0.00189975
0.574156 0.55809 0 0.00640072
0.624584 0.501741 0 0.00576162
0.797951 0.0717187 2.31298e-18 0.00233012
0.797951 0.0780037 -3.08149e-33 0.00271225
0.797951 0.0845169 2.31298e-18 0.00291995
0.797951 0.0912666 -3.08149e-33 0.00300911
0.797951 0.0982613 2.31298e-18 0.00308587
0.756813 0.271334 0 0.00404534
0.797951 0.10551 2.31298e-18 0.00315435
0.715676 0.368496 0 0.00461957
0.151552 0.791472 0 0.0167038
0.797951 0.113022 2.31298e-18 0.00321509
0.219992 0.775831 3.46945e-18 0.0146386
0.797951 0.118211 7.70372e-34 0.00325158
0.770526 0.239487 1.54074e-33 0.00391766
0.797951 0.120806 0 0.00326983
0.67013 0.450382 3.46945e-18 0.00514299
0.797951 0.128874 3.08149e-33 0.00331969
0.467897 0.659208 0 0.00818851
0.756813 0.284866 -3.46945e-18 0.00407377
0.743101 0.320819 -7.70372e-34 0.00431023
0.797951 0.137234 0 0.00336555
0.797951 0.141566 0 0.0033868
0.797951 0.145897 -9.25187e-19 0.00340804
0.523729 0.619475 0 0.00728592
0.075776 0.807681 0 0.018904
0.797951 0.150387 0 0.00342784
0.797951 0.154876 0 0.00344763
0.715676 0.385557 0 0.00464521
0.412065 0.700877 3.08149e-33 0.0094388
0.288433 0.76019 0 0.0126386
0.756813 0.29889 0 0.00410193
0.797951 0.16418 0 0.00348477
0.624584 0.523639 0 0.00577484
0.797951 0.167394 7.70372e-34 0.00349645
0.797951 0.173822 2.31298e-18 0.00351982
0.574156 0.582034 0 0.00641962
0.67013 0.470415 0 0.00516038
0.797951 0.183814 2.31298e-18 0.00355311
0.756813 0.313423 -3.46945e-18 0.00412976
0.797951 0.194169 -9.25187e-19 0.00358493
0.715676 0.403236 0 0.0046693
0.151552 0.807681 0 0.0166275
0.797951 0.197746 -7.70372e-34 0.00359512
0.350249 0.745097 0 0.0107142
0.797951 0.2049 3.08149e-33 0.00361551
0 0.823889 0 0.0134505
0.756813 0.328483 -3.46945e-18 0.00415715
0.797951 0.21046 0 0.00363029
0.797951 0.21602 -3.08149e-33 0.00364507
0.797951 0.223703 7.70372e-34 0.00366421
0.797951 0.227544 9.25187e-19 0.00367378
0.624584 0.546332 0 0.00579112
0.715676 0.421557 0 0.00469173
0.67013 0.491176 -3.46945e-18 0.00517709
0.797951 0.231525 7.70372e-34 0.00368312
0.467897 0.686824 -3.46945e-18 0.00821041
0.523729 0.645647 0 0.00730779
0.756813 0.344091 -3.46945e-18 0.00418395
0.822721 0.120806 7.70372e-34 0.0031223
0.797951 0.239487 -3.08149e-33 0.00370181
0.822721 0.137234 7.70372e-34 0.00321794
0.835106 0.00184056 0 2.9616e-07
0.835106 0.00558849 0 3.79316e-06
0.835106 0.00947248 0 2.71887e-05
0.835106 0.0134975 0 5.3944e-05
0.835107 0.0176687 0 7.55296e-05
0.835106 0.0219913 -3.46945e-18 9.78938e-05