# nutMean  POINT_DATA 63840
# x  y  z  nutMean
0 0.5 3.39583e-17 0.0144968
0 0.5 -0.00617931 0.0145548
0 0.5 0.00617931 0.0144432
0.0124865 0.5 -0.00617931 0.0156259
0.0124865 0.5 0.00617931 0.0154637
0 0.5 -0.0688207 0.0151058
0 0.5 0.0688207 0.0138827
0.0124865 0.5 -0.0688207 0.016177
0.0124865 0.5 0.0688207 0.0149032
0 0.5 -0.075 0.0151569
0 0.5 0.075 0.0138255
0 0.5 -0.0811793 0.0152129
0 0.5 0.0811793 0.0137723
0.0124865 0.5 -0.0811793 0.0163311
0.0124865 0.5 0.0811793 0.0147395
0.075776 0.5 -0.0375 0.0213076
0.075776 0.5 0.0375 0.0203304
0.075776 0.5 -0.1125 0.022235
0.075776 0.5 0.1125 0.0193441
0 0.5 -0.143821 0.0157228
0 0.5 0.143821 0.0132325
0.0124865 0.5 -0.143821 0.016841
0.0124865 0.5 0.143821 0.0141997
0 0.5 -0.15 0.0157682
0 0.5 0.15 0.0131795
0.151149 0.5 -0.00137318 0.0191394
0 0.5 -0.156179 0.0158191
0 0.5 0.156179 0.0131294
0.0124865 0.5 -0.156179 0.017004
0.0124865 0.5 0.156179 0.0140455
0.151149 0.5 0.075 0.0183759
0.151149 0.5 -0.075 0.0197501
0.075776 0.5 -0.1875 0.0232023
0.075776 0.5 0.1875 0.018415
0.151149 0.5 0.15 0.0176036
0.151149 0.5 -0.15 0.0202913
0 0.5 -0.218821 0.0161817
0 0.5 0.218821 0.0126329
0.0124865 0.5 -0.218821 0.0173666
0.0124865 0.5 0.218821 0.013549
0.219992 0.5 0.0375 0.0173202
0.219993 0.5 -0.0375 0.0178838
0 0.5 -0.225 0.0162026
0 0.5 0.225 0.0125857
0 0.5 -0.231179 0.0162296
0 0.5 0.231179 0.0125396
0.0124865 0.5 -0.231179 0.0173841
0.0124865 0.5 0.231179 0.0134089
0.219992 0.5 0.1125 0.0167074
0.219993 0.5 -0.1125 0.0178474
0.151149 0.5 -0.225 0.0206951
0.151149 0.5 0.225 0.0168731
0.075776 0.5 -0.2625 0.0233198
0.075776 0.5 0.2625 0.0175713
0.288069 0.5 -0.00137318 0.0143832
0.219992 0.5 0.1875 0.0161207
0.219993 0.5 -0.1875 0.0182072
0 0.5 0.293821 0.0120993
0 0.5 -0.293821 0.0164432
0.0124865 0.5 -0.293821 0.0175977
0.0124865 0.5 0.293821 0.0129686
0.288069 0.5 -0.075 0.0145357
0.288069 0.5 0.075 0.0140822
0 0.5 -0.3 0.016458
0 0.5 0.3 0.0120593
0 0.5 0.306179 0.0120188
0 0.5 -0.306179 0.0164795
0.0124865 0.5 -0.306179 0.017636
0.0124865 0.5 0.306179 0.0128473
0.288069 0.5 -0.15 0.0146616
0.288069 0.5 0.15 0.0137918
0.151149 0.5 -0.3 0.0208645
0.151149 0.5 0.3 0.0162003
0.219992 0.5 -0.2625 0.0183964
0.219992 0.5 0.2625 0.0155366
0.075776 0.5 0.3375 0.016837
0.075776 0.5 -0.3375 0.0235481
0.350249 0.5 -0.0375 0.0113807
0.350249 0.5 0.0375 0.0113014
0.288069 0.5 -0.225 0.014856
0.288069 0.5 0.225 0.0134754
0.350249 0.5 0.1125 0.0113695
0.350249 0.5 -0.1125 0.0114504
0 0.5 0.368821 0.0116424
0 0.5 -0.368821 0.0166064
0.0124865 0.5 -0.368821 0.0177629
0.0124865 0.5 0.368821 0.0124709
0 0.5 -0.375 0.0166093
0 0.5 0.375 0.0116092
0 0.5 -0.381179 0.0166192
0 0.5 0.381179 0.0115756
0.0124865 0.5 -0.381179 0.0178128
0.0124865 0.5 0.381179 0.0123704
0.350249 0.5 -0.1875 0.0115657
0.350249 0.5 0.1875 0.0113003
0.219992 0.5 -0.3375 0.0185398
0.219992 0.5 0.3375 0.0149911
0.151149 0.5 -0.375 0.0211308
0.151149 0.5 0.375 0.015605
0.411736 0.5 -0.00137318 0.00974317
0.288069 0.5 -0.3 0.0150087
0.288069 0.5 0.3 0.013176
0.411736 0.5 -0.075 0.00978059
0.411736 0.5 0.075 0.00973424
0.075776 0.5 -0.4125 0.0238604
0.075776 0.5 0.4125 0.0162213
0.350249 0.5 -0.2625 0.011689
0.350249 0.5 0.2625 0.0112405
0.411736 0.5 -0.15 0.00985551
0.411736 0.5 0.15 0.0097592
0 0.5 -0.443821 0.0165752
0 0.5 0.443821 0.011264
0.0124865 0.5 -0.443821 0.0177688
0.0124865 0.5 0.443821 0.0120589
0 0.5 -0.45 0.0165558
0 0.5 0.45 0.0112368
0 0.5 -0.456179 0.0165424
0 0.5 0.456179 0.0112095
0.0124865 0.5 -0.456179 0.0177097
0.0124865 0.5 0.456179 0.0119768
0.219992 0.5 -0.4125 0.0189215
0.219993 0.5 0.4125 0.014494
0.411736 0.5 -0.225 0.00995995
0.411736 0.5 0.225 0.00976627
0.467897 0.5 0.0375 0.00821756
0.467897 0.5 -0.0375 0.00822144
0.288069 0.5 -0.375 0.0152536
0.288069 0.5 0.375 0.0129045
0.151149 0.5 -0.45 0.0211725
0.151149 0.5 0.45 0.0150937
0.467897 0.5 -0.1125 0.00826315
0.467897 0.5 0.1125 0.00823791
0.350249 0.5 0.3375 0.0111989
0.350249 0.5 -0.3375 0.0118459
0.075776 0.5 -0.4875 0.0235156
0.075776 0.5 0.4875 0.0157183
0.467897 0.5 -0.1875 0.00833823
0.467897 0.5 0.1875 0.00831544
0.411736 0.5 -0.3 0.0100888
0.411736 0.5 0.3 0.00978076
0 0.5 -0.518821 0.0163375
0 0.5 0.518821 0.0109623
0.0124865 0.5 0.518821 0.0117296
0.0124865 0.5 -0.518821 0.0175048
0.523432 0.5 -0.00137318 0.00727724
0 0.5 -0.525 0.0163107
0 0.5 0.525 0.0109412
0.523432 0.5 -0.075 0.00728911
0.523432 0.5 0.075 0.00728432
0 0.5 -0.531179 0.0162868
0 0.5 0.531179 0.01092
0.0124865 0.5 -0.531179 0.0174227
0.0124865 0.5 0.531179 0.0116655
0.288069 0.5 -0.45 0.015413
0.288069 0.5 0.45 0.0126644
0.219992 0.5 -0.4875 0.0187311
0.219993 0.5 0.4875 0.0140581
0.467897 0.5 -0.2625 0.00844411
0.467897 0.5 0.2625 0.00838665
0.350249 0.5 -0.4125 0.0121457
0.350249 0.5 0.4125 0.0111656
0.523432 0.5 -0.15 0.00734318
0.523432 0.5 0.15 0.00733223
0.151149 0.5 -0.525 0.0208781
0.151149 0.5 0.525 0.0146707
0.411736 0.5 -0.375 0.0102931
0.411736 0.5 0.375 0.0098094
0.075776 0.5 -0.5625 0.023031
0.075776 0.5 0.5625 0.0153299
0.523432 0.5 -0.225 0.00742837
0.523432 0.5 0.225 0.00740494
0.574156 0.5 -0.0375 0.00637139
0.574156 0.5 0.0375 0.00637531
0.467897 0.5 0.3375 0.0084671
0.467897 0.5 -0.3375 0.00857471
0.574156 0.5 -0.1125 0.00640536
0.574156 0.5 0.1125 0.00641029
0 0.5 -0.593821 0.0160054
0 0.5 0.593821 0.0107355
0.0124865 0.5 -0.593821 0.0171413
0.0124865 0.5 0.593821 0.011481
0.288069 0.5 -0.525 0.0154087
0.288069 0.5 0.525 0.0124615
0 0.5 -0.6 0.0159744
0 0.5 0.6 0.0107208
0.350249 0.5 -0.4875 0.0122842
0.350249 0.5 0.4875 0.0111431
0.523432 0.5 -0.3 0.00753972
0.523432 0.5 0.3 0.00749199
0.219992 0.5 -0.5625 0.0185557
0.219992 0.5 0.5625 0.0136896
0.574156 0.5 -0.1875 0.00647134
0.574156 0.5 0.1875 0.00646919
0 0.5 -0.606179 0.0159425
0 0.5 0.606179 0.0107053
0.0124865 0.5 -0.606179 0.0170431
0.0124865 0.5 0.606179 0.0114352
0.411736 0.5 -0.45 0.0105079
0.411736 0.5 0.45 0.00985215
0.151149 0.5 -0.6 0.0205205
0.151149 0.5 0.6 0.014337
0.62168 0.5 2.64545e-17 0.00580022
0.467897 0.5 0.4125 0.00856837
0.467897 0.5 -0.4125 0.00880747
0.624316 0.5 0.0729402 0.00578038
0.624316 0.5 -0.075 0.0057793
0.574156 0.5 -0.2625 0.00656572
0.574157 0.5 0.2625 0.00655258
0.075776 0.5 -0.6375 0.0224501
0.075776 0.5 0.6375 0.0150494
0.624316 0.5 -0.15 0.00582766
0.624316 0.5 0.15 0.00582566
0.523432 0.5 -0.375 0.00770768
0.523432 0.5 0.375 0.0075974
0.350249 0.5 -0.5625 0.0124718
0.350249 0.5 0.5625 0.0111334
0.624316 0.5 -0.225 0.00590436
0.624316 0.5 0.225 0.00589484
0.288069 0.5 0.6 0.012299
0.288069 0.5 -0.6 0.0154166
0.574156 0.5 -0.3375 0.00668103
0.574156 0.5 0.3375 0.00666451
0.411736 0.5 -0.525 0.0106967
0.411736 0.5 0.525 0.00990836
0 0.5 -0.668821 0.0156253
0 0.5 0.668821 0.0105819
0.0124865 0.5 -0.668821 0.0167259
0.0124865 0.5 0.668821 0.0113118
0.67013 0.5 0.0375 0.00518349
0.67013 0.5 -0.0375 0.00518481
0.219993 0.5 -0.6375 0.0183413
0.219993 0.5 0.6375 0.0133916
0 0.5 -0.675 0.0155951
0 0.5 0.675 0.0105739
0.467897 0.5 0.4875 0.00868556
0.467897 0.5 -0.4875 0.00899644
0.67013 0.5 -0.1125 0.00521743
0.67013 0.5 0.1125 0.00521457
0 0.5 -0.681179 0.0155624
0 0.5 0.681179 0.0105644
0.0124865 0.5 -0.681179 0.0166311
0.0124865 0.5 0.681179 0.0112851
0.523432 0.5 -0.45 0.00790888
0.523432 0.5 0.45 0.00772072
0.151149 0.5 -0.675 0.0201289
0.151149 0.5 0.675 0.014093
0.624316 0.5 -0.3 0.00600539
0.624316 0.5 0.3 0.00598908
0.67013 0.5 0.1875 0.00527091
0.67013 0.5 -0.1875 0.00527843
0.574156 0.5 -0.4125 0.00687572
0.574157 0.5 0.4125 0.00679092
0.708171 0.5 1.88651e-17 0.00483596
0.075776 0.5 -0.7125 0.0218714
0.075776 0.5 0.7125 0.0148801
0.715434 0.5 0.0736268 0.0047897
0.715434 0.5 -0.075 0.00478684
0.67013 0.5 0.2625 0.00534921
0.67013 0.5 -0.2625 0.0053642
0.350249 0.5 -0.6375 0.0126798
0.350249 0.5 0.6375 0.0111377
0.411736 0.5 -0.6 0.0109237
0.411736 0.5 0.6 0.00997789
0.624316 0.5 -0.375 0.00615171
0.624316 0.5 0.375 0.00610382
0.715434 0.5 -0.15 0.00483257
0.715434 0.5 0.15 0.00482042
0.467897 0.5 -0.5625 0.00923321
0.467897 0.5 0.5625 0.00881691
0.288069 0.5 -0.675 0.0154261
0.288069 0.5 0.675 0.0121786
0.523432 0.5 -0.525 0.00812054
0.523432 0.5 0.525 0.00786146
0 0.5 -0.743821 0.0152455
0 0.5 0.743821 0.0105015
0.0124865 0.5 -0.743821 0.0163142
0.0124865 0.5 0.743821 0.0112222
0.219992 0.5 0.7125 0.0131654
0.219992 0.5 -0.7125 0.018123
0.715434 0.5 -0.225 0.00490373
0.715434 0.5 0.225 0.00488387
0 0.5 -0.75 0.0152165
0 0.5 0.75 0.0104984
0.67013 0.5 0.3375 0.00545291
0.67013 0.5 -0.3375 0.00547325
0.574156 0.5 -0.4875 0.00706518
0.574156 0.5 0.4875 0.0069378
0 0.5 -0.756179 0.0151857
0 0.5 0.756179 0.0104954
0.0124865 0.5 -0.756179 0.0162259
0.0124865 0.5 0.756179 0.0112123
0.756813 0.5 -0.0375 0.00437572
0.756813 0.5 0.0375 0.00436998
0.151149 0.5 -0.75 0.0197472
0.151149 0.5 0.75 0.0139376
0.756813 0.5 -0.1125 0.00440775
0.756813 0.5 0.1125 0.00439334
0.624316 0.5 -0.45 0.00633417
0.624316 0.5 0.45 0.00623731
0.715434 0.5 -0.3 0.00500073
0.715434 0.5 0.3 0.00497006
0.756813 0.5 0.1875 0.004442
0.756813 0.5 -0.1875 0.00446509
0.67013 0.5 -0.4125 0.00564037
0.67013 0.5 0.4125 0.00557029
0.411736 0.5 -0.675 0.011181
0.411736 0.5 0.675 0.0100607
0.467897 0.5 0.6375 0.00896055
0.467897 0.5 -0.6375 0.00950553
0.075776 0.5 -0.7875 0.0213228
0.075776 0.5 0.7875 0.0148162
0.350249 0.5 -0.7125 0.0129144
0.350249 0.5 0.7125 0.0111583
0.523432 0.5 -0.6 0.00837271
0.523432 0.5 0.6 0.00801759
0.797732 0.5 2.68882e-17 0.004079
0.756813 0.5 -0.2625 0.00454581
0.756814 0.5 0.2625 0.00451285
0.797732 0.5 0.0736268 0.00408917
0.797732 0.5 -0.075 0.00409789
0.288069 0.5 -0.75 0.0154507
0.288069 0.5 0.75 0.0121019
0.574156 0.5 -0.5625 0.00729679
0.574157 0.5 0.5625 0.00710353
0.715434 0.5 -0.375 0.00513132
0.715434 0.5 0.375 0.00507602
0.797732 0.5 -0.15 0.00414199
0.797732 0.5 0.15 0.00411918
0.624316 0.5 -0.525 0.00653855
0.624316 0.5 0.525 0.00639253
0.219992 0.5 -0.7875 0.0179178
0.219992 0.5 0.7875 0.0130086
0 0.5 -0.818821 0.0148891
0 0.5 0.818821 0.010477
0.0124865 0.5 0.818821 0.011194
0.0124865 0.5 -0.818821 0.0159294
0 0.5 -0.825 0.0148624
0 0.5 0.825 0.0104742
0.756813 0.5 0.3375 0.00460522
0.756814 0.5 -0.3375 0.00465829
0.67013 0.5 -0.4875 0.00581992
0.67013 0.5 0.4875 0.00571391
0.797732 0.5 -0.225 0.00420966
0.797732 0.5 0.225 0.0041751
0 0.5 -0.831179 0.0148349
0 0.5 0.831179 0.0104732
0.0124865 0.5 -0.831179 0.0158507
0.0124865 0.5 0.831179 0.0111833
0.835106 0.5 0.0375 0.003794
0.835106 0.5 -0.0375 0.00380089
0.151149 0.5 -0.825 0.0193986
0.151149 0.5 0.825 0.0138494
0.835106 0.5 0.1125 0.00381264
0.835106 0.5 -0.1125 0.00383176
0.715434 0.5 -0.45 0.00529297
0.715434 0.5 0.45 0.00520073
0.797732 0.5 -0.3 0.00430167
0.797732 0.5 0.3 0.00425195
0.467897 0.5 0.7125 0.00911493
0.467897 0.5 -0.7125 0.00981586
0.523432 0.5 -0.675 0.00866214
0.523432 0.5 0.675 0.00818705
0.411736 0.5 -0.75 0.0114691
0.411736 0.5 0.75 0.010158
0.835106 0.5 -0.1875 0.00388797
0.835106 0.5 0.1875 0.00385371
0.574156 0.5 -0.6375 0.00756507
0.574157 0.5 0.6375 0.0072853
0.350249 0.5 -0.7875 0.0131718
0.350249 0.5 0.7875 0.0111996
0.756813 0.5 -0.4125 0.0047927
0.756814 0.5 0.4125 0.00471604
0.075776 0.5 -0.8625 0.020834
0.075776 0.5 0.8625 0.0147827
0.624316 0.5 0.6 0.00656643
0.624316 0.5 -0.6 0.00678091
0.872064 0.5 5.91974e-17 0.00356745
0.870122 0.5 0.075 0.00358657
0.288069 0.5 -0.825 0.0154976
0.288069 0.5 0.825 0.0120666
0.67013 0.5 -0.5625 0.00603748
0.67013 0.5 0.5625 0.00587866
0.872064 0.5 -0.075 0.00358687
0.835106 0.5 -0.2625 0.00396446
0.835106 0.5 0.2625 0.00391717
0.797732 0.5 -0.375 0.00441516
0.797732 0.5 0.375 0.00434917
0.872064 0.5 0.14794 0.00359882
0.872064 0.5 -0.15 0.00363113
0.715434 0.5 -0.525 0.00548411
0.715434 0.5 0.525 0.00534775
0.219992 0.5 0.8625 0.0129146
0.219993 0.5 -0.8625 0.0177434
0 0.5 -0.893821 0.0145779
0 0.5 0.893821 0.0104831
0.0124865 0.5 -0.893821 0.0155937
0.0124865 0.5 0.893821 0.0111933
0 0.5 -0.9 0.0145554
0 0.5 0.9 0.0104853
0.756813 0.5 -0.4875 0.00495934
0.756813 0.5 0.4875 0.0048436
0.872064 0.5 -0.225 0.00369589
0.872064 0.5 0.225 0.00364702
0.835106 0.5 -0.3375 0.00406322
0.835106 0.5 0.3375 0.0039983
0 0.5 0.906179 0.010487
0 0.5 -0.906179 0.0145319
0.0124865 0.5 -0.906179 0.0155282
0.0124865 0.5 0.906179 0.0111931
0.90582 0.5 -0.0375 0.00335025
0.90582 0.5 0.0375 0.00334192
0.151149 0.5 -0.9 0.019105
0.151149 0.5 0.9 0.0138017
0.90582 0.5 -0.1125 0.00338179
0.905821 0.5 0.1125 0.00335638
0.523432 0.5 -0.75 0.00898884
0.523432 0.5 0.75 0.00836868
0.574156 0.5 -0.7125 0.00787213
0.574156 0.5 0.7125 0.00748111
0.797732 0.5 -0.45 0.00455795
0.797732 0.5 0.45 0.00446194
0.467897 0.5 0.7875 0.00928012
0.467897 0.5 -0.7875 0.0101609
0.624316 0.5 -0.675 0.00706018
0.624316 0.5 0.675 0.00675655
0.411736 0.5 -0.825 0.0117858
0.411736 0.5 0.825 0.0102695
0.872064 0.5 0.3 0.00371513
0.872064 0.5 -0.3 0.00377627
0.67013 0.5 -0.6375 0.00629026
0.67013 0.5 0.6375 0.00606201
0.90582 0.5 0.1875 0.00339015
0.905821 0.5 -0.1875 0.00344012
0.350249 0.5 -0.8625 0.013452
0.350249 0.5 0.8625 0.0112563
0.835106 0.5 -0.4125 0.00417235
0.835106 0.5 0.4125 0.00410321
0.715434 0.5 -0.6 0.00571046
0.715434 0.5 0.6 0.00551632
0.939201 0.5 2.75387e-17 0.00323696
0.075776 0.5 0.9375 0.0147878
0.075776 0.5 -0.9375 0.0204372
0.939111 0.5 0.075 0.0032423
0.939201 0.5 -0.075 0.00325566
0.756813 0.5 0.5625 0.00499644
0.756814 0.5 -0.5625 0.00516082
0.90582 0.5 0.2625 0.00344495
0.905821 0.5 -0.2625 0.00350827
0.288069 0.5 -0.9 0.015573
0.288069 0.5 0.9 0.012063
0.872064 0.5 -0.375 0.0038715
0.872064 0.5 0.375 0.00380257
0.939201 0.5 0.148627 0.00326686
0.939201 0.5 -0.15 0.00329973
0.797732 0.5 -0.525 0.00473698
0.797732 0.5 0.525 0.00459453
0.219992 0.5 0.9375 0.0128496
0.219992 0.5 -0.9375 0.0176091
0.939201 0.5 -0.225 0.00336113
0.939201 0.5 0.225 0.00330963
0.905821 0.5 -0.3375 0.0035869
0.90582 0.5 0.3375 0.00351833
0.835106 0.5 -0.4875 0.00433399
0.835106 0.5 0.4875 0.00421157
0 0.5 0.968821 0.010558
0 0.5 -0.968821 0.014324
0.0124865 0.5 -0.968821 0.0153204
0.0124865 0.5 0.968821 0.0112641
0.969689 0.5 -0.0375 0.00313437
0.969689 0.5 0.0375 0.00312841
0.574156 0.5 -0.7875 0.00821662
0.574156 0.5 0.7875 0.00768983
0 0.5 -0.975 0.0143078
0 0.5 0.975 0.0105707
0.624316 0.5 -0.75 0.00737698
0.624316 0.5 0.75 0.00696119
0.969689 0.5 -0.1125 0.00316342
0.96969 0.5 0.1125 0.00314432
0.523432 0.5 -0.825 0.00935115
0.523432 0.5 0.825 0.00856138
0.67013 0.5 0.7125 0.00626143
0.67013 0.5 -0.7125 0.00658008
0 0.5 -0.981179 0.0142884
0 0.5 0.981179 0.0105825
0.467897 0.5 0.8625 0.00945545
0.467897 0.5 -0.8625 0.0105394
0.0124865 0.5 -0.981179 0.0152711
0.0124865 0.5 0.981179 0.0112965
0.872064 0.5 -0.45 0.00400138
0.872064 0.5 0.45 0.00390713
0.715434 0.5 -0.675 0.00597192
0.715434 0.5 0.675 0.00570341
0.939201 0.5 -0.3 0.00342936
0.939201 0.5 0.3 0.00337288
0.151149 0.5 0.975 0.0138385
0.151149 0.5 -0.975 0.0188783
0.969689 0.5 -0.1875 0.00322081
0.969689 0.5 0.1875 0.00317875
0.756813 0.5 -0.6375 0.00539525
0.756813 0.5 0.6375 0.00517026
0.411736 0.5 -0.9 0.0121296
0.411736 0.5 0.9 0.0103968
0.90582 0.5 -0.4125 0.00368196
0.90582 0.5 0.4125 0.00360908
0.995005 0.5 0.0749309 0.00299556
0.797732 0.5 -0.6 0.00494784
0.797732 0.5 0.6 0.00475171
1.00005 0.5 -8.47123e-18 0.00295827
0.350249 0.5 -0.9375 0.0137532
0.350249 0.5 0.9375 0.0113342
1.00005 0.5 -0.0749309 0.00297443
0.969689 0.5 -0.2625 0.00328267
0.969689 0.5 0.2625 0.00323175
0.835106 0.5 -0.5625 0.00452074
0.835106 0.5 0.5625 0.00435379
1.00005 0.5 -0.149862 0.00301494
0.939201 0.5 -0.375 0.0035163
0.939201 0.5 0.375 0.00345325
1.00029 0.5 0.148988 0.00299248
0.075776 0.5 -1.0125 0.0201333
0.075776 0.5 1.0125 0.0149759
0.288069 0.5 0.975 0.0120903
0.288069 0.5 -0.975 0.0156794
0.872064 0.5 -0.525 0.00417101
0.872064 0.5 0.525 0.0040272
1.00005 0.5 0.224793 0.00303111
1.00005 0.5 -0.224793 0.00307145
0.969689 0.5 0.3375 0.0033036
0.96969 0.5 -0.3375 0.00334729
1.0271 0.5 -0.0368226 0.00277937
1.0271 0.5 0.0368226 0.00277565
0.90582 0.5 0.4875 0.00372347
0.905821 0.5 -0.4875 0.00383607
1.0271 0.5 -0.110468 0.00280522
1.0271 0.5 0.110468 0.00277702
0.67013 0.5 0.7875 0.00647581
0.67013 0.5 -0.7875 0.00690687
0.624316 0.5 0.825 0.00717888
0.624316 0.5 -0.825 0.00773081
0.219993 0.5 -1.0125 0.0175204
0.219993 0.5 1.0125 0.012876
0.574156 0.5 -0.8625 0.00859784
0.574156 0.5 0.8625 0.00790889
0.715434 0.5 -0.75 0.00627051
0.715434 0.5 0.75 0.00590707
0.756813 0.5 0.7125 0.00536246
0.756814 0.5 -0.7125 0.00566499
0.523432 0.5 -0.9 0.00974768
0.523432 0.5 0.9 0.00876579
0.939201 0.5 -0.45 0.00365084
0.939201 0.5 0.45 0.00355213
1.04168 0.5 0 0.00269589
1.0271 0.5 -0.184113 0.00285184
1.0271 0.5 0.184113 0.00282113
0 0.5 -1.04382 0.0141328
0 0.5 1.04382 0.0107095
0.0124865 0.5 -1.04382 0.0151155
0.0124865 0.5 1.04382 0.0114235
1.00005 0.5 -0.299723 0.00313503
1.00005 0.5 0.299723 0.00309191
1.04168 0.5 -0.0729162 0.00271035
1.04168 0.5 0.0729162 0.00269992
0.797732 0.5 -0.675 0.00519275
0.797732 0.5 0.675 0.00492712
0.467897 0.5 0.9375 0.00964742
0.467897 0.5 -0.9375 0.0109487
0 0.5 -1.05 0.0141236
0 0.5 1.05 0.0107222
0.835106 0.5 -0.6375 0.00474214
0.835106 0.5 0.6375 0.00451416
1.04168 0.5 -0.145832 0.00274452
1.04168 0.5 0.145832 0.00271944
0.969689 0.5 -0.4125 0.00345672
0.96969 0.5 0.4125 0.00338923
0 0.5 -1.05618 0.0141091
0 0.5 1.05618 0.0107355
0.0124865 0.5 -1.05618 0.0150854
0.0124865 0.5 1.05618 0.0114561
1.05695 0.5 -0.0360764 0.00261626
1.05695 0.5 0.0360764 0.00261184
0.411736 0.5 -0.975 0.0124984
0.411736 0.5 0.975 0.0105333
0.872064 0.5 -0.6 0.00436873
0.872064 0.5 0.6 0.00416688
1.0271 0.5 -0.257759 0.00290851
1.0271 0.5 0.257759 0.00286868
0.151149 0.5 -1.05 0.0187242
0.151149 0.5 1.05 0.0139697
1.05695 0.5 0.108229 0.00260415
1.05695 0.5 -0.108229 0.00264052
1.04168 0.5 -0.218749 0.0027922
1.04168 0.5 0.218749 0.00275405
0.90582 0.5 -0.5625 0.00401241
0.905821 0.5 0.5625 0.00383916
1.00005 0.5 -0.374654 0.00322617
1.00005 0.5 0.374654 0.00316948
0.350249 0.5 1.0125 0.011398
0.350249 0.5 -1.0125 0.0140734
1.05695 0.5 -0.180382 0.0026795
1.05695 0.5 0.180382 0.00264435
1.07319 0.5 0.0709442 0.00254769
0.939201 0.5 -0.525 0.00382453
0.939201 0.5 0.525 0.00366315
1.0271 0.5 -0.331404 0.00297839
1.0271 0.5 0.331404 0.00293395
1.08112 0.5 3.23815e-17 0.00251696
1.04168 0.5 -0.291665 0.00285076
1.04168 0.5 0.291665 0.00280431
1.08112 0.5 -0.0709442 0.00253012
0.969689 0.5 -0.4875 0.00363559
0.96969 0.5 0.4875 0.00349423
1.05695 0.5 0.252535 0.00268097
1.05695 0.5 -0.252535 0.00272748
0.288069 0.5 -1.05 0.0158185
0.288069 0.5 1.05 0.012156
0.075776 0.5 -1.0875 0.0199349
0.075776 0.5 1.0875 0.0151798
1.08112 0.5 -0.141888 0.00256065
1.08145 0.5 0.140165 0.00253921
0.715434 0.5 0.825 0.00612527
0.715434 0.5 -0.825 0.00660686
0.756813 0.5 0.7875 0.00557137
0.756814 0.5 -0.7875 0.00597391
0.67013 0.5 -0.8625 0.00727063
0.67013 0.5 0.8625 0.00670402
0.797732 0.5 -0.75 0.00547322
0.797732 0.5 0.75 0.00511878
0.624316 0.5 -0.9 0.0081212
0.624316 0.5 0.9 0.00740788
1.00005 0.5 -0.449585 0.00336192
1.00005 0.5 0.449585 0.00326421
0.835106 0.5 -0.7125 0.0049968
0.835106 0.5 0.7125 0.00469002
0.574156 0.5 -0.9375 0.00901477
0.574157 0.5 0.9375 0.00813788
1.10076 0.5 -0.0349809 0.00244779
1.10076 0.5 0.0349809 0.00244604
1.08112 0.5 -0.212832 0.00260105
1.08112 0.5 0.212832 0.00256461
0.872064 0.5 -0.675 0.00459954
0.872064 0.5 0.675 0.00432836
1.04168 0.5 -0.364581 0.00293567
1.04168 0.5 0.364581 0.0028704
1.0271 0.5 0.405049 0.00301499
1.0271 0.5 -0.405049 0.00308982
1.05695 0.5 -0.324688 0.00279031
1.05695 0.5 0.324688 0.00273272
1.10076 0.5 -0.104943 0.00247014
1.10076 0.5 0.104943 0.00245595
0.523432 0.5 0.975 0.00898458
0.523432 0.5 -0.975 0.0101767
0.90582 0.5 0.6375 0.00398048
0.905821 0.5 -0.6375 0.00421928
0.219992 0.5 1.0875 0.0129912
0.219992 0.5 -1.0875 0.0174817
1.11376 0.5 3.81639e-17 0.00240228
0.939201 0.5 0.6 0.00380643
0.939201 0.5 -0.6 0.00401723
1.10076 0.5 -0.174905 0.00250808
1.10076 0.5 0.174905 0.00247912
0.467897 0.5 -1.0125 0.0113865
0.467897 0.5 1.0125 0.00985153
1.11376 0.5 -0.0693118 0.00241367
1.11376 0.5 0.0693118 0.00240673
1.08112 0.5 0.283777 0.00260682
1.08112 0.5 -0.283777 0.00265132
0 0.5 -1.11882 0.0140126
0 0.5 1.11882 0.0108973
0.0124865 0.5 -1.11882 0.0149889
0.0124865 0.5 1.11882 0.0116179
0.969689 0.5 -0.5625 0.00382042
0.969689 0.5 0.5625 0.00360351
1.11376 0.5 0.138624 0.00242517
1.11376 0.5 -0.138624 0.00244348
0 0.5 -1.125 0.0140086
0 0.5 1.125 0.0109154
1.10076 0.5 0.244866 0.00251489
1.10076 0.5 -0.244866 0.00254783
0.411736 0.5 -1.05 0.0128904
0.411736 0.5 1.05 0.0106409
1.05695 0.5 -0.396841 0.00288735
1.05695 0.5 0.396841 0.00279904
1.00005 0.5 -0.524516 0.00352914
1.00005 0.5 0.524516 0.00337406
1.04168 0.5 -0.437497 0.00304897
1.04168 0.5 0.437497 0.00295256
0 0.5 -1.13118 0.0140026
0 0.5 1.13118 0.0109339
0.0124865 0.5 -1.13118 0.0149808
0.0124865 0.5 1.13118 0.0116659
1.11376 0.5 -0.207935 0.00248155
1.11376 0.5 0.207935 0.0024525
1.0271 0.5 -0.478694 0.00322407
1.0271 0.5 0.478694 0.00311456
0.151149 0.5 -1.125 0.0186499
0.151149 0.5 1.125 0.0141809
1.08112 0.5 -0.354722 0.00272542
1.08112 0.5 0.354722 0.00266322
1.13882 0.5 -0.0340295 0.00231412
1.13882 0.5 0.0340295 0.00231359
0.350249 0.5 -1.0875 0.0144116
0.350249 0.5 1.0875 0.0114556
1.13882 0.5 -0.102088 0.00233421
1.13882 0.5 0.102088 0.00231949
1.10076 0.5 -0.314829 0.00260156
1.10076 0.5 0.314829 0.00256412
0.756813 0.5 -0.8625 0.00632066
0.756814 0.5 0.8625 0.00579297
0.797732 0.5 -0.825 0.00579164
0.797732 0.5 0.825 0.00532722
1.11376 0.5 -0.277247 0.00252634
1.11376 0.5 0.277247 0.00249443
0.835106 0.5 0.7875 0.00488042
0.835106 0.5 -0.7875 0.00528611
0.715434 0.5 -0.9 0.00698023
0.715434 0.5 0.9 0.00635477
0.872064 0.5 -0.75 0.0048664
0.872064 0.5 0.75 0.00451218
1.13882 0.5 0.170147 0.00234653
1.13882 0.5 -0.170147 0.00237119
0.67013 0.5 -0.9375 0.0076712
0.67013 0.5 0.9375 0.00694324
0.905821 0.5 -0.7125 0.00446012
0.905821 0.5 0.7125 0.00414932
1.05695 0.5 0.468994 0.0028813
1.05695 0.5 -0.468994 0.00299803
0.939201 0.5 -0.675 0.00423493
0.939201 0.5 0.675 0.00396499
0.624316 0.5 0.975 0.00765178
0.624316 0.5 -0.975 0.00854748
1.04168 0.5 -0.510414 0.00318673
1.04168 0.5 0.510414 0.00305257
0.969689 0.5 -0.6375 0.00402312
0.96969 0.5 0.6375 0.0038093
0.288069 0.5 -1.125 0.01599
0.288069 0.5 1.125 0.0123032
1.16179 0.5 5.78241e-19 0.00222786
1.08112 0.5 0.425666 0.00273401
1.08112 0.5 -0.425666 0.00282369
1.13882 0.5 -0.238206 0.00240711
1.13882 0.5 0.238206 0.00238107
1.16179 0.5 0.0669104 0.00222077
1.16179 0.5 -0.0669104 0.00223678
0.574156 0.5 -1.0125 0.00946627
0.574156 0.5 1.0125 0.00838562
0.075776 0.5 -1.1625 0.0198583
0.075776 0.5 1.1625 0.0154749
1.00005 0.5 -0.599447 0.00370909
1.00005 0.5 0.599447 0.00352103
1.10076 0.5 0.384791 0.00262756
1.10076 0.5 -0.384791 0.00268805
1.0271 0.5 -0.55234 0.00338407
1.0271 0.5 0.55234 0.00323146
1.11376 0.5 -0.346559 0.00259362
1.11376 0.5 0.346559 0.00254986
1.16179 0.5 -0.133821 0.00226434
1.16179 0.5 0.133821 0.00224696
0.523432 0.5 -1.05 0.0106363
0.523432 0.5 1.05 0.00917147
1.17463 0.5 -0.0331343 0.00218159
1.17463 0.5 0.0331343 0.00218258
1.17463 0.5 -0.0994029 0.00219894
1.17463 0.5 0.0994029 0.00219211
1.16179 0.5 -0.200731 0.00229881
1.16179 0.5 0.200731 0.00227528
1.13882 0.5 -0.306265 0.00245476
1.13882 0.5 0.306265 0.00242783
0.219992 0.5 -1.1625 0.0174906
0.219992 0.5 1.1625 0.0132263
0.467897 0.5 -1.0875 0.0118507
0.467897 0.5 1.0875 0.00995095
1.17463 0.5 0.165672 0.00221259
1.17463 0.5 -0.165672 0.00223485
1.05695 0.5 -0.541147 0.00314091
1.05695 0.5 0.541147 0.00298254
1.18772 0.5 -5.78241e-19 0.00213718
1.11376 0.5 -0.41587 0.00268664
1.11376 0.5 0.41587 0.00261888
1.18772 0.5 -0.065614 0.00214468
1.18772 0.5 0.065614 0.00214315
1.08112 0.5 -0.49661 0.00294493
1.08112 0.5 0.49661 0.00282165
1.10076 0.5 -0.454752 0.00279315
1.10076 0.5 0.454752 0.00270468
1.18534 0.5 0.118202 0.00215707
1.16179 0.5 -0.267642 0.00233641
1.16179 0.5 0.267642 0.00231322
0 0.5 -1.19382 0.0139567
0 0.5 1.19382 0.0111498
0.0124865 0.5 1.19382 0.0118818
0.0124865 0.5 -1.19382 0.0149349
1.04168 0.5 -0.58333 0.00333554
1.04168 0.5 0.58333 0.00317226
1.18772 0.5 -0.131228 0.00217024
1.17463 0.5 -0.23194 0.00226583
1.17463 0.5 0.23194 0.00224375
0.411736 0.5 -1.125 0.0133068
0.411736 0.5 1.125 0.0107798
1.13882 0.5 -0.374324 0.00253123
1.13882 0.5 0.374324 0.00248795
0 0.5 -1.2 0.0139499
0 0.5 1.2 0.0111734
0.905821 0.5 0.7875 0.00434942
0.905821 0.5 -0.7875 0.0047431
0.872064 0.5 -0.825 0.00516851
0.872064 0.5 0.825 0.00471164
0.835106 0.5 0.8625 0.00509386
0.835106 0.5 -0.8625 0.00561558
0.939201 0.5 -0.75 0.00446953
0.939201 0.5 0.75 0.00411869
0.797732 0.5 -0.9 0.00614947
0.797732 0.5 0.9 0.00554896
1.0271 0.5 0.625985 0.00337625
1.0271 0.5 -0.625985 0.00355081
0.969689 0.5 0.7125 0.00392733
0.96969 0.5 -0.7125 0.0042439
1.18772 0.5 -0.196842 0.00220234
1.18772 0.5 0.196842 0.00218194
0.756814 0.5 -0.9375 0.00670387
0.756814 0.5 0.9375 0.00602233
0 0.5 1.20618 0.0111974
0 0.5 -1.20618 0.0139491
1.00005 0.5 -0.674378 0.00391495
1.00005 0.5 0.674378 0.00367174
0.0124865 0.5 1.20618 0.0119457
0.0124865 0.5 -1.20618 0.0149272
1.16179 0.5 -0.334552 0.00239257
1.16179 0.5 0.334552 0.00236317
0.715434 0.5 0.975 0.0065995
0.715434 0.5 -0.975 0.00739159
0.151149 0.5 -1.2 0.0186397
0.151149 0.5 1.2 0.0144771
1.20942 0.5 0.0322645 0.00206021
1.20942 0.5 -0.0322645 0.00205958
1.17463 0.5 -0.298209 0.00230639
1.17463 0.5 0.298209 0.00228568
1.20942 0.5 -0.0967935 0.00207425
1.20942 0.5 0.0967935 0.00207047
0.350249 0.5 -1.1625 0.0147658
0.350249 0.5 1.1625 0.0116399
0.67013 0.5 1.0125 0.00720232
0.67013 0.5 -1.0125 0.00810814
1.11376 0.5 0.485183 0.00270376
1.11376 0.5 -0.485183 0.00280341
1.18772 0.5 0.262456 0.00221711
1.18772 0.5 -0.262456 0.00223631
1.10076 0.5 -0.524714 0.00292713
1.10076 0.5 0.524714 0.00280065
1.20942 0.5 -0.161322 0.00210698
1.20942 0.5 0.161322 0.00208902
1.08112 0.5 -0.567554 0.00307186
1.08112 0.5 0.567554 0.00292437
0.624316 0.5 -1.05 0.00901174
0.624316 0.5 1.05 0.0078866
1.13882 0.5 -0.442383 0.00262926
1.13882 0.5 0.442383 0.0025607
1.05695 0.5 0.6133 0.00309953
1.05695 0.5 -0.6133 0.00327182
1.16179 0.5 -0.401463 0.0024732
1.16179 0.5 0.401463 0.0024253
0.574156 0.5 -1.0875 0.00995027
0.574156 0.5 1.0875 0.00857788
1.17463 0.5 0.364477 0.00234
1.17463 0.5 -0.364477 0.00237209
1.20942 0.5 -0.225851 0.00213391
1.20942 0.5 0.225851 0.00211709
1.23036 0.5 -1.32995e-17 0.00198994
1.2294 0.5 0.0634819 0.0019989
1.04168 0.5 -0.656246 0.00350941
1.04168 0.5 0.656246 0.00330782
1.23036 0.5 -0.0634819 0.00199543
1.18772 0.5 0.32807 0.00226346
1.18772 0.5 -0.32807 0.0022865
0.288069 0.5 -1.2 0.0161984
0.288069 0.5 1.2 0.0125315
1.23036 0.5 -0.126964 0.00201796
1.23036 0.5 0.126964 0.00200945
0.075776 0.5 -1.2375 0.0198337
0.075776 0.5 1.2375 0.0158661
0.523432 0.5 -1.125 0.0111318
0.523432 0.5 1.125 0.00935845
1.0271 0.5 -0.69963 0.00376742
1.0271 0.5 0.69963 0.00350814
1.24274 0.5 0.0314313 0.00195148
1.24274 0.5 -0.0314313 0.00194858
1.20942 0.5 0.29038 0.00215484
1.20942 0.5 -0.29038 0.0021692
1.11376 0.5 -0.554494 0.00292226
1.11376 0.5 0.554494 0.00280181
1.23036 0.5 -0.190445 0.00204608
1.23036 0.5 0.190445 0.00203183
1.24274 0.5 -0.0942942 0.00196102
1.24274 0.5 0.0942942 0.00196093
1.13882 0.5 0.510442 0.00265053
1.13882 0.5 -0.510442 0.00275153
0.969689 0.5 -0.7875 0.00443952
0.969689 0.5 0.7875 0.00405724
1.00005 0.5 -0.749309 0.00414256
1.00005 0.5 0.749309 0.00380613
0.939201 0.5 -0.825 0.00473711
0.939201 0.5 0.825 0.00430474
0.90582 0.5 0.8625 0.00454349
0.90582 0.5 -0.8625 0.0050503
1.17463 0.5 -0.430746 0.00246008
1.17463 0.5 0.430746 0.0024055
1.10076 0.5 -0.594676 0.00303807
1.10076 0.5 0.594676 0.00290523
1.18772 0.5 -0.393684 0.00235996
1.18772 0.5 0.393684 0.00232127
1.24274 0.5 -0.157157 0.00199166
1.24274 0.5 0.157157 0.00197896
1.16179 0.5 -0.468373 0.00257719
1.16179 0.5 0.468373 0.00250157
0.467897 0.5 -1.1625 0.0123517
0.467897 0.5 1.1625 0.0101627
0.872064 0.5 -0.9 0.00550579
0.872064 0.5 0.9 0.00491949
1.25401 0.5 2.08167e-17 0.00191753
0.835106 0.5 0.9375 0.00531672
0.835106 0.5 -0.9375 0.00598805
1.25401 0.5 -0.0622994 0.00192204
1.25401 0.5 0.0622994 0.00192325
1.08112 0.5 -0.638498 0.00321592
1.08112 0.5 0.638498 0.0030481
1.23036 0.5 -0.253927 0.00207482
1.23036 0.5 0.253927 0.00206291
0.219992 0.5 1.2375 0.0134955
0.219992 0.5 -1.2375 0.0175382
1.25309 0.5 0.121964 0.00193671
1.05695 0.5 0.685452 0.00323764
1.05695 0.5 -0.685452 0.00345748
0.797732 0.5 0.975 0.00578755
0.797732 0.5 -0.975 0.00654673
1.25401 0.5 -0.124599 0.00194286
1.20942 0.5 -0.354909 0.00222499
1.20942 0.5 0.354909 0.0022039
1.24274 0.5 -0.220019 0.00201559
1.24274 0.5 0.220019 0.00200501
0.756814 0.5 -1.0125 0.00712925
0.756813 0.5 1.0125 0.00627402
1.25401 0.5 -0.186898 0.00196916
1.25401 0.5 0.186898 0.00195797
0.411736 0.5 -1.2 0.0137579
0.411736 0.5 1.2 0.0110004
0 0.5 -1.26882 0.0139244
0 0.5 1.26882 0.0114675
0.0124865 0.5 1.26882 0.0122158
0.0124865 0.5 -1.26882 0.0149026
0.715434 0.5 -1.05 0.00784566
0.715434 0.5 1.05 0.00685084
1.23036 0.5 -0.31741 0.00211654
1.23036 0.5 0.31741 0.00210367
1.04168 0.5 -0.729162 0.00372976
1.04168 0.5 0.729162 0.00343945
1.18772 0.5 -0.459298 0.00245562
1.18772 0.5 0.459298 0.00239221
1.24274 0.5 -0.282882 0.00204648
1.24274 0.5 0.282882 0.00203942
0 0.5 -1.275 0.0139144
0 0.5 1.275 0.0114963
1.27472 0.5 -0.0306319 0.00184645
1.27472 0.5 0.0306319 0.00184921
1.17463 0.5 0.497015 0.00248728
1.17463 0.5 -0.497015 0.0025724
1.11376 0.5 -0.623806 0.00305459
1.11376 0.5 0.623806 0.002918
1.13882 0.5 -0.578501 0.00285338
1.13882 0.5 0.578501 0.00274822
0.67013 0.5 -1.0875 0.00859307
0.67013 0.5 1.0875 0.00744092
1.27472 0.5 -0.0918959 0.00185707
1.27472 0.5 0.0918959 0.00187074
1.25401 0.5 -0.249197 0.0019952
1.25401 0.5 0.249197 0.00198754
1.16179 0.5 -0.535284 0.00268257
1.16179 0.5 0.535284 0.00259089
1.20942 0.5 -0.419438 0.00230468
1.20942 0.5 0.419438 0.00226348
0 0.5 -1.28118 0.0139123
0 0.5 1.28118 0.0115254
0.0124865 0.5 1.28118 0.012295
0.0124865 0.5 -1.28118 0.0148815
1.27472 0.5 0.15316 0.00187415
1.27472 0.5 -0.15316 0.00188367
0.151149 0.5 -1.275 0.0186549