# pMean  POINT_DATA 63140
# x  y  z  pMean
0 0.1 0 0.179331
0 0.1 -0.0179898 0.179895
0 0.1 0.0179898 0.17877
0.0363518 0.1 0.0179898 0.17877
0.0363518 0.1 -0.0179898 0.179895
0 0.1 -0.0570102 0.180977
0 0.1 0.0570102 0.17742
0.0363518 0.1 0.0570102 0.17742
0.0363518 0.1 -0.0570102 0.180977
0 0.1 -0.075 0.181407
0 0.1 0.075 0.17674
0.075776 0.1 -0.0375 0.18051
0.075776 0.1 0.0375 0.17816
0 0.1 -0.0929898 0.181838
0 0.1 0.0929898 0.176062
0.0363518 0.1 -0.0929898 0.181838
0.0363518 0.1 0.0929898 0.176062
0 0.1 -0.13201 0.182671
0 0.1 0.13201 0.174467
0.075776 0.1 -0.1125 0.182311
0.075776 0.1 0.1125 0.175327
0.0363518 0.1 -0.13201 0.182671
0.0363518 0.1 0.13201 0.174467
0 0.1 -0.15 0.183005
0 0.1 0.15 0.173676
0.150379 0.1 -2.22623e-17 0.173008
0 0.1 -0.16799 0.183338
0 0.1 0.16799 0.172887
0.150379 0.1 -0.075 0.175252
0.150379 0.1 0.075 0.170244
0.0363518 0.1 -0.16799 0.183338
0.0363518 0.1 0.16799 0.172887
0.075776 0.1 -0.1875 0.183704
0.075776 0.1 0.1875 0.172032
0 0.1 -0.20701 0.183982
0 0.1 0.20701 0.171053
0.0363518 0.1 -0.20701 0.183982
0.0363518 0.1 0.20701 0.171053
0.150379 0.1 -0.15 0.17697
0.150379 0.1 0.15 0.16698
0.219993 0.1 -0.0375 0.168305
0.219993 0.1 0.0375 0.165642
0 0.1 -0.225 0.18424
0 0.1 0.225 0.170154
0 0.1 -0.24299 0.1845
0 0.1 0.24299 0.169255
0.0363518 0.1 0.24299 0.169255
0.0363518 0.1 -0.24299 0.1845
0.219993 0.1 -0.1125 0.170454
0.219993 0.1 0.1125 0.162449
0.150379 0.1 -0.225 0.178188
0.150379 0.1 0.225 0.163248
0.075776 0.1 -0.2625 0.184785
0.075776 0.1 0.2625 0.168282
0 0.1 -0.28201 0.184946
0 0.1 0.28201 0.167198
0.0363518 0.1 -0.28201 0.184946
0.0363518 0.1 0.28201 0.167198
0.287374 0.1 -2.89121e-19 0.169933
0.219992 0.1 0.1875 0.158731
0.219992 0.1 -0.1875 0.171969
0.287374 0.1 -0.075 0.172346
0.287374 0.1 0.075 0.166974
0 0.1 -0.3 0.185098
0 0.1 0.3 0.1662
0 0.1 0.31799 0.165204
0 0.1 -0.31799 0.185253
0.0363518 0.1 -0.31799 0.185253
0.0363518 0.1 0.31799 0.165204
0.287374 0.1 0.15 0.163487
0.287374 0.1 -0.15 0.174175
0.150379 0.1 -0.3 0.178909
0.150379 0.1 0.3 0.159086
0.219993 0.1 0.2625 0.154585
0.219993 0.1 -0.2625 0.172855
0.075776 0.1 -0.3375 0.185421
0.075776 0.1 0.3375 0.164125
0.350249 0.1 -0.0375 0.174125
0.350249 0.1 0.0375 0.171407
0 0.1 -0.35701 0.185446
0 0.1 0.35701 0.162943
0.0363518 0.1 -0.35701 0.185446
0.0363518 0.1 0.35701 0.162943
0.287374 0.1 -0.225 0.175396
0.287374 0.1 0.225 0.159506
0.350249 0.1 -0.1125 0.176245
0.350249 0.1 0.1125 0.168147
0 0.1 -0.375 0.185472
0 0.1 0.375 0.161856
0 0.1 -0.39299 0.185503
0 0.1 0.39299 0.160769
0.0363518 0.1 -0.39299 0.185503
0.0363518 0.1 0.39299 0.160769
0.350249 0.1 -0.1875 0.177776
0.350249 0.1 0.1875 0.164371
0.219992 0.1 -0.3375 0.173149
0.219992 0.1 0.3375 0.150009
0.150379 0.1 0.375 0.154536
0.150379 0.1 -0.375 0.179079
0.411108 0.1 4.33681e-19 0.176938
0.287374 0.1 -0.3 0.17602
0.287374 0.1 0.3 0.155077
0.411108 0.1 -0.075 0.179464
0.411108 0.1 0.075 0.173781
0.075776 0.1 -0.4125 0.185534
0.075776 0.1 0.4125 0.159593
0 0.1 0.43201 0.158323
0 0.1 -0.43201 0.185418
0.0363518 0.1 0.43201 0.158323
0.0363518 0.1 -0.43201 0.185418
0.411108 0.1 -0.15 0.181334
0.411108 0.1 0.15 0.170029
0.350249 0.1 -0.2625 0.178725
0.350249 0.1 0.2625 0.160089
0 0.1 -0.45 0.185315
0 0.1 0.45 0.157156
0.219992 0.1 0.4125 0.145091
0.219992 0.1 -0.4125 0.172802
0 0.1 -0.46799 0.185214
0 0.1 0.46799 0.155988
0.411108 0.1 -0.225 0.182548
0.411108 0.1 0.225 0.165722
0.467897 0.1 -0.0375 0.182429
0.467897 0.1 0.0375 0.179449
0.0363518 0.1 0.46799 0.155988
0.0363518 0.1 -0.46799 0.185214
0.287374 0.1 -0.375 0.176035
0.287374 0.1 0.375 0.150252
0.150379 0.1 0.45 0.149662
0.150379 0.1 -0.45 0.178685
0.467897 0.1 0.1125 0.175792
0.467897 0.1 -0.1125 0.184707
0.350249 0.1 -0.3375 0.17909
0.350249 0.1 0.3375 0.155382
0.075776 0.1 -0.4875 0.185105
0.075776 0.1 0.4875 0.154724
0.467897 0.1 0.1875 0.171496
0.467897 0.1 -0.1875 0.186252
0 0.1 -0.50701 0.184853
0 0.1 0.50701 0.15338
0.0363518 0.1 -0.50701 0.184853
0.0363518 0.1 0.50701 0.15338
0.411108 0.1 0.3 0.160919
0.411108 0.1 -0.3 0.183115
0.522865 0.1 1.41031e-17 0.185797
0 0.1 -0.525 0.184624
0 0.1 0.525 0.152143
0.522865 0.1 -0.075 0.188525
0.522865 0.1 0.075 0.182331
0.287374 0.1 0.45 0.145093
0.287374 0.1 -0.45 0.17546
0.219992 0.1 0.4875 0.139931
0.219992 0.1 -0.4875 0.17191
0.467897 0.1 -0.2625 0.187089
0.467897 0.1 0.2625 0.166645
0.350249 0.1 -0.4125 0.178832
0.350249 0.1 0.4125 0.15029
0 0.1 -0.54299 0.184397
0 0.1 0.54299 0.150907
0.522865 0.1 0.15 0.178165
0.522865 0.1 -0.15 0.190487
0.0363518 0.1 0.54299 0.150907
0.0363518 0.1 -0.54299 0.184397
0.150379 0.1 -0.525 0.177775
0.150379 0.1 0.525 0.144533
0.411108 0.1 -0.375 0.183021
0.411108 0.1 0.375 0.155681
0.075776 0.1 -0.5625 0.184152
0.075776 0.1 0.5625 0.149569
0.522865 0.1 -0.225 0.191676
0.522865 0.1 0.225 0.173356
0.574156 0.1 0.0375 0.188855
0.574157 0.1 -0.0375 0.192081
0.467897 0.1 -0.3375 0.187213
0.467897 0.1 0.3375 0.1613
0 0.1 -0.58201 0.183776
0 0.1 0.58201 0.148168
0.0363518 0.1 -0.58201 0.183776
0.0363518 0.1 0.58201 0.148168
0.574157 0.1 -0.1125 0.194504
0.574157 0.1 0.1125 0.184864
0.287374 0.1 -0.525 0.174362
0.287374 0.1 0.525 0.139667
0 0.1 -0.6 0.183432
0 0.1 0.6 0.14688
0.350249 0.1 0.4875 0.144835
0.350249 0.1 -0.4875 0.178027
0.522865 0.1 -0.3 0.192102
0.522865 0.1 0.3 0.167972
0.219992 0.1 -0.5625 0.170564
0.219992 0.1 0.5625 0.134608
0.574156 0.1 -0.1875 0.196099
0.574156 0.1 0.1875 0.180159
0.411108 0.1 0.45 0.150053
0.411108 0.1 -0.45 0.182296
0 0.1 -0.61799 0.183089
0 0.1 0.61799 0.145592
0.150379 0.1 -0.6 0.176398
0.150379 0.1 0.6 0.139201
0.0363518 0.1 -0.61799 0.183089
0.0363518 0.1 0.61799 0.145592
0.467897 0.1 -0.4125 0.186618
0.467897 0.1 0.4125 0.155517
0.623803 0.1 2.34188e-17 0.196054
0.623803 0.1 0.075 0.192261
0.623803 0.1 -0.075 0.199001
0.574156 0.1 0.2625 0.174793
0.574156 0.1 -0.2625 0.19688
0.623803 0.1 0.15 0.187672
0.623803 0.1 -0.15 0.201068
0.075776 0.1 0.6375 0.144197
0.075776 0.1 -0.6375 0.18272
0.522865 0.1 -0.375 0.191765
0.522865 0.1 0.375 0.162087
0 0.1 0.65701 0.142754
0 0.1 -0.65701 0.182233
0.0363518 0.1 0.65701 0.142754
0.0363518 0.1 -0.65701 0.182233
0.350249 0.1 0.5625 0.139085
0.350249 0.1 -0.5625 0.176677
0.623803 0.1 0.225 0.182344
0.623803 0.1 -0.225 0.202248
0.287374 0.1 -0.6 0.172784
0.287374 0.1 0.6 0.134036
0.574157 0.1 -0.3375 0.196848
0.574157 0.1 0.3375 0.168844
0.411108 0.1 0.525 0.144095
0.411108 0.1 -0.525 0.180991
0.67013 0.1 0.0375 0.199677
0.67013 0.1 -0.0375 0.203207
0.219992 0.1 -0.6375 0.168805
0.219993 0.1 0.6375 0.129139
0 0.1 -0.675 0.181787
0 0.1 0.675 0.141428
0.467897 0.1 -0.4875 0.185391
0.467897 0.1 0.4875 0.149367
0.67013 0.1 -0.1125 0.205806
0.67013 0.1 0.1125 0.195264
0.522865 0.1 0.45 0.155774
0.522865 0.1 -0.45 0.190706
0.150379 0.1 0.675 0.133705
0.150379 0.1 -0.675 0.174592
0.623803 0.1 0.3 0.17635
0.623803 0.1 -0.3 0.202551
0 0.1 -0.69299 0.181343
0 0.1 0.69299 0.140101
0.0363518 0.1 -0.69299 0.181343
0.0363518 0.1 0.69299 0.140101
0.67013 0.1 -0.1875 0.207452
0.67013 0.1 0.1875 0.190032
0.574156 0.1 0.4125 0.162405
0.574157 0.1 -0.4125 0.196011
0.714971 0.1 -2.8382e-17 0.207446
0.075776 0.1 -0.7125 0.180862
0.075776 0.1 0.7125 0.138664
0.714971 0.1 -0.075 0.210641
0.714971 0.1 0.075 0.203272
0.67013 0.1 0.2625 0.184044
0.67013 0.1 -0.2625 0.208152
0.411108 0.1 -0.6 0.17914
0.411108 0.1 0.6 0.137881
0.350249 0.1 0.6375 0.133124
0.350249 0.1 -0.6375 0.174822
0.623803 0.1 0.375 0.169782
0.623803 0.1 -0.375 0.201987
0.714971 0.1 -0.15 0.21282
0.714971 0.1 0.15 0.198181
0.467897 0.1 -0.5625 0.183574
0.467897 0.1 0.5625 0.142918
0 0.1 -0.73201 0.180272
0 0.1 0.73201 0.137194
0.0363518 0.1 0.73201 0.137194
0.0363518 0.1 -0.73201 0.180272
0.287374 0.1 -0.675 0.170759
0.287374 0.1 0.675 0.128246
0.522865 0.1 -0.525 0.188989
0.522865 0.1 0.525 0.149111
0.219993 0.1 -0.7125 0.166645
0.219992 0.1 0.7125 0.12353
0.714971 0.1 -0.225 0.213976
0.714971 0.1 0.225 0.192244
0 0.1 0.75 0.135841
0 0.1 -0.75 0.17973
0.67013 0.1 -0.3375 0.207917
0.67013 0.1 0.3375 0.177396
0.574156 0.1 -0.4875 0.194445
0.574157 0.1 0.4875 0.155553
0.756813 0.1 0.0375 0.211323
0.756814 0.1 -0.0375 0.215183
0.150379 0.1 0.746002 0.128483
0.150379 0.1 -0.75 0.172403
0.756813 0.1 -0.1125 0.217967
0.756813 0.1 0.1125 0.206445
0 0.1 0.76799 0.134488
0 0.1 -0.76799 0.17919
0.0363518 0.1 0.76799 0.134488
0.0363518 0.1 -0.76799 0.17919
0.623803 0.1 -0.45 0.200602
0.623803 0.1 0.45 0.162732
0.714971 0.1 -0.3 0.214121
0.714971 0.1 0.3 0.185546
0.756814 0.1 -0.1875 0.219651
0.756814 0.1 0.1875 0.200621
0.67013 0.1 -0.4125 0.206776
0.67013 0.1 0.4125 0.170185
0.411108 0.1 0.675 0.131488
0.411108 0.1 -0.675 0.176787
0.467897 0.1 0.6375 0.136251
0.467897 0.1 -0.6375 0.181211
0.075776 0.1 0.7875 0.133023
0.075776 0.1 -0.7875 0.178605
0.350249 0.1 -0.7125 0.172502
0.350249 0.1 0.7125 0.127024
0.522865 0.1 -0.6 0.186666
0.522865 0.1 0.6 0.142182
0.797314 0.1 -3.59473e-17 0.219532
0.287374 0.1 0.746002 0.122589
0.797314 0.1 -0.075 0.223007
0.797314 0.1 0.075 0.214935
0.756814 0.1 -0.2625 0.220245
0.756814 0.1 0.2625 0.193937
0.287374 0.1 -0.75 0.168337
0.574156 0.1 -0.5625 0.192202
0.574156 0.1 0.5625 0.148381
0 0.1 0.80701 0.13154
0 0.1 -0.80701 0.177922
0.714971 0.1 -0.375 0.213279
0.714971 0.1 0.375 0.178196
0.0363518 0.1 0.80701 0.13154
0.0363518 0.1 -0.80701 0.177922
0.797314 0.1 -0.15 0.225311
0.797314 0.1 0.15 0.209288
0.623803 0.1 -0.525 0.198462
0.623803 0.1 0.525 0.155297
0.219992 0.1 0.7875 0.117822
0.219992 0.1 -0.7875 0.164174
0.149792 0.1 0.80701 0.123773
0 0.1 0.825 0.130175
0 0.1 -0.825 0.177295
0.797314 0.1 -0.225 0.226443
0.797314 0.1 0.225 0.202678
0.756813 0.1 -0.3375 0.219771
0.756813 0.1 0.3375 0.186492
0.67013 0.1 0.4875 0.162516
0.67013 0.1 -0.4875 0.204792
0.835106 0.1 -0.0375 0.227742
0.835106 0.1 0.0375 0.223505
0.150379 0.1 -0.825 0.169874
0.835106 0.1 -0.1125 0.230752
0.835106 0.1 0.1125 0.218108
0 0.1 -0.84299 0.17667
0 0.1 0.84299 0.12881
0.0363518 0.1 -0.84299 0.17667
0.0363518 0.1 0.84299 0.12881
0.714971 0.1 -0.45 0.211498
0.714971 0.1 0.45 0.170308
0.411108 0.1 0.746002 0.125273
0.797314 0.1 -0.3 0.226425
0.797314 0.1 0.3 0.195206
0.467897 0.1 -0.7125 0.178358
0.467897 0.1 0.7125 0.129436
0.522865 0.1 0.675 0.135069
0.522865 0.1 -0.675 0.183796
0.411108 0.1 -0.75 0.173984
0.835106 0.1 -0.1875 0.232486
0.835107 0.1 0.1875 0.211637
0.286844 0.1 0.80701 0.11781
0.574156 0.1 0.6375 0.140981
0.574157 0.1 -0.6375 0.18935
0.350249 0.1 -0.7875 0.169773
0.350249 0.1 0.7875 0.120851
0.756813 0.1 -0.4125 0.218263
0.756814 0.1 0.4125 0.178423
0.623803 0.1 -0.6 0.195637
0.623803 0.1 0.6 0.147581
0.075776 0.1 0.8625 0.127333
0.075776 0.1 -0.8625 0.175993
0.871687 0.1 -3.2767e-18 0.231966
0.287374 0.1 -0.825 0.165571
0.871687 0.1 -0.075 0.235739
0.871687 0.1 0.075 0.226917
0.67013 0.1 -0.5625 0.202042
0.67013 0.1 0.5625 0.154503
0.835106 0.1 0.2625 0.204196
0.835106 0.1 -0.2625 0.233003
0.797314 0.1 -0.375 0.22528
0.797314 0.1 0.375 0.187
0 0.1 -0.88201 0.175229
0 0.1 0.88201 0.125847
0.0363518 0.1 0.88201 0.125847
0.0363518 0.1 -0.88201 0.175229
0.871687 0.1 0.15 0.220674
0.871687 0.1 -0.15 0.238162
0.714971 0.1 0.525 0.161995
0.714971 0.1 -0.525 0.208853
0.219993 0.1 0.8625 0.112073
0.219992 0.1 -0.8625 0.161409
0 0.1 0.9 0.12448
0 0.1 -0.9 0.174528
0.756813 0.1 0.4875 0.169847
0.756814 0.1 -0.4875 0.215784
0.871687 0.1 0.225 0.21334
0.871687 0.1 -0.225 0.23926
0.835106 0.1 -0.3375 0.232299
0.835106 0.1 0.3375 0.195902
0.41063 0.1 0.80701 0.120013
0.90582 0.1 -0.0375 0.240446
0.905821 0.1 0.0375 0.235831
0.522865 0.1 0.746002 0.128156
0.150379 0.1 0.9 0.116664
0.90582 0.1 0.1125 0.229898
0.905821 0.1 -0.1125 0.243668
0.522865 0.1 -0.75 0.180444
0.574156 0.1 0.7125 0.133439
0.574156 0.1 -0.7125 0.18596
0.797314 0.1 -0.45 0.223061
0.797314 0.1 0.45 0.178199
0.467897 0.1 -0.7875 0.17507
0.467897 0.1 0.7875 0.122554
0.150379 0.1 -0.903998 0.16717
0 0.1 0.91799 0.123113
0 0.1 -0.91799 0.173828
0.0363518 0.1 0.91799 0.123113
0.0363518 0.1 -0.91799 0.173828
0.623803 0.1 0.675 0.139681
0.623803 0.1 -0.675 0.192206
0.411108 0.1 -0.825 0.170788
0.871687 0.1 0.3 0.205037
0.871687 0.1 -0.3 0.239069
0.67013 0.1 -0.6375 0.198607
0.67013 0.1 0.6375 0.146253
0.90582 0.1 -0.1875 0.245393
0.90582 0.1 0.1875 0.222744
0.350249 0.1 0.8625 0.114649
0.350249 0.1 -0.8625 0.166686
0.835106 0.1 -0.4125 0.230415
0.835106 0.1 0.4125 0.186912
0.714971 0.1 -0.6 0.205438
0.714971 0.1 0.6 0.153382
0.93886 0.1 -1.15648e-17 0.244408
0.075776 0.1 0.9375 0.121633
0.075776 0.1 -0.9375 0.17307
0.93886 0.1 0.075 0.23886
0.93886 0.1 -0.075 0.248532
0.756813 0.1 0.5625 0.160886
0.756814 0.1 -0.5625 0.212438
0.905821 0.1 -0.2625 0.245809
0.905821 0.1 0.2625 0.214493
0.287374 0.1 0.9 0.110408
0.287374 0.1 -0.903998 0.162866
0.871687 0.1 0.375 0.195912
0.871687 0.1 -0.375 0.237584
0.93886 0.1 -0.15 0.251111
0.93886 0.1 0.15 0.231977
0.797314 0.1 0.525 0.168937
0.797314 0.1 -0.525 0.219861
0 0.1 0.95701 0.120157
0 0.1 -0.95701 0.172236
0.0363518 0.1 0.95701 0.120157
0.0363518 0.1 -0.95701 0.172236
0.522433 0.1 0.80701 0.122342
0.219992 0.1 0.9375 0.106335
0.219992 0.1 -0.9375 0.158368
0.93886 0.1 0.225 0.223881
0.93886 0.1 -0.225 0.252202
0.90582 0.1 0.3375 0.205293
0.905821 0.1 -0.3375 0.244819
0.835106 0.1 -0.4875 0.227423
0.835107 0.1 0.4875 0.177374
0.969689 0.1 -0.0375 0.253073
0.969689 0.1 0.0375 0.247983
0.61613 0.1 0.75 0.131692
0.574156 0.1 -0.7875 0.182103
0.574156 0.1 0.7875 0.125842
0 0.1 0.975 0.118798
0 0.1 -0.975 0.171471
0.623803 0.1 -0.75 0.188251
0.969689 0.1 -0.1125 0.256632
0.969689 0.1 0.1125 0.24144
0.522865 0.1 -0.825 0.176676
0.67013 0.1 0.7125 0.137875
0.67013 0.1 -0.7125 0.194583
0.871687 0.1 -0.45 0.234872
0.871687 0.1 0.45 0.18613
0.467897 0.1 0.8625 0.115669
0.467897 0.1 -0.8625 0.171412
0.714971 0.1 -0.675 0.201352
0.714971 0.1 0.675 0.144588
0.93886 0.1 -0.3 0.251872
0.93886 0.1 0.3 0.21472
0.150379 0.1 0.975 0.110965
0.150379 0.1 -0.975 0.163928
0.969689 0.1 -0.1875 0.258437
0.969689 0.1 0.1875 0.233557
0.411108 0.1 0.9 0.111916
0.756813 0.1 0.6375 0.15169
0.756814 0.1 -0.6375 0.208331
0.990306 0.1 -2.19732e-17 0.253989
0 0.1 0.99299 0.117439
0 0.1 -0.99299 0.170705
0.411108 0.1 -0.903998 0.167662
0.990306 0.1 -0.075 0.258423
0.990306 0.1 0.075 0.24801
0.0363518 0.1 0.99299 0.117439
0.0363518 0.1 -0.99299 0.170705
0.90582 0.1 -0.4125 0.242471
0.905821 0.1 0.4125 0.1953
0.797314 0.1 -0.6 0.215795
0.797314 0.1 0.6 0.159362
0.350249 0.1 0.9375 0.10847
0.350249 0.1 -0.9375 0.163296
0.990306 0.1 0.15 0.240577
0.990306 0.1 -0.15 0.261119
0.969689 0.1 -0.2625 0.258853
0.969689 0.1 0.2625 0.224482
0.835106 0.1 -0.5625 0.223454
0.835106 0.1 0.5625 0.167428
0.93886 0.1 -0.375 0.250072
0.93886 0.1 0.375 0.204658
0.075776 0.1 1.0125 0.115969
0.075776 0.1 -1.0125 0.169878
0.990306 0.1 -0.225 0.262193
0.990306 0.1 0.225 0.231827
0.287374 0.1 0.975 0.104474
0.287374 0.1 -0.975 0.159154
0.871687 0.1 -0.525 0.231049
0.871687 0.1 0.525 0.175855
1.02149 0.1 -0.0369628 0.263812
1.02149 0.1 0.0369628 0.258385
0.969689 0.1 -0.3375 0.257695
0.969689 0.1 0.3375 0.214384
1.02149 0.1 -0.110888 0.267593
1.02149 0.1 0.110888 0.251369
0.90582 0.1 0.4875 0.184722
0.90582 0.1 -0.4875 0.238859
0.623803 0.1 0.819003 0.12509
0 0.1 1.03201 0.114515
0 0.1 -1.03201 0.168987
0.0363518 0.1 1.03201 0.114515
0.0363518 0.1 -1.03201 0.168987
0.67013 0.1 -0.7875 0.190058
0.67013 0.1 0.7875 0.129467
0.623803 0.1 -0.825 0.183854
0.990306 0.1 -0.3 0.261763
0.990306 0.1 0.3 0.221927
0.219992 0.1 -1.0125 0.15509
0.219993 0.1 1.0125 0.100645
0.574156 0.1 0.8625 0.118266
0.574157 0.1 -0.8625 0.177856
0.714971 0.1 -0.75 0.196698
0.714971 0.1 0.75 0.135724
1.02149 0.1 0.184814 0.242887
1.02149 0.1 -0.184814 0.269309
0.756814 0.1 -0.7125 0.203577
0.756814 0.1 0.7125 0.142369
0.522865 0.1 0.9 0.113416
0.93886 0.1 -0.45 0.246876
0.93886 0.1 0.45 0.193884
1.04168 0.1 0 0.265545
1.04168 0.1 -0.0729162 0.27027
1.04168 0.1 0.0729162 0.259229
0.522865 0.1 -0.903998 0.173044
0.797314 0.1 -0.675 0.210986
0.797314 0.1 0.675 0.149621
0.467897 0.1 0.9375 0.108847
0.467897 0.1 -0.9375 0.167441
0 0.1 1.05 0.113178
0 0.1 -1.05 0.168169
0.835106 0.1 -0.6375 0.218633
0.835106 0.1 0.6375 0.157261
1.04168 0.1 -0.145832 0.273119
1.04168 0.1 0.145832 0.251389
1.02149 0.1 -0.25874 0.269673
1.02149 0.1 0.25874 0.233103
0.969689 0.1 -0.4125 0.254998
0.969689 0.1 0.4125 0.203448
0.411108 0.1 0.975 0.105454
0.411108 0.1 -0.975 0.16344
0.871687 0.1 -0.6 0.226262
0.871687 0.1 0.6 0.165248
1.0579 0.1 -0.0360525 0.271886
1.0579 0.1 0.0360525 0.266308
0.990306 0.1 -0.375 0.259704
0.990306 0.1 0.375 0.211062
0.150379 0.1 1.05 0.105329
0.150379 0.1 -1.05 0.160585
1.0579 0.1 0.108157 0.259162
1.0579 0.1 -0.108157 0.275868
1.04168 0.1 -0.218749 0.274212
1.04168 0.1 0.218749 0.242169
0.90582 0.1 -0.5625 0.234157
0.90582 0.1 0.5625 0.17371
0 0.1 -1.06799 0.167352
0 0.1 1.06799 0.11184
0.0363518 0.1 -1.06799 0.167352
0.0363518 0.1 1.06799 0.11184
0.350249 0.1 1.0125 0.10236
0.350249 0.1 -1.0125 0.159652
1.0579 0.1 -0.180262 0.27775
1.0579 0.1 0.180262 0.250565
1.02149 0.1 -0.332665 0.268345
1.02149 0.1 0.332665 0.222202
0.93886 0.1 -0.525 0.242425
0.93886 0.1 0.525 0.182584
1.08012 0.1 5.49329e-18 0.274025
1.04168 0.1 -0.291665 0.273807
1.04168 0.1 0.291665 0.231744
1.08012 0.1 0.0709941 0.267532
1.08012 0.1 -0.0709941 0.278955
0.969689 0.1 -0.4875 0.250879
0.96969 0.1 0.4875 0.191884
1.0579 0.1 0.252367 0.240684
1.0579 0.1 -0.252367 0.278178
0.990306 0.1 -0.45 0.256082
0.990306 0.1 0.45 0.199438
0.287374 0.1 -1.05 0.155586
0.287374 0.1 1.05 0.0986166
0.714971 0.1 0.821002 0.127537
1.08012 0.1 -0.141988 0.282013
1.08012 0.1 0.141988 0.259522
0.075776 0.1 1.0875 0.110392
0.075776 0.1 -1.0875 0.166467
0.714971 0.1 -0.825 0.191581
0.756813 0.1 -0.7875 0.19829
0.756814 0.1 0.7875 0.133051
0.67013 0.1 -0.8625 0.185125
0.67013 0.1 0.8625 0.121124
0.797314 0.1 -0.75 0.205564
0.797314 0.1 0.75 0.139838
0.623803 0.1 0.9 0.115797
0.835106 0.1 -0.7125 0.213104
0.835106 0.1 0.7125 0.14701
0.623803 0.1 -0.903998 0.179654
0.574156 0.1 0.9375 0.110792
0.574156 0.1 -0.9375 0.173299
1.02149 0.1 -0.406591 0.265279
1.02149 0.1 0.406591 0.210389
1.08012 0.1 -0.212982 0.28324
1.08012 0.1 0.212982 0.250144
1.10076 0.1 -0.0349809 0.281674
1.10076 0.1 0.0349809 0.275841
0.871687 0.1 -0.675 0.220663
0.871687 0.1 0.675 0.154484
1.04168 0.1 -0.364581 0.271695
1.04168 0.1 0.364581 0.220305
1.10076 0.1 -0.104943 0.285966
1.10076 0.1 0.104943 0.268422
0.522865 0.1 0.975 0.106329
0.522865 0.1 -0.975 0.168166
1.0579 0.1 -0.324472 0.277013
1.0579 0.1 0.324472 0.229693
0 0.1 -1.10701 0.165529
0 0.1 1.10701 0.108968
0.0363518 0.1 1.10701 0.108968
0.0363518 0.1 -1.10701 0.165529
0.90582 0.1 0.6375 0.162439
0.905821 0.1 -0.6375 0.228525
0.219992 0.1 1.0875 0.0950324
0.219992 0.1 -1.0875 0.151604
0.93886 0.1 0.6 0.170954
0.93886 0.1 -0.6 0.2369
1.10076 0.1 -0.174905 0.288055
1.10076 0.1 0.174905 0.259545
0.467897 0.1 1.0125 0.102138
0.467897 0.1 -1.0125 0.163211
1.08012 0.1 -0.283976 0.282953
1.08012 0.1 0.283976 0.239567
1.11928 0.1 3.93204e-18 0.282735
0.990306 0.1 -0.525 0.251074
0.990306 0.1 0.525 0.187263
0.96969 0.1 -0.5625 0.245522
0.969689 0.1 0.5625 0.179859
1.11928 0.1 -0.0690357 0.287911
1.11928 0.1 0.0690357 0.275991
0 0.1 1.125 0.107658
0 0.1 -1.125 0.164667
0.411108 0.1 -1.05 0.159398
0.411108 0.1 1.05 0.0991077
1.10076 0.1 0.244866 0.249383
1.10076 0.1 -0.244866 0.288592
1.11928 0.1 -0.138072 0.291211
1.11928 0.1 0.138072 0.267718
1.02149 0.1 0.480517 0.197889
1.02149 0.1 -0.480517 0.260592
1.0579 0.1 -0.396577 0.274103
1.0579 0.1 0.396577 0.217794
1.04168 0.1 -0.437497 0.26788
1.04168 0.1 0.437497 0.208064
0.150379 0.1 1.125 0.0997901
0.150379 0.1 -1.125 0.157048
0.714971 0.1 0.88201 0.120907
1.08012 0.1 0.354971 0.227978
1.08012 0.1 -0.354971 0.280988
1.11928 0.1 -0.207107 0.292598
1.11928 0.1 0.207107 0.258071
0.350249 0.1 -1.0875 0.155804
0.350249 0.1 1.0875 0.0963605
0 0.1 1.14299 0.106347
0 0.1 -1.14299 0.163805
0.0363518 0.1 1.14299 0.106347
0.0363518 0.1 -1.14299 0.163805
1.14316 0.1 -0.0339211 0.291414
1.14316 0.1 0.0339211 0.28531
0.797314 0.1 0.821002 0.130554
1.10076 0.1 -0.314829 0.287606
1.10076 0.1 0.314829 0.238103
0.797314 0.1 -0.825 0.199656
0.756814 0.1 -0.8625 0.192589
0.756814 0.1 0.8625 0.123838
1.14316 0.1 -0.101763 0.29592
1.14316 0.1 0.101763 0.277617
0.835106 0.1 -0.7875 0.207009
0.835106 0.1 0.7875 0.136796
0.871687 0.1 -0.75 0.21441
0.871687 0.1 0.75 0.143706
0.67013 0.1 0.9375 0.112918
0.67013 0.1 -0.9375 0.179874
0.90582 0.1 -0.7125 0.222135
0.905821 0.1 0.7125 0.1511
0.714971 0.1 -0.903998 0.186726
1.11928 0.1 0.276143 0.247218
1.11928 0.1 -0.276143 0.292431
1.14316 0.1 0.169605 0.26846
1.14316 0.1 -0.169605 0.298299
0.93886 0.1 -0.675 0.230483
0.93886 0.1 0.675 0.159207
1.15704 0.1 0 0.291359
1.0579 0.1 0.468682 0.2052
1.0579 0.1 -0.468682 0.269545
0.623803 0.1 0.975 0.108044
0.623803 0.1 -0.975 0.174071
0.990306 0.1 0.6 0.174765
0.990306 0.1 -0.6 0.244905
1.15704 0.1 -0.0671479 0.296798
1.15704 0.1 0.0671479 0.284347
1.04168 0.1 -0.510414 0.26254
1.04168 0.1 0.510414 0.195251
0.969689 0.1 -0.6375 0.239131
0.969689 0.1 0.6375 0.16767
1.08012 0.1 0.425965 0.215579
1.08012 0.1 -0.425965 0.277292
0.287374 0.1 -1.125 0.151834
0.287374 0.1 1.125 0.0928699
1.02149 0.1 -0.554443 0.254562
1.02149 0.1 0.554443 0.184945
0.574156 0.1 1.0125 0.103477
0.574156 0.1 -1.0125 0.168495
1.15704 0.1 -0.134296 0.300372
1.15704 0.1 0.134296 0.2758
0.075776 0.1 1.1625 0.104929
0.075776 0.1 -1.1625 0.162873
1.10076 0.1 -0.384791 0.284792
1.10076 0.1 0.384791 0.225904
1.14316 0.1 -0.237448 0.298956
1.14316 0.1 0.237448 0.25801
1.11928 0.1 -0.345179 0.290583
1.11928 0.1 0.345179 0.235341
0.522865 0.1 1.05 0.0994077
0.522865 0.1 -1.05 0.163551
1.15704 0.1 -0.201444 0.301958
1.15704 0.1 0.201444 0.265877
1.1744 0.1 -0.0331401 0.298437
1.1744 0.1 0.0331401 0.292106
1.1744 0.1 -0.0994202 0.303213
1.1744 0.1 0.0994202 0.284173
0 0.1 1.18201 0.103546
0 0.1 -1.18201 0.161898
0.0363518 0.1 1.18201 0.103546
0.0363518 0.1 -1.18201 0.161898
0.219992 0.1 1.1625 0.0895312
0.219993 0.1 -1.1625 0.147951
1.14316 0.1 0.30529 0.246434
1.14316 0.1 -0.30529 0.298106
0.467897 0.1 1.0875 0.0955938
0.467897 0.1 -1.0875 0.158787
1.1744 0.1 -0.1657 0.305843
1.1744 0.1 0.1657 0.274778
1.15704 0.1 -0.268592 0.301948
1.15704 0.1 0.268592 0.254747
1.0579 0.1 0.540787 0.192141
1.0579 0.1 -0.540787 0.263551
0.796996 0.1 0.88201 0.12287
1.08012 0.1 -0.496959 0.272018
1.08012 0.1 0.496959 0.202593
1.10076 0.1 0.454752 0.212993
1.10076 0.1 -0.454752 0.28028
1.11928 0.1 -0.414214 0.28695
1.11928 0.1 0.414214 0.222644
1.04168 0.1 -0.58333 0.255953
1.04168 0.1 0.58333 0.182084
1.1744 0.1 -0.231981 0.306606
1.1744 0.1 0.231981 0.264097
0.871687 0.1 0.821002 0.133518
0.411108 0.1 1.125 0.0929156
0.411108 0.1 -1.125 0.15518
1.19808 0.1 1.73472e-17 0.300863
0.990306 0.1 0.675 0.162173
0.990306 0.1 -0.675 0.237782
1.02149 0.1 0.628368 0.171753
1.02149 0.1 -0.628368 0.247455
1.19808 0.1 -0.0650961 0.30661
1.19808 0.1 0.0650961 0.293538
0 0.1 1.2 0.102274
0 0.1 -1.2 0.161002
0.871687 0.1 -0.825 0.207656
0.905821 0.1 -0.7875 0.21516
0.90582 0.1 0.7875 0.139823
0.835106 0.1 -0.8625 0.200485
0.835106 0.1 0.8625 0.126763
0.93886 0.1 -0.75 0.223366
0.93886 0.1 0.75 0.147496
1.14316 0.1 -0.373132 0.295394
1.14316 0.1 0.373132 0.233929
0.969689 0.1 0.7125 0.155504
0.969689 0.1 -0.7125 0.231896
1.15704 0.1 -0.33574 0.300265
1.15704 0.1 0.33574 0.24259
0.756813 0.1 0.9375 0.114833
0.756814 0.1 -0.9375 0.186579
1.19808 0.1 0.130192 0.284681
1.19808 0.1 -0.130192 0.310533
0.797314 0.1 -0.903998 0.194091
0.714971 0.1 0.975 0.109709
0.714971 0.1 -0.975 0.180354
0.150379 0.1 1.2 0.0943792
0.150379 0.1 -1.2 0.153355
1.20938 0.1 -0.0322656 0.306527
1.20938 0.1 0.0322656 0.299927
1.1744 0.1 -0.298261 0.305981
1.1744 0.1 0.298261 0.252291
1.20938 0.1 -0.0967968 0.311578
1.20938 0.1 0.0967968 0.291718
1.19808 0.1 -0.195288 0.312403
1.19808 0.1 0.195288 0.274456
0.350249 0.1 1.1625 0.0905026
0.350249 0.1 -1.1625 0.151796
0.67013 0.1 1.0125 0.104924
0.67013 0.1 -1.0125 0.174389
0 0.1 1.21799 0.101002
0 0.1 -1.21799 0.160105
0.0363518 0.1 -1.21799 0.160105
0.0363518 0.1 1.21799 0.101002
1.11928 0.1 -0.48325 0.281678
1.11928 0.1 0.48325 0.209343
1.10076 0.1 -0.524714 0.274258
1.10076 0.1 0.524714 0.199599
1.20938 0.1 0.161328 0.282056
1.20938 0.1 -0.161328 0.314554
1.08012 0.1 0.567953 0.189237
1.08012 0.1 -0.567953 0.265425
0.623803 0.1 1.05 0.10051
0.623803 0.1 -1.05 0.168836
1.0579 0.1 -0.612892 0.256433
1.0579 0.1 0.612892 0.178825
1.15704 0.1 -0.402888 0.29675
1.15704 0.1 0.402888 0.229604
1.14316 0.1 0.440974 0.220697
1.14316 0.1 -0.440974 0.290948
1.19808 0.1 -0.260384 0.312613
1.19808 0.1 0.260384 0.263029
1.2267 0.1 3.57064e-18 0.307074
1.2267 0.1 -0.0636649 0.313042
1.2267 0.1 0.0636649 0.299524
1.1744 0.1 -0.364541 0.303413
1.1744 0.1 0.364541 0.239556
0.574156 0.1 1.0875 0.0963818
0.574156 0.1 -1.0875 0.163516
1.20938 0.1 0.225859 0.271116
1.20938 0.1 -0.225859 0.315472
1.04168 0.1 -0.656246 0.248351
1.04168 0.1 0.656246 0.16877
1.2267 0.1 -0.12733 0.317223
1.2267 0.1 0.12733 0.290447
0.287374 0.1 1.2 0.0872605
0.287374 0.1 -1.2 0.147936
1.02149 0.1 -0.702294 0.239462
1.02149 0.1 0.702294 0.158514
0.075776 0.1 -1.2375 0.159136
0.075776 0.1 1.2375 0.0996254
0.871399 0.1 0.88201 0.125101
0.522865 0.1 1.125 0.0926971
0.522865 0.1 -1.125 0.158778
1.2267 0.1 -0.190994 0.319321
1.2267 0.1 0.190994 0.280008
1.19808 0.1 -0.32548 0.311176
1.19808 0.1 0.32548 0.250576
0.990306 0.1 -0.75 0.229926
0.990306 0.1 0.75 0.149635
1.24274 0.1 -0.0314313 0.314092
1.24274 0.1 0.0314313 0.307212
1.20938 0.1 -0.29039 0.315091
1.20938 0.1 0.29039 0.259053
1.24274 0.1 -0.0942942 0.319408
1.24274 0.1 0.0942942 0.298725
0.93886 0.1 0.821002 0.136462
1.11928 0.1 -0.552285 0.275011
1.11928 0.1 0.552285 0.195657
1.15704 0.1 -0.470036 0.291526
1.15704 0.1 0.470036 0.216005
0.969689 0.1 -0.7875 0.224049
0.96969 0.1 0.7875 0.143462
0.93886 0.1 -0.825 0.215733
0.90582 0.1 0.8625 0.128749
0.905821 0.1 -0.8625 0.207759
1.1744 0.1 -0.430821 0.299099
1.1744 0.1 0.430821 0.226091
1.10076 0.1 -0.594676 0.267031
1.10076 0.1 0.594676 0.185929
1.14316 0.1 -0.508816 0.284889
1.14316 0.1 0.508816 0.206966
1.24274 0.1 -0.157157 0.32276
1.24274 0.1 0.157157 0.288797
1.2267 0.1 -0.254659 0.319705
1.2267 0.1 0.254659 0.268372
0.467897 0.1 1.1625 0.0892479
0.467897 0.1 -1.1625 0.154217
1.08012 0.1 0.638947 0.175721
1.08012 0.1 -0.638947 0.257748
1.25511 0.1 -5.78241e-19 0.313258
0.835106 0.1 -0.9375 0.193657
0.835106 0.1 0.9375 0.116958
0.871687 0.1 -0.903998 0.201329
1.25511 0.1 0.0622446 0.305487
1.25511 0.1 -0.0622446 0.319442
0.219992 0.1 1.2375 0.084158
0.219992 0.1 -1.2375 0.144164
0 0.1 -1.25701 0.158132
0 0.1 1.25701 0.0982867
0.0363518 0.1 -1.25701 0.158132
0.0363518 0.1 1.25701 0.0982867
0.797314 0.1 0.975 0.111365
0.797314 0.1 -0.975 0.18686
1.19808 0.1 -0.390576 0.307871
1.19808 0.1 0.390576 0.237295
1.0579 0.1 -0.684997 0.248357
1.0579 0.1 0.684997 0.165466
1.20938 0.1 -0.354921 0.312731
1.20938 0.1 0.354921 0.246062
1.25511 0.1 0.124489 0.296195
1.25511 0.1 -0.124489 0.323878
1.24274 0.1 -0.220019 0.32389
1.24274 0.1 0.220019 0.277598
0.756813 0.1 1.0125 0.10611
0.756814 0.1 -1.0125 0.180361
1.2267 0.1 -0.318324 0.318461
1.2267 0.1 0.318324 0.255713
0.411108 0.1 1.2 0.086913
0.411108 0.1 -1.2 0.150831
1.25511 0.1 -0.186734 0.326217
1.25511 0.1 0.186734 0.285548
0.714971 0.1 1.05 0.101505
0.714971 0.1 -1.05 0.174426
1.04168 0.1 -0.729162 0.239958
1.04168 0.1 0.729162 0.1555
1.24274 0.1 0.282882 0.265281
1.24274 0.1 -0.282882 0.32374
0 0.1 1.275 0.0970553
0 0.1 -1.275 0.157209
1.1744 0.1 0.497102 0.212124
1.1744 0.1 -0.497102 0.293062
1.15704 0.1 -0.537184 0.284817
1.15704 0.1 0.537184 0.202012
1.2756 0.1 -0.03061 0.321453
1.2756 0.1 0.03061 0.314271
0.67013 0.1 1.0875 0.0972164
0.67013 0.1 -1.0875 0.168744
1.2756 0.1 -0.09183 0.327037
1.2756 0.1 0.09183 0.305503
1.25511 0.1 -0.248978 0.326783
1.25511 0.1 0.248978 0.273708
1.20938 0.1 0.419453 0.232344
1.20938 0.1 -0.419453 0.308599
1.11928 0.1 -0.621322 0.267187
1.11928 0.1 0.621322 0.181791
1.14316 0.1 -0.576659 0.277548
1.14316 0.1 0.576659 0.192943
1.19808 0.1 -0.455673 0.302786
1.19808 0.1 0.455673 0.223396
1.02149 0.1 0.776219 0.145362
1.02149 0.1 -0.776219 0.230842
0.150379 0.1 1.275 0.0891239
0.150379 0.1 -1.275 0.149541
1.2756 0.1 -0.15305 0.330776
1.2756 0.1 0.15305 0.295306
1.2267 0.1 -0.381989 0.315335
1.2267 0.1 0.381989 0.242228
1.10076 0.1 -0.664638 0.258756
1.10076 0.1 0.664638 0.172191
0.350249 0.1 1.2375 0.0848125
0.350249 0.1 -1.2375 0.14767
0.623803 0.1 1.125 0.0932443
0.623803 0.1 -1.125 0.163468
0.9386 0.1 0.88201 0.127383
0.990306 0.1 0.825 0.137697
0.990306 0.1 -0.825 0.221548
1.24274 0.1 -0.345745 0.321636
1.24274 0.1 0.345745 0.252039
1.2906 0.1 0 0.320948
1.07933 0.1 0.709941 0.162259
1.2906 0.1 -0.0604698 0.327475
1.2906 0.1 0.0604698 0.312831
1.08012 0.1 -0.709941 0.249212
0 0.1 1.29299 0.0958235
0 0.1 -1.29299 0.156287
1.25511 0.1 0.311223 0.260845
1.25511 0.1 -0.311223 0.325732
1.2756 0.1 -0.214269 0.332249
1.2756 0.1 0.214269 0.283844
0.0363518 0.1 1.29299 0.0958235
0.0363518 0.1 -1.29299 0.156287
1.2906 0.1 -0.12094 0.332316
1.2906 0.1 0.12094 0.303208
0.574156 0.1 1.1625 0.0895443
0.574157 0.1 -1.1625 0.158418
0.969689 0.1 0.8625 0.131743
0.969689 0.1 -0.8625 0.21576
1.0579 0.1 0.757102 0.15227
1.0579 0.1 -0.757102 0.239603
1.1744 0.1 -0.563382 0.285693
1.1744 0.1 0.563382 0.197864
1.20938 0.1 0.483984 0.218117
1.20938 0.1 -0.483984 0.302646
1.2906 0.1 -0.181409 0.335082
1.2906 0.1 0.181409 0.292244
0.93886 0.1 -0.903998 0.208629
0.90582 0.1 0.9375 0.118084
0.90582 0.1 -0.9375 0.200105
1.2756 0.1 0.275489 0.271272
1.2756 0.1 -0.275489 0.332298
1.2267 0.1 -0.445653 0.310379
1.2267 0.1 0.445653 0.228125
1.15704 0.1 -0.604332 0.276882
1.15704 0.1 0.604332 0.18783
1.19808 0.1 -0.520769 0.296109
1.19808 0.1 0.520769 0.209099
1.30646 0.1 0.0298385 0.320595
1.30646 0.1 -0.0298385 0.328069
0.287374 0.1 -1.275 0.143929
0.287374 0.1 1.275 0.0818152
0.871687 0.1 0.975 0.112609
0.871687 0.1 -0.975 0.193219
1.24274 0.1 0.408607 0.238074
1.24274 0.1 -0.408607 0.317717
0.522865 0.1 1.2 0.0862389