# pMean  POINT_DATA 63840
# x  y  z  pMean
0 0.5 3.39583e-17 0.157425
0 0.5 -0.00617931 0.157624
0 0.5 0.00617931 0.15723
0.0124865 0.5 -0.00617931 0.157624
0.0124865 0.5 0.00617931 0.15723
0 0.5 -0.0688207 0.159432
0 0.5 0.0688207 0.155045
0.0124865 0.5 -0.0688207 0.159432
0.0124865 0.5 0.0688207 0.155045
0 0.5 -0.075 0.15959
0 0.5 0.075 0.154808
0 0.5 -0.0811793 0.159752
0 0.5 0.0811793 0.154575
0.0124865 0.5 -0.0811793 0.159752
0.0124865 0.5 0.0811793 0.154575
0.075776 0.5 -0.0375 0.158629
0.075776 0.5 0.0375 0.15624
0.075776 0.5 -0.1125 0.16057
0.075776 0.5 0.1125 0.153394
0 0.5 -0.143821 0.161154
0 0.5 0.143821 0.152022
0.0124865 0.5 -0.143821 0.161154
0.0124865 0.5 0.143821 0.152022
0 0.5 -0.15 0.161269
0 0.5 0.15 0.15175
0.151149 0.5 -0.00137318 0.157481
0 0.5 -0.156179 0.161387
0 0.5 0.156179 0.151482
0.0124865 0.5 -0.156179 0.161387
0.0124865 0.5 0.156179 0.151482
0.151149 0.5 0.075 0.154926
0.151149 0.5 -0.075 0.159729
0.075776 0.5 -0.1875 0.161986
0.075776 0.5 0.1875 0.150124
0.151149 0.5 0.15 0.151839
0.151149 0.5 -0.15 0.161426
0 0.5 -0.218821 0.162363
0 0.5 0.218821 0.148588
0.0124865 0.5 -0.218821 0.162363
0.0124865 0.5 0.218821 0.148588
0.219992 0.5 0.0375 0.156496
0.219993 0.5 -0.0375 0.158898
0 0.5 -0.225 0.162437
0 0.5 0.225 0.148284
0 0.5 -0.231179 0.162514
0 0.5 0.231179 0.147983
0.0124865 0.5 -0.231179 0.162514
0.0124865 0.5 0.231179 0.147983
0.219992 0.5 0.1125 0.153589
0.219993 0.5 -0.1125 0.160831
0.151149 0.5 -0.225 0.162624
0.151149 0.5 0.225 0.148346
0.075776 0.5 -0.2625 0.162905
0.075776 0.5 0.2625 0.14646
0.288069 0.5 -0.00137318 0.160167
0.219992 0.5 0.1875 0.150267
0.219993 0.5 -0.1875 0.162326
0 0.5 0.293821 0.144776
0 0.5 -0.293821 0.163105
0.0124865 0.5 -0.293821 0.163105
0.0124865 0.5 0.293821 0.144776
0.288069 0.5 -0.075 0.162538
0.288069 0.5 0.075 0.157496
0 0.5 -0.3 0.163144
0 0.5 0.3 0.144443
0 0.5 0.306179 0.144113
0 0.5 -0.306179 0.163187
0.0124865 0.5 -0.306179 0.163187
0.0124865 0.5 0.306179 0.144113
0.288069 0.5 -0.15 0.164292
0.288069 0.5 0.15 0.154252
0.151149 0.5 -0.3 0.163341
0.151149 0.5 0.3 0.144477
0.219992 0.5 -0.2625 0.163283
0.219992 0.5 0.2625 0.146551
0.075776 0.5 0.3375 0.142442
0.075776 0.5 -0.3375 0.163401
0.350249 0.5 -0.0375 0.164023
0.350249 0.5 0.0375 0.161376
0.288069 0.5 -0.225 0.165516
0.288069 0.5 0.225 0.15057
0.350249 0.5 0.1125 0.158245
0.350249 0.5 -0.1125 0.166097
0 0.5 0.368821 0.140627
0 0.5 -0.368821 0.163389
0.0124865 0.5 -0.368821 0.163389
0.0124865 0.5 0.368821 0.140627
0 0.5 -0.375 0.163386
0 0.5 0.375 0.140268
0 0.5 -0.381179 0.163386
0 0.5 0.381179 0.139912
0.0124865 0.5 -0.381179 0.163386
0.0124865 0.5 0.381179 0.139912
0.350249 0.5 -0.1875 0.167604
0.350249 0.5 0.1875 0.154645
0.219992 0.5 -0.3375 0.163778
0.219992 0.5 0.3375 0.142476
0.151149 0.5 -0.375 0.163584
0.151149 0.5 0.375 0.14027
0.411736 0.5 -0.00137318 0.165915
0.288069 0.5 -0.3 0.166215
0.288069 0.5 0.3 0.146484
0.411736 0.5 -0.075 0.168467
0.411736 0.5 0.075 0.163029
0.075776 0.5 -0.4125 0.163388
0.075776 0.5 0.4125 0.13811
0.350249 0.5 -0.2625 0.168543
0.350249 0.5 0.2625 0.150574
0.411736 0.5 -0.15 0.170304
0.411736 0.5 0.15 0.159497
0 0.5 -0.443821 0.163179
0 0.5 0.443821 0.136181
0.0124865 0.5 -0.443821 0.163179
0.0124865 0.5 0.443821 0.136181
0 0.5 -0.45 0.163137
0 0.5 0.45 0.1358
0 0.5 -0.456179 0.163098
0 0.5 0.456179 0.13542
0.0124865 0.5 -0.456179 0.163098
0.0124865 0.5 0.456179 0.13542
0.219992 0.5 -0.4125 0.163771
0.219993 0.5 0.4125 0.138078
0.411736 0.5 -0.225 0.171534
0.411736 0.5 0.225 0.155467
0.467897 0.5 0.0375 0.167778
0.467897 0.5 -0.0375 0.17059
0.288069 0.5 -0.375 0.166398
0.288069 0.5 0.375 0.142043
0.151149 0.5 -0.45 0.163327
0.151149 0.5 0.45 0.135766
0.467897 0.5 -0.1125 0.172789
0.467897 0.5 0.1125 0.164368
0.350249 0.5 0.3375 0.146115
0.350249 0.5 -0.3375 0.168951
0.075776 0.5 -0.4875 0.162903
0.075776 0.5 0.4875 0.133504
0.467897 0.5 -0.1875 0.17435
0.467897 0.5 0.1875 0.160402
0.411736 0.5 -0.3 0.172174
0.411736 0.5 0.3 0.150986
0 0.5 -0.518821 0.162512
0 0.5 0.518821 0.13148
0.0124865 0.5 0.518821 0.13148
0.0124865 0.5 -0.518821 0.162512
0.523432 0.5 -0.00137318 0.172984
0 0.5 -0.525 0.162435
0 0.5 0.525 0.13108
0.523432 0.5 -0.075 0.175719
0.523432 0.5 0.075 0.169858
0 0.5 -0.531179 0.16236
0 0.5 0.531179 0.130682
0.0124865 0.5 -0.531179 0.16236
0.0124865 0.5 0.531179 0.130682
0.288069 0.5 -0.45 0.166048
0.288069 0.5 0.45 0.137291
0.219992 0.5 -0.4875 0.16325
0.219993 0.5 0.4875 0.133401
0.467897 0.5 -0.2625 0.175264
0.467897 0.5 0.2625 0.155941
0.350249 0.5 -0.4125 0.168796
0.350249 0.5 0.4125 0.141308
0.523432 0.5 -0.15 0.177655
0.523432 0.5 0.15 0.165988
0.151149 0.5 -0.525 0.162606
0.151149 0.5 0.525 0.131009
0.411736 0.5 -0.375 0.172228
0.411736 0.5 0.375 0.146109
0.075776 0.5 -0.5625 0.161983
0.075776 0.5 0.5625 0.12867
0.523432 0.5 -0.225 0.178902
0.523432 0.5 0.225 0.161551
0.574156 0.5 -0.0375 0.178368
0.574156 0.5 0.0375 0.175314
0.467897 0.5 0.3375 0.15103
0.467897 0.5 -0.3375 0.175565
0.574156 0.5 -0.1125 0.18072
0.574156 0.5 0.1125 0.171588
0 0.5 -0.593821 0.161418
0 0.5 0.593821 0.12657
0.0124865 0.5 -0.593821 0.161418
0.0124865 0.5 0.593821 0.12657
0.288069 0.5 -0.525 0.165202
0.288069 0.5 0.525 0.132276
0 0.5 -0.6 0.161306
0 0.5 0.6 0.126155
0.350249 0.5 -0.4875 0.168089
0.350249 0.5 0.4875 0.136206
0.523432 0.5 -0.3 0.179472
0.523432 0.5 0.3 0.156606
0.219992 0.5 -0.5625 0.162293
0.219992 0.5 0.5625 0.128493
0.574156 0.5 -0.1875 0.182344
0.574156 0.5 0.1875 0.167229
0 0.5 -0.606179 0.161196
0 0.5 0.606179 0.125741
0.0124865 0.5 -0.606179 0.161196
0.0124865 0.5 0.606179 0.125741
0.411736 0.5 -0.45 0.171692
0.411736 0.5 0.45 0.140891
0.151149 0.5 -0.6 0.161456
0.151149 0.5 0.6 0.126044
0.62168 0.5 2.64545e-17 0.180862
0.467897 0.5 0.4125 0.145727
0.467897 0.5 -0.4125 0.175237
0.624316 0.5 0.0729402 0.177699
0.624316 0.5 -0.075 0.184086
0.574156 0.5 -0.2625 0.18323
0.574157 0.5 0.2625 0.16229
0.075776 0.5 -0.6375 0.160645
0.075776 0.5 0.6375 0.123653
0.624316 0.5 -0.15 0.186139
0.624316 0.5 0.15 0.173439
0.523432 0.5 -0.375 0.179377
0.523432 0.5 0.375 0.151216
0.350249 0.5 -0.5625 0.166902
0.350249 0.5 0.5625 0.130862
0.624316 0.5 -0.225 0.187404
0.624316 0.5 0.225 0.168532
0.288069 0.5 0.6 0.12705
0.288069 0.5 -0.6 0.163904
0.574156 0.5 -0.3375 0.183414
0.574156 0.5 0.3375 0.156848
0.411736 0.5 -0.525 0.17061
0.411736 0.5 0.525 0.135391
0 0.5 -0.668821 0.159921
0 0.5 0.668821 0.121495
0.0124865 0.5 -0.668821 0.159921
0.0124865 0.5 0.668821 0.121495
0.67013 0.5 0.0375 0.183803
0.67013 0.5 -0.0375 0.187147
0.219993 0.5 -0.6375 0.16091
0.219993 0.5 0.6375 0.123398
0 0.5 -0.675 0.159778
0 0.5 0.675 0.121068
0.467897 0.5 0.4875 0.140097
0.467897 0.5 -0.4875 0.174296
0.67013 0.5 -0.1125 0.189679
0.67013 0.5 0.1125 0.179693
0 0.5 -0.681179 0.159637
0 0.5 0.681179 0.120643
0.0124865 0.5 -0.681179 0.159637
0.0124865 0.5 0.681179 0.120643
0.523432 0.5 -0.45 0.178623
0.523432 0.5 0.45 0.145447
0.151149 0.5 -0.675 0.159903
0.151149 0.5 0.675 0.120917
0.624316 0.5 -0.3 0.187896
0.624316 0.5 0.3 0.163046
0.67013 0.5 0.1875 0.174868
0.67013 0.5 -0.1875 0.191376
0.574156 0.5 -0.4125 0.182889
0.574157 0.5 0.4125 0.150973
0.708171 0.5 1.88651e-17 0.189169
0.075776 0.5 -0.7125 0.158927
0.075776 0.5 0.7125 0.118497
0.715434 0.5 0.0736268 0.186098
0.715434 0.5 -0.075 0.193289
0.67013 0.5 0.2625 0.169387
0.67013 0.5 -0.2625 0.192231
0.350249 0.5 -0.6375 0.165253
0.350249 0.5 0.6375 0.125334
0.411736 0.5 -0.6 0.169029
0.411736 0.5 0.6 0.129672
0.624316 0.5 -0.375 0.18763
0.624316 0.5 0.375 0.157061
0.715434 0.5 -0.15 0.195474
0.715434 0.5 0.15 0.181582
0.467897 0.5 -0.5625 0.172815
0.467897 0.5 0.5625 0.134206
0.288069 0.5 -0.675 0.162183
0.288069 0.5 0.675 0.121664
0.523432 0.5 -0.525 0.177256
0.523432 0.5 0.525 0.13937
0 0.5 -0.743821 0.158057
0 0.5 0.743821 0.1163
0.0124865 0.5 -0.743821 0.158057
0.0124865 0.5 0.743821 0.1163
0.219992 0.5 0.7125 0.118163
0.219992 0.5 -0.7125 0.159139
0.715434 0.5 -0.225 0.196762
0.715434 0.5 0.225 0.176136
0 0.5 -0.75 0.157885
0 0.5 0.75 0.115865
0.67013 0.5 0.3375 0.163335
0.67013 0.5 -0.3375 0.192278
0.574156 0.5 -0.4875 0.181678
0.574156 0.5 0.4875 0.144737
0 0.5 -0.756179 0.157715
0 0.5 0.756179 0.115432
0.0124865 0.5 -0.756179 0.157715
0.0124865 0.5 0.756179 0.115432
0.756813 0.5 -0.0375 0.196588
0.756813 0.5 0.0375 0.192922
0.151149 0.5 -0.75 0.157981
0.151149 0.5 0.75 0.115673
0.756813 0.5 -0.1125 0.199321
0.756813 0.5 0.1125 0.188378
0.624316 0.5 -0.45 0.186621
0.624316 0.5 0.45 0.150657
0.715434 0.5 -0.3 0.197166
0.715434 0.5 0.3 0.170037
0.756813 0.5 0.1875 0.183022
0.756813 0.5 -0.1875 0.201095
0.67013 0.5 -0.4125 0.19152
0.67013 0.5 0.4125 0.156797
0.411736 0.5 -0.675 0.166987
0.411736 0.5 0.675 0.123792
0.467897 0.5 0.6375 0.128122
0.467897 0.5 -0.6375 0.170826
0.075776 0.5 -0.7875 0.156859
0.075776 0.5 0.7875 0.113246
0.350249 0.5 -0.7125 0.163188
0.350249 0.5 0.7125 0.119674
0.523432 0.5 -0.6 0.175334
0.523432 0.5 0.6 0.13306
0.797732 0.5 2.68882e-17 0.199659
0.756813 0.5 -0.2625 0.201919
0.756814 0.5 0.2625 0.176928
0.797732 0.5 0.0736268 0.195142
0.797732 0.5 -0.075 0.20301
0.288069 0.5 -0.75 0.160078
0.288069 0.5 0.75 0.116168
0.574156 0.5 -0.5625 0.17986
0.574157 0.5 0.5625 0.138221
0.715434 0.5 -0.375 0.196703
0.715434 0.5 0.375 0.163377
0.797732 0.5 -0.15 0.205344
0.797732 0.5 0.15 0.190118
0.624316 0.5 -0.525 0.184923
0.624316 0.5 0.525 0.143919
0.219992 0.5 -0.7875 0.157014
0.219992 0.5 0.7875 0.112832
0 0.5 -0.818821 0.155859
0 0.5 0.818821 0.111027
0.0124865 0.5 0.818821 0.111027
0.0124865 0.5 -0.818821 0.155859
0 0.5 -0.825 0.155661
0 0.5 0.825 0.110589
0.756813 0.5 0.3375 0.170188
0.756814 0.5 -0.3375 0.201814
0.67013 0.5 -0.4875 0.18999
0.67013 0.5 0.4875 0.149863
0.797732 0.5 -0.225 0.206658
0.797732 0.5 0.225 0.184071
0 0.5 -0.831179 0.155465
0 0.5 0.831179 0.110151
0.0124865 0.5 -0.831179 0.155465
0.0124865 0.5 0.831179 0.110151
0.835106 0.5 0.0375 0.20236
0.835106 0.5 -0.0375 0.20639
0.151149 0.5 -0.825 0.155726
0.151149 0.5 0.825 0.110356
0.835106 0.5 0.1125 0.197337
0.835106 0.5 -0.1125 0.209351
0.715434 0.5 -0.45 0.195397
0.715434 0.5 0.45 0.156255
0.797732 0.5 -0.3 0.20697
0.797732 0.5 0.3 0.177291
0.467897 0.5 0.7125 0.121908
0.467897 0.5 -0.7125 0.168382
0.523432 0.5 -0.675 0.172905
0.523432 0.5 0.675 0.126589
0.411736 0.5 -0.75 0.164532
0.411736 0.5 0.75 0.117812
0.835106 0.5 -0.1875 0.211212
0.835106 0.5 0.1875 0.191397
0.574156 0.5 -0.6375 0.177478
0.574157 0.5 0.6375 0.131506
0.350249 0.5 -0.7875 0.160747
0.350249 0.5 0.7875 0.113938
0.756813 0.5 -0.4125 0.200787
0.756814 0.5 0.4125 0.162913
0.075776 0.5 -0.8625 0.154477
0.075776 0.5 0.8625 0.107943
0.624316 0.5 0.6 0.136937
0.624316 0.5 -0.6 0.182603
0.872064 0.5 5.91974e-17 0.209396
0.870122 0.5 0.075 0.204131
0.288069 0.5 -0.825 0.157628
0.288069 0.5 0.825 0.110609
0.67013 0.5 -0.5625 0.187774
0.67013 0.5 0.5625 0.142632
0.872064 0.5 -0.075 0.213052
0.835106 0.5 -0.2625 0.212009
0.835106 0.5 0.2625 0.184628
0.797732 0.5 -0.375 0.20629
0.797732 0.5 0.375 0.169888
0.872064 0.5 0.14794 0.19887
0.872064 0.5 -0.15 0.215541
0.715434 0.5 -0.525 0.193314
0.715434 0.5 0.525 0.148773
0.219992 0.5 0.8625 0.107453
0.219993 0.5 -0.8625 0.154571
0 0.5 -0.893821 0.153361
0 0.5 0.893821 0.105724
0.0124865 0.5 -0.893821 0.153361
0.0124865 0.5 0.893821 0.105724
0 0.5 -0.9 0.15314
0 0.5 0.9 0.105285
0.756813 0.5 -0.4875 0.198892
0.756813 0.5 0.4875 0.155207
0.872064 0.5 -0.225 0.216875
0.872064 0.5 0.225 0.192172
0.835106 0.5 -0.3375 0.211745
0.835106 0.5 0.3375 0.177139
0 0.5 0.906179 0.104848
0 0.5 -0.906179 0.152921
0.0124865 0.5 -0.906179 0.152921
0.0124865 0.5 0.906179 0.104848
0.90582 0.5 -0.0375 0.216454
0.90582 0.5 0.0375 0.212038
0.151149 0.5 -0.9 0.153174
0.151149 0.5 0.9 0.105015
0.90582 0.5 -0.1125 0.219659
0.905821 0.5 0.1125 0.206506
0.523432 0.5 -0.75 0.170029
0.523432 0.5 0.75 0.120026
0.574156 0.5 -0.7125 0.174599
0.574156 0.5 0.7125 0.124669
0.797732 0.5 -0.45 0.204656
0.797732 0.5 0.45 0.161982
0.467897 0.5 0.7875 0.115628
0.467897 0.5 -0.7875 0.165536
0.624316 0.5 -0.675 0.179724
0.624316 0.5 0.675 0.129797
0.411736 0.5 -0.825 0.161712
0.411736 0.5 0.825 0.111788
0.872064 0.5 0.3 0.184655
0.872064 0.5 -0.3 0.217092
0.67013 0.5 -0.6375 0.184932
0.67013 0.5 0.6375 0.135201
0.90582 0.5 0.1875 0.199939
0.905821 0.5 -0.1875 0.221584
0.350249 0.5 -0.8625 0.157976
0.350249 0.5 0.8625 0.108175
0.835106 0.5 -0.4125 0.21043
0.835106 0.5 0.4125 0.169064
0.715434 0.5 -0.6 0.190535
0.715434 0.5 0.6 0.141039
0.939201 0.5 2.75387e-17 0.219113
0.075776 0.5 0.9375 0.102638
0.075776 0.5 -0.9375 0.151818
0.939111 0.5 0.075 0.213402
0.939201 0.5 -0.075 0.223115
0.756813 0.5 0.5625 0.147185
0.756814 0.5 -0.5625 0.196221
0.90582 0.5 0.2625 0.192445
0.905821 0.5 -0.2625 0.222338
0.288069 0.5 -0.9 0.154874
0.288069 0.5 0.9 0.10504
0.872064 0.5 -0.375 0.216184
0.872064 0.5 0.375 0.176448
0.939201 0.5 0.148627 0.207383
0.939201 0.5 -0.15 0.225778
0.797732 0.5 -0.525 0.202148
0.797732 0.5 0.525 0.15369
0.219992 0.5 0.9375 0.10208
0.219992 0.5 -0.9375 0.151848
0.939201 0.5 -0.225 0.227128
0.939201 0.5 0.225 0.200125
0.905821 0.5 -0.3375 0.22192
0.90582 0.5 0.3375 0.184157
0.835106 0.5 -0.4875 0.208147
0.835106 0.5 0.4875 0.16053
0 0.5 0.968821 0.10043
0 0.5 -0.968821 0.1506
0.0124865 0.5 -0.968821 0.1506
0.0124865 0.5 0.968821 0.10043
0.969689 0.5 -0.0375 0.226265
0.969689 0.5 0.0375 0.221407
0.574156 0.5 -0.7875 0.171287
0.574156 0.5 0.7875 0.117783
0 0.5 -0.975 0.150359
0 0.5 0.975 0.0999938
0.624316 0.5 -0.75 0.17636
0.624316 0.5 0.75 0.122582
0.969689 0.5 -0.1125 0.229785
0.96969 0.5 0.1125 0.215315
0.523432 0.5 -0.825 0.166764
0.523432 0.5 0.825 0.113439
0.67013 0.5 0.7125 0.127661
0.67013 0.5 -0.7125 0.181544
0 0.5 -0.981179 0.15012
0 0.5 0.981179 0.0995586
0.467897 0.5 0.8625 0.109342
0.467897 0.5 -0.8625 0.162341
0.0124865 0.5 -0.981179 0.15012
0.0124865 0.5 0.981179 0.0995586
0.872064 0.5 -0.45 0.214195
0.872064 0.5 0.45 0.167697
0.715434 0.5 -0.675 0.187139
0.715434 0.5 0.675 0.133156
0.939201 0.5 -0.3 0.227266
0.939201 0.5 0.3 0.191828
0.151149 0.5 0.975 0.0996872
0.151149 0.5 -0.975 0.15036
0.969689 0.5 -0.1875 0.231781
0.969689 0.5 0.1875 0.208075
0.756813 0.5 -0.6375 0.192856
0.756813 0.5 0.6375 0.138967
0.411736 0.5 -0.9 0.158578
0.411736 0.5 0.9 0.105773
0.90582 0.5 -0.4125 0.220294
0.90582 0.5 0.4125 0.175213
0.995005 0.5 0.0749309 0.221535
0.797732 0.5 -0.6 0.198858
0.797732 0.5 0.6 0.145143
1.00005 0.5 -8.47123e-18 0.228562
0.350249 0.5 -0.9375 0.154918
0.350249 0.5 0.9375 0.102434
1.00005 0.5 -0.0749309 0.232927
0.969689 0.5 -0.2625 0.232504
0.969689 0.5 0.2625 0.199816
0.835106 0.5 -0.5625 0.204981
0.835106 0.5 0.5625 0.151658
1.00005 0.5 -0.149862 0.235732
0.939201 0.5 -0.375 0.226151
0.939201 0.5 0.375 0.182777
1.00029 0.5 0.148988 0.215662
0.075776 0.5 -1.0125 0.148915
0.075776 0.5 1.0125 0.0973606
0.288069 0.5 0.975 0.0994986
0.288069 0.5 -0.975 0.151857
0.872064 0.5 -0.525 0.211218
0.872064 0.5 0.525 0.158542
1.00005 0.5 0.224793 0.207735
1.00005 0.5 -0.224793 0.237037
0.969689 0.5 0.3375 0.190695
0.96969 0.5 -0.3375 0.232002
1.0271 0.5 -0.0368226 0.235952
1.0271 0.5 0.0368226 0.230736
0.90582 0.5 0.4875 0.165794
0.905821 0.5 -0.4875 0.217576
1.0271 0.5 -0.110468 0.239721
1.0271 0.5 0.110468 0.223035
0.67013 0.5 0.7875 0.120098
0.67013 0.5 -0.7875 0.177691
0.624316 0.5 0.825 0.115368
0.624316 0.5 -0.825 0.172583
0.219993 0.5 -1.0125 0.148881
0.219993 0.5 1.0125 0.0967281
0.574156 0.5 -0.8625 0.16761
0.574156 0.5 0.8625 0.110919
0.715434 0.5 -0.75 0.183216
0.715434 0.5 0.75 0.125219
0.756813 0.5 0.7125 0.130659
0.756814 0.5 -0.7125 0.188894
0.523432 0.5 -0.9 0.163173
0.523432 0.5 0.9 0.106889
0.939201 0.5 -0.45 0.2238
0.939201 0.5 0.45 0.173142
1.04168 0.5 0 0.236178
1.0271 0.5 -0.184113 0.241697
1.0271 0.5 0.184113 0.216347
0 0.5 -1.04382 0.147612
0 0.5 1.04382 0.0951823
0.0124865 0.5 -1.04382 0.147612
0.0124865 0.5 1.04382 0.0951823
1.00005 0.5 -0.299723 0.237113
1.00005 0.5 0.299723 0.19861
1.04168 0.5 -0.0729162 0.240763
1.04168 0.5 0.0729162 0.230222
0.797732 0.5 -0.675 0.194889
0.797732 0.5 0.675 0.136465
0.467897 0.5 0.9375 0.103104
0.467897 0.5 -0.9375 0.158851
0 0.5 -1.05 0.147353
0 0.5 1.05 0.0947518
0.835106 0.5 -0.6375 0.201044
0.835106 0.5 0.6375 0.142613
1.04168 0.5 -0.145832 0.2437
1.04168 0.5 0.145832 0.222954
0.969689 0.5 -0.4125 0.23009
0.96969 0.5 0.4125 0.180874
0 0.5 -1.05618 0.147097
0 0.5 1.05618 0.0943223
0.0124865 0.5 -1.05618 0.147097
0.0124865 0.5 1.05618 0.0943223
1.05695 0.5 -0.0360764 0.241663
1.05695 0.5 0.0360764 0.236328
0.411736 0.5 -0.975 0.155177
0.411736 0.5 0.975 0.0998205
0.872064 0.5 -0.6 0.207365
0.872064 0.5 0.6 0.149129
1.0271 0.5 -0.257759 0.242351
1.0271 0.5 0.257759 0.207407
0.151149 0.5 -1.05 0.14732
0.151149 0.5 1.05 0.094405
1.05695 0.5 0.108229 0.230019
1.05695 0.5 -0.108229 0.245611
1.04168 0.5 -0.218749 0.245013
1.04168 0.5 0.218749 0.214492
0.90582 0.5 -0.5625 0.213852
0.905821 0.5 0.5625 0.156031
1.00005 0.5 -0.374654 0.235786
1.00005 0.5 0.374654 0.188664
0.350249 0.5 1.0125 0.096757
0.350249 0.5 -1.0125 0.151618
1.05695 0.5 -0.180382 0.24766
1.05695 0.5 0.180382 0.221681
1.07319 0.5 0.0709442 0.234736
0.939201 0.5 -0.525 0.220327
0.939201 0.5 0.525 0.163085
1.0271 0.5 -0.331404 0.241831
1.0271 0.5 0.331404 0.197528
1.08112 0.5 3.23815e-17 0.243742
1.04168 0.5 -0.291665 0.245115
1.04168 0.5 0.291665 0.205
1.08112 0.5 -0.0709442 0.24852
0.969689 0.5 -0.4875 0.226953
0.96969 0.5 0.4875 0.170544
1.05695 0.5 0.252535 0.212603
1.05695 0.5 -0.252535 0.248312
0.288069 0.5 -1.05 0.148617
0.288069 0.5 1.05 0.0940191
0.075776 0.5 -1.0875 0.145805
0.075776 0.5 1.0875 0.0921533
1.08112 0.5 -0.141888 0.251644
1.08145 0.5 0.140165 0.229761
0.715434 0.5 0.825 0.117316
0.715434 0.5 -0.825 0.178857
0.756813 0.5 0.7875 0.122357
0.756814 0.5 -0.7875 0.184432
0.67013 0.5 -0.8625 0.173455
0.67013 0.5 0.8625 0.112589
0.797732 0.5 -0.75 0.19035
0.797732 0.5 0.75 0.127765
0.624316 0.5 -0.9 0.168469
0.624316 0.5 0.9 0.108226
1.00005 0.5 -0.449585 0.233012
1.00005 0.5 0.449585 0.178086
0.835106 0.5 -0.7125 0.196457
0.835106 0.5 0.7125 0.133506
0.574156 0.5 -0.9375 0.163632
0.574157 0.5 0.9375 0.104137
1.10076 0.5 -0.0349809 0.250413
1.10076 0.5 0.0349809 0.244858
1.08112 0.5 -0.212832 0.253052
1.08112 0.5 0.212832 0.221478
0.872064 0.5 -0.675 0.202771
0.872064 0.5 0.675 0.139606
1.04168 0.5 -0.364581 0.243799
1.04168 0.5 0.364581 0.194655
1.0271 0.5 0.405049 0.186892
1.0271 0.5 -0.405049 0.239648
1.05695 0.5 -0.324688 0.247877
1.05695 0.5 0.324688 0.202577
1.10076 0.5 -0.104943 0.254625
1.10076 0.5 0.104943 0.237933
0.523432 0.5 0.975 0.100435
0.523432 0.5 -0.975 0.159313
0.90582 0.5 0.6375 0.14609
0.905821 0.5 -0.6375 0.20929
0.219992 0.5 1.0875 0.0914408
0.219992 0.5 -1.0875 0.145707
1.11376 0.5 3.81639e-17 0.250177
0.939201 0.5 0.6 0.152783
0.939201 0.5 -0.6 0.215877
1.10076 0.5 -0.174905 0.256873
1.10076 0.5 0.174905 0.229715
0.467897 0.5 -1.0125 0.15512
0.467897 0.5 1.0125 0.0969771
1.11376 0.5 -0.0693118 0.255132
1.11376 0.5 0.0693118 0.243858
1.08112 0.5 0.283777 0.211771
1.08112 0.5 -0.283777 0.25321
0 0.5 -1.11882 0.144429
0 0.5 1.11882 0.0900137
0.0124865 0.5 -1.11882 0.144429
0.0124865 0.5 1.11882 0.0900137
0.969689 0.5 -0.5625 0.222656
0.969689 0.5 0.5625 0.159857
1.11376 0.5 0.138624 0.235523
1.11376 0.5 -0.138624 0.258424
0 0.5 -1.125 0.144156
0 0.5 1.125 0.0895908
1.10076 0.5 0.244866 0.220368
1.10076 0.5 -0.244866 0.257568
0.411736 0.5 -1.05 0.151557
0.411736 0.5 1.05 0.0939746
1.05695 0.5 -0.396841 0.245719
1.05695 0.5 0.396841 0.191784
1.00005 0.5 -0.524516 0.228969
1.00005 0.5 0.524516 0.167073
1.04168 0.5 -0.437497 0.24095
1.04168 0.5 0.437497 0.183651
0 0.5 -1.13118 0.143885
0 0.5 1.13118 0.0891688
0.0124865 0.5 -1.13118 0.143885
0.0124865 0.5 1.13118 0.0891688
1.11376 0.5 -0.207935 0.259931
1.11376 0.5 0.207935 0.227314
1.0271 0.5 -0.478694 0.236077
1.0271 0.5 0.478694 0.175709
0.151149 0.5 -1.125 0.14409
0.151149 0.5 1.125 0.0892062
1.08112 0.5 -0.354722 0.251961
1.08112 0.5 0.354722 0.201196
1.13882 0.5 -0.0340295 0.258083
1.13882 0.5 0.0340295 0.25231
0.350249 0.5 -1.0875 0.148117
0.350249 0.5 1.0875 0.0911742
1.13882 0.5 -0.102088 0.262464
1.13882 0.5 0.102088 0.245082
1.10076 0.5 -0.314829 0.257259
1.10076 0.5 0.314829 0.210052
0.756813 0.5 -0.8625 0.179575
0.756814 0.5 0.8625 0.114151
0.797732 0.5 -0.825 0.185351
0.797732 0.5 0.825 0.119142
1.11376 0.5 -0.277247 0.260149
1.11376 0.5 0.277247 0.217374
0.835106 0.5 0.7875 0.124457
0.835106 0.5 -0.7875 0.191337
0.715434 0.5 -0.9 0.174152
0.715434 0.5 0.9 0.109528
0.872064 0.5 -0.75 0.197562
0.872064 0.5 0.75 0.130096
1.13882 0.5 0.170147 0.236655
1.13882 0.5 -0.170147 0.264889
0.67013 0.5 -0.9375 0.168915
0.67013 0.5 0.9375 0.105207
0.905821 0.5 -0.7125 0.204024
0.905821 0.5 0.7125 0.136125
1.05695 0.5 0.468994 0.180431
1.05695 0.5 -0.468994 0.242253
0.939201 0.5 -0.675 0.210624
0.939201 0.5 0.675 0.142424
0.624316 0.5 0.975 0.101218
0.624316 0.5 -0.975 0.164086
1.04168 0.5 -0.510414 0.23674
1.04168 0.5 0.510414 0.172202
0.969689 0.5 -0.6375 0.217458
0.96969 0.5 0.6375 0.149071
0.288069 0.5 -1.125 0.14519
0.288069 0.5 1.125 0.088636
1.16179 0.5 5.78241e-19 0.260216
1.08112 0.5 0.425666 0.189945
1.08112 0.5 -0.425666 0.249181
1.13882 0.5 -0.238206 0.265667
1.13882 0.5 0.238206 0.227012
1.16179 0.5 0.0669104 0.25399
1.16179 0.5 -0.0669104 0.265439
0.574156 0.5 -1.0125 0.159416
0.574156 0.5 1.0125 0.0974946
0.075776 0.5 -1.1625 0.14252
0.075776 0.5 1.1625 0.087038
1.00005 0.5 -0.599447 0.223862
1.00005 0.5 0.599447 0.155828
1.10076 0.5 0.384791 0.198952
1.10076 0.5 -0.384791 0.255147
1.0271 0.5 -0.55234 0.231241
1.0271 0.5 0.55234 0.164191
1.11376 0.5 -0.346559 0.258951
1.11376 0.5 0.346559 0.206548
1.16179 0.5 -0.133821 0.268966
1.16179 0.5 0.133821 0.245564
0.523432 0.5 -1.05 0.15524
0.523432 0.5 1.05 0.0941318
1.17463 0.5 -0.0331343 0.265761
1.17463 0.5 0.0331343 0.259775
1.17463 0.5 -0.0994029 0.270374
1.17463 0.5 0.0994029 0.252362
1.16179 0.5 -0.200731 0.270613
1.16179 0.5 0.200731 0.236351
1.13882 0.5 -0.306265 0.265401
1.13882 0.5 0.306265 0.216374
0.219992 0.5 -1.1625 0.142359
0.219992 0.5 1.1625 0.0862593
0.467897 0.5 -1.0875 0.151196
0.467897 0.5 1.0875 0.0910042
1.17463 0.5 0.165672 0.2436
1.17463 0.5 -0.165672 0.272956
1.05695 0.5 -0.541147 0.237343
1.05695 0.5 0.541147 0.168732
1.18772 0.5 -5.78241e-19 0.265659
1.11376 0.5 -0.41587 0.256193
1.11376 0.5 0.41587 0.195028
1.18772 0.5 -0.065614 0.271039
1.18772 0.5 0.065614 0.258379
1.08112 0.5 -0.49661 0.245
1.08112 0.5 0.49661 0.17823
1.10076 0.5 -0.454752 0.251753
1.10076 0.5 0.454752 0.187265
1.18534 0.5 0.118202 0.250689
1.16179 0.5 -0.267642 0.270923
1.16179 0.5 0.267642 0.226008
0 0.5 -1.19382 0.141084
0 0.5 1.19382 0.0849543
0.0124865 0.5 1.19382 0.0849543
0.0124865 0.5 -1.19382 0.141084
1.04168 0.5 -0.58333 0.231386
1.04168 0.5 0.58333 0.160504
1.18772 0.5 -0.131228 0.274715
1.17463 0.5 -0.23194 0.273763
1.17463 0.5 0.23194 0.233662
0.411736 0.5 -1.125 0.147762
0.411736 0.5 1.125 0.0882614
1.13882 0.5 -0.374324 0.263313
1.13882 0.5 0.374324 0.204927
0 0.5 -1.2 0.1408
0 0.5 1.2 0.0845426
0.905821 0.5 0.7875 0.126236
0.905821 0.5 -0.7875 0.198186
0.872064 0.5 -0.825 0.191877
0.872064 0.5 0.825 0.120707
0.835106 0.5 0.8625 0.115552
0.835106 0.5 -0.8625 0.185808
0.939201 0.5 -0.75 0.204718
0.939201 0.5 0.75 0.13215
0.797732 0.5 -0.9 0.180001
0.797732 0.5 0.9 0.110683
1.0271 0.5 0.625985 0.152523
1.0271 0.5 -0.625985 0.22546
0.969689 0.5 0.7125 0.138352
0.96969 0.5 -0.7125 0.211493
1.18772 0.5 -0.196842 0.276462
1.18772 0.5 0.196842 0.241236
0.756814 0.5 -0.9375 0.174416
0.756814 0.5 0.9375 0.106124
0 0.5 1.20618 0.0841316
0 0.5 -1.20618 0.140517
1.00005 0.5 -0.674378 0.217898
1.00005 0.5 0.674378 0.144538
0.0124865 0.5 1.20618 0.0841316
0.0124865 0.5 -1.20618 0.140517
1.16179 0.5 -0.334552 0.269785
1.16179 0.5 0.334552 0.214745
0.715434 0.5 0.975 0.101924
0.715434 0.5 -0.975 0.169185
0.151149 0.5 -1.2 0.140701
0.151149 0.5 1.2 0.0841214
1.20942 0.5 0.0322645 0.267413
1.20942 0.5 -0.0322645 0.273692
1.17463 0.5 -0.298209 0.273635
1.17463 0.5 0.298209 0.222703
1.20942 0.5 -0.0967935 0.278512
1.20942 0.5 0.0967935 0.259829
0.350249 0.5 -1.1625 0.144455
0.350249 0.5 1.1625 0.0857111
0.67013 0.5 1.0125 0.0980099
0.67013 0.5 -1.0125 0.164145
1.11376 0.5 0.485183 0.183025
1.11376 0.5 -0.485183 0.252004
1.18772 0.5 0.262456 0.230676
1.18772 0.5 -0.262456 0.276835
1.10076 0.5 -0.524714 0.246811
1.10076 0.5 0.524714 0.175213
1.20942 0.5 -0.161322 0.281295
1.20942 0.5 0.161322 0.250805
1.08112 0.5 -0.567554 0.239582
1.08112 0.5 0.567554 0.166249
0.624316 0.5 -1.05 0.159501
0.624316 0.5 1.05 0.0944023
1.13882 0.5 -0.442383 0.25988
1.13882 0.5 0.442383 0.192868
1.05695 0.5 0.6133 0.156868
1.05695 0.5 -0.6133 0.231502
1.16179 0.5 -0.401463 0.267028
1.16179 0.5 0.401463 0.202753
0.574156 0.5 -1.0875 0.155021
0.574156 0.5 1.0875 0.0910513
1.17463 0.5 0.364477 0.21091
1.17463 0.5 -0.364477 0.271547
1.20942 0.5 -0.225851 0.282192
1.20942 0.5 0.225851 0.240586
1.23036 0.5 -1.32995e-17 0.275676
1.2294 0.5 0.0634819 0.267455
1.04168 0.5 -0.656246 0.225144
1.04168 0.5 0.656246 0.148742
1.23036 0.5 -0.0634819 0.281319
1.18772 0.5 0.32807 0.21918
1.18772 0.5 -0.32807 0.275756
0.288069 0.5 -1.2 0.141614
0.288069 0.5 1.2 0.08338
1.23036 0.5 -0.126964 0.285241
1.23036 0.5 0.126964 0.260117
0.075776 0.5 -1.2375 0.139092
0.075776 0.5 1.2375 0.0820563
0.523432 0.5 -1.125 0.151007
0.523432 0.5 1.125 0.0880138
1.0271 0.5 -0.69963 0.218867
1.0271 0.5 0.69963 0.14085
1.24274 0.5 0.0314313 0.275235
1.24274 0.5 -0.0314313 0.281667
1.20942 0.5 0.29038 0.229322
1.20942 0.5 -0.29038 0.282149
1.11376 0.5 -0.554494 0.246524
1.11376 0.5 0.554494 0.170744
1.23036 0.5 -0.190445 0.287161
1.23036 0.5 0.190445 0.25033
1.24274 0.5 -0.0942942 0.286706
1.24274 0.5 0.0942942 0.267332
1.13882 0.5 0.510442 0.180424
1.13882 0.5 -0.510442 0.254868
0.969689 0.5 -0.7875 0.204963
0.969689 0.5 0.7875 0.127851
1.00005 0.5 -0.749309 0.211265
1.00005 0.5 0.749309 0.133297
0.939201 0.5 -0.825 0.198323
0.939201 0.5 0.825 0.122049
0.90582 0.5 0.8625 0.116552
0.90582 0.5 -0.8625 0.191958
1.17463 0.5 -0.430746 0.268148
1.17463 0.5 0.430746 0.198479
1.10076 0.5 -0.594676 0.24088
1.10076 0.5 0.594676 0.162981
1.18772 0.5 -0.393684 0.273029
1.18772 0.5 0.393684 0.206938
1.24274 0.5 -0.157157 0.289707
1.24274 0.5 0.157157 0.258043
1.16179 0.5 -0.468373 0.262766
1.16179 0.5 0.468373 0.190248
0.467897 0.5 -1.1625 0.147127
0.467897 0.5 1.1625 0.0851915
0.872064 0.5 -0.9 0.185847
0.872064 0.5 0.9 0.11155
1.25401 0.5 2.08167e-17 0.281019
0.835106 0.5 0.9375 0.10688
0.835106 0.5 -0.9375 0.179981
1.25401 0.5 -0.0622994 0.286819
1.25401 0.5 0.0622994 0.273471
1.08112 0.5 -0.638498 0.233231
1.08112 0.5 0.638498 0.154205
1.23036 0.5 -0.253927 0.28764
1.23036 0.5 0.253927 0.239407
0.219992 0.5 1.2375 0.0812026
0.219992 0.5 -1.2375 0.138869
1.25309 0.5 0.121964 0.265109
1.05695 0.5 0.685452 0.145044
1.05695 0.5 -0.685452 0.22479
0.797732 0.5 0.975 0.102464
0.797732 0.5 -0.975 0.174401
1.25401 0.5 -0.124599 0.290901
1.20942 0.5 -0.354909 0.280129
1.20942 0.5 0.354909 0.217198
1.24274 0.5 -0.220019 0.290704
1.24274 0.5 0.220019 0.247539
0.756814 0.5 -1.0125 0.169043
0.756813 0.5 1.0125 0.098343
1.25401 0.5 -0.186898 0.292948
1.25401 0.5 0.186898 0.25513
0.411736 0.5 -1.2 0.143834
0.411736 0.5 1.2 0.0827091
0 0.5 -1.26882 0.13761
0 0.5 1.26882 0.0800338
0.0124865 0.5 1.26882 0.0800338
0.0124865 0.5 -1.26882 0.13761
0.715434 0.5 -1.05 0.164033
0.715434 0.5 1.05 0.0945646
1.23036 0.5 -0.31741 0.286647
1.23036 0.5 0.31741 0.227514
1.04168 0.5 -0.729162 0.21819
1.04168 0.5 0.729162 0.137053
1.18772 0.5 -0.459298 0.268759
1.18772 0.5 0.459298 0.194166
1.24274 0.5 -0.282882 0.290754
1.24274 0.5 0.282882 0.235967
0 0.5 -1.275 0.137317
0 0.5 1.275 0.0796341
1.27472 0.5 -0.0306319 0.28967
1.27472 0.5 0.0306319 0.283008
1.17463 0.5 0.497015 0.185645
1.17463 0.5 -0.497015 0.263017
1.11376 0.5 -0.623806 0.240064
1.11376 0.5 0.623806 0.158387
1.13882 0.5 -0.578501 0.248788
1.13882 0.5 0.578501 0.167788
0.67013 0.5 -1.0875 0.159215
0.67013 0.5 1.0875 0.0910566
1.27472 0.5 -0.0918959 0.294896
1.27472 0.5 0.0918959 0.273478
1.25401 0.5 -0.249197 0.2935
1.25401 0.5 0.249197 0.244001
1.16179 0.5 -0.535284 0.257122
1.16179 0.5 0.535284 0.177442
1.20942 0.5 -0.419438 0.276756
1.20942 0.5 0.419438 0.204411
0 0.5 -1.28118 0.137025
0 0.5 1.28118 0.0792352
0.0124865 0.5 1.28118 0.0792352
0.0124865 0.5 -1.28118 0.137025
1.27472 0.5 0.15316 0.265318
1.27472 0.5 -0.15316 0.298122
0.151149 0.5 -1.275 0.137189
0.151149 0.5 1.275 0.0791771
1.0271 0.5 0.773275 0.129192
1.0271 0.5 -0.773275 0.211714
1.10076 0.5 0.664638 0.150793
1.10076 0.5 -0.664638 0.234009
0.350249 0.5 -1.2375 0.14067
0.350249 0.5 1.2375 0.0804043
0.624316 0.5 -1.125 0.154776
0.624316 0.5 1.125 0.0878251
1.23036 0.5 0.380892 0.214841
1.23036 0.5 -0.380892 0.283969
1.24274 0.5 -0.345745 0.288823
1.24274 0.5 0.345745 0.223508
1.2906 0.5 0 0.290428
1.2906 0.5 -0.0604698 0.296501
1.2906 0.5 0.0604698 0.282899
1.25401 0.5 -0.311497 0.292582
1.25401 0.5 0.311497 0.231885
1.27472 0.5 -0.214423 0.299295
1.27472 0.5 0.214423 0.254538
1.08112 0.5 0.709442 0.142302
1.08112 0.5 -0.709442 0.226108
1.00005 0.5 -0.824239 0.204138
1.00005 0.5 0.824239 0.122333
1.2906 0.5 -0.12094 0.300864
1.2906 0.5 0.12094 0.273915
0.574156 0.5 -1.1625 0.150502
0.574156 0.5 1.1625 0.0848317
0.969689 0.5 -0.8625 0.198
0.96969 0.5 0.8625 0.117538
1.18772 0.5 0.524912 0.181082
1.18772 0.5 -0.524912 0.263042
1.05695 0.5 -0.757605 0.217481
1.05695 0.5 0.757605 0.133438
0.939201 0.5 -0.9 0.191586
0.939201 0.5 0.9 0.11221
1.30091 0.5 -0.0299772 0.296493
1.30091 0.5 0.0299772 0.289629
1.20942 0.5 -0.483967 0.27158
1.20942 0.5 0.483967 0.191193
1.17463 0.5 -0.563284 0.256791
1.17463 0.5 0.563284 0.172606
1.2906 0.5 -0.181409 0.303143
1.2906 0.5 0.181409 0.263604
0.90582 0.5 0.9375 0.107212
0.90582 0.5 -0.9375 0.18545
1.30091 0.5 -0.0899316 0.301887
1.30091 0.5 0.0899316 0.278538
1.27472 0.5 0.275687 0.242668
1.27472 0.5 -0.275687 0.299381
0.288069 0.5 -1.275 0.137926
0.288069 0.5 1.275 0.0782828
0.872064 0.5 -0.975 0.179587