# pMean  POINT_DATA 91129
# x  y  z  pMean
0 0 0 0.191922
0 0.00368111 0 0.191653
0 0.00749587 0 0.191074
0 0.0114491 0 0.19051
0 0.0155459 0 0.190004
0 0.0197915 0 0.189465
0 0.0241911 0 0.188858
0 0.0287506 0 0.188189
0 0.0334755 0 0.187472
0 0.038372 0 0.186726
0 0.0434463 0 0.18596
0 0.0487048 0 0.185184
0 0.0541543 0 0.184404
0 0.0598016 0 0.183625
0 0.0656539 0 0.182862
0 0.0717187 0 0.182135
0.075776 0.00184055 0 0.191922
0.075776 0.00558849 0 0.191383
0.075776 0.00947248 -3.46945e-18 0.190764
0.075776 0.0134975 -3.46945e-18 0.190257
0.075776 0.0176687 3.46945e-18 0.189751
0 0.0780037 0 0.181454
0.075776 0.0219913 3.46945e-18 0.189179
0.075776 0.0264709 3.46945e-18 0.188537
0.075776 0.031113 -3.46945e-18 0.18784
0.075776 0.0359237 -3.46945e-18 0.187105
0 0.0845169 0 0.1808
0.075776 0.0409092 0 0.186347
0.075776 0.0460755 -3.46945e-18 0.185574
0 0.0912666 0 0.18015
0.075776 0.0514296 -3.46945e-18 0.184794
0.075776 0.0569779 0 0.184013
0 0.0982613 0 0.179491
0.075776 0.0627278 0 0.183237
0.075776 0.0686863 0 0.182486
0 0.10551 0 0.178824
0.075776 0.0748612 3.46945e-18 0.181783
0.075776 0.0812603 -3.46945e-18 0.181124
0 0.113022 0 0.17815
0.075776 0.0878918 3.46945e-18 0.180477
0 0.120806 0 0.177469
0.075776 0.0947639 3.46945e-18 0.179823
0.075776 0.101886 -3.46945e-18 0.17916
0 0.128874 0 0.176785
0.075776 0.109266 3.46945e-18 0.178489
0 0.137234 0 0.176106
0.075776 0.116914 3.46945e-18 0.177811
0 0.145897 0 0.175444
0.075776 0.12484 0 0.177127
0.151552 0 0 0.177295
0.151552 0.00368111 0 0.177191
0.151552 0.00749587 0 0.176996
0.151552 0.0114491 0 0.17685
0.151552 0.0155459 0 0.176734
0.151552 0.0197915 0 0.176597
0.075776 0.133054 0 0.176442
0.151552 0.0241911 0 0.176422
0.151552 0.0287506 0 0.176214
0 0.154876 0 0.174804
0.151552 0.0334755 0 0.175977
0.151552 0.038372 0 0.175722
0.151552 0.0434463 0 0.175454
0.151552 0.0487048 0 0.175176
0.075776 0.141566 0 0.17577
0.151552 0.0541543 0 0.174892
0.151552 0.0598016 0 0.174602
0 0.16418 0 0.174189
0.151552 0.0656539 0 0.174314
0.151552 0.0717187 0 0.174036
0.075776 0.150387 0 0.175119
0.151552 0.0780037 0 0.173774
0.151552 0.0845169 0 0.173516
0 0.173822 0 0.173611
0.075776 0.159528 0 0.174489
0.151552 0.0912666 0 0.173251
0.151552 0.0982613 0 0.172974
0 0.183814 0 0.17307
0.151552 0.10551 0 0.172685
0.075776 0.169001 3.46945e-18 0.173889
0.151552 0.113022 0 0.172384
0.151552 0.120806 0 0.17207
0 0.194169 0 0.172543
0.075776 0.178818 3.46945e-18 0.173332
0.151552 0.128874 0 0.171743
0.075776 0.188992 3.46945e-18 0.172807
0.151552 0.137234 0 0.171408
0 0.2049 0 0.172
0.151552 0.145897 0 0.171072
0.075776 0.199535 0 0.172279
0 0.21602 0 0.17142
0.151552 0.154876 0 0.170739
0.219992 0.00184055 0 0.163794
0.219992 0.00558849 0 0.163889
0.219992 0.00947248 -3.46945e-18 0.164113
0.219992 0.0134975 3.46945e-18 0.164366
0.219992 0.0176687 0 0.164604
0.219992 0.0219913 0 0.164832
0.219993 0.0264709 -3.46945e-18 0.165054
0.219992 0.031113 -3.46945e-18 0.165266
0.219992 0.0359238 3.46945e-18 0.165467
0.151552 0.16418 0 0.170412
0.075776 0.21046 0 0.17172
0.219992 0.0409092 3.46945e-18 0.165661
0.219992 0.0460755 0 0.165849
0.219993 0.0514296 -3.46945e-18 0.166027
0.219992 0.0569779 0 0.166194
0 0.227544 0 0.170802
0.219992 0.0627277 3.46945e-18 0.166351
0.219992 0.0686863 0 0.166495
0.151552 0.173822 0 0.170094
0.219992 0.0748612 3.46945e-18 0.166626
0.075776 0.221782 0 0.171119
0.219992 0.0812603 3.46945e-18 0.166742
0.219992 0.0878917 -3.46945e-18 0.166841
0.151552 0.183814 0 0.169784
7.47806e-17 0.239487 0 0.170159
0.219992 0.0947639 3.46945e-18 0.166924
0.219993 0.101886 3.46945e-18 0.166991
0.075776 0.233516 0 0.170485
0.219993 0.109266 0 0.167044
0.151552 0.194169 0 0.169469
0.219993 0.116914 0 0.167078
0 0.251863 0 0.169501
0.219993 0.12484 0 0.167092
0.151552 0.2049 0 0.169134
0.075776 0.245675 0 0.169833
0.219992 0.133054 3.46945e-18 0.167085
0.219992 0.141565 0 0.167057
0.151552 0.21602 0 0.168767
0 0.264688 0 0.16883
0.219992 0.150387 3.46945e-18 0.167013
0.075776 0.258275 3.46945e-18 0.169169
0.219992 0.159528 -3.46945e-18 0.166958
0.151552 0.227544 0 0.168368
0.219992 0.169001 3.46945e-18 0.16689
0 0.27798 0 0.168146
0.075776 0.271334 3.46945e-18 0.168492
0.151552 0.239487 3.70071e-18 0.167941
0.219992 0.178818 3.46945e-18 0.166805
0.288433 0 0 0.167628
0.288433 0.00368111 0 0.167661
0.288433 0.00749587 0 0.167767
0.288433 0.0114491 0 0.167922
0.288433 0.0155459 3.70071e-18 0.168085
0.288433 0.0197915 0 0.168244
0.288433 0.0241911 3.70071e-18 0.168402
0.288433 0.0287506 0 0.168557
0.219992 0.188991 0 0.166697
0.288433 0.0334755 0 0.168706
0.288433 0.038372 0 0.168852
0.288433 0.0434463 0 0.168994
7.47806e-17 0.291753 0 0.167445
0.288433 0.0487048 0 0.16913
0.288433 0.0541543 0 0.16926
0.151552 0.251863 0 0.167492
0.288433 0.0598016 3.70071e-18 0.169383
0.075776 0.284866 0 0.1678
0.288433 0.0656539 3.70071e-18 0.169501
0.219992 0.199534 0 0.166566
0.288433 0.0717187 0 0.169613
0.288433 0.0780037 0 0.169718
0.288433 0.0845169 0 0.169816
0.288433 0.0912666 0 0.169903
0.219992 0.21046 -3.46945e-18 0.166409
0.288433 0.0982613 0 0.169968
0.151552 0.264688 3.70071e-18 0.167025
0 0.306027 0 0.166724
0.288433 0.10551 0 0.170006
0.075776 0.29889 3.46945e-18 0.16709
0.288433 0.113022 0 0.170024
0.219993 0.221782 0 0.166226
0.288433 0.120806 0 0.170026
0.288433 0.128874 0 0.170017
0.151552 0.27798 0 0.16654
0.288433 0.137234 0 0.169996
0 0.320819 0 0.165978
0.219992 0.233515 -3.46945e-18 0.166014
0.075776 0.313423 -3.46945e-18 0.166358
0.288433 0.145897 0 0.169957
0.288433 0.154876 0 0.169902
0.151552 0.291753 0 0.166037
0.219993 0.245675 0 0.165772
0.288433 0.16418 0 0.169832
0 0.336148 0 0.165216
0.288433 0.173822 0 0.169745
0.075776 0.328484 -3.46945e-18 0.165598
0.219993 0.258275 -3.46945e-18 0.165503
0.151552 0.306027 0 0.165507
0.288433 0.183814 0 0.169637
0.288433 0.194169 0 0.169508
0.219992 0.271334 3.46945e-18 0.165212
0.350249 0.00184056 -3.46945e-18 0.17118
0.350249 0.00558849 0 0.17122
0.350249 0.00947248 3.46945e-18 0.171293
0.350249 0.0134975 0 0.171376
0.350249 0.0176687 0 0.171464
0.350249 0.0219913 0 0.171559
0.350249 0.0264708 3.46945e-18 0.171655
0.350249 0.031113 0 0.171752
0 0.352034 0 0.164458
0.350249 0.0359238 0 0.17185
0.075776 0.344091 0 0.164832
0.350249 0.0409091 0 0.171947
0.350249 0.0460756 3.46945e-18 0.172042
0.288433 0.2049 0 0.169355
0.350249 0.0514296 0 0.172133
0.151552 0.320819 0 0.164946
0.350249 0.0569779 0 0.172221
0.350249 0.0627277 3.46945e-18 0.172309
0.350249 0.0686863 3.46945e-18 0.172397
0.350249 0.0748612 3.46945e-18 0.172485
0.350249 0.0812603 0 0.172575
0.219992 0.284867 0 0.164903
0.288433 0.21602 0 0.169177
0.350249 0.0878917 0 0.172664
0.350249 0.094764 0 0.172738
0.350249 0.101886 0 0.172775
0.350249 0.109266 0 0.172778
0.288433 0.227544 0 0.168973
0.075776 0.360265 3.46945e-18 0.164083
0 0.368496 0 0.163705
0.151552 0.336148 0 0.164355
0.350249 0.116914 3.46945e-18 0.172762
0.219992 0.29889 0 0.164568
0.370854 0.0241911 1.54074e-33 0.173625
0.350249 0.12484 0 0.172742
0.350249 0.133054 0 0.172721
0.288433 0.239487 -9.25154e-19 0.168741
0.350249 0.141566 3.46945e-18 0.17269
0.350249 0.150387 3.46945e-18 0.17264
0.288433 0.251863 0 0.16848
0.219992 0.313423 0 0.164198
0.151552 0.352034 0 0.163744
0.075776 0.377027 0 0.163327
0.350249 0.159528 0 0.172571
0 0.385557 0 0.162925
0.350249 0.169001 0 0.172483
0.288433 0.264688 0 0.168192
0.350249 0.178818 0 0.172376
0.219992 0.328484 0 0.163787
0.350249 0.188992 0 0.172248
0.151552 0.368496 0 0.163114
0.288433 0.27798 3.70071e-18 0.167879
0.075776 0.394397 0 0.162523
0.350249 0.199535 0 0.172099
7.47806e-17 0.403236 0 0.162094
0.219992 0.344091 0 0.163332
0.350249 0.21046 -3.46945e-18 0.171926
0.288433 0.291753 0 0.167539
0.412065 9.08189e-19 3.08149e-33 0.175948
0.412065 0.00368111 -2.31298e-18 0.175962
0.412065 0.00749587 -2.31298e-18 0.176002
0.412065 0.0114491 -2.31298e-18 0.176056
0.412065 0.0155459 -2.31298e-18 0.176115
0.412065 0.0197915 0 0.176175
0.412065 0.0241911 -3.08149e-33 0.176236
0.412065 0.0264709 0 0.176268
0.412065 0.0287506 -2.31298e-18 0.176299
0.412065 0.0334755 -2.31298e-18 0.176363
0.412065 0.038372 -2.31298e-18 0.17643
0.151552 0.385557 0 0.162448
0.412065 0.0434463 0 0.176498
0.350249 0.221782 0 0.171729
0.412065 0.0487048 0 0.176566
0.412065 0.0541543 -3.08149e-33 0.176635
0.412065 0.0569779 0 0.176669
0.412065 0.0598016 -2.31298e-18 0.176703
0.412065 0.0656539 -2.31298e-18 0.176769
0.412065 0.0717187 -2.31298e-18 0.176833
0.075776 0.412396 -3.46945e-18 0.161664
0.412065 0.0780037 -2.31298e-18 0.176895
0.288433 0.306027 0 0.167168
0.412065 0.0845169 -2.31298e-18 0.176952
0.350249 0.233516 3.46945e-18 0.171506
0 0.421557 0 0.161215
0.412065 0.0912666 -2.31298e-18 0.176992
0.219992 0.360265 3.46945e-18 0.162836
0.412065 0.0982613 0 0.177001
0.412065 0.10551 0 0.176982
0.412065 0.113022 -2.31298e-18 0.176944
0.350249 0.245675 0 0.171255
0.412065 0.120806 0 0.176895
0.151552 0.403236 0 0.161735
0.288433 0.320819 0 0.166761
0.412065 0.128874 -2.31298e-18 0.176838
0.412065 0.137234 0 0.176773
0.350249 0.258275 -3.46945e-18 0.170975
0.219992 0.377026 0 0.162298
0.412065 0.145897 -2.31298e-18 0.176695
0.075776 0.431051 0 0.160764
0.412065 0.154876 -2.31298e-18 0.176602
0 0.440544 0 0.160298
0.288433 0.336148 0 0.166314
0.350249 0.271334 0 0.170664
0.412065 0.16418 -2.31298e-18 0.176493
0.412065 0.173822 -2.31298e-18 0.176368
0.151552 0.421557 0 0.160973
0.412065 0.183814 -2.31298e-18 0.176224
0.350249 0.284867 3.46945e-18 0.170324
0.219992 0.394397 0 0.161718
0.288433 0.352034 3.70071e-18 0.165826
0.412065 0.194169 0 0.176061
0.075776 0.450382 0 0.15983
0.412065 0.2049 -2.31298e-18 0.175877
0 0.46022 0 0.159348
0.350249 0.29889 3.46945e-18 0.169953
0.412065 0.21602 0 0.17567
0.151552 0.440544 0 0.160167
0.219993 0.412396 3.46945e-18 0.16109
0.467897 0.00184056 -3.46945e-18 0.180384
0.467897 0.00558849 0 0.180402
0.288433 0.368496 0 0.165296
0.467897 0.00947248 0 0.180432
0.467897 0.0134975 0 0.180465
0.467897 0.0176687 3.46945e-18 0.180498
0.467897 0.0219913 -3.46945e-18 0.180527
0.467897 0.0264709 3.46945e-18 0.180558
0.467897 0.0311131 3.46945e-18 0.18059
0.467897 0.0359238 -3.46945e-18 0.180626
0.467897 0.038372 0 0.18109
0.467897 0.0409092 3.46945e-18 0.180666
0.350249 0.313423 0 0.169549
0.467897 0.0460755 0 0.180709
0.467897 0.0514296 3.46945e-18 0.180757
0.412065 0.227544 -2.31298e-18 0.175439
0.467897 0.0569779 0 0.180807
0.467897 0.0627277 -3.46945e-18 0.180856
0.467897 0.0686863 3.46945e-18 0.180901
0.467897 0.0748612 0 0.180939
0.467897 0.0812603 0 0.180974
0.467897 0.0878918 3.46945e-18 0.180993
0.075776 0.470415 3.46945e-18 0.158864
0.412065 0.239487 -2.31298e-18 0.175182
0.467897 0.0947639 -3.46945e-18 0.180975
0.467897 0.101886 3.46945e-18 0.180926
0.350249 0.328483 0 0.169109
0.467897 0.109266 0 0.180864
0 0.48061 0 0.158364
0.288433 0.385557 0 0.164721
0.467897 0.116914 0 0.180792
0.412065 0.251863 -2.31298e-18 0.174898
0.219992 0.431051 0 0.160411
0.467897 0.12484 0 0.180708
0.151552 0.46022 0 0.159317
0.467897 0.133054 3.46945e-18 0.180611
0.467897 0.141566 3.46945e-18 0.180504
0.412065 0.264688 -2.31298e-18 0.174584
0.350249 0.344091 -3.46945e-18 0.168629
0.467897 0.150387 3.46945e-18 0.180386
0.467897 0.154876 0 0.180858
0.467897 0.159528 3.46945e-18 0.180256
0.288433 0.403236 0 0.164101
0.075776 0.491175 0 0.157863
0.412065 0.27798 -2.31298e-18 0.17424
0.467897 0.169001 0 0.180112
0.467897 0.178818 3.46945e-18 0.179952
0.219992 0.450382 0 0.159681
6.73026e-17 0.501741 3.70071e-18 0.157341
0.350249 0.360265 0 0.168109
0.151552 0.48061 0 0.158424
0.467897 0.188991 0 0.179776
0.412065 0.291753 0 0.173864
0.467897 0.199535 0 0.17958
0.288433 0.421557 0 0.16343
0.467897 0.21046 0 0.179365
0.412065 0.306027 0 0.173453
0.350249 0.377027 0 0.167543
0.467897 0.221782 3.46945e-18 0.179127
0.075776 0.51269 0 0.156818
0.219993 0.470415 3.46945e-18 0.158897
0.467897 0.227544 0 0.179519
0.412065 0.320819 -2.31298e-18 0.173007
0.467897 0.233515 0 0.178865
6.73026e-17 0.523639 3.70071e-18 0.156273
0.523729 0 0 0.18556
0.523729 0.00368111 0 0.185568
0.523729 0.00749587 -2.31298e-18 0.185589
0.523729 0.0114491 0 0.185617
0.523729 0.0155459 0 0.185646
0.523729 0.0197915 -2.31298e-18 0.185669
0.151552 0.501741 0 0.157484
0.523729 0.0241911 0 0.185688
0.523729 0.0287506 0 0.185707
0.523729 0.0334755 0 0.185728
0.523729 0.038372 -3.08149e-33 0.18575
0.523729 0.0434463 0 0.185776
0.523729 0.0487048 0 0.185805
0.523729 0.0541543 0 0.185837
0.288433 0.440544 0 0.162708
0.523729 0.0598016 0 0.185871
0.350249 0.394397 -3.46945e-18 0.166932
0.523729 0.0656539 0 0.185905
0.467897 0.245675 0 0.178577
0.523729 0.0717187 0 0.185935
0.523729 0.0780037 0 0.185959
0.523729 0.0845169 0 0.185965
0.523729 0.0912666 0 0.185939
0.412065 0.336148 0 0.172521
0.523729 0.0982613 0 0.185881
0.523729 0.10551 -2.31298e-18 0.185805
0.467897 0.258275 -3.46945e-18 0.178262
0.523729 0.113022 0 0.18572
0.523729 0.120806 -3.08149e-33 0.185624
0.219993 0.491176 0 0.158062
0.523729 0.12484 0 0.185569
0.523729 0.128874 -2.31298e-18 0.185515
0.075776 0.534986 0 0.155727
0.467897 0.271334 3.46945e-18 0.177916
0.350249 0.412396 -3.46945e-18 0.166271
0.523729 0.137234 0 0.185394
0.412065 0.352034 -2.31298e-18 0.171994
0.288433 0.46022 0 0.161931
0.523729 0.145897 0 0.185261
0.151552 0.523639 0 0.156493
0.523729 0.154876 -3.08149e-33 0.185115
0 0.546332 0 0.155159
0.523729 0.159528 0 0.185034
0.467897 0.284867 -3.46945e-18 0.177538
0.523729 0.16418 -2.31298e-18 0.184954
0.523729 0.173822 0 0.184777
0.412065 0.368496 0 0.171422
0.523729 0.183814 0 0.184582
0.467897 0.29889 0 0.177125
0.350249 0.431051 -3.46945e-18 0.165559
0.219992 0.51269 0 0.157172
0.523729 0.194169 0 0.184369
0.288433 0.48061 0 0.161099
0.523729 0.2049 0 0.184135
0.467897 0.313423 3.46945e-18 0.176676
0.075776 0.558091 0 0.154589
0.412065 0.385557 0 0.170804
0.523729 0.21602 -3.08149e-33 0.183879
0.151552 0.546332 0 0.155446
0 0.569849 0 0.153996
0.350249 0.450382 3.46945e-18 0.164793
0.523729 0.227544 -3.08149e-33 0.183599
0.467897 0.328483 0 0.176187
0.523729 0.231525 1.54074e-33 0.183497
0.574156 0.00184056 0 0.190397
0.574156 0.00558849 0 0.19041
0.574157 0.00947248 0 0.190433
0.574156 0.0134975 -3.46945e-18 0.190461
0.574156 0.0176687 -3.46945e-18 0.190482
0.574156 0.0219913 0 0.190493
0.574156 0.0264708 -3.46945e-18 0.1905
0.574156 0.031113 0 0.190507
0.574156 0.0359238 -3.46945e-18 0.190515
0.574157 0.0409092 0 0.190525
0.523729 0.239487 3.70071e-18 0.183293
0.574156 0.0460755 -3.46945e-18 0.190537
0.574156 0.0514295 0 0.190552
0.412065 0.403236 0 0.170136
0.574157 0.0569779 0 0.190571
0.574156 0.0627277 0 0.190592
0.574156 0.0686863 0 0.190612
0.219992 0.534986 0 0.156221
0.288433 0.501741 0 0.160209
0.574156 0.0748612 3.46945e-18 0.190631
0.574156 0.0812603 0 0.190636
0.467897 0.344091 0 0.175656
0.574156 0.0878917 3.46945e-18 0.190605
0.523729 0.251863 0 0.18296
0.574157 0.0947639 0 0.190534
0.574156 0.101886 0 0.190444
0.574156 0.109266 0 0.190346
0.574156 0.116914 0 0.190238
0.412065 0.416977 -6.16298e-33 0.169597
0.350249 0.470415 0 0.16397
0.523729 0.264688 0 0.182597
0.075776 0.582034 0 0.153401
0.574156 0.12484 0 0.190118
0.574156 0.133054 3.46945e-18 0.189987
0.412065 0.421557 -2.31298e-18 0.169417
0.151552 0.569849 0 0.15434
0.467897 0.360265 -3.46945e-18 0.175082
0.574157 0.141566 -3.46945e-18 0.189842
0.523729 0.27798 0 0.182202
0.574156 0.150386 3.46945e-18 0.189682
0 0.594219 0 0.152781
0.574156 0.159528 -3.46945e-18 0.189508
0.574156 0.16418 0 0.18991
0.288433 0.523639 1.2326e-32 0.159259
0.574157 0.169001 0 0.189316
0.523729 0.291753 0 0.181773
0.219993 0.558091 3.46945e-18 0.155203
0.467897 0.377026 0 0.174461
0.574156 0.178818 3.46945e-18 0.189107
0.412065 0.440544 -2.31298e-18 0.168644
0.350249 0.491175 0 0.163087
0.574156 0.188992 3.46945e-18 0.188879
0.523729 0.306027 -3.08149e-33 0.181307
0.574157 0.199535 0 0.188629
0.574157 0.21046 0 0.188358
0.075776 0.606847 0 0.152159
0.467897 0.394397 0 0.17379
0.151552 0.594219 0 0.153172
0.523729 0.320819 0 0.180803
0.574157 0.221782 -3.46945e-18 0.188063
0.412065 0.46022 3.08149e-33 0.167813
0.288433 0.546332 0 0.158242
0 0.619475 0 0.151509
0.574156 0.233515 3.46945e-18 0.187742
0.350249 0.51269 3.46945e-18 0.162142
0.219992 0.582034 3.46945e-18 0.154115
0.523729 0.336148 0 0.180258
0.467897 0.412396 0 0.173067
0.574156 0.245675 0 0.187393
0.624584 0 0 0.196288
0.624584 0.00368111 0 0.196294
0.624584 0.00749587 0 0.196311
0.624584 0.0114491 0 0.196336
0.624584 0.0155459 0 0.19636
0.624584 0.0197915 0 0.196372
0.624584 0.0241911 -2.31298e-18 0.196374
0.624584 0.0287506 0 0.196372
0.624584 0.0334755 0 0.19637
0.624584 0.038372 0 0.196367
0.624584 0.0434463 -2.31298e-18 0.196367
0.624584 0.0487048 0 0.196368
0.624584 0.0541543 0 0.19637
0.624584 0.0598016 0 0.196374
0.624584 0.0656539 0 0.196378
0.624584 0.0717187 0 0.196381
0.624584 0.0780037 0 0.196373
0.574157 0.258276 3.46945e-18 0.187016
0.624584 0.0845169 0 0.196335
0.523729 0.352034 0 0.179669
0.624584 0.0912666 0 0.196257
0.624584 0.0982613 0 0.196154
0.412065 0.48061 3.08149e-33 0.166922
0.624584 0.10551 0 0.196037
0.624584 0.113022 -2.31298e-18 0.195911
0.574156 0.271334 0 0.186607
0.624584 0.120806 0 0.195773
0.467897 0.431051 0 0.17229
0.075776 0.632561 -3.46945e-18 0.150858
0.624584 0.128874 0 0.195621
0.151552 0.619475 0 0.15194
0.288433 0.569849 0 0.157156
0.350249 0.534985 0 0.16113
0.624584 0.137234 -2.31298e-18 0.195456
0.523729 0.368496 0 0.179033
0.574156 0.284866 -3.46945e-18 0.186165
0.624584 0.145897 0 0.195275
0.467897 0.440544 0 0.172307
0.624584 0.154876 0 0.195079
0.219992 0.606847 -3.46945e-18 0.152955
0 0.645647 0 0.150177
0.624584 0.16418 -3.08149e-33 0.194866
0.574156 0.29889 -3.46945e-18 0.185686
0.624584 0.173822 0 0.194634
0.412065 0.501741 1.54074e-33 0.165968
0.467897 0.450382 -3.46945e-18 0.171456
0.523729 0.385557 0 0.178348
0.624584 0.183814 0 0.194382
0.624584 0.194169 0 0.19411
0.574156 0.313423 0 0.18517
0.624584 0.2049 0 0.193815
0.350249 0.558091 3.46945e-18 0.16005
0.288433 0.594219 0 0.155998
0.624584 0.21602 0 0.193496
0.523729 0.403236 0 0.177612
0.574156 0.328483 -3.46945e-18 0.184614
0.151552 0.645647 0 0.150639
0.467897 0.470415 3.46945e-18 0.170561
0.075776 0.659208 0 0.149494
0.624584 0.227544 0 0.193151
0.412065 0.523639 0 0.164947
0.523729 0.41545 3.08149e-33 0.177084
0.624584 0.239487 3.70071e-18 0.192778
0.574156 0.344091 0 0.184014
0.219992 0.632561 0 0.151722
0.67013 0.00184055 0 0.201819
0.67013 0.00558849 0 0.20183
0.67013 0.00947248 0 0.201852
0.67013 0.0134975 0 0.201879
0.67013 0.0176687 -3.46945e-18 0.201897
0.67013 0.0219913 0 0.201898
0.67013 0.0264708 3.46945e-18 0.201888
0.67013 0.0311131 0 0.201877
0.67013 0.0359237 0 0.201864
0.67013 0.0409092 -3.46945e-18 0.201851
0.67013 0.0460755 0 0.20184
0.67013 0.0514296 3.46945e-18 0.201829
0.523729 0.421557 -2.31298e-18 0.17682
0.67013 0.056978 0 0.201818
0 0.67277 0 0.14878
0.67013 0.0627277 0 0.201807
0.624584 0.251863 0 0.192377
0.67013 0.0686863 0 0.201796
0.67013 0.0748612 3.46945e-18 0.201781
0.67013 0.0812603 0 0.201743
0.67013 0.0878917 0 0.201658
0.67013 0.0947639 3.46945e-18 0.201539
0.574156 0.360265 0 0.183367
0.67013 0.101886 0 0.201407
0.523729 0.431051 0 0.176395
0.624584 0.264688 0 0.191944
0.467897 0.491175 0 0.169604
0.67013 0.109266 3.46945e-18 0.201265
0.350249 0.582034 0 0.158897
0.67013 0.116914 0 0.20111
0.67013 0.12484 0 0.200942
0.67013 0.133054 0 0.200759
0.288433 0.619475 0 0.154764
0.624584 0.27798 -3.08149e-33 0.191477
0.412065 0.546332 1.54074e-33 0.163857
0.523729 0.440544 -3.08149e-33 0.17597
0.67013 0.141566 3.46945e-18 0.200561
0.685312 0.0241911 -7.70372e-34 0.204269
0.685312 0.0434463 -7.70372e-34 0.2042
0.67013 0.150387 0 0.200346
0.574156 0.377026 -3.46945e-18 0.182672
0.67013 0.159528 0 0.200113
0.624584 0.291753 0 0.190975
0.151552 0.67277 0 0.149266
0.075776 0.686823 0 0.148063
0.67013 0.169001 0 0.199862
0.67013 0.178818 0 0.199591
0.467897 0.51269 0 0.16858
0.685312 0.113022 -7.70372e-34 0.20345
0.219992 0.659208 0 0.150412
0.624584 0.306027 0 0.190435
0.67013 0.188991 0 0.199298
0.574156 0.394397 3.46945e-18 0.181926
0.523729 0.46022 0 0.175059
0.685312 0.137234 -7.70372e-34 0.202891
0.67013 0.199535 -3.46945e-18 0.198983
0.350249 0.606847 0 0.157669
0 0.700877 0 0.147314
0.624584 0.320819 0 0.189855
0.67013 0.21046 0 0.198643
0.412065 0.569849 -2.31298e-18 0.162694
0.67013 0.221782 -3.46945e-18 0.198278
0.574157 0.412396 0 0.181124
0.288433 0.645647 0 0.153452
0.624584 0.336148 -3.08149e-33 0.189231
0.67013 0.233515 3.46945e-18 0.197885
0.467897 0.534986 0 0.167485
0.523729 0.48061 0 0.174085
0.624584 0.344091 0 0.188896
0.67013 0.245675 0 0.197462
0.715676 4.54095e-19 0 0.208155
0.715676 0.00368111 0 0.20816
0.715676 0.00749587 0 0.208177
0.715676 0.0114491 0 0.208201
0.715676 0.0155459 0 0.208222
0.715676 0.0197915 0 0.208228
0.715676 0.0241911 0 0.208217
0.715676 0.0287506 0 0.208196
0.715676 0.0334755 0 0.208171
0.715676 0.038372 0 0.208144
0.624584 0.352034 -2.31298e-18 0.188562
0.715676 0.0434463 0 0.208117
0.151552 0.700877 0 0.147818
0.715676 0.0487048 0 0.208089
0.715676 0.0541543 0 0.208061
0.574156 0.43105 0 0.180264
0.715676 0.0598016 0 0.208033
0.67013 0.258275 0 0.197009
0.715676 0.0656539 0 0.208003
0.715676 0.0717187 0 0.20797
0.075776 0.715441 0 0.146561
0.715676 0.0780037 0 0.207919
0.715676 0.0845169 0 0.207831
0.219992 0.686824 0 0.149022
0.715676 0.0912666 0 0.207704
0.715676 0.0982613 0 0.207555
0.67013 0.271334 -3.46945e-18 0.196522
0.350249 0.632561 -3.46945e-18 0.156362
0.412065 0.594219 3.08149e-33 0.161454
0.715676 0.10551 0 0.207394
0.715676 0.113022 0 0.20722
0.624584 0.368496 0 0.187843
0.523729 0.501741 0 0.173042
0.715676 0.120806 0 0.207032
0.715676 0.128874 0 0.206828
0.67013 0.284867 0 0.196
0.467897 0.558091 3.46945e-18 0.166318
0.715676 0.137234 0 0.206608
0.574156 0.450382 0 0.179343
0 0.730005 0 0.145774
0.715676 0.145897 0 0.206371
0.288433 0.67277 0 0.152059
0.715676 0.154876 0 0.206116
0.67013 0.29889 0 0.195439
0.624584 0.385557 0 0.187074
0.715676 0.16418 -9.25187e-19 0.205842
0.715676 0.173822 0 0.205547
0.715676 0.183814 0 0.20523
0.67013 0.313423 0 0.194839
0.523729 0.523639 0 0.171929
0.715676 0.194169 0 0.20489
0.574156 0.470415 3.46945e-18 0.178357
0.624584 0.403236 0 0.186249
0.743101 0.0241911 -7.70372e-34 0.21243
0.412065 0.619475 3.08149e-33 0.160133
0.715676 0.2049 0 0.204525
0.151552 0.730005 0 0.146291
0.67013 0.328484 3.46945e-18 0.194196
0.350249 0.659208 0 0.154972
0.467897 0.582034 0 0.165073
0.715676 0.21602 0 0.204134
0.219992 0.715441 0 0.14755
0.075776 0.745097 -3.46945e-18 0.144983
0.715676 0.227544 0 0.203715
0.67013 0.344091 0 0.193508
0.624584 0.421557 0 0.185366
0.743101 0.128874 -7.70372e-34 0.210781
0.715676 0.239487 3.70071e-18 0.203267
0.574156 0.491175 0 0.177303
0.756814 0.00184055 0 0.214133
0.523729 0.546332 0 0.170741
0.756813 0.00558849 0 0.214144
0.756813 0.00947248 0 0.214165
0.756814 0.0134975 -3.46945e-18 0.214192
0.756814 0.0155459 0 0.214554
0.756814 0.0176687 0 0.214206
0.756814 0.0219913 0 0.214196
0.756814 0.0264709 0 0.214171
0.756814 0.031113 -3.46945e-18 0.214137
0.756813 0.0359238 -3.46945e-18 0.214097
0.288433 0.700877 0 0.150581
0.756814 0.0409092 -3.46945e-18 0.214055
0.756813 0.0460755 3.46945e-18 0.214013
0.756813 0.0514296 0 0.21397
0.715676 0.251863 0 0.202787
0.756813 0.0569779 0 0.213925
0.756814 0.0627277 -3.46945e-18 0.213879
0.756814 0.0686863 -3.46945e-18 0.213832
0 0.76019 0 0.144157
0.756814 0.0748612 0 0.213774
0.67013 0.360265 3.46945e-18 0.192771
0.756814 0.0812603 -3.46945e-18 0.213684
0.756814 0.0878917 -3.46945e-18 0.213548
0.756814 0.0947639 -3.46945e-18 0.213383
0.715676 0.264688 0 0.202274
0.756813 0.101886 0 0.213206
0.624584 0.440544 0 0.184422
0.756813 0.109266 3.46945e-18 0.213015
0.756813 0.116914 3.46945e-18 0.21281
0.412065 0.645647 0 0.158729
0.467897 0.606847 0 0.163746
0.756814 0.120806 0 0.212993
0.756813 0.12484 0 0.212588
0.715676 0.27798 0 0.201725
0.756814 0.133054 -3.46945e-18 0.21235
0.67013 0.377026 -3.46945e-18 0.191983
0.756814 0.137234 0 0.212506
0.574156 0.51269 0 0.176177
0.756813 0.141566 3.46945e-18 0.212094
0.685312 0.352034 -7.70372e-34 0.195097
0.743101 0.2049 -7.70372e-34 0.208288
0.350249 0.686824 0 0.153496
0.756814 0.150387 0 0.21182
0.756814 0.154876 0 0.211947
0.715676 0.291753 0 0.201138
0.756814 0.159528 -3.46945e-18 0.211525
0.523729 0.569849 0 0.169474
0.72743 0.264688 0 0.203827
0.756814 0.16418 0 0.211637
0.151552 0.76019 0 0.144682
0.756813 0.169001 3.46945e-18 0.21121
0.624584 0.46022 0 0.183413
0.219993 0.745097 0 0.145992
0.67013 0.394396 0 0.19114
0.756813 0.178818 -3.46945e-18 0.210872
0.715676 0.306027 0 0.200512
0.075776 0.775831 0 0.143326
0.756813 0.188991 0 0.21051
0.756814 0.199535 0 0.210124
0.715676 0.320819 0 0.199842
0.574156 0.534985 0 0.174975
0.288433 0.730005 0 0.149015
0.756813 0.21046 0 0.209711
0.467897 0.632561 0 0.162334
0.67013 0.412396 -3.46945e-18 0.19024
0.624584 0.48061 -3.08149e-33 0.182335
0.756814 0.221782 0 0.20927
0.412065 0.67277 3.08149e-33 0.157236
0.715676 0.336148 0 0.199128
0 0.791472 0 0.142458
0.756813 0.233516 3.46945e-18 0.208799
0.523729 0.594219 0 0.168124
0.624584 0.487654 1.54074e-33 0.181951
0.756814 0.245675 3.46945e-18 0.208296
0.350249 0.715441 3.46945e-18 0.151929
0.67013 0.43105 0 0.189278
0.715676 0.352034 -9.25187e-19 0.198365
0.797951 9.08189e-19 -3.08149e-33 0.22082
0.797951 0.00368111 2.31298e-18 0.220826
0.797951 0.00749587 2.31298e-18 0.220842
0.797951 0.0114491 2.31298e-18 0.220866
0.797951 0.0141803 7.70372e-34 0.220879
0.797951 0.0155459 0 0.220885
0.797951 0.0169611 7.70372e-34 0.220884
0.797951 0.0197915 2.31298e-18 0.220883
0.797951 0.0219913 0 0.22087
0.797951 0.0241911 3.08149e-33 0.220858
0.797951 0.0264709 0 0.220837
0.797951 0.0287506 -3.08149e-33 0.220816
0.797951 0.0334755 2.31298e-18 0.220763
0.797951 0.038372 2.31298e-18 0.220704
0.797951 0.0434463 2.31298e-18 0.220641
0.797951 0.0487048 0 0.220576
0.756813 0.258275 -3.46945e-18 0.20776
0.797951 0.0541543 2.31298e-18 0.22051
0.797951 0.0598016 2.31298e-18 0.22044
0.797951 0.0656539 2.31298e-18 0.220368
0.574156 0.55809 0 0.173694
0.624584 0.501741 0 0.181184
0.797951 0.0717187 2.31298e-18 0.220288
0.797951 0.0780037 -3.08149e-33 0.220182
0.797951 0.0845169 2.31298e-18 0.220035
0.797951 0.0912666 -3.08149e-33 0.219853
0.797951 0.0982613 2.31298e-18 0.219651
0.756813 0.271334 0 0.207189
0.797951 0.10551 2.31298e-18 0.219434
0.715676 0.368496 0 0.197551
0.151552 0.791472 0 0.142986
0.797951 0.113022 2.31298e-18 0.219202
0.219992 0.775831 3.46945e-18 0.144346
0.797951 0.118211 7.70372e-34 0.219037
0.770526 0.239487 1.54074e-33 0.21063
0.797951 0.120806 0 0.218954
0.67013 0.450382 3.46945e-18 0.188251
0.797951 0.128874 3.08149e-33 0.218688
0.467897 0.659208 0 0.160833
0.756813 0.284866 -3.46945e-18 0.20658
0.743101 0.320819 -7.70372e-34 0.203345
0.797951 0.137234 0 0.218404
0.797951 0.141566 0 0.218252
0.797951 0.145897 -9.25187e-19 0.218101
0.523729 0.619475 0 0.166687
0.075776 0.807681 0 0.141585
0.797951 0.150387 0 0.217939
0.797951 0.154876 0 0.217777
0.715676 0.385557 0 0.196682
0.412065 0.700877 3.08149e-33 0.155651
0.288433 0.76019 0 0.147358
0.756813 0.29889 0 0.205931
0.797951 0.16418 0 0.217432
0.624584 0.523639 0 0.179957
0.797951 0.167394 7.70372e-34 0.21731
0.797951 0.173822 2.31298e-18 0.217065
0.574156 0.582034 0 0.172329
0.67013 0.470415 0 0.187155
0.797951 0.183814 2.31298e-18 0.216674
0.756813 0.313423 -3.46945e-18 0.205239
0.797951 0.194169 -9.25187e-19 0.216257
0.715676 0.403236 0 0.195756
0.151552 0.807681 0 0.142093
0.797951 0.197746 -7.70372e-34 0.21611
0.350249 0.745097 0 0.150269
0.797951 0.2049 3.08149e-33 0.215815
0 0.823889 0 0.140673
0.756813 0.328483 -3.46945e-18 0.204502
0.797951 0.21046 0 0.215579
0.797951 0.21602 -3.08149e-33 0.215344
0.797951 0.223703 7.70372e-34 0.21501
0.797951 0.227544 9.25187e-19 0.214844
0.624584 0.546332 0 0.178648
0.715676 0.421557 0 0.194769
0.67013 0.491176 -3.46945e-18 0.185986
0.797951 0.231525 7.70372e-34 0.214666
0.467897 0.686824 -3.46945e-18 0.159237
0.523729 0.645647 0 0.165158
0.756813 0.344091 -3.46945e-18 0.203718
0.822721 0.120806 7.70372e-34 0.22304
0.797951 0.239487 -3.08149e-33 0.214312
0.822721 0.137234 7.70372e-34 0.222445
0.835106 0.00184056 0 0.227162
0.835106 0.00558849 0 0.227174
0.835106 0.00947248 0 0.227196
0.835106 0.0134975 0 0.227222
0.835107 0.0176687 0 0.227231
0.835106 0.0219913 -3.46945e-18 0.22721
0.574156 0.606847 3.46945e-18 0.170875
0.835106 0.0241911 0 0.227376
0.835106 0.0264709 -3.46945e-18 0.227166
0.822721 0.145897 -7.70372e-34 0.222118
0.835106 0.031113 3.46945e-18 0.227104
0.835106 0.0359238 3.46945e-18 0.22703
0.835106 0.0409092 -3.46945e-18 0.22695
0.835106 0.0460755 3.46945e-18 0.226866
0.835106 0.0514296 0 0.226779
0.797951 0.251863 -3.08149e-33 0.213747
0.835106 0.0541543 0 0.22692
0.835106 0.0569779 0 0.226689
0.219992 0.807681 3.46945e-18 0.142607
0.822721 0.154876 7.70372e-34 0.22177
0.835106 0.0627277 0 0.226595
0.151552 0.823889 0 0.1412
0.797951 0.255069 -1.54074e-33 0.213597
0.835106 0.0686863 3.46945e-18 0.226496
0.756814 0.360265 -3.46945e-18 0.202882
0.412065 0.730005 0 0.153969
0.835106 0.0748612 0 0.22638
0.822721 0.16418 7.70372e-34 0.2214
0.835106 0.0812603 0 0.226223
0.835106 0.0878917 -3.46945e-18 0.226024
0.715676 0.440544 0 0.193716
0.835106 0.094764 0 0.2258
0.797951 0.264688 -1.2326e-32 0.213147
0.835106 0.101886 -3.46945e-18 0.22556
0.835106 0.109266 3.46945e-18 0.225305
0.288433 0.791472 0 0.145605
0.835106 0.116914 0 0.225033
0.67013 0.51269 3.46945e-18 0.184741
0.797951 0.274657 6.16298e-33 0.212669
0.075776 0.840686 -3.46945e-18 0.139756
0.835106 0.12484 0 0.224742
0.797951 0.27798 -3.08149e-33 0.212509
0.624584 0.569849 0 0.177255
0.756813 0.377026 -3.46945e-18 0.201993
0.835106 0.133054 3.46945e-18 0.224433
0.835106 0.141565 3.46945e-18 0.224104
0.835106 0.150386 0 0.223754
0.797951 0.291753 0 0.211833
0.835106 0.159528 3.46945e-18 0.223383
0.715676 0.46022 0 0.192595
0.816529 0.239487 -1.54074e-33 0.217145
0.350249 0.775831 3.46945e-18 0.148512