# UMean  POINT_DATA 63140
# x  y  z  UMean_x  UMean_y  UMean_z
0 0.1 0 0.829038 0 0.559193
0 0.1 -0.0179898 0.829038 0 0.559193
0 0.1 0.0179898 0.829038 0 0.559193
0.0363518 0.1 0.0179898 0.83193 0.0069624 0.560852
0.0363518 0.1 -0.0179898 0.831933 0.00697922 0.560488
0 0.1 -0.0570102 0.829038 0 0.559193
0 0.1 0.0570102 0.829038 0 0.559193
0.0363518 0.1 0.0570102 0.83193 0.0069624 0.560852
0.0363518 0.1 -0.0570102 0.831933 0.00697922 0.560488
0 0.1 -0.075 0.829038 0 0.559193
0 0.1 0.075 0.829038 0 0.559193
0.075776 0.1 -0.0375 0.835114 0.0146638 0.561886
0.075776 0.1 0.0375 0.83511 0.0146297 0.562644
0 0.1 -0.0929898 0.829038 0 0.559193
0 0.1 0.0929898 0.829038 0 0.559193
0.0363518 0.1 -0.0929898 0.831912 0.00699154 0.560115
0.0363518 0.1 0.0929898 0.831914 0.00693564 0.561204
0 0.1 -0.13201 0.829038 0 0.559193
0 0.1 0.13201 0.829038 0 0.559193
0.075776 0.1 -0.1125 0.835068 0.0146893 0.561107
0.075776 0.1 0.1125 0.835078 0.0145753 0.563377
0.0363518 0.1 -0.13201 0.831912 0.00699154 0.560115
0.0363518 0.1 0.13201 0.831914 0.00693564 0.561204
0 0.1 -0.15 0.829038 0 0.559193
0 0.1 0.15 0.829038 0 0.559193
0.150379 0.1 -2.22623e-17 0.836648 0.0138887 0.563824
0 0.1 -0.16799 0.829038 0 0.559193
0 0.1 0.16799 0.829038 0 0.559193
0.150379 0.1 -0.075 0.836542 0.0138855 0.562473
0.150379 0.1 0.075 0.836794 0.0138701 0.565145
0.0363518 0.1 -0.16799 0.831878 0.00699391 0.559723
0.0363518 0.1 0.16799 0.831894 0.00689723 0.561536
0.075776 0.1 -0.1875 0.834998 0.0146943 0.56029
0.075776 0.1 0.1875 0.835038 0.014497 0.564068
0 0.1 -0.20701 0.829038 0 0.559193
0 0.1 0.20701 0.829038 0 0.559193
0.0363518 0.1 -0.20701 0.831878 0.00699391 0.559723
0.0363518 0.1 0.20701 0.831894 0.00689723 0.561536
0.150379 0.1 -0.15 0.836485 0.0138614 0.561116
0.150379 0.1 0.15 0.836994 0.0138257 0.566407
0.219993 0.1 -0.0375 0.837992 0.0131595 0.564357
0.219993 0.1 0.0375 0.838238 0.0131782 0.566268
0 0.1 -0.225 0.829038 0 0.559193
0 0.1 0.225 0.829038 0 0.559193
0 0.1 -0.24299 0.829038 0 0.559193
0 0.1 0.24299 0.829038 0 0.559193
0.0363518 0.1 0.24299 0.831865 0.00685199 0.561836
0.0363518 0.1 -0.24299 0.831835 0.00696997 0.559332
0.219993 0.1 -0.1125 0.837866 0.0131089 0.562456
0.219993 0.1 0.1125 0.838598 0.0131716 0.568098
0.150379 0.1 -0.225 0.836497 0.0138107 0.559763
0.150379 0.1 0.225 0.837255 0.0137538 0.567601
0.075776 0.1 -0.2625 0.834908 0.0146446 0.559474
0.075776 0.1 0.2625 0.834979 0.0144049 0.564694
0 0.1 -0.28201 0.829038 0 0.559193
0 0.1 0.28201 0.829038 0 0.559193
0.0363518 0.1 -0.28201 0.831835 0.00696997 0.559332
0.0363518 0.1 0.28201 0.831865 0.00685199 0.561836
0.287374 0.1 -2.89121e-19 0.835084 0.0127571 0.56632
0.219992 0.1 0.1875 0.839089 0.0131312 0.569843
0.219992 0.1 -0.1875 0.837879 0.0130361 0.560574
0.287374 0.1 -0.075 0.83492 0.012719 0.563881
0.287374 0.1 0.075 0.835388 0.0127729 0.568729
0 0.1 -0.3 0.829038 0 0.559193
0 0.1 0.3 0.829038 0 0.559193
0 0.1 0.31799 0.829038 0 0.559193
0 0.1 -0.31799 0.829038 0 0.559193
0.0363518 0.1 -0.31799 0.831781 0.00692185 0.558954
0.0363518 0.1 0.31799 0.831833 0.00681064 0.562101
0.287374 0.1 0.15 0.835831 0.0127598 0.57106
0.287374 0.1 -0.15 0.834906 0.0126617 0.561454
0.150379 0.1 -0.3 0.836591 0.0137303 0.558444
0.150379 0.1 0.3 0.83755 0.013663 0.568717
0.219993 0.1 0.2625 0.839713 0.0130534 0.571506
0.219993 0.1 -0.2625 0.838066 0.0129531 0.558726
0.075776 0.1 -0.3375 0.834798 0.0145456 0.558687
0.075776 0.1 0.3375 0.834914 0.0143209 0.565247
0.350249 0.1 -0.0375 0.832073 0.012346 0.565815
0.350249 0.1 0.0375 0.832303 0.0123817 0.568753
0 0.1 -0.35701 0.829038 0 0.559193
0 0.1 0.35701 0.829038 0 0.559193
0.0363518 0.1 -0.35701 0.831781 0.00692185 0.558954
0.0363518 0.1 0.35701 0.831833 0.00681064 0.562101
0.287374 0.1 -0.225 0.835059 0.0125936 0.559062
0.287374 0.1 0.225 0.836421 0.0127115 0.573293
0.350249 0.1 -0.1125 0.832016 0.0122987 0.562856
0.350249 0.1 0.1125 0.832684 0.0123961 0.571662
0 0.1 -0.375 0.829038 0 0.559193
0 0.1 0.375 0.829038 0 0.559193
0 0.1 -0.39299 0.829038 0 0.559193
0 0.1 0.39299 0.829038 0 0.559193
0.0363518 0.1 -0.39299 0.831736 0.00687574 0.558584
0.0363518 0.1 0.39299 0.831808 0.00677525 0.562331
0.350249 0.1 -0.1875 0.832129 0.0122399 0.559935
0.350249 0.1 0.1875 0.833223 0.0123754 0.574455
0.219992 0.1 -0.3375 0.83844 0.012864 0.556949
0.219992 0.1 0.3375 0.840362 0.0129447 0.573081
0.150379 0.1 0.375 0.837837 0.0135645 0.56974
0.150379 0.1 -0.375 0.8368 0.0136469 0.55716
0.411108 0.1 4.33681e-19 0.827314 0.0126637 0.56786
0.287374 0.1 -0.3 0.83539 0.0125224 0.556736
0.287374 0.1 0.3 0.837134 0.0126232 0.57542
0.411108 0.1 -0.075 0.827189 0.0126184 0.564314
0.411108 0.1 0.075 0.827652 0.012693 0.571377
0.075776 0.1 -0.4125 0.834707 0.0144524 0.557913
0.075776 0.1 0.4125 0.834864 0.0142487 0.565726
0 0.1 0.43201 0.829038 0 0.559193
0 0.1 -0.43201 0.829038 0 0.559193
0.0363518 0.1 0.43201 0.831808 0.00677525 0.562331
0.0363518 0.1 -0.43201 0.831736 0.00687574 0.558584
0.411108 0.1 -0.15 0.827284 0.0125621 0.560788
0.411108 0.1 0.15 0.828195 0.0126965 0.574813
0.350249 0.1 -0.2625 0.832421 0.0121811 0.557065
0.350249 0.1 0.2625 0.833926 0.0123207 0.57714
0 0.1 -0.45 0.829038 0 0.559193
0 0.1 0.45 0.829038 0 0.559193
0.219992 0.1 0.4125 0.840945 0.0128173 0.574519
0.219992 0.1 -0.4125 0.839075 0.0128107 0.555195
0 0.1 -0.46799 0.829038 0 0.559193
0 0.1 0.46799 0.829038 0 0.559193
0.411108 0.1 -0.225 0.827596 0.0125003 0.557325
0.411108 0.1 0.225 0.82894 0.0126644 0.578123
0.467897 0.1 -0.0375 0.822522 0.0129285 0.566353
0.467897 0.1 0.0375 0.822762 0.0129706 0.57047
0.0363518 0.1 0.46799 0.831791 0.00674613 0.562519
0.0363518 0.1 -0.46799 0.831711 0.00684444 0.558238
0.287374 0.1 -0.375 0.835926 0.0124605 0.554477
0.287374 0.1 0.375 0.837904 0.0124958 0.577401
0.150379 0.1 0.45 0.838102 0.0134666 0.57065
0.150379 0.1 -0.45 0.837078 0.0135888 0.555917
0.467897 0.1 0.1125 0.82326 0.0129951 0.574526
0.467897 0.1 -0.1125 0.822548 0.0128727 0.562234
0.350249 0.1 -0.3375 0.832887 0.0121263 0.554298
0.350249 0.1 0.3375 0.834794 0.0122083 0.579683
0.075776 0.1 -0.4875 0.834656 0.0143893 0.557192
0.075776 0.1 0.4875 0.834829 0.0141894 0.56612
0.467897 0.1 0.1875 0.824007 0.0129905 0.578464
0.467897 0.1 -0.1875 0.822839 0.0128098 0.558175
0 0.1 -0.50701 0.829038 0 0.559193
0 0.1 0.50701 0.829038 0 0.559193
0.0363518 0.1 -0.50701 0.831711 0.00684444 0.558238
0.0363518 0.1 0.50701 0.831791 0.00674613 0.562519
0.411108 0.1 0.3 0.829893 0.0125844 0.581274
0.411108 0.1 -0.3 0.828118 0.0124367 0.553972
0.522865 0.1 1.41031e-17 0.816534 0.0135559 0.568554
0 0.1 -0.525 0.829038 0 0.559193
0 0.1 0.525 0.829038 0 0.559193
0.522865 0.1 -0.075 0.816464 0.0135024 0.563815
0.522865 0.1 0.075 0.816928 0.0135876 0.573268
0.287374 0.1 0.45 0.838684 0.0123409 0.579193
0.287374 0.1 -0.45 0.836583 0.0124087 0.552298
0.219992 0.1 0.4875 0.841479 0.0126879 0.575807
0.219992 0.1 -0.4875 0.839659 0.0127865 0.553515
0.467897 0.1 -0.2625 0.823382 0.0127433 0.55422
0.467897 0.1 0.2625 0.824992 0.0129418 0.582242
0.350249 0.1 -0.4125 0.833556 0.0120754 0.551601
0.350249 0.1 0.4125 0.835764 0.0120482 0.58201
0 0.1 -0.54299 0.829038 0 0.559193
0 0.1 0.54299 0.829038 0 0.559193
0.522865 0.1 0.15 0.817635 0.0135912 0.577888
0.522865 0.1 -0.15 0.816715 0.013432 0.559123
0.0363518 0.1 0.54299 0.83178 0.00672544 0.562678
0.0363518 0.1 -0.54299 0.831696 0.0068221 0.557921
0.150379 0.1 -0.525 0.837323 0.0135464 0.554758
0.150379 0.1 0.525 0.838337 0.0133768 0.57142
0.411108 0.1 -0.375 0.828843 0.0123714 0.550748
0.411108 0.1 0.375 0.831032 0.0124501 0.584211
0.075776 0.1 -0.5625 0.834627 0.0143439 0.556531
0.075776 0.1 0.5625 0.834806 0.0141474 0.566449
0.522865 0.1 -0.225 0.817276 0.013349 0.554544
0.522865 0.1 0.225 0.818643 0.013556 0.582348
0.574156 0.1 0.0375 0.810777 0.0141582 0.571365
0.574157 0.1 -0.0375 0.81055 0.0141135 0.566015
0.467897 0.1 -0.3375 0.82416 0.0126697 0.550442
0.467897 0.1 0.3375 0.826232 0.0128374 0.585794
0 0.1 -0.58201 0.829038 0 0.559193
0 0.1 0.58201 0.829038 0 0.559193
0.0363518 0.1 -0.58201 0.831696 0.0068221 0.557921
0.0363518 0.1 0.58201 0.83178 0.00672544 0.562678
0.574157 0.1 -0.1125 0.810705 0.0140427 0.560692
0.574157 0.1 0.1125 0.811384 0.014174 0.576652
0.287374 0.1 -0.525 0.837211 0.0123443 0.550265
0.287374 0.1 0.525 0.839429 0.0121684 0.580756
0 0.1 -0.6 0.829038 0 0.559193
0 0.1 0.6 0.829038 0 0.559193
0.350249 0.1 0.4875 0.836775 0.0118482 0.584089
0.350249 0.1 -0.4875 0.834294 0.0119978 0.549056
0.522865 0.1 -0.3 0.818122 0.0132516 0.550146
0.522865 0.1 0.3 0.81995 0.0134699 0.586586
0.219992 0.1 -0.5625 0.840111 0.0127484 0.551985
0.219992 0.1 0.5625 0.841921 0.012563 0.576839
0.574156 0.1 -0.1875 0.811231 0.0139517 0.555474
0.574156 0.1 0.1875 0.812353 0.0141533 0.581802
0.411108 0.1 0.45 0.832303 0.0122645 0.586885
0.411108 0.1 -0.45 0.829721 0.0122893 0.547688
0 0.1 -0.61799 0.829038 0 0.559193
0 0.1 0.61799 0.829038 0 0.559193
0.150379 0.1 -0.6 0.837532 0.0135016 0.553705
0.150379 0.1 0.6 0.83854 0.0132937 0.572034
0.0363518 0.1 -0.61799 0.831692 0.00680099 0.557638
0.0363518 0.1 0.61799 0.831777 0.00670528 0.562811
0.467897 0.1 -0.4125 0.825136 0.0125889 0.54683
0.467897 0.1 0.4125 0.827694 0.0126766 0.589081
0.623803 0.1 2.34188e-17 0.803603 0.0150199 0.568467
0.623803 0.1 0.075 0.804036 0.0150523 0.574439
0.623803 0.1 -0.075 0.803625 0.0149507 0.562491
0.574156 0.1 0.2625 0.813674 0.0140872 0.586728
0.574156 0.1 -0.2625 0.812104 0.0138413 0.550433
0.623803 0.1 0.15 0.804915 0.0150435 0.580312
0.623803 0.1 -0.15 0.804093 0.0148487 0.556606
0.075776 0.1 0.6375 0.8348 0.0141065 0.566727
0.075776 0.1 -0.6375 0.834621 0.0143008 0.555942
0.522865 0.1 -0.375 0.819217 0.0131369 0.545967
0.522865 0.1 0.375 0.821547 0.013325 0.590546
0 0.1 0.65701 0.829038 0 0.559193
0 0.1 -0.65701 0.829038 0 0.559193
0.0363518 0.1 0.65701 0.831777 0.00670528 0.562811
0.0363518 0.1 -0.65701 0.831692 0.00680099 0.557638
0.350249 0.1 0.5625 0.837746 0.0116163 0.585904
0.350249 0.1 -0.5625 0.835019 0.0118832 0.546717
0.623803 0.1 0.225 0.806224 0.0149873 0.585989
0.623803 0.1 -0.225 0.804981 0.0147171 0.550903
0.287374 0.1 -0.6 0.837785 0.0122573 0.548412
0.287374 0.1 0.6 0.840109 0.0119899 0.582049
0.574157 0.1 -0.3375 0.813283 0.0137045 0.545653
0.574157 0.1 0.3375 0.815343 0.0139626 0.591381
0.411108 0.1 0.525 0.833633 0.0120317 0.589263
0.411108 0.1 -0.525 0.830667 0.01217 0.544857
0.67013 0.1 0.0375 0.796888 0.0158974 0.571563
0.67013 0.1 -0.0375 0.796705 0.015839 0.564938
0.219992 0.1 -0.6375 0.84051 0.0126961 0.550589
0.219993 0.1 0.6375 0.842301 0.0124421 0.577626
0 0.1 -0.675 0.829038 0 0.559193
0 0.1 0.675 0.829038 0 0.559193
0.467897 0.1 -0.4875 0.82625 0.0124713 0.543478
0.467897 0.1 0.4875 0.829312 0.0124555 0.592046
0.67013 0.1 -0.1125 0.797045 0.0157369 0.558377
0.67013 0.1 0.1125 0.7976 0.0159081 0.578144
0.522865 0.1 0.45 0.823389 0.0131177 0.594172
0.522865 0.1 -0.45 0.820508 0.0129929 0.542061
0.150379 0.1 0.675 0.838733 0.0132135 0.572508
0.150379 0.1 -0.675 0.83772 0.0134529 0.552756
0.623803 0.1 0.3 0.807946 0.0148749 0.591388
0.623803 0.1 -0.3 0.806248 0.0145516 0.545461
0 0.1 -0.69299 0.829038 0 0.559193
0 0.1 0.69299 0.829038 0 0.559193
0.0363518 0.1 -0.69299 0.831697 0.00678379 0.557385
0.0363518 0.1 0.69299 0.831781 0.00668488 0.562918
0.67013 0.1 -0.1875 0.797886 0.0155946 0.551987
0.67013 0.1 0.1875 0.798823 0.0158674 0.584571
0.574156 0.1 0.4125 0.81734 0.0137736 0.595688
0.574157 0.1 -0.4125 0.81471 0.0135401 0.541147
0.714971 0.1 -2.8382e-17 0.789046 0.016998 0.567719
0.075776 0.1 -0.7125 0.834631 0.0142657 0.555415
0.075776 0.1 0.7125 0.834807 0.014065 0.566949
0.714971 0.1 -0.075 0.789204 0.0168955 0.560469
0.714971 0.1 0.075 0.789497 0.0170424 0.574999
0.67013 0.1 0.2625 0.800532 0.0157709 0.59073
0.67013 0.1 -0.2625 0.799186 0.0154143 0.545861
0.411108 0.1 -0.6 0.831631 0.0120152 0.542292
0.411108 0.1 0.6 0.834951 0.01177 0.59131
0.350249 0.1 0.6375 0.838649 0.011385 0.587411
0.350249 0.1 -0.6375 0.835726 0.0117438 0.544605
0.623803 0.1 0.375 0.810065 0.0146973 0.596439
0.623803 0.1 -0.375 0.807838 0.014348 0.540343
0.714971 0.1 -0.15 0.789952 0.0167392 0.553369
0.714971 0.1 0.15 0.790553 0.0170248 0.582184
0.467897 0.1 -0.5625 0.827437 0.0123057 0.540425
0.467897 0.1 0.5625 0.831001 0.012179 0.594662
0 0.1 -0.73201 0.829038 0 0.559193
0 0.1 0.73201 0.829038 0 0.559193
0.0363518 0.1 0.73201 0.831781 0.00668488 0.562918
0.0363518 0.1 -0.73201 0.831697 0.00678379 0.557385
0.287374 0.1 -0.675 0.838317 0.0121515 0.546749
0.287374 0.1 0.675 0.840741 0.0118155 0.583075
0.522865 0.1 -0.525 0.82194 0.0128043 0.538496
0.522865 0.1 0.525 0.825403 0.0128475 0.597416
0.219993 0.1 -0.7125 0.840843 0.0126326 0.549341
0.219992 0.1 0.7125 0.842673 0.0123284 0.578217
0.714971 0.1 -0.225 0.791247 0.016531 0.546531
0.714971 0.1 0.225 0.792191 0.0169426 0.589149
0 0.1 0.75 0.829038 0 0.559193
0 0.1 -0.75 0.829038 0 0.559193
0.67013 0.1 -0.3375 0.800884 0.0151828 0.54008
0.67013 0.1 0.3375 0.802707 0.01561 0.596546
0.574156 0.1 -0.4875 0.816341 0.0133301 0.537027
0.574157 0.1 0.4875 0.819608 0.0135166 0.599593
0.756813 0.1 0.0375 0.781604 0.0181306 0.571174
0.756814 0.1 -0.0375 0.781498 0.0180402 0.563232
0.150379 0.1 0.746002 0.838842 0.013156 0.572738
0.150379 0.1 -0.75 0.837885 0.0134013 0.551915
0.756813 0.1 -0.1125 0.782074 0.0178824 0.555404
0.756813 0.1 0.1125 0.782405 0.0181481 0.5791
0 0.1 0.76799 0.829038 0 0.559193
0 0.1 -0.76799 0.829038 0 0.559193
0.0363518 0.1 0.76799 0.831786 0.006667 0.562994
0.0363518 0.1 -0.76799 0.831706 0.00676818 0.557159
0.623803 0.1 -0.45 0.809696 0.014102 0.535621
0.623803 0.1 0.45 0.812538 0.0144496 0.601071
0.714971 0.1 -0.3 0.793031 0.0162661 0.540045
0.714971 0.1 0.3 0.79438 0.0167916 0.59578
0.756814 0.1 -0.1875 0.783298 0.0176618 0.547824
0.756814 0.1 0.1875 0.783888 0.0180903 0.586864
0.67013 0.1 -0.4125 0.802919 0.0149053 0.534708
0.67013 0.1 0.4125 0.805321 0.0153754 0.601931
0.411108 0.1 0.675 0.836225 0.0115003 0.592994
0.411108 0.1 -0.675 0.832592 0.0118339 0.540013
0.467897 0.1 0.6375 0.832679 0.0118744 0.59688
0.467897 0.1 -0.6375 0.828655 0.0121085 0.537697
0.075776 0.1 0.7875 0.834819 0.0140286 0.567107
0.075776 0.1 -0.7875 0.83465 0.0142337 0.554943
0.350249 0.1 -0.7125 0.836399 0.0115802 0.542738
0.350249 0.1 0.7125 0.839502 0.011158 0.588599
0.522865 0.1 -0.6 0.823456 0.0125763 0.535302
0.522865 0.1 0.6 0.827503 0.0125265 0.600236
0.797314 0.1 -3.59473e-17 0.773339 0.0195081 0.566431
0.287374 0.1 0.746002 0.841348 0.0116637 0.583717
0.797314 0.1 -0.075 0.773686 0.0193475 0.557875
0.797314 0.1 0.075 0.773774 0.0195827 0.575058
0.756814 0.1 -0.2625 0.7851 0.0173757 0.540606
0.756814 0.1 0.2625 0.786014 0.0179575 0.594329
0.287374 0.1 -0.75 0.838803 0.0120327 0.545286
0.574156 0.1 -0.5625 0.818115 0.0130727 0.53332
0.574156 0.1 0.5625 0.822063 0.0131926 0.603048
0 0.1 0.80701 0.829038 0 0.559193
0 0.1 -0.80701 0.829038 0 0.559193
0.714971 0.1 -0.375 0.795242 0.0159434 0.534
0.714971 0.1 0.375 0.797089 0.0165646 0.601987
0.0363518 0.1 0.80701 0.831786 0.006667 0.562994
0.0363518 0.1 -0.80701 0.831706 0.00676818 0.557159
0.797314 0.1 -0.15 0.774784 0.0191064 0.549537
0.797314 0.1 0.15 0.774991 0.0195667 0.583603
0.623803 0.1 -0.525 0.811763 0.0138089 0.531365
0.623803 0.1 0.525 0.815298 0.0141309 0.605226
0.219992 0.1 0.7875 0.843043 0.0122153 0.578634
0.219992 0.1 -0.7875 0.841125 0.0125587 0.548254
0.149792 0.1 0.80701 0.839067 0.0130817 0.573038
0 0.1 0.825 0.829038 0 0.559193
0 0.1 -0.825 0.829038 0 0.559193
0.797314 0.1 -0.225 0.776567 0.0187863 0.541552
0.797314 0.1 0.225 0.776967 0.0194591 0.591911
0.756813 0.1 -0.3375 0.787419 0.0170181 0.533823
0.756813 0.1 0.3375 0.788746 0.0177451 0.601371
0.67013 0.1 0.4875 0.808313 0.0150674 0.606824
0.67013 0.1 -0.4875 0.805235 0.0145773 0.529849
0.835106 0.1 -0.0375 0.765386 0.0208084 0.561035
0.835106 0.1 0.0375 0.765362 0.0209554 0.570328
0.150379 0.1 -0.825 0.838042 0.0133465 0.551177
0.835106 0.1 -0.1125 0.766271 0.0205636 0.551912
0.835106 0.1 0.1125 0.766217 0.0209974 0.579632
0 0.1 -0.84299 0.829038 0 0.559193
0 0.1 0.84299 0.829038 0 0.559193
0.0363518 0.1 -0.84299 0.831716 0.00675188 0.556959
0.0363518 0.1 0.84299 0.831792 0.00665209 0.563037
0.714971 0.1 -0.45 0.797812 0.0155685 0.528491
0.714971 0.1 0.45 0.800267 0.0162577 0.607682
0.411108 0.1 0.746002 0.837438 0.0112394 0.594155
0.797314 0.1 -0.3 0.778967 0.0183855 0.53402
0.797314 0.1 0.3 0.779655 0.0192588 0.599834
0.467897 0.1 -0.7125 0.829878 0.0118861 0.53531
0.467897 0.1 0.7125 0.834309 0.011562 0.598676
0.522865 0.1 0.675 0.829612 0.0121752 0.602593
0.522865 0.1 -0.675 0.825013 0.0123211 0.532496
0.411108 0.1 -0.75 0.833538 0.0116362 0.538026
0.835106 0.1 -0.1875 0.767967 0.0202255 0.543129
0.835107 0.1 0.1875 0.767944 0.0209316 0.588776
0.286844 0.1 0.80701 0.841807 0.0115172 0.584272
0.574156 0.1 0.6375 0.824609 0.0128158 0.606008
0.574157 0.1 -0.6375 0.819975 0.0127845 0.530052
0.350249 0.1 -0.7875 0.837042 0.0114104 0.541115
0.350249 0.1 0.7875 0.840322 0.0109334 0.589472
0.756813 0.1 -0.4125 0.790186 0.0165987 0.52761
0.756814 0.1 0.4125 0.79204 0.017447 0.607916
0.623803 0.1 -0.6 0.813972 0.0134784 0.527602
0.623803 0.1 0.6 0.818253 0.0137452 0.608853
0.075776 0.1 0.8625 0.834831 0.0139982 0.567196
0.075776 0.1 -0.8625 0.834669 0.0142004 0.554528
0.871687 0.1 -3.2767e-18 0.7569 0.0224771 0.564698
0.287374 0.1 -0.825 0.839272 0.0119093 0.544018
0.871687 0.1 -0.075 0.757469 0.0222259 0.55481
0.871687 0.1 0.075 0.757294 0.0226071 0.574701
0.67013 0.1 -0.5625 0.807755 0.0142048 0.525535
0.67013 0.1 0.5625 0.811607 0.0146836 0.611159
0.835106 0.1 0.2625 0.770501 0.0207582 0.597595
0.835106 0.1 -0.2625 0.770361 0.0197943 0.534806
0.797314 0.1 -0.375 0.78192 0.0179095 0.527062
0.797314 0.1 0.375 0.783006 0.0189633 0.607254
0 0.1 -0.88201 0.829038 0 0.559193
0 0.1 0.88201 0.829038 0 0.559193
0.0363518 0.1 0.88201 0.831792 0.00665209 0.563037
0.0363518 0.1 -0.88201 0.831716 0.00675188 0.556959
0.871687 0.1 0.15 0.758658 0.02261 0.584638
0.871687 0.1 -0.15 0.758966 0.0218627 0.545222
0.714971 0.1 0.525 0.803841 0.0158711 0.61279
0.714971 0.1 -0.525 0.800662 0.0151461 0.523582
0.219993 0.1 0.8625 0.843412 0.0121005 0.578901
0.219992 0.1 -0.8625 0.84142 0.0124808 0.547307
0 0.1 0.9 0.829038 0 0.559193
0 0.1 -0.9 0.829038 0 0.559193
0.756813 0.1 0.4875 0.795827 0.0170629 0.613835
0.756814 0.1 -0.4875 0.793322 0.0161289 0.522044
0.871687 0.1 0.225 0.760969 0.0224844 0.594327
0.871687 0.1 -0.225 0.761294 0.021394 0.536089
0.835106 0.1 -0.3375 0.773425 0.0192707 0.527033
0.835106 0.1 0.3375 0.773823 0.0204775 0.605918
0.41063 0.1 0.80701 0.838365 0.0110261 0.595055
0.90582 0.1 -0.0375 0.748733 0.0239036 0.558407
0.905821 0.1 0.0375 0.748574 0.0241405 0.569073
0.522865 0.1 0.746002 0.831645 0.0118212 0.604295
0.150379 0.1 0.9 0.839313 0.0129896 0.573216
0.90582 0.1 0.1125 0.74948 0.0242324 0.579783
0.905821 0.1 -0.1125 0.749936 0.0235307 0.547973
0.522865 0.1 -0.75 0.826584 0.0120498 0.530084
0.574156 0.1 0.7125 0.827154 0.0124082 0.608437
0.574156 0.1 -0.7125 0.821876 0.0124749 0.527233
0.797314 0.1 -0.45 0.785337 0.0173729 0.52079
0.797314 0.1 0.45 0.786955 0.0185718 0.61406
0.467897 0.1 -0.7875 0.831098 0.0116537 0.533259
0.467897 0.1 0.7875 0.835884 0.0112491 0.600039
0.150379 0.1 -0.903998 0.838265 0.0132775 0.550511
0 0.1 0.91799 0.829038 0 0.559193
0 0.1 -0.91799 0.829038 0 0.559193
0.0363518 0.1 0.91799 0.831796 0.00663877 0.563045
0.0363518 0.1 -0.91799 0.831725 0.00673549 0.556786
0.623803 0.1 0.675 0.8213 0.0133079 0.611908
0.623803 0.1 -0.675 0.816265 0.0131237 0.524346
0.411108 0.1 -0.825 0.834471 0.0114342 0.536325
0.871687 0.1 0.3 0.764168 0.0222314 0.603586
0.871687 0.1 -0.3 0.764377 0.0208213 0.527515
0.67013 0.1 -0.6375 0.810409 0.013805 0.521789
0.67013 0.1 0.6375 0.815098 0.0142283 0.614886
0.90582 0.1 -0.1875 0.752129 0.0230376 0.537996
0.90582 0.1 0.1875 0.751446 0.0241752 0.590334
0.350249 0.1 0.8625 0.841117 0.010713 0.59005
0.350249 0.1 -0.8625 0.837679 0.0112425 0.539723
0.835106 0.1 -0.4125 0.777063 0.018673 0.519998
0.835106 0.1 0.4125 0.777858 0.0200893 0.613649
0.714971 0.1 -0.6 0.803705 0.0146892 0.519303
0.714971 0.1 0.6 0.807716 0.0154061 0.617258
0.93886 0.1 -1.15648e-17 0.74003 0.0261268 0.562618
0.075776 0.1 0.9375 0.83484 0.0139711 0.567212
0.075776 0.1 -0.9375 0.834688 0.014167 0.554169
0.93886 0.1 0.075 0.740349 0.026343 0.574047
0.93886 0.1 -0.075 0.740872 0.0257428 0.551351
0.756813 0.1 0.5625 0.800022 0.016595 0.61909
0.756814 0.1 -0.5625 0.796721 0.0156145 0.51717
0.905821 0.1 -0.2625 0.755142 0.0224297 0.528577
0.905821 0.1 0.2625 0.75443 0.0239694 0.600538
0.287374 0.1 0.9 0.842521 0.0113077 0.584704
0.287374 0.1 -0.903998 0.83966 0.0117839 0.542944
0.871687 0.1 0.375 0.768183 0.021855 0.612257
0.871687 0.1 -0.375 0.768154 0.0201571 0.519652
0.93886 0.1 -0.15 0.742844 0.0252085 0.540478
0.93886 0.1 0.15 0.741838 0.0263843 0.585426
0.797314 0.1 0.525 0.791412 0.018089 0.620159
0.797314 0.1 -0.525 0.789107 0.0167884 0.515263
0 0.1 0.95701 0.829038 0 0.559193
0 0.1 -0.95701 0.829038 0 0.559193
0.0363518 0.1 0.95701 0.831796 0.00663877 0.563045
0.0363518 0.1 -0.95701 0.831725 0.00673549 0.556786
0.522433 0.1 0.80701 0.833222 0.0115327 0.605565
0.219992 0.1 0.9375 0.84377 0.0119879 0.579009
0.219992 0.1 -0.9375 0.841724 0.0124031 0.546494
0.93886 0.1 0.225 0.744472 0.026248 0.596544
0.93886 0.1 -0.225 0.74579 0.0245464 0.530175
0.90582 0.1 0.3375 0.758346 0.0236188 0.610191
0.905821 0.1 -0.3375 0.758984 0.0217072 0.519823
0.835106 0.1 -0.4875 0.781162 0.018019 0.513747
0.835107 0.1 0.4875 0.782514 0.019597 0.620644
0.969689 0.1 -0.0375 0.731799 0.0279897 0.555464
0.969689 0.1 0.0375 0.731426 0.0283557 0.567578
0.61613 0.1 0.75 0.824347 0.0128403 0.614361
0.574156 0.1 -0.7875 0.82379 0.0121576 0.524856
0.574156 0.1 0.7875 0.829643 0.0119893 0.610314
0 0.1 0.975 0.829038 0 0.559193
0 0.1 -0.975 0.829038 0 0.559193
0.623803 0.1 -0.75 0.818592 0.0127552 0.521596
0.969689 0.1 -0.1125 0.733427 0.0274334 0.543644
0.969689 0.1 0.1125 0.732331 0.0285231 0.579767
0.522865 0.1 -0.825 0.828152 0.0117721 0.528057
0.67013 0.1 0.7125 0.81867 0.0137222 0.617964
0.67013 0.1 -0.7125 0.813135 0.0133878 0.518615
0.871687 0.1 -0.45 0.772504 0.0194233 0.512632
0.871687 0.1 0.45 0.772935 0.021358 0.620218
0.467897 0.1 0.8625 0.837402 0.0109394 0.600982
0.467897 0.1 -0.8625 0.832306 0.0114184 0.531536
0.714971 0.1 -0.675 0.806863 0.0142128 0.515665
0.714971 0.1 0.675 0.811772 0.0148723 0.621034
0.93886 0.1 -0.3 0.749624 0.0237589 0.520535
0.93886 0.1 0.3 0.748188 0.0259373 0.607188
0.150379 0.1 0.975 0.839495 0.0129194 0.573225
0.150379 0.1 -0.975 0.838368 0.0132343 0.549995
0.969689 0.1 -0.1875 0.736274 0.0267237 0.532415
0.969689 0.1 0.1875 0.734506 0.0284849 0.591799
0.411108 0.1 0.9 0.839781 0.0106977 0.595846
0.756813 0.1 0.6375 0.804508 0.0160453 0.623616
0.756814 0.1 -0.6375 0.80029 0.0150787 0.513004
0.990306 0.1 -2.19732e-17 0.726732 0.0292653 0.56078
0 0.1 0.99299 0.829038 0 0.559193
0 0.1 -0.99299 0.829038 0 0.559193
0.411108 0.1 -0.903998 0.835252 0.0112526 0.534933
0.990306 0.1 -0.075 0.7278 0.0287542 0.548446
0.990306 0.1 0.075 0.726987 0.0295693 0.573305
0.0363518 0.1 0.99299 0.831799 0.00662585 0.563024
0.0363518 0.1 -0.99299 0.831735 0.00672002 0.55664
0.90582 0.1 -0.4125 0.763528 0.0209 0.511957
0.905821 0.1 0.4125 0.763116 0.023135 0.619133
0.797314 0.1 -0.6 0.793116 0.0161735 0.510518
0.797314 0.1 0.6 0.79627 0.0175171 0.625491
0.350249 0.1 0.9375 0.841888 0.0104957 0.590358
0.350249 0.1 -0.9375 0.838314 0.011075 0.538556
0.990306 0.1 0.15 0.728572 0.0296592 0.585794
0.990306 0.1 -0.15 0.730168 0.0280632 0.536587
0.969689 0.1 -0.2625 0.739991 0.0258918 0.521858
0.969689 0.1 0.2625 0.737911 0.0282415 0.603446
0.835106 0.1 -0.5625 0.78558 0.0173251 0.508351
0.835106 0.1 0.5625 0.787675 0.0190139 0.626843
0.93886 0.1 -0.375 0.754316 0.0228563 0.511726
0.93886 0.1 0.375 0.752892 0.0254626 0.61716
0.075776 0.1 1.0125 0.834847 0.0139449 0.567169
0.075776 0.1 -1.0125 0.834709 0.0141354 0.553865
0.990306 0.1 -0.225 0.733629 0.0272399 0.5254
0.990306 0.1 0.225 0.731462 0.0295308 0.59801
0.287374 0.1 0.975 0.843077 0.0111416 0.584812
0.287374 0.1 -0.975 0.840212 0.0116612 0.542029
0.871687 0.1 -0.525 0.777286 0.0186429 0.506521
0.871687 0.1 0.525 0.778316 0.0207484 0.627346
1.02149 0.1 -0.0369628 0.717055 0.0314395 0.552757
1.02149 0.1 0.0369628 0.716565 0.0319338 0.565849
0.969689 0.1 -0.3375 0.744734 0.0249099 0.512056
0.969689 0.1 0.3375 0.742454 0.0277999 0.614486
1.02149 0.1 -0.110888 0.718945 0.0307186 0.53998
1.02149 0.1 0.110888 0.717492 0.032198 0.579034
0.90582 0.1 0.4875 0.768641 0.0225149 0.627276
0.90582 0.1 -0.4875 0.768622 0.0200299 0.50505
0.623803 0.1 0.819003 0.826477 0.0125038 0.616587
0 0.1 1.03201 0.829038 0 0.559193
0 0.1 -1.03201 0.829038 0 0.559193
0.0363518 0.1 1.03201 0.831799 0.00662585 0.563024
0.0363518 0.1 -1.03201 0.831735 0.00672002 0.55664
0.67013 0.1 -0.7875 0.815874 0.0129621 0.515996
0.67013 0.1 0.7875 0.822216 0.0131886 0.620368
0.623803 0.1 -0.825 0.820914 0.0123814 0.519339
0.990306 0.1 -0.3 0.738083 0.0262734 0.51493
0.990306 0.1 0.3 0.735589 0.0291869 0.609723
0.219992 0.1 -1.0125 0.842024 0.0123237 0.545816
0.219993 0.1 1.0125 0.844106 0.0118769 0.578964
0.574156 0.1 0.8625 0.832045 0.0115721 0.611647
0.574157 0.1 -0.8625 0.82569 0.0118356 0.522911
0.714971 0.1 -0.75 0.810064 0.0137258 0.512657
0.714971 0.1 0.75 0.81589 0.0142899 0.624084
1.02149 0.1 0.184814 0.719827 0.0322221 0.592076
1.02149 0.1 -0.184814 0.722199 0.0298377 0.527929
0.756814 0.1 -0.7125 0.803942 0.0145303 0.509547
0.756814 0.1 0.7125 0.809151 0.015425 0.627365
0.522865 0.1 0.9 0.835617 0.0110826 0.60676
0.93886 0.1 -0.45 0.759709 0.0218687 0.503929
0.93886 0.1 0.45 0.758484 0.0248317 0.626316
1.04168 0.1 0 0.710656 0.0333056 0.558395
1.04168 0.1 -0.0729162 0.711912 0.0326352 0.545114
1.04168 0.1 0.0729162 0.71083 0.0337339 0.57188
0.522865 0.1 -0.903998 0.829481 0.0115231 0.52645
0.797314 0.1 -0.675 0.797258 0.0155454 0.506557
0.797314 0.1 0.675 0.801402 0.0168604 0.629999
0.467897 0.1 0.9375 0.838865 0.0106325 0.601529
0.467897 0.1 -0.9375 0.833495 0.01118 0.530127
0 0.1 1.05 0.829038 0 0.559193
0 0.1 -1.05 0.829038 0 0.559193
0.835106 0.1 -0.6375 0.790196 0.0166155 0.503817
0.835106 0.1 0.6375 0.793236 0.018331 0.632165
1.04168 0.1 -0.145832 0.714579 0.031759 0.532376
1.04168 0.1 0.145832 0.712443 0.0339152 0.585349
1.02149 0.1 -0.25874 0.726462 0.0288615 0.516618
1.02149 0.1 0.25874 0.723521 0.0320042 0.604731
0.969689 0.1 -0.4125 0.75035 0.0238184 0.503263
0.969689 0.1 0.4125 0.748023 0.0271803 0.624705
0.411108 0.1 0.975 0.840882 0.0104347 0.596119
0.411108 0.1 -0.975 0.836301 0.0110264 0.533739
0.871687 0.1 -0.6 0.782354 0.017839 0.501359
0.871687 0.1 0.6 0.784196 0.0200356 0.633555
1.0579 0.1 -0.0360525 0.706126 0.0343143 0.55072
1.0579 0.1 0.0360525 0.705521 0.0349095 0.564404
0.990306 0.1 -0.375 0.74354 0.0251616 0.505364
0.990306 0.1 0.375 0.740844 0.0286413 0.620709
0.150379 0.1 1.05 0.839665 0.0128519 0.573131
0.150379 0.1 -1.05 0.838529 0.0131795 0.549546
1.0579 0.1 0.108157 0.706371 0.0352547 0.578194
1.0579 0.1 -0.108157 0.708162 0.0334699 0.537359
1.04168 0.1 -0.218749 0.71848 0.0307627 0.520416
1.04168 0.1 0.218749 0.715466 0.0338419 0.598559
0.90582 0.1 -0.5625 0.77411 0.0191326 0.49918
0.90582 0.1 0.5625 0.774799 0.0217763 0.634424
0 0.1 -1.06799 0.829038 0 0.559193
0 0.1 1.06799 0.829038 0 0.559193
0.0363518 0.1 -1.06799 0.831745 0.00670771 0.556521
0.0363518 0.1 1.06799 0.831802 0.00661298 0.562974
0.350249 0.1 1.0125 0.842626 0.0102772 0.590411
0.350249 0.1 -1.0125 0.838939 0.0109064 0.537607
1.0579 0.1 -0.180262 0.71159 0.0324513 0.524784
1.0579 0.1 0.180262 0.708668 0.0353375 0.59186
1.02149 0.1 -0.332665 0.731852 0.027675 0.506016
1.02149 0.1 0.332665 0.728486 0.0315489 0.616772
0.93886 0.1 -0.525 0.765617 0.0208347 0.497254
0.93886 0.1 0.525 0.764841 0.0240585 0.634511
1.08012 0.1 5.49329e-18 0.698726 0.0366685 0.556451
1.04168 0.1 -0.291665 0.72348 0.0296058 0.509177
1.04168 0.1 0.291665 0.719832 0.0335133 0.611273
1.08012 0.1 0.0709941 0.698809 0.0372004 0.570565
1.08012 0.1 -0.0709941 0.700114 0.0358746 0.542548
0.969689 0.1 -0.4875 0.756643 0.0226443 0.495661
0.96969 0.1 0.4875 0.754507 0.0263842 0.633996
1.0579 0.1 0.252367 0.712364 0.0351536 0.605148
1.0579 0.1 -0.252367 0.716172 0.0313564 0.513002
0.990306 0.1 -0.45 0.749821 0.0239488 0.496977
0.990306 0.1 0.45 0.747111 0.0279058 0.630797
0.287374 0.1 -1.05 0.840671 0.0115359 0.541296
0.287374 0.1 1.05 0.843603 0.0109794 0.584725
0.714971 0.1 0.821002 0.819607 0.013741 0.626361
1.08012 0.1 -0.141988 0.702945 0.0348532 0.529215
1.08012 0.1 0.141988 0.70037 0.0374649 0.584679
0.075776 0.1 1.0875 0.834854 0.0139187 0.567065
0.075776 0.1 -1.0875 0.83473 0.0141105 0.553615
0.714971 0.1 -0.825 0.813247 0.0132365 0.510259
0.756813 0.1 -0.7875 0.807601 0.0139779 0.506775
0.756814 0.1 0.7875 0.813826 0.0147598 0.630312
0.67013 0.1 -0.8625 0.818579 0.0125361 0.513918
0.67013 0.1 0.8625 0.825663 0.0126475 0.622102
0.797314 0.1 -0.75 0.801439 0.0149136 0.503366
0.797314 0.1 0.75 0.806666 0.0161379 0.633647
0.623803 0.1 0.9 0.830203 0.0118836 0.617445
0.835106 0.1 -0.7125 0.794896 0.0159023 0.500141
0.835106 0.1 0.7125 0.799041 0.0175618 0.636576
0.623803 0.1 -0.903998 0.822904 0.0120512 0.517608
0.574156 0.1 0.9375 0.834352 0.011159 0.612455
0.574156 0.1 -0.9375 0.827543 0.0115121 0.521372
1.02149 0.1 -0.406591 0.738269 0.0263546 0.496546
1.02149 0.1 0.406591 0.734591 0.0308756 0.627969
1.08012 0.1 -0.212982 0.707104 0.0337102 0.516719
1.08012 0.1 0.212982 0.703383 0.0374512 0.598552
1.10076 0.1 -0.0349809 0.692144 0.0383512 0.548162
1.10076 0.1 0.0349809 0.691437 0.0390779 0.562568
0.871687 0.1 -0.675 0.78757 0.0170298 0.49714
0.871687 0.1 0.675 0.790425 0.0192265 0.6388
1.04168 0.1 -0.364581 0.729585 0.028259 0.498856
1.04168 0.1 0.364581 0.725435 0.0329408 0.623262
1.10076 0.1 -0.104943 0.694335 0.0373501 0.534063
1.10076 0.1 0.104943 0.69224 0.039536 0.577095
0.522865 0.1 0.975 0.837467 0.0107238 0.607223
0.522865 0.1 -0.975 0.831199 0.0112085 0.525097