# UMean  POINT_DATA 63840
# x  y  z  UMean_x  UMean_y  UMean_z
0 0.5 3.39583e-17 0.829038 0 0.559193
0 0.5 -0.00617931 0.829038 0 0.559193
0 0.5 0.00617931 0.829038 0 0.559193
0.0124865 0.5 -0.00617931 0.829012 0.000882931 0.559606
0.0124865 0.5 0.00617931 0.829012 0.000877309 0.559718
0 0.5 -0.0688207 0.829038 0 0.559193
0 0.5 0.0688207 0.829038 0 0.559193
0.0124865 0.5 -0.0688207 0.829012 0.000882931 0.559606
0.0124865 0.5 0.0688207 0.829012 0.000877309 0.559718
0 0.5 -0.075 0.829038 0 0.559193
0 0.5 0.075 0.829038 0 0.559193
0 0.5 -0.0811793 0.829038 0 0.559193
0 0.5 0.0811793 0.829038 0 0.559193
0.0124865 0.5 -0.0811793 0.829012 0.000884429 0.559491
0.0124865 0.5 0.0811793 0.829014 0.000867652 0.559825
0.075776 0.5 -0.0375 0.828854 0.00535246 0.561691
0.075776 0.5 0.0375 0.828856 0.00531841 0.562365
0.075776 0.5 -0.1125 0.828857 0.00536196 0.560999
0.075776 0.5 0.1125 0.82887 0.00526019 0.563014
0 0.5 -0.143821 0.829038 0 0.559193
0 0.5 0.143821 0.829038 0 0.559193
0.0124865 0.5 -0.143821 0.829012 0.000884429 0.559491
0.0124865 0.5 0.143821 0.829014 0.000867652 0.559825
0 0.5 -0.15 0.829038 0 0.559193
0 0.5 0.15 0.829038 0 0.559193
0.151149 0.5 -0.00137318 0.827729 0.00892268 0.563839
0 0.5 -0.156179 0.829038 0 0.559193
0 0.5 0.156179 0.829038 0 0.559193
0.0124865 0.5 -0.156179 0.82901 0.000882047 0.559381
0.0124865 0.5 0.156179 0.829018 0.000854515 0.559927
0.151149 0.5 0.075 0.827767 0.00889178 0.564992
0.151149 0.5 -0.075 0.827693 0.00897269 0.562595
0.075776 0.5 -0.1875 0.828843 0.00534806 0.560331
0.075776 0.5 0.1875 0.828891 0.00518081 0.563628
0.151149 0.5 0.15 0.827835 0.00879899 0.566133
0.151149 0.5 -0.15 0.827681 0.00896345 0.561371
0 0.5 -0.218821 0.829038 0 0.559193
0 0.5 0.218821 0.829038 0 0.559193
0.0124865 0.5 -0.218821 0.82901 0.000882047 0.559381
0.0124865 0.5 0.218821 0.829018 0.000854515 0.559927
0.219992 0.5 0.0375 0.826694 0.0123044 0.566318
0.219993 0.5 -0.0375 0.826623 0.01235 0.564636
0 0.5 -0.225 0.829038 0 0.559193
0 0.5 0.225 0.829038 0 0.559193
0 0.5 -0.231179 0.829038 0 0.559193
0 0.5 0.231179 0.829038 0 0.559193
0.0124865 0.5 -0.231179 0.82901 0.000877727 0.559263
0.0124865 0.5 0.231179 0.829022 0.000838399 0.560021
0.219992 0.5 0.1125 0.826795 0.0122121 0.567972
0.219993 0.5 -0.1125 0.826594 0.0123525 0.56289
0.151149 0.5 -0.225 0.827682 0.00892573 0.56016
0.151149 0.5 0.225 0.827923 0.00867301 0.567214
0.075776 0.5 -0.2625 0.828843 0.00532194 0.559625
0.075776 0.5 0.2625 0.828917 0.00508292 0.564199
0.288069 0.5 -0.00137318 0.82391 0.0156566 0.566753
0.219992 0.5 0.1875 0.826925 0.0120741 0.569555
0.219993 0.5 -0.1875 0.826584 0.0123183 0.561173
0 0.5 0.293821 0.829038 0 0.559193
0 0.5 -0.293821 0.829038 0 0.559193
0.0124865 0.5 -0.293821 0.82901 0.000877727 0.559263
0.0124865 0.5 0.293821 0.829022 0.000838399 0.560021
0.288069 0.5 -0.075 0.823803 0.0157044 0.564442
0.288069 0.5 0.075 0.824036 0.0156042 0.568895
0 0.5 -0.3 0.829038 0 0.559193
0 0.5 0.3 0.829038 0 0.559193
0 0.5 0.306179 0.829038 0 0.559193
0 0.5 -0.306179 0.829038 0 0.559193
0.0124865 0.5 -0.306179 0.82901 0.000870948 0.559153
0.0124865 0.5 0.306179 0.829028 0.000819687 0.560107
0.288069 0.5 -0.15 0.823786 0.0156728 0.56219
0.288069 0.5 0.15 0.824246 0.0154698 0.571042
0.151149 0.5 -0.3 0.827702 0.0088606 0.558966
0.151149 0.5 0.3 0.828029 0.0085161 0.56822
0.219992 0.5 -0.2625 0.82661 0.0122439 0.559488
0.219992 0.5 0.2625 0.82709 0.0118903 0.571047
0.075776 0.5 0.3375 0.828948 0.00496905 0.564721
0.075776 0.5 -0.3375 0.828842 0.00528105 0.55896
0.350249 0.5 -0.0375 0.821205 0.0188514 0.566455
0.350249 0.5 0.0375 0.821369 0.0187978 0.569185
0.288069 0.5 -0.225 0.823831 0.015588 0.559974
0.288069 0.5 0.225 0.824518 0.0152778 0.573087
0.350249 0.5 0.1125 0.821623 0.0186791 0.571891
0.350249 0.5 -0.1125 0.821141 0.0188395 0.563704
0 0.5 0.368821 0.829038 0 0.559193
0 0.5 -0.368821 0.829038 0 0.559193
0.0124865 0.5 -0.368821 0.82901 0.000870948 0.559153
0.0124865 0.5 0.368821 0.829028 0.000819687 0.560107
0 0.5 -0.375 0.829038 0 0.559193
0 0.5 0.375 0.829038 0 0.559193
0 0.5 -0.381179 0.829038 0 0.559193
0 0.5 0.381179 0.829038 0 0.559193
0.0124865 0.5 -0.381179 0.829011 0.000861186 0.559043
0.0124865 0.5 0.381179 0.829034 0.000798788 0.560184
0.350249 0.5 -0.1875 0.821177 0.0187586 0.560971
0.350249 0.5 0.1875 0.821968 0.0184931 0.574469
0.219992 0.5 -0.3375 0.826665 0.0121289 0.557832
0.219992 0.5 0.3375 0.827283 0.0116649 0.572426
0.151149 0.5 -0.375 0.827743 0.00876717 0.557816
0.151149 0.5 0.375 0.828151 0.00833127 0.569138
0.411736 0.5 -0.00137318 0.817414 0.0220829 0.568679
0.288069 0.5 -0.3 0.823938 0.0154503 0.557811
0.288069 0.5 0.3 0.824848 0.0150298 0.57501
0.411736 0.5 -0.075 0.817248 0.0221162 0.565282
0.411736 0.5 0.075 0.817648 0.0220169 0.571833
0.075776 0.5 -0.4125 0.828851 0.00522197 0.558296
0.075776 0.5 0.4125 0.828985 0.00484161 0.565187
0.350249 0.5 -0.2625 0.8213 0.0186126 0.558306
0.350249 0.5 0.2625 0.8224 0.018237 0.576933
0.411736 0.5 -0.15 0.817258 0.0220406 0.562006
0.411736 0.5 0.15 0.818053 0.0218437 0.575014
0 0.5 -0.443821 0.829038 0 0.559193
0 0.5 0.443821 0.829038 0 0.559193
0.0124865 0.5 -0.443821 0.829011 0.000861186 0.559043
0.0124865 0.5 0.443821 0.829034 0.000798788 0.560184
0 0.5 -0.45 0.829038 0 0.559193
0 0.5 0.45 0.829038 0 0.559193
0 0.5 -0.456179 0.829038 0 0.559193
0 0.5 0.456179 0.829038 0 0.559193
0.0124865 0.5 -0.456179 0.829016 0.000847978 0.558941
0.0124865 0.5 0.456179 0.829041 0.000776075 0.560251
0.219992 0.5 -0.4125 0.826762 0.0119759 0.556279
0.219993 0.5 0.4125 0.827499 0.0114008 0.573676
0.411736 0.5 -0.225 0.817406 0.0218822 0.558792
0.411736 0.5 0.225 0.81859 0.0215871 0.578069
0.467897 0.5 0.0375 0.813819 0.0251683 0.571184
0.467897 0.5 -0.0375 0.813584 0.0252146 0.567375
0.288069 0.5 -0.375 0.82411 0.0152625 0.55574
0.288069 0.5 0.375 0.825229 0.0147297 0.57678
0.151149 0.5 -0.45 0.827814 0.00864593 0.55672
0.151149 0.5 0.45 0.828287 0.00812151 0.569958
0.467897 0.5 -0.1125 0.813525 0.0251616 0.563571
0.467897 0.5 0.1125 0.814233 0.0250239 0.574921
0.350249 0.5 0.3375 0.822913 0.017916 0.579229
0.350249 0.5 -0.3375 0.821516 0.0184026 0.555721
0.075776 0.5 -0.4875 0.828882 0.00514208 0.557677
0.075776 0.5 0.4875 0.829026 0.0047029 0.565594
0.467897 0.5 -0.1875 0.81365 0.0250086 0.559815
0.467897 0.5 0.1875 0.814828 0.0247829 0.578564
0.411736 0.5 -0.3 0.817686 0.0216448 0.555678
0.411736 0.5 0.3 0.81925 0.0212495 0.580956
0 0.5 -0.518821 0.829038 0 0.559193
0 0.5 0.518821 0.829038 0 0.559193
0.0124865 0.5 0.518821 0.829041 0.000776075 0.560251
0.0124865 0.5 -0.518821 0.829016 0.000847978 0.558941
0.523432 0.5 -0.00137318 0.808948 0.0284263 0.569779
0 0.5 -0.525 0.829038 0 0.559193
0 0.5 0.525 0.829038 0 0.559193
0.523432 0.5 -0.075 0.808753 0.0284231 0.565267
0.523432 0.5 0.075 0.809287 0.0283605 0.573971
0 0.5 -0.531179 0.829038 0 0.559193
0 0.5 0.531179 0.829038 0 0.559193
0.0124865 0.5 -0.531179 0.82902 0.000832745 0.558846
0.0124865 0.5 0.531179 0.829048 0.000751852 0.560308
0.288069 0.5 -0.45 0.824345 0.0150311 0.553781
0.288069 0.5 0.45 0.825654 0.0143817 0.578377
0.219992 0.5 -0.4875 0.826903 0.0117897 0.55479
0.219993 0.5 0.4875 0.827733 0.0111021 0.574781
0.467897 0.5 -0.2625 0.813949 0.02476 0.556171
0.467897 0.5 0.2625 0.815588 0.0244444 0.582035
0.350249 0.5 -0.4125 0.821825 0.018136 0.55329
0.350249 0.5 0.4125 0.823495 0.0175333 0.58133
0.523432 0.5 -0.15 0.808837 0.0282784 0.560945
0.523432 0.5 0.15 0.809902 0.028155 0.578221
0.151149 0.5 -0.525 0.827902 0.00850091 0.55569
0.151149 0.5 0.525 0.828432 0.00789012 0.57067
0.411736 0.5 -0.375 0.818092 0.0213347 0.552713
0.411736 0.5 0.375 0.820019 0.0208354 0.583631
0.075776 0.5 -0.5625 0.828904 0.0050498 0.557104
0.075776 0.5 0.5625 0.829071 0.00455477 0.565937
0.523432 0.5 -0.225 0.809151 0.0280197 0.556728
0.523432 0.5 0.225 0.81074 0.0278356 0.582323
0.574156 0.5 -0.0375 0.804221 0.0315295 0.567511
0.574156 0.5 0.0375 0.804519 0.0315119 0.572418
0.467897 0.5 0.3375 0.816501 0.0240154 0.585291
0.467897 0.5 -0.3375 0.814416 0.0244219 0.552667
0.574156 0.5 -0.1125 0.80421 0.0314115 0.56263
0.574156 0.5 0.1125 0.805099 0.0313599 0.577262
0 0.5 -0.593821 0.829038 0 0.559193
0 0.5 0.593821 0.829038 0 0.559193
0.0124865 0.5 -0.593821 0.82902 0.000832745 0.558846
0.0124865 0.5 0.593821 0.829048 0.000751852 0.560308
0.288069 0.5 -0.525 0.824624 0.0147623 0.551941
0.288069 0.5 0.525 0.826112 0.0139912 0.579782
0 0.5 -0.6 0.829038 0 0.559193
0 0.5 0.6 0.829038 0 0.559193
0.350249 0.5 -0.4875 0.822204 0.0178241 0.550981
0.350249 0.5 0.4875 0.824135 0.0170951 0.58321
0.523432 0.5 -0.3 0.809685 0.0276541 0.55267
0.523432 0.5 0.3 0.811786 0.027406 0.586215
0.219992 0.5 -0.5625 0.827051 0.0115757 0.553409
0.219992 0.5 0.5625 0.827981 0.0107737 0.575731
0.574156 0.5 -0.1875 0.804485 0.0311613 0.557842
0.574156 0.5 0.1875 0.805955 0.0310768 0.581977
0 0.5 -0.606179 0.829038 0 0.559193
0 0.5 0.606179 0.829038 0 0.559193
0.0124865 0.5 -0.606179 0.829024 0.000815854 0.558759
0.0124865 0.5 0.606179 0.829056 0.000726368 0.560354
0.411736 0.5 -0.45 0.818609 0.0209627 0.549923
0.411736 0.5 0.45 0.820883 0.0203501 0.586063
0.151149 0.5 -0.6 0.827994 0.0083371 0.554737
0.151149 0.5 0.6 0.828585 0.00764045 0.571269
0.62168 0.5 2.64545e-17 0.799211 0.0345851 0.570217
0.467897 0.5 0.4125 0.817545 0.0234996 0.588286
0.467897 0.5 -0.4125 0.815033 0.0240051 0.549381
0.624316 0.5 0.0729402 0.799355 0.0347074 0.575451
0.624316 0.5 -0.075 0.798725 0.0346945 0.564528
0.574156 0.5 -0.2625 0.805033 0.0307848 0.553221
0.574157 0.5 0.2625 0.807078 0.0306654 0.586497
0.075776 0.5 -0.6375 0.828928 0.00494724 0.556574
0.075776 0.5 0.6375 0.829118 0.00439915 0.566215
0.624316 0.5 -0.15 0.798937 0.0344587 0.559144
0.624316 0.5 0.15 0.800187 0.0344844 0.580814
0.523432 0.5 -0.375 0.810418 0.0271921 0.548829
0.523432 0.5 0.375 0.813019 0.0268719 0.58984
0.350249 0.5 -0.5625 0.822633 0.0174697 0.548851
0.350249 0.5 0.5625 0.82482 0.0166085 0.584849
0.624316 0.5 -0.225 0.799487 0.0340773 0.553921
0.624316 0.5 0.225 0.80135 0.0341128 0.586
0.288069 0.5 0.6 0.826595 0.0135643 0.580982
0.288069 0.5 -0.6 0.824934 0.0144606 0.550247
0.574156 0.5 -0.3375 0.805835 0.0302938 0.548808
0.574156 0.5 0.3375 0.808445 0.0301313 0.590759
0.411736 0.5 -0.525 0.819212 0.0205371 0.547327
0.411736 0.5 0.525 0.821823 0.0198009 0.588221
0 0.5 -0.668821 0.829038 0 0.559193
0 0.5 0.668821 0.829038 0 0.559193
0.0124865 0.5 -0.668821 0.829024 0.000815854 0.558759
0.0124865 0.5 0.668821 0.829056 0.000726368 0.560354
0.67013 0.5 0.0375 0.793805 0.0378716 0.573036
0.67013 0.5 -0.0375 0.793472 0.0378423 0.567003
0.219993 0.5 -0.6375 0.827216 0.011338 0.552134
0.219993 0.5 0.6375 0.828237 0.0104201 0.576518
0 0.5 -0.675 0.829038 0 0.559193
0 0.5 0.675 0.829038 0 0.559193
0.467897 0.5 0.4875 0.818702 0.0229042 0.590985
0.467897 0.5 -0.4875 0.815773 0.0235222 0.546297
0.67013 0.5 -0.1125 0.793556 0.0376406 0.561023
0.67013 0.5 0.1125 0.79455 0.0377279 0.579026
0 0.5 -0.681179 0.829038 0 0.559193
0 0.5 0.681179 0.829038 0 0.559193
0.0124865 0.5 -0.681179 0.829029 0.000797541 0.558679
0.0124865 0.5 0.681179 0.829063 0.00070008 0.560389
0.523432 0.5 -0.45 0.811323 0.0266463 0.545244
0.523432 0.5 0.45 0.814411 0.0262405 0.593148
0.151149 0.5 -0.675 0.828096 0.0081569 0.553864
0.151149 0.5 0.675 0.828741 0.00737612 0.571751
0.624316 0.5 -0.3 0.800354 0.0335611 0.548923
0.624316 0.5 0.3 0.802822 0.0335978 0.590937
0.67013 0.5 0.1875 0.795688 0.0374153 0.584869
0.67013 0.5 -0.1875 0.794047 0.0372729 0.555191
0.574156 0.5 -0.4125 0.80686 0.0297012 0.544697
0.574157 0.5 0.4125 0.810024 0.0294814 0.594692
0.708171 0.5 1.88651e-17 0.788631 0.040595 0.570324
0.075776 0.5 -0.7125 0.828956 0.00483566 0.55609
0.075776 0.5 0.7125 0.829164 0.00423845 0.566428
0.715434 0.5 0.0736268 0.788348 0.0410071 0.576553
0.715434 0.5 -0.075 0.787539 0.0409537 0.563198
0.67013 0.5 0.2625 0.797201 0.036939 0.59048
0.67013 0.5 -0.2625 0.794919 0.0367485 0.549591
0.350249 0.5 -0.6375 0.823112 0.0170786 0.546903
0.350249 0.5 0.6375 0.825534 0.0160807 0.586231
0.411736 0.5 -0.6 0.819889 0.020064 0.544957
0.411736 0.5 0.6 0.822819 0.019196 0.590084
0.624316 0.5 -0.375 0.801507 0.0329241 0.544224
0.624316 0.5 0.375 0.804576 0.0329463 0.595551
0.715434 0.5 -0.15 0.787933 0.0406091 0.556735
0.715434 0.5 0.15 0.789261 0.0408478 0.582913
0.467897 0.5 -0.5625 0.816617 0.0229803 0.54348
0.467897 0.5 0.5625 0.819948 0.0222382 0.593355
0.288069 0.5 -0.675 0.825274 0.0141301 0.548704
0.288069 0.5 0.675 0.827093 0.0131074 0.581967
0.523432 0.5 -0.525 0.812373 0.0260281 0.541943
0.523432 0.5 0.525 0.815935 0.025521 0.5961
0 0.5 -0.743821 0.829038 0 0.559193
0 0.5 0.743821 0.829038 0 0.559193
0.0124865 0.5 -0.743821 0.829029 0.000797541 0.558679
0.0124865 0.5 0.743821 0.829063 0.00070008 0.560389
0.219992 0.5 0.7125 0.828498 0.0100467 0.57714
0.219992 0.5 -0.7125 0.827395 0.0110787 0.550977
0.715434 0.5 -0.225 0.788784 0.0400865 0.550495
0.715434 0.5 0.225 0.790769 0.0404338 0.58923
0 0.5 -0.75 0.829038 0 0.559193
0 0.5 0.75 0.829038 0 0.559193
0.67013 0.5 0.3375 0.799066 0.0363055 0.595782
0.67013 0.5 -0.3375 0.796144 0.0360844 0.544279
0.574156 0.5 -0.4875 0.808074 0.0290211 0.540881
0.574156 0.5 0.4875 0.811783 0.0287256 0.598248
0 0.5 -0.756179 0.829038 0 0.559193
0 0.5 0.756179 0.829038 0 0.559193
0.0124865 0.5 -0.756179 0.829034 0.000777982 0.558607
0.0124865 0.5 0.756179 0.82907 0.000673553 0.560413
0.756813 0.5 -0.0375 0.781728 0.044151 0.565971
0.756813 0.5 0.0375 0.782064 0.0442426 0.573162
0.151149 0.5 -0.75 0.828206 0.00796212 0.553075
0.151149 0.5 0.75 0.828897 0.00710144 0.572116
0.756813 0.5 -0.1125 0.781953 0.0438496 0.558871
0.756813 0.5 0.1125 0.782959 0.0441213 0.580328
0.624316 0.5 -0.45 0.80291 0.0321809 0.539878
0.624316 0.5 0.45 0.806572 0.032168 0.599773
0.715434 0.5 -0.3 0.790063 0.039401 0.544561
0.715434 0.5 0.3 0.792703 0.0398397 0.595252
0.756813 0.5 0.1875 0.78439 0.0437901 0.587341
0.756813 0.5 -0.1875 0.782717 0.0433476 0.551979
0.67013 0.5 -0.4125 0.797682 0.0352942 0.539366
0.67013 0.5 0.4125 0.801243 0.0355237 0.600687
0.411736 0.5 -0.675 0.820627 0.0195502 0.542823
0.411736 0.5 0.675 0.823852 0.0185446 0.591637
0.467897 0.5 0.6375 0.821256 0.0215113 0.595375
0.467897 0.5 -0.6375 0.817547 0.0223875 0.540933
0.075776 0.5 -0.7875 0.828986 0.00471628 0.555656
0.075776 0.5 0.7875 0.829206 0.00407591 0.566574
0.350249 0.5 -0.7125 0.823629 0.0166553 0.545151
0.350249 0.5 0.7125 0.826264 0.0155199 0.587347
0.523432 0.5 -0.6 0.813543 0.0253473 0.538963
0.523432 0.5 0.6 0.817558 0.0247239 0.598664
0.797732 0.5 2.68882e-17 0.775518 0.0474274 0.569134
0.756813 0.5 -0.2625 0.783981 0.042659 0.545393
0.756814 0.5 0.2625 0.786323 0.0432563 0.594087
0.797732 0.5 0.0736268 0.776238 0.0474121 0.577185
0.797732 0.5 -0.075 0.77552 0.047185 0.561394
0.288069 0.5 -0.75 0.825639 0.0137744 0.547321
0.288069 0.5 0.75 0.827597 0.0126274 0.582735
0.574156 0.5 -0.5625 0.809449 0.0282654 0.537433
0.574157 0.5 0.5625 0.813682 0.0278751 0.601386
0.715434 0.5 -0.375 0.791731 0.0385688 0.539022
0.715434 0.5 0.375 0.795026 0.0390745 0.600889
0.797732 0.5 -0.15 0.77615 0.0467189 0.553835
0.797732 0.5 0.15 0.777428 0.0472182 0.584624
0.624316 0.5 -0.525 0.80452 0.0313467 0.535919
0.624316 0.5 0.525 0.808764 0.0312753 0.603553
0.219992 0.5 -0.7875 0.827587 0.0108003 0.549941
0.219992 0.5 0.7875 0.828762 0.00965962 0.577595
0 0.5 -0.818821 0.829038 0 0.559193
0 0.5 0.818821 0.829038 0 0.559193
0.0124865 0.5 0.818821 0.82907 0.000673553 0.560413
0.0124865 0.5 -0.818821 0.829034 0.000777982 0.558607
0 0.5 -0.825 0.829038 0 0.559193
0 0.5 0.825 0.829038 0 0.559193
0.756813 0.5 0.3375 0.788725 0.042528 0.600464
0.756814 0.5 -0.3375 0.785716 0.0418029 0.539197
0.67013 0.5 -0.4875 0.799484 0.0343959 0.534857
0.67013 0.5 0.4875 0.803678 0.0346067 0.605136
0.797732 0.5 -0.225 0.77737 0.0460421 0.546575
0.797732 0.5 0.225 0.779295 0.0467701 0.592108
0 0.5 -0.831179 0.829038 0 0.559193
0 0.5 0.831179 0.829038 0 0.559193
0.0124865 0.5 -0.831179 0.829039 0.000757449 0.558544
0.0124865 0.5 0.831179 0.829076 0.000646934 0.560426
0.835106 0.5 0.0375 0.769559 0.0505842 0.572908
0.835106 0.5 -0.0375 0.769255 0.0504212 0.564531
0.151149 0.5 -0.825 0.828322 0.00775487 0.552374
0.151149 0.5 0.825 0.829055 0.00682016 0.572365
0.835106 0.5 0.1125 0.770582 0.0504948 0.581276
0.835106 0.5 -0.1125 0.769671 0.0500115 0.556289
0.715434 0.5 -0.45 0.793731 0.0376074 0.533942
0.715434 0.5 0.45 0.797685 0.0381505 0.60606
0.797732 0.5 -0.3 0.779136 0.0451723 0.539714
0.797732 0.5 0.3 0.781719 0.0461032 0.59925
0.467897 0.5 0.7125 0.8226 0.0207341 0.597031
0.467897 0.5 -0.7125 0.818543 0.0217525 0.538675
0.523432 0.5 -0.675 0.814804 0.0246143 0.536316
0.523432 0.5 0.675 0.819246 0.023861 0.600819
0.411736 0.5 -0.75 0.821409 0.0190023 0.540934
0.411736 0.5 0.75 0.824902 0.017856 0.592871
0.835106 0.5 -0.1875 0.770776 0.0493659 0.548332
0.835106 0.5 0.1875 0.772302 0.0501539 0.589488
0.574156 0.5 -0.6375 0.810949 0.0274457 0.534358
0.574157 0.5 0.6375 0.815682 0.0269421 0.604075
0.350249 0.5 -0.7875 0.824177 0.0162047 0.543601
0.350249 0.5 0.7875 0.826997 0.014934 0.588197
0.756813 0.5 -0.4125 0.787862 0.0407948 0.533502
0.756814 0.5 0.4125 0.791546 0.0416169 0.606382
0.075776 0.5 -0.8625 0.829019 0.00459076 0.555271
0.075776 0.5 0.8625 0.829244 0.00391321 0.566657
0.624316 0.5 0.6 0.811104 0.0302813 0.606848
0.624316 0.5 -0.6 0.806297 0.0304351 0.532389
0.872064 0.5 5.91974e-17 0.762881 0.0536544 0.568131
0.870122 0.5 0.075 0.764007 0.0535279 0.577489
0.288069 0.5 -0.825 0.82602 0.0133975 0.546102
0.288069 0.5 0.825 0.828101 0.0121305 0.583287
0.67013 0.5 -0.5625 0.801504 0.0334054 0.530828
0.67013 0.5 0.5625 0.806316 0.0335688 0.609069
0.872064 0.5 -0.075 0.763001 0.0533194 0.559222
0.835106 0.5 -0.2625 0.772504 0.0485022 0.540771
0.835106 0.5 0.2625 0.774673 0.0495694 0.597403
0.797732 0.5 -0.375 0.781402 0.0441287 0.533347
0.797732 0.5 0.375 0.784652 0.0452284 0.605944
0.872064 0.5 0.14794 0.765042 0.0535152 0.586029
0.872064 0.5 -0.15 0.763916 0.0527248 0.55056
0.715434 0.5 -0.525 0.796007 0.0365362 0.529367
0.715434 0.5 0.525 0.800617 0.0370829 0.610694
0.219992 0.5 0.8625 0.829033 0.00926245 0.577889
0.219993 0.5 -0.8625 0.827786 0.0105058 0.549029
0 0.5 -0.893821 0.829038 0 0.559193
0 0.5 0.893821 0.829038 0 0.559193
0.0124865 0.5 -0.893821 0.829039 0.000757449 0.558544
0.0124865 0.5 0.893821 0.829076 0.000646934 0.560426
0 0.5 -0.9 0.829038 0 0.559193
0 0.5 0.9 0.829038 0 0.559193
0.756813 0.5 -0.4875 0.790347 0.0396573 0.528333
0.756813 0.5 0.4875 0.794716 0.0405386 0.611745
0.872064 0.5 -0.225 0.765561 0.0518859 0.542291
0.872064 0.5 0.225 0.767277 0.0530415 0.594703
0.835106 0.5 -0.3375 0.774822 0.0474402 0.533707
0.835106 0.5 0.3375 0.777642 0.0487522 0.604882
0 0.5 0.906179 0.829038 0 0.559193
0 0.5 -0.906179 0.829038 0 0.559193
0.0124865 0.5 -0.906179 0.829045 0.000736202 0.558489
0.0124865 0.5 0.906179 0.829081 0.000620967 0.56043
0.90582 0.5 -0.0375 0.756466 0.0565451 0.562775
0.90582 0.5 0.0375 0.75673 0.0567854 0.572353
0.151149 0.5 -0.9 0.828442 0.00753758 0.551761
0.151149 0.5 0.9 0.829212 0.00653513 0.572503
0.90582 0.5 -0.1125 0.757096 0.0560218 0.55338
0.905821 0.5 0.1125 0.757877 0.0567351 0.58194
0.523432 0.5 -0.75 0.816129 0.0238393 0.53401
0.523432 0.5 0.75 0.820964 0.0229446 0.602554
0.574156 0.5 -0.7125 0.812537 0.0265748 0.531675
0.574156 0.5 0.7125 0.817742 0.0259403 0.606296
0.797732 0.5 -0.45 0.784093 0.042933 0.527552
0.797732 0.5 0.45 0.788027 0.0441603 0.612087
0.467897 0.5 0.7875 0.823952 0.0199177 0.598318
0.467897 0.5 -0.7875 0.819583 0.0210833 0.536709
0.624316 0.5 -0.675 0.808194 0.0294606 0.5293
0.624316 0.5 0.675 0.813543 0.0292009 0.609628
0.411736 0.5 -0.825 0.82222 0.018427 0.539294
0.411736 0.5 0.825 0.825944 0.0171394 0.593787
0.872064 0.5 0.3 0.770211 0.0523094 0.602991
0.872064 0.5 -0.3 0.767868 0.0508224 0.534513
0.67013 0.5 -0.6375 0.803684 0.0323384 0.527287
0.67013 0.5 0.6375 0.809101 0.0324257 0.612449
0.90582 0.5 0.1875 0.759886 0.0563934 0.591364
0.905821 0.5 -0.1875 0.758591 0.0552273 0.54437
0.350249 0.5 -0.8625 0.824741 0.0157321 0.542255
0.350249 0.5 0.8625 0.827714 0.01433 0.588783
0.835106 0.5 -0.4125 0.777661 0.0462019 0.527229
0.835106 0.5 0.4125 0.781155 0.0477152 0.61184
0.715434 0.5 -0.6 0.798495 0.0353737 0.525341
0.715434 0.5 0.6 0.803755 0.0358887 0.61474
0.939201 0.5 2.75387e-17 0.749772 0.059915 0.566858
0.075776 0.5 0.9375 0.829274 0.00375295 0.56668
0.075776 0.5 -0.9375 0.829053 0.00446063 0.554937
0.939111 0.5 0.075 0.75057 0.0600381 0.577935
0.939201 0.5 -0.075 0.750061 0.0594796 0.556739
0.756813 0.5 0.5625 0.798164 0.0393108 0.616497
0.756814 0.5 -0.5625 0.793109 0.0384116 0.523768
0.90582 0.5 0.2625 0.762708 0.055767 0.600467
0.905821 0.5 -0.2625 0.760825 0.0541826 0.535858
0.288069 0.5 -0.9 0.826411 0.0130037 0.545049
0.288069 0.5 0.9 0.828594 0.0116206 0.58363
0.872064 0.5 -0.375 0.770791 0.0495574 0.527316
0.872064 0.5 0.375 0.773782 0.0513319 0.61076
0.939201 0.5 0.148627 0.752212 0.0598287 0.587404
0.939201 0.5 -0.15 0.751336 0.0587458 0.546948
0.797732 0.5 -0.525 0.787129 0.0416092 0.522395
0.797732 0.5 0.525 0.791758 0.0429178 0.617592
0.219992 0.5 0.9375 0.829307 0.00885876 0.57803
0.219992 0.5 -0.9375 0.827989 0.0101986 0.548241
0.939201 0.5 -0.225 0.753479 0.0577309 0.537658
0.939201 0.5 0.225 0.754734 0.0593559 0.597148
0.905821 0.5 -0.3375 0.763753 0.0529071 0.527915
0.90582 0.5 0.3375 0.766264 0.0548698 0.609076
0.835106 0.5 -0.4875 0.780923 0.0448145 0.521422
0.835106 0.5 0.4875 0.785117 0.0464767 0.61813
0 0.5 0.968821 0.829038 0 0.559193
0 0.5 -0.968821 0.829038 0 0.559193
0.0124865 0.5 -0.968821 0.829045 0.000736202 0.558489
0.0124865 0.5 0.968821 0.829081 0.000620967 0.56043
0.969689 0.5 -0.0375 0.743093 0.0628692 0.560753
0.969689 0.5 0.0375 0.743247 0.0631938 0.571598
0.574156 0.5 -0.7875 0.814176 0.0256644 0.52938
0.574156 0.5 0.7875 0.81982 0.024884 0.608041
0 0.5 -0.975 0.829038 0 0.559193
0 0.5 0.975 0.829038 0 0.559193
0.624316 0.5 -0.75 0.810166 0.0284375 0.526656
0.624316 0.5 0.75 0.816032 0.0280496 0.61188
0.969689 0.5 -0.1125 0.744029 0.0622196 0.550137
0.96969 0.5 0.1125 0.744473 0.0631837 0.582471
0.523432 0.5 -0.825 0.817486 0.0230325 0.532044
0.523432 0.5 0.825 0.822679 0.0219874 0.603864
0.67013 0.5 0.7125 0.811972 0.0311943 0.61525
0.67013 0.5 -0.7125 0.80597 0.031212 0.524249
0 0.5 -0.981179 0.829038 0 0.559193
0 0.5 0.981179 0.829038 0 0.559193
0.467897 0.5 0.8625 0.825284 0.0190727 0.599236
0.467897 0.5 -0.8625 0.820644 0.0203883 0.535032
0.0124865 0.5 -0.981179 0.829051 0.000714468 0.558442
0.0124865 0.5 0.981179 0.829083 0.000595695 0.560425
0.872064 0.5 -0.45 0.774243 0.0481188 0.520815
0.872064 0.5 0.45 0.777909 0.0501257 0.617897
0.715434 0.5 -0.675 0.801128 0.0341385 0.521872
0.715434 0.5 0.675 0.807028 0.0345859 0.618161
0.939201 0.5 -0.3 0.756364 0.0564568 0.528938
0.939201 0.5 0.3 0.758195 0.0585568 0.606618
0.151149 0.5 0.975 0.829364 0.00625003 0.572536
0.151149 0.5 -0.975 0.828564 0.00731285 0.551237
0.969689 0.5 -0.1875 0.746056 0.0612569 0.540029
0.969689 0.5 0.1875 0.746749 0.0628368 0.593172
0.756813 0.5 -0.6375 0.796066 0.0370782 0.519818
0.756813 0.5 0.6375 0.801805 0.0379535 0.620581
0.411736 0.5 -0.9 0.823042 0.017831 0.537899
0.411736 0.5 0.9 0.82696 0.0164019 0.594391
0.90582 0.5 -0.4125 0.767333 0.0514327 0.520645
0.90582 0.5 0.4125 0.770485 0.0537162 0.617065
0.995005 0.5 0.0749309 0.738926 0.065157 0.577786
0.797732 0.5 -0.6 0.790421 0.0401802 0.517919
0.797732 0.5 0.6 0.795759 0.0415218 0.622402
1.00005 0.5 -8.47123e-18 0.737007 0.0654296 0.565441
0.350249 0.5 -0.9375 0.825313 0.0152431 0.54111
0.350249 0.5 0.9375 0.8284 0.0137091 0.589118
1.00005 0.5 -0.0749309 0.73747 0.0649051 0.554188
0.969689 0.5 -0.2625 0.748853 0.0600065 0.530535
0.969689 0.5 0.2625 0.750023 0.0621597 0.603511
0.835106 0.5 -0.5625 0.784524 0.0433021 0.516359
0.835106 0.5 0.5625 0.789428 0.0450598 0.623711
1.00005 0.5 -0.149862 0.739117 0.0640519 0.543344
0.939201 0.5 -0.375 0.759998 0.0549519 0.52087
0.939201 0.5 0.375 0.762434 0.0574726 0.615489
1.00029 0.5 0.148988 0.739727 0.0653978 0.588313
0.075776 0.5 -1.0125 0.829088 0.00432745 0.554652
0.075776 0.5 1.0125 0.829291 0.00359766 0.566649
0.288069 0.5 0.975 0.829077 0.0111017 0.583773
0.288069 0.5 -0.975 0.826804 0.0125976 0.544157
0.872064 0.5 -0.525 0.778115 0.0465337 0.515106
0.872064 0.5 0.525 0.782488 0.048712 0.624287
1.00005 0.5 0.224793 0.742528 0.0649497 0.599181
1.00005 0.5 -0.224793 0.741762 0.0628903 0.533138
0.969689 0.5 0.3375 0.754199 0.0611676 0.613298
0.96969 0.5 -0.3375 0.752412 0.0584888 0.521635
1.0271 0.5 -0.0368226 0.730345 0.0682348 0.558793
1.0271 0.5 0.0368226 0.730438 0.0686206 0.570575
0.90582 0.5 0.4875 0.775267 0.052327 0.62434
0.905821 0.5 -0.4875 0.771431 0.0497887 0.514225
1.0271 0.5 -0.110468 0.731497 0.0675085 0.547256
1.0271 0.5 0.110468 0.731434 0.0689519 0.585123
0.67013 0.5 0.7875 0.814874 0.0298919 0.617463
0.67013 0.5 -0.7875 0.808306 0.0300418 0.521706
0.624316 0.5 0.825 0.818521 0.0268437 0.613599
0.624316 0.5 -0.825 0.812166 0.0273795 0.524449
0.219993 0.5 -1.0125 0.828194 0.00988246 0.547576
0.219993 0.5 1.0125 0.829577 0.00845444 0.578024
0.574156 0.5 -0.8625 0.815831 0.0247262 0.527467
0.574156 0.5 0.8625 0.821875 0.0237879 0.609311
0.715434 0.5 -0.75 0.803838 0.0328495 0.518963
0.715434 0.5 0.75 0.81037 0.0331932 0.62094
0.756813 0.5 0.7125 0.805561 0.0364859 0.623972
0.756814 0.5 -0.7125 0.799137 0.0356784 0.51649
0.523432 0.5 -0.9 0.818848 0.0222034 0.530407
0.523432 0.5 0.9 0.824358 0.0210012 0.604757
0.939201 0.5 -0.45 0.764303 0.0532498 0.513649
0.939201 0.5 0.45 0.767355 0.0561226 0.623639
1.04168 0.5 0 0.726663 0.0699883 0.564245
1.0271 0.5 -0.184113 0.733881 0.0664526 0.536343
1.0271 0.5 0.184113 0.734272 0.0683375 0.594048
0 0.5 -1.04382 0.829038 0 0.559193
0 0.5 1.04382 0.829038 0 0.559193
0.0124865 0.5 -1.04382 0.829051 0.000714468 0.558442
0.0124865 0.5 1.04382 0.829083 0.000595695 0.560425
1.00005 0.5 -0.299723 0.745223 0.0614397 0.52354
1.00005 0.5 0.299723 0.746515 0.0641122 0.609753
1.04168 0.5 -0.0729162 0.727232 0.0694151 0.552343
1.04168 0.5 0.0729162 0.727349 0.070213 0.576278
0.797732 0.5 -0.675 0.793873 0.0386696 0.51413
0.797732 0.5 0.675 0.799938 0.0399944 0.626467
0.467897 0.5 0.9375 0.826574 0.0182077 0.599795
0.467897 0.5 -0.9375 0.821706 0.0196752 0.533636
0 0.5 -1.05 0.829038 0 0.559193
0 0.5 1.05 0.829038 0 0.559193
0.835106 0.5 -0.6375 0.788336 0.0416904 0.51205
0.835106 0.5 0.6375 0.793994 0.0434879 0.628501
1.04168 0.5 -0.145832 0.729067 0.068504 0.54089
1.04168 0.5 0.145832 0.729272 0.0700823 0.588253
0.969689 0.5 -0.4125 0.756857 0.0567467 0.513508
0.96969 0.5 0.4125 0.759179 0.0598787 0.622361
0 0.5 -1.05618 0.829038 0 0.559193
0 0.5 1.05618 0.829038 0 0.559193
0.0124865 0.5 -1.05618 0.829056 0.000692562 0.558403
0.0124865 0.5 1.05618 0.829088 0.00057137 0.560412
1.05695 0.5 -0.0360764 0.722941 0.0713129 0.557647
1.05695 0.5 0.0360764 0.722966 0.0717309 0.569871
0.411736 0.5 -0.975 0.823861 0.017221 0.536741
0.411736 0.5 0.975 0.827937 0.0156506 0.594694
0.872064 0.5 -0.6 0.782284 0.0448305 0.510222
0.872064 0.5 0.6 0.787399 0.0471179 0.629853
1.0271 0.5 -0.257759 0.73715 0.0650963 0.526151
1.0271 0.5 0.257759 0.737923 0.0676723 0.60533
0.151149 0.5 -1.05 0.828686 0.00708338 0.550797
0.151149 0.5 1.05 0.829509 0.00596843 0.572471
1.05695 0.5 0.108229 0.723547 0.072112 0.5824
1.05695 0.5 -0.108229 0.724195 0.0705505 0.54565
1.04168 0.5 -0.218749 0.731993 0.0672747 0.53017
1.04168 0.5 0.218749 0.732388 0.0695983 0.599961
0.90582 0.5 -0.5625 0.775929 0.0480039 0.508696
0.905821 0.5 0.5625 0.780495 0.0507247 0.630721
1.00005 0.5 -0.374654 0.749599 0.059734 0.514623
1.00005 0.5 0.374654 0.75142 0.0629586 0.619664
0.350249 0.5 1.0125 0.829072 0.013077 0.589211
0.350249 0.5 -1.0125 0.825882 0.0147431 0.54016
1.05695 0.5 -0.180382 0.726718 0.0694533 0.534347
1.05695 0.5 0.180382 0.726802 0.0714952 0.594255
1.07319 0.5 0.0709442 0.719396 0.0736227 0.578371
0.939201 0.5 -0.525 0.769105 0.0513822 0.507406
0.939201 0.5 0.525 0.772836 0.0545297 0.630932
1.0271 0.5 -0.331404 0.741297 0.0634466 0.516484
1.0271 0.5 0.331404 0.742611 0.0666737 0.616045
1.08112 0.5 3.23815e-17 0.716427 0.0741706 0.562972
1.04168 0.5 -0.291665 0.735815 0.0657421 0.520065
1.04168 0.5 0.291665 0.736616 0.0687704 0.6112
1.08112 0.5 -0.0709442 0.717108 0.0735551 0.550488
0.969689 0.5 -0.4875 0.761927 0.0548098 0.506463
0.96969 0.5 0.4875 0.76485 0.0583173 0.630601
1.05695 0.5 0.252535 0.730526 0.0708455 0.605997
1.05695 0.5 -0.252535 0.730205 0.068048 0.523853
0.288069 0.5 -1.05 0.827193 0.0121836 0.543421
0.288069 0.5 1.05 0.829543 0.0105779 0.583728
0.075776 0.5 -1.0875 0.829122 0.00419308 0.554416
0.075776 0.5 1.0875 0.829317 0.00344744 0.56657
1.08112 0.5 -0.141888 0.719092 0.0725975 0.538476
1.08145 0.5 0.140165 0.71928 0.0742364 0.588522
0.715434 0.5 0.825 0.813714 0.0317311 0.623071
0.715434 0.5 -0.825 0.806563 0.0315243 0.516593
0.756813 0.5 0.7875 0.809355 0.0349296 0.626658
0.756814 0.5 -0.7875 0.802247 0.0342328 0.513771
0.67013 0.5 -0.8625 0.810642 0.0288431 0.519639
0.67013 0.5 0.8625 0.817751 0.0285376 0.619089
0.797732 0.5 -0.75 0.797397 0.0371011 0.511019
0.797732 0.5 0.75 0.804207 0.0383576 0.629768
0.624316 0.5 -0.9 0.814155 0.0262993 0.522661
0.624316 0.5 0.9 0.820965 0.0255992 0.614792
1.00005 0.5 -0.449585 0.754792 0.0578108 0.506735
1.00005 0.5 0.449585 0.757127 0.0615103 0.628765
0.835106 0.5 -0.7125 0.792266 0.0400067 0.508493
0.835106 0.5 0.7125 0.798706 0.0417859 0.632467
0.574156 0.5 -0.9375 0.817471 0.0237707 0.525918
0.574157 0.5 0.9375 0.823876 0.0226644 0.610117
1.10076 0.5 -0.0349809 0.711077 0.0760971 0.555881
1.10076 0.5 0.0349809 0.711009 0.0765587 0.568766
1.08112 0.5 -0.212832 0.722244 0.0713131 0.527266
1.08112 0.5 0.212832 0.722165 0.073878 0.600478
0.872064 0.5 -0.675 0.78662 0.043038 0.506164
0.872064 0.5 0.675 0.792524 0.045369 0.634556
1.04168 0.5 -0.364581 0.74063 0.0639411 0.510613
1.04168 0.5 0.364581 0.741846 0.0676153 0.621772
1.0271 0.5 0.405049 0.748211 0.0653612 0.626