# wallShearStress  FACE_DATA 60650
# x  y  z  wallShearStress_x  wallShearStress_y  wallShearStress_z
8.48833 0 0.815368 0.00123846 -7.17034e-06 0.00115146
8.46695 0 0.797732 0.00119035 -5.93849e-06 0.00104989
8.44642 0 0.780797 0.00112325 -5.4004e-06 0.00093067
8.51058 0 0.88426 0.00141633 -1.55083e-06 0.00128053
8.48833 0 0.864784 0.00136051 -2.34595e-06 0.00120343
8.46695 0 0.84608 0.00132113 -3.14531e-06 0.00112274
8.44642 0 0.828118 0.00128681 -5.83525e-06 0.00102717
8.42671 0 0.810869 0.00122468 -5.03971e-06 0.000919371
8.51058 0 0.934789 0.00133355 -6.98437e-06 0.00131082
8.48833 0 0.9142 0.0013039 -7.93526e-06 0.00123404
8.46695 0 0.894427 0.00126416 -8.00616e-06 0.00115495
8.44642 0 0.875439 0.00123224 -7.17438e-06 0.00107939
8.42671 0 0.857205 0.00120181 -7.60144e-06 0.00100205
8.40778 0 0.839693 0.00115722 -4.79474e-06 0.000916269
8.5579 0 1.03145 0.00172379 3.22172e-07 0.00132238
8.53376 0 1.00792 0.00166255 -8.74078e-07 0.00128947
8.51058 0 0.985317 0.00159996 -1.70476e-06 0.00125197
8.48833 0 0.963616 0.00153815 -2.17458e-06 0.00121229
8.46695 0 0.942775 0.00147568 -2.7784e-06 0.00116634
8.44642 0 0.92276 0.00141201 -4.08111e-06 0.00111208
8.42671 0 0.90354 0.00134248 -6.09963e-06 0.0010573
8.40778 0 0.885082 0.00127899 -7.28103e-06 0.00100077
8.38959 0 0.867357 0.00122727 -1.00474e-05 0.000928712
7.21655 0 0.872138 -0.00459224 -3.6208e-05 -0.00240507
7.21088 0 0.889597 -0.00506536 -3.45554e-05 -0.0025699
7.20497 0 0.907776 -0.00548798 -2.92674e-05 -0.00275187
7.19882 0 0.926708 -0.00584257 -1.87645e-05 -0.00295646
7.19241 0 0.94642 -0.00612491 -8.11301e-06 -0.00319443
7.2692 0 0.839271 -0.00258947 -1.94048e-05 -0.00160364
7.26477 0 0.855372 -0.0030021 -2.58217e-05 -0.00176689
7.26016 0 0.872138 -0.00345595 -2.9875e-05 -0.00191381
7.25536 0 0.889597 -0.00393849 -3.31894e-05 -0.00205531
7.25036 0 0.907777 -0.00443147 -3.37364e-05 -0.00219931
7.24516 0 0.926707 -0.00491539 -3.17861e-05 -0.0023548
7.23974 0 0.94642 -0.00536479 -2.71621e-05 -0.00253505
7.23409 0 0.966948 -0.00574916 -1.84463e-05 -0.00273419
7.31464 0 0.823809 -0.00150722 -1.00748e-05 -0.000927921
7.31116 0 0.839271 -0.00178734 -1.03738e-05 -0.00110317
7.30754 0 0.855372 -0.00210346 -1.37497e-05 -0.00128451
7.30377 0 0.872138 -0.0024627 -1.87404e-05 -0.00145259
7.29984 0 0.889597 -0.00287317 -2.31471e-05 -0.00160805
7.29575 0 0.907776 -0.00332817 -2.69783e-05 -0.00175313
7.29149 0 0.926707 -0.00381533 -3.00336e-05 -0.00189268
7.28705 0 0.946421 -0.00431942 -3.07484e-05 -0.00203538
7.28243 0 0.966948 -0.00481662 -2.88661e-05 -0.00218723
7.27762 0 0.988324 -0.00528562 -2.5387e-05 -0.00236
7.27262 0 1.01058 -0.00570419 -1.76399e-05 -0.00255551
7.35843 0 0.80896 -0.000784034 -6.66466e-06 -0.000446232
7.35584 0 0.823809 -0.000953634 -6.7259e-06 -0.000546937
7.35313 0 0.839271 -0.00116219 -6.02684e-06 -0.00067867
7.35031 0 0.855372 -0.00140495 -6.23545e-06 -0.000834739
7.34738 0 0.872138 -0.00168494 -7.26555e-06 -0.00100622
7.34432 0 0.889597 -0.00200717 -1.0313e-05 -0.00118536
7.34114 0 0.907777 -0.00237361 -1.50104e-05 -0.00135325
7.33783 0 0.926708 -0.00279122 -1.95253e-05 -0.00150604
7.33437 0 0.94642 -0.0032559 -2.36696e-05 -0.00164758
7.33078 0 0.966948 -0.00375331 -2.69757e-05 -0.00178142
7.32704 0 0.988324 -0.00426677 -2.79475e-05 -0.00191495
7.32315 0 1.01058 -0.00477576 -2.67333e-05 -0.00205698
7.31909 0 1.03376 -0.00526417 -2.40047e-05 -0.00221935
7.40066 0 0.794701 -0.000443058 -2.32721e-06 -0.000161926
7.39888 0 0.80896 -0.000509939 -1.05104e-06 -0.000199804
7.39702 0 0.823809 -0.000605435 9.67827e-08 -0.000267185
7.39509 0 0.839272 -0.00073864 9.71825e-07 -0.000365805
7.39308 0 0.855371 -0.000911745 1.09259e-06 -0.000493121
7.39098 0 0.872138 -0.00112565 7.03438e-07 -0.000643348
7.3888 0 0.889597 -0.00138008 7.87063e-09 -0.000814193
7.38653 0 0.907777 -0.00167303 -1.94689e-06 -0.000996348
7.38416 0 0.926708 -0.00200493 -6.13635e-06 -0.00117438
7.3817 0 0.946421 -0.00237671 -1.25529e-05 -0.00132835
7.37913 0 0.966948 -0.00279669 -1.80388e-05 -0.00145928
7.37646 0 0.988324 -0.00326828 -2.21608e-05 -0.00158031
7.37368 0 1.01058 -0.00376913 -2.56661e-05 -0.00169265
7.37078 0 1.03376 -0.00428629 -2.65595e-05 -0.00180463
7.36776 0 1.0579 -0.00480246 -2.61439e-05 -0.00192068
7.44241 0 0.767858 -0.000258367 -2.01087e-06 -8.49622e-06
7.44143 0 0.781008 -0.000294736 1.50008e-06 1.15811e-05
7.4404 0 0.794701 -0.000328358 2.66322e-06 9.44336e-06
7.43933 0 0.80896 -0.000367735 3.62186e-06 -1.80847e-05
7.43821 0 0.823809 -0.000422215 6.14441e-06 -7.78117e-05
7.43705 0 0.839271 -0.000500893 6.13744e-06 -0.000169369
7.43585 0 0.855372 -0.000613175 5.0202e-06 -0.000286507
7.43459 0 0.872138 -0.000765097 4.19615e-06 -0.000422137
7.43328 0 0.889597 -0.000958389 3.16654e-06 -0.000571875
7.43192 0 0.907776 -0.00118784 1.04029e-06 -0.000729458
7.4305 0 0.926707 -0.00145188 -1.21407e-06 -0.000890846
7.42902 0 0.946421 -0.00174599 -4.30973e-06 -0.00104653
7.42748 0 0.966948 -0.00207479 -8.81161e-06 -0.00119107
7.42587 0 0.988324 -0.00244054 -1.5931e-05 -0.00130519
7.42421 0 1.01058 -0.00286222 -2.02106e-05 -0.00139679
7.42247 0 1.03376 -0.00333745 -2.32248e-05 -0.00148869
7.42066 0 1.0579 -0.00384556 -2.52964e-05 -0.00158166
7.4808 0 0.767857 -0.000252747 -3.56246e-06 0.000132962
7.48048 0 0.781008 -0.000276374 -2.83991e-06 0.000166855
7.48013 0 0.794701 -0.000290272 -1.22164e-06 0.000176579
7.47978 0 0.80896 -0.000300488 4.55579e-07 0.000144187
7.4794 0 0.823809 -0.000318087 2.15194e-06 6.82139e-05
7.47902 0 0.839271 -0.000362062 4.68312e-06 -4.36227e-05
7.47861 0 0.855372 -0.000437668 4.96753e-06 -0.000182047
7.4782 0 0.872138 -0.000544783 2.94941e-06 -0.000328824
7.47776 0 0.889597 -0.000683999 4.34186e-07 -0.000470354
7.47731 0 0.907777 -0.000852634 -2.97001e-06 -0.000599416
7.47683 0 0.926708 -0.00104974 -5.61015e-06 -0.000716311
7.47634 0 0.94642 -0.00127357 -7.51609e-06 -0.000826149
7.47583 0 0.966948 -0.00152553 -9.2443e-06 -0.000936081
7.47529 0 0.988324 -0.00180351 -1.16534e-05 -0.00104283
7.47474 0 1.01058 -0.0021199 -1.59023e-05 -0.00113601
7.47416 0 1.03376 -0.00248679 -2.0832e-05 -0.00120972
7.47355 0 1.0579 -0.00292169 -2.34926e-05 -0.00127955
7.47292 0 1.08303 -0.00341469 -2.49303e-05 -0.00135762
7.5192 0 0.767857 -0.000265362 -4.5833e-06 0.000151668
7.51952 0 0.781008 -0.00024293 -4.90386e-06 0.000179979
7.51987 0 0.794701 -0.000190358 -3.92454e-06 0.00017531
7.52022 0 0.80896 -0.000133709 -2.57156e-06 0.000125534
7.5206 0 0.823809 -0.000112415 -1.91336e-07 3.65187e-05
7.52098 0 0.839271 -0.000139386 2.70805e-06 -8.09017e-05
7.52139 0 0.855372 -0.000202708 2.80538e-06 -0.000211386
7.5218 0 0.872138 -0.000290863 -6.33498e-07 -0.000336832
7.52224 0 0.889597 -0.000398586 -4.59406e-06 -0.000445196
7.52269 0 0.907777 -0.00052432 -8.4569e-06 -0.000530682
7.52317 0 0.926708 -0.000669101 -1.07016e-05 -0.000595521
7.52366 0 0.94642 -0.000834268 -1.24866e-05 -0.00065251
7.52417 0 0.966948 -0.00102356 -1.37728e-05 -0.000709884
7.52471 0 0.988324 -0.00123946 -1.43581e-05 -0.000774277
7.52526 0 1.01058 -0.00148945 -1.42358e-05 -0.000850403
7.52584 0 1.03376 -0.0017753 -1.54161e-05 -0.000932448
7.52645 0 1.0579 -0.00211378 -1.89536e-05 -0.00101009
7.52708 0 1.08303 -0.00251636 -2.26594e-05 -0.00107484
7.52773 0 1.1092 -0.00299095 -2.45943e-05 -0.0011401
7.55759 0 0.767858 -0.000220623 -1.40749e-06 6.3244e-05
7.55857 0 0.781008 -0.000103601 -2.08105e-06 2.44889e-05
7.5596 0 0.794701 2.81946e-05 -2.73474e-06 -4.3688e-05
7.56067 0 0.80896 0.000114346 -4.86827e-07 -0.00012989
7.56179 0 0.823809 0.000123029 -7.21176e-07 -0.000213422
7.56295 0 0.839271 9.19744e-05 -3.70355e-06 -0.000298385
7.56415 0 0.855372 3.68072e-05 -7.10767e-06 -0.00036474
7.56541 0 0.872138 -2.75476e-05 -8.57191e-06 -0.000407854
7.56672 0 0.889597 -9.87815e-05 -8.8122e-06 -0.000434397
7.56808 0 0.907776 -0.00017826 -8.94584e-06 -0.00044712
7.5695 0 0.926707 -0.000268067 -1.01095e-05 -0.000447984
7.57098 0 0.946421 -0.000373165 -1.0995e-05 -0.000450247
7.57252 0 0.966948 -0.000504949 -1.15094e-05 -0.000467112
7.57413 0 0.988324 -0.000672797 -1.19324e-05 -0.00050646
7.57579 0 1.01058 -0.000880647 -1.23838e-05 -0.000568667
7.57753 0 1.03376 -0.00112786 -1.29831e-05 -0.000646915
7.57934 0 1.0579 -0.00141142 -1.43423e-05 -0.000731414
7.58123 0 1.08303 -0.00173957 -1.65912e-05 -0.000811959
7.58319 0 1.1092 -0.00213388 -1.98624e-05 -0.000884227
7.58523 0 1.13646 -0.00260089 -2.24888e-05 -0.000951385
7.59598 0 0.767857 -1.63924e-05 -5.71147e-07 -3.5155e-05
7.59762 0 0.781008 0.000177212 4.63439e-07 -0.000138069
7.59934 0 0.794701 0.000325434 -6.19076e-07 -0.000243952
7.60112 0 0.80896 0.000386733 -3.45592e-06 -0.000327343
7.60298 0 0.823809 0.000380302 -5.04433e-06 -0.000374832
7.60491 0 0.839272 0.000349541 -6.90034e-06 -0.000400387
7.60692 0 0.855371 0.000307602 -8.56061e-06 -0.00040608
7.60902 0 0.872138 0.000255185 -9.24426e-06 -0.000397301
7.6112 0 0.889597 0.000182267 -1.04659e-05 -0.000372984
7.61347 0 0.907777 9.40159e-05 -1.12406e-05 -0.000324946
7.61584 0 0.926708 1.17558e-05 -9.71283e-06 -0.000267017
7.6183 0 0.946421 -5.07195e-05 -7.26199e-06 -0.00023018
7.62087 0 0.966948 -0.000115356 -5.94144e-06 -0.00022755
7.62354 0 0.988324 -0.000210331 -6.34465e-06 -0.000254981
7.62632 0 1.01058 -0.000351608 -6.81718e-06 -0.00030649
7.62922 0 1.03376 -0.000543352 -8.18382e-06 -0.000379918
7.63224 0 1.0579 -0.000782695 -1.00001e-05 -0.000466142
7.63538 0 1.08303 -0.00106396 -1.20884e-05 -0.000557276
7.63865 0 1.1092 -0.00139314 -1.47294e-05 -0.000644891
7.64205 0 1.13646 -0.00178108 -1.78731e-05 -0.000720388
7.6456 0 1.16484 -0.00224751 -2.08299e-05 -0.000790301
7.63438 0 0.767858 0.000292268 2.31251e-06 -0.000127756
7.63668 0 0.781008 0.000484801 6.50355e-07 -0.000247343
7.63907 0 0.794701 0.00058711 -1.0709e-06 -0.000340726
7.64157 0 0.80896 0.000604381 -4.44066e-06 -0.000387673
7.64416 0 0.823809 0.000584169 -6.2289e-06 -0.000394891
7.64687 0 0.839271 0.000550992 -6.87668e-06 -0.000381929
7.64969 0 0.855372 0.000512261 -6.19579e-06 -0.000358721
7.65262 0 0.872138 0.000448548 -6.329e-06 -0.000332644
7.65568 0 0.889597 0.000349406 -7.93012e-06 -0.000288661
7.65886 0 0.907777 0.000241863 -8.43295e-06 -0.000225936
7.66217 0 0.926708 0.000166804 -7.10946e-06 -0.000171425
7.66563 0 0.94642 0.000124303 -6.50689e-06 -0.000134176
7.66922 0 0.966948 9.46131e-05 -5.88358e-06 -0.000112
7.67296 0 0.988324 5.89494e-05 -4.98925e-06 -0.000104504
7.67685 0 1.01058 -3.20032e-06 -4.38568e-06 -0.000119475
7.68091 0 1.03376 -0.00011176 -4.21976e-06 -0.000162405
7.68513 0 1.0579 -0.000275641 -5.8293e-06 -0.000230287
7.68953 0 1.08303 -0.000493348 -7.62625e-06 -0.000314892
7.69411 0 1.1092 -0.000760117 -1.05522e-05 -0.000405792
7.69888 0 1.13646 -0.00108078 -1.29982e-05 -0.00049491
7.70385 0 1.16483 -0.00146372 -1.6625e-05 -0.000574445
7.67277 0 0.767857 0.000603931 3.32684e-06 -0.000189036
7.67573 0 0.781008 0.000750702 1.2747e-06 -0.000302206
7.67881 0 0.794701 0.000791377 -2.99174e-06 -0.000371235
7.68201 0 0.80896 0.000772724 -6.24785e-06 -0.00038567
7.68536 0 0.823809 0.000735759 -7.16368e-06 -0.000368156
7.68884 0 0.839271 0.000699827 -6.09386e-06 -0.000336774
7.69246 0 0.855372 0.000649548 -4.67127e-06 -0.000313254
7.69623 0 0.872138 0.000554395 -4.80647e-06 -0.000287324
7.70016 0 0.889597 0.000427729 -5.54378e-06 -0.00024158
7.70425 0 0.907776 0.00032855 -5.48439e-06 -0.000191474
7.70851 0 0.926707 0.000276899 -5.58642e-06 -0.000151719
7.71295 0 0.946421 0.000250348 -6.5113e-06 -0.000117315
7.71757 0 0.966948 0.000228364 -6.89045e-06 -8.5556e-05
7.72238 0 0.988324 0.000202452 -6.59923e-06 -5.37399e-05
7.72738 0 1.01058 0.000170873 -6.37404e-06 -2.72249e-05
7.7326 0 1.03376 0.000131122 -5.95511e-06 -1.88806e-05
7.73803 0 1.0579 6.42432e-05 -4.92816e-06 -3.9831e-05
7.74368 0 1.08303 -5.87483e-05 -4.52195e-06 -9.53592e-05
7.74957 0 1.1092 -0.000245537 -5.82456e-06 -0.000177503
7.7557 0 1.13646 -0.000490514 -8.7701e-06 -0.000268378
7.76209 0 1.16484 -0.000793072 -1.292e-05 -0.000354549
7.76874 0 1.19439 -0.00117313 -1.58354e-05 -0.000435297
7.71116 0 0.767857 0.000887241 3.71216e-06 -0.000214889
7.71478 0 0.781008 0.000967098 7.07938e-07 -0.00032525
7.71854 0 0.794701 0.00095509 -4.36184e-06 -0.00037115
7.72246 0 0.80896 0.000910462 -7.55012e-06 -0.000366904
7.72655 0 0.823809 0.000863646 -7.10208e-06 -0.000328331
7.7308 0 0.839271 0.000821385 -4.22794e-06 -0.00029834
7.73523 0 0.855372 0.000744747 -2.84714e-06 -0.000289066
7.73984 0 0.872138 0.000615784 -4.11024e-06 -0.000269072
7.74464 0 0.889597 0.000486471 -5.22893e-06 -0.000227021
7.74964 0 0.907777 0.000413017 -5.95627e-06 -0.000183196
7.75484 0 0.926707 0.000385959 -5.86742e-06 -0.00014202
7.76026 0 0.94642 0.000375754 -5.98641e-06 -0.000101901
7.76591 0 0.966948 0.000366619 -6.31741e-06 -6.17237e-05
7.77179 0 0.988324 0.000353303 -6.16612e-06 -2.49937e-05
7.77791 0 1.01058 0.000331802 -5.95048e-06 3.01918e-06
7.78428 0 1.03376 0.000299853 -6.42142e-06 2.53469e-05
7.79092 0 1.0579 0.000259788 -6.3195e-06 4.24978e-05
7.79783 0 1.08303 0.000209355 -6.0021e-06 3.88996e-05
7.80503 0 1.1092 0.000128345 -5.50038e-06 7.50266e-06
7.81252 0 1.13646 -2.04642e-05 -5.47302e-06 -5.7214e-05
7.82033 0 1.16483 -0.000238431 -7.14144e-06 -0.00014439
7.82845 0 1.19439 -0.000526088 -1.08009e-05 -0.000231326
7.83692 0 1.22516 -0.000901586 -1.5637e-05 -0.000310786
7.74955 0 0.767858 0.0011248 3.65165e-06 -0.000237326
7.75383 0 0.781007 0.00113667 -8.98274e-07 -0.000337522
7.75828 0 0.794701 0.00109014 -6.31318e-06 -0.000372217
7.76291 0 0.80896 0.00102511 -8.45928e-06 -0.000344712
7.76774 0 0.823809 0.000976367 -5.60566e-06 -0.000304081
7.77277 0 0.839271 0.000914754 -2.11183e-06 -0.000290522
7.778 0 0.855372 0.000801158 -1.54761e-06 -0.000289545
7.78345 0 0.872138 0.000652046 -3.41105e-06 -0.000265839
7.78912 0 0.889597 0.000544761 -4.98347e-06 -0.000224252
7.79503 0 0.907776 0.000501376 -5.7802e-06 -0.00017816
7.80118 0 0.926708 0.000491475 -6.3082e-06 -0.00012684
7.80759 0 0.94642 0.00049144 -6.87308e-06 -7.38721e-05
7.81425 0 0.966948 0.00049095 -6.80642e-06 -2.39022e-05
7.82121 0 0.988324 0.000486028 -6.46346e-06 1.68566e-05
7.82844 0 1.01058 0.000473453 -5.60245e-06 4.59465e-05
7.83597 0 1.03376 0.000455009 -4.88983e-06 6.31567e-05
7.84382 0 1.0579 0.000426697 -4.57349e-06 6.9763e-05
7.85199 0 1.08303 0.000385521 -5.46408e-06 6.98278e-05
7.86049 0 1.1092 0.000334124 -5.4311e-06 7.22761e-05
7.86935 0 1.13646 0.000266489 -5.27616e-06 6.19543e-05
7.87857 0 1.16484 0.000168493 -6.20544e-06 2.3443e-05
7.88818 0 1.19439 -1.4804e-05 -6.83432e-06 -4.21578e-05
7.89818 0 1.22516 -0.000282616 -9.99653e-06 -0.000126671
7.90859 0 1.25721 -0.000645962 -1.47214e-05 -0.000195928
7.78795 0 0.767857 0.00131575 3.60346e-06 -0.000278724
7.79288 0 0.781008 0.00127362 -3.62268e-06 -0.000365282
7.79801 0 0.794701 0.00119941 -7.63235e-06 -0.000377186
7.80336 0 0.80896 0.00113016 -7.41805e-06 -0.000334078
7.80893 0 0.823809 0.00107216 -3.09109e-06 -0.000308496
7.81473 0 0.839271 0.000974155 -7.59503e-07 -0.000311429
7.82076 0 0.855372 0.000828616 -1.01238e-06 -0.000306413
7.82705 0 0.872138 0.00068316 -3.86766e-06 -0.000273691
7.8336 0 0.889597 0.000609961 -5.54467e-06 -0.000224024
7.84042 0 0.907777 0.000589957 -6.26972e-06 -0.000165229
7.84752 0 0.926707 0.000592047 -6.83369e-06 -0.000102019
7.85491 0 0.946421 0.000598236 -7.32237e-06 -3.76201e-05
7.8626 0 0.966948 0.000601791 -6.71647e-06 1.87654e-05
7.87062 0 0.988324 0.000598855 -5.60601e-06 6.07103e-05
7.87897 0 1.01058 0.000591291 -4.47766e-06 9.15214e-05
7.88766 0 1.03376 0.000580802 -3.84188e-06 0.000111618
7.89671 0 1.0579 0.000562428 -3.53539e-06 0.000119386
7.90614 0 1.08303 0.000537147 -3.55324e-06 0.000113738
7.91595 0 1.1092 0.000502094 -3.84388e-06 9.85795e-05
7.92617 0 1.13646 0.000451629 -4.51739e-06 9.36782e-05
7.93681 0 1.16483 0.000390182 -5.54802e-06 8.2675e-05
7.9479 0 1.19439 0.000303101 -6.44227e-06 6.37081e-05
7.95943 0 1.22516 0.000171242 -6.93684e-06 2.30163e-05
7.97145 0 1.25721 -6.76444e-05 -9.36495e-06 -2.93852e-05
7.98397 0 1.29057 -0.000429771 -1.2564e-05 -0.000112192
7.99699 0 1.32531 -0.000939237 -2.02474e-05 -0.000170023
7.82634 0 0.767858 0.00146245 2.3122e-06 -0.000336792
7.83193 0 0.781007 0.0013816 -5.15692e-06 -0.000404639
7.83775 0 0.794701 0.00128933 -8.27682e-06 -0.000389899
7.84381 0 0.808961 0.00121634 -5.3818e-06 -0.000347855
7.85012 0 0.823809 0.00113295 -1.01914e-06 -0.000348702
7.85669 0 0.839271 0.000995151 -5.59188e-07 -0.000354481
7.86353 0 0.855372 0.000832512 -1.20927e-06 -0.00032573
7.87066 0 0.872138 0.000719046 -4.76856e-06 -0.000282107
7.87808 0 0.889596 0.000678273 -5.84658e-06 -0.000217798
7.88581 0 0.907777 0.000674616 -6.5628e-06 -0.000145409
7.89385 0 0.926708 0.000683287 -8.29622e-06 -6.71787e-05
7.90223 0 0.94642 0.000691016 -7.68674e-06 4.95958e-06
7.91095 0 0.966948 0.000694274 -6.31565e-06 6.30211e-05
7.92003 0 0.988324 0.000693851 -4.59394e-06 0.000110137
7.9295 0 1.01058 0.000692971 -4.68336e-06 0.000148319
7.93935 0 1.03376 0.000687331 -3.39257e-06 0.000167542
7.94961 0 1.0579 0.000674092 -3.28876e-06 0.00017009
7.96029 0 1.08303 0.000657767 -2.96094e-06 0.000168457
7.97141 0 1.1092 0.000635436 -2.7776e-06 0.000157593
7.98299 0 1.13646 0.000605621 -3.03524e-06 0.000140789
7.99505 0 1.16484 0.000558846 -3.63881e-06 0.000114892
8.00761 0 1.19439 0.0004984 -4.76405e-06 9.94797e-05
8.02069 0 1.22516 0.000420031 -5.34757e-06 7.94951e-05
8.03431 0 1.25721 0.000304451 -8.19596e-06 7.29709e-05
8.04849 0 1.29057 0.000107326 -7.39833e-06 2.10686e-05
8.06326 0 1.32531 -0.00023371 -1.44857e-05 -2.14139e-05
7.86473 0 0.767857 0.00156452 2.04363e-07 -0.000423157
7.87098 0 0.781008 0.00145402 -6.56941e-06 -0.000455622
7.87748 0 0.794701 0.00135686 -7.19666e-06 -0.000422028
7.88426 0 0.80896 0.00127118 -2.88441e-06 -0.00039292
7.89131 0 0.823809 0.00114433 4.53286e-07 -0.000408085
7.89865 0 0.839271 0.00097878 -1.18216e-06 -0.000400789
7.9063 0 0.855372 0.000830175 -1.79442e-06 -0.000343871
7.91427 0 0.872138 0.000757798 -5.52364e-06 -0.000285342
7.92256 0 0.889597 0.000742549 -6.56186e-06 -0.000199581
7.93119 0 0.907776 0.000749941 -8.26423e-06 -0.000111387
7.94019 0 0.926708 0.000760558 -8.00803e-06 -2.36236e-05
7.94955 0 0.94642 0.000768013 -7.07602e-06 5.20453e-05
7.9593 0 0.966948 0.000772967 -5.26322e-06 0.000117711
7.96945 0 0.988324 0.000777706 -5.27362e-06 0.00017465
7.98003 0 1.01058 0.000781239 -3.809e-06 0.000210862
7.99104 0 1.03376 0.000774644 -3.28911e-06 0.000225457
8.0025 0 1.0579 0.000767528 -2.70467e-06 0.000234643
8.01444 0 1.08303 0.000758364 -2.30375e-06 0.000236093
8.02687 0 1.1092 0.000742887 -2.11798e-06 0.000225128
8.03981 0 1.13646 0.000722856 -2.26325e-06 0.000206628
8.05329 0 1.16483 0.000693254 -2.32544e-06 0.000179852
8.06733 0 1.19439 0.000655074 -2.84147e-06 0.000153601
8.08195 0 1.22516 0.00059516 -3.60539e-06 0.000119316
8.09717 0 1.25721 0.000519004 -5.93047e-06 0.000107799
8.11302 0 1.29057 0.000409692 -5.54587e-06 8.17597e-05
8.12952 0 1.32531 0.000230231 -1.13894e-05 0.000103181
7.90312 0 0.767857 0.00161666 -2.56945e-06 -0.000526874
7.91003 0 0.781008 0.00149398 -7.84037e-06 -0.000518371
7.91722 0 0.794701 0.00139403 -5.2387e-06 -0.000474872
7.92471 0 0.80896 0.00127643 -7.10508e-07 -0.000478867
7.9325 0 0.823809 0.0011067 8.77679e-08 -0.00048562
7.94062 0 0.839271 0.000940396 -1.43224e-06 -0.000430509
7.94907 0 0.855372 0.000833645 -4.70865e-06 -0.000356026
7.95787 0 0.872138 0.000801605 -7.0207e-06 -0.000269168
7.96704 0 0.889597 0.000804021 -8.16301e-06 -0.000168416
7.97658 0 0.907777 0.000817632 -8.96613e-06 -6.6611e-05
7.98652 0 0.926707 0.000828785 -8.03214e-06 2.62383e-05
7.99687 0 0.946421 0.000838959 -6.94812e-06 0.000110651
8.00765 0 0.966948 0.000849586 -6.34584e-06 0.000185195
8.01887 0 0.988324 0.000858847 -5.32851e-06 0.00023988
8.03055 0 1.01058 0.000859124 -4.07496e-06 0.000269578
8.04273 0 1.03376 0.000856739 -3.44921e-06 0.000289905
8.0554 0 1.0579 0.000854413 -2.82492e-06 0.00030555
8.06859 0 1.08303 0.000848157 -2.48673e-06 0.000308031
8.08233 0 1.1092 0.00083899 -2.05588e-06 0.000300559
8.09664 0 1.13646 0.000826388 -2.02681e-06 0.000284442
8.11154 0 1.16484 0.000808062 -1.91473e-06 0.000258325
8.12705 0 1.19439 0.00078215 -2.23396e-06 0.000230447
8.14321 0 1.22516 0.000742312 -2.37885e-06 0.000191957
8.16003 0 1.25721 0.000689679 -3.00667e-06 0.000161061
8.17755 0 1.29057 0.000603034 -2.50812e-06 0.000117822
8.19579 0 1.32531 0.000492543 -8.74902e-06 0.000135468
7.94152 0 0.767858 0.00161546 -6.17219e-06 -0.000627999
7.94908 0 0.781008 0.00149638 -6.5487e-06 -0.000584067
7.95695 0 0.794701 0.00137523 -1.31625e-06 -0.000561464
7.96516 0 0.80896 0.00120392 1.08457e-06 -0.000568333
7.97369 0 0.823809 0.00102339 -2.97259e-07 -0.000527199
7.98258 0 0.839271 0.000895688 -2.5894e-06 -0.000435604
7.99184 0 0.855371 0.00084316 -6.36361e-06 -0.000340049
8.00148 0 0.872138 0.000841278 -7.1666e-06 -0.000226348
8.01152 0 0.889596 0.000855242 -9.40203e-06 -0.000110927
8.02197 0 0.907777 0.000870733 -8.62026e-06 -8.1308e-07
8.03286 0 0.926708 0.000885875 -7.5362e-06 0.000100914
8.04419 0 0.94642 0.000902041 -6.11308e-06 0.00019403
8.05599 0 0.966948 0.000916794 -5.43017e-06 0.000265722
8.06829 0 0.988324 0.000923818 -4.36377e-06 0.000310349
8.08108 0 1.01058 0.000924926 -3.31908e-06 0.000342809
8.09441 0 1.03376 0.000928244 -2.5975e-06 0.000369328
8.10829 0 1.0579 0.000928698 -2.17551e-06 0.000386029
8.12274 0 1.08303 0.000926473 -1.75514e-06 0.000390096
8.13779 0 1.1092 0.000922844 -1.33471e-06 0.000385361
8.15346 0 1.13646 0.000916343 -1.30443e-06 0.000371818
8.16978 0 1.16483 0.000907071 -1.21184e-06 0.000348808
8.18677 0 1.19439 0.00089249 -1.28191e-06 0.000321237
8.20447 0 1.22516 0.000867185 -1.15888e-06 0.000284418
8.22289 0 1.25721 0.000832336 -1.26612e-06 0.000245546
8.24208 0 1.29057 0.000769912 -2.45796e-07 0.000193852
8.26206 0 1.32531 0.000696359 -4.47817e-06 0.000180318
7.97991 0 0.767857 0.00157265 -7.18834e-06 -0.000716736
7.98813 0 0.781008 0.00144048 -3.59684e-06 -0.000678369
7.99669 0 0.794701 0.00126874 2.80622e-07 -0.000677312
8.0056 0 0.80896 0.00108257 4.51539e-07 -0.000633621
8.01488 0 0.823809 0.000942188 -2.71726e-06 -0.000529115
8.02455 0 0.839272 0.000875679 -6.31994e-06 -0.000419076
8.03461 0 0.855372 0.000868347 -7.76784e-06 -0.000294268
8.04508 0 0.872138 0.000884303 -1.15545e-05 -0.000166333
8.056 0 0.889597 0.000905414 -9.51439e-06 -4.073e-05
8.06736 0 0.907776 0.000925525 -9.5629e-06 7.71278e-05
8.07919 0 0.926707 0.000948593 -8.65638e-06 0.000186294
8.09151 0 0.946421 0.000969115 -7.65185e-06 0.000274514
8.10434 0 0.966948 0.00098215 -6.51439e-06 0.000336122
8.1177 0 0.988324 0.000989694 -4.97729e-06 0.000378837
8.13161 0 1.01058 0.000996748 -4.13075e-06 0.000415905
8.1461 0 1.03376 0.00100326 -3.53501e-06 0.000447853
8.16118 0 1.0579 0.001007 -3.04166e-06 0.000464632
8.17689 0 1.08303 0.00101003 -2.46047e-06 0.000472021
8.19325 0 1.1092 0.00101181 -2.26444e-06 0.000470427
8.21028 0 1.13646 0.00101284 -2.06124e-06 0.000460342
8.22802 0 1.16484 0.00101158 -1.92974e-06 0.000442425
8.24649 0 1.19439 0.00100597 -1.99832e-06 0.000417568
8.26572 0 1.22516 0.00099184 -1.74897e-06 0.000385223
8.28575 0 1.25721 0.000968317 -1.50777e-06 0.00034555
8.30661 0 1.29057 0.000924626 -7.06627e-07 0.000303123
8.32832 0 1.32531 0.000864909 -2.36276e-06 0.000269312
8.0183 0 0.767858 0.00145887 -4.04406e-06 -0.000800963
8.02718 0 0.781008 0.00128527 1.03819e-06 -0.000785504
8.03642 0 0.794701 0.00109935 1.80135e-06 -0.000726715
8.04605 0 0.80896 0.000953431 -1.0403e-06 -0.000603852
8.05607 0 0.823809 0.00088233 -4.53379e-06 -0.000476508
8.06651 0 0.839271 0.000875633 -6.59003e-06 -0.000337854
8.07738 0 0.855372 0.000894625 -1.0212e-05 -0.000194823
8.08869 0 0.872138 0.000920238 -8.23964e-06 -5.73347e-05
8.10048 0 0.889597 0.000945622 -8.12163e-06 7.36504e-05
8.11275 0 0.907777 0.000974245 -7.07672e-06 0.00019929
8.12553 0 0.926708 0.000999729 -6.47885e-06 0.000303225
8.13883 0 0.94642 0.00101971 -5.13885e-06 0.000377549
8.15269 0 0.966948 0.00103296 -4.23796e-06 0.000431126
8.16712 0 0.988324 0.00104357 -2.52682e-06 0.000477753
8.18214 0 1.01058 0.00105519 -1.85767e-06 0.000518989
8.19779 0 1.03376 0.00106446 -1.35863e-06 0.00054886
8.21408 0 1.0579 0.00107332 -7.29633e-07 0.000566321
8.23104 0 1.08303 0.00108273 -2.80637e-07 0.000575165
8.24871 0 1.1092 0.00109229 -1.83187e-07 0.000576828
8.26711 0 1.13646 0.0011009 -3.55292e-07 0.000568848
8.28626 0 1.16483 0.00110832 -2.28318e-07 0.000552045
8.30621 0 1.19439 0.0011123 -1.44946e-07 0.000527903
8.32698 0 1.22516 0.00110885 4.36386e-08 0.000497378
8.34861 0 1.25721 0.00109706 1.06418e-07 0.000458576
8.37113 0 1.29057 0.00106871 2.20544e-07 0.000413235
8.39459 0 1.32531 0.00101804 6.33276e-07 0.000359731
8.0567 0 0.767857 0.00126041 2.87711e-06 -0.000906804
8.06623 0 0.781008 0.00108261 9.4548e-07 -0.000821212
8.07616 0 0.794701 0.000943966 -2.86654e-06 -0.000686531
8.0865 0 0.80896 0.000875761 -6.89654e-06 -0.000551589
8.09726 0 0.823809 0.000870364 -8.38617e-06 -0.000401555
8.10847 0 0.839271 0.000895497 -1.20668e-05 -0.000247034
8.12014 0 0.855372 0.000930786 -1.11994e-05 -9.3253e-05
8.1323 0 0.872138 0.000965664 -1.16805e-05 4.80253e-05
8.14496 0 0.889596 0.000999827 -1.07669e-05 0.000183963
8.15814 0 0.907777 0.00103462 -9.33943e-06 0.000300278
8.17186 0 0.926708 0.00105968 -8.61187e-06 0.000387668
8.18616 0 0.94642 0.00107812 -8.18887e-06 0.000452448
8.20104 0 0.966948 0.00109301 -6.20898e-06 0.000507081
8.21654 0 0.988324 0.00110897 -5.33202e-06 0.0005553
8.23267 0 1.01058 0.00112353 -4.61361e-06 0.000597172
8.24948 0 1.03376 0.00113765 -4.05347e-06 0.000627821
8.26697 0 1.0579 0.00115391 -3.66861e-06 0.000649349
8.2852 0 1.08303 0.00117178 -3.37725e-06 0.000663218
8.30417 0 1.1092 0.00118858 -3.4632e-06 0.000668347
8.32393 0 1.13646 0.0012053 -3.25415e-06 0.000664624
8.3445 0 1.16484 0.00122094 -2.98125e-06 0.00065328
8.36593 0 1.19439 0.00123404 -2.61264e-06 0.000633762
8.38824 0 1.22516 0.00124242 -2.23471e-06 0.000608441
8.41147 0 1.25721 0.00123876 -2.03081e-06 0.000575375
8.10528 0 0.781008 0.000885592 -1.68227e-06 -0.000713964
8.11589 0 0.794701 0.000833118 -1.87084e-06 -0.000564781
8.12694 0 0.80896 0.000843842 -5.44436e-06 -0.000400522
8.13845 0 0.823809 0.00088091 -9.89415e-06 -0.000229809
8.15044 0 0.839271 0.000924356 -7.28669e-06 -6.47529e-05
8.16292 0 0.855372 0.00096601 -8.04257e-06 8.73352e-05
8.17591 0 0.872138 0.00100635 -6.33863e-06 0.000226171
8.18944 0 0.889597 0.00104668 -6.65013e-06 0.000352566
8.20352 0 0.907776 0.00107953 -4.21062e-06 0.000454045
8.2182 0 0.926707 0.00110311 -4.09508e-06 0.000523448
8.23348 0 0.946421 0.00112241 -2.16941e-06 0.00058307
8.24938 0 0.966948 0.00114067 -9.5224e-07 0.000638091
8.26595 0 0.988324 0.00115984 -1.53873e-07 0.000689727
8.2832 0 1.01058 0.00117918 5.44554e-07 0.000730023
8.30116 0 1.03376 0.0011996 7.28614e-07 0.00076314
8.31987 0 1.0579 0.00122159 6.61066e-07 0.000788095
8.33935 0 1.08303 0.0012454 7.25549e-07 0.000801762
8.35963 0 1.1092 0.00126902 9.8793e-07 0.000807072
8.38075 0 1.13646 0.00129277 1.1518e-06 0.000805582
8.40275 0 1.16483 0.00131607 1.51426e-06 0.000796177
8.42565 0 1.19439 0.00133616 1.92958e-06 0.000781243
8.4495 0 1.22516 0.00135172 2.3675e-06 0.000754122
8.16739 0 0.80896 0.000870262 -1.66498e-05 -0.000248429
8.17964 0 0.823809 0.000919861 -1.4451e-05 -8.48814e-05
8.1924 0 0.839271 0.000966951 -1.42829e-05 6.26335e-05
8.20568 0 0.855372 0.00101195 -1.19494e-05 0.000204734
8.21951 0 0.872138 0.0010626 -1.15107e-05 0.000337786
8.23392 0 0.889597 0.00110331 -1.08275e-05 0.000443847
8.24892 0 0.907777 0.00112958 -1.11692e-05 0.000521769
8.26453 0 0.926707 0.00115404 -9.20088e-06 0.000587087
8.28079 0 0.94642 0.0011752 -7.61293e-06 0.00064487
8.29773 0 0.966948 0.00119952 -6.81775e-06 0.000701254
8.31537 0 0.988324 0.00122325 -6.31366e-06 0.000752427
8.33373 0 1.01058 0.0012495 -6.02923e-06 0.00079362
8.35285 0 1.03376 0.001277 -5.9208e-06 0.000826326
8.37277 0 1.0579 0.00130422 -6.14838e-06 0.000852998
8.3935 0 1.08303 0.00133305 -6.20369e-06 0.000871012
8.41509 0 1.1092 0.00136423 -6.14579e-06 0.000880577
8.43757 0 1.13646 0.00139556 -6.13891e-06 0.000884721
8.46099 0 1.16484 0.00142561 -6.06696e-06 0.000881573
8.20784 0 0.80896 0.000931048 -3.5516e-06 -1.24391e-05
8.22083 0 0.823809 0.000982187 -4.4566e-06 0.000146956
8.23436 0 0.839272 0.00102517 -2.34569e-06 0.000294287
8.24845 0 0.855372 0.00106534 -4.64513e-06 0.000448839
8.26312 0 0.872138 0.00111173 -2.32101e-06 0.000570148
8.2784 0 0.889596 0.0011461 -1.36031e-06 0.000645677
8.29431 0 0.907777 0.00117303 -7.86601e-07 0.000711314
8.31087 0 0.926708 0.00119704 1.33555e-06 0.000774453
8.32812 0 0.946421 0.00122436 2.41751e-06 0.000835825
8.34608 0 0.966948 0.00125386 3.00327e-06 0.000892501
8.36478 0 0.988324 0.0012836 3.04013e-06 0.000942023
8.38426 0 1.01058 0.0013139 2.7408e-06 0.000984385
8.40454 0 1.03376 0.00134629 2.76738e-06 0.00101499
8.42566 0 1.0579 0.00137943 2.90898e-06 0.0010392
8.44765 0 1.08303 0.00141309 2.8554e-06 0.00105915
8.47055 0 1.1092 0.00144803 3.14665e-06 0.00107243
8.4944 0 1.13646 0.00148256 3.79202e-06 0.00107848
8.26202 0 0.823809 0.00101746 -1.44215e-05 0.000239
8.27633 0 0.839271 0.00106473 -1.3332e-05 0.000368799
8.29122 0 0.855372 0.00110749 -1.42642e-05 0.00049249
8.30673 0 0.872138 0.00114049 -1.34263e-05 0.00059948
8.32288 0 0.889597 0.00117559 -1.10847e-05 0.000669577
8.33969 0 0.907776 0.00120645 -1.03927e-05 0.000725248
8.35721 0 0.926707 0.0012425 -8.95408e-06 0.000785561
8.37544 0 0.946421 0.00127939 -8.74803e-06 0.000847613
8.39443 0 0.966948 0.00131672 -8.76488e-06 0.000899438
8.4142 0 0.988324 0.00135343 -8.88183e-06 0.00094182
8.43479 0 1.01058 0.00138759 -9.33478e-06 0.000980504
8.45623 0 1.03376 0.00142194 -9.7905e-06 0.00101226
8.47855 0 1.0579 0.0014589 -1.00681e-05 0.00103568
8.5018 0 1.08303 0.00149688 -1.02173e-05 0.0010516
8.52601 0 1.1092 0.00153457 -1.06251e-05 0.00106164
8.33399 0 0.855372 0.00118982 5.46757e-07 0.000792178
8.35033 0 0.872138 0.00122448 3.72622e-07 0.000873988
8.36736 0 0.889597 0.00125948 2.17713e-06 0.000940715