# kMean  POINT_DATA 63140
# x  y  z  kMean
0 0.1 0 0.00375
0 0.1 -0.0179898 0.00375
0 0.1 0.0179898 0.00375
0.0363518 0.1 0.0179898 0.00374793
0.0363518 0.1 -0.0179898 0.003748
0 0.1 -0.0570102 0.00375
0 0.1 0.0570102 0.00375
0.0363518 0.1 0.0570102 0.00374793
0.0363518 0.1 -0.0570102 0.003748
0 0.1 -0.075 0.00375
0 0.1 0.075 0.00375
0.075776 0.1 -0.0375 0.00374558
0.075776 0.1 0.0375 0.00374544
0 0.1 -0.0929898 0.00375
0 0.1 0.0929898 0.00375
0.0363518 0.1 -0.0929898 0.00374823
0.0363518 0.1 0.0929898 0.00374804
0 0.1 -0.13201 0.00375
0 0.1 0.13201 0.00375
0.075776 0.1 -0.1125 0.00374605
0.075776 0.1 0.1125 0.00374565
0.0363518 0.1 -0.13201 0.00374823
0.0363518 0.1 0.13201 0.00374804
0 0.1 -0.15 0.00375
0 0.1 0.15 0.00375
0.150379 0.1 -2.22623e-17 0.00373975
0 0.1 -0.16799 0.00375
0 0.1 0.16799 0.00375
0.150379 0.1 -0.075 0.00374036
0.150379 0.1 0.075 0.00373969
0.0363518 0.1 -0.16799 0.00374847
0.0363518 0.1 0.16799 0.00374829
0.075776 0.1 -0.1875 0.00374655
0.075776 0.1 0.1875 0.00374617
0 0.1 -0.20701 0.00375
0 0.1 0.20701 0.00375
0.0363518 0.1 -0.20701 0.00374847
0.0363518 0.1 0.20701 0.00374829
0.150379 0.1 -0.15 0.00374115
0.150379 0.1 0.15 0.00374025
0.219993 0.1 -0.0375 0.00373459
0.219993 0.1 0.0375 0.00373392
0 0.1 -0.225 0.00375
0 0.1 0.225 0.00375
0 0.1 -0.24299 0.00375
0 0.1 0.24299 0.00375
0.0363518 0.1 0.24299 0.00374861
0.0363518 0.1 -0.24299 0.00374869
0.219993 0.1 -0.1125 0.00373573
0.219993 0.1 0.1125 0.00373428
0.150379 0.1 -0.225 0.0037419
0.150379 0.1 0.225 0.00374114
0.075776 0.1 -0.2625 0.00374699
0.075776 0.1 0.2625 0.00374683
0 0.1 -0.28201 0.00375
0 0.1 0.28201 0.00375
0.0363518 0.1 -0.28201 0.00374869
0.0363518 0.1 0.28201 0.00374861
0.287374 0.1 -2.89121e-19 0.00372784
0.219992 0.1 0.1875 0.00373541
0.219992 0.1 -0.1875 0.00373674
0.287374 0.1 -0.075 0.00372895
0.287374 0.1 0.075 0.00372749
0 0.1 -0.3 0.00375
0 0.1 0.3 0.00375
0 0.1 0.31799 0.00375
0 0.1 -0.31799 0.00375
0.0363518 0.1 -0.31799 0.00374891
0.0363518 0.1 0.31799 0.0037489
0.287374 0.1 0.15 0.00372813
0.287374 0.1 -0.15 0.00373019
0.150379 0.1 -0.3 0.00374258
0.150379 0.1 0.3 0.00374209
0.219993 0.1 0.2625 0.00373663
0.219993 0.1 -0.2625 0.00373774
0.075776 0.1 -0.3375 0.00374746
0.075776 0.1 0.3375 0.00374744
0.350249 0.1 -0.0375 0.00372224
0.350249 0.1 0.0375 0.00372115
0 0.1 -0.35701 0.00375
0 0.1 0.35701 0.00375
0.0363518 0.1 -0.35701 0.00374891
0.0363518 0.1 0.35701 0.0037489
0.287374 0.1 -0.225 0.00373128
0.287374 0.1 0.225 0.00372934
0.350249 0.1 -0.1125 0.00372374
0.350249 0.1 0.1125 0.00372115
0 0.1 -0.375 0.00375
0 0.1 0.375 0.00375
0 0.1 -0.39299 0.00375
0 0.1 0.39299 0.00375
0.0363518 0.1 -0.39299 0.00374914
0.0363518 0.1 0.39299 0.00374916
0.350249 0.1 -0.1875 0.00372501
0.350249 0.1 0.1875 0.00372221
0.219992 0.1 -0.3375 0.00373853
0.219992 0.1 0.3375 0.00373791
0.150379 0.1 0.375 0.00374291
0.150379 0.1 -0.375 0.00374308
0.411108 0.1 4.33681e-19 0.00371687
0.287374 0.1 -0.3 0.00373222
0.287374 0.1 0.3 0.0037307
0.411108 0.1 -0.075 0.00371824
0.411108 0.1 0.075 0.00371614
0.075776 0.1 -0.4125 0.00374794
0.075776 0.1 0.4125 0.00374797
0 0.1 0.43201 0.00375
0 0.1 -0.43201 0.00375
0.0363518 0.1 0.43201 0.00374916
0.0363518 0.1 -0.43201 0.00374914
0.411108 0.1 -0.15 0.00371966
0.411108 0.1 0.15 0.00371644
0.350249 0.1 -0.2625 0.0037261
0.350249 0.1 0.2625 0.00372366
0 0.1 -0.45 0.00375
0 0.1 0.45 0.00375
0.219992 0.1 0.4125 0.00373875
0.219992 0.1 -0.4125 0.00373882
0 0.1 -0.46799 0.00375
0 0.1 0.46799 0.00375
0.411108 0.1 -0.225 0.00372084
0.411108 0.1 0.225 0.00371754
0.467897 0.1 -0.0375 0.00371286
0.467897 0.1 0.0375 0.00371153
0.0363518 0.1 0.46799 0.00374941
0.0363518 0.1 -0.46799 0.0037494
0.287374 0.1 -0.375 0.00373286
0.287374 0.1 0.375 0.0037319
0.150379 0.1 0.45 0.0037435
0.150379 0.1 -0.45 0.00374359
0.467897 0.1 0.1125 0.00371108
0.467897 0.1 -0.1125 0.00371444
0.350249 0.1 -0.3375 0.00372697
0.350249 0.1 0.3375 0.00372513
0.075776 0.1 -0.4875 0.00374846
0.075776 0.1 0.4875 0.00374849
0.467897 0.1 0.1875 0.0037117
0.467897 0.1 -0.1875 0.00371577
0 0.1 -0.50701 0.00375
0 0.1 0.50701 0.00375
0.0363518 0.1 -0.50701 0.0037494
0.0363518 0.1 0.50701 0.00374941
0.411108 0.1 0.3 0.00371894
0.411108 0.1 -0.3 0.00372176
0.522865 0.1 1.41031e-17 0.00370958
0 0.1 -0.525 0.00375
0 0.1 0.525 0.00375
0.522865 0.1 -0.075 0.00371102
0.522865 0.1 0.075 0.00370856
0.287374 0.1 0.45 0.00373272
0.287374 0.1 -0.45 0.00373346
0.219992 0.1 0.4875 0.00373919
0.219992 0.1 -0.4875 0.00373956
0.467897 0.1 -0.2625 0.00371678
0.467897 0.1 0.2625 0.00371297
0.350249 0.1 -0.4125 0.00372759
0.350249 0.1 0.4125 0.00372632
0 0.1 -0.54299 0.00375
0 0.1 0.54299 0.00375
0.522865 0.1 0.15 0.00370839
0.522865 0.1 -0.15 0.00371239
0.0363518 0.1 0.54299 0.00374967
0.0363518 0.1 -0.54299 0.00374966
0.150379 0.1 -0.525 0.00374425
0.150379 0.1 0.525 0.00374404
0.411108 0.1 -0.375 0.00372245
0.411108 0.1 0.375 0.00372026
0.075776 0.1 -0.5625 0.003749
0.075776 0.1 0.5625 0.00374902
0.522865 0.1 -0.225 0.00371341
0.522865 0.1 0.225 0.00370905
0.574156 0.1 0.0375 0.00370631
0.574157 0.1 -0.0375 0.00370773
0.467897 0.1 -0.3375 0.00371752
0.467897 0.1 0.3375 0.00371439
0 0.1 -0.58201 0.00375
0 0.1 0.58201 0.00375
0.0363518 0.1 -0.58201 0.00374966
0.0363518 0.1 0.58201 0.00374967
0.574157 0.1 -0.1125 0.00370916
0.574157 0.1 0.1125 0.00370544
0.287374 0.1 -0.525 0.00373424
0.287374 0.1 0.525 0.00373336
0 0.1 -0.6 0.00375
0 0.1 0.6 0.00375
0.350249 0.1 0.4875 0.0037271
0.350249 0.1 -0.4875 0.00372834
0.522865 0.1 -0.3 0.00371409
0.522865 0.1 0.3 0.00371017
0.219992 0.1 -0.5625 0.0037404
0.219992 0.1 0.5625 0.00373987
0.574156 0.1 -0.1875 0.00371027
0.574156 0.1 0.1875 0.00370547
0.411108 0.1 0.45 0.00372125
0.411108 0.1 -0.45 0.00372305
0 0.1 -0.61799 0.00375
0 0.1 0.61799 0.00375
0.150379 0.1 -0.6 0.00374492
0.150379 0.1 0.6 0.00374467
0.0363518 0.1 -0.61799 0.00374991
0.0363518 0.1 0.61799 0.00374993
0.467897 0.1 -0.4125 0.00371804
0.467897 0.1 0.4125 0.00371559
0.623803 0.1 2.34188e-17 0.00370655
0.623803 0.1 0.075 0.00370534
0.623803 0.1 -0.075 0.0037079
0.574156 0.1 0.2625 0.00370622
0.574156 0.1 -0.2625 0.00371094
0.623803 0.1 0.15 0.00370468
0.623803 0.1 -0.15 0.00370899
0.075776 0.1 0.6375 0.00374955
0.075776 0.1 -0.6375 0.00374952
0.522865 0.1 -0.375 0.00371449
0.522865 0.1 0.375 0.0037113
0 0.1 0.65701 0.00375
0 0.1 -0.65701 0.00375
0.0363518 0.1 0.65701 0.00374993
0.0363518 0.1 -0.65701 0.00374991
0.350249 0.1 0.5625 0.00372777
0.350249 0.1 -0.5625 0.00372914
0.623803 0.1 0.225 0.00370475
0.623803 0.1 -0.225 0.00370965
0.287374 0.1 -0.6 0.00373503
0.287374 0.1 0.6 0.00373407
0.574157 0.1 -0.3375 0.00371126
0.574157 0.1 0.3375 0.00370726
0.411108 0.1 0.525 0.00372192
0.411108 0.1 -0.525 0.00372368
0.67013 0.1 0.0375 0.00370534
0.67013 0.1 -0.0375 0.00370672
0.219992 0.1 -0.6375 0.00374117
0.219993 0.1 0.6375 0.00374064
0 0.1 -0.675 0.00375
0 0.1 0.675 0.00375
0.467897 0.1 -0.4875 0.00371855
0.467897 0.1 0.4875 0.00371636
0.67013 0.1 -0.1125 0.00370786
0.67013 0.1 0.1125 0.00370415
0.522865 0.1 0.45 0.00371212
0.522865 0.1 -0.45 0.00371471
0.150379 0.1 0.675 0.00374532
0.150379 0.1 -0.675 0.00374553
0.623803 0.1 0.3 0.00370531
0.623803 0.1 -0.3 0.00370986
0 0.1 -0.69299 0.00375
0 0.1 0.69299 0.00375
0.0363518 0.1 -0.69299 0.00375014
0.0363518 0.1 0.69299 0.00375018
0.67013 0.1 -0.1875 0.00370855
0.67013 0.1 0.1875 0.00370357
0.574156 0.1 0.4125 0.00370814
0.574157 0.1 -0.4125 0.00371127
0.714971 0.1 -2.8382e-17 0.00370756
0.075776 0.1 -0.7125 0.00375
0.075776 0.1 0.7125 0.00375006
0.714971 0.1 -0.075 0.00370868
0.714971 0.1 0.075 0.00370626
0.67013 0.1 0.2625 0.00370365
0.67013 0.1 -0.2625 0.00370875
0.411108 0.1 -0.6 0.00372429
0.411108 0.1 0.6 0.00372249
0.350249 0.1 0.6375 0.0037285
0.350249 0.1 -0.6375 0.00372988
0.623803 0.1 0.375 0.00370597
0.623803 0.1 -0.375 0.00370967
0.714971 0.1 -0.15 0.00370936
0.714971 0.1 0.15 0.00370518
0.467897 0.1 -0.5625 0.00371905
0.467897 0.1 0.5625 0.00371683
0 0.1 -0.73201 0.00375
0 0.1 0.73201 0.00375
0.0363518 0.1 0.73201 0.00375018
0.0363518 0.1 -0.73201 0.00375014
0.287374 0.1 -0.675 0.00373573
0.287374 0.1 0.675 0.00373483
0.522865 0.1 -0.525 0.00371487
0.522865 0.1 0.525 0.00371253
0.219993 0.1 -0.7125 0.00374182
0.219992 0.1 0.7125 0.00374141
0.714971 0.1 -0.225 0.00370948
0.714971 0.1 0.225 0.0037046
0 0.1 0.75 0.00375
0 0.1 -0.75 0.00375
0.67013 0.1 -0.3375 0.00370841
0.67013 0.1 0.3375 0.00370404
0.574156 0.1 -0.4875 0.00371115
0.574157 0.1 0.4875 0.00370857
0.756813 0.1 0.0375 0.00370832
0.756814 0.1 -0.0375 0.00370954
0.150379 0.1 0.746002 0.00374597
0.150379 0.1 -0.75 0.00374606
0.756813 0.1 -0.1125 0.0037103
0.756813 0.1 0.1125 0.00370692
0 0.1 0.76799 0.00375
0 0.1 -0.76799 0.00375
0.0363518 0.1 0.76799 0.00375039
0.0363518 0.1 -0.76799 0.00375035
0.623803 0.1 -0.45 0.00370921
0.623803 0.1 0.45 0.00370636
0.714971 0.1 -0.3 0.00370902
0.714971 0.1 0.3 0.00370444
0.756814 0.1 -0.1875 0.00371043
0.756814 0.1 0.1875 0.00370578
0.67013 0.1 -0.4125 0.00370769
0.67013 0.1 0.4125 0.00370441
0.411108 0.1 0.675 0.0037231
0.411108 0.1 -0.675 0.0037248
0.467897 0.1 0.6375 0.00371726
0.467897 0.1 -0.6375 0.00371945
0.075776 0.1 0.7875 0.00375051
0.075776 0.1 -0.7875 0.00375042
0.350249 0.1 -0.7125 0.00373052
0.350249 0.1 0.7125 0.00372928
0.522865 0.1 -0.6 0.00371496
0.522865 0.1 0.6 0.0037127
0.797314 0.1 -3.59473e-17 0.00371222
0.287374 0.1 0.746002 0.00373566
0.797314 0.1 -0.075 0.00371304
0.797314 0.1 0.075 0.00371093
0.756814 0.1 -0.2625 0.00370993
0.756814 0.1 0.2625 0.00370511
0.287374 0.1 -0.75 0.00373633
0.574156 0.1 -0.5625 0.00371093
0.574156 0.1 0.5625 0.00370857
0 0.1 0.80701 0.00375
0 0.1 -0.80701 0.00375
0.714971 0.1 -0.375 0.00370805
0.714971 0.1 0.375 0.00370441
0.0363518 0.1 0.80701 0.00375039
0.0363518 0.1 -0.80701 0.00375035
0.797314 0.1 -0.15 0.00371321
0.797314 0.1 0.15 0.00370951
0.623803 0.1 -0.525 0.00370858
0.623803 0.1 0.525 0.00370626
0.219992 0.1 0.7875 0.00374211
0.219992 0.1 -0.7875 0.00374238
0.149792 0.1 0.80701 0.00374635
0 0.1 0.825 0.00375
0 0.1 -0.825 0.00375
0.797314 0.1 -0.225 0.00371266
0.797314 0.1 0.225 0.0037083
0.756813 0.1 -0.3375 0.00370877
0.756813 0.1 0.3375 0.0037047
0.67013 0.1 0.4875 0.0037043
0.67013 0.1 -0.4875 0.00370672
0.835106 0.1 -0.0375 0.00371578
0.835106 0.1 0.0375 0.00371478
0.150379 0.1 -0.825 0.00374652
0.835106 0.1 -0.1125 0.00371609
0.835106 0.1 0.1125 0.00371326
0 0.1 -0.84299 0.00375
0 0.1 0.84299 0.00375
0.0363518 0.1 -0.84299 0.00375052
0.0363518 0.1 0.84299 0.00375058
0.714971 0.1 -0.45 0.00370671
0.714971 0.1 0.45 0.00370416
0.411108 0.1 0.746002 0.00372382
0.797314 0.1 -0.3 0.00371139
0.797314 0.1 0.3 0.00370735
0.467897 0.1 -0.7125 0.00371971
0.467897 0.1 0.7125 0.00371778
0.522865 0.1 0.675 0.00371282
0.522865 0.1 -0.675 0.00371493
0.411108 0.1 -0.75 0.00372519
0.835106 0.1 -0.1875 0.00371558
0.835107 0.1 0.1875 0.00371164
0.286844 0.1 0.80701 0.00373613
0.574156 0.1 0.6375 0.00370836
0.574157 0.1 -0.6375 0.00371061
0.350249 0.1 -0.7875 0.00373106
0.350249 0.1 0.7875 0.00373004
0.756813 0.1 -0.4125 0.00370713
0.756814 0.1 0.4125 0.00370427
0.623803 0.1 -0.6 0.00370781
0.623803 0.1 0.6 0.00370578
0.075776 0.1 0.8625 0.00375089
0.075776 0.1 -0.8625 0.00375077
0.871687 0.1 -3.2767e-18 0.00372001
0.287374 0.1 -0.825 0.00373683
0.871687 0.1 -0.075 0.00372047
0.871687 0.1 0.075 0.00371881
0.67013 0.1 -0.5625 0.00370553
0.67013 0.1 0.5625 0.00370363
0.835106 0.1 0.2625 0.00371023
0.835106 0.1 -0.2625 0.00371427
0.797314 0.1 -0.375 0.0037095
0.797314 0.1 0.375 0.00370648
0 0.1 -0.88201 0.00375
0 0.1 0.88201 0.00375
0.0363518 0.1 0.88201 0.00375058
0.0363518 0.1 -0.88201 0.00375052
0.871687 0.1 0.15 0.00371713
0.871687 0.1 -0.15 0.00372006
0.714971 0.1 0.525 0.00370339
0.714971 0.1 -0.525 0.00370508
0.219993 0.1 0.8625 0.0037427
0.219992 0.1 -0.8625 0.00374285
0 0.1 0.9 0.00375
0 0.1 -0.9 0.00375
0.756813 0.1 0.4875 0.00370346
0.756814 0.1 -0.4875 0.00370512
0.871687 0.1 0.225 0.00371533
0.871687 0.1 -0.225 0.00371874
0.835106 0.1 -0.3375 0.00371222
0.835106 0.1 0.3375 0.00370896
0.41063 0.1 0.80701 0.00372424
0.90582 0.1 -0.0375 0.00372481
0.905821 0.1 0.0375 0.00372409
0.522865 0.1 0.746002 0.00371307
0.150379 0.1 0.9 0.0037469
0.90582 0.1 0.1125 0.00372254
0.905821 0.1 -0.1125 0.00372462
0.522865 0.1 -0.75 0.00371479
0.574156 0.1 0.7125 0.00370814
0.574156 0.1 -0.7125 0.00371018
0.797314 0.1 -0.45 0.00370711
0.797314 0.1 0.45 0.00370541
0.467897 0.1 -0.7875 0.00371985
0.467897 0.1 0.7875 0.00371831
0.150379 0.1 -0.903998 0.00374676
0 0.1 0.91799 0.00375
0 0.1 -0.91799 0.00375
0.0363518 0.1 0.91799 0.00375073
0.0363518 0.1 -0.91799 0.00375065
0.623803 0.1 0.675 0.00370512
0.623803 0.1 -0.675 0.00370694
0.411108 0.1 -0.825 0.00372546
0.871687 0.1 0.3 0.0037136
0.871687 0.1 -0.3 0.00371662
0.67013 0.1 -0.6375 0.00370423
0.67013 0.1 0.6375 0.00370259
0.90582 0.1 -0.1875 0.00372339
0.90582 0.1 0.1875 0.00372052
0.350249 0.1 0.8625 0.00373072
0.350249 0.1 -0.8625 0.00373148
0.835106 0.1 -0.4125 0.00370952
0.835106 0.1 0.4125 0.0037076
0.714971 0.1 -0.6 0.00370324
0.714971 0.1 0.6 0.00370209
0.93886 0.1 -1.15648e-17 0.00373065
0.075776 0.1 0.9375 0.00375121
0.075776 0.1 -0.9375 0.00375106
0.93886 0.1 0.075 0.00372958
0.93886 0.1 -0.075 0.00373072
0.756813 0.1 0.5625 0.003702
0.756814 0.1 -0.5625 0.00370281
0.905821 0.1 -0.2625 0.00372122
0.905821 0.1 0.2625 0.00371839
0.287374 0.1 0.9 0.00373684
0.287374 0.1 -0.903998 0.00373705
0.871687 0.1 0.375 0.00371181
0.871687 0.1 -0.375 0.00371372
0.93886 0.1 -0.15 0.00372972
0.93886 0.1 0.15 0.00372771
0.797314 0.1 0.525 0.00370384
0.797314 0.1 -0.525 0.00370433
0 0.1 0.95701 0.00375
0 0.1 -0.95701 0.00375
0.0363518 0.1 0.95701 0.00375073
0.0363518 0.1 -0.95701 0.00375065
0.522433 0.1 0.80701 0.00371316
0.219992 0.1 0.9375 0.00374317
0.219992 0.1 -0.9375 0.00374319
0.93886 0.1 0.225 0.0037254
0.93886 0.1 -0.225 0.00372765
0.90582 0.1 0.3375 0.00371627
0.905821 0.1 -0.3375 0.00371828
0.835106 0.1 -0.4875 0.00370634
0.835107 0.1 0.4875 0.00370596
0.969689 0.1 -0.0375 0.00373673
0.969689 0.1 0.0375 0.00373629
0.61613 0.1 0.75 0.00370446
0.574156 0.1 -0.7875 0.00370971
0.574156 0.1 0.7875 0.003708
0 0.1 0.975 0.00375
0 0.1 -0.975 0.00375
0.623803 0.1 -0.75 0.00370598
0.969689 0.1 -0.1125 0.00373607
0.969689 0.1 0.1125 0.00373473
0.522865 0.1 -0.825 0.00371457
0.67013 0.1 0.7125 0.00370144
0.67013 0.1 -0.7125 0.00370283
0.871687 0.1 -0.45 0.00371015
0.871687 0.1 0.45 0.00370982
0.467897 0.1 0.8625 0.00371876
0.467897 0.1 -0.8625 0.00371986
0.714971 0.1 -0.675 0.00370126
0.714971 0.1 0.675 0.00370048
0.93886 0.1 -0.3 0.00372464
0.93886 0.1 0.3 0.00372291
0.150379 0.1 0.975 0.00374724
0.150379 0.1 -0.975 0.00374714
0.969689 0.1 -0.1875 0.00373416
0.969689 0.1 0.1875 0.00373238
0.411108 0.1 0.9 0.00372485
0.756813 0.1 0.6375 0.00370001
0.756814 0.1 -0.6375 0.00370029
0.990306 0.1 -2.19732e-17 0.00373767
0 0.1 0.99299 0.00375
0 0.1 -0.99299 0.00375
0.411108 0.1 -0.903998 0.00372547
0.990306 0.1 -0.075 0.00373748
0.990306 0.1 0.075 0.0037367
0.0363518 0.1 0.99299 0.00375084
0.0363518 0.1 -0.99299 0.00375076
0.90582 0.1 -0.4125 0.0037144
0.905821 0.1 0.4125 0.00371391
0.797314 0.1 -0.6 0.00370126
0.797314 0.1 0.6 0.00370163
0.350249 0.1 0.9375 0.00373127
0.350249 0.1 -0.9375 0.00373174
0.990306 0.1 0.15 0.00373473
0.990306 0.1 -0.15 0.00373607
0.969689 0.1 -0.2625 0.0037312
0.969689 0.1 0.2625 0.00372964
0.835106 0.1 -0.5625 0.00370278
0.835106 0.1 0.5625 0.00370361
0.93886 0.1 -0.375 0.00372061
0.93886 0.1 0.375 0.00372025
0.075776 0.1 1.0125 0.00375144
0.075776 0.1 -1.0125 0.00375127
0.990306 0.1 -0.225 0.00373348
0.990306 0.1 0.225 0.00373208
0.287374 0.1 0.975 0.00373729
0.287374 0.1 -0.975 0.00373744
0.871687 0.1 -0.525 0.00370606
0.871687 0.1 0.525 0.00370732
1.02149 0.1 -0.0369628 0.00374483
1.02149 0.1 0.0369628 0.00374459
0.969689 0.1 -0.3375 0.00372725
0.969689 0.1 0.3375 0.00372672
1.02149 0.1 -0.110888 0.00374385
1.02149 0.1 0.110888 0.00374313
0.90582 0.1 0.4875 0.00371132
0.90582 0.1 -0.4875 0.00370989
0.623803 0.1 0.819003 0.00370353
0 0.1 1.03201 0.00375
0 0.1 -1.03201 0.00375
0.0363518 0.1 1.03201 0.00375084
0.0363518 0.1 -1.03201 0.00375076
0.67013 0.1 -0.7875 0.00370133
0.67013 0.1 0.7875 0.00370036
0.623803 0.1 -0.825 0.00370495
0.990306 0.1 -0.3 0.00372982
0.990306 0.1 0.3 0.00372907
0.219992 0.1 -1.0125 0.00374341
0.219993 0.1 1.0125 0.00374351
0.574156 0.1 0.8625 0.00370793
0.574157 0.1 -0.8625 0.00370914
0.714971 0.1 -0.75 0.00369919
0.714971 0.1 0.75 0.00369879
1.02149 0.1 0.184814 0.00374066
1.02149 0.1 -0.184814 0.00374152
0.756814 0.1 -0.7125 0.00369766
0.756814 0.1 0.7125 0.00369776
0.522865 0.1 0.9 0.00371332
0.93886 0.1 -0.45 0.00371569
0.93886 0.1 0.45 0.0037173
1.04168 0.1 0 0.00374965
1.04168 0.1 -0.0729162 0.00374919
1.04168 0.1 0.0729162 0.00374886
0.522865 0.1 -0.903998 0.00371413
0.797314 0.1 -0.675 0.00369798
0.797314 0.1 0.675 0.00369895
0.467897 0.1 0.9375 0.00371908
0.467897 0.1 -0.9375 0.00371973
0 0.1 1.05 0.00375
0 0.1 -1.05 0.00375
0.835106 0.1 -0.6375 0.00369893
0.835106 0.1 0.6375 0.00370059
1.04168 0.1 -0.145832 0.00374742
1.04168 0.1 0.145832 0.00374689
1.02149 0.1 -0.25874 0.00373807
1.02149 0.1 0.25874 0.00373754
0.969689 0.1 -0.4125 0.00372194
0.969689 0.1 0.4125 0.00372347
0.411108 0.1 0.975 0.00372522
0.411108 0.1 -0.975 0.00372561
0.871687 0.1 -0.6 0.00370158
0.871687 0.1 0.6 0.00370408
1.0579 0.1 -0.0360525 0.00375402
1.0579 0.1 0.0360525 0.00375394
0.990306 0.1 -0.375 0.00372492
0.990306 0.1 0.375 0.00372578
0.150379 0.1 1.05 0.00374748
0.150379 0.1 -1.05 0.00374731
1.0579 0.1 0.108157 0.00375258
1.0579 0.1 -0.108157 0.00375286
1.04168 0.1 -0.218749 0.00374439
1.04168 0.1 0.218749 0.00374403
0.90582 0.1 -0.5625 0.00370486
0.90582 0.1 0.5625 0.00370793
0 0.1 -1.06799 0.00375
0 0.1 1.06799 0.00375
0.0363518 0.1 -1.06799 0.00375083
0.0363518 0.1 1.06799 0.00375092
0.350249 0.1 1.0125 0.00373168
0.350249 0.1 -1.0125 0.00373188
1.0579 0.1 -0.180262 0.0037503
1.0579 0.1 0.180262 0.00375011
1.02149 0.1 -0.332665 0.00373343
1.02149 0.1 0.332665 0.00373404
0.93886 0.1 -0.525 0.00371019
0.93886 0.1 0.525 0.00371381
1.08012 0.1 5.49329e-18 0.00376027
1.04168 0.1 -0.291665 0.00374018
1.04168 0.1 0.291665 0.00374057
1.08012 0.1 0.0709941 0.0037596
1.08012 0.1 -0.0709941 0.00375966
0.969689 0.1 -0.4875 0.00371601
0.96969 0.1 0.4875 0.00371991
1.0579 0.1 0.252367 0.00374684
1.0579 0.1 -0.252367 0.00374659
0.990306 0.1 -0.45 0.003719
0.990306 0.1 0.45 0.00372214
0.287374 0.1 -1.05 0.00373756
0.287374 0.1 1.05 0.0037376
0.714971 0.1 0.821002 0.00369722
1.08012 0.1 -0.141988 0.0037577
1.08012 0.1 0.141988 0.00375771
0.075776 0.1 1.0875 0.0037516
0.075776 0.1 -1.0875 0.00375142
0.714971 0.1 -0.825 0.00369705
0.756813 0.1 -0.7875 0.00369494
0.756814 0.1 0.7875 0.00369552
0.67013 0.1 -0.8625 0.00369979
0.67013 0.1 0.8625 0.00369934
0.797314 0.1 -0.75 0.00369458
0.797314 0.1 0.75 0.00369607
0.623803 0.1 0.9 0.00370334
0.835106 0.1 -0.7125 0.00369488
0.835106 0.1 0.7125 0.00369716
0.623803 0.1 -0.903998 0.00370386
0.574156 0.1 0.9375 0.00370784
0.574156 0.1 -0.9375 0.00370838
1.02149 0.1 -0.406591 0.00372731
1.02149 0.1 0.406591 0.00373015
1.08012 0.1 -0.212982 0.00375445
1.08012 0.1 0.212982 0.00375479
1.10076 0.1 -0.0349809 0.00376617
1.10076 0.1 0.0349809 0.00376621
0.871687 0.1 -0.675 0.00369681
0.871687 0.1 0.675 0.00370024
1.04168 0.1 -0.364581 0.00373456
1.04168 0.1 0.364581 0.0037367
1.10076 0.1 -0.104943 0.00376486
1.10076 0.1 0.104943 0.00376496
0.522865 0.1 0.975 0.00371337
0.522865 0.1 -0.975 0.00371372
1.0579 0.1 -0.324472 0.00374157
1.0579 0.1 0.324472 0.00374305
0 0.1 -1.10701 0.00375
0 0.1 1.10701 0.00375
0.0363518 0.1 1.10701 0.00375092
0.0363518 0.1 -1.10701 0.00375083
0.90582 0.1 0.6375 0.00370379
0.905821 0.1 -0.6375 0.00369943
0.219992 0.1 1.0875 0.00374374
0.219992 0.1 -1.0875 0.00374352
0.93886 0.1 0.6 0.00370945
0.93886 0.1 -0.6 0.00370424
1.10076 0.1 -0.174905 0.00376209
1.10076 0.1 0.174905 0.00376249
0.467897 0.1 1.0125 0.00371926
0.467897 0.1 -1.0125 0.00371953
1.08012 0.1 -0.283976 0.00374994
1.08012 0.1 0.283976 0.00375115
1.11928 0.1 3.93204e-18 0.00377177
0.990306 0.1 -0.525 0.00371249
0.990306 0.1 0.525 0.0037179
0.96969 0.1 -0.5625 0.00370953
0.969689 0.1 0.5625 0.00371551
1.11928 0.1 -0.0690357 0.00377105
1.11928 0.1 0.0690357 0.00377121
0 0.1 1.125 0.00375
0 0.1 -1.125 0.00375
0.411108 0.1 -1.05 0.00372553
0.411108 0.1 1.05 0.00372545
1.10076 0.1 0.244866 0.00375908
1.10076 0.1 -0.244866 0.00375817
1.11928 0.1 -0.138072 0.00376896
1.11928 0.1 0.138072 0.00376939
1.02149 0.1 0.480517 0.00372583
1.02149 0.1 -0.480517 0.00372046
1.0579 0.1 -0.396577 0.003735
1.0579 0.1 0.396577 0.00373882
1.04168 0.1 -0.437497 0.00372776
1.04168 0.1 0.437497 0.00373238
0.150379 0.1 1.125 0.00374764
0.150379 0.1 -1.125 0.00374741
0.714971 0.1 0.88201 0.00369476
1.08012 0.1 0.354971 0.00374698
1.08012 0.1 -0.354971 0.00374393
1.11928 0.1 -0.207107 0.00376556
1.11928 0.1 0.207107 0.00376646
0.350249 0.1 -1.0875 0.0037319
0.350249 0.1 1.0875 0.00373196
0 0.1 1.14299 0.00375
0 0.1 -1.14299 0.00375
0.0363518 0.1 1.14299 0.00375097
0.0363518 0.1 -1.14299 0.00375087
1.14316 0.1 -0.0339211 0.00377928
1.14316 0.1 0.0339211 0.00377943
0.797314 0.1 0.821002 0.00369336
1.10076 0.1 -0.314829 0.00375282
1.10076 0.1 0.314829 0.00375502
0.797314 0.1 -0.825 0.00369115
0.756814 0.1 -0.8625 0.00369218
0.756814 0.1 0.8625 0.00369336
1.14316 0.1 -0.101763 0.00377784
1.14316 0.1 0.101763 0.00377831
0.835106 0.1 -0.7875 0.00369072
0.835106 0.1 0.7875 0.00369361
0.871687 0.1 -0.75 0.00369194
0.871687 0.1 0.75 0.00369605
0.67013 0.1 0.9375 0.00369842
0.67013 0.1 -0.9375 0.00369827
0.90582 0.1 -0.7125 0.00369373
0.905821 0.1 0.7125 0.00369906
0.714971 0.1 -0.903998 0.00369506
1.11928 0.1 0.276143 0.00376269
1.11928 0.1 -0.276143 0.00376083
1.14316 0.1 0.169605 0.00377594
1.14316 0.1 -0.169605 0.00377497
0.93886 0.1 -0.675 0.00369799
0.93886 0.1 0.675 0.00370435
1.15704 0.1 0 0.0037837
1.0579 0.1 0.468682 0.00373409
1.0579 0.1 -0.468682 0.00372758
0.623803 0.1 0.975 0.0037028
0.623803 0.1 -0.975 0.00370268
0.990306 0.1 0.6 0.0037127
0.990306 0.1 -0.6 0.00370549
1.15704 0.1 -0.0671479 0.0037829
1.15704 0.1 0.0671479 0.00378323
1.04168 0.1 -0.510414 0.00372039
1.04168 0.1 0.510414 0.00372748
0.969689 0.1 -0.6375 0.00370269
0.969689 0.1 0.6375 0.00371003
1.08012 0.1 0.425965 0.0037423
1.08012 0.1 -0.425965 0.00373663
0.287374 0.1 -1.125 0.00373758
0.287374 0.1 1.125 0.00373779
1.02149 0.1 -0.554443 0.00371314
1.02149 0.1 0.554443 0.00372076
0.574156 0.1 1.0125 0.00370763
0.574156 0.1 -1.0125 0.00370757
1.15704 0.1 -0.134296 0.00378073
1.15704 0.1 0.134296 0.0037815
0.075776 0.1 1.1625 0.00375171
0.075776 0.1 -1.1625 0.00375151
1.10076 0.1 -0.384791 0.00374581
1.10076 0.1 0.384791 0.00375045
1.14316 0.1 -0.237448 0.00377088
1.14316 0.1 0.237448 0.00377254
1.11928 0.1 -0.345179 0.00375454
1.11928 0.1 0.345179 0.00375828
0.522865 0.1 1.05 0.00371331
0.522865 0.1 -1.05 0.00371321
1.15704 0.1 -0.201444 0.00377724
1.15704 0.1 0.201444 0.0037786
1.1744 0.1 -0.0331401 0.00378904
1.1744 0.1 0.0331401 0.00378922
1.1744 0.1 -0.0994202 0.00378759
1.1744 0.1 0.0994202 0.00378816
0 0.1 1.18201 0.00375
0 0.1 -1.18201 0.00375
0.0363518 0.1 1.18201 0.00375097
0.0363518 0.1 -1.18201 0.00375087
0.219992 0.1 1.1625 0.00374386
0.219993 0.1 -1.1625 0.00374355
1.14316 0.1 0.30529 0.00376834
1.14316 0.1 -0.30529 0.00376526
0.467897 0.1 1.0875 0.00371936
0.467897 0.1 -1.0875 0.00371927
1.1744 0.1 -0.1657 0.00378471
1.1744 0.1 0.1657 0.00378584
1.15704 0.1 -0.268592 0.00377239
1.15704 0.1 0.268592 0.00377476
1.0579 0.1 0.540787 0.00372865
1.0579 0.1 -0.540787 0.00371983
0.796996 0.1 0.88201 0.00369114
1.08012 0.1 -0.496959 0.00372878
1.08012 0.1 0.496959 0.00373702
1.10076 0.1 0.454752 0.00374531
1.10076 0.1 -0.454752 0.00373774
1.11928 0.1 -0.414214 0.00374684
1.11928 0.1 0.414214 0.00375331
1.04168 0.1 -0.58333 0.00371246
1.04168 0.1 0.58333 0.00372163
1.1744 0.1 -0.231981 0.00378065
1.1744 0.1 0.231981 0.00378246
0.871687 0.1 0.821002 0.00369199
0.411108 0.1 1.125 0.00372557
0.411108 0.1 -1.125 0.00372537
1.19808 0.1 1.73472e-17 0.00379775
0.990306 0.1 0.675 0.00370669
0.990306 0.1 -0.675 0.00369822
1.02149 0.1 0.628368 0.00371458
1.02149 0.1 -0.628368 0.00370525
1.19808 0.1 -0.0650961 0.00379689
1.19808 0.1 0.0650961 0.00379737
0 0.1 1.2 0.00375
0 0.1 -1.2 0.00375
0.871687 0.1 -0.825 0.00368707
0.905821 0.1 -0.7875 0.00368818
0.90582 0.1 0.7875 0.00369404
0.835106 0.1 -0.8625 0.00368665
0.835106 0.1 0.8625 0.00369014
0.93886 0.1 -0.75 0.00369164
0.93886 0.1 0.75 0.00369882
1.14316 0.1 -0.373132 0.00375801
1.14316 0.1 0.373132 0.00376353
0.969689 0.1 0.7125 0.00370401
0.969689 0.1 -0.7125 0.00369573
1.15704 0.1 -0.33574 0.00376591
1.15704 0.1 0.33574 0.00377019
0.756813 0.1 0.9375 0.00369131
0.756814 0.1 -0.9375 0.00368959
1.19808 0.1 0.130192 0.00379574
1.19808 0.1 -0.130192 0.00379468
0.797314 0.1 -0.903998 0.00368806
0.714971 0.1 0.975 0.00369415
0.714971 0.1 -0.975 0.0036929
0.150379 0.1 1.2 0.00374771
0.150379 0.1 -1.2 0.00374744
1.20938 0.1 -0.0322656 0.00380101
1.20938 0.1 0.0322656 0.00380125
1.1744 0.1 -0.298261 0.003775
1.1744 0.1 0.298261 0.0037782
1.20938 0.1 -0.0967968 0.00379952
1.20938 0.1 0.0967968 0.00380028
1.19808 0.1 -0.195288 0.00379117
1.19808 0.1 0.195288 0.00379293
0.350249 0.1 1.1625 0.00373209
0.350249 0.1 -1.1625 0.00373182
0.67013 0.1 1.0125 0.00369751
0.67013 0.1 -1.0125 0.00369673
0 0.1 1.21799 0.00375
0 0.1 -1.21799 0.00375
0.0363518 0.1 -1.21799 0.00375089
0.0363518 0.1 1.21799 0.00375099
1.11928 0.1 -0.48325 0.00373857
1.11928 0.1 0.48325 0.00374771
1.10076 0.1 -0.524714 0.0037296
1.10076 0.1 0.524714 0.0037395
1.20938 0.1 0.161328 0.00379804
1.20938 0.1 -0.161328 0.0037966
1.08012 0.1 0.567953 0.00373083
1.08012 0.1 -0.567953 0.00372032
0.623803 0.1 1.05 0.00370221
0.623803 0.1 -1.05 0.00370153
1.0579 0.1 -0.612892 0.00371126
1.0579 0.1 0.612892 0.0037221
1.15704 0.1 -0.402888 0.00375793
1.15704 0.1 0.402888 0.003765
1.14316 0.1 0.440974 0.00375811
1.14316 0.1 -0.440974 0.00374957
1.19808 0.1 -0.260384 0.00378628
1.19808 0.1 0.260384 0.00378909
1.2267 0.1 3.57064e-18 0.00380806
1.2267 0.1 -0.0636649 0.00380714
1.2267 0.1 0.0636649 0.00380774
1.1744 0.1 -0.364541 0.00376768
1.1744 0.1 0.364541 0.00377329
0.574156 0.1 1.0875 0.00370733
0.574156 0.1 -1.0875 0.00370683
1.20938 0.1 0.225859 0.0037947
1.20938 0.1 -0.225859 0.00379254
1.04168 0.1 -0.656246 0.00370402
1.04168 0.1 0.656246 0.00371493
1.2267 0.1 -0.12733 0.00380488
1.2267 0.1 0.12733 0.00380619
0.287374 0.1 1.2 0.00373786
0.287374 0.1 -1.2 0.0037375
1.02149 0.1 -0.702294 0.00369712
1.02149 0.1 0.702294 0.00370781
0.075776 0.1 -1.2375 0.00375155
0.075776 0.1 1.2375 0.00375175
0.871399 0.1 0.88201 0.00368865
0.522865 0.1 1.125 0.00371315
0.522865 0.1 -1.125 0.00371268
1.2267 0.1 -0.190994 0.00380134
1.2267 0.1 0.190994 0.00380342
1.19808 0.1 -0.32548 0.00377974
1.19808 0.1 0.32548 0.00378444
0.990306 0.1 -0.75 0.00369075
0.990306 0.1 0.75 0.00370024
1.24274 0.1 -0.0314313 0.00381353
1.24274 0.1 0.0314313 0.00381384
1.20938 0.1 -0.29039 0.00378684
1.20938 0.1 0.29039 0.00379041
1.24274 0.1 -0.0942942 0.00381196
1.24274 0.1 0.0942942 0.00381297
0.93886 0.1 0.821002 0.00369339
1.11928 0.1 -0.552285 0.00372967
1.11928 0.1 0.552285 0.00374124
1.15704 0.1 -0.470036 0.00374931
1.15704 0.1 0.470036 0.00375915
0.969689 0.1 -0.7875 0.00368857
0.96969 0.1 0.7875 0.00369772
0.93886 0.1 -0.825 0.00368524
0.90582 0.1 0.8625 0.00368902
0.905821 0.1 -0.8625 0.00368253
1.1744 0.1 -0.430821 0.00375899
1.1744 0.1 0.430821 0.00376775
1.10076 0.1 -0.594676 0.00372032
1.10076 0.1 0.594676 0.00373258
1.14316 0.1 -0.508816 0.00374098
1.14316 0.1 0.508816 0.00375198
1.24274 0.1 -0.157157 0.00380897
1.24274 0.1 0.157157 0.00381081
1.2267 0.1 -0.254659 0.00379641
1.2267 0.1 0.254659 0.0037996
0.467897 0.1 1.1625 0.00371935
0.467897 0.1 -1.1625 0.00371894
1.08012 0.1 0.638947 0.00372376
1.08012 0.1 -0.638947 0.00371111
1.25511 0.1 -5.78241e-19 0.00381919
0.835106 0.1 -0.9375 0.00368271
0.835106 0.1 0.9375 0.00368679
0.871687 0.1 -0.903998 0.00368271
1.25511 0.1 0.0622446 0.00381898
1.25511 0.1 -0.0622446 0.00381815
0.219992 0.1 1.2375 0.00374389
0.219992 0.1 -1.2375 0.00374351
0 0.1 -1.25701 0.00375
0 0.1 1.25701 0.00375
0.0363518 0.1 -1.25701 0.00375089
0.0363518 0.1 1.25701 0.00375099
0.797314 0.1 0.975 0.0036878
0.797314 0.1 -0.975 0.00368464
1.19808 0.1 -0.390576 0.00377162
1.19808 0.1 0.390576 0.00377912
1.0579 0.1 -0.684997 0.0037023
1.0579 0.1 0.684997 0.00371495
1.20938 0.1 -0.354921 0.00377947
1.20938 0.1 0.354921 0.00378539
1.25511 0.1 0.124489 0.00381752
1.25511 0.1 -0.124489 0.00381576
1.24274 0.1 -0.220019 0.00380487
1.24274 0.1 0.220019 0.00380751
0.756813 0.1 1.0125 0.00368941
0.756814 0.1 -1.0125 0.00368712
1.2267 0.1 -0.318324 0.00378984
1.2267 0.1 0.318324 0.00379489
0.411108 0.1 1.2 0.00372556
0.411108 0.1 -1.2 0.0037251
1.25511 0.1 -0.186734 0.00381211
1.25511 0.1 0.186734 0.00381481
0.714971 0.1 1.05 0.00369276
0.714971 0.1 -1.05 0.00369095
1.04168 0.1 -0.729162 0.00369527
1.04168 0.1 0.729162 0.00370766
1.24274 0.1 0.282882 0.00380318
1.24274 0.1 -0.282882 0.00379912
0 0.1 1.275 0.00375
0 0.1 -1.275 0.00375
1.1744 0.1 0.497102 0.00376151
1.1744 0.1 -0.497102 0.00375028
1.15704 0.1 -0.537184 0.00374007
1.15704 0.1 0.537184 0.00375248
1.2756 0.1 -0.03061 0.0038278
1.2756 0.1 0.03061 0.00382825
0.67013 0.1 1.0875 0.00369658
0.67013 0.1 -1.0875 0.00369526
1.2756 0.1 -0.09183 0.00382603
1.2756 0.1 0.09183 0.0038275
1.25511 0.1 -0.248978 0.00380706
1.25511 0.1 0.248978 0.00381098
1.20938 0.1 0.419453 0.00377972
1.20938 0.1 -0.419453 0.0037706
1.11928 0.1 -0.621322 0.00371978
1.11928 0.1 0.621322 0.00373384
1.14316 0.1 -0.576659 0.00373122
1.14316 0.1 0.576659 0.00374487
1.19808 0.1 -0.455673 0.00376272
1.19808 0.1 0.455673 0.00377311
1.02149 0.1 0.776219 0.00370061
1.02149 0.1 -0.776219 0.00368873
0.150379 0.1 1.275 0.00374772
0.150379 0.1 -1.275 0.00374741
1.2756 0.1 -0.15305 0.00382288
1.2756 0.1 0.15305 0.00382544
1.2267 0.1 -0.381989 0.00378164
1.2267 0.1 0.381989 0.00378947
1.10076 0.1 -0.664638 0.00371041