# kMean  POINT_DATA 63840
# x  y  z  kMean
0 0.5 3.39583e-17 0.00375
0 0.5 -0.00617931 0.00375
0 0.5 0.00617931 0.00375
0.0124865 0.5 -0.00617931 0.0037503
0.0124865 0.5 0.00617931 0.0037503
0 0.5 -0.0688207 0.00375
0 0.5 0.0688207 0.00375
0.0124865 0.5 -0.0688207 0.0037503
0.0124865 0.5 0.0688207 0.0037503
0 0.5 -0.075 0.00375
0 0.5 0.075 0.00375
0 0.5 -0.0811793 0.00375
0 0.5 0.0811793 0.00375
0.0124865 0.5 -0.0811793 0.0037503
0.0124865 0.5 0.0811793 0.00375031
0.075776 0.5 -0.0375 0.00375181
0.075776 0.5 0.0375 0.00375182
0.075776 0.5 -0.1125 0.00375184
0.075776 0.5 0.1125 0.00375188
0 0.5 -0.143821 0.00375
0 0.5 0.143821 0.00375
0.0124865 0.5 -0.143821 0.0037503
0.0124865 0.5 0.143821 0.00375031
0 0.5 -0.15 0.00375
0 0.5 0.15 0.00375
0.151149 0.5 -0.00137318 0.003754
0 0.5 -0.156179 0.00375
0 0.5 0.156179 0.00375
0.0124865 0.5 -0.156179 0.00375032
0.0124865 0.5 0.156179 0.00375033
0.151149 0.5 0.075 0.00375406
0.151149 0.5 -0.075 0.00375406
0.075776 0.5 -0.1875 0.00375194
0.075776 0.5 0.1875 0.003752
0.151149 0.5 0.15 0.0037542
0.151149 0.5 -0.15 0.00375421
0 0.5 -0.218821 0.00375
0 0.5 0.218821 0.00375
0.0124865 0.5 -0.218821 0.00375032
0.0124865 0.5 0.218821 0.00375033
0.219992 0.5 0.0375 0.00375607
0.219993 0.5 -0.0375 0.00375608
0 0.5 -0.225 0.00375
0 0.5 0.225 0.00375
0 0.5 -0.231179 0.00375
0 0.5 0.231179 0.00375
0.0124865 0.5 -0.231179 0.00375034
0.0124865 0.5 0.231179 0.00375036
0.219992 0.5 0.1125 0.00375618
0.219993 0.5 -0.1125 0.00375622
0.151149 0.5 -0.225 0.00375445
0.151149 0.5 0.225 0.00375444
0.075776 0.5 -0.2625 0.00375209
0.075776 0.5 0.2625 0.00375217
0.288069 0.5 -0.00137318 0.0037605
0.219992 0.5 0.1875 0.00375644
0.219993 0.5 -0.1875 0.00375652
0 0.5 0.293821 0.00375
0 0.5 -0.293821 0.00375
0.0124865 0.5 -0.293821 0.00375034
0.0124865 0.5 0.293821 0.00375036
0.288069 0.5 -0.075 0.00376065
0.288069 0.5 0.075 0.00376054
0 0.5 -0.3 0.00375
0 0.5 0.3 0.00375
0 0.5 0.306179 0.00375
0 0.5 -0.306179 0.00375
0.0124865 0.5 -0.306179 0.00375037
0.0124865 0.5 0.306179 0.00375039
0.288069 0.5 -0.15 0.0037609
0.288069 0.5 0.15 0.0037607
0.151149 0.5 -0.3 0.00375477
0.151149 0.5 0.3 0.00375477
0.219992 0.5 -0.2625 0.00375695
0.219992 0.5 0.2625 0.00375685
0.075776 0.5 0.3375 0.00375236
0.075776 0.5 -0.3375 0.00375226
0.350249 0.5 -0.0375 0.00376475
0.350249 0.5 0.0375 0.00376466
0.288069 0.5 -0.225 0.0037613
0.288069 0.5 0.225 0.00376101
0.350249 0.5 0.1125 0.0037647
0.350249 0.5 -0.1125 0.00376496
0 0.5 0.368821 0.00375
0 0.5 -0.368821 0.00375
0.0124865 0.5 -0.368821 0.00375037
0.0124865 0.5 0.368821 0.00375039
0 0.5 -0.375 0.00375
0 0.5 0.375 0.00375
0 0.5 -0.381179 0.00375
0 0.5 0.381179 0.00375
0.0124865 0.5 -0.381179 0.0037504
0.0124865 0.5 0.381179 0.00375042
0.350249 0.5 -0.1875 0.00376533
0.350249 0.5 0.1875 0.00376491
0.219992 0.5 -0.3375 0.00375745
0.219992 0.5 0.3375 0.00375736
0.151149 0.5 -0.375 0.00375513
0.151149 0.5 0.375 0.00375514
0.411736 0.5 -0.00137318 0.00377162
0.288069 0.5 -0.3 0.00376181
0.288069 0.5 0.3 0.00376146
0.411736 0.5 -0.075 0.00377185
0.411736 0.5 0.075 0.00377161
0.075776 0.5 -0.4125 0.00375246
0.075776 0.5 0.4125 0.00375257
0.350249 0.5 -0.2625 0.00376585
0.350249 0.5 0.2625 0.00376528
0.411736 0.5 -0.15 0.00377213
0.411736 0.5 0.15 0.00377165
0 0.5 -0.443821 0.00375
0 0.5 0.443821 0.00375
0.0124865 0.5 -0.443821 0.0037504
0.0124865 0.5 0.443821 0.00375042
0 0.5 -0.45 0.00375
0 0.5 0.45 0.00375
0 0.5 -0.456179 0.00375
0 0.5 0.456179 0.00375
0.0124865 0.5 -0.456179 0.00375044
0.0124865 0.5 0.456179 0.00375046
0.219992 0.5 -0.4125 0.003758
0.219993 0.5 0.4125 0.00375793
0.411736 0.5 -0.225 0.00377252
0.411736 0.5 0.225 0.00377183
0.467897 0.5 0.0375 0.00377816
0.467897 0.5 -0.0375 0.00377831
0.288069 0.5 -0.375 0.00376237
0.288069 0.5 0.375 0.00376201
0.151149 0.5 -0.45 0.00375551
0.151149 0.5 0.45 0.00375555
0.467897 0.5 -0.1125 0.00377853
0.467897 0.5 0.1125 0.00377807
0.350249 0.5 0.3375 0.00376579
0.350249 0.5 -0.3375 0.00376642
0.075776 0.5 -0.4875 0.00375265
0.075776 0.5 0.4875 0.00375279
0.467897 0.5 -0.1875 0.00377885
0.467897 0.5 0.1875 0.00377809
0.411736 0.5 -0.3 0.00377297
0.411736 0.5 0.3 0.00377216
0 0.5 -0.518821 0.00375
0 0.5 0.518821 0.00375
0.0124865 0.5 0.518821 0.00375046
0.0124865 0.5 -0.518821 0.00375044
0.523432 0.5 -0.00137318 0.00378748
0 0.5 -0.525 0.00375
0 0.5 0.525 0.00375
0.523432 0.5 -0.075 0.00378772
0.523432 0.5 0.075 0.00378739
0 0.5 -0.531179 0.00375
0 0.5 0.531179 0.00375
0.0124865 0.5 -0.531179 0.00375047
0.0124865 0.5 0.531179 0.00375049
0.288069 0.5 -0.45 0.00376293
0.288069 0.5 0.45 0.00376261
0.219992 0.5 -0.4875 0.00375854
0.219993 0.5 0.4875 0.00375853
0.467897 0.5 -0.2625 0.00377921
0.467897 0.5 0.2625 0.00377824
0.350249 0.5 -0.4125 0.00376701
0.350249 0.5 0.4125 0.00376639
0.523432 0.5 -0.15 0.00378792
0.523432 0.5 0.15 0.00378726
0.151149 0.5 -0.525 0.00375588
0.151149 0.5 0.525 0.00375595
0.411736 0.5 -0.375 0.00377344
0.411736 0.5 0.375 0.00377259
0.075776 0.5 -0.5625 0.00375284
0.075776 0.5 0.5625 0.00375299
0.523432 0.5 -0.225 0.00378812
0.523432 0.5 0.225 0.00378719
0.574156 0.5 -0.0375 0.00379644
0.574156 0.5 0.0375 0.00379627
0.467897 0.5 0.3375 0.00377853
0.467897 0.5 -0.3375 0.00377959
0.574156 0.5 -0.1125 0.00379658
0.574156 0.5 0.1125 0.00379604
0 0.5 -0.593821 0.00375
0 0.5 0.593821 0.00375
0.0124865 0.5 -0.593821 0.00375047
0.0124865 0.5 0.593821 0.00375049
0.288069 0.5 -0.525 0.00376345
0.288069 0.5 0.525 0.00376322
0 0.5 -0.6 0.00375
0 0.5 0.6 0.00375
0.350249 0.5 -0.4875 0.00376757
0.350249 0.5 0.4875 0.00376703
0.523432 0.5 -0.3 0.0037883
0.523432 0.5 0.3 0.00378721
0.219992 0.5 -0.5625 0.00375906
0.219992 0.5 0.5625 0.00375911
0.574156 0.5 -0.1875 0.00379668
0.574156 0.5 0.1875 0.00379581
0 0.5 -0.606179 0.00375
0 0.5 0.606179 0.00375
0.0124865 0.5 -0.606179 0.0037505
0.0124865 0.5 0.606179 0.00375052
0.411736 0.5 -0.45 0.00377386
0.411736 0.5 0.45 0.00377308
0.151149 0.5 -0.6 0.00375621
0.151149 0.5 0.6 0.00375634
0.62168 0.5 2.64545e-17 0.00380705
0.467897 0.5 0.4125 0.00377888
0.467897 0.5 -0.4125 0.00377992
0.624316 0.5 0.0729402 0.00380753
0.624316 0.5 -0.075 0.00380784
0.574156 0.5 -0.2625 0.00379672
0.574157 0.5 0.2625 0.0037956
0.075776 0.5 -0.6375 0.00375301
0.075776 0.5 0.6375 0.00375317
0.624316 0.5 -0.15 0.00380782
0.624316 0.5 0.15 0.00380719
0.523432 0.5 -0.375 0.00378841
0.523432 0.5 0.375 0.00378731
0.350249 0.5 -0.5625 0.00376806
0.350249 0.5 0.5625 0.00376766
0.624316 0.5 -0.225 0.00380768
0.624316 0.5 0.225 0.00380679
0.288069 0.5 0.6 0.00376381
0.288069 0.5 -0.6 0.00376392
0.574156 0.5 -0.3375 0.00379667
0.574156 0.5 0.3375 0.00379548
0.411736 0.5 -0.525 0.00377421
0.411736 0.5 0.525 0.00377357
0 0.5 -0.668821 0.00375
0 0.5 0.668821 0.00375
0.0124865 0.5 -0.668821 0.0037505
0.0124865 0.5 0.668821 0.00375052
0.67013 0.5 0.0375 0.00381849
0.67013 0.5 -0.0375 0.00381861
0.219993 0.5 -0.6375 0.00375952
0.219993 0.5 0.6375 0.00375966
0 0.5 -0.675 0.00375
0 0.5 0.675 0.00375
0.467897 0.5 0.4875 0.00377925
0.467897 0.5 -0.4875 0.00378016
0.67013 0.5 -0.1125 0.00381855
0.67013 0.5 0.1125 0.00381814
0 0.5 -0.681179 0.00375
0 0.5 0.681179 0.00375
0.0124865 0.5 -0.681179 0.00375052
0.0124865 0.5 0.681179 0.00375055
0.523432 0.5 -0.45 0.0037884
0.523432 0.5 0.45 0.00378743
0.151149 0.5 -0.675 0.0037565
0.151149 0.5 0.675 0.00375669
0.624316 0.5 -0.3 0.00380739
0.624316 0.5 0.3 0.00380637
0.67013 0.5 0.1875 0.00381761
0.67013 0.5 -0.1875 0.00381831
0.574156 0.5 -0.4125 0.00379648
0.574157 0.5 0.4125 0.00379539
0.708171 0.5 1.88651e-17 0.00382957
0.075776 0.5 -0.7125 0.00375315
0.075776 0.5 0.7125 0.00375332
0.715434 0.5 0.0736268 0.00383121
0.715434 0.5 -0.075 0.00383165
0.67013 0.5 0.2625 0.00381698
0.67013 0.5 -0.2625 0.00381788
0.350249 0.5 -0.6375 0.00376846
0.350249 0.5 0.6375 0.00376825
0.411736 0.5 -0.6 0.00377445
0.411736 0.5 0.6 0.00377403
0.624316 0.5 -0.375 0.0038069
0.624316 0.5 0.375 0.00380597
0.715434 0.5 -0.15 0.0038313
0.715434 0.5 0.15 0.00383095
0.467897 0.5 -0.5625 0.00378028
0.467897 0.5 0.5625 0.0037796
0.288069 0.5 -0.675 0.0037643
0.288069 0.5 0.675 0.00376435
0.523432 0.5 -0.525 0.00378826
0.523432 0.5 0.525 0.00378752
0 0.5 -0.743821 0.00375
0 0.5 0.743821 0.00375
0.0124865 0.5 -0.743821 0.00375052
0.0124865 0.5 0.743821 0.00375055
0.219992 0.5 0.7125 0.00376014
0.219992 0.5 -0.7125 0.0037599
0.715434 0.5 -0.225 0.00383067
0.715434 0.5 0.225 0.00383017
0 0.5 -0.75 0.00375
0 0.5 0.75 0.00375
0.67013 0.5 0.3375 0.00381629
0.67013 0.5 -0.3375 0.00381717
0.574156 0.5 -0.4875 0.00379612
0.574156 0.5 0.4875 0.00379526
0 0.5 -0.756179 0.00375
0 0.5 0.756179 0.00375
0.0124865 0.5 -0.756179 0.00375054
0.0124865 0.5 0.756179 0.00375057
0.756813 0.5 -0.0375 0.00384427
0.756813 0.5 0.0375 0.00384425
0.151149 0.5 -0.75 0.00375674
0.151149 0.5 0.75 0.00375698
0.756813 0.5 -0.1125 0.00384392
0.756813 0.5 0.1125 0.00384381
0.624316 0.5 -0.45 0.00380622
0.624316 0.5 0.45 0.00380554
0.715434 0.5 -0.3 0.00382972
0.715434 0.5 0.3 0.00382923
0.756813 0.5 0.1875 0.00384299
0.756813 0.5 -0.1875 0.00384319
0.67013 0.5 -0.4125 0.00381623
0.67013 0.5 0.4125 0.00381562
0.411736 0.5 -0.675 0.00377457
0.411736 0.5 0.675 0.00377444
0.467897 0.5 0.6375 0.0037799
0.467897 0.5 -0.6375 0.00378027
0.075776 0.5 -0.7875 0.00375325
0.075776 0.5 0.7875 0.00375344
0.350249 0.5 -0.7125 0.00376874
0.350249 0.5 0.7125 0.00376877
0.523432 0.5 -0.6 0.00378796
0.523432 0.5 0.6 0.00378757
0.797732 0.5 2.68882e-17 0.00385888
0.756813 0.5 -0.2625 0.00384209
0.756814 0.5 0.2625 0.00384189
0.797732 0.5 0.0736268 0.00385856
0.797732 0.5 -0.075 0.00385856
0.288069 0.5 -0.75 0.00376457
0.288069 0.5 0.75 0.0037648
0.574156 0.5 -0.5625 0.00379558
0.574157 0.5 0.5625 0.00379508
0.715434 0.5 -0.375 0.00382845
0.715434 0.5 0.375 0.00382819
0.797732 0.5 -0.15 0.00385774
0.797732 0.5 0.15 0.00385795
0.624316 0.5 -0.525 0.00380532
0.624316 0.5 0.525 0.00380502
0.219992 0.5 -0.7875 0.00376019
0.219992 0.5 0.7875 0.00376054
0 0.5 -0.818821 0.00375
0 0.5 0.818821 0.00375
0.0124865 0.5 0.818821 0.00375057
0.0124865 0.5 -0.818821 0.00375054
0 0.5 -0.825 0.00375
0 0.5 0.825 0.00375
0.756813 0.5 0.3375 0.00384056
0.756814 0.5 -0.3375 0.00384058
0.67013 0.5 -0.4875 0.00381502
0.67013 0.5 0.4875 0.00381482
0.797732 0.5 -0.225 0.00385644
0.797732 0.5 0.225 0.00385676
0 0.5 -0.831179 0.00375
0 0.5 0.831179 0.00375
0.0124865 0.5 -0.831179 0.00375055
0.0124865 0.5 0.831179 0.00375058
0.835106 0.5 0.0375 0.00387297
0.835106 0.5 -0.0375 0.0038728
0.151149 0.5 -0.825 0.00375691
0.151149 0.5 0.825 0.00375721
0.835106 0.5 0.1125 0.00387245
0.835106 0.5 -0.1125 0.00387202
0.715434 0.5 -0.45 0.00382686
0.715434 0.5 0.45 0.00382705
0.797732 0.5 -0.3 0.0038547
0.797732 0.5 0.3 0.00385522
0.467897 0.5 0.7125 0.00378013
0.467897 0.5 -0.7125 0.00378011
0.523432 0.5 -0.675 0.0037875
0.523432 0.5 0.675 0.00378754
0.411736 0.5 -0.75 0.00377456
0.411736 0.5 0.75 0.00377476
0.835106 0.5 -0.1875 0.00387062
0.835106 0.5 0.1875 0.00387129
0.574156 0.5 -0.6375 0.00379485
0.574157 0.5 0.6375 0.00379482
0.350249 0.5 -0.7875 0.0037689
0.350249 0.5 0.7875 0.00376919
0.756813 0.5 -0.4125 0.00383869
0.756814 0.5 0.4125 0.00383911
0.075776 0.5 -0.8625 0.00375332
0.075776 0.5 0.8625 0.00375353
0.624316 0.5 0.6 0.0038044
0.624316 0.5 -0.6 0.0038042
0.872064 0.5 5.91974e-17 0.00388856
0.870122 0.5 0.075 0.00388749
0.288069 0.5 -0.825 0.00376474
0.288069 0.5 0.825 0.00376515
0.67013 0.5 -0.5625 0.00381357
0.67013 0.5 0.5625 0.00381389
0.872064 0.5 -0.075 0.00388796
0.835106 0.5 -0.2625 0.00386868
0.835106 0.5 0.2625 0.00386962
0.797732 0.5 -0.375 0.00385248
0.797732 0.5 0.375 0.00385342
0.872064 0.5 0.14794 0.00388764
0.872064 0.5 -0.15 0.00388668
0.715434 0.5 -0.525 0.00382497
0.715434 0.5 0.525 0.00382575
0.219992 0.5 0.8625 0.00376085
0.219993 0.5 -0.8625 0.00376038
0 0.5 -0.893821 0.00375
0 0.5 0.893821 0.00375
0.0124865 0.5 -0.893821 0.00375055
0.0124865 0.5 0.893821 0.00375058
0 0.5 -0.9 0.00375
0 0.5 0.9 0.00375
0.756813 0.5 -0.4875 0.00383644
0.756813 0.5 0.4875 0.00383752
0.872064 0.5 -0.225 0.0038847
0.872064 0.5 0.225 0.00388615
0.835106 0.5 -0.3375 0.0038663
0.835106 0.5 0.3375 0.00386758
0 0.5 0.906179 0.00375
0 0.5 -0.906179 0.00375
0.0124865 0.5 -0.906179 0.00375056
0.0124865 0.5 0.906179 0.00375059
0.90582 0.5 -0.0375 0.00390345
0.90582 0.5 0.0375 0.00390382
0.151149 0.5 -0.9 0.00375701
0.151149 0.5 0.9 0.00375737
0.90582 0.5 -0.1125 0.00390236
0.905821 0.5 0.1125 0.0039034
0.523432 0.5 -0.75 0.00378688
0.523432 0.5 0.75 0.00378742
0.574156 0.5 -0.7125 0.00379396
0.574156 0.5 0.7125 0.00379448
0.797732 0.5 -0.45 0.0038498
0.797732 0.5 0.45 0.00385144
0.467897 0.5 0.7875 0.00378025
0.467897 0.5 -0.7875 0.0037798
0.624316 0.5 -0.675 0.00380289
0.624316 0.5 0.675 0.00380369
0.411736 0.5 -0.825 0.0037744
0.411736 0.5 0.825 0.00377496
0.872064 0.5 0.3 0.00388403
0.872064 0.5 -0.3 0.00388205
0.67013 0.5 -0.6375 0.00381188
0.67013 0.5 0.6375 0.00381285
0.90582 0.5 0.1875 0.00390221
0.905821 0.5 -0.1875 0.00390052
0.350249 0.5 -0.8625 0.00376892
0.350249 0.5 0.8625 0.00376949
0.835106 0.5 -0.4125 0.00386326
0.835106 0.5 0.4125 0.00386524
0.715434 0.5 -0.6 0.00382281
0.715434 0.5 0.6 0.00382428
0.939201 0.5 2.75387e-17 0.00391916
0.075776 0.5 0.9375 0.00375358
0.075776 0.5 -0.9375 0.00375336
0.939111 0.5 0.075 0.0039192
0.939201 0.5 -0.075 0.00391828
0.756813 0.5 0.5625 0.00383569
0.756814 0.5 -0.5625 0.00383385
0.90582 0.5 0.2625 0.00390025
0.905821 0.5 -0.2625 0.00389782
0.288069 0.5 -0.9 0.00376479
0.288069 0.5 0.9 0.0037654
0.872064 0.5 -0.375 0.00387872
0.872064 0.5 0.375 0.00388138
0.939201 0.5 0.148627 0.00391835
0.939201 0.5 -0.15 0.00391661
0.797732 0.5 -0.525 0.00384673
0.797732 0.5 0.525 0.00384923
0.219992 0.5 0.9375 0.00376105
0.219992 0.5 -0.9375 0.00376048
0.939201 0.5 -0.225 0.00391406
0.939201 0.5 0.225 0.00391687
0.905821 0.5 -0.3375 0.00389427
0.90582 0.5 0.3375 0.00389746
0.835106 0.5 -0.4875 0.00385977
0.835106 0.5 0.4875 0.00386274
0 0.5 0.968821 0.00375
0 0.5 -0.968821 0.00375
0.0124865 0.5 -0.968821 0.00375056
0.0124865 0.5 0.968821 0.00375059
0.969689 0.5 -0.0375 0.00393385
0.969689 0.5 0.0375 0.00393446
0.574156 0.5 -0.7875 0.00379289
0.574156 0.5 0.7875 0.00379403
0 0.5 -0.975 0.00375
0 0.5 0.975 0.00375
0.624316 0.5 -0.75 0.0038014
0.624316 0.5 0.75 0.00380288
0.969689 0.5 -0.1125 0.00393242
0.96969 0.5 0.1125 0.00393417
0.523432 0.5 -0.825 0.00378611
0.523432 0.5 0.825 0.00378719
0.67013 0.5 0.7125 0.00381169
0.67013 0.5 -0.7125 0.00380999
0 0.5 -0.981179 0.00375
0 0.5 0.981179 0.00375
0.467897 0.5 0.8625 0.00378025
0.467897 0.5 -0.8625 0.00377934
0.0124865 0.5 -0.981179 0.00375056
0.0124865 0.5 0.981179 0.0037506
0.872064 0.5 -0.45 0.00387482
0.872064 0.5 0.45 0.00387842
0.715434 0.5 -0.675 0.00382041
0.715434 0.5 0.675 0.00382267
0.939201 0.5 -0.3 0.00391058
0.939201 0.5 0.3 0.00391439
0.151149 0.5 0.975 0.00375747
0.151149 0.5 -0.975 0.00375705
0.969689 0.5 -0.1875 0.0039301
0.969689 0.5 0.1875 0.003933
0.756813 0.5 -0.6375 0.00383098
0.756813 0.5 0.6375 0.00383367
0.411736 0.5 -0.9 0.00377411
0.411736 0.5 0.9 0.00377504
0.90582 0.5 -0.4125 0.00389
0.90582 0.5 0.4125 0.00389408
0.995005 0.5 0.0749309 0.00394584
0.797732 0.5 -0.6 0.00384333
0.797732 0.5 0.6 0.00384675
1.00005 0.5 -8.47123e-18 0.00394816
0.350249 0.5 -0.9375 0.00376881
0.350249 0.5 0.9375 0.00376965
1.00005 0.5 -0.0749309 0.00394702
0.969689 0.5 -0.2625 0.00392679
0.969689 0.5 0.2625 0.00393094
0.835106 0.5 -0.5625 0.00385588
0.835106 0.5 0.5625 0.00385989
1.00005 0.5 -0.149862 0.003945
0.939201 0.5 -0.375 0.00390614
0.939201 0.5 0.375 0.00391105
1.00029 0.5 0.148988 0.00394744
0.075776 0.5 -1.0125 0.00375338
0.075776 0.5 1.0125 0.0037536
0.288069 0.5 0.975 0.00376552
0.288069 0.5 -0.975 0.00376472
0.872064 0.5 -0.525 0.00387043
0.872064 0.5 0.525 0.00387519
1.00005 0.5 0.224793 0.00394615
1.00005 0.5 -0.224793 0.00394201
0.969689 0.5 0.3375 0.00392786
0.96969 0.5 -0.3375 0.00392243
1.0271 0.5 -0.0368226 0.00396309
1.0271 0.5 0.0368226 0.0039639
0.90582 0.5 0.4875 0.00389051
0.905821 0.5 -0.4875 0.00388523
1.0271 0.5 -0.110468 0.00396139
1.0271 0.5 0.110468 0.00396537
0.67013 0.5 0.7875 0.00381043
0.67013 0.5 -0.7875 0.00380793
0.624316 0.5 0.825 0.00380195
0.624316 0.5 -0.825 0.00379974
0.219993 0.5 -1.0125 0.00376049
0.219993 0.5 1.0125 0.00376115
0.574156 0.5 -0.8625 0.00379167
0.574156 0.5 0.8625 0.00379346
0.715434 0.5 -0.75 0.00381781
0.715434 0.5 0.75 0.00382094
0.756813 0.5 0.7125 0.0038315
0.756814 0.5 -0.7125 0.00382788
0.523432 0.5 -0.9 0.00378518
0.523432 0.5 0.9 0.00378683
0.939201 0.5 -0.45 0.00390083
0.939201 0.5 0.45 0.00390706
1.04168 0.5 0 0.00397139
1.0271 0.5 -0.184113 0.00395874
1.0271 0.5 0.184113 0.00396273
0 0.5 -1.04382 0.00375
0 0.5 1.04382 0.00375
0.0124865 0.5 -1.04382 0.00375056
0.0124865 0.5 1.04382 0.0037506
1.00005 0.5 -0.299723 0.00393797
1.00005 0.5 0.299723 0.0039436
1.04168 0.5 -0.0729162 0.00397007
1.04168 0.5 0.0729162 0.00397179
0.797732 0.5 -0.675 0.00383964
0.797732 0.5 0.675 0.00384407
0.467897 0.5 0.9375 0.00378011
0.467897 0.5 -0.9375 0.00377873
0 0.5 -1.05 0.00375
0 0.5 1.05 0.00375
0.835106 0.5 -0.6375 0.00385166
0.835106 0.5 0.6375 0.00385674
1.04168 0.5 -0.145832 0.00396781
1.04168 0.5 0.145832 0.00397125
0.969689 0.5 -0.4125 0.00391692
0.96969 0.5 0.4125 0.00392376
0 0.5 -1.05618 0.00375
0 0.5 1.05618 0.00375
0.0124865 0.5 -1.05618 0.00375056
0.0124865 0.5 1.05618 0.00375059
1.05695 0.5 -0.0360764 0.00397889
1.05695 0.5 0.0360764 0.0039798
0.411736 0.5 -0.975 0.00377367
0.411736 0.5 0.975 0.00377497
0.872064 0.5 -0.6 0.00386557
0.872064 0.5 0.6 0.0038716
1.0271 0.5 -0.257759 0.00395506
1.0271 0.5 0.257759 0.00396073
0.151149 0.5 -1.05 0.00375702
0.151149 0.5 1.05 0.0037575
1.05695 0.5 0.108229 0.00398143
1.05695 0.5 -0.108229 0.00397702
1.04168 0.5 -0.218749 0.00396457
1.04168 0.5 0.218749 0.00396976
0.90582 0.5 -0.5625 0.00387987
0.905821 0.5 0.5625 0.00388654
1.00005 0.5 -0.374654 0.00393279
1.00005 0.5 0.374654 0.00394
0.350249 0.5 1.0125 0.00376968
0.350249 0.5 -1.0125 0.00376857
1.05695 0.5 -0.180382 0.00397421
1.05695 0.5 0.180382 0.00397883
1.07319 0.5 0.0709442 0.00398944
0.939201 0.5 -0.525 0.00389486
0.939201 0.5 0.525 0.0039026
1.0271 0.5 -0.331404 0.00395028
1.0271 0.5 0.331404 0.00395771
1.08112 0.5 3.23815e-17 0.00399333
1.04168 0.5 -0.291665 0.00396025
1.04168 0.5 0.291665 0.00396728
1.08112 0.5 -0.0709442 0.00399182
0.969689 0.5 -0.4875 0.00391028
0.96969 0.5 0.4875 0.0039189
1.05695 0.5 0.252535 0.00397689
1.05695 0.5 -0.252535 0.00397035
0.288069 0.5 -1.05 0.00376454
0.288069 0.5 1.05 0.00376553
0.075776 0.5 -1.0875 0.00375336
0.075776 0.5 1.0875 0.0037536
1.08112 0.5 -0.141888 0.00398934
1.08145 0.5 0.140165 0.00399296
0.715434 0.5 0.825 0.00381908
0.715434 0.5 -0.825 0.00381505
0.756813 0.5 0.7875 0.0038292
0.756814 0.5 -0.7875 0.0038246
0.67013 0.5 -0.8625 0.00380571
0.67013 0.5 0.8625 0.00380904
0.797732 0.5 -0.75 0.00383573
0.797732 0.5 0.75 0.00384123
0.624316 0.5 -0.9 0.00379794
0.624316 0.5 0.9 0.0038009
1.00005 0.5 -0.449585 0.00392637
1.00005 0.5 0.449585 0.00393542
0.835106 0.5 -0.7125 0.00384716
0.835106 0.5 0.7125 0.00385339
0.574156 0.5 -0.9375 0.0037903
0.574157 0.5 0.9375 0.00379275
1.10076 0.5 -0.0349809 0.00400432
1.10076 0.5 0.0349809 0.00400541
1.08112 0.5 -0.212832 0.00398585
1.08112 0.5 0.212832 0.00399209
0.872064 0.5 -0.675 0.00386038
0.872064 0.5 0.675 0.00386771
1.04168 0.5 -0.364581 0.00395476
1.04168 0.5 0.364581 0.00396373
1.0271 0.5 0.405049 0.00395357
1.0271 0.5 -0.405049 0.00394425
1.05695 0.5 -0.324688 0.00396537
1.05695 0.5 0.324688 0.00397394
1.10076 0.5 -0.104943 0.00400221
1.10076 0.5 0.104943 0.00400558
0.523432 0.5 0.975 0.00378632
0.523432 0.5 -0.975 0.00378411
0.90582 0.5 0.6375 0.00388221
0.905821 0.5 -0.6375 0.00387398
0.219992 0.5 1.0875 0.00376115
0.219992 0.5 -1.0875 0.00376039
1.11376 0.5 3.81639e-17 0.00401274
0.939201 0.5 0.6 0.00389767
0.939201 0.5 -0.6 0.00388847
1.10076 0.5 -0.174905 0.00399912
1.10076 0.5 0.174905 0.00400474
0.467897 0.5 -1.0125 0.00377797
0.467897 0.5 1.0125 0.00377982
1.11376 0.5 -0.0693118 0.00401107
1.11376 0.5 0.0693118 0.00401343
1.08112 0.5 0.283777 0.00398969
1.08112 0.5 -0.283777 0.00398127
0 0.5 -1.11882 0.00375
0 0.5 1.11882 0.00375
0.0124865 0.5 -1.11882 0.00375056
0.0124865 0.5 1.11882 0.00375059
0.969689 0.5 -0.5625 0.00390323
0.969689 0.5 0.5625 0.00391347
1.11376 0.5 0.138624 0.00401307
1.11376 0.5 -0.138624 0.00400838
0 0.5 -1.125 0.00375
0 0.5 1.125 0.00375
1.10076 0.5 0.244866 0.0040029
1.10076 0.5 -0.244866 0.00399498
0.411736 0.5 -1.05 0.00377309
0.411736 0.5 1.05 0.00377477
1.05695 0.5 -0.396841 0.00395916
1.05695 0.5 0.396841 0.00396987
1.00005 0.5 -0.524516 0.00391916
1.00005 0.5 0.524516 0.00393007
1.04168 0.5 -0.437497 0.00394798
1.04168 0.5 0.437497 0.00395911
0 0.5 -1.13118 0.00375
0 0.5 1.13118 0.00375
0.0124865 0.5 -1.13118 0.00375055
0.0124865 0.5 1.13118 0.00375059
1.11376 0.5 -0.207935 0.00400467
1.11376 0.5 0.207935 0.00401184
1.0271 0.5 -0.478694 0.00393699
1.0271 0.5 0.478694 0.00394847
0.151149 0.5 -1.125 0.00375693
0.151149 0.5 1.125 0.00375746
1.08112 0.5 -0.354722 0.00397552
1.08112 0.5 0.354722 0.00398624
1.13882 0.5 -0.0340295 0.00402765
1.13882 0.5 0.0340295 0.00402892
0.350249 0.5 -1.0875 0.0037682
0.350249 0.5 1.0875 0.00376958
1.13882 0.5 -0.102088 0.00402529
1.13882 0.5 0.102088 0.00403014
1.10076 0.5 -0.314829 0.00398971
1.10076 0.5 0.314829 0.00400005
0.756813 0.5 -0.8625 0.00382117
0.756814 0.5 0.8625 0.00382678
0.797732 0.5 -0.825 0.00383167
0.797732 0.5 0.825 0.00383826
1.11376 0.5 -0.277247 0.00399987
1.11376 0.5 0.277247 0.00400951
0.835106 0.5 0.7875 0.00384989
0.835106 0.5 -0.7875 0.00384248
0.715434 0.5 -0.9 0.00381215
0.715434 0.5 0.9 0.00381711
0.872064 0.5 -0.75 0.00385497
0.872064 0.5 0.75 0.00386358
1.13882 0.5 0.170147 0.00402853
1.13882 0.5 -0.170147 0.00402193
0.67013 0.5 -0.9375 0.00380337
0.67013 0.5 0.9375 0.00380754
0.905821 0.5 -0.7125 0.00386788
0.905821 0.5 0.7125 0.00387754
1.05695 0.5 0.468994 0.00396476
1.05695 0.5 -0.468994 0.00395164
0.939201 0.5 -0.675 0.00388171
0.939201 0.5 0.675 0.00389242
0.624316 0.5 0.975 0.00379971
0.624316 0.5 -0.975 0.003796
1.04168 0.5 -0.510414 0.00394034
1.04168 0.5 0.510414 0.0039536
0.969689 0.5 -0.6375 0.00389601
0.96969 0.5 0.6375 0.00390753
0.288069 0.5 -1.125 0.00376424
0.288069 0.5 1.125 0.00376541
1.16179 0.5 5.78241e-19 0.00404361
1.08112 0.5 0.425666 0.00398168
1.08112 0.5 -0.425666 0.00396847
1.13882 0.5 -0.238206 0.00401749
1.13882 0.5 0.238206 0.00402678
1.16179 0.5 0.0669104 0.00404699
1.16179 0.5 -0.0669104 0.00404164
0.574156 0.5 -1.0125 0.00378879
0.574156 0.5 1.0125 0.0037919
0.075776 0.5 -1.1625 0.00375331
0.075776 0.5 1.1625 0.00375355
1.00005 0.5 -0.599447 0.00391151
1.00005 0.5 0.599447 0.00392394
1.10076 0.5 0.384791 0.00399608
1.10076 0.5 -0.384791 0.00398321
1.0271 0.5 -0.55234 0.00392924
1.0271 0.5 0.55234 0.00394257
1.11376 0.5 -0.346559 0.00399388
1.11376 0.5 0.346559 0.00400612
1.16179 0.5 -0.133821 0.0040386
1.16179 0.5 0.133821 0.00404476
0.523432 0.5 -1.05 0.0037829
0.523432 0.5 1.05 0.00378567
1.17463 0.5 -0.0331343 0.00405078
1.17463 0.5 0.0331343 0.00405222
1.17463 0.5 -0.0994029 0.00404817
1.17463 0.5 0.0994029 0.00405268
1.16179 0.5 -0.200731 0.0040345
1.16179 0.5 0.200731 0.00404325
1.13882 0.5 -0.306265 0.00401192
1.13882 0.5 0.306265 0.00402399
0.219992 0.5 -1.1625 0.00376019
0.219992 0.5 1.1625 0.00376104
0.467897 0.5 -1.0875 0.00377708
0.467897 0.5 1.0875 0.00377938
1.17463 0.5 0.165672 0.0040521
1.17463 0.5 -0.165672 0.00404452
1.05695 0.5 -0.541147 0.00394367
1.05695 0.5 0.541147 0.00395884
1.18772 0.5 -5.78241e-19 0.00406052
1.11376 0.5 -0.41587 0.0039866
1.11376 0.5 0.41587 0.00400162
1.18772 0.5 -0.065614 0.0040584
1.18772 0.5 0.065614 0.00406157
1.08112 0.5 -0.49661 0.00396053
1.08112 0.5 0.49661 0.00397616
1.10076 0.5 -0.454752 0.00397535
1.10076 0.5 0.454752 0.003991
1.18534 0.5 0.118202 0.00406153
1.16179 0.5 -0.267642 0.00402929
1.16179 0.5 0.267642 0.00404102
0 0.5 -1.19382 0.00375
0 0.5 1.19382 0.00375
0.0124865 0.5 1.19382 0.00375059
0.0124865 0.5 -1.19382 0.00375055
1.04168 0.5 -0.58333 0.00393213
1.04168 0.5 0.58333 0.00394711
1.18772 0.5 -0.131228 0.00405516
1.17463 0.5 -0.23194 0.0040398
1.17463 0.5 0.23194 0.00405043
0.411736 0.5 -1.125 0.0037724
0.411736 0.5 1.125 0.00377444
1.13882 0.5 -0.374324 0.00400512
1.13882 0.5 0.374324 0.00402009
0 0.5 -1.2 0.00375
0 0.5 1.2 0.00375
0.905821 0.5 0.7875 0.0038726
0.905821 0.5 -0.7875 0.00386157
0.872064 0.5 -0.825 0.0038494
0.872064 0.5 0.825 0.00385929
0.835106 0.5 0.8625 0.00384628
0.835106 0.5 -0.8625 0.00383766
0.939201 0.5 -0.75 0.00387468
0.939201 0.5 0.75 0.00388697
0.797732 0.5 -0.9 0.00382748
0.797732 0.5 0.9 0.00383518
1.0271 0.5 0.625985 0.00393558
1.0271 0.5 -0.625985 0.00392079
0.969689 0.5 0.7125 0.00390156
0.96969 0.5 -0.7125 0.00388825
1.18772 0.5 -0.196842 0.00405085
1.18772 0.5 0.196842 0.00406044
0.756814 0.5 -0.9375 0.00381762
0.756814 0.5 0.9375 0.00382426
0 0.5 1.20618 0.00375
0 0.5 -1.20618 0.00375
1.00005 0.5 -0.674378 0.00390328
1.00005 0.5 0.674378 0.00391737
0.0124865 0.5 1.20618 0.00375058
0.0124865 0.5 -1.20618 0.00375053
1.16179 0.5 -0.334552 0.0040229
1.16179 0.5 0.334552 0.00403771
0.715434 0.5 0.975 0.00381503
0.715434 0.5 -0.975 0.00380913
0.151149 0.5 -1.2 0.00375677
0.151149 0.5 1.2 0.00375735
1.20942 0.5 0.0322645 0.00407686
1.20942 0.5 -0.0322645 0.00407489
1.17463 0.5 -0.298209 0.00403391
1.17463 0.5 0.298209 0.00404768
1.20942 0.5 -0.0967935 0.00407201
1.20942 0.5 0.0967935 0.00407715
0.350249 0.5 -1.1625 0.00376771
0.350249 0.5 1.1625 0.00376936
0.67013 0.5 1.0125 0.0038059
0.67013 0.5 -1.0125 0.00380089
1.11376 0.5 0.485183 0.00399612
1.11376 0.5 -0.485183 0.00397842
1.18772 0.5 0.262456 0.00405824
1.18772 0.5 -0.262456 0.00404541
1.10076 0.5 -0.524714 0.00396706
1.10076 0.5 0.524714 0.00398507
1.20942 0.5 -0.161322 0.00406805
1.20942 0.5 0.161322 0.0040767
1.08112 0.5 -0.567554 0.00395203
1.08112 0.5 0.567554 0.00396964
0.624316 0.5 -1.05 0.00379395
0.624316 0.5 1.05 0.00379839
1.13882 0.5 -0.442383 0.00399699
1.13882 0.5 0.442383 0.00401507
1.05695 0.5 0.6133 0.00395173
1.05695 0.5 -0.6133 0.00393496
1.16179 0.5 -0.401463 0.0040152
1.16179 0.5 0.401463 0.00403327
0.574156 0.5 -1.0875 0.00378718
0.574156 0.5 1.0875 0.00379091
1.17463 0.5 0.364477 0.00404383
1.17463 0.5 -0.364477 0.00402682
1.20942 0.5 -0.225851 0.00406299
1.20942 0.5 0.225851 0.0040751
1.23036 0.5 -1.32995e-17 0.00409161
1.2294 0.5 0.0634819 0.00409253
1.04168 0.5 -0.656246 0.00392315
1.04168 0.5 0.656246 0.00393987
1.23036 0.5 -0.0634819 0.00408916
1.18772 0.5 0.32807 0.00405495
1.18772 0.5 -0.32807 0.00403879
0.288069 0.5 -1.2 0.00376384
0.288069 0.5 1.2 0.00376518
1.23036 0.5 -0.126964 0.00408552
1.23036 0.5 0.126964 0.00409304
0.075776 0.5 -1.2375 0.00375323
0.075776 0.5 1.2375 0.00375347
0.523432 0.5 -1.125 0.0037816
0.523432 0.5 1.125 0.00378491
1.0271 0.5 -0.69963 0.00391158
1.0271 0.5 0.69963 0.00392836
1.24274 0.5 0.0314313 0.00410146
1.24274 0.5 -0.0314313 0.00409958
1.20942 0.5 0.29038 0.00407238
1.20942 0.5 -0.29038 0.00405674
1.11376 0.5 -0.554494 0.00396969
1.11376 0.5 0.554494 0.00398961
1.23036 0.5 -0.190445 0.00408077
1.23036 0.5 0.190445 0.00409209
1.24274 0.5 -0.0942942 0.00409642
1.24274 0.5 0.0942942 0.00410221
1.13882 0.5 0.510442 0.00400911
1.13882 0.5 -0.510442 0.00398838
0.969689 0.5 -0.7875 0.00388035
0.969689 0.5 0.7875 0.00389536
1.00005 0.5 -0.749309 0.00389467
1.00005 0.5 0.749309 0.00391064
0.939201 0.5 -0.825 0.00386752
0.939201 0.5 0.825 0.00388128
0.90582 0.5 0.8625 0.00386751
0.90582 0.5 -0.8625 0.00385515
1.17463 0.5 -0.430746 0.00401832
1.17463 0.5 0.430746 0.00403883
1.10076 0.5 -0.594676 0.00395808
1.10076 0.5 0.594676 0.00397797
1.18772 0.5 -0.393684 0.00403085
1.18772 0.5 0.393684 0.00405052
1.24274 0.5 -0.157157 0.0040921
1.24274 0.5 0.157157 0.00410189
1.16179 0.5 -0.468373 0.00400659
1.16179 0.5 0.468373 0.00402778
0.467897 0.5 -1.1625 0.0037761
0.467897 0.5 1.1625 0.00377885
0.872064 0.5 -0.9 0.00384373
0.872064 0.5 0.9 0.00385487
1.25401 0.5 2.08167e-17 0.00410879
0.835106 0.5 0.9375 0.00384257
0.835106 0.5 -0.9375 0.00383278
1.25401 0.5 -0.0622994 0.00410617
1.25401 0.5 0.0622994 0.00411037
1.08112 0.5 -0.638498 0.00394276
1.08112 0.5 0.638498 0.00396224
1.23036 0.5 -0.253927 0.00407486
1.23036 0.5 0.253927 0.00408997
0.219992 0.5 1.2375 0.00376083
0.219992 0.5 -1.2375 0.00375991
1.25309 0.5 0.121964 0.00411044
1.05695 0.5 0.685452 0.00394423
1.05695 0.5 -0.685452 0.00392546
0.797732 0.5 0.975 0.003832
0.797732 0.5 -0.975 0.00382323
1.25401 0.5 -0.124599 0.00410231
1.20942 0.5 -0.354909 0.00404929
1.20942 0.5 0.354909 0.00406854
1.24274 0.5 -0.220019 0.00408669
1.24274 0.5 0.220019 0.00410036
0.756814 0.5 -1.0125 0.00381398
0.756813 0.5 1.0125 0.00382163
1.25401 0.5 -0.186898 0.00409731
1.25401 0.5 0.186898 0.00410956
0.411736 0.5 -1.2 0.00377159
0.411736 0.5 1.2 0.00377399
0 0.5 -1.26882 0.00375
0 0.5 1.26882 0.00375
0.0124865 0.5 1.26882 0.00375058
0.0124865 0.5 -1.26882 0.00375053
0.715434 0.5 -1.05 0.00380604
0.715434 0.5 1.05 0.00381283
1.23036 0.5 -0.31741 0.00406774
1.23036 0.5 0.31741 0.0040867
1.04168 0.5 -0.729162 0.00391355
1.04168 0.5 0.729162 0.00393236
1.18772 0.5 -0.459298 0.00402199
1.18772 0.5 0.459298 0.00404501
1.24274 0.5 -0.282882 0.00408005
1.24274 0.5 0.282882 0.00409766
0 0.5 -1.275 0.00375
0 0.5 1.275 0.00375
1.27472 0.5 -0.0306319 0.00412504
1.27472 0.5 0.0306319 0.00412717
1.17463 0.5 0.497015 0.00403284
1.17463 0.5 -0.497015 0.00400937
1.11376 0.5 -0.623806 0.00396022
1.11376 0.5 0.623806 0.00398217
1.13882 0.5 -0.578501 0.00397912
1.13882 0.5 0.578501 0.00400208
0.67013 0.5 -1.0875 0.00379834
0.67013 0.5 1.0875 0.00380415
1.27472 0.5 -0.0918959 0.00412157
1.27472 0.5 0.0918959 0.00412496
1.25401 0.5 -0.249197 0.00409113
1.25401 0.5 0.249197 0.00410746
1.16179 0.5 -0.535284 0.00399745
1.16179 0.5 0.535284 0.00402127
1.20942 0.5 -0.419438 0.00404043
1.20942 0.5 0.419438 0.00406354
0 0.5 -1.28118 0.00375
0 0.5 1.28118 0.00375
0.0124865 0.5 1.28118 0.00375056
0.0124865 0.5 -1.28118 0.00375052
1.27472 0.5 0.15316 0.00412788
1.27472 0.5 -0.15316 0.00411688