# kMean  POINT_DATA 91129
# x  y  z  kMean
0 0 0 0.00560476
0 0.00368111 0 0.00375
0 0.00749587 0 0.00375
0 0.0114491 0 0.00375
0 0.0155459 0 0.00375
0 0.0197915 0 0.00375
0 0.0241911 0 0.00375
0 0.0287506 0 0.00375
0 0.0334755 0 0.00375
0 0.038372 0 0.00375
0 0.0434463 0 0.00375
0 0.0487048 0 0.00375
0 0.0541543 0 0.00375
0 0.0598016 0 0.00375
0 0.0656539 0 0.00375
0 0.0717187 0 0.00375
0.075776 0.00184055 0 0.00978147
0.075776 0.00558849 0 0.0034117
0.075776 0.00947248 -3.46945e-18 0.00305424
0.075776 0.0134975 -3.46945e-18 0.00342646
0.075776 0.0176687 3.46945e-18 0.00358838
0 0.0780037 0 0.00375
0.075776 0.0219913 3.46945e-18 0.00365116
0.075776 0.0264709 3.46945e-18 0.00368303
0.075776 0.031113 -3.46945e-18 0.00370137
0.075776 0.0359237 -3.46945e-18 0.003713
0 0.0845169 0 0.00375
0.075776 0.0409092 0 0.00372091
0.075776 0.0460755 -3.46945e-18 0.00372657
0 0.0912666 0 0.00375
0.075776 0.0514296 -3.46945e-18 0.00373079
0.075776 0.0569779 0 0.00373401
0 0.0982613 0 0.00375
0.075776 0.0627278 0 0.0037366
0.075776 0.0686863 0 0.0037388
0 0.10551 0 0.00375
0.075776 0.0748612 3.46945e-18 0.0037407
0.075776 0.0812603 -3.46945e-18 0.00374231
0 0.113022 0 0.00375
0.075776 0.0878918 3.46945e-18 0.00374367
0 0.120806 0 0.00375
0.075776 0.0947639 3.46945e-18 0.00374481
0.075776 0.101886 -3.46945e-18 0.00374576
0 0.128874 0 0.00375
0.075776 0.109266 3.46945e-18 0.00374655
0 0.137234 0 0.00375
0.075776 0.116914 3.46945e-18 0.0037472
0 0.145897 0 0.00375
0.075776 0.12484 0 0.00374773
0.151552 0 0 0.00610305
0.151552 0.00368111 0 0.00429601
0.151552 0.00749587 0 0.00258919
0.151552 0.0114491 0 0.00293615
0.151552 0.0155459 0 0.00330234
0.151552 0.0197915 0 0.00347812
0.075776 0.133054 0 0.00374818
0.151552 0.0241911 0 0.00356629
0.151552 0.0287506 0 0.00361821
0 0.154876 0 0.00375
0.151552 0.0334755 0 0.00365147
0.151552 0.038372 0 0.00367402
0.151552 0.0434463 0 0.00368998
0.151552 0.0487048 0 0.00370171
0.075776 0.141566 0 0.00374857
0.151552 0.0541543 0 0.0037106
0.151552 0.0598016 0 0.00371752
0 0.16418 0 0.00375
0.151552 0.0656539 0 0.00372307
0.151552 0.0717187 0 0.0037276
0.075776 0.150387 0 0.00374891
0.151552 0.0780037 0 0.00373134
0.151552 0.0845169 0 0.00373444
0 0.173822 0 0.00375
0.075776 0.159528 0 0.00374923
0.151552 0.0912666 0 0.00373702
0.151552 0.0982613 0 0.00373919
0 0.183814 0 0.00375
0.151552 0.10551 0 0.00374103
0.075776 0.169001 3.46945e-18 0.00374953
0.151552 0.113022 0 0.00374262
0.151552 0.120806 0 0.003744
0 0.194169 0 0.00375
0.075776 0.178818 3.46945e-18 0.00374983
0.151552 0.128874 0 0.00374517
0.075776 0.188992 3.46945e-18 0.00375013
0.151552 0.137234 0 0.00374616
0 0.2049 0 0.00375
0.151552 0.145897 0 0.00374699
0.075776 0.199535 0 0.00375042
0 0.21602 0 0.00375
0.151552 0.154876 0 0.0037477
0.219992 0.00184055 0 0.00270772
0.219992 0.00558849 0 0.001637
0.219992 0.00947248 -3.46945e-18 0.00235285
0.219992 0.0134975 3.46945e-18 0.00295786
0.219992 0.0176687 0 0.0032682
0.219992 0.0219913 0 0.00342654
0.219993 0.0264709 -3.46945e-18 0.00351994
0.219992 0.031113 -3.46945e-18 0.00357986
0.219992 0.0359238 3.46945e-18 0.00362024
0.151552 0.16418 0 0.00374831
0.075776 0.21046 0 0.00375071
0.219992 0.0409092 3.46945e-18 0.00364853
0.219992 0.0460755 0 0.00366909
0.219993 0.0514296 -3.46945e-18 0.00368452
0.219992 0.0569779 0 0.00369642
0 0.227544 0 0.00375
0.219992 0.0627277 3.46945e-18 0.0037058
0.219992 0.0686863 0 0.00371332
0.151552 0.173822 0 0.00374886
0.219992 0.0748612 3.46945e-18 0.00371944
0.075776 0.221782 0 0.003751
0.219992 0.0812603 3.46945e-18 0.00372447
0.219992 0.0878917 -3.46945e-18 0.00372863
0.151552 0.183814 0 0.00374936
7.47806e-17 0.239487 0 0.00375
0.219992 0.0947639 3.46945e-18 0.00373209
0.219993 0.101886 3.46945e-18 0.00373503
0.075776 0.233516 0 0.00375126
0.219993 0.109266 0 0.00373758
0.151552 0.194169 0 0.00374983
0.219993 0.116914 0 0.00373982
0 0.251863 0 0.00375
0.219993 0.12484 0 0.00374177
0.151552 0.2049 0 0.00375027
0.075776 0.245675 0 0.00375148
0.219992 0.133054 3.46945e-18 0.00374344
0.219992 0.141565 0 0.00374481
0.151552 0.21602 0 0.00375068
0 0.264688 0 0.00375
0.219992 0.150387 3.46945e-18 0.00374595
0.075776 0.258275 3.46945e-18 0.00375163
0.219992 0.159528 -3.46945e-18 0.00374691
0.151552 0.227544 0 0.00375107
0.219992 0.169001 3.46945e-18 0.00374773
0 0.27798 0 0.00375
0.075776 0.271334 3.46945e-18 0.00375172
0.151552 0.239487 3.70071e-18 0.00375142
0.219992 0.178818 3.46945e-18 0.00374846
0.288433 0 0 0.0018084
0.288433 0.00368111 0 0.00155336
0.288433 0.00749587 0 0.00178957
0.288433 0.0114491 0 0.00259582
0.288433 0.0155459 3.70071e-18 0.00306716
0.288433 0.0197915 0 0.00329555
0.288433 0.0241911 3.70071e-18 0.00341303
0.288433 0.0287506 0 0.00349167
0.219992 0.188991 0 0.00374912
0.288433 0.0334755 0 0.00354929
0.288433 0.038372 0 0.00359179
0.288433 0.0434463 0 0.00362352
7.47806e-17 0.291753 0 0.00375
0.288433 0.0487048 0 0.00364763
0.288433 0.0541543 0 0.00366632
0.151552 0.251863 0 0.00375171
0.288433 0.0598016 3.70071e-18 0.00368105
0.075776 0.284866 0 0.00375175
0.288433 0.0656539 3.70071e-18 0.00369284
0.219992 0.199534 0 0.00374972
0.288433 0.0717187 0 0.0037024
0.288433 0.0780037 0 0.00371022
0.288433 0.0845169 0 0.00371666
0.288433 0.0912666 0 0.00372204
0.219992 0.21046 -3.46945e-18 0.00375027
0.288433 0.0982613 0 0.00372671
0.151552 0.264688 3.70071e-18 0.00375196
0 0.306027 0 0.00375
0.288433 0.10551 0 0.00373085
0.075776 0.29889 3.46945e-18 0.00375173
0.288433 0.113022 0 0.00373454
0.219993 0.221782 0 0.00375078
0.288433 0.120806 0 0.00373777
0.288433 0.128874 0 0.00374057
0.151552 0.27798 0 0.00375216
0.288433 0.137234 0 0.00374297
0 0.320819 0 0.00375
0.219992 0.233515 -3.46945e-18 0.00375125
0.075776 0.313423 -3.46945e-18 0.00375168
0.288433 0.145897 0 0.00374502
0.288433 0.154876 0 0.00374675
0.151552 0.291753 0 0.00375231
0.219993 0.245675 0 0.00375167
0.288433 0.16418 0 0.00374821
0 0.336148 0 0.00375
0.288433 0.173822 0 0.00374945
0.075776 0.328484 -3.46945e-18 0.00375159
0.219993 0.258275 -3.46945e-18 0.00375206
0.151552 0.306027 0 0.00375242
0.288433 0.183814 0 0.0037505
0.288433 0.194169 0 0.00375139
0.219992 0.271334 3.46945e-18 0.0037524
0.350249 0.00184056 -3.46945e-18 0.00097523
0.350249 0.00558849 0 0.000984485
0.350249 0.00947248 3.46945e-18 0.00221415
0.350249 0.0134975 0 0.00286719
0.350249 0.0176687 0 0.00318212
0.350249 0.0219913 0 0.00331295
0.350249 0.0264708 3.46945e-18 0.00340152
0.350249 0.031113 0 0.00347393
0 0.352034 0 0.00375
0.350249 0.0359238 0 0.00353058
0.075776 0.344091 0 0.0037515
0.350249 0.0409091 0 0.00357407
0.350249 0.0460756 3.46945e-18 0.00360756
0.288433 0.2049 0 0.00375216
0.350249 0.0514296 0 0.00363364
0.151552 0.320819 0 0.0037525
0.350249 0.0569779 0 0.00365423
0.350249 0.0627277 3.46945e-18 0.00367069
0.350249 0.0686863 3.46945e-18 0.00368401
0.350249 0.0748612 3.46945e-18 0.00369488
0.350249 0.0812603 0 0.00370382
0.219992 0.284867 0 0.00375271
0.288433 0.21602 0 0.00375283
0.350249 0.0878917 0 0.00371118
0.350249 0.094764 0 0.00371749
0.350249 0.101886 0 0.00372321
0.350249 0.109266 0 0.00372839
0.288433 0.227544 0 0.00375343
0.075776 0.360265 3.46945e-18 0.00375146
0 0.368496 0 0.00375
0.151552 0.336148 0 0.00375257
0.350249 0.116914 3.46945e-18 0.00373296
0.219992 0.29889 0 0.00375297
0.370854 0.0241911 1.54074e-33 0.00336719
0.350249 0.12484 0 0.00373695
0.350249 0.133054 0 0.00374041
0.288433 0.239487 -9.25154e-19 0.00375396
0.350249 0.141566 3.46945e-18 0.0037434
0.350249 0.150387 3.46945e-18 0.00374596
0.288433 0.251863 0 0.00375444
0.219992 0.313423 0 0.0037532
0.151552 0.352034 0 0.00375265
0.075776 0.377027 0 0.0037515
0.350249 0.159528 0 0.00374813
0 0.385557 0 0.00375
0.350249 0.169001 0 0.00374995
0.288433 0.264688 0 0.00375489
0.350249 0.178818 0 0.00375146
0.219992 0.328484 0 0.00375341
0.350249 0.188992 0 0.0037527
0.151552 0.368496 0 0.00375277
0.288433 0.27798 3.70071e-18 0.00375532
0.075776 0.394397 0 0.00375159
0.350249 0.199535 0 0.00375374
7.47806e-17 0.403236 0 0.00375
0.219992 0.344091 0 0.00375361
0.350249 0.21046 -3.46945e-18 0.0037546
0.288433 0.291753 0 0.00375573
0.412065 9.08189e-19 3.08149e-33 0.000803558
0.412065 0.00368111 -2.31298e-18 0.000870198
0.412065 0.00749587 -2.31298e-18 0.00162238
0.412065 0.0114491 -2.31298e-18 0.00263232
0.412065 0.0155459 -2.31298e-18 0.00308394
0.412065 0.0197915 0 0.00326226
0.412065 0.0241911 -3.08149e-33 0.00334428
0.412065 0.0264709 0 0.00337542
0.412065 0.0287506 -2.31298e-18 0.00340655
0.412065 0.0334755 -2.31298e-18 0.00346622
0.412065 0.038372 -2.31298e-18 0.00351806
0.151552 0.385557 0 0.00375296
0.412065 0.0434463 0 0.00356052
0.350249 0.221782 0 0.00375534
0.412065 0.0487048 0 0.00359465
0.412065 0.0541543 -3.08149e-33 0.00362204
0.412065 0.0569779 0 0.00363308
0.412065 0.0598016 -2.31298e-18 0.00364413
0.412065 0.0656539 -2.31298e-18 0.00366205
0.412065 0.0717187 -2.31298e-18 0.00367667
0.075776 0.412396 -3.46945e-18 0.00375168
0.412065 0.0780037 -2.31298e-18 0.00368865
0.288433 0.306027 0 0.00375611
0.412065 0.0845169 -2.31298e-18 0.00369862
0.350249 0.233516 3.46945e-18 0.00375598
0 0.421557 0 0.00375
0.412065 0.0912666 -2.31298e-18 0.00370726
0.219992 0.360265 3.46945e-18 0.00375383
0.412065 0.0982613 0 0.00371503
0.412065 0.10551 0 0.00372209
0.412065 0.113022 -2.31298e-18 0.00372843
0.350249 0.245675 0 0.00375656
0.412065 0.120806 0 0.00373405
0.151552 0.403236 0 0.00375317
0.288433 0.320819 0 0.00375648
0.412065 0.128874 -2.31298e-18 0.00373899
0.412065 0.137234 0 0.00374329
0.350249 0.258275 -3.46945e-18 0.0037571
0.219992 0.377026 0 0.0037541
0.412065 0.145897 -2.31298e-18 0.003747
0.075776 0.431051 0 0.00375174
0.412065 0.154876 -2.31298e-18 0.00375017
0 0.440544 0 0.00375
0.288433 0.336148 0 0.00375684
0.350249 0.271334 0 0.00375763
0.412065 0.16418 -2.31298e-18 0.00375285
0.412065 0.173822 -2.31298e-18 0.00375511
0.151552 0.421557 0 0.00375337
0.412065 0.183814 -2.31298e-18 0.00375698
0.350249 0.284867 3.46945e-18 0.00375815
0.219992 0.394397 0 0.00375441
0.288433 0.352034 3.70071e-18 0.00375721
0.412065 0.194169 0 0.00375853
0.075776 0.450382 0 0.00375177
0.412065 0.2049 -2.31298e-18 0.00375981
0 0.46022 0 0.00375
0.350249 0.29889 3.46945e-18 0.00375866
0.412065 0.21602 0 0.00376087
0.151552 0.440544 0 0.00375357
0.219993 0.412396 3.46945e-18 0.00375475
0.467897 0.00184056 -3.46945e-18 0.000643864
0.467897 0.00558849 0 0.000892508
0.288433 0.368496 0 0.00375759
0.467897 0.00947248 0 0.00239518
0.467897 0.0134975 0 0.00304
0.467897 0.0176687 3.46945e-18 0.00323819
0.467897 0.0219913 -3.46945e-18 0.00331372
0.467897 0.0264709 3.46945e-18 0.00335074
0.467897 0.0311131 3.46945e-18 0.00340438
0.467897 0.0359238 -3.46945e-18 0.00346103
0.467897 0.038372 0 0.00349029
0.467897 0.0409092 3.46945e-18 0.00351133
0.350249 0.313423 0 0.00375917
0.467897 0.0460755 0 0.00355332
0.467897 0.0514296 3.46945e-18 0.00358767
0.412065 0.227544 -2.31298e-18 0.00376175
0.467897 0.0569779 0 0.00361566
0.467897 0.0627277 -3.46945e-18 0.00363849
0.467897 0.0686863 3.46945e-18 0.00365715
0.467897 0.0748612 0 0.00367243
0.467897 0.0812603 0 0.00368495
0.467897 0.0878918 3.46945e-18 0.00369576
0.075776 0.470415 3.46945e-18 0.00375179
0.412065 0.239487 -2.31298e-18 0.00376251
0.467897 0.0947639 -3.46945e-18 0.0037056
0.467897 0.101886 3.46945e-18 0.00371457
0.350249 0.328483 0 0.00375967
0.467897 0.109266 0 0.0037227
0 0.48061 0 0.00375
0.288433 0.385557 0 0.003758
0.467897 0.116914 0 0.00372999
0.412065 0.251863 -2.31298e-18 0.00376317
0.219992 0.431051 0 0.00375508
0.467897 0.12484 0 0.00373644
0.151552 0.46022 0 0.00375374
0.467897 0.133054 3.46945e-18 0.00374211
0.467897 0.141566 3.46945e-18 0.00374704
0.412065 0.264688 -2.31298e-18 0.00376378
0.350249 0.344091 -3.46945e-18 0.00376018
0.467897 0.150387 3.46945e-18 0.00375128
0.467897 0.154876 0 0.00375458
0.467897 0.159528 3.46945e-18 0.00375489
0.288433 0.403236 0 0.00375844
0.075776 0.491175 0 0.00375181
0.412065 0.27798 -2.31298e-18 0.00376435
0.467897 0.169001 0 0.00375792
0.467897 0.178818 3.46945e-18 0.00376048
0.219992 0.450382 0 0.0037554
6.73026e-17 0.501741 3.70071e-18 0.00375
0.350249 0.360265 0 0.00376069
0.151552 0.48061 0 0.00375389
0.467897 0.188991 0 0.00376261
0.412065 0.291753 0 0.0037649
0.467897 0.199535 0 0.00376435
0.288433 0.421557 0 0.0037589
0.467897 0.21046 0 0.00376577
0.412065 0.306027 0 0.00376544
0.350249 0.377027 0 0.00376121
0.467897 0.221782 3.46945e-18 0.00376694
0.075776 0.51269 0 0.00375183
0.219993 0.470415 3.46945e-18 0.00375569
0.467897 0.227544 0 0.00376917
0.412065 0.320819 -2.31298e-18 0.00376597
0.467897 0.233515 0 0.00376791
6.73026e-17 0.523639 3.70071e-18 0.00375
0.523729 0 0 0.00055446
0.523729 0.00368111 0 0.000709559
0.523729 0.00749587 -2.31298e-18 0.00169756
0.523729 0.0114491 0 0.00287541
0.523729 0.0155459 0 0.00328021
0.523729 0.0197915 -2.31298e-18 0.00334996
0.151552 0.501741 0 0.00375404
0.523729 0.0241911 0 0.00336035
0.523729 0.0287506 0 0.00337574
0.523729 0.0334755 0 0.00341437
0.523729 0.038372 -3.08149e-33 0.00346252
0.523729 0.0434463 0 0.00350869
0.523729 0.0487048 0 0.00354896
0.523729 0.0541543 0 0.00358287
0.288433 0.440544 0 0.00375935
0.523729 0.0598016 0 0.00361107
0.350249 0.394397 -3.46945e-18 0.00376174
0.523729 0.0656539 0 0.00363439
0.467897 0.245675 0 0.00376872
0.523729 0.0717187 0 0.0036536
0.523729 0.0780037 0 0.00366955
0.523729 0.0845169 0 0.0036833
0.523729 0.0912666 0 0.00369567
0.412065 0.336148 0 0.00376651
0.523729 0.0982613 0 0.00370698
0.523729 0.10551 -2.31298e-18 0.00371726
0.467897 0.258275 -3.46945e-18 0.00376943
0.523729 0.113022 0 0.00372653
0.523729 0.120806 -3.08149e-33 0.00373482
0.219993 0.491176 0 0.00375597
0.523729 0.12484 0 0.00373849
0.523729 0.128874 -2.31298e-18 0.00374216
0.075776 0.534986 0 0.00375186
0.467897 0.271334 3.46945e-18 0.00377007
0.350249 0.412396 -3.46945e-18 0.0037623
0.523729 0.137234 0 0.0037486
0.412065 0.352034 -2.31298e-18 0.00376705
0.288433 0.46022 0 0.00375978
0.523729 0.145897 0 0.00375419
0.151552 0.523639 0 0.00375419
0.523729 0.154876 -3.08149e-33 0.003759
0 0.546332 0 0.00375
0.523729 0.159528 0 0.00376104
0.467897 0.284867 -3.46945e-18 0.00377067
0.523729 0.16418 -2.31298e-18 0.00376308
0.523729 0.173822 0 0.00376653
0.412065 0.368496 0 0.0037676
0.523729 0.183814 0 0.00376941
0.467897 0.29889 0 0.00377124
0.350249 0.431051 -3.46945e-18 0.00376287
0.219992 0.51269 0 0.00375623
0.523729 0.194169 0 0.00377179
0.288433 0.48061 0 0.00376019
0.523729 0.2049 0 0.00377373
0.467897 0.313423 3.46945e-18 0.00377179
0.075776 0.558091 0 0.0037519
0.412065 0.385557 0 0.00376817
0.523729 0.21602 -3.08149e-33 0.00377531
0.151552 0.546332 0 0.00375434
0 0.569849 0 0.00375
0.350249 0.450382 3.46945e-18 0.00376344
0.523729 0.227544 -3.08149e-33 0.0037766
0.467897 0.328483 0 0.00377235
0.523729 0.231525 1.54074e-33 0.00377695
0.574156 0.00184056 0 0.000470923
0.574156 0.00558849 0 0.000838641
0.574157 0.00947248 0 0.00265693
0.574156 0.0134975 -3.46945e-18 0.00338886
0.574156 0.0176687 -3.46945e-18 0.0034353
0.574156 0.0219913 0 0.00340293
0.574156 0.0264708 -3.46945e-18 0.00337033
0.574156 0.031113 0 0.00337777
0.574156 0.0359238 -3.46945e-18 0.0034167
0.574157 0.0409092 0 0.00346411
0.523729 0.239487 3.70071e-18 0.00377765
0.574156 0.0460755 -3.46945e-18 0.00350911
0.574156 0.0514295 0 0.00354856
0.412065 0.403236 0 0.00376876
0.574157 0.0569779 0 0.00358207
0.574156 0.0627277 0 0.00361015
0.574156 0.0686863 0 0.00363351
0.219992 0.534986 0 0.00375649
0.288433 0.501741 0 0.00376059
0.574156 0.0748612 3.46945e-18 0.00365278
0.574156 0.0812603 0 0.00366925
0.467897 0.344091 0 0.00377292
0.574156 0.0878917 3.46945e-18 0.00368415
0.523729 0.251863 0 0.00377852
0.574157 0.0947639 0 0.00369784
0.574156 0.101886 0 0.00371032
0.574156 0.109266 0 0.00372163
0.574156 0.116914 0 0.00373179
0.412065 0.416977 -6.16298e-33 0.00376922
0.350249 0.470415 0 0.00376398
0.523729 0.264688 0 0.00377926
0.075776 0.582034 0 0.00375195
0.574156 0.12484 0 0.00374084
0.574156 0.133054 3.46945e-18 0.00374885
0.412065 0.421557 -2.31298e-18 0.00376937
0.151552 0.569849 0 0.00375449
0.467897 0.360265 -3.46945e-18 0.0037735
0.574157 0.141566 -3.46945e-18 0.00375585
0.523729 0.27798 0 0.00377991
0.574156 0.150386 3.46945e-18 0.00376192
0 0.594219 0 0.00375
0.574156 0.159528 -3.46945e-18 0.00376712
0.574156 0.16418 0 0.00377074
0.288433 0.523639 1.2326e-32 0.00376096
0.574157 0.169001 0 0.00377153
0.523729 0.291753 0 0.0037805
0.219993 0.558091 3.46945e-18 0.00375674
0.467897 0.377026 0 0.00377409
0.574156 0.178818 3.46945e-18 0.00377523
0.412065 0.440544 -2.31298e-18 0.00376999
0.350249 0.491175 0 0.0037645
0.574156 0.188992 3.46945e-18 0.0037783
0.523729 0.306027 -3.08149e-33 0.00378105
0.574157 0.199535 0 0.00378081
0.574157 0.21046 0 0.00378286
0.075776 0.606847 0 0.003752
0.467897 0.394397 0 0.00377471
0.151552 0.594219 0 0.00375465
0.523729 0.320819 0 0.00378158
0.574157 0.221782 -3.46945e-18 0.00378451
0.412065 0.46022 3.08149e-33 0.0037706
0.288433 0.546332 0 0.00376132
0 0.619475 0 0.00375
0.574156 0.233515 3.46945e-18 0.00378584
0.350249 0.51269 3.46945e-18 0.00376499
0.219992 0.582034 3.46945e-18 0.003757
0.523729 0.336148 0 0.00378212
0.467897 0.412396 0 0.00377535
0.574156 0.245675 0 0.00378691
0.624584 0 0 0.000408419
0.624584 0.00368111 0 0.000616053
0.624584 0.00749587 0 0.00180788
0.624584 0.0114491 0 0.00320839
0.624584 0.0155459 0 0.00362081
0.624584 0.0197915 0 0.00355653
0.624584 0.0241911 -2.31298e-18 0.00345479
0.624584 0.0287506 0 0.00340081
0.624584 0.0334755 0 0.00339878
0.624584 0.038372 0 0.00342938
0.624584 0.0434463 -2.31298e-18 0.00347107
0.624584 0.0487048 0 0.0035129
0.624584 0.0541543 0 0.00355068
0.624584 0.0598016 0 0.0035834
0.624584 0.0656539 0 0.00361113
0.624584 0.0717187 0 0.00363438
0.624584 0.0780037 0 0.00365419
0.574157 0.258276 3.46945e-18 0.00378778
0.624584 0.0845169 0 0.00367189
0.523729 0.352034 0 0.00378266
0.624584 0.0912666 0 0.00368819
0.624584 0.0982613 0 0.00370315
0.412065 0.48061 3.08149e-33 0.00377119
0.624584 0.10551 0 0.00371678
0.624584 0.113022 -2.31298e-18 0.0037291
0.574156 0.271334 0 0.00378851
0.624584 0.120806 0 0.00374016
0.467897 0.431051 0 0.00377602
0.075776 0.632561 -3.46945e-18 0.00375206
0.624584 0.128874 0 0.00375
0.151552 0.619475 0 0.0037548
0.288433 0.569849 0 0.00376166
0.350249 0.534985 0 0.00376546
0.624584 0.137234 -2.31298e-18 0.00375868
0.523729 0.368496 0 0.00378323
0.574156 0.284866 -3.46945e-18 0.00378914
0.624584 0.145897 0 0.00376625
0.467897 0.440544 0 0.00377786
0.624584 0.154876 0 0.0037728
0.219992 0.606847 -3.46945e-18 0.00375724
0 0.645647 0 0.00375
0.624584 0.16418 -3.08149e-33 0.00377839
0.574156 0.29889 -3.46945e-18 0.0037897
0.624584 0.173822 0 0.00378312
0.412065 0.501741 1.54074e-33 0.00377176
0.467897 0.450382 -3.46945e-18 0.00377669
0.523729 0.385557 0 0.00378381
0.624584 0.183814 0 0.00378707
0.624584 0.194169 0 0.00379034
0.574156 0.313423 0 0.00379022
0.624584 0.2049 0 0.003793
0.350249 0.558091 3.46945e-18 0.0037659
0.288433 0.594219 0 0.00376199
0.624584 0.21602 0 0.00379514
0.523729 0.403236 0 0.00378443
0.574156 0.328483 -3.46945e-18 0.00379073
0.151552 0.645647 0 0.00375496
0.467897 0.470415 3.46945e-18 0.00377735
0.075776 0.659208 0 0.00375212
0.624584 0.227544 0 0.00379686
0.412065 0.523639 0 0.00377229
0.523729 0.41545 3.08149e-33 0.00378485
0.624584 0.239487 3.70071e-18 0.00379822
0.574156 0.344091 0 0.00379125
0.219992 0.632561 0 0.00375749
0.67013 0.00184055 0 0.000349739
0.67013 0.00558849 0 0.000809659
0.67013 0.00947248 0 0.002919
0.67013 0.0134975 0 0.00384614
0.67013 0.0176687 -3.46945e-18 0.00378742
0.67013 0.0219913 0 0.00358369
0.67013 0.0264708 3.46945e-18 0.00345389
0.67013 0.0311131 0 0.00339798
0.67013 0.0359237 0 0.0034025
0.67013 0.0409092 -3.46945e-18 0.00343556
0.67013 0.0460755 0 0.00347741
0.67013 0.0514296 3.46945e-18 0.00351845
0.523729 0.421557 -2.31298e-18 0.00378506
0.67013 0.056978 0 0.00355543
0 0.67277 0 0.00375
0.67013 0.0627277 0 0.00358749
0.624584 0.251863 0 0.00379931
0.67013 0.0686863 0 0.00361468
0.67013 0.0748612 3.46945e-18 0.00363762
0.67013 0.0812603 0 0.00365793
0.67013 0.0878917 0 0.00367682
0.67013 0.0947639 3.46945e-18 0.00369428
0.574156 0.360265 0 0.00379177
0.67013 0.101886 0 0.00371026
0.523729 0.431051 0 0.00378539
0.624584 0.264688 0 0.00380017
0.467897 0.491175 0 0.00377799
0.67013 0.109266 3.46945e-18 0.00372479
0.350249 0.582034 0 0.00376632
0.67013 0.116914 0 0.0037379
0.67013 0.12484 0 0.00374963
0.67013 0.133054 0 0.00376004
0.288433 0.619475 0 0.00376231
0.624584 0.27798 -3.08149e-33 0.00380088
0.412065 0.546332 1.54074e-33 0.00377278
0.523729 0.440544 -3.08149e-33 0.00378572
0.67013 0.141566 3.46945e-18 0.00376919
0.685312 0.0241911 -7.70372e-34 0.00357573
0.685312 0.0434463 -7.70372e-34 0.00345764
0.67013 0.150387 0 0.00377714
0.574156 0.377026 -3.46945e-18 0.00379233
0.67013 0.159528 0 0.00378399
0.624584 0.291753 0 0.00380147
0.151552 0.67277 0 0.00375511
0.075776 0.686823 0 0.00375219
0.67013 0.169001 0 0.00378982
0.67013 0.178818 0 0.00379472
0.467897 0.51269 0 0.00377859
0.685312 0.113022 -7.70372e-34 0.00373349
0.219992 0.659208 0 0.00375773
0.624584 0.306027 0 0.00380199
0.67013 0.188991 0 0.00379879
0.574156 0.394397 3.46945e-18 0.00379291
0.523729 0.46022 0 0.00378638
0.685312 0.137234 -7.70372e-34 0.00376815
0.67013 0.199535 -3.46945e-18 0.00380213
0.350249 0.606847 0 0.00376672
0 0.700877 0 0.00375
0.624584 0.320819 0 0.00380246
0.67013 0.21046 0 0.00380483
0.412065 0.569849 -2.31298e-18 0.00377325
0.67013 0.221782 -3.46945e-18 0.00380699
0.574157 0.412396 0 0.00379352
0.288433 0.645647 0 0.00376262
0.624584 0.336148 -3.08149e-33 0.00380292
0.67013 0.233515 3.46945e-18 0.00380869
0.467897 0.534986 0 0.00377915
0.523729 0.48061 0 0.00378703
0.624584 0.344091 0 0.00380315
0.67013 0.245675 0 0.00381003
0.715676 4.54095e-19 0 0.000302112
0.715676 0.00368111 0 0.000552126
0.715676 0.00749587 0 0.00192428
0.715676 0.0114491 0 0.00357392
0.715676 0.0155459 0 0.0040659
0.715676 0.0197915 0 0.00388206
0.715676 0.0241911 0 0.0036362
0.715676 0.0287506 0 0.00348763
0.715676 0.0334755 0 0.00342482
0.715676 0.038372 0 0.00342298
0.624584 0.352034 -2.31298e-18 0.00380338
0.715676 0.0434463 0 0.00345093
0.151552 0.700877 0 0.00375526
0.715676 0.0487048 0 0.00348873
0.715676 0.0541543 0 0.00352715
0.574156 0.43105 0 0.00379416
0.715676 0.0598016 0 0.00356243
0.67013 0.258275 0 0.00381107
0.715676 0.0656539 0 0.00359333
0.715676 0.0717187 0 0.00361992
0.075776 0.715441 0 0.00375225
0.715676 0.0780037 0 0.00364333
0.715676 0.0845169 0 0.00366483
0.219992 0.686824 0 0.00375796
0.715676 0.0912666 0 0.00368485
0.715676 0.0982613 0 0.00370335
0.67013 0.271334 -3.46945e-18 0.00381188
0.350249 0.632561 -3.46945e-18 0.0037671
0.412065 0.594219 3.08149e-33 0.00377369
0.715676 0.10551 0 0.00372029
0.715676 0.113022 0 0.00373568
0.624584 0.368496 0 0.00380386
0.523729 0.501741 0 0.00378765
0.715676 0.120806 0 0.00374954
0.715676 0.128874 0 0.00376193
0.67013 0.284867 0 0.00381253
0.467897 0.558091 3.46945e-18 0.00377967
0.715676 0.137234 0 0.00377288
0.574156 0.450382 0 0.00379482
0 0.730005 0 0.00375
0.715676 0.145897 0 0.00378249
0.288433 0.67277 0 0.00376291
0.715676 0.154876 0 0.00379081
0.67013 0.29889 0 0.00381306
0.624584 0.385557 0 0.00380437
0.715676 0.16418 -9.25187e-19 0.00379796
0.715676 0.173822 0 0.00380401
0.715676 0.183814 0 0.00380908
0.67013 0.313423 0 0.00381352
0.523729 0.523639 0 0.00378822
0.715676 0.194169 0 0.00381327
0.574156 0.470415 3.46945e-18 0.00379547
0.624584 0.403236 0 0.00380491
0.743101 0.0241911 -7.70372e-34 0.00373065
0.412065 0.619475 3.08149e-33 0.0037741
0.715676 0.2049 0 0.00381668
0.151552 0.730005 0 0.00375541
0.67013 0.328484 3.46945e-18 0.00381393
0.350249 0.659208 0 0.00376745
0.467897 0.582034 0 0.00378015
0.715676 0.21602 0 0.00381942
0.219992 0.715441 0 0.00375819
0.075776 0.745097 -3.46945e-18 0.00375232
0.715676 0.227544 0 0.00382158
0.67013 0.344091 0 0.00381434
0.624584 0.421557 0 0.00380547
0.743101 0.128874 -7.70372e-34 0.00376704
0.715676 0.239487 3.70071e-18 0.00382327
0.574156 0.491175 0 0.00379611
0.756814 0.00184055 0 0.000257175
0.523729 0.546332 0 0.00378875
0.756813 0.00558849 0 0.000795063
0.756813 0.00947248 0 0.00316674
0.756814 0.0134975 -3.46945e-18 0.00434224
0.756814 0.0155459 0 0.00431442
0.756814 0.0176687 0 0.00425969
0.756814 0.0219913 0 0.00387523
0.756814 0.0264709 0 0.00361873
0.756814 0.031113 -3.46945e-18 0.00347296
0.756813 0.0359238 -3.46945e-18 0.00342306
0.288433 0.700877 0 0.00376319
0.756814 0.0409092 -3.46945e-18 0.00343034
0.756813 0.0460755 3.46945e-18 0.00346103
0.756813 0.0514296 0 0.00349907
0.715676 0.251863 0 0.00382457
0.756813 0.0569779 0 0.00353675
0.756814 0.0627277 -3.46945e-18 0.00357106
0.756814 0.0686863 -3.46945e-18 0.00360095
0 0.76019 0 0.00375
0.756814 0.0748612 0 0.00362713
0.67013 0.360265 3.46945e-18 0.00381475
0.756814 0.0812603 -3.46945e-18 0.00365115
0.756814 0.0878917 -3.46945e-18 0.0036737
0.756814 0.0947639 -3.46945e-18 0.00369469
0.715676 0.264688 0 0.00382556
0.756813 0.101886 0 0.00371406
0.624584 0.440544 0 0.00380607
0.756813 0.109266 3.46945e-18 0.00373176
0.756813 0.116914 3.46945e-18 0.00374779
0.412065 0.645647 0 0.00377447
0.467897 0.606847 0 0.0037806
0.756814 0.120806 0 0.00375596
0.756813 0.12484 0 0.0037622
0.715676 0.27798 0 0.00382631
0.756814 0.133054 -3.46945e-18 0.00377503
0.67013 0.377026 -3.46945e-18 0.00381518
0.756814 0.137234 0 0.0037817
0.574156 0.51269 0 0.00379671
0.756813 0.141566 3.46945e-18 0.00378634
0.685312 0.352034 -7.70372e-34 0.00382006
0.743101 0.2049 -7.70372e-34 0.00382575
0.350249 0.686824 0 0.00376779
0.756814 0.150387 0 0.00379622
0.756814 0.154876 0 0.00380155
0.715676 0.291753 0 0.00382689
0.756814 0.159528 -3.46945e-18 0.00380475
0.523729 0.569849 0 0.00378924
0.72743 0.264688 0 0.0038297
0.756814 0.16418 0 0.00380947
0.151552 0.76019 0 0.00375555
0.756813 0.169001 3.46945e-18 0.00381203
0.624584 0.46022 0 0.00380667
0.219993 0.745097 0 0.00375841
0.67013 0.394396 0 0.00381565
0.756813 0.178818 -3.46945e-18 0.00381817
0.715676 0.306027 0 0.00382734
0.075776 0.775831 0 0.00375239
0.756813 0.188991 0 0.00382327
0.756814 0.199535 0 0.00382745
0.715676 0.320819 0 0.00382772
0.574156 0.534985 0 0.00379726
0.288433 0.730005 0 0.00376345
0.756813 0.21046 0 0.00383083
0.467897 0.632561 0 0.003781
0.67013 0.412396 -3.46945e-18 0.00381615
0.624584 0.48061 -3.08149e-33 0.00380727
0.756814 0.221782 0 0.00383351
0.412065 0.67277 3.08149e-33 0.00377482
0.715676 0.336148 0 0.00382806
0 0.791472 0 0.00375
0.756813 0.233516 3.46945e-18 0.0038356
0.523729 0.594219 0 0.00378968
0.624584 0.487654 1.54074e-33 0.00380746
0.756814 0.245675 3.46945e-18 0.0038372
0.350249 0.715441 3.46945e-18 0.0037681
0.67013 0.43105 0 0.00381668
0.715676 0.352034 -9.25187e-19 0.00382839
0.797951 9.08189e-19 -3.08149e-33 0.000221024
0.797951 0.00368111 2.31298e-18 0.000504985
0.797951 0.00749587 2.31298e-18 0.00203263
0.797951 0.0114491 2.31298e-18 0.00393069
0.797951 0.0141803 7.70372e-34 0.0043522
0.797951 0.0155459 0 0.00456295
0.797951 0.0169611 7.70372e-34 0.00448039
0.797951 0.0197915 2.31298e-18 0.00431529
0.797951 0.0219913 0 0.00411742
0.797951 0.0241911 3.08149e-33 0.00391954
0.797951 0.0264709 0 0.00378281
0.797951 0.0287506 -3.08149e-33 0.00364607
0.797951 0.0334755 2.31298e-18 0.00349878
0.797951 0.038372 2.31298e-18 0.00344775
0.797951 0.0434463 2.31298e-18 0.00345108
0.797951 0.0487048 0 0.00347833
0.756813 0.258275 -3.46945e-18 0.00383841
0.797951 0.0541543 2.31298e-18 0.00351341
0.797951 0.0598016 2.31298e-18 0.00354885
0.797951 0.0656539 2.31298e-18 0.00358141
0.574156 0.55809 0 0.00379776
0.624584 0.501741 0 0.00380784
0.797951 0.0717187 2.31298e-18 0.00361046
0.797951 0.0780037 -3.08149e-33 0.00363702
0.797951 0.0845169 2.31298e-18 0.00366197
0.797951 0.0912666 -3.08149e-33 0.00368542
0.797951 0.0982613 2.31298e-18 0.00370725
0.756813 0.271334 0 0.0038393
0.797951 0.10551 2.31298e-18 0.00372738
0.715676 0.368496 0 0.00382873
0.151552 0.791472 0 0.00375569
0.797951 0.113022 2.31298e-18 0.00374575
0.219992 0.775831 3.46945e-18 0.00375862
0.797951 0.118211 7.70372e-34 0.00375683
0.770526 0.239487 1.54074e-33 0.00384235
0.797951 0.120806 0 0.00376237
0.67013 0.450382 3.46945e-18 0.00381723
0.797951 0.128874 3.08149e-33 0.00377728
0.467897 0.659208 0 0.00378137
0.756813 0.284866 -3.46945e-18 0.00383995
0.743101 0.320819 -7.70372e-34 0.00383735
0.797951 0.137234 0 0.00379052
0.797951 0.141566 0 0.00379633
0.797951 0.145897 -9.25187e-19 0.00380215
0.523729 0.619475 0 0.00379007
0.075776 0.807681 0 0.00375246
0.797951 0.150387 0 0.00380722
0.797951 0.154876 0 0.00381228
0.715676 0.385557 0 0.0038291
0.412065 0.700877 3.08149e-33 0.00377513
0.288433 0.76019 0 0.0037637
0.756813 0.29889 0 0.00384043
0.797951 0.16418 0 0.00382099
0.624584 0.523639 0 0.00380837
0.797951 0.167394 7.70372e-34 0.00382346
0.797951 0.173822 2.31298e-18 0.00382839
0.574156 0.582034 0 0.0037982
0.67013 0.470415 0 0.0038178
0.797951 0.183814 2.31298e-18 0.0038346
0.756813 0.313423 -3.46945e-18 0.0038408
0.797951 0.194169 -9.25187e-19 0.00383973
0.715676 0.403236 0 0.0038295
0.151552 0.807681 0 0.00375576
0.797951 0.197746 -7.70372e-34 0.00384112
0.350249 0.745097 0 0.00376839
0.797951 0.2049 3.08149e-33 0.0038439
0 0.823889 0 0.00375
0.756813 0.328483 -3.46945e-18 0.00384109
0.797951 0.21046 0 0.00384558
0.797951 0.21602 -3.08149e-33 0.00384725
0.797951 0.223703 7.70372e-34 0.003849
0.797951 0.227544 9.25187e-19 0.00384987
0.624584 0.546332 0 0.00380884
0.715676 0.421557 0 0.00382993
0.67013 0.491176 -3.46945e-18 0.00381834
0.797951 0.231525 7.70372e-34 0.00385055
0.467897 0.686824 -3.46945e-18 0.0037817
0.523729 0.645647 0 0.00379042
0.756813 0.344091 -3.46945e-18 0.00384135
0.822721 0.120806 7.70372e-34 0.00376758
0.797951 0.239487 -3.08149e-33 0.00385189
0.822721 0.137234 7.70372e-34 0.0037973
0.835106 0.00184056 0 0.00018674
0.835106 0.00558849 0 0.000783164
0.835106 0.00947248 0 0.00338034
0.835106 0.0134975 0 0.00481533
0.835107 0.0176687 0 0.0048075
0.835106 0.0219913 -3.46945e-18 0.00429313
0.574156 0.606847 3.46945e-18 0.00379859