# nutMean  POINT_DATA 63840
# x  y  z  nutMean
0 0.5 3.39583e-17 0.0158659
0 0.5 -0.00617931 0.0158752
0 0.5 0.00617931 0.0158634
0.0124865 0.5 -0.00617931 0.0169753
0.0124865 0.5 0.00617931 0.0169721
0 0.5 -0.0688207 0.0159043
0 0.5 0.0688207 0.0157266
0.0124865 0.5 -0.0688207 0.0170043
0.0124865 0.5 0.0688207 0.0168354
0 0.5 -0.075 0.0159008
0 0.5 0.075 0.015702
0 0.5 -0.0811793 0.0159042
0 0.5 0.0811793 0.015684
0.0124865 0.5 -0.0811793 0.017027
0.0124865 0.5 0.0811793 0.0167871
0.075776 0.5 -0.0375 0.0225481
0.075776 0.5 0.0375 0.0225309
0.075776 0.5 -0.1125 0.0226826
0.075776 0.5 0.1125 0.0222396
0 0.5 -0.143821 0.0157843
0 0.5 0.143821 0.0153923
0.0124865 0.5 -0.143821 0.0169072
0.0124865 0.5 0.143821 0.0164954
0 0.5 -0.15 0.0157571
0 0.5 0.15 0.0153526
0.151149 0.5 -0.00137318 0.0199941
0 0.5 -0.156179 0.0157366
0 0.5 0.156179 0.015319
0.0124865 0.5 -0.156179 0.0168363
0.0124865 0.5 0.156179 0.0163899
0.151149 0.5 0.075 0.0198823
0.151149 0.5 -0.075 0.0199972
0.075776 0.5 -0.1875 0.0222593
0.075776 0.5 0.1875 0.0216072
0.151149 0.5 0.15 0.0195926
0.151149 0.5 -0.15 0.0198688
0 0.5 -0.218821 0.01544
0 0.5 0.218821 0.0149134
0.0124865 0.5 -0.218821 0.0165397
0.0124865 0.5 0.218821 0.0159843
0.219992 0.5 0.0375 0.0175861
0.219993 0.5 -0.0375 0.0175858
0 0.5 -0.225 0.0154017
0 0.5 0.225 0.0148667
0 0.5 -0.231179 0.0153695
0 0.5 0.231179 0.0148254
0.0124865 0.5 -0.231179 0.0164326
0.0124865 0.5 0.231179 0.0158559
0.219992 0.5 0.1125 0.0175085
0.219993 0.5 -0.1125 0.0175236
0.151149 0.5 -0.225 0.0194876
0.151149 0.5 0.225 0.0191213
0.075776 0.5 -0.2625 0.0216177
0.075776 0.5 0.2625 0.0208365
0.288069 0.5 -0.00137318 0.014238
0.219992 0.5 0.1875 0.0173285
0.219993 0.5 -0.1875 0.0173584
0 0.5 0.293821 0.0143711
0 0.5 -0.293821 0.0149828
0.0124865 0.5 -0.293821 0.0160459
0.0124865 0.5 0.293821 0.0154016
0.288069 0.5 -0.075 0.0141959
0.288069 0.5 0.075 0.0142106
0 0.5 -0.3 0.0149388
0 0.5 0.3 0.0143231
0 0.5 0.306179 0.0142786
0 0.5 -0.306179 0.0148995
0.0124865 0.5 -0.306179 0.015921
0.0124865 0.5 0.306179 0.0152655
0.288069 0.5 -0.15 0.0141568
0.288069 0.5 0.15 0.0141739
0.151149 0.5 -0.3 0.0189767
0.151149 0.5 0.3 0.0185533
0.219992 0.5 -0.2625 0.0170431
0.219992 0.5 0.2625 0.0169954
0.075776 0.5 0.3375 0.0200192
0.075776 0.5 -0.3375 0.0208681
0.350249 0.5 -0.0375 0.0110447
0.350249 0.5 0.0375 0.0110598
0.288069 0.5 -0.225 0.0140645
0.288069 0.5 0.225 0.014078
0.350249 0.5 0.1125 0.0111081
0.350249 0.5 -0.1125 0.0110525
0 0.5 0.368821 0.0138182
0 0.5 -0.368821 0.01447
0.0124865 0.5 -0.368821 0.0154915
0.0124865 0.5 0.368821 0.0148051
0 0.5 -0.375 0.0144252
0 0.5 0.375 0.0137727
0 0.5 -0.381179 0.0143827
0 0.5 0.381179 0.0137278
0.0124865 0.5 -0.381179 0.0153615
0.0124865 0.5 0.381179 0.0146712
0.350249 0.5 -0.1875 0.0111063
0.350249 0.5 0.1875 0.0111592
0.219992 0.5 -0.3375 0.0166808
0.219992 0.5 0.3375 0.0166134
0.151149 0.5 -0.375 0.018417
0.151149 0.5 0.375 0.0179594
0.411736 0.5 -0.00137318 0.00941864
0.288069 0.5 -0.3 0.013924
0.288069 0.5 0.3 0.0139352
0.411736 0.5 -0.075 0.00941102
0.411736 0.5 0.075 0.00943544
0.075776 0.5 -0.4125 0.0200883
0.075776 0.5 0.4125 0.0192161
0.350249 0.5 -0.2625 0.011145
0.350249 0.5 0.2625 0.0112174
0.411736 0.5 -0.15 0.0094473
0.411736 0.5 0.15 0.00949118
0 0.5 -0.443821 0.0139505
0 0.5 0.443821 0.0132947
0.0124865 0.5 -0.443821 0.0149293
0.0124865 0.5 0.443821 0.0142381
0 0.5 -0.45 0.0139085
0 0.5 0.45 0.0132549
0 0.5 -0.456179 0.013866
0 0.5 0.456179 0.0132139
0.0124865 0.5 -0.456179 0.0148041
0.0124865 0.5 0.456179 0.0141185
0.219992 0.5 -0.4125 0.0163056
0.219993 0.5 0.4125 0.0162105
0.411736 0.5 -0.225 0.00951201
0.411736 0.5 0.225 0.00956354
0.467897 0.5 0.0375 0.00786015
0.467897 0.5 -0.0375 0.00785482
0.288069 0.5 -0.375 0.0137782
0.288069 0.5 0.375 0.0137789
0.151149 0.5 -0.45 0.0178577
0.151149 0.5 0.45 0.0173831
0.467897 0.5 -0.1125 0.00788545
0.467897 0.5 0.1125 0.00790835
0.350249 0.5 0.3375 0.0112759
0.350249 0.5 -0.3375 0.0111968
0.075776 0.5 -0.4875 0.0193386
0.075776 0.5 0.4875 0.0184907
0.467897 0.5 -0.1875 0.00793764
0.467897 0.5 0.1875 0.00798306
0.411736 0.5 -0.3 0.00959473
0.411736 0.5 0.3 0.00964727
0 0.5 -0.518821 0.013465
0 0.5 0.518821 0.0128318
0.0124865 0.5 0.518821 0.0137364
0.0124865 0.5 -0.518821 0.0144031
0.523432 0.5 -0.00137318 0.00692695
0 0.5 -0.525 0.0134291
0 0.5 0.525 0.0127982
0.523432 0.5 -0.075 0.00693505
0.523432 0.5 0.075 0.00694268
0 0.5 -0.531179 0.0133913
0 0.5 0.531179 0.0127636
0.0124865 0.5 -0.531179 0.0142952
0.0124865 0.5 0.531179 0.0136359
0.288069 0.5 -0.45 0.0136449
0.288069 0.5 0.45 0.013625
0.219992 0.5 -0.4875 0.0159444
0.219993 0.5 0.4875 0.0158107
0.467897 0.5 -0.2625 0.00804963
0.467897 0.5 0.2625 0.00808641
0.350249 0.5 -0.4125 0.0112714
0.350249 0.5 0.4125 0.0113472
0.523432 0.5 -0.15 0.00698075
0.523432 0.5 0.15 0.00700001
0.151149 0.5 -0.525 0.01734
0.151149 0.5 0.525 0.0168579
0.411736 0.5 -0.375 0.00969756
0.411736 0.5 0.375 0.00974555
0.075776 0.5 -0.5625 0.0186809
0.075776 0.5 0.5625 0.0178701
0.523432 0.5 -0.225 0.00706223
0.523432 0.5 0.225 0.00708592
0.574156 0.5 -0.0375 0.0060346
0.574156 0.5 0.0375 0.00603362
0.467897 0.5 0.3375 0.00819822
0.467897 0.5 -0.3375 0.00817355
0.574156 0.5 -0.1125 0.006068
0.574156 0.5 0.1125 0.006072
0 0.5 -0.593821 0.0130422
0 0.5 0.593821 0.0124421
0.0124865 0.5 -0.593821 0.0139461
0.0124865 0.5 0.593821 0.0133143
0.288069 0.5 -0.525 0.0135361
0.288069 0.5 0.525 0.0134848
0 0.5 -0.6 0.0130119
0 0.5 0.6 0.0124141
0.350249 0.5 -0.4875 0.0113703
0.350249 0.5 0.4875 0.0114321
0.523432 0.5 -0.3 0.0071783
0.523432 0.5 0.3 0.00719441
0.219992 0.5 -0.5625 0.0156167
0.219992 0.5 0.5625 0.0154361
0.574156 0.5 -0.1875 0.00613408
0.574156 0.5 0.1875 0.0061405
0 0.5 -0.606179 0.0129804
0 0.5 0.606179 0.0123859
0.0124865 0.5 -0.606179 0.0138567
0.0124865 0.5 0.606179 0.0132314
0.411736 0.5 -0.45 0.00982896
0.411736 0.5 0.45 0.00986698
0.151149 0.5 -0.6 0.0168908
0.151149 0.5 0.6 0.0164027
0.62168 0.5 2.64545e-17 0.00547385
0.467897 0.5 0.4125 0.00834586
0.467897 0.5 -0.4125 0.00832988
0.624316 0.5 0.0729402 0.00545368
0.624316 0.5 -0.075 0.00545595
0.574156 0.5 -0.2625 0.0062298
0.574157 0.5 0.2625 0.00623797
0.075776 0.5 -0.6375 0.0181267
0.075776 0.5 0.6375 0.0173589
0.624316 0.5 -0.15 0.005505
0.624316 0.5 0.15 0.00550255
0.523432 0.5 -0.375 0.00732231
0.523432 0.5 0.375 0.00732501
0.350249 0.5 -0.5625 0.0114953
0.350249 0.5 0.5625 0.0115297
0.624316 0.5 -0.225 0.00558197
0.624316 0.5 0.225 0.00557978
0.288069 0.5 0.6 0.0133685
0.288069 0.5 -0.6 0.0134609
0.574156 0.5 -0.3375 0.00636269
0.574156 0.5 0.3375 0.00635921
0.411736 0.5 -0.525 0.00999001
0.411736 0.5 0.525 0.010009
0 0.5 -0.668821 0.0126916
0 0.5 0.668821 0.0121298
0.0124865 0.5 -0.668821 0.0135679
0.0124865 0.5 0.668821 0.0129753
0.67013 0.5 0.0375 0.00486984
0.67013 0.5 -0.0375 0.00487408
0.219993 0.5 -0.6375 0.0153387
0.219993 0.5 0.6375 0.0151067
0 0.5 -0.675 0.0126669
0 0.5 0.675 0.0121083
0.467897 0.5 0.4875 0.00852266
0.467897 0.5 -0.4875 0.00852041
0.67013 0.5 -0.1125 0.00490738
0.67013 0.5 0.1125 0.00489991
0 0.5 -0.681179 0.0126416
0 0.5 0.681179 0.0120861
0.0124865 0.5 -0.681179 0.0134963
0.0124865 0.5 0.681179 0.0129109
0.523432 0.5 -0.45 0.0074987
0.523432 0.5 0.45 0.00748602
0.151149 0.5 -0.675 0.0165228
0.151149 0.5 0.675 0.0160292
0.624316 0.5 -0.3 0.00569144
0.624316 0.5 0.3 0.00568441
0.67013 0.5 0.1875 0.00495894
0.67013 0.5 -0.1875 0.00497085
0.574156 0.5 -0.4125 0.00652515
0.574157 0.5 0.4125 0.00650081
0.708171 0.5 1.88651e-17 0.00453173
0.075776 0.5 -0.7125 0.0176866
0.075776 0.5 0.7125 0.0169675
0.715434 0.5 0.0736268 0.00448647
0.715434 0.5 -0.075 0.0044851
0.67013 0.5 0.2625 0.00504344
0.67013 0.5 -0.2625 0.00505387
0.350249 0.5 -0.6375 0.0116466
0.350249 0.5 0.6375 0.0116412
0.411736 0.5 -0.6 0.0101808
0.411736 0.5 0.6 0.0101701
0.624316 0.5 -0.375 0.00583475
0.624316 0.5 0.375 0.00581001
0.715434 0.5 -0.15 0.00453137
0.715434 0.5 0.15 0.00451851
0.467897 0.5 -0.5625 0.00874444
0.467897 0.5 0.5625 0.00872556
0.288069 0.5 -0.675 0.0134265
0.288069 0.5 0.675 0.0132844
0.523432 0.5 -0.525 0.00770904
0.523432 0.5 0.525 0.0076773
0 0.5 -0.743821 0.0124186
0 0.5 0.743821 0.0118963
0.0124865 0.5 -0.743821 0.0132733
0.0124865 0.5 0.743821 0.0127211
0.219992 0.5 0.7125 0.0148342
0.219992 0.5 -0.7125 0.015122
0.715434 0.5 -0.225 0.00460402
0.715434 0.5 0.225 0.00458546
0 0.5 -0.75 0.0124007
0 0.5 0.75 0.011882
0.67013 0.5 0.3375 0.00515925
0.67013 0.5 -0.3375 0.0051806
0.574156 0.5 -0.4875 0.00672111
0.574156 0.5 0.4875 0.00667897
0 0.5 -0.756179 0.0123814
0 0.5 0.756179 0.0118658
0.0124865 0.5 -0.756179 0.0132209
0.0124865 0.5 0.756179 0.0126766
0.756813 0.5 -0.0375 0.00408276
0.756813 0.5 0.0375 0.00407708
0.151149 0.5 -0.75 0.0162442
0.151149 0.5 0.75 0.0157443
0.756813 0.5 -0.1125 0.00411366
0.756813 0.5 0.1125 0.0041014
0.624316 0.5 -0.45 0.00600783
0.624316 0.5 0.45 0.00596177
0.715434 0.5 -0.3 0.00470362
0.715434 0.5 0.3 0.00467886
0.756813 0.5 0.1875 0.0041518
0.756813 0.5 -0.1875 0.00417125
0.67013 0.5 -0.4125 0.00533223
0.67013 0.5 0.4125 0.0052836
0.411736 0.5 -0.675 0.0104013
0.411736 0.5 0.675 0.0103494
0.467897 0.5 0.6375 0.00895119
0.467897 0.5 -0.6375 0.00900129
0.075776 0.5 -0.7875 0.0173668
0.075776 0.5 0.7875 0.0166921
0.350249 0.5 -0.7125 0.0118254
0.350249 0.5 0.7125 0.0117681
0.523432 0.5 -0.6 0.00795325
0.523432 0.5 0.6 0.00789476
0.797732 0.5 2.68882e-17 0.00379366
0.756813 0.5 -0.2625 0.00425784
0.756814 0.5 0.2625 0.00422611
0.797732 0.5 0.0736268 0.00380482
0.797732 0.5 -0.075 0.00381108
0.288069 0.5 -0.75 0.0134366
0.288069 0.5 0.75 0.0132382
0.574156 0.5 -0.5625 0.00695165
0.574157 0.5 0.5625 0.00688614
0.715434 0.5 -0.375 0.00483315
0.715434 0.5 0.375 0.00479517
0.797732 0.5 -0.15 0.00385313
0.797732 0.5 0.15 0.00383669
0.624316 0.5 -0.525 0.00621395
0.624316 0.5 0.525 0.00614669
0.219992 0.5 -0.7875 0.0149705
0.219992 0.5 0.7875 0.0146269
0 0.5 -0.818821 0.0122253
0 0.5 0.818821 0.0117422
0.0124865 0.5 0.818821 0.012553
0.0124865 0.5 -0.818821 0.0130647
0 0.5 -0.825 0.0122153
0 0.5 0.825 0.011735
0.756813 0.5 0.3375 0.00432574
0.756814 0.5 -0.3375 0.00436037
0.67013 0.5 -0.4875 0.00551511
0.67013 0.5 0.4875 0.00544736
0.797732 0.5 -0.225 0.00392187
0.797732 0.5 0.225 0.00389523
0 0.5 -0.831179 0.0122022
0 0.5 0.831179 0.011726
0.0124865 0.5 -0.831179 0.0130339
0.0124865 0.5 0.831179 0.0125307
0.835106 0.5 0.0375 0.00351641
0.835106 0.5 -0.0375 0.0035223
0.151149 0.5 -0.825 0.0160589
0.151149 0.5 0.825 0.0155524
0.835106 0.5 0.1125 0.00353703
0.835106 0.5 -0.1125 0.00354956
0.715434 0.5 -0.45 0.00499278
0.715434 0.5 0.45 0.00493268
0.797732 0.5 -0.3 0.00401016
0.797732 0.5 0.3 0.00397686
0.467897 0.5 0.7125 0.00919749
0.467897 0.5 -0.7125 0.00928977
0.523432 0.5 -0.675 0.00823072
0.523432 0.5 0.675 0.00813615
0.411736 0.5 -0.75 0.0106509
0.411736 0.5 0.75 0.0105467
0.835106 0.5 -0.1875 0.0036022
0.835106 0.5 0.1875 0.00358076
0.574156 0.5 -0.6375 0.00721668
0.574157 0.5 0.6375 0.00711995
0.350249 0.5 -0.7875 0.012031
0.350249 0.5 0.7875 0.0119118
0.756813 0.5 -0.4125 0.00449852
0.756814 0.5 0.4125 0.00445151
0.075776 0.5 -0.8625 0.0171689
0.075776 0.5 0.8625 0.0165423
0.624316 0.5 0.6 0.00635915
0.624316 0.5 -0.6 0.00645411
0.872064 0.5 5.91974e-17 0.0032959
0.870122 0.5 0.075 0.0033167
0.288069 0.5 -0.825 0.0134931
0.288069 0.5 0.825 0.0132337
0.67013 0.5 -0.5625 0.00573097
0.67013 0.5 0.5625 0.00563874
0.872064 0.5 -0.075 0.00331143
0.835106 0.5 -0.2625 0.00368061
0.835106 0.5 0.2625 0.00364678
0.797732 0.5 -0.375 0.00412336
0.797732 0.5 0.375 0.00408368
0.872064 0.5 0.14794 0.00333224
0.872064 0.5 -0.15 0.00334902
0.715434 0.5 -0.525 0.00518308
0.715434 0.5 0.525 0.00509829
0.219992 0.5 0.8625 0.0144887
0.219993 0.5 -0.8625 0.0148881
0 0.5 -0.893821 0.0121166
0 0.5 0.893821 0.0116655
0.0124865 0.5 -0.893821 0.0129483
0.0124865 0.5 0.893821 0.0124702
0 0.5 -0.9 0.0121127
0 0.5 0.9 0.0116612
0.756813 0.5 -0.4875 0.00466507
0.756813 0.5 0.4875 0.00458829
0.872064 0.5 -0.225 0.00341075
0.872064 0.5 0.225 0.00338363
0.835106 0.5 -0.3375 0.00376679
0.835106 0.5 0.3375 0.00373382
0 0.5 0.906179 0.0116587
0 0.5 -0.906179 0.0121093
0.0124865 0.5 -0.906179 0.0129424
0.0124865 0.5 0.906179 0.0124606
0.90582 0.5 -0.0375 0.00308395
0.90582 0.5 0.0375 0.0030777
0.151149 0.5 -0.9 0.0159707
0.151149 0.5 0.9 0.015449
0.90582 0.5 -0.1125 0.00310672
0.905821 0.5 0.1125 0.00309514
0.523432 0.5 -0.75 0.00854052
0.523432 0.5 0.75 0.00839979
0.574156 0.5 -0.7125 0.00751569
0.574156 0.5 0.7125 0.00737925
0.797732 0.5 -0.45 0.00426842
0.797732 0.5 0.45 0.00420778
0.467897 0.5 0.7875 0.00946237
0.467897 0.5 -0.7875 0.00960825
0.624316 0.5 -0.675 0.00672844
0.624316 0.5 0.675 0.00659805
0.411736 0.5 -0.825 0.0109286
0.411736 0.5 0.825 0.0107629
0.872064 0.5 0.3 0.00345554
0.872064 0.5 -0.3 0.00349071
0.67013 0.5 -0.6375 0.00598096
0.67013 0.5 0.6375 0.00585707
0.90582 0.5 0.1875 0.00313303
0.905821 0.5 -0.1875 0.0031546
0.350249 0.5 -0.8625 0.0122636
0.350249 0.5 0.8625 0.0120744
0.835106 0.5 -0.4125 0.0038933
0.835106 0.5 0.4125 0.00384914
0.715434 0.5 -0.6 0.00540585
0.715434 0.5 0.6 0.00529306
0.939201 0.5 2.75387e-17 0.00296728
0.075776 0.5 0.9375 0.0164902
0.075776 0.5 -0.9375 0.0171112
0.939111 0.5 0.075 0.00297467
0.939201 0.5 -0.075 0.00298075
0.756813 0.5 0.5625 0.00475991
0.756814 0.5 -0.5625 0.00486183
0.90582 0.5 0.2625 0.00319118
0.905821 0.5 -0.2625 0.00322287
0.288069 0.5 -0.9 0.0135957
0.288069 0.5 0.9 0.0132724
0.872064 0.5 -0.375 0.00359216
0.872064 0.5 0.375 0.00355045
0.939201 0.5 0.148627 0.00300236
0.939201 0.5 -0.15 0.00301461
0.797732 0.5 -0.525 0.00444068
0.797732 0.5 0.525 0.00435326
0.219992 0.5 0.9375 0.0144162
0.219992 0.5 -0.9375 0.0148691
0.939201 0.5 -0.225 0.00307076
0.939201 0.5 0.225 0.00304892
0.905821 0.5 -0.3375 0.00330999
0.90582 0.5 0.3375 0.00326798
0.835106 0.5 -0.4875 0.00404297
0.835106 0.5 0.4875 0.00396828
0 0.5 0.968821 0.0116355
0 0.5 -0.968821 0.0120745
0.0124865 0.5 -0.968821 0.0129076
0.0124865 0.5 0.968821 0.0124373
0.969689 0.5 -0.0375 0.00286033
0.969689 0.5 0.0375 0.00285455
0.574156 0.5 -0.7875 0.00784824
0.574156 0.5 0.7875 0.00766247
0 0.5 -0.975 0.012067
0 0.5 0.975 0.0116298
0.624316 0.5 -0.75 0.00703668
0.624316 0.5 0.75 0.00686257
0.969689 0.5 -0.1125 0.0028795
0.96969 0.5 0.1125 0.00287267
0.523432 0.5 -0.825 0.00888175
0.523432 0.5 0.825 0.00868508
0.67013 0.5 0.7125 0.00610203
0.67013 0.5 -0.7125 0.00626502
0 0.5 -0.981179 0.0120647
0 0.5 0.981179 0.0116275
0.467897 0.5 0.8625 0.0097485
0.467897 0.5 -0.8625 0.00995562
0.0124865 0.5 -0.981179 0.0128912
0.0124865 0.5 0.981179 0.0124199
0.872064 0.5 -0.45 0.00372009
0.872064 0.5 0.45 0.00366265
0.715434 0.5 -0.675 0.00566193
0.715434 0.5 0.675 0.00551447
0.939201 0.5 -0.3 0.00314631
0.939201 0.5 0.3 0.00311575
0.151149 0.5 0.975 0.0154
0.151149 0.5 -0.975 0.0159521
0.969689 0.5 -0.1875 0.00292522
0.969689 0.5 0.1875 0.00291078
0.756813 0.5 -0.6375 0.00509124
0.756813 0.5 0.6375 0.0049586
0.411736 0.5 -0.9 0.0112344
0.411736 0.5 0.9 0.0109997
0.90582 0.5 -0.4125 0.00341634
0.90582 0.5 0.4125 0.00336893
0.995005 0.5 0.0749309 0.00273189
0.797732 0.5 -0.6 0.00464366
0.797732 0.5 0.6 0.00452912
1.00005 0.5 -8.47123e-18 0.00269569
0.350249 0.5 -0.9375 0.0125235
0.350249 0.5 0.9375 0.012259
1.00005 0.5 -0.0749309 0.00270732
0.969689 0.5 -0.2625 0.00298808
0.969689 0.5 0.2625 0.0029681
0.835106 0.5 -0.5625 0.00421978
0.835106 0.5 0.5625 0.00412337
1.00005 0.5 -0.149862 0.00273835
0.939201 0.5 -0.375 0.0032432
0.939201 0.5 0.375 0.00320222
1.00029 0.5 0.148988 0.00273264
0.075776 0.5 -1.0125 0.0170664
0.075776 0.5 1.0125 0.0164335
0.288069 0.5 0.975 0.0133506
0.288069 0.5 -0.975 0.0137454
0.872064 0.5 -0.525 0.00387366
0.872064 0.5 0.525 0.00379433
1.00005 0.5 0.224793 0.00277493
1.00005 0.5 -0.224793 0.0027905
0.969689 0.5 0.3375 0.00304318
0.96969 0.5 -0.3375 0.00307214
1.0271 0.5 -0.0368226 0.00252743
1.0271 0.5 0.0368226 0.00252406
0.90582 0.5 0.4875 0.00348271
0.905821 0.5 -0.4875 0.00354631
1.0271 0.5 -0.110468 0.00254513
1.0271 0.5 0.110468 0.00252808
0.67013 0.5 0.7875 0.00637331
0.67013 0.5 -0.7875 0.00658313
0.624316 0.5 0.825 0.00715172
0.624316 0.5 -0.825 0.00737859
0.219993 0.5 -1.0125 0.0149118
0.219993 0.5 1.0125 0.0143998
0.574156 0.5 -0.8625 0.00821387
0.574156 0.5 0.8625 0.0079683
0.715434 0.5 -0.75 0.00595202
0.715434 0.5 0.75 0.00576226
0.756813 0.5 0.7125 0.00518321
0.756814 0.5 -0.7125 0.0053531
0.523432 0.5 -0.9 0.0092538
0.523432 0.5 0.9 0.00899219
0.939201 0.5 -0.45 0.00336956
0.939201 0.5 0.45 0.00330764
1.04168 0.5 0 0.00244734
1.0271 0.5 -0.184113 0.00258443
1.0271 0.5 0.184113 0.00257344
0 0.5 -1.04382 0.0120443
0 0.5 1.04382 0.0116307
0.0124865 0.5 -1.04382 0.0128709
0.0124865 0.5 1.04382 0.0124232
1.00005 0.5 -0.299723 0.0028623
1.00005 0.5 0.299723 0.00283924
1.04168 0.5 -0.0729162 0.0024568
1.04168 0.5 0.0729162 0.00245245
0.797732 0.5 -0.675 0.00488042
0.797732 0.5 0.675 0.00473008
0.467897 0.5 0.9375 0.0100552
0.467897 0.5 -0.9375 0.0103319
0 0.5 -1.05 0.012041
0 0.5 1.05 0.0116332
0.835106 0.5 -0.6375 0.00442956
0.835106 0.5 0.6375 0.00430221
1.04168 0.5 -0.145832 0.00248262
1.04168 0.5 0.145832 0.00247461
0.969689 0.5 -0.4125 0.00318215
0.96969 0.5 0.4125 0.00313642
0 0.5 -1.05618 0.0120378
0 0.5 1.05618 0.011636
0.0124865 0.5 -1.05618 0.012856
0.0124865 0.5 1.05618 0.0124261
1.05695 0.5 -0.0360764 0.0023698
1.05695 0.5 0.0360764 0.00236694
0.411736 0.5 -0.975 0.0115741
0.411736 0.5 0.975 0.0112571
0.872064 0.5 -0.6 0.0040598
0.872064 0.5 0.6 0.00395197
1.0271 0.5 -0.257759 0.00264129
1.0271 0.5 0.257759 0.00262466
0.151149 0.5 -1.05 0.0159632
0.151149 0.5 1.05 0.0153976
1.05695 0.5 0.108229 0.00236258
1.05695 0.5 -0.108229 0.00238421
1.04168 0.5 -0.218749 0.00252638
1.04168 0.5 0.218749 0.00251314
0.90582 0.5 -0.5625 0.00370485
0.905821 0.5 0.5625 0.00362179
1.00005 0.5 -0.374654 0.00295755
1.00005 0.5 0.374654 0.00292151
0.350249 0.5 1.0125 0.0124604
0.350249 0.5 -1.0125 0.0128212
1.05695 0.5 -0.180382 0.00241665
1.05695 0.5 0.180382 0.00240603
1.07319 0.5 0.0709442 0.00230529
0.939201 0.5 -0.525 0.00352007
0.939201 0.5 0.525 0.00343445
1.0271 0.5 -0.331404 0.00271948
1.0271 0.5 0.331404 0.00269332
1.08112 0.5 3.23815e-17 0.00227242
1.04168 0.5 -0.291665 0.00258787
1.04168 0.5 0.291665 0.00256757
1.08112 0.5 -0.0709442 0.00227973
0.969689 0.5 -0.4875 0.00334069
0.96969 0.5 0.4875 0.00325023
1.05695 0.5 0.252535 0.00244748
1.05695 0.5 -0.252535 0.00246335
0.288069 0.5 -1.05 0.0139405
0.288069 0.5 1.05 0.0134671
0.075776 0.5 -1.0875 0.0170009
0.075776 0.5 1.0875 0.0164429
1.08112 0.5 -0.141888 0.00230096
1.08145 0.5 0.140165 0.00229874
0.715434 0.5 0.825 0.00603617
0.715434 0.5 -0.825 0.00627798
0.756813 0.5 0.7875 0.0054345
0.756814 0.5 -0.7875 0.00565045
0.67013 0.5 -0.8625 0.00693522
0.67013 0.5 0.8625 0.00667013
0.797732 0.5 -0.75 0.00515083
0.797732 0.5 0.75 0.0049571
0.624316 0.5 -0.9 0.0077542
0.624316 0.5 0.9 0.00746453
1.00005 0.5 -0.449585 0.00308642
1.00005 0.5 0.449585 0.00302405
0.835106 0.5 -0.7125 0.0046763
0.835106 0.5 0.7125 0.00450481
0.574156 0.5 -0.9375 0.00861164
0.574157 0.5 0.9375 0.00829688
1.10076 0.5 -0.0349809 0.00220283
1.10076 0.5 0.0349809 0.00220122
1.08112 0.5 -0.212832 0.0023374
1.08112 0.5 0.212832 0.00232763
0.872064 0.5 -0.675 0.00427986
0.872064 0.5 0.675 0.00413254
1.04168 0.5 -0.364581 0.00267027
1.04168 0.5 0.364581 0.00263809
1.0271 0.5 0.405049 0.00277959
1.0271 0.5 -0.405049 0.00282156
1.05695 0.5 -0.324688 0.00252858
1.05695 0.5 0.324688 0.00250395
1.10076 0.5 -0.104943 0.00221397
1.10076 0.5 0.104943 0.00221184
0.523432 0.5 0.975 0.00932264
0.523432 0.5 -0.975 0.00966069
0.90582 0.5 0.6375 0.00378002
0.905821 0.5 -0.6375 0.00390479
0.219992 0.5 1.0875 0.0144496
0.219992 0.5 -1.0875 0.015013
1.11376 0.5 3.81639e-17 0.002159
0.939201 0.5 0.6 0.00359225
0.939201 0.5 -0.6 0.00367816
1.10076 0.5 -0.174905 0.0022427
1.10076 0.5 0.174905 0.00223758
0.467897 0.5 -1.0125 0.0107498
0.467897 0.5 1.0125 0.0103842
1.11376 0.5 -0.0693118 0.00216487
1.11376 0.5 0.0693118 0.00216349
1.08112 0.5 0.283777 0.00237381
1.08112 0.5 -0.283777 0.00238894
0 0.5 -1.11882 0.0120769
0 0.5 1.11882 0.011702
0.0124865 0.5 -1.11882 0.0128951
0.0124865 0.5 1.11882 0.0124922
0.969689 0.5 -0.5625 0.00349523
0.969689 0.5 0.5625 0.00339073
1.11376 0.5 0.138624 0.00218351
1.11376 0.5 -0.138624 0.00218411
0 0.5 -1.125 0.0120887
0 0.5 1.125 0.0117132
1.10076 0.5 0.244866 0.00227584
1.10076 0.5 -0.244866 0.00228358
0.411736 0.5 -1.05 0.0119485
0.411736 0.5 1.05 0.0115342
1.05695 0.5 -0.396841 0.00261424
1.05695 0.5 0.396841 0.00257525
1.00005 0.5 -0.524516 0.00322641
1.00005 0.5 0.524516 0.00315024
1.04168 0.5 -0.437497 0.00277902
1.04168 0.5 0.437497 0.00272744
0 0.5 -1.13118 0.0120987
0 0.5 1.13118 0.0117241
0.0124865 0.5 -1.13118 0.0129273
0.0124865 0.5 1.13118 0.0125221
1.11376 0.5 -0.207935 0.00221808
1.11376 0.5 0.207935 0.00221288
1.0271 0.5 -0.478694 0.00295262
1.0271 0.5 0.478694 0.0028885
0.151149 0.5 -1.125 0.0160705
0.151149 0.5 1.125 0.0154915
1.08112 0.5 -0.354722 0.00245844
1.08112 0.5 0.354722 0.00243406
1.13882 0.5 -0.0340295 0.00207403
1.13882 0.5 0.0340295 0.0020731
0.350249 0.5 -1.0875 0.0131444
0.350249 0.5 1.0875 0.0126787
1.13882 0.5 -0.102088 0.0020833
1.13882 0.5 0.102088 0.00207897
1.10076 0.5 -0.314829 0.00234109
1.10076 0.5 0.314829 0.00232824
0.756813 0.5 -0.8625 0.00598759
0.756814 0.5 0.8625 0.00571168
0.797732 0.5 -0.825 0.00545841
0.797732 0.5 0.825 0.00521123
1.11376 0.5 -0.277247 0.00226592
1.11376 0.5 0.277247 0.00225741
0.835106 0.5 0.7875 0.0047353
0.835106 0.5 -0.7875 0.00495274
0.715434 0.5 -0.9 0.00664247
0.715434 0.5 0.9 0.00633569
0.872064 0.5 -0.75 0.00453247
0.872064 0.5 0.75 0.00434048
1.13882 0.5 0.170147 0.00210767
1.13882 0.5 -0.170147 0.00210984
0.67013 0.5 -0.9375 0.00732274
0.67013 0.5 0.9375 0.00699057
0.905821 0.5 -0.7125 0.00412919
0.905821 0.5 0.7125 0.00396339
1.05695 0.5 0.468994 0.00266684
1.05695 0.5 -0.468994 0.00272634
0.939201 0.5 -0.675 0.0038654
0.939201 0.5 0.675 0.00376226
0.624316 0.5 0.975 0.00780262
0.624316 0.5 -0.975 0.00816841
1.04168 0.5 -0.510414 0.00289092
1.04168 0.5 0.510414 0.00283842
0.969689 0.5 -0.6375 0.00361597
0.96969 0.5 0.6375 0.00358347
0.288069 0.5 -1.125 0.0141825
0.288069 0.5 1.125 0.0136202
1.16179 0.5 5.78241e-19 0.0019913
1.08112 0.5 0.425666 0.00251057
1.08112 0.5 -0.425666 0.00255023
1.13882 0.5 -0.238206 0.00214764
1.13882 0.5 0.238206 0.00214385
1.16179 0.5 0.0669104 0.00198361
1.16179 0.5 -0.0669104 0.00199526
0.574156 0.5 -1.0125 0.00904615
0.574156 0.5 1.0125 0.00865302
0.075776 0.5 -1.1625 0.0171753
0.075776 0.5 1.1625 0.0166219
1.00005 0.5 -0.599447 0.0033682
1.00005 0.5 0.599447 0.00331105
1.10076 0.5 0.384791 0.00239397
1.10076 0.5 -0.384791 0.00241613
1.0271 0.5 -0.55234 0.00306868
1.0271 0.5 0.55234 0.00302094
1.11376 0.5 -0.346559 0.00233018
1.11376 0.5 0.346559 0.00231537
1.16179 0.5 -0.133821 0.00201135
1.16179 0.5 0.133821 0.00201013
0.523432 0.5 -1.05 0.0101066
0.523432 0.5 1.05 0.00967707
1.17463 0.5 -0.0331343 0.00194777
1.17463 0.5 0.0331343 0.00194729
1.17463 0.5 -0.0994029 0.00195414
1.17463 0.5 0.0994029 0.00195604
1.16179 0.5 -0.200731 0.00204106
1.16179 0.5 0.200731 0.00203993
1.13882 0.5 -0.306265 0.0022003
1.13882 0.5 0.306265 0.00219323
0.219992 0.5 -1.1625 0.0152248
0.219992 0.5 1.1625 0.0145872
0.467897 0.5 -1.0875 0.0112006
0.467897 0.5 1.0875 0.0107358
1.17463 0.5 0.165672 0.00197837
1.17463 0.5 -0.165672 0.0019779
1.05695 0.5 -0.541147 0.00281718
1.05695 0.5 0.541147 0.00277886
1.18772 0.5 -5.78241e-19 0.00190402
1.11376 0.5 -0.41587 0.00241406
1.11376 0.5 0.41587 0.00238826
1.18772 0.5 -0.065614 0.00190691
1.18772 0.5 0.065614 0.0019087
1.08112 0.5 -0.49661 0.00264426
1.08112 0.5 0.49661 0.00260577
1.10076 0.5 -0.454752 0.00251594
1.10076 0.5 0.454752 0.00247727
1.18534 0.5 0.118202 0.00192303
1.16179 0.5 -0.267642 0.00208263
1.16179 0.5 0.267642 0.00207977
0 0.5 -1.19382 0.0122047
0 0.5 1.19382 0.0118471
0.0124865 0.5 1.19382 0.012645
0.0124865 0.5 -1.19382 0.0130333
1.04168 0.5 -0.58333 0.00301805
1.04168 0.5 0.58333 0.0029756
1.18772 0.5 -0.131228 0.00192094
1.17463 0.5 -0.23194 0.0020108
1.17463 0.5 0.23194 0.00201065
0.411736 0.5 -1.125 0.0123339
0.411736 0.5 1.125 0.0118126
1.13882 0.5 -0.374324 0.00226835
1.13882 0.5 0.374324 0.00225518
0 0.5 -1.2 0.0122149
0 0.5 1.2 0.0118596
0.905821 0.5 0.7875 0.00417933
0.905821 0.5 -0.7875 0.00439268
0.872064 0.5 -0.825 0.00482184
0.872064 0.5 0.825 0.00458
0.835106 0.5 0.8625 0.00499368
0.835106 0.5 -0.8625 0.00527293
0.939201 0.5 -0.75 0.00409482
0.939201 0.5 0.75 0.00394042
0.797732 0.5 -0.9 0.00580566
0.797732 0.5 0.9 0.00549385
1.0271 0.5 0.625985 0.0031822
1.0271 0.5 -0.625985 0.00323256
0.969689 0.5 0.7125 0.00372923
0.96969 0.5 -0.7125 0.00382154
1.18772 0.5 -0.196842 0.00194771
1.18772 0.5 0.196842 0.00194922
0.756814 0.5 -0.9375 0.00636925
0.756814 0.5 0.9375 0.00601616
0 0.5 1.20618 0.0118728
0 0.5 -1.20618 0.0122262
1.00005 0.5 -0.674378 0.00354669
1.00005 0.5 0.674378 0.00347092
0.0124865 0.5 1.20618 0.0126787
0.0124865 0.5 -1.20618 0.0130621
1.16179 0.5 -0.334552 0.00213826
1.16179 0.5 0.334552 0.00213177
0.715434 0.5 0.975 0.00666291
0.715434 0.5 -0.975 0.00704851
0.151149 0.5 -1.2 0.0162877
0.151149 0.5 1.2 0.0156791
1.20942 0.5 0.0322645 0.00182875
1.20942 0.5 -0.0322645 0.00182956
1.17463 0.5 -0.298209 0.00205718
1.17463 0.5 0.298209 0.00205508
1.20942 0.5 -0.0967935 0.00183405
1.20942 0.5 0.0967935 0.00183767
0.350249 0.5 -1.1625 0.0134649
0.350249 0.5 1.1625 0.0128779
0.67013 0.5 1.0125 0.00733822
0.67013 0.5 -1.0125 0.00775997
1.11376 0.5 0.485183 0.00247799
1.11376 0.5 -0.485183 0.00250194
1.18772 0.5 0.262456 0.00198595
1.18772 0.5 -0.262456 0.00198525
1.10076 0.5 -0.524714 0.00259757
1.10076 0.5 0.524714 0.00257794
1.20942 0.5 -0.161322 0.00185424
1.20942 0.5 0.161322 0.00185774
1.08112 0.5 -0.567554 0.00275095
1.08112 0.5 0.567554 0.00272269
0.624316 0.5 -1.05 0.00862652
0.624316 0.5 1.05 0.00816728
1.13882 0.5 -0.442383 0.00235358
1.13882 0.5 0.442383 0.00233254
1.05695 0.5 0.6133 0.00291747
1.05695 0.5 -0.6133 0.00296136
1.16179 0.5 -0.401463 0.00220908
1.16179 0.5 0.401463 0.00219685
0.574156 0.5 -1.0875 0.00952532
0.574156 0.5 1.0875 0.00903248
1.17463 0.5 0.364477 0.00211093
1.17463 0.5 -0.364477 0.00211706
1.20942 0.5 -0.225851 0.00188238
1.20942 0.5 0.225851 0.00188637
1.23036 0.5 -1.32995e-17 0.0017621
1.2294 0.5 0.0634819 0.00176883
1.04168 0.5 -0.656246 0.00319135
1.04168 0.5 0.656246 0.00311413
1.23036 0.5 -0.0634819 0.00176339
1.18772 0.5 0.32807 0.0020341
1.18772 0.5 -0.32807 0.00203582
0.288069 0.5 -1.2 0.014496
0.288069 0.5 1.2 0.0138238
1.23036 0.5 -0.126964 0.00177449
1.23036 0.5 0.126964 0.00177919
0.075776 0.5 -1.2375 0.0173587
0.075776 0.5 1.2375 0.0168343
0.523432 0.5 -1.125 0.0105782
0.523432 0.5 1.125 0.0100413
1.0271 0.5 -0.69963 0.00343555
1.0271 0.5 0.69963 0.00332169
1.24274 0.5 0.0314313 0.00172445
1.24274 0.5 -0.0314313 0.00172325
1.20942 0.5 0.29038 0.00192589
1.20942 0.5 -0.29038 0.00192245
1.11376 0.5 -0.554494 0.00260001
1.11376 0.5 0.554494 0.00258581
1.23036 0.5 -0.190445 0.00179668
1.23036 0.5 0.190445 0.00180212
1.24274 0.5 -0.0942942 0.00172612
1.24274 0.5 0.0942942 0.00173146
1.13882 0.5 0.510442 0.00242544
1.13882 0.5 -0.510442 0.00243245
0.969689 0.5 -0.7875 0.00404671
0.969689 0.5 0.7875 0.00389825
1.00005 0.5 -0.749309 0.00376787
1.00005 0.5 0.749309 0.00363442
0.939201 0.5 -0.825 0.00435263
0.939201 0.5 0.825 0.00415009
0.90582 0.5 0.8625 0.00443296
0.90582 0.5 -0.8625 0.00469067
1.17463 0.5 -0.430746 0.00219178
1.17463 0.5 0.430746 0.00218066
1.10076 0.5 -0.594676 0.00271831
1.10076 0.5 0.594676 0.00270147
1.18772 0.5 -0.393684 0.00210036
1.18772 0.5 0.393684 0.00209445
1.24274 0.5 -0.157157 0.00174361
1.24274 0.5 0.157157 0.00175009
1.16179 0.5 -0.468373 0.00228693
1.16179 0.5 0.468373 0.00227674
0.467897 0.5 -1.1625 0.0116399
0.467897 0.5 1.1625 0.0110719
0.872064 0.5 -0.9 0.00515031
0.872064 0.5 0.9 0.00485337
1.25401 0.5 2.08167e-17 0.00169306
0.835106 0.5 0.9375 0.00528479
0.835106 0.5 -0.9375 0.00562392
1.25401 0.5 -0.0622994 0.00169363
1.25401 0.5 0.0622994 0.00169672
1.08112 0.5 -0.638498 0.0028997
1.08112 0.5 0.638498 0.00284397
1.23036 0.5 -0.253927 0.00182794
1.23036 0.5 0.253927 0.00183391
0.219992 0.5 1.2375 0.0148097
0.219992 0.5 -1.2375 0.0155196
1.25309 0.5 0.121964 0.0017094
1.05695 0.5 0.685452 0.00303312
1.05695 0.5 -0.685452 0.0031417
0.797732 0.5 0.975 0.00580571
0.797732 0.5 -0.975 0.00618988
1.25401 0.5 -0.124599 0.00170323
1.20942 0.5 -0.354909 0.00197508
1.20942 0.5 0.354909 0.00197604
1.24274 0.5 -0.220019 0.00176809
1.24274 0.5 0.220019 0.00177601
0.756814 0.5 -1.0125 0.00678757
0.756813 0.5 1.0125 0.00635308
1.25401 0.5 -0.186898 0.00172325
1.25401 0.5 0.186898 0.00173092
0.411736 0.5 -1.2 0.0127596
0.411736 0.5 1.2 0.0120928
0 0.5 -1.26882 0.0123653
0 0.5 1.26882 0.0120328
0.0124865 0.5 1.26882 0.0128386
0.0124865 0.5 -1.26882 0.0132012
0.715434 0.5 -1.05 0.00749603
0.715434 0.5 1.05 0.00701941
1.23036 0.5 -0.31741 0.0018707
1.23036 0.5 0.31741 0.00187581
1.04168 0.5 -0.729162 0.00339892
1.04168 0.5 0.729162 0.0032638
1.18772 0.5 -0.459298 0.00217491
1.18772 0.5 0.459298 0.00216888
1.24274 0.5 -0.282882 0.00180274
1.24274 0.5 0.282882 0.00181149
0 0.5 -1.275 0.0123809
0 0.5 1.275 0.0120504
1.27472 0.5 -0.0306319 0.00162555
1.27472 0.5 0.0306319 0.00162736
1.17463 0.5 0.497015 0.00226524
1.17463 0.5 -0.497015 0.00226705
1.11376 0.5 -0.623806 0.00273283
1.11376 0.5 0.623806 0.00270356
1.13882 0.5 -0.578501 0.00254038
1.13882 0.5 0.578501 0.00253252
0.67013 0.5 -1.0875 0.00824132
0.67013 0.5 1.0875 0.00771394
1.27472 0.5 -0.0918959 0.0016276
1.27472 0.5 0.0918959 0.00164606
1.25401 0.5 -0.249197 0.00175154
1.25401 0.5 0.249197 0.0017606
1.16179 0.5 -0.535284 0.00237328
1.16179 0.5 0.535284 0.00236979
1.20942 0.5 -0.419438 0.00204227
1.20942 0.5 0.419438 0.00203859
0 0.5 -1.28118 0.0123972
0 0.5 1.28118 0.0120686
0.0124865 0.5 1.28118 0.012887
0.0124865 0.5 -1.28118 0.0132455
1.27472 0.5 0.15316 0.00165052
1.27472 0.5 -0.15316 0.00164204
0.151149 0.5 -1.275 0.0165648
0.151149 0.5 1.275 0.0159363