# nutMean  POINT_DATA 63140
# x  y  z  nutMean
0 0.1 0 0.00531219
0 0.1 -0.0179898 0.00532115
0 0.1 0.0179898 0.00530347
0.0363518 0.1 0.0179898 0.0117993
0.0363518 0.1 -0.0179898 0.0115537
0 0.1 -0.0570102 0.00534973
0 0.1 0.0570102 0.00529669
0.0363518 0.1 0.0570102 0.0117925
0.0363518 0.1 -0.0570102 0.0115822
0 0.1 -0.075 0.00536709
0 0.1 0.075 0.00529902
0.075776 0.1 -0.0375 0.018147
0.075776 0.1 0.0375 0.0186564
0 0.1 -0.0929898 0.00538549
0 0.1 0.0929898 0.00530138
0.0363518 0.1 -0.0929898 0.0110506
0.0363518 0.1 0.0929898 0.0114867
0 0.1 -0.13201 0.00541997
0 0.1 0.13201 0.0053146
0.075776 0.1 -0.1125 0.0170376
0.075776 0.1 0.1125 0.0180301
0.0363518 0.1 -0.13201 0.0110851
0.0363518 0.1 0.13201 0.0114999
0 0.1 -0.15 0.00543415
0 0.1 0.15 0.00532402
0.150379 0.1 -2.22623e-17 0.0176184
0 0.1 -0.16799 0.00545012
0 0.1 0.16799 0.00533404
0.150379 0.1 -0.075 0.0162653
0.150379 0.1 0.075 0.0175529
0.0363518 0.1 -0.16799 0.0103941
0.0363518 0.1 0.16799 0.0107586
0.075776 0.1 -0.1875 0.0156453
0.075776 0.1 0.1875 0.0164992
0 0.1 -0.20701 0.00547019
0 0.1 0.20701 0.00535591
0.0363518 0.1 -0.20701 0.0104142
0.0363518 0.1 0.20701 0.0107804
0.150379 0.1 -0.15 0.0146754
0.150379 0.1 0.15 0.0160495
0.219993 0.1 -0.0375 0.0165198
0.219993 0.1 0.0375 0.0172163
0 0.1 -0.225 0.00547509
0 0.1 0.225 0.00536636
0 0.1 -0.24299 0.00548125
0 0.1 0.24299 0.00537816
0.0363518 0.1 0.24299 0.0100062
0.0363518 0.1 -0.24299 0.0100251
0.219993 0.1 -0.1125 0.0134567
0.219993 0.1 0.1125 0.0163725
0.150379 0.1 -0.225 0.0139257
0.150379 0.1 0.225 0.0143031
0.075776 0.1 -0.2625 0.0148801
0.075776 0.1 0.2625 0.0149321
0 0.1 -0.28201 0.00548444
0 0.1 0.28201 0.00539221
0.0363518 0.1 -0.28201 0.0100283
0.0363518 0.1 0.28201 0.0100202
0.287374 0.1 -2.89121e-19 0.0134889
0.219992 0.1 0.1875 0.013382
0.219992 0.1 -0.1875 0.012685
0.287374 0.1 -0.075 0.0124477
0.287374 0.1 0.075 0.0134838
0 0.1 -0.3 0.00548295
0 0.1 0.3 0.00539499
0 0.1 0.31799 0.00539898
0 0.1 -0.31799 0.0054819
0.0363518 0.1 -0.31799 0.00976757
0.0363518 0.1 0.31799 0.00954483
0.287374 0.1 0.15 0.012469
0.287374 0.1 -0.15 0.0114072
0.150379 0.1 -0.3 0.0135032
0.150379 0.1 0.3 0.01339
0.219993 0.1 0.2625 0.0124986
0.219993 0.1 -0.2625 0.0125976
0.075776 0.1 -0.3375 0.0143467
0.075776 0.1 0.3375 0.0139796
0.350249 0.1 -0.0375 0.0101664
0.350249 0.1 0.0375 0.0103334
0 0.1 -0.35701 0.0054741
0 0.1 0.35701 0.00539789
0.0363518 0.1 -0.35701 0.00975977
0.0363518 0.1 0.35701 0.00954374
0.287374 0.1 -0.225 0.0111888
0.287374 0.1 0.225 0.0114078
0.350249 0.1 -0.1125 0.0098565
0.350249 0.1 0.1125 0.0102821
0 0.1 -0.375 0.00546871
0 0.1 0.375 0.00539427
0 0.1 -0.39299 0.00546363
0 0.1 0.39299 0.00539126
0.0363518 0.1 -0.39299 0.00947381
0.0363518 0.1 0.39299 0.00927016
0.350249 0.1 -0.1875 0.00976706
0.350249 0.1 0.1875 0.0100275
0.219992 0.1 -0.3375 0.012276
0.219992 0.1 0.3375 0.0122289
0.150379 0.1 0.375 0.013017
0.150379 0.1 -0.375 0.0134489
0.411108 0.1 4.33681e-19 0.00848867
0.287374 0.1 -0.3 0.011136
0.287374 0.1 0.3 0.0110867
0.411108 0.1 -0.075 0.00835969
0.411108 0.1 0.075 0.00853068
0.075776 0.1 -0.4125 0.0137662
0.075776 0.1 0.4125 0.0134237
0 0.1 0.43201 0.00537896
0 0.1 -0.43201 0.00544395
0.0363518 0.1 0.43201 0.00925786
0.0363518 0.1 -0.43201 0.00945413
0.411108 0.1 -0.15 0.00825785
0.411108 0.1 0.15 0.00846531
0.350249 0.1 -0.2625 0.00983035
0.350249 0.1 0.2625 0.00984257
0 0.1 -0.45 0.00543163
0 0.1 0.45 0.00537139
0.219992 0.1 0.4125 0.0124859
0.219992 0.1 -0.4125 0.013453
0 0.1 -0.46799 0.00541911
0 0.1 0.46799 0.00536399
0.411108 0.1 -0.225 0.00827381
0.411108 0.1 0.225 0.00836725
0.467897 0.1 -0.0375 0.00678305
0.467897 0.1 0.0375 0.00681218
0.0363518 0.1 0.46799 0.00900549
0.0363518 0.1 -0.46799 0.00918933
0.287374 0.1 -0.375 0.0114172
0.287374 0.1 0.375 0.0111316
0.150379 0.1 0.45 0.0132067
0.150379 0.1 -0.45 0.0136497
0.467897 0.1 0.1125 0.0068368
0.467897 0.1 -0.1125 0.00676361
0.350249 0.1 -0.3375 0.00995085
0.350249 0.1 0.3375 0.00988252
0.075776 0.1 -0.4875 0.0132273
0.075776 0.1 0.4875 0.0129113
0.467897 0.1 0.1875 0.0068488
0.467897 0.1 -0.1875 0.0067674
0 0.1 -0.50701 0.00539231
0 0.1 0.50701 0.00534264
0.0363518 0.1 -0.50701 0.00916253
0.0363518 0.1 0.50701 0.00898414
0.411108 0.1 0.3 0.00835431
0.411108 0.1 -0.3 0.00837176
0.522865 0.1 1.41031e-17 0.00586141
0 0.1 -0.525 0.00538018
0 0.1 0.525 0.00533079
0.522865 0.1 -0.075 0.00585557
0.522865 0.1 0.075 0.00588034
0.287374 0.1 0.45 0.0116643
0.287374 0.1 -0.45 0.0119614
0.219992 0.1 0.4875 0.0139996
0.219992 0.1 -0.4875 0.0141363
0.467897 0.1 -0.2625 0.00685286
0.467897 0.1 0.2625 0.00687402
0.350249 0.1 -0.4125 0.0101214
0.350249 0.1 0.4125 0.0100347
0 0.1 -0.54299 0.00536728
0 0.1 0.54299 0.00531857
0.522865 0.1 0.15 0.00590531
0.522865 0.1 -0.15 0.00586981
0.0363518 0.1 0.54299 0.00876093
0.0363518 0.1 -0.54299 0.00892509
0.150379 0.1 -0.525 0.0135516
0.150379 0.1 0.525 0.0134521
0.411108 0.1 -0.375 0.00851728
0.411108 0.1 0.375 0.00845332
0.075776 0.1 -0.5625 0.0127399
0.075776 0.1 0.5625 0.0124556
0.522865 0.1 -0.225 0.00592429
0.522865 0.1 0.225 0.00593961
0.574156 0.1 0.0375 0.00496068
0.574157 0.1 -0.0375 0.00496081
0.467897 0.1 -0.3375 0.00697657
0.467897 0.1 0.3375 0.00693837
0 0.1 -0.58201 0.00534218
0 0.1 0.58201 0.00529369
0.0363518 0.1 -0.58201 0.00889999
0.0363518 0.1 0.58201 0.00873605
0.574157 0.1 -0.1125 0.00498442
0.574157 0.1 0.1125 0.00498346
0.287374 0.1 -0.525 0.012188
0.287374 0.1 0.525 0.0122506
0 0.1 -0.6 0.0053314
0 0.1 0.6 0.0052828
0.350249 0.1 0.4875 0.0102824
0.350249 0.1 -0.4875 0.0103065
0.522865 0.1 -0.3 0.00602442
0.522865 0.1 0.3 0.00599821
0.219992 0.1 -0.5625 0.0140484
0.219992 0.1 0.5625 0.0143747
0.574156 0.1 -0.1875 0.00503171
0.574156 0.1 0.1875 0.00502338
0.411108 0.1 0.45 0.00863985
0.411108 0.1 -0.45 0.00869973
0 0.1 -0.61799 0.00531973
0 0.1 0.61799 0.00527121
0.150379 0.1 -0.6 0.0132469
0.150379 0.1 0.6 0.0132717
0.0363518 0.1 -0.61799 0.00869059
0.0363518 0.1 0.61799 0.00853932
0.467897 0.1 -0.4125 0.00714588
0.467897 0.1 0.4125 0.00707911
0.623803 0.1 2.34188e-17 0.00441859
0.623803 0.1 0.075 0.0044269
0.623803 0.1 -0.075 0.0044339
0.574156 0.1 0.2625 0.00508214
0.574156 0.1 -0.2625 0.00511255
0.623803 0.1 0.15 0.00445674
0.623803 0.1 -0.15 0.00447258
0.075776 0.1 0.6375 0.012051
0.075776 0.1 -0.6375 0.0123086
0.522865 0.1 -0.375 0.00616218
0.522865 0.1 0.375 0.00610015
0 0.1 0.65701 0.00524939
0 0.1 -0.65701 0.00529744
0.0363518 0.1 0.65701 0.00851751
0.0363518 0.1 -0.65701 0.0086683
0.350249 0.1 0.5625 0.0105231
0.350249 0.1 -0.5625 0.0104329
0.623803 0.1 0.225 0.00450564
0.623803 0.1 -0.225 0.00453491
0.287374 0.1 -0.6 0.0121671
0.287374 0.1 0.6 0.0123788
0.574157 0.1 -0.3375 0.00522374
0.574157 0.1 0.3375 0.00516721
0.411108 0.1 0.525 0.00887857
0.411108 0.1 -0.525 0.00888137
0.67013 0.1 0.0375 0.00389182
0.67013 0.1 -0.0375 0.00389905
0.219992 0.1 -0.6375 0.013822
0.219993 0.1 0.6375 0.0141133
0 0.1 -0.675 0.00528787
0 0.1 0.675 0.00524041
0.467897 0.1 -0.4875 0.0073525
0.467897 0.1 0.4875 0.00728755
0.67013 0.1 -0.1125 0.00392906
0.67013 0.1 0.1125 0.00390988
0.522865 0.1 0.45 0.00625784
0.522865 0.1 -0.45 0.00633894
0.150379 0.1 0.675 0.0129333
0.150379 0.1 -0.675 0.0129372
0.623803 0.1 0.3 0.00457751
0.623803 0.1 -0.3 0.00462715
0 0.1 -0.69299 0.00527738
0 0.1 0.69299 0.00523064
0.0363518 0.1 -0.69299 0.00849182
0.0363518 0.1 0.69299 0.00834858
0.67013 0.1 -0.1875 0.00398265
0.67013 0.1 0.1875 0.00394855
0.574156 0.1 0.4125 0.00528514
0.574157 0.1 -0.4125 0.00537166
0.714971 0.1 -2.8382e-17 0.00353719
0.075776 0.1 -0.7125 0.011945
0.075776 0.1 0.7125 0.0117025
0.714971 0.1 -0.075 0.00355626
0.714971 0.1 0.075 0.00354094
0.67013 0.1 0.2625 0.00400681
0.67013 0.1 -0.2625 0.00405038
0.411108 0.1 -0.6 0.00903476
0.411108 0.1 0.6 0.00910454
0.350249 0.1 0.6375 0.0106704
0.350249 0.1 -0.6375 0.0105224
0.623803 0.1 0.375 0.00467475
0.623803 0.1 -0.375 0.00475228
0.714971 0.1 -0.15 0.00359713
0.714971 0.1 0.15 0.00356697
0.467897 0.1 -0.5625 0.00755986
0.467897 0.1 0.5625 0.00754797
0 0.1 -0.73201 0.00525805
0 0.1 0.73201 0.00521271
0.0363518 0.1 0.73201 0.00833065
0.0363518 0.1 -0.73201 0.00847249
0.287374 0.1 -0.675 0.0121046
0.287374 0.1 0.675 0.0122901
0.522865 0.1 -0.525 0.00654342
0.522865 0.1 0.525 0.00646855
0.219993 0.1 -0.7125 0.013596
0.219992 0.1 0.7125 0.0137695
0.714971 0.1 -0.225 0.00365799
0.714971 0.1 0.225 0.00361266
0 0.1 0.75 0.0052055
0 0.1 -0.75 0.0052501
0.67013 0.1 -0.3375 0.00415991
0.67013 0.1 0.3375 0.00409218
0.574156 0.1 -0.4875 0.00555615
0.574157 0.1 0.4875 0.00545049
0.756813 0.1 0.0375 0.00318558
0.756814 0.1 -0.0375 0.00319522
0.150379 0.1 0.746002 0.0126074
0.150379 0.1 -0.75 0.0126688
0.756813 0.1 -0.1125 0.0032246
0.756813 0.1 0.1125 0.0031995
0 0.1 0.76799 0.00519747
0 0.1 -0.76799 0.00524125
0.0363518 0.1 0.76799 0.00819176
0.0363518 0.1 -0.76799 0.00832841
0.623803 0.1 -0.45 0.00490865
0.623803 0.1 0.45 0.00480612
0.714971 0.1 -0.3 0.0037431
0.714971 0.1 0.3 0.0036803
0.756814 0.1 -0.1875 0.00327517
0.756814 0.1 0.1875 0.00323312
0.67013 0.1 -0.4125 0.00429215
0.67013 0.1 0.4125 0.0041931
0.411108 0.1 0.675 0.00928239
0.411108 0.1 -0.675 0.00918055
0.467897 0.1 0.6375 0.00780189
0.467897 0.1 -0.6375 0.00774568
0.075776 0.1 0.7875 0.0114157
0.075776 0.1 -0.7875 0.011648
0.350249 0.1 -0.7125 0.0106198
0.350249 0.1 0.7125 0.0107536
0.522865 0.1 -0.6 0.0067604
0.522865 0.1 0.6 0.00671121
0.797314 0.1 -3.59473e-17 0.00293684
0.287374 0.1 0.746002 0.0122015
0.797314 0.1 -0.075 0.00295553
0.797314 0.1 0.075 0.00293822
0.756814 0.1 -0.2625 0.0033467
0.756814 0.1 0.2625 0.00328549
0.287374 0.1 -0.75 0.0120572
0.574156 0.1 -0.5625 0.00577581
0.574156 0.1 0.5625 0.0056614
0 0.1 0.80701 0.00518334
0 0.1 -0.80701 0.00522552
0.714971 0.1 -0.375 0.00385575
0.714971 0.1 0.375 0.00377012
0.0363518 0.1 0.80701 0.00817764
0.0363518 0.1 -0.80701 0.00831268
0.797314 0.1 -0.15 0.00299345
0.797314 0.1 0.15 0.00295992
0.623803 0.1 -0.525 0.00509813
0.623803 0.1 0.525 0.00497933
0.219992 0.1 0.7875 0.0134626
0.219992 0.1 -0.7875 0.0134026
0.149792 0.1 0.80701 0.0124032
0 0.1 0.825 0.00517803
0 0.1 -0.825 0.00521941
0.797314 0.1 -0.225 0.00305171
0.797314 0.1 0.225 0.00299991
0.756813 0.1 -0.3375 0.00343855
0.756813 0.1 0.3375 0.00336029
0.67013 0.1 0.4875 0.0043352
0.67013 0.1 -0.4875 0.00445374
0.835106 0.1 -0.0375 0.0026954
0.835106 0.1 0.0375 0.00268574
0.150379 0.1 -0.825 0.0124466
0.835106 0.1 -0.1125 0.00272154
0.835106 0.1 0.1125 0.00269669
0 0.1 -0.84299 0.00521239
0 0.1 0.84299 0.00517187
0.0363518 0.1 -0.84299 0.00819934
0.0363518 0.1 0.84299 0.00806881
0.714971 0.1 -0.45 0.00399464
0.714971 0.1 0.45 0.00388455
0.411108 0.1 0.746002 0.00944807
0.797314 0.1 -0.3 0.00312783
0.797314 0.1 0.3 0.00305892
0.467897 0.1 -0.7125 0.00794985
0.467897 0.1 0.7125 0.00802405
0.522865 0.1 0.675 0.00696024
0.522865 0.1 -0.675 0.00699412
0.411108 0.1 -0.75 0.00935585
0.835106 0.1 -0.1875 0.00276724
0.835107 0.1 0.1875 0.00272512
0.286844 0.1 0.80701 0.0121026
0.574156 0.1 0.6375 0.00590794
0.574157 0.1 -0.6375 0.00602826
0.350249 0.1 -0.7875 0.0107366
0.350249 0.1 0.7875 0.0108261
0.756813 0.1 -0.4125 0.00355608
0.756814 0.1 0.4125 0.00345871
0.623803 0.1 -0.6 0.00532043
0.623803 0.1 0.6 0.00518925
0.075776 0.1 0.8625 0.011191
0.075776 0.1 -0.8625 0.0114142
0.871687 0.1 -3.2767e-18 0.00250211
0.287374 0.1 -0.825 0.0120341
0.871687 0.1 -0.075 0.00251913
0.871687 0.1 0.075 0.00250218
0.67013 0.1 -0.5625 0.0046468
0.67013 0.1 0.5625 0.00451082
0.835106 0.1 0.2625 0.0027708
0.835106 0.1 -0.2625 0.00283262
0.797314 0.1 -0.375 0.00322544
0.797314 0.1 0.375 0.00313976
0 0.1 -0.88201 0.00520069
0 0.1 0.88201 0.00516177
0.0363518 0.1 0.88201 0.00805872
0.0363518 0.1 -0.88201 0.00818764
0.871687 0.1 0.15 0.00252011
0.871687 0.1 -0.15 0.00255308
0.714971 0.1 0.525 0.00403055
0.714971 0.1 -0.525 0.00416255
0.219993 0.1 0.8625 0.0132257
0.219992 0.1 -0.8625 0.0132332
0 0.1 0.9 0.00515846
0 0.1 -0.9 0.00519665
0.756813 0.1 0.4875 0.00357547
0.756814 0.1 -0.4875 0.00370084
0.871687 0.1 0.225 0.00255444
0.871687 0.1 -0.225 0.00260549
0.835106 0.1 -0.3375 0.00290868
0.835106 0.1 0.3375 0.00283425
0.41063 0.1 0.80701 0.00954958
0.90582 0.1 -0.0375 0.00232315
0.905821 0.1 0.0375 0.0023137
0.522865 0.1 0.746002 0.0072154
0.150379 0.1 0.9 0.0121442
0.90582 0.1 0.1125 0.00232219
0.905821 0.1 -0.1125 0.00234603
0.522865 0.1 -0.75 0.00726237
0.574156 0.1 0.7125 0.00617999
0.574156 0.1 -0.7125 0.00631628
0.797314 0.1 -0.45 0.00334897
0.797314 0.1 0.45 0.00323957
0.467897 0.1 -0.7875 0.00822608
0.467897 0.1 0.7875 0.00823277
0.150379 0.1 -0.903998 0.0123051
0 0.1 0.91799 0.00515426
0 0.1 -0.91799 0.00519166
0.0363518 0.1 0.91799 0.00797845
0.0363518 0.1 -0.91799 0.00810189
0.623803 0.1 0.675 0.00542968
0.623803 0.1 -0.675 0.00557597
0.411108 0.1 -0.825 0.0095714
0.871687 0.1 0.3 0.00260514
0.871687 0.1 -0.3 0.00267166
0.67013 0.1 -0.6375 0.00487178
0.67013 0.1 0.6375 0.00471882
0.90582 0.1 -0.1875 0.00238723
0.90582 0.1 0.1875 0.00234611
0.350249 0.1 0.8625 0.0109181
0.350249 0.1 -0.8625 0.0108758
0.835106 0.1 -0.4125 0.0030141
0.835106 0.1 0.4125 0.0029213
0.714971 0.1 -0.6 0.00436065
0.714971 0.1 0.6 0.00420894
0.93886 0.1 -1.15648e-17 0.00221414
0.075776 0.1 0.9375 0.011025
0.075776 0.1 -0.9375 0.0112372
0.93886 0.1 0.075 0.00221396
0.93886 0.1 -0.075 0.0022289
0.756813 0.1 0.5625 0.00372588
0.756814 0.1 -0.5625 0.00387368
0.905821 0.1 -0.2625 0.00244473
0.905821 0.1 0.2625 0.00238553
0.287374 0.1 0.9 0.0120284
0.287374 0.1 -0.903998 0.0120115
0.871687 0.1 0.375 0.00267512
0.871687 0.1 -0.375 0.00275755
0.93886 0.1 -0.15 0.00225865
0.93886 0.1 0.15 0.00222952
0.797314 0.1 0.525 0.00336324
0.797314 0.1 -0.525 0.00349782
0 0.1 0.95701 0.00514832
0 0.1 -0.95701 0.00518426
0.0363518 0.1 0.95701 0.00797251
0.0363518 0.1 -0.95701 0.00809448
0.522433 0.1 0.80701 0.00741101
0.219992 0.1 0.9375 0.0130362
0.219992 0.1 -0.9375 0.013105
0.93886 0.1 0.225 0.00225955
0.93886 0.1 -0.225 0.00230449
0.90582 0.1 0.3375 0.00243999
0.905821 0.1 -0.3375 0.0025107
0.835106 0.1 -0.4875 0.00314095
0.835107 0.1 0.4875 0.00301876
0.969689 0.1 -0.0375 0.00211601
0.969689 0.1 0.0375 0.00210807
0.61613 0.1 0.75 0.00569582
0.574156 0.1 -0.7875 0.0066191
0.574156 0.1 0.7875 0.00647376
0 0.1 0.975 0.00514704
0 0.1 -0.975 0.00518232
0.623803 0.1 -0.75 0.00586064
0.969689 0.1 -0.1125 0.00213484
0.969689 0.1 0.1125 0.00211621
0.522865 0.1 -0.825 0.00755945
0.67013 0.1 0.7125 0.00495528
0.67013 0.1 -0.7125 0.00512944
0.871687 0.1 -0.45 0.00286902
0.871687 0.1 0.45 0.00276131
0.467897 0.1 0.8625 0.00847394
0.467897 0.1 -0.8625 0.0085495
0.714971 0.1 -0.675 0.00459012
0.714971 0.1 0.675 0.0044168
0.93886 0.1 -0.3 0.00236339
0.93886 0.1 0.3 0.00230383
0.150379 0.1 0.975 0.0119917
0.150379 0.1 -0.975 0.0121422
0.969689 0.1 -0.1875 0.00217102
0.969689 0.1 0.1875 0.00213793
0.411108 0.1 0.9 0.00976987
0.756813 0.1 0.6375 0.00390632
0.756814 0.1 -0.6375 0.00407593
0.990306 0.1 -2.19732e-17 0.00203096
0 0.1 0.99299 0.00514482
0 0.1 -0.99299 0.0051794
0.411108 0.1 -0.903998 0.00976325
0.990306 0.1 -0.075 0.0020437
0.990306 0.1 0.075 0.00203102
0.0363518 0.1 0.99299 0.00791734
0.0363518 0.1 -0.99299 0.00803366
0.90582 0.1 -0.4125 0.00260708
0.905821 0.1 0.4125 0.00251522
0.797314 0.1 -0.6 0.0036746
0.797314 0.1 0.6 0.0035172
0.350249 0.1 0.9375 0.0110299
0.350249 0.1 -0.9375 0.0110291
0.990306 0.1 0.15 0.00204526
0.990306 0.1 -0.15 0.00207016
0.969689 0.1 -0.2625 0.00221965
0.969689 0.1 0.2625 0.00217304
0.835106 0.1 -0.5625 0.00329253
0.835106 0.1 0.5625 0.00314941
0.93886 0.1 -0.375 0.00244452
0.93886 0.1 0.375 0.00236405
0.075776 0.1 1.0125 0.0109109
0.075776 0.1 -1.0125 0.0111115
0.990306 0.1 -0.225 0.00211112
0.990306 0.1 0.225 0.00207272
0.287374 0.1 0.975 0.0120101
0.287374 0.1 -0.975 0.0120651
0.871687 0.1 -0.525 0.00300356
0.871687 0.1 0.525 0.00286877
1.02149 0.1 -0.0369628 0.00188062
1.02149 0.1 0.0369628 0.00187456
0.969689 0.1 -0.3375 0.00228328
0.969689 0.1 0.3375 0.0022213
1.02149 0.1 -0.110888 0.00189699
1.02149 0.1 0.110888 0.0018806
0.90582 0.1 0.4875 0.00260057
0.90582 0.1 -0.4875 0.00272455
0.623803 0.1 0.819003 0.00586456
0 0.1 1.03201 0.00514305
0 0.1 -1.03201 0.00517601
0.0363518 0.1 1.03201 0.00791557
0.0363518 0.1 -1.03201 0.00803027
0.67013 0.1 -0.7875 0.00542043
0.67013 0.1 0.7875 0.00521862
0.623803 0.1 -0.825 0.0061626
0.990306 0.1 -0.3 0.0021663
0.990306 0.1 0.3 0.00211326
0.219992 0.1 -1.0125 0.0130218
0.219993 0.1 1.0125 0.012897
0.574156 0.1 0.8625 0.0067879
0.574157 0.1 -0.8625 0.0069061
0.714971 0.1 -0.75 0.00485389
0.714971 0.1 0.75 0.00465187
1.02149 0.1 0.184814 0.00189921
1.02149 0.1 -0.184814 0.00192793
0.756814 0.1 -0.7125 0.00430965
0.756814 0.1 0.7125 0.00411383
0.522865 0.1 0.9 0.00776452
0.93886 0.1 -0.45 0.00255118
0.93886 0.1 0.45 0.00244009
1.04168 0.1 0 0.00180426
1.04168 0.1 -0.0729162 0.00181419
1.04168 0.1 0.0729162 0.001804
0.522865 0.1 -0.903998 0.00782887
0.797314 0.1 -0.675 0.00388118
0.797314 0.1 0.675 0.00369767
0.467897 0.1 0.9375 0.00875763
0.467897 0.1 -0.9375 0.00888624
0 0.1 1.05 0.00514379
0 0.1 -1.05 0.00517589
0.835106 0.1 -0.6375 0.00347361
0.835106 0.1 0.6375 0.00330447
1.04168 0.1 -0.145832 0.001835
1.04168 0.1 0.145832 0.00181444
1.02149 0.1 -0.25874 0.00197085
1.02149 0.1 0.25874 0.0019298
0.969689 0.1 -0.4125 0.00238184
0.969689 0.1 0.4125 0.00228443
0.411108 0.1 0.975 0.00997672
0.411108 0.1 -0.975 0.0100553
0.871687 0.1 -0.6 0.00316517
0.871687 0.1 0.6 0.00300418
1.0579 0.1 -0.0360525 0.00175356
1.0579 0.1 0.0360525 0.00174866
0.990306 0.1 -0.375 0.00224455
0.990306 0.1 0.375 0.00216761
0.150379 0.1 1.05 0.0118876
0.150379 0.1 -1.05 0.0120594
1.0579 0.1 0.108157 0.00175269
1.0579 0.1 -0.108157 0.00176684
1.04168 0.1 -0.218749 0.00186737
1.04168 0.1 0.218749 0.00183558
0.90582 0.1 -0.5625 0.00286709
0.90582 0.1 0.5625 0.00271729
0 0.1 -1.06799 0.00517473
0 0.1 1.06799 0.00514354
0.0363518 0.1 -1.06799 0.00799027
0.0363518 0.1 1.06799 0.0078828
0.350249 0.1 1.0125 0.0111608
0.350249 0.1 -1.0125 0.0111915
1.0579 0.1 -0.180262 0.00179078
1.0579 0.1 0.180262 0.0017661
1.02149 0.1 -0.332665 0.00203125
1.02149 0.1 0.332665 0.00197296
0.93886 0.1 -0.525 0.00267656
0.93886 0.1 0.525 0.00253692
1.08012 0.1 5.49329e-18 0.00169059
1.04168 0.1 -0.291665 0.00191287
1.04168 0.1 0.291665 0.0018675
1.08012 0.1 0.0709941 0.0016904
1.08012 0.1 -0.0709941 0.00169866
0.969689 0.1 -0.4875 0.00249606
0.96969 0.1 0.4875 0.0023651
1.0579 0.1 0.252367 0.00178872
1.0579 0.1 -0.252367 0.00182418
0.990306 0.1 -0.45 0.00234651
0.990306 0.1 0.45 0.00223839
0.287374 0.1 -1.05 0.0121246
0.287374 0.1 1.05 0.012027
0.714971 0.1 0.821002 0.00488589
1.08012 0.1 -0.141988 0.00171563
1.08012 0.1 0.141988 0.00169871
0.075776 0.1 1.0875 0.0108429
0.075776 0.1 -1.0875 0.0110286
0.714971 0.1 -0.825 0.00515349
0.756813 0.1 -0.7875 0.00458291
0.756814 0.1 0.7875 0.00434769
0.67013 0.1 -0.8625 0.0057466
0.67013 0.1 0.8625 0.00550881
0.797314 0.1 -0.75 0.00412102
0.797314 0.1 0.75 0.00390428
0.623803 0.1 0.9 0.00629487
0.835106 0.1 -0.7125 0.00368356
0.835106 0.1 0.7125 0.00348417
0.623803 0.1 -0.903998 0.00644299
0.574156 0.1 0.9375 0.00710331
0.574156 0.1 -0.9375 0.00724108
1.02149 0.1 -0.406591 0.00211137
1.02149 0.1 0.406591 0.00202963
1.08012 0.1 -0.212982 0.00174177
1.08012 0.1 0.212982 0.00171559
1.10076 0.1 -0.0349809 0.00163723
1.10076 0.1 0.0349809 0.00163359
0.871687 0.1 -0.675 0.0033568
0.871687 0.1 0.675 0.00316434
1.04168 0.1 -0.364581 0.00197467
1.04168 0.1 0.364581 0.00191083
1.10076 0.1 -0.104943 0.00164813
1.10076 0.1 0.104943 0.0016377
0.522865 0.1 0.975 0.00806534
0.522865 0.1 -0.975 0.00821878
1.0579 0.1 -0.324472 0.0018722
1.0579 0.1 0.324472 0.00182123
0 0.1 -1.10701 0.0051749
0 0.1 1.10701 0.00514563
0.0363518 0.1 1.10701 0.00788488
0.0363518 0.1 -1.10701 0.00799043
0.90582 0.1 0.6375 0.00285693
0.905821 0.1 -0.6375 0.00303857
0.219992 0.1 1.0875 0.0128031
0.219992 0.1 -1.0875 0.0129807
0.93886 0.1 0.6 0.00266299
0.93886 0.1 -0.6 0.00282099
1.10076 0.1 -0.174905 0.00166889
1.10076 0.1 0.174905 0.00165026
0.467897 0.1 1.0125 0.00905345
0.467897 0.1 -1.0125 0.00920589
1.08012 0.1 -0.283976 0.0017789
1.08012 0.1 0.283976 0.00174126
1.11928 0.1 3.93204e-18 0.00159449
0.990306 0.1 -0.525 0.00246065
0.990306 0.1 0.525 0.00232968
0.96969 0.1 -0.5625 0.00262357
0.969689 0.1 0.5625 0.00246988
1.11928 0.1 -0.0690357 0.00160101
1.11928 0.1 0.0690357 0.0015947
0 0.1 1.125 0.00514811
0 0.1 -1.125 0.00517646
0.411108 0.1 -1.05 0.0103
0.411108 0.1 1.05 0.0101912
1.10076 0.1 0.244866 0.00167071
1.10076 0.1 -0.244866 0.00169717
1.11928 0.1 -0.138072 0.00161536
1.11928 0.1 0.138072 0.00160229
1.02149 0.1 0.480517 0.00210492
1.02149 0.1 -0.480517 0.00221121
1.0579 0.1 -0.396577 0.00193459
1.0579 0.1 0.396577 0.00186433
1.04168 0.1 -0.437497 0.00205529
1.04168 0.1 0.437497 0.00196858
0.150379 0.1 1.125 0.0118273
0.150379 0.1 -1.125 0.0120139
0.714971 0.1 0.88201 0.00491731
1.08012 0.1 0.354971 0.00177616
1.08012 0.1 -0.354971 0.00182906
1.11928 0.1 -0.207107 0.00163764
1.11928 0.1 0.207107 0.00161735
0.350249 0.1 -1.0875 0.0113805
0.350249 0.1 1.0875 0.011319
0 0.1 1.14299 0.00514956
0 0.1 -1.14299 0.00517691
0.0363518 0.1 1.14299 0.00786948
0.0363518 0.1 -1.14299 0.00796684
1.14316 0.1 -0.0339211 0.0015378
1.14316 0.1 0.0339211 0.00153504
0.797314 0.1 0.821002 0.00413334
1.10076 0.1 -0.314829 0.00173836
1.10076 0.1 0.314829 0.00169989
0.797314 0.1 -0.825 0.00439554
0.756814 0.1 -0.8625 0.00489132
0.756814 0.1 0.8625 0.00461058
1.14316 0.1 -0.101763 0.0015464
1.14316 0.1 0.101763 0.00153833
0.835106 0.1 -0.7875 0.00392674
0.835106 0.1 0.7875 0.00369038
0.871687 0.1 -0.75 0.00357154
0.871687 0.1 0.75 0.00335097
0.67013 0.1 0.9375 0.00582558
0.67013 0.1 -0.9375 0.00610404
0.90582 0.1 -0.7125 0.00324278
0.905821 0.1 0.7125 0.0030236
0.714971 0.1 -0.903998 0.00544275
1.11928 0.1 0.276143 0.00164009
1.11928 0.1 -0.276143 0.00166936
1.14316 0.1 0.169605 0.00154847
1.14316 0.1 -0.169605 0.00156277
0.93886 0.1 -0.675 0.0029861
0.93886 0.1 0.675 0.00281164
1.15704 0.1 0 0.00150724
1.0579 0.1 0.468682 0.00192282
1.0579 0.1 -0.468682 0.00201577
0.623803 0.1 0.975 0.00661678
0.623803 0.1 -0.975 0.0068434
0.990306 0.1 0.6 0.00245033
0.990306 0.1 -0.6 0.00258971
1.15704 0.1 -0.0671479 0.00151238
1.15704 0.1 0.0671479 0.00150752
1.04168 0.1 -0.510414 0.00214228
1.04168 0.1 0.510414 0.00204366
0.969689 0.1 -0.6375 0.0027604
0.969689 0.1 0.6375 0.0026131
1.08012 0.1 0.425965 0.00182267
1.08012 0.1 -0.425965 0.00189528
0.287374 0.1 -1.125 0.0122208
0.287374 0.1 1.125 0.0120871
1.02149 0.1 -0.554443 0.0023104
1.02149 0.1 0.554443 0.00220031
0.574156 0.1 1.0125 0.00741224
0.574156 0.1 -1.0125 0.00760823
1.15704 0.1 -0.134296 0.00152396
1.15704 0.1 0.134296 0.00151391
0.075776 0.1 1.1625 0.0108103
0.075776 0.1 -1.1625 0.0109795
1.10076 0.1 -0.384791 0.0017905
1.10076 0.1 0.384791 0.00173757
1.14316 0.1 -0.237448 0.00158542
1.14316 0.1 0.237448 0.00156496
1.11928 0.1 -0.345179 0.00171224
1.11928 0.1 0.345179 0.00167081
0.522865 0.1 1.05 0.00835213
0.522865 0.1 -1.05 0.00854825
1.15704 0.1 -0.201444 0.00154195
1.15704 0.1 0.201444 0.00152649
1.1744 0.1 -0.0331401 0.00147411
1.1744 0.1 0.0331401 0.00147196
1.1744 0.1 -0.0994202 0.00148117
1.1744 0.1 0.0994202 0.0014748
0 0.1 1.18201 0.00515488
0 0.1 -1.18201 0.0051806
0.0363518 0.1 1.18201 0.0078748
0.0363518 0.1 -1.18201 0.00797053
0.219992 0.1 1.1625 0.0127575
0.219993 0.1 -1.1625 0.0129701
1.14316 0.1 0.30529 0.00158872
1.14316 0.1 -0.30529 0.00161851
0.467897 0.1 1.0875 0.00932596
0.467897 0.1 -1.0875 0.00951556
1.1744 0.1 -0.1657 0.00149505
1.1744 0.1 0.1657 0.00148383
1.15704 0.1 -0.268592 0.00156763
1.15704 0.1 0.268592 0.00154542
1.0579 0.1 0.540787 0.00199751
1.0579 0.1 -0.540787 0.0020904
0.796996 0.1 0.88201 0.00433565
1.08012 0.1 -0.496959 0.0019666
1.08012 0.1 0.496959 0.00188334
1.10076 0.1 0.454752 0.00178775
1.10076 0.1 -0.454752 0.00186124
1.11928 0.1 -0.414214 0.00176897
1.11928 0.1 0.414214 0.00171117
1.04168 0.1 -0.58333 0.00224562
1.04168 0.1 0.58333 0.00214009
1.1744 0.1 -0.231981 0.00151361
1.1744 0.1 0.231981 0.00149797
0.871687 0.1 0.821002 0.00355849
0.411108 0.1 1.125 0.0104232
0.411108 0.1 -1.125 0.0105696
1.19808 0.1 1.73472e-17 0.00142324
0.990306 0.1 0.675 0.00258743
0.990306 0.1 -0.675 0.0027375
1.02149 0.1 0.628368 0.00232262
1.02149 0.1 -0.628368 0.00244689
1.19808 0.1 -0.0650961 0.0014274
1.19808 0.1 0.0650961 0.00142354
0 0.1 1.2 0.00515881
0 0.1 -1.2 0.00518396
0.871687 0.1 -0.825 0.00381917
0.905821 0.1 -0.7875 0.00344502
0.90582 0.1 0.7875 0.00321791
0.835106 0.1 -0.8625 0.0042008
0.835106 0.1 0.8625 0.00392504
0.93886 0.1 -0.75 0.00317395
0.93886 0.1 0.75 0.00297627
1.14316 0.1 -0.373132 0.00166128
1.14316 0.1 0.373132 0.00161957
0.969689 0.1 0.7125 0.00275844
0.969689 0.1 -0.7125 0.00290941
1.15704 0.1 -0.33574 0.00160259
1.15704 0.1 0.33574 0.00157104
0.756813 0.1 0.9375 0.00490215
0.756814 0.1 -0.9375 0.0052335
1.19808 0.1 0.130192 0.001429
1.19808 0.1 -0.130192 0.00143694
0.797314 0.1 -0.903998 0.00466558
0.714971 0.1 0.975 0.0055242
0.714971 0.1 -0.975 0.00584273
0.150379 0.1 1.2 0.011806
0.150379 0.1 -1.2 0.0119991
1.20938 0.1 -0.0322656 0.00140411
1.20938 0.1 0.0322656 0.00140234
1.1744 0.1 -0.298261 0.00154129
1.1744 0.1 0.298261 0.00151852
1.20938 0.1 -0.0967968 0.00141021
1.20938 0.1 0.0967968 0.00140479
1.19808 0.1 -0.195288 0.00145151
1.19808 0.1 0.195288 0.00143964
0.350249 0.1 1.1625 0.0115295
0.350249 0.1 -1.1625 0.0116187
0.67013 0.1 1.0125 0.00617139
0.67013 0.1 -1.0125 0.00646217
0 0.1 1.21799 0.00516164
0 0.1 -1.21799 0.00518615
0.0363518 0.1 -1.21799 0.00795973
0.0363518 0.1 1.21799 0.00787309
1.11928 0.1 -0.48325 0.00183171
1.11928 0.1 0.48325 0.00176363
1.10076 0.1 -0.524714 0.00192492
1.10076 0.1 0.524714 0.00185089
1.20938 0.1 0.161328 0.00141291
1.20938 0.1 -0.161328 0.00142232
1.08012 0.1 0.567953 0.00196087
1.08012 0.1 -0.567953 0.00204996
0.623803 0.1 1.05 0.00693486
0.623803 0.1 -1.05 0.00719024
1.0579 0.1 -0.612892 0.00220095
1.0579 0.1 0.612892 0.00209279
1.15704 0.1 -0.402888 0.00164898
1.15704 0.1 0.402888 0.00160437
1.14316 0.1 0.440974 0.00166038
1.14316 0.1 -0.440974 0.00171834
1.19808 0.1 -0.260384 0.00147193
1.19808 0.1 0.260384 0.00145546
1.2267 0.1 3.57064e-18 0.00137048
1.2267 0.1 -0.0636649 0.0013743
1.2267 0.1 0.0636649 0.00137077
1.1744 0.1 -0.364541 0.00157668
1.1744 0.1 0.364541 0.00154497
0.574156 0.1 1.0875 0.00768734
0.574156 0.1 -1.0875 0.00793907
1.20938 0.1 0.225859 0.00142531
1.20938 0.1 -0.225859 0.00143789
1.04168 0.1 -0.656246 0.00238258
1.04168 0.1 0.656246 0.00224617
1.2267 0.1 -0.12733 0.00138306
1.2267 0.1 0.12733 0.00137577
0.287374 0.1 1.2 0.0121746
0.287374 0.1 -1.2 0.0123521
1.02149 0.1 -0.702294 0.00261219
1.02149 0.1 0.702294 0.00244248
0.075776 0.1 -1.2375 0.0109567
0.075776 0.1 1.2375 0.0108063
0.871399 0.1 0.88201 0.00374327
0.522865 0.1 1.125 0.00863213
0.522865 0.1 -1.125 0.00888028
1.2267 0.1 -0.190994 0.0013962
1.2267 0.1 0.190994 0.00138552
1.19808 0.1 -0.32548 0.00149982
1.19808 0.1 0.32548 0.00147683
0.990306 0.1 -0.75 0.002916
0.990306 0.1 0.75 0.00273478
1.24274 0.1 -0.0314313 0.00134073
1.24274 0.1 0.0314313 0.00133917
1.20938 0.1 -0.29039 0.00146091
1.20938 0.1 0.29039 0.0014433
1.24274 0.1 -0.0942942 0.00134646
1.24274 0.1 0.0942942 0.00134132
0.93886 0.1 0.821002 0.00315398
1.11928 0.1 -0.552285 0.00190372
1.11928 0.1 0.552285 0.00182951
1.15704 0.1 -0.470036 0.00170333
1.15704 0.1 0.470036 0.0016479
0.969689 0.1 -0.7875 0.00310607
0.96969 0.1 0.7875 0.00291144
0.93886 0.1 -0.825 0.00339694
0.90582 0.1 0.8625 0.00343702
0.905821 0.1 -0.8625 0.00371655
1.1744 0.1 -0.430821 0.00162484
1.1744 0.1 0.430821 0.00157927
1.10076 0.1 -0.594676 0.00201682
1.10076 0.1 0.594676 0.00193086
1.14316 0.1 -0.508816 0.00177463
1.14316 0.1 0.508816 0.00171281
1.24274 0.1 -0.157157 0.00135747
1.24274 0.1 0.157157 0.00134873
1.2267 0.1 -0.254659 0.00141429
1.2267 0.1 0.254659 0.00139995
0.467897 0.1 1.1625 0.00961739
0.467897 0.1 -1.1625 0.00986371
1.08012 0.1 0.638947 0.00204801
1.08012 0.1 -0.638947 0.00216291
1.25511 0.1 -5.78241e-19 0.00131685
0.835106 0.1 -0.9375 0.00451792
0.835106 0.1 0.9375 0.00418919
0.871687 0.1 -0.903998 0.00407371
1.25511 0.1 0.0622446 0.00131697
1.25511 0.1 -0.0622446 0.00132066
0.219992 0.1 1.2375 0.0127549
0.219992 0.1 -1.2375 0.0129913
0 0.1 -1.25701 0.00519309
0 0.1 1.25701 0.00517005
0.0363518 0.1 -1.25701 0.00796667
0.0363518 0.1 1.25701 0.00788151
0.797314 0.1 0.975 0.0046953
0.797314 0.1 -0.975 0.00504858
1.19808 0.1 -0.390576 0.00153774
1.19808 0.1 0.390576 0.00150411
1.0579 0.1 -0.684997 0.00233891
1.0579 0.1 0.684997 0.00218515
1.20938 0.1 -0.354921 0.00149063
1.20938 0.1 0.354921 0.0014663
1.25511 0.1 0.124489 0.00132149
1.25511 0.1 -0.124489 0.00132911
1.24274 0.1 -0.220019 0.00137131
1.24274 0.1 0.220019 0.00135988
0.756813 0.1 1.0125 0.00522822
0.756814 0.1 -1.0125 0.00559957
1.2267 0.1 -0.318324 0.00143894
1.2267 0.1 0.318324 0.00141951
0.411108 0.1 1.2 0.0106643
0.411108 0.1 -1.2 0.0108205
1.25511 0.1 -0.186734 0.00134144
1.25511 0.1 0.186734 0.00133043
0.714971 0.1 1.05 0.00586494
0.714971 0.1 -1.05 0.0061983
1.04168 0.1 -0.729162 0.00254849
1.04168 0.1 0.729162 0.00236711
1.24274 0.1 0.282882 0.00137621
1.24274 0.1 -0.282882 0.00139128
0 0.1 1.275 0.00517562
0 0.1 -1.275 0.0051979
1.1744 0.1 0.497102 0.00162406
1.1744 0.1 -0.497102 0.00167793
1.15704 0.1 -0.537184 0.00176346
1.15704 0.1 0.537184 0.00170213
1.2756 0.1 -0.03061 0.00127754
1.2756 0.1 0.03061 0.00127579
0.67013 0.1 1.0875 0.00651455
0.67013 0.1 -1.0875 0.0068013
1.2756 0.1 -0.09183 0.00128351
1.2756 0.1 0.09183 0.00127759
1.25511 0.1 -0.248978 0.00135805
1.25511 0.1 0.248978 0.00134373
1.20938 0.1 0.419453 0.00149536
1.20938 0.1 -0.419453 0.00153352
1.11928 0.1 -0.621322 0.0019991
1.11928 0.1 0.621322 0.00190839
1.14316 0.1 -0.576659 0.001849
1.14316 0.1 0.576659 0.00177726
1.19808 0.1 -0.455673 0.001586
1.19808 0.1 0.455673 0.00153949
1.02149 0.1 0.776219 0.00259748
1.02149 0.1 -0.776219 0.00280993
0.150379 0.1 1.275 0.0118194
0.150379 0.1 -1.275 0.0120181
1.2756 0.1 -0.15305 0.001294
1.2756 0.1 0.15305 0.00128425
1.2267 0.1 -0.381989 0.00147357