# nutMean  POINT_DATA 91129
# x  y  z  nutMean
0 0 0 5.03327e-06
0 0.00368111 0 1.82932e-05
0 0.00749587 0 7.18303e-05
0 0.0114491 0 0.000266803
0 0.0155459 0 0.000698757
0 0.0197915 0 0.00176263
0 0.0241911 0 0.00264629
0 0.0287506 0 0.00300018
0 0.0334755 0 0.00343333
0 0.038372 0 0.00373425
0 0.0434463 0 0.00394782
0 0.0487048 0 0.00411368
0 0.0541543 0 0.00425539
0 0.0598016 0 0.00438898
0 0.0656539 0 0.00452557
0 0.0717187 0 0.004668
0.075776 0.00184055 0 8.89424e-06
0.075776 0.00558849 0 1.30994e-05
0.075776 0.00947248 -3.46945e-18 6.22602e-05
0.075776 0.0134975 -3.46945e-18 0.000292533
0.075776 0.0176687 3.46945e-18 0.000836988
0 0.0780037 0 0.00481452
0.075776 0.0219913 3.46945e-18 0.00169112
0.075776 0.0264709 3.46945e-18 0.00286313
0.075776 0.031113 -3.46945e-18 0.00432797
0.075776 0.0359237 -3.46945e-18 0.00603397
0 0.0845169 0 0.00496464
0.075776 0.0409092 0 0.00791728
0.075776 0.0460755 -3.46945e-18 0.00990952
0 0.0912666 0 0.00511837
0.075776 0.0514296 -3.46945e-18 0.0119426
0.075776 0.0569779 0 0.0139479
0 0.0982613 0 0.00527463
0.075776 0.0627278 0 0.0149157
0.075776 0.0686863 0 0.0153774
0 0.10551 0 0.00543125
0.075776 0.0748612 3.46945e-18 0.0158892
0.075776 0.0812603 -3.46945e-18 0.0164569
0 0.113022 0 0.00558576
0.075776 0.0878918 3.46945e-18 0.0170879
0 0.120806 0 0.00573658
0.075776 0.0947639 3.46945e-18 0.0177971
0.075776 0.101886 -3.46945e-18 0.0186194
0 0.128874 0 0.00588895
0.075776 0.109266 3.46945e-18 0.0196165
0 0.137234 0 0.00606087
0.075776 0.116914 3.46945e-18 0.0208662
0 0.145897 0 0.0062693
0.075776 0.12484 0 0.0224556
0.151552 0 0 0
0.151552 0.00368111 0 7.32828e-06
0.151552 0.00749587 0 2.51378e-05
0.151552 0.0114491 0 0.000110826
0.151552 0.0155459 0 0.000348532
0.151552 0.0197915 0 0.000792892
0.075776 0.133054 0 0.0244477
0.151552 0.0241911 0 0.00145908
0.151552 0.0287506 0 0.00234792
0 0.154876 0 0.00651264
0.151552 0.0334755 0 0.00344313
0.151552 0.038372 0 0.00471726
0.151552 0.0434463 0 0.0061368
0.151552 0.0487048 0 0.00766556
0.075776 0.141566 0 0.0267431
0.151552 0.0541543 0 0.00926632
0.151552 0.0598016 0 0.0106751
0 0.16418 0 0.00677965
0.151552 0.0656539 0 0.0117715
0.151552 0.0717187 0 0.0128095
0.075776 0.150387 0 0.028799
0.151552 0.0780037 0 0.0139143
0.151552 0.0845169 0 0.0150763
0 0.173822 0 0.00706495
0.075776 0.159528 0 0.0302514
0.151552 0.0912666 0 0.016255
0.151552 0.0982613 0 0.0173596
0 0.183814 0 0.00736735
0.151552 0.10551 0 0.0183128
0.075776 0.169001 3.46945e-18 0.0308362
0.151552 0.113022 0 0.0192111
0.151552 0.120806 0 0.0202079
0 0.194169 0 0.00768453
0.075776 0.178818 3.46945e-18 0.0305074
0.151552 0.128874 0 0.0215376
0.075776 0.188992 3.46945e-18 0.0294611
0.151552 0.137234 0 0.0233234
0 0.2049 0 0.00801188
0.151552 0.145897 0 0.025278
0.075776 0.199535 0 0.028008
0 0.21602 0 0.00834132
0.151552 0.154876 0 0.0270153
0.219992 0.00184055 0 2.50536e-06
0.219992 0.00558849 0 5.37855e-06
0.219992 0.00947248 -3.46945e-18 2.17429e-05
0.219992 0.0134975 3.46945e-18 7.7009e-05
0.219992 0.0176687 0 0.000220865
0.219992 0.0219913 0 0.00049508
0.219993 0.0264709 -3.46945e-18 0.000912829
0.219992 0.031113 -3.46945e-18 0.00147965
0.219992 0.0359238 3.46945e-18 0.00219821
0.151552 0.16418 0 0.0282668
0.075776 0.21046 0 0.0263936
0.219992 0.0409092 3.46945e-18 0.00306691
0.219992 0.0460755 0 0.00408048
0.219993 0.0514296 -3.46945e-18 0.00523102
0.219992 0.0569779 0 0.00650938
0 0.227544 0 0.00868546
0.219992 0.0627277 3.46945e-18 0.00790502
0.219992 0.0686863 0 0.00940664
0.151552 0.173822 0 0.0289285
0.219992 0.0748612 3.46945e-18 0.010999
0.075776 0.221782 0 0.0247108
0.219992 0.0812603 3.46945e-18 0.0126594
0.219992 0.0878917 -3.46945e-18 0.0143619
0.151552 0.183814 0 0.0290434
7.47806e-17 0.239487 0 0.00912081
0.219992 0.0947639 3.46945e-18 0.0159556
0.219993 0.101886 3.46945e-18 0.0171967
0.075776 0.233516 0 0.023267
0.219993 0.109266 0 0.0179425
0.151552 0.194169 0 0.028748
0.219993 0.116914 0 0.0185775
0 0.251863 0 0.00965696
0.219993 0.12484 0 0.0191556
0.151552 0.2049 0 0.0281914
0.075776 0.245675 0 0.0227046
0.219992 0.133054 3.46945e-18 0.0203857
0.219992 0.141565 0 0.0220659
0.151552 0.21602 0 0.0274681
0 0.264688 0 0.0102398
0.219992 0.150387 3.46945e-18 0.0238869
0.075776 0.258275 3.46945e-18 0.0224119
0.219992 0.159528 -3.46945e-18 0.0255093
0.151552 0.227544 0 0.0266826
0.219992 0.169001 3.46945e-18 0.0268197
0 0.27798 0 0.0108665
0.075776 0.271334 3.46945e-18 0.0222594
0.151552 0.239487 3.70071e-18 0.0260681
0.219992 0.178818 3.46945e-18 0.0278182
0.288433 0 0 0
0.288433 0.00368111 0 3.03804e-06
0.288433 0.00749587 0 1.14104e-05
0.288433 0.0114491 0 3.92945e-05
0.288433 0.0155459 3.70071e-18 0.000112528
0.288433 0.0197915 0 0.000270168
0.288433 0.0241911 3.70071e-18 0.000538104
0.288433 0.0287506 0 0.000926554
0.219992 0.188991 0 0.0285313
0.288433 0.0334755 0 0.00144306
0.288433 0.038372 0 0.00208962
0.288433 0.0434463 0 0.00286534
7.47806e-17 0.291753 0 0.0115394
0.288433 0.0487048 0 0.00376685
0.288433 0.0541543 0 0.00478883
0.151552 0.251863 0 0.0256416
0.288433 0.0598016 3.70071e-18 0.00592412
0.075776 0.284866 0 0.0222626
0.288433 0.0656539 3.70071e-18 0.00716333
0.219992 0.199534 0 0.0289895
0.288433 0.0717187 0 0.00849391
0.288433 0.0780037 0 0.00989813
0.288433 0.0845169 0 0.0113524
0.288433 0.0912666 0 0.0125504
0.219992 0.21046 -3.46945e-18 0.0292225
0.288433 0.0982613 0 0.0132983
0.151552 0.264688 3.70071e-18 0.0252375
0 0.306027 0 0.0122702
0.288433 0.10551 0 0.0137923
0.075776 0.29889 3.46945e-18 0.0224041
0.288433 0.113022 0 0.0142224
0.219993 0.221782 0 0.0292519
0.288433 0.120806 0 0.0146524
0.288433 0.128874 0 0.0151969
0.151552 0.27798 0 0.0249119
0.288433 0.137234 0 0.015973
0 0.320819 0 0.0131784
0.219992 0.233515 -3.46945e-18 0.029088
0.075776 0.313423 -3.46945e-18 0.0227163
0.288433 0.145897 0 0.0168915
0.288433 0.154876 0 0.0178047
0.151552 0.291753 0 0.0247159
0.219993 0.245675 0 0.0287407
0.288433 0.16418 0 0.0185965
0 0.336148 0 0.0146347
0.288433 0.173822 0 0.0192346
0.075776 0.328484 -3.46945e-18 0.0237809
0.219993 0.258275 -3.46945e-18 0.0282371
0.151552 0.306027 0 0.0245486
0.288433 0.183814 0 0.0197234
0.288433 0.194169 0 0.0200764
0.219992 0.271334 3.46945e-18 0.0275976
0.350249 0.00184056 -3.46945e-18 9.0628e-07
0.350249 0.00558849 0 3.4949e-06
0.350249 0.00947248 3.46945e-18 1.53415e-05
0.350249 0.0134975 0 4.45676e-05
0.350249 0.0176687 0 0.000113026
0.350249 0.0219913 0 0.000264612
0.350249 0.0264708 3.46945e-18 0.000504279
0.350249 0.031113 0 0.000849109
0 0.352034 0 0.0160672
0.350249 0.0359238 0 0.00130348
0.075776 0.344091 0 0.0269664
0.350249 0.0409091 0 0.0018697
0.350249 0.0460756 3.46945e-18 0.00254838
0.288433 0.2049 0 0.0203083
0.350249 0.0514296 0 0.00333813
0.151552 0.320819 0 0.0245062
0.350249 0.0569779 0 0.00423569
0.350249 0.0627277 3.46945e-18 0.0052349
0.350249 0.0686863 3.46945e-18 0.00632602
0.350249 0.0748612 3.46945e-18 0.00749506
0.350249 0.0812603 0 0.0087227
0.219992 0.284867 0 0.0271224
0.288433 0.21602 0 0.0204314
0.350249 0.0878917 0 0.00998247
0.350249 0.094764 0 0.0102846
0.350249 0.101886 0 0.0102374
0.350249 0.109266 0 0.0103468
0.288433 0.227544 0 0.0204524
0.075776 0.360265 3.46945e-18 0.0275944
0 0.368496 0 0.0164955
0.151552 0.336148 0 0.025112
0.350249 0.116914 3.46945e-18 0.0106153
0.219992 0.29889 0 0.0267102
0.370854 0.0241911 1.54074e-33 0.000391404
0.350249 0.12484 0 0.0108794
0.350249 0.133054 0 0.0110376
0.288433 0.239487 -9.25154e-19 0.0203748
0.350249 0.141566 3.46945e-18 0.011173
0.350249 0.150387 3.46945e-18 0.0113322
0.288433 0.251863 0 0.0202055
0.219992 0.313423 0 0.02606
0.151552 0.352034 0 0.0255983
0.075776 0.377027 0 0.0258809
0.350249 0.159528 0 0.0115008
0 0.385557 0 0.0159713
0.350249 0.169001 0 0.0116653
0.288433 0.264688 0 0.0199538
0.350249 0.178818 0 0.0118195
0.219992 0.328484 0 0.0252756
0.350249 0.188992 0 0.0119622
0.151552 0.368496 0 0.0248683
0.288433 0.27798 3.70071e-18 0.0196938
0.075776 0.394397 0 0.0232187
0.350249 0.199535 0 0.0120939
7.47806e-17 0.403236 0 0.0154058
0.219992 0.344091 0 0.0244652
0.350249 0.21046 -3.46945e-18 0.0122149
0.288433 0.291753 0 0.0194724
0.412065 9.08189e-19 3.08149e-33 2.4376e-22
0.412065 0.00368111 -2.31298e-18 2.08751e-06
0.412065 0.00749587 -2.31298e-18 9.34909e-06
0.412065 0.0114491 -2.31298e-18 2.78092e-05
0.412065 0.0155459 -2.31298e-18 6.84638e-05
0.412065 0.0197915 0 0.000156879
0.412065 0.0241911 -3.08149e-33 0.000318054
0.412065 0.0264709 0 0.000441195
0.412065 0.0287506 -2.31298e-18 0.000564336
0.412065 0.0334755 -2.31298e-18 0.000904231
0.412065 0.038372 -2.31298e-18 0.00134355
0.151552 0.385557 0 0.023288
0.412065 0.0434463 0 0.00188395
0.350249 0.221782 0 0.0123245
0.412065 0.0487048 0 0.0025253
0.412065 0.0541543 -3.08149e-33 0.00326547
0.412065 0.0569779 0 0.00368265
0.412065 0.0598016 -2.31298e-18 0.00409982
0.412065 0.0656539 -2.31298e-18 0.00502034
0.412065 0.0717187 -2.31298e-18 0.00601468
0.075776 0.412396 -3.46945e-18 0.0223534
0.412065 0.0780037 -2.31298e-18 0.00705449
0.288433 0.306027 0 0.0191947
0.412065 0.0845169 -2.31298e-18 0.00792547
0.350249 0.233516 3.46945e-18 0.0124202
0 0.421557 0 0.0153478
0.412065 0.0912666 -2.31298e-18 0.00836553
0.219992 0.360265 3.46945e-18 0.0236237
0.412065 0.0982613 0 0.00846124
0.412065 0.10551 0 0.00850273
0.412065 0.113022 -2.31298e-18 0.00862536
0.350249 0.245675 0 0.0124984
0.412065 0.120806 0 0.00878847
0.151552 0.403236 0 0.021891
0.288433 0.320819 0 0.0188159
0.412065 0.128874 -2.31298e-18 0.00892526
0.412065 0.137234 0 0.00903108
0.350249 0.258275 -3.46945e-18 0.0125561
0.219992 0.377026 0 0.0226585
0.412065 0.145897 -2.31298e-18 0.00913797
0.075776 0.431051 0 0.0222854
0.412065 0.154876 -2.31298e-18 0.00925272
0 0.440544 0 0.015478
0.288433 0.336148 0 0.0183893
0.350249 0.271334 0 0.0125873
0.412065 0.16418 -2.31298e-18 0.00936781
0.412065 0.173822 -2.31298e-18 0.00947845
0.151552 0.421557 0 0.0211638
0.412065 0.183814 -2.31298e-18 0.00958276
0.350249 0.284867 3.46945e-18 0.0125866
0.219992 0.394397 0 0.0215855
0.288433 0.352034 3.70071e-18 0.0179418
0.412065 0.194169 0 0.00968051
0.075776 0.450382 0 0.0223406
0.412065 0.2049 -2.31298e-18 0.00977186
0 0.46022 0 0.0156292
0.350249 0.29889 3.46945e-18 0.012556
0.412065 0.21602 0 0.0098566
0.151552 0.440544 0 0.020739
0.219993 0.412396 3.46945e-18 0.0205423
0.467897 0.00184056 -3.46945e-18 5.98839e-07
0.467897 0.00558849 0 3.36587e-06
0.288433 0.368496 0 0.0174481
0.467897 0.00947248 0 1.5204e-05
0.467897 0.0134975 0 3.64234e-05
0.467897 0.0176687 3.46945e-18 8.12811e-05
0.467897 0.0219913 -3.46945e-18 0.000173055
0.467897 0.0264709 3.46945e-18 0.000339532
0.467897 0.0311131 3.46945e-18 0.000580099
0.467897 0.0359238 -3.46945e-18 0.000908236
0.467897 0.038372 0 0.00116178
0.467897 0.0409092 3.46945e-18 0.00132667
0.350249 0.313423 0 0.0125009
0.467897 0.0460755 0 0.00183638
0.467897 0.0514296 3.46945e-18 0.00243659
0.412065 0.227544 -2.31298e-18 0.00993383
0.467897 0.0569779 0 0.00312416
0.467897 0.0627277 -3.46945e-18 0.00389313
0.467897 0.0686863 3.46945e-18 0.00473326
0.467897 0.0748612 0 0.00562922
0.467897 0.0812603 0 0.00651789
0.467897 0.0878918 3.46945e-18 0.00667758
0.075776 0.470415 3.46945e-18 0.0224481
0.412065 0.239487 -2.31298e-18 0.0100019
0.467897 0.0947639 -3.46945e-18 0.00676363
0.467897 0.101886 3.46945e-18 0.00680985
0.350249 0.328483 0 0.0124252
0.467897 0.109266 0 0.00686593
0 0.48061 0 0.0157758
0.288433 0.385557 0 0.0168853
0.467897 0.116914 0 0.00693164
0.412065 0.251863 -2.31298e-18 0.0100591
0.219992 0.431051 0 0.0196497
0.467897 0.12484 0 0.00700002
0.151552 0.46022 0 0.020431
0.467897 0.133054 3.46945e-18 0.00706676
0.467897 0.141566 3.46945e-18 0.00713539
0.412065 0.264688 -2.31298e-18 0.0101031
0.350249 0.344091 -3.46945e-18 0.0123347
0.467897 0.150387 3.46945e-18 0.00720524
0.467897 0.154876 0 0.00774946
0.467897 0.159528 3.46945e-18 0.00727335
0.288433 0.403236 0 0.016289
0.075776 0.491175 0 0.0225477
0.412065 0.27798 -2.31298e-18 0.0101317
0.467897 0.169001 0 0.00733959
0.467897 0.178818 3.46945e-18 0.00740385
0.219992 0.450382 0 0.018919
6.73026e-17 0.501741 3.70071e-18 0.015874
0.350249 0.360265 0 0.0122311
0.151552 0.48061 0 0.0201859
0.467897 0.188991 0 0.00746596
0.412065 0.291753 0 0.0101441
0.467897 0.199535 0 0.00752582
0.288433 0.421557 0 0.0157268
0.467897 0.21046 0 0.00758334
0.412065 0.306027 0 0.0101417
0.350249 0.377027 0 0.0121062
0.467897 0.221782 3.46945e-18 0.00763829
0.075776 0.51269 0 0.0225277
0.219993 0.470415 3.46945e-18 0.018314
0.467897 0.227544 0 0.00826695
0.412065 0.320819 -2.31298e-18 0.0101255
0.467897 0.233515 0 0.00769036
6.73026e-17 0.523639 3.70071e-18 0.0158983
0.523729 0 0 0
0.523729 0.00368111 0 1.92555e-06
0.523729 0.00749587 -2.31298e-18 9.6795e-06
0.523729 0.0114491 0 2.61476e-05
0.523729 0.0155459 0 5.56342e-05
0.523729 0.0197915 -2.31298e-18 0.000112552
0.151552 0.501741 0 0.0199419
0.523729 0.0241911 0 0.000223168
0.523729 0.0287506 0 0.000400594
0.523729 0.0334755 0 0.000649422
0.523729 0.038372 -3.08149e-33 0.000980013
0.523729 0.0434463 0 0.00139436
0.523729 0.0487048 0 0.00189239
0.523729 0.0541543 0 0.00247193
0.288433 0.440544 0 0.0152398
0.523729 0.0598016 0 0.00312807
0.350249 0.394397 -3.46945e-18 0.0119511
0.523729 0.0656539 0 0.00385225
0.467897 0.245675 0 0.0077392
0.523729 0.0717187 0 0.00463106
0.523729 0.0780037 0 0.00532186
0.523729 0.0845169 0 0.00566966
0.523729 0.0912666 0 0.00576698
0.412065 0.336148 0 0.0100971
0.523729 0.0982613 0 0.00583472
0.523729 0.10551 -2.31298e-18 0.00589263
0.467897 0.258275 -3.46945e-18 0.00778446
0.523729 0.113022 0 0.00595274
0.523729 0.120806 -3.08149e-33 0.0060138
0.219993 0.491176 0 0.0177842
0.523729 0.12484 0 0.00604356
0.523729 0.128874 -2.31298e-18 0.00607332
0.075776 0.534986 0 0.0224156
0.467897 0.271334 3.46945e-18 0.0078263
0.350249 0.412396 -3.46945e-18 0.0117695
0.523729 0.137234 0 0.00613146
0.412065 0.352034 -2.31298e-18 0.0100578
0.288433 0.46022 0 0.01483
0.523729 0.145897 0 0.00618929
0.151552 0.523639 0 0.0196698
0.523729 0.154876 -3.08149e-33 0.00624619
0 0.546332 0 0.0158641
0.523729 0.159528 0 0.00627385
0.467897 0.284867 -3.46945e-18 0.00786594
0.523729 0.16418 -2.31298e-18 0.00630152
0.523729 0.173822 0 0.00635529
0.412065 0.368496 0 0.010006
0.523729 0.183814 0 0.0064075
0.467897 0.29889 0 0.00790334
0.350249 0.431051 -3.46945e-18 0.0115787
0.219992 0.51269 0 0.0173009
0.523729 0.194169 0 0.00645811
0.288433 0.48061 0 0.0144802
0.523729 0.2049 0 0.0065071
0.467897 0.313423 3.46945e-18 0.00793605
0.075776 0.558091 0 0.0222417
0.412065 0.385557 0 0.00993732
0.523729 0.21602 -3.08149e-33 0.00655445
0.151552 0.546332 0 0.0193828
0 0.569849 0 0.0157859
0.350249 0.450382 3.46945e-18 0.0113972
0.523729 0.227544 -3.08149e-33 0.00660007
0.467897 0.328483 0 0.00796229
0.523729 0.231525 1.54074e-33 0.00661467
0.574156 0.00184056 0 4.3818e-07
0.574156 0.00558849 0 3.30684e-06
0.574157 0.00947248 0 1.67899e-05
0.574156 0.0134975 -3.46945e-18 3.61299e-05
0.574156 0.0176687 -3.46945e-18 6.91257e-05
0.574156 0.0219913 0 0.000128664
0.574156 0.0264708 -3.46945e-18 0.000255769
0.574156 0.031113 0 0.000434752
0.574156 0.0359238 -3.46945e-18 0.000687035
0.574157 0.0409092 0 0.00101614
0.523729 0.239487 3.70071e-18 0.00664387
0.574156 0.0460755 -3.46945e-18 0.0014228
0.574156 0.0514295 0 0.00190581
0.412065 0.403236 0 0.00985022
0.574157 0.0569779 0 0.0024616
0.574156 0.0627277 0 0.0030833
0.574156 0.0686863 0 0.00375975
0.219992 0.534986 0 0.0168584
0.288433 0.501741 0 0.0141705
0.574156 0.0748612 3.46945e-18 0.00447414
0.574156 0.0812603 0 0.00476467
0.467897 0.344091 0 0.00798082
0.574156 0.0878917 3.46945e-18 0.00484003
0.523729 0.251863 0 0.00668573
0.574157 0.0947639 0 0.00491153
0.574156 0.101886 0 0.00497847
0.574156 0.109266 0 0.00503995
0.574156 0.116914 0 0.00509723
0.412065 0.416977 -6.16298e-33 0.00977504
0.350249 0.470415 0 0.0112371
0.523729 0.264688 0 0.00672571
0.075776 0.582034 0 0.0220279
0.574156 0.12484 0 0.00515084
0.574156 0.133054 3.46945e-18 0.00520121
0.412065 0.421557 -2.31298e-18 0.00974997
0.151552 0.569849 0 0.0190944
0.467897 0.360265 -3.46945e-18 0.00799116
0.574157 0.141566 -3.46945e-18 0.00524923
0.523729 0.27798 0 0.00676421
0.574156 0.150386 3.46945e-18 0.00529553
0 0.594219 0 0.0156746
0.574156 0.159528 -3.46945e-18 0.00534039
0.574156 0.16418 0 0.00554394
0.288433 0.523639 1.2326e-32 0.0138903
0.574157 0.169001 0 0.00538399
0.523729 0.291753 0 0.00680149
0.219993 0.558091 3.46945e-18 0.0164602
0.467897 0.377026 0 0.00799315
0.574156 0.178818 3.46945e-18 0.00542645
0.412065 0.440544 -2.31298e-18 0.00964652
0.350249 0.491175 0 0.0111007
0.574156 0.188992 3.46945e-18 0.00546783
0.523729 0.306027 -3.08149e-33 0.00683671
0.574157 0.199535 0 0.0055082
0.574157 0.21046 0 0.00554762
0.075776 0.606847 0 0.021789
0.467897 0.394397 0 0.00798628
0.151552 0.594219 0 0.0188127
0.523729 0.320819 0 0.0068684
0.574157 0.221782 -3.46945e-18 0.00558621
0.412065 0.46022 3.08149e-33 0.00954946
0.288433 0.546332 0 0.0136372
0 0.619475 0 0.0155386
0.574156 0.233515 3.46945e-18 0.00562405
0.350249 0.51269 3.46945e-18 0.0109826
0.219992 0.582034 3.46945e-18 0.0161061
0.523729 0.336148 0 0.00689541
0.467897 0.412396 0 0.00797002
0.574156 0.245675 0 0.00566127
0.624584 0 0 0
0.624584 0.00368111 0 1.84424e-06
0.624584 0.00749587 0 1.06065e-05
0.624584 0.0114491 0 2.77743e-05
0.624584 0.0155459 0 5.23795e-05
0.624584 0.0197915 0 9.2903e-05
0.624584 0.0241911 -2.31298e-18 0.000171876
0.624584 0.0287506 0 0.000307196
0.624584 0.0334755 0 0.000502238
0.624584 0.038372 0 0.000763933
0.624584 0.0434463 -2.31298e-18 0.00109789
0.624584 0.0487048 0 0.00150393
0.624584 0.0541543 0 0.00197945
0.624584 0.0598016 0 0.00251894
0.624584 0.0656539 0 0.00311312
0.624584 0.0717187 0 0.00372501
0.624584 0.0780037 0 0.00412216
0.574157 0.258276 3.46945e-18 0.005698
0.624584 0.0845169 0 0.00425456
0.523729 0.352034 0 0.00691699
0.624584 0.0912666 0 0.00432811
0.624584 0.0982613 0 0.00439614
0.412065 0.48061 3.08149e-33 0.00946455
0.624584 0.10551 0 0.00445776
0.624584 0.113022 -2.31298e-18 0.00451415
0.574156 0.271334 0 0.00573444
0.624584 0.120806 0 0.00456643
0.467897 0.431051 0 0.0079456
0.075776 0.632561 -3.46945e-18 0.0215342
0.624584 0.128874 0 0.00461517
0.151552 0.619475 0 0.0185417
0.288433 0.569849 0 0.0134112
0.350249 0.534985 0 0.0108786
0.624584 0.137234 -2.31298e-18 0.00466097
0.523729 0.368496 0 0.00693284
0.574156 0.284866 -3.46945e-18 0.00577072
0.624584 0.145897 0 0.00470449
0.467897 0.440544 0 0.00829172
0.624584 0.154876 0 0.00474618
0.219992 0.606847 -3.46945e-18 0.0157935
0 0.645647 0 0.0153842
0.624584 0.16418 -3.08149e-33 0.00478636
0.574156 0.29889 -3.46945e-18 0.00580659
0.624584 0.173822 0 0.00482524
0.412065 0.501741 1.54074e-33 0.00939253
0.467897 0.450382 -3.46945e-18 0.00791679
0.523729 0.385557 0 0.00694276
0.624584 0.183814 0 0.00486296
0.624584 0.194169 0 0.00489965
0.574156 0.313423 0 0.00584132
0.624584 0.2049 0 0.00493541
0.350249 0.558091 3.46945e-18 0.0107861
0.288433 0.594219 0 0.0132117
0.624584 0.21602 0 0.00497038
0.523729 0.403236 0 0.00694644
0.574156 0.328483 -3.46945e-18 0.005874
0.151552 0.645647 0 0.0182832
0.467897 0.470415 3.46945e-18 0.00788851
0.075776 0.659208 0 0.0212696
0.624584 0.227544 0 0.00500468
0.412065 0.523639 0 0.00933159
0.523729 0.41545 3.08149e-33 0.00694482
0.624584 0.239487 3.70071e-18 0.00503845
0.574156 0.344091 0 0.00590385
0.219992 0.632561 0 0.0155188
0.67013 0.00184055 0 3.25518e-07
0.67013 0.00558849 0 3.30996e-06
0.67013 0.00947248 0 1.89514e-05
0.67013 0.0134975 0 3.90661e-05
0.67013 0.0176687 -3.46945e-18 6.52279e-05
0.67013 0.0219913 0 0.000109329
0.67013 0.0264708 3.46945e-18 0.000196233
0.67013 0.0311131 0 0.000346691
0.67013 0.0359237 0 0.000547653
0.67013 0.0409092 -3.46945e-18 0.000815627
0.67013 0.0460755 0 0.00115188
0.67013 0.0514296 3.46945e-18 0.00155485
0.523729 0.421557 -2.31298e-18 0.00694402
0.67013 0.056978 0 0.0020205
0 0.67277 0 0.0152164
0.67013 0.0627277 0 0.00254137
0.624584 0.251863 0 0.00507184
0.67013 0.0686863 0 0.00310575
0.67013 0.0748612 3.46945e-18 0.0036083
0.67013 0.0812603 0 0.00370224
0.67013 0.0878917 0 0.00377816
0.67013 0.0947639 3.46945e-18 0.00384953
0.574156 0.360265 0 0.00593039
0.67013 0.101886 0 0.00391197
0.523729 0.431051 0 0.00694047
0.624584 0.264688 0 0.005105
0.467897 0.491175 0 0.00786471
0.67013 0.109266 3.46945e-18 0.00396789
0.350249 0.582034 0 0.0107047
0.67013 0.116914 0 0.00401914
0.67013 0.12484 0 0.00406649
0.67013 0.133054 0 0.00411049
0.288433 0.619475 0 0.0130373
0.624584 0.27798 -3.08149e-33 0.00513803
0.412065 0.546332 1.54074e-33 0.00927996
0.523729 0.440544 -3.08149e-33 0.00693693
0.67013 0.141566 3.46945e-18 0.0041517
0.685312 0.0241911 -7.70372e-34 0.000150547
0.685312 0.0434463 -7.70372e-34 0.000964418
0.67013 0.150387 0 0.00419065
0.574156 0.377026 -3.46945e-18 0.00595352
0.67013 0.159528 0 0.00422777
0.624584 0.291753 0 0.0051709
0.151552 0.67277 0 0.0180375
0.075776 0.686823 0 0.0209998
0.67013 0.169001 0 0.00426337
0.67013 0.178818 0 0.00429768
0.467897 0.51269 0 0.0078471
0.685312 0.113022 -7.70372e-34 0.00392352
0.219992 0.659208 0 0.0152778
0.624584 0.306027 0 0.00520328
0.67013 0.188991 0 0.00433089
0.574156 0.394397 3.46945e-18 0.00597318
0.523729 0.46022 0 0.0069279
0.685312 0.137234 -7.70372e-34 0.00406106
0.67013 0.199535 -3.46945e-18 0.00436316
0.350249 0.606847 0 0.0106347
0 0.700877 0 0.0150392
0.624584 0.320819 0 0.00523462
0.67013 0.21046 0 0.00439463
0.412065 0.569849 -2.31298e-18 0.00923662
0.67013 0.221782 -3.46945e-18 0.00442546
0.574157 0.412396 0 0.00598922
0.288433 0.645647 0 0.0128864
0.624584 0.336148 -3.08149e-33 0.00526435
0.67013 0.233515 3.46945e-18 0.00445582
0.467897 0.534986 0 0.00783584
0.523729 0.48061 0 0.00691998
0.624584 0.344091 0 0.00527817
0.67013 0.245675 0 0.00448589
0.715676 4.54095e-19 0 4.61904e-23
0.715676 0.00368111 0 1.80787e-06
0.715676 0.00749587 0 1.17734e-05
0.715676 0.0114491 0 3.07698e-05
0.715676 0.0155459 0 5.35121e-05
0.715676 0.0197915 0 8.48861e-05
0.715676 0.0241911 0 0.000139883
0.715676 0.0287506 0 0.000246208
0.715676 0.0334755 0 0.000407478
0.715676 0.038372 0 0.000620596
0.624584 0.352034 -2.31298e-18 0.00529199
0.715676 0.0434463 0 0.00089768
0.151552 0.700877 0 0.0178046
0.715676 0.0487048 0 0.00123873
0.715676 0.0541543 0 0.0016409
0.574156 0.43105 0 0.0060017
0.715676 0.0598016 0 0.00209822
0.67013 0.258275 0 0.00451582
0.715676 0.0656539 0 0.00260082
0.715676 0.0717187 0 0.00305581
0.075776 0.715441 0 0.0207286
0.715676 0.0780037 0 0.00329593
0.715676 0.0845169 0 0.00338031
0.219992 0.686824 0 0.0150663
0.715676 0.0912666 0 0.00345323
0.715676 0.0982613 0 0.0035184
0.67013 0.271334 -3.46945e-18 0.00454571
0.350249 0.632561 -3.46945e-18 0.0105767
0.412065 0.594219 3.08149e-33 0.00920145
0.715676 0.10551 0 0.00357606
0.715676 0.113022 0 0.0036282
0.624584 0.368496 0 0.00531728
0.523729 0.501741 0 0.00691547
0.715676 0.120806 0 0.003676
0.715676 0.128874 0 0.0037201
0.67013 0.284867 0 0.00457558
0.467897 0.558091 3.46945e-18 0.0078303
0.715676 0.137234 0 0.0037611
0.574156 0.450382 0 0.00601141
0 0.730005 0 0.0148562
0.715676 0.145897 0 0.00379953
0.288433 0.67277 0 0.0127571
0.715676 0.154876 0 0.00383585
0.67013 0.29889 0 0.00460535
0.624584 0.385557 0 0.00534013
0.715676 0.16418 -9.25187e-19 0.00387043
0.715676 0.173822 0 0.00390354
0.715676 0.183814 0 0.00393539
0.67013 0.313423 0 0.00463478
0.523729 0.523639 0 0.00691549
0.715676 0.194169 0 0.00396618
0.574156 0.470415 3.46945e-18 0.00601994
0.624584 0.403236 0 0.00536047
0.743101 0.0241911 -7.70372e-34 0.000133631
0.412065 0.619475 3.08149e-33 0.00917485
0.715676 0.2049 0 0.00399607
0.151552 0.730005 0 0.0175845
0.67013 0.328484 3.46945e-18 0.00466354
0.350249 0.659208 0 0.0105309
0.467897 0.582034 0 0.00783005
0.715676 0.21602 0 0.00402521
0.219992 0.715441 0 0.0148808
0.075776 0.745097 -3.46945e-18 0.020459
0.715676 0.227544 0 0.00405378
0.67013 0.344091 0 0.00469126
0.624584 0.421557 0 0.00537826
0.743101 0.128874 -7.70372e-34 0.00351854
0.715676 0.239487 3.70071e-18 0.00408192
0.574156 0.491175 0 0.00602928
0.756814 0.00184055 0 2.39417e-07
0.523729 0.546332 0 0.00692025
0.756813 0.00558849 0 3.35781e-06
0.756813 0.00947248 0 2.14027e-05
0.756814 0.0134975 -3.46945e-18 4.34612e-05
0.756814 0.0155459 0 5.51571e-05
0.756814 0.0176687 0 6.61403e-05
0.756814 0.0219913 0 9.91193e-05
0.756814 0.0264709 0 0.000156309
0.756814 0.031113 -3.46945e-18 0.000288456
0.756813 0.0359238 -3.46945e-18 0.0004516
0.288433 0.700877 0 0.0126472
0.756814 0.0409092 -3.46945e-18 0.000674405
0.756813 0.0460755 3.46945e-18 0.000958537
0.756813 0.0514296 0 0.00130262
0.715676 0.251863 0 0.0041098
0.756813 0.0569779 0 0.00170221
0.756814 0.0627277 -3.46945e-18 0.00214944
0.756814 0.0686863 -3.46945e-18 0.00263187
0 0.76019 0 0.0146707
0.756814 0.0748612 0 0.00291128
0.67013 0.360265 3.46945e-18 0.00471768
0.756814 0.0812603 -3.46945e-18 0.00300236
0.756814 0.0878917 -3.46945e-18 0.00307903
0.756814 0.0947639 -3.46945e-18 0.00314681
0.715676 0.264688 0 0.00413751
0.756813 0.101886 0 0.0032061
0.624584 0.440544 0 0.00539378
0.756813 0.109266 3.46945e-18 0.00325924
0.756813 0.116914 3.46945e-18 0.00330764
0.412065 0.645647 0 0.00915723
0.467897 0.606847 0 0.00783519
0.756814 0.120806 0 0.0033745
0.756813 0.12484 0 0.00335198
0.715676 0.27798 0 0.00416511
0.756814 0.133054 -3.46945e-18 0.00339288
0.67013 0.377026 -3.46945e-18 0.00474262
0.756814 0.137234 0 0.00345786
0.574156 0.51269 0 0.00604105
0.756813 0.141566 3.46945e-18 0.00343092
0.685312 0.352034 -7.70372e-34 0.00462969
0.743101 0.2049 -7.70372e-34 0.00378833
0.350249 0.686824 0 0.0104972
0.756814 0.150387 0 0.00346661
0.756814 0.154876 0 0.00353062
0.715676 0.291753 0 0.00419261
0.756814 0.159528 -3.46945e-18 0.00350032
0.523729 0.569849 0 0.0069296
0.72743 0.264688 0 0.00404615
0.756814 0.16418 0 0.00356407
0.151552 0.76019 0 0.0173772
0.756813 0.169001 3.46945e-18 0.00353237
0.624584 0.46022 0 0.00540783
0.219993 0.745097 0 0.0147183
0.67013 0.394396 0 0.00476602
0.756813 0.178818 -3.46945e-18 0.00356302
0.715676 0.306027 0 0.00421992
0.075776 0.775831 0 0.0201938
0.756813 0.188991 0 0.00359246
0.756814 0.199535 0 0.00362089
0.715676 0.320819 0 0.00424683
0.574156 0.534985 0 0.00605616
0.288433 0.730005 0 0.0125552
0.756813 0.21046 0 0.00364848
0.467897 0.632561 0 0.00784615
0.67013 0.412396 -3.46945e-18 0.00478784
0.624584 0.48061 -3.08149e-33 0.00542167
0.756814 0.221782 0 0.00367537
0.412065 0.67277 3.08149e-33 0.00914883
0.715676 0.336148 0 0.00427312
0 0.791472 0 0.0144857
0.756813 0.233516 3.46945e-18 0.00370174
0.523729 0.594219 0 0.00694351
0.624584 0.487654 1.54074e-33 0.00542667
0.756814 0.245675 3.46945e-18 0.00372772
0.350249 0.715441 3.46945e-18 0.0104752
0.67013 0.43105 0 0.00480813
0.715676 0.352034 -9.25187e-19 0.00429855
0.797951 9.08189e-19 -3.08149e-33 6.8722e-23
0.797951 0.00368111 2.31298e-18 1.79581e-06
0.797951 0.00749587 2.31298e-18 1.3056e-05
0.797951 0.0114491 2.31298e-18 3.43313e-05
0.797951 0.0141803 7.70372e-34 4.93118e-05
0.797951 0.0155459 0 5.6802e-05
0.797951 0.0169611 7.70372e-34 6.51939e-05
0.797951 0.0197915 2.31298e-18 8.19777e-05
0.797951 0.0219913 0 0.000101553
0.797951 0.0241911 3.08149e-33 0.000121128
0.797951 0.0264709 0 0.000161673
0.797951 0.0287506 -3.08149e-33 0.000202218
0.797951 0.0334755 2.31298e-18 0.000337477
0.797951 0.038372 2.31298e-18 0.00051875
0.797951 0.0434463 2.31298e-18 0.000752599
0.797951 0.0487048 0 0.00104448
0.756813 0.258275 -3.46945e-18 0.00375344
0.797951 0.0541543 2.31298e-18 0.00139155
0.797951 0.0598016 2.31298e-18 0.00178751
0.797951 0.0656539 2.31298e-18 0.00221766
0.574156 0.55809 0 0.00607498
0.624584 0.501741 0 0.00543667
0.797951 0.0717187 2.31298e-18 0.00254641
0.797951 0.0780037 -3.08149e-33 0.00269966
0.797951 0.0845169 2.31298e-18 0.00278396
0.797951 0.0912666 -3.08149e-33 0.00285659
0.797951 0.0982613 2.31298e-18 0.00291997
0.756813 0.271334 0 0.00377895
0.797951 0.10551 2.31298e-18 0.0029761
0.715676 0.368496 0 0.00432293
0.151552 0.791472 0 0.0171831
0.797951 0.113022 2.31298e-18 0.00302677
0.219992 0.775831 3.46945e-18 0.0145765
0.797951 0.118211 7.70372e-34 0.00305759
0.770526 0.239487 1.54074e-33 0.00366025
0.797951 0.120806 0 0.003073
0.67013 0.450382 3.46945e-18 0.0048271
0.797951 0.128874 3.08149e-33 0.00311541
0.467897 0.659208 0 0.0078634
0.756813 0.284866 -3.46945e-18 0.00380431
0.743101 0.320819 -7.70372e-34 0.00402851
0.797951 0.137234 0 0.00315461
0.797951 0.141566 0 0.00317287
0.797951 0.145897 -9.25187e-19 0.00319112
0.523729 0.619475 0 0.00696222
0.075776 0.807681 0 0.0199357
0.797951 0.150387 0 0.00320825
0.797951 0.154876 0 0.00322538
0.715676 0.385557 0 0.00434618
0.412065 0.700877 3.08149e-33 0.00914975
0.288433 0.76019 0 0.0124796
0.756813 0.29889 0 0.00382953
0.797951 0.16418 0 0.00325772
0.624584 0.523639 0 0.00545392
0.797951 0.167394 7.70372e-34 0.00326795
0.797951 0.173822 2.31298e-18 0.00328842
0.574156 0.582034 0 0.00609756
0.67013 0.470415 0 0.00484537
0.797951 0.183814 2.31298e-18 0.00331771
0.756813 0.313423 -3.46945e-18 0.00385453
0.797951 0.194169 -9.25187e-19 0.0033458
0.715676 0.403236 0 0.00436824
0.151552 0.807681 0 0.0170929
0.797951 0.197746 -7.70372e-34 0.00335481
0.350249 0.745097 0 0.0104647
0.797951 0.2049 3.08149e-33 0.00337285
0 0.823889 0 0.0143037
0.756813 0.328483 -3.46945e-18 0.00387919
0.797951 0.21046 0 0.00338594
0.797951 0.21602 -3.08149e-33 0.00339903
0.797951 0.223703 7.70372e-34 0.00341601
0.797951 0.227544 9.25187e-19 0.0034245
0.624584 0.546332 0 0.00547409
0.715676 0.421557 0 0.00438915
0.67013 0.491176 -3.46945e-18 0.00486387
0.797951 0.231525 7.70372e-34 0.0034328
0.467897 0.686824 -3.46945e-18 0.00788739
0.523729 0.645647 0 0.0069861
0.756813 0.344091 -3.46945e-18 0.00390336
0.822721 0.120806 7.70372e-34 0.00292837
0.797951 0.239487 -3.08149e-33 0.00344941
0.822721 0.137234 7.70372e-34 0.00300982
0.835106 0.00184056 0 1.73873e-07
0.835106 0.00558849 0 3.41258e-06
0.835106 0.00947248 0 2.3982e-05
0.835106 0.0134975 0 4.82843e-05
0.835107 0.0176687 0 6.91169e-05
0.835106 0.0219913 -3.46945e-18 9.36031e-05