# pMean  POINT_DATA 91129
# x  y  z  pMean
0 0 0 0.23282
0 0.00368111 0 0.232492
0 0.00749587 0 0.231781
0 0.0114491 0 0.231078
0 0.0155459 0 0.230443
0 0.0197915 0 0.229771
0 0.0241911 0 0.229009
0 0.0287506 0 0.22817
0 0.0334755 0 0.22728
0 0.038372 0 0.22636
0 0.0434463 0 0.225419
0 0.0487048 0 0.224466
0 0.0541543 0 0.223528
0 0.0598016 0 0.22265
0 0.0656539 0 0.221847
0 0.0717187 0 0.221077
0.075776 0.00184055 0 0.23282
0.075776 0.00558849 0 0.232165
0.075776 0.00947248 -3.46945e-18 0.231398
0.075776 0.0134975 -3.46945e-18 0.230759
0.075776 0.0176687 3.46945e-18 0.230128
0 0.0780037 0 0.220301
0.075776 0.0219913 3.46945e-18 0.229413
0.075776 0.0264709 3.46945e-18 0.228605
0.075776 0.031113 -3.46945e-18 0.227734
0.075776 0.0359237 -3.46945e-18 0.226827
0 0.0845169 0 0.21951
0.075776 0.0409092 0 0.225894
0.075776 0.0460755 -3.46945e-18 0.224944
0 0.0912666 0 0.218705
0.075776 0.0514296 -3.46945e-18 0.223989
0.075776 0.0569779 0 0.223068
0 0.0982613 0 0.217889
0.075776 0.0627278 0 0.222233
0.075776 0.0686863 0 0.221461
0 0.10551 0 0.217059
0.075776 0.0748612 3.46945e-18 0.220693
0.075776 0.0812603 -3.46945e-18 0.219909
0 0.113022 0 0.216214
0.075776 0.0878918 3.46945e-18 0.21911
0 0.120806 0 0.215351
0.075776 0.0947639 3.46945e-18 0.2183
0.075776 0.101886 -3.46945e-18 0.217477
0 0.128874 0 0.214468
0.075776 0.109266 3.46945e-18 0.216641
0 0.137234 0 0.213568
0.075776 0.116914 3.46945e-18 0.215787
0 0.145897 0 0.212669
0.075776 0.12484 0 0.214915
0.151552 0 0 0.21543
0.151552 0.00368111 0 0.215304
0.151552 0.00749587 0 0.215061
0.151552 0.0114491 0 0.214867
0.151552 0.0155459 0 0.214709
0.151552 0.0197915 0 0.214524
0.075776 0.133054 0 0.214021
0.151552 0.0241911 0 0.214291
0.151552 0.0287506 0 0.214014
0 0.154876 0 0.211801
0.151552 0.0334755 0 0.213705
0.151552 0.038372 0 0.213376
0.151552 0.0434463 0 0.213031
0.151552 0.0487048 0 0.212675
0.075776 0.141566 0 0.213115
0.151552 0.0541543 0 0.212318
0.151552 0.0598016 0 0.211984
0 0.16418 0 0.21099
0.151552 0.0656539 0 0.211678
0.151552 0.0717187 0 0.211379
0.075776 0.150387 0 0.212223
0.151552 0.0780037 0 0.211069
0.151552 0.0845169 0 0.210741
0 0.173822 0 0.210244
0.075776 0.159528 0 0.211378
0.151552 0.0912666 0 0.2104
0.151552 0.0982613 0 0.210049
0 0.183814 0 0.20955
0.151552 0.10551 0 0.209691
0.075776 0.169001 3.46945e-18 0.210601
0.151552 0.113022 0 0.209322
0.151552 0.120806 0 0.208932
0 0.194169 0 0.208886
0.075776 0.178818 3.46945e-18 0.209886
0.151552 0.128874 0 0.208512
0.075776 0.188992 3.46945e-18 0.209213
0.151552 0.137234 0 0.208063
0 0.2049 0 0.208231
0.151552 0.145897 0 0.207596
0.075776 0.199535 0 0.208558
0 0.21602 0 0.207568
0.151552 0.154876 0 0.207133
0.219992 0.00184055 0 0.199379
0.219992 0.00558849 0 0.199497
0.219992 0.00947248 -3.46945e-18 0.199758
0.219992 0.0134975 3.46945e-18 0.200048
0.219992 0.0176687 0 0.20032
0.219992 0.0219913 0 0.20058
0.219993 0.0264709 -3.46945e-18 0.20083
0.219992 0.031113 -3.46945e-18 0.201063
0.219992 0.0359238 3.46945e-18 0.201284
0.151552 0.16418 0 0.206688
0.075776 0.21046 0 0.207903
0.219992 0.0409092 3.46945e-18 0.201495
0.219992 0.0460755 0 0.201695
0.219993 0.0514296 -3.46945e-18 0.201883
0.219992 0.0569779 0 0.202058
0 0.227544 0 0.206873
0.219992 0.0627277 3.46945e-18 0.202218
0.219992 0.0686863 0 0.202363
0.151552 0.173822 0 0.206265
0.219992 0.0748612 3.46945e-18 0.202491
0.075776 0.221782 0 0.207232
0.219992 0.0812603 3.46945e-18 0.202601
0.219992 0.0878917 -3.46945e-18 0.202692
0.151552 0.183814 0 0.205856
7.47806e-17 0.239487 0 0.206127
0.219992 0.0947639 3.46945e-18 0.202773
0.219993 0.101886 3.46945e-18 0.202851
0.075776 0.233516 0 0.206515
0.219993 0.109266 0 0.202928
0.151552 0.194169 0 0.205448
0.219993 0.116914 0 0.20299
0 0.251863 0 0.205331
0.219993 0.12484 0 0.20302
0.151552 0.2049 0 0.205029
0.075776 0.245675 0 0.205738
0.219992 0.133054 3.46945e-18 0.203007
0.219992 0.141565 0 0.202954
0.151552 0.21602 0 0.204592
0 0.264688 0 0.204509
0.219992 0.150387 3.46945e-18 0.202873
0.075776 0.258275 3.46945e-18 0.204924
0.219992 0.159528 -3.46945e-18 0.202774
0.151552 0.227544 0 0.204123
0.219992 0.169001 3.46945e-18 0.202659
0 0.27798 0 0.203672
0.075776 0.271334 3.46945e-18 0.204094
0.151552 0.239487 3.70071e-18 0.203612
0.219992 0.178818 3.46945e-18 0.202524
0.288433 0 0 0.203417
0.288433 0.00368111 0 0.203459
0.288433 0.00749587 0 0.203588
0.288433 0.0114491 0 0.203773
0.288433 0.0155459 3.70071e-18 0.203969
0.288433 0.0197915 0 0.204161
0.288433 0.0241911 3.70071e-18 0.204352
0.288433 0.0287506 0 0.204536
0.219992 0.188991 0 0.202366
0.288433 0.0334755 0 0.204714
0.288433 0.038372 0 0.204887
0.288433 0.0434463 0 0.205053
7.47806e-17 0.291753 0 0.202817
0.288433 0.0487048 0 0.205212
0.288433 0.0541543 0 0.205363
0.151552 0.251863 0 0.20306
0.288433 0.0598016 3.70071e-18 0.205504
0.075776 0.284866 0 0.203249
0.288433 0.0656539 3.70071e-18 0.205635
0.219992 0.199534 0 0.20218
0.288433 0.0717187 0 0.205757
0.288433 0.0780037 0 0.20587
0.288433 0.0845169 0 0.205971
0.288433 0.0912666 0 0.206055
0.219992 0.21046 -3.46945e-18 0.201967
0.288433 0.0982613 0 0.206124
0.151552 0.264688 3.70071e-18 0.202477
0 0.306027 0 0.201937
0.288433 0.10551 0 0.20618
0.075776 0.29889 3.46945e-18 0.202384
0.288433 0.113022 0 0.20622
0.219993 0.221782 0 0.201722
0.288433 0.120806 0 0.206242
0.288433 0.128874 0 0.206242
0.151552 0.27798 0 0.201872
0.288433 0.137234 0 0.206218
0 0.320819 0 0.20102
0.219992 0.233515 -3.46945e-18 0.201446
0.075776 0.313423 -3.46945e-18 0.201489
0.288433 0.145897 0 0.206169
0.288433 0.154876 0 0.206098
0.151552 0.291753 0 0.201246
0.219993 0.245675 0 0.201135
0.288433 0.16418 0 0.206005
0 0.336148 0 0.20007
0.288433 0.173822 0 0.205891
0.075776 0.328484 -3.46945e-18 0.20055
0.219993 0.258275 -3.46945e-18 0.200789
0.151552 0.306027 0 0.200593
0.288433 0.183814 0 0.205754
0.288433 0.194169 0 0.20559
0.219992 0.271334 3.46945e-18 0.200411
0.350249 0.00184056 -3.46945e-18 0.207157
0.350249 0.00558849 0 0.20721
0.350249 0.00947248 3.46945e-18 0.207303
0.350249 0.0134975 0 0.207415
0.350249 0.0176687 0 0.207536
0.350249 0.0219913 0 0.207664
0.350249 0.0264708 3.46945e-18 0.207796
0.350249 0.031113 0 0.207929
0 0.352034 0 0.199126
0.350249 0.0359238 0 0.208061
0.075776 0.344091 0 0.199591
0.350249 0.0409091 0 0.208192
0.350249 0.0460756 3.46945e-18 0.208321
0.288433 0.2049 0 0.205399
0.350249 0.0514296 0 0.208446
0.151552 0.320819 0 0.199899
0.350249 0.0569779 0 0.208566
0.350249 0.0627277 3.46945e-18 0.20868
0.350249 0.0686863 3.46945e-18 0.208789
0.350249 0.0748612 3.46945e-18 0.208896
0.350249 0.0812603 0 0.209003
0.219992 0.284867 0 0.200009
0.288433 0.21602 0 0.205177
0.350249 0.0878917 0 0.209099
0.350249 0.094764 0 0.20917
0.350249 0.101886 0 0.209216
0.350249 0.109266 0 0.20924
0.288433 0.227544 0 0.204924
0.075776 0.360265 3.46945e-18 0.198662
0 0.368496 0 0.198203
0.151552 0.336148 0 0.199162
0.350249 0.116914 3.46945e-18 0.209244
0.219992 0.29889 0 0.199583
0.370854 0.0241911 1.54074e-33 0.21044
0.350249 0.12484 0 0.209237
0.350249 0.133054 0 0.209229
0.288433 0.239487 -9.25154e-19 0.204638
0.350249 0.141566 3.46945e-18 0.209209
0.350249 0.150387 3.46945e-18 0.209166
0.288433 0.251863 0 0.204316
0.219992 0.313423 0 0.19912
0.151552 0.352034 0 0.198398
0.075776 0.377027 0 0.197744
0.350249 0.159528 0 0.209098
0 0.385557 0 0.197258
0.350249 0.169001 0 0.209007
0.288433 0.264688 0 0.203958
0.350249 0.178818 0 0.208891
0.219992 0.328484 0 0.198607
0.350249 0.188992 0 0.208749
0.151552 0.368496 0 0.197618
0.288433 0.27798 3.70071e-18 0.203568
0.075776 0.394397 0 0.196772
0.350249 0.199535 0 0.20858
7.47806e-17 0.403236 0 0.19625
0.219992 0.344091 0 0.198038
0.350249 0.21046 -3.46945e-18 0.208381
0.288433 0.291753 0 0.203146
0.412065 9.08189e-19 3.08149e-33 0.213103
0.412065 0.00368111 -2.31298e-18 0.213121
0.412065 0.00749587 -2.31298e-18 0.213172
0.412065 0.0114491 -2.31298e-18 0.213242
0.412065 0.0155459 -2.31298e-18 0.213319
0.412065 0.0197915 0 0.2134
0.412065 0.0241911 -3.08149e-33 0.213484
0.412065 0.0264709 0 0.213527
0.412065 0.0287506 -2.31298e-18 0.21357
0.412065 0.0334755 -2.31298e-18 0.213658
0.412065 0.038372 -2.31298e-18 0.213749
0.151552 0.385557 0 0.196803
0.412065 0.0434463 0 0.21384
0.350249 0.221782 0 0.208151
0.412065 0.0487048 0 0.213931
0.412065 0.0541543 -3.08149e-33 0.214022
0.412065 0.0569779 0 0.214067
0.412065 0.0598016 -2.31298e-18 0.214111
0.412065 0.0656539 -2.31298e-18 0.214197
0.412065 0.0717187 -2.31298e-18 0.21428
0.075776 0.412396 -3.46945e-18 0.195726
0.412065 0.0780037 -2.31298e-18 0.214351
0.288433 0.306027 0 0.202689
0.412065 0.0845169 -2.31298e-18 0.214402
0.350249 0.233516 3.46945e-18 0.207889
0 0.421557 0 0.195175
0.412065 0.0912666 -2.31298e-18 0.214426
0.219992 0.360265 3.46945e-18 0.197414
0.412065 0.0982613 0 0.21443
0.412065 0.10551 0 0.214417
0.412065 0.113022 -2.31298e-18 0.214388
0.350249 0.245675 0 0.207591
0.412065 0.120806 0 0.214345
0.151552 0.403236 0 0.195931
0.288433 0.320819 0 0.202189
0.412065 0.128874 -2.31298e-18 0.214291
0.412065 0.137234 0 0.214226
0.350249 0.258275 -3.46945e-18 0.207257
0.219992 0.377026 0 0.196742
0.412065 0.145897 -2.31298e-18 0.214147
0.075776 0.431051 0 0.194622
0.412065 0.154876 -2.31298e-18 0.21405
0 0.440544 0 0.194051
0.288433 0.336148 0 0.201641
0.350249 0.271334 0 0.206885
0.412065 0.16418 -2.31298e-18 0.213932
0.412065 0.173822 -2.31298e-18 0.213794
0.151552 0.421557 0 0.194998
0.412065 0.183814 -2.31298e-18 0.213633
0.350249 0.284867 3.46945e-18 0.206475
0.219992 0.394397 0 0.196022
0.288433 0.352034 3.70071e-18 0.20104
0.412065 0.194169 0 0.213448
0.075776 0.450382 0 0.193478
0.412065 0.2049 -2.31298e-18 0.213237
0 0.46022 0 0.192887
0.350249 0.29889 3.46945e-18 0.206027
0.412065 0.21602 0 0.212997
0.151552 0.440544 0 0.194011
0.219993 0.412396 3.46945e-18 0.19525
0.467897 0.00184056 -3.46945e-18 0.218633
0.467897 0.00558849 0 0.218657
0.288433 0.368496 0 0.200387
0.467897 0.00947248 0 0.218694
0.467897 0.0134975 0 0.218735
0.467897 0.0176687 3.46945e-18 0.218776
0.467897 0.0219913 -3.46945e-18 0.218815
0.467897 0.0264709 3.46945e-18 0.218857
0.467897 0.0311131 3.46945e-18 0.218902
0.467897 0.0359238 -3.46945e-18 0.218952
0.467897 0.038372 0 0.219633
0.467897 0.0409092 3.46945e-18 0.219005
0.350249 0.313423 0 0.205539
0.467897 0.0460755 0 0.219063
0.467897 0.0514296 3.46945e-18 0.219123
0.412065 0.227544 -2.31298e-18 0.212728
0.467897 0.0569779 0 0.219186
0.467897 0.0627277 -3.46945e-18 0.219249
0.467897 0.0686863 3.46945e-18 0.219311
0.467897 0.0748612 0 0.219365
0.467897 0.0812603 0 0.219389
0.467897 0.0878918 3.46945e-18 0.219371
0.075776 0.470415 3.46945e-18 0.192295
0.412065 0.239487 -2.31298e-18 0.212427
0.467897 0.0947639 -3.46945e-18 0.219328
0.467897 0.101886 3.46945e-18 0.219275
0.350249 0.328483 0 0.205007
0.467897 0.109266 0 0.219213
0 0.48061 0 0.191682
0.288433 0.385557 0 0.199683
0.467897 0.116914 0 0.219139
0.412065 0.251863 -2.31298e-18 0.212092
0.219992 0.431051 0 0.19442
0.467897 0.12484 0 0.21905
0.151552 0.46022 0 0.192973
0.467897 0.133054 3.46945e-18 0.218945
0.467897 0.141566 3.46945e-18 0.218828
0.412065 0.264688 -2.31298e-18 0.21172
0.350249 0.344091 -3.46945e-18 0.204428
0.467897 0.150387 3.46945e-18 0.218698
0.467897 0.154876 0 0.219378
0.467897 0.159528 3.46945e-18 0.218554
0.288433 0.403236 0 0.198925
0.075776 0.491175 0 0.191068
0.412065 0.27798 -2.31298e-18 0.211309
0.467897 0.169001 0 0.218392
0.467897 0.178818 3.46945e-18 0.218212
0.219992 0.450382 0 0.193528
6.73026e-17 0.501741 3.70071e-18 0.190431
0.350249 0.360265 0 0.203798
0.151552 0.48061 0 0.191883
0.467897 0.188991 0 0.218011
0.412065 0.291753 0 0.210859
0.467897 0.199535 0 0.217787
0.288433 0.421557 0 0.198108
0.467897 0.21046 0 0.217538
0.412065 0.306027 0 0.210367
0.350249 0.377027 0 0.203114
0.467897 0.221782 3.46945e-18 0.217263
0.075776 0.51269 0 0.189792
0.219993 0.470415 3.46945e-18 0.192576
0.467897 0.227544 0 0.217826
0.412065 0.320819 -2.31298e-18 0.209832
0.467897 0.233515 0 0.216958
6.73026e-17 0.523639 3.70071e-18 0.18913
0.523729 0 0 0.225286
0.523729 0.00368111 0 0.225295
0.523729 0.00749587 -2.31298e-18 0.225321
0.523729 0.0114491 0 0.225353
0.523729 0.0155459 0 0.225384
0.523729 0.0197915 -2.31298e-18 0.22541
0.151552 0.501741 0 0.190738
0.523729 0.0241911 0 0.225433
0.523729 0.0287506 0 0.225458
0.523729 0.0334755 0 0.225486
0.523729 0.038372 -3.08149e-33 0.225517
0.523729 0.0434463 0 0.225551
0.523729 0.0487048 0 0.225588
0.523729 0.0541543 0 0.225627
0.288433 0.440544 0 0.19723
0.523729 0.0598016 0 0.225669
0.350249 0.394397 -3.46945e-18 0.202374
0.523729 0.0656539 0 0.225711
0.467897 0.245675 0 0.216621
0.523729 0.0717187 0 0.225745
0.523729 0.0780037 0 0.225755
0.523729 0.0845169 0 0.225725
0.523729 0.0912666 0 0.225664
0.412065 0.336148 0 0.209248
0.523729 0.0982613 0 0.225587
0.523729 0.10551 -2.31298e-18 0.225501
0.467897 0.258275 -3.46945e-18 0.21625
0.523729 0.113022 0 0.225404
0.523729 0.120806 -3.08149e-33 0.225294
0.219993 0.491176 0 0.191563
0.523729 0.12484 0 0.225232
0.523729 0.128874 -2.31298e-18 0.225169
0.075776 0.534986 0 0.188465
0.467897 0.271334 3.46945e-18 0.215842
0.350249 0.412396 -3.46945e-18 0.201574
0.523729 0.137234 0 0.22503
0.412065 0.352034 -2.31298e-18 0.208614
0.288433 0.46022 0 0.196287
0.523729 0.145897 0 0.224876
0.151552 0.523639 0 0.18953
0.523729 0.154876 -3.08149e-33 0.224707
0 0.546332 0 0.187776
0.523729 0.159528 0 0.224613
0.467897 0.284867 -3.46945e-18 0.215394
0.523729 0.16418 -2.31298e-18 0.22452
0.523729 0.173822 0 0.224313
0.412065 0.368496 0 0.207926
0.523729 0.183814 0 0.224085
0.467897 0.29889 0 0.214903
0.350249 0.431051 -3.46945e-18 0.200713
0.219992 0.51269 0 0.19048
0.523729 0.194169 0 0.223834
0.288433 0.48061 0 0.195279
0.523729 0.2049 0 0.223559
0.467897 0.313423 3.46945e-18 0.214368
0.075776 0.558091 0 0.187084
0.412065 0.385557 0 0.207182
0.523729 0.21602 -3.08149e-33 0.223256
0.151552 0.546332 0 0.188256
0 0.569849 0 0.186364
0.350249 0.450382 3.46945e-18 0.199786
0.523729 0.227544 -3.08149e-33 0.222924
0.467897 0.328483 0 0.213784
0.523729 0.231525 1.54074e-33 0.222803
0.574156 0.00184056 0 0.231502
0.574156 0.00558849 0 0.231518
0.574157 0.00947248 0 0.231543
0.574156 0.0134975 -3.46945e-18 0.231569
0.574156 0.0176687 -3.46945e-18 0.231587
0.574156 0.0219913 0 0.231595
0.574156 0.0264708 -3.46945e-18 0.231601
0.574156 0.031113 0 0.23161
0.574156 0.0359238 -3.46945e-18 0.231621
0.574157 0.0409092 0 0.231634
0.523729 0.239487 3.70071e-18 0.222561
0.574156 0.0460755 -3.46945e-18 0.231648
0.574156 0.0514295 0 0.231666
0.412065 0.403236 0 0.206377
0.574157 0.0569779 0 0.231686
0.574156 0.0627277 0 0.23171
0.574156 0.0686863 0 0.231732
0.219992 0.534986 0 0.189321
0.288433 0.501741 0 0.194201
0.574156 0.0748612 3.46945e-18 0.231735
0.574156 0.0812603 0 0.231694
0.467897 0.344091 0 0.213149
0.574156 0.0878917 3.46945e-18 0.231614
0.523729 0.251863 0 0.222165
0.574157 0.0947639 0 0.231515
0.574156 0.101886 0 0.231408
0.574156 0.109266 0 0.23129
0.574156 0.116914 0 0.23116
0.412065 0.416977 -6.16298e-33 0.205727
0.350249 0.470415 0 0.19879
0.523729 0.264688 0 0.221732
0.075776 0.582034 0 0.185642
0.574156 0.12484 0 0.231017
0.574156 0.133054 3.46945e-18 0.230859
0.412065 0.421557 -2.31298e-18 0.20551
0.151552 0.569849 0 0.186912
0.467897 0.360265 -3.46945e-18 0.212461
0.574157 0.141566 -3.46945e-18 0.230685
0.523729 0.27798 0 0.22126
0.574156 0.150386 3.46945e-18 0.230495
0 0.594219 0 0.18489
0.574156 0.159528 -3.46945e-18 0.230286
0.574156 0.16418 0 0.230793
0.288433 0.523639 1.2326e-32 0.193047
0.574157 0.169001 0 0.230057
0.523729 0.291753 0 0.220747
0.219993 0.558091 3.46945e-18 0.18808
0.467897 0.377026 0 0.211716
0.574156 0.178818 3.46945e-18 0.229806
0.412065 0.440544 -2.31298e-18 0.204577
0.350249 0.491175 0 0.197722
0.574156 0.188992 3.46945e-18 0.229532
0.523729 0.306027 -3.08149e-33 0.220189
0.574157 0.199535 0 0.229233
0.574157 0.21046 0 0.228908
0.075776 0.606847 0 0.184136
0.467897 0.394397 0 0.210912
0.151552 0.594219 0 0.185494
0.523729 0.320819 0 0.219585
0.574157 0.221782 -3.46945e-18 0.228553
0.412065 0.46022 3.08149e-33 0.203575
0.288433 0.546332 0 0.191814
0 0.619475 0 0.183349
0.574156 0.233515 3.46945e-18 0.228167
0.350249 0.51269 3.46945e-18 0.196578
0.219992 0.582034 3.46945e-18 0.186757
0.523729 0.336148 0 0.21893
0.467897 0.412396 0 0.210044
0.574156 0.245675 0 0.227748
0.624584 0 0 0.238945
0.624584 0.00368111 0 0.238952
0.624584 0.00749587 0 0.238972
0.624584 0.0114491 0 0.238997
0.624584 0.0155459 0 0.239019
0.624584 0.0197915 0 0.239027
0.624584 0.0241911 -2.31298e-18 0.239024
0.624584 0.0287506 0 0.239019
0.624584 0.0334755 0 0.239016
0.624584 0.038372 0 0.239014
0.624584 0.0434463 -2.31298e-18 0.239014
0.624584 0.0487048 0 0.239014
0.624584 0.0541543 0 0.239016
0.624584 0.0598016 0 0.239018
0.624584 0.0656539 0 0.239019
0.624584 0.0717187 0 0.239005
0.624584 0.0780037 0 0.238955
0.574157 0.258276 3.46945e-18 0.227294
0.624584 0.0845169 0 0.238864
0.523729 0.352034 0 0.218223
0.624584 0.0912666 0 0.238748
0.624584 0.0982613 0 0.238619
0.412065 0.48061 3.08149e-33 0.2025
0.624584 0.10551 0 0.238479
0.624584 0.113022 -2.31298e-18 0.238326
0.574156 0.271334 0 0.226802
0.624584 0.120806 0 0.238159
0.467897 0.431051 0 0.20911
0.075776 0.632561 -3.46945e-18 0.182559
0.624584 0.128874 0 0.237976
0.151552 0.619475 0 0.183998
0.288433 0.569849 0 0.190496
0.350249 0.534985 0 0.195355
0.624584 0.137234 -2.31298e-18 0.237777
0.523729 0.368496 0 0.217459
0.574156 0.284866 -3.46945e-18 0.226269
0.624584 0.145897 0 0.237559
0.467897 0.440544 0 0.209176
0.624584 0.154876 0 0.237323
0.219992 0.606847 -3.46945e-18 0.185348
0 0.645647 0 0.181735
0.624584 0.16418 -3.08149e-33 0.237066
0.574156 0.29889 -3.46945e-18 0.225694
0.624584 0.173822 0 0.236787
0.412065 0.501741 1.54074e-33 0.201349
0.467897 0.450382 -3.46945e-18 0.208107
0.523729 0.385557 0 0.216636
0.624584 0.183814 0 0.236484
0.624584 0.194169 0 0.236156
0.574156 0.313423 0 0.225072
0.624584 0.2049 0 0.2358
0.350249 0.558091 3.46945e-18 0.194049
0.288433 0.594219 0 0.189092
0.624584 0.21602 0 0.235415
0.523729 0.403236 0 0.21575
0.574156 0.328483 -3.46945e-18 0.224402
0.151552 0.645647 0 0.182421
0.467897 0.470415 3.46945e-18 0.207031
0.075776 0.659208 0 0.180908
0.624584 0.227544 0 0.234999
0.412065 0.523639 0 0.200118
0.523729 0.41545 3.08149e-33 0.215115
0.624584 0.239487 3.70071e-18 0.23455
0.574156 0.344091 0 0.223679
0.219992 0.632561 0 0.183851
0.67013 0.00184055 0 0.245933
0.67013 0.00558849 0 0.245947
0.67013 0.00947248 0 0.24597
0.67013 0.0134975 0 0.245997
0.67013 0.0176687 -3.46945e-18 0.246011
0.67013 0.0219913 0 0.246005
0.67013 0.0264708 3.46945e-18 0.245988
0.67013 0.0311131 0 0.245972
0.67013 0.0359237 0 0.245957
0.67013 0.0409092 -3.46945e-18 0.245943
0.67013 0.0460755 0 0.245929
0.67013 0.0514296 3.46945e-18 0.245915
0.523729 0.421557 -2.31298e-18 0.214798
0.67013 0.056978 0 0.2459
0 0.67277 0 0.180044
0.67013 0.0627277 0 0.245884
0.624584 0.251863 0 0.234065
0.67013 0.0686863 0 0.245861
0.67013 0.0748612 3.46945e-18 0.245806
0.67013 0.0812603 0 0.245702
0.67013 0.0878917 0 0.245567
0.67013 0.0947639 3.46945e-18 0.24542
0.574156 0.360265 0 0.222901
0.67013 0.101886 0 0.245262
0.523729 0.431051 0 0.214286
0.624584 0.264688 0 0.233542
0.467897 0.491175 0 0.205878
0.67013 0.109266 3.46945e-18 0.245089
0.350249 0.582034 0 0.192656
0.67013 0.116914 0 0.244901
0.67013 0.12484 0 0.244697
0.67013 0.133054 0 0.244475
0.288433 0.619475 0 0.187598
0.624584 0.27798 -3.08149e-33 0.232979
0.412065 0.546332 1.54074e-33 0.198803
0.523729 0.440544 -3.08149e-33 0.213775
0.67013 0.141566 3.46945e-18 0.244235
0.685312 0.0241911 -7.70372e-34 0.249053
0.685312 0.0434463 -7.70372e-34 0.248964
0.67013 0.150387 0 0.243975
0.574156 0.377026 -3.46945e-18 0.222064
0.67013 0.159528 0 0.243693
0.624584 0.291753 0 0.232373
0.151552 0.67277 0 0.180758
0.075776 0.686823 0 0.179177
0.67013 0.169001 0 0.243389
0.67013 0.178818 0 0.243061
0.467897 0.51269 0 0.204645
0.685312 0.113022 -7.70372e-34 0.247905
0.219992 0.659208 0 0.182262
0.624584 0.306027 0 0.231721
0.67013 0.188991 0 0.242708
0.574156 0.394397 3.46945e-18 0.221165
0.523729 0.46022 0 0.21268
0.685312 0.137234 -7.70372e-34 0.247222
0.67013 0.199535 -3.46945e-18 0.242326
0.350249 0.606847 0 0.191172
0 0.700877 0 0.17827
0.624584 0.320819 0 0.231021
0.67013 0.21046 0 0.241915
0.412065 0.569849 -2.31298e-18 0.197399
0.67013 0.221782 -3.46945e-18 0.241473
0.574157 0.412396 0 0.2202
0.288433 0.645647 0 0.18601
0.624584 0.336148 -3.08149e-33 0.230268
0.67013 0.233515 3.46945e-18 0.240998
0.467897 0.534986 0 0.203328
0.523729 0.48061 0 0.211506
0.624584 0.344091 0 0.229864
0.67013 0.245675 0 0.240487
0.715676 4.54095e-19 0 0.254023
0.715676 0.00368111 0 0.254029
0.715676 0.00749587 0 0.254048
0.715676 0.0114491 0 0.254073
0.715676 0.0155459 0 0.254092
0.715676 0.0197915 0 0.25409
0.715676 0.0241911 0 0.254068
0.715676 0.0287506 0 0.254037
0.715676 0.0334755 0 0.254005
0.715676 0.038372 0 0.253972
0.624584 0.352034 -2.31298e-18 0.22946
0.715676 0.0434463 0 0.253939
0.151552 0.700877 0 0.179005
0.715676 0.0487048 0 0.253904
0.715676 0.0541543 0 0.253869
0.574156 0.43105 0 0.219164
0.715676 0.0598016 0 0.253832
0.67013 0.258275 0 0.239938
0.715676 0.0656539 0 0.253788
0.715676 0.0717187 0 0.253719
0.075776 0.715441 0 0.17736
0.715676 0.0780037 0 0.253607
0.715676 0.0845169 0 0.253458
0.219992 0.686824 0 0.180577
0.715676 0.0912666 0 0.253289
0.715676 0.0982613 0 0.253106
0.67013 0.271334 -3.46945e-18 0.239349
0.350249 0.632561 -3.46945e-18 0.189592
0.412065 0.594219 3.08149e-33 0.195903
0.715676 0.10551 0 0.252909
0.715676 0.113022 0 0.252695
0.624584 0.368496 0 0.228594
0.523729 0.501741 0 0.210252
0.715676 0.120806 0 0.252464
0.715676 0.128874 0 0.252214
0.67013 0.284867 0 0.238717
0.467897 0.558091 3.46945e-18 0.201921
0.715676 0.137234 0 0.251945
0.574156 0.450382 0 0.218055
0 0.730005 0 0.176409
0.715676 0.145897 0 0.251656
0.288433 0.67277 0 0.184324
0.715676 0.154876 0 0.251344
0.67013 0.29889 0 0.23804
0.624584 0.385557 0 0.227666
0.715676 0.16418 -9.25187e-19 0.251009
0.715676 0.173822 0 0.250649
0.715676 0.183814 0 0.250263
0.67013 0.313423 0 0.237314
0.523729 0.523639 0 0.208911
0.715676 0.194169 0 0.249848
0.574156 0.470415 3.46945e-18 0.216868
0.624584 0.403236 0 0.226671
0.743101 0.0241911 -7.70372e-34 0.259465
0.412065 0.619475 3.08149e-33 0.194309
0.715676 0.2049 0 0.249404
0.151552 0.730005 0 0.177157
0.67013 0.328484 3.46945e-18 0.236537
0.350249 0.659208 0 0.187913
0.467897 0.582034 0 0.200421
0.715676 0.21602 0 0.248928
0.219992 0.715441 0 0.178794
0.075776 0.745097 -3.46945e-18 0.175453
0.715676 0.227544 0 0.248418
0.67013 0.344091 0 0.235704
0.624584 0.421557 0 0.225607
0.743101 0.128874 -7.70372e-34 0.257274
0.715676 0.239487 3.70071e-18 0.247872
0.574156 0.491175 0 0.215599
0.756814 0.00184055 0 0.261656
0.523729 0.546332 0 0.20748
0.756813 0.00558849 0 0.261669
0.756813 0.00947248 0 0.261692
0.756814 0.0134975 -3.46945e-18 0.261719
0.756814 0.0155459 0 0.262205
0.756814 0.0176687 0 0.261727
0.756814 0.0219913 0 0.261705
0.756814 0.0264709 0 0.261663
0.756814 0.031113 -3.46945e-18 0.261617
0.756813 0.0359238 -3.46945e-18 0.261569
0.288433 0.700877 0 0.182536
0.756814 0.0409092 -3.46945e-18 0.261517
0.756813 0.0460755 3.46945e-18 0.261464
0.756813 0.0514296 0 0.26141
0.715676 0.251863 0 0.247288
0.756813 0.0569779 0 0.261354
0.756814 0.0627277 -3.46945e-18 0.261295
0.756814 0.0686863 -3.46945e-18 0.261219
0 0.76019 0 0.174455
0.756814 0.0748612 0 0.2611
0.67013 0.360265 3.46945e-18 0.234814
0.756814 0.0812603 -3.46945e-18 0.260936
0.756814 0.0878917 -3.46945e-18 0.260747
0.756814 0.0947639 -3.46945e-18 0.260544
0.715676 0.264688 0 0.246664
0.756813 0.101886 0 0.260325
0.624584 0.440544 0 0.224469
0.756813 0.109266 3.46945e-18 0.260089
0.756813 0.116914 3.46945e-18 0.259835
0.412065 0.645647 0 0.192614
0.467897 0.606847 0 0.198822
0.756814 0.120806 0 0.260094
0.756813 0.12484 0 0.259561
0.715676 0.27798 0 0.245997
0.756814 0.133054 -3.46945e-18 0.259267
0.67013 0.377026 -3.46945e-18 0.233862
0.756814 0.137234 0 0.259493
0.574156 0.51269 0 0.214244
0.756813 0.141566 3.46945e-18 0.258952
0.685312 0.352034 -7.70372e-34 0.237768
0.743101 0.2049 -7.70372e-34 0.254217
0.350249 0.686824 0 0.186129
0.756814 0.150387 0 0.258614
0.756814 0.154876 0 0.258804
0.715676 0.291753 0 0.245285
0.756814 0.159528 -3.46945e-18 0.258251
0.523729 0.569849 0 0.205954
0.72743 0.264688 0 0.24865
0.756814 0.16418 0 0.258423
0.151552 0.76019 0 0.175211
0.756813 0.169001 3.46945e-18 0.257864
0.624584 0.46022 0 0.223252
0.219993 0.745097 0 0.176908
0.67013 0.394396 0 0.232845
0.756813 0.178818 -3.46945e-18 0.257449
0.715676 0.306027 0 0.244524
0.075776 0.775831 0 0.173451
0.756813 0.188991 0 0.257006
0.756814 0.199535 0 0.256532
0.715676 0.320819 0 0.243712
0.574156 0.534985 0 0.212797
0.288433 0.730005 0 0.180643
0.756813 0.21046 0 0.256026
0.467897 0.632561 0 0.19712
0.67013 0.412396 -3.46945e-18 0.231758
0.624584 0.48061 -3.08149e-33 0.221953
0.756814 0.221782 0 0.255486
0.412065 0.67277 3.08149e-33 0.190812
0.715676 0.336148 0 0.242846
0 0.791472 0 0.172403
0.756813 0.233516 3.46945e-18 0.25491
0.523729 0.594219 0 0.204327
0.624584 0.487654 1.54074e-33 0.221491
0.756814 0.245675 3.46945e-18 0.254296
0.350249 0.715441 3.46945e-18 0.184238
0.67013 0.43105 0 0.230597
0.715676 0.352034 -9.25187e-19 0.241921
0.797951 9.08189e-19 -3.08149e-33 0.270251
0.797951 0.00368111 2.31298e-18 0.270258
0.797951 0.00749587 2.31298e-18 0.270277
0.797951 0.0114491 2.31298e-18 0.270302
0.797951 0.0141803 7.70372e-34 0.270313
0.797951 0.0155459 0 0.270318
0.797951 0.0169611 7.70372e-34 0.270313
0.797951 0.0197915 2.31298e-18 0.270304
0.797951 0.0219913 0 0.270282
0.797951 0.0241911 3.08149e-33 0.27026
0.797951 0.0264709 0 0.27023
0.797951 0.0287506 -3.08149e-33 0.270199
0.797951 0.0334755 2.31298e-18 0.270129
0.797951 0.038372 2.31298e-18 0.270055
0.797951 0.0434463 2.31298e-18 0.269976
0.797951 0.0487048 0 0.269894
0.756813 0.258275 -3.46945e-18 0.253641
0.797951 0.0541543 2.31298e-18 0.26981
0.797951 0.0598016 2.31298e-18 0.269721
0.797951 0.0656539 2.31298e-18 0.269618
0.574156 0.55809 0 0.211254
0.624584 0.501741 0 0.220567
0.797951 0.0717187 2.31298e-18 0.26948
0.797951 0.0780037 -3.08149e-33 0.269297
0.797951 0.0845169 2.31298e-18 0.269081
0.797951 0.0912666 -3.08149e-33 0.268845
0.797951 0.0982613 2.31298e-18 0.268593
0.756813 0.271334 0 0.252944
0.797951 0.10551 2.31298e-18 0.268323
0.715676 0.368496 0 0.240936
0.151552 0.791472 0 0.17316
0.797951 0.113022 2.31298e-18 0.268034
0.219992 0.775831 3.46945e-18 0.174915
0.797951 0.118211 7.70372e-34 0.267827
0.770526 0.239487 1.54074e-33 0.257287
0.797951 0.120806 0 0.267724
0.67013 0.450382 3.46945e-18 0.229358
0.797951 0.128874 3.08149e-33 0.267393
0.467897 0.659208 0 0.195309
0.756813 0.284866 -3.46945e-18 0.252202
0.743101 0.320819 -7.70372e-34 0.248192
0.797951 0.137234 0 0.267041
0.797951 0.141566 0 0.266853
0.797951 0.145897 -9.25187e-19 0.266665
0.523729 0.619475 0 0.202595
0.075776 0.807681 0 0.171349
0.797951 0.150387 0 0.266464
0.797951 0.154876 0 0.266264
0.715676 0.385557 0 0.239885
0.412065 0.700877 3.08149e-33 0.188899
0.288433 0.76019 0 0.178638
0.756813 0.29889 0 0.251411
0.797951 0.16418 0 0.265837
0.624584 0.523639 0 0.219088
0.797951 0.167394 7.70372e-34 0.265686
0.797951 0.173822 2.31298e-18 0.265383
0.574156 0.582034 0 0.20961
0.67013 0.470415 0 0.228036
0.797951 0.183814 2.31298e-18 0.264901
0.756813 0.313423 -3.46945e-18 0.250569
0.797951 0.194169 -9.25187e-19 0.264387
0.715676 0.403236 0 0.238765
0.151552 0.807681 0 0.172081
0.797951 0.197746 -7.70372e-34 0.264206
0.350249 0.745097 0 0.182233
0.797951 0.2049 3.08149e-33 0.263842
0 0.823889 0 0.170248
0.756813 0.328483 -3.46945e-18 0.249674
0.797951 0.21046 0 0.263552
0.797951 0.21602 -3.08149e-33 0.263263
0.797951 0.223703 7.70372e-34 0.262853
0.797951 0.227544 9.25187e-19 0.262648
0.624584 0.546332 0 0.217512
0.715676 0.421557 0 0.237571
0.67013 0.491176 -3.46945e-18 0.226627
0.797951 0.231525 7.70372e-34 0.26243
0.467897 0.686824 -3.46945e-18 0.193385
0.523729 0.645647 0 0.200753
0.756813 0.344091 -3.46945e-18 0.248721
0.822721 0.120806 7.70372e-34 0.272992
0.797951 0.239487 -3.08149e-33 0.261995
0.822721 0.137234 7.70372e-34 0.272247
0.835106 0.00184056 0 0.278403
0.835106 0.00558849 0 0.278418
0.835106 0.00947248 0 0.278442
0.835106 0.0134975 0 0.278469
0.835107 0.0176687 0 0.27847
0.835106 0.0219913 -3.46945e-18 0.27843
0.574156 0.606847 3.46945e-18 0.207858
0.835106 0.0241911 0 0.278697
0.835106 0.0264709 -3.46945e-18 0.27836
0.822721 0.145897 -7.70372e-34 0.271839
0.835106 0.031113 3.46945e-18 0.278273
0.835106 0.0359238 3.46945e-18 0.278178
0.835106 0.0409092 -3.46945e-18 0.278078
0.835106 0.0460755 3.46945e-18 0.277971
0.835106 0.0514296 0 0.27786
0.797951 0.251863 -3.08149e-33 0.261302
0.835106 0.0541543 0 0.278096
0.835106 0.0569779 0 0.277745
0.219992 0.807681 3.46945e-18 0.172811
0.822721 0.154876 7.70372e-34 0.271406
0.835106 0.0627277 0 0.277623
0.151552 0.823889 0 0.171002
0.797951 0.255069 -1.54074e-33 0.261118
0.835106 0.0686863 3.46945e-18 0.277472
0.756814 0.360265 -3.46945e-18 0.247707
0.412065 0.730005 0 0.18687
0.835106 0.0748612 0 0.277271
0.822721 0.16418 7.70372e-34 0.270945
0.835106 0.0812603 0 0.277028
0.835106 0.0878917 -3.46945e-18 0.276764
0.715676 0.440544 0 0.2363
0.835106 0.094764 0 0.276482
0.797951 0.264688 -1.2326e-32 0.260567
0.835106 0.101886 -3.46945e-18 0.276182
0.835106 0.109266 3.46945e-18 0.275861
0.288433 0.791472 0 0.17652
0.835106 0.116914 0 0.27552
0.67013 0.51269 3.46945e-18 0.225125
0.797951 0.274657 6.16298e-33 0.259982
0.075776 0.840686 -3.46945e-18 0.169141
0.835106 0.12484 0 0.275156
0.797951 0.27798 -3.08149e-33 0.259787
0.624584 0.569849 0 0.215833
0.756813 0.377026 -3.46945e-18 0.246629
0.835106 0.133054 3.46945e-18 0.27477
0.835106 0.141565 3.46945e-18 0.27436
0.835106 0.150386 0 0.273924
0.797951 0.291753 0 0.25896
0.835106 0.159528 3.46945e-18 0.273463
0.715676 0.46022 0 0.234946
0.816529 0.239487 -1.54074e-33 0.265635
0.350249 0.775831 3.46945e-18 0.18011