# pMean  POINT_DATA 63840
# x  y  z  pMean
0 0.5 3.39583e-17 0.190534
0 0.5 -0.00617931 0.190569
0 0.5 0.00617931 0.190503
0.0124865 0.5 -0.00617931 0.190569
0.0124865 0.5 0.00617931 0.190503
0 0.5 -0.0688207 0.190651
0 0.5 0.0688207 0.189918
0.0124865 0.5 -0.0688207 0.190651
0.0124865 0.5 0.0688207 0.189918
0 0.5 -0.075 0.190632
0 0.5 0.075 0.189834
0 0.5 -0.0811793 0.190617
0 0.5 0.0811793 0.189754
0.0124865 0.5 -0.0811793 0.190617
0.0124865 0.5 0.0811793 0.189754
0.075776 0.5 -0.0375 0.190746
0.075776 0.5 0.0375 0.190344
0.075776 0.5 -0.1125 0.19054
0.075776 0.5 0.1125 0.189346
0 0.5 -0.143821 0.190195
0 0.5 0.143821 0.188678
0.0124865 0.5 -0.143821 0.190195
0.0124865 0.5 0.143821 0.188678
0 0.5 -0.15 0.190126
0 0.5 0.15 0.188545
0.151149 0.5 -0.00137318 0.190817
0 0.5 -0.156179 0.190061
0 0.5 0.156179 0.188417
0.0124865 0.5 -0.156179 0.190061
0.0124865 0.5 0.156179 0.188417
0.151149 0.5 0.075 0.190121
0.151149 0.5 -0.075 0.190939
0.075776 0.5 -0.1875 0.189733
0.075776 0.5 0.1875 0.187766
0.151149 0.5 0.15 0.188812
0.151149 0.5 -0.15 0.190429
0 0.5 -0.218821 0.189145
0 0.5 0.218821 0.186861
0.0124865 0.5 -0.218821 0.189145
0.0124865 0.5 0.218821 0.186861
0.219992 0.5 0.0375 0.190908
0.219993 0.5 -0.0375 0.19133
0 0.5 -0.225 0.189029
0 0.5 0.225 0.186682
0 0.5 -0.231179 0.188916
0 0.5 0.231179 0.186506
0.0124865 0.5 -0.231179 0.188916
0.0124865 0.5 0.231179 0.186506
0.219992 0.5 0.1125 0.189884
0.219993 0.5 -0.1125 0.191134
0.151149 0.5 -0.225 0.189317
0.151149 0.5 0.225 0.186918
0.075776 0.5 -0.2625 0.188345
0.075776 0.5 0.2625 0.185618
0.288069 0.5 -0.00137318 0.194238
0.219992 0.5 0.1875 0.18825
0.219993 0.5 -0.1875 0.190305
0 0.5 0.293821 0.184492
0 0.5 -0.293821 0.187524
0.0124865 0.5 -0.293821 0.187524
0.0124865 0.5 0.293821 0.184492
0.288069 0.5 -0.075 0.194382
0.288069 0.5 0.075 0.193513
0 0.5 -0.3 0.187362
0 0.5 0.3 0.184269
0 0.5 0.306179 0.18405
0 0.5 -0.306179 0.187202
0.0124865 0.5 -0.306179 0.187202
0.0124865 0.5 0.306179 0.18405
0.288069 0.5 -0.15 0.193823
0.288069 0.5 0.15 0.192101
0.151149 0.5 -0.3 0.187628
0.151149 0.5 0.3 0.184472
0.219992 0.5 -0.2625 0.188882
0.219992 0.5 0.2625 0.186043
0.075776 0.5 0.3375 0.182941
0.075776 0.5 -0.3375 0.186398
0.350249 0.5 -0.0375 0.19748
0.350249 0.5 0.0375 0.197026
0.288069 0.5 -0.225 0.19261
0.288069 0.5 0.225 0.190059
0.350249 0.5 0.1125 0.195879
0.350249 0.5 -0.1125 0.197228
0 0.5 0.368821 0.18161
0 0.5 -0.368821 0.185358
0.0124865 0.5 -0.368821 0.185358
0.0124865 0.5 0.368821 0.18161
0 0.5 -0.375 0.185152
0 0.5 0.375 0.181347
0 0.5 -0.381179 0.184949
0 0.5 0.381179 0.181086
0.0124865 0.5 -0.381179 0.184949
0.0124865 0.5 0.381179 0.181086
0.350249 0.5 -0.1875 0.196272
0.350249 0.5 0.1875 0.194046
0.219992 0.5 -0.3375 0.186884
0.219992 0.5 0.3375 0.183294
0.151149 0.5 -0.375 0.185389
0.151149 0.5 0.375 0.18151
0.411736 0.5 -0.00137318 0.20138
0.288069 0.5 -0.3 0.190775
0.288069 0.5 0.3 0.187423
0.411736 0.5 -0.075 0.201524
0.411736 0.5 0.075 0.200577
0.075776 0.5 -0.4125 0.183926
0.075776 0.5 0.4125 0.179772
0.350249 0.5 -0.2625 0.19464
0.350249 0.5 0.2625 0.191565
0.411736 0.5 -0.15 0.200866
0.411736 0.5 0.15 0.198989
0 0.5 -0.443821 0.182683
0 0.5 0.443821 0.178255
0.0124865 0.5 -0.443821 0.182683
0.0124865 0.5 0.443821 0.178255
0 0.5 -0.45 0.182437
0 0.5 0.45 0.177955
0 0.5 -0.456179 0.182194
0 0.5 0.456179 0.177658
0.0124865 0.5 -0.456179 0.182194
0.0124865 0.5 0.456179 0.177658
0.219992 0.5 -0.4125 0.18435
0.219993 0.5 0.4125 0.180045
0.411736 0.5 -0.225 0.199467
0.411736 0.5 0.225 0.196689
0.467897 0.5 0.0375 0.205124
0.467897 0.5 -0.0375 0.205622
0.288069 0.5 -0.375 0.18835
0.288069 0.5 0.375 0.184237
0.151149 0.5 -0.45 0.182639
0.151149 0.5 0.45 0.178075
0.467897 0.5 -0.1125 0.205315
0.467897 0.5 0.1125 0.203831
0.350249 0.5 0.3375 0.188481
0.350249 0.5 -0.3375 0.192366
0.075776 0.5 -0.4875 0.180967
0.075776 0.5 0.4875 0.176157
0.467897 0.5 -0.1875 0.204203
0.467897 0.5 0.1875 0.201763
0.411736 0.5 -0.3 0.197361
0.411736 0.5 0.3 0.193718
0 0.5 -0.518821 0.17954
0 0.5 0.518821 0.174474
0.0124865 0.5 0.518821 0.174474
0.0124865 0.5 -0.518821 0.17954
0.523432 0.5 -0.00137318 0.210281
0 0.5 -0.525 0.179258
0 0.5 0.525 0.174141
0.523432 0.5 -0.075 0.210429
0.523432 0.5 0.075 0.209379
0 0.5 -0.531179 0.178978
0 0.5 0.531179 0.17381
0.0124865 0.5 -0.531179 0.178978
0.0124865 0.5 0.531179 0.17381
0.288069 0.5 -0.45 0.185379
0.288069 0.5 0.45 0.180549
0.219992 0.5 -0.4875 0.181318
0.219993 0.5 0.4875 0.176344
0.467897 0.5 -0.2625 0.202317
0.467897 0.5 0.2625 0.198958
0.350249 0.5 -0.4125 0.189492
0.350249 0.5 0.4125 0.184841
0.523432 0.5 -0.15 0.209658
0.523432 0.5 0.15 0.207579
0.151149 0.5 -0.525 0.179419
0.151149 0.5 0.525 0.174215
0.411736 0.5 -0.375 0.19459
0.411736 0.5 0.375 0.190127
0.075776 0.5 -0.5625 0.177567
0.075776 0.5 0.5625 0.172143
0.523432 0.5 -0.225 0.208039
0.523432 0.5 0.225 0.204966
0.574156 0.5 -0.0375 0.215322
0.574156 0.5 0.0375 0.214765
0.467897 0.5 0.3375 0.195466
0.467897 0.5 -0.3375 0.199702
0.574156 0.5 -0.1125 0.214951
0.574156 0.5 0.1125 0.213295
0 0.5 -0.593821 0.175976
0 0.5 0.593821 0.170314
0.0124865 0.5 -0.593821 0.175976
0.0124865 0.5 0.593821 0.170314
0.288069 0.5 -0.525 0.181909
0.288069 0.5 0.525 0.176413
0 0.5 -0.6 0.175661
0 0.5 0.6 0.169952
0.350249 0.5 -0.4875 0.186069
0.350249 0.5 0.4875 0.180704
0.523432 0.5 -0.3 0.205608
0.523432 0.5 0.3 0.201591
0.219992 0.5 -0.5625 0.177835
0.219992 0.5 0.5625 0.172239
0.574156 0.5 -0.1875 0.213664
0.574156 0.5 0.1875 0.210938
0 0.5 -0.606179 0.175348
0 0.5 0.606179 0.169593
0.0124865 0.5 -0.606179 0.175348
0.0124865 0.5 0.606179 0.169593
0.411736 0.5 -0.45 0.191206
0.411736 0.5 0.45 0.185977
0.151149 0.5 -0.6 0.175777
0.151149 0.5 0.6 0.169979
0.62168 0.5 2.64545e-17 0.220295
0.467897 0.5 0.4125 0.191347
0.467897 0.5 -0.4125 0.196405
0.624316 0.5 0.0729402 0.219573
0.624316 0.5 -0.075 0.220754
0.574156 0.5 -0.2625 0.211484
0.574157 0.5 0.2625 0.207736
0.075776 0.5 -0.6375 0.173773
0.075776 0.5 0.6375 0.16778
0.624316 0.5 -0.15 0.219853
0.624316 0.5 0.15 0.217516
0.523432 0.5 -0.375 0.20242
0.523432 0.5 0.375 0.197516
0.350249 0.5 -0.5625 0.182154
0.350249 0.5 0.5625 0.176132
0.624316 0.5 -0.225 0.217976
0.624316 0.5 0.225 0.214528
0.288069 0.5 0.6 0.171887
0.288069 0.5 -0.6 0.177995
0.574156 0.5 -0.3375 0.208462
0.574156 0.5 0.3375 0.203759
0.411736 0.5 -0.525 0.18727
0.411736 0.5 0.525 0.181336
0 0.5 -0.668821 0.172038
0 0.5 0.668821 0.165828
0.0124865 0.5 -0.668821 0.172038
0.0124865 0.5 0.668821 0.165828
0.67013 0.5 0.0375 0.225696
0.67013 0.5 -0.0375 0.226326
0.219993 0.5 -0.6375 0.17395
0.219993 0.5 0.6375 0.167783
0 0.5 -0.675 0.171695
0 0.5 0.675 0.165442
0.467897 0.5 0.4875 0.186673
0.467897 0.5 -0.4875 0.19249
0.67013 0.5 -0.1125 0.225886
0.67013 0.5 0.1125 0.224011
0 0.5 -0.681179 0.171355
0 0.5 0.681179 0.165058
0.0124865 0.5 -0.681179 0.171355
0.0124865 0.5 0.681179 0.165058
0.523432 0.5 -0.45 0.198538
0.523432 0.5 0.45 0.192813
0.151149 0.5 -0.675 0.171763
0.151149 0.5 0.675 0.16542
0.624316 0.5 -0.3 0.215165
0.624316 0.5 0.3 0.210671
0.67013 0.5 0.1875 0.221309
0.67013 0.5 -0.1875 0.224387
0.574156 0.5 -0.4125 0.204667
0.574157 0.5 0.4125 0.199076
0.708171 0.5 1.88651e-17 0.231036
0.075776 0.5 -0.7125 0.169635
0.075776 0.5 0.7125 0.163121
0.715434 0.5 0.0736268 0.230665
0.715434 0.5 -0.075 0.232172
0.67013 0.5 0.2625 0.217639
0.67013 0.5 -0.2625 0.22186
0.350249 0.5 -0.6375 0.177809
0.350249 0.5 0.6375 0.17119
0.411736 0.5 -0.6 0.182849
0.411736 0.5 0.6 0.176273
0.624316 0.5 -0.375 0.211487
0.624316 0.5 0.375 0.206023
0.715434 0.5 -0.15 0.231121
0.715434 0.5 0.15 0.228472
0.467897 0.5 -0.5625 0.188029
0.467897 0.5 0.5625 0.181521
0.288069 0.5 -0.675 0.173694
0.288069 0.5 0.675 0.16703
0.523432 0.5 -0.525 0.194037
0.523432 0.5 0.525 0.187564
0 0.5 -0.743821 0.16778
0 0.5 0.743821 0.161068
0.0124865 0.5 -0.743821 0.16778
0.0124865 0.5 0.743821 0.161068
0.219992 0.5 0.7125 0.163028
0.219992 0.5 -0.7125 0.169715
0.715434 0.5 -0.225 0.228947
0.715434 0.5 0.225 0.225048
0 0.5 -0.75 0.167412
0 0.5 0.75 0.160661
0.67013 0.5 0.3375 0.213086
0.67013 0.5 -0.3375 0.218367
0.574156 0.5 -0.4875 0.200174
0.574156 0.5 0.4875 0.193772
0 0.5 -0.756179 0.167048
0 0.5 0.756179 0.160258
0.0124865 0.5 -0.756179 0.167048
0.0124865 0.5 0.756179 0.160258
0.756813 0.5 -0.0375 0.238234
0.756813 0.5 0.0375 0.237516
0.151149 0.5 -0.75 0.167429
0.151149 0.5 0.75 0.16059
0.756813 0.5 -0.1125 0.237718
0.756813 0.5 0.1125 0.235585
0.624316 0.5 -0.45 0.207021
0.624316 0.5 0.45 0.20067
0.715434 0.5 -0.3 0.225702
0.715434 0.5 0.3 0.22063
0.756813 0.5 0.1875 0.232485
0.756813 0.5 -0.1875 0.235978
0.67013 0.5 -0.4125 0.21399
0.67013 0.5 0.4125 0.207739
0.411736 0.5 -0.675 0.178013
0.411736 0.5 0.675 0.170861
0.467897 0.5 0.6375 0.17597
0.467897 0.5 -0.6375 0.183097
0.075776 0.5 -0.7875 0.165207
0.075776 0.5 0.7875 0.158219
0.350249 0.5 -0.7125 0.1731
0.350249 0.5 0.7125 0.165944
0.523432 0.5 -0.6 0.189
0.523432 0.5 0.6 0.181857
0.797732 0.5 2.68882e-17 0.244186
0.756813 0.5 -0.2625 0.233063
0.756814 0.5 0.2625 0.22828
0.797732 0.5 0.0736268 0.242648
0.797732 0.5 -0.075 0.244295
0.288069 0.5 -0.75 0.169066
0.288069 0.5 0.75 0.161901
0.574156 0.5 -0.5625 0.195072
0.574157 0.5 0.5625 0.187943
0.715434 0.5 -0.375 0.22146
0.715434 0.5 0.375 0.215319
0.797732 0.5 -0.15 0.243084
0.797732 0.5 0.15 0.240063
0.624316 0.5 -0.525 0.20186
0.624316 0.5 0.525 0.194713
0.219992 0.5 -0.7875 0.165185
0.219992 0.5 0.7875 0.158029
0 0.5 -0.818821 0.163251
0 0.5 0.818821 0.156086
0.0124865 0.5 0.818821 0.156086
0.0124865 0.5 -0.818821 0.163251
0 0.5 -0.825 0.162864
0 0.5 0.825 0.155663
0.756813 0.5 0.3375 0.223065
0.756814 0.5 -0.3375 0.229037
0.67013 0.5 -0.4875 0.208822
0.67013 0.5 0.4875 0.201697
0.797732 0.5 -0.225 0.240583
0.797732 0.5 0.225 0.236147
0 0.5 -0.831179 0.162479
0 0.5 0.831179 0.155243
0.0124865 0.5 -0.831179 0.162479
0.0124865 0.5 0.831179 0.155243
0.835106 0.5 0.0375 0.249843
0.835106 0.5 -0.0375 0.250664
0.151149 0.5 -0.825 0.162827
0.151149 0.5 0.825 0.155542
0.835106 0.5 0.1125 0.247632
0.835106 0.5 -0.1125 0.250076
0.715434 0.5 -0.45 0.216323
0.715434 0.5 0.45 0.209221
0.797732 0.5 -0.3 0.236853
0.797732 0.5 0.3 0.231102
0.467897 0.5 0.7125 0.170098
0.467897 0.5 -0.7125 0.177774
0.523432 0.5 -0.675 0.183514
0.523432 0.5 0.675 0.175779
0.411736 0.5 -0.75 0.172835
0.411736 0.5 0.75 0.165172
0.835106 0.5 -0.1875 0.248083
0.835106 0.5 0.1875 0.244088
0.574156 0.5 -0.6375 0.189455
0.574157 0.5 0.6375 0.181684
0.350249 0.5 -0.7875 0.16809
0.350249 0.5 0.7875 0.160459
0.756813 0.5 -0.4125 0.223995
0.756814 0.5 0.4125 0.216967
0.075776 0.5 -0.8625 0.160538
0.075776 0.5 0.8625 0.153124
0.624316 0.5 0.6 0.188259
0.624316 0.5 -0.6 0.196105
0.872064 0.5 5.91974e-17 0.256737
0.870122 0.5 0.075 0.254628
0.288069 0.5 -0.825 0.164169
0.288069 0.5 0.825 0.156559
0.67013 0.5 -0.5625 0.202974
0.67013 0.5 0.5625 0.195083
0.872064 0.5 -0.075 0.256865
0.835106 0.5 -0.2625 0.244739
0.835106 0.5 0.2625 0.239293
0.797732 0.5 -0.375 0.231985
0.797732 0.5 0.375 0.22505
0.872064 0.5 0.14794 0.252036
0.872064 0.5 -0.15 0.255484
0.715434 0.5 -0.525 0.210405
0.715434 0.5 0.525 0.202456
0.219992 0.5 0.8625 0.152838
0.219993 0.5 -0.8625 0.160413
0 0.5 -0.893821 0.158502
0 0.5 0.893821 0.150931
0.0124865 0.5 -0.893821 0.158502
0.0124865 0.5 0.893821 0.150931
0 0.5 -0.9 0.158099
0 0.5 0.9 0.150497
0.756813 0.5 -0.4875 0.218065
0.756813 0.5 0.4875 0.210101
0.872064 0.5 -0.225 0.252624
0.872064 0.5 0.225 0.247578
0.835106 0.5 -0.3375 0.240125
0.835106 0.5 0.3375 0.233356
0 0.5 0.906179 0.150065
0 0.5 -0.906179 0.157699
0.0124865 0.5 -0.906179 0.157699
0.0124865 0.5 0.906179 0.150065
0.90582 0.5 -0.0375 0.263466
0.90582 0.5 0.0375 0.262533
0.151149 0.5 -0.9 0.15801
0.151149 0.5 0.9 0.150327
0.90582 0.5 -0.1125 0.262808
0.905821 0.5 0.1125 0.260016
0.523432 0.5 -0.75 0.177669
0.523432 0.5 0.75 0.169418
0.574156 0.5 -0.7125 0.183421
0.574156 0.5 0.7125 0.175093
0.797732 0.5 -0.45 0.226104
0.797732 0.5 0.45 0.218126
0.467897 0.5 0.7875 0.163984
0.467897 0.5 -0.7875 0.172141
0.624316 0.5 -0.675 0.189865
0.624316 0.5 0.675 0.181416
0.411736 0.5 -0.825 0.167387
0.411736 0.5 0.825 0.159277
0.872064 0.5 0.3 0.241848
0.872064 0.5 -0.3 0.248364
0.67013 0.5 -0.6375 0.196562
0.67013 0.5 0.6375 0.188011
0.90582 0.5 0.1875 0.255986
0.905821 0.5 -0.1875 0.260532
0.350249 0.5 -0.8625 0.162844
0.350249 0.5 0.8625 0.154796
0.835106 0.5 -0.4125 0.234364
0.835106 0.5 0.4125 0.226429
0.715434 0.5 -0.6 0.20383
0.715434 0.5 0.6 0.195154
0.939201 0.5 2.75387e-17 0.269343
0.075776 0.5 0.9375 0.147886
0.075776 0.5 -0.9375 0.155677
0.939111 0.5 0.075 0.267276
0.939201 0.5 -0.075 0.269504
0.756813 0.5 0.5625 0.2026
0.756814 0.5 -0.5625 0.211374
0.90582 0.5 0.2625 0.250545
0.905821 0.5 -0.2625 0.256718
0.288069 0.5 -0.9 0.159061
0.288069 0.5 0.9 0.151061
0.872064 0.5 -0.375 0.242816
0.872064 0.5 0.375 0.234985
0.939201 0.5 0.148627 0.263903
0.939201 0.5 -0.15 0.267959
0.797732 0.5 -0.525 0.219349
0.797732 0.5 0.525 0.210467
0.219992 0.5 0.9375 0.147507
0.219992 0.5 -0.9375 0.155449
0.939201 0.5 -0.225 0.264729
0.939201 0.5 0.225 0.258972
0.905821 0.5 -0.3375 0.251469
0.90582 0.5 0.3375 0.243823
0.835106 0.5 -0.4875 0.227605
0.835106 0.5 0.4875 0.218657
0 0.5 0.968821 0.145654
0 0.5 -0.968821 0.153582
0.0124865 0.5 -0.968821 0.153582
0.0124865 0.5 0.968821 0.145654
0.969689 0.5 -0.0375 0.276027
0.969689 0.5 0.0375 0.274968
0.574156 0.5 -0.7875 0.17707
0.574156 0.5 0.7875 0.168265
0 0.5 -0.975 0.153168
0 0.5 0.975 0.145213
0.624316 0.5 -0.75 0.183251
0.624316 0.5 0.75 0.174287
0.969689 0.5 -0.1125 0.275336
0.96969 0.5 0.1125 0.272113
0.523432 0.5 -0.825 0.171553
0.523432 0.5 0.825 0.162859
0.67013 0.5 0.7125 0.180598
0.67013 0.5 -0.7125 0.189707
0 0.5 -0.981179 0.152755
0 0.5 0.981179 0.144773
0.467897 0.5 0.8625 0.157703
0.467897 0.5 -0.8625 0.166275
0.0124865 0.5 -0.981179 0.152755
0.0124865 0.5 0.981179 0.144773
0.872064 0.5 -0.45 0.236128
0.872064 0.5 0.45 0.227155
0.715434 0.5 -0.675 0.196732
0.715434 0.5 0.675 0.187446
0.939201 0.5 -0.3 0.259916
0.939201 0.5 0.3 0.252513
0.151149 0.5 0.975 0.144996
0.151149 0.5 -0.975 0.153027
0.969689 0.5 -0.1875 0.272787
0.969689 0.5 0.1875 0.267569
0.756813 0.5 -0.6375 0.204065
0.756813 0.5 0.6375 0.19462
0.411736 0.5 -0.9 0.16174
0.411736 0.5 0.9 0.153244
0.90582 0.5 -0.4125 0.24493
0.90582 0.5 0.4125 0.23599
0.995005 0.5 0.0749309 0.278256
0.797732 0.5 -0.6 0.211869
0.797732 0.5 0.6 0.202234
1.00005 0.5 -8.47123e-18 0.281635
0.350249 0.5 -0.9375 0.157424
0.350249 0.5 0.9375 0.149018
1.00005 0.5 -0.0749309 0.281829
0.969689 0.5 -0.2625 0.268517
0.969689 0.5 0.2625 0.261452
0.835106 0.5 -0.5625 0.22
0.835106 0.5 0.5625 0.210199
1.00005 0.5 -0.149862 0.280102
0.939201 0.5 -0.375 0.253653
0.939201 0.5 0.375 0.244794
1.00029 0.5 0.148988 0.275444
0.075776 0.5 -1.0125 0.150674
0.075776 0.5 1.0125 0.142555
0.288069 0.5 0.975 0.145464
0.288069 0.5 -0.975 0.153802
0.872064 0.5 -0.525 0.228462
0.872064 0.5 0.525 0.218529
1.00005 0.5 0.224793 0.269974
1.00005 0.5 -0.224793 0.276461
0.969689 0.5 0.3375 0.25392
0.96969 0.5 -0.3375 0.262618
1.0271 0.5 -0.0368226 0.28846
1.0271 0.5 0.0368226 0.287305
0.90582 0.5 0.4875 0.227236
0.905821 0.5 -0.4875 0.237265
1.0271 0.5 -0.110468 0.287738
1.0271 0.5 0.110468 0.283898
0.67013 0.5 0.7875 0.172957
0.67013 0.5 -0.7875 0.18253
0.624316 0.5 0.825 0.166975
0.624316 0.5 -0.825 0.176369
0.219993 0.5 -1.0125 0.150353
0.219993 0.5 1.0125 0.142091
0.574156 0.5 -0.8625 0.170496
0.574156 0.5 0.8625 0.161288
0.715434 0.5 -0.75 0.189247
0.715434 0.5 0.75 0.179456
0.756813 0.5 0.7125 0.186294
0.756814 0.5 -0.7125 0.196293
0.523432 0.5 -0.9 0.165251
0.523432 0.5 0.9 0.15618
0.939201 0.5 -0.45 0.246116
0.939201 0.5 0.45 0.236009
1.04168 0.5 0 0.291582
1.0271 0.5 -0.184113 0.28492
1.0271 0.5 0.184113 0.279133
0 0.5 -1.04382 0.148542
0 0.5 1.04382 0.140305
0.0124865 0.5 -1.04382 0.148542
0.0124865 0.5 1.04382 0.140305
1.00005 0.5 -0.299723 0.271047
1.00005 0.5 0.299723 0.26273
1.04168 0.5 -0.0729162 0.291825
1.04168 0.5 0.0729162 0.289396
0.797732 0.5 -0.675 0.203828
0.797732 0.5 0.675 0.193586
0.467897 0.5 0.9375 0.151326
0.467897 0.5 -0.9375 0.160253
0 0.5 -1.05 0.148121
0 0.5 1.05 0.13986
0.835106 0.5 -0.6375 0.211723
0.835106 0.5 0.6375 0.201247
1.04168 0.5 -0.145832 0.29007
1.04168 0.5 0.145832 0.285256
0.969689 0.5 -0.4125 0.255276
0.96969 0.5 0.4125 0.245159
0 0.5 -1.05618 0.147701
0 0.5 1.05618 0.139417
0.0124865 0.5 -1.05618 0.147701
0.0124865 0.5 1.05618 0.139417
1.05695 0.5 -0.0360764 0.295803
1.05695 0.5 0.0360764 0.294626
0.411736 0.5 -0.975 0.15596
0.411736 0.5 0.975 0.147135
0.872064 0.5 -0.6 0.219996
0.872064 0.5 0.6 0.209298
1.0271 0.5 -0.257759 0.280223
1.0271 0.5 0.257759 0.272394
0.151149 0.5 -1.05 0.147933
0.151149 0.5 1.05 0.139601
1.05695 0.5 0.108229 0.292017
1.05695 0.5 -0.108229 0.295136
1.04168 0.5 -0.218749 0.286298
1.04168 0.5 0.218749 0.279319
0.90582 0.5 -0.5625 0.228668
0.905821 0.5 0.5625 0.217754
1.00005 0.5 -0.374654 0.264007
1.00005 0.5 0.374654 0.25409
0.350249 0.5 1.0125 0.143179
0.350249 0.5 -1.0125 0.151892
1.05695 0.5 -0.180382 0.292303
1.05695 0.5 0.180382 0.286286
1.07319 0.5 0.0709442 0.296573
0.939201 0.5 -0.525 0.237502
0.939201 0.5 0.525 0.226368
1.0271 0.5 -0.331404 0.273732
1.0271 0.5 0.331404 0.264104
1.08112 0.5 3.23815e-17 0.301469
1.04168 0.5 -0.291665 0.280677
1.04168 0.5 0.291665 0.27173
1.08112 0.5 -0.0709442 0.301775
0.969689 0.5 -0.4875 0.246701
0.96969 0.5 0.4875 0.235399
1.05695 0.5 0.252535 0.279437
1.05695 0.5 -0.252535 0.287584
0.288069 0.5 -1.05 0.148445
0.288069 0.5 1.05 0.139817
0.075776 0.5 -1.0875 0.145582
0.075776 0.5 1.0875 0.13718
1.08112 0.5 -0.141888 0.300057
1.08145 0.5 0.140165 0.294577
0.715434 0.5 0.825 0.171307
0.715434 0.5 -0.825 0.181504
0.756813 0.5 0.7875 0.177758
0.756814 0.5 -0.7875 0.188199
0.67013 0.5 -0.8625 0.175146
0.67013 0.5 0.8625 0.165196
0.797732 0.5 -0.75 0.195389
0.797732 0.5 0.75 0.184668
0.624316 0.5 -0.9 0.169321
0.624316 0.5 0.9 0.159574
1.00005 0.5 -0.449585 0.255551
1.00005 0.5 0.449585 0.244285
0.835106 0.5 -0.7125 0.202956
0.835106 0.5 0.7125 0.191953
0.574156 0.5 -0.9375 0.163789
0.574157 0.5 0.9375 0.154246
1.10076 0.5 -0.0349809 0.307244
1.10076 0.5 0.0349809 0.305981
1.08112 0.5 -0.212832 0.296283
1.08112 0.5 0.212832 0.288851
0.872064 0.5 -0.675 0.210931
0.872064 0.5 0.675 0.199644
1.04168 0.5 -0.364581 0.273345
1.04168 0.5 0.364581 0.262687
1.0271 0.5 0.405049 0.254481
1.0271 0.5 -0.405049 0.265662
1.05695 0.5 -0.324688 0.281024
1.05695 0.5 0.324688 0.271017
1.10076 0.5 -0.104943 0.306674
1.10076 0.5 0.104943 0.302585
0.523432 0.5 0.975 0.149457
0.523432 0.5 -0.975 0.158842
0.90582 0.5 0.6375 0.207758
0.905821 0.5 -0.6375 0.219318
0.219992 0.5 1.0875 0.136636
0.219992 0.5 -1.0875 0.145171
1.11376 0.5 3.81639e-17 0.309971
0.939201 0.5 0.6 0.216098
0.939201 0.5 -0.6 0.228016
1.10076 0.5 -0.174905 0.303868
1.10076 0.5 0.174905 0.297312
0.467897 0.5 -1.0125 0.154142
0.467897 0.5 1.0125 0.14492
1.11376 0.5 -0.0693118 0.310342
1.11376 0.5 0.0693118 0.307601
1.08112 0.5 0.283777 0.281089
1.08112 0.5 -0.283777 0.290615
0 0.5 -1.11882 0.143431
0 0.5 1.11882 0.134928
0.0124865 0.5 -1.11882 0.143431
0.0124865 0.5 1.11882 0.134928
0.969689 0.5 -0.5625 0.237111
0.969689 0.5 0.5625 0.224863
1.11376 0.5 0.138624 0.302774
1.11376 0.5 -0.138624 0.308661
0 0.5 -1.125 0.143005
0 0.5 1.125 0.134483
1.10076 0.5 0.244866 0.290255
1.10076 0.5 -0.244866 0.299144
0.411736 0.5 -1.05 0.150111
0.411736 0.5 1.05 0.141009
1.05695 0.5 -0.396841 0.272852
1.05695 0.5 0.396841 0.261239
1.00005 0.5 -0.524516 0.245899
1.00005 0.5 0.524516 0.233564
1.04168 0.5 -0.437497 0.264514
1.04168 0.5 0.437497 0.252426
0 0.5 -1.13118 0.142582
0 0.5 1.13118 0.13404
0.0124865 0.5 -1.13118 0.142582
0.0124865 0.5 1.13118 0.13404
1.11376 0.5 -0.207935 0.304881
1.11376 0.5 0.207935 0.296965
1.0271 0.5 -0.478694 0.25622
1.0271 0.5 0.478694 0.243787
0.151149 0.5 -1.125 0.142769
0.151149 0.5 1.125 0.134181
1.08112 0.5 -0.354722 0.28318
1.08112 0.5 0.354722 0.271839
1.13882 0.5 -0.0340295 0.31726
1.13882 0.5 0.0340295 0.315903
0.350249 0.5 -1.0875 0.146302
0.350249 0.5 1.0875 0.137328
1.13882 0.5 -0.102088 0.316727
1.13882 0.5 0.102088 0.312548
1.10076 0.5 -0.314829 0.292504
1.10076 0.5 0.314829 0.281589
0.756813 0.5 -0.8625 0.179921
0.756814 0.5 0.8625 0.169139
0.797732 0.5 -0.825 0.186708
0.797732 0.5 0.825 0.175622
1.11376 0.5 -0.277247 0.299162
1.11376 0.5 0.277247 0.28901
0.835106 0.5 0.7875 0.182474
0.835106 0.5 -0.7875 0.193877
0.715434 0.5 -0.9 0.173621
0.715434 0.5 0.9 0.163108
0.872064 0.5 -0.75 0.201473
0.872064 0.5 0.75 0.189734
1.13882 0.5 0.170147 0.306904
1.13882 0.5 -0.170147 0.313916
0.67013 0.5 -0.9375 0.167661
0.67013 0.5 0.9375 0.15741
0.905821 0.5 -0.7125 0.209491
0.905821 0.5 0.7125 0.197423
1.05695 0.5 0.468994 0.250361
1.05695 0.5 -0.468994 0.263257
0.939201 0.5 -0.675 0.217892
0.939201 0.5 0.675 0.20542
0.624316 0.5 0.975 0.152168
0.624316 0.5 -0.975 0.1622
1.04168 0.5 -0.510414 0.254406
1.04168 0.5 0.510414 0.241212
0.969689 0.5 -0.6375 0.226737
0.96969 0.5 0.6375 0.213831
0.288069 0.5 -1.125 0.143035
0.288069 0.5 1.125 0.134163
1.16179 0.5 5.78241e-19 0.3232
1.08112 0.5 0.425666 0.261335
1.08112 0.5 -0.425666 0.274184
1.13882 0.5 -0.238206 0.309118
1.13882 0.5 0.238206 0.29961
1.16179 0.5 0.0669104 0.321532
1.16179 0.5 -0.0669104 0.323657
0.574156 0.5 -1.0125 0.157028
0.574156 0.5 1.0125 0.147212
0.075776 0.5 -1.1625 0.140443
0.075776 0.5 1.1625 0.131801
1.00005 0.5 -0.599447 0.235316
1.00005 0.5 0.599447 0.222191
1.10076 0.5 0.384791 0.271521
1.10076 0.5 -0.384791 0.284181
1.0271 0.5 -0.55234 0.245648
1.0271 0.5 0.55234 0.232284
1.11376 0.5 -0.346559 0.291617
1.11376 0.5 0.346559 0.279532
1.16179 0.5 -0.133821 0.321998
1.16179 0.5 0.133821 0.316127
0.523432 0.5 -1.05 0.152397
0.523432 0.5 1.05 0.142755
1.17463 0.5 -0.0331343 0.327307
1.17463 0.5 0.0331343 0.32589
1.17463 0.5 -0.0994029 0.326871
1.17463 0.5 0.0994029 0.322184
1.16179 0.5 -0.200731 0.318154
1.16179 0.5 0.200731 0.309554
1.13882 0.5 -0.306265 0.302341
1.13882 0.5 0.306265 0.290658
0.219992 0.5 -1.1625 0.139936
0.219992 0.5 1.1625 0.131168
0.467897 0.5 -1.0875 0.148011
0.467897 0.5 1.0875 0.138545
1.17463 0.5 0.165672 0.316526
1.17463 0.5 -0.165672 0.324031
1.05695 0.5 -0.541147 0.252488
1.05695 0.5 0.541147 0.238644
1.18772 0.5 -5.78241e-19 0.330432
1.11376 0.5 -0.41587 0.282451
1.11376 0.5 0.41587 0.268764
1.18772 0.5 -0.065614 0.330953
1.18772 0.5 0.065614 0.327579
1.08112 0.5 -0.49661 0.263849
1.08112 0.5 0.49661 0.249835
1.10076 0.5 -0.454752 0.274349
1.10076 0.5 0.454752 0.260306
1.18534 0.5 0.118202 0.32308
1.16179 0.5 -0.267642 0.31229
1.16179 0.5 0.267642 0.301256
0 0.5 -1.19382 0.138292
0 0.5 1.19382 0.129565
0.0124865 0.5 1.19382 0.129565
0.0124865 0.5 -1.19382 0.138292
1.04168 0.5 -0.58333 0.243296
1.04168 0.5 0.58333 0.229309
1.18772 0.5 -0.131228 0.329331
1.17463 0.5 -0.23194 0.319175
1.17463 0.5 0.23194 0.308986
0.411736 0.5 -1.125 0.144247
0.411736 0.5 1.125 0.134918
1.13882 0.5 -0.374324 0.293805
1.13882 0.5 0.374324 0.280257
0 0.5 -1.2 0.137866
0 0.5 1.2 0.129123
0.905821 0.5 0.7875 0.18693
0.905821 0.5 -0.7875 0.199373
0.872064 0.5 -0.825 0.191801
0.872064 0.5 0.825 0.179739
0.835106 0.5 0.8625 0.172962
0.835106 0.5 -0.8625 0.184644
0.939201 0.5 -0.75 0.207373
0.939201 0.5 0.75 0.194513
0.797732 0.5 -0.9 0.177926
0.797732 0.5 0.9 0.166577
1.0271 0.5 0.625985 0.220241
1.0271 0.5 -0.625985 0.234268
0.969689 0.5 0.7125 0.202515
0.96969 0.5 -0.7125 0.215828
1.18772 0.5 -0.196842 0.325477
1.18772 0.5 0.196842 0.316404
0.756814 0.5 -0.9375 0.17158
0.756814 0.5 0.9375 0.160547
0 0.5 1.20618 0.128682
0 0.5 -1.20618 0.137442
1.00005 0.5 -0.674378 0.224075
1.00005 0.5 0.674378 0.210416
0.0124865 0.5 1.20618 0.128682
0.0124865 0.5 -1.20618 0.137442
1.16179 0.5 -0.334552 0.304508
1.16179 0.5 0.334552 0.29137
0.715434 0.5 0.975 0.154955
0.715434 0.5 -0.975 0.165709
0.151149 0.5 -1.2 0.13758
0.151149 0.5 1.2 0.128774
1.20942 0.5 0.0322645 0.336262
1.20942 0.5 -0.0322645 0.337712
1.17463 0.5 -0.298209 0.312256
1.17463 0.5 0.298209 0.299739
1.20942 0.5 -0.0967935 0.337352
1.20942 0.5 0.0967935 0.332354
0.350249 0.5 -1.1625 0.140692
0.350249 0.5 1.1625 0.131506
0.67013 0.5 1.0125 0.149683
0.67013 0.5 -1.0125 0.160165
1.11376 0.5 0.485183 0.256964
1.11376 0.5 -0.485183 0.27189
1.18772 0.5 0.262456 0.307917
1.18772 0.5 -0.262456 0.319561
1.10076 0.5 -0.524714 0.263287
1.10076 0.5 0.524714 0.248204
1.20942 0.5 -0.161322 0.334522
1.20942 0.5 0.161322 0.326514
1.08112 0.5 -0.567554 0.252448
1.08112 0.5 0.567554 0.237606
0.624316 0.5 -1.05 0.155085
0.624316 0.5 1.05 0.144831
1.13882 0.5 -0.442383 0.283687
1.13882 0.5 0.442383 0.268661
1.05695 0.5 0.6133 0.226358
1.05695 0.5 -0.6133 0.24084
1.16179 0.5 -0.401463 0.295006
1.16179 0.5 0.401463 0.28013
0.574156 0.5 -1.0875 0.150285
0.574156 0.5 1.0875 0.140253
1.17463 0.5 0.364477 0.288995
1.17463 0.5 -0.364477 0.303517
1.20942 0.5 -0.225851 0.329626
1.20942 0.5 0.225851 0.31875
1.23036 0.5 -1.32995e-17 0.343669
1.2294 0.5 0.0634819 0.340238
1.04168 0.5 -0.656246 0.231501
1.04168 0.5 0.656246 0.216971
1.23036 0.5 -0.0634819 0.344278
1.18772 0.5 0.32807 0.29781
1.18772 0.5 -0.32807 0.311678
0.288069 0.5 -1.2 0.137613
0.288069 0.5 1.2 0.128538
1.23036 0.5 -0.126964 0.342692
1.23036 0.5 0.126964 0.335998
0.075776 0.5 -1.2375 0.135303
0.075776 0.5 1.2375 0.126458
0.523432 0.5 -1.125 0.145982
0.523432 0.5 1.125 0.136135
1.0271 0.5 -0.69963 0.222359
1.0271 0.5 0.69963 0.207893
1.24274 0.5 0.0314313 0.346642
1.24274 0.5 -0.0314313 0.348232
1.20942 0.5 0.29038 0.309233
1.20942 0.5 -0.29038 0.3226
1.11376 0.5 -0.554494 0.260215
1.11376 0.5 0.554494 0.244403
1.23036 0.5 -0.190445 0.338807
1.23036 0.5 0.190445 0.329086
1.24274 0.5 -0.0942942 0.347961
1.24274 0.5 0.0942942 0.342627
1.13882 0.5 0.510442 0.25614
1.13882 0.5 -0.510442 0.272274
0.969689 0.5 -0.7875 0.20464
0.969689 0.5 0.7875 0.191066
1.00005 0.5 -0.749309 0.212451
1.00005 0.5 0.749309 0.19845
0.939201 0.5 -0.825 0.196674
0.939201 0.5 0.825 0.183565
0.90582 0.5 0.8625 0.176471
0.90582 0.5 -0.8625 0.189149
1.17463 0.5 -0.430746 0.293111
1.17463 0.5 0.430746 0.277008
1.10076 0.5 -0.594676 0.251262
1.10076 0.5 0.594676 0.23549
1.18772 0.5 -0.393684 0.30202
1.18772 0.5 0.393684 0.286314
1.24274 0.5 -0.157157 0.345153
1.24274 0.5 0.157157 0.336606
1.16179 0.5 -0.468373 0.284017
1.16179 0.5 0.468373 0.267799
0.467897 0.5 -1.1625 0.141916
0.467897 0.5 1.1625 0.132256
0.872064 0.5 -0.9 0.182077
0.872064 0.5 0.9 0.16981
1.25401 0.5 2.08167e-17 0.350832
0.835106 0.5 0.9375 0.163544
0.835106 0.5 -0.9375 0.175405
1.25401 0.5 -0.0622994 0.351511
1.25401 0.5 0.0622994 0.347884
1.08112 0.5 -0.638498 0.240296
1.08112 0.5 0.638498 0.224915
1.23036 0.5 -0.253927 0.332786
1.23036 0.5 0.253927 0.320304
0.219992 0.5 1.2375 0.125737
0.219992 0.5 -1.2375 0.134699
1.25309 0.5 0.121964 0.342938
1.05695 0.5 0.685452 0.21374
1.05695 0.5 -0.685452 0.228656
0.797732 0.5 0.975 0.157644
0.797732 0.5 -0.975 0.169171
1.25401 0.5 -0.124599 0.349977
1.20942 0.5 -0.354909 0.313685
1.20942 0.5 0.354909 0.298172
1.24274 0.5 -0.220019 0.340237
1.24274 0.5 0.220019 0.328619
0.756814 0.5 -1.0125 0.163289
0.756813 0.5 1.0125 0.152075
1.25401 0.5 -0.186898 0.346107
1.25401 0.5 0.186898 0.335879
0.411736 0.5 -1.2 0.138411
0.411736 0.5 1.2 0.128903
0 0.5 -1.26882 0.133163
0 0.5 1.26882 0.124249
0.0124865 0.5 1.26882 0.124249
0.0124865 0.5 -1.26882 0.133163
0.715434 0.5 -1.05 0.157861
0.715434 0.5 1.05 0.14693
1.23036 0.5 -0.31741 0.324711
1.23036 0.5 0.31741 0.309841
1.04168 0.5 -0.729162 0.219315
1.04168 0.5 0.729162 0.204437
1.18772 0.5 -0.459298 0.290823
1.18772 0.5 0.459298 0.273697
1.24274 0.5 -0.282882 0.333117
1.24274 0.5 0.282882 0.318832
0 0.5 -1.275 0.13274
0 0.5 1.275 0.123812
1.27472 0.5 -0.0306319 0.35881
1.27472 0.5 0.0306319 0.3571
1.17463 0.5 0.497015 0.264058
1.17463 0.5 -0.497015 0.281347
1.11376 0.5 -0.623806 0.247734
1.11376 0.5 0.623806 0.231361
1.13882 0.5 -0.578501 0.259854
1.13882 0.5 0.578501 0.242972
0.67013 0.5 -1.0875 0.152741
0.67013 0.5 1.0875 0.142087
1.27472 0.5 -0.0918959 0.358589
1.27472 0.5 0.0918959 0.35139
1.25401 0.5 -0.249197 0.34006
1.25401 0.5 0.249197 0.326922
1.16179 0.5 -0.535284 0.271835
1.16179 0.5 0.535284 0.254656
1.20942 0.5 -0.419438 0.303013
1.20942 0.5 0.419438 0.285816
0 0.5 -1.28118 0.132318
0 0.5 1.28118 0.123376
0.0124865 0.5 1.28118 0.123376
0.0124865 0.5 -1.28118 0.132318
1.27472 0.5 0.15316 0.346753
1.27472 0.5 -0.15316 0.355834
0.151149 0.5 -1.275 0.132407
0.151149 0.5 1.275 0.12342
1.0271 0.5 0.773275 0.195476
1.0271 0.5 -0.773275 0.210214
1.10076 0.5 0.664638 0.222442
1.10076 0.5 -0.664638 0.238628
0.350249 0.5 -1.2375 0.135107
0.350249 0.5 1.2375 0.125749
0.624316 0.5 -1.125 0.14805
0.624316 0.5 1.125 0.137625
1.23036 0.5 0.380892 0.297922
1.23036 0.5 -0.380892 0.314761
1.24274 0.5 -0.345745 0.32404
1.24274 0.5 0.345745 0.307453
1.2906 0.5 0 0.363459
1.2906 0.5 -0.0604698 0.364258
1.2906 0.5 0.0604698 0.360461
1.25401 0.5 -0.311497 0.331913
1.25401 0.5 0.311497 0.316252
1.27472 0.5 -0.214423 0.350895
1.27472 0.5 0.214423 0.338555
1.08112 0.5 0.709442 0.212006
1.08112 0.5 -0.709442 0.227714
1.00005 0.5 -0.824239 0.200703
1.00005 0.5 0.824239 0.186505
1.2906 0.5 -0.12094 0.362816
1.2906 0.5 0.12094 0.355188
0.574156 0.5 -1.1625 0.143625
0.574156 0.5 1.1625 0.133426
0.969689 0.5 -0.8625 0.193406
0.96969 0.5 0.8625 0.179702
1.18772 0.5 0.524912 0.260241
1.18772 0.5 -0.524912 0.278383
1.05695 0.5 -0.757605 0.216211
1.05695 0.5 0.757605 0.20104
0.939201 0.5 -0.9 0.185986
0.939201 0.5 0.9 0.172762
1.30091 0.5 -0.0299772 0.367876
1.30091 0.5 0.0299772 0.36605
1.20942 0.5 -0.483967 0.290925
1.20942 0.5 0.483967 0.272452
1.17463 0.5 -0.563284 0.268509
1.17463 0.5 0.563284 0.250427
1.2906 0.5 -0.181409 0.358978
1.2906 0.5 0.181409 0.347881
0.90582 0.5 0.9375 0.166176
0.90582 0.5 -0.9375 0.178986
1.30091 0.5 -0.0899316 0.367706
1.30091 0.5 0.0899316 0.359663
1.27472 0.5 0.275687 0.328512
1.27472 0.5 -0.275687 0.343702
0.288069 0.5 -1.275 0.132223
0.288069 0.5 1.275 0.122983
0.872064 0.5 -0.975 0.172447
0.872064 0.5 0.975 0.160066
1.23036 0.5 -0.444373 0.303174