# pMean  POINT_DATA 63140
# x  y  z  pMean
0 0.1 0 0.21769
0 0.1 -0.0179898 0.217803
0 0.1 0.0179898 0.21758
0.0363518 0.1 0.0179898 0.21758
0.0363518 0.1 -0.0179898 0.217803
0 0.1 -0.0570102 0.217895
0 0.1 0.0570102 0.217194
0.0363518 0.1 0.0570102 0.217194
0.0363518 0.1 -0.0570102 0.217895
0 0.1 -0.075 0.217866
0 0.1 0.075 0.21695
0.075776 0.1 -0.0375 0.217929
0.075776 0.1 0.0375 0.217462
0 0.1 -0.0929898 0.21784
0 0.1 0.0929898 0.216709
0.0363518 0.1 -0.0929898 0.21784
0.0363518 0.1 0.0929898 0.216709
0 0.1 -0.13201 0.217618
0 0.1 0.13201 0.216038
0.075776 0.1 -0.1125 0.217814
0.075776 0.1 0.1125 0.216449
0.0363518 0.1 -0.13201 0.217618
0.0363518 0.1 0.13201 0.216038
0 0.1 -0.15 0.21744
0 0.1 0.15 0.215662
0.150379 0.1 -2.22623e-17 0.210087
0 0.1 -0.16799 0.217266
0 0.1 0.16799 0.215289
0.150379 0.1 -0.075 0.21019
0.150379 0.1 0.075 0.209322
0.0363518 0.1 -0.16799 0.217266
0.0363518 0.1 0.16799 0.215289
0.075776 0.1 -0.1875 0.217078
0.075776 0.1 0.1875 0.214885
0 0.1 -0.20701 0.216713
0 0.1 0.20701 0.21432
0.0363518 0.1 -0.20701 0.216713
0.0363518 0.1 0.20701 0.21432
0.150379 0.1 -0.15 0.209599
0.150379 0.1 0.15 0.207909
0.219993 0.1 -0.0375 0.20303
0.219993 0.1 0.0375 0.202631
0 0.1 -0.225 0.21638
0 0.1 0.225 0.213802
0 0.1 -0.24299 0.21605
0 0.1 0.24299 0.213287
0.0363518 0.1 0.24299 0.213287
0.0363518 0.1 -0.24299 0.21605
0.219993 0.1 -0.1125 0.202699
0.219993 0.1 0.1125 0.201454
0.150379 0.1 -0.225 0.208312
0.150379 0.1 0.225 0.205837
0.075776 0.1 -0.2625 0.215693
0.075776 0.1 0.2625 0.212729
0 0.1 -0.28201 0.215167
0 0.1 0.28201 0.21201
0.0363518 0.1 -0.28201 0.215167
0.0363518 0.1 0.28201 0.21201
0.287374 0.1 -2.89121e-19 0.206088
0.219992 0.1 0.1875 0.199564
0.219992 0.1 -0.1875 0.20153
0.287374 0.1 -0.075 0.206164
0.287374 0.1 0.075 0.205268
0 0.1 -0.3 0.214685
0 0.1 0.3 0.21135
0 0.1 0.31799 0.210692
0 0.1 -0.31799 0.214205
0.0363518 0.1 -0.31799 0.214205
0.0363518 0.1 0.31799 0.210692
0.287374 0.1 0.15 0.203714
0.287374 0.1 -0.15 0.205473
0.150379 0.1 -0.3 0.206391
0.150379 0.1 0.3 0.203122
0.219993 0.1 0.2625 0.196907
0.219993 0.1 -0.2625 0.199692
0.075776 0.1 -0.3375 0.213686
0.075776 0.1 0.3375 0.20998
0.350249 0.1 -0.0375 0.20945
0.350249 0.1 0.0375 0.208958
0 0.1 -0.35701 0.213008
0 0.1 0.35701 0.209115
0.0363518 0.1 -0.35701 0.213008
0.0363518 0.1 0.35701 0.209115
0.287374 0.1 -0.225 0.204035
0.287374 0.1 0.225 0.201435
0.350249 0.1 -0.1125 0.209189
0.350249 0.1 0.1125 0.207749
0 0.1 -0.375 0.212386
0 0.1 0.375 0.208321
0 0.1 -0.39299 0.211766
0 0.1 0.39299 0.207528
0.0363518 0.1 -0.39299 0.211766
0.0363518 0.1 0.39299 0.207528
0.350249 0.1 -0.1875 0.208184
0.350249 0.1 0.1875 0.205812
0.219992 0.1 -0.3375 0.197259
0.219992 0.1 0.3375 0.193632
0.150379 0.1 0.375 0.199837
0.150379 0.1 -0.375 0.203874
0.411108 0.1 4.33681e-19 0.214352
0.287374 0.1 -0.3 0.201916
0.287374 0.1 0.3 0.198472
0.411108 0.1 -0.075 0.214435
0.411108 0.1 0.075 0.213444
0.075776 0.1 -0.4125 0.211095
0.075776 0.1 0.4125 0.20667
0 0.1 0.43201 0.205672
0 0.1 -0.43201 0.210271
0.0363518 0.1 0.43201 0.205672
0.0363518 0.1 -0.43201 0.210271
0.411108 0.1 -0.15 0.21369
0.411108 0.1 0.15 0.211725
0.350249 0.1 -0.2625 0.206437
0.350249 0.1 0.2625 0.203179
0 0.1 -0.45 0.209516
0 0.1 0.45 0.204756
0.219992 0.1 0.4125 0.189851
0.219992 0.1 -0.4125 0.194244
0 0.1 -0.46799 0.208761
0 0.1 0.46799 0.203841
0.411108 0.1 -0.225 0.212131
0.411108 0.1 0.225 0.20922
0.467897 0.1 -0.0375 0.219542
0.467897 0.1 0.0375 0.219036
0.0363518 0.1 0.46799 0.203841
0.0363518 0.1 -0.46799 0.208761
0.287374 0.1 -0.375 0.199157
0.287374 0.1 0.375 0.194908
0.150379 0.1 0.45 0.196049
0.150379 0.1 -0.45 0.200814
0.467897 0.1 0.1125 0.217618
0.467897 0.1 -0.1125 0.219141
0.350249 0.1 -0.3375 0.203978
0.350249 0.1 0.3375 0.199893
0.075776 0.1 -0.4875 0.207945
0.075776 0.1 0.4875 0.202851
0.467897 0.1 0.1875 0.215316
0.467897 0.1 -0.1875 0.217835
0 0.1 -0.50701 0.206989
0 0.1 0.50701 0.201733
0.0363518 0.1 -0.50701 0.206989
0.0363518 0.1 0.50701 0.201733
0.411108 0.1 0.3 0.20598
0.411108 0.1 -0.3 0.209791
0.522865 0.1 1.41031e-17 0.225481
0 0.1 -0.525 0.206112
0 0.1 0.525 0.200705
0.522865 0.1 -0.075 0.225529
0.522865 0.1 0.075 0.224454
0.287374 0.1 0.45 0.190804
0.287374 0.1 -0.45 0.195816
0.219992 0.1 0.4875 0.185628
0.219992 0.1 -0.4875 0.190774
0.467897 0.1 -0.2625 0.215673
0.467897 0.1 0.2625 0.212186
0.350249 0.1 -0.4125 0.200852
0.350249 0.1 0.4125 0.195982
0 0.1 -0.54299 0.205236
0 0.1 0.54299 0.199679
0.522865 0.1 0.15 0.222462
0.522865 0.1 -0.15 0.224599
0.0363518 0.1 0.54299 0.199679
0.0363518 0.1 -0.54299 0.205236
0.150379 0.1 -0.525 0.197269
0.150379 0.1 0.525 0.191825
0.411108 0.1 -0.375 0.206715
0.411108 0.1 0.375 0.202053
0.075776 0.1 -0.5625 0.204288
0.075776 0.1 0.5625 0.198568
0.522865 0.1 -0.225 0.222717
0.522865 0.1 0.225 0.219547
0.574156 0.1 0.0375 0.231152
0.574157 0.1 -0.0375 0.231721
0.467897 0.1 -0.3375 0.212702
0.467897 0.1 0.3375 0.208297
0 0.1 -0.58201 0.203216
0 0.1 0.58201 0.197346
0.0363518 0.1 -0.58201 0.203216
0.0363518 0.1 0.58201 0.197346
0.574157 0.1 -0.1125 0.231236
0.574157 0.1 0.1125 0.22954
0.287374 0.1 -0.525 0.191966
0.287374 0.1 0.525 0.186236
0 0.1 -0.6 0.202232
0 0.1 0.6 0.196223
0.350249 0.1 0.4875 0.191488
0.350249 0.1 -0.4875 0.197108
0.522865 0.1 -0.3 0.21993
0.522865 0.1 0.3 0.215775
0.219992 0.1 -0.5625 0.186884
0.219992 0.1 0.5625 0.181073
0.574156 0.1 -0.1875 0.229714
0.574156 0.1 0.1875 0.226913
0.411108 0.1 0.45 0.197495
0.411108 0.1 -0.45 0.202957
0 0.1 -0.61799 0.201248
0 0.1 0.61799 0.1951
0.150379 0.1 -0.6 0.193281
0.150379 0.1 0.6 0.187221
0.0363518 0.1 -0.61799 0.201248
0.0363518 0.1 0.61799 0.1951
0.467897 0.1 -0.4125 0.208974
0.467897 0.1 0.4125 0.203704
0.623803 0.1 2.34188e-17 0.238496
0.623803 0.1 0.075 0.237325
0.623803 0.1 -0.075 0.238532
0.574156 0.1 0.2625 0.223329
0.574156 0.1 -0.2625 0.227189
0.623803 0.1 0.15 0.235043
0.623803 0.1 -0.15 0.237435
0.075776 0.1 0.6375 0.193885
0.075776 0.1 -0.6375 0.200183
0.522865 0.1 -0.375 0.216297
0.522865 0.1 0.375 0.211217
0 0.1 0.65701 0.192575
0 0.1 -0.65701 0.199011
0.0363518 0.1 0.65701 0.192575
0.0363518 0.1 -0.65701 0.199011
0.350249 0.1 0.5625 0.186503
0.350249 0.1 -0.5625 0.192823
0.623803 0.1 0.225 0.231694
0.623803 0.1 -0.225 0.235229
0.287374 0.1 -0.6 0.187656
0.287374 0.1 0.6 0.181277
0.574157 0.1 -0.3375 0.223716
0.574157 0.1 0.3375 0.218864
0.411108 0.1 0.525 0.192382
0.411108 0.1 -0.525 0.198588
0.67013 0.1 0.0375 0.244983
0.67013 0.1 -0.0375 0.245625
0.219992 0.1 -0.6375 0.182595
0.219993 0.1 0.6375 0.176186
0 0.1 -0.675 0.197934
0 0.1 0.675 0.19137
0.467897 0.1 -0.4875 0.204566
0.467897 0.1 0.4875 0.198498
0.67013 0.1 -0.1125 0.245043
0.67013 0.1 0.1125 0.243128
0.522865 0.1 0.45 0.205956
0.522865 0.1 -0.45 0.211894
0.150379 0.1 0.675 0.182273
0.150379 0.1 -0.675 0.188899
0.623803 0.1 0.3 0.227355
0.623803 0.1 -0.3 0.231967
0 0.1 -0.69299 0.196858
0 0.1 0.69299 0.190166
0.0363518 0.1 -0.69299 0.196858
0.0363518 0.1 0.69299 0.190166
0.67013 0.1 -0.1875 0.24325
0.67013 0.1 0.1875 0.240104
0.574156 0.1 0.4125 0.213604
0.574157 0.1 -0.4125 0.219379
0.714971 0.1 -2.8382e-17 0.252969
0.075776 0.1 -0.7125 0.195693
0.075776 0.1 0.7125 0.188863
0.714971 0.1 -0.075 0.25299
0.714971 0.1 0.075 0.25163
0.67013 0.1 0.2625 0.235963
0.67013 0.1 -0.2625 0.240282
0.411108 0.1 -0.6 0.193684
0.411108 0.1 0.6 0.186803
0.350249 0.1 0.6375 0.181114
0.350249 0.1 -0.6375 0.188067
0.623803 0.1 0.375 0.222115
0.623803 0.1 -0.375 0.227729
0.714971 0.1 -0.15 0.251691
0.714971 0.1 0.15 0.249002
0.467897 0.1 -0.5625 0.199556
0.467897 0.1 0.5625 0.192763
0 0.1 -0.73201 0.194436
0 0.1 0.73201 0.18748
0.0363518 0.1 0.73201 0.18748
0.0363518 0.1 -0.73201 0.194436
0.287374 0.1 -0.675 0.182941
0.287374 0.1 0.675 0.175977
0.522865 0.1 -0.525 0.206805
0.522865 0.1 0.525 0.200087
0.219993 0.1 -0.7125 0.177956
0.219992 0.1 0.7125 0.170998
0.714971 0.1 -0.225 0.249101
0.714971 0.1 0.225 0.245142
0 0.1 0.75 0.186209
0 0.1 -0.75 0.19328
0.67013 0.1 -0.3375 0.236219
0.67013 0.1 0.3375 0.230816
0.574156 0.1 -0.4875 0.214262
0.574157 0.1 0.4875 0.207645
0.756813 0.1 0.0375 0.260022
0.756814 0.1 -0.0375 0.260744
0.150379 0.1 0.746002 0.177447
0.150379 0.1 -0.75 0.184176
0.756813 0.1 -0.1125 0.260044
0.756813 0.1 0.1125 0.25789
0 0.1 0.76799 0.184938
0 0.1 -0.76799 0.192124
0.0363518 0.1 0.76799 0.184938
0.0363518 0.1 -0.76799 0.192124
0.623803 0.1 -0.45 0.222608
0.623803 0.1 0.45 0.216076
0.714971 0.1 -0.3 0.245288
0.714971 0.1 0.3 0.240136
0.756814 0.1 -0.1875 0.257931
0.756814 0.1 0.1875 0.254403
0.67013 0.1 -0.4125 0.231164
0.67013 0.1 0.4125 0.224758
0.411108 0.1 0.675 0.180843
0.411108 0.1 -0.675 0.188328
0.467897 0.1 0.6375 0.186586
0.467897 0.1 -0.6375 0.194025
0.075776 0.1 0.7875 0.183563
0.075776 0.1 -0.7875 0.190874
0.350249 0.1 -0.7125 0.182912
0.350249 0.1 0.7125 0.175401
0.522865 0.1 -0.6 0.201125
0.522865 0.1 0.6 0.193711
0.797314 0.1 -3.59473e-17 0.268442
0.287374 0.1 0.746002 0.170623
0.797314 0.1 -0.075 0.268452
0.797314 0.1 0.075 0.266911
0.756814 0.1 -0.2625 0.25446
0.756814 0.1 0.2625 0.249633
0.287374 0.1 -0.75 0.177885
0.574156 0.1 -0.5625 0.208473
0.574156 0.1 0.5625 0.201102
0 0.1 0.80701 0.182124
0 0.1 -0.80701 0.189548
0.714971 0.1 -0.375 0.240345
0.714971 0.1 0.375 0.234101
0.0363518 0.1 0.80701 0.182124
0.0363518 0.1 -0.80701 0.189548
0.797314 0.1 -0.15 0.266933
0.797314 0.1 0.15 0.263895
0.623803 0.1 -0.525 0.21671
0.623803 0.1 0.525 0.209357
0.219992 0.1 0.7875 0.165559
0.219992 0.1 -0.7875 0.173019
0.149792 0.1 0.80701 0.172921
0 0.1 0.825 0.180801
0 0.1 -0.825 0.188328
0.797314 0.1 -0.225 0.263922
0.797314 0.1 0.225 0.259464
0.756813 0.1 -0.3375 0.24973
0.756813 0.1 0.3375 0.243689
0.67013 0.1 0.4875 0.21791
0.67013 0.1 -0.4875 0.225215
0.835106 0.1 -0.0375 0.276672
0.835106 0.1 0.0375 0.275851
0.150379 0.1 -0.825 0.179172
0.835106 0.1 -0.1125 0.275866
0.835106 0.1 0.1125 0.273408
0 0.1 -0.84299 0.187109
0 0.1 0.84299 0.179478
0.0363518 0.1 -0.84299 0.187109
0.0363518 0.1 0.84299 0.179478
0.714971 0.1 -0.45 0.234386
0.714971 0.1 0.45 0.227163
0.411108 0.1 0.746002 0.174848
0.797314 0.1 -0.3 0.259501
0.797314 0.1 0.3 0.253718
0.467897 0.1 -0.7125 0.188075
0.467897 0.1 0.7125 0.18006
0.522865 0.1 0.675 0.186926
0.522865 0.1 -0.675 0.194955
0.411108 0.1 -0.75 0.182603
0.835106 0.1 -0.1875 0.273418
0.835107 0.1 0.1875 0.269416
0.286844 0.1 0.80701 0.166008
0.574156 0.1 0.6375 0.194083
0.574157 0.1 -0.6375 0.202116
0.350249 0.1 -0.7875 0.177442
0.350249 0.1 0.7875 0.169443
0.756813 0.1 -0.4125 0.24383
0.756814 0.1 0.4125 0.236726
0.623803 0.1 -0.6 0.210157
0.623803 0.1 0.6 0.202083
0.075776 0.1 0.8625 0.178046
0.075776 0.1 -0.8625 0.18579
0.871687 0.1 -3.2767e-18 0.284488
0.287374 0.1 -0.825 0.172555
0.871687 0.1 -0.075 0.284488
0.871687 0.1 0.075 0.282744
0.67013 0.1 -0.5625 0.218511
0.67013 0.1 0.5625 0.210417
0.835106 0.1 0.2625 0.26396
0.835106 0.1 -0.2625 0.269419
0.797314 0.1 -0.375 0.253778
0.797314 0.1 0.375 0.246801
0 0.1 -0.88201 0.184411
0 0.1 0.88201 0.176567
0.0363518 0.1 0.88201 0.176567
0.0363518 0.1 -0.88201 0.184411
0.871687 0.1 0.15 0.279297
0.871687 0.1 -0.15 0.282732
0.714971 0.1 0.525 0.219461
0.714971 0.1 -0.525 0.227549
0.219993 0.1 0.8625 0.159937
0.219992 0.1 -0.8625 0.167847
0 0.1 0.9 0.175206
0 0.1 -0.9 0.183142
0.756813 0.1 0.4875 0.228877
0.756814 0.1 -0.4875 0.236929
0.871687 0.1 0.225 0.274236
0.871687 0.1 -0.225 0.279261
0.835106 0.1 -0.3375 0.263955
0.835106 0.1 0.3375 0.257169
0.41063 0.1 0.80701 0.169688
0.90582 0.1 -0.0375 0.292952
0.905821 0.1 0.0375 0.292035
0.522865 0.1 0.746002 0.180113
0.150379 0.1 0.9 0.165924
0.90582 0.1 0.1125 0.289248
0.905821 0.1 -0.1125 0.292019
0.522865 0.1 -0.75 0.188397
0.574156 0.1 0.7125 0.186699
0.574156 0.1 -0.7125 0.195306
0.797314 0.1 -0.45 0.246899
0.797314 0.1 0.45 0.238873
0.467897 0.1 -0.7875 0.181784
0.467897 0.1 0.7875 0.173277
0.150379 0.1 -0.903998 0.174271
0 0.1 0.91799 0.173846
0 0.1 -0.91799 0.181873
0.0363518 0.1 0.91799 0.173846
0.0363518 0.1 -0.91799 0.181873
0.623803 0.1 0.675 0.194375
0.623803 0.1 -0.675 0.203072
0.411108 0.1 -0.825 0.176593
0.871687 0.1 0.3 0.267682
0.871687 0.1 -0.3 0.274169
0.67013 0.1 -0.6375 0.211182
0.67013 0.1 0.6375 0.202409
0.90582 0.1 -0.1875 0.289192
0.90582 0.1 0.1875 0.284691
0.350249 0.1 0.8625 0.163302
0.350249 0.1 -0.8625 0.171727
0.835106 0.1 -0.4125 0.25718
0.835106 0.1 0.4125 0.249229
0.714971 0.1 -0.6 0.219982
0.714971 0.1 0.6 0.211149
0.93886 0.1 -1.15648e-17 0.300619
0.075776 0.1 0.9375 0.172374
0.075776 0.1 -0.9375 0.1805
0.93886 0.1 0.075 0.298638
0.93886 0.1 -0.075 0.300635
0.756813 0.1 0.5625 0.220293
0.756814 0.1 -0.5625 0.22917
0.905821 0.1 -0.2625 0.284593
0.905821 0.1 0.2625 0.278471
0.287374 0.1 0.9 0.158652
0.287374 0.1 -0.903998 0.167603
0.871687 0.1 0.375 0.259804
0.871687 0.1 -0.375 0.267591
0.93886 0.1 -0.15 0.298666
0.93886 0.1 0.15 0.294732
0.797314 0.1 0.525 0.230091
0.797314 0.1 -0.525 0.239032
0 0.1 0.95701 0.17087
0 0.1 -0.95701 0.179082
0.0363518 0.1 0.95701 0.17087
0.0363518 0.1 -0.95701 0.179082
0.522433 0.1 0.80701 0.174294
0.219992 0.1 0.9375 0.154193
0.219992 0.1 -0.9375 0.162488
0.93886 0.1 0.225 0.289017
0.93886 0.1 -0.225 0.294745
0.90582 0.1 0.3375 0.270747
0.905821 0.1 -0.3375 0.278308
0.835106 0.1 -0.4875 0.24927
0.835107 0.1 0.4875 0.240299
0.969689 0.1 -0.0375 0.30908
0.969689 0.1 0.0375 0.308021
0.61613 0.1 0.75 0.186357
0.574156 0.1 -0.7875 0.188159
0.574156 0.1 0.7875 0.179057
0 0.1 0.975 0.169486
0 0.1 -0.975 0.177778
0.623803 0.1 -0.75 0.195584
0.969689 0.1 -0.1125 0.308099
0.969689 0.1 0.1125 0.304867
0.522865 0.1 -0.825 0.181553
0.67013 0.1 0.7125 0.194027
0.67013 0.1 -0.7125 0.203375
0.871687 0.1 -0.45 0.259705
0.871687 0.1 0.45 0.25079
0.467897 0.1 0.8625 0.166319
0.467897 0.1 -0.8625 0.175253
0.714971 0.1 -0.675 0.211843
0.714971 0.1 0.675 0.202382
0.93886 0.1 -0.3 0.288987
0.93886 0.1 0.3 0.281637
0.150379 0.1 0.975 0.160173
0.150379 0.1 -0.975 0.168551
0.969689 0.1 -0.1875 0.304968
0.969689 0.1 0.1875 0.299753
0.411108 0.1 0.9 0.161508
0.756813 0.1 0.6375 0.211168
0.756814 0.1 -0.6375 0.220731
0.990306 0.1 -2.19732e-17 0.3131
0 0.1 0.99299 0.168103
0 0.1 -0.99299 0.176475
0.411108 0.1 -0.903998 0.171024
0.990306 0.1 -0.075 0.313138
0.990306 0.1 0.075 0.310911
0.0363518 0.1 0.99299 0.168103
0.0363518 0.1 -0.99299 0.176475
0.90582 0.1 -0.4125 0.270546
0.905821 0.1 0.4125 0.261718
0.797314 0.1 -0.6 0.230353
0.797314 0.1 0.6 0.220651
0.350249 0.1 0.9375 0.157036
0.350249 0.1 -0.9375 0.165835
0.990306 0.1 0.15 0.306606
0.990306 0.1 -0.15 0.310991
0.969689 0.1 -0.2625 0.299852
0.969689 0.1 0.2625 0.292799
0.835106 0.1 -0.5625 0.240403
0.835106 0.1 0.5625 0.23057
0.93886 0.1 -0.375 0.281553
0.93886 0.1 0.375 0.272781
0.075776 0.1 1.0125 0.166605
0.075776 0.1 -1.0125 0.175064
0.990306 0.1 -0.225 0.306685
0.990306 0.1 0.225 0.300324
0.287374 0.1 0.975 0.152609
0.287374 0.1 -0.975 0.161321
0.871687 0.1 -0.525 0.250702
0.871687 0.1 0.525 0.240838
1.02149 0.1 -0.0369628 0.322978
1.02149 0.1 0.0369628 0.321828
0.969689 0.1 -0.3375 0.292836
0.969689 0.1 0.3375 0.284198
1.02149 0.1 -0.110888 0.321923
1.02149 0.1 0.110888 0.318357
0.90582 0.1 0.4875 0.251593
0.90582 0.1 -0.4875 0.261477
0.623803 0.1 0.819003 0.179736
0 0.1 1.03201 0.16509
0 0.1 -1.03201 0.173622
0.0363518 0.1 1.03201 0.16509
0.0363518 0.1 -1.03201 0.173622
0.67013 0.1 -0.7875 0.195223
0.67013 0.1 0.7875 0.185399
0.623803 0.1 -0.825 0.187816
0.990306 0.1 -0.3 0.300361
0.990306 0.1 0.3 0.292228
0.219992 0.1 -1.0125 0.157003
0.219993 0.1 1.0125 0.148376
0.574156 0.1 0.8625 0.171263
0.574157 0.1 -0.8625 0.180782
0.714971 0.1 -0.75 0.203288
0.714971 0.1 0.75 0.193305
1.02149 0.1 0.184814 0.312742
1.02149 0.1 -0.184814 0.318469
0.756814 0.1 -0.7125 0.211786
0.756814 0.1 0.7125 0.20165
0.522865 0.1 0.9 0.16511
0.93886 0.1 -0.45 0.27265
0.93886 0.1 0.45 0.262666
1.04168 0.1 0 0.328212
1.04168 0.1 -0.0729162 0.328313
1.04168 0.1 0.0729162 0.325851
0.522865 0.1 -0.903998 0.175268
0.797314 0.1 -0.675 0.221058
0.797314 0.1 0.675 0.210738
0.467897 0.1 0.9375 0.159265
0.467897 0.1 -0.9375 0.168562
0 0.1 1.05 0.163696
0 0.1 -1.05 0.172297
0.835106 0.1 -0.6375 0.230788
0.835106 0.1 0.6375 0.220279
1.04168 0.1 -0.145832 0.326106
1.04168 0.1 0.145832 0.321251
1.02149 0.1 -0.25874 0.312847
1.02149 0.1 0.25874 0.30511
0.969689 0.1 -0.4125 0.284183
0.969689 0.1 0.4125 0.274151
0.411108 0.1 0.975 0.15482
0.411108 0.1 -0.975 0.164024
0.871687 0.1 -0.6 0.240801
0.871687 0.1 0.6 0.230175
1.0579 0.1 -0.0360525 0.333375
1.0579 0.1 0.0360525 0.332162
0.990306 0.1 -0.375 0.292194
0.990306 0.1 0.375 0.282525
0.150379 0.1 1.05 0.154361
0.150379 0.1 -1.05 0.163047
1.0579 0.1 0.108157 0.328629
1.0579 0.1 -0.108157 0.332402
1.04168 0.1 -0.218749 0.321599
1.04168 0.1 0.218749 0.314571
0.90582 0.1 -0.5625 0.251345
0.90582 0.1 0.5625 0.240602
0 0.1 -1.06799 0.170972
0 0.1 1.06799 0.162302
0.0363518 0.1 -1.06799 0.170972
0.0363518 0.1 1.06799 0.162302
0.350249 0.1 1.0125 0.150713
0.350249 0.1 -1.0125 0.159822
1.0579 0.1 -0.180262 0.329023
1.0579 0.1 0.180262 0.322969
1.02149 0.1 -0.332665 0.30515
1.02149 0.1 0.332665 0.295671
0.93886 0.1 -0.525 0.262496
0.93886 0.1 0.525 0.251529
1.08012 0.1 5.49329e-18 0.339231
1.04168 0.1 -0.291665 0.314954
1.04168 0.1 0.291665 0.305975
1.08012 0.1 0.0709941 0.336786
1.08012 0.1 -0.0709941 0.339419
0.969689 0.1 -0.4875 0.274077
0.96969 0.1 0.4875 0.262919
1.0579 0.1 0.252367 0.315296
1.0579 0.1 -0.252367 0.323469
0.990306 0.1 -0.45 0.28241
0.990306 0.1 0.45 0.271463
0.287374 0.1 -1.05 0.155534
0.287374 0.1 1.05 0.146525
0.714971 0.1 0.821002 0.184765
1.08012 0.1 -0.141988 0.337298
1.08012 0.1 0.141988 0.332103
0.075776 0.1 1.0875 0.160793
0.075776 0.1 -1.0875 0.169537
0.714971 0.1 -0.825 0.194465
0.756813 0.1 -0.7875 0.202504
0.756814 0.1 0.7875 0.191908
0.67013 0.1 -0.8625 0.186861
0.67013 0.1 0.8625 0.176652
0.797314 0.1 -0.75 0.211334
0.797314 0.1 0.75 0.200524
0.623803 0.1 0.9 0.169852
0.835106 0.1 -0.7125 0.220642
0.835106 0.1 0.7125 0.209599
0.623803 0.1 -0.903998 0.180725
0.574156 0.1 0.9375 0.163415
0.574156 0.1 -0.9375 0.173284
1.02149 0.1 -0.406591 0.29562
1.02149 0.1 0.406591 0.284657
1.08012 0.1 -0.212982 0.332865
1.08012 0.1 0.212982 0.325348
1.10076 0.1 -0.0349809 0.34611
1.10076 0.1 0.0349809 0.344775
0.871687 0.1 -0.675 0.230237
0.871687 0.1 0.675 0.219019
1.04168 0.1 -0.364581 0.306327
1.04168 0.1 0.364581 0.295679
1.10076 0.1 -0.104943 0.345277
1.10076 0.1 0.104943 0.341069
0.522865 0.1 0.975 0.157653
0.522865 0.1 -0.975 0.167386
1.0579 0.1 -0.324472 0.315806
1.0579 0.1 0.324472 0.305814
0 0.1 -1.10701 0.168087
0 0.1 1.10701 0.159279
0.0363518 0.1 1.10701 0.159279
0.0363518 0.1 -1.10701 0.168087
0.90582 0.1 0.6375 0.228995
0.905821 0.1 -0.6375 0.240389
0.219992 0.1 1.0875 0.14253
0.219992 0.1 -1.0875 0.151435
0.93886 0.1 0.6 0.239634
0.93886 0.1 -0.6 0.251352
1.10076 0.1 -0.174905 0.341978
1.10076 0.1 0.174905 0.335241
0.467897 0.1 1.0125 0.15219
0.467897 0.1 -1.0125 0.161779
1.08012 0.1 -0.283976 0.326266
1.08012 0.1 0.283976 0.316669
1.11928 0.1 3.93204e-18 0.350586
0.990306 0.1 -0.525 0.271259
0.990306 0.1 0.525 0.259311
0.96969 0.1 -0.5625 0.262796
0.969689 0.1 0.5625 0.250745
1.11928 0.1 -0.0690357 0.350883
1.11928 0.1 0.0690357 0.348008
0 0.1 1.125 0.157886
0 0.1 -1.125 0.166753
0.411108 0.1 -1.05 0.157605
0.411108 0.1 1.05 0.148124
1.10076 0.1 0.244866 0.327375
1.10076 0.1 -0.244866 0.336483
1.11928 0.1 -0.138072 0.348847
1.11928 0.1 0.138072 0.34317
1.02149 0.1 0.480517 0.272362
1.02149 0.1 -0.480517 0.28447
1.0579 0.1 -0.396577 0.306271
1.0579 0.1 0.396577 0.294745
1.04168 0.1 -0.437497 0.295942
1.04168 0.1 0.437497 0.28394
0.150379 0.1 1.125 0.148535
0.150379 0.1 -1.125 0.157482
0.714971 0.1 0.88201 0.178298
1.08012 0.1 0.354971 0.306278
1.08012 0.1 -0.354971 0.317639
1.11928 0.1 -0.207107 0.344461
1.11928 0.1 0.207107 0.336241
0.350249 0.1 -1.0875 0.15376
0.350249 0.1 1.0875 0.144387
0 0.1 1.14299 0.156493
0 0.1 -1.14299 0.165419
0.0363518 0.1 1.14299 0.156493
0.0363518 0.1 -1.14299 0.165419
1.14316 0.1 -0.0339211 0.358536
1.14316 0.1 0.0339211 0.35708
0.797314 0.1 0.821002 0.190602
1.10076 0.1 -0.314829 0.328802
1.10076 0.1 0.314829 0.317679
0.797314 0.1 -0.825 0.201362
0.756814 0.1 -0.8625 0.193045
0.756814 0.1 0.8625 0.182087
1.14316 0.1 -0.101763 0.357772
1.14316 0.1 0.101763 0.353247
0.835106 0.1 -0.7875 0.210155
0.835106 0.1 0.7875 0.198717
0.871687 0.1 -0.75 0.219252
0.871687 0.1 0.75 0.207569
0.67013 0.1 0.9375 0.167898
0.67013 0.1 -0.9375 0.178416
0.90582 0.1 -0.7125 0.228888
0.905821 0.1 0.7125 0.216985
0.714971 0.1 -0.903998 0.186453
1.11928 0.1 0.276143 0.327365
1.11928 0.1 -0.276143 0.337861
1.14316 0.1 0.169605 0.347261
1.14316 0.1 -0.169605 0.354537
0.93886 0.1 -0.675 0.239496
0.93886 0.1 0.675 0.227243
1.15704 0.1 0 0.361777
1.0579 0.1 0.468682 0.282365
1.0579 0.1 -0.468682 0.295069
0.623803 0.1 0.975 0.16157
0.623803 0.1 -0.975 0.171899
0.990306 0.1 0.6 0.246367
0.990306 0.1 -0.6 0.259043
1.15704 0.1 -0.0671479 0.362197
1.15704 0.1 0.0671479 0.359058
1.04168 0.1 -0.510414 0.284064
1.04168 0.1 0.510414 0.271049
0.969689 0.1 -0.6375 0.250618
0.969689 0.1 0.6375 0.237965
1.08012 0.1 0.425965 0.294417
1.08012 0.1 -0.425965 0.307198
0.287374 0.1 -1.125 0.149701
0.287374 0.1 1.125 0.140447
1.02149 0.1 -0.554443 0.272028
1.02149 0.1 0.554443 0.259083
0.574156 0.1 1.0125 0.155595
0.574156 0.1 -1.0125 0.165748
1.15704 0.1 -0.134296 0.360267
1.15704 0.1 0.134296 0.354059
0.075776 0.1 1.1625 0.154986
0.075776 0.1 -1.1625 0.163976
1.10076 0.1 -0.384791 0.319178
1.10076 0.1 0.384791 0.306358
1.14316 0.1 -0.237448 0.349045
1.14316 0.1 0.237448 0.339218
1.11928 0.1 -0.345179 0.329167
1.11928 0.1 0.345179 0.316746
0.522865 0.1 1.05 0.150234
0.522865 0.1 -1.05 0.160228
1.15704 0.1 -0.201444 0.355952
1.15704 0.1 0.201444 0.346958
1.1744 0.1 -0.0331401 0.36761
1.1744 0.1 0.0331401 0.366044
1.1744 0.1 -0.0994202 0.366994
1.1744 0.1 0.0994202 0.362052
0 0.1 1.18201 0.153486
0 0.1 -1.18201 0.162529
0.0363518 0.1 1.18201 0.153486
0.0363518 0.1 -1.18201 0.162529
0.219992 0.1 1.1625 0.136693
0.219993 0.1 -1.1625 0.145834
1.14316 0.1 0.30529 0.329313
1.14316 0.1 -0.30529 0.341323
0.467897 0.1 1.0875 0.145158
0.467897 0.1 -1.0875 0.154994
1.1744 0.1 -0.1657 0.363853
1.1744 0.1 0.1657 0.355924
1.15704 0.1 -0.268592 0.349382
1.15704 0.1 0.268592 0.337891
1.0579 0.1 0.540787 0.268957
1.0579 0.1 -0.540787 0.282511
0.796996 0.1 0.88201 0.182308
1.08012 0.1 -0.496959 0.295199
1.08012 0.1 0.496959 0.281364
1.10076 0.1 0.454752 0.293684
1.10076 0.1 -0.454752 0.307788
1.11928 0.1 -0.414214 0.318582
1.11928 0.1 0.414214 0.304622
1.04168 0.1 -0.58333 0.271014
1.04168 0.1 0.58333 0.257301
1.1744 0.1 -0.231981 0.358455
1.1744 0.1 0.231981 0.347723
0.871687 0.1 0.821002 0.196515
0.411108 0.1 1.125 0.141475
0.411108 0.1 -1.125 0.151185
1.19808 0.1 1.73472e-17 0.374068
0.990306 0.1 0.675 0.23292
0.990306 0.1 -0.675 0.246085
1.02149 0.1 0.628368 0.24512
1.02149 0.1 -0.628368 0.258631
1.19808 0.1 -0.0650961 0.374638
1.19808 0.1 0.0650961 0.371191
0 0.1 1.2 0.152107
0 0.1 -1.2 0.161198
0.871687 0.1 -0.825 0.208057
0.905821 0.1 -0.7875 0.217117
0.90582 0.1 0.7875 0.204794
0.835106 0.1 -0.8625 0.199531
0.835106 0.1 0.8625 0.187807
0.93886 0.1 -0.75 0.227216
0.93886 0.1 0.75 0.214575
1.14316 0.1 -0.373132 0.33158
1.14316 0.1 0.373132 0.317751
0.969689 0.1 0.7125 0.224824
0.969689 0.1 -0.7125 0.237857
1.15704 0.1 -0.33574 0.340661
1.15704 0.1 0.33574 0.327058
0.756813 0.1 0.9375 0.172321
0.756814 0.1 -0.9375 0.183557
1.19808 0.1 0.130192 0.366026
1.19808 0.1 -0.130192 0.372852
0.797314 0.1 -0.903998 0.192358
0.714971 0.1 0.975 0.165573
0.714971 0.1 -0.975 0.176565
0.150379 0.1 1.2 0.142736
0.150379 0.1 -1.2 0.151903
1.20938 0.1 -0.0322656 0.377973
1.20938 0.1 0.0322656 0.376282
1.1744 0.1 -0.298261 0.350774
1.1744 0.1 0.298261 0.337654
1.20938 0.1 -0.0967968 0.377499
1.20938 0.1 0.0967968 0.372139
1.19808 0.1 -0.195288 0.368662
1.19808 0.1 0.195288 0.358757
0.350249 0.1 1.1625 0.138103
0.350249 0.1 -1.1625 0.147683
0.67013 0.1 1.0125 0.159225
0.67013 0.1 -1.0125 0.16998
0 0.1 1.21799 0.150727
0 0.1 -1.21799 0.159866
0.0363518 0.1 -1.21799 0.159866
0.0363518 0.1 1.21799 0.150727
1.11928 0.1 -0.48325 0.306354
1.11928 0.1 0.48325 0.291265
1.10076 0.1 -0.524714 0.294956
1.10076 0.1 0.524714 0.279931
1.20938 0.1 0.161328 0.365869
1.20938 0.1 -0.161328 0.374477
1.08012 0.1 0.567953 0.267404
1.08012 0.1 -0.567953 0.281947
0.623803 0.1 1.05 0.153384
0.623803 0.1 -1.05 0.163945
1.0579 0.1 -0.612892 0.268905
1.0579 0.1 0.612892 0.254822
1.15704 0.1 -0.402888 0.329976
1.15704 0.1 0.402888 0.314689
1.14316 0.1 0.440974 0.304794
1.14316 0.1 -0.440974 0.31999
1.19808 0.1 -0.260384 0.362185
1.19808 0.1 0.260384 0.349511
1.2267 0.1 3.57064e-18 0.382114
1.2267 0.1 -0.0636649 0.382791
1.2267 0.1 0.0636649 0.379125
1.1744 0.1 -0.364541 0.341035
1.1744 0.1 0.364541 0.325909
0.574156 0.1 1.0875 0.147875
0.574156 0.1 -1.0875 0.15825
1.20938 0.1 0.225859 0.357518
1.20938 0.1 -0.225859 0.369187
1.04168 0.1 -0.656246 0.25715
1.04168 0.1 0.656246 0.242985
1.2267 0.1 -0.12733 0.38111
1.2267 0.1 0.12733 0.373845
0.287374 0.1 1.2 0.134411
0.287374 0.1 -1.2 0.143868
1.02149 0.1 -0.702294 0.244659
1.02149 0.1 0.702294 0.230743
0.075776 0.1 -1.2375 0.158426
0.075776 0.1 1.2375 0.149234
0.871399 0.1 0.88201 0.187299
0.522865 0.1 1.125 0.142919
0.522865 0.1 -1.125 0.153121
1.2267 0.1 -0.190994 0.377016
1.2267 0.1 0.190994 0.366459
1.19808 0.1 -0.32548 0.353511
1.19808 0.1 0.32548 0.338486
0.990306 0.1 -0.75 0.232703
0.990306 0.1 0.75 0.219221
1.24274 0.1 -0.0314313 0.387673
1.24274 0.1 0.0314313 0.385848
1.20938 0.1 -0.29039 0.361578
1.20938 0.1 0.29039 0.347291
1.24274 0.1 -0.0942942 0.387332
1.24274 0.1 0.0942942 0.381559
0.93886 0.1 0.821002 0.202392
1.11928 0.1 -0.552285 0.292794
1.11928 0.1 0.552285 0.276953
1.15704 0.1 -0.470036 0.317569
1.15704 0.1 0.470036 0.301055
0.969689 0.1 -0.7875 0.224803
0.96969 0.1 0.7875 0.211523
0.93886 0.1 -0.825 0.214763
0.90582 0.1 0.8625 0.19265
0.905821 0.1 -0.8625 0.205254
1.1744 0.1 -0.430821 0.32937
1.1744 0.1 0.430821 0.312746
1.10076 0.1 -0.594676 0.28097
1.10076 0.1 0.594676 0.265389
1.14316 0.1 -0.508816 0.30687
1.14316 0.1 0.508816 0.290717
1.24274 0.1 -0.157157 0.384441
1.24274 0.1 0.157157 0.375148
1.2267 0.1 -0.254659 0.370617
1.2267 0.1 0.254659 0.357092
0.467897 0.1 1.1625 0.138234
0.467897 0.1 -1.1625 0.148264
1.08012 0.1 0.638947 0.252841
1.08012 0.1 -0.638947 0.267788
1.25511 0.1 -5.78241e-19 0.390088
0.835106 0.1 -0.9375 0.188947
0.835106 0.1 0.9375 0.17702
0.871687 0.1 -0.903998 0.19799
1.25511 0.1 0.0622446 0.387004
1.25511 0.1 -0.0622446 0.390858
0.219992 0.1 1.2375 0.130895
0.219992 0.1 -1.2375 0.140233
0 0.1 -1.25701 0.156994
0 0.1 1.25701 0.147759
0.0363518 0.1 -1.25701 0.156994
0.0363518 0.1 1.25701 0.147759
0.797314 0.1 0.975 0.169668
0.797314 0.1 -0.975 0.181335
1.19808 0.1 -0.390576 0.342801
1.19808 0.1 0.390576 0.3259
1.0579 0.1 -0.684997 0.254639
1.0579 0.1 0.684997 0.24024
1.20938 0.1 -0.354921 0.351873
1.20938 0.1 0.354921 0.335374
1.25511 0.1 0.124489 0.381625
1.25511 0.1 -0.124489 0.389264
1.24274 0.1 -0.220019 0.379265
1.24274 0.1 0.220019 0.36665
0.756813 0.1 1.0125 0.162717
0.756814 0.1 -1.0125 0.174152
1.2267 0.1 -0.318324 0.361995
1.2267 0.1 0.318324 0.345937
0.411108 0.1 1.2 0.134923
0.411108 0.1 -1.2 0.144812
1.25511 0.1 -0.186734 0.385254
1.25511 0.1 0.186734 0.37414
0.714971 0.1 1.05 0.156536
0.714971 0.1 -1.05 0.167718
1.04168 0.1 -0.729162 0.242831
1.04168 0.1 0.729162 0.228381
1.24274 0.1 0.282882 0.35627
1.24274 0.1 -0.282882 0.371745
0 0.1 1.275 0.146402
0 0.1 -1.275 0.155677
1.1744 0.1 0.497102 0.298445
1.1744 0.1 -0.497102 0.31612
1.15704 0.1 -0.537184 0.303746
1.15704 0.1 0.537184 0.286431
1.2756 0.1 -0.03061 0.397161
1.2756 0.1 0.03061 0.395172
0.67013 0.1 1.0875 0.150725
0.67013 0.1 -1.0875 0.161663
1.2756 0.1 -0.09183 0.396934
1.2756 0.1 0.09183 0.390753
1.25511 0.1 -0.248978 0.378921
1.25511 0.1 0.248978 0.364666
1.20938 0.1 0.419453 0.322016
1.20938 0.1 -0.419453 0.340162
1.11928 0.1 -0.621322 0.278237
1.11928 0.1 0.621322 0.262001
1.14316 0.1 -0.576659 0.292519
1.14316 0.1 0.576659 0.275798
1.19808 0.1 -0.455673 0.330291
1.19808 0.1 0.455673 0.312019
1.02149 0.1 0.776219 0.216259
1.02149 0.1 -0.776219 0.230415
0.150379 0.1 1.275 0.137003
0.150379 0.1 -1.275 0.146349
1.2756 0.1 -0.15305 0.394202
1.2756 0.1 0.15305 0.384199
1.2267 0.1 -0.381989 0.351298
1.2267 0.1 0.381989 0.333209
1.10076 0.1 -0.664638 0.26622
1.10076 0.1 0.664638 0.250393
0.350249 0.1 1.2375 0.131897
0.350249 0.1 -1.2375 0.141647
0.623803 0.1 1.125 0.145363
0.623803 0.1 -1.125 0.156101
0.9386 0.1 0.88201 0.192289
0.990306 0.1 0.825 0.205935
0.990306 0.1 -0.825 0.219183
1.24274 0.1 -0.345745 0.362097
1.24274 0.1 0.345745 0.344191
1.2906 0.1 0 0.400269
1.07933 0.1 0.709941 0.237947
1.2906 0.1 -0.0604698 0.401225
1.2906 0.1 0.0604698 0.396986
1.08012 0.1 -0.709941 0.253091
0 0.1 1.29299 0.145045
0 0.1 -1.29299 0.15436
1.25511 0.1 0.311223 0.353396
1.25511 0.1 -0.311223 0.370344
1.2756 0.1 -0.214269 0.389145
1.2756 0.1 0.214269 0.375563
0.0363518 0.1 1.29299 0.145045
0.0363518 0.1 -1.29299 0.15436
1.2906 0.1 -0.12094 0.399821
1.2906 0.1 0.12094 0.391417
0.574156 0.1 1.1625 0.140316
0.574157 0.1 -1.1625 0.150861
0.969689 0.1 0.8625 0.198326
0.969689 0.1 -0.8625 0.211706
1.0579 0.1 0.757102 0.225483
1.0579 0.1 -0.757102 0.240056
1.1744 0.1 -0.563382 0.301556
1.1744 0.1 0.563382 0.283275
1.20938 0.1 0.483984 0.307498
1.20938 0.1 -0.483984 0.326817
1.2906 0.1 -0.181409 0.395994
1.2906 0.1 0.181409 0.383742
0.93886 0.1 -0.903998 0.203623
0.90582 0.1 0.9375 0.180728
0.90582 0.1 -0.9375 0.193509
1.2756 0.1 0.275489 0.365035
1.2756 0.1 -0.275489 0.381738
1.2267 0.1 -0.445653 0.338751
1.2267 0.1 0.445653 0.319171
1.15704 0.1 -0.604332 0.288836
1.15704 0.1 0.604332 0.271123
1.19808 0.1 -0.520769 0.316279
1.19808 0.1 0.520769 0.297119
1.30646 0.1 0.0298385 0.403631
1.30646 0.1 -0.0298385 0.405779
0.287374 0.1 -1.275 0.138067
0.287374 0.1 1.275 0.12845
0.871687 0.1 0.975 0.173368
0.871687 0.1 -0.975 0.185782
1.24274 0.1 0.408607 0.330651
1.24274 0.1 -0.408607 0.350386
0.522865 0.1 1.2 0.135766
0.522865 0.1 -1.2 0.146126