# UMean  POINT_DATA 63140
# x  y  z  UMean_x  UMean_y  UMean_z
0 0.1 0 0.970296 0 0.241922
0 0.1 -0.0179898 0.970296 0 0.241922
0 0.1 0.0179898 0.970296 0 0.241922
0.0363518 0.1 0.0179898 0.973217 0.0073712 0.242246
0.0363518 0.1 -0.0179898 0.973178 0.00735981 0.241847
0 0.1 -0.0570102 0.970296 0 0.241922
0 0.1 0.0570102 0.970296 0 0.241922
0.0363518 0.1 0.0570102 0.973217 0.0073712 0.242246
0.0363518 0.1 -0.0570102 0.973178 0.00735981 0.241847
0 0.1 -0.075 0.970296 0 0.241922
0 0.1 0.075 0.970296 0 0.241922
0.075776 0.1 -0.0375 0.976348 0.0154689 0.241763
0.075776 0.1 0.0375 0.97643 0.015492 0.242595
0 0.1 -0.0929898 0.970296 0 0.241922
0 0.1 0.0929898 0.970296 0 0.241922
0.0363518 0.1 -0.0929898 0.973115 0.00732734 0.241446
0.0363518 0.1 0.0929898 0.973212 0.00735497 0.242641
0 0.1 -0.13201 0.970296 0 0.241922
0 0.1 0.13201 0.970296 0 0.241922
0.075776 0.1 -0.1125 0.976218 0.0154033 0.240926
0.075776 0.1 0.1125 0.97642 0.0154587 0.243418
0.0363518 0.1 -0.13201 0.973115 0.00732734 0.241446
0.0363518 0.1 0.13201 0.973212 0.00735497 0.242641
0 0.1 -0.15 0.970296 0 0.241922
0 0.1 0.15 0.970296 0 0.241922
0.150379 0.1 -2.22623e-17 0.978599 0.0148674 0.242137
0 0.1 -0.16799 0.970296 0 0.241922
0 0.1 0.16799 0.970296 0 0.241922
0.150379 0.1 -0.075 0.978685 0.0148256 0.240705
0.150379 0.1 0.075 0.978623 0.014878 0.243555
0.0363518 0.1 -0.16799 0.973065 0.00729655 0.241055
0.0363518 0.1 0.16799 0.973173 0.00732136 0.24302
0.075776 0.1 -0.1875 0.976116 0.015341 0.24011
0.075776 0.1 0.1875 0.976341 0.0153906 0.244209
0 0.1 -0.20701 0.970296 0 0.241922
0 0.1 0.20701 0.970296 0 0.241922
0.0363518 0.1 -0.20701 0.973065 0.00729655 0.241055
0.0363518 0.1 0.20701 0.973173 0.00732136 0.24302
0.150379 0.1 -0.15 0.978861 0.0147766 0.23927
0.150379 0.1 0.15 0.978754 0.0148511 0.244959
0.219993 0.1 -0.0375 0.980778 0.0142671 0.241099
0.219993 0.1 0.0375 0.980646 0.0143056 0.243094
0 0.1 -0.225 0.970296 0 0.241922
0 0.1 0.225 0.970296 0 0.241922
0 0.1 -0.24299 0.970296 0 0.241922
0 0.1 0.24299 0.970296 0 0.241922
0.0363518 0.1 0.24299 0.973125 0.00728574 0.243381
0.0363518 0.1 -0.24299 0.973031 0.00726844 0.240687
0.219993 0.1 -0.1125 0.981183 0.0142271 0.239089
0.219993 0.1 0.1125 0.980802 0.0143184 0.245062
0.150379 0.1 -0.225 0.97906 0.0147308 0.237878
0.150379 0.1 0.225 0.978971 0.0147987 0.246345
0.075776 0.1 -0.2625 0.976048 0.0152834 0.239344
0.075776 0.1 0.2625 0.976242 0.0153184 0.244963
0 0.1 -0.28201 0.970296 0 0.241922
0 0.1 0.28201 0.970296 0 0.241922
0.0363518 0.1 -0.28201 0.973031 0.00726844 0.240687
0.0363518 0.1 0.28201 0.973125 0.00728574 0.243381
0.287374 0.1 -2.89121e-19 0.977745 0.0138088 0.241874
0.219992 0.1 0.1875 0.981244 0.0142972 0.247045
0.219992 0.1 -0.1875 0.981689 0.0141975 0.237067
0.287374 0.1 -0.075 0.97799 0.0137835 0.239276
0.287374 0.1 0.075 0.97776 0.0138286 0.244447
0 0.1 -0.3 0.970296 0 0.241922
0 0.1 0.3 0.970296 0 0.241922
0 0.1 0.31799 0.970296 0 0.241922
0 0.1 -0.31799 0.970296 0 0.241922
0.0363518 0.1 -0.31799 0.97301 0.00723855 0.240349
0.0363518 0.1 0.31799 0.973088 0.00725294 0.243715
0.287374 0.1 0.15 0.978042 0.0138316 0.247003
0.287374 0.1 -0.15 0.978441 0.0137536 0.236671
0.150379 0.1 -0.3 0.97925 0.0146812 0.236573
0.150379 0.1 0.3 0.979212 0.0147342 0.247676
0.219993 0.1 0.2625 0.98182 0.0142474 0.249003
0.219993 0.1 -0.2625 0.982121 0.0141627 0.235159
0.075776 0.1 -0.3375 0.976006 0.0152222 0.238639
0.075776 0.1 0.3375 0.976169 0.0152514 0.245658
0.350249 0.1 -0.0375 0.974962 0.0133471 0.240082
0.350249 0.1 0.0375 0.97486 0.0133588 0.24324
0 0.1 -0.35701 0.970296 0 0.241922
0 0.1 0.35701 0.970296 0 0.241922
0.0363518 0.1 -0.35701 0.97301 0.00723855 0.240349
0.0363518 0.1 0.35701 0.973088 0.00725294 0.243715
0.287374 0.1 -0.225 0.978976 0.013709 0.23413
0.287374 0.1 0.225 0.978555 0.0138038 0.249539
0.350249 0.1 -0.1125 0.975307 0.013335 0.236904
0.350249 0.1 0.1125 0.974999 0.0133756 0.246361
0 0.1 -0.375 0.970296 0 0.241922
0 0.1 0.375 0.970296 0 0.241922
0 0.1 -0.39299 0.970296 0 0.241922
0 0.1 0.39299 0.970296 0 0.241922
0.0363518 0.1 -0.39299 0.973005 0.00721208 0.240038
0.0363518 0.1 0.39299 0.973063 0.00722272 0.244012
0.350249 0.1 -0.1875 0.975855 0.0132973 0.233744
0.350249 0.1 0.1875 0.97539 0.0133786 0.249462
0.219992 0.1 -0.3375 0.982539 0.0141171 0.233368
0.219992 0.1 0.3375 0.98235 0.0141784 0.250867
0.150379 0.1 0.375 0.979449 0.0146656 0.248919
0.150379 0.1 -0.375 0.979452 0.0146274 0.235364
0.411108 0.1 4.33681e-19 0.969869 0.0136003 0.241239
0.287374 0.1 -0.3 0.97953 0.013643 0.231729
0.287374 0.1 0.3 0.97919 0.0137402 0.251999
0.411108 0.1 -0.075 0.970128 0.0135862 0.237416
0.411108 0.1 0.075 0.969892 0.0136122 0.245042
0.075776 0.1 -0.4125 0.975997 0.0151685 0.23799
0.075776 0.1 0.4125 0.976118 0.0151897 0.246276
0 0.1 0.43201 0.970296 0 0.241922
0 0.1 -0.43201 0.970296 0 0.241922
0.0363518 0.1 0.43201 0.973063 0.00722272 0.244012
0.0363518 0.1 -0.43201 0.973005 0.00721208 0.240038
0.411108 0.1 -0.15 0.970656 0.0135557 0.233623
0.411108 0.1 0.15 0.970203 0.0136182 0.248802
0.350249 0.1 -0.2625 0.976505 0.013222 0.23072
0.350249 0.1 0.2625 0.976034 0.0133349 0.252516
0 0.1 -0.45 0.970296 0 0.241922
0 0.1 0.45 0.970296 0 0.241922
0.219992 0.1 0.4125 0.982863 0.014102 0.25261
0.219992 0.1 -0.4125 0.982957 0.0140625 0.231724
0 0.1 -0.46799 0.970296 0 0.241922
0 0.1 0.46799 0.970296 0 0.241922
0.411108 0.1 -0.225 0.971396 0.0134907 0.229941
0.411108 0.1 0.225 0.97081 0.0135947 0.2525
0.467897 0.1 -0.0375 0.965104 0.0138306 0.238605
0.467897 0.1 0.0375 0.964971 0.0138412 0.243063
0.0363518 0.1 0.46799 0.973053 0.00719728 0.244277
0.0363518 0.1 -0.46799 0.97302 0.00718714 0.239745
0.287374 0.1 -0.375 0.980101 0.0135555 0.229504
0.287374 0.1 0.375 0.979863 0.0136476 0.254318
0.150379 0.1 0.45 0.979678 0.0145991 0.25004
0.150379 0.1 -0.45 0.979648 0.0145693 0.234264
0.467897 0.1 0.1125 0.96516 0.01385 0.247483
0.467897 0.1 -0.1125 0.965558 0.0138091 0.234162
0.350249 0.1 -0.3375 0.977208 0.0131162 0.227889
0.350249 0.1 0.3375 0.976816 0.0132436 0.255433
0.075776 0.1 -0.4875 0.976028 0.0151176 0.23738
0.075776 0.1 0.4875 0.976097 0.015138 0.246829
0.467897 0.1 0.1875 0.965679 0.0138459 0.25183
0.467897 0.1 -0.1875 0.966314 0.0137587 0.229821
0 0.1 -0.50701 0.970296 0 0.241922
0 0.1 0.50701 0.970296 0 0.241922
0.0363518 0.1 -0.50701 0.97302 0.00718714 0.239745
0.0363518 0.1 0.50701 0.973053 0.00719728 0.244277
0.411108 0.1 0.3 0.971676 0.0135233 0.256073
0.411108 0.1 -0.3 0.972277 0.013384 0.226458
0.522865 0.1 1.41031e-17 0.958615 0.0144499 0.240246
0 0.1 -0.525 0.970296 0 0.241922
0 0.1 0.525 0.970296 0 0.241922
0.522865 0.1 -0.075 0.958972 0.0144236 0.235105
0.522865 0.1 0.075 0.958645 0.014459 0.245388
0.287374 0.1 0.45 0.980539 0.0135329 0.256436
0.287374 0.1 -0.45 0.980657 0.0134467 0.227492
0.219992 0.1 0.4875 0.983317 0.014027 0.254131
0.219992 0.1 -0.4875 0.983287 0.0139901 0.23027
0.467897 0.1 -0.2625 0.967309 0.0136632 0.225665
0.467897 0.1 0.2625 0.966547 0.0137969 0.256069
0.350249 0.1 -0.4125 0.97794 0.0129753 0.225298
0.350249 0.1 0.4125 0.97767 0.013112 0.258138
0 0.1 -0.54299 0.970296 0 0.241922
0 0.1 0.54299 0.970296 0 0.241922
0.522865 0.1 0.15 0.959065 0.0144511 0.250465
0.522865 0.1 -0.15 0.959703 0.0143678 0.230052
0.0363518 0.1 0.54299 0.97306 0.00717155 0.24452
0.0363518 0.1 -0.54299 0.97304 0.00716092 0.239479
0.150379 0.1 -0.525 0.979836 0.0145037 0.233278
0.150379 0.1 0.525 0.979887 0.0145326 0.251014
0.411108 0.1 -0.375 0.973251 0.013236 0.22324
0.411108 0.1 0.375 0.97272 0.0134028 0.259438
0.075776 0.1 -0.5625 0.97607 0.0150639 0.236827
0.075776 0.1 0.5625 0.976111 0.0150856 0.247336
0.522865 0.1 -0.225 0.96077 0.0142674 0.225186
0.522865 0.1 0.225 0.959886 0.0144097 0.255423
0.574156 0.1 0.0375 0.952346 0.0150473 0.242598
0.574157 0.1 -0.0375 0.952539 0.0150271 0.236762
0.467897 0.1 -0.3375 0.968471 0.0135143 0.221792
0.467897 0.1 0.3375 0.967706 0.0136957 0.260103
0 0.1 -0.58201 0.970296 0 0.241922
0 0.1 0.58201 0.970296 0 0.241922
0.0363518 0.1 -0.58201 0.97304 0.00716092 0.239479
0.0363518 0.1 0.58201 0.97306 0.00717155 0.24452
0.574157 0.1 -0.1125 0.95318 0.0149753 0.230988
0.574157 0.1 0.1125 0.952603 0.0150445 0.248399
0.287374 0.1 -0.525 0.981198 0.0133223 0.225706
0.287374 0.1 0.525 0.981174 0.0134016 0.258301
0 0.1 -0.6 0.970296 0 0.241922
0 0.1 0.6 0.970296 0 0.241922
0.350249 0.1 0.4875 0.978536 0.0129394 0.2606
0.350249 0.1 -0.4875 0.978669 0.012812 0.222977
0.522865 0.1 -0.3 0.962108 0.0141115 0.220603
0.522865 0.1 0.3 0.961093 0.0143163 0.26019
0.219992 0.1 -0.5625 0.983622 0.0139059 0.22898
0.219992 0.1 0.5625 0.983686 0.0139415 0.255404
0.574156 0.1 -0.1875 0.954245 0.0148772 0.225385
0.574156 0.1 0.1875 0.953312 0.0150118 0.254085
0.411108 0.1 0.45 0.973865 0.0132334 0.262537
0.411108 0.1 -0.45 0.974282 0.0130542 0.22033
0 0.1 -0.61799 0.970296 0 0.241922
0 0.1 0.61799 0.970296 0 0.241922
0.150379 0.1 -0.6 0.980036 0.0144341 0.232404
0.150379 0.1 0.6 0.980087 0.0144597 0.25185
0.0363518 0.1 -0.61799 0.97306 0.00713695 0.239245
0.0363518 0.1 0.61799 0.973076 0.00714343 0.244738
0.467897 0.1 -0.4125 0.969748 0.0133197 0.218256
0.467897 0.1 0.4125 0.969067 0.0135384 0.263861
0.623803 0.1 2.34188e-17 0.944979 0.0159575 0.238957
0.623803 0.1 0.075 0.945008 0.0159684 0.245516
0.623803 0.1 -0.075 0.945486 0.0159052 0.232426
0.574156 0.1 0.2625 0.95449 0.0149331 0.259593
0.574156 0.1 -0.2625 0.955684 0.0147219 0.220067
0.623803 0.1 0.15 0.945572 0.0159397 0.251993
0.623803 0.1 -0.15 0.946512 0.0158013 0.226044
0.075776 0.1 0.6375 0.976144 0.0150281 0.247789
0.075776 0.1 -0.6375 0.976112 0.0150148 0.236338
0.522865 0.1 -0.375 0.963647 0.0139004 0.216384
0.522865 0.1 0.375 0.962616 0.0141628 0.264675
0 0.1 0.65701 0.970296 0 0.241922
0 0.1 -0.65701 0.970296 0 0.241922
0.0363518 0.1 0.65701 0.973076 0.00714343 0.244738
0.0363518 0.1 -0.65701 0.97306 0.00713695 0.239245
0.350249 0.1 0.5625 0.979367 0.0127518 0.262766
0.350249 0.1 -0.5625 0.979419 0.0126385 0.220937
0.623803 0.1 0.225 0.946678 0.015863 0.258298
0.623803 0.1 -0.225 0.948015 0.0156352 0.219938
0.287374 0.1 -0.6 0.981761 0.0131888 0.224144
0.287374 0.1 0.6 0.981775 0.0132609 0.259906
0.574157 0.1 -0.3375 0.957419 0.0145009 0.215126
0.574157 0.1 0.3375 0.956097 0.0147899 0.264833
0.411108 0.1 0.525 0.975045 0.0130267 0.265319
0.411108 0.1 -0.525 0.975355 0.0128511 0.217755
0.67013 0.1 0.0375 0.937641 0.01686 0.241902
0.67013 0.1 -0.0375 0.937927 0.0168213 0.234616
0.219992 0.1 -0.6375 0.983988 0.0138162 0.22785
0.219993 0.1 0.6375 0.984054 0.0138468 0.256484
0 0.1 -0.675 0.970296 0 0.241922
0 0.1 0.675 0.970296 0 0.241922
0.467897 0.1 -0.4875 0.971107 0.0130939 0.215101
0.467897 0.1 0.4875 0.970543 0.0133237 0.267287
0.67013 0.1 -0.1125 0.938828 0.0167242 0.22744
0.67013 0.1 0.1125 0.937978 0.0168473 0.249162
0.522865 0.1 0.45 0.964365 0.0139468 0.268805
0.522865 0.1 -0.45 0.965336 0.0136451 0.212588
0.150379 0.1 0.675 0.980298 0.0143812 0.252565
0.150379 0.1 -0.675 0.980247 0.014365 0.231648
0.623803 0.1 0.3 0.94831 0.0157236 0.264341
0.623803 0.1 -0.3 0.949927 0.0153998 0.214216
0 0.1 -0.69299 0.970296 0 0.241922
0 0.1 0.69299 0.970296 0 0.241922
0.0363518 0.1 -0.69299 0.973077 0.00711652 0.239045
0.0363518 0.1 0.69299 0.973093 0.00711645 0.244924
0.67013 0.1 -0.1875 0.940313 0.0165575 0.220516
0.67013 0.1 0.1875 0.938929 0.0167817 0.256273
0.574156 0.1 0.4125 0.958044 0.0145795 0.269697
0.574157 0.1 -0.4125 0.959376 0.0142238 0.210641
0.714971 0.1 -2.8382e-17 0.929526 0.0180393 0.23742
0.075776 0.1 -0.7125 0.976146 0.0149732 0.235922
0.075776 0.1 0.7125 0.97618 0.014973 0.248177
0.714971 0.1 -0.075 0.93023 0.0179485 0.229426
0.714971 0.1 0.075 0.929542 0.0180584 0.245474
0.67013 0.1 0.2625 0.9405 0.0166531 0.263135
0.67013 0.1 -0.2625 0.942321 0.0163163 0.213982
0.411108 0.1 -0.6 0.976472 0.012633 0.215526
0.411108 0.1 0.6 0.976227 0.0128019 0.267747
0.350249 0.1 0.6375 0.980184 0.0125612 0.264626
0.350249 0.1 -0.6375 0.980202 0.012456 0.219179
0.623803 0.1 0.375 0.950405 0.0155114 0.270013
0.623803 0.1 -0.375 0.952168 0.0150969 0.208975
0.714971 0.1 -0.15 0.931632 0.017779 0.221645
0.714971 0.1 0.15 0.930277 0.0180087 0.253436
0.467897 0.1 -0.5625 0.972534 0.012847 0.212348
0.467897 0.1 0.5625 0.972062 0.0130741 0.270325
0 0.1 -0.73201 0.970296 0 0.241922
0 0.1 0.73201 0.970296 0 0.241922
0.0363518 0.1 0.73201 0.973093 0.00711645 0.244924
0.0363518 0.1 -0.73201 0.973077 0.00711652 0.239045
0.287374 0.1 -0.675 0.982351 0.0130483 0.222808
0.287374 0.1 0.675 0.98238 0.013113 0.261267
0.522865 0.1 -0.525 0.967141 0.0133589 0.209253
0.522865 0.1 0.525 0.96625 0.0136773 0.272517
0.219993 0.1 -0.7125 0.984376 0.0137223 0.226887
0.219992 0.1 0.7125 0.984445 0.0137425 0.257396
0.714971 0.1 -0.225 0.93368 0.0175213 0.214232
0.714971 0.1 0.225 0.931724 0.0178868 0.261173
0 0.1 0.75 0.970296 0 0.241922
0 0.1 -0.75 0.970296 0 0.241922
0.67013 0.1 -0.3375 0.944764 0.0159959 0.207929
0.67013 0.1 0.3375 0.942658 0.0164484 0.269652
0.574156 0.1 -0.4875 0.961511 0.0139038 0.206668
0.574157 0.1 0.4875 0.960232 0.0143 0.274125
0.756813 0.1 0.0375 0.921339 0.0192272 0.241015
0.756814 0.1 -0.0375 0.921744 0.019159 0.232202
0.150379 0.1 0.746002 0.980429 0.014316 0.253048
0.150379 0.1 -0.75 0.980462 0.0142966 0.231015
0.756813 0.1 -0.1125 0.92296 0.0190013 0.223548
0.756813 0.1 0.1125 0.921758 0.0192091 0.24982
0 0.1 0.76799 0.970296 0 0.241922
0 0.1 -0.76799 0.970296 0 0.241922
0.0363518 0.1 0.76799 0.973108 0.00709306 0.245076
0.0363518 0.1 -0.76799 0.973089 0.00709851 0.238881
0.623803 0.1 -0.45 0.954667 0.0147386 0.204294
0.623803 0.1 0.45 0.952861 0.0152247 0.275221
0.714971 0.1 -0.3 0.93629 0.0171761 0.207324
0.714971 0.1 0.3 0.933865 0.0176832 0.268569
0.756814 0.1 -0.1875 0.924954 0.0187476 0.215227
0.756814 0.1 0.1875 0.922985 0.0191074 0.258441
0.67013 0.1 -0.4125 0.947564 0.0156068 0.202482
0.67013 0.1 0.4125 0.945303 0.0161603 0.275675
0.411108 0.1 0.675 0.977413 0.0125672 0.269811
0.411108 0.1 -0.675 0.977625 0.0124036 0.213649
0.467897 0.1 0.6375 0.973594 0.012806 0.27294
0.467897 0.1 -0.6375 0.974015 0.012581 0.21001
0.075776 0.1 0.7875 0.976213 0.0149253 0.248494
0.075776 0.1 -0.7875 0.976173 0.0149366 0.23558
0.350249 0.1 -0.7125 0.981008 0.0122643 0.21771
0.350249 0.1 0.7125 0.981008 0.0123637 0.266188
0.522865 0.1 -0.6 0.969029 0.0130498 0.206401
0.522865 0.1 0.6 0.968203 0.0133734 0.275761
0.797314 0.1 -3.59473e-17 0.912702 0.0207284 0.235682
0.287374 0.1 0.746002 0.982996 0.012978 0.262263
0.797314 0.1 -0.075 0.913647 0.0205846 0.226149
0.797314 0.1 0.075 0.912692 0.0207642 0.245306
0.756814 0.1 -0.2625 0.927638 0.0183821 0.207402
0.756814 0.1 0.2625 0.92501 0.0189173 0.266745
0.287374 0.1 -0.75 0.982955 0.0129028 0.221703
0.574156 0.1 -0.5625 0.963776 0.0135559 0.20324
0.574156 0.1 0.5625 0.96256 0.0139691 0.278045
0 0.1 0.80701 0.970296 0 0.241922
0 0.1 -0.80701 0.970296 0 0.241922
0.714971 0.1 -0.375 0.939372 0.0167507 0.201038
0.714971 0.1 0.375 0.936629 0.0173892 0.275496
0.0363518 0.1 0.80701 0.973108 0.00709306 0.245076
0.0363518 0.1 -0.80701 0.973089 0.00709851 0.238881
0.797314 0.1 -0.15 0.915499 0.0203263 0.216897
0.797314 0.1 0.15 0.913615 0.020695 0.254831
0.623803 0.1 -0.525 0.957362 0.0143406 0.200221
0.623803 0.1 0.525 0.95557 0.0148714 0.279893
0.219992 0.1 0.7875 0.98485 0.0136317 0.258145
0.219992 0.1 -0.7875 0.984768 0.0136234 0.226099
0.149792 0.1 0.80701 0.980678 0.0142426 0.25353
0 0.1 0.825 0.970296 0 0.241922
0 0.1 -0.825 0.970296 0 0.241922
0.797314 0.1 -0.225 0.91819 0.0199453 0.208115
0.797314 0.1 0.225 0.915451 0.0205205 0.264081
0.756813 0.1 -0.3375 0.930918 0.017933 0.200223
0.756813 0.1 0.3375 0.927801 0.0186288 0.274601
0.67013 0.1 0.4875 0.948319 0.0157948 0.281151
0.67013 0.1 -0.4875 0.950636 0.0151641 0.197696
0.835106 0.1 -0.0375 0.904408 0.0221562 0.229577
0.835106 0.1 0.0375 0.903851 0.0222662 0.239988
0.150379 0.1 -0.825 0.980671 0.0142298 0.230508
0.835106 0.1 -0.1125 0.905999 0.021919 0.219372
0.835106 0.1 0.1125 0.904353 0.0222483 0.250408
0 0.1 -0.84299 0.970296 0 0.241922
0 0.1 0.84299 0.970296 0 0.241922
0.0363518 0.1 -0.84299 0.973098 0.00708321 0.238752
0.0363518 0.1 0.84299 0.97312 0.00707309 0.245193
0.714971 0.1 -0.45 0.942829 0.0162577 0.195465
0.714971 0.1 0.45 0.939898 0.017006 0.281834
0.411108 0.1 0.746002 0.978597 0.0123349 0.271353
0.797314 0.1 -0.3 0.921621 0.0194558 0.199981
0.797314 0.1 0.3 0.918169 0.0202333 0.272901
0.467897 0.1 -0.7125 0.975526 0.0123071 0.20809
0.467897 0.1 0.7125 0.975134 0.0125267 0.275127
0.522865 0.1 0.675 0.970184 0.0130492 0.278511
0.522865 0.1 -0.675 0.970969 0.0127249 0.204039
0.411108 0.1 -0.75 0.978792 0.0121677 0.212127
0.835106 0.1 -0.1875 0.90859 0.0215374 0.209588
0.835107 0.1 0.1875 0.90589 0.02211 0.260612
0.286844 0.1 0.80701 0.983473 0.0128383 0.263098
0.574156 0.1 0.6375 0.964957 0.0136058 0.281415
0.574157 0.1 -0.6375 0.966125 0.0131843 0.200372
0.350249 0.1 -0.7875 0.98182 0.0120709 0.21653
0.350249 0.1 0.7875 0.981836 0.0121593 0.267453
0.756813 0.1 -0.4125 0.934692 0.0173947 0.19379
0.756814 0.1 0.4125 0.931238 0.0182376 0.28187
0.623803 0.1 -0.6 0.960189 0.0139142 0.196784
0.623803 0.1 0.6 0.958431 0.0144681 0.283962
0.075776 0.1 0.8625 0.976238 0.0148847 0.248737
0.075776 0.1 -0.8625 0.976191 0.0149055 0.235312
0.871687 0.1 -3.2767e-18 0.894956 0.0239936 0.23378
0.287374 0.1 -0.825 0.983556 0.0127555 0.220829
0.871687 0.1 -0.075 0.89617 0.0237771 0.222646
0.871687 0.1 0.075 0.894909 0.0240564 0.245041
0.67013 0.1 -0.5625 0.953907 0.0146875 0.193617
0.67013 0.1 0.5625 0.951591 0.0153613 0.285977
0.835106 0.1 0.2625 0.908431 0.0218437 0.270434
0.835106 0.1 -0.2625 0.912065 0.021019 0.200435
0.797314 0.1 -0.375 0.925678 0.0188708 0.192624
0.797314 0.1 0.375 0.921691 0.0198304 0.281144
0 0.1 -0.88201 0.970296 0 0.241922
0 0.1 0.88201 0.970296 0 0.241922
0.0363518 0.1 0.88201 0.97312 0.00707309 0.245193
0.0363518 0.1 -0.88201 0.973098 0.00708321 0.238752
0.871687 0.1 0.15 0.896031 0.0239678 0.256194
0.871687 0.1 -0.15 0.898519 0.0234003 0.21186
0.714971 0.1 0.525 0.943547 0.0165422 0.287493
0.714971 0.1 -0.525 0.946565 0.0157173 0.190668
0.219993 0.1 0.8625 0.985253 0.0135197 0.258736
0.219992 0.1 -0.8625 0.985149 0.0135259 0.225486
0 0.1 0.9 0.970296 0 0.241922
0 0.1 -0.9 0.970296 0 0.241922
0.756813 0.1 0.4875 0.935188 0.0177534 0.288414
0.756814 0.1 -0.4875 0.938839 0.0167983 0.188196
0.871687 0.1 0.225 0.898287 0.0237298 0.267021
0.871687 0.1 -0.225 0.901924 0.0228639 0.201664
0.835106 0.1 -0.3375 0.916323 0.0203993 0.192091
0.835106 0.1 0.3375 0.91193 0.0214429 0.279689
0.41063 0.1 0.80701 0.979514 0.0121365 0.272565
0.90582 0.1 -0.0375 0.886391 0.0256355 0.226772
0.905821 0.1 0.0375 0.885671 0.0258054 0.238837
0.522865 0.1 0.746002 0.972145 0.0127232 0.280583
0.150379 0.1 0.9 0.980951 0.0141478 0.254003
0.90582 0.1 0.1125 0.886257 0.0257935 0.250936
0.905821 0.1 -0.1125 0.888371 0.025289 0.214959
0.522865 0.1 -0.75 0.97292 0.012392 0.202168
0.574156 0.1 0.7125 0.967379 0.0132238 0.284217
0.574156 0.1 -0.7125 0.968507 0.0128009 0.19807
0.797314 0.1 -0.45 0.930235 0.0182033 0.186151
0.797314 0.1 0.45 0.925879 0.019318 0.288656
0.467897 0.1 -0.7875 0.977038 0.0120262 0.206587
0.467897 0.1 0.7875 0.976675 0.0122405 0.276889
0.150379 0.1 -0.903998 0.980951 0.0141561 0.230044
0 0.1 0.91799 0.970296 0 0.241922
0 0.1 -0.91799 0.970296 0 0.241922
0.0363518 0.1 0.91799 0.973128 0.00705631 0.245275
0.0363518 0.1 -0.91799 0.973103 0.00706964 0.238658
0.623803 0.1 0.675 0.961364 0.0140332 0.287396
0.623803 0.1 -0.675 0.963086 0.0134696 0.193993
0.411108 0.1 -0.825 0.97995 0.0119295 0.210954
0.871687 0.1 0.3 0.901626 0.0233392 0.277325
0.871687 0.1 -0.3 0.906265 0.0221913 0.192265
0.67013 0.1 -0.6375 0.957296 0.0141832 0.190265
0.67013 0.1 0.6375 0.955001 0.01488 0.290107
0.90582 0.1 -0.1875 0.891591 0.0247506 0.203664
0.90582 0.1 0.1875 0.888114 0.0256076 0.262782
0.350249 0.1 0.8625 0.982656 0.0119511 0.268432
0.350249 0.1 -0.8625 0.982617 0.0118759 0.215631
0.835106 0.1 -0.4125 0.92121 0.019672 0.184654
0.835106 0.1 0.4125 0.916264 0.0209161 0.288239
0.714971 0.1 -0.6 0.950487 0.0151447 0.186681
0.714971 0.1 0.6 0.947441 0.0160132 0.292403
0.93886 0.1 -1.15648e-17 0.876593 0.0280894 0.231755
0.075776 0.1 0.9375 0.976255 0.0148505 0.248908
0.075776 0.1 -0.9375 0.976204 0.0148778 0.235116
0.93886 0.1 0.075 0.876495 0.0281919 0.244744
0.93886 0.1 -0.075 0.878106 0.027773 0.218929
0.756813 0.1 0.5625 0.939513 0.017186 0.294172
0.756814 0.1 -0.5625 0.943258 0.0161577 0.183491
0.905821 0.1 -0.2625 0.895906 0.0240483 0.193151
0.905821 0.1 0.2625 0.891191 0.0252483 0.274173
0.287374 0.1 0.9 0.984221 0.012638 0.263975
0.287374 0.1 -0.903998 0.984059 0.012603 0.220122
0.871687 0.1 0.375 0.90596 0.0227999 0.286929
0.871687 0.1 -0.375 0.911394 0.0214002 0.183809
0.93886 0.1 -0.15 0.881004 0.02724 0.206527
0.93886 0.1 0.15 0.877825 0.02808 0.257618
0.797314 0.1 0.525 0.93058 0.0187073 0.295327
0.797314 0.1 -0.525 0.935164 0.017478 0.180643
0 0.1 0.95701 0.970296 0 0.241922
0 0.1 -0.95701 0.970296 0 0.241922
0.0363518 0.1 0.95701 0.973128 0.00705631 0.245275
0.0363518 0.1 -0.95701 0.973103 0.00706964 0.238658
0.522433 0.1 0.80701 0.973685 0.0124528 0.282154
0.219992 0.1 0.9375 0.985638 0.0134112 0.25916
0.219992 0.1 -0.9375 0.98551 0.0134254 0.225042
0.93886 0.1 0.225 0.880532 0.0277605 0.270104
0.93886 0.1 -0.225 0.885201 0.026503 0.19484
0.90582 0.1 0.3375 0.895414 0.0247153 0.28488
0.905821 0.1 -0.3375 0.901196 0.0232044 0.183596
0.835106 0.1 -0.4875 0.926593 0.0188702 0.178254
0.835107 0.1 0.4875 0.921268 0.0202732 0.295887
0.969689 0.1 -0.0375 0.867842 0.0302672 0.223809
0.969689 0.1 0.0375 0.86692 0.0305185 0.237653
0.61613 0.1 0.75 0.964314 0.0135807 0.290186
0.574156 0.1 -0.7875 0.970875 0.0124117 0.196321
0.574156 0.1 0.7875 0.969795 0.0128312 0.286455
0 0.1 0.975 0.970296 0 0.241922
0 0.1 -0.975 0.970296 0 0.241922
0.623803 0.1 -0.75 0.96599 0.0130164 0.191842
0.969689 0.1 -0.1125 0.870266 0.0297722 0.210267
0.969689 0.1 0.1125 0.867588 0.0305179 0.251556
0.522865 0.1 -0.825 0.974847 0.0120556 0.200773
0.67013 0.1 0.7125 0.958467 0.0143719 0.293516
0.67013 0.1 -0.7125 0.960725 0.013669 0.187641
0.871687 0.1 -0.45 0.917147 0.0205114 0.176429
0.871687 0.1 0.45 0.911138 0.0221234 0.295652
0.467897 0.1 0.8625 0.978199 0.0119489 0.278239
0.467897 0.1 -0.8625 0.978519 0.0117462 0.205486
0.714971 0.1 -0.675 0.954496 0.0145543 0.183515
0.714971 0.1 0.675 0.95146 0.0154409 0.296519
0.93886 0.1 -0.3 0.890538 0.0255904 0.184096
0.93886 0.1 0.3 0.884542 0.0272392 0.281965
0.150379 0.1 0.975 0.981148 0.0140776 0.254245
0.150379 0.1 -0.975 0.981051 0.0140996 0.229859
0.969689 0.1 -0.1875 0.874221 0.0290245 0.197349
0.969689 0.1 0.1875 0.869792 0.0302694 0.26516
0.411108 0.1 0.9 0.980951 0.0118257 0.273854
0.756813 0.1 0.6375 0.944049 0.0165572 0.299066
0.756814 0.1 -0.6375 0.947827 0.0154949 0.179699
0.990306 0.1 -2.19732e-17 0.862032 0.0316943 0.230094
0 0.1 0.99299 0.970296 0 0.241922
0 0.1 -0.99299 0.970296 0 0.241922
0.411108 0.1 -0.903998 0.980929 0.011711 0.210067
0.990306 0.1 -0.075 0.863788 0.0312893 0.215945
0.990306 0.1 0.075 0.861895 0.0318361 0.244433
0.0363518 0.1 0.99299 0.973132 0.00704218 0.245324
0.0363518 0.1 -0.99299 0.973107 0.00705702 0.238598
0.90582 0.1 -0.4125 0.907246 0.0222375 0.175143
0.905821 0.1 0.4125 0.900672 0.0240233 0.294745
0.797314 0.1 -0.6 0.940332 0.0167177 0.176139
0.797314 0.1 0.6 0.935625 0.0180155 0.301086
0.350249 0.1 0.9375 0.983454 0.0117451 0.269135
0.350249 0.1 -0.9375 0.983387 0.0116775 0.215002
0.990306 0.1 0.15 0.863396 0.0317102 0.258653
0.990306 0.1 -0.15 0.867138 0.0306203 0.202272
0.969689 0.1 -0.2625 0.879494 0.0280709 0.185367
0.969689 0.1 0.2625 0.873468 0.0297875 0.27822
0.835106 0.1 -0.5625 0.932321 0.0180147 0.172943
0.835106 0.1 0.5625 0.926757 0.0195306 0.302592
0.93886 0.1 -0.375 0.896837 0.0245293 0.174469
0.93886 0.1 0.375 0.889754 0.0265266 0.292987
0.075776 0.1 1.0125 0.976264 0.0148218 0.24901
0.075776 0.1 -1.0125 0.976211 0.014852 0.234991
0.990306 0.1 -0.225 0.871985 0.0297089 0.18941
0.990306 0.1 0.225 0.866472 0.0313265 0.272438
0.287374 0.1 0.975 0.984801 0.0124815 0.264436
0.287374 0.1 -0.975 0.984693 0.0124548 0.219746
0.871687 0.1 -0.525 0.923366 0.0195562 0.17022
0.871687 0.1 0.525 0.916966 0.0213257 0.303364
1.02149 0.1 -0.0369628 0.851685 0.0343983 0.221241
1.02149 0.1 0.0369628 0.850627 0.0347231 0.236315
0.969689 0.1 -0.3375 0.885939 0.0269276 0.174475
0.969689 0.1 0.3375 0.878514 0.0290804 0.290467
1.02149 0.1 -0.110888 0.854423 0.0337887 0.206488
1.02149 0.1 0.110888 0.851349 0.0347498 0.251476
0.90582 0.1 0.4875 0.906762 0.0231843 0.303542
0.90582 0.1 -0.4875 0.913904 0.0211857 0.167936
0.623803 0.1 0.819003 0.966364 0.0132481 0.29266
0 0.1 1.03201 0.970296 0 0.241922
0 0.1 -1.03201 0.970296 0 0.241922
0.0363518 0.1 1.03201 0.973132 0.00704218 0.245324
0.0363518 0.1 -1.03201 0.973107 0.00705702 0.238598
0.67013 0.1 -0.7875 0.964121 0.0131482 0.185719
0.67013 0.1 0.7875 0.961927 0.0138494 0.296206
0.623803 0.1 -0.825 0.968842 0.0125608 0.190305
0.990306 0.1 -0.3 0.878138 0.0285886 0.177594
0.990306 0.1 0.3 0.871034 0.0306987 0.285521
0.219992 0.1 -1.0125 0.985848 0.0133222 0.224759
0.219993 0.1 1.0125 0.985996 0.0133054 0.259425
0.574156 0.1 0.8625 0.972173 0.0124322 0.288146
0.574157 0.1 -0.8625 0.973188 0.0120209 0.195102
0.714971 0.1 -0.75 0.9585 0.0139562 0.181151
0.714971 0.1 0.75 0.955514 0.0148448 0.299829
1.02149 0.1 0.184814 0.85379 0.0344774 0.266326
1.02149 0.1 -0.184814 0.858896 0.032882 0.192403
0.756814 0.1 -0.7125 0.952437 0.01482 0.176812
0.756814 0.1 0.7125 0.948675 0.0158916 0.303074
0.522865 0.1 0.9 0.976074 0.0120232 0.283821
0.93886 0.1 -0.45 0.903906 0.0233543 0.166137
0.93886 0.1 0.45 0.895999 0.0256382 0.302979
1.04168 0.1 0 0.844399 0.036495 0.228019
1.04168 0.1 -0.0729162 0.846359 0.0359902 0.21266
1.04168 0.1 0.0729162 0.844205 0.0366926 0.24359
0.522865 0.1 -0.903998 0.976485 0.0117545 0.199786
0.797314 0.1 -0.675 0.945599 0.0159441 0.172646
0.797314 0.1 0.675 0.940856 0.0172674 0.305876
0.467897 0.1 0.9375 0.979676 0.0116571 0.279194
0.467897 0.1 -0.9375 0.979942 0.011462 0.20476
0 0.1 1.05 0.970296 0 0.241922
0 0.1 -1.05 0.970296 0 0.241922
0.835106 0.1 -0.6375 0.938235 0.0171394 0.168752
0.835106 0.1 0.6375 0.93255 0.0187082 0.308244
1.04168 0.1 -0.145832 0.850069 0.035176 0.197795
1.04168 0.1 0.145832 0.845801 0.0365724 0.259055
1.02149 0.1 -0.25874 0.864851 0.0317393 0.179338
1.02149 0.1 0.25874 0.857876 0.0339264 0.280595
0.969689 0.1 -0.4125 0.893323 0.0256451 0.164899
0.969689 0.1 0.4125 0.884812 0.0281672 0.301703
0.411108 0.1 0.975 0.982069 0.011578 0.274526
0.411108 0.1 -0.975 0.98215 0.0114465 0.209588
0.871687 0.1 -0.6 0.929877 0.0185676 0.165229
0.871687 0.1 0.6 0.923234 0.0204287 0.309977
1.0579 0.1 -0.0360525 0.839684 0.0378689 0.219352
1.0579 0.1 0.0360525 0.838533 0.038251 0.235197
0.990306 0.1 -0.375 0.885408 0.027294 0.167045
0.990306 0.1 0.375 0.876965 0.0298417 0.297661
0.150379 0.1 1.05 0.981326 0.0140108 0.254376
0.150379 0.1 -1.05 0.981222 0.014035 0.229708
1.0579 0.1 0.108157 0.83922 0.0383044 0.251151
1.0579 0.1 -0.108157 0.842578 0.0371748 0.203832
1.04168 0.1 -0.218749 0.855433 0.0340793 0.183795
1.04168 0.1 0.218749 0.849117 0.0361447 0.274066
0.90582 0.1 -0.5625 0.920976 0.0200811 0.162036
0.90582 0.1 0.5625 0.913457 0.022224 0.31121
0 0.1 -1.06799 0.970296 0 0.241922
0 0.1 1.06799 0.970296 0 0.241922
0.0363518 0.1 -1.06799 0.97311 0.00704591 0.23857
0.0363518 0.1 1.06799 0.973134 0.0070299 0.24534
0.350249 0.1 1.0125 0.984214 0.0115435 0.269577
0.350249 0.1 -1.0125 0.984122 0.0114771 0.214629
1.0579 0.1 -0.180262 0.847273 0.0361504 0.188993
1.0579 0.1 0.180262 0.841686 0.0380247 0.266796
1.02149 0.1 -0.332665 0.872143 0.0303748 0.167441
1.02149 0.1 0.332665 0.863489 0.0331108 0.293998
0.93886 0.1 -0.525 0.911544 0.0221016 0.159225
0.93886 0.1 0.525 0.903042 0.0245965 0.311778
1.08012 0.1 5.49329e-18 0.83131 0.040543 0.226372
1.04168 0.1 -0.291665 0.862251 0.0327406 0.170909
1.04168 0.1 0.291665 0.854056 0.0354283 0.288345
1.08012 0.1 0.0709941 0.831053 0.0407875 0.242774
1.08012 0.1 -0.0709941 0.833396 0.0399612 0.210194
0.969689 0.1 -0.4875 0.90147 0.0242547 0.156831
0.96969 0.1 0.4875 0.892121 0.0270641 0.311739
1.0579 0.1 0.252367 0.845859 0.0374352 0.281852
1.0579 0.1 -0.252367 0.853514 0.0348691 0.17522
0.990306 0.1 -0.45 0.893582 0.0258673 0.157969
0.990306 0.1 0.45 0.884079 0.0287738 0.308657
0.287374 0.1 -1.05 0.985216 0.0123036 0.219512
0.287374 0.1 1.05 0.985346 0.0123276 0.264694
0.714971 0.1 0.821002 0.959175 0.0142945 0.302301
1.08012 0.1 -0.141988 0.837299 0.0390372 0.194513
1.08012 0.1 0.141988 0.832648 0.0406812 0.259083
0.075776 0.1 1.0875 0.976269 0.0147968 0.249045
0.075776 0.1 -1.0875 0.976219 0.0148294 0.234932
0.714971 0.1 -0.825 0.962413 0.0133607 0.179554
0.756813 0.1 -0.7875 0.956978 0.0141434 0.174797
0.756814 0.1 0.7875 0.953297 0.015209 0.306192
0.67013 0.1 -0.8625 0.967417 0.0126315 0.184466
0.67013 0.1 0.8625 0.965324 0.013323 0.298202
0.797314 0.1 -0.75 0.950834 0.015171 0.170136
0.797314 0.1 0.75 0.946142 0.0164891 0.309687
0.623803 0.1 0.9 0.970085 0.0126566 0.293893
0.835106 0.1 -0.7125 0.944171 0.0162647 0.165658
0.835106 0.1 0.7125 0.93848 0.0178389 0.31283
0.623803 0.1 -0.903998 0.971277 0.0121605 0.189297
0.574156 0.1 0.9375 0.974474 0.0120331 0.289314
0.574156 0.1 -0.9375 0.975404 0.0116339 0.194375
1.02149 0.1 -0.406591 0.880537 0.028844 0.157071
1.02149 0.1 0.406591 0.870488 0.0320513 0.306309
1.08012 0.1 -0.212982 0.842923 0.0378022 0.179724
1.08012 0.1 0.212982 0.836023 0.0402334 0.274938
1.10076 0.1 -0.0349809 0.824315 0.0427908 0.217106
1.10076 0.1 0.0349809 0.823079 0.0432424 0.233905
0.871687 0.1 -0.675 0.936499 0.0175716 0.161461
0.871687 0.1 0.675 0.929747 0.0194618 0.31543
1.04168 0.1 -0.364581 0.870339 0.0311935 0.159403
1.04168 0.1 0.364581 0.86049 0.0344414 0.301627
1.10076 0.1 -0.104943 0.827366 0.0419944 0.200618
1.10076 0.1 0.104943 0.823764 0.0433301 0.250849
0.522865 0.1 0.975 0.977926 0.0116794 0.284669
0.522865 0.1 -0.975 0.978489 0.0113846 0.199304
1.0579 0.1 -0.324472 0.861177 0.0333399 0.162646