# UMean  POINT_DATA 63840
# x  y  z  UMean_x  UMean_y  UMean_z
0 0.5 3.39583e-17 0.970296 0 0.241922
0 0.5 -0.00617931 0.970296 0 0.241922
0 0.5 0.00617931 0.970296 0 0.241922
0.0124865 0.5 -0.00617931 0.970265 0.000906411 0.241906
0.0124865 0.5 0.00617931 0.970266 0.000906606 0.242024
0 0.5 -0.0688207 0.970296 0 0.241922
0 0.5 0.0688207 0.970296 0 0.241922
0.0124865 0.5 -0.0688207 0.970265 0.000906411 0.241906
0.0124865 0.5 0.0688207 0.970266 0.000906606 0.242024
0 0.5 -0.075 0.970296 0 0.241922
0 0.5 0.075 0.970296 0 0.241922
0 0.5 -0.0811793 0.970296 0 0.241922
0 0.5 0.0811793 0.970296 0 0.241922
0.0124865 0.5 -0.0811793 0.970264 0.000902919 0.241785
0.0124865 0.5 0.0811793 0.970266 0.000903375 0.242144
0.075776 0.5 -0.0375 0.970086 0.00549296 0.241824
0.075776 0.5 0.0375 0.970092 0.005494 0.242541
0.075776 0.5 -0.1125 0.970078 0.00547175 0.241094
0.075776 0.5 0.1125 0.97009 0.00547433 0.243264
0 0.5 -0.143821 0.970296 0 0.241922
0 0.5 0.143821 0.970296 0 0.241922
0.0124865 0.5 -0.143821 0.970264 0.000902919 0.241785
0.0124865 0.5 0.143821 0.970266 0.000903375 0.242144
0 0.5 -0.15 0.970296 0 0.241922
0 0.5 0.15 0.970296 0 0.241922
0.151149 0.5 -0.00137318 0.968916 0.00920058 0.242271
0 0.5 -0.156179 0.970296 0 0.241922
0 0.5 0.156179 0.970296 0 0.241922
0.0124865 0.5 -0.156179 0.970266 0.000895488 0.241666
0.0124865 0.5 0.156179 0.970268 0.000896459 0.24226
0.151149 0.5 0.075 0.968921 0.00921508 0.243511
0.151149 0.5 -0.075 0.968904 0.009204 0.240941
0.075776 0.5 -0.1875 0.97009 0.00542688 0.240379
0.075776 0.5 0.1875 0.970101 0.00543241 0.243966
0.151149 0.5 0.15 0.968953 0.00916859 0.244775
0.151149 0.5 -0.15 0.968928 0.00914618 0.239673
0 0.5 -0.218821 0.970296 0 0.241922
0 0.5 0.218821 0.970296 0 0.241922
0.0124865 0.5 -0.218821 0.970266 0.000895488 0.241666
0.0124865 0.5 0.218821 0.970268 0.000896459 0.24226
0.219992 0.5 0.0375 0.967811 0.0127205 0.243181
0.219993 0.5 -0.0375 0.967797 0.0127114 0.241353
0 0.5 -0.225 0.970296 0 0.241922
0 0.5 0.225 0.970296 0 0.241922
0 0.5 -0.231179 0.970296 0 0.241922
0 0.5 0.231179 0.970296 0 0.241922
0.0124865 0.5 -0.231179 0.970269 0.000884678 0.241553
0.0124865 0.5 0.231179 0.970271 0.000886094 0.242372
0.219992 0.5 0.1125 0.967847 0.0126829 0.244978
0.219993 0.5 -0.1125 0.967813 0.0126525 0.23956
0.151149 0.5 -0.225 0.968981 0.00905551 0.238443
0.151149 0.5 0.225 0.969011 0.00908758 0.246002
0.075776 0.5 -0.2625 0.970106 0.00536149 0.239698
0.075776 0.5 0.2625 0.970118 0.00536945 0.244641
0.288069 0.5 -0.00137318 0.964955 0.0161439 0.2422
0.219992 0.5 0.1875 0.967926 0.0125982 0.246743
0.219993 0.5 -0.1875 0.967884 0.0125494 0.237797
0 0.5 0.293821 0.970296 0 0.241922
0 0.5 -0.293821 0.970296 0 0.241922
0.0124865 0.5 -0.293821 0.970269 0.000884678 0.241553
0.0124865 0.5 0.293821 0.970271 0.000886094 0.242372
0.288069 0.5 -0.075 0.964954 0.0161181 0.239732
0.288069 0.5 0.075 0.964978 0.0161539 0.244505
0 0.5 -0.3 0.970296 0 0.241922
0 0.5 0.3 0.970296 0 0.241922
0 0.5 0.306179 0.970296 0 0.241922
0 0.5 -0.306179 0.970296 0 0.241922
0.0124865 0.5 -0.306179 0.970272 0.000870962 0.241447
0.0124865 0.5 0.306179 0.970275 0.000872535 0.242477
0.288069 0.5 -0.15 0.965052 0.0160071 0.237392
0.288069 0.5 0.15 0.96509 0.0160776 0.246857
0.151149 0.5 -0.3 0.969053 0.00893487 0.237272
0.151149 0.5 0.3 0.96909 0.00897402 0.247172
0.219992 0.5 -0.2625 0.967993 0.0124047 0.236106
0.219992 0.5 0.2625 0.968044 0.0124675 0.248439
0.075776 0.5 0.3375 0.970141 0.00528712 0.245276
0.075776 0.5 -0.3375 0.970124 0.00527847 0.239053
0.350249 0.5 -0.0375 0.962236 0.0193887 0.240502
0.350249 0.5 0.0375 0.96225 0.0194141 0.243445
0.288069 0.5 -0.225 0.96523 0.01584 0.235126
0.288069 0.5 0.225 0.965276 0.0159405 0.249143
0.350249 0.5 0.1125 0.962362 0.0193617 0.246363
0.350249 0.5 -0.1125 0.962326 0.0192854 0.237601
0 0.5 0.368821 0.970296 0 0.241922
0 0.5 -0.368821 0.970296 0 0.241922
0.0124865 0.5 -0.368821 0.970272 0.000870962 0.241447
0.0124865 0.5 0.368821 0.970275 0.000872535 0.242477
0 0.5 -0.375 0.970296 0 0.241922
0 0.5 0.375 0.970296 0 0.241922
0 0.5 -0.381179 0.970296 0 0.241922
0 0.5 0.381179 0.970296 0 0.241922
0.0124865 0.5 -0.381179 0.970276 0.000854751 0.241348
0.0124865 0.5 0.381179 0.97028 0.000856213 0.242574
0.350249 0.5 -0.1875 0.962534 0.0191106 0.234769
0.350249 0.5 0.1875 0.962577 0.0192334 0.24922
0.219992 0.5 -0.3375 0.968132 0.0122214 0.234505
0.219992 0.5 0.3375 0.968196 0.0122946 0.250046
0.151149 0.5 -0.375 0.969143 0.00878713 0.236172
0.151149 0.5 0.375 0.969189 0.00883076 0.248269
0.411736 0.5 -0.00137318 0.958184 0.0227347 0.241772
0.288069 0.5 -0.3 0.965475 0.0156203 0.232969
0.288069 0.5 0.3 0.96553 0.0157454 0.251327
0.411736 0.5 -0.075 0.958226 0.0226706 0.23813
0.411736 0.5 0.075 0.958236 0.0227474 0.24518
0.075776 0.5 -0.4125 0.970148 0.00518015 0.238452
0.075776 0.5 0.4125 0.97017 0.00518791 0.245864
0.350249 0.5 -0.2625 0.962847 0.0188701 0.232055
0.350249 0.5 0.2625 0.962895 0.0190322 0.251977
0.411736 0.5 -0.15 0.958458 0.0224913 0.234685
0.411736 0.5 0.15 0.958468 0.0226419 0.248664
0 0.5 -0.443821 0.970296 0 0.241922
0 0.5 0.443821 0.970296 0 0.241922
0.0124865 0.5 -0.443821 0.970276 0.000854751 0.241348
0.0124865 0.5 0.443821 0.97028 0.000856213 0.242574
0 0.5 -0.45 0.970296 0 0.241922
0 0.5 0.45 0.970296 0 0.241922
0 0.5 -0.456179 0.970296 0 0.241922
0 0.5 0.456179 0.970296 0 0.241922
0.0124865 0.5 -0.456179 0.970281 0.000836304 0.241257
0.0124865 0.5 0.456179 0.970286 0.000837383 0.242663
0.219992 0.5 -0.4125 0.968302 0.0120026 0.233013
0.219993 0.5 0.4125 0.968379 0.0120829 0.251542
0.411736 0.5 -0.225 0.958849 0.0222262 0.231359
0.411736 0.5 0.225 0.958849 0.0224436 0.252051
0.467897 0.5 0.0375 0.954306 0.0259348 0.243394
0.467897 0.5 -0.0375 0.954306 0.0258838 0.239288
0.288069 0.5 -0.375 0.96578 0.0153519 0.230948
0.288069 0.5 0.375 0.965846 0.0154969 0.25338
0.151149 0.5 -0.45 0.969251 0.0086145 0.235156
0.151149 0.5 0.45 0.969306 0.00866043 0.249281
0.467897 0.5 -0.1125 0.954513 0.0257198 0.235237
0.467897 0.5 0.1125 0.954506 0.0258713 0.247484
0.350249 0.5 0.3375 0.963308 0.0187621 0.25459
0.350249 0.5 -0.3375 0.963251 0.0185671 0.229496
0.075776 0.5 -0.4875 0.970177 0.00506806 0.237902
0.075776 0.5 0.4875 0.970204 0.00507328 0.246399
0.467897 0.5 -0.1875 0.954928 0.0254496 0.231306
0.467897 0.5 0.1875 0.954899 0.0256953 0.251488
0.411736 0.5 -0.3 0.959385 0.0218816 0.228206
0.411736 0.5 0.3 0.959374 0.0221573 0.255289
0 0.5 -0.518821 0.970296 0 0.241922
0 0.5 0.518821 0.970296 0 0.241922
0.0124865 0.5 0.518821 0.970286 0.000837383 0.242663
0.0124865 0.5 -0.518821 0.970281 0.000836304 0.241257
0.523432 0.5 -0.00137318 0.949297 0.0292217 0.241034
0 0.5 -0.525 0.970296 0 0.241922
0 0.5 0.525 0.970296 0 0.241922
0.523432 0.5 -0.075 0.949414 0.0291074 0.23617
0.523432 0.5 0.075 0.949377 0.0292446 0.245595
0 0.5 -0.531179 0.970296 0 0.241922
0 0.5 0.531179 0.970296 0 0.241922
0.0124865 0.5 -0.531179 0.970287 0.000815939 0.241175
0.0124865 0.5 0.531179 0.970292 0.000816352 0.242741
0.288069 0.5 -0.45 0.966141 0.0150384 0.229088
0.288069 0.5 0.45 0.966216 0.0151999 0.255276
0.219992 0.5 -0.4875 0.968499 0.0117501 0.231648
0.219993 0.5 0.4875 0.968586 0.0118355 0.25291
0.467897 0.5 -0.2625 0.955541 0.0250814 0.227545
0.467897 0.5 0.2625 0.955484 0.0254118 0.255351
0.350249 0.5 -0.4125 0.963742 0.018207 0.227124
0.350249 0.5 0.4125 0.963807 0.01843 0.257025
0.523432 0.5 -0.15 0.949837 0.0288427 0.231578
0.523432 0.5 0.15 0.949752 0.0291119 0.250266
0.151149 0.5 -0.525 0.969374 0.00841902 0.234235
0.151149 0.5 0.525 0.969435 0.00846546 0.250195
0.411736 0.5 -0.375 0.96005 0.0214635 0.225268
0.411736 0.5 0.375 0.960029 0.0217895 0.258332
0.075776 0.5 -0.5625 0.970211 0.00494396 0.237409
0.075776 0.5 0.5625 0.970243 0.00494512 0.246875
0.523432 0.5 -0.225 0.950522 0.0284574 0.227166
0.523432 0.5 0.225 0.950379 0.0288487 0.254806
0.574156 0.5 -0.0375 0.94451 0.0323406 0.23776
0.574156 0.5 0.0375 0.944477 0.0324272 0.243084
0.467897 0.5 0.3375 0.956247 0.0250274 0.259007
0.467897 0.5 -0.3375 0.956332 0.0246234 0.224024
0.574156 0.5 -0.1125 0.944876 0.0321026 0.232515
0.574156 0.5 0.1125 0.944771 0.0323587 0.2484
0 0.5 -0.593821 0.970296 0 0.241922
0 0.5 0.593821 0.970296 0 0.241922
0.0124865 0.5 -0.593821 0.970287 0.000815939 0.241175
0.0124865 0.5 0.593821 0.970292 0.000816352 0.242741
0.288069 0.5 -0.525 0.966549 0.0146836 0.227409
0.288069 0.5 0.525 0.966631 0.014859 0.256994
0 0.5 -0.6 0.970296 0 0.241922
0 0.5 0.6 0.970296 0 0.241922
0.350249 0.5 -0.4875 0.964307 0.0177942 0.224966
0.350249 0.5 0.4875 0.964378 0.0180418 0.259253
0.523432 0.5 -0.3 0.951452 0.027961 0.223
0.523432 0.5 0.3 0.951246 0.028462 0.259144
0.219992 0.5 -0.5625 0.968718 0.011467 0.230423
0.219992 0.5 0.5625 0.968813 0.0115555 0.254136
0.574156 0.5 -0.1875 0.945567 0.0317216 0.227439
0.574156 0.5 0.1875 0.945376 0.0321374 0.253607
0 0.5 -0.606179 0.970296 0 0.241922
0 0.5 0.606179 0.970296 0 0.241922
0.0124865 0.5 -0.606179 0.970293 0.000793965 0.241104
0.0124865 0.5 0.606179 0.970299 0.000793549 0.24281
0.411736 0.5 -0.45 0.960829 0.0209784 0.222581
0.411736 0.5 0.45 0.960798 0.0213485 0.261141
0.151149 0.5 -0.6 0.969509 0.00820329 0.233417
0.151149 0.5 0.6 0.969575 0.00824858 0.251004
0.62168 0.5 2.64545e-17 0.939027 0.0355363 0.240115
0.467897 0.5 0.4125 0.957169 0.024551 0.262414
0.467897 0.5 -0.4125 0.957281 0.0240827 0.22078
0.624316 0.5 0.0729402 0.938819 0.0357503 0.245808
0.624316 0.5 -0.075 0.938943 0.0355361 0.233902
0.574156 0.5 -0.2625 0.946571 0.0312071 0.222618
0.574157 0.5 0.2625 0.946285 0.0317693 0.258626
0.075776 0.5 -0.6375 0.97025 0.00480984 0.236975
0.075776 0.5 0.6375 0.970284 0.00480602 0.247288
0.624316 0.5 -0.15 0.939613 0.0351735 0.22812
0.624316 0.5 0.15 0.939356 0.0355943 0.251722
0.523432 0.5 -0.375 0.952599 0.0273632 0.219143
0.523432 0.5 0.375 0.952331 0.0279611 0.263215
0.350249 0.5 -0.5625 0.964931 0.0173345 0.223046
0.350249 0.5 0.5625 0.965007 0.0176037 0.261251
0.624316 0.5 -0.225 0.940673 0.0346528 0.222586
0.624316 0.5 0.225 0.940272 0.0352666 0.257469
0.288069 0.5 0.6 0.967079 0.0144788 0.258518
0.288069 0.5 -0.6 0.966993 0.0142923 0.225927
0.574156 0.5 -0.3375 0.947858 0.0305717 0.218116
0.574156 0.5 0.3375 0.947475 0.0312646 0.263379
0.411736 0.5 -0.525 0.961704 0.0204333 0.220175
0.411736 0.5 0.525 0.961663 0.0208426 0.263683
0 0.5 -0.668821 0.970296 0 0.241922
0 0.5 0.668821 0.970296 0 0.241922
0.0124865 0.5 -0.668821 0.970293 0.000793965 0.241104
0.0124865 0.5 0.668821 0.970299 0.000793549 0.24281
0.67013 0.5 0.0375 0.933113 0.0389584 0.242573
0.67013 0.5 -0.0375 0.9332 0.0388298 0.235973
0.219993 0.5 -0.6375 0.968954 0.0111569 0.22935
0.219993 0.5 0.6375 0.969053 0.0112463 0.255209
0 0.5 -0.675 0.970296 0 0.241922
0 0.5 0.675 0.970296 0 0.241922
0.467897 0.5 0.4875 0.958229 0.0239935 0.265525
0.467897 0.5 -0.4875 0.958366 0.0234679 0.217855
0.67013 0.5 -0.1125 0.933769 0.0385084 0.229485
0.67013 0.5 0.1125 0.933504 0.0388897 0.249171
0 0.5 -0.681179 0.970296 0 0.241922
0 0.5 0.681179 0.970296 0 0.241922
0.0124865 0.5 -0.681179 0.9703 0.000770756 0.241042
0.0124865 0.5 0.681179 0.970306 0.000769414 0.242867
0.523432 0.5 -0.45 0.953933 0.0266739 0.215643
0.523432 0.5 0.45 0.953607 0.0273575 0.266966
0.151149 0.5 -0.675 0.969654 0.00797046 0.232708
0.151149 0.5 0.675 0.969722 0.00801299 0.251701
0.624316 0.5 -0.3 0.942096 0.0339863 0.217385
0.624316 0.5 0.3 0.941547 0.0347763 0.262959
0.67013 0.5 0.1875 0.934352 0.0386253 0.255639
0.67013 0.5 -0.1875 0.93481 0.0380041 0.223226
0.574156 0.5 -0.4125 0.949389 0.0298259 0.214004
0.574157 0.5 0.4125 0.948914 0.0306345 0.26779
0.708171 0.5 1.88651e-17 0.927799 0.0417312 0.239247
0.075776 0.5 -0.7125 0.970293 0.00466793 0.236603
0.075776 0.5 0.7125 0.970329 0.00465861 0.247637
0.715434 0.5 0.0736268 0.927069 0.0422308 0.246056
0.715434 0.5 -0.075 0.92718 0.0419954 0.231373
0.67013 0.5 0.2625 0.935638 0.0381721 0.261868
0.67013 0.5 -0.2625 0.936293 0.0373288 0.217304
0.350249 0.5 -0.6375 0.965601 0.0168345 0.221377
0.350249 0.5 0.6375 0.965677 0.0171215 0.263001
0.411736 0.5 -0.6 0.962651 0.0198365 0.218072
0.411736 0.5 0.6 0.962601 0.0202796 0.265935
0.624316 0.5 -0.375 0.943839 0.0331878 0.212598
0.624316 0.5 0.375 0.943146 0.0341356 0.268101
0.715434 0.5 -0.15 0.928152 0.0415245 0.224351
0.715434 0.5 0.15 0.927643 0.0421227 0.253088
0.467897 0.5 -0.5625 0.959558 0.0227883 0.215278
0.467897 0.5 0.5625 0.959398 0.0233649 0.268308
0.288069 0.5 -0.675 0.967463 0.0138703 0.224652
0.288069 0.5 0.675 0.96755 0.0140645 0.259835
0.523432 0.5 -0.525 0.95542 0.0259043 0.212539
0.523432 0.5 0.525 0.955043 0.0266639 0.270353
0 0.5 -0.743821 0.970296 0 0.241922
0 0.5 0.743821 0.970296 0 0.241922
0.0124865 0.5 -0.743821 0.9703 0.000770756 0.241042
0.0124865 0.5 0.743821 0.970306 0.000769414 0.242867
0.219992 0.5 0.7125 0.9693 0.0109119 0.256122
0.219992 0.5 -0.7125 0.9692 0.0108243 0.228434
0.715434 0.5 -0.225 0.929663 0.0408556 0.217652
0.715434 0.5 0.225 0.928887 0.0417308 0.260098
0 0.5 -0.75 0.970296 0 0.241922
0 0.5 0.75 0.970296 0 0.241922
0.67013 0.5 0.3375 0.93733 0.0375427 0.267766
0.67013 0.5 -0.3375 0.93818 0.0364977 0.211802
0.574156 0.5 -0.4875 0.951126 0.0289828 0.210329
0.574156 0.5 0.4875 0.950568 0.0298941 0.271812
0 0.5 -0.756179 0.970296 0 0.241922
0 0.5 0.756179 0.970296 0 0.241922
0.0124865 0.5 -0.756179 0.970308 0.000746668 0.240992
0.0124865 0.5 0.756179 0.970314 0.000744326 0.242914
0.756813 0.5 -0.0375 0.92076 0.0453576 0.233973
0.756813 0.5 0.0375 0.920599 0.0455344 0.241906
0.151149 0.5 -0.75 0.969804 0.00772413 0.232112
0.151149 0.5 0.75 0.969872 0.00776238 0.252284
0.756813 0.5 -0.1125 0.921574 0.0449441 0.226185
0.756813 0.5 0.1125 0.921091 0.0454686 0.249846
0.624316 0.5 -0.45 0.945854 0.0322718 0.208291
0.624316 0.5 0.45 0.945026 0.0333593 0.272825
0.715434 0.5 -0.3 0.931671 0.0400038 0.211389
0.715434 0.5 0.3 0.930628 0.0411341 0.266788
0.756813 0.5 0.1875 0.922207 0.0451619 0.257634
0.756813 0.5 -0.1875 0.923025 0.0443052 0.218693
0.67013 0.5 -0.4125 0.940415 0.0355277 0.206817
0.67013 0.5 0.4125 0.939377 0.0367519 0.273217
0.411736 0.5 -0.675 0.963648 0.019197 0.216285
0.411736 0.5 0.675 0.96359 0.0196675 0.267878
0.467897 0.5 0.6375 0.960648 0.0226744 0.270738
0.467897 0.5 -0.6375 0.960826 0.0220545 0.213068
0.075776 0.5 -0.7875 0.970338 0.00452045 0.236295
0.075776 0.5 0.7875 0.970373 0.00450544 0.24792
0.350249 0.5 -0.7125 0.966299 0.016302 0.21997
0.350249 0.5 0.7125 0.966375 0.0166019 0.264493
0.523432 0.5 -0.6 0.957021 0.025067 0.209858
0.523432 0.5 0.6 0.956601 0.025892 0.27334
0.797732 0.5 2.68882e-17 0.913863 0.0488083 0.237188
0.756813 0.5 -0.2625 0.92507 0.0434561 0.211623
0.756814 0.5 0.2625 0.923915 0.044622 0.26513
0.797732 0.5 0.0736268 0.914099 0.0488521 0.246132
0.797732 0.5 -0.075 0.914446 0.0484748 0.228628
0.288069 0.5 -0.75 0.967947 0.0134239 0.22359
0.288069 0.5 0.75 0.968034 0.0136219 0.260939
0.574156 0.5 -0.5625 0.953023 0.0280563 0.207129
0.574157 0.5 0.5625 0.952393 0.0290575 0.275395
0.715434 0.5 -0.375 0.934118 0.0389871 0.205661
0.715434 0.5 0.375 0.932819 0.0403479 0.273047
0.797732 0.5 -0.15 0.91577 0.0478871 0.220315
0.797732 0.5 0.15 0.914934 0.0486826 0.254408
0.624316 0.5 -0.525 0.948086 0.031254 0.204511
0.624316 0.5 0.525 0.947141 0.0324644 0.277077
0.219992 0.5 -0.7875 0.969453 0.0104744 0.227678
0.219992 0.5 0.7875 0.969552 0.0105576 0.256873
0 0.5 -0.818821 0.970296 0 0.241922
0 0.5 0.818821 0.970296 0 0.241922
0.0124865 0.5 0.818821 0.970314 0.000744326 0.242914
0.0124865 0.5 -0.818821 0.970308 0.000746668 0.240992
0 0.5 -0.825 0.970296 0 0.241922
0 0.5 0.825 0.970296 0 0.241922
0.756813 0.5 0.3375 0.926173 0.0438634 0.272209
0.756814 0.5 -0.3375 0.927657 0.0424142 0.205116
0.67013 0.5 -0.4875 0.942934 0.0344356 0.202402
0.67013 0.5 0.4875 0.941725 0.0358181 0.278179
0.797732 0.5 -0.225 0.917804 0.0470595 0.21241
0.797732 0.5 0.225 0.91654 0.0482259 0.262736
0 0.5 -0.831179 0.970296 0 0.241922
0 0.5 0.831179 0.970296 0 0.241922
0.0124865 0.5 -0.831179 0.970315 0.000722027 0.240951
0.0124865 0.5 0.831179 0.97032 0.000718816 0.24295
0.835106 0.5 0.0375 0.907204 0.0521243 0.24113
0.835106 0.5 -0.0375 0.907458 0.0518953 0.231807
0.151149 0.5 -0.825 0.969956 0.00746809 0.231629
0.151149 0.5 0.825 0.970024 0.00750096 0.252751
0.835106 0.5 0.1125 0.907796 0.0520634 0.250468
0.835106 0.5 -0.1125 0.908553 0.0513839 0.222667
0.715434 0.5 -0.45 0.936932 0.037825 0.200548
0.715434 0.5 0.45 0.935394 0.0393905 0.278777
0.797732 0.5 -0.3 0.920487 0.0460098 0.205058
0.797732 0.5 0.3 0.9188 0.0475202 0.270671
0.467897 0.5 0.7125 0.961949 0.0219319 0.272801
0.467897 0.5 -0.7125 0.96214 0.0212778 0.211234
0.523432 0.5 -0.675 0.958694 0.024175 0.207615
0.523432 0.5 0.675 0.958243 0.0250538 0.275907
0.411736 0.5 -0.75 0.964671 0.0185244 0.214818
0.411736 0.5 0.75 0.964607 0.0190149 0.269504
0.835106 0.5 -0.1875 0.910476 0.0506024 0.213893
0.835106 0.5 0.1875 0.909204 0.0517146 0.259628
0.574156 0.5 -0.6375 0.955028 0.0270617 0.204425
0.574157 0.5 0.6375 0.954343 0.0281386 0.278508
0.350249 0.5 -0.7875 0.967011 0.0157449 0.218826
0.350249 0.5 0.7875 0.967085 0.0160523 0.265721
0.756813 0.5 -0.4125 0.930703 0.041202 0.199245
0.756814 0.5 0.4125 0.928908 0.0429052 0.278763
0.075776 0.5 -0.8625 0.970381 0.00436957 0.23605
0.075776 0.5 0.8625 0.970416 0.00434935 0.248139
0.624316 0.5 0.6 0.949434 0.0314677 0.280809
0.624316 0.5 -0.6 0.950474 0.0301518 0.20129
0.872064 0.5 5.91974e-17 0.900317 0.055306 0.235666
0.870122 0.5 0.075 0.900941 0.0552052 0.246147
0.288069 0.5 -0.825 0.968437 0.0129599 0.222738
0.288069 0.5 0.825 0.968522 0.0131577 0.261829
0.67013 0.5 -0.5625 0.945667 0.0332406 0.198605
0.67013 0.5 0.5625 0.944318 0.0347609 0.282575
0.872064 0.5 -0.075 0.901094 0.0548962 0.225717
0.835106 0.5 -0.2625 0.913168 0.049569 0.205657
0.835106 0.5 0.2625 0.911377 0.0510867 0.268441
0.797732 0.5 -0.375 0.923737 0.0447602 0.198374
0.797732 0.5 0.375 0.921652 0.0465836 0.278085
0.872064 0.5 0.14794 0.901592 0.0551924 0.255701
0.872064 0.5 -0.15 0.90281 0.0541868 0.21607
0.715434 0.5 -0.525 0.940031 0.0365383 0.196109
0.715434 0.5 0.525 0.938286 0.0382833 0.283909
0.219992 0.5 0.8625 0.969805 0.0101895 0.257462
0.219993 0.5 -0.8625 0.969708 0.0101126 0.227081
0 0.5 -0.893821 0.970296 0 0.241922
0 0.5 0.893821 0.970296 0 0.241922
0.0124865 0.5 -0.893821 0.970315 0.000722027 0.240951
0.0124865 0.5 0.893821 0.97032 0.000718816 0.24295
0 0.5 -0.9 0.970296 0 0.241922
0 0.5 0.9 0.970296 0 0.241922
0.756813 0.5 -0.4875 0.934116 0.039841 0.194099
0.756813 0.5 0.4875 0.932043 0.041768 0.284669
0.872064 0.5 -0.225 0.905425 0.0531941 0.206924
0.872064 0.5 0.225 0.903587 0.0546719 0.265389
0.835106 0.5 -0.3375 0.916545 0.0483045 0.198108
0.835106 0.5 0.3375 0.914258 0.0501956 0.276741
0 0.5 0.906179 0.970296 0 0.241922
0 0.5 -0.906179 0.970296 0 0.241922
0.0124865 0.5 -0.906179 0.970321 0.000697317 0.240921
0.0124865 0.5 0.906179 0.970326 0.000693213 0.242976
0.90582 0.5 -0.0375 0.893743 0.0583141 0.229519
0.90582 0.5 0.0375 0.893386 0.0585976 0.240269
0.151149 0.5 -0.9 0.970108 0.00720641 0.231256
0.151149 0.5 0.9 0.970174 0.00723323 0.253106
0.90582 0.5 -0.1125 0.895136 0.0577021 0.218988
0.905821 0.5 0.1125 0.894084 0.0585437 0.251045
0.523432 0.5 -0.75 0.9604 0.023242 0.205812
0.523432 0.5 0.75 0.95993 0.0241618 0.278041
0.574156 0.5 -0.7125 0.957091 0.0260148 0.202225
0.574156 0.5 0.7125 0.95637 0.0271521 0.281133
0.797732 0.5 -0.45 0.927455 0.0433358 0.192453
0.797732 0.5 0.45 0.925006 0.0454379 0.284849
0.467897 0.5 0.7875 0.963273 0.0211477 0.274491
0.467897 0.5 -0.7875 0.96347 0.0204695 0.209774
0.624316 0.5 -0.675 0.952955 0.0289834 0.198642
0.624316 0.5 0.675 0.951847 0.0303858 0.283995
0.411736 0.5 -0.825 0.965698 0.0178285 0.213668
0.411736 0.5 0.825 0.965632 0.0183309 0.270811
0.872064 0.5 0.3 0.906408 0.0538573 0.274609
0.872064 0.5 -0.3 0.908854 0.0519397 0.198451
0.67013 0.5 -0.6375 0.948541 0.0319633 0.195449
0.67013 0.5 0.6375 0.947083 0.0335993 0.286373
0.90582 0.5 0.1875 0.8958 0.0581551 0.261614
0.905821 0.5 -0.1875 0.897573 0.0567747 0.208896
0.350249 0.5 -0.8625 0.967722 0.0151714 0.217939
0.350249 0.5 0.8625 0.967795 0.0154806 0.266687
0.835106 0.5 -0.4125 0.920499 0.046836 0.191343
0.835106 0.5 0.4125 0.91776 0.0490643 0.284414
0.715434 0.5 -0.6 0.943329 0.0351499 0.19238
0.715434 0.5 0.6 0.94142 0.0370487 0.288392
0.939201 0.5 2.75387e-17 0.886168 0.0618782 0.234059
0.075776 0.5 0.9375 0.970453 0.00419254 0.248296
0.075776 0.5 -0.9375 0.970421 0.00421772 0.235866
0.939111 0.5 0.075 0.886394 0.0620039 0.246558
0.939201 0.5 -0.075 0.887164 0.061386 0.222651
0.756813 0.5 0.5625 0.935499 0.0404785 0.289892
0.756814 0.5 -0.5625 0.937803 0.0383566 0.189729
0.90582 0.5 0.2625 0.898468 0.0574414 0.271775
0.905821 0.5 -0.2625 0.900959 0.0555534 0.19946
0.288069 0.5 -0.9 0.968924 0.0124848 0.222092
0.288069 0.5 0.9 0.969008 0.0126791 0.262508
0.872064 0.5 -0.375 0.912987 0.0504496 0.190797
0.872064 0.5 0.375 0.909975 0.0527691 0.283203
0.939201 0.5 0.148627 0.887723 0.0617486 0.257229
0.939201 0.5 -0.15 0.889316 0.0605442 0.211601
0.797732 0.5 -0.525 0.931534 0.0417635 0.187371
0.797732 0.5 0.525 0.928768 0.0441092 0.290872
0.219992 0.5 0.9375 0.970059 0.00981433 0.257893
0.219992 0.5 -0.9375 0.969965 0.00974499 0.226637
0.939201 0.5 -0.225 0.892579 0.0593718 0.201154
0.939201 0.5 0.225 0.890061 0.0611857 0.268162
0.905821 0.5 -0.3375 0.905191 0.0540636 0.190832
0.90582 0.5 0.3375 0.902008 0.0564207 0.281331
0.835106 0.5 -0.4875 0.924917 0.0451927 0.185475
0.835106 0.5 0.4875 0.921772 0.0477174 0.291291
0 0.5 0.968821 0.970296 0 0.241922
0 0.5 -0.968821 0.970296 0 0.241922
0.0124865 0.5 -0.968821 0.970321 0.000697317 0.240921
0.0124865 0.5 0.968821 0.970326 0.000693213 0.242976
0.969689 0.5 -0.0375 0.879265 0.0649896 0.227113
0.969689 0.5 0.0375 0.878765 0.0653336 0.239391
0.574156 0.5 -0.7875 0.959164 0.024931 0.200521
0.574156 0.5 0.7875 0.958427 0.0261122 0.283265
0 0.5 -0.975 0.970296 0 0.241922
0 0.5 0.975 0.970296 0 0.241922
0.624316 0.5 -0.75 0.955468 0.0277668 0.196566
0.624316 0.5 0.75 0.954323 0.0292359 0.286623
0.969689 0.5 -0.1125 0.880989 0.0642632 0.215088
0.96969 0.5 0.1125 0.879567 0.0652838 0.251713
0.523432 0.5 -0.825 0.9621 0.0222811 0.204438
0.523432 0.5 0.825 0.961627 0.0232285 0.279743
0.67013 0.5 0.7125 0.949952 0.032353 0.28955
0.67013 0.5 -0.7125 0.951478 0.0306242 0.192939
0 0.5 -0.981179 0.970296 0 0.241922
0 0.5 0.981179 0.970296 0 0.241922
0.467897 0.5 0.8625 0.964593 0.0203324 0.275811
0.467897 0.5 -0.8625 0.964788 0.0196406 0.208678
0.0124865 0.5 -0.981179 0.970326 0.000672573 0.2409
0.0124865 0.5 0.981179 0.970331 0.000667694 0.242992
0.872064 0.5 -0.45 0.917697 0.0487548 0.184075
0.872064 0.5 0.45 0.914178 0.0514331 0.291023
0.715434 0.5 -0.675 0.946738 0.0336838 0.189377
0.715434 0.5 0.675 0.944711 0.0357086 0.292191
0.939201 0.5 -0.3 0.89683 0.0578945 0.191512
0.939201 0.5 0.3 0.893488 0.0602526 0.27872
0.151149 0.5 0.975 0.970323 0.00696256 0.253353
0.151149 0.5 -0.975 0.97026 0.00694213 0.230989
0.969689 0.5 -0.1875 0.884027 0.0631675 0.203584
0.969689 0.5 0.1875 0.881614 0.0648447 0.263788
0.756813 0.5 -0.6375 0.941658 0.0367751 0.186162
0.756813 0.5 0.6375 0.939178 0.0390611 0.29437
0.411736 0.5 -0.9 0.966708 0.0171181 0.212822
0.411736 0.5 0.9 0.966646 0.0176249 0.271805
0.90582 0.5 -0.4125 0.910127 0.0523367 0.183193
0.90582 0.5 0.4125 0.906324 0.0551178 0.290135
0.995005 0.5 0.0749309 0.873751 0.0673835 0.246449
0.797732 0.5 -0.6 0.935856 0.0400723 0.183167
0.797732 0.5 0.6 0.932834 0.0426264 0.296105
1.00005 0.5 -8.47123e-18 0.872328 0.067707 0.232431
0.350249 0.5 -0.9375 0.96842 0.0145884 0.217299
0.350249 0.5 0.9375 0.968492 0.0148951 0.267397
1.00005 0.5 -0.0749309 0.873545 0.067143 0.21965
0.969689 0.5 -0.2625 0.888194 0.0617294 0.192873
0.969689 0.5 0.2625 0.884825 0.064027 0.275379
0.835106 0.5 -0.5625 0.929669 0.043406 0.180555
0.835106 0.5 0.5625 0.926178 0.0461872 0.297342
1.00005 0.5 -0.149862 0.876143 0.0661898 0.207267
0.939201 0.5 -0.375 0.901935 0.0561434 0.182846
0.939201 0.5 0.375 0.897831 0.0590001 0.288533
1.00029 0.5 0.148988 0.874178 0.0675665 0.258407
0.075776 0.5 -1.0125 0.970453 0.00406619 0.235741
0.075776 0.5 1.0125 0.970483 0.00403643 0.248394
0.288069 0.5 0.975 0.969484 0.0121922 0.262986
0.288069 0.5 -0.975 0.969402 0.0120036 0.221641
0.872064 0.5 -0.525 0.922841 0.046888 0.178363
0.872064 0.5 0.525 0.918883 0.0498804 0.297951
1.00005 0.5 0.224793 0.876853 0.0669874 0.270667
1.00005 0.5 -0.224793 0.88007 0.064868 0.195583
0.969689 0.5 0.3375 0.889097 0.062852 0.286255
0.96969 0.5 -0.3375 0.893387 0.0599786 0.183119
1.0271 0.5 -0.0368226 0.865446 0.0706693 0.224885
1.0271 0.5 0.0368226 0.864839 0.0710536 0.238311
0.90582 0.5 0.4875 0.911271 0.0535632 0.298017
0.905821 0.5 -0.4875 0.915616 0.050408 0.17661
1.0271 0.5 -0.110468 0.867455 0.0698799 0.211721
1.0271 0.5 0.110468 0.86528 0.0713096 0.254934
0.67013 0.5 0.7875 0.952858 0.031041 0.292102
0.67013 0.5 -0.7875 0.954411 0.0292441 0.19106
0.624316 0.5 0.825 0.956806 0.0280348 0.288694
0.624316 0.5 -0.825 0.957956 0.0265196 0.195043
0.219993 0.5 -1.0125 0.970227 0.0093738 0.226337
0.219993 0.5 1.0125 0.970319 0.00943487 0.258179
0.574156 0.5 -0.8625 0.961202 0.0238249 0.199296
0.574156 0.5 0.8625 0.960472 0.0250337 0.284909
0.715434 0.5 -0.75 0.950169 0.0321634 0.18709
0.715434 0.5 0.75 0.94808 0.0342849 0.295294
0.756813 0.5 0.7125 0.942987 0.0375397 0.298085
0.756814 0.5 -0.7125 0.945579 0.0351243 0.183398
0.523432 0.5 -0.9 0.963759 0.0213044 0.203475
0.523432 0.5 0.9 0.963299 0.0222663 0.281022
0.939201 0.5 -0.45 0.907727 0.0541557 0.175288
0.939201 0.5 0.45 0.902954 0.0574586 0.297438
1.04168 0.5 0 0.861063 0.072517 0.231133
1.0271 0.5 -0.184113 0.870984 0.0686988 0.199107
1.0271 0.5 0.184113 0.868052 0.0705798 0.265037
0 0.5 -1.04382 0.970296 0 0.241922
0 0.5 1.04382 0.970296 0 0.241922
0.0124865 0.5 -1.04382 0.970326 0.000672573 0.2409
0.0124865 0.5 1.04382 0.970331 0.000667694 0.242992
1.00005 0.5 -0.299723 0.885162 0.0632063 0.184826
1.00005 0.5 0.299723 0.8809 0.0659666 0.282494
1.04168 0.5 -0.0729162 0.862413 0.0719172 0.217546
1.04168 0.5 0.0729162 0.86119 0.0727012 0.24489
0.797732 0.5 -0.675 0.940298 0.0382913 0.179855
0.797732 0.5 0.675 0.937098 0.0410167 0.300504
0.467897 0.5 0.9375 0.965883 0.0194965 0.276773
0.467897 0.5 -0.9375 0.966067 0.0188004 0.207927
0 0.5 -1.05 0.970296 0 0.241922
0 0.5 1.05 0.970296 0 0.241922
0.835106 0.5 -0.6375 0.934621 0.0415085 0.176615
0.835106 0.5 0.6375 0.93086 0.0445051 0.30249
1.04168 0.5 -0.145832 0.865262 0.0709141 0.204355
1.04168 0.5 0.145832 0.862822 0.0724675 0.258559
0.969689 0.5 -0.4125 0.899413 0.057953 0.174512
0.96969 0.5 0.4125 0.894313 0.0613477 0.296231
0 0.5 -1.05618 0.970296 0 0.241922
0 0.5 1.05618 0.970296 0 0.241922
0.0124865 0.5 -1.05618 0.97033 0.000648602 0.240888
0.0124865 0.5 1.05618 0.970334 0.000643219 0.242999
1.05695 0.5 -0.0360764 0.85736 0.0739355 0.223628
1.05695 0.5 0.0360764 0.856683 0.0743411 0.237604
0.411736 0.5 -0.975 0.967682 0.0164003 0.212263
0.411736 0.5 0.975 0.967627 0.0169059 0.272498
0.872064 0.5 -0.6 0.928269 0.0448839 0.173711
0.872064 0.5 0.6 0.923953 0.048146 0.303926
1.0271 0.5 -0.257759 0.875807 0.0671532 0.187369
1.0271 0.5 0.257759 0.871717 0.0697366 0.277752
0.151149 0.5 -1.05 0.970411 0.00667791 0.230821
0.151149 0.5 1.05 0.970469 0.00669185 0.253499
1.05695 0.5 0.108229 0.856789 0.0746565 0.251998
1.05695 0.5 -0.108229 0.859484 0.0731156 0.209898
1.04168 0.5 -0.218749 0.869558 0.069528 0.191897
1.04168 0.5 0.218749 0.865873 0.0718232 0.27183
0.90582 0.5 -0.5625 0.921494 0.0483124 0.171153
0.905821 0.5 0.5625 0.91669 0.0517938 0.304887
1.00005 0.5 -0.374654 0.891261 0.0612398 0.175187
1.00005 0.5 0.374654 0.886028 0.0645896 0.293469
0.350249 0.5 1.0125 0.969159 0.0143016 0.267867
0.350249 0.5 -1.0125 0.969089 0.0139995 0.216887
1.05695 0.5 -0.180382 0.863215 0.071896 0.196717
1.05695 0.5 0.180382 0.859963 0.0738858 0.265491
1.07319 0.5 0.0709442 0.852396 0.0762783 0.247467
0.939201 0.5 -0.525 0.914034 0.0519701 0.168941
0.939201 0.5 0.525 0.908685 0.0556644 0.305297
1.0271 0.5 -0.331404 0.881813 0.0652725 0.176673
1.0271 0.5 0.331404 0.876599 0.0685138 0.289703
1.08112 0.5 3.23815e-17 0.849848 0.0769478 0.229817
1.04168 0.5 -0.291665 0.87512 0.0677864 0.180418
1.04168 0.5 0.291665 0.870237 0.0707837 0.284453
1.08112 0.5 -0.0709442 0.851319 0.0763171 0.215488
0.969689 0.5 -0.4875 0.90609 0.0556954 0.167138
0.96969 0.5 0.4875 0.900293 0.0595522 0.305152
1.05695 0.5 0.252535 0.863756 0.0730394 0.278772
1.05695 0.5 -0.252535 0.868283 0.070303 0.184472
0.288069 0.5 -1.05 0.969865 0.0115189 0.22137
0.288069 0.5 1.05 0.969944 0.0117001 0.263276
0.075776 0.5 -1.0875 0.97048 0.00391789 0.235669
0.075776 0.5 1.0875 0.970505 0.00388533 0.248439
1.08112 0.5 -0.141888 0.854372 0.0752739 0.201549
1.08145 0.5 0.140165 0.851929 0.0768263 0.259161
0.715434 0.5 0.825 0.95145 0.0327995 0.297705
0.715434 0.5 -0.825 0.953546 0.0306115 0.185488
0.756813 0.5 0.7875 0.946835 0.0359392 0.301031
0.756814 0.5 -0.7875 0.949469 0.0334293 0.181409
0.67013 0.5 -0.8625 0.957275 0.0278421 0.189782
0.67013 0.5 0.8625 0.955738 0.0296825 0.294039
0.797732 0.5 -0.75 0.944742 0.0364502 0.177415
0.797732 0.5 0.75 0.941455 0.0393074 0.304058
0.624316 0.5 -0.9 0.960369 0.0252581 0.194044
0.624316 0.5 0.9 0.959246 0.0267993 0.290223
1.00005 0.5 -0.449585 0.898168 0.059009 0.166831
1.00005 0.5 0.449585 0.892078 0.0628895 0.303414
0.835106 0.5 -0.7125 0.939614 0.0395297 0.17365
0.835106 0.5 0.7125 0.935703 0.0427002 0.30672
0.574156 0.5 -0.9375 0.963166 0.0227095 0.19852
0.574157 0.5 0.9375 0.962466 0.0239305 0.286084
1.10076 0.5 -0.0349809 0.844305 0.0790198 0.221751
1.10076 0.5 0.0349809 0.843544 0.0794521 0.236573
1.08112 0.5 -0.212832 0.858952 0.0738385 0.18837
1.08112 0.5 0.212832 0.854793 0.076295 0.272786
0.872064 0.5 -0.675 0.933823 0.0427796 0.170138
0.872064 0.5 0.675 0.929255 0.0462624 0.308907
1.04168 0.5 -0.364581 0.881791 0.0657252 0.170114
1.04168 0.5 0.364581 0.875778 0.0693733 0.296191
1.0271 0.5 0.405049 0.882555 0.0669388 0.300678