# Force coefficients
# liftDir     : (0.000000e+00 0.000000e+00 1.000000e+00)
# dragDir     : (1.000000e+00 0.000000e+00 0.000000e+00)
# pitchAxis   : (0.000000e+00 1.000000e+00 0.000000e+00)
# magUInf     : 1.000000e+00
# lRef        : 1.000000e+00
# Aref        : 1.000000e+00
# CofR        : (7.500000e+00 0.000000e+00 0.000000e+00)
#
# Time        	Cm            	Cd            	Cl            	Cl(f)         	Cl(r)         
69.0005       	-2.016805e-02	4.800125e-01	-4.661048e-01	-2.532204e-01	-2.128843e-01
69.001        	-2.018183e-02	4.800868e-01	-4.659519e-01	-2.531578e-01	-2.127941e-01
69.0015       	-2.025278e-02	4.800922e-01	-4.659368e-01	-2.532212e-01	-2.127156e-01
69.002        	-2.031319e-02	4.804164e-01	-4.659535e-01	-2.532900e-01	-2.126636e-01
69.0025       	-2.040549e-02	4.807114e-01	-4.659815e-01	-2.533962e-01	-2.125853e-01
69.003        	-2.047138e-02	4.811514e-01	-4.660255e-01	-2.534841e-01	-2.125413e-01
69.0035       	-2.056532e-02	4.814338e-01	-4.661421e-01	-2.536364e-01	-2.125058e-01
69.004        	-2.057542e-02	4.816021e-01	-4.661201e-01	-2.536354e-01	-2.124846e-01
69.0045       	-2.060829e-02	4.815128e-01	-4.662138e-01	-2.537152e-01	-2.124986e-01
69.005        	-2.061046e-02	4.816934e-01	-4.663228e-01	-2.537719e-01	-2.125509e-01
69.0055       	-2.071890e-02	4.818428e-01	-4.665306e-01	-2.539842e-01	-2.125464e-01
69.006        	-2.075588e-02	4.821204e-01	-4.665313e-01	-2.540215e-01	-2.125098e-01
69.0065       	-2.091920e-02	4.824021e-01	-4.666477e-01	-2.542430e-01	-2.124046e-01
69.007        	-2.093538e-02	4.828610e-01	-4.665311e-01	-2.542009e-01	-2.123302e-01
69.0075       	-2.100768e-02	4.830330e-01	-4.666670e-01	-2.543412e-01	-2.123258e-01
69.008        	-2.092277e-02	4.831408e-01	-4.667500e-01	-2.542977e-01	-2.124522e-01
69.0085       	-2.100632e-02	4.832664e-01	-4.668975e-01	-2.544551e-01	-2.124425e-01
69.009        	-2.103547e-02	4.834985e-01	-4.667518e-01	-2.544114e-01	-2.123404e-01
69.0095       	-2.114255e-02	4.834889e-01	-4.668006e-01	-2.545429e-01	-2.122578e-01
69.01         	-2.123668e-02	4.838819e-01	-4.668921e-01	-2.546828e-01	-2.122094e-01
69.0105       	-2.132921e-02	4.839509e-01	-4.670298e-01	-2.548441e-01	-2.121857e-01
69.011        	-2.139898e-02	4.842539e-01	-4.671522e-01	-2.549751e-01	-2.121771e-01
69.0115       	-2.139810e-02	4.841373e-01	-4.670906e-01	-2.549434e-01	-2.121472e-01
69.012        	-2.143524e-02	4.845546e-01	-4.673179e-01	-2.550942e-01	-2.122237e-01
69.0125       	-2.146668e-02	4.845750e-01	-4.672626e-01	-2.550980e-01	-2.121646e-01
69.013        	-2.156163e-02	4.849936e-01	-4.673921e-01	-2.552577e-01	-2.121344e-01
69.0135       	-2.165682e-02	4.850654e-01	-4.673232e-01	-2.553184e-01	-2.120048e-01
69.014        	-2.174647e-02	4.854366e-01	-4.673569e-01	-2.554249e-01	-2.119320e-01
69.0145       	-2.181945e-02	4.853667e-01	-4.674162e-01	-2.555276e-01	-2.118887e-01
69.015        	-2.185387e-02	4.854800e-01	-4.675016e-01	-2.556047e-01	-2.118969e-01
69.0155       	-2.191878e-02	4.855065e-01	-4.675358e-01	-2.556867e-01	-2.118491e-01
69.016        	-2.193281e-02	4.857753e-01	-4.674452e-01	-2.556554e-01	-2.117898e-01
69.0165       	-2.203877e-02	4.860363e-01	-4.674645e-01	-2.557710e-01	-2.116935e-01
69.017        	-2.204535e-02	4.863067e-01	-4.674639e-01	-2.557773e-01	-2.116866e-01
69.0175       	-2.219482e-02	4.866145e-01	-4.676248e-01	-2.560072e-01	-2.116176e-01
69.018        	-2.222162e-02	4.867972e-01	-4.676299e-01	-2.560365e-01	-2.115933e-01
69.0185       	-2.231808e-02	4.868626e-01	-4.678046e-01	-2.562204e-01	-2.115842e-01
69.019        	-2.233165e-02	4.869157e-01	-4.677684e-01	-2.562158e-01	-2.115525e-01
69.0195       	-2.244358e-02	4.870540e-01	-4.677847e-01	-2.563359e-01	-2.114488e-01
69.02         	-2.247160e-02	4.871740e-01	-4.679063e-01	-2.564248e-01	-2.114816e-01
69.0205       	-2.256322e-02	4.874367e-01	-4.679970e-01	-2.565617e-01	-2.114353e-01
69.021        	-2.261956e-02	4.876916e-01	-4.680299e-01	-2.566345e-01	-2.113954e-01
69.0215       	-2.269697e-02	4.879067e-01	-4.682145e-01	-2.568042e-01	-2.114103e-01
69.022        	-2.273310e-02	4.881222e-01	-4.682459e-01	-2.568560e-01	-2.113898e-01
69.0225       	-2.282631e-02	4.882434e-01	-4.683147e-01	-2.569837e-01	-2.113310e-01
69.023        	-2.289003e-02	4.884353e-01	-4.683860e-01	-2.570830e-01	-2.113030e-01
69.0235       	-2.294805e-02	4.884251e-01	-4.684272e-01	-2.571616e-01	-2.112655e-01
69.024        	-2.299005e-02	4.885608e-01	-4.684992e-01	-2.572396e-01	-2.112595e-01
69.0245       	-2.305526e-02	4.887797e-01	-4.685734e-01	-2.573419e-01	-2.112314e-01
69.025        	-2.314255e-02	4.890113e-01	-4.686567e-01	-2.574709e-01	-2.111858e-01
69.0255       	-2.318613e-02	4.891540e-01	-4.686236e-01	-2.574979e-01	-2.111257e-01
69.026        	-2.330935e-02	4.895544e-01	-4.686561e-01	-2.576374e-01	-2.110187e-01
69.0265       	-2.334708e-02	4.897459e-01	-4.686846e-01	-2.576894e-01	-2.109952e-01
69.027        	-2.341881e-02	4.898385e-01	-4.687614e-01	-2.577995e-01	-2.109619e-01
69.0275       	-2.340784e-02	4.898255e-01	-4.688159e-01	-2.578158e-01	-2.110001e-01
69.028        	-2.352212e-02	4.899597e-01	-4.689302e-01	-2.579872e-01	-2.109430e-01
69.0285       	-2.353702e-02	4.900148e-01	-4.688940e-01	-2.579840e-01	-2.109100e-01
69.029        	-2.368982e-02	4.903714e-01	-4.691313e-01	-2.582555e-01	-2.108758e-01
69.0295       	-2.373301e-02	4.905532e-01	-4.690714e-01	-2.582687e-01	-2.108027e-01
69.03         	-2.384685e-02	4.908234e-01	-4.690921e-01	-2.583929e-01	-2.106992e-01
69.0305       	-2.380370e-02	4.907911e-01	-4.690469e-01	-2.583271e-01	-2.107197e-01
69.031        	-2.384482e-02	4.910098e-01	-4.692067e-01	-2.584481e-01	-2.107585e-01
69.0315       	-2.390173e-02	4.910330e-01	-4.691749e-01	-2.584892e-01	-2.106857e-01
69.032        	-2.399726e-02	4.912437e-01	-4.692707e-01	-2.586326e-01	-2.106381e-01
69.0325       	-2.408992e-02	4.913929e-01	-4.692402e-01	-2.587100e-01	-2.105302e-01
69.033        	-2.412449e-02	4.915434e-01	-4.693111e-01	-2.587801e-01	-2.105311e-01
69.0335       	-2.419999e-02	4.916786e-01	-4.693815e-01	-2.588907e-01	-2.104907e-01
69.034        	-2.422920e-02	4.917716e-01	-4.693585e-01	-2.589084e-01	-2.104500e-01
69.0345       	-2.428785e-02	4.919127e-01	-4.695345e-01	-2.590551e-01	-2.104794e-01
69.035        	-2.432115e-02	4.921506e-01	-4.696347e-01	-2.591385e-01	-2.104962e-01
69.0355       	-2.439396e-02	4.923400e-01	-4.694824e-01	-2.591352e-01	-2.103473e-01
69.036        	-2.444002e-02	4.925854e-01	-4.693735e-01	-2.591268e-01	-2.102467e-01
69.0365       	-2.445893e-02	4.926692e-01	-4.694513e-01	-2.591846e-01	-2.102667e-01
69.037        	-2.449095e-02	4.927795e-01	-4.694595e-01	-2.592207e-01	-2.102388e-01
69.0375       	-2.454860e-02	4.929006e-01	-4.695554e-01	-2.593263e-01	-2.102291e-01
69.038        	-2.461382e-02	4.930106e-01	-4.696110e-01	-2.594193e-01	-2.101917e-01
69.0385       	-2.468622e-02	4.931386e-01	-4.696679e-01	-2.595202e-01	-2.101477e-01
69.039        	-2.472921e-02	4.933018e-01	-4.697196e-01	-2.595890e-01	-2.101306e-01
69.0395       	-2.475884e-02	4.933980e-01	-4.697032e-01	-2.596105e-01	-2.100928e-01
69.04         	-2.474916e-02	4.935265e-01	-4.695473e-01	-2.595228e-01	-2.100245e-01
69.0405       	-2.478411e-02	4.937646e-01	-4.695229e-01	-2.595456e-01	-2.099773e-01
69.041        	-2.484438e-02	4.939106e-01	-4.695825e-01	-2.596356e-01	-2.099469e-01
69.0415       	-2.497396e-02	4.941455e-01	-4.696462e-01	-2.597971e-01	-2.098492e-01
69.042        	-2.504891e-02	4.943240e-01	-4.697395e-01	-2.599187e-01	-2.098208e-01
69.0425       	-2.512198e-02	4.943778e-01	-4.696619e-01	-2.599529e-01	-2.097090e-01
69.043        	-2.513474e-02	4.944272e-01	-4.696858e-01	-2.599776e-01	-2.097081e-01
69.0435       	-2.512469e-02	4.943572e-01	-4.696374e-01	-2.599434e-01	-2.096940e-01
69.044        	-2.515138e-02	4.944804e-01	-4.696690e-01	-2.599859e-01	-2.096831e-01
69.0445       	-2.524511e-02	4.946896e-01	-4.697365e-01	-2.601134e-01	-2.096232e-01
69.045        	-2.534588e-02	4.949739e-01	-4.697963e-01	-2.602440e-01	-2.095522e-01
69.0455       	-2.547204e-02	4.952550e-01	-4.698520e-01	-2.603981e-01	-2.094540e-01
69.046        	-2.550765e-02	4.953536e-01	-4.699480e-01	-2.604816e-01	-2.094663e-01
69.0465       	-2.555795e-02	4.953760e-01	-4.700519e-01	-2.605839e-01	-2.094680e-01
69.047        	-2.552831e-02	4.952620e-01	-4.699589e-01	-2.605078e-01	-2.094511e-01
69.0475       	-2.563394e-02	4.953404e-01	-4.699868e-01	-2.606273e-01	-2.093594e-01
69.048        	-2.568321e-02	4.955927e-01	-4.699561e-01	-2.606613e-01	-2.092948e-01
69.0485       	-2.586144e-02	4.959508e-01	-4.700474e-01	-2.608851e-01	-2.091622e-01
69.049        	-2.593521e-02	4.962751e-01	-4.701545e-01	-2.610124e-01	-2.091420e-01
69.0495       	-2.601647e-02	4.964452e-01	-4.702252e-01	-2.611291e-01	-2.090961e-01
69.05         	-2.597588e-02	4.963700e-01	-4.701350e-01	-2.610434e-01	-2.090916e-01
69.0505       	-2.601635e-02	4.963339e-01	-4.701178e-01	-2.610753e-01	-2.090425e-01
69.051        	-2.603625e-02	4.963581e-01	-4.701889e-01	-2.611307e-01	-2.090582e-01
69.0515       	-2.616998e-02	4.964454e-01	-4.703064e-01	-2.613232e-01	-2.089832e-01
69.052        	-2.628226e-02	4.967467e-01	-4.703318e-01	-2.614481e-01	-2.088836e-01
69.0525       	-2.640523e-02	4.969803e-01	-4.704230e-01	-2.616168e-01	-2.088063e-01
69.053        	-2.645949e-02	4.971567e-01	-4.703415e-01	-2.616303e-01	-2.087113e-01
69.0535       	-2.645510e-02	4.972224e-01	-4.704867e-01	-2.616985e-01	-2.087883e-01
69.054        	-2.648474e-02	4.972344e-01	-4.705576e-01	-2.617636e-01	-2.087941e-01
69.0545       	-2.652888e-02	4.972203e-01	-4.704138e-01	-2.617358e-01	-2.086780e-01
69.055        	-2.662886e-02	4.973377e-01	-4.705560e-01	-2.619068e-01	-2.086491e-01
69.0555       	-2.669472e-02	4.973954e-01	-4.705130e-01	-2.619512e-01	-2.085618e-01
69.056        	-2.678726e-02	4.975184e-01	-4.705716e-01	-2.620731e-01	-2.084985e-01
69.0565       	-2.684844e-02	4.976270e-01	-4.705788e-01	-2.621378e-01	-2.084409e-01
69.057        	-2.693449e-02	4.977643e-01	-4.706356e-01	-2.622523e-01	-2.083833e-01
69.0575       	-2.695946e-02	4.977782e-01	-4.705515e-01	-2.622352e-01	-2.083163e-01
69.058        	-2.702190e-02	4.979778e-01	-4.706341e-01	-2.623389e-01	-2.082951e-01
69.0585       	-2.701887e-02	4.980694e-01	-4.705292e-01	-2.622835e-01	-2.082457e-01
69.059        	-2.708858e-02	4.981117e-01	-4.706010e-01	-2.623891e-01	-2.082119e-01
69.0595       	-2.710567e-02	4.981693e-01	-4.706457e-01	-2.624285e-01	-2.082172e-01
69.06         	-2.723991e-02	4.983349e-01	-4.707290e-01	-2.626044e-01	-2.081246e-01
69.0605       	-2.729869e-02	4.983002e-01	-4.706353e-01	-2.626163e-01	-2.080190e-01
69.061        	-2.741885e-02	4.984945e-01	-4.707023e-01	-2.627700e-01	-2.079323e-01
69.0615       	-2.742756e-02	4.984830e-01	-4.706013e-01	-2.627282e-01	-2.078731e-01
69.062        	-2.751458e-02	4.985922e-01	-4.706708e-01	-2.628500e-01	-2.078208e-01
69.0625       	-2.744321e-02	4.986507e-01	-4.705739e-01	-2.627301e-01	-2.078437e-01
69.063        	-2.753840e-02	4.987915e-01	-4.707515e-01	-2.629142e-01	-2.078374e-01
69.0635       	-2.756024e-02	4.989001e-01	-4.706253e-01	-2.628729e-01	-2.077524e-01
69.064        	-2.769307e-02	4.990478e-01	-4.706700e-01	-2.630281e-01	-2.076419e-01
69.0645       	-2.774752e-02	4.990747e-01	-4.705122e-01	-2.630036e-01	-2.075086e-01
69.065        	-2.787292e-02	4.991280e-01	-4.705813e-01	-2.631636e-01	-2.074178e-01
69.0655       	-2.789797e-02	4.990663e-01	-4.705402e-01	-2.631681e-01	-2.073721e-01
69.066        	-2.799154e-02	4.991170e-01	-4.706457e-01	-2.633144e-01	-2.073313e-01
69.0665       	-2.802310e-02	4.991421e-01	-4.705722e-01	-2.633092e-01	-2.072630e-01
69.067        	-2.810784e-02	4.993054e-01	-4.706500e-01	-2.634329e-01	-2.072172e-01
69.0675       	-2.813690e-02	4.994618e-01	-4.706543e-01	-2.634641e-01	-2.071903e-01
69.068        	-2.820693e-02	4.995987e-01	-4.707364e-01	-2.635751e-01	-2.071612e-01
69.0685       	-2.825972e-02	4.997622e-01	-4.706814e-01	-2.636004e-01	-2.070810e-01
69.069        	-2.835071e-02	4.997946e-01	-4.708420e-01	-2.637717e-01	-2.070703e-01
69.0695       	-2.840381e-02	4.998399e-01	-4.708427e-01	-2.638252e-01	-2.070175e-01
69.07         	-2.852053e-02	4.999362e-01	-4.708960e-01	-2.639685e-01	-2.069275e-01
69.0705       	-2.858005e-02	4.999634e-01	-4.708776e-01	-2.640189e-01	-2.068588e-01
69.071        	-2.861981e-02	4.998877e-01	-4.708751e-01	-2.640573e-01	-2.068177e-01
69.0715       	-2.864462e-02	5.000081e-01	-4.707717e-01	-2.640305e-01	-2.067412e-01
69.072        	-2.867587e-02	5.001338e-01	-4.706312e-01	-2.639915e-01	-2.066397e-01
69.0725       	-2.873463e-02	5.003460e-01	-4.707071e-01	-2.640882e-01	-2.066189e-01
69.073        	-2.885331e-02	5.005472e-01	-4.708251e-01	-2.642659e-01	-2.065593e-01
69.0735       	-2.894219e-02	5.006495e-01	-4.706895e-01	-2.642869e-01	-2.064026e-01
69.074        	-2.906155e-02	5.006769e-01	-4.706425e-01	-2.643828e-01	-2.062597e-01
69.0745       	-2.904746e-02	5.005664e-01	-4.706421e-01	-2.643685e-01	-2.062736e-01
69.075        	-2.912294e-02	5.005827e-01	-4.707203e-01	-2.644831e-01	-2.062372e-01
69.0755       	-2.911409e-02	5.005001e-01	-4.706288e-01	-2.644285e-01	-2.062003e-01
69.076        	-2.926698e-02	5.007585e-01	-4.708155e-01	-2.646747e-01	-2.061407e-01
69.0765       	-2.928347e-02	5.008495e-01	-4.706506e-01	-2.646088e-01	-2.060418e-01
69.077        	-2.944862e-02	5.012240e-01	-4.708505e-01	-2.648739e-01	-2.059766e-01
69.0775       	-2.945574e-02	5.011793e-01	-4.707751e-01	-2.648433e-01	-2.059318e-01
69.078        	-2.956360e-02	5.013253e-01	-4.708387e-01	-2.649829e-01	-2.058557e-01
69.0785       	-2.953544e-02	5.011474e-01	-4.708056e-01	-2.649382e-01	-2.058673e-01
69.079        	-2.963853e-02	5.012047e-01	-4.709017e-01	-2.650894e-01	-2.058123e-01
69.0795       	-2.972220e-02	5.011740e-01	-4.708350e-01	-2.651397e-01	-2.056953e-01
69.08         	-2.984263e-02	5.012822e-01	-4.708993e-01	-2.652923e-01	-2.056070e-01
69.0805       	-2.991569e-02	5.014785e-01	-4.709131e-01	-2.653722e-01	-2.055408e-01
69.081        	-2.997778e-02	5.016592e-01	-4.709020e-01	-2.654288e-01	-2.054732e-01
69.0815       	-3.004053e-02	5.018339e-01	-4.709007e-01	-2.654909e-01	-2.054098e-01
69.082        	-3.005163e-02	5.019082e-01	-4.708319e-01	-2.654676e-01	-2.053643e-01
69.0825       	-3.012200e-02	5.020068e-01	-4.709420e-01	-2.655930e-01	-2.053490e-01
69.083        	-3.018951e-02	5.019842e-01	-4.709161e-01	-2.656476e-01	-2.052686e-01
69.0835       	-3.027606e-02	5.019720e-01	-4.710200e-01	-2.657861e-01	-2.052339e-01
69.084        	-3.034947e-02	5.020336e-01	-4.709127e-01	-2.658058e-01	-2.051069e-01
69.0845       	-3.043564e-02	5.021785e-01	-4.708490e-01	-2.658601e-01	-2.049888e-01
69.085        	-3.053522e-02	5.023117e-01	-4.709653e-01	-2.660179e-01	-2.049474e-01
69.0855       	-3.061468e-02	5.024215e-01	-4.709277e-01	-2.660785e-01	-2.048492e-01
69.086        	-3.065898e-02	5.025587e-01	-4.710371e-01	-2.661775e-01	-2.048595e-01
69.0865       	-3.065998e-02	5.024525e-01	-4.708651e-01	-2.660925e-01	-2.047726e-01
69.087        	-3.071543e-02	5.025047e-01	-4.708304e-01	-2.661306e-01	-2.046998e-01
69.0875       	-3.076555e-02	5.024578e-01	-4.708119e-01	-2.661715e-01	-2.046404e-01
69.088        	-3.089994e-02	5.027103e-01	-4.708093e-01	-2.663046e-01	-2.045047e-01
69.0885       	-3.099499e-02	5.027495e-01	-4.708580e-01	-2.664240e-01	-2.044340e-01
69.089        	-3.112318e-02	5.029722e-01	-4.707882e-01	-2.665173e-01	-2.042709e-01
69.0895       	-3.112806e-02	5.028837e-01	-4.708506e-01	-2.665533e-01	-2.042972e-01
69.09         	-3.116173e-02	5.029606e-01	-4.708895e-01	-2.666065e-01	-2.042830e-01
69.0905       	-3.115621e-02	5.028664e-01	-4.707496e-01	-2.665310e-01	-2.042186e-01
69.091        	-3.124773e-02	5.029870e-01	-4.708305e-01	-2.666630e-01	-2.041675e-01
69.0915       	-3.129659e-02	5.031193e-01	-4.707415e-01	-2.666673e-01	-2.040742e-01
69.092        	-3.143201e-02	5.033644e-01	-4.709271e-01	-2.668956e-01	-2.040316e-01
69.0925       	-3.149755e-02	5.033808e-01	-4.708658e-01	-2.669305e-01	-2.039354e-01
69.093        	-3.158967e-02	5.034524e-01	-4.708741e-01	-2.670267e-01	-2.038474e-01
69.0935       	-3.158210e-02	5.033423e-01	-4.707395e-01	-2.669518e-01	-2.037876e-01
69.094        	-3.163307e-02	5.033306e-01	-4.707095e-01	-2.669878e-01	-2.037217e-01
69.0945       	-3.166678e-02	5.032367e-01	-4.707245e-01	-2.670291e-01	-2.036955e-01
69.095        	-3.177765e-02	5.034438e-01	-4.706259e-01	-2.670906e-01	-2.035353e-01
69.0955       	-3.183562e-02	5.036497e-01	-4.706077e-01	-2.671394e-01	-2.034682e-01
69.096        	-3.193047e-02	5.038795e-01	-4.707016e-01	-2.672812e-01	-2.034203e-01
69.0965       	-3.195717e-02	5.038579e-01	-4.707376e-01	-2.673260e-01	-2.034116e-01
69.097        	-3.198849e-02	5.039409e-01	-4.706661e-01	-2.673215e-01	-2.033445e-01
69.0975       	-3.200846e-02	5.038148e-01	-4.707287e-01	-2.673728e-01	-2.033559e-01
69.098        	-3.210600e-02	5.037837e-01	-4.706007e-01	-2.674063e-01	-2.031943e-01
69.0985       	-3.219500e-02	5.037958e-01	-4.706280e-01	-2.675090e-01	-2.031190e-01
69.099        	-3.230433e-02	5.039535e-01	-4.706777e-01	-2.676432e-01	-2.030345e-01
69.0995       	-3.235870e-02	5.040876e-01	-4.707256e-01	-2.677215e-01	-2.030041e-01
69.1          	-3.239757e-02	5.042095e-01	-4.706800e-01	-2.677376e-01	-2.029424e-01
69.1005       	-3.239865e-02	5.042256e-01	-4.706114e-01	-2.677043e-01	-2.029070e-01
69.101        	-3.241778e-02	5.041737e-01	-4.705290e-01	-2.676823e-01	-2.028467e-01
69.1015       	-3.244807e-02	5.041169e-01	-4.705263e-01	-2.677112e-01	-2.028151e-01
69.102        	-3.252228e-02	5.041252e-01	-4.706010e-01	-2.678228e-01	-2.027782e-01
69.1025       	-3.264328e-02	5.042597e-01	-4.705377e-01	-2.679121e-01	-2.026256e-01
69.103        	-3.274283e-02	5.042599e-01	-4.705115e-01	-2.679986e-01	-2.025129e-01
69.1035       	-3.283428e-02	5.042644e-01	-4.705430e-01	-2.681058e-01	-2.024372e-01
69.104        	-3.284604e-02	5.041854e-01	-4.704148e-01	-2.680534e-01	-2.023613e-01
69.1045       	-3.288217e-02	5.042305e-01	-4.702831e-01	-2.680237e-01	-2.022594e-01
69.105        	-3.287974e-02	5.043095e-01	-4.702379e-01	-2.679987e-01	-2.022392e-01
69.1055       	-3.297525e-02	5.044287e-01	-4.702587e-01	-2.681046e-01	-2.021541e-01
69.106        	-3.304384e-02	5.044748e-01	-4.702829e-01	-2.681853e-01	-2.020976e-01
69.1065       	-3.315821e-02	5.046806e-01	-4.704143e-01	-2.683654e-01	-2.020490e-01
69.107        	-3.319672e-02	5.045883e-01	-4.702650e-01	-2.683292e-01	-2.019358e-01
69.1075       	-3.331100e-02	5.046244e-01	-4.702233e-01	-2.684227e-01	-2.018007e-01
69.108        	-3.330803e-02	5.044135e-01	-4.700619e-01	-2.683390e-01	-2.017229e-01
69.1085       	-3.341568e-02	5.044876e-01	-4.700974e-01	-2.684644e-01	-2.016330e-01
69.109        	-3.343415e-02	5.043105e-01	-4.699408e-01	-2.684045e-01	-2.015363e-01
69.1095       	-3.355692e-02	5.045315e-01	-4.701178e-01	-2.686158e-01	-2.015020e-01
69.11         	-3.362197e-02	5.046218e-01	-4.699392e-01	-2.685915e-01	-2.013476e-01
69.1105       	-3.372299e-02	5.047361e-01	-4.701193e-01	-2.687826e-01	-2.013367e-01
69.111        	-3.375149e-02	5.046395e-01	-4.699783e-01	-2.687406e-01	-2.012376e-01
69.1115       	-3.384320e-02	5.045691e-01	-4.700449e-01	-2.688657e-01	-2.011793e-01
69.112        	-3.387289e-02	5.044546e-01	-4.699367e-01	-2.688412e-01	-2.010955e-01
69.1125       	-3.395432e-02	5.044628e-01	-4.699791e-01	-2.689439e-01	-2.010352e-01
69.113        	-3.405644e-02	5.044342e-01	-4.699659e-01	-2.690394e-01	-2.009265e-01
69.1135       	-3.412866e-02	5.045213e-01	-4.698682e-01	-2.690628e-01	-2.008054e-01
69.114        	-3.411669e-02	5.045195e-01	-4.697609e-01	-2.689972e-01	-2.007638e-01
69.1145       	-3.415597e-02	5.045833e-01	-4.697599e-01	-2.690359e-01	-2.007240e-01
69.115        	-3.416636e-02	5.045052e-01	-4.697401e-01	-2.690364e-01	-2.007037e-01
69.1155       	-3.419697e-02	5.045606e-01	-4.696920e-01	-2.690430e-01	-2.006490e-01
69.116        	-3.423462e-02	5.044928e-01	-4.696570e-01	-2.690631e-01	-2.005939e-01
69.1165       	-3.432511e-02	5.044739e-01	-4.696964e-01	-2.691733e-01	-2.005231e-01
69.117        	-3.438453e-02	5.043852e-01	-4.696155e-01	-2.691923e-01	-2.004232e-01
69.1175       	-3.445661e-02	5.044054e-01	-4.696597e-01	-2.692864e-01	-2.003732e-01
69.118        	-3.447311e-02	5.043165e-01	-4.695821e-01	-2.692642e-01	-2.003179e-01
69.1185       	-3.451853e-02	5.043193e-01	-4.693355e-01	-2.691863e-01	-2.001492e-01
69.119        	-3.452449e-02	5.043587e-01	-4.693008e-01	-2.691749e-01	-2.001259e-01
69.1195       	-3.455985e-02	5.045078e-01	-4.691810e-01	-2.691504e-01	-2.000307e-01
69.12         	-3.459290e-02	5.046098e-01	-4.690987e-01	-2.691423e-01	-1.999565e-01
69.1205       	-3.465480e-02	5.046473e-01	-4.690812e-01	-2.691954e-01	-1.998858e-01
69.121        	-3.470902e-02	5.045768e-01	-4.691120e-01	-2.692650e-01	-1.998470e-01
69.1215       	-3.472597e-02	5.044480e-01	-4.690348e-01	-2.692434e-01	-1.997914e-01
69.122        	-3.478354e-02	5.043593e-01	-4.689735e-01	-2.692703e-01	-1.997032e-01
69.1225       	-3.477334e-02	5.042613e-01	-4.688948e-01	-2.692207e-01	-1.996740e-01
69.123        	-3.489426e-02	5.043945e-01	-4.689304e-01	-2.693594e-01	-1.995709e-01
69.1235       	-3.488045e-02	5.043217e-01	-4.686118e-01	-2.691863e-01	-1.994254e-01
69.124        	-3.502983e-02	5.045445e-01	-4.686480e-01	-2.693538e-01	-1.992942e-01
69.1245       	-3.490168e-02	5.043534e-01	-4.683356e-01	-2.690695e-01	-1.992661e-01
69.125        	-3.507227e-02	5.046718e-01	-4.685245e-01	-2.693345e-01	-1.991900e-01
69.1255       	-3.493088e-02	5.043009e-01	-4.681675e-01	-2.690146e-01	-1.991529e-01
69.126        	-3.513745e-02	5.045923e-01	-4.685116e-01	-2.693932e-01	-1.991183e-01
69.1265       	-3.496229e-02	5.041745e-01	-4.680337e-01	-2.689791e-01	-1.990546e-01
69.127        	-3.521146e-02	5.045022e-01	-4.682268e-01	-2.693248e-01	-1.989019e-01
69.1275       	-3.500769e-02	5.040446e-01	-4.677391e-01	-2.688772e-01	-1.988618e-01
69.128        	-3.528951e-02	5.045263e-01	-4.681023e-01	-2.693407e-01	-1.987617e-01
69.1285       	-3.501613e-02	5.040236e-01	-4.676211e-01	-2.688267e-01	-1.987944e-01
69.129        	-3.529014e-02	5.044593e-01	-4.680206e-01	-2.693005e-01	-1.987202e-01
69.1295       	-3.499552e-02	5.040458e-01	-4.673364e-01	-2.686637e-01	-1.986727e-01
69.13         	-3.529443e-02	5.045750e-01	-4.677226e-01	-2.691557e-01	-1.985669e-01
69.1305       	-3.500941e-02	5.040212e-01	-4.671758e-01	-2.685973e-01	-1.985785e-01
69.131        	-3.535443e-02	5.043721e-01	-4.675765e-01	-2.691427e-01	-1.984338e-01
69.1315       	-3.506811e-02	5.037751e-01	-4.669253e-01	-2.685308e-01	-1.983946e-01
69.132        	-3.536472e-02	5.041547e-01	-4.672654e-01	-2.689974e-01	-1.982680e-01
69.1325       	-3.509743e-02	5.035930e-01	-4.666122e-01	-2.684035e-01	-1.982087e-01
69.133        	-3.537373e-02	5.040147e-01	-4.668282e-01	-2.687878e-01	-1.980404e-01
69.1335       	-3.512954e-02	5.036316e-01	-4.662727e-01	-2.682659e-01	-1.980068e-01
69.134        	-3.538416e-02	5.040800e-01	-4.665954e-01	-2.686818e-01	-1.979135e-01
69.1345       	-3.516292e-02	5.037317e-01	-4.661568e-01	-2.682413e-01	-1.979155e-01
69.135        	-3.538597e-02	5.039922e-01	-4.664505e-01	-2.686112e-01	-1.978393e-01
69.1355       	-3.518285e-02	5.035675e-01	-4.659928e-01	-2.681793e-01	-1.978136e-01
69.136        	-3.541048e-02	5.037857e-01	-4.661187e-01	-2.684698e-01	-1.976489e-01
69.1365       	-3.525376e-02	5.034076e-01	-4.657249e-01	-2.681162e-01	-1.976087e-01
69.137        	-3.546168e-02	5.036141e-01	-4.659050e-01	-2.684142e-01	-1.974908e-01
69.1375       	-3.530677e-02	5.032924e-01	-4.655149e-01	-2.680642e-01	-1.974507e-01
69.138        	-3.553287e-02	5.035477e-01	-4.657374e-01	-2.684016e-01	-1.973358e-01
69.1385       	-3.530204e-02	5.031808e-01	-4.653759e-01	-2.679900e-01	-1.973859e-01
69.139        	-3.555736e-02	5.035047e-01	-4.657494e-01	-2.684321e-01	-1.973173e-01
69.1395       	-3.530402e-02	5.030196e-01	-4.652237e-01	-2.679159e-01	-1.973078e-01
69.14         	-3.560881e-02	5.034236e-01	-4.655190e-01	-2.683683e-01	-1.971507e-01
69.1405       	-3.540391e-02	5.029391e-01	-4.650543e-01	-2.679311e-01	-1.971233e-01
69.141        	-3.569305e-02	5.032825e-01	-4.654589e-01	-2.684225e-01	-1.970364e-01
69.1415       	-3.549488e-02	5.027645e-01	-4.649842e-01	-2.679870e-01	-1.969972e-01
69.142        	-3.575108e-02	5.030791e-01	-4.652335e-01	-2.683678e-01	-1.968657e-01
69.1425       	-3.553606e-02	5.026282e-01	-4.649065e-01	-2.679893e-01	-1.969172e-01
69.143        	-3.576249e-02	5.028906e-01	-4.650647e-01	-2.682948e-01	-1.967699e-01
69.1435       	-3.557216e-02	5.025837e-01	-4.648068e-01	-2.679755e-01	-1.968312e-01
69.144        	-3.576280e-02	5.029638e-01	-4.648187e-01	-2.681722e-01	-1.966466e-01
69.1445       	-3.561727e-02	5.026878e-01	-4.645428e-01	-2.678887e-01	-1.966542e-01
69.145        	-3.577093e-02	5.028530e-01	-4.646341e-01	-2.680880e-01	-1.965461e-01
69.1455       	-3.565909e-02	5.025221e-01	-4.643800e-01	-2.678491e-01	-1.965309e-01
69.146        	-3.578463e-02	5.024859e-01	-4.643363e-01	-2.679528e-01	-1.963835e-01
69.1465       	-3.568419e-02	5.021725e-01	-4.641721e-01	-2.677703e-01	-1.964019e-01
69.147        	-3.575982e-02	5.022814e-01	-4.641116e-01	-2.678156e-01	-1.962960e-01
69.1475       	-3.571535e-02	5.021155e-01	-4.639596e-01	-2.676952e-01	-1.962645e-01
69.148        	-3.576703e-02	5.021456e-01	-4.637777e-01	-2.676559e-01	-1.961218e-01
69.1485       	-3.569711e-02	5.020564e-01	-4.635210e-01	-2.674576e-01	-1.960634e-01
69.149        	-3.574824e-02	5.021245e-01	-4.634395e-01	-2.674680e-01	-1.959715e-01
69.1495       	-3.564985e-02	5.018901e-01	-4.631887e-01	-2.672442e-01	-1.959445e-01
69.15         	-3.566641e-02	5.018280e-01	-4.630906e-01	-2.672117e-01	-1.958789e-01
69.1505       	-3.562276e-02	5.016464e-01	-4.629008e-01	-2.670732e-01	-1.958276e-01
69.151        	-3.564979e-02	5.016563e-01	-4.628003e-01	-2.670499e-01	-1.957504e-01
69.1515       	-3.560174e-02	5.015149e-01	-4.625824e-01	-2.668929e-01	-1.956895e-01
69.152        	-3.558583e-02	5.014435e-01	-4.623318e-01	-2.667517e-01	-1.955801e-01
69.1525       	-3.559444e-02	5.014077e-01	-4.622359e-01	-2.667124e-01	-1.955235e-01
69.153        	-3.550621e-02	5.012781e-01	-4.619415e-01	-2.664769e-01	-1.954645e-01
69.1535       	-3.554160e-02	5.013790e-01	-4.617981e-01	-2.664407e-01	-1.953575e-01
69.154        	-3.541965e-02	5.010278e-01	-4.615105e-01	-2.661749e-01	-1.953356e-01
69.1545       	-3.549477e-02	5.011857e-01	-4.615447e-01	-2.662671e-01	-1.952776e-01
69.155        	-3.530215e-02	5.007304e-01	-4.611836e-01	-2.658940e-01	-1.952897e-01
69.1555       	-3.540082e-02	5.008201e-01	-4.611036e-01	-2.659526e-01	-1.951510e-01
69.156        	-3.521538e-02	5.003539e-01	-4.606857e-01	-2.655582e-01	-1.951275e-01
69.1565       	-3.532450e-02	5.005579e-01	-4.606769e-01	-2.656629e-01	-1.950139e-01
69.157        	-3.518417e-02	5.002853e-01	-4.603642e-01	-2.653663e-01	-1.949979e-01
69.1575       	-3.524166e-02	5.003762e-01	-4.603031e-01	-2.653932e-01	-1.949099e-01
69.158        	-3.513569e-02	5.000409e-01	-4.599056e-01	-2.650885e-01	-1.948171e-01
69.1585       	-3.512519e-02	5.000319e-01	-4.597558e-01	-2.650031e-01	-1.947527e-01
69.159        	-3.502281e-02	4.998386e-01	-4.595596e-01	-2.648026e-01	-1.947570e-01
69.1595       	-3.502568e-02	4.996995e-01	-4.593845e-01	-2.647179e-01	-1.946666e-01
69.16         	-3.497691e-02	4.996105e-01	-4.591030e-01	-2.645284e-01	-1.945746e-01
69.1605       	-3.498332e-02	4.995525e-01	-4.590389e-01	-2.645028e-01	-1.945362e-01
69.161        	-3.494580e-02	4.993962e-01	-4.587555e-01	-2.643235e-01	-1.944320e-01
69.1615       	-3.495629e-02	4.992493e-01	-4.586926e-01	-2.643026e-01	-1.943900e-01
69.162        	-3.487578e-02	4.990128e-01	-4.585212e-01	-2.641364e-01	-1.943848e-01
69.1625       	-3.482443e-02	4.989513e-01	-4.583094e-01	-2.639791e-01	-1.943303e-01
69.163        	-3.474135e-02	4.988395e-01	-4.581384e-01	-2.638106e-01	-1.943279e-01
69.1635       	-3.473678e-02	4.986852e-01	-4.578835e-01	-2.636785e-01	-1.942050e-01
69.164        	-3.471078e-02	4.985555e-01	-4.576924e-01	-2.635570e-01	-1.941354e-01
69.1645       	-3.468326e-02	4.984658e-01	-4.575283e-01	-2.634474e-01	-1.940809e-01
69.165        	-3.470321e-02	4.983548e-01	-4.574479e-01	-2.634272e-01	-1.940208e-01
69.1655       	-3.465486e-02	4.981466e-01	-4.572513e-01	-2.632805e-01	-1.939708e-01
69.166        	-3.461986e-02	4.981015e-01	-4.570655e-01	-2.631526e-01	-1.939129e-01
69.1665       	-3.454051e-02	4.978908e-01	-4.567826e-01	-2.629318e-01	-1.938508e-01
69.167        	-3.450465e-02	4.978169e-01	-4.565956e-01	-2.628025e-01	-1.937932e-01
69.1675       	-3.442945e-02	4.976116e-01	-4.564147e-01	-2.626368e-01	-1.937779e-01
69.168        	-3.440870e-02	4.976295e-01	-4.562703e-01	-2.625439e-01	-1.937265e-01
69.1685       	-3.437712e-02	4.974931e-01	-4.559712e-01	-2.623627e-01	-1.936085e-01
69.169        	-3.434083e-02	4.974161e-01	-4.558800e-01	-2.622808e-01	-1.935992e-01
69.1695       	-3.427063e-02	4.971155e-01	-4.557239e-01	-2.621326e-01	-1.935913e-01
69.17         	-3.423480e-02	4.968630e-01	-4.555985e-01	-2.620340e-01	-1.935645e-01
69.1705       	-3.417216e-02	4.966281e-01	-4.554036e-01	-2.618739e-01	-1.935296e-01
69.171        	-3.409495e-02	4.965281e-01	-4.551062e-01	-2.616480e-01	-1.934581e-01
69.1715       	-3.409846e-02	4.965044e-01	-4.549425e-01	-2.615697e-01	-1.933728e-01
69.172        	-3.399746e-02	4.963740e-01	-4.545706e-01	-2.612828e-01	-1.932879e-01
69.1725       	-3.401670e-02	4.963300e-01	-4.545083e-01	-2.612709e-01	-1.932375e-01
69.173        	-3.390236e-02	4.960864e-01	-4.542653e-01	-2.610350e-01	-1.932303e-01
69.1735       	-3.391499e-02	4.959996e-01	-4.540455e-01	-2.609377e-01	-1.931078e-01
69.174        	-3.379165e-02	4.956422e-01	-4.537169e-01	-2.606501e-01	-1.930668e-01
69.1745       	-3.380565e-02	4.955274e-01	-4.535812e-01	-2.605962e-01	-1.929849e-01
69.175        	-3.369365e-02	4.952894e-01	-4.533869e-01	-2.603871e-01	-1.929998e-01
69.1755       	-3.369670e-02	4.952025e-01	-4.531849e-01	-2.602891e-01	-1.928957e-01
69.176        	-3.356546e-02	4.949834e-01	-4.528315e-01	-2.599812e-01	-1.928503e-01