# kMean  POINT_DATA 63831
# x  y  z  kMean
0 0.5 3.39583e-17 0.00375
0 0.5 -0.00617931 0.00375
0 0.5 0.00617931 0.00375
0.0124865 0.5 0.00617931 0.0037503
0.0124865 0.5 -0.00617931 0.0037503
0 0.5 -0.0688207 0.00375
0 0.5 0.0688207 0.00375
0.0124865 0.5 0.0688207 0.0037503
0.0124865 0.5 -0.0688207 0.0037503
0 0.5 0.075 0.00375
0 0.5 -0.075 0.00375
0 0.5 -0.0811793 0.00375
0 0.5 0.0811793 0.00375
0.0124865 0.5 0.0811793 0.00375031
0.0124865 0.5 -0.0811793 0.0037503
0.075776 0.5 0.0375 0.00375182
0.075776 0.5 -0.0375 0.00375181
0.075776 0.5 0.1125 0.00375188
0.075776 0.5 -0.1125 0.00375183
0 0.5 -0.143821 0.00375
0 0.5 0.143821 0.00375
0.0124865 0.5 0.143821 0.00375031
0.0124865 0.5 -0.143821 0.0037503
0 0.5 0.15 0.00375
0 0.5 -0.15 0.00375
0.151149 0.5 2.20565e-18 0.00375401
0 0.5 -0.156179 0.00375
0 0.5 0.156179 0.00375
0.0124865 0.5 0.156179 0.00375033
0.0124865 0.5 -0.156179 0.00375032
0.151149 0.5 0.075 0.00375406
0.151149 0.5 -0.075 0.00375405
0.075776 0.5 0.1875 0.00375201
0.075776 0.5 -0.1875 0.00375192
0.151149 0.5 0.15 0.0037542
0.151149 0.5 -0.15 0.00375418
0 0.5 -0.218821 0.00375
0 0.5 0.218821 0.00375
0.0124865 0.5 0.218821 0.00375033
0.0124865 0.5 -0.218821 0.00375032
0.219992 0.5 0.0375 0.00375606
0.219992 0.5 -0.0375 0.00375606
0 0.5 0.225 0.00375
0 0.5 -0.225 0.00375
0 0.5 -0.231179 0.00375
0 0.5 0.231179 0.00375
0.0124865 0.5 0.231179 0.00375036
0.0124865 0.5 -0.231179 0.00375034
0.219993 0.5 0.1125 0.00375618
0.219993 0.5 -0.1125 0.00375619
0.151149 0.5 0.225 0.00375445
0.151149 0.5 -0.225 0.00375442
0.075776 0.5 0.2625 0.00375218
0.075776 0.5 -0.2625 0.00375207
0.288069 0.5 3.34766e-17 0.00376051
0.219992 0.5 0.1875 0.00375645
0.219992 0.5 -0.1875 0.00375647
0 0.5 0.293821 0.00375
0 0.5 -0.293821 0.00375
0.0124865 0.5 -0.293821 0.00375034
0.0124865 0.5 0.293821 0.00375036
0.288069 0.5 0.075 0.00376053
0.288069 0.5 -0.075 0.00376061
0 0.5 0.3 0.00375
0 0.5 -0.3 0.00375
0 0.5 0.306179 0.00375
0 0.5 -0.306179 0.00375
0.0124865 0.5 0.306179 0.00375039
0.0124865 0.5 -0.306179 0.00375037
0.288069 0.5 0.15 0.00376069
0.288069 0.5 -0.15 0.00376086
0.151149 0.5 0.3 0.00375478
0.151149 0.5 -0.3 0.00375473
0.219992 0.5 0.2625 0.00375686
0.219992 0.5 -0.2625 0.00375689
0.075776 0.5 0.3375 0.00375238
0.075776 0.5 -0.3375 0.00375224
0.350249 0.5 0.0375 0.00376464
0.350249 0.5 -0.0375 0.00376472
0.288069 0.5 0.225 0.00376101
0.288069 0.5 -0.225 0.00376125
0.350249 0.5 0.1125 0.00376469
0.350249 0.5 -0.1125 0.00376492
0 0.5 0.368821 0.00375
0 0.5 -0.368821 0.00375
0.0124865 0.5 0.368821 0.00375039
0.0124865 0.5 -0.368821 0.00375037
0 0.5 0.375 0.00375
0 0.5 -0.375 0.00375
0 0.5 -0.381179 0.00375
0 0.5 0.381179 0.00375
0.0124865 0.5 0.381179 0.00375043
0.0124865 0.5 -0.381179 0.0037504
0.350249 0.5 0.1875 0.0037649
0.350249 0.5 -0.1875 0.00376527
0.219992 0.5 0.3375 0.00375738
0.219992 0.5 -0.3375 0.00375739
0.151149 0.5 0.375 0.00375517
0.151149 0.5 -0.375 0.00375509
0.411736 0.5 1.70099e-17 0.00377165
0.288069 0.5 0.3 0.00376147
0.288069 0.5 -0.3 0.00376175
0.411736 0.5 0.075 0.00377159
0.411736 0.5 -0.075 0.00377181
0.075776 0.5 0.4125 0.00375259
0.075776 0.5 -0.4125 0.00375243
0.350249 0.5 -0.2625 0.00376578
0.350249 0.5 0.2625 0.00376528
0.411736 0.5 0.15 0.00377163
0.411736 0.5 -0.15 0.00377208
0 0.5 -0.443821 0.00375
0 0.5 0.443821 0.00375
0.0124865 0.5 0.443821 0.00375043
0.0124865 0.5 -0.443821 0.0037504
0 0.5 0.45 0.00375
0 0.5 -0.45 0.00375
0 0.5 -0.456179 0.00375
0 0.5 0.456179 0.00375
0.0124865 0.5 0.456179 0.00375046
0.0124865 0.5 -0.456179 0.00375043
0.219992 0.5 -0.4125 0.00375793
0.219993 0.5 0.4125 0.00375796
0.411736 0.5 0.225 0.00377182
0.411736 0.5 -0.225 0.00377245
0.467897 0.5 0.0375 0.00377813
0.467897 0.5 -0.0375 0.00377827
0.288069 0.5 0.375 0.00376203
0.288069 0.5 -0.375 0.00376229
0.151149 0.5 -0.45 0.00375546
0.151149 0.5 0.45 0.00375557
0.467897 0.5 0.1125 0.00377805
0.467897 0.5 -0.1125 0.00377849
0.350249 0.5 0.3375 0.0037658
0.350249 0.5 -0.3375 0.00376635
0.075776 0.5 -0.4875 0.00375263
0.075776 0.5 0.4875 0.00375281
0.467897 0.5 0.1875 0.00377808
0.467897 0.5 -0.1875 0.0037788
0.411736 0.5 0.3 0.00377215
0.411736 0.5 -0.3 0.0037729
0 0.5 -0.518821 0.00375
0 0.5 0.518821 0.00375
0.0124865 0.5 0.518821 0.00375046
0.0124865 0.5 -0.518821 0.00375043
0.523432 0.5 3.75966e-17 0.00378753
0 0.5 0.525 0.00375
0 0.5 -0.525 0.00375
0.523432 0.5 0.075 0.00378738
0.523432 0.5 -0.075 0.00378769
0 0.5 -0.531179 0.00375
0 0.5 0.531179 0.00375
0.0124865 0.5 0.531179 0.0037505
0.0124865 0.5 -0.531179 0.00375046
0.288069 0.5 0.45 0.00376263
0.288069 0.5 -0.45 0.00376284
0.219992 0.5 -0.4875 0.00375847
0.219992 0.5 0.4875 0.00375856
0.467897 0.5 -0.2625 0.00377914
0.467897 0.5 0.2625 0.00377823
0.350249 0.5 0.4125 0.00376641
0.350249 0.5 -0.4125 0.00376692
0.523432 0.5 0.15 0.00378725
0.523432 0.5 -0.15 0.00378787
0.151149 0.5 0.525 0.00375598
0.151149 0.5 -0.525 0.00375582
0.411736 0.5 0.375 0.00377259
0.411736 0.5 -0.375 0.00377335
0.075776 0.5 0.5625 0.00375301
0.075776 0.5 -0.5625 0.00375281
0.523432 0.5 0.225 0.00378718
0.523432 0.5 -0.225 0.00378806
0.574156 0.5 0.0375 0.00379625
0.574157 0.5 -0.0375 0.00379641
0.467897 0.5 0.3375 0.00377852
0.467897 0.5 -0.3375 0.00377951
0.574156 0.5 0.1125 0.00379603
0.574156 0.5 -0.1125 0.00379654
0 0.5 -0.593821 0.00375
0 0.5 0.593821 0.00375
0.0124865 0.5 0.593821 0.0037505
0.0124865 0.5 -0.593821 0.00375046
0.288069 0.5 0.525 0.00376325
0.288069 0.5 -0.525 0.00376336
0 0.5 0.6 0.00375
0 0.5 -0.6 0.00375
0.350249 0.5 0.4875 0.00376705
0.350249 0.5 -0.4875 0.00376747
0.523432 0.5 -0.3 0.00378822
0.523432 0.5 0.3 0.0037872
0.219992 0.5 0.5625 0.00375915
0.219992 0.5 -0.5625 0.00375898
0.574156 0.5 0.1875 0.0037958
0.574157 0.5 -0.1875 0.00379663
0 0.5 -0.606179 0.00375
0 0.5 0.606179 0.00375
0.0124865 0.5 0.606179 0.00375053
0.0124865 0.5 -0.606179 0.00375049
0.411736 0.5 0.45 0.00377309
0.411736 0.5 -0.45 0.00377376
0.151149 0.5 0.6 0.00375637
0.151149 0.5 -0.6 0.00375616
0.467897 0.5 0.4125 0.00377888
0.467897 0.5 -0.4125 0.00377983
0.624316 0.5 2.64545e-17 0.00380773
0.624316 0.5 0.075 0.00380752
0.624316 0.5 -0.075 0.00380781
0.574156 0.5 -0.2625 0.00379665
0.574157 0.5 0.2625 0.00379559
0.075776 0.5 0.6375 0.00375319
0.075776 0.5 -0.6375 0.00375298
0.624316 0.5 0.15 0.00380719
0.624316 0.5 -0.15 0.00380778
0.523432 0.5 0.375 0.0037873
0.523432 0.5 -0.375 0.00378832
0.350249 0.5 -0.5625 0.00376795
0.350249 0.5 0.5625 0.00376769
0.624316 0.5 0.225 0.00380679
0.624316 0.5 -0.225 0.00380762
0.288069 0.5 0.6 0.00376385
0.288069 0.5 -0.6 0.00376382
0.574157 0.5 0.3375 0.00379547
0.574157 0.5 -0.3375 0.00379659
0.411736 0.5 0.525 0.00377359
0.411736 0.5 -0.525 0.0037741
0 0.5 -0.668821 0.00375
0 0.5 0.668821 0.00375
0.0124865 0.5 0.668821 0.00375053
0.0124865 0.5 -0.668821 0.00375049
0.67013 0.5 0.0375 0.00381848
0.67013 0.5 -0.0375 0.0038186
0.219993 0.5 -0.6375 0.00375943
0.219992 0.5 0.6375 0.00375971
0 0.5 0.675 0.00375
0 0.5 -0.675 0.00375
0.467897 0.5 -0.4875 0.00378005
0.467897 0.5 0.4875 0.00377926
0.67013 0.5 0.1125 0.00381814
0.67013 0.5 -0.1125 0.00381852
0 0.5 -0.681179 0.00375
0 0.5 0.681179 0.00375
0.0124865 0.5 0.681179 0.00375055
0.0124865 0.5 -0.681179 0.00375051
0.523432 0.5 0.45 0.00378743
0.523432 0.5 -0.45 0.00378829
0.151149 0.5 0.675 0.00375672
0.151149 0.5 -0.675 0.00375645
0.624316 0.5 0.3 0.00380637
0.624316 0.5 -0.3 0.0038073
0.67013 0.5 0.1875 0.00381762
0.67013 0.5 -0.1875 0.00381826
0.574156 0.5 0.4125 0.00379539
0.574156 0.5 -0.4125 0.00379637
0.715434 0.5 3.51282e-17 0.00383172
0.075776 0.5 0.7125 0.00375334
0.075776 0.5 -0.7125 0.00375312
0.715434 0.5 0.075 0.0038315
0.715434 0.5 -0.075 0.00383163
0.67013 0.5 0.2625 0.00381699
0.67013 0.5 -0.2625 0.0038178
0.350249 0.5 -0.6375 0.00376834
0.350249 0.5 0.6375 0.00376829
0.411736 0.5 0.6 0.00377407
0.411736 0.5 -0.6 0.00377433
0.624316 0.5 0.375 0.00380597
0.624316 0.5 -0.375 0.0038068
0.715434 0.5 0.15 0.00383097
0.715434 0.5 -0.15 0.00383126
0.467897 0.5 0.5625 0.00377962
0.467897 0.5 -0.5625 0.00378016
0.288069 0.5 0.675 0.00376439
0.288069 0.5 -0.675 0.00376419
0.523432 0.5 0.525 0.00378754
0.523432 0.5 -0.525 0.00378813
0 0.5 -0.743821 0.00375
0 0.5 0.743821 0.00375
0.0124865 0.5 -0.743821 0.00375051
0.0124865 0.5 0.743821 0.00375055
0.219992 0.5 0.7125 0.00376019
0.219992 0.5 -0.7125 0.00375981
0.715434 0.5 0.225 0.00383021
0.715434 0.5 -0.225 0.0038306
0 0.5 0.75 0.00375
0 0.5 -0.75 0.00375
0.67013 0.5 0.3375 0.0038163
0.67013 0.5 -0.3375 0.00381707
0.574157 0.5 0.4875 0.00379527
0.574157 0.5 -0.4875 0.00379599
0 0.5 -0.756179 0.00375
0 0.5 0.756179 0.00375
0.0124865 0.5 0.756179 0.00375057
0.0124865 0.5 -0.756179 0.00375053
0.756813 0.5 0.0375 0.00384427
0.756813 0.5 -0.0375 0.00384427
0.151149 0.5 0.75 0.00375702
0.151149 0.5 -0.75 0.00375668
0.756813 0.5 0.1125 0.00384385
0.756813 0.5 -0.1125 0.00384389
0.624316 0.5 -0.45 0.00380608
0.624316 0.5 0.45 0.00380555
0.715434 0.5 0.3 0.00382926
0.715434 0.5 -0.3 0.00382961
0.756813 0.5 0.1875 0.00384304
0.756813 0.5 -0.1875 0.00384314
0.67013 0.5 -0.4125 0.00381609
0.67013 0.5 0.4125 0.00381564
0.411736 0.5 0.675 0.00377448
0.411736 0.5 -0.675 0.00377444
0.467897 0.5 0.6375 0.00377994
0.467897 0.5 -0.6375 0.00378013
0.075776 0.5 0.7875 0.00375346
0.075776 0.5 -0.7875 0.00375322
0.350249 0.5 0.7125 0.00376882
0.350249 0.5 -0.7125 0.00376862
0.523432 0.5 0.6 0.0037876
0.523432 0.5 -0.6 0.00378781
0.797732 0.5 3.20924e-17 0.00385889
0.756813 0.5 0.2625 0.00384195
0.756814 0.5 -0.2625 0.00384199
0.797732 0.5 0.075 0.00385872
0.797732 0.5 -0.075 0.00385854
0.288069 0.5 0.75 0.00376485
0.288069 0.5 -0.75 0.00376447
0.574156 0.5 -0.5625 0.00379542
0.574156 0.5 0.5625 0.0037951
0.715434 0.5 0.375 0.00382822
0.715434 0.5 -0.375 0.00382831
0.797732 0.5 0.15 0.00385801
0.797732 0.5 -0.15 0.00385769
0.624316 0.5 0.525 0.00380505
0.624316 0.5 -0.525 0.00380515
0.219992 0.5 0.7875 0.00376059
0.219992 0.5 -0.7875 0.0037601
0 0.5 -0.818821 0.00375
0 0.5 0.818821 0.00375
0.0124865 0.5 -0.818821 0.00375053
0.0124865 0.5 0.818821 0.00375057
0 0.5 0.825 0.00375
0 0.5 -0.825 0.00375
0.756813 0.5 -0.3375 0.00384045
0.756813 0.5 0.3375 0.00384062
0.67013 0.5 0.4875 0.00381485
0.67013 0.5 -0.4875 0.00381486
0.797732 0.5 0.225 0.00385683
0.797732 0.5 -0.225 0.00385635
0 0.5 -0.831179 0.00375
0 0.5 0.831179 0.00375
0.0124865 0.5 0.831179 0.00375058
0.0124865 0.5 -0.831179 0.00375054
0.835106 0.5 -0.0375 0.00387279
0.835106 0.5 0.0375 0.003873
0.151149 0.5 0.825 0.00375725
0.151149 0.5 -0.825 0.00375685
0.835106 0.5 0.1125 0.00387251
0.835106 0.5 -0.1125 0.00387198
0.715434 0.5 0.45 0.00382709
0.715434 0.5 -0.45 0.00382668
0.797732 0.5 0.3 0.0038553
0.797732 0.5 -0.3 0.00385456
0.467897 0.5 0.7125 0.00378018
0.467897 0.5 -0.7125 0.00377995
0.523432 0.5 0.675 0.00378759
0.523432 0.5 -0.675 0.00378733
0.411736 0.5 0.75 0.00377481
0.411736 0.5 -0.75 0.00377441
0.835106 0.5 0.1875 0.00387138
0.835106 0.5 -0.1875 0.00387054
0.574156 0.5 0.6375 0.00379487
0.574156 0.5 -0.6375 0.00379468
0.350249 0.5 -0.7875 0.00376877
0.350249 0.5 0.7875 0.00376924
0.756813 0.5 -0.4125 0.00383851
0.756814 0.5 0.4125 0.00383917
0.075776 0.5 -0.8625 0.00375329
0.075776 0.5 0.8625 0.00375355
0.624316 0.5 0.6 0.00380445
0.624316 0.5 -0.6 0.00380401
0.872064 0.5 4.32235e-17 0.00388862
0.288069 0.5 0.825 0.00376521
0.288069 0.5 -0.825 0.00376463
0.67013 0.5 0.5625 0.00381394
0.67013 0.5 -0.5625 0.00381337
0.872064 0.5 0.075 0.00388856
0.872064 0.5 -0.075 0.00388797
0.835106 0.5 0.2625 0.00386973
0.835106 0.5 -0.2625 0.00386856
0.797732 0.5 0.375 0.00385351
0.797732 0.5 -0.375 0.00385229
0.872064 0.5 0.15 0.00388778
0.872064 0.5 -0.15 0.00388664
0.715434 0.5 0.525 0.00382581
0.715434 0.5 -0.525 0.00382475
0.219992 0.5 0.8625 0.0037609
0.219993 0.5 -0.8625 0.0037603
0 0.5 -0.893821 0.00375
0 0.5 0.893821 0.00375
0.0124865 0.5 0.893821 0.00375058
0.0124865 0.5 -0.893821 0.00375054
0 0.5 0.9 0.00375
0 0.5 -0.9 0.00375
0.756813 0.5 0.4875 0.00383759
0.756813 0.5 -0.4875 0.00383621
0.872064 0.5 0.225 0.0038863
0.872064 0.5 -0.225 0.00388459
0.835106 0.5 0.3375 0.00386771
0.835106 0.5 -0.3375 0.00386611
0 0.5 0.906179 0.00375
0 0.5 -0.906179 0.00375
0.0124865 0.5 0.906179 0.00375059
0.0124865 0.5 -0.906179 0.00375055
0.90582 0.5 -0.0375 0.00390353
0.905821 0.5 0.0375 0.00390395
0.151149 0.5 0.9 0.00375741
0.90582 0.5 0.1125 0.00390358
0.90582 0.5 -0.1125 0.00390239
0.151149 0.5 -0.901373 0.00375698
0.523432 0.5 0.75 0.00378749
0.523432 0.5 -0.75 0.00378669
0.574157 0.5 0.7125 0.00379454
0.574156 0.5 -0.7125 0.00379375
0.797732 0.5 0.45 0.00385154
0.797732 0.5 -0.45 0.00384956
0.467897 0.5 0.7875 0.00378032
0.467897 0.5 -0.7875 0.00377963
0.624316 0.5 0.675 0.00380376
0.624316 0.5 -0.675 0.00380267
0.411736 0.5 0.825 0.00377503
0.411736 0.5 -0.825 0.00377425
0.872064 0.5 0.3 0.00388418
0.872064 0.5 -0.3 0.00388186
0.67013 0.5 0.6375 0.00381292
0.67013 0.5 -0.6375 0.00381164
0.90582 0.5 0.1875 0.00390242
0.90582 0.5 -0.1875 0.00390046
0.350249 0.5 -0.8625 0.00376879
0.350249 0.5 0.8625 0.00376955
0.835106 0.5 0.4125 0.00386537
0.835106 0.5 -0.4125 0.00386302
0.715434 0.5 0.6 0.00382437
0.715434 0.5 -0.6 0.00382255
0.939201 0.5 4.40909e-17 0.00391932
0.075776 0.5 -0.9375 0.00375333
0.075776 0.5 0.9375 0.0037536
0.939201 0.5 0.075 0.00391945
0.939201 0.5 -0.075 0.00391838
0.756814 0.5 0.5625 0.00383579
0.756814 0.5 -0.5625 0.00383358
0.905821 0.5 0.2625 0.00390045
0.905821 0.5 -0.2625 0.00389763
0.288069 0.5 0.9 0.00376546
0.288069 0.5 -0.901373 0.0037647
0.872064 0.5 0.375 0.00388155
0.872064 0.5 -0.375 0.00387847
0.939201 0.5 -0.15 0.00391662
0.939201 0.5 0.15 0.00391873
0.797732 0.5 0.525 0.00384935
0.797732 0.5 -0.525 0.00384644
0.219993 0.5 -0.9375 0.00376039
0.219992 0.5 0.9375 0.0037611
0.939201 0.5 0.225 0.00391715
0.939201 0.5 -0.225 0.00391395
0.90582 0.5 0.3375 0.00389765
0.90582 0.5 -0.3375 0.00389402
0.835106 0.5 -0.4875 0.00385946
0.835107 0.5 0.4875 0.00386288
0 0.5 0.968821 0.00375
0 0.5 -0.968821 0.00375
0.0124865 0.5 0.968821 0.00375059
0.0124865 0.5 -0.968821 0.00375055
0.969689 0.5 0.0375 0.0039347
0.969689 0.5 -0.0375 0.00393402
0.574156 0.5 0.7875 0.00379411
0.574156 0.5 -0.7875 0.00379267
0 0.5 0.975 0.00375
0 0.5 -0.975 0.00375
0.624316 0.5 0.75 0.00380297
0.624316 0.5 -0.75 0.00380114
0.969689 0.5 0.1125 0.00393448
0.96969 0.5 -0.1125 0.00393251
0.523432 0.5 0.825 0.00378727
0.523432 0.5 -0.825 0.0037859
0.67013 0.5 0.7125 0.00381179
0.67013 0.5 -0.7125 0.00380972
0 0.5 -0.981179 0.00375
0 0.5 0.981179 0.00375
0.467897 0.5 0.8625 0.00378033
0.467897 0.5 -0.8625 0.00377916
0.0124865 0.5 0.981179 0.0037506
0.0124865 0.5 -0.981179 0.00375055
0.872064 0.5 0.45 0.0038786
0.872064 0.5 -0.45 0.0038745
0.715434 0.5 0.675 0.00382278
0.715434 0.5 -0.675 0.00382011
0.939201 0.5 0.3 0.00391467
0.939201 0.5 -0.3 0.00391035
0.151149 0.5 0.975 0.00375751
0.151149 0.5 -0.975 0.00375699
0.969689 0.5 0.1875 0.00393336
0.969689 0.5 -0.1875 0.00393008
0.756814 0.5 0.6375 0.00383379
0.756814 0.5 -0.6375 0.00383066
0.411736 0.5 0.9 0.00377511
0.411736 0.5 -0.901373 0.00377397
0.90582 0.5 0.4125 0.0038943
0.90582 0.5 -0.4125 0.00388967
0.797732 0.5 0.6 0.0038469
0.797732 0.5 -0.6 0.00384298
1.00005 0.5 1.48897e-17 0.00394841
0.350249 0.5 -0.9375 0.00376867
0.350249 0.5 0.9375 0.00376972
1.00005 0.5 0.0749309 0.00394874
1.00005 0.5 -0.0749309 0.0039472
0.969689 0.5 0.2625 0.0039313
0.969689 0.5 -0.2625 0.00392661
0.835106 0.5 0.5625 0.00386006
0.835106 0.5 -0.5625 0.00385551
1.00005 0.5 0.149862 0.00394814
1.00005 0.5 -0.149862 0.00394507
0.939201 0.5 0.375 0.00391133
0.939201 0.5 -0.375 0.00390581
0.075776 0.5 1.0125 0.00375362
0.075776 0.5 -1.0125 0.00375335
0.288069 0.5 0.975 0.00376558
0.288069 0.5 -0.975 0.0037646
0.872064 0.5 0.525 0.00387539
0.872064 0.5 -0.525 0.00387003
1.00005 0.5 0.224793 0.0039466
1.00005 0.5 -0.224793 0.00394193
0.96969 0.5 0.3375 0.00392822
0.96969 0.5 -0.3375 0.00392215
1.0271 0.5 0.0368226 0.00396425
1.0271 0.5 -0.0368226 0.00396336
0.90582 0.5 0.4875 0.00389074
0.90582 0.5 -0.4875 0.00388482
1.0271 0.5 0.110468 0.00396422
1.0271 0.5 -0.110468 0.00396155
0.67013 0.5 -0.7875 0.00380762
0.67013 0.5 0.7875 0.00381054
0.624316 0.5 0.825 0.00380206
0.624316 0.5 -0.825 0.00379946
0.219992 0.5 -1.0125 0.0037604
0.219993 0.5 1.0125 0.0037612
0.574156 0.5 0.8625 0.00379356
0.574156 0.5 -0.8625 0.00379142
0.715434 0.5 0.75 0.00382107
0.715434 0.5 -0.75 0.00381747
0.756813 0.5 -0.7125 0.00382752
0.756814 0.5 0.7125 0.00383165
0.523432 0.5 0.9 0.00378692
0.939201 0.5 0.45 0.00390735
0.939201 0.5 -0.45 0.00390039
1.04168 0.5 0 0.00397172
0.523432 0.5 -0.901373 0.00378497
1.0271 0.5 0.184113 0.00396324
1.0271 0.5 -0.184113 0.00395876
0 0.5 1.04382 0.00375
0 0.5 -1.04382 0.00375
0.0124865 0.5 1.04382 0.0037506
0.0124865 0.5 -1.04382 0.00375055
1.00005 0.5 0.299723 0.00394405
1.00005 0.5 -0.299723 0.00393775
1.04168 0.5 0.0729162 0.00397221
1.04168 0.5 -0.0729162 0.00397031
0.797732 0.5 0.675 0.00384425
0.797732 0.5 -0.675 0.00383924
0.467897 0.5 -0.9375 0.00377853
0.467897 0.5 0.9375 0.0037802
0 0.5 1.05 0.00375
0 0.5 -1.05 0.00375
0.835106 0.5 0.6375 0.00385694
0.835106 0.5 -0.6375 0.00385124
1.04168 0.5 0.145832 0.00397176
1.04168 0.5 -0.145832 0.00396792
0.969689 0.5 -0.4125 0.00391645
0.96969 0.5 0.4125 0.00392409
0 0.5 1.05618 0.00375
0 0.5 -1.05618 0.00375
0.0124865 0.5 1.05618 0.0037506
0.0124865 0.5 -1.05618 0.00375055
1.05695 0.5 -0.0360764 0.00397921
1.05695 0.5 0.0360764 0.00398021
0.411736 0.5 0.975 0.00377506
0.411736 0.5 -0.975 0.00377349
0.872064 0.5 0.6 0.00387184
0.872064 0.5 -0.6 0.00386511
1.0271 0.5 0.257759 0.00396127
1.0271 0.5 -0.257759 0.00395491
0.151149 0.5 -1.05 0.00375696
0.151149 0.5 1.05 0.00375753
1.05695 0.5 0.108229 0.0039803
1.05695 0.5 -0.108229 0.00397723
1.04168 0.5 0.218749 0.00397033
1.04168 0.5 -0.218749 0.00396451
0.90582 0.5 0.5625 0.0038868
0.90582 0.5 -0.5625 0.00387938
1.00005 0.5 0.374654 0.00394044
1.00005 0.5 -0.374654 0.00393239
0.350249 0.5 1.0125 0.00376976
0.350249 0.5 -1.0125 0.00376843
1.05695 0.5 0.180382 0.00397942
1.05695 0.5 -0.180382 0.00397425
0.939201 0.5 0.525 0.0039029
0.939201 0.5 -0.525 0.00389434
1.0271 0.5 -0.331404 0.00394999
1.0271 0.5 0.331404 0.00395826
1.08112 0.5 3.20924e-17 0.00399374
1.04168 0.5 0.291665 0.00396788
1.04168 0.5 -0.291665 0.00396004
1.08112 0.5 0.0709442 0.00399439
1.08112 0.5 -0.0709442 0.00399212
0.96969 0.5 0.4875 0.00391923
0.96969 0.5 -0.4875 0.00390973
1.05695 0.5 0.252535 0.00397753
1.05695 0.5 -0.252535 0.00397022
0.288069 0.5 1.05 0.00376559
0.288069 0.5 -1.05 0.00376442
0.075776 0.5 -1.0875 0.00375333
0.075776 0.5 1.0875 0.00375361
1.08112 0.5 0.141888 0.00399408
1.08112 0.5 -0.141888 0.00398949
0.715434 0.5 0.825 0.00381924
0.715434 0.5 -0.825 0.00381468
0.756814 0.5 0.7875 0.00382937
0.756814 0.5 -0.7875 0.0038242
0.67013 0.5 0.8625 0.00380918
0.67013 0.5 -0.8625 0.00380538
0.797732 0.5 0.75 0.00384143
0.797732 0.5 -0.75 0.00383529
0.624316 0.5 0.9 0.00380103
1.00005 0.5 0.449585 0.00393584
1.00005 0.5 -0.449585 0.00392583
0.624316 0.5 -0.901373 0.00379763
0.835106 0.5 0.7125 0.00385362
0.835106 0.5 -0.7125 0.00384668
0.574156 0.5 -0.9375 0.00379003
0.574156 0.5 0.9375 0.00379287
1.10076 0.5 0.0349809 0.00400591
1.10076 0.5 -0.0349809 0.00400472
1.08112 0.5 0.212832 0.00399278
1.08112 0.5 -0.212832 0.00398582
0.872064 0.5 0.675 0.00386798
0.872064 0.5 -0.675 0.00385985
1.04168 0.5 -0.364581 0.00395436
1.04168 0.5 0.364581 0.00396433
1.0271 0.5 -0.405049 0.00394374
1.0271 0.5 0.405049 0.00395411
1.05695 0.5 0.324688 0.0039746
1.05695 0.5 -0.324688 0.00396509
1.10076 0.5 -0.104943 0.00400247
1.10076 0.5 0.104943 0.00400618
0.523432 0.5 0.975 0.00378643
0.523432 0.5 -0.975 0.00378387
0.90582 0.5 0.6375 0.00388251
0.90582 0.5 -0.6375 0.00387342
0.219992 0.5 1.0875 0.0037612
0.219992 0.5 -1.0875 0.0037603
1.11376 0.5 1.15648e-18 0.00401322
0.939201 0.5 0.6 0.00389802
0.939201 0.5 -0.6 0.00388786
1.10076 0.5 0.174905 0.00400545
1.10076 0.5 -0.174905 0.00399921
0.467897 0.5 -1.0125 0.00377776
0.467897 0.5 1.0125 0.00377992
1.11376 0.5 0.0693118 0.00401401
1.11376 0.5 -0.0693118 0.00401142
1.08112 0.5 0.283777 0.00399043
1.08112 0.5 -0.285603 0.00398066
0 0.5 -1.11882 0.00375
0 0.5 1.11882 0.00375
0.0124865 0.5 1.11882 0.0037506
0.0124865 0.5 -1.11882 0.00375055
0.969689 0.5 0.5625 0.00391387
0.969689 0.5 -0.5625 0.00390259
1.11376 0.5 0.138624 0.00401383
1.11376 0.5 -0.138624 0.00400857
0 0.5 1.125 0.00375
0 0.5 -1.125 0.00375
1.10076 0.5 0.244866 0.00400369
1.10076 0.5 -0.244866 0.00399487
0.411736 0.5 -1.05 0.00377291
0.411736 0.5 1.05 0.00377486
1.05695 0.5 -0.396841 0.00395745
1.05695 0.5 0.396841 0.00397053
1.00005 0.5 0.524516 0.00393052
1.00005 0.5 -0.525427 0.0039183
1.04168 0.5 -0.437497 0.00394741
1.04168 0.5 0.437497 0.0039597
0 0.5 1.13118 0.00375
0 0.5 -1.13118 0.00375
0.0124865 0.5 -1.13118 0.00375054
0.0124865 0.5 1.13118 0.00375059
1.11376 0.5 0.207935 0.00401263
1.0271 0.5 -0.478694 0.00393639
1.0271 0.5 0.478694 0.003949
1.11376 0.5 -0.213207 0.00400467
1.07791 0.5 -0.354722 0.00397294
0.151149 0.5 1.125 0.00375749
0.151149 0.5 -1.125 0.00375687
1.08112 0.5 0.354722 0.00398699
1.13882 0.5 0.0340295 0.00402951
1.13882 0.5 -0.0340295 0.00402811
0.350249 0.5 1.0875 0.00376966
0.350249 0.5 -1.0875 0.00376805
1.13882 0.5 0.102088 0.00402993
1.13882 0.5 -0.102088 0.00402561
1.10076 0.5 0.314829 0.00400088
1.10076 0.5 -0.314829 0.00398944
0.756813 0.5 -0.8625 0.00382073
0.756814 0.5 0.8625 0.00382699
0.797732 0.5 0.825 0.0038385
0.797732 0.5 -0.825 0.00383118
1.11376 0.5 -0.277247 0.00399984
1.11376 0.5 0.277247 0.00401037
0.835106 0.5 0.7875 0.00385016
0.835106 0.5 -0.7875 0.00384195
0.715434 0.5 0.9 0.0038173
0.872064 0.5 0.75 0.00386389
0.872064 0.5 -0.75 0.00385439
0.715434 0.5 -0.901373 0.0038117
1.13882 0.5 -0.170147 0.00402205
1.13882 0.5 0.170147 0.00402935
0.67013 0.5 -0.9375 0.00380301
0.67013 0.5 0.9375 0.0038077
0.90582 0.5 0.7125 0.00387788
0.90582 0.5 -0.7125 0.00386725
1.05695 0.5 -0.468994 0.00394932
1.05695 0.5 0.468994 0.00396541
0.939201 0.5 0.675 0.00389281
0.939201 0.5 -0.675 0.00388104
0.624316 0.5 0.975 0.00379987
0.624316 0.5 -0.975 0.00379568
1.04168 0.5 -0.510414 0.00393967
1.04168 0.5 0.510414 0.0039542
0.969689 0.5 0.6375 0.00390796
0.969689 0.5 -0.6375 0.00389529
0.288069 0.5 1.125 0.00376548
0.288069 0.5 -1.125 0.00376413
1.16179 0.5 1.04083e-17 0.00404418
1.08112 0.5 -0.425666 0.00396787
1.08112 0.5 0.425666 0.00398243
1.13882 0.5 -0.238206 0.00401577
1.13882 0.5 0.238206 0.0040277
1.16179 0.5 0.0669104 0.00404521
1.16179 0.5 -0.0669104 0.00404207
0.574156 0.5 -1.0125 0.00378851
0.574156 0.5 1.0125 0.00379203
0.998291 0.5 -0.599796 0.00390956
0.075776 0.5 -1.1625 0.00375328
0.075776 0.5 1.1625 0.00375356
1.00005 0.5 0.599447 0.00392442
1.10076 0.5 -0.384791 0.00398267
1.10076 0.5 0.384791 0.00399693
1.0271 0.5 0.55234 0.00394312
1.0271 0.5 -0.55234 0.00393197
1.11376 0.5 -0.346559 0.00399347
1.11376 0.5 0.346559 0.00400702
1.16179 0.5 0.133821 0.00404523
1.16179 0.5 -0.133821 0.0040385
0.523432 0.5 -1.05 0.00378265
0.523432 0.5 1.05 0.0037858
1.17463 0.5 0.0331343 0.0040529
1.17463 0.5 -0.0331343 0.00405131
1.15837 0.5 -0.200731 0.00403253
1.17463 0.5 0.0994029 0.00405347
1.17463 0.5 -0.0994029 0.00404853
1.16179 0.5 0.200074 0.00404398
1.13882 0.5 -0.306265 0.00401164
1.13882 0.5 0.306265 0.00402498
0.219992 0.5 1.1625 0.00376108
0.219992 0.5 -1.1625 0.00376011
0.467897 0.5 -1.0875 0.00377687
0.467897 0.5 1.0875 0.0037795
1.17463 0.5 0.165672 0.00405303
1.17463 0.5 -0.165672 0.00404467
1.05695 0.5 0.541147 0.0039595
1.05695 0.5 -0.541147 0.00394293
1.18772 0.5 -1.15648e-18 0.00406095
1.11376 0.5 -0.41587 0.00398598
1.11376 0.5 0.41587 0.00400253
1.18772 0.5 0.0655187 0.00406211
1.08112 0.5 0.49661 0.00397692
1.08112 0.5 -0.49661 0.00395983
1.18772 0.5 -0.0699161 0.00405867
1.10076 0.5 -0.454752 0.00397468
1.10076 0.5 0.454752 0.00399185
1.16179 0.5 0.267642 0.00404141
1.16179 0.5 -0.267642 0.00402912
0 0.5 1.19382 0.00375
0 0.5 -1.19382 0.00375
0.0124865 0.5 -1.19382 0.00375054
0.0124865 0.5 1.19382 0.00375059
1.04168 0.5 -0.58333 0.00393133
1.04168 0.5 0.58333 0.00394773
1.18772 0.5 0.131228 0.00406193
1.18772 0.5 -0.131228 0.00405542
1.17463 0.5 0.23194 0.00405148
1.17463 0.5 -0.23194 0.00403972
0.411736 0.5 1.125 0.00377454
0.411736 0.5 -1.125 0.00377222
1.13882 0.5 0.374324 0.00402112
1.13882 0.5 -0.374324 0.00400456
0 0.5 1.2 0.00375
0 0.5 -1.2 0.00375
0.90582 0.5 0.7875 0.00387299
0.90582 0.5 -0.7875 0.00386089
0.872064 0.5 0.825 0.00385963
0.872064 0.5 -0.825 0.00384876
0.835106 0.5 -0.8625 0.00383709
0.835106 0.5 0.8625 0.00384658
1.18534 0.5 0.196842 0.0040598
0.939201 0.5 0.75 0.0038874
0.939201 0.5 -0.75 0.00387394
0.797732 0.5 0.9 0.00383545
1.0271 0.5 -0.625985 0.00391993
1.0271 0.5 0.625985 0.00393615
0.969689 0.5 0.7125 0.00390202
0.96969 0.5 -0.7125 0.00388746
0.797732 0.5 -0.901373 0.00382687
1.18772 0.5 -0.196842 0.0040509
0.756813 0.5 -0.9375 0.00381714
0.756813 0.5 0.9375 0.0038245
0.998291 0.5 -0.67477 0.0039013
1.15863 0.5 0.334552 0.00403675
0 0.5 1.20618 0.00375
0 0.5 -1.20618 0.00375
1.00005 0.5 0.674378 0.00391788
0.0124865 0.5 -1.20618 0.00375053
0.0124865 0.5 1.20618 0.00375058
1.16179 0.5 -0.334552 0.00402247
0.715434 0.5 0.975 0.00381525
0.715434 0.5 -0.975 0.0038087
0.151149 0.5 1.2 0.00375737
0.151149 0.5 -1.2 0.00375672
1.20942 0.5 -0.0322645 0.00407483
1.20942 0.5 0.0322645 0.00407664
1.18534 0.5 0.249669 0.00405825
1.17463 0.5 0.298209 0.00404883
1.17463 0.5 -0.298209 0.00403364
1.20942 0.5 0.0967935 0.00407737
1.20942 0.5 -0.0967935 0.00407178
0.350249 0.5 1.1625 0.00376944
0.350249 0.5 -1.1625 0.00376756
0.67013 0.5 1.0125 0.0038061
0.67013 0.5 -1.0125 0.00380051
1.11376 0.5 -0.485183 0.00397768
1.11376 0.5 0.485183 0.00399704
1.18772 0.5 -0.262456 0.00404524
1.10076 0.5 -0.524714 0.00396629
1.10076 0.5 0.524714 0.00398593
1.20942 0.5 0.161322 0.00407774
1.20942 0.5 -0.161322 0.00406823
1.08112 0.5 -0.567554 0.00395119
1.08112 0.5 0.567554 0.00397043
0.624316 0.5 1.05 0.00379857
0.624316 0.5 -1.05 0.00379361
1.13882 0.5 0.442383 0.00401611
1.13882 0.5 -0.442383 0.00399629
1.05695 0.5 -0.6133 0.00393407
1.05695 0.5 0.6133 0.00395242
1.15863 0.5 0.401463 0.00403236
1.16179 0.5 -0.401463 0.00401454
0.574156 0.5 1.0875 0.00379107
0.574157 0.5 -1.0875 0.00378688
1.17463 0.5 0.364477 0.00404504
1.17463 0.5 -0.364477 0.00402623
1.20942 0.5 0.225851 0.00407629
1.20942 0.5 -0.225851 0.00406293
1.23036 0.5 -1.38778e-17 0.00409232
1.04168 0.5 -0.656246 0.00392223
1.04168 0.5 0.656246 0.00394051
1.23036 0.5 -0.0634819 0.00408942
1.23036 0.5 0.0634819 0.00409374
1.18772 0.5 0.32807 0.00405619
1.18772 0.5 -0.32807 0.00403835
0.288069 0.5 1.2 0.00376525
0.288069 0.5 -1.2 0.00376372
1.23036 0.5 0.126964 0.00409407
1.23036 0.5 -0.126964 0.00408583
0.075776 0.5 -1.2375 0.00375321
0.075776 0.5 1.2375 0.00375348
0.523432 0.5 1.125 0.00378505
0.523432 0.5 -1.125 0.00378133
1.0271 0.5 -0.69963 0.00391063
1.0271 0.5 0.69963 0.00392896
1.24274 0.5 -0.0314313 0.00410024
1.24274 0.5 0.0314313 0.0041023
1.20942 0.5 0.29038 0.00407369
1.20942 0.5 -0.29038 0.00405646
1.11376 0.5 -0.554494 0.00396882
1.11376 0.5 0.554494 0.00399055
1.23036 0.5 0.190445 0.00409329
1.23036 0.5 -0.190445 0.00408083
1.24274 0.5 0.0942942 0.0041032
1.24274 0.5 -0.0942942 0.00409687
1.13882 0.5 -0.510442 0.00398756
1.13882 0.5 0.510442 0.00401017
0.998291 0.5 -0.749744 0.00389268
0.969689 0.5 0.7875 0.00389588
0.969689 0.5 -0.7875 0.0038795
1.00005 0.5 0.749309 0.0039112
1.15863 0.5 0.468373 0.0040269
0.939201 0.5 0.825 0.00388176
0.939201 0.5 -0.825 0.00386673
1.2484 0.5 -0.0653061 0.00410349
0.90582 0.5 0.8625 0.00386793
0.90582 0.5 -0.8625 0.00385442
1.17463 0.5 -0.430746 0.00401757
1.17463 0.5 0.430746 0.00404006
1.10076 0.5 -0.594676 0.00395714
1.10076 0.5 0.594676 0.00397887
1.18772 0.5 0.393684 0.00405181
1.18772 0.5 -0.393684 0.00403017
1.24274 0.5 -0.157157 0.00409231
1.24274 0.5 0.157157 0.00410304
1.16179 0.5 -0.468373 0.00400579
0.467897 0.5 -1.1625 0.00377588
0.467897 0.5 1.1625 0.00377898
0.872064 0.5 0.9 0.00385525
1.25401 0.5 0 0.00410956
0.872064 0.5 -0.901373 0.00384294
1.24906 0.5 -0.125094 0.00409995
0.835106 0.5 0.9375 0.00384291
0.835106 0.5 -0.9375 0.00383217
1.25401 0.5 0.0622994 0.00411112
1.08112 0.5 -0.638498 0.00394178
1.08112 0.5 0.638498 0.00396306
1.23036 0.5 0.253927 0.00409131
1.23036 0.5 -0.253927 0.00407468
0.219992 0.5 1.2375 0.00376087
0.219992 0.5 -1.2375 0.00375983
1.05695 0.5 -0.685452 0.00392446
1.05695 0.5 0.685452 0.00394495
0.797732 0.5 0.975 0.00383231
0.797732 0.5 -0.975 0.00382267
1.25401 0.5 0.124599 0.00411155
1.20942 0.5 0.354909 0.00406993
1.20942 0.5 -0.354909 0.00404868
1.24274 0.5 0.220019 0.00410169
1.24274 0.5 -0.220019 0.00408663
1.24906 0.5 -0.187641 0.00409474
0.756813 0.5 -1.0125 0.00381349
0.756813 0.5 1.0125 0.0038219
1.25401 0.5 0.186898 0.00411084
0.411736 0.5 1.2 0.0037741
0.411736 0.5 -1.2 0.0037714
0 0.5 1.26882 0.00375
0 0.5 -1.26882 0.00375
0.0124865 0.5 -1.26882 0.00375053
0.0124865 0.5 1.26882 0.00375058
0.715434 0.5 -1.05 0.00380559
0.715434 0.5 1.05 0.00381308
1.23036 0.5 0.31741 0.00408816
1.23036 0.5 -0.31741 0.00406728
1.04168 0.5 -0.729162 0.00391252
1.04168 0.5 0.729162 0.00393303
1.18772 0.5 -0.459298 0.00402116
1.18772 0.5 0.459298 0.00404633
1.24274 0.5 0.282882 0.00409912
1.24274 0.5 -0.282882 0.00407975
0 0.5 1.275 0.00375
0 0.5 -1.275 0.00375
1.27472 0.5 -0.0306319 0.00412576
1.27472 0.5 0.0306319 0.00412809
1.17463 0.5 -0.497015 0.00400851
1.17463 0.5 0.497015 0.00403409
1.15837 0.5 0.534151 0.00402074
1.11376 0.5 0.62266 0.00398291
1.11376 0.5 -0.623806 0.0039592
1.13882 0.5 -0.578501 0.00397814
1.13882 0.5 0.578501 0.004001
0.67013 0.5 1.0875 0.00380437
0.67013 0.5 -1.0875 0.00379793
1.27472 0.5 -0.0918959 0.00412126
1.27472 0.5 0.0918959 0.00412917
1.25401 0.5 -0.249197 0.00409051
1.25401 0.5 0.249197 0.0041089
1.16179 0.5 -0.535284 0.00399652
1.20942 0.5 0.419438 0.00406497
1.20942 0.5 -0.419438 0.00403962
0 0.5 1.28118 0.00375
0 0.5 -1.28118 0.00375
0.0124865 0.5 1.28118 0.00375056
0.0124865 0.5 -1.28118 0.00375051
1.27472 0.5 0.15316 0.00412915