# kMean  POINT_DATA 91132
# x  y  z  kMean
0 0 0 0.00559554
0 0.00368111 0 0.00375
0 0.00749587 0 0.00375
0 0.0114491 0 0.00375
0 0.0155459 0 0.00375
0 0.0197915 0 0.00375
0 0.0241911 0 0.00375
0 0.0287506 0 0.00375
0 0.0334755 0 0.00375
0 0.038372 0 0.00375
0 0.0434463 0 0.00375
0 0.0487048 0 0.00375
0 0.0541543 0 0.00375
0 0.0598016 0 0.00375
0 0.0656539 0 0.00375
0 0.0717187 0 0.00375
0.075776 0.00184056 0 0.00975149
0.075776 0.00558849 3.46945e-18 0.00340438
0.075776 0.00947249 0 0.00305213
0.075776 0.0134975 0 0.00342515
0.075776 0.0176687 0 0.00358764
0 0.0780037 0 0.00375
0.075776 0.0219913 0 0.00365068
0.075776 0.0264709 -3.46945e-18 0.00368271
0.075776 0.031113 3.46945e-18 0.00370113
0.075776 0.0359238 0 0.00371281
0 0.0845169 0 0.00375
0.075776 0.0409091 0 0.00372076
0.075776 0.0460755 0 0.00372645
0 0.0912666 0 0.00375
0.075776 0.0514296 0 0.00373069
0.075776 0.0569779 0 0.00373392
0 0.0982613 0 0.00375
0.075776 0.0627277 -3.46945e-18 0.00373653
0.075776 0.0686863 0 0.00373873
0 0.10551 0 0.00375
0.075776 0.0748612 0 0.00374062
0.075776 0.0812603 0 0.00374223
0 0.113022 0 0.00375
0.075776 0.0878918 0 0.0037436
0 0.120806 0 0.00375
0.075776 0.0947639 0 0.00374474
0.075776 0.101886 -3.46945e-18 0.00374569
0 0.128874 0 0.00375
0.075776 0.109266 0 0.00374649
0 0.137234 0 0.00375
0.075776 0.116914 0 0.00374714
0 0.145897 0 0.00375
0.075776 0.12484 0 0.00374768
0.151552 0 0 0.00608053
0.151552 0.00368111 0 0.00428176
0.151552 0.00749587 0 0.00258653
0.151552 0.0114491 0 0.00293683
0.151552 0.0155459 0 0.00330266
0.151552 0.0197915 0 0.00347791
0.075776 0.133054 -3.46945e-18 0.00374813
0.151552 0.0241911 0 0.0035659
0.151552 0.0287506 0 0.00361782
0 0.154876 0 0.00375
0.151552 0.0334755 0 0.00365113
0.151552 0.038372 0 0.00367372
0.151552 0.0434463 0 0.00368972
0.151552 0.0487048 0 0.00370149
0.075776 0.141565 0 0.00374852
0.151552 0.0541543 0 0.0037104
0.151552 0.0598016 0 0.00371735
0 0.16418 0 0.00375
0.151552 0.0656539 0 0.00372291
0.151552 0.0717187 0 0.00372745
0.075776 0.150387 -3.46945e-18 0.00374887
0.151552 0.0780037 0 0.0037312
0.151552 0.0845169 0 0.00373432
0 0.173822 0 0.00375
0.075776 0.159528 -3.46945e-18 0.00374919
0.151552 0.0912666 0 0.00373691
0.151552 0.0982613 0 0.00373908
0 0.183814 0 0.00375
0.151552 0.10551 0 0.00374092
0.075776 0.169001 0 0.00374949
0.151552 0.113022 0 0.0037425
0.151552 0.120806 0 0.00374387
0 0.194169 0 0.00375
0.075776 0.178818 3.46945e-18 0.00374979
0.151552 0.128874 0 0.00374505
0.075776 0.188991 0 0.00375009
0.151552 0.137234 0 0.00374604
0 0.2049 0 0.00375
0.151552 0.145897 0 0.00374688
0.075776 0.199534 0 0.00375039
0 0.21602 0 0.00375
0.151552 0.154876 0 0.00374759
0.219992 0.00184055 0 0.00269207
0.219992 0.00558849 -3.46945e-18 0.00163227
0.219992 0.00947248 3.46945e-18 0.00235606
0.219992 0.0134975 -3.46945e-18 0.00296039
0.219992 0.0176687 3.46945e-18 0.0032688
0.219992 0.0219913 3.46945e-18 0.00342625
0.219993 0.0264709 0 0.00351946
0.219992 0.031113 -3.46945e-18 0.00357937
0.219992 0.0359237 3.46945e-18 0.0036198
0.151552 0.16418 0 0.00374821
0.075776 0.21046 3.46945e-18 0.00375068
0.219992 0.0409092 0 0.00364815
0.219992 0.0460755 0 0.00366875
0.219993 0.0514296 0 0.00368422
0.219992 0.0569779 0 0.00369615
0 0.227544 0 0.00375
0.219992 0.0627277 0 0.00370555
0.219992 0.0686863 -3.46945e-18 0.0037131
0.151552 0.173822 0 0.00374877
0.219992 0.0748612 3.46945e-18 0.00371924
0.075776 0.221782 0 0.00375097
0.219992 0.0812603 0 0.00372429
0.219992 0.0878917 0 0.00372846
0.151552 0.183814 0 0.00374928
7.47806e-17 0.239487 0 0.00375
0.219993 0.0947639 0 0.00373194
0.219992 0.101886 0 0.00373488
0.075776 0.233515 3.46945e-18 0.00375123
0.219993 0.109266 0 0.00373741
0.151552 0.194169 0 0.00374975
0.219992 0.116914 3.46945e-18 0.00373963
0 0.251863 0 0.00375
0.219992 0.12484 -3.46945e-18 0.00374157
0.151552 0.2049 0 0.0037502
0.075776 0.245675 0 0.00375146
0.219992 0.133054 0 0.00374324
0.219992 0.141566 0 0.00374463
0.151552 0.21602 0 0.00375062
0 0.264688 0 0.00375
0.219993 0.150387 0 0.00374578
0.075776 0.258275 3.46945e-18 0.00375161
0.219992 0.159528 0 0.00374675
0.151552 0.227544 0 0.00375101
0.219993 0.169001 -3.46945e-18 0.00374759
0 0.27798 0 0.00375
0.075776 0.271334 0 0.00375171
0.151552 0.239487 3.70071e-18 0.00375137
0.219992 0.178818 0 0.00374833
0.288433 0 0 0.00179972
0.288433 0.00368111 0 0.00154769
0.288433 0.00749587 0 0.00179029
0.288433 0.0114491 0 0.00259973
0.288433 0.0155459 0 0.00306973
0.288433 0.0197915 0 0.00329634
0.288433 0.0241911 0 0.00341295
0.288433 0.0287506 0 0.00349129
0.219993 0.188991 0 0.003749
0.288433 0.0334755 0 0.00354881
0.288433 0.038372 0 0.00359132
0.288433 0.0434463 0 0.00362308
7.47806e-17 0.291753 0 0.00375
0.288433 0.0487048 0 0.00364723
0.288433 0.0541543 0 0.00366595
0.151552 0.251863 0 0.00375167
0.288433 0.0598016 0 0.00368072
0.075776 0.284867 0 0.00375174
0.288433 0.0656539 0 0.00369254
0.219992 0.199534 0 0.00374961
0.288433 0.0717187 0 0.00370213
0.288433 0.0780037 0 0.00370998
0.288433 0.0845169 0 0.00371644
0.288433 0.0912666 0 0.00372184
0.219992 0.21046 0 0.00375018
0.288433 0.0982613 0 0.0037265
0.151552 0.264688 3.70071e-18 0.00375193
0 0.306027 0 0.00375
0.288433 0.10551 0 0.00373064
0.075776 0.29889 -3.46945e-18 0.00375173
0.288433 0.113022 0 0.00373431
0.219992 0.221782 0 0.0037507
0.288433 0.120806 0 0.00373754
0.288433 0.128874 0 0.00374034
0.151552 0.27798 0 0.00375213
0.288433 0.137234 0 0.00374275
0 0.320819 0 0.00375
0.219993 0.233515 0 0.00375117
0.075776 0.313423 3.46945e-18 0.00375167
0.288433 0.145897 0 0.00374481
0.288433 0.154876 0 0.00374656
0.151552 0.291753 0 0.00375229
0.219993 0.245675 0 0.0037516
0.288433 0.16418 0 0.00374804
0 0.336148 0 0.00375
0.288433 0.173822 0 0.00374929
0.075776 0.328484 0 0.00375159
0.219992 0.258275 0 0.00375199
0.151552 0.306027 0 0.0037524
0.288433 0.183814 0 0.00375036
0.288433 0.194169 0 0.00375126
0.219993 0.271334 0 0.00375235
0.350249 0.00184056 0 0.000972998
0.350249 0.00558849 3.46945e-18 0.000983742
0.350249 0.00947248 0 0.00221907
0.350249 0.0134975 3.46945e-18 0.00287199
0.350249 0.0176687 -3.46945e-18 0.00318432
0.350249 0.0219913 0 0.00331353
0.350249 0.0264709 -3.46945e-18 0.00340137
0.350249 0.031113 0 0.00347349
0 0.352034 0 0.00375
0.350249 0.0359238 3.46945e-18 0.00353005
0.075776 0.344091 0 0.00375149
0.350249 0.0409091 3.46945e-18 0.00357354
0.350249 0.0460755 -3.46945e-18 0.00360706
0.288433 0.2049 0 0.00375205
0.350249 0.0514296 0 0.00363318
0.151552 0.320819 0 0.00375248
0.350249 0.0569779 0 0.00365381
0.350249 0.0627277 0 0.00367032
0.350249 0.0686863 0 0.00368367
0.350249 0.0748612 0 0.00369458
0.350249 0.0812603 0 0.00370354
0.219992 0.284867 0 0.00375266
0.288433 0.21602 0 0.00375273
0.350249 0.0878918 0 0.00371093
0.350249 0.0947639 0 0.00371725
0.350249 0.101886 0 0.00372296
0.350249 0.109266 3.46945e-18 0.00372813
0.288433 0.227544 0 0.00375333
0.075776 0.360265 0 0.00375146
0 0.368496 0 0.00375
0.151552 0.336148 0 0.00375255
0.350249 0.116914 -3.46945e-18 0.0037327
0.219992 0.29889 -3.46945e-18 0.00375293
0.370854 0.0241911 -3.08149e-33 0.00336763
0.350249 0.12484 3.46945e-18 0.00373669
0.350249 0.133054 0 0.00374015
0.288433 0.239487 -9.25154e-19 0.00375387
0.350249 0.141565 3.46945e-18 0.00374315
0.350249 0.150387 0 0.00374573
0.288433 0.251863 0 0.00375436
0.219992 0.313423 0 0.00375317
0.151552 0.352034 0 0.00375263
0.075776 0.377026 -3.46945e-18 0.00375149
0.350249 0.159528 0 0.00374792
0 0.385557 0 0.00375
0.350249 0.169001 3.46945e-18 0.00374977
0.288433 0.264688 0 0.00375482
0.350249 0.178818 3.46945e-18 0.00375129
0.219992 0.328484 0 0.00375338
0.350249 0.188991 0 0.00375255
0.151552 0.368496 0 0.00375276
0.288433 0.27798 3.70071e-18 0.00375526
0.075776 0.394396 -3.46945e-18 0.00375159
0.350249 0.199535 3.46945e-18 0.0037536
7.47806e-17 0.403236 0 0.00375
0.219992 0.344091 -3.46945e-18 0.00375358
0.350249 0.21046 3.46945e-18 0.00375448
0.288433 0.291753 0 0.00375567
0.412065 9.08189e-19 3.08149e-33 0.000802751
0.412065 0.00368111 3.08149e-33 0.000869822
0.412065 0.00749587 3.08149e-33 0.00162521
0.412065 0.0114491 0 0.00263818
0.412065 0.0155459 0 0.00308861
0.412065 0.0197915 0 0.00326446
0.412065 0.0241911 -3.08149e-33 0.00334497
0.412065 0.0264709 0 0.00337574
0.412065 0.0287506 0 0.00340651
0.412065 0.0334755 3.08149e-33 0.00346581
0.412065 0.038372 3.08149e-33 0.00351751
0.151552 0.385557 0 0.00375294
0.412065 0.0434463 0 0.00355995
0.350249 0.221782 3.46945e-18 0.00375523
0.412065 0.0487048 0 0.0035941
0.412065 0.0541543 0 0.00362153
0.412065 0.0569779 0 0.0036326
0.412065 0.0598016 0 0.00364367
0.412065 0.0656539 3.08149e-33 0.00366164
0.412065 0.0717187 3.08149e-33 0.0036763
0.075776 0.412396 -3.46945e-18 0.00375167
0.412065 0.0780037 -2.31298e-18 0.00368831
0.288433 0.306027 0 0.00375606
0.412065 0.0845169 2.31112e-33 0.00369831
0.350249 0.233515 0 0.00375589
0 0.421557 0 0.00375
0.412065 0.0912666 1.54074e-33 0.00370696
0.219992 0.360265 0 0.00375381
0.412065 0.0982613 0 0.00371473
0.412065 0.10551 0 0.00372178
0.412065 0.113022 -2.31298e-18 0.00372812
0.350249 0.245675 3.46945e-18 0.00375647
0.412065 0.120806 0 0.00373375
0.151552 0.403236 0 0.00375315
0.288433 0.320819 0 0.00375643
0.412065 0.128874 -2.31298e-18 0.0037387
0.412065 0.137234 0 0.00374301
0.350249 0.258275 3.46945e-18 0.00375702
0.219993 0.377026 0 0.00375407
0.412065 0.145897 -2.31298e-18 0.00374674
0.075776 0.43105 -3.46945e-18 0.00375173
0.412065 0.154876 -2.31298e-18 0.00374993
0 0.440544 0 0.00375
0.288433 0.336148 0 0.0037568
0.350249 0.271334 0 0.00375755
0.412065 0.16418 -2.31298e-18 0.00375263
0.412065 0.173822 -2.31298e-18 0.00375491
0.151552 0.421557 0 0.00375336
0.412065 0.183814 -2.31298e-18 0.0037568
0.350249 0.284866 3.46945e-18 0.00375807
0.219992 0.394397 -3.46945e-18 0.00375438
0.288433 0.352034 3.70071e-18 0.00375717
0.412065 0.194169 0 0.00375838
0.075776 0.450382 -3.46945e-18 0.00375176
0.412065 0.2049 -2.31298e-18 0.00375967
0 0.46022 0 0.00375
0.350249 0.29889 -3.46945e-18 0.00375859
0.412065 0.21602 0 0.00376075
0.151552 0.440544 0 0.00375355
0.219993 0.412397 3.46945e-18 0.00375472
0.467897 0.00184056 3.46945e-18 0.000644381
0.467897 0.00558849 3.46945e-18 0.000893305
0.288433 0.368496 0 0.00375755
0.467897 0.00947248 0 0.00240142
0.467897 0.0134975 3.46945e-18 0.00304733
0.467897 0.0176687 0 0.00324237
0.467897 0.0219913 0 0.00331545
0.467897 0.0264709 0 0.00335128
0.467897 0.031113 0 0.00340419
0.467897 0.0359238 3.46945e-18 0.00346052
0.467897 0.038372 0 0.00348976
0.467897 0.0409092 0 0.00351072
0.350249 0.313423 3.46945e-18 0.00375911
0.467897 0.0460756 3.46945e-18 0.00355269
0.467897 0.0514296 0 0.00358707
0.412065 0.227544 -2.31298e-18 0.00376165
0.467897 0.0569779 0 0.0036151
0.467897 0.0627277 3.46945e-18 0.00363799
0.467897 0.0686863 3.46945e-18 0.00365671
0.467897 0.0748612 0 0.00367204
0.467897 0.0812603 0 0.0036846
0.467897 0.0878917 0 0.0036954
0.075776 0.470415 0 0.00375178
0.412065 0.239487 -2.31298e-18 0.00376241
0.467897 0.0947639 -3.46945e-18 0.00370524
0.467897 0.101886 0 0.00371421
0.350249 0.328483 3.46945e-18 0.00375962
0.467897 0.109266 0 0.00372235
0 0.48061 0 0.00375
0.288433 0.385557 0 0.00375797
0.467897 0.116914 -3.46945e-18 0.00372964
0.412065 0.251863 -2.31298e-18 0.00376308
0.219992 0.43105 -3.46945e-18 0.00375506
0.467897 0.12484 0 0.00373611
0.151552 0.46022 0 0.00375372
0.467897 0.133054 0 0.0037418
0.467897 0.141566 0 0.00374675
0.412065 0.264688 -2.31298e-18 0.0037637
0.350249 0.344091 0 0.00376013
0.467897 0.150387 3.46945e-18 0.00375101
0.467897 0.154876 0 0.00375432
0.467897 0.159528 0 0.00375464
0.288433 0.403236 0 0.00375841
0.075776 0.491175 0 0.0037518
0.412065 0.27798 -2.31298e-18 0.00376428
0.467897 0.169001 0 0.00375769
0.467897 0.178818 3.46945e-18 0.00376028
0.219992 0.450382 -3.46945e-18 0.00375538
7.47806e-17 0.501741 0 0.00375
0.350249 0.360265 0 0.00376064
0.151552 0.48061 3.70071e-18 0.00375388
0.467897 0.188992 0 0.00376243
0.412065 0.291753 0 0.00376483
0.467897 0.199534 -3.46945e-18 0.00376419
0.288433 0.421557 0 0.00375886
0.467897 0.21046 0 0.00376563
0.412065 0.306027 0 0.00376537
0.350249 0.377026 -3.46945e-18 0.00376116
0.467897 0.221782 -3.46945e-18 0.00376682
0.075776 0.51269 3.46945e-18 0.00375183
0.219992 0.470415 3.46945e-18 0.00375567
0.412065 0.320819 -2.31298e-18 0.00376591
0.467897 0.233515 3.46945e-18 0.0037678
7.47806e-17 0.523639 0 0.00375
0.523729 0 0 0.000555676
0.523729 0.00368111 0 0.000710747
0.523729 0.00749587 0 0.00170143
0.523729 0.0114491 0 0.00288301
0.523729 0.0155459 0 0.00328737
0.523729 0.0197915 3.08149e-33 0.00335405
0.151552 0.501741 0 0.00375403
0.523729 0.0241911 0 0.00336214
0.523729 0.0287506 0 0.00337635
0.523729 0.0334755 0 0.00341422
0.523729 0.038372 -3.08149e-33 0.003462
0.523729 0.0434463 0 0.00350804
0.523729 0.0487048 0 0.00354828
0.523729 0.0541543 0 0.00358222
0.288433 0.440544 0 0.00375932
0.523729 0.0598016 0 0.00361046
0.350249 0.394397 0 0.0037617
0.523729 0.0656539 0 0.00363384
0.467897 0.245675 0 0.00376863
0.523729 0.0717187 0 0.00365312
0.523729 0.0780037 0 0.00366912
0.523729 0.0845169 0 0.00368288
0.523729 0.0912666 0 0.00369525
0.412065 0.336148 0 0.00376645
0.523729 0.0982613 0 0.00370656
0.523729 0.10551 -2.31298e-18 0.00371685
0.467897 0.258275 0 0.00376934
0.523729 0.113022 0 0.00372613
0.523729 0.120806 -3.08149e-33 0.00373443
0.219992 0.491176 3.46945e-18 0.00375595
0.523729 0.12484 0 0.00373811
0.523729 0.128874 -2.31298e-18 0.00374179
0.075776 0.534986 3.46945e-18 0.00375186
0.467897 0.271334 3.46945e-18 0.00376999
0.350249 0.412396 3.46945e-18 0.00376226
0.523729 0.137234 0 0.00374825
0.412065 0.352034 -2.31298e-18 0.003767
0.288433 0.46022 0 0.00375976
0.523729 0.145897 0 0.00375387
0.151552 0.523639 0 0.00375418
0.495813 0.227544 -1.54074e-33 0.0037733
0.523729 0.154876 -3.08149e-33 0.00375871
0 0.546332 0 0.00375
0.523729 0.159528 0 0.00376076
0.467897 0.284867 0 0.00377059
0.523729 0.16418 -2.31298e-18 0.00376282
0.523729 0.173822 0 0.00376629
0.412065 0.368496 0 0.00376755
0.523729 0.183814 0 0.0037692
0.467897 0.29889 3.46945e-18 0.00377117
0.350249 0.431051 0 0.00376284
0.219993 0.51269 3.46945e-18 0.00375622
0.523729 0.194169 0 0.00377161
0.288433 0.48061 0 0.00376017
0.523729 0.2049 0 0.00377357
0.467897 0.313423 0 0.00377173
0.075776 0.55809 0 0.0037519
0.412065 0.385557 0 0.00376812
0.523729 0.21602 -3.08149e-33 0.00377518
0.151552 0.546332 0 0.00375433
0 0.569849 0 0.00375
0.350249 0.450382 3.46945e-18 0.0037634
0.467897 0.328483 -3.46945e-18 0.00377229
0.574156 0.00184055 0 0.000472792
0.574156 0.00558849 0 0.000840136
0.574156 0.00947248 3.46945e-18 0.00266382
0.574156 0.0134975 -3.46945e-18 0.00339869
0.574157 0.0176687 3.46945e-18 0.00344239
0.574156 0.0219913 0 0.00340613
0.574156 0.0264708 0 0.00337192
0.574157 0.031113 3.46945e-18 0.00337818
0.574156 0.0359237 3.46945e-18 0.00341638
0.574157 0.0409092 3.46945e-18 0.00346348
0.523729 0.239487 0 0.00377754
0.574156 0.0460755 -3.46945e-18 0.00350838
0.574156 0.0514296 0 0.00354781
0.412065 0.403236 0 0.00376872
0.574157 0.0569779 0 0.00358135
0.574156 0.0627277 0 0.0036095
0.574156 0.0686863 0 0.00363293
0.219992 0.534985 0 0.00375647
0.288433 0.501741 3.70071e-18 0.00376056
0.574156 0.0748612 0 0.00365228
0.574156 0.0812603 3.46945e-18 0.00366878
0.467897 0.344091 0 0.00377286
0.574156 0.0878917 0 0.00368367
0.523729 0.251863 0 0.00377843
0.574156 0.0947639 -3.46945e-18 0.00369736
0.574156 0.101886 3.46945e-18 0.00370985
0.574156 0.109266 -3.46945e-18 0.00372117
0.574156 0.116914 3.46945e-18 0.00373135
0.412065 0.416977 1.54074e-33 0.00376918
0.350249 0.470415 0 0.00376395
0.523729 0.264688 0 0.00377918
0.075776 0.582034 0 0.00375195
0.574156 0.12484 3.46945e-18 0.00374043
0.574156 0.133054 0 0.00374846
0.412065 0.421557 3.08149e-33 0.00376933
0.151552 0.569849 0 0.00375449
0.467897 0.360265 -3.46945e-18 0.00377344
0.574156 0.141565 -3.46945e-18 0.00375549
0.523729 0.27798 0 0.00377984
0.574156 0.150386 0 0.00376159
0 0.594219 0 0.00375
0.574157 0.159528 0 0.00376682
0.574156 0.16418 0 0.00377045
0.288433 0.523639 -9.25154e-19 0.00376094
0.574156 0.169001 -3.46945e-18 0.00377126
0.523729 0.291753 0 0.00378043
0.219993 0.558091 3.46945e-18 0.00375673
0.467897 0.377027 -3.46945e-18 0.00377404
0.574156 0.178818 0 0.00377499
0.412065 0.440544 -2.31298e-18 0.00376995
0.350249 0.491175 3.46945e-18 0.00376448
0.574156 0.188992 0 0.00377809
0.523729 0.306027 2.31298e-18 0.00378099
0.574156 0.199534 0 0.00378064
0.574157 0.21046 -3.46945e-18 0.00378271
0.075776 0.606847 0 0.003752
0.467897 0.394397 0 0.00377466
0.151552 0.594219 0 0.00375464
0.523729 0.320819 0 0.00378153
0.574156 0.221782 -3.46945e-18 0.00378438
0.412065 0.46022 -2.31298e-18 0.00377057
0.288433 0.546332 0 0.0037613
0 0.619475 0 0.00375
0.574156 0.233515 3.46945e-18 0.00378573
0.350249 0.51269 0 0.00376497
0.219992 0.582034 3.46945e-18 0.00375698
0.523729 0.336148 0 0.00378207
0.467897 0.412396 -3.46945e-18 0.00377531
0.574156 0.245675 3.46945e-18 0.00378681
0.624584 0 0 0.000410778
0.624584 0.00368111 0 0.000618175
0.624584 0.00749587 0 0.00181235
0.624584 0.0114491 0 0.00321708
0.624584 0.0155459 0 0.00363017
0.624584 0.0197915 0 0.00356295
0.624584 0.0241911 3.08149e-33 0.00345822
0.624584 0.0287506 0 0.00340247
0.624584 0.0334755 0 0.00339919
0.624584 0.038372 0 0.00342908
0.624584 0.0434463 0 0.00347043
0.624584 0.0487048 0 0.00351213
0.624584 0.0541543 0 0.0035499
0.624584 0.0598016 0 0.00358266
0.624584 0.0656539 0 0.00361047
0.624584 0.0717187 0 0.00363379
0.624584 0.0780037 0 0.00365364
0.574157 0.258275 -3.46945e-18 0.0037877
0.624584 0.0845169 0 0.00367134
0.523729 0.352034 0 0.00378262
0.624584 0.0912666 0 0.00368764
0.624584 0.0982613 0 0.00370261
0.412065 0.48061 -2.31298e-18 0.00377116
0.624584 0.10551 0 0.00371625
0.624584 0.113022 -2.31298e-18 0.00372859
0.574156 0.271334 -3.46945e-18 0.00378844
0.624584 0.120806 0 0.00373968
0.467897 0.43105 3.46945e-18 0.00377598
0.075776 0.632561 0 0.00375206
0.624584 0.128874 0 0.00374955
0.151552 0.619475 0 0.0037548
0.288433 0.569849 0 0.00376164
0.350249 0.534985 0 0.00376543
0.624584 0.137234 -2.31298e-18 0.00375826
0.523729 0.368496 0 0.00378318
0.574156 0.284867 0 0.00378908
0.624584 0.145897 0 0.00376587
0.467897 0.440544 0 0.00377782
0.624584 0.154876 0 0.00377245
0.219992 0.606847 0 0.00375723
0 0.645647 0 0.00375
0.624584 0.16418 -3.08149e-33 0.00377808
0.574156 0.29889 3.46945e-18 0.00378965
0.624584 0.173822 0 0.00378285
0.412065 0.501741 -2.31298e-18 0.00377173
0.467897 0.450382 -3.46945e-18 0.00377665
0.523729 0.385557 -3.08149e-33 0.00378377
0.624584 0.183814 0 0.00378684
0.624584 0.194169 0 0.00379013
0.574157 0.313423 -3.46945e-18 0.00379018
0.624584 0.2049 0 0.00379283
0.350249 0.558091 0 0.00376588
0.288433 0.594219 0 0.00376198
0.624584 0.21602 0 0.003795
0.523729 0.403236 -3.70071e-18 0.00378439
0.574156 0.328483 -3.46945e-18 0.00379069
0.151552 0.645647 0 0.00375495
0.467897 0.470415 0 0.00377732
0.075776 0.659208 0 0.00375212
0.624584 0.227544 0 0.00379674
0.412065 0.523639 -2.31298e-18 0.00377226
0.523729 0.41545 -1.54074e-33 0.00378481
0.624584 0.239487 3.70071e-18 0.00379813
0.574156 0.344091 3.46945e-18 0.00379121
0.219992 0.632561 0 0.00375748
0.67013 0.00184055 -3.46945e-18 0.000352558
0.67013 0.00558849 -3.46945e-18 0.000811906
0.67013 0.00947248 3.46945e-18 0.00292623
0.67013 0.0134975 -3.46945e-18 0.00385691
0.67013 0.0176687 3.46945e-18 0.00379708
0.67013 0.0219913 0 0.00358923
0.67013 0.0264708 0 0.00345715
0.67013 0.031113 0 0.00339929
0.67013 0.0359237 0 0.00340268
0.67013 0.0409092 3.46945e-18 0.00343509
0.67013 0.0460755 3.46945e-18 0.00347667
0.67013 0.0514296 0 0.00351762
0.523729 0.421557 3.08149e-33 0.00378503
0.67013 0.0569779 0 0.00355461
0 0.67277 0 0.00375
0.67013 0.0627277 -3.46945e-18 0.00358673
0.624584 0.251863 0 0.00379923
0.67013 0.0686863 0 0.00361402
0.67013 0.0748612 0 0.00363701
0.67013 0.0812603 0 0.00365731
0.67013 0.0878918 0 0.0036762
0.67013 0.0947639 0 0.00369367
0.574156 0.360265 3.46945e-18 0.00379174
0.67013 0.101886 0 0.00370967
0.523729 0.431051 0 0.00378536
0.624584 0.264688 0 0.00380011
0.467897 0.491175 3.46945e-18 0.00377796
0.67013 0.109266 3.46945e-18 0.00372422
0.350249 0.582034 0 0.0037663
0.67013 0.116914 0 0.00373736
0.67013 0.12484 0 0.00374912
0.67013 0.133054 0 0.00375957
0.288433 0.619475 0 0.0037623
0.624584 0.27798 2.31298e-18 0.00380082
0.412065 0.546332 -2.31298e-18 0.00377276
0.523729 0.440544 -3.08149e-33 0.00378569
0.67013 0.141566 0 0.00376875
0.685312 0.0241911 -7.70372e-34 0.00358073
0.685312 0.0434463 -7.70372e-34 0.00345714
0.67013 0.150386 0 0.00377675
0.574157 0.377027 -3.46945e-18 0.00379229
0.67013 0.159528 -3.46945e-18 0.00378364
0.624584 0.291753 0 0.00380142
0.151552 0.67277 0 0.0037551
0.075776 0.686823 0 0.00375218
0.67013 0.169001 -3.46945e-18 0.00378951
0.67013 0.178818 0 0.00379445
0.467897 0.51269 0 0.00377856
0.685312 0.113022 -7.70372e-34 0.0037329
0.219992 0.659208 0 0.00375772
0.624584 0.306027 0 0.00380195
0.67013 0.188992 0 0.00379856
0.574157 0.394397 0 0.00379287
0.523729 0.46022 0 0.00378635
0.685312 0.137234 -7.70372e-34 0.00376767
0.67013 0.199535 0 0.00380194
0.350249 0.606847 0 0.0037667
0 0.700877 0 0.00375
0.624584 0.320819 0 0.00380243
0.67013 0.21046 0 0.00380467
0.412065 0.569849 -2.31298e-18 0.00377323
0.67013 0.221782 0 0.00380686
0.574156 0.412396 0 0.00379349
0.288433 0.645647 0 0.00376261
0.624584 0.336148 0 0.00380289
0.67013 0.233516 -3.46945e-18 0.00380859
0.467897 0.534986 0 0.00377912
0.523729 0.48061 0 0.003787
0.624584 0.344091 0 0.00380312
0.67013 0.245675 0 0.00380994
0.715676 4.54095e-19 0 0.000305349
0.715676 0.00368111 -9.25187e-19 0.000555038
0.715676 0.00749587 -9.25187e-19 0.00192896
0.715676 0.0114491 -9.25187e-19 0.00358228
0.715676 0.0155459 -9.25187e-19 0.00407601
0.715676 0.0197915 -9.25187e-19 0.00389075
0.715676 0.0241911 -9.25187e-19 0.00364198
0.715676 0.0287506 0 0.00349092
0.715676 0.0334755 0 0.00342618
0.715676 0.038372 -9.25187e-19 0.00342316
0.624584 0.352034 3.08149e-33 0.00380335
0.715676 0.0434463 -9.25187e-19 0.00345049
0.151552 0.700877 0 0.00375526
0.715676 0.0487048 0 0.00348799
0.715676 0.0541543 0 0.00352631
0.574156 0.43105 3.46945e-18 0.00379413
0.715676 0.0598016 -9.25187e-19 0.0035616
0.67013 0.258275 3.46945e-18 0.003811
0.715676 0.0656539 -9.25187e-19 0.00359256
0.715676 0.0717187 -9.25187e-19 0.00361922
0.075776 0.715441 0 0.00375225
0.715676 0.0780037 0 0.00364265
0.715676 0.0845169 0 0.00366414
0.219992 0.686824 0 0.00375795
0.715676 0.0912666 0 0.00368416
0.715676 0.0982613 0 0.00370268
0.67013 0.271334 3.46945e-18 0.00381183
0.350249 0.632561 -3.46945e-18 0.00376708
0.412065 0.594219 -2.31298e-18 0.00377367
0.715676 0.10551 0 0.00371964
0.715676 0.113022 0 0.00373506
0.624584 0.368496 0 0.00380383
0.523729 0.501741 3.70071e-18 0.00378762
0.715676 0.120806 0 0.00374895
0.715676 0.128874 0 0.00376137
0.67013 0.284867 0 0.00381249
0.467897 0.558091 3.46945e-18 0.00377965
0.715676 0.137234 0 0.00377237
0.574156 0.450382 3.46945e-18 0.00379479
0 0.730005 0 0.00375
0.715676 0.145897 0 0.00378202
0.288433 0.67277 0 0.0037629
0.715676 0.154876 0 0.0037904
0.67013 0.29889 -3.46945e-18 0.00381303
0.624584 0.385557 0 0.00380434
0.715676 0.16418 0 0.00379759
0.715676 0.173822 0 0.0038037
0.715676 0.183814 0 0.00380881
0.67013 0.313423 -3.46945e-18 0.00381349
0.523729 0.523639 3.70071e-18 0.0037882
0.715676 0.194169 0 0.00381304
0.574156 0.470415 0 0.00379544
0.624584 0.403236 -3.70071e-18 0.00380488
0.743101 0.0241911 -7.70372e-34 0.00373709
0.412065 0.619475 -2.31298e-18 0.00377408
0.715676 0.2049 0 0.00381649
0.151552 0.730005 0 0.0037554
0.67013 0.328483 0 0.00381391
0.350249 0.659208 0 0.00376744
0.467897 0.582034 0 0.00378014
0.715676 0.21602 0 0.00381926
0.219992 0.715441 0 0.00375818
0.075776 0.745098 0 0.00375232
0.715676 0.227544 0 0.00382146
0.67013 0.344091 0 0.00381432
0.624584 0.421557 0 0.00380545
0.743101 0.128874 -7.70372e-34 0.00376645
0.715676 0.239487 0 0.00382318
0.574156 0.491175 3.46945e-18 0.00379608
0.756814 0.00184056 -3.46945e-18 0.000260806
0.523729 0.546332 0 0.00378874
0.756813 0.00558849 -3.46945e-18 0.000797967
0.756813 0.00947248 -3.46945e-18 0.00317308
0.756813 0.0134975 -3.46945e-18 0.00435141
0.756814 0.0155459 0 0.00432343
0.756814 0.0176687 0 0.00427053
0.756814 0.0219913 3.46945e-18 0.00388386
0.756814 0.0264709 3.46945e-18 0.00362428
0.756813 0.0311131 3.46945e-18 0.0034759
0.756813 0.0359238 -3.46945e-18 0.00342402
0.288433 0.700877 0 0.00376318
0.756813 0.0409092 -3.46945e-18 0.00343036
0.756813 0.0460755 0 0.00346045
0.756813 0.0514296 0 0.00349825
0.715676 0.251863 0 0.0038245
0.756814 0.0569779 0 0.00353586
0.756814 0.0627277 0 0.0035702
0.756814 0.0686863 0 0.00360018
0 0.76019 0 0.00375
0.756813 0.0748612 0 0.0036264
0.67013 0.360265 -3.46945e-18 0.00381473
0.756814 0.0812603 0 0.00365039
0.756814 0.0878917 0 0.00367293
0.756813 0.0947639 -3.46945e-18 0.00369394
0.715676 0.264688 0 0.00382551
0.756814 0.101886 -3.46945e-18 0.00371332
0.624584 0.440544 0 0.00380604
0.756814 0.109266 0 0.00373105
0.756814 0.116914 0 0.00374712
0.412065 0.645647 0 0.00377446
0.467897 0.606847 -3.46945e-18 0.00378058
0.756814 0.120806 0 0.0037553
0.756813 0.12484 3.46945e-18 0.00376157
0.715676 0.27798 -9.25187e-19 0.00382627
0.756813 0.133054 -3.46945e-18 0.00377445
0.67013 0.377027 0 0.00381516
0.756814 0.137234 0 0.00378114
0.574157 0.51269 3.46945e-18 0.00379669
0.756813 0.141566 3.46945e-18 0.00378581
0.685312 0.352034 -7.70372e-34 0.00382004
0.743101 0.2049 -7.70372e-34 0.00382556
0.350249 0.686824 0 0.00376778
0.756813 0.150386 -3.46945e-18 0.00379574
0.756814 0.154876 0 0.00380109
0.715676 0.291753 3.70074e-18 0.00382686
0.756814 0.159528 3.46945e-18 0.00380433
0.523729 0.569849 0 0.00378923
0.72743 0.264688 0 0.00382965
0.756814 0.16418 0 0.00380907
0.151552 0.76019 3.70071e-18 0.00375555
0.756813 0.169001 -3.46945e-18 0.00381166
0.624584 0.46022 0 0.00380665
0.219993 0.745098 0 0.0037584
0.67013 0.394396 -3.46945e-18 0.00381563
0.756813 0.178818 -3.46945e-18 0.00381785
0.715676 0.306027 -9.25187e-19 0.00382732
0.075776 0.775831 0 0.00375239
0.756814 0.188992 0 0.003823
0.756814 0.199535 0 0.00382723
0.715676 0.320819 0 0.00382771
0.574156 0.534986 3.46945e-18 0.00379724
0.288433 0.730005 0 0.00376344
0.756814 0.21046 3.46945e-18 0.00383065
0.467897 0.632561 0 0.00378099
0.67013 0.412396 -3.46945e-18 0.00381613
0.624584 0.48061 -3.08149e-33 0.00380725
0.756814 0.221782 0 0.00383337
0.412065 0.67277 -2.31298e-18 0.00377481
0.715676 0.336148 0 0.00382805
0 0.791472 0 0.00375
0.756813 0.233515 3.46945e-18 0.0038355
0.523729 0.594219 0 0.00378967
0.624584 0.487654 1.54074e-33 0.00380744
0.756814 0.245675 0 0.00383713
0.350249 0.715441 3.46945e-18 0.00376809
0.67013 0.43105 3.46945e-18 0.00381666
0.715676 0.352034 -9.25187e-19 0.00382839
0.797951 9.08189e-19 0 0.00022494
0.797951 0.00368111 2.31298e-18 0.000508392
0.797951 0.00749587 2.31298e-18 0.00203655
0.797951 0.0114491 2.31298e-18 0.00393631
0.797951 0.0141803 7.70372e-34 0.00435933
0.797951 0.0155459 0 0.00457084
0.797951 0.0169611 7.70372e-34 0.00448875
0.797951 0.0197915 -3.08149e-33 0.00432457
0.797951 0.0219913 0 0.00412594
0.797951 0.0241911 3.08149e-33 0.00392731
0.797951 0.0264709 0 0.00378923
0.797951 0.0287506 -3.08149e-33 0.00365115
0.797951 0.0334755 2.31298e-18 0.00350139
0.797951 0.038372 2.31298e-18 0.00344862
0.797951 0.0434463 2.31298e-18 0.00345096
0.797951 0.0487048 2.31298e-18 0.0034777
0.756814 0.258275 -3.46945e-18 0.00383835
0.797951 0.0541543 2.31298e-18 0.00351257
0.797951 0.0598016 2.31298e-18 0.00354795
0.797951 0.0656539 2.31298e-18 0.00358055
0.574156 0.55809 3.46945e-18 0.00379775
0.624584 0.501741 3.70071e-18 0.00380783
0.797951 0.0717187 2.31298e-18 0.00360965
0.797951 0.0780037 2.31298e-18 0.0036362
0.797951 0.0845169 0 0.00366113
0.797951 0.0912666 0 0.00368458
0.797951 0.0982613 -3.08149e-33 0.00370642
0.756814 0.271334 3.46945e-18 0.00383927
0.797951 0.10551 0 0.00372658
0.715676 0.368496 -9.25187e-19 0.00382873
0.151552 0.791472 3.70071e-18 0.00375569
0.797951 0.113022 0 0.00374498
0.219992 0.775831 3.46945e-18 0.00375861
0.797951 0.118211 7.70372e-34 0.00375609
0.770526 0.239487 -3.08149e-33 0.00384226
0.797951 0.120806 0 0.00376165
0.67013 0.450382 -3.46945e-18 0.00381722
0.797951 0.128874 3.08149e-33 0.0037766
0.467897 0.659208 0 0.00378136
0.756814 0.284867 -3.46945e-18 0.00383993
0.743101 0.320819 -7.70372e-34 0.00383735
0.797951 0.137234 0 0.0037899
0.797951 0.141566 0 0.00379575
0.797951 0.145897 0 0.0038016
0.523729 0.619475 0 0.00379007
0.075776 0.807681 -3.46945e-18 0.00375246
0.797951 0.150387 0 0.00380669
0.797951 0.154876 9.25187e-19 0.00381178
0.715676 0.385557 0 0.00382909
0.412065 0.700877 -2.31298e-18 0.00377512
0.288433 0.76019 0 0.00376369
0.756814 0.29889 0 0.00384042
0.797951 0.16418 0 0.00382055
0.624584 0.523639 3.70071e-18 0.00380836
0.797951 0.167394 7.70372e-34 0.00382304
0.797951 0.173822 0 0.00382801
0.574156 0.582034 0 0.0037982
0.67013 0.470415 0 0.00381778
0.797951 0.183814 -3.08149e-33 0.00383428
0.756814 0.313423 0 0.00384079
0.797951 0.194169 0 0.00383946
0.715676 0.403236 3.70074e-18 0.00382949
0.151552 0.807681 0 0.00375576
0.797951 0.197746 -7.70372e-34 0.00384087
0.350249 0.745097 0 0.00376838
0.797951 0.2049 3.08149e-33 0.00384369
0 0.823889 0 0.00375
0.756813 0.328483 3.46945e-18 0.00384109
0.797951 0.21046 0 0.00384538
0.797951 0.21602 -3.08149e-33 0.00384708
0.797951 0.223703 7.70372e-34 0.00384885
0.797951 0.227544 0 0.00384974
0.624584 0.546332 0 0.00380884
0.715676 0.421557 -9.25187e-19 0.00382993
0.67013 0.491175 3.46945e-18 0.00381833
0.797951 0.231525 7.70372e-34 0.00385043
0.467897 0.686823 0 0.00378169
0.523729 0.645647 0 0.00379041
0.756813 0.344091 0 0.00384135
0.822721 0.120806 7.70372e-34 0.0037668
0.797951 0.239487 -3.08149e-33 0.0038518
0.822721 0.137234 7.70372e-34 0.00379664
0.835106 0.00184055 0 0.000190927
0.835106 0.00558849 0 0.000786057
0.835106 0.00947248 -3.46945e-18 0.00338395
0.835106 0.0134975 -3.46945e-18 0.00481892
0.835106 0.0176687 -3.46945e-18 0.0048157