# kMean  POINT_DATA 63140
# x  y  z  kMean
0 0.1 0 0.00375
0 0.1 -0.0179898 0.00375
0 0.1 0.0179898 0.00375
0.0363518 0.1 -0.0179898 0.00374797
0.0363518 0.1 0.0179898 0.0037479
0 0.1 -0.0570102 0.00375
0 0.1 0.0570102 0.00375
0.0363518 0.1 0.0570102 0.0037479
0.0363518 0.1 -0.0570102 0.00374797
0 0.1 0.075 0.00375
0 0.1 -0.075 0.00375
0.075776 0.1 -0.0375 0.00374551
0.075776 0.1 0.0375 0.00374537
0 0.1 0.0929898 0.00375
0 0.1 -0.0929898 0.00375
0.0363518 0.1 0.0929898 0.00374801
0.0363518 0.1 -0.0929898 0.00374819
0 0.1 0.13201 0.00375
0 0.1 -0.13201 0.00375
0.075776 0.1 0.1125 0.00374559
0.075776 0.1 -0.1125 0.00374598
0.0363518 0.1 0.13201 0.00374801
0.0363518 0.1 -0.13201 0.00374819
0 0.1 0.15 0.00375
0 0.1 -0.15 0.00375
0.150379 0.1 -8.67362e-19 0.00373964
0.150379 0.1 0.0710023 0.00373967
0 0.1 0.16799 0.00375
0 0.1 -0.16799 0.00375
0.150379 0.1 -0.075 0.00374025
0.0363518 0.1 0.16799 0.00374827
0.0363518 0.1 -0.16799 0.00374844
0.075776 0.1 0.1875 0.00374613
0.075776 0.1 -0.1875 0.00374648
0 0.1 0.20701 0.00375
0 0.1 -0.20701 0.00375
0.0363518 0.1 0.20701 0.00374827
0.0363518 0.1 -0.20701 0.00374844
0.150379 0.1 -0.15 0.00374103
0.150379 0.1 0.15 0.00374014
0.219992 0.1 -0.0375 0.00373443
0.219992 0.1 0.0375 0.00373377
0 0.1 0.225 0.00375
0 0.1 -0.225 0.00375
0 0.1 0.24299 0.00375
0 0.1 -0.24299 0.00375
0.0363518 0.1 0.24299 0.00374859
0.0363518 0.1 -0.24299 0.00374866
0.219992 0.1 0.1125 0.00373412
0.219993 0.1 -0.1125 0.00373557
0.150379 0.1 -0.225 0.00374178
0.150379 0.1 0.225 0.00374104
0.075776 0.1 -0.2625 0.00374693
0.075776 0.1 0.2625 0.0037468
0 0.1 -0.28201 0.00375
0 0.1 0.28201 0.00375
0.0363518 0.1 -0.28201 0.00374866
0.0363518 0.1 0.28201 0.00374859
0.287374 0.1 0 0.00372764
0.219992 0.1 -0.1875 0.00373657
0.219993 0.1 0.1875 0.00373523
0.287374 0.1 0.0710023 0.00372739
0.287374 0.1 -0.075 0.00372875
0 0.1 0.3 0.00375
0 0.1 -0.3 0.00375
0 0.1 0.31799 0.00375
0 0.1 -0.31799 0.00375
0.0363518 0.1 0.31799 0.00374889
0.0363518 0.1 -0.31799 0.00374888
0.287374 0.1 0.15 0.00372789
0.287374 0.1 -0.15 0.00372998
0.150379 0.1 -0.3 0.00374246
0.150379 0.1 0.3 0.003742
0.219993 0.1 -0.2625 0.00373757
0.219993 0.1 0.2625 0.00373647
0.075776 0.1 0.3375 0.00374742
0.075776 0.1 -0.3375 0.00374739
0.350249 0.1 0.0375 0.00372089
0.350249 0.1 -0.0375 0.003722
0 0.1 -0.35701 0.00375
0 0.1 0.35701 0.00375
0.0363518 0.1 0.35701 0.00374889
0.0363518 0.1 -0.35701 0.00374888
0.287374 0.1 0.225 0.0037291
0.287374 0.1 -0.225 0.00373108
0.350249 0.1 0.1125 0.00372086
0.350249 0.1 -0.1125 0.00372351
0 0.1 0.375 0.00375
0 0.1 -0.375 0.00375
0 0.1 -0.39299 0.00375
0 0.1 0.39299 0.00375
0.0363518 0.1 -0.39299 0.00374911
0.0363518 0.1 0.39299 0.00374916
0.350249 0.1 -0.1875 0.00372478
0.350249 0.1 0.1875 0.00372189
0.219992 0.1 0.3375 0.00373778
0.219993 0.1 -0.3375 0.00373839
0.150379 0.1 0.375 0.00374285
0.150379 0.1 -0.375 0.00374297
0.411108 0.1 0 0.00371656
0.287374 0.1 0.3 0.00373048
0.287374 0.1 -0.3 0.00373203
0.411108 0.1 0.0710023 0.00371593
0.411108 0.1 -0.075 0.00371795
0.075776 0.1 0.4125 0.00374796
0.075776 0.1 -0.4125 0.00374787
0 0.1 0.43201 0.00375
0 0.1 -0.43201 0.00375
0.0363518 0.1 0.43201 0.00374916
0.0363518 0.1 -0.43201 0.00374911
0.411108 0.1 -0.15 0.00371938
0.411108 0.1 0.15 0.00371606
0.350249 0.1 -0.2625 0.00372588
0.350249 0.1 0.2625 0.00372336
0 0.1 0.45 0.00375
0 0.1 -0.45 0.00375
0.219992 0.1 -0.4125 0.00373865
0.219992 0.1 0.4125 0.00373867
0 0.1 0.46799 0.00375
0 0.1 -0.46799 0.00375
0.411108 0.1 0.225 0.00371714
0.411108 0.1 -0.225 0.00372056
0.467897 0.1 -0.0375 0.00371252
0.467897 0.1 0.0375 0.00371116
0.0363518 0.1 0.46799 0.0037494
0.0363518 0.1 -0.46799 0.00374936
0.287374 0.1 0.375 0.00373172
0.287374 0.1 -0.375 0.00373267
0.150379 0.1 0.45 0.00374345
0.150379 0.1 -0.45 0.00374346
0.467897 0.1 0.1125 0.00371064
0.467897 0.1 -0.1125 0.0037141
0.350249 0.1 0.3375 0.00372485
0.350249 0.1 -0.3375 0.00372674
0.075776 0.1 -0.4875 0.00374838
0.075776 0.1 0.4875 0.00374847
0.467897 0.1 0.1875 0.00371122
0.467897 0.1 -0.1875 0.00371545
0 0.1 0.50701 0.00375
0 0.1 -0.50701 0.00375
0.0363518 0.1 -0.50701 0.00374936
0.0363518 0.1 0.50701 0.0037494
0.411108 0.1 0.3 0.00371856
0.411108 0.1 -0.3 0.00372149
0.522865 0.1 -9.1073e-18 0.00370917
0 0.1 0.525 0.00375
0 0.1 -0.525 0.00375
0.522865 0.1 0.0710023 0.00370822
0.522865 0.1 -0.075 0.00371062
0.287374 0.1 0.45 0.00373257
0.287374 0.1 -0.45 0.00373325
0.219992 0.1 -0.4875 0.00373937
0.219992 0.1 0.4875 0.00373911
0.467897 0.1 0.2625 0.00371248
0.467897 0.1 -0.2625 0.00371646
0.350249 0.1 -0.4125 0.00372734
0.350249 0.1 0.4125 0.0037261
0 0.1 0.54299 0.00375
0 0.1 -0.54299 0.00375
0.522865 0.1 -0.15 0.00371199
0.522865 0.1 0.15 0.00370786
0.0363518 0.1 0.54299 0.00374966
0.0363518 0.1 -0.54299 0.00374962
0.150379 0.1 -0.525 0.00374411
0.150379 0.1 0.525 0.00374399
0.411108 0.1 0.375 0.00371992
0.411108 0.1 -0.375 0.00372216
0.075776 0.1 0.5625 0.003749
0.075776 0.1 -0.5625 0.00374891
0.522865 0.1 0.225 0.00370848
0.522865 0.1 -0.225 0.00371302
0.574156 0.1 0.0375 0.00370582
0.574157 0.1 -0.0375 0.00370727
0.467897 0.1 -0.3375 0.00371719
0.467897 0.1 0.3375 0.00371393
0 0.1 0.58201 0.00375
0 0.1 -0.58201 0.00375
0.0363518 0.1 0.58201 0.00374966
0.0363518 0.1 -0.58201 0.00374962
0.574156 0.1 0.1125 0.00370488
0.574156 0.1 -0.1125 0.0037087
0.287374 0.1 0.525 0.00373322
0.287374 0.1 -0.525 0.00373402
0 0.1 0.6 0.00375
0 0.1 -0.6 0.00375
0.350249 0.1 0.4875 0.0037269
0.350249 0.1 -0.4875 0.00372808
0.522865 0.1 -0.3 0.0037137
0.522865 0.1 0.3 0.00370959
0.219992 0.1 0.5625 0.00373978
0.219992 0.1 -0.5625 0.0037402
0.574156 0.1 0.1875 0.00370483
0.574157 0.1 -0.1875 0.00370981
0.411108 0.1 0.45 0.00372095
0.411108 0.1 -0.45 0.00372275
0 0.1 0.61799 0.00375
0 0.1 -0.61799 0.00375
0.150379 0.1 0.6 0.00374461
0.150379 0.1 -0.6 0.00374478
0.0363518 0.1 -0.61799 0.00374987
0.0363518 0.1 0.61799 0.00374992
0.623413 0.1 0 0.00370602
0.467897 0.1 0.4125 0.00371517
0.467897 0.1 -0.4125 0.0037177
0.623803 0.1 0.0710023 0.00370487
0.623803 0.1 -0.075 0.00370737
0.574156 0.1 0.2625 0.00370554
0.574157 0.1 -0.2625 0.00371048
0.623803 0.1 -0.15 0.00370846
0.623803 0.1 0.15 0.00370401
0.075776 0.1 0.6375 0.00374954
0.075776 0.1 -0.6375 0.00374943
0.522865 0.1 -0.375 0.00371408
0.522865 0.1 0.375 0.00371076
0 0.1 0.65701 0.00375
0 0.1 -0.65701 0.00375
0.0363518 0.1 0.65701 0.00374992
0.0363518 0.1 -0.65701 0.00374987
0.350249 0.1 0.5625 0.00372758
0.350249 0.1 -0.5625 0.00372887
0.623803 0.1 0.225 0.00370401
0.623803 0.1 -0.225 0.00370912
0.287374 0.1 0.6 0.00373393
0.287374 0.1 -0.6 0.0037348
0.574156 0.1 0.3375 0.00370659
0.574157 0.1 -0.3375 0.00371079
0.411108 0.1 0.525 0.00372164
0.411108 0.1 -0.525 0.00372337
0.67013 0.1 0.0375 0.00370474
0.67013 0.1 -0.0375 0.00370613
0.219993 0.1 0.6375 0.00374054
0.219993 0.1 -0.6375 0.00374097
0 0.1 0.675 0.00375
0 0.1 -0.675 0.00375
0.467897 0.1 0.4875 0.00371599
0.467897 0.1 -0.4875 0.00371819
0.67013 0.1 0.1125 0.00370347
0.67013 0.1 -0.1125 0.00370726
0.522865 0.1 -0.45 0.00371429
0.522865 0.1 0.45 0.00371163
0.150379 0.1 0.675 0.00374526
0.150379 0.1 -0.675 0.00374539
0.623803 0.1 0.3 0.00370454
0.623803 0.1 -0.3 0.00370932
0 0.1 -0.69299 0.00375
0 0.1 0.69299 0.00375
0.0363518 0.1 0.69299 0.00375017
0.0363518 0.1 -0.69299 0.0037501
0.67013 0.1 0.1875 0.00370278
0.67013 0.1 -0.1875 0.00370795
0.574156 0.1 0.4125 0.00370752
0.574157 0.1 -0.4125 0.00371079
0.714619 0.1 4.77049e-18 0.00370689
0.075776 0.1 0.7125 0.00375005
0.075776 0.1 -0.7125 0.00374992
0.714971 0.1 0.0710023 0.00370564
0.714971 0.1 -0.075 0.00370801
0.67013 0.1 0.2625 0.0037028
0.67013 0.1 -0.2625 0.00370814
0.411108 0.1 0.6 0.00372223
0.411108 0.1 -0.6 0.00372397
0.350249 0.1 0.6375 0.0037283
0.350249 0.1 -0.6375 0.00372961
0.623803 0.1 0.375 0.00370523
0.623803 0.1 -0.375 0.00370912
0.714971 0.1 0.15 0.00370438
0.714971 0.1 -0.15 0.00370868
0.467897 0.1 0.5625 0.00371649
0.467897 0.1 -0.5625 0.00371867
0 0.1 0.73201 0.00375
0 0.1 -0.73201 0.00375
0.0363518 0.1 0.73201 0.00375017
0.0363518 0.1 -0.73201 0.0037501
0.287374 0.1 0.675 0.00373468
0.287374 0.1 -0.675 0.0037355
0.522865 0.1 0.525 0.00371209
0.522865 0.1 -0.525 0.00371444
0.219992 0.1 0.7125 0.00374131
0.219992 0.1 -0.7125 0.00374163
0.714971 0.1 -0.225 0.0037088
0.714971 0.1 0.225 0.0037037
0 0.1 0.75 0.00375
0 0.1 -0.75 0.00375
0.67013 0.1 -0.3375 0.00370778
0.67013 0.1 0.3375 0.00370318
0.574157 0.1 0.4875 0.00370801
0.574157 0.1 -0.4875 0.00371065
0.756813 0.1 0.0375 0.00370757
0.756814 0.1 -0.0375 0.0037088
0.150379 0.1 -0.75 0.00374593
0.150379 0.1 0.75 0.00374587
0.756813 0.1 0.1125 0.00370611
0.756814 0.1 -0.1125 0.00370955
0 0.1 0.76799 0.00375
0 0.1 -0.76799 0.00375
0.0363518 0.1 0.76799 0.00375039
0.0363518 0.1 -0.76799 0.00375031
0.623803 0.1 0.45 0.00370567
0.623803 0.1 -0.45 0.00370864
0.714971 0.1 0.3 0.00370349
0.714971 0.1 -0.3 0.00370832
0.756813 0.1 0.1875 0.00370486
0.756813 0.1 -0.1875 0.00370967
0.67013 0.1 -0.4125 0.00370705
0.67013 0.1 0.4125 0.00370359
0.411108 0.1 0.675 0.00372284
0.411108 0.1 -0.675 0.00372448
0.467897 0.1 0.6375 0.00371693
0.467897 0.1 -0.6375 0.00371908
0.075776 0.1 -0.7875 0.00375034
0.075776 0.1 0.7875 0.0037505
0.350249 0.1 -0.7125 0.00373026
0.350249 0.1 0.7125 0.00372908
0.791054 0.1 0.0690034 0.00370926
0.522865 0.1 0.6 0.00371229
0.522865 0.1 -0.6 0.00371452
0.797314 0.1 -3.03577e-18 0.0037113
0.797314 0.1 -0.075 0.00371221
0.756814 0.1 0.2625 0.0037041
0.756814 0.1 -0.2625 0.00370916
0.287374 0.1 -0.75 0.0037361
0.287374 0.1 0.75 0.00373543
0.574156 0.1 0.5625 0.00370807
0.574156 0.1 -0.5625 0.00371044
0 0.1 0.80701 0.00375
0 0.1 -0.80701 0.00375
0.714971 0.1 -0.375 0.00370733
0.714971 0.1 0.375 0.00370348
0.0363518 0.1 0.80701 0.00375039
0.0363518 0.1 -0.80701 0.00375031
0.797314 0.1 0.15 0.00370858
0.797314 0.1 -0.15 0.00371237
0.623803 0.1 0.525 0.00370565
0.623803 0.1 -0.525 0.003708
0.219992 0.1 -0.7875 0.00374219
0.219992 0.1 0.7875 0.00374201
0 0.1 0.825 0.00375
0 0.1 -0.825 0.00375
0.797314 0.1 0.225 0.00370727
0.797314 0.1 -0.225 0.0037118
0.756813 0.1 -0.3375 0.00370797
0.756814 0.1 0.3375 0.00370366
0.67013 0.1 0.4875 0.00370356
0.67013 0.1 -0.4875 0.00370606
0.835106 0.1 0.0375 0.00371388
0.835106 0.1 -0.0375 0.00371489
0.150379 0.1 -0.825 0.00374637
0.150379 0.1 0.825 0.0037464
0.835106 0.1 0.1125 0.00371232
0.835106 0.1 -0.1125 0.00371517
0 0.1 -0.84299 0.00375
0 0.1 0.84299 0.00375
0.0363518 0.1 -0.84299 0.00375047
0.0363518 0.1 0.84299 0.00375057
0.714971 0.1 -0.45 0.00370597
0.714971 0.1 0.45 0.00370329
0.797314 0.1 0.3 0.00370626
0.797314 0.1 -0.3 0.00371051
0.467897 0.1 0.7125 0.00371745
0.467897 0.1 -0.7125 0.00371935
0.522865 0.1 0.675 0.00371243
0.522865 0.1 -0.675 0.0037145
0.411108 0.1 -0.75 0.00372487
0.411108 0.1 0.75 0.00372348
0.835106 0.1 -0.1875 0.00371465
0.835107 0.1 0.1875 0.0037106
0.574156 0.1 0.6375 0.00370789
0.574156 0.1 -0.6375 0.00371012
0.350249 0.1 -0.7875 0.00373078
0.350249 0.1 0.7875 0.00372983
0.756814 0.1 0.4125 0.00370327
0.756814 0.1 -0.4125 0.00370631
0.623803 0.1 0.6 0.00370522
0.623803 0.1 -0.6 0.00370724
0.075776 0.1 0.8625 0.00375088
0.075776 0.1 -0.8625 0.00375068
0.871687 0.1 -0.00399773 0.00371901
0.287374 0.1 -0.825 0.00373658
0.287374 0.1 0.825 0.00373612
0.871687 0.1 0.075 0.00371783
0.871687 0.1 -0.075 0.00371948
0.67013 0.1 0.5625 0.00370297
0.67013 0.1 -0.5625 0.00370488
0.835106 0.1 0.2625 0.00370909
0.835106 0.1 -0.2625 0.0037133
0.797314 0.1 0.375 0.00370538
0.797314 0.1 -0.375 0.00370859
0 0.1 -0.88201 0.00375
0 0.1 0.88201 0.00375
0.0363518 0.1 0.88201 0.00375057
0.0363518 0.1 -0.88201 0.00375047
0.871687 0.1 0.15 0.00371608
0.871687 0.1 -0.15 0.00371905
0.714971 0.1 0.525 0.00370261
0.714971 0.1 -0.525 0.00370433
0.219992 0.1 0.8625 0.0037426
0.219993 0.1 -0.8625 0.00374264
0 0.1 0.9 0.00375
0 0.1 -0.9 0.00375
0.756813 0.1 0.4875 0.00370255
0.756814 0.1 -0.4875 0.00370428
0.871687 0.1 0.225 0.0037142
0.871687 0.1 -0.225 0.0037177
0.835106 0.1 0.3375 0.00370778
0.835106 0.1 -0.3375 0.00371123
0.90582 0.1 -0.0375 0.00372376
0.905821 0.1 0.0375 0.00372305
0.150379 0.1 0.9 0.00374684
0.150379 0.1 -0.9 0.00374673
0.90582 0.1 0.1125 0.00372148
0.90582 0.1 -0.1125 0.00372354
0.522865 0.1 -0.75 0.00371436
0.522865 0.1 0.75 0.0037126
0.574156 0.1 0.7125 0.00370768
0.574156 0.1 -0.7125 0.00370969
0.797314 0.1 0.45 0.00370437
0.797314 0.1 -0.45 0.00370618
0.467897 0.1 -0.7875 0.00371947
0.467897 0.1 0.7875 0.00371798
0 0.1 0.91799 0.00375
0 0.1 -0.91799 0.00375
0.0363518 0.1 0.91799 0.00375072
0.0363518 0.1 -0.91799 0.00375061
0.623803 0.1 0.675 0.00370459
0.623803 0.1 -0.675 0.00370637
0.411108 0.1 -0.825 0.00372512
0.411108 0.1 0.825 0.00372409
0.871687 0.1 0.3 0.00371239
0.871687 0.1 -0.3 0.00371555
0.67013 0.1 0.6375 0.00370198
0.67013 0.1 -0.6375 0.00370358
0.90582 0.1 0.1875 0.00371938
0.905821 0.1 -0.1875 0.00372228
0.350249 0.1 0.8625 0.00373052
0.350249 0.1 -0.8625 0.00373118
0.835106 0.1 0.4125 0.00370644
0.835106 0.1 -0.4125 0.0037085
0.714971 0.1 0.6 0.00370139
0.714971 0.1 -0.6 0.0037025
0.93886 0.1 -0.00399773 0.00372943
0.075776 0.1 0.9375 0.00375119
0.075776 0.1 -0.9375 0.00375097
0.93886 0.1 0.075 0.00372846
0.93886 0.1 -0.075 0.00372958
0.756813 0.1 0.5625 0.0037012
0.756814 0.1 -0.5625 0.00370197
0.90582 0.1 0.2625 0.00371717
0.905821 0.1 -0.2625 0.00372007
0.287374 0.1 0.9 0.0037367
0.287374 0.1 -0.9 0.00373694
0.871687 0.1 0.375 0.00371058
0.871687 0.1 -0.375 0.00371262
0.93886 0.1 0.15 0.00372655
0.93886 0.1 -0.15 0.00372854
0.797314 0.1 0.525 0.0037029
0.797314 0.1 -0.525 0.0037034
0 0.1 0.95701 0.00375
0 0.1 -0.95701 0.00375
0.0363518 0.1 0.95701 0.00375072
0.0363518 0.1 -0.95701 0.00375061
0.219992 0.1 0.9375 0.00374307
0.219992 0.1 -0.9375 0.00374298
0.93886 0.1 0.225 0.00372416
0.93886 0.1 -0.225 0.00372643
0.90582 0.1 0.3375 0.00371498
0.905821 0.1 -0.3375 0.00371711
0.835107 0.1 0.4875 0.00370489
0.835107 0.1 -0.4875 0.0037053
0.969689 0.1 0.0375 0.00373509
0.969689 0.1 -0.0375 0.00373552
0.574156 0.1 0.7875 0.00370754
0.574156 0.1 -0.7875 0.00370921
0 0.1 0.975 0.00375
0 0.1 -0.975 0.00375
0.623803 0.1 0.75 0.00370395
0.623803 0.1 -0.75 0.0037054
0.96969 0.1 0.1125 0.00373354
0.96969 0.1 -0.1125 0.00373484
0.522865 0.1 -0.825 0.00371412
0.522865 0.1 0.825 0.00371279
0.67013 0.1 0.7125 0.00370087
0.67013 0.1 -0.7125 0.00370218
0.871687 0.1 0.45 0.00370863
0.871687 0.1 -0.45 0.00370901
0.467897 0.1 0.8625 0.00371844
0.467897 0.1 -0.8625 0.00371946
0.714971 0.1 -0.675 0.00370052
0.714971 0.1 0.675 0.00369983
0.93886 0.1 0.3 0.00372161
0.93886 0.1 -0.3 0.00372338
0.150379 0.1 0.975 0.00374718
0.150379 0.1 -0.975 0.00374699
0.969689 0.1 -0.1875 0.00373288
0.969689 0.1 0.1875 0.00373114
0.411108 0.1 0.9 0.0037246
0.411108 0.1 -0.9 0.00372525
0.756813 0.1 0.6375 0.00369928
0.756813 0.1 -0.6375 0.00369946
0.990306 0.1 3.46945e-18 0.00373641
0 0.1 0.99299 0.00375
0 0.1 -0.99299 0.00375
0.990306 0.1 0.075 0.00373547
0.990306 0.1 -0.075 0.00373622
0.0363518 0.1 0.99299 0.00375083
0.0363518 0.1 -0.99299 0.00375072
0.905821 0.1 0.4125 0.00371262
0.905821 0.1 -0.4125 0.00371318
0.797314 0.1 0.6 0.00370079
0.797314 0.1 -0.6 0.00370033
0.350249 0.1 0.9375 0.00373108
0.350249 0.1 -0.9375 0.00373144
0.990306 0.1 0.15 0.00373348
0.990306 0.1 -0.15 0.00373477
0.969689 0.1 -0.2625 0.00372986
0.969689 0.1 0.2625 0.00372832
0.835106 0.1 0.5625 0.00370265
0.835106 0.1 -0.5625 0.00370175
0.93886 0.1 0.375 0.00371891
0.93886 0.1 -0.375 0.00371929
0.075776 0.1 1.0125 0.00375142
0.075776 0.1 -1.0125 0.00375119
0.990306 0.1 0.225 0.00373077
0.990306 0.1 -0.225 0.00373213
0.287374 0.1 0.975 0.00373715
0.287374 0.1 -0.975 0.00373718
0.871687 0.1 0.525 0.00370623
0.871687 0.1 -0.525 0.00370491
1.02149 0.1 -0.0369628 0.00374213
1.02149 0.1 0.0369628 0.00374327
0.969689 0.1 -0.3375 0.00372587
0.96969 0.1 0.3375 0.00372533
1.02149 0.1 0.110888 0.00374183
1.02149 0.1 -0.110888 0.00374248
0.90582 0.1 0.4875 0.00371009
0.905821 0.1 -0.4875 0.00370863
0 0.1 1.03201 0.00375
0 0.1 -1.03201 0.00375
0.0363518 0.1 1.03201 0.00375083
0.0363518 0.1 -1.03201 0.00375072
0.67013 0.1 0.7875 0.00369979
0.67013 0.1 -0.7875 0.00370066
0.623803 0.1 -0.825 0.00370436
0.623803 0.1 0.825 0.00370337
0.990306 0.1 0.3 0.0037277
0.990306 0.1 -0.3 0.00372841
0.219992 0.1 -1.0125 0.00374321
0.219992 0.1 1.0125 0.00374342
0.574156 0.1 -0.8625 0.00370862
0.574157 0.1 0.8625 0.00370749
0.714971 0.1 0.75 0.00369817
0.714971 0.1 -0.75 0.00369844
1.02149 0.1 0.184814 0.00373934
1.02149 0.1 -0.184814 0.00374009
0.756814 0.1 0.7125 0.00369708
0.756813 0.1 -0.7125 0.00369682
0.522865 0.1 0.9 0.00371295
0.522865 0.1 -0.9 0.00371374
0.93886 0.1 0.45 0.00371599
0.93886 0.1 -0.45 0.00371433
1.04168 0.1 0 0.00374827
1.04168 0.1 0.0729162 0.00374752
1.04168 0.1 -0.0729162 0.00374779
0.797314 0.1 0.675 0.00369818
0.797314 0.1 -0.675 0.00369705
0.467897 0.1 0.9375 0.00371878
0.467897 0.1 -0.9375 0.00371933
0 0.1 1.05 0.00375
0 0.1 -1.05 0.00375
0.835106 0.1 0.6375 0.00369973
0.835106 0.1 -0.6375 0.0036979
1.04168 0.1 0.145832 0.00374556
1.04168 0.1 -0.145832 0.00374598
1.02149 0.1 0.25874 0.00373616
1.02149 0.1 -0.25874 0.00373658
0.969689 0.1 0.4125 0.00372208
0.969689 0.1 -0.4125 0.00372046
0.411108 0.1 0.975 0.00372498
0.411108 0.1 -0.975 0.00372526
0.871687 0.1 0.6 0.00370311
0.871687 0.1 -0.6 0.00370043
1.0579 0.1 -0.0360525 0.00375215
1.0579 0.1 0.0360525 0.00375254
0.990306 0.1 0.375 0.00372437
0.990306 0.1 -0.375 0.00372343
0.150379 0.1 1.05 0.00374743
0.150379 0.1 -1.05 0.00374717
1.0579 0.1 -0.108157 0.0037514
1.0579 0.1 0.108157 0.00375122
1.04168 0.1 0.218749 0.00374266
1.04168 0.1 -0.218749 0.00374289
0.90582 0.1 0.5625 0.00370682
0.905821 0.1 -0.5625 0.00370359
0 0.1 -1.06799 0.00375
0 0.1 1.06799 0.00375
0.0363518 0.1 -1.06799 0.00375079
0.0363518 0.1 1.06799 0.00375091
0.350249 0.1 1.0125 0.00373151
0.350249 0.1 -1.0125 0.00373158
1.0579 0.1 -0.180262 0.00374878
1.0579 0.1 0.180262 0.00374873
1.02149 0.1 0.332665 0.0037326
1.02149 0.1 -0.332665 0.00373187
0.93886 0.1 0.525 0.00371259
0.93886 0.1 -0.525 0.00370881
1.08012 0.1 1.70581e-17 0.00375881
1.04168 0.1 0.291665 0.00373915
1.04168 0.1 -0.291665 0.0037386
1.08012 0.1 0.0709941 0.00375819
1.08012 0.1 -0.074001 0.00375814
0.969689 0.1 -0.4875 0.00371451
0.96969 0.1 0.4875 0.00371856
1.0579 0.1 0.252367 0.00374542
1.0579 0.1 -0.252367 0.003745
0.990306 0.1 -0.45 0.00371745
0.990306 0.1 0.45 0.00372074
0.287374 0.1 -1.05 0.00373731
0.287374 0.1 1.05 0.00373747
1.08012 0.1 0.141988 0.00375631
1.08012 0.1 -0.141988 0.00375616
0.075776 0.1 1.0875 0.00375158
0.075776 0.1 -1.0875 0.00375134
0.714971 0.1 0.825 0.00369655
0.714971 0.1 -0.825 0.0036963
0.756813 0.1 0.7875 0.00369486
0.756813 0.1 -0.7875 0.00369409
0.67013 0.1 0.8625 0.00369878
0.67013 0.1 -0.8625 0.00369913
0.797314 0.1 -0.75 0.00369364
0.797314 0.1 0.75 0.00369535
0.623803 0.1 0.9 0.00370286
0.623803 0.1 -0.9 0.00370325
0.835106 0.1 0.7125 0.00369638
0.835107 0.1 -0.7125 0.00369383
0.574156 0.1 0.9375 0.00370743
0.574156 0.1 -0.9375 0.00370786
1.02149 0.1 -0.406591 0.00372564
1.02149 0.1 0.406591 0.00372869
1.08012 0.1 -0.212982 0.00375283
1.08012 0.1 0.212982 0.00375338
1.10076 0.1 -0.0349809 0.00376465
1.10076 0.1 0.0349809 0.00376474
0.871687 0.1 0.675 0.00369938
0.871687 0.1 -0.675 0.00369566
1.04168 0.1 0.364581 0.00373523
1.04168 0.1 -0.364581 0.00373287
1.10076 0.1 0.104943 0.00376353
1.10076 0.1 -0.104943 0.00376331
0.522865 0.1 0.975 0.00371303
0.522865 0.1 -0.975 0.00371326
1.0579 0.1 0.324472 0.00374158
1.0579 0.1 -0.324472 0.00373988
0 0.1 -1.10701 0.00375
0 0.1 1.10701 0.00375
0.0363518 0.1 1.10701 0.00375091
0.0363518 0.1 -1.10701 0.00375079
0.90582 0.1 0.6375 0.00370282
0.905821 0.1 -0.6375 0.00369816
0.219992 0.1 1.0875 0.00374364
0.219992 0.1 -1.0875 0.00374333
0.93886 0.1 0.6 0.00370836
0.93886 0.1 -0.6 0.00370285
1.10076 0.1 0.174905 0.00376107
1.10076 0.1 -0.174905 0.00376046
0.467897 0.1 1.0125 0.003719
0.467897 0.1 -1.0125 0.00371914
1.08012 0.1 0.283976 0.00374969
1.08012 0.1 -0.283976 0.00374823
1.11928 0.1 -0.00290737 0.00377025
1.11711 0.1 -0.0710826 0.00376842
0.990306 0.1 0.525 0.00371659
0.990306 0.1 -0.525 0.00371092
0.969689 0.1 0.5625 0.00371431
0.96969 0.1 -0.5625 0.00370801
1.11928 0.1 0.0690357 0.00376974
0 0.1 1.125 0.00375
0 0.1 -1.125 0.00375
1.11807 0.1 -0.138193 0.00376659
0.411108 0.1 -1.05 0.00372519
0.411108 0.1 1.05 0.00372524
1.10076 0.1 -0.244866 0.00375645
1.10076 0.1 0.244866 0.00375763
1.11928 0.1 0.138072 0.00376795
1.02149 0.1 0.480517 0.0037244
1.02149 0.1 -0.480517 0.00371878
1.0579 0.1 -0.396577 0.00373319
1.0579 0.1 0.396577 0.00373733
1.04168 0.1 0.437497 0.00373091
1.04168 0.1 -0.437497 0.003726
0.150379 0.1 1.125 0.00374758
0.150379 0.1 -1.125 0.00374727
1.08012 0.1 0.354971 0.00374548
1.08012 0.1 -0.354971 0.0037421
1.11807 0.1 -0.207288 0.00376311
1.11928 0.1 0.207107 0.00376502
0.350249 0.1 1.0875 0.00373179
0.350249 0.1 -1.0875 0.00373162
0 0.1 1.14299 0.00375
0 0.1 -1.14299 0.00375
0.0363518 0.1 1.14299 0.00375096
0.0363518 0.1 -1.14299 0.00375084
1.14316 0.1 -0.0339211 0.00377737
1.14316 0.1 0.0339211 0.00377791
1.10076 0.1 0.314829 0.00375353
1.10076 0.1 -0.314829 0.00375097
0.797314 0.1 0.825 0.00369252
0.797314 0.1 -0.825 0.0036902
0.756814 0.1 -0.8625 0.00369134
0.756814 0.1 0.8625 0.00369272
1.14316 0.1 -0.101763 0.0037762
1.14316 0.1 0.101763 0.00377684
0.835106 0.1 0.7875 0.00369287
0.835107 0.1 -0.7875 0.00368967
0.714971 0.1 0.9 0.00369503
0.714971 0.1 -0.9 0.00369419
0.871687 0.1 0.75 0.00369525
0.871687 0.1 -0.75 0.00369077
1.11807 0.1 -0.276385 0.00375829
0.67013 0.1 0.9375 0.00369791
0.67013 0.1 -0.9375 0.00369761
0.905821 0.1 0.7125 0.0036982
0.905821 0.1 -0.7125 0.00369246
1.11928 0.1 0.276143 0.00376121
1.14316 0.1 -0.169605 0.00377324
1.14316 0.1 0.169605 0.00377449
0.93886 0.1 0.675 0.00370339
0.93886 0.1 -0.675 0.0036966
1.15704 0.1 0 0.00378214
1.0579 0.1 0.468682 0.00373261
1.0579 0.1 -0.468682 0.00372575
0.623803 0.1 0.975 0.00370236
0.623803 0.1 -0.975 0.0037021
0.990306 0.1 0.6 0.00371153
0.990306 0.1 -0.6 0.00370392
1.15704 0.1 -0.0671479 0.00378128
1.15704 0.1 0.0671479 0.00378173
1.04168 0.1 0.510414 0.00372607
1.04168 0.1 -0.510414 0.00371862
0.969689 0.1 0.6375 0.00370897
0.96969 0.1 -0.6375 0.00370118
1.08012 0.1 0.425965 0.00374079
1.08012 0.1 -0.425965 0.00373472
0.287374 0.1 -1.125 0.00373734
0.287374 0.1 1.125 0.00373766
1.02149 0.1 0.554443 0.00371945
1.02149 0.1 -0.554443 0.00371143
0.574156 0.1 -1.0125 0.00370707
0.574156 0.1 1.0125 0.00370727
1.15704 0.1 -0.134296 0.00377903
1.15704 0.1 0.134296 0.00378004
0.075776 0.1 1.1625 0.00375168
0.075776 0.1 -1.1625 0.00375143
1.10076 0.1 0.384791 0.00374892
1.10076 0.1 -0.384791 0.00374382
1.14316 0.1 -0.237448 0.00376904
1.14316 0.1 0.237448 0.00377107
1.11807 0.1 -0.345481 0.00375188
1.11928 0.1 0.345179 0.00375677
0.522865 0.1 1.05 0.00371301
0.522865 0.1 -1.05 0.00371276
1.15704 0.1 -0.201444 0.00377544
1.15704 0.1 0.201444 0.00377714
1.1744 0.1 -0.0331401 0.00378743
1.1744 0.1 0.0331401 0.00378714
1.1744 0.1 -0.0994202 0.00378591
1.1744 0.1 0.0994202 0.00378667
0 0.1 1.18201 0.00375
0 0.1 -1.18201 0.00375
0.0363518 0.1 1.18201 0.00375096
0.0363518 0.1 -1.18201 0.00375084
0.219992 0.1 1.1625 0.00374377
0.219993 0.1 -1.1625 0.00374336
1.14316 0.1 -0.30529 0.00376328
1.14316 0.1 0.30529 0.00376684
0.467897 0.1 1.0875 0.00371912
0.467897 0.1 -1.0875 0.00371889
1.1744 0.1 -0.1657 0.00378293
1.1744 0.1 0.1657 0.00378437
1.15704 0.1 -0.268592 0.00377044
1.15704 0.1 0.268592 0.00377328
1.0579 0.1 0.540787 0.00372728
1.0579 0.1 -0.540787 0.00371796
1.08012 0.1 0.496959 0.00373557
1.08012 0.1 -0.496959 0.00372684
1.10076 0.1 0.454752 0.00374379
1.10076 0.1 -0.454752 0.00373574
1.11807 0.1 -0.414577 0.00374412
1.11928 0.1 0.414214 0.00375178
1.04168 0.1 0.58333 0.00372036
1.04168 0.1 -0.58333 0.00371066
1.19529 0.1 0.0650961 0.00379498
1.1744 0.1 0.231981 0.00378098
1.1744 0.1 -0.231981 0.00377875
0.411108 0.1 1.125 0.00372537
0.411108 0.1 -1.125 0.00372503
1.19808 0.1 3.5851e-17 0.00379616
0.990306 0.1 0.675 0.00370566
0.990306 0.1 -0.675 0.00369664
1.02149 0.1 0.628368 0.00371341
1.02149 0.1 -0.628368 0.00370352
1.19808 0.1 -0.0650961 0.00379522
0 0.1 1.2 0.00375
0 0.1 -1.2 0.00375
0.871687 0.1 -0.825 0.00368591
0.871687 0.1 0.825 0.00369103
0.905821 0.1 -0.7875 0.0036869
0.90582 0.1 0.7875 0.00369324
0.835106 0.1 0.8625 0.00368944
0.835106 0.1 -0.8625 0.00368561
0.93886 0.1 0.75 0.00369796
0.93886 0.1 -0.75 0.00369024
0.797314 0.1 0.9 0.00368979
0.797314 0.1 -0.9 0.00368686
1.14316 0.1 -0.373132 0.00375588
1.14316 0.1 0.373132 0.003762
0.969689 0.1 0.7125 0.00370308
0.969689 0.1 -0.7125 0.00369421
1.15704 0.1 -0.33574 0.00376381
1.15704 0.1 0.33574 0.00376868
0.756813 0.1 0.9375 0.00369072
0.756814 0.1 -0.9375 0.00368877
1.19808 0.1 0.130192 0.00379411
1.19808 0.1 -0.130192 0.00379292
0.714971 0.1 0.975 0.00369363
0.714971 0.1 -0.975 0.00369216
0.150379 0.1 1.2 0.00374765
0.150379 0.1 -1.2 0.0037473
1.20938 0.1 -0.0322656 0.00379938
1.20938 0.1 0.0322656 0.00379967
1.19808 0.1 0.178844 0.00379145
1.1744 0.1 0.298261 0.00377669
1.1744 0.1 -0.298261 0.00377291
1.20938 0.1 -0.0967968 0.0037978
1.20938 0.1 0.0967968 0.00379877
1.19808 0.1 -0.195288 0.00378929
0.350249 0.1 1.1625 0.00373193
0.350249 0.1 -1.1625 0.00373154
0.67013 0.1 1.0125 0.00369704
0.67013 0.1 -1.0125 0.00369608
0 0.1 1.21799 0.00375
0 0.1 -1.21799 0.00375
1.11807 0.1 -0.483674 0.00373582
0.0363518 0.1 1.21799 0.00375098
0.0363518 0.1 -1.21799 0.00375085
1.11928 0.1 0.48325 0.00374622
1.10076 0.1 -0.524714 0.00372754
1.10076 0.1 0.524714 0.00373806
1.20938 0.1 -0.161328 0.00379477
1.20938 0.1 0.161328 0.00379657
1.08012 0.1 0.567953 0.00372949
1.08012 0.1 -0.567953 0.00371833
0.623803 0.1 1.05 0.00370181
0.623803 0.1 -1.05 0.00370096
1.0579 0.1 -0.612892 0.00370937
1.0579 0.1 0.612892 0.00372087
1.15704 0.1 -0.402888 0.00375573
1.15704 0.1 0.402888 0.00376347
1.14316 0.1 0.440974 0.00375657
1.14316 0.1 -0.440974 0.00374739
1.19808 0.1 -0.260384 0.00378422
1.19808 0.1 0.260384 0.00378761
1.2267 0.1 3.64292e-18 0.00380643
1.2267 0.1 -0.0636649 0.00380543
1.2267 0.1 0.0636649 0.00380618
1.1744 0.1 -0.364541 0.00376545
1.1744 0.1 0.364541 0.00377176
0.574156 0.1 1.0875 0.003707
0.574156 0.1 -1.0875 0.00370633
1.20938 0.1 -0.225859 0.00379056
1.20938 0.1 0.225859 0.00379322
1.04168 0.1 0.656246 0.00371379
1.04168 0.1 -0.656246 0.00370219
1.22587 0.1 0.12733 0.00380408
1.2267 0.1 -0.12733 0.00380306
0.287374 0.1 -1.2 0.00373727
0.287374 0.1 1.2 0.00373772
1.02149 0.1 0.702294 0.00370678
1.02149 0.1 -0.702294 0.00369539
0.075776 0.1 1.2375 0.00375172
0.075776 0.1 -1.2375 0.00375147
0.522865 0.1 1.125 0.00371288
0.522865 0.1 -1.125 0.00371223
1.2267 0.1 0.190397 0.00380178
1.2267 0.1 -0.190994 0.00379939
1.19808 0.1 0.32548 0.00378293
1.19808 0.1 -0.32548 0.00377751
0.990306 0.1 0.75 0.00369933
0.990306 0.1 -0.75 0.00368917
1.24274 0.1 -0.0314313 0.00381187
1.24274 0.1 0.0314313 0.00381223
1.20938 0.1 -0.29039 0.00378465
1.20938 0.1 0.29039 0.00378891
1.24274 0.1 -0.0942942 0.00381017
1.24274 0.1 0.0942942 0.00381142
1.11807 0.1 -0.552769 0.00372689
1.11928 0.1 0.552285 0.00373985
1.15704 0.1 -0.470036 0.00374706
1.15704 0.1 0.470036 0.00375765
0.969689 0.1 0.7875 0.00369687
0.96969 0.1 -0.7875 0.00368705
0.93886 0.1 -0.825 0.00368385
0.93886 0.1 0.825 0.00369235
0.905821 0.1 0.8625 0.00368826
0.905821 0.1 -0.8625 0.00368127
1.1744 0.1 -0.430821 0.0037567
1.1744 0.1 0.430821 0.00376621
1.10076 0.1 0.594676 0.00373128
1.10076 0.1 -0.594676 0.00371821
1.14316 0.1 -0.508816 0.00373874
1.14316 0.1 0.508816 0.0037505
1.24274 0.1 0.157157 0.00380931
1.24274 0.1 -0.157157 0.00380706
1.2267 0.1 0.254158 0.00379807
1.2267 0.1 -0.254659 0.00379427
0.871687 0.1 -0.9 0.00368116
0.871687 0.1 0.9 0.00368691
0.467897 0.1 1.1625 0.00371912
0.467897 0.1 -1.1625 0.00371855
1.08012 0.1 0.638947 0.00372255
1.08012 0.1 -0.638947 0.00370909
1.25511 0.1 1.27213e-17 0.00381752
0.835106 0.1 0.9375 0.00368614
0.835106 0.1 -0.9375 0.0036817
1.25511 0.1 -0.0622446 0.00381639
1.25511 0.1 0.0622446 0.00381737
0.219992 0.1 1.2375 0.00374379
0.219992 0.1 -1.2375 0.00374332
0 0.1 -1.25701 0.00375
0 0.1 1.25701 0.00375
0.0363518 0.1 -1.25701 0.00375085
0.0363518 0.1 1.25701 0.00375098
0.797314 0.1 0.975 0.00368721
0.797314 0.1 -0.975 0.00368373
1.19808 0.1 0.389737 0.00377759
1.19808 0.1 -0.390576 0.00376928
1.0579 0.1 -0.684997 0.00370039
1.0579 0.1 0.684997 0.00371385
1.20938 0.1 -0.354921 0.00377714
1.20938 0.1 0.354921 0.00378386
1.25511 0.1 0.124489 0.00381597
1.25511 0.1 -0.124489 0.00381387
1.24274 0.1 -0.220019 0.0038028
1.24274 0.1 0.220019 0.00380601
0.756814 0.1 1.0125 0.00368888
0.756814 0.1 -1.0125 0.00368631
1.25305 0.1 0.186734 0.00381199
1.2267 0.1 0.317097 0.00379334
1.2267 0.1 -0.318324 0.00378752
0.411108 0.1 1.2 0.00372536
0.411108 0.1 -1.2 0.00372477
1.25511 0.1 -0.186734 0.00381006
0.714971 0.1 1.05 0.00369228
0.714971 0.1 -1.05 0.00369023
1.04168 0.1 0.729162 0.00370666
1.04168 0.1 -0.729162 0.00369344
1.24274 0.1 -0.282882 0.00379682
1.24274 0.1 0.282882 0.00380168
0 0.1 1.275 0.00375
0 0.1 -1.275 0.00375
1.1744 0.1 -0.497102 0.00374794
1.1744 0.1 0.497102 0.00376001
1.15704 0.1 -0.537184 0.00373775
1.15704 0.1 0.537184 0.00375106
1.2756 0.1 -0.03061 0.00382603
1.2756 0.1 0.03061 0.00382656
0.67013 0.1 1.0875 0.00369617
0.67013 0.1 -1.0875 0.00369462
1.25305 0.1 0.248978 0.00380876
1.2756 0.1 0.09183 0.00382587
1.2756 0.1 -0.09183 0.00382413
1.11807 0.1 -0.621866 0.003717
1.25511 0.1 -0.248978 0.00380482
1.20938 0.1 0.419453 0.00377819
1.20938 0.1 -0.419453 0.00376817
1.11928 0.1 0.621322 0.00373257
1.14316 0.1 -0.576659 0.0037289
1.14316 0.1 0.576659 0.00374351
1.19808 0.1 0.454694 0.00377159
1.19808 0.1 -0.455673 0.00376034
1.02149 0.1 0.776219 0.0036997
1.02149 0.1 -0.776219 0.00368699
0.150379 0.1 1.275 0.00374765
0.150379 0.1 -1.275 0.00374728
1.2267 0.1 0.381603 0.0037879
1.2756 0.1 -0.15305 0.00382084
1.2756 0.1 0.15305 0.00382387
1.2267 0.1 -0.381989 0.0037792
1.10076 0.1 0.664638 0.0037238
1.10076 0.1 -0.664638 0.00370826
0.350249 0.1 1.2375 0.00373189
0.350249 0.1 -1.2375 0.00373135
0.623803 0.1 1.125 0.00370122