# nutMean  POINT_DATA 63831
# x  y  z  nutMean
0 0.5 3.39583e-17 0.0158969
0 0.5 -0.00617931 0.0159074
0 0.5 0.00617931 0.0158931
0.0124865 0.5 0.00617931 0.0170057
0.0124865 0.5 -0.00617931 0.017011
0 0.5 -0.0688207 0.0159507
0 0.5 0.0688207 0.0157399
0.0124865 0.5 0.0688207 0.0168525
0.0124865 0.5 -0.0688207 0.0170543
0 0.5 0.075 0.0157132
0 0.5 -0.075 0.0159488
0 0.5 -0.0811793 0.0159537
0 0.5 0.0811793 0.0156932
0.0124865 0.5 0.0811793 0.0167967
0.0124865 0.5 -0.0811793 0.0170789
0.075776 0.5 0.0375 0.0225777
0.075776 0.5 -0.0375 0.0226081
0.075776 0.5 0.1125 0.0222421
0.075776 0.5 -0.1125 0.0227545
0 0.5 -0.143821 0.0158521
0 0.5 0.143821 0.0153854
0.0124865 0.5 0.143821 0.016489
0.0124865 0.5 -0.143821 0.0169773
0 0.5 0.15 0.0153445
0 0.5 -0.15 0.0158269
0.151149 0.5 2.20565e-18 0.020031
0 0.5 -0.156179 0.0158085
0 0.5 0.156179 0.0153098
0.0124865 0.5 0.156179 0.0163801
0.0124865 0.5 -0.156179 0.0169149
0.151149 0.5 0.075 0.0199198
0.151149 0.5 -0.075 0.0200619
0.075776 0.5 0.1875 0.0215891
0.075776 0.5 -0.1875 0.0223816
0.151149 0.5 0.15 0.0196111
0.151149 0.5 -0.15 0.0199582
0 0.5 -0.218821 0.0155277
0 0.5 0.218821 0.0148949
0.0124865 0.5 0.218821 0.0159652
0.0124865 0.5 -0.218821 0.0166341
0.219992 0.5 0.0375 0.0176368
0.219992 0.5 -0.0375 0.0176451
0 0.5 0.225 0.0148475
0 0.5 -0.225 0.0154904
0 0.5 -0.231179 0.0154594
0 0.5 0.231179 0.0148055
0.0124865 0.5 0.231179 0.0158348
0.0124865 0.5 -0.231179 0.0165298
0.219993 0.5 0.1125 0.0175567
0.219993 0.5 -0.1125 0.0175913
0.151149 0.5 0.225 0.0191263
0.151149 0.5 -0.225 0.0196012
0.075776 0.5 0.2625 0.0208063
0.075776 0.5 -0.2625 0.0217574
0.288069 0.5 3.34766e-17 0.0142586
0.219992 0.5 0.1875 0.0173661
0.219992 0.5 -0.1875 0.0174551
0 0.5 0.293821 0.0143461
0 0.5 -0.293821 0.0150816
0.0124865 0.5 -0.293821 0.0161521
0.0124865 0.5 0.293821 0.0153754
0.288069 0.5 0.075 0.0142534
0.288069 0.5 -0.075 0.0142463
0 0.5 0.3 0.0142978
0 0.5 -0.3 0.0150383
0 0.5 0.306179 0.0142529
0 0.5 -0.306179 0.0149997
0.0124865 0.5 0.306179 0.0152382
0.0124865 0.5 -0.306179 0.0160289
0.288069 0.5 0.15 0.014213
0.288069 0.5 -0.15 0.0142176
0.151149 0.5 0.3 0.018549
0.151149 0.5 -0.3 0.0190988
0.219992 0.5 0.2625 0.0170224
0.219992 0.5 -0.2625 0.0171414
0.075776 0.5 0.3375 0.0199826
0.075776 0.5 -0.3375 0.0210181
0.350249 0.5 0.0375 0.0110971
0.350249 0.5 -0.0375 0.0110811
0.288069 0.5 0.225 0.0141122
0.288069 0.5 -0.225 0.0141343
0.350249 0.5 0.1125 0.011144
0.350249 0.5 -0.1125 0.0110921
0 0.5 0.368821 0.0137905
0 0.5 -0.368821 0.014575
0.0124865 0.5 0.368821 0.0147758
0.0124865 0.5 -0.368821 0.0156042
0 0.5 0.375 0.013745
0 0.5 -0.375 0.0145305
0 0.5 -0.381179 0.0144882
0 0.5 0.381179 0.0137
0.0124865 0.5 0.381179 0.0146417
0.0124865 0.5 -0.381179 0.0154748
0.350249 0.5 0.1875 0.0111945
0.350249 0.5 -0.1875 0.011148
0.219992 0.5 0.3375 0.0166325
0.219992 0.5 -0.3375 0.0167845
0.151149 0.5 0.375 0.0179497
0.151149 0.5 -0.375 0.0185448
0.411736 0.5 1.70099e-17 0.00943795
0.288069 0.5 0.3 0.0139647
0.288069 0.5 -0.3 0.0139971
0.411736 0.5 0.075 0.0094671
0.411736 0.5 -0.075 0.00944331
0.075776 0.5 0.4125 0.0191781
0.075776 0.5 -0.4125 0.020242
0.350249 0.5 -0.2625 0.011191
0.350249 0.5 0.2625 0.0112541
0.411736 0.5 0.15 0.00952249
0.411736 0.5 -0.15 0.00948119
0 0.5 -0.443821 0.0140573
0 0.5 0.443821 0.0132678
0.0124865 0.5 0.443821 0.0142094
0.0124865 0.5 -0.443821 0.0150438
0 0.5 0.45 0.0132284
0 0.5 -0.45 0.0140152
0 0.5 -0.456179 0.0139727
0 0.5 0.456179 0.0131877
0.0124865 0.5 0.456179 0.0140909
0.0124865 0.5 -0.456179 0.0149185
0.219992 0.5 -0.4125 0.0164125
0.219993 0.5 0.4125 0.0162237
0.411736 0.5 0.225 0.0095951
0.411736 0.5 -0.225 0.00954826
0.467897 0.5 0.0375 0.00788712
0.467897 0.5 -0.0375 0.00788144
0.288069 0.5 0.375 0.0138041
0.288069 0.5 -0.375 0.0138545
0.151149 0.5 -0.45 0.0179875
0.151149 0.5 0.45 0.0173713
0.467897 0.5 0.1125 0.00793547
0.467897 0.5 -0.1125 0.0079126
0.350249 0.5 0.3375 0.0113107
0.350249 0.5 -0.3375 0.011245
0.075776 0.5 -0.4875 0.0194913
0.075776 0.5 0.4875 0.0184571
0.467897 0.5 0.1875 0.00801047
0.467897 0.5 -0.1875 0.00796553
0.411736 0.5 0.3 0.00967905
0.411736 0.5 -0.3 0.0096334
0 0.5 -0.518821 0.0135706
0 0.5 0.518821 0.0128079
0.0124865 0.5 0.518821 0.0137111
0.0124865 0.5 -0.518821 0.0145163
0.523432 0.5 3.75966e-17 0.00694349
0 0.5 0.525 0.0127745
0 0.5 -0.525 0.0135345
0.523432 0.5 0.075 0.00696629
0.523432 0.5 -0.075 0.00695855
0 0.5 -0.531179 0.0134965
0 0.5 0.531179 0.0127402
0.0124865 0.5 0.531179 0.0136113
0.0124865 0.5 -0.531179 0.0144079
0.288069 0.5 0.45 0.0136468
0.288069 0.5 -0.45 0.0137239
0.219992 0.5 -0.4875 0.0160535
0.219992 0.5 0.4875 0.0158191
0.467897 0.5 -0.2625 0.00807993
0.467897 0.5 0.2625 0.00811379
0.350249 0.5 0.4125 0.01138
0.350249 0.5 -0.4125 0.0113216
0.523432 0.5 0.15 0.00702389
0.523432 0.5 -0.15 0.00700475
0.151149 0.5 0.525 0.0168462
0.151149 0.5 -0.525 0.0174694
0.411736 0.5 0.375 0.00977684
0.411736 0.5 -0.375 0.00973791
0.075776 0.5 0.5625 0.0178401
0.075776 0.5 -0.5625 0.0188299
0.523432 0.5 0.225 0.00711004
0.523432 0.5 -0.225 0.00708747
0.574156 0.5 0.0375 0.0060539
0.574157 0.5 -0.0375 0.00605484
0.467897 0.5 0.3375 0.00822705
0.467897 0.5 -0.3375 0.0082048
0.574156 0.5 0.1125 0.00609249
0.574156 0.5 -0.1125 0.00608837
0 0.5 -0.593821 0.0131448
0 0.5 0.593821 0.0124217
0.0124865 0.5 0.593821 0.0132927
0.0124865 0.5 -0.593821 0.0140561
0.288069 0.5 0.525 0.0135039
0.288069 0.5 -0.525 0.0136174
0 0.5 0.6 0.012394
0 0.5 -0.6 0.0131142
0.350249 0.5 0.4875 0.0114635
0.350249 0.5 -0.4875 0.0114236
0.523432 0.5 -0.3 0.00720499
0.523432 0.5 0.3 0.00721908
0.219992 0.5 0.5625 0.0154418
0.219992 0.5 -0.5625 0.0157267
0.574156 0.5 0.1875 0.00616141
0.574157 0.5 -0.1875 0.00615508
0 0.5 -0.606179 0.0130824
0 0.5 0.606179 0.0123661
0.0124865 0.5 0.606179 0.0132106
0.0124865 0.5 -0.606179 0.0139658
0.411736 0.5 0.45 0.00989698
0.411736 0.5 -0.45 0.00987152
0.151149 0.5 0.6 0.0163922
0.151149 0.5 -0.6 0.0170183
0.467897 0.5 0.4125 0.00837491
0.467897 0.5 -0.4125 0.00836271
0.624316 0.5 2.64545e-17 0.00545614
0.624316 0.5 0.075 0.00547188
0.624316 0.5 -0.075 0.00547428
0.574156 0.5 -0.2625 0.00625202
0.574157 0.5 0.2625 0.0062591
0.075776 0.5 0.6375 0.017335
0.075776 0.5 -0.6375 0.0182702
0.624316 0.5 0.15 0.00552096
0.624316 0.5 -0.15 0.00552371
0.523432 0.5 0.375 0.00735003
0.523432 0.5 -0.375 0.0073503
0.350249 0.5 -0.5625 0.0115517
0.350249 0.5 0.5625 0.0115593
0.624316 0.5 0.225 0.00559846
0.624316 0.5 -0.225 0.00560134
0.288069 0.5 0.6 0.0133856
0.288069 0.5 -0.6 0.0135443
0.574157 0.5 0.3375 0.00638091
0.574157 0.5 -0.3375 0.00638613
0.411736 0.5 0.525 0.0100374
0.411736 0.5 -0.525 0.0100353
0 0.5 -0.668821 0.0127902
0 0.5 0.668821 0.0121136
0.0124865 0.5 0.668821 0.0129581
0.0124865 0.5 -0.668821 0.0136737
0.67013 0.5 0.0375 0.00488598
0.67013 0.5 -0.0375 0.00489043
0.219993 0.5 -0.6375 0.015449
0.219992 0.5 0.6375 0.0151108
0 0.5 0.675 0.0120925
0 0.5 -0.675 0.0127652
0.467897 0.5 -0.4875 0.00855543
0.467897 0.5 0.4875 0.00854966
0.67013 0.5 0.1125 0.00491604
0.67013 0.5 -0.1125 0.00492396
0 0.5 -0.681179 0.0127396
0 0.5 0.681179 0.0120706
0.0124865 0.5 0.681179 0.0128948
0.0124865 0.5 -0.681179 0.0136011
0.523432 0.5 0.45 0.00751037
0.523432 0.5 -0.45 0.00752846
0.151149 0.5 0.675 0.016021
0.151149 0.5 -0.675 0.0166476
0.624316 0.5 0.3 0.00570336
0.624316 0.5 -0.3 0.00571195
0.67013 0.5 0.1875 0.0049753
0.67013 0.5 -0.1875 0.00498797
0.574156 0.5 0.4125 0.00652177
0.574156 0.5 -0.4125 0.00655006
0.715434 0.5 3.51282e-17 0.00448145
0.075776 0.5 0.7125 0.0169495
0.075776 0.5 -0.7125 0.0178241
0.715434 0.5 0.075 0.00449233
0.715434 0.5 -0.075 0.00450021
0.67013 0.5 0.2625 0.00506
0.67013 0.5 -0.2625 0.00507125
0.350249 0.5 -0.6375 0.0117068
0.350249 0.5 0.6375 0.0116687
0.411736 0.5 0.6 0.0101969
0.411736 0.5 -0.6 0.0102294
0.624316 0.5 0.375 0.00582902
0.624316 0.5 -0.375 0.00585674
0.715434 0.5 0.15 0.00453321
0.715434 0.5 -0.15 0.00454686
0.467897 0.5 0.5625 0.00875131
0.467897 0.5 -0.5625 0.0087821
0.288069 0.5 0.675 0.0132997
0.288069 0.5 -0.675 0.0135119
0.523432 0.5 0.525 0.00770079
0.523432 0.5 -0.525 0.00774103
0 0.5 -0.743821 0.012513
0 0.5 0.743821 0.0118845
0.0124865 0.5 -0.743821 0.0133745
0.0124865 0.5 0.743821 0.0127086
0.219992 0.5 0.7125 0.0148373
0.219992 0.5 -0.7125 0.0152321
0.715434 0.5 0.225 0.00460031
0.715434 0.5 -0.225 0.00462008
0 0.5 0.75 0.0118707
0 0.5 -0.75 0.0124947
0.67013 0.5 0.3375 0.00517592
0.67013 0.5 -0.3375 0.00519984
0.574157 0.5 0.4875 0.0066998
0.574157 0.5 -0.4875 0.00674785
0 0.5 -0.756179 0.0124751
0 0.5 0.756179 0.0118549
0.0124865 0.5 0.756179 0.0126653
0.0124865 0.5 -0.756179 0.0133211
0.756813 0.5 0.0375 0.0040905
0.756813 0.5 -0.0375 0.00409649
0.151149 0.5 0.75 0.0157387
0.151149 0.5 -0.75 0.0163659
0.756813 0.5 0.1125 0.0041146
0.756813 0.5 -0.1125 0.00412757
0.624316 0.5 -0.45 0.00603141
0.624316 0.5 0.45 0.00598052
0.715434 0.5 0.3 0.00469379
0.715434 0.5 -0.3 0.00472076
0.756813 0.5 0.1875 0.00416505
0.756813 0.5 -0.1875 0.00418574
0.67013 0.5 -0.4125 0.00535284
0.67013 0.5 0.4125 0.00530055
0.411736 0.5 0.675 0.0103746
0.411736 0.5 -0.675 0.0104535
0.467897 0.5 0.6375 0.00897611
0.467897 0.5 -0.6375 0.00904218
0.075776 0.5 0.7875 0.0166807
0.075776 0.5 -0.7875 0.0174982
0.350249 0.5 0.7125 0.0117931
0.350249 0.5 -0.7125 0.0118897
0.523432 0.5 0.6 0.0079176
0.523432 0.5 -0.6 0.00798797
0.797732 0.5 3.20924e-17 0.00380626
0.756813 0.5 0.2625 0.00423949
0.756814 0.5 -0.2625 0.00427318
0.797732 0.5 0.075 0.00381426
0.797732 0.5 -0.075 0.00382388
0.288069 0.5 0.75 0.0132518
0.288069 0.5 -0.75 0.013524
0.574156 0.5 -0.5625 0.00698067
0.574156 0.5 0.5625 0.00690684
0.715434 0.5 0.375 0.00481032
0.715434 0.5 -0.375 0.00485173
0.797732 0.5 0.15 0.00384883
0.797732 0.5 -0.15 0.0038663
0.624316 0.5 0.525 0.00616521
0.624316 0.5 -0.525 0.00623951
0.219992 0.5 0.7875 0.0146296
0.219992 0.5 -0.7875 0.0150802
0 0.5 -0.818821 0.0123153
0 0.5 0.818821 0.0117355
0.0124865 0.5 -0.818821 0.0131613
0.0124865 0.5 0.818821 0.012546
0 0.5 0.825 0.0117287
0 0.5 -0.825 0.0123049
0.756813 0.5 -0.3375 0.0043771
0.756813 0.5 0.3375 0.00433899
0.67013 0.5 0.4875 0.00546384
0.67013 0.5 -0.4875 0.00553741
0.797732 0.5 0.225 0.00390741
0.797732 0.5 -0.225 0.00393581
0 0.5 -0.831179 0.0122914
0 0.5 0.831179 0.0117203
0.0124865 0.5 0.831179 0.0125252
0.0124865 0.5 -0.831179 0.0131294
0.835106 0.5 -0.0375 0.00353417
0.835106 0.5 0.0375 0.00352789
0.151149 0.5 0.825 0.0155502
0.151149 0.5 -0.825 0.0161774
0.835106 0.5 0.1125 0.00354815
0.835106 0.5 -0.1125 0.00356137
0.715434 0.5 0.45 0.0049478
0.715434 0.5 -0.45 0.00501277
0.797732 0.5 0.3 0.00398905
0.797732 0.5 -0.3 0.00402505
0.467897 0.5 0.7125 0.00922114
0.467897 0.5 -0.7125 0.00933438
0.523432 0.5 0.675 0.00815822
0.523432 0.5 -0.675 0.00826867
0.411736 0.5 0.75 0.0105702
0.411736 0.5 -0.75 0.0107071
0.835106 0.5 0.1875 0.00359183
0.835106 0.5 -0.1875 0.00361476
0.574156 0.5 0.6375 0.00714026
0.574156 0.5 -0.6375 0.00724848
0.350249 0.5 -0.7875 0.0120996
0.350249 0.5 0.7875 0.0119341
0.756813 0.5 -0.4125 0.00451637
0.756814 0.5 0.4125 0.00446543
0.075776 0.5 -0.8625 0.0172942
0.075776 0.5 0.8625 0.0165393
0.624316 0.5 0.6 0.00637745
0.624316 0.5 -0.6 0.00648209
0.872064 0.5 4.32235e-17 0.00330692
0.288069 0.5 0.825 0.0132458
0.288069 0.5 -0.825 0.0135826
0.67013 0.5 0.5625 0.00565505
0.67013 0.5 -0.5625 0.00575537
0.872064 0.5 0.075 0.00331289
0.872064 0.5 -0.075 0.00332254
0.835106 0.5 0.2625 0.00365793
0.835106 0.5 -0.2625 0.00369408
0.797732 0.5 0.375 0.00409595
0.797732 0.5 -0.375 0.00413942
0.872064 0.5 0.15 0.00334251
0.872064 0.5 -0.15 0.00336045
0.715434 0.5 0.525 0.00511305
0.715434 0.5 -0.525 0.00520489
0.219992 0.5 0.8625 0.0144913
0.219993 0.5 -0.8625 0.0149971
0 0.5 -0.893821 0.0122025
0 0.5 0.893821 0.0116632
0.0124865 0.5 0.893821 0.0124681
0.0124865 0.5 -0.893821 0.0130405
0 0.5 0.9 0.0116587
0 0.5 -0.9 0.0121984
0.756813 0.5 0.4875 0.00460159
0.756813 0.5 -0.4875 0.00468443
0.872064 0.5 0.225 0.00339386
0.872064 0.5 -0.225 0.0034231
0.835106 0.5 0.3375 0.0037449
0.835106 0.5 -0.3375 0.00378091
0 0.5 0.906179 0.0116565
0 0.5 -0.906179 0.0121947
0.0124865 0.5 0.906179 0.0124581
0.0124865 0.5 -0.906179 0.013034
0.90582 0.5 -0.0375 0.00309466
0.905821 0.5 0.0375 0.00308775
0.151149 0.5 0.9 0.0154492
0.90582 0.5 0.1125 0.00310466
0.90582 0.5 -0.1125 0.00311685
0.151149 0.5 -0.901373 0.0160768
0.523432 0.5 0.75 0.00842106
0.523432 0.5 -0.75 0.00858223
0.574157 0.5 0.7125 0.00739889
0.574156 0.5 -0.7125 0.00755074
0.797732 0.5 0.45 0.00422022
0.797732 0.5 -0.45 0.00428588
0.467897 0.5 0.7875 0.00948563
0.467897 0.5 -0.7875 0.00965714
0.624316 0.5 0.675 0.00661594
0.624316 0.5 -0.675 0.00675929
0.411736 0.5 0.825 0.0107846
0.411736 0.5 -0.825 0.0109894
0.872064 0.5 0.3 0.00346576
0.872064 0.5 -0.3 0.00350332
0.67013 0.5 0.6375 0.00587318
0.67013 0.5 -0.6375 0.00600788
0.90582 0.5 0.1875 0.00314247
0.90582 0.5 -0.1875 0.00316587
0.350249 0.5 -0.8625 0.0123368
0.350249 0.5 0.8625 0.012094
0.835106 0.5 0.4125 0.00386008
0.835106 0.5 -0.4125 0.00390895
0.715434 0.5 0.6 0.00530765
0.715434 0.5 -0.6 0.00542988
0.939201 0.5 4.40909e-17 0.00297732
0.075776 0.5 -0.9375 0.0172322
0.075776 0.5 0.9375 0.0164889
0.939201 0.5 0.075 0.00298256
0.939201 0.5 -0.075 0.00299074
0.756814 0.5 0.5625 0.00477304
0.756814 0.5 -0.5625 0.00488315
0.905821 0.5 0.2625 0.00320056
0.905821 0.5 -0.2625 0.00323501
0.288069 0.5 0.9 0.0132829
0.288069 0.5 -0.901373 0.0136811
0.872064 0.5 0.375 0.00356051
0.872064 0.5 -0.375 0.00360567
0.939201 0.5 -0.15 0.00302474
0.939201 0.5 0.15 0.00301015
0.797732 0.5 0.525 0.00436552
0.797732 0.5 -0.525 0.00445982
0.219993 0.5 -0.9375 0.014978
0.219992 0.5 0.9375 0.0144185
0.939201 0.5 0.225 0.00305796
0.939201 0.5 -0.225 0.00308172
0.90582 0.5 0.3375 0.00327736
0.90582 0.5 -0.3375 0.00332081
0.835106 0.5 -0.4875 0.00406005
0.835107 0.5 0.4875 0.00397998
0 0.5 0.968821 0.0116342
0 0.5 -0.968821 0.012159
0.0124865 0.5 0.968821 0.0124358
0.0124865 0.5 -0.968821 0.0129983
0.969689 0.5 0.0375 0.00286387
0.969689 0.5 -0.0375 0.00287043
0.574156 0.5 0.7875 0.00768123
0.574156 0.5 -0.7875 0.00788712
0 0.5 0.975 0.0116286
0 0.5 -0.975 0.0121516
0.624316 0.5 0.75 0.0068798
0.624316 0.5 -0.75 0.00707089
0.969689 0.5 0.1125 0.00288141
0.96969 0.5 -0.1125 0.00288853
0.523432 0.5 0.825 0.00870534
0.523432 0.5 -0.825 0.00892776
0.67013 0.5 0.7125 0.00611772
0.67013 0.5 -0.7125 0.0062949
0 0.5 -0.981179 0.0121496
0 0.5 0.981179 0.0116261
0.467897 0.5 0.8625 0.00977034
0.467897 0.5 -0.8625 0.0100093
0.0124865 0.5 0.981179 0.0124179
0.0124865 0.5 -0.981179 0.0129831
0.872064 0.5 0.45 0.00367315
0.872064 0.5 -0.45 0.00373543
0.715434 0.5 0.675 0.00552876
0.715434 0.5 -0.675 0.0056886
0.939201 0.5 0.3 0.00312478
0.939201 0.5 -0.3 0.00315739
0.151149 0.5 0.975 0.0153995
0.151149 0.5 -0.975 0.0160679
0.969689 0.5 0.1875 0.00291949
0.969689 0.5 -0.1875 0.00293532
0.756814 0.5 0.6375 0.00497156
0.756814 0.5 -0.6375 0.00511488
0.411736 0.5 0.9 0.0110192
0.411736 0.5 -0.901373 0.0113018
0.90582 0.5 0.4125 0.00337787
0.90582 0.5 -0.4125 0.00342992
0.797732 0.5 0.6 0.00454108
0.797732 0.5 -0.6 0.00466489
1.00005 0.5 1.48897e-17 0.00270461
0.350249 0.5 -0.9375 0.0126012
0.350249 0.5 0.9375 0.0122757
1.00005 0.5 0.0749309 0.00271022
1.00005 0.5 -0.0749309 0.00271614
0.969689 0.5 0.2625 0.00297676
0.969689 0.5 -0.2625 0.00299845
0.835106 0.5 0.5625 0.00413438
0.835106 0.5 -0.5625 0.0042387
1.00005 0.5 0.149862 0.00273688
1.00005 0.5 -0.149862 0.00274726
0.939201 0.5 0.375 0.00321111
0.939201 0.5 -0.375 0.00325599
0.075776 0.5 1.0125 0.0164289
0.075776 0.5 -1.0125 0.0171927
0.288069 0.5 0.975 0.0133593
0.288069 0.5 -0.975 0.013839
0.872064 0.5 0.525 0.00380498
0.872064 0.5 -0.525 0.00389065
1.00005 0.5 0.224793 0.00278294
1.00005 0.5 -0.224793 0.0028
0.96969 0.5 0.3375 0.00305193
0.96969 0.5 -0.3375 0.00308316
1.0271 0.5 0.0368226 0.00253204
1.0271 0.5 -0.0368226 0.00253561
0.90582 0.5 0.4875 0.00349318
0.90582 0.5 -0.4875 0.00356143
1.0271 0.5 0.110468 0.00254685
1.0271 0.5 -0.110468 0.00255316
0.67013 0.5 -0.7875 0.00661646
0.67013 0.5 0.7875 0.00638837
0.624316 0.5 0.825 0.00716802
0.624316 0.5 -0.825 0.0074167
0.219992 0.5 -1.0125 0.0150202
0.219993 0.5 1.0125 0.0144012
0.574156 0.5 0.8625 0.00798575
0.574156 0.5 -0.8625 0.00825707
0.715434 0.5 0.75 0.00577607
0.715434 0.5 -0.75 0.00598191
0.756813 0.5 -0.7125 0.00537951
0.756814 0.5 0.7125 0.00519579
0.523432 0.5 0.9 0.00901103
0.939201 0.5 0.45 0.0033168
0.939201 0.5 -0.45 0.0033842
1.04168 0.5 0 0.00245518
0.523432 0.5 -0.901373 0.00931111
1.0271 0.5 0.184113 0.00258075
1.0271 0.5 -0.184113 0.00259297
0 0.5 1.04382 0.0116327
0 0.5 -1.04382 0.0121271
0.0124865 0.5 1.04382 0.0124244
0.0124865 0.5 -1.04382 0.0129606
1.00005 0.5 0.299723 0.00284728
1.00005 0.5 -0.299723 0.00287243
1.04168 0.5 0.0729162 0.00245988
1.04168 0.5 -0.0729162 0.00246466
0.797732 0.5 0.675 0.00474177
0.797732 0.5 -0.675 0.00490422
0.467897 0.5 -0.9375 0.0103907
0.467897 0.5 0.9375 0.0100747
0 0.5 1.05 0.0116362
0 0.5 -1.05 0.0121227
0.835106 0.5 0.6375 0.00431304
0.835106 0.5 -0.6375 0.00445071
1.04168 0.5 0.145832 0.00248164
1.04168 0.5 -0.145832 0.00249071
0.969689 0.5 -0.4125 0.00319785
0.96969 0.5 0.4125 0.00314489
0 0.5 1.05618 0.0116397
0 0.5 -1.05618 0.0121186
0.0124865 0.5 1.05618 0.0124303
0.0124865 0.5 -1.05618 0.0129424
1.05695 0.5 -0.0360764 0.00237728
1.05695 0.5 0.0360764 0.00237455
0.411736 0.5 0.975 0.0112739
0.411736 0.5 -0.975 0.0116443
0.872064 0.5 0.6 0.0039621
0.872064 0.5 -0.6 0.00407896
1.0271 0.5 0.257759 0.00263195
1.0271 0.5 -0.257759 0.00265031
0.151149 0.5 -1.05 0.016077
0.151149 0.5 1.05 0.0153997
1.05695 0.5 0.108229 0.00238538
1.05695 0.5 -0.108229 0.00239198
1.04168 0.5 0.218749 0.00252014
1.04168 0.5 -0.218749 0.00253495
0.90582 0.5 0.5625 0.00363129
0.90582 0.5 -0.5625 0.00372177
1.00005 0.5 0.374654 0.0029295
1.00005 0.5 -0.374654 0.00296966
0.350249 0.5 1.0125 0.0124739
0.350249 0.5 -1.0125 0.0129028
1.05695 0.5 0.180382 0.00241277
1.05695 0.5 -0.180382 0.00242474
0.939201 0.5 0.525 0.00344307
0.939201 0.5 -0.525 0.00353549
1.0271 0.5 -0.331404 0.00272954
1.0271 0.5 0.331404 0.00270067
1.08112 0.5 3.20924e-17 0.00227965
1.04168 0.5 0.291665 0.00257456
1.04168 0.5 -0.291665 0.00259717
1.08112 0.5 0.0709442 0.00228362
1.08112 0.5 -0.0709442 0.00228699
0.96969 0.5 0.4875 0.00325902
0.96969 0.5 -0.4875 0.0033548
1.05695 0.5 0.252535 0.00245414
1.05695 0.5 -0.252535 0.002472
0.288069 0.5 1.05 0.0134741
0.288069 0.5 -1.05 0.0140364
0.075776 0.5 -1.0875 0.017115
0.075776 0.5 1.0875 0.0164518
1.08112 0.5 0.141888 0.00230158
1.08112 0.5 -0.141888 0.00230852
0.715434 0.5 0.825 0.00604932
0.715434 0.5 -0.825 0.00631162
0.756814 0.5 0.7875 0.00544654
0.756814 0.5 -0.7875 0.00568053
0.67013 0.5 0.8625 0.00668425
0.67013 0.5 -0.8625 0.00697253
0.797732 0.5 0.75 0.00496829
0.797732 0.5 -0.75 0.00517771
0.624316 0.5 0.9 0.00747975
1.00005 0.5 0.449585 0.00303195
1.00005 0.5 -0.449585 0.00309963
0.624316 0.5 -0.901373 0.00780521
0.835106 0.5 0.7125 0.00451526
0.835106 0.5 -0.7125 0.0047004
0.574156 0.5 -0.9375 0.00865972
0.574156 0.5 0.9375 0.00831365
1.10076 0.5 0.0349809 0.00220842
1.10076 0.5 -0.0349809 0.00220966
1.08112 0.5 0.212832 0.00233406
1.08112 0.5 -0.212832 0.00234541
0.872064 0.5 0.675 0.00414234
0.872064 0.5 -0.675 0.00430161
1.04168 0.5 -0.364581 0.00268062
1.04168 0.5 0.364581 0.00264505
1.0271 0.5 -0.405049 0.00283303
1.0271 0.5 0.405049 0.00278682
1.05695 0.5 0.324688 0.00251062
1.05695 0.5 -0.324688 0.0025381
1.10076 0.5 -0.104943 0.0022211
1.10076 0.5 0.104943 0.0022181
0.523432 0.5 0.975 0.00933967
0.523432 0.5 -0.975 0.00971649
0.90582 0.5 0.6375 0.00378926
0.90582 0.5 -0.6375 0.00392454
0.219992 0.5 1.0875 0.0144525
0.219992 0.5 -1.0875 0.0151206
1.11376 0.5 1.15648e-18 0.00216584
0.939201 0.5 0.6 0.00360057
0.939201 0.5 -0.6 0.00369558
1.10076 0.5 0.174905 0.00224387
1.10076 0.5 -0.174905 0.00225005
0.467897 0.5 -1.0125 0.0108135
0.467897 0.5 1.0125 0.0104015
1.11376 0.5 0.0693118 0.00217007
1.11376 0.5 -0.0693118 0.00217165
1.08112 0.5 0.283777 0.00238021
1.08112 0.5 -0.285603 0.00240033
0 0.5 -1.11882 0.0121528
0 0.5 1.11882 0.0117111
0.0124865 0.5 1.11882 0.0125017
0.0124865 0.5 -1.11882 0.0129765
0.969689 0.5 0.5625 0.00339655
0.969689 0.5 -0.5625 0.00351079
1.11376 0.5 0.138624 0.00218753
1.11376 0.5 -0.138624 0.00219112
0 0.5 1.125 0.0117225
0 0.5 -1.125 0.0121645
1.10076 0.5 0.244866 0.00228206
1.10076 0.5 -0.244866 0.00229166
0.411736 0.5 -1.05 0.0120241
0.411736 0.5 1.05 0.0115479
1.05695 0.5 -0.396841 0.00264098
1.05695 0.5 0.396841 0.00258181
1.00005 0.5 0.524516 0.00315727
1.00005 0.5 -0.525427 0.0032439
1.04168 0.5 -0.437497 0.00279026
1.04168 0.5 0.437497 0.00273419
0 0.5 1.13118 0.0117337
0 0.5 -1.13118 0.0121744
0.0124865 0.5 -1.13118 0.0130089
0.0124865 0.5 1.13118 0.012532
1.11376 0.5 0.207935 0.00221901
1.0271 0.5 -0.478694 0.00296431
1.0271 0.5 0.478694 0.00289549
1.11376 0.5 -0.213207 0.00222556
1.07791 0.5 -0.354722 0.00248072
0.151149 0.5 1.125 0.0154991
0.151149 0.5 -1.125 0.0161793
1.08112 0.5 0.354722 0.00244046
1.13882 0.5 0.0340295 0.00207975
1.13882 0.5 -0.0340295 0.00208037
0.350249 0.5 1.0875 0.0126885
0.350249 0.5 -1.0875 0.0132319
1.13882 0.5 0.102088 0.00208908
1.13882 0.5 -0.102088 0.00208974
1.10076 0.5 0.314829 0.00233453
1.10076 0.5 -0.314829 0.00234973
0.756813 0.5 -0.8625 0.00602158
0.756814 0.5 0.8625 0.00572319
0.797732 0.5 0.825 0.00522191
0.797732 0.5 -0.825 0.00548886
1.11376 0.5 -0.277247 0.00227088
1.11376 0.5 0.277247 0.00226353
0.835106 0.5 0.7875 0.00474508
0.835106 0.5 -0.7875 0.00497978
0.715434 0.5 0.9 0.00634794
0.872064 0.5 0.75 0.0043496
0.872064 0.5 -0.75 0.00455702
0.715434 0.5 -0.901373 0.00668957
1.13882 0.5 -0.170147 0.00211649
1.13882 0.5 0.170147 0.00211355
0.67013 0.5 -0.9375 0.00736447
0.67013 0.5 0.9375 0.00700332
0.90582 0.5 0.7125 0.00397215
0.90582 0.5 -0.7125 0.00415126
1.05695 0.5 -0.468994 0.00276441
1.05695 0.5 0.468994 0.00267305
0.939201 0.5 0.675 0.0037717
0.939201 0.5 -0.675 0.00388516
0.624316 0.5 0.975 0.00781646
0.624316 0.5 -0.975 0.00821571
1.04168 0.5 -0.510414 0.00290324
1.04168 0.5 0.510414 0.00284483
0.969689 0.5 0.6375 0.00359228
0.969689 0.5 -0.6375 0.00363349
0.288069 0.5 1.125 0.0136254
0.288069 0.5 -1.125 0.0142824
1.16179 0.5 1.04083e-17 0.00199747
1.08112 0.5 -0.425666 0.00256048
1.08112 0.5 0.425666 0.0025168
1.13882 0.5 -0.238206 0.00216439
1.13882 0.5 0.238206 0.00214968
1.16179 0.5 0.0669104 0.00200147
1.16179 0.5 -0.0669104 0.0020013
0.574156 0.5 -1.0125 0.00909937
0.574156 0.5 1.0125 0.00866771
0.998291 0.5 -0.599796 0.00340377
0.075776 0.5 -1.1625 0.017283
0.075776 0.5 1.1625 0.0166365
1.00005 0.5 0.599447 0.00331817
1.10076 0.5 -0.384791 0.00242531
1.10076 0.5 0.384791 0.0024003
1.0271 0.5 0.55234 0.00302741
1.0271 0.5 -0.55234 0.00302786
1.11376 0.5 -0.346559 0.0023388
1.11376 0.5 0.346559 0.00232156
1.16179 0.5 0.133821 0.00201718
1.16179 0.5 -0.133821 0.00201931
0.523432 0.5 -1.05 0.0101682
0.523432 0.5 1.05 0.0096917
1.17463 0.5 0.0331343 0.00195347
1.17463 0.5 -0.0331343 0.00195356
1.15837 0.5 -0.200731 0.00205869
1.17463 0.5 0.0994029 0.00196143
1.17463 0.5 -0.0994029 0.00196007
1.16179 0.5 0.200074 0.00204664
1.13882 0.5 -0.306265 0.00220811
1.13882 0.5 0.306265 0.00219912
0.219992 0.5 1.1625 0.0145916
0.219992 0.5 -1.1625 0.0153308
0.467897 0.5 -1.0875 0.0112713
0.467897 0.5 1.0875 0.01075
1.17463 0.5 0.165672 0.00198384
1.17463 0.5 -0.165672 0.00198386
1.05695 0.5 0.541147 0.00278486
1.05695 0.5 -0.541147 0.00283004
1.18772 0.5 -1.15648e-18 0.00191079
1.11376 0.5 -0.41587 0.00242351
1.11376 0.5 0.41587 0.00239436
1.18772 0.5 0.0655187 0.0019147
1.08112 0.5 0.49661 0.0026118
1.08112 0.5 -0.49661 0.00265562
1.18772 0.5 -0.0699161 0.00191359
1.10076 0.5 -0.454752 0.00252626
1.10076 0.5 0.454752 0.00248334
1.16179 0.5 0.267642 0.00208842
1.16179 0.5 -0.267642 0.00208975
0 0.5 1.19382 0.0118603
0 0.5 -1.19382 0.0122775
0.0124865 0.5 -1.19382 0.013112
0.0124865 0.5 1.19382 0.0126586
1.04168 0.5 -0.58333 0.00303199
1.04168 0.5 0.58333 0.00298192
1.18772 0.5 0.131228 0.00193015
1.18772 0.5 -0.131228 0.00192648
1.17463 0.5 0.23194 0.00201605
1.17463 0.5 -0.23194 0.00201754
0.411736 0.5 1.125 0.0118212
0.411736 0.5 -1.125 0.0124185
1.13882 0.5 0.374324 0.00226116
1.13882 0.5 -0.374324 0.00227674
0 0.5 1.2 0.0118731
0 0.5 -1.2 0.0122873
0.90582 0.5 0.7875 0.0041869
0.90582 0.5 -0.7875 0.00441777
0.872064 0.5 0.825 0.00458878
0.872064 0.5 -0.825 0.00484967
0.835106 0.5 -0.8625 0.00530375
0.835106 0.5 0.8625 0.00500316
1.18534 0.5 0.196842 0.00196288
0.939201 0.5 0.75 0.00394901
0.939201 0.5 -0.75 0.00411717
0.797732 0.5 0.9 0.00550371
1.0271 0.5 -0.625985 0.003248
1.0271 0.5 0.625985 0.00318933
0.969689 0.5 0.7125 0.00374013
0.96969 0.5 -0.7125 0.00384132
0.797732 0.5 -0.901373 0.00584972
1.18772 0.5 -0.196842 0.00195383
0.756813 0.5 -0.9375 0.00640683
0.756813 0.5 0.9375 0.0060269
0.998291 0.5 -0.67477 0.00358386
1.15863 0.5 0.334552 0.00214866
0 0.5 1.20618 0.0118868
0 0.5 -1.20618 0.0122983
1.00005 0.5 0.674378 0.00347934
0.0124865 0.5 -1.20618 0.0131399
0.0124865 0.5 1.20618 0.0126933
1.16179 0.5 -0.334552 0.00214582
0.715434 0.5 0.975 0.00667371
0.715434 0.5 -0.975 0.00709054
0.151149 0.5 1.2 0.0156906
0.151149 0.5 -1.2 0.0163942
1.20942 0.5 -0.0322645 0.001838
1.20942 0.5 0.0322645 0.0018387
1.18534 0.5 0.249669 0.00199097
1.17463 0.5 0.298209 0.0020605
1.17463 0.5 -0.298209 0.00206419
1.20942 0.5 0.0967935 0.00184575
1.20942 0.5 -0.0967935 0.00184267
0.350249 0.5 1.1625 0.0128815
0.350249 0.5 -1.1625 0.0135642
0.67013 0.5 1.0125 0.00734956
0.67013 0.5 -1.0125 0.00780646
1.11376 0.5 -0.485183 0.0025122
1.11376 0.5 0.485183 0.002484
1.18772 0.5 -0.262456 0.00199188
1.10076 0.5 -0.524714 0.00260872
1.10076 0.5 0.524714 0.00258403
1.20942 0.5 0.161322 0.00186288
1.20942 0.5 -0.161322 0.00185962
1.08112 0.5 -0.567554 0.00276354
1.08112 0.5 0.567554 0.00272846
0.624316 0.5 1.05 0.00817914
0.624316 0.5 -1.05 0.00867957
1.13882 0.5 0.442383 0.00233835
1.13882 0.5 -0.442383 0.00236289
1.05695 0.5 -0.6133 0.00297544
1.05695 0.5 0.6133 0.0029234
1.15863 0.5 0.401463 0.00221416
1.16179 0.5 -0.401463 0.00221754
0.574156 0.5 1.0875 0.00904487
0.574157 0.5 -1.0875 0.00958469
1.17463 0.5 0.364477 0.0021165
1.17463 0.5 -0.364477 0.0021246
1.20942 0.5 0.225851 0.00189146
1.20942 0.5 -0.225851 0.00188851
1.23036 0.5 -1.38778e-17 0.00176738
1.04168 0.5 -0.656246 0.0032073
1.04168 0.5 0.656246 0.00312105
1.23036 0.5 -0.0634819 0.00176914
1.23036 0.5 0.0634819 0.00177127
1.18772 0.5 0.32807 0.00203947
1.18772 0.5 -0.32807 0.00204281
0.288069 0.5 1.2 0.0138288
0.288069 0.5 -1.2 0.014598
1.23036 0.5 0.126964 0.00178411
1.23036 0.5 -0.126964 0.00177969
0.075776 0.5 -1.2375 0.0174642
0.075776 0.5 1.2375 0.0168541
0.523432 0.5 1.125 0.0100516
0.523432 0.5 -1.125 0.0106479
1.0271 0.5 -0.69963 0.00345346
1.0271 0.5 0.69963 0.00332855
1.24274 0.5 -0.0314313 0.00172828
1.24274 0.5 0.0314313 0.00172971
1.20942 0.5 0.29038 0.00193097
1.20942 0.5 -0.29038 0.00192877
1.11376 0.5 -0.554494 0.00261141
1.11376 0.5 0.554494 0.00259156
1.23036 0.5 0.190445 0.00180707
1.23036 0.5 -0.190445 0.00180208
1.24274 0.5 0.0942942 0.00173624
1.24274 0.5 -0.0942942 0.00173141
1.13882 0.5 -0.510442 0.00244192
1.13882 0.5 0.510442 0.00243134
0.998291 0.5 -0.749744 0.00380783
0.969689 0.5 0.7875 0.00390535
0.969689 0.5 -0.7875 0.00406925
1.00005 0.5 0.749309 0.00364193
1.15863 0.5 0.468373 0.00229453
0.939201 0.5 0.825 0.00415716
0.939201 0.5 -0.825 0.00437814
1.2484 0.5 -0.0653061 0.00171177
0.90582 0.5 0.8625 0.00444129
0.90582 0.5 -0.8625 0.00471913
1.17463 0.5 -0.430746 0.00220062
1.17463 0.5 0.430746 0.00218605
1.10076 0.5 -0.594676 0.00273091
1.10076 0.5 0.594676 0.00270689
1.18772 0.5 0.393684 0.00209982
1.18772 0.5 -0.393684 0.00210838
1.24274 0.5 -0.157157 0.00174844
1.24274 0.5 0.157157 0.00175495
1.16179 0.5 -0.468373 0.0022951
0.467897 0.5 -1.1625 0.0117219
0.467897 0.5 1.1625 0.0110787
0.872064 0.5 0.9 0.00486182
1.25401 0.5 0 0.00169805
0.872064 0.5 -0.901373 0.00519128
1.24906 0.5 -0.125094 0.00171983
0.835106 0.5 0.9375 0.00529261
0.835106 0.5 -0.9375 0.0056589
1.25401 0.5 0.0622994 0.00170196
1.08112 0.5 -0.638498 0.00291402
1.08112 0.5 0.638498 0.00285089
1.23036 0.5 0.253927 0.00183884
1.23036 0.5 -0.253927 0.00183378
0.219992 0.5 1.2375 0.0148175
0.219992 0.5 -1.2375 0.0156267
1.05695 0.5 -0.685452 0.00315816
1.05695 0.5 0.685452 0.0030403
0.797732 0.5 0.975 0.00581404
0.797732 0.5 -0.975 0.00622853
1.25401 0.5 0.124599 0.00171411
1.20942 0.5 0.354909 0.00198128
1.20942 0.5 -0.354909 0.0019818
1.24274 0.5 0.220019 0.00178088
1.24274 0.5 -0.220019 0.00177366
1.24906 0.5 -0.187641 0.00174028
0.756813 0.5 -1.0125 0.00683008
0.756813 0.5 1.0125 0.00636158
1.25401 0.5 0.186898 0.00173568
0.411736 0.5 1.2 0.0120974
0.411736 0.5 -1.2 0.0128497
0 0.5 1.26882 0.0120507
0 0.5 -1.26882 0.0124351
0.0124865 0.5 -1.26882 0.0132766
0.0124865 0.5 1.26882 0.0128572
0.715434 0.5 -1.05 0.00754371
0.715434 0.5 1.05 0.00702805
1.23036 0.5 0.31741 0.00188081
1.23036 0.5 -0.31741 0.00187677
1.04168 0.5 -0.729162 0.00341735
1.04168 0.5 0.729162 0.00326998
1.18772 0.5 -0.459298 0.00218199
1.18772 0.5 0.459298 0.00217419
1.24274 0.5 0.282882 0.00181632
1.24274 0.5 -0.282882 0.00180843
0 0.5 1.275 0.0120688
0 0.5 -1.275 0.0124503
1.27472 0.5 -0.0306319 0.00163018
1.27472 0.5 0.0306319 0.00163207
1.17463 0.5 -0.497015 0.00227347
1.17463 0.5 0.497015 0.00227071
1.15837 0.5 0.534151 0.00238352
1.11376 0.5 0.62266 0.00271238
1.11376 0.5 -0.623806 0.00274601
1.13882 0.5 -0.578501 0.00255178
1.13882 0.5 0.578501 0.00255107
0.67013 0.5 1.0875 0.0077231
0.67013 0.5 -1.0875 0.00829479
1.27472 0.5 -0.0918959 0.00163523
1.27472 0.5 0.0918959 0.00163827
1.25401 0.5 -0.249197 0.00175915
1.25401 0.5 0.249197 0.00176536
1.16179 0.5 -0.535284 0.00238228
1.20942 0.5 0.419438 0.00204372
1.20942 0.5 -0.419438 0.00205079
0 0.5 1.28118 0.0120874
0 0.5 -1.28118 0.0124662
0.0124865 0.5 1.28118 0.0129069
0.0124865 0.5 -1.28118 0.01332
1.27472 0.5 0.15316 0.00165507
1.27472 0.5 -0.15316 0.00164916
0.151149 0.5 -1.275 0.0166701