# nutMean  POINT_DATA 91132
# x  y  z  nutMean
0 0 0 5.02953e-06
0 0.00368111 0 1.82512e-05
0 0.00749587 0 7.14815e-05
0 0.0114491 0 0.000265593
0 0.0155459 0 0.00069588
0 0.0197915 0 0.00176225
0 0.0241911 0 0.00264596
0 0.0287506 0 0.00299745
0 0.0334755 0 0.00343295
0 0.038372 0 0.0037359
0 0.0434463 0 0.00395079
0 0.0487048 0 0.00411745
0 0.0541543 0 0.00425963
0 0.0598016 0 0.00439323
0 0.0656539 0 0.00452942
0 0.0717187 0 0.00467148
0.075776 0.00184056 0 8.86763e-06
0.075776 0.00558849 3.46945e-18 1.3072e-05
0.075776 0.00947249 0 6.20984e-05
0.075776 0.0134975 0 0.000291521
0.075776 0.0176687 0 0.000833479
0 0.0780037 0 0.00481776
0.075776 0.0219913 0 0.00168384
0.075776 0.0264709 -3.46945e-18 0.00285119
0.075776 0.031113 3.46945e-18 0.00431089
0.075776 0.0359238 0 0.00601181
0 0.0845169 0 0.00496759
0.075776 0.0409091 0 0.00789074
0.075776 0.0460755 0 0.00987985
0 0.0912666 0 0.00512108
0.075776 0.0514296 0 0.0119116
0.075776 0.0569779 0 0.0139187
0 0.0982613 0 0.00527736
0.075776 0.0627277 -3.46945e-18 0.0149772
0.075776 0.0686863 0 0.0154491
0 0.10551 0 0.0054345
0.075776 0.0748612 0 0.015972
0.075776 0.0812603 0 0.0165523
0 0.113022 0 0.00559007
0.075776 0.0878918 0 0.0171974
0 0.120806 0 0.00574229
0.075776 0.0947639 0 0.0179206
0.075776 0.101886 -3.46945e-18 0.0187514
0 0.128874 0 0.0058955
0.075776 0.109266 0 0.0197479
0 0.137234 0 0.00606683
0.075776 0.116914 0 0.0209883
0 0.145897 0 0.00627402
0.075776 0.12484 0 0.0225629
0.151552 0 0 0
0.151552 0.00368111 0 7.30824e-06
0.151552 0.00749587 0 2.50851e-05
0.151552 0.0114491 0 0.000110469
0.151552 0.0155459 0 0.000347068
0.151552 0.0197915 0 0.000789276
0.075776 0.133054 -3.46945e-18 0.0245425
0.151552 0.0241911 0 0.0014525
0.151552 0.0287506 0 0.00233781
0 0.154876 0 0.00651679
0.151552 0.0334755 0 0.00342918
0.151552 0.038372 0 0.00469949
0.151552 0.0434463 0 0.00611556
0.151552 0.0487048 0 0.00764153
0.075776 0.141565 0 0.0268564
0.151552 0.0541543 0 0.0092406
0.151552 0.0598016 0 0.0106699
0 0.16418 0 0.00678375
0.151552 0.0656539 0 0.011789
0.151552 0.0717187 0 0.0128309
0.075776 0.150387 -3.46945e-18 0.0289512
0.151552 0.0780037 0 0.0139409
0.151552 0.0845169 0 0.0151099
0 0.173822 0 0.00706907
0.075776 0.159528 -3.46945e-18 0.0304406
0.151552 0.0912666 0 0.0163125
0.151552 0.0982613 0 0.017476
0 0.183814 0 0.00737166
0.151552 0.10551 0 0.0184973
0.075776 0.169001 0 0.0310458
0.151552 0.113022 0 0.0194366
0.151552 0.120806 0 0.0204339
0 0.194169 0 0.00768926
0.075776 0.178818 3.46945e-18 0.0307133
0.151552 0.128874 0 0.0217343
0.075776 0.188991 0 0.0296452
0.151552 0.137234 0 0.0234885
0 0.2049 0 0.00801737
0.151552 0.145897 0 0.0254262
0.075776 0.199534 0 0.0281638
0 0.21602 0 0.00834793
0.151552 0.154876 0 0.0271633
0.219992 0.00184055 0 2.49098e-06
0.219992 0.00558849 -3.46945e-18 5.36566e-06
0.219992 0.00947248 3.46945e-18 2.17279e-05
0.219992 0.0134975 -3.46945e-18 7.67377e-05
0.219992 0.0176687 3.46945e-18 0.000219679
0.219992 0.0219913 3.46945e-18 0.000492313
0.219993 0.0264709 0 0.000908019
0.219992 0.031113 -3.46945e-18 0.00147237
0.219992 0.0359237 3.46945e-18 0.00218807
0.151552 0.16418 0 0.0284212
0.075776 0.21046 3.46945e-18 0.0265242
0.219992 0.0409092 0 0.00305364
0.219992 0.0460755 0 0.00406397
0.219993 0.0514296 0 0.00521113
0.219992 0.0569779 0 0.00648599
0 0.227544 0 0.0086923
0.219992 0.0627277 0 0.00787872
0.219992 0.0686863 -3.46945e-18 0.00937734
0.151552 0.173822 0 0.0290852
0.219992 0.0748612 3.46945e-18 0.0109678
0.075776 0.221782 0 0.0248203
0.219992 0.0812603 0 0.0126283
0.219992 0.0878917 0 0.014333
0.151552 0.183814 0 0.0291939
7.47806e-17 0.239487 0 0.00912905
0.219993 0.0947639 0 0.0159905
0.219992 0.101886 0 0.0173738
0.075776 0.233515 3.46945e-18 0.0233472
0.219993 0.109266 0 0.0182318
0.151552 0.194169 0 0.0288865
0.219992 0.116914 3.46945e-18 0.0189216
0 0.251863 0 0.00966762
0.219992 0.12484 -3.46945e-18 0.019469
0.151552 0.2049 0 0.0283172
0.075776 0.245675 0 0.0227877
0.219992 0.133054 0 0.0206422
0.219992 0.141566 0 0.0222525
0.151552 0.21602 0 0.027583
0 0.264688 0 0.0102516
0.219993 0.150387 0 0.0240252
0.075776 0.258275 3.46945e-18 0.0224884
0.219992 0.159528 0 0.025625
0.151552 0.227544 0 0.0267856
0.219993 0.169001 -3.46945e-18 0.0269296
0 0.27798 0 0.0108795
0.075776 0.271334 0 0.0223291
0.151552 0.239487 3.70071e-18 0.0261649
0.219992 0.178818 0 0.0279275
0.288433 0 0 0
0.288433 0.00368111 0 3.03101e-06
0.288433 0.00749587 0 1.14089e-05
0.288433 0.0114491 0 3.92096e-05
0.288433 0.0155459 0 0.000112039
0.288433 0.0197915 0 0.000268731
0.288433 0.0241911 0 0.000535185
0.288433 0.0287506 0 0.000921737
0.219993 0.188991 0 0.0286407
0.288433 0.0334755 0 0.00143597
0.288433 0.038372 0 0.00207994
0.288433 0.0434463 0 0.00285283
7.47806e-17 0.291753 0 0.0115536
0.288433 0.0487048 0 0.00375135
0.288433 0.0541543 0 0.00477023
0.151552 0.251863 0 0.0257374
0.288433 0.0598016 0 0.00590253
0.075776 0.284867 0 0.0223279
0.288433 0.0656539 0 0.00713894
0.219992 0.199534 0 0.0290991
0.288433 0.0717187 0 0.00846718
0.288433 0.0780037 0 0.00987022
0.288433 0.0845169 0 0.0113251
0.288433 0.0912666 0 0.0125576
0.219992 0.21046 0 0.0293324
0.288433 0.0982613 0 0.0133733
0.151552 0.264688 3.70071e-18 0.0253298
0 0.306027 0 0.0122848
0.288433 0.10551 0 0.0139283
0.075776 0.29889 -3.46945e-18 0.022466
0.288433 0.113022 0 0.0143992
0.219992 0.221782 0 0.0293622
0.288433 0.120806 0 0.0148358
0.288433 0.128874 0 0.0153591
0.151552 0.27798 0 0.0249987
0.288433 0.137234 0 0.0161031
0 0.320819 0 0.0131886
0.219993 0.233515 0 0.0291988
0.075776 0.313423 3.46945e-18 0.0227714
0.288433 0.145897 0 0.016991
0.288433 0.154876 0 0.0178861
0.151552 0.291753 0 0.0247989
0.219993 0.245675 0 0.0288515
0.288433 0.16418 0 0.0186706
0 0.336148 0 0.0146349
0.288433 0.173822 0 0.0193071
0.075776 0.328484 0 0.0238094
0.219992 0.258275 0 0.0283476
0.151552 0.306027 0 0.0246297
0.288433 0.183814 0 0.0197959
0.288433 0.194169 0 0.0201492
0.219993 0.271334 0 0.0277073
0.350249 0.00184056 0 9.04211e-07
0.350249 0.00558849 3.46945e-18 3.49515e-06
0.350249 0.00947248 0 1.53615e-05
0.350249 0.0134975 3.46945e-18 4.44854e-05
0.350249 0.0176687 -3.46945e-18 0.000112573
0.350249 0.0219913 0 0.000263189
0.350249 0.0264709 -3.46945e-18 0.000501474
0.350249 0.031113 0 0.000844553
0 0.352034 0 0.0160804
0.350249 0.0359238 3.46945e-18 0.00129684
0.075776 0.344091 0 0.0269637
0.350249 0.0409091 3.46945e-18 0.0018607
0.350249 0.0460755 -3.46945e-18 0.00253677
0.288433 0.2049 0 0.0203815
0.350249 0.0514296 0 0.00332378
0.151552 0.320819 0 0.0245784
0.350249 0.0569779 0 0.00421848
0.350249 0.0627277 0 0.00521498
0.350249 0.0686863 0 0.0063035
0.350249 0.0748612 0 0.00747054
0.350249 0.0812603 0 0.00869737
0.219992 0.284867 0 0.0272221
0.288433 0.21602 0 0.0205051
0.350249 0.0878918 0 0.00995829
0.350249 0.0947639 0 0.0103309
0.350249 0.101886 0 0.0102836
0.350249 0.109266 3.46945e-18 0.0103926
0.288433 0.227544 0 0.0205267
0.075776 0.360265 0 0.0276914
0 0.368496 0 0.0165468
0.151552 0.336148 0 0.0251683
0.350249 0.116914 -3.46945e-18 0.0106638
0.219992 0.29889 -3.46945e-18 0.0268126
0.370854 0.0241911 -3.08149e-33 0.000389326
0.350249 0.12484 3.46945e-18 0.0109284
0.350249 0.133054 0 0.0110856
0.288433 0.239487 -9.25154e-19 0.0204495
0.350249 0.141565 3.46945e-18 0.0112157
0.350249 0.150387 0 0.011372
0.288433 0.251863 0 0.0202806
0.219992 0.313423 0 0.0261618
0.151552 0.352034 0 0.0256691
0.075776 0.377026 -3.46945e-18 0.0260445
0.350249 0.159528 0 0.0115392
0 0.385557 0 0.0160308
0.350249 0.169001 3.46945e-18 0.0117034
0.288433 0.264688 0 0.020029
0.350249 0.178818 3.46945e-18 0.0118576
0.219992 0.328484 0 0.0253744
0.350249 0.188991 0 0.0120006
0.151552 0.368496 0 0.0249781
0.288433 0.27798 3.70071e-18 0.0197668
0.075776 0.394396 -3.46945e-18 0.0233163
0.350249 0.199535 3.46945e-18 0.0121329
7.47806e-17 0.403236 0 0.0154468
0.219992 0.344091 -3.46945e-18 0.0245592
0.350249 0.21046 3.46945e-18 0.0122545
0.288433 0.291753 0 0.019544
0.412065 9.08189e-19 3.08149e-33 2.43429e-22
0.412065 0.00368111 3.08149e-33 2.08873e-06
0.412065 0.00749587 3.08149e-33 9.36753e-06
0.412065 0.0114491 0 2.78125e-05
0.412065 0.0155459 0 6.8294e-05
0.412065 0.0197915 0 0.000156217
0.412065 0.0241911 -3.08149e-33 0.000316396
0.412065 0.0264709 0 0.000438826
0.412065 0.0287506 0 0.000561256
0.412065 0.0334755 3.08149e-33 0.000899442
0.412065 0.038372 3.08149e-33 0.00133676
0.151552 0.385557 0 0.023397
0.412065 0.0434463 0 0.00187492
0.350249 0.221782 3.46945e-18 0.0123648
0.412065 0.0487048 0 0.00251385
0.412065 0.0541543 0 0.00325151
0.412065 0.0569779 0 0.00366745
0.412065 0.0598016 0 0.0040834
0.412065 0.0656539 3.08149e-33 0.00500167
0.412065 0.0717187 3.08149e-33 0.00599418
0.075776 0.412396 -3.46945e-18 0.0224153
0.412065 0.0780037 -2.31298e-18 0.00703955
0.288433 0.306027 0 0.0192672
0.412065 0.0845169 2.31112e-33 0.00792211
0.350249 0.233515 0 0.0124612
0 0.421557 0 0.0153799
0.412065 0.0912666 1.54074e-33 0.00838419
0.219992 0.360265 0 0.0237148
0.412065 0.0982613 0 0.00849659
0.412065 0.10551 0 0.00853802
0.412065 0.113022 -2.31298e-18 0.00866138
0.350249 0.245675 3.46945e-18 0.0125401
0.412065 0.120806 0 0.00882527
0.151552 0.403236 0 0.0219727
0.288433 0.320819 0 0.0188877
0.412065 0.128874 -2.31298e-18 0.00896184
0.412065 0.137234 0 0.009066
0.350249 0.258275 3.46945e-18 0.0125984
0.219993 0.377026 0 0.0227492
0.412065 0.145897 -2.31298e-18 0.00917079
0.075776 0.43105 -3.46945e-18 0.0223406
0.412065 0.154876 -2.31298e-18 0.00928446
0 0.440544 0 0.0155089
0.288433 0.336148 0 0.0184594
0.350249 0.271334 0 0.0126305
0.412065 0.16418 -2.31298e-18 0.00939915
0.412065 0.173822 -2.31298e-18 0.00950976
0.151552 0.421557 0 0.0212311
0.412065 0.183814 -2.31298e-18 0.00961423
0.350249 0.284866 3.46945e-18 0.0126307
0.219992 0.394397 -3.46945e-18 0.0216727
0.288433 0.352034 3.70071e-18 0.0180099
0.412065 0.194169 0 0.00971229
0.075776 0.450382 -3.46945e-18 0.0223952
0.412065 0.2049 -2.31298e-18 0.00980403
0 0.46022 0 0.0156595
0.350249 0.29889 -3.46945e-18 0.0126008
0.412065 0.21602 0 0.00988921
0.151552 0.440544 0 0.0208005
0.219993 0.412397 3.46945e-18 0.0206217
0.467897 0.00184056 3.46945e-18 5.99319e-07
0.467897 0.00558849 3.46945e-18 3.37179e-06
0.288433 0.368496 0 0.0175153
0.467897 0.00947248 0 1.52504e-05
0.467897 0.0134975 3.46945e-18 3.64477e-05
0.467897 0.0176687 0 8.10987e-05
0.467897 0.0219913 0 0.000172427
0.467897 0.0264709 0 0.000337694
0.467897 0.031113 0 0.000576891
0.467897 0.0359238 3.46945e-18 0.000903366
0.467897 0.038372 0 0.0011558
0.467897 0.0409092 0 0.00131989
0.350249 0.313423 3.46945e-18 0.0125462
0.467897 0.0460756 3.46945e-18 0.00182747
0.467897 0.0514296 0 0.00242544
0.412065 0.227544 -2.31298e-18 0.00996691
0.467897 0.0569779 0 0.00311077
0.467897 0.0627277 3.46945e-18 0.00387764
0.467897 0.0686863 3.46945e-18 0.00471615
0.467897 0.0748612 0 0.00561095
0.467897 0.0812603 0 0.00652487
0.467897 0.0878917 0 0.0067037
0.075776 0.470415 0 0.0224996
0.412065 0.239487 -2.31298e-18 0.0100355
0.467897 0.0947639 -3.46945e-18 0.00678895
0.467897 0.101886 0 0.00683489
0.350249 0.328483 3.46945e-18 0.0124707
0.467897 0.109266 0 0.00689148
0 0.48061 0 0.0158059
0.288433 0.385557 0 0.0169515
0.467897 0.116914 -3.46945e-18 0.00695736
0.412065 0.251863 -2.31298e-18 0.0100931
0.219992 0.43105 -3.46945e-18 0.0197208
0.467897 0.12484 0 0.00702567
0.151552 0.46022 0 0.0204886
0.467897 0.133054 0 0.0070921
0.467897 0.141566 0 0.00716039
0.412065 0.264688 -2.31298e-18 0.0101376
0.350249 0.344091 0 0.0123803
0.467897 0.150387 3.46945e-18 0.00723017
0.467897 0.154876 0 0.00777624
0.467897 0.159528 0 0.00729826
0.288433 0.403236 0 0.0163522
0.075776 0.491175 0 0.0226006
0.412065 0.27798 -2.31298e-18 0.0101667
0.467897 0.169001 0 0.00736453
0.467897 0.178818 3.46945e-18 0.0074289
0.219992 0.450382 -3.46945e-18 0.0189832
7.47806e-17 0.501741 0 0.0159051
0.350249 0.360265 0 0.0122764
0.151552 0.48061 3.70071e-18 0.020241
0.467897 0.188992 0 0.00749117
0.412065 0.291753 0 0.0101797
0.467897 0.199534 -3.46945e-18 0.00755124
0.288433 0.421557 0 0.0157856
0.467897 0.21046 0 0.00760899
0.412065 0.306027 0 0.0101776
0.350249 0.377026 -3.46945e-18 0.0121515
0.467897 0.221782 -3.46945e-18 0.0076642
0.075776 0.51269 3.46945e-18 0.0225818
0.219992 0.470415 3.46945e-18 0.0183733
0.412065 0.320819 -2.31298e-18 0.0101618
0.467897 0.233515 3.46945e-18 0.00771654
7.47806e-17 0.523639 0 0.01593
0.523729 0 0 0
0.523729 0.00368111 0 1.92975e-06
0.523729 0.00749587 0 9.71131e-06
0.523729 0.0114491 0 2.62051e-05
0.523729 0.0155459 0 5.56101e-05
0.523729 0.0197915 3.08149e-33 0.000112301
0.151552 0.501741 0 0.0199961
0.523729 0.0241911 0 0.000222207
0.523729 0.0287506 0 0.000398449
0.523729 0.0334755 0 0.000645893
0.523729 0.038372 -3.08149e-33 0.000974836
0.523729 0.0434463 0 0.00138732
0.523729 0.0487048 0 0.00188335
0.523729 0.0541543 0 0.00246083
0.288433 0.440544 0 0.0152941
0.523729 0.0598016 0 0.003115
0.350249 0.394397 0 0.0119961
0.523729 0.0656539 0 0.0038375
0.467897 0.245675 0 0.00776561
0.523729 0.0717187 0 0.00461511
0.523729 0.0780037 0 0.00531966
0.523729 0.0845169 0 0.00568653
0.523729 0.0912666 0 0.00578847
0.412065 0.336148 0 0.0101336
0.523729 0.0982613 0 0.00585604
0.523729 0.10551 -2.31298e-18 0.00591421
0.467897 0.258275 0 0.00781114
0.523729 0.113022 0 0.00597464
0.523729 0.120806 -3.08149e-33 0.00603585
0.219992 0.491176 3.46945e-18 0.0178402
0.523729 0.12484 0 0.0060656
0.523729 0.128874 -2.31298e-18 0.00609536
0.075776 0.534986 3.46945e-18 0.0224702
0.467897 0.271334 3.46945e-18 0.00785322
0.350249 0.412396 3.46945e-18 0.0118138
0.523729 0.137234 0 0.00615338
0.412065 0.352034 -2.31298e-18 0.0100944
0.288433 0.46022 0 0.0148805
0.523729 0.145897 0 0.00621114
0.151552 0.523639 0 0.0197232
0.495813 0.227544 -1.54074e-33 0.00733925
0.523729 0.154876 -3.08149e-33 0.00626803
0 0.546332 0 0.0158963
0.523729 0.159528 0 0.00629569
0.467897 0.284867 0 0.00789306
0.523729 0.16418 -2.31298e-18 0.00632336
0.523729 0.173822 0 0.00637718
0.412065 0.368496 0 0.0100425
0.523729 0.183814 0 0.00642946
0.467897 0.29889 3.46945e-18 0.00793072
0.350249 0.431051 0 0.0116215
0.219993 0.51269 3.46945e-18 0.0173545
0.523729 0.194169 0 0.00648017
0.288433 0.48061 0 0.0145278
0.523729 0.2049 0 0.0065293
0.467897 0.313423 0 0.00796371
0.075776 0.55809 0 0.0222962
0.412065 0.385557 0 0.00997383
0.523729 0.21602 -3.08149e-33 0.00657681
0.151552 0.546332 0 0.0194354
0 0.569849 0 0.0158182
0.350249 0.450382 3.46945e-18 0.0114382
0.467897 0.328483 -3.46945e-18 0.00799023
0.574156 0.00184055 0 4.39917e-07
0.574156 0.00558849 0 3.31536e-06
0.574156 0.00947248 3.46945e-18 1.68556e-05
0.574156 0.0134975 -3.46945e-18 3.62205e-05
0.574157 0.0176687 3.46945e-18 6.90896e-05
0.574156 0.0219913 0 0.000128489
0.574156 0.0264708 0 0.000254533
0.574157 0.031113 3.46945e-18 0.000432403
0.574156 0.0359237 3.46945e-18 0.000683278
0.574157 0.0409092 3.46945e-18 0.00101076
0.523729 0.239487 0 0.00666658
0.574156 0.0460755 -3.46945e-18 0.00141562
0.574156 0.0514296 0 0.00189674
0.412065 0.403236 0 0.00988653
0.574157 0.0569779 0 0.00245066
0.574156 0.0627277 0 0.00307063
0.574156 0.0686863 0 0.00374581
0.219992 0.534985 0 0.01691
0.288433 0.501741 3.70071e-18 0.014216
0.574156 0.0748612 0 0.00445941
0.574156 0.0812603 3.46945e-18 0.00478146
0.467897 0.344091 0 0.00800899
0.574156 0.0878917 0 0.00485758
0.523729 0.251863 0 0.00670862
0.574156 0.0947639 -3.46945e-18 0.00492903
0.574156 0.101886 3.46945e-18 0.00499641
0.574156 0.109266 -3.46945e-18 0.00505822
0.574156 0.116914 3.46945e-18 0.00511578
0.412065 0.416977 1.54074e-33 0.00981092
0.350249 0.470415 0 0.0112762
0.523729 0.264688 0 0.00674878
0.075776 0.582034 0 0.0220821
0.574156 0.12484 3.46945e-18 0.00516959
0.574156 0.133054 0 0.00522006
0.412065 0.421557 3.08149e-33 0.00978572
0.151552 0.569849 0 0.019146
0.467897 0.360265 -3.46945e-18 0.00801948
0.574156 0.141565 -3.46945e-18 0.00526815
0.523729 0.27798 0 0.00678745
0.574156 0.150386 0 0.00531448
0 0.594219 0 0.0157069
0.574157 0.159528 0 0.00535935
0.574156 0.16418 0 0.00556345
0.288433 0.523639 -9.25154e-19 0.0139341
0.574156 0.169001 -3.46945e-18 0.00540296
0.523729 0.291753 0 0.0068249
0.219993 0.558091 3.46945e-18 0.01651
0.467897 0.377027 -3.46945e-18 0.00802158
0.574156 0.178818 0 0.00544544
0.412065 0.440544 -2.31298e-18 0.00968134
0.350249 0.491175 3.46945e-18 0.0111381
0.574156 0.188992 0 0.00548684
0.523729 0.306027 2.31298e-18 0.0068603
0.574156 0.199534 0 0.00552724
0.574157 0.21046 -3.46945e-18 0.00556675
0.075776 0.606847 0 0.0218426
0.467897 0.394397 0 0.0080148
0.151552 0.594219 0 0.0188632
0.523729 0.320819 0 0.0068922
0.574156 0.221782 -3.46945e-18 0.00560542
0.412065 0.46022 -2.31298e-18 0.00958317
0.288433 0.546332 0 0.0136795
0 0.619475 0 0.0155708
0.574156 0.233515 3.46945e-18 0.00564336
0.350249 0.51269 0 0.0110187
0.219992 0.582034 3.46945e-18 0.0161543
0.523729 0.336148 0 0.00691941
0.467897 0.412396 -3.46945e-18 0.00799856
0.574156 0.245675 3.46945e-18 0.00568068
0.624584 0 0 0
0.624584 0.00368111 0 1.85033e-06
0.624584 0.00749587 0 1.06488e-05
0.624584 0.0114491 0 2.7868e-05
0.624584 0.0155459 0 5.24478e-05
0.624584 0.0197915 0 9.28522e-05
0.624584 0.0241911 3.08149e-33 0.000171268
0.624584 0.0287506 0 0.000305652
0.624584 0.0334755 0 0.000499593
0.624584 0.038372 0 0.000759881
0.624584 0.0434463 0 0.00109225
0.624584 0.0487048 0 0.00149658
0.624584 0.0541543 0 0.00197038
0.624584 0.0598016 0 0.00250829
0.624584 0.0656539 0 0.00310126
0.624584 0.0717187 0 0.00371797
0.624584 0.0780037 0 0.00412878
0.574157 0.258275 -3.46945e-18 0.00571752
0.624584 0.0845169 0 0.0042698
0.523729 0.352034 0 0.00694116
0.624584 0.0912666 0 0.00434371
0.624584 0.0982613 0 0.00441208
0.412065 0.48061 -2.31298e-18 0.00949713
0.624584 0.10551 0 0.00447407
0.624584 0.113022 -2.31298e-18 0.00453075
0.574156 0.271334 -3.46945e-18 0.00575408
0.624584 0.120806 0 0.00458325
0.467897 0.43105 3.46945e-18 0.00797398
0.075776 0.632561 0 0.021587
0.624584 0.128874 0 0.00463213
0.151552 0.619475 0 0.0185911
0.288433 0.569849 0 0.0134524
0.350249 0.534985 0 0.0109136
0.624584 0.137234 -2.31298e-18 0.00467803
0.523729 0.368496 0 0.00695714
0.574156 0.284867 0 0.00579047
0.624584 0.145897 0 0.00472161
0.467897 0.440544 0 0.00832131
0.624584 0.154876 0 0.00476334
0.219992 0.606847 0 0.0158402
0 0.645647 0 0.0154162
0.624584 0.16418 -3.08149e-33 0.00480354
0.574156 0.29889 3.46945e-18 0.00582646
0.624584 0.173822 0 0.00484243
0.412065 0.501741 -2.31298e-18 0.00942411
0.467897 0.450382 -3.46945e-18 0.00794484
0.523729 0.385557 -3.08149e-33 0.00696716
0.624584 0.183814 0 0.00488017
0.624584 0.194169 0 0.00491689
0.574157 0.313423 -3.46945e-18 0.00586131
0.624584 0.2049 0 0.0049527
0.350249 0.558091 0 0.0108203
0.288433 0.594219 0 0.0132517
0.624584 0.21602 0 0.00498772
0.523729 0.403236 -3.70071e-18 0.00697091
0.574156 0.328483 -3.46945e-18 0.00589414
0.151552 0.645647 0 0.0183315
0.467897 0.470415 0 0.0079161
0.075776 0.659208 0 0.0213215
0.624584 0.227544 0 0.00502208
0.412065 0.523639 -2.31298e-18 0.00936231
0.523729 0.41545 -1.54074e-33 0.00696929
0.624584 0.239487 3.70071e-18 0.00505592
0.574156 0.344091 3.46945e-18 0.00592413
0.219992 0.632561 0 0.015564
0.67013 0.00184055 -3.46945e-18 3.2814e-07
0.67013 0.00558849 -3.46945e-18 3.32133e-06
0.67013 0.00947248 3.46945e-18 1.90345e-05
0.67013 0.0134975 -3.46945e-18 3.91995e-05
0.67013 0.0176687 3.46945e-18 6.5308e-05
0.67013 0.0219913 0 0.00010925
0.67013 0.0264708 0 0.000195278
0.67013 0.031113 0 0.000345023
0.67013 0.0359237 0 0.000544796
0.67013 0.0409092 3.46945e-18 0.000811352
0.67013 0.0460755 3.46945e-18 0.00114605
0.67013 0.0514296 0 0.00154743
0.523729 0.421557 3.08149e-33 0.00696848
0.67013 0.0569779 0 0.00201154
0 0.67277 0 0.0152481
0.67013 0.0627277 -3.46945e-18 0.0025312
0.624584 0.251863 0 0.00508938
0.67013 0.0686863 0 0.00309494
0.67013 0.0748612 0 0.00361872
0.67013 0.0812603 0 0.00371556
0.67013 0.0878918 0 0.00379168
0.67013 0.0947639 0 0.00386359
0.574156 0.360265 3.46945e-18 0.00595081
0.67013 0.101886 0 0.00392646
0.523729 0.431051 0 0.00696487
0.624584 0.264688 0 0.00512261
0.467897 0.491175 3.46945e-18 0.00789173
0.67013 0.109266 3.46945e-18 0.00398266
0.350249 0.582034 0 0.0107382
0.67013 0.116914 0 0.00403415
0.67013 0.12484 0 0.00408167
0.67013 0.133054 0 0.00412577
0.288433 0.619475 0 0.0130763
0.624584 0.27798 2.31298e-18 0.00515572
0.412065 0.546332 -2.31298e-18 0.00930999
0.523729 0.440544 -3.08149e-33 0.00696127
0.67013 0.141566 0 0.00416707
0.685312 0.0241911 -7.70372e-34 0.0001501
0.685312 0.0434463 -7.70372e-34 0.000959507
0.67013 0.150386 0 0.00420609
0.574157 0.377027 -3.46945e-18 0.00597406
0.67013 0.159528 -3.46945e-18 0.00424325
0.624584 0.291753 0 0.00518866
0.151552 0.67277 0 0.0180848
0.075776 0.686823 0 0.0210509
0.67013 0.169001 -3.46945e-18 0.00427887
0.67013 0.178818 0 0.0043132
0.467897 0.51269 0 0.00787357
0.685312 0.113022 -7.70372e-34 0.0039382
0.219992 0.659208 0 0.0153218
0.624584 0.306027 0 0.00522112
0.67013 0.188992 0 0.00434644
0.574157 0.394397 0 0.00599383
0.523729 0.46022 0 0.006952
0.685312 0.137234 -7.70372e-34 0.00407621
0.67013 0.199535 0 0.00437874
0.350249 0.606847 0 0.0106676
0 0.700877 0 0.0150705
0.624584 0.320819 0 0.00525256
0.67013 0.21046 0 0.00441024
0.412065 0.569849 -2.31298e-18 0.00926611
0.67013 0.221782 0 0.0044411
0.574156 0.412396 0 0.00600994
0.288433 0.645647 0 0.0129246
0.624584 0.336148 0 0.00528239
0.67013 0.233516 -3.46945e-18 0.0044715
0.467897 0.534986 0 0.00786182
0.523729 0.48061 0 0.00694375
0.624584 0.344091 0 0.00529626
0.67013 0.245675 0 0.00450161
0.715676 4.54095e-19 0 4.67236e-23
0.715676 0.00368111 -9.25187e-19 1.81568e-06
0.715676 0.00749587 -9.25187e-19 1.1824e-05
0.715676 0.0114491 -9.25187e-19 3.08847e-05
0.715676 0.0155459 -9.25187e-19 5.36377e-05
0.715676 0.0197915 -9.25187e-19 8.4919e-05
0.715676 0.0241911 -9.25187e-19 0.000139516
0.715676 0.0287506 0 0.000245167
0.715676 0.0334755 0 0.00040553
0.715676 0.038372 -9.25187e-19 0.000617437
0.624584 0.352034 3.08149e-33 0.00531013
0.715676 0.0434463 -9.25187e-19 0.000893137
0.151552 0.700877 0 0.017851
0.715676 0.0487048 0 0.00123271
0.715676 0.0541543 0 0.00163343
0.574156 0.43105 3.46945e-18 0.00602243
0.715676 0.0598016 -9.25187e-19 0.00208949
0.67013 0.258275 3.46945e-18 0.00453158
0.715676 0.0656539 -9.25187e-19 0.00259125
0.715676 0.0717187 -9.25187e-19 0.00305606
0.075776 0.715441 0 0.0207788
0.715676 0.0780037 0 0.00330727
0.715676 0.0845169 0 0.00339271
0.219992 0.686824 0 0.0151092
0.715676 0.0912666 0 0.00346595
0.715676 0.0982613 0 0.00353155
0.67013 0.271334 3.46945e-18 0.00456149
0.350249 0.632561 -3.46945e-18 0.010609
0.412065 0.594219 -2.31298e-18 0.0092305
0.715676 0.10551 0 0.00358954
0.715676 0.113022 0 0.00364192
0.624584 0.368496 0 0.00533553
0.523729 0.501741 3.70071e-18 0.00693885
0.715676 0.120806 0 0.00368992
0.715676 0.128874 0 0.00373417
0.67013 0.284867 0 0.0045914
0.467897 0.558091 3.46945e-18 0.00785588
0.715676 0.137234 0 0.0037753
0.574156 0.450382 3.46945e-18 0.00603209
0 0.730005 0 0.0148872
0.715676 0.145897 0 0.00381382
0.288433 0.67277 0 0.0127944
0.715676 0.154876 0 0.00385022
0.67013 0.29889 -3.46945e-18 0.00462121
0.624584 0.385557 0 0.00535847
0.715676 0.16418 0 0.00388483
0.715676 0.173822 0 0.00391795
0.715676 0.183814 0 0.00394982
0.67013 0.313423 -3.46945e-18 0.00465069
0.523729 0.523639 3.70071e-18 0.0069385
0.715676 0.194169 0 0.00398062
0.574156 0.470415 0 0.00604051
0.624584 0.403236 -3.70071e-18 0.00537888
0.743101 0.0241911 -7.70372e-34 0.000133358
0.412065 0.619475 -2.31298e-18 0.0092035
0.715676 0.2049 0 0.00401051
0.151552 0.730005 0 0.01763
0.67013 0.328483 0 0.00467951
0.350249 0.659208 0 0.0105628
0.467897 0.582034 0 0.00785533
0.715676 0.21602 0 0.00403967
0.219992 0.715441 0 0.0149227
0.075776 0.745098 0 0.0205083
0.715676 0.227544 0 0.00406825
0.67013 0.344091 0 0.00470731
0.624584 0.421557 0 0.00539672
0.743101 0.128874 -7.70372e-34 0.003532
0.715676 0.239487 0 0.00409642
0.574156 0.491175 3.46945e-18 0.00604965
0.756814 0.00184056 -3.46945e-18 2.42796e-07
0.523729 0.546332 0 0.00694293
0.756813 0.00558849 -3.46945e-18 3.3716e-06
0.756813 0.00947248 -3.46945e-18 2.14964e-05
0.756813 0.0134975 -3.46945e-18 4.36099e-05
0.756814 0.0155459 0 5.52915e-05
0.756814 0.0176687 0 6.62783e-05
0.756814 0.0219913 3.46945e-18 9.91083e-05
0.756814 0.0264709 3.46945e-18 0.00015587
0.756813 0.0311131 3.46945e-18 0.000287324
0.756813 0.0359238 -3.46945e-18 0.000449429
0.288433 0.700877 0 0.0126839
0.756813 0.0409092 -3.46945e-18 0.000671026
0.756813 0.0460755 0 0.000953789
0.756813 0.0514296 0 0.00129647
0.715676 0.251863 0 0.0041243
0.756814 0.0569779 0 0.00169477
0.756814 0.0627277 0 0.00214098
0.756814 0.0686863 0 0.00262291
0 0.76019 0 0.0147014
0.756813 0.0748612 0 0.0029216
0.67013 0.360265 -3.46945e-18 0.00473379
0.756814 0.0812603 0 0.00301373
0.756814 0.0878917 0 0.00309053
0.756813 0.0947639 -3.46945e-18 0.00315873
0.715676 0.264688 0 0.00415203
0.756814 0.101886 -3.46945e-18 0.00321836
0.624584 0.440544 0 0.00541225
0.756814 0.109266 0 0.00327176
0.756814 0.116914 0 0.00332036
0.412065 0.645647 0 0.00918553
0.467897 0.606847 -3.46945e-18 0.00786022
0.756814 0.120806 0 0.0033875
0.756813 0.12484 3.46945e-18 0.00336487
0.715676 0.27798 -9.25187e-19 0.00417966
0.756813 0.133054 -3.46945e-18 0.00340594
0.67013 0.377027 0 0.0047588
0.756814 0.137234 0 0.00347115
0.574157 0.51269 3.46945e-18 0.00606116
0.756813 0.141566 3.46945e-18 0.00344411
0.685312 0.352034 -7.70372e-34 0.00464556
0.743101 0.2049 -7.70372e-34 0.00380217
0.350249 0.686824 0 0.0105287
0.756813 0.150386 -3.46945e-18 0.0034799
0.756814 0.154876 0 0.00354408
0.715676 0.291753 3.70074e-18 0.00420719
0.756814 0.159528 3.46945e-18 0.00351368
0.523729 0.569849 0 0.00695203
0.72743 0.264688 0 0.00406039
0.756814 0.16418 0 0.00357758
0.151552 0.76019 3.70071e-18 0.0174219
0.756813 0.169001 -3.46945e-18 0.00354576
0.624584 0.46022 0 0.00542626
0.219993 0.745098 0 0.0147594
0.67013 0.394396 -3.46945e-18 0.00478226
0.756813 0.178818 -3.46945e-18 0.00357641
0.715676 0.306027 -9.25187e-19 0.00423452
0.075776 0.775831 0 0.0202422
0.756814 0.188992 0 0.00360584
0.756814 0.199535 0 0.00363426
0.715676 0.320819 0 0.00426147
0.574156 0.534986 3.46945e-18 0.00607604
0.288433 0.730005 0 0.0125913
0.756814 0.21046 3.46945e-18 0.00366184
0.467897 0.632561 0 0.00787097
0.67013 0.412396 -3.46945e-18 0.00480415
0.624584 0.48061 -3.08149e-33 0.00544
0.756814 0.221782 0 0.00368873
0.412065 0.67277 -2.31298e-18 0.00917687
0.715676 0.336148 0 0.00428779
0 0.791472 0 0.014516
0.756813 0.233515 3.46945e-18 0.00371509
0.523729 0.594219 0 0.00696575
0.624584 0.487654 1.54074e-33 0.00544495
0.756814 0.245675 0 0.00374107
0.350249 0.715441 3.46945e-18 0.0105064
0.67013 0.43105 3.46945e-18 0.00482448
0.715676 0.352034 -9.25187e-19 0.00431327
0.797951 9.08189e-19 0 7.00306e-23
0.797951 0.00368111 2.31298e-18 1.80443e-06
0.797951 0.00749587 2.31298e-18 1.31082e-05
0.797951 0.0114491 2.31298e-18 3.44448e-05
0.797951 0.0141803 7.70372e-34 4.94452e-05
0.797951 0.0155459 0 5.69454e-05
0.797951 0.0169611 7.70372e-34 6.53267e-05
0.797951 0.0197915 -3.08149e-33 8.20893e-05
0.797951 0.0219913 0 0.000101565
0.797951 0.0241911 3.08149e-33 0.000121041
0.797951 0.0264709 0 0.000161325
0.797951 0.0287506 -3.08149e-33 0.000201609
0.797951 0.0334755 2.31298e-18 0.000336057
0.797951 0.038372 2.31298e-18 0.000516309
0.797951 0.0434463 2.31298e-18 0.000748949
0.797951 0.0487048 2.31298e-18 0.00103954
0.756814 0.258275 -3.46945e-18 0.00376677
0.797951 0.0541543 2.31298e-18 0.00138537
0.797951 0.0598016 2.31298e-18 0.00178031
0.797951 0.0656539 2.31298e-18 0.00221166
0.574156 0.55809 3.46945e-18 0.00609466
0.624584 0.501741 3.70071e-18 0.00545485
0.797951 0.0717187 2.31298e-18 0.00254898
0.797951 0.0780037 2.31298e-18 0.00270964
0.797951 0.0845169 0 0.00279453
0.797951 0.0912666 0 0.00286751
0.797951 0.0982613 -3.08149e-33 0.00293129
0.756814 0.271334 3.46945e-18 0.0037923
0.797951 0.10551 0 0.00298774
0.715676 0.368496 -9.25187e-19 0.0043377
0.151552 0.791472 3.70071e-18 0.0172271
0.797951 0.113022 0 0.00303867
0.219992 0.775831 3.46945e-18 0.014617
0.797951 0.118211 7.70372e-34 0.00306962
0.770526 0.239487 -3.08149e-33 0.00367346
0.797951 0.120806 0 0.00308509
0.67013 0.450382 -3.46945e-18 0.00484347
0.797951 0.128874 3.08149e-33 0.00312767
0.467897 0.659208 0 0.00788808
0.756814 0.284867 -3.46945e-18 0.00381769
0.743101 0.320819 -7.70372e-34 0.00404243
0.797951 0.137234 0 0.003167
0.797951 0.141566 0 0.00318531
0.797951 0.145897 0 0.00320362
0.523729 0.619475 0 0.0069843
0.075776 0.807681 -3.46945e-18 0.0199834
0.797951 0.150387 0 0.00322078
0.797951 0.154876 9.25187e-19 0.00323795
0.715676 0.385557 0 0.004361
0.412065 0.700877 -2.31298e-18 0.0091776
0.288433 0.76019 0 0.0125153
0.756814 0.29889 0 0.00384291
0.797951 0.16418 0 0.00327033
0.624584 0.523639 3.70071e-18 0.00547192
0.797951 0.167394 7.70372e-34 0.00328057
0.797951 0.173822 0 0.00330105
0.574156 0.582034 0 0.0061171
0.67013 0.470415 0 0.00486172
0.797951 0.183814 -3.08149e-33 0.00333035
0.756814 0.313423 0 0.00386792
0.797951 0.194169 0 0.00335843
0.715676 0.403236 3.70074e-18 0.00438312
0.151552 0.807681 0 0.0171365
0.797951 0.197746 -7.70372e-34 0.00336744
0.350249 0.745097 0 0.0104956
0.797951 0.2049 3.08149e-33 0.00338547
0 0.823889 0 0.0143338
0.756813 0.328483 3.46945e-18 0.0038926
0.797951 0.21046 0 0.00339856
0.797951 0.21602 -3.08149e-33 0.00341165
0.797951 0.223703 7.70372e-34 0.00342862
0.797951 0.227544 0 0.0034371
0.624584 0.546332 0 0.00549192
0.715676 0.421557 -9.25187e-19 0.00440407
0.67013 0.491175 3.46945e-18 0.00488015
0.797951 0.231525 7.70372e-34 0.0034454
0.467897 0.686823 0 0.00791199
0.523729 0.645647 0 0.00700809
0.756813 0.344091 0 0.00391679
0.822721 0.120806 7.70372e-34 0.00294003
0.797951 0.239487 -3.08149e-33 0.00346199
0.822721 0.137234 7.70372e-34 0.00302177
0.835106 0.00184055 0 1.7777e-07
0.835106 0.00558849 0 3.42597e-06
0.835106 0.00947248 -3.46945e-18 2.40703e-05
0.835106 0.0134975 -3.46945e-18 4.84086e-05
0.835106 0.0176687 -3.46945e-18 6.92794e-05