# nutMean  POINT_DATA 63140
# x  y  z  nutMean
0 0.1 0 0.00531506
0 0.1 -0.0179898 0.00532389
0 0.1 0.0179898 0.00530632
0.0363518 0.1 -0.0179898 0.0116203
0.0363518 0.1 0.0179898 0.0118622
0 0.1 -0.0570102 0.00535289
0 0.1 0.0570102 0.00529934
0.0363518 0.1 0.0570102 0.0118552
0.0363518 0.1 -0.0570102 0.0116493
0 0.1 0.075 0.00530145
0 0.1 -0.075 0.00537081
0.075776 0.1 -0.0375 0.0182813
0.075776 0.1 0.0375 0.0187816
0 0.1 0.0929898 0.00530349
0 0.1 -0.0929898 0.00538964
0.0363518 0.1 0.0929898 0.011515
0.0363518 0.1 -0.0929898 0.0111124
0 0.1 0.13201 0.0053164
0 0.1 -0.13201 0.00542566
0.075776 0.1 0.1125 0.0180866
0.075776 0.1 -0.1125 0.0171599
0.0363518 0.1 0.13201 0.0115279
0.0363518 0.1 -0.13201 0.0111484
0 0.1 0.15 0.00532587
0 0.1 -0.15 0.00544081
0.150379 0.1 -8.67362e-19 0.0177529
0.150379 0.1 0.0710023 0.0177269
0 0.1 0.16799 0.00533587
0 0.1 -0.16799 0.00545771
0.150379 0.1 -0.075 0.0164114
0.0363518 0.1 0.16799 0.0107688
0.0363518 0.1 -0.16799 0.0104483
0.075776 0.1 0.1875 0.0165202
0.075776 0.1 -0.1875 0.0157488
0 0.1 0.20701 0.00535785
0 0.1 -0.20701 0.00547965
0.0363518 0.1 0.20701 0.0107908
0.0363518 0.1 -0.20701 0.0104703
0.150379 0.1 -0.15 0.0147667
0.150379 0.1 0.15 0.0160979
0.219992 0.1 -0.0375 0.0167364
0.219992 0.1 0.0375 0.0172787
0 0.1 0.225 0.00536841
0 0.1 -0.225 0.00548539
0 0.1 0.24299 0.00538031
0 0.1 -0.24299 0.0054924
0.0363518 0.1 0.24299 0.0100046
0.0363518 0.1 -0.24299 0.010056
0.219992 0.1 0.1125 0.0164311
0.219993 0.1 -0.1125 0.0135673
0.150379 0.1 -0.225 0.0139914
0.150379 0.1 0.225 0.0143314
0.075776 0.1 -0.2625 0.0149329
0.075776 0.1 0.2625 0.0149275
0 0.1 -0.28201 0.00549653
0 0.1 0.28201 0.00539473
0.0363518 0.1 -0.28201 0.0100601
0.0363518 0.1 0.28201 0.010019
0.287374 0.1 0 0.0135811
0.219992 0.1 -0.1875 0.0127147
0.219993 0.1 0.1875 0.0134368
0.287374 0.1 0.0710023 0.0136541
0.287374 0.1 -0.075 0.0125507
0 0.1 0.3 0.00539775
0 0.1 -0.3 0.00549513
0 0.1 0.31799 0.00540197
0 0.1 -0.31799 0.00549413
0.0363518 0.1 0.31799 0.00953076
0.0363518 0.1 -0.31799 0.00980306
0.287374 0.1 0.15 0.0125149
0.287374 0.1 -0.15 0.0114587
0.150379 0.1 -0.3 0.0135644
0.150379 0.1 0.3 0.0133978
0.219993 0.1 -0.2625 0.012675
0.219993 0.1 0.2625 0.0125391
0.075776 0.1 0.3375 0.0139481
0.075776 0.1 -0.3375 0.0144068
0.350249 0.1 0.0375 0.0103766
0.350249 0.1 -0.0375 0.0102157
0 0.1 -0.35701 0.00548683
0 0.1 0.35701 0.00540116
0.0363518 0.1 0.35701 0.00952995
0.0363518 0.1 -0.35701 0.00979575
0.287374 0.1 0.225 0.0114439
0.287374 0.1 -0.225 0.0112292
0.350249 0.1 0.1125 0.0103207
0.350249 0.1 -0.1125 0.0098964
0 0.1 0.375 0.00539756
0 0.1 -0.375 0.00548182
0 0.1 -0.39299 0.00547713
0 0.1 0.39299 0.00539457
0.0363518 0.1 -0.39299 0.00951064
0.0363518 0.1 0.39299 0.00925642
0.350249 0.1 -0.1875 0.0097935
0.350249 0.1 0.1875 0.0100582
0.219992 0.1 0.3375 0.0122534
0.219993 0.1 -0.3375 0.0123307
0.150379 0.1 0.375 0.0129958
0.150379 0.1 -0.375 0.013493
0.411108 0.1 0 0.00852414
0.287374 0.1 0.3 0.0111111
0.287374 0.1 -0.3 0.0111836
0.411108 0.1 0.0710023 0.00860209
0.411108 0.1 -0.075 0.00839433
0.075776 0.1 0.4125 0.0133922
0.075776 0.1 -0.4125 0.0138279
0 0.1 0.43201 0.0053824
0 0.1 -0.43201 0.00545806
0.0363518 0.1 0.43201 0.00924425
0.0363518 0.1 -0.43201 0.00949156
0.411108 0.1 -0.15 0.00828663
0.411108 0.1 0.15 0.00849475
0.350249 0.1 -0.2625 0.00985941
0.350249 0.1 0.2625 0.00986203
0 0.1 0.45 0.00537492
0 0.1 -0.45 0.00544589
0.219992 0.1 -0.4125 0.0134548
0.219992 0.1 0.4125 0.012438
0 0.1 0.46799 0.00536762
0 0.1 -0.46799 0.00543355
0.411108 0.1 0.225 0.00839111
0.411108 0.1 -0.225 0.00829975
0.467897 0.1 -0.0375 0.00680829
0.467897 0.1 0.0375 0.00683717
0.0363518 0.1 0.46799 0.00899374
0.0363518 0.1 -0.46799 0.00922723
0.287374 0.1 0.375 0.0111328
0.287374 0.1 -0.375 0.0114477
0.150379 0.1 0.45 0.0131829
0.150379 0.1 -0.45 0.0136967
0.467897 0.1 0.1125 0.00686135
0.467897 0.1 -0.1125 0.0067885
0.350249 0.1 0.3375 0.00989633
0.350249 0.1 -0.3375 0.00998194
0.075776 0.1 -0.4875 0.0132901
0.075776 0.1 0.4875 0.0128837
0.467897 0.1 0.1875 0.00687309
0.467897 0.1 -0.1875 0.00679153
0 0.1 0.50701 0.0053464
0 0.1 -0.50701 0.00540679
0.0363518 0.1 -0.50701 0.00920047
0.0363518 0.1 0.50701 0.00897252
0.411108 0.1 0.3 0.00837256
0.411108 0.1 -0.3 0.00839876
0.522865 0.1 -9.1073e-18 0.00588281
0 0.1 0.525 0.00533455
0 0.1 -0.525 0.00539453
0.522865 0.1 0.0710023 0.00591926
0.522865 0.1 -0.075 0.00587708
0.287374 0.1 0.45 0.0116622
0.287374 0.1 -0.45 0.011996
0.219992 0.1 -0.4875 0.0141993
0.219992 0.1 0.4875 0.014011
0.467897 0.1 0.2625 0.00689502
0.467897 0.1 -0.2625 0.00687705
0.350249 0.1 -0.4125 0.0101557
0.350249 0.1 0.4125 0.0100472
0 0.1 0.54299 0.00532235
0 0.1 -0.54299 0.00538149
0.522865 0.1 -0.15 0.00589135
0.522865 0.1 0.15 0.00592635
0.0363518 0.1 0.54299 0.00875196
0.0363518 0.1 -0.54299 0.00896312
0.150379 0.1 -0.525 0.0136177
0.150379 0.1 0.525 0.0134468
0.411108 0.1 0.375 0.00846893
0.411108 0.1 -0.375 0.00854528
0.075776 0.1 0.5625 0.0124334
0.075776 0.1 -0.5625 0.0128032
0.522865 0.1 0.225 0.00595957
0.522865 0.1 -0.225 0.00594604
0.574156 0.1 0.0375 0.00497842
0.574157 0.1 -0.0375 0.00497872
0.467897 0.1 -0.3375 0.00700044
0.467897 0.1 0.3375 0.00695674
0 0.1 0.58201 0.00529742
0 0.1 -0.58201 0.0053562
0.0363518 0.1 0.58201 0.00872704
0.0363518 0.1 -0.58201 0.00893783
0.574156 0.1 0.1125 0.00500125
0.574156 0.1 -0.1125 0.00500267
0.287374 0.1 0.525 0.0122651
0.287374 0.1 -0.525 0.012243
0 0.1 0.6 0.00528647
0 0.1 -0.6 0.0053454
0.350249 0.1 0.4875 0.0102956
0.350249 0.1 -0.4875 0.0103462
0.522865 0.1 -0.3 0.00604614
0.522865 0.1 0.3 0.00601634
0.219992 0.1 0.5625 0.0143907
0.219992 0.1 -0.5625 0.0141239
0.574156 0.1 0.1875 0.00504116
0.574157 0.1 -0.1875 0.0050508
0.411108 0.1 0.45 0.00865488
0.411108 0.1 -0.45 0.0087304
0 0.1 0.61799 0.00527482
0 0.1 -0.61799 0.00533368
0.150379 0.1 0.6 0.0132685
0.150379 0.1 -0.6 0.0133169
0.0363518 0.1 -0.61799 0.00872729
0.0363518 0.1 0.61799 0.00853252
0.623413 0.1 0 0.00443465
0.467897 0.1 0.4125 0.00709638
0.467897 0.1 -0.4125 0.00716889
0.623803 0.1 0.0710023 0.00445246
0.623803 0.1 -0.075 0.00445025
0.574156 0.1 0.2625 0.00509909
0.574157 0.1 -0.2625 0.00513229
0.623803 0.1 -0.15 0.00448948
0.623803 0.1 0.15 0.00447263
0.075776 0.1 0.6375 0.0120333
0.075776 0.1 -0.6375 0.0123696
0.522865 0.1 -0.375 0.00618363
0.522865 0.1 0.375 0.00611666
0 0.1 0.65701 0.00525294
0 0.1 -0.65701 0.00531134
0.0363518 0.1 0.65701 0.00851064
0.0363518 0.1 -0.65701 0.00870495
0.350249 0.1 0.5625 0.0105404
0.350249 0.1 -0.5625 0.0104765
0.623803 0.1 0.225 0.00452119
0.623803 0.1 -0.225 0.0045525
0.287374 0.1 0.6 0.0123949
0.287374 0.1 -0.6 0.0122283
0.574156 0.1 0.3375 0.00518349
0.574157 0.1 -0.3375 0.005243
0.411108 0.1 0.525 0.0088955
0.411108 0.1 -0.525 0.00891645
0.67013 0.1 0.0375 0.00390605
0.67013 0.1 -0.0375 0.00391357
0.219993 0.1 0.6375 0.0141231
0.219993 0.1 -0.6375 0.0139015
0 0.1 0.675 0.00524397
0 0.1 -0.675 0.00530175
0.467897 0.1 0.4875 0.00730415
0.467897 0.1 -0.4875 0.00737862
0.67013 0.1 0.1125 0.00392386
0.67013 0.1 -0.1125 0.00394391
0.522865 0.1 -0.45 0.00636134
0.522865 0.1 0.45 0.00627309
0.150379 0.1 0.675 0.0129306
0.150379 0.1 -0.675 0.0130069
0.623803 0.1 0.3 0.00459231
0.623803 0.1 -0.3 0.00464515
0 0.1 -0.69299 0.00529124
0 0.1 0.69299 0.00523421
0.0363518 0.1 0.69299 0.00834385
0.0363518 0.1 -0.69299 0.0085272
0.67013 0.1 0.1875 0.00396272
0.67013 0.1 -0.1875 0.00399818
0.574156 0.1 0.4125 0.00529927
0.574157 0.1 -0.4125 0.00539143
0.714619 0.1 4.77049e-18 0.00355044
0.075776 0.1 0.7125 0.0116893
0.075776 0.1 -0.7125 0.0120034
0.714971 0.1 0.0710023 0.00356009
0.714971 0.1 -0.075 0.00356986
0.67013 0.1 0.2625 0.00402024
0.67013 0.1 -0.2625 0.0040665
0.411108 0.1 0.6 0.00912532
0.411108 0.1 -0.6 0.00907276
0.350249 0.1 0.6375 0.0106916
0.350249 0.1 -0.6375 0.0105708
0.623803 0.1 0.375 0.00468831
0.623803 0.1 -0.375 0.00477061
0.714971 0.1 0.15 0.00357988
0.714971 0.1 -0.15 0.00361115
0.467897 0.1 0.5625 0.00756816
0.467897 0.1 -0.5625 0.0075916
0 0.1 0.73201 0.00521635
0 0.1 -0.73201 0.00527177
0.0363518 0.1 0.73201 0.008326
0.0363518 0.1 -0.73201 0.00850774
0.287374 0.1 0.675 0.0123058
0.287374 0.1 -0.675 0.0121679
0.522865 0.1 0.525 0.00648416
0.522865 0.1 -0.525 0.00656847
0.219992 0.1 0.7125 0.0137786
0.219992 0.1 -0.7125 0.0136752
0.714971 0.1 -0.225 0.00367236
0.714971 0.1 0.225 0.00362535
0 0.1 0.75 0.00520921
0 0.1 -0.75 0.00526373
0.67013 0.1 -0.3375 0.00417689
0.67013 0.1 0.3375 0.00410482
0.574157 0.1 0.4875 0.0054635
0.574157 0.1 -0.4875 0.00557699
0.756813 0.1 0.0375 0.00319761
0.756814 0.1 -0.0375 0.00320754
0.150379 0.1 -0.75 0.0127372
0.150379 0.1 0.75 0.0126103
0.756813 0.1 0.1125 0.00321131
0.756814 0.1 -0.1125 0.00323736
0 0.1 0.76799 0.00520123
0 0.1 -0.76799 0.00525475
0.0363518 0.1 0.76799 0.00818893
0.0363518 0.1 -0.76799 0.00836224
0.623803 0.1 0.45 0.00481835
0.623803 0.1 -0.45 0.00492765
0.714971 0.1 0.3 0.00369226
0.714971 0.1 -0.3 0.00375813
0.756813 0.1 0.1875 0.0032449
0.756813 0.1 -0.1875 0.00328817
0.67013 0.1 -0.4125 0.00430954
0.67013 0.1 0.4125 0.00420441
0.411108 0.1 0.675 0.00930596
0.411108 0.1 -0.675 0.00921945
0.467897 0.1 0.6375 0.00782629
0.467897 0.1 -0.6375 0.00777493
0.075776 0.1 -0.7875 0.0117035
0.075776 0.1 0.7875 0.0114062
0.350249 0.1 -0.7125 0.0106676
0.350249 0.1 0.7125 0.0107759
0.791054 0.1 0.0690034 0.00301694
0.522865 0.1 0.6 0.00672899
0.522865 0.1 -0.6 0.00678707
0.797314 0.1 -3.03577e-18 0.0029564
0.797314 0.1 -0.075 0.0029672
0.756814 0.1 0.2625 0.00329695
0.756814 0.1 -0.2625 0.0033596
0.287374 0.1 -0.75 0.0121207
0.287374 0.1 0.75 0.0121857
0.574156 0.1 0.5625 0.00567419
0.574156 0.1 -0.5625 0.00579774
0 0.1 0.80701 0.00518725
0 0.1 -0.80701 0.00523882
0.714971 0.1 -0.375 0.00387169
0.714971 0.1 0.375 0.00378122
0.0363518 0.1 0.80701 0.00817495
0.0363518 0.1 -0.80701 0.00834631
0.797314 0.1 0.15 0.00297085
0.797314 0.1 -0.15 0.00300536
0.623803 0.1 0.525 0.00499082
0.623803 0.1 -0.525 0.00511796
0.219992 0.1 -0.7875 0.0134819
0.219992 0.1 0.7875 0.0134685
0 0.1 0.825 0.00518201
0 0.1 -0.825 0.00523263
0.797314 0.1 0.225 0.00301053
0.797314 0.1 -0.225 0.00306394
0.756813 0.1 -0.3375 0.00345279
0.756814 0.1 0.3375 0.00337068
0.67013 0.1 0.4875 0.00434573
0.67013 0.1 -0.4875 0.0044718
0.835106 0.1 0.0375 0.00269635
0.835106 0.1 -0.0375 0.00270615
0.150379 0.1 -0.825 0.0125138
0.150379 0.1 0.825 0.0123474
0.835106 0.1 0.1125 0.00270695
0.835106 0.1 -0.1125 0.00273244
0 0.1 -0.84299 0.00522551
0 0.1 0.84299 0.00517593
0.0363518 0.1 -0.84299 0.00823133
0.0363518 0.1 0.84299 0.00806762
0.714971 0.1 -0.45 0.00401133
0.714971 0.1 0.45 0.00389477
0.797314 0.1 0.3 0.0030689
0.797314 0.1 -0.3 0.00314067
0.467897 0.1 0.7125 0.00805058
0.467897 0.1 -0.7125 0.00798074
0.522865 0.1 0.675 0.00698023
0.522865 0.1 -0.675 0.00702138
0.411108 0.1 -0.75 0.00939541
0.411108 0.1 0.75 0.00945391
0.835106 0.1 -0.1875 0.00277828
0.835107 0.1 0.1875 0.00273502
0.574156 0.1 0.6375 0.00592204
0.574156 0.1 -0.6375 0.00605239
0.350249 0.1 -0.7875 0.0107862
0.350249 0.1 0.7875 0.0108471
0.756814 0.1 0.4125 0.00346883
0.756814 0.1 -0.4125 0.00357132
0.623803 0.1 0.6 0.00520085
0.623803 0.1 -0.6 0.00534158
0.075776 0.1 0.8625 0.0111845
0.075776 0.1 -0.8625 0.0114664
0.871687 0.1 -0.00399773 0.00251717
0.287374 0.1 -0.825 0.0120999
0.287374 0.1 0.825 0.0120935
0.871687 0.1 0.075 0.00251198
0.871687 0.1 -0.075 0.00252925
0.67013 0.1 0.5625 0.00452052
0.67013 0.1 -0.5625 0.00466542
0.835106 0.1 0.2625 0.00278022
0.835106 0.1 -0.2625 0.00284467
0.797314 0.1 0.375 0.00314911
0.797314 0.1 -0.375 0.00323912
0 0.1 -0.88201 0.00521359
0 0.1 0.88201 0.00516602
0.0363518 0.1 0.88201 0.00805772
0.0363518 0.1 -0.88201 0.0082194
0.871687 0.1 0.15 0.0025295
0.871687 0.1 -0.15 0.00256338
0.714971 0.1 0.525 0.00403983
0.714971 0.1 -0.525 0.00417998
0.219992 0.1 0.8625 0.0132311
0.219993 0.1 -0.8625 0.0133136
0 0.1 0.9 0.00516282
0 0.1 -0.9 0.00520942
0.756813 0.1 0.4875 0.00358441
0.756814 0.1 -0.4875 0.00371695
0.871687 0.1 0.225 0.00256334
0.871687 0.1 -0.225 0.00261646
0.835106 0.1 0.3375 0.00284296
0.835106 0.1 -0.3375 0.00292089
0.90582 0.1 -0.0375 0.00233266
0.905821 0.1 0.0375 0.00232312
0.150379 0.1 0.9 0.012145
0.150379 0.1 -0.9 0.0123361
0.90582 0.1 0.1125 0.00233111
0.90582 0.1 -0.1125 0.00235537
0.522865 0.1 -0.75 0.00729077
0.522865 0.1 0.75 0.00723049
0.574156 0.1 0.7125 0.00619544
0.574156 0.1 -0.7125 0.0063412
0.797314 0.1 0.45 0.00324822
0.797314 0.1 -0.45 0.00336352
0.467897 0.1 -0.7875 0.00825681
0.467897 0.1 0.7875 0.00825588
0 0.1 0.91799 0.00515871
0 0.1 -0.91799 0.00520429
0.0363518 0.1 0.91799 0.00797887
0.0363518 0.1 -0.91799 0.0081323
0.623803 0.1 0.675 0.00544218
0.623803 0.1 -0.675 0.00559882
0.411108 0.1 -0.825 0.0096125
0.411108 0.1 0.825 0.00960696
0.871687 0.1 0.3 0.00261347
0.871687 0.1 -0.3 0.00268293
0.67013 0.1 0.6375 0.00472871
0.67013 0.1 -0.6375 0.00489184
0.90582 0.1 0.1875 0.00235461
0.905821 0.1 -0.1875 0.00239718
0.350249 0.1 0.8625 0.0109378
0.350249 0.1 -0.8625 0.0109313
0.835106 0.1 0.4125 0.0029295
0.835106 0.1 -0.4125 0.00302718
0.714971 0.1 0.6 0.00421777
0.714971 0.1 -0.6 0.00437906
0.93886 0.1 -0.00399773 0.00222646
0.075776 0.1 0.9375 0.0110215
0.075776 0.1 -0.9375 0.0112866
0.93886 0.1 0.075 0.00222286
0.93886 0.1 -0.075 0.00223801
0.756813 0.1 0.5625 0.00373386
0.756814 0.1 -0.5625 0.00389068
0.90582 0.1 0.2625 0.00239335
0.905821 0.1 -0.2625 0.0024556
0.287374 0.1 0.9 0.0120411
0.287374 0.1 -0.9 0.0121054
0.871687 0.1 0.375 0.00268289
0.871687 0.1 -0.375 0.00276932
0.93886 0.1 0.15 0.00223802
0.93886 0.1 -0.15 0.00226785
0.797314 0.1 0.525 0.00337108
0.797314 0.1 -0.525 0.0035134
0 0.1 0.95701 0.00515303
0 0.1 -0.95701 0.0051965
0.0363518 0.1 0.95701 0.00797318
0.0363518 0.1 -0.95701 0.0081245
0.219992 0.1 0.9375 0.0130436
0.219992 0.1 -0.9375 0.0131854
0.93886 0.1 0.225 0.0022676
0.93886 0.1 -0.225 0.00231426
0.90582 0.1 0.3375 0.0024474
0.905821 0.1 -0.3375 0.00252071
0.835107 0.1 0.4875 0.00302612
0.835107 0.1 -0.4875 0.00315482
0.969689 0.1 0.0375 0.00211694
0.969689 0.1 -0.0375 0.00212509
0.574156 0.1 0.7875 0.00648968
0.574156 0.1 -0.7875 0.00664636
0 0.1 0.975 0.0051519
0 0.1 -0.975 0.00519432
0.623803 0.1 0.75 0.00570909
0.623803 0.1 -0.75 0.00588538
0.96969 0.1 0.1125 0.00212461
0.96969 0.1 -0.1125 0.00214337
0.522865 0.1 -0.825 0.00758835
0.522865 0.1 0.825 0.00749447
0.67013 0.1 0.7125 0.00496593
0.67013 0.1 -0.7125 0.00515183
0.871687 0.1 0.45 0.00276885
0.871687 0.1 -0.45 0.00288209
0.467897 0.1 0.8625 0.00849381
0.467897 0.1 -0.8625 0.00857911
0.714971 0.1 -0.675 0.00461032
0.714971 0.1 0.675 0.00442584
0.93886 0.1 0.3 0.00231135
0.93886 0.1 -0.3 0.00237343
0.150379 0.1 0.975 0.0119944
0.150379 0.1 -0.975 0.0122064
0.969689 0.1 -0.1875 0.00218002
0.969689 0.1 0.1875 0.00214612
0.411108 0.1 0.9 0.00978946
0.411108 0.1 -0.9 0.00985648
0.756813 0.1 0.6375 0.00391407
0.756813 0.1 -0.6375 0.00409392
0.990306 0.1 3.46945e-18 0.00204373
0 0.1 0.99299 0.00514981
0 0.1 -0.99299 0.00519115
0.990306 0.1 0.075 0.0020393
0.990306 0.1 -0.075 0.00205218
0.0363518 0.1 0.99299 0.00791914
0.0363518 0.1 -0.99299 0.00806183
0.905821 0.1 0.4125 0.002522
0.905821 0.1 -0.4125 0.00261892
0.797314 0.1 0.6 0.00352461
0.797314 0.1 -0.6 0.00369119
0.350249 0.1 0.9375 0.0110478
0.350249 0.1 -0.9375 0.0110914
0.990306 0.1 0.15 0.00205325
0.990306 0.1 -0.15 0.00207863
0.969689 0.1 -0.2625 0.00222896
0.969689 0.1 0.2625 0.00218074
0.835106 0.1 0.5625 0.0031565
0.835106 0.1 -0.5625 0.0033079
0.93886 0.1 0.375 0.00237101
0.93886 0.1 -0.375 0.00245599
0.075776 0.1 1.0125 0.0109097
0.075776 0.1 -1.0125 0.011157
0.990306 0.1 0.225 0.00208041
0.990306 0.1 -0.225 0.00211999
0.287374 0.1 0.975 0.0120234
0.287374 0.1 -0.975 0.0121358
0.871687 0.1 0.525 0.00287607
0.871687 0.1 -0.525 0.00301805
1.02149 0.1 -0.0369628 0.00191077
1.02149 0.1 0.0369628 0.00188239
0.969689 0.1 -0.3375 0.0022933
0.96969 0.1 0.3375 0.00222845
1.02149 0.1 0.110888 0.00188803
1.02149 0.1 -0.110888 0.00190469
0.90582 0.1 0.4875 0.00260837
0.905821 0.1 -0.4875 0.00273807
0 0.1 1.03201 0.00514829
0 0.1 -1.03201 0.00518743
0.0363518 0.1 1.03201 0.00791761
0.0363518 0.1 -1.03201 0.00805811
0.67013 0.1 0.7875 0.00522979
0.67013 0.1 -0.7875 0.00544489
0.623803 0.1 -0.825 0.00618902
0.623803 0.1 0.825 0.00599925
0.990306 0.1 0.3 0.00212044
0.990306 0.1 -0.3 0.00217577
0.219992 0.1 -1.0125 0.013102
0.219992 0.1 1.0125 0.0129045
0.574156 0.1 -0.8625 0.00693424
0.574157 0.1 0.8625 0.00680451
0.714971 0.1 0.75 0.00466143
0.714971 0.1 -0.75 0.00487641
1.02149 0.1 0.184814 0.00190661
1.02149 0.1 -0.184814 0.00193611
0.756814 0.1 0.7125 0.0041217
0.756813 0.1 -0.7125 0.00433005
0.522865 0.1 0.9 0.00778363
0.522865 0.1 -0.9 0.00791054
0.93886 0.1 0.45 0.002447
0.93886 0.1 -0.45 0.00256428
1.04168 0.1 0 0.00181181
1.04168 0.1 0.0729162 0.00181124
1.04168 0.1 -0.0729162 0.0018217
0.797314 0.1 0.675 0.00370494
0.797314 0.1 -0.675 0.00389906
0.467897 0.1 0.9375 0.00877837
0.467897 0.1 -0.9375 0.00892116
0 0.1 1.05 0.00514913
0 0.1 -1.05 0.00518724
0.835106 0.1 0.6375 0.00331127
0.835106 0.1 -0.6375 0.00348966
1.04168 0.1 0.145832 0.00182154
1.04168 0.1 -0.145832 0.00184262
1.02149 0.1 0.25874 0.00193683
1.02149 0.1 -0.25874 0.00197939
0.969689 0.1 0.4125 0.00229092
0.969689 0.1 -0.4125 0.00239582
0.411108 0.1 0.975 0.00999385
0.411108 0.1 -0.975 0.0100994
0.871687 0.1 0.6 0.00301079
0.871687 0.1 -0.6 0.00318111
1.0579 0.1 -0.0360525 0.00176685
1.0579 0.1 0.0360525 0.00175581
0.990306 0.1 0.375 0.00217417
0.990306 0.1 -0.375 0.00225604
0.150379 0.1 1.05 0.0118924
0.150379 0.1 -1.05 0.0121216
1.0579 0.1 -0.108157 0.00177386
1.0579 0.1 0.108157 0.00175947
1.04168 0.1 0.218749 0.00184256
1.04168 0.1 -0.218749 0.00187546
0.90582 0.1 0.5625 0.00272422
0.905821 0.1 -0.5625 0.00288228
0 0.1 -1.06799 0.005186
0 0.1 1.06799 0.00514897
0.0363518 0.1 -1.06799 0.0080168
0.0363518 0.1 1.06799 0.00788603
0.350249 0.1 1.0125 0.0111807
0.350249 0.1 -1.0125 0.0112527
1.0579 0.1 -0.180262 0.00179842
1.0579 0.1 0.180262 0.00177304
1.02149 0.1 0.332665 0.0019794
1.02149 0.1 -0.332665 0.00204095
0.93886 0.1 0.525 0.00254301
0.93886 0.1 -0.525 0.00269042
1.08012 0.1 1.70581e-17 0.00169755
1.04168 0.1 0.291665 0.00187404
1.04168 0.1 -0.291665 0.00192173
1.08012 0.1 0.0709941 0.00169708
1.08012 0.1 -0.074001 0.00170594
0.969689 0.1 -0.4875 0.00250909
0.96969 0.1 0.4875 0.00237165
1.0579 0.1 0.252367 0.00179533
1.0579 0.1 -0.252367 0.00183236
0.990306 0.1 -0.45 0.00235906
0.990306 0.1 0.45 0.00224456
0.287374 0.1 -1.05 0.0121919
0.287374 0.1 1.05 0.012042
1.08012 0.1 0.141988 0.00170531
1.08012 0.1 -0.141988 0.00172282
0.075776 0.1 1.0875 0.0108441
0.075776 0.1 -1.0875 0.0110715
0.714971 0.1 0.825 0.00492338
0.714971 0.1 -0.825 0.00517791
0.756813 0.1 0.7875 0.00435626
0.756813 0.1 -0.7875 0.00460575
0.67013 0.1 0.8625 0.00551865
0.67013 0.1 -0.8625 0.00577253
0.797314 0.1 -0.75 0.00414112
0.797314 0.1 0.75 0.00391177
0.623803 0.1 0.9 0.006309
0.623803 0.1 -0.9 0.00651774
0.835106 0.1 0.7125 0.00349082
0.835107 0.1 -0.7125 0.0037007
0.574156 0.1 0.9375 0.00712257
0.574156 0.1 -0.9375 0.00727168
1.02149 0.1 -0.406591 0.00212249
1.02149 0.1 0.406591 0.00203541
1.08012 0.1 -0.212982 0.00174946
1.08012 0.1 0.212982 0.00172219
1.10076 0.1 -0.0349809 0.00164397
1.10076 0.1 0.0349809 0.00164013
0.871687 0.1 0.675 0.00317037
0.871687 0.1 -0.675 0.00337388
1.04168 0.1 0.364581 0.00191679
1.04168 0.1 -0.364581 0.00198465
1.10076 0.1 0.104943 0.00164391
1.10076 0.1 -0.104943 0.001655
0.522865 0.1 0.975 0.00808187
0.522865 0.1 -0.975 0.00824503
1.0579 0.1 0.324472 0.00182738
1.0579 0.1 -0.324472 0.00188145
0 0.1 -1.10701 0.00518602
0 0.1 1.10701 0.00515126
0.0363518 0.1 1.10701 0.00788832
0.0363518 0.1 -1.10701 0.00801682
0.90582 0.1 0.6375 0.00286252
0.905821 0.1 -0.6375 0.00305569
0.219992 0.1 1.0875 0.0128144
0.219992 0.1 -1.0875 0.0130592
0.93886 0.1 0.6 0.00266831
0.93886 0.1 -0.6 0.00283597
1.10076 0.1 0.174905 0.00165675
1.10076 0.1 -0.174905 0.00167613
0.467897 0.1 1.0125 0.00906393
0.467897 0.1 -1.0125 0.00922639
1.08012 0.1 0.283976 0.00174752
1.08012 0.1 -0.283976 0.00178733
1.11928 0.1 -0.00290737 0.00160094
1.11711 0.1 -0.0710826 0.00161603
0.990306 0.1 0.525 0.00233442
0.990306 0.1 -0.525 0.00247343
0.969689 0.1 0.5625 0.00247298
0.96969 0.1 -0.5625 0.00263731
1.11928 0.1 0.0690357 0.00160093
0 0.1 1.125 0.00515386
0 0.1 -1.125 0.00518752
1.11807 0.1 -0.138193 0.00162848
0.411108 0.1 -1.05 0.0103397
0.411108 0.1 1.05 0.010205
1.10076 0.1 -0.244866 0.00170489
1.10076 0.1 0.244866 0.00167706
1.11928 0.1 0.138072 0.00160851
1.02149 0.1 0.480517 0.00211011
1.02149 0.1 -0.480517 0.00222188
1.0579 0.1 -0.396577 0.00194461
1.0579 0.1 0.396577 0.00186988
1.04168 0.1 0.437497 0.00197392
1.04168 0.1 -0.437497 0.00206592
0.150379 0.1 1.125 0.0118348
0.150379 0.1 -1.125 0.0120745
1.08012 0.1 0.354971 0.00178195
1.08012 0.1 -0.354971 0.00183831
1.11807 0.1 -0.207288 0.00165143
1.11928 0.1 0.207107 0.00162365
0.350249 0.1 1.0875 0.0113398
0.350249 0.1 -1.0875 0.0114316
0 0.1 1.14299 0.00515541
0 0.1 -1.14299 0.0051879
0.0363518 0.1 1.14299 0.00787441
0.0363518 0.1 -1.14299 0.00799227
1.14316 0.1 -0.0339211 0.00154622
1.14316 0.1 0.0339211 0.00154127
1.10076 0.1 0.314829 0.00170587
1.10076 0.1 -0.314829 0.00174697
0.797314 0.1 0.825 0.00414567
0.797314 0.1 -0.825 0.00441788
0.756814 0.1 -0.8625 0.00491581
0.756814 0.1 0.8625 0.0046177
1.14316 0.1 -0.101763 0.00155285
1.14316 0.1 0.101763 0.00154432
0.835106 0.1 0.7875 0.00369725
0.835107 0.1 -0.7875 0.00394684
0.714971 0.1 0.9 0.00521289
0.714971 0.1 -0.9 0.00551377
0.871687 0.1 0.75 0.00335696
0.871687 0.1 -0.75 0.0035902
1.11807 0.1 -0.276385 0.00168414
0.67013 0.1 0.9375 0.00583668
0.67013 0.1 -0.9375 0.00613326
0.905821 0.1 0.7125 0.00302865
0.905821 0.1 -0.7125 0.00326077
1.11928 0.1 0.276143 0.00164613
1.14316 0.1 -0.169605 0.00156955
1.14316 0.1 0.169605 0.00155467
0.93886 0.1 0.675 0.00281704
0.93886 0.1 -0.675 0.00300259
1.15704 0.1 0 0.0015134
1.0579 0.1 0.468682 0.00192766
1.0579 0.1 -0.468682 0.0020267
0.623803 0.1 0.975 0.00663098
0.623803 0.1 -0.975 0.0068696
0.990306 0.1 0.6 0.00245463
0.990306 0.1 -0.6 0.00260344
1.15704 0.1 -0.0671479 0.00151864
1.15704 0.1 0.0671479 0.00151358
1.04168 0.1 0.510414 0.00204825
1.04168 0.1 -0.510414 0.00215363
0.969689 0.1 0.6375 0.00261879
0.96969 0.1 -0.6375 0.00277429
1.08012 0.1 0.425965 0.00182786
1.08012 0.1 -0.425965 0.00190542
0.287374 0.1 -1.125 0.01228
0.287374 0.1 1.125 0.0120996
1.02149 0.1 0.554443 0.00220439
1.02149 0.1 -0.554443 0.00232301
0.574156 0.1 -1.0125 0.00762845
0.574156 0.1 1.0125 0.00742813
1.15704 0.1 -0.134296 0.00153047
1.15704 0.1 0.134296 0.00151994
0.075776 0.1 1.1625 0.0108147
0.075776 0.1 -1.1625 0.0110204
1.10076 0.1 0.384791 0.0017431
1.10076 0.1 -0.384791 0.00179963
1.14316 0.1 -0.237448 0.00159273
1.14316 0.1 0.237448 0.001571
1.11807 0.1 -0.345481 0.00172813
1.11928 0.1 0.345179 0.00167647
0.522865 0.1 1.05 0.00836042
0.522865 0.1 -1.05 0.00857139
1.15704 0.1 -0.201444 0.00154892
1.15704 0.1 0.201444 0.00153255
1.1744 0.1 -0.0331401 0.00148024
1.1744 0.1 0.0331401 0.00148153
1.1744 0.1 -0.0994202 0.00148743
1.1744 0.1 0.0994202 0.00148081
0 0.1 1.18201 0.00516108
0 0.1 -1.18201 0.00519135
0.0363518 0.1 1.18201 0.00788008
0.0363518 0.1 -1.18201 0.00799572
0.219992 0.1 1.1625 0.0127702
0.219993 0.1 -1.1625 0.0130482
1.14316 0.1 -0.30529 0.00162646
1.14316 0.1 0.30529 0.00159447
0.467897 0.1 1.0875 0.0093318
0.467897 0.1 -1.0875 0.00954505
1.1744 0.1 -0.1657 0.00150159
1.1744 0.1 0.1657 0.0014899
1.15704 0.1 -0.268592 0.0015752
1.15704 0.1 0.268592 0.00155125
1.0579 0.1 0.540787 0.00200156
1.0579 0.1 -0.540787 0.00210231
1.08012 0.1 0.496959 0.00188786
1.08012 0.1 -0.496959 0.00197787
1.10076 0.1 0.454752 0.00179264
1.10076 0.1 -0.454752 0.00187164
1.11807 0.1 -0.414577 0.00178624
1.11928 0.1 0.414214 0.0017163
1.04168 0.1 0.58333 0.00214397
1.04168 0.1 -0.58333 0.00225852
1.19529 0.1 0.0650961 0.00143413
1.1744 0.1 0.231981 0.00150389
1.1744 0.1 -0.231981 0.00152085
0.411108 0.1 1.125 0.0104322
0.411108 0.1 -1.125 0.0106013
1.19808 0.1 3.5851e-17 0.00142935
0.990306 0.1 0.675 0.0025924
0.990306 0.1 -0.675 0.00275294
1.02149 0.1 0.628368 0.00232665
1.02149 0.1 -0.628368 0.00246109
1.19808 0.1 -0.0650961 0.00143354
0 0.1 1.2 0.00516526
0 0.1 -1.2 0.00519455
0.871687 0.1 -0.825 0.0038401
0.871687 0.1 0.825 0.00357038
0.905821 0.1 -0.7875 0.00346439
0.90582 0.1 0.7875 0.00322329
0.835106 0.1 0.8625 0.00393126
0.835106 0.1 -0.8625 0.00422279
0.93886 0.1 0.75 0.00298162
0.93886 0.1 -0.75 0.00319213
0.797314 0.1 0.9 0.00440784
0.797314 0.1 -0.9 0.00473049
1.14316 0.1 -0.373132 0.00166965
1.14316 0.1 0.373132 0.00162493
0.969689 0.1 0.7125 0.00276366
0.969689 0.1 -0.7125 0.00292641
1.15704 0.1 -0.33574 0.00161061
1.15704 0.1 0.33574 0.00157659
0.756813 0.1 0.9375 0.0049084
0.756814 0.1 -0.9375 0.00526153
1.19808 0.1 0.130192 0.00143567
1.19808 0.1 -0.130192 0.00144329
0.714971 0.1 0.975 0.00553272
0.714971 0.1 -0.975 0.00587134
0.150379 0.1 1.2 0.0118155
0.150379 0.1 -1.2 0.0120585
1.20938 0.1 -0.0322656 0.0014101
1.20938 0.1 0.0322656 0.00140854
1.19808 0.1 0.178844 0.00144563
1.1744 0.1 0.298261 0.00152418
1.1744 0.1 -0.298261 0.00154907
1.20938 0.1 -0.0967968 0.00141647
1.20938 0.1 0.0967968 0.00141073
1.19808 0.1 -0.195288 0.00145835
0.350249 0.1 1.1625 0.0115352
0.350249 0.1 -1.1625 0.0116511
0.67013 0.1 1.0125 0.00618233
0.67013 0.1 -1.0125 0.00648748
0 0.1 1.21799 0.00516832
0 0.1 -1.21799 0.00519655
1.11807 0.1 -0.483674 0.00185059
0.0363518 0.1 1.21799 0.00787995
0.0363518 0.1 -1.21799 0.00798378
1.11928 0.1 0.48325 0.00176814
1.10076 0.1 -0.524714 0.00193669
1.10076 0.1 0.524714 0.00185522
1.20938 0.1 -0.161328 0.00142873
1.20938 0.1 0.161328 0.00141894
1.08012 0.1 0.567953 0.00196455
1.08012 0.1 -0.567953 0.00206215
0.623803 0.1 1.05 0.00694304
0.623803 0.1 -1.05 0.00721299
1.0579 0.1 -0.612892 0.00221415
1.0579 0.1 0.612892 0.00209618
1.15704 0.1 -0.402888 0.00165762
1.15704 0.1 0.402888 0.00160945
1.14316 0.1 0.440974 0.0016651
1.14316 0.1 -0.440974 0.00172752
1.19808 0.1 -0.260384 0.00147935
1.19808 0.1 0.260384 0.00146128
1.2267 0.1 3.64292e-18 0.00137676
1.2267 0.1 -0.0636649 0.00138067
1.2267 0.1 0.0636649 0.00137698
1.1744 0.1 -0.364541 0.00158468
1.1744 0.1 0.364541 0.0015504
0.574156 0.1 1.0875 0.00768939
0.574156 0.1 -1.0875 0.00796383
1.20938 0.1 -0.225859 0.00144511
1.20938 0.1 0.225859 0.00143127
1.04168 0.1 0.656246 0.00225016
1.04168 0.1 -0.656246 0.0023972
1.22587 0.1 0.12733 0.00138472
1.2267 0.1 -0.12733 0.00138964
0.287374 0.1 -1.2 0.0124037
0.287374 0.1 1.2 0.0121818
1.02149 0.1 0.702294 0.0024464
1.02149 0.1 -0.702294 0.0026284
0.075776 0.1 1.2375 0.010814
0.075776 0.1 -1.2375 0.0109953
0.522865 0.1 1.125 0.00863535
0.522865 0.1 -1.125 0.0088994
1.2267 0.1 0.190397 0.00139249
1.2267 0.1 -0.190994 0.0014032
1.19808 0.1 0.32548 0.00148245
1.19808 0.1 -0.32548 0.00150751
0.990306 0.1 0.75 0.00273965
0.990306 0.1 -0.75 0.00293355
1.24274 0.1 -0.0314313 0.00134714
1.24274 0.1 0.0314313 0.00134562
1.20938 0.1 -0.29039 0.00146842
1.20938 0.1 0.29039 0.00144903
1.24274 0.1 -0.0942942 0.00135321
1.24274 0.1 0.0942942 0.00134752
1.11807 0.1 -0.552769 0.00192417
1.11928 0.1 0.552285 0.00183318
1.15704 0.1 -0.470036 0.00171188
1.15704 0.1 0.470036 0.00165235
0.969689 0.1 0.7875 0.00291715
0.96969 0.1 -0.7875 0.00312443
0.93886 0.1 -0.825 0.00341718
0.93886 0.1 0.825 0.00316483
0.905821 0.1 0.8625 0.00344232
0.905821 0.1 -0.8625 0.0037388
1.1744 0.1 -0.430821 0.00163367
1.1744 0.1 0.430821 0.00158406
1.10076 0.1 0.594676 0.00193395
1.10076 0.1 -0.594676 0.00202892
1.14316 0.1 -0.508816 0.00178413
1.14316 0.1 0.508816 0.0017169
1.24274 0.1 0.157157 0.00135506
1.24274 0.1 -0.157157 0.00136429
1.2267 0.1 0.254158 0.00140626
1.2267 0.1 -0.254659 0.00142175
0.871687 0.1 -0.9 0.00413244
0.871687 0.1 0.9 0.0038081
0.467897 0.1 1.1625 0.0096229
0.467897 0.1 -1.1625 0.00988054
1.08012 0.1 0.638947 0.00205225
1.08012 0.1 -0.638947 0.00217652
1.25511 0.1 1.27213e-17 0.00132354
0.835106 0.1 0.9375 0.0041946
0.835106 0.1 -0.9375 0.00454229
1.25511 0.1 -0.0622446 0.00132752
1.25511 0.1 0.0622446 0.0013235
0.219992 0.1 1.2375 0.0127676
0.219992 0.1 -1.2375 0.0130694
0 0.1 -1.25701 0.00520322
0 0.1 1.25701 0.00517703
0.0363518 0.1 -1.25701 0.00799044
0.0363518 0.1 1.25701 0.00788867
0.797314 0.1 0.975 0.00470103
0.797314 0.1 -0.975 0.00507711
1.19808 0.1 0.389737 0.00150935
1.19808 0.1 -0.390576 0.00154634
1.0579 0.1 -0.684997 0.00235402
1.0579 0.1 0.684997 0.00218938
1.20938 0.1 -0.354921 0.00149832
1.20938 0.1 0.354921 0.00147189
1.25511 0.1 0.124489 0.00132792
1.25511 0.1 -0.124489 0.00133618
1.24274 0.1 -0.220019 0.00137876
1.24274 0.1 0.220019 0.00136636
0.756814 0.1 1.0125 0.00523428
0.756814 0.1 -1.0125 0.00563158
1.25305 0.1 0.186734 0.00134227
1.2267 0.1 0.317097 0.00142559
1.2267 0.1 -0.318324 0.00144654
0.411108 0.1 1.2 0.0106666
0.411108 0.1 -1.2 0.0108312
1.25511 0.1 -0.186734 0.0013488
0.714971 0.1 1.05 0.00587146
0.714971 0.1 -1.05 0.00622272
1.04168 0.1 0.729162 0.00237081
1.04168 0.1 -0.729162 0.00256484
1.24274 0.1 -0.282882 0.00139889
1.24274 0.1 0.282882 0.00138238
0 0.1 1.275 0.00518266
0 0.1 -1.275 0.00520793
1.1744 0.1 -0.497102 0.00168482
1.1744 0.1 0.497102 0.00162817
1.15704 0.1 -0.537184 0.00177287
1.15704 0.1 0.537184 0.00170585
1.2756 0.1 -0.03061 0.00128482
1.2756 0.1 0.03061 0.00128287
0.67013 0.1 1.0875 0.00651906
0.67013 0.1 -1.0875 0.00682366
1.25305 0.1 0.248978 0.00135347
1.2756 0.1 0.09183 0.00128439
1.2756 0.1 -0.09183 0.00129098
1.11807 0.1 -0.621866 0.00202198
1.25511 0.1 -0.248978 0.00136572
1.20938 0.1 0.419453 0.00150037
1.20938 0.1 -0.419453 0.00154307
1.11928 0.1 0.621322 0.00191239
1.14316 0.1 -0.576659 0.00185995
1.14316 0.1 0.576659 0.00178041
1.19808 0.1 0.454694 0.00154409
1.19808 0.1 -0.455673 0.00159391
1.02149 0.1 0.776219 0.00260104
1.02149 0.1 -0.776219 0.00282792
0.150379 0.1 1.275 0.0118301
0.150379 0.1 -1.275 0.0120759
1.2267 0.1 0.381603 0.00144983
1.2756 0.1 -0.15305 0.00130162
1.2756 0.1 0.15305 0.00129113
1.2267 0.1 -0.381989 0.00148163
1.10076 0.1 0.664638 0.0020224