# pMean  POINT_DATA 63831
# x  y  z  pMean
0 0.5 3.39583e-17 0.188995
0 0.5 -0.00617931 0.189035
0 0.5 0.00617931 0.188958
0.0124865 0.5 0.00617931 0.188958
0.0124865 0.5 -0.00617931 0.189035
0 0.5 -0.0688207 0.189174
0 0.5 0.0688207 0.188323
0.0124865 0.5 0.0688207 0.188323
0.0124865 0.5 -0.0688207 0.189174
0 0.5 0.075 0.188235
0 0.5 -0.075 0.189161
0 0.5 -0.0811793 0.189152
0 0.5 0.0811793 0.188149
0.0124865 0.5 0.0811793 0.188149
0.0124865 0.5 -0.0811793 0.189152
0.075776 0.5 0.0375 0.188772
0.075776 0.5 -0.0375 0.189239
0.075776 0.5 0.1125 0.187718
0.075776 0.5 -0.1125 0.189104
0 0.5 -0.143821 0.188788
0 0.5 0.143821 0.187027
0.0124865 0.5 0.143821 0.187027
0.0124865 0.5 -0.143821 0.188788
0 0.5 0.15 0.18689
0 0.5 -0.15 0.188726
0.151149 0.5 2.20565e-18 0.189287
0 0.5 -0.156179 0.188667
0 0.5 0.156179 0.186757
0.0124865 0.5 0.156179 0.186757
0.0124865 0.5 -0.156179 0.188667
0.151149 0.5 0.075 0.188514
0.151149 0.5 -0.075 0.189461
0.075776 0.5 0.1875 0.186084
0.075776 0.5 -0.1875 0.188368
0.151149 0.5 0.15 0.187148
0.151149 0.5 -0.15 0.189024
0 0.5 -0.218821 0.187813
0 0.5 0.218821 0.185159
0.0124865 0.5 0.218821 0.185159
0.0124865 0.5 -0.218821 0.187813
0.219992 0.5 0.0375 0.189324
0.219992 0.5 -0.0375 0.189811
0 0.5 0.225 0.184976
0 0.5 -0.225 0.187703
0 0.5 -0.231179 0.187596
0 0.5 0.231179 0.184797
0.0124865 0.5 0.231179 0.184797
0.0124865 0.5 -0.231179 0.187596
0.219993 0.5 0.1125 0.18824
0.219993 0.5 -0.1125 0.189686
0.151149 0.5 0.225 0.185205
0.151149 0.5 -0.225 0.187987
0.075776 0.5 0.2625 0.183889
0.075776 0.5 -0.2625 0.187058
0.288069 0.5 3.34766e-17 0.192702
0.219992 0.5 0.1875 0.186552
0.219992 0.5 -0.1875 0.188933
0 0.5 0.293821 0.182747
0 0.5 -0.293821 0.18627
0.0124865 0.5 -0.293821 0.18627
0.0124865 0.5 0.293821 0.182747
0.288069 0.5 0.075 0.191875
0.288069 0.5 -0.075 0.19288
0 0.5 0.3 0.182521
0 0.5 -0.3 0.186114
0 0.5 0.306179 0.182298
0 0.5 -0.306179 0.18596
0.0124865 0.5 0.306179 0.182298
0.0124865 0.5 -0.306179 0.18596
0.288069 0.5 0.15 0.190404
0.288069 0.5 -0.15 0.192397
0.151149 0.5 0.3 0.182715
0.151149 0.5 -0.3 0.186376
0.219992 0.5 0.2625 0.184299
0.219992 0.5 -0.2625 0.187587
0.075776 0.5 0.3375 0.181172
0.075776 0.5 -0.3375 0.185189
0.350249 0.5 0.0375 0.195398
0.350249 0.5 -0.0375 0.195921
0.288069 0.5 0.225 0.188309
0.288069 0.5 -0.225 0.191264
0.350249 0.5 0.1125 0.194186
0.350249 0.5 -0.1125 0.195747
0 0.5 0.368821 0.179828
0 0.5 -0.368821 0.184183
0.0124865 0.5 0.368821 0.179828
0.0124865 0.5 -0.368821 0.184183
0 0.5 0.375 0.179562
0 0.5 -0.375 0.183984
0 0.5 -0.381179 0.183788
0 0.5 0.381179 0.179299
0.0124865 0.5 0.381179 0.179299
0.0124865 0.5 -0.381179 0.183788
0.350249 0.5 0.1875 0.192296
0.350249 0.5 -0.1875 0.194872
0.219992 0.5 0.3375 0.181509
0.219992 0.5 -0.3375 0.185671
0.151149 0.5 0.375 0.179717
0.151149 0.5 -0.375 0.184219
0.411736 0.5 1.70099e-17 0.199801
0.288069 0.5 0.3 0.18563
0.288069 0.5 -0.3 0.189511
0.411736 0.5 0.075 0.198882
0.411736 0.5 -0.075 0.199976
0.075776 0.5 0.4125 0.177971
0.075776 0.5 -0.4125 0.182798
0.350249 0.5 -0.2625 0.193324
0.350249 0.5 0.2625 0.189765
0.411736 0.5 0.15 0.197231
0.411736 0.5 -0.15 0.1994
0 0.5 -0.443821 0.181589
0 0.5 0.443821 0.176443
0.0124865 0.5 0.443821 0.176443
0.0124865 0.5 -0.443821 0.181589
0 0.5 0.45 0.17614
0 0.5 -0.45 0.18135
0 0.5 -0.456179 0.181113
0 0.5 0.456179 0.175841
0.0124865 0.5 0.456179 0.175841
0.0124865 0.5 -0.456179 0.181113
0.219992 0.5 -0.4125 0.183219
0.219993 0.5 0.4125 0.178227
0.411736 0.5 0.225 0.194874
0.411736 0.5 -0.225 0.198087
0.467897 0.5 0.0375 0.203429
0.467897 0.5 -0.0375 0.204004
0.288069 0.5 0.375 0.182406
0.288069 0.5 -0.375 0.187172
0.151149 0.5 -0.45 0.18155
0.151149 0.5 0.45 0.176252
0.467897 0.5 0.1125 0.202068
0.467897 0.5 -0.1125 0.20378
0.350249 0.5 0.3375 0.186638
0.350249 0.5 -0.3375 0.191138
0.075776 0.5 -0.4875 0.179921
0.075776 0.5 0.4875 0.174329
0.467897 0.5 0.1875 0.199939
0.467897 0.5 -0.1875 0.202756
0.411736 0.5 0.3 0.191856
0.411736 0.5 -0.3 0.196071
0 0.5 -0.518821 0.178528
0 0.5 0.518821 0.172637
0.0124865 0.5 0.518821 0.172637
0.0124865 0.5 -0.518821 0.178528
0.523432 0.5 3.75966e-17 0.208641
0 0.5 0.525 0.172303
0 0.5 -0.525 0.178253
0.523432 0.5 0.075 0.207609
0.523432 0.5 -0.075 0.208819
0 0.5 -0.531179 0.17798
0 0.5 0.531179 0.17197
0.0124865 0.5 0.531179 0.17197
0.0124865 0.5 -0.531179 0.17798
0.288069 0.5 0.45 0.178687
0.288069 0.5 -0.45 0.184286
0.219992 0.5 -0.4875 0.18027
0.219992 0.5 0.4875 0.174499
0.467897 0.5 -0.2625 0.200962
0.467897 0.5 0.2625 0.19708
0.350249 0.5 0.4125 0.182964
0.350249 0.5 -0.4125 0.188352
0.523432 0.5 0.15 0.205741
0.523432 0.5 -0.15 0.208138
0.151149 0.5 0.525 0.172369
0.151149 0.5 -0.525 0.178414
0.411736 0.5 0.375 0.188226
0.411736 0.5 -0.375 0.193392
0.075776 0.5 0.5625 0.170294
0.075776 0.5 -0.5625 0.176603
0.523432 0.5 0.225 0.203069
0.523432 0.5 -0.225 0.206613
0.574156 0.5 0.0375 0.212994
0.574157 0.5 -0.0375 0.213634
0.467897 0.5 0.3375 0.193544
0.467897 0.5 -0.3375 0.198442
0.574156 0.5 0.1125 0.211449
0.574156 0.5 -0.1125 0.213354
0 0.5 -0.593821 0.175047
0 0.5 0.593821 0.16846
0.0124865 0.5 0.593821 0.16846
0.0124865 0.5 -0.593821 0.175047
0.288069 0.5 0.525 0.174529
0.288069 0.5 -0.525 0.180904
0 0.5 0.6 0.168097
0 0.5 -0.6 0.174739
0.350249 0.5 0.4875 0.1788
0.350249 0.5 -0.4875 0.185019
0.523432 0.5 -0.3 0.204281
0.523432 0.5 0.3 0.199644
0.219992 0.5 0.5625 0.170375
0.219992 0.5 -0.5625 0.176871
0.574156 0.5 0.1875 0.209026
0.574157 0.5 -0.1875 0.212164
0 0.5 -0.606179 0.174433
0 0.5 0.606179 0.167737
0.0124865 0.5 0.606179 0.167737
0.0124865 0.5 -0.606179 0.174433
0.411736 0.5 0.45 0.184046
0.411736 0.5 -0.45 0.190102
0.151149 0.5 0.6 0.168116
0.151149 0.5 -0.6 0.174855
0.467897 0.5 0.4125 0.189389
0.467897 0.5 -0.4125 0.195242
0.624316 0.5 2.64545e-17 0.218889
0.624316 0.5 0.075 0.217718
0.624316 0.5 -0.075 0.219075
0.574156 0.5 -0.2625 0.210085
0.574157 0.5 0.2625 0.205768
0.075776 0.5 0.6375 0.165918
0.075776 0.5 -0.6375 0.172892
0.624316 0.5 0.15 0.215587
0.624316 0.5 -0.15 0.218273
0.523432 0.5 0.375 0.195528
0.523432 0.5 -0.375 0.201193
0.350249 0.5 -0.5625 0.181195
0.350249 0.5 0.5625 0.174209
0.624316 0.5 0.225 0.212535
0.624316 0.5 -0.225 0.2165
0.288069 0.5 0.6 0.169987
0.288069 0.5 -0.6 0.177077
0.574157 0.5 0.3375 0.201743
0.574157 0.5 -0.3375 0.207167
0.411736 0.5 0.525 0.179381
0.411736 0.5 -0.525 0.18626
0 0.5 -0.668821 0.171192
0 0.5 0.668821 0.163963
0.0124865 0.5 0.668821 0.163963
0.0124865 0.5 -0.668821 0.171192
0.67013 0.5 0.0375 0.223839
0.67013 0.5 -0.0375 0.224562
0.219993 0.5 -0.6375 0.17307
0.219992 0.5 0.6375 0.165906
0 0.5 0.675 0.163576
0 0.5 -0.675 0.170855
0.467897 0.5 -0.4875 0.191425
0.467897 0.5 0.4875 0.184689
0.67013 0.5 0.1125 0.222072
0.67013 0.5 -0.1125 0.224222
0 0.5 -0.681179 0.170521
0 0.5 0.681179 0.163192
0.0124865 0.5 0.681179 0.163192
0.0124865 0.5 -0.681179 0.170521
0.523432 0.5 0.45 0.190793
0.523432 0.5 -0.45 0.197413
0.151149 0.5 0.675 0.163547
0.151149 0.5 -0.675 0.170924
0.624316 0.5 0.3 0.208624
0.624316 0.5 -0.3 0.213798
0.67013 0.5 0.1875 0.219298
0.67013 0.5 -0.1875 0.22283
0.574156 0.5 0.4125 0.197023
0.574156 0.5 -0.4125 0.203479
0.715434 0.5 3.51282e-17 0.230218
0.075776 0.5 0.7125 0.161252
0.075776 0.5 -0.7125 0.168836
0.715434 0.5 0.075 0.228883
0.715434 0.5 -0.075 0.230418
0.67013 0.5 0.2625 0.215566
0.67013 0.5 -0.2625 0.220415
0.350249 0.5 -0.6375 0.17694
0.350249 0.5 0.6375 0.169256
0.411736 0.5 0.6 0.174304
0.411736 0.5 -0.6 0.181932
0.624316 0.5 0.375 0.203934
0.624316 0.5 -0.375 0.21023
0.715434 0.5 0.15 0.226444
0.715434 0.5 -0.15 0.229477
0.467897 0.5 0.5625 0.179519
0.467897 0.5 -0.5625 0.187062
0.288069 0.5 0.675 0.165121
0.288069 0.5 -0.675 0.172863
0.523432 0.5 0.525 0.185523
0.523432 0.5 -0.525 0.193015
0 0.5 -0.743821 0.167014
0 0.5 0.743821 0.159198
0.0124865 0.5 -0.743821 0.167014
0.0124865 0.5 0.743821 0.159198
0.219992 0.5 0.7125 0.161145
0.219992 0.5 -0.7125 0.168919
0.715434 0.5 0.225 0.22295
0.715434 0.5 -0.225 0.227418
0 0.5 0.75 0.158791
0 0.5 -0.75 0.166653
0.67013 0.5 0.3375 0.210964
0.67013 0.5 -0.3375 0.217036
0.574157 0.5 0.4875 0.191692
0.574157 0.5 -0.4875 0.199094
0 0.5 -0.756179 0.166295
0 0.5 0.756179 0.158388
0.0124865 0.5 0.756179 0.158388
0.0124865 0.5 -0.756179 0.166295
0.756813 0.5 0.0375 0.235567
0.756813 0.5 -0.0375 0.236387
0.151149 0.5 0.75 0.158713
0.151149 0.5 -0.75 0.166672
0.756813 0.5 0.1125 0.233545
0.756813 0.5 -0.1125 0.235982
0.624316 0.5 -0.45 0.205877
0.624316 0.5 0.45 0.198549
0.715434 0.5 0.3 0.218475
0.715434 0.5 -0.3 0.224293
0.756813 0.5 0.1875 0.230366
0.756813 0.5 -0.1875 0.234361
0.67013 0.5 -0.4125 0.212777
0.67013 0.5 0.4125 0.205579
0.411736 0.5 0.675 0.168885
0.411736 0.5 -0.675 0.177189
0.467897 0.5 0.6375 0.173957
0.467897 0.5 -0.6375 0.182227
0.075776 0.5 0.7875 0.156348
0.075776 0.5 -0.7875 0.164488
0.350249 0.5 0.7125 0.164006
0.350249 0.5 -0.7125 0.172318
0.523432 0.5 0.6 0.179802
0.523432 0.5 -0.6 0.18808
0.797732 0.5 3.20924e-17 0.242242
0.756813 0.5 0.2625 0.226096
0.756814 0.5 -0.2625 0.23157
0.797732 0.5 0.075 0.240718
0.797732 0.5 -0.075 0.242464
0.288069 0.5 0.75 0.15999
0.288069 0.5 -0.75 0.168319
0.574156 0.5 -0.5625 0.194098
0.574156 0.5 0.5625 0.185847
0.715434 0.5 0.375 0.213119
0.715434 0.5 -0.375 0.220174
0.797732 0.5 0.15 0.237929
0.797732 0.5 -0.15 0.241375
0.624316 0.5 0.525 0.192571
0.624316 0.5 -0.525 0.200828
0.219992 0.5 0.7875 0.156145
0.219992 0.5 -0.7875 0.16447
0 0.5 -0.818821 0.162565
0 0.5 0.818821 0.154217
0.0124865 0.5 -0.818821 0.162565
0.0124865 0.5 0.818821 0.154217
0 0.5 0.825 0.153795
0 0.5 -0.825 0.162184
0.756813 0.5 -0.3375 0.227671
0.756813 0.5 0.3375 0.220828
0.67013 0.5 0.4875 0.199512
0.67013 0.5 -0.4875 0.207727
0.797732 0.5 0.225 0.233937
0.797732 0.5 -0.225 0.239001
0 0.5 -0.831179 0.161806
0 0.5 0.831179 0.153375
0.0124865 0.5 0.831179 0.153375
0.0124865 0.5 -0.831179 0.161806
0.835106 0.5 -0.0375 0.248732
0.835106 0.5 0.0375 0.247798
0.151149 0.5 0.825 0.153667
0.151149 0.5 -0.825 0.16215
0.835106 0.5 0.1125 0.245487
0.835106 0.5 -0.1125 0.24827
0.715434 0.5 0.45 0.20699
0.715434 0.5 -0.45 0.21516
0.797732 0.5 0.3 0.228831
0.797732 0.5 -0.3 0.235404
0.467897 0.5 0.7125 0.168083
0.467897 0.5 -0.7125 0.176999
0.523432 0.5 0.675 0.17372
0.523432 0.5 -0.675 0.182694
0.411736 0.5 0.75 0.163196
0.411736 0.5 -0.75 0.172102
0.835106 0.5 0.1875 0.241857
0.835106 0.5 -0.1875 0.246407
0.574156 0.5 0.6375 0.179581
0.574156 0.5 -0.6375 0.188586
0.350249 0.5 -0.7875 0.167395
0.350249 0.5 0.7875 0.158522
0.756813 0.5 -0.4125 0.222759
0.756814 0.5 0.4125 0.214691
0.075776 0.5 -0.8625 0.159898
0.075776 0.5 0.8625 0.151257
0.624316 0.5 0.6 0.186107
0.624316 0.5 -0.6 0.195184
0.872064 0.5 4.32235e-17 0.254703
0.288069 0.5 0.825 0.154652
0.288069 0.5 -0.825 0.163506
0.67013 0.5 0.5625 0.192882
0.67013 0.5 -0.5625 0.201996
0.872064 0.5 0.075 0.25297
0.872064 0.5 -0.075 0.254956
0.835106 0.5 0.2625 0.236991
0.835106 0.5 -0.2625 0.243202
0.797732 0.5 0.375 0.222732
0.797732 0.5 -0.375 0.230671
0.872064 0.5 0.15 0.249793
0.872064 0.5 -0.15 0.253711
0.715434 0.5 0.525 0.200204
0.715434 0.5 -0.525 0.209365
0.219992 0.5 0.8625 0.150959
0.219993 0.5 -0.8625 0.159778
0 0.5 -0.893821 0.157894
0 0.5 0.893821 0.149068
0.0124865 0.5 0.893821 0.149068
0.0124865 0.5 -0.893821 0.157894
0 0.5 0.9 0.148635
0 0.5 -0.9 0.157498
0.756813 0.5 0.4875 0.2078
0.756813 0.5 -0.4875 0.216958
0.872064 0.5 0.225 0.245253
0.872064 0.5 -0.225 0.250993
0.835106 0.5 0.3375 0.230999
0.835106 0.5 -0.3375 0.238727
0 0.5 0.906179 0.148204
0 0.5 -0.906179 0.157103
0.0124865 0.5 0.906179 0.148204
0.0124865 0.5 -0.906179 0.157103
0.90582 0.5 -0.0375 0.261448
0.905821 0.5 0.0375 0.260394
0.151149 0.5 0.9 0.148459
0.90582 0.5 0.1125 0.257766
0.90582 0.5 -0.1125 0.260933
0.151149 0.5 -0.901373 0.157247
0.523432 0.5 0.75 0.167362
0.523432 0.5 -0.75 0.176947
0.574157 0.5 0.7125 0.172991
0.574156 0.5 -0.7125 0.182656
0.797732 0.5 0.45 0.215775
0.797732 0.5 -0.45 0.224926
0.467897 0.5 0.7875 0.161974
0.467897 0.5 -0.7875 0.171459
0.624316 0.5 0.675 0.179261
0.624316 0.5 -0.675 0.189053
0.411736 0.5 0.825 0.157308
0.411736 0.5 -0.825 0.166743
0.872064 0.5 0.3 0.239457
0.872064 0.5 -0.3 0.246879
0.67013 0.5 0.6375 0.185805
0.67013 0.5 -0.6375 0.195698
0.90582 0.5 0.1875 0.253642
0.90582 0.5 -0.1875 0.2588
0.350249 0.5 -0.8625 0.162234
0.350249 0.5 0.8625 0.152868
0.835106 0.5 0.4125 0.224032
0.835106 0.5 -0.4125 0.233109
0.715434 0.5 0.6 0.192893
0.715434 0.5 -0.6 0.202911
0.939201 0.5 4.40909e-17 0.267219
0.075776 0.5 -0.9375 0.155114
0.075776 0.5 0.9375 0.146028
0.939201 0.5 0.075 0.265255
0.939201 0.5 -0.075 0.26752
0.756814 0.5 0.5625 0.200285
0.756814 0.5 -0.5625 0.210395
0.905821 0.5 0.2625 0.248124
0.905821 0.5 -0.2625 0.255139
0.288069 0.5 0.9 0.149163
0.288069 0.5 -0.901373 0.158316
0.872064 0.5 0.375 0.232545
0.872064 0.5 -0.375 0.24148
0.939201 0.5 -0.15 0.266127
0.939201 0.5 0.15 0.261657
0.797732 0.5 0.525 0.208098
0.797732 0.5 -0.525 0.218306
0.219993 0.5 -0.9375 0.154893
0.219992 0.5 0.9375 0.145638
0.939201 0.5 0.225 0.25653
0.939201 0.5 -0.225 0.263052
0.90582 0.5 0.3375 0.241344
0.90582 0.5 -0.3375 0.250044
0.835106 0.5 -0.4875 0.226492
0.835107 0.5 0.4875 0.216235
0 0.5 0.968821 0.143803
0 0.5 -0.968821 0.15305
0.0124865 0.5 0.968821 0.143803
0.0124865 0.5 -0.968821 0.15305
0.969689 0.5 0.0375 0.272736
0.969689 0.5 -0.0375 0.273924
0.574156 0.5 0.7875 0.166172
0.574156 0.5 -0.7875 0.176405
0 0.5 0.975 0.143363
0 0.5 -0.975 0.152641
0.624316 0.5 0.75 0.17214
0.624316 0.5 -0.75 0.182544
0.969689 0.5 0.1125 0.269759
0.96969 0.5 -0.1125 0.2734
0.523432 0.5 0.825 0.160813
0.523432 0.5 -0.825 0.170926
0.67013 0.5 0.7125 0.178397
0.67013 0.5 -0.7125 0.188955
0 0.5 -0.981179 0.152235
0 0.5 0.981179 0.142924
0.467897 0.5 0.8625 0.155705
0.467897 0.5 -0.8625 0.165683
0.0124865 0.5 0.981179 0.142924
0.0124865 0.5 -0.981179 0.152235
0.872064 0.5 0.45 0.224682
0.872064 0.5 -0.45 0.23494
0.715434 0.5 0.675 0.185188
0.715434 0.5 -0.675 0.195932
0.939201 0.5 0.3 0.25
0.939201 0.5 -0.3 0.258401
0.151149 0.5 0.975 0.143141
0.151149 0.5 -0.975 0.152504
0.969689 0.5 0.1875 0.26511
0.969689 0.5 -0.1875 0.271005
0.756814 0.5 0.6375 0.192304
0.756814 0.5 -0.6375 0.203211
0.411736 0.5 0.9 0.151288
0.411736 0.5 -0.901373 0.161003
0.90582 0.5 0.4125 0.233468
0.90582 0.5 -0.4125 0.243662
0.797732 0.5 0.6 0.19986
0.797732 0.5 -0.6 0.210958
1.00005 0.5 1.48897e-17 0.279424
0.350249 0.5 -0.9375 0.156895
0.350249 0.5 0.9375 0.147103
1.00005 0.5 0.0749309 0.277228
1.00005 0.5 -0.0749309 0.279775
0.969689 0.5 0.2625 0.25891
0.969689 0.5 -0.2625 0.266904
0.835106 0.5 0.5625 0.207767
0.835106 0.5 -0.5625 0.219026
1.00005 0.5 0.149862 0.273178
1.00005 0.5 -0.149862 0.278219
0.939201 0.5 0.375 0.242229
0.939201 0.5 -0.375 0.252301
0.075776 0.5 1.0125 0.140712
0.075776 0.5 -1.0125 0.150184
0.288069 0.5 0.975 0.14358
0.288069 0.5 -0.975 0.153297
0.872064 0.5 0.525 0.21604
0.872064 0.5 -0.525 0.227422
1.00005 0.5 0.224793 0.26742
1.00005 0.5 -0.224793 0.274745
0.96969 0.5 0.3375 0.251315
0.96969 0.5 -0.3375 0.261174
1.0271 0.5 0.0368226 0.284988
1.0271 0.5 -0.0368226 0.286273
0.90582 0.5 0.4875 0.224691
0.90582 0.5 -0.4875 0.236152
1.0271 0.5 0.110468 0.281697
1.0271 0.5 -0.110468 0.285744
0.67013 0.5 -0.7875 0.181885
0.67013 0.5 0.7875 0.17077
0.624316 0.5 0.825 0.164844
0.624316 0.5 -0.825 0.175764
0.219992 0.5 -1.0125 0.14987
0.219993 0.5 1.0125 0.140239
0.574156 0.5 0.8625 0.159211
0.574156 0.5 -0.8625 0.169926
0.715434 0.5 0.75 0.177211
0.715434 0.5 -0.75 0.18856
0.756813 0.5 -0.7125 0.195559
0.756814 0.5 0.7125 0.183989
0.523432 0.5 0.9 0.154152
0.939201 0.5 0.45 0.233412
0.939201 0.5 -0.45 0.244927
1.04168 0.5 0 0.289306
0.523432 0.5 -0.901373 0.164519
1.0271 0.5 0.184113 0.276571
1.0271 0.5 -0.184113 0.283089
0 0.5 1.04382 0.13847
0 0.5 -1.04382 0.148082
0.0124865 0.5 1.04382 0.13847
0.0124865 0.5 -1.04382 0.148082
1.00005 0.5 0.299723 0.2601
1.00005 0.5 -0.299723 0.269509
1.04168 0.5 0.0729162 0.286989
1.04168 0.5 -0.0729162 0.289712
0.797732 0.5 0.675 0.191218
0.797732 0.5 -0.675 0.203044
0.467897 0.5 -0.9375 0.159747
0.467897 0.5 0.9375 0.149346
0 0.5 1.05 0.138027
0 0.5 -1.05 0.147666
0.835106 0.5 0.6375 0.198817
0.835106 0.5 -0.6375 0.210884
1.04168 0.5 0.145832 0.282722
1.04168 0.5 -0.145832 0.288139
0.969689 0.5 -0.4125 0.254005
0.96969 0.5 0.4125 0.242511
0 0.5 1.05618 0.137585
0 0.5 -1.05618 0.147252
0.0124865 0.5 1.05618 0.137585
0.0124865 0.5 -1.05618 0.147252
1.05695 0.5 -0.0360764 0.293568
1.05695 0.5 0.0360764 0.292265
0.411736 0.5 0.975 0.145198
0.411736 0.5 -0.975 0.155483
0.872064 0.5 0.6 0.206806
0.872064 0.5 -0.6 0.219098
1.0271 0.5 0.257759 0.269742
1.0271 0.5 -0.257759 0.278575
0.151149 0.5 -1.05 0.147482
0.151149 0.5 1.05 0.137763
1.05695 0.5 0.108229 0.288883
1.05695 0.5 -0.108229 0.293105
1.04168 0.5 0.218749 0.276682
1.04168 0.5 -0.218749 0.284542
0.90582 0.5 0.5625 0.215201
0.90582 0.5 -0.5625 0.227706
1.00005 0.5 0.374654 0.251406
1.00005 0.5 -0.374654 0.262646
0.350249 0.5 1.0125 0.141283
0.350249 0.5 -1.0125 0.151441
1.05695 0.5 0.180382 0.283667
1.05695 0.5 -0.180382 0.290436
0.939201 0.5 0.525 0.223755
0.939201 0.5 -0.525 0.236472
1.0271 0.5 -0.331404 0.272266
1.0271 0.5 0.331404 0.261385
1.08112 0.5 3.20924e-17 0.299131
1.04168 0.5 0.291665 0.269014
1.04168 0.5 -0.291665 0.279107
1.08112 0.5 0.0709442 0.296719
1.08112 0.5 -0.0709442 0.299603
0.96969 0.5 0.4875 0.232729
0.96969 0.5 -0.4875 0.245598
1.05695 0.5 0.252535 0.276726
1.05695 0.5 -0.252535 0.285908
0.288069 0.5 1.05 0.137953
0.288069 0.5 -1.05 0.148015
0.075776 0.5 -1.0875 0.145163
0.075776 0.5 1.0875 0.135355
1.08112 0.5 0.141888 0.292322
1.08112 0.5 -0.141888 0.298073
0.715434 0.5 0.825 0.169082
0.715434 0.5 -0.825 0.180925
0.756814 0.5 0.7875 0.175472
0.756814 0.5 -0.7875 0.18758
0.67013 0.5 0.8625 0.16303
0.67013 0.5 -0.8625 0.174604
0.797732 0.5 0.75 0.182317
0.797732 0.5 -0.75 0.194728
0.624316 0.5 0.9 0.157465
1.00005 0.5 0.449585 0.241567
1.00005 0.5 -0.449585 0.254367
0.624316 0.5 -0.901373 0.168594
0.835106 0.5 0.7125 0.189538
0.835106 0.5 -0.7125 0.202247
0.574156 0.5 -0.9375 0.16331
0.574156 0.5 0.9375 0.152191
1.10076 0.5 0.0349809 0.303545
1.10076 0.5 -0.0349809 0.304936
1.08112 0.5 0.212832 0.286134
1.08112 0.5 -0.212832 0.294482
0.872064 0.5 0.675 0.197164
0.872064 0.5 -0.675 0.21017
1.04168 0.5 -0.364581 0.271958
1.04168 0.5 0.364581 0.259913
1.0271 0.5 -0.405049 0.264379
1.0271 0.5 0.405049 0.251718
1.05695 0.5 0.324688 0.268236
1.05695 0.5 -0.324688 0.279533
1.10076 0.5 -0.104943 0.304574
1.10076 0.5 0.104943 0.299995
0.523432 0.5 0.975 0.147451
0.523432 0.5 -0.975 0.158393
0.90582 0.5 0.6375 0.205212
0.90582 0.5 -0.6375 0.218502
0.219992 0.5 1.0875 0.134803
0.219992 0.5 -1.0875 0.144761
1.11376 0.5 1.15648e-18 0.307578
0.939201 0.5 0.6 0.213486
0.939201 0.5 -0.6 0.22714
1.10076 0.5 0.174905 0.2946
1.10076 0.5 -0.174905 0.301941
0.467897 0.5 -1.0125 0.153718
0.467897 0.5 1.0125 0.142962
1.11376 0.5 0.0693118 0.305065
1.11376 0.5 -0.0693118 0.308119
1.08112 0.5 0.283777 0.278288
1.08112 0.5 -0.285603 0.288831
0 0.5 -1.11882 0.14304
0 0.5 1.11882 0.133114
0.0124865 0.5 1.11882 0.133114
0.0124865 0.5 -1.11882 0.14304
0.969689 0.5 0.5625 0.222187
0.969689 0.5 -0.5625 0.23617
1.11376 0.5 0.138624 0.300529
1.11376 0.5 -0.138624 0.306631
0 0.5 1.125 0.132671
0 0.5 -1.125 0.14262
1.10076 0.5 0.244866 0.287445
1.10076 0.5 -0.244866 0.297418
0.411736 0.5 -1.05 0.149712
0.411736 0.5 1.05 0.139095
1.05695 0.5 -0.396841 0.271089
1.05695 0.5 0.396841 0.258411
1.00005 0.5 0.524516 0.230833
1.00005 0.5 -0.525427 0.244824
1.04168 0.5 -0.437497 0.263311
1.04168 0.5 0.437497 0.249618
0 0.5 1.13118 0.132229
0 0.5 -1.13118 0.142202
0.0124865 0.5 -1.13118 0.142202
0.0124865 0.5 1.13118 0.132229
1.11376 0.5 0.207935 0.294176
1.0271 0.5 -0.478694 0.255116
1.0271 0.5 0.478694 0.241
1.11376 0.5 -0.213207 0.303041
1.07791 0.5 -0.354722 0.281123
0.151149 0.5 1.125 0.132364
0.151149 0.5 -1.125 0.142389
1.08112 0.5 0.354722 0.268976
1.13882 0.5 0.0340295 0.313399
1.13882 0.5 -0.0340295 0.314896
0.350249 0.5 1.0875 0.135456
0.350249 0.5 -1.0875 0.145925
1.13882 0.5 0.102088 0.309704
1.13882 0.5 -0.102088 0.31457
1.10076 0.5 0.314829 0.278703
1.10076 0.5 -0.314829 0.290971
0.756813 0.5 -0.8625 0.179412
0.756814 0.5 0.8625 0.166879
0.797732 0.5 0.825 0.173298
0.797732 0.5 -0.825 0.186162
1.11376 0.5 -0.277247 0.29795
1.11376 0.5 0.277247 0.286132
0.835106 0.5 0.7875 0.180085
0.835106 0.5 -0.7875 0.193291
0.715434 0.5 0.9 0.160911
0.872064 0.5 0.75 0.187278
0.872064 0.5 -0.75 0.200844
0.715434 0.5 -0.901373 0.1729
1.13882 0.5 -0.170147 0.311946
1.13882 0.5 0.170147 0.304112
0.67013 0.5 -0.9375 0.167215
0.67013 0.5 0.9375 0.155273
0.90582 0.5 0.7125 0.194899
0.90582 0.5 -0.7125 0.208813
1.05695 0.5 -0.468994 0.261367
1.05695 0.5 0.468994 0.247507
0.939201 0.5 0.675 0.202825
0.939201 0.5 -0.675 0.217163
0.624316 0.5 0.975 0.150087
0.624316 0.5 -0.975 0.161783
1.04168 0.5 -0.510414 0.253382
1.04168 0.5 0.510414 0.238389
0.969689 0.5 0.6375 0.211166
0.969689 0.5 -0.6375 0.225951
0.288069 0.5 1.125 0.132322
0.288069 0.5 -1.125 0.142677
1.16179 0.5 1.04083e-17 0.320725
1.08112 0.5 -0.425666 0.272954
1.08112 0.5 0.425666 0.258434
1.13882 0.5 -0.238206 0.306807
1.13882 0.5 0.238206 0.296714
1.16179 0.5 0.0669104 0.318059
1.16179 0.5 -0.0669104 0.32136
0.574156 0.5 -1.0125 0.156636
0.574156 0.5 1.0125 0.145185
0.998291 0.5 -0.599796 0.23405
0.075776 0.5 -1.1625 0.140091
0.075776 0.5 1.1625 0.13
1.00005 0.5 0.599447 0.219465
1.10076 0.5 -0.384791 0.282841
1.10076 0.5 0.384791 0.268584
1.0271 0.5 0.55234 0.229494
1.0271 0.5 -0.55234 0.247947
1.11376 0.5 -0.346559 0.290172
1.11376 0.5 0.346559 0.27659
1.16179 0.5 0.133821 0.313294
1.16179 0.5 -0.133821 0.319765
0.523432 0.5 -1.05 0.15203
0.523432 0.5 1.05 0.140777
1.17463 0.5 0.0331343 0.323321
1.17463 0.5 -0.0331343 0.324883
1.15837 0.5 -0.200731 0.315523
1.17463 0.5 0.0994029 0.319446
1.17463 0.5 -0.0994029 0.32466
1.16179 0.5 0.200074 0.306569
1.13882 0.5 -0.306265 0.300778
1.13882 0.5 0.306265 0.287681
0.219992 0.5 1.1625 0.129359
0.219992 0.5 -1.1625 0.139595
0.467897 0.5 -1.0875 0.147664
0.467897 0.5 1.0875 0.136616
1.17463 0.5 0.165672 0.313654
1.17463 0.5 -0.165672 0.322018
1.05695 0.5 0.541147 0.235787
1.05695 0.5 -0.541147 0.251545
1.18772 0.5 -1.15648e-18 0.327831
1.11376 0.5 -0.41587 0.281202
1.11376 0.5 0.41587 0.26578
1.18772 0.5 0.0655187 0.325065
1.08112 0.5 0.49661 0.246918
1.08112 0.5 -0.49661 0.262805
1.18772 0.5 -0.0699161 0.328532
1.10076 0.5 -0.454752 0.273202
1.10076 0.5 0.454752 0.257341
1.16179 0.5 0.267642 0.298126
1.16179 0.5 -0.267642 0.310607
0 0.5 1.19382 0.127775
0 0.5 -1.19382 0.137966
0.0124865 0.5 -1.19382 0.137966
0.0124865 0.5 1.19382 0.127775
1.04168 0.5 -0.58333 0.242444
1.04168 0.5 0.58333 0.226493
1.18772 0.5 0.131228 0.320218
1.18772 0.5 -0.131228 0.327265
1.17463 0.5 0.23194 0.306005
1.17463 0.5 -0.23194 0.317375
0.411736 0.5 1.125 0.133032
0.411736 0.5 -1.125 0.143921
1.13882 0.5 0.374324 0.277225
1.13882 0.5 -0.374324 0.292445
0 0.5 1.2 0.127335
0 0.5 -1.2 0.137546
0.90582 0.5 0.7875 0.184437
0.90582 0.5 -0.7875 0.198826
0.872064 0.5 0.825 0.177316
0.872064 0.5 -0.825 0.191294
0.835106 0.5 -0.8625 0.184173
0.835106 0.5 0.8625 0.170607
1.18534 0.5 0.196842 0.31279
0.939201 0.5 0.75 0.19195
0.939201 0.5 -0.75 0.206783
0.797732 0.5 0.9 0.164289
1.0271 0.5 -0.625985 0.233504
1.0271 0.5 0.625985 0.217466
0.969689 0.5 0.7125 0.199878
0.96969 0.5 -0.7125 0.21519
0.797732 0.5 -0.901373 0.177213
1.18772 0.5 -0.196842 0.323556
0.756813 0.5 -0.9375 0.171173
0.756813 0.5 0.9375 0.158323
0.998291 0.5 -0.67477 0.223011
1.15863 0.5 0.334552 0.287625
0 0.5 1.20618 0.126897
0 0.5 -1.20618 0.137128
1.00005 0.5 0.674378 0.207712
0.0124865 0.5 -1.20618 0.137128
0.0124865 0.5 1.20618 0.126897
1.16179 0.5 -0.334552 0.303032
0.715434 0.5 0.975 0.152792
0.715434 0.5 -0.975 0.16533
0.151149 0.5 1.2 0.126982
0.151149 0.5 -1.2 0.137266
1.20942 0.5 -0.0322645 0.334961
1.20942 0.5 0.0322645 0.333306
1.18534 0.5 0.249669 0.306083
1.17463 0.5 0.298209 0.296672
1.17463 0.5 -0.298209 0.310667
1.20942 0.5 0.0967935 0.329276
1.20942 0.5 -0.0967935 0.334813
0.350249 0.5 1.1625 0.129662
0.350249 0.5 -1.1625 0.140385
0.67013 0.5 1.0125 0.14758
0.67013 0.5 -1.0125 0.159811
1.11376 0.5 -0.485183 0.270833
1.11376 0.5 0.485183 0.253963
1.18772 0.5 -0.262456 0.317855
1.10076 0.5 -0.524714 0.262324
1.10076 0.5 0.524714 0.245234
1.20942 0.5 0.161322 0.32356
1.20942 0.5 -0.161322 0.332467
1.08112 0.5 -0.567554 0.251581
1.08112 0.5 0.567554 0.234695
0.624316 0.5 1.05 0.142783
0.624316 0.5 -1.05 0.154755
1.13882 0.5 0.442383 0.265598
1.13882 0.5 -0.442383 0.282528
1.05695 0.5 -0.6133 0.240067
1.05695 0.5 0.6133 0.223517
1.15863 0.5 0.401463 0.276381
1.16179 0.5 -0.401463 0.293738
0.574156 0.5 1.0875 0.138259
0.574157 0.5 -1.0875 0.149976
1.17463 0.5 0.364477 0.28587
1.17463 0.5 -0.364477 0.302137
1.20942 0.5 0.225851 0.315681
1.20942 0.5 -0.225851 0.32779
1.23036 0.5 -1.38778e-17 0.341072
1.04168 0.5 -0.656246 0.230812
1.04168 0.5 0.656246 0.214179
1.23036 0.5 -0.0634819 0.341837
1.23036 0.5 0.0634819 0.338165
1.18772 0.5 0.32807 0.294678
1.18772 0.5 -0.32807 0.310185
0.288069 0.5 1.2 0.126725
0.288069 0.5 -1.2 0.137322
1.23036 0.5 0.126964 0.333065
1.23036 0.5 -0.126964 0.340501
0.075776 0.5 -1.2375 0.135015
0.075776 0.5 1.2375 0.124683
0.523432 0.5 1.125 0.13419
0.523432 0.5 -1.125 0.145691
1.0271 0.5 -0.69963 0.221752
1.0271 0.5 0.69963 0.20515
1.24274 0.5 -0.0314313 0.345695
1.24274 0.5 0.0314313 0.343934
1.20942 0.5 0.29038 0.306073
1.20942 0.5 -0.29038 0.320984
1.11376 0.5 -0.554494 0.259339
1.11376 0.5 0.554494 0.241405
1.23036 0.5 0.190445 0.32602
1.23036 0.5 -0.190445 0.33684
1.24274 0.5 0.0942942 0.339737
1.24274 0.5 -0.0942942 0.34563
1.13882 0.5 -0.510442 0.271305
1.13882 0.5 0.510442 0.25307
0.998291 0.5 -0.749744 0.211578
0.969689 0.5 0.7875 0.18847
0.969689 0.5 -0.7875 0.204139
1.00005 0.5 0.749309 0.195783
1.15863 0.5 0.468373 0.264072
0.939201 0.5 0.825 0.181042
0.939201 0.5 -0.825 0.196213
1.2484 0.5 -0.0653061 0.347745
0.90582 0.5 0.8625 0.174018
0.90582 0.5 -0.8625 0.188725
1.17463 0.5 -0.430746 0.291942
1.17463 0.5 0.430746 0.273849
1.10076 0.5 -0.594676 0.250475
1.10076 0.5 0.594676 0.232533
1.18772 0.5 0.393684 0.283135
1.18772 0.5 -0.393684 0.30074
1.24274 0.5 -0.157157 0.343058
1.24274 0.5 0.157157 0.333568
1.16179 0.5 -0.468373 0.28295
0.467897 0.5 -1.1625 0.141642
0.467897 0.5 1.1625 0.13036
0.872064 0.5 0.9 0.167429
1.25401 0.5 0 0.34819
0.872064 0.5 -0.901373 0.181378
1.24906 0.5 -0.125094 0.346585
0.835106 0.5 0.9375 0.161233
0.835106 0.5 -0.9375 0.175043
1.25401 0.5 0.0622994 0.345179
1.08112 0.5 -0.638498 0.239597
1.08112 0.5 0.638498 0.222028
1.23036 0.5 0.253927 0.317131
1.23036 0.5 -0.253927 0.331042
0.219992 0.5 1.2375 0.123955
0.219992 0.5 -1.2375 0.134423
1.05695 0.5 -0.685452 0.228042
1.05695 0.5 0.685452 0.210932
0.797732 0.5 0.975 0.155398
0.797732 0.5 -0.975 0.168835
1.25401 0.5 0.124599 0.33995
1.20942 0.5 0.354909 0.29495
1.20942 0.5 -0.354909 0.312286
1.24274 0.5 0.220019 0.32546
1.24274 0.5 -0.220019 0.338363
1.24906 0.5 -0.187641 0.342958
0.756813 0.5 -1.0125 0.162978
0.756813 0.5 1.0125 0.149891
1.25401 0.5 0.186898 0.332754
0.411736 0.5 1.2 0.127049
0.411736 0.5 -1.2 0.138156
0 0.5 1.26882 0.122487
0 0.5 -1.26882 0.1329
0.0124865 0.5 -1.26882 0.1329
0.0124865 0.5 1.26882 0.122487
0.715434 0.5 -1.05 0.157572
0.715434 0.5 1.05 0.144806
1.23036 0.5 0.31741 0.306588
1.23036 0.5 -0.31741 0.323192
1.04168 0.5 -0.729162 0.218778
1.04168 0.5 0.729162 0.201683
1.18772 0.5 -0.459298 0.289749
1.18772 0.5 0.459298 0.270496
1.24274 0.5 0.282882 0.315577
1.24274 0.5 -0.282882 0.331475
0 0.5 1.275 0.122052
0 0.5 -1.275 0.132481
1.27472 0.5 -0.0306319 0.356218
1.27472 0.5 0.0306319 0.35432
1.17463 0.5 -0.497015 0.280374
1.17463 0.5 0.497015 0.26089
1.15837 0.5 0.534151 0.25169
1.11376 0.5 0.62266 0.228319
1.11376 0.5 -0.623806 0.24703
1.13882 0.5 -0.578501 0.259066
1.13882 0.5 0.578501 0.239659
0.67013 0.5 1.0875 0.140023
0.67013 0.5 -1.0875 0.152472
1.27472 0.5 -0.0918959 0.355876
1.27472 0.5 0.0918959 0.349986
1.25401 0.5 -0.249197 0.338042
1.25401 0.5 0.249197 0.323686
1.16179 0.5 -0.535284 0.270957
1.20942 0.5 0.419438 0.282557
1.20942 0.5 -0.419438 0.301832
0 0.5 1.28118 0.121619
0 0.5 -1.28118 0.132065
0.0124865 0.5 1.28118 0.121619
0.0124865 0.5 -1.28118 0.132065
1.27472 0.5 0.15316 0.343632
1.27472 0.5 -0.15316 0.353377
0.151149 0.5 -1.275 0.132155
0.151149 0.5 1.275 0.121657
1.0271 0.5 -0.773275 0.207603
1.0271 0.5 0.773275 0.192775
1.10076 0.5 0.664638 0.219519
1.10076 0.5 -0.664638 0.238005
0.350249 0.5 1.2375 0.123936
0.350249 0.5 -1.2375 0.134868
0.624316 0.5 1.125 0.135615
0.624316 0.5 -1.125 0.1478
1.23036 0.5 -0.380892 0.313463
1.23036 0.5 0.380892 0.294617
1.24274 0.5 0.345745 0.304131
1.24274 0.5 -0.345745 0.322623
1.2906 0.5 0 0.360739
1.2906 0.5 -0.0604698 0.361735
1.2906 0.5 0.0604698 0.357549
1.25401 0.5 0.311497 0.312932
1.25401 0.5 -0.311497 0.330379
1.27472 0.5 -0.214423 0.348493
1.27472 0.5 0.214423 0.335306
1.08112 0.5 0.709442 0.209159
1.08112 0.5 -0.709442 0.227171
0.998291 0.5 -0.824719 0.20063
1.00005 0.5 0.824239 0.183883
1.2906 0.5 -0.12094 0.360528
1.2906 0.5 0.12094 0.352101
0.574156 0.5 -1.1625 0.143392
0.574156 0.5 1.1625 0.131469
0.969689 0.5 0.8625 0.177156
0.969689 0.5 -0.8625 0.193031
1.18772 0.5 -0.524912 0.277503
1.18772 0.5 0.524912 0.257042
1.05695 0.5 -0.757605 0.215745
1.05695 0.5 0.757605 0.198277
0.939201 0.5 0.9 0.170291
1.30091 0.5 0.0299772 0.363208
1.30091 0.5 -0.0299772 0.365236
0.939201 0.5 -0.901373 0.185306
1.20942 0.5 -0.483967 0.289948
1.20942 0.5 0.483967 0.269182
1.17463 0.5 0.563284 0.247272
1.17463 0.5 -0.563284 0.267723
1.2906 0.5 -0.181409 0.356938
1.2906 0.5 0.181409 0.34465
0.90582 0.5 0.9375 0.163773
0.90582 0.5 -0.9375 0.178676
1.30091 0.5 -0.0899316 0.365267
1.30091 0.5 0.0899316 0.35875
1.27472 0.5 0.275687 0.325162
1.27472 0.5 -0.275687 0.342035
0.288069 0.5 1.275 0.121201
0.288069 0.5 -1.275 0.131997
0.872064 0.5 0.975 0.157734
0.872064 0.5 -0.975 0.172162
1.23036 0.5 0.444373 0.281485