# pMean  POINT_DATA 91132
# x  y  z  pMean
0 0 0 0.231014
0 0.00368111 0 0.230688
0 0.00749587 0 0.229981
0 0.0114491 0 0.229282
0 0.0155459 0 0.228652
0 0.0197915 0 0.227983
0 0.0241911 0 0.227226
0 0.0287506 0 0.226391
0 0.0334755 0 0.225507
0 0.038372 0 0.224592
0 0.0434463 0 0.223657
0 0.0487048 0 0.222709
0 0.0541543 0 0.221775
0 0.0598016 0 0.220897
0 0.0656539 0 0.220093
0 0.0717187 0 0.219326
0.075776 0.00184056 0 0.231014
0.075776 0.00558849 3.46945e-18 0.230362
0.075776 0.00947249 0 0.2296
0.075776 0.0134975 0 0.228965
0.075776 0.0176687 0 0.228339
0 0.0780037 0 0.218554
0.075776 0.0219913 0 0.227628
0.075776 0.0264709 -3.46945e-18 0.226824
0.075776 0.031113 3.46945e-18 0.225958
0.075776 0.0359238 0 0.225056
0 0.0845169 0 0.217767
0.075776 0.0409091 0 0.224129
0.075776 0.0460755 0 0.223185
0 0.0912666 0 0.216966
0.075776 0.0514296 0 0.222234
0.075776 0.0569779 0 0.221316
0 0.0982613 0 0.216154
0.075776 0.0627277 -3.46945e-18 0.220479
0.075776 0.0686863 0 0.219707
0 0.10551 0 0.215329
0.075776 0.0748612 0 0.218944
0.075776 0.0812603 0 0.218164
0 0.113022 0 0.214488
0.075776 0.0878918 0 0.217369
0 0.120806 0 0.213631
0.075776 0.0947639 0 0.216563
0.075776 0.101886 -3.46945e-18 0.215744
0 0.128874 0 0.212753
0.075776 0.109266 0 0.214912
0 0.137234 0 0.211858
0.075776 0.116914 0 0.214064
0 0.145897 0 0.210962
0.075776 0.12484 0 0.213197
0.151552 0 0 0.213703
0.151552 0.00368111 0 0.213578
0.151552 0.00749587 0 0.213336
0.151552 0.0114491 0 0.213144
0.151552 0.0155459 0 0.212987
0.151552 0.0197915 0 0.212804
0.075776 0.133054 -3.46945e-18 0.212309
0.151552 0.0241911 0 0.212573
0.151552 0.0287506 0 0.212298
0 0.154876 0 0.210096
0.151552 0.0334755 0 0.211992
0.151552 0.038372 0 0.211665
0.151552 0.0434463 0 0.211323
0.151552 0.0487048 0 0.210969
0.075776 0.141565 0 0.211406
0.151552 0.0541543 0 0.210615
0.151552 0.0598016 0 0.210282
0 0.16418 0 0.209289
0.151552 0.0656539 0 0.209976
0.151552 0.0717187 0 0.209679
0.075776 0.150387 -3.46945e-18 0.210517
0.151552 0.0780037 0 0.209371
0.151552 0.0845169 0 0.209046
0 0.173822 0 0.208548
0.075776 0.159528 -3.46945e-18 0.209676
0.151552 0.0912666 0 0.208706
0.151552 0.0982613 0 0.208356
0 0.183814 0 0.20786
0.151552 0.10551 0 0.207998
0.075776 0.169001 0 0.208902
0.151552 0.113022 0 0.20763
0.151552 0.120806 0 0.207242
0 0.194169 0 0.207203
0.075776 0.178818 3.46945e-18 0.208193
0.151552 0.128874 0 0.206827
0.075776 0.188991 0 0.207527
0.151552 0.137234 0 0.206382
0 0.2049 0 0.206555
0.151552 0.145897 0 0.205919
0.075776 0.199534 0 0.206878
0 0.21602 0 0.205898
0.151552 0.154876 0 0.205458
0.219992 0.00184055 0 0.197725
0.219992 0.00558849 -3.46945e-18 0.197842
0.219992 0.00947248 3.46945e-18 0.198102
0.219992 0.0134975 -3.46945e-18 0.198392
0.219992 0.0176687 3.46945e-18 0.198663
0.219992 0.0219913 3.46945e-18 0.198923
0.219993 0.0264709 0 0.199172
0.219992 0.031113 -3.46945e-18 0.199405
0.219992 0.0359237 3.46945e-18 0.199626
0.151552 0.16418 0 0.205016
0.075776 0.21046 3.46945e-18 0.20623
0.219992 0.0409092 0 0.199837
0.219992 0.0460755 0 0.200038
0.219993 0.0514296 0 0.200226
0.219992 0.0569779 0 0.200401
0 0.227544 0 0.20521
0.219992 0.0627277 0 0.200563
0.219992 0.0686863 -3.46945e-18 0.200709
0.151552 0.173822 0 0.204596
0.219992 0.0748612 3.46945e-18 0.200838
0.075776 0.221782 0 0.205566
0.219992 0.0812603 0 0.200948
0.219992 0.0878917 0 0.201041
0.151552 0.183814 0 0.204191
7.47806e-17 0.239487 0 0.20447
0.219993 0.0947639 0 0.20112
0.219992 0.101886 0 0.201194
0.075776 0.233515 3.46945e-18 0.204855
0.219993 0.109266 0 0.201267
0.151552 0.194169 0 0.203787
0.219992 0.116914 3.46945e-18 0.201328
0 0.251863 0 0.20368
0.219992 0.12484 -3.46945e-18 0.201361
0.151552 0.2049 0 0.203373
0.075776 0.245675 0 0.204084
0.219992 0.133054 0 0.201352
0.219992 0.141566 0 0.201302
0.151552 0.21602 0 0.20294
0 0.264688 0 0.202864
0.219993 0.150387 0 0.201224
0.075776 0.258275 3.46945e-18 0.203276
0.219992 0.159528 0 0.201128
0.151552 0.227544 0 0.202476
0.219993 0.169001 -3.46945e-18 0.201015
0 0.27798 0 0.202033
0.075776 0.271334 0 0.202452
0.151552 0.239487 3.70071e-18 0.201969
0.219992 0.178818 0 0.200882
0.288433 0 0 0.201751
0.288433 0.00368111 0 0.201793
0.288433 0.00749587 0 0.201921
0.288433 0.0114491 0 0.202106
0.288433 0.0155459 0 0.202301
0.288433 0.0197915 0 0.202493
0.288433 0.0241911 0 0.202682
0.288433 0.0287506 0 0.202866
0.219993 0.188991 0 0.200725
0.288433 0.0334755 0 0.203043
0.288433 0.038372 0 0.203215
0.288433 0.0434463 0 0.203381
7.47806e-17 0.291753 0 0.201185
0.288433 0.0487048 0 0.203539
0.288433 0.0541543 0 0.203689
0.151552 0.251863 0 0.201421
0.288433 0.0598016 0 0.203831
0.075776 0.284867 0 0.201613
0.288433 0.0656539 0 0.203962
0.219992 0.199534 0 0.200541
0.288433 0.0717187 0 0.204084
0.288433 0.0780037 0 0.204197
0.288433 0.0845169 0 0.204298
0.288433 0.0912666 0 0.204382
0.219992 0.21046 0 0.20033
0.288433 0.0982613 0 0.20445
0.151552 0.264688 3.70071e-18 0.200842
0 0.306027 0 0.200311
0.288433 0.10551 0 0.204504
0.075776 0.29889 -3.46945e-18 0.200755
0.288433 0.113022 0 0.204544
0.219992 0.221782 0 0.200087
0.288433 0.120806 0 0.204566
0.288433 0.128874 0 0.204567
0.151552 0.27798 0 0.200242
0.288433 0.137234 0 0.204546
0 0.320819 0 0.199401
0.219993 0.233515 0 0.199813
0.075776 0.313423 3.46945e-18 0.199867
0.288433 0.145897 0 0.204499
0.288433 0.154876 0 0.204429
0.151552 0.291753 0 0.199621
0.219993 0.245675 0 0.199506
0.288433 0.16418 0 0.204338
0 0.336148 0 0.198459
0.288433 0.173822 0 0.204225
0.075776 0.328484 0 0.198935
0.219992 0.258275 0 0.199163
0.151552 0.306027 0 0.198973
0.288433 0.183814 0 0.204089
0.288433 0.194169 0 0.203928
0.219993 0.271334 0 0.198787
0.350249 0.00184056 0 0.205482
0.350249 0.00558849 3.46945e-18 0.205534
0.350249 0.00947248 0 0.205627
0.350249 0.0134975 3.46945e-18 0.205737
0.350249 0.0176687 -3.46945e-18 0.205857
0.350249 0.0219913 0 0.205984
0.350249 0.0264709 -3.46945e-18 0.206114
0.350249 0.031113 0 0.206246
0 0.352034 0 0.197521
0.350249 0.0359238 3.46945e-18 0.206377
0.075776 0.344091 0 0.197983
0.350249 0.0409091 3.46945e-18 0.206507
0.350249 0.0460755 -3.46945e-18 0.206634
0.288433 0.2049 0 0.203738
0.350249 0.0514296 0 0.206758
0.151552 0.320819 0 0.198284
0.350249 0.0569779 0 0.206877
0.350249 0.0627277 0 0.20699
0.350249 0.0686863 0 0.207098
0.350249 0.0748612 0 0.207205
0.350249 0.0812603 0 0.207311
0.219992 0.284867 0 0.198389
0.288433 0.21602 0 0.203518
0.350249 0.0878918 0 0.207406
0.350249 0.0947639 0 0.207478
0.350249 0.101886 0 0.207525
0.350249 0.109266 3.46945e-18 0.20755
0.288433 0.227544 0 0.203268
0.075776 0.360265 0 0.197059
0 0.368496 0 0.196605
0.151552 0.336148 0 0.197553
0.350249 0.116914 -3.46945e-18 0.207554
0.219992 0.29889 -3.46945e-18 0.197966
0.370854 0.0241911 -3.08149e-33 0.208731
0.350249 0.12484 3.46945e-18 0.207547
0.350249 0.133054 0 0.207538
0.288433 0.239487 -9.25154e-19 0.202984
0.350249 0.141565 3.46945e-18 0.207519
0.350249 0.150387 0 0.207477
0.288433 0.251863 0 0.202665
0.219992 0.313423 0 0.197507
0.151552 0.352034 0 0.196795
0.075776 0.377026 -3.46945e-18 0.196149
0.350249 0.159528 0 0.20741
0 0.385557 0 0.195668
0.350249 0.169001 3.46945e-18 0.20732
0.288433 0.264688 0 0.20231
0.350249 0.178818 3.46945e-18 0.207205
0.219992 0.328484 0 0.196998
0.350249 0.188991 0 0.207065
0.151552 0.368496 0 0.196021
0.288433 0.27798 3.70071e-18 0.201922
0.075776 0.394396 -3.46945e-18 0.195186
0.350249 0.199535 3.46945e-18 0.206897
7.47806e-17 0.403236 0 0.194668
0.219992 0.344091 -3.46945e-18 0.196433
0.350249 0.21046 3.46945e-18 0.2067
0.288433 0.291753 0 0.201504
0.412065 9.08189e-19 3.08149e-33 0.211378
0.412065 0.00368111 3.08149e-33 0.211396
0.412065 0.00749587 3.08149e-33 0.211447
0.412065 0.0114491 0 0.211516
0.412065 0.0155459 0 0.211592
0.412065 0.0197915 0 0.211673
0.412065 0.0241911 -3.08149e-33 0.211755
0.412065 0.0264709 0 0.211798
0.412065 0.0287506 0 0.211841
0.412065 0.0334755 3.08149e-33 0.211928
0.412065 0.038372 3.08149e-33 0.212018
0.151552 0.385557 0 0.195212
0.412065 0.0434463 0 0.212108
0.350249 0.221782 3.46945e-18 0.206472
0.412065 0.0487048 0 0.212199
0.412065 0.0541543 0 0.212289
0.412065 0.0569779 0 0.212333
0.412065 0.0598016 0 0.212377
0.412065 0.0656539 3.08149e-33 0.212463
0.412065 0.0717187 3.08149e-33 0.212545
0.075776 0.412396 -3.46945e-18 0.194148
0.412065 0.0780037 -2.31298e-18 0.212616
0.288433 0.306027 0 0.201051
0.412065 0.0845169 2.31112e-33 0.212667
0.350249 0.233515 0 0.206212
0 0.421557 0 0.193601
0.412065 0.0912666 1.54074e-33 0.212692
0.219992 0.360265 0 0.195815
0.412065 0.0982613 0 0.212697
0.412065 0.10551 0 0.212684
0.412065 0.113022 -2.31298e-18 0.212656
0.350249 0.245675 3.46945e-18 0.205917
0.412065 0.120806 0 0.212613
0.151552 0.403236 0 0.194347
0.288433 0.320819 0 0.200555
0.412065 0.128874 -2.31298e-18 0.21256
0.412065 0.137234 0 0.212496
0.350249 0.258275 3.46945e-18 0.205586
0.219993 0.377026 0 0.195148
0.412065 0.145897 -2.31298e-18 0.212418
0.075776 0.43105 -3.46945e-18 0.193053
0.412065 0.154876 -2.31298e-18 0.212321
0 0.440544 0 0.192486
0.288433 0.336148 0 0.200011
0.350249 0.271334 0 0.205217
0.412065 0.16418 -2.31298e-18 0.212205
0.412065 0.173822 -2.31298e-18 0.212068
0.151552 0.421557 0 0.193421
0.412065 0.183814 -2.31298e-18 0.211908
0.350249 0.284866 3.46945e-18 0.20481
0.219992 0.394397 -3.46945e-18 0.194434
0.288433 0.352034 3.70071e-18 0.199416
0.412065 0.194169 0 0.211725
0.075776 0.450382 -3.46945e-18 0.191917
0.412065 0.2049 -2.31298e-18 0.211516
0 0.46022 0 0.191331
0.350249 0.29889 -3.46945e-18 0.204365
0.412065 0.21602 0 0.211279
0.151552 0.440544 0 0.192442
0.219993 0.412397 3.46945e-18 0.193668
0.467897 0.00184056 3.46945e-18 0.216862
0.467897 0.00558849 3.46945e-18 0.216886
0.288433 0.368496 0 0.198768
0.467897 0.00947248 0 0.216923
0.467897 0.0134975 3.46945e-18 0.216963
0.467897 0.0176687 0 0.217004
0.467897 0.0219913 0 0.217043
0.467897 0.0264709 0 0.217084
0.467897 0.031113 0 0.217129
0.467897 0.0359238 3.46945e-18 0.217178
0.467897 0.038372 0 0.217852
0.467897 0.0409092 0 0.217231
0.350249 0.313423 3.46945e-18 0.203881
0.467897 0.0460756 3.46945e-18 0.217288
0.467897 0.0514296 0 0.217348
0.412065 0.227544 -2.31298e-18 0.211012
0.467897 0.0569779 0 0.21741
0.467897 0.0627277 3.46945e-18 0.217473
0.467897 0.0686863 3.46945e-18 0.217535
0.467897 0.0748612 0 0.217589
0.467897 0.0812603 0 0.217615
0.467897 0.0878917 0 0.217598
0.075776 0.470415 0 0.190743
0.412065 0.239487 -2.31298e-18 0.210714
0.467897 0.0947639 -3.46945e-18 0.217556
0.467897 0.101886 0 0.217503
0.350249 0.328483 3.46945e-18 0.203354
0.467897 0.109266 0 0.217442
0 0.48061 0 0.190135
0.288433 0.385557 0 0.198069
0.467897 0.116914 -3.46945e-18 0.217369
0.412065 0.251863 -2.31298e-18 0.210381
0.219992 0.43105 -3.46945e-18 0.192844
0.467897 0.12484 0 0.21728
0.151552 0.46022 0 0.191412
0.467897 0.133054 0 0.217177
0.467897 0.141566 0 0.21706
0.412065 0.264688 -2.31298e-18 0.210012
0.350249 0.344091 0 0.20278
0.467897 0.150387 3.46945e-18 0.216932
0.467897 0.154876 0 0.217606
0.467897 0.159528 0 0.216789
0.288433 0.403236 0 0.197316
0.075776 0.491175 0 0.189525
0.412065 0.27798 -2.31298e-18 0.209606
0.467897 0.169001 0 0.216629
0.467897 0.178818 3.46945e-18 0.21645
0.219992 0.450382 -3.46945e-18 0.191959
7.47806e-17 0.501741 0 0.188893
0.350249 0.360265 0 0.202155
0.151552 0.48061 3.70071e-18 0.19033
0.467897 0.188992 0 0.216251
0.412065 0.291753 0 0.209159
0.467897 0.199534 -3.46945e-18 0.216029
0.288433 0.421557 0 0.196506
0.467897 0.21046 0 0.215783
0.412065 0.306027 0 0.208672
0.350249 0.377026 -3.46945e-18 0.201476
0.467897 0.221782 -3.46945e-18 0.21551
0.075776 0.51269 3.46945e-18 0.188258
0.219992 0.470415 3.46945e-18 0.191014
0.412065 0.320819 -2.31298e-18 0.20814
0.467897 0.233515 3.46945e-18 0.215208
7.47806e-17 0.523639 0 0.187601
0.523729 0 0 0.223455
0.523729 0.00368111 0 0.223465
0.523729 0.00749587 0 0.22349
0.523729 0.0114491 0 0.223522
0.523729 0.0155459 0 0.223554
0.523729 0.0197915 3.08149e-33 0.22358
0.151552 0.501741 0 0.189193
0.523729 0.0241911 0 0.223603
0.523729 0.0287506 0 0.223627
0.523729 0.0334755 0 0.223655
0.523729 0.038372 -3.08149e-33 0.223686
0.523729 0.0434463 0 0.22372
0.523729 0.0487048 0 0.223756
0.523729 0.0541543 0 0.223796
0.288433 0.440544 0 0.195634
0.523729 0.0598016 0 0.223837
0.350249 0.394397 0 0.200742
0.523729 0.0656539 0 0.223879
0.467897 0.245675 0 0.214874
0.523729 0.0717187 0 0.223914
0.523729 0.0780037 0 0.223925
0.523729 0.0845169 0 0.223897
0.523729 0.0912666 0 0.223838
0.412065 0.336148 0 0.207562
0.523729 0.0982613 0 0.223762
0.523729 0.10551 -2.31298e-18 0.223677
0.467897 0.258275 0 0.214507
0.523729 0.113022 0 0.223581
0.523729 0.120806 -3.08149e-33 0.223472
0.219992 0.491176 3.46945e-18 0.190008
0.523729 0.12484 0 0.223411
0.523729 0.128874 -2.31298e-18 0.223349
0.075776 0.534986 3.46945e-18 0.186941
0.467897 0.271334 3.46945e-18 0.214102
0.350249 0.412396 3.46945e-18 0.199948
0.523729 0.137234 0 0.223211
0.412065 0.352034 -2.31298e-18 0.206933
0.288433 0.46022 0 0.194699
0.523729 0.145897 0 0.223059
0.151552 0.523639 0 0.187994
0.495813 0.227544 -1.54074e-33 0.218959
0.523729 0.154876 -3.08149e-33 0.222891
0 0.546332 0 0.186257
0.523729 0.159528 0 0.222798
0.467897 0.284867 0 0.213658
0.523729 0.16418 -2.31298e-18 0.222706
0.523729 0.173822 0 0.222501
0.412065 0.368496 0 0.206251
0.523729 0.183814 0 0.222276
0.467897 0.29889 3.46945e-18 0.213172
0.350249 0.431051 0 0.199093
0.219993 0.51269 3.46945e-18 0.188934
0.523729 0.194169 0 0.222028
0.288433 0.48061 0 0.193698
0.523729 0.2049 0 0.221755
0.467897 0.313423 0 0.21264
0.075776 0.55809 0 0.18557
0.412065 0.385557 0 0.205512
0.523729 0.21602 -3.08149e-33 0.221455
0.151552 0.546332 0 0.18673
0 0.569849 0 0.184856
0.350249 0.450382 3.46945e-18 0.198173
0.467897 0.328483 -3.46945e-18 0.212062
0.574156 0.00184055 0 0.229616
0.574156 0.00558849 0 0.229632
0.574156 0.00947248 3.46945e-18 0.229657
0.574156 0.0134975 -3.46945e-18 0.229684
0.574157 0.0176687 3.46945e-18 0.229701
0.574156 0.0219913 0 0.22971
0.574156 0.0264708 0 0.229716
0.574157 0.031113 3.46945e-18 0.229725
0.574156 0.0359237 3.46945e-18 0.229736
0.574157 0.0409092 3.46945e-18 0.229749
0.523729 0.239487 0 0.220767
0.574156 0.0460755 -3.46945e-18 0.229764
0.574156 0.0514296 0 0.229781
0.412065 0.403236 0 0.204714
0.574157 0.0569779 0 0.229802
0.574156 0.0627277 0 0.229826
0.574156 0.0686863 0 0.229848
0.219992 0.534985 0 0.187783
0.288433 0.501741 3.70071e-18 0.192628
0.574156 0.0748612 0 0.229853
0.574156 0.0812603 3.46945e-18 0.229815
0.467897 0.344091 0 0.211432
0.574156 0.0878917 0 0.229737
0.523729 0.251863 0 0.220374
0.574156 0.0947639 -3.46945e-18 0.22964
0.574156 0.101886 3.46945e-18 0.229533
0.574156 0.109266 -3.46945e-18 0.229417
0.574156 0.116914 3.46945e-18 0.229289
0.412065 0.416977 1.54074e-33 0.204069
0.350249 0.470415 0 0.197185
0.523729 0.264688 0 0.219945
0.075776 0.582034 0 0.184139
0.574156 0.12484 3.46945e-18 0.229147
0.574156 0.133054 0 0.228991
0.412065 0.421557 3.08149e-33 0.203854
0.151552 0.569849 0 0.185395
0.467897 0.360265 -3.46945e-18 0.21075
0.574156 0.141565 -3.46945e-18 0.228819
0.523729 0.27798 0 0.219478
0.574156 0.150386 0 0.228631
0 0.594219 0 0.183393
0.574157 0.159528 0 0.228424
0.574156 0.16418 0 0.228927
0.288433 0.523639 -9.25154e-19 0.191483
0.574156 0.169001 -3.46945e-18 0.228198
0.523729 0.291753 0 0.218969
0.219993 0.558091 3.46945e-18 0.186552
0.467897 0.377027 -3.46945e-18 0.210011
0.574156 0.178818 0 0.22795
0.412065 0.440544 -2.31298e-18 0.202928
0.350249 0.491175 3.46945e-18 0.196125
0.574156 0.188992 0 0.227679
0.523729 0.306027 2.31298e-18 0.218416
0.574156 0.199534 0 0.227383
0.574157 0.21046 -3.46945e-18 0.227061
0.075776 0.606847 0 0.182643
0.467897 0.394397 0 0.209213
0.151552 0.594219 0 0.183988
0.523729 0.320819 0 0.217817
0.574156 0.221782 -3.46945e-18 0.226709
0.412065 0.46022 -2.31298e-18 0.201933
0.288433 0.546332 0 0.190259
0 0.619475 0 0.181862
0.574156 0.233515 3.46945e-18 0.226327
0.350249 0.51269 0 0.19499
0.219992 0.582034 3.46945e-18 0.185238
0.523729 0.336148 0 0.217168
0.467897 0.412396 -3.46945e-18 0.208352
0.574156 0.245675 3.46945e-18 0.225913
0.624584 0 0 0.236991
0.624584 0.00368111 0 0.236999
0.624584 0.00749587 0 0.237018
0.624584 0.0114491 0 0.237044
0.624584 0.0155459 0 0.237065
0.624584 0.0197915 0 0.237073
0.624584 0.0241911 3.08149e-33 0.237071
0.624584 0.0287506 0 0.237067
0.624584 0.0334755 0 0.237064
0.624584 0.038372 0 0.237063
0.624584 0.0434463 0 0.237062
0.624584 0.0487048 0 0.237063
0.624584 0.0541543 0 0.237066
0.624584 0.0598016 0 0.237069
0.624584 0.0656539 0 0.23707
0.624584 0.0717187 0 0.237058
0.624584 0.0780037 0 0.237011
0.574157 0.258275 -3.46945e-18 0.225463
0.624584 0.0845169 0 0.236923
0.523729 0.352034 0 0.216467
0.624584 0.0912666 0 0.236809
0.624584 0.0982613 0 0.236682
0.412065 0.48061 -2.31298e-18 0.200867
0.624584 0.10551 0 0.236543
0.624584 0.113022 -2.31298e-18 0.236393
0.574156 0.271334 -3.46945e-18 0.224975
0.624584 0.120806 0 0.236227
0.467897 0.43105 3.46945e-18 0.207426
0.075776 0.632561 0 0.181078
0.624584 0.128874 0 0.236047
0.151552 0.619475 0 0.182503
0.288433 0.569849 0 0.188951
0.350249 0.534985 0 0.193776
0.624584 0.137234 -2.31298e-18 0.23585
0.523729 0.368496 0 0.215709
0.574156 0.284867 0 0.224448
0.624584 0.145897 0 0.235635
0.467897 0.440544 0 0.207492
0.624584 0.154876 0 0.235402
0.219992 0.606847 0 0.183839
0 0.645647 0 0.18026
0.624584 0.16418 -3.08149e-33 0.235148
0.574156 0.29889 3.46945e-18 0.223877
0.624584 0.173822 0 0.234872
0.412065 0.501741 -2.31298e-18 0.199725
0.467897 0.450382 -3.46945e-18 0.20643
0.523729 0.385557 -3.08149e-33 0.214893
0.624584 0.183814 0 0.234572
0.624584 0.194169 0 0.234248
0.574157 0.313423 -3.46945e-18 0.223261
0.624584 0.2049 0 0.233896
0.350249 0.558091 0 0.19248
0.288433 0.594219 0 0.187558
0.624584 0.21602 0 0.233515
0.523729 0.403236 -3.70071e-18 0.214014
0.574156 0.328483 -3.46945e-18 0.222597
0.151552 0.645647 0 0.180937
0.467897 0.470415 0 0.205362
0.075776 0.659208 0 0.179439
0.624584 0.227544 0 0.233103
0.412065 0.523639 -2.31298e-18 0.198503
0.523729 0.41545 -1.54074e-33 0.213384
0.624584 0.239487 3.70071e-18 0.232659
0.574156 0.344091 3.46945e-18 0.22188
0.219992 0.632561 0 0.182353
0.67013 0.00184055 -3.46945e-18 0.243915
0.67013 0.00558849 -3.46945e-18 0.243929
0.67013 0.00947248 3.46945e-18 0.243953
0.67013 0.0134975 -3.46945e-18 0.24398
0.67013 0.0176687 3.46945e-18 0.243994
0.67013 0.0219913 0 0.243989
0.67013 0.0264708 0 0.243972
0.67013 0.031113 0 0.243956
0.67013 0.0359237 0 0.243942
0.67013 0.0409092 3.46945e-18 0.243928
0.67013 0.0460755 3.46945e-18 0.243916
0.67013 0.0514296 0 0.243902
0.523729 0.421557 3.08149e-33 0.213069
0.67013 0.0569779 0 0.243888
0 0.67277 0 0.178581
0.67013 0.0627277 -3.46945e-18 0.243873
0.624584 0.251863 0 0.232179
0.67013 0.0686863 0 0.243852
0.67013 0.0748612 0 0.2438
0.67013 0.0812603 0 0.2437
0.67013 0.0878918 0 0.243567
0.67013 0.0947639 0 0.243422
0.574156 0.360265 3.46945e-18 0.221109
0.67013 0.101886 0 0.243266
0.523729 0.431051 0 0.212562
0.624584 0.264688 0 0.231661
0.467897 0.491175 3.46945e-18 0.204219
0.67013 0.109266 3.46945e-18 0.243096
0.350249 0.582034 0 0.191097
0.67013 0.116914 0 0.24291
0.67013 0.12484 0 0.242709
0.67013 0.133054 0 0.24249
0.288433 0.619475 0 0.186075
0.624584 0.27798 2.31298e-18 0.231104
0.412065 0.546332 -2.31298e-18 0.197197
0.523729 0.440544 -3.08149e-33 0.212055
0.67013 0.141566 0 0.242253
0.685312 0.0241911 -7.70372e-34 0.247013
0.685312 0.0434463 -7.70372e-34 0.246926
0.67013 0.150386 0 0.241996
0.574157 0.377027 -3.46945e-18 0.220279
0.67013 0.159528 -3.46945e-18 0.241718
0.624584 0.291753 0 0.230503
0.151552 0.67277 0 0.179286
0.075776 0.686823 0 0.17772
0.67013 0.169001 -3.46945e-18 0.241418
0.67013 0.178818 0 0.241094
0.467897 0.51269 0 0.202995
0.685312 0.113022 -7.70372e-34 0.245891
0.219992 0.659208 0 0.180776
0.624584 0.306027 0 0.229858
0.67013 0.188992 0 0.240745
0.574157 0.394397 0 0.219387
0.523729 0.46022 0 0.210968
0.685312 0.137234 -7.70372e-34 0.245217
0.67013 0.199535 0 0.240368
0.350249 0.606847 0 0.189623
0 0.700877 0 0.17682
0.624584 0.320819 0 0.229164
0.67013 0.21046 0 0.239961
0.412065 0.569849 -2.31298e-18 0.195804
0.67013 0.221782 0 0.239524
0.574156 0.412396 0 0.21843
0.288433 0.645647 0 0.184498
0.624584 0.336148 0 0.228418
0.67013 0.233516 -3.46945e-18 0.239054
0.467897 0.534986 0 0.201687
0.523729 0.48061 0 0.209804
0.624584 0.344091 0 0.228018
0.67013 0.245675 0 0.238548
0.715676 4.54095e-19 0 0.251938
0.715676 0.00368111 -9.25187e-19 0.251945
0.715676 0.00749587 -9.25187e-19 0.251963
0.715676 0.0114491 -9.25187e-19 0.251988
0.715676 0.0155459 -9.25187e-19 0.252007
0.715676 0.0197915 -9.25187e-19 0.252006
0.715676 0.0241911 -9.25187e-19 0.251984
0.715676 0.0287506 0 0.251954
0.715676 0.0334755 0 0.251923
0.715676 0.038372 -9.25187e-19 0.251891
0.624584 0.352034 3.08149e-33 0.227618
0.715676 0.0434463 -9.25187e-19 0.251858
0.151552 0.700877 0 0.177546
0.715676 0.0487048 0 0.251825
0.715676 0.0541543 0 0.251791
0.574156 0.43105 3.46945e-18 0.217403
0.715676 0.0598016 -9.25187e-19 0.251755
0.67013 0.258275 3.46945e-18 0.238005
0.715676 0.0656539 -9.25187e-19 0.251712
0.715676 0.0717187 -9.25187e-19 0.251646
0.075776 0.715441 0 0.175916
0.715676 0.0780037 0 0.251538
0.715676 0.0845169 0 0.251393
0.219992 0.686824 0 0.179103
0.715676 0.0912666 0 0.251226
0.715676 0.0982613 0 0.251046
0.67013 0.271334 3.46945e-18 0.237422
0.350249 0.632561 -3.46945e-18 0.188055
0.412065 0.594219 -2.31298e-18 0.194318
0.715676 0.10551 0 0.250851
0.715676 0.113022 0 0.25064
0.624584 0.368496 0 0.226759
0.523729 0.501741 3.70071e-18 0.208559
0.715676 0.120806 0 0.250412
0.715676 0.128874 0 0.250166
0.67013 0.284867 0 0.236797
0.467897 0.558091 3.46945e-18 0.200291
0.715676 0.137234 0 0.249901
0.574156 0.450382 3.46945e-18 0.216303
0 0.730005 0 0.174972
0.715676 0.145897 0 0.249615
0.288433 0.67277 0 0.182824
0.715676 0.154876 0 0.249307
0.67013 0.29889 -3.46945e-18 0.236126
0.624584 0.385557 0 0.225838
0.715676 0.16418 0 0.248976
0.715676 0.173822 0 0.24862
0.715676 0.183814 0 0.248239
0.67013 0.313423 -3.46945e-18 0.235407
0.523729 0.523639 3.70071e-18 0.207228
0.715676 0.194169 0 0.247829
0.574156 0.470415 0 0.215125
0.624584 0.403236 -3.70071e-18 0.224852
0.743101 0.0241911 -7.70372e-34 0.257334
0.412065 0.619475 -2.31298e-18 0.192736
0.715676 0.2049 0 0.24739
0.151552 0.730005 0 0.175711
0.67013 0.328483 0 0.234637
0.350249 0.659208 0 0.186388
0.467897 0.582034 0 0.198801
0.715676 0.21602 0 0.246919
0.219992 0.715441 0 0.177333
0.075776 0.745098 0 0.174023
0.715676 0.227544 0 0.246415
0.67013 0.344091 0 0.233813
0.624584 0.421557 0 0.223797
0.743101 0.128874 -7.70372e-34 0.255184
0.715676 0.239487 0 0.245875
0.574156 0.491175 3.46945e-18 0.213866
0.756814 0.00184056 -3.46945e-18 0.259508
0.523729 0.546332 0 0.205808
0.756813 0.00558849 -3.46945e-18 0.259521
0.756813 0.00947248 -3.46945e-18 0.259544
0.756813 0.0134975 -3.46945e-18 0.259571
0.756814 0.0155459 0 0.260048
0.756814 0.0176687 0 0.259579
0.756814 0.0219913 3.46945e-18 0.259557
0.756814 0.0264709 3.46945e-18 0.259517
0.756813 0.0311131 3.46945e-18 0.259471
0.756813 0.0359238 -3.46945e-18 0.259424
0.288433 0.700877 0 0.181049
0.756813 0.0409092 -3.46945e-18 0.259373
0.756813 0.0460755 0 0.259321
0.756813 0.0514296 0 0.259268
0.715676 0.251863 0 0.245297
0.756814 0.0569779 0 0.259214
0.756814 0.0627277 0 0.259157
0.756814 0.0686863 0 0.259083
0 0.76019 0 0.173032
0.756813 0.0748612 0 0.258969
0.67013 0.360265 -3.46945e-18 0.232931
0.756814 0.0812603 0 0.258808
0.756814 0.0878917 0 0.258622
0.756813 0.0947639 -3.46945e-18 0.258421
0.715676 0.264688 0 0.24468
0.756814 0.101886 -3.46945e-18 0.258206
0.624584 0.440544 0 0.222668
0.756814 0.109266 0 0.257973
0.756814 0.116914 0 0.257722
0.412065 0.645647 0 0.191053
0.467897 0.606847 -3.46945e-18 0.197214
0.756814 0.120806 0 0.257978
0.756813 0.12484 3.46945e-18 0.257452
0.715676 0.27798 -9.25187e-19 0.24402
0.756813 0.133054 -3.46945e-18 0.257162
0.67013 0.377027 0 0.231987
0.756814 0.137234 0 0.257386
0.574157 0.51269 3.46945e-18 0.212521
0.756813 0.141566 3.46945e-18 0.256851
0.685312 0.352034 -7.70372e-34 0.235861
0.743101 0.2049 -7.70372e-34 0.252164
0.350249 0.686824 0 0.184617
0.756813 0.150386 -3.46945e-18 0.256517
0.756814 0.154876 0 0.256706
0.715676 0.291753 3.70074e-18 0.243315
0.756814 0.159528 3.46945e-18 0.256159
0.523729 0.569849 0 0.204293
0.72743 0.264688 0 0.246651
0.756814 0.16418 0 0.25633
0.151552 0.76019 3.70071e-18 0.173779
0.756813 0.169001 -3.46945e-18 0.255776
0.624584 0.46022 0 0.221461
0.219993 0.745098 0 0.17546
0.67013 0.394396 -3.46945e-18 0.230978
0.756813 0.178818 -3.46945e-18 0.255367
0.715676 0.306027 -9.25187e-19 0.242561
0.075776 0.775831 0 0.172036
0.756814 0.188992 0 0.254929
0.756814 0.199535 0 0.25446
0.715676 0.320819 0 0.241757
0.574156 0.534986 3.46945e-18 0.211085
0.288433 0.730005 0 0.179169
0.756814 0.21046 3.46945e-18 0.25396
0.467897 0.632561 0 0.195524
0.67013 0.412396 -3.46945e-18 0.229901
0.624584 0.48061 -3.08149e-33 0.220172
0.756814 0.221782 0 0.253427
0.412065 0.67277 -2.31298e-18 0.189264
0.715676 0.336148 0 0.240899
0 0.791472 0 0.170995
0.756813 0.233515 3.46945e-18 0.252857
0.523729 0.594219 0 0.202678
0.624584 0.487654 1.54074e-33 0.219714
0.756814 0.245675 0 0.25225
0.350249 0.715441 3.46945e-18 0.182739
0.67013 0.43105 3.46945e-18 0.22875
0.715676 0.352034 -9.25187e-19 0.239983
0.797951 9.08189e-19 0 0.268023
0.797951 0.00368111 2.31298e-18 0.26803
0.797951 0.00749587 2.31298e-18 0.268048
0.797951 0.0114491 2.31298e-18 0.268074
0.797951 0.0141803 7.70372e-34 0.268084
0.797951 0.0155459 0 0.26809
0.797951 0.0169611 7.70372e-34 0.268085
0.797951 0.0197915 -3.08149e-33 0.268077
0.797951 0.0219913 0 0.268055
0.797951 0.0241911 3.08149e-33 0.268034
0.797951 0.0264709 0 0.268004
0.797951 0.0287506 -3.08149e-33 0.267974
0.797951 0.0334755 2.31298e-18 0.267905
0.797951 0.038372 2.31298e-18 0.267832
0.797951 0.0434463 2.31298e-18 0.267756
0.797951 0.0487048 2.31298e-18 0.267675
0.756814 0.258275 -3.46945e-18 0.251602
0.797951 0.0541543 2.31298e-18 0.267593
0.797951 0.0598016 2.31298e-18 0.267506
0.797951 0.0656539 2.31298e-18 0.267406
0.574156 0.55809 3.46945e-18 0.209553
0.624584 0.501741 3.70071e-18 0.218797
0.797951 0.0717187 2.31298e-18 0.267272
0.797951 0.0780037 2.31298e-18 0.267094
0.797951 0.0845169 0 0.266881
0.797951 0.0912666 0 0.266649
0.797951 0.0982613 -3.08149e-33 0.266401
0.756814 0.271334 3.46945e-18 0.250912
0.797951 0.10551 0 0.266135
0.715676 0.368496 -9.25187e-19 0.239007
0.151552 0.791472 3.70071e-18 0.171743
0.797951 0.113022 0 0.26585
0.219992 0.775831 3.46945e-18 0.173481
0.797951 0.118211 7.70372e-34 0.265646
0.770526 0.239487 -3.08149e-33 0.255216
0.797951 0.120806 0 0.265545
0.67013 0.450382 -3.46945e-18 0.227521
0.797951 0.128874 3.08149e-33 0.265219
0.467897 0.659208 0 0.193727
0.756814 0.284867 -3.46945e-18 0.250177
0.743101 0.320819 -7.70372e-34 0.246203
0.797951 0.137234 0 0.264871
0.797951 0.141566 0 0.264685
0.797951 0.145897 0 0.2645
0.523729 0.619475 0 0.200959
0.075776 0.807681 -3.46945e-18 0.169948
0.797951 0.150387 0 0.264302
0.797951 0.154876 9.25187e-19 0.264104
0.715676 0.385557 0 0.237965
0.412065 0.700877 -2.31298e-18 0.187365
0.288433 0.76019 0 0.177179
0.756814 0.29889 0 0.249395
0.797951 0.16418 0 0.263683
0.624584 0.523639 3.70071e-18 0.217329
0.797951 0.167394 7.70372e-34 0.263534
0.797951 0.173822 0 0.263235
0.574156 0.582034 0 0.207921
0.67013 0.470415 0 0.22621
0.797951 0.183814 -3.08149e-33 0.262758
0.756814 0.313423 0 0.248561
0.797951 0.194169 0 0.262251
0.715676 0.403236 3.70074e-18 0.236855
0.151552 0.807681 0 0.170672
0.797951 0.197746 -7.70372e-34 0.262072
0.350249 0.745097 0 0.180748
0.797951 0.2049 3.08149e-33 0.261713
0 0.823889 0 0.168855
0.756813 0.328483 3.46945e-18 0.247675
0.797951 0.21046 0 0.261426
0.797951 0.21602 -3.08149e-33 0.26114
0.797951 0.223703 7.70372e-34 0.260735
0.797951 0.227544 0 0.260532
0.624584 0.546332 0 0.215765
0.715676 0.421557 -9.25187e-19 0.235672
0.67013 0.491175 3.46945e-18 0.224811
0.797951 0.231525 7.70372e-34 0.260317
0.467897 0.686823 0 0.191817
0.523729 0.645647 0 0.199129
0.756813 0.344091 0 0.246731
0.822721 0.120806 7.70372e-34 0.270768
0.797951 0.239487 -3.08149e-33 0.259887
0.822721 0.137234 7.70372e-34 0.270034
0.835106 0.00184055 0 0.276099
0.835106 0.00558849 0 0.276113
0.835106 0.00947248 -3.46945e-18 0.276138
0.835106 0.0134975 -3.46945e-18 0.276165
0.835106 0.0176687 -3.46945e-18 0.276166
0.835106 0.0219913 0 0.276127
0.574156 0.606847 0 0.206182
0.835106 0.0241911 0 0.276391
0.835106 0.0264709 0 0.276059
0.822721 0.145897 -7.70372e-34 0.269631
0.835106 0.0311131 -3.46945e-18 0.275974
0.835106 0.0359238 -3.46945e-18 0.275881
0.835106 0.0409091 -3.46945e-18 0.275783
0.835106 0.0460755 0 0.275678
0.835106 0.0514296 -3.46945e-18 0.27557
0.797951 0.251863 2.31298e-18 0.259202
0.835106 0.0541543 0 0.275804
0.835106 0.0569779 3.46945e-18 0.275458
0.219992 0.807681 0 0.171393
0.822721 0.154876 7.70372e-34 0.269204
0.835106 0.0627277 0 0.275338
0.151552 0.823889 0 0.1696
0.797951 0.255069 -1.54074e-33 0.25902
0.835106 0.0686863 0 0.275192
0.756814 0.360265 0 0.245726
0.412065 0.730005 0 0.18535
0.835106 0.0748612 -3.46945e-18 0.274996
0.822721 0.16418 7.70372e-34 0.26875
0.835106 0.0812603 -3.46945e-18 0.274758
0.835106 0.0878917 0 0.274498
0.715676 0.440544 0 0.234411
0.835106 0.094764 0 0.274221
0.797951 0.264688 0 0.258475
0.835106 0.101886 0 0.273925
0.835106 0.109266 0 0.273609
0.288433 0.791472 0 0.175076
0.835106 0.116914 0 0.273272
0.67013 0.51269 3.46945e-18 0.223321
0.797951 0.274657 6.16298e-33 0.257896
0.075776 0.840686 -3.46945e-18 0.167756
0.835106 0.12484 3.46945e-18 0.272914
0.797951 0.27798 -3.08149e-33 0.257703
0.624584 0.569849 0 0.214098
0.756813 0.377026 0 0.244658
0.835106 0.133054 -3.46945e-18 0.272533
0.835106 0.141565 0 0.272129
0.835107 0.150387 0 0.2717
0.797951 0.291753 2.31298e-18 0.256885
0.835106 0.159528 -3.46945e-18 0.271244
0.715676 0.46022 -9.25187e-19 0.233067
0.816529 0.239487 -1.54074e-33 0.2635