# pMean  POINT_DATA 63140
# x  y  z  pMean
0 0.1 0 0.215956
0 0.1 -0.0179898 0.216085
0 0.1 0.0179898 0.21583
0.0363518 0.1 -0.0179898 0.216085
0.0363518 0.1 0.0179898 0.21583
0 0.1 -0.0570102 0.216212
0 0.1 0.0570102 0.215414
0.0363518 0.1 0.0570102 0.215414
0.0363518 0.1 -0.0570102 0.216212
0 0.1 0.075 0.215156
0 0.1 -0.075 0.2162
0.075776 0.1 -0.0375 0.216227
0.075776 0.1 0.0375 0.215696
0 0.1 0.0929898 0.214902
0 0.1 -0.0929898 0.216192
0.0363518 0.1 0.0929898 0.214902
0.0363518 0.1 -0.0929898 0.216192
0 0.1 0.13201 0.214202
0 0.1 -0.13201 0.216008
0.075776 0.1 0.1125 0.214627
0.075776 0.1 -0.1125 0.216185
0.0363518 0.1 0.13201 0.214202
0.0363518 0.1 -0.13201 0.216008
0 0.1 0.15 0.213812
0 0.1 -0.15 0.215848
0.150379 0.1 -8.67362e-19 0.208393
0.150379 0.1 0.0710023 0.207836
0 0.1 0.16799 0.213426
0 0.1 -0.16799 0.215692
0.150379 0.1 -0.075 0.208568
0.0363518 0.1 0.16799 0.213426
0.0363518 0.1 -0.16799 0.215692
0.075776 0.1 0.1875 0.213008
0.075776 0.1 -0.1875 0.215523
0 0.1 0.20701 0.21243
0 0.1 -0.20701 0.215179
0.0363518 0.1 0.20701 0.21243
0.0363518 0.1 -0.20701 0.215179
0.150379 0.1 -0.15 0.208055
0.150379 0.1 0.15 0.206092
0.219992 0.1 -0.0375 0.201408
0.219992 0.1 0.0375 0.20094
0 0.1 0.225 0.211901
0 0.1 -0.225 0.214866
0 0.1 0.24299 0.211375
0 0.1 -0.24299 0.214556
0.0363518 0.1 0.24299 0.211375
0.0363518 0.1 -0.24299 0.214556
0.219992 0.1 0.1125 0.199696
0.219993 0.1 -0.1125 0.201158
0.150379 0.1 -0.225 0.206849
0.150379 0.1 0.225 0.203969
0.075776 0.1 -0.2625 0.21422
0.075776 0.1 0.2625 0.210804
0 0.1 -0.28201 0.213715
0 0.1 0.28201 0.210074
0.0363518 0.1 -0.28201 0.213715
0.0363518 0.1 0.28201 0.210074
0.287374 0.1 0 0.204414
0.219992 0.1 -0.1875 0.200077
0.219993 0.1 0.1875 0.19775
0.287374 0.1 0.0710023 0.203581
0.287374 0.1 -0.075 0.204565
0 0.1 0.3 0.209404
0 0.1 -0.3 0.213253
0 0.1 0.31799 0.208737
0 0.1 -0.31799 0.212793
0.0363518 0.1 0.31799 0.208737
0.0363518 0.1 -0.31799 0.212793
0.287374 0.1 0.15 0.20191
0.287374 0.1 -0.15 0.203959
0.150379 0.1 -0.3 0.205011
0.150379 0.1 0.3 0.201209
0.219993 0.1 -0.2625 0.198319
0.219993 0.1 0.2625 0.195047
0.075776 0.1 0.3375 0.208013
0.075776 0.1 -0.3375 0.212296
0.350249 0.1 0.0375 0.207231
0.350249 0.1 -0.0375 0.207795
0 0.1 -0.35701 0.21164
0 0.1 0.35701 0.207139
0.0363518 0.1 0.35701 0.207139
0.0363518 0.1 -0.35701 0.21164
0.287374 0.1 0.225 0.199577
0.287374 0.1 -0.225 0.202607
0.350249 0.1 0.1125 0.205955
0.350249 0.1 -0.1125 0.207615
0 0.1 0.375 0.206337
0 0.1 -0.375 0.211039
0 0.1 -0.39299 0.210439
0 0.1 0.39299 0.205535
0.0363518 0.1 -0.39299 0.210439
0.0363518 0.1 0.39299 0.205535
0.350249 0.1 -0.1875 0.206697
0.350249 0.1 0.1875 0.203961
0.219992 0.1 0.3375 0.19173
0.219993 0.1 -0.3375 0.19597
0.150379 0.1 0.375 0.197887
0.150379 0.1 -0.375 0.202579
0.411108 0.1 0 0.21262
0.287374 0.1 0.3 0.196568
0.287374 0.1 -0.3 0.200574
0.411108 0.1 0.0710023 0.21167
0.411108 0.1 -0.075 0.212783
0.075776 0.1 0.4125 0.204668
0.075776 0.1 -0.4125 0.20979
0 0.1 0.43201 0.203664
0 0.1 -0.43201 0.20899
0.0363518 0.1 0.43201 0.203664
0.0363518 0.1 -0.43201 0.20899
0.411108 0.1 -0.15 0.212125
0.411108 0.1 0.15 0.209855
0.350249 0.1 -0.2625 0.205037
0.350249 0.1 0.2625 0.201274
0 0.1 0.45 0.202741
0 0.1 -0.45 0.208255
0.219992 0.1 -0.4125 0.193042
0.219992 0.1 0.4125 0.187917
0 0.1 0.46799 0.201819
0 0.1 -0.46799 0.207521
0.411108 0.1 0.225 0.207293
0.411108 0.1 -0.225 0.210658
0.467897 0.1 -0.0375 0.217811
0.467897 0.1 0.0375 0.217224
0.0363518 0.1 0.46799 0.201819
0.0363518 0.1 -0.46799 0.207521
0.287374 0.1 0.375 0.192968
0.287374 0.1 -0.375 0.197906
0.150379 0.1 0.45 0.194068
0.150379 0.1 -0.45 0.199604
0.467897 0.1 0.1125 0.215735
0.467897 0.1 -0.1125 0.217496
0.350249 0.1 0.3375 0.197948
0.350249 0.1 -0.3375 0.202673
0.075776 0.1 -0.4875 0.206728
0.075776 0.1 0.4875 0.200822
0.467897 0.1 0.1875 0.213367
0.467897 0.1 -0.1875 0.216284
0 0.1 0.50701 0.199698
0 0.1 -0.50701 0.205795
0.0363518 0.1 -0.50701 0.205795
0.0363518 0.1 0.50701 0.199698
0.411108 0.1 0.3 0.204004
0.411108 0.1 -0.3 0.208415
0.522865 0.1 -9.1073e-18 0.223657
0 0.1 0.525 0.198666
0 0.1 -0.525 0.20494
0.522865 0.1 0.0710023 0.222578
0.522865 0.1 -0.075 0.223793
0.287374 0.1 0.45 0.188834
0.287374 0.1 -0.45 0.194656
0.219992 0.1 -0.4875 0.189655
0.219992 0.1 0.4875 0.183666
0.467897 0.1 0.2625 0.210186
0.467897 0.1 -0.2625 0.21422
0.350249 0.1 -0.4125 0.199642
0.350249 0.1 0.4125 0.194004
0 0.1 0.54299 0.197635
0 0.1 -0.54299 0.204085
0.522865 0.1 -0.15 0.222959
0.522865 0.1 0.15 0.220487
0.0363518 0.1 0.54299 0.197635
0.0363518 0.1 -0.54299 0.204085
0.150379 0.1 -0.525 0.196146
0.150379 0.1 0.525 0.189821
0.411108 0.1 0.375 0.20004
0.411108 0.1 -0.375 0.205438
0.075776 0.1 0.5625 0.196519
0.075776 0.1 -0.5625 0.203159
0.522865 0.1 0.225 0.217511
0.522865 0.1 -0.225 0.22118
0.574156 0.1 0.0375 0.229233
0.574157 0.1 -0.0375 0.22989
0.467897 0.1 -0.3375 0.211354
0.467897 0.1 0.3375 0.206251
0 0.1 0.58201 0.195293
0 0.1 -0.58201 0.202111
0.0363518 0.1 0.58201 0.195293
0.0363518 0.1 -0.58201 0.202111
0.574156 0.1 0.1125 0.227541
0.574156 0.1 -0.1125 0.229503
0.287374 0.1 0.525 0.184245
0.287374 0.1 -0.525 0.190897
0 0.1 0.6 0.194167
0 0.1 -0.6 0.201147
0.350249 0.1 0.4875 0.189486
0.350249 0.1 -0.4875 0.195999
0.522865 0.1 -0.3 0.218499
0.522865 0.1 0.3 0.213688
0.219992 0.1 0.5625 0.179094
0.219992 0.1 -0.5625 0.185853
0.574156 0.1 0.1875 0.224849
0.574157 0.1 -0.1875 0.228087
0.411108 0.1 0.45 0.195452
0.411108 0.1 -0.45 0.201782
0 0.1 0.61799 0.193041
0 0.1 -0.61799 0.200185
0.150379 0.1 0.6 0.185201
0.150379 0.1 -0.6 0.192247
0.0363518 0.1 -0.61799 0.200185
0.0363518 0.1 0.61799 0.193041
0.623413 0.1 0 0.236559
0.467897 0.1 0.4125 0.201623
0.467897 0.1 -0.4125 0.207733
0.623803 0.1 0.0710023 0.235333
0.623803 0.1 -0.075 0.236693
0.574156 0.1 0.2625 0.221202
0.574157 0.1 -0.2625 0.225673
0.623803 0.1 -0.15 0.235702
0.623803 0.1 0.15 0.232942
0.075776 0.1 0.6375 0.191823
0.075776 0.1 -0.6375 0.199143
0.522865 0.1 -0.375 0.214975
0.522865 0.1 0.375 0.209091
0 0.1 0.65701 0.19051
0 0.1 -0.65701 0.197994
0.0363518 0.1 0.65701 0.19051
0.0363518 0.1 -0.65701 0.197994
0.350249 0.1 0.5625 0.184483
0.350249 0.1 -0.5625 0.19181
0.623803 0.1 0.225 0.229528
0.623803 0.1 -0.225 0.233609
0.287374 0.1 0.6 0.179272
0.287374 0.1 -0.6 0.18668
0.574156 0.1 0.3375 0.216694
0.574157 0.1 -0.3375 0.222311
0.411108 0.1 0.525 0.190319
0.411108 0.1 -0.525 0.197515
0.67013 0.1 0.0375 0.242938
0.67013 0.1 -0.0375 0.243677
0.219993 0.1 0.6375 0.174196
0.219993 0.1 -0.6375 0.181653
0 0.1 0.675 0.189304
0 0.1 -0.675 0.196938
0.467897 0.1 0.4875 0.196391
0.467897 0.1 -0.4875 0.20343
0.67013 0.1 0.1125 0.240998
0.67013 0.1 -0.1125 0.243202
0.522865 0.1 -0.45 0.210681
0.522865 0.1 0.45 0.2038
0.150379 0.1 0.675 0.180245
0.150379 0.1 -0.675 0.187952
0.623803 0.1 0.3 0.225136
0.623803 0.1 -0.3 0.230464
0 0.1 -0.69299 0.195883
0 0.1 0.69299 0.188098
0.0363518 0.1 0.69299 0.188098
0.0363518 0.1 -0.69299 0.195883
0.67013 0.1 0.1875 0.2379
0.67013 0.1 -0.1875 0.241522
0.574156 0.1 0.4125 0.2114
0.574157 0.1 -0.4125 0.218084
0.714619 0.1 4.77049e-18 0.25091
0.075776 0.1 0.7125 0.186793
0.075776 0.1 -0.7125 0.19474
0.714971 0.1 0.0710023 0.24952
0.714971 0.1 -0.075 0.251037
0.67013 0.1 0.2625 0.2337
0.67013 0.1 -0.2625 0.238675
0.411108 0.1 0.6 0.184728
0.411108 0.1 -0.6 0.192713
0.350249 0.1 0.6375 0.179085
0.350249 0.1 -0.6375 0.18715
0.623803 0.1 0.375 0.219857
0.623803 0.1 -0.375 0.226346
0.714971 0.1 0.15 0.246762
0.714971 0.1 -0.15 0.249854
0.467897 0.1 0.5625 0.190641
0.467897 0.1 -0.5625 0.198524
0 0.1 0.73201 0.185411
0 0.1 -0.73201 0.193506
0.0363518 0.1 0.73201 0.185411
0.0363518 0.1 -0.73201 0.193506
0.287374 0.1 0.675 0.173965
0.287374 0.1 -0.675 0.182057
0.522865 0.1 0.525 0.197912
0.522865 0.1 -0.525 0.205703
0.219992 0.1 0.7125 0.169004
0.219992 0.1 -0.7125 0.177101
0.714971 0.1 -0.225 0.247389
0.714971 0.1 0.225 0.242831
0 0.1 0.75 0.18414
0 0.1 -0.75 0.192371
0.67013 0.1 -0.3375 0.234738
0.67013 0.1 0.3375 0.228507
0.574157 0.1 0.4875 0.205418
0.574157 0.1 -0.4875 0.213085
0.756813 0.1 0.0375 0.257848
0.756814 0.1 -0.0375 0.258678
0.150379 0.1 -0.75 0.183317
0.150379 0.1 0.75 0.175005
0.756813 0.1 0.1125 0.25562
0.756814 0.1 -0.1125 0.258095
0 0.1 0.76799 0.182869
0 0.1 -0.76799 0.191237
0.0363518 0.1 0.76799 0.182869
0.0363518 0.1 -0.76799 0.191237
0.623803 0.1 0.45 0.213791
0.623803 0.1 -0.45 0.221347
0.714971 0.1 0.3 0.23777
0.714971 0.1 -0.3 0.243706
0.756813 0.1 0.1875 0.25205
0.756813 0.1 -0.1875 0.256106
0.67013 0.1 -0.4125 0.229812
0.67013 0.1 0.4125 0.222415
0.411108 0.1 0.675 0.178764
0.411108 0.1 -0.675 0.187457
0.467897 0.1 0.6375 0.18446
0.467897 0.1 -0.6375 0.193101
0.075776 0.1 -0.7875 0.190009
0.075776 0.1 0.7875 0.181494
0.350249 0.1 -0.7125 0.182091
0.350249 0.1 0.7125 0.173368
0.791054 0.1 0.0690034 0.26273
0.522865 0.1 0.6 0.191527
0.522865 0.1 -0.6 0.200134
0.797314 0.1 -3.03577e-18 0.266017
0.797314 0.1 -0.075 0.266381
0.756814 0.1 0.2625 0.247215
0.756814 0.1 -0.2625 0.252776
0.287374 0.1 -0.75 0.177092
0.287374 0.1 0.75 0.168385
0.574156 0.1 0.5625 0.198861
0.574156 0.1 -0.5625 0.20741
0 0.1 0.80701 0.180056
0 0.1 -0.80701 0.188705
0.714971 0.1 -0.375 0.238896
0.714971 0.1 0.375 0.231695
0.0363518 0.1 0.80701 0.180056
0.0363518 0.1 -0.80701 0.188705
0.797314 0.1 0.15 0.261503
0.797314 0.1 -0.15 0.264993
0.623803 0.1 0.525 0.207055
0.623803 0.1 -0.525 0.215573
0.219992 0.1 -0.7875 0.172253
0.219992 0.1 0.7875 0.163569
0 0.1 0.825 0.178735
0 0.1 -0.825 0.187506
0.797314 0.1 0.225 0.256995
0.797314 0.1 -0.225 0.262122
0.756813 0.1 -0.3375 0.248175
0.756814 0.1 0.3375 0.241223
0.67013 0.1 0.4875 0.215547
0.67013 0.1 -0.4875 0.223997
0.835106 0.1 0.0375 0.273532
0.835106 0.1 -0.0375 0.274474
0.150379 0.1 -0.825 0.178399
0.150379 0.1 0.825 0.169538
0.835106 0.1 0.1125 0.270982
0.835106 0.1 -0.1125 0.273802
0 0.1 -0.84299 0.186307
0 0.1 0.84299 0.177413
0.0363518 0.1 -0.84299 0.186307
0.0363518 0.1 0.84299 0.177413
0.714971 0.1 -0.45 0.233076
0.714971 0.1 0.45 0.224732
0.797314 0.1 0.3 0.251192
0.797314 0.1 -0.3 0.257844
0.467897 0.1 0.7125 0.177934
0.467897 0.1 -0.7125 0.187252
0.522865 0.1 0.675 0.184742
0.522865 0.1 -0.675 0.194074
0.411108 0.1 -0.75 0.18183
0.411108 0.1 0.75 0.172513
0.835106 0.1 -0.1875 0.271498
0.835107 0.1 0.1875 0.266901
0.574156 0.1 0.6375 0.191841
0.574156 0.1 -0.6375 0.20117
0.350249 0.1 -0.7875 0.176714
0.350249 0.1 0.7875 0.167414
0.756814 0.1 0.4125 0.234228
0.756814 0.1 -0.4125 0.242425
0.623803 0.1 0.6 0.199775
0.623803 0.1 -0.6 0.209142
0.075776 0.1 0.8625 0.175982
0.075776 0.1 -0.8625 0.185009
0.871687 0.1 -0.00399773 0.282083
0.287374 0.1 -0.825 0.171851
0.287374 0.1 0.825 0.162595
0.871687 0.1 0.075 0.280296
0.871687 0.1 -0.075 0.282294
0.67013 0.1 0.5625 0.208044
0.67013 0.1 -0.5625 0.217421
0.835106 0.1 0.2625 0.261376
0.835106 0.1 -0.2625 0.267649
0.797314 0.1 0.375 0.244236
0.797314 0.1 -0.375 0.25227
0 0.1 -0.88201 0.183651
0 0.1 0.88201 0.174506
0.0363518 0.1 0.88201 0.174506
0.0363518 0.1 -0.88201 0.183651
0.871687 0.1 0.15 0.276748
0.871687 0.1 -0.15 0.280686
0.714971 0.1 0.525 0.217017
0.714971 0.1 -0.525 0.226377
0.219992 0.1 0.8625 0.157954
0.219993 0.1 -0.8625 0.167163
0 0.1 0.9 0.173149
0 0.1 -0.9 0.182402
0.756813 0.1 0.4875 0.226361
0.756814 0.1 -0.4875 0.235666
0.871687 0.1 0.225 0.271607
0.871687 0.1 -0.225 0.277369
0.835106 0.1 0.3375 0.254539
0.835106 0.1 -0.3375 0.262338
0.90582 0.1 -0.0375 0.290622
0.905821 0.1 0.0375 0.289568
0.150379 0.1 0.9 0.163908
0.150379 0.1 -0.9 0.173255
0.90582 0.1 0.1125 0.28667
0.90582 0.1 -0.1125 0.289839
0.522865 0.1 -0.75 0.187623
0.522865 0.1 0.75 0.177658
0.574156 0.1 0.7125 0.184462
0.574156 0.1 -0.7125 0.194474
0.797314 0.1 0.45 0.236284
0.797314 0.1 -0.45 0.245544
0.467897 0.1 -0.7875 0.181065
0.467897 0.1 0.7875 0.17116
0 0.1 0.91799 0.171791
0 0.1 -0.91799 0.181153
0.0363518 0.1 0.91799 0.171791
0.0363518 0.1 -0.91799 0.181153
0.623803 0.1 0.675 0.192073
0.623803 0.1 -0.675 0.202178
0.411108 0.1 -0.825 0.175915
0.411108 0.1 0.825 0.166054
0.871687 0.1 0.3 0.264994
0.871687 0.1 -0.3 0.272439
0.67013 0.1 0.6375 0.20004
0.67013 0.1 -0.6375 0.21022
0.90582 0.1 0.1875 0.28202
0.905821 0.1 -0.1875 0.287173
0.350249 0.1 0.8625 0.161284
0.350249 0.1 -0.8625 0.171088
0.835106 0.1 0.4125 0.246567
0.835106 0.1 -0.4125 0.255724
0.714971 0.1 0.6 0.208706
0.714971 0.1 -0.6 0.218946
0.93886 0.1 -0.00399773 0.298096
0.075776 0.1 0.9375 0.170322
0.075776 0.1 -0.9375 0.179802
0.93886 0.1 0.075 0.296045
0.93886 0.1 -0.075 0.298325
0.756813 0.1 0.5625 0.217775
0.756814 0.1 -0.5625 0.228053
0.90582 0.1 0.2625 0.275729
0.905821 0.1 -0.2625 0.282739
0.287374 0.1 0.9 0.156659
0.287374 0.1 -0.9 0.166396
0.871687 0.1 0.375 0.257074
0.871687 0.1 -0.375 0.266028
0.93886 0.1 0.15 0.292031
0.93886 0.1 -0.15 0.296521
0.797314 0.1 0.525 0.227495
0.797314 0.1 -0.525 0.237828
0 0.1 0.95701 0.168823
0 0.1 -0.95701 0.178405
0.0363518 0.1 0.95701 0.168823
0.0363518 0.1 -0.95701 0.178405
0.219992 0.1 0.9375 0.152223
0.219992 0.1 -0.9375 0.161887
0.93886 0.1 0.225 0.28623
0.93886 0.1 -0.225 0.292771
0.90582 0.1 0.3375 0.267954
0.905821 0.1 -0.3375 0.276631
0.835107 0.1 0.4875 0.237624
0.835107 0.1 -0.4875 0.247972
0.969689 0.1 0.0375 0.305421
0.969689 0.1 -0.0375 0.30663
0.574156 0.1 0.7875 0.176837
0.574156 0.1 -0.7875 0.187436
0 0.1 0.975 0.167443
0 0.1 -0.975 0.177121
0.623803 0.1 0.75 0.184069
0.623803 0.1 -0.75 0.194807
0.96969 0.1 0.1125 0.302142
0.96969 0.1 -0.1125 0.305822
0.522865 0.1 -0.825 0.180882
0.522865 0.1 0.825 0.170371
0.67013 0.1 0.7125 0.191669
0.67013 0.1 -0.7125 0.202536
0.871687 0.1 0.45 0.248037
0.871687 0.1 -0.45 0.258308
0.467897 0.1 0.8625 0.164216
0.467897 0.1 -0.8625 0.174629
0.714971 0.1 -0.675 0.210938
0.714971 0.1 0.675 0.19995
0.93886 0.1 0.3 0.278785
0.93886 0.1 -0.3 0.287193
0.150379 0.1 0.975 0.158171
0.150379 0.1 -0.975 0.167942
0.969689 0.1 -0.1875 0.302867
0.969689 0.1 0.1875 0.296925
0.411108 0.1 0.9 0.159458
0.411108 0.1 -0.9 0.16979
0.756813 0.1 0.6375 0.208659
0.756813 0.1 -0.6375 0.219753
0.990306 0.1 3.46945e-18 0.310442
0 0.1 0.99299 0.166064
0 0.1 -0.99299 0.175836
0.990306 0.1 0.075 0.308207
0.990306 0.1 -0.075 0.310742
0.0363518 0.1 0.99299 0.166064
0.0363518 0.1 -0.99299 0.175836
0.905821 0.1 0.4125 0.258887
0.905821 0.1 -0.4125 0.269042
0.797314 0.1 0.6 0.218061
0.797314 0.1 -0.6 0.2293
0.350249 0.1 0.9375 0.155038
0.350249 0.1 -0.9375 0.165284
0.990306 0.1 0.15 0.303785
0.990306 0.1 -0.15 0.308776
0.969689 0.1 -0.2625 0.297933
0.969689 0.1 0.2625 0.289895
0.835106 0.1 0.5625 0.227899
0.835106 0.1 -0.5625 0.239266
0.93886 0.1 0.375 0.269882
0.93886 0.1 -0.375 0.279943
0.075776 0.1 1.0125 0.164571
0.075776 0.1 -1.0125 0.174447
0.990306 0.1 0.225 0.297412
0.990306 0.1 -0.225 0.304654
0.287374 0.1 0.975 0.150633
0.287374 0.1 -0.975 0.160788
0.871687 0.1 0.525 0.238081
0.871687 0.1 -0.525 0.249472
1.02149 0.1 -0.0369628 0.318897
1.02149 0.1 0.0369628 0.319113
0.969689 0.1 -0.3375 0.291112
0.96969 0.1 0.3375 0.281232
1.02149 0.1 0.110888 0.315507
1.02149 0.1 -0.110888 0.31956
0.90582 0.1 0.4875 0.24875
0.905821 0.1 -0.4875 0.260148
0 0.1 1.03201 0.163061
0 0.1 -1.03201 0.173025
0.0363518 0.1 1.03201 0.163061
0.0363518 0.1 -1.03201 0.173025
0.67013 0.1 0.7875 0.183065
0.67013 0.1 -0.7875 0.194506
0.623803 0.1 -0.825 0.187152
0.623803 0.1 0.825 0.17588
0.990306 0.1 0.3 0.289246
0.990306 0.1 -0.3 0.298524
0.219992 0.1 -1.0125 0.156479
0.219992 0.1 1.0125 0.146422
0.574156 0.1 -0.8625 0.180167
0.574157 0.1 0.8625 0.169064
0.714971 0.1 0.75 0.190895
0.714971 0.1 -0.75 0.202511
1.02149 0.1 0.184814 0.309782
1.02149 0.1 -0.184814 0.316291
0.756814 0.1 0.7125 0.199163
0.756813 0.1 -0.7125 0.210945
0.522865 0.1 0.9 0.162972
0.522865 0.1 -0.9 0.173948
0.93886 0.1 0.45 0.259744
0.93886 0.1 -0.45 0.271221
1.04168 0.1 0 0.32553
1.04168 0.1 0.0729162 0.323022
1.04168 0.1 -0.0729162 0.325809
0.797314 0.1 0.675 0.208167
0.797314 0.1 -0.675 0.220149
0.467897 0.1 0.9375 0.157187
0.467897 0.1 -0.9375 0.168029
0 0.1 1.05 0.161672
0 0.1 -1.05 0.171718
0.835106 0.1 0.6375 0.217623
0.835106 0.1 -0.6375 0.229806
1.04168 0.1 0.145832 0.318295
1.04168 0.1 -0.145832 0.323798
1.02149 0.1 0.25874 0.302067
1.02149 0.1 -0.25874 0.310867
0.969689 0.1 0.4125 0.271149
0.969689 0.1 -0.4125 0.282649
0.411108 0.1 0.975 0.152793
0.411108 0.1 -0.975 0.163527
0.871687 0.1 0.6 0.22743
0.871687 0.1 -0.6 0.239735
1.0579 0.1 -0.0360525 0.330363
1.0579 0.1 0.0360525 0.329371
0.990306 0.1 0.375 0.279494
0.990306 0.1 -0.375 0.290553
0.150379 0.1 1.05 0.152379
0.150379 0.1 -1.05 0.162516
1.0579 0.1 -0.108157 0.32997
1.0579 0.1 0.108157 0.325695
1.04168 0.1 0.218749 0.311516
1.04168 0.1 -0.218749 0.319484
0.90582 0.1 0.5625 0.237767
0.905821 0.1 -0.5625 0.250189
0 0.1 -1.06799 0.17041
0 0.1 1.06799 0.160283
0.0363518 0.1 -1.06799 0.17041
0.0363518 0.1 1.06799 0.160283
0.350249 0.1 1.0125 0.148735
0.350249 0.1 -1.0125 0.15936
1.0579 0.1 -0.180262 0.326781
1.0579 0.1 0.180262 0.319918
1.02149 0.1 0.332665 0.292566
1.02149 0.1 -0.332665 0.303373
0.93886 0.1 0.525 0.248604
0.93886 0.1 -0.525 0.261246
1.08012 0.1 1.70581e-17 0.336469
1.04168 0.1 0.291665 0.302845
1.04168 0.1 -0.291665 0.313042
1.08012 0.1 0.0709941 0.333873
1.08012 0.1 -0.074001 0.336859
0.969689 0.1 -0.4875 0.272729
0.96969 0.1 0.4875 0.259908
1.0579 0.1 0.252367 0.312155
1.0579 0.1 -0.252367 0.32143
0.990306 0.1 -0.45 0.280961
0.990306 0.1 0.45 0.268409
0.287374 0.1 -1.05 0.15508
0.287374 0.1 1.05 0.144572
1.08012 0.1 0.141988 0.329055
1.08012 0.1 -0.141988 0.334921
0.075776 0.1 1.0875 0.15878
0.075776 0.1 -1.0875 0.168995
0.714971 0.1 0.825 0.181681
0.714971 0.1 -0.825 0.193811
0.756813 0.1 0.7875 0.189451
0.756813 0.1 -0.7875 0.201794
0.67013 0.1 0.8625 0.174344
0.67013 0.1 -0.8625 0.186261
0.797314 0.1 -0.75 0.210562
0.797314 0.1 0.75 0.197984
0.623803 0.1 0.9 0.167614
0.623803 0.1 -0.9 0.179329
0.835106 0.1 0.7125 0.206971
0.835107 0.1 -0.7125 0.219805
0.574156 0.1 0.9375 0.161246
0.574156 0.1 -0.9375 0.172767
1.02149 0.1 -0.406591 0.294042
1.02149 0.1 0.406591 0.281516
1.08012 0.1 -0.212982 0.330687
1.08012 0.1 0.212982 0.322192
1.10076 0.1 -0.0349809 0.343378
1.10076 0.1 0.0349809 0.341889
0.871687 0.1 0.675 0.216301
0.871687 0.1 -0.675 0.229329
1.04168 0.1 0.364581 0.292498
1.04168 0.1 -0.364581 0.304618
1.10076 0.1 0.104943 0.33803
1.10076 0.1 -0.104943 0.342763
0.522865 0.1 0.975 0.155542
0.522865 0.1 -0.975 0.166906
1.0579 0.1 0.324472 0.302609
1.0579 0.1 -0.324472 0.313971
0 0.1 -1.10701 0.167564
0 0.1 1.10701 0.157273
0.0363518 0.1 1.10701 0.157273
0.0363518 0.1 -1.10701 0.167564
0.90582 0.1 0.6375 0.226182
0.905821 0.1 -0.6375 0.239401
0.219992 0.1 1.0875 0.140598
0.219992 0.1 -1.0875 0.150988
0.93886 0.1 0.6 0.236726
0.93886 0.1 -0.6 0.250277
1.10076 0.1 0.174905 0.332075
1.10076 0.1 -0.174905 0.339657
0.467897 0.1 1.0125 0.150137
0.467897 0.1 -1.0125 0.161338
1.08012 0.1 0.283976 0.313432
1.08012 0.1 -0.283976 0.324294
1.11928 0.1 -0.00290737 0.347746
1.11711 0.1 -0.0710826 0.347234
0.990306 0.1 0.525 0.256258
0.990306 0.1 -0.525 0.269999
0.969689 0.1 0.5625 0.247739
0.96969 0.1 -0.5625 0.26163
1.11928 0.1 0.0690357 0.345011
0 0.1 1.125 0.155886
0 0.1 -1.125 0.166247
1.11807 0.1 -0.138193 0.345668
0.411108 0.1 -1.05 0.157194
0.411108 0.1 1.05 0.146124
1.10076 0.1 -0.244866 0.334372
1.10076 0.1 0.244866 0.324113
1.11928 0.1 0.138072 0.340027
1.02149 0.1 0.480517 0.269209
1.02149 0.1 -0.480517 0.283091
1.0579 0.1 -0.396577 0.304639
1.0579 0.1 0.396577 0.291499
1.04168 0.1 0.437497 0.280734
1.04168 0.1 -0.437497 0.294435
0.150379 0.1 1.125 0.146576
0.150379 0.1 -1.125 0.157024
1.08012 0.1 0.354971 0.302986
1.08012 0.1 -0.354971 0.315872
1.11807 0.1 -0.207288 0.341496
1.11928 0.1 0.207107 0.332983
0.350249 0.1 1.0875 0.142437
0.350249 0.1 -1.0875 0.153376
0 0.1 1.14299 0.1545
0 0.1 -1.14299 0.16493
0.0363518 0.1 1.14299 0.1545
0.0363518 0.1 -1.14299 0.16493
1.14316 0.1 -0.0339211 0.355401
1.14316 0.1 0.0339211 0.354116
1.10076 0.1 0.314829 0.314344
1.10076 0.1 -0.314829 0.3269
0.797314 0.1 0.825 0.187677
0.797314 0.1 -0.825 0.200722
0.756814 0.1 -0.8625 0.19246
0.756814 0.1 0.8625 0.179671
1.14316 0.1 -0.101763 0.355188
1.14316 0.1 0.101763 0.35012
0.835106 0.1 0.7875 0.19613
0.835107 0.1 -0.7875 0.209453
0.714971 0.1 0.9 0.172438
0.714971 0.1 -0.9 0.184978
0.871687 0.1 0.75 0.204891
0.871687 0.1 -0.75 0.218492
1.11807 0.1 -0.276385 0.335119
0.67013 0.1 0.9375 0.165626
0.67013 0.1 -0.9375 0.177919
0.905821 0.1 0.7125 0.214212
0.905821 0.1 -0.7125 0.228062
1.11928 0.1 0.276143 0.324019
1.14316 0.1 -0.169605 0.352158
1.14316 0.1 0.169605 0.343996
0.93886 0.1 0.675 0.224373
0.93886 0.1 -0.675 0.238591
1.15704 0.1 0 0.358869
1.0579 0.1 0.468682 0.279106
1.0579 0.1 -0.468682 0.293639
0.623803 0.1 0.975 0.159367
0.623803 0.1 -0.975 0.171442
0.990306 0.1 0.6 0.243336
0.990306 0.1 -0.6 0.257968
1.15704 0.1 -0.0671479 0.35948
1.15704 0.1 0.0671479 0.355984
1.04168 0.1 0.510414 0.267843
1.04168 0.1 -0.510414 0.282756
0.969689 0.1 0.6375 0.234991
0.96969 0.1 -0.6375 0.249628
1.08012 0.1 0.425965 0.291096
1.08012 0.1 -0.425965 0.305637
0.287374 0.1 -1.125 0.149323
0.287374 0.1 1.125 0.13852
1.02149 0.1 0.554443 0.255945
1.02149 0.1 -0.554443 0.270845
0.574156 0.1 -1.0125 0.165322
0.574156 0.1 1.0125 0.153457
1.15704 0.1 -0.134296 0.357764
1.15704 0.1 0.134296 0.35083
0.075776 0.1 1.1625 0.152999
0.075776 0.1 -1.1625 0.163505
1.10076 0.1 0.384791 0.302979
1.10076 0.1 -0.384791 0.317484
1.14316 0.1 -0.237448 0.346884
1.14316 0.1 0.237448 0.335846
1.11807 0.1 -0.345481 0.326651
1.11928 0.1 0.345179 0.313339
0.522865 0.1 1.05 0.148157
0.522865 0.1 -1.05 0.159837
1.15704 0.1 -0.201444 0.353663
1.15704 0.1 0.201444 0.343604
1.1744 0.1 -0.0331401 0.364756
1.1744 0.1 0.0331401 0.362522
1.1744 0.1 -0.0994202 0.364362
1.1744 0.1 0.0994202 0.358858
0 0.1 1.18201 0.151507
0 0.1 -1.18201 0.162075
0.0363518 0.1 1.18201 0.151507
0.0363518 0.1 -1.18201 0.162075
0.219992 0.1 1.1625 0.134785
0.219993 0.1 -1.1625 0.145458
1.14316 0.1 -0.30529 0.339374
1.14316 0.1 0.30529 0.325862
0.467897 0.1 1.0875 0.143142
0.467897 0.1 -1.0875 0.154634
1.1744 0.1 -0.1657 0.361431
1.1744 0.1 0.1657 0.352585
1.15704 0.1 -0.268592 0.34731
1.15704 0.1 0.268592 0.334441
1.0579 0.1 0.540787 0.265711
1.0579 0.1 -0.540787 0.281281
1.08012 0.1 0.496959 0.278041
1.08012 0.1 -0.496959 0.293841
1.10076 0.1 0.454752 0.290287
1.10076 0.1 -0.454752 0.306301
1.11807 0.1 -0.414577 0.316296
1.11928 0.1 0.414214 0.301181
1.04168 0.1 0.58333 0.254122
1.04168 0.1 -0.58333 0.2699
1.19529 0.1 0.0650961 0.366825
1.1744 0.1 0.231981 0.344272
1.1744 0.1 -0.231981 0.356255
0.411108 0.1 1.125 0.139508
0.411108 0.1 -1.125 0.150852
1.19808 0.1 3.5851e-17 0.371091
0.990306 0.1 0.675 0.229936
0.990306 0.1 -0.675 0.245191
1.02149 0.1 0.628368 0.24202
1.02149 0.1 -0.628368 0.257637
1.19808 0.1 -0.0650961 0.371858
0 0.1 1.2 0.150135
0 0.1 -1.2 0.16076
0.871687 0.1 -0.825 0.207439
0.871687 0.1 0.825 0.193401
0.905821 0.1 -0.7875 0.21644
0.90582 0.1 0.7875 0.202072
0.835106 0.1 0.8625 0.185269
0.835106 0.1 -0.8625 0.198968
0.93886 0.1 0.75 0.211758
0.93886 0.1 -0.75 0.226472
0.797314 0.1 0.9 0.177397
0.797314 0.1 -0.9 0.190798
1.14316 0.1 -0.373132 0.329848
1.14316 0.1 0.373132 0.314249
0.969689 0.1 0.7125 0.221908
0.969689 0.1 -0.7125 0.237041
1.15704 0.1 -0.33574 0.338807
1.15704 0.1 0.33574 0.323541
0.756813 0.1 0.9375 0.16995
0.756814 0.1 -0.9375 0.183084
1.19808 0.1 0.130192 0.362441
1.19808 0.1 -0.130192 0.370292
0.714971 0.1 0.975 0.163274
0.714971 0.1 -0.975 0.176135
0.150379 0.1 1.2 0.140806
0.150379 0.1 -1.2 0.151515
1.20938 0.1 -0.0322656 0.375068
1.20938 0.1 0.0322656 0.3732
1.19808 0.1 0.178844 0.355302
1.1744 0.1 0.298261 0.334115
1.1744 0.1 -0.298261 0.348793
1.20938 0.1 -0.0967968 0.374814
1.20938 0.1 0.0967968 0.368875
1.19808 0.1 -0.195288 0.366323
0.350249 0.1 1.1625 0.136184
0.350249 0.1 -1.1625 0.147375
0.67013 0.1 1.0125 0.156997
0.67013 0.1 -1.0125 0.169589
0 0.1 1.21799 0.148763
0 0.1 -1.21799 0.159445
1.11807 0.1 -0.483674 0.304298
0.0363518 0.1 1.21799 0.148763
0.0363518 0.1 -1.21799 0.159445
1.11928 0.1 0.48325 0.287819
1.10076 0.1 -0.524714 0.293673
1.10076 0.1 0.524714 0.276545
1.20938 0.1 -0.161328 0.372014
1.20938 0.1 0.161328 0.362451
1.08012 0.1 0.567953 0.264105
1.08012 0.1 -0.567953 0.280787
0.623803 0.1 1.05 0.151223
0.623803 0.1 -1.05 0.163581
1.0579 0.1 -0.612892 0.267865
1.0579 0.1 0.612892 0.251614
1.15704 0.1 -0.402888 0.32834
1.15704 0.1 0.402888 0.311133
1.14316 0.1 0.440974 0.301268
1.14316 0.1 -0.440974 0.318471
1.19808 0.1 -0.260384 0.360071
1.19808 0.1 0.260384 0.34595
1.2267 0.1 3.64292e-18 0.379095
1.2267 0.1 -0.0636649 0.379973
1.2267 0.1 0.0636649 0.375921
1.1744 0.1 -0.364541 0.339277
1.1744 0.1 0.364541 0.322315
0.574156 0.1 1.0875 0.145778
0.574156 0.1 -1.0875 0.157912
1.20938 0.1 -0.225859 0.36695
1.20938 0.1 0.225859 0.353977
1.04168 0.1 0.656246 0.239855
1.04168 0.1 -0.656246 0.256225
1.22587 0.1 0.12733 0.369983
1.2267 0.1 -0.12733 0.378516
0.287374 0.1 -1.2 0.143562
0.287374 0.1 1.2 0.132516
1.02149 0.1 0.702294 0.227702
1.02149 0.1 -0.702294 0.243851
0.075776 0.1 1.2375 0.147278
0.075776 0.1 -1.2375 0.158022
0.522865 0.1 1.125 0.14088
0.522865 0.1 -1.125 0.152813
1.2267 0.1 0.190397 0.362828
1.2267 0.1 -0.190994 0.374651
1.19808 0.1 0.32548 0.334848
1.19808 0.1 -0.32548 0.351624
0.990306 0.1 0.75 0.216298
0.990306 0.1 -0.75 0.231978
1.24274 0.1 -0.0314313 0.384727
1.24274 0.1 0.0314313 0.382709
1.20938 0.1 -0.29039 0.359567
1.20938 0.1 0.29039 0.343654
1.24274 0.1 -0.0942942 0.3846
1.24274 0.1 0.0942942 0.378232
1.11807 0.1 -0.552769 0.290964
1.11928 0.1 0.552285 0.273529
1.15704 0.1 -0.470036 0.316143
1.15704 0.1 0.470036 0.297491
0.969689 0.1 0.7875 0.20867
0.96969 0.1 -0.7875 0.224144
0.93886 0.1 -0.825 0.21417
0.93886 0.1 0.825 0.199106
0.905821 0.1 0.8625 0.18999
0.905821 0.1 -0.8625 0.204724
1.1744 0.1 -0.430821 0.32783
1.1744 0.1 0.430821 0.309125
1.10076 0.1 0.594676 0.262036
1.10076 0.1 -0.594676 0.279882
1.14316 0.1 -0.508816 0.305556
1.14316 0.1 0.508816 0.287199
1.24274 0.1 0.157157 0.371658
1.24274 0.1 -0.157157 0.381946
1.2267 0.1 0.254158 0.353433
1.2267 0.1 -0.254659 0.368482
0.871687 0.1 -0.9 0.19636
0.871687 0.1 0.9 0.182012
0.467897 0.1 1.1625 0.136251
0.467897 0.1 -1.1625 0.147983
1.08012 0.1 0.638947 0.249589
1.08012 0.1 -0.638947 0.266818
1.25511 0.1 1.27213e-17 0.387031
0.835106 0.1 0.9375 0.174542
0.835106 0.1 -0.9375 0.1885
1.25511 0.1 -0.0622446 0.388006
1.25511 0.1 0.0622446 0.383753
0.219992 0.1 1.2375 0.129022
0.219992 0.1 -1.2375 0.139927
0 0.1 -1.25701 0.156606
0 0.1 1.25701 0.145812
0.0363518 0.1 -1.25701 0.156606
0.0363518 0.1 1.25701 0.145812
0.797314 0.1 0.975 0.167271
0.797314 0.1 -0.975 0.180933
1.19808 0.1 0.389737 0.322217
1.19808 0.1 -0.390576 0.341139
1.0579 0.1 -0.684997 0.253788
1.0579 0.1 0.684997 0.237091
1.20938 0.1 -0.354921 0.350095
1.20938 0.1 0.354921 0.331676
1.25511 0.1 0.124489 0.378194
1.25511 0.1 -0.124489 0.38664
1.24274 0.1 -0.220019 0.376999
1.24274 0.1 0.220019 0.36303
0.756814 0.1 1.0125 0.160395
0.756814 0.1 -1.0125 0.173793
1.25305 0.1 0.186734 0.368467
1.2267 0.1 0.317097 0.342195
1.2267 0.1 -0.318324 0.360094
0.411108 0.1 1.2 0.132993
0.411108 0.1 -1.2 0.144554
1.25511 0.1 -0.186734 0.382867
0.714971 0.1 1.05 0.154288
0.714971 0.1 -1.05 0.167391
1.04168 0.1 0.729162 0.225316
1.04168 0.1 -0.729162 0.242085
1.24274 0.1 -0.282882 0.369716
1.24274 0.1 0.282882 0.352544
0 0.1 1.275 0.144463
0 0.1 -1.275 0.155304
1.1744 0.1 -0.497102 0.314788
1.1744 0.1 0.497102 0.294829
1.15704 0.1 -0.537184 0.302523
1.15704 0.1 0.537184 0.282887
1.2756 0.1 -0.03061 0.394173
1.2756 0.1 0.03061 0.391978
0.67013 0.1 1.0875 0.148548
0.67013 0.1 -1.0875 0.161363
1.25305 0.1 0.248978 0.36047
1.2756 0.1 0.09183 0.387366
1.2756 0.1 -0.09183 0.394159
1.11807 0.1 -0.621866 0.276631
1.25511 0.1 -0.248978 0.376771
1.20938 0.1 0.419453 0.318286
1.20938 0.1 -0.419453 0.338605
1.11928 0.1 0.621322 0.258622
1.14316 0.1 -0.576659 0.291404
1.14316 0.1 0.576659 0.272314
1.19808 0.1 0.454694 0.308323
1.19808 0.1 -0.455673 0.328845
1.02149 0.1 0.776219 0.213286
1.02149 0.1 -0.776219 0.229775
0.150379 0.1 1.275 0.135106
0.150379 0.1 -1.275 0.146027
1.2267 0.1 0.381603 0.329417
1.2756 0.1 -0.15305 0.391676
1.2756 0.1 0.15305 0.380639
1.2267 0.1 -0.381989 0.349628
1.10076 0.1 0.664638 0.247099
1.10076 0.1 -0.664638 0.265323
0.350249 0.1 1.2375 0.130018
0.350249 0.1 -1.2375 0.141409
0.623803 0.1 1.125 0.143247
0.623803 0.1 -1.125 0.155826
0.990306 0.1 0.825 0.202672
0.990306 0.1 -0.825 0.218617
1.24274 0.1 -0.345745 0.360309
1.24274 0.1 0.345745 0.340393
1.2906 0.1 0 0.397155
1.25305 0.1 0.311223 0.349098
1.2906 0.1 -0.0604698 0.398323
1.2906 0.1 0.0604698 0.393668
1.08012 0.1 -0.709941 0.252304
1.08012 0.1 0.709941 0.234762
0 0.1 1.29299 0.143115
0 0.1 -1.29299 0.154002
1.25511 0.1 -0.311223 0.368436
1.2756 0.1 0.214269 0.37186
1.2756 0.1 -0.214269 0.386857
0.0363518 0.1 -1.29299 0.154002
0.0363518 0.1 1.29299 0.143115
1.2906 0.1 -0.12094 0.397155
1.2906 0.1 0.12094 0.387912
0.574156 0.1 1.1625 0.138259
0.574157 0.1 -1.1625 0.150609
0.969689 0.1 -0.8625 0.2112
0.969689 0.1 0.8625 0.195546
0.93886 0.1 -0.9 0.201906
0.93886 0.1 0.9 0.186638
1.0579 0.1 -0.757102 0.239376
1.0579 0.1 0.757102 0.222407
1.1744 0.1 -0.563382 0.300424
1.1744 0.1 0.563382 0.279692
1.20938 0.1 0.483984 0.303768
1.20938 0.1 -0.483984 0.325474
1.2906 0.1 -0.181409 0.393577
1.2906 0.1 0.181409 0.380076
0.90582 0.1 0.9375 0.178133
0.90582 0.1 -0.9375 0.193107
1.2267 0.1 0.445203 0.315361
1.2756 0.1 0.275489 0.361217
1.2756 0.1 -0.275489 0.379699
1.2267 0.1 -0.445653 0.337303
1.15704 0.1 -0.604332 0.287808
1.15704 0.1 0.604332 0.267622
1.19808 0.1 0.51965 0.293439
1.19808 0.1 -0.520769 0.315041
1.30646 0.1 0.0298385 0.400384
1.30646 0.1 -0.0298385 0.402749
0.287374 0.1 -1.275 0.137829
0.287374 0.1 1.275 0.126591
1.25305 0.1 0.373467 0.336178
0.871687 0.1 0.975 0.170864
0.871687 0.1 -0.975 0.185418
1.24274 0.1 0.408607 0.326817
1.24274 0.1 -0.408607 0.348827
0.522865 0.1 1.2 0.13377
0.522865 0.1 -1.2 0.145896
1.25511 0.1 -0.373467 0.357991
1.30646 0.1 -0.0895157 0.402866
1.30646 0.1 0.0895157 0.395627