# UMean  POINT_DATA 63831
# x  y  z  UMean_x  UMean_y  UMean_z
0 0.5 3.39583e-17 0.965926 0 0.258819
0 0.5 -0.00617931 0.965926 0 0.258819
0 0.5 0.00617931 0.965926 0 0.258819
0.0124865 0.5 0.00617931 0.965897 0.000904168 0.258932
0.0124865 0.5 -0.00617931 0.965896 0.000904045 0.258813
0 0.5 -0.0688207 0.965926 0 0.258819
0 0.5 0.0688207 0.965926 0 0.258819
0.0124865 0.5 0.0688207 0.965897 0.000904168 0.258932
0.0124865 0.5 -0.0688207 0.965896 0.000904045 0.258813
0 0.5 0.075 0.965926 0 0.258819
0 0.5 -0.075 0.965926 0 0.258819
0 0.5 -0.0811793 0.965926 0 0.258819
0 0.5 0.0811793 0.965926 0 0.258819
0.0124865 0.5 0.0811793 0.965897 0.000900842 0.259051
0.0124865 0.5 -0.0811793 0.965895 0.000900691 0.258693
0.075776 0.5 0.0375 0.965723 0.00547917 0.259501
0.075776 0.5 -0.0375 0.965719 0.0054786 0.258785
0.075776 0.5 0.1125 0.965723 0.00545893 0.26022
0.075776 0.5 -0.1125 0.965711 0.00545822 0.25806
0 0.5 -0.143821 0.965926 0 0.258819
0 0.5 0.143821 0.965926 0 0.258819
0.0124865 0.5 0.143821 0.965897 0.000900842 0.259051
0.0124865 0.5 -0.143821 0.965895 0.000900691 0.258693
0 0.5 0.15 0.965926 0 0.258819
0 0.5 -0.15 0.965926 0 0.258819
0.151149 0.5 2.20565e-18 0.964543 0.00920112 0.259225
0 0.5 -0.156179 0.965926 0 0.258819
0 0.5 0.156179 0.965926 0 0.258819
0.0124865 0.5 0.156179 0.965898 0.000893802 0.259167
0.0124865 0.5 -0.156179 0.965896 0.000893455 0.258575
0.151149 0.5 0.075 0.964558 0.00918862 0.260505
0.151149 0.5 -0.075 0.96454 0.009179 0.257944
0.075776 0.5 0.1875 0.965734 0.00541629 0.260919
0.075776 0.5 -0.1875 0.965721 0.00541453 0.257345
0.151149 0.5 0.15 0.964591 0.0091415 0.261765
0.151149 0.5 -0.15 0.964562 0.00912221 0.25668
0 0.5 -0.218821 0.965926 0 0.258819
0 0.5 0.218821 0.965926 0 0.258819
0.0124865 0.5 0.218821 0.965898 0.000893802 0.259167
0.0124865 0.5 -0.218821 0.965896 0.000893455 0.258575
0.219992 0.5 0.0375 0.96345 0.0126837 0.260212
0.219992 0.5 -0.0375 0.963437 0.0126755 0.258392
0 0.5 0.225 0.965926 0 0.258819
0 0.5 -0.225 0.965926 0 0.258819
0 0.5 -0.231179 0.965926 0 0.258819
0 0.5 0.231179 0.965926 0 0.258819
0.0124865 0.5 0.231179 0.965901 0.000883342 0.259278
0.0124865 0.5 -0.231179 0.965899 0.000882762 0.258462
0.219993 0.5 0.1125 0.963489 0.0126456 0.262003
0.219993 0.5 -0.1125 0.963451 0.0126177 0.256603
0.151149 0.5 0.225 0.964649 0.0090599 0.262986
0.151149 0.5 -0.225 0.964614 0.00903256 0.255453
0.075776 0.5 0.2625 0.965751 0.00535276 0.26159
0.075776 0.5 -0.2625 0.965737 0.00534987 0.256665
0.288069 0.5 3.34766e-17 0.960582 0.0161204 0.259175
0.219992 0.5 0.1875 0.963569 0.0125602 0.263761
0.219992 0.5 -0.1875 0.963519 0.0125157 0.254845
0 0.5 0.293821 0.965926 0 0.258819
0 0.5 -0.293821 0.965926 0 0.258819
0.0124865 0.5 -0.293821 0.965899 0.000882762 0.258462
0.0124865 0.5 0.293821 0.965901 0.000883342 0.259278
0.288069 0.5 0.075 0.960629 0.0161059 0.261554
0.288069 0.5 -0.075 0.9606 0.0160717 0.256799
0 0.5 0.3 0.965926 0 0.258819
0 0.5 -0.3 0.965926 0 0.258819
0 0.5 0.306179 0.965926 0 0.258819
0 0.5 -0.306179 0.965926 0 0.258819
0.0124865 0.5 0.306179 0.965905 0.000869709 0.259382
0.0124865 0.5 -0.306179 0.965902 0.000869174 0.258355
0.288069 0.5 0.15 0.960743 0.0160293 0.263897
0.288069 0.5 -0.15 0.960694 0.0159617 0.254466
0.151149 0.5 0.3 0.964729 0.00894582 0.264149
0.151149 0.5 -0.3 0.964685 0.00891292 0.254284
0.219992 0.5 0.2625 0.963688 0.0124291 0.265448
0.219992 0.5 -0.2625 0.963627 0.0123721 0.253159
0.075776 0.5 0.3375 0.965775 0.00526998 0.262221
0.075776 0.5 -0.3375 0.965756 0.00526764 0.25602
0.350249 0.5 0.0375 0.957908 0.0193561 0.260521
0.350249 0.5 -0.0375 0.957891 0.0193314 0.257589
0.288069 0.5 0.225 0.96093 0.0158919 0.266173
0.288069 0.5 -0.225 0.960869 0.0157957 0.252207
0.350249 0.5 0.1125 0.958023 0.0193033 0.263427
0.350249 0.5 -0.1125 0.957977 0.0192291 0.254696
0 0.5 0.368821 0.965926 0 0.258819
0 0.5 -0.368821 0.965926 0 0.258819
0.0124865 0.5 0.368821 0.965905 0.000869709 0.259382
0.0124865 0.5 -0.368821 0.965902 0.000869174 0.258355
0 0.5 0.375 0.965926 0 0.258819
0 0.5 -0.375 0.965926 0 0.258819
0 0.5 -0.381179 0.965926 0 0.258819
0 0.5 0.381179 0.965926 0 0.258819
0.0124865 0.5 0.381179 0.96591 0.000853319 0.259479
0.0124865 0.5 -0.381179 0.965906 0.000853111 0.258256
0.350249 0.5 0.1875 0.958241 0.0191751 0.266273
0.350249 0.5 -0.1875 0.95818 0.0190553 0.251876
0.219992 0.5 0.3375 0.963842 0.0122556 0.267047
0.219992 0.5 -0.3375 0.963764 0.01219 0.25156
0.151149 0.5 0.375 0.964829 0.00880205 0.26524
0.151149 0.5 -0.375 0.964774 0.00876631 0.253186
0.411736 0.5 1.70099e-17 0.953824 0.0226884 0.25874
0.288069 0.5 0.3 0.961186 0.0156966 0.268347
0.288069 0.5 -0.3 0.961111 0.0155775 0.250055
0.411736 0.5 0.075 0.95391 0.0226785 0.262258
0.411736 0.5 -0.075 0.953891 0.0226023 0.255235
0.075776 0.5 0.4125 0.965804 0.00517035 0.262805
0.075776 0.5 -0.4125 0.965779 0.00517022 0.25542
0.350249 0.5 -0.2625 0.95849 0.0188162 0.249169
0.350249 0.5 0.2625 0.958562 0.018974 0.269018
0.411736 0.5 0.15 0.954145 0.0225733 0.265729
0.411736 0.5 -0.15 0.954118 0.0224238 0.251802
0 0.5 -0.443821 0.965926 0 0.258819
0 0.5 0.443821 0.965926 0 0.258819
0.0124865 0.5 0.443821 0.96591 0.000853319 0.259479
0.0124865 0.5 -0.443821 0.965906 0.000853111 0.258256
0 0.5 0.45 0.965926 0 0.258819
0 0.5 -0.45 0.965926 0 0.258819
0 0.5 -0.456179 0.965926 0 0.258819
0 0.5 0.456179 0.965926 0 0.258819
0.0124865 0.5 0.456179 0.965916 0.000834446 0.259566
0.0124865 0.5 -0.456179 0.965911 0.000834826 0.258165
0.219992 0.5 -0.4125 0.963931 0.0119728 0.250071
0.219993 0.5 0.4125 0.964025 0.0120433 0.268534
0.411736 0.5 0.225 0.954529 0.0223756 0.269102
0.411736 0.5 -0.225 0.954504 0.0221599 0.248488
0.467897 0.5 0.0375 0.949991 0.0258557 0.260488
0.467897 0.5 -0.0375 0.949986 0.0258045 0.256398
0.288069 0.5 0.375 0.961504 0.015448 0.27039
0.288069 0.5 -0.375 0.961413 0.0153108 0.248039
0.151149 0.5 -0.45 0.964881 0.00859502 0.25217
0.151149 0.5 0.45 0.964946 0.0086313 0.266245
0.467897 0.5 0.1125 0.950195 0.0257925 0.264563
0.467897 0.5 -0.1125 0.950187 0.0256409 0.252362
0.350249 0.5 0.3375 0.958977 0.0187041 0.271618
0.350249 0.5 -0.3375 0.958889 0.0185151 0.246617
0.075776 0.5 -0.4875 0.965807 0.00505913 0.25487
0.075776 0.5 0.4875 0.965838 0.00505542 0.263336
0.467897 0.5 0.1875 0.950591 0.0256175 0.26855
0.467897 0.5 -0.1875 0.950595 0.0253715 0.248446
0.411736 0.5 0.3 0.955056 0.0220901 0.272326
0.411736 0.5 -0.3 0.955034 0.0218169 0.245345
0 0.5 -0.518821 0.965926 0 0.258819
0 0.5 0.518821 0.965926 0 0.258819
0.0124865 0.5 0.518821 0.965916 0.000834446 0.259566
0.0124865 0.5 -0.518821 0.965911 0.000834826 0.258165
0.523432 0.5 3.75966e-17 0.944959 0.0291519 0.257971
0 0.5 0.525 0.965926 0 0.258819
0 0.5 -0.525 0.965926 0 0.258819
0.523432 0.5 0.075 0.94508 0.0291545 0.262678
0.523432 0.5 -0.075 0.945106 0.0290158 0.253291
0 0.5 -0.531179 0.965926 0 0.258819
0 0.5 0.531179 0.965926 0 0.258819
0.0124865 0.5 0.531179 0.965923 0.000813385 0.259644
0.0124865 0.5 -0.531179 0.965917 0.00081463 0.258084
0.288069 0.5 0.45 0.961876 0.0151509 0.272275
0.288069 0.5 -0.45 0.961771 0.0149994 0.246182
0.219992 0.5 -0.4875 0.964127 0.0117222 0.248706
0.219992 0.5 0.4875 0.964233 0.0117955 0.269893
0.467897 0.5 -0.2625 0.951202 0.0250048 0.244699
0.467897 0.5 0.2625 0.951179 0.0253353 0.272397
0.350249 0.5 0.4125 0.959477 0.0183723 0.274041
0.350249 0.5 -0.4125 0.959375 0.0181572 0.24425
0.523432 0.5 0.15 0.945459 0.0290234 0.267331
0.523432 0.5 -0.15 0.945522 0.0287513 0.248717
0.151149 0.5 0.525 0.965076 0.00843601 0.267152
0.151149 0.5 -0.525 0.965002 0.00840105 0.251249
0.411736 0.5 0.375 0.955713 0.0217233 0.275355
0.411736 0.5 -0.375 0.955693 0.0214009 0.242416
0.075776 0.5 0.5625 0.965877 0.00492706 0.263807
0.075776 0.5 -0.5625 0.965841 0.00493606 0.254375
0.523432 0.5 0.225 0.946089 0.0287622 0.271852
0.523432 0.5 -0.225 0.9462 0.0283668 0.244322
0.574156 0.5 0.0375 0.940192 0.0323255 0.260176
0.574157 0.5 -0.0375 0.94022 0.0322376 0.254872
0.467897 0.5 0.3375 0.951944 0.0249526 0.276038
0.467897 0.5 -0.3375 0.951986 0.0245487 0.241189
0.574156 0.5 0.1125 0.940491 0.032259 0.26547
0.574156 0.5 -0.1125 0.940579 0.0319989 0.249649
0 0.5 -0.593821 0.965926 0 0.258819
0 0.5 0.593821 0.965926 0 0.258819
0.0124865 0.5 0.593821 0.965923 0.000813385 0.259644
0.0124865 0.5 -0.593821 0.965917 0.00081463 0.258084
0.288069 0.5 0.525 0.962291 0.0148101 0.273982
0.288069 0.5 -0.525 0.962175 0.014647 0.244506
0 0.5 0.6 0.965926 0 0.258819
0 0.5 -0.6 0.965926 0 0.258819
0.350249 0.5 0.4875 0.96005 0.0179845 0.276257
0.350249 0.5 -0.4875 0.959935 0.017747 0.242097
0.523432 0.5 -0.3 0.947122 0.027872 0.240173
0.523432 0.5 0.3 0.946958 0.0283779 0.276174
0.219992 0.5 0.5625 0.964461 0.0115152 0.271109
0.219992 0.5 -0.5625 0.964344 0.0114412 0.247482
0.574156 0.5 0.1875 0.9411 0.0320405 0.270657
0.574157 0.5 -0.1875 0.941262 0.0316181 0.244594
0 0.5 -0.606179 0.965926 0 0.258819
0 0.5 0.606179 0.965926 0 0.258819
0.0124865 0.5 0.606179 0.96593 0.000790574 0.259712
0.0124865 0.5 -0.606179 0.965923 0.000792826 0.258012
0.411736 0.5 0.45 0.956484 0.0212833 0.27815
0.411736 0.5 -0.45 0.956466 0.0209184 0.239736
0.151149 0.5 0.6 0.965216 0.00821892 0.267954
0.151149 0.5 -0.6 0.965136 0.00818694 0.25043
0.467897 0.5 0.4125 0.952868 0.0244778 0.27943
0.467897 0.5 -0.4125 0.952927 0.0240104 0.237956
0.624316 0.5 2.64545e-17 0.934408 0.0356155 0.256926
0.624316 0.5 0.075 0.934554 0.0356379 0.262877
0.624316 0.5 -0.075 0.934667 0.0354192 0.25102
0.574156 0.5 -0.2625 0.942258 0.0311046 0.239793
0.574157 0.5 0.2625 0.942012 0.0316755 0.275657
0.075776 0.5 0.6375 0.965919 0.00478788 0.264216
0.075776 0.5 -0.6375 0.96588 0.00480298 0.25394
0.624316 0.5 0.15 0.935095 0.0354853 0.268768
0.624316 0.5 -0.15 0.93533 0.0350557 0.245262
0.523432 0.5 0.375 0.948045 0.0278795 0.280228
0.523432 0.5 -0.375 0.948261 0.0272763 0.23633
0.350249 0.5 -0.5625 0.960555 0.0172902 0.240179
0.350249 0.5 0.5625 0.960679 0.0175468 0.278242
0.624316 0.5 0.225 0.936014 0.0351617 0.274493
0.624316 0.5 -0.225 0.936382 0.034535 0.239753
0.288069 0.5 0.6 0.96274 0.0144301 0.275495
0.288069 0.5 -0.6 0.962616 0.0142583 0.243024
0.574157 0.5 0.3375 0.943203 0.0311742 0.280391
0.574157 0.5 -0.3375 0.943535 0.0304709 0.23531
0.411736 0.5 0.525 0.95735 0.0207783 0.280679
0.411736 0.5 -0.525 0.957334 0.0203764 0.237336
0 0.5 -0.668821 0.965926 0 0.258819
0 0.5 0.668821 0.965926 0 0.258819
0.0124865 0.5 0.668821 0.96593 0.000790574 0.259712
0.0124865 0.5 -0.668821 0.965923 0.000792826 0.258012
0.67013 0.5 0.0375 0.928863 0.0388329 0.259643
0.67013 0.5 -0.0375 0.928945 0.038701 0.253072
0.219993 0.5 -0.6375 0.964578 0.0111333 0.246407
0.219992 0.5 0.6375 0.964701 0.0112057 0.272172
0 0.5 0.675 0.965926 0 0.258819
0 0.5 -0.675 0.965926 0 0.258819
0.467897 0.5 -0.4875 0.954004 0.0233986 0.23504
0.467897 0.5 0.4875 0.953929 0.0239218 0.282526
0.67013 0.5 0.1125 0.929258 0.0387681 0.266215
0.67013 0.5 -0.1125 0.929507 0.0383775 0.246612
0 0.5 -0.681179 0.965926 0 0.258819
0 0.5 0.681179 0.965926 0 0.258819
0.0124865 0.5 0.681179 0.965937 0.000766415 0.259768
0.0124865 0.5 -0.681179 0.96593 0.000769785 0.25795
0.523432 0.5 0.45 0.949322 0.0272785 0.283964
0.523432 0.5 -0.45 0.949586 0.0265897 0.232843
0.151149 0.5 0.675 0.965363 0.00798321 0.268644
0.151149 0.5 -0.675 0.96528 0.0079558 0.24972
0.624316 0.5 0.3 0.93729 0.0346758 0.279962
0.624316 0.5 -0.3 0.937794 0.0338695 0.234576
0.67013 0.5 0.1875 0.930109 0.0385086 0.272659
0.67013 0.5 -0.1875 0.930539 0.0378723 0.240381
0.574156 0.5 0.4125 0.944642 0.0305475 0.284785
0.574156 0.5 -0.4125 0.945056 0.0297275 0.231215
0.715434 0.5 3.51282e-17 0.922537 0.0421156 0.255659
0.075776 0.5 0.7125 0.965963 0.00464032 0.264559
0.075776 0.5 -0.7125 0.965922 0.00466209 0.253567
0.715434 0.5 0.075 0.9227 0.0421633 0.262912
0.715434 0.5 -0.075 0.922941 0.041851 0.248473
0.67013 0.5 0.2625 0.931396 0.0380607 0.278865
0.67013 0.5 -0.2625 0.932013 0.037197 0.234487
0.350249 0.5 -0.6375 0.96122 0.0167934 0.238511
0.350249 0.5 0.6375 0.961351 0.0170653 0.279981
0.411736 0.5 0.6 0.958288 0.0202165 0.282918
0.411736 0.5 -0.6 0.958275 0.0197829 0.235237
0.624316 0.5 0.375 0.938889 0.0340397 0.285086
0.624316 0.5 -0.375 0.939527 0.0330729 0.229811
0.715434 0.5 0.15 0.923417 0.0419924 0.270098
0.715434 0.5 -0.15 0.923906 0.0413776 0.241484
0.467897 0.5 0.5625 0.955099 0.0232947 0.285295
0.467897 0.5 -0.5625 0.955188 0.0227224 0.23247
0.288069 0.5 0.675 0.963211 0.014016 0.276801
0.288069 0.5 -0.675 0.963082 0.0138391 0.241748
0.523432 0.5 0.525 0.950758 0.0265873 0.287336
0.523432 0.5 -0.525 0.951063 0.0258236 0.22975
0 0.5 -0.743821 0.965926 0 0.258819
0 0.5 0.743821 0.965926 0 0.258819
0.0124865 0.5 -0.743821 0.96593 0.000769785 0.25795
0.0124865 0.5 0.743821 0.965937 0.000766415 0.259768
0.219992 0.5 0.7125 0.964948 0.0108712 0.273076
0.219992 0.5 -0.7125 0.964823 0.010803 0.245489
0.715434 0.5 0.225 0.924661 0.0416071 0.277082
0.715434 0.5 -0.225 0.925408 0.0407076 0.234817
0 0.5 0.75 0.965926 0 0.258819
0 0.5 -0.75 0.965926 0 0.258819
0.67013 0.5 0.3375 0.933088 0.0374372 0.284742
0.67013 0.5 -0.3375 0.933888 0.0363671 0.229012
0.574157 0.5 0.4875 0.946296 0.0298106 0.288792
0.574157 0.5 -0.4875 0.946783 0.0288876 0.227556
0 0.5 -0.756179 0.965926 0 0.258819
0 0.5 0.756179 0.965926 0 0.258819
0.0124865 0.5 0.756179 0.965944 0.000741322 0.259814
0.0124865 0.5 -0.756179 0.965937 0.000745856 0.257899
0.756813 0.5 0.0375 0.916387 0.0453833 0.258942
0.756813 0.5 -0.0375 0.916544 0.0452011 0.251043
0.151149 0.5 0.75 0.965514 0.00773253 0.269219
0.151149 0.5 -0.75 0.965429 0.00771116 0.249121
0.756813 0.5 0.1125 0.916881 0.0453239 0.266849
0.756813 0.5 -0.1125 0.917351 0.0447838 0.243292
0.624316 0.5 -0.45 0.94153 0.0321596 0.225524
0.624316 0.5 0.45 0.940768 0.0332681 0.289794
0.715434 0.5 0.3 0.926401 0.0410174 0.283749
0.715434 0.5 -0.3 0.927405 0.0398559 0.228586
0.756813 0.5 0.1875 0.917998 0.0450248 0.274608
0.756813 0.5 -0.1875 0.918794 0.0441423 0.235836
0.67013 0.5 -0.4125 0.936111 0.0353994 0.224052
0.67013 0.5 0.4125 0.935133 0.0366521 0.290177
0.411736 0.5 0.675 0.959277 0.0196057 0.284849
0.411736 0.5 -0.675 0.959266 0.0191471 0.233452
0.467897 0.5 0.6375 0.956348 0.0226061 0.287713
0.467897 0.5 -0.6375 0.956449 0.0219926 0.230265
0.075776 0.5 0.7875 0.966008 0.00448714 0.264838
0.075776 0.5 -0.7875 0.965966 0.00451558 0.253257
0.350249 0.5 0.7125 0.962048 0.0165464 0.28146
0.350249 0.5 -0.7125 0.961914 0.0162643 0.237103
0.523432 0.5 0.6 0.952315 0.025818 0.290311
0.523432 0.5 -0.6 0.952654 0.0249902 0.227078
0.797732 0.5 3.20924e-17 0.909669 0.0486402 0.25422
0.756813 0.5 0.2625 0.919704 0.0444933 0.282078
0.756814 0.5 -0.2625 0.920829 0.0432921 0.228804
0.797732 0.5 0.075 0.909838 0.0487175 0.262831
0.797732 0.5 -0.075 0.910248 0.0483009 0.245699
0.288069 0.5 0.75 0.963695 0.0135738 0.277894
0.288069 0.5 -0.75 0.963564 0.0133956 0.240683
0.574156 0.5 -0.5625 0.948668 0.027965 0.224368
0.574156 0.5 0.5625 0.94812 0.0289774 0.292362
0.715434 0.5 0.375 0.928589 0.0402385 0.289989
0.715434 0.5 -0.375 0.92984 0.0388406 0.22289
0.797732 0.5 0.15 0.910742 0.0485302 0.271368
0.797732 0.5 -0.15 0.911566 0.047709 0.237428
0.624316 0.5 0.525 0.94288 0.0323779 0.294032
0.624316 0.5 -0.525 0.94375 0.0311455 0.221762
0.219992 0.5 0.7875 0.9652 0.0105169 0.273817
0.219992 0.5 -0.7875 0.965074 0.0104554 0.24473
0 0.5 -0.818821 0.965926 0 0.258819
0 0.5 0.818821 0.965926 0 0.258819
0.0124865 0.5 -0.818821 0.965937 0.000745856 0.257899
0.0124865 0.5 0.818821 0.965944 0.000741322 0.259814
0 0.5 0.825 0.965926 0 0.258819
0 0.5 -0.825 0.965926 0 0.258819
0.756813 0.5 -0.3375 0.923403 0.0422505 0.222332
0.756813 0.5 0.3375 0.921958 0.0437432 0.289135
0.67013 0.5 0.4875 0.937478 0.0357242 0.295123
0.67013 0.5 -0.4875 0.938617 0.0343105 0.219661
0.797732 0.5 0.225 0.912345 0.048083 0.279667
0.797732 0.5 -0.225 0.913591 0.0468787 0.229563
0 0.5 -0.831179 0.965926 0 0.258819
0 0.5 0.831179 0.965926 0 0.258819
0.0124865 0.5 0.831179 0.965951 0.000715825 0.259849
0.0124865 0.5 -0.831179 0.965944 0.000721374 0.257858
0.835106 0.5 -0.0375 0.903284 0.0517096 0.248839
0.835106 0.5 0.0375 0.903031 0.0519463 0.258119
0.151149 0.5 0.825 0.965665 0.00747113 0.269679
0.151149 0.5 -0.825 0.96558 0.00745679 0.248635
0.835106 0.5 0.1125 0.903622 0.0518947 0.267418
0.835106 0.5 -0.1125 0.904373 0.0511922 0.239744
0.715434 0.5 0.45 0.93116 0.0392884 0.295703
0.715434 0.5 -0.45 0.932639 0.037681 0.217806
0.797732 0.5 0.3 0.9146 0.0473874 0.287577
0.797732 0.5 -0.3 0.916262 0.045828 0.222253
0.467897 0.5 0.7125 0.957649 0.0218656 0.289764
0.467897 0.5 -0.7125 0.957756 0.0212202 0.228433
0.523432 0.5 0.675 0.953956 0.0249827 0.292866
0.523432 0.5 -0.675 0.954318 0.0241028 0.224841
0.411736 0.5 0.75 0.960294 0.0189545 0.286463
0.411736 0.5 -0.75 0.960283 0.0184785 0.231985
0.835106 0.5 0.1875 0.905028 0.0515564 0.276544
0.835106 0.5 -0.1875 0.90629 0.0504063 0.231015
0.574156 0.5 0.6375 0.950069 0.0280622 0.295463
0.574156 0.5 -0.6375 0.950662 0.026975 0.221674
0.350249 0.5 -0.7875 0.962621 0.0157108 0.235956
0.350249 0.5 0.7875 0.962759 0.0159976 0.282677
0.756813 0.5 -0.4125 0.926435 0.04104 0.216496
0.756814 0.5 0.4125 0.924689 0.0427937 0.295672
0.075776 0.5 -0.8625 0.96601 0.00436567 0.253009
0.075776 0.5 0.8625 0.96605 0.00433109 0.265052
0.624316 0.5 0.6 0.945171 0.0313858 0.297753
0.624316 0.5 -0.6 0.946125 0.0300478 0.218556
0.872064 0.5 4.32235e-17 0.896165 0.0551098 0.252651
0.288069 0.5 0.825 0.964183 0.01311 0.278774
0.288069 0.5 -0.825 0.964051 0.0129346 0.239829
0.67013 0.5 0.5625 0.940067 0.0346729 0.299508
0.67013 0.5 -0.5625 0.941336 0.0331198 0.215884
0.872064 0.5 0.075 0.896332 0.0552194 0.262666
0.872064 0.5 -0.075 0.896939 0.0546919 0.242751
0.835106 0.5 0.2625 0.907194 0.0509399 0.285327
0.835106 0.5 -0.2625 0.908971 0.0493704 0.222827
0.797732 0.5 0.375 0.917445 0.0464611 0.29497
0.797732 0.5 -0.375 0.919499 0.044579 0.215611
0.872064 0.5 0.15 0.897434 0.0550176 0.2726
0.872064 0.5 -0.15 0.898649 0.0539763 0.233153
0.715434 0.5 0.525 0.934047 0.0381885 0.300822
0.715434 0.5 -0.525 0.935723 0.0363981 0.213392
0.219992 0.5 0.8625 0.965453 0.010149 0.274396
0.219993 0.5 -0.8625 0.965328 0.010096 0.244129
0 0.5 -0.893821 0.965926 0 0.258819
0 0.5 0.893821 0.965926 0 0.258819
0.0124865 0.5 0.893821 0.965951 0.000715825 0.259849
0.0124865 0.5 -0.893821 0.965944 0.000721374 0.257858
0 0.5 0.9 0.965926 0 0.258819
0 0.5 -0.9 0.965926 0 0.258819
0.756813 0.5 0.4875 0.927817 0.0416653 0.301563
0.756813 0.5 -0.4875 0.929833 0.0396822 0.211383
0.872064 0.5 0.225 0.899422 0.0545098 0.282255
0.872064 0.5 -0.225 0.901257 0.0529792 0.224059
0.835106 0.5 0.3375 0.910066 0.0500608 0.293604
0.835106 0.5 -0.3375 0.912336 0.0481049 0.215325
0 0.5 0.906179 0.965926 0 0.258819
0 0.5 -0.906179 0.965926 0 0.258819
0.0124865 0.5 0.906179 0.965957 0.000690235 0.259875
0.0124865 0.5 -0.906179 0.965951 0.000696801 0.257828
0.90582 0.5 -0.0375 0.889613 0.0580988 0.246506
0.905821 0.5 0.0375 0.889252 0.0583929 0.257202
0.151149 0.5 0.9 0.965815 0.00720352 0.270027
0.90582 0.5 0.1125 0.889945 0.0583512 0.267932
0.90582 0.5 -0.1125 0.890999 0.0574788 0.236028
0.151149 0.5 -0.901373 0.965735 0.00720963 0.248214
0.523432 0.5 0.75 0.955642 0.0240934 0.29499
0.523432 0.5 -0.75 0.956014 0.0231747 0.223041
0.574157 0.5 0.7125 0.952093 0.0270791 0.298078
0.574156 0.5 -0.7125 0.952714 0.0259334 0.219481
0.797732 0.5 0.45 0.920792 0.0453258 0.301719
0.797732 0.5 -0.45 0.923201 0.0431568 0.209729
0.467897 0.5 0.7875 0.958972 0.0210833 0.291442
0.467897 0.5 -0.7875 0.959078 0.0204165 0.226973
0.624316 0.5 0.675 0.947582 0.0303086 0.300929
0.624316 0.5 -0.675 0.948592 0.0288847 0.215921
0.411736 0.5 0.825 0.961319 0.0182718 0.287759
0.411736 0.5 -0.825 0.961304 0.0177867 0.230832
0.872064 0.5 0.3 0.902233 0.0537086 0.291447
0.872064 0.5 -0.3 0.904675 0.0517222 0.21564
0.67013 0.5 0.6375 0.942828 0.0335171 0.303295
0.67013 0.5 -0.6375 0.944194 0.0318477 0.212745
0.90582 0.5 0.1875 0.891654 0.0579763 0.278462
0.90582 0.5 -0.1875 0.893433 0.0565448 0.22599
0.350249 0.5 -0.8625 0.963329 0.0151409 0.235066
0.350249 0.5 0.8625 0.963468 0.0154268 0.28363
0.835106 0.5 0.4125 0.913559 0.0489415 0.301259
0.835106 0.5 -0.4125 0.916275 0.0466377 0.208605
0.715434 0.5 0.6 0.937175 0.0369611 0.305296
0.715434 0.5 -0.6 0.939005 0.0350147 0.209687
0.939201 0.5 4.40909e-17 0.88206 0.0616534 0.25099
0.075776 0.5 -0.9375 0.96605 0.00421465 0.252822
0.075776 0.5 0.9375 0.966086 0.0041744 0.265205
0.939201 0.5 0.075 0.882212 0.0617976 0.262479
0.939201 0.5 -0.075 0.883055 0.0611504 0.239641
0.756814 0.5 0.5625 0.931266 0.0403844 0.306776
0.756814 0.5 -0.5625 0.933501 0.0382023 0.207042
0.905821 0.5 0.2625 0.894311 0.0572774 0.288591
0.905821 0.5 -0.2625 0.89681 0.0553194 0.216615
0.288069 0.5 0.9 0.964669 0.012632 0.279443
0.288069 0.5 -0.901373 0.964545 0.0124657 0.239125
0.872064 0.5 0.375 0.905788 0.0526342 0.30002
0.872064 0.5 -0.375 0.908794 0.0502318 0.208037
0.939201 0.5 -0.15 0.885202 0.0603001 0.228649
0.939201 0.5 0.15 0.88352 0.0615792 0.273882
0.797732 0.5 0.525 0.924545 0.0440075 0.307732
0.797732 0.5 -0.525 0.927261 0.0415884 0.204683
0.219993 0.5 -0.9375 0.965583 0.00973061 0.243679
0.219992 0.5 0.9375 0.965707 0.00977396 0.274819
0.939201 0.5 0.225 0.885922 0.0610048 0.284955
0.939201 0.5 -0.225 0.888462 0.0591212 0.218265
0.90582 0.5 0.3375 0.897837 0.0562721 0.298121
0.90582 0.5 -0.3375 0.90103 0.0538272 0.208048
0.835106 0.5 -0.4875 0.920674 0.0449975 0.20278
0.835107 0.5 0.4875 0.917561 0.0476066 0.308126
0 0.5 0.968821 0.965926 0 0.258819
0 0.5 -0.968821 0.965926 0 0.258819
0.0124865 0.5 0.968821 0.965957 0.000690235 0.259875
0.0124865 0.5 -0.968821 0.965951 0.000696801 0.257828
0.969689 0.5 0.0375 0.874673 0.0651012 0.25626
0.969689 0.5 -0.0375 0.875187 0.0647437 0.244049
0.574156 0.5 0.7875 0.954149 0.0260427 0.3002
0.574156 0.5 -0.7875 0.954776 0.0248552 0.217782
0 0.5 0.975 0.965926 0 0.258819
0 0.5 -0.975 0.965926 0 0.258819
0.624316 0.5 0.75 0.950054 0.0291631 0.303549
0.624316 0.5 -0.75 0.951092 0.0276741 0.213853
0.969689 0.5 0.1125 0.875463 0.0650669 0.268529
0.96969 0.5 -0.1125 0.876896 0.0640065 0.232086
0.523432 0.5 0.825 0.957337 0.0231626 0.296681
0.523432 0.5 -0.825 0.957705 0.0222191 0.221668
0.67013 0.5 0.7125 0.945693 0.0322761 0.306465
0.67013 0.5 -0.7125 0.947116 0.0305148 0.210249
0 0.5 -0.981179 0.965926 0 0.258819
0 0.5 0.981179 0.965926 0 0.258819
0.467897 0.5 0.8625 0.960291 0.0202696 0.292751
0.467897 0.5 -0.8625 0.960389 0.0195923 0.225875
0.0124865 0.5 0.981179 0.965961 0.000664746 0.25989
0.0124865 0.5 -0.981179 0.965956 0.000672202 0.257807
0.872064 0.5 0.45 0.909978 0.051312 0.307826
0.872064 0.5 -0.45 0.913485 0.0485388 0.201365
0.715434 0.5 0.675 0.940461 0.0356278 0.309088
0.715434 0.5 -0.675 0.942396 0.0335546 0.206704
0.939201 0.5 0.3 0.889334 0.0600888 0.295482
0.939201 0.5 -0.3 0.892704 0.0576398 0.208688
0.151149 0.5 0.975 0.965964 0.00693298 0.270267
0.151149 0.5 -0.975 0.965883 0.00693405 0.247987
0.969689 0.5 0.1875 0.877496 0.0646452 0.28056
0.969689 0.5 -0.1875 0.879942 0.0629018 0.220646
0.756814 0.5 0.6375 0.934937 0.0389752 0.311248
0.756814 0.5 -0.6375 0.937338 0.0366266 0.203501
0.411736 0.5 0.9 0.962331 0.0175672 0.288742
0.411736 0.5 -0.901373 0.962332 0.0170736 0.229923
0.90582 0.5 0.4125 0.902138 0.0549848 0.306907
0.90582 0.5 -0.4125 0.905947 0.0521008 0.200462
0.797732 0.5 0.6 0.928602 0.0425345 0.312958
0.797732 0.5 -0.6 0.931563 0.0399025 0.200511
1.00005 0.5 1.48897e-17 0.868262 0.0674554 0.249304
0.350249 0.5 -0.9375 0.964023 0.0145615 0.23442
0.350249 0.5 0.9375 0.964164 0.0148423 0.284329
1.00005 0.5 0.0749309 0.868395 0.0676335 0.262179
1.00005 0.5 -0.0749309 0.869479 0.0668781 0.236595
0.969689 0.5 0.2625 0.880691 0.0638461 0.292114
0.969689 0.5 -0.2625 0.884102 0.0614577 0.210008
0.835106 0.5 0.5625 0.921955 0.046088 0.314169
0.835106 0.5 -0.5625 0.925404 0.0432156 0.197899
1.00005 0.5 0.149862 0.869914 0.0674088 0.274969
1.00005 0.5 -0.149862 0.872075 0.065914 0.224277
0.939201 0.5 0.375 0.893659 0.0588538 0.305273
0.939201 0.5 -0.375 0.897793 0.0558874 0.200084
0.075776 0.5 1.0125 0.966116 0.00401844 0.265299
0.075776 0.5 -1.0125 0.966082 0.00406396 0.252694
0.288069 0.5 0.975 0.965144 0.0121456 0.27991
0.288069 0.5 -0.975 0.965012 0.0119843 0.23872
0.872064 0.5 0.525 0.91467 0.0497726 0.314748
0.872064 0.5 -0.525 0.918608 0.0466757 0.195698
1.00005 0.5 0.224793 0.872738 0.0667886 0.287382
1.00005 0.5 -0.224793 0.876003 0.0645839 0.212664
0.96969 0.5 0.3375 0.884941 0.0626907 0.302964
0.96969 0.5 -0.3375 0.889281 0.0597033 0.200319
1.0271 0.5 0.0368226 0.860783 0.0707971 0.255113
1.0271 0.5 -0.0368226 0.861408 0.070397 0.241767
0.90582 0.5 0.4875 0.907069 0.0534455 0.314784
0.90582 0.5 -0.4875 0.911416 0.0501746 0.193932
1.0271 0.5 0.110468 0.861656 0.0707834 0.268549
1.0271 0.5 -0.110468 0.863404 0.0695946 0.228674
0.67013 0.5 -0.7875 0.950033 0.0291415 0.208379
0.67013 0.5 0.7875 0.948596 0.0309695 0.309011
0.624316 0.5 0.825 0.952535 0.0279663 0.305613
0.624316 0.5 -0.825 0.953566 0.0264334 0.212335
0.219992 0.5 -1.0125 0.965843 0.00936183 0.243373
0.219993 0.5 1.0125 0.965967 0.00939456 0.275095
0.574156 0.5 0.8625 0.956192 0.0249673 0.301836
0.574156 0.5 -0.8625 0.956803 0.0237551 0.216557
0.715434 0.5 0.75 0.943825 0.0342105 0.312187
0.715434 0.5 -0.75 0.945809 0.0320414 0.204431
0.756813 0.5 -0.7125 0.941239 0.0349829 0.200757
0.756814 0.5 0.7125 0.938739 0.0374616 0.31496
0.523432 0.5 0.9 0.959008 0.0222028 0.297951
0.939201 0.5 0.45 0.898762 0.0573297 0.314166
0.939201 0.5 -0.45 0.903565 0.0539007 0.192588
1.04168 0.5 0 0.857028 0.0722458 0.247957
0.523432 0.5 -0.901373 0.959397 0.0212309 0.220642
1.0271 0.5 0.184113 0.863961 0.070361 0.281733
1.0271 0.5 -0.184113 0.866944 0.0684025 0.216125
0 0.5 1.04382 0.965926 0 0.258819
0 0.5 -1.04382 0.965926 0 0.258819
0.0124865 0.5 1.04382 0.965961 0.000664746 0.25989
0.0124865 0.5 -1.04382 0.965956 0.000672202 0.257807
1.00005 0.5 0.299723 0.876763 0.0657884 0.299176
1.00005 0.5 -0.299723 0.881085 0.0629166 0.201982
1.04168 0.5 0.0729162 0.857135 0.0724474 0.261642
1.04168 0.5 -0.0729162 0.858382 0.0716309 0.234451
0.797732 0.5 0.675 0.932857 0.0409342 0.317355
0.797732 0.5 -0.675 0.935983 0.0381284 0.197226
0.467897 0.5 -0.9375 0.961661 0.018757 0.225119
0.467897 0.5 0.9375 0.96158 0.0194356 0.293703
0 0.5 1.05 0.965926 0 0.258819
0 0.5 -1.05 0.965926 0 0.258819
0.835106 0.5 0.6375 0.926626 0.0444169 0.319315
0.835106 0.5 -0.6375 0.930334 0.0413244 0.193994
1.04168 0.5 0.145832 0.858747 0.0722331 0.275258
1.04168 0.5 -0.145832 0.861231 0.0706151 0.221328
0.969689 0.5 -0.4125 0.895288 0.0576774 0.191778
0.96969 0.5 0.4125 0.890134 0.0612059 0.312921
0 0.5 1.05618 0.965926 0 0.258819
0 0.5 -1.05618 0.965926 0 0.258819
0.0124865 0.5 1.05618 0.965964 0.000640348 0.259897
0.0124865 0.5 -1.05618 0.96596 0.000648277 0.257794
1.05695 0.5 -0.0360764 0.853345 0.0736492 0.24048
1.05695 0.5 0.0360764 0.852646 0.0740718 0.254366
0.411736 0.5 0.975 0.963311 0.0168495 0.289424
0.411736 0.5 -0.975 0.963279 0.016367 0.229417
0.872064 0.5 0.6 0.919727 0.0480512 0.320719
0.872064 0.5 -0.6 0.924012 0.0446772 0.191089
1.0271 0.5 0.257759 0.867602 0.0695391 0.294407
1.0271 0.5 -0.257759 0.87176 0.0668491 0.204471
0.151149 0.5 -1.05 0.966032 0.00667128 0.247814
0.151149 0.5 1.05 0.96611 0.00666247 0.270407
1.05695 0.5 0.108229 0.85352 0.0740721 0.268388
1.05695 0.5 -0.108229 0.85546 0.0728148 0.226826
1.04168 0.5 0.218749 0.861776 0.0716101 0.288483
1.04168 0.5 -0.218749 0.865529 0.0692191 0.208945
0.90582 0.5 0.5625 0.912473 0.0516907 0.321649
0.90582 0.5 -0.5625 0.91727 0.0480836 0.188524
1.00005 0.5 0.374654 0.881867 0.0644324 0.310128
1.00005 0.5 -0.374654 0.887169 0.0609474 0.192417
0.350249 0.5 1.0125 0.964829 0.0142494 0.284788
0.350249 0.5 -1.0125 0.96469 0.0139764 0.234001
1.05695 0.5 0.180382 0.855886 0.0736564 0.282143
1.05695 0.5 -0.180382 0.859205 0.0715831 0.213708
0.939201 0.5 0.525 0.904475 0.0555524 0.322019
0.939201 0.5 -0.525 0.909848 0.0517185 0.186301
1.0271 0.5 -0.331404 0.877754 0.0649634 0.193851
1.0271 0.5 0.331404 0.872458 0.0683386 0.306329
1.08112 0.5 3.20924e-17 0.845842 0.0766587 0.246591
1.04168 0.5 0.291665 0.866114 0.0705932 0.30107
1.04168 0.5 -0.291665 0.871082 0.0674707 0.197549
1.08112 0.5 0.0709442 0.845908 0.0768836 0.261023
1.08112 0.5 -0.0709442 0.847323 0.0760111 0.232351
0.96969 0.5 0.4875 0.896092 0.0594294 0.321836
0.96969 0.5 -0.4875 0.901944 0.0554217 0.184479
1.05695 0.5 0.252535 0.859652 0.0728327 0.295382
1.05695 0.5 -0.252535 0.864265 0.0699814 0.201554
0.288069 0.5 1.05 0.965604 0.0116538 0.28019
0.288069 0.5 -1.05 0.965472 0.0115027 0.238442
0.075776 0.5 -1.0875 0.966109 0.00391608 0.252619
0.075776 0.5 1.0875 0.966138 0.00386779 0.26534
1.08112 0.5 0.141888 0.847562 0.0766845 0.275399
1.08112 0.5 -0.141888 0.850382 0.0749535 0.218483
0.715434 0.5 0.825 0.947191 0.0327312 0.314596
0.715434 0.5 -0.825 0.949168 0.0304972 0.20284
0.756814 0.5 0.7875 0.942582 0.0358682 0.317905
0.756814 0.5 -0.7875 0.945108 0.033296 0.198784
0.67013 0.5 0.8625 0.951473 0.0296159 0.310944
0.67013 0.5 -0.8625 0.952883 0.0277468 0.207106
0.797732 0.5 0.75 0.937206 0.0392337 0.32091
0.797732 0.5 -0.75 0.940404 0.0362955 0.194809
0.624316 0.5 0.9 0.954972 0.0267345 0.307136
1.00005 0.5 0.449585 0.88789 0.0627533 0.32006
1.00005 0.5 -0.449585 0.894056 0.0587166 0.184137
0.624316 0.5 -0.901373 0.956032 0.0251517 0.211276
0.835106 0.5 0.7125 0.931458 0.0426226 0.323546
0.835106 0.5 -0.7125 0.935301 0.0393536 0.191057
0.574156 0.5 -0.9375 0.958757 0.0226459 0.215779
0.574156 0.5 0.9375 0.958184 0.0238669 0.303004
1.10076 0.5 0.0349809 0.839542 0.0791633 0.253271
1.10076 0.5 -0.0349809 0.840325 0.0787123 0.238549
1.08112 0.5 0.212832 0.850714 0.0760686 0.289376
1.08112 0.5 -0.212832 0.854965 0.0735067 0.205384
0.872064 0.5 0.675 0.925015 0.04618 0.325703
0.872064 0.5 -0.675 0.92954 0.0425805 0.187552
1.04168 0.5 -0.364581 0.877741 0.0654053 0.187328
1.04168 0.5 0.364581 0.871625 0.069206 0.312784
1.0271 0.5 -0.405049 0.884707 0.0627858 0.18451