# UMean  POINT_DATA 63140
# x  y  z  UMean_x  UMean_y  UMean_z
0 0.1 0 0.965926 0 0.258819
0 0.1 -0.0179898 0.965926 0 0.258819
0 0.1 0.0179898 0.965926 0 0.258819
0.0363518 0.1 -0.0179898 0.968809 0.00734878 0.258777
0.0363518 0.1 0.0179898 0.968848 0.00735954 0.259177
0 0.1 -0.0570102 0.965926 0 0.258819
0 0.1 0.0570102 0.965926 0 0.258819
0.0363518 0.1 0.0570102 0.968848 0.00735954 0.259177
0.0363518 0.1 -0.0570102 0.968809 0.00734878 0.258777
0 0.1 0.075 0.965926 0 0.258819
0 0.1 -0.075 0.965926 0 0.258819
0.075776 0.1 -0.0375 0.971982 0.0154455 0.258729
0.075776 0.1 0.0375 0.972063 0.0154674 0.259562
0 0.1 0.0929898 0.965926 0 0.258819
0 0.1 -0.0929898 0.965926 0 0.258819
0.0363518 0.1 0.0929898 0.968844 0.00734296 0.259569
0.0363518 0.1 -0.0929898 0.968746 0.00731598 0.258378
0 0.1 0.13201 0.965926 0 0.258819
0 0.1 -0.13201 0.965926 0 0.258819
0.075776 0.1 0.1125 0.972055 0.0154334 0.26038
0.075776 0.1 -0.1125 0.971851 0.0153792 0.257895
0.0363518 0.1 0.13201 0.968844 0.00734296 0.259569
0.0363518 0.1 -0.13201 0.968746 0.00731598 0.258378
0 0.1 0.15 0.965926 0 0.258819
0 0.1 -0.15 0.965926 0 0.258819
0.150379 0.1 -8.67362e-19 0.974207 0.0148321 0.259136
0.150379 0.1 0.0710023 0.974181 0.0148556 0.260394
0 0.1 0.16799 0.965926 0 0.258819
0 0.1 -0.16799 0.965926 0 0.258819
0.150379 0.1 -0.075 0.97429 0.01479 0.257709
0.0363518 0.1 0.16799 0.968806 0.00730918 0.259947
0.0363518 0.1 -0.16799 0.968694 0.00728429 0.257987
0.075776 0.1 0.1875 0.971977 0.0153649 0.261168
0.075776 0.1 -0.1875 0.971745 0.0153152 0.257079
0 0.1 0.20701 0.965926 0 0.258819
0 0.1 -0.20701 0.965926 0 0.258819
0.0363518 0.1 0.20701 0.968806 0.00730918 0.259947
0.0363518 0.1 -0.20701 0.968694 0.00728429 0.257987
0.150379 0.1 -0.15 0.974467 0.0147402 0.256278
0.150379 0.1 0.15 0.974371 0.0148168 0.261946
0.219992 0.1 -0.0375 0.976356 0.0142205 0.258135
0.219992 0.1 0.0375 0.976232 0.0142601 0.26012
0 0.1 0.225 0.965926 0 0.258819
0 0.1 -0.225 0.965926 0 0.258819
0 0.1 0.24299 0.965926 0 0.258819
0 0.1 -0.24299 0.965926 0 0.258819
0.0363518 0.1 0.24299 0.968758 0.00727299 0.260306
0.0363518 0.1 -0.24299 0.968661 0.00725646 0.257618
0.219992 0.1 0.1125 0.976397 0.0142749 0.262079
0.219993 0.1 -0.1125 0.976761 0.0141797 0.256133
0.150379 0.1 -0.225 0.974667 0.0146942 0.254887
0.150379 0.1 0.225 0.974592 0.0147644 0.263325
0.075776 0.1 -0.2625 0.971677 0.0152582 0.256311
0.075776 0.1 0.2625 0.971879 0.0152916 0.261916
0 0.1 -0.28201 0.965926 0 0.258819
0 0.1 0.28201 0.965926 0 0.258819
0.0363518 0.1 -0.28201 0.968661 0.00725646 0.257618
0.0363518 0.1 0.28201 0.968758 0.00727299 0.260306
0.287374 0.1 0 0.973338 0.0137617 0.258924
0.219992 0.1 -0.1875 0.977273 0.0141502 0.254114
0.219993 0.1 0.1875 0.976846 0.0142552 0.264053
0.287374 0.1 0.0710023 0.973406 0.0137908 0.261223
0.287374 0.1 -0.075 0.973579 0.0137358 0.256337
0 0.1 0.3 0.965926 0 0.258819
0 0.1 -0.3 0.965926 0 0.258819
0 0.1 0.31799 0.965926 0 0.258819
0 0.1 -0.31799 0.965926 0 0.258819
0.0363518 0.1 0.31799 0.968721 0.00723971 0.260637
0.0363518 0.1 -0.31799 0.96864 0.00722719 0.257279
0.287374 0.1 0.15 0.973646 0.0137877 0.26403
0.287374 0.1 -0.15 0.974029 0.0137066 0.25374
0.150379 0.1 -0.3 0.974857 0.0146451 0.253583
0.150379 0.1 0.3 0.974835 0.0146992 0.26465
0.219993 0.1 -0.2625 0.977709 0.0141159 0.252208
0.219993 0.1 0.2625 0.97743 0.0142057 0.266002
0.075776 0.1 0.3375 0.971805 0.0152236 0.262608
0.075776 0.1 -0.3375 0.971635 0.0151982 0.255605
0.350249 0.1 0.0375 0.970465 0.0133115 0.260301
0.350249 0.1 -0.0375 0.970563 0.0132983 0.257158
0 0.1 -0.35701 0.965926 0 0.258819
0 0.1 0.35701 0.965926 0 0.258819
0.0363518 0.1 0.35701 0.968721 0.00723971 0.260637
0.0363518 0.1 -0.35701 0.96864 0.00722719 0.257279
0.287374 0.1 0.225 0.974164 0.0137607 0.266554
0.287374 0.1 -0.225 0.974566 0.0136623 0.251205
0.350249 0.1 0.1125 0.970607 0.0133298 0.263409
0.350249 0.1 -0.1125 0.970904 0.0132871 0.253991
0 0.1 0.375 0.965926 0 0.258819
0 0.1 -0.375 0.965926 0 0.258819
0 0.1 -0.39299 0.965926 0 0.258819
0 0.1 0.39299 0.965926 0 0.258819
0.0363518 0.1 -0.39299 0.968634 0.00720096 0.256968
0.0363518 0.1 0.39299 0.968696 0.00720891 0.260931
0.350249 0.1 -0.1875 0.971449 0.0132516 0.250841
0.350249 0.1 0.1875 0.971001 0.0133346 0.266495
0.219992 0.1 0.3375 0.977962 0.0141353 0.267857
0.219993 0.1 -0.3375 0.978123 0.0140699 0.250421
0.150379 0.1 0.375 0.975073 0.0146291 0.265887
0.150379 0.1 -0.375 0.975058 0.0145918 0.252374
0.411108 0.1 0 0.965491 0.013551 0.258313
0.287374 0.1 0.3 0.974802 0.0136971 0.269003
0.287374 0.1 -0.3 0.975117 0.013596 0.248809
0.411108 0.1 0.0710023 0.965607 0.0135574 0.26172
0.411108 0.1 -0.075 0.965746 0.0135364 0.254506
0.075776 0.1 0.4125 0.971754 0.0151607 0.26322
0.075776 0.1 -0.4125 0.971624 0.015145 0.254956
0 0.1 0.43201 0.965926 0 0.258819
0 0.1 -0.43201 0.965926 0 0.258819
0.0363518 0.1 0.43201 0.968696 0.00720891 0.260931
0.0363518 0.1 -0.43201 0.968634 0.00720096 0.256968
0.411108 0.1 -0.15 0.966268 0.0135065 0.250726
0.411108 0.1 0.15 0.96583 0.0135719 0.265844
0.350249 0.1 -0.2625 0.972097 0.013175 0.247824
0.350249 0.1 0.2625 0.971646 0.0132906 0.269534
0 0.1 0.45 0.965926 0 0.258819
0 0.1 -0.45 0.965926 0 0.258819
0.219992 0.1 -0.4125 0.978545 0.0140155 0.248777
0.219992 0.1 0.4125 0.978477 0.0140567 0.269596
0 0.1 0.46799 0.965926 0 0.258819
0 0.1 -0.46799 0.965926 0 0.258819
0.411108 0.1 0.225 0.966438 0.0135499 0.269525
0.411108 0.1 -0.225 0.967003 0.0134418 0.247056
0.467897 0.1 -0.0375 0.960743 0.0137796 0.255694
0.467897 0.1 0.0375 0.960614 0.0137915 0.260134
0.0363518 0.1 0.46799 0.968684 0.00718377 0.261194
0.0363518 0.1 -0.46799 0.968648 0.00717655 0.256675
0.287374 0.1 0.375 0.975478 0.0136041 0.271311
0.287374 0.1 -0.375 0.975686 0.0135085 0.246588
0.150379 0.1 0.45 0.975303 0.0145616 0.267003
0.150379 0.1 -0.45 0.975255 0.014534 0.251274
0.467897 0.1 0.1125 0.960805 0.0138016 0.264537
0.467897 0.1 -0.1125 0.961191 0.0137578 0.251267
0.350249 0.1 0.3375 0.972432 0.0132003 0.272438
0.350249 0.1 -0.3375 0.972794 0.0130693 0.245
0.075776 0.1 -0.4875 0.971653 0.0150951 0.254347
0.075776 0.1 0.4875 0.97173 0.0151096 0.263767
0.467897 0.1 0.1875 0.961323 0.0137987 0.268863
0.467897 0.1 -0.1875 0.96194 0.0137074 0.246942
0 0.1 0.50701 0.965926 0 0.258819
0 0.1 -0.50701 0.965926 0 0.258819
0.0363518 0.1 -0.50701 0.968648 0.00717655 0.256675
0.0363518 0.1 0.50701 0.968684 0.00718377 0.261194
0.411108 0.1 0.3 0.967305 0.01348 0.273082
0.411108 0.1 -0.3 0.967879 0.0133356 0.243585
0.522865 0.1 -9.1073e-18 0.954282 0.014395 0.257321
0 0.1 0.525 0.965926 0 0.258819
0 0.1 -0.525 0.965926 0 0.258819
0.522865 0.1 0.0710023 0.954427 0.0143918 0.261934
0.522865 0.1 -0.075 0.954634 0.0143684 0.2522
0.287374 0.1 0.45 0.976158 0.0134889 0.273421
0.287374 0.1 -0.45 0.976241 0.0134005 0.244578
0.219992 0.1 -0.4875 0.978874 0.0139428 0.247322
0.219992 0.1 0.4875 0.978935 0.0139803 0.271113
0.467897 0.1 0.2625 0.962189 0.0137532 0.273083
0.467897 0.1 -0.2625 0.962927 0.0136117 0.242802
0.350249 0.1 -0.4125 0.973522 0.0129287 0.242415
0.350249 0.1 0.4125 0.97329 0.0130695 0.27513
0 0.1 0.54299 0.965926 0 0.258819
0 0.1 -0.54299 0.965926 0 0.258819
0.522865 0.1 -0.15 0.955359 0.0143131 0.247167
0.522865 0.1 0.15 0.954734 0.0143992 0.267498
0.0363518 0.1 0.54299 0.968691 0.00715861 0.261434
0.0363518 0.1 -0.54299 0.968668 0.00715085 0.256409
0.150379 0.1 -0.525 0.975441 0.0144692 0.250288
0.150379 0.1 0.525 0.975513 0.0144946 0.267971
0.411108 0.1 0.375 0.968351 0.0133605 0.276432
0.411108 0.1 -0.375 0.968847 0.0131895 0.240376
0.075776 0.1 0.5625 0.971743 0.0150584 0.264267
0.075776 0.1 -0.5625 0.971694 0.0150425 0.253793
0.522865 0.1 0.225 0.955551 0.0143601 0.272434
0.522865 0.1 -0.225 0.956417 0.0142137 0.24232
0.574156 0.1 0.0375 0.94804 0.0149885 0.259656
0.574157 0.1 -0.0375 0.94823 0.0149677 0.253844
0.467897 0.1 -0.3375 0.964082 0.0134662 0.238944
0.467897 0.1 0.3375 0.963349 0.0136534 0.277101
0 0.1 0.58201 0.965926 0 0.258819
0 0.1 -0.58201 0.965926 0 0.258819
0.0363518 0.1 0.58201 0.968691 0.00715861 0.261434
0.0363518 0.1 -0.58201 0.968668 0.00715085 0.256409
0.574156 0.1 0.1125 0.948298 0.0149872 0.265434
0.574156 0.1 -0.1125 0.948866 0.0149166 0.248093
0.287374 0.1 0.525 0.976797 0.0133567 0.275279
0.287374 0.1 -0.525 0.976779 0.0132772 0.242794
0 0.1 0.6 0.965926 0 0.258819
0 0.1 -0.6 0.965926 0 0.258819
0.350249 0.1 0.4875 0.974161 0.0128979 0.277582
0.350249 0.1 -0.4875 0.974247 0.012768 0.240098
0.522865 0.1 -0.3 0.957746 0.0140594 0.237755
0.522865 0.1 0.3 0.956755 0.0142694 0.277181
0.219992 0.1 0.5625 0.979306 0.0138929 0.272377
0.219992 0.1 -0.5625 0.979207 0.0138598 0.246033
0.574156 0.1 0.1875 0.949002 0.0149574 0.271096
0.574157 0.1 -0.1875 0.949922 0.0148201 0.242514
0.411108 0.1 0.45 0.9695 0.0131923 0.279517
0.411108 0.1 -0.45 0.969871 0.0130097 0.237474
0 0.1 0.61799 0.965926 0 0.258819
0 0.1 -0.61799 0.965926 0 0.258819
0.150379 0.1 0.6 0.975713 0.0144216 0.268799
0.150379 0.1 -0.6 0.975639 0.0144007 0.249414
0.0363518 0.1 -0.61799 0.968688 0.00712696 0.256174
0.0363518 0.1 0.61799 0.968706 0.00713116 0.261648
0.623413 0.1 0 0.940703 0.0158895 0.25601
0.467897 0.1 0.4125 0.964712 0.0134975 0.280843
0.467897 0.1 -0.4125 0.965351 0.0132752 0.235419
0.623803 0.1 0.0710023 0.94086 0.0158827 0.261897
0.623803 0.1 -0.075 0.941206 0.0158366 0.249507
0.574156 0.1 0.2625 0.950174 0.0148801 0.276581
0.574157 0.1 -0.2625 0.95135 0.0146672 0.237217
0.623803 0.1 -0.15 0.942226 0.0157329 0.243153
0.623803 0.1 0.15 0.941293 0.0158759 0.268994
0.075776 0.1 0.6375 0.971775 0.0150023 0.264714
0.075776 0.1 -0.6375 0.971736 0.0149937 0.253303
0.522865 0.1 -0.375 0.959276 0.01385 0.233552
0.522865 0.1 0.375 0.958277 0.0141184 0.281649
0 0.1 0.65701 0.965926 0 0.258819
0 0.1 -0.65701 0.965926 0 0.258819
0.0363518 0.1 0.65701 0.968706 0.00713116 0.261648
0.0363518 0.1 -0.65701 0.968688 0.00712696 0.256174
0.350249 0.1 0.5625 0.974995 0.0127086 0.27974
0.350249 0.1 -0.5625 0.974991 0.0125951 0.23806
0.623803 0.1 0.225 0.942391 0.0158023 0.275273
0.623803 0.1 -0.225 0.94372 0.0155681 0.237074
0.287374 0.1 0.6 0.977399 0.0132146 0.276874
0.287374 0.1 -0.6 0.977337 0.0131449 0.241233
0.574156 0.1 0.3375 0.951776 0.0147413 0.2818
0.574157 0.1 -0.3375 0.953075 0.014447 0.232295
0.411108 0.1 0.525 0.970685 0.0129858 0.282289
0.411108 0.1 -0.525 0.970938 0.012808 0.234904
0.67013 0.1 0.0375 0.933395 0.016784 0.258924
0.67013 0.1 -0.0375 0.93368 0.0167441 0.251669
0.219993 0.1 0.6375 0.979674 0.0137974 0.273446
0.219993 0.1 -0.6375 0.979569 0.0137721 0.244902
0 0.1 0.675 0.965926 0 0.258819
0 0.1 -0.675 0.965926 0 0.258819
0.467897 0.1 0.4875 0.966193 0.0132843 0.284256
0.467897 0.1 -0.4875 0.966702 0.0130508 0.232272
0.67013 0.1 0.1125 0.933729 0.0167736 0.266155
0.67013 0.1 -0.1125 0.934578 0.0166459 0.244525
0.522865 0.1 -0.45 0.960955 0.0135961 0.229771
0.522865 0.1 0.45 0.960028 0.0139047 0.285763
0.150379 0.1 0.675 0.975923 0.0143439 0.269505
0.150379 0.1 -0.675 0.975849 0.0143324 0.248656
0.623803 0.1 0.3 0.944015 0.0156668 0.281292
0.623803 0.1 -0.3 0.945621 0.0153344 0.231377
0 0.1 -0.69299 0.965926 0 0.258819
0 0.1 0.69299 0.965926 0 0.258819
0.0363518 0.1 0.69299 0.968723 0.0071045 0.261832
0.0363518 0.1 -0.69299 0.968704 0.00710644 0.255974
0.67013 0.1 0.1875 0.934674 0.0167123 0.273239
0.67013 0.1 -0.1875 0.936056 0.0164791 0.237633
0.574156 0.1 0.4125 0.95372 0.014534 0.286645
0.574157 0.1 -0.4125 0.955021 0.014169 0.22783
0.714619 0.1 4.77049e-18 0.925315 0.0179508 0.254433
0.075776 0.1 0.7125 0.97181 0.0149479 0.265097
0.075776 0.1 -0.7125 0.971771 0.0149519 0.252885
0.714971 0.1 0.0710023 0.925466 0.0179479 0.261663
0.714971 0.1 -0.075 0.926018 0.0178578 0.246473
0.67013 0.1 0.2625 0.936232 0.0165877 0.280072
0.67013 0.1 -0.2625 0.938051 0.0162391 0.23113
0.411108 0.1 0.6 0.971869 0.0127607 0.284708
0.411108 0.1 -0.6 0.972047 0.0125914 0.232678
0.350249 0.1 0.6375 0.975812 0.0125168 0.28159
0.350249 0.1 -0.6375 0.975768 0.0124138 0.236303
0.623803 0.1 0.375 0.946102 0.0154593 0.286943
0.623803 0.1 -0.375 0.947848 0.0150317 0.226161
0.714971 0.1 0.15 0.926057 0.017926 0.270385
0.714971 0.1 -0.15 0.927415 0.0176861 0.238731
0.467897 0.1 0.5625 0.967717 0.0130347 0.287282
0.467897 0.1 -0.5625 0.96812 0.0128048 0.229526
0 0.1 0.73201 0.965926 0 0.258819
0 0.1 -0.73201 0.965926 0 0.258819
0.0363518 0.1 0.73201 0.968723 0.0071045 0.261832
0.0363518 0.1 -0.73201 0.968704 0.00710644 0.255974
0.287374 0.1 0.675 0.978004 0.0130664 0.278224
0.287374 0.1 -0.675 0.977923 0.0130062 0.239896
0.522865 0.1 0.525 0.961916 0.0136367 0.289463
0.522865 0.1 -0.525 0.962748 0.0133112 0.226448
0.219992 0.1 0.7125 0.980065 0.0136944 0.274346
0.219992 0.1 -0.7125 0.979954 0.0136795 0.243937
0.714971 0.1 -0.225 0.929453 0.0174292 0.231356
0.714971 0.1 0.225 0.927492 0.0178078 0.278091
0 0.1 0.75 0.965926 0 0.258819
0 0.1 -0.75 0.965926 0 0.258819
0.67013 0.1 -0.3375 0.940483 0.0159207 0.225107
0.67013 0.1 0.3375 0.938379 0.0163885 0.286565
0.574157 0.1 0.4875 0.955908 0.0142579 0.291059
0.574157 0.1 -0.4875 0.957141 0.0138507 0.223875
0.756813 0.1 0.0375 0.91716 0.0191279 0.257986
0.756814 0.1 -0.0375 0.917568 0.0190583 0.24921
0.150379 0.1 -0.75 0.976062 0.0142653 0.248021
0.150379 0.1 0.75 0.976143 0.0142646 0.270093
0.756813 0.1 0.1125 0.917574 0.0191149 0.266755
0.756814 0.1 -0.1125 0.918783 0.018896 0.240596
0 0.1 0.76799 0.965926 0 0.258819
0 0.1 -0.76799 0.965926 0 0.258819
0.0363518 0.1 0.76799 0.968738 0.00708112 0.261982
0.0363518 0.1 -0.76799 0.968717 0.0070888 0.255809
0.623803 0.1 0.45 0.948554 0.0151776 0.292135
0.623803 0.1 -0.45 0.950331 0.0146745 0.221504
0.714971 0.1 0.3 0.929617 0.0176103 0.285459
0.714971 0.1 -0.3 0.93205 0.0170842 0.224484
0.756813 0.1 0.1875 0.918791 0.0190146 0.275344
0.756813 0.1 -0.1875 0.920768 0.018639 0.232322
0.67013 0.1 -0.4125 0.943262 0.0155304 0.219691
0.67013 0.1 0.4125 0.941014 0.0161067 0.292569
0.411108 0.1 0.675 0.973055 0.0125258 0.286761
0.411108 0.1 -0.675 0.973191 0.0123642 0.230803
0.467897 0.1 0.6375 0.96925 0.0127679 0.289888
0.467897 0.1 -0.6375 0.96959 0.0125422 0.227192
0.075776 0.1 -0.7875 0.971797 0.014916 0.252541
0.075776 0.1 0.7875 0.971842 0.0149002 0.265408
0.350249 0.1 -0.7125 0.976568 0.0122249 0.234832
0.350249 0.1 0.7125 0.976637 0.0123187 0.283139
0.791054 0.1 0.0690034 0.910876 0.0202372 0.261308
0.522865 0.1 0.6 0.963871 0.013334 0.292697
0.522865 0.1 -0.6 0.964623 0.0130044 0.223605
0.797314 0.1 -3.03577e-18 0.90885 0.0205619 0.252505
0.797314 0.1 -0.075 0.909512 0.0204633 0.243152
0.756814 0.1 0.2625 0.920798 0.0188298 0.283615
0.756814 0.1 -0.2625 0.923439 0.0182787 0.224537
0.287374 0.1 -0.75 0.978522 0.012863 0.238788
0.287374 0.1 0.75 0.978621 0.0129117 0.27934
0.574156 0.1 0.5625 0.95824 0.0139277 0.294969
0.574156 0.1 -0.5625 0.959391 0.0135036 0.220461
0 0.1 0.80701 0.965926 0 0.258819
0 0.1 -0.80701 0.965926 0 0.258819
0.714971 0.1 -0.375 0.935115 0.0166588 0.218234
0.714971 0.1 0.375 0.932365 0.0173243 0.292364
0.0363518 0.1 0.80701 0.968738 0.00708112 0.261982
0.0363518 0.1 -0.80701 0.968717 0.0070888 0.255809
0.797314 0.1 0.15 0.90946 0.0205847 0.271713
0.797314 0.1 -0.15 0.911359 0.0202009 0.233948
0.623803 0.1 0.525 0.951261 0.0148276 0.296795
0.623803 0.1 -0.525 0.953008 0.0142788 0.217452
0.219992 0.1 -0.7875 0.980343 0.0135839 0.243145
0.219992 0.1 0.7875 0.980469 0.013585 0.275083
0 0.1 0.825 0.965926 0 0.258819
0 0.1 -0.825 0.965926 0 0.258819
0.797314 0.1 0.225 0.911277 0.0204134 0.280926
0.797314 0.1 -0.225 0.91404 0.0198204 0.225215
0.756813 0.1 -0.3375 0.926706 0.0178223 0.2174
0.756814 0.1 0.3375 0.923566 0.0185509 0.291442
0.67013 0.1 0.4875 0.944024 0.0157479 0.298032
0.67013 0.1 -0.4875 0.946315 0.0150927 0.214932
0.835106 0.1 0.0375 0.89975 0.0221354 0.256894
0.835106 0.1 -0.0375 0.900314 0.0220213 0.246529
0.150379 0.1 -0.825 0.97627 0.0141999 0.24751
0.150379 0.1 0.825 0.976363 0.0141865 0.270564
0.835106 0.1 0.1125 0.90024 0.0221215 0.267273
0.835106 0.1 -0.1125 0.901904 0.0217757 0.236376
0 0.1 -0.84299 0.965926 0 0.258819
0 0.1 0.84299 0.965926 0 0.258819
0.0363518 0.1 -0.84299 0.968725 0.0070737 0.255679
0.0363518 0.1 0.84299 0.96875 0.00706113 0.262096
0.714971 0.1 -0.45 0.93855 0.0161695 0.212696
0.714971 0.1 0.45 0.935622 0.0169493 0.298686
0.797314 0.1 0.3 0.91397 0.0201356 0.289712
0.797314 0.1 -0.3 0.917456 0.0193279 0.217128
0.467897 0.1 0.7125 0.970789 0.0124882 0.292066
0.467897 0.1 -0.7125 0.97109 0.0122696 0.225275
0.522865 0.1 0.675 0.965853 0.0130109 0.295439
0.522865 0.1 -0.675 0.966549 0.0126828 0.22125
0.411108 0.1 -0.75 0.974351 0.0121306 0.229281
0.411108 0.1 0.75 0.974246 0.012283 0.28845
0.835106 0.1 -0.1875 0.904486 0.0213942 0.226649
0.835107 0.1 0.1875 0.901758 0.0219836 0.277438
0.574156 0.1 0.6375 0.960639 0.0135671 0.29833
0.574156 0.1 -0.6375 0.961724 0.0131366 0.217605
0.350249 0.1 -0.7875 0.977375 0.0120331 0.233649
0.350249 0.1 0.7875 0.977465 0.012115 0.284393
0.756814 0.1 0.4125 0.926984 0.0181699 0.298694
0.756814 0.1 -0.4125 0.930456 0.0172905 0.211012
0.623803 0.1 0.6 0.954123 0.0144268 0.300856
0.623803 0.1 -0.6 0.955817 0.0138558 0.214032
0.075776 0.1 0.8625 0.971867 0.0148595 0.265647
0.075776 0.1 -0.8625 0.971816 0.0148853 0.252271
0.871687 0.1 -0.00399773 0.891158 0.0237844 0.249589
0.287374 0.1 -0.825 0.979119 0.0127172 0.237911
0.287374 0.1 0.825 0.979238 0.0127527 0.280229
0.871687 0.1 0.075 0.89084 0.0239044 0.261884
0.871687 0.1 -0.075 0.892116 0.0236134 0.239594
0.67013 0.1 0.5625 0.947293 0.0153167 0.30285
0.67013 0.1 -0.5625 0.949565 0.0146178 0.210876
0.835106 0.1 0.2625 0.904273 0.0217234 0.287218
0.835106 0.1 -0.2625 0.907951 0.0208757 0.217545
0.797314 0.1 0.375 0.917466 0.0197461 0.297931
0.797314 0.1 -0.375 0.921493 0.0187425 0.209823
0 0.1 -0.88201 0.965926 0 0.258819
0 0.1 0.88201 0.965926 0 0.258819
0.0363518 0.1 0.88201 0.96875 0.00706113 0.262096
0.0363518 0.1 -0.88201 0.968725 0.0070737 0.255679
0.871687 0.1 0.15 0.891941 0.0238203 0.272994
0.871687 0.1 -0.15 0.894461 0.023232 0.228869
0.714971 0.1 0.525 0.939262 0.0164921 0.304334
0.714971 0.1 -0.525 0.942263 0.0156332 0.207929
0.219992 0.1 0.8625 0.980871 0.0134737 0.275662
0.219993 0.1 -0.8625 0.980723 0.0134872 0.242527
0 0.1 0.9 0.965926 0 0.258819
0 0.1 -0.9 0.965926 0 0.258819
0.756813 0.1 0.4875 0.93092 0.0176952 0.305223
0.756814 0.1 -0.4875 0.934579 0.0166984 0.205454
0.871687 0.1 0.225 0.894169 0.0235881 0.283778
0.871687 0.1 -0.225 0.897858 0.0226946 0.218733
0.835106 0.1 0.3375 0.907738 0.021339 0.29644
0.835106 0.1 -0.3375 0.912188 0.0202461 0.20926
0.90582 0.1 -0.0375 0.882377 0.0254533 0.243659
0.905821 0.1 0.0375 0.881649 0.0256271 0.255666
0.150379 0.1 0.9 0.976574 0.014112 0.270917
0.150379 0.1 -0.9 0.976466 0.014136 0.247123
0.90582 0.1 0.1125 0.882214 0.0256225 0.267713
0.90582 0.1 -0.1125 0.884357 0.0250957 0.231911
0.522865 0.1 -0.75 0.968488 0.0123527 0.219382
0.522865 0.1 0.75 0.96784 0.0126753 0.297684
0.574156 0.1 0.7125 0.96306 0.013186 0.301126
0.574156 0.1 -0.7125 0.96409 0.0127567 0.21531
0.797314 0.1 0.45 0.921633 0.0192466 0.305427
0.797314 0.1 -0.45 0.926025 0.0180815 0.203398
0.467897 0.1 -0.7875 0.972593 0.0119922 0.223772
0.467897 0.1 0.7875 0.972329 0.0122021 0.293819
0 0.1 0.91799 0.965926 0 0.258819
0 0.1 -0.91799 0.965926 0 0.258819
0.0363518 0.1 0.91799 0.968757 0.00704456 0.262176
0.0363518 0.1 -0.91799 0.968731 0.00706069 0.255584
0.623803 0.1 0.675 0.957055 0.0139945 0.304285
0.623803 0.1 -0.675 0.958695 0.0134158 0.211255
0.411108 0.1 -0.825 0.975502 0.0118937 0.228105
0.411108 0.1 0.825 0.97543 0.0120347 0.289782
0.871687 0.1 0.3 0.897474 0.0232109 0.294043
0.871687 0.1 -0.3 0.902182 0.0220183 0.209397
0.67013 0.1 0.6375 0.950702 0.0148397 0.306974
0.67013 0.1 -0.6375 0.952933 0.0141199 0.207543
0.90582 0.1 0.1875 0.884043 0.025443 0.279515
0.905821 0.1 -0.1875 0.887571 0.0245588 0.220682
0.350249 0.1 0.8625 0.978284 0.0119073 0.285359
0.350249 0.1 -0.8625 0.978168 0.0118386 0.232747
0.835106 0.1 0.4125 0.912044 0.0208291 0.304973
0.835106 0.1 -0.4125 0.91705 0.019528 0.201883
0.714971 0.1 0.6 0.943151 0.0159684 0.309239
0.714971 0.1 -0.6 0.94616 0.0150655 0.203969
0.93886 0.1 -0.00399773 0.872901 0.0278104 0.247325
0.075776 0.1 0.9375 0.971884 0.0148258 0.265813
0.075776 0.1 -0.9375 0.971829 0.0148588 0.252072
0.93886 0.1 0.075 0.872501 0.0279907 0.261501
0.93886 0.1 -0.075 0.874136 0.0275581 0.235816
0.756813 0.1 0.5625 0.935234 0.0171358 0.310975
0.756814 0.1 -0.5625 0.938969 0.0160633 0.200782
0.90582 0.1 0.2625 0.887082 0.0250936 0.29086
0.905821 0.1 -0.2625 0.891877 0.023851 0.210237
0.287374 0.1 0.9 0.979843 0.0125934 0.280895
0.287374 0.1 -0.9 0.979698 0.0125702 0.237258
0.871687 0.1 0.375 0.901773 0.0226905 0.303621
0.871687 0.1 -0.375 0.907286 0.0212298 0.201008
0.93886 0.1 0.15 0.873801 0.0278889 0.274322
0.93886 0.1 -0.15 0.877033 0.0270193 0.223485
0.797314 0.1 0.525 0.926316 0.018648 0.31209
0.797314 0.1 -0.525 0.930925 0.0173634 0.197931
0 0.1 0.95701 0.965926 0 0.258819
0 0.1 -0.95701 0.965926 0 0.258819
0.0363518 0.1 0.95701 0.968757 0.00704456 0.262176
0.0363518 0.1 -0.95701 0.968731 0.00706069 0.255584
0.219992 0.1 0.9375 0.981254 0.0133647 0.276075
0.219992 0.1 -0.9375 0.981082 0.0133889 0.242078
0.93886 0.1 0.225 0.876469 0.0275817 0.28676
0.93886 0.1 -0.225 0.881224 0.0262801 0.211874
0.90582 0.1 0.3375 0.891265 0.0245819 0.301533
0.905821 0.1 -0.3375 0.89714 0.0230076 0.20076
0.835107 0.1 0.4875 0.917025 0.020201 0.312609
0.835107 0.1 -0.4875 0.922405 0.0187323 0.195532
0.969689 0.1 0.0375 0.862978 0.0302853 0.254398
0.969689 0.1 -0.0375 0.863916 0.0300331 0.240628
0.574156 0.1 0.7875 0.965474 0.0127944 0.303358
0.574156 0.1 -0.7875 0.966443 0.0123706 0.213566
0 0.1 0.975 0.965926 0 0.258819
0 0.1 -0.975 0.965926 0 0.258819
0.623803 0.1 0.75 0.960003 0.0135437 0.307071
0.623803 0.1 -0.75 0.96158 0.0129668 0.209113
0.96969 0.1 0.1125 0.863616 0.0302971 0.268235
0.96969 0.1 -0.1125 0.866338 0.0295237 0.227161
0.522865 0.1 -0.825 0.970403 0.0120186 0.217989
0.522865 0.1 0.825 0.969812 0.0123321 0.29944
0.67013 0.1 0.7125 0.954166 0.014334 0.310381
0.67013 0.1 -0.7125 0.95634 0.0136096 0.204933
0.871687 0.1 0.45 0.90692 0.0220317 0.312332
0.871687 0.1 -0.45 0.913011 0.02035 0.193687
0.467897 0.1 0.8625 0.973851 0.0119102 0.295157
0.467897 0.1 -0.8625 0.974064 0.0117118 0.222669
0.714971 0.1 -0.675 0.950144 0.0144811 0.200824
0.714971 0.1 0.675 0.947167 0.0154006 0.313354
0.93886 0.1 0.3 0.880434 0.0270781 0.29858
0.93886 0.1 -0.3 0.886543 0.0253671 0.201208
0.150379 0.1 0.975 0.97677 0.0140414 0.271152
0.150379 0.1 -0.975 0.976649 0.0140724 0.246853
0.969689 0.1 -0.1875 0.870296 0.0287771 0.214322
0.969689 0.1 0.1875 0.86578 0.0300627 0.281787
0.411108 0.1 0.9 0.97659 0.0117853 0.29077
0.411108 0.1 -0.9 0.97662 0.0116556 0.227263
0.756813 0.1 0.6375 0.939764 0.0165134 0.31587
0.756813 0.1 -0.6375 0.943511 0.0154062 0.197019
0.990306 0.1 3.46945e-18 0.858422 0.0313671 0.245779
0 0.1 0.99299 0.965926 0 0.258819
0 0.1 -0.99299 0.965926 0 0.258819
0.990306 0.1 0.075 0.857959 0.0315906 0.261116
0.990306 0.1 -0.075 0.859885 0.0310299 0.232781
0.0363518 0.1 0.99299 0.968762 0.00703031 0.262223
0.0363518 0.1 -0.99299 0.968735 0.00704881 0.255521
0.905821 0.1 0.4125 0.896484 0.0239106 0.311379
0.905821 0.1 -0.4125 0.903164 0.0220514 0.192374
0.797314 0.1 0.6 0.931348 0.0179666 0.317849
0.797314 0.1 -0.6 0.93606 0.0166115 0.193464
0.350249 0.1 0.9375 0.979078 0.0117028 0.28605
0.350249 0.1 -0.9375 0.978933 0.0116445 0.232115
0.990306 0.1 0.15 0.859423 0.0314799 0.275274
0.990306 0.1 -0.15 0.863236 0.0303545 0.219187
0.969689 0.1 -0.2625 0.87556 0.0278173 0.202425
0.969689 0.1 0.2625 0.869405 0.0295994 0.294799
0.835106 0.1 0.5625 0.922493 0.0194741 0.319312
0.835106 0.1 -0.5625 0.928098 0.0178894 0.190267
0.93886 0.1 0.375 0.8856 0.0263868 0.309576
0.93886 0.1 -0.375 0.892817 0.0243131 0.191658
0.075776 0.1 1.0125 0.971893 0.0147968 0.26591
0.075776 0.1 -1.0125 0.971838 0.0148346 0.251942
0.990306 0.1 0.225 0.862452 0.031115 0.289007
0.990306 0.1 -0.225 0.86808 0.0294404 0.20641
0.287374 0.1 0.975 0.980421 0.0124365 0.281346
0.287374 0.1 -0.975 0.980249 0.0124218 0.236818
0.871687 0.1 0.525 0.912721 0.0212513 0.320039
0.871687 0.1 -0.525 0.919197 0.0194057 0.187532
1.02149 0.1 -0.0369628 0.849733 0.0335915 0.237196
1.02149 0.1 0.0369628 0.846751 0.0344302 0.25298
0.969689 0.1 -0.3375 0.881978 0.0266832 0.191616
0.96969 0.1 0.3375 0.874401 0.0289127 0.307013
1.02149 0.1 0.110888 0.847438 0.0344745 0.268065
1.02149 0.1 -0.110888 0.850568 0.0334839 0.223324
0.90582 0.1 0.4875 0.90254 0.0230899 0.320174
0.905821 0.1 -0.4875 0.909789 0.0210089 0.18523
0 0.1 1.03201 0.965926 0 0.258819
0 0.1 -1.03201 0.965926 0 0.258819
0.0363518 0.1 1.03201 0.968762 0.00703031 0.262223
0.0363518 0.1 -1.03201 0.968735 0.00704881 0.255521
0.67013 0.1 0.7875 0.957623 0.013814 0.313072
0.67013 0.1 -0.7875 0.959713 0.0130952 0.203023
0.623803 0.1 -0.825 0.964413 0.0125159 0.207582
0.623803 0.1 0.825 0.962922 0.013083 0.309226
0.990306 0.1 0.3 0.86696 0.0305086 0.30205
0.990306 0.1 -0.3 0.874217 0.0283219 0.194683
0.219992 0.1 -1.0125 0.981417 0.0132869 0.241788
0.219992 0.1 1.0125 0.981612 0.0132577 0.276332
0.574156 0.1 -0.8625 0.968741 0.0119828 0.212349
0.574157 0.1 0.8625 0.96785 0.0123957 0.305042
0.714971 0.1 0.75 0.951216 0.0148084 0.316667
0.714971 0.1 -0.75 0.954122 0.0138904 0.198478
1.02149 0.1 0.184814 0.849834 0.0342218 0.282856
1.02149 0.1 -0.184814 0.855049 0.032579 0.209323
0.756814 0.1 0.7125 0.944384 0.0158527 0.319881
0.756813 0.1 -0.7125 0.948091 0.0147395 0.194157
0.522865 0.1 0.9 0.971738 0.0119865 0.300723
0.522865 0.1 -0.9 0.972258 0.0116847 0.217044
0.93886 0.1 0.45 0.891803 0.0255197 0.319556
0.93886 0.1 -0.45 0.899856 0.0231476 0.183401
1.04168 0.1 0 0.840563 0.0361764 0.244697
1.04168 0.1 0.0729162 0.840337 0.0363823 0.260181
1.04168 0.1 -0.0729162 0.842536 0.0356663 0.229428
0.797314 0.1 0.675 0.936571 0.0172258 0.322645
0.797314 0.1 -0.675 0.941295 0.0158458 0.190001
0.467897 0.1 0.9375 0.975326 0.0116203 0.296099
0.467897 0.1 -0.9375 0.97548 0.0114322 0.221942
0 0.1 1.05 0.965926 0 0.258819
0 0.1 -1.05 0.965926 0 0.258819
0.835106 0.1 0.6375 0.928273 0.0186631 0.324972
0.835106 0.1 -0.6375 0.933976 0.0170237 0.186113
1.04168 0.1 0.145832 0.841891 0.0362832 0.275574
1.04168 0.1 -0.145832 0.846251 0.0348466 0.214648
1.02149 0.1 0.25874 0.853863 0.0336972 0.297074
1.02149 0.1 -0.25874 0.860995 0.0314292 0.196356
0.969689 0.1 0.4125 0.880647 0.0280226 0.318227
0.969689 0.1 -0.4125 0.889338 0.0254087 0.182119
0.411108 0.1 0.975 0.977706 0.0115382 0.291432
0.411108 0.1 -0.975 0.977689 0.0114185 0.226732
0.871687 0.1 0.6 0.91897 0.0203703 0.326656
0.871687 0.1 -0.6 0.925671 0.0184308 0.182588
1.0579 0.1 -0.0360525 0.836599 0.0373325 0.234161
1.0579 0.1 0.0360525 0.834704 0.0379096 0.251802
0.990306 0.1 0.375 0.872835 0.0296742 0.314161
0.990306 0.1 -0.375 0.881463 0.0270361 0.18422
0.150379 0.1 1.05 0.976948 0.0139738 0.271275
0.150379 0.1 -1.05 0.976819 0.0140084 0.246696
1.0579 0.1 -0.108157 0.83878 0.0368235 0.220624
1.0579 0.1 0.108157 0.835353 0.0379836 0.267674
1.04168 0.1 0.218749 0.845153 0.035881 0.290529
1.04168 0.1 -0.218749 0.851617 0.033747 0.200741
0.90582 0.1 0.5625 0.909208 0.0221498 0.327838
0.905821 0.1 -0.5625 0.916825 0.0199203 0.179389
0 0.1 -1.06799 0.965926 0 0.258819
0 0.1 1.06799 0.965926 0 0.258819
0.0363518 0.1 -1.06799 0.968739 0.00703728 0.255491
0.0363518 0.1 1.06799 0.968764 0.00701815 0.262237
0.350249 0.1 1.0125 0.979837 0.0114998 0.286483
0.350249 0.1 -1.0125 0.979662 0.0114497 0.231733
1.0579 0.1 -0.180262 0.843487 0.0358013 0.205871
1.0579 0.1 0.180262 0.83777 0.0377278 0.283254
1.02149 0.1 0.332665 0.859414 0.0329053 0.310444
1.02149 0.1 -0.332665 0.868267 0.0300753 0.184553
0.93886 0.1 0.525 0.898811 0.0244993 0.328351
0.93886 0.1 -0.525 0.907459 0.0219086 0.176561
1.08012 0.1 1.70581e-17 0.827527 0.0401685 0.242987
1.04168 0.1 0.291665 0.85003 0.0351921 0.304764
1.04168 0.1 -0.291665 0.858422 0.0324093 0.187956
1.08012 0.1 0.0709941 0.827233 0.0404232 0.259293
1.08012 0.1 -0.074001 0.829789 0.0395486 0.225526
0.969689 0.1 -0.4875 0.897451 0.0240286 0.17414
0.96969 0.1 0.4875 0.887911 0.0269422 0.328259
1.0579 0.1 0.252367 0.841882 0.0371687 0.298256
1.0579 0.1 -0.252367 0.849722 0.0345115 0.192202
0.990306 0.1 -0.45 0.889609 0.0256189 0.175235
0.990306 0.1 0.45 0.879897 0.0286299 0.325145
0.287374 0.1 -1.05 0.980769 0.0122726 0.236575
0.287374 0.1 1.05 0.980964 0.0122808 0.281594
1.08012 0.1 0.141988 0.828782 0.0403416 0.275525
1.08012 0.1 -0.141988 0.833545 0.0386537 0.211316
0.075776 0.1 1.0875 0.971898 0.014772 0.26594
0.075776 0.1 -1.0875 0.971846 0.0148111 0.251879
0.714971 0.1 0.825 0.955223 0.0142056 0.319191
0.714971 0.1 -0.825 0.958009 0.0133025 0.196891
0.756813 0.1 0.7875 0.949 0.0151758 0.323007
0.756813 0.1 -0.7875 0.952604 0.0140739 0.192159
0.67013 0.1 0.8625 0.961015 0.0132864 0.315069
0.67013 0.1 -0.8625 0.962988 0.0125848 0.201775
0.797314 0.1 -0.75 0.946498 0.015082 0.187516
0.797314 0.1 0.75 0.94185 0.0164534 0.326466
0.623803 0.1 0.9 0.965768 0.0126204 0.310771
0.623803 0.1 -0.9 0.967146 0.0120697 0.206624
0.835106 0.1 0.7125 0.934193 0.0178003 0.329569
0.835107 0.1 -0.7125 0.939876 0.0161573 0.18305
0.574156 0.1 0.9375 0.970148 0.0119984 0.306201
0.574156 0.1 -0.9375 0.970944 0.011599 0.21162
1.02149 0.1 -0.406591 0.876641 0.0285516 0.174282
1.02149 0.1 0.406591 0.866349 0.0318709 0.322732
1.08012 0.1 -0.212982 0.839175 0.0374142 0.196626
1.08012 0.1 0.212982 0.8321 0.0399236 0.291318
1.10076 0.1 -0.0349809 0.82058 0.0423824 0.233738
1.10076 0.1 0.0349809 0.819307 0.0428333 0.250426
0.871687 0.1 0.675 0.925467 0.019415 0.332122
0.871687 0.1 -0.675 0.932252 0.0174459 0.17886
1.04168 0.1 0.364581 0.856396 0.0342315 0.318018
1.04168 0.1 -0.364581 0.866493 0.0308713 0.176552
1.10076 0.1 0.104943 0.819949 0.0429456 0.26728
1.10076 0.1 -0.104943 0.823638 0.0415766 0.217346
0.522865 0.1 0.975 0.973587 0.0116436 0.301562
0.522865 0.1 -0.975 0.974024 0.0113551 0.216515
1.0579 0.1 0.324472 0.847574 0.0363126 0.312396