3.00079 	0 	0 	0
3.00237 	0 	0 	0
3.00401 	0 	0 	0
3.0057 	0 	0 	0
3.00744 	0 	0 	0
3.00924 	0 	0 	0
3.01109 	0 	0 	0
3.013 	0 	0 	0
3.01496 	0 	0 	0
3.01699 	0 	0 	0
3.01908 	0 	0 	0
3.02123 	0 	0 	0
3.02345 	0 	0 	0
3.02573 	0 	0 	0
3.02809 	0 	0 	0
3.03052 	0 	0 	0
3.03302 	0 	0 	0
3.0356 	0 	0 	0
3.03826 	0 	0 	0
3.04101 	0 	0 	0
3.04384 	0 	0 	0
3.04675 	0 	0 	0
3.04975 	0 	0 	0
3.05284 	0 	0 	0
3.05603 	0 	0 	0
3.05932 	0 	0 	0
3.06271 	0 	0 	0
3.0662 	0 	0 	0
3.0698 	0 	0 	0
3.07351 	0 	0 	0
3.07734 	0 	0 	0
3.08128 	0 	0 	0
3.08534 	0 	0 	0
3.08953 	0 	0 	0
3.09385 	0 	0 	0
3.0983 	0 	0 	0
3.10288 	0 	0 	0
3.10761 	0 	0 	0
3.11248 	0 	0 	0
3.11751 	0 	0 	0
3.12269 	0 	0 	0
3.12802 	0 	0 	0
3.13352 	0 	0 	0
3.13919 	0 	0 	0
3.14503 	0 	0 	0
3.15105 	0 	0 	0
3.15726 	0 	0 	0
3.16366 	0 	0 	0
3.17025 	0 	0 	0
3.17705 	0 	0 	0
3.18406 	0 	0 	0
3.19128 	0 	0 	0
3.19872 	0 	0 	0
3.20639 	0 	0 	0
3.2143 	0 	0 	0
3.22245 	0 	0 	0
3.23085 	0 	0 	0
3.23951 	0 	0 	0
3.24843 	0 	0 	0
3.25763 	0 	0 	0
3.26711 	0 	0 	0
3.27688 	0 	0 	0
3.28695 	0 	0 	0
3.29733 	0 	0 	0
3.30804 	0 	0 	0
3.31907 	0 	0 	0
3.33043 	0 	0 	0
3.34215 	0 	0 	0
3.35423 	0 	0 	0
3.36668 	0 	0 	0
3.37951 	0 	0 	0
3.39274 	0 	0 	0
3.40637 	0 	0 	0
3.42042 	0 	0 	0
3.4349 	0 	0 	0
3.44983 	0 	0 	0
3.46521 	0 	0 	0
3.48107 	0 	0 	0
3.49742 	0 	0 	0
3.51427 	0 	0 	0
3.53163 	0 	0 	0
3.54954 	0 	0 	0
3.56799 	0 	0 	0
3.587 	0 	0 	0
3.6066 	0 	0 	0
3.6268 	0 	0 	0
3.64762 	0 	0 	0
3.66908 	0 	0 	0
3.69121 	0 	0 	0
3.71401 	0 	0 	0
3.73751 	0 	0 	0
3.76174 	0 	0 	0
3.78671 	0 	0 	0
3.81244 	0 	0 	0
3.83896 	0 	0 	0
3.86631 	0 	0 	0
3.89449 	0 	0 	0
3.92354 	0 	0 	0
3.95347 	0 	0 	0
3.98433 	0 	0 	0
4.05 	0 	0 	0
4.15 	0 	0 	0
4.25 	0 	0 	0
4.35 	0 	0 	0
4.45 	0 	0 	0
4.55 	0 	0 	0
4.65 	0 	0 	0
4.75 	0 	0 	0
4.85 	0 	0 	0
4.95 	0 	0 	0
5.05 	0 	0 	0
5.15 	0 	0 	0
5.25 	0 	0 	0
5.35 	0 	0 	0
5.45 	0 	0 	0
5.55 	0 	0 	0
5.62857 	0 	0 	0
5.67857 	0 	0 	0
5.72571 	0 	0 	0
5.77571 	0 	0 	0
5.81735 	0 	0 	0
5.86735 	0 	0 	0
5.94898 	0 	0 	0
5.99898 	0 	0 	0
6.01567 	0 	0 	0
6.04652 	0 	0 	0
6.07646 	0 	0 	0
6.10551 	0 	0 	0
6.13369 	0 	0 	0
6.16104 	0 	0 	0
6.18756 	0 	0 	0
6.2133 	0 	0 	0
6.23827 	0 	0 	0
6.26249 	0 	0 	0
6.28599 	0 	0 	0
6.30879 	0 	0 	0
6.33091 	0 	0 	0
6.35238 	0 	0 	0
6.3732 	0 	0 	0
6.3934 	0 	0 	0
6.413 	0 	0 	0
6.43201 	0 	0 	0
6.45046 	0 	0 	0
6.46836 	0 	0 	0
6.48573 	0 	0 	0
6.50258 	0 	0 	0
6.51893 	0 	0 	0
6.53479 	0 	0 	0
6.55017 	0 	0 	0
6.5651 	0 	0 	0
6.57958 	0 	0 	0
6.59363 	0 	0 	0
6.60726 	0 	0 	0
6.62049 	0 	0 	0
6.63332 	0 	0 	0
6.64577 	0 	0 	0
6.65785 	0 	0 	0
6.66957 	0 	0 	0
6.68093 	0 	0 	0
6.69196 	0 	0 	0
6.70267 	0 	0 	0
6.71305 	0 	0 	0
6.72312 	0 	0 	0
6.73289 	0 	0 	0
6.74237 	0 	0 	0
6.75157 	0 	0 	0
6.76049 	0 	0 	0
6.76915 	0 	0 	0
6.77755 	0 	0 	0
6.78571 	0 	0 	0
6.79361 	0 	0 	0
6.80129 	0 	0 	0
6.80872 	0 	0 	0
6.81594 	0 	0 	0
6.82295 	0 	0 	0
6.82975 	0 	0 	0
6.83634 	0 	0 	0
6.84274 	0 	0 	0
6.84895 	0 	0 	0
6.85497 	0 	0 	0
6.86082 	0 	0 	0
6.86648 	0 	0 	0
6.87198 	0 	0 	0
6.87732 	0 	0 	0
6.88249 	0 	0 	0
6.88752 	0 	0 	0
6.89239 	0 	0 	0
6.89712 	0 	0 	0
6.9017 	0 	0 	0
6.90615 	0 	0 	0
6.91047 	0 	0 	0
6.91465 	0 	0 	0
6.91872 	0 	0 	0
6.92266 	0 	0 	0
6.92648 	0 	0 	0
6.9302 	0 	0 	0
6.9338 	0 	0 	0
6.93729 	0 	0 	0
6.94068 	0 	0 	0
6.94397 	0 	0 	0
6.94716 	0 	0 	0
6.95025 	0 	0 	0
6.95325 	0 	0 	0
6.95616 	0 	0 	0
6.95899 	0 	0 	0
6.96174 	0 	0 	0
6.9644 	0 	0 	0
6.96698 	0 	0 	0
6.96948 	0 	0 	0
6.97191 	0 	0 	0
6.97427 	0 	0 	0
6.97655 	0 	0 	0
6.97877 	0 	0 	0
6.98092 	0 	0 	0
6.98301 	0 	0 	0
6.98504 	0 	0 	0
6.987 	0 	0 	0
6.98891 	0 	0 	0
6.99076 	0 	0 	0
6.99255 	0 	0 	0
6.9943 	0 	0 	0
6.99599 	0 	0 	0
6.99762 	0 	0 	0
6.99921 	0 	0 	0
