# wallShearStress  FACE_DATA 60650
# x  y  z  wallShearStress_x  wallShearStress_y  wallShearStress_z
8.75721 0 0.345731 0.000477983 -1.23758e-05 0.000588274
8.72516 0 0.336919 0.000324749 -1.3627e-05 0.000464047
8.69439 0 0.328456 0.000167423 -1.56055e-05 0.000332322
8.66483 0 0.320329 1.85972e-05 -1.30673e-05 0.000196243
8.63646 0 0.312526 -0.000117268 -8.08955e-06 5.89446e-05
8.6092 0 0.305031 -0.000238856 -6.83827e-06 -7.36671e-05
8.58303 0 0.297833 -0.000331569 -2.55726e-06 -0.000188015
8.82531 0 0.430728 0.000933566 -1.13091e-05 0.0011218
8.79057 0 0.419435 0.000825786 -1.05106e-05 0.00101188
8.75721 0 0.408591 0.000714912 -1.08064e-05 0.00089013
8.72516 0 0.398176 0.000587113 -1.18933e-05 0.000748961
8.69439 0 0.388175 0.000446358 -1.16534e-05 0.000595944
8.66483 0 0.378571 0.000302677 -1.29376e-05 0.000434938
8.63646 0 0.369348 0.00015891 -1.45314e-05 0.000270424
8.6092 0 0.360491 1.93806e-05 -1.23428e-05 0.000105788
8.58303 0 0.351985 -0.000107284 -8.6615e-06 -5.1238e-05
8.5579 0 0.343817 -0.000209555 -6.93395e-06 -0.000196543
8.53376 0 0.335973 -0.000277297 -6.71751e-07 -0.000315605
8.51058 0 0.32844 -0.000308328 3.37444e-06 -0.000414126
8.9384 0 0.539403 0.00141181 -1.16081e-05 0.00184375
8.89917 0 0.52469 0.00133318 -1.0247e-05 0.00173618
8.8615 0 0.510562 0.00123858 -1.08336e-05 0.00161244
8.82531 0 0.496994 0.00113038 -1.04196e-05 0.00147915
8.79057 0 0.483964 0.00102392 -1.06529e-05 0.00133778
8.75721 0 0.471451 0.000920958 -1.02608e-05 0.0011977
8.72516 0 0.459434 0.000810213 -1.1547e-05 0.00104807
8.69439 0 0.447895 0.000685927 -1.19129e-05 0.000888384
8.66483 0 0.436813 0.000553251 -1.18762e-05 0.000719111
8.63646 0 0.426171 0.000417157 -1.10468e-05 0.000544217
8.6092 0 0.415951 0.000278707 -1.31448e-05 0.000364233
8.58303 0 0.406136 0.000139698 -1.51261e-05 0.000182797
8.5579 0 0.396712 8.21772e-06 -1.15926e-05 7.04805e-06
8.53376 0 0.387661 -0.000105364 -7.27262e-06 -0.000155319
8.51058 0 0.378969 -0.000189292 -3.51847e-06 -0.000298951
8.48833 0 0.370622 -0.000230727 6.72121e-07 -0.000416481
8.46695 0 0.362605 -0.00024001 5.57857e-06 -0.000511252
8.9384 0 0.611323 0.00155109 -1.12199e-05 0.00217009
8.89917 0 0.594649 0.00145817 -8.07863e-06 0.00204631
8.8615 0 0.578636 0.00137576 -8.89452e-06 0.0019158
8.82531 0 0.563259 0.00129018 -9.31615e-06 0.00177866
8.79057 0 0.548492 0.00119454 -9.026e-06 0.001635
8.75721 0 0.534311 0.00109501 -8.73672e-06 0.00148445
8.72516 0 0.520692 0.000996851 -9.07266e-06 0.00133258
8.69439 0 0.507614 0.000893419 -9.95618e-06 0.00117539
8.66483 0 0.495055 0.00077929 -1.08815e-05 0.00100733
8.63646 0 0.482994 0.000657326 -1.09841e-05 0.000831393
8.6092 0 0.471411 0.000529183 -1.12163e-05 0.000648241
8.58303 0 0.460288 0.000396228 -1.10592e-05 0.000459235
8.5579 0 0.449607 0.000260447 -1.36835e-05 0.00026653
8.53376 0 0.439349 0.000126318 -1.49123e-05 7.54683e-05
8.51058 0 0.429498 3.91342e-06 -1.03994e-05 -0.000105702
8.48833 0 0.420038 -9.51125e-05 -3.93007e-06 -0.000270074
8.46695 0 0.410953 -0.000156798 -1.15739e-06 -0.000410577
8.44642 0 0.402229 -0.000178125 2.86124e-06 -0.000526948
8.42671 0 0.393851 -0.000177009 4.51472e-06 -0.000616473
8.9384 0 0.683243 0.00166724 -1.05641e-05 0.00238053
8.89917 0 0.664607 0.0015799 -5.09567e-06 0.00226707
8.8615 0 0.646711 0.0015089 -7.40206e-06 0.00213261
8.82531 0 0.629525 0.0014283 -7.04935e-06 0.00200058
8.79057 0 0.613021 0.00134955 -8.30211e-06 0.0018597
8.75721 0 0.597171 0.00126458 -7.65679e-06 0.00171688
8.72516 0 0.58195 0.00116429 -8.30252e-06 0.00156438
8.69439 0 0.567333 0.00106985 -7.93979e-06 0.00140934
8.66483 0 0.553296 0.000973312 -8.89621e-06 0.00125017
8.63646 0 0.539816 0.000868787 -9.6881e-06 0.00108294
8.6092 0 0.526871 0.000755437 -1.0383e-05 0.000907497
8.58303 0 0.51444 0.000635528 -1.07591e-05 0.000724227
8.5579 0 0.502501 0.00050842 -1.10085e-05 0.000533553
8.53376 0 0.491037 0.000375758 -1.1705e-05 0.000337751
8.51058 0 0.480027 0.000241423 -1.37438e-05 0.000139632
8.48833 0 0.469454 0.000112631 -1.33582e-05 -5.27751e-05
8.46695 0 0.4593 6.34744e-07 -8.12432e-06 -0.000232594
8.44642 0 0.44955 -8.09055e-05 -1.02649e-06 -0.000393116
8.42671 0 0.440186 -0.000120091 8.5667e-07 -0.00053129
8.40778 0 0.431194 -0.000124576 2.6329e-06 -0.000646398
8.38959 0 0.422558 -0.000115199 3.05791e-06 -0.000729491
8.9384 0 0.755163 0.00177589 -1.15203e-05 0.00248887
8.89917 0 0.734566 0.00169051 -2.80953e-06 0.00239223
8.8615 0 0.714786 0.00162656 -6.66803e-06 0.00226271
8.82531 0 0.69579 0.00155073 -5.48419e-06 0.00213978
8.79057 0 0.677549 0.00147358 -6.1876e-06 0.00200976
8.75721 0 0.660031 0.00139352 -6.46095e-06 0.00188042
8.72516 0 0.643208 0.00131593 -7.7001e-06 0.00174321
8.69439 0 0.627053 0.00123056 -6.69699e-06 0.00159994
8.66483 0 0.611538 0.00113754 -7.21568e-06 0.00144727
8.63646 0 0.596639 0.00104596 -7.72411e-06 0.00129008
8.6092 0 0.582331 0.000948927 -8.50865e-06 0.00112972
8.58303 0 0.568591 0.00084609 -9.40759e-06 0.00096039
8.5579 0 0.555397 0.000733966 -1.01874e-05 0.000781211
8.53376 0 0.542725 0.00061301 -1.0571e-05 0.000593445
8.51058 0 0.530556 0.000485078 -1.16873e-05 0.000398281
8.48833 0 0.518871 0.000352363 -1.21738e-05 0.000198788
8.46695 0 0.507648 0.000221009 -1.31959e-05 -1.49849e-07
8.44642 0 0.496871 9.99355e-05 -1.21009e-05 -0.000190901
8.42671 0 0.486522 3.33693e-06 -4.54618e-06 -0.000366991
8.40778 0 0.476583 -5.54627e-05 -2.55792e-07 -0.000524178
8.38959 0 0.467038 -7.23857e-05 3.14608e-06 -0.000660057
8.9384 0 0.827083 0.00187115 -1.17235e-05 0.00252031
8.89917 0 0.804525 0.00179114 -1.06001e-06 0.00244267
8.8615 0 0.782861 0.0017308 -6.23774e-06 0.00232416
8.82531 0 0.762056 0.00165605 -4.15276e-06 0.00221749
8.79057 0 0.742077 0.00158477 -5.29148e-06 0.00209968
8.75721 0 0.722891 0.00150611 -5.14101e-06 0.00198081
8.72516 0 0.704466 0.00143129 -5.64291e-06 0.0018574
8.69439 0 0.686772 0.00136331 -6.75185e-06 0.00173163
8.66483 0 0.66978 0.0012876 -7.12529e-06 0.00159537
8.63646 0 0.653462 0.00119772 -6.55647e-06 0.00145513
8.6092 0 0.637792 0.00111129 -6.37013e-06 0.00130313
8.58303 0 0.622743 0.00102406 -7.38253e-06 0.0011509
8.5579 0 0.608291 0.000929545 -8.58428e-06 0.000989486
8.53376 0 0.594413 0.000825051 -9.51176e-06 0.000818657
8.51058 0 0.581085 0.000711548 -1.01227e-05 0.00063686
8.48833 0 0.568287 0.000589285 -1.09248e-05 0.000445753
8.46695 0 0.555995 0.000459996 -1.22713e-05 0.000247406
8.44642 0 0.544192 0.000328452 -1.20417e-05 4.64532e-05
8.42671 0 0.532857 0.000202566 -1.13206e-05 -0.00015133
8.40778 0 0.521972 9.43987e-05 -8.22991e-06 -0.000338428
8.38959 0 0.511518 1.95656e-05 -2.63253e-06 -0.000510528
8.9384 0 0.899004 0.00195709 -1.21447e-05 0.00247302
8.89917 0 0.874483 0.00188127 2.24364e-07 0.00242065
8.8615 0 0.850935 0.00182021 -6.39876e-06 0.00231848
8.82531 0 0.828322 0.0017471 -2.85943e-06 0.00223392
8.79057 0 0.806606 0.00168061 -4.71961e-06 0.00213262
8.75721 0 0.785751 0.00160929 -4.16796e-06 0.00203278
8.72516 0 0.765724 0.00153831 -4.77817e-06 0.00192221
8.69439 0 0.746491 0.00146553 -5.14098e-06 0.00181121
8.66483 0 0.728022 0.00139499 -6.38115e-06 0.00169596
8.63646 0 0.710285 0.00133496 -6.55646e-06 0.00157504
8.6092 0 0.693252 0.00125694 -6.83883e-06 0.00144173
8.58303 0 0.676895 0.00116384 -5.99887e-06 0.00130347
8.5579 0 0.661186 0.00108718 -6.40901e-06 0.00115406
8.53376 0 0.646101 0.00100145 -7.51288e-06 0.00100543
8.51058 0 0.631614 0.000908725 -8.77451e-06 0.000844812
8.48833 0 0.617703 0.000804197 -9.7238e-06 0.000671931
8.46695 0 0.604343 0.000689098 -1.01521e-05 0.00048715
8.44642 0 0.591513 0.000565121 -1.20446e-05 0.000292708
8.42671 0 0.579192 0.000435797 -1.29035e-05 9.21934e-05
8.40778 0 0.56736 0.000307762 -1.12365e-05 -0.000108879
8.38959 0 0.555998 0.000193142 -8.81741e-06 -0.000303682
8.37214 0 0.545086 0.000103643 -4.24188e-06 -0.000488004
8.9384 0 0.970925 0.0020201 -1.24599e-05 0.00234966
8.89917 0 0.944442 0.00195156 9.11481e-07 0.00232478
8.8615 0 0.91901 0.00189036 -6.63897e-06 0.00224772
8.82531 0 0.894588 0.0018224 -1.64077e-06 0.00218895
8.79057 0 0.871135 0.00176011 -3.94457e-06 0.00210653
8.75721 0 0.848612 0.00169332 -2.77149e-06 0.00202637
8.72516 0 0.826982 0.00163022 -3.59988e-06 0.00193524
8.69439 0 0.806211 0.00156602 -3.51732e-06 0.00184006
8.66483 0 0.786263 0.00150032 -4.13689e-06 0.00173903
8.63646 0 0.767108 0.00143631 -5.10032e-06 0.00163466
8.6092 0 0.748712 0.00137093 -5.59885e-06 0.00153273
8.58303 0 0.731046 0.00131233 -6.07778e-06 0.00140972
8.5579 0 0.714081 0.00123334 -4.95739e-06 0.00128585
8.53376 0 0.697789 0.00114533 -4.41747e-06 0.00114921
8.51058 0 0.682144 0.00107279 -5.90242e-06 0.00100617
8.48833 0 0.667119 0.000990036 -7.45844e-06 0.000855928
8.46695 0 0.65269 0.000895405 -8.76442e-06 0.000693187
8.44642 0 0.638834 0.000788411 -9.56983e-06 0.000517963
8.42671 0 0.625528 0.000671974 -1.12968e-05 0.000331053
8.40778 0 0.612749 0.000547986 -1.26996e-05 0.000135009
8.38959 0 0.600478 0.000421563 -1.20878e-05 -6.56094e-05
8.37214 0 0.588693 0.000301754 -1.1246e-05 -0.00026374
8.97926 0 1.07246 0.00205889 6.25219e-06 0.00223364
8.9384 0 1.04284 0.0020486 -1.46999e-05 0.002165
8.89917 0 1.0144 0.00198844 4.86618e-07 0.00217739
8.8615 0 0.987085 0.00193248 -7.90908e-06 0.00213172
8.82531 0 0.960854 0.00187161 -2.49001e-06 0.00210056
8.79057 0 0.935663 0.00181074 -5.96405e-06 0.00204258
8.75721 0 0.911471 0.00174689 -3.69574e-06 0.0019881
8.72516 0 0.88824 0.00168609 -4.5012e-06 0.00192065
8.69439 0 0.86593 0.00162222 -3.67242e-06 0.00185062
8.66483 0 0.844505 0.00155838 -3.86329e-06 0.00177186
8.63646 0 0.823931 0.00149306 -4.08028e-06 0.001686
8.6092 0 0.804172 0.00143344 -5.41429e-06 0.00159116
8.58303 0 0.785198 0.00137607 -6.77287e-06 0.00148815
8.5579 0 0.766976 0.00132336 -6.32501e-06 0.0013869
8.53376 0 0.749477 0.00126453 -7.1465e-06 0.00126714
8.51058 0 0.732673 0.00118558 -5.27308e-06 0.00114526
8.48833 0 0.716535 0.00111444 -5.90821e-06 0.00100923
8.46695 0 0.701038 0.00104293 -7.26216e-06 0.000864672
8.44642 0 0.686155 0.000959819 -8.57627e-06 0.000712964
8.42671 0 0.671863 0.000865811 -9.4601e-06 0.000548316
8.40778 0 0.658138 0.00076022 -1.10292e-05 0.000370226
8.38959 0 0.644957 0.00064505 -1.2568e-05 0.000180705
8.37214 0 0.6323 0.000524145 -1.2943e-05 -1.69045e-05
8.97926 0 1.14643 0.00203999 8.47973e-06 0.00197823
8.9384 0 1.11476 0.00205569 -1.59598e-05 0.00192884
8.89917 0 1.08436 0.00200732 1.35929e-06 0.00197192
8.8615 0 1.05516 0.00196761 -7.83258e-06 0.00194836
8.82531 0 1.02712 0.00192093 -1.31921e-06 0.00194182
8.79057 0 1.00019 0.00187235 -4.46835e-06 0.00190672
8.75721 0 0.974331 0.00181905 -1.94949e-06 0.00187175
8.72516 0 0.949498 0.00176539 -3.2434e-06 0.00182251
8.69439 0 0.925649 0.0017102 -2.21868e-06 0.00177133
8.66483 0 0.902747 0.00165725 -2.78561e-06 0.00171141
8.63646 0 0.880753 0.00160729 -2.90569e-06 0.0016471
8.6092 0 0.859632 0.00155937 -3.08356e-06 0.0015765
8.58303 0 0.839349 0.00150344 -3.24604e-06 0.00150432
8.5579 0 0.819871 0.00144083 -3.736e-06 0.00142406
8.53376 0 0.801165 0.00137746 -3.96596e-06 0.00134053
8.51058 0 0.783202 0.00133 -4.78608e-06 0.0012406
8.48833 0 0.765951 0.00127339 -5.18942e-06 0.00112715
8.46695 0 0.749385 0.00119373 -4.09213e-06 0.00100481
8.44642 0 0.733476 0.00112029 -4.82895e-06 0.000870167
8.42671 0 0.718198 0.00104572 -6.6747e-06 0.00073029
8.40778 0 0.703526 0.000963026 -8.25108e-06 0.000576427
8.38959 0 0.689437 0.000866166 -9.99823e-06 0.00041124
8.37214 0 0.675907 0.000760299 -1.18905e-05 0.000232606
8.97926 0 1.22039 0.00200221 1.01281e-05 0.00170644
8.9384 0 1.18669 0.00203701 -1.82663e-05 0.00169169
8.89917 0 1.15432 0.00199969 1.73701e-06 0.00177892
8.8615 0 1.12324 0.00196438 -9.21748e-06 0.00179213
8.82531 0 1.09339 0.00191326 -1.93874e-06 0.00181699
8.79057 0 1.06472 0.00186229 -5.90148e-06 0.00180971
8.75721 0 1.03719 0.0018071 -3.20304e-06 0.00179676
8.72516 0 1.01076 0.00175193 -4.64542e-06 0.00176698
8.69439 0 0.985369 0.00169728 -3.54692e-06 0.00173285
8.66483 0 0.960988 0.00164433 -3.62674e-06 0.00168939
8.63646 0 0.937576 0.0015903 -2.61422e-06 0.00164208
8.6092 0 0.915092 0.00153632 -2.30899e-06 0.00158878
8.58303 0 0.893501 0.00148512 -2.45392e-06 0.00152937
8.5579 0 0.872766 0.00144204 -3.65433e-06 0.00145834
8.53376 0 0.852853 0.00140358 -5.53299e-06 0.00137714
8.51058 0 0.833731 0.0013589 -6.38008e-06 0.00128958
8.48833 0 0.815368 0.00131022 -6.23623e-06 0.00120444
8.46695 0 0.797732 0.00126821 -6.45354e-06 0.00110855
8.44642 0 0.780797 0.00120928 -4.88972e-06 0.000999537
8.42671 0 0.764534 0.00114389 -5.00763e-06 0.000875148
8.40778 0 0.748915 0.00108452 -5.44425e-06 0.000738841
8.38959 0 0.733917 0.00100925 -6.94819e-06 0.000600004
8.37214 0 0.719513 0.000934114 -8.0569e-06 0.000446764
8.97926 0 1.29435 0.00187981 1.43764e-05 0.00140933
8.9384 0 1.25861 0.00194707 -1.77263e-05 0.00139516
8.89917 0 1.22428 0.00194739 3.01766e-06 0.00147593
8.8615 0 1.19131 0.00195217 -9.99333e-06 0.00149758
8.82531 0 1.15965 0.00194409 -1.43423e-06 0.0015351
8.79057 0 1.12925 0.00192642 -4.46203e-06 0.00155275
8.75721 0 1.10005 0.0018987 -1.28633e-06 0.00156736
8.72516 0 1.07202 0.00186114 -2.42135e-06 0.00157054
8.69439 0 1.04509 0.00181788 -1.2453e-06 0.00156757
8.66483 0 1.01923 0.0017712 -1.48324e-06 0.00155425
8.63646 0 0.994399 0.00172388 -8.72496e-07 0.00153354
8.6092 0 0.970553 0.00167823 -1.1309e-06 0.00150229
8.58303 0 0.947652 0.00163435 -1.33979e-06 0.00146309
8.5579 0 0.925661 0.0015906 -1.49431e-06 0.00141675
8.53376 0 0.904541 0.00154158 -1.62774e-06 0.00136672
8.51058 0 0.88426 0.0014856 -1.47964e-06 0.0013104
8.48833 0 0.864784 0.00142604 -2.44313e-06 0.00124484
8.46695 0 0.84608 0.00137897 -2.98288e-06 0.0011716
8.44642 0 0.828118 0.00134134 -4.80967e-06 0.00108899
8.42671 0 0.810869 0.00130091 -5.88427e-06 0.000986142
8.40778 0 0.794304 0.00122765 -4.70372e-06 0.000874933
8.38959 0 0.778397 0.00115049 -5.09324e-06 0.000752545
8.37214 0 0.76312 0.0010904 -6.29377e-06 0.000627837
8.97926 0 1.36832 0.00176747 2.20281e-05 0.00117145
8.9384 0 1.33053 0.00186575 -1.5622e-05 0.00123632
8.89917 0 1.29423 0.00187181 4.55828e-06 0.00134534
8.8615 0 1.25938 0.00185899 -9.85564e-06 0.00140399
8.82531 0 1.22592 0.00183107 -4.13106e-06 0.00145436
8.79057 0 1.19378 0.00178947 -8.09644e-06 0.00148651
8.75721 0 1.16291 0.00174332 -6.25438e-06 0.00151017
8.72516 0 1.13327 0.001695 -7.64831e-06 0.00152091
8.69439 0 1.10481 0.00164909 -6.76328e-06 0.00152385
8.66484 0 1.07747 0.00160453 -6.98141e-06 0.00151655
8.63646 0 1.05122 0.00156287 -6.48587e-06 0.00150298
8.6092 0 1.02601 0.00152341 -6.5869e-06 0.00148086
8.58303 0 1.0018 0.00148639 -6.02647e-06 0.00145351
8.5579 0 0.978555 0.00145111 -5.59285e-06 0.00141882
8.53376 0 0.956229 0.00141853 -5.10703e-06 0.00137799
8.51058 0 0.934789 0.00138832 -5.53072e-06 0.0013269
8.48833 0 0.9142 0.00136503 -6.31875e-06 0.00126563
8.46695 0 0.894427 0.00134172 -7.29146e-06 0.00119445
8.44642 0 0.875439 0.00131253 -6.5308e-06 0.00112349
8.42671 0 0.857205 0.00128496 -6.02088e-06 0.00105162
8.40778 0 0.839693 0.00125082 -6.18166e-06 0.00096977
8.38959 0 0.822877 0.00119898 -3.48487e-06 0.000874059
8.37214 0 0.806727 0.00115303 -2.78224e-06 0.000767413
8.97926 0 1.44228 0.00146084 3.82652e-05 0.000828014
8.9384 0 1.40245 0.00169182 -3.31125e-06 0.000853689
8.89917 0 1.36419 0.00181044 8.59825e-06 0.000921445
8.8615 0 1.32746 0.0018871 4.19434e-06 0.00100672
8.82531 0 1.29218 0.00193722 6.9735e-06 0.00108316
8.79057 0 1.2583 0.00195713 5.99744e-06 0.00115168
8.75721 0 1.22577 0.00196145 6.40251e-06 0.0012082
8.72516 0 1.19453 0.00194836 5.68419e-06 0.00125087
8.69439 0 1.16453 0.00192503 5.64108e-06 0.00128226
8.66483 0 1.13571 0.0018911 4.29633e-06 0.00130099
8.63646 0 1.10804 0.00185239 3.59021e-06 0.00131046
8.6092 0 1.08147 0.00180892 2.24303e-06 0.00130989
8.58303 0 1.05595 0.00176399 1.35558e-06 0.0013024
8.5579 0 1.03145 0.00171744 -3.09633e-07 0.00128693
8.53376 0 1.00792 0.0016698 -1.07398e-06 0.00126462
8.51058 0 0.985317 0.00162224 -1.65905e-06 0.00123615
8.48833 0 0.963616 0.00157287 -1.99676e-06 0.00120274
8.46695 0 0.942775 0.00151949 -2.54984e-06 0.0011658
8.44642 0 0.92276 0.00146315 -3.7503e-06 0.00112177
8.42671 0 0.90354 0.0014061 -6.06633e-06 0.00107052
8.40778 0 0.885082 0.00134586 -7.72748e-06 0.00101725
8.38959 0 0.867357 0.00128176 -1.01342e-05 0.000953747
8.37214 0 0.850334 0.00123192 -1.09648e-05 0.000876515
7.66922 0 0.966948 -3.6931e-05 -5.69447e-06 -0.000172553
7.67296 0 0.988324 -9.82503e-05 -5.06099e-06 -0.000190741
7.67685 0 1.01058 -0.000199617 -5.87774e-06 -0.000232448
7.68091 0 1.03376 -0.000350379 -6.92074e-06 -0.000295023
7.68513 0 1.0579 -0.00055302 -8.62307e-06 -0.000376269
7.68953 0 1.08303 -0.000806634 -1.12378e-05 -0.000463603
7.69411 0 1.1092 -0.00111311 -1.31753e-05 -0.000553824
7.69888 0 1.13646 -0.00147838 -1.60218e-05 -0.000641206
7.70385 0 1.16483 -0.0019173 -1.90285e-05 -0.000717217
7.70902 0 1.19439 -0.00242667 -2.12485e-05 -0.000788244
7.7144 0 1.22516 -0.00298515 -2.25986e-05 -0.000856867
7.72001 0 1.25721 -0.00356377 -2.30854e-05 -0.000926491
7.72585 0 1.29057 -0.00414061 -2.20092e-05 -0.00101153
7.73193 0 1.32531 -0.00469003 -1.993e-05 -0.00112113
7.70425 0 0.907776 0.000254858 -7.41385e-06 -0.000200978
7.70851 0 0.926707 0.000196433 -6.89056e-06 -0.000154824
7.71295 0 0.946421 0.000165333 -6.55901e-06 -0.000123203
7.71757 0 0.966948 0.000140932 -6.90697e-06 -9.69745e-05
7.72238 0 0.988324 0.000113553 -6.75569e-06 -7.59559e-05
7.72738 0 1.01058 7.82471e-05 -5.59705e-06 -7.0303e-05
7.7326 0 1.03376 1.34432e-05 -4.57163e-06 -9.51693e-05
7.73803 0 1.0579 -0.000102064 -5.05185e-06 -0.00014774
7.74368 0 1.08303 -0.000279267 -7.10561e-06 -0.000223963
7.74957 0 1.1092 -0.00051937 -9.44287e-06 -0.000307648
7.7557 0 1.13646 -0.000815947 -1.26028e-05 -0.000397086
7.76209 0 1.16484 -0.00118074 -1.47769e-05 -0.000485275
7.76874 0 1.19439 -0.0016234 -1.71051e-05 -0.000565476
7.77566 0 1.22516 -0.00213737 -1.96209e-05 -0.000638459
7.78287 0 1.25721 -0.00269653 -2.11841e-05 -0.000699359
7.79038 0 1.29057 -0.00327541 -2.16118e-05 -0.000759104
7.7982 0 1.32531 -0.0038428 -2.09067e-05 -0.000819903
7.73984 0 0.872138 0.000559897 -4.62091e-06 -0.000278827
7.74464 0 0.889597 0.000435808 -5.3294e-06 -0.000232238
7.74964 0 0.907777 0.00035788 -5.99217e-06 -0.000188458
7.75484 0 0.926707 0.000323034 -6.27095e-06 -0.000148589
7.76026 0 0.94642 0.000306466 -6.04203e-06 -0.000109607
7.76591 0 0.966948 0.000292611 -6.89037e-06 -7.29128e-05
7.77179 0 0.988324 0.000273252 -7.86138e-06 -4.09898e-05
7.77791 0 1.01058 0.000246766 -7.31596e-06 -1.33177e-05
7.78428 0 1.03376 0.000212816 -7.30274e-06 1.07455e-05
7.79092 0 1.0579 0.000173277 -6.15417e-06 1.32331e-05
7.79783 0 1.08303 0.000103669 -5.12046e-06 -1.84925e-05
7.80503 0 1.1092 -3.59899e-05 -6.37275e-06 -8.24143e-05
7.81252 0 1.13646 -0.000255754 -7.84442e-06 -0.000165889
7.82033 0 1.16483 -0.00054166 -1.12133e-05 -0.000256017
7.82845 0 1.19439 -0.000906007 -1.50241e-05 -0.000341874
7.83692 0 1.22516 -0.00135652 -1.69605e-05 -0.000424407
7.84573 0 1.25721 -0.00188469 -1.9032e-05 -0.000495588
7.85491 0 1.29057 -0.00245143 -2.0525e-05 -0.000551046
7.86446 0 1.32531 -0.00303069 -2.06215e-05 -0.000595183
7.87441 0 1.3615 -0.00360675 -1.96427e-05 -0.000658327
7.778 0 0.855372 0.000752632 -3.16867e-06 -0.000296026
7.78345 0 0.872138 0.00061142 -4.15446e-06 -0.000263337
7.78912 0 0.889597 0.000506239 -5.43785e-06 -0.000221493
7.79503 0 0.907776 0.000460629 -6.44645e-06 -0.00017879
7.80118 0 0.926708 0.000448368 -6.6271e-06 -0.000132535
7.80759 0 0.94642 0.000446274 -7.09681e-06 -8.61201e-05
7.81425 0 0.966948 0.000443656 -7.3628e-06 -4.08298e-05
7.82121 0 0.988324 0.000436187 -6.96034e-06 -2.30286e-06
7.82844 0 1.01058 0.000421582 -6.42968e-06 2.41827e-05
7.83597 0 1.03376 0.000395993 -5.65587e-06 4.02723e-05
7.84382 0 1.0579 0.000361757 -5.93012e-06 5.07365e-05
7.85199 0 1.08303 0.000318219 -6.60142e-06 6.49208e-05
7.86049 0 1.1092 0.000264819 -5.97533e-06 5.69536e-05
7.86935 0 1.13646 0.000170629 -6.12754e-06 1.72716e-05
7.87857 0 1.16484 -1.61656e-05 -7.6778e-06 -5.2807e-05
7.88818 0 1.19439 -0.000290852 -1.04438e-05 -0.000129552
7.89818 0 1.22516 -0.000655998 -1.33785e-05 -0.000211119
7.90859 0 1.25721 -0.00112215 -1.71131e-05 -0.000284532
7.91943 0 1.29057 -0.00167623 -1.78654e-05 -0.000360553
7.93073 0 1.32531 -0.00225421 -1.97257e-05 -0.000413156
7.94249 0 1.3615 -0.00284145 -2.00083e-05 -0.000464389
7.81473 0 0.839271 0.000926787 -2.94283e-06 -0.000315702
7.82076 0 0.855372 0.000791341 -1.20156e-06 -0.000298617
7.82705 0 0.872138 0.000651182 -4.26768e-06 -0.000269194
7.8336 0 0.889597 0.000578459 -5.94284e-06 -0.000220746
7.84042 0 0.907777 0.000558854 -6.47998e-06 -0.000165257
7.84752 0 0.926707 0.000561125 -6.84836e-06 -0.00010693
7.85491 0 0.946421 0.000567083 -7.51246e-06 -4.82053e-05
7.8626 0 0.966948 0.000571083 -6.94131e-06 3.37948e-06
7.87062 0 0.988324 0.000568936 -5.93631e-06 4.38631e-05
7.87897 0 1.01058 0.000561842 -4.2354e-06 7.05363e-05
7.88766 0 1.03376 0.000551033 -5.12289e-06 9.37828e-05
7.89671 0 1.0579 0.000533818 -4.22551e-06 0.000105884
7.90614 0 1.08303 0.000503864 -4.92537e-06 9.95981e-05
7.91595 0 1.1092 0.000455381 -5.32728e-06 9.07081e-05
7.92617 0 1.13646 0.000398228 -5.93401e-06 8.58257e-05
7.93681 0 1.16483 0.000315904 -5.6453e-06 6.8947e-05
7.9479 0 1.19439 0.000177069 -7.78776e-06 3.08148e-05
7.95943 0 1.22516 -7.84058e-05 -9.58846e-06 -4.01763e-05
7.97145 0 1.25721 -0.00044291 -1.3554e-05 -0.000107897
7.98397 0 1.29057 -0.000931617 -1.65851e-05 -0.0001766
7.99699 0 1.32531 -0.0015051 -1.85474e-05 -0.000224112
8.01056 0 1.3615 -0.0021156 -1.8416e-05 -0.000277513
8.02469 0 1.39917 -0.00267002 -1.94414e-05 -0.000294737
7.85669 0 0.839271 0.000959315 -2.02531e-06 -0.000346822
7.86353 0 0.855372 0.000804005 -1.33003e-06 -0.00031061
7.87066 0 0.872138 0.000696628 -5.03729e-06 -0.000275492
7.87808 0 0.889596 0.000659415 -6.11075e-06 -0.000212917
7.88581 0 0.907777 0.000657627 -6.77358e-06 -0.000144292
7.89385 0 0.926708 0.000667246 -8.29334e-06 -7.19277e-05
7.90223 0 0.94642 0.000676378 -7.63721e-06 -4.16314e-06
7.91095 0 0.966948 0.000682372 -6.23042e-06 5.12883e-05
7.92003 0 0.988324 0.000684937 -4.73987e-06 9.61079e-05
7.9295 0 1.01058 0.000686993 -4.70286e-06 0.000135014
7.93935 0 1.03376 0.000683771 -4.21371e-06 0.000158055
7.94961 0 1.0579 0.000670051 -3.6255e-06 0.000160237
7.96029 0 1.08303 0.000649331 -3.56776e-06 0.000151824
7.97141 0 1.1092 0.000620227 -3.28634e-06 0.000141684
7.98299 0 1.13646 0.000580102 -3.46787e-06 0.000122611
7.99505 0 1.16484 0.000517637 -4.15004e-06 0.000107543
8.00761 0 1.19439 0.000438468 -5.39568e-06 9.6704e-05
8.02069 0 1.22516 0.000318954 -6.25423e-06 6.79919e-05
8.03431 0 1.25721 9.32272e-05 -1.10325e-05 4.26378e-05
8.04849 0 1.29057 -0.000273076 -1.21465e-05 -2.77268e-05
8.06326 0 1.32531 -0.00076558 -1.6718e-05 -8.38195e-05
8.07864 0 1.3615 -0.00138946 -1.58546e-05 -0.000144844
8.09465 0 1.39917 -0.00197218 -1.91941e-05 -0.000140556
7.89865 0 0.839271 0.000952147 -2.33051e-06 -0.000381048
7.9063 0 0.855372 0.000811439 -2.00968e-06 -0.000326225
7.91427 0 0.872138 0.000746319 -5.76272e-06 -0.000275365
7.92256 0 0.889597 0.00073522 -6.91972e-06 -0.000192729
7.93119 0 0.907776 0.000745247 -8.53879e-06 -0.000108902
7.94019 0 0.926708 0.00075827 -7.82219e-06 -2.5838e-05
7.94955 0 0.94642 0.000768075 -6.84703e-06 4.73532e-05
7.9593 0 0.966948 0.000778493 -5.72756e-06 0.000111045
7.96945 0 0.988324 0.000786244 -5.4769e-06 0.000169375
7.98003 0 1.01058 0.000793642 -4.21574e-06 0.000204525
7.99104 0 1.03376 0.000787866 -3.45123e-06 0.000217613
8.0025 0 1.0579 0.000778135 -2.86493e-06 0.000223863
8.01444 0 1.08303 0.000766095 -2.41024e-06 0.000220444
8.02687 0 1.1092 0.000746268 -2.16902e-06 0.000209436
8.03981 0 1.13646 0.000717974 -2.19428e-06 0.000188983
8.05329 0 1.16483 0.000677819 -2.17758e-06 0.000161216
8.06733 0 1.19439 0.000617173 -2.76302e-06 0.000132841
8.08195 0 1.22516 0.000530715 -3.52771e-06 0.000110369
8.09717 0 1.25721 0.000413635 -7.28916e-06 0.000115155
8.11302 0 1.29057 0.000209388 -7.51961e-06 7.79627e-05
8.12952 0 1.32531 -0.000139088 -1.59791e-05 6.45505e-05
8.14671 0 1.3615 -0.000681052 -1.39508e-05 -2.08232e-05
8.16461 0 1.39917 -0.00124789 -1.93152e-05 -3.15149e-05
8.18324 0 1.4384 -0.00193734 -1.48279e-05 -8.3436e-05
7.94062 0 0.839271 0.000924306 -1.18705e-06 -0.000407156
7.94907 0 0.855372 0.000825291 -5.10312e-06 -0.000341123
7.95787 0 0.872138 0.000800802 -7.33437e-06 -0.000255216
7.96704 0 0.889597 0.000807519 -8.48792e-06 -0.000158197
7.97658 0 0.907777 0.000824452 -8.78033e-06 -6.04477e-05
7.98652 0 0.926707 0.000839162 -7.84037e-06 2.85381e-05
7.99687 0 0.946421 0.00085321 -7.55477e-06 0.000115201
8.00765 0 0.966948 0.000869534 -6.02005e-06 0.00018704
8.01887 0 0.988324 0.000880182 -5.99775e-06 0.00023763
8.03055 0 1.01058 0.000882283 -3.97628e-06 0.000268805
8.04273 0 1.03376 0.000880786 -3.27734e-06 0.000283603
8.0554 0 1.0579 0.000875814 -2.82511e-06 0.000296946
8.06859 0 1.08303 0.000868527 -2.28755e-06 0.000295953
8.08233 0 1.1092 0.000853954 -1.90377e-06 0.000285686
8.09664 0 1.13646 0.000833504 -1.78441e-06 0.000265459
8.11154 0 1.16484 0.000803081 -1.57632e-06 0.000238572
8.12705 0 1.19439 0.000760984 -1.46823e-06 0.000205049
8.14321 0 1.22516 0.000697152 -1.16799e-06 0.000164722
8.16003 0 1.25721 0.00060878 -3.56424e-06 0.000150346
8.17755 0 1.29057 0.000477253 -3.98209e-06 0.000126188
8.19579 0 1.32531 0.00028216 -1.15103e-05 0.000154081
8.21479 0 1.3615 -0.000108069 -1.04235e-05 8.96006e-05
8.23457 0 1.39917 -0.000574002 -2.06143e-05 8.87727e-05
8.25516 0 1.4384 -0.00128287 -1.47389e-05 1.75628e-05
8.27661 0 1.47926 -0.00171091 -2.35694e-05 9.64328e-05
7.99184 0 0.855371 0.000847547 -6.75435e-06 -0.000322264
8.00148 0 0.872138 0.00085114 -7.74412e-06 -0.000209986
8.01152 0 0.889596 0.000869358 -9.22302e-06 -9.70881e-05
8.02197 0 0.907777 0.000888922 -8.61716e-06 1.06093e-05
8.03286 0 0.926708 0.000908779 -7.77306e-06 0.000111749
8.04419 0 0.94642 0.000928846 -6.56778e-06 0.000203315
8.05599 0 0.966948 0.000945475 -5.59654e-06 0.000271142
8.06829 0 0.988324 0.000954729 -4.2221e-06 0.000312502
8.08108 0 1.01058 0.000956108 -3.19531e-06 0.000345092
8.09441 0 1.03376 0.000959621 -2.47209e-06 0.000366873
8.10829 0 1.0579 0.000957857 -1.96923e-06 0.000380361
8.12274 0 1.08303 0.000952671 -1.45352e-06 0.000380527
8.13779 0 1.1092 0.000942409 -9.84591e-07 0.000371423
8.15346 0 1.13646 0.000927579 -7.74378e-07 0.000353083
8.16978 0 1.16483 0.000905805 -6.31966e-07 0.000326658
8.18677 0 1.19439 0.000873578 -4.55561e-07 0.000292575
8.20447 0 1.22516 0.000825671 -2.54399e-07 0.000251724
8.22289 0 1.25721 0.000759696 -9.42101e-07 0.000215826
8.24208 0 1.29057 0.00065399 -8.50309e-07 0.000173061
8.26206 0 1.32531 0.000525397 -7.97485e-06 0.000183743
8.28286 0 1.3615 0.000289032 -4.98083e-06 0.000145002
8.30453 0 1.39917 -4.18127e-05 -1.92066e-05 0.000196036
8.32708 0 1.4384 -0.000701346 -1.07607e-05 0.000111208
8.35057 0 1.47926 -0.00106282 -2.81766e-05 0.000169719
8.03461 0 0.855372 0.000883436 -8.10272e-06 -0.000271055
8.04508 0 0.872138 0.000903739 -1.0977e-05 -0.000144766
8.056 0 0.889597 0.000929369 -9.99664e-06 -2.07304e-05
8.06736 0 0.907776 0.000954855 -9.75147e-06 9.63874e-05
8.07919 0 0.926707 0.000982432 -8.62158e-06 0.000201943
8.09151 0 0.946421 0.00100427 -7.64647e-06 0.000286169
8.10434 0 0.966948 0.0010187 -6.33939e-06 0.000344003
8.1177 0 0.988324 0.00102745 -4.82557e-06 0.000384168
8.13161 0 1.01058 0.00103441 -4.0143e-06 0.000421314
8.1461 0 1.03376 0.00103978 -3.41862e-06 0.000446735
8.16118 0 1.0579 0.00104062 -2.82639e-06 0.000459315
8.17689 0 1.08303 0.00103839 -2.3207e-06 0.000460718
8.19325 0 1.1092 0.00103251 -2.0631e-06 0.000454303
8.21028 0 1.13646 0.00102279 -1.87405e-06 0.000440126
8.22802 0 1.16484 0.00100757 -1.67973e-06 0.000416867
8.24649 0 1.19439 0.000983347 -1.53388e-06 0.000386231
8.26572 0 1.22516 0.000947387 -1.21254e-06 0.000346644
8.28575 0 1.25721 0.000893936 -9.29944e-07 0.000303222
8.30661 0 1.29057 0.000813888 -3.96902e-07 0.000254959
8.32832 0 1.32531 0.000709994 -4.60067e-06 0.000230824
8.35093 0 1.3615 0.000524557 -1.71775e-06 0.000188933
8.37448 0 1.39917 0.000302716 -1.59296e-05 0.000256405
8.399 0 1.4384 -0.000199487 -8.38978e-06 0.00017953
8.42454 0 1.47926 -0.00046444 -2.83877e-05 0.000226053
8.07738 0 0.855372 0.000917233 -1.0181e-05 -0.000167386
8.08869 0 0.872138 0.000946972 -9.17251e-06 -2.92356e-05
8.10048 0 0.889597 0.000977774 -8.36281e-06 0.000102089
8.11275 0 0.907777 0.00101086 -7.64068e-06 0.000224732
8.12553 0 0.926708 0.00103991 -6.01926e-06 0.000323337
8.13883 0 0.94642 0.00106003 -4.78535e-06 0.000391909
8.15269 0 0.966948 0.00107343 -3.55464e-06 0.000445095
8.16712 0 0.988324 0.00108631 -2.12879e-06 0.000487347
8.18214 0 1.01058 0.00109602 -1.46543e-06 0.000526354
8.19779 0 1.03376 0.00110329 -8.03544e-07 0.000549295
8.21408 0 1.0579 0.00110792 -2.31647e-07 0.000560991
8.23104 0 1.08303 0.00111064 7.20783e-08 0.000563156
8.24871 0 1.1092 0.00111011 5.51791e-08 0.000556869
8.26711 0 1.13646 0.00110646 1.63269e-08 0.000543138
8.28626 0 1.16483 0.00109821 3.93566e-09 0.000519302
8.30621 0 1.19439 0.00108229 1.98298e-07 0.000489984
8.32698 0 1.22516 0.0010554 3.51012e-07 0.00045178
8.34861 0 1.25721 0.00101419 4.14365e-07 0.000408209
8.37113 0 1.29057 0.000951585 1.56429e-07 0.000359582
8.39459 0 1.32531 0.00086179 -8.88274e-07 0.000312968
8.41901 0 1.3615 0.000716032 4.84971e-08 0.000262824
8.44444 0 1.39917 0.000549925 -1.0793e-05 0.000286574
8.47093 0 1.4384 0.00020988 -1.41698e-06 0.000214792
8.4985 0 1.47926 -1.26362e-05 -3.10589e-05 0.000291806
8.12014 0 0.855372 0.000964122 -1.18665e-05 -6.26827e-05
8.1323 0 0.872138 0.00100395 -1.17747e-05 7.92042e-05
8.14496 0 0.889596 0.0010435 -1.10819e-05 0.000213467
8.15814 0 0.907777 0.00107946 -9.84537e-06 0.000323606
8.17186 0 0.926708 0.00110527 -8.78674e-06 0.000404068
8.18616 0 0.94642 0.0011251 -7.56634e-06 0.00046616
8.20104 0 0.966948 0.00114146 -5.96371e-06 0.000521083
8.21654 0 0.988324 0.00115779 -5.08011e-06 0.000564278
8.23267 0 1.01058 0.00117009 -4.47494e-06 0.000599966