# wallShearStress  FACE_DATA 60650
# x  y  z  wallShearStress_x  wallShearStress_y  wallShearStress_z
8.75721 0 0.345731 -0.00052287 -9.46578e-06 0.000168925
8.72516 0 0.336919 -0.000536025 -3.9967e-06 -4.04141e-05
8.69439 0 0.328456 -0.000518878 7.31083e-06 -0.000217468
8.66483 0 0.320329 -0.000479446 1.23501e-05 -0.000348634
8.63646 0 0.312526 -0.000458651 9.80544e-06 -0.000421356
8.6092 0 0.305031 -0.000436691 7.83743e-06 -0.000438835
8.58303 0 0.297833 -0.000411447 4.34613e-06 -0.000427555
8.82531 0 0.430728 -2.37227e-05 -6.33408e-06 0.000932536
8.79057 0 0.419435 -0.000122198 -3.60342e-06 0.000656886
8.75721 0 0.408591 -0.000199274 -3.47503e-06 0.000390969
8.72516 0 0.398176 -0.000255203 -5.96456e-06 0.000141786
8.69439 0 0.388175 -0.000296222 -6.1356e-06 -6.95458e-05
8.66483 0 0.378571 -0.000315297 -5.93162e-06 -0.00022459
8.63646 0 0.369348 -0.000325886 5.59044e-07 -0.00030235
8.6092 0 0.360491 -0.000328175 1.5508e-06 -0.000335177
8.58303 0 0.351985 -0.000332888 2.86796e-06 -0.000343046
8.5579 0 0.343817 -0.000331694 3.45455e-06 -0.000346995
8.53376 0 0.335973 -0.000332892 4.12591e-06 -0.000353515
8.51058 0 0.32844 -0.00032683 4.32546e-06 -0.000365458
8.9384 0 0.539403 0.000842554 -2.6258e-06 0.00180284
8.89917 0 0.52469 0.000683636 -8.3383e-06 0.00154734
8.8615 0 0.510562 0.000487215 -3.71996e-06 0.00128826
8.82531 0 0.496994 0.000373243 -2.83385e-06 0.00104231
8.79057 0 0.483964 0.000263358 -6.97849e-06 0.000774661
8.75721 0 0.471451 0.000130334 -6.79733e-06 0.000526127
8.72516 0 0.459434 2.6745e-05 -8.49045e-06 0.000318827
8.69439 0 0.447895 -4.61993e-05 -9.15619e-06 0.000162334
8.66483 0 0.436813 -9.64548e-05 -1.10183e-05 4.72313e-05
8.63646 0 0.426171 -0.000138891 -9.0282e-06 -3.52435e-05
8.6092 0 0.415951 -0.000172041 -9.28004e-06 -0.00010342
8.58303 0 0.406136 -0.000209466 -7.13496e-06 -0.000164103
8.5579 0 0.396712 -0.000241299 -3.82884e-06 -0.000218135
8.53376 0 0.387661 -0.000268915 1.85923e-06 -0.000265062
8.51058 0 0.378969 -0.000285375 3.38175e-06 -0.000309456
8.48833 0 0.370622 -0.00029076 5.15778e-06 -0.000347186
8.46695 0 0.362605 -0.000284695 4.14672e-06 -0.000380329
8.9384 0 0.611323 0.00118985 5.50123e-06 0.00162144
8.89917 0 0.594649 0.0010179 -4.60742e-06 0.00141948
8.8615 0 0.578636 0.000816183 -5.4918e-06 0.00121016
8.82531 0 0.563259 0.00064797 -6.71787e-06 0.00100214
8.79057 0 0.548492 0.000485794 -1.06211e-05 0.000823055
8.75721 0 0.534311 0.000348369 -9.9805e-06 0.000681306
8.72516 0 0.520692 0.000248421 -1.15772e-05 0.00056834
8.69439 0 0.507614 0.000171639 -1.12529e-05 0.000468105
8.66483 0 0.495055 0.000109503 -1.35475e-05 0.000365287
8.63646 0 0.482994 4.94388e-05 -1.30322e-05 0.000259957
8.6092 0 0.471411 -6.61914e-06 -1.14326e-05 0.000156401
8.58303 0 0.460288 -6.46161e-05 -9.74169e-06 5.53294e-05
8.5579 0 0.449607 -0.000122101 -8.21629e-06 -4.05716e-05
8.53376 0 0.439349 -0.000175109 -7.06447e-06 -0.000128121
8.51058 0 0.429498 -0.00021925 -3.90528e-06 -0.000208653
8.48833 0 0.420038 -0.000251129 2.54188e-06 -0.000278118
8.46695 0 0.410953 -0.000263532 4.06506e-06 -0.000339629
8.44642 0 0.402229 -0.000262196 5.0363e-06 -0.000391399
8.42671 0 0.393851 -0.000256323 3.24861e-06 -0.000435017
8.9384 0 0.683243 0.00124709 -4.90562e-06 0.00139969
8.89917 0 0.664607 0.0010773 -1.18543e-05 0.0013104
8.8615 0 0.646711 0.000901274 -1.12831e-05 0.00122569
8.82531 0 0.629525 0.00076252 -1.17948e-05 0.00114955
8.79057 0 0.613021 0.000635743 -1.1911e-05 0.00107492
8.75721 0 0.597171 0.000534733 -1.06949e-05 0.000987472
8.72516 0 0.58195 0.000443656 -1.10092e-05 0.000886782
8.69439 0 0.567333 0.000364432 -9.76465e-06 0.00077896
8.66483 0 0.553296 0.000294506 -9.90823e-06 0.000663874
8.63646 0 0.539816 0.000224966 -1.04973e-05 0.000544647
8.6092 0 0.526871 0.000157813 -1.14625e-05 0.000421973
8.58303 0 0.51444 9.05791e-05 -1.22461e-05 0.000299545
8.5579 0 0.502501 2.06373e-05 -1.16889e-05 0.000177993
8.53376 0 0.491037 -4.741e-05 -9.09242e-06 6.11345e-05
8.51058 0 0.480027 -0.00011011 -7.55004e-06 -5.19414e-05
8.48833 0 0.469454 -0.000166897 -6.95611e-06 -0.000157695
8.46695 0 0.4593 -0.000208296 -1.78522e-06 -0.000253591
8.44642 0 0.44955 -0.000232795 4.12329e-06 -0.000337904
8.42671 0 0.440186 -0.000235423 5.18254e-06 -0.000411797
8.40778 0 0.431194 -0.000228665 3.71217e-06 -0.000471217
8.38959 0 0.422558 -0.000218053 2.90944e-06 -0.000517169
8.9384 0 0.755163 0.00118331 -1.71548e-05 0.00154161
8.89917 0 0.734566 0.00106903 -1.36691e-05 0.00153701
8.8615 0 0.714786 0.000968002 -1.39687e-05 0.0014996
8.82531 0 0.69579 0.000870821 -1.15661e-05 0.00144739
8.79057 0 0.677549 0.000780853 -1.13262e-05 0.00136612
8.75721 0 0.660031 0.00068851 -1.0802e-05 0.00126944
8.72516 0 0.643208 0.000595364 -1.00267e-05 0.00115679
8.69439 0 0.627053 0.000514513 -9.61801e-06 0.00104082
8.66483 0 0.611538 0.000441421 -9.61563e-06 0.000924018
8.63646 0 0.596639 0.000375264 -9.62586e-06 0.000804255
8.6092 0 0.582331 0.000309785 -9.92806e-06 0.000676589
8.58303 0 0.568591 0.000241389 -9.34717e-06 0.000545011
8.5579 0 0.555397 0.000170245 -1.02959e-05 0.000409229
8.53376 0 0.542725 9.86201e-05 -1.14964e-05 0.000273578
8.51058 0 0.530556 2.68904e-05 -1.14071e-05 0.000138858
8.48833 0 0.518871 -4.38379e-05 -8.68594e-06 8.71937e-06
8.46695 0 0.507648 -0.000107484 -6.30874e-06 -0.000115793
8.44642 0 0.496871 -0.000160894 -4.811e-06 -0.000231249
8.42671 0 0.486522 -0.000192598 2.50497e-07 -0.000334249
8.40778 0 0.476583 -0.000204017 5.74263e-06 -0.000425223
8.38959 0 0.467038 -0.000197435 4.71252e-06 -0.000502671
8.9384 0 0.827083 0.00115892 -1.45062e-05 0.00184237
8.89917 0 0.804525 0.00108112 -1.1477e-05 0.00181217
8.8615 0 0.782861 0.000998341 -1.19547e-05 0.00174986
8.82531 0 0.762056 0.000919831 -1.05568e-05 0.00168396
8.79057 0 0.742077 0.000848456 -1.06794e-05 0.00160248
8.75721 0 0.722891 0.000781166 -1.04545e-05 0.0015103
8.72516 0 0.704466 0.000712353 -9.22444e-06 0.00140699
8.69439 0 0.686772 0.000632303 -9.32846e-06 0.00128277
8.66483 0 0.66978 0.000561291 -8.36482e-06 0.00116117
8.63646 0 0.653462 0.000500594 -8.74421e-06 0.00103916
8.6092 0 0.637792 0.0004416 -8.88974e-06 0.000913179
8.58303 0 0.622743 0.000381837 -9.09798e-06 0.000782217
8.5579 0 0.608291 0.000315946 -9.70297e-06 0.000642765
8.53376 0 0.594413 0.000245774 -8.81072e-06 0.000498884
8.51058 0 0.581085 0.000172402 -1.01071e-05 0.000351808
8.48833 0 0.568287 9.79045e-05 -1.14695e-05 0.000205782
8.46695 0 0.555995 2.52132e-05 -1.09917e-05 6.18421e-05
8.44642 0 0.544192 -4.45064e-05 -6.96037e-06 -7.67705e-05
8.42671 0 0.532857 -0.000103756 -4.99148e-06 -0.000208194
8.40778 0 0.521972 -0.000146058 -1.98509e-06 -0.000327396
8.38959 0 0.511518 -0.000165248 2.14069e-06 -0.000436094
8.9384 0 0.899004 0.00111248 -1.34348e-05 0.00208104
8.89917 0 0.874483 0.00105764 -8.82527e-06 0.00205074
8.8615 0 0.850935 0.00100391 -1.10547e-05 0.00197723
8.82531 0 0.828322 0.000941861 -9.27925e-06 0.00190478
8.79057 0 0.806606 0.000885512 -9.81244e-06 0.00181917
8.75721 0 0.785751 0.000832198 -9.4374e-06 0.00172748
8.72516 0 0.765724 0.00078602 -9.37097e-06 0.00162808
8.69439 0 0.746491 0.000734865 -8.75511e-06 0.00151965
8.66483 0 0.728022 0.000666352 -7.7955e-06 0.00139462
8.63646 0 0.710285 0.000605653 -7.77241e-06 0.001265
8.6092 0 0.693252 0.000550924 -7.99988e-06 0.00113349
8.58303 0 0.676895 0.000498732 -8.12345e-06 0.00100563
8.5579 0 0.661186 0.000444806 -8.86946e-06 0.000870407
8.53376 0 0.646101 0.000384737 -9.04067e-06 0.000726291
8.51058 0 0.631614 0.000317321 -9.4908e-06 0.000575886
8.48833 0 0.617703 0.000245871 -8.58045e-06 0.000421908
8.46695 0 0.604343 0.000171954 -1.0612e-05 0.000266537
8.44642 0 0.591513 9.74001e-05 -1.18753e-05 0.000113297
8.42671 0 0.579192 2.61628e-05 -9.91463e-06 -3.70119e-05
8.40778 0 0.56736 -3.89532e-05 -5.72494e-06 -0.000180951
8.38959 0 0.555998 -8.55461e-05 -1.13664e-06 -0.000314767
8.37214 0 0.545086 -0.000116494 -7.3601e-07 -0.000436542
8.9384 0 0.970925 0.00104777 -1.33512e-05 0.00230671
8.89917 0 0.944442 0.000999339 -5.75938e-06 0.00227803
8.8615 0 0.91901 0.000975365 -9.02787e-06 0.00218969
8.82531 0 0.894588 0.0009373 -7.63059e-06 0.00211285
8.79057 0 0.871135 0.00089938 -8.11835e-06 0.00202367
8.75721 0 0.848612 0.000862707 -8.11561e-06 0.00193085
8.72516 0 0.826982 0.00082678 -8.42912e-06 0.00183137
8.69439 0 0.806211 0.000788138 -8.31876e-06 0.00173118
8.66483 0 0.786263 0.000749221 -8.23229e-06 0.00161713
8.63646 0 0.767108 0.000703365 -6.89746e-06 0.00149464
8.6092 0 0.748712 0.00064636 -7.70727e-06 0.00135687
8.58303 0 0.731046 0.000594852 -7.29895e-06 0.00122067
8.5579 0 0.714081 0.000550314 -7.64341e-06 0.00108591
8.53376 0 0.697789 0.000502713 -8.20722e-06 0.000946508
8.51058 0 0.682144 0.000446662 -8.8888e-06 0.000800342
8.48833 0 0.667119 0.000385364 -8.92096e-06 0.000648065
8.46695 0 0.65269 0.000317997 -9.2521e-06 0.000490136
8.44642 0 0.638834 0.000247238 -9.11598e-06 0.000329889
8.42671 0 0.625528 0.000175225 -1.10503e-05 0.000168782
8.40778 0 0.612749 0.000103354 -1.13764e-05 9.84165e-06
8.38959 0 0.600478 3.76601e-05 -8.64424e-06 -0.000145328
8.37214 0 0.588693 -1.95819e-05 -3.46435e-06 -0.000289856
8.97926 0 1.07246 0.00088193 3.62149e-06 0.00269902
8.9384 0 1.04284 0.000990759 -1.26422e-05 0.00252484
8.89917 0 1.0144 0.00095126 -4.34858e-06 0.0025047
8.8615 0 0.987085 0.000943775 -8.27066e-06 0.00240447
8.82531 0 0.960854 0.00091614 -6.24468e-06 0.00232407
8.79057 0 0.935663 0.000893263 -6.79859e-06 0.00223477
8.75721 0 0.911471 0.000867428 -7.067e-06 0.00213952
8.72516 0 0.88824 0.000837473 -7.45972e-06 0.00203927
8.69439 0 0.86593 0.000813608 -8.45425e-06 0.00193216
8.66483 0 0.844505 0.000785566 -8.73623e-06 0.00182429
8.63646 0 0.823931 0.00076208 -8.18841e-06 0.00170836
8.6092 0 0.804172 0.000733273 -6.98606e-06 0.00158668
8.58303 0 0.785198 0.000682957 -7.30294e-06 0.00144827
8.5579 0 0.766976 0.000635055 -7.26467e-06 0.00130156
8.53376 0 0.749477 0.000594414 -7.44945e-06 0.0011611
8.51058 0 0.732673 0.000551777 -7.95993e-06 0.00101973
8.48833 0 0.716535 0.000504668 -8.32034e-06 0.000873084
8.46695 0 0.701038 0.000449182 -9.05414e-06 0.000720234
8.44642 0 0.686155 0.000388349 -8.97033e-06 0.000561831
8.42671 0 0.671863 0.000322686 -9.3919e-06 0.00039824
8.40778 0 0.658138 0.000254264 -1.00682e-05 0.000232619
8.38959 0 0.644957 0.000185179 -1.08472e-05 6.61859e-05
8.37214 0 0.6323 0.000116222 -9.77476e-06 -9.74152e-05
8.97926 0 1.14643 0.000786004 3.65726e-06 0.00292534
8.9384 0 1.11476 0.000907664 -1.37891e-05 0.00271689
8.89917 0 1.08436 0.000870627 -2.7293e-06 0.00271678
8.8615 0 1.05516 0.000892818 -8.09141e-06 0.00261164
8.82531 0 1.02712 0.000880434 -5.33237e-06 0.00252849
8.79057 0 1.00019 0.000873236 -5.58608e-06 0.0024381
8.75721 0 0.974331 0.000864918 -5.94984e-06 0.00234035
8.72516 0 0.949498 0.00085309 -5.66587e-06 0.00223832
8.69439 0 0.925649 0.000837863 -6.13757e-06 0.00212917
8.66483 0 0.902747 0.000821885 -6.17072e-06 0.00201825
8.63646 0 0.880753 0.000803696 -7.04129e-06 0.00190338
8.6092 0 0.859632 0.000775541 -7.29751e-06 0.00178271
8.58303 0 0.839349 0.000760723 -5.84035e-06 0.00166098
8.5579 0 0.819871 0.000726288 -6.06209e-06 0.00152551
8.53376 0 0.801165 0.000677328 -6.13563e-06 0.00138055
8.51058 0 0.783202 0.000637548 -6.83064e-06 0.00123524
8.48833 0 0.765951 0.000600688 -7.36533e-06 0.00109087
8.46695 0 0.749385 0.000558163 -7.92769e-06 0.000946259
8.44642 0 0.733476 0.000511398 -8.438e-06 0.000795309
8.42671 0 0.718198 0.000457216 -9.16111e-06 0.000638216
8.40778 0 0.703526 0.000398119 -9.16276e-06 0.000475391
8.38959 0 0.689437 0.00033459 -1.08347e-05 0.000307755
8.37214 0 0.675907 0.000269416 -1.08083e-05 0.000138949
8.97926 0 1.22039 0.00067493 5.2437e-06 0.00314169
8.9384 0 1.18669 0.000839363 -1.40618e-05 0.00289883
8.89917 0 1.15432 0.000805451 -1.76391e-06 0.00290159
8.8615 0 1.12324 0.000840195 -8.353e-06 0.00280334
8.82531 0 1.09339 0.000842672 -5.65553e-06 0.00271959
8.79057 0 1.06472 0.00084817 -5.31872e-06 0.0026318
8.75721 0 1.03719 0.000849946 -5.49695e-06 0.00253388
8.72516 0 1.01076 0.000845184 -4.69719e-06 0.00243341
8.69439 0 0.985369 0.000838601 -4.94307e-06 0.00232437
8.66483 0 0.960988 0.000823846 -5.03534e-06 0.00220879
8.63646 0 0.937576 0.000809308 -5.86276e-06 0.00208966
8.6092 0 0.915092 0.000797762 -7.14516e-06 0.00196689
8.58303 0 0.893501 0.000777915 -7.13431e-06 0.00184408
8.5579 0 0.872766 0.000765715 -6.20113e-06 0.00172605
8.53376 0 0.852853 0.00074843 -5.82675e-06 0.00159781
8.51058 0 0.833731 0.000711739 -5.88155e-06 0.00145835
8.48833 0 0.815368 0.000678184 -5.75894e-06 0.00130875
8.46695 0 0.797732 0.000640136 -6.21664e-06 0.00116504
8.44642 0 0.780797 0.000606326 -6.97936e-06 0.00101774
8.42671 0 0.764534 0.00056771 -7.41563e-06 0.000866794
8.40778 0 0.748915 0.000524486 -7.6846e-06 0.000712177
8.38959 0 0.733917 0.000475097 -8.31962e-06 0.000550139
8.37214 0 0.719513 0.000420669 -9.28724e-06 0.000381744
8.97926 0 1.29435 0.000567974 6.82374e-06 0.00330307
8.9384 0 1.25861 0.000757937 -1.35783e-05 0.00306529
8.89917 0 1.22428 0.000725183 1.83093e-06 0.00306454
8.8615 0 1.19131 0.00077385 -4.12455e-06 0.0029809
8.82531 0 1.15965 0.00079439 -3.02625e-06 0.0028937
8.79057 0 1.12925 0.000807267 -3.0598e-06 0.00280581
8.75721 0 1.10005 0.00081614 -4.21869e-06 0.0027071
8.72516 0 1.07202 0.000819976 -4.05712e-06 0.00260864
8.69439 0 1.04509 0.000822857 -4.777e-06 0.00250311
8.66483 0 1.01923 0.000819871 -4.76271e-06 0.00239783
8.63646 0 0.994399 0.000812618 -5.20993e-06 0.00228486
8.6092 0 0.970553 0.000797864 -5.63518e-06 0.0021694
8.58303 0 0.947652 0.000788117 -7.37346e-06 0.00204713
8.5579 0 0.925661 0.000777427 -9.25626e-06 0.00191943
8.53376 0 0.904541 0.000763947 -7.8204e-06 0.00180004
8.51058 0 0.88426 0.000765261 -7.74461e-06 0.00167601
8.48833 0 0.864784 0.000738086 -7.87662e-06 0.00154449
8.46695 0 0.84608 0.000697338 -7.96404e-06 0.001401
8.44642 0 0.828118 0.000670889 -8.22596e-06 0.00125571
8.42671 0 0.810869 0.000635789 -9.28331e-06 0.00110789
8.40778 0 0.794304 0.000599128 -9.69541e-06 0.000959794
8.38959 0 0.778397 0.00056156 -1.02347e-05 0.000806292
8.37214 0 0.76312 0.000518807 -1.04352e-05 0.000646605
8.97926 0 1.36832 0.000453607 3.76928e-06 0.00340122
8.9384 0 1.33053 0.000655919 -2.18519e-05 0.00325367
8.89917 0 1.29423 0.00063558 -7.58135e-06 0.00323508
8.8615 0 1.25938 0.000673295 -9.81219e-06 0.00316057
8.82531 0 1.22592 0.000703656 -8.69337e-06 0.00306917
8.79057 0 1.19378 0.000728661 -6.71725e-06 0.00297581
8.75721 0 1.16291 0.000749797 -6.57945e-06 0.00287227
8.72516 0 1.13327 0.000766931 -5.13913e-06 0.00277047
8.69439 0 1.10481 0.000780617 -4.78295e-06 0.00266382
8.66484 0 1.07747 0.000789781 -3.59507e-06 0.00255928
8.63646 0 1.05122 0.000799755 -3.76606e-06 0.00244798
8.6092 0 1.02601 0.00080788 -3.79883e-06 0.00233306
8.58303 0 1.0018 0.000817065 -4.05537e-06 0.00221397
8.5579 0 0.978555 0.000822235 -3.70134e-06 0.00209786
8.53376 0 0.956229 0.000813138 -4.24894e-06 0.00197287
8.51058 0 0.934789 0.000798458 -3.58692e-06 0.00185095
8.48833 0 0.9142 0.000796206 -2.53917e-06 0.00173274
8.46695 0 0.894427 0.000792295 -2.13311e-06 0.00160052
8.44642 0 0.875439 0.000765306 -2.15051e-06 0.00146682
8.42671 0 0.857205 0.000739662 -2.0303e-06 0.00132203
8.40778 0 0.839693 0.000716475 -2.13496e-06 0.00117222
8.38959 0 0.822877 0.000693144 -2.43009e-06 0.00102059
8.37214 0 0.806727 0.000667281 -2.7928e-06 0.000864103
8.97926 0 1.44228 0.000428499 2.1032e-05 0.00336982
8.9384 0 1.40245 0.00064265 -4.70307e-06 0.00331981
8.89917 0 1.36419 0.000699144 -3.08772e-06 0.00329296
8.8615 0 1.32746 0.000734305 -5.40537e-06 0.0032412
8.82531 0 1.29218 0.000757551 -8.43749e-06 0.00316385
8.79057 0 1.2583 0.000772339 -9.77088e-06 0.00308235
8.75721 0 1.22577 0.000782996 -1.19343e-05 0.00299014
8.72516 0 1.19453 0.000791481 -1.28371e-05 0.00289574
8.69439 0 1.16453 0.000797461 -1.45173e-05 0.0027957
8.66483 0 1.13571 0.000801376 -1.50213e-05 0.00269478
8.63646 0 1.10804 0.000803255 -1.55753e-05 0.00259282
8.6092 0 1.08147 0.000802007 -1.49171e-05 0.00249428
8.58303 0 1.05595 0.000797973 -1.52454e-05 0.002392
8.5579 0 1.03145 0.00078628 -1.55677e-05 0.00228871
8.53376 0 1.00792 0.000774347 -1.68123e-05 0.00217866
8.51058 0 0.985317 0.000768482 -1.83898e-05 0.00206002
8.48833 0 0.963616 0.00075678 -2.02027e-05 0.00193926
8.46695 0 0.942775 0.000726032 -2.01699e-05 0.00182457
8.44642 0 0.92276 0.000714755 -1.93309e-05 0.00170719
8.42671 0 0.90354 0.000695033 -2.03748e-05 0.0015861
8.40778 0 0.885082 0.000655921 -2.08728e-05 0.00145667
8.38959 0 0.867357 0.000617688 -2.14637e-05 0.00131631
8.37214 0 0.850334 0.000578852 -2.21817e-05 0.00117303
7.66922 0 0.966948 0.000336379 -8.81405e-06 6.30715e-05
7.67296 0 0.988324 0.000325464 -7.24668e-06 0.000133507
7.67685 0 1.01058 0.000316765 -6.31554e-06 0.000196802
7.68091 0 1.03376 0.000306893 -5.59164e-06 0.000247457
7.68513 0 1.0579 0.000289377 -4.62051e-06 0.000289535
7.68953 0 1.08303 0.000274028 -4.30426e-06 0.000319223
7.69411 0 1.1092 0.000253155 -3.56716e-06 0.000333267
7.69888 0 1.13646 0.000225999 -2.91201e-06 0.000332398
7.70385 0 1.16483 0.000185886 -2.02536e-06 0.000309564
7.70902 0 1.19439 0.000119954 -1.64502e-06 0.000258108
7.7144 0 1.22516 3.5478e-05 -3.97093e-06 0.000189808
7.72001 0 1.25721 -8.28155e-05 -7.21226e-06 0.000111918
7.72585 0 1.29057 -0.000221021 -8.83422e-06 2.6493e-05
7.73193 0 1.32531 -0.000418424 -1.14697e-05 -4.34765e-05
7.70425 0 0.907776 0.000473462 -7.95112e-06 -0.00010504
7.70851 0 0.926707 0.000450862 -9.56486e-06 -2.57996e-05
7.71295 0 0.946421 0.000436353 -9.47717e-06 6.08964e-05
7.71757 0 0.966948 0.000427039 -8.51069e-06 0.000149934
7.72238 0 0.988324 0.000421344 -7.63674e-06 0.000236603
7.72738 0 1.01058 0.000417446 -6.75983e-06 0.000312904
7.7326 0 1.03376 0.000408167 -5.40901e-06 0.00036693
7.73803 0 1.0579 0.000393762 -4.59996e-06 0.000421194
7.74368 0 1.08303 0.000386261 -3.6923e-06 0.000468657
7.74957 0 1.1092 0.000373753 -2.87e-06 0.000490084
7.7557 0 1.13646 0.00035784 -2.36859e-06 0.000500811
7.76209 0 1.16484 0.000336301 -2.18016e-06 0.000497527
7.76874 0 1.19439 0.000307235 -1.83973e-06 0.000479014
7.77566 0 1.22516 0.000267742 -1.42767e-06 0.000443454
7.78287 0 1.25721 0.000209233 -1.94398e-06 0.000390292
7.79038 0 1.29057 0.000129001 -2.33539e-06 0.000314953
7.7982 0 1.32531 2.21694e-05 -7.2311e-06 0.000257456
7.73984 0 0.872138 0.000625953 -5.80607e-06 -0.000218544
7.74464 0 0.889597 0.000572058 -7.21973e-06 -0.000146955
7.74964 0 0.907777 0.00054344 -1.04173e-05 -6.35495e-05
7.75484 0 0.926707 0.000526584 -1.05245e-05 3.25745e-05
7.76026 0 0.94642 0.000516229 -1.0003e-05 0.000136284
7.76591 0 0.966948 0.000510314 -8.74536e-06 0.000242553
7.77179 0 0.988324 0.00050816 -8.3414e-06 0.000345557
7.77791 0 1.01058 0.000505374 -6.93011e-06 0.000427367
7.78428 0 1.03376 0.000496183 -5.04765e-06 0.000487839
7.79092 0 1.0579 0.00048802 -4.60643e-06 0.000558916
7.79783 0 1.08303 0.00048206 -3.59637e-06 0.000619845
7.80503 0 1.1092 0.000473832 -2.82737e-06 0.00065062
7.81252 0 1.13646 0.000464136 -2.18392e-06 0.000671997
7.82033 0 1.16483 0.000452057 -1.29547e-06 0.000678939
7.82845 0 1.19439 0.000435501 -1.04638e-06 0.000672657
7.83692 0 1.22516 0.00041444 -4.96194e-07 0.00065206
7.84573 0 1.25721 0.000383604 -1.025e-06 0.000618396
7.85491 0 1.29057 0.000341731 -2.85689e-07 0.000567166
7.86446 0 1.32531 0.000287993 -2.49973e-06 0.000517323
7.87441 0 1.3615 0.00020143 -4.18567e-07 0.000426713
7.778 0 0.855372 0.00074974 -5.94566e-06 -0.000275772
7.78345 0 0.872138 0.000670906 -7.45363e-06 -0.000202023
7.78912 0 0.889597 0.000630202 -9.31205e-06 -0.000117056
7.79503 0 0.907776 0.000608417 -1.09083e-05 -1.59317e-05
7.80118 0 0.926708 0.000596186 -1.11929e-05 9.77577e-05
7.80759 0 0.94642 0.000589298 -9.68086e-06 0.000217678
7.81425 0 0.966948 0.000586337 -9.55303e-06 0.000339746
7.82121 0 0.988324 0.000586563 -8.87406e-06 0.000451836
7.82844 0 1.01058 0.000581394 -6.91741e-06 0.000541783
7.83597 0 1.03376 0.000575 -5.09614e-06 0.000617443
7.84382 0 1.0579 0.000572104 -4.56488e-06 0.00070063
7.85199 0 1.08303 0.000565263 -3.64991e-06 0.000769006
7.86049 0 1.1092 0.000558995 -3.00984e-06 0.000811261
7.86935 0 1.13646 0.000552235 -2.29867e-06 0.000844514
7.87857 0 1.16484 0.000544423 -1.37217e-06 0.000863293
7.88818 0 1.19439 0.000534786 -1.05602e-06 0.000869072
7.89818 0 1.22516 0.000523192 -1.55912e-07 0.000860841
7.90859 0 1.25721 0.000507256 -4.44495e-07 0.000838649
7.91943 0 1.29057 0.000485269 2.94656e-07 0.000799829
7.93073 0 1.32531 0.000454912 -1.01543e-06 0.000749791
7.94249 0 1.3615 0.000410301 1.48269e-06 0.000676994
7.81473 0 0.839271 0.000887018 -4.94227e-06 -0.00034294
7.82076 0 0.855372 0.000773402 -5.72193e-06 -0.000268644
7.82705 0 0.872138 0.000712755 -7.78138e-06 -0.000181553
7.8336 0 0.889597 0.000681982 -1.14052e-05 -7.95762e-05
7.84042 0 0.907777 0.000665316 -1.19483e-05 3.99485e-05
7.84752 0 0.926707 0.000656753 -1.1395e-05 0.000170615
7.85491 0 0.946421 0.000652946 -9.744e-06 0.000306797
7.8626 0 0.966948 0.000652768 -9.69298e-06 0.000443416
7.87062 0 0.988324 0.000653336 -8.57775e-06 0.000558268
7.87897 0 1.01058 0.000645907 -6.99415e-06 0.000654269
7.88766 0 1.03376 0.000641599 -5.28904e-06 0.000753507
7.89671 0 1.0579 0.000640019 -4.78358e-06 0.000845369
7.90614 0 1.08303 0.000633702 -3.95673e-06 0.000918568
7.91595 0 1.1092 0.000629533 -3.06311e-06 0.000974035
7.92617 0 1.13646 0.000624817 -2.34838e-06 0.00101918
7.93681 0 1.16483 0.000620562 -1.53174e-06 0.00105053
7.9479 0 1.19439 0.000615314 -1.27966e-06 0.00106905
7.95943 0 1.22516 0.000609466 -4.42343e-07 0.00107406
7.97145 0 1.25721 0.000602495 -4.79945e-07 0.00106541
7.98397 0 1.29057 0.000593406 6.53988e-07 0.00104147
7.99699 0 1.32531 0.000581082 -2.91405e-07 0.00100262
8.01056 0 1.3615 0.000561968 1.69313e-06 0.000947776
8.02469 0 1.39917 0.000539096 -1.81803e-06 0.000892747
7.85669 0 0.839271 0.000884763 -3.51716e-06 -0.000337653
7.86353 0 0.855372 0.000795619 -7.21551e-06 -0.000258739
7.87066 0 0.872138 0.000749301 -1.03199e-05 -0.000155317
7.87808 0 0.889596 0.000725549 -1.21012e-05 -3.42557e-05
7.88581 0 0.907777 0.000713625 -1.27505e-05 0.000103781
7.89385 0 0.926708 0.000708515 -1.10392e-05 0.000250879
7.90223 0 0.94642 0.000708003 -1.04195e-05 0.000401794
7.91095 0 0.966948 0.000710472 -9.99733e-06 0.00054625
7.92003 0 0.988324 0.00070951 -8.22044e-06 0.000665272
7.9295 0 1.01058 0.000702476 -7.50659e-06 0.000768228
7.93935 0 1.03376 0.000698756 -5.64344e-06 0.000886285
7.94961 0 1.0579 0.000696522 -5.10257e-06 0.000988322
7.96029 0 1.08303 0.000692219 -4.4592e-06 0.00107014
7.97141 0 1.1092 0.000689146 -3.12451e-06 0.00113807
7.98299 0 1.13646 0.000685444 -2.68739e-06 0.00119507
7.99505 0 1.16484 0.000682715 -1.82599e-06 0.00124052
8.00761 0 1.19439 0.000679976 -1.6341e-06 0.00127349
8.02069 0 1.22516 0.000677473 -8.53801e-07 0.00129403
8.03431 0 1.25721 0.000673706 -8.66265e-07 0.00130105
8.04849 0 1.29057 0.000669834 3.80284e-07 0.00129464
8.06326 0 1.32531 0.000663694 2.11547e-08 0.00127312
8.07864 0 1.3615 0.00065611 1.71891e-06 0.00123675
8.09465 0 1.39917 0.00064068 -1.35383e-06 0.00118801
7.89865 0 0.839271 0.000874698 -2.48022e-06 -0.00033488
7.9063 0 0.855372 0.000806728 -7.10211e-06 -0.00023965
7.91427 0 0.872138 0.000772038 -1.27109e-05 -0.00011511
7.92256 0 0.889597 0.000754055 -1.33246e-05 2.70911e-05
7.93119 0 0.907776 0.000745856 -1.26814e-05 0.000183617
7.94019 0 0.926708 0.000743659 -1.0322e-05 0.000347624
7.94955 0 0.94642 0.000745837 -1.03395e-05 0.000513083
7.9593 0 0.966948 0.000750883 -9.45781e-06 0.000658829
7.96945 0 0.988324 0.000747707 -7.49991e-06 0.000778437
7.98003 0 1.01058 0.000740935 -7.24068e-06 0.000892834
7.99104 0 1.03376 0.000737179 -5.29629e-06 0.00102574
8.0025 0 1.0579 0.000736058 -4.9688e-06 0.00113795
8.01444 0 1.08303 0.000732624 -4.0693e-06 0.00122779
8.02687 0 1.1092 0.000729726 -2.97759e-06 0.00130574
8.03981 0 1.13646 0.000726723 -2.62817e-06 0.00137453
8.05329 0 1.16483 0.00072441 -1.80914e-06 0.00143298
8.06733 0 1.19439 0.000722174 -1.7331e-06 0.00147984
8.08195 0 1.22516 0.000721051 -1.03897e-06 0.00151534
8.09717 0 1.25721 0.000719233 -1.05516e-06 0.00153747
8.11302 0 1.29057 0.000716621 -2.6259e-09 0.00154653
8.12952 0 1.32531 0.000712701 -3.39999e-07 0.00154056
8.14671 0 1.3615 0.000708422 1.38452e-06 0.00151658
8.16461 0 1.39917 0.000699907 -7.60291e-07 0.0014734
8.18324 0 1.4384 0.000683059 5.65117e-06 0.00139341
7.94062 0 0.839271 0.00086165 -6.44963e-06 -0.000330724
7.94907 0 0.855372 0.000810871 -1.05681e-05 -0.000211938
7.95787 0 0.872138 0.00078628 -1.31324e-05 -6.79212e-05
7.96704 0 0.889597 0.000774935 -1.42247e-05 9.30352e-05
7.97658 0 0.907777 0.000771245 -1.27603e-05 0.000264775
7.98652 0 0.926707 0.000772494 -1.14582e-05 0.000442505
7.99687 0 0.946421 0.000777641 -1.13102e-05 0.00062071
8.00765 0 0.966948 0.000783157 -9.68395e-06 0.000768598
8.01887 0 0.988324 0.000781528 -7.54604e-06 0.000885554
8.03055 0 1.01058 0.000774649 -7.48615e-06 0.00100867
8.04273 0 1.03376 0.000771546 -6.32474e-06 0.00115719
8.0554 0 1.0579 0.000770412 -4.99013e-06 0.0012811
8.06859 0 1.08303 0.000766114 -4.61441e-06 0.00137704
8.08233 0 1.1092 0.000762819 -3.57238e-06 0.00146632
8.09664 0 1.13646 0.000758917 -3.26014e-06 0.0015463
8.11154 0 1.16484 0.000755433 -2.39299e-06 0.00161754
8.12705 0 1.19439 0.000751826 -2.34279e-06 0.00167854
8.14321 0 1.22516 0.000749297 -1.66521e-06 0.00172902
8.16003 0 1.25721 0.000746353 -1.81607e-06 0.00176655
8.17755 0 1.29057 0.000742382 -8.80534e-07 0.00179157
8.19579 0 1.32531 0.000736351 -1.13953e-06 0.00180114
8.21479 0 1.3615 0.000730045 3.32563e-07 0.00179287
8.23457 0 1.39917 0.000719803 -1.40087e-06 0.00176221
8.25516 0 1.4384 0.000706231 5.13609e-06 0.00169637
8.27661 0 1.47926 0.000682025 -6.74077e-06 0.00160188
7.99184 0 0.855371 0.000793652 -1.27404e-05 -0.000144527
8.00148 0 0.872138 0.000778818 -1.38943e-05 2.23359e-05
8.01152 0 0.889596 0.000774092 -1.28669e-05 0.00020043
8.02197 0 0.907777 0.000774921 -1.02284e-05 0.00038476
8.03286 0 0.926708 0.00077922 -1.07753e-05 0.00057224
8.04419 0 0.94642 0.000787039 -1.04327e-05 0.000753908
8.05599 0 0.966948 0.00079088 -8.24693e-06 0.000905755
8.06829 0 0.988324 0.000790177 -6.14557e-06 0.0010234
8.08108 0 1.01058 0.000784643 -6.39259e-06 0.00115174
8.09441 0 1.03376 0.00078646 -5.31728e-06 0.00130569
8.10829 0 1.0579 0.000781872 -3.99964e-06 0.0014358
8.12274 0 1.08303 0.000777317 -3.90581e-06 0.00153775
8.13779 0 1.1092 0.000772977 -3.02407e-06 0.00163525
8.15346 0 1.13646 0.000767963 -2.98123e-06 0.00172359
8.16978 0 1.16483 0.000763041 -2.00186e-06 0.00180424
8.18677 0 1.19439 0.000757424 -2.09214e-06 0.00187575
8.20447 0 1.22516 0.000752175 -1.59935e-06 0.001938
8.22289 0 1.25721 0.000746699 -1.93455e-06 0.00198742
8.24208 0 1.29057 0.000740683 -1.33571e-06 0.00202483
8.26206 0 1.32531 0.000732326 -1.67991e-06 0.00204695
8.28286 0 1.3615 0.000723151 -4.65365e-07 0.00205185
8.30453 0 1.39917 0.000712076 -1.68753e-06 0.00203381
8.32708 0 1.4384 0.000700317 4.18662e-06 0.00198737
8.35057 0 1.47926 0.000681962 -7.33379e-06 0.00191467
8.03461 0 0.855372 0.00077655 -1.43137e-05 -7.89913e-05
8.04508 0 0.872138 0.000771175 -1.5601e-05 0.000104893
8.056 0 0.889597 0.000774162 -1.33134e-05 0.000294302
8.06736 0 0.907776 0.000780991 -1.17064e-05 0.000486171
8.07919 0 0.926707 0.000789989 -1.20022e-05 0.000679071
8.09151 0 0.946421 0.000800949 -1.14674e-05 0.00085513
8.10434 0 0.966948 0.000803478 -9.31571e-06 0.00100269
8.1177 0 0.988324 0.000804119 -7.10561e-06 0.00112664
8.13161 0 1.01058 0.000800478 -8.4885e-06 0.0012676
8.1461 0 1.03376 0.000805749 -5.95207e-06 0.00142485
8.16118 0 1.0579 0.000798854 -5.33914e-06 0.00155201
8.17689 0 1.08303 0.000793818 -5.30123e-06 0.00166387
8.19325 0 1.1092 0.000788379 -4.44466e-06 0.00177041
8.21028 0 1.13646 0.000782475 -4.2577e-06 0.00186841
8.22802 0 1.16484 0.000776023 -3.41554e-06 0.00195964
8.24649 0 1.19439 0.000768131 -3.39039e-06 0.00204232
8.26572 0 1.22516 0.000759568 -2.72954e-06 0.00211761
8.28575 0 1.25721 0.000749398 -2.97492e-06 0.00218217
8.30661 0 1.29057 0.000738389 -2.46155e-06 0.00223504
8.32832 0 1.32531 0.000725173 -2.58904e-06 0.002272
8.35093 0 1.3615 0.000711227 -1.43118e-06 0.00229119
8.37448 0 1.39917 0.00069631 -2.48577e-06 0.00228941
8.399 0 1.4384 0.000681706 1.55216e-06 0.00226299
8.42454 0 1.47926 0.000661738 -9.6258e-06 0.00221342
8.07738 0 0.855372 0.000749124 -1.22349e-05 6.62837e-05
8.08869 0 0.872138 0.000754388 -1.09994e-05 0.00026566
8.10048 0 0.889597 0.000762784 -9.04992e-06 0.000464588
8.11275 0 0.907777 0.000771503 -9.59242e-06 0.000661218
8.12553 0 0.926708 0.000782621 -9.76676e-06 0.000856433
8.13883 0 0.94642 0.000794282 -8.79765e-06 0.00102537
8.15269 0 0.966948 0.000794881 -7.0967e-06 0.00116666
8.16712 0 0.988324 0.00079523 -4.97535e-06 0.00129571
8.18214 0 1.01058 0.000793977 -6.13855e-06 0.00144157
8.19779 0 1.03376 0.00079443 -3.84416e-06 0.00159617
8.21408 0 1.0579 0.000788053 -3.27037e-06 0.00171801
8.23104 0 1.08303 0.00078153 -3.40372e-06 0.00183217
8.24871 0 1.1092 0.000773776 -2.87994e-06 0.00194165
8.26711 0 1.13646 0.000764412 -3.02319e-06 0.00204362
8.28626 0 1.16483 0.000754252 -2.55997e-06 0.00213793
8.30621 0 1.19439 0.000742933 -2.79366e-06 0.00222403
8.32698 0 1.22516 0.000731516 -2.49238e-06 0.00230285
8.34861 0 1.25721 0.000719473 -3.15786e-06 0.00237241
8.37113 0 1.29057 0.000707087 -2.76375e-06 0.0024337
8.39459 0 1.32531 0.00069289 -2.92601e-06 0.0024814
8.41901 0 1.3615 0.000677904 -2.06972e-06 0.00251363
8.44444 0 1.39917 0.000662064 -2.88185e-06 0.00252592
8.47093 0 1.4384 0.000644223 3.75626e-07 0.00251506
8.4985 0 1.47926 0.000621128 -1.02475e-05 0.00248671
8.12014 0 0.855372 0.000726808 -1.5631e-05 0.000172272
8.1323 0 0.872138 0.000740768 -1.19188e-05 0.000365442
8.14496 0 0.889596 0.000755439 -1.16387e-05 0.000555247
8.15814 0 0.907777 0.000771725 -1.17078e-05 0.000745926
8.17186 0 0.926708 0.000788863 -1.18161e-05 0.000937149
8.18616 0 0.94642 0.000799928 -9.92584e-06 0.00109616
8.20104 0 0.966948 0.000799565 -9.53772e-06 0.00122783
8.21654 0 0.988324 0.000801127 -9.16008e-06 0.00136734