# Force coefficients
# liftDir     : (0.000000e+00 0.000000e+00 1.000000e+00)
# dragDir     : (1.000000e+00 0.000000e+00 0.000000e+00)
# pitchAxis   : (0.000000e+00 1.000000e+00 0.000000e+00)
# magUInf     : 1.000000e+00
# lRef        : 1.000000e+00
# Aref        : 1.000000e+00
# CofR        : (7.500000e+00 0.000000e+00 0.000000e+00)
#
# Time        	Cm            	Cd            	Cl            	Cl(f)         	Cl(r)         
25.0005       	-1.114030e-01	2.151479e+00	8.872075e-02	-6.704266e-02	1.557634e-01
25.001        	-1.105333e-01	9.060055e-01	1.065249e-01	-5.727080e-02	1.637957e-01
25.0015       	-1.110829e-01	1.236483e+00	1.068351e-01	-5.766537e-02	1.645005e-01
25.002        	-1.110761e-01	1.238824e+00	1.072764e-01	-5.743788e-02	1.647143e-01
25.0025       	-1.110288e-01	1.239568e+00	1.072174e-01	-5.742008e-02	1.646374e-01
25.003        	-1.109538e-01	1.240713e+00	1.073261e-01	-5.729070e-02	1.646168e-01
25.0035       	-1.109667e-01	1.241356e+00	1.073773e-01	-5.727805e-02	1.646554e-01
25.004        	-1.109495e-01	1.242187e+00	1.074510e-01	-5.722396e-02	1.646750e-01
25.0045       	-1.110065e-01	1.242323e+00	1.073727e-01	-5.732016e-02	1.646929e-01
25.005        	-1.109856e-01	1.242806e+00	1.072624e-01	-5.735442e-02	1.646168e-01
25.0055       	-1.109724e-01	1.243071e+00	1.072029e-01	-5.737091e-02	1.645738e-01
25.006        	-1.108837e-01	1.243747e+00	1.072119e-01	-5.727771e-02	1.644896e-01
25.0065       	-1.107977e-01	1.244082e+00	1.072128e-01	-5.719134e-02	1.644041e-01
25.007        	-1.107422e-01	1.244571e+00	1.072611e-01	-5.711169e-02	1.643728e-01
25.0075       	-1.107572e-01	1.244670e+00	1.073771e-01	-5.706860e-02	1.644457e-01
25.008        	-1.108236e-01	1.244918e+00	1.070760e-01	-5.728556e-02	1.643615e-01
25.0085       	-1.108323e-01	1.245107e+00	1.069325e-01	-5.736607e-02	1.642986e-01
25.009        	-1.108197e-01	1.245608e+00	1.068018e-01	-5.741878e-02	1.642206e-01
25.0095       	-1.106694e-01	1.246013e+00	1.067928e-01	-5.727296e-02	1.640658e-01
25.01         	-1.106219e-01	1.246496e+00	1.068238e-01	-5.721005e-02	1.640338e-01
25.0105       	-1.105072e-01	1.246809e+00	1.068636e-01	-5.707540e-02	1.639390e-01
25.011        	-1.106206e-01	1.247027e+00	1.071088e-01	-5.706621e-02	1.641751e-01
25.0115       	-1.106323e-01	1.246997e+00	1.070432e-01	-5.711071e-02	1.641540e-01
25.012        	-1.106979e-01	1.247059e+00	1.067515e-01	-5.732216e-02	1.640736e-01
25.0125       	-1.106293e-01	1.247352e+00	1.067277e-01	-5.726544e-02	1.639931e-01
25.013        	-1.105425e-01	1.247753e+00	1.066596e-01	-5.721272e-02	1.638723e-01
25.0135       	-1.104061e-01	1.248208e+00	1.068055e-01	-5.700338e-02	1.638089e-01
25.014        	-1.103579e-01	1.248758e+00	1.068799e-01	-5.691789e-02	1.637978e-01
25.0145       	-1.103518e-01	1.248788e+00	1.068587e-01	-5.692246e-02	1.637811e-01
25.015        	-1.104450e-01	1.248864e+00	1.068021e-01	-5.704397e-02	1.638461e-01
25.0155       	-1.104807e-01	1.248748e+00	1.066605e-01	-5.715044e-02	1.638110e-01
25.016        	-1.104716e-01	1.248973e+00	1.064944e-01	-5.722438e-02	1.637188e-01
25.0165       	-1.103397e-01	1.249245e+00	1.066645e-01	-5.700750e-02	1.636720e-01
25.017        	-1.101988e-01	1.249711e+00	1.066872e-01	-5.685522e-02	1.635425e-01
25.0175       	-1.101095e-01	1.250076e+00	1.068950e-01	-5.666203e-02	1.635570e-01
25.018        	-1.101214e-01	1.250266e+00	1.068375e-01	-5.670269e-02	1.635402e-01
25.0185       	-1.102249e-01	1.250117e+00	1.067474e-01	-5.685119e-02	1.635985e-01
25.019        	-1.103228e-01	1.250048e+00	1.066038e-01	-5.702094e-02	1.636247e-01
25.0195       	-1.102758e-01	1.250106e+00	1.065780e-01	-5.698682e-02	1.635649e-01
25.02         	-1.102187e-01	1.250539e+00	1.063902e-01	-5.702359e-02	1.634138e-01
25.0205       	-1.100353e-01	1.250970e+00	1.067179e-01	-5.667638e-02	1.633943e-01
25.021        	-1.099616e-01	1.251402e+00	1.067756e-01	-5.657377e-02	1.633494e-01
25.0215       	-1.098837e-01	1.251400e+00	1.067685e-01	-5.649943e-02	1.632679e-01
25.022        	-1.100163e-01	1.251279e+00	1.066933e-01	-5.666964e-02	1.633629e-01
25.0225       	-1.100619e-01	1.251088e+00	1.067899e-01	-5.666692e-02	1.634569e-01
25.023        	-1.101639e-01	1.251001e+00	1.067087e-01	-5.680955e-02	1.635182e-01
25.0235       	-1.100007e-01	1.251363e+00	1.067394e-01	-5.663093e-02	1.633704e-01
25.024        	-1.099301e-01	1.251838e+00	1.066652e-01	-5.659747e-02	1.632627e-01
25.0245       	-1.097452e-01	1.252432e+00	1.068840e-01	-5.630323e-02	1.631872e-01
25.025        	-1.097627e-01	1.252523e+00	1.067045e-01	-5.641046e-02	1.631150e-01
25.0255       	-1.097423e-01	1.252429e+00	1.066760e-01	-5.640429e-02	1.630803e-01
25.026        	-1.099301e-01	1.252142e+00	1.065399e-01	-5.666018e-02	1.632000e-01
25.0265       	-1.098898e-01	1.252158e+00	1.067232e-01	-5.652819e-02	1.632514e-01
25.027        	-1.099468e-01	1.252114e+00	1.065726e-01	-5.666053e-02	1.632332e-01
25.0275       	-1.097107e-01	1.252755e+00	1.067872e-01	-5.631710e-02	1.631043e-01
25.028        	-1.096575e-01	1.253050e+00	1.069443e-01	-5.618529e-02	1.631296e-01
25.0285       	-1.095075e-01	1.253364e+00	1.073009e-01	-5.585707e-02	1.631580e-01
25.029        	-1.096120e-01	1.253232e+00	1.070971e-01	-5.606347e-02	1.631606e-01
25.0295       	-1.096398e-01	1.253145e+00	1.071722e-01	-5.605369e-02	1.632259e-01
25.03         	-1.097925e-01	1.252981e+00	1.071393e-01	-5.622291e-02	1.633622e-01
25.0305       	-1.097103e-01	1.253208e+00	1.072117e-01	-5.610445e-02	1.633162e-01
25.031        	-1.096534e-01	1.253430e+00	1.070718e-01	-5.611753e-02	1.631893e-01
25.0315       	-1.094434e-01	1.253942e+00	1.071366e-01	-5.587504e-02	1.630117e-01
25.032        	-1.093658e-01	1.254176e+00	1.071880e-01	-5.577183e-02	1.629598e-01
25.0325       	-1.093129e-01	1.254186e+00	1.073426e-01	-5.564162e-02	1.629842e-01
25.033        	-1.094170e-01	1.253964e+00	1.071192e-01	-5.585746e-02	1.629766e-01
25.0335       	-1.094456e-01	1.253920e+00	1.072460e-01	-5.582263e-02	1.630687e-01
25.034        	-1.094703e-01	1.253982e+00	1.072922e-01	-5.582425e-02	1.631164e-01
25.0345       	-1.093698e-01	1.254282e+00	1.074219e-01	-5.565888e-02	1.630808e-01
25.035        	-1.092714e-01	1.254607e+00	1.073786e-01	-5.558212e-02	1.629607e-01
25.0355       	-1.091686e-01	1.254805e+00	1.075586e-01	-5.538935e-02	1.629479e-01
25.036        	-1.091646e-01	1.254811e+00	1.076934e-01	-5.531789e-02	1.630113e-01
25.0365       	-1.091822e-01	1.254762e+00	1.076339e-01	-5.536525e-02	1.629991e-01
25.037        	-1.092357e-01	1.254623e+00	1.076755e-01	-5.539793e-02	1.630735e-01
25.0375       	-1.092466e-01	1.254604e+00	1.077048e-01	-5.539420e-02	1.630990e-01
25.038        	-1.091659e-01	1.254904e+00	1.077766e-01	-5.527763e-02	1.630542e-01
25.0385       	-1.091021e-01	1.255111e+00	1.078300e-01	-5.518712e-02	1.630171e-01
25.039        	-1.090373e-01	1.255450e+00	1.080394e-01	-5.501757e-02	1.630570e-01
25.0395       	-1.090267e-01	1.255584e+00	1.081533e-01	-5.495011e-02	1.631034e-01
25.04         	-1.090048e-01	1.255633e+00	1.080409e-01	-5.498434e-02	1.630252e-01
25.0405       	-1.090837e-01	1.255532e+00	1.078474e-01	-5.515998e-02	1.630073e-01
25.041        	-1.090609e-01	1.255518e+00	1.078709e-01	-5.512546e-02	1.629963e-01
25.0415       	-1.090638e-01	1.255677e+00	1.078111e-01	-5.515821e-02	1.629693e-01
25.042        	-1.089458e-01	1.255801e+00	1.078155e-01	-5.503804e-02	1.628535e-01
25.0425       	-1.089508e-01	1.255975e+00	1.079791e-01	-5.496123e-02	1.629403e-01
25.043        	-1.089089e-01	1.256003e+00	1.081723e-01	-5.482272e-02	1.629950e-01
25.0435       	-1.089558e-01	1.256007e+00	1.081680e-01	-5.487183e-02	1.630398e-01
25.044        	-1.089460e-01	1.256075e+00	1.082691e-01	-5.481146e-02	1.630806e-01
25.0445       	-1.089592e-01	1.256128e+00	1.081525e-01	-5.488296e-02	1.630354e-01
25.045        	-1.089268e-01	1.256241e+00	1.081996e-01	-5.482703e-02	1.630266e-01
25.0455       	-1.088902e-01	1.256541e+00	1.082227e-01	-5.477882e-02	1.630015e-01
25.046        	-1.088618e-01	1.256613e+00	1.082571e-01	-5.473327e-02	1.629904e-01
25.0465       	-1.088630e-01	1.256805e+00	1.082929e-01	-5.471657e-02	1.630094e-01
25.047        	-1.088263e-01	1.256844e+00	1.082675e-01	-5.469254e-02	1.629600e-01
25.0475       	-1.088556e-01	1.256875e+00	1.084057e-01	-5.465275e-02	1.630585e-01
25.048        	-1.087966e-01	1.256912e+00	1.085604e-01	-5.451634e-02	1.630768e-01
25.0485       	-1.087856e-01	1.256977e+00	1.085498e-01	-5.451068e-02	1.630604e-01
25.049        	-1.087075e-01	1.257239e+00	1.087627e-01	-5.432612e-02	1.630889e-01
25.0495       	-1.087866e-01	1.257246e+00	1.087389e-01	-5.441720e-02	1.631561e-01
25.05         	-1.087051e-01	1.257425e+00	1.086726e-01	-5.436884e-02	1.630414e-01
25.0505       	-1.087656e-01	1.257319e+00	1.084960e-01	-5.451756e-02	1.630136e-01
25.051        	-1.086319e-01	1.257580e+00	1.088342e-01	-5.421476e-02	1.630490e-01
25.0515       	-1.087309e-01	1.257480e+00	1.088689e-01	-5.429647e-02	1.631654e-01
25.052        	-1.085593e-01	1.257879e+00	1.091880e-01	-5.396533e-02	1.631533e-01
25.0525       	-1.086104e-01	1.257829e+00	1.090631e-01	-5.407881e-02	1.631419e-01
25.053        	-1.084698e-01	1.257996e+00	1.090715e-01	-5.393402e-02	1.630055e-01
25.0535       	-1.086167e-01	1.257729e+00	1.089815e-01	-5.412598e-02	1.631075e-01
25.054        	-1.085257e-01	1.257961e+00	1.091526e-01	-5.394940e-02	1.631020e-01
25.0545       	-1.086220e-01	1.257933e+00	1.092691e-01	-5.398750e-02	1.632566e-01
25.055        	-1.084502e-01	1.258270e+00	1.094491e-01	-5.372568e-02	1.631747e-01
25.0555       	-1.084707e-01	1.258267e+00	1.094441e-01	-5.374863e-02	1.631927e-01
25.056        	-1.083243e-01	1.258413e+00	1.096300e-01	-5.350925e-02	1.631393e-01
25.0565       	-1.084137e-01	1.258258e+00	1.095730e-01	-5.362721e-02	1.632002e-01
25.057        	-1.083726e-01	1.258235e+00	1.097584e-01	-5.349342e-02	1.632518e-01
25.0575       	-1.084968e-01	1.258068e+00	1.098942e-01	-5.354970e-02	1.634439e-01
25.058        	-1.083934e-01	1.258240e+00	1.101792e-01	-5.330379e-02	1.634830e-01
25.0585       	-1.083585e-01	1.258389e+00	1.101299e-01	-5.329360e-02	1.634235e-01
25.059        	-1.082474e-01	1.258605e+00	1.102279e-01	-5.313342e-02	1.633613e-01
25.0595       	-1.082460e-01	1.258784e+00	1.103357e-01	-5.307818e-02	1.634138e-01
25.06         	-1.082502e-01	1.258693e+00	1.103168e-01	-5.309177e-02	1.634086e-01
25.0605       	-1.083165e-01	1.258667e+00	1.103739e-01	-5.312952e-02	1.635034e-01
25.061        	-1.083501e-01	1.258651e+00	1.104153e-01	-5.314244e-02	1.635577e-01
25.0615       	-1.082998e-01	1.258844e+00	1.107670e-01	-5.291631e-02	1.636833e-01
25.062        	-1.082257e-01	1.259001e+00	1.109690e-01	-5.274119e-02	1.637102e-01
25.0625       	-1.081484e-01	1.259314e+00	1.111718e-01	-5.256253e-02	1.637343e-01
25.063        	-1.081437e-01	1.259404e+00	1.110801e-01	-5.260362e-02	1.636837e-01
25.0635       	-1.081606e-01	1.259324e+00	1.112927e-01	-5.251425e-02	1.638070e-01
25.064        	-1.082046e-01	1.259143e+00	1.110114e-01	-5.269889e-02	1.637103e-01
25.0645       	-1.082571e-01	1.259182e+00	1.111219e-01	-5.269616e-02	1.638181e-01
25.065        	-1.082004e-01	1.259299e+00	1.109737e-01	-5.271359e-02	1.636873e-01
25.0655       	-1.081137e-01	1.259619e+00	1.112060e-01	-5.251075e-02	1.637167e-01
25.066        	-1.080393e-01	1.259858e+00	1.112978e-01	-5.239042e-02	1.636882e-01
25.0665       	-1.080003e-01	1.259910e+00	1.116503e-01	-5.217521e-02	1.638255e-01
25.067        	-1.080353e-01	1.259848e+00	1.117436e-01	-5.216356e-02	1.639071e-01
25.0675       	-1.080809e-01	1.259692e+00	1.118399e-01	-5.216096e-02	1.640009e-01
25.068        	-1.081236e-01	1.259639e+00	1.117722e-01	-5.223746e-02	1.640096e-01
25.0685       	-1.081012e-01	1.259595e+00	1.119005e-01	-5.215093e-02	1.640514e-01
25.069        	-1.079708e-01	1.259982e+00	1.118177e-01	-5.206199e-02	1.638797e-01
25.0695       	-1.078904e-01	1.260171e+00	1.119087e-01	-5.193608e-02	1.638448e-01
25.07         	-1.078338e-01	1.260424e+00	1.121156e-01	-5.177598e-02	1.638916e-01
25.0705       	-1.079195e-01	1.260233e+00	1.123171e-01	-5.176090e-02	1.640780e-01
25.071        	-1.079256e-01	1.260158e+00	1.122926e-01	-5.177930e-02	1.640719e-01
25.0715       	-1.079974e-01	1.259932e+00	1.123695e-01	-5.181261e-02	1.641821e-01
25.072        	-1.078927e-01	1.260195e+00	1.123024e-01	-5.174154e-02	1.640439e-01
25.0725       	-1.078240e-01	1.260361e+00	1.124676e-01	-5.159019e-02	1.640578e-01
25.073        	-1.076912e-01	1.260745e+00	1.126961e-01	-5.134316e-02	1.640393e-01
25.0735       	-1.076380e-01	1.260729e+00	1.127331e-01	-5.127147e-02	1.640046e-01
25.074        	-1.076741e-01	1.260812e+00	1.129879e-01	-5.118013e-02	1.641680e-01
25.0745       	-1.077586e-01	1.260520e+00	1.129640e-01	-5.127660e-02	1.642406e-01
25.075        	-1.077985e-01	1.260493e+00	1.129585e-01	-5.131926e-02	1.642778e-01
25.0755       	-1.078079e-01	1.260371e+00	1.132254e-01	-5.119518e-02	1.644206e-01
25.076        	-1.076987e-01	1.260651e+00	1.133752e-01	-5.101115e-02	1.643863e-01
25.0765       	-1.075486e-01	1.260762e+00	1.134644e-01	-5.081642e-02	1.642808e-01
25.077        	-1.074150e-01	1.261046e+00	1.134893e-01	-5.067040e-02	1.641597e-01
25.0775       	-1.074410e-01	1.260950e+00	1.137411e-01	-5.057042e-02	1.643116e-01
25.078        	-1.074754e-01	1.260865e+00	1.137127e-01	-5.061904e-02	1.643317e-01
25.0785       	-1.075534e-01	1.260543e+00	1.136629e-01	-5.072199e-02	1.643849e-01
25.079        	-1.075609e-01	1.260528e+00	1.136924e-01	-5.071465e-02	1.644071e-01
25.0795       	-1.074986e-01	1.260613e+00	1.138389e-01	-5.057912e-02	1.644180e-01
25.08         	-1.073722e-01	1.261074e+00	1.137555e-01	-5.049449e-02	1.642500e-01
25.0805       	-1.072680e-01	1.261311e+00	1.140862e-01	-5.022494e-02	1.643111e-01
25.081        	-1.072221e-01	1.261405e+00	1.142342e-01	-5.010502e-02	1.643392e-01
25.0815       	-1.072211e-01	1.261223e+00	1.143062e-01	-5.006795e-02	1.643742e-01
25.082        	-1.072712e-01	1.261007e+00	1.143601e-01	-5.009115e-02	1.644512e-01
25.0825       	-1.072813e-01	1.260826e+00	1.143340e-01	-5.011431e-02	1.644483e-01
25.083        	-1.072545e-01	1.260820e+00	1.143673e-01	-5.007087e-02	1.644382e-01
25.0835       	-1.071659e-01	1.260986e+00	1.143857e-01	-4.997304e-02	1.643587e-01
25.084        	-1.070620e-01	1.261380e+00	1.145635e-01	-4.978023e-02	1.643437e-01
25.0845       	-1.069809e-01	1.261409e+00	1.146583e-01	-4.965171e-02	1.643100e-01
25.085        	-1.069952e-01	1.261427e+00	1.148786e-01	-4.955585e-02	1.644345e-01
25.0855       	-1.070360e-01	1.261236e+00	1.148719e-01	-4.960008e-02	1.644720e-01
25.086        	-1.070522e-01	1.261221e+00	1.148497e-01	-4.962733e-02	1.644771e-01
25.0865       	-1.070680e-01	1.261087e+00	1.152051e-01	-4.946542e-02	1.646706e-01
25.087        	-1.070131e-01	1.261341e+00	1.153276e-01	-4.934935e-02	1.646769e-01
25.0875       	-1.068897e-01	1.261599e+00	1.155555e-01	-4.911195e-02	1.646674e-01
25.088        	-1.067720e-01	1.261821e+00	1.154777e-01	-4.903314e-02	1.645109e-01
25.0885       	-1.067934e-01	1.261813e+00	1.156840e-01	-4.895144e-02	1.646355e-01
25.089        	-1.068290e-01	1.261672e+00	1.157526e-01	-4.895272e-02	1.647054e-01
25.0895       	-1.068228e-01	1.261562e+00	1.156840e-01	-4.898078e-02	1.646648e-01
25.09         	-1.068600e-01	1.261486e+00	1.156358e-01	-4.904209e-02	1.646779e-01
25.0905       	-1.068216e-01	1.261683e+00	1.158799e-01	-4.888162e-02	1.647615e-01
25.091        	-1.067683e-01	1.261928e+00	1.158147e-01	-4.886096e-02	1.646756e-01
25.0915       	-1.065846e-01	1.262266e+00	1.161960e-01	-4.848658e-02	1.646826e-01
25.092        	-1.065603e-01	1.262224e+00	1.160719e-01	-4.852433e-02	1.645962e-01
25.0925       	-1.065050e-01	1.262173e+00	1.163906e-01	-4.830966e-02	1.647003e-01
25.093        	-1.066298e-01	1.261877e+00	1.161363e-01	-4.856162e-02	1.646979e-01
25.0935       	-1.065902e-01	1.261928e+00	1.163015e-01	-4.843945e-02	1.647410e-01
25.094        	-1.066581e-01	1.261707e+00	1.161570e-01	-4.857960e-02	1.647366e-01
25.0945       	-1.065087e-01	1.262025e+00	1.164823e-01	-4.826756e-02	1.647499e-01
25.095        	-1.064569e-01	1.262204e+00	1.163072e-01	-4.830334e-02	1.646105e-01
25.0955       	-1.063102e-01	1.262643e+00	1.167233e-01	-4.794854e-02	1.646718e-01
25.096        	-1.063849e-01	1.262504e+00	1.168716e-01	-4.794909e-02	1.648207e-01
25.0965       	-1.063428e-01	1.262485e+00	1.172426e-01	-4.772153e-02	1.649642e-01
25.097        	-1.064692e-01	1.262113e+00	1.170599e-01	-4.793919e-02	1.649991e-01
25.0975       	-1.064021e-01	1.262104e+00	1.173711e-01	-4.771655e-02	1.650877e-01
25.098        	-1.064331e-01	1.261970e+00	1.169916e-01	-4.793731e-02	1.649290e-01
25.0985       	-1.062219e-01	1.262376e+00	1.170253e-01	-4.770925e-02	1.647345e-01
25.099        	-1.061854e-01	1.262448e+00	1.169683e-01	-4.770125e-02	1.646695e-01
25.0995       	-1.060621e-01	1.262648e+00	1.175578e-01	-4.728316e-02	1.648410e-01
25.1          	-1.061623e-01	1.262379e+00	1.174663e-01	-4.742914e-02	1.648955e-01
25.1005       	-1.061457e-01	1.262363e+00	1.178591e-01	-4.721617e-02	1.650752e-01
25.101        	-1.062482e-01	1.262110e+00	1.176143e-01	-4.744104e-02	1.650553e-01
25.1015       	-1.061338e-01	1.262297e+00	1.179321e-01	-4.716777e-02	1.650999e-01
25.102        	-1.060911e-01	1.262454e+00	1.179000e-01	-4.714116e-02	1.650411e-01
25.1025       	-1.059104e-01	1.262806e+00	1.183254e-01	-4.674770e-02	1.650731e-01
25.103        	-1.058694e-01	1.262858e+00	1.181549e-01	-4.679195e-02	1.649469e-01
25.1035       	-1.058273e-01	1.262738e+00	1.182676e-01	-4.669351e-02	1.649611e-01
25.104        	-1.059046e-01	1.262417e+00	1.182102e-01	-4.679949e-02	1.650096e-01
25.1045       	-1.059440e-01	1.262270e+00	1.182514e-01	-4.681834e-02	1.650698e-01
25.105        	-1.059732e-01	1.262254e+00	1.180679e-01	-4.693926e-02	1.650071e-01
25.1055       	-1.058797e-01	1.262484e+00	1.181322e-01	-4.681356e-02	1.649458e-01
25.106        	-1.056996e-01	1.262856e+00	1.183587e-01	-4.652026e-02	1.648790e-01
25.1065       	-1.056389e-01	1.262959e+00	1.184809e-01	-4.639840e-02	1.648793e-01
25.107        	-1.056170e-01	1.262931e+00	1.186293e-01	-4.630241e-02	1.649317e-01
25.1075       	-1.056984e-01	1.262570e+00	1.186289e-01	-4.638397e-02	1.650129e-01
25.108        	-1.057062e-01	1.262414e+00	1.187578e-01	-4.632731e-02	1.650851e-01
25.1085       	-1.057641e-01	1.262127e+00	1.186071e-01	-4.646055e-02	1.650676e-01
25.109        	-1.056680e-01	1.262405e+00	1.187266e-01	-4.630466e-02	1.650313e-01
25.1095       	-1.055935e-01	1.262704e+00	1.187442e-01	-4.622140e-02	1.649656e-01
25.11         	-1.054048e-01	1.263140e+00	1.189163e-01	-4.594662e-02	1.648629e-01
25.1105       	-1.054033e-01	1.263059e+00	1.191264e-01	-4.584011e-02	1.649666e-01
25.111        	-1.053716e-01	1.262971e+00	1.191004e-01	-4.582144e-02	1.649219e-01
25.1115       	-1.054951e-01	1.262558e+00	1.191051e-01	-4.594257e-02	1.650477e-01
25.112        	-1.054621e-01	1.262415e+00	1.190402e-01	-4.594202e-02	1.649822e-01
25.1125       	-1.054831e-01	1.262424e+00	1.189706e-01	-4.599777e-02	1.649684e-01
25.113        	-1.052837e-01	1.262756e+00	1.189685e-01	-4.579945e-02	1.647679e-01
25.1135       	-1.051872e-01	1.263025e+00	1.190001e-01	-4.568714e-02	1.646873e-01
25.114        	-1.050541e-01	1.263071e+00	1.193113e-01	-4.539838e-02	1.647097e-01
25.1145       	-1.051725e-01	1.262843e+00	1.194933e-01	-4.542585e-02	1.649192e-01
25.115        	-1.051530e-01	1.262675e+00	1.194847e-01	-4.541059e-02	1.648953e-01
25.1155       	-1.052789e-01	1.262498e+00	1.195141e-01	-4.552183e-02	1.650359e-01
25.116        	-1.051681e-01	1.262593e+00	1.194634e-01	-4.543642e-02	1.648999e-01
25.1165       	-1.051396e-01	1.262804e+00	1.196542e-01	-4.531253e-02	1.649668e-01
25.117        	-1.048973e-01	1.263255e+00	1.197623e-01	-4.501618e-02	1.647784e-01
25.1175       	-1.048596e-01	1.263243e+00	1.197517e-01	-4.498378e-02	1.647354e-01
25.118        	-1.048386e-01	1.263230e+00	1.200174e-01	-4.482986e-02	1.648472e-01
25.1185       	-1.049212e-01	1.262782e+00	1.197484e-01	-4.504702e-02	1.647955e-01
25.119        	-1.049590e-01	1.262720e+00	1.198166e-01	-4.505070e-02	1.648673e-01
25.1195       	-1.050031e-01	1.262519e+00	1.197746e-01	-4.511575e-02	1.648904e-01
25.12         	-1.049000e-01	1.262992e+00	1.200143e-01	-4.489290e-02	1.649072e-01
25.1205       	-1.047369e-01	1.263160e+00	1.199784e-01	-4.474767e-02	1.647261e-01
25.121        	-1.046033e-01	1.263515e+00	1.200685e-01	-4.456906e-02	1.646376e-01
25.1215       	-1.046058e-01	1.263421e+00	1.199626e-01	-4.462446e-02	1.645871e-01
25.122        	-1.046599e-01	1.263381e+00	1.198912e-01	-4.471433e-02	1.646055e-01
25.1225       	-1.047540e-01	1.263006e+00	1.198374e-01	-4.483532e-02	1.646727e-01
25.123        	-1.047764e-01	1.263026e+00	1.199122e-01	-4.482032e-02	1.647325e-01
25.1235       	-1.047201e-01	1.262970e+00	1.197976e-01	-4.482125e-02	1.646189e-01
25.124        	-1.045400e-01	1.263510e+00	1.200333e-01	-4.452334e-02	1.645566e-01
25.1245       	-1.044809e-01	1.263498e+00	1.200337e-01	-4.446411e-02	1.644978e-01
25.125        	-1.043651e-01	1.263650e+00	1.203740e-01	-4.417809e-02	1.645521e-01
25.1255       	-1.045178e-01	1.263216e+00	1.200725e-01	-4.448158e-02	1.645541e-01
25.126        	-1.044919e-01	1.263270e+00	1.200419e-01	-4.447093e-02	1.645128e-01
25.1265       	-1.046436e-01	1.262959e+00	1.196775e-01	-4.480484e-02	1.644824e-01
25.127        	-1.044839e-01	1.263370e+00	1.200135e-01	-4.447715e-02	1.644906e-01
25.1275       	-1.044970e-01	1.263400e+00	1.200098e-01	-4.449204e-02	1.645019e-01
25.128        	-1.042158e-01	1.263927e+00	1.203428e-01	-4.404434e-02	1.643872e-01
25.1285       	-1.042897e-01	1.263704e+00	1.202658e-01	-4.415676e-02	1.644226e-01
25.129        	-1.041664e-01	1.263813e+00	1.205123e-01	-4.391029e-02	1.644225e-01
25.1295       	-1.044054e-01	1.263207e+00	1.201780e-01	-4.431640e-02	1.644944e-01
25.13         	-1.042850e-01	1.263331e+00	1.204950e-01	-4.403748e-02	1.645325e-01
25.1305       	-1.044289e-01	1.263003e+00	1.202118e-01	-4.432303e-02	1.645349e-01
25.131        	-1.041343e-01	1.263688e+00	1.206260e-01	-4.382123e-02	1.644473e-01
25.1315       	-1.042119e-01	1.263696e+00	1.204890e-01	-4.396737e-02	1.644564e-01
25.132        	-1.039052e-01	1.264215e+00	1.207578e-01	-4.352629e-02	1.642841e-01
25.1325       	-1.040952e-01	1.263707e+00	1.202110e-01	-4.398972e-02	1.642007e-01
25.133        	-1.039564e-01	1.263812e+00	1.205316e-01	-4.369059e-02	1.642222e-01
25.1335       	-1.042175e-01	1.263085e+00	1.201174e-01	-4.415887e-02	1.642762e-01
25.134        	-1.040134e-01	1.263483e+00	1.204917e-01	-4.376752e-02	1.642592e-01
25.1345       	-1.041301e-01	1.263212e+00	1.201095e-01	-4.407536e-02	1.641849e-01
25.135        	-1.037558e-01	1.263940e+00	1.206090e-01	-4.345132e-02	1.640603e-01
25.1355       	-1.038236e-01	1.263720e+00	1.205462e-01	-4.355054e-02	1.640967e-01
25.136        	-1.036178e-01	1.264009e+00	1.208730e-01	-4.318130e-02	1.640543e-01
25.1365       	-1.038831e-01	1.263313e+00	1.204259e-01	-4.367012e-02	1.640960e-01
25.137        	-1.037692e-01	1.263394e+00	1.205476e-01	-4.349543e-02	1.640430e-01
25.1375       	-1.039424e-01	1.262942e+00	1.202193e-01	-4.383271e-02	1.640520e-01
25.138        	-1.036965e-01	1.263488e+00	1.206026e-01	-4.339524e-02	1.639979e-01
25.1385       	-1.037148e-01	1.263393e+00	1.204557e-01	-4.348696e-02	1.639427e-01
25.139        	-1.034590e-01	1.263899e+00	1.207992e-01	-4.305934e-02	1.638586e-01
25.1395       	-1.035254e-01	1.263565e+00	1.206851e-01	-4.318287e-02	1.638679e-01
25.14         	-1.034594e-01	1.263636e+00	1.210042e-01	-4.295732e-02	1.639615e-01
25.1405       	-1.036237e-01	1.263121e+00	1.207453e-01	-4.325105e-02	1.639964e-01
25.141        	-1.035548e-01	1.263191e+00	1.206889e-01	-4.321037e-02	1.638993e-01
25.1415       	-1.035836e-01	1.263054e+00	1.206291e-01	-4.326909e-02	1.638982e-01
25.142        	-1.033564e-01	1.263653e+00	1.207943e-01	-4.295931e-02	1.637536e-01
25.1425       	-1.032748e-01	1.263631e+00	1.208454e-01	-4.285215e-02	1.636975e-01
25.143        	-1.031628e-01	1.263845e+00	1.209314e-01	-4.269712e-02	1.636285e-01
25.1435       	-1.032536e-01	1.263552e+00	1.209701e-01	-4.276859e-02	1.637386e-01
25.144        	-1.032766e-01	1.263249e+00	1.209161e-01	-4.281856e-02	1.637346e-01
25.1445       	-1.033687e-01	1.262894e+00	1.211148e-01	-4.281130e-02	1.639261e-01
25.145        	-1.032952e-01	1.263131e+00	1.211951e-01	-4.269766e-02	1.638927e-01
25.1455       	-1.032048e-01	1.263330e+00	1.211635e-01	-4.262306e-02	1.637866e-01
25.146        	-1.030098e-01	1.263821e+00	1.213175e-01	-4.235101e-02	1.636685e-01
25.1465       	-1.030188e-01	1.263802e+00	1.213355e-01	-4.235103e-02	1.636866e-01
25.147        	-1.029743e-01	1.263877e+00	1.212053e-01	-4.237166e-02	1.635770e-01
25.1475       	-1.031187e-01	1.263517e+00	1.212370e-01	-4.250023e-02	1.637373e-01
25.148        	-1.031177e-01	1.263351e+00	1.212687e-01	-4.248337e-02	1.637521e-01
25.1485       	-1.031558e-01	1.263163e+00	1.211453e-01	-4.258319e-02	1.637285e-01
25.149        	-1.029735e-01	1.263476e+00	1.212903e-01	-4.232836e-02	1.636187e-01
25.1495       	-1.028742e-01	1.263674e+00	1.213773e-01	-4.218557e-02	1.635629e-01
25.15         	-1.026997e-01	1.263915e+00	1.216689e-01	-4.186520e-02	1.635341e-01
25.1505       	-1.027065e-01	1.263872e+00	1.216477e-01	-4.188271e-02	1.635304e-01
25.151        	-1.027541e-01	1.263699e+00	1.215404e-01	-4.198388e-02	1.635243e-01
25.1515       	-1.028446e-01	1.263425e+00	1.213895e-01	-4.214989e-02	1.635394e-01
25.152        	-1.028642e-01	1.263362e+00	1.212128e-01	-4.225778e-02	1.634705e-01
25.1525       	-1.028101e-01	1.263455e+00	1.213607e-01	-4.212982e-02	1.634905e-01
25.153        	-1.026651e-01	1.263680e+00	1.214592e-01	-4.193550e-02	1.633947e-01
25.1535       	-1.025389e-01	1.263935e+00	1.218048e-01	-4.163649e-02	1.634413e-01
25.154        	-1.024479e-01	1.263932e+00	1.218892e-01	-4.150334e-02	1.633925e-01
25.1545       	-1.024952e-01	1.263695e+00	1.220072e-01	-4.149159e-02	1.634988e-01
25.155        	-1.025452e-01	1.263448e+00	1.217615e-01	-4.166446e-02	1.634260e-01
25.1555       	-1.025936e-01	1.263310e+00	1.216957e-01	-4.174573e-02	1.634414e-01
25.156        	-1.025357e-01	1.263447e+00	1.214996e-01	-4.178585e-02	1.632855e-01
25.1565       	-1.024662e-01	1.263671e+00	1.217107e-01	-4.161088e-02	1.633215e-01
25.157        	-1.023201e-01	1.264047e+00	1.217873e-01	-4.142648e-02	1.632138e-01
25.1575       	-1.022729e-01	1.263985e+00	1.219504e-01	-4.129768e-02	1.632480e-01
25.158        	-1.022453e-01	1.264011e+00	1.218174e-01	-4.133658e-02	1.631540e-01
25.1585       	-1.023657e-01	1.263605e+00	1.217982e-01	-4.146663e-02	1.632648e-01
25.159        	-1.023747e-01	1.263548e+00	1.217377e-01	-4.150585e-02	1.632435e-01
25.1595       	-1.023874e-01	1.263293e+00	1.216142e-01	-4.158036e-02	1.631945e-01
25.16         	-1.022425e-01	1.263736e+00	1.215682e-01	-4.145842e-02	1.630266e-01
25.1605       	-1.021688e-01	1.263819e+00	1.216834e-01	-4.132705e-02	1.630105e-01
25.161        	-1.020432e-01	1.264161e+00	1.217507e-01	-4.116785e-02	1.629186e-01
25.1615       	-1.021012e-01	1.263903e+00	1.217110e-01	-4.124571e-02	1.629568e-01
25.162        	-1.021092e-01	1.263813e+00	1.216288e-01	-4.129480e-02	1.629236e-01
25.1625       	-1.022281e-01	1.263435e+00	1.215539e-01	-4.145109e-02	1.630050e-01
25.163        	-1.021551e-01	1.263593e+00	1.214535e-01	-4.142836e-02	1.628818e-01
25.1635       	-1.021384e-01	1.263454e+00	1.217282e-01	-4.127432e-02	1.630026e-01
25.164        	-1.019538e-01	1.263926e+00	1.216641e-01	-4.112175e-02	1.627858e-01
25.1645       	-1.018660e-01	1.264057e+00	1.218852e-01	-4.092337e-02	1.628086e-01
25.165        	-1.018256e-01	1.264021e+00	1.218585e-01	-4.089634e-02	1.627549e-01
25.1655       	-1.018489e-01	1.263770e+00	1.220364e-01	-4.083073e-02	1.628672e-01
25.166        	-1.019432e-01	1.263600e+00	1.217565e-01	-4.106496e-02	1.628214e-01
25.1665       	-1.019102e-01	1.263565e+00	1.218879e-01	-4.096626e-02	1.628541e-01
25.167        	-1.019393e-01	1.263519e+00	1.215365e-01	-4.117104e-02	1.627075e-01
25.1675       	-1.017480e-01	1.263859e+00	1.218094e-01	-4.084332e-02	1.626527e-01
25.168        	-1.017116e-01	1.263866e+00	1.216251e-01	-4.089906e-02	1.625241e-01
25.1685       	-1.015239e-01	1.264127e+00	1.220609e-01	-4.049345e-02	1.625543e-01
25.169        	-1.016494e-01	1.263683e+00	1.217403e-01	-4.077923e-02	1.625195e-01
25.1695       	-1.015536e-01	1.263779e+00	1.219327e-01	-4.058721e-02	1.625199e-01
25.17         	-1.017470e-01	1.263325e+00	1.215544e-01	-4.096981e-02	1.625242e-01
25.1705       	-1.015657e-01	1.263577e+00	1.218301e-01	-4.065071e-02	1.624808e-01
25.171        	-1.016238e-01	1.263387e+00	1.215346e-01	-4.085648e-02	1.623911e-01
25.1715       	-1.013558e-01	1.263851e+00	1.219734e-01	-4.036916e-02	1.623425e-01
25.172        	-1.014193e-01	1.263655e+00	1.215882e-01	-4.062522e-02	1.622134e-01
25.1725       	-1.012949e-01	1.263814e+00	1.217893e-01	-4.040020e-02	1.621895e-01
25.173        	-1.014609e-01	1.263306e+00	1.215391e-01	-4.069131e-02	1.622304e-01
25.1735       	-1.013784e-01	1.263510e+00	1.218141e-01	-4.047135e-02	1.622854e-01
25.174        	-1.014732e-01	1.263180e+00	1.215217e-01	-4.071236e-02	1.622340e-01
25.1745       	-1.013113e-01	1.263569e+00	1.216795e-01	-4.047155e-02	1.621510e-01
25.175        	-1.012775e-01	1.263518e+00	1.214514e-01	-4.055177e-02	1.620032e-01
25.1755       	-1.011270e-01	1.263691e+00	1.214895e-01	-4.038219e-02	1.618717e-01
25.176        	-1.011536e-01	1.263509e+00	1.213863e-01	-4.046044e-02	1.618467e-01
25.1765       	-1.011888e-01	1.263461e+00	1.214319e-01	-4.047278e-02	1.619047e-01
25.177        	-1.012314e-01	1.263198e+00	1.211315e-01	-4.066563e-02	1.617971e-01
25.1775       	-1.012151e-01	1.263163e+00	1.212491e-01	-4.059059e-02	1.618397e-01
25.178        	-1.011629e-01	1.263160e+00	1.211772e-01	-4.057431e-02	1.617516e-01
25.1785       	-1.010856e-01	1.263287e+00	1.212424e-01	-4.046433e-02	1.617068e-01
25.179        	-1.009648e-01	1.263398e+00	1.211788e-01	-4.037544e-02	1.615543e-01
25.1795       	-1.009981e-01	1.263214e+00	1.213928e-01	-4.030169e-02	1.616945e-01
25.18         	-1.009459e-01	1.263105e+00	1.213605e-01	-4.026562e-02	1.616261e-01