# Force coefficients
# liftDir     : (0.000000e+00 0.000000e+00 1.000000e+00)
# dragDir     : (1.000000e+00 0.000000e+00 0.000000e+00)
# pitchAxis   : (0.000000e+00 1.000000e+00 0.000000e+00)
# magUInf     : 1.000000e+00
# lRef        : 1.000000e+00
# Aref        : 1.000000e+00
# CofR        : (2.500000e+00 0.000000e+00 0.000000e+00)
#
# Time        	Cm            	Cd            	Cl            	Cl(f)         	Cl(r)         
0.0005        	4.416474e-04	7.762266e+03	-2.952104e-03	-1.034405e-03	-1.917700e-03
0.001         	1.171695e-02	-4.373272e+03	9.789078e-03	1.661149e-02	-6.822413e-03
0.0015        	1.792127e-02	1.710631e+02	-2.034550e-02	7.748516e-03	-2.809402e-02
0.002         	2.093539e-03	3.819295e+01	4.300523e-02	2.359615e-02	1.940908e-02
0.0025        	-1.692676e-02	-1.119386e+01	-2.426350e-02	-2.905851e-02	4.795011e-03
0.003         	-2.949456e-02	-1.054392e+01	6.322767e-04	-2.917842e-02	2.981070e-02
0.0035        	-3.258836e-02	-9.349108e+00	1.024641e-02	-2.746516e-02	3.771157e-02
0.004         	-3.322472e-02	-6.065223e+00	9.776841e-03	-2.833630e-02	3.811314e-02
0.0045        	-3.457025e-02	-4.075628e+00	-5.422577e-04	-3.484138e-02	3.429912e-02
0.005         	-3.385263e-02	-2.605767e+00	-5.472452e-03	-3.658885e-02	3.111640e-02
0.0055        	-3.309097e-02	-1.518725e+00	-8.619663e-03	-3.740080e-02	2.878114e-02
0.006         	-2.829382e-02	-7.311983e-01	-9.953796e-03	-3.327071e-02	2.331692e-02
0.0065        	-2.348063e-02	-1.725925e-01	-1.421717e-02	-3.058921e-02	1.637204e-02
0.007         	-1.615826e-02	2.728128e-01	-1.475006e-02	-2.353329e-02	8.783224e-03
0.0075        	-1.285658e-02	5.881095e-01	-2.001272e-02	-2.286294e-02	2.850215e-03
0.008         	-7.640637e-03	8.216174e-01	-1.245500e-02	-1.386814e-02	1.413137e-03
0.0085        	-6.781320e-03	1.000550e+00	-9.840527e-03	-1.170158e-02	1.861057e-03
0.009         	-6.887176e-03	1.099814e+00	-1.042581e-02	-1.210008e-02	1.674271e-03
0.0095        	-5.377526e-03	1.160017e+00	-9.787561e-03	-1.027131e-02	4.837455e-04
0.01          	-4.597192e-03	1.200939e+00	-5.598276e-03	-7.396331e-03	1.798054e-03
0.0105        	-5.226554e-03	1.265434e+00	-6.395098e-03	-8.424103e-03	2.029005e-03
0.011         	-3.196319e-03	1.320106e+00	2.504239e-05	-3.183798e-03	3.208840e-03
0.0115        	-4.701708e-03	1.364506e+00	-4.272967e-03	-6.838192e-03	2.565225e-03
0.012         	-4.807792e-03	1.403434e+00	-6.060833e-03	-7.838208e-03	1.777375e-03
0.0125        	-2.670501e-03	1.465542e+00	-2.793146e-04	-2.810158e-03	2.530843e-03
0.013         	-2.120925e-03	1.480993e+00	2.697526e-03	-7.721614e-04	3.469688e-03
0.0135        	-2.789540e-03	1.504509e+00	-2.371877e-03	-3.975478e-03	1.603601e-03
0.014         	-3.847500e-03	1.523334e+00	-5.286233e-03	-6.490616e-03	1.204384e-03
0.0145        	-3.207549e-03	1.512082e+00	-2.395847e-03	-4.405472e-03	2.009625e-03
0.015         	-1.117387e-03	1.520378e+00	1.173448e-03	-5.306626e-04	1.704111e-03
0.0155        	-2.325633e-03	1.532584e+00	-7.697530e-04	-2.710509e-03	1.940756e-03
0.016         	-4.286816e-03	1.533241e+00	-5.481427e-03	-7.027529e-03	1.546102e-03
0.0165        	-2.320921e-03	1.528941e+00	2.492921e-03	-1.074460e-03	3.567381e-03
0.017         	-3.131933e-03	1.512121e+00	3.182828e-04	-2.972791e-03	3.291074e-03
0.0175        	-1.571123e-03	1.529564e+00	1.744435e-03	-6.989057e-04	2.443341e-03
0.018         	-1.936387e-03	1.527807e+00	2.247013e-03	-8.128807e-04	3.059894e-03
0.0185        	-2.592511e-03	1.532167e+00	2.398767e-03	-1.393128e-03	3.791895e-03
0.019         	-3.985972e-03	1.529428e+00	6.584614e-05	-3.953049e-03	4.018895e-03
0.0195        	-2.264821e-03	1.534998e+00	2.918898e-03	-8.053718e-04	3.724270e-03
0.02          	-2.905147e-03	1.563078e+00	4.256109e-03	-7.770926e-04	5.033202e-03
0.0205        	-2.989809e-03	1.563394e+00	6.054909e-03	3.764512e-05	6.017263e-03
0.021         	-2.793614e-03	1.557476e+00	6.371908e-03	3.923398e-04	5.979568e-03
0.0215        	-3.350344e-03	1.520816e+00	4.904693e-03	-8.979979e-04	5.802691e-03
0.022         	-3.462244e-03	1.507781e+00	4.676263e-03	-1.124113e-03	5.800376e-03
0.0225        	-3.109098e-03	1.506675e+00	6.289148e-03	3.547661e-05	6.253672e-03
0.023         	-2.370076e-03	1.496722e+00	5.603861e-03	4.318547e-04	5.172006e-03
0.0235        	-1.994804e-03	1.474237e+00	6.748418e-03	1.379405e-03	5.369013e-03
0.024         	-3.404850e-03	1.447637e+00	4.638090e-03	-1.085805e-03	5.723895e-03
0.0245        	-3.770843e-03	1.428373e+00	3.937178e-03	-1.802254e-03	5.739433e-03
0.025         	-3.603849e-03	1.403934e+00	2.657882e-03	-2.274908e-03	4.932790e-03
0.0255        	-4.374383e-03	1.397787e+00	2.967452e-03	-2.890657e-03	5.858109e-03
0.026         	-3.808283e-03	1.385641e+00	5.334265e-03	-1.141150e-03	6.475415e-03
0.0265        	-3.680425e-03	1.390004e+00	3.819732e-03	-1.770559e-03	5.590291e-03
0.027         	-3.210914e-03	1.383042e+00	5.231077e-03	-5.953750e-04	5.826452e-03
0.0275        	-4.156248e-03	1.376643e+00	1.997715e-03	-3.157390e-03	5.155105e-03
0.028         	-4.034366e-03	1.374525e+00	1.831665e-03	-3.118533e-03	4.950198e-03
0.0285        	-5.342056e-03	1.358027e+00	1.020177e-03	-4.831968e-03	5.852145e-03
0.029         	-5.218592e-03	1.363536e+00	2.922883e-04	-5.072448e-03	5.364736e-03
0.0295        	-4.651017e-03	1.372360e+00	1.894754e-03	-3.703640e-03	5.598393e-03
0.03          	-4.532640e-03	1.373088e+00	6.038063e-04	-4.230737e-03	4.834543e-03
0.0305        	-4.389258e-03	1.372403e+00	9.464735e-05	-4.341935e-03	4.436582e-03
0.031         	-4.634039e-03	1.369944e+00	-7.482157e-04	-5.008147e-03	4.259931e-03
0.0315        	-3.991547e-03	1.372193e+00	2.212549e-03	-2.885272e-03	5.097822e-03
0.032         	-3.930491e-03	1.380828e+00	2.832146e-03	-2.514418e-03	5.346564e-03
0.0325        	-4.483556e-03	1.391758e+00	1.313696e-03	-3.826708e-03	5.140404e-03
0.033         	-4.355388e-03	1.393531e+00	2.358632e-03	-3.176072e-03	5.534704e-03
0.0335        	-3.947481e-03	1.396670e+00	2.247887e-03	-2.823537e-03	5.071425e-03
0.034         	-4.909708e-03	1.407915e+00	1.643638e-04	-4.827526e-03	4.991890e-03
0.0345        	-4.425207e-03	1.410101e+00	2.040696e-03	-3.404859e-03	5.445555e-03
0.035         	-4.216607e-03	1.406000e+00	1.421203e-03	-3.506006e-03	4.927208e-03
0.0355        	-4.720493e-03	1.416816e+00	-1.556538e-03	-5.498762e-03	3.942224e-03
0.036         	-4.099010e-03	1.427758e+00	2.125562e-04	-3.992732e-03	4.205288e-03
0.0365        	-3.284874e-03	1.430789e+00	1.778339e-03	-2.395705e-03	4.174044e-03
0.037         	-3.968915e-03	1.433140e+00	1.516475e-03	-3.210677e-03	4.727152e-03
0.0375        	-4.533811e-03	1.438791e+00	6.106288e-04	-4.228497e-03	4.839126e-03
0.038         	-4.494917e-03	1.449302e+00	2.397106e-03	-3.296364e-03	5.693470e-03
0.0385        	-3.777665e-03	1.450348e+00	3.029689e-03	-2.262821e-03	5.292510e-03
0.039         	-4.273599e-03	1.456232e+00	3.269942e-04	-4.110102e-03	4.437096e-03
0.0395        	-3.323067e-03	1.466501e+00	3.617151e-03	-1.514492e-03	5.131642e-03
0.04          	-3.155257e-03	1.474632e+00	4.448486e-03	-9.310140e-04	5.379500e-03
0.0405        	-4.059428e-03	1.485316e+00	1.733776e-03	-3.192540e-03	4.926316e-03
0.041         	-4.304116e-03	1.489703e+00	1.933630e-03	-3.337300e-03	5.270931e-03
0.0415        	-3.975657e-03	1.492973e+00	2.406072e-03	-2.772621e-03	5.178692e-03
0.042         	-4.248067e-03	1.496687e+00	1.070818e-03	-3.712658e-03	4.783476e-03
0.0425        	-4.660059e-03	1.501205e+00	3.342052e-04	-4.492956e-03	4.827162e-03
0.043         	-4.372549e-03	1.509449e+00	2.105382e-03	-3.319858e-03	5.425240e-03
0.0435        	-3.797418e-03	1.521008e+00	2.501795e-03	-2.546521e-03	5.048316e-03
0.044         	-3.458465e-03	1.520900e+00	3.781692e-03	-1.567619e-03	5.349311e-03
0.0445        	-3.470057e-03	1.525463e+00	3.269620e-03	-1.835247e-03	5.104867e-03
0.045         	-3.404633e-03	1.526454e+00	2.941998e-03	-1.933634e-03	4.875632e-03
0.0455        	-3.300934e-03	1.532193e+00	3.343366e-03	-1.629251e-03	4.972617e-03
0.046         	-3.435310e-03	1.538927e+00	3.086174e-03	-1.892223e-03	4.978397e-03
0.0465        	-2.767003e-03	1.546611e+00	4.537269e-03	-4.983687e-04	5.035637e-03
0.047         	-3.159420e-03	1.554967e+00	2.446115e-03	-1.936363e-03	4.382478e-03
0.0475        	-3.178700e-03	1.560406e+00	2.243306e-03	-2.057047e-03	4.300353e-03
0.048         	-3.649180e-03	1.564265e+00	2.491191e-03	-2.403584e-03	4.894775e-03
0.0485        	-3.489461e-03	1.567219e+00	1.851260e-03	-2.563832e-03	4.415091e-03
0.049         	-3.384867e-03	1.571676e+00	3.580676e-03	-1.594529e-03	5.175205e-03
0.0495        	-3.064523e-03	1.577474e+00	3.852238e-03	-1.138404e-03	4.990641e-03
0.05          	-2.835877e-03	1.582689e+00	3.344522e-03	-1.163616e-03	4.508138e-03
0.0505        	-2.930368e-03	1.585973e+00	3.171229e-03	-1.344754e-03	4.515982e-03
0.051         	-2.969506e-03	1.590946e+00	3.440103e-03	-1.249455e-03	4.689558e-03
0.0515        	-3.357833e-03	1.594048e+00	1.976900e-03	-2.369383e-03	4.346283e-03
0.052         	-3.200353e-03	1.594688e+00	2.675221e-03	-1.862742e-03	4.537963e-03
0.0525        	-3.611646e-03	1.599450e+00	8.673070e-04	-3.177992e-03	4.045299e-03
0.053         	-3.408278e-03	1.604464e+00	6.676354e-04	-3.074461e-03	3.742096e-03
0.0535        	-2.777140e-03	1.604488e+00	2.494985e-03	-1.529647e-03	4.024633e-03
0.054         	-2.600713e-03	1.605321e+00	3.240441e-03	-9.804927e-04	4.220934e-03
0.0545        	-2.978268e-03	1.608229e+00	2.748552e-03	-1.603992e-03	4.352544e-03
0.055         	-3.210938e-03	1.614732e+00	2.097017e-03	-2.162430e-03	4.259447e-03
0.0555        	-3.236818e-03	1.622560e+00	1.715181e-03	-2.379228e-03	4.094409e-03
0.056         	-3.114904e-03	1.626159e+00	1.376773e-03	-2.426518e-03	3.803291e-03
0.0565        	-2.905531e-03	1.628148e+00	1.497856e-03	-2.156603e-03	3.654459e-03
0.057         	-3.243514e-03	1.627194e+00	1.075123e-03	-2.705952e-03	3.781075e-03
0.0575        	-3.544729e-03	1.632098e+00	1.118610e-03	-2.985423e-03	4.104034e-03
0.058         	-3.481288e-03	1.639066e+00	2.182082e-03	-2.390247e-03	4.572329e-03
0.0585        	-3.171888e-03	1.644310e+00	2.133767e-03	-2.105004e-03	4.238771e-03
0.059         	-2.975252e-03	1.648546e+00	2.144353e-03	-1.903076e-03	4.047429e-03
0.0595        	-2.702926e-03	1.653133e+00	2.108092e-03	-1.648880e-03	3.756972e-03
0.06          	-3.082284e-03	1.658031e+00	2.203131e-03	-1.980718e-03	4.183849e-03
0.0605        	-2.785438e-03	1.663347e+00	3.295165e-03	-1.137856e-03	4.433020e-03
0.061         	-2.817554e-03	1.667636e+00	2.207702e-03	-1.713703e-03	3.921405e-03
0.0615        	-2.816283e-03	1.672722e+00	1.351590e-03	-2.140488e-03	3.492078e-03
0.062         	-2.702234e-03	1.677231e+00	2.331128e-03	-1.536670e-03	3.867798e-03
0.0625        	-2.658648e-03	1.683491e+00	2.117252e-03	-1.600022e-03	3.717274e-03
0.063         	-2.911529e-03	1.691239e+00	4.696421e-04	-2.676708e-03	3.146350e-03
0.0635        	-2.957971e-03	1.692984e+00	1.122167e-03	-2.396887e-03	3.519055e-03
0.064         	-2.853946e-03	1.694868e+00	1.388571e-03	-2.159660e-03	3.548231e-03
0.0645        	-2.264410e-03	1.699818e+00	3.152789e-03	-6.880148e-04	3.840804e-03
0.065         	-2.074887e-03	1.707236e+00	3.547506e-03	-3.011338e-04	3.848640e-03
0.0655        	-2.412991e-03	1.710297e+00	3.169495e-03	-8.282437e-04	3.997738e-03
0.066         	-2.754987e-03	1.712109e+00	2.145189e-03	-1.682392e-03	3.827581e-03
0.0665        	-2.902862e-03	1.713956e+00	1.791425e-03	-2.007149e-03	3.798575e-03
0.067         	-2.718411e-03	1.716567e+00	2.307992e-03	-1.564415e-03	3.872407e-03
0.0675        	-2.802178e-03	1.721647e+00	2.060206e-03	-1.772075e-03	3.832281e-03
0.068         	-3.036905e-03	1.727952e+00	1.892444e-03	-2.090683e-03	3.983127e-03
0.0685        	-3.354626e-03	1.733287e+00	2.049511e-03	-2.329870e-03	4.379381e-03
0.069         	-3.129182e-03	1.735717e+00	1.813165e-03	-2.222600e-03	4.035765e-03
0.0695        	-2.653266e-03	1.738775e+00	2.253496e-03	-1.526518e-03	3.780014e-03
0.07          	-2.430203e-03	1.740799e+00	2.615821e-03	-1.122292e-03	3.738113e-03
0.0705        	-2.350991e-03	1.743582e+00	2.937270e-03	-8.823561e-04	3.819627e-03
0.071         	-2.639121e-03	1.748660e+00	3.159859e-03	-1.059191e-03	4.219051e-03
0.0715        	-2.840142e-03	1.755436e+00	3.181354e-03	-1.249465e-03	4.430820e-03
0.072         	-2.608513e-03	1.757953e+00	2.839040e-03	-1.188993e-03	4.028032e-03
0.0725        	-2.403248e-03	1.759598e+00	2.642694e-03	-1.081901e-03	3.724595e-03
0.073         	-2.264849e-03	1.759664e+00	2.159222e-03	-1.185238e-03	3.344460e-03
0.0735        	-2.316296e-03	1.760309e+00	2.322709e-03	-1.154941e-03	3.477650e-03
0.074         	-2.368037e-03	1.763680e+00	2.841654e-03	-9.472104e-04	3.788864e-03
0.0745        	-2.528467e-03	1.768983e+00	2.529754e-03	-1.263590e-03	3.793344e-03
0.075         	-2.621149e-03	1.774484e+00	1.937017e-03	-1.652641e-03	3.589658e-03
0.0755        	-2.651943e-03	1.775969e+00	1.838752e-03	-1.732567e-03	3.571319e-03
0.076         	-2.475541e-03	1.775615e+00	1.568189e-03	-1.691447e-03	3.259636e-03
0.0765        	-2.251299e-03	1.777080e+00	2.155984e-03	-1.173307e-03	3.329291e-03
0.077         	-2.338286e-03	1.780648e+00	2.363577e-03	-1.156497e-03	3.520075e-03
0.0775        	-2.616926e-03	1.785512e+00	2.168418e-03	-1.532717e-03	3.701135e-03
0.078         	-3.161494e-03	1.789831e+00	9.619675e-04	-2.680510e-03	3.642478e-03
0.0785        	-3.435881e-03	1.792786e+00	7.651844e-04	-3.053289e-03	3.818473e-03
0.079         	-3.035457e-03	1.794078e+00	1.234633e-03	-2.418140e-03	3.652773e-03
0.0795        	-3.089103e-03	1.794785e+00	9.723515e-04	-2.602927e-03	3.575279e-03
0.08          	-3.149289e-03	1.798387e+00	-1.297476e-04	-3.214162e-03	3.084415e-03
0.0805        	-3.478721e-03	1.800682e+00	3.902453e-04	-3.283598e-03	3.673844e-03
0.081         	-3.500488e-03	1.805186e+00	4.106893e-04	-3.295144e-03	3.705833e-03
0.0815        	-3.385176e-03	1.808999e+00	8.476466e-04	-2.961352e-03	3.808999e-03
0.082         	-2.782300e-03	1.810450e+00	2.123919e-03	-1.720340e-03	3.844259e-03
0.0825        	-2.932320e-03	1.809964e+00	1.873238e-03	-1.995701e-03	3.868939e-03
0.083         	-2.879643e-03	1.810641e+00	9.534841e-04	-2.402901e-03	3.356385e-03
0.0835        	-3.240580e-03	1.813529e+00	2.082724e-05	-3.230167e-03	3.250994e-03
0.084         	-3.481065e-03	1.816955e+00	-4.943999e-04	-3.728265e-03	3.233865e-03
0.0845        	-3.773714e-03	1.823191e+00	-3.218316e-04	-3.934630e-03	3.612798e-03
0.085         	-3.634984e-03	1.823470e+00	-2.273550e-05	-3.646352e-03	3.623616e-03
0.0855        	-3.577855e-03	1.823741e+00	3.013173e-04	-3.427197e-03	3.728514e-03
0.086         	-3.564278e-03	1.823310e+00	-1.909759e-04	-3.659766e-03	3.468790e-03
0.0865        	-3.579936e-03	1.825255e+00	-7.195776e-04	-3.939725e-03	3.220147e-03
0.087         	-3.597946e-03	1.826586e+00	-1.233412e-03	-4.214652e-03	2.981240e-03
0.0875        	-3.489079e-03	1.830599e+00	-7.684613e-04	-3.873310e-03	3.104849e-03
0.088         	-3.661021e-03	1.831986e+00	-5.721152e-04	-3.947079e-03	3.374964e-03
0.0885        	-3.820526e-03	1.832885e+00	-6.156029e-04	-4.128328e-03	3.512725e-03
0.089         	-3.779366e-03	1.831035e+00	-9.606442e-04	-4.259688e-03	3.299044e-03
0.0895        	-3.481333e-03	1.832355e+00	-1.229398e-03	-4.096032e-03	2.866634e-03
0.09          	-3.618695e-03	1.833069e+00	-1.497800e-03	-4.367595e-03	2.869795e-03
0.0905        	-3.533848e-03	1.836597e+00	-1.242269e-03	-4.154983e-03	2.912714e-03
0.091         	-3.877591e-03	1.838516e+00	-1.763870e-03	-4.759526e-03	2.995656e-03
0.0915        	-3.962081e-03	1.840689e+00	-1.623275e-03	-4.773718e-03	3.150443e-03
0.092         	-4.267855e-03	1.839810e+00	-2.017982e-03	-5.276846e-03	3.258864e-03
0.0925        	-4.026428e-03	1.839553e+00	-2.303082e-03	-5.177969e-03	2.874887e-03
0.093         	-4.261447e-03	1.840572e+00	-3.133801e-03	-5.828347e-03	2.694546e-03
0.0935        	-4.275535e-03	1.843680e+00	-3.316373e-03	-5.933722e-03	2.617349e-03
0.094         	-4.632356e-03	1.846625e+00	-3.782992e-03	-6.523852e-03	2.740860e-03
0.0945        	-4.418150e-03	1.848448e+00	-2.996278e-03	-5.916289e-03	2.920011e-03
0.095         	-4.613834e-03	1.848502e+00	-2.755292e-03	-5.991480e-03	3.236188e-03
0.0955        	-4.452735e-03	1.847370e+00	-2.182707e-03	-5.544089e-03	3.361382e-03
0.096         	-4.579513e-03	1.847157e+00	-3.390178e-03	-6.274602e-03	2.884423e-03
0.0965        	-4.514340e-03	1.848383e+00	-3.584869e-03	-6.306774e-03	2.721905e-03
0.097         	-4.653106e-03	1.850378e+00	-4.174606e-03	-6.740409e-03	2.565803e-03
0.0975        	-4.211050e-03	1.853450e+00	-3.223158e-03	-5.822629e-03	2.599471e-03
0.098         	-4.229902e-03	1.854303e+00	-2.491666e-03	-5.475735e-03	2.984069e-03
0.0985        	-3.854482e-03	1.853538e+00	-1.759221e-03	-4.734093e-03	2.974872e-03
0.099         	-4.066905e-03	1.852256e+00	-2.353281e-03	-5.243546e-03	2.890265e-03
0.0995        	-4.188466e-03	1.852006e+00	-3.495182e-03	-5.936057e-03	2.440875e-03
0.1           	-3.743990e-03	1.852325e+00	-2.274291e-03	-4.881135e-03	2.606844e-03
0.1005        	-3.735846e-03	1.854617e+00	-2.860204e-03	-5.165948e-03	2.305744e-03
0.101         	-3.848979e-03	1.855549e+00	-2.728336e-03	-5.213146e-03	2.484811e-03
0.1015        	-3.642142e-03	1.856301e+00	-2.243863e-03	-4.764074e-03	2.520211e-03
0.102         	-4.243526e-03	1.853776e+00	-3.993014e-03	-6.240033e-03	2.247019e-03
0.1025        	-3.912759e-03	1.852896e+00	-3.465975e-03	-5.645746e-03	2.179771e-03
0.103         	-4.370330e-03	1.853771e+00	-4.501701e-03	-6.621181e-03	2.119480e-03
0.1035        	-3.799769e-03	1.855875e+00	-3.481949e-03	-5.540743e-03	2.058795e-03
0.104         	-4.100372e-03	1.858303e+00	-4.035922e-03	-6.118333e-03	2.082411e-03
0.1045        	-3.656262e-03	1.859508e+00	-2.719061e-03	-5.015792e-03	2.296731e-03
0.105         	-3.941745e-03	1.859057e+00	-2.871761e-03	-5.377626e-03	2.505865e-03
0.1055        	-3.792741e-03	1.856630e+00	-2.401995e-03	-4.993739e-03	2.591744e-03
0.106         	-4.183767e-03	1.854428e+00	-3.574995e-03	-5.971265e-03	2.396269e-03
0.1065        	-3.991631e-03	1.854803e+00	-3.988844e-03	-5.986053e-03	1.997209e-03
0.107         	-4.099095e-03	1.857193e+00	-4.687657e-03	-6.442924e-03	1.755267e-03
0.1075        	-4.023604e-03	1.859993e+00	-4.519479e-03	-6.283343e-03	1.763864e-03
0.108         	-4.291250e-03	1.860293e+00	-3.950294e-03	-6.266397e-03	2.316103e-03
0.1085        	-4.297621e-03	1.858991e+00	-3.243255e-03	-5.919249e-03	2.675994e-03
0.109         	-4.036504e-03	1.856129e+00	-2.926051e-03	-5.499530e-03	2.573479e-03
0.1095        	-3.882199e-03	1.855183e+00	-3.374561e-03	-5.569479e-03	2.194918e-03
0.11          	-3.759835e-03	1.856177e+00	-3.865061e-03	-5.692366e-03	1.827305e-03
0.1105        	-3.714608e-03	1.859139e+00	-4.275784e-03	-5.852500e-03	1.576716e-03
0.111         	-3.628458e-03	1.860599e+00	-3.957861e-03	-5.607388e-03	1.649527e-03
0.1115        	-3.604294e-03	1.860987e+00	-3.464630e-03	-5.336610e-03	1.871979e-03
0.112         	-3.667332e-03	1.859042e+00	-2.906432e-03	-5.120548e-03	2.214116e-03
0.1125        	-3.562724e-03	1.856787e+00	-2.806667e-03	-4.966057e-03	2.159391e-03
0.113         	-3.576774e-03	1.855298e+00	-3.102111e-03	-5.127829e-03	2.025718e-03
0.1135        	-3.391085e-03	1.856175e+00	-3.171056e-03	-4.976613e-03	1.805557e-03
0.114         	-3.342297e-03	1.858020e+00	-3.004188e-03	-4.844391e-03	1.840203e-03
0.1145        	-3.191600e-03	1.859164e+00	-1.981698e-03	-4.182448e-03	2.200751e-03
0.115         	-3.518646e-03	1.857931e+00	-1.591512e-03	-4.314402e-03	2.722890e-03
0.1155        	-3.267984e-03	1.855626e+00	-9.097047e-04	-3.722836e-03	2.813132e-03
0.116         	-3.367332e-03	1.853280e+00	-1.759116e-03	-4.246890e-03	2.487774e-03
0.1165        	-3.035585e-03	1.854143e+00	-2.223133e-03	-4.147151e-03	1.924019e-03
0.117         	-3.173871e-03	1.855671e+00	-2.875821e-03	-4.611782e-03	1.735961e-03
0.1175        	-2.790392e-03	1.857541e+00	-1.943462e-03	-3.762123e-03	1.818661e-03
0.118         	-3.174352e-03	1.857534e+00	-1.476412e-03	-3.912558e-03	2.436146e-03
0.1185        	-3.070066e-03	1.856079e+00	-5.214990e-04	-3.330815e-03	2.809316e-03
0.119         	-3.383653e-03	1.854084e+00	-1.730938e-03	-4.249122e-03	2.518184e-03
0.1195        	-2.930605e-03	1.852660e+00	-1.666068e-03	-3.763639e-03	2.097571e-03
0.12          	-2.949708e-03	1.853719e+00	-2.871623e-03	-4.385520e-03	1.513897e-03
0.1205        	-2.310034e-03	1.855004e+00	-1.751962e-03	-3.186016e-03	1.434053e-03
0.121         	-2.854901e-03	1.856790e+00	-2.548135e-03	-4.128969e-03	1.580833e-03
0.1215        	-2.568572e-03	1.856641e+00	-4.450498e-04	-2.791097e-03	2.346047e-03
0.122         	-3.081023e-03	1.856061e+00	-1.408483e-03	-3.785264e-03	2.376782e-03
0.1225        	-2.753735e-03	1.854402e+00	-1.141790e-03	-3.324630e-03	2.182840e-03
0.123         	-2.944688e-03	1.853212e+00	-2.381203e-03	-4.135289e-03	1.754086e-03
0.1235        	-2.502819e-03	1.853251e+00	-2.261306e-03	-3.633472e-03	1.372166e-03
0.124         	-2.558061e-03	1.854587e+00	-2.155555e-03	-3.635839e-03	1.480284e-03
0.1245        	-2.472922e-03	1.856210e+00	-1.063722e-03	-3.004782e-03	1.941061e-03
0.125         	-2.640041e-03	1.857041e+00	-4.273876e-04	-2.853735e-03	2.426347e-03
0.1255        	-2.551782e-03	1.856181e+00	-3.206263e-04	-2.712095e-03	2.391468e-03
0.126         	-2.588811e-03	1.854122e+00	-9.990940e-04	-3.088358e-03	2.089264e-03
0.1265        	-2.407000e-03	1.852124e+00	-1.678769e-03	-3.246384e-03	1.567615e-03
0.127         	-2.501772e-03	1.851929e+00	-2.327185e-03	-3.665364e-03	1.338179e-03
0.1275        	-2.312063e-03	1.853420e+00	-1.912402e-03	-3.268264e-03	1.355862e-03
0.128         	-2.607423e-03	1.854572e+00	-1.280474e-03	-3.247660e-03	1.967186e-03
0.1285        	-2.570623e-03	1.854653e+00	-5.716680e-04	-2.856457e-03	2.284789e-03
0.129         	-2.636410e-03	1.853047e+00	-9.566289e-04	-3.114724e-03	2.158095e-03
0.1295        	-2.342265e-03	1.850480e+00	-1.283683e-03	-2.984107e-03	1.700424e-03
0.13          	-2.376482e-03	1.848188e+00	-2.074399e-03	-3.413682e-03	1.339283e-03
0.1305        	-2.269387e-03	1.848191e+00	-1.875166e-03	-3.206969e-03	1.331804e-03
0.131         	-2.415583e-03	1.848899e+00	-1.646261e-03	-3.238713e-03	1.592453e-03
0.1315        	-2.295820e-03	1.849517e+00	-7.466035e-04	-2.669121e-03	1.922518e-03
0.132         	-2.388706e-03	1.850176e+00	-8.333100e-04	-2.805361e-03	1.972051e-03
0.1325        	-2.008688e-03	1.849217e+00	-5.836154e-04	-2.300496e-03	1.716880e-03
0.133         	-2.197345e-03	1.846489e+00	-1.970022e-03	-3.182356e-03	1.212334e-03
0.1335        	-1.927951e-03	1.844984e+00	-2.033008e-03	-2.944455e-03	9.114467e-04
0.134         	-2.337181e-03	1.844669e+00	-2.350875e-03	-3.512618e-03	1.161743e-03
0.1345        	-2.202352e-03	1.845894e+00	-1.314602e-03	-2.859653e-03	1.545051e-03
0.135         	-2.472798e-03	1.847680e+00	-1.273245e-03	-3.109420e-03	1.836175e-03
0.1355        	-2.060211e-03	1.848237e+00	-6.485201e-04	-2.384471e-03	1.735951e-03
0.136         	-2.123066e-03	1.847197e+00	-1.839223e-03	-3.042677e-03	1.203454e-03
0.1365        	-1.765531e-03	1.844300e+00	-2.051767e-03	-2.791415e-03	7.396474e-04
0.137         	-1.919370e-03	1.842482e+00	-2.585847e-03	-3.212294e-03	6.264467e-04
0.1375        	-1.643690e-03	1.842334e+00	-1.488196e-03	-2.387789e-03	8.995922e-04
0.138         	-1.919259e-03	1.843868e+00	-1.416380e-03	-2.627449e-03	1.211069e-03
0.1385        	-1.638222e-03	1.846208e+00	-4.768691e-04	-1.876656e-03	1.399787e-03
0.139         	-1.850073e-03	1.846406e+00	-1.543992e-03	-2.622069e-03	1.078078e-03
0.1395        	-1.515431e-03	1.845216e+00	-1.602062e-03	-2.316462e-03	7.144000e-04
0.14          	-1.686494e-03	1.842458e+00	-2.510097e-03	-2.941542e-03	4.314455e-04
0.1405        	-1.644228e-03	1.841287e+00	-2.062174e-03	-2.675315e-03	6.131409e-04
0.141         	-1.884614e-03	1.840812e+00	-1.623846e-03	-2.696537e-03	1.072692e-03
0.1415        	-1.840514e-03	1.842009e+00	-6.071996e-04	-2.144114e-03	1.536914e-03
0.142         	-1.900058e-03	1.843510e+00	-7.185249e-04	-2.259320e-03	1.540796e-03
0.1425        	-1.687047e-03	1.843453e+00	-1.049184e-03	-2.211639e-03	1.162455e-03
0.143         	-1.662328e-03	1.842564e+00	-1.998848e-03	-2.661752e-03	6.629044e-04
0.1435        	-1.460790e-03	1.839733e+00	-1.949243e-03	-2.435411e-03	4.861688e-04
0.144         	-1.708568e-03	1.838049e+00	-2.141753e-03	-2.779444e-03	6.376913e-04
0.1445        	-1.739299e-03	1.837398e+00	-1.028219e-03	-2.253409e-03	1.225190e-03
0.145         	-2.213261e-03	1.838351e+00	-1.814277e-03	-3.120400e-03	1.306123e-03
0.1455        	-1.729943e-03	1.839961e+00	-7.002422e-04	-2.080064e-03	1.379822e-03
0.146         	-1.859484e-03	1.839645e+00	-2.205592e-03	-2.962280e-03	7.566883e-04
0.1465        	-1.406673e-03	1.839814e+00	-1.639516e-03	-2.226431e-03	5.869153e-04
0.147         	-1.806791e-03	1.836110e+00	-2.745347e-03	-3.179465e-03	4.341178e-04
0.1475        	-1.730100e-03	1.834842e+00	-1.849479e-03	-2.654840e-03	8.053605e-04
0.148         	-2.072373e-03	1.833355e+00	-1.870440e-03	-3.007593e-03	1.137153e-03
0.1485        	-2.039886e-03	1.834539e+00	-1.166623e-03	-2.623198e-03	1.456575e-03
0.149         	-1.957239e-03	1.835545e+00	-1.744225e-03	-2.829352e-03	1.085127e-03
0.1495        	-1.566868e-03	1.835730e+00	-1.485909e-03	-2.309822e-03	8.239132e-04
0.15          	-1.673094e-03	1.834845e+00	-2.538490e-03	-2.942339e-03	4.038486e-04
0.1505        	-1.328127e-03	1.832944e+00	-1.421181e-03	-2.038718e-03	6.175367e-04
0.151         	-2.099261e-03	1.831929e+00	-2.549075e-03	-3.373798e-03	8.247236e-04
0.1515        	-1.809917e-03	1.831175e+00	-4.536210e-04	-2.036728e-03	1.583107e-03
0.152         	-2.330011e-03	1.831889e+00	-1.561470e-03	-3.110746e-03	1.549275e-03
0.1525        	-1.823988e-03	1.832803e+00	-5.997886e-04	-2.123882e-03	1.524093e-03
0.153         	-1.988374e-03	1.833112e+00	-2.191951e-03	-3.084350e-03	8.923985e-04
0.1535        	-1.549524e-03	1.832059e+00	-1.275736e-03	-2.187392e-03	9.116558e-04
0.154         	-2.045428e-03	1.829785e+00	-2.426704e-03	-3.258780e-03	8.320760e-04
0.1545        	-1.675623e-03	1.827904e+00	-8.073300e-04	-2.079288e-03	1.271958e-03
0.155         	-2.339428e-03	1.828122e+00	-1.839959e-03	-3.259408e-03	1.419448e-03
0.1555        	-1.893077e-03	1.828344e+00	-6.577382e-04	-2.221946e-03	1.564208e-03
0.156         	-2.246603e-03	1.829506e+00	-2.343604e-03	-3.418405e-03	1.074801e-03
0.1565        	-1.745756e-03	1.829232e+00	-1.867088e-03	-2.679300e-03	8.122120e-04
0.157         	-2.010443e-03	1.828528e+00	-2.909273e-03	-3.465079e-03	5.558068e-04
0.1575        	-1.651696e-03	1.825876e+00	-1.692947e-03	-2.498170e-03	8.052231e-04
0.158         	-2.059796e-03	1.824065e+00	-1.842407e-03	-2.980999e-03	1.138592e-03
0.1585        	-1.875549e-03	1.823259e+00	-6.329236e-04	-2.192011e-03	1.559087e-03
0.159         	-1.946801e-03	1.824803e+00	-1.085965e-03	-2.489784e-03	1.403819e-03
0.1595        	-1.711556e-03	1.825854e+00	-1.167890e-03	-2.295501e-03	1.127610e-03
0.16          	-1.734495e-03	1.825549e+00	-1.741713e-03	-2.605351e-03	8.636378e-04
0.1605        	-1.664961e-03	1.824353e+00	-1.894512e-03	-2.612217e-03	7.177047e-04
0.161         	-1.867018e-03	1.822131e+00	-1.986194e-03	-2.860116e-03	8.739213e-04
0.1615        	-1.891040e-03	1.819825e+00	-1.486813e-03	-2.634446e-03	1.147634e-03
0.162         	-2.118599e-03	1.818784e+00	-1.529422e-03	-2.883310e-03	1.353888e-03
0.1625        	-2.011405e-03	1.820066e+00	-1.456289e-03	-2.739549e-03	1.283261e-03
0.163         	-1.994403e-03	1.821597e+00	-1.953026e-03	-2.970916e-03	1.017890e-03
0.1635        	-1.731089e-03	1.821850e+00	-2.231188e-03	-2.846683e-03	6.154952e-04
0.164         	-1.716599e-03	1.820418e+00	-2.491480e-03	-2.962339e-03	4.708589e-04
0.1645        	-1.740610e-03	1.817851e+00	-2.254466e-03	-2.867843e-03	6.133764e-04
0.165         	-2.077110e-03	1.815142e+00	-2.587107e-03	-3.370664e-03	7.835571e-04
0.1655        	-1.940235e-03	1.814273e+00	-1.775508e-03	-2.827989e-03	1.052481e-03
0.166         	-1.972010e-03	1.814888e+00	-2.194470e-03	-3.069245e-03	8.747755e-04
0.1665        	-1.507173e-03	1.816192e+00	-1.607697e-03	-2.311021e-03	7.033245e-04
0.167         	-1.432697e-03	1.817009e+00	-2.123433e-03	-2.494414e-03	3.709808e-04
0.1675        	-1.153675e-03	1.816244e+00	-1.397699e-03	-1.852525e-03	4.548260e-04
0.168         	-1.397957e-03	1.814023e+00	-1.559063e-03	-2.177489e-03	6.184256e-04
0.1685        	-1.469653e-03	1.811486e+00	-9.533469e-04	-1.946326e-03	9.929795e-04
0.169         	-1.671604e-03	1.810488e+00	-1.194060e-03	-2.268635e-03	1.074574e-03
0.1695        	-1.423255e-03	1.811356e+00	-8.968117e-04	-1.871661e-03	9.748489e-04
0.17          	-1.284717e-03	1.813172e+00	-1.354055e-03	-1.961744e-03	6.076891e-04
0.1705        	-1.117894e-03	1.814290e+00	-1.315514e-03	-1.775651e-03	4.601363e-04
0.171         	-1.245742e-03	1.813677e+00	-1.744235e-03	-2.117860e-03	3.736252e-04
0.1715        	-1.528402e-03	1.810701e+00	-1.594078e-03	-2.325441e-03	7.313630e-04
0.172         	-1.651396e-03	1.807813e+00	-1.398833e-03	-2.350813e-03	9.519797e-04
0.1725        	-1.608219e-03	1.806452e+00	-1.023497e-03	-2.119968e-03	1.096471e-03
0.173         	-1.317078e-03	1.807493e+00	-1.066680e-03	-1.850418e-03	7.837378e-04
0.1735        	-1.217869e-03	1.808972e+00	-1.335384e-03	-1.885561e-03	5.501768e-04
0.174         	-1.011452e-03	1.810204e+00	-1.586476e-03	-1.804689e-03	2.182137e-04
0.1745        	-1.269768e-03	1.809093e+00	-1.782805e-03	-2.161171e-03	3.783660e-04
0.175         	-1.198674e-03	1.806990e+00	-1.375614e-03	-1.886481e-03	5.108672e-04
0.1755        	-1.427762e-03	1.803663e+00	-1.190966e-03	-2.023245e-03	8.322791e-04
0.176         	-1.116336e-03	1.803040e+00	-8.187055e-04	-1.525688e-03	7.069828e-04
0.1765        	-1.073437e-03	1.803029e+00	-8.571119e-04	-1.501993e-03	6.448806e-04
0.177         	-7.764990e-04	1.804658e+00	-1.114229e-03	-1.333614e-03	2.193843e-04
0.1775        	-8.263672e-04	1.804589e+00	-1.279833e-03	-1.466284e-03	1.864507e-04
0.178         	-9.536007e-04	1.804495e+00	-1.294778e-03	-1.600990e-03	3.062114e-04
0.1785        	-1.323802e-03	1.802254e+00	-1.045221e-03	-1.846413e-03	8.011911e-04