7.05 	0 	0 	0
7.08333 	0 	0 	0
7.11666 	0 	0 	0
7.15 	0 	0 	0
7.18333 	0 	0 	0
7.21666 	0 	0 	0
7.25 	0 	0 	0
7.28333 	0 	0 	0
7.31666 	0 	0 	0
7.35 	0 	0 	0
7.38334 	0 	0 	0
7.41667 	0 	0 	0
7.45 	0 	0 	0
7.48334 	0 	0 	0
7.51666 	0 	0 	0
7.55 	0 	0 	0
7.58333 	0 	0 	0
7.61666 	0 	0 	0
7.65 	0 	0 	0
7.68333 	0 	0 	0
7.71666 	0 	0 	0
7.75 	0 	0 	0
7.78334 	0 	0 	0
7.81667 	0 	0 	0
7.85 	0 	0 	0
7.88333 	0 	0 	0
7.91667 	0 	0 	0
7.95 	0 	0 	0
7.98334 	0 	0 	0
