1 	0.0171392 	0 	-0.165953
1.00104 	0.0136937 	2.99671e-06 	-0.163554
1.00208 	0.0102482 	5.99341e-06 	-0.161155
1.00316 	0.00756426 	1.41353e-05 	-0.146887
1.00425 	0.00464205 	2.39442e-05 	-0.132814
1.00538 	0.00471995 	4.1255e-05 	-0.129094
1.00651 	0.00495043 	6.80012e-05 	-0.126171
1.00769 	0.00509089 	8.33369e-05 	-0.131709
1.00887 	0.00533033 	0.000119886 	-0.138325
1.01009 	0.00545916 	0.000120924 	-0.143355
1.01132 	0.0056628 	0.000141979 	-0.150186
1.0126 	0.00577157 	0.000134434 	-0.152243
1.01387 	0.0059515 	0.00010907 	-0.158032
1.0152 	0.00606791 	0.000104641 	-0.16068
1.01652 	0.00620493 	7.66587e-05 	-0.165941
1.01652 	0.00620493 	7.66587e-05 	-0.165941
1.0179 	0.00632443 	7.66342e-05 	-0.169896
1.01929 	0.00641315 	7.42719e-05 	-0.176076
1.02073 	0.00651741 	7.60706e-05 	-0.180287
1.02217 	0.00658069 	7.95341e-05 	-0.186208
1.02367 	0.00666459 	8.22939e-05 	-0.189908
1.02517 	0.00673282 	8.587e-05 	-0.194108
1.02574 	0.00676033 	8.72783e-05 	-0.195197
1.02632 	0.00678784 	8.86867e-05 	-0.196285
1.0273 	0.00686127 	9.44368e-05 	-0.19205
1.02829 	0.00693469 	0.000100187 	-0.187816
1.02992 	0.00701689 	0.000109107 	-0.182748
1.03155 	0.0071004 	0.000119828 	-0.176668
1.03324 	0.00716899 	0.000127124 	-0.174201
1.03493 	0.00722159 	0.000139947 	-0.170118
1.03669 	0.00729748 	0.000144623 	-0.168499
1.03846 	0.00731474 	0.000159901 	-0.164892
1.04029 	0.00741303 	0.000160042 	-0.163841
1.04213 	0.00738661 	0.000178083 	-0.160877
1.04404 	0.00747837 	0.000176713 	-0.15984
1.04596 	0.00746131 	0.000192515 	-0.158326
1.04795 	0.00754166 	0.000190176 	-0.157364
1.04994 	0.00755717 	0.000190372 	-0.155815
1.04994 	0.00755717 	0.000190372 	-0.155815
1.05201 	0.00763169 	0.000191095 	-0.155089
1.05409 	0.00768885 	0.000189588 	-0.154409
1.05482 	0.00771376 	0.000192798 	-0.154126
1.05556 	0.00773867 	0.000196008 	-0.153843
1.05698 	0.00777972 	0.000206694 	-0.150657
1.05841 	0.00782077 	0.00021738 	-0.147471
1.06066 	0.00786883 	0.000233862 	-0.143955
1.0629 	0.00790334 	0.000254252 	-0.140018
1.06525 	0.00795 	0.000266933 	-0.137073
1.06759 	0.00795 	0.00029259 	-0.133952
1.07003 	0.00800717 	0.000297642 	-0.130903
1.07246 	0.00798277 	0.000327248 	-0.127452
1.075 	0.0080387 	0.000330536 	-0.124659
1.07754 	0.00802316 	0.000339206 	-0.12146
1.08019 	0.00807987 	0.000350156 	-0.11885
1.08283 	0.00809252 	0.000353597 	-0.116342
1.08553 	0.00814184 	0.000379486 	-0.113967
1.08824 	0.00819115 	0.000405375 	-0.111593
1.08828 	0.00819173 	0.000405893 	-0.111519
1.08833 	0.00819231 	0.00040641 	-0.111445
1.0912 	0.00819784 	0.000444956 	-0.108065
1.09407 	0.00820309 	0.000483709 	-0.104686
1.09706 	0.00821463 	0.00049953 	-0.101213
1.10004 	0.00820178 	0.000519621 	-0.0980221
1.10315 	0.00823481 	0.000535116 	-0.0941508
1.10625 	0.00820038 	0.000532955 	-0.0904556
1.10949 	0.0082436 	0.000574046 	-0.0869772
1.11273 	0.00820626 	0.000593174 	-0.0840358
1.1161 	0.00824117 	0.000652724 	-0.0810912
1.11947 	0.00823908 	0.000700187 	-0.0785376
1.12224 	0.00826143 	0.000724763 	-0.076357
1.125 	0.00828378 	0.000749338 	-0.0741764
1.12575 	0.00828188 	0.000752096 	-0.0733934
1.12649 	0.00827998 	0.000754853 	-0.0726104
1.13014 	0.00825084 	0.000754718 	-0.069097
1.13379 	0.00821449 	0.000749973 	-0.0656394
1.1376 	0.00820577 	0.0008083 	-0.0622758
1.14141 	0.00814599 	0.000844288 	-0.0593181
1.14537 	0.00817065 	0.000887326 	-0.0558987
1.14933 	0.00809651 	0.000872822 	-0.0532625
1.15346 	0.00810196 	0.000887702 	-0.0501028
1.15758 	0.00805881 	0.000870205 	-0.0473075
1.16188 	0.00804023 	0.00090842 	-0.0445161
1.16618 	0.00801944 	0.000945363 	-0.0417487
1.16643 	0.00801709 	0.000944861 	-0.0416091
1.16667 	0.00801474 	0.000944359 	-0.0414696
1.1709 	0.00793997 	0.000919069 	-0.0383018
1.17513 	0.0078652 	0.000893779 	-0.035134
1.17979 	0.00780759 	0.000896912 	-0.0318649
1.18445 	0.00770891 	0.000866235 	-0.028905
1.1893 	0.0076689 	0.000866124 	-0.0256069
1.19415 	0.00756013 	0.000861321 	-0.0232658
1.19921 	0.00749416 	0.00081523 	-0.0202183
1.20426 	0.00740642 	0.000793429 	-0.0178937
1.20928 	0.00731825 	0.000767229 	-0.0154197
1.21429 	0.00723007 	0.000741028 	-0.0129458
1.21454 	0.00722485 	0.000740367 	-0.012801
1.21478 	0.00721963 	0.000739706 	-0.0126562
1.21478 	0.00721963 	0.000739706 	-0.0126562
1.22026 	0.00710259 	0.000731654 	-0.0101441
1.22026 	0.00710259 	0.000731654 	-0.0101441
1.22574 	0.00698439 	0.000724606 	-0.00766059
1.22574 	0.00698439 	0.000724606 	-0.00766059
1.23144 	0.00688048 	0.000704055 	-0.0050394
1.23144 	0.00688048 	0.000704055 	-0.0050394
1.23714 	0.00677059 	0.000704487 	-0.0032085
1.23714 	0.00677059 	0.000704487 	-0.0032085
1.24308 	0.00665451 	0.000685312 	-0.000581768
1.24903 	0.00655831 	0.000693924 	0.000725808
1.25521 	0.00644205 	0.000686392 	0.00275419
1.2614 	0.00633963 	0.000686739 	0.00428634
1.26532 	0.00627655 	0.000689127 	0.00520102
1.26923 	0.00621346 	0.000691514 	0.00611569
1.27176 	0.00617415 	0.000695203 	0.00681752
1.27428 	0.00613483 	0.000698893 	0.00751936
1.28099 	0.00604553 	0.000710683 	0.0090512
1.2877 	0.00596466 	0.000727112 	0.0103329
1.29468 	0.00586891 	0.000738856 	0.0120027
1.30167 	0.0058049 	0.000756865 	0.0128559
1.30167 	0.0058049 	0.000756865 	0.0128559
1.30894 	0.00571964 	0.000773299 	0.014325
1.30894 	0.00571964 	0.000773299 	0.014325
1.31621 	0.00565637 	0.000789641 	0.015124
1.31621 	0.00565637 	0.000789641 	0.015124
1.32378 	0.00558938 	0.000805665 	0.01622
1.32378 	0.00558938 	0.000805665 	0.01622
1.33136 	0.00552411 	0.000821585 	0.0172406
1.33136 	0.00552411 	0.000821585 	0.0172406
1.33234 	0.00551742 	0.000823595 	0.017332
1.33333 	0.00551073 	0.000825604 	0.0174234
1.33333 	0.00551073 	0.000825604 	0.0174234
1.34023 	0.00546496 	0.000840823 	0.0182631
1.34023 	0.00546496 	0.000840823 	0.0182631
1.34713 	0.0054192 	0.000856042 	0.0191028
1.34713 	0.0054192 	0.000856042 	0.0191028
1.35535 	0.00536499 	0.000873996 	0.0201144
1.36356 	0.00532031 	0.000891567 	0.0206874
1.37211 	0.00526835 	0.000908083 	0.0217753
1.38066 	0.005228 	0.000925168 	0.0220615
1.38957 	0.00518352 	0.000942273 	0.0227993
1.39847 	0.00514222 	0.000960279 	0.0232572
1.40378 	0.00511966 	0.000971574 	0.0234886
1.40909 	0.0050971 	0.00098287 	0.0237201
1.41306 	0.00508012 	0.000991761 	0.0239776
1.41702 	0.00506314 	0.00100065 	0.024235
1.42667 	0.00502584 	0.00102176 	0.0246909
1.43633 	0.00499056 	0.00104361 	0.0249696
1.44638 	0.00495327 	0.00106571 	0.025536
1.45644 	0.0049222 	0.0010905 	0.0255278
1.46691 	0.00488786 	0.00111656 	0.025931
1.47738 	0.00485777 	0.00114422 	0.02593
1.48829 	0.00482761 	0.00117116 	0.0260601
1.49919 	0.00479758 	0.00119815 	0.0261754
1.4996 	0.00479663 	0.00119921 	0.0261715
1.50001 	0.00479567 	0.00120027 	0.0261676
1.51095 	0.00476988 	0.00122976 	0.0262059
1.52189 	0.00474408 	0.00125926 	0.0262441
1.53372 	0.00471737 	0.00129343 	0.0263741
1.54554 	0.0046936 	0.00132897 	0.026192
1.55785 	0.00466776 	0.0013632 	0.02634
1.57016 	0.00464611 	0.00140005 	0.025963
1.58298 	0.00462307 	0.00143737 	0.0258951
1.5958 	0.00460138 	0.0014757 	0.0256395
1.60346 	0.00458941 	0.00150043 	0.0255011
1.61112 	0.00457744 	0.00152516 	0.0253627
1.61681 	0.00456842 	0.00154411 	0.0253106
1.6225 	0.00455939 	0.00156307 	0.0252584
1.6364 	0.00453926 	0.00160992 	0.0250352
1.6503 	0.00451995 	0.00165747 	0.0246966
1.66478 	0.00449974 	0.00170603 	0.0245599
1.67925 	0.004482 	0.00175716 	0.0240412
1.67925 	0.004482 	0.00175716 	0.0240412
1.69433 	0.00446258 	0.00181097 	0.0238623
1.7094 	0.00444516 	0.00186712 	0.0233448
1.7251 	0.00442689 	0.00192646 	0.0230061
1.74079 	0.00440902 	0.00198638 	0.0225906
1.7454 	0.00440406 	0.00200416 	0.0224569
1.75001 	0.0043991 	0.00202195 	0.0223231
1.76175 	0.00438633 	0.00206838 	0.0220382
1.77348 	0.00437356 	0.00211481 	0.0217532
1.7905 	0.0043551 	0.00218458 	0.0213692
1.80751 	0.00433744 	0.00225615 	0.0208279
1.82524 	0.00431789 	0.00233176 	0.0205413
1.84296 	0.00430014 	0.00241061 	0.0198659
1.86142 	0.00428062 	0.00248833 	0.0195364
1.87987 	0.00426241 	0.00256886 	0.0189061
1.89909 	0.00424349 	0.00266961 	0.0184475
1.9183 	0.00422484 	0.00277052 	0.0179274
1.92343 	0.00422042 	0.00279002 	0.017807
1.92856 	0.00421601 	0.00280952 	0.0176865
1.94344 	0.00420302 	0.00286932 	0.0173612
1.95832 	0.00419003 	0.00292912 	0.0170358
1.97916 	0.00417178 	0.00303659 	0.0164697
2 	0.00415427 	0.00314756 	0.01575
