0 	0 	0 	0
0.00138042 	-0.0625725 	-6.75687e-05 	0.032624
0.00276083 	-0.125203 	-0.000135071 	0.0653637
0.00419136 	-0.167416 	-0.000393329 	0.0935141
0.0056219 	-0.209679 	-0.000651887 	0.121757
0.00710437 	-0.22965 	-0.00107096 	0.139705
0.00858684 	-0.24965 	-0.001491 	0.157712
0.0101231 	-0.255863 	-0.00197968 	0.166624
0.0116594 	-0.262085 	-0.00246968 	0.175565
0.0132515 	-0.263148 	-0.00301169 	0.180137
0.0148436 	-0.26421 	-0.0035552 	0.184723
0.0164935 	-0.26346 	-0.0041497 	0.18744
0.0181433 	-0.262707 	-0.00474583 	0.190166
0.0198531 	-0.261206 	-0.00538626 	0.191993
0.0215629 	-0.2597 	-0.0060284 	0.193826
0.0233347 	-0.257825 	-0.00670998 	0.195163
0.0251066 	-0.255946 	-0.00739329 	0.196505
0.0269428 	-0.253856 	-0.00811472 	0.19754
0.0287789 	-0.251762 	-0.00883789 	0.19858
0.0287789 	-0.251762 	-0.00883789 	0.19858
0.0306818 	-0.249534 	-0.00959949 	0.199414
0.0325847 	-0.247302 	-0.0103628 	0.200253
0.0345566 	-0.244979 	-0.0111657 	0.200945
0.0365285 	-0.24265 	-0.0119703 	0.201641
0.0385721 	-0.240252 	-0.0128158 	0.202227
0.0406156 	-0.237849 	-0.0136631 	0.202817
0.0427334 	-0.235391 	-0.0145527 	0.20332
0.0448511 	-0.232926 	-0.0154442 	0.203827
0.0470457 	-0.230415 	-0.0163793 	0.204266
0.0492403 	-0.227897 	-0.0173163 	0.204707
0.0515146 	-0.225338 	-0.0182981 	0.205093
0.053789 	-0.222774 	-0.0192817 	0.205482
0.0561458 	-0.220171 	-0.0203113 	0.205825
0.0585027 	-0.217563 	-0.0213428 	0.206171
0.0609451 	-0.214919 	-0.0224214 	0.206479
0.0633875 	-0.212269 	-0.023502 	0.20679
0.0659187 	-0.209585 	-0.0246315 	0.207069
0.0684498 	-0.206895 	-0.0257628 	0.207352
0.0710728 	-0.204171 	-0.0269451 	0.207608
0.0736958 	-0.201441 	-0.0281292 	0.207867
0.0764141 	-0.198677 	-0.029366 	0.208104
0.0791323 	-0.195906 	-0.0306047 	0.208343
0.0819493 	-0.193101 	-0.0318973 	0.208564
0.0847663 	-0.19029 	-0.0331919 	0.208788
0.0876855 	-0.187442 	-0.0345417 	0.208995
0.0906046 	-0.184589 	-0.0358935 	0.209206
0.0936299 	-0.181696 	-0.0373019 	0.209403
0.0966551 	-0.178797 	-0.0387125 	0.209603
0.0997904 	-0.175855 	-0.040181 	0.209792
0.102926 	-0.172908 	-0.0416518 	0.209984
0.106174 	-0.169914 	-0.0431813 	0.210168
0.109423 	-0.166914 	-0.0447132 	0.210355
0.11279 	-0.163863 	-0.0463043 	0.210536
0.116157 	-0.160806 	-0.0478978 	0.21072
0.119646 	-0.157694 	-0.0495502 	0.210902
0.123135 	-0.154576 	-0.0512053 	0.211087
0.12675 	-0.151399 	-0.0529186 	0.211273
0.130366 	-0.148216 	-0.0546347 	0.211461
0.134113 	-0.14497 	-0.0564094 	0.211653
0.13786 	-0.141719 	-0.058187 	0.211848
0.141744 	-0.138401 	-0.0600229 	0.212048
0.145627 	-0.135078 	-0.0618618 	0.212252
0.14965 	-0.131683 	-0.063758 	0.212463
0.153674 	-0.128284 	-0.0656574 	0.212676
0.153674 	-0.128284 	-0.0656574 	0.212676
0.157844 	-0.12481 	-0.0676128 	0.212899
0.162015 	-0.121333 	-0.0695715 	0.213125
0.166336 	-0.117778 	-0.0715843 	0.21336
0.170658 	-0.11422 	-0.0736006 	0.213598
0.175137 	-0.110583 	-0.0756682 	0.213846
0.179615 	-0.106944 	-0.0777394 	0.214096
0.184256 	-0.103225 	-0.0798588 	0.214356
0.188897 	-0.0995042 	-0.0819819 	0.214618
0.193707 	-0.0957039 	-0.0841492 	0.214886
0.198516 	-0.091902 	-0.0863202 	0.215158
0.2035 	-0.0880209 	-0.0885307 	0.215433
0.208485 	-0.0841389 	-0.090745 	0.215711
0.213649 	-0.0801784 	-0.0929935 	0.215989
0.218814 	-0.0762175 	-0.0952458 	0.21627
0.224167 	-0.0721788 	-0.0975264 	0.216547
0.22952 	-0.0681404 	-0.0998108 	0.216827
0.235067 	-0.0640251 	-0.102117 	0.217098
0.240614 	-0.0599106 	-0.104427 	0.217371
0.246363 	-0.0557201 	-0.106751 	0.217631
0.252111 	-0.051531 	-0.109079 	0.217894
0.258068 	-0.0472663 	-0.111414 	0.218138
0.264025 	-0.0430036 	-0.113753 	0.218384
0.270198 	-0.0386647 	-0.116091 	0.218607
0.276372 	-0.0343285 	-0.118432 	0.218831
0.28277 	-0.0299148 	-0.120763 	0.219028
0.289167 	-0.0255044 	-0.123098 	0.219227
0.295797 	-0.0210147 	-0.125413 	0.219394
0.302426 	-0.0165287 	-0.127732 	0.219562
0.309297 	-0.0119609 	-0.130021 	0.219696
0.316168 	-0.0073972 	-0.132313 	0.219831
0.323288 	-0.00274823 	-0.134562 	0.219928
0.330407 	0.0018962 	-0.136814 	0.220026
0.337786 	0.00663034 	-0.139012 	0.220084
0.345164 	0.0113595 	-0.141212 	0.220143
0.352811 	0.0161854 	-0.143343 	0.22016
0.360457 	0.021006 	-0.145476 	0.220177
0.360457 	0.021006 	-0.145476 	0.220177
0.368381 	0.0259304 	-0.147522 	0.220151
0.376305 	0.0308489 	-0.149569 	0.220126
0.384517 	0.035877 	-0.15152 	0.220055
0.392728 	0.0408989 	-0.153474 	0.219983
0.401238 	0.0460452 	-0.155307 	0.219864
0.409748 	0.0511851 	-0.157142 	0.219745
0.418567 	0.0564617 	-0.158834 	0.219575
0.427386 	0.0617314 	-0.160528 	0.219403
0.436525 	0.0671499 	-0.162072 	0.219179
0.445664 	0.0725613 	-0.163619 	0.218953
0.455134 	0.0781433 	-0.164997 	0.21867
0.464605 	0.0837178 	-0.166377 	0.218384
0.47442 	0.0894818 	-0.167571 	0.218038
0.484235 	0.0952377 	-0.168766 	0.217689
0.494406 	0.101205 	-0.169766 	0.217273
0.504577 	0.107165 	-0.170766 	0.216855
0.515117 	0.113365 	-0.171552 	0.216364
0.525657 	0.119557 	-0.172338 	0.215869
0.53658 	0.126023 	-0.172893 	0.215297
0.547503 	0.132479 	-0.173446 	0.214721
0.558822 	0.139244 	-0.173756 	0.21406
0.570142 	0.145999 	-0.174065 	0.213396
0.581872 	0.153101 	-0.174117 	0.212641
0.593603 	0.160194 	-0.174167 	0.211882
0.605759 	0.167677 	-0.173949 	0.211027
0.617916 	0.175151 	-0.173728 	0.210167
0.630514 	0.183063 	-0.173232 	0.209206
0.643111 	0.190965 	-0.172732 	0.208239
0.656166 	0.199356 	-0.171952 	0.207168
0.669222 	0.207738 	-0.171168 	0.20609
0.682751 	0.216663 	-0.170109 	0.204906
0.69628 	0.225578 	-0.169044 	0.203714
0.7103 	0.235094 	-0.167713 	0.202414
0.72432 	0.244601 	-0.166376 	0.201106
0.73885 	0.254774 	-0.16478 	0.199688
0.753379 	0.264939 	-0.163175 	0.198261
0.768436 	0.275848 	-0.161309 	0.19672
0.783493 	0.28675 	-0.159434 	0.19517
0.799097 	0.298471 	-0.157308 	0.193503
0.8147 	0.310185 	-0.155171 	0.191826
0.83087 	0.322781 	-0.152827 	0.190032
0.847041 	0.33537 	-0.150471 	0.188226
0.863798 	0.3489 	-0.147945 	0.186296
0.880555 	0.362425 	-0.145407 	0.184354
0.897921 	0.376973 	-0.142714 	0.182271
0.915286 	0.391519 	-0.140008 	0.180176
0.915286 	0.391519 	-0.140008 	0.180176
0.933282 	0.407196 	-0.137233 	0.177937
0.951278 	0.422873 	-0.134443 	0.175685
0.969927 	0.439742 	-0.131742 	0.173309
0.988577 	0.456616 	-0.129025 	0.170919
1.00791 	0.474631 	-0.126519 	0.168417
1.02723 	0.492656 	-0.123996 	0.1659
1.04726 	0.511708 	-0.121761 	0.163286
1.06729 	0.530772 	-0.119511 	0.160656
1.08804 	0.550738 	-0.117607 	0.157955
1.1088 	0.570717 	-0.115691 	0.155239
1.13031 	0.591477 	-0.114152 	0.152487
1.15181 	0.612249 	-0.112607 	0.149719
1.1741 	0.633739 	-0.111412 	0.146958
1.1964 	0.655237 	-0.110215 	0.144181
1.21949 	0.677519 	-0.109276 	0.141473
1.24259 	0.699805 	-0.108338 	0.138749
1.26653 	0.722923 	-0.107673 	0.136169
1.29047 	0.746039 	-0.107012 	0.133571
1.31528 	0.770461 	-0.106382 	0.131216
1.34008 	0.794874 	-0.105758 	0.128843
1.36579 	0.819928 	-0.105849 	0.12699
1.3915 	0.844971 	-0.105955 	0.125119
1.41814 	0.873267 	-0.10573 	0.12317
1.44478 	0.901575 	-0.105527 	0.121201
1.47239 	0.922891 	-0.102332 	0.12009
1.5 	0.944247 	-0.0991448 	0.118968
1.5 	0.944247 	-0.0991448 	0.118968
1.51095 	0.954338 	-0.0983447 	0.118463
1.52189 	0.964429 	-0.0975447 	0.117958
1.52189 	0.964429 	-0.0975447 	0.117958
1.53371 	0.9745 	-0.0966215 	0.117503
1.54554 	0.984711 	-0.0956602 	0.117055
1.54909 	0.987562 	-0.0953436 	0.116949
1.55263 	0.990414 	-0.095027 	0.116843
1.5614 	0.996794 	-0.0946949 	0.116575
1.57016 	1.00317 	-0.0943628 	0.116306
1.58298 	1.01169 	-0.0938137 	0.115993
1.5958 	1.02037 	-0.0931981 	0.115694
1.60346 	1.02501 	-0.0927964 	0.115551
1.61111 	1.02965 	-0.0923947 	0.115408
1.61681 	1.03313 	-0.0919918 	0.115301
1.6225 	1.03661 	-0.0915889 	0.115194
1.6364 	1.04407 	-0.0905631 	0.114971
1.6503 	1.05166 	-0.0894817 	0.114761
1.66339 	1.05772 	-0.0884752 	0.114562
1.67647 	1.06378 	-0.0874687 	0.114364
1.67647 	1.06378 	-0.0874687 	0.114364
1.67786 	1.06442 	-0.0873614 	0.114341
1.67925 	1.06505 	-0.087254 	0.114319
1.69433 	1.07087 	-0.086046 	0.114064
1.7094 	1.07671 	-0.0848251 	0.113812
1.7251 	1.08153 	-0.0836034 	0.113488
1.74079 	1.08642 	-0.0823435 	0.113174
1.7454 	1.08753 	-0.0819726 	0.113065
1.75 	1.08864 	-0.0816017 	0.112956
1.76174 	1.09139 	-0.0807025 	0.112665
1.77348 	1.09415 	-0.0798034 	0.112374
1.7905 	1.09696 	-0.0785208 	0.111888
1.80751 	1.09995 	-0.0771637 	0.111421
1.82042 	1.10143 	-0.07616 	0.111033
1.83333 	1.10292 	-0.0751563 	0.110646
1.83815 	1.10346 	-0.0747972 	0.110499
1.84296 	1.10401 	-0.0744381 	0.110352
1.86142 	1.10527 	-0.0730397 	0.10978
1.87987 	1.10658 	-0.0716127 	0.109212
1.87987 	1.10658 	-0.0716127 	0.109212
1.89908 	1.10717 	-0.0701676 	0.108618
1.9183 	1.10778 	-0.0686938 	0.108027
1.92343 	1.1078 	-0.0683383 	0.107875
1.92857 	1.10781 	-0.0679828 	0.107722
1.94344 	1.10787 	-0.066992 	0.107281
1.95832 	1.10792 	-0.0660012 	0.106839
1.97916 	1.10744 	-0.0643706 	0.106213
2 	1.107 	-0.0626414 	0.105587
