# Force coefficients
# liftDir     : (0.000000e+00 0.000000e+00 1.000000e+00)
# dragDir     : (1.000000e+00 0.000000e+00 0.000000e+00)
# pitchAxis   : (0.000000e+00 1.000000e+00 0.000000e+00)
# magUInf     : 1.000000e+00
# lRef        : 1.000000e+00
# Aref        : 1.000000e+00
# CofR        : (2.500000e+00 0.000000e+00 0.000000e+00)
#
# Time        	Cm            	Cd            	Cl            	Cl(f)         	Cl(r)         
1             	-2.768272e-04	9.988011e-01	-3.977764e-03	-2.265709e-03	-1.712055e-03
2             	-8.723840e-04	1.716621e+00	-5.527601e-03	-3.636185e-03	-1.891417e-03
3             	-1.600380e-03	2.362134e+00	-4.105642e-03	-3.653201e-03	-4.524412e-04
4             	-1.901863e-03	2.589981e+00	1.970310e-04	-1.803348e-03	2.000379e-03
5             	-1.508678e-03	2.461182e+00	6.020592e-03	1.501618e-03	4.518974e-03
6             	-6.165020e-04	2.148774e+00	1.124165e-02	5.004321e-03	6.237325e-03
7             	3.904320e-04	1.808678e+00	1.436688e-02	7.573872e-03	6.793008e-03
8             	1.182217e-03	1.557618e+00	1.544343e-02	8.903931e-03	6.539498e-03
9             	1.528043e-03	1.431514e+00	1.587341e-02	9.464748e-03	6.408662e-03
10            	1.456984e-03	1.409060e+00	1.735152e-02	1.013275e-02	7.218777e-03
11            	1.046467e-03	1.447114e+00	2.028250e-02	1.118772e-02	9.094785e-03
12            	4.960041e-04	1.506578e+00	2.490020e-02	1.294610e-02	1.195410e-02
13            	1.162035e-04	1.555286e+00	3.060627e-02	1.541934e-02	1.518693e-02
14            	-1.354624e-05	1.578852e+00	3.665520e-02	1.831406e-02	1.834115e-02
15            	1.560491e-04	1.575652e+00	4.264322e-02	2.147766e-02	2.116556e-02
16            	4.231005e-04	1.552815e+00	4.780294e-02	2.432457e-02	2.347837e-02
17            	7.573497e-04	1.519057e+00	5.185370e-02	2.668420e-02	2.516950e-02
18            	1.080543e-03	1.482365e+00	5.499602e-02	2.857855e-02	2.641747e-02
19            	1.331502e-03	1.452120e+00	5.756956e-02	3.011628e-02	2.745328e-02
20            	1.530400e-03	1.431330e+00	6.003361e-02	3.154721e-02	2.848641e-02
21            	1.621882e-03	1.419857e+00	6.258926e-02	3.291651e-02	2.967275e-02
22            	1.597149e-03	1.413934e+00	6.529353e-02	3.424391e-02	3.104961e-02
23            	1.448869e-03	1.411410e+00	6.821001e-02	3.555388e-02	3.265614e-02
24            	1.149891e-03	1.408636e+00	7.108374e-02	3.669176e-02	3.439198e-02
25            	8.146263e-04	1.403830e+00	7.412211e-02	3.787568e-02	3.624643e-02
26            	3.799397e-04	1.396942e+00	7.674261e-02	3.875125e-02	3.799137e-02
27            	-1.679038e-04	1.389316e+00	7.902989e-02	3.934704e-02	3.968285e-02
28            	-7.535748e-04	1.382024e+00	8.140687e-02	3.994986e-02	4.145701e-02
29            	-1.447599e-03	1.375848e+00	8.375555e-02	4.043017e-02	4.332537e-02
30            	-2.280439e-03	1.370992e+00	8.598151e-02	4.071032e-02	4.527120e-02
31            	-3.233369e-03	1.367334e+00	8.835621e-02	4.094473e-02	4.741147e-02
32            	-4.395449e-03	1.364771e+00	9.042089e-02	4.081500e-02	4.960590e-02
33            	-5.629033e-03	1.363076e+00	9.310378e-02	4.092286e-02	5.218092e-02
34            	-6.949842e-03	1.362274e+00	9.612463e-02	4.111247e-02	5.501216e-02
35            	-8.618531e-03	1.362897e+00	9.824923e-02	4.050608e-02	5.774314e-02
36            	-1.040729e-02	1.365193e+00	1.000860e-01	3.963573e-02	6.045030e-02
37            	-1.236200e-02	1.368972e+00	1.006743e-01	3.797516e-02	6.269916e-02
38            	-1.436695e-02	1.373706e+00	1.000628e-01	3.566442e-02	6.439833e-02
39            	-1.641655e-02	1.379308e+00	9.922265e-02	3.319477e-02	6.602788e-02
40            	-1.858277e-02	1.385441e+00	9.850139e-02	3.066793e-02	6.783346e-02
41            	-2.068628e-02	1.391852e+00	9.812102e-02	2.837423e-02	6.974679e-02
42            	-2.271589e-02	1.398999e+00	9.799369e-02	2.628095e-02	7.171274e-02
43            	-2.465942e-02	1.406782e+00	9.833269e-02	2.450693e-02	7.382576e-02
44            	-2.661281e-02	1.414828e+00	9.879144e-02	2.278291e-02	7.600853e-02
45            	-2.857599e-02	1.422231e+00	9.882816e-02	2.083809e-02	7.799007e-02
46            	-3.055297e-02	1.428464e+00	9.834120e-02	1.861763e-02	7.972357e-02
47            	-3.255339e-02	1.433593e+00	9.788204e-02	1.638763e-02	8.149441e-02
48            	-3.463592e-02	1.437086e+00	9.796800e-02	1.434808e-02	8.361992e-02
49            	-3.674141e-02	1.438826e+00	9.830323e-02	1.241021e-02	8.589303e-02
50            	-3.891096e-02	1.438124e+00	9.878190e-02	1.047999e-02	8.830191e-02
51            	-4.116336e-02	1.435316e+00	9.917009e-02	8.421683e-03	9.074840e-02
52            	-4.329913e-02	1.431757e+00	9.948624e-02	6.443991e-03	9.304225e-02
53            	-4.536633e-02	1.427926e+00	9.942227e-02	4.344801e-03	9.507747e-02
54            	-4.753142e-02	1.424128e+00	9.877939e-02	1.858271e-03	9.692112e-02
55            	-4.962020e-02	1.420432e+00	9.785072e-02	-6.948369e-04	9.854556e-02
56            	-5.143973e-02	1.416149e+00	9.594187e-02	-3.468799e-03	9.941066e-02
57            	-5.278874e-02	1.411008e+00	9.239251e-02	-6.592486e-03	9.898500e-02
58            	-5.364784e-02	1.404919e+00	8.689173e-02	-1.020198e-02	9.709370e-02
59            	-5.390148e-02	1.397796e+00	7.924202e-02	-1.428047e-02	9.352249e-02
60            	-5.344393e-02	1.389437e+00	6.923001e-02	-1.882892e-02	8.805893e-02
61            	-5.225326e-02	1.379760e+00	5.686482e-02	-2.382085e-02	8.068567e-02
62            	-5.050991e-02	1.368906e+00	4.261134e-02	-2.920424e-02	7.181558e-02
63            	-4.837449e-02	1.356922e+00	2.741954e-02	-3.466472e-02	6.208426e-02
64            	-4.612811e-02	1.343998e+00	1.170852e-02	-4.027385e-02	5.198237e-02
65            	-4.380057e-02	1.330026e+00	-4.121527e-03	-4.586133e-02	4.173981e-02
66            	-4.133388e-02	1.315089e+00	-1.989216e-02	-5.127996e-02	3.138780e-02
67            	-3.910616e-02	1.299830e+00	-3.488292e-02	-5.654762e-02	2.166470e-02
68            	-3.748203e-02	1.284877e+00	-4.808378e-02	-6.152392e-02	1.344014e-02
69            	-3.664065e-02	1.270351e+00	-5.955003e-02	-6.641567e-02	6.865636e-03
70            	-3.649830e-02	1.256110e+00	-6.913522e-02	-7.106591e-02	1.930687e-03
71            	-3.695426e-02	1.241883e+00	-7.662213e-02	-7.526532e-02	-1.356806e-03
72            	-3.797522e-02	1.227796e+00	-8.214911e-02	-7.904978e-02	-3.099332e-03
73            	-3.955822e-02	1.214785e+00	-8.509326e-02	-8.210485e-02	-2.988407e-03
74            	-4.180954e-02	1.203933e+00	-8.487641e-02	-8.424774e-02	-6.286663e-04
75            	-4.465610e-02	1.194962e+00	-8.183470e-02	-8.557345e-02	3.738753e-03
76            	-4.780658e-02	1.187461e+00	-7.688056e-02	-8.624686e-02	9.366298e-03
77            	-5.120504e-02	1.181645e+00	-7.032686e-02	-8.636846e-02	1.604161e-02
78            	-5.465885e-02	1.178086e+00	-6.247645e-02	-8.589707e-02	2.342062e-02
79            	-5.796949e-02	1.176996e+00	-5.354402e-02	-8.474150e-02	3.119748e-02
80            	-6.096709e-02	1.178132e+00	-4.404409e-02	-8.298914e-02	3.894504e-02
81            	-6.345525e-02	1.181015e+00	-3.510111e-02	-8.100580e-02	4.590470e-02
82            	-6.548175e-02	1.185483e+00	-2.663807e-02	-7.880078e-02	5.216271e-02
83            	-6.702077e-02	1.191930e+00	-1.853055e-02	-7.628605e-02	5.775550e-02
84            	-6.789087e-02	1.200344e+00	-1.106882e-02	-7.342528e-02	6.235646e-02
85            	-6.808639e-02	1.210684e+00	-4.027703e-03	-7.010024e-02	6.607254e-02
86            	-6.763712e-02	1.223072e+00	2.489761e-03	-6.639224e-02	6.888201e-02
87            	-6.657010e-02	1.237415e+00	8.502204e-03	-6.231900e-02	7.082120e-02
88            	-6.499077e-02	1.253669e+00	1.392115e-02	-5.803019e-02	7.195134e-02
89            	-6.307384e-02	1.271595e+00	1.861301e-02	-5.376733e-02	7.238034e-02
90            	-6.100752e-02	1.290736e+00	2.279682e-02	-4.960911e-02	7.240592e-02
91            	-5.897037e-02	1.310632e+00	2.682617e-02	-4.555729e-02	7.238346e-02
92            	-5.701794e-02	1.330883e+00	3.077448e-02	-4.163070e-02	7.240518e-02
93            	-5.512825e-02	1.350940e+00	3.444179e-02	-3.790735e-02	7.234914e-02
94            	-5.336548e-02	1.370587e+00	3.787759e-02	-3.442669e-02	7.230428e-02
95            	-5.177896e-02	1.389373e+00	4.135231e-02	-3.110281e-02	7.245512e-02
96            	-5.030197e-02	1.407164e+00	4.477325e-02	-2.791534e-02	7.268859e-02
97            	-4.890201e-02	1.423718e+00	4.797214e-02	-2.491594e-02	7.288808e-02
98            	-4.752777e-02	1.438897e+00	5.081781e-02	-2.211886e-02	7.293667e-02
99            	-4.620625e-02	1.452597e+00	5.319138e-02	-1.961056e-02	7.280195e-02
100           	-4.493336e-02	1.464645e+00	5.501575e-02	-1.742549e-02	7.244123e-02
101           	-4.371183e-02	1.474938e+00	5.631368e-02	-1.555499e-02	7.186867e-02
102           	-4.257867e-02	1.483470e+00	5.718049e-02	-1.398842e-02	7.116891e-02
103           	-4.154375e-02	1.490247e+00	5.778313e-02	-1.265218e-02	7.043531e-02
104           	-4.060928e-02	1.495195e+00	5.819003e-02	-1.151427e-02	6.970430e-02
105           	-3.978147e-02	1.498311e+00	5.838282e-02	-1.059006e-02	6.897288e-02
106           	-3.902784e-02	1.499616e+00	5.823777e-02	-9.908950e-03	6.814672e-02
107           	-3.834660e-02	1.499272e+00	5.763434e-02	-9.529430e-03	6.716377e-02
108           	-3.774342e-02	1.497539e+00	5.641907e-02	-9.533888e-03	6.595295e-02
109           	-3.720996e-02	1.494679e+00	5.470833e-02	-9.855794e-03	6.456412e-02
110           	-3.673808e-02	1.491026e+00	5.262355e-02	-1.042630e-02	6.304985e-02
111           	-3.632722e-02	1.486743e+00	5.019128e-02	-1.123158e-02	6.142286e-02
112           	-3.599033e-02	1.482042e+00	4.763868e-02	-1.217099e-02	5.980967e-02
113           	-3.572949e-02	1.477214e+00	4.519242e-02	-1.313328e-02	5.832570e-02
114           	-3.555099e-02	1.472519e+00	4.288786e-02	-1.410706e-02	5.699492e-02
115           	-3.545495e-02	1.468121e+00	4.072260e-02	-1.509365e-02	5.581625e-02
116           	-3.542772e-02	1.464157e+00	3.861450e-02	-1.612047e-02	5.473496e-02
117           	-3.545668e-02	1.460734e+00	3.660938e-02	-1.715199e-02	5.376137e-02
118           	-3.552717e-02	1.457995e+00	3.475023e-02	-1.815205e-02	5.290228e-02
119           	-3.562947e-02	1.456023e+00	3.306600e-02	-1.909647e-02	5.216247e-02
120           	-3.574258e-02	1.454842e+00	3.158078e-02	-1.995219e-02	5.153296e-02
121           	-3.588116e-02	1.454399e+00	3.041818e-02	-2.067207e-02	5.109025e-02
122           	-3.603465e-02	1.454686e+00	2.957689e-02	-2.124621e-02	5.082310e-02
123           	-3.617263e-02	1.455812e+00	2.902255e-02	-2.166135e-02	5.068391e-02
124           	-3.626681e-02	1.457713e+00	2.867859e-02	-2.192752e-02	5.060611e-02
125           	-3.628920e-02	1.460229e+00	2.845056e-02	-2.206392e-02	5.051448e-02
126           	-3.625380e-02	1.463247e+00	2.831047e-02	-2.209857e-02	5.040904e-02
127           	-3.613739e-02	1.466750e+00	2.825107e-02	-2.201186e-02	5.026293e-02
128           	-3.593811e-02	1.470681e+00	2.830738e-02	-2.178442e-02	5.009180e-02
129           	-3.564303e-02	1.474909e+00	2.844940e-02	-2.141833e-02	4.986773e-02
130           	-3.526164e-02	1.479379e+00	2.864808e-02	-2.093759e-02	4.958568e-02
131           	-3.480505e-02	1.484080e+00	2.887978e-02	-2.036516e-02	4.924494e-02
132           	-3.427054e-02	1.488964e+00	2.911322e-02	-1.971393e-02	4.882715e-02
133           	-3.367173e-02	1.493919e+00	2.932881e-02	-1.900733e-02	4.833613e-02
134           	-3.300449e-02	1.498871e+00	2.942574e-02	-1.829161e-02	4.771736e-02
135           	-3.228620e-02	1.503821e+00	2.944325e-02	-1.756457e-02	4.700783e-02
136           	-3.152334e-02	1.508699e+00	2.944877e-02	-1.679895e-02	4.624773e-02
137           	-3.072301e-02	1.513416e+00	2.944717e-02	-1.599942e-02	4.544659e-02
138           	-2.989825e-02	1.517951e+00	2.946715e-02	-1.516467e-02	4.463182e-02
139           	-2.904834e-02	1.522292e+00	2.947604e-02	-1.431032e-02	4.378636e-02
140           	-2.818352e-02	1.526422e+00	2.945523e-02	-1.345591e-02	4.291113e-02
141           	-2.731460e-02	1.530253e+00	2.941498e-02	-1.260711e-02	4.202209e-02
142           	-2.644435e-02	1.533730e+00	2.933947e-02	-1.177462e-02	4.111409e-02
143           	-2.556323e-02	1.536811e+00	2.920909e-02	-1.095868e-02	4.016777e-02
144           	-2.465470e-02	1.539518e+00	2.900565e-02	-1.015187e-02	3.915752e-02
145           	-2.371219e-02	1.541900e+00	2.878470e-02	-9.319839e-03	3.810454e-02
146           	-2.273390e-02	1.544061e+00	2.853813e-02	-8.464834e-03	3.700296e-02
147           	-2.171731e-02	1.546000e+00	2.821966e-02	-7.607482e-03	3.582715e-02
148           	-2.065896e-02	1.547660e+00	2.773283e-02	-6.792540e-03	3.452537e-02
149           	-1.955903e-02	1.549058e+00	2.703687e-02	-6.040595e-03	3.307746e-02
150           	-1.841181e-02	1.550248e+00	2.612411e-02	-5.349760e-03	3.147387e-02
151           	-1.721739e-02	1.551302e+00	2.502687e-02	-4.703955e-03	2.973083e-02
152           	-1.598003e-02	1.552248e+00	2.375964e-02	-4.100211e-03	2.785985e-02
153           	-1.470507e-02	1.553072e+00	2.231334e-02	-3.548399e-03	2.586174e-02
154           	-1.339369e-02	1.553833e+00	2.067947e-02	-3.053959e-03	2.373343e-02
155           	-1.205638e-02	1.554597e+00	1.887545e-02	-2.618652e-03	2.149410e-02
156           	-1.071006e-02	1.555423e+00	1.691464e-02	-2.252739e-03	1.916738e-02
157           	-9.362665e-03	1.556375e+00	1.485904e-02	-1.933146e-03	1.679218e-02
158           	-8.013947e-03	1.557442e+00	1.275480e-02	-1.636545e-03	1.439135e-02
159           	-6.665938e-03	1.558549e+00	1.061555e-02	-1.358164e-03	1.197371e-02
160           	-5.328936e-03	1.559658e+00	8.473158e-03	-1.092357e-03	9.565515e-03
161           	-4.014233e-03	1.560737e+00	6.350576e-03	-8.389454e-04	7.189521e-03
162           	-2.736579e-03	1.561758e+00	4.240977e-03	-6.160909e-04	4.857068e-03
163           	-1.515094e-03	1.562723e+00	2.172415e-03	-4.288867e-04	2.601302e-03
164           	-3.621136e-04	1.563657e+00	1.609701e-04	-2.816285e-04	4.425986e-04
165           	7.070612e-04	1.564624e+00	-1.735263e-03	-1.605702e-04	-1.574693e-03
166           	1.682732e-03	1.565598e+00	-3.495885e-03	-6.521075e-05	-3.430674e-03
167           	2.552800e-03	1.566560e+00	-5.143431e-03	-1.891541e-05	-5.124516e-03
168           	3.306128e-03	1.567487e+00	-6.718476e-03	-5.310992e-05	-6.665366e-03
169           	3.928781e-03	1.568396e+00	-8.197414e-03	-1.699261e-04	-8.027488e-03
170           	4.411558e-03	1.569360e+00	-9.562562e-03	-3.697227e-04	-9.192840e-03
171           	4.749460e-03	1.570379e+00	-1.080047e-02	-6.507769e-04	-1.014970e-02
172           	4.935567e-03	1.571278e+00	-1.189195e-02	-1.010408e-03	-1.088154e-02
173           	4.955550e-03	1.571960e+00	-1.278657e-02	-1.437738e-03	-1.134884e-02
174           	4.809159e-03	1.572510e+00	-1.344942e-02	-1.915552e-03	-1.153387e-02
175           	4.500361e-03	1.573084e+00	-1.392920e-02	-2.464241e-03	-1.146496e-02
176           	4.036334e-03	1.573751e+00	-1.430976e-02	-3.118546e-03	-1.119121e-02
177           	3.423418e-03	1.574521e+00	-1.465104e-02	-3.902101e-03	-1.074894e-02
178           	2.675895e-03	1.575371e+00	-1.496671e-02	-4.807462e-03	-1.015925e-02
179           	1.803816e-03	1.576263e+00	-1.527238e-02	-5.832374e-03	-9.440007e-03
180           	8.173695e-04	1.577199e+00	-1.557974e-02	-6.972501e-03	-8.607240e-03
181           	-2.716277e-04	1.578167e+00	-1.586569e-02	-8.204474e-03	-7.661218e-03
182           	-1.450915e-03	1.579176e+00	-1.609725e-02	-9.499540e-03	-6.597709e-03
183           	-2.702836e-03	1.580195e+00	-1.627207e-02	-1.083887e-02	-5.433199e-03
184           	-4.010767e-03	1.581160e+00	-1.642785e-02	-1.222469e-02	-4.203156e-03
185           	-5.352942e-03	1.582117e+00	-1.659010e-02	-1.364799e-02	-2.942108e-03
186           	-6.713110e-03	1.583121e+00	-1.677740e-02	-1.510181e-02	-1.675590e-03
187           	-8.076843e-03	1.584138e+00	-1.701552e-02	-1.658460e-02	-4.309179e-04
188           	-9.431741e-03	1.585101e+00	-1.731410e-02	-1.808879e-02	7.746935e-04
189           	-1.076119e-02	1.585993e+00	-1.767970e-02	-1.960104e-02	1.921345e-03
190           	-1.204891e-02	1.586861e+00	-1.811062e-02	-2.110422e-02	2.993601e-03
191           	-1.327449e-02	1.587731e+00	-1.862899e-02	-2.258898e-02	3.959994e-03
192           	-1.441568e-02	1.588569e+00	-1.923321e-02	-2.403229e-02	4.799074e-03
193           	-1.545395e-02	1.589375e+00	-1.991253e-02	-2.541021e-02	5.497688e-03
194           	-1.637468e-02	1.590174e+00	-2.065095e-02	-2.670015e-02	6.049204e-03
195           	-1.717333e-02	1.590944e+00	-2.150739e-02	-2.792703e-02	6.419640e-03
196           	-1.782392e-02	1.591555e+00	-2.249812e-02	-2.907298e-02	6.574856e-03
197           	-1.831669e-02	1.592030e+00	-2.360235e-02	-3.011787e-02	6.515521e-03
198           	-1.865216e-02	1.592450e+00	-2.481805e-02	-3.106119e-02	6.243136e-03
199           	-1.882710e-02	1.592839e+00	-2.614568e-02	-3.189994e-02	5.754264e-03
200           	-1.883715e-02	1.593166e+00	-2.754444e-02	-3.260937e-02	5.064932e-03
201           	-1.867720e-02	1.593471e+00	-2.898623e-02	-3.317031e-02	4.184082e-03
202           	-1.835203e-02	1.593717e+00	-3.048551e-02	-3.359478e-02	3.109273e-03
203           	-1.786756e-02	1.593851e+00	-3.203270e-02	-3.388391e-02	1.851216e-03
204           	-1.723461e-02	1.593864e+00	-3.360198e-02	-3.403560e-02	4.336146e-04
205           	-1.646001e-02	1.593786e+00	-3.516410e-02	-3.404206e-02	-1.122045e-03
206           	-1.556445e-02	1.593655e+00	-3.667655e-02	-3.390272e-02	-2.773827e-03
207           	-1.457514e-02	1.593479e+00	-3.807538e-02	-3.361283e-02	-4.462548e-03
208           	-1.350381e-02	1.593244e+00	-3.935064e-02	-3.317913e-02	-6.171503e-03
209           	-1.236085e-02	1.592925e+00	-4.044760e-02	-3.258465e-02	-7.862956e-03
210           	-1.116621e-02	1.592485e+00	-4.136599e-02	-3.184920e-02	-9.516787e-03
211           	-9.935596e-03	1.591890e+00	-4.209545e-02	-3.098332e-02	-1.111213e-02
212           	-8.681166e-03	1.591162e+00	-4.262298e-02	-2.999266e-02	-1.263032e-02
213           	-7.421980e-03	1.590298e+00	-4.294524e-02	-2.889460e-02	-1.405064e-02
214           	-6.162177e-03	1.589307e+00	-4.312703e-02	-2.772569e-02	-1.540134e-02
215           	-4.921692e-03	1.588186e+00	-4.318104e-02	-2.651221e-02	-1.666883e-02
216           	-3.704664e-03	1.587016e+00	-4.317409e-02	-2.529171e-02	-1.788238e-02
217           	-2.535673e-03	1.585773e+00	-4.312068e-02	-2.409601e-02	-1.902466e-02
218           	-1.420513e-03	1.584466e+00	-4.299655e-02	-2.291879e-02	-2.007776e-02
219           	-3.791841e-04	1.583156e+00	-4.281951e-02	-2.178894e-02	-2.103057e-02
220           	5.836394e-04	1.581872e+00	-4.261597e-02	-2.072435e-02	-2.189162e-02
221           	1.458789e-03	1.580659e+00	-4.239129e-02	-1.973686e-02	-2.265443e-02
222           	2.248377e-03	1.579448e+00	-4.212643e-02	-1.881484e-02	-2.331159e-02
223           	2.944859e-03	1.578277e+00	-4.180055e-02	-1.795542e-02	-2.384513e-02
224           	3.547768e-03	1.577111e+00	-4.143580e-02	-1.717013e-02	-2.426567e-02
225           	4.059748e-03	1.575974e+00	-4.101495e-02	-1.644773e-02	-2.456722e-02
226           	4.478628e-03	1.574939e+00	-4.051835e-02	-1.578055e-02	-2.473780e-02
227           	4.813467e-03	1.574000e+00	-3.997280e-02	-1.517293e-02	-2.479987e-02
228           	5.056794e-03	1.573146e+00	-3.937365e-02	-1.463003e-02	-2.474362e-02
229           	5.223843e-03	1.572339e+00	-3.873995e-02	-1.414613e-02	-2.459382e-02
230           	5.315699e-03	1.571543e+00	-3.807902e-02	-1.372381e-02	-2.435521e-02
231           	5.346684e-03	1.570775e+00	-3.741996e-02	-1.336330e-02	-2.405666e-02
232           	5.315325e-03	1.570046e+00	-3.678824e-02	-1.307879e-02	-2.370944e-02
233           	5.232908e-03	1.569321e+00	-3.617579e-02	-1.285499e-02	-2.332080e-02
234           	5.092760e-03	1.568611e+00	-3.554294e-02	-1.267871e-02	-2.286423e-02
235           	4.915483e-03	1.567901e+00	-3.491930e-02	-1.254417e-02	-2.237513e-02
236           	4.704668e-03	1.567218e+00	-3.432086e-02	-1.245576e-02	-2.186510e-02
237           	4.471391e-03	1.566586e+00	-3.378495e-02	-1.242109e-02	-2.136387e-02
238           	4.213195e-03	1.566012e+00	-3.328847e-02	-1.243104e-02	-2.085743e-02
239           	3.932542e-03	1.565474e+00	-3.283386e-02	-1.248439e-02	-2.034947e-02
240           	3.638906e-03	1.564949e+00	-3.245759e-02	-1.258989e-02	-1.986770e-02
241           	3.341134e-03	1.564426e+00	-3.219268e-02	-1.275520e-02	-1.943747e-02
242           	3.045603e-03	1.563903e+00	-3.205623e-02	-1.298251e-02	-1.907372e-02
243           	2.748250e-03	1.563400e+00	-3.201203e-02	-1.325777e-02	-1.875427e-02
244           	2.447016e-03	1.562901e+00	-3.204414e-02	-1.357506e-02	-1.846909e-02
245           	2.147230e-03	1.562396e+00	-3.215024e-02	-1.392789e-02	-1.822235e-02
246           	1.858795e-03	1.561883e+00	-3.235136e-02	-1.431689e-02	-1.803448e-02
247           	1.581983e-03	1.561387e+00	-3.265943e-02	-1.474773e-02	-1.791170e-02
248           	1.311922e-03	1.560908e+00	-3.305584e-02	-1.521600e-02	-1.783984e-02
249           	1.047702e-03	1.560424e+00	-3.352289e-02	-1.571374e-02	-1.780915e-02
250           	7.883878e-04	1.559917e+00	-3.404898e-02	-1.623610e-02	-1.781288e-02
251           	5.334769e-04	1.559386e+00	-3.463633e-02	-1.678469e-02	-1.785164e-02
252           	2.858862e-04	1.558843e+00	-3.528717e-02	-1.735770e-02	-1.792947e-02
253           	4.480244e-05	1.558308e+00	-3.598900e-02	-1.794970e-02	-1.803930e-02
254           	-1.936134e-04	1.557783e+00	-3.672282e-02	-1.855502e-02	-1.816780e-02
255           	-4.331220e-04	1.557249e+00	-3.747684e-02	-1.917154e-02	-1.830530e-02
256           	-6.758242e-04	1.556685e+00	-3.824184e-02	-1.979674e-02	-1.844510e-02
257           	-9.239992e-04	1.556077e+00	-3.900706e-02	-2.042753e-02	-1.857953e-02
258           	-1.178096e-03	1.555405e+00	-3.976827e-02	-2.106223e-02	-1.870604e-02
259           	-1.439538e-03	1.554675e+00	-4.052137e-02	-2.170022e-02	-1.882115e-02
260           	-1.708467e-03	1.553890e+00	-4.125353e-02	-2.233523e-02	-1.891830e-02
261           	-1.987711e-03	1.553067e+00	-4.194880e-02	-2.296211e-02	-1.898669e-02
262           	-2.278321e-03	1.552186e+00	-4.259947e-02	-2.357806e-02	-1.902141e-02
263           	-2.577750e-03	1.551247e+00	-4.320231e-02	-2.417891e-02	-1.902341e-02
264           	-2.887889e-03	1.550210e+00	-4.375115e-02	-2.476346e-02	-1.898768e-02
265           	-3.208799e-03	1.549065e+00	-4.424816e-02	-2.533288e-02	-1.891528e-02
266           	-3.546387e-03	1.547853e+00	-4.468933e-02	-2.589105e-02	-1.879828e-02
267           	-3.893517e-03	1.546574e+00	-4.507949e-02	-2.643326e-02	-1.864623e-02
268           	-4.247646e-03	1.545098e+00	-4.541714e-02	-2.695622e-02	-1.846092e-02
269           	-4.613176e-03	1.543418e+00	-4.571642e-02	-2.747139e-02	-1.824504e-02
270           	-4.988432e-03	1.541597e+00	-4.596701e-02	-2.797194e-02	-1.799507e-02
271           	-5.375898e-03	1.539722e+00	-4.616532e-02	-2.845856e-02	-1.770676e-02
272           	-5.769273e-03	1.537869e+00	-4.630815e-02	-2.892335e-02	-1.738480e-02
273           	-6.165281e-03	1.536054e+00	-4.640852e-02	-2.936954e-02	-1.703898e-02
274           	-6.562292e-03	1.534265e+00	-4.647201e-02	-2.979830e-02	-1.667371e-02
275           	-6.957950e-03	1.532445e+00	-4.650077e-02	-3.020834e-02	-1.629244e-02
276           	-7.349509e-03	1.530569e+00	-4.649682e-02	-3.059792e-02	-1.589890e-02
277           	-7.732965e-03	1.528659e+00	-4.646277e-02	-3.096435e-02	-1.549842e-02
278           	-8.104653e-03	1.526734e+00	-4.640730e-02	-3.130831e-02	-1.509900e-02
279           	-8.462450e-03	1.524789e+00	-4.634179e-02	-3.163335e-02	-1.470845e-02
280           	-8.803338e-03	1.522838e+00	-4.627048e-02	-3.193858e-02	-1.433190e-02
281           	-9.124605e-03	1.520880e+00	-4.619553e-02	-3.222237e-02	-1.397316e-02
282           	-9.422657e-03	1.518971e+00	-4.612097e-02	-3.248314e-02	-1.363783e-02
283           	-9.697417e-03	1.517089e+00	-4.603918e-02	-3.271701e-02	-1.332217e-02
284           	-9.947936e-03	1.515228e+00	-4.595290e-02	-3.292438e-02	-1.302851e-02
285           	-1.017484e-02	1.513388e+00	-4.585946e-02	-3.310457e-02	-1.275489e-02
286           	-1.037897e-02	1.511566e+00	-4.576050e-02	-3.325922e-02	-1.250128e-02
287           	-1.056136e-02	1.509760e+00	-4.566059e-02	-3.339165e-02	-1.226894e-02
288           	-1.072074e-02	1.508068e+00	-4.558245e-02	-3.351196e-02	-1.207048e-02
289           	-1.085842e-02	1.506415e+00	-4.551791e-02	-3.361738e-02	-1.190053e-02
290           	-1.097594e-02	1.504746e+00	-4.545949e-02	-3.370568e-02	-1.175380e-02
291           	-1.107369e-02	1.503056e+00	-4.541099e-02	-3.377918e-02	-1.163181e-02
292           	-1.115158e-02	1.501351e+00	-4.537503e-02	-3.383910e-02	-1.153594e-02
293           	-1.120965e-02	1.499667e+00	-4.535206e-02	-3.388567e-02	-1.146638e-02
294           	-1.124883e-02	1.498039e+00	-4.534275e-02	-3.392021e-02	-1.142254e-02
295           	-1.127003e-02	1.496455e+00	-4.535730e-02	-3.394868e-02	-1.140862e-02
296           	-1.127428e-02	1.494929e+00	-4.539909e-02	-3.397382e-02	-1.142527e-02
297           	-1.126452e-02	1.493471e+00	-4.545725e-02	-3.399314e-02	-1.146411e-02
298           	-1.124295e-02	1.492096e+00	-4.552363e-02	-3.400476e-02	-1.151887e-02
299           	-1.121273e-02	1.490776e+00	-4.560983e-02	-3.401764e-02	-1.159219e-02
300           	-1.117396e-02	1.489535e+00	-4.573558e-02	-3.404175e-02	-1.169383e-02
301           	-1.113359e-02	1.488340e+00	-4.587185e-02	-3.406951e-02	-1.180234e-02
302           	-1.109033e-02	1.487200e+00	-4.601022e-02	-3.409544e-02	-1.191478e-02
303           	-1.104399e-02	1.486136e+00	-4.616506e-02	-3.412652e-02	-1.203854e-02
304           	-1.100327e-02	1.485160e+00	-4.633161e-02	-3.416908e-02	-1.216254e-02
305           	-1.096642e-02	1.484237e+00	-4.650820e-02	-3.422052e-02	-1.228768e-02
306           	-1.093761e-02	1.483368e+00	-4.669243e-02	-3.428382e-02	-1.240861e-02
307           	-1.091719e-02	1.482475e+00	-4.687399e-02	-3.435418e-02	-1.251981e-02
308           	-1.090396e-02	1.481596e+00	-4.707587e-02	-3.444189e-02	-1.263398e-02
309           	-1.090222e-02	1.480689e+00	-4.728126e-02	-3.454286e-02	-1.273841e-02
310           	-1.091334e-02	1.479772e+00	-4.749872e-02	-3.466270e-02	-1.283601e-02
311           	-1.093069e-02	1.478860e+00	-4.772976e-02	-3.479556e-02	-1.293419e-02
312           	-1.096279e-02	1.477988e+00	-4.794995e-02	-3.493776e-02	-1.301219e-02
313           	-1.100529e-02	1.477183e+00	-4.817903e-02	-3.509480e-02	-1.308423e-02
314           	-1.106219e-02	1.476455e+00	-4.840264e-02	-3.526351e-02	-1.313913e-02
315           	-1.112928e-02	1.475773e+00	-4.864179e-02	-3.545018e-02	-1.319162e-02
316           	-1.120454e-02	1.475160e+00	-4.888950e-02	-3.564929e-02	-1.324021e-02
317           	-1.129513e-02	1.474576e+00	-4.911378e-02	-3.585203e-02	-1.326176e-02
318           	-1.139247e-02	1.474016e+00	-4.934018e-02	-3.606256e-02	-1.327762e-02
319           	-1.150074e-02	1.473517e+00	-4.957292e-02	-3.628720e-02	-1.328572e-02
320           	-1.161368e-02	1.473121e+00	-4.981868e-02	-3.652303e-02	-1.329566e-02
321           	-1.173155e-02	1.472824e+00	-5.004763e-02	-3.675536e-02	-1.329227e-02
322           	-1.186345e-02	1.472637e+00	-5.025079e-02	-3.698885e-02	-1.326194e-02
323           	-1.199577e-02	1.472499e+00	-5.047381e-02	-3.723268e-02	-1.324113e-02
324           	-1.213234e-02	1.472405e+00	-5.071282e-02	-3.748875e-02	-1.322407e-02
325           	-1.226874e-02	1.472393e+00	-5.096925e-02	-3.775337e-02	-1.321588e-02
326           	-1.240887e-02	1.472417e+00	-5.120762e-02	-3.801268e-02	-1.319494e-02
327           	-1.255359e-02	1.472471e+00	-5.142855e-02	-3.826787e-02	-1.316069e-02
328           	-1.269163e-02	1.472535e+00	-5.167426e-02	-3.852875e-02	-1.314550e-02
329           	-1.282710e-02	1.472621e+00	-5.195214e-02	-3.880317e-02	-1.314897e-02
330           	-1.295966e-02	1.472748e+00	-5.225385e-02	-3.908658e-02	-1.316727e-02
331           	-1.309263e-02	1.472923e+00	-5.252448e-02	-3.935487e-02	-1.316961e-02
332           	-1.322014e-02	1.473103e+00	-5.279847e-02	-3.961937e-02	-1.317910e-02
333           	-1.333916e-02	1.473318e+00	-5.310059e-02	-3.988946e-02	-1.321113e-02
334           	-1.345290e-02	1.473585e+00	-5.343152e-02	-4.016866e-02	-1.326285e-02
335           	-1.356372e-02	1.473897e+00	-5.376143e-02	-4.044444e-02	-1.331699e-02
336           	-1.367277e-02	1.474249e+00	-5.409161e-02	-4.071858e-02	-1.337304e-02
337           	-1.377209e-02	1.474624e+00	-5.443988e-02	-4.099203e-02	-1.344785e-02
338           	-1.385925e-02	1.475060e+00	-5.482451e-02	-4.127150e-02	-1.355301e-02
339           	-1.393985e-02	1.475582e+00	-5.522699e-02	-4.155334e-02	-1.367365e-02
340           	-1.401707e-02	1.476147e+00	-5.561556e-02	-4.182485e-02	-1.379071e-02
341           	-1.409020e-02	1.476746e+00	-5.599520e-02	-4.208780e-02	-1.390740e-02
342           	-1.415660e-02	1.477369e+00	-5.638342e-02	-4.234832e-02	-1.403511e-02
343           	-1.421423e-02	1.478047e+00	-5.678607e-02	-4.260727e-02	-1.417880e-02
344           	-1.426563e-02	1.478805e+00	-5.720767e-02	-4.286946e-02	-1.433821e-02
345           	-1.431327e-02	1.479630e+00	-5.763786e-02	-4.313220e-02	-1.450566e-02
346           	-1.435800e-02	1.480505e+00	-5.806232e-02	-4.338916e-02	-1.467315e-02
347           	-1.440095e-02	1.481425e+00	-5.847628e-02	-4.363909e-02	-1.483719e-02
348           	-1.444199e-02	1.482378e+00	-5.887783e-02	-4.388090e-02	-1.499693e-02
349           	-1.448009e-02	1.483380e+00	-5.927152e-02	-4.411585e-02	-1.515567e-02
350           	-1.451469e-02	1.484444e+00	-5.965811e-02	-4.434375e-02	-1.531436e-02
351           	-1.454678e-02	1.485568e+00	-6.002751e-02	-4.456053e-02	-1.546698e-02
352           	-1.457860e-02	1.486739e+00	-6.037020e-02	-4.476371e-02	-1.560650e-02
353           	-1.461267e-02	1.487925e+00	-6.067311e-02	-4.494922e-02	-1.572389e-02
354           	-1.464982e-02	1.489102e+00	-6.092447e-02	-4.511206e-02	-1.581241e-02
355           	-1.469221e-02	1.490262e+00	-6.112149e-02	-4.525295e-02	-1.586854e-02
356           	-1.473801e-02	1.491402e+00	-6.126317e-02	-4.536959e-02	-1.589358e-02
357           	-1.478903e-02	1.492548e+00	-6.134640e-02	-4.546223e-02	-1.588417e-02