# Force coefficients
# liftDir     : (0.000000e+00 0.000000e+00 1.000000e+00)
# dragDir     : (1.000000e+00 0.000000e+00 0.000000e+00)
# pitchAxis   : (0.000000e+00 1.000000e+00 0.000000e+00)
# magUInf     : 1.000000e+00
# lRef        : 1.000000e+00
# Aref        : 1.000000e+00
# CofR        : (2.500000e+00 0.000000e+00 0.000000e+00)
#
# Time        	Cm            	Cd            	Cl            	Cl(f)         	Cl(r)         
1             	-4.728852e-04	9.946553e-01	-6.941018e-03	-3.943394e-03	-2.997624e-03
2             	-1.474997e-03	1.713750e+00	-1.189946e-02	-7.424726e-03	-4.474732e-03
3             	-1.850636e-03	2.356241e+00	-8.101592e-03	-5.901432e-03	-2.200160e-03
4             	-1.412858e-03	2.578792e+00	2.569429e-03	-1.281431e-04	2.697572e-03
5             	-5.668772e-04	2.444236e+00	1.626668e-02	7.566461e-03	8.700216e-03
6             	2.879536e-04	2.128726e+00	2.948941e-02	1.503266e-02	1.445675e-02
7             	1.037174e-03	1.790190e+00	3.994206e-02	2.100821e-02	1.893386e-02
8             	1.433299e-03	1.544725e+00	4.774468e-02	2.530564e-02	2.243904e-02
9             	1.348663e-03	1.427019e+00	5.456082e-02	2.862907e-02	2.593175e-02
10            	1.050776e-03	1.413387e+00	6.212717e-02	3.211436e-02	3.001281e-02
11            	7.348384e-04	1.457384e+00	7.183009e-02	3.664988e-02	3.518021e-02
12            	5.590502e-04	1.517325e+00	8.307399e-02	4.209605e-02	4.097795e-02
13            	5.963950e-04	1.561596e+00	9.536090e-02	4.827685e-02	4.708406e-02
14            	9.154716e-04	1.577389e+00	1.078500e-01	5.484048e-02	5.300954e-02
15            	1.499541e-03	1.567896e+00	1.203144e-01	6.165676e-02	5.865767e-02
16            	2.118845e-03	1.540788e+00	1.321830e-01	6.821035e-02	6.397266e-02
17            	2.769618e-03	1.506191e+00	1.430549e-01	7.429708e-02	6.875784e-02
18            	3.351001e-03	1.471668e+00	1.525742e-01	7.963808e-02	7.293608e-02
19            	3.841596e-03	1.445331e+00	1.608407e-01	8.426193e-02	7.657874e-02
20            	4.231687e-03	1.428410e+00	1.681400e-01	8.830171e-02	7.983833e-02
21            	4.470732e-03	1.419952e+00	1.750771e-01	9.200930e-02	8.306784e-02
22            	4.474069e-03	1.415221e+00	1.818349e-01	9.539151e-02	8.644337e-02
23            	4.298082e-03	1.412297e+00	1.891411e-01	9.886862e-02	9.027246e-02
24            	3.867058e-03	1.408147e+00	1.969617e-01	1.023479e-01	9.461378e-02
25            	3.114065e-03	1.401861e+00	2.051188e-01	1.056735e-01	9.944534e-02
26            	2.140835e-03	1.393847e+00	2.125782e-01	1.084299e-01	1.041483e-01
27            	9.855160e-04	1.385717e+00	2.194628e-01	1.107169e-01	1.087459e-01
28            	-3.694372e-04	1.378640e+00	2.261581e-01	1.127096e-01	1.134485e-01
29            	-2.073638e-03	1.373198e+00	2.324043e-01	1.141285e-01	1.182758e-01
30            	-4.119909e-03	1.369159e+00	2.382872e-01	1.150237e-01	1.232635e-01
31            	-6.556996e-03	1.366008e+00	2.437433e-01	1.153147e-01	1.284287e-01
32            	-9.306354e-03	1.363499e+00	2.489812e-01	1.151843e-01	1.337970e-01
33            	-1.239718e-02	1.361744e+00	2.542280e-01	1.147168e-01	1.395112e-01
34            	-1.589560e-02	1.360986e+00	2.592614e-01	1.137351e-01	1.455263e-01
35            	-1.986880e-02	1.361801e+00	2.632352e-01	1.117488e-01	1.514864e-01
36            	-2.434407e-02	1.364577e+00	2.657052e-01	1.085085e-01	1.571967e-01
37            	-2.923306e-02	1.368784e+00	2.664810e-01	1.040074e-01	1.624736e-01
38            	-3.424801e-02	1.373981e+00	2.661847e-01	9.884434e-02	1.673404e-01
39            	-3.940639e-02	1.380335e+00	2.655458e-01	9.336651e-02	1.721793e-01
40            	-4.474714e-02	1.387439e+00	2.648106e-01	8.765818e-02	1.771525e-01
41            	-5.025413e-02	1.394689e+00	2.640653e-01	8.177854e-02	1.822868e-01
42            	-5.602151e-02	1.402283e+00	2.635035e-01	7.573024e-02	1.877733e-01
43            	-6.196438e-02	1.409910e+00	2.629974e-01	6.953431e-02	1.934631e-01
44            	-6.796079e-02	1.417365e+00	2.623130e-01	6.319572e-02	1.991173e-01
45            	-7.394493e-02	1.424237e+00	2.611247e-01	5.661740e-02	2.045073e-01
46            	-7.986151e-02	1.429968e+00	2.597728e-01	5.002490e-02	2.097479e-01
47            	-8.556228e-02	1.433880e+00	2.588273e-01	4.385138e-02	2.149759e-01
48            	-9.089290e-02	1.436028e+00	2.578441e-01	3.802913e-02	2.198149e-01
49            	-9.577055e-02	1.436259e+00	2.561996e-01	3.232924e-02	2.238703e-01
50            	-1.002829e-01	1.434784e+00	2.530669e-01	2.625056e-02	2.268163e-01
51            	-1.043090e-01	1.431945e+00	2.482911e-01	1.983657e-02	2.284545e-01
52            	-1.077413e-01	1.428629e+00	2.417825e-01	1.314996e-02	2.286325e-01
53            	-1.103734e-01	1.425115e+00	2.326261e-01	5.939607e-03	2.266865e-01
54            	-1.120049e-01	1.422032e+00	2.200796e-01	-1.965133e-03	2.220447e-01
55            	-1.126616e-01	1.419031e+00	2.034472e-01	-1.093805e-02	2.143852e-01
56            	-1.125452e-01	1.416075e+00	1.837220e-01	-2.068423e-02	2.044062e-01
57            	-1.120309e-01	1.413264e+00	1.613188e-01	-3.137151e-02	1.926903e-01
58            	-1.112096e-01	1.410468e+00	1.363966e-01	-4.301130e-02	1.794079e-01
59            	-1.099756e-01	1.407774e+00	1.092918e-01	-5.532972e-02	1.646215e-01
60            	-1.080677e-01	1.404808e+00	8.064392e-02	-6.774575e-02	1.483897e-01
61            	-1.056925e-01	1.401767e+00	5.074508e-02	-8.031996e-02	1.310650e-01
62            	-1.030573e-01	1.399227e+00	2.074174e-02	-9.268638e-02	1.134281e-01
63            	-1.004302e-01	1.396487e+00	-8.378727e-03	-1.046196e-01	9.624083e-02
64            	-9.807738e-02	1.393367e+00	-3.590824e-02	-1.160315e-01	8.012326e-02
65            	-9.599855e-02	1.389704e+00	-6.120751e-02	-1.266023e-01	6.539479e-02
66            	-9.425835e-02	1.386106e+00	-8.422117e-02	-1.363689e-01	5.214777e-02
67            	-9.290574e-02	1.382828e+00	-1.045695e-01	-1.451905e-01	4.062099e-02
68            	-9.209317e-02	1.379480e+00	-1.222944e-01	-1.532404e-01	3.094595e-02
69            	-9.187975e-02	1.376162e+00	-1.374003e-01	-1.605799e-01	2.317959e-02
70            	-9.228110e-02	1.372978e+00	-1.499557e-01	-1.672590e-01	1.730325e-02
71            	-9.326684e-02	1.369696e+00	-1.600933e-01	-1.733135e-01	1.322016e-02
72            	-9.492087e-02	1.366349e+00	-1.679604e-01	-1.789011e-01	1.094066e-02
73            	-9.728935e-02	1.362974e+00	-1.728865e-01	-1.837326e-01	1.084612e-02
74            	-1.002654e-01	1.359322e+00	-1.750901e-01	-1.878104e-01	1.272038e-02
75            	-1.036065e-01	1.355379e+00	-1.744885e-01	-1.908508e-01	1.636227e-02
76            	-1.070247e-01	1.351498e+00	-1.713066e-01	-1.926780e-01	2.137137e-02
77            	-1.104334e-01	1.348252e+00	-1.655571e-01	-1.932120e-01	2.765488e-02
78            	-1.138389e-01	1.345489e+00	-1.568046e-01	-1.922413e-01	3.543662e-02
79            	-1.171226e-01	1.343103e+00	-1.457048e-01	-1.899750e-01	4.427022e-02
80            	-1.202342e-01	1.340810e+00	-1.330618e-01	-1.867652e-01	5.370333e-02
81            	-1.229138e-01	1.338716e+00	-1.201355e-01	-1.829816e-01	6.284610e-02
82            	-1.249820e-01	1.336946e+00	-1.072776e-01	-1.786208e-01	7.134324e-02
83            	-1.262318e-01	1.335670e+00	-9.531970e-02	-1.738917e-01	7.857198e-02
84            	-1.266875e-01	1.335034e+00	-8.461024e-02	-1.689926e-01	8.438240e-02
85            	-1.265330e-01	1.335464e+00	-7.499000e-02	-1.640280e-01	8.903797e-02
86            	-1.259798e-01	1.337377e+00	-6.625440e-02	-1.591070e-01	9.285256e-02
87            	-1.251556e-01	1.340688e+00	-5.829103e-02	-1.543011e-01	9.601011e-02
88            	-1.242083e-01	1.344865e+00	-5.104849e-02	-1.497325e-01	9.868404e-02
89            	-1.232705e-01	1.349540e+00	-4.449191e-02	-1.455164e-01	1.010245e-01
90            	-1.224151e-01	1.354506e+00	-3.838851e-02	-1.416093e-01	1.032208e-01
91            	-1.216875e-01	1.359541e+00	-3.271002e-02	-1.380425e-01	1.053324e-01
92            	-1.209430e-01	1.364873e+00	-2.748551e-02	-1.346858e-01	1.072002e-01
93            	-1.201429e-01	1.370345e+00	-2.273409e-02	-1.315100e-01	1.087759e-01
94            	-1.192338e-01	1.375787e+00	-1.828060e-02	-1.283741e-01	1.100935e-01
95            	-1.182357e-01	1.381001e+00	-1.384456e-02	-1.251580e-01	1.113134e-01
96            	-1.171646e-01	1.385494e+00	-9.686963e-03	-1.220080e-01	1.123211e-01
97            	-1.159914e-01	1.389005e+00	-6.148946e-03	-1.190658e-01	1.129169e-01
98            	-1.147041e-01	1.391617e+00	-3.426248e-03	-1.164172e-01	1.129909e-01
99            	-1.133879e-01	1.393540e+00	-1.286592e-03	-1.140312e-01	1.127446e-01
100           	-1.120905e-01	1.394963e+00	5.903999e-04	-1.117953e-01	1.123857e-01
101           	-1.108435e-01	1.395889e+00	2.288127e-03	-1.096994e-01	1.119875e-01
102           	-1.095974e-01	1.396438e+00	3.632645e-03	-1.077811e-01	1.114138e-01
103           	-1.082499e-01	1.396650e+00	4.348036e-03	-1.060759e-01	1.104239e-01
104           	-1.067256e-01	1.396520e+00	4.293892e-03	-1.045787e-01	1.088726e-01
105           	-1.050226e-01	1.396127e+00	3.381101e-03	-1.033320e-01	1.067131e-01
106           	-1.031505e-01	1.395531e+00	1.558569e-03	-1.023712e-01	1.039298e-01
107           	-1.011014e-01	1.395023e+00	-1.027765e-03	-1.016153e-01	1.005875e-01
108           	-9.887930e-02	1.394836e+00	-4.267289e-03	-1.010129e-01	9.674566e-02
109           	-9.650860e-02	1.395034e+00	-7.960687e-03	-1.004889e-01	9.252825e-02
110           	-9.402139e-02	1.395593e+00	-1.203922e-02	-1.000410e-01	8.800178e-02
111           	-9.144115e-02	1.396428e+00	-1.649165e-02	-9.968697e-02	8.319532e-02
112           	-8.878944e-02	1.397457e+00	-2.119607e-02	-9.938748e-02	7.819141e-02
113           	-8.608515e-02	1.398700e+00	-2.600889e-02	-9.908960e-02	7.308071e-02
114           	-8.333681e-02	1.400105e+00	-3.089622e-02	-9.878492e-02	6.788869e-02
115           	-8.052234e-02	1.401678e+00	-3.591003e-02	-9.847735e-02	6.256732e-02
116           	-7.764038e-02	1.403590e+00	-4.094313e-02	-9.811194e-02	5.716881e-02
117           	-7.469925e-02	1.405986e+00	-4.602067e-02	-9.770958e-02	5.168891e-02
118           	-7.172152e-02	1.408919e+00	-5.115451e-02	-9.729877e-02	4.614426e-02
119           	-6.874353e-02	1.412431e+00	-5.625016e-02	-9.686861e-02	4.061845e-02
120           	-6.577129e-02	1.416570e+00	-6.135892e-02	-9.645075e-02	3.509184e-02
121           	-6.282885e-02	1.421317e+00	-6.644597e-02	-9.605183e-02	2.960586e-02
122           	-5.995960e-02	1.426605e+00	-7.134261e-02	-9.563090e-02	2.428829e-02
123           	-5.719419e-02	1.432289e+00	-7.605402e-02	-9.522120e-02	1.916718e-02
124           	-5.457874e-02	1.438381e+00	-8.062752e-02	-9.489251e-02	1.426498e-02
125           	-5.214383e-02	1.444881e+00	-8.504065e-02	-9.466416e-02	9.623508e-03
126           	-4.993516e-02	1.451739e+00	-8.914753e-02	-9.450892e-02	5.361394e-03
127           	-4.799999e-02	1.458881e+00	-9.282593e-02	-9.441296e-02	1.587030e-03
128           	-4.634516e-02	1.466214e+00	-9.609048e-02	-9.439040e-02	-1.700081e-03
129           	-4.496285e-02	1.473566e+00	-9.889499e-02	-9.441035e-02	-4.484644e-03
130           	-4.383918e-02	1.480856e+00	-1.012387e-01	-9.445852e-02	-6.780154e-03
131           	-4.298521e-02	1.488021e+00	-1.030625e-01	-9.451644e-02	-8.546017e-03
132           	-4.238255e-02	1.495008e+00	-1.044127e-01	-9.458891e-02	-9.823804e-03
133           	-4.200274e-02	1.501695e+00	-1.053809e-01	-9.469318e-02	-1.068769e-02
134           	-4.184739e-02	1.508023e+00	-1.059219e-01	-9.480834e-02	-1.111356e-02
135           	-4.188093e-02	1.513880e+00	-1.060474e-01	-9.490465e-02	-1.114278e-02
136           	-4.206413e-02	1.519151e+00	-1.058210e-01	-9.497462e-02	-1.084637e-02
137           	-4.236164e-02	1.523787e+00	-1.052873e-01	-9.500528e-02	-1.028200e-02
138           	-4.274515e-02	1.527743e+00	-1.044527e-01	-9.497149e-02	-9.481195e-03
139           	-4.319256e-02	1.531044e+00	-1.033398e-01	-9.486246e-02	-8.477336e-03
140           	-4.367065e-02	1.533733e+00	-1.018930e-01	-9.461714e-02	-7.275838e-03
141           	-4.414593e-02	1.535751e+00	-1.001385e-01	-9.421517e-02	-5.923313e-03
142           	-4.460604e-02	1.537071e+00	-9.814295e-02	-9.367751e-02	-4.465433e-03
143           	-4.502253e-02	1.537746e+00	-9.596715e-02	-9.300611e-02	-2.961039e-03
144           	-4.537790e-02	1.537830e+00	-9.369607e-02	-9.222593e-02	-1.470136e-03
145           	-4.565390e-02	1.537426e+00	-9.132960e-02	-9.131870e-02	-1.090268e-05
146           	-4.582698e-02	1.536690e+00	-8.897986e-02	-9.031691e-02	1.337043e-03
147           	-4.587130e-02	1.535716e+00	-8.663031e-02	-8.918645e-02	2.556148e-03
148           	-4.576728e-02	1.534536e+00	-8.429598e-02	-8.791527e-02	3.619293e-03
149           	-4.550758e-02	1.533199e+00	-8.194849e-02	-8.648183e-02	4.533336e-03
150           	-4.508935e-02	1.531774e+00	-7.959272e-02	-8.488571e-02	5.292992e-03
151           	-4.451788e-02	1.530306e+00	-7.724254e-02	-8.313915e-02	5.896614e-03
152           	-4.378926e-02	1.528797e+00	-7.486943e-02	-8.122397e-02	6.354542e-03
153           	-4.291179e-02	1.527271e+00	-7.251024e-02	-7.916691e-02	6.656670e-03
154           	-4.189834e-02	1.525778e+00	-7.013945e-02	-7.696807e-02	6.828616e-03
155           	-4.075425e-02	1.524359e+00	-6.770906e-02	-7.460878e-02	6.899723e-03
156           	-3.948559e-02	1.523099e+00	-6.527234e-02	-7.212176e-02	6.849420e-03
157           	-3.809612e-02	1.522012e+00	-6.284612e-02	-6.951918e-02	6.673061e-03
158           	-3.659980e-02	1.521131e+00	-6.045369e-02	-6.682664e-02	6.372957e-03
159           	-3.501141e-02	1.520486e+00	-5.811308e-02	-6.406795e-02	5.954871e-03
160           	-3.335107e-02	1.520067e+00	-5.582300e-02	-6.126257e-02	5.439566e-03
161           	-3.163191e-02	1.519886e+00	-5.356606e-02	-5.841493e-02	4.848878e-03
162           	-2.987183e-02	1.519901e+00	-5.134766e-02	-5.554566e-02	4.197998e-03
163           	-2.809464e-02	1.520167e+00	-4.916823e-02	-5.267876e-02	3.510528e-03
164           	-2.632302e-02	1.520652e+00	-4.700720e-02	-4.982662e-02	2.819421e-03
165           	-2.457408e-02	1.521300e+00	-4.482803e-02	-4.698810e-02	2.160067e-03
166           	-2.287064e-02	1.522170e+00	-4.259151e-02	-4.416640e-02	1.574886e-03
167           	-2.121931e-02	1.523293e+00	-4.033650e-02	-4.138756e-02	1.051063e-03
168           	-1.962457e-02	1.524590e+00	-3.809715e-02	-3.867314e-02	5.759912e-04
169           	-1.810094e-02	1.525992e+00	-3.585427e-02	-3.602808e-02	1.738034e-04
170           	-1.665074e-02	1.527482e+00	-3.362532e-02	-3.346340e-02	-1.619267e-04
171           	-1.528525e-02	1.529034e+00	-3.141523e-02	-3.099286e-02	-4.223701e-04
172           	-1.400200e-02	1.530660e+00	-2.923855e-02	-2.862127e-02	-6.172773e-04
173           	-1.279879e-02	1.532184e+00	-2.714518e-02	-2.637139e-02	-7.737974e-04
174           	-1.167819e-02	1.533540e+00	-2.514784e-02	-2.425211e-02	-8.957313e-04
175           	-1.065244e-02	1.534808e+00	-2.321127e-02	-2.225808e-02	-9.531956e-04
176           	-9.727863e-03	1.536081e+00	-2.130705e-02	-2.038139e-02	-9.256634e-04
177           	-8.899646e-03	1.537408e+00	-1.944971e-02	-1.862450e-02	-8.252073e-04
178           	-8.163362e-03	1.538794e+00	-1.765669e-02	-1.699171e-02	-6.649845e-04
179           	-7.522404e-03	1.540216e+00	-1.593751e-02	-1.549116e-02	-4.463508e-04
180           	-6.980933e-03	1.541622e+00	-1.426644e-02	-1.411415e-02	-1.522879e-04
181           	-6.544296e-03	1.543000e+00	-1.262054e-02	-1.285457e-02	2.340252e-04
182           	-6.218364e-03	1.544372e+00	-1.097320e-02	-1.170496e-02	7.317658e-04
183           	-6.004517e-03	1.545781e+00	-9.323569e-03	-1.066630e-02	1.342732e-03
184           	-5.892898e-03	1.547199e+00	-7.705410e-03	-9.745602e-03	2.040193e-03
185           	-5.875166e-03	1.548598e+00	-6.166580e-03	-8.958456e-03	2.791877e-03
186           	-5.945155e-03	1.549938e+00	-4.728315e-03	-8.309312e-03	3.580998e-03
187           	-6.092898e-03	1.551218e+00	-3.423298e-03	-7.804546e-03	4.381249e-03
188           	-6.311612e-03	1.552413e+00	-2.257100e-03	-7.440162e-03	5.183062e-03
189           	-6.598472e-03	1.553509e+00	-1.189370e-03	-7.193157e-03	6.003787e-03
190           	-6.950229e-03	1.554500e+00	-2.151451e-04	-7.057802e-03	6.842656e-03
191           	-7.362261e-03	1.555430e+00	5.983095e-04	-7.063106e-03	7.661416e-03
192           	-7.830442e-03	1.556344e+00	1.206094e-03	-7.227395e-03	8.433489e-03
193           	-8.348964e-03	1.557257e+00	1.617878e-03	-7.540025e-03	9.157903e-03
194           	-8.912169e-03	1.558114e+00	1.830871e-03	-7.996733e-03	9.827604e-03
195           	-9.514934e-03	1.558857e+00	1.838356e-03	-8.595756e-03	1.043411e-02
196           	-1.014892e-02	1.559443e+00	1.640861e-03	-9.328485e-03	1.096935e-02
197           	-1.080438e-02	1.559871e+00	1.261003e-03	-1.017388e-02	1.143488e-02
198           	-1.147778e-02	1.560169e+00	6.883612e-04	-1.113360e-02	1.182196e-02
199           	-1.216084e-02	1.560378e+00	-6.901218e-05	-1.219535e-02	1.212634e-02
200           	-1.284498e-02	1.560548e+00	-1.006119e-03	-1.334804e-02	1.234192e-02
201           	-1.352489e-02	1.560699e+00	-2.139788e-03	-1.459479e-02	1.245500e-02
202           	-1.419593e-02	1.560772e+00	-3.447157e-03	-1.591951e-02	1.247235e-02
203           	-1.485176e-02	1.560733e+00	-4.900237e-03	-1.730188e-02	1.240165e-02
204           	-1.549069e-02	1.560628e+00	-6.536210e-03	-1.875880e-02	1.222259e-02
205           	-1.610528e-02	1.560477e+00	-8.370809e-03	-2.029068e-02	1.191987e-02
206           	-1.669043e-02	1.560220e+00	-1.036520e-02	-2.187303e-02	1.150783e-02
207           	-1.724093e-02	1.559917e+00	-1.247018e-02	-2.347602e-02	1.100584e-02
208           	-1.774851e-02	1.559676e+00	-1.470262e-02	-2.509982e-02	1.039720e-02
209           	-1.820864e-02	1.559474e+00	-1.710154e-02	-2.675941e-02	9.657865e-03
210           	-1.862334e-02	1.559317e+00	-1.963699e-02	-2.844184e-02	8.804841e-03
211           	-1.898424e-02	1.559180e+00	-2.226515e-02	-3.011681e-02	7.851662e-03
212           	-1.928746e-02	1.559017e+00	-2.503124e-02	-3.180308e-02	6.771840e-03
213           	-1.953881e-02	1.558812e+00	-2.790470e-02	-3.349116e-02	5.586460e-03
214           	-1.973081e-02	1.558528e+00	-3.085361e-02	-3.515761e-02	4.304004e-03
215           	-1.986857e-02	1.558195e+00	-3.385777e-02	-3.679746e-02	2.939685e-03
216           	-1.995228e-02	1.557818e+00	-3.693638e-02	-3.842047e-02	1.484091e-03
217           	-1.998188e-02	1.557406e+00	-4.008561e-02	-4.002468e-02	-6.092542e-05
218           	-1.995792e-02	1.557009e+00	-4.324548e-02	-4.158066e-02	-1.664816e-03
219           	-1.988482e-02	1.556591e+00	-4.642555e-02	-4.309760e-02	-3.327952e-03
220           	-1.976028e-02	1.556147e+00	-4.960469e-02	-4.456262e-02	-5.042071e-03
221           	-1.958992e-02	1.555682e+00	-5.275221e-02	-4.596602e-02	-6.786192e-03
222           	-1.937403e-02	1.555190e+00	-5.589979e-02	-4.732393e-02	-8.575863e-03
223           	-1.912497e-02	1.554685e+00	-5.897897e-02	-4.861445e-02	-1.036452e-02
224           	-1.884181e-02	1.554183e+00	-6.200456e-02	-4.984409e-02	-1.216046e-02
225           	-1.853997e-02	1.553712e+00	-6.497456e-02	-5.102725e-02	-1.394731e-02
226           	-1.821928e-02	1.553280e+00	-6.793000e-02	-5.218428e-02	-1.574572e-02
227           	-1.788393e-02	1.552900e+00	-7.083742e-02	-5.330264e-02	-1.753478e-02
228           	-1.754512e-02	1.552557e+00	-7.366514e-02	-5.437769e-02	-1.928745e-02
229           	-1.719944e-02	1.552238e+00	-7.640252e-02	-5.540070e-02	-2.100181e-02
230           	-1.685992e-02	1.551919e+00	-7.905723e-02	-5.638853e-02	-2.266869e-02
231           	-1.651958e-02	1.551584e+00	-8.164803e-02	-5.734360e-02	-2.430444e-02
232           	-1.618982e-02	1.551241e+00	-8.419481e-02	-5.828723e-02	-2.590758e-02
233           	-1.586841e-02	1.550876e+00	-8.668646e-02	-5.921164e-02	-2.747482e-02
234           	-1.556618e-02	1.550512e+00	-8.910107e-02	-6.011671e-02	-2.898435e-02
235           	-1.527992e-02	1.550096e+00	-9.142618e-02	-6.099301e-02	-3.043317e-02
236           	-1.501240e-02	1.549620e+00	-9.368717e-02	-6.185598e-02	-3.183118e-02
237           	-1.475993e-02	1.549097e+00	-9.591124e-02	-6.271555e-02	-3.319569e-02
238           	-1.453170e-02	1.548568e+00	-9.807230e-02	-6.356785e-02	-3.450445e-02
239           	-1.432739e-02	1.548030e+00	-1.001516e-01	-6.440317e-02	-3.574840e-02
240           	-1.415471e-02	1.547496e+00	-1.021241e-01	-6.521676e-02	-3.690735e-02
241           	-1.400883e-02	1.546955e+00	-1.040206e-01	-6.601915e-02	-3.800148e-02
242           	-1.389053e-02	1.546384e+00	-1.058845e-01	-6.683278e-02	-3.905171e-02
243           	-1.380553e-02	1.545813e+00	-1.077045e-01	-6.765778e-02	-4.004671e-02
244           	-1.375476e-02	1.545220e+00	-1.094529e-01	-6.848122e-02	-4.097169e-02
245           	-1.373729e-02	1.544597e+00	-1.111191e-01	-6.929682e-02	-4.182223e-02
246           	-1.375270e-02	1.543978e+00	-1.127288e-01	-7.011712e-02	-4.261172e-02
247           	-1.379968e-02	1.543389e+00	-1.142791e-01	-7.093925e-02	-4.333988e-02
248           	-1.387822e-02	1.542792e+00	-1.157799e-01	-7.176815e-02	-4.401170e-02
249           	-1.398929e-02	1.542190e+00	-1.172175e-01	-7.259803e-02	-4.461945e-02
250           	-1.413253e-02	1.541611e+00	-1.185896e-01	-7.342735e-02	-4.516229e-02
251           	-1.430632e-02	1.541083e+00	-1.198835e-01	-7.424805e-02	-4.563541e-02
252           	-1.450672e-02	1.540592e+00	-1.211229e-01	-7.506815e-02	-4.605471e-02
253           	-1.473147e-02	1.540129e+00	-1.223066e-01	-7.588479e-02	-4.642185e-02
254           	-1.497892e-02	1.539713e+00	-1.234434e-01	-7.670062e-02	-4.674277e-02
255           	-1.524632e-02	1.539348e+00	-1.245296e-01	-7.751113e-02	-4.701849e-02
256           	-1.553041e-02	1.539039e+00	-1.255753e-01	-7.831804e-02	-4.725721e-02
257           	-1.582773e-02	1.538798e+00	-1.265546e-01	-7.910503e-02	-4.744958e-02
258           	-1.613378e-02	1.538615e+00	-1.274704e-01	-7.986895e-02	-4.760140e-02
259           	-1.644502e-02	1.538477e+00	-1.283376e-01	-8.061383e-02	-4.772380e-02
260           	-1.676060e-02	1.538390e+00	-1.291394e-01	-8.133028e-02	-4.780909e-02
261           	-1.707909e-02	1.538324e+00	-1.299046e-01	-8.203138e-02	-4.787320e-02
262           	-1.739825e-02	1.538263e+00	-1.306480e-01	-8.272223e-02	-4.792573e-02
263           	-1.771902e-02	1.538226e+00	-1.313559e-01	-8.339699e-02	-4.795895e-02
264           	-1.803974e-02	1.538217e+00	-1.320202e-01	-8.404984e-02	-4.797037e-02
265           	-1.836142e-02	1.538238e+00	-1.326351e-01	-8.467898e-02	-4.795614e-02
266           	-1.867609e-02	1.538270e+00	-1.332027e-01	-8.527746e-02	-4.792528e-02
267           	-1.898591e-02	1.538291e+00	-1.337081e-01	-8.583994e-02	-4.786812e-02
268           	-1.929098e-02	1.538268e+00	-1.341729e-01	-8.637744e-02	-4.779548e-02
269           	-1.959205e-02	1.538176e+00	-1.346098e-01	-8.689693e-02	-4.771283e-02
270           	-1.989558e-02	1.538074e+00	-1.350111e-01	-8.740111e-02	-4.760996e-02
271           	-2.019331e-02	1.537972e+00	-1.353764e-01	-8.788150e-02	-4.749489e-02
272           	-2.048046e-02	1.537751e+00	-1.357212e-01	-8.834107e-02	-4.738015e-02
273           	-2.076533e-02	1.537372e+00	-1.360431e-01	-8.878689e-02	-4.725622e-02
274           	-2.104997e-02	1.536873e+00	-1.363379e-01	-8.921893e-02	-4.711900e-02
275           	-2.133851e-02	1.536333e+00	-1.365811e-01	-8.962904e-02	-4.695202e-02
276           	-2.162562e-02	1.535808e+00	-1.367733e-01	-9.001228e-02	-4.676103e-02
277           	-2.190317e-02	1.535286e+00	-1.369340e-01	-9.037018e-02	-4.656385e-02
278           	-2.217113e-02	1.534740e+00	-1.370571e-01	-9.069967e-02	-4.635740e-02
279           	-2.243167e-02	1.534153e+00	-1.371268e-01	-9.099508e-02	-4.613175e-02
280           	-2.268750e-02	1.533512e+00	-1.371280e-01	-9.125150e-02	-4.587650e-02
281           	-2.293801e-02	1.532822e+00	-1.370546e-01	-9.146533e-02	-4.558931e-02
282           	-2.318241e-02	1.532092e+00	-1.368991e-01	-9.163197e-02	-4.526715e-02
283           	-2.342086e-02	1.531327e+00	-1.366570e-01	-9.174939e-02	-4.490766e-02
284           	-2.365347e-02	1.530531e+00	-1.363218e-01	-9.181436e-02	-4.450742e-02
285           	-2.388059e-02	1.529701e+00	-1.359049e-01	-9.183304e-02	-4.407185e-02
286           	-2.410212e-02	1.528842e+00	-1.354093e-01	-9.180675e-02	-4.360251e-02
287           	-2.431713e-02	1.527971e+00	-1.348238e-01	-9.172904e-02	-4.309478e-02
288           	-2.452451e-02	1.527073e+00	-1.341548e-01	-9.160189e-02	-4.255286e-02
289           	-2.472389e-02	1.526130e+00	-1.334184e-01	-9.143309e-02	-4.198532e-02
290           	-2.491483e-02	1.525143e+00	-1.326157e-01	-9.122269e-02	-4.139303e-02
291           	-2.509717e-02	1.524127e+00	-1.317426e-01	-9.096847e-02	-4.077412e-02
292           	-2.527119e-02	1.523092e+00	-1.307983e-01	-9.067033e-02	-4.012795e-02
293           	-2.543778e-02	1.522032e+00	-1.297973e-01	-9.033645e-02	-3.946090e-02
294           	-2.559818e-02	1.520946e+00	-1.287444e-01	-8.997038e-02	-3.877403e-02
295           	-2.575234e-02	1.519857e+00	-1.276339e-01	-8.956927e-02	-3.806458e-02
296           	-2.589888e-02	1.518793e+00	-1.264698e-01	-8.913379e-02	-3.733602e-02
297           	-2.603794e-02	1.517742e+00	-1.252564e-01	-8.866615e-02	-3.659028e-02
298           	-2.617053e-02	1.516676e+00	-1.239999e-01	-8.817050e-02	-3.582944e-02
299           	-2.629729e-02	1.515631e+00	-1.227106e-01	-8.765261e-02	-3.505803e-02
300           	-2.641694e-02	1.514652e+00	-1.214108e-01	-8.712236e-02	-3.428848e-02
301           	-2.652685e-02	1.513680e+00	-1.201267e-01	-8.659021e-02	-3.353650e-02
302           	-2.662957e-02	1.512728e+00	-1.188250e-01	-8.604209e-02	-3.278295e-02
303           	-2.672411e-02	1.511838e+00	-1.174931e-01	-8.547068e-02	-3.202245e-02
304           	-2.680813e-02	1.511014e+00	-1.161797e-01	-8.489800e-02	-3.128174e-02
305           	-2.688826e-02	1.510265e+00	-1.148767e-01	-8.432663e-02	-3.055010e-02
306           	-2.695691e-02	1.509601e+00	-1.135865e-01	-8.375015e-02	-2.983633e-02
307           	-2.701543e-02	1.508995e+00	-1.123283e-01	-8.317956e-02	-2.914870e-02
308           	-2.706741e-02	1.508422e+00	-1.111195e-01	-8.262714e-02	-2.849231e-02
309           	-2.710747e-02	1.507861e+00	-1.099489e-01	-8.208191e-02	-2.786697e-02
310           	-2.714004e-02	1.507314e+00	-1.088089e-01	-8.154449e-02	-2.726441e-02
311           	-2.715665e-02	1.506721e+00	-1.077453e-01	-8.102928e-02	-2.671598e-02
312           	-2.716720e-02	1.506159e+00	-1.067256e-01	-8.053000e-02	-2.619559e-02
313           	-2.716751e-02	1.505596e+00	-1.057841e-01	-8.005955e-02	-2.572452e-02
314           	-2.716073e-02	1.505077e+00	-1.049226e-01	-7.962202e-02	-2.530057e-02
315           	-2.714324e-02	1.504612e+00	-1.041549e-01	-7.922069e-02	-2.493421e-02
316           	-2.711667e-02	1.504218e+00	-1.035163e-01	-7.887481e-02	-2.464148e-02
317           	-2.708489e-02	1.503913e+00	-1.029727e-01	-7.857123e-02	-2.440144e-02
318           	-2.704055e-02	1.503671e+00	-1.025503e-01	-7.831569e-02	-2.423459e-02
319           	-2.699196e-02	1.503469e+00	-1.022126e-01	-7.809826e-02	-2.411434e-02
320           	-2.693526e-02	1.503301e+00	-1.019977e-01	-7.793413e-02	-2.406361e-02
321           	-2.687673e-02	1.503197e+00	-1.018762e-01	-7.781484e-02	-2.406139e-02
322           	-2.682263e-02	1.503186e+00	-1.018390e-01	-7.774215e-02	-2.409689e-02
323           	-2.676177e-02	1.503263e+00	-1.019248e-01	-7.772416e-02	-2.420062e-02
324           	-2.669954e-02	1.503415e+00	-1.021219e-01	-7.776049e-02	-2.436141e-02
325           	-2.663310e-02	1.503628e+00	-1.024370e-01	-7.785163e-02	-2.458542e-02
326           	-2.656987e-02	1.503920e+00	-1.028913e-01	-7.801549e-02	-2.487576e-02
327           	-2.651501e-02	1.504257e+00	-1.034650e-01	-7.824753e-02	-2.521750e-02
328           	-2.645963e-02	1.504627e+00	-1.041688e-01	-7.854401e-02	-2.562475e-02
329           	-2.641281e-02	1.505047e+00	-1.049728e-01	-7.889923e-02	-2.607361e-02
330           	-2.636722e-02	1.505508e+00	-1.058945e-01	-7.931446e-02	-2.658002e-02
331           	-2.633339e-02	1.506027e+00	-1.068906e-01	-7.977871e-02	-2.711193e-02
332           	-2.630239e-02	1.506563e+00	-1.079759e-01	-8.029035e-02	-2.768557e-02
333           	-2.627776e-02	1.507122e+00	-1.091527e-01	-8.085413e-02	-2.829861e-02
334           	-2.625797e-02	1.507716e+00	-1.104261e-01	-8.147103e-02	-2.895510e-02
335           	-2.624813e-02	1.508324e+00	-1.117781e-01	-8.213717e-02	-2.964092e-02
336           	-2.624958e-02	1.508970e+00	-1.131871e-01	-8.284315e-02	-3.034399e-02
337           	-2.625683e-02	1.509628e+00	-1.146632e-01	-8.358842e-02	-3.107477e-02
338           	-2.627299e-02	1.510332e+00	-1.162011e-01	-8.437355e-02	-3.182758e-02
339           	-2.629942e-02	1.511101e+00	-1.177715e-01	-8.518519e-02	-3.258635e-02
340           	-2.633990e-02	1.511898e+00	-1.193524e-01	-8.601609e-02	-3.333629e-02
341           	-2.639187e-02	1.512738e+00	-1.209482e-01	-8.686595e-02	-3.408221e-02
342           	-2.645384e-02	1.513604e+00	-1.225769e-01	-8.774227e-02	-3.483460e-02
343           	-2.652721e-02	1.514471e+00	-1.242432e-01	-8.864883e-02	-3.559440e-02
344           	-2.661239e-02	1.515343e+00	-1.259186e-01	-8.957168e-02	-3.634690e-02
345           	-2.671165e-02	1.516231e+00	-1.275663e-01	-9.049482e-02	-3.707151e-02
346           	-2.682688e-02	1.517153e+00	-1.291647e-01	-9.140924e-02	-3.775548e-02
347           	-2.695704e-02	1.518106e+00	-1.307069e-01	-9.231048e-02	-3.839640e-02
348           	-2.709957e-02	1.519069e+00	-1.321985e-01	-9.319884e-02	-3.899970e-02
349           	-2.725490e-02	1.520041e+00	-1.336325e-01	-9.407114e-02	-3.956134e-02
350           	-2.742264e-02	1.521018e+00	-1.350108e-01	-9.492801e-02	-4.008274e-02
351           	-2.760267e-02	1.521998e+00	-1.363210e-01	-9.576317e-02	-4.055784e-02
352           	-2.779333e-02	1.522998e+00	-1.375385e-01	-9.656259e-02	-4.097593e-02
353           	-2.799195e-02	1.524021e+00	-1.386514e-01	-9.731764e-02	-4.133374e-02
354           	-2.819634e-02	1.525043e+00	-1.396576e-01	-9.802515e-02	-4.163248e-02
355           	-2.840452e-02	1.526052e+00	-1.405615e-01	-9.868527e-02	-4.187624e-02