0 	0.000607394 	0 	0.222697
0.00184056 	0.000684944 	9.62774e-07 	0.222702
0.00368111 	0.000743696 	1.95997e-06 	0.222708
0.00558849 	0.0012377 	5.83694e-06 	0.222721
0.00749587 	0.00168159 	9.60929e-06 	0.222739
0.00947248 	0.00227051 	1.78433e-05 	0.222755
0.0114491 	0.00282375 	2.65007e-05 	0.222779
0.0134975 	0.00302616 	4.1244e-05 	0.222795
0.0155459 	0.0032385 	5.83605e-05 	0.22282
0.0176687 	0.00327338 	8.68192e-05 	0.222833
0.0197915 	0.00333132 	0.000121971 	0.222858
0.0219913 	0.00333652 	0.000177279 	0.22287
0.0241911 	0.00335694 	0.000243331 	0.222894
0.0264709 	0.00336463 	0.000332045 	0.222906
0.0287506 	0.00338229 	0.00043539 	0.222932
0.0311131 	0.0034016 	0.000559804 	0.222946
0.0334755 	0.00342539 	0.00070357 	0.222973
0.0345772 	0.00343622 	0.000777953 	0.22298
0.0356789 	0.00344705 	0.000852336 	0.222987
0.0370255 	0.0034603 	0.000943249 	0.222995
0.038372 	0.00347432 	0.00105727 	0.223016
0.0392283 	0.00348211 	0.00112719 	0.223022
0.0400846 	0.0034899 	0.00119711 	0.223028
0.0417654 	0.0035052 	0.00133436 	0.223039
0.0434463 	0.00351971 	0.0014984 	0.223062
0.0460756 	0.00353984 	0.00174741 	0.223081
0.0487048 	0.00355867 	0.00202688 	0.223111
0.0514296 	0.00357562 	0.00231665 	0.22313
0.0541543 	0.00359119 	0.00264056 	0.223161
0.056978 	0.00360529 	0.00296863 	0.223182
0.0598016 	0.00361809 	0.00333457 	0.223213
0.0627278 	0.00362975 	0.00369666 	0.223234
0.0656539 	0.00364027 	0.00410047 	0.223264
0.0686863 	0.00364987 	0.00448988 	0.223282
0.0717187 	0.00365851 	0.00492509 	0.223309
0.0748612 	0.00366648 	0.00527048 	0.223313
0.0780037 	0.00367361 	0.00569005 	0.223331
0.0812603 	0.00368048 	0.00586395 	0.223317
0.0845169 	0.00368655 	0.00614903 	0.223319
0.0878918 	0.00369274 	0.00619769 	0.223288
0.0912666 	0.00369814 	0.00631918 	0.223276
0.094764 	0.00370379 	0.00635305 	0.223237
0.0982613 	0.00370869 	0.00639286 	0.223216
0.101886 	0.00371383 	0.00642182 	0.223173
0.10551 	0.00371829 	0.00644728 	0.223146
0.109266 	0.00372292 	0.00647734 	0.223097
0.113022 	0.00372693 	0.00652068 	0.223063
0.114773 	0.0037288 	0.00653442 	0.223038
0.116525 	0.00373066 	0.00654816 	0.223014
0.118665 	0.00373294 	0.00656495 	0.222983
0.120806 	0.00373465 	0.00660343 	0.222967
0.121915 	0.00373566 	0.00661161 	0.22295
0.123025 	0.00373667 	0.0066198 	0.222933
0.125949 	0.00373933 	0.00664137 	0.222888
0.128874 	0.00374148 	0.00667937 	0.222858
0.133054 	0.0037447 	0.00670844 	0.222788
0.137234 	0.00374747 	0.00674764 	0.222734
0.141566 	0.00375027 	0.00677656 	0.222657
0.145897 	0.00375266 	0.0068159 	0.222596
0.147917 	0.00375374 	0.0068287 	0.222558
0.149938 	0.00375482 	0.0068415 	0.22252
0.152407 	0.00375615 	0.00685715 	0.222473
0.154876 	0.00375712 	0.00688509 	0.222442
0.155661 	0.00375747 	0.00688976 	0.222426
0.156446 	0.00375781 	0.00689443 	0.22241
0.160313 	0.00375951 	0.00691742 	0.222333
0.16418 	0.00376091 	0.00695311 	0.22227
0.169001 	0.00376263 	0.00698 	0.222166
0.173822 	0.0037641 	0.00701898 	0.222078
0.178818 	0.00376554 	0.00704508 	0.221964
0.183814 	0.00376677 	0.00708226 	0.221864
0.188992 	0.00376796 	0.00710756 	0.221739
0.194169 	0.00376897 	0.00714288 	0.221627
0.199535 	0.00376994 	0.00716738 	0.221489
0.2049 	0.00377077 	0.00720088 	0.221365
0.207402 	0.00377113 	0.00721153 	0.221297
0.209904 	0.00377148 	0.00722218 	0.221229
0.212962 	0.00377192 	0.0072352 	0.221146
0.21602 	0.00377224 	0.00725617 	0.221076
0.221782 	0.00377289 	0.00727898 	0.22091
0.227544 	0.00377344 	0.00730851 	0.220758
0.228216 	0.0037735 	0.00731097 	0.220737
0.228888 	0.00377356 	0.00731344 	0.220717
0.234187 	0.00377403 	0.00733287 	0.220556
0.239487 	0.00377443 	0.00735747 	0.220408
0.245675 	0.00377487 	0.0073784 	0.220209
0.251863 	0.00377526 	0.00740259 	0.220024
0.258276 	0.00377563 	0.00742258 	0.219808
0.264688 	0.00377597 	0.00744343 	0.219604
0.271334 	0.00377629 	0.00746268 	0.219368
0.27798 	0.0037766 	0.0074798 	0.219146
0.279529 	0.00377667 	0.007484 	0.219088
0.281079 	0.00377673 	0.00748819 	0.21903
0.286416 	0.00377696 	0.00750264 	0.218831
0.291753 	0.00377718 	0.00751182 	0.218646
0.29889 	0.00377746 	0.00752942 	0.218367
0.306027 	0.00377773 	0.00753902 	0.218102
0.310095 	0.00377788 	0.00754774 	0.217936
0.314163 	0.00377803 	0.00755646 	0.21777
0.317491 	0.00377815 	0.00756359 	0.217634
0.320819 	0.00377827 	0.00756054 	0.217512
0.328484 	0.00377853 	0.00757404 	0.217185
0.336148 	0.0037788 	0.00757578 	0.216873
0.344091 	0.00377907 	0.00758656 	0.216519
0.352034 	0.00377935 	0.00758443 	0.216181
0.360265 	0.00377963 	0.00759235 	0.215799
0.368496 	0.00377991 	0.0075859 	0.215434
0.370522 	0.00377998 	0.00758708 	0.215336
0.372548 	0.00378004 	0.00758825 	0.215238
0.379052 	0.00378027 	0.00759204 	0.214924
0.385557 	0.00378049 	0.00757911 	0.214627
0.394397 	0.00378079 	0.00758095 	0.214184
0.403236 	0.0037811 	0.0075635 	0.213758
0.403236 	0.0037811 	0.0075635 	0.213758
0.409877 	0.00378133 	0.00756262 	0.213413
0.416519 	0.00378156 	0.00756175 	0.213068
0.419038 	0.00378165 	0.00755408 	0.212943
0.421557 	0.00378173 	0.00754029 	0.212824
0.426482 	0.0037819 	0.00753845 	0.212559
0.431407 	0.00378207 	0.00753662 	0.212294
0.435975 	0.00378223 	0.00753491 	0.212048
0.440544 	0.00378238 	0.00751273 	0.211821
0.445832 	0.00378256 	0.0075103 	0.211526
0.45112 	0.00378273 	0.00750787 	0.211232
0.45567 	0.00378289 	0.00750578 	0.210978
0.46022 	0.00378303 	0.00748499 	0.210745
0.470415 	0.00378335 	0.00748103 	0.210158
0.48061 	0.00378366 	0.00746071 	0.209593
0.491175 	0.00378397 	0.00745845 	0.208965
0.501741 	0.00378427 	0.00744185 	0.20836
0.51269 	0.00378456 	0.00744186 	0.20769
0.523639 	0.00378484 	0.00742892 	0.207043
0.534986 	0.0037851 	0.0074313 	0.206327
0.546332 	0.00378536 	0.0074217 	0.205636
0.558091 	0.0037856 	0.00742637 	0.204873
0.569849 	0.00378584 	0.00741985 	0.204136
0.569849 	0.00378584 	0.00741985 	0.204136
0.582034 	0.00378606 	0.00742681 	0.203323
0.594219 	0.00378628 	0.00742333 	0.202537
0.606847 	0.00378648 	0.00743268 	0.201671
0.619475 	0.00378668 	0.00743241 	0.200835
0.632561 	0.00378685 	0.00744435 	0.199913
0.645647 	0.00378703 	0.00744747 	0.199023
0.659209 	0.00378718 	0.00746222 	0.198044
0.67277 	0.00378734 	0.00746892 	0.197098
0.686824 	0.00378746 	0.00748669 	0.196057
0.700877 	0.0037876 	0.0074971 	0.195053
0.715441 	0.00378769 	0.00751809 	0.193949
0.730005 	0.00378781 	0.00753233 	0.192883
0.733589 	0.00378782 	0.00753813 	0.192605
0.737174 	0.00378784 	0.00754392 	0.192327
0.748682 	0.00378789 	0.00756252 	0.191435
0.76019 	0.00378797 	0.00757493 	0.190583
0.768793 	0.00378799 	0.00759034 	0.189901
0.777395 	0.00378801 	0.00760575 	0.189219
0.784434 	0.00378803 	0.00761836 	0.188661
0.791472 	0.00378808 	0.00762527 	0.188147
0.807681 	0.00378809 	0.00765719 	0.186835
0.823889 	0.00378813 	0.00768385 	0.18557
0.840686 	0.00378812 	0.00771998 	0.184185
0.857483 	0.00378813 	0.00775124 	0.182848
0.87489 	0.00378809 	0.00779197 	0.181386
0.892297 	0.00378808 	0.00782817 	0.179975
0.910336 	0.003788 	0.00787392 	0.178435
0.928375 	0.00378797 	0.00791545 	0.176949
0.947069 	0.00378785 	0.00796672 	0.175328
0.965762 	0.00378779 	0.00801404 	0.173766
0.985136 	0.00378764 	0.00807139 	0.172063
1.00451 	0.00378755 	0.00812505 	0.170422
1.02459 	0.00378736 	0.0081891 	0.168638
1.04466 	0.00378724 	0.0082497 	0.166919
1.06547 	0.00378701 	0.00832116 	0.165052
1.08627 	0.00378685 	0.00838936 	0.163254
1.10783 	0.00378658 	0.00846902 	0.161306
1.12939 	0.00378638 	0.0085456 	0.159429
1.15173 	0.00378607 	0.00863435 	0.157402
1.17408 	0.00378584 	0.00872016 	0.155447
1.19723 	0.00378548 	0.00881897 	0.153343
1.22038 	0.0037852 	0.00891496 	0.151314
1.24438 	0.0037848 	0.00902492 	0.149137
1.26837 	0.00378448 	0.00913217 	0.147035
1.29324 	0.00378402 	0.00925444 	0.144789
1.3181 	0.00378366 	0.00937415 	0.14262
1.34387 	0.00378315 	0.00951008 	0.14031
1.36964 	0.00378274 	0.00964359 	0.138078
1.39635 	0.00378218 	0.00979467 	0.135712
1.42305 	0.00378173 	0.0099435 	0.133424
1.45073 	0.00378112 	0.0101113 	0.131009
1.4784 	0.00378061 	0.0102771 	0.128672
1.50708 	0.00377995 	0.0104633 	0.126218
1.53576 	0.00377939 	0.0106478 	0.123839
1.56548 	0.00377868 	0.0108541 	0.121356
1.5952 	0.00377808 	0.0110593 	0.118945
1.60829 	0.00377775 	0.0111566 	0.117882
1.63254 	0.00377715 	0.011337 	0.115911
1.65679 	0.00377666 	0.0115167 	0.11401
1.68871 	0.00377585 	0.0117736 	0.111499
1.72063 	0.00377515 	0.0120296 	0.109054
1.74668 	0.00377447 	0.0122566 	0.10708
1.77272 	0.00377379 	0.0124837 	0.105105
1.77975 	0.00377367 	0.0125448 	0.104603
1.78678 	0.00377354 	0.0126059 	0.104101
1.82106 	0.00377264 	0.0129265 	0.101609
1.85533 	0.00377186 	0.0132485 	0.0991734
1.89086 	0.00377091 	0.0136072 	0.0967093
1.92638 	0.0037701 	0.0139679 	0.0942955
1.95537 	0.00376934 	0.0142765 	0.0924036
1.98436 	0.00376858 	0.014585 	0.0905117
1.99218 	0.00376843 	0.0146701 	0.0900233
2 	0.00376829 	0.0147552 	0.0895349
