# wallShearStress  FACE_DATA 60650
# x  y  z  wallShearStress_x  wallShearStress_y  wallShearStress_z
8.75721 0 0.345731 0.000802353 -6.67885e-06 0.000426924
8.72516 0 0.336919 0.000659541 -6.8324e-06 0.000305579
8.69439 0 0.328456 0.000505428 -6.55719e-06 0.00018555
8.66483 0 0.320329 0.000345069 -6.20398e-06 6.97087e-05
8.63646 0 0.312526 0.000191683 -6.5346e-06 -3.63888e-05
8.6092 0 0.305031 6.04773e-05 -5.90742e-06 -0.000127838
8.58303 0 0.297833 -4.84243e-05 -4.21423e-06 -0.00020818
8.82531 0 0.430728 0.00110723 -8.71115e-06 0.000641521
8.79057 0 0.419435 0.000962722 -1.14441e-05 0.000524383
8.75721 0 0.408591 0.000816687 -1.14312e-05 0.000423392
8.72516 0 0.398176 0.000676266 -1.18316e-05 0.000325269
8.69439 0 0.388175 0.000534746 -1.03559e-05 0.000227658
8.66483 0 0.378571 0.000397745 -9.63867e-06 0.000129982
8.63646 0 0.369348 0.000265904 -9.13836e-06 3.15535e-05
8.6092 0 0.360491 0.000143482 -7.85246e-06 -6.44071e-05
8.58303 0 0.351985 3.73539e-05 -5.88383e-06 -0.000153456
8.5579 0 0.343817 -5.33113e-05 -2.79466e-06 -0.000232232
8.53376 0 0.335973 -0.000124843 -2.52693e-07 -0.000299571
8.51058 0 0.32844 -0.00017399 3.00801e-06 -0.000360043
8.9384 0 0.539403 0.00144724 -1.78561e-05 0.00104598
8.89917 0 0.52469 0.00131862 -1.69389e-05 0.00097616
8.8615 0 0.510562 0.00119674 -1.61753e-05 0.000898363
8.82531 0 0.496994 0.00110078 -1.43843e-05 0.000830048
8.79057 0 0.483964 0.000991205 -1.37697e-05 0.000753154
8.75721 0 0.471451 0.000873136 -1.25347e-05 0.000668857
8.72516 0 0.459434 0.00077594 -1.21947e-05 0.000587052
8.69439 0 0.447895 0.000678784 -1.12587e-05 0.000495978
8.66483 0 0.436813 0.000575983 -1.10429e-05 0.000391337
8.63646 0 0.426171 0.000466234 -1.09251e-05 0.000276515
8.6092 0 0.415951 0.000354515 -1.11522e-05 0.000156184
8.58303 0 0.406136 0.000244036 -1.09214e-05 3.537e-05
8.5579 0 0.396712 0.00013757 -1.08411e-05 -8.14045e-05
8.53376 0 0.387661 3.81022e-05 -7.94423e-06 -0.000193133
8.51058 0 0.378969 -4.76055e-05 -1.73786e-06 -0.000293437
8.48833 0 0.370622 -0.000110036 8.57915e-07 -0.000379966
8.46695 0 0.362605 -0.000147531 2.88907e-06 -0.000455143
8.9384 0 0.611323 0.00141619 -1.92725e-05 0.0014732
8.89917 0 0.594649 0.00133548 -1.66612e-05 0.00141746
8.8615 0 0.578636 0.00125887 -1.46554e-05 0.0013417
8.82531 0 0.563259 0.00119205 -1.46736e-05 0.00125056
8.79057 0 0.548492 0.00111712 -1.436e-05 0.00115633
8.75721 0 0.534311 0.00102353 -1.24508e-05 0.00104702
8.72516 0 0.520692 0.000927971 -1.25031e-05 0.000929203
8.69439 0 0.507614 0.000842126 -1.21983e-05 0.000814428
8.66483 0 0.495055 0.000750606 -1.27567e-05 0.000691812
8.63646 0 0.482994 0.000647712 -1.26136e-05 0.000559741
8.6092 0 0.471411 0.000538011 -1.29428e-05 0.000421311
8.58303 0 0.460288 0.000424748 -1.27621e-05 0.000279364
8.5579 0 0.449607 0.000310907 -1.207e-05 0.000137258
8.53376 0 0.439349 0.00019917 -1.12985e-05 -1.05481e-06
8.51058 0 0.429498 9.53426e-05 -1.04628e-05 -0.000132898
8.48833 0 0.420038 5.83232e-06 -6.37784e-06 -0.000254576
8.46695 0 0.410953 -6.36118e-05 -1.29323e-06 -0.000362588
8.44642 0 0.402229 -0.000107289 9.97865e-07 -0.000457158
8.42671 0 0.393851 -0.000127372 2.559e-06 -0.000539149
8.9384 0 0.683243 0.00146258 -1.63579e-05 0.00194842
8.89917 0 0.664607 0.00140012 -1.4103e-05 0.00185116
8.8615 0 0.646711 0.00134074 -1.42601e-05 0.00174257
8.82531 0 0.629525 0.00127496 -1.30624e-05 0.00163534
8.79057 0 0.613021 0.00120561 -1.37984e-05 0.00152264
8.75721 0 0.597171 0.00113809 -1.22541e-05 0.00140301
8.72516 0 0.58195 0.0010506 -1.16206e-05 0.00127352
8.69439 0 0.567333 0.000961627 -1.12534e-05 0.00113512
8.66483 0 0.553296 0.000882701 -1.14969e-05 0.0010025
8.63646 0 0.539816 0.000797983 -1.19168e-05 0.000863399
8.6092 0 0.526871 0.000702171 -1.23038e-05 0.000716116
8.58303 0 0.51444 0.000598269 -1.21495e-05 0.000562406
8.5579 0 0.502501 0.000488842 -1.27649e-05 0.000404241
8.53376 0 0.491037 0.000374987 -1.28261e-05 0.000244077
8.51058 0 0.480027 0.000260836 -1.19821e-05 8.58464e-05
8.48833 0 0.469454 0.00015201 -1.09616e-05 -6.55547e-05
8.46695 0 0.4593 5.46715e-05 -9.81552e-06 -0.000208202
8.44642 0 0.44955 -2.2737e-05 -3.61952e-06 -0.000337699
8.42671 0 0.440186 -7.48443e-05 1.18325e-07 -0.000453011
8.40778 0 0.431194 -9.63407e-05 2.11068e-06 -0.00055623
8.38959 0 0.422558 -9.58388e-05 3.05536e-06 -0.00064136
8.9384 0 0.755163 0.00150545 -1.46782e-05 0.00231511
8.89917 0 0.734566 0.00143196 -8.57218e-06 0.00221069
8.8615 0 0.714786 0.00137745 -1.0429e-05 0.00208641
8.82531 0 0.69579 0.00132216 -1.08107e-05 0.00196203
8.79057 0 0.677549 0.00127446 -1.08946e-05 0.00183623
8.75721 0 0.660031 0.00121545 -1.11662e-05 0.00171112
8.72516 0 0.643208 0.00115492 -1.12222e-05 0.00157993
8.69439 0 0.627053 0.00108245 -9.85159e-06 0.00144038
8.66483 0 0.611538 0.000996966 -9.93478e-06 0.00129331
8.63646 0 0.596639 0.000924169 -1.02245e-05 0.00114459
8.6092 0 0.582331 0.00084357 -1.10216e-05 0.000993945
8.58303 0 0.568591 0.000754215 -1.14181e-05 0.000838027
8.5579 0 0.555397 0.000656431 -1.17523e-05 0.000675233
8.53376 0 0.542725 0.000550377 -1.17541e-05 0.000507404
8.51058 0 0.530556 0.000438683 -1.28057e-05 0.000336403
8.48833 0 0.518871 0.000323721 -1.29035e-05 0.000165033
8.46695 0 0.507648 0.000211086 -1.18741e-05 -1.98953e-06
8.44642 0 0.496871 0.000107047 -1.06573e-05 -0.0001611
8.42671 0 0.486522 2.08866e-05 -6.60162e-06 -0.000308623
8.40778 0 0.476583 -3.89714e-05 -1.76908e-06 -0.000442979
8.38959 0 0.467038 -6.84763e-05 1.82343e-06 -0.000564435
8.9384 0 0.827083 0.0015189 -1.38181e-05 0.00257668
8.89917 0 0.804525 0.00145829 -5.64834e-06 0.00248419
8.8615 0 0.782861 0.00142402 -8.45484e-06 0.00235083
8.82531 0 0.762056 0.00137721 -7.40843e-06 0.00222682
8.79057 0 0.742077 0.00132406 -8.50037e-06 0.00209452
8.75721 0 0.722891 0.00126844 -9.12602e-06 0.00196438
8.72516 0 0.704466 0.00122256 -9.58606e-06 0.0018307
8.69439 0 0.686772 0.00116937 -9.63547e-06 0.0016995
8.66483 0 0.66978 0.0011112 -8.60769e-06 0.0015552
8.63646 0 0.653462 0.00103459 -8.97384e-06 0.0014076
8.6092 0 0.637792 0.000962816 -8.8876e-06 0.00124811
8.58303 0 0.622743 0.000887632 -9.6393e-06 0.00109236
8.5579 0 0.608291 0.000805617 -1.04342e-05 0.000931421
8.53376 0 0.594413 0.000712449 -1.0967e-05 0.000764327
8.51058 0 0.581085 0.000610821 -1.12586e-05 0.000591199
8.48833 0 0.568287 0.000502093 -1.19446e-05 0.000413359
8.46695 0 0.555995 0.000388427 -1.26601e-05 0.00023283
8.44642 0 0.544192 0.000273797 -1.22465e-05 5.4434e-05
8.42671 0 0.532857 0.000165532 -1.07186e-05 -0.000118106
8.40778 0 0.521972 7.22417e-05 -8.28452e-06 -0.000280626
8.38959 0 0.511518 3.17734e-06 -3.38777e-06 -0.000430637
8.9384 0 0.899004 0.00152894 -1.35448e-05 0.00273693
8.89917 0 0.874483 0.00147091 -3.06446e-06 0.00267161
8.8615 0 0.850935 0.0014456 -7.92321e-06 0.00253819
8.82531 0 0.828322 0.00140312 -5.86268e-06 0.00242462
8.79057 0 0.806606 0.00136675 -6.37461e-06 0.00229926
8.75721 0 0.785751 0.00132738 -6.18759e-06 0.0021735
8.72516 0 0.765724 0.00127901 -7.04427e-06 0.00204206
8.69439 0 0.746491 0.00123197 -7.74585e-06 0.00190936
8.66483 0 0.728022 0.00118 -9.34847e-06 0.00177254
8.63646 0 0.710285 0.00113808 -7.54297e-06 0.00163509
8.6092 0 0.693252 0.00107847 -8.3566e-06 0.00148545
8.58303 0 0.676895 0.000997162 -8.26186e-06 0.00132963
8.5579 0 0.661186 0.000929799 -8.77134e-06 0.0011684
8.53376 0 0.646101 0.000852405 -9.71389e-06 0.00100602
8.51058 0 0.631614 0.000766501 -1.04809e-05 0.000837931
8.48833 0 0.617703 0.00067031 -1.10867e-05 0.00066245
8.46695 0 0.604343 0.000565133 -1.13408e-05 0.000480842
8.44642 0 0.591513 0.000452997 -1.26947e-05 0.000294359
8.42671 0 0.579192 0.00033849 -1.30418e-05 0.000107552
8.40778 0 0.56736 0.000226893 -1.10956e-05 -7.56391e-05
8.38959 0 0.555998 0.000128484 -9.34647e-06 -0.000250592
8.37214 0 0.545086 5.18998e-05 -5.2564e-06 -0.000414587
8.9384 0 0.970925 0.00153108 -1.51211e-05 0.00282005
8.89917 0 0.944442 0.00147492 -2.15959e-07 0.00278953
8.8615 0 0.91901 0.00146183 -7.58671e-06 0.00265696
8.82531 0 0.894588 0.00142536 -4.18828e-06 0.00256001
8.79057 0 0.871135 0.00139762 -5.53138e-06 0.00243982
8.75721 0 0.848612 0.00136143 -4.92567e-06 0.0023252
8.72516 0 0.826982 0.00132675 -5.13864e-06 0.00220407
8.69439 0 0.806211 0.00128902 -5.14542e-06 0.002078
8.66483 0 0.786263 0.00124371 -5.93383e-06 0.00194999
8.63646 0 0.767108 0.00120226 -7.18579e-06 0.0018136
8.6092 0 0.748712 0.00115796 -7.4023e-06 0.00168384
8.58303 0 0.731046 0.00111149 -7.35178e-06 0.00153877
8.5579 0 0.714081 0.00104458 -6.9813e-06 0.00138941
8.53376 0 0.697789 0.000972546 -7.54027e-06 0.00122776
8.51058 0 0.682144 0.000902107 -8.40324e-06 0.00106485
8.48833 0 0.667119 0.000823041 -9.42929e-06 0.00089739
8.46695 0 0.65269 0.000733228 -1.02265e-05 0.000723587
8.44642 0 0.638834 0.000634091 -1.07902e-05 0.000541702
8.42671 0 0.625528 0.000526613 -1.2089e-05 0.000352853
8.40778 0 0.612749 0.00041377 -1.31567e-05 0.00016089
8.38959 0 0.600478 0.000301766 -1.23587e-05 -2.98093e-05
8.37214 0 0.588693 0.000199467 -1.00037e-05 -0.000214269
8.97926 0 1.07246 0.0014234 1.24349e-05 0.00303328
8.9384 0 1.04284 0.00152592 -1.49217e-05 0.00282371
8.89917 0 1.0144 0.00147188 2.21985e-06 0.0028333
8.8615 0 0.987085 0.00146984 -7.69553e-06 0.00270842
8.82531 0 0.960854 0.00143911 -2.777e-06 0.002633
8.79057 0 0.935663 0.00141723 -5.68284e-06 0.00252327
8.75721 0 0.911471 0.00138589 -3.86295e-06 0.00242514
8.72516 0 0.88824 0.00135894 -4.71781e-06 0.002316
8.69439 0 0.86593 0.00132745 -4.77116e-06 0.00220422
8.66483 0 0.844505 0.00129528 -4.60103e-06 0.00208835
8.63646 0 0.823931 0.00125638 -5.16131e-06 0.00196561
8.6092 0 0.804172 0.00121453 -6.33004e-06 0.00183989
8.58303 0 0.785198 0.00117185 -7.50707e-06 0.0017093
8.5579 0 0.766976 0.00113331 -7.54125e-06 0.00157604
8.53376 0 0.749477 0.00108277 -7.66116e-06 0.00143058
8.51058 0 0.732673 0.00100987 -7.3412e-06 0.00127843
8.48833 0 0.716535 0.000943201 -8.1277e-06 0.00111276
8.46695 0 0.701038 0.000868943 -9.07997e-06 0.000948876
8.44642 0 0.686155 0.000788139 -1.00818e-05 0.000777915
8.42671 0 0.671863 0.000696422 -1.07822e-05 0.000598129
8.40778 0 0.658138 0.000594623 -1.19001e-05 0.000409659
8.38959 0 0.644957 0.000486626 -1.31784e-05 0.000215646
8.37214 0 0.6323 0.00037753 -1.32729e-05 2.03895e-05
8.97926 0 1.14643 0.00137992 1.34105e-05 0.00291488
8.9384 0 1.11476 0.00150023 -1.63998e-05 0.00273191
8.89917 0 1.08436 0.0014507 4.58988e-06 0.00279435
8.8615 0 1.05516 0.00146179 -7.78746e-06 0.00268471
8.82531 0 1.02712 0.00143698 -7.46945e-07 0.00263936
8.79057 0 1.00019 0.00142418 -4.65998e-06 0.00254966
8.75721 0 0.974331 0.0014004 -2.45403e-06 0.0024717
8.72516 0 0.949498 0.00138018 -3.43077e-06 0.00237848
8.69439 0 0.925649 0.00135376 -3.409e-06 0.00228398
8.66483 0 0.902747 0.001328 -3.33138e-06 0.00218347
8.63646 0 0.880753 0.00129874 -3.63746e-06 0.00207662
8.6092 0 0.859632 0.00126827 -3.59353e-06 0.00196237
8.58303 0 0.839349 0.00123177 -4.52833e-06 0.00184335
8.5579 0 0.819871 0.00119564 -6.02134e-06 0.00171867
8.53376 0 0.801165 0.00115529 -6.02896e-06 0.00159663
8.51058 0 0.783202 0.00111923 -7.10205e-06 0.0014602
8.48833 0 0.765951 0.00106152 -6.17295e-06 0.00131742
8.46695 0 0.749385 0.000984643 -6.6572e-06 0.00116211
8.44642 0 0.733476 0.000920839 -7.77963e-06 0.000997545
8.42671 0 0.718198 0.000847033 -9.10907e-06 0.000830666
8.40778 0 0.703526 0.000762415 -1.02545e-05 0.000655872
8.38959 0 0.689437 0.000667394 -1.10469e-05 0.000471756
8.37214 0 0.675907 0.0005662 -1.26168e-05 0.000279965
8.97926 0 1.22039 0.0013184 1.68385e-05 0.00269842
8.9384 0 1.18669 0.00145892 -1.80093e-05 0.00255562
8.89917 0 1.15432 0.00141588 6.47775e-06 0.00265784
8.8615 0 1.12324 0.0014391 -9.19753e-06 0.00258014
8.82531 0 1.09339 0.00142096 -1.09561e-06 0.00257341
8.79057 0 1.06472 0.00141482 -6.28078e-06 0.0025144
8.75721 0 1.03719 0.00139655 -3.81932e-06 0.00246265
8.72516 0 1.01076 0.00137922 -5.13755e-06 0.00239261
8.69439 0 0.985369 0.00135811 -4.7614e-06 0.00231945
8.66483 0 0.960988 0.00133875 -4.7161e-06 0.00223815
8.63646 0 0.937576 0.00131687 -4.75202e-06 0.00214954
8.6092 0 0.915092 0.00129356 -4.35971e-06 0.00205552
8.58303 0 0.893501 0.00126664 -4.26918e-06 0.00195428
8.5579 0 0.872766 0.00123376 -4.28318e-06 0.00184479
8.53376 0 0.852853 0.00119514 -5.85806e-06 0.00172745
8.51058 0 0.833731 0.0011599 -6.88715e-06 0.00160407
8.48833 0 0.815368 0.00112371 -7.3604e-06 0.00148125
8.46695 0 0.797732 0.00108755 -7.1925e-06 0.00134273
8.44642 0 0.780797 0.00102505 -6.96179e-06 0.00119819
8.42671 0 0.764534 0.000956132 -7.16731e-06 0.00103993
8.40778 0 0.748915 0.000891101 -8.30399e-06 0.000876345
8.38959 0 0.733917 0.000818007 -9.19495e-06 0.000707982
8.37214 0 0.719513 0.000736826 -9.79189e-06 0.000530234
8.97926 0 1.29435 0.00120834 1.76113e-05 0.00239681
8.9384 0 1.25861 0.00139125 -1.73725e-05 0.00229465
8.89917 0 1.22428 0.00137469 1.17573e-05 0.00242024
8.8615 0 1.19131 0.00141599 -4.25562e-06 0.00238455
8.82531 0 1.15965 0.00141733 5.112e-06 0.00241247
8.79057 0 1.12925 0.00142261 4.6493e-07 0.00238886
8.75721 0 1.10005 0.00141789 2.27254e-06 0.00236867
8.72516 0 1.07202 0.00140891 1.00871e-06 0.00232916
8.69439 0 1.04509 0.00139465 8.06054e-07 0.00228139
8.66483 0 1.01923 0.00137854 2.77438e-07 0.00222262
8.63646 0 0.994399 0.0013598 -4.61198e-07 0.00215563
8.6092 0 0.970553 0.0013401 -7.8334e-07 0.00208149
8.58303 0 0.947652 0.0013176 -1.89414e-06 0.00199882
8.5579 0 0.925661 0.00129269 -2.61661e-06 0.00190873
8.53376 0 0.904541 0.00126534 -3.47121e-06 0.00180993
8.51058 0 0.88426 0.00123121 -4.08327e-06 0.00170448
8.48833 0 0.864784 0.00119437 -5.82687e-06 0.00159419
8.46695 0 0.84608 0.00115067 -6.84529e-06 0.00148216
8.44642 0 0.828118 0.00111235 -7.09847e-06 0.00136483
8.42671 0 0.810869 0.00106787 -7.69582e-06 0.00122929
8.40778 0 0.794304 0.000996945 -7.75114e-06 0.00108506
8.38959 0 0.778397 0.000927792 -8.52593e-06 0.000930222
8.37214 0 0.76312 0.000859355 -1.0209e-05 0.000769678
8.97926 0 1.36832 0.00111421 1.36799e-05 0.00200867
8.9384 0 1.33053 0.00126383 -2.65245e-05 0.00202609
8.89917 0 1.29423 0.00123519 -4.73237e-07 0.00217061
8.8615 0 1.25938 0.00126734 -1.66189e-05 0.00221504
8.82531 0 1.22592 0.00126777 -9.25882e-06 0.00227004
8.79057 0 1.19378 0.00127487 -1.13257e-05 0.00229114
8.75721 0 1.16291 0.00127779 -9.41593e-06 0.00229718
8.72516 0 1.13327 0.00127846 -9.11365e-06 0.0022836
8.69439 0 1.10481 0.00127646 -8.10697e-06 0.00225569
8.66484 0 1.07747 0.00127361 -6.97369e-06 0.00221576
8.63646 0 1.05122 0.00126762 -6.19127e-06 0.00216558
8.6092 0 1.02601 0.00126009 -4.92728e-06 0.00210755
8.58303 0 1.0018 0.00125137 -4.33982e-06 0.00204279
8.5579 0 0.978555 0.0012419 -3.31557e-06 0.00197087
8.53376 0 0.956229 0.0012299 -2.79129e-06 0.00189103
8.51058 0 0.934789 0.00121283 -1.98118e-06 0.00180293
8.48833 0 0.9142 0.00118897 -2.50838e-06 0.00170486
8.46695 0 0.894427 0.00116079 -3.24424e-06 0.00159798
8.44642 0 0.875439 0.00114046 -4.64465e-06 0.00148224
8.42671 0 0.857205 0.00111361 -4.93236e-06 0.00136877
8.40778 0 0.839693 0.00108331 -4.38162e-06 0.00124518
8.38959 0 0.822877 0.00103874 -3.19317e-06 0.00111258
8.37214 0 0.806727 0.000980127 -3.18827e-06 0.000969135
8.97926 0 1.44228 0.00104357 3.03966e-05 0.00136185
8.9384 0 1.40245 0.00126562 -5.12801e-06 0.00148881
8.89917 0 1.36419 0.0013696 1.00999e-05 0.0016644
8.8615 0 1.32746 0.00144401 2.21182e-06 0.00180641
8.82531 0 1.29218 0.00148026 3.54365e-06 0.00191173
8.79057 0 1.2583 0.00149601 3.53502e-06 0.00198833
8.75721 0 1.22577 0.00150071 2.63268e-06 0.00203901
8.72516 0 1.19453 0.00149395 1.48738e-06 0.00206713
8.69439 0 1.16453 0.00147875 2.54967e-07 0.00207602
8.66483 0 1.13571 0.00145947 -9.41154e-07 0.00207037
8.63646 0 1.10804 0.00143806 -2.72825e-06 0.00205242
8.6092 0 1.08147 0.00141475 -4.00702e-06 0.0020214
8.58303 0 1.05595 0.00138937 -5.51618e-06 0.00197975
8.5579 0 1.03145 0.00136338 -6.39056e-06 0.00192948
8.53376 0 1.00792 0.00133678 -7.71719e-06 0.00187129
8.51058 0 0.985317 0.00130975 -8.45461e-06 0.0018052
8.48833 0 0.963616 0.00128154 -9.61888e-06 0.00173025
8.46695 0 0.942775 0.00124804 -1.0125e-05 0.00164668
8.44642 0 0.92276 0.00120341 -1.10217e-05 0.00155592
8.42671 0 0.90354 0.00115537 -1.28335e-05 0.00146003
8.40778 0 0.885082 0.00110897 -1.43537e-05 0.00135709
8.38959 0 0.867357 0.00105698 -1.54938e-05 0.00124984
8.37214 0 0.850334 0.00100576 -1.75867e-05 0.0011321
7.66922 0 0.966948 5.66049e-05 -7.68698e-06 -0.000148402
7.67296 0 0.988324 2.96854e-05 -6.25567e-06 -0.000129221
7.67685 0 1.01058 -1.28455e-06 -5.79469e-06 -0.00013254
7.68091 0 1.03376 -5.89852e-05 -5.72336e-06 -0.000157218
7.68513 0 1.0579 -0.000157412 -7.38633e-06 -0.000196296
7.68953 0 1.08303 -0.000306569 -9.21758e-06 -0.000250891
7.69411 0 1.1092 -0.00050914 -1.07709e-05 -0.000314693
7.69888 0 1.13646 -0.000762013 -1.35329e-05 -0.000383654
7.70385 0 1.16483 -0.0010711 -1.50221e-05 -0.000453922
7.70902 0 1.19439 -0.00144733 -1.72756e-05 -0.000522793
7.7144 0 1.22516 -0.00189018 -1.96808e-05 -0.000587666
7.72001 0 1.25721 -0.00239951 -2.17513e-05 -0.000646121
7.72585 0 1.29057 -0.00294846 -2.30035e-05 -0.00069543
7.73193 0 1.32531 -0.00351062 -2.2367e-05 -0.000749836
7.70425 0 0.907776 0.000378117 -8.46567e-06 -0.000265993
7.70851 0 0.926707 0.000277893 -6.96068e-06 -0.000188586
7.71295 0 0.946421 0.000231749 -6.61134e-06 -0.00014079
7.71757 0 0.966948 0.00021146 -6.63767e-06 -0.000104457
7.72238 0 0.988324 0.000197178 -7.03762e-06 -7.14287e-05
7.72738 0 1.01058 0.000182025 -7.13175e-06 -4.02519e-05
7.7326 0 1.03376 0.000165425 -7.07498e-06 -1.31592e-05
7.73803 0 1.0579 0.000143333 -6.16419e-06 -6.54924e-06
7.74368 0 1.08303 8.2459e-05 -6.50989e-06 -3.2881e-05
7.74957 0 1.1092 -4.53459e-05 -9.72632e-06 -7.70046e-05
7.7557 0 1.13646 -0.000235001 -1.01052e-05 -0.00013428
7.76209 0 1.16484 -0.0004813 -1.07036e-05 -0.000207915
7.76874 0 1.19439 -0.000780985 -1.49373e-05 -0.000279032
7.77566 0 1.22516 -0.00114292 -1.6508e-05 -0.000346669
7.78287 0 1.25721 -0.00157931 -1.88104e-05 -0.000417673
7.79038 0 1.29057 -0.00208644 -2.08506e-05 -0.000480759
7.7982 0 1.32531 -0.00263436 -2.25321e-05 -0.000524441
7.73984 0 0.872138 0.000731987 -8.08861e-06 -0.000352404
7.74464 0 0.889597 0.000569807 -8.19946e-06 -0.000292951
7.74964 0 0.907777 0.000435905 -6.65994e-06 -0.00021726
7.75484 0 0.926707 0.000371723 -6.40708e-06 -0.000163147
7.76026 0 0.94642 0.000352155 -6.93162e-06 -0.000117631
7.76591 0 0.966948 0.000349041 -7.41976e-06 -6.71805e-05
7.77179 0 0.988324 0.000348603 -6.97873e-06 -1.43581e-05
7.77791 0 1.01058 0.000347884 -7.14154e-06 3.25244e-05
7.78428 0 1.03376 0.000343081 -7.50447e-06 7.10588e-05
7.79092 0 1.0579 0.000333534 -6.53916e-06 9.69587e-05
7.79783 0 1.08303 0.000311305 -5.36138e-06 0.000112769
7.80503 0 1.1092 0.000273738 -4.94018e-06 0.000114034
7.81252 0 1.13646 0.00018736 -6.69705e-06 8.18307e-05
7.82033 0 1.16483 1.61753e-05 -1.06994e-05 1.81227e-05
7.82845 0 1.19439 -0.000217519 -1.21469e-05 -5.19772e-05
7.83692 0 1.22516 -0.000506788 -1.22018e-05 -0.000125624
7.84573 0 1.25721 -0.000861977 -1.60111e-05 -0.000191015
7.85491 0 1.29057 -0.00129604 -1.78307e-05 -0.000253028
7.86446 0 1.32531 -0.00180789 -2.06636e-05 -0.000308645
7.87441 0 1.3615 -0.00235652 -2.13874e-05 -0.000366074
7.778 0 0.855372 0.000928431 -5.15721e-06 -0.00035114
7.78345 0 0.872138 0.000764969 -7.03005e-06 -0.000329297
7.78912 0 0.889597 0.000590998 -6.34791e-06 -0.000261393
7.79503 0 0.907776 0.000495268 -6.0078e-06 -0.000196934
7.80118 0 0.926708 0.000465322 -7.12871e-06 -0.0001394
7.80759 0 0.94642 0.00046617 -7.87466e-06 -7.45021e-05
7.81425 0 0.966948 0.000474719 -8.13259e-06 -6.7225e-06
7.82121 0 0.988324 0.000485401 -7.85378e-06 5.85157e-05
7.82844 0 1.01058 0.000496536 -6.62617e-06 0.000116699
7.83597 0 1.03376 0.000502231 -5.79077e-06 0.000167419
7.84382 0 1.0579 0.000499562 -4.18683e-06 0.000194322
7.85199 0 1.08303 0.000487647 -3.74438e-06 0.00020215
7.86049 0 1.1092 0.000466859 -3.55449e-06 0.000213953
7.86935 0 1.13646 0.000430465 -4.67713e-06 0.000220663
7.87857 0 1.16484 0.000369484 -3.42422e-06 0.000202915
7.88818 0 1.19439 0.00024411 -6.31619e-06 0.000154885
7.89818 0 1.22516 2.73613e-05 -1.1244e-05 8.40036e-05
7.90859 0 1.25721 -0.000260237 -1.34209e-05 1.44746e-05
7.91943 0 1.29057 -0.000611482 -1.40743e-05 -6.9102e-05
7.93073 0 1.32531 -0.0010416 -1.72821e-05 -0.000126375
7.94249 0 1.3615 -0.00156069 -1.7315e-05 -0.000186459
7.81473 0 0.839271 0.00110571 -2.50494e-06 -0.000355395
7.82076 0 0.855372 0.000952872 -5.83066e-06 -0.000353986
7.82705 0 0.872138 0.000757901 -5.81667e-06 -0.000310908
7.8336 0 0.889597 0.00061854 -6.35858e-06 -0.000248742
7.84042 0 0.907777 0.000565302 -7.0276e-06 -0.00017743
7.84752 0 0.926707 0.000560246 -8.04769e-06 -0.000102915
7.85491 0 0.946421 0.000571109 -9.12335e-06 -1.91306e-05
7.8626 0 0.966948 0.000587474 -8.58391e-06 6.71821e-05
7.87062 0 0.988324 0.000606954 -7.53519e-06 0.000149263
7.87897 0 1.01058 0.000621738 -6.03488e-06 0.000214043
7.88766 0 1.03376 0.000628273 -4.40023e-06 0.000255528
7.89671 0 1.0579 0.000626199 -3.15712e-06 0.000284038
7.90614 0 1.08303 0.00062488 -2.6554e-06 0.000305642
7.91595 0 1.1092 0.000618845 -2.23214e-06 0.000316678
7.92617 0 1.13646 0.000600318 -2.23869e-06 0.000315087
7.93681 0 1.16483 0.000565054 -2.53513e-06 0.000306207
7.9479 0 1.19439 0.000510231 -3.95359e-06 0.000293003
7.95943 0 1.22516 0.000414715 -3.38487e-06 0.000255615
7.97145 0 1.25721 0.000231247 -8.06941e-06 0.000198491
7.98397 0 1.29057 -3.97452e-05 -1.17959e-05 0.00011651
7.99699 0 1.32531 -0.000380874 -1.54985e-05 6.41828e-05
8.01056 0 1.3615 -0.000820225 -1.48698e-05 -3.46331e-05
8.02469 0 1.39917 -0.00131483 -1.89324e-05 -6.31978e-05
7.85669 0 0.839271 0.00111756 -3.70294e-06 -0.000400859
7.86353 0 0.855372 0.000924952 -6.07308e-06 -0.000368041
7.87066 0 0.872138 0.000743399 -4.69872e-06 -0.000300461
7.87808 0 0.889596 0.000656973 -6.78232e-06 -0.000237053
7.88581 0 0.907777 0.000636681 -7.75326e-06 -0.000147669
7.89385 0 0.926708 0.000645731 -1.00926e-05 -5.22158e-05
7.90223 0 0.94642 0.000664511 -9.72081e-06 5.349e-05
7.91095 0 0.966948 0.000689525 -9.13822e-06 0.00015943
7.92003 0 0.988324 0.000710965 -6.84742e-06 0.000245562
7.9295 0 1.01058 0.000721759 -5.5405e-06 0.000304034
7.93935 0 1.03376 0.000728081 -3.54014e-06 0.000349941
7.94961 0 1.0579 0.000734724 -2.53076e-06 0.000389377
7.96029 0 1.08303 0.000738406 -2.26833e-06 0.000415041
7.97141 0 1.1092 0.00073645 -1.52185e-06 0.000422793
7.98299 0 1.13646 0.000727682 -1.35457e-06 0.000419628
7.99505 0 1.16484 0.000710419 -1.13727e-06 0.000406933
8.00761 0 1.19439 0.000678397 -1.92185e-06 0.000387292
8.02069 0 1.22516 0.000623699 -2.84454e-06 0.000363363
8.03431 0 1.25721 0.000540289 -5.40442e-06 0.000338885
8.04849 0 1.29057 0.000385796 -4.36404e-06 0.000277193
8.06326 0 1.32531 0.000137071 -1.18029e-05 0.000231179
8.07864 0 1.3615 -0.000219342 -1.05707e-05 0.000114186
8.09465 0 1.39917 -0.000600507 -1.88045e-05 9.91666e-05
7.89865 0 0.839271 0.00107165 -4.9715e-06 -0.000451338
7.9063 0 0.855372 0.000872938 -4.02081e-06 -0.000373071
7.91427 0 0.872138 0.000741491 -5.25503e-06 -0.000295059
7.92256 0 0.889597 0.000700431 -7.50911e-06 -0.000207129
7.93119 0 0.907776 0.000701775 -1.07872e-05 -9.73125e-05
7.94019 0 0.926708 0.000720505 -1.08534e-05 2.31838e-05
7.94955 0 0.94642 0.000747091 -1.03876e-05 0.000150712
7.9593 0 0.966948 0.000775112 -7.92113e-06 0.000261296
7.96945 0 0.988324 0.000792669 -5.90819e-06 0.000340706
7.98003 0 1.01058 0.000801757 -4.63365e-06 0.000403656
7.99104 0 1.03376 0.00081411 -2.77896e-06 0.000461637
8.0025 0 1.0579 0.000823826 -2.22135e-06 0.000505366
8.01444 0 1.08303 0.000828634 -1.56891e-06 0.000529388
8.02687 0 1.1092 0.000829658 -8.88833e-07 0.000537084
8.03981 0 1.13646 0.000826587 -7.04945e-07 0.000533738
8.05329 0 1.16483 0.000817514 -2.9762e-07 0.000519068
8.06733 0 1.19439 0.000799941 -6.59698e-07 0.000495524
8.08195 0 1.22516 0.000769385 -8.38246e-07 0.000462996
8.09717 0 1.25721 0.000718443 -2.83558e-06 0.000427857
8.11302 0 1.29057 0.000634849 -3.25046e-06 0.000384741
8.12952 0 1.32531 0.000507772 -8.55587e-06 0.000353311
8.14671 0 1.3615 0.000264744 -3.22991e-06 0.000244514
8.16461 0 1.39917 -2.67804e-05 -1.99938e-05 0.0002637
8.18324 0 1.4384 -0.000608246 -9.18535e-06 0.000118687
7.94062 0 0.839271 0.000985819 -4.64182e-06 -0.000471354
7.94907 0 0.855372 0.000821719 -3.92716e-06 -0.000372736
7.95787 0 0.872138 0.000750751 -8.16189e-06 -0.000276999
7.96704 0 0.889597 0.000743779 -1.0211e-05 -0.000155755
7.97658 0 0.907777 0.000761257 -1.20963e-05 -2.2639e-05
7.98652 0 0.926707 0.000789751 -1.18607e-05 0.000121595
7.99687 0 0.946421 0.000823781 -9.98512e-06 0.000256328
8.00765 0 0.966948 0.000847217 -7.676e-06 0.000361966
8.01887 0 0.988324 0.000863529 -5.51978e-06 0.000439225
8.03055 0 1.01058 0.000877467 -4.16166e-06 0.000514063
8.04273 0 1.03376 0.000893447 -3.08194e-06 0.000579816
8.0554 0 1.0579 0.000902593 -2.43223e-06 0.000621421
8.06859 0 1.08303 0.00090858 -1.81315e-06 0.000645202
8.08233 0 1.1092 0.000911556 -1.20187e-06 0.000655295
8.09664 0 1.13646 0.000911169 -1.02736e-06 0.000653467
8.11154 0 1.16484 0.000907002 -6.25235e-07 0.000639234
8.12705 0 1.19439 0.000896961 -7.27176e-07 0.000614088
8.14321 0 1.22516 0.000877812 -4.48537e-07 0.000578581
8.16003 0 1.25721 0.000846703 -1.45837e-06 0.000536027
8.17755 0 1.29057 0.000797647 -1.32121e-06 0.000485325
8.19579 0 1.32531 0.000719334 -5.47872e-06 0.000444504
8.21479 0 1.3615 0.000571809 -2.05305e-06 0.000377137
8.23457 0 1.39917 0.000365506 -1.66708e-05 0.000381733
8.25516 0 1.4384 -6.00149e-05 -3.53458e-06 0.000221592
8.27661 0 1.47926 -0.000209676 -2.73591e-05 0.000219026
7.99184 0 0.855371 0.000782312 -7.124e-06 -0.000341911
8.00148 0 0.872138 0.000766331 -9.04975e-06 -0.000209911
8.01152 0 0.889596 0.00078159 -1.23816e-05 -6.28963e-05
8.02197 0 0.907777 0.000810214 -1.19469e-05 9.55193e-05
8.03286 0 0.926708 0.000847435 -1.10312e-05 0.000254378
8.04419 0 0.94642 0.000880585 -7.63931e-06 0.000383401
8.05599 0 0.966948 0.000900479 -6.42442e-06 0.000479163
8.06829 0 0.988324 0.000917803 -3.96502e-06 0.000567227
8.08108 0 1.01058 0.000937128 -2.58739e-06 0.000650453
8.09441 0 1.03376 0.000950983 -2.28194e-06 0.00071372
8.10829 0 1.0579 0.000961268 -1.35074e-06 0.000752046
8.12274 0 1.08303 0.000968997 -8.42331e-07 0.000776755
8.13779 0 1.1092 0.000973776 -2.80097e-07 0.000787231
8.15346 0 1.13646 0.000975572 -3.2857e-07 0.000785341
8.16978 0 1.16483 0.000975202 4.82007e-08 0.000771025
8.18677 0 1.19439 0.000970378 -7.36084e-08 0.000744268
8.20447 0 1.22516 0.000959111 7.04355e-08 0.000706388
8.22289 0 1.25721 0.000939469 -6.71451e-07 0.00065832
8.24208 0 1.29057 0.000909621 -2.1684e-07 0.000600804
8.26206 0 1.32531 0.000864822 -2.46583e-06 0.000543004
8.28286 0 1.3615 0.000788423 -1.60636e-06 0.000474158
8.30453 0 1.39917 0.000679634 -1.04958e-05 0.000431691
8.32708 0 1.4384 0.000448019 4.76764e-06 0.000305555
8.35057 0 1.47926 0.000279201 -3.18082e-05 0.000337701
8.03461 0 0.855372 0.000775855 -9.1198e-06 -0.000277724
8.04508 0 0.872138 0.000792843 -1.39933e-05 -0.000119516
8.056 0 0.889597 0.000826304 -1.3849e-05 4.8217e-05
8.06736 0 0.907776 0.000866654 -1.33537e-05 0.000222346
8.07919 0 0.926707 0.00090953 -1.07049e-05 0.0003745
8.09151 0 0.946421 0.000938863 -8.1938e-06 0.000490903
8.10434 0 0.966948 0.000958953 -7.09977e-06 0.000587339
8.1177 0 0.988324 0.0009839 -4.59309e-06 0.000683642
8.13161 0 1.01058 0.00100463 -3.81115e-06 0.000768785
8.1461 0 1.03376 0.00101695 -3.5175e-06 0.000830071
8.16118 0 1.0579 0.00102809 -2.73097e-06 0.000869562
8.17689 0 1.08303 0.00103662 -2.27307e-06 0.000897052
8.19325 0 1.1092 0.00104254 -1.77163e-06 0.000910897
8.21028 0 1.13646 0.00104578 -1.72679e-06 0.000911719
8.22802 0 1.16484 0.00104689 -1.31803e-06 0.000900389
8.24649 0 1.19439 0.00104505 -1.26699e-06 0.000874821
8.26572 0 1.22516 0.00103907 -1.03197e-06 0.000837275
8.28575 0 1.25721 0.00102706 -1.46967e-06 0.000787175
8.30661 0 1.29057 0.00100874 -9.82364e-07 0.000725895
8.32832 0 1.32531 0.000983798 -2.4737e-06 0.000659028
8.35093 0 1.3615 0.000946111 -1.11194e-06 0.000582426
8.37448 0 1.39917 0.000882807 -6.0401e-06 0.000513528
8.399 0 1.4384 0.000747491 -1.19978e-06 0.000452058
8.42454 0 1.47926 0.000590524 -2.60304e-05 0.000461461
8.07738 0 0.855372 0.000781741 -1.2422e-05 -0.000131885
8.08869 0 0.872138 0.000818306 -1.22518e-05 5.25174e-05
8.10048 0 0.889597 0.00086075 -1.12645e-05 0.000237467
8.11275 0 0.907777 0.000906968 -9.56237e-06 0.000412605
8.12553 0 0.926708 0.000945817 -7.00043e-06 0.000553918
8.13883 0 0.94642 0.00097322 -4.11709e-06 0.000654822
8.15269 0 0.966948 0.000992071 -3.47932e-06 0.000762016
8.16712 0 0.988324 0.00101938 -1.58385e-06 0.000865513
8.18214 0 1.01058 0.00103782 -9.30397e-07 0.000939297
8.19779 0 1.03376 0.00105137 -4.00975e-07 0.000993145
8.21408 0 1.0579 0.00106328 3.01617e-07 0.00103297
8.23104 0 1.08303 0.00107272 6.49966e-07 0.00105902
8.24871 0 1.1092 0.00108019 1.06373e-06 0.00107172
8.26711 0 1.13646 0.001086 8.97144e-07 0.00107141
8.28626 0 1.16483 0.00109018 9.76961e-07 0.00105891
8.30621 0 1.19439 0.00109277 6.06578e-07 0.00103218
8.32698 0 1.22516 0.00109188 4.49977e-07 0.000993417
8.34861 0 1.25721 0.00108746 -8.09885e-08 0.000942812
8.37113 0 1.29057 0.00107856 -1.78431e-07 0.000882114
8.39459 0 1.32531 0.00106576 -1.41146e-06 0.000814787
8.41901 0 1.3615 0.00104405 -8.03315e-07 0.000739768
8.44444 0 1.39917 0.0010073 -4.00218e-06 0.000672578
8.47093 0 1.4384 0.000928615 -2.91563e-06 0.00063224
8.4985 0 1.47926 0.000815967 -9.29668e-06 0.000549453
8.12014 0 0.855372 0.000808749 -1.64388e-05 2.75534e-07
8.1323 0 0.872138 0.000860319 -1.52376e-05 0.000180939
8.14496 0 0.889596 0.000914166 -1.20571e-05 0.000363246
8.15814 0 0.907777 0.000962951 -1.21766e-05 0.000520115
8.17186 0 0.926708 0.000996632 -1.00923e-05 0.000644063
8.18616 0 0.94642 0.00102529 -7.29889e-06 0.000745844
8.20104 0 0.966948 0.00105782 -6.12527e-06 0.000854328
8.21654 0 0.988324 0.00108134 -5.49888e-06 0.000959479
8.23267 0 1.01058 0.00109907 -5.0501e-06 0.0010312