# wallShearStress  FACE_DATA 60650
# x  y  z  wallShearStress_x  wallShearStress_y  wallShearStress_z
8.7572 0 0.345731 0.000945826 -1.01518e-05 0.00101961
8.72516 0 0.336919 0.000816442 -1.0551e-05 0.000876201
8.69439 0 0.328456 0.000682645 -1.08166e-05 0.000731773
8.66483 0 0.32033 0.000546458 -1.07185e-05 0.000585545
8.63646 0 0.312525 0.000409521 -1.02325e-05 0.000437695
8.6092 0 0.305031 0.000274843 -9.46438e-06 0.000288958
8.58303 0 0.297834 0.000146174 -1.11645e-05 0.000142199
8.82532 0 0.430728 0.00132448 -8.14089e-06 0.00142877
8.79057 0 0.419435 0.00120439 -8.92766e-06 0.00128901
8.7572 0 0.408591 0.00107484 -8.82586e-06 0.0011464
8.72516 0 0.398176 0.000947255 -8.98768e-06 0.00100416
8.69439 0 0.388175 0.000820716 -9.44826e-06 0.000862072
8.66483 0 0.378571 0.000691893 -9.86636e-06 0.000717886
8.63646 0 0.369348 0.000558778 -1.01405e-05 0.000570459
8.6092 0 0.360491 0.000424417 -9.84306e-06 0.000419977
8.58303 0 0.351985 0.00029121 -9.13546e-06 0.000269205
8.5579 0 0.343817 0.000163081 -1.08035e-05 0.000120327
8.53376 0 0.335973 4.54983e-05 -1.0151e-05 -2.48731e-05
8.51058 0 0.32844 -5.55579e-05 -5.91971e-06 -0.000164982
8.93841 0 0.539402 0.00174004 -9.45154e-06 0.00186547
8.89917 0 0.52469 0.00162698 -5.14119e-06 0.00175374
8.8615 0 0.510561 0.00152148 -6.84072e-06 0.00162789
8.82532 0 0.496993 0.00141112 -6.87825e-06 0.00150185
8.79057 0 0.483964 0.00129825 -7.77954e-06 0.00137325
8.7572 0 0.471451 0.00118291 -7.67667e-06 0.00124048
8.72516 0 0.459434 0.00105961 -7.9028e-06 0.00110191
8.69439 0 0.447895 0.000935922 -8.09764e-06 0.000961086
8.66483 0 0.436813 0.000814206 -8.64279e-06 0.000822705
8.63646 0 0.426171 0.000691956 -9.20524e-06 0.000682725
8.6092 0 0.415951 0.000565309 -9.70283e-06 0.000537773
8.58303 0 0.406137 0.000434423 -9.48344e-06 0.000389133
8.5579 0 0.396712 0.000303433 -9.09462e-06 0.000238504
8.53376 0 0.387661 0.000177479 -1.04985e-05 8.92357e-05
8.51058 0 0.378969 6.1663e-05 -9.49643e-06 -5.67189e-05
8.48832 0 0.370622 -3.7731e-05 -6.47124e-06 -0.000198428
8.46695 0 0.362606 -0.00011212 -2.91469e-06 -0.000333349
8.93841 0 0.611323 0.00177314 -9.93147e-06 0.00185335
8.89917 0 0.594649 0.00166941 -3.21103e-06 0.00176899
8.8615 0 0.578636 0.00157942 -6.09464e-06 0.00165648
8.82532 0 0.563259 0.00147428 -5.6575e-06 0.00154255
8.79057 0 0.548492 0.00136918 -6.37113e-06 0.00142154
8.7572 0 0.534311 0.00126078 -7.20851e-06 0.00129931
8.72516 0 0.520692 0.00115363 -7.38038e-06 0.001172
8.69439 0 0.507614 0.00103825 -6.95631e-06 0.00104085
8.66483 0 0.495055 0.000917233 -7.29591e-06 0.000903845
8.63646 0 0.482994 0.000802243 -7.74456e-06 0.000770347
8.6092 0 0.471411 0.000687426 -8.41194e-06 0.000635218
8.58303 0 0.460288 0.000566713 -9.01458e-06 0.00049473
8.5579 0 0.449607 0.000440808 -8.99685e-06 0.000348424
8.53376 0 0.439349 0.00031326 -9.10922e-06 0.000199539
8.51058 0 0.429498 0.000190418 -1.01226e-05 5.13087e-05
8.48832 0 0.420038 7.70155e-05 -8.63735e-06 -9.41347e-05
8.46695 0 0.410953 -2.01754e-05 -6.42043e-06 -0.000236235
8.44642 0 0.402229 -9.25773e-05 -1.95192e-06 -0.000372932
8.42671 0 0.393851 -0.000129359 -1.49835e-07 -0.000510405
8.93841 0 0.683243 0.00176469 -1.16301e-05 0.00179051
8.89917 0 0.664607 0.00167684 -1.67097e-06 0.00173589
8.8615 0 0.646711 0.00160479 -5.77833e-06 0.00163829
8.82532 0 0.629525 0.00150898 -4.66709e-06 0.00154902
8.79057 0 0.61302 0.00141288 -5.83778e-06 0.00144247
8.7572 0 0.597171 0.00131086 -6.0355e-06 0.00133358
8.72516 0 0.58195 0.00121168 -7.13891e-06 0.00121736
8.69439 0 0.567333 0.00111555 -7.2909e-06 0.00110014
8.66483 0 0.553296 0.0010087 -6.86925e-06 0.00097564
8.63646 0 0.539816 0.000891973 -7.09411e-06 0.000844141
8.6092 0 0.526871 0.000783921 -7.41105e-06 0.000714414
8.58303 0 0.51444 0.000676362 -8.13724e-06 0.00058472
8.5579 0 0.502501 0.000562732 -8.77651e-06 0.000449148
8.53376 0 0.491037 0.00044168 -8.90211e-06 0.000306672
8.51058 0 0.480027 0.000318447 -9.42453e-06 0.000160078
8.48832 0 0.469454 0.000198676 -9.65968e-06 1.35612e-05
8.46695 0 0.459301 8.83849e-05 -8.30373e-06 -0.000131163
8.44642 0 0.44955 -6.18853e-06 -6.15237e-06 -0.00027334
8.42671 0 0.440186 -7.46723e-05 -1.42949e-06 -0.000412205
8.40778 0 0.431194 -0.000107189 -1.20247e-06 -0.00055328
8.3896 0 0.422558 -0.000102219 1.99448e-06 -0.000697189
8.93841 0 0.755163 0.00171938 -1.25082e-05 0.00169569
8.89917 0 0.734566 0.00164664 2.41962e-07 0.00166643
8.8615 0 0.714786 0.00158509 -7.60808e-06 0.00157799
8.82532 0 0.695791 0.00150363 -3.32692e-06 0.00151618
8.79057 0 0.677549 0.00143018 -5.63572e-06 0.00142804
8.7572 0 0.660031 0.00134203 -5.14417e-06 0.00133977
8.72516 0 0.643208 0.00125589 -5.89911e-06 0.00123956
8.69439 0 0.627053 0.00116363 -6.51274e-06 0.0011354
8.66483 0 0.611538 0.00107474 -6.67598e-06 0.00102888
8.63646 0 0.596639 0.000977852 -6.55574e-06 0.000909404
8.6092 0 0.582331 0.000868449 -6.31034e-06 0.000784491
8.58303 0 0.568591 0.000766298 -6.62473e-06 0.000657562
8.5579 0 0.555396 0.000667 -7.41419e-06 0.000532682
8.53376 0 0.542725 0.000561227 -8.15106e-06 0.000402351
8.51058 0 0.530556 0.000447169 -8.39547e-06 0.000263801
8.48832 0 0.51887 0.000328645 -9.46771e-06 0.000119718
8.46695 0 0.507648 0.000213007 -8.80511e-06 -2.50011e-05
8.44642 0 0.496871 0.000106168 -8.13043e-06 -0.000168458
8.42671 0 0.486521 1.54543e-05 -6.06234e-06 -0.000310199
8.40778 0 0.476583 -4.91568e-05 -1.14494e-06 -0.000450301
8.3896 0 0.467038 -7.75289e-05 -7.01693e-07 -0.000595637
8.93841 0 0.827084 0.00164172 -1.42828e-05 0.00159423
8.89917 0 0.804525 0.00158607 9.79861e-07 0.00159199
8.8615 0 0.782861 0.0015361 -8.80301e-06 0.00151459
8.82532 0 0.762056 0.00146575 -2.12962e-06 0.00147649
8.79057 0 0.742077 0.00140718 -6.23713e-06 0.00140159
8.7572 0 0.722891 0.00133042 -4.34159e-06 0.00133587
8.72516 0 0.704466 0.00125744 -5.95469e-06 0.00125144
8.69439 0 0.686772 0.0011753 -5.99172e-06 0.00116296
8.66483 0 0.66978 0.00109894 -7.20024e-06 0.00106488
8.63646 0 0.653462 0.00101948 -7.74571e-06 0.000964033
8.6092 0 0.637792 0.00093456 -7.72962e-06 0.000852954
8.58303 0 0.622743 0.000836636 -6.94482e-06 0.000737562
8.5579 0 0.608291 0.000738391 -7.27711e-06 0.000610939
8.53376 0 0.594413 0.000645352 -7.81632e-06 0.000490651
8.51058 0 0.581085 0.00054842 -8.55653e-06 0.000365401
8.48832 0 0.568286 0.000441191 -9.04739e-06 0.000230368
8.46695 0 0.555995 0.000327719 -1.02066e-05 8.84142e-05
8.44642 0 0.544192 0.000216074 -8.74885e-06 -5.53555e-05
8.42671 0 0.532857 0.000113509 -8.39058e-06 -0.000198921
8.40778 0 0.521971 2.79096e-05 -6.06186e-06 -0.000341007
8.3896 0 0.511518 -3.06114e-05 -2.09359e-06 -0.000482674
8.93841 0 0.899004 0.00153532 -1.63308e-05 0.0014902
8.89917 0 0.874483 0.00149539 2.37422e-06 0.00151653
8.8615 0 0.850936 0.00146265 -1.01715e-05 0.00144587
8.82532 0 0.828322 0.00140921 -4.92819e-07 0.00142438
8.79057 0 0.806606 0.00136505 -7.81674e-06 0.00135425
8.7572 0 0.785751 0.00130312 -3.47132e-06 0.00130303
8.72516 0 0.765724 0.00125211 -5.82374e-06 0.00123066
8.69439 0 0.746491 0.00118777 -4.70148e-06 0.00115972
8.66483 0 0.728022 0.00112539 -5.6137e-06 0.00107891
8.63646 0 0.710285 0.00105635 -5.81399e-06 0.000996413
8.6092 0 0.693252 0.000979225 -6.07072e-06 0.000906851
8.58303 0 0.676894 0.000913007 -6.06779e-06 0.00080566
8.5579 0 0.661186 0.000829386 -6.09382e-06 0.000693687
8.53376 0 0.646101 0.000728071 -5.99495e-06 0.000572236
8.51058 0 0.631614 0.00064488 -6.36113e-06 0.000454322
8.48832 0 0.617703 0.000557915 -7.29529e-06 0.000332621
8.46695 0 0.604343 0.000458687 -8.41319e-06 0.000201846
8.44642 0 0.591513 0.000351573 -9.63007e-06 6.29833e-05
8.42671 0 0.579192 0.000244339 -8.19271e-06 -7.94104e-05
8.40778 0 0.56736 0.000144642 -7.78845e-06 -0.000222506
8.3896 0 0.555998 6.13292e-05 -5.15307e-06 -0.000364399
8.37214 0 0.545086 5.08932e-06 -2.35428e-06 -0.000507626
8.93841 0 0.970924 0.00141478 -1.89809e-05 0.00141385
8.89917 0 0.944442 0.00138247 3.39782e-06 0.00146763
8.8615 0 0.91901 0.00136914 -1.27859e-05 0.00139964
8.82532 0 0.894588 0.00132544 3.15365e-07 0.00139637
8.79057 0 0.871134 0.00129175 -8.69299e-06 0.00133398
8.7572 0 0.848611 0.00123916 -2.17406e-06 0.00129655
8.72516 0 0.826982 0.00119523 -6.17505e-06 0.00123192
8.69439 0 0.806211 0.00113763 -4.04614e-06 0.00117412
8.66483 0 0.786263 0.00108284 -5.26161e-06 0.00110482
8.63646 0 0.767108 0.00102337 -5.51928e-06 0.00103127
8.6092 0 0.748712 0.000971548 -7.01851e-06 0.000949589
8.58303 0 0.731046 0.000915689 -8.15391e-06 0.000857489
8.5579 0 0.714081 0.000855599 -7.91033e-06 0.000769896
8.53376 0 0.697789 0.000783774 -7.74317e-06 0.000666415
8.51058 0 0.682144 0.00069334 -7.43104e-06 0.000551407
8.48832 0 0.667119 0.000615435 -7.53672e-06 0.000430823
8.46695 0 0.65269 0.000533869 -8.46088e-06 0.000312874
8.44642 0 0.638834 0.000444148 -9.52629e-06 0.000185859
8.42671 0 0.625528 0.000345568 -1.04313e-05 4.86361e-05
8.40778 0 0.612749 0.000244557 -9.02285e-06 -9.36591e-05
8.3896 0 0.600478 0.000150894 -7.29455e-06 -0.000237516
8.37214 0 0.588693 7.47007e-05 -4.93577e-06 -0.000379702
8.97926 0 1.07246 0.00114395 1.3235e-05 0.00141885
8.93841 0 1.04284 0.00127498 -2.0194e-05 0.00133272
8.89917 0 1.0144 0.00124858 4.61853e-06 0.00140372
8.8615 0 0.987085 0.00126494 -1.49709e-05 0.00133696
8.82532 0 0.960854 0.00123004 4.57557e-07 0.00134486
8.79057 0 0.935663 0.00121522 -1.0004e-05 0.00128787
8.7572 0 0.911471 0.00117852 -1.70882e-06 0.0012618
8.72516 0 0.88824 0.00115242 -6.88528e-06 0.00120534
8.69439 0 0.86593 0.0011119 -3.78328e-06 0.00115734
8.66483 0 0.844505 0.00107733 -5.02668e-06 0.00109753
8.63646 0 0.82393 0.00103637 -4.24866e-06 0.0010351
8.6092 0 0.804172 0.000996646 -4.71284e-06 0.000967886
8.58303 0 0.785198 0.000946631 -4.59494e-06 0.000900136
8.5579 0 0.766976 0.000888723 -4.7394e-06 0.000823985
8.53376 0 0.749477 0.000837844 -4.88554e-06 0.000742883
8.51058 0 0.732673 0.000789146 -5.9762e-06 0.000643931
8.48832 0 0.716535 0.000711083 -5.29608e-06 0.000535015
8.46695 0 0.701038 0.000629033 -5.272e-06 0.000416604
8.44642 0 0.686155 0.000558485 -6.34625e-06 0.000302714
8.42671 0 0.671863 0.000479716 -8.13239e-06 0.000179297
8.40778 0 0.658138 0.000386932 -9.36003e-06 4.598e-05
8.3896 0 0.644957 0.000288869 -8.4042e-06 -9.4434e-05
8.37214 0 0.6323 0.000196124 -6.88183e-06 -0.000237824
8.97926 0 1.14643 0.000967137 1.20302e-05 0.00135994
8.93841 0 1.11476 0.00113715 -2.22057e-05 0.00127708
8.89917 0 1.08436 0.0011025 6.83585e-06 0.00135776
8.8615 0 1.05516 0.00115011 -1.48285e-05 0.00130231
8.82532 0 1.02712 0.00112097 9.24629e-07 0.00131927
8.79057 0 1.00019 0.00111555 -1.01551e-05 0.00127496
8.7572 0 0.974332 0.00108369 -1.58421e-06 0.00125874
8.72516 0 0.949498 0.00106273 -6.4571e-06 0.00121436
8.69439 0 0.925649 0.00102712 -3.54392e-06 0.0011743
8.66483 0 0.902747 0.000996801 -5.29495e-06 0.00112379
8.63646 0 0.880753 0.000958778 -4.6886e-06 0.0010707
8.6092 0 0.859632 0.000920856 -4.89294e-06 0.00101212
8.58303 0 0.839349 0.000882076 -5.21559e-06 0.000948337
8.5579 0 0.819871 0.000850063 -6.56077e-06 0.000875647
8.53376 0 0.801165 0.00081405 -7.79915e-06 0.000795135
8.51058 0 0.783202 0.000771731 -8.36355e-06 0.000712722
8.48832 0 0.765951 0.000731955 -8.6222e-06 0.000624469
8.46695 0 0.749385 0.000664259 -8.19644e-06 0.000525465
8.44642 0 0.733476 0.000586654 -7.18802e-06 0.000413848
8.42671 0 0.718198 0.000527268 -8.28929e-06 0.000297447
8.40778 0 0.703527 0.000456358 -9.73863e-06 0.000178657
8.3896 0 0.689437 0.000376166 -1.0776e-05 4.95121e-05
8.37214 0 0.675907 0.000288731 -1.01517e-05 -8.91778e-05
8.97926 0 1.22039 0.000774087 8.66935e-06 0.00127013
8.93841 0 1.18669 0.000995671 -2.36718e-05 0.00119791
8.89917 0 1.15432 0.000950679 6.59569e-06 0.00128159
8.8615 0 1.12324 0.00102826 -1.44666e-05 0.00124734
8.82532 0 1.09339 0.00100612 1.09529e-06 0.00126804
8.79057 0 1.06472 0.00101657 -9.49227e-06 0.0012412
8.7572 0 1.03719 0.000997987 -1.84951e-06 0.00122946
8.72516 0 1.01076 0.000991662 -5.71186e-06 0.00119824
8.69439 0 0.985369 0.000971555 -3.15369e-06 0.00116447
8.66483 0 0.960989 0.00095516 -4.17186e-06 0.00112268
8.63646 0 0.937576 0.000935214 -4.00896e-06 0.00107588
8.6092 0 0.915092 0.000915794 -4.18166e-06 0.00102341
8.58303 0 0.893501 0.000894534 -4.03089e-06 0.00096602
8.5579 0 0.872766 0.000870126 -3.974e-06 0.000904648
8.53376 0 0.852853 0.000842294 -4.01967e-06 0.000842351
8.51058 0 0.833731 0.000808608 -3.60311e-06 0.000775597
8.48832 0 0.815367 0.000762827 -3.2709e-06 0.000703498
8.46695 0 0.797732 0.000728297 -3.57606e-06 0.000625703
8.44642 0 0.780797 0.000693567 -4.47577e-06 0.000527257
8.42671 0 0.764534 0.000625649 -4.39166e-06 0.000421082
8.40778 0 0.748916 0.000560988 -4.96742e-06 0.000306944
8.3896 0 0.733917 0.000503023 -6.5101e-06 0.000191446
8.37214 0 0.719514 0.000432958 -7.96764e-06 6.69765e-05
8.97926 0 1.29435 0.000576131 4.44677e-06 0.00119263
8.93841 0 1.25861 0.00085989 -2.22934e-05 0.00113817
8.89917 0 1.22428 0.000815165 5.11115e-06 0.00120338
8.8615 0 1.19131 0.000918023 -1.47037e-05 0.00118971
8.82532 0 1.15965 0.000909586 -1.79202e-06 0.00119955
8.79057 0 1.12925 0.000928218 -9.20541e-06 0.00119122
8.7572 0 1.10005 0.00092001 -4.26417e-06 0.0011811
8.72516 0 1.07201 0.000914836 -6.98181e-06 0.00116321
8.69439 0 1.04509 0.000899576 -5.55313e-06 0.00113848
8.66483 0 1.01923 0.000883937 -5.70501e-06 0.00110825
8.63646 0 0.994399 0.000864166 -5.25133e-06 0.00107288
8.6092 0 0.970552 0.000842993 -5.20707e-06 0.0010327
8.58303 0 0.947652 0.000820688 -5.25627e-06 0.000988576
8.5579 0 0.925661 0.000796858 -5.33851e-06 0.000939857
8.53376 0 0.904541 0.000770213 -5.38921e-06 0.000886839
8.51058 0 0.88426 0.00074465 -6.05713e-06 0.000828517
8.48832 0 0.864784 0.000723154 -7.50531e-06 0.000761196
8.46695 0 0.84608 0.000697154 -8.50673e-06 0.000684828
8.44642 0 0.828118 0.000663981 -9.19213e-06 0.000608333
8.42671 0 0.810869 0.000631036 -9.4249e-06 0.000523522
8.40778 0 0.794304 0.000575496 -8.78754e-06 0.000427375
8.3896 0 0.778397 0.000513233 -9.40769e-06 0.000317885
8.37214 0 0.763121 0.000460556 -1.03838e-05 0.000207099
8.97926 0 1.36832 0.000381417 7.61802e-06 0.00108741
8.93841 0 1.33053 0.000714531 -1.66747e-05 0.00113135
8.89917 0 1.29424 0.000659417 5.22234e-06 0.00117529
8.8615 0 1.25938 0.000756833 -1.06661e-05 0.00119919
8.82532 0 1.22592 0.000763473 -1.10369e-06 0.00120307
8.79057 0 1.19378 0.000782995 -4.24566e-06 0.00120655
8.7572 0 1.16291 0.000788609 -1.55606e-06 0.00119732
8.72516 0 1.13327 0.000790325 -2.99688e-06 0.00118617
8.69439 0 1.10481 0.000786621 -3.29856e-06 0.00116584
8.66483 0 1.07747 0.000779527 -3.30514e-06 0.00114072
8.63646 0 1.05122 0.000772154 -2.5126e-06 0.00110928
8.6092 0 1.02601 0.000763121 -1.8045e-06 0.00107235
8.58303 0 1.0018 0.000755284 -1.70047e-06 0.0010295
8.5579 0 0.978555 0.000747946 -1.92857e-06 0.000982472
8.53376 0 0.95623 0.00074109 -2.02337e-06 0.00092952
8.51058 0 0.934789 0.000734825 -2.06967e-06 0.00087191
8.48832 0 0.9142 0.000727353 -2.40179e-06 0.000811253
8.46695 0 0.894427 0.000717137 -2.57251e-06 0.000749235
8.44642 0 0.875439 0.000698212 -1.9767e-06 0.000683334
8.42671 0 0.857204 0.000669321 -1.21486e-06 0.000613557
8.40778 0 0.839693 0.000654019 -1.41143e-06 0.000536403
8.3896 0 0.822877 0.000627338 -1.35326e-06 0.000445359
8.37214 0 0.806727 0.000574655 -1.04698e-06 0.000346121
8.97926 0 1.44228 0.000148908 2.33855e-05 0.000843758
8.93841 0 1.40245 0.000572798 -1.55742e-05 0.000956839
8.89917 0 1.36419 0.000637249 -6.96125e-06 0.000994299
8.8615 0 1.32746 0.000744861 -1.49232e-05 0.00103155
8.82532 0 1.29218 0.000798198 -1.03832e-05 0.00103526
8.79057 0 1.25831 0.000826196 -1.00847e-05 0.00103784
8.7572 0 1.22577 0.00083657 -1.07645e-05 0.00103165
8.72516 0 1.19453 0.000837288 -1.13051e-05 0.0010253
8.69439 0 1.16453 0.000831446 -1.18024e-05 0.00101449
8.66483 0 1.13571 0.000820432 -1.15277e-05 0.00100122
8.63646 0 1.10804 0.000806685 -1.14363e-05 0.00098528
8.6092 0 1.08147 0.000791694 -1.13694e-05 0.000966104
8.58303 0 1.05596 0.000775396 -1.14046e-05 0.000942694
8.5579 0 1.03145 0.000758079 -1.1564e-05 0.000915373
8.53376 0 1.00792 0.000739914 -1.16786e-05 0.00088361
8.51058 0 0.985319 0.000719472 -1.19284e-05 0.00084725
8.48832 0 0.963616 0.000696731 -1.1895e-05 0.000806784
8.46695 0 0.942775 0.000671129 -1.18561e-05 0.000762162
8.44642 0 0.92276 0.000646485 -1.27098e-05 0.000711697
8.42671 0 0.90354 0.000624876 -1.41391e-05 0.0006515
8.40778 0 0.885082 0.000596387 -1.48637e-05 0.00058443
8.3896 0 0.867357 0.000555352 -1.50301e-05 0.000518387
8.37214 0 0.850334 0.000525288 -1.5706e-05 0.000445439
7.66922 0 0.966948 -0.000336073 2.80069e-05 1.01992e-05
7.67296 0 0.988324 -0.000525226 1.88166e-05 -0.000252411
7.67685 0 1.01058 -0.000751046 8.26045e-06 -0.000431766
7.68091 0 1.03376 -0.00100738 -9.54218e-07 -0.000532624
7.68513 0 1.0579 -0.00130127 -6.94496e-06 -0.000586661
7.68953 0 1.08303 -0.00162917 -9.81796e-06 -0.000627736
7.69411 0 1.1092 -0.00199543 -1.0247e-05 -0.0006847
7.69888 0 1.13646 -0.00236558 -1.075e-05 -0.000756425
7.70385 0 1.16483 -0.00273553 -1.09556e-05 -0.000834141
7.70902 0 1.19439 -0.00310726 -1.12673e-05 -0.000917855
7.7144 0 1.22516 -0.00348414 -1.11022e-05 -0.00100795
7.72001 0 1.2572 -0.00386281 -1.01392e-05 -0.00111014
7.72585 0 1.29057 -0.00423277 -8.37993e-06 -0.00123471
7.73193 0 1.32532 -0.00458308 -6.09773e-06 -0.00138002
7.70425 0 0.907776 0.000121543 -1.42004e-06 0.000745565
7.70851 0 0.926708 4.43597e-05 1.44116e-06 0.000590145
7.71294 0 0.946421 -8.9316e-05 3.68354e-06 0.000378495
7.71756 0 0.966948 -0.000251886 7.2584e-06 0.000167467
7.72237 0 0.988324 -0.000433844 6.33448e-06 -8.27807e-05
7.72738 0 1.01058 -0.000613161 -1.8785e-06 -0.000293528
7.7326 0 1.03376 -0.000782655 -9.386e-06 -0.000382518
7.73803 0 1.0579 -0.000967073 -1.17273e-05 -0.000411794
7.74368 0 1.08303 -0.00120653 -1.14547e-05 -0.000445597
7.74957 0 1.1092 -0.00149274 -1.18154e-05 -0.000491677
7.7557 0 1.13646 -0.00181977 -1.12413e-05 -0.000543485
7.76209 0 1.16483 -0.00216898 -1.07879e-05 -0.000612131
7.76874 0 1.19439 -0.00252381 -1.04131e-05 -0.000689538
7.77566 0 1.22516 -0.00288137 -1.03021e-05 -0.000770893
7.78287 0 1.2572 -0.00324312 -1.08035e-05 -0.000848795
7.79038 0 1.29057 -0.00361481 -1.00553e-05 -0.000934679
7.7982 0 1.32532 -0.00398082 -1.01074e-05 -0.00103096
7.73984 0 0.872138 0.000385225 -1.61541e-05 0.000509402
7.74464 0 0.889596 0.000477548 -9.33056e-06 0.000526621
7.74964 0 0.907776 0.000484552 -2.07782e-06 0.000444213
7.75484 0 0.926708 0.000399596 -3.08761e-07 0.000285965
7.76027 0 0.946421 0.000235813 -4.262e-06 0.000116641
7.76591 0 0.966948 3.73693e-05 -7.54688e-06 -1.24742e-05
7.77179 0 0.988324 -0.000164779 -7.56144e-06 -9.94566e-05
7.77791 0 1.01058 -0.000316109 -1.21698e-05 -0.000149487
7.78428 0 1.03376 -0.000442987 -1.20864e-05 -0.000145381
7.79092 0 1.0579 -0.000581131 -1.16632e-05 -0.000160808
7.79783 0 1.08303 -0.000769463 -9.82797e-06 -0.000203738
7.80503 0 1.1092 -0.000994159 -8.69918e-06 -0.00025206
7.81253 0 1.13646 -0.00127587 -8.71011e-06 -0.000320499
7.82033 0 1.16483 -0.00160057 -9.74259e-06 -0.00039904
7.82846 0 1.19439 -0.0019497 -9.92488e-06 -0.00047578
7.83692 0 1.22516 -0.00230542 -9.83724e-06 -0.000553958
7.84573 0 1.2572 -0.00265679 -1.03142e-05 -0.000624682
7.85491 0 1.29057 -0.00302149 -1.00612e-05 -0.000701174
7.86446 0 1.32532 -0.00338201 -1.10852e-05 -0.000762993
7.87441 0 1.3615 -0.00376675 -7.88637e-06 -0.000860882
7.778 0 0.855372 0.000460347 -1.65321e-05 0.000350682
7.78344 0 0.872138 0.000641972 -1.11757e-05 0.000397734
7.78912 0 0.889596 0.000743888 -1.24376e-07 0.000356456
7.79503 0 0.907776 0.000738895 6.36985e-06 0.000222448
7.80118 0 0.926708 0.000630508 1.84447e-06 5.29262e-05
7.80759 0 0.946421 0.000454644 -2.49741e-06 -6.41291e-05
7.81426 0 0.966948 0.000264927 -6.53169e-06 -9.2813e-05
7.82121 0 0.988324 9.96931e-05 -7.37966e-06 -6.58121e-05
7.82844 0 1.01058 -1.70726e-07 -5.9941e-06 -2.875e-05
7.83597 0 1.03376 -8.72914e-05 -6.52614e-06 3.203e-06
7.84382 0 1.0579 -0.000215562 -5.32891e-06 1.0693e-05
7.85199 0 1.08303 -0.000374746 -4.21943e-06 -1.71976e-05
7.86049 0 1.1092 -0.000577065 -3.28129e-06 -7.36628e-05
7.86935 0 1.13646 -0.000811865 -4.7067e-06 -0.000145387
7.87857 0 1.16483 -0.00108224 -7.38485e-06 -0.000222724
7.88818 0 1.19439 -0.00139251 -8.61367e-06 -0.000301095
7.89818 0 1.22516 -0.00173208 -9.7427e-06 -0.000377584
7.90859 0 1.2572 -0.0020762 -1.0965e-05 -0.000436441
7.91944 0 1.29057 -0.00243693 -1.0258e-05 -0.00050271
7.93073 0 1.32532 -0.00277998 -1.22682e-05 -0.000542415
7.94249 0 1.3615 -0.00317105 -8.83969e-06 -0.00062163
7.81473 0 0.839271 0.00051784 -1.70443e-05 0.000239176
7.82076 0 0.855372 0.000739701 -1.36649e-05 0.000285233
7.82705 0 0.872138 0.000897669 -1.27996e-06 0.000279732
7.8336 0 0.889596 0.000941393 8.9139e-06 0.00018572
7.84042 0 0.907776 0.000866214 9.15968e-06 3.39089e-05
7.84752 0 0.926708 0.000702074 4.22485e-06 -9.43497e-05
7.85491 0 0.946421 0.00050984 -3.38343e-06 -0.000136736
7.86261 0 0.966948 0.000318859 -4.56751e-06 -0.000100174
7.87062 0 0.988324 0.000159086 -4.25028e-06 -2.53789e-05
7.87897 0 1.01058 9.10119e-05 -5.89123e-06 3.22155e-05
7.88766 0 1.03376 6.18971e-05 -6.59714e-06 8.8087e-05
7.89671 0 1.0579 -1.01073e-06 -3.90951e-06 0.000126167
7.90614 0 1.08303 -0.000121414 -2.22802e-06 0.000123017
7.91595 0 1.1092 -0.000292417 -3.56406e-06 8.26038e-05
7.92617 0 1.13646 -0.000494467 -4.81434e-06 1.67436e-05
7.93681 0 1.16483 -0.000717873 -4.51484e-06 -6.05103e-05
7.94789 0 1.19439 -0.000964576 -5.87569e-06 -0.000133039
7.95943 0 1.22516 -0.00124302 -7.52023e-06 -0.0002042
7.97145 0 1.2572 -0.00154578 -9.32808e-06 -0.000261419
7.98396 0 1.29057 -0.00188395 -1.01457e-05 -0.000322859
7.99699 0 1.32532 -0.00220584 -1.24738e-05 -0.000345252
8.01056 0 1.3615 -0.00259688 -9.37918e-06 -0.000417373
8.02469 0 1.39917 -0.00291124 -1.49651e-05 -0.000408727
7.85669 0 0.839271 0.000833559 -1.49459e-05 0.000234972
7.86353 0 0.855372 0.00101559 -1.97665e-06 0.000230735
7.87066 0 0.872138 0.00108222 9.86584e-06 0.000126623
7.87808 0 0.889596 0.00102015 1.23032e-05 -2.89297e-05
7.8858 0 0.907776 0.000860963 7.13212e-06 -0.000167965
7.89385 0 0.926708 0.000662042 -1.94155e-06 -0.000218908
7.90223 0 0.946421 0.000456433 -3.34131e-06 -0.000185345
7.91095 0 0.966948 0.000267614 -3.33314e-06 -9.89842e-05
7.92004 0 0.988324 0.000168866 -4.13127e-06 -2.78655e-05
7.9295 0 1.01058 0.000148546 -6.18459e-06 3.37776e-05
7.93935 0 1.03376 0.000139716 -6.86267e-06 0.000115316
7.94961 0 1.0579 0.000107472 -5.56322e-06 0.000180265
7.96029 0 1.08303 4.6302e-05 -3.47038e-06 0.000211291
7.97141 0 1.1092 -6.20271e-05 -2.51356e-06 0.000203415
7.98299 0 1.13646 -0.000216981 -2.03901e-06 0.000159616
7.99505 0 1.16483 -0.000407104 -4.65228e-06 9.37791e-05
8.00761 0 1.19439 -0.000620215 -5.45419e-06 2.55909e-05
8.02069 0 1.22516 -0.000854407 -6.31473e-06 -4.06418e-05
8.03431 0 1.2572 -0.00111023 -7.35681e-06 -8.71041e-05
8.04849 0 1.29057 -0.00140886 -7.87039e-06 -0.000138784
8.06326 0 1.32532 -0.00170788 -1.09448e-05 -0.000153145
8.07864 0 1.3615 -0.00208156 -9.46781e-06 -0.000216499
8.09465 0 1.39917 -0.00236227 -1.56014e-05 -0.000182296
7.89865 0 0.839271 0.0011016 -3.28035e-07 0.000164667
7.9063 0 0.855372 0.00116445 8.61737e-06 5.319e-05
7.91427 0 0.872138 0.00110083 1.38352e-05 -0.000103735
7.92256 0 0.889596 0.000942507 7.71825e-06 -0.000243511
7.93119 0 0.907776 0.000742063 -8.8776e-07 -0.000301148
7.94019 0 0.926708 0.000532901 -2.91356e-06 -0.000265567
7.94955 0 0.946421 0.000333631 -1.68469e-06 -0.000168431
7.9593 0 0.966948 0.000208844 -1.82477e-06 -7.8782e-05
7.96945 0 0.988324 0.000177008 -5.70369e-06 -7.13422e-06
7.98003 0 1.01058 0.000186917 -6.03791e-06 8.42117e-05
7.99104 0 1.03376 0.000186148 -5.6397e-06 0.000170921
8.0025 0 1.0579 0.000170504 -4.95003e-06 0.00023393
8.01444 0 1.08303 0.000136044 -4.43148e-06 0.000270624
8.02687 0 1.1092 7.71858e-05 -3.56558e-06 0.00028182
8.03982 0 1.13646 -1.48501e-05 -3.33032e-06 0.000265484
8.0533 0 1.16483 -0.00014469 -3.0304e-06 0.000222632
8.06733 0 1.19439 -0.000310852 -4.24364e-06 0.000167614
8.08195 0 1.22516 -0.000510308 -5.14721e-06 0.000104089
8.09717 0 1.2572 -0.00073041 -7.6811e-06 5.78364e-05
8.11302 0 1.29057 -0.000988546 -8.14596e-06 7.03176e-06
8.12952 0 1.32532 -0.0012585 -9.94718e-06 9.98037e-07
8.14671 0 1.3615 -0.0016145 -8.60406e-06 -4.82963e-05
8.16461 0 1.39917 -0.00187455 -1.28645e-05 8.85547e-06
8.18324 0 1.43841 -0.00239294 -4.49386e-06 -0.000116368
7.94062 0 0.839271 0.00122374 9.56698e-06 -4.79652e-05
7.94907 0 0.855372 0.00114815 1.23343e-05 -0.000206994
7.95787 0 0.872138 0.000984781 6.85916e-06 -0.000341108
7.96704 0 0.889596 0.000788123 2.99721e-07 -0.000391717
7.97658 0 0.907776 0.000583674 -2.97808e-06 -0.000358141
7.98652 0 0.926708 0.000391309 -1.61235e-06 -0.000262385
7.99687 0 0.946421 0.000254517 -2.509e-06 -0.000154263
8.00765 0 0.966948 0.000211641 -6.33887e-06 -7.12674e-05
8.01887 0 0.988324 0.00022785 -7.96259e-06 3.17487e-05
8.03056 0 1.01058 0.000245979 -7.79655e-06 0.000126237
8.04272 0 1.03376 0.000252717 -6.13408e-06 0.000206246
8.0554 0 1.0579 0.000246854 -4.77916e-06 0.000268314
8.06859 0 1.08303 0.000227999 -4.09069e-06 0.000307412
8.08233 0 1.1092 0.000195833 -3.57444e-06 0.000328909
8.09664 0 1.13646 0.000143829 -2.85437e-06 0.00033316
8.11154 0 1.16483 6.53978e-05 -2.46701e-06 0.000318456
8.12705 0 1.19439 -4.59603e-05 -4.46304e-06 0.000287997
8.14321 0 1.22516 -0.000195979 -5.28752e-06 0.000240202
8.16003 0 1.2572 -0.000378462 -7.30794e-06 0.000200382
8.17755 0 1.29057 -0.000600225 -5.98379e-06 0.000150718
8.19579 0 1.32532 -0.000835095 -9.89014e-06 0.000148192
8.21479 0 1.3615 -0.00116227 -8.52261e-06 9.86859e-05
8.23457 0 1.39917 -0.00140767 -1.35906e-05 0.000162775
8.25516 0 1.43841 -0.00191508 -6.70735e-06 6.00613e-05
8.27661 0 1.47926 -0.00200953 -1.82018e-05 0.000185189
7.99184 0 0.855372 0.000986935 6.56289e-06 -0.000444223
8.00148 0 0.872138 0.000785715 1.00754e-06 -0.000470976
8.01152 0 0.889596 0.000587234 -1.29173e-06 -0.000421091
8.02197 0 0.907776 0.000397128 4.45831e-08 -0.000311319
8.03286 0 0.926708 0.000258979 -7.65961e-07 -0.000186188
8.04419 0 0.946421 0.000218788 -4.33493e-06 -8.8976e-05
8.056 0 0.966948 0.000238856 -6.6696e-06 2.61764e-05
8.06829 0 0.988324 0.000263127 -6.08926e-06 0.000135556
8.08109 0 1.01058 0.000274763 -4.47612e-06 0.000229926
8.09441 0 1.03376 0.000280104 -3.60281e-06 0.000298069
8.10829 0 1.0579 0.000274635 -2.58122e-06 0.000345366
8.12274 0 1.08303 0.000262275 -1.85942e-06 0.000374719
8.13779 0 1.1092 0.000242875 -1.37745e-06 0.000389629
8.15346 0 1.13646 0.000214739 -1.22602e-06 0.000392652
8.16978 0 1.16483 0.000172946 -1.41412e-06 0.000385988
8.18677 0 1.19439 0.000109715 -1.98472e-06 0.000373293
8.20447 0 1.22516 1.32932e-05 -3.55343e-06 0.000348136
8.22289 0 1.2572 -0.000120447 -5.09245e-06 0.000321147
8.24208 0 1.29057 -0.000300659 -6.05614e-06 0.000285109
8.26206 0 1.32532 -0.000506984 -8.07444e-06 0.000281887
8.28286 0 1.3615 -0.000787362 -7.10438e-06 0.00024243
8.30452 0 1.39917 -0.00101772 -1.22748e-05 0.000304764
8.32708 0 1.43841 -0.00148158 -6.11148e-06 0.000224534
8.35057 0 1.47926 -0.00155855 -1.81423e-05 0.000346397
8.03461 0 0.855372 0.000763744 -6.06062e-07 -0.00057148
8.04509 0 0.872138 0.000583751 -1.33892e-06 -0.000505193
8.056 0 0.889596 0.000405528 2.9774e-07 -0.000382572
8.06736 0 0.907776 0.000281554 -2.5455e-06 -0.000259463
8.07919 0 0.926708 0.00024243 -7.90067e-06 -0.000150121
8.09151 0 0.946421 0.000268831 -1.02936e-05 -3.00315e-05
8.10434 0 0.966948 0.000302557 -9.87293e-06 8.78576e-05
8.1177 0 0.988324 0.000326061 -8.44748e-06 0.00018791
8.13161 0 1.01058 0.000342624 -6.71347e-06 0.000268581
8.1461 0 1.03376 0.000350193 -5.38624e-06 0.000334764
8.16119 0 1.0579 0.000349896 -4.66743e-06 0.000379129
8.17689 0 1.08303 0.000344233 -4.19505e-06 0.000411492
8.19325 0 1.1092 0.000334152 -3.78218e-06 0.000432733
8.21028 0 1.13646 0.000318159 -3.43859e-06 0.000444763
8.22802 0 1.16483 0.000294569 -3.1649e-06 0.000448797
8.24649 0 1.19439 0.00025854 -3.20114e-06 0.000448411
8.26572 0 1.22516 0.000197902 -3.03147e-06 0.000440388
8.28575 0 1.2572 0.000105474 -4.48804e-06 0.000430662
8.30661 0 1.29057 -3.85851e-05 -5.52587e-06 0.000410776
8.32832 0 1.32532 -0.00021648 -9.36575e-06 0.000406029
8.35094 0 1.3615 -0.000459387 -7.07315e-06 0.00038285
8.37448 0 1.39917 -0.000687384 -1.35893e-05 0.000431203
8.399 0 1.43841 -0.00108224 -9.62329e-06 0.000386641
8.42454 0 1.47926 -0.00118061 -1.65411e-05 0.000484697
8.07738 0 0.855372 0.000524553 9.77284e-07 -0.000516894
8.08869 0 0.872138 0.000362942 4.28086e-06 -0.000382274
8.10048 0 0.889596 0.000250997 -2.20476e-06 -0.000252971
8.11275 0 0.907776 0.000235188 -4.94618e-06 -0.000122612
8.12553 0 0.926708 0.000271863 -6.36675e-06 1.17902e-05
8.13883 0 0.946421 0.000306863 -6.27634e-06 0.000138595
8.15269 0 0.966948 0.000334085 -4.25656e-06 0.000244161
8.16712 0 0.988324 0.00034646 -2.87466e-06 0.000337826
8.18214 0 1.01058 0.000353222 -1.95582e-06 0.000411531
8.19779 0 1.03376 0.000350522 -1.31131e-06 0.000460646
8.21408 0 1.0579 0.000344717 -6.72863e-07 0.000494282
8.23105 0 1.08303 0.000337643 -2.80785e-07 0.000516258
8.24871 0 1.1092 0.000330962 -1.0442e-07 0.000529493
8.26711 0 1.13646 0.000324414 -2.5696e-08 0.000535657
8.28626 0 1.16483 0.000316487 2.61284e-07 0.000535908
8.30621 0 1.19439 0.000303484 3.65592e-07 0.000534315
8.32698 0 1.22516 0.00027588 4.16813e-07 0.000531242
8.34861 0 1.2572 0.000223169 -7.88483e-07 0.000528438
8.37113 0 1.29057 0.000126664 -2.36116e-06 0.000518139
8.39459 0 1.32532 -1.12078e-05 -6.52811e-06 0.000515884
8.41901 0 1.3615 -0.000216856 -5.20385e-06 0.000507385
8.44444 0 1.39917 -0.000429339 -1.16369e-05 0.000544695
8.47092 0 1.43841 -0.000742522 -6.35582e-06 0.000528527
8.4985 0 1.47926 -0.000876707 -1.83695e-05 0.000584975
8.12014 0 0.855372 0.000348506 -7.58748e-07 -0.000444752
8.1323 0 0.872138 0.000265539 -7.30304e-06 -0.0003136
8.14496 0 0.889596 0.000261977 -1.02754e-05 -0.000180453
8.15814 0 0.907776 0.000301548 -1.21755e-05 -5.1211e-05
8.17186 0 0.926708 0.000344338 -1.2011e-05 7.53144e-05