# Force coefficients
# liftDir     : (0.000000e+00 0.000000e+00 1.000000e+00)
# dragDir     : (1.000000e+00 0.000000e+00 0.000000e+00)
# pitchAxis   : (0.000000e+00 1.000000e+00 0.000000e+00)
# magUInf     : 1.000000e+00
# lRef        : 1.000000e+00
# Aref        : 1.000000e+00
# CofR        : (2.500000e+00 0.000000e+00 0.000000e+00)
#
# Time        	Cm            	Cd            	Cl            	Cl(f)         	Cl(r)         
69.0005       	-4.131582e-02	1.593317e+00	-3.663336e-01	-2.244826e-01	-1.418510e-01
69.001        	-4.162009e-02	1.593315e+00	-3.666210e-01	-2.249306e-01	-1.416904e-01
69.0015       	-4.166914e-02	1.593493e+00	-3.668386e-01	-2.250885e-01	-1.417502e-01
69.002        	-4.165486e-02	1.593693e+00	-3.668772e-01	-2.250935e-01	-1.417837e-01
69.0025       	-4.139283e-02	1.593840e+00	-3.667129e-01	-2.247493e-01	-1.419636e-01
69.003        	-4.119769e-02	1.593770e+00	-3.664781e-01	-2.244367e-01	-1.420413e-01
69.0035       	-4.106605e-02	1.593628e+00	-3.661470e-01	-2.241395e-01	-1.420074e-01
69.004        	-4.128252e-02	1.593393e+00	-3.661858e-01	-2.243754e-01	-1.418104e-01
69.0045       	-4.150162e-02	1.593459e+00	-3.662654e-01	-2.246343e-01	-1.416311e-01
69.005        	-4.170715e-02	1.593585e+00	-3.665134e-01	-2.249639e-01	-1.415496e-01
69.0055       	-4.158761e-02	1.593938e+00	-3.665707e-01	-2.248729e-01	-1.416977e-01
69.006        	-4.145329e-02	1.594154e+00	-3.665731e-01	-2.247398e-01	-1.418332e-01
69.0065       	-4.116864e-02	1.594206e+00	-3.659556e-01	-2.241464e-01	-1.418091e-01
69.007        	-4.111567e-02	1.593815e+00	-3.656466e-01	-2.239390e-01	-1.417077e-01
69.0075       	-4.118433e-02	1.593684e+00	-3.653044e-01	-2.238365e-01	-1.414679e-01
69.008        	-4.150326e-02	1.593657e+00	-3.655261e-01	-2.242663e-01	-1.412598e-01
69.0085       	-4.160302e-02	1.593854e+00	-3.654572e-01	-2.243316e-01	-1.411256e-01
69.009        	-4.164971e-02	1.594117e+00	-3.656399e-01	-2.244697e-01	-1.411702e-01
69.0095       	-4.142444e-02	1.594522e+00	-3.654085e-01	-2.241287e-01	-1.412798e-01
69.01         	-4.122835e-02	1.594524e+00	-3.652641e-01	-2.238604e-01	-1.414037e-01
69.0105       	-4.102298e-02	1.594431e+00	-3.648906e-01	-2.234683e-01	-1.414223e-01
69.011        	-4.113182e-02	1.594086e+00	-3.649581e-01	-2.236109e-01	-1.413472e-01
69.0115       	-4.131380e-02	1.594083e+00	-3.648009e-01	-2.237142e-01	-1.410866e-01
69.012        	-4.157777e-02	1.594143e+00	-3.650850e-01	-2.241203e-01	-1.409647e-01
69.0125       	-4.152284e-02	1.594569e+00	-3.652968e-01	-2.241713e-01	-1.411256e-01
69.013        	-4.143151e-02	1.594672e+00	-3.653454e-01	-2.241042e-01	-1.412412e-01
69.0135       	-4.115380e-02	1.594872e+00	-3.649173e-01	-2.236124e-01	-1.413048e-01
69.014        	-4.101329e-02	1.594617e+00	-3.646987e-01	-2.233626e-01	-1.413361e-01
69.0145       	-4.100847e-02	1.594420e+00	-3.643658e-01	-2.231914e-01	-1.411744e-01
69.015        	-4.127495e-02	1.594238e+00	-3.645988e-01	-2.235744e-01	-1.410245e-01
69.0155       	-4.145740e-02	1.594506e+00	-3.645956e-01	-2.237552e-01	-1.408404e-01
69.016        	-4.155417e-02	1.594671e+00	-3.648900e-01	-2.239992e-01	-1.408908e-01
69.0165       	-4.139579e-02	1.595034e+00	-3.647923e-01	-2.237919e-01	-1.410004e-01
69.017        	-4.120663e-02	1.594997e+00	-3.646984e-01	-2.235558e-01	-1.411426e-01
69.0175       	-4.095524e-02	1.595068e+00	-3.642196e-01	-2.230650e-01	-1.411546e-01
69.018        	-4.098554e-02	1.594775e+00	-3.641994e-01	-2.230853e-01	-1.411142e-01
69.0185       	-4.115774e-02	1.594754e+00	-3.641711e-01	-2.232433e-01	-1.409278e-01
69.019        	-4.142983e-02	1.594680e+00	-3.642991e-01	-2.235794e-01	-1.407197e-01
69.0195       	-4.149646e-02	1.594953e+00	-3.642816e-01	-2.236373e-01	-1.406443e-01
69.02         	-4.142041e-02	1.595071e+00	-3.644345e-01	-2.236376e-01	-1.407968e-01
69.0205       	-4.117540e-02	1.595325e+00	-3.641420e-01	-2.232464e-01	-1.408956e-01
69.021        	-4.096829e-02	1.595195e+00	-3.639602e-01	-2.229484e-01	-1.410118e-01
69.0215       	-4.087739e-02	1.595107e+00	-3.636762e-01	-2.227155e-01	-1.409607e-01
69.022        	-4.109603e-02	1.594915e+00	-3.637205e-01	-2.229563e-01	-1.407642e-01
69.0225       	-4.130663e-02	1.595127e+00	-3.638186e-01	-2.232159e-01	-1.406027e-01
69.023        	-4.147260e-02	1.595259e+00	-3.640248e-01	-2.234850e-01	-1.405398e-01
69.0235       	-4.137847e-02	1.595609e+00	-3.639155e-01	-2.233362e-01	-1.405793e-01
69.024        	-4.121455e-02	1.595683e+00	-3.637676e-01	-2.230983e-01	-1.406692e-01
69.0245       	-4.094297e-02	1.595701e+00	-3.634957e-01	-2.226908e-01	-1.408049e-01
69.025        	-4.088628e-02	1.595445e+00	-3.631914e-01	-2.224820e-01	-1.407094e-01
69.0255       	-4.102440e-02	1.595365e+00	-3.629737e-01	-2.225112e-01	-1.404624e-01
69.026        	-4.132096e-02	1.595330e+00	-3.630812e-01	-2.228616e-01	-1.402196e-01
69.0265       	-4.142851e-02	1.595591e+00	-3.633052e-01	-2.230811e-01	-1.402241e-01
69.027        	-4.141712e-02	1.595935e+00	-3.634291e-01	-2.231317e-01	-1.402974e-01
69.0275       	-4.119644e-02	1.596147e+00	-3.633624e-01	-2.228776e-01	-1.404848e-01
69.028        	-4.099120e-02	1.596069e+00	-3.629640e-01	-2.224732e-01	-1.404908e-01
69.0285       	-4.082786e-02	1.595867e+00	-3.627158e-01	-2.221857e-01	-1.405300e-01
69.029        	-4.097879e-02	1.595751e+00	-3.625439e-01	-2.222507e-01	-1.402932e-01
69.0295       	-4.119528e-02	1.595760e+00	-3.627471e-01	-2.225688e-01	-1.401783e-01
69.03         	-4.140218e-02	1.595969e+00	-3.628623e-01	-2.228333e-01	-1.400290e-01
69.0305       	-4.136758e-02	1.596283e+00	-3.629212e-01	-2.228282e-01	-1.400930e-01
69.031        	-4.121684e-02	1.596530e+00	-3.628780e-01	-2.226559e-01	-1.402222e-01
69.0315       	-4.094947e-02	1.596413e+00	-3.625316e-01	-2.222153e-01	-1.403163e-01
69.032        	-4.080774e-02	1.596181e+00	-3.622169e-01	-2.219162e-01	-1.403007e-01
69.0325       	-4.085579e-02	1.595972e+00	-3.621815e-01	-2.219466e-01	-1.402350e-01
69.033        	-4.112411e-02	1.596063e+00	-3.622630e-01	-2.222556e-01	-1.400074e-01
69.0335       	-4.131135e-02	1.596346e+00	-3.624344e-01	-2.225286e-01	-1.399059e-01
69.034        	-4.133054e-02	1.596736e+00	-3.627674e-01	-2.227143e-01	-1.400532e-01
69.0345       	-4.113739e-02	1.596957e+00	-3.626431e-01	-2.224589e-01	-1.401842e-01
69.035        	-4.092555e-02	1.596845e+00	-3.623143e-01	-2.220827e-01	-1.402316e-01
69.0355       	-4.071241e-02	1.596657e+00	-3.619639e-01	-2.216944e-01	-1.402695e-01
69.036        	-4.078212e-02	1.596504e+00	-3.618550e-01	-2.217096e-01	-1.401454e-01
69.0365       	-4.100184e-02	1.596432e+00	-3.618538e-01	-2.219287e-01	-1.399251e-01
69.037        	-4.125218e-02	1.596589e+00	-3.621663e-01	-2.223353e-01	-1.398310e-01
69.0375       	-4.127526e-02	1.596822e+00	-3.621348e-01	-2.223427e-01	-1.397922e-01
69.038        	-4.120452e-02	1.597183e+00	-3.621089e-01	-2.222589e-01	-1.398499e-01
69.0385       	-4.094197e-02	1.597165e+00	-3.617961e-01	-2.218400e-01	-1.399561e-01
69.039        	-4.078116e-02	1.596974e+00	-3.616642e-01	-2.216133e-01	-1.400509e-01
69.0395       	-4.069304e-02	1.596766e+00	-3.615258e-01	-2.214560e-01	-1.400699e-01
69.04         	-4.095722e-02	1.596856e+00	-3.615794e-01	-2.217469e-01	-1.398325e-01
69.0405       	-4.113537e-02	1.596986e+00	-3.617123e-01	-2.219915e-01	-1.397208e-01
69.041        	-4.129576e-02	1.597446e+00	-3.618770e-01	-2.222342e-01	-1.396427e-01
69.0415       	-4.112704e-02	1.597699e+00	-3.618160e-01	-2.220350e-01	-1.397810e-01
69.042        	-4.098396e-02	1.597856e+00	-3.617184e-01	-2.218431e-01	-1.398752e-01
69.0425       	-4.068463e-02	1.597564e+00	-3.612581e-01	-2.213137e-01	-1.399444e-01
69.043        	-4.071390e-02	1.597443e+00	-3.610307e-01	-2.212292e-01	-1.398014e-01
69.0435       	-4.081816e-02	1.597243e+00	-3.610292e-01	-2.213328e-01	-1.396965e-01
69.044        	-4.116086e-02	1.597454e+00	-3.613105e-01	-2.218161e-01	-1.394944e-01
69.0445       	-4.120220e-02	1.597588e+00	-3.613567e-01	-2.218806e-01	-1.394761e-01
69.045        	-4.122207e-02	1.598040e+00	-3.613697e-01	-2.219069e-01	-1.394628e-01
69.0455       	-4.093959e-02	1.597982e+00	-3.611790e-01	-2.215291e-01	-1.396499e-01
69.046        	-4.077754e-02	1.597928e+00	-3.609082e-01	-2.212316e-01	-1.396766e-01
69.0465       	-4.059264e-02	1.597572e+00	-3.606571e-01	-2.209212e-01	-1.397359e-01
69.047        	-4.083747e-02	1.597567e+00	-3.607587e-01	-2.212168e-01	-1.395419e-01
69.0475       	-4.102586e-02	1.597640e+00	-3.607612e-01	-2.214064e-01	-1.393547e-01
69.048        	-4.127369e-02	1.598028e+00	-3.608688e-01	-2.217081e-01	-1.391607e-01
69.0485       	-4.113048e-02	1.598206e+00	-3.606810e-01	-2.214710e-01	-1.392100e-01
69.049        	-4.104382e-02	1.598433e+00	-3.605990e-01	-2.213433e-01	-1.392557e-01
69.0495       	-4.070427e-02	1.598301e+00	-3.602628e-01	-2.208357e-01	-1.394271e-01
69.05         	-4.067589e-02	1.598137e+00	-3.600432e-01	-2.206975e-01	-1.393457e-01
69.0505       	-4.071463e-02	1.597911e+00	-3.597958e-01	-2.206125e-01	-1.391833e-01
69.051        	-4.106255e-02	1.598117e+00	-3.601257e-01	-2.211254e-01	-1.390003e-01
69.0515       	-4.110815e-02	1.598163e+00	-3.602395e-01	-2.212279e-01	-1.390116e-01
69.052        	-4.119329e-02	1.598530e+00	-3.603496e-01	-2.213681e-01	-1.389815e-01
69.0525       	-4.090322e-02	1.598675e+00	-3.600325e-01	-2.209195e-01	-1.391130e-01
69.053        	-4.073519e-02	1.598643e+00	-3.598268e-01	-2.206486e-01	-1.391782e-01
69.0535       	-4.045505e-02	1.598389e+00	-3.595423e-01	-2.202262e-01	-1.393161e-01
69.054        	-4.063053e-02	1.598253e+00	-3.596203e-01	-2.204407e-01	-1.391796e-01
69.0545       	-4.078544e-02	1.598265e+00	-3.595960e-01	-2.205834e-01	-1.390126e-01
69.055        	-4.108056e-02	1.598461e+00	-3.599646e-01	-2.210629e-01	-1.389018e-01
69.0555       	-4.099925e-02	1.598695e+00	-3.597874e-01	-2.208929e-01	-1.388944e-01
69.056        	-4.091635e-02	1.598852e+00	-3.598500e-01	-2.208414e-01	-1.390087e-01
69.0565       	-4.056583e-02	1.598777e+00	-3.593904e-01	-2.202610e-01	-1.391294e-01
69.057        	-4.046189e-02	1.598451e+00	-3.590342e-01	-2.199790e-01	-1.390552e-01
69.0575       	-4.040055e-02	1.598344e+00	-3.588046e-01	-2.198028e-01	-1.390017e-01
69.058        	-4.071633e-02	1.598497e+00	-3.589512e-01	-2.201919e-01	-1.387593e-01
69.0585       	-4.085003e-02	1.598703e+00	-3.590370e-01	-2.203685e-01	-1.386685e-01
69.059        	-4.098733e-02	1.598943e+00	-3.593341e-01	-2.206544e-01	-1.386797e-01
69.0595       	-4.076563e-02	1.599184e+00	-3.591806e-01	-2.203560e-01	-1.388247e-01
69.06         	-4.060759e-02	1.599010e+00	-3.588154e-01	-2.200153e-01	-1.388001e-01
69.0605       	-4.030172e-02	1.598888e+00	-3.584631e-01	-2.195333e-01	-1.389299e-01
69.061        	-4.038131e-02	1.598643e+00	-3.581913e-01	-2.194770e-01	-1.387144e-01
69.0615       	-4.052028e-02	1.598748e+00	-3.580858e-01	-2.195632e-01	-1.385226e-01
69.062        	-4.082914e-02	1.598993e+00	-3.584493e-01	-2.200538e-01	-1.383955e-01
69.0625       	-4.084457e-02	1.599268e+00	-3.585073e-01	-2.200982e-01	-1.384091e-01
69.063        	-4.081080e-02	1.599360e+00	-3.584010e-01	-2.200113e-01	-1.383897e-01
69.0635       	-4.049885e-02	1.599264e+00	-3.580663e-01	-2.195320e-01	-1.385343e-01
69.064        	-4.034994e-02	1.599007e+00	-3.578022e-01	-2.192510e-01	-1.385512e-01
69.0645       	-4.022801e-02	1.598861e+00	-3.575222e-01	-2.189891e-01	-1.385331e-01
69.065        	-4.051165e-02	1.598888e+00	-3.574815e-01	-2.192524e-01	-1.382291e-01
69.0655       	-4.068649e-02	1.599141e+00	-3.574309e-01	-2.194019e-01	-1.380290e-01
69.066        	-4.088816e-02	1.599401e+00	-3.576585e-01	-2.197174e-01	-1.379411e-01
69.0665       	-4.071616e-02	1.599643e+00	-3.577139e-01	-2.195731e-01	-1.381408e-01
69.067        	-4.052868e-02	1.599552e+00	-3.575817e-01	-2.193195e-01	-1.382622e-01
69.0675       	-4.020610e-02	1.599471e+00	-3.573314e-01	-2.188718e-01	-1.384596e-01
69.068        	-4.017757e-02	1.599250e+00	-3.569932e-01	-2.186741e-01	-1.383190e-01
69.0685       	-4.030390e-02	1.599368e+00	-3.567656e-01	-2.186867e-01	-1.380789e-01
69.069        	-4.059924e-02	1.599406e+00	-3.571829e-01	-2.191907e-01	-1.379922e-01
69.0695       	-4.072507e-02	1.599766e+00	-3.571662e-01	-2.193082e-01	-1.378580e-01
69.07         	-4.070928e-02	1.599817e+00	-3.572108e-01	-2.193147e-01	-1.378961e-01
69.0705       	-4.046109e-02	1.600009e+00	-3.568253e-01	-2.188738e-01	-1.379516e-01
69.071        	-4.023579e-02	1.599815e+00	-3.565742e-01	-2.185229e-01	-1.380513e-01
69.0715       	-4.006577e-02	1.599721e+00	-3.561562e-01	-2.181439e-01	-1.380123e-01
69.072        	-4.025643e-02	1.599493e+00	-3.560658e-01	-2.182894e-01	-1.377765e-01
69.0725       	-4.050089e-02	1.599677e+00	-3.560285e-01	-2.185151e-01	-1.375133e-01
69.073        	-4.073278e-02	1.599686e+00	-3.563413e-01	-2.189034e-01	-1.374379e-01
69.0735       	-4.067868e-02	1.600030e+00	-3.563272e-01	-2.188423e-01	-1.374849e-01
69.074        	-4.050017e-02	1.600115e+00	-3.563090e-01	-2.186547e-01	-1.376543e-01
69.0745       	-4.017003e-02	1.600086e+00	-3.558058e-01	-2.180729e-01	-1.377329e-01
69.075        	-4.004592e-02	1.599862e+00	-3.555107e-01	-2.178013e-01	-1.377094e-01
69.0755       	-4.010478e-02	1.599896e+00	-3.553220e-01	-2.177658e-01	-1.375562e-01
69.076        	-4.041322e-02	1.599781e+00	-3.555542e-01	-2.181903e-01	-1.373639e-01
69.0765       	-4.059772e-02	1.600031e+00	-3.555836e-01	-2.183895e-01	-1.371941e-01
69.077        	-4.066077e-02	1.600100e+00	-3.558865e-01	-2.186040e-01	-1.372825e-01
69.0775       	-4.045587e-02	1.600252e+00	-3.555773e-01	-2.182445e-01	-1.373328e-01
69.078        	-4.020599e-02	1.600155e+00	-3.554709e-01	-2.179414e-01	-1.375294e-01
69.0785       	-3.993843e-02	1.600072e+00	-3.550864e-01	-2.174817e-01	-1.376048e-01
69.079        	-4.004202e-02	1.599974e+00	-3.549648e-01	-2.175244e-01	-1.374404e-01
69.0795       	-4.024566e-02	1.600214e+00	-3.549015e-01	-2.176964e-01	-1.372051e-01
69.08         	-4.055451e-02	1.600218e+00	-3.551282e-01	-2.181186e-01	-1.370096e-01
69.0805       	-4.055038e-02	1.600333e+00	-3.552733e-01	-2.181870e-01	-1.370862e-01
69.081        	-4.044604e-02	1.600401e+00	-3.553151e-01	-2.181036e-01	-1.372115e-01
69.0815       	-4.010416e-02	1.600394e+00	-3.549393e-01	-2.175738e-01	-1.373655e-01
69.082        	-3.993333e-02	1.600410e+00	-3.544091e-01	-2.171379e-01	-1.372712e-01
69.0825       	-3.985534e-02	1.600398e+00	-3.540380e-01	-2.168743e-01	-1.371637e-01
69.083        	-4.013801e-02	1.600502e+00	-3.542299e-01	-2.172530e-01	-1.369769e-01
69.0835       	-4.032876e-02	1.600496e+00	-3.543601e-01	-2.175088e-01	-1.368513e-01
69.084        	-4.049371e-02	1.600594e+00	-3.546926e-01	-2.178400e-01	-1.368526e-01
69.0845       	-4.034439e-02	1.600549e+00	-3.544584e-01	-2.175736e-01	-1.368848e-01
69.085        	-4.014301e-02	1.600513e+00	-3.541370e-01	-2.172115e-01	-1.369255e-01
69.0855       	-3.978244e-02	1.600371e+00	-3.536493e-01	-2.166071e-01	-1.370422e-01
69.086        	-3.977913e-02	1.600606e+00	-3.535902e-01	-2.165742e-01	-1.370160e-01
69.0865       	-3.990478e-02	1.600636e+00	-3.534369e-01	-2.166232e-01	-1.368137e-01
69.087        	-4.024569e-02	1.600724e+00	-3.537841e-01	-2.171378e-01	-1.366464e-01
69.0875       	-4.033462e-02	1.600615e+00	-3.539052e-01	-2.172872e-01	-1.366180e-01
69.088        	-4.036039e-02	1.600717e+00	-3.539273e-01	-2.173240e-01	-1.366033e-01
69.0885       	-4.005109e-02	1.600565e+00	-3.536141e-01	-2.168581e-01	-1.367560e-01
69.089        	-3.983951e-02	1.600665e+00	-3.534196e-01	-2.165493e-01	-1.368703e-01
69.0895       	-3.964329e-02	1.600602e+00	-3.529834e-01	-2.161350e-01	-1.368484e-01
69.09         	-3.986289e-02	1.600788e+00	-3.529281e-01	-2.163269e-01	-1.366012e-01
69.0905       	-4.008070e-02	1.600702e+00	-3.529438e-01	-2.165526e-01	-1.363912e-01
69.091        	-4.034489e-02	1.600725e+00	-3.532606e-01	-2.169752e-01	-1.362854e-01
69.0915       	-4.031961e-02	1.600512e+00	-3.531106e-01	-2.168749e-01	-1.362357e-01
69.092        	-4.016946e-02	1.600647e+00	-3.531562e-01	-2.167476e-01	-1.364087e-01
69.0925       	-3.982396e-02	1.600502e+00	-3.526904e-01	-2.161692e-01	-1.365212e-01
69.093        	-3.970055e-02	1.600788e+00	-3.523958e-01	-2.158985e-01	-1.364973e-01
69.0935       	-3.972552e-02	1.600843e+00	-3.520649e-01	-2.157580e-01	-1.363069e-01
69.094        	-4.002807e-02	1.600985e+00	-3.521596e-01	-2.161079e-01	-1.360517e-01
69.0945       	-4.020241e-02	1.600798e+00	-3.523217e-01	-2.163633e-01	-1.359584e-01
69.095        	-4.033759e-02	1.600837e+00	-3.525067e-01	-2.165909e-01	-1.359158e-01
69.0955       	-4.017407e-02	1.600600e+00	-3.521984e-01	-2.162733e-01	-1.359252e-01
69.096        	-3.995686e-02	1.600643e+00	-3.520437e-01	-2.159787e-01	-1.360650e-01
69.0965       	-3.967650e-02	1.600725e+00	-3.516832e-01	-2.155181e-01	-1.361651e-01
69.097        	-3.972015e-02	1.601132e+00	-3.514262e-01	-2.154332e-01	-1.359929e-01
69.0975       	-3.987742e-02	1.601173e+00	-3.511851e-01	-2.154699e-01	-1.357151e-01
69.098        	-4.016343e-02	1.601294e+00	-3.514316e-01	-2.158792e-01	-1.355524e-01
69.0985       	-4.024288e-02	1.601052e+00	-3.514552e-01	-2.159705e-01	-1.354847e-01
69.099        	-4.020528e-02	1.601067e+00	-3.515028e-01	-2.159567e-01	-1.355461e-01
69.0995       	-3.990592e-02	1.600760e+00	-3.512114e-01	-2.155116e-01	-1.356998e-01
69.1          	-3.970950e-02	1.600942e+00	-3.509832e-01	-2.152011e-01	-1.357821e-01
69.1005       	-3.960476e-02	1.601212e+00	-3.505153e-01	-2.148624e-01	-1.356529e-01
69.101        	-3.979963e-02	1.601618e+00	-3.504377e-01	-2.150185e-01	-1.354192e-01
69.1015       	-3.998829e-02	1.601501e+00	-3.505189e-01	-2.152478e-01	-1.352712e-01
69.102        	-4.019917e-02	1.601325e+00	-3.506796e-01	-2.155390e-01	-1.351406e-01
69.1025       	-4.016195e-02	1.601089e+00	-3.506181e-01	-2.154710e-01	-1.351471e-01
69.103        	-3.997210e-02	1.601009e+00	-3.503966e-01	-2.151704e-01	-1.352262e-01
69.1035       	-3.967225e-02	1.601031e+00	-3.500285e-01	-2.146865e-01	-1.353420e-01
69.104        	-3.961119e-02	1.601485e+00	-3.498246e-01	-2.145235e-01	-1.353011e-01
69.1045       	-3.969201e-02	1.601766e+00	-3.496657e-01	-2.145249e-01	-1.351408e-01
69.105        	-3.993817e-02	1.601941e+00	-3.498955e-01	-2.148859e-01	-1.350096e-01
69.1055       	-4.006732e-02	1.601617e+00	-3.501596e-01	-2.151471e-01	-1.350125e-01
69.106        	-4.011661e-02	1.601406e+00	-3.503002e-01	-2.152667e-01	-1.350335e-01
69.1065       	-3.991123e-02	1.601151e+00	-3.500146e-01	-2.149185e-01	-1.350961e-01
69.107        	-3.970432e-02	1.601172e+00	-3.496403e-01	-2.145245e-01	-1.351158e-01
69.1075       	-3.952852e-02	1.601456e+00	-3.492699e-01	-2.141635e-01	-1.351064e-01
69.108        	-3.964327e-02	1.602046e+00	-3.492547e-01	-2.142706e-01	-1.349841e-01
69.1085       	-3.982906e-02	1.602175e+00	-3.491117e-01	-2.143849e-01	-1.347268e-01
69.109        	-4.006338e-02	1.602035e+00	-3.492305e-01	-2.146786e-01	-1.345519e-01
69.1095       	-4.007532e-02	1.601667e+00	-3.494785e-01	-2.148146e-01	-1.346640e-01
69.11         	-3.995917e-02	1.601451e+00	-3.492648e-01	-2.145916e-01	-1.346732e-01
69.1105       	-3.968309e-02	1.601337e+00	-3.490879e-01	-2.142270e-01	-1.348609e-01
69.111        	-3.954570e-02	1.601665e+00	-3.487308e-01	-2.139111e-01	-1.348197e-01
69.1115       	-3.956564e-02	1.602200e+00	-3.485543e-01	-2.138428e-01	-1.347115e-01
69.112        	-3.977451e-02	1.602458e+00	-3.484664e-01	-2.140077e-01	-1.344587e-01
69.1125       	-3.996766e-02	1.602322e+00	-3.485550e-01	-2.142452e-01	-1.343099e-01
69.113        	-4.007397e-02	1.601923e+00	-3.485907e-01	-2.143693e-01	-1.342214e-01
69.1135       	-3.996934e-02	1.601637e+00	-3.484974e-01	-2.142180e-01	-1.342794e-01
69.114        	-3.975453e-02	1.601480e+00	-3.481486e-01	-2.138288e-01	-1.343198e-01
69.1145       	-3.957610e-02	1.601821e+00	-3.477390e-01	-2.134456e-01	-1.342934e-01
69.115        	-3.960252e-02	1.602329e+00	-3.476506e-01	-2.134278e-01	-1.342228e-01
69.1155       	-3.977128e-02	1.602702e+00	-3.475667e-01	-2.135546e-01	-1.340121e-01
69.116        	-3.998038e-02	1.602625e+00	-3.477040e-01	-2.138324e-01	-1.338716e-01
69.1165       	-4.007431e-02	1.602267e+00	-3.476887e-01	-2.139186e-01	-1.337700e-01
69.117        	-4.001468e-02	1.601924e+00	-3.478228e-01	-2.139261e-01	-1.338967e-01
69.1175       	-3.980204e-02	1.601753e+00	-3.475031e-01	-2.135536e-01	-1.339495e-01
69.118        	-3.962003e-02	1.601869e+00	-3.472587e-01	-2.132494e-01	-1.340093e-01
69.1185       	-3.959259e-02	1.602419e+00	-3.469213e-01	-2.130532e-01	-1.338680e-01
69.119        	-3.975234e-02	1.602902e+00	-3.470103e-01	-2.132575e-01	-1.337528e-01
69.1195       	-3.994642e-02	1.602864e+00	-3.470029e-01	-2.134479e-01	-1.335550e-01
69.12         	-4.010239e-02	1.602443e+00	-3.471988e-01	-2.137018e-01	-1.334970e-01
69.1205       	-4.002062e-02	1.602178e+00	-3.471845e-01	-2.136129e-01	-1.335716e-01
69.121        	-3.983883e-02	1.601975e+00	-3.468943e-01	-2.132860e-01	-1.336083e-01
69.1215       	-3.962532e-02	1.602143e+00	-3.463624e-01	-2.128065e-01	-1.335559e-01
69.122        	-3.961266e-02	1.602587e+00	-3.462051e-01	-2.127152e-01	-1.334899e-01
69.1225       	-3.970261e-02	1.603114e+00	-3.460501e-01	-2.127277e-01	-1.333225e-01
69.123        	-3.994611e-02	1.603101e+00	-3.461100e-01	-2.130011e-01	-1.331089e-01
69.1235       	-4.007646e-02	1.602851e+00	-3.461896e-01	-2.131713e-01	-1.330184e-01
69.124        	-4.010034e-02	1.602447e+00	-3.461443e-01	-2.131725e-01	-1.329718e-01
69.1245       	-3.985662e-02	1.602421e+00	-3.460644e-01	-2.128888e-01	-1.331756e-01
69.125        	-3.966873e-02	1.602387e+00	-3.456977e-01	-2.125176e-01	-1.331801e-01
69.1255       	-3.957060e-02	1.602951e+00	-3.453123e-01	-2.122267e-01	-1.330855e-01
69.126        	-3.970583e-02	1.603363e+00	-3.452212e-01	-2.123164e-01	-1.329048e-01
69.1265       	-3.987430e-02	1.603563e+00	-3.452307e-01	-2.124897e-01	-1.327411e-01
69.127        	-4.006802e-02	1.603110e+00	-3.453229e-01	-2.127295e-01	-1.325934e-01
69.1275       	-4.004989e-02	1.602984e+00	-3.452782e-01	-2.126890e-01	-1.325892e-01
69.128        	-3.987346e-02	1.602695e+00	-3.450952e-01	-2.124211e-01	-1.326741e-01
69.1285       	-3.965952e-02	1.602958e+00	-3.447287e-01	-2.120239e-01	-1.327048e-01
69.129        	-3.956914e-02	1.603221e+00	-3.446349e-01	-2.118866e-01	-1.327483e-01
69.1295       	-3.964284e-02	1.603799e+00	-3.444247e-01	-2.118552e-01	-1.325695e-01
69.13         	-3.985304e-02	1.603802e+00	-3.443360e-01	-2.120211e-01	-1.323150e-01
69.1305       	-4.003857e-02	1.603646e+00	-3.443534e-01	-2.122153e-01	-1.321381e-01
69.131        	-4.008270e-02	1.603163e+00	-3.444221e-01	-2.122938e-01	-1.321284e-01
69.1315       	-3.988451e-02	1.603142e+00	-3.443700e-01	-2.120695e-01	-1.323005e-01
69.132        	-3.968554e-02	1.603019e+00	-3.441435e-01	-2.117573e-01	-1.323862e-01
69.1325       	-3.957017e-02	1.603503e+00	-3.438870e-01	-2.115137e-01	-1.323733e-01
69.133        	-3.966786e-02	1.603908e+00	-3.436299e-01	-2.114828e-01	-1.321471e-01
69.1335       	-3.983748e-02	1.604261e+00	-3.437842e-01	-2.117296e-01	-1.320546e-01
69.134        	-4.005735e-02	1.603860e+00	-3.439173e-01	-2.120160e-01	-1.319013e-01
69.1345       	-4.009804e-02	1.603596e+00	-3.440429e-01	-2.121195e-01	-1.319234e-01
69.135        	-3.997747e-02	1.603332e+00	-3.437257e-01	-2.118403e-01	-1.318854e-01
69.1355       	-3.976996e-02	1.603359e+00	-3.433036e-01	-2.114217e-01	-1.318818e-01
69.136        	-3.965848e-02	1.603549e+00	-3.430807e-01	-2.111988e-01	-1.318819e-01
69.1365       	-3.966471e-02	1.604124e+00	-3.430588e-01	-2.111941e-01	-1.318647e-01
69.137        	-3.986028e-02	1.604389e+00	-3.431759e-01	-2.114482e-01	-1.317277e-01
69.1375       	-4.005158e-02	1.604192e+00	-3.432319e-01	-2.116675e-01	-1.315643e-01
69.138        	-4.019852e-02	1.603781e+00	-3.433278e-01	-2.118624e-01	-1.314654e-01
69.1385       	-4.007357e-02	1.603620e+00	-3.431644e-01	-2.116558e-01	-1.315086e-01
69.139        	-3.987847e-02	1.603545e+00	-3.430308e-01	-2.113939e-01	-1.316369e-01
69.1395       	-3.968420e-02	1.603750e+00	-3.426519e-01	-2.110101e-01	-1.316417e-01
69.14         	-3.975872e-02	1.604309e+00	-3.425204e-01	-2.110189e-01	-1.315015e-01
69.1405       	-3.986977e-02	1.604627e+00	-3.424996e-01	-2.111196e-01	-1.313800e-01
69.141        	-4.013210e-02	1.604477e+00	-3.426285e-01	-2.114463e-01	-1.311821e-01
69.1415       	-4.020565e-02	1.604199e+00	-3.425295e-01	-2.114704e-01	-1.310591e-01
69.142        	-4.019543e-02	1.604007e+00	-3.425832e-01	-2.114870e-01	-1.310961e-01
69.1425       	-3.990979e-02	1.603876e+00	-3.422097e-01	-2.110147e-01	-1.311951e-01
69.143        	-3.978214e-02	1.604049e+00	-3.421782e-01	-2.108712e-01	-1.313070e-01
69.1435       	-3.971447e-02	1.604603e+00	-3.417319e-01	-2.105804e-01	-1.311515e-01
69.144        	-3.993356e-02	1.605028e+00	-3.417788e-01	-2.108230e-01	-1.309558e-01
69.1445       	-4.009402e-02	1.604923e+00	-3.416919e-01	-2.109400e-01	-1.307519e-01
69.145        	-4.030257e-02	1.604697e+00	-3.418044e-01	-2.112048e-01	-1.305996e-01
69.1455       	-4.018739e-02	1.604366e+00	-3.415737e-01	-2.109742e-01	-1.305994e-01
69.146        	-4.002790e-02	1.604328e+00	-3.415427e-01	-2.107992e-01	-1.307434e-01
69.1465       	-3.977857e-02	1.604364e+00	-3.410575e-01	-2.103073e-01	-1.307502e-01
69.147        	-3.985157e-02	1.604864e+00	-3.408372e-01	-2.102702e-01	-1.305670e-01
69.1475       	-3.990618e-02	1.605166e+00	-3.404776e-01	-2.101450e-01	-1.303326e-01
69.148        	-4.018320e-02	1.605347e+00	-3.406700e-01	-2.105182e-01	-1.301518e-01
69.1485       	-4.023550e-02	1.605000e+00	-3.407186e-01	-2.105948e-01	-1.301238e-01
69.149        	-4.031986e-02	1.604869e+00	-3.408729e-01	-2.107563e-01	-1.301166e-01
69.1495       	-4.001969e-02	1.604581e+00	-3.405258e-01	-2.102826e-01	-1.302432e-01
69.15         	-3.995021e-02	1.604783e+00	-3.401804e-01	-2.100404e-01	-1.301400e-01
69.1505       	-3.980345e-02	1.605036e+00	-3.395710e-01	-2.095890e-01	-1.299821e-01
69.151        	-4.001693e-02	1.605625e+00	-3.398664e-01	-2.099501e-01	-1.299163e-01
69.1515       	-4.011373e-02	1.605673e+00	-3.397575e-01	-2.099925e-01	-1.297650e-01
69.152        	-4.037218e-02	1.605518e+00	-3.399731e-01	-2.103587e-01	-1.296144e-01
69.1525       	-4.025615e-02	1.605216e+00	-3.399243e-01	-2.102183e-01	-1.297060e-01
69.153        	-4.017706e-02	1.605202e+00	-3.399241e-01	-2.101391e-01	-1.297850e-01
69.1535       	-3.985452e-02	1.605145e+00	-3.394459e-01	-2.095775e-01	-1.298684e-01
69.154        	-3.991269e-02	1.605600e+00	-3.391840e-01	-2.095047e-01	-1.296793e-01
69.1545       	-3.989963e-02	1.605986e+00	-3.389847e-01	-2.093920e-01	-1.295927e-01
69.155        	-4.020596e-02	1.606286e+00	-3.389911e-01	-2.097015e-01	-1.292896e-01
69.1555       	-4.027533e-02	1.606043e+00	-3.390226e-01	-2.097866e-01	-1.292360e-01
69.156        	-4.040608e-02	1.605902e+00	-3.393162e-01	-2.100642e-01	-1.292520e-01
69.1565       	-4.014395e-02	1.605537e+00	-3.389676e-01	-2.096277e-01	-1.293398e-01
69.157        	-4.002135e-02	1.605728e+00	-3.388343e-01	-2.094385e-01	-1.293958e-01
69.1575       	-3.984972e-02	1.605866e+00	-3.383242e-01	-2.090118e-01	-1.293124e-01
69.158        	-4.002083e-02	1.606467e+00	-3.383766e-01	-2.092091e-01	-1.291674e-01
69.1585       	-4.011583e-02	1.606580e+00	-3.383391e-01	-2.092854e-01	-1.290537e-01
69.159        	-4.040929e-02	1.606580e+00	-3.384768e-01	-2.096477e-01	-1.288291e-01
69.1595       	-4.035861e-02	1.606178e+00	-3.384645e-01	-2.095909e-01	-1.288737e-01
69.16         	-4.035513e-02	1.606007e+00	-3.382236e-01	-2.094669e-01	-1.287567e-01
69.1605       	-4.003693e-02	1.605913e+00	-3.379418e-01	-2.090078e-01	-1.289340e-01
69.161        	-4.004056e-02	1.606172e+00	-3.377852e-01	-2.089332e-01	-1.288521e-01
69.1615       	-3.998842e-02	1.606551e+00	-3.376340e-01	-2.088054e-01	-1.288286e-01
69.162        	-4.026253e-02	1.606944e+00	-3.376647e-01	-2.090949e-01	-1.285698e-01
69.1625       	-4.034736e-02	1.606843e+00	-3.375856e-01	-2.091402e-01	-1.284454e-01
69.163        	-4.054673e-02	1.606681e+00	-3.377867e-01	-2.094401e-01	-1.283466e-01
69.1635       	-4.034039e-02	1.606414e+00	-3.376039e-01	-2.091423e-01	-1.284615e-01
69.164        	-4.025528e-02	1.606325e+00	-3.373730e-01	-2.089418e-01	-1.284312e-01
69.1645       	-4.000061e-02	1.606381e+00	-3.369921e-01	-2.084967e-01	-1.284955e-01
69.165        	-4.017073e-02	1.606889e+00	-3.368128e-01	-2.085771e-01	-1.282357e-01
69.1655       	-4.021938e-02	1.607175e+00	-3.366954e-01	-2.085671e-01	-1.281283e-01
69.166        	-4.051615e-02	1.607243e+00	-3.369457e-01	-2.089890e-01	-1.279567e-01
69.1665       	-4.048891e-02	1.606979e+00	-3.369271e-01	-2.089525e-01	-1.279746e-01
69.167        	-4.055321e-02	1.606737e+00	-3.369758e-01	-2.090411e-01	-1.279347e-01
69.1675       	-4.025474e-02	1.606729e+00	-3.365732e-01	-2.085413e-01	-1.280319e-01
69.168        	-4.022012e-02	1.606920e+00	-3.362553e-01	-2.083478e-01	-1.279075e-01
69.1685       	-4.012426e-02	1.607260e+00	-3.360263e-01	-2.081374e-01	-1.278889e-01
69.169        	-4.035081e-02	1.607635e+00	-3.359915e-01	-2.083466e-01	-1.276449e-01
69.1695       	-4.044268e-02	1.607655e+00	-3.359777e-01	-2.084315e-01	-1.275461e-01
69.17         	-4.062240e-02	1.607543e+00	-3.362308e-01	-2.087378e-01	-1.274930e-01
69.1705       	-4.052653e-02	1.607348e+00	-3.360505e-01	-2.085518e-01	-1.274987e-01
69.171        	-4.040399e-02	1.607228e+00	-3.358982e-01	-2.083531e-01	-1.275451e-01
69.1715       	-4.016581e-02	1.607362e+00	-3.355916e-01	-2.079616e-01	-1.276300e-01
69.172        	-4.022035e-02	1.607725e+00	-3.353495e-01	-2.078951e-01	-1.274544e-01
69.1725       	-4.029074e-02	1.608231e+00	-3.351497e-01	-2.078656e-01	-1.272841e-01
69.173        	-4.052261e-02	1.608308e+00	-3.352238e-01	-2.081345e-01	-1.270893e-01
69.1735       	-4.062199e-02	1.608224e+00	-3.351487e-01	-2.081964e-01	-1.269524e-01
69.174        	-4.066913e-02	1.607991e+00	-3.353090e-01	-2.083236e-01	-1.269854e-01
69.1745       	-4.047222e-02	1.607801e+00	-3.350190e-01	-2.079817e-01	-1.270373e-01
69.175        	-4.031025e-02	1.607860e+00	-3.347221e-01	-2.076713e-01	-1.270508e-01
69.1755       	-4.021053e-02	1.608242e+00	-3.343444e-01	-2.073827e-01	-1.269617e-01
69.176        	-4.034816e-02	1.608571e+00	-3.344301e-01	-2.075632e-01	-1.268669e-01