# Force coefficients
# liftDir     : (0.000000e+00 0.000000e+00 1.000000e+00)
# dragDir     : (1.000000e+00 0.000000e+00 0.000000e+00)
# pitchAxis   : (0.000000e+00 1.000000e+00 0.000000e+00)
# magUInf     : 1.000000e+00
# lRef        : 1.000000e+00
# Aref        : 1.000000e+00
# CofR        : (7.500000e+00 0.000000e+00 0.000000e+00)
#
# Time        	Cm            	Cd            	Cl            	Cl(f)         	Cl(r)         
1             	3.366814e-05	9.795792e-01	5.022283e-04	2.847823e-04	2.174460e-04
2             	4.437944e-05	1.666506e+00	2.478903e-03	1.283831e-03	1.195072e-03
3             	-1.441479e-04	2.275190e+00	3.232621e-03	1.472162e-03	1.760458e-03
4             	-4.137541e-04	2.479834e+00	2.834827e-03	1.003660e-03	1.831168e-03
5             	-5.945607e-04	2.342316e+00	1.238575e-03	2.472699e-05	1.213848e-03
6             	-5.947655e-04	2.033178e+00	-1.076930e-03	-1.133230e-03	5.630067e-05
7             	-3.927099e-04	1.703936e+00	-2.649788e-03	-1.717604e-03	-9.321842e-04
8             	-1.584171e-04	1.459580e+00	-2.798740e-03	-1.557787e-03	-1.240953e-03
9             	5.205158e-05	1.333110e+00	-1.856039e-03	-8.759678e-04	-9.800709e-04
10            	1.777678e-04	1.304288e+00	-3.908297e-04	-1.764700e-05	-3.731827e-04
11            	1.369638e-04	1.330338e+00	1.059390e-03	6.666587e-04	3.927311e-04
12            	-1.818309e-05	1.373572e+00	1.891726e-03	9.276799e-04	9.640461e-04
13            	-1.263107e-04	1.406324e+00	2.105422e-03	9.264002e-04	1.179022e-03
14            	-1.712446e-04	1.417774e+00	1.855249e-03	7.563800e-04	1.098869e-03
15            	-1.695522e-04	1.408787e+00	1.339918e-03	5.004068e-04	8.395111e-04
16            	-1.739586e-04	1.384579e+00	8.145915e-04	2.333372e-04	5.812543e-04
17            	-2.181148e-04	1.350530e+00	3.961034e-04	-2.006308e-05	4.161665e-04
18            	-2.525538e-04	1.314068e+00	4.176725e-04	-4.371753e-05	4.613900e-04
19            	-2.855581e-04	1.284625e+00	8.999199e-04	1.644018e-04	7.355181e-04
20            	-3.367292e-04	1.264916e+00	1.777172e-03	5.518568e-04	1.225315e-03
21            	-4.058170e-04	1.254680e+00	2.781530e-03	9.849478e-04	1.796582e-03
22            	-4.857385e-04	1.249407e+00	3.762404e-03	1.395463e-03	2.366940e-03
23            	-6.020931e-04	1.246413e+00	4.667474e-03	1.731644e-03	2.935830e-03
24            	-7.305606e-04	1.241873e+00	5.453009e-03	1.995944e-03	3.457065e-03
25            	-8.655170e-04	1.234135e+00	6.235788e-03	2.252377e-03	3.983411e-03
26            	-1.014019e-03	1.222903e+00	7.109330e-03	2.540646e-03	4.568684e-03
27            	-1.213725e-03	1.209525e+00	7.984963e-03	2.778756e-03	5.206206e-03
28            	-1.449923e-03	1.195229e+00	8.895628e-03	2.997891e-03	5.897737e-03
29            	-1.718621e-03	1.180472e+00	9.899875e-03	3.231316e-03	6.668559e-03
30            	-2.024724e-03	1.166344e+00	1.093677e-02	3.443662e-03	7.493111e-03
31            	-2.353421e-03	1.152599e+00	1.196917e-02	3.631166e-03	8.338007e-03
32            	-2.661867e-03	1.139525e+00	1.313648e-02	3.906374e-03	9.230108e-03
33            	-2.971677e-03	1.127730e+00	1.443899e-02	4.247817e-03	1.019117e-02
34            	-3.256296e-03	1.117823e+00	1.590547e-02	4.696437e-03	1.120903e-02
35            	-3.492411e-03	1.109931e+00	1.766409e-02	5.339636e-03	1.232446e-02
36            	-3.661934e-03	1.104851e+00	1.965549e-02	6.165811e-03	1.348968e-02
37            	-3.760984e-03	1.101925e+00	2.171884e-02	7.098434e-03	1.462040e-02
38            	-3.799156e-03	1.100684e+00	2.413958e-02	8.270632e-03	1.586895e-02
39            	-3.764486e-03	1.101333e+00	2.708958e-02	9.780307e-03	1.730928e-02
40            	-3.663461e-03	1.103600e+00	3.043909e-02	1.155608e-02	1.888301e-02
41            	-3.507385e-03	1.107496e+00	3.408375e-02	1.353449e-02	2.054926e-02
42            	-3.288778e-03	1.112904e+00	3.791418e-02	1.566831e-02	2.224587e-02
43            	-3.043338e-03	1.119001e+00	4.178489e-02	1.784911e-02	2.393578e-02
44            	-2.775211e-03	1.124766e+00	4.561102e-02	2.003030e-02	2.558072e-02
45            	-2.539724e-03	1.129297e+00	4.922122e-02	2.207089e-02	2.715033e-02
46            	-2.342290e-03	1.131909e+00	5.257973e-02	2.394757e-02	2.863215e-02
47            	-2.252947e-03	1.131801e+00	5.582450e-02	2.565930e-02	3.016519e-02
48            	-2.257384e-03	1.128193e+00	5.885181e-02	2.716852e-02	3.168329e-02
49            	-2.378675e-03	1.121368e+00	6.167881e-02	2.846073e-02	3.321808e-02
50            	-2.647155e-03	1.111812e+00	6.387572e-02	2.929071e-02	3.458502e-02
51            	-3.143871e-03	1.100863e+00	6.556394e-02	2.963810e-02	3.592584e-02
52            	-3.857791e-03	1.089766e+00	6.682435e-02	2.955438e-02	3.726997e-02
53            	-4.633110e-03	1.079018e+00	6.740026e-02	2.906702e-02	3.833324e-02
54            	-5.602640e-03	1.068245e+00	6.746195e-02	2.812834e-02	3.933362e-02
55            	-6.838055e-03	1.057271e+00	6.707428e-02	2.669908e-02	4.037520e-02
56            	-8.354235e-03	1.046048e+00	6.634555e-02	2.481854e-02	4.152701e-02
57            	-1.015944e-02	1.033962e+00	6.566298e-02	2.267205e-02	4.299093e-02
58            	-1.218030e-02	1.021061e+00	6.517003e-02	2.040471e-02	4.476532e-02
59            	-1.425670e-02	1.008056e+00	6.416861e-02	1.782761e-02	4.634100e-02
60            	-1.629824e-02	9.955403e-01	6.299014e-02	1.519683e-02	4.779331e-02
61            	-1.840589e-02	9.834649e-01	6.234118e-02	1.276470e-02	4.957649e-02
62            	-2.068499e-02	9.716532e-01	6.230341e-02	1.046671e-02	5.183669e-02
63            	-2.307149e-02	9.602286e-01	6.299087e-02	8.423946e-03	5.456692e-02
64            	-2.558280e-02	9.492382e-01	6.441445e-02	6.624428e-03	5.779002e-02
65            	-2.799330e-02	9.389947e-01	6.646430e-02	5.238850e-03	6.122545e-02
66            	-3.017786e-02	9.296249e-01	6.926989e-02	4.457085e-03	6.481280e-02
67            	-3.216254e-02	9.212226e-01	7.269259e-02	4.183757e-03	6.850883e-02
68            	-3.387853e-02	9.141176e-01	7.688777e-02	4.565358e-03	7.232241e-02
69            	-3.525848e-02	9.082684e-01	8.191269e-02	5.697871e-03	7.621482e-02
70            	-3.626169e-02	9.030491e-01	8.730699e-02	7.391810e-03	7.991518e-02
71            	-3.685152e-02	8.978476e-01	9.268103e-02	9.488996e-03	8.319203e-02
72            	-3.711191e-02	8.927207e-01	9.825409e-02	1.201513e-02	8.623895e-02
73            	-3.698787e-02	8.877357e-01	1.039101e-01	1.496719e-02	8.894292e-02
74            	-3.640860e-02	8.834563e-01	1.093937e-01	1.828826e-02	9.110547e-02
75            	-3.542647e-02	8.800621e-01	1.143300e-01	2.173855e-02	9.259149e-02
76            	-3.408559e-02	8.770465e-01	1.188641e-01	2.534647e-02	9.351766e-02
77            	-3.250860e-02	8.742607e-01	1.232364e-01	2.910959e-02	9.412679e-02
78            	-3.086964e-02	8.717742e-01	1.272294e-01	3.274505e-02	9.448434e-02
79            	-2.925189e-02	8.700000e-01	1.308671e-01	3.618165e-02	9.468542e-02
80            	-2.765537e-02	8.689722e-01	1.342431e-01	3.946619e-02	9.477693e-02
81            	-2.611154e-02	8.685321e-01	1.372145e-01	4.249570e-02	9.471877e-02
82            	-2.467274e-02	8.684500e-01	1.396073e-01	4.513092e-02	9.447641e-02
83            	-2.336624e-02	8.684363e-01	1.413130e-01	4.729027e-02	9.402276e-02
84            	-2.221955e-02	8.682658e-01	1.423750e-01	4.896797e-02	9.340707e-02
85            	-2.130360e-02	8.673769e-01	1.425947e-01	4.999376e-02	9.260096e-02
86            	-2.068830e-02	8.655863e-01	1.418255e-01	5.022444e-02	9.160105e-02
87            	-2.043968e-02	8.629515e-01	1.397710e-01	4.944581e-02	9.032518e-02
88            	-2.056903e-02	8.599069e-01	1.363328e-01	4.759736e-02	8.873542e-02
89            	-2.106469e-02	8.569866e-01	1.314777e-01	4.467414e-02	8.680353e-02
90            	-2.190598e-02	8.548089e-01	1.252779e-01	4.073297e-02	8.454494e-02
91            	-2.305632e-02	8.537656e-01	1.180680e-01	3.597770e-02	8.209033e-02
92            	-2.445886e-02	8.539452e-01	1.102063e-01	3.064428e-02	7.956201e-02
93            	-2.603115e-02	8.551997e-01	1.020787e-01	2.500820e-02	7.707049e-02
94            	-2.769897e-02	8.572982e-01	9.408968e-02	1.934587e-02	7.474381e-02
95            	-2.936101e-02	8.602610e-01	8.654499e-02	1.391149e-02	7.263350e-02
96            	-3.094289e-02	8.637882e-01	7.982951e-02	8.971868e-03	7.085765e-02
97            	-3.238902e-02	8.674326e-01	7.418301e-02	4.702483e-03	6.948053e-02
98            	-3.362570e-02	8.711169e-01	6.979432e-02	1.271460e-03	6.852286e-02
99            	-3.459092e-02	8.748416e-01	6.679075e-02	-1.195544e-03	6.798629e-02
100           	-3.526568e-02	8.785539e-01	6.525908e-02	-2.636142e-03	6.789522e-02
101           	-3.564442e-02	8.823922e-01	6.523666e-02	-3.026088e-03	6.826275e-02
102           	-3.573791e-02	8.863485e-01	6.661525e-02	-2.430286e-03	6.904554e-02
103           	-3.558348e-02	8.903221e-01	6.912816e-02	-1.019400e-03	7.014756e-02
104           	-3.522604e-02	8.942436e-01	7.228697e-02	9.174426e-04	7.136953e-02
105           	-3.471374e-02	8.980783e-01	7.566153e-02	3.117026e-03	7.254450e-02
106           	-3.409400e-02	9.018967e-01	7.882377e-02	5.317888e-03	7.350588e-02
107           	-3.343534e-02	9.057724e-01	8.137508e-02	7.252199e-03	7.412288e-02
108           	-3.280327e-02	9.098449e-01	8.299930e-02	8.696378e-03	7.430292e-02
109           	-3.226202e-02	9.141902e-01	8.344269e-02	9.459323e-03	7.398337e-02
110           	-3.188455e-02	9.187608e-01	8.247702e-02	9.353962e-03	7.312306e-02
111           	-3.174075e-02	9.234518e-01	7.996406e-02	8.241285e-03	7.172278e-02
112           	-3.189006e-02	9.281946e-01	7.585860e-02	6.039241e-03	6.981936e-02
113           	-3.237025e-02	9.329652e-01	7.022004e-02	2.739770e-03	6.748027e-02
114           	-3.320888e-02	9.378294e-01	6.322830e-02	-1.594725e-03	6.482303e-02
115           	-3.441660e-02	9.428163e-01	5.509697e-02	-6.868116e-03	6.196508e-02
116           	-3.599893e-02	9.478991e-01	4.600008e-02	-1.299889e-02	5.899897e-02
117           	-3.795492e-02	9.530066e-01	3.607620e-02	-1.991682e-02	5.599302e-02
118           	-4.026046e-02	9.580122e-01	2.548252e-02	-2.751919e-02	5.300172e-02
119           	-4.288652e-02	9.627420e-01	1.441704e-02	-3.567800e-02	5.009503e-02
120           	-4.578756e-02	9.671268e-01	3.133948e-03	-4.422059e-02	4.735454e-02
121           	-4.890373e-02	9.711824e-01	-8.123178e-03	-5.296532e-02	4.484214e-02
122           	-5.218153e-02	9.750659e-01	-1.913996e-02	-6.175151e-02	4.261156e-02
123           	-5.553828e-02	9.788175e-01	-2.973479e-02	-7.040568e-02	4.067089e-02
124           	-5.890455e-02	9.824305e-01	-3.978593e-02	-7.879752e-02	3.901159e-02
125           	-6.221741e-02	9.858894e-01	-4.912910e-02	-8.678195e-02	3.765286e-02
126           	-6.541345e-02	9.892016e-01	-5.757110e-02	-9.419900e-02	3.662790e-02
127           	-6.842843e-02	9.923713e-01	-6.497910e-02	-1.009180e-01	3.593888e-02
128           	-7.120928e-02	9.954154e-01	-7.132985e-02	-1.068742e-01	3.554436e-02
129           	-7.370772e-02	9.983601e-01	-7.657192e-02	-1.119937e-01	3.542177e-02
130           	-7.588450e-02	1.001200e+00	-8.073095e-02	-1.162500e-01	3.551903e-02
131           	-7.770543e-02	1.003989e+00	-8.382515e-02	-1.196180e-01	3.579285e-02
132           	-7.912802e-02	1.006761e+00	-8.593037e-02	-1.220932e-01	3.616283e-02
133           	-8.011734e-02	1.009566e+00	-8.707985e-02	-1.236573e-01	3.657741e-02
134           	-8.064963e-02	1.012444e+00	-8.724902e-02	-1.242741e-01	3.702512e-02
135           	-8.072114e-02	1.015388e+00	-8.642431e-02	-1.239333e-01	3.750899e-02
136           	-8.033653e-02	1.018398e+00	-8.458800e-02	-1.226305e-01	3.804253e-02
137           	-7.950529e-02	1.021457e+00	-8.176925e-02	-1.203899e-01	3.862066e-02
138           	-7.823856e-02	1.024547e+00	-7.804649e-02	-1.172618e-01	3.921531e-02
139           	-7.655696e-02	1.027646e+00	-7.345633e-02	-1.132851e-01	3.982880e-02
140           	-7.447950e-02	1.030737e+00	-6.804285e-02	-1.085009e-01	4.045807e-02
141           	-7.202962e-02	1.033799e+00	-6.188941e-02	-1.029743e-01	4.108492e-02
142           	-6.924721e-02	1.036790e+00	-5.504833e-02	-9.677137e-02	4.172305e-02
143           	-6.619526e-02	1.039643e+00	-4.757675e-02	-8.998364e-02	4.240689e-02
144           	-6.295668e-02	1.042392e+00	-3.961676e-02	-8.276506e-02	4.314830e-02
145           	-5.959427e-02	1.044995e+00	-3.132507e-02	-7.525681e-02	4.393173e-02
146           	-5.615437e-02	1.047398e+00	-2.284624e-02	-6.757749e-02	4.473125e-02
147           	-5.269916e-02	1.049526e+00	-1.431405e-02	-5.985618e-02	4.554213e-02
148           	-4.929754e-02	1.051316e+00	-5.805129e-03	-5.220010e-02	4.639497e-02
149           	-4.602298e-02	1.052704e+00	2.628639e-03	-4.470867e-02	4.733730e-02
150           	-4.295011e-02	1.053638e+00	1.085489e-02	-3.752266e-02	4.837755e-02
151           	-4.014945e-02	1.054105e+00	1.872905e-02	-3.078492e-02	4.951397e-02
152           	-3.767637e-02	1.054152e+00	2.610610e-02	-2.462332e-02	5.072943e-02
153           	-3.557278e-02	1.053794e+00	3.289604e-02	-1.912476e-02	5.202080e-02
154           	-3.386035e-02	1.053060e+00	3.903124e-02	-1.434473e-02	5.337597e-02
155           	-3.256383e-02	1.051992e+00	4.442545e-02	-1.035111e-02	5.477655e-02
156           	-3.168782e-02	1.050632e+00	4.898550e-02	-7.195067e-03	5.618057e-02
157           	-3.120619e-02	1.049029e+00	5.272965e-02	-4.841364e-03	5.757101e-02
158           	-3.106995e-02	1.047256e+00	5.579171e-02	-3.174098e-03	5.896581e-02
159           	-3.123661e-02	1.045323e+00	5.829425e-02	-2.089488e-03	6.038374e-02
160           	-3.166431e-02	1.043224e+00	6.035335e-02	-1.487640e-03	6.184099e-02
161           	-3.232211e-02	1.040956e+00	6.198458e-02	-1.329820e-03	6.331440e-02
162           	-3.315955e-02	1.038526e+00	6.328186e-02	-1.518625e-03	6.480048e-02
163           	-3.413926e-02	1.035886e+00	6.427434e-02	-2.002090e-03	6.627643e-02
164           	-3.521092e-02	1.033050e+00	6.506203e-02	-2.679899e-03	6.774193e-02
165           	-3.633730e-02	1.030036e+00	6.574639e-02	-3.464105e-03	6.921049e-02
166           	-3.749626e-02	1.026883e+00	6.636819e-02	-4.312169e-03	7.068036e-02
167           	-3.864674e-02	1.023606e+00	6.701723e-02	-5.138126e-03	7.215535e-02
168           	-3.974939e-02	1.020108e+00	6.765323e-02	-5.922773e-03	7.357600e-02
169           	-4.076927e-02	1.016366e+00	6.829906e-02	-6.619740e-03	7.491880e-02
170           	-4.167772e-02	1.012408e+00	6.896901e-02	-7.193217e-03	7.616223e-02
171           	-4.247621e-02	1.008185e+00	6.967316e-02	-7.639631e-03	7.731279e-02
172           	-4.316249e-02	1.003697e+00	7.043185e-02	-7.946566e-03	7.837841e-02
173           	-4.375014e-02	9.989809e-01	7.129564e-02	-8.102318e-03	7.939796e-02
174           	-4.424919e-02	9.940894e-01	7.227202e-02	-8.113181e-03	8.038520e-02
175           	-4.466475e-02	9.890858e-01	7.340340e-02	-7.963050e-03	8.136645e-02
176           	-4.503466e-02	9.840332e-01	7.463797e-02	-7.715679e-03	8.235364e-02
177           	-4.537343e-02	9.790032e-01	7.605274e-02	-7.347062e-03	8.339981e-02
178           	-4.571315e-02	9.740234e-01	7.770993e-02	-6.858184e-03	8.456812e-02
179           	-4.607198e-02	9.690971e-01	7.968038e-02	-6.231788e-03	8.591217e-02
180           	-4.647420e-02	9.642292e-01	8.198788e-02	-5.480257e-03	8.746814e-02
181           	-4.692725e-02	9.593254e-01	8.465747e-02	-4.598519e-03	8.925599e-02
182           	-4.744087e-02	9.543624e-01	8.775065e-02	-3.565543e-03	9.131620e-02
183           	-4.801646e-02	9.493045e-01	9.130879e-02	-2.362064e-03	9.367085e-02
184           	-4.866328e-02	9.440878e-01	9.530644e-02	-1.010059e-03	9.631650e-02
185           	-4.938768e-02	9.386603e-01	9.970851e-02	4.665726e-04	9.924194e-02
186           	-5.019594e-02	9.330161e-01	1.045211e-01	2.064604e-03	1.024565e-01
187           	-5.108083e-02	9.271694e-01	1.097639e-01	3.801102e-03	1.059628e-01
188           	-5.202613e-02	9.211479e-01	1.154178e-01	5.682774e-03	1.097350e-01
189           	-5.301545e-02	9.149079e-01	1.214123e-01	7.690676e-03	1.137216e-01
190           	-5.401505e-02	9.084554e-01	1.276873e-01	9.828577e-03	1.178587e-01
191           	-5.502261e-02	9.017529e-01	1.341694e-01	1.206208e-02	1.221073e-01
192           	-5.601820e-02	8.947911e-01	1.407353e-01	1.434945e-02	1.263859e-01
193           	-5.697230e-02	8.874958e-01	1.473359e-01	1.669564e-02	1.306402e-01
194           	-5.786381e-02	8.798859e-01	1.537885e-01	1.903042e-02	1.347580e-01
195           	-5.865437e-02	8.720755e-01	1.599561e-01	2.132366e-02	1.386324e-01
196           	-5.934709e-02	8.639795e-01	1.657167e-01	2.351126e-02	1.422054e-01
197           	-5.992046e-02	8.556385e-01	1.709754e-01	2.556722e-02	1.454081e-01
198           	-6.036811e-02	8.470965e-01	1.757482e-01	2.750597e-02	1.482422e-01
199           	-6.068818e-02	8.383542e-01	1.799717e-01	2.929765e-02	1.506740e-01
200           	-6.086123e-02	8.294847e-01	1.836065e-01	3.094202e-02	1.526645e-01
201           	-6.089217e-02	8.205057e-01	1.865864e-01	3.240102e-02	1.541854e-01
202           	-6.076678e-02	8.114284e-01	1.888642e-01	3.366534e-02	1.551989e-01
203           	-6.049362e-02	8.023062e-01	1.903270e-01	3.466988e-02	1.556571e-01
204           	-6.009753e-02	7.932437e-01	1.908920e-01	3.534846e-02	1.555435e-01
205           	-5.956665e-02	7.843932e-01	1.906320e-01	3.574933e-02	1.548826e-01
206           	-5.893642e-02	7.758719e-01	1.895121e-01	3.581964e-02	1.536925e-01
207           	-5.822839e-02	7.678736e-01	1.875058e-01	3.552449e-02	1.519813e-01
208           	-5.745467e-02	7.605124e-01	1.845245e-01	3.480760e-02	1.497169e-01
209           	-5.663779e-02	7.538881e-01	1.805039e-01	3.361418e-02	1.468898e-01
210           	-5.579674e-02	7.479892e-01	1.753679e-01	3.188723e-02	1.434807e-01
211           	-5.496852e-02	7.428729e-01	1.691251e-01	2.959404e-02	1.395311e-01
212           	-5.417882e-02	7.387942e-01	1.619519e-01	2.679710e-02	1.351548e-01
213           	-5.343492e-02	7.357942e-01	1.539151e-01	2.352265e-02	1.303925e-01
214           	-5.275762e-02	7.338477e-01	1.450220e-01	1.975338e-02	1.252686e-01
215           	-5.216150e-02	7.328755e-01	1.352274e-01	1.545218e-02	1.197752e-01
216           	-5.163249e-02	7.327905e-01	1.246384e-01	1.068672e-02	1.139517e-01
217           	-5.115996e-02	7.336404e-01	1.135298e-01	5.604922e-03	1.079248e-01
218           	-5.074151e-02	7.355214e-01	1.022785e-01	3.977390e-04	1.018808e-01
219           	-5.037296e-02	7.385235e-01	9.129313e-02	-4.726397e-03	9.601953e-02
220           	-5.005732e-02	7.425674e-01	8.076671e-02	-9.673964e-03	9.044068e-02
221           	-4.979710e-02	7.475055e-01	7.086045e-02	-1.436688e-02	8.522733e-02
222           	-4.959642e-02	7.532346e-01	6.176194e-02	-1.871545e-02	8.047739e-02
223           	-4.945516e-02	7.596345e-01	5.357287e-02	-2.266873e-02	7.624159e-02
224           	-4.936713e-02	7.665069e-01	4.642257e-02	-2.615584e-02	7.257841e-02
225           	-4.932926e-02	7.736191e-01	4.052102e-02	-2.906875e-02	6.958976e-02
226           	-4.934694e-02	7.807812e-01	3.598158e-02	-3.135615e-02	6.733774e-02
227           	-4.942867e-02	7.879353e-01	3.289724e-02	-3.298006e-02	6.587729e-02
228           	-4.957716e-02	7.950475e-01	3.129302e-02	-3.393065e-02	6.522367e-02
229           	-4.981153e-02	8.019335e-01	3.101698e-02	-3.430304e-02	6.532002e-02
230           	-5.015629e-02	8.084056e-01	3.188100e-02	-3.421579e-02	6.609678e-02
231           	-5.063406e-02	8.143633e-01	3.357354e-02	-3.384729e-02	6.742083e-02
232           	-5.125027e-02	8.197621e-01	3.587665e-02	-3.331194e-02	6.918859e-02
233           	-5.200431e-02	8.245341e-01	3.858842e-02	-3.271010e-02	7.129853e-02
234           	-5.287534e-02	8.286677e-01	4.141471e-02	-3.216799e-02	7.358269e-02
235           	-5.382154e-02	8.321805e-01	4.419696e-02	-3.172307e-02	7.592002e-02
236           	-5.481525e-02	8.350205e-01	4.679512e-02	-3.141769e-02	7.821281e-02
237           	-5.583305e-02	8.372180e-01	4.909350e-02	-3.128630e-02	8.037980e-02
238           	-5.686132e-02	8.388701e-01	5.098091e-02	-3.137086e-02	8.235177e-02
239           	-5.789918e-02	8.400671e-01	5.239066e-02	-3.170386e-02	8.409451e-02
240           	-5.893848e-02	8.409569e-01	5.331529e-02	-3.228083e-02	8.559612e-02
241           	-5.998852e-02	8.416505e-01	5.375320e-02	-3.311192e-02	8.686512e-02
242           	-6.105113e-02	8.422309e-01	5.373833e-02	-3.418197e-02	8.792030e-02
243           	-6.212080e-02	8.427697e-01	5.340282e-02	-3.541939e-02	8.882221e-02
244           	-6.321691e-02	8.432524e-01	5.290549e-02	-3.676417e-02	8.966966e-02
245           	-6.433619e-02	8.436110e-01	5.237387e-02	-3.814926e-02	9.052312e-02
246           	-6.546389e-02	8.438242e-01	5.201891e-02	-3.945443e-02	9.147334e-02
247           	-6.659559e-02	8.438138e-01	5.192239e-02	-4.063439e-02	9.255678e-02
248           	-6.770605e-02	8.435617e-01	5.208460e-02	-4.166375e-02	9.374835e-02
249           	-6.877371e-02	8.430211e-01	5.251829e-02	-4.251456e-02	9.503286e-02
250           	-6.976268e-02	8.420673e-01	5.326110e-02	-4.313213e-02	9.639322e-02
251           	-7.063864e-02	8.405803e-01	5.435972e-02	-4.345878e-02	9.781850e-02
252           	-7.137040e-02	8.384605e-01	5.578691e-02	-4.347695e-02	9.926386e-02
253           	-7.193123e-02	8.356811e-01	5.761548e-02	-4.312349e-02	1.007390e-01
254           	-7.229752e-02	8.322546e-01	5.986129e-02	-4.236687e-02	1.022282e-01
255           	-7.245918e-02	8.282199e-01	6.251188e-02	-4.120324e-02	1.037151e-01
256           	-7.241760e-02	8.236739e-01	6.558672e-02	-3.962424e-02	1.052110e-01
257           	-7.216382e-02	8.186778e-01	6.907337e-02	-3.762713e-02	1.067005e-01
258           	-7.170394e-02	8.132834e-01	7.291508e-02	-3.524640e-02	1.081615e-01
259           	-7.105280e-02	8.075557e-01	7.709162e-02	-3.250699e-02	1.095986e-01
260           	-7.021981e-02	8.015337e-01	8.158045e-02	-2.942958e-02	1.110100e-01
261           	-6.922951e-02	7.952331e-01	8.630997e-02	-2.607452e-02	1.123845e-01
262           	-6.811831e-02	7.887052e-01	9.125315e-02	-2.249173e-02	1.137449e-01
263           	-6.692389e-02	7.820342e-01	9.637555e-02	-1.873612e-02	1.151117e-01
264           	-6.568610e-02	7.752353e-01	1.016142e-01	-1.487898e-02	1.164932e-01
265           	-6.444202e-02	7.684082e-01	1.069417e-01	-1.097118e-02	1.179129e-01
266           	-6.322355e-02	7.616226e-01	1.123639e-01	-7.041605e-03	1.194055e-01
267           	-6.205767e-02	7.549139e-01	1.178752e-01	-3.120079e-03	1.209953e-01
268           	-6.097004e-02	7.483702e-01	1.235051e-01	7.825116e-04	1.227226e-01
269           	-5.998532e-02	7.420512e-01	1.292034e-01	4.616394e-03	1.245870e-01
270           	-5.911893e-02	7.359560e-01	1.349090e-01	8.335577e-03	1.265734e-01
271           	-5.837481e-02	7.300746e-01	1.405879e-01	1.191915e-02	1.286688e-01
272           	-5.775025e-02	7.244220e-01	1.462434e-01	1.537147e-02	1.308720e-01
273           	-5.723243e-02	7.190162e-01	1.518649e-01	1.870000e-02	1.331649e-01
274           	-5.680899e-02	7.138299e-01	1.574464e-01	2.191421e-02	1.355322e-01
275           	-5.646518e-02	7.088535e-01	1.629688e-01	2.501923e-02	1.379496e-01
276           	-5.618078e-02	7.040729e-01	1.683783e-01	2.800834e-02	1.403699e-01
277           	-5.592892e-02	6.994855e-01	1.736452e-01	3.089366e-02	1.427515e-01
278           	-5.568616e-02	6.950760e-01	1.787288e-01	3.367822e-02	1.450505e-01
279           	-5.542942e-02	6.908335e-01	1.835603e-01	3.635075e-02	1.472096e-01
280           	-5.515025e-02	6.867496e-01	1.880947e-01	3.889711e-02	1.491976e-01
281           	-5.484575e-02	6.828270e-01	1.923228e-01	4.131564e-02	1.510071e-01
282           	-5.451291e-02	6.790304e-01	1.962538e-01	4.361398e-02	1.526398e-01
283           	-5.415311e-02	6.753734e-01	1.998879e-01	4.579084e-02	1.540971e-01
284           	-5.377585e-02	6.718350e-01	2.032183e-01	4.783327e-02	1.553850e-01
285           	-5.337431e-02	6.684206e-01	2.062316e-01	4.974149e-02	1.564901e-01
286           	-5.294584e-02	6.651673e-01	2.088834e-01	5.149588e-02	1.573876e-01
287           	-5.249111e-02	6.620565e-01	2.112053e-01	5.311153e-02	1.580938e-01
288           	-5.201205e-02	6.590994e-01	2.131823e-01	5.457911e-02	1.586032e-01
289           	-5.151922e-02	6.562963e-01	2.148317e-01	5.589661e-02	1.589350e-01
290           	-5.103211e-02	6.536276e-01	2.161817e-01	5.705876e-02	1.591230e-01
291           	-5.056661e-02	6.511403e-01	2.172718e-01	5.806930e-02	1.592025e-01
292           	-5.013992e-02	6.488409e-01	2.181660e-01	5.894307e-02	1.592229e-01
293           	-4.976184e-02	6.467115e-01	2.189235e-01	5.969990e-02	1.592236e-01
294           	-4.943925e-02	6.447579e-01	2.195840e-01	6.035276e-02	1.592313e-01
295           	-4.917644e-02	6.429843e-01	2.201599e-01	6.090351e-02	1.592564e-01
296           	-4.897950e-02	6.413972e-01	2.206607e-01	6.135084e-02	1.593098e-01
297           	-4.885648e-02	6.400157e-01	2.210531e-01	6.167005e-02	1.593830e-01
298           	-4.881838e-02	6.388797e-01	2.213079e-01	6.183555e-02	1.594723e-01
299           	-4.886121e-02	6.379978e-01	2.214382e-01	6.185788e-02	1.595803e-01
300           	-4.897401e-02	6.373729e-01	2.214693e-01	6.176066e-02	1.597087e-01
301           	-4.914872e-02	6.369769e-01	2.214217e-01	6.156215e-02	1.598596e-01
302           	-4.938304e-02	6.367756e-01	2.213067e-01	6.127029e-02	1.600364e-01
303           	-4.967432e-02	6.367316e-01	2.211265e-01	6.088894e-02	1.602376e-01
304           	-5.001719e-02	6.368202e-01	2.208765e-01	6.042108e-02	1.604555e-01
305           	-5.040650e-02	6.370365e-01	2.205601e-01	5.987353e-02	1.606865e-01
306           	-5.083544e-02	6.373699e-01	2.201880e-01	5.925855e-02	1.609294e-01
307           	-5.129904e-02	6.378045e-01	2.197856e-01	5.859375e-02	1.611918e-01
308           	-5.179390e-02	6.383203e-01	2.193711e-01	5.789166e-02	1.614795e-01
309           	-5.231526e-02	6.388853e-01	2.189429e-01	5.715618e-02	1.617867e-01
310           	-5.285931e-02	6.394666e-01	2.185046e-01	5.639300e-02	1.621116e-01
311           	-5.342528e-02	6.400451e-01	2.180655e-01	5.560746e-02	1.624580e-01
312           	-5.401060e-02	6.406033e-01	2.176424e-01	5.481060e-02	1.628318e-01
313           	-5.461020e-02	6.411210e-01	2.172354e-01	5.400752e-02	1.632279e-01
314           	-5.522166e-02	6.415786e-01	2.168434e-01	5.320007e-02	1.636434e-01
315           	-5.583957e-02	6.419477e-01	2.164762e-01	5.239855e-02	1.640777e-01
316           	-5.645978e-02	6.422154e-01	2.161494e-01	5.161489e-02	1.645345e-01
317           	-5.707974e-02	6.423731e-01	2.158816e-01	5.086106e-02	1.650205e-01
318           	-5.769834e-02	6.424419e-01	2.156729e-01	5.013809e-02	1.655348e-01
319           	-5.831547e-02	6.424632e-01	2.155281e-01	4.944859e-02	1.660795e-01
320           	-5.893024e-02	6.424483e-01	2.154548e-01	4.879716e-02	1.666577e-01
321           	-5.954298e-02	6.424071e-01	2.154632e-01	4.818862e-02	1.672746e-01
322           	-6.015185e-02	6.423492e-01	2.155622e-01	4.762927e-02	1.679330e-01
323           	-6.075419e-02	6.422796e-01	2.157574e-01	4.712450e-02	1.686329e-01
324           	-6.134804e-02	6.422068e-01	2.160579e-01	4.668090e-02	1.693770e-01
325           	-6.192861e-02	6.421323e-01	2.164768e-01	4.630979e-02	1.701670e-01
326           	-6.249405e-02	6.420625e-01	2.170129e-01	4.601242e-02	1.710005e-01
327           	-6.304094e-02	6.420077e-01	2.176686e-01	4.579335e-02	1.718752e-01
328           	-6.356356e-02	6.419548e-01	2.184478e-01	4.566037e-02	1.727875e-01
329           	-6.405652e-02	6.418845e-01	2.193604e-01	4.562367e-02	1.737367e-01
330           	-6.451696e-02	6.417897e-01	2.204018e-01	4.568392e-02	1.747178e-01
331           	-6.493938e-02	6.416660e-01	2.215839e-01	4.585258e-02	1.757313e-01
332           	-6.531881e-02	6.415156e-01	2.229060e-01	4.613421e-02	1.767718e-01
333           	-6.565275e-02	6.413464e-01	2.243788e-01	4.653664e-02	1.778421e-01
334           	-6.593594e-02	6.411369e-01	2.259951e-01	4.706160e-02	1.789335e-01
335           	-6.616892e-02	6.408920e-01	2.277416e-01	4.770190e-02	1.800397e-01
336           	-6.635012e-02	6.405976e-01	2.296113e-01	4.845552e-02	1.811558e-01
337           	-6.648235e-02	6.402591e-01	2.315923e-01	4.931379e-02	1.822785e-01
338           	-6.656690e-02	6.398931e-01	2.336816e-01	5.027391e-02	1.834077e-01
339           	-6.660666e-02	6.395149e-01	2.358642e-01	5.132543e-02	1.845387e-01
340           	-6.660334e-02	6.391330e-01	2.381254e-01	5.245938e-02	1.856661e-01
341           	-6.656161e-02	6.387774e-01	2.404503e-01	5.366356e-02	1.867868e-01
342           	-6.648465e-02	6.384562e-01	2.428192e-01	5.492496e-02	1.878943e-01
343           	-6.637588e-02	6.381897e-01	2.452292e-01	5.623874e-02	1.889905e-01
344           	-6.623668e-02	6.379736e-01	2.476700e-01	5.759832e-02	1.900717e-01
345           	-6.606723e-02	6.378032e-01	2.501412e-01	5.900338e-02	1.911378e-01
346           	-6.586922e-02	6.376712e-01	2.526330e-01	6.044728e-02	1.921857e-01
347           	-6.564362e-02	6.375804e-01	2.551500e-01	6.193136e-02	1.932186e-01
348           	-6.539000e-02	6.375318e-01	2.576799e-01	6.344996e-02	1.942300e-01
349           	-6.511084e-02	6.375308e-01	2.602174e-01	6.499788e-02	1.952196e-01
350           	-6.480745e-02	6.375871e-01	2.627577e-01	6.657139e-02	1.961863e-01
351           	-6.447970e-02	6.376964e-01	2.652804e-01	6.816048e-02	1.971199e-01
352           	-6.412923e-02	6.378603e-01	2.677782e-01	6.975986e-02	1.980183e-01
353           	-6.375756e-02	6.380855e-01	2.702338e-01	7.135935e-02	1.988745e-01
354           	-6.336627e-02	6.383650e-01	2.726353e-01	7.295137e-02	1.996839e-01
355           	-6.295881e-02	6.387036e-01	2.749775e-01	7.452994e-02	2.004476e-01
356           	-6.253917e-02	6.390995e-01	2.772528e-01	7.608723e-02	2.011656e-01
357           	-6.210947e-02	6.395556e-01	2.794580e-01	7.761955e-02	2.018385e-01
358           	-6.167203e-02	6.400681e-01	2.815826e-01	7.911927e-02	2.024633e-01
359           	-6.122964e-02	6.406354e-01	2.836021e-01	8.057141e-02	2.030307e-01
360           	-6.078619e-02	6.412635e-01	2.854815e-01	8.195453e-02	2.035269e-01
361           	-6.034300e-02	6.419442e-01	2.871976e-01	8.325582e-02	2.039418e-01
362           	-5.990357e-02	6.426807e-01	2.887401e-01	8.446646e-02	2.042736e-01
363           	-5.947302e-02	6.434834e-01	2.900950e-01	8.557447e-02	2.045205e-01