# kMean  POINT_DATA 91129
# x  y  z  kMean
0 0 0 0.00566696
0 0.00368111 0 0.00375
0 0.00749587 0 0.00375
0 0.0114491 0 0.00375
0 0.0155459 0 0.00375
0 0.0197915 0 0.00375
0 0.0241911 0 0.00375
0 0.0287506 0 0.00375
0 0.0334755 0 0.00375
0 0.038372 0 0.00375
0 0.0434463 0 0.00375
0 0.0487048 0 0.00375
0 0.0541543 0 0.00375
0 0.0598016 0 0.00375
0 0.0656539 0 0.00375
0 0.0717187 0 0.00375
0.0757758 0.00184056 0 0.00998372
0.0757758 0.00558849 3.46945e-18 0.00346135
0.0757758 0.0094725 0 0.00306937
0.0757758 0.0134975 0 0.00343593
0.0757758 0.0176687 0 0.00359369
0 0.0780037 0 0.00375
0.0757758 0.0219913 0 0.00365434
0.0757758 0.0264709 0 0.00368516
0.0757758 0.031113 3.46945e-18 0.0037029
0.0757758 0.0359238 -3.46945e-18 0.00371416
0 0.0845169 0 0.00375
0.0757758 0.0409092 0 0.00372181
0.0757758 0.0460756 0 0.00372729
0 0.0912666 0 0.00375
0.0757758 0.0514296 3.46945e-18 0.00373137
0.0757758 0.0569779 0 0.00373448
0 0.0982613 0 0.00375
0.0757758 0.0627277 0 0.003737
0.0757758 0.0686863 0 0.00373913
0 0.10551 0 0.00375
0.0757758 0.0748612 3.46945e-18 0.00374096
0.0757758 0.0812603 3.46945e-18 0.00374252
0 0.113022 0 0.00375
0.0757758 0.0878917 0 0.00374384
0 0.120806 0 0.00375
0.0757758 0.0947639 -3.46945e-18 0.00374494
0.0757758 0.101886 -3.46945e-18 0.00374587
0 0.128874 0 0.00375
0.0757758 0.109266 0 0.00374664
0 0.137234 0 0.00375
0.0757758 0.116914 -3.46945e-18 0.00374728
0 0.145897 0 0.00375
0.0757758 0.12484 0 0.00374782
0.151552 0 0 0.00625624
0.151552 0.00368111 0 0.00439276
0.151552 0.00749587 0 0.00260741
0.151552 0.0114491 0 0.00293159
0.151552 0.0155459 0 0.00329937
0.151552 0.0197915 0 0.00347844
0.0757758 0.133054 3.46945e-18 0.00374829
0.151552 0.0241911 0 0.0035679
0.151552 0.0287506 0 0.00362009
0 0.154876 0 0.00375
0.151552 0.0334755 0 0.00365324
0.151552 0.038372 0 0.00367556
0.151552 0.0434463 0 0.00369127
0.151552 0.0487048 0 0.00370278
0.0757758 0.141566 0 0.0037487
0.151552 0.0541543 0 0.00371147
0.151552 0.0598016 0 0.00371823
0 0.16418 0 0.00375
0.151552 0.0656539 0 0.00372364
0.151552 0.0717187 0 0.00372805
0.0757758 0.150387 0 0.00374908
0.151552 0.0780037 0 0.0037317
0.151552 0.0845169 0 0.00373472
0 0.173822 0 0.00375
0.0757758 0.159528 3.46945e-18 0.00374943
0.151552 0.0912666 0 0.00373724
0.151552 0.0982613 0 0.00373936
0 0.183814 0 0.00375
0.151552 0.10551 0 0.00374114
0.0757758 0.169001 0 0.00374976
0.151552 0.113022 0 0.00374268
0.151552 0.120806 0 0.003744
0 0.194169 0 0.00375
0.0757758 0.178818 0 0.0037501
0.151552 0.128874 0 0.00374514
0.0757758 0.188991 3.46945e-18 0.00375042
0.151552 0.137234 0 0.00374613
0 0.2049 0 0.00375
0.151552 0.145897 0 0.00374699
0.0757758 0.199534 -3.46945e-18 0.00375074
0 0.21602 0 0.00375
0.151552 0.154876 0 0.00374774
0.219992 0.00184056 -3.46945e-18 0.0028156
0.219992 0.00558849 0 0.00166871
0.219992 0.0094725 0 0.00233143
0.219992 0.0134975 0 0.00293901
0.219992 0.0176687 0 0.00326197
0.219992 0.0219913 3.46945e-18 0.00342614
0.219992 0.0264709 3.46945e-18 0.00352162
0.219992 0.031113 0 0.00358204
0.219992 0.0359238 0 0.00362237
0.151552 0.16418 0 0.00374841
0.0757758 0.21046 0 0.00375105
0.219992 0.0409092 0 0.00365042
0.219992 0.0460756 0 0.00367069
0.219992 0.0514296 0 0.00368584
0.219992 0.0569779 3.46945e-18 0.00369749
0 0.227544 0 0.00375
0.219992 0.0627277 0 0.00370665
0.219992 0.0686863 0 0.003714
0.151552 0.173822 0 0.00374901
0.219992 0.0748612 -3.46945e-18 0.00371997
0.0757758 0.221782 0 0.00375135
0.219992 0.0812603 0 0.00372488
0.219992 0.0878917 0 0.00372895
0.151552 0.183814 0 0.00374956
7.47804e-17 0.239487 0 0.00375
0.219992 0.0947639 0 0.00373234
0.219992 0.101886 0 0.0037352
0.0757758 0.233515 0 0.0037516
0.219992 0.109266 0 0.00373766
0.151552 0.194169 0 0.00375007
0.219992 0.116914 -3.46945e-18 0.00373978
0 0.251863 0 0.00375
0.219992 0.12484 0 0.00374164
0.151552 0.2049 0 0.00375055
0.0757758 0.245675 3.46945e-18 0.0037518
0.219992 0.133054 0 0.00374325
0.219992 0.141566 0 0.00374464
0.151552 0.21602 0 0.003751
0 0.264688 0 0.00375
0.219992 0.150387 0 0.00374583
0.0757758 0.258276 3.46945e-18 0.00375192
0.219992 0.159528 0 0.00374686
0.151552 0.227544 0 0.0037514
0.219992 0.169001 0 0.00374776
0 0.27798 0 0.00375
0.0757758 0.271334 0 0.00375197
0.151552 0.239487 3.70074e-18 0.00375176
0.219992 0.178818 0 0.00374855
0.288433 0 0 0.00186678
0.288433 0.00368111 0 0.00159101
0.288433 0.00749587 0 0.00178377
0.288433 0.0114491 0 0.00256792
0.288433 0.0155459 3.70074e-18 0.00304738
0.288433 0.0197915 0 0.00328718
0.288433 0.0241911 3.70074e-18 0.00341068
0.288433 0.0287506 0 0.00349232
0.219992 0.188991 0 0.00374928
0.288433 0.0334755 0 0.00355106
0.288433 0.038372 0 0.00359385
0.288433 0.0434463 0 0.00362551
7.47804e-17 0.291753 0 0.00375
0.288433 0.0487048 0 0.00364942
0.288433 0.0541543 0 0.00366787
0.151552 0.251863 0 0.00375206
0.288433 0.0598016 3.70074e-18 0.00368236
0.0757758 0.284866 -3.46945e-18 0.00375197
0.288433 0.0656539 3.70074e-18 0.00369392
0.219992 0.199534 0 0.00374994
0.288433 0.0717187 0 0.00370327
0.288433 0.0780037 0 0.0037109
0.288433 0.0845169 0 0.00371717
0.288433 0.0912666 0 0.00372246
0.219992 0.21046 0 0.00375054
0.288433 0.0982613 0 0.00372708
0.151552 0.264688 3.70074e-18 0.0037523
0 0.306027 0 0.00375
0.288433 0.10551 0 0.00373118
0.0757758 0.29889 -3.46945e-18 0.00375192
0.288433 0.113022 0 0.00373478
0.219992 0.221782 0 0.00375109
0.288433 0.120806 0 0.00373793
0.288433 0.128874 0 0.00374067
0.151552 0.27798 0 0.00375249
0.288433 0.137234 0 0.00374304
0 0.320819 0 0.00375
0.219992 0.233515 0 0.00375158
0.0757758 0.313423 0 0.00375183
0.288433 0.145897 0 0.00374509
0.288433 0.154876 0 0.00374686
0.151552 0.291753 0 0.00375262
0.219992 0.245675 0 0.00375204
0.288433 0.16418 0 0.00374837
0 0.336148 0 0.00375
0.288433 0.173822 0 0.00374965
0.0757758 0.328484 0 0.00375173
0.219992 0.258276 0 0.00375245
0.151552 0.306027 0 0.00375272
0.288433 0.183814 0 0.00375075
0.288433 0.194169 0 0.00375169
0.219992 0.271334 -3.46945e-18 0.00375281
0.350249 0.00184056 0 0.000987743
0.350249 0.00558849 0 0.000987718
0.350249 0.0094725 0 0.00217905
0.350249 0.0134975 0 0.00283211
0.350249 0.0176687 3.46945e-18 0.00316424
0.350249 0.0219913 0 0.00330471
0.350249 0.0264709 -3.46945e-18 0.00339955
0.350249 0.031113 -3.46945e-18 0.00347482
0 0.352034 0 0.00375
0.350249 0.0359238 3.46945e-18 0.00353254
0.0757758 0.344091 0 0.00375164
0.350249 0.0409092 0 0.00357631
0.350249 0.0460756 0 0.00360975
0.288433 0.2049 0 0.0037525
0.350249 0.0514296 0 0.00363564
0.151552 0.320819 0 0.00375279
0.350249 0.0569779 3.46945e-18 0.00365598
0.350249 0.0627277 0 0.00367219
0.350249 0.0686863 0 0.00368526
0.350249 0.0748612 3.46945e-18 0.00369588
0.350249 0.0812603 0 0.00370456
0.219992 0.284866 0 0.00375312
0.288433 0.21602 0 0.00375321
0.350249 0.0878917 0 0.00371174
0.350249 0.0947639 0 0.00371802
0.350249 0.101886 0 0.00372375
0.350249 0.109266 3.46945e-18 0.00372888
0.288433 0.227544 0 0.00375384
0.0757758 0.360265 0 0.00375163
0 0.368496 0 0.00375
0.151552 0.336148 0 0.00375285
0.350249 0.116914 3.46945e-18 0.00373339
0.219992 0.29889 0 0.00375339
0.370854 0.0241911 0 0.00336089
0.350249 0.12484 0 0.00373731
0.350249 0.133054 3.46945e-18 0.00374072
0.288433 0.239487 -9.25186e-19 0.0037544
0.350249 0.141566 -3.46945e-18 0.00374369
0.350249 0.150387 0 0.00374624
0.288433 0.251863 0 0.00375492
0.219992 0.313423 0 0.00375362
0.151552 0.352034 0 0.00375295
0.0757758 0.377026 -3.46945e-18 0.0037517
0.350249 0.159528 3.46945e-18 0.00374843
0 0.385557 0 0.00375
0.350249 0.169001 3.46945e-18 0.00375027
0.288433 0.264688 0 0.00375541
0.350249 0.178818 0 0.0037518
0.219992 0.328484 0 0.00375383
0.350249 0.188991 0 0.00375308
0.151552 0.368496 0 0.00375311
0.288433 0.27798 3.70074e-18 0.00375587
0.0757758 0.394396 -3.46945e-18 0.00375179
0.350249 0.199534 3.46945e-18 0.00375415
7.47804e-17 0.403236 0 0.00375
0.219992 0.344091 0 0.00375404
0.350249 0.21046 0 0.00375505
0.288433 0.291753 0 0.00375631
0.412065 9.0819e-19 0 0.000804775
0.412065 0.00368111 -2.31296e-18 0.000869129
0.412065 0.00749587 -2.31296e-18 0.00160062
0.412065 0.0114491 -2.31296e-18 0.00259084
0.412065 0.0155459 -2.31296e-18 0.00305091
0.412065 0.0197915 0 0.00324456
0.412065 0.0241911 0 0.003336
0.412065 0.0264709 0 0.00337014
0.412065 0.0287506 -2.31296e-18 0.00340428
0.412065 0.0334755 -2.31296e-18 0.00346704
0.412065 0.038372 -2.31296e-18 0.00352016
0.151552 0.385557 0 0.00375331
0.412065 0.0434463 0 0.00356301
0.350249 0.221782 0 0.00375582
0.412065 0.0487048 0 0.00359713
0.412065 0.0541543 0 0.00362433
0.412065 0.0569779 0 0.00363523
0.412065 0.0598016 -2.31296e-18 0.00364614
0.412065 0.0656539 -2.31296e-18 0.00366375
0.412065 0.0717187 -2.31296e-18 0.00367802
0.0757758 0.412397 0 0.00375186
0.412065 0.0780037 -2.31296e-18 0.00368972
0.288433 0.306027 0 0.00375671
0.412065 0.0845169 -2.31296e-18 0.00369959
0.350249 0.233515 0 0.0037565
0 0.421557 0 0.00375
0.412065 0.0912666 -2.31296e-18 0.00370823
0.219992 0.360265 -3.46945e-18 0.00375429
0.412065 0.0982613 0 0.00371603
0.412065 0.10551 0 0.00372308
0.412065 0.113022 -2.31296e-18 0.00372938
0.350249 0.245675 3.46945e-18 0.00375712
0.412065 0.120806 0 0.00373494
0.151552 0.403236 0 0.00375352
0.288433 0.320819 0 0.0037571
0.412065 0.128874 -2.31296e-18 0.0037398
0.412065 0.137234 0 0.00374404
0.350249 0.258276 3.46945e-18 0.0037577
0.219992 0.377026 0 0.00375458
0.412065 0.145897 -2.31296e-18 0.0037477
0.0757758 0.431051 0 0.0037519
0.412065 0.154876 -2.31296e-18 0.00375084
0 0.440544 0 0.00375
0.288433 0.336148 0 0.00375748
0.350249 0.271334 0 0.00375828
0.412065 0.16418 -2.31296e-18 0.00375349
0.412065 0.173822 -2.31296e-18 0.00375573
0.151552 0.421557 0 0.00375372
0.412065 0.183814 -2.31296e-18 0.00375761
0.350249 0.284866 0 0.00375885
0.219992 0.394396 0 0.00375492
0.288433 0.352034 3.70074e-18 0.00375786
0.412065 0.194169 0 0.00375916
0.0757758 0.450382 0 0.00375192
0.412065 0.2049 -2.31296e-18 0.00376045
0 0.46022 0 0.00375
0.350249 0.29889 0 0.00375941
0.412065 0.21602 0 0.00376152
0.151552 0.440544 0 0.0037539
0.219992 0.412397 3.46945e-18 0.00375526
0.467897 0.00184056 -3.46945e-18 0.000634572
0.467897 0.00558849 0 0.000883025
0.288433 0.368496 0 0.00375827
0.467897 0.0094725 0 0.00235033
0.467897 0.0134975 3.46945e-18 0.00299
0.467897 0.0176687 3.46945e-18 0.00320994
0.467897 0.0219913 -3.46945e-18 0.00329796
0.467897 0.0264709 -3.46945e-18 0.00334404
0.467897 0.031113 3.46945e-18 0.00340332
0.467897 0.0359238 0 0.0034626
0.467897 0.038372 0 0.00349226
0.467897 0.0409092 0 0.00351395
0.350249 0.313423 0 0.00375996
0.467897 0.0460756 0 0.00355621
0.467897 0.0514296 3.46945e-18 0.00359048
0.412065 0.227544 -2.31296e-18 0.00376243
0.467897 0.0569779 0 0.00361821
0.467897 0.0627277 -3.46945e-18 0.00364068
0.467897 0.0686863 0 0.00365894
0.467897 0.0748612 3.46945e-18 0.00367377
0.467897 0.0812603 3.46945e-18 0.00368616
0.467897 0.0878917 3.46945e-18 0.00369709
0.0757758 0.470415 3.46945e-18 0.00375194
0.412065 0.239487 -2.31296e-18 0.00376322
0.467897 0.0947639 0 0.00370701
0.467897 0.101886 3.46945e-18 0.00371601
0.350249 0.328484 0 0.0037605
0.467897 0.109266 3.46945e-18 0.00372413
0 0.48061 0 0.00375
0.288433 0.385557 0 0.0037587
0.467897 0.116914 3.46945e-18 0.00373136
0.412065 0.251863 -2.31296e-18 0.00376392
0.219992 0.431051 0 0.00375559
0.467897 0.12484 0 0.00373774
0.151552 0.46022 0 0.00375407
0.467897 0.133054 0 0.00374333
0.467897 0.141566 -3.46945e-18 0.00374817
0.412065 0.264688 -2.31296e-18 0.00376457
0.350249 0.344091 0 0.00376103
0.467897 0.150387 0 0.00375233
0.467897 0.154876 0 0.00375564
0.467897 0.159528 0 0.00375586
0.288433 0.403236 0 0.00375916
0.0757758 0.491176 3.46945e-18 0.00375195
0.412065 0.27798 -2.31296e-18 0.0037652
0.467897 0.169001 0 0.00375884
0.467897 0.178818 -3.46945e-18 0.00376136
0.219992 0.450382 3.46945e-18 0.0037559
6.73024e-17 0.501741 3.70074e-18 0.00375
0.350249 0.360265 0 0.00376155
0.151552 0.48061 0 0.00375422
0.467897 0.188991 0 0.00376346
0.412065 0.291753 0 0.0037658
0.467897 0.199534 0 0.00376518
0.288433 0.421557 0 0.00375962
0.467897 0.21046 3.46945e-18 0.0037666
0.412065 0.306027 0 0.00376639
0.350249 0.377026 0 0.00376209
0.467897 0.221782 0 0.00376777
0.0757758 0.51269 0 0.00375198
0.219992 0.470415 0 0.00375618
0.467897 0.227544 0 0.00377004
0.412065 0.320819 -2.31296e-18 0.00376697
0.467897 0.233515 0 0.00376876
6.73024e-17 0.523639 3.70074e-18 0.00375
0.523729 0 0 0.000540649
0.523729 0.00368111 0 0.000696486
0.523729 0.00749587 -2.31296e-18 0.00166754
0.523729 0.0114491 0 0.00282269
0.523729 0.0155459 0 0.00323244
0.523729 0.0197915 -2.31296e-18 0.0033209
0.151552 0.501741 0 0.00375437
0.523729 0.0241911 0 0.00334529
0.523729 0.0287506 0 0.00336944
0.523729 0.0334755 0 0.0034135
0.523729 0.038372 0 0.00346437
0.523729 0.0434463 0 0.00351162
0.523729 0.0487048 0 0.00355219
0.523729 0.0541543 0 0.00358601
0.288433 0.440544 0 0.00376007
0.523729 0.0598016 0 0.00361391
0.350249 0.394396 0 0.00376265
0.523729 0.0656539 0 0.00363681
0.467897 0.245675 3.46945e-18 0.0037696
0.523729 0.0717187 0 0.00365559
0.523729 0.0780037 0 0.00367131
0.523729 0.0845169 0 0.00368511
0.523729 0.0912666 0 0.00369763
0.412065 0.336148 0 0.00376754
0.523729 0.0982613 0 0.00370901
0.523729 0.10551 -2.31296e-18 0.0037193
0.467897 0.258276 3.46945e-18 0.00377035
0.523729 0.113022 0 0.00372853
0.523729 0.120806 0 0.00373674
0.219992 0.491176 3.46945e-18 0.00375645
0.523729 0.12484 0 0.00374036
0.523729 0.128874 -2.31296e-18 0.00374398
0.0757758 0.534985 -3.46945e-18 0.00375201
0.467897 0.271334 0 0.00377104
0.350249 0.412397 3.46945e-18 0.00376322
0.523729 0.137234 0 0.0037503
0.412065 0.352034 -2.31296e-18 0.00376811
0.288433 0.46022 0 0.0037605
0.523729 0.145897 0 0.00375577
0.151552 0.523639 0 0.00375451
0.523729 0.154876 0 0.00376045
0 0.546332 0 0.00375
0.523729 0.159528 0 0.00376244
0.467897 0.284866 3.46945e-18 0.00377169
0.523729 0.16418 -2.31296e-18 0.00376443
0.523729 0.173822 0 0.00376778
0.412065 0.368496 0 0.00376869
0.523729 0.183814 0 0.00377059
0.467897 0.29889 -3.46945e-18 0.00377232
0.350249 0.431051 0 0.0037638
0.219992 0.51269 3.46945e-18 0.00375672
0.523729 0.194169 0 0.0037729
0.288433 0.48061 0 0.0037609
0.523729 0.2049 0 0.00377481
0.467897 0.313423 0 0.00377293
0.0757758 0.55809 0 0.00375205
0.412065 0.385557 0 0.00376928
0.523729 0.21602 0 0.00377636
0.151552 0.546332 0 0.00375467
0 0.569849 0 0.00375
0.350249 0.450382 0 0.00376437
0.523729 0.227544 0 0.00377764
0.467897 0.328484 0 0.00377354
0.523729 0.231525 0 0.003778
0.574156 0.00184056 0 0.00045289
0.574156 0.00558849 0 0.000823638
0.574156 0.0094725 0 0.00260655
0.574156 0.0134975 0 0.00332392
0.574156 0.0176687 0 0.00338854
0.574156 0.0219913 3.46945e-18 0.00337839
0.574156 0.0264709 0 0.00335758
0.574156 0.031113 0 0.00337336
0.574156 0.0359238 3.46945e-18 0.00341727
0.574156 0.0409092 -3.46945e-18 0.00346679
0.523729 0.239487 3.70074e-18 0.0037787
0.574156 0.0460756 3.46945e-18 0.00351261
0.574156 0.0514296 0 0.00355221
0.412065 0.403236 0 0.0037699
0.574156 0.0569779 0 0.00358553
0.574156 0.0627277 0 0.00361324
0.574156 0.0686863 0 0.00363609
0.219992 0.534985 0 0.00375697
0.288433 0.501741 0 0.00376129
0.574156 0.0748612 0 0.00365499
0.574156 0.0812603 0 0.00367146
0.467897 0.344091 3.46945e-18 0.00377415
0.574156 0.0878917 0 0.00368658
0.523729 0.251863 0 0.0037796
0.574156 0.0947639 -3.46945e-18 0.0037004
0.574156 0.101886 0 0.00371293
0.574156 0.109266 3.46945e-18 0.00372422
0.574156 0.116914 -3.46945e-18 0.00373431
0.412065 0.416977 0 0.00377037
0.350249 0.470415 0 0.0037649
0.523729 0.264688 0 0.00378038
0.0757758 0.582034 0 0.0037521
0.574156 0.12484 0 0.00374326
0.574156 0.133054 0 0.00375112
0.412065 0.421557 -2.31296e-18 0.00377053
0.151552 0.569849 0 0.00375482
0.467897 0.360265 0 0.00377477
0.574156 0.141566 -3.46945e-18 0.00375797
0.523729 0.27798 0 0.00378108
0.574156 0.150387 -3.46945e-18 0.00376387
0 0.594219 0 0.00375
0.574156 0.159528 0 0.00376891
0.574156 0.16418 0 0.0037725
0.288433 0.523639 9.24446e-33 0.00376166
0.574156 0.169001 -3.46945e-18 0.00377317
0.523729 0.291753 0 0.00378172
0.219992 0.55809 -3.46945e-18 0.00375723
0.467897 0.377026 0 0.0037754
0.574156 0.178818 -3.46945e-18 0.00377675
0.412065 0.440544 -2.31296e-18 0.00377116
0.350249 0.491176 3.46945e-18 0.00376541
0.574156 0.188991 0 0.00377971
0.523729 0.306027 0 0.00378233
0.574156 0.199534 0 0.00378215
0.574156 0.21046 0 0.00378414
0.0757758 0.606847 0 0.00375216
0.467897 0.394396 3.46945e-18 0.00377605
0.151552 0.594219 0 0.00375498
0.523729 0.320819 0 0.00378293
0.574156 0.221782 -3.46945e-18 0.00378575
0.412065 0.46022 0 0.00377177
0.288433 0.546332 0 0.00376202
0 0.619475 0 0.00375
0.574156 0.233515 0 0.00378707
0.350249 0.51269 3.46945e-18 0.0037659
0.219992 0.582034 0 0.00375749
0.523729 0.336148 0 0.00378352
0.467897 0.412397 0 0.00377672
0.574156 0.245675 3.46945e-18 0.00378815
0.624584 0 0 0.000386913
0.624584 0.00368111 0 0.000596407
0.624584 0.00749587 0 0.00177341
0.624584 0.0114491 0 0.00314961
0.624584 0.0155459 0 0.00356098
0.624584 0.0197915 0 0.00351484
0.624584 0.0241911 -2.31296e-18 0.00343099
0.624584 0.0287506 0 0.00338852
0.624584 0.0334755 0 0.00339475
0.624584 0.038372 0 0.00343004
0.624584 0.0434463 -2.31296e-18 0.00347402
0.624584 0.0487048 0 0.00351669
0.624584 0.0541543 0 0.00355462
0.624584 0.0598016 0 0.00358709
0.624584 0.0656539 0 0.00361436
0.624584 0.0717187 0 0.0036372
0.624584 0.0780037 0 0.00365698
0.574156 0.258276 0 0.00378905
0.624584 0.0845169 0 0.0036749
0.523729 0.352034 0 0.00378412
0.624584 0.0912666 0 0.00369138
0.624584 0.0982613 0 0.00370643
0.412065 0.48061 0 0.00377236
0.624584 0.10551 0 0.00372006
0.624584 0.113022 -2.31296e-18 0.00373234
0.574156 0.271334 0 0.00378982
0.624584 0.120806 0 0.00374328
0.467897 0.431051 0 0.00377741
0.0757758 0.632561 3.46945e-18 0.00375222
0.624584 0.128874 0 0.00375297
0.151552 0.619475 0 0.00375514
0.288433 0.569849 0 0.00376237
0.350249 0.534985 0 0.00376636
0.624584 0.137234 -2.31296e-18 0.00376146
0.523729 0.368496 0 0.00378472
0.574156 0.284866 -3.46945e-18 0.0037905
0.624584 0.145897 0 0.00376883
0.467897 0.440544 0 0.00377926
0.624584 0.154876 0 0.00377517
0.219992 0.606847 0 0.00375775
0 0.645647 0 0.00375
0.624584 0.16418 0 0.00378057
0.574156 0.29889 0 0.00379112
0.624584 0.173822 0 0.00378511
0.412065 0.501741 0 0.00377292
0.467897 0.450382 0 0.00377809
0.523729 0.385557 0 0.00378535
0.624584 0.183814 0 0.00378891
0.624584 0.194169 0 0.00379203
0.574156 0.313423 3.46945e-18 0.0037917
0.624584 0.2049 0 0.00379459
0.350249 0.55809 3.46945e-18 0.0037668
0.288433 0.594219 0 0.00376271
0.624584 0.21602 0 0.00379666
0.523729 0.403236 0 0.00378601
0.574156 0.328484 -3.46945e-18 0.00379228
0.151552 0.645647 0 0.0037553
0.467897 0.470415 0 0.00377875
0.0757758 0.659208 3.46945e-18 0.00375229
0.624584 0.227544 0 0.00379833
0.412065 0.523639 0 0.00377344
0.523729 0.41545 0 0.00378645
0.624584 0.239487 3.70074e-18 0.00379968
0.574156 0.344091 0 0.00379285
0.219992 0.632561 -3.46945e-18 0.003758
0.67013 0.00184056 3.46945e-18 0.000324973
0.67013 0.00558849 -3.46945e-18 0.000789257
0.67013 0.0094725 3.46945e-18 0.00286712
0.67013 0.0134975 -3.46945e-18 0.00377834
0.67013 0.0176687 0 0.00372808
0.67013 0.0219913 0 0.00354829
0.67013 0.0264709 3.46945e-18 0.00343199
0.67013 0.031113 0 0.00338835
0.67013 0.0359238 -3.46945e-18 0.0034001
0.67013 0.0409092 0 0.00343749
0.67013 0.0460756 0 0.00348111
0.67013 0.0514296 -3.46945e-18 0.00352276
0.523729 0.421557 0 0.00378668
0.67013 0.0569779 0 0.00355971
0 0.67277 0 0.00375
0.67013 0.0627277 3.46945e-18 0.00359139
0.624584 0.251863 0 0.00380076
0.67013 0.0686863 0 0.00361797
0.67013 0.0748612 -3.46945e-18 0.00364078
0.67013 0.0812603 0 0.00366146
0.67013 0.0878917 0 0.0036806
0.67013 0.0947639 0 0.00369819
0.574156 0.360265 3.46945e-18 0.00379344
0.67013 0.101886 3.46945e-18 0.00371421
0.523729 0.431051 0 0.00378702
0.624584 0.264688 0 0.00380165
0.467897 0.491176 0 0.00377938
0.67013 0.109266 3.46945e-18 0.00372871
0.350249 0.582034 0 0.00376723
0.67013 0.116914 -3.46945e-18 0.00374172
0.67013 0.12484 0 0.0037533
0.67013 0.133054 -3.46945e-18 0.0037635
0.288433 0.619475 0 0.00376304
0.624584 0.27798 0 0.0038024
0.412065 0.546332 0 0.00377394
0.523729 0.440544 0 0.00378736
0.67013 0.141566 0 0.00377241
0.685312 0.0241911 0 0.00354481
0.685312 0.0434463 0 0.00346004
0.67013 0.150387 0 0.00378012
0.574156 0.377026 0 0.00379405
0.67013 0.159528 0 0.00378672
0.624584 0.291753 0 0.00380304
0.151552 0.67277 0 0.00375546
0.0757758 0.686823 0 0.00375236
0.67013 0.169001 -3.46945e-18 0.00379231
0.67013 0.178818 0 0.00379699
0.467897 0.51269 3.46945e-18 0.00377998
0.685312 0.113022 0 0.00373763
0.219992 0.659208 0 0.00375825
0.624584 0.306027 0 0.00380362
0.67013 0.188991 0 0.00380087
0.574156 0.394396 -3.46945e-18 0.00379468
0.523729 0.46022 0 0.00378803
0.685312 0.137234 0 0.00377174
0.67013 0.199534 3.46945e-18 0.00380406
0.350249 0.606847 3.46945e-18 0.00376764
0 0.700877 0 0.00375
0.624584 0.320819 0 0.00380417
0.67013 0.21046 -3.46945e-18 0.00380664
0.412065 0.569849 -2.31296e-18 0.00377441
0.67013 0.221782 0 0.00380871
0.574156 0.412397 -3.46945e-18 0.00379534
0.288433 0.645647 0 0.00376336
0.624584 0.336148 0 0.00380469
0.67013 0.233515 -3.46945e-18 0.00381036
0.467897 0.534985 0 0.00378053
0.523729 0.48061 0 0.00378868
0.624584 0.344091 0 0.00380496
0.67013 0.245675 0 0.00381167
0.715676 4.54095e-19 -1.54074e-33 0.000274696
0.715676 0.00368111 0 0.000526729
0.715676 0.00749587 0 0.00188792
0.715676 0.0114491 -1.54074e-33 0.0035195
0.715676 0.0155459 0 0.00400671
0.715676 0.0197915 0 0.00383176
0.715676 0.0241911 0 0.00360172
0.715676 0.0287506 0 0.00346711
0.715676 0.0334755 0 0.00341578
0.715676 0.038372 0 0.00342123
0.624584 0.352034 -2.31296e-18 0.00380522
0.715676 0.0434463 0 0.00345305
0.151552 0.700877 0 0.00375562
0.715676 0.0487048 0 0.00349267
0.715676 0.0541543 0 0.00353168
0.574156 0.431051 -3.46945e-18 0.00379601
0.715676 0.0598016 0 0.0035669
0.67013 0.258276 0 0.00381271
0.715676 0.0656539 0 0.00359739
0.715676 0.0717187 0 0.0036237
0.0757758 0.715441 0 0.00375243
0.715676 0.0780037 0 0.00364731
0.715676 0.0845169 0 0.00366917
0.219992 0.686823 0 0.00375849
0.715676 0.0912666 0 0.00368942
0.715676 0.0982613 0 0.00370802
0.67013 0.271334 0 0.00381355
0.350249 0.632561 3.46945e-18 0.00376803
0.412065 0.594219 -2.31296e-18 0.00377485
0.715676 0.10551 0 0.00372497
0.715676 0.113022 0 0.00374028
0.624584 0.368496 0 0.00380577
0.523729 0.501741 0 0.0037893
0.715676 0.120806 0 0.003754
0.715676 0.128874 0 0.00376617
0.67013 0.284866 0 0.00381425
0.467897 0.55809 3.46945e-18 0.00378105
0.715676 0.137234 0 0.00377687
0.574156 0.450382 0 0.00379669
0 0.730005 0 0.00375
0.715676 0.145897 0 0.0037862
0.288433 0.67277 0 0.00376366
0.715676 0.154876 0 0.00379423
0.67013 0.29889 3.46945e-18 0.00381483
0.624584 0.385557 0 0.00380634
0.715676 0.16418 0 0.00380108
0.715676 0.173822 0 0.00380686
0.715676 0.183814 0 0.00381168
0.67013 0.313423 0 0.00381536
0.523729 0.523639 0 0.00378987
0.715676 0.194169 0 0.00381565
0.574156 0.470415 3.46945e-18 0.00379736
0.624584 0.403236 0 0.00380693
0.743101 0.0241911 0 0.00369413
0.412065 0.619475 -2.31296e-18 0.00377527
0.715676 0.2049 0 0.00381888
0.151552 0.730005 0 0.00375578
0.67013 0.328484 0 0.00381585
0.350249 0.659208 -3.46945e-18 0.0037684
0.467897 0.582034 0 0.00378154
0.715676 0.21602 0 0.00382148
0.219992 0.715441 0 0.00375873
0.0757758 0.745098 3.46945e-18 0.0037525
0.715676 0.227544 0 0.00382354
0.67013 0.344091 0 0.00381633
0.624584 0.421557 0 0.00380755
0.743101 0.128874 0 0.00377175
0.715676 0.239487 3.70074e-18 0.00382517
0.574156 0.491176 3.46945e-18 0.003798
0.523729 0.546332 0 0.0037904
0.756814 0.00184056 0 0.00022726
0.756814 0.00558849 0 0.000768876
0.756814 0.0094725 0 0.00311978
0.756814 0.0134975 3.46945e-18 0.0042906
0.756814 0.0155459 0 0.00426529
0.756814 0.0176687 -3.46945e-18 0.00420121
0.756814 0.0219913 -3.46945e-18 0.00382762
0.756814 0.0264709 3.46945e-18 0.00358638
0.756814 0.031113 -3.46945e-18 0.0034553
0.756814 0.0359238 -3.46945e-18 0.00341695
0.288433 0.700877 0 0.00376395
0.756814 0.0409092 0 0.00343011
0.756814 0.0460756 -3.46945e-18 0.0034642
0.756814 0.0514296 -3.46945e-18 0.00350364
0.715676 0.251863 0 0.00382643
0.756814 0.0569779 0 0.0035417
0.756814 0.0627277 3.46945e-18 0.00357579
0.756814 0.0686863 0 0.00360525
0 0.76019 0 0.00375
0.756814 0.0748612 0 0.00363145
0.67013 0.360265 0 0.00381682
0.756814 0.0812603 0 0.00365597
0.756814 0.0878917 0 0.00367886
0.756814 0.0947639 -3.46945e-18 0.00370003
0.715676 0.264688 0 0.00382742
0.756814 0.101886 -3.46945e-18 0.00371945
0.624584 0.440544 0 0.00380818
0.756814 0.109266 -3.46945e-18 0.00373711
0.756814 0.116914 -3.46945e-18 0.00375302
0.412065 0.645647 0 0.00377566
0.467897 0.606847 0 0.00378199
0.756814 0.120806 0 0.00376113
0.756814 0.12484 3.46945e-18 0.00376723
0.715676 0.27798 -1.54074e-33 0.00382819
0.756814 0.133054 3.46945e-18 0.00377979
0.67013 0.377026 3.46945e-18 0.00381733
0.756814 0.137234 0 0.00378635
0.574156 0.51269 0 0.0037986
0.756814 0.141566 0 0.0037908
0.685312 0.352034 0 0.00382215
0.743101 0.2049 0 0.00382819
0.350249 0.686823 0 0.00376874
0.756814 0.150387 0 0.00380034
0.756814 0.154876 0 0.00380554
0.715676 0.291753 -6.16298e-33 0.00382881
0.756814 0.159528 0 0.00380853
0.523729 0.569849 0 0.00379089
0.72743 0.264688 0 0.00383163
0.756814 0.16418 0 0.00381313
0.151552 0.76019 3.70074e-18 0.00375593
0.756814 0.169001 3.46945e-18 0.00381548
0.624584 0.46022 0 0.00380881
0.219992 0.745098 -3.46945e-18 0.00375896
0.67013 0.394396 0 0.00381786
0.756814 0.178818 0 0.0038213
0.715676 0.306027 0 0.00382933
0.0757758 0.775831 3.46945e-18 0.00375257
0.756814 0.188991 0 0.00382613
0.756814 0.199534 -3.46945e-18 0.00383007
0.715676 0.320819 0 0.00382978
0.574156 0.534985 0 0.00379915
0.288433 0.730005 0 0.00376422
0.756814 0.21046 0 0.00383325
0.467897 0.632561 0 0.00378241
0.67013 0.412397 0 0.00381842
0.624584 0.48061 0 0.00380943
0.756814 0.221782 3.46945e-18 0.00383578
0.412065 0.67277 -2.31296e-18 0.00377602
0.715676 0.336148 0 0.0038302
0 0.791472 0 0.00375
0.756814 0.233515 0 0.00383776
0.523729 0.594219 0 0.00379134
0.624584 0.487654 0 0.00380962
0.756814 0.245675 0 0.00383929
0.350249 0.715441 3.46945e-18 0.00376907
0.67013 0.431051 -3.46945e-18 0.00381901
0.715676 0.352034 0 0.00383062
0.797951 9.0819e-19 0 0.000189738
0.797951 0.00368111 0 0.000476068
0.797951 0.00749587 0 0.00199992
0.797951 0.0114491 0 0.0038951
0.797951 0.0141803 0 0.00431428
0.797951 0.0155459 0 0.00452387
0.797951 0.0169611 0 0.00443896
0.797951 0.0197915 0 0.00426913
0.797951 0.0219913 0 0.00407405
0.797951 0.0241911 0 0.00387896
0.797951 0.0264709 0 0.00374862
0.797951 0.0287506 0 0.00361827
0.797951 0.0334755 0 0.00348395
0.797951 0.038372 0 0.0034427
0.797951 0.0434463 0 0.00345174
0.797951 0.0487048 0 0.0034819
0.756814 0.258276 0 0.00384046
0.797951 0.0541543 0 0.00351823
0.797951 0.0598016 0 0.0035539
0.797951 0.0656539 0 0.00358627
0.574156 0.55809 0 0.00379965
0.624584 0.501741 -2.05433e-33 0.00381001
0.797951 0.0717187 0 0.00361533
0.797951 0.0780037 0 0.00364227
0.797951 0.0845169 0 0.00366767
0.797951 0.0912666 0 0.00369141
0.797951 0.0982613 0 0.00371338
0.756814 0.271334 -3.46945e-18 0.00384135
0.797951 0.10551 0 0.00373352
0.715676 0.368496 0 0.00383104
0.151552 0.791472 0 0.00375608
0.797951 0.113022 0 0.00375181
0.219992 0.775831 3.46945e-18 0.00375918
0.797951 0.118212 0 0.00376277
0.770526 0.239487 0 0.0038446
0.797951 0.120806 9.25186e-19 0.00376825
0.67013 0.450382 3.46945e-18 0.0038196
0.797951 0.128874 -2.31296e-18 0.00378291
0.467897 0.659208 0 0.0037828
0.756814 0.284866 0 0.00384203
0.743101 0.320819 0 0.00383957
0.797951 0.137234 0 0.00379583
0.797951 0.141566 0 0.00380147
0.797951 0.145897 0 0.00380711
0.523729 0.619475 0 0.00379174
0.0757758 0.80768 0 0.00375264
0.797951 0.150387 0 0.00381198
0.797951 0.154876 9.25186e-19 0.00381686
0.715676 0.385557 0 0.00383148
0.412065 0.700877 -2.31296e-18 0.00377635
0.288433 0.76019 0 0.00376448
0.756814 0.29889 -3.46945e-18 0.00384256
0.797951 0.16418 0 0.00382518
0.624584 0.523639 -1.54074e-33 0.00381053
0.797951 0.167394 0 0.00382753
0.797951 0.173822 0 0.00383221
0.574156 0.582034 0 0.0038001
0.67013 0.470415 0 0.00382019
0.797951 0.183814 0 0.00383808
0.756814 0.313423 0 0.00384299
0.797951 0.194169 0 0.0038429
0.715676 0.403236 -6.16298e-33 0.00383196
0.151552 0.80768 0 0.00375615
0.797951 0.197746 0 0.0038442
0.350249 0.745098 -3.46945e-18 0.00376937
0.797951 0.2049 0 0.00384681
0 0.823889 0 0.00375
0.756814 0.328484 0 0.00384336
0.797951 0.21046 0 0.00384838
0.797951 0.21602 0 0.00384994
0.797951 0.223703 0 0.00385158
0.797951 0.227544 0 0.0038524
0.624584 0.546332 0 0.00381101
0.715676 0.421557 0 0.00383246
0.67013 0.491176 3.46945e-18 0.00382076
0.797951 0.231525 0 0.00385304
0.467897 0.686823 0 0.00378314
0.523729 0.645647 0 0.0037921
0.756814 0.344091 -3.46945e-18 0.0038437
0.822721 0.120806 0 0.00377396
0.797951 0.239487 0 0.00385432
0.822721 0.137234 0 0.00380308
0.835107 0.00184056 -3.46945e-18 0.000154154
0.835107 0.00558849 0 0.000756276
0.835107 0.0094725 3.46945e-18 0.00334912
0.835107 0.0134975 0 0.00480139
0.835107 0.0176687 0 0.00477361
0.835107 0.0219913 3.46945e-18 0.00424779
0.574156 0.606847 3.46945e-18 0.0038005
0.835107 0.0241911 0 0.0040795
0.835107 0.0264709 3.46945e-18 0.00383632
0.822721 0.145897 0 0.00381502
0.835107 0.031113 0 0.00358503
0.835107 0.0359238 0 0.00347357
0.835107 0.0409092 -3.46945e-18 0.0034482
0.835107 0.0460756 0 0.00346397
0.835107 0.0514296 -3.46945e-18 0.00349599
0.797951 0.251863 0 0.00385578
0.835107 0.0541543 0 0.00351726
0.835107 0.0569779 -3.46945e-18 0.00353204
0.219992 0.80768 -3.46945e-18 0.00375939
0.822721 0.154876 0 0.00382534
0.835107 0.0627277 -3.46945e-18 0.00356657
0.151552 0.823889 0 0.00375622
0.797951 0.255069 0 0.00385606
0.835107 0.0686863 3.46945e-18 0.00359793
0.756814 0.360265 3.46945e-18 0.00384405
0.412065 0.730005 0 0.00377665
0.835107 0.0748612 0 0.00362702
0.822721 0.16418 0 0.00383417