# kMean  POINT_DATA 63140
# x  y  z  kMean
0 0.1 0 0.00375
0 0.1 -0.0179898 0.00375
0 0.1 0.0179898 0.00375
0.0363518 0.1 -0.0179898 0.00374802
0.0363518 0.1 0.0179898 0.00374802
0 0.1 -0.0570102 0.00375
0 0.1 0.0570102 0.00375
0.0363518 0.1 0.0570102 0.00374802
0.0363518 0.1 -0.0570102 0.00374802
0 0.1 -0.075 0.00375
0 0.1 0.075 0.00375
0.0757758 0.1 -0.0375 0.00374562
0.0757758 0.1 0.0375 0.00374562
0 0.1 -0.0929898 0.00375
0 0.1 0.0929898 0.00375
0.0363518 0.1 -0.0929898 0.00374822
0.0363518 0.1 0.0929898 0.00374823
0 0.1 -0.13201 0.00375
0 0.1 0.13201 0.00375
0.0757758 0.1 -0.1125 0.00374604
0.0757758 0.1 0.1125 0.00374605
0.0363518 0.1 -0.13201 0.00374822
0.0363518 0.1 0.13201 0.00374823
0 0.1 -0.15 0.00375
0 0.1 0.15 0.00375
0.150379 0.1 -4.33681e-19 0.0037399
0 0.1 -0.16799 0.00375
0 0.1 0.16799 0.00375
0.150379 0.1 -0.075 0.00374034
0.150379 0.1 0.075 0.00374035
0.0363518 0.1 -0.16799 0.00374851
0.0363518 0.1 0.16799 0.00374851
0.0757758 0.1 -0.1875 0.00374664
0.0757758 0.1 0.1875 0.00374665
0 0.1 -0.20701 0.00375
0 0.1 0.20701 0.00375
0.0363518 0.1 -0.20701 0.00374851
0.0363518 0.1 0.20701 0.00374851
0.150379 0.1 -0.15 0.00374125
0.150379 0.1 0.15 0.00374127
0.219992 0.1 -0.0375 0.00373444
0.219992 0.1 0.0375 0.00373445
0 0.1 -0.225 0.00375
0 0.1 0.225 0.00375
0 0.1 -0.24299 0.00375
0 0.1 0.24299 0.00375
0.0363518 0.1 0.24299 0.00374879
0.0363518 0.1 -0.24299 0.00374878
0.219992 0.1 -0.1125 0.00373575
0.219992 0.1 0.1125 0.00373578
0.150379 0.1 0.225 0.00374216
0.150379 0.1 -0.225 0.00374214
0.0757758 0.1 0.2625 0.00374721
0.0757758 0.1 -0.2625 0.0037472
0 0.1 -0.28201 0.00375
0 0.1 0.28201 0.00375
0.0363518 0.1 -0.28201 0.00374878
0.0363518 0.1 0.28201 0.00374879
0.287374 0.1 0 0.00372821
0.219992 0.1 -0.1875 0.00373702
0.219992 0.1 0.1875 0.00373705
0.287374 0.1 -0.075 0.00372889
0.287374 0.1 0.075 0.00372891
0 0.1 -0.3 0.00375
0 0.1 0.3 0.00375
0 0.1 -0.31799 0.00375
0 0.1 0.31799 0.00375
0.0363518 0.1 -0.31799 0.00374902
0.0363518 0.1 0.31799 0.00374903
0.287374 0.1 -0.15 0.00373033
0.287374 0.1 0.15 0.00373036
0.150379 0.1 -0.3 0.00374298
0.150379 0.1 0.3 0.003743
0.219992 0.1 -0.2625 0.00373814
0.219992 0.1 0.2625 0.00373816
0.0757758 0.1 -0.3375 0.0037477
0.0757758 0.1 0.3375 0.00374771
0.350249 0.1 -0.0375 0.00372222
0.350249 0.1 0.0375 0.00372224
0 0.1 0.35701 0.00375
0 0.1 -0.35701 0.00375
0.0363518 0.1 -0.35701 0.00374902
0.0363518 0.1 0.35701 0.00374903
0.287374 0.1 -0.225 0.00373171
0.287374 0.1 0.225 0.00373174
0.350249 0.1 0.1125 0.00372371
0.350249 0.1 -0.1125 0.00372368
0 0.1 -0.375 0.00375
0 0.1 0.375 0.00375
0 0.1 -0.39299 0.00375
0 0.1 0.39299 0.00375
0.0363518 0.1 -0.39299 0.00374927
0.0363518 0.1 0.39299 0.00374928
0.350249 0.1 -0.1875 0.00372536
0.350249 0.1 0.1875 0.0037254
0.219992 0.1 -0.3375 0.00373929
0.219992 0.1 0.3375 0.00373932
0.150379 0.1 -0.375 0.00374367
0.150379 0.1 0.375 0.00374369
0.411108 0.1 -2.21177e-17 0.00371786
0.287374 0.1 -0.3 0.00373295
0.287374 0.1 0.3 0.00373298
0.411108 0.1 0.075 0.00371857
0.411108 0.1 -0.075 0.00371854
0.0757758 0.1 -0.4125 0.00374822
0.0757758 0.1 0.4125 0.00374823
0 0.1 -0.43201 0.00375
0 0.1 0.43201 0.00375
0.0363518 0.1 -0.43201 0.00374927
0.0363518 0.1 0.43201 0.00374928
0.411108 0.1 -0.15 0.00372009
0.411108 0.1 0.15 0.00372012
0.350249 0.1 -0.2625 0.00372678
0.350249 0.1 0.2625 0.00372682
0 0.1 -0.45 0.00375
0 0.1 0.45 0.00375
0.219992 0.1 -0.4125 0.00373987
0.219992 0.1 0.4125 0.00373989
0 0.1 -0.46799 0.00375
0 0.1 0.46799 0.00375
0.411108 0.1 -0.225 0.00372166
0.411108 0.1 0.225 0.0037217
0.467897 0.1 0.0375 0.00371364
0.467897 0.1 -0.0375 0.00371362
0.0363518 0.1 -0.46799 0.00374954
0.0363518 0.1 0.46799 0.00374955
0.287374 0.1 -0.375 0.00373391
0.287374 0.1 0.375 0.00373394
0.150379 0.1 -0.45 0.00374421
0.150379 0.1 0.45 0.00374423
0.467897 0.1 -0.1125 0.00371495
0.467897 0.1 0.1125 0.00371499
0.350249 0.1 0.3375 0.00372808
0.350249 0.1 -0.3375 0.00372804
0.0757758 0.1 -0.4875 0.00374877
0.0757758 0.1 0.4875 0.00374879
0.467897 0.1 -0.1875 0.00371665
0.467897 0.1 0.1875 0.0037167
0 0.1 -0.50701 0.00375
0 0.1 0.50701 0.00375
0.0363518 0.1 -0.50701 0.00374954
0.0363518 0.1 0.50701 0.00374955
0.411108 0.1 -0.3 0.003723
0.411108 0.1 0.3 0.00372304
0.522864 0.1 -2.08167e-17 0.00371161
0 0.1 -0.525 0.00375
0 0.1 0.525 0.00375
0.522864 0.1 -0.075 0.00371221
0.522864 0.1 0.075 0.00371223
0.287374 0.1 -0.45 0.00373456
0.287374 0.1 0.45 0.00373458
0.219992 0.1 -0.4875 0.00374037
0.219992 0.1 0.4875 0.00374039
0.467897 0.1 0.2625 0.00371817
0.467897 0.1 -0.2625 0.00371813
0.350249 0.1 -0.4125 0.00372889
0.350249 0.1 0.4125 0.00372892
0 0.1 -0.54299 0.00375
0 0.1 0.54299 0.00375
0.522864 0.1 0.15 0.00371364
0.522864 0.1 -0.15 0.0037136
0.0363518 0.1 -0.54299 0.00374983
0.0363518 0.1 0.54299 0.00374983
0.150379 0.1 -0.525 0.00374484
0.150379 0.1 0.525 0.00374486
0.411108 0.1 -0.375 0.00372401
0.411108 0.1 0.375 0.00372405
0.0757758 0.1 -0.5625 0.00374936
0.0757758 0.1 0.5625 0.00374937
0.522864 0.1 -0.225 0.00371506
0.522864 0.1 0.225 0.0037151
0.574156 0.1 -0.0375 0.00370961
0.574156 0.1 0.0375 0.00370962
0.467897 0.1 -0.3375 0.00371932
0.467897 0.1 0.3375 0.00371936
0 0.1 -0.58201 0.00375
0 0.1 0.58201 0.00375
0.0363518 0.1 -0.58201 0.00374983
0.0363518 0.1 0.58201 0.00374983
0.574156 0.1 -0.1125 0.00371071
0.574156 0.1 0.1125 0.00371074
0.287374 0.1 -0.525 0.00373527
0.287374 0.1 0.525 0.0037353
0 0.1 -0.6 0.00375
0 0.1 0.6 0.00375
0.350249 0.1 -0.4875 0.00372954
0.350249 0.1 0.4875 0.00372957
0.522864 0.1 0.3 0.00371629
0.522864 0.1 -0.3 0.00371625
0.219992 0.1 -0.5625 0.00374125
0.219992 0.1 0.5625 0.00374128
0.574156 0.1 -0.1875 0.00371215
0.574156 0.1 0.1875 0.00371219
0.411108 0.1 -0.45 0.00372469
0.411108 0.1 0.45 0.00372473
0 0.1 -0.61799 0.00375
0 0.1 0.61799 0.00375
0.150379 0.1 -0.6 0.00374558
0.150379 0.1 0.6 0.0037456
0.0363518 0.1 -0.61799 0.00375011
0.0363518 0.1 0.61799 0.00375011
0.467897 0.1 0.4125 0.00372011
0.467897 0.1 -0.4125 0.00372008
0.623803 0.1 1.04083e-17 0.00370983
0.623803 0.1 -0.075 0.00371031
0.623803 0.1 0.075 0.00371033
0.574156 0.1 -0.2625 0.00371337
0.574156 0.1 0.2625 0.00371342
0.623803 0.1 -0.15 0.00371141
0.623803 0.1 0.15 0.00371144
0.0757758 0.1 0.6375 0.00374995
0.0757758 0.1 -0.6375 0.00374993
0.522864 0.1 -0.375 0.00371703
0.522864 0.1 0.375 0.00371707
0 0.1 0.65701 0.00375
0 0.1 -0.65701 0.00375
0.0363518 0.1 0.65701 0.00375011
0.0363518 0.1 -0.65701 0.00375011
0.350249 0.1 -0.5625 0.00373036
0.350249 0.1 0.5625 0.0037304
0.623803 0.1 -0.225 0.00371252
0.623803 0.1 0.225 0.00371256
0.287374 0.1 -0.6 0.00373614
0.287374 0.1 0.6 0.00373617
0.574156 0.1 -0.3375 0.00371423
0.574156 0.1 0.3375 0.00371428
0.411108 0.1 -0.525 0.0037253
0.411108 0.1 0.525 0.00372534
0.67013 0.1 -0.0375 0.00370996
0.67013 0.1 0.0375 0.00370998
0.219992 0.1 0.6375 0.00374216
0.219992 0.1 -0.6375 0.00374213
0 0.1 -0.675 0.00375
0 0.1 0.675 0.00375
0.467897 0.1 -0.4875 0.00372055
0.467897 0.1 0.4875 0.00372059
0.67013 0.1 -0.1125 0.00371079
0.67013 0.1 0.1125 0.00371082
0.522864 0.1 -0.45 0.00371741
0.522864 0.1 0.45 0.00371745
0.150379 0.1 0.675 0.00374629
0.150379 0.1 -0.675 0.00374627
0.623803 0.1 0.3 0.00371337
0.623803 0.1 -0.3 0.00371332
0 0.1 -0.69299 0.00375
0 0.1 0.69299 0.00375
0.0363518 0.1 0.69299 0.00375037
0.0363518 0.1 -0.69299 0.00375036
0.67013 0.1 0.1875 0.00371187
0.67013 0.1 -0.1875 0.00371183
0.574156 0.1 -0.4125 0.00371459
0.574156 0.1 0.4125 0.00371463
0.714971 0.1 -1.82146e-17 0.00371223
0.0757758 0.1 0.7125 0.00375047
0.0757758 0.1 -0.7125 0.00375045
0.714971 0.1 -0.075 0.00371256
0.714971 0.1 0.075 0.00371258
0.67013 0.1 -0.2625 0.00371258
0.67013 0.1 0.2625 0.00371263
0.411108 0.1 -0.6 0.003726
0.411108 0.1 0.6 0.00372605
0.350249 0.1 -0.6375 0.00373124
0.350249 0.1 0.6375 0.00373128
0.623803 0.1 -0.375 0.00371364
0.623803 0.1 0.375 0.00371368
0.714971 0.1 0.15 0.00371333
0.714971 0.1 -0.15 0.00371329
0.467897 0.1 -0.5625 0.00372107
0.467897 0.1 0.5625 0.00372111
0 0.1 -0.73201 0.00375
0 0.1 0.73201 0.00375
0.0363518 0.1 -0.73201 0.00375036
0.0363518 0.1 0.73201 0.00375037
0.287374 0.1 0.675 0.00373701
0.287374 0.1 -0.675 0.00373698
0.522864 0.1 -0.525 0.00371759
0.522864 0.1 0.525 0.00371763
0.219992 0.1 0.7125 0.00374294
0.219992 0.1 -0.7125 0.00374291
0.714971 0.1 0.225 0.00371396
0.714971 0.1 -0.225 0.00371391
0 0.1 0.75 0.00375
0 0.1 -0.75 0.00375
0.67013 0.1 -0.3375 0.00371298
0.67013 0.1 0.3375 0.00371303
0.574156 0.1 0.4875 0.00371457
0.574156 0.1 -0.4875 0.00371453
0.756814 0.1 -0.0375 0.0037143
0.756814 0.1 0.0375 0.00371432
0.150379 0.1 0.746002 0.00374694
0.150379 0.1 -0.75 0.00374688
0.756814 0.1 -0.1125 0.00371483
0.756814 0.1 0.1125 0.00371486
0 0.1 0.76799 0.00375
0 0.1 -0.76799 0.00375
0.0363518 0.1 0.76799 0.00375059
0.0363518 0.1 -0.76799 0.00375058
0.623803 0.1 -0.45 0.00371342
0.623803 0.1 0.45 0.00371346
0.714971 0.1 0.3 0.0037142
0.714971 0.1 -0.3 0.00371416
0.756814 0.1 -0.1875 0.00371538
0.756814 0.1 0.1875 0.00371542
0.67013 0.1 -0.4125 0.00371265
0.67013 0.1 0.4125 0.0037127
0.411108 0.1 -0.675 0.00372671
0.411108 0.1 0.675 0.00372675
0.467897 0.1 -0.6375 0.00372166
0.467897 0.1 0.6375 0.0037217
0.0757758 0.1 -0.7875 0.00375091
0.0757758 0.1 0.7875 0.00375093
0.350249 0.1 0.7125 0.0037321
0.350249 0.1 -0.7125 0.00373206
0.522864 0.1 -0.6 0.00371777
0.522864 0.1 0.6 0.00371781
0.797314 0.1 -2.86229e-17 0.00371836
0.287374 0.1 0.746002 0.00373782
0.797314 0.1 -0.075 0.00371854
0.797314 0.1 0.075 0.00371856
0.756814 0.1 0.2625 0.00371559
0.756814 0.1 -0.2625 0.00371554
0.287374 0.1 -0.75 0.00373772
0.574156 0.1 -0.5625 0.00371435
0.574156 0.1 0.5625 0.00371439
0 0.1 0.80701 0.00375
0 0.1 -0.80701 0.00375
0.714971 0.1 -0.375 0.00371382
0.714971 0.1 0.375 0.00371386
0.0363518 0.1 -0.80701 0.00375058
0.0363518 0.1 0.80701 0.00375059
0.797314 0.1 -0.15 0.00371886
0.797314 0.1 0.15 0.0037189
0.623803 0.1 -0.525 0.00371289
0.623803 0.1 0.525 0.00371293
0.219992 0.1 0.7875 0.00374362
0.219992 0.1 -0.7875 0.00374359
0.149792 0.1 0.80701 0.00374733
0 0.1 0.825 0.00375
0 0.1 -0.825 0.00375
0.797314 0.1 -0.225 0.00371892
0.797314 0.1 0.225 0.00371896
0.756814 0.1 -0.3375 0.00371523
0.756814 0.1 0.3375 0.00371527
0.67013 0.1 -0.4875 0.00371184
0.67013 0.1 0.4875 0.00371188
0.835107 0.1 -0.0375 0.00372215
0.835107 0.1 0.0375 0.00372216
0.150379 0.1 -0.825 0.00374741
0.835107 0.1 -0.1125 0.00372237
0.835107 0.1 0.1125 0.0037224
0 0.1 0.84299 0.00375
0 0.1 -0.84299 0.00375
0.0363518 0.1 0.84299 0.00375078
0.0363518 0.1 -0.84299 0.00375077
0.714971 0.1 -0.45 0.00371281
0.714971 0.1 0.45 0.00371285
0.411108 0.1 0.746002 0.00372742
0.797314 0.1 -0.3 0.00371846
0.797314 0.1 0.3 0.00371851
0.467897 0.1 -0.7125 0.00372219
0.467897 0.1 0.7125 0.00372224
0.522864 0.1 0.675 0.00371799
0.522864 0.1 -0.675 0.00371794
0.411108 0.1 -0.75 0.00372731
0.835107 0.1 -0.1875 0.00372239
0.835107 0.1 0.1875 0.00372243
0.286844 0.1 0.80701 0.00373828
0.574156 0.1 0.6375 0.0037142
0.574156 0.1 -0.6375 0.00371416
0.350249 0.1 -0.7875 0.00373278
0.350249 0.1 0.7875 0.00373282
0.756814 0.1 0.4125 0.00371417
0.756814 0.1 -0.4125 0.00371413
0.623803 0.1 -0.6 0.00371223
0.623803 0.1 0.6 0.00371228
0.0757758 0.1 0.8625 0.00375132
0.0757758 0.1 -0.8625 0.00375131
0.871687 0.1 -1.73472e-17 0.00372766
0.287374 0.1 -0.825 0.00373836
0.871687 0.1 -0.075 0.00372768
0.871687 0.1 0.075 0.0037277
0.67013 0.1 -0.5625 0.00371078
0.67013 0.1 0.5625 0.00371082
0.835107 0.1 0.2625 0.00372193
0.835107 0.1 -0.2625 0.00372189
0.797314 0.1 -0.375 0.00371734
0.797314 0.1 0.375 0.00371738
0 0.1 0.88201 0.00375
0 0.1 -0.88201 0.00375
0.0363518 0.1 0.88201 0.00375078
0.0363518 0.1 -0.88201 0.00375077
0.871687 0.1 0.15 0.00372762
0.871687 0.1 -0.15 0.00372758
0.714971 0.1 -0.525 0.00371136
0.714971 0.1 0.525 0.00371141
0.219992 0.1 0.8625 0.00374419
0.219992 0.1 -0.8625 0.00374416
0 0.1 0.9 0.00375
0 0.1 -0.9 0.00375
0.756814 0.1 -0.4875 0.00371238
0.756814 0.1 0.4875 0.00371242
0.871687 0.1 -0.225 0.00372702
0.871687 0.1 0.225 0.00372707
0.835107 0.1 -0.3375 0.00372075
0.835107 0.1 0.3375 0.0037208
0.410629 0.1 0.80701 0.00372775
0.905821 0.1 -0.0375 0.00373285
0.905821 0.1 0.0375 0.00373286
0.522864 0.1 0.746002 0.00371816
0.150379 0.1 0.9 0.00374787
0.905821 0.1 0.1125 0.00373278
0.905821 0.1 -0.1125 0.00373275
0.522864 0.1 -0.75 0.00371804
0.574156 0.1 -0.7125 0.00371396
0.574156 0.1 0.7125 0.003714
0.797314 0.1 -0.45 0.00371544
0.797314 0.1 0.45 0.00371548
0.467897 0.1 0.7875 0.0037226
0.467897 0.1 -0.7875 0.00372256
0.150379 0.1 -0.903998 0.00374774
0 0.1 0.91799 0.00375
0 0.1 -0.91799 0.00375
0.0363518 0.1 0.91799 0.00375093
0.0363518 0.1 -0.91799 0.00375092
0.623803 0.1 -0.675 0.00371153
0.623803 0.1 0.675 0.00371158
0.411108 0.1 -0.825 0.00372777
0.871687 0.1 -0.3 0.0037258
0.871687 0.1 0.3 0.00372585
0.67013 0.1 0.6375 0.00370967
0.67013 0.1 -0.6375 0.00370962
0.905821 0.1 -0.1875 0.00373222
0.905821 0.1 0.1875 0.00373227
0.350249 0.1 0.8625 0.0037334
0.350249 0.1 -0.8625 0.00373336
0.835107 0.1 -0.4125 0.00371884
0.835107 0.1 0.4125 0.00371888
0.714971 0.1 -0.6 0.00370969
0.714971 0.1 0.6 0.00370974
0.93886 0.1 -1.25767e-17 0.00373976
0.0757758 0.1 0.9375 0.00375163
0.0757758 0.1 -0.9375 0.00375162
0.93886 0.1 -0.075 0.00373964
0.93886 0.1 0.075 0.00373966
0.756814 0.1 -0.5625 0.00371025
0.756814 0.1 0.5625 0.00371029
0.905821 0.1 -0.2625 0.00373102
0.905821 0.1 0.2625 0.00373107
0.287374 0.1 0.9 0.00373891
0.287374 0.1 -0.903998 0.00373872
0.871687 0.1 -0.375 0.00372383
0.871687 0.1 0.375 0.00372388
0.93886 0.1 -0.15 0.00373913
0.93886 0.1 0.15 0.00373916
0.797314 0.1 -0.525 0.00371293
0.797314 0.1 0.525 0.00371298
0 0.1 0.95701 0.00375
0 0.1 -0.95701 0.00375
0.0363518 0.1 0.95701 0.00375093
0.0363518 0.1 -0.95701 0.00375092
0.522432 0.1 0.80701 0.00371811
0.219992 0.1 0.9375 0.00374465
0.219992 0.1 -0.9375 0.00374462
0.93886 0.1 -0.225 0.00373797
0.93886 0.1 0.225 0.00373802
0.905821 0.1 -0.3375 0.00372898
0.905821 0.1 0.3375 0.00372903
0.835107 0.1 0.4875 0.00371608
0.835107 0.1 -0.4875 0.00371604
0.96969 0.1 -0.0375 0.00374632
0.96969 0.1 0.0375 0.00374633
0.61613 0.1 0.75 0.00371082
0.574156 0.1 0.7875 0.00371372
0.574156 0.1 -0.7875 0.00371368
0 0.1 0.975 0.00375
0 0.1 -0.975 0.00375
0.623803 0.1 -0.75 0.00371078
0.96969 0.1 -0.1125 0.00374594
0.96969 0.1 0.1125 0.00374597
0.522864 0.1 -0.825 0.00371801
0.67013 0.1 -0.7125 0.0037084
0.67013 0.1 0.7125 0.00370845
0.871687 0.1 -0.45 0.00372097
0.871687 0.1 0.45 0.00372102
0.467897 0.1 -0.8625 0.00372275
0.467897 0.1 0.8625 0.0037228
0.714971 0.1 -0.675 0.00370791
0.714971 0.1 0.675 0.00370796
0.93886 0.1 -0.3 0.00373598
0.93886 0.1 0.3 0.00373603
0.150379 0.1 0.975 0.0037482
0.150379 0.1 -0.975 0.00374818
0.96969 0.1 -0.1875 0.00374491
0.96969 0.1 0.1875 0.00374496
0.411108 0.1 0.9 0.00372814
0.756814 0.1 -0.6375 0.00370795
0.756814 0.1 0.6375 0.00370799
0.990306 0.1 0 0.0037478
0 0.1 0.99299 0.00375
0 0.1 -0.99299 0.00375
0.411108 0.1 -0.903998 0.00372796
0.990306 0.1 -0.075 0.00374757
0.990306 0.1 0.075 0.00374758
0.0363518 0.1 0.99299 0.00375104
0.0363518 0.1 -0.99299 0.00375103
0.905821 0.1 -0.4125 0.00372623
0.905821 0.1 0.4125 0.00372628
0.797314 0.1 -0.6 0.00371009
0.797314 0.1 0.6 0.00371014
0.350249 0.1 0.9375 0.00373385
0.350249 0.1 -0.9375 0.00373382
0.990306 0.1 -0.15 0.00374677
0.990306 0.1 0.15 0.0037468
0.96969 0.1 -0.2625 0.00374306
0.96969 0.1 0.2625 0.00374311
0.835107 0.1 -0.5625 0.00371272
0.835107 0.1 0.5625 0.00371277
0.93886 0.1 -0.375 0.00373315
0.93886 0.1 0.375 0.00373321
0.0757758 0.1 1.0125 0.00375187
0.0757758 0.1 -1.0125 0.00375186
0.990306 0.1 -0.225 0.0037452
0.990306 0.1 0.225 0.00374524
0.287374 0.1 -0.975 0.00373927
0.287374 0.1 0.975 0.0037393
0.871687 0.1 -0.525 0.0037173
0.871687 0.1 0.525 0.00371735
1.02149 0.1 -0.0369628 0.00375557
1.02149 0.1 0.0369628 0.00375558
0.96969 0.1 0.3375 0.00374027
0.96969 0.1 -0.3375 0.00374021
1.02149 0.1 -0.110888 0.00375498
1.02149 0.1 0.110888 0.00375501
0.905821 0.1 -0.4875 0.00372228
0.905821 0.1 0.4875 0.00372233
0.623803 0.1 0.819003 0.00370977
0 0.1 1.03201 0.00375
0 0.1 -1.03201 0.00375
0.0363518 0.1 1.03201 0.00375104
0.0363518 0.1 -1.03201 0.00375103
0.67013 0.1 -0.7875 0.00370714
0.67013 0.1 0.7875 0.00370718
0.623803 0.1 -0.825 0.00370995
0.990306 0.1 0.3 0.00374274
0.990306 0.1 -0.3 0.00374269
0.219992 0.1 1.0125 0.00374498
0.219992 0.1 -1.0125 0.00374496
0.574156 0.1 0.8625 0.00371334
0.574156 0.1 -0.8625 0.00371328
0.714971 0.1 -0.75 0.00370605
0.714971 0.1 0.75 0.0037061
1.02149 0.1 -0.184814 0.00375361
1.02149 0.1 0.184814 0.00375366
0.756814 0.1 -0.7125 0.00370554
0.756814 0.1 0.7125 0.00370558
0.522864 0.1 0.9 0.0037179
0.93886 0.1 -0.45 0.00372927
0.93886 0.1 0.45 0.00372932
1.04168 0.1 0 0.00376077
1.04168 0.1 -0.0729162 0.00376045
1.04168 0.1 0.0729162 0.00376046
0.522864 0.1 -0.903998 0.00371777
0.797314 0.1 -0.675 0.00370708
0.797314 0.1 0.675 0.00370713
0.467897 0.1 0.9375 0.00372287
0.467897 0.1 -0.9375 0.00372283
0 0.1 1.05 0.00375
0 0.1 -1.05 0.00375
0.835107 0.1 -0.6375 0.00370914
0.835107 0.1 0.6375 0.00370919
1.04168 0.1 -0.145832 0.0037594
1.04168 0.1 0.145832 0.00375943
1.02149 0.1 -0.25874 0.00375133
1.02149 0.1 0.25874 0.0037514
0.96969 0.1 -0.4125 0.00373655
0.96969 0.1 0.4125 0.00373661
0.411108 0.1 0.975 0.00372833
0.411108 0.1 -0.975 0.0037283
0.871687 0.1 -0.6 0.00371317
0.871687 0.1 0.6 0.00371322
1.0579 0.1 -0.0360525 0.00376543
1.0579 0.1 0.0360525 0.00376544
0.990306 0.1 -0.375 0.00373924
0.990306 0.1 0.375 0.0037393
0.150379 0.1 1.05 0.00374844
0.150379 0.1 -1.05 0.00374842
1.0579 0.1 -0.108157 0.00376473
1.0579 0.1 0.108157 0.00376477
1.04168 0.1 -0.218749 0.00375749
1.04168 0.1 0.218749 0.00375753
0.905821 0.1 -0.5625 0.0037177
0.905821 0.1 0.5625 0.00371775
0 0.1 1.06799 0.00375
0 0.1 -1.06799 0.00375
0.0363518 0.1 -1.06799 0.00375111
0.0363518 0.1 1.06799 0.00375112
0.350249 0.1 1.0125 0.00373416
0.350249 0.1 -1.0125 0.00373413
1.0579 0.1 -0.180262 0.0037632
1.0579 0.1 0.180262 0.00376327
1.02149 0.1 0.332665 0.00374809
1.02149 0.1 -0.332665 0.00374802
0.93886 0.1 -0.525 0.00372433
0.93886 0.1 0.525 0.00372438
1.08012 0.1 4.48137e-18 0.00377194
1.04168 0.1 -0.291665 0.00375457
1.04168 0.1 0.291665 0.00375463
1.08012 0.1 -0.0709942 0.00377157
1.08012 0.1 0.0709942 0.00377159
0.96969 0.1 -0.4875 0.00373143
0.96969 0.1 0.4875 0.00373148
1.0579 0.1 -0.252367 0.00376073
1.0579 0.1 0.252367 0.00376083
0.990306 0.1 -0.45 0.00373462
0.990306 0.1 0.45 0.00373468
0.287374 0.1 1.05 0.00373956
0.287374 0.1 -1.05 0.00373953
0.714971 0.1 0.821002 0.00370428
1.08012 0.1 0.141988 0.00377045
1.08012 0.1 -0.141988 0.0037704
0.0757758 0.1 -1.0875 0.00375202
0.0757758 0.1 1.0875 0.00375203
0.714971 0.1 -0.825 0.00370414
0.756814 0.1 -0.7875 0.00370304
0.756814 0.1 0.7875 0.00370309
0.67013 0.1 -0.8625 0.0037058
0.67013 0.1 0.8625 0.00370585
0.797314 0.1 -0.75 0.00370395
0.797314 0.1 0.75 0.003704
0.623803 0.1 0.9 0.00370909
0.835107 0.1 -0.7125 0.00370542
0.835107 0.1 0.7125 0.00370547
0.623803 0.1 -0.903998 0.00370905
0.574156 0.1 0.9375 0.00371285
0.574156 0.1 -0.9375 0.00371281
1.02149 0.1 -0.406591 0.00374373
1.02149 0.1 0.406591 0.00374382
1.08012 0.1 -0.212982 0.00376833
1.08012 0.1 0.212982 0.0037684
1.10076 0.1 -0.034981 0.00377809
1.10076 0.1 0.034981 0.0037781
0.871687 0.1 -0.675 0.00370876
0.871687 0.1 0.675 0.00370881
1.04168 0.1 -0.364581 0.00375064
1.04168 0.1 0.364581 0.0037507
1.10076 0.1 0.104943 0.00377735
1.10076 0.1 -0.104943 0.00377732
0.522864 0.1 0.975 0.00371764
0.522864 0.1 -0.975 0.00371759
1.0579 0.1 0.324472 0.00375732
1.0579 0.1 -0.324472 0.0037572
0 0.1 1.10701 0.00375
0 0.1 -1.10701 0.00375
0.0363518 0.1 -1.10701 0.00375111
0.0363518 0.1 1.10701 0.00375112
0.905821 0.1 -0.6375 0.00371269
0.905821 0.1 0.6375 0.00371274
0.219992 0.1 -1.0875 0.00374517
0.219992 0.1 1.0875 0.00374519
0.93886 0.1 -0.6 0.00371879
0.93886 0.1 0.6 0.00371884
1.10076 0.1 0.174905 0.0037757
1.10076 0.1 -0.174905 0.00377566
0.467897 0.1 1.0125 0.00372283
0.467897 0.1 -1.0125 0.00372279
1.08012 0.1 -0.283977 0.00376524
1.08012 0.1 0.283977 0.00376533
1.11929 0.1 1.20274e-17 0.00378374
0.990306 0.1 -0.525 0.00372874
0.990306 0.1 0.525 0.00372879
0.96969 0.1 -0.5625 0.00372535
0.96969 0.1 0.5625 0.0037254
1.11929 0.1 0.0690357 0.00378336
1.11929 0.1 -0.0690357 0.00378334
0 0.1 1.125 0.00375
0 0.1 -1.125 0.00375
0.411108 0.1 1.05 0.0037284
0.411108 0.1 -1.05 0.00372837
1.10076 0.1 -0.244867 0.00377304
1.10076 0.1 0.244867 0.00377309
1.11929 0.1 -0.138071 0.00378209
1.11929 0.1 0.138071 0.00378213
1.02149 0.1 0.480517 0.00373809
1.02149 0.1 -0.480517 0.00373802
1.0579 0.1 -0.396577 0.00375262
1.0579 0.1 0.396577 0.00375277
1.04168 0.1 -0.437497 0.0037455
1.04168 0.1 0.437497 0.00374555
0.150379 0.1 1.125 0.00374859
0.150379 0.1 -1.125 0.00374857
0.714971 0.1 0.88201 0.00370165
1.08012 0.1 -0.354971 0.00376109
1.08012 0.1 0.354971 0.00376119
1.11929 0.1 0.207107 0.00377997
1.11929 0.1 -0.207107 0.00377992
0.350249 0.1 1.0875 0.00373434
0.350249 0.1 -1.0875 0.00373431
0 0.1 -1.14299 0.00375
0 0.1 1.14299 0.00375
0.0363518 0.1 1.14299 0.00375117
0.0363518 0.1 -1.14299 0.00375116
1.14316 0.1 0.0339211 0.00379148
1.14316 0.1 -0.0339211 0.00379146
0.797314 0.1 0.821002 0.00370096
1.10076 0.1 -0.314829 0.00376935
1.10076 0.1 0.314829 0.0037694
0.797314 0.1 -0.825 0.00370073
0.756814 0.1 0.8625 0.00370057
0.756814 0.1 -0.8625 0.00370051
1.14316 0.1 0.101763 0.00379067
1.14316 0.1 -0.101763 0.00379062
0.835107 0.1 -0.7875 0.00370157
0.835107 0.1 0.7875 0.00370163
0.871687 0.1 -0.75 0.00370417
0.871687 0.1 0.75 0.00370422
0.67013 0.1 0.9375 0.00370443
0.67013 0.1 -0.9375 0.00370437
0.905821 0.1 -0.7125 0.00370742
0.905821 0.1 0.7125 0.00370747
0.714971 0.1 -0.903998 0.0037023
1.11929 0.1 -0.276143 0.00377672
1.11929 0.1 0.276143 0.00377679
1.14316 0.1 -0.169605 0.00378886
1.14316 0.1 0.169605 0.00378895
0.93886 0.1 -0.675 0.00371292
0.93886 0.1 0.675 0.00371297
1.15704 0.1 0 0.00379575
1.0579 0.1 -0.468682 0.00374662
1.0579 0.1 0.468682 0.00374678
0.623803 0.1 0.975 0.00370811
0.623803 0.1 -0.975 0.00370806
0.990306 0.1 -0.6 0.00372217
0.990306 0.1 0.6 0.00372222
1.15704 0.1 -0.0671479 0.00379532
1.15704 0.1 0.0671479 0.00379534
1.04168 0.1 -0.510414 0.00373893
1.04168 0.1 0.510414 0.00373897
0.96969 0.1 -0.6375 0.00371889
0.96969 0.1 0.6375 0.00371894
1.08012 0.1 -0.425965 0.00375571
1.08012 0.1 0.425965 0.00375581
0.287374 0.1 1.125 0.0037397
0.287374 0.1 -1.125 0.00373967
1.02149 0.1 -0.554442 0.00373106
1.02149 0.1 0.554442 0.00373115
0.574156 0.1 1.0125 0.00371228
0.574156 0.1 -1.0125 0.00371223
1.15704 0.1 -0.134296 0.00379402
1.15704 0.1 0.134296 0.00379404
0.0757758 0.1 -1.1625 0.00375213
0.0757758 0.1 1.1625 0.00375214
1.10076 0.1 -0.384791 0.00376457
1.10076 0.1 0.384791 0.00376463
1.14316 0.1 -0.237448 0.00378614
1.14316 0.1 0.237448 0.00378626
1.11929 0.1 0.345179 0.00377253
1.11929 0.1 -0.345179 0.00377245
0.522864 0.1 1.05 0.00371726
0.522864 0.1 -1.05 0.00371723
1.15704 0.1 -0.201444 0.00379178
1.15704 0.1 0.201444 0.00379182
1.1744 0.1 -0.0331401 0.00380121
1.1744 0.1 0.0331401 0.00380122
1.1744 0.1 0.0994203 0.00380038
1.1744 0.1 -0.0994203 0.00380036
0 0.1 1.18201 0.00375
0 0.1 -1.18201 0.00375
0.0363518 0.1 -1.18201 0.00375116
0.0363518 0.1 1.18201 0.00375117
0.219992 0.1 -1.1625 0.00374528
0.219992 0.1 1.1625 0.0037453
1.14316 0.1 -0.30529 0.00378237
1.14316 0.1 0.30529 0.00378252
0.467897 0.1 -1.0875 0.00372264
0.467897 0.1 1.0875 0.00372267
1.1744 0.1 -0.1657 0.00379859
1.1744 0.1 0.1657 0.00379863
1.15704 0.1 -0.268592 0.00378853
1.15704 0.1 0.268592 0.00378859
1.0579 0.1 0.540787 0.0037394
1.0579 0.1 -0.540787 0.00373923
0.796996 0.1 0.88201 0.00369836
1.08012 0.1 0.496959 0.00374894
1.08012 0.1 -0.496959 0.00374882
1.10076 0.1 -0.454752 0.00375839
1.10076 0.1 0.454752 0.00375844
1.11929 0.1 -0.414214 0.00376693
1.11929 0.1 0.414214 0.00376702
1.04168 0.1 -0.58333 0.00373152
1.04168 0.1 0.58333 0.00373157
1.1744 0.1 -0.231981 0.00379588
1.1744 0.1 0.231981 0.00379594
0.871687 0.1 0.821002 0.00369978
0.411108 0.1 1.125 0.00372835
0.411108 0.1 -1.125 0.00372832
1.19808 0.1 0 0.00380972
0.990306 0.1 -0.675 0.00371527
0.990306 0.1 0.675 0.00371533
1.02149 0.1 0.628368 0.00372384
1.02149 0.1 -0.628368 0.00372375
1.19808 0.1 0.0650961 0.00380929
1.19808 0.1 -0.0650961 0.00380928
0 0.1 1.2 0.00375
0 0.1 -1.2 0.00375
0.871687 0.1 -0.825 0.00369949
0.905821 0.1 -0.7875 0.00370194
0.905821 0.1 0.7875 0.003702
0.835107 0.1 0.8625 0.00369767
0.835107 0.1 -0.8625 0.00369762
0.93886 0.1 -0.75 0.00370687
0.93886 0.1 0.75 0.00370693
1.14316 0.1 -0.373132 0.00377747
1.14316 0.1 0.373132 0.00377765
0.96969 0.1 -0.7125 0.00371221
0.96969 0.1 0.7125 0.00371226
1.15704 0.1 -0.33574 0.00378421
1.15704 0.1 0.33574 0.00378427
0.756814 0.1 0.9375 0.003698
0.756814 0.1 -0.9375 0.00369795
1.19808 0.1 -0.130192 0.00380793
1.19808 0.1 0.130192 0.00380795
0.797314 0.1 -0.903998 0.00369777
0.714971 0.1 -0.975 0.00370017
0.714971 0.1 0.975 0.00370022
0.150379 0.1 -1.2 0.00374864
0.150379 0.1 1.2 0.00374866
1.20938 0.1 -0.0322656 0.00381306
1.20938 0.1 0.0322656 0.00381307
1.1744 0.1 -0.298261 0.00379215
1.1744 0.1 0.298261 0.00379221
1.20938 0.1 -0.0967968 0.00381217
1.20938 0.1 0.0967968 0.00381219
1.19808 0.1 0.195288 0.00380569
1.19808 0.1 -0.195288 0.00380565
0.350249 0.1 -1.1625 0.00373436
0.350249 0.1 1.1625 0.00373438
0.67013 0.1 -1.0125 0.00370298
0.67013 0.1 1.0125 0.00370303
0 0.1 1.21799 0.00375
0 0.1 -1.21799 0.00375
0.0363518 0.1 1.21799 0.00375119
0.0363518 0.1 -1.21799 0.00375119
1.11929 0.1 -0.48325 0.00375989
1.11929 0.1 0.48325 0.00375998
1.10076 0.1 -0.524714 0.00375058
1.10076 0.1 0.524714 0.00375063
1.20938 0.1 0.161328 0.00381039
1.20938 0.1 -0.161328 0.00381036
1.08012 0.1 -0.567953 0.00374102
1.08012 0.1 0.567953 0.00374114
0.623803 0.1 1.05 0.00370709
0.623803 0.1 -1.05 0.00370705
1.0579 0.1 0.612892 0.00373164
1.0579 0.1 -0.612892 0.00373146
1.15704 0.1 -0.402888 0.00377866
1.15704 0.1 0.402888 0.00377872
1.14316 0.1 -0.440974 0.0037712
1.14316 0.1 0.440974 0.00377141
1.19808 0.1 -0.260384 0.0038024
1.19808 0.1 0.260384 0.00380246
1.2267 0.1 0 0.00381995
1.2267 0.1 -0.0636648 0.00381949
1.2267 0.1 0.0636648 0.0038195
1.1744 0.1 -0.364541 0.0037873
1.1744 0.1 0.364541 0.00378737
0.574156 0.1 -1.0875 0.00371155
0.574156 0.1 1.0875 0.00371158
1.20938 0.1 0.225859 0.00380767
1.20938 0.1 -0.225859 0.00380762
1.04168 0.1 -0.656246 0.0037237
1.04168 0.1 0.656246 0.00372376
1.2267 0.1 -0.12733 0.00381809
1.2267 0.1 0.12733 0.00381812
0.287374 0.1 -1.2 0.00373967
0.287374 0.1 1.2 0.0037397
1.02149 0.1 -0.702294 0.00371605
1.02149 0.1 0.702294 0.00371614
0.0757758 0.1 1.2375 0.0037522
0.0757758 0.1 -1.2375 0.00375219
0.871399 0.1 0.88201 0.00369605
0.522864 0.1 -1.125 0.00371677
0.522864 0.1 1.125 0.0037168
1.2267 0.1 -0.190995 0.00381575
1.2267 0.1 0.190995 0.0038158
1.19808 0.1 -0.32548 0.0037981
1.19808 0.1 0.32548 0.00379817
0.990306 0.1 -0.75 0.0037082
0.990306 0.1 0.75 0.00370826
1.24275 0.1 -0.0314313 0.00382552
1.24275 0.1 0.0314313 0.00382552
1.20938 0.1 -0.29039 0.00380388
1.20938 0.1 0.29039 0.00380395
1.24275 0.1 -0.0942939 0.00382457
1.24275 0.1 0.0942939 0.00382459
0.93886 0.1 0.821002 0.00370107
1.11929 0.1 -0.552286 0.00375178
1.11929 0.1 0.552286 0.00375188
1.15704 0.1 -0.470036 0.00377159
1.15704 0.1 0.470036 0.00377164
0.96969 0.1 -0.7875 0.00370548
0.96969 0.1 0.7875 0.00370555
0.93886 0.1 -0.825 0.00370074
0.905821 0.1 -0.8625 0.00369656
0.905821 0.1 0.8625 0.00369662
1.1744 0.1 -0.430821 0.00378112
1.1744 0.1 0.430821 0.0037812
1.10076 0.1 -0.594676 0.00374243
1.10076 0.1 0.594676 0.00374249
1.14316 0.1 -0.508816 0.00376333
1.14316 0.1 0.508816 0.00376356
1.24275 0.1 -0.157157 0.00382267
1.24275 0.1 0.157157 0.00382271
1.2267 0.1 -0.254659 0.00381246
1.2267 0.1 0.254659 0.00381253
0.467897 0.1 -1.1625 0.0037224
0.467897 0.1 1.1625 0.00372243
1.08012 0.1 -0.638947 0.0037327
1.08012 0.1 0.638947 0.00373284
1.25511 0.1 0 0.00383109
0.835107 0.1 -0.9375 0.00369372
0.835107 0.1 0.9375 0.00369378
0.871687 0.1 -0.903998 0.00369526
1.25511 0.1 -0.0622446 0.00383058
1.25511 0.1 0.0622446 0.00383061
0.219992 0.1 -1.2375 0.00374529
0.219992 0.1 1.2375 0.00374531
0 0.1 -1.25701 0.00375
0 0.1 1.25701 0.00375
0.0363518 0.1 1.25701 0.00375119
0.0363518 0.1 -1.25701 0.00375119
0.797314 0.1 0.975 0.00369433
0.797314 0.1 -0.975 0.00369427
1.19808 0.1 -0.390576 0.00379261
1.19808 0.1 0.390576 0.00379268
1.0579 0.1 0.684997 0.00372333
1.0579 0.1 -0.684997 0.00372314
1.20938 0.1 -0.354921 0.00379906
1.20938 0.1 0.354921 0.00379914
1.25511 0.1 -0.124489 0.00382908
1.25511 0.1 0.124489 0.00382915
1.24275 0.1 -0.220019 0.00381984
1.24275 0.1 0.220019 0.00381989
0.756814 0.1 -1.0125 0.00369541
0.756814 0.1 1.0125 0.00369546
1.2267 0.1 -0.318324 0.00380814
1.2267 0.1 0.318324 0.00380822
0.411108 0.1 -1.2 0.00372816
0.411108 0.1 1.2 0.00372819
1.25511 0.1 0.186734 0.00382672
1.25511 0.1 -0.186734 0.00382662
0.714971 0.1 1.05 0.00369831
0.714971 0.1 -1.05 0.00369827
1.04168 0.1 -0.729162 0.00371551
1.04168 0.1 0.729162 0.00371558
1.24275 0.1 0.282882 0.00381611
1.24275 0.1 -0.282882 0.00381604
0 0.1 1.275 0.00375
0 0.1 -1.275 0.00375
1.1744 0.1 -0.497101 0.0037733
1.1744 0.1 0.497101 0.00377337
1.15704 0.1 -0.537184 0.00376325
1.15704 0.1 0.537184 0.00376331
1.2756 0.1 -0.0306099 0.00383996
1.2756 0.1 0.0306099 0.00383997
0.67013 0.1 -1.0875 0.00370164
0.67013 0.1 1.0875 0.00370167
1.2756 0.1 0.0918298 0.00383895
1.2756 0.1 -0.0918298 0.00383891
1.25511 0.1 -0.248978 0.00382319
1.25511 0.1 0.248978 0.00382333
1.20938 0.1 0.419453 0.00379304
1.20938 0.1 -0.419453 0.00379297
1.11929 0.1 -0.621321 0.00374309
1.11929 0.1 0.621321 0.0037432
1.14316 0.1 -0.576658 0.00375475
1.14316 0.1 0.576658 0.00375502
1.19808 0.1 -0.455672 0.00378567
1.19808 0.1 0.455672 0.00378573
1.02149 0.1 0.776219 0.00370828
1.02149 0.1 -0.776219 0.00370818
0.150379 0.1 1.275 0.00374866
0.150379 0.1 -1.275 0.00374864
1.2756 0.1 -0.15305 0.00383685
1.2756 0.1 0.15305 0.0038369
1.2267 0.1 -0.381989 0.00380266
1.2267 0.1 0.381989 0.00380275
1.10076 0.1 -0.664638 0.0037335
1.10076 0.1 0.664638 0.00373357