# kMean  POINT_DATA 63889
# x  y  z  kMean
0 0.5 3.39582e-17 0.00375
0 0.5 -0.00617965 0.00375
0 0.5 0.00617965 0.00375
0.0124871 0.5 -0.00617965 0.00375032
0.0124871 0.5 0.00617965 0.00375032
0 0.5 -0.0688203 0.00375
0 0.5 0.0688203 0.00375
0.0124871 0.5 -0.0688203 0.00375032
0.0124871 0.5 0.0688203 0.00375032
0 0.5 -0.075 0.00375
0 0.5 0.075 0.00375
0 0.5 -0.0811797 0.00375
0 0.5 0.0811797 0.00375
0.0124871 0.5 -0.0811797 0.00375033
0.0124871 0.5 0.0811797 0.00375033
0.0757758 0.5 -0.0375 0.00375196
0.0757758 0.5 0.0375 0.00375196
0.0757758 0.5 -0.1125 0.003752
0.0757758 0.5 0.1125 0.003752
0 0.5 -0.14382 0.00375
0 0.5 0.14382 0.00375
0.0124871 0.5 -0.14382 0.00375033
0.0124871 0.5 0.14382 0.00375033
0 0.5 -0.15 0.00375
0 0.5 0.15 0.00375
0.151149 0.5 -0.00137326 0.00375432
0 0.5 -0.15618 0.00375
0 0.5 0.15618 0.00375
0.0124871 0.5 -0.15618 0.00375035
0.0124871 0.5 0.15618 0.00375035
0.151149 0.5 -0.075 0.00375438
0.151149 0.5 0.075 0.00375439
0.0757758 0.5 -0.1875 0.00375211
0.0757758 0.5 0.1875 0.00375212
0.151149 0.5 -0.15 0.00375453
0.151149 0.5 0.15 0.00375454
0 0.5 -0.21882 0.00375
0 0.5 0.21882 0.00375
0.0124871 0.5 -0.21882 0.00375035
0.0124871 0.5 0.21882 0.00375035
0.219992 0.5 -0.0375 0.00375656
0.219992 0.5 0.0375 0.00375656
0 0.5 -0.225 0.00375
0 0.5 0.225 0.00375
0 0.5 -0.23118 0.00375
0 0.5 0.23118 0.00375
0.0124871 0.5 -0.23118 0.00375037
0.0124871 0.5 0.23118 0.00375037
0.219992 0.5 -0.1125 0.00375669
0.219992 0.5 0.1125 0.0037567
0.151149 0.5 -0.225 0.00375478
0.151149 0.5 0.225 0.00375479
0.0757758 0.5 -0.2625 0.00375227
0.0757758 0.5 0.2625 0.00375228
0.288069 0.5 -0.00137326 0.0037612
0.219992 0.5 -0.1875 0.00375699
0.219992 0.5 0.1875 0.003757
0 0.5 -0.29382 0.00375
0 0.5 0.29382 0.00375
0.0124871 0.5 -0.29382 0.00375037
0.0124871 0.5 0.29382 0.00375037
0.288069 0.5 -0.075 0.0037613
0.288069 0.5 0.075 0.00376131
0 0.5 -0.3 0.00375
0 0.5 0.3 0.00375
0 0.5 -0.30618 0.00375
0 0.5 0.30618 0.00375
0.0124871 0.5 -0.30618 0.00375041
0.0124871 0.5 0.30618 0.00375041
0.288069 0.5 -0.15 0.00376153
0.288069 0.5 0.15 0.00376154
0.151149 0.5 -0.3 0.00375512
0.151149 0.5 0.3 0.00375513
0.219992 0.5 -0.2625 0.00375742
0.219992 0.5 0.2625 0.00375744
0.0757758 0.5 -0.3375 0.00375247
0.0757758 0.5 0.3375 0.00375248
0.350249 0.5 -0.0375 0.00376561
0.350249 0.5 0.0375 0.00376561
0.288069 0.5 -0.225 0.00376192
0.288069 0.5 0.225 0.00376194
0.350249 0.5 -0.1125 0.00376575
0.350249 0.5 0.1125 0.00376576
0 0.5 0.36882 0.00375
0 0.5 -0.36882 0.00375
0.0124871 0.5 -0.36882 0.00375041
0.0124871 0.5 0.36882 0.00375041
0 0.5 -0.375 0.00375
0 0.5 0.375 0.00375
0 0.5 -0.38118 0.00375
0 0.5 0.38118 0.00375
0.0124871 0.5 -0.38118 0.00375044
0.0124871 0.5 0.38118 0.00375044
0.350249 0.5 -0.1875 0.0037661
0.350249 0.5 0.1875 0.00376612
0.219992 0.5 -0.3375 0.00375795
0.219992 0.5 0.3375 0.00375797
0.151149 0.5 -0.375 0.0037555
0.151149 0.5 0.375 0.00375552
0.411736 0.5 -0.00137326 0.00377278
0.288069 0.5 -0.3 0.00376242
0.288069 0.5 0.3 0.00376245
0.411736 0.5 -0.075 0.00377289
0.411736 0.5 0.075 0.0037729
0.0757758 0.5 -0.4125 0.00375268
0.0757758 0.5 0.4125 0.00375269
0.350249 0.5 -0.2625 0.00376657
0.350249 0.5 0.2625 0.0037666
0.411736 0.5 -0.15 0.00377309
0.411736 0.5 0.15 0.00377311
0 0.5 -0.44382 0.00375
0 0.5 0.44382 0.00375
0.0124871 0.5 -0.44382 0.00375044
0.0124871 0.5 0.44382 0.00375044
0 0.5 -0.45 0.00375
0 0.5 0.45 0.00375
0 0.5 -0.45618 0.00375
0 0.5 0.45618 0.00375
0.0124871 0.5 -0.45618 0.00375048
0.0124871 0.5 0.45618 0.00375048
0.219992 0.5 -0.4125 0.00375853
0.219992 0.5 0.4125 0.00375856
0.411736 0.5 0.225 0.00377347
0.411736 0.5 -0.225 0.00377344
0.467897 0.5 0.0375 0.00377963
0.467897 0.5 -0.0375 0.00377962
0.288069 0.5 -0.375 0.00376301
0.288069 0.5 0.375 0.00376303
0.151149 0.5 -0.45 0.00375591
0.151149 0.5 0.45 0.00375593
0.467897 0.5 -0.1125 0.00377971
0.467897 0.5 0.1125 0.00377972
0.350249 0.5 -0.3375 0.00376715
0.350249 0.5 0.3375 0.00376718
0.0757758 0.5 0.4875 0.00375291
0.0757758 0.5 -0.4875 0.0037529
0.467897 0.5 -0.1875 0.00377996
0.467897 0.5 0.1875 0.00377998
0.411736 0.5 -0.3 0.00377388
0.411736 0.5 0.3 0.00377391
0 0.5 -0.51882 0.00375
0 0.5 0.51882 0.00375
0.0124871 0.5 -0.51882 0.00375048
0.0124871 0.5 0.51882 0.00375048
0.523432 0.5 -0.00137326 0.00378914
0 0.5 -0.525 0.00375
0 0.5 0.525 0.00375
0.523432 0.5 -0.075 0.00378922
0.523432 0.5 0.075 0.00378923
0 0.5 -0.53118 0.00375
0 0.5 0.53118 0.00375
0.0124871 0.5 -0.53118 0.00375051
0.0124871 0.5 0.53118 0.00375051
0.288069 0.5 -0.45 0.00376362
0.288069 0.5 0.45 0.00376365
0.219992 0.5 -0.4875 0.00375913
0.219992 0.5 0.4875 0.00375916
0.467897 0.5 -0.2625 0.00378029
0.467897 0.5 0.2625 0.00378032
0.350249 0.5 -0.4125 0.00376779
0.350249 0.5 0.4125 0.00376782
0.523432 0.5 -0.15 0.0037893
0.523432 0.5 0.15 0.00378932
0.151149 0.5 -0.525 0.00375632
0.151149 0.5 0.525 0.00375634
0.411736 0.5 -0.375 0.00377438
0.411736 0.5 0.375 0.00377442
0.0757758 0.5 -0.5625 0.00375311
0.0757758 0.5 0.5625 0.00375311
0.523432 0.5 -0.225 0.00378946
0.523432 0.5 0.225 0.00378948
0.574156 0.5 0.0375 0.00379825
0.574156 0.5 -0.0375 0.00379824
0.467897 0.5 -0.3375 0.00378068
0.467897 0.5 0.3375 0.00378072
0.574156 0.5 -0.1125 0.00379822
0.574156 0.5 0.1125 0.00379824
0 0.5 -0.59382 0.00375
0 0.5 0.59382 0.00375
0.0124871 0.5 -0.59382 0.00375051
0.0124871 0.5 0.59382 0.00375051
0.288069 0.5 -0.525 0.00376424
0.288069 0.5 0.525 0.00376427
0 0.5 -0.6 0.00375
0 0.5 0.6 0.00375
0.350249 0.5 0.4875 0.00376848
0.350249 0.5 -0.4875 0.00376844
0.523432 0.5 -0.3 0.00378965
0.523432 0.5 0.3 0.00378968
0.219992 0.5 -0.5625 0.00375972
0.219992 0.5 0.5625 0.00375975
0.574156 0.5 -0.1875 0.00379826
0.574156 0.5 0.1875 0.00379828
0 0.5 -0.60618 0.00375
0 0.5 0.60618 0.00375
0.0124871 0.5 -0.60618 0.00375054
0.0124871 0.5 0.60618 0.00375054
0.411736 0.5 -0.45 0.0037749
0.411736 0.5 0.45 0.00377494
0.151149 0.5 -0.6 0.00375671
0.151149 0.5 0.6 0.00375673
0.62168 0.5 4.33681e-17 0.00380921
0.467897 0.5 -0.4125 0.00378109
0.467897 0.5 0.4125 0.00378113
0.624316 0.5 0.0729401 0.00380986
0.624316 0.5 -0.075 0.00380985
0.574156 0.5 -0.2625 0.00379829
0.574156 0.5 0.2625 0.00379832
0.0757758 0.5 -0.6375 0.00375329
0.0757758 0.5 0.6375 0.0037533
0.624316 0.5 -0.15 0.00380974
0.624316 0.5 0.15 0.00380976
0.523432 0.5 -0.375 0.00378984
0.523432 0.5 0.375 0.00378988
0.350249 0.5 -0.5625 0.00376906
0.350249 0.5 0.5625 0.0037691
0.624316 0.5 -0.225 0.00380959
0.624316 0.5 0.225 0.00380962
0.288069 0.5 -0.6 0.00376481
0.288069 0.5 0.6 0.00376485
0.574156 0.5 -0.3375 0.00379831
0.574156 0.5 0.3375 0.00379835
0.411736 0.5 0.525 0.00377543
0.411736 0.5 -0.525 0.00377539
0 0.5 0.66882 0.00375
0 0.5 -0.66882 0.00375
0.0124871 0.5 -0.66882 0.00375054
0.0124871 0.5 0.66882 0.00375054
0.67013 0.5 -0.0375 0.00382097
0.67013 0.5 0.0375 0.00382097
0.219992 0.5 -0.6375 0.00376026
0.219992 0.5 0.6375 0.00376029
0 0.5 -0.675 0.00375
0 0.5 0.675 0.00375
0.467897 0.5 -0.4875 0.00378147
0.467897 0.5 0.4875 0.00378152
0.67013 0.5 -0.1125 0.00382078
0.67013 0.5 0.1125 0.0038208
0 0.5 -0.68118 0.00375
0 0.5 0.68118 0.00375
0.0124871 0.5 -0.68118 0.00375057
0.0124871 0.5 0.68118 0.00375057
0.523432 0.5 -0.45 0.00378999
0.523432 0.5 0.45 0.00379003
0.151149 0.5 -0.675 0.00375705
0.151149 0.5 0.675 0.00375707
0.624316 0.5 -0.3 0.00380938
0.624316 0.5 0.3 0.00380942
0.67013 0.5 -0.1875 0.00382052
0.67013 0.5 0.1875 0.00382054
0.574156 0.5 0.4125 0.00379832
0.574156 0.5 -0.4125 0.00379827
0.708171 0.5 3.5345e-17 0.00383222
0.0757758 0.5 -0.7125 0.00375346
0.0757758 0.5 0.7125 0.00375346
0.715434 0.5 0.0736267 0.00383398
0.715434 0.5 -0.075 0.00383425
0.67013 0.5 -0.2625 0.00382011
0.67013 0.5 0.2625 0.00382015
0.350249 0.5 -0.6375 0.00376961
0.350249 0.5 0.6375 0.00376965
0.411736 0.5 0.6 0.00377586
0.411736 0.5 -0.6 0.00377582
0.624316 0.5 -0.375 0.00380908
0.624316 0.5 0.375 0.00380912
0.715434 0.5 -0.15 0.00383388
0.715434 0.5 0.15 0.0038339
0.467897 0.5 -0.5625 0.0037818
0.467897 0.5 0.5625 0.00378184
0.288069 0.5 -0.675 0.00376532
0.288069 0.5 0.675 0.00376535
0.523432 0.5 -0.525 0.00379006
0.523432 0.5 0.525 0.00379011
0 0.5 0.74382 0.00375
0 0.5 -0.74382 0.00375
0.0124871 0.5 -0.74382 0.00375057
0.0124871 0.5 0.74382 0.00375057
0.219992 0.5 0.7125 0.00376076
0.219992 0.5 -0.7125 0.00376073
0.715434 0.5 -0.225 0.00383332
0.715434 0.5 0.225 0.00383335
0 0.5 -0.75 0.00375
0 0.5 0.75 0.00375
0.67013 0.5 -0.3375 0.00381966
0.67013 0.5 0.3375 0.0038197
0.574156 0.5 -0.4875 0.00379814
0.574156 0.5 0.4875 0.00379819
0 0.5 0.75618 0.00375
0 0.5 -0.75618 0.00375
0.0124871 0.5 -0.75618 0.00375059
0.0124871 0.5 0.75618 0.00375059
0.756814 0.5 0.0375 0.00384717
0.756814 0.5 -0.0375 0.00384717
0.151149 0.5 0.75 0.00375736
0.151149 0.5 -0.75 0.00375734
0.756814 0.5 -0.1125 0.0038468
0.756814 0.5 0.1125 0.00384681
0.624316 0.5 -0.45 0.00380863
0.624316 0.5 0.45 0.00380868
0.715434 0.5 -0.3 0.00383259
0.715434 0.5 0.3 0.00383263
0.756814 0.5 -0.1875 0.00384617
0.756814 0.5 0.1875 0.00384619
0.67013 0.5 -0.4125 0.00381896
0.67013 0.5 0.4125 0.003819
0.411736 0.5 -0.675 0.00377615
0.411736 0.5 0.675 0.00377619
0.467897 0.5 -0.6375 0.00378203
0.467897 0.5 0.6375 0.00378208
0.0757758 0.5 -0.7875 0.00375358
0.0757758 0.5 0.7875 0.00375359
0.350249 0.5 -0.7125 0.00377007
0.350249 0.5 0.7125 0.00377011
0.523432 0.5 0.6 0.00379009
0.523432 0.5 -0.6 0.00379004
0.797732 0.5 1.60462e-17 0.00386215
0.756814 0.5 -0.2625 0.00384524
0.756814 0.5 0.2625 0.00384528
0.797732 0.5 0.0736267 0.00386178
0.797732 0.5 -0.075 0.0038619
0.288069 0.5 0.75 0.00376576
0.288069 0.5 -0.75 0.00376573
0.574156 0.5 -0.5625 0.0037979
0.574156 0.5 0.5625 0.00379795
0.715434 0.5 -0.375 0.00383164
0.715434 0.5 0.375 0.00383169
0.797732 0.5 -0.15 0.00386121
0.797732 0.5 0.15 0.00386123
0.624316 0.5 -0.525 0.00380806
0.624316 0.5 0.525 0.00380811
0.219992 0.5 -0.7875 0.00376111
0.219992 0.5 0.7875 0.00376114
0 0.5 -0.81882 0.00375
0 0.5 0.81882 0.00375
0.0124871 0.5 -0.81882 0.00375059
0.0124871 0.5 0.81882 0.00375059
0 0.5 -0.825 0.00375
0 0.5 0.825 0.00375
0.756814 0.5 -0.3375 0.00384413
0.756814 0.5 0.3375 0.00384417
0.67013 0.5 0.4875 0.00381814
0.67013 0.5 -0.4875 0.00381809
0.797732 0.5 0.225 0.00386016
0.797732 0.5 -0.225 0.00386013
0 0.5 -0.83118 0.00375
0 0.5 0.83118 0.00375
0.0124871 0.5 -0.83118 0.00375061
0.0124871 0.5 0.83118 0.00375061
0.835107 0.5 -0.0375 0.00387648
0.835107 0.5 0.0375 0.00387649
0.151149 0.5 -0.825 0.00375757
0.151149 0.5 0.825 0.00375759
0.835107 0.5 0.1125 0.00387588
0.835107 0.5 -0.1125 0.00387586
0.715434 0.5 -0.45 0.00383043
0.715434 0.5 0.45 0.00383049
0.797732 0.5 -0.3 0.0038587
0.797732 0.5 0.3 0.00385874
0.467897 0.5 0.7125 0.00378219
0.467897 0.5 -0.7125 0.00378214
0.523432 0.5 -0.675 0.00378989
0.523432 0.5 0.675 0.00378994
0.411736 0.5 0.75 0.00377641
0.411736 0.5 -0.75 0.00377637
0.835107 0.5 -0.1875 0.00387474
0.835107 0.5 0.1875 0.00387477
0.574156 0.5 0.6375 0.00379758
0.574156 0.5 -0.6375 0.00379753
0.350249 0.5 -0.7875 0.00377042
0.350249 0.5 0.7875 0.00377045
0.756814 0.5 -0.4125 0.00384266
0.756814 0.5 0.4125 0.00384271
0.0757758 0.5 -0.8625 0.00375368
0.0757758 0.5 0.8625 0.00375368
0.624316 0.5 -0.6 0.00380733
0.624316 0.5 0.6 0.00380738
0.872064 0.5 4.81386e-17 0.00389204
0.870122 0.5 0.075 0.00389074
0.288069 0.5 -0.825 0.00376604
0.288069 0.5 0.825 0.00376607
0.67013 0.5 -0.5625 0.00381706
0.67013 0.5 0.5625 0.00381711
0.872064 0.5 -0.075 0.0038917
0.835107 0.5 -0.2625 0.00387313
0.835107 0.5 0.2625 0.00387316
0.797732 0.5 -0.375 0.00385696
0.797732 0.5 0.375 0.00385701
0.872064 0.5 0.14794 0.00389076
0.872064 0.5 -0.15 0.00389074
0.715434 0.5 0.525 0.00382906
0.715434 0.5 -0.525 0.003829
0.219992 0.5 -0.8625 0.0037614
0.219992 0.5 0.8625 0.00376142
0 0.5 -0.89382 0.00375
0 0.5 0.89382 0.00375
0.0124871 0.5 -0.89382 0.00375061
0.0124871 0.5 0.89382 0.00375061
0 0.5 -0.9 0.00375
0 0.5 0.9 0.00375
0.756814 0.5 -0.4875 0.0038409
0.756814 0.5 0.4875 0.00384095
0.872064 0.5 -0.225 0.00388924
0.872064 0.5 0.225 0.00388927
0.835107 0.5 0.3375 0.00387114
0.835107 0.5 -0.3375 0.00387109
0 0.5 -0.90618 0.00375
0 0.5 0.90618 0.00375
0.0124871 0.5 -0.90618 0.00375062
0.0124871 0.5 0.90618 0.00375062
0.905821 0.5 0.0375 0.003907
0.905821 0.5 -0.0375 0.00390699
0.151149 0.5 -0.9 0.00375773
0.151149 0.5 0.9 0.00375774
0.905821 0.5 -0.1125 0.00390626
0.905821 0.5 0.1125 0.00390628
0.523432 0.5 -0.75 0.00378961
0.523432 0.5 0.75 0.00378966
0.574156 0.5 -0.7125 0.00379701
0.574156 0.5 0.7125 0.00379706
0.797732 0.5 -0.45 0.00385486
0.797732 0.5 0.45 0.00385491
0.467897 0.5 0.7875 0.00378217
0.467897 0.5 -0.7875 0.00378212
0.624316 0.5 -0.675 0.00380644
0.624316 0.5 0.675 0.0038065
0.411736 0.5 -0.825 0.00377646
0.411736 0.5 0.825 0.0037765
0.872064 0.5 -0.3 0.00388722
0.872064 0.5 0.3 0.00388726
0.67013 0.5 0.6375 0.0038159
0.67013 0.5 -0.6375 0.00381584
0.905821 0.5 -0.1875 0.00390492
0.905821 0.5 0.1875 0.00390494
0.350249 0.5 -0.8625 0.00377063
0.350249 0.5 0.8625 0.00377067
0.835107 0.5 -0.4125 0.00386879
0.835107 0.5 0.4125 0.00386884
0.715434 0.5 -0.6 0.00382736
0.715434 0.5 0.6 0.00382741
0.939201 0.5 3.31766e-17 0.00392233
0.0757758 0.5 -0.9375 0.00375373
0.0757758 0.5 0.9375 0.00375374
0.939112 0.5 0.075 0.00392187
0.939201 0.5 -0.075 0.00392193
0.756814 0.5 -0.5625 0.00383888
0.756814 0.5 0.5625 0.00383893
0.905821 0.5 0.2625 0.00390303
0.905821 0.5 -0.2625 0.00390299
0.288069 0.5 -0.9 0.00376622
0.288069 0.5 0.9 0.00376625
0.872064 0.5 -0.375 0.0038847
0.872064 0.5 0.375 0.00388475
0.939201 0.5 0.148627 0.00392072
0.939201 0.5 -0.15 0.00392081
0.797732 0.5 -0.525 0.00385239
0.797732 0.5 0.525 0.00385245
0.219992 0.5 -0.9375 0.00376158
0.219992 0.5 0.9375 0.0037616
0.939201 0.5 -0.225 0.00391905
0.939201 0.5 0.225 0.00391908
0.905821 0.5 -0.3375 0.00390051
0.905821 0.5 0.3375 0.00390055
0.835107 0.5 -0.4875 0.00386596
0.835107 0.5 0.4875 0.00386602
0 0.5 -0.96882 0.00375
0 0.5 0.96882 0.00375
0.0124871 0.5 -0.96882 0.00375062
0.0124871 0.5 0.96882 0.00375062
0.96969 0.5 -0.0375 0.00393713
0.96969 0.5 0.0375 0.00393713
0.574156 0.5 0.7875 0.0037964
0.574156 0.5 -0.7875 0.00379635
0 0.5 -0.975 0.00375
0 0.5 0.975 0.00375
0.624316 0.5 -0.75 0.0038054
0.624316 0.5 0.75 0.00380545
0.96969 0.5 -0.1125 0.00393629
0.96969 0.5 0.1125 0.00393631
0.523432 0.5 -0.825 0.00378919
0.523432 0.5 0.825 0.00378924
0.67013 0.5 -0.7125 0.00381445
0.67013 0.5 0.7125 0.0038145
0 0.5 -0.98118 0.00375
0 0.5 0.98118 0.00375
0.467897 0.5 -0.8625 0.00378196
0.467897 0.5 0.8625 0.00378201
0.0124871 0.5 -0.98118 0.00375062
0.0124871 0.5 0.98118 0.00375062
0.872064 0.5 0.45 0.00388166
0.872064 0.5 -0.45 0.00388161
0.715434 0.5 -0.675 0.0038255
0.715434 0.5 0.675 0.00382556
0.939201 0.5 0.3 0.00391671
0.939201 0.5 -0.3 0.00391667
0.151149 0.5 -0.975 0.00375782
0.151149 0.5 0.975 0.00375783
0.96969 0.5 -0.1875 0.00393474
0.96969 0.5 0.1875 0.00393477
0.756814 0.5 0.6375 0.00383667
0.756814 0.5 -0.6375 0.00383662
0.411736 0.5 -0.9 0.0037764
0.411736 0.5 0.9 0.00377644
0.905821 0.5 -0.4125 0.00389729
0.905821 0.5 0.4125 0.00389735
0.995005 0.5 0.0749309 0.00394796
0.797732 0.5 -0.6 0.00384964
0.797732 0.5 0.6 0.0038497
1.00005 0.5 3.26706e-18 0.00395095
0.350249 0.5 0.9375 0.00377074
0.350249 0.5 -0.9375 0.0037707
1.00005 0.5 -0.0749309 0.00395051
0.96969 0.5 -0.2625 0.00393252
0.96969 0.5 0.2625 0.00393256
0.835107 0.5 -0.5625 0.00386276
0.835107 0.5 0.5625 0.00386282
1.00005 0.5 -0.149862 0.00394927
0.939201 0.5 -0.375 0.00391359
0.939201 0.5 0.375 0.00391364
1.00029 0.5 0.148988 0.003949
0.0757758 0.5 -1.0125 0.00375376
0.0757758 0.5 1.0125 0.00375376
0.288069 0.5 -0.975 0.00376629
0.288069 0.5 0.975 0.00376632
0.872064 0.5 -0.525 0.00387799
0.872064 0.5 0.525 0.00387805
1.00005 0.5 0.224793 0.00394735
1.00005 0.5 -0.224793 0.00394731
0.96969 0.5 0.3375 0.00392969
0.96969 0.5 -0.3375 0.00392965
1.02709 0.5 0.0368226 0.0039661
1.02709 0.5 -0.0368226 0.0039661
0.905821 0.5 0.4875 0.00389334
0.905821 0.5 -0.4875 0.00389329
1.02709 0.5 -0.110468 0.00396521
1.02709 0.5 0.110468 0.00396661
0.67013 0.5 -0.7875 0.00381289
0.67013 0.5 0.7875 0.00381294
0.624316 0.5 -0.825 0.0038042
0.624316 0.5 0.825 0.00380425
0.219992 0.5 -1.0125 0.00376166
0.219992 0.5 1.0125 0.00376168
0.574156 0.5 -0.8625 0.00379553
0.574156 0.5 0.8625 0.00379558
0.715434 0.5 -0.75 0.00382346
0.715434 0.5 0.75 0.00382352
0.756814 0.5 -0.7125 0.00383413
0.756814 0.5 0.7125 0.00383419
0.523432 0.5 0.9 0.00378865
0.523432 0.5 -0.9 0.00378861
0.939201 0.5 0.45 0.00390966
0.939201 0.5 -0.45 0.0039096
1.04168 0.5 0 0.0039739
1.02709 0.5 -0.184113 0.00396356
1.02709 0.5 0.184113 0.00396358
0 0.5 1.04382 0.00375
0 0.5 -1.04382 0.00375
0.0124871 0.5 -1.04382 0.00375062
0.0124871 0.5 1.04382 0.00375062
1.00005 0.5 -0.299723 0.00394467
1.00005 0.5 0.299723 0.00394472
1.04168 0.5 -0.0729162 0.00397344
1.04168 0.5 0.0729162 0.00397345
0.797732 0.5 -0.675 0.00384663
0.797732 0.5 0.675 0.00384669
0.467897 0.5 -0.9375 0.00378164
0.467897 0.5 0.9375 0.00378168
0 0.5 -1.05 0.00375
0 0.5 1.05 0.00375
0.835107 0.5 0.6375 0.00385934
0.835107 0.5 -0.6375 0.00385928
1.04168 0.5 -0.145832 0.00397215
1.04168 0.5 0.145832 0.00397217
0.96969 0.5 -0.4125 0.00392589
0.96969 0.5 0.4125 0.00392594
0 0.5 -1.05618 0.00375
0 0.5 1.05618 0.00375
0.0124871 0.5 -1.05618 0.00375062
0.0124871 0.5 1.05618 0.00375062
1.05694 0.5 -0.0360765 0.00398177
1.05694 0.5 0.0360765 0.00398178
0.411736 0.5 0.975 0.00377623
0.411736 0.5 -0.975 0.00377619
0.872064 0.5 -0.6 0.00387401
0.872064 0.5 0.6 0.00387407
1.02709 0.5 -0.257758 0.00396118
1.02709 0.5 0.257758 0.00396121
0.151149 0.5 -1.05 0.00375784
0.151149 0.5 1.05 0.00375785
1.05694 0.5 -0.108229 0.00398085
1.05694 0.5 0.108229 0.00398245
1.04168 0.5 -0.218749 0.0039701
1.04168 0.5 0.218749 0.00397013
0.905821 0.5 -0.5625 0.00388891
0.905821 0.5 0.5625 0.00388897
1.00005 0.5 -0.374654 0.00394126
1.00005 0.5 0.374654 0.00394132
0.350249 0.5 -1.0125 0.00377063
0.350249 0.5 1.0125 0.00377067
1.05694 0.5 -0.180382 0.00397914
1.05694 0.5 0.180382 0.00397918
1.07319 0.5 0.0709442 0.00399059
0.939201 0.5 0.525 0.00390476
0.939201 0.5 -0.525 0.00390471
1.02709 0.5 -0.331404 0.0039581
1.02709 0.5 0.331404 0.00395814
1.08112 0.5 -3.98986e-18 0.00399562
1.04168 0.5 -0.291665 0.00396733
1.04168 0.5 0.291665 0.00396737
1.08112 0.5 -0.0709442 0.00399514
0.96969 0.5 -0.4875 0.00392097
0.96969 0.5 0.4875 0.00392103
1.05694 0.5 -0.252535 0.00397668
1.05694 0.5 0.252535 0.00397673
0.288069 0.5 -1.05 0.00376624
0.288069 0.5 1.05 0.00376626
0.0757758 0.5 -1.0875 0.00375376
0.0757758 0.5 1.0875 0.00375376
1.08112 0.5 -0.141888 0.00399379
1.08145 0.5 0.140165 0.00399329
0.715434 0.5 -0.825 0.00382126
0.715434 0.5 0.825 0.00382132
0.756814 0.5 -0.7875 0.00383147
0.756814 0.5 0.7875 0.00383153
0.67013 0.5 -0.8625 0.00381117
0.67013 0.5 0.8625 0.00381123
0.797732 0.5 0.75 0.00384347
0.797732 0.5 -0.75 0.00384341
0.624316 0.5 -0.9 0.00380284
0.624316 0.5 0.9 0.00380289
1.00005 0.5 -0.449585 0.00393681
1.00005 0.5 0.449585 0.00393688
0.835107 0.5 -0.7125 0.00385555
0.835107 0.5 0.7125 0.00385561
0.574156 0.5 -0.9375 0.00379455
0.574156 0.5 0.9375 0.0037946
1.10076 0.5 0.034981 0.00400704
1.10076 0.5 -0.034981 0.00400704
1.08112 0.5 -0.212833 0.00399164
1.08112 0.5 0.212833 0.00399168
0.872064 0.5 -0.675 0.00386968
0.872064 0.5 0.675 0.00386974
1.04168 0.5 -0.364581 0.00396379
1.04168 0.5 0.364581 0.00396384
1.02709 0.5 0.405049 0.0039542
1.02709 0.5 -0.405049 0.00395415
1.05694 0.5 -0.324688 0.00397351
1.05694 0.5 0.324688 0.00397358
1.10076 0.5 -0.104943 0.00400608
1.10076 0.5 0.104943 0.00400609
0.523432 0.5 -0.975 0.00378786
0.523432 0.5 0.975 0.00378791
0.905821 0.5 -0.6375 0.0038841
0.905821 0.5 0.6375 0.00388416
0.219992 0.5 -1.0875 0.00376165
0.219992 0.5 1.0875 0.00376167
1.11376 0.5 0 0.00401485
0.939201 0.5 -0.6 0.00389923
0.939201 0.5 0.6 0.00389929
1.10076 0.5 -0.174905 0.00400428
1.10076 0.5 0.174905 0.0040043
0.467897 0.5 -1.0125 0.00378115
0.467897 0.5 1.0125 0.00378119
1.11376 0.5 -0.0693118 0.00401436
1.11376 0.5 0.0693118 0.00401437
1.08112 0.5 -0.283777 0.00398875
1.08112 0.5 0.283777 0.0039888
0 0.5 1.11882 0.00375
0 0.5 -1.11882 0.00375
0.0124871 0.5 -1.11882 0.00375062
0.0124871 0.5 1.11882 0.00375062
0.96969 0.5 -0.5625 0.00391473
0.96969 0.5 0.5625 0.00391479
1.11376 0.5 -0.138624 0.00401296
1.11376 0.5 0.138624 0.00401283
0 0.5 -1.125 0.00375
0 0.5 1.125 0.00375
1.10076 0.5 0.244867 0.00400173
1.10076 0.5 -0.244867 0.00400169
0.411736 0.5 -1.05 0.00377584
0.411736 0.5 1.05 0.00377588
1.05694 0.5 -0.396841 0.0039695
1.05694 0.5 0.396841 0.00396959
1.00005 0.5 -0.524516 0.00393103
1.00005 0.5 0.524516 0.00393111
1.04168 0.5 -0.437497 0.00395925
1.04168 0.5 0.437497 0.00395931
0 0.5 -1.13118 0.00375
0 0.5 1.13118 0.00375
0.0124871 0.5 -1.13118 0.00375062
0.0124871 0.5 1.13118 0.00375062
1.11376 0.5 -0.207935 0.00401073
1.11376 0.5 0.207935 0.00401076
1.02709 0.5 -0.478694 0.00394902
1.02709 0.5 0.478694 0.00394907
0.151149 0.5 -1.125 0.0037578
0.151149 0.5 1.125 0.00375781
1.08112 0.5 0.354721 0.00398516
1.08112 0.5 -0.354721 0.00398509
1.13882 0.5 0.0340295 0.00403028
1.13882 0.5 -0.0340295 0.00403027
0.350249 0.5 -1.0875 0.00377043
0.350249 0.5 1.0875 0.00377046
1.13882 0.5 -0.102088 0.00402927
1.13882 0.5 0.102088 0.00403012
1.10076 0.5 0.314829 0.00399842
1.10076 0.5 -0.314829 0.00399838
0.756814 0.5 -0.8625 0.00382865
0.756814 0.5 0.8625 0.00382871
0.797732 0.5 -0.825 0.00384002
0.797732 0.5 0.825 0.00384008
1.11376 0.5 -0.277247 0.00400773
1.11376 0.5 0.277247 0.00400777
0.835107 0.5 0.7875 0.00385166
0.835107 0.5 -0.7875 0.0038516
0.715434 0.5 -0.9 0.00381891
0.715434 0.5 0.9 0.00381897
0.872064 0.5 -0.75 0.00386507
0.872064 0.5 0.75 0.00386513
1.13882 0.5 0.170147 0.00402741
1.13882 0.5 -0.170147 0.00402738
0.67013 0.5 -0.9375 0.00380931
0.67013 0.5 0.9375 0.00380936
0.905821 0.5 -0.7125 0.00387884
0.905821 0.5 0.7125 0.0038789
1.05694 0.5 -0.468994 0.00396436
1.05694 0.5 0.468994 0.00396447
0.939201 0.5 -0.675 0.00389349
0.939201 0.5 0.675 0.00389355
0.624316 0.5 -0.975 0.00380133
0.624316 0.5 0.975 0.00380138
1.04168 0.5 -0.510414 0.00395336
1.04168 0.5 0.510414 0.00395342
0.96969 0.5 -0.6375 0.00390831
0.96969 0.5 0.6375 0.00390837
0.288069 0.5 -1.125 0.00376607
0.288069 0.5 1.125 0.00376609
1.16179 0.5 0 0.00404549
1.08112 0.5 -0.425665 0.00398048
1.08112 0.5 0.425665 0.00398056
1.13882 0.5 0.238206 0.00402471
1.13882 0.5 -0.238206 0.00402467
1.16179 0.5 -0.0669104 0.00404496
1.16179 0.5 0.0669104 0.00404735
0.574156 0.5 1.0125 0.00379345
0.574156 0.5 -1.0125 0.0037934
0.0757758 0.5 1.1625 0.00375373
0.0757758 0.5 -1.1625 0.00375372
1.00005 0.5 -0.599447 0.00392437
1.00005 0.5 0.599447 0.00392446
1.10076 0.5 -0.384791 0.00399425
1.10076 0.5 0.384791 0.00399431
1.02709 0.5 -0.552339 0.00394243
1.02709 0.5 0.552339 0.00394249
1.11376 0.5 0.346559 0.004004
1.11376 0.5 -0.346559 0.00400395
1.16179 0.5 -0.133821 0.00404346
1.16179 0.5 0.133821 0.00404383
0.523432 0.5 -1.05 0.00378697
0.523432 0.5 1.05 0.00378701
1.17463 0.5 -0.0331343 0.00405332
1.17463 0.5 0.0331343 0.00405333
1.17463 0.5 -0.099403 0.00405227
1.17463 0.5 0.099403 0.00405228
1.16179 0.5 -0.200731 0.00404108
1.16179 0.5 0.200731 0.00404113
1.13882 0.5 -0.306265 0.00402118
1.13882 0.5 0.306265 0.00402124
0.219992 0.5 -1.1625 0.00376153
0.219992 0.5 1.1625 0.00376155
0.467897 0.5 -1.0875 0.00378052
0.467897 0.5 1.0875 0.00378056
1.17463 0.5 -0.165672 0.00405028
1.17463 0.5 0.165672 0.00405031
1.05694 0.5 0.541147 0.0039578
1.05694 0.5 -0.541147 0.00395769
1.18772 0.5 0 0.00406229
1.11376 0.5 -0.415871 0.00399927
1.11376 0.5 0.415871 0.00399932
1.18772 0.5 -0.065614 0.00406175
1.18772 0.5 0.065614 0.00406169
1.08112 0.5 -0.49661 0.00397456
1.08112 0.5 0.49661 0.00397464
1.10076 0.5 -0.454752 0.00398909
1.10076 0.5 0.454752 0.00398915
1.18534 0.5 0.118202 0.00406022
1.16179 0.5 -0.267642 0.00403786
1.16179 0.5 0.267642 0.00403794
0 0.5 -1.19382 0.00375
0 0.5 1.19382 0.00375
1.04168 0.5 -0.58333 0.00394636
1.04168 0.5 0.58333 0.00394642
0.0124871 0.5 -1.19382 0.00375062
0.0124871 0.5 1.19382 0.00375062
1.18772 0.5 -0.131228 0.0040602
1.17463 0.5 -0.23194 0.00404742
1.17463 0.5 0.23194 0.00404746
0.411736 0.5 -1.125 0.00377536
0.411736 0.5 1.125 0.00377539
1.13882 0.5 -0.374324 0.00401689
1.13882 0.5 0.374324 0.00401696
0 0.5 -1.2 0.00375
0 0.5 1.2 0.00375
0.905821 0.5 -0.7875 0.00387339
0.905821 0.5 0.7875 0.00387345
0.872064 0.5 -0.825 0.00386027
0.872064 0.5 0.825 0.00386033
0.835107 0.5 0.8625 0.00384756
0.835107 0.5 -0.8625 0.0038475
0.939201 0.5 -0.75 0.00388745
0.939201 0.5 0.75 0.00388751
0.797732 0.5 -0.9 0.00383648
0.797732 0.5 0.9 0.00383653
1.02709 0.5 -0.625985 0.00393525
1.02709 0.5 0.625985 0.00393531
0.96969 0.5 -0.7125 0.00390188
0.96969 0.5 0.7125 0.00390194
1.18772 0.5 -0.196842 0.00405772
1.18772 0.5 0.196842 0.00405775
0.756814 0.5 -0.9375 0.00382569
0.756814 0.5 0.9375 0.00382575
0 0.5 -1.20618 0.00375
0 0.5 1.20618 0.00375
1.00005 0.5 -0.674378 0.00391743
1.00005 0.5 0.674378 0.00391751
0.0124871 0.5 -1.20618 0.0037506
0.0124871 0.5 1.20618 0.00375061
1.16179 0.5 -0.334552 0.00403386
1.16179 0.5 0.334552 0.00403395
0.715434 0.5 -0.975 0.00381641
0.715434 0.5 0.975 0.00381646
0.151149 0.5 -1.2 0.00375768
0.151149 0.5 1.2 0.00375769
1.20942 0.5 -0.0322645 0.00407741
1.20942 0.5 0.0322645 0.00407769
1.17463 0.5 -0.298209 0.00404377
1.17463 0.5 0.298209 0.00404381
1.20942 0.5 -0.0967935 0.0040763
1.20942 0.5 0.0967935 0.00407632
0.350249 0.5 -1.1625 0.00377011
0.350249 0.5 1.1625 0.00377014
0.67013 0.5 1.0125 0.00380735
0.67013 0.5 -1.0125 0.0038073
1.11376 0.5 -0.485183 0.00399332
1.11376 0.5 0.485183 0.00399338
1.18772 0.5 -0.262456 0.00405439
1.18772 0.5 0.262456 0.00405443
1.10076 0.5 0.524714 0.00398245
1.10076 0.5 -0.524714 0.00398239
1.20942 0.5 -0.161322 0.00407421
1.20942 0.5 0.161322 0.00407423
1.08112 0.5 0.567554 0.00396753
1.08112 0.5 -0.567554 0.00396744
0.624316 0.5 -1.05 0.00379968
0.624316 0.5 1.05 0.00379972
1.13882 0.5 -0.442383 0.00401162
1.13882 0.5 0.442383 0.0040117
1.05694 0.5 0.6133 0.00395042
1.05694 0.5 -0.6133 0.00395029
1.16179 0.5 -0.401463 0.00402898
1.16179 0.5 0.401463 0.00402909
0.574156 0.5 1.0875 0.00379217
0.574156 0.5 -1.0875 0.00379212
1.17463 0.5 -0.364478 0.0040393
1.17463 0.5 0.364478 0.00403935
1.20942 0.5 0.225851 0.00407122
1.20942 0.5 -0.225851 0.00407119
1.23036 0.5 1.15648e-18 0.00409325
1.2294 0.5 0.0634819 0.00409212
1.04168 0.5 -0.656246 0.00393884
1.04168 0.5 0.656246 0.00393891
1.23036 0.5 -0.0634819 0.00409266
1.18772 0.5 0.32807 0.00405029
1.18772 0.5 -0.32807 0.00405025
0.288069 0.5 1.2 0.00376581
0.288069 0.5 -1.2 0.00376579
1.23036 0.5 -0.126964 0.00409099
1.23036 0.5 0.126964 0.00409105
0.0757758 0.5 -1.2375 0.00375365
0.0757758 0.5 1.2375 0.00375366
0.523432 0.5 -1.125 0.00378595
0.523432 0.5 1.125 0.00378599
1.02709 0.5 0.69963 0.00392768
1.02709 0.5 -0.69963 0.00392761
1.24275 0.5 -0.0314313 0.00410211
1.24275 0.5 0.0314313 0.00410211
1.20942 0.5 -0.29038 0.00406732
1.20942 0.5 0.29038 0.00406736
1.11376 0.5 -0.554494 0.00398614
1.11376 0.5 0.554494 0.0039862
1.23036 0.5 -0.190446 0.00408832
1.23036 0.5 0.190446 0.00408842
1.24275 0.5 -0.0942939 0.00410094
1.24275 0.5 0.0942939 0.00410096
1.13882 0.5 -0.510442 0.00400492
1.13882 0.5 0.510442 0.004005
0.96969 0.5 0.7875 0.00389498
0.96969 0.5 -0.7875 0.00389492
1.00005 0.5 0.749309 0.00391014
1.00005 0.5 -0.749309 0.00391005
0.939201 0.5 -0.825 0.00388116
0.939201 0.5 0.825 0.00388121
0.905821 0.5 -0.8625 0.00386777
0.905821 0.5 0.8625 0.00386783
1.17463 0.5 0.430746 0.00403398
1.17463 0.5 -0.430746 0.00403392
1.10076 0.5 0.594676 0.00397485
1.10076 0.5 -0.594676 0.00397478
1.18772 0.5 -0.393684 0.00404525
1.18772 0.5 0.393684 0.0040453
1.24275 0.5 -0.157157 0.00409872
1.24275 0.5 0.157157 0.00409875
1.16179 0.5 -0.468373 0.00402293
1.16179 0.5 0.468373 0.00402305
0.467897 0.5 -1.1625 0.00377978
0.467897 0.5 1.1625 0.00377982
0.872064 0.5 -0.9 0.00385533
0.872064 0.5 0.9 0.00385538
1.25401 0.5 0 0.00411037
0.835107 0.5 -0.9375 0.00384327
0.835107 0.5 0.9375 0.00384332
1.25401 0.5 0.0622994 0.00410989
1.25401 0.5 -0.0622994 0.00410977
1.08112 0.5 0.638498 0.00395977
1.08112 0.5 -0.638498 0.00395967
1.23036 0.5 -0.253928 0.00408473
1.23036 0.5 0.253928 0.00408485
0.219992 0.5 -1.2375 0.00376131
0.219992 0.5 1.2375 0.00376133
1.2531 0.5 0.121964 0.00410807
1.05694 0.5 -0.685453 0.00394243
1.05694 0.5 0.685453 0.00394256
0.797732 0.5 -0.975 0.0038328
0.797732 0.5 0.975 0.00383285
1.25401 0.5 -0.124599 0.00410803
1.20942 0.5 -0.354909 0.00406263
1.20942 0.5 0.354909 0.00406268
1.24275 0.5 -0.220019 0.00409552
1.24275 0.5 0.220019 0.00409555
0.756814 0.5 -1.0125 0.00382257
0.756814 0.5 1.0125 0.00382262
1.25401 0.5 -0.186898 0.00410526
1.25401 0.5 0.186898 0.00410532
0.411736 0.5 -1.2 0.00377477
0.411736 0.5 1.2 0.0037748
0 0.5 -1.26882 0.00375
0 0.5 1.26882 0.00375
0.0124871 0.5 -1.26882 0.0037506
0.0124871 0.5 1.26882 0.00375061
0.715434 0.5 -1.05 0.00381378
0.715434 0.5 1.05 0.00381383
1.23036 0.5 -0.317409 0.00408028
1.23036 0.5 0.317409 0.00408043
1.04168 0.5 -0.729162 0.00393079
1.04168 0.5 0.729162 0.00393085
1.18772 0.5 -0.459298 0.00403912
1.18772 0.5 0.459298 0.00403918
1.24275 0.5 0.282882 0.00409146
1.24275 0.5 -0.282882 0.00409142
0 0.5 -1.275 0.00375
0 0.5 1.275 0.00375
1.27472 0.5 -0.0306319 0.00412763
1.27472 0.5 0.0306319 0.00412763
1.17463 0.5 -0.497015 0.00402716
1.17463 0.5 0.497015 0.00402722
1.11376 0.5 0.623806 0.00397826
1.11376 0.5 -0.623806 0.0039782
1.13882 0.5 -0.578501 0.00399718
1.13882 0.5 0.578501 0.00399726
0.67013 0.5 -1.0875 0.00380517
0.67013 0.5 1.0875 0.00380522
1.27472 0.5 0.0918957 0.00412323
1.27472 0.5 -0.0918957 0.00412639
1.25401 0.5 -0.249198 0.00410153
1.25401 0.5 0.249198 0.0041016
1.16179 0.5 -0.535283 0.00401562
1.16179 0.5 0.535283 0.00401575
1.20942 0.5 0.419438 0.00405711
1.20942 0.5 -0.419438 0.00405705
0 0.5 -1.28118 0.00375
0 0.5 1.28118 0.00375
0.0124871 0.5 -1.28118 0.00375059
0.0124871 0.5 1.28118 0.00375059
1.27472 0.5 -0.15316 0.00412404
1.27472 0.5 0.15316 0.00412407
0.151149 0.5 -1.275 0.00375751
0.151149 0.5 1.275 0.00375752