# nutMean  POINT_DATA 63889
# x  y  z  nutMean
0 0.5 3.39582e-17 0.0152637
0 0.5 -0.00617965 0.0152669
0 0.5 0.00617965 0.0152666
0.0124871 0.5 -0.00617965 0.0163179
0.0124871 0.5 0.00617965 0.0163172
0 0.5 -0.0688203 0.0152205
0 0.5 0.0688203 0.0152157
0.0124871 0.5 -0.0688203 0.0162714
0.0124871 0.5 0.0688203 0.0162663
0 0.5 -0.075 0.015208
0 0.5 0.075 0.0152028
0 0.5 -0.0811797 0.0152018
0 0.5 0.0811797 0.015196
0.0124871 0.5 -0.0811797 0.0162691
0.0124871 0.5 0.0811797 0.0162626
0.0757758 0.5 -0.0375 0.0216104
0.0757758 0.5 0.0375 0.021606
0.0757758 0.5 -0.1125 0.0215942
0.0757758 0.5 0.1125 0.0215814
0 0.5 -0.14382 0.0150031
0 0.5 0.14382 0.0149928
0.0124871 0.5 -0.14382 0.0160705
0.0124871 0.5 0.14382 0.0160594
0 0.5 -0.15 0.01497
0 0.5 0.15 0.0149593
0.151149 0.5 -0.00137326 0.0190889
0 0.5 -0.15618 0.0149427
0 0.5 0.15618 0.0149317
0.0124871 0.5 -0.15618 0.0159818
0.0124871 0.5 0.15618 0.0159697
0.151149 0.5 -0.075 0.0190424
0.151149 0.5 0.075 0.0190359
0.0757758 0.5 -0.1875 0.0210636
0.0757758 0.5 0.1875 0.0210444
0.151149 0.5 -0.15 0.0188253
0.151149 0.5 0.15 0.0188125
0 0.5 -0.21882 0.0145931
0 0.5 0.21882 0.0145789
0.0124871 0.5 -0.21882 0.0156321
0.0124871 0.5 0.21882 0.0156169
0.219992 0.5 -0.0375 0.0167056
0.219992 0.5 0.0375 0.0167038
0 0.5 -0.225 0.0145509
0 0.5 0.225 0.0145365
0 0.5 -0.23118 0.0145141
0 0.5 0.23118 0.0144994
0.0124871 0.5 -0.23118 0.0155157
0.0124871 0.5 0.23118 0.0154997
0.219992 0.5 -0.1125 0.0166027
0.219992 0.5 0.1125 0.0165952
0.151149 0.5 -0.225 0.0183962
0.151149 0.5 0.225 0.0183788
0.0757758 0.5 -0.2625 0.0203659
0.0757758 0.5 0.2625 0.0203422
0.288069 0.5 -0.00137326 0.0135241
0.219992 0.5 -0.1875 0.0163761
0.219992 0.5 0.1875 0.0163639
0 0.5 -0.29382 0.0140953
0 0.5 0.29382 0.0140786
0.0124871 0.5 -0.29382 0.0150968
0.0124871 0.5 0.29382 0.0150789
0.288069 0.5 -0.075 0.0134831
0.288069 0.5 0.075 0.0134804
0 0.5 -0.3 0.014049
0 0.5 0.3 0.0140323
0 0.5 -0.30618 0.0140075
0 0.5 0.30618 0.0139907
0.0124871 0.5 -0.30618 0.0149675
0.0124871 0.5 0.30618 0.0149493
0.288069 0.5 -0.15 0.0134121
0.288069 0.5 0.15 0.0134066
0.151149 0.5 -0.3 0.0178774
0.151149 0.5 0.3 0.017857
0.219992 0.5 -0.2625 0.0160898
0.219992 0.5 0.2625 0.0160746
0.0757758 0.5 -0.3375 0.0195907
0.0757758 0.5 0.3375 0.0195649
0.350249 0.5 -0.0375 0.0104982
0.350249 0.5 0.0375 0.0104981
0.288069 0.5 -0.225 0.0133021
0.288069 0.5 0.225 0.0132941
0.350249 0.5 -0.1125 0.0105251
0.350249 0.5 0.1125 0.0105235
0 0.5 0.36882 0.0135475
0 0.5 -0.36882 0.0135652
0.0124871 0.5 -0.36882 0.0145252
0.0124871 0.5 0.36882 0.0145061
0 0.5 -0.375 0.0135193
0 0.5 0.375 0.0135016
0 0.5 -0.38118 0.0134771
0 0.5 0.38118 0.0134593
0.0124871 0.5 -0.38118 0.0143954
0.0124871 0.5 0.38118 0.0143762
0.350249 0.5 -0.1875 0.0105319
0.350249 0.5 0.1875 0.0105305
0.219992 0.5 -0.3375 0.0157444
0.219992 0.5 0.3375 0.015727
0.151149 0.5 -0.375 0.0173174
0.151149 0.5 0.375 0.0172954
0.411736 0.5 -0.00137326 0.0089521
0.288069 0.5 -0.3 0.0131743
0.288069 0.5 0.3 0.0131642
0.411736 0.5 -0.075 0.00895626
0.411736 0.5 0.075 0.00895578
0.0757758 0.5 -0.4125 0.0188116
0.0757758 0.5 0.4125 0.0187851
0.350249 0.5 -0.2625 0.0105797
0.350249 0.5 0.2625 0.0105758
0.411736 0.5 -0.15 0.00898843
0.411736 0.5 0.15 0.00898744
0 0.5 -0.44382 0.013047
0 0.5 0.44382 0.0130292
0.0124871 0.5 -0.44382 0.0139653
0.0124871 0.5 0.44382 0.013946
0 0.5 -0.45 0.0130048
0 0.5 0.45 0.0129869
0 0.5 -0.45618 0.0129643
0 0.5 0.45618 0.0129465
0.0124871 0.5 -0.45618 0.0138434
0.0124871 0.5 0.45618 0.0138242
0.219992 0.5 -0.4125 0.0153747
0.219992 0.5 0.4125 0.0153559
0.411736 0.5 0.225 0.00903604
0.411736 0.5 -0.225 0.00903784
0.467897 0.5 0.0375 0.00747521
0.467897 0.5 -0.0375 0.00747523
0.288069 0.5 -0.375 0.01303
0.288069 0.5 0.375 0.0130185
0.151149 0.5 -0.45 0.0167624
0.151149 0.5 0.45 0.0167398
0.467897 0.5 -0.1125 0.00751012
0.467897 0.5 0.1125 0.00750978
0.350249 0.5 -0.3375 0.0106289
0.350249 0.5 0.3375 0.010624
0.0757758 0.5 0.4875 0.0180539
0.0757758 0.5 -0.4875 0.0180799
0.467897 0.5 -0.1875 0.00756838
0.467897 0.5 0.1875 0.00756763
0.411736 0.5 -0.3 0.00911076
0.411736 0.5 0.3 0.0091079
0 0.5 -0.51882 0.01257
0 0.5 0.51882 0.0125526
0.0124871 0.5 -0.51882 0.013449
0.0124871 0.5 0.51882 0.0134303
0.523432 0.5 -0.00137326 0.00659805
0 0.5 -0.525 0.0125333
0 0.5 0.525 0.012516
0.523432 0.5 -0.075 0.00660846
0.523432 0.5 0.075 0.00660836
0 0.5 -0.53118 0.012496
0 0.5 0.53118 0.0124787
0.0124871 0.5 -0.53118 0.0133398
0.0124871 0.5 0.53118 0.0133212
0.288069 0.5 -0.45 0.0128872
0.288069 0.5 0.45 0.0128748
0.219992 0.5 -0.4875 0.0150077
0.219992 0.5 0.4875 0.0149883
0.467897 0.5 -0.2625 0.00765055
0.467897 0.5 0.2625 0.00764927
0.350249 0.5 -0.4125 0.0106905
0.350249 0.5 0.4125 0.0106848
0.523432 0.5 -0.15 0.00665474
0.523432 0.5 0.15 0.0066544
0.151149 0.5 -0.525 0.0162455
0.151149 0.5 0.525 0.0162232
0.411736 0.5 -0.375 0.00920134
0.411736 0.5 0.375 0.00919788
0.0757758 0.5 -0.5625 0.0174256
0.0757758 0.5 0.5625 0.0174008
0.523432 0.5 -0.225 0.00672681
0.523432 0.5 0.225 0.00672617
0.574156 0.5 0.0375 0.00575652
0.574156 0.5 -0.0375 0.0057565
0.467897 0.5 -0.3375 0.00776019
0.467897 0.5 0.3375 0.00775863
0.574156 0.5 -0.1125 0.00578901
0.574156 0.5 0.1125 0.00578897
0 0.5 -0.59382 0.0121555
0 0.5 0.59382 0.012139
0.0124871 0.5 -0.59382 0.0129993
0.0124871 0.5 0.59382 0.0129815
0.288069 0.5 -0.525 0.0127594
0.288069 0.5 0.525 0.0127464
0 0.5 -0.6 0.0121262
0 0.5 0.6 0.0121098
0.350249 0.5 0.4875 0.0107594
0.350249 0.5 -0.4875 0.0107659
0.523432 0.5 -0.3 0.00682393
0.523432 0.5 0.3 0.00682303
0.219992 0.5 -0.5625 0.0146687
0.219992 0.5 0.5625 0.0146492
0.574156 0.5 -0.1875 0.00584852
0.574156 0.5 0.1875 0.00584827
0 0.5 -0.60618 0.0120954
0 0.5 0.60618 0.0120791
0.0124871 0.5 -0.60618 0.0129116
0.0124871 0.5 0.60618 0.0128941
0.411736 0.5 -0.45 0.00931204
0.411736 0.5 0.45 0.00930801
0.151149 0.5 -0.6 0.0157927
0.151149 0.5 0.6 0.0157712
0.62168 0.5 4.33681e-17 0.00522781
0.467897 0.5 -0.4125 0.00789787
0.467897 0.5 0.4125 0.007896
0.624316 0.5 0.0729401 0.00520922
0.624316 0.5 -0.075 0.0052092
0.574156 0.5 -0.2625 0.00593665
0.574156 0.5 0.2625 0.00593634
0.0757758 0.5 -0.6375 0.0168879
0.0757758 0.5 0.6375 0.0168648
0.624316 0.5 -0.15 0.00525297
0.624316 0.5 0.15 0.0052529
0.523432 0.5 -0.375 0.00694802
0.523432 0.5 0.375 0.00694688
0.350249 0.5 -0.5625 0.0108568
0.350249 0.5 0.5625 0.0108496
0.624316 0.5 -0.225 0.00532408
0.624316 0.5 0.225 0.00532393
0.288069 0.5 -0.6 0.0126561
0.288069 0.5 0.6 0.012643
0.574156 0.5 -0.3375 0.00604507
0.574156 0.5 0.3375 0.00604455
0.411736 0.5 0.525 0.00943835
0.411736 0.5 -0.525 0.00944292
0 0.5 0.66882 0.0118004
0 0.5 -0.66882 0.0118157
0.0124871 0.5 -0.66882 0.0126319
0.0124871 0.5 0.66882 0.0126154
0.67013 0.5 -0.0375 0.0046596
0.67013 0.5 0.0375 0.00465964
0.219992 0.5 -0.6375 0.0143689
0.219992 0.5 0.6375 0.01435
0 0.5 -0.675 0.011792
0 0.5 0.675 0.0117768
0.467897 0.5 -0.4875 0.00806098
0.467897 0.5 0.4875 0.00805874
0.67013 0.5 -0.1125 0.00468871
0.67013 0.5 0.1125 0.00468876
0 0.5 -0.68118 0.0117677
0 0.5 0.68118 0.0117525
0.0124871 0.5 -0.68118 0.0125622
0.0124871 0.5 0.68118 0.0125459
0.523432 0.5 -0.45 0.00710061
0.523432 0.5 0.45 0.00709924
0.151149 0.5 -0.675 0.0154169
0.151149 0.5 0.675 0.0153965
0.624316 0.5 -0.3 0.0054163
0.624316 0.5 0.3 0.00541601
0.67013 0.5 -0.1875 0.00474287
0.67013 0.5 0.1875 0.00474283
0.574156 0.5 0.4125 0.00618498
0.574156 0.5 -0.4125 0.00618563
0.708171 0.5 3.5345e-17 0.00433848
0.0757758 0.5 -0.7125 0.0164539
0.0757758 0.5 0.7125 0.0164325
0.715434 0.5 0.0736267 0.00429866
0.715434 0.5 -0.075 0.00429025
0.67013 0.5 -0.2625 0.00482579
0.67013 0.5 0.2625 0.00482578
0.350249 0.5 -0.6375 0.0109644
0.350249 0.5 0.6375 0.0109567
0.411736 0.5 0.6 0.00958952
0.411736 0.5 -0.6 0.00959453
0.624316 0.5 -0.375 0.00553504
0.624316 0.5 0.375 0.00553461
0.715434 0.5 -0.15 0.00432961
0.715434 0.5 0.15 0.00432964
0.467897 0.5 -0.5625 0.00824955
0.467897 0.5 0.5625 0.00824697
0.288069 0.5 -0.675 0.0125842
0.288069 0.5 0.675 0.0125712
0.523432 0.5 -0.525 0.00727994
0.523432 0.5 0.525 0.00727831
0 0.5 0.74382 0.0115356
0 0.5 -0.74382 0.0115498
0.0124871 0.5 -0.74382 0.0123444
0.0124871 0.5 0.74382 0.0123291
0.219992 0.5 0.7125 0.0141042
0.219992 0.5 -0.7125 0.0141224
0.715434 0.5 -0.225 0.004394
0.715434 0.5 0.225 0.00439401
0 0.5 -0.75 0.0115318
0 0.5 0.75 0.0115177
0.67013 0.5 -0.3375 0.00491581
0.67013 0.5 0.3375 0.00491549
0.574156 0.5 -0.4875 0.00635447
0.574156 0.5 0.4875 0.00635366
0 0.5 0.75618 0.0114993
0 0.5 -0.75618 0.0115133
0.0124871 0.5 -0.75618 0.0122917
0.0124871 0.5 0.75618 0.0122767
0.756814 0.5 0.0375 0.0039113
0.756814 0.5 -0.0375 0.00391127
0.151149 0.5 0.75 0.015104
0.151149 0.5 -0.75 0.015123
0.756814 0.5 -0.1125 0.0039369
0.756814 0.5 0.1125 0.00393695
0.624316 0.5 -0.45 0.0056861
0.624316 0.5 0.45 0.00568561
0.715434 0.5 -0.3 0.0044798
0.715434 0.5 0.3 0.00447973
0.756814 0.5 -0.1875 0.00398564
0.756814 0.5 0.1875 0.00398568
0.67013 0.5 -0.4125 0.00505236
0.67013 0.5 0.4125 0.00505212
0.411736 0.5 -0.675 0.00976703
0.411736 0.5 0.675 0.00976168
0.467897 0.5 -0.6375 0.00846284
0.467897 0.5 0.6375 0.00845997
0.0757758 0.5 -0.7875 0.0161337
0.0757758 0.5 0.7875 0.0161142
0.350249 0.5 -0.7125 0.0110901
0.350249 0.5 0.7125 0.011082
0.523432 0.5 0.6 0.00748379
0.523432 0.5 -0.6 0.00748563
0.797732 0.5 1.60462e-17 0.00364128
0.756814 0.5 -0.2625 0.00405778
0.756814 0.5 0.2625 0.00405781
0.797732 0.5 0.0736267 0.00365612
0.797732 0.5 -0.075 0.0036533
0.288069 0.5 0.75 0.012537
0.288069 0.5 -0.75 0.0125498
0.574156 0.5 -0.5625 0.00655089
0.574156 0.5 0.5625 0.00654992
0.715434 0.5 -0.375 0.00458837
0.715434 0.5 0.375 0.00458823
0.797732 0.5 -0.15 0.00368841
0.797732 0.5 0.15 0.00368846
0.624316 0.5 -0.525 0.00586302
0.624316 0.5 0.525 0.00586243
0.219992 0.5 -0.7875 0.0139364
0.219992 0.5 0.7875 0.0139192
0 0.5 -0.81882 0.0113578
0 0.5 0.81882 0.0113448
0.0124871 0.5 -0.81882 0.0121361
0.0124871 0.5 0.81882 0.0121221
0 0.5 -0.825 0.0113462
0 0.5 0.825 0.0113334
0.756814 0.5 -0.3375 0.00415592
0.756814 0.5 0.3375 0.00415595
0.67013 0.5 0.4875 0.00521077
0.67013 0.5 -0.4875 0.00521104
0.797732 0.5 0.225 0.00374542
0.797732 0.5 -0.225 0.00374538
0 0.5 -0.83118 0.0113332
0 0.5 0.83118 0.0113204
0.0124871 0.5 -0.83118 0.0121014
0.0124871 0.5 0.83118 0.0120877
0.835107 0.5 -0.0375 0.00338252
0.835107 0.5 0.0375 0.00338256
0.151149 0.5 -0.825 0.0149142
0.151149 0.5 0.825 0.0148965
0.835107 0.5 0.1125 0.00340518
0.835107 0.5 -0.1125 0.00340513
0.715434 0.5 -0.45 0.00472496
0.715434 0.5 0.45 0.00472481
0.797732 0.5 -0.3 0.00382642
0.797732 0.5 0.3 0.00382647
0.467897 0.5 0.7125 0.00869658
0.467897 0.5 -0.7125 0.00869976
0.523432 0.5 -0.675 0.00771713
0.523432 0.5 0.675 0.00771507
0.411736 0.5 0.75 0.00995525
0.411736 0.5 -0.75 0.00996096
0.835107 0.5 -0.1875 0.00344876
0.835107 0.5 0.1875 0.00344881
0.574156 0.5 0.6375 0.00677384
0.574156 0.5 -0.6375 0.0067749
0.350249 0.5 -0.7875 0.0112364
0.350249 0.5 0.7875 0.0112281
0.756814 0.5 -0.4125 0.00426592
0.756814 0.5 0.4125 0.00426588
0.0757758 0.5 -0.8625 0.01592
0.0757758 0.5 0.8625 0.0159023
0.624316 0.5 -0.6 0.00606698
0.624316 0.5 0.6 0.00606629
0.872064 0.5 4.81386e-17 0.00317046
0.870122 0.5 0.075 0.00319481
0.288069 0.5 -0.825 0.0125556
0.288069 0.5 0.825 0.0125432
0.67013 0.5 -0.5625 0.00539538
0.67013 0.5 0.5625 0.00539501
0.872064 0.5 -0.075 0.00318104
0.835107 0.5 -0.2625 0.00351239
0.835107 0.5 0.2625 0.00351245
0.797732 0.5 -0.375 0.00392385
0.797732 0.5 0.375 0.00392385
0.872064 0.5 0.14794 0.00321219
0.872064 0.5 -0.15 0.00321215
0.715434 0.5 0.525 0.00488813
0.715434 0.5 -0.525 0.00488833
0.219992 0.5 -0.8625 0.0138127
0.219992 0.5 0.8625 0.0137966
0 0.5 -0.89382 0.0112384
0 0.5 0.89382 0.0112267
0.0124871 0.5 -0.89382 0.0120065
0.0124871 0.5 0.89382 0.0119939
0 0.5 -0.9 0.0112332
0 0.5 0.9 0.0112216
0.756814 0.5 -0.4875 0.0044081
0.756814 0.5 0.4875 0.00440803
0.872064 0.5 -0.225 0.0032627
0.872064 0.5 0.225 0.00326274
0.835107 0.5 0.3375 0.00360307
0.835107 0.5 -0.3375 0.003603
0 0.5 -0.90618 0.011227
0 0.5 0.90618 0.0112156
0.0124871 0.5 -0.90618 0.0119921
0.0124871 0.5 0.90618 0.01198
0.905821 0.5 0.0375 0.00296634
0.905821 0.5 -0.0375 0.00296631
0.151149 0.5 -0.9 0.0147909
0.151149 0.5 0.9 0.0147748
0.905821 0.5 -0.1125 0.00298616
0.905821 0.5 0.1125 0.00298619
0.523432 0.5 -0.75 0.00797367
0.523432 0.5 0.75 0.00797135
0.574156 0.5 -0.7125 0.007026
0.574156 0.5 0.7125 0.00702478
0.797732 0.5 -0.45 0.00404256
0.797732 0.5 0.45 0.00404251
0.467897 0.5 0.7875 0.00895614
0.467897 0.5 -0.7875 0.00895968
0.624316 0.5 -0.675 0.00629843
0.624316 0.5 0.675 0.00629764
0.411736 0.5 -0.825 0.0101761
0.411736 0.5 0.825 0.0101701
0.872064 0.5 -0.3 0.00333489
0.872064 0.5 0.3 0.00333498
0.67013 0.5 0.6375 0.00560668
0.67013 0.5 -0.6375 0.00560708
0.905821 0.5 -0.1875 0.00302464
0.905821 0.5 0.1875 0.00302469
0.350249 0.5 -0.8625 0.0114029
0.350249 0.5 0.8625 0.0113944
0.835107 0.5 -0.4125 0.00369453
0.835107 0.5 0.4125 0.00369444
0.715434 0.5 -0.6 0.00507797
0.715434 0.5 0.6 0.00507771
0.939201 0.5 3.31766e-17 0.00286107
0.0757758 0.5 -0.9375 0.0158201
0.0757758 0.5 0.9375 0.0158047
0.939112 0.5 0.075 0.00287257
0.939201 0.5 -0.075 0.00287089
0.756814 0.5 -0.5625 0.00457715
0.756814 0.5 0.5625 0.00457703
0.905821 0.5 0.2625 0.00308134
0.905821 0.5 -0.2625 0.00308131
0.288069 0.5 -0.9 0.0126054
0.288069 0.5 0.9 0.0125935
0.872064 0.5 -0.375 0.00342447
0.872064 0.5 0.375 0.00342436
0.939201 0.5 0.148627 0.002901
0.939201 0.5 -0.15 0.00289971
0.797732 0.5 -0.525 0.00419159
0.797732 0.5 0.525 0.00419154
0.219992 0.5 -0.9375 0.0137526
0.219992 0.5 0.9375 0.0137376
0.939201 0.5 -0.225 0.0029467
0.939201 0.5 0.225 0.00294672
0.905821 0.5 -0.3375 0.00315957
0.905821 0.5 0.3375 0.00315973
0.835107 0.5 -0.4875 0.00382628
0.835107 0.5 0.4875 0.00382627
0 0.5 -0.96882 0.0111887
0 0.5 0.96882 0.0111783
0.0124871 0.5 -0.96882 0.0119538
0.0124871 0.5 0.96882 0.0119427
0.96969 0.5 -0.0375 0.00275925
0.96969 0.5 0.0375 0.00275927
0.574156 0.5 0.7875 0.00730192
0.574156 0.5 -0.7875 0.00730334
0 0.5 -0.975 0.0111855
0 0.5 0.975 0.0111751
0.624316 0.5 -0.75 0.0065571
0.624316 0.5 0.75 0.00655618
0.96969 0.5 -0.1125 0.00277872
0.96969 0.5 0.1125 0.00277874
0.523432 0.5 -0.825 0.00825409
0.523432 0.5 0.825 0.00825154
0.67013 0.5 -0.7125 0.00584671
0.67013 0.5 0.7125 0.00584622
0 0.5 -0.98118 0.0111848
0 0.5 0.98118 0.0111745
0.467897 0.5 -0.8625 0.0092405
0.467897 0.5 0.8625 0.0092367
0.0124871 0.5 -0.98118 0.0119487
0.0124871 0.5 0.98118 0.0119376
0.872064 0.5 0.45 0.00353209
0.872064 0.5 -0.45 0.00353229
0.715434 0.5 -0.675 0.00529456
0.715434 0.5 0.675 0.00529424
0.939201 0.5 0.3 0.00301259
0.939201 0.5 -0.3 0.00301254
0.151149 0.5 -0.975 0.0147474
0.151149 0.5 0.975 0.0147327
0.96969 0.5 -0.1875 0.00281624
0.96969 0.5 0.1875 0.00281626
0.756814 0.5 0.6375 0.00477122
0.756814 0.5 -0.6375 0.00477138
0.411736 0.5 -0.9 0.0104149
0.411736 0.5 0.9 0.0104088
0.905821 0.5 -0.4125 0.00325758
0.905821 0.5 0.4125 0.00325699
0.995005 0.5 0.0749309 0.00264359
0.797732 0.5 -0.6 0.00436462
0.797732 0.5 0.6 0.00436451
1.00005 0.5 3.26706e-18 0.00260548
0.350249 0.5 0.9375 0.011593
0.350249 0.5 -0.9375 0.0116015
1.00005 0.5 -0.0749309 0.00261481
0.96969 0.5 -0.2625 0.00287154
0.96969 0.5 0.2625 0.00287153
0.835107 0.5 -0.5625 0.00397997
0.835107 0.5 0.5625 0.00397993
1.00005 0.5 -0.149862 0.00264213
0.939201 0.5 -0.375 0.0030986
0.939201 0.5 0.375 0.00309849
1.00029 0.5 0.148988 0.00264567
0.0757758 0.5 -1.0125 0.0158025
0.0757758 0.5 1.0125 0.0157882
0.288069 0.5 -0.975 0.0127013
0.288069 0.5 0.975 0.0126899
0.872064 0.5 -0.525 0.00366441
0.872064 0.5 0.525 0.00366436
1.00005 0.5 0.224793 0.00268677
1.00005 0.5 -0.224793 0.00268691
0.96969 0.5 0.3375 0.00294481
0.96969 0.5 -0.3375 0.0029448
1.02709 0.5 0.0368226 0.00244379
1.02709 0.5 -0.0368226 0.00244377
0.905821 0.5 0.4875 0.00336772
0.905821 0.5 -0.4875 0.00336782
1.02709 0.5 -0.110468 0.00246079
1.02709 0.5 0.110468 0.00245014
0.67013 0.5 -0.7875 0.00611392
0.67013 0.5 0.7875 0.00611331
0.624316 0.5 -0.825 0.0068423
0.624316 0.5 0.825 0.00684124
0.219992 0.5 -1.0125 0.0137548
0.219992 0.5 1.0125 0.0137409
0.574156 0.5 -0.8625 0.00760588
0.574156 0.5 0.8625 0.00760432
0.715434 0.5 -0.75 0.00553862
0.715434 0.5 0.75 0.00553823
0.756814 0.5 -0.7125 0.00499302
0.756814 0.5 0.7125 0.00499281
0.523432 0.5 0.9 0.00855487
0.523432 0.5 -0.9 0.00855762
0.939201 0.5 0.45 0.00320085
0.939201 0.5 -0.45 0.00320102
1.04168 0.5 0 0.00236863
1.02709 0.5 -0.184113 0.00249391
1.02709 0.5 0.184113 0.00249393
0 0.5 1.04382 0.0111654
0 0.5 -1.04382 0.0111756
0.0124871 0.5 -1.04382 0.0119395
0.0124871 0.5 1.04382 0.0119285
1.00005 0.5 -0.299723 0.00274937
1.00005 0.5 0.299723 0.00274917
1.04168 0.5 -0.0729162 0.0023764
1.04168 0.5 0.0729162 0.00237641
0.797732 0.5 -0.675 0.00456323
0.797732 0.5 0.675 0.00456308
0.467897 0.5 -0.9375 0.00954337
0.467897 0.5 0.9375 0.0095394
0 0.5 -1.05 0.0111717
0 0.5 1.05 0.0111616
0.835107 0.5 0.6375 0.00415572
0.835107 0.5 -0.6375 0.00415581
1.04168 0.5 -0.145832 0.00239913
1.04168 0.5 0.145832 0.00239914
0.96969 0.5 -0.4125 0.00303961
0.96969 0.5 0.4125 0.00303958
0 0.5 -1.05618 0.0111693
0 0.5 1.05618 0.0111591
0.0124871 0.5 -1.05618 0.0119251
0.0124871 0.5 1.05618 0.011914
1.05694 0.5 -0.0360765 0.00229313
1.05694 0.5 0.0360765 0.00229307
0.411736 0.5 0.975 0.010676
0.411736 0.5 -0.975 0.0106823
0.872064 0.5 -0.6 0.00381961
0.872064 0.5 0.6 0.00381954
1.02709 0.5 -0.257758 0.00254367
1.02709 0.5 0.257758 0.00254368
0.151149 0.5 -1.05 0.0147484
0.151149 0.5 1.05 0.0147341
1.05694 0.5 -0.108229 0.00230716
1.05694 0.5 0.108229 0.00229168
1.04168 0.5 -0.218749 0.00243669
1.04168 0.5 0.218749 0.00243669
0.905821 0.5 -0.5625 0.00350143
0.905821 0.5 0.5625 0.00350136
1.00005 0.5 -0.374654 0.00283172
1.00005 0.5 0.374654 0.00283146
0.350249 0.5 -1.0125 0.0118287
0.350249 0.5 1.0125 0.01182
1.05694 0.5 -0.180382 0.00233411
1.05694 0.5 0.180382 0.00233379
1.07319 0.5 0.0709442 0.00223616
0.939201 0.5 0.525 0.00333294
0.939201 0.5 -0.525 0.00333305
1.02709 0.5 -0.331404 0.00261067
1.02709 0.5 0.331404 0.00261067
1.08112 0.5 -3.98986e-18 0.00220177
1.04168 0.5 -0.291665 0.00248971
1.04168 0.5 0.291665 0.0024897
1.08112 0.5 -0.0709442 0.00220835
0.96969 0.5 -0.4875 0.00314634
0.96969 0.5 0.4875 0.00314637
1.05694 0.5 -0.252535 0.00237492
1.05694 0.5 0.252535 0.00237445
0.288069 0.5 -1.05 0.0128359
0.288069 0.5 1.05 0.0128247
0.0757758 0.5 -1.0875 0.0157641
0.0757758 0.5 1.0875 0.0157482
1.08112 0.5 -0.141888 0.00222747
1.08145 0.5 0.140165 0.00223083
0.715434 0.5 -0.825 0.00580979
0.715434 0.5 0.825 0.00580931
0.756814 0.5 -0.7875 0.00524167
0.756814 0.5 0.7875 0.00524139
0.67013 0.5 -0.8625 0.00640811
0.67013 0.5 0.8625 0.00640741
0.797732 0.5 0.75 0.00478973
0.797732 0.5 -0.75 0.00478996
0.624316 0.5 -0.9 0.00715308
0.624316 0.5 0.9 0.00715186
1.00005 0.5 -0.449585 0.00293308
1.00005 0.5 0.449585 0.00293278
0.835107 0.5 -0.7125 0.00435932
0.835107 0.5 0.7125 0.00435919
0.574156 0.5 -0.9375 0.00793245
0.574156 0.5 0.9375 0.00793065
1.10076 0.5 0.034981 0.00213493
1.10076 0.5 -0.034981 0.00213492
1.08112 0.5 -0.212833 0.00225904
1.08112 0.5 0.212833 0.00225888
0.872064 0.5 -0.675 0.00400141
0.872064 0.5 0.675 0.00400132
1.04168 0.5 -0.364581 0.00256046
1.04168 0.5 0.364581 0.00256047
1.02709 0.5 0.405049 0.00269865
1.02709 0.5 -0.405049 0.0026986
1.05694 0.5 -0.324688 0.00243025
1.05694 0.5 0.324688 0.00242961
1.10076 0.5 -0.104943 0.0021477
1.10076 0.5 0.104943 0.0021477
0.523432 0.5 -0.975 0.00888799
0.523432 0.5 0.975 0.00888506
0.905821 0.5 -0.6375 0.00365979
0.905821 0.5 0.6375 0.00365972
0.219992 0.5 -1.0875 0.0138075
0.219992 0.5 1.0875 0.0137941
1.11376 0.5 0 0.00209422
0.939201 0.5 -0.6 0.00348963
0.939201 0.5 0.6 0.00348934
1.10076 0.5 -0.174905 0.00217206
1.10076 0.5 0.174905 0.00217205
0.467897 0.5 -1.0125 0.0098775
0.467897 0.5 1.0125 0.00987334
1.11376 0.5 -0.0693118 0.00210047
1.11376 0.5 0.0693118 0.00210047
1.08112 0.5 -0.283777 0.00230388
1.08112 0.5 0.283777 0.00230365
0 0.5 1.11882 0.0111855
0 0.5 -1.11882 0.0111944
0.0124871 0.5 -1.11882 0.0119502
0.0124871 0.5 1.11882 0.0119403
0.96969 0.5 -0.5625 0.00332317
0.96969 0.5 0.5625 0.00332287
1.11376 0.5 -0.138624 0.00211864
1.11376 0.5 0.138624 0.00212064
0 0.5 -1.125 0.011202
0 0.5 1.125 0.0111935
1.10076 0.5 0.244867 0.00220897
1.10076 0.5 -0.244867 0.002209
0.411736 0.5 -1.05 0.0109752
0.411736 0.5 1.05 0.0109687
1.05694 0.5 -0.396841 0.00250378
1.05694 0.5 0.396841 0.00250304
1.00005 0.5 -0.524516 0.00306936
1.00005 0.5 0.524516 0.00306888
1.04168 0.5 -0.437497 0.00265079
1.04168 0.5 0.437497 0.00265083
0 0.5 -1.13118 0.0112098
0 0.5 1.13118 0.0112014
0.0124871 0.5 -1.13118 0.0119721
0.0124871 0.5 1.13118 0.0119632
1.11376 0.5 -0.207935 0.00214863
1.11376 0.5 0.207935 0.00214861
1.02709 0.5 -0.478694 0.0028072
1.02709 0.5 0.478694 0.00280725
0.151149 0.5 -1.125 0.0148078
0.151149 0.5 1.125 0.0147951
1.08112 0.5 0.354721 0.00236366
1.08112 0.5 -0.354721 0.00236394
1.13882 0.5 0.0340295 0.00201352
1.13882 0.5 -0.0340295 0.00201354
0.350249 0.5 -1.0875 0.0120712
0.350249 0.5 1.0875 0.0120622
1.13882 0.5 -0.102088 0.00202542
1.13882 0.5 0.102088 0.00202134
1.10076 0.5 0.314829 0.00225901
1.10076 0.5 -0.314829 0.00225907
0.756814 0.5 -0.8625 0.00551718
0.756814 0.5 0.8625 0.00551683
0.797732 0.5 -0.825 0.00504457
0.797732 0.5 0.825 0.00504422
1.11376 0.5 -0.277247 0.00219116
1.11376 0.5 0.277247 0.00219112
0.835107 0.5 0.7875 0.00459286
0.835107 0.5 -0.7875 0.00459314
0.715434 0.5 -0.9 0.00610859
0.715434 0.5 0.9 0.00610805
0.872064 0.5 -0.75 0.00421233
0.872064 0.5 0.75 0.00421231
1.13882 0.5 0.170147 0.00204809
1.13882 0.5 -0.170147 0.00204822
0.67013 0.5 -0.9375 0.00672831
0.67013 0.5 0.9375 0.00672742
0.905821 0.5 -0.7125 0.00384985
0.905821 0.5 0.7125 0.0038498
1.05694 0.5 -0.468994 0.00259641
1.05694 0.5 0.468994 0.00259545
0.939201 0.5 -0.675 0.00364469
0.939201 0.5 0.675 0.00364441
0.624316 0.5 -0.975 0.00749122
0.624316 0.5 0.975 0.00748986
1.04168 0.5 -0.510414 0.00276605
1.04168 0.5 0.510414 0.00276609
0.96969 0.5 -0.6375 0.00347995
0.96969 0.5 0.6375 0.00347924
0.288069 0.5 -1.125 0.0130105
0.288069 0.5 1.125 0.0129998
1.16179 0.5 0 0.00193538
1.08112 0.5 -0.425665 0.00244134
1.08112 0.5 0.425665 0.00244101
1.13882 0.5 0.238206 0.00208251
1.13882 0.5 -0.238206 0.00208269
1.16179 0.5 -0.0669104 0.00194093
1.16179 0.5 0.0669104 0.00192956
0.574156 0.5 1.0125 0.00828711
0.574156 0.5 -1.0125 0.00828901
0.0757758 0.5 1.1625 0.0158477
0.0757758 0.5 -1.1625 0.0158573
1.00005 0.5 -0.599447 0.00321747
1.00005 0.5 0.599447 0.00321682
1.10076 0.5 -0.384791 0.00232516
1.10076 0.5 0.384791 0.00232515
1.02709 0.5 -0.552339 0.00294547
1.02709 0.5 0.552339 0.0029455
1.11376 0.5 0.346559 0.0022478
1.11376 0.5 -0.346559 0.00224784
1.16179 0.5 -0.133821 0.00195698
1.16179 0.5 0.133821 0.00195533
0.523432 0.5 -1.05 0.00924739
0.523432 0.5 1.05 0.00924425
1.17463 0.5 -0.0331343 0.00189389
1.17463 0.5 0.0331343 0.00189389
1.17463 0.5 -0.099403 0.00190438
1.17463 0.5 0.099403 0.00190438
1.16179 0.5 -0.200731 0.00198348
1.16179 0.5 0.200731 0.00198315
1.13882 0.5 -0.306265 0.00212942
1.13882 0.5 0.306265 0.00212916
0.219992 0.5 -1.1625 0.0139329
0.219992 0.5 1.1625 0.0139208
0.467897 0.5 -1.0875 0.0102385
0.467897 0.5 1.0875 0.0102341
1.17463 0.5 -0.165672 0.0019245
1.17463 0.5 0.165672 0.00192447
1.05694 0.5 0.541147 0.00271333
1.05694 0.5 -0.541147 0.00271433
1.18772 0.5 0 0.00185248
1.11376 0.5 -0.415871 0.00232042
1.11376 0.5 0.415871 0.00232038
1.18772 0.5 -0.065614 0.00185747
1.18772 0.5 0.065614 0.00185817
1.08112 0.5 -0.49661 0.00253953
1.08112 0.5 0.49661 0.00253916
1.10076 0.5 -0.454752 0.00240814
1.10076 0.5 0.454752 0.0024081
1.18534 0.5 0.118202 0.00187201
1.16179 0.5 -0.267642 0.00202112
1.16179 0.5 0.267642 0.00202066
0 0.5 -1.19382 0.0112911
0 0.5 1.19382 0.011284
1.04168 0.5 -0.58333 0.00288327
1.04168 0.5 0.58333 0.00288316
0.0124871 0.5 -1.19382 0.0120534
0.0124871 0.5 1.19382 0.0120457
1.18772 0.5 -0.131228 0.00187203
1.17463 0.5 -0.23194 0.00195504
1.17463 0.5 0.23194 0.00195499
0.411736 0.5 -1.125 0.0112892
0.411736 0.5 1.125 0.0112825
1.13882 0.5 -0.374324 0.00219052
1.13882 0.5 0.374324 0.00219023
0 0.5 -1.2 0.0112998
0 0.5 1.2 0.0112927
0.905821 0.5 -0.7875 0.00406673
0.905821 0.5 0.7875 0.00406707
0.872064 0.5 -0.825 0.00445286
0.872064 0.5 0.825 0.00445271
0.835107 0.5 0.8625 0.00485373
0.835107 0.5 -0.8625 0.00485423
0.939201 0.5 -0.75 0.00382462
0.939201 0.5 0.75 0.0038245
0.797732 0.5 -0.9 0.00532964
0.797732 0.5 0.9 0.0053293
1.02709 0.5 -0.625985 0.00306662
1.02709 0.5 0.625985 0.00306645
0.96969 0.5 -0.7125 0.00359628
0.96969 0.5 0.7125 0.003596
1.18772 0.5 -0.196842 0.00189614
1.18772 0.5 0.196842 0.0018961
0.756814 0.5 -0.9375 0.00582322
0.756814 0.5 0.9375 0.00582298
0 0.5 -1.20618 0.0113097
0 0.5 1.20618 0.0113026
1.00005 0.5 -0.674378 0.00336003
1.00005 0.5 0.674378 0.00335922
0.0124871 0.5 -1.20618 0.0120778
0.0124871 0.5 1.20618 0.0120701
1.16179 0.5 -0.334552 0.00207117
1.16179 0.5 0.334552 0.00207058
0.715434 0.5 -0.975 0.00644108
0.715434 0.5 0.975 0.00644082
0.151149 0.5 -1.2 0.0149568
0.151149 0.5 1.2 0.014946
1.20942 0.5 -0.0322645 0.00178174
1.20942 0.5 0.0322645 0.00178062
1.17463 0.5 -0.298209 0.00199656
1.17463 0.5 0.298209 0.00199648
1.20942 0.5 -0.0967935 0.00179089
1.20942 0.5 0.0967935 0.00179087
0.350249 0.5 -1.1625 0.0123383
0.350249 0.5 1.1625 0.0123298
0.67013 0.5 1.0125 0.00707695
0.67013 0.5 -1.0125 0.00707786
1.11376 0.5 -0.485183 0.00241058
1.11376 0.5 0.485183 0.00241061
1.18772 0.5 -0.262456 0.00193051
1.18772 0.5 0.262456 0.00193044
1.10076 0.5 0.524714 0.00251351
1.10076 0.5 -0.524714 0.00251333
1.20942 0.5 -0.161322 0.00180845
1.20942 0.5 0.161322 0.00180839
1.08112 0.5 0.567554 0.00263906
1.08112 0.5 -0.567554 0.00263982
0.624316 0.5 -1.05 0.00785948
0.624316 0.5 1.05 0.00785795
1.13882 0.5 -0.442383 0.00226675
1.13882 0.5 0.442383 0.00226633
1.05694 0.5 0.6133 0.00280675
1.05694 0.5 -0.6133 0.00280814
1.16179 0.5 -0.401463 0.0021353
1.16179 0.5 0.401463 0.00213455
0.574156 0.5 1.0875 0.00867136
0.574156 0.5 -1.0875 0.00867357
1.17463 0.5 -0.364478 0.00205099
1.17463 0.5 0.364478 0.00205094
1.20942 0.5 0.225851 0.00183506
1.20942 0.5 -0.225851 0.00183514
1.23036 0.5 1.15648e-18 0.00171714
1.2294 0.5 0.0634819 0.00172407
1.04168 0.5 -0.656246 0.00301324
1.04168 0.5 0.656246 0.00301308
1.23036 0.5 -0.0634819 0.00172147
1.18772 0.5 0.32807 0.00197628
1.18772 0.5 -0.32807 0.00197636
0.288069 0.5 1.2 0.0132102
0.288069 0.5 -1.2 0.0132199
1.23036 0.5 -0.126964 0.00173395
1.23036 0.5 0.126964 0.00173359
0.0757758 0.5 -1.2375 0.0160267
0.0757758 0.5 1.2375 0.0160156
0.523432 0.5 -1.125 0.0096316
0.523432 0.5 1.125 0.00962814
1.02709 0.5 0.69963 0.00323023
1.02709 0.5 -0.69963 0.00323034
1.24275 0.5 -0.0314313 0.00168057
1.24275 0.5 0.0314313 0.00168057
1.20942 0.5 -0.29038 0.00187174
1.20942 0.5 0.29038 0.00187161
1.11376 0.5 -0.554494 0.00250939
1.11376 0.5 0.554494 0.0025087
1.23036 0.5 -0.190446 0.00175458
1.23036 0.5 0.190446 0.00175403
1.24275 0.5 -0.0942939 0.00168869
1.24275 0.5 0.0942939 0.00168867
1.13882 0.5 -0.510442 0.00235689
1.13882 0.5 0.510442 0.00235643
0.96969 0.5 0.7875 0.00379383
0.96969 0.5 -0.7875 0.0037943
1.00005 0.5 0.749309 0.0035336
1.00005 0.5 -0.749309 0.00353449
0.939201 0.5 -0.825 0.00404327
0.939201 0.5 0.825 0.00404299
0.905821 0.5 -0.8625 0.00431755
0.905821 0.5 0.8625 0.00431736
1.17463 0.5 0.430746 0.00211965
1.17463 0.5 -0.430746 0.00211977
1.10076 0.5 0.594676 0.00260311
1.10076 0.5 -0.594676 0.00260444
1.18772 0.5 -0.393684 0.00203548
1.18772 0.5 0.393684 0.00203539
1.24275 0.5 -0.157157 0.00170434
1.24275 0.5 0.157157 0.00170429
1.16179 0.5 -0.468373 0.00221159
1.16179 0.5 0.468373 0.00221076
0.467897 0.5 -1.1625 0.0106168
0.467897 0.5 1.1625 0.0106119
0.872064 0.5 -0.9 0.00472596
0.872064 0.5 0.9 0.00472577
1.25401 0.5 0 0.00165132
0.835107 0.5 -0.9375 0.00515233
0.835107 0.5 0.9375 0.00515207
1.25401 0.5 0.0622994 0.00165488
1.25401 0.5 -0.0622994 0.00165526
1.08112 0.5 0.638498 0.00274839
1.08112 0.5 -0.638498 0.00274936
1.23036 0.5 -0.253928 0.00178406
1.23036 0.5 0.253928 0.00178329
0.219992 0.5 -1.2375 0.0141391
0.219992 0.5 1.2375 0.0141284
1.2531 0.5 0.121964 0.00166647
1.05694 0.5 -0.685453 0.00295467
1.05694 0.5 0.685453 0.00295309
0.797732 0.5 -0.975 0.00564865
0.797732 0.5 0.975 0.00564867
1.25401 0.5 -0.124599 0.00166668
1.20942 0.5 -0.354909 0.00191989
1.20942 0.5 0.354909 0.00191976
1.24275 0.5 -0.220019 0.0017281
1.24275 0.5 0.220019 0.00172803
0.756814 0.5 -1.0125 0.00617759
0.756814 0.5 1.0125 0.00617853
1.25401 0.5 -0.186898 0.00168561
1.25401 0.5 0.186898 0.00168528
0.411736 0.5 -1.2 0.0115969
0.411736 0.5 1.2 0.0115903
0 0.5 -1.26882 0.0114326
0 0.5 1.26882 0.0114257
0.0124871 0.5 -1.26882 0.0122007
0.0124871 0.5 1.26882 0.0121932
0.715434 0.5 -1.05 0.00680588
0.715434 0.5 1.05 0.00680541
1.23036 0.5 -0.317409 0.00182349
1.23036 0.5 0.317409 0.00182249
1.04168 0.5 -0.729162 0.00318571
1.04168 0.5 0.729162 0.00318561
1.18772 0.5 -0.459298 0.0021057
1.18772 0.5 0.459298 0.00210562
1.24275 0.5 0.282882 0.00176055
1.24275 0.5 -0.282882 0.00176066
0 0.5 -1.275 0.0114458
0 0.5 1.275 0.0114391
1.27472 0.5 -0.0306319 0.00158812
1.27472 0.5 0.0306319 0.0015881
1.17463 0.5 -0.497015 0.00219594
1.17463 0.5 0.497015 0.00219589
1.11376 0.5 0.623806 0.00261063
1.11376 0.5 -0.623806 0.00261157
1.13882 0.5 -0.578501 0.00246027
1.13882 0.5 0.578501 0.00245827
0.67013 0.5 -1.0875 0.00746046
0.67013 0.5 1.0875 0.00745931
1.27472 0.5 0.0918957 0.00160674
1.27472 0.5 -0.0918957 0.00159521
1.25401 0.5 -0.249198 0.00171275
1.25401 0.5 0.249198 0.00171228
1.16179 0.5 -0.535283 0.0023068
1.16179 0.5 0.535283 0.00230527
1.20942 0.5 0.419438 0.00198154
1.20942 0.5 -0.419438 0.0019817
0 0.5 -1.28118 0.0114596
0 0.5 1.28118 0.011453
0.0124871 0.5 -1.28118 0.0122373
0.0124871 0.5 1.28118 0.0122302
1.27472 0.5 -0.15316 0.00160892
1.27472 0.5 0.15316 0.0016088
0.151149 0.5 -1.275 0.0151776
0.151149 0.5 1.275 0.0151677
1.02709 0.5 -0.773275 0.00342925
1.02709 0.5 0.773275 0.00342902