# nutMean  POINT_DATA 91129
# x  y  z  nutMean
0 0 0 5.05989e-06
0 0.00368111 0 1.85828e-05
0 0.00749587 0 7.42787e-05
0 0.0114491 0 0.000274927
0 0.0155459 0 0.000716009
0 0.0197915 0 0.00183488
0 0.0241911 0 0.00273279
0 0.0287506 0 0.00303501
0 0.0334755 0 0.00344046
0 0.038372 0 0.00372259
0 0.0434463 0 0.00392404
0 0.0487048 0 0.00408236
0 0.0541543 0 0.00421815
0 0.0598016 0 0.00434516
0 0.0656539 0 0.00447518
0 0.0717187 0 0.00461092
0.0757758 0.00184056 0 9.07371e-06
0.0757758 0.00558849 3.46945e-18 1.32878e-05
0.0757758 0.0094725 0 6.3396e-05
0.0757758 0.0134975 0 0.00029953
0.0757758 0.0176687 0 0.000861601
0 0.0780037 0 0.00475011
0.0757758 0.0219913 0 0.00174311
0.0757758 0.0264709 0 0.00294756
0.0757758 0.031113 3.46945e-18 0.00444869
0.0757758 0.0359238 -3.46945e-18 0.00619325
0 0.0845169 0 0.00489225
0.0757758 0.0409092 0 0.00811414
0.0757758 0.0460756 0 0.0101406
0 0.0912666 0 0.00503735
0.0757758 0.0514296 3.46945e-18 0.0122031
0.0757758 0.0569779 0 0.014225
0 0.0982613 0 0.00518464
0.0757758 0.0627277 0 0.015152
0.0757758 0.0686863 0 0.0156346
0 0.10551 0 0.00533255
0.0757758 0.0748612 3.46945e-18 0.0161735
0.0757758 0.0812603 3.46945e-18 0.0167742
0 0.113022 0 0.00547911
0.0757758 0.0878917 0 0.0174445
0 0.120806 0 0.00562558
0.0757758 0.0947639 -3.46945e-18 0.0181971
0.0757758 0.101886 -3.46945e-18 0.0190587
0 0.128874 0 0.00578482
0.0757758 0.109266 0 0.0200818
0 0.137234 0 0.00597527
0.0757758 0.116914 -3.46945e-18 0.0213334
0 0.145897 0 0.00620016
0.0757758 0.12484 0 0.0228877
0.151552 0 0 0
0.151552 0.00368111 0 7.46458e-06
0.151552 0.00749587 0 2.55024e-05
0.151552 0.0114491 0 0.000113271
0.151552 0.0155459 0 0.000358684
0.151552 0.0197915 0 0.000818306
0.0757758 0.133054 3.46945e-18 0.0247509
0.151552 0.0241911 0 0.00150541
0.151552 0.0287506 0 0.00241905
0 0.154876 0 0.00644863
0.151552 0.0334755 0 0.00354228
0.151552 0.038372 0 0.00484643
0.151552 0.0434463 0 0.0062965
0.151552 0.0487048 0 0.00785523
0.0757758 0.141566 0 0.0265529
0.151552 0.0541543 0 0.00948285
0.151552 0.0598016 0 0.0109028
0 0.16418 0 0.00671421
0.151552 0.0656539 0 0.0120125
0.151552 0.0717187 0 0.0130809
0.0757758 0.150387 0 0.0279904
0.151552 0.0780037 0 0.0142191
0.151552 0.0845169 0 0.0154155
0 0.173822 0 0.00699618
0.0757758 0.159528 3.46945e-18 0.0288228
0.151552 0.0912666 0 0.0166547
0.151552 0.0982613 0 0.0178866
0 0.183814 0 0.00729273
0.151552 0.10551 0 0.0190146
0.0757758 0.169001 0 0.0289164
0.151552 0.113022 0 0.0201116
0.151552 0.120806 0 0.0212244
0 0.194169 0 0.0076005
0.0757758 0.178818 0 0.0283268
0.151552 0.128874 0 0.0224971
0.0757758 0.188991 3.46945e-18 0.0272542
0.151552 0.137234 0 0.023934
0 0.2049 0 0.00791306
0.151552 0.145897 0 0.0252777
0.0757758 0.199534 -3.46945e-18 0.0259266
0 0.21602 0 0.00822226
0.151552 0.154876 0 0.0264064
0.219992 0.00184056 -3.46945e-18 2.60448e-06
0.219992 0.00558849 0 5.46408e-06
0.219992 0.0094725 0 2.18375e-05
0.219992 0.0134975 0 7.88104e-05
0.219992 0.0176687 0 0.000228929
0.219992 0.0219913 3.46945e-18 0.000514045
0.219992 0.0264709 3.46945e-18 0.000946098
0.219992 0.031113 0 0.00153059
0.219992 0.0359238 0 0.00227016
0.151552 0.16418 0 0.027171
0.0757758 0.21046 0 0.0244675
0.219992 0.0409092 0 0.00316301
0.219992 0.0460756 0 0.0042036
0.219992 0.0514296 0 0.00538363
0.219992 0.0569779 3.46945e-18 0.00669331
0 0.227544 0 0.00857328
0.219992 0.0627277 0 0.00812267
0.219992 0.0686863 0 0.00966028
0.151552 0.173822 0 0.0275031
0.219992 0.0748612 -3.46945e-18 0.0112891
0.0757758 0.221782 0 0.0229428
0.219992 0.0812603 0 0.0129863
0.219992 0.0878917 0 0.0147174
0.151552 0.183814 0 0.0274449
7.47804e-17 0.239487 0 0.00902617
0.219992 0.0947639 0 0.0164392
0.219992 0.101886 0 0.0179652
0.0757758 0.233515 0 0.0219602
0.219992 0.109266 0 0.019038
0.151552 0.194169 0 0.0271004
0.219992 0.116914 -3.46945e-18 0.020085
0 0.251863 0 0.00955622
0.219992 0.12484 0 0.0207277
0.151552 0.2049 0 0.0265607
0.0757758 0.245675 3.46945e-18 0.021594
0.219992 0.133054 0 0.0218252
0.219992 0.141566 0 0.0228707
0.151552 0.21602 0 0.0258767
0 0.264688 0 0.0101277
0.219992 0.150387 0 0.0240028
0.0757758 0.258276 3.46945e-18 0.021399
0.219992 0.159528 0 0.0251167
0.151552 0.227544 0 0.0252127
0.219992 0.169001 0 0.0260887
0 0.27798 0 0.010742
0.0757758 0.271334 0 0.0213341
0.151552 0.239487 3.70074e-18 0.0247362
0.219992 0.178818 0 0.0268521
0.288433 0 0 0
0.288433 0.00368111 0 3.08314e-06
0.288433 0.00749587 0 1.14107e-05
0.288433 0.0114491 0 3.98295e-05
0.288433 0.0155459 3.70074e-18 0.000115722
0.288433 0.0197915 0 0.000279812
0.288433 0.0241911 3.70074e-18 0.000558034
0.288433 0.0287506 0 0.000959845
0.219992 0.188991 0 0.0273993
0.288433 0.0334755 0 0.00149271
0.288433 0.038372 0 0.00215852
0.288433 0.0434463 0 0.00295622
7.47804e-17 0.291753 0 0.0114022
0.288433 0.0487048 0 0.00388217
0.288433 0.0541543 0 0.00493055
0.151552 0.251863 0 0.0243691
0.288433 0.0598016 3.70074e-18 0.00609366
0.0757758 0.284866 -3.46945e-18 0.0214085
0.288433 0.0656539 3.70074e-18 0.00736152
0.219992 0.199534 0 0.0277431
0.288433 0.0717187 0 0.00871993
0.288433 0.0780037 0 0.0101488
0.288433 0.0845169 0 0.0115596
0.288433 0.0912666 0 0.0126526
0.219992 0.21046 0 0.0278966
0.288433 0.0982613 0 0.013424
0.151552 0.264688 3.70074e-18 0.0240189
0 0.306027 0 0.0121447
0.288433 0.10551 0 0.0140797
0.0757758 0.29889 -3.46945e-18 0.0216099
0.288433 0.113022 0 0.0146944
0.219992 0.221782 0 0.0278673
0.288433 0.120806 0 0.0152245
0.288433 0.128874 0 0.0157259
0.151552 0.27798 0 0.0237853
0.288433 0.137234 0 0.0162905
0 0.320819 0 0.0131692
0.219992 0.233515 0 0.0276576
0.0757758 0.313423 0 0.0221054
0.288433 0.145897 0 0.0168694
0.288433 0.154876 0 0.0174781
0.151552 0.291753 0 0.0236357
0.219992 0.245675 0 0.02728
0.288433 0.16418 0 0.0180536
0 0.336148 0 0.0146495
0.288433 0.173822 0 0.0185441
0.0757758 0.328484 0 0.0237678
0.219992 0.258276 0 0.0267635
0.151552 0.306027 0 0.0234916
0.288433 0.183814 0 0.0189293
0.288433 0.194169 0 0.0192097
0.219992 0.271334 -3.46945e-18 0.0261732
0.350249 0.00184056 0 9.17878e-07
0.350249 0.00558849 0 3.48603e-06
0.350249 0.0094725 0 1.51847e-05
0.350249 0.0134975 0 4.50292e-05
0.350249 0.0176687 3.46945e-18 0.00011573
0.350249 0.0219913 0 0.000274025
0.350249 0.0264709 -3.46945e-18 0.000523264
0.350249 0.031113 -3.46945e-18 0.000880374
0 0.352034 0 0.0157666
0.350249 0.0359238 3.46945e-18 0.00134964
0.0757758 0.344091 0 0.0265421
0.350249 0.0409092 0 0.00193331
0.350249 0.0460756 0 0.00263182
0.288433 0.2049 0 0.019391
0.350249 0.0514296 0 0.00344359
0.151552 0.320819 0 0.0236324
0.350249 0.0569779 3.46945e-18 0.00436449
0.350249 0.0627277 0 0.0053873
0.350249 0.0686863 0 0.0065006
0.350249 0.0748612 3.46945e-18 0.00768749
0.350249 0.0812603 0 0.00892446
0.219992 0.284866 0 0.0258562
0.288433 0.21602 0 0.0194773
0.350249 0.0878917 0 0.00994674
0.350249 0.0947639 0 0.00993679
0.350249 0.101886 0 0.0099093
0.350249 0.109266 3.46945e-18 0.0100552
0.288433 0.227544 0 0.0194696
0.0757758 0.360265 0 0.0260256
0 0.368496 0 0.0156558
0.151552 0.336148 0 0.0242972
0.350249 0.116914 3.46945e-18 0.0103135
0.219992 0.29889 0 0.0253434
0.370854 0.0241911 0 0.000405573
0.350249 0.12484 0 0.0105321
0.350249 0.133054 3.46945e-18 0.0106327
0.288433 0.239487 -9.25186e-19 0.0193696
0.350249 0.141566 -3.46945e-18 0.0107219
0.350249 0.150387 0 0.010845
0.288433 0.251863 0 0.0191852
0.219992 0.313423 0 0.0246582
0.151552 0.352034 0 0.0244216
0.0757758 0.377026 -3.46945e-18 0.0233964
0.350249 0.159528 3.46945e-18 0.010986
0 0.385557 0 0.015009
0.350249 0.169001 3.46945e-18 0.0111293
0.288433 0.264688 0 0.0189363
0.350249 0.178818 0 0.0112676
0.219992 0.328484 0 0.023892
0.350249 0.188991 0 0.0113987
0.151552 0.368496 0 0.023197
0.288433 0.27798 3.70074e-18 0.0187197
0.0757758 0.394396 -3.46945e-18 0.0217397
0.350249 0.199534 3.46945e-18 0.0115218
7.47804e-17 0.403236 0 0.0147279
0.219992 0.344091 0 0.0231182
0.350249 0.21046 0 0.0116359
0.288433 0.291753 0 0.018507
0.412065 9.0819e-19 0 2.45229e-22
0.412065 0.00368111 -2.31296e-18 2.07173e-06
0.412065 0.00749587 -2.31296e-18 9.20623e-06
0.412065 0.0114491 -2.31296e-18 2.77239e-05
0.412065 0.0155459 -2.31296e-18 6.93323e-05
0.412065 0.0197915 0 0.000161369
0.412065 0.0241911 0 0.000329342
0.412065 0.0264709 0 0.000457158
0.412065 0.0287506 -2.31296e-18 0.000584974
0.412065 0.0334755 -2.31296e-18 0.000936851
0.412065 0.038372 -2.31296e-18 0.00139049
0.151552 0.385557 0 0.021648
0.412065 0.0434463 0 0.00194734
0.350249 0.221782 0 0.011739
0.412065 0.0487048 0 0.00260688
0.412065 0.0541543 0 0.00336628
0.412065 0.0569779 0 0.00379296
0.412065 0.0598016 -2.31296e-18 0.00421964
0.412065 0.0656539 -2.31296e-18 0.00515703
0.412065 0.0717187 -2.31296e-18 0.00616322
0.0757758 0.412397 0 0.0213897
0.412065 0.0780037 -2.31296e-18 0.00711225
0.288433 0.306027 0 0.0181936
0.412065 0.0845169 -2.31296e-18 0.00782222
0.350249 0.233515 0 0.0118273
0 0.421557 0 0.0147915
0.412065 0.0912666 -2.31296e-18 0.00811952
0.219992 0.360265 -3.46945e-18 0.0222841
0.412065 0.0982613 0 0.00814188
0.412065 0.10551 0 0.00819431
0.412065 0.113022 -2.31296e-18 0.00832025
0.350249 0.245675 3.46945e-18 0.0118973
0.412065 0.120806 0 0.00846607
0.151552 0.403236 0 0.020656
0.288433 0.320819 0 0.0178092
0.412065 0.128874 -2.31296e-18 0.00857387
0.412065 0.137234 0 0.00865105
0.350249 0.258276 3.46945e-18 0.0119448
0.219992 0.377026 0 0.021312
0.412065 0.145897 -2.31296e-18 0.00873501
0.0757758 0.431051 0 0.0214035
0.412065 0.154876 -2.31296e-18 0.0088317
0 0.440544 0 0.0149242
0.288433 0.336148 0 0.0173962
0.350249 0.271334 0 0.0119634
0.412065 0.16418 -2.31296e-18 0.00893285
0.412065 0.173822 -2.31296e-18 0.0090328
0.151552 0.421557 0 0.0201293
0.412065 0.183814 -2.31296e-18 0.00912905
0.350249 0.284866 0 0.0119506
0.219992 0.394396 0 0.0202834
0.288433 0.352034 3.70074e-18 0.0169601
0.412065 0.194169 0 0.00922075
0.0757758 0.450382 0 0.0214444
0.412065 0.2049 -2.31296e-18 0.0093073
0 0.46022 0 0.015069
0.350249 0.29889 0 0.0119125
0.412065 0.21602 0 0.00938775
0.151552 0.440544 0 0.0197732
0.219992 0.412397 3.46945e-18 0.0193491
0.467897 0.00184056 -3.46945e-18 5.90208e-07
0.467897 0.00558849 0 3.31103e-06
0.288433 0.368496 0 0.0164665
0.467897 0.0094725 0 1.48615e-05
0.467897 0.0134975 3.46945e-18 3.6153e-05
0.467897 0.0176687 3.46945e-18 8.19589e-05
0.467897 0.0219913 -3.46945e-18 0.000178439
0.467897 0.0264709 -3.46945e-18 0.000351307
0.467897 0.031113 3.46945e-18 0.000601248
0.467897 0.0359238 0 0.000940991
0.467897 0.038372 0 0.0012025
0.467897 0.0409092 0 0.00137303
0.350249 0.313423 0 0.0118525
0.467897 0.0460756 0 0.00189793
0.467897 0.0514296 3.46945e-18 0.00251425
0.412065 0.227544 -2.31296e-18 0.00946052
0.467897 0.0569779 0 0.00321776
0.467897 0.0627277 -3.46945e-18 0.00400047
0.467897 0.0686863 0 0.00484941
0.467897 0.0748612 3.46945e-18 0.00574507
0.467897 0.0812603 3.46945e-18 0.00625826
0.467897 0.0878917 3.46945e-18 0.00638409
0.0757758 0.470415 3.46945e-18 0.0215811
0.412065 0.239487 -2.31296e-18 0.00952363
0.467897 0.0947639 0 0.00646413
0.467897 0.101886 3.46945e-18 0.0065052
0.350249 0.328484 0 0.011776
0.467897 0.109266 3.46945e-18 0.00655632
0 0.48061 0 0.0152025
0.288433 0.385557 0 0.0159125
0.467897 0.116914 3.46945e-18 0.00661538
0.412065 0.251863 -2.31296e-18 0.00957509
0.219992 0.431051 0 0.0185673
0.467897 0.12484 0 0.00667553
0.151552 0.46022 0 0.0195082
0.467897 0.133054 0 0.00673449
0.467897 0.141566 -3.46945e-18 0.00679684
0.412065 0.264688 -2.31296e-18 0.00961246
0.350249 0.344091 0 0.0116877
0.467897 0.150387 0 0.00686098
0.467897 0.154876 0 0.00739168
0.467897 0.159528 0 0.00692441
0.288433 0.403236 0 0.0153553
0.0757758 0.491176 3.46945e-18 0.0216312
0.412065 0.27798 -2.31296e-18 0.00963409
0.467897 0.169001 0 0.00698688
0.467897 0.178818 -3.46945e-18 0.00704812
0.219992 0.450382 3.46945e-18 0.0179283
6.73024e-17 0.501741 3.70074e-18 0.0152692
0.350249 0.360265 0 0.0115854
0.151552 0.48061 0 0.0192835
0.467897 0.188991 0 0.00710775
0.412065 0.291753 0 0.00964078
0.467897 0.199534 0 0.0071655
0.288433 0.421557 0 0.0148525
0.467897 0.21046 3.46945e-18 0.00722105
0.412065 0.306027 0 0.00963382
0.350249 0.377026 0 0.0114593
0.467897 0.221782 0 0.00727396
0.0757758 0.51269 0 0.0215751
0.219992 0.470415 0 0.017383
0.467897 0.227544 0 0.00787654
0.412065 0.320819 -2.31296e-18 0.00961445
0.467897 0.233515 0 0.00732377
6.73024e-17 0.523639 3.70074e-18 0.0152694
0.523729 0 0 0
0.523729 0.00368111 0 1.88652e-06
0.523729 0.00749587 -2.31296e-18 9.44244e-06
0.523729 0.0114491 0 2.57041e-05
0.523729 0.0155459 0 5.55662e-05
0.523729 0.0197915 -2.31296e-18 0.000114339
0.151552 0.501741 0 0.0190365
0.523729 0.0241911 0 0.000229579
0.523729 0.0287506 0 0.000414341
0.523729 0.0334755 0 0.000672558
0.523729 0.038372 0 0.0010145
0.523729 0.0434463 0 0.00144177
0.523729 0.0487048 0 0.0019537
0.523729 0.0541543 0 0.00254714
0.288433 0.440544 0 0.0144243
0.523729 0.0598016 0 0.00321563
0.350249 0.394396 0 0.0113044
0.523729 0.0656539 0 0.00394824
0.467897 0.245675 3.46945e-18 0.00737014
0.523729 0.0717187 0 0.00470372
0.523729 0.0780037 0 0.00522568
0.523729 0.0845169 0 0.00542177
0.523729 0.0912666 0 0.00550826
0.412065 0.336148 0 0.00958452
0.523729 0.0982613 0 0.00557193
0.523729 0.10551 -2.31296e-18 0.0056253
0.467897 0.258276 3.46945e-18 0.00741292
0.523729 0.113022 0 0.00568075
0.523729 0.120806 0 0.00573657
0.219992 0.491176 3.46945e-18 0.0168905
0.523729 0.12484 0 0.00576368
0.523729 0.128874 -2.31296e-18 0.00579078
0.0757758 0.534985 -3.46945e-18 0.0214418
0.467897 0.271334 0 0.00745268
0.350249 0.412397 3.46945e-18 0.0111311
0.523729 0.137234 0 0.0058443
0.412065 0.352034 -2.31296e-18 0.00954437
0.288433 0.46022 0 0.0140623
0.523729 0.145897 0 0.00589819
0.151552 0.523639 0 0.0187656
0.523729 0.154876 0 0.00595167
0 0.546332 0 0.0152186
0.523729 0.159528 0 0.00597792
0.467897 0.284866 3.46945e-18 0.00749086
0.523729 0.16418 -2.31296e-18 0.00600417
0.523729 0.173822 0 0.00605564
0.412065 0.368496 0 0.00949106
0.523729 0.183814 0 0.00610594
0.467897 0.29889 -3.46945e-18 0.00752567
0.350249 0.431051 0 0.0109572
0.219992 0.51269 3.46945e-18 0.0164375
0.523729 0.194169 0 0.00615494
0.288433 0.48061 0 0.0137462
0.523729 0.2049 0 0.00620249
0.467897 0.313423 0 0.00755508
0.0757758 0.55809 0 0.021257
0.412065 0.385557 0 0.00942084
0.523729 0.21602 0 0.00624842
0.151552 0.546332 0 0.0184847
0 0.569849 0 0.0151291
0.350249 0.450382 0 0.0107977
0.523729 0.227544 0 0.00629255
0.467897 0.328484 0 0.00757772
0.523729 0.231525 0 0.00630661
0.574156 0.00184056 0 4.21418e-07
0.574156 0.00558849 0 3.23189e-06
0.574156 0.0094725 0 1.6319e-05
0.574156 0.0134975 0 3.54578e-05
0.574156 0.0176687 0 6.91541e-05
0.574156 0.0219913 3.46945e-18 0.000129887
0.574156 0.0264709 0 0.000263315
0.574156 0.031113 0 0.000449624
0.574156 0.0359238 3.46945e-18 0.000711303
0.574156 0.0409092 -3.46945e-18 0.00105139
0.523729 0.239487 3.70074e-18 0.00633472
0.574156 0.0460756 3.46945e-18 0.00147014
0.574156 0.0514296 0 0.00196557
0.412065 0.403236 0 0.00933482
0.574156 0.0569779 0 0.00253281
0.574156 0.0627277 0 0.00316309
0.574156 0.0686863 0 0.0038425
0.219992 0.534985 0 0.0160225
0.288433 0.501741 0 0.0134609
0.574156 0.0748612 0 0.00445569
0.574156 0.0812603 0 0.00454537
0.467897 0.344091 3.46945e-18 0.00759271
0.574156 0.0878917 0 0.00461712
0.523729 0.251863 0 0.00637489
0.574156 0.0947639 -3.46945e-18 0.0046876
0.574156 0.101886 0 0.00475028
0.574156 0.109266 3.46945e-18 0.0048079
0.574156 0.116914 -3.46945e-18 0.00486182
0.412065 0.416977 0 0.009264
0.350249 0.470415 0 0.0106599
0.523729 0.264688 0 0.00641324
0.0757758 0.582034 0 0.021039
0.574156 0.12484 0 0.00491243
0.574156 0.133054 0 0.00496023
0.412065 0.421557 -2.31296e-18 0.00924039
0.151552 0.569849 0 0.0182052
0.467897 0.360265 0 0.00759988
0.574156 0.141566 -3.46945e-18 0.00500609
0.523729 0.27798 0 0.00645033
0.574156 0.150387 -3.46945e-18 0.00505051
0 0.594219 0 0.0150104
0.574156 0.159528 0 0.00509373
0.574156 0.16418 0 0.00528605
0.288433 0.523639 9.24446e-33 0.0132006
0.574156 0.169001 -3.46945e-18 0.00513594
0.523729 0.291753 0 0.00648594
0.219992 0.55809 -3.46945e-18 0.0156498
0.467897 0.377026 0 0.00759918
0.574156 0.178818 -3.46945e-18 0.0051772
0.412065 0.440544 -2.31296e-18 0.00914718
0.350249 0.491176 3.46945e-18 0.0105411
0.574156 0.188991 0 0.00521755
0.523729 0.306027 0 0.00651882
0.574156 0.199534 0 0.005257
0.574156 0.21046 0 0.00529557
0.0757758 0.606847 0 0.0207996
0.467897 0.394396 3.46945e-18 0.00758999
0.151552 0.594219 0 0.0179332
0.523729 0.320819 0 0.00654771
0.574156 0.221782 -3.46945e-18 0.0053333
0.412065 0.46022 0 0.00906282
0.288433 0.546332 0 0.0129649
0 0.619475 0 0.0148696
0.574156 0.233515 0 0.00537024
0.350249 0.51269 3.46945e-18 0.0104363
0.219992 0.582034 0 0.0153184
0.523729 0.336148 0 0.00657169
0.467897 0.412397 0 0.00757225
0.574156 0.245675 3.46945e-18 0.00540651
0.624584 0 0 0
0.624584 0.00368111 0 1.79143e-06
0.624584 0.00749587 0 1.03007e-05
0.624584 0.0114491 0 2.71143e-05
0.624584 0.0155459 0 5.18071e-05
0.624584 0.0197915 0 9.29869e-05
0.624584 0.0241911 -2.31296e-18 0.000175353
0.624584 0.0287506 0 0.000316591
0.624584 0.0334755 0 0.000518841
0.624584 0.038372 0 0.000789814
0.624584 0.0434463 -2.31296e-18 0.0011343
0.624584 0.0487048 0 0.00155138
0.624584 0.0541543 0 0.00203738
0.624584 0.0598016 0 0.0025852
0.624584 0.0656539 0 0.00318314
0.624584 0.0717187 0 0.00371476
0.624584 0.0780037 0 0.00398019
0.574156 0.258276 0 0.00544225
0.624584 0.0845169 0 0.00406039
0.523729 0.352034 0 0.00659028
0.624584 0.0912666 0 0.00413146
0.624584 0.0982613 0 0.00419615
0.412065 0.48061 0 0.00899018
0.624584 0.10551 0 0.00425402
0.624584 0.113022 -2.31296e-18 0.00430718
0.574156 0.271334 0 0.00547767
0.624584 0.120806 0 0.00435665
0.467897 0.431051 0 0.00754832
0.0757758 0.632561 3.46945e-18 0.0205467
0.624584 0.128874 0 0.004403
0.151552 0.619475 0 0.0176719
0.288433 0.569849 0 0.0127543
0.350249 0.534985 0 0.0103423
0.624584 0.137234 -2.31296e-18 0.00444682
0.523729 0.368496 0 0.00660338
0.574156 0.284866 -3.46945e-18 0.00551281
0.624584 0.145897 0 0.00448868
0.467897 0.440544 0 0.00787448
0.624584 0.154876 0 0.00452895
0.219992 0.606847 0 0.0150253
0 0.645647 0 0.0147124
0.624584 0.16418 0 0.00456793
0.574156 0.29889 0 0.00554714
0.624584 0.173822 0 0.00460578
0.412065 0.501741 0 0.00892817
0.467897 0.450382 0 0.00752249
0.523729 0.385557 0 0.00661081
0.624584 0.183814 0 0.00464265
0.624584 0.194169 0 0.00467862
0.574156 0.313423 3.46945e-18 0.00557987
0.624584 0.2049 0 0.00471376
0.350249 0.55809 3.46945e-18 0.0102579
0.288433 0.594219 0 0.012568
0.624584 0.21602 0 0.00474816
0.523729 0.403236 0 0.00661237
0.574156 0.328484 -3.46945e-18 0.00561016
0.151552 0.645647 0 0.0174223
0.467897 0.470415 0 0.0074991
0.0757758 0.659208 3.46945e-18 0.0202855
0.624584 0.227544 0 0.0047819
0.412065 0.523639 0 0.00887491
0.523729 0.41545 0 0.00660991
0.624584 0.239487 3.70074e-18 0.00481509
0.574156 0.344091 0 0.00563738
0.219992 0.632561 -3.46945e-18 0.0147668
0.67013 0.00184056 3.46945e-18 3.02484e-07
0.67013 0.00558849 -3.46945e-18 3.21433e-06
0.67013 0.0094725 3.46945e-18 1.83739e-05
0.67013 0.0134975 -3.46945e-18 3.81573e-05
0.67013 0.0176687 0 6.45214e-05
0.67013 0.0219913 0 0.000109187
0.67013 0.0264709 3.46945e-18 0.000201626
0.67013 0.031113 0 0.000356679
0.67013 0.0359238 -3.46945e-18 0.000565299
0.67013 0.0409092 0 0.000842468
0.67013 0.0460756 0 0.00118866
0.67013 0.0514296 -3.46945e-18 0.0016015
0.523729 0.421557 0 0.00660869
0.67013 0.0569779 0 0.00207556
0 0.67277 0 0.0145432
0.67013 0.0627277 3.46945e-18 0.00260146
0.624584 0.251863 0 0.00484786
0.67013 0.0686863 0 0.00316458
0.67013 0.0748612 -3.46945e-18 0.00344933
0.67013 0.0812603 0 0.00353387
0.67013 0.0878917 0 0.00360877
0.67013 0.0947639 0 0.00367591
0.574156 0.360265 3.46945e-18 0.00566127
0.67013 0.101886 3.46945e-18 0.00373457
0.523729 0.431051 0 0.00660523
0.624584 0.264688 0 0.00488035
0.467897 0.491176 0 0.00748057
0.67013 0.109266 3.46945e-18 0.00378738
0.350249 0.582034 0 0.010183
0.67013 0.116914 -3.46945e-18 0.00383595
0.67013 0.12484 0 0.00388106
0.67013 0.133054 -3.46945e-18 0.00392327
0.288433 0.619475 0 0.0124047
0.624584 0.27798 0 0.0049126
0.412065 0.546332 0 0.00882909
0.523729 0.440544 0 0.00660177
0.67013 0.141566 0 0.00396303
0.685312 0.0241911 0 0.000152749
0.685312 0.0434463 0 0.000995107
0.67013 0.150387 0 0.00400078
0.574156 0.377026 0 0.00568188
0.67013 0.159528 0 0.0040369
0.624584 0.291753 0 0.00494448
0.151552 0.67277 0 0.0171846
0.0757758 0.686823 0 0.0200199
0.67013 0.169001 -3.46945e-18 0.00407167
0.67013 0.178818 0 0.00410531
0.467897 0.51269 3.46945e-18 0.00746753
0.685312 0.113022 0 0.00374493
0.219992 0.659208 0 0.0145391
0.624584 0.306027 0 0.00497553
0.67013 0.188991 0 0.00413798
0.574156 0.394396 -3.46945e-18 0.00569913
0.523729 0.46022 0 0.00659444
0.685312 0.137234 0 0.0038764
0.67013 0.199534 3.46945e-18 0.00416982
0.350249 0.606847 3.46945e-18 0.0101183
0 0.700877 0 0.0143657
0.624584 0.320819 0 0.00500519
0.67013 0.21046 -3.46945e-18 0.00420096
0.412065 0.569849 -2.31296e-18 0.00879015
0.67013 0.221782 0 0.00423153
0.574156 0.412397 -3.46945e-18 0.00571295
0.288433 0.645647 0 0.0122627
0.624584 0.336148 0 0.00503295
0.67013 0.233515 -3.46945e-18 0.00426165
0.467897 0.534985 0 0.00745969
0.523729 0.48061 0 0.0065892
0.624584 0.344091 0 0.00504569
0.67013 0.245675 0 0.00429146
0.715676 4.54095e-19 -1.54074e-33 4.14244e-23
0.715676 0.00368111 0 1.74244e-06
0.715676 0.00749587 0 1.14163e-05
0.715676 0.0114491 -1.54074e-33 3.0001e-05
0.715676 0.0155459 0 5.26204e-05
0.715676 0.0197915 0 8.42763e-05
0.715676 0.0241911 0 0.000141447
0.715676 0.0287506 0 0.000251976
0.715676 0.0334755 0 0.00041898
0.715676 0.038372 0 0.000639717
0.624584 0.352034 -2.31296e-18 0.00505844
0.715676 0.0434463 0 0.000925512
0.151552 0.700877 0 0.0169586
0.715676 0.0487048 0 0.00127558
0.715676 0.0541543 0 0.00168594
0.574156 0.431051 -3.46945e-18 0.0057237
0.715676 0.0598016 0 0.00214899
0.67013 0.258276 0 0.00432107
0.715676 0.0656539 0 0.00264486
0.715676 0.0717187 0 0.00300219
0.0757758 0.715441 0 0.0197533
0.715676 0.0780037 0 0.00314897
0.715676 0.0845169 0 0.00322809
0.219992 0.686823 0 0.0143381
0.715676 0.0912666 0 0.00329822
0.715676 0.0982613 0 0.00335977
0.67013 0.271334 0 0.00435055
0.350249 0.632561 3.46945e-18 0.0100645
0.412065 0.594219 -2.31296e-18 0.0087583
0.715676 0.10551 0 0.00341432
0.715676 0.113022 0 0.00346381
0.624584 0.368496 0 0.00508157
0.523729 0.501741 0 0.00658751
0.715676 0.120806 0 0.00350935
0.715676 0.128874 0 0.00355163
0.67013 0.284866 0 0.00437986
0.467897 0.55809 3.46945e-18 0.00745639
0.715676 0.137234 0 0.00359119
0.574156 0.450382 0 0.00573255
0 0.730005 0 0.0141832
0.715676 0.145897 0 0.00362847
0.288433 0.67277 0 0.0121402
0.715676 0.154876 0 0.00366387
0.67013 0.29889 3.46945e-18 0.00440885
0.624584 0.385557 0 0.00510229
0.715676 0.16418 0 0.00369769
0.715676 0.173822 0 0.00373021
0.715676 0.183814 0 0.00376162
0.67013 0.313423 0 0.00443722
0.523729 0.523639 0 0.00658988
0.715676 0.194169 0 0.00379208
0.574156 0.470415 3.46945e-18 0.00574119
0.624584 0.403236 0 0.00512057
0.743101 0.0241911 0 0.000134551
0.412065 0.619475 -2.31296e-18 0.008734
0.715676 0.2049 0 0.00382176
0.151552 0.730005 0 0.0167443
0.67013 0.328484 0 0.00446464
0.350249 0.659208 -3.46945e-18 0.0100215
0.467897 0.582034 0 0.00745739
0.715676 0.21602 0 0.00385077
0.219992 0.715441 0 0.0141605
0.0757758 0.745098 3.46945e-18 0.0194883
0.715676 0.227544 0 0.00387925
0.67013 0.344091 0 0.00449078
0.624584 0.421557 0 0.00513651
0.743101 0.128874 0 0.00335996
0.715676 0.239487 3.70074e-18 0.00390732
0.574156 0.491176 3.46945e-18 0.0057513
0.523729 0.546332 0 0.00659622
0.756814 0.00184056 0 2.11581e-07
0.756814 0.00558849 0 3.24327e-06
0.756814 0.0094725 0 2.0764e-05
0.756814 0.0134975 3.46945e-18 4.2514e-05
0.756814 0.0155459 0 5.42384e-05
0.756814 0.0176687 -3.46945e-18 6.51453e-05
0.756814 0.0219913 -3.46945e-18 9.85447e-05
0.756814 0.0264709 3.46945e-18 0.00015801
0.756814 0.031113 -3.46945e-18 0.000294665
0.756814 0.0359238 -3.46945e-18 0.000464026
0.288433 0.700877 0 0.0120352
0.756814 0.0409092 0 0.000694327
0.756814 0.0460756 -3.46945e-18 0.000986766
0.756814 0.0514296 -3.46945e-18 0.00133891
0.715676 0.251863 0 0.00393508
0.756814 0.0569779 0 0.00174503
0.756814 0.0627277 3.46945e-18 0.00219531
0.756814 0.0686863 0 0.00264495
0 0.76019 0 0.0139987
0.756814 0.0748612 0 0.00278427
0.67013 0.360265 0 0.00451545
0.756814 0.0812603 0 0.00286703
0.756814 0.0878917 0 0.00294135
0.756814 0.0947639 -3.46945e-18 0.00300561
0.715676 0.264688 0 0.00396261
0.756814 0.101886 -3.46945e-18 0.00306188
0.624584 0.440544 0 0.00515062
0.756814 0.109266 -3.46945e-18 0.00311246
0.756814 0.116914 -3.46945e-18 0.00315859
0.412065 0.645647 0 0.00871768
0.467897 0.606847 0 0.00746296
0.756814 0.120806 0 0.00322257
0.756814 0.12484 3.46945e-18 0.00320107
0.715676 0.27798 -1.54074e-33 0.00398994
0.756814 0.133054 3.46945e-18 0.00324053
0.67013 0.377026 3.46945e-18 0.00453858
0.756814 0.137234 0 0.00330291
0.574156 0.51269 0 0.00576401
0.756814 0.141566 0 0.00327748
0.685312 0.352034 0 0.00443209
0.743101 0.2049 0 0.00362454
0.350249 0.686823 0 0.00998933
0.756814 0.150387 0 0.0033123
0.756814 0.154876 0 0.00337383
0.715676 0.291753 -6.16298e-33 0.004017
0.756814 0.159528 0 0.00334535
0.523729 0.569849 0 0.00660633
0.72743 0.264688 0 0.00387597
0.756814 0.16418 0 0.00340665
0.151552 0.76019 3.70074e-18 0.0165418
0.756814 0.169001 3.46945e-18 0.00337689
0.624584 0.46022 0 0.00516388
0.219992 0.745098 -3.46945e-18 0.0140039
0.67013 0.394396 0 0.00456017
0.756814 0.178818 0 0.00340717
0.715676 0.306027 0 0.00404364
0.0757758 0.775831 3.46945e-18 0.0192276
0.756814 0.188991 0 0.00343639
0.756814 0.199534 -3.46945e-18 0.00346471
0.715676 0.320819 0 0.00406967
0.574156 0.534985 0 0.00577981
0.288433 0.730005 0 0.0119463
0.756814 0.21046 0 0.00349228
0.467897 0.632561 0 0.00747357
0.67013 0.412397 0 0.0045802
0.624584 0.48061 0 0.00517754
0.756814 0.221782 3.46945e-18 0.00351923
0.412065 0.67277 -2.31296e-18 0.00870955
0.715676 0.336148 0 0.00409482
0 0.791472 0 0.0138148
0.756814 0.233515 0 0.00354569
0.523729 0.594219 0 0.00662024
0.624584 0.487654 0 0.0051826
0.756814 0.245675 0 0.00357175
0.350249 0.715441 3.46945e-18 0.00996755
0.67013 0.431051 -3.46945e-18 0.00459881
0.715676 0.352034 0 0.00411892
0.797951 9.0819e-19 0 5.77471e-23
0.797951 0.00368111 0 1.72401e-06
0.797951 0.00749587 0 1.26897e-05
0.797951 0.0114491 0 3.35942e-05
0.797951 0.0141803 0 4.84357e-05
0.797951 0.0155459 0 5.58564e-05
0.797951 0.0169611 0 6.42279e-05
0.797951 0.0197915 0 8.0971e-05
0.797951 0.0219913 0 0.000100865
0.797951 0.0241911 0 0.00012076
0.797951 0.0264709 0 0.000162693
0.797951 0.0287506 0 0.000204625
0.797951 0.0334755 0 0.000344854
0.797951 0.038372 0 0.000532367
0.797951 0.0434463 0 0.000773413
0.797951 0.0487048 0 0.00107269
0.756814 0.258276 0 0.0035975
0.797951 0.0541543 0 0.0014262
0.797951 0.0598016 0 0.00182588
0.797951 0.0656539 0 0.0022255
0.574156 0.55809 0 0.00579877
0.624584 0.501741 -2.05433e-33 0.00519273
0.797951 0.0717187 0 0.00247704
0.797951 0.0780037 0 0.00258101
0.797951 0.0845169 0 0.00266014
0.797951 0.0912666 0 0.0027294
0.797951 0.0982613 0 0.00278965
0.756814 0.271334 -3.46945e-18 0.00362298
0.797951 0.10551 0 0.00284314
0.715676 0.368496 0 0.00414184
0.151552 0.791472 0 0.0163514
0.797951 0.113022 0 0.00289152
0.219992 0.775831 3.46945e-18 0.0138662
0.797951 0.118212 0 0.00292103
0.770526 0.239487 0 0.0035072
0.797951 0.120806 9.25186e-19 0.00293578
0.67013 0.450382 3.46945e-18 0.00461641
0.797951 0.128874 -2.31296e-18 0.00297663
0.467897 0.659208 0 0.00748973
0.756814 0.284866 0 0.0036482
0.743101 0.320819 0 0.0038629
0.797951 0.137234 0 0.00301463
0.797951 0.141566 0 0.00303243
0.797951 0.145897 0 0.00305023
0.523729 0.619475 0 0.00663826
0.0757758 0.80768 0 0.0189737
0.797951 0.150387 0 0.00306701
0.797951 0.154876 9.25186e-19 0.00308379
0.715676 0.385557 0 0.00416355
0.412065 0.700877 -2.31296e-18 0.00870967
0.288433 0.76019 0 0.0118722
0.756814 0.29889 -3.46945e-18 0.00367311
0.797951 0.16418 0 0.00311561
0.624584 0.523639 -1.54074e-33 0.0052102
0.797951 0.167394 0 0.00312573
0.797951 0.173822 0 0.00314595
0.574156 0.582034 0 0.00582087
0.67013 0.470415 0 0.00463371
0.797951 0.183814 0 0.00317502
0.756814 0.313423 0 0.00369761
0.797951 0.194169 0 0.00320302
0.715676 0.403236 -6.16298e-33 0.00418405
0.151552 0.80768 0 0.0162624
0.797951 0.197746 0 0.00321204
0.350249 0.745098 -3.46945e-18 0.00995594
0.797951 0.2049 0 0.00323009
0 0.823889 0 0.013634
0.756814 0.328484 0 0.00372157
0.797951 0.21046 0 0.00324324
0.797951 0.21602 0 0.00325638
0.797951 0.223703 0 0.00327348
0.797951 0.227544 0 0.00328203
0.624584 0.546332 0 0.00523032
0.715676 0.421557 0 0.0042034
0.67013 0.491176 3.46945e-18 0.00465166
0.797951 0.231525 0 0.0032904
0.467897 0.686823 0 0.00751181
0.523729 0.645647 0 0.0066608
0.756814 0.344091 -3.46945e-18 0.00374481
0.822721 0.120806 0 0.00279839
0.797951 0.239487 0 0.00330714
0.822721 0.137234 0 0.00287719
0.835107 0.00184056 -3.46945e-18 1.43541e-07
0.835107 0.00558849 0 3.29814e-06
0.835107 0.0094725 3.46945e-18 2.33834e-05
0.835107 0.0134975 0 4.75148e-05
0.835107 0.0176687 0 6.80437e-05
0.835107 0.0219913 3.46945e-18 9.22419e-05
0.574156 0.606847 3.46945e-18 0.00584625
0.835107 0.0241911 0 0.00011548
0.835107 0.0264709 3.46945e-18 0.000135021
0.822721 0.145897 0 0.00291269
0.835107 0.031113 0 0.000233051
0.835107 0.0359238 0 0.00039124
0.835107 0.0409092 -3.46945e-18 0.000584716
0.835107 0.0460756 0 0.000834785
0.835107 0.0514296 -3.46945e-18 0.00113961
0.797951 0.251863 0 0.0033318
0.835107 0.0541543 0 0.00132342
0.835107 0.0569779 -3.46945e-18 0.0014932
0.219992 0.80768 -3.46945e-18 0.0137458
0.822721 0.154876 0 0.00294609
0.835107 0.0627277 -3.46945e-18 0.00188491
0.151552 0.823889 0 0.0161734
0.797951 0.255069 0 0.00333787
0.835107 0.0686863 3.46945e-18 0.00219693
0.756814 0.360265 3.46945e-18 0.00376723
0.412065 0.730005 0 0.00871805
0.835107 0.0748612 0 0.00230648
0.822721 0.16418 0 0.00297769