# nutMean  POINT_DATA 63140
# x  y  z  nutMean
0 0.1 0 0.00522012
0 0.1 -0.0179898 0.00522007
0 0.1 0.0179898 0.00522028
0.0363518 0.1 -0.0179898 0.0118442
0.0363518 0.1 0.0179898 0.0118366
0 0.1 -0.0570102 0.00523345
0 0.1 0.0570102 0.00523404
0.0363518 0.1 0.0570102 0.0118504
0.0363518 0.1 -0.0570102 0.0118576
0 0.1 -0.075 0.00524547
0 0.1 0.075 0.0052462
0.0757758 0.1 -0.0375 0.0188382
0.0757758 0.1 0.0375 0.0188229
0 0.1 -0.0929898 0.00525784
0 0.1 0.0929898 0.00525871
0.0363518 0.1 -0.0929898 0.0113753
0.0363518 0.1 0.0929898 0.0113585
0 0.1 -0.13201 0.00528634
0 0.1 0.13201 0.00528732
0.0757758 0.1 -0.1125 0.0178197
0.0757758 0.1 0.1125 0.0177842
0.0363518 0.1 -0.13201 0.0114038
0.0363518 0.1 0.13201 0.0113871
0 0.1 -0.15 0.00529992
0 0.1 0.15 0.00530085
0.150379 0.1 -4.33681e-19 0.0181829
0 0.1 -0.16799 0.00531465
0 0.1 0.16799 0.00531555
0.150379 0.1 -0.075 0.0171938
0.150379 0.1 0.075 0.0171611
0.0363518 0.1 -0.16799 0.010544
0.0363518 0.1 0.16799 0.0105268
0.0757758 0.1 -0.1875 0.0160671
0.0757758 0.1 0.1875 0.0160312
0 0.1 -0.20701 0.00533937
0 0.1 0.20701 0.00534
0.0363518 0.1 -0.20701 0.0105688
0.0363518 0.1 0.20701 0.0105512
0.150379 0.1 -0.15 0.0151866
0.150379 0.1 0.15 0.0151437
0.219992 0.1 -0.0375 0.0175628
0.219992 0.1 0.0375 0.0175596
0 0.1 -0.225 0.0053488
0 0.1 0.225 0.00534922
0 0.1 -0.24299 0.00535991
0 0.1 0.24299 0.00536013
0.0363518 0.1 0.24299 0.00989645
0.0363518 0.1 -0.24299 0.00990714
0.219992 0.1 -0.1125 0.0146305
0.219992 0.1 0.1125 0.014554
0.150379 0.1 0.225 0.0137735
0.150379 0.1 -0.225 0.0137937
0.0757758 0.1 0.2625 0.0147355
0.0757758 0.1 -0.2625 0.0147569
0 0.1 -0.28201 0.00536895
0 0.1 0.28201 0.00536877
0.0363518 0.1 -0.28201 0.00991618
0.0363518 0.1 0.28201 0.0099051
0.287374 0.1 0 0.0136591
0.219992 0.1 -0.1875 0.0123473
0.219992 0.1 0.1875 0.0123242
0.287374 0.1 -0.075 0.012889
0.287374 0.1 0.075 0.0128671
0 0.1 -0.3 0.00536828
0 0.1 0.3 0.00536794
0 0.1 -0.31799 0.00536876
0 0.1 0.31799 0.00536824
0.0363518 0.1 -0.31799 0.00960298
0.0363518 0.1 0.31799 0.00959562
0.287374 0.1 -0.15 0.0114795
0.287374 0.1 0.15 0.0114514
0.150379 0.1 -0.3 0.0132055
0.150379 0.1 0.3 0.0131935
0.219992 0.1 -0.2625 0.0121253
0.219992 0.1 0.2625 0.0121248
0.0757758 0.1 -0.3375 0.0141284
0.0757758 0.1 0.3375 0.0141138
0.350249 0.1 -0.0375 0.00991767
0.350249 0.1 0.0375 0.00991548
0 0.1 0.35701 0.00536279
0 0.1 -0.35701 0.00536357
0.0363518 0.1 -0.35701 0.00959779
0.0363518 0.1 0.35701 0.00959018
0.287374 0.1 -0.225 0.010775
0.287374 0.1 0.225 0.0107663
0.350249 0.1 0.1125 0.00968604
0.350249 0.1 -0.1125 0.00969344
0 0.1 -0.375 0.00535942
0 0.1 0.375 0.00535855
0 0.1 -0.39299 0.00535589
0 0.1 0.39299 0.00535495
0.0363518 0.1 -0.39299 0.00930556
0.0363518 0.1 0.39299 0.0092975
0.350249 0.1 -0.1875 0.00939346
0.350249 0.1 0.1875 0.0093862
0.219992 0.1 -0.3375 0.0119102
0.219992 0.1 0.3375 0.0118983
0.150379 0.1 -0.375 0.0129431
0.150379 0.1 0.375 0.0129345
0.411108 0.1 -2.21177e-17 0.00817089
0.287374 0.1 -0.3 0.0106824
0.287374 0.1 0.3 0.0106776
0.411108 0.1 0.075 0.00811324
0.411108 0.1 -0.075 0.00811605
0.0757758 0.1 -0.4125 0.0135323
0.0757758 0.1 0.4125 0.0135168
0 0.1 -0.43201 0.00533993
0 0.1 0.43201 0.00533875
0.0363518 0.1 -0.43201 0.0092896
0.0363518 0.1 0.43201 0.0092813
0.411108 0.1 -0.15 0.00798639
0.411108 0.1 0.15 0.00798199
0.350249 0.1 -0.2625 0.00935244
0.350249 0.1 0.2625 0.00934866
0 0.1 -0.45 0.00532969
0 0.1 0.45 0.00532837
0.219992 0.1 -0.4125 0.0122694
0.219992 0.1 0.4125 0.0122763
0 0.1 -0.46799 0.00531974
0 0.1 0.46799 0.00531828
0.411108 0.1 -0.225 0.00791196
0.411108 0.1 0.225 0.00790836
0.467897 0.1 0.0375 0.00649409
0.467897 0.1 -0.0375 0.00649456
0.0363518 0.1 -0.46799 0.00900187
0.0363518 0.1 0.46799 0.00899369
0.287374 0.1 -0.375 0.0107845
0.287374 0.1 0.375 0.0107817
0.150379 0.1 -0.45 0.0130542
0.150379 0.1 0.45 0.0130481
0.467897 0.1 -0.1125 0.00649178
0.467897 0.1 0.1125 0.00649044
0.350249 0.1 0.3375 0.00945153
0.350249 0.1 -0.3375 0.0094546
0.0757758 0.1 -0.4875 0.0129476
0.0757758 0.1 0.4875 0.0129323
0.467897 0.1 -0.1875 0.00648894
0.467897 0.1 0.1875 0.00648711
0 0.1 -0.50701 0.00529504
0 0.1 0.50701 0.00529342
0.0363518 0.1 -0.50701 0.00897716
0.0363518 0.1 0.50701 0.00896883
0.411108 0.1 -0.3 0.00796107
0.411108 0.1 0.3 0.00795868
0.522864 0.1 -2.08167e-17 0.00559696
0 0.1 -0.525 0.00528283
0 0.1 0.525 0.0052812
0.522864 0.1 -0.075 0.00560192
0.522864 0.1 0.075 0.00560138
0.287374 0.1 -0.45 0.0112584
0.287374 0.1 0.45 0.0112578
0.219992 0.1 -0.4875 0.0134768
0.219992 0.1 0.4875 0.0134754
0.467897 0.1 0.2625 0.00652654
0.467897 0.1 -0.2625 0.00652819
0.350249 0.1 -0.4125 0.00961644
0.350249 0.1 0.4125 0.00961357
0 0.1 -0.54299 0.00527035
0 0.1 0.54299 0.00526871
0.522864 0.1 0.15 0.00561569
0.522864 0.1 -0.15 0.00561663
0.0363518 0.1 -0.54299 0.00872424
0.0363518 0.1 0.54299 0.00871638
0.150379 0.1 -0.525 0.0131257
0.150379 0.1 0.525 0.0131135
0.411108 0.1 -0.375 0.0080884
0.411108 0.1 0.375 0.00808639
0.0757758 0.1 -0.5625 0.0124289
0.0757758 0.1 0.5625 0.0124144
0.522864 0.1 -0.225 0.00565271
0.522864 0.1 0.225 0.00565167
0.574156 0.1 -0.0375 0.00473374
0.574156 0.1 0.0375 0.00473362
0.467897 0.1 -0.3375 0.00662446
0.467897 0.1 0.3375 0.00662332
0 0.1 -0.58201 0.00524498
0 0.1 0.58201 0.00524332
0.0363518 0.1 -0.58201 0.00869886
0.0363518 0.1 0.58201 0.00869099
0.574156 0.1 -0.1125 0.00475527
0.574156 0.1 0.1125 0.00475501
0.287374 0.1 -0.525 0.011675
0.287374 0.1 0.525 0.0116675
0 0.1 -0.6 0.00523376
0 0.1 0.6 0.00523209
0.350249 0.1 -0.4875 0.00981689
0.350249 0.1 0.4875 0.00981224
0.522864 0.1 0.3 0.00572527
0.522864 0.1 -0.3 0.00572613
0.219992 0.1 -0.5625 0.0136069
0.219992 0.1 0.5625 0.0135891
0.574156 0.1 -0.1875 0.00479676
0.574156 0.1 0.1875 0.00479639
0.411108 0.1 -0.45 0.00826533
0.411108 0.1 0.45 0.00826294
0 0.1 -0.61799 0.00522199
0 0.1 0.61799 0.00522032
0.150379 0.1 -0.6 0.0128557
0.150379 0.1 0.6 0.01284
0.0363518 0.1 -0.61799 0.00848082
0.0363518 0.1 0.61799 0.00847351
0.467897 0.1 0.4125 0.00677453
0.467897 0.1 -0.4125 0.00677551
0.623803 0.1 1.04083e-17 0.00421731
0.623803 0.1 -0.075 0.00422858
0.623803 0.1 0.075 0.00422847
0.574156 0.1 -0.2625 0.00486183
0.574156 0.1 0.2625 0.00486148
0.623803 0.1 -0.15 0.00426128
0.623803 0.1 0.15 0.00426111
0.0757758 0.1 0.6375 0.0119663
0.0757758 0.1 -0.6375 0.0119796
0.522864 0.1 -0.375 0.00584316
0.522864 0.1 0.375 0.0058425
0 0.1 0.65701 0.00519727
0 0.1 -0.65701 0.00519896
0.0363518 0.1 0.65701 0.00845047
0.0363518 0.1 -0.65701 0.00845779
0.350249 0.1 -0.5625 0.00996668
0.350249 0.1 0.5625 0.00996036
0.623803 0.1 -0.225 0.00431601
0.623803 0.1 0.225 0.00431581
0.287374 0.1 -0.6 0.0117055
0.287374 0.1 0.6 0.0116935
0.574156 0.1 -0.3375 0.00495472
0.574156 0.1 0.3375 0.00495438
0.411108 0.1 -0.525 0.00845676
0.411108 0.1 0.525 0.00845329
0.67013 0.1 -0.0375 0.00371906
0.67013 0.1 0.0375 0.00371901
0.219992 0.1 0.6375 0.0133281
0.219992 0.1 -0.6375 0.0133452
0 0.1 -0.675 0.00518891
0 0.1 0.675 0.00518722
0.467897 0.1 -0.4875 0.00697216
0.467897 0.1 0.4875 0.00697105
0.67013 0.1 -0.1125 0.00374242
0.67013 0.1 0.1125 0.00374241
0.522864 0.1 -0.45 0.00600298
0.522864 0.1 0.45 0.00600242
0.150379 0.1 0.675 0.0125054
0.150379 0.1 -0.675 0.0125204
0.623803 0.1 0.3 0.00439169
0.623803 0.1 -0.3 0.00439187
0 0.1 -0.69299 0.00517824
0 0.1 0.69299 0.00517654
0.0363518 0.1 0.69299 0.00826817
0.0363518 0.1 -0.69299 0.00827487
0.67013 0.1 0.1875 0.00378668
0.67013 0.1 -0.1875 0.00378675
0.574156 0.1 -0.4125 0.0050835
0.574156 0.1 0.4125 0.00508329
0.714971 0.1 -1.82146e-17 0.00337755
0.0757758 0.1 0.7125 0.0115905
0.0757758 0.1 -0.7125 0.0116025
0.714971 0.1 -0.075 0.00338873
0.714971 0.1 0.075 0.00338869
0.67013 0.1 -0.2625 0.00385465
0.67013 0.1 0.2625 0.00385464
0.411108 0.1 -0.6 0.00862312
0.411108 0.1 0.6 0.00861851
0.350249 0.1 -0.6375 0.0100583
0.350249 0.1 0.6375 0.010051
0.623803 0.1 -0.375 0.0044966
0.623803 0.1 0.375 0.00449648
0.714971 0.1 0.15 0.00342117
0.714971 0.1 -0.15 0.00342121
0.467897 0.1 -0.5625 0.00719128
0.467897 0.1 0.5625 0.00718932
0 0.1 -0.73201 0.0051581
0 0.1 0.73201 0.00515643
0.0363518 0.1 -0.73201 0.00825472
0.0363518 0.1 0.73201 0.00824807
0.287374 0.1 0.675 0.011608
0.287374 0.1 -0.675 0.0116205
0.522864 0.1 -0.525 0.00619681
0.522864 0.1 0.525 0.00619609
0.219992 0.1 0.7125 0.0130673
0.219992 0.1 -0.7125 0.0130847
0.714971 0.1 0.225 0.00347465
0.714971 0.1 -0.225 0.00347469
0 0.1 0.75 0.00514803
0 0.1 -0.75 0.00514966
0.67013 0.1 -0.3375 0.00393248
0.67013 0.1 0.3375 0.00393246
0.574156 0.1 0.4875 0.00524791
0.574156 0.1 -0.4875 0.00524786
0.756814 0.1 -0.0375 0.00304701
0.756814 0.1 0.0375 0.00304695
0.150379 0.1 0.746002 0.0122141
0.150379 0.1 -0.75 0.0122295
0.756814 0.1 -0.1125 0.0030683
0.756814 0.1 0.1125 0.00306826
0 0.1 0.76799 0.00513898
0 0.1 -0.76799 0.00514057
0.0363518 0.1 0.76799 0.00810017
0.0363518 0.1 -0.76799 0.00810615
0.623803 0.1 -0.45 0.00463557
0.623803 0.1 0.45 0.00463554
0.714971 0.1 0.3 0.00354682
0.714971 0.1 -0.3 0.00354685
0.756814 0.1 -0.1875 0.00310933
0.756814 0.1 0.1875 0.00310928
0.67013 0.1 -0.4125 0.00405239
0.67013 0.1 0.4125 0.00405246
0.411108 0.1 -0.675 0.00876117
0.411108 0.1 0.675 0.00875563
0.467897 0.1 -0.6375 0.00739304
0.467897 0.1 0.6375 0.00739001
0.0757758 0.1 -0.7875 0.0112961
0.0757758 0.1 0.7875 0.0112855
0.350249 0.1 0.7125 0.0101239
0.350249 0.1 -0.7125 0.0101326
0.522864 0.1 -0.6 0.00640723
0.522864 0.1 0.6 0.00640612
0.797314 0.1 -2.86229e-17 0.00280571
0.287374 0.1 0.746002 0.011558
0.797314 0.1 -0.075 0.00281566
0.797314 0.1 0.075 0.00281559
0.756814 0.1 0.2625 0.00317014
0.756814 0.1 -0.2625 0.00317017
0.287374 0.1 -0.75 0.0115419
0.574156 0.1 -0.5625 0.00544457
0.574156 0.1 0.5625 0.00544468
0 0.1 0.80701 0.00512257
0 0.1 -0.80701 0.00512411
0.714971 0.1 -0.375 0.00364109
0.714971 0.1 0.375 0.00364109
0.0363518 0.1 -0.80701 0.0080897
0.0363518 0.1 0.80701 0.00808377
0.797314 0.1 -0.15 0.00284481
0.797314 0.1 0.15 0.00284472
0.623803 0.1 -0.525 0.00480403
0.623803 0.1 0.525 0.00480401
0.219992 0.1 0.7875 0.0128443
0.219992 0.1 -0.7875 0.0128594
0.149792 0.1 0.80701 0.0120259
0 0.1 0.825 0.00511608
0 0.1 -0.825 0.00511762
0.797314 0.1 -0.225 0.0028924
0.797314 0.1 0.225 0.0028923
0.756814 0.1 -0.3375 0.00325227
0.756814 0.1 0.3375 0.00325223
0.67013 0.1 -0.4875 0.00419587
0.67013 0.1 0.4875 0.00419584
0.835107 0.1 -0.0375 0.0025714
0.835107 0.1 0.0375 0.00257136
0.150379 0.1 -0.825 0.0119875
0.835107 0.1 -0.1125 0.00258985
0.835107 0.1 0.1125 0.00258972
0 0.1 0.84299 0.00510891
0 0.1 -0.84299 0.00511044
0.0363518 0.1 0.84299 0.00796742
0.0363518 0.1 -0.84299 0.00797276
0.714971 0.1 -0.45 0.00376251
0.714971 0.1 0.45 0.00376253
0.411108 0.1 0.746002 0.00890632
0.797314 0.1 -0.3 0.00295964
0.797314 0.1 0.3 0.00295952
0.467897 0.1 -0.7125 0.0075728
0.467897 0.1 0.7125 0.00756938
0.522864 0.1 0.675 0.00662002
0.522864 0.1 -0.675 0.00662155
0.411108 0.1 -0.75 0.00889525
0.835107 0.1 -0.1875 0.0026258
0.835107 0.1 0.1875 0.00262566
0.286844 0.1 0.80701 0.011489
0.574156 0.1 0.6375 0.0056688
0.574156 0.1 -0.6375 0.0056685
0.350249 0.1 -0.7875 0.0102147
0.350249 0.1 0.7875 0.0102071
0.756814 0.1 0.4125 0.00334968
0.756814 0.1 -0.4125 0.00334971
0.623803 0.1 -0.6 0.00500084
0.623803 0.1 0.6 0.00500084
0.0757758 0.1 0.8625 0.0110454
0.0757758 0.1 -0.8625 0.0110548
0.871687 0.1 -1.73472e-17 0.00239197
0.287374 0.1 -0.825 0.0114863
0.871687 0.1 -0.075 0.00240057
0.871687 0.1 0.075 0.00240049
0.67013 0.1 -0.5625 0.00436606
0.67013 0.1 0.5625 0.00436589
0.835107 0.1 0.2625 0.00267835
0.835107 0.1 -0.2625 0.00267851
0.797314 0.1 -0.375 0.00304303
0.797314 0.1 0.375 0.00304293
0 0.1 0.88201 0.00509662
0 0.1 -0.88201 0.00509806
0.0363518 0.1 0.88201 0.00795513
0.0363518 0.1 -0.88201 0.00796038
0.871687 0.1 0.15 0.00242577
0.871687 0.1 -0.15 0.00242591
0.714971 0.1 -0.525 0.00390986
0.714971 0.1 0.525 0.00390982
0.219992 0.1 0.8625 0.012645
0.219992 0.1 -0.8625 0.0126606
0 0.1 0.9 0.0050922
0 0.1 -0.9 0.00509356
0.756814 0.1 -0.4875 0.00347527
0.756814 0.1 0.4875 0.00347533
0.871687 0.1 -0.225 0.00246728
0.871687 0.1 0.225 0.0024671
0.835107 0.1 -0.3375 0.00275207
0.835107 0.1 0.3375 0.00275183
0.410629 0.1 0.80701 0.0090104
0.905821 0.1 -0.0375 0.00221712
0.905821 0.1 0.0375 0.0022171
0.522864 0.1 0.746002 0.00685031
0.150379 0.1 0.9 0.0117792
0.905821 0.1 0.1125 0.00223289
0.905821 0.1 -0.1125 0.00223301
0.522864 0.1 -0.75 0.00684742
0.574156 0.1 -0.7125 0.00591763
0.574156 0.1 0.7125 0.00591747
0.797314 0.1 -0.45 0.00314687
0.797314 0.1 0.45 0.00314681
0.467897 0.1 0.7875 0.0077664
0.467897 0.1 -0.7875 0.00776716
0.150379 0.1 -0.903998 0.0118254
0 0.1 0.91799 0.00508706
0 0.1 -0.91799 0.00508834
0.0363518 0.1 0.91799 0.00786714
0.0363518 0.1 -0.91799 0.00787189
0.623803 0.1 -0.675 0.00522424
0.623803 0.1 0.675 0.0052242
0.411108 0.1 -0.825 0.00905381
0.871687 0.1 -0.3 0.0025263
0.871687 0.1 0.3 0.00252607
0.67013 0.1 0.6375 0.00456327
0.67013 0.1 -0.6375 0.00456349
0.905821 0.1 -0.1875 0.00226418
0.905821 0.1 0.1875 0.00226403
0.350249 0.1 0.8625 0.0103097
0.350249 0.1 -0.8625 0.0103202
0.835107 0.1 -0.4125 0.00283293
0.835107 0.1 0.4125 0.00283284
0.714971 0.1 -0.6 0.00408319
0.714971 0.1 0.6 0.0040831
0.93886 0.1 -1.25767e-17 0.0021194
0.0757758 0.1 0.9375 0.0108637
0.0757758 0.1 -0.9375 0.0108721
0.93886 0.1 -0.075 0.00212688
0.93886 0.1 0.075 0.00212685
0.756814 0.1 -0.5625 0.00362607
0.756814 0.1 0.5625 0.00362607
0.905821 0.1 -0.2625 0.00230999
0.905821 0.1 0.2625 0.00230974
0.287374 0.1 0.9 0.0114437
0.287374 0.1 -0.903998 0.0114337
0.871687 0.1 -0.375 0.00259866
0.871687 0.1 0.375 0.00259831
0.93886 0.1 -0.15 0.00214901
0.93886 0.1 0.15 0.00214892
0.797314 0.1 -0.525 0.00327672
0.797314 0.1 0.525 0.00327665
0 0.1 0.95701 0.00507901
0 0.1 -0.95701 0.00508023
0.0363518 0.1 0.95701 0.0078591
0.0363518 0.1 -0.95701 0.00786378
0.522432 0.1 0.80701 0.00703764
0.219992 0.1 0.9375 0.0124823
0.219992 0.1 -0.9375 0.0124961
0.93886 0.1 -0.225 0.00218518
0.93886 0.1 0.225 0.00218504
0.905821 0.1 -0.3375 0.00237421
0.905821 0.1 0.3375 0.00237397
0.835107 0.1 0.4875 0.00294471
0.835107 0.1 -0.4875 0.00294489
0.96969 0.1 -0.0375 0.00202371
0.96969 0.1 0.0375 0.00202373
0.61613 0.1 0.75 0.0054741
0.574156 0.1 0.7875 0.00619328
0.574156 0.1 -0.7875 0.00619377
0 0.1 0.975 0.00507664
0 0.1 -0.975 0.00507787
0.623803 0.1 -0.75 0.00547428
0.96969 0.1 -0.1125 0.00203777
0.96969 0.1 0.1125 0.00203775
0.522864 0.1 -0.825 0.00710192
0.67013 0.1 -0.7125 0.00478752
0.67013 0.1 0.7125 0.00478746
0.871687 0.1 -0.45 0.00268977
0.871687 0.1 0.45 0.00268939
0.467897 0.1 -0.8625 0.00801322
0.467897 0.1 0.8625 0.00801121
0.714971 0.1 -0.675 0.00428272
0.714971 0.1 0.675 0.00428267
0.93886 0.1 -0.3 0.00223632
0.93886 0.1 0.3 0.00223615
0.150379 0.1 0.975 0.0116317
0.150379 0.1 -0.975 0.0116421
0.96969 0.1 -0.1875 0.00206521
0.96969 0.1 0.1875 0.00206515
0.411108 0.1 0.9 0.00924005
0.756814 0.1 -0.6375 0.00380167
0.756814 0.1 0.6375 0.0038017
0.990306 0.1 0 0.00194713
0 0.1 0.99299 0.0050735
0 0.1 -0.99299 0.00507475
0.411108 0.1 -0.903998 0.0092015
0.990306 0.1 -0.075 0.00195377
0.990306 0.1 0.075 0.00195376
0.0363518 0.1 0.99299 0.00779677
0.0363518 0.1 -0.99299 0.0078008
0.905821 0.1 -0.4125 0.00244525
0.905821 0.1 0.4125 0.00244446
0.797314 0.1 -0.6 0.00342947
0.797314 0.1 0.6 0.0034294
0.350249 0.1 0.9375 0.0104338
0.350249 0.1 -0.9375 0.0104378
0.990306 0.1 -0.15 0.00197362
0.990306 0.1 0.15 0.00197358
0.96969 0.1 -0.2625 0.00210559
0.96969 0.1 0.2625 0.00210548
0.835107 0.1 -0.5625 0.00307645
0.835107 0.1 0.5625 0.00307633
0.93886 0.1 -0.375 0.00230094
0.93886 0.1 0.375 0.00230059
0.0757758 0.1 1.0125 0.0107348
0.0757758 0.1 -1.0125 0.0107418
0.990306 0.1 -0.225 0.00200639
0.990306 0.1 0.225 0.0020063
0.287374 0.1 -0.975 0.0114496
0.287374 0.1 0.975 0.0114406
0.871687 0.1 -0.525 0.00280559
0.871687 0.1 0.525 0.00280533
1.02149 0.1 -0.0369628 0.00180275
1.02149 0.1 0.0369628 0.00180272
0.96969 0.1 0.3375 0.00215985
0.96969 0.1 -0.3375 0.00215994
1.02149 0.1 -0.110888 0.00181426
1.02149 0.1 0.110888 0.00181414
0.905821 0.1 -0.4875 0.00254614
0.905821 0.1 0.4875 0.0025457
0.623803 0.1 0.819003 0.00563757
0 0.1 1.03201 0.00506962
0 0.1 -1.03201 0.00507085
0.0363518 0.1 1.03201 0.00779289
0.0363518 0.1 -1.03201 0.0077969
0.67013 0.1 -0.7875 0.00503925
0.67013 0.1 0.7875 0.0050392
0.623803 0.1 -0.825 0.00575108
0.990306 0.1 0.3 0.00205223
0.990306 0.1 -0.3 0.00205234
0.219992 0.1 1.0125 0.0123652
0.219992 0.1 -1.0125 0.0123775
0.574156 0.1 0.8625 0.0064919
0.574156 0.1 -0.8625 0.0064926
0.714971 0.1 -0.75 0.00450895
0.714971 0.1 0.75 0.00450886
1.02149 0.1 -0.184814 0.00183779
1.02149 0.1 0.184814 0.00183759
0.756814 0.1 -0.7125 0.00400348
0.756814 0.1 0.7125 0.00400353
0.522864 0.1 0.9 0.00738144
0.93886 0.1 -0.45 0.00238378
0.93886 0.1 0.45 0.00238351
1.04168 0.1 0 0.00173442
1.04168 0.1 -0.0729162 0.00173942
1.04168 0.1 0.0729162 0.00173938
0.522864 0.1 -0.903998 0.00733773
0.797314 0.1 -0.675 0.00360695
0.797314 0.1 0.675 0.00360693
0.467897 0.1 0.9375 0.00829908
0.467897 0.1 -0.9375 0.00830197
0 0.1 1.05 0.00506926
0 0.1 -1.05 0.00507045
0.835107 0.1 -0.6375 0.00323014
0.835107 0.1 0.6375 0.00322997
1.04168 0.1 -0.145832 0.0017546
1.04168 0.1 0.145832 0.00175452
1.02149 0.1 -0.25874 0.00187324
1.02149 0.1 0.25874 0.00187296
0.96969 0.1 -0.4125 0.00222891
0.96969 0.1 0.4125 0.00222863
0.411108 0.1 0.975 0.00945446
0.411108 0.1 -0.975 0.00945839
0.871687 0.1 -0.6 0.00294241
0.871687 0.1 0.6 0.00294222
1.0579 0.1 -0.0360525 0.00168515
1.0579 0.1 0.0360525 0.00168504
0.990306 0.1 -0.375 0.00211274
0.990306 0.1 0.375 0.0021126
0.150379 0.1 1.05 0.0115309
0.150379 0.1 -1.05 0.0115406
1.0579 0.1 -0.108157 0.00169405
1.0579 0.1 0.108157 0.00169372
1.04168 0.1 -0.218749 0.00178019
1.04168 0.1 0.218749 0.00178008
0.905821 0.1 -0.5625 0.00266531
0.905821 0.1 0.5625 0.00266504
0 0.1 1.06799 0.00506808
0 0.1 -1.06799 0.00506922
0.0363518 0.1 -1.06799 0.0077563
0.0363518 0.1 1.06799 0.00775252
0.350249 0.1 1.0125 0.0105656
0.350249 0.1 -1.0125 0.0105718
1.0579 0.1 -0.180262 0.00171178
1.0579 0.1 0.180262 0.00171126
1.02149 0.1 0.332665 0.00192096
1.02149 0.1 -0.332665 0.0019213
0.93886 0.1 -0.525 0.00249314
0.93886 0.1 0.525 0.00249298
1.08012 0.1 4.48137e-18 0.0016293
1.04168 0.1 -0.291665 0.00181653
1.04168 0.1 0.291665 0.0018164
1.08012 0.1 -0.0709942 0.00163344
1.08012 0.1 0.0709942 0.00163331
0.96969 0.1 -0.4875 0.00231953
0.96969 0.1 0.4875 0.00231993
1.0579 0.1 -0.252367 0.00173877
1.0579 0.1 0.252367 0.00173803
0.990306 0.1 -0.45 0.00219103
0.990306 0.1 0.45 0.00219105
0.287374 0.1 1.05 0.0114664
0.287374 0.1 -1.05 0.0114756
0.714971 0.1 0.821002 0.00473666
1.08012 0.1 0.141988 0.00164545
1.08012 0.1 -0.141988 0.0016457
0.0757758 0.1 -1.0875 0.0106577
0.0757758 0.1 1.0875 0.0106511
0.714971 0.1 -0.825 0.00476387
0.756814 0.1 -0.7875 0.00423158
0.756814 0.1 0.7875 0.0042313
0.67013 0.1 -0.8625 0.00532056
0.67013 0.1 0.8625 0.00532095
0.797314 0.1 -0.75 0.00381073
0.797314 0.1 0.75 0.0038106
0.623803 0.1 0.9 0.00604599
0.835107 0.1 -0.7125 0.00340963
0.835107 0.1 0.7125 0.00340963
0.623803 0.1 -0.903998 0.00600372
0.574156 0.1 0.9375 0.00678247
0.574156 0.1 -0.9375 0.00678284
1.02149 0.1 -0.406591 0.00198516
1.02149 0.1 0.406591 0.0019848
1.08012 0.1 -0.212982 0.00166625
1.08012 0.1 0.212982 0.00166589
1.10076 0.1 -0.034981 0.0015786
1.10076 0.1 0.034981 0.00157857
0.871687 0.1 -0.675 0.00310349
0.871687 0.1 0.675 0.00310339
1.04168 0.1 -0.364581 0.00186562
1.04168 0.1 0.364581 0.00186553
1.10076 0.1 0.104943 0.00158634
1.10076 0.1 -0.104943 0.00158645
0.522864 0.1 0.975 0.00767572
0.522864 0.1 -0.975 0.00767766
1.0579 0.1 0.324472 0.0017748
1.0579 0.1 -0.324472 0.00177575
0 0.1 1.10701 0.00506812
0 0.1 -1.10701 0.0050692
0.0363518 0.1 -1.10701 0.00775627
0.0363518 0.1 1.10701 0.00775256
0.905821 0.1 -0.6375 0.0028085
0.905821 0.1 0.6375 0.0028083
0.219992 0.1 -1.0875 0.0123041
0.219992 0.1 1.0875 0.0122912
0.93886 0.1 -0.6 0.00262271
0.93886 0.1 0.6 0.00262241
1.10076 0.1 0.174905 0.00160176
1.10076 0.1 -0.174905 0.00160192
0.467897 0.1 1.0125 0.00860637
0.467897 0.1 -1.0125 0.00860911
1.08012 0.1 -0.283977 0.00169557
1.08012 0.1 0.283977 0.00169511
1.11929 0.1 1.20274e-17 0.00154056
0.990306 0.1 -0.525 0.00229622
0.990306 0.1 0.525 0.00229623
0.96969 0.1 -0.5625 0.00244629
0.96969 0.1 0.5625 0.00244598
1.11929 0.1 0.0690357 0.00154407
1.11929 0.1 -0.0690357 0.00154419
0 0.1 1.125 0.00506958
0 0.1 -1.125 0.00507064
0.411108 0.1 1.05 0.00968935
0.411108 0.1 -1.05 0.00969253
1.10076 0.1 -0.244867 0.00162548
1.10076 0.1 0.244867 0.00162527
1.11929 0.1 -0.138071 0.00155487
1.11929 0.1 0.138071 0.00155464
1.02149 0.1 0.480517 0.00206668
1.02149 0.1 -0.480517 0.00206718
1.0579 0.1 -0.396577 0.00182584
1.0579 0.1 0.396577 0.00182472
1.04168 0.1 -0.437497 0.00192984
1.04168 0.1 0.437497 0.00192974
0.150379 0.1 1.125 0.0114711
0.150379 0.1 -1.125 0.0114805
0.714971 0.1 0.88201 0.00478005
1.08012 0.1 -0.354971 0.00173545
1.08012 0.1 0.354971 0.00173491
1.11929 0.1 0.207107 0.00157241
1.11929 0.1 -0.207107 0.00157273
0.350249 0.1 1.0875 0.0107173
0.350249 0.1 -1.0875 0.0107231
0 0.1 -1.14299 0.00507119
0 0.1 1.14299 0.00507015
0.0363518 0.1 1.14299 0.00772995
0.0363518 0.1 -1.14299 0.00773333
1.14316 0.1 0.0339211 0.00148645
1.14316 0.1 -0.0339211 0.00148656
0.797314 0.1 0.821002 0.00403712
1.10076 0.1 -0.314829 0.00165751
1.10076 0.1 0.314829 0.00165729
0.797314 0.1 -0.825 0.0040428
0.756814 0.1 0.8625 0.00449064
0.756814 0.1 -0.8625 0.00449083
1.14316 0.1 0.101763 0.00149265
1.14316 0.1 -0.101763 0.00149299
0.835107 0.1 -0.7875 0.00361603
0.835107 0.1 0.7875 0.00361575
0.871687 0.1 -0.75 0.00329172
0.871687 0.1 0.75 0.00329161
0.67013 0.1 0.9375 0.00563029
0.67013 0.1 -0.9375 0.0056302
0.905821 0.1 -0.7125 0.00297672
0.905821 0.1 0.7125 0.00297673
0.714971 0.1 -0.903998 0.00501135
1.11929 0.1 -0.276143 0.00159822
1.11929 0.1 0.276143 0.00159781
1.14316 0.1 -0.169605 0.00150555
1.14316 0.1 0.169605 0.00150503
0.93886 0.1 -0.675 0.0027681
0.93886 0.1 0.675 0.0027679
1.15704 0.1 0 0.00145891
1.0579 0.1 -0.468682 0.00189051
1.0579 0.1 0.468682 0.00188899
0.623803 0.1 0.975 0.00635373
0.623803 0.1 -0.975 0.00635415
0.990306 0.1 -0.6 0.00241664
0.990306 0.1 0.6 0.00241636
1.15704 0.1 -0.0671479 0.00146192
1.15704 0.1 0.0671479 0.00146183
1.04168 0.1 -0.510414 0.00201325
1.04168 0.1 0.510414 0.00201315
0.96969 0.1 -0.6375 0.00257551
0.96969 0.1 0.6375 0.00257515
1.08012 0.1 -0.425965 0.00178767
1.08012 0.1 0.425965 0.00178704
0.287374 0.1 1.125 0.0115342
0.287374 0.1 -1.125 0.011543
1.02149 0.1 -0.554442 0.00217316
1.02149 0.1 0.554442 0.00217268
0.574156 0.1 1.0125 0.00707418
0.574156 0.1 -1.0125 0.00707604
1.15704 0.1 -0.134296 0.00147079
1.15704 0.1 0.134296 0.00147061
0.0757758 0.1 -1.1625 0.0106099
0.0757758 0.1 1.1625 0.010604
1.10076 0.1 -0.384791 0.0017007
1.10076 0.1 0.384791 0.00170052
1.14316 0.1 -0.237448 0.0015247
1.14316 0.1 0.237448 0.00152396
1.11929 0.1 0.345179 0.00163232
1.11929 0.1 -0.345179 0.00163278
0.522864 0.1 1.05 0.00799632
0.522864 0.1 -1.05 0.00799657
1.15704 0.1 -0.201444 0.00148561
1.15704 0.1 0.201444 0.00148537
1.1744 0.1 -0.0331401 0.00142674
1.1744 0.1 0.0331401 0.00142669
1.1744 0.1 0.0994203 0.00143207
1.1744 0.1 -0.0994203 0.00143224
0 0.1 1.18201 0.00507382
0 0.1 -1.18201 0.00507472
0.0363518 0.1 -1.18201 0.00773685
0.0363518 0.1 1.18201 0.00773361
0.219992 0.1 -1.1625 0.0122684
0.219992 0.1 1.1625 0.0122564
1.14316 0.1 -0.30529 0.0015509
1.14316 0.1 0.30529 0.00154995
0.467897 0.1 -1.0875 0.00894544
0.467897 0.1 1.0875 0.00894727
1.1744 0.1 -0.1657 0.00144305
1.1744 0.1 0.1657 0.00144281
1.15704 0.1 -0.268592 0.00150677
1.15704 0.1 0.268592 0.00150646
1.0579 0.1 0.540787 0.00197176
1.0579 0.1 -0.540787 0.00197334
0.796996 0.1 0.88201 0.0042395
1.08012 0.1 0.496959 0.0018545
1.08012 0.1 -0.496959 0.00185525
1.10076 0.1 -0.454752 0.00175509
1.10076 0.1 0.454752 0.00175487
1.11929 0.1 -0.414214 0.00167787
1.11929 0.1 0.414214 0.00167736
1.04168 0.1 -0.58333 0.00210419
1.04168 0.1 0.58333 0.00210407
1.1744 0.1 -0.231981 0.00145947
1.1744 0.1 0.231981 0.00145912
0.871687 0.1 0.821002 0.00349551
0.411108 0.1 1.125 0.00995626
0.411108 0.1 -1.125 0.00995894
1.19808 0.1 0 0.00137831
0.990306 0.1 -0.675 0.00254835
0.990306 0.1 0.675 0.0025481
1.02149 0.1 0.628368 0.00227466
1.02149 0.1 -0.628368 0.00227541
1.19808 0.1 0.0650961 0.00138081
1.19808 0.1 -0.0650961 0.00138092
0 0.1 1.2 0.005077
0 0.1 -1.2 0.0050778
0.871687 0.1 -0.825 0.00350133
0.905821 0.1 -0.7875 0.0031758
0.905821 0.1 0.7875 0.00317563
0.835107 0.1 0.8625 0.0038512
0.835107 0.1 -0.8625 0.00385122
0.93886 0.1 -0.75 0.00293012
0.93886 0.1 0.75 0.00292993
1.14316 0.1 -0.373132 0.00158621
1.14316 0.1 0.373132 0.00158507
0.96969 0.1 -0.7125 0.00271697
0.96969 0.1 0.7125 0.00271675
1.15704 0.1 -0.33574 0.00153545
1.15704 0.1 0.33574 0.00153511
0.756814 0.1 0.9375 0.00478666
0.756814 0.1 -0.9375 0.00478639
1.19808 0.1 -0.130192 0.00138854
1.19808 0.1 0.130192 0.00138834
0.797314 0.1 -0.903998 0.0042711
0.714971 0.1 -0.975 0.0053676
0.714971 0.1 0.975 0.00536781
0.150379 0.1 -1.2 0.0114551
0.150379 0.1 1.2 0.0114465
1.20938 0.1 -0.0322656 0.00135898
1.20938 0.1 0.0322656 0.00135894
1.1744 0.1 -0.298261 0.00148186
1.1744 0.1 0.298261 0.00148146
1.20938 0.1 -0.0967968 0.00136402
1.20938 0.1 0.0967968 0.00136384
1.19808 0.1 0.195288 0.00140089
1.19808 0.1 -0.195288 0.00140116
0.350249 0.1 -1.1625 0.010939
0.350249 0.1 1.1625 0.0109339
0.67013 0.1 -1.0125 0.00596758
0.67013 0.1 1.0125 0.00596794
0 0.1 1.21799 0.00507924
0 0.1 -1.21799 0.00507994
0.0363518 0.1 1.21799 0.00772561
0.0363518 0.1 -1.21799 0.00772859
1.11929 0.1 -0.48325 0.00173526
1.11929 0.1 0.48325 0.00173474
1.10076 0.1 -0.524714 0.00182568
1.10076 0.1 0.524714 0.00182564
1.20938 0.1 0.161328 0.00137353
1.20938 0.1 -0.161328 0.00137375
1.08012 0.1 -0.567953 0.00192841
1.08012 0.1 0.567953 0.00192755
0.623803 0.1 1.05 0.00668541
0.623803 0.1 -1.05 0.00668539
1.0579 0.1 0.612892 0.00204983
1.0579 0.1 -0.612892 0.00205166
1.15704 0.1 -0.402888 0.001573
1.15704 0.1 0.402888 0.00157265
1.14316 0.1 -0.440974 0.0016313
1.14316 0.1 0.440974 0.00162994
1.19808 0.1 -0.260384 0.00141903
1.19808 0.1 0.260384 0.00141867
1.2267 0.1 0 0.00132583
1.2267 0.1 -0.0636648 0.00132831
1.2267 0.1 0.0636648 0.00132819
1.1744 0.1 -0.364541 0.00151201
1.1744 0.1 0.364541 0.00151156
0.574156 0.1 -1.0875 0.00741525
0.574156 0.1 1.0875 0.00741699
1.20938 0.1 0.225859 0.00138805
1.20938 0.1 -0.225859 0.00138838
1.04168 0.1 -0.656246 0.00220892
1.04168 0.1 0.656246 0.00220871
1.2267 0.1 -0.12733 0.00133552
1.2267 0.1 0.12733 0.00133529
0.287374 0.1 -1.2 0.0116693
0.287374 0.1 1.2 0.0116613
1.02149 0.1 -0.702294 0.00241176
1.02149 0.1 0.702294 0.002411
0.0757758 0.1 1.2375 0.010587
0.0757758 0.1 -1.2375 0.0105923
0.871399 0.1 0.88201 0.00367843
0.522864 0.1 -1.125 0.00834549
0.522864 0.1 1.125 0.00834598
1.2267 0.1 -0.190995 0.00134735
1.2267 0.1 0.190995 0.00134704
1.19808 0.1 -0.32548 0.00144297
1.19808 0.1 0.32548 0.00144255
0.990306 0.1 -0.75 0.00269412
0.990306 0.1 0.75 0.00269389
1.24275 0.1 -0.0314313 0.00129512
1.24275 0.1 0.0314313 0.00129508
1.20938 0.1 -0.29039 0.00140815
1.20938 0.1 0.29039 0.00140773
1.24275 0.1 -0.0942939 0.00129992
1.24275 0.1 0.0942939 0.00129971
0.93886 0.1 0.821002 0.00310559
1.11929 0.1 -0.552286 0.00180243
1.11929 0.1 0.552286 0.00180171
1.15704 0.1 -0.470036 0.00162
1.15704 0.1 0.470036 0.0016197
0.96969 0.1 -0.7875 0.00285733
0.96969 0.1 0.7875 0.00285698
0.93886 0.1 -0.825 0.00311185
0.905821 0.1 -0.8625 0.00337419
0.905821 0.1 0.8625 0.00337371
1.1744 0.1 -0.430821 0.00155053
1.1744 0.1 0.430821 0.00155004
1.10076 0.1 -0.594676 0.00189131
1.10076 0.1 0.594676 0.00189045
1.14316 0.1 -0.508816 0.0016881
1.14316 0.1 0.508816 0.00168657
1.24275 0.1 -0.157157 0.00130913
1.24275 0.1 0.157157 0.00130889
1.2267 0.1 -0.254659 0.00136398
1.2267 0.1 0.254659 0.00136358
0.467897 0.1 -1.1625 0.00930107
0.467897 0.1 1.1625 0.00929922
1.08012 0.1 -0.638947 0.0020133
1.08012 0.1 0.638947 0.00201208
1.25511 0.1 0 0.00127155
0.835107 0.1 -0.9375 0.00411422
0.835107 0.1 0.9375 0.00411409
0.871687 0.1 -0.903998 0.00371036
1.25511 0.1 -0.0622446 0.001274
1.25511 0.1 0.0622446 0.00127376
0.219992 0.1 -1.2375 0.0122676
0.219992 0.1 1.2375 0.0122565
0 0.1 -1.25701 0.00508684
0 0.1 1.25701 0.00508628
0.0363518 0.1 1.25701 0.00773265
0.0363518 0.1 -1.25701 0.00773549
0.797314 0.1 0.975 0.0046013
0.797314 0.1 -0.975 0.0046011
1.19808 0.1 -0.390576 0.00147415
1.19808 0.1 0.390576 0.00147369
1.0579 0.1 0.684997 0.00215905
1.0579 0.1 -0.684997 0.0021615
1.20938 0.1 -0.354921 0.00143431
1.20938 0.1 0.354921 0.00143384
1.25511 0.1 -0.124489 0.00128095
1.25511 0.1 0.124489 0.00128052
1.24275 0.1 -0.220019 0.00132285
1.24275 0.1 0.220019 0.0013225
0.756814 0.1 -1.0125 0.0051138
0.756814 0.1 1.0125 0.00511388
1.2267 0.1 -0.318324 0.001386
1.2267 0.1 0.318324 0.0013855
0.411108 0.1 -1.2 0.0102575
0.411108 0.1 1.2 0.0102548
1.25511 0.1 0.186734 0.00129168
1.25511 0.1 -0.186734 0.00129228
0.714971 0.1 1.05 0.00571057
0.714971 0.1 -1.05 0.00571071
1.04168 0.1 -0.729162 0.00234352
1.04168 0.1 0.729162 0.00234334
1.24275 0.1 0.282882 0.0013408
1.24275 0.1 -0.282882 0.00134122
0 0.1 1.275 0.0050911
0 0.1 -1.275 0.00509162
1.1744 0.1 -0.497101 0.00159749
1.1744 0.1 0.497101 0.00159707
1.15704 0.1 -0.537184 0.00168112
1.15704 0.1 0.537184 0.00168074
1.2756 0.1 -0.0306099 0.00123063
1.2756 0.1 0.0306099 0.00123054
0.67013 0.1 -1.0875 0.00632192
0.67013 0.1 1.0875 0.00632176
1.2756 0.1 0.0918298 0.00123492
1.2756 0.1 -0.0918298 0.00123523
1.25511 0.1 -0.248978 0.00130815
1.25511 0.1 0.248978 0.00130736
1.20938 0.1 0.419453 0.00146734
1.20938 0.1 -0.419453 0.00146784
1.11929 0.1 -0.621321 0.00187575
1.11929 0.1 0.621321 0.00187467
1.14316 0.1 -0.576658 0.00175763
1.14316 0.1 0.576658 0.00175569
1.19808 0.1 -0.455672 0.00151263
1.19808 0.1 0.455672 0.00151221
1.02149 0.1 0.776219 0.00257199
1.02149 0.1 -0.776219 0.00257293
0.150379 0.1 1.275 0.0114519
0.150379 0.1 -1.275 0.0114594
1.2756 0.1 -0.15305 0.00124394
1.2756 0.1 0.15305 0.0012436