# pMean  POINT_DATA 63140
# x  y  z  pMean
0 0.1 0 0.221068
0 0.1 -0.0179898 0.221071
0 0.1 0.0179898 0.221067
0.0363518 0.1 -0.0179898 0.221071
0.0363518 0.1 0.0179898 0.221067
0 0.1 -0.0570102 0.220915
0 0.1 0.0570102 0.220903
0.0363518 0.1 0.0570102 0.220903
0.0363518 0.1 -0.0570102 0.220915
0 0.1 -0.075 0.220768
0 0.1 0.075 0.220752
0.0757758 0.1 -0.0375 0.221077
0.0757758 0.1 0.0375 0.221069
0 0.1 -0.0929898 0.220624
0 0.1 0.0929898 0.220604
0.0363518 0.1 -0.0929898 0.220624
0.0363518 0.1 0.0929898 0.220604
0 0.1 -0.13201 0.220151
0 0.1 0.13201 0.220123
0.0757758 0.1 -0.1125 0.220469
0.0757758 0.1 0.1125 0.220446
0.0363518 0.1 -0.13201 0.220151
0.0363518 0.1 0.13201 0.220123
0 0.1 -0.15 0.219861
0 0.1 0.15 0.219829
0.150379 0.1 -4.33681e-19 0.213305
0 0.1 -0.16799 0.219574
0 0.1 0.16799 0.219538
0.150379 0.1 -0.075 0.212962
0.150379 0.1 0.075 0.212944
0.0363518 0.1 -0.16799 0.219574
0.0363518 0.1 0.16799 0.219538
0.0757758 0.1 -0.1875 0.219263
0.0757758 0.1 0.1875 0.219223
0 0.1 -0.20701 0.218765
0 0.1 0.20701 0.21872
0.0363518 0.1 -0.20701 0.218765
0.0363518 0.1 0.20701 0.21872
0.150379 0.1 -0.15 0.211899
0.150379 0.1 0.15 0.211863
0.219992 0.1 -0.0375 0.205902
0.219992 0.1 0.0375 0.205892
0 0.1 -0.225 0.21831
0 0.1 0.225 0.218261
0 0.1 -0.24299 0.217858
0 0.1 0.24299 0.217805
0.0363518 0.1 0.24299 0.217805
0.0363518 0.1 -0.24299 0.217858
0.219992 0.1 -0.1125 0.205123
0.219992 0.1 0.1125 0.205093
0.150379 0.1 0.225 0.210048
0.150379 0.1 -0.225 0.210102
0.0757758 0.1 0.2625 0.21731
0.0757758 0.1 -0.2625 0.217368
0 0.1 -0.28201 0.216696
0 0.1 0.28201 0.216634
0.0363518 0.1 -0.28201 0.216696
0.0363518 0.1 0.28201 0.216634
0.287374 0.1 0 0.209307
0.219992 0.1 -0.1875 0.20348
0.219992 0.1 0.1875 0.203429
0.287374 0.1 -0.075 0.208923
0.287374 0.1 0.075 0.208904
0 0.1 -0.3 0.216081
0 0.1 0.3 0.216014
0 0.1 -0.31799 0.215467
0 0.1 0.31799 0.215397
0.0363518 0.1 -0.31799 0.215467
0.0363518 0.1 0.31799 0.215397
0.287374 0.1 -0.15 0.207727
0.287374 0.1 0.15 0.207689
0.150379 0.1 -0.3 0.20761
0.150379 0.1 0.3 0.207538
0.219992 0.1 -0.2625 0.201057
0.219992 0.1 0.2625 0.200989
0.0757758 0.1 -0.3375 0.214803
0.0757758 0.1 0.3375 0.214728
0.350249 0.1 -0.0375 0.212574
0.350249 0.1 0.0375 0.212565
0 0.1 0.35701 0.213891
0 0.1 -0.35701 0.21397
0.0363518 0.1 -0.35701 0.21397
0.0363518 0.1 0.35701 0.213891
0.287374 0.1 -0.225 0.205726
0.287374 0.1 0.225 0.205669
0.350249 0.1 0.1125 0.211772
0.350249 0.1 -0.1125 0.211799
0 0.1 -0.375 0.213206
0 0.1 0.375 0.213122
0 0.1 -0.39299 0.212443
0 0.1 0.39299 0.212355
0.0363518 0.1 -0.39299 0.212443
0.0363518 0.1 0.39299 0.212355
0.350249 0.1 -0.1875 0.21021
0.350249 0.1 0.1875 0.210163
0.219992 0.1 -0.3375 0.197995
0.219992 0.1 0.3375 0.197911
0.150379 0.1 -0.375 0.204492
0.150379 0.1 0.375 0.204404
0.411108 0.1 -2.21177e-17 0.218202
0.287374 0.1 -0.3 0.202995
0.287374 0.1 0.3 0.20292
0.411108 0.1 0.075 0.217749
0.411108 0.1 -0.075 0.217769
0.0757758 0.1 -0.4125 0.211617
0.0757758 0.1 0.4125 0.211526
0 0.1 -0.43201 0.210633
0 0.1 0.43201 0.210537
0.0363518 0.1 -0.43201 0.210633
0.0363518 0.1 0.43201 0.210537
0.411108 0.1 -0.15 0.216451
0.411108 0.1 0.15 0.216412
0.350249 0.1 -0.2625 0.207859
0.350249 0.1 0.2625 0.207794
0 0.1 -0.45 0.20973
0 0.1 0.45 0.20963
0.219992 0.1 -0.4125 0.194357
0.219992 0.1 0.4125 0.194257
0 0.1 -0.46799 0.208828
0 0.1 0.46799 0.208724
0.411108 0.1 -0.225 0.214274
0.411108 0.1 0.225 0.214216
0.467897 0.1 0.0375 0.223599
0.467897 0.1 -0.0375 0.223609
0.0363518 0.1 -0.46799 0.208828
0.0363518 0.1 0.46799 0.208724
0.287374 0.1 -0.375 0.199598
0.287374 0.1 0.375 0.199506
0.150379 0.1 -0.45 0.200802
0.150379 0.1 0.45 0.200698
0.467897 0.1 -0.1125 0.222636
0.467897 0.1 0.1125 0.222605
0.350249 0.1 0.3375 0.204685
0.350249 0.1 -0.3375 0.204769
0.0757758 0.1 -0.4875 0.207851
0.0757758 0.1 0.4875 0.207743
0.467897 0.1 -0.1875 0.220712
0.467897 0.1 0.1875 0.220661
0 0.1 -0.50701 0.20673
0 0.1 0.50701 0.206617
0.0363518 0.1 -0.50701 0.20673
0.0363518 0.1 0.50701 0.206617
0.411108 0.1 -0.3 0.211283
0.411108 0.1 0.3 0.211206
0.522864 0.1 -2.08167e-17 0.230293
0 0.1 -0.525 0.2057
0 0.1 0.525 0.205583
0.522864 0.1 -0.075 0.229776
0.522864 0.1 0.075 0.229755
0.287374 0.1 -0.45 0.19559
0.287374 0.1 0.45 0.195482
0.219992 0.1 -0.4875 0.190205
0.219992 0.1 0.4875 0.190091
0.467897 0.1 0.2625 0.217816
0.467897 0.1 -0.2625 0.217887
0.350249 0.1 -0.4125 0.200976
0.350249 0.1 0.4125 0.200874
0 0.1 -0.54299 0.204671
0 0.1 0.54299 0.20455
0.522864 0.1 0.15 0.228177
0.522864 0.1 -0.15 0.228219
0.0363518 0.1 -0.54299 0.204671
0.0363518 0.1 0.54299 0.20455
0.150379 0.1 -0.525 0.196602
0.150379 0.1 0.525 0.196483
0.411108 0.1 -0.375 0.207523
0.411108 0.1 0.375 0.207428
0.0757758 0.1 -0.5625 0.203556
0.0757758 0.1 0.5625 0.203432
0.522864 0.1 -0.225 0.225662
0.522864 0.1 0.225 0.225599
0.574156 0.1 -0.0375 0.236731
0.574156 0.1 0.0375 0.23672
0.467897 0.1 -0.3375 0.214211
0.467897 0.1 0.3375 0.214121
0 0.1 -0.58201 0.202314
0 0.1 0.58201 0.202186
0.0363518 0.1 -0.58201 0.202314
0.0363518 0.1 0.58201 0.202186
0.574156 0.1 -0.1125 0.235619
0.574156 0.1 0.1125 0.235586
0.287374 0.1 -0.525 0.191046
0.287374 0.1 0.525 0.190921
0 0.1 -0.6 0.201172
0 0.1 0.6 0.201041
0.350249 0.1 -0.4875 0.196536
0.350249 0.1 0.4875 0.196417
0.522864 0.1 0.3 0.222076
0.522864 0.1 -0.3 0.222159
0.219992 0.1 -0.5625 0.185633
0.219992 0.1 0.5625 0.185505
0.574156 0.1 -0.1875 0.233409
0.574156 0.1 0.1875 0.233355
0.411108 0.1 -0.45 0.203055
0.411108 0.1 0.45 0.202942
0 0.1 -0.61799 0.200031
0 0.1 0.61799 0.199896
0.150379 0.1 -0.6 0.191947
0.150379 0.1 0.6 0.191813
0.0363518 0.1 -0.61799 0.200031
0.0363518 0.1 0.61799 0.199896
0.467897 0.1 0.4125 0.209649
0.467897 0.1 -0.4125 0.209757
0.623803 0.1 1.04083e-17 0.244331
0.623803 0.1 -0.075 0.243736
0.623803 0.1 0.075 0.243714
0.574156 0.1 -0.2625 0.230152
0.574156 0.1 0.2625 0.230077
0.623803 0.1 -0.15 0.241942
0.623803 0.1 0.15 0.241897
0.0757758 0.1 0.6375 0.198657
0.0757758 0.1 -0.6375 0.198796
0.522864 0.1 -0.375 0.21778
0.522864 0.1 0.375 0.217677
0 0.1 0.65701 0.197306
0 0.1 -0.65701 0.197449
0.0363518 0.1 0.65701 0.197306
0.0363518 0.1 -0.65701 0.197449
0.350249 0.1 -0.5625 0.191536
0.350249 0.1 0.5625 0.191401
0.623803 0.1 -0.225 0.23899
0.623803 0.1 0.225 0.238923
0.287374 0.1 -0.6 0.186033
0.287374 0.1 0.6 0.185894
0.574156 0.1 -0.3375 0.225917
0.574156 0.1 0.3375 0.22582
0.411108 0.1 -0.525 0.197954
0.411108 0.1 0.525 0.197824
0.67013 0.1 -0.0375 0.251672
0.67013 0.1 0.0375 0.251661
0.219992 0.1 0.6375 0.18051
0.219992 0.1 -0.6375 0.180653
0 0.1 -0.675 0.19621
0 0.1 0.675 0.196064
0.467897 0.1 -0.4875 0.204599
0.467897 0.1 0.4875 0.204474
0.67013 0.1 -0.1125 0.250385
0.67013 0.1 0.1125 0.25035
0.522864 0.1 -0.45 0.212608
0.522864 0.1 0.45 0.212486
0.150379 0.1 0.675 0.186736
0.150379 0.1 -0.675 0.186884
0.623803 0.1 0.3 0.234855
0.623803 0.1 -0.3 0.234944
0 0.1 -0.69299 0.194972
0 0.1 0.69299 0.194823
0.0363518 0.1 0.69299 0.194823
0.0363518 0.1 -0.69299 0.194972
0.67013 0.1 0.1875 0.247767
0.67013 0.1 -0.1875 0.247825
0.574156 0.1 -0.4125 0.220791
0.574156 0.1 0.4125 0.220674
0.714971 0.1 -1.82146e-17 0.259916
0.0757758 0.1 0.7125 0.193479
0.0757758 0.1 -0.7125 0.193632
0.714971 0.1 -0.075 0.259226
0.714971 0.1 0.075 0.259202
0.67013 0.1 -0.2625 0.24406
0.67013 0.1 0.2625 0.243979
0.411108 0.1 -0.6 0.192309
0.411108 0.1 0.6 0.192162
0.350249 0.1 -0.6375 0.186061
0.350249 0.1 0.6375 0.185909
0.623803 0.1 -0.375 0.229889
0.623803 0.1 0.375 0.229779
0.714971 0.1 0.15 0.257099
0.714971 0.1 -0.15 0.257147
0.467897 0.1 -0.5625 0.198825
0.467897 0.1 0.5625 0.198683
0 0.1 -0.73201 0.192197
0 0.1 0.73201 0.19204
0.0363518 0.1 -0.73201 0.192197
0.0363518 0.1 0.73201 0.19204
0.287374 0.1 0.675 0.180456
0.287374 0.1 -0.675 0.180609
0.522864 0.1 -0.525 0.206735
0.522864 0.1 0.525 0.206595
0.219992 0.1 0.7125 0.175157
0.219992 0.1 -0.7125 0.175313
0.714971 0.1 0.225 0.253657
0.714971 0.1 -0.225 0.253729
0 0.1 0.75 0.190717
0 0.1 -0.75 0.190878
0.67013 0.1 -0.3375 0.239155
0.67013 0.1 0.3375 0.239052
0.574156 0.1 0.4875 0.214731
0.574156 0.1 -0.4875 0.214869
0.756814 0.1 -0.0375 0.267901
0.756814 0.1 0.0375 0.267889
0.150379 0.1 0.746002 0.181737
0.150379 0.1 -0.75 0.181471
0.756814 0.1 -0.1125 0.266408
0.756814 0.1 0.1125 0.266371
0 0.1 0.76799 0.189395
0 0.1 -0.76799 0.189559
0.0363518 0.1 0.76799 0.189395
0.0363518 0.1 -0.76799 0.189559
0.623803 0.1 -0.45 0.223934
0.623803 0.1 0.45 0.223803
0.714971 0.1 0.3 0.248955
0.714971 0.1 -0.3 0.24905
0.756814 0.1 -0.1875 0.263444
0.756814 0.1 0.1875 0.263383
0.67013 0.1 -0.4125 0.233229
0.67013 0.1 0.4125 0.233105
0.411108 0.1 -0.675 0.186205
0.411108 0.1 0.675 0.186043
0.467897 0.1 -0.6375 0.192526
0.467897 0.1 0.6375 0.192367
0.0757758 0.1 -0.7875 0.188131
0.0757758 0.1 0.7875 0.187963
0.350249 0.1 0.7125 0.180018
0.350249 0.1 -0.7125 0.180182
0.522864 0.1 -0.6 0.200262
0.522864 0.1 0.6 0.200104
0.797314 0.1 -2.86229e-17 0.276544
0.287374 0.1 0.746002 0.174905
0.797314 0.1 -0.075 0.275749
0.797314 0.1 0.075 0.275723
0.756814 0.1 0.2625 0.258989
0.756814 0.1 -0.2625 0.259075
0.287374 0.1 -0.75 0.174838
0.574156 0.1 -0.5625 0.208262
0.574156 0.1 0.5625 0.208106
0 0.1 0.80701 0.186454
0 0.1 -0.80701 0.186624
0.714971 0.1 -0.375 0.243217
0.714971 0.1 0.375 0.2431
0.0363518 0.1 -0.80701 0.186624
0.0363518 0.1 0.80701 0.186454
0.797314 0.1 -0.15 0.273356
0.797314 0.1 0.15 0.273305
0.623803 0.1 -0.525 0.217193
0.623803 0.1 0.525 0.217043
0.219992 0.1 0.7875 0.169506
0.219992 0.1 -0.7875 0.169676
0.149792 0.1 0.80701 0.17702
0 0.1 0.825 0.185066
0 0.1 -0.825 0.185239
0.797314 0.1 -0.225 0.269421
0.797314 0.1 0.225 0.269345
0.756814 0.1 -0.3375 0.253423
0.756814 0.1 0.3375 0.253313
0.67013 0.1 -0.4875 0.226412
0.67013 0.1 0.4875 0.226268
0.835107 0.1 -0.0375 0.284942
0.835107 0.1 0.0375 0.28493
0.150379 0.1 -0.825 0.175772
0.835107 0.1 -0.1125 0.283232
0.835107 0.1 0.1125 0.283192
0 0.1 0.84299 0.183678
0 0.1 -0.84299 0.183854
0.0363518 0.1 0.84299 0.183678
0.0363518 0.1 -0.84299 0.183854
0.714971 0.1 -0.45 0.236354
0.714971 0.1 0.45 0.236215
0.411108 0.1 0.746002 0.179814
0.797314 0.1 -0.3 0.264045
0.797314 0.1 0.3 0.263943
0.467897 0.1 -0.7125 0.185798
0.467897 0.1 0.7125 0.185623
0.522864 0.1 0.675 0.19312
0.522864 0.1 -0.675 0.193294
0.411108 0.1 -0.75 0.179728
0.835107 0.1 -0.1875 0.279838
0.835107 0.1 0.1875 0.279773
0.286844 0.1 0.80701 0.170087
0.574156 0.1 0.6375 0.20091
0.574156 0.1 -0.6375 0.201084
0.350249 0.1 -0.7875 0.17398
0.350249 0.1 0.7875 0.173801
0.756814 0.1 0.4125 0.246468
0.756814 0.1 -0.4125 0.246601
0.623803 0.1 -0.6 0.20979
0.623803 0.1 0.6 0.209621
0.0757758 0.1 0.8625 0.182176
0.0757758 0.1 -0.8625 0.182355
0.871687 0.1 -1.73472e-17 0.293748
0.287374 0.1 -0.825 0.16879
0.871687 0.1 -0.075 0.292837
0.871687 0.1 0.075 0.292811
0.67013 0.1 -0.5625 0.218827
0.67013 0.1 0.5625 0.218664
0.835107 0.1 0.2625 0.274749
0.835107 0.1 -0.2625 0.274841
0.797314 0.1 -0.375 0.257353
0.797314 0.1 0.375 0.257227
0 0.1 0.88201 0.180613
0 0.1 -0.88201 0.180795
0.0363518 0.1 0.88201 0.180613
0.0363518 0.1 -0.88201 0.180795
0.871687 0.1 0.15 0.290049
0.871687 0.1 -0.15 0.290101
0.714971 0.1 -0.525 0.228606
0.714971 0.1 0.525 0.228445
0.219992 0.1 0.8625 0.163619
0.219992 0.1 -0.8625 0.163799
0 0.1 0.9 0.179175
0 0.1 -0.9 0.17936
0.756814 0.1 -0.4875 0.238744
0.756814 0.1 0.4875 0.238589
0.871687 0.1 -0.225 0.285608
0.871687 0.1 0.225 0.285528
0.835107 0.1 -0.3375 0.268375
0.835107 0.1 0.3375 0.268257
0.410629 0.1 0.80701 0.174422
0.905821 0.1 -0.0375 0.302329
0.905821 0.1 0.0375 0.302317
0.522864 0.1 0.746002 0.186033
0.150379 0.1 0.9 0.169662
0.905821 0.1 0.1125 0.300336
0.905821 0.1 -0.1125 0.300374
0.522864 0.1 -0.75 0.185938
0.574156 0.1 -0.7125 0.193452
0.574156 0.1 0.7125 0.193264
0.797314 0.1 -0.45 0.249488
0.797314 0.1 0.45 0.249339
0.467897 0.1 0.7875 0.178546
0.467897 0.1 -0.7875 0.178737
0.150379 0.1 -0.903998 0.170236
0 0.1 0.91799 0.177737
0 0.1 -0.91799 0.177925
0.0363518 0.1 0.91799 0.177737
0.0363518 0.1 -0.91799 0.177925
0.623803 0.1 -0.675 0.201856
0.623803 0.1 0.675 0.201668
0.411108 0.1 -0.825 0.172964
0.871687 0.1 -0.3 0.279468
0.871687 0.1 0.3 0.279363
0.67013 0.1 0.6375 0.210438
0.67013 0.1 -0.6375 0.210622
0.905821 0.1 -0.1875 0.296502
0.905821 0.1 0.1875 0.296435
0.350249 0.1 0.8625 0.167338
0.350249 0.1 -0.8625 0.167527
0.835107 0.1 -0.4125 0.260576
0.835107 0.1 0.4125 0.260433
0.714971 0.1 -0.6 0.22013
0.714971 0.1 0.6 0.219949
0.93886 0.1 -1.25767e-17 0.310973
0.0757758 0.1 0.9375 0.176181
0.0757758 0.1 -0.9375 0.176372
0.93886 0.1 -0.075 0.309948
0.93886 0.1 0.075 0.309921
0.756814 0.1 -0.5625 0.230046
0.756814 0.1 0.5625 0.229869
0.905821 0.1 -0.2625 0.290806
0.905821 0.1 0.2625 0.290712
0.287374 0.1 0.9 0.16234
0.287374 0.1 -0.903998 0.163188
0.871687 0.1 -0.375 0.271834
0.871687 0.1 0.375 0.271702
0.93886 0.1 -0.15 0.306871
0.93886 0.1 0.15 0.306816
0.797314 0.1 -0.525 0.240636
0.797314 0.1 0.525 0.240464
0 0.1 0.95701 0.17458
0 0.1 -0.95701 0.174773
0.0363518 0.1 0.95701 0.17458
0.0363518 0.1 -0.95701 0.174773
0.522432 0.1 0.80701 0.179949
0.219992 0.1 0.9375 0.157549
0.219992 0.1 -0.9375 0.157742
0.93886 0.1 -0.225 0.301818
0.93886 0.1 0.225 0.301736
0.905821 0.1 -0.3375 0.283431
0.905821 0.1 0.3375 0.283311
0.835107 0.1 0.4875 0.251459
0.835107 0.1 -0.4875 0.251625
0.96969 0.1 -0.0375 0.319424
0.96969 0.1 0.0375 0.31941
0.61613 0.1 0.75 0.193316
0.574156 0.1 0.7875 0.18528
0.574156 0.1 -0.7875 0.185485
0 0.1 0.975 0.173107
0 0.1 -0.975 0.173302
0.623803 0.1 -0.75 0.193521
0.96969 0.1 -0.1125 0.317255
0.96969 0.1 0.1125 0.317212
0.522864 0.1 -0.825 0.178297
0.67013 0.1 -0.7125 0.201938
0.67013 0.1 0.7125 0.201735
0.871687 0.1 -0.45 0.262883
0.871687 0.1 0.45 0.262726
0.467897 0.1 -0.8625 0.171432
0.467897 0.1 0.8625 0.17123
0.714971 0.1 -0.675 0.211085
0.714971 0.1 0.675 0.210884
0.93886 0.1 -0.3 0.294913
0.93886 0.1 0.3 0.294803
0.150379 0.1 0.975 0.163562
0.150379 0.1 -0.975 0.163758
0.96969 0.1 -0.1875 0.312952
0.96969 0.1 0.1875 0.312881
0.411108 0.1 0.9 0.165793
0.756814 0.1 -0.6375 0.22067
0.756814 0.1 0.6375 0.22047
0.990306 0.1 0 0.324234
0 0.1 0.99299 0.171635
0 0.1 -0.99299 0.171832
0.411108 0.1 -0.903998 0.16672
0.990306 0.1 -0.075 0.323112
0.990306 0.1 0.075 0.323083
0.0363518 0.1 0.99299 0.171635
0.0363518 0.1 -0.99299 0.171832
0.905821 0.1 -0.4125 0.27456
0.905821 0.1 0.4125 0.274412
0.797314 0.1 -0.6 0.23099
0.797314 0.1 0.6 0.230796
0.350249 0.1 0.9375 0.160699
0.350249 0.1 -0.9375 0.160903
0.990306 0.1 -0.15 0.319744
0.990306 0.1 0.15 0.319686
0.96969 0.1 -0.2625 0.306626
0.96969 0.1 0.2625 0.306527
0.835107 0.1 -0.5625 0.241755
0.835107 0.1 0.5625 0.241568
0.93886 0.1 -0.375 0.28633
0.93886 0.1 0.375 0.286193
0.0757758 0.1 1.0125 0.170041
0.0757758 0.1 -1.0125 0.17024
0.990306 0.1 -0.225 0.314212
0.990306 0.1 0.225 0.314126
0.287374 0.1 -0.975 0.156124
0.287374 0.1 0.975 0.155922
0.871687 0.1 -0.525 0.252835
0.871687 0.1 0.525 0.252653
1.02149 0.1 -0.0369628 0.334072
1.02149 0.1 0.0369628 0.334062
0.96969 0.1 0.3375 0.298293
0.96969 0.1 -0.3375 0.29842
1.02149 0.1 -0.110888 0.331693
1.02149 0.1 0.110888 0.331665
0.905821 0.1 -0.4875 0.264408
0.905821 0.1 0.4875 0.264235
0.623803 0.1 0.819003 0.186412
0 0.1 1.03201 0.168417
0 0.1 -1.03201 0.168619
0.0363518 0.1 1.03201 0.168417
0.0363518 0.1 -1.03201 0.168619
0.67013 0.1 -0.7875 0.19292
0.67013 0.1 0.7875 0.192698
0.623803 0.1 -0.825 0.184912
0.990306 0.1 0.3 0.306538
0.990306 0.1 -0.3 0.306653
0.219992 0.1 1.0125 0.151357
0.219992 0.1 -1.0125 0.151556
0.574156 0.1 0.8625 0.177073
0.574156 0.1 -0.8625 0.177289
0.714971 0.1 -0.75 0.20163
0.714971 0.1 0.75 0.201411
1.02149 0.1 -0.184814 0.326979
1.02149 0.1 0.184814 0.326933
0.756814 0.1 -0.7125 0.210794
0.756814 0.1 0.7125 0.210577
0.522864 0.1 0.9 0.170255
0.93886 0.1 -0.45 0.276283
0.93886 0.1 0.45 0.276118
1.04168 0.1 0 0.340184
1.04168 0.1 -0.0729162 0.339006
1.04168 0.1 0.0729162 0.338976
0.522864 0.1 -0.903998 0.1713
0.797314 0.1 -0.675 0.220738
0.797314 0.1 0.675 0.220523
0.467897 0.1 0.9375 0.163759
0.467897 0.1 -0.9375 0.163976
0 0.1 1.05 0.166923
0 0.1 -1.05 0.167127
0.835107 0.1 -0.6375 0.231155
0.835107 0.1 0.6375 0.230944
1.04168 0.1 -0.145832 0.335466
1.04168 0.1 0.145832 0.335406
1.02149 0.1 -0.25874 0.320052
1.02149 0.1 0.25874 0.319986
0.96969 0.1 -0.4125 0.288561
0.96969 0.1 0.4125 0.288405
0.411108 0.1 0.975 0.158684
0.411108 0.1 -0.975 0.158898
0.871687 0.1 -0.6 0.241915
0.871687 0.1 0.6 0.241709
1.0579 0.1 -0.0360525 0.344963
1.0579 0.1 0.0360525 0.344967
0.990306 0.1 -0.375 0.297262
0.990306 0.1 0.375 0.297117
0.150379 0.1 1.05 0.157356
0.150379 0.1 -1.05 0.15756
1.0579 0.1 -0.108157 0.342589
1.0579 0.1 0.108157 0.342601
1.04168 0.1 -0.218749 0.329648
1.04168 0.1 0.218749 0.329558
0.905821 0.1 -0.5625 0.253222
0.905821 0.1 0.5625 0.253022
0 0.1 1.06799 0.165429
0 0.1 -1.06799 0.165636
0.0363518 0.1 -1.06799 0.165636
0.0363518 0.1 1.06799 0.165429
0.350249 0.1 1.0125 0.153954
0.350249 0.1 -1.0125 0.154163
1.0579 0.1 -0.180262 0.337892
1.0579 0.1 0.180262 0.33791
1.02149 0.1 0.332665 0.310992
1.02149 0.1 -0.332665 0.311078
0.93886 0.1 -0.525 0.265026
0.93886 0.1 0.525 0.264834
1.08012 0.1 4.48137e-18 0.351734
1.04168 0.1 -0.291665 0.321692
1.04168 0.1 0.291665 0.321571
1.08012 0.1 -0.0709942 0.350552
1.08012 0.1 0.0709942 0.350542
0.96969 0.1 -0.4875 0.277281
0.96969 0.1 0.4875 0.277098
1.0579 0.1 -0.252367 0.330985
1.0579 0.1 0.252367 0.331008
0.990306 0.1 -0.45 0.28628
0.990306 0.1 0.45 0.286107
0.287374 0.1 1.05 0.149417
0.287374 0.1 -1.05 0.149627
0.714971 0.1 0.821002 0.192435
1.08012 0.1 0.141988 0.346997
1.08012 0.1 -0.141988 0.347016
0.0757758 0.1 -1.0875 0.164022
0.0757758 0.1 1.0875 0.163812
0.714971 0.1 -0.825 0.19192
0.756814 0.1 -0.7875 0.200594
0.756814 0.1 0.7875 0.200358
0.67013 0.1 -0.8625 0.183701
0.67013 0.1 0.8625 0.183465
0.797314 0.1 -0.75 0.210072
0.797314 0.1 0.75 0.209838
0.623803 0.1 0.9 0.175914
0.835107 0.1 -0.7125 0.220034
0.835107 0.1 0.7125 0.219803
0.623803 0.1 -0.903998 0.177071
0.574156 0.1 0.9375 0.168746
0.574156 0.1 -0.9375 0.16898
1.02149 0.1 -0.406591 0.300299
1.02149 0.1 0.406591 0.300192
1.08012 0.1 -0.212982 0.341205
1.08012 0.1 0.212982 0.341176
1.10076 0.1 -0.034981 0.358242
1.10076 0.1 0.034981 0.358226
0.871687 0.1 -0.675 0.230348
0.871687 0.1 0.675 0.23012
1.04168 0.1 -0.364581 0.311791
1.04168 0.1 0.364581 0.31164
1.10076 0.1 0.104943 0.355832
1.10076 0.1 -0.104943 0.355877
0.522864 0.1 0.975 0.162325
0.522864 0.1 -0.975 0.162553
1.0579 0.1 0.324472 0.322049
1.0579 0.1 -0.324472 0.322026
0 0.1 1.10701 0.16218
0 0.1 -1.10701 0.162391
0.0363518 0.1 -1.10701 0.162391
0.0363518 0.1 1.10701 0.16218
0.905821 0.1 -0.6375 0.241236
0.905821 0.1 0.6375 0.241011
0.219992 0.1 -1.0875 0.145303
0.219992 0.1 1.0875 0.145093
0.93886 0.1 -0.6 0.252828
0.93886 0.1 0.6 0.252609
1.10076 0.1 0.174905 0.351098
1.10076 0.1 -0.174905 0.351174
0.467897 0.1 1.0125 0.156214
0.467897 0.1 -1.0125 0.156436
1.08012 0.1 -0.283977 0.333248
1.08012 0.1 0.283977 0.333205
1.11929 0.1 1.20274e-17 0.363568
0.990306 0.1 -0.525 0.273991
0.990306 0.1 0.525 0.273789
0.96969 0.1 -0.5625 0.2649
0.96969 0.1 0.5625 0.264688
1.11929 0.1 0.0690357 0.362364
1.11929 0.1 -0.0690357 0.362383
0 0.1 1.125 0.160679
0 0.1 -1.125 0.160891
0.411108 0.1 1.05 0.151518
0.411108 0.1 -1.05 0.15174
1.10076 0.1 -0.244867 0.344238
1.10076 0.1 0.244867 0.344132
1.11929 0.1 -0.138071 0.358827
1.11929 0.1 0.138071 0.358789
1.02149 0.1 0.480517 0.287857
1.02149 0.1 -0.480517 0.287987
1.0579 0.1 -0.396577 0.311233
1.0579 0.1 0.396577 0.311253
1.04168 0.1 -0.437497 0.300195
1.04168 0.1 0.437497 0.300015
0.150379 0.1 1.125 0.151094
0.150379 0.1 -1.125 0.151306
0.714971 0.1 0.88201 0.185764
1.08012 0.1 -0.354971 0.323323
1.08012 0.1 0.354971 0.323266
1.11929 0.1 0.207107 0.352915
1.11929 0.1 -0.207107 0.352972
0.350249 0.1 1.0875 0.147159
0.350249 0.1 -1.0875 0.147381
0 0.1 -1.14299 0.159392
0 0.1 1.14299 0.159178
0.0363518 0.1 1.14299 0.159178
0.0363518 0.1 -1.14299 0.159392
1.14316 0.1 0.0339211 0.371052
1.14316 0.1 -0.0339211 0.37104
0.797314 0.1 0.821002 0.199365
1.10076 0.1 -0.314829 0.335211
1.10076 0.1 0.314829 0.335074
0.797314 0.1 -0.825 0.199173
0.756814 0.1 0.8625 0.189979
0.756814 0.1 -0.8625 0.19023
1.14316 0.1 0.101763 0.368665
1.14316 0.1 -0.101763 0.36863
0.835107 0.1 -0.7875 0.208605
0.835107 0.1 0.7875 0.208355
0.871687 0.1 -0.75 0.218368
0.871687 0.1 0.75 0.21812
0.67013 0.1 0.9375 0.174156
0.67013 0.1 -0.9375 0.174406
0.905821 0.1 -0.7125 0.228713
0.905821 0.1 0.7125 0.228467
0.714971 0.1 -0.903998 0.183121
1.11929 0.1 -0.276143 0.344941
1.11929 0.1 0.276143 0.344863
1.14316 0.1 -0.169605 0.363863
1.14316 0.1 0.169605 0.363918
0.93886 0.1 -0.675 0.239944
0.93886 0.1 0.675 0.239702
1.15704 0.1 0 0.375166
1.0579 0.1 -0.468682 0.298861
1.0579 0.1 0.468682 0.298875
0.623803 0.1 0.975 0.167091
0.623803 0.1 -0.975 0.167337
0.990306 0.1 -0.6 0.260695
0.990306 0.1 0.6 0.260465
1.15704 0.1 -0.0671479 0.37398
1.15704 0.1 0.0671479 0.37395
1.04168 0.1 -0.510414 0.287187
1.04168 0.1 0.510414 0.286976
0.96969 0.1 -0.6375 0.251687
0.96969 0.1 0.6375 0.251449
1.08012 0.1 -0.425965 0.31166
1.08012 0.1 0.425965 0.311586
0.287374 0.1 1.125 0.142877
0.287374 0.1 -1.125 0.143095
1.02149 0.1 -0.554442 0.274443
1.02149 0.1 0.554442 0.274288
0.574156 0.1 1.0125 0.1604
0.574156 0.1 -1.0125 0.160643
1.15704 0.1 -0.134296 0.370409
1.15704 0.1 0.134296 0.370348
0.0757758 0.1 -1.1625 0.157768
0.0757758 0.1 1.1625 0.157553
1.10076 0.1 -0.384791 0.324296
1.10076 0.1 0.384791 0.324126
1.14316 0.1 -0.237448 0.356836
1.14316 0.1 0.237448 0.35691
1.11929 0.1 0.345179 0.3348
1.11929 0.1 -0.345179 0.334902
0.522864 0.1 1.05 0.154384
0.522864 0.1 -1.05 0.154623
1.15704 0.1 -0.201444 0.364522
1.15704 0.1 0.201444 0.364429
1.1744 0.1 -0.0331401 0.380389
1.1744 0.1 0.0331401 0.380375
1.1744 0.1 0.0994203 0.377959
1.1744 0.1 -0.0994203 0.377998
0 0.1 1.18201 0.155926
0 0.1 -1.18201 0.156143
0.0363518 0.1 -1.18201 0.156143
0.0363518 0.1 1.18201 0.155926
0.219992 0.1 -1.1625 0.139015
0.219992 0.1 1.1625 0.138799
1.14316 0.1 -0.30529 0.347687
1.14316 0.1 0.30529 0.347774
0.467897 0.1 -1.0875 0.148901
0.467897 0.1 1.0875 0.148665
1.1744 0.1 -0.1657 0.37324
1.1744 0.1 0.1657 0.373172
1.15704 0.1 -0.268592 0.356433
1.15704 0.1 0.268592 0.356309
1.0579 0.1 0.540787 0.285211
1.0579 0.1 -0.540787 0.285211
0.796996 0.1 0.88201 0.190566
1.08012 0.1 0.496959 0.298438
1.08012 0.1 -0.496959 0.29853
1.10076 0.1 -0.454752 0.311731
1.10076 0.1 0.454752 0.311532
1.11929 0.1 -0.414214 0.323072
1.11929 0.1 0.414214 0.322947
1.04168 0.1 -0.58333 0.273066
1.04168 0.1 0.58333 0.272826
1.1744 0.1 -0.231981 0.366209
1.1744 0.1 0.231981 0.366114
0.871687 0.1 0.821002 0.206438
0.411108 0.1 1.125 0.144358
0.411108 0.1 -1.125 0.144589
1.19808 0.1 0 0.387845
0.990306 0.1 -0.675 0.246688
0.990306 0.1 0.675 0.246432
1.02149 0.1 0.628368 0.259788
1.02149 0.1 -0.628368 0.259966
1.19808 0.1 0.0650961 0.386627
1.19808 0.1 -0.0650961 0.386658
0 0.1 1.2 0.154429
0 0.1 -1.2 0.154649
0.871687 0.1 -0.825 0.206198
0.905821 0.1 -0.7875 0.215905
0.905821 0.1 0.7875 0.215638
0.835107 0.1 0.8625 0.196772
0.835107 0.1 -0.8625 0.19704
0.93886 0.1 -0.75 0.226648
0.93886 0.1 0.75 0.226384
1.14316 0.1 -0.373132 0.336605
1.14316 0.1 0.373132 0.3367
0.96969 0.1 -0.7125 0.237906
0.96969 0.1 0.7125 0.237644
1.15704 0.1 -0.33574 0.3463
1.15704 0.1 0.33574 0.346143
0.756814 0.1 0.9375 0.179582
0.756814 0.1 -0.9375 0.179849
1.19808 0.1 -0.130192 0.383081
1.19808 0.1 0.130192 0.383019
0.797314 0.1 -0.903998 0.189346
0.714971 0.1 -0.975 0.172281
0.714971 0.1 0.975 0.172018
0.150379 0.1 -1.2 0.145043
0.150379 0.1 1.2 0.144823
1.20938 0.1 -0.0322656 0.391007
1.20938 0.1 0.0322656 0.390991
1.1744 0.1 -0.298261 0.357035
1.1744 0.1 0.298261 0.356911
1.20938 0.1 -0.0967968 0.388616
1.20938 0.1 0.0967968 0.38857
1.19808 0.1 0.195288 0.377085
1.19808 0.1 -0.195288 0.377179
0.350249 0.1 -1.1625 0.140599
0.350249 0.1 1.1625 0.140373
0.67013 0.1 -1.0125 0.16514
0.67013 0.1 1.0125 0.164881
0 0.1 1.21799 0.152932
0 0.1 -1.21799 0.153154
0.0363518 0.1 1.21799 0.152932
0.0363518 0.1 -1.21799 0.153154
1.11929 0.1 -0.48325 0.30971
1.11929 0.1 0.48325 0.30956
1.10076 0.1 -0.524714 0.29781
1.10076 0.1 0.524714 0.297579
1.20938 0.1 0.161328 0.383774
1.20938 0.1 -0.161328 0.383852
1.08012 0.1 -0.567953 0.284239
1.08012 0.1 0.567953 0.284127
0.623803 0.1 1.05 0.158316
0.623803 0.1 -1.05 0.158573
1.0579 0.1 0.612892 0.270567
1.0579 0.1 -0.612892 0.270581
1.15704 0.1 -0.402888 0.334336
1.15704 0.1 0.402888 0.334146
1.14316 0.1 -0.440974 0.323828
1.14316 0.1 0.440974 0.323927
1.19808 0.1 -0.260384 0.36906
1.19808 0.1 0.260384 0.368934
1.2267 0.1 0 0.396124
1.2267 0.1 -0.0636648 0.394934
1.2267 0.1 0.0636648 0.394906
1.1744 0.1 -0.364541 0.345896
1.1744 0.1 0.364541 0.345741
0.574156 0.1 -1.0875 0.152361
0.574156 0.1 1.0875 0.152107
1.20938 0.1 0.225859 0.376697
1.20938 0.1 -0.225859 0.376807
1.04168 0.1 -0.656246 0.258159
1.04168 0.1 0.656246 0.257893
1.2267 0.1 -0.12733 0.391352
1.2267 0.1 0.12733 0.391296
0.287374 0.1 -1.2 0.136571
0.287374 0.1 1.2 0.136344
1.02149 0.1 -0.702294 0.244929
1.02149 0.1 0.702294 0.244728
0.0757758 0.1 1.2375 0.151311
0.0757758 0.1 -1.2375 0.151536
0.871399 0.1 0.88201 0.196651
0.522864 0.1 -1.125 0.146752
0.522864 0.1 1.125 0.146505
1.2267 0.1 -0.190995 0.385439
1.2267 0.1 0.190995 0.385354
1.19808 0.1 -0.32548 0.358871
1.19808 0.1 0.32548 0.358711
0.990306 0.1 -0.75 0.232287
0.990306 0.1 0.75 0.232009
1.24275 0.1 -0.0314313 0.400912
1.24275 0.1 0.0314313 0.400896
1.20938 0.1 -0.29039 0.367601
1.20938 0.1 0.29039 0.367458
1.24275 0.1 -0.0942939 0.398519
1.24275 0.1 0.0942939 0.398473
0.93886 0.1 0.821002 0.213477
1.11929 0.1 -0.552286 0.295132
1.11929 0.1 0.552286 0.294958
1.15704 0.1 -0.470036 0.320785
1.15704 0.1 0.470036 0.320564
0.96969 0.1 -0.7875 0.223863
0.96969 0.1 0.7875 0.22358
0.93886 0.1 -0.825 0.213203
0.905821 0.1 -0.8625 0.20306
0.905821 0.1 0.8625 0.202776
1.1744 0.1 -0.430821 0.33303
1.1744 0.1 0.430821 0.332846
1.10076 0.1 -0.594676 0.282861
1.10076 0.1 0.594676 0.282603
1.14316 0.1 -0.508816 0.309619
1.14316 0.1 0.508816 0.309716
1.24275 0.1 -0.157157 0.393747
1.24275 0.1 0.157157 0.393668
1.2267 0.1 -0.254659 0.377298
1.2267 0.1 0.254659 0.377184
0.467897 0.1 -1.1625 0.141426
0.467897 0.1 1.1625 0.141188
1.08012 0.1 -0.638947 0.2691
1.08012 0.1 0.638947 0.268967
1.25511 0.1 0 0.404298
0.835107 0.1 -0.9375 0.185534
0.835107 0.1 0.9375 0.185251
0.871687 0.1 -0.903998 0.195272
1.25511 0.1 -0.0622446 0.403083
1.25511 0.1 0.0622446 0.403104
0.219992 0.1 -1.2375 0.132739
0.219992 0.1 1.2375 0.132514
0 0.1 -1.25701 0.149927
0 0.1 1.25701 0.149701
0.0363518 0.1 1.25701 0.149701
0.0363518 0.1 -1.25701 0.149927
0.797314 0.1 0.975 0.177051
0.797314 0.1 -0.975 0.177331
1.19808 0.1 -0.390576 0.346818
1.19808 0.1 0.390576 0.346625
1.0579 0.1 0.684997 0.255279
1.0579 0.1 -0.684997 0.255313
1.20938 0.1 -0.354921 0.356405
1.20938 0.1 0.354921 0.356228
1.25511 0.1 -0.124489 0.399473
1.25511 0.1 0.124489 0.399515
1.24275 0.1 -0.220019 0.386686
1.24275 0.1 0.220019 0.386575
0.756814 0.1 -1.0125 0.169564
0.756814 0.1 1.0125 0.169289
1.2267 0.1 -0.318324 0.367073
1.2267 0.1 0.318324 0.366928
0.411108 0.1 -1.2 0.137498
0.411108 0.1 1.2 0.13726
1.25511 0.1 0.186734 0.393587
1.25511 0.1 -0.186734 0.393527
0.714971 0.1 1.05 0.162313
0.714971 0.1 -1.05 0.162587
1.04168 0.1 -0.729162 0.242828
1.04168 0.1 0.729162 0.242537
1.24275 0.1 0.282882 0.377305
1.24275 0.1 -0.282882 0.377449
0 0.1 1.275 0.148221
0 0.1 -1.275 0.148446
1.1744 0.1 -0.497101 0.318684
1.1744 0.1 0.497101 0.318469
1.15704 0.1 -0.537184 0.305957
1.15704 0.1 0.537184 0.305705
1.2756 0.1 -0.0306099 0.410554
1.2756 0.1 0.0306099 0.410544
0.67013 0.1 -1.0875 0.156003
0.67013 0.1 1.0875 0.155731
1.2756 0.1 0.0918298 0.408126
1.2756 0.1 -0.0918298 0.408153
1.25511 0.1 -0.248978 0.385346
1.25511 0.1 0.248978 0.385421
1.20938 0.1 0.419453 0.343248
1.20938 0.1 -0.419453 0.343458
1.11929 0.1 -0.621321 0.279652
1.11929 0.1 0.621321 0.279453
1.14316 0.1 -0.576658 0.294341
1.14316 0.1 0.576658 0.29443
1.19808 0.1 -0.455672 0.333138
1.19808 0.1 0.455672 0.332912
1.02149 0.1 0.776219 0.22946
1.02149 0.1 -0.776219 0.229684
0.150379 0.1 1.275 0.138588
0.150379 0.1 -1.275 0.138814
1.2756 0.1 -0.15305 0.403375
1.2756 0.1 0.15305 0.403327
1.2267 0.1 -0.381989 0.354966
1.2267 0.1 0.381989 0.354789
1.10076 0.1 -0.664638 0.267176
1.10076 0.1 0.664638 0.266889
0.350249 0.1 -1.2375 0.133869
0.350249 0.1 1.2375 0.13363
0.623803 0.1 1.125 0.149667
0.623803 0.1 -1.125 0.149933
0.9386 0.1 0.88201 0.202709
0.990306 0.1 0.825 0.217909
0.990306 0.1 -0.825 0.217774
1.24275 0.1 0.345744 0.366023
1.24275 0.1 -0.345744 0.366203
1.2906 0.1 0 0.414758
1.07933 0.1 0.709942 0.253296
1.2906 0.1 -0.0604698 0.413569
1.2906 0.1 0.0604698 0.413537
1.08012 0.1 -0.709942 0.253452
0 0.1 1.29299 0.146739
0 0.1 -1.29299 0.146966
1.25511 0.1 -0.311223 0.375068
1.25511 0.1 0.311223 0.375153
1.2756 0.1 -0.21427 0.396299
1.2756 0.1 0.21427 0.39623
0.0363518 0.1 1.29299 0.146739
0.0363518 0.1 -1.29299 0.146966
1.2906 0.1 -0.12094 0.409982
1.2906 0.1 0.12094 0.409919
0.574156 0.1 1.1625 0.143937
0.574156 0.1 -1.1625 0.144197
0.96969 0.1 -0.8625 0.209805
0.96969 0.1 0.8625 0.209502
1.0579 0.1 0.757102 0.239703
1.0579 0.1 -0.757102 0.239758
1.1744 0.1 -0.563382 0.303209
1.1744 0.1 0.563382 0.302968
1.20938 0.1 0.483984 0.328749
1.20938 0.1 -0.483984 0.328993
1.2906 0.1 -0.181409 0.404052
1.2906 0.1 0.181409 0.403955
0.93886 0.1 -0.903998 0.201189
0.905821 0.1 0.9375 0.190042
0.905821 0.1 -0.9375 0.190343
1.2756 0.1 -0.275489 0.387036
1.2756 0.1 0.275489 0.386945
1.2267 0.1 -0.445654 0.341209
1.2267 0.1 0.445654 0.341001
1.15704 0.1 -0.604332 0.290175
1.15704 0.1 0.604332 0.289895
1.19808 0.1 -0.520768 0.31812
1.19808 0.1 0.520768 0.317863
1.30646 0.1 0.0298385 0.419287
1.30646 0.1 -0.0298385 0.419295
0.287374 0.1 1.275 0.129859
0.287374 0.1 -1.275 0.130093
0.871687 0.1 -0.975 0.182028
0.871687 0.1 0.975 0.18173
1.24275 0.1 -0.408607 0.353182
1.24275 0.1 0.408607 0.352969
0.522864 0.1 -1.2 0.139004
0.522864 0.1 1.2 0.138751
1.25511 0.1 0.373467 0.362982