# pMean  POINT_DATA 63889
# x  y  z  pMean
0 0.5 3.39582e-17 0.19233
0 0.5 -0.00617965 0.192333
0 0.5 0.00617965 0.192331
0.0124871 0.5 -0.00617965 0.192333
0.0124871 0.5 0.00617965 0.192331
0 0.5 -0.0688203 0.192062
0 0.5 0.0688203 0.192045
0.0124871 0.5 -0.0688203 0.192062
0.0124871 0.5 0.0688203 0.192045
0 0.5 -0.075 0.192005
0 0.5 0.075 0.191987
0 0.5 -0.0811797 0.191953
0 0.5 0.0811797 0.191933
0.0124871 0.5 -0.0811797 0.191953
0.0124871 0.5 0.0811797 0.191933
0.0757758 0.5 -0.0375 0.192346
0.0757758 0.5 0.0375 0.192337
0.0757758 0.5 -0.1125 0.191687
0.0757758 0.5 0.1125 0.191661
0 0.5 -0.14382 0.191144
0 0.5 0.14382 0.191111
0.0124871 0.5 -0.14382 0.191144
0.0124871 0.5 0.14382 0.191111
0 0.5 -0.15 0.191036
0 0.5 0.15 0.191002
0.151149 0.5 -0.00137326 0.192709
0 0.5 -0.15618 0.190932
0 0.5 0.15618 0.190896
0.0124871 0.5 -0.15618 0.190932
0.0124871 0.5 0.15618 0.190896
0.151149 0.5 -0.075 0.19239
0.151149 0.5 0.075 0.192373
0.0757758 0.5 -0.1875 0.190408
0.0757758 0.5 0.1875 0.190365
0.151149 0.5 -0.15 0.191411
0.151149 0.5 0.15 0.191376
0 0.5 -0.21882 0.189603
0 0.5 0.21882 0.189554
0.0124871 0.5 -0.21882 0.189603
0.0124871 0.5 0.21882 0.189554
0.219992 0.5 -0.0375 0.19308
0.219992 0.5 0.0375 0.193072
0 0.5 -0.225 0.189444
0 0.5 0.225 0.189393
0 0.5 -0.23118 0.189288
0 0.5 0.23118 0.189236
0.0124871 0.5 -0.23118 0.189288
0.0124871 0.5 0.23118 0.189236
0.219992 0.5 -0.1125 0.192434
0.219992 0.5 0.1125 0.192408
0.151149 0.5 -0.225 0.189792
0.151149 0.5 0.225 0.189741
0.0757758 0.5 -0.2625 0.188502
0.0757758 0.5 0.2625 0.188443
0.288069 0.5 -0.00137326 0.196448
0.219992 0.5 -0.1875 0.191103
0.219992 0.5 0.1875 0.19106
0 0.5 -0.29382 0.187452
0 0.5 0.29382 0.187386
0.0124871 0.5 -0.29382 0.187452
0.0124871 0.5 0.29382 0.187386
0.288069 0.5 -0.075 0.196129
0.288069 0.5 0.075 0.196112
0 0.5 -0.3 0.187244
0 0.5 0.3 0.187177
0 0.5 -0.30618 0.18704
0 0.5 0.30618 0.186971
0.0124871 0.5 -0.30618 0.18704
0.0124871 0.5 0.30618 0.186971
0.288069 0.5 -0.15 0.195073
0.288069 0.5 0.15 0.195038
0.151149 0.5 -0.3 0.187561
0.151149 0.5 0.3 0.187493
0.219992 0.5 -0.2625 0.189146
0.219992 0.5 0.2625 0.189086
0.0757758 0.5 -0.3375 0.186008
0.0757758 0.5 0.3375 0.185932
0.350249 0.5 -0.0375 0.199682
0.350249 0.5 0.0375 0.199673
0.288069 0.5 -0.225 0.193322
0.288069 0.5 0.225 0.193269
0.350249 0.5 -0.1125 0.198939
0.350249 0.5 0.1125 0.198911
0 0.5 0.36882 0.184644
0 0.5 -0.36882 0.184727
0.0124871 0.5 -0.36882 0.184727
0.0124871 0.5 0.36882 0.184644
0 0.5 -0.375 0.184473
0 0.5 0.375 0.18439
0 0.5 -0.38118 0.184223
0 0.5 0.38118 0.184138
0.0124871 0.5 -0.38118 0.184223
0.0124871 0.5 0.38118 0.184138
0.350249 0.5 -0.1875 0.197443
0.350249 0.5 0.1875 0.197397
0.219992 0.5 -0.3375 0.186584
0.219992 0.5 0.3375 0.186508
0.151149 0.5 -0.375 0.184753
0.151149 0.5 0.375 0.184669
0.411736 0.5 -0.00137326 0.204168
0.288069 0.5 -0.3 0.190917
0.288069 0.5 0.3 0.190847
0.411736 0.5 -0.075 0.203807
0.411736 0.5 0.075 0.203788
0.0757758 0.5 -0.4125 0.18296
0.0757758 0.5 0.4125 0.182868
0.350249 0.5 -0.2625 0.195237
0.350249 0.5 0.2625 0.195173
0.411736 0.5 -0.15 0.202609
0.411736 0.5 0.15 0.202571
0 0.5 -0.44382 0.181466
0 0.5 0.44382 0.181369
0.0124871 0.5 -0.44382 0.181466
0.0124871 0.5 0.44382 0.181369
0 0.5 -0.45 0.181171
0 0.5 0.45 0.181072
0 0.5 -0.45618 0.180878
0 0.5 0.45618 0.180778
0.0124871 0.5 -0.45618 0.180878
0.0124871 0.5 0.45618 0.180778
0.219992 0.5 -0.4125 0.183459
0.219992 0.5 0.4125 0.183367
0.411736 0.5 0.225 0.200573
0.411736 0.5 -0.225 0.20063
0.467897 0.5 0.0375 0.208474
0.467897 0.5 -0.0375 0.208484
0.288069 0.5 -0.375 0.187893
0.288069 0.5 0.375 0.187806
0.151149 0.5 -0.45 0.181408
0.151149 0.5 0.45 0.181309
0.467897 0.5 -0.1125 0.207634
0.467897 0.5 0.1125 0.207605
0.350249 0.5 -0.3375 0.192357
0.350249 0.5 0.3375 0.192276
0.0757758 0.5 0.4875 0.179296
0.0757758 0.5 -0.4875 0.179402
0.467897 0.5 -0.1875 0.205939
0.467897 0.5 0.1875 0.20589
0.411736 0.5 -0.3 0.197909
0.411736 0.5 0.3 0.197834
0 0.5 -0.51882 0.177716
0 0.5 0.51882 0.177604
0.0124871 0.5 -0.51882 0.177716
0.0124871 0.5 0.51882 0.177604
0.523432 0.5 -0.00137326 0.213795
0 0.5 -0.525 0.177383
0 0.5 0.525 0.177269
0.523432 0.5 -0.075 0.213382
0.523432 0.5 0.075 0.213362
0 0.5 -0.53118 0.177052
0 0.5 0.53118 0.176937
0.0124871 0.5 -0.53118 0.177052
0.0124871 0.5 0.53118 0.176937
0.288069 0.5 -0.45 0.184299
0.288069 0.5 0.45 0.184196
0.219992 0.5 -0.4875 0.179815
0.219992 0.5 0.4875 0.179708
0.467897 0.5 -0.2625 0.203435
0.467897 0.5 0.2625 0.203367
0.350249 0.5 -0.4125 0.18885
0.350249 0.5 0.4125 0.188752
0.523432 0.5 -0.15 0.212015
0.523432 0.5 0.15 0.211974
0.151149 0.5 -0.525 0.177574
0.151149 0.5 0.525 0.177459
0.411736 0.5 -0.375 0.194494
0.411736 0.5 0.375 0.194402
0.0757758 0.5 -0.5625 0.175383
0.0757758 0.5 0.5625 0.175262
0.523432 0.5 -0.225 0.20976
0.523432 0.5 0.225 0.209699
0.574156 0.5 0.0375 0.21891
0.574156 0.5 -0.0375 0.218921
0.467897 0.5 -0.3375 0.200163
0.467897 0.5 0.3375 0.200076
0.574156 0.5 -0.1125 0.217946
0.574156 0.5 0.1125 0.217915
0 0.5 -0.59382 0.173527
0 0.5 0.59382 0.1734
0.0124871 0.5 -0.59382 0.173527
0.0124871 0.5 0.59382 0.1734
0.288069 0.5 -0.525 0.180188
0.288069 0.5 0.525 0.18007
0 0.5 -0.6 0.17316
0 0.5 0.6 0.173032
0.350249 0.5 0.4875 0.18466
0.350249 0.5 -0.4875 0.184774
0.523432 0.5 -0.3 0.206661
0.523432 0.5 0.3 0.206581
0.219992 0.5 -0.5625 0.175703
0.219992 0.5 0.5625 0.175581
0.574156 0.5 -0.1875 0.216006
0.574156 0.5 0.1875 0.215954
0 0.5 -0.60618 0.172795
0 0.5 0.60618 0.172666
0.0124871 0.5 -0.60618 0.172795
0.0124871 0.5 0.60618 0.172666
0.411736 0.5 -0.45 0.190444
0.411736 0.5 0.45 0.190334
0.151149 0.5 -0.6 0.1733
0.151149 0.5 0.6 0.173172
0.62168 0.5 4.33681e-17 0.224587
0.467897 0.5 -0.4125 0.196186
0.467897 0.5 0.4125 0.196082
0.624316 0.5 0.0729401 0.224413
0.624316 0.5 -0.075 0.224435
0.574156 0.5 -0.2625 0.213142
0.574156 0.5 0.2625 0.21307
0.0757758 0.5 -0.6375 0.170956
0.0757758 0.5 0.6375 0.170821
0.624316 0.5 -0.15 0.222866
0.624316 0.5 0.15 0.222823
0.523432 0.5 -0.375 0.202775
0.523432 0.5 0.375 0.202677
0.350249 0.5 -0.5625 0.180191
0.350249 0.5 0.5625 0.180062
0.624316 0.5 -0.225 0.220282
0.624316 0.5 0.225 0.220218
0.288069 0.5 -0.6 0.175619
0.288069 0.5 0.6 0.175486
0.574156 0.5 -0.3375 0.209408
0.574156 0.5 0.3375 0.209316
0.411736 0.5 0.525 0.185699
0.411736 0.5 -0.525 0.185825
0 0.5 0.66882 0.168812
0 0.5 -0.66882 0.168952
0.0124871 0.5 -0.66882 0.168952
0.0124871 0.5 0.66882 0.168812
0.67013 0.5 -0.0375 0.230712
0.67013 0.5 0.0375 0.230701
0.219992 0.5 -0.6375 0.171175
0.219992 0.5 0.6375 0.171039
0 0.5 -0.675 0.168555
0 0.5 0.675 0.168414
0.467897 0.5 -0.4875 0.191574
0.467897 0.5 0.4875 0.191452
0.67013 0.5 -0.1125 0.229593
0.67013 0.5 0.1125 0.229559
0 0.5 -0.68118 0.168162
0 0.5 0.68118 0.168019
0.0124871 0.5 -0.68118 0.168162
0.0124871 0.5 0.68118 0.168019
0.523432 0.5 -0.45 0.198176
0.523432 0.5 0.45 0.19806
0.151149 0.5 -0.675 0.168643
0.151149 0.5 0.675 0.168501
0.624316 0.5 -0.3 0.216736
0.624316 0.5 0.3 0.21665
0.67013 0.5 -0.1875 0.227364
0.67013 0.5 0.1875 0.227308
0.574156 0.5 0.4125 0.204765
0.574156 0.5 -0.4125 0.204877
0.708171 0.5 3.5345e-17 0.236149
0.0757758 0.5 -0.7125 0.166174
0.0757758 0.5 0.7125 0.166026
0.715434 0.5 0.0736267 0.236425
0.715434 0.5 -0.075 0.23661
0.67013 0.5 -0.2625 0.224079
0.67013 0.5 0.2625 0.224002
0.350249 0.5 -0.6375 0.175167
0.350249 0.5 0.6375 0.175023
0.411736 0.5 0.6 0.180567
0.411736 0.5 -0.6 0.180709
0.624316 0.5 -0.375 0.212296
0.624316 0.5 0.375 0.212191
0.715434 0.5 -0.15 0.234808
0.715434 0.5 0.15 0.234762
0.467897 0.5 -0.5625 0.186402
0.467897 0.5 0.5625 0.186264
0.288069 0.5 -0.675 0.170652
0.288069 0.5 0.675 0.170505
0.523432 0.5 -0.525 0.192945
0.523432 0.5 0.525 0.192811
0 0.5 0.74382 0.163892
0 0.5 -0.74382 0.164045
0.0124871 0.5 -0.74382 0.164045
0.0124871 0.5 0.74382 0.163892
0.219992 0.5 0.7125 0.166137
0.219992 0.5 -0.7125 0.166287
0.715434 0.5 -0.225 0.231843
0.715434 0.5 0.225 0.231774
0 0.5 -0.75 0.163624
0 0.5 0.75 0.16347
0.67013 0.5 -0.3375 0.2198
0.67013 0.5 0.3375 0.219701
0.574156 0.5 -0.4875 0.199634
0.574156 0.5 0.4875 0.199504
0 0.5 0.75618 0.16305
0 0.5 -0.75618 0.163205
0.0124871 0.5 -0.75618 0.163205
0.0124871 0.5 0.75618 0.16305
0.756814 0.5 0.0375 0.24342
0.756814 0.5 -0.0375 0.243432
0.151149 0.5 0.75 0.163501
0.151149 0.5 -0.75 0.163655
0.756814 0.5 -0.1125 0.242145
0.756814 0.5 0.1125 0.242109
0.624316 0.5 -0.45 0.207055
0.624316 0.5 0.45 0.20693
0.715434 0.5 -0.3 0.227781
0.715434 0.5 0.3 0.227689
0.756814 0.5 -0.1875 0.239588
0.756814 0.5 0.1875 0.239528
0.67013 0.5 -0.4125 0.214617
0.67013 0.5 0.4125 0.214498
0.411736 0.5 -0.675 0.17517
0.411736 0.5 0.675 0.175014
0.467897 0.5 -0.6375 0.180751
0.467897 0.5 0.6375 0.180598
0.0757758 0.5 -0.7875 0.161093
0.0757758 0.5 0.7875 0.160933
0.350249 0.5 -0.7125 0.169771
0.350249 0.5 0.7125 0.169613
0.523432 0.5 0.6 0.187019
0.523432 0.5 -0.6 0.18717
0.797732 0.5 1.60462e-17 0.250172
0.756814 0.5 -0.2625 0.235816
0.756814 0.5 0.2625 0.235733
0.797732 0.5 0.0736267 0.249367
0.797732 0.5 -0.075 0.249489
0.288069 0.5 0.75 0.165191
0.288069 0.5 -0.75 0.16535
0.574156 0.5 -0.5625 0.193773
0.574156 0.5 0.5625 0.193625
0.715434 0.5 -0.375 0.22271
0.715434 0.5 0.375 0.222596
0.797732 0.5 -0.15 0.247429
0.797732 0.5 0.15 0.247379
0.624316 0.5 -0.525 0.201111
0.624316 0.5 0.525 0.200967
0.219992 0.5 -0.7875 0.161096
0.219992 0.5 0.7875 0.160934
0 0.5 -0.81882 0.158862
0 0.5 0.81882 0.158697
0.0124871 0.5 -0.81882 0.158862
0.0124871 0.5 0.81882 0.158697
0 0.5 -0.825 0.158421
0 0.5 0.825 0.158255
0.756814 0.5 -0.3375 0.230928
0.756814 0.5 0.3375 0.230822
0.67013 0.5 0.4875 0.208503
0.67013 0.5 -0.4875 0.208643
0.797732 0.5 0.225 0.243965
0.797732 0.5 -0.225 0.244039
0 0.5 -0.83118 0.157982
0 0.5 0.83118 0.157815
0.0124871 0.5 -0.83118 0.157982
0.0124871 0.5 0.83118 0.157815
0.835107 0.5 -0.0375 0.256664
0.835107 0.5 0.0375 0.256651
0.151149 0.5 -0.825 0.158395
0.151149 0.5 0.825 0.158229
0.835107 0.5 0.1125 0.255157
0.835107 0.5 -0.1125 0.255195
0.715434 0.5 -0.45 0.216733
0.715434 0.5 0.45 0.216599
0.797732 0.5 -0.3 0.239404
0.797732 0.5 0.3 0.239306
0.467897 0.5 0.7125 0.174538
0.467897 0.5 -0.7125 0.174706
0.523432 0.5 -0.675 0.180942
0.523432 0.5 0.675 0.180776
0.411736 0.5 0.75 0.169116
0.411736 0.5 -0.75 0.169286
0.835107 0.5 -0.1875 0.25228
0.835107 0.5 0.1875 0.252216
0.574156 0.5 0.6375 0.187229
0.574156 0.5 -0.6375 0.187394
0.350249 0.5 -0.7875 0.164071
0.350249 0.5 0.7875 0.1639
0.756814 0.5 -0.4125 0.225023
0.756814 0.5 0.4125 0.224895
0.0757758 0.5 -0.8625 0.155767
0.0757758 0.5 0.8625 0.155596
0.624316 0.5 -0.6 0.194572
0.624316 0.5 0.6 0.19441
0.872064 0.5 4.81386e-17 0.263561
0.870122 0.5 0.075 0.262272
0.288069 0.5 -0.825 0.159776
0.288069 0.5 0.825 0.159604
0.67013 0.5 -0.5625 0.201985
0.67013 0.5 0.5625 0.201827
0.872064 0.5 -0.075 0.262783
0.835107 0.5 -0.2625 0.247985
0.835107 0.5 0.2625 0.247895
0.797732 0.5 -0.375 0.233631
0.797732 0.5 0.375 0.233509
0.872064 0.5 0.14794 0.260388
0.872064 0.5 -0.15 0.260441
0.715434 0.5 0.525 0.209821
0.715434 0.5 -0.525 0.209975
0.219992 0.5 -0.8625 0.155659
0.219992 0.5 0.8625 0.155486
0 0.5 -0.89382 0.153457
0 0.5 0.89382 0.153281
0.0124871 0.5 -0.89382 0.153457
0.0124871 0.5 0.89382 0.153281
0 0.5 -0.9 0.153
0 0.5 0.9 0.152823
0.756814 0.5 -0.4875 0.218216
0.756814 0.5 0.4875 0.218066
0.872064 0.5 -0.225 0.256592
0.872064 0.5 0.225 0.256512
0.835107 0.5 0.3375 0.242309
0.835107 0.5 -0.3375 0.242423
0 0.5 -0.90618 0.152545
0 0.5 0.90618 0.152367
0.0124871 0.5 -0.90618 0.152545
0.0124871 0.5 0.90618 0.152367
0.905821 0.5 0.0375 0.270221
0.905821 0.5 -0.0375 0.270235
0.151149 0.5 -0.9 0.152917
0.151149 0.5 0.9 0.152739
0.905821 0.5 -0.1125 0.268569
0.905821 0.5 0.1125 0.268527
0.523432 0.5 -0.75 0.174354
0.523432 0.5 0.75 0.174173
0.574156 0.5 -0.7125 0.180598
0.574156 0.5 0.7125 0.180418
0.797732 0.5 -0.45 0.226839
0.797732 0.5 0.45 0.226695
0.467897 0.5 0.7875 0.168167
0.467897 0.5 -0.7875 0.168348
0.624316 0.5 -0.675 0.187549
0.624316 0.5 0.675 0.187371
0.411736 0.5 -0.825 0.16313
0.411736 0.5 0.825 0.162948
0.872064 0.5 -0.3 0.251329
0.872064 0.5 0.3 0.251224
0.67013 0.5 0.6375 0.194591
0.67013 0.5 -0.6375 0.194767
0.905821 0.5 -0.1875 0.265264
0.905821 0.5 0.1875 0.265195
0.350249 0.5 -0.8625 0.158133
0.350249 0.5 0.8625 0.157951
0.835107 0.5 -0.4125 0.235714
0.835107 0.5 0.4125 0.235577
0.715434 0.5 -0.6 0.202569
0.715434 0.5 0.6 0.202395
0.939201 0.5 3.31766e-17 0.276969
0.0757758 0.5 -0.9375 0.150249
0.0757758 0.5 0.9375 0.150067
0.939112 0.5 0.075 0.275913
0.939201 0.5 -0.075 0.276092
0.756814 0.5 -0.5625 0.210663
0.756814 0.5 0.5625 0.210493
0.905821 0.5 0.2625 0.260304
0.905821 0.5 -0.2625 0.2604
0.288069 0.5 -0.9 0.15399
0.288069 0.5 0.9 0.153807
0.872064 0.5 -0.375 0.244785
0.872064 0.5 0.375 0.244655
0.939201 0.5 0.148627 0.273299
0.939201 0.5 -0.15 0.273454
0.797732 0.5 -0.525 0.219182
0.797732 0.5 0.525 0.219016
0.219992 0.5 -0.9375 0.150031
0.219992 0.5 0.9375 0.149847
0.939201 0.5 -0.225 0.269122
0.939201 0.5 0.225 0.269036
0.905821 0.5 -0.3375 0.254094
0.905821 0.5 0.3375 0.253972
0.835107 0.5 -0.4875 0.228004
0.835107 0.5 0.4875 0.227843
0 0.5 -0.96882 0.14788
0 0.5 0.96882 0.147694
0.0124871 0.5 -0.96882 0.14788
0.0124871 0.5 0.96882 0.147694
0.96969 0.5 -0.0375 0.283518
0.96969 0.5 0.0375 0.283503
0.574156 0.5 0.7875 0.173292
0.574156 0.5 -0.7875 0.173486
0 0.5 -0.975 0.147411
0 0.5 0.975 0.147224
0.624316 0.5 -0.75 0.180156
0.624316 0.5 0.75 0.179962
0.96969 0.5 -0.1125 0.28165
0.96969 0.5 0.1125 0.281606
0.523432 0.5 -0.825 0.167498
0.523432 0.5 0.825 0.167303
0.67013 0.5 -0.7125 0.187112
0.67013 0.5 0.7125 0.186919
0 0.5 -0.98118 0.146945
0 0.5 0.98118 0.146757
0.467897 0.5 -0.8625 0.16176
0.467897 0.5 0.8625 0.161566
0.0124871 0.5 -0.98118 0.146945
0.0124871 0.5 0.98118 0.146757
0.872064 0.5 0.45 0.236957
0.872064 0.5 -0.45 0.237112
0.715434 0.5 -0.675 0.194648
0.715434 0.5 0.675 0.194457
0.939201 0.5 0.3 0.263088
0.939201 0.5 -0.3 0.263201
0.151149 0.5 -0.975 0.147272
0.151149 0.5 0.975 0.147084
0.96969 0.5 -0.1875 0.277947
0.96969 0.5 0.1875 0.277874
0.756814 0.5 0.6375 0.202319
0.756814 0.5 -0.6375 0.202508
0.411736 0.5 -0.9 0.156776
0.411736 0.5 0.9 0.156582
0.905821 0.5 -0.4125 0.246524
0.905821 0.5 0.4125 0.246376
0.995005 0.5 0.0749309 0.287691
0.797732 0.5 -0.6 0.210826
0.797732 0.5 0.6 0.210639
1.00005 0.5 3.26706e-18 0.290004
0.350249 0.5 0.9375 0.15183
0.350249 0.5 -0.9375 0.152023
1.00005 0.5 -0.0749309 0.289016
0.96969 0.5 -0.2625 0.272505
0.96969 0.5 0.2625 0.272403
0.835107 0.5 -0.5625 0.219487
0.835107 0.5 0.5625 0.219305
1.00005 0.5 -0.149862 0.286055
0.939201 0.5 -0.375 0.255847
0.939201 0.5 0.375 0.255707
1.00029 0.5 0.148988 0.28582
0.0757758 0.5 -1.0125 0.14459
0.0757758 0.5 1.0125 0.144398
0.288069 0.5 -0.975 0.148052
0.288069 0.5 0.975 0.147859
0.872064 0.5 -0.525 0.228489
0.872064 0.5 0.525 0.228311
1.00005 0.5 0.224793 0.281123
1.00005 0.5 -0.224793 0.281196
0.96969 0.5 0.3375 0.265324
0.96969 0.5 -0.3375 0.265455
1.02709 0.5 0.0368226 0.296603
1.02709 0.5 -0.0368226 0.296619
0.905821 0.5 0.4875 0.237682
0.905821 0.5 -0.4875 0.237855
1.02709 0.5 -0.110468 0.294568
1.02709 0.5 0.110468 0.294555
0.67013 0.5 -0.7875 0.179142
0.67013 0.5 0.7875 0.178934
0.624316 0.5 -0.825 0.1725
0.624316 0.5 0.825 0.172292
0.219992 0.5 -1.0125 0.144265
0.219992 0.5 1.0125 0.144072
0.574156 0.5 -0.8625 0.166157
0.574156 0.5 0.8625 0.16595
0.715434 0.5 -0.75 0.18635
0.715434 0.5 0.75 0.186142
0.756814 0.5 -0.7125 0.193897
0.756814 0.5 0.7125 0.193691
0.523432 0.5 0.9 0.160252
0.523432 0.5 -0.9 0.160458
0.939201 0.5 0.45 0.247077
0.939201 0.5 -0.45 0.247242
1.04168 0.5 0 0.300515
1.02709 0.5 -0.184113 0.290501
1.02709 0.5 0.184113 0.290423
0 0.5 1.04382 0.141989
0 0.5 -1.04382 0.142184
0.0124871 0.5 -1.04382 0.142184
0.0124871 0.5 1.04382 0.141989
1.00005 0.5 -0.299723 0.274565
1.00005 0.5 0.299723 0.274468
1.04168 0.5 -0.0729162 0.299492
1.04168 0.5 0.0729162 0.299461
0.797732 0.5 -0.675 0.201926
0.797732 0.5 0.675 0.201721
0.467897 0.5 -0.9375 0.155017
0.467897 0.5 0.9375 0.154811
0 0.5 -1.05 0.141708
0 0.5 1.05 0.141512
0.835107 0.5 0.6375 0.210123
0.835107 0.5 -0.6375 0.210326
1.04168 0.5 -0.145832 0.296415
1.04168 0.5 0.145832 0.296352
0.96969 0.5 -0.4125 0.256991
0.96969 0.5 0.4125 0.256833
0 0.5 -1.05618 0.141234
0 0.5 1.05618 0.141037
0.0124871 0.5 -1.05618 0.141234
0.0124871 0.5 1.05618 0.141037
1.05694 0.5 -0.0360765 0.304341
1.05694 0.5 0.0360765 0.304334
0.411736 0.5 0.975 0.150088
0.411736 0.5 -0.975 0.150292
0.872064 0.5 -0.6 0.219109
0.872064 0.5 0.6 0.218909
1.02709 0.5 -0.257758 0.284525
1.02709 0.5 0.257758 0.284417
0.151149 0.5 -1.05 0.141517
0.151149 0.5 1.05 0.14132
1.05694 0.5 -0.108229 0.302265
1.05694 0.5 0.108229 0.302948
1.04168 0.5 -0.218749 0.29136
1.04168 0.5 0.218749 0.291267
0.905821 0.5 -0.5625 0.228292
0.905821 0.5 0.5625 0.228097
1.00005 0.5 -0.374654 0.266339
1.00005 0.5 0.374654 0.266218
0.350249 0.5 -1.0125 0.145804
0.350249 0.5 1.0125 0.145601
1.05694 0.5 -0.180382 0.298151
1.05694 0.5 0.180382 0.298115
1.07319 0.5 0.0709442 0.30738
0.939201 0.5 0.525 0.237412
0.939201 0.5 -0.525 0.237602
1.02709 0.5 -0.331404 0.276794
1.02709 0.5 0.331404 0.276656
1.08112 0.5 -3.98986e-18 0.310941
1.04168 0.5 -0.291665 0.284458
1.04168 0.5 0.291665 0.284334
1.08112 0.5 -0.0709442 0.309902
0.96969 0.5 -0.4875 0.247309
0.96969 0.5 0.4875 0.247125
1.05694 0.5 -0.252535 0.292104
1.05694 0.5 0.252535 0.292054
0.288069 0.5 -1.05 0.142021
0.288069 0.5 1.05 0.141818
0.0757758 0.5 -1.0875 0.138841
0.0757758 0.5 1.0875 0.138641
1.08112 0.5 -0.141888 0.306783
1.08145 0.5 0.140165 0.306395
0.715434 0.5 -0.825 0.177804
0.715434 0.5 0.825 0.177581
0.756814 0.5 -0.7875 0.184982
0.756814 0.5 0.7875 0.184758
0.67013 0.5 -0.8625 0.170973
0.67013 0.5 0.8625 0.170752
0.797732 0.5 0.75 0.192423
0.797732 0.5 -0.75 0.192646
0.624316 0.5 -0.9 0.164686
0.624316 0.5 0.9 0.164465
1.00005 0.5 -0.449585 0.256738
1.00005 0.5 0.449585 0.256593
0.835107 0.5 -0.7125 0.200695
0.835107 0.5 0.7125 0.200474
0.574156 0.5 -0.9375 0.158699
0.574156 0.5 0.9375 0.158481
1.10076 0.5 0.034981 0.316366
1.10076 0.5 -0.034981 0.316382
1.08112 0.5 -0.212833 0.301657
1.08112 0.5 0.212833 0.301587
0.872064 0.5 -0.675 0.209156
0.872064 0.5 0.675 0.208936
1.04168 0.5 -0.364581 0.275888
1.04168 0.5 0.364581 0.275735
1.02709 0.5 0.405049 0.267352
1.02709 0.5 -0.405049 0.267519
1.05694 0.5 -0.324688 0.284275
1.05694 0.5 0.324688 0.284208
1.10076 0.5 -0.104943 0.314284
1.10076 0.5 0.104943 0.314236
0.523432 0.5 -0.975 0.153315
0.523432 0.5 0.975 0.153098
0.905821 0.5 -0.6375 0.218052
0.905821 0.5 0.6375 0.217835
0.219992 0.5 -1.0875 0.138422
0.219992 0.5 1.0875 0.13822
1.11376 0.5 0 0.31991
0.939201 0.5 -0.6 0.227165
0.939201 0.5 0.6 0.226951
1.10076 0.5 -0.174905 0.310111
1.10076 0.5 0.174905 0.310032
0.467897 0.5 -1.0125 0.148189
0.467897 0.5 1.0125 0.147974
1.11376 0.5 -0.0693118 0.31886
1.11376 0.5 0.0693118 0.318828
1.08112 0.5 -0.283777 0.294648
1.08112 0.5 0.283777 0.294554
0 0.5 1.11882 0.136215
0 0.5 -1.11882 0.136418
0.0124871 0.5 -1.11882 0.136418
0.0124871 0.5 1.11882 0.136215
0.96969 0.5 -0.5625 0.236695
0.96969 0.5 0.5625 0.236487
1.11376 0.5 -0.138624 0.315698
1.11376 0.5 0.138624 0.315289
0 0.5 -1.125 0.135939
0 0.5 1.125 0.135735
1.10076 0.5 0.244867 0.303856
1.10076 0.5 -0.244867 0.303967
0.411736 0.5 -1.05 0.143743
0.411736 0.5 1.05 0.143529
1.05694 0.5 -0.396841 0.27487
1.05694 0.5 0.396841 0.274785
1.00005 0.5 -0.524516 0.246017
1.00005 0.5 0.524516 0.24585
1.04168 0.5 -0.437497 0.26588
1.04168 0.5 0.437497 0.265698
0 0.5 -1.13118 0.135462
0 0.5 1.13118 0.135257
0.0124871 0.5 -1.13118 0.135462
0.0124871 0.5 1.13118 0.135257
1.11376 0.5 -0.207935 0.310494
1.11376 0.5 0.207935 0.310398
1.02709 0.5 -0.478694 0.256951
1.02709 0.5 0.478694 0.256756
0.151149 0.5 -1.125 0.135698
0.151149 0.5 1.125 0.135493
1.08112 0.5 0.354721 0.285812
1.08112 0.5 -0.354721 0.285929
1.13882 0.5 0.0340295 0.326858
1.13882 0.5 -0.0340295 0.326871
0.350249 0.5 -1.0875 0.139532
0.350249 0.5 1.0875 0.13932
1.13882 0.5 -0.102088 0.324719
1.13882 0.5 0.102088 0.324942
1.10076 0.5 0.314829 0.29585
1.10076 0.5 -0.314829 0.295991
0.756814 0.5 -0.8625 0.175895
0.756814 0.5 0.8625 0.175657
0.797732 0.5 -0.825 0.183141
0.797732 0.5 0.825 0.182902
1.11376 0.5 -0.277247 0.30337
1.11376 0.5 0.277247 0.303243
0.835107 0.5 0.7875 0.190534
0.835107 0.5 -0.7875 0.190773
0.715434 0.5 -0.9 0.169131
0.715434 0.5 0.9 0.168894
0.872064 0.5 -0.75 0.198828
0.872064 0.5 0.75 0.19859
1.13882 0.5 0.170147 0.320382
1.13882 0.5 -0.170147 0.320444
0.67013 0.5 -0.9375 0.162712
0.67013 0.5 0.9375 0.162477
0.905821 0.5 -0.7125 0.207316
0.905821 0.5 0.7125 0.207078
1.05694 0.5 -0.468994 0.264136
1.05694 0.5 0.468994 0.264033
0.939201 0.5 -0.675 0.216141
0.939201 0.5 0.675 0.215906
0.624316 0.5 -0.975 0.156805
0.624316 0.5 0.975 0.156573
1.04168 0.5 -0.510414 0.254696
1.04168 0.5 0.510414 0.254487
0.96969 0.5 -0.6375 0.225395
0.96969 0.5 0.6375 0.225162
0.288069 0.5 -1.125 0.135943
0.288069 0.5 1.125 0.135733
1.16179 0.5 0 0.333808
1.08112 0.5 -0.425665 0.275724
1.08112 0.5 0.425665 0.275583
1.13882 0.5 0.238206 0.314057
1.13882 0.5 -0.238206 0.314144
1.16179 0.5 -0.0669104 0.332715
1.16179 0.5 0.0669104 0.333683
0.574156 0.5 1.0125 0.150965
0.574156 0.5 -1.0125 0.151194
0.0757758 0.5 1.1625 0.132844
0.0757758 0.5 -1.1625 0.133051
1.00005 0.5 -0.599447 0.234441
1.00005 0.5 0.599447 0.234251
1.10076 0.5 -0.384791 0.286383
1.10076 0.5 0.384791 0.286211
1.02709 0.5 -0.552339 0.245361
1.02709 0.5 0.552339 0.24514
1.11376 0.5 0.346559 0.294335
1.11376 0.5 -0.346559 0.294493
1.16179 0.5 -0.133821 0.329445
1.16179 0.5 0.133821 0.32951
0.523432 0.5 -1.05 0.146142
0.523432 0.5 1.05 0.145916
1.17463 0.5 -0.0331343 0.337392
1.17463 0.5 0.0331343 0.337376
1.17463 0.5 -0.099403 0.335197
1.17463 0.5 0.099403 0.335147
1.16179 0.5 -0.200731 0.324066
1.16179 0.5 0.200731 0.324032
1.13882 0.5 -0.306265 0.305959
1.13882 0.5 0.306265 0.305846
0.219992 0.5 -1.1625 0.132535
0.219992 0.5 1.1625 0.132325
0.467897 0.5 -1.0875 0.141345
0.467897 0.5 1.0875 0.141121
1.17463 0.5 -0.165672 0.330827
1.17463 0.5 0.165672 0.330744
1.05694 0.5 0.541147 0.252221
1.05694 0.5 -0.541147 0.252343
1.18772 0.5 0 0.341399
1.11376 0.5 -0.415871 0.284081
1.11376 0.5 0.415871 0.283894
1.18772 0.5 -0.065614 0.340302
1.18772 0.5 0.065614 0.340121
1.08112 0.5 -0.49661 0.264287
1.08112 0.5 0.49661 0.264122
1.10076 0.5 -0.454752 0.275378
1.10076 0.5 0.454752 0.275177
1.18534 0.5 0.118202 0.336931
1.16179 0.5 -0.267642 0.316694
1.16179 0.5 0.267642 0.316647
0 0.5 -1.19382 0.13063
0 0.5 1.19382 0.130419
1.04168 0.5 -0.58333 0.242595
1.04168 0.5 0.58333 0.24236
0.0124871 0.5 -1.19382 0.13063
0.0124871 0.5 1.19382 0.130419
1.18772 0.5 -0.131228 0.336997
1.17463 0.5 -0.23194 0.324378
1.17463 0.5 0.23194 0.324263
0.411736 0.5 -1.125 0.137185
0.411736 0.5 1.125 0.136964
1.13882 0.5 -0.374324 0.296081
1.13882 0.5 0.374324 0.295943
0 0.5 -1.2 0.130151
0 0.5 1.2 0.12994
0.905821 0.5 -0.7875 0.196332
0.905821 0.5 0.7875 0.196076
0.872064 0.5 -0.825 0.188313
0.872064 0.5 0.825 0.188058
0.835107 0.5 0.8625 0.180464
0.835107 0.5 -0.8625 0.180719
0.939201 0.5 -0.75 0.204747
0.939201 0.5 0.75 0.204491
0.797732 0.5 -0.9 0.17355
0.797732 0.5 0.9 0.173297
1.02709 0.5 -0.625985 0.232995
1.02709 0.5 0.625985 0.23275
0.96969 0.5 -0.7125 0.213611
0.96969 0.5 0.7125 0.213357
1.18772 0.5 -0.196842 0.331547
1.18772 0.5 0.196842 0.331448
0.756814 0.5 -0.9375 0.16676
0.756814 0.5 0.9375 0.166509
0 0.5 -1.20618 0.129674
0 0.5 1.20618 0.129463
1.00005 0.5 -0.674378 0.222273
1.00005 0.5 0.674378 0.222061
0.0124871 0.5 -1.20618 0.129674
0.0124871 0.5 1.20618 0.129463
1.16179 0.5 -0.334552 0.307493
1.16179 0.5 0.334552 0.307432
0.715434 0.5 -0.975 0.160438
0.715434 0.5 0.975 0.16019
0.151149 0.5 -1.2 0.129858
0.151149 0.5 1.2 0.129646
1.20942 0.5 -0.0322645 0.34825
1.20942 0.5 0.0322645 0.348328
1.17463 0.5 -0.298209 0.315985
1.17463 0.5 0.298209 0.315838
1.20942 0.5 -0.0967935 0.346015
1.20942 0.5 0.0967935 0.345967
0.350249 0.5 -1.1625 0.13325
0.350249 0.5 1.1625 0.133031
0.67013 0.5 1.0125 0.154208
0.67013 0.5 -1.0125 0.154452
1.11376 0.5 -0.485183 0.272385
1.11376 0.5 0.485183 0.272169
1.18772 0.5 -0.262456 0.324067
1.18772 0.5 0.262456 0.323935
1.10076 0.5 0.524714 0.263017
1.10076 0.5 -0.524714 0.263245
1.20942 0.5 -0.161322 0.341563
1.20942 0.5 0.161322 0.341483
1.08112 0.5 0.567554 0.251706
1.08112 0.5 -0.567554 0.251894
0.624316 0.5 -1.05 0.148941
0.624316 0.5 1.05 0.148699
1.13882 0.5 -0.442383 0.28475
1.13882 0.5 0.442383 0.284587
1.05694 0.5 0.6133 0.239602
1.05694 0.5 -0.6133 0.239744
1.16179 0.5 -0.401463 0.296681
1.16179 0.5 0.401463 0.296604
0.574156 0.5 1.0875 0.143476
0.574156 0.5 -1.0875 0.143715
1.17463 0.5 -0.364478 0.305839
1.17463 0.5 0.364478 0.30566
1.20942 0.5 0.225851 0.334873
1.20942 0.5 -0.225851 0.334985
1.23036 0.5 1.15648e-18 0.355247
1.2294 0.5 0.0634819 0.35363
1.04168 0.5 -0.656246 0.229853
1.04168 0.5 0.656246 0.229594
1.23036 0.5 -0.0634819 0.354102
1.18772 0.5 0.32807 0.314553
1.18772 0.5 -0.32807 0.314717
0.288069 0.5 1.2 0.129642
0.288069 0.5 -1.2 0.12986
1.23036 0.5 -0.126964 0.3507
1.23036 0.5 0.126964 0.350727
0.0757758 0.5 -1.2375 0.127265
0.0757758 0.5 1.2375 0.127051
0.523432 0.5 -1.125 0.139006
0.523432 0.5 1.125 0.13877
1.02709 0.5 0.69963 0.219909
1.02709 0.5 -0.69963 0.220177
1.24275 0.5 -0.0314313 0.359218
1.24275 0.5 0.0314313 0.359201
1.20942 0.5 -0.29038 0.32641
1.20942 0.5 0.29038 0.326266
1.11376 0.5 -0.554494 0.259699
1.11376 0.5 0.554494 0.259455
1.23036 0.5 -0.190446 0.345098
1.23036 0.5 0.190446 0.345137
1.24275 0.5 -0.0942939 0.356947
1.24275 0.5 0.0942939 0.356896
1.13882 0.5 -0.510442 0.272229
1.13882 0.5 0.510442 0.272041
0.96969 0.5 0.7875 0.201298
0.96969 0.5 -0.7875 0.201571
1.00005 0.5 0.749309 0.209536
1.00005 0.5 -0.749309 0.209769
0.939201 0.5 -0.825 0.1932
0.939201 0.5 0.825 0.192928
0.905821 0.5 -0.8625 0.18527
0.905821 0.5 0.8625 0.184998
1.17463 0.5 0.430746 0.293972
1.17463 0.5 -0.430746 0.294182
1.10076 0.5 0.594676 0.250033
1.10076 0.5 -0.594676 0.250288
1.18772 0.5 -0.393684 0.303712
1.18772 0.5 0.393684 0.303516
1.24275 0.5 -0.157157 0.35242
1.24275 0.5 0.157157 0.352335
1.16179 0.5 -0.468373 0.284508
1.16179 0.5 0.468373 0.284413
0.467897 0.5 -1.1625 0.134544
0.467897 0.5 1.1625 0.134312
0.872064 0.5 -0.9 0.177766
0.872064 0.5 0.9 0.177495
1.25401 0.5 0 0.362745
0.835107 0.5 -0.9375 0.170671
0.835107 0.5 0.9375 0.170403
1.25401 0.5 0.0622994 0.361557
1.25401 0.5 -0.0622994 0.3616
1.08112 0.5 0.638498 0.238603
1.08112 0.5 -0.638498 0.238814
1.23036 0.5 -0.253928 0.337404
1.23036 0.5 0.253928 0.337453
0.219992 0.5 -1.2375 0.126643
0.219992 0.5 1.2375 0.126427
1.2531 0.5 0.121964 0.358154
1.05694 0.5 -0.685453 0.226631
1.05694 0.5 0.685453 0.226468
0.797732 0.5 -0.975 0.163998
0.797732 0.5 0.975 0.163733
1.25401 0.5 -0.124599 0.358171
1.20942 0.5 -0.354909 0.316021
1.20942 0.5 0.354909 0.315846
1.24275 0.5 -0.220019 0.34572
1.24275 0.5 0.220019 0.345602
0.756814 0.5 -1.0125 0.157682
0.756814 0.5 1.0125 0.15742
1.25401 0.5 -0.186898 0.352514
1.25401 0.5 0.186898 0.352488
0.411736 0.5 -1.2 0.130668
0.411736 0.5 1.2 0.130439
0 0.5 -1.26882 0.124859
0 0.5 1.26882 0.124642
0.0124871 0.5 -1.26882 0.124859
0.0124871 0.5 1.26882 0.124642
0.715434 0.5 -1.05 0.151819
0.715434 0.5 1.05 0.151561
1.23036 0.5 -0.317409 0.327768
1.23036 0.5 0.317409 0.327823
1.04168 0.5 -0.729162 0.216777
1.04168 0.5 0.729162 0.216496
1.18772 0.5 -0.459298 0.291303
1.18772 0.5 0.459298 0.291076
1.24275 0.5 0.282882 0.336819
1.24275 0.5 -0.282882 0.336971
0 0.5 -1.275 0.124383
0 0.5 1.275 0.124166
1.27472 0.5 -0.0306319 0.370201
1.27472 0.5 0.0306319 0.370189
1.17463 0.5 -0.497015 0.281274
1.17463 0.5 0.497015 0.281035
1.11376 0.5 0.623806 0.246032
1.11376 0.5 -0.623806 0.246302
1.13882 0.5 -0.578501 0.258851
1.13882 0.5 0.578501 0.258638
0.67013 0.5 -1.0875 0.146275
0.67013 0.5 1.0875 0.146021
1.27472 0.5 0.0918957 0.366294
1.27472 0.5 -0.0918957 0.367893
1.25401 0.5 -0.249198 0.344731
1.25401 0.5 0.249198 0.344694
1.16179 0.5 -0.535283 0.271276
1.16179 0.5 0.535283 0.271161
1.20942 0.5 0.419438 0.303855
1.20942 0.5 -0.419438 0.304062
0 0.5 -1.28118 0.123909
0 0.5 1.28118 0.123691
0.0124871 0.5 -1.28118 0.123909
0.0124871 0.5 1.28118 0.123691
1.27472 0.5 -0.15316 0.363294
1.27472 0.5 0.15316 0.363229
0.151149 0.5 -1.275 0.124038
0.151149 0.5 1.275 0.12382
1.02709 0.5 -0.773275 0.20716
1.02709 0.5 0.773275 0.206872
1.10076 0.5 -0.664638 0.236749
1.10076 0.5 0.664638 0.236469
0.350249 0.5 1.2375 0.126775
0.350249 0.5 -1.2375 0.127001
0.624316 0.5 -1.125 0.141163
0.624316 0.5 1.125 0.140912
1.23036 0.5 -0.380891 0.316402
1.23036 0.5 0.380891 0.316458
1.24275 0.5 -0.345744 0.326345
1.24275 0.5 0.345744 0.326159
1.2906 0.5 0 0.375946
1.2906 0.5 -0.0604698 0.374795
1.2906 0.5 0.0604698 0.37476
1.25401 0.5 -0.311497 0.334966
1.25401 0.5 0.311497 0.334917
1.27472 0.5 -0.214423 0.356478
1.27472 0.5 0.214423 0.356388
1.08112 0.5 0.709442 0.225117
1.08112 0.5 -0.709442 0.225349
1.00005 0.5 -0.824239 0.197168
1.00005 0.5 0.824239 0.196917
1.2906 0.5 -0.12094 0.371318
1.2906 0.5 0.12094 0.371249
0.574156 0.5 1.1625 0.136079
0.574156 0.5 -1.1625 0.136326
0.96969 0.5 -0.8625 0.189504
0.96969 0.5 0.8625 0.189214
1.18772 0.5 -0.524912 0.27779
1.18772 0.5 0.524912 0.277534
1.05694 0.5 -0.757606 0.213327
1.05694 0.5 0.757606 0.213144
0.939201 0.5 0.9 0.181396
0.939201 0.5 -0.9 0.181685
1.30091 0.5 -0.0299772 0.379607
1.30091 0.5 0.0299772 0.379589
1.20942 0.5 -0.483967 0.290792
1.20942 0.5 0.483967 0.290555
1.17463 0.5 -0.563283 0.267459
1.17463 0.5 0.563283 0.267192
1.2906 0.5 -0.181409 0.365566
1.2906 0.5 0.181409 0.365462
0.905821 0.5 -0.9375 0.174279
0.905821 0.5 0.9375 0.173993
1.30091 0.5 -0.0899315 0.377278
1.30091 0.5 0.0899315 0.375457
1.27472 0.5 -0.275687 0.347563
1.27472 0.5 0.275687 0.347446
0.288069 0.5 -1.275 0.123815
0.288069 0.5 1.275 0.12359
0.872064 0.5 -0.975 0.167325
0.872064 0.5 0.975 0.167042
1.23036 0.5 -0.444373 0.303554
1.23036 0.5 0.444373 0.303607
1.24275 0.5 -0.408607 0.314084