# pMean  POINT_DATA 91129
# x  y  z  pMean
0 0 0 0.236748
0 0.00368111 0 0.236413
0 0.00749587 0 0.235679
0 0.0114491 0 0.234944
0 0.0155459 0 0.234278
0 0.0197915 0 0.233579
0 0.0241911 0 0.232789
0 0.0287506 0 0.231918
0 0.0334755 0 0.230997
0 0.038372 0 0.230045
0 0.0434463 0 0.229072
0 0.0487048 0 0.228088
0 0.0541543 0 0.227121
0 0.0598016 0 0.226217
0 0.0656539 0 0.225386
0 0.0717187 0 0.224588
0.0757758 0.00184056 0 0.236748
0.0757758 0.00558849 3.46945e-18 0.236078
0.0757758 0.0094725 0 0.23528
0.0757758 0.0134975 0 0.234607
0.0757758 0.0176687 0 0.23395
0 0.0780037 0 0.223781
0.0757758 0.0219913 0 0.233208
0.0757758 0.0264709 0 0.23237
0.0757758 0.031113 3.46945e-18 0.231466
0.0757758 0.0359238 -3.46945e-18 0.230527
0 0.0845169 0 0.222958
0.0757758 0.0409092 0 0.229562
0.0757758 0.0460756 0 0.228581
0 0.0912666 0 0.222122
0.0757758 0.0514296 3.46945e-18 0.227595
0.0757758 0.0569779 0 0.226647
0 0.0982613 0 0.221274
0.0757758 0.0627277 0 0.225786
0.0757758 0.0686863 0 0.224986
0 0.10551 0 0.220413
0.0757758 0.0748612 3.46945e-18 0.224189
0.0757758 0.0812603 3.46945e-18 0.223373
0 0.113022 0 0.219537
0.0757758 0.0878917 0 0.222543
0 0.120806 0 0.218644
0.0757758 0.0947639 -3.46945e-18 0.221701
0.0757758 0.101886 -3.46945e-18 0.220847
0 0.128874 0 0.217734
0.0757758 0.109266 0 0.219979
0 0.137234 0 0.216816
0.0757758 0.116914 -3.46945e-18 0.219095
0 0.145897 0 0.215912
0.0757758 0.12484 0 0.218193
0.151552 0 0 0.218967
0.151552 0.00368111 0 0.218839
0.151552 0.00749587 0 0.218586
0.151552 0.0114491 0 0.218378
0.151552 0.0155459 0 0.218206
0.151552 0.0197915 0 0.21801
0.0757758 0.133054 3.46945e-18 0.217275
0.151552 0.0241911 0 0.217763
0.151552 0.0287506 0 0.217469
0 0.154876 0 0.215048
0.151552 0.0334755 0 0.217143
0.151552 0.038372 0 0.216797
0.151552 0.0434463 0 0.216435
0.151552 0.0487048 0 0.216061
0.0757758 0.141566 0 0.216356
0.151552 0.0541543 0 0.215687
0.151552 0.0598016 0 0.215336
0 0.16418 0 0.214238
0.151552 0.0656539 0 0.215012
0.151552 0.0717187 0 0.214694
0.0757758 0.150387 0 0.215467
0.151552 0.0780037 0 0.214363
0.151552 0.0845169 0 0.214013
0 0.173822 0 0.213479
0.0757758 0.159528 3.46945e-18 0.214629
0.151552 0.0912666 0 0.213649
0.151552 0.0982613 0 0.213272
0 0.183814 0 0.212754
0.151552 0.10551 0 0.212885
0.0757758 0.169001 0 0.213847
0.151552 0.113022 0 0.212486
0.151552 0.120806 0 0.212068
0 0.194169 0 0.212046
0.0757758 0.178818 0 0.21311
0.151552 0.128874 0 0.211627
0.0757758 0.188991 3.46945e-18 0.212398
0.151552 0.137234 0 0.211166
0 0.2049 0 0.211341
0.151552 0.145897 0 0.210699
0.0757758 0.199534 -3.46945e-18 0.211695
0 0.21602 0 0.210621
0.151552 0.154876 0 0.210237
0.219992 0.00184056 -3.46945e-18 0.202555
0.219992 0.00558849 0 0.202677
0.219992 0.0094725 0 0.202939
0.219992 0.0134975 0 0.203232
0.219992 0.0176687 0 0.203508
0.219992 0.0219913 3.46945e-18 0.203769
0.219992 0.0264709 3.46945e-18 0.204015
0.219992 0.031113 0 0.204245
0.219992 0.0359238 0 0.204463
0.151552 0.16418 0 0.209789
0.0757758 0.21046 0 0.210987
0.219992 0.0409092 0 0.204671
0.219992 0.0460756 0 0.204867
0.219992 0.0514296 0 0.205048
0.219992 0.0569779 3.46945e-18 0.205215
0 0.227544 0 0.20986
0.219992 0.0627277 0 0.205367
0.219992 0.0686863 0 0.205502
0.151552 0.173822 0 0.209352
0.219992 0.0748612 -3.46945e-18 0.205619
0.0757758 0.221782 0 0.210254
0.219992 0.0812603 0 0.205717
0.219992 0.0878917 0 0.205795
0.151552 0.183814 0 0.208918
7.47804e-17 0.239487 0 0.209046
0.219992 0.0947639 0 0.205857
0.219992 0.101886 0 0.205911
0.0757758 0.233515 0 0.209466
0.219992 0.109266 0 0.205959
0.151552 0.194169 0 0.208478
0.219992 0.116914 -3.46945e-18 0.205992
0 0.251863 0 0.208192
0.219992 0.12484 0 0.206001
0.151552 0.2049 0 0.208023
0.0757758 0.245675 3.46945e-18 0.208626
0.219992 0.133054 0 0.205977
0.219992 0.141566 0 0.205924
0.151552 0.21602 0 0.207545
0 0.264688 0 0.207315
0.219992 0.150387 0 0.205846
0.0757758 0.258276 3.46945e-18 0.207757
0.219992 0.159528 0 0.205745
0.151552 0.227544 0 0.20703
0.219992 0.169001 0 0.205618
0 0.27798 0 0.206422
0.0757758 0.271334 0 0.206873
0.151552 0.239487 3.70074e-18 0.206471
0.219992 0.178818 0 0.205467
0.288433 0 0 0.206632
0.288433 0.00368111 0 0.206676
0.288433 0.00749587 0 0.206809
0.288433 0.0114491 0 0.206999
0.288433 0.0155459 3.70074e-18 0.2072
0.288433 0.0197915 0 0.207398
0.288433 0.0241911 3.70074e-18 0.207592
0.288433 0.0287506 0 0.207781
0.219992 0.188991 0 0.205288
0.288433 0.0334755 0 0.207962
0.288433 0.038372 0 0.208138
0.288433 0.0434463 0 0.208307
7.47804e-17 0.291753 0 0.205507
0.288433 0.0487048 0 0.208468
0.288433 0.0541543 0 0.208619
0.151552 0.251863 0 0.205874
0.288433 0.0598016 3.70074e-18 0.208761
0.0757758 0.284866 -3.46945e-18 0.20597
0.288433 0.0656539 3.70074e-18 0.208891
0.219992 0.199534 0 0.20508
0.288433 0.0717187 0 0.209012
0.288433 0.0780037 0 0.209122
0.288433 0.0845169 0 0.209217
0.288433 0.0912666 0 0.209292
0.219992 0.21046 0 0.204841
0.288433 0.0982613 0 0.209349
0.151552 0.264688 3.70074e-18 0.205249
0 0.306027 0 0.204561
0.288433 0.10551 0 0.209391
0.0757758 0.29889 -3.46945e-18 0.205043
0.288433 0.113022 0 0.209418
0.219992 0.221782 0 0.20457
0.288433 0.120806 0 0.209428
0.288433 0.128874 0 0.209422
0.151552 0.27798 0 0.204602
0.288433 0.137234 0 0.209395
0 0.320819 0 0.203578
0.219992 0.233515 0 0.204265
0.0757758 0.313423 0 0.204079
0.288433 0.145897 0 0.209345
0.288433 0.154876 0 0.209269
0.151552 0.291753 0 0.203931
0.219992 0.245675 0 0.203923
0.288433 0.16418 0 0.209169
0 0.336148 0 0.202573
0.288433 0.173822 0 0.209043
0.0757758 0.328484 0 0.203075
0.219992 0.258276 0 0.203545
0.151552 0.306027 0 0.203225
0.288433 0.183814 0 0.208891
0.288433 0.194169 0 0.20871
0.219992 0.271334 -3.46945e-18 0.203138
0.350249 0.00184056 0 0.21041
0.350249 0.00558849 0 0.210466
0.350249 0.0094725 0 0.210565
0.350249 0.0134975 0 0.210684
0.350249 0.0176687 3.46945e-18 0.210813
0.350249 0.0219913 0 0.210951
0.350249 0.0264709 -3.46945e-18 0.211092
0.350249 0.031113 -3.46945e-18 0.211234
0 0.352034 0 0.201582
0.350249 0.0359238 3.46945e-18 0.211376
0.0757758 0.344091 0 0.202069
0.350249 0.0409092 0 0.211516
0.350249 0.0460756 0 0.211653
0.288433 0.2049 0 0.208499
0.350249 0.0514296 0 0.211787
0.151552 0.320819 0 0.202474
0.350249 0.0569779 3.46945e-18 0.211915
0.350249 0.0627277 0 0.212036
0.350249 0.0686863 0 0.212153
0.350249 0.0748612 3.46945e-18 0.212267
0.350249 0.0812603 0 0.212378
0.219992 0.284866 0 0.202707
0.288433 0.21602 0 0.208257
0.350249 0.0878917 0 0.212471
0.350249 0.0947639 0 0.212537
0.350249 0.101886 0 0.212581
0.350249 0.109266 3.46945e-18 0.212605
0.288433 0.227544 0 0.20798
0.0757758 0.360265 0 0.201094
0 0.368496 0 0.200598
0.151552 0.336148 0 0.201684
0.350249 0.116914 3.46945e-18 0.21261
0.219992 0.29889 0 0.202245
0.370854 0.0241911 0 0.214074
0.350249 0.12484 0 0.212606
0.350249 0.133054 3.46945e-18 0.212598
0.288433 0.239487 -9.25186e-19 0.207667
0.350249 0.141566 -3.46945e-18 0.212575
0.350249 0.150387 0 0.212526
0.288433 0.251863 0 0.207317
0.219992 0.313423 0 0.201737
0.151552 0.352034 0 0.200871
0.0757758 0.377026 -3.46945e-18 0.200102
0.350249 0.159528 3.46945e-18 0.212451
0 0.385557 0 0.199571
0.350249 0.169001 3.46945e-18 0.212351
0.288433 0.264688 0 0.206931
0.350249 0.178818 0 0.212225
0.219992 0.328484 0 0.201174
0.350249 0.188991 0 0.212071
0.151552 0.368496 0 0.200035
0.288433 0.27798 3.70074e-18 0.206511
0.0757758 0.394396 -3.46945e-18 0.199038
0.350249 0.199534 3.46945e-18 0.211887
7.47804e-17 0.403236 0 0.198471
0.219992 0.344091 0 0.200552
0.350249 0.21046 0 0.211672
0.288433 0.291753 0 0.206057
0.412065 9.0819e-19 0 0.21691
0.412065 0.00368111 -2.31296e-18 0.21693
0.412065 0.00749587 -2.31296e-18 0.216984
0.412065 0.0114491 -2.31296e-18 0.217058
0.412065 0.0155459 -2.31296e-18 0.21714
0.412065 0.0197915 0 0.217226
0.412065 0.0241911 0 0.217315
0.412065 0.0264709 0 0.217362
0.412065 0.0287506 -2.31296e-18 0.217408
0.412065 0.0334755 -2.31296e-18 0.217502
0.412065 0.038372 -2.31296e-18 0.217599
0.151552 0.385557 0 0.19915
0.412065 0.0434463 0 0.217696
0.350249 0.221782 0 0.211424
0.412065 0.0487048 0 0.217794
0.412065 0.0541543 0 0.217891
0.412065 0.0569779 0 0.217938
0.412065 0.0598016 -2.31296e-18 0.217986
0.412065 0.0656539 -2.31296e-18 0.218077
0.412065 0.0717187 -2.31296e-18 0.218161
0.0757758 0.412397 0 0.197903
0.412065 0.0780037 -2.31296e-18 0.218229
0.288433 0.306027 0 0.205563
0.412065 0.0845169 -2.31296e-18 0.218272
0.350249 0.233515 0 0.21114
0 0.421557 0 0.197311
0.412065 0.0912666 -2.31296e-18 0.218289
0.219992 0.360265 -3.46945e-18 0.199877
0.412065 0.0982613 0 0.218288
0.412065 0.10551 0 0.218271
0.412065 0.113022 -2.31296e-18 0.218238
0.350249 0.245675 3.46945e-18 0.210819
0.412065 0.120806 0 0.218191
0.151552 0.403236 0 0.198203
0.288433 0.320819 0 0.20502
0.412065 0.128874 -2.31296e-18 0.218131
0.412065 0.137234 0 0.218059
0.350249 0.258276 3.46945e-18 0.210459
0.219992 0.377026 0 0.199151
0.412065 0.145897 -2.31296e-18 0.21797
0.0757758 0.431051 0 0.196718
0.412065 0.154876 -2.31296e-18 0.217862
0 0.440544 0 0.196106
0.288433 0.336148 0 0.204425
0.350249 0.271334 0 0.210058
0.412065 0.16418 -2.31296e-18 0.217731
0.412065 0.173822 -2.31296e-18 0.217579
0.151552 0.421557 0 0.197195
0.412065 0.183814 -2.31296e-18 0.217402
0.350249 0.284866 0 0.209618
0.219992 0.394396 0 0.198373
0.288433 0.352034 3.70074e-18 0.203774
0.412065 0.194169 0 0.217199
0.0757758 0.450382 0 0.195492
0.412065 0.2049 -2.31296e-18 0.216968
0 0.46022 0 0.194858
0.350249 0.29889 0 0.209137
0.412065 0.21602 0 0.216707
0.151552 0.440544 0 0.196132
0.219992 0.412397 3.46945e-18 0.197538
0.467897 0.00184056 -3.46945e-18 0.222957
0.467897 0.00558849 0 0.222982
0.288433 0.368496 0 0.203069
0.467897 0.0094725 0 0.223021
0.467897 0.0134975 3.46945e-18 0.223064
0.467897 0.0176687 3.46945e-18 0.223107
0.467897 0.0219913 -3.46945e-18 0.223148
0.467897 0.0264709 -3.46945e-18 0.223193
0.467897 0.031113 3.46945e-18 0.223241
0.467897 0.0359238 0 0.223294
0.467897 0.038372 0 0.224001
0.467897 0.0409092 0 0.223351
0.350249 0.313423 0 0.208612
0.467897 0.0460756 0 0.223413
0.467897 0.0514296 3.46945e-18 0.223477
0.412065 0.227544 -2.31296e-18 0.216414
0.467897 0.0569779 0 0.223544
0.467897 0.0627277 -3.46945e-18 0.223611
0.467897 0.0686863 0 0.223675
0.467897 0.0748612 3.46945e-18 0.223721
0.467897 0.0812603 3.46945e-18 0.223727
0.467897 0.0878917 3.46945e-18 0.223696
0.0757758 0.470415 3.46945e-18 0.194223
0.412065 0.239487 -2.31296e-18 0.216086
0.467897 0.0947639 0 0.223647
0.467897 0.101886 3.46945e-18 0.223589
0.350249 0.328484 0 0.208039
0.467897 0.109266 3.46945e-18 0.223519
0 0.48061 0 0.193564
0.288433 0.385557 0 0.202309
0.467897 0.116914 3.46945e-18 0.223435
0.412065 0.251863 -2.31296e-18 0.215721
0.219992 0.431051 0 0.196639
0.467897 0.12484 0 0.223334
0.151552 0.46022 0 0.195016
0.467897 0.133054 0 0.223217
0.467897 0.141566 -3.46945e-18 0.223086
0.412065 0.264688 -2.31296e-18 0.215317
0.350249 0.344091 0 0.207414
0.467897 0.150387 0 0.222942
0.467897 0.154876 0 0.223642
0.467897 0.159528 0 0.222781
0.288433 0.403236 0 0.20149
0.0757758 0.491176 3.46945e-18 0.192904
0.412065 0.27798 -2.31296e-18 0.214872
0.467897 0.169001 0 0.222602
0.467897 0.178818 -3.46945e-18 0.222402
0.219992 0.450382 3.46945e-18 0.195676
6.73024e-17 0.501741 3.70074e-18 0.192219
0.350249 0.360265 0 0.206735
0.151552 0.48061 0 0.193844
0.467897 0.188991 0 0.22218
0.412065 0.291753 0 0.214385
0.467897 0.199534 0 0.221933
0.288433 0.421557 0 0.200608
0.467897 0.21046 3.46945e-18 0.22166
0.412065 0.306027 0 0.213854
0.350249 0.377026 0 0.205997
0.467897 0.221782 0 0.221357
0.0757758 0.51269 0 0.191532
0.219992 0.470415 0 0.194649
0.467897 0.227544 0 0.221937
0.412065 0.320819 -2.31296e-18 0.213274
0.467897 0.233515 0 0.221023
6.73024e-17 0.523639 3.70074e-18 0.19082
0.523729 0 0 0.23017
0.523729 0.00368111 0 0.23018
0.523729 0.00749587 -2.31296e-18 0.230207
0.523729 0.0114491 0 0.23024
0.523729 0.0155459 0 0.230271
0.523729 0.0197915 -2.31296e-18 0.230296
0.151552 0.501741 0 0.19261
0.523729 0.0241911 0 0.230319
0.523729 0.0287506 0 0.230344
0.523729 0.0334755 0 0.230372
0.523729 0.038372 0 0.230403
0.523729 0.0434463 0 0.230438
0.523729 0.0487048 0 0.230476
0.523729 0.0541543 0 0.230516
0.288433 0.440544 0 0.199659
0.523729 0.0598016 0 0.230559
0.350249 0.394396 0 0.205199
0.523729 0.0656539 0 0.2306
0.467897 0.245675 3.46945e-18 0.220654
0.523729 0.0717187 0 0.230626
0.523729 0.0780037 0 0.230617
0.523729 0.0845169 0 0.230568
0.523729 0.0912666 0 0.230494
0.412065 0.336148 0 0.212643
0.523729 0.0982613 0 0.230408
0.523729 0.10551 -2.31296e-18 0.230311
0.467897 0.258276 3.46945e-18 0.220249
0.523729 0.113022 0 0.230202
0.523729 0.120806 0 0.230078
0.219992 0.491176 3.46945e-18 0.193556
0.523729 0.12484 0 0.230008
0.523729 0.128874 -2.31296e-18 0.229938
0.0757758 0.534985 -3.46945e-18 0.190106
0.467897 0.271334 0 0.219803
0.350249 0.412397 3.46945e-18 0.204337
0.523729 0.137234 0 0.229783
0.412065 0.352034 -2.31296e-18 0.211957
0.288433 0.46022 0 0.198643
0.523729 0.145897 0 0.229611
0.151552 0.523639 0 0.191308
0.523729 0.154876 0 0.229423
0 0.546332 0 0.189364
0.523729 0.159528 0 0.229319
0.467897 0.284866 3.46945e-18 0.219315
0.523729 0.16418 -2.31296e-18 0.229215
0.523729 0.173822 0 0.228987
0.412065 0.368496 0 0.211214
0.523729 0.183814 0 0.228735
0.467897 0.29889 -3.46945e-18 0.218781
0.350249 0.431051 0 0.203408
0.219992 0.51269 3.46945e-18 0.192386
0.523729 0.194169 0 0.228459
0.288433 0.48061 0 0.197555
0.523729 0.2049 0 0.228156
0.467897 0.313423 0 0.218198
0.0757758 0.55809 0 0.18862
0.412065 0.385557 0 0.210409
0.523729 0.21602 0 0.227823
0.151552 0.546332 0 0.189935
0 0.569849 0 0.187845
0.350249 0.450382 0 0.202408
0.523729 0.227544 0 0.22746
0.467897 0.328484 0 0.217564
0.523729 0.231525 0 0.227327
0.574156 0.00184056 0 0.23691
0.574156 0.00558849 0 0.236927
0.574156 0.0094725 0 0.236953
0.574156 0.0134975 0 0.236978
0.574156 0.0176687 0 0.236992
0.574156 0.0219913 3.46945e-18 0.236997
0.574156 0.0264709 0 0.237001
0.574156 0.031113 0 0.237007
0.574156 0.0359238 3.46945e-18 0.237015
0.574156 0.0409092 -3.46945e-18 0.237025
0.523729 0.239487 3.70074e-18 0.227062
0.574156 0.0460756 3.46945e-18 0.237038
0.574156 0.0514296 0 0.237054
0.412065 0.403236 0 0.209541
0.574156 0.0569779 0 0.237073
0.574156 0.0627277 0 0.237094
0.574156 0.0686863 0 0.237109
0.219992 0.534985 0 0.191133
0.288433 0.501741 0 0.196392
0.574156 0.0748612 0 0.237092
0.574156 0.0812603 0 0.237025
0.467897 0.344091 3.46945e-18 0.216876
0.574156 0.0878917 0 0.236926
0.523729 0.251863 0 0.226629
0.574156 0.0947639 -3.46945e-18 0.236814
0.574156 0.101886 0 0.236693
0.574156 0.109266 3.46945e-18 0.23656
0.574156 0.116914 -3.46945e-18 0.236414
0.412065 0.416977 0 0.208839
0.350249 0.470415 0 0.201334
0.523729 0.264688 0 0.226157
0.0757758 0.582034 0 0.187068
0.574156 0.12484 0 0.236254
0.574156 0.133054 0 0.236077
0.412065 0.421557 -2.31296e-18 0.208605
0.151552 0.569849 0 0.188486
0.467897 0.360265 0 0.216131
0.574156 0.141566 -3.46945e-18 0.235884
0.523729 0.27798 0 0.225642
0.574156 0.150387 -3.46945e-18 0.235672
0 0.594219 0 0.186258
0.574156 0.159528 0 0.23544
0.574156 0.16418 0 0.235976
0.288433 0.523639 9.24446e-33 0.195148
0.574156 0.169001 -3.46945e-18 0.235186
0.523729 0.291753 0 0.225084
0.219992 0.55809 -3.46945e-18 0.189793
0.467897 0.377026 0 0.215325
0.574156 0.178818 -3.46945e-18 0.234909
0.412065 0.440544 -2.31296e-18 0.207599
0.350249 0.491176 3.46945e-18 0.200183
0.574156 0.188991 0 0.234608
0.523729 0.306027 0 0.224478
0.574156 0.199534 0 0.234279
0.574156 0.21046 0 0.233921
0.0757758 0.606847 0 0.185445
0.467897 0.394396 3.46945e-18 0.214454
0.151552 0.594219 0 0.186957
0.523729 0.320819 0 0.223821
0.574156 0.221782 -3.46945e-18 0.233532
0.412065 0.46022 0 0.206518
0.288433 0.546332 0 0.193816
0 0.619475 0 0.184597
0.574156 0.233515 0 0.23311
0.350249 0.51269 3.46945e-18 0.19895
0.219992 0.582034 0 0.188364
0.523729 0.336148 0 0.223112
0.467897 0.412397 0 0.213517
0.574156 0.245675 3.46945e-18 0.232652
0.624584 0 0 0.244936
0.624584 0.00368111 0 0.244944
0.624584 0.00749587 0 0.244965
0.624584 0.0114491 0 0.244989
0.624584 0.0155459 0 0.245008
0.624584 0.0197915 0 0.245013
0.624584 0.0241911 -2.31296e-18 0.245007
0.624584 0.0287506 0 0.244998
0.624584 0.0334755 0 0.24499
0.624584 0.038372 0 0.244984
0.624584 0.0434463 -2.31296e-18 0.244979
0.624584 0.0487048 0 0.244976
0.624584 0.0541543 0 0.244974
0.624584 0.0598016 0 0.244972
0.624584 0.0656539 0 0.244964
0.624584 0.0717187 0 0.244931
0.624584 0.0780037 0 0.244856
0.574156 0.258276 0 0.232157
0.624584 0.0845169 0 0.244743
0.523729 0.352034 0 0.222345
0.624584 0.0912666 0 0.24461
0.624584 0.0982613 0 0.244466
0.412065 0.48061 0 0.205359
0.624584 0.10551 0 0.244309
0.624584 0.113022 -2.31296e-18 0.244138
0.574156 0.271334 0 0.23162
0.624584 0.120806 0 0.24395
0.467897 0.431051 0 0.212509
0.0757758 0.632561 3.46945e-18 0.183746
0.624584 0.128874 0 0.243746
0.151552 0.619475 0 0.185344
0.288433 0.569849 0 0.192395
0.350249 0.534985 0 0.197632
0.624584 0.137234 -2.31296e-18 0.243524
0.523729 0.368496 0 0.221518
0.574156 0.284866 -3.46945e-18 0.231041
0.624584 0.145897 0 0.243283
0.467897 0.440544 0 0.212569
0.624584 0.154876 0 0.243021
0.219992 0.606847 0 0.186843
0 0.645647 0 0.182858
0.624584 0.16418 0 0.242736
0.574156 0.29889 0 0.230415
0.624584 0.173822 0 0.242428
0.412065 0.501741 0 0.204119
0.467897 0.450382 0 0.211427
0.523729 0.385557 0 0.220628
0.624584 0.183814 0 0.242094
0.624584 0.194169 0 0.241732
0.574156 0.313423 3.46945e-18 0.22974
0.624584 0.2049 0 0.241341
0.350249 0.55809 3.46945e-18 0.196224
0.288433 0.594219 0 0.190881
0.624584 0.21602 0 0.240919
0.523729 0.403236 0 0.219671
0.574156 0.328484 -3.46945e-18 0.229013
0.151552 0.645647 0 0.183643
0.467897 0.470415 0 0.210266
0.0757758 0.659208 3.46945e-18 0.181966
0.624584 0.227544 0 0.240463
0.412065 0.523639 0 0.202792
0.523729 0.41545 0 0.218986
0.624584 0.239487 3.70074e-18 0.239972
0.574156 0.344091 0 0.22823
0.219992 0.632561 -3.46945e-18 0.185227
0.67013 0.00184056 3.46945e-18 0.252472
0.67013 0.00558849 -3.46945e-18 0.252487
0.67013 0.0094725 3.46945e-18 0.25251
0.67013 0.0134975 -3.46945e-18 0.252536
0.67013 0.0176687 0 0.252546
0.67013 0.0219913 0 0.252536
0.67013 0.0264709 3.46945e-18 0.252514
0.67013 0.031113 0 0.252492
0.67013 0.0359238 -3.46945e-18 0.252472
0.67013 0.0409092 0 0.252451
0.67013 0.0460756 0 0.252432
0.67013 0.0514296 -3.46945e-18 0.252411
0.523729 0.421557 0 0.218643
0.67013 0.0569779 0 0.252391
0 0.67277 0 0.181034
0.67013 0.0627277 3.46945e-18 0.252368
0.624584 0.251863 0 0.239442
0.67013 0.0686863 0 0.252327
0.67013 0.0748612 -3.46945e-18 0.252241
0.67013 0.0812603 0 0.252112
0.67013 0.0878917 0 0.251961
0.67013 0.0947639 0 0.251797
0.574156 0.360265 3.46945e-18 0.227387
0.67013 0.101886 3.46945e-18 0.251619
0.523729 0.431051 0 0.218092
0.624584 0.264688 0 0.238872
0.467897 0.491176 0 0.209024
0.67013 0.109266 3.46945e-18 0.251426
0.350249 0.582034 0 0.194722
0.67013 0.116914 -3.46945e-18 0.251216
0.67013 0.12484 0 0.250989
0.67013 0.133054 -3.46945e-18 0.250742
0.288433 0.619475 0 0.189269
0.624584 0.27798 0 0.238258
0.412065 0.546332 0 0.201375
0.523729 0.440544 0 0.21754
0.67013 0.141566 0 0.250475
0.685312 0.0241911 0 0.25582
0.685312 0.0434463 0 0.255704
0.67013 0.150387 0 0.250187
0.574156 0.377026 0 0.226482
0.67013 0.159528 0 0.249876
0.624584 0.291753 0 0.237599
0.151552 0.67277 0 0.181848
0.0757758 0.686823 0 0.180098
0.67013 0.169001 -3.46945e-18 0.24954
0.67013 0.178818 0 0.249178
0.467897 0.51269 3.46945e-18 0.207696
0.685312 0.113022 0 0.254449
0.219992 0.659208 0 0.183511
0.624584 0.306027 0 0.23689
0.67013 0.188991 0 0.248788
0.574156 0.394396 -3.46945e-18 0.225511
0.523729 0.46022 0 0.216359
0.685312 0.137234 0 0.253688
0.67013 0.199534 3.46945e-18 0.248369
0.350249 0.606847 3.46945e-18 0.193122
0 0.700877 0 0.17912
0.624584 0.320819 0 0.23613
0.67013 0.21046 -3.46945e-18 0.247917
0.412065 0.569849 -2.31296e-18 0.199862
0.67013 0.221782 0 0.247433
0.574156 0.412397 -3.46945e-18 0.224469
0.288433 0.645647 0 0.187556
0.624584 0.336148 0 0.235314
0.67013 0.233515 -3.46945e-18 0.246912
0.467897 0.534985 0 0.206276
0.523729 0.48061 0 0.215095
0.624584 0.344091 0 0.234876
0.67013 0.245675 0 0.246353
0.715676 4.54095e-19 -1.54074e-33 0.261194
0.715676 0.00368111 0 0.261201
0.715676 0.00749587 0 0.261221
0.715676 0.0114491 -1.54074e-33 0.261245
0.715676 0.0155459 0 0.261262
0.715676 0.0197915 0 0.261255
0.715676 0.0241911 0 0.261227
0.715676 0.0287506 0 0.261189
0.715676 0.0334755 0 0.261149
0.715676 0.038372 0 0.261108
0.624584 0.352034 -2.31296e-18 0.234439
0.715676 0.0434463 0 0.261066
0.151552 0.700877 0 0.179956
0.715676 0.0487048 0 0.261023
0.715676 0.0541543 0 0.260979
0.574156 0.431051 -3.46945e-18 0.223352
0.715676 0.0598016 0 0.260932
0.67013 0.258276 0 0.245754
0.715676 0.0656539 0 0.260871
0.715676 0.0717187 0 0.260774
0.0757758 0.715441 0 0.178138
0.715676 0.0780037 0 0.260633
0.715676 0.0845169 0 0.26046
0.219992 0.686823 0 0.181693
0.715676 0.0912666 0 0.26027
0.715676 0.0982613 0 0.260065
0.67013 0.271334 0 0.245111
0.350249 0.632561 3.46945e-18 0.191419
0.412065 0.594219 -2.31296e-18 0.198251
0.715676 0.10551 0 0.259844
0.715676 0.113022 0 0.259605
0.624584 0.368496 0 0.233502
0.523729 0.501741 0 0.213745
0.715676 0.120806 0 0.259347
0.715676 0.128874 0 0.259069
0.67013 0.284866 0 0.244423
0.467897 0.55809 3.46945e-18 0.204761
0.715676 0.137234 0 0.25877
0.574156 0.450382 0 0.222157
0 0.730005 0 0.177111
0.715676 0.145897 0 0.258448
0.288433 0.67277 0 0.185737
0.715676 0.154876 0 0.258102
0.67013 0.29889 3.46945e-18 0.243686
0.624584 0.385557 0 0.232499
0.715676 0.16418 0 0.257731
0.715676 0.173822 0 0.257333
0.715676 0.183814 0 0.256907
0.67013 0.313423 0 0.242897
0.523729 0.523639 0 0.212302
0.715676 0.194169 0 0.25645
0.574156 0.470415 3.46945e-18 0.220879
0.624584 0.403236 0 0.231425
0.743101 0.0241911 0 0.267041
0.412065 0.619475 -2.31296e-18 0.196534
0.715676 0.2049 0 0.255961
0.151552 0.730005 0 0.177961
0.67013 0.328484 0 0.242054
0.350249 0.659208 -3.46945e-18 0.189608
0.467897 0.582034 0 0.203146
0.715676 0.21602 0 0.255437
0.219992 0.715441 0 0.179767
0.0757758 0.745098 3.46945e-18 0.176079
0.715676 0.227544 0 0.254878
0.67013 0.344091 0 0.241152
0.624584 0.421557 0 0.230277
0.743101 0.128874 0 0.264501
0.715676 0.239487 3.70074e-18 0.25428
0.574156 0.491176 3.46945e-18 0.219513
0.523729 0.546332 0 0.210763
0.756814 0.00184056 0 0.269424
0.756814 0.00558849 0 0.269439
0.756814 0.0094725 0 0.269463
0.756814 0.0134975 3.46945e-18 0.269489
0.756814 0.0155459 0 0.270003
0.756814 0.0176687 -3.46945e-18 0.269492
0.756814 0.0219913 -3.46945e-18 0.269463
0.756814 0.0264709 3.46945e-18 0.269413
0.756814 0.031113 -3.46945e-18 0.269356
0.756814 0.0359238 -3.46945e-18 0.269298
0.288433 0.700877 0 0.183807
0.756814 0.0409092 0 0.269236
0.756814 0.0460756 -3.46945e-18 0.269172
0.756814 0.0514296 -3.46945e-18 0.269107
0.715676 0.251863 0 0.253642
0.756814 0.0569779 0 0.26904
0.756814 0.0627277 3.46945e-18 0.268967
0.756814 0.0686863 0 0.268864
0 0.76019 0 0.175001
0.756814 0.0748612 0 0.268709
0.67013 0.360265 0 0.240189
0.756814 0.0812603 0 0.268515
0.756814 0.0878917 0 0.268303
0.756814 0.0947639 -3.46945e-18 0.268075
0.715676 0.264688 0 0.25296
0.756814 0.101886 -3.46945e-18 0.26783
0.624584 0.440544 0 0.229051
0.756814 0.109266 -3.46945e-18 0.267565
0.756814 0.116914 -3.46945e-18 0.267281
0.412065 0.645647 0 0.194708
0.467897 0.606847 0 0.201425
0.756814 0.120806 0 0.267541
0.756814 0.12484 3.46945e-18 0.266975
0.715676 0.27798 -1.54074e-33 0.252233
0.756814 0.133054 3.46945e-18 0.266648
0.67013 0.377026 3.46945e-18 0.23916
0.756814 0.137234 0 0.266871
0.574156 0.51269 0 0.218056
0.756814 0.141566 0 0.266297
0.685312 0.352034 0 0.243352
0.743101 0.2049 0 0.261118
0.350249 0.686823 0 0.187685
0.756814 0.150387 0 0.265921
0.756814 0.154876 0 0.266106
0.715676 0.291753 -6.16298e-33 0.251457
0.756814 0.159528 0 0.265519
0.523729 0.569849 0 0.209121
0.72743 0.264688 0 0.255086
0.756814 0.16418 0 0.265684
0.151552 0.76019 3.70074e-18 0.175858
0.756814 0.169001 3.46945e-18 0.265089
0.624584 0.46022 0 0.227741
0.219992 0.745098 -3.46945e-18 0.177729
0.67013 0.394396 0 0.238061
0.756814 0.178818 0 0.264631
0.715676 0.306027 0 0.25063
0.0757758 0.775831 3.46945e-18 0.173916
0.756814 0.188991 0 0.264141
0.756814 0.199534 -3.46945e-18 0.263619
0.715676 0.320819 0 0.249748
0.574156 0.534985 0 0.2165
0.288433 0.730005 0 0.181764
0.756814 0.21046 0 0.263062
0.467897 0.632561 0 0.199593
0.67013 0.412397 0 0.236888
0.624584 0.48061 0 0.226344
0.756814 0.221782 3.46945e-18 0.262469
0.412065 0.67277 -2.31296e-18 0.192768
0.715676 0.336148 0 0.248809
0 0.791472 0 0.172783
0.756814 0.233515 0 0.261837
0.523729 0.594219 0 0.207373
0.624584 0.487654 0 0.225847
0.756814 0.245675 0 0.261164
0.350249 0.715441 3.46945e-18 0.185645
0.67013 0.431051 -3.46945e-18 0.235637
0.715676 0.352034 0 0.247808
0.797951 9.0819e-19 0 0.278679
0.797951 0.00368111 0 0.278686
0.797951 0.00749587 0 0.278706
0.797951 0.0114491 0 0.278732
0.797951 0.0141803 0 0.278741
0.797951 0.0155459 0 0.278745
0.797951 0.0169611 0 0.278738
0.797951 0.0197915 0 0.278725
0.797951 0.0219913 0 0.278698
0.797951 0.0241911 0 0.278671
0.797951 0.0264709 0 0.278634
0.797951 0.0287506 0 0.278597
0.797951 0.0334755 0 0.278513
0.797951 0.038372 0 0.278425
0.797951 0.0434463 0 0.278331
0.797951 0.0487048 0 0.278234
0.756814 0.258276 0 0.260448
0.797951 0.0541543 0 0.278134
0.797951 0.0598016 0 0.278026
0.797951 0.0656539 0 0.277896
0.574156 0.55809 0 0.214842
0.624584 0.501741 -2.05433e-33 0.224854
0.797951 0.0717187 0 0.277722
0.797951 0.0780037 0 0.277503
0.797951 0.0845169 0 0.277257
0.797951 0.0912666 0 0.276992
0.797951 0.0982613 0 0.276709
0.756814 0.271334 -3.46945e-18 0.259687
0.797951 0.10551 0 0.276406
0.715676 0.368496 0 0.246742
0.151552 0.791472 0 0.173642
0.797951 0.113022 0 0.276082
0.219992 0.775831 3.46945e-18 0.175576
0.797951 0.118212 0 0.275851
0.770526 0.239487 0 0.264362
0.797951 0.120806 9.25186e-19 0.275735
0.67013 0.450382 3.46945e-18 0.234304
0.797951 0.128874 -2.31296e-18 0.275366
0.467897 0.659208 0 0.197645
0.756814 0.284866 0 0.258877
0.743101 0.320819 0 0.25454
0.797951 0.137234 0 0.274973
0.797951 0.141566 0 0.274764
0.797951 0.145897 0 0.274554
0.523729 0.619475 0 0.205511
0.0757758 0.80768 0 0.171644
0.797951 0.150387 0 0.274332
0.797951 0.154876 9.25186e-19 0.274109
0.715676 0.385557 0 0.245607
0.412065 0.700877 -2.31296e-18 0.190707
0.288433 0.76019 0 0.1796
0.756814 0.29889 -3.46945e-18 0.258017
0.797951 0.16418 0 0.273636
0.624584 0.523639 -1.54074e-33 0.223266
0.797951 0.167394 0 0.273468
0.797951 0.173822 0 0.273133
0.574156 0.582034 0 0.213076
0.67013 0.470415 0 0.232882
0.797951 0.183814 0 0.272599
0.756814 0.313423 0 0.257102
0.797951 0.194169 0 0.272033
0.715676 0.403236 -6.16298e-33 0.244399
0.151552 0.80768 0 0.172475
0.797951 0.197746 0 0.271832
0.350249 0.745098 -3.46945e-18 0.183483
0.797951 0.2049 0 0.271432
0 0.823889 0 0.170454
0.756814 0.328484 0 0.25613
0.797951 0.21046 0 0.271113
0.797951 0.21602 0 0.270794
0.797951 0.223703 0 0.270344
0.797951 0.227544 0 0.270119
0.624584 0.546332 0 0.221574
0.715676 0.421557 0 0.243113
0.67013 0.491176 3.46945e-18 0.231368
0.797951 0.231525 0 0.26988
0.467897 0.686823 0 0.195575
0.523729 0.645647 0 0.203531
0.756814 0.344091 -3.46945e-18 0.255098
0.822721 0.120806 0 0.281377
0.797951 0.239487 0 0.269403
0.822721 0.137234 0 0.280545
0.835107 0.00184056 -3.46945e-18 0.287455
0.835107 0.00558849 0 0.287471
0.835107 0.0094725 3.46945e-18 0.287498
0.835107 0.0134975 0 0.287524
0.835107 0.0176687 0 0.28752
0.835107 0.0219913 3.46945e-18 0.28747
0.574156 0.606847 3.46945e-18 0.211196
0.835107 0.0241911 0 0.287755
0.835107 0.0264709 3.46945e-18 0.287386
0.822721 0.145897 0 0.28009
0.835107 0.031113 0 0.287282
0.835107 0.0359238 0 0.28717
0.835107 0.0409092 -3.46945e-18 0.287051
0.835107 0.0460756 0 0.286926
0.835107 0.0514296 -3.46945e-18 0.286796
0.797951 0.251863 0 0.268644
0.835107 0.0541543 0 0.287041
0.835107 0.0569779 -3.46945e-18 0.28666
0.219992 0.80768 -3.46945e-18 0.173302
0.822721 0.154876 0 0.279608
0.835107 0.0627277 -3.46945e-18 0.286509
0.151552 0.823889 0 0.171309
0.797951 0.255069 0 0.268443
0.835107 0.0686863 3.46945e-18 0.286318
0.756814 0.360265 3.46945e-18 0.254001
0.412065 0.730005 0 0.188521
0.835107 0.0748612 0 0.286075
0.822721 0.16418 0 0.279097
0.835107 0.0812603 3.46945e-18 0.285798
0.835107 0.0878917 0 0.285501
0.715676 0.440544 0 0.241744
0.835107 0.0947639 0 0.285184
0.797951 0.264688 6.16298e-33 0.26784
0.835107 0.101886 -3.46945e-18 0.284847
0.835107 0.109266 0 0.284487
0.288433 0.791472 0 0.177313
0.835107 0.116914 0 0.284104
0.67013 0.51269 0 0.229756
0.797951 0.274657 0 0.267202
0.0757758 0.840686 3.46945e-18 0.169257
0.835107 0.12484 0 0.283698
0.797951 0.27798 0 0.266989
0.624584 0.569849 0 0.219772
0.756814 0.377026 0 0.252835
0.835107 0.133054 -3.46945e-18 0.283266
0.835107 0.141566 0 0.282809
0.835107 0.150387 3.46945e-18 0.282325
0.797951 0.291753 0 0.266088
0.835107 0.159528 0 0.281812
0.715676 0.46022 0 0.240289
0.816529 0.239487 0 0.273286
0.350249 0.775831 0 0.181193
0.835107 0.169001 0 0.281269
0.523729 0.67277 0 0.201426
0.756814 0.394396 -3.46945e-18 0.251598
0.822721 0.227544 0 0.275338
0.835107 0.178818 0 0.280695
0.574156 0.632561 0 0.209195
0.797951 0.306027 -1.54074e-33 0.265134
0.467897 0.715441 3.46945e-18 0.193377
0.835107 0.188991 0 0.280089
0.797951 0.310958 0 0.264797
0 0.857483 0 0.168006
0.67013 0.534985 3.46945e-18 0.228039
0.835107 0.199534 0 0.279448
0.835107 0.2049 0 0.279384
0.797951 0.320819 0 0.264123
0.835107 0.21046 3.46945e-18 0.27877
0.756814 0.412397 -3.46945e-18 0.250283
0.715676 0.48061 0 0.23874
0.624584 0.594219 0 0.217855
0.797951 0.328484 0 0.263588
0.835107 0.221782 0 0.278055
0.412065 0.76019 0 0.186204
0.797951 0.336148 0 0.263053
0.835107 0.233515 3.46945e-18 0.2773
0.219992 0.840686 0 0.170902
0.835107 0.245675 3.46945e-18 0.276503
0.151552 0.857483 0 0.168853