# UMean  POINT_DATA 63889
# x  y  z  UMean_x  UMean_y  UMean_z
0 0.5 3.39582e-17 1 0 0
0 0.5 -0.00617965 1 0 0
0 0.5 0.00617965 1 0 0
0.0124871 0.5 -0.00617965 0.999964 0.000943238 -5.88367e-05
0.0124871 0.5 0.00617965 0.999964 0.000943218 6.20204e-05
0 0.5 -0.0688203 1 0 0
0 0.5 0.0688203 1 0 0
0.0124871 0.5 -0.0688203 0.999964 0.000943238 -5.88367e-05
0.0124871 0.5 0.0688203 0.999964 0.000943218 6.20204e-05
0 0.5 -0.075 1 0 0
0 0.5 0.075 1 0 0
0 0.5 -0.0811797 1 0 0
0 0.5 0.0811797 1 0 0
0.0124871 0.5 -0.0811797 0.999962 0.000939848 -0.000186667
0.0124871 0.5 0.0811797 0.999962 0.000939765 0.000189938
0.0757758 0.5 -0.0375 0.999757 0.00571839 -0.000354993
0.0757758 0.5 0.0375 0.999757 0.00571827 0.000374242
0.0757758 0.5 -0.1125 0.999743 0.00569763 -0.00112682
0.0757758 0.5 0.1125 0.999743 0.00569713 0.0011466
0 0.5 -0.14382 1 0 0
0 0.5 0.14382 1 0 0
0.0124871 0.5 -0.14382 0.999962 0.000939848 -0.000186667
0.0124871 0.5 0.14382 0.999962 0.000939765 0.000189938
0 0.5 -0.15 1 0 0
0 0.5 0.15 1 0 0
0.151149 0.5 -0.00137326 0.99851 0.00960399 6.4619e-05
0 0.5 -0.15618 1 0 0
0 0.5 0.15618 1 0 0
0.0124871 0.5 -0.15618 0.999964 0.000932489 -0.000309277
0.0124871 0.5 0.15618 0.999964 0.000932342 0.000312506
0.151149 0.5 -0.075 0.998501 0.00961404 -0.00132584
0.151149 0.5 0.075 0.998501 0.00961355 0.00136099
0.0757758 0.5 -0.1875 0.999758 0.00565306 -0.00186733
0.0757758 0.5 0.1875 0.999758 0.00565218 0.00188687
0.151149 0.5 -0.15 0.998524 0.00956042 -0.0026548
0.151149 0.5 0.15 0.998524 0.00955944 0.00268973
0 0.5 -0.21882 1 0 0
0 0.5 0.21882 1 0 0
0.0124871 0.5 -0.21882 0.999964 0.000932489 -0.000309277
0.0124871 0.5 0.21882 0.999964 0.000932342 0.000312506
0.219992 0.5 -0.0375 0.997329 0.0132892 -0.000935221
0.219992 0.5 0.0375 0.997329 0.0132888 0.000985319
0 0.5 -0.225 1 0 0
0 0.5 0.225 1 0 0
0 0.5 -0.23118 1 0 0
0 0.5 0.23118 1 0 0
0.0124871 0.5 -0.23118 0.999967 0.000921671 -0.000427425
0.0124871 0.5 0.23118 0.999967 0.000921476 0.000430607
0.219992 0.5 -0.1125 0.99734 0.0132393 -0.00281056
0.219992 0.5 0.1125 0.99734 0.0132384 0.00286
0.151149 0.5 -0.225 0.998582 0.0094727 -0.00394558
0.151149 0.5 0.225 0.998582 0.00947125 0.00398005
0.0757758 0.5 -0.2625 0.999774 0.00558745 -0.00258139
0.0757758 0.5 0.2625 0.999774 0.00558627 0.00260066
0.288069 0.5 -0.00137326 0.994325 0.0168887 0.00011966
0.219992 0.5 -0.1875 0.997419 0.0131428 -0.00466452
0.219992 0.5 0.1875 0.99742 0.0131412 0.00471351
0 0.5 -0.29382 1 0 0
0 0.5 0.29382 1 0 0
0.0124871 0.5 -0.29382 0.999967 0.000921671 -0.000427425
0.0124871 0.5 0.29382 0.999967 0.000921476 0.000430607
0.288069 0.5 -0.075 0.994328 0.0168818 -0.00247146
0.288069 0.5 0.075 0.994329 0.016881 0.00253646
0 0.5 -0.3 1 0 0
0 0.5 0.3 1 0 0
0 0.5 -0.30618 1 0 0
0 0.5 0.30618 1 0 0
0.0124871 0.5 -0.30618 0.999971 0.000907841 -0.000538906
0.0124871 0.5 0.30618 0.999971 0.000907595 0.000542004
0.288069 0.5 -0.15 0.994428 0.0167851 -0.00493266
0.288069 0.5 0.15 0.994429 0.0167836 0.00499702
0.151149 0.5 -0.3 0.998659 0.00935352 -0.00517836
0.151149 0.5 0.3 0.99866 0.00935163 0.00521214
0.219992 0.5 -0.2625 0.997534 0.0130029 -0.0064461
0.219992 0.5 0.2625 0.997535 0.0130008 0.00649424
0.0757758 0.5 -0.3375 0.999795 0.00550344 -0.00325559
0.0757758 0.5 0.3375 0.999795 0.00550195 0.00327437
0.350249 0.5 -0.0375 0.991466 0.0203109 -0.00150817
0.350249 0.5 0.0375 0.991466 0.0203105 0.00158787
0.288069 0.5 -0.225 0.994611 0.0166284 -0.00732735
0.288069 0.5 0.225 0.994613 0.0166261 0.00739081
0.350249 0.5 -0.1125 0.991555 0.0202305 -0.00455824
0.350249 0.5 0.1125 0.991556 0.0202291 0.00463713
0 0.5 0.36882 1 0 0
0 0.5 -0.36882 1 0 0
0.0124871 0.5 -0.36882 0.999971 0.000907841 -0.000538906
0.0124871 0.5 0.36882 0.999971 0.000907595 0.000542004
0 0.5 -0.375 1 0 0
0 0.5 0.375 1 0 0
0 0.5 -0.38118 1 0 0
0 0.5 0.38118 1 0 0
0.0124871 0.5 -0.38118 0.999975 0.00089119 -0.000642731
0.0124871 0.5 0.38118 0.999975 0.0008909 0.000645729
0.350249 0.5 -0.1875 0.991765 0.0200736 -0.00755028
0.350249 0.5 0.1875 0.991768 0.0200713 0.00762853
0.219992 0.5 -0.3375 0.997682 0.0128215 -0.00813756
0.219992 0.5 0.3375 0.997684 0.0128188 0.00818459
0.151149 0.5 -0.375 0.998755 0.00920514 -0.00633819
0.151149 0.5 0.375 0.998756 0.00920282 0.00637107
0.411736 0.5 -0.00137326 0.987186 0.0238116 0.000174821
0.288069 0.5 -0.3 0.994864 0.0164158 -0.00961457
0.288069 0.5 0.3 0.994867 0.0164128 0.00967668
0.411736 0.5 -0.075 0.987226 0.0237872 -0.00365494
0.411736 0.5 0.075 0.987227 0.023786 0.00374899
0.0757758 0.5 -0.4125 0.999821 0.00540232 -0.00388383
0.0757758 0.5 0.4125 0.999821 0.00540057 0.003902
0.350249 0.5 -0.2625 0.992084 0.0198449 -0.0104305
0.350249 0.5 0.2625 0.992088 0.0198417 0.0105071
0.411736 0.5 -0.15 0.987452 0.02364 -0.00729555
0.411736 0.5 0.15 0.987455 0.0236377 0.00738866
0 0.5 -0.44382 1 0 0
0 0.5 0.44382 1 0 0
0.0124871 0.5 -0.44382 0.999975 0.00089119 -0.000642731
0.0124871 0.5 0.44382 0.999975 0.0008909 0.000645729
0 0.5 -0.45 1 0 0
0 0.5 0.45 1 0 0
0 0.5 -0.45618 1 0 0
0 0.5 0.45618 1 0 0
0.0124871 0.5 -0.45618 0.99998 0.000872047 -0.000737718
0.0124871 0.5 0.45618 0.99998 0.000871721 0.0007406
0.219992 0.5 -0.4125 0.997861 0.0126018 -0.00971704
0.219992 0.5 0.4125 0.997863 0.0125986 0.00976271
0.411736 0.5 0.225 0.987844 0.0233972 0.010919
0.411736 0.5 -0.225 0.987839 0.0234006 -0.0108273
0.467897 0.5 0.0375 0.983098 0.0271482 0.00221361
0.467897 0.5 -0.0375 0.983097 0.0271491 -0.00210525
0.288069 0.5 -0.375 0.99518 0.0161512 -0.0117658
0.288069 0.5 0.375 0.995184 0.0161474 0.0118263
0.151149 0.5 -0.45 0.998868 0.00902986 -0.00741176
0.151149 0.5 0.45 0.998869 0.00902712 0.00744355
0.467897 0.5 -0.1125 0.983291 0.0270314 -0.00637605
0.467897 0.5 0.1125 0.983294 0.0270293 0.00648356
0.350249 0.5 -0.3375 0.9925 0.0195511 -0.0131583
0.350249 0.5 0.3375 0.992505 0.0195469 0.0132332
0.0757758 0.5 0.4875 0.999852 0.00528406 0.00447632
0.0757758 0.5 -0.4875 0.999852 0.00528604 -0.00445885
0.467897 0.5 -0.1875 0.983692 0.0268012 -0.0105538
0.467897 0.5 0.1875 0.983697 0.0267978 0.0106599
0.411736 0.5 -0.3 0.988375 0.0230755 -0.0141951
0.411736 0.5 0.3 0.988382 0.023071 0.0142849
0 0.5 -0.51882 1 0 0
0 0.5 0.51882 1 0 0
0.0124871 0.5 -0.51882 0.99998 0.000872047 -0.000737718
0.0124871 0.5 0.51882 0.99998 0.000871721 0.0007406
0.523432 0.5 -0.00137326 0.977834 0.0306247 0.000231286
0 0.5 -0.525 1 0 0
0 0.5 0.525 1 0 0
0.523432 0.5 -0.075 0.977924 0.0305807 -0.00488788
0.523432 0.5 0.075 0.977926 0.0305791 0.00501011
0 0.5 -0.53118 1 0 0
0 0.5 0.53118 1 0 0
0.0124871 0.5 -0.53118 0.999986 0.000850797 -0.000823035
0.0124871 0.5 0.53118 0.999986 0.000850435 0.000825789
0.288069 0.5 -0.45 0.995551 0.0158383 -0.0137555
0.288069 0.5 0.45 0.995556 0.0158338 0.013814
0.219992 0.5 -0.4875 0.998067 0.0123466 -0.0111674
0.219992 0.5 0.4875 0.998069 0.0123427 0.0112114
0.467897 0.5 -0.2625 0.984296 0.0264646 -0.0145618
0.467897 0.5 0.2625 0.984303 0.02646 0.0146661
0.350249 0.5 -0.4125 0.993002 0.0191956 -0.0157009
0.350249 0.5 0.4125 0.993008 0.0191906 0.0157737
0.523432 0.5 -0.15 0.978317 0.0303755 -0.00975438
0.523432 0.5 0.15 0.978322 0.0303724 0.00987536
0.151149 0.5 -0.525 0.998996 0.00883006 -0.00838783
0.151149 0.5 0.525 0.998997 0.00882691 0.00841837
0.411736 0.5 -0.375 0.989045 0.0226719 -0.0173547
0.411736 0.5 0.375 0.989054 0.0226664 0.0174422
0.0757758 0.5 -0.5625 0.999887 0.00515682 -0.00497546
0.0757758 0.5 0.5625 0.999887 0.00515462 0.00499217
0.523432 0.5 -0.225 0.978974 0.0300408 -0.0144647
0.523432 0.5 0.225 0.978982 0.0300361 0.0145839
0.574156 0.5 0.0375 0.972784 0.0339477 0.00286587
0.574156 0.5 -0.0375 0.972783 0.0339485 -0.00272968
0.467897 0.5 -0.3375 0.985083 0.0260313 -0.0183516
0.467897 0.5 0.3375 0.985093 0.0260254 0.0184534
0.574156 0.5 -0.1125 0.973103 0.03379 -0.00827055
0.574156 0.5 0.1125 0.973107 0.0337875 0.00840585
0 0.5 -0.59382 1 0 0
0 0.5 0.59382 1 0 0
0.0124871 0.5 -0.59382 0.999986 0.000850797 -0.000823035
0.0124871 0.5 0.59382 0.999986 0.000850435 0.000825789
0.288069 0.5 -0.525 0.99597 0.0154813 -0.0155622
0.288069 0.5 0.525 0.995975 0.015476 0.0156185
0 0.5 -0.6 1 0 0
0 0.5 0.6 1 0 0
0.350249 0.5 0.4875 0.993587 0.0187782 0.0180989
0.350249 0.5 -0.4875 0.993579 0.0187842 -0.0180287
0.523432 0.5 -0.3 0.979882 0.0295855 -0.0189451
0.523432 0.5 0.3 0.979893 0.0295794 0.0190618
0.219992 0.5 -0.5625 0.998295 0.0120583 -0.0124739
0.219992 0.5 0.5625 0.998298 0.0120539 0.0125161
0.574156 0.5 -0.1875 0.973749 0.033479 -0.0136777
0.574156 0.5 0.1875 0.973757 0.0334746 0.0138112
0 0.5 -0.60618 1 0 0
0 0.5 0.60618 1 0 0
0.0124871 0.5 -0.60618 0.999993 0.000827868 -0.000898005
0.0124871 0.5 0.60618 0.999993 0.000827472 0.000900617
0.411736 0.5 -0.45 0.989832 0.0221965 -0.0202667
0.411736 0.5 0.45 0.989843 0.0221899 0.0203513
0.151149 0.5 -0.6 0.999136 0.00860851 -0.00925745
0.151149 0.5 0.6 0.999138 0.00860496 0.00928659
0.62168 0.5 4.33681e-17 0.967055 0.0372531 0.000333442
0.467897 0.5 -0.4125 0.986034 0.0255092 -0.021869
0.467897 0.5 0.4125 0.986046 0.0255022 0.0219678
0.624316 0.5 0.0729401 0.966887 0.03737 0.00632449
0.624316 0.5 -0.075 0.966884 0.037372 -0.0061749
0.574156 0.5 -0.2625 0.974711 0.0330236 -0.0188593
0.574156 0.5 0.2625 0.974723 0.0330176 0.0189905
0.0757758 0.5 -0.6375 0.999928 0.00501696 -0.00542959
0.0757758 0.5 0.6375 0.999928 0.00501455 0.00544543
0.624316 0.5 -0.15 0.967481 0.0371039 -0.0123167
0.624316 0.5 0.15 0.967489 0.0370999 0.0124648
0.523432 0.5 -0.375 0.981014 0.0290206 -0.0231339
0.523432 0.5 0.375 0.981029 0.0290131 0.0232474
0.350249 0.5 -0.5625 0.994217 0.0183221 -0.0201184
0.350249 0.5 0.5625 0.994226 0.0183153 0.0201856
0.624316 0.5 -0.225 0.968472 0.0366659 -0.0182513
0.624316 0.5 0.225 0.968484 0.03666 0.0183972
0.288069 0.5 -0.6 0.996424 0.0150849 -0.0171693
0.288069 0.5 0.6 0.996431 0.0150788 0.017223
0.574156 0.5 -0.3375 0.975965 0.0324358 -0.0237385
0.574156 0.5 0.3375 0.975981 0.0324281 0.0238665
0.411736 0.5 0.525 0.990729 0.0216486 0.022981
0.411736 0.5 -0.525 0.990717 0.0216563 -0.0228996
0 0.5 0.66882 1 0 0
0 0.5 -0.66882 1 0 0
0.0124871 0.5 -0.66882 0.999993 0.000827868 -0.000898005
0.0124871 0.5 0.66882 0.999993 0.000827472 0.000900617
0.67013 0.5 -0.0375 0.960896 0.0407841 -0.00338335
0.67013 0.5 0.0375 0.960898 0.0407829 0.00354661
0.219992 0.5 -0.6375 0.998537 0.0117409 -0.0136252
0.219992 0.5 0.6375 0.998541 0.0117359 0.0136654
0 0.5 -0.675 1 0 0
0 0.5 0.675 1 0 0
0.467897 0.5 -0.4875 0.987123 0.0249074 -0.0250739
0.467897 0.5 0.4875 0.987138 0.0248991 0.0251691
0.67013 0.5 -0.1125 0.961367 0.0405821 -0.0102486
0.67013 0.5 0.1125 0.961374 0.0405788 0.0104108
0 0.5 -0.68118 1 0 0
0 0.5 0.68118 1 0 0
0.0124871 0.5 -0.68118 1 0.00080359 -0.000962241
0.0124871 0.5 0.68118 1 0.000803167 0.000964694
0.523432 0.5 -0.45 0.982341 0.0283569 -0.0269771
0.523432 0.5 0.45 0.982358 0.028348 0.0270869
0.151149 0.5 -0.675 0.999285 0.00836848 -0.0100143
0.151149 0.5 0.675 0.999287 0.00836453 0.0100419
0.624316 0.5 -0.3 0.969833 0.0360693 -0.0238792
0.624316 0.5 0.3 0.96985 0.0360616 0.024022
0.67013 0.5 -0.1875 0.962308 0.0401846 -0.0169358
0.67013 0.5 0.1875 0.962319 0.0401792 0.0170959
0.574156 0.5 0.4125 0.977494 0.0317204 0.0283734
0.574156 0.5 -0.4125 0.977474 0.0317296 -0.0282492
0.708171 0.5 3.5345e-17 0.9553 0.0437492 0.000660065
0.0757758 0.5 -0.7125 0.999971 0.00486874 -0.00581901
0.0757758 0.5 0.7125 0.999972 0.00486616 0.00583389
0.715434 0.5 0.0736267 0.954647 0.0441217 0.00787073
0.715434 0.5 -0.075 0.954493 0.0441996 -0.00751981
0.67013 0.5 -0.2625 0.963704 0.0396025 -0.0233342
0.67013 0.5 0.2625 0.963721 0.0395949 0.0234916
0.350249 0.5 -0.6375 0.994899 0.0178159 -0.0219524
0.350249 0.5 0.6375 0.994909 0.017808 0.0220163
0.411736 0.5 0.6 0.99169 0.0210504 0.0253069
0.411736 0.5 -0.6 0.991677 0.0210593 -0.0252292
0.624316 0.5 -0.375 0.971526 0.0353287 -0.0291235
0.624316 0.5 0.375 0.971547 0.0353193 0.0292623
0.715434 0.5 -0.15 0.95533 0.0438645 -0.0149917
0.715434 0.5 0.15 0.955341 0.0438598 0.0151662
0.467897 0.5 -0.5625 0.988325 0.0242347 -0.0279339
0.467897 0.5 0.5625 0.988341 0.0242252 0.0280252
0.288069 0.5 -0.675 0.996904 0.0146545 -0.0185648
0.288069 0.5 0.675 0.996912 0.0146477 0.0186157
0.523432 0.5 -0.525 0.983826 0.0276052 -0.0304322
0.523432 0.5 0.525 0.983846 0.0275948 0.0305377
0 0.5 0.74382 1 0 0
0 0.5 -0.74382 1 0 0
0.0124871 0.5 -0.74382 1 0.00080359 -0.000962241
0.0124871 0.5 0.74382 1 0.000803167 0.000964694
0.219992 0.5 0.7125 0.998795 0.0113933 0.0146522
0.219992 0.5 -0.7125 0.998791 0.0113989 -0.0146144
0.715434 0.5 -0.225 0.956712 0.0433166 -0.0221986
0.715434 0.5 0.225 0.956729 0.0433096 0.0223704
0 0.5 -0.75 1 0 0
0 0.5 0.75 1 0 0
0.67013 0.5 -0.3375 0.965511 0.0388497 -0.029327
0.67013 0.5 0.3375 0.965533 0.0388401 0.0294802
0.574156 0.5 -0.4875 0.979197 0.0309166 -0.032337
0.574156 0.5 0.4875 0.979219 0.0309057 0.0324565
0 0.5 0.75618 1 0 0
0 0.5 -0.75618 1 0 0
0.0124871 0.5 -0.75618 1.00001 0.000778411 -0.0010156
0.0124871 0.5 0.75618 1.00001 0.000777962 0.00101789
0.756814 0.5 0.0375 0.947844 0.0476585 0.00425734
0.756814 0.5 -0.0375 0.947841 0.0476597 -0.00406785
0.151149 0.5 0.75 0.999441 0.00810929 0.0106809
0.151149 0.5 -0.75 0.999439 0.00811361 -0.010655
0.756814 0.5 -0.1125 0.948484 0.0474116 -0.0123151
0.756814 0.5 0.1125 0.948493 0.0474077 0.0125034
0.624316 0.5 -0.45 0.973503 0.0344595 -0.0339148
0.624316 0.5 0.45 0.973529 0.0344483 0.034049
0.715434 0.5 -0.3 0.958602 0.0425698 -0.0290191
0.715434 0.5 0.3 0.958625 0.0425605 0.0291873
0.756814 0.5 -0.1875 0.949763 0.0469225 -0.0203396
0.756814 0.5 0.1875 0.949778 0.0469163 0.0205256
0.67013 0.5 -0.4125 0.967679 0.0379441 -0.0348664
0.67013 0.5 0.4125 0.967706 0.0379327 0.0350152
0.411736 0.5 -0.675 0.992689 0.020414 -0.0272393
0.411736 0.5 0.675 0.992704 0.0204041 0.0273127
0.467897 0.5 -0.6375 0.989607 0.0235012 -0.030426
0.467897 0.5 0.6375 0.989626 0.0234903 0.0305127
0.0757758 0.5 -0.7875 1.00002 0.00471468 -0.00614263
0.0757758 0.5 0.7875 1.00002 0.00471193 0.00615651
0.350249 0.5 -0.7125 0.995611 0.0172729 -0.02352
0.350249 0.5 0.7125 0.995622 0.0172642 0.0235801
0.523432 0.5 0.6 0.985457 0.0267655 0.033568
0.523432 0.5 -0.6 0.985434 0.0267773 -0.0334675
0.797732 0.5 1.60462e-17 0.940725 0.0511854 0.000101263
0.756814 0.5 -0.2625 0.951656 0.0462051 -0.0279962
0.756814 0.5 0.2625 0.951679 0.0461963 0.028179
0.797732 0.5 0.0736267 0.941178 0.0510123 0.00942499
0.797732 0.5 -0.075 0.941094 0.0510496 -0.0089227
0.288069 0.5 0.75 0.997407 0.0141891 0.0197902
0.288069 0.5 -0.75 0.997399 0.0141966 -0.0197426
0.574156 0.5 -0.5625 0.98109 0.0300103 -0.035959
0.574156 0.5 0.5625 0.981116 0.0299979 0.0360735
0.715434 0.5 -0.375 0.960945 0.0416419 -0.0353485
0.715434 0.5 0.375 0.960973 0.0416305 0.035512
0.797732 0.5 -0.15 0.942201 0.0506442 -0.0177798
0.797732 0.5 0.15 0.942215 0.0506388 0.0179798
0.624316 0.5 -0.525 0.975713 0.0334768 -0.0381923
0.624316 0.5 0.525 0.975742 0.0334638 0.0383211
0.219992 0.5 -0.7875 0.999049 0.0110374 -0.015438
0.219992 0.5 0.7875 0.999053 0.0110313 0.0154733
0 0.5 -0.81882 1 0 0
0 0.5 0.81882 1 0 0
0.0124871 0.5 -0.81882 1.00001 0.000778411 -0.0010156
0.0124871 0.5 0.81882 1.00001 0.000777962 0.00101789
0 0.5 -0.825 1 0 0
0 0.5 0.825 1 0 0
0.756814 0.5 -0.3375 0.954095 0.0452784 -0.0351732
0.756814 0.5 0.3375 0.954124 0.0452672 0.0353517
0.67013 0.5 0.4875 0.970185 0.0368904 0.0399879
0.67013 0.5 -0.4875 0.970153 0.0369037 -0.0398448
0.797732 0.5 0.225 0.944047 0.0499724 0.0265044
0.797732 0.5 -0.225 0.944025 0.0499804 -0.0263073
0 0.5 -0.83118 1 0 0
0 0.5 0.83118 1 0 0
0.0124871 0.5 -0.83118 1.00002 0.000752642 -0.0010582
0.0124871 0.5 0.83118 1.00002 0.000752176 0.00106032
0.835107 0.5 -0.0375 0.933903 0.0545439 -0.00478161
0.835107 0.5 0.0375 0.933907 0.0545425 0.00499663
0.151149 0.5 -0.825 0.999595 0.00784782 -0.0111788
0.151149 0.5 0.825 0.999598 0.00784319 0.0112028
0.835107 0.5 0.1125 0.934751 0.0542431 0.0146795
0.835107 0.5 -0.1125 0.934739 0.0542474 -0.0144659
0.715434 0.5 -0.45 0.963678 0.0405525 -0.0410985
0.715434 0.5 0.45 0.963713 0.040539 0.0412565
0.797732 0.5 -0.3 0.946515 0.0490756 -0.0343622
0.797732 0.5 0.3 0.946545 0.0490649 0.0345553
0.467897 0.5 0.7125 0.990963 0.0227056 0.0326182
0.467897 0.5 -0.7125 0.990942 0.0227176 -0.0325367
0.523432 0.5 -0.675 0.987125 0.0258858 -0.0360629
0.523432 0.5 0.675 0.98715 0.0258726 0.0361578
0.411736 0.5 0.75 0.993747 0.0197192 0.0289907
0.411736 0.5 -0.75 0.99373 0.01973 -0.0289219
0.835107 0.5 -0.1875 0.936396 0.0536629 -0.0238788
0.835107 0.5 0.1875 0.936416 0.0536558 0.0240899
0.574156 0.5 0.6375 0.983134 0.0290113 0.0391956
0.574156 0.5 -0.6375 0.983105 0.0290255 -0.039087
0.350249 0.5 -0.7875 0.996337 0.0167013 -0.0248171
0.350249 0.5 0.7875 0.996349 0.0166919 0.0248732
0.756814 0.5 -0.4125 0.957018 0.0441615 -0.0417302
0.756814 0.5 0.4125 0.957053 0.0441481 0.041903
0.0757758 0.5 -0.8625 1.00007 0.00455701 -0.00640111
0.0757758 0.5 0.8625 1.00007 0.00455416 0.00641394
0.624316 0.5 -0.6 0.978095 0.0323972 -0.0419195
0.624316 0.5 0.6 0.978129 0.0323824 0.0420421
0.872064 0.5 4.81386e-17 0.926597 0.057992 0.000113828
0.870122 0.5 0.075 0.927555 0.0576103 0.0109834
0.288069 0.5 -0.825 0.997899 0.013718 -0.0207016
0.288069 0.5 0.825 0.997907 0.0137099 0.0207458
0.67013 0.5 -0.5625 0.972861 0.035746 -0.0442241
0.67013 0.5 0.5625 0.972898 0.0357308 0.044361
0.872064 0.5 -0.075 0.927065 0.0578323 -0.0103722
0.835107 0.5 -0.2625 0.938843 0.0528044 -0.0328381
0.835107 0.5 0.2625 0.938872 0.0527945 0.0330454
0.797732 0.5 -0.375 0.949594 0.0479508 -0.0418007
0.797732 0.5 0.375 0.949631 0.0479376 0.0419885
0.872064 0.5 0.14794 0.928485 0.0573492 0.0208829
0.872064 0.5 -0.15 0.928468 0.0573552 -0.020658
0.715434 0.5 0.525 0.966764 0.0393071 0.0463512
0.715434 0.5 -0.525 0.966724 0.0393226 -0.0461997
0.219992 0.5 -0.8625 0.999309 0.010662 -0.0160972
0.219992 0.5 0.8625 0.999313 0.0106554 0.0161298
0 0.5 -0.89382 1 0 0
0 0.5 0.89382 1 0 0
0.0124871 0.5 -0.89382 1.00002 0.000752642 -0.0010582
0.0124871 0.5 0.89382 1.00002 0.000752176 0.00106032
0 0.5 -0.9 1 0 0
0 0.5 0.9 1 0 0
0.756814 0.5 -0.4875 0.960349 0.0428786 -0.0476109
0.756814 0.5 0.4875 0.960391 0.0428629 0.0477769
0.872064 0.5 -0.225 0.930773 0.0565736 -0.0305472
0.872064 0.5 0.225 0.9308 0.0565646 0.0307687
0.835107 0.5 0.3375 0.942035 0.0516825 0.0414148
0.835107 0.5 -0.3375 0.941999 0.0516952 -0.0412123
0 0.5 -0.90618 1 0 0
0 0.5 0.90618 1 0 0
0.0124871 0.5 -0.90618 1.00002 0.000726716 -0.00109031
0.0124871 0.5 0.90618 1.00002 0.000726231 0.00109223
0.905821 0.5 0.0375 0.919565 0.0612874 0.00575419
0.905821 0.5 -0.0375 0.91956 0.0612889 -0.00551437
0.151149 0.5 -0.9 0.999751 0.00757522 -0.0115877
0.151149 0.5 0.9 0.999754 0.00757034 0.0116097
0.905821 0.5 -0.1125 0.920601 0.0609445 -0.0166717
0.905821 0.5 0.1125 0.920615 0.0609397 0.01691
0.523432 0.5 -0.75 0.988859 0.0249443 -0.03821
0.523432 0.5 0.75 0.988886 0.0249298 0.0382988
0.574156 0.5 -0.7125 0.985193 0.027977 -0.041706
0.574156 0.5 0.7125 0.985225 0.0279615 0.0418078
0.797732 0.5 -0.45 0.953178 0.0466295 -0.0485197
0.797732 0.5 0.45 0.953222 0.0466138 0.0487008
0.467897 0.5 0.7875 0.992321 0.0218823 0.0343386
0.467897 0.5 -0.7875 0.992299 0.0218955 -0.0342626
0.624316 0.5 -0.675 0.980592 0.0312381 -0.0450727
0.624316 0.5 0.675 0.980629 0.0312215 0.0451883
0.411736 0.5 -0.825 0.99478 0.0190174 -0.0302774
0.411736 0.5 0.825 0.994798 0.0190057 0.0303412
0.872064 0.5 -0.3 0.93392 0.0555072 -0.0398637
0.872064 0.5 0.3 0.933956 0.0554952 0.0400806
0.67013 0.5 0.6375 0.975775 0.0344734 0.0480979
0.67013 0.5 -0.6375 0.975734 0.0344908 -0.0479683
0.905821 0.5 -0.1875 0.922664 0.0602648 -0.0275064
0.905821 0.5 0.1875 0.922688 0.0602569 0.0277419
0.350249 0.5 -0.8625 0.997063 0.0161096 -0.0258463
0.350249 0.5 0.8625 0.997076 0.0160995 0.0258981
0.835107 0.5 -0.4125 0.945765 0.0503582 -0.048811
0.835107 0.5 0.4125 0.94581 0.0503428 0.0490071
0.715434 0.5 -0.6 0.969998 0.0379736 -0.0506054
0.715434 0.5 0.6 0.970043 0.0379558 0.0507495
0.939201 0.5 3.31766e-17 0.91186 0.0648654 0.000125951
0.0757758 0.5 -0.9375 1.00011 0.00439804 -0.00659625
0.0757758 0.5 0.9375 1.00011 0.00439506 0.00660793
0.939112 0.5 0.075 0.912546 0.0646438 0.0131339
0.939201 0.5 -0.075 0.912437 0.0646796 -0.0118955
0.756814 0.5 -0.5625 0.963979 0.0414531 -0.0527389
0.756814 0.5 0.5625 0.964027 0.0414352 0.0528976
0.905821 0.5 0.2625 0.925735 0.059255 0.0380357
0.905821 0.5 -0.2625 0.9257 0.0592661 -0.0378045
0.288069 0.5 -0.9 0.998396 0.0132256 -0.0214464
0.288069 0.5 0.9 0.998405 0.013217 0.0214871
0.872064 0.5 -0.375 0.937807 0.0541813 -0.0484423
0.872064 0.5 0.375 0.937852 0.0541664 0.0486529
0.939201 0.5 0.148627 0.914268 0.0640842 0.0241043
0.939201 0.5 -0.15 0.914162 0.0641245 -0.0236788
0.797732 0.5 -0.525 0.95716 0.0451386 -0.0544464
0.797732 0.5 0.525 0.957211 0.0451205 0.0546198
0.219992 0.5 -0.9375 0.999568 0.0102788 -0.0165962
0.219992 0.5 0.9375 0.999572 0.0102719 0.016626
0.939201 0.5 -0.225 0.916995 0.0632149 -0.0349915
0.939201 0.5 0.225 0.917027 0.0632048 0.0352367
0.905821 0.5 -0.3375 0.929622 0.0579738 -0.0473908
0.905821 0.5 0.3375 0.929667 0.0579597 0.0476168
0.835107 0.5 -0.4875 0.95004 0.048821 -0.0556094
0.835107 0.5 0.4875 0.950093 0.048803 0.0557978
0 0.5 -0.96882 1 0 0
0 0.5 0.96882 1 0 0
0.0124871 0.5 -0.96882 1.00002 0.000726716 -0.00109031
0.0124871 0.5 0.96882 1.00002 0.000726231 0.00109223
0.96969 0.5 -0.0375 0.904409 0.0682987 -0.00630288
0.96969 0.5 0.0375 0.904415 0.0682969 0.00656647
0.574156 0.5 0.7875 0.987342 0.026864 0.0439091
0.574156 0.5 -0.7875 0.987308 0.026881 -0.0438143
0 0.5 -0.975 1 0 0
0 0.5 0.975 1 0 0
0.624316 0.5 -0.75 0.983144 0.0300174 -0.0476445
0.624316 0.5 0.75 0.983184 0.0299992 0.0477525
0.96969 0.5 -0.1125 0.90568 0.0678976 -0.0190408
0.96969 0.5 0.1125 0.905697 0.0678922 0.0193028
0.523432 0.5 -0.825 0.990599 0.0239662 -0.0399124
0.523432 0.5 0.825 0.990629 0.0239506 0.0399947
0.67013 0.5 -0.7125 0.978701 0.0331581 -0.0510621
0.67013 0.5 0.7125 0.978745 0.033139 0.0511836
0 0.5 -0.98118 1 0 0
0 0.5 0.98118 1 0 0
0.467897 0.5 -0.8625 0.99365 0.0210464 -0.03561
0.467897 0.5 0.8625 0.993674 0.0210324 0.03568
0.0124871 0.5 -0.98118 1.00003 0.000700974 -0.0011124
0.0124871 0.5 0.98118 1.00003 0.000700484 0.00111413
0.872064 0.5 0.45 0.942372 0.0526056 0.05635
0.872064 0.5 -0.45 0.942318 0.0526234 -0.0561469
0.715434 0.5 -0.675 0.973416 0.0365279 -0.0542893
0.715434 0.5 0.675 0.973465 0.0365079 0.0544249
0.939201 0.5 0.3 0.920901 0.0619596 0.0458583
0.939201 0.5 -0.3 0.920857 0.061973 -0.0456182
0.151149 0.5 -0.975 0.999905 0.00730005 -0.0118862
0.151149 0.5 0.975 0.999908 0.00729496 0.0119062
0.96969 0.5 -0.1875 0.908197 0.0671057 -0.031393
0.96969 0.5 0.1875 0.908226 0.0670969 0.031652
0.756814 0.5 0.6375 0.96787 0.0398891 0.0572288
0.756814 0.5 -0.6375 0.967816 0.0399096 -0.0570787
0.411736 0.5 -0.9 0.995818 0.0182856 -0.031314
0.411736 0.5 0.9 0.995837 0.0182731 0.0313725
0.905821 0.5 -0.4125 0.934294 0.0564175 -0.0561025
0.905821 0.5 0.4125 0.934349 0.0564003 0.0563196
0.995005 0.5 0.0749309 0.899527 0.0702158 0.0145473
0.797732 0.5 -0.6 0.961427 0.0435058 -0.0595141
0.797732 0.5 0.6 0.961485 0.0434851 0.0596789
1.00005 0.5 3.26706e-18 0.897481 0.0709589 0.000116233
0.350249 0.5 0.9375 0.997793 0.0154943 0.0266651
0.350249 0.5 -0.9375 0.997779 0.015505 -0.0266177
1.00005 0.5 -0.0749309 0.89817 0.0707518 -0.0133505
0.96969 0.5 -0.2625 0.911892 0.0659428 -0.0431101
0.96969 0.5 0.2625 0.911933 0.0659303 0.0433643
0.835107 0.5 -0.5625 0.954693 0.0471158 -0.0614741
0.835107 0.5 0.5625 0.954754 0.0470951 0.0616538
1.00005 0.5 -0.149862 0.900227 0.0701342 -0.0265443
0.939201 0.5 -0.375 0.925626 0.0604291 -0.0553765
0.939201 0.5 0.375 0.925681 0.0604125 0.0556096
1.00029 0.5 0.148988 0.900422 0.0700613 0.0269587
0.0757758 0.5 -1.0125 1.00015 0.00424013 -0.00673071
0.0757758 0.5 1.0125 1.00015 0.00423713 0.00674123
0.288069 0.5 -0.975 0.998886 0.0127261 -0.0219863
0.288069 0.5 0.975 0.998895 0.012717 0.0220233
0.872064 0.5 -0.525 0.947318 0.0508664 -0.0628835
0.872064 0.5 0.525 0.94738 0.0508458 0.0630782
1.00005 0.5 0.224793 0.903625 0.0691151 0.0394298
1.00005 0.5 -0.224793 0.9036 0.0691223 -0.0392006
0.96969 0.5 0.3375 0.916716 0.0644209 0.0542193
0.96969 0.5 -0.3375 0.916662 0.0644367 -0.0539712
1.02709 0.5 0.0368226 0.890036 0.0742428 0.00718108
1.02709 0.5 -0.0368226 0.890029 0.0742446 -0.00689446
0.905821 0.5 0.4875 0.939652 0.0546063 0.063985
0.905821 0.5 -0.4875 0.939588 0.0546266 -0.0637751
1.02709 0.5 -0.110468 0.89149 0.0738217 -0.0208288
1.02709 0.5 0.110468 0.891179 0.0740212 0.0244242
0.67013 0.5 -0.7875 0.981691 0.0317687 -0.0535076
0.67013 0.5 0.7875 0.981739 0.0317477 0.0536204
0.624316 0.5 -0.825 0.985693 0.0287532 -0.0496433
0.624316 0.5 0.825 0.985736 0.0287335 0.0497431
0.219992 0.5 -1.0125 0.999828 0.0098936 -0.0169443
0.219992 0.5 1.0125 0.999834 0.00988644 0.0169712
0.574156 0.5 -0.8625 0.989405 0.0257525 -0.0454242
0.574156 0.5 0.8625 0.989441 0.0257344 0.0455115
0.715434 0.5 -0.75 0.976895 0.0350091 -0.0572454
0.715434 0.5 0.75 0.976949 0.0349872 0.0573718
0.756814 0.5 -0.7125 0.971766 0.0382734 -0.0606122
0.756814 0.5 0.7125 0.971825 0.0382509 0.0607526
0.523432 0.5 0.9 0.992343 0.0229483 0.0412588
0.523432 0.5 -0.9 0.992312 0.0229649 -0.0411834
0.939201 0.5 0.45 0.931214 0.0585954 0.0643174
0.939201 0.5 -0.45 0.931149 0.0586154 -0.0640926
1.04168 0.5 0 0.885812 0.0759658 0.000146385
1.02709 0.5 -0.184113 0.894384 0.0729852 -0.0343472
1.02709 0.5 0.184113 0.894417 0.0729758 0.0346292
0 0.5 1.04382 1 0 0
0 0.5 -1.04382 1 0 0
0.0124871 0.5 -1.04382 1.00003 0.000700974 -0.0011124
0.0124871 0.5 1.04382 1.00003 0.000700484 0.00111413
1.00005 0.5 -0.299723 0.908192 0.0677402 -0.0510711
1.00005 0.5 0.299723 0.908226 0.0677305 0.0512975
1.04168 0.5 -0.0729162 0.886555 0.0757528 -0.0141683
1.04168 0.5 0.0729162 0.886569 0.075749 0.0144603
0.797732 0.5 -0.675 0.965871 0.0417591 -0.0636995
0.797732 0.5 0.675 0.965934 0.0417359 0.0638544
0.467897 0.5 -0.9375 0.994972 0.020181 -0.0365923
0.467897 0.5 0.9375 0.994997 0.0201661 0.0366562
0 0.5 -1.05 1 0 0
0 0.5 1.05 1 0 0
0.835107 0.5 0.6375 0.959663 0.045249 0.0665548
0.835107 0.5 -0.6375 0.959596 0.0452726 -0.066385
1.04168 0.5 -0.145832 0.888782 0.0751157 -0.0282011
1.04168 0.5 0.145832 0.88881 0.0751081 0.0284908
0.96969 0.5 -0.4125 0.922342 0.0626248 -0.0638056
0.96969 0.5 0.4125 0.922407 0.0626055 0.0640461
0 0.5 -1.05618 1 0 0
0 0.5 1.05618 1 0 0
0.0124871 0.5 -1.05618 1.00003 0.000675628 -0.00112529
0.0124871 0.5 1.05618 1.00003 0.000675145 0.00112683
1.05694 0.5 -0.0360765 0.881625 0.0776532 -0.00724443
1.05694 0.5 0.0360765 0.881626 0.0776532 0.00742263
0.411736 0.5 0.975 0.996847 0.01753 0.0320998
0.411736 0.5 -0.975 0.996828 0.0175431 -0.0320467
0.872064 0.5 -0.6 0.952656 0.048944 -0.0685947
0.872064 0.5 0.6 0.952727 0.0489205 0.0687795
1.02709 0.5 -0.257758 0.89863 0.0717551 -0.0471843
1.02709 0.5 0.257758 0.898678 0.0717421 0.0474614
0.151149 0.5 -1.05 1.00006 0.00702483 -0.0120816
0.151149 0.5 1.05 1.00006 0.00701957 0.0120996
1.05694 0.5 -0.108229 0.883153 0.0772202 -0.0217663
1.05694 0.5 0.108229 0.882362 0.0775546 0.0223653
1.04168 0.5 -0.218749 0.892436 0.0740702 -0.0416784
1.04168 0.5 0.218749 0.892478 0.0740588 0.0419641
0.905821 0.5 -0.5625 0.945325 0.0526434 -0.0703559
0.905821 0.5 0.5625 0.945399 0.0526202 0.0705561
1.00005 0.5 -0.374654 0.913858 0.0660211 -0.0619465
1.00005 0.5 0.374654 0.913902 0.0660088 0.0621693
0.350249 0.5 -1.0125 0.998473 0.0148944 -0.0271443
0.350249 0.5 1.0125 0.998487 0.0148832 0.0271872
1.05694 0.5 -0.180382 0.886177 0.0763654 -0.0358626
1.05694 0.5 0.180382 0.886182 0.0763647 0.0360432
1.07319 0.5 0.0709442 0.877657 0.0793567 0.0181834
0.939201 0.5 0.525 0.937326 0.0565481 0.0718904
0.939201 0.5 -0.525 0.937251 0.0565713 -0.0716751
1.02709 0.5 -0.331404 0.904108 0.0701591 -0.0590965
1.02709 0.5 0.331404 0.904169 0.0701423 0.0593673
1.08112 0.5 -3.98986e-18 0.874202 0.0805702 0.000123918
1.04168 0.5 -0.291665 0.897416 0.0726398 -0.0543401
1.04168 0.5 0.291665 0.897472 0.0726246 0.0546203
1.08112 0.5 -0.0709442 0.874989 0.0803523 -0.0149699
0.96969 0.5 -0.4875 0.928754 0.0605397 -0.0724174
0.96969 0.5 0.4875 0.928829 0.0605168 0.0726482
1.05694 0.5 -0.252535 0.890616 0.0751085 -0.0492611
1.05694 0.5 0.252535 0.890624 0.0751073 0.0494439
0.288069 0.5 -1.05 0.999361 0.0122234 -0.0223343
0.288069 0.5 1.05 0.999371 0.0122139 0.0223676
0.0757758 0.5 -1.0875 1.00017 0.00408451 -0.00680934
0.0757758 0.5 1.0875 1.00018 0.00408148 0.00681869
1.08112 0.5 -0.141888 0.877341 0.079702 -0.0297758
1.08145 0.5 0.140165 0.877698 0.079575 0.0304041
0.715434 0.5 -0.825 0.980358 0.0334406 -0.0594893
0.715434 0.5 0.825 0.980415 0.0334169 0.0596059
0.756814 0.5 -0.7875 0.975732 0.0365727 -0.0633469
0.756814 0.5 0.7875 0.975795 0.0365478 0.0634769
0.67013 0.5 -0.8625 0.984643 0.0303422 -0.0553249
0.67013 0.5 0.8625 0.984694 0.0303199 0.0554284
0.797732 0.5 0.75 0.970445 0.0399019 0.0671422
0.797732 0.5 -0.75 0.970376 0.0399275 -0.0669981
0.624316 0.5 -0.9 0.988191 0.0274632 -0.0510905
0.624316 0.5 0.9 0.988236 0.0274422 0.0511816
1.00005 0.5 -0.449585 0.920408 0.0640016 -0.0716351
1.00005 0.5 0.449585 0.920461 0.0639865 0.0718529
0.835107 0.5 -0.7125 0.964633 0.0433234 -0.070322
0.835107 0.5 0.7125 0.964706 0.0432975 0.0704806
0.574156 0.5 -0.9375 0.991445 0.0246071 -0.0465573
0.574156 0.5 0.9375 0.991483 0.0245879 0.0466365
1.10076 0.5 0.034981 0.868073 0.0829433 0.00794121
1.10076 0.5 -0.034981 0.868066 0.0829453 -0.00762282
1.08112 0.5 -0.212833 0.881201 0.0786343 -0.0440135
1.08112 0.5 0.212833 0.881227 0.0786274 0.0442595
0.872064 0.5 -0.675 0.958194 0.0468894 -0.0732531
0.872064 0.5 0.675 0.958272 0.046863 0.0734267
1.04168 0.5 -0.364581 0.903572 0.0708564 -0.0659622
1.04168 0.5 0.364581 0.903641 0.0708375 0.0662353
1.02709 0.5 0.405049 0.910711 0.0682136 0.0701505
1.02709 0.5 -0.405049 0.910636 0.0682341 -0.0698875
1.05694 0.5 -0.324688 0.896347 0.0734763 -0.0617085
1.05694 0.5 0.324688 0.896359 0.0734743 0.0618936
1.10076 0.5 -0.104943 0.869681 0.0825061 -0.0230404
1.10076 0.5 0.104943 0.869703 0.0825001 0.0233572