# UMean  POINT_DATA 63140
# x  y  z  UMean_x  UMean_y  UMean_z
0 0.1 0 1 0 0
0 0.1 -0.0179898 1 0 0
0 0.1 0.0179898 1 0 0
0.0363518 0.1 -0.0179898 1.00294 0.00746625 -0.000197459
0.0363518 0.1 0.0179898 1.00294 0.00746608 0.000207632
0 0.1 -0.0570102 1 0 0
0 0.1 0.0570102 1 0 0
0.0363518 0.1 0.0570102 1.00294 0.00746608 0.000207632
0.0363518 0.1 -0.0570102 1.00294 0.00746625 -0.000197459
0 0.1 -0.075 1 0 0
0 0.1 0.075 1 0 0
0.0757758 0.1 -0.0375 1.00617 0.0156908 -0.000411416
0.0757758 0.1 0.0375 1.00617 0.0156905 0.000432628
0 0.1 -0.0929898 1 0 0
0 0.1 0.0929898 1 0 0
0.0363518 0.1 -0.0929898 1.00288 0.00743619 -0.000615235
0.0363518 0.1 0.0929898 1.00288 0.00743558 0.0006256
0 0.1 -0.13201 1 0 0
0 0.1 0.13201 1 0 0
0.0757758 0.1 -0.1125 1.00605 0.0156296 -0.00128277
0.0757758 0.1 0.1125 1.00604 0.0156284 0.00130438
0.0363518 0.1 -0.13201 1.00288 0.00743619 -0.000615235
0.0363518 0.1 0.13201 1.00288 0.00743558 0.0006256
0 0.1 -0.15 1 0 0
0 0.1 0.15 1 0 0
0.150379 0.1 -4.33681e-19 1.00829 0.0152107 1.83627e-05
0 0.1 -0.16799 1 0 0
0 0.1 0.16799 1 0 0
0.150379 0.1 -0.075 1.00833 0.0151875 -0.00145985
0.150379 0.1 0.075 1.00833 0.0151873 0.00149676
0.0363518 0.1 -0.16799 1.00282 0.00739973 -0.00101616
0.0363518 0.1 0.16799 1.00282 0.00739903 0.00102636
0.0757758 0.1 -0.1875 1.00592 0.015556 -0.00211919
0.0757758 0.1 0.1875 1.00592 0.0155546 0.00214046
0 0.1 -0.20701 1 0 0
0 0.1 0.20701 1 0 0
0.0363518 0.1 -0.20701 1.00282 0.00739973 -0.00101616
0.0363518 0.1 0.20701 1.00282 0.00739903 0.00102636
0.150379 0.1 -0.15 1.00849 0.0151361 -0.00294336
0.150379 0.1 0.15 1.00849 0.0151356 0.00298056
0.219992 0.1 -0.0375 1.01031 0.0147567 -0.001011
0.219992 0.1 0.0375 1.01031 0.0147568 0.00106253
0 0.1 -0.225 1 0 0
0 0.1 0.225 1 0 0
0 0.1 -0.24299 1 0 0
0 0.1 0.24299 1 0 0
0.0363518 0.1 0.24299 1.00277 0.00736642 0.00140996
0.0363518 0.1 -0.24299 1.00277 0.00736699 -0.00140009
0.219992 0.1 -0.1125 1.0106 0.0147244 -0.00307861
0.219992 0.1 0.1125 1.01061 0.0147246 0.00313049
0.150379 0.1 0.225 1.00873 0.0150783 0.00443935
0.150379 0.1 -0.225 1.00872 0.0150787 -0.0044026
0.0757758 0.1 0.2625 1.00581 0.0154883 0.00294018
0.0757758 0.1 -0.2625 1.00582 0.0154895 -0.00291963
0 0.1 -0.28201 1 0 0
0 0.1 0.28201 1 0 0
0.0363518 0.1 -0.28201 1.00277 0.00736699 -0.00140009
0.0363518 0.1 0.28201 1.00277 0.00736642 0.00140996
0.287374 0.1 0 1.00725 0.0142846 3.29217e-05
0.219992 0.1 -0.1875 1.01117 0.0146845 -0.00518036
0.219992 0.1 0.1875 1.01118 0.0146849 0.00523296
0.287374 0.1 -0.075 1.00738 0.0142772 -0.00266018
0.287374 0.1 0.075 1.00738 0.0142777 0.00272637
0 0.1 -0.3 1 0 0
0 0.1 0.3 1 0 0
0 0.1 -0.31799 1 0 0
0 0.1 0.31799 1 0 0
0.0363518 0.1 -0.31799 1.00274 0.00733448 -0.00175128
0.0363518 0.1 0.31799 1.00274 0.00733383 0.00176061
0.287374 0.1 -0.15 1.00779 0.0142529 -0.00536232
0.287374 0.1 0.15 1.0078 0.0142533 0.00542909
0.150379 0.1 -0.3 1.00894 0.0150167 -0.00578756
0.150379 0.1 0.3 1.00895 0.0150162 0.00582305
0.219992 0.1 -0.2625 1.01173 0.014634 -0.00722088
0.219992 0.1 0.2625 1.01174 0.0146343 0.00727204
0.0757758 0.1 -0.3375 1.00575 0.0154227 -0.00365114
0.0757758 0.1 0.3375 1.00575 0.0154214 0.00367057
0.350249 0.1 -0.0375 1.00432 0.0138336 -0.00160483
0.350249 0.1 0.0375 1.00432 0.0138342 0.00168436
0 0.1 0.35701 1 0 0
0 0.1 -0.35701 1 0 0
0.0363518 0.1 -0.35701 1.00274 0.00733448 -0.00175128
0.0363518 0.1 0.35701 1.00274 0.00733383 0.00176061
0.287374 0.1 -0.225 1.00838 0.014205 -0.00804023
0.287374 0.1 0.225 1.00839 0.0142052 0.00810661
0.350249 0.1 0.1125 1.00457 0.0138373 0.00497377
0.350249 0.1 -0.1125 1.00456 0.0138362 -0.00489323
0 0.1 -0.375 1 0 0
0 0.1 0.375 1 0 0
0 0.1 -0.39299 1 0 0
0 0.1 0.39299 1 0 0
0.0363518 0.1 -0.39299 1.00272 0.00730292 -0.00206915
0.0363518 0.1 0.39299 1.00272 0.00730236 0.00207809
0.350249 0.1 -0.1875 1.00509 0.0138079 -0.008191
0.350249 0.1 0.1875 1.0051 0.013808 0.00827179
0.219992 0.1 -0.3375 1.0122 0.0145693 -0.00913221
0.219992 0.1 0.3375 1.01221 0.0145695 0.0091816
0.150379 0.1 -0.375 1.00916 0.0149502 -0.00707022
0.150379 0.1 0.375 1.00916 0.0149497 0.00710431
0.411108 0.1 -2.21177e-17 0.999011 0.0141107 4.71759e-05
0.287374 0.1 -0.3 1.00901 0.0141299 -0.0106053
0.287374 0.1 0.3 1.00902 0.0141299 0.0106701
0.411108 0.1 0.075 0.999158 0.0141104 0.00402843
0.411108 0.1 -0.075 0.999154 0.0141097 -0.00393384
0.0757758 0.1 -0.4125 1.00572 0.0153584 -0.00431377
0.0757758 0.1 0.4125 1.00572 0.0153573 0.00433243
0 0.1 -0.43201 1 0 0
0 0.1 0.43201 1 0 0
0.0363518 0.1 -0.43201 1.00272 0.00730292 -0.00206915
0.0363518 0.1 0.43201 1.00272 0.00730236 0.00207809
0.411108 0.1 -0.15 0.999603 0.0140917 -0.0078976
0.411108 0.1 0.15 0.999612 0.0140925 0.00799246
0.350249 0.1 -0.2625 1.00579 0.0137356 -0.0114103
0.350249 0.1 0.2625 1.0058 0.0137356 0.01149
0 0.1 -0.45 1 0 0
0 0.1 0.45 1 0 0
0.219992 0.1 -0.4125 1.01266 0.0144994 -0.0109043
0.219992 0.1 0.4125 1.01267 0.0144998 0.0109518
0 0.1 -0.46799 1 0 0
0 0.1 0.46799 1 0 0
0.411108 0.1 -0.225 1.00033 0.0140347 -0.0117925
0.411108 0.1 0.225 1.00035 0.014035 0.0118868
0.467897 0.1 0.0375 0.993923 0.0143747 0.00238238
0.467897 0.1 -0.0375 0.993921 0.0143745 -0.00227382
0.0363518 0.1 -0.46799 1.00272 0.00727393 -0.00236723
0.0363518 0.1 0.46799 1.00272 0.00727322 0.0023761
0.287374 0.1 -0.375 1.00964 0.0140317 -0.0129971
0.287374 0.1 0.375 1.00965 0.0140314 0.01306
0.150379 0.1 -0.45 1.00937 0.0148826 -0.0082362
0.150379 0.1 0.45 1.00938 0.0148821 0.00826879
0.467897 0.1 -0.1125 0.994253 0.0143688 -0.00690755
0.467897 0.1 0.1125 0.994259 0.0143697 0.00701609
0.350249 0.1 0.3375 1.00658 0.0136239 0.0145261
0.350249 0.1 -0.3375 1.00657 0.0136245 -0.0144483
0.0757758 0.1 -0.4875 1.00573 0.0152994 -0.00493496
0.0757758 0.1 0.4875 1.00573 0.015298 0.00495346
0.467897 0.1 -0.1875 0.994942 0.0143287 -0.011488
0.467897 0.1 0.1875 0.994953 0.0143295 0.0115964
0 0.1 -0.50701 1 0 0
0 0.1 0.50701 1 0 0
0.0363518 0.1 -0.50701 1.00272 0.00727393 -0.00236723
0.0363518 0.1 0.50701 1.00272 0.00727322 0.0023761
0.411108 0.1 -0.3 1.00126 0.0139325 -0.0155235
0.411108 0.1 0.3 1.00127 0.0139324 0.0156159
0.522864 0.1 -2.08167e-17 0.987161 0.015054 6.14609e-05
0 0.1 -0.525 1 0 0
0 0.1 0.525 1 0 0
0.522864 0.1 -0.075 0.98736 0.0150454 -0.00531386
0.522864 0.1 0.075 0.987365 0.0150459 0.00543664
0.287374 0.1 -0.45 1.01027 0.0139153 -0.0151718
0.287374 0.1 0.45 1.01027 0.0139145 0.0152321
0.219992 0.1 -0.4875 1.01306 0.0144229 -0.0124648
0.219992 0.1 0.4875 1.01307 0.0144229 0.0125092
0.467897 0.1 0.2625 0.995952 0.0142423 0.0160251
0.467897 0.1 -0.2625 0.995938 0.0142419 -0.0159182
0.350249 0.1 -0.4125 1.00738 0.0134801 -0.0172467
0.350249 0.1 0.4125 1.00739 0.013479 0.0173222
0 0.1 -0.54299 1 0 0
0 0.1 0.54299 1 0 0
0.522864 0.1 0.15 0.987981 0.0150082 0.0107538
0.522864 0.1 -0.15 0.987971 0.0150072 -0.0106313
0.0363518 0.1 -0.54299 1.00275 0.00724398 -0.00264245
0.0363518 0.1 0.54299 1.00275 0.00724333 0.00265103
0.150379 0.1 -0.525 1.00958 0.0148101 -0.00927473
0.150379 0.1 0.525 1.00958 0.0148094 0.00930594
0.411108 0.1 -0.375 1.00231 0.0137866 -0.0190055
0.411108 0.1 0.375 1.00232 0.013786 0.0190954
0.0757758 0.1 -0.5625 1.00578 0.0152381 -0.00550848
0.0757758 0.1 0.5625 1.00578 0.0152368 0.00552638
0.522864 0.1 -0.225 0.98898 0.0149214 -0.0158116
0.522864 0.1 0.225 0.988994 0.0149222 0.0159331
0.574156 0.1 -0.0375 0.980662 0.015704 -0.00298087
0.574156 0.1 0.0375 0.980664 0.0157041 0.0031176
0.467897 0.1 -0.3375 0.997154 0.0141043 -0.020105
0.467897 0.1 0.3375 0.997171 0.0141042 0.0202092
0 0.1 -0.58201 1 0 0
0 0.1 0.58201 1 0 0
0.0363518 0.1 -0.58201 1.00275 0.00724398 -0.00264245
0.0363518 0.1 0.58201 1.00275 0.00724333 0.00265103
0.574156 0.1 -0.1125 0.981127 0.0156761 -0.00903773
0.574156 0.1 0.1125 0.981135 0.015677 0.00917394
0.287374 0.1 -0.525 1.01086 0.0137835 -0.0171009
0.287374 0.1 0.525 1.01087 0.0137823 0.0171582
0 0.1 -0.6 1 0 0
0 0.1 0.6 1 0 0
0.350249 0.1 -0.4875 1.00819 0.0133089 -0.0197703
0.350249 0.1 0.4875 1.0082 0.0133066 0.0198425
0.522864 0.1 0.3 0.99034 0.0147809 0.0208715
0.522864 0.1 -0.3 0.990322 0.0147805 -0.0207523
0.219992 0.1 -0.5625 1.01341 0.0143309 -0.0138237
0.219992 0.1 0.5625 1.01341 0.0143307 0.0138665
0.574156 0.1 -0.1875 0.982077 0.0155984 -0.0149821
0.574156 0.1 0.1875 0.982091 0.0155995 0.0151176
0.411108 0.1 -0.45 1.00342 0.0136019 -0.0221824
0.411108 0.1 0.45 1.00343 0.0136007 0.0222691
0 0.1 -0.61799 1 0 0
0 0.1 0.61799 1 0 0
0.150379 0.1 -0.6 1.00979 0.0147314 -0.0101926
0.150379 0.1 0.6 1.00979 0.0147306 0.0102226
0.0363518 0.1 -0.61799 1.00277 0.00721564 -0.00288663
0.0363518 0.1 0.61799 1.00277 0.00721506 0.00289475
0.467897 0.1 0.4125 0.998533 0.0139148 0.0240646
0.467897 0.1 -0.4125 0.998514 0.0139153 -0.0239637
0.623803 0.1 1.04083e-17 0.97281 0.0167137 7.52729e-05
0.623803 0.1 -0.075 0.973087 0.0166924 -0.00677045
0.623803 0.1 0.075 0.973092 0.016693 0.00692078
0.574156 0.1 -0.2625 0.983464 0.0154615 -0.0206964
0.574156 0.1 0.2625 0.983483 0.0154625 0.0208303
0.623803 0.1 -0.15 0.973927 0.0166191 -0.0135192
0.623803 0.1 0.15 0.973939 0.0166201 0.0136688
0.0757758 0.1 0.6375 1.00582 0.0151789 0.00603441
0.0757758 0.1 -0.6375 1.00582 0.0151801 -0.00601749
0.522864 0.1 -0.375 0.991916 0.0145823 -0.0253577
0.522864 0.1 0.375 0.991937 0.014582 0.0254738
0 0.1 0.65701 1 0 0
0 0.1 -0.65701 1 0 0
0.0363518 0.1 0.65701 1.00277 0.00721506 0.00289475
0.0363518 0.1 -0.65701 1.00277 0.00721564 -0.00288663
0.350249 0.1 -0.5625 1.00899 0.0131257 -0.0220026
0.350249 0.1 0.5625 1.009 0.0131234 0.0220714
0.623803 0.1 -0.225 0.975312 0.0164797 -0.0200613
0.623803 0.1 0.225 0.975329 0.0164807 0.0202095
0.287374 0.1 -0.6 1.01145 0.01364 -0.0187911
0.287374 0.1 0.6 1.01146 0.0136385 0.0188458
0.574156 0.1 -0.3375 0.985217 0.0152616 -0.0260792
0.574156 0.1 0.3375 0.985239 0.0152617 0.02621
0.411108 0.1 -0.525 1.00456 0.0133902 -0.0250208
0.411108 0.1 0.525 1.00458 0.0133885 0.0251039
0.67013 0.1 -0.0375 0.965239 0.0176825 -0.00372592
0.67013 0.1 0.0375 0.965241 0.0176829 0.00388979
0.219992 0.1 0.6375 1.01379 0.0142288 0.0150609
0.219992 0.1 -0.6375 1.01378 0.0142292 -0.0150194
0 0.1 -0.675 1 0 0
0 0.1 0.675 1 0 0
0.467897 0.1 -0.4875 0.999956 0.0136832 -0.0274482
0.467897 0.1 0.4875 0.999975 0.0136824 0.0275452
0.67013 0.1 -0.1125 0.965881 0.0176264 -0.011283
0.67013 0.1 0.1125 0.96589 0.0176275 0.0114465
0.522864 0.1 -0.45 0.99368 0.0143307 -0.0295544
0.522864 0.1 0.45 0.993703 0.0143295 0.0296666
0.150379 0.1 0.675 1.01001 0.0146511 0.0110223
0.150379 0.1 -0.675 1.01001 0.0146519 -0.0109933
0.623803 0.1 0.3 0.977199 0.0162702 0.026416
0.623803 0.1 -0.3 0.977176 0.0162697 -0.0262705
0 0.1 -0.69299 1 0 0
0 0.1 0.69299 1 0 0
0.0363518 0.1 0.69299 1.00279 0.00719041 0.0031038
0.0363518 0.1 -0.69299 1.00279 0.00719079 -0.00309606
0.67013 0.1 0.1875 0.967191 0.0174975 0.0188286
0.67013 0.1 -0.1875 0.967174 0.0174965 -0.0186663
0.574156 0.1 -0.4125 0.987239 0.0149981 -0.0310278
0.574156 0.1 0.4125 0.987265 0.0149972 0.0311552
0.714971 0.1 -1.82146e-17 0.956555 0.0189997 8.8584e-05
0.0757758 0.1 0.7125 1.00586 0.0151287 0.00647013
0.0757758 0.1 -0.7125 1.00586 0.0151294 -0.00645399
0.714971 0.1 -0.075 0.956927 0.0189626 -0.00830712
0.714971 0.1 0.075 0.956934 0.0189634 0.00848416
0.67013 0.1 -0.2625 0.969068 0.0172859 -0.025742
0.67013 0.1 0.2625 0.969091 0.0172867 0.025902
0.411108 0.1 -0.6 1.00573 0.0131618 -0.0275031
0.411108 0.1 0.6 1.00574 0.0131598 0.0275821
0.350249 0.1 -0.6375 1.0098 0.0129327 -0.0239409
0.350249 0.1 0.6375 1.00982 0.0129298 0.0240055
0.623803 0.1 -0.375 0.979431 0.0159897 -0.0320419
0.623803 0.1 0.375 0.979459 0.0159893 0.0321836
0.714971 0.1 0.15 0.958065 0.0188448 0.0167434
0.714971 0.1 -0.15 0.95805 0.0188438 -0.0165672
0.467897 0.1 -0.5625 1.00145 0.0134258 -0.0305237
0.467897 0.1 0.5625 1.00147 0.0134246 0.0306168
0 0.1 -0.73201 1 0 0
0 0.1 0.73201 1 0 0
0.0363518 0.1 -0.73201 1.00279 0.00719079 -0.00309606
0.0363518 0.1 0.73201 1.00279 0.00719041 0.0031038
0.287374 0.1 0.675 1.01207 0.0134864 0.020302
0.287374 0.1 -0.675 1.01206 0.0134881 -0.0202498
0.522864 0.1 -0.525 0.995555 0.0140383 -0.033294
0.522864 0.1 0.525 0.99558 0.0140364 0.0334016
0.219992 0.1 0.7125 1.0142 0.014123 0.0160918
0.219992 0.1 -0.7125 1.01419 0.014124 -0.0160516
0.714971 0.1 0.225 0.959919 0.0186335 0.0247212
0.714971 0.1 -0.225 0.959897 0.0186327 -0.024547
0 0.1 0.75 1 0 0
0 0.1 -0.75 1 0 0
0.67013 0.1 -0.3375 0.971473 0.0169965 -0.0323587
0.67013 0.1 0.3375 0.971501 0.0169964 0.0325148
0.574156 0.1 0.4875 0.989472 0.0146769 0.0356046
0.574156 0.1 -0.4875 0.989444 0.0146793 -0.0354823
0.756814 0.1 -0.0375 0.948155 0.0202673 -0.0045138
0.756814 0.1 0.0375 0.948159 0.0202679 0.00470383
0.150379 0.1 0.746002 1.01015 0.0145862 0.0115764
0.150379 0.1 -0.75 1.01024 0.0145748 -0.0116714
0.756814 0.1 -0.1125 0.949004 0.0201768 -0.013653
0.756814 0.1 0.1125 0.949016 0.0201778 0.0138429
0 0.1 0.76799 1 0 0
0 0.1 -0.76799 1 0 0
0.0363518 0.1 0.76799 1.0028 0.00716897 0.00327634
0.0363518 0.1 -0.76799 1.0028 0.00716939 -0.00326923
0.623803 0.1 -0.45 0.981979 0.0156435 -0.037286
0.623803 0.1 0.45 0.98201 0.0156421 0.0374229
0.714971 0.1 0.3 0.962419 0.0183285 0.0322664
0.714971 0.1 -0.3 0.96239 0.0183282 -0.0320955
0.756814 0.1 -0.1875 0.950702 0.0199799 -0.0225618
0.756814 0.1 0.1875 0.950722 0.0199807 0.0227501
0.67013 0.1 -0.4125 0.974287 0.0166329 -0.0384529
0.67013 0.1 0.4125 0.97432 0.016632 0.0386044
0.411108 0.1 -0.675 1.00693 0.0129199 -0.0296214
0.411108 0.1 0.675 1.00694 0.0129176 0.0296965
0.467897 0.1 -0.6375 1.00298 0.0131492 -0.0331742
0.467897 0.1 0.6375 1.003 0.0131478 0.0332627
0.0757758 0.1 -0.7875 1.00589 0.0150858 -0.00681487
0.0757758 0.1 0.7875 1.00589 0.015085 0.00682969
0.350249 0.1 0.7125 1.01066 0.0127271 0.025641
0.350249 0.1 -0.7125 1.01065 0.0127294 -0.0255796
0.522864 0.1 -0.6 0.997507 0.0137184 -0.0365451
0.522864 0.1 0.6 0.997534 0.0137162 0.0366473
0.797314 0.1 -2.86229e-17 0.938863 0.0219573 0.000101529
0.287374 0.1 0.746002 1.0127 0.0133499 0.0213787
0.797314 0.1 -0.075 0.939346 0.0219008 -0.00992308
0.797314 0.1 0.075 0.939354 0.0219014 0.0101261
0.756814 0.1 0.2625 0.953218 0.0196763 0.0312492
0.756814 0.1 -0.2625 0.95319 0.0196758 -0.0310638
0.287374 0.1 -0.75 1.01269 0.0133316 -0.0214737
0.574156 0.1 -0.5625 0.991776 0.0143219 -0.0393908
0.574156 0.1 0.5625 0.991806 0.0143191 0.0395075
0 0.1 0.80701 1 0 0
0 0.1 -0.80701 1 0 0
0.714971 0.1 -0.375 0.965423 0.0179352 -0.0390817
0.714971 0.1 0.375 0.965458 0.0179347 0.039248
0.0363518 0.1 -0.80701 1.0028 0.00716939 -0.00326923
0.0363518 0.1 0.80701 1.0028 0.00716897 0.00327634
0.797314 0.1 -0.15 0.940797 0.0217244 -0.0197726
0.797314 0.1 0.15 0.940814 0.0217248 0.0199747
0.623803 0.1 -0.525 0.984734 0.0152432 -0.0419307
0.623803 0.1 0.525 0.984769 0.0152411 0.042062
0.219992 0.1 0.7875 1.01461 0.0140155 0.0169457
0.219992 0.1 -0.7875 1.01461 0.0140179 -0.0169091
0.149792 0.1 0.80701 1.0104 0.0145178 0.0121198
0 0.1 0.825 1 0 0
0 0.1 -0.825 1 0 0
0.797314 0.1 -0.225 0.943178 0.0214209 -0.0292619
0.797314 0.1 0.225 0.943204 0.021421 0.0294615
0.756814 0.1 -0.3375 0.956351 0.0192657 -0.0390172
0.756814 0.1 0.3375 0.956387 0.0192654 0.0391983
0.67013 0.1 -0.4875 0.977407 0.0161978 -0.043893
0.67013 0.1 0.4875 0.977443 0.0161963 0.0440385
0.835107 0.1 -0.0375 0.929847 0.0235889 -0.00533975
0.835107 0.1 0.0375 0.92985 0.0235898 0.00555544
0.150379 0.1 -0.825 1.01046 0.0145004 -0.0122223
0.835107 0.1 -0.1125 0.930932 0.0234559 -0.0161355
0.835107 0.1 0.1125 0.930946 0.0234559 0.016351
0 0.1 0.84299 1 0 0
0 0.1 -0.84299 1 0 0
0.0363518 0.1 0.84299 1.00281 0.00715102 0.00341251
0.0363518 0.1 -0.84299 1.00281 0.00715126 -0.00340583
0.714971 0.1 -0.45 0.968888 0.0174616 -0.0453968
0.714971 0.1 0.45 0.968928 0.0174605 0.0455574
0.411108 0.1 0.746002 1.00815 0.0126776 0.0312774
0.797314 0.1 -0.3 0.946396 0.0209931 -0.038216
0.797314 0.1 0.3 0.94643 0.0209924 0.0384118
0.467897 0.1 -0.7125 1.00455 0.0128585 -0.0353926
0.467897 0.1 0.7125 1.00457 0.012856 0.0354775
0.522864 0.1 0.675 0.999541 0.0133763 0.0393906
0.522864 0.1 -0.675 0.999512 0.013379 -0.0392937
0.411108 0.1 -0.75 1.00814 0.0126695 -0.0313749
0.835107 0.1 -0.1875 0.933093 0.0231726 -0.0266405
0.835107 0.1 0.1875 0.933116 0.0231727 0.0268541
0.286844 0.1 0.80701 1.01319 0.0132105 0.0222881
0.574156 0.1 0.6375 0.994226 0.0139346 0.0428402
0.574156 0.1 -0.6375 0.994193 0.0139382 -0.0427307
0.350249 0.1 -0.7875 1.01149 0.0125226 -0.0269228
0.350249 0.1 0.7875 1.01151 0.0125194 0.0269795
0.756814 0.1 0.4125 0.96012 0.0187607 0.0464317
0.756814 0.1 -0.4125 0.960078 0.0187613 -0.0462562
0.623803 0.1 -0.6 0.987631 0.0148055 -0.045938
0.623803 0.1 0.6 0.987668 0.0148028 0.0460629
0.0757758 0.1 0.8625 1.00591 0.0150485 0.00711338
0.0757758 0.1 -0.8625 1.00591 0.015049 -0.00709944
0.871687 0.1 -1.73472e-17 0.92022 0.0255753 0.000113567
0.287374 0.1 -0.825 1.01333 0.0131731 -0.0224611
0.871687 0.1 -0.075 0.920823 0.0254936 -0.0116063
0.871687 0.1 0.075 0.920832 0.0254951 0.0118337
0.67013 0.1 -0.5625 0.980737 0.0157126 -0.0486352
0.67013 0.1 0.5625 0.980778 0.015711 0.0487753
0.835107 0.1 0.2625 0.936288 0.0227453 0.0368452
0.835107 0.1 -0.2625 0.936255 0.0227465 -0.0366347
0.797314 0.1 -0.375 0.950326 0.0204497 -0.0464612
0.797314 0.1 0.375 0.950368 0.0204485 0.0466518
0 0.1 0.88201 1 0 0
0 0.1 -0.88201 1 0 0
0.0363518 0.1 0.88201 1.00281 0.00715102 0.00341251
0.0363518 0.1 -0.88201 1.00281 0.00715126 -0.00340583
0.871687 0.1 0.15 0.922648 0.0252452 0.0233359
0.871687 0.1 -0.15 0.922629 0.0252442 -0.0231089
0.714971 0.1 -0.525 0.972665 0.0169212 -0.0509566
0.714971 0.1 0.525 0.972709 0.0169195 0.0511113
0.219992 0.1 0.8625 1.01502 0.013908 0.0176228
0.219992 0.1 -0.8625 1.01501 0.0139099 -0.017589
0 0.1 0.9 1 0 0
0 0.1 -0.9 1 0 0
0.756814 0.1 -0.4875 0.964242 0.0181752 -0.0527072
0.756814 0.1 0.4875 0.96429 0.0181736 0.0528762
0.871687 0.1 -0.225 0.925589 0.0248232 -0.0341682
0.871687 0.1 0.225 0.925618 0.0248234 0.0343924
0.835107 0.1 -0.3375 0.940291 0.0221799 -0.045958
0.835107 0.1 0.3375 0.940331 0.0221784 0.0461633
0.410629 0.1 0.80701 1.00909 0.0124737 0.0325323
0.905821 0.1 -0.0375 0.91085 0.0274984 -0.00619696
0.905821 0.1 0.0375 0.910854 0.0275007 0.00643522
0.522864 0.1 0.746002 1.00154 0.0130351 0.0414401
0.150379 0.1 0.9 1.01067 0.0144271 0.0126694
0.905821 0.1 0.1125 0.912193 0.0273117 0.0189457
0.905821 0.1 -0.1125 0.912179 0.027309 -0.018706
0.522864 0.1 -0.75 1.00154 0.0130277 -0.041539
0.574156 0.1 -0.7125 0.996658 0.013536 -0.0454918
0.574156 0.1 0.7125 0.996693 0.0135328 0.045596
0.797314 0.1 -0.45 0.954833 0.019808 -0.05387
0.797314 0.1 0.45 0.954882 0.0198063 0.0540539
0.467897 0.1 0.7875 1.00615 0.0125572 0.0372616
0.467897 0.1 -0.7875 1.00612 0.0125614 -0.0371848
0.150379 0.1 -0.903998 1.01075 0.0144233 -0.0127304
0 0.1 0.91799 1 0 0
0 0.1 -0.91799 1 0 0
0.0363518 0.1 0.91799 1.00282 0.00713518 0.00351295
0.0363518 0.1 -0.91799 1.00282 0.00713565 -0.00350718
0.623803 0.1 -0.675 0.990611 0.0143425 -0.049289
0.623803 0.1 0.675 0.990652 0.0143392 0.0494073
0.411108 0.1 -0.825 1.00935 0.0124158 -0.0327682
0.871687 0.1 -0.3 0.929596 0.0242393 -0.0445748
0.871687 0.1 0.3 0.929635 0.0242388 0.0447945
0.67013 0.1 0.6375 0.98425 0.0151905 0.0527789
0.67013 0.1 -0.6375 0.984205 0.0151935 -0.0526466
0.905821 0.1 -0.1875 0.914818 0.0269193 -0.0308608
0.905821 0.1 0.1875 0.914843 0.0269207 0.031099
0.350249 0.1 0.8625 1.01235 0.0123111 0.028027
0.350249 0.1 -0.8625 1.01233 0.0123139 -0.0279729
0.835107 0.1 -0.4125 0.945059 0.0214929 -0.054384
0.835107 0.1 0.4125 0.945109 0.0214905 0.0545838
0.714971 0.1 -0.6 0.976651 0.0163335 -0.0557114
0.714971 0.1 0.6 0.976701 0.0163306 0.055859
0.93886 0.1 -1.25767e-17 0.900964 0.0301232 0.000124852
0.0757758 0.1 0.9375 1.00593 0.0150162 0.00732257
0.0757758 0.1 -0.9375 1.00593 0.0150172 -0.00731053
0.93886 0.1 -0.075 0.901695 0.0300093 -0.0133837
0.93886 0.1 0.075 0.901705 0.0300121 0.013634
0.756814 0.1 -0.5625 0.9687 0.0175255 -0.058282
0.756814 0.1 0.5625 0.968752 0.0175234 0.0584455
0.905821 0.1 -0.2625 0.91868 0.0263385 -0.0424001
0.905821 0.1 0.2625 0.918715 0.0263388 0.0426338
0.287374 0.1 0.9 1.01395 0.0130116 0.0232577
0.287374 0.1 -0.903998 1.01386 0.0130129 -0.0232709
0.871687 0.1 -0.375 0.934505 0.0235061 -0.0541174
0.871687 0.1 0.375 0.934553 0.0235051 0.0543311
0.93886 0.1 -0.15 0.903885 0.0296663 -0.0266288
0.93886 0.1 0.15 0.903906 0.0296693 0.0268789
0.797314 0.1 -0.525 0.959765 0.0190844 -0.0603551
0.797314 0.1 0.525 0.95982 0.0190825 0.0605323
0 0.1 0.95701 1 0 0
0 0.1 -0.95701 1 0 0
0.0363518 0.1 0.95701 1.00282 0.00713518 0.00351295
0.0363518 0.1 -0.95701 1.00282 0.00713565 -0.00350718
0.522432 0.1 0.80701 1.00312 0.0127531 0.0430028
0.219992 0.1 0.9375 1.01541 0.0138003 0.0181252
0.219992 0.1 -0.9375 1.0154 0.0138036 -0.0180958
0.93886 0.1 -0.225 0.907472 0.0290938 -0.039341
0.93886 0.1 0.225 0.907504 0.0290962 0.0395881
0.905821 0.1 -0.3375 0.923629 0.025581 -0.0531294
0.905821 0.1 0.3375 0.923674 0.0255816 0.0533582
0.835107 0.1 0.4875 0.950451 0.0207077 0.0620601
0.835107 0.1 -0.4875 0.950395 0.0207098 -0.0618693
0.96969 0.1 -0.0375 0.891309 0.0326735 -0.00711812
0.96969 0.1 0.0375 0.891315 0.0326759 0.00737898
0.61613 0.1 0.75 0.993665 0.0138603 0.0520941
0.574156 0.1 0.7875 0.999164 0.0131206 0.047778
0.574156 0.1 -0.7875 0.999125 0.0131253 -0.047683
0 0.1 0.975 1 0 0
0 0.1 -0.975 1 0 0
0.623803 0.1 -0.75 0.993621 0.013865 -0.0519839
0.96969 0.1 -0.1125 0.892911 0.0324131 -0.0214689
0.96969 0.1 0.1125 0.892929 0.0324169 0.0217307
0.522864 0.1 -0.825 1.00355 0.0126714 -0.0432893
0.67013 0.1 -0.7125 0.987739 0.0146518 -0.0559164
0.67013 0.1 0.7125 0.987789 0.0146481 0.0560426
0.871687 0.1 -0.45 0.940142 0.0226479 -0.06265
0.871687 0.1 0.45 0.940198 0.0226468 0.0628561
0.467897 0.1 -0.8625 1.00768 0.012263 -0.0385563
0.467897 0.1 0.8625 1.0077 0.0122599 0.0386281
0.714971 0.1 -0.675 0.980759 0.0157155 -0.0596383
0.714971 0.1 0.675 0.980813 0.0157113 0.059778
0.93886 0.1 -0.3 0.912336 0.0283074 -0.0512687
0.93886 0.1 0.3 0.912378 0.02831 0.0515113
0.150379 0.1 0.975 1.01087 0.0143577 0.012968
0.150379 0.1 -0.975 1.01086 0.0143589 -0.0129483
0.96969 0.1 -0.1875 0.896092 0.0318833 -0.0353907
0.96969 0.1 0.1875 0.89612 0.0318872 0.0356509
0.411108 0.1 0.9 1.01056 0.0121588 0.0338718
0.756814 0.1 -0.6375 0.97335 0.0168348 -0.0629478
0.756814 0.1 0.6375 0.973409 0.0168298 0.0631016
0.990306 0.1 0 0.885731 0.0341419 0.000133677
0 0.1 0.99299 1 0 0
0 0.1 -0.99299 1 0 0
0.411108 0.1 -0.903998 1.01038 0.012187 -0.0338458
0.990306 0.1 -0.075 0.886567 0.0340017 -0.0147726
0.990306 0.1 0.075 0.886579 0.034005 0.0150403
0.0363518 0.1 0.99299 1.00282 0.00712167 0.00357919
0.0363518 0.1 -0.99299 1.00282 0.00712156 -0.00357414
0.905821 0.1 -0.4125 0.929483 0.0246653 -0.062785
0.905821 0.1 0.4125 0.929539 0.0246649 0.0630052
0.797314 0.1 -0.6 0.964981 0.0183009 -0.0658459
0.797314 0.1 0.6 0.965043 0.0182976 0.0660153
0.350249 0.1 0.9375 1.01316 0.0121033 0.0287902
0.350249 0.1 -0.9375 1.01314 0.01211 -0.0287434
0.990306 0.1 -0.15 0.889072 0.0335806 -0.0293807
0.990306 0.1 0.15 0.889095 0.0335849 0.029648
0.96969 0.1 -0.2625 0.900742 0.0310979 -0.0485818
0.96969 0.1 0.2625 0.900781 0.031102 0.0488376
0.835107 0.1 -0.5625 0.956127 0.0198409 -0.0682701
0.835107 0.1 0.5625 0.95619 0.0198394 0.0684549
0.93886 0.1 -0.375 0.918303 0.027327 -0.0621777
0.93886 0.1 0.375 0.918357 0.0273295 0.0624142
0.0757758 0.1 1.0125 1.00594 0.0149887 0.00746045
0.0757758 0.1 -1.0125 1.00594 0.0149885 -0.00744993
0.990306 0.1 -0.225 0.893171 0.0328803 -0.0433888
0.990306 0.1 0.225 0.893207 0.0328851 0.0436532
0.287374 0.1 -0.975 1.01453 0.0128575 -0.0237475
0.287374 0.1 0.975 1.01454 0.0128545 0.0237833
0.871687 0.1 -0.525 0.946315 0.021689 -0.0700662
0.871687 0.1 0.525 0.94638 0.0216883 0.0702651
1.02149 0.1 -0.0369628 0.874394 0.0373574 -0.00779501
1.02149 0.1 0.0369628 0.874396 0.0373604 0.00799683
0.96969 0.1 0.3375 0.906767 0.0300874 0.0610462
0.96969 0.1 -0.3375 0.906715 0.0300819 -0.0607949
1.02149 0.1 -0.110888 0.876188 0.0370468 -0.0234287
1.02149 0.1 0.110888 0.876194 0.0370537 0.0236323
0.905821 0.1 -0.4875 0.93604 0.0236255 -0.0713173
0.905821 0.1 0.4875 0.936105 0.0236262 0.0715299
0.623803 0.1 0.819003 0.995769 0.0135055 0.0545325
0 0.1 1.03201 1 0 0
0 0.1 -1.03201 1 0 0
0.0363518 0.1 1.03201 1.00282 0.00712167 0.00357919
0.0363518 0.1 -1.03201 1.00282 0.00712156 -0.00357414
0.67013 0.1 -0.7875 0.99127 0.0141017 -0.0584582
0.67013 0.1 0.7875 0.991324 0.0140943 0.0585729
0.623803 0.1 -0.825 0.9966 0.0133824 -0.0540369
0.990306 0.1 0.3 0.898782 0.0319277 0.0567726
0.990306 0.1 -0.3 0.898734 0.0319219 -0.0565125
0.219992 0.1 1.0125 1.01577 0.0136936 0.0184587
0.219992 0.1 -1.0125 1.01576 0.0136944 -0.0184327
0.574156 0.1 0.8625 1.00159 0.0127083 0.0494064
0.574156 0.1 -0.8625 1.00155 0.0127111 -0.0493165
0.714971 0.1 -0.75 0.984901 0.0150822 -0.0627397
0.714971 0.1 0.75 0.984959 0.0150758 0.0628697
1.02149 0.1 -0.184814 0.879743 0.0364207 -0.038598
1.02149 0.1 0.184814 0.879753 0.0364306 0.0388032
0.756814 0.1 -0.7125 0.978089 0.0161205 -0.0666897
0.756814 0.1 0.7125 0.978152 0.0161152 0.0668352
0.522864 0.1 0.9 1.00555 0.012312 0.0446406
0.93886 0.1 -0.45 0.92516 0.0261882 -0.0718895
0.93886 0.1 0.45 0.925225 0.0261904 0.0721192
1.04168 0.1 0 0.867377 0.0395164 0.000144285
1.04168 0.1 -0.0729162 0.868286 0.0393519 -0.0160372
1.04168 0.1 0.0729162 0.868299 0.0393555 0.0163258
0.522864 0.1 -0.903998 1.00527 0.0123558 -0.0445819
0.797314 0.1 -0.675 0.970359 0.0174828 -0.0703211
0.797314 0.1 0.675 0.970427 0.017478 0.0704809
0.467897 0.1 0.9375 1.0092 0.0119626 0.0395942
0.467897 0.1 -0.9375 1.00918 0.0119691 -0.0395322
0 0.1 1.05 1 0 0
0 0.1 -1.05 1 0 0
0.835107 0.1 -0.6375 0.962114 0.0189234 -0.0735698
0.835107 0.1 0.6375 0.962184 0.0189191 0.0737444
1.04168 0.1 -0.145832 0.871012 0.0388581 -0.031904
1.04168 0.1 0.145832 0.871038 0.0388639 0.0321921
1.02149 0.1 -0.25874 0.884943 0.0354946 -0.0529869
1.02149 0.1 0.25874 0.884959 0.0355069 0.053193
0.96969 0.1 -0.4125 0.91378 0.0288569 -0.0717981
0.96969 0.1 0.4125 0.913844 0.0288613 0.0720431
0.411108 0.1 0.975 1.01169 0.0119085 0.0345767
0.411108 0.1 -0.975 1.01167 0.0119122 -0.0345255
0.871687 0.1 -0.6 0.952848 0.0206583 -0.0762809
0.871687 0.1 0.6 0.952921 0.020656 0.0764714
1.0579 0.1 -0.0360525 0.861878 0.0412641 -0.00828465
1.0579 0.1 0.0360525 0.86187 0.0412688 0.0083192
0.990306 0.1 -0.375 0.905564 0.0307302 -0.0685054
0.990306 0.1 0.375 0.905624 0.0307362 0.0687601
0.150379 0.1 1.05 1.01105 0.014291 0.0131495
0.150379 0.1 -1.05 1.01105 0.0142914 -0.0131318
1.0579 0.1 -0.108157 0.863737 0.0409208 -0.024725
1.0579 0.1 0.108157 0.863714 0.0409339 0.0247645
1.04168 0.1 -0.218749 0.875481 0.0380382 -0.0471405
1.04168 0.1 0.218749 0.87552 0.0380455 0.0474263
0.905821 0.1 -0.5625 0.943077 0.0224893 -0.0785379
0.905821 0.1 0.5625 0.943151 0.0224895 0.0787447
0 0.1 1.06799 1 0 0
0 0.1 -1.06799 1 0 0
0.0363518 0.1 -1.06799 1.00282 0.00711015 -0.00360827
0.0363518 0.1 1.06799 1.00282 0.00711012 0.0036129
0.350249 0.1 1.0125 1.01393 0.0119015 0.0292844
0.350249 0.1 -1.0125 1.01392 0.0119029 -0.0292438
1.0579 0.1 -0.180262 0.867417 0.0402315 -0.040689
1.0579 0.1 0.180262 0.867378 0.0402521 0.0407374
1.02149 0.1 0.332665 0.89165 0.0343126 0.0665267
1.02149 0.1 -0.332665 0.891628 0.0342973 -0.0663193
0.93886 0.1 -0.525 0.932681 0.0249286 -0.0802872
0.93886 0.1 0.525 0.932756 0.0249302 0.0805094
1.08012 0.1 4.48137e-18 0.853806 0.0440172 7.51436e-05
1.04168 0.1 -0.291665 0.881558 0.0369159 -0.0614442
1.04168 0.1 0.291665 0.881611 0.0369246 0.0617259
1.08012 0.1 -0.0709942 0.854752 0.0438356 -0.0169655
1.08012 0.1 0.0709942 0.854749 0.0438427 0.0171171
0.96969 0.1 -0.4875 0.921703 0.0274902 -0.0814242
0.96969 0.1 0.4875 0.921777 0.0274943 0.0816648
1.0579 0.1 -0.252367 0.872805 0.0392117 -0.0558539
1.0579 0.1 0.252367 0.872754 0.0392385 0.0559142
0.990306 0.1 -0.45 0.91342 0.0293499 -0.0791531
0.990306 0.1 0.45 0.913492 0.0293554 0.0794018
0.287374 0.1 1.05 1.01509 0.0126993 0.0240986
0.287374 0.1 -1.05 1.01508 0.0127007 -0.0240663
0.714971 0.1 0.821002 0.9887 0.0144948 0.0651373
1.08012 0.1 0.141988 0.857566 0.0433072 0.0338406
1.08012 0.1 -0.141988 0.857572 0.0432936 -0.0336854
0.0757758 0.1 -1.0875 1.00594 0.0149652 -0.00752092
0.0757758 0.1 1.0875 1.00594 0.0149652 0.00753057
0.714971 0.1 -0.825 0.988993 0.0144463 -0.0650384
0.756814 0.1 -0.7875 0.982811 0.0153992 -0.0695284
0.756814 0.1 0.7875 0.982878 0.0153904 0.0696615
0.67013 0.1 -0.8625 0.994729 0.0135516 -0.0602937
0.67013 0.1 0.8625 0.994786 0.0135456 0.0604001
0.797314 0.1 -0.75 0.975773 0.0166508 -0.0737852
0.797314 0.1 0.75 0.975846 0.016644 0.073934
0.623803 0.1 0.9 0.999545 0.0128971 0.055571
0.835107 0.1 -0.7125 0.968208 0.017981 -0.0777465
0.835107 0.1 0.7125 0.968285 0.0179764 0.0779112
0.623803 0.1 -0.903998 0.999154 0.0129588 -0.0554872
0.574156 0.1 0.9375 1.00393 0.0122972 0.0505084
0.574156 0.1 -0.9375 1.00388 0.0123052 -0.0504291
1.02149 0.1 -0.406591 0.899564 0.0328555 -0.0783601
1.02149 0.1 0.406591 0.899593 0.0328713 0.0785688
1.08012 0.1 -0.212982 0.862199 0.0423941 -0.0497635
1.08012 0.1 0.212982 0.862191 0.0424131 0.0499238
1.10076 0.1 -0.034981 0.845934 0.0467532 -0.00864755
1.10076 0.1 0.034981 0.845941 0.0467554 0.00896009
0.871687 0.1 -0.675 0.959581 0.019591 -0.0812776
0.871687 0.1 0.675 0.959662 0.019587 0.0814572
1.04168 0.1 -0.364581 0.889051 0.0355183 -0.0745556
1.04168 0.1 0.364581 0.889119 0.0355277 0.0748323
1.10076 0.1 0.104943 0.84787 0.046385 0.026404
1.10076 0.1 -0.104943 0.84785 0.0463789 -0.0260918
0.522864 0.1 0.975 1.00743 0.0119615 0.0454592
0.522864 0.1 -0.975 1.00739 0.0119662 -0.0453929
1.0579 0.1 0.324472 0.879687 0.037925 0.0700091
1.0579 0.1 -0.324472 0.879746 0.037892 -0.069934
0 0.1 1.10701 1 0 0
0 0.1 -1.10701 1 0 0
0.0363518 0.1 -1.10701 1.00282 0.00711015 -0.00360827
0.0363518 0.1 1.10701 1.00282 0.00711012 0.0036129
0.905821 0.1 -0.6375 0.950416 0.0212971 -0.0844558
0.905821 0.1 0.6375 0.9505 0.0212934 0.0846507
0.219992 0.1 -1.0875 1.01609 0.0135894 -0.0186124
0.219992 0.1 1.0875 1.0161 0.0135885 0.0186364