# p  POINT_DATA 90431
# x  y  z  p
4 0 0 -0.400462
4 0.00256965 0 -0.399736
4 0.00518642 0 -0.399421
4 0.00785119 0 -0.400456
4 0.00128135 -0.00996393 -0.392929
4 0.00128135 0.00996393 -0.406941
4 0.0105648 0 -0.401829
4 0.00386754 -0.00996393 -0.391673
4 0.00386754 0.00996393 -0.405276
4 0.00650117 -0.00996393 -0.392107
4 0.00650117 0.00996393 -0.406488
4 0.0133283 0 -0.403437
4 0.00918311 -0.00996393 -0.392855
4 0.00918311 0.00996393 -0.40812
4 0.0119142 -0.00996393 -0.393898
4 0.0119142 0.00996393 -0.41006
4 0.0161424 0 -0.405085
4 0.0146954 -0.00996393 -0.395208
4 0.0146954 0.00996393 -0.412071
4 0.0190081 0 -0.406561
4 0 -0.02 -0.389071
4 0 0.02 -0.409507
4 0.0175277 -0.00996393 -0.396643
4 0.0175277 0.00996393 -0.413797
4 0.00256965 -0.02 -0.388698
4 0.00256965 0.02 -0.408989
4 0.00518642 -0.02 -0.388379
4 0.00518642 0.02 -0.409082
4 0.00785119 -0.02 -0.388603
4 0.00785119 0.02 -0.410557
4 0.0219263 0 -0.407769
4 0.0105648 -0.02 -0.389032
4 0.0105648 0.02 -0.412393
4 0.0204118 -0.00996393 -0.398101
4 0.0204118 0.00996393 -0.41502
4 0.0133283 -0.02 -0.389664
4 0.0133283 0.02 -0.414353
4 0.0248981 0 -0.408692
4 0.0233489 -0.00996393 -0.399508
4 0.0233489 0.00996393 -0.415767
4 0.0161424 -0.02 -0.390484
4 0.0161424 0.02 -0.416125
4 0.0190081 -0.02 -0.391478
4 0.0190081 0.02 -0.417443
4 0.0279244 0 -0.409293
4 0.0263398 -0.00996393 -0.400745
4 0.0263398 0.00996393 -0.416124
4 0.0219263 -0.02 -0.392636
4 0.0219263 0.02 -0.418193
4 0.00128135 -0.0298918 -0.384634
4 0.00128135 0.0298918 -0.411099
4 0.00386754 -0.0298918 -0.384405
4 0.00386754 0.0298918 -0.410609
4 0.00650117 -0.0298918 -0.384192
4 0.00650117 0.0298918 -0.411859
4 0.0310063 0 -0.409537
4 0.0293856 -0.00996393 -0.401722
4 0.0293856 0.00996393 -0.416043
4 0.00918311 -0.0298918 -0.384067
4 0.00918311 0.0298918 -0.413588
4 0.0248981 -0.02 -0.39389
4 0.0248981 0.02 -0.418392
4 0.0119142 -0.0298918 -0.384045
4 0.0119142 0.0298918 -0.415546
4 0.0146954 -0.0298918 -0.384157
4 0.0146954 0.0298918 -0.417407
4 0.0324873 -0.00996393 -0.402441
4 0.0324873 0.00996393 -0.415518
4 0.0341446 0 -0.409463
4 0.0279244 -0.02 -0.395143
4 0.0279244 0.02 -0.418062
4 0.0175277 -0.0298918 -0.384488
4 0.0175277 0.0298918 -0.418861
4 0.0204118 -0.0298918 -0.385159
4 0.0204118 0.0298918 -0.419724
4 0.0310063 -0.02 -0.396335
4 0.0310063 0.02 -0.417209
4 0.0356458 -0.00996393 -0.403017
4 0.0356458 0.00996393 -0.414577
4 0.0373405 0 -0.409087
4 0.0233489 -0.0298918 -0.386188
4 0.0233489 0.0298918 -0.419933
4 0.0341446 -0.02 -0.397459
4 0.0341446 0.02 -0.415871
4 0.0263398 -0.0298918 -0.387482
4 0.0263398 0.0298918 -0.4195
4 0 0.04 -0.406705
4 0 -0.04 -0.385098
4 0.00256965 0.04 -0.40671
4 0.00256965 -0.04 -0.385079
4 0.0388623 -0.00996393 -0.403363
4 0.0388623 0.00996393 -0.413217
4 0.00518642 0.04 -0.407245
4 0.00518642 -0.04 -0.384967
4 0.040595 0 -0.408402
4 0.00785119 -0.04 -0.384808
4 0.00785119 0.04 -0.408561
4 0.0105648 -0.04 -0.384685
4 0.0105648 0.04 -0.410244
4 0.0293856 -0.0298918 -0.388962
4 0.0293856 0.0298918 -0.418443
4 0.0133283 -0.04 -0.384619
4 0.0133283 0.04 -0.412026
4 0.0373405 -0.02 -0.398496
4 0.0373405 0.02 -0.414092
4 0.0161424 -0.04 -0.384675
4 0.0161424 0.04 -0.413631
4 0.0421378 -0.00996393 -0.403483
4 0.0421378 0.00996393 -0.411493
4 0.0439092 0 -0.407449
4 0.0324873 -0.0298918 -0.390559
4 0.0324873 0.0298918 -0.416815
4 0.0190081 0.04 -0.414844
4 0.0190081 -0.04 -0.384942
4 0.040595 -0.02 -0.399412
4 0.040595 0.02 -0.411931
4 0.0219263 0.04 -0.415533
4 0.0219263 -0.04 -0.385503
4 0.0356458 -0.0298918 -0.392194
4 0.0356458 0.0298918 -0.414688
4 0.0454733 0.00996393 -0.409492
4 0.0454733 -0.00996393 -0.40341
4 0.0248981 0.04 -0.415626
4 0.0248981 -0.04 -0.386391
4 0.0472842 0 -0.40629
4 0.0439092 -0.02 -0.400183
4 0.0439092 0.02 -0.409483
4 0.0279244 0.04 -0.415081
4 0.0279244 -0.04 -0.3876
4 0.0388623 -0.0298918 -0.393833
4 0.0388623 0.0298918 -0.412133
4 0.00128135 0.0498197 -0.401915
4 0.00128135 -0.0498197 -0.385331
4 0.0488701 -0.00996393 -0.403138
4 0.0488701 0.00996393 -0.407344
4 0.00386754 0.0498197 -0.402348
4 0.00386754 -0.0498197 -0.385481
4 0.00650117 -0.0498197 -0.38534
4 0.00650117 0.0498197 -0.403231
4 0.0310063 0.04 -0.413879
4 0.0310063 -0.04 -0.389107
4 0.00918311 -0.0498197 -0.385189
4 0.00918311 0.0498197 -0.404603
4 0.0507211 0 -0.404976
4 0.0119142 0.0498197 -0.406236
4 0.0119142 -0.0498197 -0.384992
4 0.0472842 -0.02 -0.4008
4 0.0472842 0.02 -0.406876
4 0.0421378 -0.0298918 -0.395452
4 0.0421378 0.0298918 -0.409257
4 0.0146954 -0.0498197 -0.384833
4 0.0146954 0.0498197 -0.407877
4 0.0341446 0.04 -0.412038
4 0.0341446 -0.04 -0.390857
4 0.0175277 -0.0498197 -0.38476
4 0.0175277 0.0498197 -0.409321
4 0.0523291 -0.00996393 -0.402665
4 0.0523291 0.00996393 -0.405126
4 0.0204118 0.0498197 -0.410405
4 0.0204118 -0.0498197 -0.384877
4 0.054221 0 -0.403542
4 0.0454733 -0.0298918 -0.396945
4 0.0454733 0.0298918 -0.40619
4 0.0507211 -0.02 -0.401283
4 0.0507211 0.02 -0.404219
4 0.0373405 0.04 -0.409612
4 0.0373405 -0.04 -0.392789
4 0.0233489 0.0498197 -0.411008
4 0.0233489 -0.0498197 -0.385275
4 0.0263398 0.0498197 -0.41102
4 0.0263398 -0.0498197 -0.386065
4 0.0558515 -0.00996393 -0.402029
4 0.0558515 0.00996393 -0.402849
4 0.040595 0.04 -0.4067
4 0.040595 -0.04 -0.394815
4 0.0488701 0.0298918 -0.403096
4 0.0488701 -0.0298918 -0.398356
4 0.0577851 0 -0.402026
4 0.054221 -0.02 -0.401596
4 0.054221 0.02 -0.401552
4 0.0293856 0.0498197 -0.41035
4 0.0293856 -0.0498197 -0.387301
4 0.0439092 0.04 -0.403463
4 0.0439092 -0.04 -0.396791
4 0.0324873 0.0498197 -0.408939
4 0.0324873 -0.0498197 -0.388984
4 0 0.06 -0.394648
4 0 -0.06 -0.38768
4 0.00256965 0.06 -0.394935
4 0.00256965 -0.06 -0.387791
4 0.00518642 0.06 -0.395571
4 0.00518642 -0.06 -0.387897
4 0.0523291 -0.0298918 -0.399707
4 0.0523291 0.0298918 -0.40004
4 0.0594386 -0.00996393 -0.401284
4 0.0594386 0.00996393 -0.400556
4 0.00785119 0.06 -0.396501
4 0.00785119 -0.06 -0.387894
4 0.0105648 0.06 -0.39779
4 0.0105648 -0.06 -0.387884
4 0.0577851 -0.02 -0.401698
4 0.0577851 0.02 -0.398897
4 0.0356458 0.0498197 -0.406792
4 0.0356458 -0.0498197 -0.39105
4 0.0614146 0 -0.400461
4 0.0133283 0.06 -0.399241
4 0.0133283 -0.06 -0.387871
4 0.0472842 0.04 -0.40009
4 0.0472842 -0.04 -0.398636
4 0.0161424 0.06 -0.400677
4 0.0161424 -0.06 -0.387897
4 0.0190081 0.06 -0.40196
4 0.0190081 -0.06 -0.388015
4 0.0388623 0.0498197 -0.403972
4 0.0388623 -0.0498197 -0.393428
4 0.0558515 -0.0298918 -0.400787
4 0.0558515 0.0298918 -0.397033
4 0.0630915 -0.00996393 -0.400448
4 0.0630915 0.00996393 -0.398256
4 0.0219263 0.06 -0.402983
4 0.0219263 -0.06 -0.388321
4 0.0614146 -0.02 -0.401582
4 0.0614146 0.02 -0.396257
4 0.0507211 0.04 -0.396748
4 0.0507211 -0.04 -0.40034
4 0.0248981 0.06 -0.403624
4 0.0248981 -0.06 -0.388929
4 0.0651106 0 -0.39884
4 0.0421378 0.0498197 -0.40064
4 0.0421378 -0.0498197 -0.395893
4 0.0279244 0.06 -0.403763
4 0.0279244 -0.06 -0.389938
4 0.0594386 -0.0298918 -0.401553
4 0.0594386 0.0298918 -0.394084
4 0.054221 0.04 -0.393537
4 0.054221 -0.04 -0.401822
4 0.0454733 0.0498197 -0.39703
4 0.0454733 -0.0498197 -0.398226
4 0.0310063 0.06 -0.403309
4 0.0310063 -0.06 -0.391383
4 0.0668113 -0.00996393 -0.399503
4 0.0668113 0.00996393 -0.395916
4 0.0651106 -0.02 -0.401231
4 0.0651106 0.02 -0.393594
4 0.0688745 0 -0.39713
4 0.0341446 0.06 -0.402166
4 0.0341446 -0.06 -0.393231
4 0.00128135 0.0697475 -0.38734
4 0.00128135 -0.0697475 -0.389993
4 0.0488701 0.0498197 -0.393375
4 0.0488701 -0.0498197 -0.400381
4 0.0630915 -0.0298918 -0.401947
4 0.0630915 0.0298918 -0.391147
4 0.00386754 0.0697475 -0.388004
4 0.00386754 -0.0697475 -0.390288
4 0.00650117 0.0697475 -0.388525
4 0.00650117 -0.0697475 -0.390416
4 0.0577851 0.04 -0.390503
4 0.0577851 -0.04 -0.40297
4 0.00918311 0.0697475 -0.389449
4 0.00918311 -0.0697475 -0.390589
4 0.0373405 0.06 -0.400268
4 0.0373405 -0.06 -0.395401
4 0.0119142 0.0697475 -0.390639
4 0.0119142 -0.0697475 -0.390744
4 0.0146954 0.0697475 -0.39194
4 0.0146954 -0.0697475 -0.39092
4 0.0705994 -0.00996393 -0.398404
4 0.0705994 0.00996393 -0.3935
4 0.0688745 -0.02 -0.400606
4 0.0688745 0.02 -0.390884
4 0.0175277 0.0697475 -0.393259
4 0.0175277 -0.0697475 -0.391115
4 0.0523291 0.0498197 -0.389879
4 0.0523291 -0.0498197 -0.402284
4 0.040595 0.06 -0.397623
4 0.040595 -0.06 -0.397784
4 0.0204118 0.0697475 -0.394505
4 0.0204118 -0.0697475 -0.391377
4 0.0727073 0 -0.395285
4 0.0668113 -0.0298918 -0.401952
4 0.0668113 0.0298918 -0.388135
4 0.0614146 0.04 -0.387645
4 0.0614146 -0.04 -0.403711
4 0.0233489 0.0697475 -0.395635
4 0.0233489 -0.0697475 -0.391836
4 0.0439092 0.06 -0.394362
4 0.0439092 -0.06 -0.400264
4 0.0263398 0.0697475 -0.396429
4 0.0263398 -0.0697475 -0.392625
4 0.0558515 0.0498197 -0.386658
4 0.0558515 -0.0498197 -0.403877
4 0.074457 -0.00996393 -0.397044
4 0.074457 0.00996393 -0.391019
4 0.0727073 -0.02 -0.399628
4 0.0727073 0.02 -0.388172
4 0.0293856 0.0697475 -0.396828
4 0.0293856 -0.0697475 -0.393844
4 0.0472842 0.06 -0.390707
4 0.0472842 -0.06 -0.402766
4 0.0651106 0.04 -0.384916
4 0.0651106 -0.04 -0.404
4 0.0766105 0 -0.393265
4 0.0705994 -0.0298918 -0.401494
4 0.0705994 0.0298918 -0.385108
4 0.0324873 0.0697475 -0.396677
4 0.0324873 -0.0697475 -0.395474
4 0.0594386 0.0498197 -0.383756
4 0.0594386 -0.0498197 -0.405028
4 0.0356458 0.0697475 -0.395811
4 0.0356458 -0.0697475 -0.397469
4 0.0507211 0.06 -0.386929
4 0.0507211 -0.06 -0.405239
4 0.0783853 -0.00996393 -0.395309
4 0.0783853 0.00996393 -0.388525
4 0.0766105 -0.02 -0.39819
4 0.0766105 0.02 -0.385515
4 0.0688745 -0.04 -0.403786
4 0.0688745 0.04 -0.382271
4 0.0388623 0.0697475 -0.394059
4 0.0388623 -0.0697475 -0.399687
4 0 0.08 -0.381675
4 0 -0.08 -0.392204
4 0.00256965 0.08 -0.381994
4 0.00256965 -0.08 -0.392365
4 0.00518642 0.08 -0.382503
4 0.00518642 -0.08 -0.392635
4 0.074457 -0.0298918 -0.400489
4 0.074457 0.0298918 -0.382197
4 0.00785119 0.08 -0.383027
4 0.00785119 -0.08 -0.392894
4 0.0630915 0.0498197 -0.381163
4 0.0630915 -0.0498197 -0.405677
4 0.0805853 0 -0.391062
4 0.0105648 0.08 -0.383775
4 0.0105648 -0.08 -0.393199
4 0.054221 0.06 -0.383323
4 0.054221 -0.06 -0.407501
4 0.0133283 0.08 -0.384625
4 0.0133283 -0.08 -0.393504
4 0.0421378 0.0697475 -0.391408
4 0.0421378 -0.0697475 -0.40214
4 0.0161424 0.08 -0.385476
4 0.0161424 -0.08 -0.393819
4 0.0190081 0.08 -0.386277
4 0.0190081 -0.08 -0.394194
4 0.0219263 0.08 -0.38701
4 0.0219263 -0.08 -0.394708
4 0.0727073 -0.04 -0.40304
4 0.0727073 0.04 -0.379719
4 0.0823856 -0.00996393 -0.393161
4 0.0823856 0.00996393 -0.386098
4 0.0805853 -0.02 -0.396232
4 0.0805853 0.02 -0.383013
4 0.0454733 0.0697475 -0.388001
4 0.0454733 -0.0697475 -0.404792
4 0.0577851 0.06 -0.380109
4 0.0577851 -0.06 -0.409282
4 0.0668113 -0.0498197 -0.405774
4 0.0668113 0.0498197 -0.378825
4 0.0248981 0.08 -0.387627
4 0.0248981 -0.08 -0.395471
4 0.0783853 -0.0298918 -0.39882
4 0.0783853 0.0298918 -0.379447
4 0.0846329 0 -0.388799
4 0.0279244 0.08 -0.388069
4 0.0279244 -0.08 -0.396594
4 0.0488701 0.0697475 -0.384111
4 0.0488701 -0.0697475 -0.407667
4 0.0310063 0.08 -0.388281
4 0.0310063 -0.08 -0.398187
4 0.0614146 0.06 -0.37733
4 0.0614146 -0.06 -0.410461
4 0.0705994 -0.0498197 -0.405263
4 0.0705994 0.0498197 -0.376641
4 0.0766105 -0.04 -0.401756
4 0.0766105 0.04 -0.37729
4 0.0846329 -0.02 -0.393883
4 0.0846329 0.02 -0.3809
4 0.0341446 0.08 -0.388165
4 0.0341446 -0.08 -0.400267
4 0.0864594 -0.00996393 -0.390841
4 0.0864594 0.00996393 -0.383949
4 0.0523291 0.0697475 -0.380102
4 0.0523291 -0.0697475 -0.410657
4 0.0823856 -0.0298918 -0.396521
4 0.0823856 0.0298918 -0.377089
4 0.0373405 0.08 -0.387598
4 0.0373405 -0.08 -0.402698
4 0.0651106 0.06 -0.37496
4 0.0651106 -0.06 -0.411048
4 0.0887548 0 -0.386712
4 0.0558515 0.0697475 -0.376472
4 0.0558515 -0.0697475 -0.413252
4 0.074457 -0.0498197 -0.404235
4 0.074457 0.0498197 -0.374546
4 0.00128135 0.0896754 -0.375947
4 0.00128135 -0.0896754 -0.394467
4 0.040595 0.08 -0.386453
4 0.040595 -0.08 -0.40536
4 0.00386754 0.0896754 -0.376528
4 0.00386754 -0.0896754 -0.394815
4 0.00650117 0.0896754 -0.376763
4 0.00650117 -0.0896754 -0.395126
4 0.0805853 -0.04 -0.399938
4 0.0805853 0.04 -0.375087
4 0.00918311 -0.0896754 -0.395565
4 0.00918311 0.0896754 -0.377162
4 0.0119142 0.0896754 -0.377623
4 0.0119142 -0.0896754 -0.396037
4 0.0146954 0.0896754 -0.378047
4 0.0146954 -0.0896754 -0.39648
4 0.0887548 0.02 -0.379471
4 0.0887548 -0.02 -0.391461
4 0.0906078 -0.00996393 -0.388627
4 0.0906078 0.00996393 -0.382288
4 0.0439092 0.08 -0.384641
4 0.0439092 -0.08 -0.4082
4 0.0688745 0.06 -0.372963
4 0.0688745 -0.06 -0.411004
4 0.0175277 0.0896754 -0.378392
4 0.0175277 -0.0896754 -0.39696
4 0.0864594 -0.0298918 -0.393874
4 0.0864594 0.0298918 -0.37554
4 0.0594386 0.0697475 -0.373425
4 0.0594386 -0.0697475 -0.415049
4 0.0204118 0.0896754 -0.378679
4 0.0204118 -0.0896754 -0.39755
4 0.0233489 0.0896754 -0.378949
4 0.0233489 -0.0896754 -0.398318
4 0.0783853 -0.0498197 -0.402784
4 0.0783853 0.0498197 -0.372548
4 0.0472842 0.08 -0.382163
4 0.0472842 -0.08 -0.411182
4 0.0929523 0 -0.385061
4 0.0263398 0.0896754 -0.379227
4 0.0263398 -0.0896754 -0.399377
4 0.0846329 0.04 -0.373403
4 0.0846329 -0.04 -0.397716
4 0.0630915 0.0697475 -0.370899
4 0.0630915 -0.0697475 -0.416151
4 0.0727073 0.06 -0.371269
4 0.0727073 -0.06 -0.410319
4 0.0293856 0.0896754 -0.379525
4 0.0293856 -0.0896754 -0.400831
4 0.0507211 0.08 -0.379135
4 0.0507211 -0.08 -0.414201
4 0.0929523 0.02 -0.378872
4 0.0929523 -0.02 -0.389327
4 0.0948324 -0.00996393 -0.386795
4 0.0948324 0.00996393 -0.381389
4 0.0324873 0.0896754 -0.379826
4 0.0324873 -0.0896754 -0.402945
4 0.0906078 -0.0298918 -0.391348
4 0.0906078 0.0298918 -0.375142
4 0.0823856 -0.0498197 -0.400912
4 0.0823856 0.0498197 -0.370783
4 0.0356458 0.0896754 -0.380068
4 0.0356458 -0.0896754 -0.405583
4 0.0668113 0.0697475 -0.368915
4 0.0668113 -0.0697475 -0.416635
4 0.054221 0.08 -0.375821
4 0.054221 -0.08 -0.41695
4 0.0972268 0 -0.384086
4 0.0766105 0.06 -0.369815
4 0.0766105 -0.06 -0.409092
4 0.0887548 0.04 -0.372589
4 0.0887548 -0.04 -0.395412
4 0.0388623 0.0896754 -0.380161
4 0.0388623 -0.0896754 -0.408505
4 0.0577851 0.08 -0.372639
4 0.0577851 -0.08 -0.419059
4 0.0421378 0.0896754 -0.37987
4 0.0421378 -0.0896754 -0.411591
4 0.0705994 0.0697475 -0.367455
4 0.0705994 -0.0697475 -0.416373
4 0.0972268 0.02 -0.379117
4 0.0972268 -0.02 -0.387765
4 0.0948324 -0.0298918 -0.389358
4 0.0948324 0.0298918 -0.375669
4 0.0991344 -0.00996393 -0.385594
4 0.0991344 0.00996393 -0.381417
4 0.0864594 0.0498197 -0.36965
4 0.0864594 -0.0498197 -0.398811
4 0 0.1 -0.374052
4 0 -0.1 -0.395377
4 0.00256965 0.1 -0.374253
4 0.00256965 -0.1 -0.395544
4 0.00518642 0.1 -0.374537
4 0.00518642 -0.1 -0.395853
4 0.00785119 0.1 -0.374737
4 0.00785119 -0.1 -0.396204
4 0.0805853 0.06 -0.368602
4 0.0805853 -0.06 -0.407473
4 0.0454733 0.0896754 -0.378952
4 0.0454733 -0.0896754 -0.414771
4 0.0105648 0.1 -0.374921
4 0.0105648 -0.1 -0.396639
4 0.0614146 0.08 -0.369874
4 0.0614146 -0.08 -0.42039
4 0.0133283 0.1 -0.374974
4 0.0133283 -0.1 -0.397096
4 0.0929523 0.04 -0.372771
4 0.0929523 -0.04 -0.393436
4 0.0161424 0.1 -0.374828
4 0.0161424 -0.1 -0.397591
4 0.10158 0 -0.38387
4 0.0190081 0.1 -0.374498
4 0.0190081 -0.1 -0.398198
4 0.074457 0.0697475 -0.366417
4 0.074457 -0.0697475 -0.415407
4 0.0488701 0.0896754 -0.377255
4 0.0488701 -0.0896754 -0.418022
4 0.0219263 0.1 -0.374057
4 0.0219263 -0.1 -0.399003
4 0.0248981 0.1 -0.373597
4 0.0248981 -0.1 -0.400127
4 0.0651106 0.08 -0.367597
4 0.0651106 -0.08 -0.421032
4 0.0906078 0.0498197 -0.369382
4 0.0906078 -0.0498197 -0.396818
4 0.10158 0.02 -0.380155
4 0.10158 -0.02 -0.386953
4 0.0991344 0.0298918 -0.376972
4 0.0991344 -0.0298918 -0.388112
4 0.0846329 0.06 -0.367747
4 0.0846329 -0.06 -0.405695
4 0.0279244 0.1 -0.373208
4 0.0279244 -0.1 -0.401694
4 0.0523291 0.0896754 -0.374768
4 0.0523291 -0.0896754 -0.42104
4 0.103515 -0.00996393 -0.385025
4 0.103515 0.00996393 -0.382278
4 0.0310063 0.1 -0.372959
4 0.0310063 -0.1 -0.403814
4 0.0783853 0.0697475 -0.365704
4 0.0783853 -0.0697475 -0.413909
4 0.0972268 0.04 -0.373851
4 0.0972268 -0.04 -0.392123
4 0.0688745 0.08 -0.36583
4 0.0688745 -0.08 -0.421087
4 0.0558515 0.0896754 -0.371694
4 0.0558515 -0.0896754 -0.423479
4 0.0341446 0.1 -0.372878
4 0.0341446 -0.1 -0.406504
4 0.106012 0 -0.384428
4 0.0373405 0.1 -0.372941
4 0.0373405 -0.1 -0.409618
4 0.0948324 0.0498197 -0.370166
4 0.0948324 -0.0498197 -0.395353
4 0.0887548 0.06 -0.367421
4 0.0887548 -0.06 -0.404064
4 0.0594386 0.0896754 -0.368782
4 0.0594386 -0.0896754 -0.425101
4 0.103515 -0.0298918 -0.387852
4 0.103515 0.0298918 -0.378922
4 0.106012 -0.02 -0.386985
4 0.106012 0.02 -0.381773
4 0.040595 0.1 -0.373064
4 0.040595 -0.1 -0.412966
4 0.0823856 0.0697475 -0.365274
4 0.0823856 -0.0697475 -0.41221
4 0.0727073 0.08 -0.364574
4 0.0727073 -0.08 -0.420695
4 0.107977 -0.00996393 -0.385438
4 0.107977 0.00996393 -0.383774
4 0.10158 0.04 -0.375598
4 0.10158 -0.04 -0.391696
4 0.0439092 0.1 -0.373101
4 0.0439092 -0.1 -0.416355
4 0.00128135 0.109603 -0.371837
4 0.00128135 -0.109603 -0.396257
4 0.0630915 0.0896754 -0.366259
4 0.0630915 -0.0896754 -0.425889
4 0.00386754 0.109603 -0.37204
4 0.00386754 -0.109603 -0.396567
4 0.00650117 0.109603 -0.372145
4 0.00650117 -0.109603 -0.39683
4 0.00918311 0.109603 -0.37219
4 0.00918311 -0.109603 -0.397225
4 0.0119142 0.109603 -0.372017
4 0.0119142 -0.109603 -0.397661
4 0.110526 0 -0.385711
4 0.0146954 0.109603 -0.371523
4 0.0146954 -0.109603 -0.398146
4 0.0472842 0.1 -0.372878
4 0.0472842 -0.1 -0.41961
4 0.0929523 0.06 -0.36777
4 0.0929523 -0.06 -0.402842
4 0.0766105 0.08 -0.363811
4 0.0766105 -0.08 -0.420025
4 0.0991344 0.0498197 -0.371831
4 0.0991344 -0.0498197 -0.394714
4 0.0175277 0.109603 -0.370694
4 0.0175277 -0.109603 -0.398733
4 0.0864594 0.0697475 -0.365114
4 0.0864594 -0.0697475 -0.410695
4 0.0204118 -0.109603 -0.399531
4 0.0204118 0.109603 -0.369617
4 0.0668113 0.0896754 -0.364242
4 0.0668113 -0.0896754 -0.426065
4 0.107977 -0.0298918 -0.388364
4 0.107977 0.0298918 -0.38108
4 0.0233489 0.109603 -0.368434
4 0.0233489 -0.109603 -0.400642
4 0.0507211 0.1 -0.372227
4 0.0507211 -0.1 -0.422517
4 0.110526 -0.02 -0.387948
4 0.110526 0.02 -0.383654
4 0.0263398 0.109603 -0.367298
4 0.0263398 -0.109603 -0.402267
4 0.11252 -0.00996393 -0.386814
4 0.11252 0.00996393 -0.38558
4 0.106012 -0.04 -0.392131
4 0.106012 0.04 -0.377671
4 0.0293856 0.109603 -0.366368
4 0.0293856 -0.109603 -0.404476
4 0.0805853 0.08 -0.363459
4 0.0805853 -0.08 -0.419214
4 0.054221 0.1 -0.371035
4 0.054221 -0.1 -0.424847
4 0.0705994 0.0896754 -0.362693
4 0.0705994 -0.0896754 -0.425867
4 0.0972268 0.06 -0.368839
4 0.0972268 -0.06 -0.40211
4 0.0324873 0.109603 -0.365762
4 0.0324873 -0.109603 -0.407281
4 0.0906078 0.0697475 -0.36529
4 0.0906078 -0.0697475 -0.40967
4 0.103515 -0.0498197 -0.395044
4 0.103515 0.0498197 -0.373894
4 0.115123 0 -0.387465
4 0.0356458 0.109603 -0.365537
4 0.0356458 -0.109603 -0.410597
4 0.0577851 0.1 -0.369387
4 0.0577851 -0.1 -0.426501
4 0.0388623 0.109603 -0.365698
4 0.0388623 -0.109603 -0.414289
4 0.11252 -0.0298918 -0.389864
4 0.11252 0.0298918 -0.383148
4 0.0846329 0.08 -0.363439
4 0.0846329 -0.08 -0.418384
4 0.074457 0.0896754 -0.36176
4 0.074457 -0.0896754 -0.42568
4 0.115123 -0.02 -0.389714
4 0.115123 0.02 -0.385567
4 0.0614146 0.1 -0.367489
4 0.0614146 -0.1 -0.427554
4 0.0421378 0.109603 -0.366224
4 0.0421378 -0.109603 -0.418068
4 0.110526 -0.04 -0.393337
4 0.110526 0.04 -0.37975
4 0.117146 -0.00996393 -0.388729
4 0.117146 0.00996393 -0.387458
4 0.0948324 0.0697475 -0.36592
4 0.0948324 -0.0697475 -0.409118
4 0.10158 0.06 -0.370446
4 0.10158 -0.06 -0.401875
4 0.0454733 0.109603 -0.367033
4 0.0454733 -0.109603 -0.421633
4 0.107977 -0.0498197 -0.396098
4 0.107977 0.0498197 -0.37604
4 0.0783853 0.0896754 -0.36141
4 0.0783853 -0.0896754 -0.425561
4 0.0651106 0.1 -0.365583
4 0.0651106 -0.1 -0.428174
4 0.0887548 0.08 -0.363712
4 0.0887548 -0.08 -0.41758
4 0.119804 -3.70074e-17 -0.389393
4 0 0.12 -0.369486
4 0 -0.12 -0.397009
4 0.0488701 0.109603 -0.367903
4 0.0488701 -0.109603 -0.424691
4 0.00256965 0.12 -0.369536
4 0.00256965 -0.12 -0.397171
4 0.00518642 0.12 -0.369616
4 0.00518642 -0.12 -0.397417
4 0.00785119 0.12 -0.369657
4 0.00785119 -0.12 -0.39765
4 0.0105648 0.12 -0.369568
4 0.0105648 -0.12 -0.397973
4 0.0133283 0.12 -0.369249
4 0.0133283 -0.12 -0.398366
4 0.117146 -0.0298918 -0.392063
4 0.117146 0.0298918 -0.385054
4 0.0161424 0.12 -0.368666
4 0.0161424 -0.12 -0.398895
4 0.0991344 0.0697475 -0.367065
4 0.0991344 -0.0697475 -0.408679
4 0.0688745 0.1 -0.363907
4 0.0688745 -0.1 -0.428538
4 0.0523291 0.109603 -0.368554
4 0.0523291 -0.109603 -0.427018
4 0.119804 -0.02 -0.391917
4 0.119804 0.02 -0.387377
4 0.0190081 0.12 -0.367851
4 0.0190081 -0.12 -0.399675
4 0.0823856 0.0896754 -0.36149
4 0.0823856 -0.0896754 -0.4255
4 0.106012 -0.06 -0.402194
4 0.106012 0.06 -0.37232
4 0.115123 -0.04 -0.395231
4 0.115123 0.04 -0.381643
4 0.0219263 0.12 -0.366886
4 0.0219263 -0.12 -0.400845
4 0.121857 -0.00996393 -0.390845
4 0.121857 0.00996393 -0.389234
4 0.0248981 0.12 -0.3659
4 0.0248981 -0.12 -0.402535
4 0.0929523 0.08 -0.364281
4 0.0929523 -0.08 -0.416788
4 0.0558515 0.109603 -0.368644
4 0.0558515 -0.109603 -0.428569
4 0.11252 0.0498197 -0.378025
4 0.11252 -0.0498197 -0.397751
4 0.0279244 0.12 -0.365031
4 0.0279244 -0.12 -0.404848
4 0.0727073 0.1 -0.362652
4 0.0727073 -0.1 -0.428807
4 0.0310063 0.12 -0.364381
4 0.0310063 -0.12 -0.407794
4 0.0864594 0.0896754 -0.36189
4 0.0864594 -0.0896754 -0.425283
4 0.124571 0 -0.391294
4 0.0594386 0.109603 -0.367924
4 0.0594386 -0.109603 -0.429575
4 0.0341446 0.12 -0.363995
4 0.0341446 -0.12 -0.411284
4 0.103515 -0.0697475 -0.408309
4 0.103515 0.0697475 -0.368603
4 0.121857 -0.0298918 -0.394584
4 0.121857 0.0298918 -0.386747
4 0.0373405 0.12 -0.363885
4 0.0373405 -0.12 -0.415121
4 0.110526 -0.06 -0.403132
4 0.110526 0.06 -0.374233
4 0.0972268 0.08 -0.365178
4 0.0972268 -0.08 -0.416026
4 0.0766105 0.1 -0.361904
4 0.0766105 -0.1 -0.429049
4 0.124571 -0.02 -0.394285
4 0.124571 0.02 -0.38901
4 0.119804 -0.04 -0.397583
4 0.119804 0.04 -0.383276
4 0.0630915 0.109603 -0.366505
4 0.0630915 -0.109603 -0.430343
4 0.040595 0.12 -0.364055
4 0.040595 -0.12 -0.419047
4 0.126655 -0.00996393 -0.392948
4 0.126655 0.00996393 -0.390838
4 0.117146 0.0498197 -0.379678
4 0.117146 -0.0498197 -0.399865
4 0.0906078 0.0896754 -0.36252
4 0.0906078 -0.0896754 -0.424634
4 0.0439092 0.12 -0.364499
4 0.0439092 -0.12 -0.422775
4 0.0668113 0.109603 -0.364892
4 0.0668113 -0.109603 -0.431029
4 0.0805853 0.1 -0.361634
4 0.0805853 -0.1 -0.429236
4 0.107977 -0.0697475 -0.408397
4 0.107977 0.0697475 -0.370356
4 0.0472842 0.12 -0.365172
4 0.0472842 -0.12 -0.426006
4 0.10158 0.08 -0.366409
4 0.10158 -0.08 -0.415418
4 0.129426 0 -0.393077
4 0.00128135 0.129531 -0.366694
4 0.00128135 -0.129531 -0.397662
4 0.00386754 0.129531 -0.366669
4 0.00386754 -0.129531 -0.39799
4 0.00650117 0.129531 -0.366699
4 0.00650117 -0.129531 -0.398064
4 0.115123 -0.06 -0.404674
4 0.115123 0.06 -0.375994
4 0.00918311 0.129531 -0.366657
4 0.00918311 -0.129531 -0.398256
4 0.0119142 0.129531 -0.366445
4 0.0119142 -0.129531 -0.398508
4 0.126655 -0.0298918 -0.397276
4 0.126655 0.0298918 -0.388224
4 0.0507211 0.12 -0.365938
4 0.0507211 -0.12 -0.428538
4 0.0146954 0.129531 -0.366026
4 0.0146954 -0.129531 -0.398895
4 0.0705994 0.109603 -0.363445
4 0.0705994 -0.109603 -0.431727
4 0.0948324 0.0896754 -0.363312
4 0.0948324 -0.0896754 -0.423508
4 0.0175277 0.129531 -0.365419
4 0.0175277 -0.129531 -0.399552
4 0.124571 -0.04 -0.400238
4 0.124571 0.04 -0.384644
4 0.129426 -0.02 -0.396705
4 0.129426 0.02 -0.390426
4 0.0846329 0.1 -0.36179
4 0.0846329 -0.1 -0.429288
4 0.0204118 0.129531 -0.364661
4 0.0204118 -0.129531 -0.400654
4 0.0233489 0.129531 -0.363827
4 0.0233489 -0.129531 -0.402372
4 0.121857 -0.0498197 -0.402344
4 0.121857 0.0498197 -0.380995
4 0.054221 0.12 -0.366616
4 0.054221 -0.12 -0.430326
4 0.131541 -0.00996393 -0.394971
4 0.131541 0.00996393 -0.392252
4 0.0263398 0.129531 -0.363053
4 0.0263398 -0.129531 -0.404754
4 0.11252 -0.0697475 -0.409183
4 0.11252 0.0697475 -0.372144
4 0.074457 0.109603 -0.362431
4 0.074457 -0.109603 -0.432376
4 0.106012 -0.08 -0.415206
4 0.106012 0.08 -0.367894
4 0.0293856 0.129531 -0.362443
4 0.0293856 -0.129531 -0.407882
4 0.0577851 0.12 -0.367034
4 0.0577851 -0.12 -0.431539
4 0.0324873 0.129531 -0.362014
4 0.0324873 -0.129531 -0.411634
4 0.0991344 0.0896754 -0.3643
4 0.0991344 -0.0896754 -0.42239
4 0.0887548 0.1 -0.362257
4 0.0887548 -0.1 -0.429067
4 0.119804 -0.06 -0.406744
4 0.119804 0.06 -0.377485
4 0.0356458 0.129531 -0.361753
4 0.0356458 -0.129531 -0.415852
4 0.134369 0 -0.394716
4 0.0783853 0.109603 -0.361809
4 0.0783853 -0.109603 -0.432876
4 0.0614146 0.12 -0.367021
4 0.0614146 -0.12 -0.43245
4 0.131541 -0.0298918 -0.400124
4 0.131541 0.0298918 -0.389419
4 0.0388623 0.129531 -0.361661
4 0.0388623 -0.129531 -0.420098
4 0.129426 -0.04 -0.403146
4 0.129426 0.04 -0.385752
4 0.134369 -0.02 -0.399169
4 0.134369 0.02 -0.391592
4 0.126655 -0.0498197 -0.405199
4 0.126655 0.0498197 -0.382005
4 0.0421378 0.129531 -0.36176
4 0.0421378 -0.129531 -0.424173
4 0.117146 -0.0697475 -0.410644
4 0.117146 0.0697475 -0.373784
4 0.110526 -0.08 -0.415597
4 0.110526 0.08 -0.369527
4 0.0651106 0.12 -0.366541
4 0.0651106 -0.12 -0.433263
4 0.0929523 0.1 -0.362903
4 0.0929523 -0.1 -0.428541
4 0.136516 -0.00996393 -0.396934
4 0.136516 0.00996393 -0.393438
4 0.103515 0.0896754 -0.365539
4 0.103515 -0.0896754 -0.421683
4 0.0823856 0.109603 -0.361678
4 0.0823856 -0.109603 -0.433165
4 0.0454733 0.129531 -0.362097
4 0.0454733 -0.129531 -0.427711
4 0.124571 -0.06 -0.409292
4 0.124571 0.06 -0.378673
4 0.0688745 0.12 -0.365739
4 0.0688745 -0.12 -0.434085
4 0.0488701 0.129531 -0.362761
4 0.0488701 -0.129531 -0.430485
4 0.139403 0 -0.396214
4 0.0972268 0.1 -0.363678
4 0.0972268 -0.1 -0.427933
4 0.0864594 0.109603 -0.361987
4 0.0864594 -0.109603 -0.433213
4 0.0523291 0.129531 -0.363627
4 0.0523291 -0.129531 -0.432439
4 0.136516 -0.0298918 -0.403151
4 0.136516 0.0298918 -0.390321
4 0 0.14 -0.364311
4 0 -0.14 -0.401862
4 0.00256965 0.14 -0.364164
4 0.00256965 -0.14 -0.401992
4 0.00518642 0.14 -0.36409
4 0.00518642 -0.14 -0.402114
4 0.115123 -0.08 -0.416638
4 0.115123 0.08 -0.371195
4 0.134369 -0.04 -0.406268
4 0.134369 0.04 -0.386587
4 0.00785119 0.14 -0.364281
4 0.00785119 -0.14 -0.402123
4 0.0727073 0.12 -0.364845
4 0.0727073 -0.12 -0.43491
4 0.107977 -0.0896754 -0.421612
4 0.107977 0.0896754 -0.366946
4 0.0105648 0.14 -0.364516
4 0.0105648 -0.14 -0.402164
4 0.121857 -0.0697475 -0.412735
4 0.121857 0.0697475 -0.375157
4 0.0133283 0.14 -0.364808
4 0.0133283 -0.14 -0.402265
4 0.131541 -0.0498197 -0.408389
4 0.131541 0.0498197 -0.382779
4 0.139403 -0.02 -0.401667
4 0.139403 0.02 -0.392472
4 0.0161424 0.14 -0.36515
4 0.0161424 -0.14 -0.402573
4 0.0558515 0.129531 -0.364713
4 0.0558515 -0.129531 -0.43371
4 0.0190081 0.14 -0.36541
4 0.0190081 -0.14 -0.403296
4 0.0219263 0.14 -0.365492
4 0.0219263 -0.14 -0.404648
4 0.141583 -0.00996393 -0.398871
4 0.141583 0.00996393 -0.394391
4 0.0248981 0.14 -0.365442
4 0.0248981 -0.14 -0.406768
4 0.0906078 0.109603 -0.362532
4 0.0906078 -0.109603 -0.432986
4 0.0766105 0.12 -0.364065
4 0.0766105 -0.12 -0.435669
4 0.0594386 0.129531 -0.365906
4 0.0594386 -0.129531 -0.434668
4 0.10158 0.1 -0.3646
4 0.10158 -0.1 -0.427541
4 0.129426 -0.06 -0.412262
4 0.129426 0.06 -0.379565
4 0.0279244 0.14 -0.365346
4 0.0279244 -0.14 -0.40969
4 0.0310063 0.14 -0.365245
4 0.0310063 -0.14 -0.413322
4 0.11252 -0.0896754 -0.422175
4 0.11252 0.0896754 -0.368537
4 0.119804 -0.08 -0.418306
4 0.119804 0.08 -0.372703
4 0.0630915 -0.129531 -0.435499
4 0.0630915 0.129531 -0.366795
4 0.0341446 0.14 -0.365152
4 0.0341446 -0.14 -0.417475
4 0.14453 -3.70074e-17 -0.397569
4 0.0805853 0.12 -0.36357
4 0.0805853 -0.12 -0.436265
4 0.126655 -0.0697475 -0.415396
4 0.126655 0.0697475 -0.376217
4 0.141583 -0.0298918 -0.40623
4 0.141583 0.0298918 -0.390847
4 0.0373405 0.14 -0.365081
4 0.0373405 -0.14 -0.421864
4 0.0948324 0.109603 -0.363157
4 0.0948324 -0.109603 -0.432712
4 0.139403 -0.04 -0.409511
4 0.139403 0.04 -0.387104
4 0.136516 0.0498197 -0.38327
4 0.136516 -0.0498197 -0.411785
4 0.106012 -0.1 -0.427553
4 0.106012 0.1 -0.365699
4 0.0668113 0.129531 -0.36704
4 0.0668113 -0.129531 -0.436377
4 0.040595 0.14 -0.365046
4 0.040595 -0.14 -0.42618
4 0.14453 -0.02 -0.404159
4 0.14453 0.02 -0.393002
4 0.0439092 0.14 -0.365074
4 0.0439092 -0.14 -0.430139
4 0.0846329 0.12 -0.363445
4 0.0846329 -0.12 -0.436625
4 0.146742 -0.00996393 -0.40077
4 0.146742 0.00996393 -0.39508
4 0.134369 -0.06 -0.415535
4 0.134369 0.06 -0.38016
4 0.0705994 0.129531 -0.366713
4 0.0705994 -0.129531 -0.437299
4 0.117146 -0.0896754 -0.423357
4 0.117146 0.0896754 -0.370202
4 0.0472842 0.14 -0.365227
4 0.0472842 -0.14 -0.433482
4 0.0991344 0.109603 -0.363859
4 0.0991344 -0.109603 -0.432603
4 0.124571 -0.08 -0.420556
4 0.124571 0.08 -0.373884
4 0.131541 0.0697475 -0.376946
4 0.131541 -0.0697475 -0.418489
4 0.0507211 0.14 -0.365552
4 0.0507211 -0.14 -0.436075
4 0.110526 -0.1 -0.428039
4 0.110526 0.1 -0.366982
4 0.0887548 0.12 -0.363605
4 0.0887548 -0.12 -0.436786
4 0.074457 0.129531 -0.366028
4 0.074457 -0.129531 -0.438216
4 0.00128135 0.149459 -0.36142
4 0.00128135 -0.149459 -0.4061
4 0.00386754 -0.149459 -0.406304
4 0.00386754 0.149459 -0.36084
4 0.00650117 0.149459 -0.361112
4 0.00650117 -0.149459 -0.406181
4 0.00918311 0.149459 -0.361559
4 0.00918311 -0.149459 -0.406056
4 0.14975 0 -0.398791
4 0.146742 -0.0298918 -0.409306
4 0.146742 0.0298918 -0.390849
4 0.0119142 0.149459 -0.362223
4 0.0119142 -0.149459 -0.405873
4 0.14453 -0.04 -0.412768
4 0.14453 0.04 -0.387231
4 0.141583 -0.0498197 -0.415239
4 0.141583 0.0498197 -0.38344
4 0.054221 0.14 -0.366088
4 0.054221 -0.14 -0.437927
4 0.0146954 0.149459 -0.363256
4 0.0146954 -0.149459 -0.405794
4 0.0175277 0.149459 -0.364493
4 0.0175277 -0.149459 -0.406049
4 0.103515 -0.109603 -0.432765
4 0.103515 0.109603 -0.364631
4 0.0204118 0.149459 -0.365542
4 0.0204118 -0.149459 -0.406931
4 0.14975 -0.02 -0.406608
4 0.14975 0.02 -0.393161
4 0.0233489 0.149459 -0.366307
4 0.0233489 -0.149459 -0.408674