# p  POINT_DATA 90431
# x  y  z  p
5 0 0 -0.0571951
5 0.00256965 0 -0.0574721
5 0.00518642 0 -0.0580575
5 0.00785119 0 -0.0588636
5 0.00128482 0.01 -0.0540366
5 0.00128482 -0.01 -0.0603536
5 0.0105648 0 -0.0600314
5 0.00387803 0.01 -0.0544466
5 0.00387803 -0.01 -0.0610517
5 0.00651881 0.01 -0.0549481
5 0.00651881 -0.01 -0.0617837
5 0.0133283 0 -0.0614189
5 0.00920802 0.01 -0.055868
5 0.00920802 -0.01 -0.0628547
5 0.0119465 0.01 -0.0571785
5 0.0119465 -0.01 -0.0642246
5 0.0161424 0 -0.0627534
5 0.0147353 0.01 -0.0586153
5 0.0147353 -0.01 -0.0656573
5 0.0190081 0 -0.0638388
5 0 0.02 -0.0545953
5 0 -0.02 -0.0763439
5 0.00256965 0.02 -0.0547649
5 0.00256965 -0.02 -0.076835
5 0.0175752 0.01 -0.0598477
5 0.0175752 -0.01 -0.0668935
5 0.00518642 0.02 -0.0551682
5 0.00518642 -0.02 -0.0777674
5 0.00785119 0.02 -0.0558236
5 0.00785119 -0.02 -0.078765
5 0.0219263 0 -0.0646645
5 0.0105648 0.02 -0.0568443
5 0.0105648 -0.02 -0.0799522
5 0.0204672 0.01 -0.0607742
5 0.0204672 -0.01 -0.0678399
5 0.0133283 0.02 -0.0581127
5 0.0133283 -0.02 -0.0811966
5 0.0248981 0 -0.0653671
5 0.0234122 0.01 -0.0614995
5 0.0234122 -0.01 -0.0685443
5 0.0161424 0.02 -0.0593727
5 0.0161424 -0.02 -0.0823201
5 0.0190081 0.02 -0.0604306
5 0.0190081 -0.02 -0.0831892
5 0.0279244 0 -0.0661665
5 0.0264113 0.01 -0.0622695
5 0.0264113 -0.01 -0.0691551
5 0.0219263 0.02 -0.0612859
5 0.0219263 -0.02 -0.083753
5 0.00128482 0.03 -0.0551539
5 0.00128482 -0.03 -0.0923342
5 0.00387803 0.03 -0.0554226
5 0.00387803 -0.03 -0.0936007
5 0.00651881 0.03 -0.0558555
5 0.00651881 -0.03 -0.0946334
5 0.0310063 0 -0.0672804
5 0.0294653 0.01 -0.0633443
5 0.0294653 -0.01 -0.0698974
5 0.00920802 0.03 -0.0566231
5 0.00920802 -0.03 -0.0957885
5 0.0248981 0.02 -0.0621014
5 0.0248981 -0.02 -0.0840449
5 0.0119465 0.03 -0.0577078
5 0.0119465 -0.03 -0.0969414
5 0.0147353 0.03 -0.0589494
5 0.0147353 -0.03 -0.0979632
5 0.0325754 0.01 -0.0648814
5 0.0325754 -0.01 -0.0709988
5 0.0341446 0 -0.068856
5 0.0279244 0.02 -0.0631254
5 0.0279244 -0.02 -0.0841721
5 0.0175752 0.03 -0.0600788
5 0.0175752 -0.03 -0.0987665
5 0.0204672 0.03 -0.0610217
5 0.0204672 -0.03 -0.099257
5 0.0310063 0.02 -0.0645373
5 0.0310063 -0.02 -0.0843153
5 0.0357425 0.01 -0.0669251
5 0.0357425 -0.01 -0.0726193
5 0.0373405 0 -0.0709408
5 0.0234122 0.03 -0.0618483
5 0.0234122 -0.03 -0.099371
5 0.0341446 0.02 -0.0663895
5 0.0341446 -0.02 -0.0847079
5 0.0264113 0.03 -0.0627883
5 0.0264113 -0.03 -0.099109
5 0 0.04 -0.0525188
5 0 -0.04 -0.116549
5 0.00256965 0.04 -0.0526457
5 0.00256965 -0.04 -0.117032
5 0.0389677 0.01 -0.0694351
5 0.0389677 -0.01 -0.0747841
5 0.00518642 0.04 -0.0529526
5 0.00518642 -0.04 -0.118086
5 0.040595 0 -0.0734855
5 0.00785119 0.04 -0.0534431
5 0.00785119 -0.04 -0.119288
5 0.0105648 0.04 -0.0541891
5 0.0105648 -0.04 -0.120482
5 0.0294653 0.03 -0.0640998
5 0.0294653 -0.03 -0.0985271
5 0.0133283 0.04 -0.05514
5 0.0133283 -0.04 -0.121476
5 0.0373405 0.02 -0.068642
5 0.0373405 -0.02 -0.0855541
5 0.0161424 0.04 -0.0561634
5 0.0161424 -0.04 -0.122182
5 0.0422521 0.01 -0.0722797
5 0.0422521 -0.01 -0.0774435
5 0.0439092 0 -0.0763758
5 0.0325754 0.03 -0.0658242
5 0.0325754 -0.03 -0.0978381
5 0.0190081 0.04 -0.0571346
5 0.0190081 -0.04 -0.12257
5 0.040595 0.02 -0.0711796
5 0.040595 -0.02 -0.0869474
5 0.0219263 0.04 -0.0580461
5 0.0219263 -0.04 -0.122603
5 0.0357425 0.03 -0.0679278
5 0.0357425 -0.03 -0.0973757
5 0.0455967 0.01 -0.0753112
5 0.0455967 -0.01 -0.0804696
5 0.0248981 0.04 -0.0590226
5 0.0248981 -0.04 -0.122219
5 0.0472842 0 -0.0794755
5 0.0439092 0.02 -0.073862
5 0.0439092 -0.02 -0.0888104
5 0.0279244 0.04 -0.0602456
5 0.0279244 -0.04 -0.121411
5 0.0389677 0.03 -0.0702806
5 0.0389677 -0.03 -0.0974374
5 0.0490026 0.01 -0.0784018
5 0.0490026 -0.01 -0.0837201
5 0.00128482 0.05 -0.0498838
5 0.00128482 -0.05 -0.140763
5 0.00387803 0.05 -0.0501225
5 0.00387803 -0.05 -0.141431
5 0.00651881 0.05 -0.0504099
5 0.00651881 -0.05 -0.142679
5 0.0310063 0.04 -0.0617961
5 0.0310063 -0.04 -0.120268
5 0.0507211 0 -0.0826608
5 0.00920802 0.05 -0.050884
5 0.00920802 -0.05 -0.14405
5 0.0472842 0.02 -0.0765713
5 0.0472842 -0.02 -0.0909654
5 0.0119465 0.05 -0.0515416
5 0.0119465 -0.05 -0.14515
5 0.0422521 0.03 -0.0727237
5 0.0422521 -0.03 -0.0981248
5 0.0147353 0.05 -0.0523615
5 0.0147353 -0.05 -0.145851
5 0.0341446 0.04 -0.0636246
5 0.0341446 -0.04 -0.118961
5 0.0175752 0.05 -0.0532642
5 0.0175752 -0.05 -0.146146
5 0.052471 0.01 -0.0814367
5 0.052471 -0.01 -0.0870854
5 0.0204672 0.05 -0.054174
5 0.0204672 -0.05 -0.14611
5 0.054221 0 -0.0857982
5 0.0507211 0.02 -0.0792186
5 0.0507211 -0.02 -0.0932983
5 0.0455967 0.03 -0.0751343
5 0.0455967 -0.03 -0.0992042
5 0.0373405 0.04 -0.0656334
5 0.0373405 -0.04 -0.117662
5 0.0234122 0.05 -0.0551404
5 0.0234122 -0.05 -0.145673
5 0.0264113 0.05 -0.0563135
5 0.0264113 -0.05 -0.144723
5 0.056003 0.01 -0.0843986
5 0.056003 -0.01 -0.090273
5 0.040595 0.04 -0.0677163
5 0.040595 -0.04 -0.116496
5 0.0490026 0.03 -0.0774386
5 0.0490026 -0.03 -0.100468
5 0.0577851 0 -0.0888051
5 0.054221 0.02 -0.0817448
5 0.054221 -0.02 -0.0957033
5 0.0294653 0.05 -0.0577809
5 0.0294653 -0.05 -0.143285
5 0.0439092 0.04 -0.0697852
5 0.0439092 -0.04 -0.115547
5 0.0325754 0.05 -0.0594796
5 0.0325754 -0.05 -0.141423
5 0 0.06 -0.0435818
5 0 -0.06 -0.152692
5 0.00256965 0.06 -0.0436806
5 0.00256965 -0.06 -0.152852
5 0.00518642 0.06 -0.0438816
5 0.00518642 -0.06 -0.153616
5 0.0595998 0.01 -0.0872902
5 0.0595998 -0.01 -0.0932594
5 0.052471 0.03 -0.0795979
5 0.052471 -0.03 -0.10192
5 0.00785119 0.06 -0.0441384
5 0.00785119 -0.06 -0.154914
5 0.0105648 0.06 -0.0445085
5 0.0105648 -0.06 -0.156258
5 0.0577851 0.02 -0.0840983
5 0.0577851 -0.02 -0.0980789
5 0.0614146 0 -0.091667
5 0.0357425 0.05 -0.0612673
5 0.0357425 -0.05 -0.139205
5 0.0133283 0.06 -0.0450152
5 0.0133283 -0.06 -0.15748
5 0.0472842 0.04 -0.0717812
5 0.0472842 -0.04 -0.114844
5 0.0161424 0.06 -0.0456647
5 0.0161424 -0.06 -0.158579
5 0.0190081 0.06 -0.046434
5 0.0190081 -0.06 -0.159634
5 0.0389677 0.05 -0.0630584
5 0.0389677 -0.05 -0.136628
5 0.056003 0.03 -0.0815466
5 0.056003 -0.03 -0.103535
5 0.0219263 0.06 -0.0473198
5 0.0219263 -0.06 -0.160586
5 0.0632626 0.01 -0.0900631
5 0.0632626 -0.01 -0.0960562
5 0.0614146 0.02 -0.0862166
5 0.0614146 -0.02 -0.100389
5 0.0507211 0.04 -0.0736629
5 0.0507211 -0.04 -0.114405
5 0.0248981 0.06 -0.0483615
5 0.0248981 -0.06 -0.161179
5 0.0651106 0 -0.0942792
5 0.0422521 0.05 -0.064803
5 0.0422521 -0.05 -0.133795
5 0.0279244 0.06 -0.0495911
5 0.0279244 -0.06 -0.16117
5 0.0595998 0.03 -0.0831585
5 0.0595998 -0.03 -0.105249
5 0.054221 0.04 -0.0753869
5 0.054221 -0.04 -0.114283
5 0.0310063 0.06 -0.050982
5 0.0310063 -0.06 -0.160428
5 0.0455967 0.05 -0.0664803
5 0.0455967 -0.05 -0.131064
5 0.0669925 0.01 -0.0924627
5 0.0669925 -0.01 -0.0985357
5 0.0651106 0.02 -0.0880484
5 0.0651106 -0.02 -0.102571
5 0.0688745 0 -0.0964733
5 0.0341446 0.06 -0.0524652
5 0.0341446 -0.06 -0.158929
5 0.0490026 0.05 -0.068072
5 0.0490026 -0.05 -0.128641
5 0.00128482 0.07 -0.0372799
5 0.00128482 -0.07 -0.164621
5 0.0632626 0.03 -0.0843551
5 0.0632626 -0.03 -0.106993
5 0.00387803 0.07 -0.0374361
5 0.00387803 -0.07 -0.164594
5 0.0577851 0.04 -0.0768829
5 0.0577851 -0.04 -0.114519
5 0.00651881 0.07 -0.0375579
5 0.00651881 -0.07 -0.165759
5 0.00920802 0.07 -0.0377018
5 0.00920802 -0.07 -0.167169
5 0.0373405 0.06 -0.0539903
5 0.0373405 -0.06 -0.156703
5 0.0119465 0.07 -0.0379069
5 0.0119465 -0.07 -0.168664
5 0.0707909 -0.01 -0.100717
5 0.0707909 0.01 -0.0941788
5 0.0147353 0.07 -0.0382508
5 0.0147353 -0.07 -0.170255
5 0.0688745 -0.02 -0.104567
5 0.0688745 0.02 -0.0895187
5 0.0175752 0.07 -0.0387823
5 0.0175752 -0.07 -0.172066
5 0.040595 0.06 -0.0555445
5 0.040595 -0.06 -0.153841
5 0.052471 0.05 -0.0695435
5 0.052471 -0.05 -0.12659
5 0.0727073 0 -0.0982176
5 0.0204672 0.07 -0.0395159
5 0.0204672 -0.07 -0.174213
5 0.0614146 0.04 -0.078079
5 0.0614146 -0.04 -0.115055
5 0.0669925 0.03 -0.0853132
5 0.0669925 -0.03 -0.1087
5 0.0234122 0.07 -0.040449
5 0.0234122 -0.07 -0.176346
5 0.0439092 0.06 -0.0571322
5 0.0439092 -0.06 -0.150574
5 0.0264113 0.07 -0.0415431
5 0.0264113 -0.07 -0.177976
5 0.056003 0.05 -0.07086
5 0.056003 -0.05 -0.125087
5 0.0746589 -0.01 -0.102709
5 0.0746589 0.01 -0.0952666
5 0.0727073 -0.02 -0.106384
5 0.0727073 0.02 -0.0905344
5 0.0294653 0.07 -0.042727
5 0.0294653 -0.07 -0.178696
5 0.0472842 0.06 -0.0587513
5 0.0472842 -0.06 -0.147218
5 0.0651106 -0.04 -0.115796
5 0.0651106 0.04 -0.0789883
5 0.0766105 0 -0.0995705
5 0.0707909 -0.03 -0.110317
5 0.0707909 0.03 -0.0861204
5 0.0325754 0.07 -0.043941
5 0.0325754 -0.07 -0.178307
5 0.0595998 0.05 -0.0719671
5 0.0595998 -0.05 -0.124205
5 0.0507211 0.06 -0.0603507
5 0.0507211 -0.06 -0.143996
5 0.0357425 0.07 -0.0451734
5 0.0357425 -0.07 -0.17678
5 0.0766105 -0.02 -0.107969
5 0.0766105 0.02 -0.0911171
5 0.0785979 -0.01 -0.104269
5 0.0785979 0.01 -0.0960376
5 0.0688745 -0.04 -0.116679
5 0.0688745 0.04 -0.0796655
5 0 0.08 -0.029913
5 0 -0.08 -0.167545
5 0.00256965 0.08 -0.0299692
5 0.00256965 -0.08 -0.167545
5 0.0389677 0.07 -0.0464624
5 0.0389677 -0.07 -0.174199
5 0.00518642 0.08 -0.0300544
5 0.00518642 -0.08 -0.168148
5 0.00785119 0.08 -0.0301052
5 0.00785119 -0.08 -0.169633
5 0.0746589 -0.03 -0.111795
5 0.0746589 0.03 -0.0865722
5 0.0805853 0 -0.100511
5 0.0632626 0.05 -0.0728357
5 0.0632626 -0.05 -0.123773
5 0.0105648 0.08 -0.0301632
5 0.0105648 -0.08 -0.171613
5 0.054221 0.06 -0.0618285
5 0.054221 -0.06 -0.141034
5 0.0133283 0.08 -0.0302904
5 0.0133283 -0.08 -0.174034
5 0.0161424 0.08 -0.0305636
5 0.0161424 -0.08 -0.176916
5 0.0422521 0.07 -0.0478547
5 0.0422521 -0.07 -0.170742
5 0.0190081 0.08 -0.0310396
5 0.0190081 -0.08 -0.180245
5 0.0219263 0.08 -0.0317407
5 0.0219263 -0.08 -0.183791
5 0.0727073 -0.04 -0.117648
5 0.0727073 0.04 -0.0800714
5 0.0805853 -0.02 -0.109214
5 0.0805853 0.02 -0.0913387
5 0.0826091 -0.01 -0.105261
5 0.0826091 0.01 -0.0964753
5 0.0577851 0.06 -0.0631191
5 0.0577851 -0.06 -0.138456
5 0.0455967 0.07 -0.0493912
5 0.0455967 -0.07 -0.166696
5 0.0669925 -0.05 -0.123718
5 0.0669925 0.05 -0.0734495
5 0.0248981 0.08 -0.0326423
5 0.0248981 -0.08 -0.187102
5 0.0785979 -0.03 -0.113105
5 0.0785979 0.03 -0.0865924
5 0.0846329 0 -0.101012
5 0.0279244 0.08 -0.0336829
5 0.0279244 -0.08 -0.189828
5 0.0490026 0.07 -0.0510622
5 0.0490026 -0.07 -0.162471
5 0.0310063 0.08 -0.0348081
5 0.0310063 -0.08 -0.191441
5 0.0614146 -0.06 -0.136361
5 0.0614146 0.06 -0.0642241
5 0.0766105 -0.04 -0.118653
5 0.0766105 0.04 -0.0801524
5 0.0707909 -0.05 -0.123979
5 0.0707909 0.05 -0.0737789
5 0.0846329 -0.02 -0.110119
5 0.0846329 0.02 -0.0911955
5 0.0341446 0.08 -0.0360099
5 0.0341446 -0.08 -0.191541
5 0.0866939 -0.01 -0.10586
5 0.0866939 0.01 -0.0964525
5 0.052471 0.07 -0.0527256
5 0.052471 -0.07 -0.158281
5 0.0826091 -0.03 -0.11422
5 0.0826091 0.03 -0.0862498
5 0.0373405 0.08 -0.0373254
5 0.0373405 -0.08 -0.190145
5 0.0651106 -0.06 -0.134798
5 0.0651106 0.06 -0.0651272
5 0.0887548 0 -0.101091
5 0.056003 0.07 -0.0541855
5 0.056003 -0.07 -0.154177
5 0.040595 0.08 -0.0387928
5 0.040595 -0.08 -0.187317
5 0.0746589 -0.05 -0.124501
5 0.0746589 0.05 -0.0738143
5 0.0805853 -0.04 -0.119644
5 0.0805853 0.04 -0.0799537
5 0.00128482 0.09 -0.0225461
5 0.00128482 -0.09 -0.17047
5 0.00387803 0.09 -0.0226149
5 0.00387803 -0.09 -0.170496
5 0.00651881 0.09 -0.0226085
5 0.00651881 -0.09 -0.171745
5 0.00920802 0.09 -0.0225527
5 0.00920802 -0.09 -0.173858
5 0.0119465 0.09 -0.0224915
5 0.0119465 -0.09 -0.176763
5 0.0887548 -0.02 -0.11074
5 0.0887548 0.02 -0.0907065
5 0.0147353 0.09 -0.0225123
5 0.0147353 -0.09 -0.180454
5 0.0439092 0.08 -0.040409
5 0.0439092 -0.08 -0.183316
5 0.0688745 -0.06 -0.133765
5 0.0688745 0.06 -0.0657938
5 0.0908536 -0.01 -0.106092
5 0.0908536 0.01 -0.0959614
5 0.0175752 0.09 -0.022709
5 0.0175752 -0.09 -0.184889
5 0.0866939 -0.03 -0.115134
5 0.0866939 0.03 -0.0856045
5 0.0595998 0.07 -0.0554643
5 0.0595998 -0.07 -0.150354
5 0.0204672 0.09 -0.0231514
5 0.0204672 -0.09 -0.189813
5 0.0472842 0.08 -0.0421265
5 0.0472842 -0.08 -0.178551
5 0.0929523 0 -0.100779
5 0.0234122 0.09 -0.0238465
5 0.0234122 -0.09 -0.194793
5 0.0785979 -0.05 -0.12521
5 0.0785979 0.05 -0.0736307
5 0.0846329 -0.04 -0.120575
5 0.0846329 0.04 -0.0795619
5 0.0264113 0.09 -0.0247308
5 0.0264113 -0.09 -0.199296
5 0.0727073 -0.06 -0.133223
5 0.0727073 0.06 -0.0662406
5 0.0632626 -0.07 -0.147113
5 0.0632626 0.07 -0.0566295
5 0.0294653 0.09 -0.0257311
5 0.0294653 -0.09 -0.203344
5 0.0507211 0.08 -0.0438653
5 0.0507211 -0.08 -0.173426
5 0.0929523 -0.02 -0.111076
5 0.0929523 0.02 -0.0899848
5 0.0950896 -0.01 -0.105926
5 0.0950896 0.01 -0.0951359
5 0.0908536 -0.03 -0.115873
5 0.0908536 0.03 -0.0848074
5 0.0325754 0.09 -0.0268334
5 0.0325754 -0.09 -0.205416
5 0.0826091 -0.05 -0.126042
5 0.0826091 0.05 -0.0733418
5 0.054221 0.08 -0.0455374
5 0.054221 -0.08 -0.168241
5 0.0357425 0.09 -0.0280921
5 0.0357425 -0.09 -0.205662
5 0.0669925 -0.07 -0.144586
5 0.0669925 0.07 -0.0575944
5 0.0972268 0 -0.100148
5 0.0766105 -0.06 -0.133098
5 0.0766105 0.06 -0.0665266
5 0.0887548 -0.04 -0.121408
5 0.0887548 0.04 -0.0790811
5 0.0389677 0.09 -0.0295739
5 0.0389677 -0.09 -0.203938
5 0.0577851 -0.08 -0.163252
5 0.0577851 0.08 -0.0471069
5 0.0972268 -0.02 -0.111099
5 0.0972268 0.02 -0.0891812
5 0.0422521 0.09 -0.0312806
5 0.0422521 -0.09 -0.200387
5 0.0707909 -0.07 -0.142776
5 0.0707909 0.07 -0.0583527
5 0.0950896 -0.03 -0.116415
5 0.0950896 0.03 -0.0840341
5 0.0994033 -0.01 -0.105376
5 0.0994033 0.01 -0.0941526
5 0 0.1 -0.0171582
5 0 -0.1 -0.164891
5 0.00256965 0.1 -0.0171778
5 0.00256965 -0.1 -0.16486
5 0.0866939 -0.05 -0.126904
5 0.0866939 0.05 -0.0730513
5 0.00518642 0.1 -0.0171652
5 0.00518642 -0.1 -0.165419
5 0.00785119 0.1 -0.0170729
5 0.00785119 -0.1 -0.167009
5 0.0805853 -0.06 -0.133295
5 0.0805853 0.06 -0.0667208
5 0.0105648 0.1 -0.0169448
5 0.0105648 -0.1 -0.169373
5 0.0614146 -0.08 -0.158733
5 0.0614146 0.08 -0.0485825
5 0.0133283 0.1 -0.0168397
5 0.0133283 -0.1 -0.17246
5 0.0455967 0.09 -0.0331098
5 0.0455967 -0.09 -0.195436
5 0.0929523 -0.04 -0.12212
5 0.0929523 0.04 -0.0786359
5 0.0161424 0.1 -0.0168402
5 0.0161424 -0.1 -0.176243
5 0.10158 0 -0.0993134
5 0.0190081 0.1 -0.0170272
5 0.0190081 -0.1 -0.180602
5 0.0746589 -0.07 -0.141636
5 0.0746589 0.07 -0.0590165
5 0.0219263 0.1 -0.0174499
5 0.0219263 -0.1 -0.18529
5 0.0490026 0.09 -0.0349434
5 0.0490026 -0.09 -0.1896
5 0.0248981 0.1 -0.0181049
5 0.0248981 -0.1 -0.189925
5 0.0651106 -0.08 -0.154911
5 0.0651106 0.08 -0.0499446
5 0.10158 -0.02 -0.110793
5 0.10158 0.02 -0.0884282
5 0.0908536 -0.05 -0.127723
5 0.0908536 0.05 -0.0728611
5 0.0846329 -0.06 -0.133729
5 0.0846329 0.06 -0.066897
5 0.0279244 0.1 -0.0189536
5 0.0279244 -0.1 -0.194183
5 0.0994033 -0.03 -0.11668
5 0.0994033 0.03 -0.0834018
5 0.052471 0.09 -0.0367305
5 0.052471 -0.09 -0.18335
5 0.103796 -0.01 -0.10454
5 0.103796 0.01 -0.0931841
5 0.0310063 0.1 -0.0199701
5 0.0310063 -0.1 -0.197444
5 0.0972268 -0.04 -0.122667
5 0.0972268 0.04 -0.0783243
5 0.0785979 -0.07 -0.141043
5 0.0785979 0.07 -0.0596451
5 0.0688745 -0.08 -0.151901
5 0.0688745 0.08 -0.0511667
5 0.0341446 0.1 -0.0211715
5 0.0341446 -0.1 -0.199095
5 0.056003 0.09 -0.0385084
5 0.056003 -0.09 -0.177153
5 0.106012 0 -0.0984125
5 0.0373405 0.1 -0.0226006
5 0.0373405 -0.1 -0.198955
5 0.0887548 -0.06 -0.134306
5 0.0887548 0.06 -0.0671274
5 0.0950896 -0.05 -0.128468
5 0.0950896 0.05 -0.0728408
5 0.106012 -0.02 -0.110196
5 0.106012 0.02 -0.0878055
5 0.040595 0.1 -0.0242754
5 0.040595 -0.1 -0.196994
5 0.0595998 -0.09 -0.171325
5 0.0595998 0.09 -0.04027
5 0.103796 -0.03 -0.116574
5 0.103796 0.03 -0.0829741
5 0.0727073 -0.08 -0.149713
5 0.0727073 0.08 -0.0522875
5 0.0826091 -0.07 -0.140886
5 0.0826091 0.07 -0.0602658
5 0.108269 -0.01 -0.10359
5 0.108269 0.01 -0.0923355
5 0.10158 -0.04 -0.122964
5 0.10158 0.04 -0.0781976
5 0.0439092 0.1 -0.0261494
5 0.0439092 -0.1 -0.193467
5 0.00128482 0.11 -0.0117703
5 0.00128482 -0.11 -0.159312
5 0.0632626 -0.09 -0.166139
5 0.0632626 0.09 -0.0419665
5 0.00387803 0.11 -0.0117799
5 0.00387803 -0.11 -0.159163
5 0.00651881 0.11 -0.0116576
5 0.00651881 -0.11 -0.16027
5 0.00920802 0.11 -0.0114727
5 0.00920802 -0.11 -0.162163
5 0.110526 0 -0.0975564
5 0.0472842 0.1 -0.0281247
5 0.0472842 -0.1 -0.188811
5 0.0929523 -0.06 -0.134941
5 0.0929523 0.06 -0.0674666
5 0.0119465 0.11 -0.0112621
5 0.0119465 -0.11 -0.164708
5 0.0766105 -0.08 -0.148277
5 0.0766105 0.08 -0.0533607
5 0.0147353 0.11 -0.0110926
5 0.0147353 -0.11 -0.167917
5 0.0994033 -0.05 -0.129104
5 0.0994033 0.05 -0.0730206
5 0.0175752 0.11 -0.0110469
5 0.0175752 -0.11 -0.171712
5 0.0866939 -0.07 -0.141084
5 0.0866939 0.07 -0.0609291
5 0.0204672 0.11 -0.0112015
5 0.0204672 -0.11 -0.175995
5 0.0507211 0.1 -0.030123
5 0.0507211 -0.1 -0.183503
5 0.0669925 -0.09 -0.161805
5 0.0669925 0.09 -0.0435882
5 0.110526 -0.02 -0.10941
5 0.110526 0.02 -0.0873389
5 0.108269 -0.03 -0.116079
5 0.108269 0.03 -0.082728
5 0.0234122 0.11 -0.0116001
5 0.0234122 -0.11 -0.18056
5 0.0264113 0.11 -0.0122422
5 0.0264113 -0.11 -0.185051
5 0.112825 -0.01 -0.10266
5 0.112825 0.01 -0.0916401
5 0.106012 -0.04 -0.122896
5 0.106012 0.04 -0.0782649
5 0.0805853 -0.08 -0.147478
5 0.0805853 0.08 -0.0543864
5 0.054221 0.1 -0.0321294
5 0.054221 -0.1 -0.178003
5 0.0294653 0.11 -0.0131104
5 0.0294653 -0.11 -0.189043
5 0.0972268 -0.06 -0.135564
5 0.0972268 0.06 -0.067942
5 0.0707909 -0.09 -0.158434
5 0.0707909 0.09 -0.0451316
5 0.0908536 -0.07 -0.141513
5 0.0908536 0.07 -0.0616683
5 0.0325754 0.11 -0.0142056
5 0.0325754 -0.11 -0.191973
5 0.115123 0 -0.096794
5 0.103796 -0.05 -0.129498
5 0.103796 0.05 -0.073394
5 0.0577851 -0.1 -0.172693
5 0.0577851 0.1 -0.0341259
5 0.0357425 0.11 -0.0155552
5 0.0357425 -0.11 -0.193329
5 0.0846329 -0.08 -0.147188
5 0.0846329 0.08 -0.0553798
5 0.0389677 0.11 -0.0171818
5 0.0389677 -0.11 -0.192889
5 0.112825 -0.03 -0.115312
5 0.112825 0.03 -0.0826519
5 0.115123 -0.02 -0.108552
5 0.115123 0.02 -0.0870297
5 0.0746589 -0.09 -0.156004
5 0.0746589 0.09 -0.0466497
5 0.0614146 -0.1 -0.16787
5 0.0614146 0.1 -0.0360617
5 0.110526 -0.04 -0.122406
5 0.110526 0.04 -0.078514
5 0.0422521 0.11 -0.019066
5 0.0422521 -0.11 -0.19076
5 0.117464 -0.01 -0.101791
5 0.117464 0.01 -0.0910846
5 0.10158 -0.06 -0.136069
5 0.10158 0.06 -0.0685569
5 0.0950896 -0.07 -0.142059
5 0.0950896 0.07 -0.0624963
5 0.0455967 0.11 -0.0211415
5 0.0455967 -0.11 -0.187285
5 0.108269 -0.05 -0.129431
5 0.108269 0.05 -0.0739634
5 0.0651106 -0.1 -0.163771
5 0.0651106 0.1 -0.037916
5 0.0887548 -0.08 -0.147272
5 0.0887548 0.08 -0.0563819
5 0.0785979 -0.09 -0.154425
5 0.0785979 0.09 -0.0481319
5 0.119804 -3.70074e-17 -0.0961193
5 0 0.12 -0.00985947
5 0 -0.12 -0.142065
5 0.00256965 0.12 -0.00985914
5 0.00256965 -0.12 -0.141878
5 0.00518642 0.12 -0.00978642
5 0.00518642 -0.12 -0.14205
5 0.00785119 0.12 -0.00961545
5 0.00785119 -0.12 -0.143025
5 0.0490026 0.11 -0.0233046
5 0.0490026 -0.11 -0.182919
5 0.0105648 0.12 -0.00940719
5 0.0105648 -0.12 -0.144512
5 0.0133283 0.12 -0.00920382
5 0.0133283 -0.12 -0.146534
5 0.0161424 0.12 -0.00906699
5 0.0161424 -0.12 -0.149127
5 0.117464 -0.03 -0.114443
5 0.117464 0.03 -0.0827422
5 0.0688745 -0.1 -0.160541
5 0.0688745 0.1 -0.0396948
5 0.119804 -0.02 -0.107684
5 0.119804 0.02 -0.0868723
5 0.0190081 0.12 -0.00906234
5 0.0190081 -0.12 -0.152306
5 0.0994033 -0.07 -0.142624
5 0.0994033 0.07 -0.0634104
5 0.106012 -0.06 -0.136252
5 0.106012 0.06 -0.0693053
5 0.052471 0.11 -0.0255142
5 0.052471 -0.11 -0.178142
5 0.115123 -0.04 -0.121588
5 0.115123 0.04 -0.0789188
5 0.0219263 0.12 -0.00923707
5 0.0219263 -0.12 -0.156022
5 0.0826091 -0.09 -0.153559
5 0.0826091 0.09 -0.0495033
5 0.0248981 0.12 -0.00960934
5 0.0248981 -0.12 -0.160077
5 0.122188 -0.01 -0.100953
5 0.122188 0.01 -0.0906487
5 0.0929523 -0.08 -0.147595
5 0.0929523 0.08 -0.057408
5 0.0279244 0.12 -0.0101809
5 0.0279244 -0.12 -0.16412
5 0.112825 -0.05 -0.128802
5 0.112825 0.05 -0.0747128
5 0.056003 0.11 -0.0277652
5 0.056003 -0.11 -0.173366
5 0.0727073 -0.1 -0.158202
5 0.0727073 0.1 -0.0414005
5 0.0310063 0.12 -0.0109611
5 0.0310063 -0.12 -0.167684
5 0.124571 0 -0.0955116
5 0.0341446 0.12 -0.0119804
5 0.0341446 -0.12 -0.170297
5 0.0866939 -0.09 -0.153223
5 0.0866939 0.09 -0.0508213
5 0.0595998 -0.11 -0.168926
5 0.0595998 0.11 -0.0299606
5 0.103796 -0.07 -0.143049
5 0.103796 0.07 -0.0644029
5 0.0373405 0.12 -0.0132741
5 0.0373405 -0.12 -0.171639
5 0.110526 -0.06 -0.135886
5 0.110526 0.06 -0.0701782
5 0.122188 -0.03 -0.11355
5 0.122188 0.03 -0.0830138
5 0.0972268 -0.08 -0.148031
5 0.0972268 0.08 -0.0584573
5 0.0766105 -0.1 -0.156671
5 0.0766105 0.1 -0.0430326
5 0.124571 -0.02 -0.1068
5 0.124571 0.02 -0.0868595
5 0.119804 -0.04 -0.120624
5 0.119804 0.04 -0.0794581
5 0.040595 0.12 -0.0148515
5 0.040595 -0.12 -0.171637
5 0.0632626 -0.11 -0.165088
5 0.0632626 0.11 -0.0320503
5 0.126999 -0.01 -0.100105
5 0.126999 0.01 -0.0903397
5 0.117464 -0.05 -0.127796
5 0.117464 0.05 -0.0755684
5 0.0439092 0.12 -0.0166785
5 0.0439092 -0.12 -0.170443
5 0.0908536 -0.09 -0.153267
5 0.0908536 0.09 -0.0521091
5 0.0805853 -0.1 -0.15581
5 0.0805853 0.1 -0.044574
5 0.0669925 -0.11 -0.16205
5 0.0669925 0.11 -0.0340595
5 0.108269 -0.07 -0.143028
5 0.108269 0.07 -0.0654614
5 0.0472842 0.12 -0.018686
5 0.0472842 -0.12 -0.168344
5 0.10158 -0.08 -0.148433
5 0.10158 0.08 -0.0595259
5 0.129426 0 -0.0949156
5 0.115123 -0.06 -0.134928
5 0.115123 0.06 -0.0711478
5 0.00128482 0.13 -0.00794869
5 0.00128482 -0.13 -0.124819
5 0.00387803 0.13 -0.00793775
5 0.00387803 -0.13 -0.124218
5 0.00651881 0.13 -0.00777048
5 0.00651881 -0.13 -0.124546
5 0.0507211 0.12 -0.0208046
5 0.0507211 -0.12 -0.165678
5 0.00920802 0.13 -0.00756104
5 0.00920802 -0.13 -0.125119
5 0.126999 -0.03 -0.112592
5 0.126999 0.03 -0.0834358
5 0.0119465 0.13 -0.00733283
5 0.0119465 -0.13 -0.126056
5 0.0707909 -0.11 -0.159875
5 0.0707909 0.11 -0.0360003
5 0.0147353 0.13 -0.00712765
5 0.0147353 -0.13 -0.127453
5 0.124571 -0.04 -0.119626
5 0.124571 0.04 -0.0801299
5 0.0950896 -0.09 -0.153541
5 0.0950896 0.09 -0.0533588
5 0.129426 -0.02 -0.105853
5 0.129426 0.02 -0.0869229
5 0.0846329 -0.1 -0.15546
5 0.0846329 0.1 -0.046028
5 0.0175752 0.13 -0.00700078
5 0.0175752 -0.13 -0.129426
5 0.0204672 0.13 -0.00700019
5 0.0204672 -0.13 -0.132093
5 0.054221 -0.12 -0.162776
5 0.054221 0.12 -0.022983
5 0.122188 -0.05 -0.126707
5 0.122188 0.05 -0.0765083
5 0.0234122 0.13 -0.00714657
5 0.0234122 -0.13 -0.135441
5 0.131897 -0.01 -0.099219
5 0.131897 0.01 -0.0899983
5 0.0264113 0.13 -0.00744861
5 0.0264113 -0.13 -0.139258
5 0.112825 -0.07 -0.142281
5 0.112825 0.07 -0.0665757
5 0.106012 -0.08 -0.14855
5 0.106012 0.08 -0.0606093
5 0.0746589 -0.11 -0.158496
5 0.0746589 0.11 -0.0378212
5 0.0577851 -0.12 -0.15993
5 0.0577851 0.12 -0.0251605
5 0.0294653 0.13 -0.0079223
5 0.0294653 -0.13 -0.143128
5 0.0887548 -0.1 -0.155469
5 0.0887548 0.1 -0.0474339
5 0.119804 -0.06 -0.133636
5 0.119804 0.06 -0.0721726
5 0.0325754 0.13 -0.0086064
5 0.0325754 -0.13 -0.146593
5 0.0994033 -0.09 -0.153902
5 0.0994033 0.09 -0.054564
5 0.134369 0 -0.094247
5 0.0614146 -0.12 -0.157404
5 0.0614146 0.12 -0.0272796
5 0.0357425 0.13 -0.00955462
5 0.0357425 -0.13 -0.149295
5 0.0785979 -0.11 -0.157759
5 0.0785979 0.11 -0.039528
5 0.131897 -0.03 -0.111493
5 0.131897 0.03 -0.0839178
5 0.129426 -0.04 -0.118575
5 0.129426 0.04 -0.0808941
5 0.0389677 0.13 -0.0108052
5 0.0389677 -0.13 -0.151045
5 0.134369 -0.02 -0.104784
5 0.134369 0.02 -0.0869726
5 0.110526 -0.08 -0.148059
5 0.110526 0.08 -0.0617009
5 0.126999 -0.05 -0.125655
5 0.126999 0.05 -0.0775622
5 0.0651106 -0.12 -0.155413
5 0.0651106 0.12 -0.0293262
5 0.0929523 -0.1 -0.155692
5 0.0929523 0.1 -0.0487906
5 0.0422521 0.13 -0.0123535
5 0.0422521 -0.13 -0.151856
5 0.117464 -0.07 -0.140835
5 0.117464 0.07 -0.067735
5 0.136886 -0.01 -0.0982262
5 0.136886 0.01 -0.0895441
5 0.103796 -0.09 -0.15416
5 0.103796 0.09 -0.0557269
5 0.0826091 -0.11 -0.157496
5 0.0826091 0.11 -0.0411331
5 0.0455967 0.13 -0.0141536
5 0.0455967 -0.13 -0.151873
5 0.124571 -0.06 -0.132354
5 0.124571 0.06 -0.0732314
5 0.0688745 -0.12 -0.154069
5 0.0688745 0.12 -0.031307
5 0.0490026 0.13 -0.016145
5 0.0490026 -0.13 -0.151297
5 0.139403 0 -0.0934929
5 0.0972268 -0.1 -0.155995
5 0.0972268 0.1 -0.0500652
5 0 0.14 -0.00905139
5 0 -0.14 -0.113838
5 0.00256965 0.14 -0.00903539
5 0.00256965 -0.14 -0.113591
5 0.0866939 -0.11 -0.157563
5 0.0866939 0.11 -0.042655
5 0.00518642 0.14 -0.00894203
5 0.00518642 -0.14 -0.113391
5 0.136886 -0.03 -0.110196
5 0.136886 0.03 -0.08443
5 0.052471 0.13 -0.0182553
5 0.052471 -0.13 -0.150353
5 0.115123 -0.08 -0.146798
5 0.115123 0.08 -0.0627953
5 0.134369 -0.04 -0.117381
5 0.134369 0.04 -0.0816885
5 0.00785119 0.14 -0.00877357
5 0.00785119 -0.14 -0.113546
5 0.0727073 -0.12 -0.15336
5 0.0727073 0.12 -0.0332127
5 0.0105648 0.14 -0.00858516
5 0.0105648 -0.14 -0.113884
5 0.0133283 0.14 -0.00839824
5 0.0133283 -0.14 -0.114534
5 0.108269 -0.09 -0.153965
5 0.108269 0.09 -0.0568465
5 0.122188 -0.07 -0.139207
5 0.122188 0.07 -0.0688793
5 0.139403 -0.02 -0.103546
5 0.139403 0.02 -0.0869998
5 0.0161424 0.14 -0.00824554
5 0.0161424 -0.14 -0.115627
5 0.131897 -0.05 -0.12456
5 0.131897 0.05 -0.0786612
5 0.0190081 0.14 -0.00816148
5 0.0190081 -0.14 -0.117289
5 0.056003 -0.13 -0.149243
5 0.056003 0.13 -0.020398
5 0.0219263 0.14 -0.00816686
5 0.0219263 -0.14 -0.119587
5 0.0248981 0.14 -0.00826305
5 0.0248981 -0.14 -0.122448
5 0.141967 -0.01 -0.0970991
5 0.141967 0.01 -0.0891019
5 0.0766105 -0.12 -0.153177
5 0.0766105 0.12 -0.0350283
5 0.10158 -0.1 -0.15623
5 0.10158 0.1 -0.0512532
5 0.129426 -0.06 -0.131231
5 0.129426 0.06 -0.0743199
5 0.0908536 -0.11 -0.157821
5 0.0908536 0.11 -0.0441505
5 0.0279244 0.14 -0.00844939
5 0.0279244 -0.14 -0.125637
5 0.0595998 -0.13 -0.148183
5 0.0595998 0.13 -0.0225187
5 0.0310063 0.14 -0.00875124
5 0.0310063 -0.14 -0.128844
5 0.119804 -0.08 -0.145083
5 0.119804 0.08 -0.0638759
5 0.0341446 0.14 -0.00922811
5 0.0341446 -0.14 -0.131775
5 0.112825 -0.09 -0.15296
5 0.112825 0.09 -0.0579205
5 0.14453 -3.70074e-17 -0.0926837
5 0.0805853 -0.12 -0.153362
5 0.0805853 0.12 -0.0367546
5 0.0632626 -0.13 -0.147417
5 0.0632626 0.13 -0.0245893
5 0.0373405 0.14 -0.00995002
5 0.0373405 -0.14 -0.134199
5 0.126999 -0.07 -0.137844
5 0.126999 0.07 -0.0699764
5 0.139403 -0.04 -0.115959
5 0.139403 0.04 -0.0824759
5 0.141967 -0.03 -0.108664
5 0.141967 0.03 -0.0849233
5 0.0950896 -0.11 -0.15814
5 0.0950896 0.11 -0.0455444
5 0.136886 -0.05 -0.123274
5 0.136886 0.05 -0.0797454
5 0.106012 -0.1 -0.156172
5 0.106012 0.1 -0.0523649
5 0.040595 0.14 -0.0109603
5 0.040595 -0.14 -0.136002
5 0.14453 -0.02 -0.102135
5 0.14453 0.02 -0.0870095
5 0.0669925 -0.13 -0.147096
5 0.0669925 0.13 -0.0266061
5 0.0439092 0.14 -0.0122546
5 0.0439092 -0.14 -0.137183
5 0.0846329 -0.12 -0.153763
5 0.0846329 0.12 -0.0383923
5 0.134369 -0.06 -0.130117
5 0.134369 0.06 -0.0754273
5 0.14714 -0.01 -0.0958817
5 0.14714 0.01 -0.0886518
5 0.0472842 0.14 -0.0137918
5 0.0472842 -0.14 -0.137822
5 0.117464 -0.09 -0.151118
5 0.117464 0.09 -0.0589505
5 0.0707909 -0.13 -0.147257
5 0.0707909 0.13 -0.0285629
5 0.124571 -0.08 -0.143476
5 0.124571 0.08 -0.0649224
5 0.0994033 -0.11 -0.158397
5 0.0994033 0.11 -0.0467942
5 0.0507211 -0.14 -0.138036
5 0.0507211 0.14 -0.0155136
5 0.110526 -0.1 -0.155532
5 0.110526 0.1 -0.0534046
5 0.0887548 -0.12 -0.154254
5 0.0887548 0.12 -0.0399367
5 0.131897 -0.07 -0.136865
5 0.131897 0.07 -0.0710806
5 0.14975 0 -0.091837
5 0.0746589 -0.13 -0.147814
5 0.0746589 0.13 -0.030467
5 0.14453 -0.04 -0.114257
5 0.14453 0.04 -0.0832405
5 0.00128482 0.15 -0.0101541
5 0.00128482 -0.15 -0.102857
5 0.00387803 0.15 -0.010101
5 0.00387803 -0.15 -0.102469
5 0.054221 -0.14 -0.137958
5 0.054221 0.14 -0.0173479
5 0.00651881 0.15 -0.00995883
5 0.00651881 -0.15 -0.10233
5 0.14714 -0.03 -0.106893
5 0.14714 0.03 -0.0853611
5 0.00920802 0.15 -0.00980389
5 0.00920802 -0.15 -0.102187
5 0.0119465 0.15 -0.00964284
5 0.0119465 -0.15 -0.102173
5 0.141967 -0.05 -0.121702
5 0.141967 0.05 -0.0808055
5 0.0147353 0.15 -0.00948961
5 0.0147353 -0.15 -0.102455
5 0.0175752 0.15 -0.00936411
5 0.0175752 -0.15 -0.103175
5 0.14975 -0.02 -0.100574
5 0.14975 0.02 -0.0869983
5 0.103796 -0.11 -0.158463
5 0.103796 0.11 -0.0479282
5 0.0204672 0.15 -0.00928082
5 0.0204672 -0.15 -0.104461
5 0.0577851 -0.14 -0.137745
5 0.0577851 0.14 -0.0192319
5 0.122188 -0.09 -0.149172
5 0.122188 0.09 -0.0599392
5 0.139403 -0.06 -0.128817
5 0.139403 0.06 -0.0765394
5 0.0929523 -0.12 -0.154709
5 0.0929523 0.12 -0.0413703
5 0.0234122 0.15 -0.00923988
5 0.0234122 -0.15 -0.106353
5 0.0785979 -0.13 -0.14864
5 0.0785979 0.13 -0.0322976
5 0.129426 -0.08 -0.142285
5 0.129426 0.08 -0.065948
5 0.0264113 0.15 -0.00921716
5 0.0264113 -0.15 -0.10874
5 0.115123 -0.1 -0.154197
5 0.115123 0.1 -0.0543752
5 0.152408 -0.01 -0.0946032
5 0.152408 0.01 -0.0882108
5 0.0294653 0.15 -0.00920952
5 0.0294653 -0.15 -0.111422
5 0.0614146 -0.14 -0.137579
5 0.0614146 0.14 -0.0211276
5 0.0325754 0.15 -0.00926682
5 0.0325754 -0.15 -0.114234
5 0.136886 -0.07 -0.135768
5 0.136886 0.07 -0.0722227
5 0.0826091 -0.13 -0.149552
5 0.0826091 0.13 -0.0340601
5 0.0357425 0.15 -0.00948472
5 0.0357425 -0.15 -0.116979
5 0.108269 -0.11 -0.158102
5 0.108269 0.11 -0.0489585
5 0.0651106 -0.14 -0.137634
5 0.0651106 0.14 -0.0230128
5 0.0972268 -0.12 -0.155053
5 0.0972268 0.12 -0.0426657
5 0.0389677 0.15 -0.00995576
5 0.0389677 -0.15 -0.119479
5 0.14975 -0.04 -0.112251
5 0.14975 0.04 -0.0839826
5 0.155066 0 -0.0909756
5 0.152408 -0.03 -0.104916
5 0.152408 0.03 -0.0857694
5 0.14714 -0.05 -0.119768
5 0.14714 0.05 -0.0818724
5 0.126999 -0.09 -0.147681
5 0.126999 0.09 -0.0608952
5 0.0422521 0.15 -0.0107272
5 0.0422521 -0.15 -0.121626
5 0.0688745 -0.14 -0.138013
5 0.0688745 0.14 -0.0248718
5 0.119804 -0.1 -0.152512
5 0.119804 0.1 -0.055283
5 0.0866939 -0.13 -0.150442
5 0.0866939 0.13 -0.0357215
5 0.155066 -0.02 -0.0989009
5 0.155066 0.02 -0.0869944
5 0.134369 -0.08 -0.141368
5 0.134369 0.08 -0.0669872
5 0.14453 -0.06 -0.127238
5 0.14453 0.06 -0.0776527
5 0.0455967 0.15 -0.0117845
5 0.0455967 -0.15 -0.123378
5 0.10158 -0.12 -0.155258
5 0.10158 0.12 -0.0438299
5 0.112825 -0.11 -0.157103
5 0.112825 0.11 -0.0498933
5 0.0727073 -0.14 -0.138711