# U  POINT_DATA 90431
# x  y  z  U_x  U_y  U_z
4 0 0 0 0 0
4 0.00256965 0 -0.156611 0.0122326 -0.188739
4 0.00518642 0 -0.201587 0.0247488 -0.246762
4 0.00785119 0 -0.24447 0.0410732 -0.288154
4 0.00128135 -0.00996393 -0.151749 0.00700306 -0.112855
4 0.00128135 0.00996393 -0.114694 0.00940439 -0.194423
4 0.0105648 0 -0.290299 0.0552425 -0.312789
4 0.00386754 -0.00996393 -0.204694 0.0158907 -0.168628
4 0.00386754 0.00996393 -0.158206 0.0162471 -0.270751
4 0.00650117 -0.00996393 -0.247007 0.0333579 -0.213145
4 0.00650117 0.00996393 -0.199704 0.0330032 -0.324976
4 0.0133283 0 -0.33979 0.0665427 -0.321599
4 0.00918311 -0.00996393 -0.286725 0.0507709 -0.247454
4 0.00918311 0.00996393 -0.247245 0.0465543 -0.357213
4 0.0119142 -0.00996393 -0.327571 0.0666479 -0.269548
4 0.0119142 0.00996393 -0.301392 0.0565185 -0.367755
4 0.0161424 0 -0.391747 0.0747458 -0.317893
4 0.0146954 -0.00996393 -0.370938 0.0799552 -0.279157
4 0.0146954 0.00996393 -0.359672 0.0628777 -0.362051
4 0.0190081 0 -0.444407 0.0799531 -0.305649
4 0 -0.02 0 0 0
4 0 0.02 0 0 0
4 0.0175277 -0.00996393 -0.416576 0.0902261 -0.278101
4 0.0175277 0.00996393 -0.418937 0.0661412 -0.345991
4 0.00256965 -0.02 -0.180791 0.00804597 -0.110735
4 0.00256965 0.02 -0.115109 0.0089666 -0.258111
4 0.00518642 -0.02 -0.234268 0.0183392 -0.154461
4 0.00518642 0.02 -0.158096 0.0167244 -0.326424
4 0.00785119 -0.02 -0.279742 0.0320773 -0.191588
4 0.00785119 0.02 -0.206764 0.0260896 -0.36891
4 0.0219263 0 -0.49625 0.0826793 -0.288523
4 0.0105648 -0.02 -0.321971 0.0461499 -0.220822
4 0.0105648 0.02 -0.262781 0.0323688 -0.386232
4 0.0204118 -0.00996393 -0.463492 0.0972418 -0.269126
4 0.0204118 0.00996393 -0.476696 0.0668106 -0.32477
4 0.0133283 -0.02 -0.363667 0.0594222 -0.240496
4 0.0133283 0.02 -0.323508 0.0357569 -0.384708
4 0.0248981 0 -0.546197 0.0837915 -0.269359
4 0.0233489 -0.00996393 -0.510645 0.101765 -0.255334
4 0.0233489 0.00996393 -0.531482 0.065888 -0.301811
4 0.0161424 -0.02 -0.406233 0.0710556 -0.250548
4 0.0161424 0.02 -0.385636 0.0366877 -0.372431
4 0.0190081 -0.02 -0.450047 0.0805835 -0.252401
4 0.0190081 0.02 -0.446538 0.0358194 -0.354797
4 0.0279244 0 -0.593384 0.0839346 -0.249774
4 0.0263398 -0.00996393 -0.557252 0.104324 -0.239595
4 0.0263398 0.00996393 -0.582265 0.0645045 -0.279022
4 0.0219263 -0.02 -0.494834 0.0880873 -0.247887
4 0.0219263 0.02 -0.504495 0.033874 -0.335253
4 0.00128135 -0.0298918 -0.151124 0.00152572 -0.0600527
4 0.00128135 0.0298918 -0.0755799 0.00409433 -0.237299
4 0.00386754 -0.0298918 -0.216852 0.00714993 -0.0976288
4 0.00386754 0.0298918 -0.114889 0.00656056 -0.322196
4 0.00650117 -0.0298918 -0.270976 0.0157783 -0.133898
4 0.00650117 0.0298918 -0.161942 0.0121021 -0.379423
4 0.0310063 0 -0.637038 0.0834425 -0.23037
4 0.0293856 -0.00996393 -0.602512 0.105506 -0.222757
4 0.0293856 0.00996393 -0.628133 0.0629527 -0.257179
4 0.00918311 -0.0298918 -0.317546 0.0265011 -0.167051
4 0.00918311 0.0298918 -0.219103 0.0145842 -0.406081
4 0.0248981 -0.02 -0.540125 0.093957 -0.238436
4 0.0248981 0.02 -0.558426 0.0316623 -0.315433
4 0.0119142 -0.0298918 -0.359702 0.0382003 -0.194555
4 0.0119142 0.0298918 -0.282549 0.0146351 -0.407305
4 0.0146954 -0.0298918 -0.400115 0.0499892 -0.214499
4 0.0146954 0.0298918 -0.347879 0.0127337 -0.396827
4 0.0324873 -0.00996393 -0.64555 0.105572 -0.205708
4 0.0324873 0.00996393 -0.668509 0.0614469 -0.236124
4 0.0341446 0 -0.676623 0.0825364 -0.21134
4 0.0279244 -0.02 -0.585413 0.0985426 -0.225602
4 0.0279244 0.02 -0.607532 0.0297539 -0.295647
4 0.0175277 -0.0298918 -0.440723 0.060904 -0.226934
4 0.0175277 0.0298918 -0.412106 0.00955848 -0.381395
4 0.0204118 -0.0298918 -0.482489 0.0707357 -0.232831
4 0.0204118 0.0298918 -0.473422 0.005977 -0.364674
4 0.0310063 -0.02 -0.630026 0.102103 -0.211155
4 0.0310063 0.02 -0.651163 0.0283736 -0.275484
4 0.0356458 -0.00996393 -0.685743 0.104868 -0.188925
4 0.0356458 0.00996393 -0.703277 0.0600674 -0.215426
4 0.0373405 0 -0.711958 0.081244 -0.192656
4 0.0233489 -0.0298918 -0.525495 0.0794628 -0.232554
4 0.0233489 0.0298918 -0.530718 0.00248586 -0.34824
4 0.0341446 -0.02 -0.673237 0.104825 -0.196314
4 0.0341446 0.02 -0.688844 0.0276187 -0.254399
4 0.0263398 -0.0298918 -0.569651 0.0873141 -0.225423
4 0.0263398 0.0298918 -0.583257 -0.000287845 -0.3318
4 0 0.04 0 0 0
4 0 -0.04 0 0 0
4 0.00256965 0.04 -0.084726 0.00126102 -0.274551
4 0.00256965 -0.04 -0.172841 0.00223188 -0.0765843
4 0.0388623 -0.00996393 -0.722778 0.103487 -0.172684
4 0.0388623 0.00996393 -0.732712 0.0584154 -0.194694
4 0.00518642 0.04 -0.127293 0.00144906 -0.344715
4 0.00518642 -0.04 -0.237013 0.00650075 -0.113327
4 0.040595 0 -0.743175 0.0793711 -0.174403
4 0.00785119 -0.04 -0.294268 0.0126361 -0.148814
4 0.00785119 0.04 -0.177628 0.000915769 -0.386462
4 0.0105648 -0.04 -0.345703 0.0205346 -0.180186
4 0.0105648 0.04 -0.233348 -0.000800475 -0.402028
4 0.0293856 -0.0298918 -0.614569 0.0943122 -0.214556
4 0.0293856 0.0298918 -0.630467 -0.00210803 -0.314245
4 0.0133283 -0.04 -0.392884 0.029583 -0.205128
4 0.0133283 0.04 -0.291395 -0.00327545 -0.400247
4 0.0373405 -0.02 -0.714366 0.106756 -0.181878
4 0.0373405 0.02 -0.720363 0.0273329 -0.231996
4 0.0161424 -0.04 -0.437699 0.0392124 -0.222376
4 0.0161424 0.04 -0.349864 -0.00629617 -0.39111
4 0.0421378 -0.00996393 -0.756495 0.101134 -0.157351
4 0.0421378 0.00996393 -0.757502 0.0563155 -0.174064
4 0.0439092 0 -0.770519 0.0767268 -0.156971
4 0.0324873 -0.0298918 -0.659591 0.100611 -0.202091
4 0.0324873 0.0298918 -0.671742 -0.00279698 -0.294456
4 0.0190081 0.04 -0.407659 -0.00962007 -0.37987
4 0.0190081 -0.04 -0.481825 0.0490285 -0.232348
4 0.040595 -0.02 -0.752687 0.107773 -0.168487
4 0.040595 0.02 -0.745914 0.0271911 -0.208315
4 0.0219263 0.04 -0.464082 -0.0129669 -0.368141
4 0.0219263 -0.04 -0.52635 0.0589314 -0.235957
4 0.0356458 -0.0298918 -0.703953 0.106162 -0.189373
4 0.0356458 0.0298918 -0.7064 -0.0023935 -0.271958
4 0.0454733 0.00996393 -0.778234 0.0534474 -0.154189
4 0.0454733 -0.00996393 -0.786739 0.0978522 -0.143403
4 0.0248981 0.04 -0.518616 -0.016037 -0.356239
4 0.0248981 -0.04 -0.571779 0.0688588 -0.233406
4 0.0472842 0 -0.794208 0.0731133 -0.141036
4 0.0439092 -0.02 -0.78741 0.107799 -0.156677
4 0.0439092 0.02 -0.765594 0.0268151 -0.184098
4 0.0279244 0.04 -0.570711 -0.0185331 -0.343551
4 0.0279244 -0.04 -0.618026 0.078677 -0.225971
4 0.0388623 -0.0298918 -0.746621 0.110729 -0.177537
4 0.0388623 0.0298918 -0.734034 -0.00112853 -0.246455
4 0.00128135 0.0498197 -0.0563083 -0.0014391 -0.226073
4 0.00128135 -0.0498197 -0.12707 -0.000596042 -0.0569935
4 0.0488701 -0.00996393 -0.813248 0.0934733 -0.131526
4 0.0488701 0.00996393 -0.795609 0.0494925 -0.13602
4 0.00386754 0.0498197 -0.0936746 -0.00329102 -0.309223
4 0.00386754 -0.0498197 -0.197618 0.000546205 -0.0928928
4 0.00650117 -0.0498197 -0.265201 0.00180479 -0.130449
4 0.00650117 0.0498197 -0.139633 -0.00779308 -0.364817
4 0.0310063 0.04 -0.61951 -0.0201978 -0.328873
4 0.0310063 -0.04 -0.664386 0.0882445 -0.215956
4 0.00918311 -0.0498197 -0.327379 0.00520981 -0.165691
4 0.00918311 0.0498197 -0.189878 -0.0122693 -0.393114
4 0.0507211 0 -0.814431 0.0684606 -0.127494
4 0.0119142 0.0498197 -0.240988 -0.0161632 -0.400373
4 0.0119142 -0.0498197 -0.38347 0.0104529 -0.195393
4 0.0472842 -0.02 -0.81767 0.106593 -0.146831
4 0.0472842 0.02 -0.780289 0.0257994 -0.160567
4 0.0421378 -0.0298918 -0.786167 0.11424 -0.167428
4 0.0421378 0.0298918 -0.754773 0.000525199 -0.218652
4 0.0146954 -0.0498197 -0.434494 0.017442 -0.217961
4 0.0146954 0.0498197 -0.292436 -0.0194469 -0.396237
4 0.0341446 0.04 -0.663659 -0.0207944 -0.310918
4 0.0341446 -0.04 -0.709637 0.0973989 -0.205091
4 0.0175277 -0.0498197 -0.482395 0.0259006 -0.231802
4 0.0175277 0.0498197 -0.344518 -0.0224519 -0.390331
4 0.0523291 -0.00996393 -0.835703 0.0880476 -0.122606
4 0.0523291 0.00996393 -0.810274 0.0446101 -0.12065
4 0.0204118 0.0498197 -0.39738 -0.0254041 -0.383732
4 0.0204118 -0.0498197 -0.529087 0.0357375 -0.239252
4 0.054221 0 -0.831651 0.0628029 -0.117089
4 0.0454733 -0.0298918 -0.821153 0.116711 -0.159539
4 0.0454733 0.0298918 -0.767628 0.00205187 -0.190037
4 0.0507211 -0.02 -0.842731 0.104148 -0.139176
4 0.0507211 0.02 -0.791565 0.0238432 -0.1391
4 0.0373405 0.04 -0.7015 -0.0201807 -0.288929
4 0.0373405 -0.04 -0.752171 0.10586 -0.194285
4 0.0233489 0.0498197 -0.451029 -0.0283095 -0.376672
4 0.0233489 -0.0498197 -0.576023 0.046869 -0.240317
4 0.0263398 0.0498197 -0.50527 -0.031075 -0.369006
4 0.0263398 -0.0498197 -0.623807 0.0589049 -0.236093
4 0.0558515 -0.00996393 -0.854325 0.0816695 -0.116957
4 0.0558515 0.00996393 -0.823545 0.0386401 -0.108815
4 0.040595 0.04 -0.731562 -0.0184087 -0.262915
4 0.040595 -0.04 -0.790101 0.11337 -0.183952
4 0.0488701 0.0298918 -0.775824 0.00300361 -0.162433
4 0.0488701 -0.0298918 -0.849984 0.11732 -0.153774
4 0.0577851 0 -0.847216 0.0562074 -0.109987
4 0.054221 -0.02 -0.862499 0.100791 -0.133648
4 0.054221 0.02 -0.800923 0.0207218 -0.120854
4 0.0293856 0.0498197 -0.559419 -0.033464 -0.359899
4 0.0293856 -0.0498197 -0.671936 0.0714339 -0.228259
4 0.0439092 0.04 -0.752533 -0.015741 -0.23373
4 0.0439092 -0.04 -0.821904 0.119842 -0.174192
4 0.0324873 0.0498197 -0.611927 -0.035103 -0.347623
4 0.0324873 -0.0498197 -0.719086 0.08409 -0.219158
4 0 0.06 0 0 0
4 0 -0.06 0 0 0
4 0.00256965 0.06 -0.0768246 -0.00447725 -0.244099
4 0.00256965 -0.06 -0.150739 -0.000239144 -0.0870034
4 0.00518642 0.06 -0.117399 -0.00953136 -0.311424
4 0.00518642 -0.06 -0.221231 0.000213855 -0.127323
4 0.0523291 -0.0298918 -0.871923 0.116985 -0.149583
4 0.0523291 0.0298918 -0.780988 0.00280651 -0.137516
4 0.0594386 -0.00996393 -0.870432 0.0745716 -0.114415
4 0.0594386 0.00996393 -0.837936 0.0317003 -0.100304
4 0.00785119 0.06 -0.160174 -0.0158266 -0.355192
4 0.00785119 -0.06 -0.291095 0.00153794 -0.166216
4 0.0105648 0.06 -0.201475 -0.0207331 -0.377434
4 0.0105648 -0.06 -0.357091 0.00476226 -0.199707
4 0.0577851 -0.02 -0.878203 0.0967661 -0.129831
4 0.0577851 0.02 -0.810686 0.0162835 -0.106256
4 0.0356458 0.0498197 -0.660212 -0.0355593 -0.330346
4 0.0356458 -0.0498197 -0.763069 0.0964466 -0.209795
4 0.0614146 0 -0.862999 0.0487898 -0.105088
4 0.0133283 0.06 -0.241335 -0.0240284 -0.384458
4 0.0133283 -0.06 -0.41815 0.00990801 -0.225538
4 0.0472842 0.04 -0.764878 -0.0125896 -0.203006
4 0.0472842 -0.04 -0.847324 0.125099 -0.164805
4 0.0161424 0.06 -0.281622 -0.025999 -0.383828
4 0.0161424 -0.06 -0.474969 0.0171047 -0.242703
4 0.0190081 0.06 -0.323752 -0.0271816 -0.380362
4 0.0190081 -0.06 -0.529042 0.0263164 -0.251456
4 0.0388623 0.0498197 -0.701284 -0.0344255 -0.307631
4 0.0388623 -0.0498197 -0.80139 0.108069 -0.2003
4 0.0558515 -0.0298918 -0.887485 0.115965 -0.14606
4 0.0558515 0.0298918 -0.785578 0.00115559 -0.116469
4 0.0630915 -0.00996393 -0.885762 0.066949 -0.112671
4 0.0630915 0.00996393 -0.855271 0.0237233 -0.0934051
4 0.0219263 0.06 -0.36847 -0.0280087 -0.375661
4 0.0219263 -0.06 -0.58167 0.0374742 -0.253214
4 0.0614146 -0.02 -0.891309 0.0923218 -0.12643
4 0.0614146 0.02 -0.823254 0.0105054 -0.0944805
4 0.0507211 0.04 -0.770705 -0.00957389 -0.172711
4 0.0507211 -0.04 -0.866225 0.129153 -0.155477
4 0.0248981 0.06 -0.416223 -0.0287704 -0.370178
4 0.0248981 -0.06 -0.633214 0.0503245 -0.249266
4 0.0651106 0 -0.878963 0.0404604 -0.0995576
4 0.0421378 0.0498197 -0.732456 -0.0316101 -0.279518
4 0.0421378 -0.0498197 -0.83141 0.118669 -0.190204
4 0.0279244 0.06 -0.467152 -0.0296266 -0.363838
4 0.0279244 -0.06 -0.683006 0.0644118 -0.24114
4 0.0594386 -0.0298918 -0.899591 0.114661 -0.142276
4 0.0594386 0.0298918 -0.792594 -0.00219906 -0.0993809
4 0.054221 0.04 -0.772496 -0.00734498 -0.144637
4 0.054221 -0.04 -0.878546 0.13226 -0.145945
4 0.0454733 0.0498197 -0.752009 -0.0272424 -0.247176
4 0.0454733 -0.0498197 -0.852683 0.128255 -0.178975
4 0.0310063 0.06 -0.520755 -0.0305454 -0.355905
4 0.0310063 -0.06 -0.729354 0.0792118 -0.229901
4 0.0668113 -0.00996393 -0.899431 0.0586083 -0.107903
4 0.0668113 0.00996393 -0.872636 0.0144198 -0.0846364
4 0.0651106 -0.02 -0.901994 0.0874701 -0.121153
4 0.0651106 0.02 -0.838502 0.00340072 -0.0832565
4 0.0688745 0 -0.890981 0.031021 -0.0893372
4 0.0341446 0.06 -0.575439 -0.0312846 -0.345107
4 0.0341446 -0.06 -0.769794 0.094168 -0.21613
4 0.00128135 0.0697475 -0.0596545 -0.00402471 -0.183394
4 0.00128135 -0.0697475 -0.105609 -0.000470042 -0.0785136
4 0.0488701 0.0498197 -0.761228 -0.0218385 -0.212667
4 0.0488701 -0.0498197 -0.867962 0.136926 -0.16591
4 0.0630915 -0.0298918 -0.908051 0.113237 -0.136444
4 0.0630915 0.0298918 -0.804272 -0.00714469 -0.084854
4 0.00386754 0.0697475 -0.0984032 -0.00839032 -0.258428
4 0.00386754 -0.0697475 -0.17496 -0.000435304 -0.123032
4 0.00650117 0.0697475 -0.138589 -0.0171208 -0.314421
4 0.00650117 -0.0697475 -0.250531 -0.00110232 -0.167049
4 0.0577851 0.04 -0.773185 -0.00645124 -0.1199
4 0.0577851 -0.04 -0.885126 0.13452 -0.135965
4 0.00918311 0.0697475 -0.1735 -0.0236761 -0.350059
4 0.00918311 -0.0697475 -0.325965 0.000122152 -0.206133
4 0.0373405 0.06 -0.628245 -0.0314148 -0.330233
4 0.0373405 -0.06 -0.803066 0.108794 -0.200271
4 0.0119142 0.0697475 -0.20281 -0.0276379 -0.368347
4 0.0119142 -0.0697475 -0.397524 0.00304461 -0.235939
4 0.0146954 0.0697475 -0.230631 -0.0290789 -0.375476
4 0.0146954 -0.0697475 -0.464208 0.00838316 -0.25668
4 0.0705994 -0.00996393 -0.907252 0.0491206 -0.0953387
4 0.0705994 0.00996393 -0.881544 0.00389838 -0.0698337
4 0.0688745 -0.02 -0.908722 0.0818722 -0.111071
4 0.0688745 0.02 -0.851611 -0.00474964 -0.0693458
4 0.0175277 0.0697475 -0.260434 -0.0287299 -0.376191
4 0.0175277 -0.0697475 -0.5268 0.0163242 -0.267378
4 0.0523291 0.0498197 -0.762304 -0.016296 -0.178336
4 0.0523291 -0.0498197 -0.876382 0.14453 -0.151154
4 0.040595 0.06 -0.675661 -0.0304698 -0.310323
4 0.040595 -0.06 -0.827661 0.122643 -0.182718
4 0.0204118 0.0697475 -0.294023 -0.0274132 -0.374356
4 0.0204118 -0.0697475 -0.586639 0.0269106 -0.269389
4 0.0727073 0 -0.893014 0.0205273 -0.0712135
4 0.0668113 -0.0298918 -0.912776 0.111556 -0.127375
4 0.0668113 0.0298918 -0.81903 -0.0133885 -0.0703972
4 0.0614146 0.04 -0.775733 -0.00720686 -0.0985066
4 0.0614146 -0.04 -0.886829 0.135913 -0.125014
4 0.0233489 0.0697475 -0.33249 -0.0257766 -0.371169
4 0.0233489 -0.0697475 -0.644203 0.0400107 -0.264849
4 0.0439092 0.06 -0.714423 -0.0281372 -0.285028
4 0.0439092 -0.06 -0.842543 0.135367 -0.163929
4 0.0263398 0.0697475 -0.376766 -0.0243979 -0.367166
4 0.0263398 -0.0697475 -0.698322 0.0552075 -0.255765
4 0.0558515 0.0498197 -0.75889 -0.011401 -0.146192
4 0.0558515 -0.0498197 -0.878603 0.15106 -0.135054
4 0.074457 -0.00996393 -0.905645 0.0382219 -0.0725272
4 0.074457 0.00996393 -0.874275 -0.0070539 -0.0475155
4 0.0727073 -0.02 -0.908879 0.0749493 -0.0937503
4 0.0727073 0.02 -0.854757 -0.0129652 -0.05006
4 0.0293856 0.0697475 -0.427385 -0.0236587 -0.362489
4 0.0293856 -0.0697475 -0.747307 0.0718719 -0.243506
4 0.0472842 0.06 -0.741827 -0.0242957 -0.255062
4 0.0472842 -0.06 -0.849573 0.146631 -0.144249
4 0.0651106 0.04 -0.781979 -0.00955237 -0.0792232
4 0.0651106 -0.04 -0.884159 0.136233 -0.112451
4 0.0766105 0 -0.88185 0.0093115 -0.0458836
4 0.0705994 -0.0298918 -0.912767 0.108998 -0.113248
4 0.0705994 0.0298918 -0.830743 -0.0199332 -0.053119
4 0.0324873 0.0697475 -0.484067 -0.0236676 -0.356632
4 0.0324873 -0.0697475 -0.787752 0.089299 -0.226828
4 0.0594386 0.0498197 -0.753649 -0.0079749 -0.117499
4 0.0594386 -0.0498197 -0.873901 0.156237 -0.118137
4 0.0356458 0.0697475 -0.544883 -0.0241796 -0.348585
4 0.0356458 -0.0697475 -0.816651 0.106769 -0.205948
4 0.0507211 0.06 -0.757107 -0.0190809 -0.221977
4 0.0507211 -0.06 -0.850017 0.155854 -0.123978
4 0.0783853 -0.00996393 -0.894281 0.025921 -0.0426602
4 0.0783853 0.00996393 -0.849765 -0.0176339 -0.0212087
4 0.0766105 -0.02 -0.900675 0.0661299 -0.0696611
4 0.0766105 0.02 -0.841726 -0.0201557 -0.0252975
4 0.0688745 -0.04 -0.877045 0.135028 -0.0977633
4 0.0688745 0.04 -0.790459 -0.0129188 -0.0599312
4 0.0388623 0.0697475 -0.605567 -0.0246061 -0.336789
4 0.0388623 -0.0697475 -0.836897 0.123921 -0.181387
4 0 0.08 0 0 0
4 0 -0.08 0 0 0
4 0.00256965 0.08 -0.0876745 -0.00673412 -0.189693
4 0.00256965 -0.08 -0.131149 -4.03582e-05 -0.114988
4 0.00518642 0.08 -0.12749 -0.0137661 -0.251871
4 0.00518642 -0.08 -0.203111 0.000117562 -0.163006
4 0.074457 -0.0298918 -0.906445 0.104548 -0.0934716
4 0.074457 0.0298918 -0.830542 -0.0247978 -0.0306863
4 0.00785119 0.08 -0.162294 -0.0218053 -0.299849
4 0.00785119 -0.08 -0.281056 0.000837125 -0.206283
4 0.0630915 0.0498197 -0.750576 -0.00631188 -0.0924201
4 0.0630915 -0.0498197 -0.863829 0.159694 -0.100542
4 0.0805853 0 -0.858574 -0.0022374 -0.018296
4 0.0105648 0.08 -0.189383 -0.0272857 -0.332926
4 0.0105648 -0.08 -0.359566 0.00341386 -0.240967
4 0.054221 0.06 -0.761357 -0.0130268 -0.187693
4 0.054221 -0.06 -0.843807 0.162735 -0.103851
4 0.0133283 0.08 -0.211593 -0.0298553 -0.353338
4 0.0133283 -0.08 -0.435543 0.00823041 -0.265014
4 0.0421378 0.0697475 -0.66204 -0.0242206 -0.319358
4 0.0421378 -0.0697475 -0.845035 0.140028 -0.154526
4 0.0161424 0.08 -0.233189 -0.0296913 -0.364522
4 0.0161424 -0.08 -0.507982 0.0156935 -0.278225
4 0.0190081 0.08 -0.25685 -0.0274087 -0.369306
4 0.0190081 -0.08 -0.576753 0.0259252 -0.281308
4 0.0219263 0.08 -0.283841 -0.0236956 -0.369481
4 0.0219263 -0.08 -0.641256 0.0388511 -0.275556
4 0.0727073 -0.04 -0.864878 0.131484 -0.0807575
4 0.0727073 0.04 -0.796139 -0.0160431 -0.0383905
4 0.0823856 -0.00996393 -0.874595 0.012529 -0.0151157
4 0.0823856 0.00996393 -0.812357 -0.027374 0.00532073
4 0.0805853 -0.02 -0.883912 0.0551192 -0.0433919
4 0.0805853 0.02 -0.812022 -0.0260732 0.00255305
4 0.0454733 0.0697475 -0.709725 -0.0224853 -0.295632
4 0.0454733 -0.0697475 -0.843548 0.154712 -0.126828
4 0.0577851 0.06 -0.758091 -0.00694614 -0.154057
4 0.0577851 -0.06 -0.830985 0.166877 -0.0848356
4 0.0668113 -0.0498197 -0.849061 0.160914 -0.0826371
4 0.0668113 0.0498197 -0.752517 -0.00629888 -0.0697768
4 0.0248981 0.08 -0.315068 -0.0192596 -0.365987
4 0.0248981 -0.08 -0.699707 0.0540171 -0.262289
4 0.0783853 -0.0298918 -0.892332 0.0972 -0.0697567
4 0.0783853 0.0298918 -0.811104 -0.0271903 -0.00294187
4 0.0846329 0 -0.82534 -0.0140228 0.00640643
4 0.0279244 0.08 -0.351382 -0.0147814 -0.359688
4 0.0279244 -0.08 -0.749613 0.0707901 -0.243
4 0.0488701 0.0697475 -0.742866 -0.0188127 -0.265958
4 0.0488701 -0.0697475 -0.83503 0.166887 -0.0994667
4 0.0310063 0.08 -0.393582 -0.0107812 -0.351564
4 0.0310063 -0.08 -0.788736 0.0882711 -0.218649
4 0.0614146 0.06 -0.751714 -0.00152666 -0.12242
4 0.0614146 -0.06 -0.812188 0.167694 -0.0675496
4 0.0705994 -0.0498197 -0.829747 0.159351 -0.0650899
4 0.0705994 0.0498197 -0.758613 -0.00709801 -0.0476009
4 0.0766105 -0.04 -0.847027 0.124618 -0.0623325
4 0.0766105 0.04 -0.792353 -0.0173587 -0.013309
4 0.0846329 -0.02 -0.859226 0.0420784 -0.0215447
4 0.0846329 0.02 -0.769713 -0.0314453 0.0310477
4 0.0341446 0.08 -0.442344 -0.00757113 -0.342268
4 0.0341446 -0.08 -0.814629 0.105431 -0.190076
4 0.0864594 -0.00996393 -0.845316 -0.0014589 0.00221297
4 0.0864594 0.00996393 -0.766109 -0.0371064 0.0324391
4 0.0523291 0.0697475 -0.760851 -0.012914 -0.231822
4 0.0523291 -0.0697475 -0.820082 0.175355 -0.0731629
4 0.0823856 -0.0298918 -0.870119 0.0864769 -0.0460543
4 0.0823856 0.0298918 -0.774272 -0.0281086 0.0275573
4 0.0373405 0.08 -0.497524 -0.00524438 -0.331756
4 0.0373405 -0.08 -0.827576 0.121476 -0.158483
4 0.0651106 0.06 -0.74507 0.00273984 -0.0933332
4 0.0651106 -0.06 -0.788667 0.164759 -0.0524054
4 0.0887548 0 -0.782895 -0.0262846 0.0277885
4 0.0558515 0.0697475 -0.762538 -0.00547038 -0.195098
4 0.0558515 -0.0697475 -0.798004 0.18025 -0.0497396
4 0.074457 -0.0498197 -0.805946 0.153926 -0.048905
4 0.074457 0.0498197 -0.764632 -0.00751461 -0.0239805
4 0.00128135 0.0896754 -0.0750342 -0.00441103 -0.128693
4 0.00128135 -0.0896754 -0.0905196 -3.80663e-05 -0.103502
4 0.040595 0.08 -0.556903 -0.00365946 -0.319207
4 0.040595 -0.08 -0.829007 0.135537 -0.126033
4 0.00386754 0.0896754 -0.117875 -0.00963719 -0.19156
4 0.00386754 -0.0896754 -0.156327 0.000973588 -0.158045
4 0.00650117 0.0896754 -0.155715 -0.0189558 -0.246835
4 0.00650117 -0.0896754 -0.234383 0.00143107 -0.20744
4 0.0805853 -0.04 -0.82361 0.113577 -0.0449287
4 0.0805853 0.04 -0.77481 -0.0164586 0.0146893
4 0.00918311 -0.0896754 -0.318151 0.00353168 -0.247979
4 0.00918311 0.0896754 -0.182731 -0.0259112 -0.291673
4 0.0119142 0.0896754 -0.200759 -0.0298531 -0.324843
4 0.0119142 -0.0896754 -0.402494 0.00779983 -0.276701
4 0.0146954 0.0896754 -0.215206 -0.0303714 -0.347582
4 0.0146954 -0.0896754 -0.484812 0.0147367 -0.292641
4 0.0887548 0.02 -0.720528 -0.0372452 0.0580805
4 0.0887548 -0.02 -0.827701 0.0272803 -0.00736729
4 0.0906078 -0.00996393 -0.80365 -0.0158042 0.0147529
4 0.0906078 0.00996393 -0.714058 -0.0476716 0.0604217
4 0.0439092 0.08 -0.61644 -0.00245122 -0.303521
4 0.0439092 -0.08 -0.819634 0.146497 -0.0952025
4 0.0688745 0.06 -0.74082 0.0058933 -0.0665232
4 0.0688745 -0.06 -0.761635 0.15755 -0.039963
4 0.0175277 0.0896754 -0.230058 -0.0277815 -0.361549
4 0.0175277 -0.0896754 -0.563843 0.0245727 -0.296956
4 0.0864594 -0.0298918 -0.842495 0.0726927 -0.027461
4 0.0864594 0.0298918 -0.725862 -0.0290551 0.0569188
4 0.0594386 0.0697475 -0.75642 0.00263549 -0.158039
4 0.0594386 -0.0697475 -0.769796 0.180145 -0.0303043
4 0.0204118 0.0896754 -0.246837 -0.0226623 -0.367842
4 0.0204118 -0.0896754 -0.638113 0.0373136 -0.291021
4 0.0233489 0.0896754 -0.26626 -0.0156956 -0.367481
4 0.0233489 -0.0896754 -0.704749 0.0527262 -0.275038
4 0.0783853 -0.0498197 -0.778242 0.143821 -0.0355218
4 0.0783853 0.0498197 -0.764148 -0.00530251 0.00202287
4 0.0472842 0.08 -0.670975 -0.00103847 -0.283821
4 0.0472842 -0.08 -0.801125 0.153562 -0.067773
4 0.0929523 0 -0.732174 -0.0390749 0.0484209
4 0.0263398 0.0896754 -0.289235 -0.00777043 -0.36143
4 0.0263398 -0.0896754 -0.760011 0.0697606 -0.25005
4 0.0846329 0.04 -0.74396 -0.0138981 0.0430027
4 0.0846329 -0.04 -0.79675 0.097757 -0.0326668
4 0.0630915 0.0697475 -0.74534 0.0106716 -0.122389
4 0.0630915 -0.0697475 -0.73631 0.174757 -0.0155367
4 0.0727073 0.06 -0.739751 0.00846017 -0.041021
4 0.0727073 -0.06 -0.732058 0.145457 -0.0313879
4 0.0293856 0.0896754 -0.316826 0.000275474 -0.351455
4 0.0293856 -0.0896754 -0.800321 0.0879817 -0.217766
4 0.0507211 0.08 -0.715315 0.00128181 -0.259498
4 0.0507211 -0.08 -0.774817 0.156098 -0.0449992
4 0.0929523 0.02 -0.670945 -0.0432318 0.0800147
4 0.0929523 -0.02 -0.789791 0.010238 0.00155183
4 0.0948324 -0.00996393 -0.748108 -0.0308872 0.0327675
4 0.0948324 0.00996393 -0.661168 -0.0583718 0.0837349
4 0.0324873 0.0896754 -0.350924 0.00771918 -0.339942
4 0.0324873 -0.0896754 -0.825482 0.105536 -0.180102
4 0.0906078 -0.0298918 -0.815136 0.0558984 -0.0195088
4 0.0906078 0.0298918 -0.67579 -0.0307686 0.0803364
4 0.0823856 -0.0498197 -0.748378 0.127958 -0.0275258
4 0.0823856 0.0498197 -0.751574 -0.000788219 0.0295128
4 0.0356458 0.0896754 -0.394438 0.0139158 -0.32847
4 0.0356458 -0.0896754 -0.83281 0.121579 -0.139658
4 0.0668113 0.0697475 -0.731247 0.0176229 -0.089633
4 0.0668113 -0.0697475 -0.699569 0.163567 -0.0059062
4 0.054221 0.08 -0.74469 0.00497758 -0.230389
4 0.054221 -0.08 -0.741995 0.153682 -0.0274141
4 0.0972268 0 -0.676804 -0.0517373 0.0673637
4 0.0766105 0.06 -0.73902 0.0114499 -0.0156913
4 0.0766105 -0.06 -0.701632 0.127924 -0.0290578
4 0.0887548 0.04 -0.704226 -0.0104876 0.067589
4 0.0887548 -0.04 -0.771888 0.0768168 -0.0304371
4 0.0388623 0.0896754 -0.449878 0.0183029 -0.317737
4 0.0388623 -0.0896754 -0.82647 0.134856 -0.0982117
4 0.0577851 0.08 -0.758436 0.0101618 -0.197745
4 0.0577851 -0.08 -0.704342 0.146047 -0.0153653
4 0.0421378 0.0896754 -0.514144 0.0206724 -0.307199
4 0.0421378 -0.0896754 -0.808476 0.144278 -0.0608058
4 0.0705994 0.0697475 -0.720786 0.0237198 -0.0603211
4 0.0705994 -0.0697475 -0.661641 0.146124 -0.00213092
4 0.0972268 0.02 -0.626676 -0.0491138 0.0922003
4 0.0972268 -0.02 -0.743031 -0.00947004 0.0103169
4 0.0948324 -0.0298918 -0.788561 0.0343137 -0.0228541
4 0.0948324 0.0298918 -0.632134 -0.0316264 0.0938157
4 0.0991344 -0.00996393 -0.683557 -0.0461303 0.0544315
4 0.0991344 0.00996393 -0.613352 -0.0675925 0.0962557
4 0.0864594 0.0498197 -0.72637 0.00667919 0.055537
4 0.0864594 -0.0498197 -0.720675 0.105178 -0.0296083
4 0 0.1 0 0 0
4 0 -0.1 0 0 0
4 0.00256965 0.1 -0.102267 -0.00504121 -0.130598
4 0.00256965 -0.1 -0.116032 0.000638 -0.144897
4 0.00518642 0.1 -0.142657 -0.0103085 -0.185399
4 0.00518642 -0.1 -0.187101 0.00169544 -0.200291
4 0.00785119 0.1 -0.173886 -0.0158607 -0.23585
4 0.00785119 -0.1 -0.270047 0.00347234 -0.246634
4 0.0805853 0.06 -0.734999 0.015846 0.00997084
4 0.0805853 -0.06 -0.675365 0.10483 -0.0359616
4 0.0454733 0.0896754 -0.582928 0.0213885 -0.295628
4 0.0454733 -0.0896754 -0.780455 0.147503 -0.02937
4 0.0105648 0.1 -0.196097 -0.0191241 -0.279656
4 0.0105648 -0.1 -0.358982 0.00730657 -0.280938
4 0.0614146 0.08 -0.760529 0.0166751 -0.163147
4 0.0614146 -0.08 -0.664043 0.132878 -0.00934409
4 0.0133283 0.1 -0.213409 -0.0195899 -0.315427
4 0.0133283 -0.1 -0.449318 0.0136654 -0.301579
4 0.0929523 0.04 -0.662612 -0.00704139 0.0842542
4 0.0929523 -0.04 -0.754677 0.0506839 -0.0410294
4 0.0161424 0.1 -0.23004 -0.0172244 -0.342613
4 0.0161424 -0.1 -0.537758 0.0228309 -0.308441
4 0.10158 0 -0.623423 -0.0629795 0.0794285
4 0.0190081 0.1 -0.248038 -0.0124197 -0.360851
4 0.0190081 -0.1 -0.620956 0.0347023 -0.302232
4 0.074457 0.0697475 -0.715519 0.0287874 -0.0338477
4 0.074457 -0.0697475 -0.624109 0.122091 -0.00645502
4 0.0488701 0.0896754 -0.650332 0.0212174 -0.281143
4 0.0488701 -0.0896754 -0.742475 0.14515 -0.00645215
4 0.0219263 0.1 -0.267525 -0.00573887 -0.369985
4 0.0219263 -0.1 -0.69482 0.048821 -0.283882
4 0.0248981 0.1 -0.28786 0.00218525 -0.370317
4 0.0248981 -0.1 -0.753989 0.0641623 -0.255104
4 0.0651106 0.08 -0.754598 0.0238929 -0.127987
4 0.0651106 -0.08 -0.62477 0.114388 -0.0109679
4 0.0906078 0.0498197 -0.690846 0.0154391 0.075758
4 0.0906078 -0.0498197 -0.703993 0.0749541 -0.0457403
4 0.10158 0.02 -0.590919 -0.0543359 0.0926111
4 0.10158 -0.02 -0.685403 -0.0295414 0.0221558
4 0.0991344 0.0298918 -0.598959 -0.0344022 0.0943839
4 0.0991344 -0.0298918 -0.749285 0.00786086 -0.0248657
4 0.0846329 0.06 -0.724753 0.0223282 0.0351876
4 0.0846329 -0.06 -0.661814 0.0769039 -0.0548322
4 0.0279244 0.1 -0.308732 0.0106867 -0.362889
4 0.0279244 -0.1 -0.795162 0.0794254 -0.218464
4 0.0523291 0.0896754 -0.708118 0.0212535 -0.261455
4 0.0523291 -0.0896754 -0.6969 0.136454 0.00735481
4 0.103515 -0.00996393 -0.621191 -0.0597394 0.0696807
4 0.103515 0.00996393 -0.574879 -0.0742523 0.0957073
4 0.0310063 0.1 -0.330796 0.0191953 -0.349619
4 0.0310063 -0.1 -0.81737 0.0932567 -0.177299
4 0.0783853 0.0697475 -0.713114 0.0335729 -0.00901747
4 0.0783853 -0.0697475 -0.591562 0.091532 -0.0235743
4 0.0972268 0.04 -0.62584 -0.0048946 0.0900902
4 0.0972268 -0.04 -0.738238 0.0208714 -0.0569026
4 0.0688745 0.08 -0.74395 0.0312023 -0.0938055
4 0.0688745 -0.08 -0.59356 0.0912932 -0.0216945
4 0.0558515 0.0896754 -0.747417 0.0226226 -0.235
4 0.0558515 -0.0896754 -0.646753 0.121576 0.0131373
4 0.0341446 0.1 -0.356044 0.0272537 -0.332748
4 0.0341446 -0.1 -0.820162 0.104318 -0.135681
4 0.106012 0 -0.578822 -0.0720211 0.0795978
4 0.0373405 0.1 -0.387715 0.0344354 -0.314332
4 0.0373405 -0.1 -0.806651 0.111521 -0.0967562
4 0.0948324 0.0498197 -0.652778 0.0229212 0.0865888
4 0.0948324 -0.0498197 -0.705832 0.0392836 -0.0767264
4 0.0887548 0.06 -0.706237 0.0309494 0.057644
4 0.0887548 -0.06 -0.664176 0.0454316 -0.0840843
4 0.0594386 0.0896754 -0.767085 0.0262205 -0.204301
4 0.0594386 -0.0896754 -0.595509 0.100663 0.0115454
4 0.103515 -0.0298918 -0.686526 -0.0167206 -0.0131062
4 0.103515 0.0298918 -0.575053 -0.0367711 0.0849784
4 0.106012 -0.02 -0.624575 -0.0465155 0.0323047
4 0.106012 0.02 -0.563485 -0.0581762 0.0835776
4 0.040595 0.1 -0.428494 0.0403333 -0.296063
4 0.040595 -0.1 -0.780132 0.114012 -0.0630446
4 0.0823856 0.0697475 -0.713314 0.0393602 0.0151116
4 0.0823856 -0.0697475 -0.577136 0.055877 -0.0565795
4 0.0727073 0.08 -0.732008 0.0383319 -0.0613022
4 0.0727073 -0.08 -0.574521 0.064606 -0.0411423
4 0.107977 -0.00996393 -0.572409 -0.0709217 0.0683288
4 0.107977 0.00996393 -0.545994 -0.0788946 0.0844326
4 0.10158 0.04 -0.596981 -0.00482461 0.08535
4 0.10158 -0.04 -0.702003 -0.00716183 -0.0604592
4 0.0439092 0.1 -0.479007 0.0446422 -0.279067
4 0.0439092 -0.1 -0.74269 0.111006 -0.0365224
4 0.00128135 0.109603 -0.0854661 -0.00167295 -0.078052
4 0.00128135 -0.109603 -0.0793062 0.000128757 -0.128258
4 0.0630915 0.0896754 -0.772762 0.032153 -0.169174
4 0.0630915 -0.0896754 -0.546643 0.074049 0.00188674
4 0.00386754 0.109603 -0.131331 -0.00443153 -0.128317
4 0.00386754 -0.109603 -0.141164 0.00173443 -0.191897
4 0.00650117 0.109603 -0.166903 -0.0081368 -0.179527
4 0.00650117 -0.109603 -0.22074 0.00318216 -0.245871
4 0.00918311 0.109603 -0.192234 -0.0102995 -0.229565
4 0.00918311 -0.109603 -0.312171 0.00662104 -0.286833
4 0.0119142 0.109603 -0.211536 -0.010184 -0.275737
4 0.0119142 -0.109603 -0.409437 0.0124695 -0.312876
4 0.110526 0 -0.546339 -0.0793838 0.0695385
4 0.0146954 0.109603 -0.229607 -0.00757874 -0.315499
4 0.0146954 -0.109603 -0.507848 0.021155 -0.323427
4 0.0472842 0.1 -0.538219 0.0472377 -0.264077
4 0.0472842 -0.1 -0.697012 0.10233 -0.0179134
4 0.0929523 0.06 -0.680258 0.0403936 0.0742683
4 0.0929523 -0.06 -0.67266 0.0124905 -0.114944
4 0.0766105 0.08 -0.72115 0.0452732 -0.0309436
4 0.0766105 -0.08 -0.565399 0.0350371 -0.0680806
4 0.0991344 0.0498197 -0.619526 0.0275567 0.0865751
4 0.0991344 -0.0498197 -0.704962 0.00398079 -0.104156
4 0.0175277 0.109603 -0.249094 -0.00267586 -0.346581
4 0.0175277 -0.109603 -0.602597 0.0326195 -0.318568
4 0.0864594 0.0697475 -0.710601 0.0472808 0.0385071
4 0.0864594 -0.0697475 -0.595563 0.0188393 -0.105711
4 0.0204118 -0.109603 -0.687629 0.0462492 -0.298625
4 0.0204118 0.109603 -0.270108 0.0040379 -0.367248
4 0.0668113 0.0896754 -0.768236 0.0396208 -0.132072
4 0.0668113 -0.0896754 -0.508648 0.0431178 -0.020479
4 0.107977 -0.0298918 -0.618011 -0.0350142 0.00208392
4 0.107977 0.0298918 -0.55653 -0.038697 0.0713125