# U  POINT_DATA 90431
# x  y  z  U_x  U_y  U_z
5 0 0 0 0 0
5 0.00256965 0 -0.0591757 -0.0107846 0.0631467
5 0.00518642 0 -0.0673351 -0.0248279 0.116897
5 0.00785119 0 -0.0667586 -0.0411217 0.16863
5 0.00128482 0.01 -0.0655019 -0.00315814 0.0580185
5 0.00128482 -0.01 -0.0378753 -0.00670707 0.0168242
5 0.0105648 0 -0.0626903 -0.0563048 0.207783
5 0.00387803 0.01 -0.0836007 -0.0104698 0.115133
5 0.00387803 -0.01 -0.0497272 -0.0228052 0.062619
5 0.00651881 0.01 -0.082444 -0.0221307 0.171909
5 0.00651881 -0.01 -0.0535686 -0.0439085 0.117937
5 0.0133283 0 -0.05491 -0.0685444 0.230764
5 0.00920802 0.01 -0.0732638 -0.0343578 0.215315
5 0.00920802 -0.01 -0.0577576 -0.0640925 0.169364
5 0.0119465 0.01 -0.0588006 -0.0456526 0.236989
5 0.0119465 -0.01 -0.0609383 -0.0811187 0.209467
5 0.0161424 0 -0.0436381 -0.0765132 0.241578
5 0.0147353 0.01 -0.0400105 -0.0540731 0.238813
5 0.0147353 -0.01 -0.0598892 -0.0933352 0.237791
5 0.0190081 0 -0.0311296 -0.07985 0.24766
5 0 0.02 0 0 0
5 0 -0.02 0 0 0
5 0.00256965 0.02 -0.0784929 -0.00382348 0.0856142
5 0.00256965 -0.02 -0.0247611 -0.0150054 -0.00859235
5 0.0175752 0.01 -0.020004 -0.0583474 0.230977
5 0.0175752 -0.01 -0.0546463 -0.100298 0.258731
5 0.00518642 0.02 -0.0881577 -0.00970236 0.14246
5 0.00518642 -0.02 -0.0354745 -0.0342669 0.0370806
5 0.00785119 0.02 -0.0823392 -0.0176348 0.19259
5 0.00785119 -0.02 -0.048796 -0.0560074 0.0953094
5 0.0219263 0 -0.0199349 -0.0788503 0.255455
5 0.0105648 0.02 -0.0678252 -0.0259022 0.224045
5 0.0105648 -0.02 -0.0652501 -0.0756815 0.150271
5 0.0204672 0.01 -0.00229268 -0.058243 0.223526
5 0.0204672 -0.01 -0.0475728 -0.102512 0.277407
5 0.0133283 0.02 -0.0466329 -0.033343 0.231839
5 0.0133283 -0.02 -0.080256 -0.0919614 0.195645
5 0.0248981 0 -0.0115431 -0.0742935 0.26884
5 0.0234122 0.01 0.0109484 -0.0542344 0.223429
5 0.0234122 -0.01 -0.0408206 -0.100411 0.297461
5 0.0161424 0.02 -0.0211269 -0.0385739 0.221615
5 0.0161424 -0.02 -0.0896074 -0.103903 0.231919
5 0.0190081 0.02 0.00443321 -0.0407143 0.205547
5 0.0190081 -0.02 -0.0926509 -0.111284 0.263038
5 0.0279244 0 -0.00617681 -0.0673144 0.2889
5 0.0264113 0.01 0.0192017 -0.047477 0.233776
5 0.0264113 -0.01 -0.0355007 -0.0950499 0.320699
5 0.0219263 0.02 0.0253607 -0.0396836 0.195357
5 0.0219263 -0.02 -0.0913874 -0.114383 0.29314
5 0.00128482 0.03 -0.0714111 -0.000283892 0.0563711
5 0.00128482 -0.03 -0.00113649 -0.00721346 -0.0680923
5 0.00387803 0.03 -0.0934611 -0.00138269 0.112943
5 0.00387803 -0.03 -0.0103068 -0.0232984 -0.0457151
5 0.00651881 0.03 -0.093125 -0.00482741 0.169866
5 0.00651881 -0.03 -0.0282971 -0.0470591 0.0134903
5 0.0310063 0 -0.0030224 -0.0590389 0.31443
5 0.0294653 0.01 0.023407 -0.0394131 0.254061
5 0.0294653 -0.01 -0.0318144 -0.0873158 0.347069
5 0.00920802 0.03 -0.080522 -0.00922476 0.213276
5 0.00920802 -0.03 -0.0555634 -0.068973 0.0804551
5 0.0248981 0.02 0.0381739 -0.0361361 0.198177
5 0.0248981 -0.02 -0.0882104 -0.113697 0.324801
5 0.0119465 0.03 -0.0587115 -0.0143752 0.230604
5 0.0119465 -0.03 -0.0867441 -0.088545 0.141806
5 0.0147353 0.03 -0.0290048 -0.0192724 0.220949
5 0.0147353 -0.03 -0.113454 -0.104849 0.193524
5 0.0325754 0.01 0.0253777 -0.0314027 0.281428
5 0.0325754 -0.01 -0.0290594 -0.0780221 0.375169
5 0.0341446 0 -0.000480193 -0.0504474 0.343057
5 0.0279244 0.02 0.0422115 -0.0312626 0.215389
5 0.0279244 -0.02 -0.084557 -0.109856 0.358616
5 0.0175752 0.03 0.00451638 -0.0226033 0.195718
5 0.0175752 -0.03 -0.130441 -0.117133 0.237634
5 0.0204672 0.03 0.0355178 -0.0236636 0.171963
5 0.0204672 -0.03 -0.137944 -0.125193 0.278383
5 0.0310063 0.02 0.0403926 -0.0264311 0.243763
5 0.0310063 -0.02 -0.0805509 -0.103556 0.393546
5 0.0357425 0.01 0.0274497 -0.0244136 0.312529
5 0.0357425 -0.01 -0.0256881 -0.0679491 0.403111
5 0.0373405 0 0.00321069 -0.0422694 0.372225
5 0.0234122 0.03 0.0572729 -0.0225928 0.162508
5 0.0234122 -0.03 -0.139212 -0.129417 0.319316
5 0.0341446 0.02 0.0375994 -0.0229043 0.278349
5 0.0341446 -0.02 -0.0753511 -0.0954737 0.427644
5 0.0264113 0.03 0.0652742 -0.0202391 0.172997
5 0.0264113 -0.03 -0.137308 -0.12991 0.361737
5 0 0.04 0 0 0
5 0 -0.04 0 0 0
5 0.00256965 0.04 -0.0777618 -0.000423464 0.0749779
5 0.00256965 -0.04 -0.00331163 -0.00800784 -0.0856687
5 0.0389677 0.01 0.0314769 -0.0190835 0.344157
5 0.0389677 -0.01 -0.0203945 -0.0576295 0.429112
5 0.00518642 0.04 -0.0875848 -0.00191115 0.129174
5 0.00518642 -0.04 -0.0182178 -0.0210081 -0.0569147
5 0.040595 0 0.00913608 -0.0350218 0.399926
5 0.00785119 0.04 -0.0799578 -0.00466298 0.178209
5 0.00785119 -0.04 -0.0467482 -0.0381824 0.0019068
5 0.0105648 0.04 -0.0606935 -0.00812722 0.208975
5 0.0105648 -0.04 -0.0862616 -0.0564922 0.0657926
5 0.0294653 0.03 0.0609631 -0.0179202 0.200728
5 0.0294653 -0.03 -0.133605 -0.127147 0.404967
5 0.0133283 0.04 -0.0314426 -0.0120843 0.213635
5 0.0133283 -0.04 -0.128451 -0.0746042 0.123499
5 0.0373405 0.02 0.0379907 -0.021492 0.314606
5 0.0373405 -0.02 -0.0679902 -0.0861686 0.458879
5 0.0161424 0.04 0.0053528 -0.0158702 0.196601
5 0.0161424 -0.04 -0.16411 -0.0910276 0.173797
5 0.0422521 0.01 0.0384147 -0.0158062 0.374262
5 0.0422521 -0.01 -0.0129509 -0.0475663 0.452181
5 0.0439092 0 0.0176675 -0.0290507 0.424971
5 0.0325754 0.03 0.0518219 -0.0169874 0.238844
5 0.0325754 -0.03 -0.127724 -0.121738 0.446987
5 0.0190081 0.04 0.0434571 -0.0189186 0.173176
5 0.0190081 -0.04 -0.187497 -0.104672 0.221051
5 0.040595 0.02 0.0434537 -0.0223752 0.349318
5 0.040595 -0.02 -0.0581151 -0.0760295 0.485842
5 0.0219263 0.04 0.0734892 -0.0212013 0.160184
5 0.0219263 -0.04 -0.198056 -0.114855 0.270347
5 0.0357425 0.03 0.0457478 -0.0188129 0.280603
5 0.0357425 -0.03 -0.118931 -0.114184 0.485315
5 0.0455967 0.01 0.0484046 -0.0145105 0.401588
5 0.0455967 -0.01 -0.00319573 -0.0383186 0.471859
5 0.0248981 0.04 0.0869931 -0.0231567 0.167123
5 0.0248981 -0.04 -0.199131 -0.121321 0.323881
5 0.0472842 0 0.0288402 -0.0245139 0.4467
5 0.0439092 0.02 0.0537506 -0.0252545 0.380726
5 0.0439092 -0.02 -0.0459531 -0.065484 0.507972
5 0.0279244 0.04 0.0830076 -0.0254178 0.193562
5 0.0279244 -0.04 -0.194376 -0.124185 0.380164
5 0.0389677 0.03 0.047289 -0.0236579 0.321141
5 0.0389677 -0.03 -0.106945 -0.10491 0.517987
5 0.0490026 0.01 0.0612629 -0.0150721 0.425386
5 0.0490026 -0.01 0.00889219 -0.0301533 0.487974
5 0.00128482 0.05 -0.0633029 -1.05734e-05 0.0401465
5 0.00128482 -0.05 0.00287855 0.000811525 -0.108707
5 0.00387803 0.05 -0.0828753 -1.67842e-05 0.0904592
5 0.00387803 -0.05 -0.00468303 -0.00233254 -0.12016
5 0.00651881 0.05 -0.0808776 -0.0014181 0.143438
5 0.00651881 -0.05 -0.0295878 -0.011345 -0.0752661
5 0.0310063 0.04 0.0699335 -0.0287634 0.232633
5 0.0310063 -0.04 -0.185176 -0.123712 0.435896
5 0.0507211 0 0.0425592 -0.0214105 0.464861
5 0.00920802 0.05 -0.0653043 -0.00318213 0.186265
5 0.00920802 -0.05 -0.0735503 -0.0253554 -0.0110414
5 0.0472842 0.02 0.067752 -0.0296003 0.408082
5 0.0472842 -0.02 -0.0318469 -0.0549643 0.525326
5 0.0119465 0.05 -0.038232 -0.00572746 0.205759
5 0.0119465 -0.05 -0.129196 -0.0430988 0.0519616
5 0.0422521 0.03 0.0566361 -0.0309539 0.357719
5 0.0422521 -0.03 -0.0921673 -0.0940099 0.544093
5 0.0147353 0.05 0.000183897 -0.00896284 0.197227
5 0.0147353 -0.05 -0.184417 -0.0619268 0.106712
5 0.0341446 0.04 0.05894 -0.0340733 0.276489
5 0.0341446 -0.04 -0.171326 -0.120231 0.487503
5 0.0175752 0.05 0.0457229 -0.0126428 0.172505
5 0.0175752 -0.05 -0.228134 -0.0802045 0.157326
5 0.052471 0.01 0.0767143 -0.0170955 0.445244
5 0.052471 -0.01 0.0233712 -0.0233204 0.500844
5 0.0204672 0.05 0.0880782 -0.0167651 0.152515
5 0.0204672 -0.05 -0.253471 -0.0961609 0.210869
5 0.054221 0 0.0587215 -0.0195273 0.479632
5 0.0507211 0.02 0.0845247 -0.0348579 0.43121
5 0.0507211 -0.02 -0.0160253 -0.0448138 0.5383
5 0.0455967 0.03 0.07155 -0.0397485 0.389341
5 0.0455967 -0.03 -0.0754951 -0.0820387 0.56376
5 0.0373405 0.04 0.0567745 -0.0417808 0.319205
5 0.0373405 -0.04 -0.153031 -0.11422 0.532155
5 0.0234122 0.05 0.113093 -0.0217839 0.153748
5 0.0234122 -0.05 -0.261599 -0.108648 0.272829
5 0.0264113 0.05 0.112334 -0.0280115 0.179243
5 0.0264113 -0.05 -0.258406 -0.117311 0.341654
5 0.056003 0.01 0.0945313 -0.0199908 0.461461
5 0.056003 -0.01 0.040274 -0.0177022 0.510983
5 0.040595 0.04 0.0641836 -0.0515081 0.357426
5 0.040595 -0.04 -0.131419 -0.106141 0.56831
5 0.0490026 0.03 0.0897946 -0.0490714 0.416019
5 0.0490026 -0.03 -0.0575851 -0.069344 0.577716
5 0.0577851 0 0.0772348 -0.0186189 0.491291
5 0.054221 0.02 0.103507 -0.0404901 0.450444
5 0.054221 -0.02 0.00144175 -0.0351887 0.547393
5 0.0294653 0.05 0.0934571 -0.0355011 0.221287
5 0.0294653 -0.05 -0.248184 -0.12237 0.412308
5 0.0439092 0.04 0.0784396 -0.0623828 0.390067
5 0.0439092 -0.04 -0.108066 -0.096311 0.595682
5 0.0325754 0.05 0.0734888 -0.044646 0.269683
5 0.0325754 -0.05 -0.23119 -0.123594 0.479332
5 0 0.06 0 0 0
5 0 -0.06 0 0 0
5 0.00256965 0.06 -0.0662957 -0.00092091 0.0636503
5 0.00256965 -0.06 -0.0399733 0.00451269 -0.101404
5 0.00518642 0.06 -0.0724606 -0.00254099 0.113936
5 0.00518642 -0.06 -0.0617208 0.0060217 -0.0996328
5 0.0595998 0.01 0.11446 -0.0236351 0.474549
5 0.0595998 -0.01 0.0596799 -0.0131476 0.518174
5 0.052471 0.03 0.110332 -0.0581943 0.438197
5 0.052471 -0.03 -0.0387751 -0.056435 0.586668
5 0.00785119 0.06 -0.0607427 -0.00494822 0.160633
5 0.00785119 -0.06 -0.0930967 0.00375191 -0.0670715
5 0.0105648 0.06 -0.0359418 -0.0078242 0.19212
5 0.0105648 -0.06 -0.136216 -0.00368262 -0.0233008
5 0.0577851 0.02 0.124095 -0.0461215 0.466706
5 0.0577851 -0.02 0.0206297 -0.0261829 0.552904
5 0.0614146 0 0.0980078 -0.0185477 0.500027
5 0.0357425 0.05 0.0646998 -0.0558486 0.316834
5 0.0357425 -0.05 -0.207454 -0.121405 0.538387
5 0.0133283 0.06 0.000536233 -0.0113967 0.200356
5 0.0133283 -0.06 -0.186364 -0.0154365 0.0223144
5 0.0472842 0.04 0.0964614 -0.0734257 0.417402
5 0.0472842 -0.04 -0.0843781 -0.0848991 0.614901
5 0.0161424 0.06 0.0460544 -0.0158332 0.188831
5 0.0161424 -0.06 -0.235261 -0.0300824 0.0691164
5 0.0190081 0.06 0.0923078 -0.0213994 0.17355
5 0.0190081 -0.06 -0.272261 -0.0457798 0.121933
5 0.0389677 0.05 0.0693621 -0.0688058 0.358249
5 0.0389677 -0.05 -0.178789 -0.116381 0.586941
5 0.056003 0.03 0.132455 -0.0666812 0.456879
5 0.056003 -0.03 -0.0190981 -0.0432947 0.59108
5 0.0219263 0.06 0.125782 -0.0285071 0.172411
5 0.0219263 -0.06 -0.290843 -0.0604387 0.186672
5 0.0632626 0.01 0.136345 -0.0278577 0.4852
5 0.0632626 -0.01 0.0815531 -0.00955043 0.522187
5 0.0614146 0.02 0.145715 -0.0516279 0.48055
5 0.0614146 -0.02 0.0416638 -0.0179478 0.554857
5 0.0507211 0.04 0.116372 -0.0838255 0.440227
5 0.0507211 -0.04 -0.0612075 -0.072364 0.626997
5 0.0248981 0.06 0.135416 -0.0373513 0.19336
5 0.0248981 -0.06 -0.293636 -0.0726219 0.264066
5 0.0651106 0 0.121024 -0.0191086 0.50628
5 0.0422521 0.05 0.0834498 -0.0826173 0.392603
5 0.0422521 -0.05 -0.147768 -0.109259 0.624227
5 0.0279244 0.06 0.12292 -0.0476504 0.232103
5 0.0279244 -0.06 -0.286268 -0.0818509 0.348458
5 0.0595998 0.03 0.15494 -0.0741806 0.473939
5 0.0595998 -0.03 0.00166892 -0.0305844 0.591381
5 0.054221 0.04 0.137341 -0.0930643 0.459562
5 0.054221 -0.04 -0.0388786 -0.058997 0.632852
5 0.0310063 0.06 0.102539 -0.0590582 0.279029
5 0.0310063 -0.06 -0.270553 -0.0880301 0.432223
5 0.0455967 0.05 0.102127 -0.0962145 0.420614
5 0.0455967 -0.05 -0.116827 -0.0999332 0.650656
5 0.0669925 0.01 0.160551 -0.0320968 0.494368
5 0.0669925 -0.01 0.105655 -0.00692954 0.523368
5 0.0651106 0.02 0.168952 -0.0569071 0.492443
5 0.0651106 -0.02 0.0645779 -0.010606 0.553497
5 0.0688745 0 0.146493 -0.0203377 0.510672
5 0.0341446 0.06 0.0890803 -0.0714954 0.32582
5 0.0341446 -0.06 -0.245777 -0.0912828 0.509152
5 0.0490026 0.05 0.12238 -0.108671 0.443642
5 0.0490026 -0.05 -0.0875992 -0.0882775 0.667476
5 0.00128482 0.07 -0.0523704 -0.000835944 0.0379626
5 0.00128482 -0.07 -0.0641193 0.00560188 -0.074375
5 0.0632626 0.03 0.177124 -0.0808397 0.488515
5 0.0632626 -0.03 0.0237599 -0.0185063 0.587684
5 0.00387803 0.07 -0.0666368 -0.00282049 0.0860404
5 0.00387803 -0.07 -0.0939721 0.0139703 -0.102377
5 0.0577851 0.04 0.15876 -0.100844 0.47665
5 0.0577851 -0.04 -0.0172936 -0.0450048 0.633061
5 0.00651881 0.07 -0.0594522 -0.00590894 0.135817
5 0.00651881 -0.07 -0.118644 0.0237942 -0.100725
5 0.00920802 0.07 -0.0373339 -0.00928414 0.177018
5 0.00920802 -0.07 -0.150611 0.0279131 -0.0812469
5 0.0373405 0.06 0.0885922 -0.0848332 0.367371
5 0.0373405 -0.06 -0.212708 -0.091928 0.575214
5 0.0119465 0.07 -0.00289188 -0.0131036 0.199443
5 0.0119465 -0.07 -0.191516 0.0258089 -0.0528688
5 0.0707909 -0.01 0.13191 -0.0057305 0.522264
5 0.0707909 0.01 0.187865 -0.0365945 0.502689
5 0.0147353 0.07 0.0430923 -0.0177938 0.198994
5 0.0147353 -0.07 -0.240336 0.0174682 -0.0165395
5 0.0688745 -0.02 0.0893605 -0.00443399 0.549323
5 0.0688745 0.02 0.194958 -0.0616038 0.503409
5 0.0175752 0.07 0.0952274 -0.0239345 0.186594
5 0.0175752 -0.07 -0.288166 0.00433061 0.0289754
5 0.040595 0.06 0.0988125 -0.0985794 0.401737
5 0.040595 -0.06 -0.174604 -0.0902663 0.628366
5 0.052471 0.05 0.142989 -0.119368 0.463056
5 0.052471 -0.05 -0.0608646 -0.0753962 0.676133
5 0.0727073 0 0.174666 -0.0222234 0.513741
5 0.0204672 0.07 0.140211 -0.0322562 0.182584
5 0.0204672 -0.07 -0.319278 -0.0110875 0.0905709
5 0.0614146 0.04 0.180222 -0.107067 0.491944
5 0.0614146 -0.04 0.00395062 -0.0308969 0.628129
5 0.0669925 0.03 0.201797 -0.0868359 0.501693
5 0.0669925 -0.03 0.0473507 -0.00743561 0.580748
5 0.0234122 0.07 0.161752 -0.0432248 0.200797
5 0.0234122 -0.07 -0.329025 -0.0258612 0.172433
5 0.0439092 0.06 0.114674 -0.111968 0.429343
5 0.0439092 -0.06 -0.135413 -0.0863684 0.668093
5 0.0264113 0.07 0.154483 -0.0563872 0.239657
5 0.0264113 -0.07 -0.325513 -0.0386699 0.269366
5 0.056003 0.05 0.163594 -0.128016 0.480119
5 0.056003 -0.05 -0.0367705 -0.060858 0.677527
5 0.0746589 -0.01 0.160474 -0.00575865 0.51967
5 0.0746589 0.01 0.218424 -0.0408106 0.510343
5 0.0727073 -0.02 0.116152 0.000300643 0.542866
5 0.0727073 0.02 0.224178 -0.0652192 0.513727
5 0.0294653 0.07 0.131403 -0.070704 0.288233
5 0.0294653 -0.07 -0.312966 -0.0490548 0.370521
5 0.0472842 0.06 0.13238 -0.124213 0.45161
5 0.0472842 -0.06 -0.0981501 -0.0802169 0.695064
5 0.0651106 -0.04 0.0254112 -0.017117 0.618899
5 0.0651106 0.04 0.202679 -0.111748 0.505554
5 0.0766105 0 0.206227 -0.0242417 0.515771
5 0.0707909 -0.03 0.0725343 0.00236147 0.570912
5 0.0707909 0.03 0.229629 -0.0908896 0.514889
5 0.0325754 0.07 0.111801 -0.0853844 0.336925
5 0.0325754 -0.07 -0.289869 -0.057103 0.466747
5 0.0595998 0.05 0.184059 -0.134501 0.495669
5 0.0595998 -0.05 -0.0149687 -0.0452779 0.672255
5 0.0507211 0.06 0.150217 -0.134668 0.470043
5 0.0507211 -0.06 -0.0645658 -0.0718081 0.710813
5 0.0357425 0.07 0.10633 -0.100106 0.379849
5 0.0357425 -0.07 -0.254591 -0.0630293 0.552158
5 0.0766105 -0.02 0.145404 0.00376191 0.534766
5 0.0766105 0.02 0.257036 -0.0673112 0.522476
5 0.0785979 -0.01 0.192449 -0.00605678 0.516354
5 0.0785979 0.01 0.253574 -0.0443416 0.516716
5 0.0688745 -0.04 0.0475419 -0.00415034 0.606312
5 0.0688745 0.04 0.227398 -0.114452 0.518263
5 0 0.08 0 0 0
5 0 -0.08 0 0 0
5 0.00256965 0.08 -0.0562341 -0.00256145 0.0704871
5 0.00256965 -0.08 -0.123659 0.00913114 -0.0674089
5 0.0389677 0.07 0.113979 -0.114576 0.414559
5 0.0389677 -0.07 -0.20999 -0.0668959 0.623384
5 0.00518642 0.08 -0.0582367 -0.00585699 0.120598
5 0.00518642 -0.08 -0.165254 0.0185176 -0.0801852
5 0.00785119 0.08 -0.041137 -0.0098734 0.166838
5 0.00785119 -0.08 -0.197502 0.0271837 -0.0763615
5 0.0746589 -0.03 0.0997001 0.0103316 0.558618
5 0.0746589 0.03 0.260805 -0.0925829 0.52699
5 0.0805853 0 0.2424 -0.0257429 0.516482
5 0.0632626 0.05 0.204771 -0.13875 0.509657
5 0.0632626 -0.05 0.00534872 -0.0292147 0.661193
5 0.0105648 0.08 -0.00977028 -0.0143442 0.200619
5 0.0105648 -0.08 -0.228527 0.0315508 -0.0625508
5 0.054221 0.06 0.167763 -0.142931 0.485926
5 0.054221 -0.06 -0.0354068 -0.0613173 0.716944
5 0.0133283 0.08 0.0329238 -0.0196014 0.215896
5 0.0133283 -0.08 -0.261297 0.0309387 -0.0407532
5 0.0161424 0.08 0.0831575 -0.0262046 0.215462
5 0.0161424 -0.08 -0.29347 0.0257342 -0.00789894
5 0.0422521 0.07 0.128463 -0.128322 0.441545
5 0.0422521 -0.07 -0.16186 -0.068528 0.678921
5 0.0190081 0.08 0.13212 -0.0347271 0.213036
5 0.0190081 -0.08 -0.317953 0.0175273 0.0425189
5 0.0219263 0.08 0.166519 -0.0454811 0.224216
5 0.0219263 -0.08 -0.330336 0.00832373 0.115288
5 0.0727073 -0.04 0.0709436 0.00749715 0.590982
5 0.0727073 0.04 0.254595 -0.114612 0.529928
5 0.0805853 -0.02 0.177988 0.00603176 0.525485
5 0.0805853 0.02 0.293873 -0.0671608 0.528412
5 0.0826091 -0.01 0.229377 -0.00708858 0.512217
5 0.0826091 0.01 0.294215 -0.0454851 0.520641
5 0.0577851 0.06 0.185077 -0.148907 0.500134
5 0.0577851 -0.06 -0.0106565 -0.0490358 0.714251
5 0.0455967 0.07 0.144661 -0.14072 0.462617
5 0.0455967 -0.07 -0.115186 -0.0677518 0.718576
5 0.0669925 -0.05 0.0251921 -0.0133071 0.645966
5 0.0669925 0.05 0.227031 -0.140567 0.522353
5 0.0248981 0.08 0.176705 -0.0582446 0.254727
5 0.0248981 -0.08 -0.332262 -0.000381337 0.207473
5 0.0785979 -0.03 0.129002 0.0165325 0.544421
5 0.0785979 0.03 0.295354 -0.0915103 0.535859
5 0.0846329 0 0.284036 -0.0261371 0.515008
5 0.0279244 0.08 0.165802 -0.0722874 0.298561
5 0.0279244 -0.08 -0.325507 -0.00795264 0.310025
5 0.0490026 0.07 0.160356 -0.15125 0.479573
5 0.0490026 -0.07 -0.0729797 -0.0649034 0.743555
5 0.0310063 0.08 0.147969 -0.0867557 0.345717
5 0.0310063 -0.08 -0.308142 -0.0144052 0.413289
5 0.0614146 -0.06 0.0103812 -0.0352417 0.703672
5 0.0614146 0.06 0.202461 -0.152577 0.512959
5 0.0766105 -0.04 0.0962214 0.0174265 0.573412
5 0.0766105 0.04 0.28405 -0.112028 0.539159
5 0.0707909 -0.05 0.0450979 0.00178387 0.62762
5 0.0707909 0.05 0.251143 -0.139516 0.53412
5 0.0846329 -0.02 0.215166 0.00721088 0.514892
5 0.0846329 0.02 0.334047 -0.0644008 0.531086
5 0.0341446 0.08 0.136875 -0.101042 0.388709
5 0.0341446 -0.08 -0.277198 -0.0200511 0.509975
5 0.0866939 -0.01 0.272746 -0.00774688 0.506157
5 0.0866939 0.01 0.339822 -0.0442277 0.521015
5 0.052471 0.07 0.17515 -0.159385 0.493904
5 0.052471 -0.07 -0.0368113 -0.0586529 0.756091
5 0.0826091 -0.03 0.161135 0.0207405 0.528946
5 0.0826091 0.03 0.332363 -0.0873055 0.540432
5 0.0373405 0.08 0.137347 -0.114811 0.423871
5 0.0373405 -0.08 -0.233262 -0.0250937 0.595096
5 0.0651106 -0.06 0.0289161 -0.0205132 0.686781
5 0.0651106 0.06 0.220557 -0.15381 0.52447
5 0.0887548 0 0.330949 -0.0250582 0.51068
5 0.056003 0.07 0.189325 -0.164958 0.50663
5 0.056003 -0.07 -0.00717349 -0.050359 0.758027
5 0.040595 0.08 0.146338 -0.127786 0.450821
5 0.040595 -0.08 -0.181559 -0.0293798 0.665402
5 0.0746589 -0.05 0.06645 0.0155153 0.606772
5 0.0746589 0.05 0.276813 -0.135457 0.543717
5 0.0805853 -0.04 0.123809 0.0253589 0.554114
5 0.0805853 0.04 0.315044 -0.106703 0.545114
5 0.00128482 0.09 -0.0470757 -0.00152739 0.0531358
5 0.00128482 -0.09 -0.134068 0.0044574 -0.0373546
5 0.00387803 0.09 -0.0588554 -0.00506238 0.104817
5 0.00387803 -0.09 -0.202484 0.0124963 -0.0555327
5 0.00651881 0.09 -0.0480009 -0.00963677 0.155726
5 0.00651881 -0.09 -0.245922 0.0238112 -0.0621071
5 0.00920802 0.09 -0.019757 -0.0146644 0.198798
5 0.00920802 -0.09 -0.274836 0.0332173 -0.0613654
5 0.0119465 0.09 0.020908 -0.0203254 0.227219
5 0.0119465 -0.09 -0.297152 0.0392643 -0.0547191
5 0.0887548 -0.02 0.258356 0.00794332 0.50249
5 0.0887548 0.02 0.37566 -0.0595147 0.530715
5 0.0147353 0.09 0.0705952 -0.0271839 0.237927
5 0.0147353 -0.09 -0.316189 0.0412128 -0.0388808
5 0.0439092 0.08 0.158666 -0.139575 0.47119
5 0.0439092 -0.08 -0.128724 -0.0324541 0.719074
5 0.0688745 -0.06 0.0462789 -0.00558424 0.665358
5 0.0688745 0.06 0.239863 -0.152467 0.534848
5 0.0908536 -0.01 0.323238 -0.00734943 0.497544
5 0.0908536 0.01 0.388011 -0.0409082 0.518
5 0.0175752 0.09 0.123725 -0.0359074 0.238332
5 0.0175752 -0.09 -0.329193 0.0399239 -0.00514371
5 0.0866939 -0.03 0.19742 0.0229388 0.512245
5 0.0866939 0.03 0.369804 -0.0805833 0.542258
5 0.0595998 0.07 0.203337 -0.168154 0.518123
5 0.0595998 -0.07 0.0162931 -0.0396444 0.749193
5 0.0204672 0.09 0.169324 -0.0468122 0.244635
5 0.0204672 -0.09 -0.335178 0.0369403 0.0556845
5 0.0472842 0.08 0.171013 -0.149704 0.487061
5 0.0472842 -0.08 -0.0796522 -0.0339302 0.75564
5 0.0929523 0 0.381061 -0.0227038 0.503823
5 0.0234122 0.09 0.194792 -0.0596334 0.268851
5 0.0234122 -0.09 -0.337866 0.0333015 0.142481
5 0.0785979 -0.05 0.0897422 0.0273297 0.583833
5 0.0785979 0.05 0.303239 -0.128559 0.550074
5 0.0846329 -0.04 0.154447 0.0310334 0.533432
5 0.0846329 0.04 0.34621 -0.0990546 0.5483
5 0.0264113 0.09 0.195792 -0.0737357 0.30961
5 0.0264113 -0.09 -0.336642 0.0297026 0.245632
5 0.0727073 -0.06 0.0636218 0.00883924 0.640918
5 0.0727073 0.06 0.260282 -0.148486 0.543861
5 0.0632626 -0.07 0.0348576 -0.0268256 0.732042
5 0.0632626 0.07 0.217682 -0.168903 0.528391
5 0.0294653 0.09 0.181525 -0.0883255 0.356755
5 0.0294653 -0.09 -0.326904 0.0262101 0.354603
5 0.0507211 0.08 0.182335 -0.157817 0.500104
5 0.0507211 -0.08 -0.0369776 -0.0332078 0.776718
5 0.0929523 -0.02 0.308339 0.00870956 0.488207
5 0.0929523 0.02 0.415663 -0.0533602 0.527929
5 0.0950896 -0.01 0.378808 -0.00606372 0.486924
5 0.0950896 0.01 0.434207 -0.0364929 0.512821
5 0.0908536 -0.03 0.240037 0.0239311 0.49401
5 0.0908536 0.03 0.405019 -0.0723375 0.541586
5 0.0325754 0.09 0.167144 -0.102612 0.400964
5 0.0325754 -0.09 -0.302824 0.0223254 0.461306
5 0.0826091 -0.05 0.115365 0.0368354 0.559251
5 0.0826091 0.05 0.329229 -0.119436 0.554094
5 0.054221 0.08 0.192769 -0.163733 0.511444
5 0.054221 -0.08 -0.00180472 -0.0300997 0.784975
5 0.0357425 0.09 0.162222 -0.116067 0.437107
5 0.0357425 -0.09 -0.2615 0.0176013 0.559709
5 0.0669925 -0.07 0.0502715 -0.0127008 0.707918
5 0.0669925 0.07 0.232749 -0.167021 0.537481
5 0.0972268 0 0.430326 -0.0199072 0.495675
5 0.0766105 -0.06 0.0819836 0.0221308 0.614284
5 0.0766105 0.06 0.281305 -0.142032 0.550837
5 0.0887548 -0.04 0.189381 0.0345148 0.511303
5 0.0887548 0.04 0.375787 -0.0898913 0.549375
5 0.0389677 0.09 0.16686 -0.128499 0.463978
5 0.0389677 -0.09 -0.206954 0.0119481 0.645152
5 0.0577851 -0.08 0.0258833 -0.0247697 0.781625
5 0.0577851 0.08 0.202804 -0.167447 0.521656
5 0.0972268 -0.02 0.363801 0.0094146 0.47291
5 0.0972268 0.02 0.450914 -0.0470314 0.523816
5 0.0422521 0.09 0.176052 -0.139753 0.483207
5 0.0422521 -0.09 -0.147418 0.00595586 0.714165
5 0.0707909 -0.07 0.0645598 0.00189184 0.679922
5 0.0707909 0.07 0.248537 -0.162765 0.545439
5 0.0950896 -0.03 0.291294 0.0243207 0.474345
5 0.0950896 0.03 0.435432 -0.0636995 0.539308
5 0.0994033 -0.01 0.434215 -0.00478188 0.475931
5 0.0994033 0.01 0.474093 -0.0322893 0.507021
5 0 0.1 0 0 0
5 0 -0.1 0 0 0
5 0.00256965 0.1 -0.0551046 -0.00335385 0.0908116
5 0.00256965 -0.1 -0.183805 0.00905537 -0.0333869
5 0.0866939 -0.05 0.143881 0.0436207 0.533277
5 0.0866939 0.05 0.353456 -0.10889 0.556418
5 0.00518642 0.1 -0.0567036 -0.00728966 0.144236
5 0.00518642 -0.1 -0.24585 0.0191082 -0.0460342
5 0.00785119 0.1 -0.0373097 -0.0119106 0.193286
5 0.00785119 -0.1 -0.28606 0.0302386 -0.0515177
5 0.0805853 -0.06 0.102242 0.0337398 0.586076
5 0.0805853 0.06 0.302175 -0.133589 0.555725
5 0.0105648 0.1 -0.00194226 -0.017053 0.232266
5 0.0105648 -0.1 -0.309953 0.0393745 -0.0496638
5 0.0614146 -0.08 0.0470666 -0.0172302 0.767502
5 0.0614146 0.08 0.212964 -0.168968 0.530897
5 0.0133283 0.1 0.0440051 -0.0231863 0.256771
5 0.0133283 -0.1 -0.323218 0.0459396 -0.0374006
5 0.0455967 0.09 0.185492 -0.149509 0.497397
5 0.0455967 -0.09 -0.0904178 0.000506896 0.764647
5 0.0929523 -0.04 0.230578 0.0361732 0.48755
5 0.0929523 0.04 0.402107 -0.0801366 0.548724
5 0.0161424 0.1 0.0952814 -0.030933 0.267615
5 0.0161424 -0.1 -0.330392 0.0502398 -0.00828183
5 0.10158 0 0.474036 -0.0177994 0.487904
5 0.0190081 0.1 0.144694 -0.040649 0.273737
5 0.0190081 -0.1 -0.333857 0.0532294 0.0438115
5 0.0746589 -0.07 0.0783854 0.0161706 0.649349
5 0.0746589 0.07 0.264642 -0.156203 0.55217
5 0.0219263 0.1 0.182943 -0.0520583 0.287719
5 0.0219263 -0.1 -0.335374 0.0556948 0.119364
5 0.0490026 0.09 0.193546 -0.157339 0.508659
5 0.0490026 -0.09 -0.0400137 -0.0035727 0.795791
5 0.0248981 0.1 0.202975 -0.0644277 0.316375
5 0.0248981 -0.1 -0.334262 0.0578455 0.212782
5 0.0651106 -0.08 0.063376 -0.00789763 0.744115
5 0.0651106 0.08 0.223602 -0.168296 0.539195
5 0.10158 -0.02 0.420321 0.00933178 0.458528
5 0.10158 0.02 0.479559 -0.0414759 0.519375
5 0.0908536 -0.05 0.176201 0.0475695 0.505671
5 0.0908536 0.05 0.37488 -0.0977503 0.557237
5 0.0846329 -0.06 0.125017 0.0431212 0.556696
5 0.0846329 0.06 0.32205 -0.123787 0.558998
5 0.0279244 0.1 0.205405 -0.0770536 0.356624
5 0.0279244 -0.1 -0.326042 0.0593666 0.315996
5 0.0994033 -0.03 0.350912 0.0241836 0.454435
5 0.0994033 0.03 0.459939 -0.0556413 0.536112
5 0.052471 0.09 0.200291 -0.163296 0.518284
5 0.052471 -0.09 0.00190462 -0.00570162 0.811438
5 0.103796 -0.01 0.482733 -0.00481976 0.466775
5 0.103796 0.01 0.50512 -0.029306 0.501885
5 0.0310063 0.1 0.198544 -0.0894637 0.399989
5 0.0310063 -0.1 -0.304185 0.0595653 0.421398
5 0.0972268 -0.04 0.280222 0.0363527 0.462636
5 0.0972268 0.04 0.424236 -0.0706271 0.546821
5 0.0785979 -0.07 0.0933634 0.0295117 0.61717
5 0.0785979 0.07 0.280532 -0.147907 0.557387
5 0.0688745 -0.08 0.0767525 0.00269427 0.714037
5 0.0688745 0.08 0.23486 -0.165544 0.546597
5 0.0341446 0.1 0.192166 -0.101385 0.43883
5 0.0341446 -0.1 -0.265024 0.0577533 0.522384
5 0.056003 0.09 0.206314 -0.167295 0.52696
5 0.056003 -0.09 0.03487 -0.00568394 0.814342
5 0.106012 0 0.508775 -0.0172825 0.482022
5 0.0373405 0.1 0.191298 -0.112719 0.469127
5 0.0373405 -0.1 -0.211274 0.0536595 0.613188
5 0.0887548 -0.06 0.150863 0.0497915 0.526107
5 0.0887548 0.06 0.340222 -0.113278 0.560901
5 0.0950896 -0.05 0.214797 0.0488719 0.476163
5 0.0950896 0.05 0.393107 -0.0867552 0.556766
5 0.106012 -0.02 0.471309 0.0073861 0.44756
5 0.106012 0.02 0.501506 -0.0371841 0.515285
5 0.040595 0.1 0.195223 -0.123429 0.490515
5 0.040595 -0.1 -0.150226 0.0476407 0.689335
5 0.0595998 -0.09 0.0595506 -0.00338976 0.804937
5 0.0595998 0.09 0.212245 -0.169383 0.534914
5 0.103796 -0.03 0.413449 0.0227449 0.436964
5 0.103796 0.03 0.479094 -0.0486647 0.532482
5 0.0727073 -0.08 0.0888695 0.0139353 0.680092
5 0.0727073 0.08 0.246643 -0.160892 0.553108
5 0.0826091 -0.07 0.110507 0.0412861 0.584041
5 0.0826091 0.07 0.295708 -0.138452 0.561344
5 0.108269 -0.01 0.519635 -0.00710067 0.461287
5 0.108269 0.01 0.527625 -0.0279037 0.49814
5 0.10158 -0.04 0.338504 0.0350698 0.438431
5 0.10158 0.04 0.442255 -0.0619274 0.543999
5 0.0439092 0.1 0.200774 -0.133334 0.504982
5 0.0439092 -0.1 -0.0899159 0.0405806 0.748123
5 0.00128482 0.11 -0.0500034 -0.00174931 0.0743105
5 0.00128482 -0.11 -0.159028 0.00544075 -0.0129737
5 0.0632626 -0.09 0.0775705 0.000941381 0.783829
5 0.0632626 0.09 0.218596 -0.169433 0.542162
5 0.00387803 0.11 -0.0644858 -0.00507685 0.130991
5 0.00387803 -0.11 -0.23965 0.0138283 -0.0276889
5 0.00651881 0.11 -0.0554706 -0.00938334 0.185417
5 0.00651881 -0.11 -0.295354 0.0262987 -0.0388095
5 0.00920802 0.11 -0.0260057 -0.0139586 0.233211
5 0.00920802 -0.11 -0.328134 0.0376289 -0.0437891
5 0.110526 0 0.534016 -0.0186044 0.47892
5 0.0472842 0.1 0.205624 -0.142072 0.51516
5 0.0472842 -0.1 -0.0359996 0.0335744 0.788512
5 0.0929523 -0.06 0.180901 0.0534676 0.493859
5 0.0929523 0.06 0.356342 -0.102664 0.561527
5 0.0119465 0.11 0.0170928 -0.0192644 0.269842
5 0.0119465 -0.11 -0.339693 0.0473886 -0.0387807
5 0.0766105 -0.08 0.101142 0.0251449 0.644033
5 0.0766105 0.08 0.258627 -0.154678 0.558614
5 0.0147353 0.11 0.0674331 -0.0259727 0.292096
5 0.0147353 -0.11 -0.33984 0.0558936 -0.0172187
5 0.0994033 -0.05 0.263906 0.0480344 0.445589
5 0.0994033 0.05 0.408472 -0.0764087 0.555096
5 0.0175752 0.11 0.119382 -0.0346695 0.302106
5 0.0175752 -0.11 -0.336348 0.0639297 0.028123
5 0.0866939 -0.07 0.130323 0.0507457 0.550204
5 0.0866939 0.07 0.309814 -0.128365 0.564138
5 0.0204672 0.11 0.166355 -0.0452091 0.309874
5 0.0204672 -0.11 -0.334709 0.0721241 0.0965944
5 0.0507211 0.1 0.209182 -0.149313 0.523175
5 0.0507211 -0.1 0.0089875 0.0276267 0.811811
5 0.0669925 -0.09 0.0908089 0.00699765 0.752664
5 0.0669925 0.09 0.225383 -0.167825 0.548746
5 0.110526 -0.02 0.511282 0.00284383 0.442126
5 0.110526 0.02 0.518088 -0.0341816 0.511826
5 0.108269 -0.03 0.469442 0.0187185 0.425209
5 0.108269 0.03 0.494192 -0.0428605 0.528631
5 0.0234122 0.11 0.201305 -0.0565807 0.327518
5 0.0234122 -0.11 -0.333744 0.0804137 0.182713
5 0.0264113 0.11 0.220012 -0.0677635 0.359527
5 0.0264113 -0.11 -0.328796 0.0879644 0.280322
5 0.112825 -0.01 0.54488 -0.0115982 0.460307
5 0.112825 0.01 0.543934 -0.0278162 0.495946
5 0.106012 -0.04 0.400772 0.0317582 0.4183
5 0.106012 0.04 0.456918 -0.0542777 0.540464
5 0.0805853 -0.08 0.114852 0.0356833 0.60703
5 0.0805853 0.08 0.270483 -0.147318 0.563055
5 0.054221 0.1 0.211899 -0.154877 0.530295
5 0.054221 -0.1 0.0444045 0.0233205 0.82065
5 0.0294653 0.11 0.22429 -0.0783921 0.400613
5 0.0294653 -0.11 -0.311825 0.0935895 0.383447
5 0.0972268 -0.06 0.217986 0.0541179 0.459822
5 0.0972268 0.06 0.370476 -0.0924201 0.560993
5 0.0707909 -0.09 0.101374 0.014592 0.715633
5 0.0707909 0.09 0.232775 -0.164564 0.554722
5 0.0908536 -0.07 0.153059 0.0572322 0.515265
5 0.0908536 0.07 0.322746 -0.118101 0.565813
5 0.0325754 0.11 0.221214 -0.0885279 0.441633
5 0.0325754 -0.11 -0.275181 0.096136 0.486258
5 0.115123 0 0.551788 -0.021321 0.478782
5 0.103796 -0.05 0.325774 0.0453156 0.416725
5 0.103796 0.05 0.421522 -0.0669912 0.552307
5 0.0577851 -0.1 0.0707742 0.0207967 0.816609
5 0.0577851 0.1 0.214445 -0.158663 0.537041
5 0.0357425 0.11 0.218085 -0.0983336 0.475623
5 0.0357425 -0.11 -0.22058 0.0949499 0.582285
5 0.0846329 -0.08 0.130728 0.0448722 0.569615
5 0.0846329 0.08 0.281977 -0.139215 0.566466
5 0.0389677 0.11 0.218025 -0.107981 0.499808
5 0.0389677 -0.11 -0.156046 0.0901373 0.665626
5 0.112825 -0.03 0.511186 0.0113529 0.421699
5 0.112825 0.03 0.506608 -0.0381452 0.524584
5 0.115123 -0.02 0.53894 -0.0040755 0.443177
5 0.115123 0.02 0.531025 -0.0321611 0.509029
5 0.0746589 -0.09 0.111163 0.0230907 0.675453
5 0.0746589 0.09 0.240623 -0.160034 0.560103
5 0.0614146 -0.1 0.0895236 0.0199817 0.800308