# UMean  POINT_DATA 90431
# x  y  z  UMean_x  UMean_y  UMean_z
5 0 0 0 0 0
5 0.00256965 0 -0.0480618 0.000262696 0.0204445
5 0.00518642 0 -0.0636578 0.0003402 0.0298835
5 0.00785119 0 -0.0724256 0.000326351 0.0383308
5 0.00128482 0.01 -0.0397623 0.000216036 0.013505
5 0.00128482 -0.01 -0.0369905 0.000214378 0.017613
5 0.0105648 0 -0.0760184 0.000138737 0.0455374
5 0.00387803 0.01 -0.0599364 0.000265797 0.0230045
5 0.00387803 -0.01 -0.0555608 0.000354589 0.0276572
5 0.00651881 0.01 -0.0724346 0.000310722 0.0322136
5 0.00651881 -0.01 -0.0667014 0.000429702 0.0366599
5 0.0133283 0 -0.0761733 -0.000227939 0.0518338
5 0.00920802 0.01 -0.0787162 0.000225401 0.0404715
5 0.00920802 -0.01 -0.0718512 0.000339565 0.0439792
5 0.0119465 0.01 -0.0805966 -3.43931e-05 0.0476929
5 0.0119465 -0.01 -0.0729099 2.43274e-05 0.0500072
5 0.0161424 0 -0.0742424 -0.000744251 0.0576032
5 0.0147353 0.01 -0.0797116 -0.000427183 0.0542115
5 0.0147353 -0.01 -0.0714748 -0.000474585 0.0554245
5 0.0190081 0 -0.0710742 -0.00137453 0.0630406
5 0 0.02 0 0 0
5 0 -0.02 0 0 0
5 0.00256965 0.02 -0.0516394 4.13003e-05 0.0173286
5 0.00256965 -0.02 -0.0453895 2.8471e-05 0.0243529
5 0.0175752 0.01 -0.0772178 -0.000942993 0.0602432
5 0.0175752 -0.01 -0.0685648 -0.00113235 0.0605346
5 0.00518642 0.02 -0.0687305 -0.000111419 0.0267624
5 0.00518642 -0.02 -0.0596523 -0.000131846 0.034064
5 0.00785119 0.02 -0.0786431 -0.000332978 0.0355757
5 0.00785119 -0.02 -0.067118 -0.000449198 0.0421094
5 0.0219263 0 -0.0671012 -0.00207367 0.0682687
5 0.0105648 0.02 -0.0829801 -0.000650688 0.0433383
5 0.0105648 -0.02 -0.0694622 -0.000899737 0.0485061
5 0.0204672 0.01 -0.073757 -0.00152045 0.0659017
5 0.0204672 -0.01 -0.0647563 -0.00190244 0.0654838
5 0.0133283 0.02 -0.0835255 -0.00105801 0.0501707
5 0.0133283 -0.02 -0.0685208 -0.00148414 0.0538815
5 0.0248981 0 -0.06248 -0.00278438 0.0734055
5 0.0234122 0.01 -0.0696058 -0.0021481 0.0713057
5 0.0234122 -0.01 -0.0602846 -0.00272383 0.0703846
5 0.0161424 0.02 -0.081778 -0.00152584 0.0563412
5 0.0161424 -0.02 -0.0656901 -0.00217786 0.0588146
5 0.0190081 0.02 -0.0787231 -0.0020278 0.0620202
5 0.0190081 -0.02 -0.0617986 -0.00295091 0.0636199
5 0.0279244 0 -0.0572375 -0.00344099 0.0785766
5 0.0264113 0.01 -0.0648356 -0.00273776 0.0765592
5 0.0264113 -0.01 -0.0551929 -0.00352798 0.0753737
5 0.0219263 0.02 -0.0748896 -0.00254108 0.0673253
5 0.0219263 -0.02 -0.057238 -0.0037512 0.0684565
5 0.00128482 0.03 -0.0424923 -1.00471e-05 0.0116063
5 0.00128482 -0.03 -0.0357816 -9.61721e-05 0.0206706
5 0.00387803 0.03 -0.06437 -0.000306603 0.0212002
5 0.00387803 -0.03 -0.0532278 -0.000358921 0.0314723
5 0.00651881 0.03 -0.0781831 -0.000715621 0.0306327
5 0.00651881 -0.03 -0.063121 -0.000952796 0.040468
5 0.0310063 0 -0.0513815 -0.00399542 0.0838969
5 0.0294653 0.01 -0.0594536 -0.0032547 0.0817999
5 0.0294653 -0.01 -0.0494665 -0.00424366 0.0805746
5 0.00920802 0.03 -0.0852397 -0.00115246 0.0389865
5 0.00920802 -0.03 -0.066799 -0.00161332 0.0473315
5 0.0248981 0.02 -0.0705015 -0.00304005 0.0723798
5 0.0248981 -0.02 -0.0521166 -0.00451702 0.0734403
5 0.0119465 0.03 -0.0873684 -0.00164137 0.0462034
5 0.0119465 -0.03 -0.0662887 -0.00234961 0.0527076
5 0.0147353 0.03 -0.0864253 -0.00212918 0.0525764
5 0.0147353 -0.03 -0.0634093 -0.00313681 0.0573875
5 0.0325754 0.01 -0.0535148 -0.00365088 0.0871525
5 0.0325754 -0.01 -0.0430896 -0.00483256 0.0860619
5 0.0341446 0 -0.0449773 -0.00441333 0.0894265
5 0.0279244 0.02 -0.0656178 -0.00348901 0.0773328
5 0.0279244 -0.02 -0.0463999 -0.00518813 0.0786803
5 0.0175752 0.03 -0.0837569 -0.00260411 0.0583348
5 0.0175752 -0.03 -0.0593109 -0.00396784 0.0619128
5 0.0204672 0.03 -0.0801601 -0.00304375 0.0636022
5 0.0204672 -0.03 -0.0545617 -0.00480115 0.0665494
5 0.0310063 0.02 -0.0602593 -0.00386116 0.0823431
5 0.0310063 -0.02 -0.0400257 -0.00572387 0.0842452
5 0.0357425 0.01 -0.0471797 -0.00390007 0.0926419
5 0.0357425 -0.01 -0.0361234 -0.00526989 0.091851
5 0.0373405 0 -0.038161 -0.00468615 0.0951544
5 0.0234122 0.03 -0.0760347 -0.00345213 0.0684928
5 0.0234122 -0.03 -0.0493484 -0.00557752 0.071409
5 0.0341446 0.02 -0.0545007 -0.00413258 0.0875291
5 0.0341446 -0.02 -0.0329959 -0.00610974 0.0901448
5 0.0264113 0.03 -0.0715289 -0.00382228 0.0731625
5 0.0264113 -0.03 -0.0436393 -0.00623891 0.0765947
5 0 0.04 0 0 0
5 0 -0.04 0 0 0
5 0.00256965 0.04 -0.0548081 -0.000124361 0.0166395
5 0.00256965 -0.04 -0.043527 -0.000489578 0.0248835
5 0.0389677 0.01 -0.0406321 -0.00401137 0.0982341
5 0.0389677 -0.01 -0.0287072 -0.00556331 0.097892
5 0.00518642 0.04 -0.0732513 -0.00043215 0.0262318
5 0.00518642 -0.04 -0.05655 -0.0012435 0.034677
5 0.040595 0 -0.031077 -0.00484377 0.101033
5 0.00785119 0.04 -0.0840486 -0.000805075 0.0350902
5 0.00785119 -0.04 -0.0626144 -0.00222259 0.0427776
5 0.0105648 0.04 -0.0888036 -0.00122825 0.0427715
5 0.0105648 -0.04 -0.0634456 -0.00321967 0.0492271
5 0.0294653 0.03 -0.0666522 -0.00414138 0.0778105
5 0.0294653 -0.03 -0.0372996 -0.00674211 0.0821792
5 0.0133283 0.04 -0.0894547 -0.001687 0.0493611
5 0.0133283 -0.04 -0.0610041 -0.00419518 0.0546541
5 0.0373405 0.02 -0.0484816 -0.00429317 0.0929469
5 0.0373405 -0.02 -0.0254103 -0.00635763 0.0963354
5 0.0161424 0.04 -0.0876962 -0.00214702 0.0551447
5 0.0161424 -0.04 -0.0567817 -0.00512706 0.0596775
5 0.0422521 0.01 -0.0339632 -0.00403347 0.103906
5 0.0422521 -0.01 -0.0210036 -0.00576696 0.104103
5 0.0439092 0 -0.0238185 -0.00493717 0.107009
5 0.0325754 0.03 -0.0614153 -0.00439775 0.0826108
5 0.0325754 -0.03 -0.0302458 -0.00707727 0.0881664
5 0.0190081 0.04 -0.0846554 -0.00259166 0.0603664
5 0.0190081 -0.04 -0.0516262 -0.00600353 0.0646826
5 0.040595 0.02 -0.042334 -0.00436225 0.0986013
5 0.040595 -0.02 -0.0174335 -0.00650755 0.102747
5 0.0219263 0.04 -0.0809479 -0.0030197 0.0652016
5 0.0219263 -0.04 -0.0459098 -0.00678504 0.0698787
5 0.0357425 0.03 -0.0558915 -0.00458166 0.0877126
5 0.0357425 -0.03 -0.0225233 -0.00725932 0.0945014
5 0.0455967 0.01 -0.0271536 -0.00403288 0.109633
5 0.0455967 -0.01 -0.0131518 -0.00591537 0.110398
5 0.0248981 0.04 -0.0768612 -0.0034425 0.0697942
5 0.0248981 -0.04 -0.0397252 -0.00742295 0.0753822
5 0.0472842 0 -0.0164335 -0.00502503 0.113013
5 0.0439092 0.02 -0.036104 -0.00438615 0.104446
5 0.0439092 -0.02 -0.00923356 -0.00660493 0.10929
5 0.0279244 0.04 -0.0724938 -0.00386547 0.0743039
5 0.0279244 -0.04 -0.0330282 -0.00787905 0.081235
5 0.0389677 0.03 -0.0502217 -0.00467962 0.0932005
5 0.0389677 -0.03 -0.0142856 -0.00733806 0.101099
5 0.0490026 0.01 -0.0201645 -0.00408075 0.115353
5 0.0490026 -0.01 -0.00526209 -0.00607114 0.116668
5 0.00128482 0.05 -0.044538 2.4341e-05 0.0119061
5 0.00128482 -0.05 -0.0344295 -0.000336599 0.0185669
5 0.00387803 0.05 -0.0678356 -0.000205175 0.0218467
5 0.00387803 -0.05 -0.0506718 -0.0011667 0.0288257
5 0.00651881 0.05 -0.082619 -0.000501259 0.0312492
5 0.00651881 -0.05 -0.0591808 -0.00249572 0.0379434
5 0.0310063 0.04 -0.0678585 -0.00428633 0.0789144
5 0.0310063 -0.04 -0.0257604 -0.0081414 0.0874135
5 0.0507211 0 -0.00897385 -0.00516235 0.118956
5 0.00920802 0.05 -0.0901537 -0.000851027 0.0394936
5 0.00920802 -0.05 -0.0613572 -0.00382868 0.0453686
5 0.0472842 0.02 -0.0297696 -0.00442379 0.110394
5 0.0472842 -0.02 -0.000961154 -0.00670148 0.115824
5 0.0119465 0.05 -0.0924528 -0.00126821 0.0464037
5 0.0119465 -0.05 -0.0593373 -0.00508724 0.0515019
5 0.0422521 0.03 -0.0445175 -0.00472454 0.0990664
5 0.0422521 -0.03 -0.0057355 -0.00736189 0.107897
5 0.0147353 0.05 -0.0915723 -0.00170931 0.0522619
5 0.0147353 -0.05 -0.0549803 -0.00620722 0.0570203
5 0.0341446 0.04 -0.062969 -0.00469248 0.0837911
5 0.0341446 -0.04 -0.0179319 -0.00823087 0.0938549
5 0.0175752 0.05 -0.08903 -0.00214558 0.0574069
5 0.0175752 -0.05 -0.0494255 -0.00719652 0.0623905
5 0.052471 0.01 -0.0130587 -0.00422743 0.120978
5 0.052471 -0.01 0.00259198 -0.00627013 0.122827
5 0.0204672 0.05 -0.0856737 -0.00257329 0.0621225
5 0.0204672 -0.05 -0.0432055 -0.00804877 0.0678788
5 0.054221 0 -0.00152439 -0.00538604 0.124769
5 0.0507211 0.02 -0.023332 -0.00453301 0.116347
5 0.0507211 -0.02 0.00726752 -0.00683733 0.122214
5 0.0455967 0.03 -0.0387801 -0.00475373 0.105181
5 0.0455967 -0.03 0.00295879 -0.00737551 0.114762
5 0.0373405 0.04 -0.0578867 -0.00506461 0.0890454
5 0.0373405 -0.04 -0.00963809 -0.00819453 0.100479
5 0.0234122 0.05 -0.0819223 -0.00300969 0.0665899
5 0.0234122 -0.05 -0.0365226 -0.00871287 0.0736787
5 0.0264113 0.05 -0.0779582 -0.00348596 0.0709325
5 0.0264113 -0.05 -0.0293892 -0.00916261 0.0798475
5 0.056003 0.01 -0.00597437 -0.00451403 0.126491
5 0.056003 -0.01 0.0103457 -0.00653265 0.128782
5 0.040595 0.04 -0.0526963 -0.0053978 0.0947108
5 0.040595 -0.04 -0.00102936 -0.00809395 0.107207
5 0.0490026 0.03 -0.0329787 -0.00482783 0.111409
5 0.0490026 -0.03 0.0116127 -0.00744394 0.121471
5 0.0577851 0 0.00581067 -0.00572104 0.130403
5 0.054221 0.02 -0.0168547 -0.00475838 0.122223
5 0.054221 -0.02 0.0154005 -0.00703786 0.128378
5 0.0294653 0.05 -0.0738349 -0.00401234 0.075311
5 0.0294653 -0.05 -0.0217834 -0.00937264 0.0863199
5 0.0439092 0.04 -0.047443 -0.00569975 0.100731
5 0.0439092 -0.04 0.00774688 -0.00798679 0.113946
5 0.0325754 0.05 -0.0695307 -0.00459393 0.0799264
5 0.0325754 -0.05 -0.0137113 -0.00937361 0.0929898
5 0 0.06 0 0 0
5 0 -0.06 0 0 0
5 0.00256965 0.06 -0.0579161 -4.38943e-06 0.0158806
5 0.00256965 -0.06 -0.0409123 -0.00087752 0.0212001
5 0.00518642 0.06 -0.0776141 -0.000158605 0.0254551
5 0.00518642 -0.06 -0.0523772 -0.00211474 0.0304028
5 0.0595998 0.01 0.0009115 -0.00497471 0.131843
5 0.0595998 -0.01 0.017962 -0.00686288 0.134496
5 0.052471 0.03 -0.0271242 -0.00499609 0.117651
5 0.052471 -0.03 0.0201297 -0.00756416 0.127892
5 0.00785119 0.06 -0.0892724 -0.000374798 0.0342807
5 0.00785119 -0.06 -0.0568543 -0.00361855 0.0386907
5 0.0105648 0.06 -0.094571 -0.000673656 0.0419508
5 0.0105648 -0.06 -0.0561174 -0.0050705 0.0459029
5 0.0577851 0.02 -0.0104507 -0.00514015 0.127941
5 0.0577851 -0.02 0.0234284 -0.00731419 0.134275
5 0.0614146 0 0.0129613 -0.00617953 0.135817
5 0.0357425 0.05 -0.0650372 -0.00519666 0.0849157
5 0.0357425 -0.05 -0.0052454 -0.0092133 0.0997637
5 0.0133283 0.06 -0.0956283 -0.00104691 0.0484357
5 0.0133283 -0.06 -0.0521196 -0.00639077 0.0524359
5 0.0472842 0.04 -0.0421188 -0.00599081 0.106983
5 0.0472842 -0.04 0.0165672 -0.00792567 0.120569
5 0.0161424 0.06 -0.094258 -0.00146073 0.0539884
5 0.0161424 -0.06 -0.0463396 -0.00753901 0.0587141
5 0.0190081 0.06 -0.091611 -0.00189722 0.0589259
5 0.0190081 -0.06 -0.0396234 -0.00850586 0.0650234
5 0.0389677 0.05 -0.0603951 -0.00580061 0.090354
5 0.0389677 -0.05 0.00350395 -0.00896741 0.106555
5 0.056003 0.03 -0.0212597 -0.00529607 0.123773
5 0.056003 -0.03 0.0285369 -0.00778455 0.134012
5 0.0219263 0.06 -0.088294 -0.00235157 0.063508
5 0.0219263 -0.06 -0.0323445 -0.00926918 0.0715401
5 0.0632626 0.01 0.00751598 -0.00560339 0.136999
5 0.0632626 -0.01 0.0254578 -0.0072773 0.139932
5 0.0614146 0.02 -0.00423135 -0.00570073 0.133423
5 0.0614146 -0.02 0.0313614 -0.00767525 0.139875
5 0.0507211 0.04 -0.0367145 -0.00630674 0.113314
5 0.0507211 -0.04 0.0253421 -0.00794531 0.126961
5 0.0248981 0.06 -0.0846104 -0.00282821 0.0679165
5 0.0248981 -0.06 -0.0246201 -0.00980391 0.0783412
5 0.0651106 0 0.0199066 -0.00676936 0.14098
5 0.0422521 0.05 -0.0556498 -0.0063865 0.0962239
5 0.0422521 -0.05 0.0124019 -0.00870839 0.113278
5 0.0279244 0.06 -0.0807126 -0.0033362 0.0723116
5 0.0279244 -0.06 -0.0164751 -0.0100987 0.085375
5 0.0595998 0.03 -0.0154785 -0.00577593 0.129658
5 0.0595998 -0.03 0.0368713 -0.00807679 0.13981
5 0.054221 0.04 -0.0312547 -0.00668385 0.119559
5 0.054221 -0.04 0.0340364 -0.00806509 0.133072
5 0.0310063 0.06 -0.0766649 -0.00388197 0.0768696
5 0.0310063 -0.06 -0.00793523 -0.0101688 0.0925116
5 0.0455967 0.05 -0.0508235 -0.00693431 0.102454
5 0.0455967 -0.05 0.0213646 -0.00850133 0.119848
5 0.0669925 0.01 0.0138293 -0.00640316 0.141928
5 0.0669925 -0.01 0.0328253 -0.00779382 0.145063
5 0.0651106 0.02 0.00173914 -0.00644064 0.138599
5 0.0651106 -0.02 0.0391929 -0.00814576 0.145142
5 0.0688745 0 0.0266431 -0.00750679 0.14587
5 0.0341446 0.06 -0.0724775 -0.00445965 0.0817453
5 0.0341446 -0.06 0.000926623 -0.010059 0.0996285
5 0.0490026 0.05 -0.0458915 -0.00744745 0.10889
5 0.0490026 -0.05 0.0303349 -0.00838191 0.126196
5 0.00128482 0.07 -0.0472631 9.41136e-05 0.010051
5 0.00128482 -0.07 -0.0320732 -0.0004519 0.0143296
5 0.0632626 0.03 -0.00987256 -0.00644911 0.135193
5 0.0632626 -0.03 0.0451568 -0.00848415 0.145262
5 0.00387803 0.07 -0.0720313 6.91434e-05 0.0197201
5 0.00387803 -0.07 -0.0464769 -0.00155503 0.0230798
5 0.0577851 0.04 -0.0258078 -0.00715829 0.125578
5 0.0577851 -0.04 0.0426519 -0.00829974 0.138885
5 0.00651881 0.07 -0.0879729 2.84347e-06 0.0290058
5 0.00651881 -0.07 -0.0531802 -0.00324174 0.0317636
5 0.00920802 0.07 -0.0963454 -0.000149792 0.0373757
5 0.00920802 -0.07 -0.0536991 -0.0049083 0.0396885
5 0.0373405 0.06 -0.0681475 -0.0050598 0.0870225
5 0.0373405 -0.06 0.00998919 -0.0098326 0.106636
5 0.0119465 0.07 -0.0993326 -0.000425658 0.0445315
5 0.0119465 -0.07 -0.0500756 -0.00645801 0.0470537
5 0.0707909 -0.01 0.0400249 -0.00846709 0.149877
5 0.0707909 0.01 0.0198952 -0.00736335 0.146613
5 0.0147353 0.07 -0.0991555 -0.000784546 0.0505467
5 0.0147353 -0.07 -0.0440844 -0.00781083 0.054169
5 0.0688745 -0.02 0.0468579 -0.00876158 0.150041
5 0.0688745 0.02 0.00744261 -0.00734763 0.143421
5 0.0175752 0.07 -0.097274 -0.00120357 0.055739
5 0.0175752 -0.07 -0.036867 -0.00894168 0.0612777
5 0.040595 0.06 -0.0636866 -0.00567321 0.0926944
5 0.040595 -0.06 0.019111 -0.00955741 0.113471
5 0.052471 0.05 -0.0408622 -0.00795567 0.115307
5 0.052471 -0.05 0.0392934 -0.00839124 0.132285
5 0.0727073 0 0.0331838 -0.00840064 0.150454
5 0.0204672 0.07 -0.0944658 -0.00166651 0.0604361
5 0.0204672 -0.07 -0.0289943 -0.00983665 0.0685477
5 0.0614146 0.04 -0.0204723 -0.0077567 0.131255
5 0.0614146 -0.04 0.0511908 -0.0086694 0.144374
5 0.0669925 0.03 -0.00451433 -0.00730716 0.14028
5 0.0669925 -0.03 0.0533341 -0.00902792 0.150312
5 0.0234122 0.07 -0.0911136 -0.00215689 0.0648842
5 0.0234122 -0.07 -0.020654 -0.0104785 0.0760567
5 0.0439092 0.06 -0.059119 -0.00628635 0.098684
5 0.0439092 -0.06 0.0281775 -0.00929261 0.12008
5 0.0264113 0.07 -0.0874466 -0.00266041 0.0692603
5 0.0264113 -0.07 -0.011913 -0.0108617 0.0837831
5 0.056003 0.05 -0.035771 -0.0084877 0.121508
5 0.056003 -0.05 0.0481881 -0.00852046 0.138101
5 0.0746589 -0.01 0.0469868 -0.00932371 0.15433
5 0.0746589 0.01 0.0258305 -0.00844874 0.150997
5 0.0727073 -0.02 0.0542607 -0.00956007 0.154538
5 0.0727073 0.02 0.012936 -0.00838363 0.147842
5 0.0294653 0.07 -0.0836098 -0.00318622 0.0737436
5 0.0294653 -0.07 -0.00281323 -0.0109981 0.0915509
5 0.0472842 0.06 -0.0544511 -0.00689115 0.104881
5 0.0472842 -0.06 0.037128 -0.00908478 0.126412
5 0.0651106 -0.04 0.0595904 -0.0092025 0.14951
5 0.0651106 0.04 -0.015333 -0.00848333 0.136483
5 0.0766105 0 0.0395781 -0.0094423 0.154686
5 0.0707909 -0.03 0.0612497 -0.00975773 0.154914
5 0.0707909 0.03 0.000562121 -0.00831716 0.144867
5 0.0325754 0.07 -0.0796831 -0.00373551 0.0784985
5 0.0325754 -0.07 0.00656885 -0.010931 0.0991873
5 0.0595998 0.05 -0.0307202 -0.00907363 0.127374
5 0.0595998 -0.05 0.0570137 -0.00881724 0.143618
5 0.0507211 0.06 -0.0496852 -0.00748884 0.111138
5 0.0507211 -0.06 0.0459427 -0.00896939 0.132437
5 0.0357425 0.07 -0.0756583 -0.00431263 0.0836419
5 0.0357425 -0.07 0.0160964 -0.0107182 0.106575
5 0.0766105 -0.02 0.0613214 -0.0105612 0.158595
5 0.0766105 0.02 0.0183719 -0.00949199 0.151799
5 0.0785979 -0.01 0.0537 -0.0103845 0.158383
5 0.0785979 0.01 0.0317971 -0.00961264 0.155036
5 0.0688745 -0.04 0.0677056 -0.00993222 0.15426
5 0.0688745 0.04 -0.0104299 -0.00931761 0.141158
5 0 0.08 0 0 0
5 0 -0.08 0 0 0
5 0.00256965 0.08 -0.0615166 2.79952e-05 0.0136549
5 0.00256965 -0.08 -0.0374322 -0.000996307 0.0161431
5 0.0389677 0.07 -0.0714985 -0.00492945 0.0891796
5 0.0389677 -0.07 0.025604 -0.0104314 0.113653
5 0.00518642 0.08 -0.0826908 -3.70249e-05 0.0229063
5 0.00518642 -0.08 -0.0471428 -0.00237833 0.024372
5 0.00785119 0.08 -0.0955853 -0.00019012 0.0317276
5 0.00785119 -0.08 -0.0499396 -0.00402019 0.0326983
5 0.0746589 -0.03 0.0687838 -0.010692 0.15903
5 0.0746589 0.03 0.00545815 -0.00940564 0.148893
5 0.0805853 0 0.0458763 -0.0106199 0.158509
5 0.0632626 0.05 -0.0258162 -0.00972833 0.132797
5 0.0632626 -0.05 0.0657238 -0.00929954 0.148806
5 0.0105648 0.08 -0.101817 -0.000430014 0.039566
5 0.0105648 -0.08 -0.0476104 -0.00557722 0.040722
5 0.054221 0.06 -0.0448542 -0.00808388 0.117274
5 0.054221 -0.06 0.0546182 -0.00897471 0.138154
5 0.0133283 0.08 -0.103598 -0.000743948 0.0462164
5 0.0133283 -0.08 -0.0420725 -0.0069694 0.0485607
5 0.0161424 0.08 -0.102824 -0.00109441 0.0518406
5 0.0161424 -0.08 -0.0347757 -0.00815322 0.0564001
5 0.0422521 0.07 -0.0672019 -0.00557643 0.0950215
5 0.0422521 -0.07 0.0349366 -0.0101224 0.1204
5 0.0190081 0.08 -0.100654 -0.00146274 0.0567524
5 0.0190081 -0.08 -0.0265432 -0.00911857 0.0643571
5 0.0219263 0.08 -0.0977048 -0.00183461 0.0612422
5 0.0219263 -0.08 -0.01774 -0.00986153 0.0724762
5 0.0727073 -0.04 0.0753842 -0.0108849 0.158565
5 0.0727073 0.04 -0.00570712 -0.0102104 0.145199
5 0.0805853 -0.02 0.0679741 -0.0117802 0.162188
5 0.0805853 0.02 0.0239356 -0.0106161 0.155223
5 0.0826091 -0.01 0.0601275 -0.0116629 0.161976
5 0.0826091 0.01 0.0378827 -0.0108202 0.158642
5 0.0577851 0.06 -0.0400198 -0.0086882 0.123112
5 0.0577851 -0.06 0.0631696 -0.00913569 0.14356
5 0.0455967 0.07 -0.0627995 -0.0062483 0.101038
5 0.0455967 -0.07 0.0440091 -0.00983828 0.126793
5 0.0669925 -0.05 0.0741494 -0.00999857 0.153661
5 0.0669925 0.05 -0.0211273 -0.010449 0.137662
5 0.0248981 0.08 -0.0943063 -0.00219896 0.0655382
5 0.0248981 -0.08 -0.00851536 -0.0103828 0.0807109
5 0.0785979 -0.03 0.0758174 -0.0118449 0.162639
5 0.0785979 0.03 0.0104039 -0.0105013 0.152269
5 0.0846329 0 0.0520659 -0.0119136 0.161867
5 0.0279244 0.08 -0.0906538 -0.00255424 0.0698344
5 0.0279244 -0.08 0.00103001 -0.0106951 0.0889232
5 0.0490026 0.07 -0.0582886 -0.00693469 0.107142
5 0.0490026 -0.07 0.0528058 -0.00961754 0.13281
5 0.0310063 0.08 -0.0868625 -0.00290717 0.0743082
5 0.0310063 -0.08 0.010796 -0.0108269 0.0969391
5 0.0614146 -0.06 0.0716219 -0.00949211 0.148635
5 0.0614146 0.06 -0.0352502 -0.00931023 0.1285
5 0.0766105 -0.04 0.0825355 -0.0120618 0.162366
5 0.0766105 0.04 -0.00100115 -0.0111062 0.14856
5 0.0707909 -0.05 0.0820916 -0.0109449 0.158153
5 0.0707909 0.05 -0.0166383 -0.0111974 0.141825
5 0.0846329 -0.02 0.0741425 -0.0132126 0.165302
5 0.0846329 0.02 0.0297375 -0.0117115 0.15812
5 0.0341446 0.08 -0.0829825 -0.00326869 0.0791006
5 0.0341446 -0.08 0.020669 -0.0108106 0.104635
5 0.0866939 -0.01 0.0662021 -0.0131317 0.165073
5 0.0866939 0.01 0.0440536 -0.01204 0.161779
5 0.052471 0.07 -0.0536972 -0.00761771 0.113216
5 0.052471 -0.07 0.0613391 -0.00948687 0.138458
5 0.0826091 -0.03 0.0822535 -0.0132292 0.165754
5 0.0826091 0.03 0.0156605 -0.0115308 0.154947
5 0.0373405 0.08 -0.0790191 -0.00365117 0.0842748
5 0.0373405 -0.08 0.0305165 -0.0106899 0.111965
5 0.0651106 -0.06 0.079931 -0.0100776 0.153349
5 0.0651106 0.06 -0.0305913 -0.00995192 0.133308
5 0.0887548 0 0.0581083 -0.0133016 0.164762
5 0.056003 0.07 -0.049085 -0.0082746 0.119069
5 0.056003 -0.07 0.0696544 -0.00950026 0.143772
5 0.040595 0.08 -0.0749668 -0.00406995 0.0897934
5 0.040595 -0.08 0.0401966 -0.0105112 0.118929
5 0.0746589 -0.05 0.0894141 -0.0121453 0.162166
5 0.0746589 0.05 -0.0122089 -0.0119216 0.145211
5 0.0805853 -0.04 0.0891117 -0.0134489 0.165656
5 0.0805853 0.04 0.00388836 -0.0119554 0.151251
5 0.00128482 0.09 -0.0501862 -2.52301e-05 0.00796142
5 0.00128482 -0.09 -0.0292419 -0.000439047 0.00997974
5 0.00387803 0.09 -0.0765896 -2.6048e-05 0.0168884
5 0.00387803 -0.09 -0.0419389 -0.00153942 0.0171845
5 0.00651881 0.09 -0.0941721 -0.000194057 0.0260125
5 0.00651881 -0.09 -0.0469762 -0.0031774 0.0254615
5 0.00920802 0.09 -0.103852 -0.000419505 0.0345178
5 0.00920802 -0.09 -0.0459026 -0.00475357 0.0338811
5 0.0119465 0.09 -0.107738 -0.000725148 0.0418404
5 0.0119465 -0.09 -0.0407636 -0.00618926 0.0422662
5 0.0887548 -0.02 0.079801 -0.0148244 0.167992
5 0.0887548 0.02 0.0358049 -0.0127586 0.160593
5 0.0147353 0.09 -0.108166 -0.0010405 0.0479482
5 0.0147353 -0.09 -0.0333652 -0.00741971 0.0507555
5 0.0439092 0.08 -0.0708227 -0.00453638 0.0955596
5 0.0439092 -0.08 0.0495759 -0.0103173 0.125535
5 0.0688745 -0.06 0.0879601 -0.0109169 0.157681
5 0.0688745 0.06 -0.0260459 -0.0106118 0.137428
5 0.0908536 -0.01 0.0719019 -0.0147629 0.167723
5 0.0908536 0.01 0.0502777 -0.0132724 0.164472
5 0.0175752 0.09 -0.1067 -0.00134907 0.0531293
5 0.0175752 -0.09 -0.0247847 -0.00844086 0.0593998
5 0.0866939 -0.03 0.0879891 -0.0148274 0.168407
5 0.0866939 0.03 0.0213555 -0.0124554 0.157113
5 0.0595998 0.07 -0.0445015 -0.00891705 0.124501
5 0.0595998 -0.07 0.0778247 -0.00970487 0.148751
5 0.0204672 0.09 -0.104177 -0.00163188 0.0577059
5 0.0204672 -0.09 -0.0155253 -0.00925524 0.068205
5 0.0472842 0.08 -0.0665724 -0.0050548 0.101461
5 0.0472842 -0.08 0.0585691 -0.0101549 0.131763
5 0.0929523 0 0.0640374 -0.0147578 0.167277
5 0.0234122 0.09 -0.101062 -0.00188322 0.0619435
5 0.0234122 -0.09 -0.0057845 -0.00987583 0.0770972
5 0.0785979 -0.05 0.0961292 -0.0135653 0.165631
5 0.0785979 0.05 -0.00765619 -0.0125965 0.147869
5 0.0846329 -0.04 0.0950713 -0.0150182 0.168476
5 0.0846329 0.04 0.00911304 -0.0127261 0.153369
5 0.0264113 0.09 -0.0976028 -0.00209539 0.0660656
5 0.0264113 -0.09 0.004292 -0.0103151 0.0859083
5 0.0727073 -0.06 0.0955535 -0.01201 0.161608
5 0.0727073 0.06 -0.0215485 -0.0112758 0.140815
5 0.0632626 -0.07 0.0859278 -0.0101469 0.153367
5 0.0632626 0.07 -0.0399614 -0.00952211 0.129332
5 0.0294653 0.09 -0.0939552 -0.00227502 0.070269
5 0.0294653 -0.09 0.0145563 -0.0106057 0.0944524
5 0.0507211 0.08 -0.062204 -0.00562033 0.107368
5 0.0507211 -0.08 0.0671701 -0.010069 0.137576
5 0.0929523 -0.02 0.0850934 -0.0165623 0.170387
5 0.0929523 0.02 0.0420974 -0.0137631 0.162793
5 0.0950896 -0.01 0.0774461 -0.0164743 0.170066
5 0.0950896 0.01 0.0565261 -0.0145223 0.166849
5 0.0908536 -0.03 0.093113 -0.016576 0.170764
5 0.0908536 0.03 0.027535 -0.0132668 0.159009
5 0.0325754 0.09 -0.0902009 -0.002432 0.0747228
5 0.0325754 -0.09 0.0248743 -0.010773 0.102567
5 0.0826091 -0.05 0.102249 -0.0151566 0.168601
5 0.0826091 0.05 -0.00285306 -0.0131931 0.14992
5 0.054221 0.08 -0.0577288 -0.00621142 0.113126
5 0.054221 -0.08 0.0754444 -0.0101104 0.142939
5 0.0357425 0.09 -0.0863868 -0.00259471 0.0795403
5 0.0357425 -0.09 0.0351386 -0.0108204 0.110212
5 0.0669925 -0.07 0.0939256 -0.0108655 0.157564
5 0.0669925 0.07 -0.035459 -0.0101085 0.133443
5 0.0972268 0 0.0699876 -0.0162394 0.169576
5 0.0766105 -0.06 0.102616 -0.0133244 0.165123
5 0.0766105 0.06 -0.0169819 -0.0119327 0.143511
5 0.0887548 -0.04 0.100445 -0.0167215 0.170938
5 0.0887548 0.04 0.0147329 -0.0134168 0.155094
5 0.0389677 0.09 -0.0825317 -0.00276797 0.0847386
5 0.0389677 -0.09 0.0452293 -0.0107896 0.117421
5 0.0577851 -0.08 0.083503 -0.0103252 0.147851
5 0.0577851 0.08 -0.0531607 -0.00681497 0.118561
5 0.0972268 -0.02 0.0903204 -0.0183555 0.172637
5 0.0972268 0.02 0.0485038 -0.0147416 0.164907
5 0.0422521 0.09 -0.078634 -0.00300608 0.0902353
5 0.0422521 -0.09 0.0550191 -0.0107012 0.124245
5 0.0707909 -0.07 0.101676 -0.0118591 0.161347
5 0.0707909 0.07 -0.0309575 -0.0106924 0.136784
5 0.0950896 -0.03 0.0979146 -0.0184365 0.172998
5 0.0950896 0.03 0.0340533 -0.0139911 0.160842
5 0.0994033 -0.01 0.083184 -0.0181875 0.172271
5 0.0994033 0.01 0.0627965 -0.0157739 0.169119
5 0 0.1 0 0 0
5 0 -0.1 0 0 0
5 0.00256965 0.1 -0.0646124 -3.50058e-05 0.0120785
5 0.00256965 -0.1 -0.0344157 -0.000928486 0.0114482
5 0.0866939 -0.05 0.107796 -0.0168602 0.171142
5 0.0866939 0.05 0.0022912 -0.0137254 0.151496
5 0.00518642 0.1 -0.0873936 -0.000119788 0.0208113
5 0.00518642 -0.1 -0.042795 -0.00221002 0.0187481
5 0.00785119 0.1 -0.10189 -0.000303086 0.029332
5 0.00785119 -0.1 -0.0442263 -0.00371886 0.0270488
5 0.0805853 -0.06 0.109097 -0.0148093 0.16827
5 0.0805853 0.06 -0.0122539 -0.012572 0.145627
5 0.0105648 0.1 -0.109448 -0.000528559 0.0369317
5 0.0105648 -0.1 -0.0404746 -0.00511499 0.035697
5 0.0614146 -0.08 0.0914636 -0.010746 0.15236
5 0.0614146 0.08 -0.0485085 -0.00742564 0.123517
5 0.0133283 0.1 -0.112187 -0.000769556 0.0432963
5 0.0133283 -0.1 -0.033478 -0.00634652 0.0445355
5 0.0455967 0.09 -0.0746544 -0.00331486 0.0959449
5 0.0455967 -0.09 0.0643412 -0.0106072 0.130703
5 0.0929523 -0.04 0.105413 -0.0185095 0.173237
5 0.0929523 0.04 0.0206938 -0.0140494 0.156634
5 0.0161424 0.1 -0.112043 -0.000988097 0.0485449
5 0.0161424 -0.1 -0.0247153 -0.00738917 0.0535712
5 0.10158 0 0.0760086 -0.0177344 0.171827
5 0.0190081 0.1 -0.110267 -0.00117909 0.053001
5 0.0190081 -0.1 -0.0150128 -0.00825473 0.0627751
5 0.0746589 -0.07 0.109035 -0.013091 0.164766
5 0.0746589 0.07 -0.0263879 -0.0112918 0.139442
5 0.0219263 0.1 -0.107573 -0.00134766 0.0569873
5 0.0219263 -0.1 -0.00475475 -0.00896005 0.0720464
5 0.0490026 0.09 -0.0705459 -0.00372151 0.101718
5 0.0490026 -0.09 0.0731226 -0.0105565 0.136749
5 0.0248981 0.1 -0.104372 -0.00150154 0.0607813
5 0.0248981 -0.1 0.0058538 -0.00952076 0.0812261
5 0.0651106 -0.08 0.0993821 -0.0113908 0.156522
5 0.0651106 0.08 -0.0437978 -0.00804399 0.127897
5 0.10158 -0.02 0.0956217 -0.0201625 0.174868
5 0.10158 0.02 0.0548827 -0.0157325 0.167119
5 0.0908536 -0.05 0.112885 -0.0186229 0.173439
5 0.0908536 0.05 0.00775207 -0.0142199 0.152757
5 0.0846329 -0.06 0.114991 -0.0164077 0.171107
5 0.0846329 0.06 -0.00733437 -0.0131921 0.147312
5 0.0279244 0.1 -0.100895 -0.00165008 0.0646205
5 0.0279244 -0.1 0.0166468 -0.0099552 0.0901554
5 0.0994033 -0.03 0.102739 -0.0203243 0.175214
5 0.0994033 0.03 0.0406422 -0.0146797 0.162818
5 0.052471 0.09 -0.0662833 -0.00420757 0.107396
5 0.052471 -0.09 0.0814151 -0.010615 0.14229
5 0.103796 -0.01 0.0889948 -0.0199108 0.174466
5 0.103796 0.01 0.0690615 -0.0170662 0.171453
5 0.0310063 0.1 -0.0972687 -0.00180571 0.0686992
5 0.0310063 -0.1 0.0274761 -0.0102855 0.0987147
5 0.0972268 -0.04 0.110237 -0.0203319 0.175541
5 0.0972268 0.04 0.0268239 -0.0146633 0.158223
5 0.0785979 -0.07 0.115887 -0.0144966 0.167928
5 0.0785979 0.07 -0.0216731 -0.0119209 0.141521
5 0.0688745 -0.08 0.107215 -0.012254 0.160392
5 0.0688745 0.08 -0.0390584 -0.00868802 0.131665
5 0.0341446 0.1 -0.0935548 -0.00198494 0.0731552
5 0.0341446 -0.1 0.0382165 -0.010525 0.106842
5 0.056003 0.09 -0.0618485 -0.00474599 0.112823
5 0.056003 -0.09 0.0893711 -0.0108395 0.147237
5 0.106012 0 0.0819225 -0.0192904 0.174151
5 0.0373405 0.1 -0.0897827 -0.00220322 0.0780394
5 0.0373405 -0.1 0.0487691 -0.0106887 0.114533
5 0.0887548 -0.06 0.120396 -0.0180646 0.173713
5 0.0887548 0.06 -0.00224094 -0.0138149 0.148718
5 0.0950896 -0.05 0.117741 -0.0204032 0.175748
5 0.0950896 0.05 0.0134372 -0.0147202 0.153929
5 0.106012 -0.02 0.100802 -0.0220041 0.177152
5 0.106012 0.02 0.0610982 -0.0168013 0.169552
5 0.040595 0.1 -0.0859594 -0.00248244 0.0833
5 0.040595 -0.1 0.0590329 -0.0107979 0.121794
5 0.0595998 -0.09 0.0971643 -0.0112564 0.151646
5 0.0595998 0.09 -0.0572064 -0.00532244 0.117853
5 0.103796 -0.03 0.107571 -0.022228 0.177523
5 0.103796 0.03 0.0470334 -0.0154106 0.165085
5 0.0727073 -0.08 0.114842 -0.0133059 0.164022
5 0.0727073 0.08 -0.0343014 -0.00938362 0.134837
5 0.0826091 -0.07 0.122125 -0.0160193 0.170921
5 0.0826091 0.07 -0.0168316 -0.0125777 0.143197
5 0.108269 -0.01 0.0944911 -0.0217187 0.17673
5 0.108269 0.01 0.0751449 -0.0184664 0.173955
5 0.10158 -0.04 0.115048 -0.0221503 0.177948
5 0.10158 0.04 0.0328988 -0.0153132 0.160089
5 0.0439092 0.1 -0.0820616 -0.002845 0.0888418
5 0.0439092 -0.1 0.0688599 -0.0108834 0.12861
5 0.00128482 0.11 -0.0519349 -4.08648e-05 0.0075703
5 0.00128482 -0.11 -0.0273652 -0.000408178 0.00636296
5 0.0632626 -0.09 0.10494 -0.0118759 0.155676
5 0.0632626 0.09 -0.0523632 -0.00594114 0.122384
5 0.00387803 0.11 -0.0797432 -4.78807e-05 0.0158951
5 0.00387803 -0.11 -0.0391186 -0.00132745 0.0122664
5 0.00651881 0.11 -0.0990725 -0.000211193 0.0244506
5 0.00651881 -0.11 -0.0431469 -0.00279604 0.0200814
5 0.00920802 0.11 -0.110466 -0.000387621 0.0323485
5 0.00920802 -0.11 -0.0408793 -0.00414866 0.0287727
5 0.110526 0 0.0875249 -0.0209575 0.176574
5 0.0472842 0.1 -0.0780406 -0.00330197 0.094546
5 0.0472842 -0.1 0.0781046 -0.010991 0.134939
5 0.0929523 -0.06 0.125507 -0.0197387 0.176233
5 0.0929523 0.06 0.00298047 -0.0144761 0.150002
5 0.0119465 0.11 -0.115736 -0.000582005 0.0390214
5 0.0119465 -0.11 -0.0343519 -0.0053687 0.0378695
5 0.0766105 -0.08 0.122093 -0.0145062 0.167448
5 0.0766105 0.08 -0.0295192 -0.0101549 0.137482
5 0.0147353 0.11 -0.117107 -0.00073061 0.0443762
5 0.0147353 -0.11 -0.02543 -0.00640859 0.0472524
5 0.0994033 -0.05 0.122553 -0.0221644 0.178207
5 0.0994033 0.05 0.0191655 -0.0152623 0.155304
5 0.0175752 0.11 -0.116198 -0.000832246 0.0487267
5 0.0175752 -0.11 -0.0152796 -0.0072877 0.0568788
5 0.0866939 -0.07 0.127797 -0.0175952 0.173764
5 0.0866939 0.07 -0.0119421 -0.0132723 0.144635
5 0.0204672 0.11 -0.113991 -0.000903192 0.052443
5 0.0204672 -0.11 -0.00445964 -0.00803525 0.0666186
5 0.0507211 0.1 -0.0738564 -0.00385236 0.100262
5 0.0507211 -0.1 0.0867374 -0.0111731 0.140714
5 0.0669925 -0.09 0.112737 -0.012675 0.159481
5 0.0669925 0.09 -0.0474059 -0.00660442 0.126432
5 0.110526 -0.02 0.105659 -0.0239187 0.179473
5 0.110526 0.02 0.0671185 -0.017998 0.172232
5 0.108269 -0.03 0.112154 -0.0241596 0.179889
5 0.108269 0.03 0.0531558 -0.0162625 0.167715
5 0.0234122 0.11 -0.111063 -0.000972385 0.0558578
5 0.0234122 -0.11 0.00675251 -0.00867401 0.0762668
5 0.0264113 0.11 -0.107759 -0.00105517 0.0592589
5 0.0264113 -0.11 0.0181574 -0.00921817 0.085634
5 0.112825 -0.01 0.0995078 -0.0236405 0.179047
5 0.112825 0.01 0.0809583 -0.0200053 0.176567
5 0.106012 -0.04 0.119758 -0.0239668 0.180495
5 0.106012 0.04 0.0388069 -0.0160582 0.16239
5 0.0805853 -0.08 0.128815 -0.0158223 0.170708
5 0.0805853 0.08 -0.0247171 -0.0110116 0.139695
5 0.054221 0.1 -0.0694996 -0.00447603 0.105849
5 0.054221 -0.1 0.094868 -0.0114734 0.145895