# wallShearStress  FACE_DATA 60650
# x  y  z  wallShearStress_x  wallShearStress_y  wallShearStress_z
8.7572 0 0.345731 0.000833419 -3.33337e-06 0.000703835
8.72516 0 0.336919 0.000962586 -9.0791e-06 0.000691431
8.69439 0 0.328456 0.00105176 -1.82978e-05 0.000657539
8.66483 0 0.32033 0.0010807 -2.55642e-05 0.000594236
8.63646 0 0.312525 0.0010394 -3.33013e-05 0.000495113
8.6092 0 0.305031 0.000933405 -3.75167e-05 0.000358285
8.58303 0 0.297834 0.000790559 -3.70807e-05 0.000192683
8.82532 0 0.430728 -4.08075e-07 -1.09599e-06 0.000818091
8.79057 0 0.419435 0.00013178 -2.97167e-06 0.000896918
8.7572 0 0.408591 0.000242882 -5.16109e-06 0.000961199
8.72516 0 0.398176 0.000346896 -8.08877e-06 0.00100314
8.69439 0 0.388175 0.000421081 -1.20248e-05 0.00101955
8.66483 0 0.378571 0.000453081 -1.78316e-05 0.00100296
8.63646 0 0.369348 0.000429578 -2.46074e-05 0.000942617
8.6092 0 0.360491 0.000351874 -3.07183e-05 0.000835205
8.58303 0 0.351985 0.00022685 -3.49883e-05 0.000679818
8.5579 0 0.343817 7.22075e-05 -3.60316e-05 0.000493918
8.53376 0 0.335973 -6.4496e-05 -3.46158e-05 0.000290082
8.51058 0 0.32844 -0.000175341 -3.1273e-05 9.76908e-05
8.93841 0 0.539402 -0.000657211 -1.45295e-06 0.000420245
8.89917 0 0.52469 -0.000658074 3.04597e-06 0.000541605
8.8615 0 0.510561 -0.000570286 -5.23168e-07 0.000670386
8.82532 0 0.496993 -0.000516164 2.57918e-06 0.000798422
8.79057 0 0.483964 -0.000431696 1.97739e-06 0.000916273
8.7572 0 0.471451 -0.00035674 -1.18184e-07 0.00102724
8.72516 0 0.459434 -0.000276191 -2.2701e-06 0.00111872
8.69439 0 0.447895 -0.000217592 -6.02715e-06 0.00118733
8.66483 0 0.436813 -0.000182988 -1.15659e-05 0.00122503
8.63646 0 0.426171 -0.000180728 -1.71721e-05 0.00122627
8.6092 0 0.415951 -0.000209312 -2.19853e-05 0.00118048
8.58303 0 0.406137 -0.000272503 -2.73275e-05 0.00108429
8.5579 0 0.396712 -0.000368471 -2.91082e-05 0.000946276
8.53376 0 0.387661 -0.000470301 -2.80692e-05 0.000774186
8.51058 0 0.378969 -0.000574216 -2.63673e-05 0.000586218
8.48832 0 0.370622 -0.000647516 -2.52599e-05 0.000391453
8.46695 0 0.362606 -0.000700449 -2.51437e-05 0.000220145
8.93841 0 0.611323 -0.000921087 9.37494e-07 0.000233972
8.89917 0 0.594649 -0.000959714 4.58667e-06 0.000349881
8.8615 0 0.578636 -0.000927349 1.42401e-06 0.000481653
8.82532 0 0.563259 -0.000924482 2.45073e-06 0.00062668
8.79057 0 0.548492 -0.000893236 2.44914e-07 0.000766827
8.7572 0 0.534311 -0.000868835 2.76919e-08 0.000905229
8.72516 0 0.520692 -0.000825907 -1.16625e-06 0.00103107
8.69439 0 0.507614 -0.000788529 -2.53046e-06 0.00114239
8.66483 0 0.495055 -0.000757083 -4.46987e-06 0.0012306
8.63646 0 0.482994 -0.000740187 -7.24951e-06 0.00128946
8.6092 0 0.471411 -0.000740094 -9.99319e-06 0.0013105
8.58303 0 0.460288 -0.000761343 -1.37345e-05 0.00129045
8.5579 0 0.449607 -0.000798461 -1.63834e-05 0.0012266
8.53376 0 0.439349 -0.000846359 -1.93386e-05 0.00111997
8.51058 0 0.429498 -0.000905309 -2.12855e-05 0.000984071
8.48832 0 0.420038 -0.000977544 -2.08562e-05 0.000824173
8.46695 0 0.410953 -0.00102731 -2.15304e-05 0.000658442
8.44642 0 0.402229 -0.00104496 -2.04322e-05 0.000499728
8.42671 0 0.393851 -0.00106427 -1.93255e-05 0.00035312
8.93841 0 0.683243 -0.000968164 -4.77611e-07 4.52495e-05
8.89917 0 0.664607 -0.0010668 3.546e-06 0.000131647
8.8615 0 0.646711 -0.00111066 8.53409e-07 0.00022099
8.82532 0 0.629525 -0.00118158 2.83764e-06 0.000348646
8.79057 0 0.61302 -0.0011984 2.57792e-06 0.000475435
8.7572 0 0.597171 -0.0012249 3.85461e-06 0.000623665
8.72516 0 0.58195 -0.00123133 3.32066e-06 0.000768892
8.69439 0 0.567333 -0.00123822 2.05419e-06 0.000910286
8.66483 0 0.553296 -0.00123744 7.82001e-07 0.00103835
8.63646 0 0.539816 -0.00123513 -3.30928e-07 0.00114672
8.6092 0 0.526871 -0.00123501 -2.129e-06 0.00122887
8.58303 0 0.51444 -0.00123836 -3.56507e-06 0.00127921
8.5579 0 0.502501 -0.00124286 -5.94809e-06 0.00129362
8.53376 0 0.491037 -0.00125356 -8.81813e-06 0.00127402
8.51058 0 0.480027 -0.00126653 -1.18961e-05 0.00121744
8.48832 0 0.469454 -0.00128061 -1.42504e-05 0.00112658
8.46695 0 0.459301 -0.00131143 -1.55967e-05 0.00100461
8.44642 0 0.44955 -0.00134908 -1.72053e-05 0.000868883
8.42671 0 0.440186 -0.00135939 -1.88444e-05 0.000733655
8.40778 0 0.431194 -0.00135574 -1.7079e-05 0.000613689
8.3896 0 0.422558 -0.00134939 -1.46476e-05 0.000493059
8.93841 0 0.755163 -0.000827039 -3.81302e-06 -6.74458e-05
8.89917 0 0.734566 -0.000982846 2.67357e-06 -7.35081e-06
8.8615 0 0.714786 -0.00105119 -1.9806e-06 2.3911e-05
8.82532 0 0.695791 -0.001206 2.62019e-06 0.000104545
8.79057 0 0.677549 -0.00127952 2.35337e-07 0.000178977
8.7572 0 0.660031 -0.00139172 1.62003e-06 0.000291072
8.72516 0 0.643208 -0.00145756 2.74379e-06 0.000411105
8.69439 0 0.627053 -0.00151779 4.93354e-06 0.000543906
8.66483 0 0.611538 -0.00155522 5.25508e-06 0.000676101
8.63646 0 0.596639 -0.00158487 4.70552e-06 0.000808296
8.6092 0 0.582331 -0.0016075 3.00828e-06 0.000931139
8.58303 0 0.568591 -0.00162914 1.35724e-06 0.00103664
8.5579 0 0.555396 -0.00164793 -2.76482e-07 0.0011196
8.53376 0 0.542725 -0.00166131 -1.66413e-06 0.00117472
8.51058 0 0.530556 -0.00166633 -2.12042e-06 0.0012024
8.48832 0 0.51887 -0.00165501 -3.8286e-06 0.00119995
8.46695 0 0.507648 -0.00163603 -5.84627e-06 0.00116434
8.44642 0 0.496871 -0.00162253 -8.28411e-06 0.00109717
8.42671 0 0.486521 -0.00163672 -1.11223e-05 0.00100338
8.40778 0 0.476583 -0.00164033 -1.37198e-05 0.000900939
8.3896 0 0.467038 -0.0016138 -1.56657e-05 0.000795063
8.93841 0 0.827084 -0.000597167 -8.7967e-06 -0.000104871
8.89917 0 0.804525 -0.000814187 6.06666e-06 -7.40368e-05
8.8615 0 0.782861 -0.000849394 -5.27741e-06 -7.77442e-05
8.82532 0 0.762056 -0.00107383 2.7226e-06 -3.87265e-05
8.79057 0 0.742077 -0.00115953 -2.22706e-06 -9.69844e-06
8.7572 0 0.722891 -0.00133246 7.17298e-07 4.1777e-05
8.72516 0 0.704466 -0.00144203 7.01022e-07 0.000102314
8.69439 0 0.686772 -0.00156217 1.99891e-06 0.000188597
8.66483 0 0.66978 -0.0016639 2.3617e-06 0.000289274
8.63646 0 0.653462 -0.00176104 3.9947e-06 0.000401422
8.6092 0 0.637792 -0.00183186 5.73931e-06 0.000518602
8.58303 0 0.622743 -0.0018806 6.66525e-06 0.000634908
8.5579 0 0.608291 -0.00191781 6.24836e-06 0.000745229
8.53376 0 0.594413 -0.00194935 4.61484e-06 0.000844195
8.51058 0 0.581085 -0.00197641 2.37322e-06 0.000928554
8.48832 0 0.568286 -0.00199563 9.80568e-07 0.000998006
8.46695 0 0.555995 -0.00199645 4.87012e-07 0.00104767
8.44642 0 0.544192 -0.00198107 1.0949e-06 0.0010731
8.42671 0 0.532857 -0.00195694 2.14373e-07 0.00106947
8.40778 0 0.521971 -0.00192322 -2.19514e-06 0.00103003
8.3896 0 0.511518 -0.00190063 -5.67952e-06 0.000973601
8.93841 0 0.899004 -0.000359879 -1.49099e-05 -8.76265e-05
8.89917 0 0.874483 -0.000668876 3.56039e-06 -4.87129e-05
8.8615 0 0.850936 -0.000607924 -9.43451e-06 -9.42885e-05
8.82532 0 0.828322 -0.000830925 3.42016e-06 -0.000109293
8.79057 0 0.806606 -0.000912206 -3.67202e-06 -0.000102442
8.7572 0 0.785751 -0.00112201 -4.88858e-07 -8.8922e-05
8.72516 0 0.765724 -0.00127087 -2.56469e-06 -7.06297e-05
8.69439 0 0.746491 -0.00144503 -2.51383e-07 -4.5279e-05
8.66483 0 0.728022 -0.00158248 1.01495e-06 -5.35603e-06
8.63646 0 0.710285 -0.00171096 2.28651e-06 5.1361e-05
8.6092 0 0.693252 -0.00182774 3.24568e-06 0.000125788
8.58303 0 0.676894 -0.00193451 4.46912e-06 0.000213877
8.5579 0 0.661186 -0.00202602 5.66649e-06 0.000309983
8.53376 0 0.646101 -0.00210028 6.68639e-06 0.000408559
8.51058 0 0.631614 -0.00215522 7.1482e-06 0.000506594
8.48832 0 0.617703 -0.00219395 7.27267e-06 0.00059898
8.46695 0 0.604343 -0.00221883 6.78552e-06 0.000685064
8.44642 0 0.591513 -0.00223435 6.23855e-06 0.000762434
8.42671 0 0.579192 -0.00224669 5.39751e-06 0.000829068
8.40778 0 0.56736 -0.00224235 3.87115e-06 0.000879609
8.3896 0 0.555998 -0.00221968 2.65643e-06 0.000910521
8.37214 0 0.545086 -0.00218426 2.08894e-06 0.000916843
8.93841 0 0.970924 -0.000366337 -2.16395e-05 -8.52415e-05
8.89917 0 0.944442 -0.000707395 1.74108e-05 -5.05417e-05
8.8615 0 0.91901 -0.000428935 -6.42647e-06 -8.29091e-05
8.82532 0 0.894588 -0.000617813 -1.31735e-06 -9.31655e-05
8.79057 0 0.871134 -0.000675489 -6.19097e-06 -0.000107676
8.7572 0 0.848611 -0.000855525 3.44693e-07 -0.000136006
8.72516 0 0.826982 -0.00098495 -1.87776e-06 -0.000137188
8.69439 0 0.806211 -0.0011681 -1.54895e-06 -0.000140406
8.66483 0 0.786263 -0.00134168 -2.37234e-06 -0.0001414
8.63646 0 0.767108 -0.00152081 -1.7683e-06 -0.000139904
8.6092 0 0.748712 -0.00168047 -2.2947e-07 -0.000126316
8.58303 0 0.731046 -0.00181921 2.15495e-06 -9.61309e-05
8.5579 0 0.714081 -0.0019416 4.22148e-06 -4.80829e-05
8.53376 0 0.697789 -0.00205249 5.22643e-06 1.30433e-05
8.51058 0 0.682144 -0.00215197 6.10941e-06 8.41719e-05
8.48832 0 0.667119 -0.00223606 7.11026e-06 0.000162937
8.46695 0 0.65269 -0.00230157 8.00147e-06 0.000246315
8.44642 0 0.638834 -0.00235454 9.18239e-06 0.000330803
8.42671 0 0.625528 -0.00239488 9.61517e-06 0.00041374
8.40778 0 0.612749 -0.00241552 8.87954e-06 0.000493087
8.3896 0 0.600478 -0.0024241 7.97291e-06 0.000566581
8.37214 0 0.588693 -0.00242607 7.30288e-06 0.000632395
8.97926 0 1.07246 -0.00143655 3.97613e-05 0.000101823
8.93841 0 1.04284 -0.000696347 -3.24901e-05 -3.72953e-06
8.89917 0 1.0144 -0.000957038 1.72343e-05 -7.47438e-05
8.8615 0 0.987085 -0.000556718 -4.94083e-06 -9.83337e-05
8.82532 0 0.960854 -0.000635792 5.37251e-06 -9.50055e-05
8.79057 0 0.935663 -0.00054184 -1.23071e-06 -9.6515e-05
8.7572 0 0.911471 -0.000610005 -3.65094e-06 -0.000117464
8.72516 0 0.88824 -0.000736443 -5.46524e-06 -0.000140834
8.69439 0 0.86593 -0.000894605 -1.97459e-06 -0.000169029
8.66483 0 0.844505 -0.00104464 -1.91711e-06 -0.000182856
8.63646 0 0.82393 -0.00121599 -2.47436e-06 -0.000196078
8.6092 0 0.804172 -0.00139123 -2.04995e-06 -0.000217121
8.58303 0 0.785198 -0.00156544 -1.60908e-06 -0.000238279
8.5579 0 0.766976 -0.00172539 -3.50689e-07 -0.000249384
8.53376 0 0.749477 -0.00186707 1.25215e-06 -0.000245225
8.51058 0 0.732673 -0.00199705 2.98454e-06 -0.000225143
8.48832 0 0.716535 -0.00211369 5.11642e-06 -0.000191309
8.46695 0 0.701038 -0.00221451 7.57589e-06 -0.000144037
8.44642 0 0.686155 -0.0023 9.41841e-06 -8.54975e-05
8.42671 0 0.671863 -0.00237431 1.08118e-05 -2.02626e-05
8.40778 0 0.658138 -0.00243261 1.16066e-05 5.15136e-05
8.3896 0 0.644957 -0.00247629 1.19113e-05 0.000125999
8.37214 0 0.6323 -0.00251258 1.18278e-05 0.000200122
8.97926 0 1.14643 -0.00209207 3.67872e-05 0.000199546
8.93841 0 1.11476 -0.00132595 -1.83164e-05 0.000198587
8.89917 0 1.08436 -0.00135772 -2.62406e-07 9.50421e-05
8.8615 0 1.05516 -0.000985849 -1.3829e-05 1.62921e-05
8.82532 0 1.02712 -0.000885268 2.53904e-06 -6.91378e-05
8.79057 0 1.00019 -0.000692322 2.20136e-06 -9.54168e-05
8.7572 0 0.974332 -0.000621513 1.66043e-06 -0.000110409
8.72516 0 0.949498 -0.000597975 -4.27381e-07 -0.000115314
8.69439 0 0.925649 -0.000636252 -4.69088e-06 -0.000134556
8.66483 0 0.902747 -0.000780723 -6.18278e-06 -0.000173098
8.63646 0 0.880753 -0.000933389 -2.31027e-06 -0.000207283
8.6092 0 0.859632 -0.00108184 -1.78146e-06 -0.000233009
8.58303 0 0.839349 -0.00124524 -2.76423e-06 -0.000259405
8.5579 0 0.819871 -0.00140864 -2.5375e-06 -0.000297427
8.53376 0 0.801165 -0.00157203 -1.9732e-06 -0.000335083
8.51058 0 0.783202 -0.00172604 -7.35667e-07 -0.000363593
8.48832 0 0.765951 -0.0018684 1.03909e-07 -0.000377532
8.46695 0 0.749385 -0.00199919 1.05856e-06 -0.000376256
8.44642 0 0.733476 -0.00211633 2.53543e-06 -0.000362164
8.42671 0 0.718198 -0.00222607 4.09868e-06 -0.000335819
8.40778 0 0.703527 -0.00231851 6.28606e-06 -0.000299697
8.3896 0 0.689437 -0.00239063 8.24667e-06 -0.000252701
8.37214 0 0.675907 -0.00245298 9.79246e-06 -0.000198394
8.97926 0 1.22039 -0.00260479 2.48961e-05 0.000196072
8.93841 0 1.18669 -0.00204194 -9.03508e-06 0.000280812
8.89917 0 1.15432 -0.00194564 -7.02e-07 0.000243371
8.8615 0 1.12324 -0.00159262 -5.06558e-06 0.000209531
8.82532 0 1.09339 -0.00133304 -5.33813e-06 0.000103414
8.79057 0 1.06472 -0.0010769 -5.33281e-06 9.71003e-06
8.7572 0 1.03719 -0.000876349 -1.54254e-06 -7.66775e-05
8.72516 0 1.01076 -0.0007365 3.80541e-06 -0.000120424
8.69439 0 0.985369 -0.00064447 2.17232e-06 -0.0001322
8.66483 0 0.960989 -0.000622615 4.96513e-07 -0.000138939
8.63646 0 0.937576 -0.000666122 -4.79599e-06 -0.000158752
8.6092 0 0.915092 -0.000819333 -6.59267e-06 -0.000200341
8.58303 0 0.893501 -0.000963231 -2.44636e-06 -0.000239406
8.5579 0 0.872766 -0.00110319 -1.10064e-06 -0.000277772
8.53376 0 0.852853 -0.00126384 -1.95783e-06 -0.000321806
8.51058 0 0.833731 -0.00143003 -2.20877e-06 -0.000373093
8.48832 0 0.815367 -0.00159234 -1.47351e-06 -0.000424249
8.46695 0 0.797732 -0.00173259 7.05965e-07 -0.00046979
8.44642 0 0.780797 -0.00185461 2.65342e-06 -0.000503567
8.42671 0 0.764534 -0.00196947 3.95728e-06 -0.000523138
8.40778 0 0.748916 -0.00207882 5.43991e-06 -0.000529981
8.3896 0 0.733917 -0.00217783 6.66821e-06 -0.000523656
8.37214 0 0.719514 -0.00226841 7.41959e-06 -0.000504239
8.97926 0 1.29435 -0.00291758 7.12364e-06 0.000183382
8.93841 0 1.25861 -0.00260796 -5.89063e-06 0.000302274
8.89917 0 1.22428 -0.00247201 5.75334e-07 0.00029227
8.8615 0 1.19131 -0.00222603 1.70852e-06 0.000296725
8.82532 0 1.15965 -0.0019348 7.77762e-07 0.000257868
8.79057 0 1.12925 -0.00163112 1.23558e-06 0.000189165
8.7572 0 1.10005 -0.00131745 -2.4489e-06 8.18078e-05
8.72516 0 1.07201 -0.00107498 -1.02611e-06 -3.47599e-05
8.69439 0 1.04509 -0.000879422 2.09942e-06 -0.000133052
8.66483 0 1.01923 -0.000734527 5.75452e-06 -0.000187747
8.63646 0 0.994399 -0.000645463 5.80994e-06 -0.000204682
8.6092 0 0.970552 -0.000632656 4.10314e-06 -0.000197514
8.58303 0 0.947652 -0.000706538 -6.01384e-06 -0.000181317
8.5579 0 0.925661 -0.000886793 -1.30324e-05 -0.000172048
8.53376 0 0.904541 -0.00104249 -1.15696e-05 -0.000183272
8.51058 0 0.88426 -0.00119152 -1.22511e-05 -0.000214949
8.48832 0 0.864784 -0.00133271 -1.14788e-05 -0.000272245
8.46695 0 0.84608 -0.00146246 -9.95275e-06 -0.000346257
8.44642 0 0.828118 -0.00158938 -8.64031e-06 -0.00042156
8.42671 0 0.810869 -0.00171382 -7.24073e-06 -0.000491107
8.40778 0 0.794304 -0.00182888 -5.46146e-06 -0.000548989
8.3896 0 0.778397 -0.00193423 -3.53711e-06 -0.000594008
8.37214 0 0.763121 -0.00203536 -1.25757e-06 -0.000625999
8.97926 0 1.36832 -0.00314984 -7.11364e-06 0.000161587
8.93841 0 1.33053 -0.00305941 -3.64774e-06 0.000323757
8.89917 0 1.29424 -0.00286717 -5.65709e-06 0.000372442
8.8615 0 1.25938 -0.00272452 -7.12758e-06 0.000394546
8.82532 0 1.22592 -0.00250955 -7.58902e-06 0.000398595
8.79057 0 1.19378 -0.00227835 -6.52479e-06 0.000378518
8.7572 0 1.16291 -0.00198316 -7.85164e-06 0.000326179
8.72516 0 1.13327 -0.00164461 -8.97175e-06 0.000228075
8.69439 0 1.10481 -0.00131556 -7.07759e-06 8.67396e-05
8.66483 0 1.07747 -0.00102191 -2.74256e-06 -7.83207e-05
8.63646 0 1.05122 -0.000799635 5.07024e-06 -0.000251202
8.6092 0 1.02601 -0.000690353 1.44748e-05 -0.000413182
8.58303 0 1.0018 -0.000674384 2.3554e-05 -0.000520413
8.5579 0 0.978555 -0.0006878 3.2957e-05 -0.000549376
8.53376 0 0.95623 -0.000707403 2.98359e-05 -0.000522657
8.51058 0 0.934789 -0.00080254 2.22658e-05 -0.000468659
8.48832 0 0.9142 -0.00092182 1.76185e-05 -0.000433579
8.46695 0 0.894427 -0.0010638 1.15487e-05 -0.000421958
8.44642 0 0.875439 -0.00121611 6.30729e-06 -0.000434614
8.42671 0 0.857204 -0.00136807 2.55512e-06 -0.000469159
8.40778 0 0.839693 -0.00151437 2.65691e-07 -0.000516065
8.3896 0 0.822877 -0.00164677 -7.45052e-07 -0.000566119
8.37214 0 0.806727 -0.00176504 -8.66425e-07 -0.000616769
8.97926 0 1.44228 -0.00316477 4.31299e-06 3.08928e-05
8.93841 0 1.40245 -0.00329064 2.59192e-05 7.92845e-05
8.89917 0 1.36419 -0.00313374 1.62863e-05 0.000222645
8.8615 0 1.32746 -0.00305533 7.39246e-06 0.000317837
8.82532 0 1.29218 -0.00292908 -1.83152e-06 0.000403807
8.79057 0 1.25831 -0.00278532 -1.33308e-05 0.000472077
8.7572 0 1.22577 -0.00264031 -2.36742e-05 0.000523862
8.72516 0 1.19453 -0.00246686 -3.3286e-05 0.000556268
8.69439 0 1.16453 -0.0022179 -4.47393e-05 0.000569517
8.66483 0 1.13571 -0.00192036 -5.52979e-05 0.000545129
8.63646 0 1.10804 -0.00160967 -6.5414e-05 0.000489506
8.6092 0 1.08147 -0.00132081 -7.30144e-05 0.000390843
8.58303 0 1.05596 -0.00110047 -7.97053e-05 0.000253607
8.5579 0 1.03145 -0.000977963 -8.08653e-05 9.42302e-05
8.53376 0 1.00792 -0.000942875 -7.27422e-05 -5.43907e-05
8.51058 0 0.985319 -0.000955339 -5.43378e-05 -0.000173222
8.48832 0 0.963616 -0.000980769 -3.76425e-05 -0.000260238
8.46695 0 0.942775 -0.00104037 -2.3085e-05 -0.00033728
8.44642 0 0.92276 -0.00110287 -1.34881e-05 -0.00040296
8.42671 0 0.90354 -0.00118573 -6.57401e-06 -0.000460192
8.40778 0 0.885082 -0.00128752 -3.564e-06 -0.00051429
8.3896 0 0.867357 -0.00139282 -1.80831e-06 -0.0005671
8.37214 0 0.850334 -0.001498 -1.07348e-06 -0.000618261
7.66922 0 0.966948 -0.000849551 -8.4958e-06 -0.0004504
7.67296 0 0.988324 -0.000805758 -8.65598e-06 -0.00033494
7.67685 0 1.01058 -0.000766131 -8.43991e-06 -0.0002261
7.68091 0 1.03376 -0.00073785 -7.47891e-06 -0.00013241
7.68513 0 1.0579 -0.000736023 -5.72425e-06 -6.22054e-05
7.68953 0 1.08303 -0.000808533 -3.322e-06 -1.62794e-05
7.69411 0 1.1092 -0.00106861 -9.49021e-08 -1.88533e-06
7.69888 0 1.13646 -0.00154714 1.34246e-06 -2.80187e-06
7.70385 0 1.16483 -0.00214639 1.76177e-06 -1.69232e-05
7.70902 0 1.19439 -0.00262832 1.37801e-06 -3.33526e-05
7.7144 0 1.22516 -0.00292517 2.35802e-07 -4.17693e-05
7.72001 0 1.2572 -0.00313608 9.87092e-08 -4.847e-05
7.72585 0 1.29057 -0.003322 2.56964e-07 -6.33509e-05
7.73193 0 1.32532 -0.00347786 6.79763e-07 -7.61511e-05
7.70425 0 0.907776 -0.00100267 -6.1824e-06 -0.000793285
7.70851 0 0.926708 -0.000959547 -6.73181e-06 -0.00069423
7.71294 0 0.946421 -0.000914306 -7.22432e-06 -0.000586548
7.71756 0 0.966948 -0.000865858 -7.81612e-06 -0.000476057
7.72237 0 0.988324 -0.000815897 -8.22561e-06 -0.00037033
7.72738 0 1.01058 -0.000770625 -8.21279e-06 -0.000265378
7.7326 0 1.03376 -0.000735954 -7.48525e-06 -0.000172178
7.73803 0 1.0579 -0.000722125 -5.96199e-06 -0.000100146
7.74368 0 1.08303 -0.000767952 -2.91156e-06 -4.5758e-05
7.74957 0 1.1092 -0.000993597 7.68339e-07 -1.7373e-05
7.7557 0 1.13646 -0.00145534 1.57788e-06 -5.3906e-06
7.76209 0 1.16483 -0.00205406 8.97594e-07 -4.37234e-06
7.76874 0 1.19439 -0.00255756 7.7677e-08 -9.43643e-06
7.77566 0 1.22516 -0.00287529 -5.076e-07 -1.09104e-05
7.78287 0 1.2572 -0.00309633 -3.79153e-07 -1.16376e-05
7.79038 0 1.29057 -0.00328911 5.13886e-07 -1.86252e-05
7.7982 0 1.32532 -0.00344656 2.33786e-07 -3.34012e-05
7.73984 0 0.872138 -0.00111549 -4.81687e-06 -0.000976747
7.74464 0 0.889596 -0.00107426 -5.27953e-06 -0.000893883
7.74964 0 0.907776 -0.00103053 -5.82809e-06 -0.000804069
7.75484 0 0.926708 -0.000984545 -6.27578e-06 -0.000708185
7.76027 0 0.946421 -0.000935322 -6.8424e-06 -0.000607438
7.76591 0 0.966948 -0.000886659 -7.12208e-06 -0.000499274
7.77179 0 0.988324 -0.000833447 -7.46022e-06 -0.000394376
7.77791 0 1.01058 -0.000781499 -8.01321e-06 -0.000299179
7.78428 0 1.03376 -0.00074018 -7.64867e-06 -0.00021142
7.79092 0 1.0579 -0.000719147 -5.93644e-06 -0.000139318
7.79783 0 1.08303 -0.000747365 -2.60108e-06 -7.69611e-05
7.80503 0 1.1092 -0.00094165 4.23174e-07 -3.56356e-05
7.81253 0 1.13646 -0.00138294 9.70658e-07 -9.83145e-06
7.82033 0 1.16483 -0.00197717 -4.4441e-08 5.23057e-06
7.82846 0 1.19439 -0.00249484 -6.47916e-07 1.21755e-05
7.83692 0 1.22516 -0.00283211 -5.90475e-07 1.88732e-05
7.84573 0 1.2572 -0.00306189 -7.95927e-07 2.49443e-05
7.85491 0 1.29057 -0.00325967 3.906e-08 1.94061e-05
7.86446 0 1.32532 -0.0034223 5.76649e-07 7.81589e-06
7.87441 0 1.3615 -0.00356762 1.215e-06 -1.63376e-05
7.778 0 0.855372 -0.00119007 -3.86819e-06 -0.00105015
7.78344 0 0.872138 -0.00114903 -4.50004e-06 -0.000977927
7.78912 0 0.889596 -0.00110556 -5.05148e-06 -0.000898552
7.79503 0 0.907776 -0.00105918 -5.56196e-06 -0.000811879
7.80118 0 0.926708 -0.00101019 -5.97547e-06 -0.000718448
7.80759 0 0.946421 -0.000958453 -6.44489e-06 -0.000622034
7.81426 0 0.966948 -0.000905505 -6.73236e-06 -0.000519559
7.82121 0 0.988324 -0.000852141 -7.04535e-06 -0.000415266
7.82844 0 1.01058 -0.000798068 -7.60612e-06 -0.000323019
7.83597 0 1.03376 -0.000750331 -7.69863e-06 -0.000242164
7.84382 0 1.0579 -0.000721975 -5.91216e-06 -0.000173631
7.85199 0 1.08303 -0.000738265 -2.57163e-06 -0.000109053
7.86049 0 1.1092 -0.000910764 1.20051e-07 -5.46402e-05
7.86935 0 1.13646 -0.00132959 -1.81475e-07 -1.62118e-05
7.87857 0 1.16483 -0.0019159 -6.83114e-07 1.30933e-05
7.88818 0 1.19439 -0.00244308 -2.4307e-07 3.47703e-05
7.89818 0 1.22516 -0.00279082 -8.44521e-07 5.03561e-05
7.90859 0 1.2572 -0.00303002 -6.60564e-07 6.05146e-05
7.91944 0 1.29057 -0.00322765 -4.13976e-07 5.90316e-05
7.93073 0 1.32532 -0.00339111 -2.68969e-07 5.02604e-05
7.94249 0 1.3615 -0.00353723 3.94372e-07 2.70115e-05
7.81473 0 0.839271 -0.00126828 -2.98741e-06 -0.00111129
7.82076 0 0.855372 -0.00122893 -3.55355e-06 -0.00104739
7.82705 0 0.872138 -0.00118621 -4.1035e-06 -0.000976988
7.8336 0 0.889596 -0.00114008 -4.61451e-06 -0.000899657
7.84042 0 0.907776 -0.00109067 -5.10708e-06 -0.000815427
7.84752 0 0.926708 -0.00103855 -5.49384e-06 -0.000725003
7.85491 0 0.946421 -0.000983962 -5.86007e-06 -0.000631559
7.86261 0 0.966948 -0.000927339 -6.20752e-06 -0.000534486
7.87062 0 0.988324 -0.000871775 -6.33666e-06 -0.000436096
7.87897 0 1.01058 -0.000816908 -6.87757e-06 -0.000345003
7.88766 0 1.03376 -0.000766556 -7.0015e-06 -0.000265594
7.89671 0 1.0579 -0.000731589 -5.5297e-06 -0.000200227
7.90614 0 1.08303 -0.000740146 -2.29808e-06 -0.000136197
7.91595 0 1.1092 -0.000896132 -2.66624e-07 -7.25675e-05
7.92617 0 1.13646 -0.00129927 -1.23369e-06 -2.05994e-05
7.93681 0 1.16483 -0.00187039 -1.67065e-06 2.47212e-05
7.94789 0 1.19439 -0.00239525 -1.46149e-06 5.86271e-05
7.95943 0 1.22516 -0.00275426 -1.19889e-06 8.1444e-05
7.97145 0 1.2572 -0.00299685 -1.04787e-06 9.73324e-05
7.98396 0 1.29057 -0.00319611 -1.33008e-07 9.93569e-05
7.99699 0 1.32532 -0.00336166 3.27489e-07 9.12844e-05
8.01056 0 1.3615 -0.00350847 4.77795e-07 6.7842e-05
8.02469 0 1.39917 -0.00359417 1.37648e-07 4.76459e-05
7.85669 0 0.839271 -0.00130199 -3.06733e-06 -0.00110588
7.86353 0 0.855372 -0.00126111 -3.4963e-06 -0.00104264
7.87066 0 0.872138 -0.00121732 -3.88613e-06 -0.000972405
7.87808 0 0.889596 -0.0011695 -4.40412e-06 -0.000896245
7.8858 0 0.907776 -0.00111753 -4.94588e-06 -0.000814538
7.89385 0 0.926708 -0.00106203 -5.36995e-06 -0.000726696
7.90223 0 0.946421 -0.00100337 -5.74236e-06 -0.000635556
7.91095 0 0.966948 -0.000942541 -6.11402e-06 -0.000542046
7.92004 0 0.988324 -0.00088327 -6.19915e-06 -0.000448513
7.9295 0 1.01058 -0.000826056 -6.61851e-06 -0.000361496
7.93935 0 1.03376 -0.000775598 -6.53151e-06 -0.000283692
7.94961 0 1.0579 -0.000739301 -5.01133e-06 -0.000220287
7.96029 0 1.08303 -0.000747402 -1.95491e-06 -0.000157905
7.97141 0 1.1092 -0.000894876 -1.03526e-06 -8.9308e-05
7.98299 0 1.13646 -0.00128598 -2.0933e-06 -2.27446e-05
7.99505 0 1.16483 -0.00184208 -2.89907e-06 3.67933e-05
8.00761 0 1.19439 -0.00235806 -3.0783e-06 8.6057e-05
8.02069 0 1.22516 -0.00271987 -2.36681e-06 0.00011788
8.03431 0 1.2572 -0.00296752 -1.54863e-06 0.000135568
8.04849 0 1.29057 -0.00316669 -7.8291e-07 0.000137232
8.06326 0 1.32532 -0.00333299 3.44705e-07 0.000130624
8.07864 0 1.3615 -0.00347893 1.16104e-06 0.000108741
8.09465 0 1.39917 -0.00356592 5.30729e-07 8.58386e-05
7.89865 0 0.839271 -0.00134763 -2.97208e-06 -0.00109221
7.9063 0 0.855372 -0.00130511 -3.43135e-06 -0.00103118
7.91427 0 0.872138 -0.00125875 -3.84913e-06 -0.00096312
7.92256 0 0.889596 -0.00120848 -4.12996e-06 -0.000887258
7.93119 0 0.907776 -0.00115372 -4.33003e-06 -0.000805856
7.94019 0 0.926708 -0.00109504 -4.51492e-06 -0.00071939
7.94955 0 0.946421 -0.00103263 -4.98876e-06 -0.00063007
7.9593 0 0.966948 -0.00096769 -5.48344e-06 -0.00054073
7.96945 0 0.988324 -0.000904227 -5.61465e-06 -0.00045224
7.98003 0 1.01058 -0.000842581 -6.07158e-06 -0.000369755
7.99104 0 1.03376 -0.000789281 -5.75322e-06 -0.0002967
8.0025 0 1.0579 -0.00075256 -4.2979e-06 -0.000236132
8.01444 0 1.08303 -0.000763534 -1.15688e-06 -0.000173648
8.02687 0 1.1092 -0.000910074 -1.96467e-06 -0.000100516
8.03982 0 1.13646 -0.00129175 -3.15924e-06 -2.18986e-05
8.0533 0 1.16483 -0.00182768 -3.88001e-06 5.4215e-05
8.06733 0 1.19439 -0.00233075 -3.35302e-06 0.000115014
8.08195 0 1.22516 -0.00269026 -2.38444e-06 0.000152197
8.09717 0 1.2572 -0.00294303 -1.87109e-06 0.000170695
8.11302 0 1.29057 -0.00314154 -1.50471e-06 0.000173428
8.12952 0 1.32532 -0.00330901 -9.90712e-07 0.000164673
8.14671 0 1.3615 -0.00345126 3.07162e-07 0.000140375
8.16461 0 1.39917 -0.00353646 1.34926e-06 0.000116782
8.18324 0 1.43841 -0.0035922 1.35773e-06 8.40086e-05
7.94062 0 0.839271 -0.00138038 -2.50819e-06 -0.00108614
7.94907 0 0.855372 -0.00133468 -2.88319e-06 -0.0010229
7.95787 0 0.872138 -0.00128458 -3.35253e-06 -0.000952821
7.96704 0 0.889596 -0.00123019 -3.78036e-06 -0.000876316
7.97658 0 0.907776 -0.00117149 -4.25084e-06 -0.00079489
7.98652 0 0.926708 -0.00110859 -4.71288e-06 -0.000709912
7.99687 0 0.946421 -0.00104197 -5.11463e-06 -0.000623547
8.00765 0 0.966948 -0.000972414 -5.56559e-06 -0.000537227
8.01887 0 0.988324 -0.000902979 -5.86297e-06 -0.00045119
8.03056 0 1.01058 -0.000837688 -6.17379e-06 -0.000370686
8.04272 0 1.03376 -0.00078324 -5.80746e-06 -0.000301137
8.0554 0 1.0579 -0.000751615 -3.72245e-06 -0.000242887
8.06859 0 1.08303 -0.000772029 -1.2602e-06 -0.000180868
8.08233 0 1.1092 -0.00093412 -2.62407e-06 -0.000104877
8.09664 0 1.13646 -0.00131157 -4.93076e-06 -1.10535e-05
8.11154 0 1.16483 -0.00182969 -4.22065e-06 8.02064e-05
8.12705 0 1.19439 -0.00231408 -3.96221e-06 0.000144775
8.14321 0 1.22516 -0.00267007 -2.45904e-06 0.000183486
8.16003 0 1.2572 -0.00292335 -1.94462e-06 0.000200993
8.17755 0 1.29057 -0.00311975 -1.30807e-06 0.000201978
8.19579 0 1.32532 -0.00328393 -8.30305e-07 0.000194003
8.21479 0 1.3615 -0.00342039 -4.50332e-07 0.000172115
8.23457 0 1.39917 -0.00349924 1.40944e-07 0.000148885
8.25516 0 1.43841 -0.00354116 1.276e-06 0.000116398
8.27661 0 1.47926 -0.00341818 -1.44275e-07 8.76879e-05
7.99184 0 0.855372 -0.00138018 -2.37831e-06 -0.000997935
8.00148 0 0.872138 -0.00132947 -2.86476e-06 -0.000929287
8.01152 0 0.889596 -0.00127392 -3.03616e-06 -0.000853782
8.02197 0 0.907776 -0.00121374 -3.28649e-06 -0.000772835
8.03286 0 0.926708 -0.00114839 -3.54103e-06 -0.000687569
8.04419 0 0.946421 -0.0010784 -3.65856e-06 -0.000601277
8.056 0 0.966948 -0.00100497 -3.9202e-06 -0.000517209
8.06829 0 0.988324 -0.000930778 -4.39816e-06 -0.000436348
8.08109 0 1.01058 -0.000859534 -4.86486e-06 -0.000361658
8.09441 0 1.03376 -0.000802201 -4.5374e-06 -0.000298146
8.10829 0 1.0579 -0.000772979 -2.52489e-06 -0.000242339
8.12274 0 1.08303 -0.000806833 -9.89078e-07 -0.000177819
8.13779 0 1.1092 -0.000985506 -2.50421e-06 -9.80572e-05
8.15346 0 1.13646 -0.00135431 -5.78472e-06 4.54898e-06
8.16978 0 1.16483 -0.00184986 -4.51747e-06 0.00010281
8.18677 0 1.19439 -0.00230894 -3.8062e-06 0.000168695
8.20447 0 1.22516 -0.00265454 -2.24741e-06 0.000208857
8.22289 0 1.2572 -0.00290183 -1.76155e-06 0.000231088
8.24208 0 1.29057 -0.00309377 -1.07232e-06 0.000234373
8.26206 0 1.32532 -0.00325294 -6.20164e-07 0.0002252
8.28286 0 1.3615 -0.00338335 -2.40572e-07 0.000201692
8.30452 0 1.39917 -0.00345968 -2.08118e-07 0.000174209
8.32708 0 1.43841 -0.00348713 3.04654e-07 0.000140368
8.35057 0 1.47926 -0.00335355 -3.79602e-07 0.00010573
8.03461 0 0.855372 -0.00140293 -3.25055e-06 -0.000986373
8.04509 0 0.872138 -0.00134615 -3.77137e-06 -0.000915334
8.056 0 0.889596 -0.00128299 -4.16607e-06 -0.000838714
8.06736 0 0.907776 -0.00121457 -4.75025e-06 -0.000756953
8.07919 0 0.926708 -0.00114199 -5.30218e-06 -0.000670385
8.09151 0 0.946421 -0.00106608 -5.60203e-06 -0.00058417
8.10434 0 0.966948 -0.000987174 -6.06915e-06 -0.000501065
8.1177 0 0.988324 -0.000909449 -6.2957e-06 -0.00042168
8.13161 0 1.01058 -0.000836533 -6.20796e-06 -0.000349904
8.1461 0 1.03376 -0.000778947 -5.59954e-06 -0.000292912
8.16119 0 1.0579 -0.000753458 -3.442e-06 -0.000242981
8.17689 0 1.08303 -0.000809518 -2.61483e-06 -0.000175428
8.19325 0 1.1092 -0.00101804 -3.90789e-06 -8.18499e-05
8.21028 0 1.13646 -0.00139363 -6.0972e-06 2.79751e-05
8.22802 0 1.16483 -0.00187009 -4.75992e-06 0.000128131
8.24649 0 1.19439 -0.00230165 -3.62812e-06 0.000199113
8.26572 0 1.22516 -0.00263416 -2.17429e-06 0.000242677
8.28575 0 1.2572 -0.00287466 -1.72905e-06 0.000262625
8.30661 0 1.29057 -0.00306186 -8.38975e-07 0.000263219
8.32832 0 1.32532 -0.00321797 -4.84566e-07 0.000251236
8.35094 0 1.3615 -0.00334423 -1.56264e-07 0.000225439
8.37448 0 1.39917 -0.0034176 1.13375e-07 0.000193287
8.399 0 1.43841 -0.00342878 -1.67719e-07 0.000157973
8.42454 0 1.47926 -0.00328591 -7.19007e-07 0.000115782
8.07738 0 0.855372 -0.00145087 -1.99313e-06 -0.000937402
8.08869 0 0.872138 -0.00139236 -2.14352e-06 -0.000863873
8.10048 0 0.889596 -0.00132888 -2.02446e-06 -0.000787459
8.11275 0 0.907776 -0.00125979 -1.98768e-06 -0.000709737
8.12553 0 0.926708 -0.00118565 -1.87704e-06 -0.000629294
8.13883 0 0.946421 -0.00110724 -1.99033e-06 -0.000547619
8.15269 0 0.966948 -0.00102666 -2.54167e-06 -0.000464261
8.16712 0 0.988324 -0.000947051 -2.92387e-06 -0.000386048
8.18214 0 1.01058 -0.000871918 -2.98727e-06 -0.000321336
8.19779 0 1.03376 -0.000814208 -2.47613e-06 -0.000270269
8.21408 0 1.0579 -0.000797436 -6.48043e-07 -0.000221427
8.23105 0 1.08303 -0.00087633 -1.2387e-06 -0.000153934
8.24871 0 1.1092 -0.00110057 -3.71065e-06 -5.26953e-05
8.26711 0 1.13646 -0.00147078 -5.42309e-06 6.36649e-05
8.28626 0 1.16483 -0.00191152 -4.85006e-06 0.000160278
8.30621 0 1.19439 -0.00230635 -3.33902e-06 0.000228307
8.32698 0 1.22516 -0.00261895 -2.17198e-06 0.000269694
8.34861 0 1.2572 -0.00284887 -1.52883e-06 0.000288627
8.37113 0 1.29057 -0.00303029 -4.58941e-07 0.000287036
8.39459 0 1.32532 -0.00318252 -1.00656e-07 0.000269962
8.41901 0 1.3615 -0.00330178 -3.79712e-08 0.000240339
8.44444 0 1.39917 -0.0033694 1.69712e-07 0.000203251
8.47092 0 1.43841 -0.00336628 -3.134e-07 0.000167297
8.4985 0 1.47926 -0.00321707 -6.06614e-07 0.000117615