# kMean  POINT_DATA 63840
# x  y  z  kMean
0 0.5 3.39583e-17 0.00375
0 0.5 -0.00617931 0.00375
0 0.5 0.00617931 0.00375
0.0124865 0.5 -0.00617931 0.0037503
0.0124865 0.5 0.00617931 0.00375031
0 0.5 -0.0688207 0.00375
0 0.5 0.0688207 0.00375
0.0124865 0.5 -0.0688207 0.0037503
0.0124865 0.5 0.0688207 0.00375031
0 0.5 -0.075 0.00375
0 0.5 0.075 0.00375
0 0.5 -0.0811793 0.00375
0 0.5 0.0811793 0.00375
0.0124865 0.5 -0.0811793 0.0037503
0.0124865 0.5 0.0811793 0.00375033
0.075776 0.5 -0.0375 0.00375184
0.075776 0.5 0.0375 0.00375189
0.075776 0.5 -0.1125 0.00375183
0.075776 0.5 0.1125 0.003752
0 0.5 -0.143821 0.00375
0 0.5 0.143821 0.00375
0.0124865 0.5 -0.143821 0.0037503
0.0124865 0.5 0.143821 0.00375033
0 0.5 -0.15 0.00375
0 0.5 0.15 0.00375
0.151149 0.5 -0.00137318 0.00375408
0 0.5 -0.156179 0.00375
0 0.5 0.156179 0.00375
0.0124865 0.5 -0.156179 0.00375031
0.0124865 0.5 0.156179 0.00375036
0.151149 0.5 0.075 0.0037542
0.151149 0.5 -0.075 0.00375407
0.075776 0.5 -0.1875 0.00375187
0.075776 0.5 0.1875 0.00375216
0.151149 0.5 0.15 0.00375442
0.151149 0.5 -0.15 0.00375412
0 0.5 -0.218821 0.00375
0 0.5 0.218821 0.00375
0.0124865 0.5 -0.218821 0.00375031
0.0124865 0.5 0.218821 0.00375036
0.219992 0.5 0.0375 0.00375622
0.219993 0.5 -0.0375 0.00375614
0 0.5 -0.225 0.00375
0 0.5 0.225 0.00375
0 0.5 -0.231179 0.00375
0 0.5 0.231179 0.00375
0.0124865 0.5 -0.231179 0.00375032
0.0124865 0.5 0.231179 0.00375039
0.219992 0.5 0.1125 0.00375642
0.219993 0.5 -0.1125 0.00375617
0.151149 0.5 -0.225 0.00375428
0.151149 0.5 0.225 0.00375474
0.075776 0.5 -0.2625 0.00375198
0.075776 0.5 0.2625 0.00375237
0.288069 0.5 -0.00137318 0.00376066
0.219992 0.5 0.1875 0.0037568
0.219993 0.5 -0.1875 0.00375631
0 0.5 0.293821 0.00375
0 0.5 -0.293821 0.00375
0.0124865 0.5 -0.293821 0.00375032
0.0124865 0.5 0.293821 0.00375039
0.288069 0.5 -0.075 0.00376069
0.288069 0.5 0.075 0.0037608
0 0.5 -0.3 0.00375
0 0.5 0.3 0.00375
0 0.5 0.306179 0.00375
0 0.5 -0.306179 0.00375
0.0124865 0.5 -0.306179 0.00375035
0.0124865 0.5 0.306179 0.00375043
0.288069 0.5 -0.15 0.00376082
0.288069 0.5 0.15 0.00376106
0.151149 0.5 -0.3 0.00375455
0.151149 0.5 0.3 0.00375514
0.219992 0.5 -0.2625 0.00375666
0.219992 0.5 0.2625 0.00375731
0.075776 0.5 0.3375 0.0037526
0.075776 0.5 -0.3375 0.00375212
0.350249 0.5 -0.0375 0.0037649
0.350249 0.5 0.0375 0.00376493
0.288069 0.5 -0.225 0.0037611
0.288069 0.5 0.225 0.00376149
0.350249 0.5 0.1125 0.00376508
0.350249 0.5 -0.1125 0.00376499
0 0.5 0.368821 0.00375
0 0.5 -0.368821 0.00375
0.0124865 0.5 -0.368821 0.00375035
0.0124865 0.5 0.368821 0.00375043
0 0.5 -0.375 0.00375
0 0.5 0.375 0.00375
0 0.5 -0.381179 0.00375
0 0.5 0.381179 0.00375
0.0124865 0.5 -0.381179 0.00375038
0.0124865 0.5 0.381179 0.00375047
0.350249 0.5 -0.1875 0.00376522
0.350249 0.5 0.1875 0.00376539
0.219992 0.5 -0.3375 0.0037571
0.219992 0.5 0.3375 0.00375792
0.151149 0.5 -0.375 0.00375487
0.151149 0.5 0.375 0.00375557
0.411736 0.5 -0.00137318 0.00377194
0.288069 0.5 -0.3 0.00376152
0.288069 0.5 0.3 0.00376205
0.411736 0.5 -0.075 0.00377204
0.411736 0.5 0.075 0.00377203
0.075776 0.5 -0.4125 0.0037523
0.075776 0.5 0.4125 0.00375283
0.350249 0.5 -0.2625 0.00376561
0.350249 0.5 0.2625 0.00376588
0.411736 0.5 -0.15 0.00377219
0.411736 0.5 0.15 0.00377218
0 0.5 -0.443821 0.00375
0 0.5 0.443821 0.00375
0.0124865 0.5 -0.443821 0.00375038
0.0124865 0.5 0.443821 0.00375047
0 0.5 -0.45 0.00375
0 0.5 0.45 0.00375
0 0.5 -0.456179 0.00375
0 0.5 0.456179 0.00375
0.0124865 0.5 -0.456179 0.00375041
0.0124865 0.5 0.456179 0.0037505
0.219992 0.5 -0.4125 0.00375759
0.219993 0.5 0.4125 0.00375857
0.411736 0.5 -0.225 0.00377244
0.411736 0.5 0.225 0.00377247
0.467897 0.5 0.0375 0.00377863
0.467897 0.5 -0.0375 0.00377867
0.288069 0.5 -0.375 0.003762
0.288069 0.5 0.375 0.0037627
0.151149 0.5 -0.45 0.00375521
0.151149 0.5 0.45 0.00375602
0.467897 0.5 -0.1125 0.00377876
0.467897 0.5 0.1125 0.00377865
0.350249 0.5 0.3375 0.00376651
0.350249 0.5 -0.3375 0.0037661
0.075776 0.5 -0.4875 0.00375248
0.075776 0.5 0.4875 0.00375306
0.467897 0.5 -0.1875 0.00377894
0.467897 0.5 0.1875 0.00377877
0.411736 0.5 -0.3 0.00377279
0.411736 0.5 0.3 0.00377291
0 0.5 -0.518821 0.00375
0 0.5 0.518821 0.00375
0.0124865 0.5 0.518821 0.0037505
0.0124865 0.5 -0.518821 0.00375041
0.523432 0.5 -0.00137318 0.00378805
0 0.5 -0.525 0.00375
0 0.5 0.525 0.00375
0.523432 0.5 -0.075 0.00378817
0.523432 0.5 0.075 0.00378808
0 0.5 -0.531179 0.00375
0 0.5 0.531179 0.00375
0.0124865 0.5 -0.531179 0.00375044
0.0124865 0.5 0.531179 0.00375054
0.288069 0.5 -0.45 0.00376251
0.288069 0.5 0.45 0.00376339
0.219992 0.5 -0.4875 0.00375811
0.219993 0.5 0.4875 0.00375923
0.467897 0.5 -0.2625 0.00377916
0.467897 0.5 0.2625 0.00377902
0.350249 0.5 -0.4125 0.00376662
0.350249 0.5 0.4125 0.00376723
0.523432 0.5 -0.15 0.00378822
0.523432 0.5 0.15 0.00378804
0.151149 0.5 -0.525 0.00375556
0.151149 0.5 0.525 0.00375647
0.411736 0.5 -0.375 0.00377317
0.411736 0.5 0.375 0.00377346
0.075776 0.5 -0.5625 0.00375266
0.075776 0.5 0.5625 0.00375328
0.523432 0.5 -0.225 0.00378828
0.523432 0.5 0.225 0.00378807
0.574156 0.5 -0.0375 0.00379709
0.574156 0.5 0.0375 0.00379704
0.467897 0.5 0.3375 0.00377941
0.467897 0.5 -0.3375 0.00377946
0.574156 0.5 -0.1125 0.00379709
0.574156 0.5 0.1125 0.00379692
0 0.5 -0.593821 0.00375
0 0.5 0.593821 0.00375
0.0124865 0.5 -0.593821 0.00375044
0.0124865 0.5 0.593821 0.00375054
0.288069 0.5 -0.525 0.003763
0.288069 0.5 0.525 0.00376408
0 0.5 -0.6 0.00375
0 0.5 0.6 0.00375
0.350249 0.5 -0.4875 0.00376712
0.350249 0.5 0.4875 0.00376797
0.523432 0.5 -0.3 0.00378834
0.523432 0.5 0.3 0.00378819
0.219992 0.5 -0.5625 0.0037586
0.219992 0.5 0.5625 0.00375987
0.574156 0.5 -0.1875 0.00379705
0.574156 0.5 0.1875 0.00379679
0 0.5 -0.606179 0.00375
0 0.5 0.606179 0.00375
0.0124865 0.5 -0.606179 0.00375047
0.0124865 0.5 0.606179 0.00375057
0.411736 0.5 -0.45 0.00377352
0.411736 0.5 0.45 0.00377406
0.151149 0.5 -0.6 0.00375589
0.151149 0.5 0.6 0.00375688
0.62168 0.5 2.64545e-17 0.00380794
0.467897 0.5 0.4125 0.00377988
0.467897 0.5 -0.4125 0.0037797
0.624316 0.5 0.0729402 0.00380855
0.624316 0.5 -0.075 0.00380859
0.574156 0.5 -0.2625 0.00379695
0.574157 0.5 0.2625 0.00379668
0.075776 0.5 -0.6375 0.00375283
0.075776 0.5 0.6375 0.00375346
0.624316 0.5 -0.15 0.00380842
0.624316 0.5 0.15 0.00380833
0.523432 0.5 -0.375 0.00378834
0.523432 0.5 0.375 0.00378839
0.350249 0.5 -0.5625 0.00376757
0.350249 0.5 0.5625 0.0037687
0.624316 0.5 -0.225 0.00380812
0.624316 0.5 0.225 0.00380802
0.288069 0.5 0.6 0.00376474
0.288069 0.5 -0.6 0.00376343
0.574156 0.5 -0.3375 0.00379677
0.574156 0.5 0.3375 0.00379664
0.411736 0.5 -0.525 0.0037738
0.411736 0.5 0.525 0.00377467
0 0.5 -0.668821 0.00375
0 0.5 0.668821 0.00375
0.0124865 0.5 -0.668821 0.00375047
0.0124865 0.5 0.668821 0.00375057
0.67013 0.5 0.0375 0.00381963
0.67013 0.5 -0.0375 0.00381961
0.219993 0.5 -0.6375 0.00375905
0.219993 0.5 0.6375 0.00376046
0 0.5 -0.675 0.00375
0 0.5 0.675 0.00375
0.467897 0.5 0.4875 0.00378038
0.467897 0.5 -0.4875 0.00377985
0.67013 0.5 -0.1125 0.00381938
0.67013 0.5 0.1125 0.00381941
0 0.5 -0.681179 0.00375
0 0.5 0.681179 0.00375
0.0124865 0.5 -0.681179 0.00375049
0.0124865 0.5 0.681179 0.0037506
0.523432 0.5 -0.45 0.00378823
0.523432 0.5 0.45 0.00378864
0.151149 0.5 -0.675 0.00375618
0.151149 0.5 0.675 0.00375725
0.624316 0.5 -0.3 0.00380767
0.624316 0.5 0.3 0.0038077
0.67013 0.5 0.1875 0.003819
0.67013 0.5 -0.1875 0.00381897
0.574156 0.5 -0.4125 0.00379645
0.574157 0.5 0.4125 0.00379666
0.708171 0.5 1.88651e-17 0.00383083
0.075776 0.5 -0.7125 0.00375298
0.075776 0.5 0.7125 0.00375362
0.715434 0.5 0.0736268 0.00383265
0.715434 0.5 -0.075 0.00383274
0.67013 0.5 0.2625 0.00381847
0.67013 0.5 -0.2625 0.00381836
0.350249 0.5 -0.6375 0.00376794
0.350249 0.5 0.6375 0.00376937
0.411736 0.5 -0.6 0.00377399
0.411736 0.5 0.6 0.00377524
0.624316 0.5 -0.375 0.00380703
0.624316 0.5 0.375 0.0038074
0.715434 0.5 -0.15 0.0038322
0.715434 0.5 0.15 0.00383253
0.467897 0.5 -0.5625 0.0037799
0.467897 0.5 0.5625 0.00378087
0.288069 0.5 -0.675 0.0037638
0.288069 0.5 0.675 0.00376534
0.523432 0.5 -0.525 0.00378798
0.523432 0.5 0.525 0.00378888
0 0.5 -0.743821 0.00375
0 0.5 0.743821 0.00375
0.0124865 0.5 -0.743821 0.00375049
0.0124865 0.5 0.743821 0.0037506
0.219992 0.5 0.7125 0.00376097
0.219992 0.5 -0.7125 0.00375944
0.715434 0.5 -0.225 0.00383135
0.715434 0.5 0.225 0.00383188
0 0.5 -0.75 0.00375
0 0.5 0.75 0.00375
0.67013 0.5 0.3375 0.00381787
0.67013 0.5 -0.3375 0.00381747
0.574156 0.5 -0.4875 0.00379597
0.574156 0.5 0.4875 0.00379668
0 0.5 -0.756179 0.00375
0 0.5 0.756179 0.00375
0.0124865 0.5 -0.756179 0.00375051
0.0124865 0.5 0.756179 0.00375062
0.756813 0.5 -0.0375 0.00384564
0.756813 0.5 0.0375 0.00384582
0.151149 0.5 -0.75 0.00375642
0.151149 0.5 0.75 0.00375755
0.756813 0.5 -0.1125 0.00384507
0.756813 0.5 0.1125 0.00384556
0.624316 0.5 -0.45 0.00380619
0.624316 0.5 0.45 0.0038071
0.715434 0.5 -0.3 0.00383019
0.715434 0.5 0.3 0.00383104
0.756813 0.5 0.1875 0.0038449
0.756813 0.5 -0.1875 0.00384412
0.67013 0.5 -0.4125 0.00381635
0.67013 0.5 0.4125 0.00381731
0.411736 0.5 -0.675 0.00377406
0.411736 0.5 0.675 0.00377575
0.467897 0.5 0.6375 0.0037813
0.467897 0.5 -0.6375 0.00377981
0.075776 0.5 -0.7875 0.00375309
0.075776 0.5 0.7875 0.00375374
0.350249 0.5 -0.7125 0.0037682
0.350249 0.5 0.7125 0.00376997
0.523432 0.5 -0.6 0.00378758
0.523432 0.5 0.6 0.00378907
0.797732 0.5 2.68882e-17 0.0038605
0.756813 0.5 -0.2625 0.00384276
0.756814 0.5 0.2625 0.00384392
0.797732 0.5 0.0736268 0.00386042
0.797732 0.5 -0.075 0.00385994
0.288069 0.5 -0.75 0.00376407
0.288069 0.5 0.75 0.00376584
0.574156 0.5 -0.5625 0.0037953
0.574157 0.5 0.5625 0.00379666
0.715434 0.5 -0.375 0.0038287
0.715434 0.5 0.375 0.0038301
0.797732 0.5 -0.15 0.00385888
0.797732 0.5 0.15 0.00386002
0.624316 0.5 -0.525 0.00380513
0.624316 0.5 0.525 0.00380674
0.219992 0.5 -0.7875 0.00375975
0.219992 0.5 0.7875 0.00376139
0 0.5 -0.818821 0.00375
0 0.5 0.818821 0.00375
0.0124865 0.5 0.818821 0.00375062
0.0124865 0.5 -0.818821 0.00375051
0 0.5 -0.825 0.00375
0 0.5 0.825 0.00375
0.756813 0.5 0.3375 0.0038427
0.756814 0.5 -0.3375 0.003841
0.67013 0.5 -0.4875 0.00381496
0.67013 0.5 0.4875 0.00381666
0.797732 0.5 -0.225 0.00385731
0.797732 0.5 0.225 0.00385901
0 0.5 -0.831179 0.00375
0 0.5 0.831179 0.00375
0.0124865 0.5 -0.831179 0.00375052
0.0124865 0.5 0.831179 0.00375063
0.835106 0.5 0.0375 0.00387487
0.835106 0.5 -0.0375 0.00387442
0.151149 0.5 -0.825 0.00375661
0.151149 0.5 0.825 0.00375779
0.835106 0.5 0.1125 0.00387462
0.835106 0.5 -0.1125 0.00387337
0.715434 0.5 -0.45 0.0038269
0.715434 0.5 0.45 0.0038291
0.797732 0.5 -0.3 0.00385528
0.797732 0.5 0.3 0.00385763
0.467897 0.5 0.7125 0.00378164
0.467897 0.5 -0.7125 0.00377959
0.523432 0.5 -0.675 0.00378703
0.523432 0.5 0.675 0.00378918
0.411736 0.5 -0.75 0.00377401
0.411736 0.5 0.75 0.00377616
0.835106 0.5 -0.1875 0.00387171
0.835106 0.5 0.1875 0.00387371
0.574156 0.5 -0.6375 0.00379446
0.574157 0.5 0.6375 0.00379656
0.350249 0.5 -0.7875 0.00376835
0.350249 0.5 0.7875 0.00377045
0.756813 0.5 -0.4125 0.00383887
0.756814 0.5 0.4125 0.00384135
0.075776 0.5 -0.8625 0.00375318
0.075776 0.5 0.8625 0.00375381
0.624316 0.5 0.6 0.0038063
0.624316 0.5 -0.6 0.00380387
0.872064 0.5 5.91974e-17 0.00389073
0.870122 0.5 0.075 0.00388996
0.288069 0.5 -0.825 0.00376425
0.288069 0.5 0.825 0.00376623
0.67013 0.5 -0.5625 0.00381332
0.67013 0.5 0.5625 0.00381592
0.872064 0.5 -0.075 0.00388979
0.835106 0.5 -0.2625 0.00386948
0.835106 0.5 0.2625 0.00387227
0.797732 0.5 -0.375 0.00385276
0.797732 0.5 0.375 0.00385596
0.872064 0.5 0.14794 0.0038904
0.872064 0.5 -0.15 0.00388811
0.715434 0.5 -0.525 0.00382479
0.715434 0.5 0.525 0.00382798
0.219992 0.5 0.8625 0.0037617
0.219993 0.5 -0.8625 0.00375996
0 0.5 -0.893821 0.00375
0 0.5 0.893821 0.00375
0.0124865 0.5 -0.893821 0.00375052
0.0124865 0.5 0.893821 0.00375063
0 0.5 -0.9 0.00375
0 0.5 0.9 0.00375
0.756813 0.5 -0.4875 0.00383636
0.756813 0.5 0.4875 0.00383993
0.872064 0.5 -0.225 0.00388569
0.872064 0.5 0.225 0.00388909
0.835106 0.5 -0.3375 0.00386674
0.835106 0.5 0.3375 0.0038704
0 0.5 0.906179 0.00375
0 0.5 -0.906179 0.00375
0.0124865 0.5 -0.906179 0.00375053
0.0124865 0.5 0.906179 0.00375064
0.90582 0.5 -0.0375 0.00390583
0.90582 0.5 0.0375 0.00390657
0.151149 0.5 -0.9 0.00375673
0.151149 0.5 0.9 0.00375796
0.90582 0.5 -0.1125 0.0039043
0.905821 0.5 0.1125 0.0039065
0.523432 0.5 -0.75 0.00378633
0.523432 0.5 0.75 0.0037892
0.574156 0.5 -0.7125 0.00379345
0.574156 0.5 0.7125 0.00379638
0.797732 0.5 -0.45 0.00384978
0.797732 0.5 0.45 0.00385412
0.467897 0.5 0.7875 0.00378188
0.467897 0.5 -0.7875 0.00377923
0.624316 0.5 -0.675 0.00380241
0.624316 0.5 0.675 0.00380576
0.411736 0.5 -0.825 0.00377383
0.411736 0.5 0.825 0.00377646
0.872064 0.5 0.3 0.00388712
0.872064 0.5 -0.3 0.00388261
0.67013 0.5 -0.6375 0.00381146
0.67013 0.5 0.6375 0.00381506
0.90582 0.5 0.1875 0.00390552
0.905821 0.5 -0.1875 0.00390187
0.350249 0.5 -0.8625 0.00376838
0.350249 0.5 0.8625 0.00377081
0.835106 0.5 -0.4125 0.00386335
0.835106 0.5 0.4125 0.00386818
0.715434 0.5 -0.6 0.00382241
0.715434 0.5 0.6 0.00382671
0.939201 0.5 2.75387e-17 0.00392216
0.075776 0.5 0.9375 0.00375386
0.075776 0.5 -0.9375 0.00375323
0.939111 0.5 0.075 0.00392266
0.939201 0.5 -0.075 0.0039208
0.756813 0.5 0.5625 0.00383831
0.756814 0.5 -0.5625 0.00383351
0.90582 0.5 0.2625 0.0039036
0.905821 0.5 -0.2625 0.00389854
0.288069 0.5 -0.9 0.00376431
0.288069 0.5 0.9 0.00376651
0.872064 0.5 -0.375 0.0038789
0.872064 0.5 0.375 0.00388466
0.939201 0.5 0.148627 0.00392212
0.939201 0.5 -0.15 0.00391852
0.797732 0.5 -0.525 0.00384642
0.797732 0.5 0.525 0.00385211
0.219992 0.5 0.9375 0.00376191
0.219992 0.5 -0.9375 0.00376009
0.939201 0.5 -0.225 0.00391527
0.939201 0.5 0.225 0.00392082
0.905821 0.5 -0.3375 0.00389457
0.90582 0.5 0.3375 0.00390099
0.835106 0.5 -0.4875 0.00385952
0.835106 0.5 0.4875 0.00386586
0 0.5 0.968821 0.00375
0 0.5 -0.968821 0.00375
0.0124865 0.5 -0.968821 0.00375053
0.0124865 0.5 0.968821 0.00375064
0.969689 0.5 -0.0375 0.00393702
0.969689 0.5 0.0375 0.00393813
0.574156 0.5 -0.7875 0.00379228
0.574156 0.5 0.7875 0.00379608
0 0.5 -0.975 0.00375
0 0.5 0.975 0.00375
0.624316 0.5 -0.75 0.00380078
0.624316 0.5 0.75 0.00380513
0.969689 0.5 -0.1125 0.00393498
0.96969 0.5 0.1125 0.00393833
0.523432 0.5 -0.825 0.00378549
0.523432 0.5 0.825 0.0037891
0.67013 0.5 0.7125 0.0038141
0.67013 0.5 -0.7125 0.0038094
0 0.5 -0.981179 0.00375
0 0.5 0.981179 0.00375
0.467897 0.5 0.8625 0.00378199
0.467897 0.5 -0.8625 0.00377873
0.0124865 0.5 -0.981179 0.00375054
0.0124865 0.5 0.981179 0.00375064
0.872064 0.5 -0.45 0.00387461
0.872064 0.5 0.45 0.00388188
0.715434 0.5 -0.675 0.00381981
0.715434 0.5 0.675 0.00382531
0.939201 0.5 -0.3 0.00391114
0.939201 0.5 0.3 0.00391844
0.151149 0.5 0.975 0.00375805
0.151149 0.5 -0.975 0.00375679
0.969689 0.5 -0.1875 0.00393188
0.969689 0.5 0.1875 0.00393749
0.756813 0.5 -0.6375 0.0038304
0.756813 0.5 0.6375 0.00383651
0.411736 0.5 -0.9 0.00377352
0.411736 0.5 0.9 0.00377661
0.90582 0.5 -0.4125 0.0038899
0.90582 0.5 0.4125 0.00389786
0.995005 0.5 0.0749309 0.00395017
0.797732 0.5 -0.6 0.00384273
0.797732 0.5 0.6 0.00384987
1.00005 0.5 -8.47123e-18 0.00395199
0.350249 0.5 -0.9375 0.00376828
0.350249 0.5 0.9375 0.00377102
1.00005 0.5 -0.0749309 0.00395024
0.969689 0.5 -0.2625 0.00392777
0.969689 0.5 0.2625 0.00393555
0.835106 0.5 -0.5625 0.0038553
0.835106 0.5 0.5625 0.00386325
1.00005 0.5 -0.149862 0.00394745
0.939201 0.5 -0.375 0.0039061
0.939201 0.5 0.375 0.00391522
1.00029 0.5 0.148988 0.00395228
0.075776 0.5 -1.0125 0.00375326
0.075776 0.5 1.0125 0.00375388
0.288069 0.5 0.975 0.00376665
0.288069 0.5 -0.975 0.00376427
0.872064 0.5 -0.525 0.00386983
0.872064 0.5 0.525 0.00387885
1.00005 0.5 0.224793 0.0039513
1.00005 0.5 -0.224793 0.0039436
0.969689 0.5 0.3375 0.00393252
0.96969 0.5 -0.3375 0.00392269
1.0271 0.5 -0.0368226 0.00396705
1.0271 0.5 0.0368226 0.00396848
0.90582 0.5 0.4875 0.00389445
0.905821 0.5 -0.4875 0.00388468
1.0271 0.5 -0.110468 0.0039646
1.0271 0.5 0.110468 0.00397071
0.67013 0.5 0.7875 0.00381302
0.67013 0.5 -0.7875 0.00380719
0.624316 0.5 0.825 0.00380437
0.624316 0.5 -0.825 0.00379901
0.219993 0.5 -1.0125 0.00376013
0.219993 0.5 1.0125 0.00376201
0.574156 0.5 -0.8625 0.00379098
0.574156 0.5 0.8625 0.00379566
0.715434 0.5 -0.75 0.00381702
0.715434 0.5 0.75 0.00382378
0.756813 0.5 0.7125 0.00383456
0.756814 0.5 -0.7125 0.00382708
0.523432 0.5 -0.9 0.0037845
0.523432 0.5 0.9 0.00378887
0.939201 0.5 -0.45 0.00390023
0.939201 0.5 0.45 0.00391137
1.04168 0.5 0 0.00397589
1.0271 0.5 -0.184113 0.00396104
1.0271 0.5 0.184113 0.00396836
0 0.5 -1.04382 0.00375
0 0.5 1.04382 0.00375
0.0124865 0.5 -1.04382 0.00375054
0.0124865 0.5 1.04382 0.00375064
1.00005 0.5 -0.299723 0.00393872
1.00005 0.5 0.299723 0.00394889
1.04168 0.5 -0.0729162 0.00397385
1.04168 0.5 0.0729162 0.00397691
0.797732 0.5 -0.675 0.00383877
0.797732 0.5 0.675 0.00384743
0.467897 0.5 0.9375 0.00378195
0.467897 0.5 -0.9375 0.0037781
0 0.5 -1.05 0.00375
0 0.5 1.05 0.00375
0.835106 0.5 -0.6375 0.00385077
0.835106 0.5 0.6375 0.00386035
1.04168 0.5 -0.145832 0.00397073
1.04168 0.5 0.145832 0.00397693
0.969689 0.5 -0.4125 0.00391631
0.96969 0.5 0.4125 0.00392842
0 0.5 -1.05618 0.00375
0 0.5 1.05618 0.00375
0.0124865 0.5 -1.05618 0.00375054
0.0124865 0.5 1.05618 0.00375064
1.05695 0.5 -0.0360764 0.00398327
1.05695 0.5 0.0360764 0.00398487
0.411736 0.5 -0.975 0.00377308
0.411736 0.5 0.975 0.00377661
0.872064 0.5 -0.6 0.00386461
0.872064 0.5 0.6 0.00387553
1.0271 0.5 -0.257759 0.00395643
1.0271 0.5 0.257759 0.00396665
0.151149 0.5 -1.05 0.00375679
0.151149 0.5 1.05 0.00375807
1.05695 0.5 0.108229 0.00398717
1.05695 0.5 -0.108229 0.00398058
1.04168 0.5 -0.218749 0.00396652
1.04168 0.5 0.218749 0.00397588
0.90582 0.5 -0.5625 0.00387888
0.905821 0.5 0.5625 0.00389074
1.00005 0.5 -0.374654 0.00393262
1.00005 0.5 0.374654 0.00394532
0.350249 0.5 1.0125 0.00377108
0.350249 0.5 -1.0125 0.00376805
1.05695 0.5 -0.180382 0.00397678
1.05695 0.5 0.180382 0.00398508
1.07319 0.5 0.0709442 0.00399525
0.939201 0.5 -0.525 0.00389378
0.939201 0.5 0.525 0.00390714
1.0271 0.5 -0.331404 0.00395072
1.0271 0.5 0.331404 0.00396375
1.08112 0.5 3.23815e-17 0.00399845
1.04168 0.5 -0.291665 0.00396125
1.04168 0.5 0.291665 0.00397365
1.08112 0.5 -0.0709442 0.00399612
0.969689 0.5 -0.4875 0.00390914
0.96969 0.5 0.4875 0.0039237
1.05695 0.5 0.252535 0.00398354
1.05695 0.5 -0.252535 0.00397192
0.288069 0.5 -1.05 0.00376411
0.288069 0.5 1.05 0.00376667
0.075776 0.5 -1.0875 0.00375326
0.075776 0.5 1.0875 0.00375385
1.08112 0.5 -0.141888 0.00399268
1.08145 0.5 0.140165 0.00399943
0.715434 0.5 0.825 0.00382214
0.715434 0.5 -0.825 0.00381409
0.756813 0.5 0.7875 0.00383249
0.756814 0.5 -0.7875 0.00382359
0.67013 0.5 -0.8625 0.00380484
0.67013 0.5 0.8625 0.00381183
0.797732 0.5 -0.75 0.00383462
0.797732 0.5 0.75 0.00384482
0.624316 0.5 -0.9 0.0037971
0.624316 0.5 0.9 0.00380348
1.00005 0.5 -0.449585 0.00392544
1.00005 0.5 0.449585 0.0039408
0.835106 0.5 -0.7125 0.00384597
0.835106 0.5 0.7125 0.00385726
0.574156 0.5 -0.9375 0.00378953
0.574157 0.5 0.9375 0.0037951
1.10076 0.5 -0.0349809 0.00400936
1.10076 0.5 0.0349809 0.00401126
1.08112 0.5 -0.212832 0.00398813
1.08112 0.5 0.212832 0.00399912
0.872064 0.5 -0.675 0.00385908
0.872064 0.5 0.675 0.00387193
1.04168 0.5 -0.364581 0.00395471
1.04168 0.5 0.364581 0.0039702
1.0271 0.5 0.405049 0.00395965
1.0271 0.5 -0.405049 0.00394365
1.05695 0.5 -0.324688 0.00396596
1.05695 0.5 0.324688 0.00398079
1.10076 0.5 -0.104943 0.00400632
1.10076 0.5 0.104943 0.0040121
0.523432 0.5 0.975 0.00378848
0.523432 0.5 -0.975 0.00378338
0.90582 0.5 0.6375 0.00388672
0.905821 0.5 -0.6375 0.00387259
0.219992 0.5 1.0875 0.00376199
0.219992 0.5 -1.0875 0.00376007
1.11376 0.5 3.81639e-17 0.0040184
0.939201 0.5 0.6 0.00390254
0.939201 0.5 -0.6 0.00388695
1.10076 0.5 -0.174905 0.00400214
1.10076 0.5 0.174905 0.00401197
0.467897 0.5 -1.0125 0.00377732
0.467897 0.5 1.0125 0.00378174
1.11376 0.5 -0.0693118 0.00401582
1.11376 0.5 0.0693118 0.00401986
1.08112 0.5 0.283777 0.00399711
1.08112 0.5 -0.283777 0.0039825
0 0.5 -1.11882 0.00375
0 0.5 1.11882 0.00375
0.0124865 0.5 -1.11882 0.00375054
0.0124865 0.5 1.11882 0.00375064
0.969689 0.5 -0.5625 0.00390162
0.969689 0.5 0.5625 0.00391869
1.11376 0.5 0.138624 0.00402028
1.11376 0.5 -0.138624 0.00401209
0 0.5 -1.125 0.00375
0 0.5 1.125 0.00375
1.10076 0.5 0.244866 0.00401068
1.10076 0.5 -0.244866 0.00399688
0.411736 0.5 -1.05 0.00377251
0.411736 0.5 1.05 0.00377646
1.05695 0.5 -0.396841 0.00395858
1.05695 0.5 0.396841 0.00397679
1.00005 0.5 -0.524516 0.00391762
1.00005 0.5 0.524516 0.00393565
1.04168 0.5 -0.437497 0.00394705
1.04168 0.5 0.437497 0.00396566
0 0.5 -1.13118 0.00375
0 0.5 1.13118 0.00375
0.0124865 0.5 -1.13118 0.00375053
0.0124865 0.5 1.13118 0.00375063
1.11376 0.5 -0.207935 0.00400724
1.11376 0.5 0.207935 0.00401966
1.0271 0.5 -0.478694 0.00393573
1.0271 0.5 0.478694 0.00395465
0.151149 0.5 -1.125 0.00375673
0.151149 0.5 1.125 0.00375801
1.08112 0.5 -0.354722 0.00397559
1.08112 0.5 0.354722 0.00399386
1.13882 0.5 -0.0340295 0.00403326
1.13882 0.5 0.0340295 0.00403546
0.350249 0.5 -1.0875 0.0037677
0.350249 0.5 1.0875 0.00377101
1.13882 0.5 -0.102088 0.00402987
1.13882 0.5 0.102088 0.0040375
1.10076 0.5 -0.314829 0.00399051
1.10076 0.5 0.314829 0.00400818
0.756813 0.5 -0.8625 0.00381998
0.756814 0.5 0.8625 0.00383029
0.797732 0.5 -0.825 0.00383034
0.797732 0.5 0.825 0.00384209
1.11376 0.5 -0.277247 0.00400129
1.11376 0.5 0.277247 0.00401784
0.835106 0.5 0.7875 0.00385401
0.835106 0.5 -0.7875 0.00384103
0.715434 0.5 -0.9 0.00381104
0.715434 0.5 0.9 0.00382037
0.872064 0.5 -0.75 0.00385336
0.872064 0.5 0.75 0.00386808
1.13882 0.5 0.170147 0.00403662
1.13882 0.5 -0.170147 0.00402532
0.67013 0.5 -0.9375 0.00380237
0.67013 0.5 0.9375 0.00381051
0.905821 0.5 -0.7125 0.00386615
0.905821 0.5 0.7125 0.00388237
1.05695 0.5 0.468994 0.00397179
1.05695 0.5 -0.468994 0.00395037
0.939201 0.5 -0.675 0.0038798
0.939201 0.5 0.675 0.00389761
0.624316 0.5 0.975 0.00380246
0.624316 0.5 -0.975 0.00379508
1.04168 0.5 -0.510414 0.00393868
1.04168 0.5 0.510414 0.00396027
0.969689 0.5 -0.6375 0.00389395
0.96969 0.5 0.6375 0.00391306
0.288069 0.5 -1.125 0.00376385
0.288069 0.5 1.125 0.00376656
1.16179 0.5 5.78241e-19 0.00405009
1.08112 0.5 0.425666 0.00398943
1.08112 0.5 -0.425666 0.00396756
1.13882 0.5 -0.238206 0.00401967
1.13882 0.5 0.238206 0.00403556
1.16179 0.5 0.0669104 0.0040545
1.16179 0.5 -0.0669104 0.00404707
0.574156 0.5 -1.0125 0.00378797
0.574156 0.5 1.0125 0.00379439
0.075776 0.5 -1.1625 0.00375323
0.075776 0.5 1.1625 0.00375379
1.00005 0.5 -0.599447 0.00390938
1.00005 0.5 0.599447 0.0039298
1.10076 0.5 0.384791 0.00400439
1.10076 0.5 -0.384791 0.00398271
1.0271 0.5 -0.55234 0.0039272
1.0271 0.5 0.55234 0.00394889
1.11376 0.5 -0.346559 0.00399407
1.11376 0.5 0.346559 0.00401476
1.16179 0.5 -0.133821 0.00404285
1.16179 0.5 0.133821 0.00405301
0.523432 0.5 -1.05 0.00378214
0.523432 0.5 1.05 0.00378793
1.17463 0.5 -0.0331343 0.00405695
1.17463 0.5 0.0331343 0.00405945
1.17463 0.5 -0.0994029 0.0040532
1.17463 0.5 0.0994029 0.00406074
1.16179 0.5 -0.200731 0.00403749
1.16179 0.5 0.200731 0.00405229
1.13882 0.5 -0.306265 0.00401287
1.13882 0.5 0.306265 0.00403327
0.219992 0.5 -1.1625 0.00375992
0.219992 0.5 1.1625 0.00376186
0.467897 0.5 -1.0875 0.00377641
0.467897 0.5 1.0875 0.00378138
1.17463 0.5 0.165672 0.00406104
1.17463 0.5 -0.165672 0.00404829
1.05695 0.5 -0.541147 0.00394157
1.05695 0.5 0.541147 0.00396599
1.18772 0.5 -5.78241e-19 0.00406745
1.11376 0.5 -0.41587 0.00398572
1.11376 0.5 0.41587 0.00401046
1.18772 0.5 -0.065614 0.00406419
1.18772 0.5 0.065614 0.00406954
1.08112 0.5 -0.49661 0.00395884
1.08112 0.5 0.49661 0.00398404
1.10076 0.5 -0.454752 0.00397409
1.10076 0.5 0.454752 0.00399947
1.18534 0.5 0.118202 0.00407034
1.16179 0.5 -0.267642 0.00403099
1.16179 0.5 0.267642 0.00405075
0 0.5 -1.19382 0.00375
0 0.5 1.19382 0.00375
0.0124865 0.5 1.19382 0.00375063
0.0124865 0.5 -1.19382 0.00375053
1.04168 0.5 -0.58333 0.00392972
1.04168 0.5 0.58333 0.00395396
1.18772 0.5 -0.131228 0.00405971
1.17463 0.5 -0.23194 0.00404223
1.17463 0.5 0.23194 0.00406019
0.411736 0.5 -1.125 0.00377182
0.411736 0.5 1.125 0.00377619
1.13882 0.5 -0.374324 0.0040047
1.13882 0.5 0.374324 0.00402969
0 0.5 -1.2 0.00375
0 0.5 1.2 0.00375
0.905821 0.5 0.7875 0.00387773
0.905821 0.5 -0.7875 0.00385953
0.872064 0.5 -0.825 0.00384754
0.872064 0.5 0.825 0.00386404
0.835106 0.5 0.8625 0.00385065
0.835106 0.5 -0.8625 0.003836
0.939201 0.5 -0.75 0.00387242
0.939201 0.5 0.75 0.00389248
0.797732 0.5 -0.9 0.00382597
0.797732 0.5 0.9 0.00383924
1.0271 0.5 0.625985 0.00394214
1.0271 0.5 -0.625985 0.00391811
0.969689 0.5 0.7125 0.00390738
0.96969 0.5 -0.7125 0.0038858
1.18772 0.5 -0.196842 0.00405406
1.18772 0.5 0.196842 0.00407014
0.756814 0.5 -0.9375 0.00381629
0.756814 0.5 0.9375 0.00382798
0 0.5 1.20618 0.00375
0 0.5 -1.20618 0.00375
1.00005 0.5 -0.674378 0.00390066
1.00005 0.5 0.674378 0.00392351
0.0124865 0.5 1.20618 0.00375061
0.0124865 0.5 -1.20618 0.00375052
1.16179 0.5 -0.334552 0.00402321
1.16179 0.5 0.334552 0.00404794
0.715434 0.5 0.975 0.00381849
0.715434 0.5 -0.975 0.0038079
0.151149 0.5 -1.2 0.00375661
0.151149 0.5 1.2 0.00375788
1.20942 0.5 0.0322645 0.00408481
1.20942 0.5 -0.0322645 0.00408162
1.17463 0.5 -0.298209 0.00403502
1.17463 0.5 0.298209 0.0040581
1.20942 0.5 -0.0967935 0.00407749
1.20942 0.5 0.0967935 0.004086
0.350249 0.5 -1.1625 0.00376724
0.350249 0.5 1.1625 0.00377081
0.67013 0.5 1.0125 0.00380906
0.67013 0.5 -1.0125 0.0037998
1.11376 0.5 0.485183 0.00400511
1.11376 0.5 -0.485183 0.00397671
1.18772 0.5 0.262456 0.00406874
1.18772 0.5 -0.262456 0.00404724
1.10076 0.5 -0.524714 0.00396493
1.10076 0.5 0.524714 0.00399366
1.20942 0.5 -0.161322 0.00407217
1.20942 0.5 0.161322 0.0040865
1.08112 0.5 -0.567554 0.00394953
1.08112 0.5 0.567554 0.00397769
0.624316 0.5 -1.05 0.00379295
0.624316 0.5 1.05 0.0038013
1.13882 0.5 -0.442383 0.0039957
1.13882 0.5 0.442383 0.0040249
1.05695 0.5 0.6133 0.00395911
1.05695 0.5 -0.6133 0.00393216
1.16179 0.5 -0.401463 0.00401432
1.16179 0.5 0.401463 0.00404385
0.574156 0.5 -1.0875 0.0037863
0.574156 0.5 1.0875 0.00379352
1.17463 0.5 0.364477 0.0040547
1.17463 0.5 -0.364477 0.00402641
1.20942 0.5 -0.225851 0.00406565
1.20942 0.5 0.225851 0.00408586
1.23036 0.5 -1.32995e-17 0.0040993
1.2294 0.5 0.0634819 0.00410151
1.04168 0.5 -0.656246 0.00392013
1.04168 0.5 0.656246 0.00394696
1.23036 0.5 -0.0634819 0.00409556
1.18772 0.5 0.32807 0.00406605
1.18772 0.5 -0.32807 0.00403916
0.288069 0.5 -1.2 0.0037635
0.288069 0.5 1.2 0.00376632
1.23036 0.5 -0.126964 0.00409055
1.23036 0.5 0.126964 0.0041029
0.075776 0.5 -1.2375 0.00375317
0.075776 0.5 1.2375 0.00375371
0.523432 0.5 -1.125 0.00378081
0.523432 0.5 1.125 0.00378728
1.0271 0.5 -0.69963 0.00390839
1.0271 0.5 0.69963 0.00393519
1.24274 0.5 0.0314313 0.00411006
1.24274 0.5 -0.0314313 0.00410685
1.20942 0.5 0.29038 0.00408395
1.20942 0.5 -0.29038 0.00405796
1.11376 0.5 -0.554494 0.00396713
1.11376 0.5 0.554494 0.00399879
1.23036 0.5 -0.190445 0.00408432
1.23036 0.5 0.190445 0.00410297
1.24274 0.5 -0.0942942 0.00410233
1.24274 0.5 0.0942942 0.00411187
1.13882 0.5 0.510442 0.00401911
1.13882 0.5 -0.510442 0.0039862
0.969689 0.5 -0.7875 0.00387754
0.969689 0.5 0.7875 0.00390159
1.00005 0.5 -0.749309 0.00389165
1.00005 0.5 0.749309 0.00391714
0.939201 0.5 -0.825 0.00386496
0.939201 0.5 0.825 0.00388711
0.90582 0.5 0.8625 0.00387287
0.90582 0.5 -0.8625 0.00385288
1.17463 0.5 -0.430746 0.00401697
1.17463 0.5 0.430746 0.00405001
1.10076 0.5 -0.594676 0.00395515
1.10076 0.5 0.594676 0.0039868
1.18772 0.5 -0.393684 0.00402996
1.18772 0.5 0.393684 0.00406206
1.24274 0.5 -0.157157 0.00409657
1.24274 0.5 0.157157 0.00411258
1.16179 0.5 -0.468373 0.00400481
1.16179 0.5 0.468373 0.0040386
0.467897 0.5 -1.1625 0.00377542
0.467897 0.5 1.1625 0.00378094
0.872064 0.5 -0.9 0.00384167
0.872064 0.5 0.9 0.00385987
1.25401 0.5 2.08167e-17 0.00411691
0.835106 0.5 0.9375 0.00384719
0.835106 0.5 -0.9375 0.00383094
1.25401 0.5 -0.0622994 0.0041129
1.25401 0.5 0.0622994 0.00411979
1.08112 0.5 -0.638498 0.00393956
1.08112 0.5 0.638498 0.00397054
1.23036 0.5 -0.253927 0.00407688
1.23036 0.5 0.253927 0.00410182
0.219992 0.5 1.2375 0.00376161
0.219992 0.5 -1.2375 0.00375969
1.25309 0.5 0.121964 0.00412089
1.05695 0.5 0.685452 0.00395186
1.05695 0.5 -0.685452 0.00392207
0.797732 0.5 0.975 0.0038363
0.797732 0.5 -0.975 0.00382155
1.25401 0.5 -0.124599 0.00410761
1.20942 0.5 -0.354909 0.00404889
1.20942 0.5 0.354909 0.00408071
1.24274 0.5 -0.220019 0.00408955
1.24274 0.5 0.220019 0.00411213
0.756814 0.5 -1.0125 0.0038125
0.756813 0.5 1.0125 0.00382557
1.25401 0.5 -0.186898 0.00410105
1.25401 0.5 0.186898 0.00412109
0.411736 0.5 -1.2 0.00377105
0.411736 0.5 1.2 0.00377578
0 0.5 -1.26882 0.00375
0 0.5 1.26882 0.00375
0.0124865 0.5 1.26882 0.00375061
0.0124865 0.5 -1.26882 0.00375052
0.715434 0.5 -1.05 0.00380469
0.715434 0.5 1.05 0.00381648
1.23036 0.5 -0.31741 0.00406816
1.23036 0.5 0.31741 0.00409936
1.04168 0.5 -0.729162 0.00390999
1.04168 0.5 0.729162 0.00393972
1.18772 0.5 -0.459298 0.00402016
1.18772 0.5 0.459298 0.00405685
1.24274 0.5 -0.282882 0.00408136
1.24274 0.5 0.282882 0.00411038
0 0.5 -1.275 0.00375
0 0.5 1.275 0.00375
1.27472 0.5 -0.0306319 0.00413284
1.27472 0.5 0.0306319 0.00413643
1.17463 0.5 0.497015 0.00404424
1.17463 0.5 -0.497015 0.00400714
1.11376 0.5 -0.623806 0.0039569
1.11376 0.5 0.623806 0.00399159
1.13882 0.5 -0.578501 0.00397609
1.13882 0.5 0.578501 0.00401231
0.67013 0.5 -1.0875 0.00379715
0.67013 0.5 1.0875 0.00380747
1.27472 0.5 -0.0918959 0.00412789
1.27472 0.5 0.0918959 0.00413539
1.25401 0.5 -0.249197 0.00409325
1.25401 0.5 0.249197 0.00412005
1.16179 0.5 -0.535284 0.00399478
1.16179 0.5 0.535284 0.00403232
1.20942 0.5 -0.419438 0.00403899
1.20942 0.5 0.419438 0.00407614
0 0.5 -1.28118 0.00375
0 0.5 1.28118 0.00375
0.0124865 0.5 1.28118 0.00375059
0.0124865 0.5 -1.28118 0.00375051
1.27472 0.5 0.15316 0.00413948
1.27472 0.5 -0.15316 0.00412166