# kMean  POINT_DATA 91129
# x  y  z  kMean
0 0 0 0.00553994
0 0.00368111 0 0.00375
0 0.00749587 0 0.00375
0 0.0114491 0 0.00375
0 0.0155459 0 0.00375
0 0.0197915 0 0.00375
0 0.0241911 0 0.00375
0 0.0287506 0 0.00375
0 0.0334755 0 0.00375
0 0.038372 0 0.00375
0 0.0434463 0 0.00375
0 0.0487048 0 0.00375
0 0.0541543 0 0.00375
0 0.0598016 0 0.00375
0 0.0656539 0 0.00375
0 0.0717187 0 0.00375
0.075776 0.00184055 0 0.00957067
0.075776 0.00558849 0 0.00336036
0.075776 0.00947248 -3.46945e-18 0.00303953
0.075776 0.0134975 -3.46945e-18 0.00341719
0.075776 0.0176687 3.46945e-18 0.003583
0 0.0780037 0 0.00375
0.075776 0.0219913 3.46945e-18 0.00364775
0.075776 0.0264709 3.46945e-18 0.00368068
0.075776 0.031113 -3.46945e-18 0.00369962
0.075776 0.0359237 -3.46945e-18 0.00371163
0 0.0845169 0 0.00375
0.075776 0.0409092 0 0.00371981
0.075776 0.0460755 -3.46945e-18 0.00372567
0 0.0912666 0 0.00375
0.075776 0.0514296 -3.46945e-18 0.00373003
0.075776 0.0569779 0 0.00373338
0 0.0982613 0 0.00375
0.075776 0.0627278 0 0.00373601
0.075776 0.0686863 0 0.0037382
0 0.10551 0 0.00375
0.075776 0.0748612 3.46945e-18 0.00374008
0.075776 0.0812603 -3.46945e-18 0.00374169
0 0.113022 0 0.00375
0.075776 0.0878918 3.46945e-18 0.00374306
0 0.120806 0 0.00375
0.075776 0.0947639 3.46945e-18 0.00374421
0.075776 0.101886 -3.46945e-18 0.00374518
0 0.128874 0 0.00375
0.075776 0.109266 3.46945e-18 0.003746
0 0.137234 0 0.00375
0.075776 0.116914 3.46945e-18 0.00374668
0 0.145897 0 0.00375
0.075776 0.12484 0 0.00374725
0.151552 0 0 0.00594558
0.151552 0.00368111 0 0.00419632
0.151552 0.00749587 0 0.00257066
0.151552 0.0114491 0 0.00294081
0.151552 0.0155459 0 0.00330415
0.151552 0.0197915 0 0.00347604
0.075776 0.133054 0 0.00374773
0.151552 0.0241911 0 0.00356296
0.151552 0.0287506 0 0.00361504
0 0.154876 0 0.00375
0.151552 0.0334755 0 0.00364871
0.151552 0.038372 0 0.00367163
0.151552 0.0434463 0 0.0036879
0.151552 0.0487048 0 0.00369987
0.075776 0.141566 0 0.00374816
0.151552 0.0541543 0 0.00370894
0.151552 0.0598016 0 0.003716
0 0.16418 0 0.00375
0.151552 0.0656539 0 0.00372163
0.151552 0.0717187 0 0.00372623
0.075776 0.150387 0 0.00374853
0.151552 0.0780037 0 0.00373003
0.151552 0.0845169 0 0.0037332
0 0.173822 0 0.00375
0.075776 0.159528 0 0.00374888
0.151552 0.0912666 0 0.00373585
0.151552 0.0982613 0 0.00373809
0 0.183814 0 0.00375
0.151552 0.10551 0 0.00373997
0.075776 0.169001 3.46945e-18 0.00374922
0.151552 0.113022 0 0.00374156
0.151552 0.120806 0 0.00374292
0 0.194169 0 0.00375
0.075776 0.178818 3.46945e-18 0.00374955
0.151552 0.128874 0 0.00374409
0.075776 0.188992 3.46945e-18 0.00374987
0.151552 0.137234 0 0.00374511
0 0.2049 0 0.00375
0.151552 0.145897 0 0.003746
0.075776 0.199535 0 0.0037502
0 0.21602 0 0.00375
0.151552 0.154876 0 0.00374678
0.219992 0.00184055 0 0.00259947
0.219992 0.00558849 0 0.00160382
0.219992 0.00947248 -3.46945e-18 0.00237574
0.219992 0.0134975 3.46945e-18 0.00297503
0.219992 0.0176687 0 0.00327151
0.219992 0.0219913 0 0.00342333
0.219993 0.0264709 -3.46945e-18 0.00351565
0.219992 0.031113 -3.46945e-18 0.00357576
0.219992 0.0359238 3.46945e-18 0.00361658
0.151552 0.16418 0 0.00374748
0.075776 0.21046 0 0.00375053
0.219992 0.0409092 3.46945e-18 0.0036453
0.219992 0.0460755 0 0.00366619
0.219993 0.0514296 -3.46945e-18 0.00368188
0.219992 0.0569779 0 0.00369397
0 0.227544 0 0.00375
0.219992 0.0627277 3.46945e-18 0.00370352
0.219992 0.0686863 0 0.00371118
0.151552 0.173822 0 0.00374811
0.219992 0.0748612 3.46945e-18 0.00371743
0.075776 0.221782 0 0.00375084
0.219992 0.0812603 3.46945e-18 0.00372258
0.219992 0.0878917 -3.46945e-18 0.00372687
0.151552 0.183814 0 0.00374869
7.47806e-17 0.239487 0 0.00375
0.219992 0.0947639 3.46945e-18 0.00373047
0.219993 0.101886 3.46945e-18 0.00373349
0.075776 0.233516 0 0.00375114
0.219993 0.109266 0 0.00373606
0.151552 0.194169 0 0.00374923
0.219993 0.116914 0 0.00373824
0 0.251863 0 0.00375
0.219993 0.12484 0 0.00374013
0.151552 0.2049 0 0.00374974
0.075776 0.245675 0 0.00375139
0.219992 0.133054 3.46945e-18 0.00374177
0.219992 0.141565 0 0.0037432
0.151552 0.21602 0 0.00375023
0 0.264688 0 0.00375
0.219992 0.150387 3.46945e-18 0.00374445
0.075776 0.258275 3.46945e-18 0.00375158
0.219992 0.159528 -3.46945e-18 0.00374554
0.151552 0.227544 0 0.00375068
0.219992 0.169001 3.46945e-18 0.0037465
0 0.27798 0 0.00375
0.075776 0.271334 3.46945e-18 0.0037517
0.151552 0.239487 3.70071e-18 0.00375109
0.219992 0.178818 3.46945e-18 0.00374736
0.288433 0 0 0.0017479
0.288433 0.00368111 0 0.00151371
0.288433 0.00749587 0 0.00179463
0.288433 0.0114491 0 0.00262312
0.288433 0.0155459 3.70071e-18 0.00308468
0.288433 0.0197915 0 0.00330027
0.288433 0.0241911 3.70071e-18 0.00341152
0.288433 0.0287506 0 0.00348811
0.219992 0.188991 0 0.00374813
0.288433 0.0334755 0 0.00354522
0.288433 0.038372 0 0.00358781
0.288433 0.0434463 0 0.00361981
7.47806e-17 0.291753 0 0.00375
0.288433 0.0487048 0 0.00364422
0.288433 0.0541543 0 0.00366318
0.151552 0.251863 0 0.00375145
0.288433 0.0598016 3.70071e-18 0.00367815
0.075776 0.284866 0 0.00375176
0.288433 0.0656539 3.70071e-18 0.00369016
0.219992 0.199534 0 0.00374884
0.288433 0.0717187 0 0.00369991
0.288433 0.0780037 0 0.00370792
0.288433 0.0845169 0 0.00371453
0.288433 0.0912666 0 0.00372005
0.219992 0.21046 -3.46945e-18 0.0037495
0.288433 0.0982613 0 0.00372479
0.151552 0.264688 3.70071e-18 0.00375176
0 0.306027 0 0.00375
0.288433 0.10551 0 0.00372896
0.075776 0.29889 3.46945e-18 0.00375175
0.288433 0.113022 0 0.00373264
0.219993 0.221782 0 0.00375011
0.288433 0.120806 0 0.00373585
0.288433 0.128874 0 0.00373865
0.151552 0.27798 0 0.00375201
0.288433 0.137234 0 0.0037411
0 0.320819 0 0.00375
0.219992 0.233515 -3.46945e-18 0.00375067
0.075776 0.313423 -3.46945e-18 0.00375169
0.288433 0.145897 0 0.00374324
0.288433 0.154876 0 0.00374511
0.151552 0.291753 0 0.0037522
0.219993 0.245675 0 0.00375118
0.288433 0.16418 0 0.00374672
0 0.336148 0 0.00375
0.288433 0.173822 0 0.00374812
0.075776 0.328484 -3.46945e-18 0.00375161
0.219993 0.258275 -3.46945e-18 0.00375165
0.151552 0.306027 0 0.00375235
0.288433 0.183814 0 0.00374931
0.288433 0.194169 0 0.00375035
0.219992 0.271334 3.46945e-18 0.00375207
0.350249 0.00184056 -3.46945e-18 0.000958955
0.350249 0.00558849 0 0.000979026
0.350249 0.00947248 3.46945e-18 0.00224865
0.350249 0.0134975 0 0.00290075
0.350249 0.0176687 0 0.00319713
0.350249 0.0219913 0 0.00331606
0.350249 0.0264708 3.46945e-18 0.00339955
0.350249 0.031113 0 0.00346996
0 0.352034 0 0.00375
0.350249 0.0359238 0 0.00352608
0.075776 0.344091 0 0.00375152
0.350249 0.0409091 0 0.00356963
0.350249 0.0460756 3.46945e-18 0.00360339
0.288433 0.2049 0 0.00375126
0.350249 0.0514296 0 0.00362979
0.151552 0.320819 0 0.00375245
0.350249 0.0569779 0 0.00365069
0.350249 0.0627277 3.46945e-18 0.00366744
0.350249 0.0686863 3.46945e-18 0.00368102
0.350249 0.0748612 3.46945e-18 0.00369213
0.350249 0.0812603 0 0.00370129
0.219992 0.284867 0 0.00375245
0.288433 0.21602 0 0.00375205
0.350249 0.0878917 0 0.00370886
0.350249 0.094764 0 0.00371526
0.350249 0.101886 0 0.00372098
0.350249 0.109266 0 0.00372616
0.288433 0.227544 0 0.00375276
0.075776 0.360265 3.46945e-18 0.00375149
0 0.368496 0 0.00375
0.151552 0.336148 0 0.00375254
0.350249 0.116914 3.46945e-18 0.00373075
0.219992 0.29889 0 0.00375278
0.370854 0.0241911 1.54074e-33 0.0033697
0.350249 0.12484 0 0.00373475
0.350249 0.133054 0 0.00373827
0.288433 0.239487 -9.25154e-19 0.00375338
0.350249 0.141566 3.46945e-18 0.00374135
0.350249 0.150387 3.46945e-18 0.00374404
0.288433 0.251863 0 0.00375395
0.219992 0.313423 0 0.00375307
0.151552 0.352034 0 0.00375264
0.075776 0.377027 0 0.00375153
0.350249 0.159528 0 0.00374637
0 0.385557 0 0.00375
0.350249 0.169001 0 0.00374837
0.288433 0.264688 0 0.00375448
0.350249 0.178818 0 0.00375006
0.219992 0.328484 0 0.00375332
0.350249 0.188992 0 0.00375148
0.151552 0.368496 0 0.00375278
0.288433 0.27798 3.70071e-18 0.00375497
0.075776 0.394397 0 0.00375162
0.350249 0.199535 0 0.00375268
7.47806e-17 0.403236 0 0.00375
0.219992 0.344091 0 0.00375355
0.350249 0.21046 -3.46945e-18 0.0037537
0.288433 0.291753 0 0.00375545
0.412065 9.08189e-19 3.08149e-33 0.00079679
0.412065 0.00368111 -2.31298e-18 0.000866628
0.412065 0.00749587 -2.31298e-18 0.00164183
0.412065 0.0114491 -2.31298e-18 0.00267379
0.412065 0.0155459 -2.31298e-18 0.00311752
0.412065 0.0197915 0 0.00327808
0.412065 0.0241911 -3.08149e-33 0.00334879
0.412065 0.0264709 0 0.00337717
0.412065 0.0287506 -2.31298e-18 0.00340555
0.412065 0.0334755 -2.31298e-18 0.00346259
0.412065 0.038372 -2.31298e-18 0.00351351
0.151552 0.385557 0 0.00375297
0.412065 0.0434463 0 0.00355583
0.350249 0.221782 0 0.00375457
0.412065 0.0487048 0 0.00359015
0.412065 0.0541543 -3.08149e-33 0.00361784
0.412065 0.0569779 0 0.00362905
0.412065 0.0598016 -2.31298e-18 0.00364026
0.412065 0.0656539 -2.31298e-18 0.0036585
0.412065 0.0717187 -2.31298e-18 0.00367343
0.075776 0.412396 -3.46945e-18 0.00375171
0.412065 0.0780037 -2.31298e-18 0.00368569
0.288433 0.306027 0 0.0037559
0.412065 0.0845169 -2.31298e-18 0.00369589
0.350249 0.233516 3.46945e-18 0.00375533
0 0.421557 0 0.00375
0.412065 0.0912666 -2.31298e-18 0.00370465
0.219992 0.360265 3.46945e-18 0.00375381
0.412065 0.0982613 0 0.00371247
0.412065 0.10551 0 0.00371956
0.412065 0.113022 -2.31298e-18 0.00372595
0.350249 0.245675 0 0.003756
0.412065 0.120806 0 0.00373163
0.151552 0.403236 0 0.00375319
0.288433 0.320819 0 0.00375632
0.412065 0.128874 -2.31298e-18 0.00373665
0.412065 0.137234 0 0.00374106
0.350249 0.258275 -3.46945e-18 0.00375661
0.219992 0.377026 0 0.00375409
0.412065 0.145897 -2.31298e-18 0.00374491
0.075776 0.431051 0 0.00375177
0.412065 0.154876 -2.31298e-18 0.00374825
0 0.440544 0 0.00375
0.288433 0.336148 0 0.00375674
0.350249 0.271334 0 0.0037572
0.412065 0.16418 -2.31298e-18 0.00375111
0.412065 0.173822 -2.31298e-18 0.00375354
0.151552 0.421557 0 0.00375341
0.412065 0.183814 -2.31298e-18 0.00375561
0.350249 0.284867 3.46945e-18 0.00375778
0.219992 0.394397 0 0.00375442
0.288433 0.352034 3.70071e-18 0.00375715
0.412065 0.194169 0 0.00375735
0.075776 0.450382 0 0.00375181
0.412065 0.2049 -2.31298e-18 0.00375881
0 0.46022 0 0.00375
0.350249 0.29889 3.46945e-18 0.00375836
0.412065 0.21602 0 0.00376002
0.151552 0.440544 0 0.00375361
0.219993 0.412396 3.46945e-18 0.00375478
0.467897 0.00184056 -3.46945e-18 0.000645939
0.467897 0.00558849 0 0.00089687
0.288433 0.368496 0 0.00375757
0.467897 0.00947248 0 0.00243891
0.467897 0.0134975 0 0.00309303
0.467897 0.0176687 3.46945e-18 0.0032696
0.467897 0.0219913 -3.46945e-18 0.00332653
0.467897 0.0264709 3.46945e-18 0.00335428
0.467897 0.0311131 3.46945e-18 0.00340248
0.467897 0.0359238 -3.46945e-18 0.00345678
0.467897 0.038372 0 0.003486
0.467897 0.0409092 3.46945e-18 0.00350632
0.350249 0.313423 0 0.00375894
0.467897 0.0460755 0 0.00354825
0.467897 0.0514296 3.46945e-18 0.00358283
0.412065 0.227544 -2.31298e-18 0.00376105
0.467897 0.0569779 0 0.00361116
0.467897 0.0627277 -3.46945e-18 0.00363436
0.467897 0.0686863 3.46945e-18 0.00365339
0.467897 0.0748612 0 0.00366902
0.467897 0.0812603 0 0.00368187
0.467897 0.0878918 3.46945e-18 0.00369282
0.075776 0.470415 3.46945e-18 0.00375183
0.412065 0.239487 -2.31298e-18 0.00376192
0.467897 0.0947639 -3.46945e-18 0.00370269
0.467897 0.101886 3.46945e-18 0.00371172
0.350249 0.328483 0 0.00375951
0.467897 0.109266 0 0.00371992
0 0.48061 0 0.00375
0.288433 0.385557 0 0.00375802
0.467897 0.116914 0 0.0037273
0.412065 0.251863 -2.31298e-18 0.00376269
0.219992 0.431051 0 0.00375513
0.467897 0.12484 0 0.00373387
0.151552 0.46022 0 0.00375379
0.467897 0.133054 3.46945e-18 0.00373968
0.467897 0.141566 3.46945e-18 0.00374476
0.412065 0.264688 -2.31298e-18 0.00376337
0.350249 0.344091 -3.46945e-18 0.00376008
0.467897 0.150387 3.46945e-18 0.00374918
0.467897 0.154876 0 0.00375259
0.467897 0.159528 3.46945e-18 0.00375297
0.288433 0.403236 0 0.00375848
0.075776 0.491175 0 0.00375185
0.412065 0.27798 -2.31298e-18 0.00376402
0.467897 0.169001 0 0.0037562
0.467897 0.178818 3.46945e-18 0.00375895
0.219992 0.450382 0 0.00375546
6.73026e-17 0.501741 3.70071e-18 0.00375
0.350249 0.360265 0 0.00376065
0.151552 0.48061 0 0.00375396
0.467897 0.188991 0 0.00376128
0.412065 0.291753 0 0.00376464
0.467897 0.199535 0 0.00376323
0.288433 0.421557 0 0.00375896
0.467897 0.21046 0 0.00376484
0.412065 0.306027 0 0.00376525
0.350249 0.377027 0 0.00376121
0.467897 0.221782 3.46945e-18 0.00376617
0.075776 0.51269 0 0.00375188
0.219993 0.470415 3.46945e-18 0.00375577
0.467897 0.227544 0 0.00376852
0.412065 0.320819 -2.31298e-18 0.00376586
0.467897 0.233515 0 0.00376728
6.73026e-17 0.523639 3.70071e-18 0.00375
0.523729 0 0 0.000560993
0.523729 0.00368111 0 0.000716193
0.523729 0.00749587 -2.31298e-18 0.00172411
0.523729 0.0114491 0 0.00293019
0.523729 0.0155459 0 0.0033337
0.523729 0.0197915 -2.31298e-18 0.00338215
0.151552 0.501741 0 0.00375412
0.523729 0.0241911 0 0.00337468
0.523729 0.0287506 0 0.00338007
0.523729 0.0334755 0 0.00341305
0.523729 0.038372 -3.08149e-33 0.0034585
0.523729 0.0434463 0 0.00350366
0.523729 0.0487048 0 0.00354374
0.523729 0.0541543 0 0.00357783
0.288433 0.440544 0 0.00375944
0.523729 0.0598016 0 0.00360636
0.350249 0.394397 -3.46945e-18 0.00376179
0.523729 0.0656539 0 0.00363008
0.467897 0.245675 0 0.00376822
0.523729 0.0717187 0 0.00364972
0.523729 0.0780037 0 0.00366603
0.523729 0.0845169 0 0.00367997
0.523729 0.0912666 0 0.00369243
0.412065 0.336148 0 0.00376646
0.523729 0.0982613 0 0.00370381
0.523729 0.10551 -2.31298e-18 0.00371418
0.467897 0.258275 -3.46945e-18 0.00376903
0.523729 0.113022 0 0.00372357
0.523729 0.120806 -3.08149e-33 0.00373199
0.219993 0.491176 0 0.00375606
0.523729 0.12484 0 0.00373575
0.523729 0.128874 -2.31298e-18 0.0037395
0.075776 0.534986 0 0.00375191
0.467897 0.271334 3.46945e-18 0.00376976
0.350249 0.412396 -3.46945e-18 0.00376238
0.523729 0.137234 0 0.00374612
0.412065 0.352034 -2.31298e-18 0.00376706
0.288433 0.46022 0 0.0037599
0.523729 0.145897 0 0.00375192
0.151552 0.523639 0 0.00375427
0.523729 0.154876 -3.08149e-33 0.00375694
0 0.546332 0 0.00375
0.523729 0.159528 0 0.00375909
0.467897 0.284867 -3.46945e-18 0.00377044
0.523729 0.16418 -2.31298e-18 0.00376124
0.523729 0.173822 0 0.00376491
0.412065 0.368496 0 0.00376766
0.523729 0.183814 0 0.00376802
0.467897 0.29889 0 0.00377108
0.350249 0.431051 -3.46945e-18 0.00376299
0.219992 0.51269 0 0.00375634
0.523729 0.194169 0 0.00377062
0.288433 0.48061 0 0.00376034
0.523729 0.2049 0 0.00377277
0.467897 0.313423 3.46945e-18 0.00377171
0.075776 0.558091 0 0.00375195
0.412065 0.385557 0 0.00376828
0.523729 0.21602 -3.08149e-33 0.00377454
0.151552 0.546332 0 0.00375443
0 0.569849 0 0.00375
0.350249 0.450382 3.46945e-18 0.00376359
0.523729 0.227544 -3.08149e-33 0.003776
0.467897 0.328483 0 0.00377234
0.523729 0.231525 1.54074e-33 0.0037764
0.574156 0.00184056 0 0.000481623
0.574156 0.00558849 0 0.000847592
0.574157 0.00947248 0 0.00270576
0.574156 0.0134975 -3.46945e-18 0.00346156
0.574156 0.0176687 -3.46945e-18 0.00349065
0.574156 0.0219913 0 0.00343081
0.574156 0.0264708 -3.46945e-18 0.00338258
0.574156 0.031113 0 0.0033807
0.574156 0.0359238 -3.46945e-18 0.00341441
0.574157 0.0409092 0 0.00345949
0.523729 0.239487 3.70071e-18 0.0037772
0.574156 0.0460755 -3.46945e-18 0.00350368
0.574156 0.0514295 0 0.00354303
0.412065 0.403236 0 0.00376891
0.574157 0.0569779 0 0.00357679
0.574156 0.0627277 0 0.00360528
0.574156 0.0686863 0 0.0036291
0.219992 0.534986 0 0.00375661
0.288433 0.501741 0 0.00376075
0.574156 0.0748612 3.46945e-18 0.00364887
0.574156 0.0812603 0 0.00366561
0.467897 0.344091 0 0.00377297
0.574156 0.0878917 3.46945e-18 0.00368056
0.523729 0.251863 0 0.0037782
0.574157 0.0947639 0 0.00369433
0.574156 0.101886 0 0.00370692
0.574156 0.109266 0 0.00371836
0.574156 0.116914 0 0.00372869
0.412065 0.416977 -6.16298e-33 0.0037694
0.350249 0.470415 0 0.00376416
0.523729 0.264688 0 0.00377905
0.075776 0.582034 0 0.003752
0.574156 0.12484 0 0.00373794
0.574156 0.133054 3.46945e-18 0.00374615
0.412065 0.421557 -2.31298e-18 0.00376956
0.151552 0.569849 0 0.00375459
0.467897 0.360265 -3.46945e-18 0.00377361
0.574157 0.141566 -3.46945e-18 0.00375339
0.523729 0.27798 0 0.00377979
0.574156 0.150386 3.46945e-18 0.00375969
0 0.594219 0 0.00375
0.574156 0.159528 -3.46945e-18 0.00376514
0.574156 0.16418 0 0.00376889
0.288433 0.523639 1.2326e-32 0.00376114
0.574157 0.169001 0 0.0037698
0.523729 0.291753 0 0.00378046
0.219993 0.558091 3.46945e-18 0.00375687
0.467897 0.377026 0 0.00377426
0.574156 0.178818 3.46945e-18 0.00377374
0.412065 0.440544 -2.31298e-18 0.00377021
0.350249 0.491175 0 0.00376471
0.574156 0.188992 3.46945e-18 0.00377705
0.523729 0.306027 -3.08149e-33 0.00378109
0.574157 0.199535 0 0.00377981
0.574157 0.21046 0 0.00378207
0.075776 0.606847 0 0.00375205
0.467897 0.394397 0 0.00377492
0.151552 0.594219 0 0.00375475
0.523729 0.320819 0 0.0037817
0.574157 0.221782 -3.46945e-18 0.00378391
0.412065 0.46022 3.08149e-33 0.00377086
0.288433 0.546332 0 0.00376151
0 0.619475 0 0.00375
0.574156 0.233515 3.46945e-18 0.00378542
0.350249 0.51269 3.46945e-18 0.00376522
0.219992 0.582034 3.46945e-18 0.00375713
0.523729 0.336148 0 0.0037823
0.467897 0.412396 0 0.00377561
0.574156 0.245675 0 0.00378664
0.624584 0 0 0.000422463
0.624584 0.00368111 0 0.0006287
0.624584 0.00749587 0 0.00183824
0.624584 0.0114491 0 0.00327176
0.624584 0.0155459 0 0.00369299
0.624584 0.0197915 0 0.00360945
0.624584 0.0241911 -2.31298e-18 0.00348396
0.624584 0.0287506 0 0.00341401
0.624584 0.0334755 0 0.00340199
0.624584 0.038372 0 0.00342729
0.624584 0.0434463 -2.31298e-18 0.00346654
0.624584 0.0487048 0 0.00350744
0.624584 0.0541543 0 0.00354509
0.624584 0.0598016 0 0.00357806
0.624584 0.0656539 0 0.00360624
0.624584 0.0717187 0 0.00362997
0.624584 0.0780037 0 0.0036501
0.574157 0.258276 3.46945e-18 0.00378765
0.624584 0.0845169 0 0.00366793
0.523729 0.352034 0 0.0037829
0.624584 0.0912666 0 0.00368431
0.624584 0.0982613 0 0.00369939
0.412065 0.48061 3.08149e-33 0.00377149
0.624584 0.10551 0 0.00371317
0.624584 0.113022 -2.31298e-18 0.00372568
0.574156 0.271334 0 0.00378849
0.624584 0.120806 0 0.00373696
0.467897 0.431051 0 0.00377631
0.075776 0.632561 -3.46945e-18 0.00375211
0.624584 0.128874 0 0.00374704
0.151552 0.619475 0 0.00375491
0.288433 0.569849 0 0.00376187
0.350249 0.534985 0 0.00376571
0.624584 0.137234 -2.31298e-18 0.00375597
0.523729 0.368496 0 0.00378352
0.574156 0.284866 -3.46945e-18 0.00378921
0.624584 0.145897 0 0.00376382
0.467897 0.440544 0 0.0037782
0.624584 0.154876 0 0.00377065
0.219992 0.606847 -3.46945e-18 0.00375739
0 0.645647 0 0.00375
0.624584 0.16418 -3.08149e-33 0.00377653
0.574156 0.29889 -3.46945e-18 0.00378986
0.624584 0.173822 0 0.00378154
0.412065 0.501741 1.54074e-33 0.00377208
0.467897 0.450382 -3.46945e-18 0.00377702
0.523729 0.385557 0 0.00378415
0.624584 0.183814 0 0.00378577
0.624584 0.194169 0 0.0037893
0.574156 0.313423 0 0.00379046
0.624584 0.2049 0 0.00379221
0.350249 0.558091 3.46945e-18 0.00376617
0.288433 0.594219 0 0.00376222
0.624584 0.21602 0 0.00379458
0.523729 0.403236 0 0.00378481
0.574156 0.328483 -3.46945e-18 0.00379104
0.151552 0.645647 0 0.00375507
0.467897 0.470415 3.46945e-18 0.00377772
0.075776 0.659208 0 0.00375218
0.624584 0.227544 0 0.0037965
0.412065 0.523639 0 0.00377264
0.523729 0.41545 3.08149e-33 0.00378526
0.624584 0.239487 3.70071e-18 0.00379805
0.574156 0.344091 0 0.00379161
0.219992 0.632561 0 0.00375765
0.67013 0.00184055 0 0.000366924
0.67013 0.00558849 0 0.000823065
0.67013 0.00947248 0 0.00296908
0.67013 0.0134975 0 0.00392767
0.67013 0.0176687 -3.46945e-18 0.00386557
0.67013 0.0219913 0 0.00363259
0.67013 0.0264708 3.46945e-18 0.00348041
0.67013 0.0311131 0 0.00340836
0.67013 0.0359237 0 0.00340394
0.67013 0.0409092 -3.46945e-18 0.00343252
0.67013 0.0460755 0 0.00347232
0.67013 0.0514296 3.46945e-18 0.00351268
0.523729 0.421557 -2.31298e-18 0.00378549
0.67013 0.056978 0 0.00354967
0 0.67277 0 0.00375
0.67013 0.0627277 0 0.00358209
0.624584 0.251863 0 0.00379929
0.67013 0.0686863 0 0.00360984
0.67013 0.0748612 3.46945e-18 0.00363317
0.67013 0.0812603 0 0.00365361
0.67013 0.0878917 0 0.00367258
0.67013 0.0947639 3.46945e-18 0.00369016
0.574156 0.360265 0 0.00379219
0.67013 0.101886 0 0.00370631
0.523729 0.431051 0 0.00378584
0.624584 0.264688 0 0.00380029
0.467897 0.491175 0 0.00377839
0.67013 0.109266 3.46945e-18 0.00372104
0.350249 0.582034 0 0.00376661
0.67013 0.116914 0 0.00373438
0.67013 0.12484 0 0.00374638
0.67013 0.133054 0 0.00375707
0.288433 0.619475 0 0.00376255
0.624584 0.27798 -3.08149e-33 0.00380111
0.412065 0.546332 1.54074e-33 0.00377316
0.523729 0.440544 -3.08149e-33 0.00378619
0.67013 0.141566 3.46945e-18 0.00376652
0.685312 0.0241911 -7.70372e-34 0.00361799
0.685312 0.0434463 -7.70372e-34 0.00345451
0.67013 0.150387 0 0.0037748
0.574156 0.377026 -3.46945e-18 0.00379279
0.67013 0.159528 0 0.00378197
0.624584 0.291753 0 0.0038018
0.151552 0.67277 0 0.00375523
0.075776 0.686823 0 0.00375225
0.67013 0.169001 0 0.00378811
0.67013 0.178818 0 0.00379333
0.467897 0.51269 0 0.00377902
0.685312 0.113022 -7.70372e-34 0.00372974
0.219992 0.659208 0 0.0037579
0.624584 0.306027 0 0.0038024
0.67013 0.188991 0 0.00379769
0.574156 0.394397 3.46945e-18 0.00379342
0.523729 0.46022 0 0.00378688
0.685312 0.137234 -7.70372e-34 0.00376526
0.67013 0.199535 -3.46945e-18 0.00380131
0.350249 0.606847 0 0.00376703
0 0.700877 0 0.00375
0.624584 0.320819 0 0.00380294
0.67013 0.21046 0 0.00380427
0.412065 0.569849 -2.31298e-18 0.00377365
0.67013 0.221782 -3.46945e-18 0.00380667
0.574157 0.412396 0 0.00379407
0.288433 0.645647 0 0.00376287
0.624584 0.336148 -3.08149e-33 0.00380346
0.67013 0.233515 3.46945e-18 0.00380858
0.467897 0.534986 0 0.00377961
0.523729 0.48061 0 0.00378757
0.624584 0.344091 0 0.00380372
0.67013 0.245675 0 0.0038101
0.715676 4.54095e-19 0 0.000322078
0.715676 0.00368111 0 0.000569746
0.715676 0.00749587 0 0.00195582
0.715676 0.0114491 0 0.00363672
0.715676 0.0155459 0 0.00414729
0.715676 0.0197915 0 0.00395529
0.715676 0.0241911 0 0.003685
0.715676 0.0287506 0 0.00351451
0.715676 0.0334755 0 0.00343639
0.715676 0.038372 0 0.00342533
0.624584 0.352034 -2.31298e-18 0.00380398
0.715676 0.0434463 0 0.0034485
0.151552 0.700877 0 0.00375539
0.715676 0.0487048 0 0.00348397
0.715676 0.0541543 0 0.00352156
0.574156 0.43105 0 0.00379475
0.715676 0.0598016 0 0.00355679
0.67013 0.258275 0 0.0038113
0.715676 0.0656539 0 0.00358806
0.715676 0.0717187 0 0.00361507
0.075776 0.715441 0 0.00375232
0.715676 0.0780037 0 0.00363866
0.715676 0.0845169 0 0.00366021
0.219992 0.686824 0 0.00375814
0.715676 0.0912666 0 0.00368034
0.715676 0.0982613 0 0.003699
0.67013 0.271334 -3.46945e-18 0.00381225
0.350249 0.632561 -3.46945e-18 0.00376742
0.412065 0.594219 3.08149e-33 0.00377411
0.715676 0.10551 0 0.00371615
0.715676 0.113022 0 0.00373177
0.624584 0.368496 0 0.00380451
0.523729 0.501741 0 0.00378822
0.715676 0.120806 0 0.00374592
0.715676 0.128874 0 0.00375861
0.67013 0.284867 0 0.00381301
0.467897 0.558091 3.46945e-18 0.00378016
0.715676 0.137234 0 0.00376991
0.574156 0.450382 0 0.00379544
0 0.730005 0 0.00375
0.715676 0.145897 0 0.00377986
0.288433 0.67277 0 0.00376318
0.715676 0.154876 0 0.00378855
0.67013 0.29889 0 0.00381363
0.624584 0.385557 0 0.00380506
0.715676 0.16418 -9.25187e-19 0.00379606
0.715676 0.173822 0 0.00380247
0.715676 0.183814 0 0.00380788
0.67013 0.313423 0 0.00381416
0.523729 0.523639 0 0.00378883
0.715676 0.194169 0 0.00381239
0.574156 0.470415 3.46945e-18 0.00379613
0.624584 0.403236 0 0.00380563
0.743101 0.0241911 -7.70372e-34 0.00378583
0.412065 0.619475 3.08149e-33 0.00377454
0.715676 0.2049 0 0.0038161
0.151552 0.730005 0 0.00375554
0.67013 0.328484 3.46945e-18 0.00381465
0.350249 0.659208 0 0.00376779
0.467897 0.582034 0 0.00378067
0.715676 0.21602 0 0.00381911
0.219992 0.715441 0 0.00375838
0.075776 0.745097 -3.46945e-18 0.00375239
0.715676 0.227544 0 0.00382153
0.67013 0.344091 0 0.0038151
0.624584 0.421557 0 0.00380624
0.743101 0.128874 -7.70372e-34 0.00376358
0.715676 0.239487 3.70071e-18 0.00382343
0.574156 0.491175 0 0.0037968
0.756814 0.00184055 0 0.000279766
0.523729 0.546332 0 0.00378939
0.756813 0.00558849 0 0.000812098
0.756813 0.00947248 0 0.00321238
0.756814 0.0134975 -3.46945e-18 0.00441655
0.756814 0.0155459 0 0.00439137
0.756814 0.0176687 0 0.00435106
0.756814 0.0219913 0 0.00394863
0.756814 0.0264709 0 0.00366384
0.756814 0.031113 -3.46945e-18 0.0034975
0.756813 0.0359238 -3.46945e-18 0.00343236
0.288433 0.700877 0 0.00376347
0.756814 0.0409092 -3.46945e-18 0.00343172
0.756813 0.0460755 3.46945e-18 0.00345788
0.756813 0.0514296 0 0.00349396
0.715676 0.251863 0 0.00382492
0.756813 0.0569779 0 0.00353102
0.756814 0.0627277 -3.46945e-18 0.00356542
0.756814 0.0686863 -3.46945e-18 0.00359579
0 0.76019 0 0.00375
0.756814 0.0748612 0 0.00362222
0.67013 0.360265 3.46945e-18 0.00381556
0.756814 0.0812603 -3.46945e-18 0.00364619
0.756814 0.0878917 -3.46945e-18 0.0036688
0.756814 0.0947639 -3.46945e-18 0.00368994
0.715676 0.264688 0 0.00382607
0.756813 0.101886 0 0.00370951
0.624584 0.440544 0 0.00380686
0.756813 0.109266 3.46945e-18 0.00372745
0.756813 0.116914 3.46945e-18 0.00374377
0.412065 0.645647 0 0.00377493
0.467897 0.606847 0 0.00378114
0.756814 0.120806 0 0.00375208
0.756813 0.12484 0 0.00375851
0.715676 0.27798 0 0.00382696
0.756814 0.133054 -3.46945e-18 0.00377171
0.67013 0.377026 -3.46945e-18 0.00381604
0.756814 0.137234 0 0.00377854
0.574156 0.51269 0 0.00379744
0.756813 0.141566 3.46945e-18 0.00378341
0.685312 0.352034 -7.70372e-34 0.00382095
0.743101 0.2049 -7.70372e-34 0.00382523
0.350249 0.686824 0 0.00376814
0.756814 0.150387 0 0.00379368
0.756814 0.154876 0 0.00379918
0.715676 0.291753 0 0.00382765
0.756814 0.159528 -3.46945e-18 0.00380262
0.523729 0.569849 0 0.00378991
0.72743 0.264688 0 0.00383027
0.756814 0.16418 0 0.00380751
0.151552 0.76019 0 0.00375569
0.756813 0.169001 3.46945e-18 0.00381029
0.624584 0.46022 0 0.0038075
0.219993 0.745097 0 0.0037586
0.67013 0.394396 0 0.00381654
0.756813 0.178818 -3.46945e-18 0.00381682
0.715676 0.306027 0 0.0038282
0.075776 0.775831 0 0.00375246
0.756813 0.188991 0 0.00382229
0.756814 0.199535 0 0.00382682
0.715676 0.320819 0 0.00382865
0.574156 0.534985 0 0.00379803
0.288433 0.730005 0 0.00376374
0.756813 0.21046 0 0.00383051
0.467897 0.632561 0 0.00378157
0.67013 0.412396 -3.46945e-18 0.00381707
0.624584 0.48061 -3.08149e-33 0.00380813
0.756814 0.221782 0 0.00383348
0.412065 0.67277 3.08149e-33 0.00377529
0.715676 0.336148 0 0.00382905
0 0.791472 0 0.00375
0.756813 0.233516 3.46945e-18 0.00383583
0.523729 0.594219 0 0.00379037
0.624584 0.487654 1.54074e-33 0.00380834
0.756814 0.245675 3.46945e-18 0.00383765
0.350249 0.715441 3.46945e-18 0.00376847
0.67013 0.43105 0 0.00381764
0.715676 0.352034 -9.25187e-19 0.00382943
0.797951 9.08189e-19 -3.08149e-33 0.000245519
0.797951 0.00368111 2.31298e-18 0.000525586
0.797951 0.00749587 2.31298e-18 0.00205932
0.797951 0.0114491 2.31298e-18 0.0039782
0.797951 0.0141803 7.70372e-34 0.00441637
0.797951 0.0155459 0 0.00463545
0.797951 0.0169611 7.70372e-34 0.00455668
0.797951 0.0197915 2.31298e-18 0.00439913
0.797951 0.0219913 0 0.00419331
0.797951 0.0241911 3.08149e-33 0.00398748
0.797951 0.0264709 0 0.00383854
0.797951 0.0287506 -3.08149e-33 0.00368959
0.797951 0.0334755 2.31298e-18 0.00352226
0.797951 0.038372 2.31298e-18 0.00345725
0.797951 0.0434463 2.31298e-18 0.00345257
0.797951 0.0487048 0 0.0034756
0.756813 0.258275 -3.46945e-18 0.00383905
0.797951 0.0541543 2.31298e-18 0.00350862
0.797951 0.0598016 2.31298e-18 0.00354338
0.797951 0.0656539 2.31298e-18 0.003576
0.574156 0.55809 0 0.00379856
0.624584 0.501741 0 0.00380874
0.797951 0.0717187 2.31298e-18 0.00360528
0.797951 0.0780037 -3.08149e-33 0.00363185
0.797951 0.0845169 2.31298e-18 0.00365674
0.797951 0.0912666 -3.08149e-33 0.00368026
0.797951 0.0982613 2.31298e-18 0.00370226
0.756813 0.271334 0 0.0038401
0.797951 0.10551 2.31298e-18 0.00372262
0.715676 0.368496 0 0.00382981
0.151552 0.791472 0 0.00375584
0.797951 0.113022 2.31298e-18 0.00374128
0.219992 0.775831 3.46945e-18 0.00375882
0.797951 0.118211 7.70372e-34 0.00375258
0.770526 0.239487 1.54074e-33 0.00384273
0.797951 0.120806 0 0.00375824
0.67013 0.450382 3.46945e-18 0.00381822
0.797951 0.128874 3.08149e-33 0.00377352
0.467897 0.659208 0 0.00378195
0.756813 0.284866 -3.46945e-18 0.00384089
0.743101 0.320819 -7.70372e-34 0.00383842
0.797951 0.137234 0 0.00378717
0.797951 0.141566 0 0.0037932
0.797951 0.145897 -9.25187e-19 0.00379924
0.523729 0.619475 0 0.00379079
0.075776 0.807681 0 0.00375253
0.797951 0.150387 0 0.00380453
0.797951 0.154876 0 0.00380981
0.715676 0.385557 0 0.00383021
0.412065 0.700877 3.08149e-33 0.00377562
0.288433 0.76019 0 0.003764
0.756813 0.29889 0 0.00384147
0.797951 0.16418 0 0.00381896
0.624584 0.523639 0 0.0038093
0.797951 0.167394 7.70372e-34 0.00382158
0.797951 0.173822 2.31298e-18 0.0038268
0.574156 0.582034 0 0.00379903
0.67013 0.470415 0 0.00381881
0.797951 0.183814 2.31298e-18 0.00383342
0.756813 0.313423 -3.46945e-18 0.00384192
0.797951 0.194169 -9.25187e-19 0.00383895
0.715676 0.403236 0 0.00383064
0.151552 0.807681 0 0.00375591
0.797951 0.197746 -7.70372e-34 0.00384046
0.350249 0.745097 0 0.00376877
0.797951 0.2049 3.08149e-33 0.00384349
0 0.823889 0 0.00375
0.756813 0.328483 -3.46945e-18 0.00384228
0.797951 0.21046 0 0.00384533
0.797951 0.21602 -3.08149e-33 0.00384717
0.797951 0.223703 7.70372e-34 0.00384912
0.797951 0.227544 9.25187e-19 0.0038501
0.624584 0.546332 0 0.00380981
0.715676 0.421557 0 0.0038311
0.67013 0.491176 -3.46945e-18 0.00381939
0.797951 0.231525 7.70372e-34 0.00385086
0.467897 0.686824 -3.46945e-18 0.0037823
0.523729 0.645647 0 0.00379115
0.756813 0.344091 -3.46945e-18 0.00384259
0.822721 0.120806 7.70372e-34 0.00376323
0.797951 0.239487 -3.08149e-33 0.00385238
0.822721 0.137234 7.70372e-34 0.00379379
0.835106 0.00184056 0 0.000213041
0.835106 0.00558849 0 0.000799562
0.835106 0.00947248 0 0.00340851
0.835106 0.0134975 0 0.00485854
0.835107 0.0176687 0 0.0048897
0.835106 0.0219913 -3.46945e-18 0.00438138