# kMean  POINT_DATA 63140
# x  y  z  kMean
0 0.1 0 0.00375
0 0.1 -0.0179898 0.00375
0 0.1 0.0179898 0.00375
0.0363518 0.1 0.0179898 0.00374769
0.0363518 0.1 -0.0179898 0.00374769
0 0.1 -0.0570102 0.00375
0 0.1 0.0570102 0.00375
0.0363518 0.1 0.0570102 0.00374769
0.0363518 0.1 -0.0570102 0.00374769
0 0.1 -0.075 0.00375
0 0.1 0.075 0.00375
0.075776 0.1 -0.0375 0.00374492
0.075776 0.1 0.0375 0.00374493
0 0.1 -0.0929898 0.00375
0 0.1 0.0929898 0.00375
0.0363518 0.1 -0.0929898 0.00374786
0.0363518 0.1 0.0929898 0.00374785
0 0.1 -0.13201 0.00375
0 0.1 0.13201 0.00375
0.075776 0.1 -0.1125 0.00374529
0.075776 0.1 0.1125 0.00374525
0.0363518 0.1 -0.13201 0.00374786
0.0363518 0.1 0.13201 0.00374785
0 0.1 -0.15 0.00375
0 0.1 0.15 0.00375
0.150379 0.1 -2.22623e-17 0.00373867
0 0.1 -0.16799 0.00375
0 0.1 0.16799 0.00375
0.150379 0.1 -0.075 0.0037392
0.150379 0.1 0.075 0.00373877
0.0363518 0.1 -0.16799 0.00374814
0.0363518 0.1 0.16799 0.00374814
0.075776 0.1 -0.1875 0.00374585
0.075776 0.1 0.1875 0.00374586
0 0.1 -0.20701 0.00375
0 0.1 0.20701 0.00375
0.0363518 0.1 -0.20701 0.00374814
0.0363518 0.1 0.20701 0.00374814
0.150379 0.1 -0.15 0.00373999
0.150379 0.1 0.15 0.00373943
0.219993 0.1 -0.0375 0.00373296
0.219993 0.1 0.0375 0.00373243
0 0.1 -0.225 0.00375
0 0.1 0.225 0.00375
0 0.1 -0.24299 0.00375
0 0.1 0.24299 0.00375
0.0363518 0.1 0.24299 0.00374852
0.0363518 0.1 -0.24299 0.00374839
0.219993 0.1 -0.1125 0.00373417
0.219993 0.1 0.1125 0.00373302
0.150379 0.1 -0.225 0.00374076
0.150379 0.1 0.225 0.00374042
0.075776 0.1 -0.2625 0.00374638
0.075776 0.1 0.2625 0.00374663
0 0.1 -0.28201 0.00375
0 0.1 0.28201 0.00375
0.0363518 0.1 -0.28201 0.00374839
0.0363518 0.1 0.28201 0.00374852
0.287374 0.1 -2.89121e-19 0.00372594
0.219992 0.1 0.1875 0.00373416
0.219992 0.1 -0.1875 0.00373518
0.287374 0.1 -0.075 0.00372703
0.287374 0.1 0.075 0.00372571
0 0.1 -0.3 0.00375
0 0.1 0.3 0.00375
0 0.1 0.31799 0.00375
0 0.1 -0.31799 0.00375
0.0363518 0.1 -0.31799 0.00374862
0.0363518 0.1 0.31799 0.00374889
0.287374 0.1 0.15 0.00372642
0.287374 0.1 -0.15 0.00372834
0.150379 0.1 -0.3 0.00374151
0.150379 0.1 0.3 0.00374155
0.219993 0.1 0.2625 0.00373557
0.219993 0.1 -0.2625 0.00373613
0.075776 0.1 -0.3375 0.00374685
0.075776 0.1 0.3375 0.0037474
0.350249 0.1 -0.0375 0.00371998
0.350249 0.1 0.0375 0.00371896
0 0.1 -0.35701 0.00375
0 0.1 0.35701 0.00375
0.0363518 0.1 -0.35701 0.00374862
0.0363518 0.1 0.35701 0.00374889
0.287374 0.1 -0.225 0.00372949
0.287374 0.1 0.225 0.00372772
0.350249 0.1 -0.1125 0.00372156
0.350249 0.1 0.1125 0.00371902
0 0.1 -0.375 0.00375
0 0.1 0.375 0.00375
0 0.1 -0.39299 0.00375
0 0.1 0.39299 0.00375
0.0363518 0.1 -0.39299 0.00374885
0.0363518 0.1 0.39299 0.00374919
0.350249 0.1 -0.1875 0.00372299
0.350249 0.1 0.1875 0.00372007
0.219992 0.1 -0.3375 0.00373716
0.219992 0.1 0.3375 0.00373711
0.150379 0.1 0.375 0.00374262
0.150379 0.1 -0.375 0.00374216
0.411108 0.1 4.33681e-19 0.00371431
0.287374 0.1 -0.3 0.00373052
0.287374 0.1 0.3 0.0037293
0.411108 0.1 -0.075 0.00371572
0.411108 0.1 0.075 0.00371359
0.075776 0.1 -0.4125 0.00374732
0.075776 0.1 0.4125 0.00374801
0 0.1 0.43201 0.00375
0 0.1 -0.43201 0.00375
0.0363518 0.1 0.43201 0.00374919
0.0363518 0.1 -0.43201 0.00374885
0.411108 0.1 -0.15 0.00371726
0.411108 0.1 0.15 0.00371385
0.350249 0.1 -0.2625 0.00372414
0.350249 0.1 0.2625 0.00372166
0 0.1 -0.45 0.00375
0 0.1 0.45 0.00375
0.219992 0.1 0.4125 0.00373843
0.219992 0.1 -0.4125 0.00373776
0 0.1 -0.46799 0.00375
0 0.1 0.46799 0.00375
0.411108 0.1 -0.225 0.00371855
0.411108 0.1 0.225 0.00371495
0.467897 0.1 -0.0375 0.00371001
0.467897 0.1 0.0375 0.00370865
0.0363518 0.1 0.46799 0.00374945
0.0363518 0.1 -0.46799 0.00374909
0.287374 0.1 -0.375 0.00373136
0.287374 0.1 0.375 0.00373086
0.150379 0.1 0.45 0.00374337
0.150379 0.1 -0.45 0.00374265
0.467897 0.1 0.1125 0.00370811
0.467897 0.1 -0.1125 0.00371167
0.350249 0.1 -0.3375 0.00372515
0.350249 0.1 0.3375 0.00372341
0.075776 0.1 -0.4875 0.00374781
0.075776 0.1 0.4875 0.00374855
0.467897 0.1 0.1875 0.0037086
0.467897 0.1 -0.1875 0.00371316
0 0.1 -0.50701 0.00375
0 0.1 0.50701 0.00375
0.0363518 0.1 -0.50701 0.00374909
0.0363518 0.1 0.50701 0.00374945
0.411108 0.1 0.3 0.00371651
0.411108 0.1 -0.3 0.00371957
0.522865 0.1 1.41031e-17 0.00370643
0 0.1 -0.525 0.00375
0 0.1 0.525 0.00375
0.522865 0.1 -0.075 0.00370794
0.522865 0.1 0.075 0.00370531
0.287374 0.1 0.45 0.00373201
0.287374 0.1 -0.45 0.00373195
0.219992 0.1 0.4875 0.00373893
0.219992 0.1 -0.4875 0.00373817
0.467897 0.1 -0.2625 0.00371425
0.467897 0.1 0.2625 0.00370988
0.350249 0.1 -0.4125 0.00372587
0.350249 0.1 0.4125 0.00372505
0 0.1 -0.54299 0.00375
0 0.1 0.54299 0.00375
0.522865 0.1 0.15 0.00370497
0.522865 0.1 -0.15 0.00370939
0.0363518 0.1 0.54299 0.00374971
0.0363518 0.1 -0.54299 0.00374933
0.150379 0.1 -0.525 0.0037432
0.150379 0.1 0.525 0.00374393
0.411108 0.1 -0.375 0.00372035
0.411108 0.1 0.375 0.00371816
0.075776 0.1 -0.5625 0.00374831
0.075776 0.1 0.5625 0.00374909
0.522865 0.1 -0.225 0.00371051
0.522865 0.1 0.225 0.00370549
0.574156 0.1 0.0375 0.00370284
0.574157 0.1 -0.0375 0.00370434
0.467897 0.1 -0.3375 0.00371509
0.467897 0.1 0.3375 0.0037115
0 0.1 -0.58201 0.00375
0 0.1 0.58201 0.00375
0.0363518 0.1 -0.58201 0.00374933
0.0363518 0.1 0.58201 0.00374971
0.574157 0.1 -0.1125 0.00370584
0.574157 0.1 0.1125 0.00370178
0.287374 0.1 -0.525 0.00373257
0.287374 0.1 0.525 0.00373277
0 0.1 -0.6 0.00375
0 0.1 0.6 0.00375
0.350249 0.1 0.4875 0.00372614
0.350249 0.1 -0.4875 0.00372646
0.522865 0.1 -0.3 0.00371127
0.522865 0.1 0.3 0.00370663
0.219992 0.1 -0.5625 0.00373893
0.219992 0.1 0.5625 0.00373958
0.574156 0.1 -0.1875 0.00370701
0.574156 0.1 0.1875 0.00370153
0.411108 0.1 0.45 0.00371956
0.411108 0.1 -0.45 0.00372092
0 0.1 -0.61799 0.00375
0 0.1 0.61799 0.00375
0.150379 0.1 -0.6 0.00374383
0.150379 0.1 0.6 0.00374455
0.0363518 0.1 -0.61799 0.00374958
0.0363518 0.1 0.61799 0.00374997
0.467897 0.1 -0.4125 0.00371565
0.467897 0.1 0.4125 0.00371311
0.623803 0.1 2.34188e-17 0.00370284
0.623803 0.1 0.075 0.00370148
0.623803 0.1 -0.075 0.00370424
0.574156 0.1 0.2625 0.00370212
0.574156 0.1 -0.2625 0.00370774
0.623803 0.1 0.15 0.00370056
0.623803 0.1 -0.15 0.00370538
0.075776 0.1 0.6375 0.00374962
0.075776 0.1 -0.6375 0.00374881
0.522865 0.1 -0.375 0.00371173
0.522865 0.1 0.375 0.00370802
0 0.1 0.65701 0.00375
0 0.1 -0.65701 0.00375
0.0363518 0.1 0.65701 0.00374997
0.0363518 0.1 -0.65701 0.00374958
0.350249 0.1 0.5625 0.00372693
0.350249 0.1 -0.5625 0.00372717
0.623803 0.1 0.225 0.00370034
0.623803 0.1 -0.225 0.00370609
0.287374 0.1 -0.6 0.0037333
0.287374 0.1 0.6 0.0037335
0.574157 0.1 -0.3375 0.00370815
0.574157 0.1 0.3375 0.00370322
0.411108 0.1 0.525 0.00372053
0.411108 0.1 -0.525 0.00372146
0.67013 0.1 0.0375 0.00370131
0.67013 0.1 -0.0375 0.00370276
0.219992 0.1 -0.6375 0.00373968
0.219993 0.1 0.6375 0.00374032
0 0.1 -0.675 0.00375
0 0.1 0.675 0.00375
0.467897 0.1 -0.4875 0.00371607
0.467897 0.1 0.4875 0.00371434
0.67013 0.1 -0.1125 0.00370394
0.67013 0.1 0.1125 0.0036999
0.522865 0.1 0.45 0.00370929
0.522865 0.1 -0.45 0.00371195
0.150379 0.1 0.675 0.00374519
0.150379 0.1 -0.675 0.00374443
0.623803 0.1 0.3 0.00370078
0.623803 0.1 -0.3 0.00370635
0 0.1 -0.69299 0.00375
0 0.1 0.69299 0.00375
0.0363518 0.1 -0.69299 0.00374981
0.0363518 0.1 0.69299 0.00375022
0.67013 0.1 -0.1875 0.00370465
0.67013 0.1 0.1875 0.00369895
0.574156 0.1 0.4125 0.00370447
0.574157 0.1 -0.4125 0.00370819
0.714971 0.1 -2.8382e-17 0.00370326
0.075776 0.1 -0.7125 0.0037493
0.075776 0.1 0.7125 0.00375013
0.714971 0.1 -0.075 0.0037044
0.714971 0.1 0.075 0.00370183
0.67013 0.1 0.2625 0.00369871
0.67013 0.1 -0.2625 0.00370488
0.411108 0.1 -0.6 0.00372201
0.411108 0.1 0.6 0.00372125
0.350249 0.1 0.6375 0.00372768
0.350249 0.1 -0.6375 0.00372789
0.623803 0.1 0.375 0.00370159
0.623803 0.1 -0.375 0.00370619
0.714971 0.1 -0.15 0.00370507
0.714971 0.1 0.15 0.00370046
0.467897 0.1 -0.5625 0.00371648
0.467897 0.1 0.5625 0.00371511
0 0.1 -0.73201 0.00375
0 0.1 0.73201 0.00375
0.0363518 0.1 0.73201 0.00375022
0.0363518 0.1 -0.73201 0.00374981
0.287374 0.1 -0.675 0.00373399
0.287374 0.1 0.675 0.00373426
0.522865 0.1 -0.525 0.00371205
0.522865 0.1 0.525 0.00371016
0.219993 0.1 -0.7125 0.00374035
0.219992 0.1 0.7125 0.00374109
0.714971 0.1 -0.225 0.0037052
0.714971 0.1 0.225 0.0036995
0 0.1 0.75 0.00375
0 0.1 -0.75 0.00375
0.67013 0.1 -0.3375 0.00370456
0.67013 0.1 0.3375 0.00369903
0.574156 0.1 -0.4875 0.00370805
0.574157 0.1 0.4875 0.00370546
0.756813 0.1 0.0375 0.0037037
0.756814 0.1 -0.0375 0.00370495
0.150379 0.1 0.746002 0.00374585
0.150379 0.1 -0.75 0.00374498
0.756813 0.1 -0.1125 0.00370567
0.756813 0.1 0.1125 0.00370212
0 0.1 0.76799 0.00375
0 0.1 -0.76799 0.00375
0.0363518 0.1 0.76799 0.00375044
0.0363518 0.1 -0.76799 0.00375002
0.623803 0.1 -0.45 0.00370572
0.623803 0.1 0.45 0.00370242
0.714971 0.1 -0.3 0.00370474
0.714971 0.1 0.3 0.00369909
0.756814 0.1 -0.1875 0.00370577
0.756814 0.1 0.1875 0.00370059
0.67013 0.1 -0.4125 0.00370384
0.67013 0.1 0.4125 0.00369966
0.411108 0.1 0.675 0.00372193
0.411108 0.1 -0.675 0.00372252
0.467897 0.1 0.6375 0.0037157
0.467897 0.1 -0.6375 0.00371687
0.075776 0.1 0.7875 0.00375058
0.075776 0.1 -0.7875 0.00374974
0.350249 0.1 -0.7125 0.00372852
0.350249 0.1 0.7125 0.00372846
0.522865 0.1 -0.6 0.00371208
0.522865 0.1 0.6 0.00371064
0.797314 0.1 -3.59473e-17 0.00370729
0.287374 0.1 0.746002 0.00373509
0.797314 0.1 -0.075 0.00370807
0.797314 0.1 0.075 0.00370594
0.756814 0.1 -0.2625 0.00370524
0.756814 0.1 0.2625 0.0036995
0.287374 0.1 -0.75 0.0037346
0.574156 0.1 -0.5625 0.00370778
0.574156 0.1 0.5625 0.00370595
0 0.1 0.80701 0.00375
0 0.1 -0.80701 0.00375
0.714971 0.1 -0.375 0.00370375
0.714971 0.1 0.375 0.00369909
0.0363518 0.1 0.80701 0.00375044
0.0363518 0.1 -0.80701 0.00375002
0.797314 0.1 -0.15 0.00370816
0.797314 0.1 0.15 0.00370427
0.623803 0.1 -0.525 0.00370506
0.623803 0.1 0.525 0.00370288
0.219992 0.1 0.7875 0.00374179
0.219992 0.1 -0.7875 0.00374093
0.149792 0.1 0.80701 0.00374623
0 0.1 0.825 0.00375
0 0.1 -0.825 0.00375
0.797314 0.1 -0.225 0.00370753
0.797314 0.1 0.225 0.00370265
0.756813 0.1 -0.3375 0.00370405
0.756813 0.1 0.3375 0.00369889
0.67013 0.1 0.4875 0.0037001
0.67013 0.1 -0.4875 0.00370282
0.835106 0.1 -0.0375 0.0037105
0.835106 0.1 0.0375 0.00370955
0.150379 0.1 -0.825 0.00374545
0.835106 0.1 -0.1125 0.0037107
0.835106 0.1 0.1125 0.00370794
0 0.1 -0.84299 0.00375
0 0.1 0.84299 0.00375
0.0363518 0.1 -0.84299 0.00375021
0.0363518 0.1 0.84299 0.00375062
0.714971 0.1 -0.45 0.00370237
0.714971 0.1 0.45 0.0036992
0.411108 0.1 0.746002 0.00372269
0.797314 0.1 -0.3 0.0037062
0.797314 0.1 0.3 0.00370135
0.467897 0.1 -0.7125 0.00371717
0.467897 0.1 0.7125 0.00371629
0.522865 0.1 0.675 0.00371093
0.522865 0.1 -0.675 0.00371204
0.411108 0.1 -0.75 0.00372292
0.835106 0.1 -0.1875 0.00371008
0.835107 0.1 0.1875 0.00370598
0.286844 0.1 0.80701 0.00373557
0.574156 0.1 0.6375 0.00370604
0.574157 0.1 -0.6375 0.0037074
0.350249 0.1 -0.7875 0.00372906
0.350249 0.1 0.7875 0.00372923
0.756813 0.1 -0.4125 0.00370238
0.756814 0.1 0.4125 0.00369859
0.623803 0.1 -0.6 0.00370426
0.623803 0.1 0.6 0.00370287
0.075776 0.1 0.8625 0.00375096
0.075776 0.1 -0.8625 0.00375012
0.871687 0.1 -3.2767e-18 0.00371441
0.287374 0.1 -0.825 0.0037351
0.871687 0.1 -0.075 0.00371474
0.871687 0.1 0.075 0.00371325
0.67013 0.1 -0.5625 0.00370162
0.67013 0.1 0.5625 0.00370005
0.835106 0.1 0.2625 0.0037041
0.835106 0.1 -0.2625 0.00370865
0.797314 0.1 -0.375 0.00370424
0.797314 0.1 0.375 0.00370038
0 0.1 -0.88201 0.00375
0 0.1 0.88201 0.00375
0.0363518 0.1 0.88201 0.00375062
0.0363518 0.1 -0.88201 0.00375021
0.871687 0.1 0.15 0.00371141
0.871687 0.1 -0.15 0.00371418
0.714971 0.1 0.525 0.00369903
0.714971 0.1 -0.525 0.0037007
0.219993 0.1 0.8625 0.00374239
0.219992 0.1 -0.8625 0.00374142
0 0.1 0.9 0.00375
0 0.1 -0.9 0.00375
0.756813 0.1 0.4875 0.00369829
0.756814 0.1 -0.4875 0.0037003
0.871687 0.1 0.225 0.00370925
0.871687 0.1 -0.225 0.0037127
0.835106 0.1 -0.3375 0.00370649
0.835106 0.1 0.3375 0.00370252
0.41063 0.1 0.80701 0.00372313
0.90582 0.1 -0.0375 0.00371879
0.905821 0.1 0.0375 0.00371822
0.522865 0.1 0.746002 0.00371127
0.150379 0.1 0.9 0.00374677
0.90582 0.1 0.1125 0.00371671
0.905821 0.1 -0.1125 0.00371841
0.522865 0.1 -0.75 0.00371193
0.574156 0.1 0.7125 0.00370595
0.574156 0.1 -0.7125 0.00370698
0.797314 0.1 -0.45 0.00370179
0.797314 0.1 0.45 0.00369959
0.467897 0.1 -0.7875 0.00371731
0.467897 0.1 0.7875 0.00371689
0.150379 0.1 -0.903998 0.00374572
0 0.1 0.91799 0.00375
0 0.1 -0.91799 0.00375
0.0363518 0.1 0.91799 0.00375076
0.0363518 0.1 -0.91799 0.00375036
0.623803 0.1 0.675 0.00370251
0.623803 0.1 -0.675 0.00370336
0.411108 0.1 -0.825 0.00372319
0.871687 0.1 0.3 0.00370711
0.871687 0.1 -0.3 0.00371043
0.67013 0.1 -0.6375 0.0037003
0.67013 0.1 0.6375 0.0036995
0.90582 0.1 -0.1875 0.00371698
0.90582 0.1 0.1875 0.00371446
0.350249 0.1 0.8625 0.00372993
0.350249 0.1 -0.8625 0.00372948
0.835106 0.1 -0.4125 0.00370372
0.835106 0.1 0.4125 0.00370117
0.714971 0.1 -0.6 0.00369884
0.714971 0.1 0.6 0.00369835
0.93886 0.1 -1.15648e-17 0.0037243
0.075776 0.1 0.9375 0.00375126
0.075776 0.1 -0.9375 0.00375044
0.93886 0.1 0.075 0.00372339
0.93886 0.1 -0.075 0.00372416
0.756813 0.1 0.5625 0.00369754
0.756814 0.1 -0.5625 0.00369795
0.905821 0.1 -0.2625 0.0037146
0.905821 0.1 0.2625 0.00371189
0.287374 0.1 0.9 0.00373631
0.287374 0.1 -0.903998 0.00373534
0.871687 0.1 0.375 0.00370513
0.871687 0.1 -0.375 0.00370739
0.93886 0.1 -0.15 0.00372292
0.93886 0.1 0.15 0.0037215
0.797314 0.1 0.525 0.00369861
0.797314 0.1 -0.525 0.00369896
0 0.1 0.95701 0.00375
0 0.1 -0.95701 0.00375
0.0363518 0.1 0.95701 0.00375076
0.0363518 0.1 -0.95701 0.00375036
0.522433 0.1 0.80701 0.00371143
0.219992 0.1 0.9375 0.00374287
0.219992 0.1 -0.9375 0.00374179
0.93886 0.1 0.225 0.00371891
0.93886 0.1 -0.225 0.0037206
0.90582 0.1 0.3375 0.00370938
0.905821 0.1 -0.3375 0.00371149
0.835106 0.1 -0.4875 0.00370047
0.835107 0.1 0.4875 0.00369996
0.969689 0.1 -0.0375 0.00372986
0.969689 0.1 0.0375 0.00372967
0.61613 0.1 0.75 0.00370202
0.574156 0.1 -0.7875 0.00370655
0.574156 0.1 0.7875 0.00370592
0 0.1 0.975 0.00375
0 0.1 -0.975 0.00375
0.623803 0.1 -0.75 0.00370242
0.969689 0.1 -0.1125 0.00372893
0.969689 0.1 0.1125 0.0037283
0.522865 0.1 -0.825 0.00371172
0.67013 0.1 0.7125 0.00369863
0.67013 0.1 -0.7125 0.00369888
0.871687 0.1 -0.45 0.0037037
0.871687 0.1 0.45 0.00370329
0.467897 0.1 0.8625 0.00371741
0.467897 0.1 -0.8625 0.00371732
0.714971 0.1 -0.675 0.00369687
0.714971 0.1 0.675 0.0036972
0.93886 0.1 -0.3 0.00371734
0.93886 0.1 0.3 0.00371603
0.150379 0.1 0.975 0.00374711
0.150379 0.1 -0.975 0.00374614
0.969689 0.1 -0.1875 0.00372674
0.969689 0.1 0.1875 0.00372587
0.411108 0.1 0.9 0.00372381
0.756813 0.1 0.6375 0.00369618
0.756814 0.1 -0.6375 0.00369544
0.990306 0.1 -2.19732e-17 0.00373072
0 0.1 0.99299 0.00375
0 0.1 -0.99299 0.00375
0.411108 0.1 -0.903998 0.00372321
0.990306 0.1 -0.075 0.00373025
0.990306 0.1 0.075 0.00373
0.0363518 0.1 0.99299 0.00375087
0.0363518 0.1 -0.99299 0.00375047
0.90582 0.1 -0.4125 0.00370741
0.905821 0.1 0.4125 0.00370696
0.797314 0.1 -0.6 0.00369587
0.797314 0.1 0.6 0.00369712
0.350249 0.1 0.9375 0.00373053
0.350249 0.1 -0.9375 0.00372978
0.990306 0.1 0.15 0.00372811
0.990306 0.1 -0.15 0.00372856
0.969689 0.1 -0.2625 0.00372349
0.969689 0.1 0.2625 0.00372277
0.835106 0.1 -0.5625 0.00369688
0.835106 0.1 0.5625 0.00369835
0.93886 0.1 -0.375 0.00371305
0.93886 0.1 0.375 0.00371311
0.075776 0.1 1.0125 0.00375148
0.075776 0.1 -1.0125 0.00375067
0.990306 0.1 -0.225 0.00372566
0.990306 0.1 0.225 0.00372528
0.287374 0.1 0.975 0.00373677
0.287374 0.1 -0.975 0.00373577
0.871687 0.1 -0.525 0.00369955
0.871687 0.1 0.525 0.00370133
1.02149 0.1 -0.0369628 0.00373725
1.02149 0.1 0.0369628 0.00373734
0.969689 0.1 -0.3375 0.0037192
0.969689 0.1 0.3375 0.00371943
1.02149 0.1 -0.110888 0.00373593
1.02149 0.1 0.110888 0.00373615
0.90582 0.1 0.4875 0.0037046
0.90582 0.1 -0.4875 0.00370279
0.623803 0.1 0.819003 0.00370115
0 0.1 1.03201 0.00375
0 0.1 -1.03201 0.00375
0.0363518 0.1 1.03201 0.00375087
0.0363518 0.1 -1.03201 0.00375047
0.67013 0.1 -0.7875 0.00369742
0.67013 0.1 0.7875 0.00369767
0.623803 0.1 -0.825 0.00370143
0.990306 0.1 -0.3 0.00372165
0.990306 0.1 0.3 0.0037219
0.219992 0.1 -1.0125 0.00374206
0.219993 0.1 1.0125 0.00374322
0.574156 0.1 0.8625 0.00370594
0.574157 0.1 -0.8625 0.00370599
0.714971 0.1 -0.75 0.00369482
0.714971 0.1 0.75 0.00369579
1.02149 0.1 0.184814 0.00373375
1.02149 0.1 -0.184814 0.00373331
0.756814 0.1 -0.7125 0.00369284
0.756814 0.1 0.7125 0.00369439
0.522865 0.1 0.9 0.0037117
0.93886 0.1 -0.45 0.00370795
0.93886 0.1 0.45 0.00371021
1.04168 0.1 0 0.00374205
1.04168 0.1 -0.0729162 0.00374123
1.04168 0.1 0.0729162 0.00374159
0.522865 0.1 -0.903998 0.00371128
0.797314 0.1 -0.675 0.00369262
0.797314 0.1 0.675 0.00369506
0.467897 0.1 0.9375 0.00371781
0.467897 0.1 -0.9375 0.00371724
0 0.1 1.05 0.00375
0 0.1 -1.05 0.00375
0.835106 0.1 -0.6375 0.00369302
0.835106 0.1 0.6375 0.00369611
1.04168 0.1 -0.145832 0.00373912
1.04168 0.1 0.145832 0.00373986
1.02149 0.1 -0.25874 0.00372946
1.02149 0.1 0.25874 0.0037304
0.969689 0.1 -0.4125 0.00371355
0.969689 0.1 0.4125 0.00371606
0.411108 0.1 0.975 0.00372424
0.411108 0.1 -0.975 0.0037234
0.871687 0.1 -0.6 0.00369506
0.871687 0.1 0.6 0.0036989
1.0579 0.1 -0.0360525 0.00374601
1.0579 0.1 0.0360525 0.00374628
0.990306 0.1 -0.375 0.00371637
0.990306 0.1 0.375 0.00371832
0.150379 0.1 1.05 0.00374734
0.150379 0.1 -1.05 0.00374635
1.0579 0.1 0.108157 0.00374527
1.0579 0.1 -0.108157 0.00374443
1.04168 0.1 -0.218749 0.00373571
1.04168 0.1 0.218749 0.00373696
0.90582 0.1 -0.5625 0.00369773
0.90582 0.1 0.5625 0.00370197
0 0.1 -1.06799 0.00375
0 0.1 1.06799 0.00375
0.0363518 0.1 -1.06799 0.00375056
0.0363518 0.1 1.06799 0.00375093
0.350249 0.1 1.0125 0.00373097
0.350249 0.1 -1.0125 0.00372996
1.0579 0.1 -0.180262 0.00374156
1.0579 0.1 0.180262 0.00374297
1.02149 0.1 -0.332665 0.00372435
1.02149 0.1 0.332665 0.00372652
0.93886 0.1 -0.525 0.00370239
0.93886 0.1 0.525 0.00370721
1.08012 0.1 5.49329e-18 0.00375222
1.04168 0.1 -0.291665 0.003731
1.04168 0.1 0.291665 0.00373324
1.08012 0.1 0.0709941 0.00375195
1.08012 0.1 -0.0709941 0.00375118
0.969689 0.1 -0.4875 0.00370755
0.96969 0.1 0.4875 0.00371265
1.0579 0.1 0.252367 0.00373958
1.0579 0.1 -0.252367 0.00373735
0.990306 0.1 -0.45 0.00371024
0.990306 0.1 0.45 0.00371466
0.287374 0.1 -1.05 0.00373594
0.287374 0.1 1.05 0.0037371
0.714971 0.1 0.821002 0.00369438
1.08012 0.1 -0.141988 0.00374884
1.08012 0.1 0.141988 0.00375036
0.075776 0.1 1.0875 0.00375162
0.075776 0.1 -1.0875 0.00375085
0.714971 0.1 -0.825 0.00369274
0.756813 0.1 -0.7875 0.00369014
0.756814 0.1 0.7875 0.00369241
0.67013 0.1 -0.8625 0.00369595
0.67013 0.1 0.8625 0.0036968
0.797314 0.1 -0.75 0.00368926
0.797314 0.1 0.75 0.00369262
0.623803 0.1 0.9 0.00370115
0.835106 0.1 -0.7125 0.00368901
0.835106 0.1 0.7125 0.0036933
0.623803 0.1 -0.903998 0.00370035
0.574156 0.1 0.9375 0.00370597
0.574156 0.1 -0.9375 0.00370525
1.02149 0.1 -0.406591 0.00371781
1.02149 0.1 0.406591 0.00372242
1.08012 0.1 -0.212982 0.00374514
1.08012 0.1 0.212982 0.00374753
1.10076 0.1 -0.0349809 0.00375769
1.10076 0.1 0.0349809 0.00375815
0.871687 0.1 -0.675 0.00369031
0.871687 0.1 0.675 0.00369585
1.04168 0.1 -0.364581 0.00372487
1.04168 0.1 0.364581 0.00372905
1.10076 0.1 -0.104943 0.00375588
1.10076 0.1 0.104943 0.00375732
0.522865 0.1 0.975 0.00371187
0.522865 0.1 -0.975 0.00371092
1.0579 0.1 -0.324472 0.00373174
1.0579 0.1 0.324472 0.00373547
0 0.1 -1.10701 0.00375
0 0.1 1.10701 0.00375
0.0363518 0.1 1.10701 0.00375093
0.0363518 0.1 -1.10701 0.00375056
0.90582 0.1 0.6375 0.00369876
0.905821 0.1 -0.6375 0.0036923
0.219992 0.1 1.0875 0.00374344
0.219992 0.1 -1.0875 0.00374222
0.93886 0.1 0.6 0.00370372
0.93886 0.1 -0.6 0.00369643
1.10076 0.1 -0.174905 0.0037528
1.10076 0.1 0.174905 0.00375513
0.467897 0.1 1.0125 0.00371811
0.467897 0.1 -1.0125 0.00371707
1.08012 0.1 -0.283976 0.00374001
1.08012 0.1 0.283976 0.00374372
1.11928 0.1 3.93204e-18 0.00376338
0.990306 0.1 -0.525 0.00370368
0.990306 0.1 0.525 0.00371087
0.96969 0.1 -0.5625 0.00370105
0.969689 0.1 0.5625 0.00370906
1.11928 0.1 -0.0690357 0.00376217
1.11928 0.1 0.0690357 0.00376327
0 0.1 1.125 0.00375
0 0.1 -1.125 0.00375
0.411108 0.1 -1.05 0.00372335
0.411108 0.1 1.05 0.00372454
1.10076 0.1 0.244866 0.00375174
1.10076 0.1 -0.244866 0.00374821
1.11928 0.1 -0.138072 0.00375966
1.11928 0.1 0.138072 0.00376183
1.02149 0.1 0.480517 0.00371816
1.02149 0.1 -0.480517 0.00371092
1.0579 0.1 -0.396577 0.0037247
1.0579 0.1 0.396577 0.00373099
1.04168 0.1 -0.437497 0.00371782
1.04168 0.1 0.437497 0.00372461
0.150379 0.1 1.125 0.00374748
0.150379 0.1 -1.125 0.00374649
0.714971 0.1 0.88201 0.00369196
1.08012 0.1 0.354971 0.00373926
1.08012 0.1 -0.354971 0.0037334
1.11928 0.1 -0.207107 0.00375572
1.11928 0.1 0.207107 0.00375909
0.350249 0.1 -1.0875 0.00373003
0.350249 0.1 1.0875 0.00373127
0 0.1 1.14299 0.00375
0 0.1 -1.14299 0.00375
0.0363518 0.1 1.14299 0.00375097
0.0363518 0.1 -1.14299 0.00375062
1.14316 0.1 -0.0339211 0.00377047
1.14316 0.1 0.0339211 0.0037711
0.797314 0.1 0.821002 0.00369018
1.10076 0.1 -0.314829 0.00374212
1.10076 0.1 0.314829 0.00374743
0.797314 0.1 -0.825 0.00368589
0.756814 0.1 -0.8625 0.00368749
0.756814 0.1 0.8625 0.0036904
1.14316 0.1 -0.101763 0.00376848
1.14316 0.1 0.101763 0.00377044
0.835106 0.1 -0.7875 0.00368494
0.835106 0.1 0.7875 0.00369017
0.871687 0.1 -0.75 0.00368551
0.871687 0.1 0.75 0.00369226
0.67013 0.1 0.9375 0.00369605
0.67013 0.1 -0.9375 0.00369442
0.90582 0.1 -0.7125 0.00368666
0.905821 0.1 0.7125 0.00369483
0.714971 0.1 -0.903998 0.00369079
1.11928 0.1 0.276143 0.00375525
1.11928 0.1 -0.276143 0.00375023
1.14316 0.1 0.169605 0.00376843
1.14316 0.1 -0.169605 0.0037652
0.93886 0.1 -0.675 0.00369023
0.93886 0.1 0.675 0.00369955
1.15704 0.1 0 0.00377514
1.0579 0.1 0.468682 0.00372624
1.0579 0.1 -0.468682 0.00371721
0.623803 0.1 0.975 0.00370077
0.623803 0.1 -0.975 0.00369921
0.990306 0.1 0.6 0.00370654
0.990306 0.1 -0.6 0.00369668
1.15704 0.1 -0.0671479 0.00377379
1.15704 0.1 0.0671479 0.00377516
1.04168 0.1 -0.510414 0.00371038
1.04168 0.1 0.510414 0.00371998
0.969689 0.1 -0.6375 0.00369423
0.969689 0.1 0.6375 0.00370457
1.08012 0.1 0.425965 0.00373441
1.08012 0.1 -0.425965 0.0037258
0.287374 0.1 -1.125 0.00373602
0.287374 0.1 1.125 0.00373729
1.02149 0.1 -0.554443 0.00370352
1.02149 0.1 0.554443 0.00371372
0.574156 0.1 1.0125 0.00370595
0.574156 0.1 -1.0125 0.0037045
1.15704 0.1 -0.134296 0.00377115
1.15704 0.1 0.134296 0.00377386
0.075776 0.1 1.1625 0.0037517
0.075776 0.1 -1.1625 0.00375097
1.10076 0.1 -0.384791 0.00373454
1.10076 0.1 0.384791 0.00374256
1.14316 0.1 -0.237448 0.0037603
1.14316 0.1 0.237448 0.00376517
1.11928 0.1 -0.345179 0.00374323
1.11928 0.1 0.345179 0.0037506
0.522865 0.1 1.05 0.00371194
0.522865 0.1 -1.05 0.00371044
1.15704 0.1 -0.201444 0.00376701
1.15704 0.1 0.201444 0.00377125
1.1744 0.1 -0.0331401 0.00378004
1.1744 0.1 0.0331401 0.00378075
1.1744 0.1 -0.0994202 0.00377801
1.1744 0.1 0.0994202 0.00378018
0 0.1 1.18201 0.00375
0 0.1 -1.18201 0.00375
0.0363518 0.1 1.18201 0.00375097
0.0363518 0.1 -1.18201 0.00375062
0.219992 0.1 1.1625 0.00374354
0.219993 0.1 -1.1625 0.0037423
1.14316 0.1 0.30529 0.00376086
1.14316 0.1 -0.30529 0.00375383
0.467897 0.1 1.0875 0.00371827
0.467897 0.1 -1.0875 0.00371684
1.1744 0.1 -0.1657 0.00377473
1.1744 0.1 0.1657 0.00377827
1.15704 0.1 -0.268592 0.00376124
1.15704 0.1 0.268592 0.00376745
1.0579 0.1 0.540787 0.00372126
1.0579 0.1 -0.540787 0.00370933
0.796996 0.1 0.88201 0.00368811
1.08012 0.1 -0.496959 0.00371784
1.08012 0.1 0.496959 0.00372928
1.10076 0.1 0.454752 0.00373732
1.10076 0.1 -0.454752 0.00372637
1.11928 0.1 -0.414214 0.00373516
1.11928 0.1 0.414214 0.00374542
1.04168 0.1 -0.58333 0.00370238
1.04168 0.1 0.58333 0.00371488
1.1744 0.1 -0.231981 0.00376968
1.1744 0.1 0.231981 0.0037751
0.871687 0.1 0.821002 0.00368857
0.411108 0.1 1.125 0.0037247
0.411108 0.1 -1.125 0.00372322
1.19808 0.1 1.73472e-17 0.00378908
0.990306 0.1 0.675 0.00370152
0.990306 0.1 -0.675 0.00368946
1.02149 0.1 0.628368 0.00370847
1.02149 0.1 -0.628368 0.00369563
1.19808 0.1 -0.0650961 0.00378763
1.19808 0.1 0.0650961 0.00378925
0 0.1 1.2 0.00375
0 0.1 -1.2 0.00375
0.871687 0.1 -0.825 0.00368075
0.905821 0.1 -0.7875 0.00368124
0.90582 0.1 0.7875 0.00369039
0.835106 0.1 -0.8625 0.00368092
0.835106 0.1 0.8625 0.00368694
0.93886 0.1 -0.75 0.00368397
0.93886 0.1 0.75 0.00369479
1.14316 0.1 -0.373132 0.00374593
1.14316 0.1 0.373132 0.00375579
0.969689 0.1 0.7125 0.00369952
0.969689 0.1 -0.7125 0.00368734
1.15704 0.1 -0.33574 0.00375395
1.15704 0.1 0.33574 0.0037627
0.756813 0.1 0.9375 0.00368856
0.756814 0.1 -0.9375 0.00368494
1.19808 0.1 0.130192 0.0037881
1.19808 0.1 -0.130192 0.00378489
0.797314 0.1 -0.903998 0.00368288
0.714971 0.1 0.975 0.0036917
0.714971 0.1 -0.975 0.00368867
0.150379 0.1 1.2 0.00374754
0.150379 0.1 -1.2 0.00374655
1.20938 0.1 -0.0322656 0.00379201
1.20938 0.1 0.0322656 0.00379284
1.1744 0.1 -0.298261 0.00376307
1.1744 0.1 0.298261 0.0037708
1.20938 0.1 -0.0967968 0.00378991
1.20938 0.1 0.0967968 0.00379239
1.19808 0.1 -0.195288 0.00378061
1.19808 0.1 0.195288 0.00378565
0.350249 0.1 1.1625 0.00373141
0.350249 0.1 -1.1625 0.00373002
0.67013 0.1 1.0125 0.00369532
0.67013 0.1 -1.0125 0.00369293
0 0.1 1.21799 0.00375
0 0.1 -1.21799 0.00375
0.0363518 0.1 -1.21799 0.00375065
0.0363518 0.1 1.21799 0.00375098
1.11928 0.1 -0.48325 0.00372673
1.11928 0.1 0.48325 0.00373985
1.10076 0.1 -0.524714 0.00371807
1.10076 0.1 0.524714 0.00373179
1.20938 0.1 0.161328 0.00379061
1.20938 0.1 -0.161328 0.00378652
1.08012 0.1 0.567953 0.00372371
1.08012 0.1 -0.567953 0.00370924
0.623803 0.1 1.05 0.00370036
0.623803 0.1 -1.05 0.0036981
1.0579 0.1 -0.612892 0.00370073
1.0579 0.1 0.612892 0.00371561
1.15704 0.1 -0.402888 0.00374551
1.15704 0.1 0.402888 0.00375728
1.14316 0.1 0.440974 0.0037502
1.14316 0.1 -0.440974 0.00373727
1.19808 0.1 -0.260384 0.00377463
1.19808 0.1 0.260384 0.00378197
1.2267 0.1 3.57064e-18 0.00379943
1.2267 0.1 -0.0636649 0.00379789
1.2267 0.1 0.0636649 0.00379971
1.1744 0.1 -0.364541 0.00375501
1.1744 0.1 0.364541 0.00376565
0.574156 0.1 1.0875 0.00370581
0.574156 0.1 -1.0875 0.00370376
1.20938 0.1 0.225859 0.00378756
1.20938 0.1 -0.225859 0.0037813
1.04168 0.1 -0.656246 0.00369396
1.04168 0.1 0.656246 0.00370913
1.2267 0.1 -0.12733 0.00379506
1.2267 0.1 0.12733 0.00379868
0.287374 0.1 1.2 0.00373735
0.287374 0.1 -1.2 0.003736
1.02149 0.1 -0.702294 0.00368759
1.02149 0.1 0.702294 0.00370274
0.075776 0.1 -1.2375 0.00375104
0.075776 0.1 1.2375 0.00375173
0.871399 0.1 0.88201 0.00368545
0.522865 0.1 1.125 0.00371188
0.522865 0.1 -1.125 0.0037099
1.2267 0.1 -0.190994 0.00379063
1.2267 0.1 0.190994 0.00379633
1.19808 0.1 -0.32548 0.00376717
1.19808 0.1 0.32548 0.00377723
0.990306 0.1 -0.75 0.00368209
0.990306 0.1 0.75 0.00369597
1.24274 0.1 -0.0314313 0.00380462
1.24274 0.1 0.0314313 0.00380559
1.20938 0.1 -0.29039 0.00377453
1.20938 0.1 0.29039 0.00378334
1.24274 0.1 -0.0942942 0.00380242
1.24274 0.1 0.0942942 0.00380529
0.93886 0.1 0.821002 0.00368989
1.11928 0.1 -0.552285 0.0037176
1.11928 0.1 0.552285 0.00373386
1.15704 0.1 -0.470036 0.0037367
1.15704 0.1 0.470036 0.00375136
0.969689 0.1 -0.7875 0.00368032
0.96969 0.1 0.7875 0.00369396
0.93886 0.1 -0.825 0.00367773
0.90582 0.1 0.8625 0.00368571
0.905821 0.1 -0.8625 0.00367574
1.1744 0.1 -0.430821 0.00374606
1.1744 0.1 0.430821 0.0037599
1.10076 0.1 -0.594676 0.0037086
1.10076 0.1 0.594676 0.00372569
1.14316 0.1 -0.508816 0.00372847
1.14316 0.1 0.508816 0.0037442
1.24274 0.1 -0.157157 0.00379887
1.24274 0.1 0.157157 0.00380364
1.2267 0.1 -0.254659 0.00378453
1.2267 0.1 0.254659 0.00379274
0.467897 0.1 1.1625 0.00371831
0.467897 0.1 -1.1625 0.00371651
1.08012 0.1 0.638947 0.00371751
1.08012 0.1 -0.638947 0.0037
1.25511 0.1 -5.78241e-19 0.00381072
0.835106 0.1 -0.9375 0.00367716
0.835106 0.1 0.9375 0.00368379
0.871687 0.1 -0.903998 0.00367651
1.25511 0.1 0.0622446 0.00381117
1.25511 0.1 -0.0622446 0.00380901
0.219992 0.1 1.2375 0.00374355
0.219992 0.1 -1.2375 0.0037423
0 0.1 -1.25701 0.00375
0 0.1 1.25701 0.00375
0.0363518 0.1 -1.25701 0.00375065
0.0363518 0.1 1.25701 0.00375098
0.797314 0.1 0.975 0.00368506
0.797314 0.1 -0.975 0.00367954
1.19808 0.1 -0.390576 0.00375849
1.19808 0.1 0.390576 0.00377168
1.0579 0.1 -0.684997 0.00369184
1.0579 0.1 0.684997 0.00370941
1.20938 0.1 -0.354921 0.00376634
1.20938 0.1 0.354921 0.00377813
1.25511 0.1 0.124489 0.00381029
1.25511 0.1 -0.124489 0.00380598
1.24274 0.1 -0.220019 0.00379344
1.24274 0.1 0.220019 0.00380071
0.756813 0.1 1.0125 0.0036869
0.756814 0.1 -1.0125 0.00368251
1.2267 0.1 -0.318324 0.00377696
1.2267 0.1 0.318324 0.00378802
0.411108 0.1 1.2 0.0037247
0.411108 0.1 -1.2 0.003723
1.25511 0.1 -0.186734 0.00380131
1.25511 0.1 0.186734 0.00380806
0.714971 0.1 1.05 0.00369051
0.714971 0.1 -1.05 0.00368677
1.04168 0.1 -0.729162 0.0036853
1.04168 0.1 0.729162 0.00370287
1.24274 0.1 0.282882 0.00379656
1.24274 0.1 -0.282882 0.00378655
0 0.1 1.275 0.00375
0 0.1 -1.275 0.00375
1.1744 0.1 0.497102 0.00375366
1.1744 0.1 -0.497102 0.00373718
1.15704 0.1 -0.537184 0.00372713
1.15704 0.1 0.537184 0.00374499
1.2756 0.1 -0.03061 0.00381904
1.2756 0.1 0.03061 0.00382026
0.67013 0.1 1.0875 0.0036946
0.67013 0.1 -1.0875 0.0036915
1.2756 0.1 -0.09183 0.00381661
1.2756 0.1 0.09183 0.00382017
1.25511 0.1 -0.248978 0.00379499
1.25511 0.1 0.248978 0.00380455
1.20938 0.1 0.419453 0.00377221
1.20938 0.1 -0.419453 0.00375711
1.11928 0.1 -0.621322 0.00370755
1.11928 0.1 0.621322 0.00372722
1.14316 0.1 -0.576659 0.00371836
1.14316 0.1 0.576659 0.0037377
1.19808 0.1 -0.455673 0.00374939
1.19808 0.1 0.455673 0.00376552
1.02149 0.1 0.776219 0.00369645
1.02149 0.1 -0.776219 0.00367932
0.150379 0.1 1.275 0.00374751
0.150379 0.1 -1.275 0.00374656
1.2756 0.1 -0.15305 0.00381271
1.2756 0.1 0.15305 0.00381869
1.2267 0.1 -0.381989 0.00376813
1.2267 0.1 0.381989 0.0037824
1.10076 0.1 -0.664638 0.00369868
1.10076 0.1 0.664638 0.00371891