# nutMean  POINT_DATA 63140
# x  y  z  nutMean
0 0.1 0 0.00531019
0 0.1 -0.0179898 0.00531533
0 0.1 0.0179898 0.00530464
0.0363518 0.1 0.0179898 0.0123668
0.0363518 0.1 -0.0179898 0.0123188
0 0.1 -0.0570102 0.00533997
0 0.1 0.0570102 0.00529948
0.0363518 0.1 0.0570102 0.0123617
0.0363518 0.1 -0.0570102 0.0123435
0 0.1 -0.075 0.00535784
0 0.1 0.075 0.00530021
0.075776 0.1 -0.0375 0.0197022
0.075776 0.1 0.0375 0.0198105
0 0.1 -0.0929898 0.00537579
0 0.1 0.0929898 0.0053005
0.0363518 0.1 -0.0929898 0.0117822
0.0363518 0.1 0.0929898 0.0117257
0 0.1 -0.13201 0.00541861
0 0.1 0.13201 0.00531127
0.075776 0.1 -0.1125 0.0185392
0.075776 0.1 0.1125 0.0185259
0.0363518 0.1 -0.13201 0.011825
0.0363518 0.1 0.13201 0.0117365
0 0.1 -0.15 0.00544102
0 0.1 0.15 0.00532079
0.150379 0.1 -2.22623e-17 0.0184088
0 0.1 -0.16799 0.00546461
0 0.1 0.16799 0.00533052
0.150379 0.1 -0.075 0.0175999
0.150379 0.1 0.075 0.0180593
0.0363518 0.1 -0.16799 0.0110666
0.0363518 0.1 0.16799 0.0108149
0.075776 0.1 -0.1875 0.0169986
0.075776 0.1 0.1875 0.0166332
0 0.1 -0.20701 0.00550263
0 0.1 0.20701 0.00535207
0.0363518 0.1 -0.20701 0.0111046
0.0363518 0.1 0.20701 0.0108364
0.150379 0.1 -0.15 0.0159499
0.150379 0.1 0.15 0.0164799
0.219993 0.1 -0.0375 0.0171159
0.219993 0.1 0.0375 0.0171078
0 0.1 -0.225 0.00551623
0 0.1 0.225 0.00536254
0 0.1 -0.24299 0.00553164
0 0.1 0.24299 0.00537413
0.0363518 0.1 0.24299 0.0099691
0.0363518 0.1 -0.24299 0.0103759
0.219993 0.1 -0.1125 0.0151439
0.219993 0.1 0.1125 0.016871
0.150379 0.1 -0.225 0.014703
0.150379 0.1 0.225 0.0145091
0.075776 0.1 -0.2625 0.0155386
0.075776 0.1 0.2625 0.0148682
0 0.1 -0.28201 0.00554826
0 0.1 0.28201 0.00539028
0.0363518 0.1 -0.28201 0.0103925
0.0363518 0.1 0.28201 0.00998525
0.287374 0.1 -2.89121e-19 0.01371
0.219992 0.1 0.1875 0.0139596
0.219992 0.1 -0.1875 0.013241
0.287374 0.1 -0.075 0.0131497
0.287374 0.1 0.075 0.0136435
0 0.1 -0.3 0.00555072
0 0.1 0.3 0.00539507
0 0.1 0.31799 0.00540102
0 0.1 -0.31799 0.0055542
0.0363518 0.1 -0.31799 0.0100521
0.0363518 0.1 0.31799 0.00938739
0.287374 0.1 0.15 0.0127765
0.287374 0.1 -0.15 0.0120649
0.150379 0.1 -0.3 0.0140787
0.150379 0.1 0.3 0.0133731
0.219993 0.1 0.2625 0.0126608
0.219993 0.1 -0.2625 0.0131524
0.075776 0.1 -0.3375 0.0148596
0.075776 0.1 0.3375 0.0136597
0.350249 0.1 -0.0375 0.0104101
0.350249 0.1 0.0375 0.0104669
0 0.1 -0.35701 0.00555348
0 0.1 0.35701 0.00540166
0.0363518 0.1 -0.35701 0.0100514
0.0363518 0.1 0.35701 0.00938803
0.287374 0.1 -0.225 0.0115117
0.287374 0.1 0.225 0.011607
0.350249 0.1 -0.1125 0.01015
0.350249 0.1 0.1125 0.0103827
0 0.1 -0.375 0.00555074
0 0.1 0.375 0.00539764
0 0.1 -0.39299 0.00554824
0 0.1 0.39299 0.0053942
0.0363518 0.1 -0.39299 0.00978297
0.0363518 0.1 0.39299 0.00911584
0.350249 0.1 -0.1875 0.00988453
0.350249 0.1 0.1875 0.0100913
0.219992 0.1 -0.3375 0.0128528
0.219992 0.1 0.3375 0.0123675
0.150379 0.1 0.375 0.0127834
0.150379 0.1 -0.375 0.0136707
0.411108 0.1 4.33681e-19 0.0086268
0.287374 0.1 -0.3 0.0114537
0.287374 0.1 0.3 0.0111486
0.411108 0.1 -0.075 0.00854206
0.411108 0.1 0.075 0.00862809
0.075776 0.1 -0.4125 0.0143111
0.075776 0.1 0.4125 0.0131051
0 0.1 0.43201 0.00538248
0 0.1 -0.43201 0.00553624
0.0363518 0.1 0.43201 0.00910412
0.0363518 0.1 -0.43201 0.00977097
0.411108 0.1 -0.15 0.00840886
0.411108 0.1 0.15 0.00854178
0.350249 0.1 -0.2625 0.00991196
0.350249 0.1 0.2625 0.0098492
0 0.1 -0.45 0.00552839
0 0.1 0.45 0.00537582
0.219992 0.1 0.4125 0.0120421
0.219992 0.1 -0.4125 0.0127265
0 0.1 -0.46799 0.00552055
0 0.1 0.46799 0.00536931
0.411108 0.1 -0.225 0.00836916
0.411108 0.1 0.225 0.00841483
0.467897 0.1 -0.0375 0.00687906
0.467897 0.1 0.0375 0.00689451
0.0363518 0.1 0.46799 0.00886235
0.0363518 0.1 -0.46799 0.0094967
0.287374 0.1 -0.375 0.0114223
0.287374 0.1 0.375 0.0110201
0.150379 0.1 0.45 0.0128763
0.150379 0.1 -0.45 0.0137514
0.467897 0.1 0.1125 0.0069105
0.467897 0.1 -0.1125 0.00686612
0.350249 0.1 -0.3375 0.0100319
0.350249 0.1 0.3375 0.0098289
0.075776 0.1 -0.4875 0.0137551
0.075776 0.1 0.4875 0.012614
0.467897 0.1 0.1875 0.00691606
0.467897 0.1 -0.1875 0.00686111
0 0.1 -0.50701 0.00549746
0 0.1 0.50701 0.00534879
0.0363518 0.1 -0.50701 0.00947362
0.0363518 0.1 0.50701 0.00884183
0.411108 0.1 0.3 0.00836441
0.411108 0.1 -0.3 0.00845254
0.522865 0.1 1.41031e-17 0.00593677
0 0.1 -0.525 0.0054844
0 0.1 0.525 0.00533671
0.522865 0.1 -0.075 0.0059369
0.522865 0.1 0.075 0.0059489
0.287374 0.1 0.45 0.0114394
0.287374 0.1 -0.45 0.0118549
0.219992 0.1 0.4875 0.013739
0.219992 0.1 -0.4875 0.0142297
0.467897 0.1 -0.2625 0.00693994
0.467897 0.1 0.2625 0.0069245
0.350249 0.1 -0.4125 0.0101941
0.350249 0.1 0.4125 0.00993891
0 0.1 -0.54299 0.00547075
0 0.1 0.54299 0.0053243
0.522865 0.1 0.15 0.00596898
0.522865 0.1 -0.15 0.00595176
0.0363518 0.1 0.54299 0.00863499
0.0363518 0.1 -0.54299 0.00922788
0.150379 0.1 -0.525 0.013953
0.150379 0.1 0.525 0.0132043
0.411108 0.1 -0.375 0.0085901
0.411108 0.1 0.375 0.00842892
0.075776 0.1 -0.5625 0.0132535
0.075776 0.1 0.5625 0.0121917
0.522865 0.1 -0.225 0.00600354
0.522865 0.1 0.225 0.00599547
0.574156 0.1 0.0375 0.00502144
0.574157 0.1 -0.0375 0.00502415
0.467897 0.1 -0.3375 0.00704805
0.467897 0.1 0.3375 0.00697107
0 0.1 -0.58201 0.00544359
0 0.1 0.58201 0.00529905
0.0363518 0.1 -0.58201 0.00920073
0.0363518 0.1 0.58201 0.00860973
0.574157 0.1 -0.1125 0.00504919
0.574157 0.1 0.1125 0.00504151
0.287374 0.1 -0.525 0.0124014
0.287374 0.1 0.525 0.0120918
0 0.1 -0.6 0.00543188
0 0.1 0.6 0.00528792
0.350249 0.1 0.4875 0.0101668
0.350249 0.1 -0.4875 0.0104173
0.522865 0.1 -0.3 0.00609696
0.522865 0.1 0.3 0.0060419
0.219992 0.1 -0.5625 0.0145339
0.219992 0.1 0.5625 0.0142041
0.574156 0.1 -0.1875 0.00509962
0.574156 0.1 0.1875 0.00507943
0.411108 0.1 0.45 0.0085917
0.411108 0.1 -0.45 0.00877751
0 0.1 -0.61799 0.00541916
0 0.1 0.61799 0.00527609
0.150379 0.1 -0.6 0.0137508
0.150379 0.1 0.6 0.01306
0.0363518 0.1 -0.61799 0.00897908
0.0363518 0.1 0.61799 0.00842835
0.467897 0.1 -0.4125 0.00720997
0.467897 0.1 0.4125 0.0070923
0.623803 0.1 2.34188e-17 0.004474
0.623803 0.1 0.075 0.00448029
0.623803 0.1 -0.075 0.00449107
0.574156 0.1 0.2625 0.00513182
0.574156 0.1 -0.2625 0.0051814
0.623803 0.1 0.15 0.00450829
0.623803 0.1 -0.15 0.00453169
0.075776 0.1 0.6375 0.0118186
0.075776 0.1 -0.6375 0.012798
0.522865 0.1 -0.375 0.0062266
0.522865 0.1 0.375 0.00612882
0 0.1 0.65701 0.00525403
0 0.1 -0.65701 0.0053951
0.0363518 0.1 0.65701 0.00840629
0.0363518 0.1 -0.65701 0.00895502
0.350249 0.1 0.5625 0.0104281
0.350249 0.1 -0.5625 0.0106097
0.623803 0.1 0.225 0.00455384
0.623803 0.1 -0.225 0.00459499
0.287374 0.1 -0.6 0.0125149
0.287374 0.1 0.6 0.0122495
0.574157 0.1 -0.3375 0.00528656
0.574157 0.1 0.3375 0.0052087
0.411108 0.1 0.525 0.00882825
0.411108 0.1 -0.525 0.00899081
0.67013 0.1 0.0375 0.00394014
0.67013 0.1 -0.0375 0.00394878
0.219992 0.1 -0.6375 0.0143508
0.219993 0.1 0.6375 0.0139316
0 0.1 -0.675 0.00538502
0 0.1 0.675 0.00524506
0.467897 0.1 -0.4875 0.00741537
0.467897 0.1 0.4875 0.00728606
0.67013 0.1 -0.1125 0.00398039
0.67013 0.1 0.1125 0.00395674
0.522865 0.1 0.45 0.00627192
0.522865 0.1 -0.45 0.00639954
0.150379 0.1 0.675 0.0127294
0.150379 0.1 -0.675 0.01344
0.623803 0.1 0.3 0.0046194
0.623803 0.1 -0.3 0.00468644
0 0.1 -0.69299 0.0053739
0 0.1 0.69299 0.00523533
0.0363518 0.1 -0.69299 0.00876063
0.0363518 0.1 0.69299 0.00825193
0.67013 0.1 -0.1875 0.00403559
0.67013 0.1 0.1875 0.00399419
0.574156 0.1 0.4125 0.00531161
0.574157 0.1 -0.4125 0.00543061
0.714971 0.1 -2.8382e-17 0.00358341
0.075776 0.1 -0.7125 0.0123975
0.075776 0.1 0.7125 0.0115
0.714971 0.1 -0.075 0.00360411
0.714971 0.1 0.075 0.00358549
0.67013 0.1 0.2625 0.00404854
0.67013 0.1 -0.2625 0.00410158
0.411108 0.1 -0.6 0.00918425
0.411108 0.1 0.6 0.00907296
0.350249 0.1 0.6375 0.0105963
0.350249 0.1 -0.6375 0.0107402
0.623803 0.1 0.375 0.00470699
0.623803 0.1 -0.375 0.00480981
0.714971 0.1 -0.15 0.00364643
0.714971 0.1 0.15 0.00360999
0.467897 0.1 -0.5625 0.00765006
0.467897 0.1 0.5625 0.00755167
0 0.1 -0.73201 0.00535314
0 0.1 0.73201 0.00521772
0.0363518 0.1 0.73201 0.00823432
0.0363518 0.1 -0.73201 0.00873988
0.287374 0.1 -0.675 0.0124815
0.287374 0.1 0.675 0.0121601
0.522865 0.1 -0.525 0.00660957
0.522865 0.1 0.525 0.00647657
0.219993 0.1 -0.7125 0.0141347
0.219992 0.1 0.7125 0.0135703
0.714971 0.1 -0.225 0.00370824
0.714971 0.1 0.225 0.00365327
0 0.1 0.75 0.00521078
0 0.1 -0.75 0.00534445
0.67013 0.1 -0.3375 0.00421462
0.67013 0.1 0.3375 0.00412706
0.574156 0.1 -0.4875 0.00561221
0.574157 0.1 0.4875 0.00546741
0.756813 0.1 0.0375 0.00322807
0.756814 0.1 -0.0375 0.00323976
0.150379 0.1 0.746002 0.0124096
0.150379 0.1 -0.75 0.0131569
0.756813 0.1 -0.1125 0.00327057
0.756813 0.1 0.1125 0.00324022
0 0.1 0.76799 0.00520304
0 0.1 -0.76799 0.00533473
0.0363518 0.1 0.76799 0.0081086
0.0363518 0.1 -0.76799 0.00857823
0.623803 0.1 -0.45 0.0049642
0.623803 0.1 0.45 0.00482789
0.714971 0.1 -0.3 0.00379496
0.714971 0.1 0.3 0.00371585
0.756814 0.1 -0.1875 0.00332229
0.756814 0.1 0.1875 0.00327221
0.67013 0.1 -0.4125 0.00434594
0.67013 0.1 0.4125 0.0042193
0.411108 0.1 0.675 0.00926846
0.411108 0.1 -0.675 0.00935156
0.467897 0.1 0.6375 0.00783556
0.467897 0.1 -0.6375 0.00786436
0.075776 0.1 0.7875 0.0112402
0.075776 0.1 -0.7875 0.0120644
0.350249 0.1 -0.7125 0.0108581
0.350249 0.1 0.7125 0.0106841
0.522865 0.1 -0.6 0.00684069
0.522865 0.1 0.6 0.00672643
0.797314 0.1 -3.59473e-17 0.00297864
0.287374 0.1 0.746002 0.0120622
0.797314 0.1 -0.075 0.00299907
0.797314 0.1 0.075 0.00297794
0.756814 0.1 -0.2625 0.00339653
0.756814 0.1 0.2625 0.00332169
0.287374 0.1 -0.75 0.0124455
0.574156 0.1 -0.5625 0.00583198
0.574156 0.1 0.5625 0.00567305
0 0.1 0.80701 0.00518972
0 0.1 -0.80701 0.00531718
0.714971 0.1 -0.375 0.00390909
0.714971 0.1 0.375 0.00379895
0.0363518 0.1 0.80701 0.00809529
0.0363518 0.1 -0.80701 0.00856068
0.797314 0.1 -0.15 0.00303833
0.797314 0.1 0.15 0.00299773
0.623803 0.1 -0.525 0.00515311
0.623803 0.1 0.525 0.00499359
0.219992 0.1 0.7875 0.0132507
0.219992 0.1 -0.7875 0.0139429
0.149792 0.1 0.80701 0.0122118
0 0.1 0.825 0.00518491
0 0.1 -0.825 0.00531015
0.797314 0.1 -0.225 0.00309862
0.797314 0.1 0.225 0.00303551
0.756813 0.1 -0.3375 0.00349032
0.756813 0.1 0.3375 0.00338987
0.67013 0.1 0.4875 0.00435257
0.67013 0.1 -0.4875 0.00450717
0.835106 0.1 -0.0375 0.0027366
0.835106 0.1 0.0375 0.00272477
0.150379 0.1 -0.825 0.0129167
0.835106 0.1 -0.1125 0.00276406
0.835106 0.1 0.1125 0.00273343
0 0.1 -0.84299 0.00530211
0 0.1 0.84299 0.00517926
0.0363518 0.1 -0.84299 0.00843019
0.0363518 0.1 0.84299 0.00799806
0.714971 0.1 -0.45 0.00404851
0.714971 0.1 0.45 0.00390549
0.411108 0.1 0.746002 0.00943344
0.797314 0.1 -0.3 0.00317706
0.797314 0.1 0.3 0.00309026
0.467897 0.1 -0.7125 0.00806528
0.467897 0.1 0.7125 0.00807425
0.522865 0.1 0.675 0.00698701
0.522865 0.1 -0.675 0.00708201
0.411108 0.1 -0.75 0.00953143
0.835106 0.1 -0.1875 0.00281121
0.835107 0.1 0.1875 0.00275991
0.286844 0.1 0.80701 0.0119573
0.574156 0.1 0.6375 0.00591986
0.574157 0.1 -0.6375 0.00608688
0.350249 0.1 -0.7875 0.0109876
0.350249 0.1 0.7875 0.0107483
0.756813 0.1 -0.4125 0.00360923
0.756814 0.1 0.4125 0.00348345
0.623803 0.1 -0.6 0.00537686
0.623803 0.1 0.6 0.00519986
0.075776 0.1 0.8625 0.0110392
0.075776 0.1 -0.8625 0.0117954
0.871687 0.1 -3.2767e-18 0.00254111
0.287374 0.1 -0.825 0.0124264
0.871687 0.1 -0.075 0.00255995
0.871687 0.1 0.075 0.00253868
0.67013 0.1 -0.5625 0.004701
0.67013 0.1 0.5625 0.0045218
0.835106 0.1 0.2625 0.00280326
0.835106 0.1 -0.2625 0.00287941
0.797314 0.1 -0.375 0.00327662
0.797314 0.1 0.375 0.00316533
0 0.1 -0.88201 0.00528821
0 0.1 0.88201 0.00517037
0.0363518 0.1 0.88201 0.00798917
0.0363518 0.1 -0.88201 0.00841629
0.871687 0.1 0.15 0.0025543
0.871687 0.1 -0.15 0.00259542
0.714971 0.1 0.525 0.0040437
0.714971 0.1 -0.525 0.00421746
0.219993 0.1 0.8625 0.0130138
0.219992 0.1 -0.8625 0.013769
0 0.1 0.9 0.00516772
0 0.1 -0.9 0.00528304
0.756813 0.1 0.4875 0.00359094
0.756814 0.1 -0.4875 0.00375588
0.871687 0.1 0.225 0.0025864
0.871687 0.1 -0.225 0.00265023
0.835106 0.1 -0.3375 0.00295728
0.835106 0.1 0.3375 0.00286143
0.41063 0.1 0.80701 0.00952575
0.90582 0.1 -0.0375 0.00236242
0.905821 0.1 0.0375 0.00235025
0.522865 0.1 0.746002 0.00724346
0.150379 0.1 0.9 0.011969
0.90582 0.1 0.1125 0.00235593
0.905821 0.1 -0.1125 0.00238635
0.522865 0.1 -0.75 0.00735128
0.574156 0.1 0.7125 0.00619302
0.574156 0.1 -0.7125 0.00637776
0.797314 0.1 -0.45 0.00340245
0.797314 0.1 0.45 0.00325828
0.467897 0.1 -0.7875 0.00832988
0.467897 0.1 0.7875 0.00827049
0.150379 0.1 -0.903998 0.012755
0 0.1 0.91799 0.0051642
0 0.1 -0.91799 0.00527685
0.0363518 0.1 0.91799 0.00791936
0.0363518 0.1 -0.91799 0.00831378
0.623803 0.1 0.675 0.00543954
0.623803 0.1 -0.675 0.00563486
0.411108 0.1 -0.825 0.00974981
0.871687 0.1 0.3 0.00263366
0.871687 0.1 -0.3 0.00271817
0.67013 0.1 -0.6375 0.0049284
0.67013 0.1 0.6375 0.00472664
0.90582 0.1 -0.1875 0.00242978
0.90582 0.1 0.1875 0.00237767
0.350249 0.1 0.8625 0.0108295
0.350249 0.1 -0.8625 0.0111323
0.835106 0.1 -0.4125 0.00306537
0.835106 0.1 0.4125 0.00294212
0.714971 0.1 -0.6 0.00441744
0.714971 0.1 0.6 0.00421681
0.93886 0.1 -1.15648e-17 0.00225214
0.075776 0.1 0.9375 0.0108948
0.075776 0.1 -0.9375 0.0115839
0.93886 0.1 0.075 0.00224931
0.93886 0.1 -0.075 0.00226883
0.756813 0.1 0.5625 0.00373464
0.756814 0.1 -0.5625 0.00393052
0.905821 0.1 -0.2625 0.00249039
0.905821 0.1 0.2625 0.00241463
0.287374 0.1 0.9 0.0118784
0.287374 0.1 -0.903998 0.012393
0.871687 0.1 0.375 0.0026979
0.871687 0.1 -0.375 0.00280718
0.93886 0.1 -0.15 0.00229982
0.93886 0.1 0.15 0.00226251
0.797314 0.1 0.525 0.00337462
0.797314 0.1 -0.525 0.00355403
0 0.1 0.95701 0.00515979
0 0.1 -0.95701 0.00526691
0.0363518 0.1 0.95701 0.00791495
0.0363518 0.1 -0.95701 0.00830384
0.522433 0.1 0.80701 0.00743231
0.219992 0.1 0.9375 0.0128332
0.219992 0.1 -0.9375 0.0136147
0.93886 0.1 0.225 0.00229036
0.93886 0.1 -0.225 0.00234775
0.90582 0.1 0.3375 0.00246537
0.905821 0.1 -0.3375 0.00255576
0.835106 0.1 -0.4875 0.00319544
0.835107 0.1 0.4875 0.00303259
0.969689 0.1 -0.0375 0.00215533
0.969689 0.1 0.0375 0.00214491
0.61613 0.1 0.75 0.00570439
0.574156 0.1 -0.7875 0.00669532
0.574156 0.1 0.7875 0.00648491
0 0.1 0.975 0.00515931
0 0.1 -0.975 0.0052637
0.623803 0.1 -0.75 0.00592507
0.969689 0.1 -0.1125 0.0021756
0.969689 0.1 0.1125 0.00215048
0.522865 0.1 -0.825 0.00765305
0.67013 0.1 0.7125 0.00496196
0.67013 0.1 -0.7125 0.00518817
0.871687 0.1 -0.45 0.00292355
0.871687 0.1 0.45 0.0027792
0.467897 0.1 0.8625 0.00848187
0.467897 0.1 -0.8625 0.00865827
0.714971 0.1 -0.675 0.00465055
0.714971 0.1 0.675 0.00442152
0.93886 0.1 -0.3 0.00240873
0.93886 0.1 0.3 0.00233192
0.150379 0.1 0.975 0.0118313
0.150379 0.1 -0.975 0.0125601
0.969689 0.1 -0.1875 0.00221205
0.969689 0.1 0.1875 0.00217027
0.411108 0.1 0.9 0.00972079
0.756813 0.1 0.6375 0.00391024
0.756814 0.1 -0.6375 0.00413523
0.990306 0.1 -2.19732e-17 0.00206766
0 0.1 0.99299 0.00515791
0 0.1 -0.99299 0.00525945
0.411108 0.1 -0.903998 0.00992788
0.990306 0.1 -0.075 0.00208249
0.990306 0.1 0.075 0.00206538
0.0363518 0.1 0.99299 0.00786956
0.0363518 0.1 -0.99299 0.00822751
0.90582 0.1 -0.4125 0.00266068
0.905821 0.1 0.4125 0.00253297
0.797314 0.1 -0.6 0.00373359
0.797314 0.1 0.6 0.00352283
0.350249 0.1 0.9375 0.0109288
0.350249 0.1 -0.9375 0.0112758
0.990306 0.1 0.15 0.00207742
0.990306 0.1 -0.15 0.00210987
0.969689 0.1 -0.2625 0.00226349
0.969689 0.1 0.2625 0.00220326
0.835106 0.1 -0.5625 0.00335091
0.835106 0.1 0.5625 0.00315686
0.93886 0.1 -0.375 0.00249596
0.93886 0.1 0.375 0.00238727
0.075776 0.1 1.0125 0.0108007
0.075776 0.1 -1.0125 0.0114263
0.990306 0.1 -0.225 0.0021523
0.990306 0.1 0.225 0.00210288
0.287374 0.1 0.975 0.0118594
0.287374 0.1 -0.975 0.0124298
0.871687 0.1 -0.525 0.0030624
0.871687 0.1 0.525 0.00288053
1.02149 0.1 -0.0369628 0.00191569
1.02149 0.1 0.0369628 0.00190817
0.969689 0.1 -0.3375 0.00233008
0.969689 0.1 0.3375 0.00224892
1.02149 0.1 -0.110888 0.00193512
1.02149 0.1 0.110888 0.00191181
0.90582 0.1 0.4875 0.00261964
0.90582 0.1 -0.4875 0.00278318
0.623803 0.1 0.819003 0.00587019
0 0.1 1.03201 0.00515786
0 0.1 -1.03201 0.00525329
0.0363518 0.1 1.03201 0.00786951
0.0363518 0.1 -1.03201 0.00822134
0.67013 0.1 -0.7875 0.00548195
0.67013 0.1 0.7875 0.00522218
0.623803 0.1 -0.825 0.00623555
0.990306 0.1 -0.3 0.00221082
0.990306 0.1 0.3 0.0021411
0.219992 0.1 -1.0125 0.013514
0.219993 0.1 1.0125 0.0127028
0.574156 0.1 0.8625 0.00679656
0.574157 0.1 -0.8625 0.00699255
0.714971 0.1 -0.75 0.00491834
0.714971 0.1 0.75 0.00465402
1.02149 0.1 0.184814 0.00192863
1.02149 0.1 -0.184814 0.00196539
0.756814 0.1 -0.7125 0.00437639
0.756814 0.1 0.7125 0.00411431
0.522865 0.1 0.9 0.00776845
0.93886 0.1 -0.45 0.00260894
0.93886 0.1 0.45 0.00245903
1.04168 0.1 0 0.00183734
1.04168 0.1 -0.0729162 0.00184971
1.04168 0.1 0.0729162 0.00183532
0.522865 0.1 -0.903998 0.00791195
0.797314 0.1 -0.675 0.00394442
0.797314 0.1 0.675 0.0036988
0.467897 0.1 0.9375 0.00873969
0.467897 0.1 -0.9375 0.00895563
0 0.1 1.05 0.00515945
0 0.1 -1.05 0.0052518
0.835106 0.1 -0.6375 0.00353496
0.835106 0.1 0.6375 0.00330683
1.04168 0.1 -0.145832 0.00187176
1.04168 0.1 0.145832 0.00184375
1.02149 0.1 -0.25874 0.00201167
1.02149 0.1 0.25874 0.00195719
0.969689 0.1 -0.4125 0.00244203
0.969689 0.1 0.4125 0.00230644
0.411108 0.1 0.975 0.00990181
0.411108 0.1 -0.975 0.0101972
0.871687 0.1 -0.6 0.00322812
0.871687 0.1 0.6 0.00300778
1.0579 0.1 -0.0360525 0.00178651
1.0579 0.1 0.0360525 0.00178029
0.990306 0.1 -0.375 0.00229635
0.990306 0.1 0.375 0.00219158
0.150379 0.1 1.05 0.0117423
0.150379 0.1 -1.05 0.0124548
1.0579 0.1 0.108157 0.00178227
1.0579 0.1 -0.108157 0.00180337
1.04168 0.1 -0.218749 0.00190546
1.04168 0.1 0.218749 0.00186307
0.90582 0.1 -0.5625 0.00293078
0.90582 0.1 0.5625 0.00272388
0 0.1 -1.06799 0.00524923
0 0.1 1.06799 0.00516005
0.0363518 0.1 -1.06799 0.00816711
0.0363518 0.1 1.06799 0.00784623
0.350249 0.1 1.0125 0.0110523
0.350249 0.1 -1.0125 0.0114201
1.0579 0.1 -0.180262 0.00182662
1.0579 0.1 0.180262 0.00179394
1.02149 0.1 -0.332665 0.00207689
1.02149 0.1 0.332665 0.00199795
0.93886 0.1 -0.525 0.00273748
0.93886 0.1 0.525 0.00254763
1.08012 0.1 5.49329e-18 0.00172171
1.04168 0.1 -0.291665 0.00195518
1.04168 0.1 0.291665 0.00189295
1.08012 0.1 0.0709941 0.00171997
1.08012 0.1 -0.0709941 0.00173219
0.969689 0.1 -0.4875 0.00255458
0.96969 0.1 0.4875 0.00238194
1.0579 0.1 0.252367 0.00181473
1.0579 0.1 -0.252367 0.00186387
0.990306 0.1 -0.45 0.00240311
0.990306 0.1 0.45 0.00225702
0.287374 0.1 -1.05 0.012462
0.287374 0.1 1.05 0.0118787
0.714971 0.1 0.821002 0.00488384
1.08012 0.1 -0.141988 0.00175026
1.08012 0.1 0.141988 0.00172657
0.075776 0.1 1.0875 0.0107523
0.075776 0.1 -1.0875 0.0113142
0.714971 0.1 -0.825 0.00522211
0.756813 0.1 -0.7875 0.00465323
0.756814 0.1 0.7875 0.00434558
0.67013 0.1 -0.8625 0.00581494
0.67013 0.1 0.8625 0.00550616
0.797314 0.1 -0.75 0.00418944
0.797314 0.1 0.75 0.00390166
0.623803 0.1 0.9 0.00629774
0.835106 0.1 -0.7125 0.00374904
0.835106 0.1 0.7125 0.00348189
0.623803 0.1 -0.903998 0.00651865
0.574156 0.1 0.9375 0.00711967
0.574156 0.1 -0.9375 0.00731385
1.02149 0.1 -0.406591 0.00216273
1.02149 0.1 0.406591 0.00205043
1.08012 0.1 -0.212982 0.00177788
1.08012 0.1 0.212982 0.00174187
1.10076 0.1 -0.0349809 0.00166794
1.10076 0.1 0.0349809 0.00166296
0.871687 0.1 -0.675 0.00342404
0.871687 0.1 0.675 0.00316213
1.04168 0.1 -0.364581 0.00202175
1.04168 0.1 0.364581 0.00193341
1.10076 0.1 -0.104943 0.0016819
1.10076 0.1 0.104943 0.00166542
0.522865 0.1 0.975 0.00803977
0.522865 0.1 -0.975 0.00826778
1.0579 0.1 -0.324472 0.00191642
1.0579 0.1 0.324472 0.00184511
0 0.1 -1.10701 0.00524668
0 0.1 1.10701 0.00516398
0.0363518 0.1 1.10701 0.00785016
0.0363518 0.1 -1.10701 0.00816456
0.90582 0.1 0.6375 0.00285492
0.905821 0.1 -0.6375 0.00310674
0.219992 0.1 1.0875 0.0126216
0.219992 0.1 -1.0875 0.0134605
0.93886 0.1 0.6 0.00266525
0.93886 0.1 -0.6 0.00288831
1.10076 0.1 -0.174905 0.0017011
1.10076 0.1 0.174905 0.0016767
0.467897 0.1 1.0125 0.00898181
0.467897 0.1 -1.0125 0.00924663
1.08012 0.1 -0.283976 0.00181926
1.08012 0.1 0.283976 0.00176577
1.11928 0.1 3.93204e-18 0.00162353
0.990306 0.1 -0.525 0.00251939
0.990306 0.1 0.525 0.0023386
0.96969 0.1 -0.5625 0.00268641
0.969689 0.1 0.5625 0.00247026
1.11928 0.1 -0.0690357 0.00163217
1.11928 0.1 0.0690357 0.00162228
0 0.1 1.125 0.00516737
0 0.1 -1.125 0.00524702
0.411108 0.1 -1.05 0.0104154
0.411108 0.1 1.05 0.0100944
1.10076 0.1 0.244866 0.00169565
1.10076 0.1 -0.244866 0.00173385
1.11928 0.1 -0.138072 0.00164708
1.11928 0.1 0.138072 0.00162856
1.02149 0.1 0.480517 0.0021196
1.02149 0.1 -0.480517 0.00226379
1.0579 0.1 -0.396577 0.00198288
1.0579 0.1 0.396577 0.00188498
1.04168 0.1 -0.437497 0.00210611
1.04168 0.1 0.437497 0.00198642
0.150379 0.1 1.125 0.0116979
0.150379 0.1 -1.125 0.0123899
0.714971 0.1 0.88201 0.00490763
1.08012 0.1 0.354971 0.00179843
1.08012 0.1 -0.354971 0.00187344
1.11928 0.1 -0.207107 0.00167082
1.11928 0.1 0.207107 0.00164232
0.350249 0.1 -1.0875 0.011553
0.350249 0.1 1.0875 0.0112079
0 0.1 1.14299 0.00516968
0 0.1 -1.14299 0.00524623
0.0363518 0.1 1.14299 0.00784265
0.0363518 0.1 -1.14299 0.00812926
1.14316 0.1 -0.0339211 0.00156636
1.14316 0.1 0.0339211 0.00156192
0.797314 0.1 0.821002 0.00412635
1.10076 0.1 -0.314829 0.001779
1.10076 0.1 0.314829 0.00172322
0.797314 0.1 -0.825 0.00446794
0.756814 0.1 -0.8625 0.00496529
0.756814 0.1 0.8625 0.00460185
1.14316 0.1 -0.101763 0.00157694
1.14316 0.1 0.101763 0.00156404
0.835106 0.1 -0.7875 0.00399771
0.835106 0.1 0.7875 0.0036838
0.871687 0.1 -0.75 0.00364333
0.871687 0.1 0.75 0.00334371
0.67013 0.1 0.9375 0.00581547
0.67013 0.1 -0.9375 0.00618015
0.90582 0.1 -0.7125 0.0033165
0.905821 0.1 0.7125 0.0030167
0.714971 0.1 -0.903998 0.00551779
1.11928 0.1 0.276143 0.00166355
1.11928 0.1 -0.276143 0.00170661
1.14316 0.1 0.169605 0.00157313
1.14316 0.1 -0.169605 0.00159239
0.93886 0.1 -0.675 0.0030587
0.93886 0.1 0.675 0.00280987
1.15704 0.1 0 0.0015342
1.0579 0.1 0.468682 0.00193791
1.0579 0.1 -0.468682 0.00206791
0.623803 0.1 0.975 0.00660528
0.623803 0.1 -0.975 0.00689449
0.990306 0.1 0.6 0.00245274
0.990306 0.1 -0.6 0.00265602
1.15704 0.1 -0.0671479 0.00154127
1.15704 0.1 0.0671479 0.00153307
1.04168 0.1 -0.510414 0.0021966
1.04168 0.1 0.510414 0.00205524
0.969689 0.1 -0.6375 0.00283486
0.969689 0.1 0.6375 0.00261711
1.08012 0.1 0.425965 0.00184102
1.08012 0.1 -0.425965 0.00194355
0.287374 0.1 -1.125 0.0125199
0.287374 0.1 1.125 0.0119311
1.02149 0.1 -0.554443 0.00236872
1.02149 0.1 0.554443 0.00220689
0.574156 0.1 1.0125 0.00738475
0.574156 0.1 -1.0125 0.00762862
1.15704 0.1 -0.134296 0.00155306
1.15704 0.1 0.134296 0.0015385
0.075776 0.1 1.1625 0.0107365
0.075776 0.1 -1.1625 0.0112411
1.10076 0.1 -0.384791 0.00183462
1.10076 0.1 0.384791 0.00175878
1.14316 0.1 -0.237448 0.00161901
1.14316 0.1 0.237448 0.0015883
1.11928 0.1 -0.345179 0.00175304
1.11928 0.1 0.345179 0.00169255
0.522865 0.1 1.05 0.00828429
0.522865 0.1 -1.05 0.00857703
1.15704 0.1 -0.201444 0.00157251
1.15704 0.1 0.201444 0.00154997
1.1744 0.1 -0.0331401 0.00150143
1.1744 0.1 0.0331401 0.0014972
1.1744 0.1 -0.0994202 0.00151004
1.1744 0.1 0.0994202 0.00149934
0 0.1 1.18201 0.00517698
0 0.1 -1.18201 0.00524706
0.0363518 0.1 1.18201 0.00784994
0.0363518 0.1 -1.18201 0.00813009
0.219992 0.1 1.1625 0.0125906
0.219993 0.1 -1.1625 0.0134372
1.14316 0.1 0.30529 0.00161059
1.14316 0.1 -0.30529 0.00165549
0.467897 0.1 1.0875 0.00923463
0.467897 0.1 -1.0875 0.00955558
1.1744 0.1 -0.1657 0.00152261
1.1744 0.1 0.1657 0.00150747
1.15704 0.1 -0.268592 0.00160198
1.15704 0.1 0.268592 0.00156754
1.0579 0.1 0.540787 0.00200685
1.0579 0.1 -0.540787 0.00214685
0.796996 0.1 0.88201 0.0043228
1.08012 0.1 -0.496959 0.0020185
1.08012 0.1 0.496959 0.00189662
1.10076 0.1 0.454752 0.00180421
1.10076 0.1 -0.454752 0.00190945
1.11928 0.1 -0.414214 0.0018136
1.11928 0.1 0.414214 0.00172973
1.04168 0.1 -0.58333 0.00230529
1.04168 0.1 0.58333 0.00214425
1.1744 0.1 -0.231981 0.00154547
1.1744 0.1 0.231981 0.00152047
0.871687 0.1 0.821002 0.00354797
0.411108 0.1 1.125 0.0103045
0.411108 0.1 -1.125 0.0106172
1.19808 0.1 1.73472e-17 0.00144866
0.990306 0.1 0.675 0.00258716
0.990306 0.1 -0.675 0.00280971
1.02149 0.1 0.628368 0.00232363
1.02149 0.1 -0.628368 0.00251175
1.19808 0.1 -0.0650961 0.00145451
1.19808 0.1 0.0650961 0.00144752
0 0.1 1.2 0.00518192
0 0.1 -1.2 0.0052489
0.871687 0.1 -0.825 0.00389596
0.905821 0.1 -0.7875 0.00352173
0.90582 0.1 0.7875 0.00320466
0.835106 0.1 -0.8625 0.00427495
0.835106 0.1 0.8625 0.003913
0.93886 0.1 -0.75 0.00325004
0.93886 0.1 0.75 0.0029699
1.14316 0.1 -0.373132 0.00170159
1.14316 0.1 0.373132 0.00163976
0.969689 0.1 0.7125 0.00275604
0.969689 0.1 -0.7125 0.00298336
1.15704 0.1 -0.33574 0.00164003
1.15704 0.1 0.33574 0.0015918
0.756813 0.1 0.9375 0.00488331
0.756814 0.1 -0.9375 0.00531826
1.19808 0.1 0.130192 0.00145234
1.19808 0.1 -0.130192 0.00146388
0.797314 0.1 -0.903998 0.0047413
0.714971 0.1 0.975 0.00550299
0.714971 0.1 -0.975 0.00591278
0.150379 0.1 1.2 0.0116925
0.150379 0.1 -1.2 0.0123576
1.20938 0.1 -0.0322656 0.00143057
1.20938 0.1 0.0322656 0.00142614
1.1744 0.1 -0.298261 0.00157609
1.1744 0.1 0.298261 0.00153963
1.20938 0.1 -0.0967968 0.00143726
1.20938 0.1 0.0967968 0.00142832
1.19808 0.1 -0.195288 0.00147992
1.19808 0.1 0.195288 0.00146202
0.350249 0.1 1.1625 0.0113667
0.350249 0.1 -1.1625 0.0117243
0.67013 0.1 1.0125 0.00614807
0.67013 0.1 -1.0125 0.00650104
0 0.1 1.21799 0.0051857
0 0.1 -1.21799 0.00524953
0.0363518 0.1 -1.21799 0.0081093
0.0363518 0.1 1.21799 0.00785658
1.11928 0.1 -0.48325 0.00187958
1.11928 0.1 0.48325 0.00177787
1.10076 0.1 -0.524714 0.00197563
1.10076 0.1 0.524714 0.00186304
1.20938 0.1 0.161328 0.00143562
1.20938 0.1 -0.161328 0.00144818
1.08012 0.1 0.567953 0.00196701
1.08012 0.1 -0.567953 0.0021065
0.623803 0.1 1.05 0.0068849
0.623803 0.1 -1.05 0.00721611
1.0579 0.1 -0.612892 0.00226212
1.0579 0.1 0.612892 0.00209376
1.15704 0.1 -0.402888 0.00169001
1.15704 0.1 0.402888 0.00162272
1.14316 0.1 0.440974 0.00167671
1.14316 0.1 -0.440974 0.0017625
1.19808 0.1 -0.260384 0.00150374
1.19808 0.1 0.260384 0.00147657
1.2267 0.1 3.57064e-18 0.00139564
1.2267 0.1 -0.0636649 0.00140101
1.2267 0.1 0.0636649 0.00139435
1.1744 0.1 -0.364541 0.00161434
1.1744 0.1 0.364541 0.00156503
0.574156 0.1 1.0875 0.0076112
0.574156 0.1 -1.0875 0.0079646
1.20938 0.1 0.225859 0.00144701
1.20938 0.1 -0.225859 0.00146785
1.04168 0.1 -0.656246 0.00244821
1.04168 0.1 0.656246 0.00224855
1.2267 0.1 -0.12733 0.00140932
1.2267 0.1 0.12733 0.00139882
0.287374 0.1 1.2 0.0120119
0.287374 0.1 -1.2 0.0126141
1.02149 0.1 -0.702294 0.00268344
1.02149 0.1 0.702294 0.00243929
0.075776 0.1 -1.2375 0.0111978
0.075776 0.1 1.2375 0.0107497
0.871399 0.1 0.88201 0.00372926
0.522865 0.1 1.125 0.00853976
0.522865 0.1 -1.125 0.00883523
1.2267 0.1 -0.190994 0.00142388
1.2267 0.1 0.190994 0.00140765
1.19808 0.1 -0.32548 0.00153413
1.19808 0.1 0.32548 0.0014968
0.990306 0.1 -0.75 0.00299237
0.990306 0.1 0.75 0.00273017
1.24274 0.1 -0.0314313 0.00136751
1.24274 0.1 0.0314313 0.00136268
1.20938 0.1 -0.29039 0.00149335
1.20938 0.1 0.29039 0.00146351
1.24274 0.1 -0.0942942 0.00137291
1.24274 0.1 0.0942942 0.00136473
0.93886 0.1 0.821002 0.00314322
1.11928 0.1 -0.552285 0.00195606
1.11928 0.1 0.552285 0.00183787
1.15704 0.1 -0.470036 0.00174577
1.15704 0.1 0.470036 0.00166253
0.969689 0.1 -0.7875 0.00318594
0.96969 0.1 0.7875 0.0029082
0.93886 0.1 -0.825 0.00347999
0.90582 0.1 0.8625 0.00342639
0.905821 0.1 -0.8625 0.00380151
1.1744 0.1 -0.430821 0.0016663
1.1744 0.1 0.430821 0.00159633
1.10076 0.1 -0.594676 0.00207441
1.10076 0.1 0.594676 0.00193378
1.14316 0.1 -0.508816 0.0018209
1.14316 0.1 0.508816 0.00172518
1.24274 0.1 -0.157157 0.00138299
1.24274 0.1 0.157157 0.00137126
1.2267 0.1 -0.254659 0.001445
1.2267 0.1 0.254659 0.0014208
0.467897 0.1 1.1625 0.00951223
0.467897 0.1 -1.1625 0.00975168
1.08012 0.1 0.638947 0.00205357
1.08012 0.1 -0.638947 0.00222543
1.25511 0.1 -5.78241e-19 0.00134224
0.835106 0.1 -0.9375 0.00459086
0.835106 0.1 0.9375 0.00416895
0.871687 0.1 -0.903998 0.00415305
1.25511 0.1 0.0622446 0.00134047
1.25511 0.1 -0.0622446 0.00134751
0.219992 0.1 1.2375 0.0126027
0.219992 0.1 -1.2375 0.0134455
0 0.1 -1.25701 0.00525349
0 0.1 1.25701 0.00519602
0.0363518 0.1 -1.25701 0.00811326
0.0363518 0.1 1.25701 0.0078669
0.797314 0.1 0.975 0.00467109
0.797314 0.1 -0.975 0.00513271
1.19808 0.1 -0.390576 0.00157537
1.19808 0.1 0.390576 0.00152252
1.0579 0.1 -0.684997 0.00240611
1.0579 0.1 0.684997 0.00219266
1.20938 0.1 -0.354921 0.00152528
1.20938 0.1 0.354921 0.00148576
1.25511 0.1 0.124489 0.00134439
1.25511 0.1 -0.124489 0.00135535
1.24274 0.1 -0.220019 0.00140052
1.24274 0.1 0.220019 0.00138154
0.756813 0.1 1.0125 0.00519601
0.756814 0.1 -1.0125 0.00568162
1.2267 0.1 -0.318324 0.00147169
1.2267 0.1 0.318324 0.0014391
0.411108 0.1 1.2 0.0105081
0.411108 0.1 -1.2 0.010776
1.25511 0.1 -0.186734 0.00136915
1.25511 0.1 0.186734 0.00135241
0.714971 0.1 1.05 0.00581983
0.714971 0.1 -1.05 0.00624037
1.04168 0.1 -0.729162 0.00262045
1.04168 0.1 0.729162 0.00236418
1.24274 0.1 0.282882 0.00139614
1.24274 0.1 -0.282882 0.00142243
0 0.1 1.275 0.00520246
0 0.1 -1.275 0.00525693
1.1744 0.1 0.497102 0.00163744
1.1744 0.1 -0.497102 0.00171607
1.15704 0.1 -0.537184 0.00181029
1.15704 0.1 0.537184 0.00171229
1.2756 0.1 -0.03061 0.00130514
1.2756 0.1 0.03061 0.00129994
0.67013 0.1 1.0875 0.0064448
0.67013 0.1 -1.0875 0.00682857
1.2756 0.1 -0.09183 0.0013105
1.2756 0.1 0.09183 0.00130123
1.25511 0.1 -0.248978 0.00138841
1.25511 0.1 0.248978 0.00136439
1.20938 0.1 0.419453 0.00151281
1.20938 0.1 -0.419453 0.00157282
1.11928 0.1 -0.621322 0.00205829
1.11928 0.1 0.621322 0.00191334
1.14316 0.1 -0.576659 0.0019018
1.14316 0.1 0.576659 0.00178357
1.19808 0.1 -0.455673 0.00162269
1.19808 0.1 0.455673 0.00155488
1.02149 0.1 0.776219 0.00258762
1.02149 0.1 -0.776219 0.0028885
0.150379 0.1 1.275 0.0117229
0.150379 0.1 -1.275 0.0123555
1.2756 0.1 -0.15305 0.00132066
1.2756 0.1 0.15305 0.00130683
1.2267 0.1 -0.381989 0.00150907