# nutMean  POINT_DATA 91129
# x  y  z  nutMean
0 0 0 5.00822e-06
0 0.00368111 0 1.80013e-05
0 0.00749587 0 6.94293e-05
0 0.0114491 0 0.000258416
0 0.0155459 0 0.000677705
0 0.0197915 0 0.00172113
0 0.0241911 0 0.00261046
0 0.0287506 0 0.0029863
0 0.0334755 0 0.00343247
0 0.038372 0 0.0037473
0 0.0434463 0 0.0039689
0 0.0487048 0 0.00413898
0 0.0541543 0 0.00428261
0 0.0598016 0 0.00441453
0 0.0656539 0 0.00454603
0 0.0717187 0 0.00468357
0.075776 0.00184055 0 8.707e-06
0.075776 0.00558849 0 1.29078e-05
0.075776 0.00947248 -3.46945e-18 6.11243e-05
0.075776 0.0134975 -3.46945e-18 0.00028541
0.075776 0.0176687 3.46945e-18 0.000812359
0 0.0780037 0 0.00482622
0.075776 0.0219913 3.46945e-18 0.00164014
0.075776 0.0264709 3.46945e-18 0.00277959
0.075776 0.031113 -3.46945e-18 0.004209
0.075776 0.0359237 -3.46945e-18 0.00588087
0 0.0845169 0 0.00497197
0.075776 0.0409092 0 0.00773595
0.075776 0.0460755 -3.46945e-18 0.00971046
0 0.0912666 0 0.005121
0.075776 0.0514296 -3.46945e-18 0.0117408
0.075776 0.0569779 0 0.0137643
0 0.0982613 0 0.00527315
0.075776 0.0627278 0 0.0155828
0.075776 0.0686863 0 0.016166
0 0.10551 0 0.00542759
0.075776 0.0748612 3.46945e-18 0.016774
0.075776 0.0812603 -3.46945e-18 0.0174508
0 0.113022 0 0.00558317
0.075776 0.0878918 3.46945e-18 0.0182058
0 0.120806 0 0.00573864
0.075776 0.0947639 3.46945e-18 0.019052
0.075776 0.101886 -3.46945e-18 0.02001
0 0.128874 0 0.00589535
0.075776 0.109266 3.46945e-18 0.0211098
0 0.137234 0 0.00606581
0.075776 0.116914 3.46945e-18 0.0223991
0 0.145897 0 0.00626843
0.075776 0.12484 0 0.0239577
0.151552 0 0 0
0.151552 0.00368111 0 7.18795e-06
0.151552 0.00749587 0 2.47682e-05
0.151552 0.0114491 0 0.00010832
0.151552 0.0155459 0 0.00033827
0.151552 0.0197915 0 0.000767594
0.075776 0.133054 0 0.025884
0.151552 0.0241911 0 0.00141309
0.151552 0.0287506 0 0.00227745
0 0.154876 0 0.00650685
0.151552 0.0334755 0 0.00334637
0.151552 0.038372 0 0.00459478
0.151552 0.0434463 0 0.00599182
0.151552 0.0487048 0 0.00750394
0.075776 0.141566 0 0.0282208
0.151552 0.0541543 0 0.00909644
0.151552 0.0598016 0 0.0107017
0 0.16418 0 0.00677031
0.151552 0.0656539 0 0.0120196
0.151552 0.0717187 0 0.013099
0.075776 0.150387 0 0.0303621
0.151552 0.0780037 0 0.0142446
0.151552 0.0845169 0 0.0154588
0 0.173822 0 0.00705185
0.075776 0.159528 0 0.0316515
0.151552 0.0912666 0 0.0167338
0.151552 0.0982613 0 0.0180627
0 0.183814 0 0.00735022
0.151552 0.10551 0 0.0194423
0.075776 0.169001 3.46945e-18 0.0320264
0.151552 0.113022 0 0.0208606
0.151552 0.120806 0 0.0222509
0 0.194169 0 0.00766361
0.075776 0.178818 3.46945e-18 0.0316118
0.151552 0.128874 0 0.0236915
0.075776 0.188992 3.46945e-18 0.0302334
0.151552 0.137234 0 0.0252926
0 0.2049 0 0.0079878
0.151552 0.145897 0 0.0269594
0.075776 0.199535 0 0.0284819
0 0.21602 0 0.00831569
0.151552 0.154876 0 0.0284088
0.219992 0.00184055 0 2.40586e-06
0.219992 0.00558849 0 5.28803e-06
0.219992 0.00947248 -3.46945e-18 2.16376e-05
0.219992 0.0134975 3.46945e-18 7.51026e-05
0.219992 0.0176687 0 0.000212613
0.219992 0.0219913 0 0.000475824
0.219993 0.0264709 -3.46945e-18 0.000879359
0.219992 0.031113 -3.46945e-18 0.00142902
0.219992 0.0359238 3.46945e-18 0.00212783
0.151552 0.16418 0 0.0293831
0.075776 0.21046 0 0.0266396
0.219992 0.0409092 3.46945e-18 0.00297493
0.219992 0.0460755 0 0.00396599
0.219993 0.0514296 -3.46945e-18 0.00509395
0.219992 0.0569779 0 0.00634892
0 0.227544 0 0.0086827
0.219992 0.0627277 3.46945e-18 0.00772158
0.219992 0.0686863 0 0.00920081
0.151552 0.173822 0 0.0298501
0.219992 0.0748612 3.46945e-18 0.0107734
0.075776 0.221782 0 0.0248068
0.219992 0.0812603 3.46945e-18 0.012421
0.219992 0.0878917 -3.46945e-18 0.0141219
0.151552 0.183814 0 0.0297804
7.47806e-17 0.239487 0 0.00914582
0.219992 0.0947639 3.46945e-18 0.0158469
0.219993 0.101886 3.46945e-18 0.0175674
0.075776 0.233516 0 0.0235375
0.219993 0.109266 0 0.0192536
0.151552 0.194169 0 0.0292744
0.219993 0.116914 0 0.0208172
0 0.251863 0 0.00968738
0.219993 0.12484 0 0.0219722
0.151552 0.2049 0 0.02855
0.075776 0.245675 0 0.0229829
0.219992 0.133054 3.46945e-18 0.0231409
0.219992 0.141565 0 0.0241949
0.151552 0.21602 0 0.0277077
0 0.264688 0 0.0102715
0.219992 0.150387 3.46945e-18 0.0254177
0.075776 0.258275 3.46945e-18 0.0226472
0.219992 0.159528 -3.46945e-18 0.0266027
0.151552 0.227544 0 0.0269093
0.219992 0.169001 3.46945e-18 0.0276286
0 0.27798 0 0.0108994
0.075776 0.271334 3.46945e-18 0.0224705
0.151552 0.239487 3.70071e-18 0.0263272
0.219992 0.178818 3.46945e-18 0.0284358
0.288433 0 0 0
0.288433 0.00368111 0 2.98862e-06
0.288433 0.00749587 0 1.13987e-05
0.288433 0.0114491 0 3.86877e-05
0.288433 0.0155459 3.70071e-18 0.000109058
0.288433 0.0197915 0 0.000260074
0.288433 0.0241911 3.70071e-18 0.000517688
0.288433 0.0287506 0 0.000892892
0.219992 0.188991 0 0.0290156
0.288433 0.0334755 0 0.00139357
0.288433 0.038372 0 0.00202212
0.288433 0.0434463 0 0.00277822
7.47806e-17 0.291753 0 0.0115725
0.288433 0.0487048 0 0.00365916
0.288433 0.0541543 0 0.00465993
0.151552 0.251863 0 0.0258867
0.288433 0.0598016 3.70071e-18 0.00577367
0.075776 0.284866 0 0.0224576
0.288433 0.0656539 3.70071e-18 0.006992
0.219992 0.199534 0 0.0293795
0.288433 0.0717187 0 0.00830387
0.288433 0.0780037 0 0.0096938
0.288433 0.0845169 0 0.0111413
0.288433 0.0912666 0 0.0124627
0.219992 0.21046 -3.46945e-18 0.0295473
0.288433 0.0982613 0 0.0134563
0.151552 0.264688 3.70071e-18 0.0254637
0 0.306027 0 0.0123021
0.288433 0.10551 0 0.0143093
0.075776 0.29889 3.46945e-18 0.0225841
0.288433 0.113022 0 0.0152101
0.219993 0.221782 0 0.0295328
0.288433 0.120806 0 0.0160126
0.288433 0.128874 0 0.0166777
0.151552 0.27798 0 0.025137
0.288433 0.137234 0 0.0172709
0 0.320819 0 0.0132059
0.219992 0.233515 -3.46945e-18 0.0293407
0.075776 0.313423 -3.46945e-18 0.0228832
0.288433 0.145897 0 0.017872
0.288433 0.154876 0 0.0185202
0.151552 0.291753 0 0.0249339
0.219993 0.245675 0 0.0289782
0.288433 0.16418 0 0.0191281
0 0.336148 0 0.0146489
0.288433 0.173822 0 0.0196455
0.075776 0.328484 -3.46945e-18 0.0239347
0.219993 0.258275 -3.46945e-18 0.0284682
0.151552 0.306027 0 0.0247449
0.288433 0.183814 0 0.0200524
0.288433 0.194169 0 0.0203486
0.219992 0.271334 3.46945e-18 0.0278245
0.350249 0.00184056 -3.46945e-18 8.91193e-07
0.350249 0.00558849 0 3.49563e-06
0.350249 0.00947248 3.46945e-18 1.54774e-05
0.350249 0.0134975 0 4.39574e-05
0.350249 0.0176687 0 0.000109677
0.350249 0.0219913 0 0.000254554
0.350249 0.0264708 3.46945e-18 0.000484526
0.350249 0.031113 0 0.000817079
0 0.352034 0 0.0160605
0.350249 0.0359238 0 0.00125692
0.075776 0.344091 0 0.0271051
0.350249 0.0409091 0 0.00180661
0.350249 0.0460756 3.46945e-18 0.00246707
0.288433 0.2049 0 0.0205414
0.350249 0.0514296 0 0.00323758
0.151552 0.320819 0 0.0246864
0.350249 0.0569779 0 0.00411523
0.350249 0.0627277 3.46945e-18 0.00509429
0.350249 0.0686863 3.46945e-18 0.00616715
0.350249 0.0748612 3.46945e-18 0.00732135
0.350249 0.0812603 0 0.00853896
0.219992 0.284867 0 0.0273867
0.288433 0.21602 0 0.0206382
0.350249 0.0878917 0 0.00979626
0.350249 0.094764 0 0.0104559
0.350249 0.101886 0 0.0104323
0.350249 0.109266 0 0.0105857
0.288433 0.227544 0 0.0206422
0.075776 0.360265 3.46945e-18 0.027687
0 0.368496 0 0.0164809
0.151552 0.336148 0 0.0252776
0.350249 0.116914 3.46945e-18 0.0108918
0.219992 0.29889 0 0.0269382
0.370854 0.0241911 1.54074e-33 0.000376673
0.350249 0.12484 0 0.0111588
0.350249 0.133054 0 0.011301
0.288433 0.239487 -9.25154e-19 0.0205546
0.350249 0.141566 3.46945e-18 0.011385
0.350249 0.150387 3.46945e-18 0.0115071
0.288433 0.251863 0 0.0203808
0.219992 0.313423 0 0.0262667
0.151552 0.352034 0 0.0257428
0.075776 0.377027 0 0.0259629
0.350249 0.159528 0 0.0116512
0 0.385557 0 0.0159606
0.350249 0.169001 0 0.0118006
0.288433 0.264688 0 0.0201271
0.350249 0.178818 0 0.0119455
0.219992 0.328484 0 0.025466
0.350249 0.188992 0 0.0120828
0.151552 0.368496 0 0.0249941
0.288433 0.27798 3.70071e-18 0.0198757
0.075776 0.394397 0 0.0232819
0.350249 0.199535 0 0.012212
7.47806e-17 0.403236 0 0.0153958
0.219992 0.344091 0 0.0246418
0.350249 0.21046 -3.46945e-18 0.0123324
0.288433 0.291753 0 0.0196556
0.412065 9.08189e-19 3.08149e-33 2.4121e-22
0.412065 0.00368111 -2.31298e-18 2.09414e-06
0.412065 0.00749587 -2.31298e-18 9.47533e-06
0.412065 0.0114491 -2.31298e-18 2.78183e-05
0.412065 0.0155459 -2.31298e-18 6.71567e-05
0.412065 0.0197915 0 0.000151933
0.412065 0.0241911 -3.08149e-33 0.000306166
0.412065 0.0264709 0 0.000424372
0.412065 0.0287506 -2.31298e-18 0.000542578
0.412065 0.0334755 -2.31298e-18 0.000870439
0.412065 0.038372 -2.31298e-18 0.00129569
0.151552 0.385557 0 0.0234025
0.412065 0.0434463 0 0.00182028
0.350249 0.221782 0 0.0124424
0.412065 0.0487048 0 0.00244448
0.412065 0.0541543 -3.08149e-33 0.00316673
0.412065 0.0569779 0 0.00357483
0.412065 0.0598016 -2.31298e-18 0.00398293
0.412065 0.0656539 -2.31298e-18 0.0048861
0.412065 0.0717187 -2.31298e-18 0.00586567
0.075776 0.412396 -3.46945e-18 0.0224132
0.412065 0.0780037 -2.31298e-18 0.00690579
0.288433 0.306027 0 0.0193653
0.412065 0.0845169 -2.31298e-18 0.00783552
0.350249 0.233516 3.46945e-18 0.0125389
0 0.421557 0 0.0153367
0.412065 0.0912666 -2.31298e-18 0.00841029
0.219992 0.360265 3.46945e-18 0.0237891
0.412065 0.0982613 0 0.00859528
0.412065 0.10551 0 0.00865541
0.412065 0.113022 -2.31298e-18 0.00879962
0.350249 0.245675 0 0.0126184
0.412065 0.120806 0 0.00897252
0.151552 0.403236 0 0.0219948
0.288433 0.320819 0 0.0189783
0.412065 0.128874 -2.31298e-18 0.00910493
0.412065 0.137234 0 0.00919267
0.350249 0.258275 -3.46945e-18 0.0126773
0.219992 0.377026 0 0.0228158
0.412065 0.145897 -2.31298e-18 0.00927659
0.075776 0.431051 0 0.022341
0.412065 0.154876 -2.31298e-18 0.00937539
0 0.440544 0 0.0154641
0.288433 0.336148 0 0.0185451
0.350249 0.271334 0 0.0127095
0.412065 0.16418 -2.31298e-18 0.00948017
0.412065 0.173822 -2.31298e-18 0.00958446
0.151552 0.421557 0 0.0212588
0.412065 0.183814 -2.31298e-18 0.00968503
0.350249 0.284867 3.46945e-18 0.0127102
0.219992 0.394397 0 0.0217343
0.288433 0.352034 3.70071e-18 0.0180917
0.412065 0.194169 0 0.00978093
0.075776 0.450382 0 0.0223918
0.412065 0.2049 -2.31298e-18 0.00987177
0 0.46022 0 0.0156092
0.350249 0.29889 3.46945e-18 0.012682
0.412065 0.21602 0 0.00995685
0.151552 0.440544 0 0.0208245
0.219993 0.412396 3.46945e-18 0.0206789
0.467897 0.00184056 -3.46945e-18 6.00767e-07
0.467897 0.00558849 0 3.40288e-06
0.288433 0.368496 0 0.0175928
0.467897 0.00947248 0 1.55272e-05
0.467897 0.0134975 0 3.65768e-05
0.467897 0.0176687 3.46945e-18 7.97645e-05
0.467897 0.0219913 -3.46945e-18 0.000167947
0.467897 0.0264709 3.46945e-18 0.000326479
0.467897 0.0311131 3.46945e-18 0.000557326
0.467897 0.0359238 -3.46945e-18 0.00087366
0.467897 0.038372 0 0.00111937
0.467897 0.0409092 3.46945e-18 0.0012785
0.350249 0.313423 0 0.012629
0.467897 0.0460755 0 0.00177307
0.467897 0.0514296 3.46945e-18 0.00235707
0.412065 0.227544 -2.31298e-18 0.0100349
0.467897 0.0569779 0 0.0030281
0.467897 0.0627277 -3.46945e-18 0.00378078
0.467897 0.0686863 3.46945e-18 0.00460595
0.467897 0.0748612 0 0.00549064
0.467897 0.0812603 0 0.00641493
0.467897 0.0878918 3.46945e-18 0.00677748
0.075776 0.470415 3.46945e-18 0.0224843
0.412065 0.239487 -2.31298e-18 0.010104
0.467897 0.0947639 -3.46945e-18 0.00685043
0.467897 0.101886 3.46945e-18 0.00689988
0.350249 0.328483 0 0.0125549
0.467897 0.109266 0 0.00696173
0 0.48061 0 0.0157496
0.288433 0.385557 0 0.017025
0.467897 0.116914 0 0.00702903
0.412065 0.251863 -2.31298e-18 0.0101625
0.219992 0.431051 0 0.019772
0.467897 0.12484 0 0.00709598
0.151552 0.46022 0 0.0205055
0.467897 0.133054 3.46945e-18 0.00715943
0.467897 0.141566 3.46945e-18 0.0072242
0.412065 0.264688 -2.31298e-18 0.0102078
0.350249 0.344091 -3.46945e-18 0.0124652
0.467897 0.150387 3.46945e-18 0.00729163
0.467897 0.154876 0 0.00784879
0.467897 0.159528 3.46945e-18 0.00735794
0.288433 0.403236 0 0.0164223
0.075776 0.491175 0 0.0225805
0.412065 0.27798 -2.31298e-18 0.0102378
0.467897 0.169001 0 0.00742298
0.467897 0.178818 3.46945e-18 0.00748659
0.219992 0.450382 0 0.0190271
6.73026e-17 0.501741 3.70071e-18 0.0158462
0.350249 0.360265 0 0.0123611
0.151552 0.48061 0 0.0202517
0.467897 0.188991 0 0.00754859
0.412065 0.291753 0 0.010252
0.467897 0.199535 0 0.00760878
0.288433 0.421557 0 0.0158516
0.467897 0.21046 0 0.00766693
0.412065 0.306027 0 0.0102513
0.350249 0.377027 0 0.0122348
0.467897 0.221782 3.46945e-18 0.00772276
0.075776 0.51269 0 0.0225603
0.219993 0.470415 3.46945e-18 0.0184118
0.467897 0.227544 0 0.00835568
0.412065 0.320819 -2.31298e-18 0.0102365
0.467897 0.233515 0 0.00777584
6.73026e-17 0.523639 3.70071e-18 0.0158704
0.523729 0 0 0
0.523729 0.00368111 0 1.95151e-06
0.523729 0.00749587 -2.31298e-18 9.9003e-06
0.523729 0.0114491 0 2.65512e-05
0.523729 0.0155459 0 5.53785e-05
0.523729 0.0197915 -2.31298e-18 0.000110168
0.151552 0.501741 0 0.0200045
0.523729 0.0241911 0 0.000215773
0.523729 0.0287506 0 0.000385244
0.523729 0.0334755 0 0.000624215
0.523729 0.038372 -3.08149e-33 0.00094304
0.523729 0.0434463 0 0.00134405
0.523729 0.0487048 0 0.00182754
0.523729 0.0541543 0 0.00239191
0.288433 0.440544 0 0.015355
0.523729 0.0598016 0 0.00303303
0.350249 0.394397 -3.46945e-18 0.0120774
0.523729 0.0656539 0 0.00374324
0.467897 0.245675 0 0.00782581
0.523729 0.0717187 0 0.00451075
0.523729 0.0780037 0 0.00524835
0.523729 0.0845169 0 0.00569801
0.523729 0.0912666 0 0.00584269
0.412065 0.336148 0 0.0102092
0.523729 0.0982613 0 0.00590909
0.523729 0.10551 -2.31298e-18 0.00597066
0.467897 0.258275 -3.46945e-18 0.00787246
0.523729 0.113022 0 0.00603348
0.523729 0.120806 -3.08149e-33 0.00609501
0.219993 0.491176 0 0.0178758
0.523729 0.12484 0 0.00612431
0.523729 0.128874 -2.31298e-18 0.00615361
0.075776 0.534986 0 0.0224485
0.467897 0.271334 3.46945e-18 0.0079159
0.350249 0.412396 -3.46945e-18 0.0118924
0.523729 0.137234 0 0.00621012
0.412065 0.352034 -2.31298e-18 0.0101704
0.288433 0.46022 0 0.014936
0.523729 0.145897 0 0.00626641
0.151552 0.523639 0 0.0197314
0.523729 0.154876 -3.08149e-33 0.0063222
0 0.546332 0 0.0158365
0.523729 0.159528 0 0.00634946
0.467897 0.284867 -3.46945e-18 0.00795728
0.523729 0.16418 -2.31298e-18 0.00637672
0.523729 0.173822 0 0.00643001
0.412065 0.368496 0 0.0101183
0.523729 0.183814 0 0.00648204
0.467897 0.29889 0 0.00799608
0.350249 0.431051 -3.46945e-18 0.0116967
0.219992 0.51269 0 0.0173897
0.523729 0.194169 0 0.00653279
0.288433 0.48061 0 0.014579
0.523729 0.2049 0 0.00658217
0.467897 0.313423 3.46945e-18 0.00802997
0.075776 0.558091 0 0.0222747
0.412065 0.385557 0 0.0100488
0.523729 0.21602 -3.08149e-33 0.00663011
0.151552 0.546332 0 0.0194437
0 0.569849 0 0.0157589
0.350249 0.450382 3.46945e-18 0.0115094
0.523729 0.227544 -3.08149e-33 0.00667649
0.467897 0.328483 0 0.00805725
0.523729 0.231525 1.54074e-33 0.00669138
0.574156 0.00184056 0 4.48125e-07
0.574156 0.00558849 0 3.36096e-06
0.574157 0.00947248 0 1.72534e-05
0.574156 0.0134975 -3.46945e-18 3.67827e-05
0.574156 0.0176687 -3.46945e-18 6.87574e-05
0.574156 0.0219913 0 0.000126001
0.574156 0.0264708 -3.46945e-18 0.000246794
0.574156 0.031113 0 0.000417814
0.574156 0.0359238 -3.46945e-18 0.000660039
0.574157 0.0409092 0 0.000977424
0.523729 0.239487 3.70071e-18 0.00672116
0.574156 0.0460755 -3.46945e-18 0.00137104
0.574156 0.0514295 0 0.00184014
0.412065 0.403236 0 0.00996016
0.574157 0.0569779 0 0.00238179
0.574156 0.0627277 0 0.00299015
0.574156 0.0686863 0 0.00365511
0.219992 0.534986 0 0.016946
0.288433 0.501741 0 0.0142644
0.574156 0.0748612 3.46945e-18 0.00436176
0.574156 0.0812603 0 0.00481837
0.467897 0.344091 0 0.00807661
0.574156 0.0878917 3.46945e-18 0.0048989
0.523729 0.251863 0 0.00676405
0.574157 0.0947639 0 0.00497111
0.574156 0.101886 0 0.0050414
0.574156 0.109266 0 0.00510527
0.574156 0.116914 0 0.00516373
0.412065 0.416977 -6.16298e-33 0.00988317
0.350249 0.470415 0 0.0113428
0.523729 0.264688 0 0.00680521
0.075776 0.582034 0 0.0220606
0.574156 0.12484 0 0.00521785
0.574156 0.133054 3.46945e-18 0.00526855
0.412065 0.421557 -2.31298e-18 0.00985751
0.151552 0.569849 0 0.0191543
0.467897 0.360265 -3.46945e-18 0.00808752
0.574157 0.141566 -3.46945e-18 0.00531662
0.523729 0.27798 0 0.006845
0.574156 0.150386 3.46945e-18 0.00536278
0 0.594219 0 0.0156484
0.574156 0.159528 -3.46945e-18 0.00540745
0.574156 0.16418 0 0.0056126
0.288433 0.523639 1.2326e-32 0.0139811
0.574157 0.169001 0 0.00545091
0.523729 0.291753 0 0.00688352
0.219993 0.558091 3.46945e-18 0.016546
0.467897 0.377026 0 0.00808977
0.574156 0.178818 3.46945e-18 0.00549333
0.412065 0.440544 -2.31298e-18 0.0097507
0.350249 0.491175 0 0.0112003
0.574156 0.188992 3.46945e-18 0.0055348
0.523729 0.306027 -3.08149e-33 0.00691979
0.574157 0.199535 0 0.0055754
0.574157 0.21046 0 0.00561521
0.075776 0.606847 0 0.0218208
0.467897 0.394397 0 0.00808282
0.151552 0.594219 0 0.0188711
0.523729 0.320819 0 0.00695241
0.574157 0.221782 -3.46945e-18 0.00565431
0.412065 0.46022 3.08149e-33 0.00964957
0.288433 0.546332 0 0.0137257
0 0.619475 0 0.0155133
0.574156 0.233515 3.46945e-18 0.00569279
0.350249 0.51269 3.46945e-18 0.0110774
0.219992 0.582034 3.46945e-18 0.0161898
0.523729 0.336148 0 0.00698025
0.467897 0.412396 0 0.00806606
0.574156 0.245675 0 0.00573075
0.624584 0 0 0
0.624584 0.00368111 0 1.88233e-06
0.624584 0.00749587 0 1.09012e-05
0.624584 0.0114491 0 2.84468e-05
0.624584 0.0155459 0 5.28304e-05
0.624584 0.0197915 0 9.19392e-05
0.624584 0.0241911 -2.31298e-18 0.000167031
0.624584 0.0287506 0 0.000295984
0.624584 0.0334755 0 0.0004828
0.624584 0.038372 0 0.000734299
0.624584 0.0434463 -2.31298e-18 0.00105662
0.624584 0.0487048 0 0.00145002
0.624584 0.0541543 0 0.0019125
0.624584 0.0598016 0 0.00243944
0.624584 0.0656539 0 0.00302277
0.624584 0.0717187 0 0.00364813
0.624584 0.0780037 0 0.00411672
0.574157 0.258276 3.46945e-18 0.00576834
0.624584 0.0845169 0 0.00430414
0.523729 0.352034 0 0.0070025
0.624584 0.0912666 0 0.00438036
0.624584 0.0982613 0 0.00445074
0.412065 0.48061 3.08149e-33 0.00956036
0.624584 0.10551 0 0.00451502
0.624584 0.113022 -2.31298e-18 0.00457323
0.574156 0.271334 0 0.00580571
0.624584 0.120806 0 0.00462661
0.467897 0.431051 0 0.00804052
0.075776 0.632561 -3.46945e-18 0.021565
0.624584 0.128874 0 0.0046761
0.151552 0.619475 0 0.0185985
0.288433 0.569849 0 0.0134976
0.350249 0.534985 0 0.0109699
0.624584 0.137234 -2.31298e-18 0.00472244
0.523729 0.368496 0 0.00701884
0.574156 0.284866 -3.46945e-18 0.00584293
0.624584 0.145897 0 0.00476628
0.467897 0.440544 0 0.0083863
0.624584 0.154876 0 0.00480817
0.219992 0.606847 -3.46945e-18 0.015875
0 0.645647 0 0.01536
0.624584 0.16418 -3.08149e-33 0.00484847
0.574156 0.29889 -3.46945e-18 0.00587969
0.624584 0.173822 0 0.00488747
0.412065 0.501741 1.54074e-33 0.0094844
0.467897 0.450382 -3.46945e-18 0.0080099
0.523729 0.385557 0 0.00702902
0.624584 0.183814 0 0.00492536
0.624584 0.194169 0 0.00496228
0.574156 0.313423 0 0.00591521
0.624584 0.2049 0 0.00499838
0.350249 0.558091 3.46945e-18 0.010875
0.288433 0.594219 0 0.0132961
0.624584 0.21602 0 0.00503377
0.523729 0.403236 0 0.00703266
0.574156 0.328483 -3.46945e-18 0.00594864
0.151552 0.645647 0 0.0183381
0.467897 0.470415 3.46945e-18 0.00797925
0.075776 0.659208 0 0.0212993
0.624584 0.227544 0 0.0050686
0.412065 0.523639 0 0.0094202
0.523729 0.41545 3.08149e-33 0.00703078
0.624584 0.239487 3.70071e-18 0.00510298
0.574156 0.344091 0 0.00597917
0.219992 0.632561 0 0.0155979
0.67013 0.00184055 0 3.415e-07
0.67013 0.00558849 0 3.38156e-06
0.67013 0.00947248 0 1.95367e-05
0.67013 0.0134975 0 4.00405e-05
0.67013 0.0176687 -3.46945e-18 6.57346e-05
0.67013 0.0219913 0 0.000107931
0.67013 0.0264708 3.46945e-18 0.000189771
0.67013 0.0311131 0 0.000334003
0.67013 0.0359237 0 0.000526214
0.67013 0.0409092 -3.46945e-18 0.000783852
0.67013 0.0460755 0 0.00110857
0.67013 0.0514296 3.46945e-18 0.00149938
0.523729 0.421557 -2.31298e-18 0.00702984
0.67013 0.056978 0 0.00195296
0 0.67277 0 0.0151932
0.67013 0.0627277 0 0.00246303
0.624584 0.251863 0 0.00513706
0.67013 0.0686863 0 0.00301946
0.67013 0.0748612 3.46945e-18 0.00360021
0.67013 0.0812603 0 0.00374435
0.67013 0.0878917 0 0.0038226
0.67013 0.0947639 3.46945e-18 0.0038965
0.574156 0.360265 0 0.00600633
0.67013 0.101886 0 0.00396173
0.523729 0.431051 0 0.00702587
0.624584 0.264688 0 0.00517096
0.467897 0.491175 0 0.00795281
0.67013 0.109266 3.46945e-18 0.00401977
0.350249 0.582034 0 0.0107916
0.67013 0.116914 0 0.00407258
0.67013 0.12484 0 0.00412106
0.67013 0.133054 0 0.00416602
0.288433 0.619475 0 0.0131197
0.624584 0.27798 -3.08149e-33 0.00520477
0.412065 0.546332 1.54074e-33 0.00936606
0.523729 0.440544 -3.08149e-33 0.00702189
0.67013 0.141566 3.46945e-18 0.00420801
0.685312 0.0241911 -7.70372e-34 0.000147078
0.685312 0.0434463 -7.70372e-34 0.000927757
0.67013 0.150387 0 0.00424755
0.574156 0.377026 -3.46945e-18 0.00602996
0.67013 0.159528 0 0.00428512
0.624584 0.291753 0 0.00523839
0.151552 0.67277 0 0.0180906
0.075776 0.686823 0 0.0210285
0.67013 0.169001 0 0.00432107
0.67013 0.178818 0 0.00435568
0.467897 0.51269 0 0.00793263
0.685312 0.113022 -7.70372e-34 0.0039764
0.219992 0.659208 0 0.0153543
0.624584 0.306027 0 0.00527148
0.67013 0.188991 0 0.00438918
0.574156 0.394397 3.46945e-18 0.00604994
0.523729 0.46022 0 0.00701151
0.685312 0.137234 -7.70372e-34 0.00411708
0.67013 0.199535 -3.46945e-18 0.00442177
0.350249 0.606847 0 0.0107198
0 0.700877 0 0.0150171
0.624584 0.320819 0 0.00530349
0.67013 0.21046 0 0.00445362
0.412065 0.569849 -2.31298e-18 0.00932079
0.67013 0.221782 -3.46945e-18 0.0044849
0.574157 0.412396 0 0.00606609
0.288433 0.645647 0 0.0129668
0.624584 0.336148 -3.08149e-33 0.00533385
0.67013 0.233515 3.46945e-18 0.00451577
0.467897 0.534986 0 0.00791909
0.523729 0.48061 0 0.00700186
0.624584 0.344091 0 0.00534797
0.67013 0.245675 0 0.00454641
0.715676 4.54095e-19 0 4.94938e-23
0.715676 0.00368111 0 1.85637e-06
0.715676 0.00749587 0 1.21283e-05
0.715676 0.0114491 0 3.16104e-05
0.715676 0.0155459 0 5.44171e-05
0.715676 0.0197915 0 8.48313e-05
0.715676 0.0241911 0 0.000137101
0.715676 0.0287506 0 0.000238313
0.715676 0.0334755 0 0.000392368
0.715676 0.038372 0 0.000596597
0.624584 0.352034 -2.31298e-18 0.00536208
0.715676 0.0434463 0 0.000863324
0.151552 0.700877 0 0.0178559
0.715676 0.0487048 0 0.00119314
0.715676 0.0541543 0 0.0015839
0.574156 0.43105 0 0.00607842
0.715676 0.0598016 0 0.00203059
0.67013 0.258275 0 0.00457693
0.715676 0.0656539 0 0.00252469
0.715676 0.0717187 0 0.00302184
0.075776 0.715441 0 0.0207562
0.715676 0.0780037 0 0.00332148
0.715676 0.0845169 0 0.00342069
0.219992 0.686824 0 0.0151403
0.715676 0.0912666 0 0.00349601
0.715676 0.0982613 0 0.00356396
0.67013 0.271334 -3.46945e-18 0.00460743
0.350249 0.632561 -3.46945e-18 0.0106602
0.412065 0.594219 3.08149e-33 0.00928405
0.715676 0.10551 0 0.00362401
0.715676 0.113022 0 0.00367799
0.624584 0.368496 0 0.00538791
0.523729 0.501741 0 0.00699545
0.715676 0.120806 0 0.00372721
0.715676 0.128874 0 0.00377246
0.67013 0.284867 0 0.00463792
0.467897 0.558091 3.46945e-18 0.00791171
0.715676 0.137234 0 0.00381441
0.574156 0.450382 0 0.00608766
0 0.730005 0 0.0148353
0.715676 0.145897 0 0.00385362
0.288433 0.67277 0 0.0128353
0.715676 0.154876 0 0.00389057
0.67013 0.29889 0 0.00466828
0.624584 0.385557 0 0.00541119
0.715676 0.16418 -9.25187e-19 0.00392564
0.715676 0.173822 0 0.00395916
0.715676 0.183814 0 0.00399138
0.67013 0.313423 0 0.0046983
0.523729 0.523639 0 0.00699362
0.715676 0.194169 0 0.00402252
0.574156 0.470415 3.46945e-18 0.00609536
0.624584 0.403236 0 0.00543182
0.743101 0.0241911 -7.70372e-34 0.000131497
0.412065 0.619475 3.08149e-33 0.00925604
0.715676 0.2049 0 0.00405277
0.151552 0.730005 0 0.0176339
0.67013 0.328484 3.46945e-18 0.00472761
0.350249 0.659208 0 0.0106127
0.467897 0.582034 0 0.00791001
0.715676 0.21602 0 0.0040823
0.219992 0.715441 0 0.0149522
0.075776 0.745097 -3.46945e-18 0.0204854
0.715676 0.227544 0 0.00411129
0.67013 0.344091 0 0.00475589
0.624584 0.421557 0 0.00544972
0.743101 0.128874 -7.70372e-34 0.00356951
0.715676 0.239487 3.70071e-18 0.00413989
0.574156 0.491175 0 0.00610353
0.756814 0.00184055 0 2.60436e-07
0.523729 0.546332 0 0.00699677
0.756813 0.00558849 0 3.44269e-06
0.756813 0.00947248 0 2.20776e-05
0.756814 0.0134975 -3.46945e-18 4.45821e-05
0.756814 0.0155459 0 5.61584e-05
0.756814 0.0176687 0 6.71398e-05
0.756814 0.0219913 0 9.87477e-05
0.756814 0.0264709 0 0.000153284
0.756814 0.031113 -3.46945e-18 0.00027886
0.756813 0.0359238 -3.46945e-18 0.000434663
0.288433 0.700877 0 0.0127235
0.756814 0.0409092 -3.46945e-18 0.000648265
0.756813 0.0460755 3.46945e-18 0.000921973
0.756813 0.0514296 0 0.00125517
0.715676 0.251863 0 0.00416825
0.756813 0.0569779 0 0.00164418
0.756814 0.0627277 -3.46945e-18 0.00208224
0.756814 0.0686863 -3.46945e-18 0.00255847
0 0.76019 0 0.014651
0.756814 0.0748612 0 0.0029417
0.67013 0.360265 3.46945e-18 0.00478284
0.756814 0.0812603 -3.46945e-18 0.00303919
0.756814 0.0878917 -3.46945e-18 0.00311749
0.756814 0.0947639 -3.46945e-18 0.0031884
0.715676 0.264688 0 0.00419645
0.756813 0.101886 0 0.00325031
0.624584 0.440544 0 0.00546513
0.756813 0.109266 3.46945e-18 0.00330549
0.756813 0.116914 3.46945e-18 0.00335555
0.412065 0.645647 0 0.00923711
0.467897 0.606847 0 0.00791397
0.756814 0.120806 0 0.00342357
0.756813 0.12484 0 0.00340122
0.715676 0.27798 0 0.00422456
0.756814 0.133054 -3.46945e-18 0.00344324
0.67013 0.377026 -3.46945e-18 0.00480827
0.756814 0.137234 0 0.00350916
0.574156 0.51269 0 0.00611396
0.756813 0.141566 3.46945e-18 0.00348224
0.685312 0.352034 -7.70372e-34 0.00469432
0.743101 0.2049 -7.70372e-34 0.00384398
0.350249 0.686824 0 0.0105775
0.756814 0.150387 0 0.00351872
0.756814 0.154876 0 0.00358348
0.715676 0.291753 0 0.00425257
0.756814 0.159528 -3.46945e-18 0.00355308
0.523729 0.569849 0 0.00700482
0.72743 0.264688 0 0.00410457
0.756814 0.16418 0 0.00361752
0.151552 0.76019 0 0.0174248
0.756813 0.169001 3.46945e-18 0.00358567
0.624584 0.46022 0 0.00547879
0.219993 0.745097 0 0.0147872
0.67013 0.394396 0 0.00483208
0.756813 0.178818 -3.46945e-18 0.00361677
0.715676 0.306027 0 0.00428037
0.075776 0.775831 0 0.0202191
0.756813 0.188991 0 0.00364662
0.756814 0.199535 0 0.00367543
0.715676 0.320819 0 0.00430777
0.574156 0.534985 0 0.00612779
0.288433 0.730005 0 0.0126295
0.756813 0.21046 0 0.00370338
0.467897 0.632561 0 0.0079239
0.67013 0.412396 -3.46945e-18 0.00485421
0.624584 0.48061 -3.08149e-33 0.00549196
0.756814 0.221782 0 0.00373064
0.412065 0.67277 3.08149e-33 0.00922749
0.715676 0.336148 0 0.00433454
0 0.791472 0 0.014467
0.756813 0.233516 3.46945e-18 0.00375738
0.523729 0.594219 0 0.00701771
0.624584 0.487654 1.54074e-33 0.00549666
0.756814 0.245675 3.46945e-18 0.00378374
0.350249 0.715441 3.46945e-18 0.010554
0.67013 0.43105 0 0.00487465
0.715676 0.352034 -9.25187e-19 0.00436044
0.797951 9.08189e-19 -3.08149e-33 7.68619e-23
0.797951 0.00368111 2.31298e-18 1.84855e-06
0.797951 0.00749587 2.31298e-18 1.34304e-05
0.797951 0.0114491 2.31298e-18 3.51999e-05
0.797951 0.0141803 7.70372e-34 5.03331e-05
0.797951 0.0155459 0 5.78996e-05
0.797951 0.0169611 7.70372e-34 6.61512e-05
0.797951 0.0197915 2.31298e-18 8.26542e-05
0.797951 0.0219913 0 0.000101471
0.797951 0.0241911 3.08149e-33 0.000120288
0.797951 0.0264709 0 0.000158611
0.797951 0.0287506 -3.08149e-33 0.000196934
0.797951 0.0334755 2.31298e-18 0.000325642
0.797951 0.038372 2.31298e-18 0.000499327
0.797951 0.0434463 2.31298e-18 0.000723829
0.797951 0.0487048 0 0.00100556
0.756813 0.258275 -3.46945e-18 0.00380985
0.797951 0.0541543 2.31298e-18 0.0013424
0.797951 0.0598016 2.31298e-18 0.0017291
0.797951 0.0656539 2.31298e-18 0.00215657
0.574156 0.55809 0 0.0061455
0.624584 0.501741 0 0.00550606
0.797951 0.0717187 2.31298e-18 0.00253074
0.797951 0.0780037 -3.08149e-33 0.00273105
0.797951 0.0845169 2.31298e-18 0.00281962
0.797951 0.0912666 -3.08149e-33 0.00289488
0.797951 0.0982613 2.31298e-18 0.00296113
0.756813 0.271334 0 0.00383576
0.797951 0.10551 2.31298e-18 0.00301959
0.715676 0.368496 0 0.00438527
0.151552 0.791472 0 0.0172288
0.797951 0.113022 2.31298e-18 0.00307216
0.219992 0.775831 3.46945e-18 0.014643
0.797951 0.118211 7.70372e-34 0.00310401
0.770526 0.239487 1.54074e-33 0.00371598
0.797951 0.120806 0 0.00311994
0.67013 0.450382 3.46945e-18 0.0048936
0.797951 0.128874 3.08149e-33 0.00316363
0.467897 0.659208 0 0.00794023
0.756813 0.284866 -3.46945e-18 0.00386153
0.743101 0.320819 -7.70372e-34 0.00408798
0.797951 0.137234 0 0.00320392
0.797951 0.141566 0 0.00322264
0.797951 0.145897 -9.25187e-19 0.00324136
0.523729 0.619475 0 0.0070356
0.075776 0.807681 0 0.0199598
0.797951 0.150387 0 0.00325888
0.797951 0.154876 0 0.0032764
0.715676 0.385557 0 0.00440893
0.412065 0.700877 3.08149e-33 0.00922727
0.288433 0.76019 0 0.0125519
0.756813 0.29889 0 0.00388716
0.797951 0.16418 0 0.0033094
0.624584 0.523639 0 0.00552231
0.797951 0.167394 7.70372e-34 0.00331982
0.797951 0.173822 2.31298e-18 0.00334067
0.574156 0.582034 0 0.00616722
0.67013 0.470415 0 0.00491162
0.797951 0.183814 2.31298e-18 0.00337044
0.756813 0.313423 -3.46945e-18 0.00391257
0.797951 0.194169 -9.25187e-19 0.00339896
0.715676 0.403236 0 0.00443134
0.151552 0.807681 0 0.0171377
0.797951 0.197746 -7.70372e-34 0.00340811
0.350249 0.745097 0 0.010542
0.797951 0.2049 3.08149e-33 0.0034264
0 0.823889 0 0.0142862
0.756813 0.328483 -3.46945e-18 0.00393765
0.797951 0.21046 0 0.00343968
0.797951 0.21602 -3.08149e-33 0.00345295
0.797951 0.223703 7.70372e-34 0.00347017
0.797951 0.227544 9.25187e-19 0.00347877
0.624584 0.546332 0 0.00554154
0.715676 0.421557 0 0.00445249
0.67013 0.491176 -3.46945e-18 0.00492964
0.797951 0.231525 7.70372e-34 0.00348719
0.467897 0.686824 -3.46945e-18 0.0079634
0.523729 0.645647 0 0.00705879
0.756813 0.344091 -3.46945e-18 0.00396222
0.822721 0.120806 7.70372e-34 0.00297446
0.797951 0.239487 -3.08149e-33 0.00350402
0.822721 0.137234 7.70372e-34 0.00305835
0.835106 0.00184056 0 1.98352e-07
0.835106 0.00558849 0 3.49316e-06
0.835106 0.00947248 0 2.464e-05
0.835106 0.0134975 0 4.93083e-05
0.835107 0.0176687 0 7.03592e-05
0.835106 0.0219913 -3.46945e-18 9.44016e-05