# nutMean  POINT_DATA 63840
# x  y  z  nutMean
0 0.5 3.39583e-17 0.0158383
0 0.5 -0.00617931 0.0158606
0 0.5 0.00617931 0.0158224
0.0124865 0.5 -0.00617931 0.0169734
0.0124865 0.5 0.00617931 0.0169384
0 0.5 -0.0688207 0.0159977
0 0.5 0.0688207 0.01554
0.0124865 0.5 -0.0688207 0.0171105
0.0124865 0.5 0.0688207 0.016656
0 0.5 -0.075 0.0160025
0 0.5 0.075 0.0154999
0 0.5 -0.0811793 0.016014
0 0.5 0.0811793 0.0154661
0.0124865 0.5 -0.0811793 0.0171239
0.0124865 0.5 0.0811793 0.0165517
0.075776 0.5 -0.0375 0.0226781
0.075776 0.5 0.0375 0.0224663
0.075776 0.5 -0.1125 0.0227566
0.075776 0.5 0.1125 0.0218397
0 0.5 -0.143821 0.0160505
0 0.5 0.143821 0.0150519
0.0124865 0.5 -0.143821 0.0171603
0.0124865 0.5 0.143821 0.0161376
0 0.5 -0.15 0.0160461
0 0.5 0.15 0.0150038
0.151149 0.5 -0.00137318 0.0200518
0 0.5 -0.156179 0.0160486
0 0.5 0.156179 0.0149614
0.0124865 0.5 -0.156179 0.0171871
0.0124865 0.5 0.156179 0.0160061
0.151149 0.5 0.075 0.019798
0.151149 0.5 -0.075 0.0201402
0.075776 0.5 -0.1875 0.0229176
0.075776 0.5 0.1875 0.0210499
0.151149 0.5 0.15 0.0193484
0.151149 0.5 -0.15 0.0202279
0 0.5 -0.218821 0.0159206
0 0.5 0.218821 0.0144884
0.0124865 0.5 -0.218821 0.0170591
0.0124865 0.5 0.218821 0.0155332
0.219992 0.5 0.0375 0.0176297
0.219993 0.5 -0.0375 0.0177232
0 0.5 -0.225 0.0158924
0 0.5 0.225 0.0144375
0 0.5 -0.231179 0.015871
0 0.5 0.231179 0.0143913
0.0124865 0.5 -0.231179 0.0169794
0.0124865 0.5 0.231179 0.0153907
0.219992 0.5 0.1125 0.0175729
0.219993 0.5 -0.1125 0.0177487
0.151149 0.5 -0.225 0.0201052
0.151149 0.5 0.225 0.0187492
0.075776 0.5 -0.2625 0.0224432
0.075776 0.5 0.2625 0.0201936
0.288069 0.5 -0.00137318 0.0143307
0.219992 0.5 0.1875 0.0172134
0.219993 0.5 -0.1875 0.017839
0 0.5 0.293821 0.0139048
0 0.5 -0.293821 0.0155743
0.0124865 0.5 -0.293821 0.0166828
0.0124865 0.5 0.293821 0.0149042
0.288069 0.5 -0.075 0.0143418
0.288069 0.5 0.075 0.0142809
0 0.5 -0.3 0.0155371
0 0.5 0.3 0.0138556
0 0.5 0.306179 0.0138089
0 0.5 -0.306179 0.0155055
0.0124865 0.5 -0.306179 0.0165772
0.0124865 0.5 0.306179 0.0147625
0.288069 0.5 -0.15 0.0143897
0.288069 0.5 0.15 0.0141981
0.151149 0.5 -0.3 0.0196911
0.151149 0.5 0.3 0.0181135
0.219992 0.5 -0.2625 0.0175665
0.219992 0.5 0.2625 0.0167922
0.075776 0.5 0.3375 0.0193419
0.075776 0.5 -0.3375 0.0218112
0.350249 0.5 -0.0375 0.0111421
0.350249 0.5 0.0375 0.0111577
0.288069 0.5 -0.225 0.0143839
0.288069 0.5 0.225 0.0140324
0.350249 0.5 0.1125 0.0111813
0.350249 0.5 -0.1125 0.0111808
0 0.5 0.368821 0.013342
0 0.5 -0.368821 0.0151309
0.0124865 0.5 -0.368821 0.0162026
0.0124865 0.5 0.368821 0.0142956
0 0.5 -0.375 0.0150891
0 0.5 0.375 0.0132974
0 0.5 -0.381179 0.0150506
0 0.5 0.381179 0.0132526
0.0124865 0.5 -0.381179 0.0160814
0.0124865 0.5 0.381179 0.0141627
0.350249 0.5 -0.1875 0.011219
0.350249 0.5 0.1875 0.0112275
0.219992 0.5 -0.3375 0.0172698
0.219992 0.5 0.3375 0.0163485
0.151149 0.5 -0.375 0.0191992
0.151149 0.5 0.375 0.0174849
0.411736 0.5 -0.00137318 0.0095109
0.288069 0.5 -0.3 0.014292
0.288069 0.5 0.3 0.0138434
0.411736 0.5 -0.075 0.00951086
0.411736 0.5 0.075 0.00952119
0.075776 0.5 -0.4125 0.0210852
0.075776 0.5 0.4125 0.0185439
0.350249 0.5 -0.2625 0.011329
0.350249 0.5 0.2625 0.0112709
0.411736 0.5 -0.15 0.00955441
0.411736 0.5 0.15 0.00956743
0 0.5 -0.443821 0.0146399
0 0.5 0.443821 0.012832
0.0124865 0.5 -0.443821 0.0156706
0.0124865 0.5 0.443821 0.0137421
0 0.5 -0.45 0.014598
0 0.5 0.45 0.0127946
0 0.5 -0.456179 0.0145567
0 0.5 0.456179 0.012756
0.0124865 0.5 -0.456179 0.0155463
0.0124865 0.5 0.456179 0.0136296
0.219992 0.5 -0.4125 0.0169309
0.219993 0.5 0.4125 0.0159003
0.411736 0.5 -0.225 0.00963876
0.411736 0.5 0.225 0.00963227
0.467897 0.5 0.0375 0.00794798
0.467897 0.5 -0.0375 0.00794109
0.288069 0.5 -0.375 0.0141784
0.288069 0.5 0.375 0.0136488
0.151149 0.5 -0.45 0.0186694
0.151149 0.5 0.45 0.0168994
0.467897 0.5 -0.1125 0.00797441
0.467897 0.5 0.1125 0.00799242
0.350249 0.5 0.3375 0.0113057
0.350249 0.5 -0.3375 0.0113963
0.075776 0.5 -0.4875 0.0203416
0.075776 0.5 0.4875 0.0178548
0.467897 0.5 -0.1875 0.00803778
0.467897 0.5 0.1875 0.00806185
0.411736 0.5 -0.3 0.00974567
0.411736 0.5 0.3 0.00970577
0 0.5 -0.518821 0.0141506
0 0.5 0.518821 0.0123955
0.0124865 0.5 0.518821 0.0132692
0.0124865 0.5 -0.518821 0.0151403
0.523432 0.5 -0.00137318 0.00700721
0 0.5 -0.525 0.0141126
0 0.5 0.525 0.0123639
0.523432 0.5 -0.075 0.00701551
0.523432 0.5 0.075 0.0070225
0 0.5 -0.531179 0.0140728
0 0.5 0.531179 0.0123319
0.0124865 0.5 -0.531179 0.0150253
0.0124865 0.5 0.531179 0.013175
0.288069 0.5 -0.45 0.0140671
0.288069 0.5 0.45 0.0134643
0.219992 0.5 -0.4875 0.0165916
0.219993 0.5 0.4875 0.0154718
0.467897 0.5 -0.2625 0.00816237
0.467897 0.5 0.2625 0.00815987
0.350249 0.5 -0.4125 0.0114846
0.350249 0.5 0.4125 0.0113525
0.523432 0.5 -0.15 0.00706541
0.523432 0.5 0.15 0.00707753
0.151149 0.5 -0.525 0.0181525
0.151149 0.5 0.525 0.0163812
0.411736 0.5 -0.375 0.00985716
0.411736 0.5 0.375 0.00979069
0.075776 0.5 -0.5625 0.0196478
0.075776 0.5 0.5625 0.0172721
0.523432 0.5 -0.225 0.00715271
0.523432 0.5 0.225 0.00716023
0.574156 0.5 -0.0375 0.00610812
0.574156 0.5 0.0375 0.00610751
0.467897 0.5 0.3375 0.00827357
0.467897 0.5 -0.3375 0.00828603
0.574156 0.5 -0.1125 0.00614194
0.574156 0.5 0.1125 0.00614625
0 0.5 -0.593821 0.0137026
0 0.5 0.593821 0.0120364
0.0124865 0.5 -0.593821 0.0146552
0.0124865 0.5 0.593821 0.0128795
0.288069 0.5 -0.525 0.0139745
0.288069 0.5 0.525 0.0133007
0 0.5 -0.6 0.0136702
0 0.5 0.6 0.0120108
0.350249 0.5 -0.4875 0.0116003
0.350249 0.5 0.4875 0.0114123
0.523432 0.5 -0.3 0.00727378
0.523432 0.5 0.3 0.00726647
0.219992 0.5 -0.5625 0.0162729
0.219992 0.5 0.5625 0.0150834
0.574156 0.5 -0.1875 0.00621084
0.574156 0.5 0.1875 0.00621395
0 0.5 -0.606179 0.0136358
0 0.5 0.606179 0.0119852
0.0124865 0.5 -0.606179 0.0145581
0.0124865 0.5 0.606179 0.0128036
0.411736 0.5 -0.45 0.00999953
0.411736 0.5 0.45 0.00989468
0.151149 0.5 -0.6 0.0176853
0.151149 0.5 0.6 0.0159423
0.62168 0.5 2.64545e-17 0.00554359
0.467897 0.5 0.4125 0.00841277
0.467897 0.5 -0.4125 0.00844877
0.624316 0.5 0.0729402 0.00552318
0.624316 0.5 -0.075 0.00552573
0.574156 0.5 -0.2625 0.00630389
0.574157 0.5 0.2625 0.00630972
0.075776 0.5 -0.6375 0.0190484
0.075776 0.5 0.6375 0.0168098
0.624316 0.5 -0.15 0.00557572
0.624316 0.5 0.15 0.005572
0.523432 0.5 -0.375 0.00742313
0.523432 0.5 0.375 0.00739384
0.350249 0.5 -0.5625 0.0117423
0.350249 0.5 0.5625 0.0114844
0.624316 0.5 -0.225 0.00565412
0.624316 0.5 0.225 0.0056484
0.288069 0.5 0.6 0.013167
0.288069 0.5 -0.6 0.0139097
0.574156 0.5 -0.3375 0.00644721
0.574156 0.5 0.3375 0.00642718
0.411736 0.5 -0.525 0.0101733
0.411736 0.5 0.525 0.0100171
0 0.5 -0.668821 0.0133165
0 0.5 0.668821 0.0117574
0.0124865 0.5 -0.668821 0.0142387
0.0124865 0.5 0.668821 0.0125758
0.67013 0.5 0.0375 0.00493497
0.67013 0.5 -0.0375 0.00493994
0.219993 0.5 -0.6375 0.0159918
0.219993 0.5 0.6375 0.0147498
0 0.5 -0.675 0.0132887
0 0.5 0.675 0.0117388
0.467897 0.5 0.4875 0.00857696
0.467897 0.5 -0.4875 0.00864675
0.67013 0.5 -0.1125 0.00497361
0.67013 0.5 0.1125 0.00496517
0 0.5 -0.681179 0.0132603
0 0.5 0.681179 0.0117192
0.0124865 0.5 -0.681179 0.0141579
0.0124865 0.5 0.681179 0.0125193
0.523432 0.5 -0.45 0.00760538
0.523432 0.5 0.45 0.00754699
0.151149 0.5 -0.675 0.0172874
0.151149 0.5 0.675 0.0155909
0.624316 0.5 -0.3 0.0057677
0.624316 0.5 0.3 0.00575107
0.67013 0.5 0.1875 0.00502425
0.67013 0.5 -0.1875 0.00503731
0.574156 0.5 -0.4125 0.00661424
0.574157 0.5 0.4125 0.00656621
0.708171 0.5 1.88651e-17 0.004595
0.075776 0.5 -0.7125 0.0185456
0.075776 0.5 0.7125 0.0164648
0.715434 0.5 0.0736268 0.0045487
0.715434 0.5 -0.075 0.00454877
0.67013 0.5 0.2625 0.00510784
0.67013 0.5 -0.2625 0.00512552
0.350249 0.5 -0.6375 0.0119116
0.350249 0.5 0.6375 0.0115707
0.411736 0.5 -0.6 0.0103782
0.411736 0.5 0.6 0.0101573
0.624316 0.5 -0.375 0.00591641
0.624316 0.5 0.375 0.00587333
0.715434 0.5 -0.15 0.00459562
0.715434 0.5 0.15 0.00458042
0.467897 0.5 -0.5625 0.00888065
0.467897 0.5 0.5625 0.008764
0.288069 0.5 -0.675 0.0138809
0.288069 0.5 0.675 0.0130686
0.523432 0.5 -0.525 0.00782312
0.523432 0.5 0.525 0.00772681
0 0.5 -0.743821 0.013001
0 0.5 0.743821 0.0115572
0.0124865 0.5 -0.743821 0.0138987
0.0124865 0.5 0.743821 0.0123572
0.219992 0.5 0.7125 0.0144777
0.219992 0.5 -0.7125 0.0157634
0.715434 0.5 -0.225 0.00467057
0.715434 0.5 0.225 0.00464692
0 0.5 -0.75 0.0129792
0 0.5 0.75 0.011546
0.67013 0.5 0.3375 0.00522212
0.67013 0.5 -0.3375 0.00525572
0.574156 0.5 -0.4875 0.00681529
0.574156 0.5 0.4875 0.00673627
0 0.5 -0.756179 0.0129565
0 0.5 0.756179 0.0115325
0.0124865 0.5 -0.756179 0.0138355
0.0124865 0.5 0.756179 0.0123212
0.756813 0.5 -0.0375 0.00414379
0.756813 0.5 0.0375 0.00413685
0.151149 0.5 -0.75 0.0169711
0.151149 0.5 0.75 0.0153301
0.756813 0.5 -0.1125 0.00417548
0.756813 0.5 0.1125 0.00416028
0.624316 0.5 -0.45 0.00609403
0.624316 0.5 0.45 0.00601979
0.715434 0.5 -0.3 0.00477416
0.715434 0.5 0.3 0.00473898
0.756813 0.5 0.1875 0.00421033
0.756813 0.5 -0.1875 0.00423397
0.67013 0.5 -0.4125 0.00541068
0.67013 0.5 0.4125 0.005341
0.411736 0.5 -0.675 0.0106142
0.411736 0.5 0.675 0.0103147
0.467897 0.5 0.6375 0.00897231
0.467897 0.5 -0.6375 0.00914961
0.075776 0.5 -0.7875 0.018162
0.075776 0.5 0.7875 0.016238
0.350249 0.5 -0.7125 0.0121082
0.350249 0.5 0.7125 0.0116709
0.523432 0.5 -0.6 0.00807691
0.523432 0.5 0.6 0.00793088
0.797732 0.5 2.68882e-17 0.00385227
0.756813 0.5 -0.2625 0.00432345
0.756814 0.5 0.2625 0.00428406
0.797732 0.5 0.0736268 0.00386213
0.797732 0.5 -0.075 0.00387092
0.288069 0.5 -0.75 0.0138939
0.288069 0.5 0.75 0.0130095
0.574156 0.5 -0.5625 0.00705317
0.574157 0.5 0.5625 0.00693384
0.715434 0.5 -0.375 0.00490755
0.715434 0.5 0.375 0.00485318
0.797732 0.5 -0.15 0.00391393
0.797732 0.5 0.15 0.00389316
0.624316 0.5 -0.525 0.00630628
0.624316 0.5 0.525 0.00619763
0.219992 0.5 -0.7875 0.0155963
0.219992 0.5 0.7875 0.0142744
0 0.5 -0.818821 0.0127623
0 0.5 0.818821 0.0114381
0.0124865 0.5 0.818821 0.0122268
0.0124865 0.5 -0.818821 0.0136413
0 0.5 -0.825 0.0127478
0 0.5 0.825 0.0114333
0.756813 0.5 0.3375 0.00438134
0.756814 0.5 -0.3375 0.00443043
0.67013 0.5 -0.4875 0.00559879
0.67013 0.5 0.4875 0.00549973
0.797732 0.5 -0.225 0.00398449
0.797732 0.5 0.225 0.00395116
0 0.5 -0.831179 0.0127309
0 0.5 0.831179 0.0114282
0.0124865 0.5 -0.831179 0.013598
0.0124865 0.5 0.831179 0.0122138
0.835106 0.5 0.0375 0.00357256
0.835106 0.5 -0.0375 0.00357994
0.151149 0.5 -0.825 0.016744
0.151149 0.5 0.825 0.0151649
0.835106 0.5 0.1125 0.00359175
0.835106 0.5 -0.1125 0.00360861
0.715434 0.5 -0.45 0.00507167
0.715434 0.5 0.45 0.00498646
0.797732 0.5 -0.3 0.00407587
0.797732 0.5 0.3 0.00403145
0.467897 0.5 0.7125 0.00919957
0.467897 0.5 -0.7125 0.00945239
0.523432 0.5 -0.675 0.00836606
0.523432 0.5 0.675 0.00815718
0.411736 0.5 -0.75 0.0108806
0.411736 0.5 0.75 0.0104888
0.835106 0.5 -0.1875 0.00366196
0.835106 0.5 0.1875 0.00363472
0.574156 0.5 -0.6375 0.00732735
0.574157 0.5 0.6375 0.00715653
0.350249 0.5 -0.7875 0.0123327
0.350249 0.5 0.7875 0.0117874
0.756813 0.5 -0.4125 0.00457271
0.756814 0.5 0.4125 0.0045079
0.075776 0.5 -0.8625 0.0178938
0.075776 0.5 0.8625 0.0161417
0.624316 0.5 0.6 0.00640168
0.624316 0.5 -0.6 0.00655437
0.872064 0.5 5.91974e-17 0.00335147
0.870122 0.5 0.075 0.00337057
0.288069 0.5 -0.825 0.0139512
0.288069 0.5 0.825 0.0129931
0.67013 0.5 -0.5625 0.00582148
0.67013 0.5 0.5625 0.00568535
0.872064 0.5 -0.075 0.00336888
0.835106 0.5 -0.2625 0.00374316
0.835106 0.5 0.2625 0.00370028
0.797732 0.5 -0.375 0.00419338
0.797732 0.5 0.375 0.00413688
0.872064 0.5 0.14794 0.00338477
0.872064 0.5 -0.15 0.00340731
0.715434 0.5 -0.525 0.00526801
0.715434 0.5 0.525 0.00514629
0.219992 0.5 0.8625 0.0141408
0.219993 0.5 -0.8625 0.0154931
0 0.5 -0.893821 0.0126027
0 0.5 0.893821 0.0113899
0.0124865 0.5 -0.893821 0.0134699
0.0124865 0.5 0.893821 0.0121754
0 0.5 -0.9 0.0125955
0 0.5 0.9 0.0113847
0.756813 0.5 -0.4875 0.00474452
0.756813 0.5 0.4875 0.00463738
0.872064 0.5 -0.225 0.00347053
0.872064 0.5 0.225 0.00343531
0.835106 0.5 -0.3375 0.00383157
0.835106 0.5 0.3375 0.00378533
0 0.5 0.906179 0.0113832
0 0.5 -0.906179 0.0125859
0.0124865 0.5 -0.906179 0.0134496
0.0124865 0.5 0.906179 0.0121632
0.90582 0.5 -0.0375 0.0031393
0.90582 0.5 0.0375 0.00313094
0.151149 0.5 -0.9 0.0166089
0.151149 0.5 0.9 0.015079
0.90582 0.5 -0.1125 0.00316458
0.905821 0.5 0.1125 0.00314651
0.523432 0.5 -0.75 0.00868976
0.523432 0.5 0.75 0.00840399
0.574156 0.5 -0.7125 0.00763774
0.574156 0.5 0.7125 0.00740255
0.797732 0.5 -0.45 0.00434381
0.797732 0.5 0.45 0.00425807
0.467897 0.5 0.7875 0.00944408
0.467897 0.5 -0.7875 0.00978748
0.624316 0.5 -0.675 0.00683854
0.624316 0.5 0.675 0.00663022
0.411736 0.5 -0.825 0.0111763
0.411736 0.5 0.825 0.0106801
0.872064 0.5 0.3 0.0035061
0.872064 0.5 -0.3 0.00355338
0.67013 0.5 -0.6375 0.00607993
0.67013 0.5 0.6375 0.0058963
0.90582 0.5 0.1875 0.00318324
0.905821 0.5 -0.1875 0.00321119
0.350249 0.5 -0.8625 0.0125835
0.350249 0.5 0.8625 0.0119228
0.835106 0.5 -0.4125 0.00396453
0.835106 0.5 0.4125 0.00389869
0.715434 0.5 -0.6 0.0054984
0.715434 0.5 0.6 0.00533509
0.939201 0.5 2.75387e-17 0.00302207
0.075776 0.5 0.9375 0.0160994
0.075776 0.5 -0.9375 0.0177537
0.939111 0.5 0.075 0.00302751
0.939201 0.5 -0.075 0.00303834
0.756813 0.5 0.5625 0.00480404
0.756814 0.5 -0.5625 0.00494815
0.90582 0.5 0.2625 0.00324041
0.905821 0.5 -0.2625 0.0032832
0.288069 0.5 -0.9 0.0140532
0.288069 0.5 0.9 0.0130195
0.872064 0.5 -0.375 0.00365901
0.872064 0.5 0.375 0.00359874
0.939201 0.5 0.148627 0.00305396
0.939201 0.5 -0.15 0.00307202
0.797732 0.5 -0.525 0.00452226
0.797732 0.5 0.525 0.00439871
0.219992 0.5 0.9375 0.0140722
0.219992 0.5 -0.9375 0.0154552
0.939201 0.5 -0.225 0.00312844
0.939201 0.5 0.225 0.00309955
0.905821 0.5 -0.3375 0.00337309
0.90582 0.5 0.3375 0.00331615
0.835106 0.5 -0.4875 0.00411976
0.835106 0.5 0.4875 0.00401464
0 0.5 0.968821 0.0113684
0 0.5 -0.968821 0.0125234
0.0124865 0.5 -0.968821 0.013387
0.0124865 0.5 0.968821 0.0121484
0.969689 0.5 -0.0375 0.00291653
0.969689 0.5 0.0375 0.00290889
0.574156 0.5 -0.7875 0.00798379
0.574156 0.5 0.7875 0.00767082
0 0.5 -0.975 0.0125191
0 0.5 0.975 0.0113643
0.624316 0.5 -0.75 0.00715859
0.624316 0.5 0.75 0.00688218
0.969689 0.5 -0.1125 0.00294037
0.96969 0.5 0.1125 0.00292556
0.523432 0.5 -0.825 0.00904688
0.523432 0.5 0.825 0.00867021
0.67013 0.5 0.7125 0.0061314
0.67013 0.5 -0.7125 0.0063744
0 0.5 -0.981179 0.0125171
0 0.5 0.981179 0.0113619
0.467897 0.5 0.8625 0.00970513
0.467897 0.5 -0.8625 0.0101532
0.0124865 0.5 -0.981179 0.0133816
0.0124865 0.5 0.981179 0.0121314
0.872064 0.5 -0.45 0.00379264
0.872064 0.5 0.45 0.00371036
0.715434 0.5 -0.675 0.00576381
0.715434 0.5 0.675 0.00554872
0.939201 0.5 -0.3 0.00320756
0.939201 0.5 0.3 0.00316554
0.151149 0.5 0.975 0.015031
0.151149 0.5 -0.975 0.0165625
0.969689 0.5 -0.1875 0.00297954
0.969689 0.5 0.1875 0.00296272
0.756813 0.5 -0.6375 0.00518589
0.756813 0.5 0.6375 0.00499685
0.411736 0.5 -0.9 0.0115004
0.411736 0.5 0.9 0.0108897
0.90582 0.5 -0.4125 0.00348472
0.90582 0.5 0.4125 0.00341304
0.995005 0.5 0.0749309 0.00278335
0.797732 0.5 -0.6 0.00473299
0.797732 0.5 0.6 0.00456965
1.00005 0.5 -8.47123e-18 0.0027483
0.350249 0.5 -0.9375 0.0128604
0.350249 0.5 0.9375 0.0120791
1.00005 0.5 -0.0749309 0.00276335
0.969689 0.5 -0.2625 0.00304761
0.969689 0.5 0.2625 0.00301917
0.835106 0.5 -0.5625 0.0043037
0.835106 0.5 0.5625 0.00416573
1.00005 0.5 -0.149862 0.00279343
0.939201 0.5 -0.375 0.00330891
0.939201 0.5 0.375 0.00324992
1.00029 0.5 0.148988 0.00278286
0.075776 0.5 -1.0125 0.0177213
0.075776 0.5 1.0125 0.0160354
0.288069 0.5 0.975 0.0130831
0.288069 0.5 -0.975 0.0141995
0.872064 0.5 -0.525 0.00395259
0.872064 0.5 0.525 0.00383967
1.00005 0.5 0.224793 0.0028243
1.00005 0.5 -0.224793 0.00284483
0.969689 0.5 0.3375 0.0030938
0.96969 0.5 -0.3375 0.00313421
1.0271 0.5 -0.0368226 0.00257855
1.0271 0.5 0.0368226 0.0025732
0.90582 0.5 0.4875 0.00353354
0.905821 0.5 -0.4875 0.00362024
1.0271 0.5 -0.110468 0.00260045
1.0271 0.5 0.110468 0.0025759
0.67013 0.5 0.7875 0.00639038
0.67013 0.5 -0.7875 0.00670453
0.624316 0.5 0.825 0.00715686
0.624316 0.5 -0.825 0.00751425
0.219993 0.5 -1.0125 0.0154757
0.219993 0.5 1.0125 0.0140526
0.574156 0.5 -0.8625 0.00836468
0.574156 0.5 0.8625 0.00796038
0.715434 0.5 -0.75 0.00606535
0.715434 0.5 0.75 0.00578653
0.756813 0.5 0.7125 0.00521342
0.756814 0.5 -0.7125 0.00545785
0.523432 0.5 -0.9 0.00943686
0.523432 0.5 0.9 0.0089551
0.939201 0.5 -0.45 0.00344148
0.939201 0.5 0.45 0.00335515
1.04168 0.5 0 0.00249657
1.0271 0.5 -0.184113 0.00263472
1.0271 0.5 0.184113 0.00262087
0 0.5 -1.04382 0.0124902
0 0.5 1.04382 0.0113913
0.0124865 0.5 -1.04382 0.0133547
0.0124865 0.5 1.04382 0.0121608
1.00005 0.5 -0.299723 0.00292043
1.00005 0.5 0.299723 0.00288802
1.04168 0.5 -0.0729162 0.00250977
1.04168 0.5 0.0729162 0.00250019
0.797732 0.5 -0.675 0.00497967
0.797732 0.5 0.675 0.0047642
0.467897 0.5 0.9375 0.00998335
0.467897 0.5 -0.9375 0.0105491
0 0.5 -1.05 0.0124821
0 0.5 1.05 0.0114002
0.835106 0.5 -0.6375 0.00452212
0.835106 0.5 0.6375 0.00433964
1.04168 0.5 -0.145832 0.00253509
1.04168 0.5 0.145832 0.00252146
0.969689 0.5 -0.4125 0.00325145
0.96969 0.5 0.4125 0.0031842
0 0.5 -1.05618 0.0124785
0 0.5 1.05618 0.0114091
0.0124865 0.5 -1.05618 0.0133334
0.0124865 0.5 1.05618 0.0121846
1.05695 0.5 -0.0360764 0.00241962
1.05695 0.5 0.0360764 0.00241421
0.411736 0.5 -0.975 0.011855
0.411736 0.5 0.975 0.0111184
0.872064 0.5 -0.6 0.00414754
0.872064 0.5 0.6 0.00399157
1.0271 0.5 -0.257759 0.00269528
1.0271 0.5 0.257759 0.0026713
0.151149 0.5 -1.05 0.0165657
0.151149 0.5 1.05 0.0150524
1.05695 0.5 0.108229 0.00240881
1.05695 0.5 -0.108229 0.00243891
1.04168 0.5 -0.218749 0.00257799
1.04168 0.5 0.218749 0.00255901
0.90582 0.5 -0.5625 0.00378606
0.905821 0.5 0.5625 0.00366355
1.00005 0.5 -0.374654 0.00302038
1.00005 0.5 0.374654 0.00296895
0.350249 0.5 1.0125 0.0122517
0.350249 0.5 -1.0125 0.0131664
1.05695 0.5 -0.180382 0.00246608
1.05695 0.5 0.180382 0.00245133
1.07319 0.5 0.0709442 0.00235156
0.939201 0.5 -0.525 0.00359931
0.939201 0.5 0.525 0.00347717
1.0271 0.5 -0.331404 0.00277661
1.0271 0.5 0.331404 0.00273946
1.08112 0.5 3.23815e-17 0.00232054
1.04168 0.5 -0.291665 0.00264313
1.04168 0.5 0.291665 0.00261269
1.08112 0.5 -0.0709442 0.00233169
0.969689 0.5 -0.4875 0.00341671
0.96969 0.5 0.4875 0.00329757
1.05695 0.5 0.252535 0.00249165
1.05695 0.5 -0.252535 0.00251699
0.288069 0.5 -1.05 0.0143936
0.288069 0.5 1.05 0.0131864
0.075776 0.5 -1.0875 0.0176616
0.075776 0.5 1.0875 0.0161459
1.08112 0.5 -0.141888 0.00235225
1.08145 0.5 0.140165 0.00234438
0.715434 0.5 0.825 0.00604904
0.715434 0.5 -0.825 0.00640445
0.756813 0.5 0.7875 0.00545484
0.756814 0.5 -0.7875 0.00576845
0.67013 0.5 -0.8625 0.00707089
0.67013 0.5 0.8625 0.0066727
0.797732 0.5 -0.75 0.00526281
0.797732 0.5 0.75 0.004983
0.624316 0.5 -0.9 0.00790594
0.624316 0.5 0.9 0.00745326
1.00005 0.5 -0.449585 0.00315576
1.00005 0.5 0.449585 0.00306949
0.835106 0.5 -0.7125 0.00478139
0.835106 0.5 0.7125 0.00453539
0.574156 0.5 -0.9375 0.00878103
0.574157 0.5 0.9375 0.0082694
1.10076 0.5 -0.0349809 0.00225272
1.10076 0.5 0.0349809 0.00224749
1.08112 0.5 -0.212832 0.00238816
1.08112 0.5 0.212832 0.0023723
0.872064 0.5 -0.675 0.00437734
0.872064 0.5 0.675 0.00416635
1.04168 0.5 -0.364581 0.00272942
1.04168 0.5 0.364581 0.00268219
1.0271 0.5 0.405049 0.00282402
1.0271 0.5 -0.405049 0.0028842
1.05695 0.5 -0.324688 0.00258491
1.05695 0.5 0.324688 0.00254743
1.10076 0.5 -0.104943 0.00226766
1.10076 0.5 0.104943 0.00225816
0.523432 0.5 0.975 0.00925974
0.523432 0.5 -0.975 0.00986141
0.90582 0.5 0.6375 0.00381695
0.905821 0.5 -0.6375 0.00399814
0.219992 0.5 1.0875 0.0141107
0.219992 0.5 -1.0875 0.0155526
1.11376 0.5 3.81639e-17 0.00220668
0.939201 0.5 0.6 0.00363061
0.939201 0.5 -0.6 0.00376631
1.10076 0.5 -0.174905 0.00229039
1.10076 0.5 0.174905 0.00228307
0.467897 0.5 -1.0125 0.0109811
0.467897 0.5 1.0125 0.0102833
1.11376 0.5 -0.0693118 0.00221634
1.11376 0.5 0.0693118 0.00220936
1.08112 0.5 0.283777 0.00241774
1.08112 0.5 -0.283777 0.00244339
0 0.5 -1.11882 0.0124686
0 0.5 1.11882 0.0115059
0.0124865 0.5 -1.11882 0.0133234
0.0124865 0.5 1.11882 0.0122814
0.969689 0.5 -0.5625 0.0035809
0.969689 0.5 0.5625 0.00342197
1.11376 0.5 0.138624 0.00222909
1.11376 0.5 -0.138624 0.00223406
0 0.5 -1.125 0.0124696
0 0.5 1.125 0.0115165
1.10076 0.5 0.244866 0.00232056
1.10076 0.5 -0.244866 0.00233633
0.411736 0.5 -1.05 0.01225
0.411736 0.5 1.05 0.0113664
1.05695 0.5 -0.396841 0.00267513
1.05695 0.5 0.396841 0.00261729
1.00005 0.5 -0.524516 0.00330319
1.00005 0.5 0.524516 0.00318966
1.04168 0.5 -0.437497 0.0028435
1.04168 0.5 0.437497 0.00276924
0 0.5 -1.13118 0.0124709
0 0.5 1.13118 0.011528
0.0124865 0.5 -1.13118 0.0133241
0.0124865 0.5 1.13118 0.0123095
1.11376 0.5 -0.207935 0.00226737
1.11376 0.5 0.207935 0.00225778
1.0271 0.5 -0.478694 0.00302119
1.0271 0.5 0.478694 0.00293014
0.151149 0.5 -1.125 0.0166103
0.151149 0.5 1.125 0.0151771
1.08112 0.5 -0.354722 0.00251628
1.08112 0.5 0.354722 0.00247733
1.13882 0.5 -0.0340295 0.00212311
1.13882 0.5 0.0340295 0.00211795
0.350249 0.5 -1.0875 0.013521
0.350249 0.5 1.0875 0.012443
1.13882 0.5 -0.102088 0.00213522
1.13882 0.5 0.102088 0.00212428
1.10076 0.5 -0.314829 0.00239653
1.10076 0.5 0.314829 0.00237273
0.756813 0.5 -0.8625 0.0061186
0.756814 0.5 0.8625 0.00572291
0.797732 0.5 -0.825 0.00558324
0.797732 0.5 0.825 0.00522814
1.11376 0.5 -0.277247 0.00231919
1.11376 0.5 0.277247 0.00230182
0.835106 0.5 0.7875 0.00475771
0.835106 0.5 -0.7875 0.00507278
0.715434 0.5 -0.9 0.00677936
0.715434 0.5 0.9 0.00633515
0.872064 0.5 -0.75 0.00464197
0.872064 0.5 0.75 0.00436647
1.13882 0.5 0.170147 0.00215246
1.13882 0.5 -0.170147 0.00215504
0.67013 0.5 -0.9375 0.00747476
0.67013 0.5 0.9375 0.00697767
0.905821 0.5 -0.7125 0.00422823
0.905821 0.5 0.7125 0.00399374
1.05695 0.5 0.468994 0.00270576
1.05695 0.5 -0.468994 0.00279217
0.939201 0.5 -0.675 0.00396246
0.939201 0.5 0.675 0.00380163
0.624316 0.5 0.975 0.00777076
0.624316 0.5 -0.975 0.00833646
1.04168 0.5 -0.510414 0.00296029
1.04168 0.5 0.510414 0.0028769
0.969689 0.5 -0.6375 0.0037083
0.96969 0.5 0.6375 0.00362708
0.288069 0.5 -1.125 0.0146395
0.288069 0.5 1.125 0.0133189
1.16179 0.5 5.78241e-19 0.00203724
1.08112 0.5 0.425666 0.00255205
1.08112 0.5 -0.425666 0.00261247
1.13882 0.5 -0.238206 0.00219784
1.13882 0.5 0.238206 0.00218799
1.16179 0.5 0.0669104 0.00202756
1.16179 0.5 -0.0669104 0.00204531
0.574156 0.5 -1.0125 0.00923378
0.574156 0.5 1.0125 0.0085991
0.075776 0.5 -1.1625 0.0176485
0.075776 0.5 1.1625 0.0163349
1.00005 0.5 -0.599447 0.00345294
1.00005 0.5 0.599447 0.0033483
1.10076 0.5 0.384791 0.00243815
1.10076 0.5 -0.384791 0.00247552
1.0271 0.5 -0.55234 0.00314419
1.0271 0.5 0.55234 0.00305808
1.11376 0.5 -0.346559 0.00238673
1.11376 0.5 0.346559 0.00235961
1.16179 0.5 -0.133821 0.00205856
1.16179 0.5 0.133821 0.00205447
0.523432 0.5 -1.05 0.0103278
0.523432 0.5 1.05 0.00958564
1.17463 0.5 -0.0331343 0.00199579
1.17463 0.5 0.0331343 0.00199003
1.17463 0.5 -0.0994029 0.00200534
1.17463 0.5 0.0994029 0.00200025
1.16179 0.5 -0.200731 0.00208694
1.16179 0.5 0.200731 0.00208371
1.13882 0.5 -0.306265 0.00225332
1.13882 0.5 0.306265 0.00223716
0.219992 0.5 -1.1625 0.0157149
0.219992 0.5 1.1625 0.0142555
0.467897 0.5 -1.0875 0.0114609
0.467897 0.5 1.0875 0.0106035
1.17463 0.5 0.165672 0.00202201
1.17463 0.5 -0.165672 0.00201985
1.05695 0.5 -0.541147 0.00288581
1.05695 0.5 0.541147 0.00281488
1.18772 0.5 -5.78241e-19 0.00194896
1.11376 0.5 -0.41587 0.00247469
1.11376 0.5 0.41587 0.0024314
1.18772 0.5 -0.065614 0.00195613
1.18772 0.5 0.065614 0.00195182
1.08112 0.5 -0.49661 0.00271041
1.08112 0.5 0.49661 0.0026449
1.10076 0.5 -0.454752 0.00257973
1.10076 0.5 0.454752 0.0025192
1.18534 0.5 0.118202 0.00196664
1.16179 0.5 -0.267642 0.00213274
1.16179 0.5 0.267642 0.00212308
0 0.5 -1.19382 0.0125265
0 0.5 1.19382 0.0116676
0.0124865 0.5 1.19382 0.0124491
0.0124865 0.5 -1.19382 0.0133798
1.04168 0.5 -0.58333 0.00309484
1.04168 0.5 0.58333 0.00301098
1.18772 0.5 -0.131228 0.00196699
1.17463 0.5 -0.23194 0.00205877
1.17463 0.5 0.23194 0.00205374
0.411736 0.5 -1.125 0.0126801
0.411736 0.5 1.125 0.0115966
1.13882 0.5 -0.374324 0.00232513
1.13882 0.5 0.374324 0.00229914
0 0.5 -1.2 0.0125375
0 0.5 1.2 0.0116826
0.905821 0.5 0.7875 0.0042
0.905821 0.5 -0.7875 0.00450676
0.872064 0.5 -0.825 0.00494468
0.872064 0.5 0.825 0.00459943
0.835106 0.5 0.8625 0.00500724
0.835106 0.5 -0.8625 0.00540318
0.939201 0.5 -0.75 0.00420344
0.939201 0.5 0.75 0.00397035
0.797732 0.5 -0.9 0.00594054
0.797732 0.5 0.9 0.00549863
1.0271 0.5 0.625985 0.00321867
1.0271 0.5 -0.625985 0.00331625
0.969689 0.5 0.7125 0.00377546
0.96969 0.5 -0.7125 0.003925
1.18772 0.5 -0.196842 0.00199203
1.18772 0.5 0.196842 0.00199233
0.756814 0.5 -0.9375 0.00649879
0.756814 0.5 0.9375 0.00601269
0 0.5 1.20618 0.0116981
0 0.5 -1.20618 0.0125479
1.00005 0.5 -0.674378 0.00364084
1.00005 0.5 0.674378 0.00351045
0.0124865 0.5 1.20618 0.0124893
0.0124865 0.5 -1.20618 0.0134111
1.16179 0.5 -0.334552 0.00219142
1.16179 0.5 0.334552 0.00217505
0.715434 0.5 0.975 0.00664369
0.715434 0.5 -0.975 0.00720039
0.151149 0.5 -1.2 0.0167628
0.151149 0.5 1.2 0.0153833
1.20942 0.5 0.0322645 0.00186998
1.20942 0.5 -0.0322645 0.00187666
1.17463 0.5 -0.298209 0.00210769
1.17463 0.5 0.298209 0.00209777
1.20942 0.5 -0.0967935 0.00188389
1.20942 0.5 0.0967935 0.00188096
0.350249 0.5 -1.1625 0.0138945
0.350249 0.5 1.1625 0.0125745
0.67013 0.5 1.0125 0.00730421
0.67013 0.5 -1.0125 0.00792421
1.11376 0.5 0.485183 0.00251961
1.11376 0.5 -0.485183 0.00256674
1.18772 0.5 0.262456 0.00202862
1.18772 0.5 -0.262456 0.00203379
1.10076 0.5 -0.524714 0.00266559
1.10076 0.5 0.524714 0.00261866
1.20942 0.5 -0.161322 0.00189471
1.20942 0.5 0.161322 0.00190053
1.08112 0.5 -0.567554 0.0028233
1.08112 0.5 0.567554 0.0027583
0.624316 0.5 -1.05 0.00881489
0.624316 0.5 1.05 0.00811047
1.13882 0.5 -0.442383 0.00241444
1.13882 0.5 0.442383 0.00237495
1.05695 0.5 0.6133 0.0029504
1.05695 0.5 -0.6133 0.00304067
1.16179 0.5 -0.401463 0.00226553
1.16179 0.5 0.401463 0.00223959
0.574156 0.5 -1.0875 0.00973352
0.574156 0.5 1.0875 0.00895106
1.17463 0.5 0.364477 0.00215394
1.17463 0.5 -0.364477 0.00217098
1.20942 0.5 -0.225851 0.00192845
1.20942 0.5 0.225851 0.00192888
1.23036 0.5 -1.32995e-17 0.00180555
1.2294 0.5 0.0634819 0.00181066
1.04168 0.5 -0.656246 0.0032776
1.04168 0.5 0.656246 0.00314949
1.23036 0.5 -0.0634819 0.0018112
1.18772 0.5 0.32807 0.00207671
1.18772 0.5 -0.32807 0.00208714
0.288069 0.5 -1.2 0.014932
0.288069 0.5 1.2 0.013517
1.23036 0.5 -0.126964 0.00181857
1.23036 0.5 0.126964 0.00182168
0.075776 0.5 -1.2375 0.0178409
0.075776 0.5 1.2375 0.016582
0.523432 0.5 -1.125 0.0108349
0.523432 0.5 1.125 0.00990654
1.0271 0.5 -0.69963 0.00353
1.0271 0.5 0.69963 0.00335441
1.24274 0.5 0.0314313 0.00176412
1.24274 0.5 -0.0314313 0.00176947
1.20942 0.5 0.29038 0.00196793
1.20942 0.5 -0.29038 0.00197104
1.11376 0.5 -0.554494 0.00267092
1.11376 0.5 0.554494 0.00262399
1.23036 0.5 -0.190445 0.00183879
1.23036 0.5 0.190445 0.00184435
1.24274 0.5 -0.0942942 0.00177463
1.24274 0.5 0.0942942 0.00177387
1.13882 0.5 0.510442 0.00246708
1.13882 0.5 -0.510442 0.00249709
0.969689 0.5 -0.7875 0.00416446
0.969689 0.5 0.7875 0.00392043
1.00005 0.5 -0.749309 0.00387484
1.00005 0.5 0.749309 0.00366418
0.939201 0.5 -0.825 0.00447634
0.939201 0.5 0.825 0.00416887
0.90582 0.5 0.8625 0.00445391
0.90582 0.5 -0.8625 0.00481786
1.17463 0.5 -0.430746 0.00224858
1.17463 0.5 0.430746 0.00222246
1.10076 0.5 -0.594676 0.00279425
1.10076 0.5 0.594676 0.00273574
1.18772 0.5 -0.393684 0.00215428
1.18772 0.5 0.393684 0.00213675
1.24274 0.5 -0.157157 0.00178241
1.24274 0.5 0.157157 0.00179203
1.16179 0.5 -0.468373 0.0023464
1.16179 0.5 0.468373 0.00231851
0.467897 0.5 -1.1625 0.0119657
0.467897 0.5 1.1625 0.0108729
0.872064 0.5 -0.9 0.00528614
0.872064 0.5 0.9 0.00486316
1.25401 0.5 2.08167e-17 0.00173544
0.835106 0.5 0.9375 0.00528252
0.835106 0.5 -0.9375 0.00577229
1.25401 0.5 -0.0622994 0.00174041
1.25401 0.5 0.0622994 0.0017373
1.08112 0.5 -0.638498 0.00298117
1.08112 0.5 0.638498 0.00288432
1.23036 0.5 -0.253927 0.0018741
1.23036 0.5 0.253927 0.00187591
0.219992 0.5 1.2375 0.0145007
0.219992 0.5 -1.2375 0.0159751
1.25309 0.5 0.121964 0.00175117
1.05695 0.5 0.685452 0.00306976
1.05695 0.5 -0.685452 0.00322975
0.797732 0.5 0.975 0.00579239
0.797732 0.5 -0.975 0.00634195
1.25401 0.5 -0.124599 0.00174624
1.20942 0.5 -0.354909 0.00202617
1.20942 0.5 0.354909 0.00201843
1.24274 0.5 -0.220019 0.00181212
1.24274 0.5 0.220019 0.00181804
0.756814 0.5 -1.0125 0.00694987
0.756813 0.5 1.0125 0.00632624
1.25401 0.5 -0.186898 0.00176405
1.25401 0.5 0.186898 0.00177257
0.411736 0.5 -1.2 0.0131158
0.411736 0.5 1.2 0.0118411
0 0.5 -1.26882 0.0126626
0 0.5 1.26882 0.0118815
0.0124865 0.5 1.26882 0.0126728
0.0124865 0.5 -1.26882 0.0135259
0.715434 0.5 -1.05 0.0076722
0.715434 0.5 1.05 0.00697648
1.23036 0.5 -0.31741 0.00191917
1.23036 0.5 0.31741 0.00191774
1.04168 0.5 -0.729162 0.00349577
1.04168 0.5 0.729162 0.00329267
1.18772 0.5 -0.459298 0.00223079
1.18772 0.5 0.459298 0.00221038
1.24274 0.5 -0.282882 0.0018496
1.24274 0.5 0.282882 0.00185315
0 0.5 -1.275 0.0126737
0 0.5 1.275 0.0119017
1.27472 0.5 -0.0306319 0.00167002
1.27472 0.5 0.0306319 0.00166546
1.17463 0.5 0.497015 0.00230652
1.17463 0.5 -0.497015 0.00232622
1.11376 0.5 -0.623806 0.00281202
1.11376 0.5 0.623806 0.00274831
1.13882 0.5 -0.578501 0.00261322
1.13882 0.5 0.578501 0.00257024
0.67013 0.5 -1.0875 0.00843577
0.67013 0.5 1.0875 0.00765496
1.27472 0.5 -0.0918959 0.00167365
1.27472 0.5 0.0918959 0.00168706
1.25401 0.5 -0.249197 0.00179629
1.25401 0.5 0.249197 0.0018022
1.16179 0.5 -0.535284 0.00243874
1.16179 0.5 0.535284 0.00240952
1.20942 0.5 -0.419438 0.00209371
1.20942 0.5 0.419438 0.00208036
0 0.5 -1.28118 0.0126857
0 0.5 1.28118 0.0119225
0.0124865 0.5 1.28118 0.0127283
0.0124865 0.5 -1.28118 0.0135575
1.27472 0.5 0.15316 0.00169135
1.27472 0.5 -0.15316 0.00167981
0.151149 0.5 -1.275 0.0170094