# pMean  POINT_DATA 91129
# x  y  z  pMean
0 0 0 0.224924
0 0.00368111 0 0.224608
0 0.00749587 0 0.223925
0 0.0114491 0 0.223253
0 0.0155459 0 0.222647
0 0.0197915 0 0.222004
0 0.0241911 0 0.221275
0 0.0287506 0 0.220472
0 0.0334755 0 0.219619
0 0.038372 0 0.218738
0 0.0434463 0 0.217837
0 0.0487048 0 0.216923
0 0.0541543 0 0.216009
0 0.0598016 0 0.215125
0 0.0656539 0 0.214308
0 0.0717187 0 0.21355
0.075776 0.00184055 0 0.224924
0.075776 0.00558849 0 0.224293
0.075776 0.00947248 -3.46945e-18 0.223558
0.075776 0.0134975 -3.46945e-18 0.222949
0.075776 0.0176687 3.46945e-18 0.222346
0 0.0780037 0 0.212801
0.075776 0.0219913 3.46945e-18 0.221662
0.075776 0.0264709 3.46945e-18 0.220889
0.075776 0.031113 -3.46945e-18 0.220054
0.075776 0.0359237 -3.46945e-18 0.219185
0 0.0845169 0 0.212037
0.075776 0.0409092 0 0.218291
0.075776 0.0460755 -3.46945e-18 0.217382
0 0.0912666 0 0.211259
0.075776 0.0514296 -3.46945e-18 0.216464
0.075776 0.0569779 0 0.215553
0 0.0982613 0 0.210469
0.075776 0.0627278 0 0.214696
0.075776 0.0686863 0 0.213921
0 0.10551 0 0.209667
0.075776 0.0748612 3.46945e-18 0.213179
0.075776 0.0812603 -3.46945e-18 0.212423
0 0.113022 0 0.208853
0.075776 0.0878918 3.46945e-18 0.211651
0 0.120806 0 0.208024
0.075776 0.0947639 3.46945e-18 0.210867
0.075776 0.101886 -3.46945e-18 0.210071
0 0.128874 0 0.207177
0.075776 0.109266 3.46945e-18 0.209263
0 0.137234 0 0.206313
0.075776 0.116914 3.46945e-18 0.208442
0 0.145897 0 0.205449
0.075776 0.12484 0 0.207606
0.151552 0 0 0.208141
0.151552 0.00368111 0 0.208019
0.151552 0.00749587 0 0.207787
0.151552 0.0114491 0 0.207605
0.151552 0.0155459 0 0.207456
0.151552 0.0197915 0 0.207283
0.075776 0.133054 0 0.206749
0.151552 0.0241911 0 0.207063
0.151552 0.0287506 0 0.206801
0 0.154876 0 0.204621
0.151552 0.0334755 0 0.206509
0.151552 0.038372 0 0.206197
0.151552 0.0434463 0 0.205871
0.151552 0.0487048 0 0.205534
0.075776 0.141566 0 0.205877
0.151552 0.0541543 0 0.20519
0.151552 0.0598016 0 0.204854
0 0.16418 0 0.203856
0.151552 0.0656539 0 0.204543
0.151552 0.0717187 0 0.204252
0.075776 0.150387 0 0.205021
0.151552 0.0780037 0 0.203957
0.151552 0.0845169 0 0.203645
0 0.173822 0 0.203156
0.075776 0.159528 0 0.204221
0.151552 0.0912666 0 0.203317
0.151552 0.0982613 0 0.202974
0 0.183814 0 0.20251
0.151552 0.10551 0 0.202617
0.075776 0.169001 3.46945e-18 0.203491
0.151552 0.113022 0 0.202247
0.151552 0.120806 0 0.201861
0 0.194169 0 0.201895
0.075776 0.178818 3.46945e-18 0.202822
0.151552 0.128874 0 0.201457
0.075776 0.188992 3.46945e-18 0.202198
0.151552 0.137234 0 0.201033
0 0.2049 0 0.201287
0.151552 0.145897 0 0.200596
0.075776 0.199535 0 0.201593
0 0.21602 0 0.200662
0.151552 0.154876 0 0.200165
0.219992 0.00184055 0 0.192649
0.219992 0.00558849 0 0.192762
0.219992 0.00947248 -3.46945e-18 0.193018
0.219992 0.0134975 3.46945e-18 0.193301
0.219992 0.0176687 0 0.193567
0.219992 0.0219913 0 0.193821
0.219993 0.0264709 -3.46945e-18 0.194066
0.219992 0.031113 -3.46945e-18 0.194297
0.219992 0.0359238 3.46945e-18 0.194516
0.151552 0.16418 0 0.199751
0.075776 0.21046 0 0.200982
0.219992 0.0409092 3.46945e-18 0.194726
0.219992 0.0460755 0 0.194926
0.219993 0.0514296 -3.46945e-18 0.195114
0.219992 0.0569779 0 0.19529
0 0.227544 0 0.199995
0.219992 0.0627277 3.46945e-18 0.195454
0.219992 0.0686863 0 0.195602
0.151552 0.173822 0 0.199358
0.219992 0.0748612 3.46945e-18 0.195735
0.075776 0.221782 0 0.200342
0.219992 0.0812603 3.46945e-18 0.195849
0.219992 0.0878917 -3.46945e-18 0.195946
0.151552 0.183814 0 0.198977
7.47806e-17 0.239487 0 0.199273
0.219992 0.0947639 3.46945e-18 0.196024
0.219993 0.101886 3.46945e-18 0.196086
0.075776 0.233516 0 0.199647
0.219993 0.109266 0 0.196132
0.151552 0.194169 0 0.198599
0.219993 0.116914 0 0.196164
0 0.251863 0 0.19851
0.219993 0.12484 0 0.196179
0.151552 0.2049 0 0.198208
0.075776 0.245675 0 0.198899
0.219992 0.133054 3.46945e-18 0.196173
0.219992 0.141565 0 0.196143
0.151552 0.21602 0 0.197795
0 0.264688 0 0.197725
0.219992 0.150387 3.46945e-18 0.196088
0.075776 0.258275 3.46945e-18 0.198121
0.219992 0.159528 -3.46945e-18 0.196011
0.151552 0.227544 0 0.197345
0.219992 0.169001 3.46945e-18 0.195912
0 0.27798 0 0.196925
0.075776 0.271334 3.46945e-18 0.197328
0.151552 0.239487 3.70071e-18 0.196853
0.219992 0.178818 3.46945e-18 0.195789
0.288433 0 0 0.196647
0.288433 0.00368111 0 0.196687
0.288433 0.00749587 0 0.196812
0.288433 0.0114491 0 0.196991
0.288433 0.0155459 3.70071e-18 0.197179
0.288433 0.0197915 0 0.197365
0.288433 0.0241911 3.70071e-18 0.197548
0.288433 0.0287506 0 0.197726
0.219992 0.188991 0 0.195642
0.288433 0.0334755 0 0.197898
0.288433 0.038372 0 0.198066
0.288433 0.0434463 0 0.198227
7.47806e-17 0.291753 0 0.196107
0.288433 0.0487048 0 0.198382
0.288433 0.0541543 0 0.198528
0.151552 0.251863 0 0.196323
0.288433 0.0598016 3.70071e-18 0.198666
0.075776 0.284866 0 0.19652
0.288433 0.0656539 3.70071e-18 0.198795
0.219992 0.199534 0 0.195467
0.288433 0.0717187 0 0.198916
0.288433 0.0780037 0 0.199028
0.288433 0.0845169 0 0.199129
0.288433 0.0912666 0 0.199215
0.219992 0.21046 -3.46945e-18 0.195264
0.288433 0.0982613 0 0.199279
0.151552 0.264688 3.70071e-18 0.195766
0 0.306027 0 0.195265
0.288433 0.10551 0 0.199322
0.075776 0.29889 3.46945e-18 0.195693
0.288433 0.113022 0 0.199347
0.219993 0.221782 0 0.195031
0.288433 0.120806 0 0.199356
0.288433 0.128874 0 0.199354
0.151552 0.27798 0 0.195188
0.288433 0.137234 0 0.199338
0 0.320819 0 0.194386
0.219992 0.233515 -3.46945e-18 0.194766
0.075776 0.313423 -3.46945e-18 0.194836
0.288433 0.145897 0 0.199302
0.288433 0.154876 0 0.199242
0.151552 0.291753 0 0.19459
0.219993 0.245675 0 0.194469
0.288433 0.16418 0 0.19916
0 0.336148 0 0.193477
0.288433 0.173822 0 0.199055
0.075776 0.328484 -3.46945e-18 0.193936
0.219993 0.258275 -3.46945e-18 0.194138
0.151552 0.306027 0 0.193965
0.288433 0.183814 0 0.198925
0.288433 0.194169 0 0.19877
0.219992 0.271334 3.46945e-18 0.193776
0.350249 0.00184056 -3.46945e-18 0.200351
0.350249 0.00558849 0 0.200401
0.350249 0.00947248 3.46945e-18 0.200489
0.350249 0.0134975 0 0.200593
0.350249 0.0176687 0 0.200706
0.350249 0.0219913 0 0.200825
0.350249 0.0264708 3.46945e-18 0.200948
0.350249 0.031113 0 0.201071
0 0.352034 0 0.192574
0.350249 0.0359238 0 0.201195
0.075776 0.344091 0 0.193018
0.350249 0.0409091 0 0.201318
0.350249 0.0460756 3.46945e-18 0.201438
0.288433 0.2049 0 0.198587
0.350249 0.0514296 0 0.201555
0.151552 0.320819 0 0.193301
0.350249 0.0569779 0 0.201666
0.350249 0.0627277 3.46945e-18 0.201772
0.350249 0.0686863 3.46945e-18 0.201874
0.350249 0.0748612 3.46945e-18 0.201976
0.350249 0.0812603 0 0.202077
0.219992 0.284867 0 0.193393
0.288433 0.21602 0 0.198376
0.350249 0.0878917 0 0.202171
0.350249 0.094764 0 0.202244
0.350249 0.101886 0 0.202289
0.350249 0.109266 0 0.20231
0.288433 0.227544 0 0.198133
0.075776 0.360265 3.46945e-18 0.19213
0 0.368496 0 0.191693
0.151552 0.336148 0 0.192595
0.350249 0.116914 3.46945e-18 0.202312
0.219992 0.29889 0 0.192987
0.370854 0.0241911 1.54074e-33 0.20345
0.350249 0.12484 0 0.202304
0.350249 0.133054 0 0.202294
0.288433 0.239487 -9.25154e-19 0.197859
0.350249 0.141566 3.46945e-18 0.202275
0.350249 0.150387 3.46945e-18 0.202234
0.288433 0.251863 0 0.197551
0.219992 0.313423 0 0.192544
0.151552 0.352034 0 0.191864
0.075776 0.377027 0 0.191254
0.350249 0.159528 0 0.202168
0 0.385557 0 0.19079
0.350249 0.169001 0 0.20208
0.288433 0.264688 0 0.197208
0.350249 0.178818 0 0.201968
0.219992 0.328484 0 0.192052
0.350249 0.188992 0 0.201832
0.151552 0.368496 0 0.191118
0.288433 0.27798 3.70071e-18 0.196834
0.075776 0.394397 0 0.190325
0.350249 0.199535 0 0.201669
7.47806e-17 0.403236 0 0.189824
0.219992 0.344091 0 0.191507
0.350249 0.21046 -3.46945e-18 0.201478
0.288433 0.291753 0 0.196431
0.412065 9.08189e-19 3.08149e-33 0.206043
0.412065 0.00368111 -2.31298e-18 0.206061
0.412065 0.00749587 -2.31298e-18 0.206109
0.412065 0.0114491 -2.31298e-18 0.206175
0.412065 0.0155459 -2.31298e-18 0.206247
0.412065 0.0197915 0 0.206323
0.412065 0.0241911 -3.08149e-33 0.206401
0.412065 0.0264709 0 0.206441
0.412065 0.0287506 -2.31298e-18 0.206481
0.412065 0.0334755 -2.31298e-18 0.206564
0.412065 0.038372 -2.31298e-18 0.206648
0.151552 0.385557 0 0.190338
0.412065 0.0434463 0 0.206734
0.350249 0.221782 0 0.201258
0.412065 0.0487048 0 0.20682
0.412065 0.0541543 -3.08149e-33 0.206905
0.412065 0.0569779 0 0.206947
0.412065 0.0598016 -2.31298e-18 0.206989
0.412065 0.0656539 -2.31298e-18 0.20707
0.412065 0.0717187 -2.31298e-18 0.207148
0.075776 0.412396 -3.46945e-18 0.189323
0.412065 0.0780037 -2.31298e-18 0.207217
0.288433 0.306027 0 0.195993
0.412065 0.0845169 -2.31298e-18 0.207269
0.350249 0.233516 3.46945e-18 0.201006
0 0.421557 0 0.188795
0.412065 0.0912666 -2.31298e-18 0.207297
0.219992 0.360265 3.46945e-18 0.190909
0.412065 0.0982613 0 0.207302
0.412065 0.10551 0 0.207289
0.412065 0.113022 -2.31298e-18 0.20726
0.350249 0.245675 0 0.200721
0.412065 0.120806 0 0.207217
0.151552 0.403236 0 0.189502
0.288433 0.320819 0 0.195515
0.412065 0.128874 -2.31298e-18 0.207163
0.412065 0.137234 0 0.207099
0.350249 0.258275 -3.46945e-18 0.200401
0.219992 0.377026 0 0.190265
0.412065 0.145897 -2.31298e-18 0.207022
0.075776 0.431051 0 0.188265
0.412065 0.154876 -2.31298e-18 0.206927
0 0.440544 0 0.187717
0.288433 0.336148 0 0.194989
0.350249 0.271334 0 0.200044
0.412065 0.16418 -2.31298e-18 0.206813
0.412065 0.173822 -2.31298e-18 0.206678
0.151552 0.421557 0 0.188608
0.412065 0.183814 -2.31298e-18 0.206522
0.350249 0.284867 3.46945e-18 0.19965
0.219992 0.394397 0 0.189574
0.288433 0.352034 3.70071e-18 0.194413
0.412065 0.194169 0 0.206343
0.075776 0.450382 0 0.187168
0.412065 0.2049 -2.31298e-18 0.20614
0 0.46022 0 0.186602
0.350249 0.29889 3.46945e-18 0.19922
0.412065 0.21602 0 0.205909
0.151552 0.440544 0 0.187661
0.219993 0.412396 3.46945e-18 0.188834
0.467897 0.00184056 -3.46945e-18 0.211337
0.467897 0.00558849 0 0.21136
0.288433 0.368496 0 0.193787
0.467897 0.00947248 0 0.211396
0.467897 0.0134975 0 0.211435
0.467897 0.0176687 3.46945e-18 0.211474
0.467897 0.0219913 -3.46945e-18 0.211511
0.467897 0.0264709 3.46945e-18 0.21155
0.467897 0.0311131 3.46945e-18 0.211592
0.467897 0.0359238 -3.46945e-18 0.211639
0.467897 0.038372 0 0.212268
0.467897 0.0409092 3.46945e-18 0.211689
0.350249 0.313423 0 0.198752
0.467897 0.0460755 0 0.211744
0.467897 0.0514296 3.46945e-18 0.211801
0.412065 0.227544 -2.31298e-18 0.20565
0.467897 0.0569779 0 0.211861
0.467897 0.0627277 -3.46945e-18 0.211922
0.467897 0.0686863 3.46945e-18 0.211981
0.467897 0.0748612 0 0.212032
0.467897 0.0812603 0 0.212061
0.467897 0.0878918 3.46945e-18 0.212052
0.075776 0.470415 3.46945e-18 0.186034
0.412065 0.239487 -2.31298e-18 0.20536
0.467897 0.0947639 -3.46945e-18 0.212014
0.467897 0.101886 3.46945e-18 0.211962
0.350249 0.328483 0 0.198242
0.467897 0.109266 0 0.2119
0 0.48061 0 0.185447
0.288433 0.385557 0 0.193111
0.467897 0.116914 0 0.211828
0.412065 0.251863 -2.31298e-18 0.205038
0.219992 0.431051 0 0.188037
0.467897 0.12484 0 0.211741
0.151552 0.46022 0 0.186664
0.467897 0.133054 3.46945e-18 0.211638
0.467897 0.141566 3.46945e-18 0.211522
0.412065 0.264688 -2.31298e-18 0.20468
0.350249 0.344091 -3.46945e-18 0.197687
0.467897 0.150387 3.46945e-18 0.211395
0.467897 0.154876 0 0.212026
0.467897 0.159528 3.46945e-18 0.211254
0.288433 0.403236 0 0.192382
0.075776 0.491175 0 0.184858
0.412065 0.27798 -2.31298e-18 0.204286
0.467897 0.169001 0 0.211097
0.467897 0.178818 3.46945e-18 0.210922
0.219992 0.450382 0 0.18718
6.73026e-17 0.501741 3.70071e-18 0.184247
0.350249 0.360265 0 0.197082
0.151552 0.48061 0 0.185618
0.467897 0.188991 0 0.210726
0.412065 0.291753 0 0.203853
0.467897 0.199535 0 0.21051
0.288433 0.421557 0 0.191598
0.467897 0.21046 0 0.210269
0.412065 0.306027 0 0.203381
0.350249 0.377027 0 0.196425
0.467897 0.221782 3.46945e-18 0.210003
0.075776 0.51269 0 0.183633
0.219993 0.470415 3.46945e-18 0.186264
0.467897 0.227544 0 0.21053
0.412065 0.320819 -2.31298e-18 0.202866
0.467897 0.233515 0 0.209708
6.73026e-17 0.523639 3.70071e-18 0.182997
0.523729 0 0 0.217665
0.523729 0.00368111 0 0.217674
0.523729 0.00749587 -2.31298e-18 0.217698
0.523729 0.0114491 0 0.21773
0.523729 0.0155459 0 0.21776
0.523729 0.0197915 -2.31298e-18 0.217786
0.151552 0.501741 0 0.184518
0.523729 0.0241911 0 0.217808
0.523729 0.0287506 0 0.217831
0.523729 0.0334755 0 0.217857
0.523729 0.038372 -3.08149e-33 0.217887
0.523729 0.0434463 0 0.217919
0.523729 0.0487048 0 0.217954
0.523729 0.0541543 0 0.217992
0.288433 0.440544 0 0.190754
0.523729 0.0598016 0 0.218032
0.350249 0.394397 -3.46945e-18 0.195714
0.523729 0.0656539 0 0.218073
0.467897 0.245675 0 0.209384
0.523729 0.0717187 0 0.218108
0.523729 0.0780037 0 0.218122
0.523729 0.0845169 0 0.218102
0.523729 0.0912666 0 0.218048
0.412065 0.336148 0 0.202306
0.523729 0.0982613 0 0.217975
0.523729 0.10551 -2.31298e-18 0.217892
0.467897 0.258275 -3.46945e-18 0.209026
0.523729 0.113022 0 0.217798
0.523729 0.120806 -3.08149e-33 0.217692
0.219993 0.491176 0 0.18529
0.523729 0.12484 0 0.217632
0.523729 0.128874 -2.31298e-18 0.217572
0.075776 0.534986 0 0.182359
0.467897 0.271334 3.46945e-18 0.208633
0.350249 0.412396 -3.46945e-18 0.194946
0.523729 0.137234 0 0.217437
0.412065 0.352034 -2.31298e-18 0.201697
0.288433 0.46022 0 0.189849
0.523729 0.145897 0 0.217288
0.151552 0.523639 0 0.183359
0.523729 0.154876 -3.08149e-33 0.217125
0 0.546332 0 0.181697
0.523729 0.159528 0 0.217035
0.467897 0.284867 -3.46945e-18 0.208202
0.523729 0.16418 -2.31298e-18 0.216944
0.523729 0.173822 0 0.216745
0.412065 0.368496 0 0.201036
0.523729 0.183814 0 0.216526
0.467897 0.29889 0 0.20773
0.350249 0.431051 -3.46945e-18 0.194118
0.219992 0.51269 0 0.18425
0.523729 0.194169 0 0.216285
0.288433 0.48061 0 0.188879
0.523729 0.2049 0 0.21602
0.467897 0.313423 3.46945e-18 0.207215
0.075776 0.558091 0 0.181032
0.412065 0.385557 0 0.20032
0.523729 0.21602 -3.08149e-33 0.215729
0.151552 0.546332 0 0.182135
0 0.569849 0 0.18034
0.350249 0.450382 3.46945e-18 0.193227
0.523729 0.227544 -3.08149e-33 0.21541
0.467897 0.328483 0 0.206653
0.523729 0.231525 1.54074e-33 0.215294
0.574156 0.00184056 0 0.223577
0.574156 0.00558849 0 0.223592
0.574157 0.00947248 0 0.223617
0.574156 0.0134975 -3.46945e-18 0.223643
0.574156 0.0176687 -3.46945e-18 0.223662
0.574156 0.0219913 0 0.223671
0.574156 0.0264708 -3.46945e-18 0.223677
0.574156 0.031113 0 0.223685
0.574156 0.0359238 -3.46945e-18 0.223695
0.574157 0.0409092 0 0.223708
0.523729 0.239487 3.70071e-18 0.215061
0.574156 0.0460755 -3.46945e-18 0.223722
0.574156 0.0514295 0 0.223738
0.412065 0.403236 0 0.199547
0.574157 0.0569779 0 0.223759
0.574156 0.0627277 0 0.223782
0.574156 0.0686863 0 0.223804
0.219992 0.534986 0 0.183137
0.288433 0.501741 0 0.187843
0.574156 0.0748612 3.46945e-18 0.223814
0.574156 0.0812603 0 0.223787
0.467897 0.344091 0 0.206043
0.574156 0.0878917 3.46945e-18 0.223716
0.523729 0.251863 0 0.21468
0.574157 0.0947639 0 0.223622
0.574156 0.101886 0 0.223519
0.574156 0.109266 0 0.223406
0.574156 0.116914 0 0.223282
0.412065 0.416977 -6.16298e-33 0.198922
0.350249 0.470415 0 0.19227
0.523729 0.264688 0 0.214264
0.075776 0.582034 0 0.179647
0.574156 0.12484 0 0.223146
0.574156 0.133054 3.46945e-18 0.222995
0.412065 0.421557 -2.31298e-18 0.198714
0.151552 0.569849 0 0.180844
0.467897 0.360265 -3.46945e-18 0.205382
0.574157 0.141566 -3.46945e-18 0.222829
0.523729 0.27798 0 0.213811
0.574156 0.150386 3.46945e-18 0.222646
0 0.594219 0 0.178924
0.574156 0.159528 -3.46945e-18 0.222446
0.574156 0.16418 0 0.222931
0.288433 0.523639 1.2326e-32 0.186734
0.574157 0.169001 0 0.222227
0.523729 0.291753 0 0.213319
0.219993 0.558091 3.46945e-18 0.181945
0.467897 0.377026 0 0.204666
0.574156 0.178818 3.46945e-18 0.221987
0.412065 0.440544 -2.31298e-18 0.197817
0.350249 0.491175 0 0.191243
0.574156 0.188992 3.46945e-18 0.221725
0.523729 0.306027 -3.08149e-33 0.212784
0.574157 0.199535 0 0.221439
0.574157 0.21046 0 0.221127
0.075776 0.606847 0 0.178199
0.467897 0.394397 0 0.203892
0.151552 0.594219 0 0.179481
0.523729 0.320819 0 0.212203
0.574157 0.221782 -3.46945e-18 0.220787
0.412065 0.46022 3.08149e-33 0.196854
0.288433 0.546332 0 0.185549
0 0.619475 0 0.177442
0.574156 0.233515 3.46945e-18 0.220418
0.350249 0.51269 3.46945e-18 0.190144
0.219992 0.582034 3.46945e-18 0.180674
0.523729 0.336148 0 0.211575
0.467897 0.412396 0 0.203058
0.574156 0.245675 0 0.220017
0.624584 0 0 0.230672
0.624584 0.00368111 0 0.230679
0.624584 0.00749587 0 0.230698
0.624584 0.0114491 0 0.230724
0.624584 0.0155459 0 0.230745
0.624584 0.0197915 0 0.230755
0.624584 0.0241911 -2.31298e-18 0.230754
0.624584 0.0287506 0 0.23075
0.624584 0.0334755 0 0.230747
0.624584 0.038372 0 0.230745
0.624584 0.0434463 -2.31298e-18 0.230745
0.624584 0.0487048 0 0.230746
0.624584 0.0541543 0 0.230749
0.624584 0.0598016 0 0.230752
0.624584 0.0656539 0 0.230755
0.624584 0.0717187 0 0.230748
0.624584 0.0780037 0 0.23071
0.574157 0.258276 3.46945e-18 0.219582
0.624584 0.0845169 0 0.230631
0.523729 0.352034 0 0.210895
0.624584 0.0912666 0 0.230523
0.624584 0.0982613 0 0.2304
0.412065 0.48061 3.08149e-33 0.195821
0.624584 0.10551 0 0.230267
0.624584 0.113022 -2.31298e-18 0.230121
0.574156 0.271334 0 0.21911
0.624584 0.120806 0 0.229962
0.467897 0.431051 0 0.20216
0.075776 0.632561 -3.46945e-18 0.176683
0.624584 0.128874 0 0.229787
0.151552 0.619475 0 0.178044
0.288433 0.569849 0 0.184283
0.350249 0.534985 0 0.188968
0.624584 0.137234 -2.31298e-18 0.229597
0.523729 0.368496 0 0.210162
0.574156 0.284866 -3.46945e-18 0.2186
0.624584 0.145897 0 0.22939
0.467897 0.440544 0 0.20222
0.624584 0.154876 0 0.229164
0.219992 0.606847 -3.46945e-18 0.17932
0 0.645647 0 0.17589
0.624584 0.16418 -3.08149e-33 0.228919
0.574156 0.29889 -3.46945e-18 0.218048
0.624584 0.173822 0 0.228652
0.412065 0.501741 1.54074e-33 0.194715
0.467897 0.450382 -3.46945e-18 0.201196
0.523729 0.385557 0 0.209371
0.624584 0.183814 0 0.228362
0.624584 0.194169 0 0.228049
0.574156 0.313423 0 0.217452
0.624584 0.2049 0 0.227709
0.350249 0.558091 3.46945e-18 0.187712
0.288433 0.594219 0 0.182933
0.624584 0.21602 0 0.227341
0.523729 0.403236 0 0.20852
0.574156 0.328483 -3.46945e-18 0.216809
0.151552 0.645647 0 0.176527
0.467897 0.470415 3.46945e-18 0.200161
0.075776 0.659208 0 0.175095
0.624584 0.227544 0 0.226943
0.412065 0.523639 0 0.193531
0.523729 0.41545 3.08149e-33 0.20791
0.624584 0.239487 3.70071e-18 0.226513
0.574156 0.344091 0 0.216116
0.219992 0.632561 0 0.177881
0.67013 0.00184055 0 0.237333
0.67013 0.00558849 0 0.237347
0.67013 0.00947248 0 0.23737
0.67013 0.0134975 0 0.237397
0.67013 0.0176687 -3.46945e-18 0.237412
0.67013 0.0219913 0 0.237409
0.67013 0.0264708 3.46945e-18 0.237394
0.67013 0.0311131 0 0.237379
0.67013 0.0359237 0 0.237366
0.67013 0.0409092 -3.46945e-18 0.237352
0.67013 0.0460755 0 0.23734
0.67013 0.0514296 3.46945e-18 0.237328
0.523729 0.421557 -2.31298e-18 0.207605
0.67013 0.056978 0 0.237315
0 0.67277 0 0.174264
0.67013 0.0627277 0 0.237301
0.624584 0.251863 0 0.226049
0.67013 0.0686863 0 0.237284
0.67013 0.0748612 3.46945e-18 0.237243
0.67013 0.0812603 0 0.237154
0.67013 0.0878917 0 0.237028
0.67013 0.0947639 3.46945e-18 0.236888
0.574156 0.360265 0 0.21537
0.67013 0.101886 0 0.236738
0.523729 0.431051 0 0.207114
0.624584 0.264688 0 0.225549
0.467897 0.491175 0 0.199053
0.67013 0.109266 3.46945e-18 0.236574
0.350249 0.582034 0 0.186372
0.67013 0.116914 0 0.236395
0.67013 0.12484 0 0.236201
0.67013 0.133054 0 0.23599
0.288433 0.619475 0 0.181496
0.624584 0.27798 -3.08149e-33 0.22501
0.412065 0.546332 1.54074e-33 0.192266
0.523729 0.440544 -3.08149e-33 0.206623
0.67013 0.141566 3.46945e-18 0.235761
0.685312 0.0241911 -7.70372e-34 0.240311
0.685312 0.0434463 -7.70372e-34 0.240229
0.67013 0.150387 0 0.235513
0.574156 0.377026 -3.46945e-18 0.214567
0.67013 0.159528 0 0.235245
0.624584 0.291753 0 0.22443
0.151552 0.67277 0 0.174928
0.075776 0.686823 0 0.173429
0.67013 0.169001 0 0.234955
0.67013 0.178818 0 0.234642
0.467897 0.51269 0 0.197868
0.685312 0.113022 -7.70372e-34 0.239255
0.219992 0.659208 0 0.176353
0.624584 0.306027 0 0.223806
0.67013 0.188991 0 0.234305
0.574156 0.394397 3.46945e-18 0.213703
0.523729 0.46022 0 0.20557
0.685312 0.137234 -7.70372e-34 0.238606
0.67013 0.199535 -3.46945e-18 0.23394
0.350249 0.606847 0 0.184944
0 0.700877 0 0.172558
0.624584 0.320819 0 0.223135
0.67013 0.21046 0 0.233548
0.412065 0.569849 -2.31298e-18 0.190916
0.67013 0.221782 -3.46945e-18 0.233126
0.574157 0.412396 0 0.212777
0.288433 0.645647 0 0.179969
0.624584 0.336148 -3.08149e-33 0.222414
0.67013 0.233515 3.46945e-18 0.232672
0.467897 0.534986 0 0.196601
0.523729 0.48061 0 0.204443
0.624584 0.344091 0 0.222027
0.67013 0.245675 0 0.232184
0.715676 4.54095e-19 0 0.245039
0.715676 0.00368111 0 0.245045
0.715676 0.00749587 0 0.245063
0.715676 0.0114491 0 0.245089
0.715676 0.0155459 0 0.245108
0.715676 0.0197915 0 0.245109
0.715676 0.0241911 0 0.24509
0.715676 0.0287506 0 0.245062
0.715676 0.0334755 0 0.245033
0.715676 0.038372 0 0.245002
0.624584 0.352034 -2.31298e-18 0.22164
0.715676 0.0434463 0 0.244971
0.151552 0.700877 0 0.173242
0.715676 0.0487048 0 0.244939
0.715676 0.0541543 0 0.244906
0.574156 0.43105 0 0.211782
0.715676 0.0598016 0 0.244873
0.67013 0.258275 0 0.231659
0.715676 0.0656539 0 0.244834
0.715676 0.0717187 0 0.244778
0.075776 0.715441 0 0.171682
0.715676 0.0780037 0 0.244682
0.715676 0.0845169 0 0.244546
0.219992 0.686824 0 0.174734
0.715676 0.0912666 0 0.244386
0.715676 0.0982613 0 0.244212
0.67013 0.271334 -3.46945e-18 0.231096
0.350249 0.632561 -3.46945e-18 0.183424
0.412065 0.594219 3.08149e-33 0.189477
0.715676 0.10551 0 0.244025
0.715676 0.113022 0 0.243823
0.624584 0.368496 0 0.220809
0.523729 0.501741 0 0.203237
0.715676 0.120806 0 0.243603
0.715676 0.128874 0 0.243366
0.67013 0.284867 0 0.230491
0.467897 0.558091 3.46945e-18 0.195248
0.715676 0.137234 0 0.243111
0.574156 0.450382 0 0.210717
0 0.730005 0 0.170767
0.715676 0.145897 0 0.242835
0.288433 0.67277 0 0.178347
0.715676 0.154876 0 0.242539
0.67013 0.29889 0 0.229843
0.624584 0.385557 0 0.219919
0.715676 0.16418 -9.25187e-19 0.24222
0.715676 0.173822 0 0.241877
0.715676 0.183814 0 0.241509
0.67013 0.313423 0 0.229149
0.523729 0.523639 0 0.201948
0.715676 0.194169 0 0.241114
0.574156 0.470415 3.46945e-18 0.209577
0.624584 0.403236 0 0.218965
0.743101 0.0241911 -7.70372e-34 0.250228
0.412065 0.619475 3.08149e-33 0.187944
0.715676 0.2049 0 0.240691
0.151552 0.730005 0 0.171464
0.67013 0.328484 3.46945e-18 0.228405
0.350249 0.659208 0 0.181809
0.467897 0.582034 0 0.193806
0.715676 0.21602 0 0.240237
0.219992 0.715441 0 0.173018
0.075776 0.745097 -3.46945e-18 0.169847
0.715676 0.227544 0 0.239751
0.67013 0.344091 0 0.227608
0.624584 0.421557 0 0.217944
0.743101 0.128874 -7.70372e-34 0.248187
0.715676 0.239487 3.70071e-18 0.23923
0.574156 0.491175 0 0.208358
0.756814 0.00184055 0 0.25231
0.523729 0.546332 0 0.200572
0.756813 0.00558849 0 0.252323
0.756813 0.00947248 0 0.252345
0.756814 0.0134975 -3.46945e-18 0.252373
0.756814 0.0155459 0 0.25283
0.756814 0.0176687 0 0.252382
0.756814 0.0219913 0 0.252363
0.756814 0.0264709 0 0.252326
0.756814 0.031113 -3.46945e-18 0.252284
0.756813 0.0359238 -3.46945e-18 0.252238
0.288433 0.700877 0 0.176627
0.756814 0.0409092 -3.46945e-18 0.25219
0.756813 0.0460755 3.46945e-18 0.25214
0.756813 0.0514296 0 0.25209
0.715676 0.251863 0 0.238673
0.756813 0.0569779 0 0.252038
0.756814 0.0627277 -3.46945e-18 0.251984
0.756814 0.0686863 -3.46945e-18 0.251919
0 0.76019 0 0.168886
0.756814 0.0748612 0 0.251819
0.67013 0.360265 3.46945e-18 0.226755
0.756814 0.0812603 -3.46945e-18 0.25167
0.756814 0.0878917 -3.46945e-18 0.251492
0.756814 0.0947639 -3.46945e-18 0.251299
0.715676 0.264688 0 0.238077
0.756813 0.101886 0 0.251092
0.624584 0.440544 0 0.216851
0.756813 0.109266 3.46945e-18 0.250868
0.756813 0.116914 3.46945e-18 0.250627
0.412065 0.645647 0 0.186313
0.467897 0.606847 0 0.192268
0.756814 0.120806 0 0.250872
0.756813 0.12484 0 0.250368
0.715676 0.27798 0 0.23744
0.756814 0.133054 -3.46945e-18 0.250089
0.67013 0.377026 -3.46945e-18 0.225843
0.756814 0.137234 0 0.250302
0.574156 0.51269 0 0.207055
0.756813 0.141566 3.46945e-18 0.24979
0.685312 0.352034 -7.70372e-34 0.229575
0.743101 0.2049 -7.70372e-34 0.245279
0.350249 0.686824 0 0.180093
0.756814 0.150387 0 0.249469
0.756814 0.154876 0 0.249648
0.715676 0.291753 0 0.236759
0.756814 0.159528 -3.46945e-18 0.249125
0.523729 0.569849 0 0.199105
0.72743 0.264688 0 0.239971
0.756814 0.16418 0 0.249286
0.151552 0.76019 0 0.169591
0.756813 0.169001 3.46945e-18 0.248756
0.624584 0.46022 0 0.215684
0.219993 0.745097 0 0.171204
0.67013 0.394396 0 0.224868
0.756813 0.178818 -3.46945e-18 0.248362
0.715676 0.306027 0 0.236032
0.075776 0.775831 0 0.16792
0.756813 0.188991 0 0.24794
0.756814 0.199535 0 0.247489
0.715676 0.320819 0 0.235255
0.574156 0.534985 0 0.205665
0.288433 0.730005 0 0.174805
0.756813 0.21046 0 0.247008
0.467897 0.632561 0 0.190631
0.67013 0.412396 -3.46945e-18 0.223825
0.624584 0.48061 -3.08149e-33 0.214436
0.756814 0.221782 0 0.246493
0.412065 0.67277 3.08149e-33 0.18458
0.715676 0.336148 0 0.234427
0 0.791472 0 0.166911
0.756813 0.233516 3.46945e-18 0.245944
0.523729 0.594219 0 0.197541
0.624584 0.487654 1.54074e-33 0.213992
0.756814 0.245675 3.46945e-18 0.245359
0.350249 0.715441 3.46945e-18 0.178272
0.67013 0.43105 0 0.222712
0.715676 0.352034 -9.25187e-19 0.233542
0.797951 9.08189e-19 -3.08149e-33 0.260485
0.797951 0.00368111 2.31298e-18 0.260491
0.797951 0.00749587 2.31298e-18 0.260509
0.797951 0.0114491 2.31298e-18 0.260535
0.797951 0.0141803 7.70372e-34 0.260546
0.797951 0.0155459 0 0.260552
0.797951 0.0169611 7.70372e-34 0.260548
0.797951 0.0197915 2.31298e-18 0.260541
0.797951 0.0219913 0 0.260522
0.797951 0.0241911 3.08149e-33 0.260503
0.797951 0.0264709 0 0.260475
0.797951 0.0287506 -3.08149e-33 0.260447
0.797951 0.0334755 2.31298e-18 0.260382
0.797951 0.038372 2.31298e-18 0.260312
0.797951 0.0434463 2.31298e-18 0.260238
0.797951 0.0487048 0 0.260162
0.756813 0.258275 -3.46945e-18 0.244735
0.797951 0.0541543 2.31298e-18 0.260083
0.797951 0.0598016 2.31298e-18 0.26
0.797951 0.0656539 2.31298e-18 0.259908
0.574156 0.55809 0 0.204181
0.624584 0.501741 0 0.213105
0.797951 0.0717187 2.31298e-18 0.259788
0.797951 0.0780037 -3.08149e-33 0.259624
0.797951 0.0845169 2.31298e-18 0.259423
0.797951 0.0912666 -3.08149e-33 0.259201
0.797951 0.0982613 2.31298e-18 0.258962
0.756813 0.271334 0 0.24407
0.797951 0.10551 2.31298e-18 0.258707
0.715676 0.368496 0 0.232599
0.151552 0.791472 0 0.167618
0.797951 0.113022 2.31298e-18 0.258433
0.219992 0.775831 3.46945e-18 0.169286
0.797951 0.118211 7.70372e-34 0.258238
0.770526 0.239487 1.54074e-33 0.248208
0.797951 0.120806 0 0.258141
0.67013 0.450382 3.46945e-18 0.221524
0.797951 0.128874 3.08149e-33 0.257827
0.467897 0.659208 0 0.18889
0.756813 0.284866 -3.46945e-18 0.243361
0.743101 0.320819 -7.70372e-34 0.23953
0.797951 0.137234 0 0.257493
0.797951 0.141566 0 0.257315
0.797951 0.145897 -9.25187e-19 0.257136
0.523729 0.619475 0 0.195875
0.075776 0.807681 0 0.165896
0.797951 0.150387 0 0.256946
0.797951 0.154876 0 0.256756
0.715676 0.385557 0 0.231592
0.412065 0.700877 3.08149e-33 0.182739
0.288433 0.76019 0 0.172877
0.756813 0.29889 0 0.242606
0.797951 0.16418 0 0.256351
0.624584 0.523639 0 0.211684
0.797951 0.167394 7.70372e-34 0.256208
0.797951 0.173822 2.31298e-18 0.25592
0.574156 0.582034 0 0.2026
0.67013 0.470415 0 0.220255
0.797951 0.183814 2.31298e-18 0.255462
0.756813 0.313423 -3.46945e-18 0.241802
0.797951 0.194169 -9.25187e-19 0.254974
0.715676 0.403236 0 0.230519
0.151552 0.807681 0 0.166579
0.797951 0.197746 -7.70372e-34 0.254801
0.350249 0.745097 0 0.176342
0.797951 0.2049 3.08149e-33 0.254456
0 0.823889 0 0.164836
0.756813 0.328483 -3.46945e-18 0.240946
0.797951 0.21046 0 0.25418
0.797951 0.21602 -3.08149e-33 0.253905
0.797951 0.223703 7.70372e-34 0.253514
0.797951 0.227544 9.25187e-19 0.253319
0.624584 0.546332 0 0.21017
0.715676 0.421557 0 0.229375
0.67013 0.491176 -3.46945e-18 0.218902
0.797951 0.231525 7.70372e-34 0.253112
0.467897 0.686824 -3.46945e-18 0.187039
0.523729 0.645647 0 0.194103
0.756813 0.344091 -3.46945e-18 0.240035
0.822721 0.120806 7.70372e-34 0.263153
0.797951 0.239487 -3.08149e-33 0.252698
0.822721 0.137234 7.70372e-34 0.262448
0.835106 0.00184056 0 0.268238
0.835106 0.00558849 0 0.268251
0.835106 0.00947248 0 0.268275
0.835106 0.0134975 0 0.268302
0.835107 0.0176687 0 0.268306
0.835106 0.0219913 -3.46945e-18 0.268271
0.574156 0.606847 3.46945e-18 0.200917
0.835106 0.0241911 0 0.268517
0.835106 0.0264709 -3.46945e-18 0.268209
0.822721 0.145897 -7.70372e-34 0.262062
0.835106 0.031113 3.46945e-18 0.268128
0.835106 0.0359238 3.46945e-18 0.268039
0.835106 0.0409092 -3.46945e-18 0.267945
0.835106 0.0460755 3.46945e-18 0.267846
0.835106 0.0514296 0 0.267742
0.797951 0.251863 -3.08149e-33 0.252038
0.835106 0.0541543 0 0.267959
0.835106 0.0569779 0 0.267635
0.219992 0.807681 3.46945e-18 0.167262
0.822721 0.154876 7.70372e-34 0.261651
0.835106 0.0627277 0 0.267522
0.151552 0.823889 0 0.165541
0.797951 0.255069 -1.54074e-33 0.251862
0.835106 0.0686863 3.46945e-18 0.267389
0.756814 0.360265 -3.46945e-18 0.239065
0.412065 0.730005 0 0.180786
0.835106 0.0748612 0 0.26721
0.822721 0.16418 7.70372e-34 0.261215
0.835106 0.0812603 0 0.266987
0.835106 0.0878917 -3.46945e-18 0.266738
0.715676 0.440544 0 0.228156
0.835106 0.094764 0 0.266472
0.797951 0.264688 -1.2326e-32 0.251337
0.835106 0.101886 -3.46945e-18 0.266188
0.835106 0.109266 3.46945e-18 0.265885
0.288433 0.791472 0 0.170838
0.835106 0.116914 0 0.265563
0.67013 0.51269 3.46945e-18 0.21746
0.797951 0.274657 6.16298e-33 0.250779
0.075776 0.840686 -3.46945e-18 0.163771
0.835106 0.12484 0 0.265219
0.797951 0.27798 -3.08149e-33 0.250593
0.624584 0.569849 0 0.208556
0.756813 0.377026 -3.46945e-18 0.238033
0.835106 0.133054 3.46945e-18 0.264853
0.835106 0.141565 3.46945e-18 0.264464
0.835106 0.150386 0 0.264052
0.797951 0.291753 0 0.249804
0.835106 0.159528 3.46945e-18 0.263614
0.715676 0.46022 0 0.226857
0.816529 0.239487 -1.54074e-33 0.256167