# pMean  POINT_DATA 63140
# x  y  z  pMean
0 0.1 0 0.210276
0 0.1 -0.0179898 0.210506
0 0.1 0.0179898 0.21005
0.0363518 0.1 0.0179898 0.21005
0.0363518 0.1 -0.0179898 0.210506
0 0.1 -0.0570102 0.210873
0 0.1 0.0570102 0.209417
0.0363518 0.1 0.0570102 0.209417
0.0363518 0.1 -0.0570102 0.210873
0 0.1 -0.075 0.210981
0 0.1 0.075 0.209062
0.075776 0.1 -0.0375 0.210758
0.075776 0.1 0.0375 0.209805
0 0.1 -0.0929898 0.211092
0 0.1 0.0929898 0.20871
0.0363518 0.1 -0.0929898 0.211092
0.0363518 0.1 0.0929898 0.20871
0 0.1 -0.13201 0.211175
0 0.1 0.13201 0.207795
0.075776 0.1 -0.1125 0.211214
0.075776 0.1 0.1125 0.208329
0.0363518 0.1 -0.13201 0.211175
0.0363518 0.1 0.13201 0.207795
0 0.1 -0.15 0.211142
0 0.1 0.15 0.207306
0.150379 0.1 -2.22623e-17 0.203007
0 0.1 -0.16799 0.211113
0 0.1 0.16799 0.20682
0.150379 0.1 -0.075 0.203679
0.150379 0.1 0.075 0.201709
0.0363518 0.1 -0.16799 0.211113
0.0363518 0.1 0.16799 0.20682
0.075776 0.1 -0.1875 0.211082
0.075776 0.1 0.1875 0.206294
0 0.1 -0.20701 0.210883
0 0.1 0.20701 0.205618
0.0363518 0.1 -0.20701 0.210883
0.0363518 0.1 0.20701 0.205618
0.150379 0.1 -0.15 0.203711
0.150379 0.1 0.15 0.199792
0.219993 0.1 -0.0375 0.196568
0.219993 0.1 0.0375 0.19557
0 0.1 -0.225 0.210703
0 0.1 0.225 0.204999
0 0.1 -0.24299 0.210526
0 0.1 0.24299 0.204382
0.0363518 0.1 0.24299 0.204382
0.0363518 0.1 -0.24299 0.210526
0.219993 0.1 -0.1125 0.196852
0.219993 0.1 0.1125 0.193812
0.150379 0.1 -0.225 0.203063
0.150379 0.1 0.225 0.197267
0.075776 0.1 -0.2625 0.210334
0.075776 0.1 0.2625 0.203714
0 0.1 -0.28201 0.209974
0 0.1 0.28201 0.202893
0.0363518 0.1 -0.28201 0.209974
0.0363518 0.1 0.28201 0.202893
0.287374 0.1 -2.89121e-19 0.199242
0.219992 0.1 0.1875 0.191428
0.219992 0.1 -0.1875 0.196384
0.287374 0.1 -0.075 0.199925
0.287374 0.1 0.075 0.197845
0 0.1 -0.3 0.209644
0 0.1 0.3 0.20214
0 0.1 0.31799 0.201388
0 0.1 -0.31799 0.209317
0.0363518 0.1 -0.31799 0.209317
0.0363518 0.1 0.31799 0.201388
0.287374 0.1 0.15 0.195758
0.287374 0.1 -0.15 0.199888
0.150379 0.1 -0.3 0.201772
0.150379 0.1 0.3 0.194142
0.219993 0.1 0.2625 0.188345
0.219993 0.1 -0.2625 0.195158
0.075776 0.1 -0.3375 0.208963
0.075776 0.1 0.3375 0.200574
0.350249 0.1 -0.0375 0.202812
0.350249 0.1 0.0375 0.201742
0 0.1 -0.35701 0.208452
0 0.1 0.35701 0.199616
0.0363518 0.1 -0.35701 0.208452
0.0363518 0.1 0.35701 0.199616
0.287374 0.1 -0.225 0.199115
0.287374 0.1 0.225 0.193006
0.350249 0.1 -0.1125 0.203189
0.350249 0.1 0.1125 0.199982
0 0.1 -0.375 0.207985
0 0.1 0.375 0.198737
0 0.1 -0.39299 0.207518
0 0.1 0.39299 0.197858
0.0363518 0.1 -0.39299 0.207518
0.0363518 0.1 0.39299 0.197858
0.350249 0.1 -0.1875 0.202842
0.350249 0.1 0.1875 0.197538
0.219992 0.1 -0.3375 0.19336
0.219992 0.1 0.3375 0.184675
0.150379 0.1 0.375 0.190488
0.150379 0.1 -0.375 0.1999
0.411108 0.1 4.33681e-19 0.207228
0.287374 0.1 -0.3 0.197658
0.287374 0.1 0.3 0.189621
0.411108 0.1 -0.075 0.207951
0.411108 0.1 0.075 0.205722
0.075776 0.1 -0.4125 0.207014
0.075776 0.1 0.4125 0.196907
0 0.1 0.43201 0.195828
0 0.1 -0.43201 0.206361
0.0363518 0.1 0.43201 0.195828
0.0363518 0.1 -0.43201 0.206361
0.411108 0.1 -0.15 0.207884
0.411108 0.1 0.15 0.203449
0.350249 0.1 -0.2625 0.201786
0.350249 0.1 0.2625 0.194443
0 0.1 -0.45 0.205762
0 0.1 0.45 0.194836
0.219992 0.1 0.4125 0.180559
0.219992 0.1 -0.4125 0.191007
0 0.1 -0.46799 0.205164
0 0.1 0.46799 0.193846
0.411108 0.1 -0.225 0.207032
0.411108 0.1 0.225 0.200441
0.467897 0.1 -0.0375 0.212556
0.467897 0.1 0.0375 0.211395
0.0363518 0.1 0.46799 0.193846
0.0363518 0.1 -0.46799 0.205164
0.287374 0.1 -0.375 0.195579
0.287374 0.1 0.375 0.185687
0.150379 0.1 0.45 0.186374
0.150379 0.1 -0.45 0.197474
0.467897 0.1 0.1125 0.209372
0.467897 0.1 -0.1125 0.212842
0.350249 0.1 -0.3375 0.200034
0.350249 0.1 0.3375 0.190753
0.075776 0.1 -0.4875 0.204518
0.075776 0.1 0.4875 0.192773
0.467897 0.1 0.1875 0.206521
0.467897 0.1 -0.1875 0.212264
0 0.1 -0.50701 0.20373
0 0.1 0.50701 0.191585
0.0363518 0.1 -0.50701 0.20373
0.0363518 0.1 0.50701 0.191585
0.411108 0.1 0.3 0.196754
0.411108 0.1 -0.3 0.205419
0.522865 0.1 1.41031e-17 0.217874
0 0.1 -0.525 0.203007
0 0.1 0.525 0.190493
0.522865 0.1 -0.075 0.218623
0.522865 0.1 0.075 0.216193
0.287374 0.1 0.45 0.181262
0.287374 0.1 -0.45 0.192908
0.219992 0.1 0.4875 0.176036
0.219992 0.1 -0.4875 0.188123
0.467897 0.1 -0.2625 0.21085
0.467897 0.1 0.2625 0.202898
0.350249 0.1 -0.4125 0.197619
0.350249 0.1 0.4125 0.186496
0 0.1 -0.54299 0.202286
0 0.1 0.54299 0.189401
0.522865 0.1 0.15 0.213605
0.522865 0.1 -0.15 0.218437
0.0363518 0.1 0.54299 0.189401
0.0363518 0.1 -0.54299 0.202286
0.150379 0.1 -0.525 0.194553
0.150379 0.1 0.525 0.181868
0.411108 0.1 -0.375 0.203081
0.411108 0.1 0.375 0.192442
0.075776 0.1 -0.5625 0.201505
0.075776 0.1 0.5625 0.18822
0.522865 0.1 -0.225 0.217331
0.522865 0.1 0.225 0.210157
0.574156 0.1 0.0375 0.222908
0.574157 0.1 -0.0375 0.224184
0.467897 0.1 -0.3375 0.208637
0.467897 0.1 0.3375 0.19858
0 0.1 -0.58201 0.200598
0 0.1 0.58201 0.18694
0.0363518 0.1 -0.58201 0.200598
0.0363518 0.1 0.58201 0.18694
0.574157 0.1 -0.1125 0.224455
0.574157 0.1 0.1125 0.22065
0.287374 0.1 -0.525 0.189714
0.287374 0.1 0.525 0.17642
0 0.1 -0.6 0.199765
0 0.1 0.6 0.185763
0.350249 0.1 0.4875 0.1817
0.350249 0.1 -0.4875 0.194593
0.522865 0.1 -0.3 0.215339
0.522865 0.1 0.3 0.205915
0.219992 0.1 -0.5625 0.184847
0.219992 0.1 0.5625 0.171236
0.574156 0.1 -0.1875 0.223733
0.574156 0.1 0.1875 0.217444
0.411108 0.1 0.45 0.187556
0.411108 0.1 -0.45 0.200069
0 0.1 -0.61799 0.198933
0 0.1 0.61799 0.184586
0.150379 0.1 -0.6 0.191193
0.150379 0.1 0.6 0.177027
0.0363518 0.1 -0.61799 0.198933
0.0363518 0.1 0.61799 0.184586
0.467897 0.1 -0.4125 0.205685
0.467897 0.1 0.4125 0.193628
0.623803 0.1 2.34188e-17 0.230282
0.623803 0.1 0.075 0.228404
0.623803 0.1 -0.075 0.231085
0.574156 0.1 0.2625 0.213346
0.574156 0.1 -0.2625 0.222034
0.623803 0.1 0.15 0.225484
0.623803 0.1 -0.15 0.230807
0.075776 0.1 0.6375 0.183313
0.075776 0.1 -0.6375 0.198033
0.522865 0.1 -0.375 0.212516
0.522865 0.1 0.375 0.200957
0 0.1 0.65701 0.181955
0 0.1 -0.65701 0.197021
0.0363518 0.1 0.65701 0.181955
0.0363518 0.1 -0.65701 0.197021
0.350249 0.1 0.5625 0.176465
0.350249 0.1 -0.5625 0.191012
0.623803 0.1 0.225 0.221572
0.623803 0.1 -0.225 0.229458
0.287374 0.1 -0.6 0.186061
0.287374 0.1 0.6 0.171235
0.574157 0.1 -0.3375 0.219405
0.574157 0.1 0.3375 0.20844
0.411108 0.1 0.525 0.182167
0.411108 0.1 -0.525 0.196441
0.67013 0.1 0.0375 0.236071
0.67013 0.1 -0.0375 0.237485
0.219992 0.1 -0.6375 0.181176
0.219993 0.1 0.6375 0.166145
0 0.1 -0.675 0.196091
0 0.1 0.675 0.180707
0.467897 0.1 -0.4875 0.202053
0.467897 0.1 0.4875 0.188117
0.67013 0.1 -0.1125 0.237736
0.67013 0.1 0.1125 0.233515
0.522865 0.1 0.45 0.195362
0.522865 0.1 -0.45 0.208929
0.150379 0.1 0.675 0.171887
0.150379 0.1 -0.675 0.187428
0.623803 0.1 0.3 0.216744
0.623803 0.1 -0.3 0.227079
0 0.1 -0.69299 0.195162
0 0.1 0.69299 0.17946
0.0363518 0.1 -0.69299 0.195162
0.0363518 0.1 0.69299 0.17946
0.67013 0.1 -0.1875 0.236825
0.67013 0.1 0.1875 0.229869
0.574156 0.1 0.4125 0.202809
0.574157 0.1 -0.4125 0.215925
0.714971 0.1 -2.8382e-17 0.244082
0.075776 0.1 -0.7125 0.194157
0.075776 0.1 0.7125 0.178109
0.714971 0.1 -0.075 0.244944
0.714971 0.1 0.075 0.241973
0.67013 0.1 0.2625 0.225189
0.67013 0.1 -0.2625 0.234772
0.411108 0.1 -0.6 0.192266
0.411108 0.1 0.6 0.176364
0.350249 0.1 0.6375 0.170873
0.350249 0.1 -0.6375 0.186944
0.623803 0.1 0.375 0.211094
0.623803 0.1 -0.375 0.223741
0.714971 0.1 -0.15 0.244548
0.714971 0.1 0.15 0.238658
0.467897 0.1 -0.5625 0.197809
0.467897 0.1 0.5625 0.182133
0 0.1 -0.73201 0.193055
0 0.1 0.73201 0.176691
0.0363518 0.1 0.73201 0.176691
0.0363518 0.1 -0.73201 0.193055
0.287374 0.1 -0.675 0.181991
0.287374 0.1 0.675 0.165753
0.522865 0.1 -0.525 0.204653
0.522865 0.1 0.525 0.189222
0.219993 0.1 -0.7125 0.177144
0.219992 0.1 0.7125 0.160795
0.714971 0.1 -0.225 0.242906
0.714971 0.1 0.225 0.234199
0 0.1 0.75 0.175386
0 0.1 -0.75 0.192043
0.67013 0.1 -0.3375 0.231652
0.67013 0.1 0.3375 0.219583
0.574156 0.1 -0.4875 0.211665
0.574157 0.1 0.4875 0.196551
0.756813 0.1 0.0375 0.250364
0.756814 0.1 -0.0375 0.251929
0.150379 0.1 0.746002 0.166911
0.150379 0.1 -0.75 0.183307
0.756813 0.1 -0.1125 0.252146
0.756813 0.1 0.1125 0.247473
0 0.1 0.76799 0.174082
0 0.1 -0.76799 0.19103
0.0363518 0.1 0.76799 0.174082
0.0363518 0.1 -0.76799 0.19103
0.623803 0.1 -0.45 0.219525
0.623803 0.1 0.45 0.204721
0.714971 0.1 -0.3 0.240075
0.714971 0.1 0.3 0.228682
0.756814 0.1 -0.1875 0.251008
0.756814 0.1 0.1875 0.24332
0.67013 0.1 -0.4125 0.227549
0.67013 0.1 0.4125 0.213153
0.411108 0.1 0.675 0.170232
0.411108 0.1 -0.675 0.187618
0.467897 0.1 0.6375 0.175764
0.467897 0.1 -0.6375 0.193029
0.075776 0.1 0.7875 0.172671
0.075776 0.1 -0.7875 0.189935
0.350249 0.1 -0.7125 0.182454
0.350249 0.1 0.7125 0.165001
0.522865 0.1 -0.6 0.199771
0.522865 0.1 0.6 0.182635
0.797314 0.1 -3.59473e-17 0.25882
0.287374 0.1 0.746002 0.160268
0.797314 0.1 -0.075 0.259753
0.797314 0.1 0.075 0.25645
0.756814 0.1 -0.2625 0.248555
0.756814 0.1 0.2625 0.237981
0.287374 0.1 -0.75 0.17756
0.574156 0.1 -0.5625 0.206722
0.574156 0.1 0.5625 0.189775
0 0.1 0.80701 0.171206
0 0.1 -0.80701 0.188757
0.714971 0.1 -0.375 0.236133
0.714971 0.1 0.375 0.222228
0.0363518 0.1 0.80701 0.171206
0.0363518 0.1 -0.80701 0.188757
0.797314 0.1 -0.15 0.259233
0.797314 0.1 0.15 0.252691
0.623803 0.1 -0.525 0.214527
0.623803 0.1 0.525 0.197743
0.219992 0.1 0.7875 0.155233
0.219992 0.1 -0.7875 0.172794
0.149792 0.1 0.80701 0.162293
0 0.1 0.825 0.169858
0 0.1 -0.825 0.187675
0.797314 0.1 -0.225 0.257273
0.797314 0.1 0.225 0.247622
0.756813 0.1 -0.3375 0.244871
0.756813 0.1 0.3375 0.231564
0.67013 0.1 0.4875 0.206014
0.67013 0.1 -0.4875 0.222553
0.835106 0.1 -0.0375 0.267135
0.835106 0.1 0.0375 0.265392
0.150379 0.1 -0.825 0.178881
0.835106 0.1 -0.1125 0.267341
0.835106 0.1 0.1125 0.262122
0 0.1 -0.84299 0.186593
0 0.1 0.84299 0.168511
0.0363518 0.1 -0.84299 0.186593
0.0363518 0.1 0.84299 0.168511
0.714971 0.1 -0.45 0.231181
0.714971 0.1 0.45 0.214963
0.411108 0.1 0.746002 0.164122
0.797314 0.1 -0.3 0.253941
0.797314 0.1 0.3 0.241343
0.467897 0.1 -0.7125 0.187805
0.467897 0.1 0.7125 0.169101
0.522865 0.1 0.675 0.175696
0.522865 0.1 -0.675 0.194377
0.411108 0.1 -0.75 0.182575
0.835106 0.1 -0.1875 0.265979
0.835107 0.1 0.1875 0.257414
0.286844 0.1 0.80701 0.155565
0.574156 0.1 0.6375 0.182584
0.574157 0.1 -0.6375 0.201192
0.350249 0.1 -0.7875 0.177621
0.350249 0.1 0.7875 0.158928
0.756813 0.1 -0.4125 0.24003
0.756814 0.1 0.4125 0.224229
0.623803 0.1 -0.6 0.208856
0.623803 0.1 0.6 0.190279
0.075776 0.1 0.8625 0.167053
0.075776 0.1 -0.8625 0.185422
0.871687 0.1 -3.2767e-18 0.274081
0.287374 0.1 -0.825 0.172829
0.871687 0.1 -0.075 0.275094
0.871687 0.1 0.075 0.271428
0.67013 0.1 -0.5625 0.216787
0.67013 0.1 0.5625 0.198306
0.835106 0.1 0.2625 0.251356
0.835106 0.1 -0.2625 0.263104
0.797314 0.1 -0.375 0.24933
0.797314 0.1 0.375 0.234
0 0.1 -0.88201 0.184183
0 0.1 0.88201 0.165557
0.0363518 0.1 0.88201 0.165557
0.0363518 0.1 -0.88201 0.184183
0.871687 0.1 0.15 0.26718
0.871687 0.1 -0.15 0.274443
0.714971 0.1 0.525 0.207018
0.714971 0.1 -0.525 0.225342
0.219993 0.1 0.8625 0.149524
0.219992 0.1 -0.8625 0.168185
0 0.1 0.9 0.164182
0 0.1 -0.9 0.183045
0.756813 0.1 0.4875 0.216104
0.756814 0.1 -0.4875 0.234188
0.871687 0.1 0.225 0.261441
0.871687 0.1 -0.225 0.272133
0.835106 0.1 -0.3375 0.258802
0.835106 0.1 0.3375 0.244079
0.41063 0.1 0.80701 0.158888
0.90582 0.1 -0.0375 0.282646
0.905821 0.1 0.0375 0.280732
0.522865 0.1 0.746002 0.168794
0.150379 0.1 0.9 0.155199
0.90582 0.1 0.1125 0.277054
0.905821 0.1 -0.1125 0.282831
0.522865 0.1 -0.75 0.188564
0.574156 0.1 0.7125 0.175087
0.574156 0.1 -0.7125 0.195178
0.797314 0.1 -0.45 0.24357
0.797314 0.1 0.45 0.225752
0.467897 0.1 -0.7875 0.182211
0.467897 0.1 0.7875 0.16223
0.150379 0.1 -0.903998 0.174488
0 0.1 0.91799 0.162807
0 0.1 -0.91799 0.181907
0.0363518 0.1 0.91799 0.162807
0.0363518 0.1 -0.91799 0.181907
0.623803 0.1 0.675 0.182445
0.623803 0.1 -0.675 0.202625
0.411108 0.1 -0.825 0.177215
0.871687 0.1 0.3 0.254334
0.871687 0.1 -0.3 0.268244
0.67013 0.1 -0.6375 0.210372
0.67013 0.1 0.6375 0.190156
0.90582 0.1 -0.1875 0.281204
0.90582 0.1 0.1875 0.271733
0.350249 0.1 0.8625 0.152715
0.350249 0.1 -0.8625 0.172512
0.835106 0.1 -0.4125 0.253205
0.835106 0.1 0.4125 0.235764
0.714971 0.1 -0.6 0.218753
0.714971 0.1 0.6 0.198542
0.93886 0.1 -1.15648e-17 0.289416
0.075776 0.1 0.9375 0.161318
0.075776 0.1 -0.9375 0.180675
0.93886 0.1 0.075 0.286445
0.93886 0.1 -0.075 0.290541
0.756813 0.1 0.5625 0.207329
0.756814 0.1 -0.5625 0.22747
0.905821 0.1 -0.2625 0.277839
0.905821 0.1 0.2625 0.264883
0.287374 0.1 0.9 0.148128
0.287374 0.1 -0.903998 0.168397
0.871687 0.1 0.375 0.246023
0.871687 0.1 -0.375 0.262896
0.93886 0.1 -0.15 0.289793
0.93886 0.1 0.15 0.281673
0.797314 0.1 0.525 0.216749
0.797314 0.1 -0.525 0.236809
0 0.1 0.95701 0.159807
0 0.1 -0.95701 0.17939
0.0363518 0.1 0.95701 0.159807
0.0363518 0.1 -0.95701 0.17939
0.522433 0.1 0.80701 0.162924
0.219992 0.1 0.9375 0.143728
0.219992 0.1 -0.9375 0.16336
0.93886 0.1 0.225 0.275234
0.93886 0.1 -0.225 0.287151
0.90582 0.1 0.3375 0.256664
0.905821 0.1 -0.3375 0.272839
0.835106 0.1 -0.4875 0.246469
0.835107 0.1 0.4875 0.226576
0.969689 0.1 -0.0375 0.298033
0.969689 0.1 0.0375 0.295885
0.61613 0.1 0.75 0.17436
0.574156 0.1 -0.7875 0.18879
0.574156 0.1 0.7875 0.167387
0 0.1 0.975 0.158417
0 0.1 -0.975 0.178208
0.623803 0.1 -0.75 0.195955
0.969689 0.1 -0.1125 0.298281
0.969689 0.1 0.1125 0.291751
0.522865 0.1 -0.825 0.182428
0.67013 0.1 0.7125 0.181696
0.67013 0.1 -0.7125 0.203443
0.871687 0.1 -0.45 0.256244
0.871687 0.1 0.45 0.2367
0.467897 0.1 0.8625 0.155231
0.467897 0.1 -0.8625 0.176341
0.714971 0.1 -0.675 0.211557
0.714971 0.1 0.675 0.189684
0.93886 0.1 -0.3 0.282716
0.93886 0.1 0.3 0.267273
0.150379 0.1 0.975 0.149408
0.150379 0.1 -0.975 0.169335
0.969689 0.1 -0.1875 0.296486
0.969689 0.1 0.1875 0.285809
0.411108 0.1 0.9 0.150656
0.756813 0.1 0.6375 0.198095
0.756814 0.1 -0.6375 0.220043
0.990306 0.1 -2.19732e-17 0.301272
0 0.1 0.99299 0.157027
0 0.1 -0.99299 0.177026
0.411108 0.1 -0.903998 0.172206
0.990306 0.1 -0.075 0.302499
0.990306 0.1 0.075 0.298027
0.0363518 0.1 0.99299 0.157027
0.0363518 0.1 -0.99299 0.177026
0.90582 0.1 -0.4125 0.266366
0.905821 0.1 0.4125 0.247258
0.797314 0.1 -0.6 0.22921
0.797314 0.1 0.6 0.207175
0.350249 0.1 0.9375 0.146414
0.350249 0.1 -0.9375 0.167191
0.990306 0.1 0.15 0.292797
0.990306 0.1 -0.15 0.301678
0.969689 0.1 -0.2625 0.292713
0.969689 0.1 0.2625 0.27818
0.835106 0.1 -0.5625 0.238752
0.835106 0.1 0.5625 0.216685
0.93886 0.1 -0.375 0.276637
0.93886 0.1 0.375 0.257978
0.075776 0.1 1.0125 0.155523
0.075776 0.1 -1.0125 0.175748
0.990306 0.1 -0.225 0.29875
0.990306 0.1 0.225 0.285752
0.287374 0.1 0.975 0.142058
0.287374 0.1 -0.975 0.162701
0.871687 0.1 -0.525 0.248465
0.871687 0.1 0.525 0.226557
1.02149 0.1 -0.0369628 0.311248
1.02149 0.1 0.0369628 0.30896
0.969689 0.1 -0.3375 0.287124
0.969689 0.1 0.3375 0.269057
1.02149 0.1 -0.110888 0.311523
1.02149 0.1 0.110888 0.304444
0.90582 0.1 0.4875 0.236904
0.90582 0.1 -0.4875 0.258592
0.623803 0.1 0.819003 0.167684
0 0.1 1.03201 0.154009
0 0.1 -1.03201 0.174431
0.0363518 0.1 1.03201 0.154009
0.0363518 0.1 -1.03201 0.174431
0.67013 0.1 -0.7875 0.196124
0.67013 0.1 0.7875 0.173049
0.623803 0.1 -0.825 0.188958
0.990306 0.1 -0.3 0.293853
0.990306 0.1 0.3 0.277052
0.219992 0.1 -1.0125 0.158375
0.219993 0.1 1.0125 0.137891
0.574156 0.1 0.8625 0.159582
0.574157 0.1 -0.8625 0.182128
0.714971 0.1 -0.75 0.203899
0.714971 0.1 0.75 0.180581
1.02149 0.1 0.184814 0.297957
1.02149 0.1 -0.184814 0.309516
0.756814 0.1 -0.7125 0.212064
0.756814 0.1 0.7125 0.188544
0.522865 0.1 0.9 0.153726
0.93886 0.1 -0.45 0.269086
0.93886 0.1 0.45 0.247567
1.04168 0.1 0 0.315629
1.04168 0.1 -0.0729162 0.316969
1.04168 0.1 0.0729162 0.312153
0.522865 0.1 -0.903998 0.176748
0.797314 0.1 -0.675 0.220952
0.797314 0.1 0.675 0.197213
0.467897 0.1 0.9375 0.148176
0.467897 0.1 -0.9375 0.170266
0 0.1 1.05 0.152615
0 0.1 -1.05 0.173219
0.835106 0.1 -0.6375 0.230248
0.835106 0.1 0.6375 0.206323
1.04168 0.1 -0.145832 0.316175
1.04168 0.1 0.145832 0.306575
1.02149 0.1 -0.25874 0.30533
1.02149 0.1 0.25874 0.289625
0.969689 0.1 -0.4125 0.279885
0.969689 0.1 0.4125 0.258646
0.411108 0.1 0.975 0.143967
0.411108 0.1 -0.975 0.165836
0.871687 0.1 -0.6 0.239755
0.871687 0.1 0.6 0.215799
1.0579 0.1 -0.0360525 0.32118
1.0579 0.1 0.0360525 0.318778
0.990306 0.1 -0.375 0.287147
0.990306 0.1 0.375 0.266907
0.150379 0.1 1.05 0.143588
0.150379 0.1 -1.05 0.16432
1.0579 0.1 0.108157 0.314165
1.0579 0.1 -0.108157 0.321512
1.04168 0.1 -0.218749 0.313138
1.04168 0.1 0.218749 0.299095
0.90582 0.1 -0.5625 0.24973
0.90582 0.1 0.5625 0.225797
0 0.1 -1.06799 0.172008
0 0.1 1.06799 0.151222
0.0363518 0.1 -1.06799 0.172008
0.0363518 0.1 1.06799 0.151222
0.350249 0.1 1.0125 0.14009
0.350249 0.1 -1.0125 0.161717
1.0579 0.1 -0.180262 0.319665
1.0579 0.1 0.180262 0.307602
1.02149 0.1 -0.332665 0.299172
1.02149 0.1 0.332665 0.279653
0.93886 0.1 -0.525 0.260269
0.93886 0.1 0.525 0.236263
1.08012 0.1 5.49329e-18 0.326125
1.04168 0.1 -0.291665 0.307997
1.04168 0.1 0.291665 0.28987
1.08012 0.1 0.0709941 0.322513
1.08012 0.1 -0.0709941 0.32757
0.969689 0.1 -0.4875 0.271187
0.96969 0.1 0.4875 0.247199
1.0579 0.1 0.252367 0.299202
1.0579 0.1 -0.252367 0.315566
0.990306 0.1 -0.45 0.278815
0.990306 0.1 0.45 0.255559
0.287374 0.1 -1.05 0.157415
0.287374 0.1 1.05 0.13598
0.714971 0.1 0.821002 0.172059
1.08012 0.1 -0.141988 0.326895
1.08012 0.1 0.141988 0.316815
0.075776 0.1 1.0875 0.149714
0.075776 0.1 -1.0875 0.170698
0.714971 0.1 -0.825 0.19592
0.756813 0.1 -0.7875 0.203693
0.756814 0.1 0.7875 0.178826
0.67013 0.1 -0.8625 0.188542
0.67013 0.1 0.8625 0.164333
0.797314 0.1 -0.75 0.21221
0.797314 0.1 0.75 0.187022
0.623803 0.1 0.9 0.157873
0.835106 0.1 -0.7125 0.221162
0.835106 0.1 0.7125 0.195659
0.623803 0.1 -0.903998 0.182524
0.574156 0.1 0.9375 0.151764
0.574156 0.1 -0.9375 0.175296
1.02149 0.1 -0.406591 0.291147
1.02149 0.1 0.406591 0.268278
1.08012 0.1 -0.212982 0.323988
1.08012 0.1 0.212982 0.309222
1.10076 0.1 -0.0349809 0.333332
1.10076 0.1 0.0349809 0.330726
0.871687 0.1 -0.675 0.230331
0.871687 0.1 0.675 0.204639
1.04168 0.1 -0.364581 0.300911
1.04168 0.1 0.364581 0.279118
1.10076 0.1 -0.104943 0.333777
1.10076 0.1 0.104943 0.325895
0.522865 0.1 0.975 0.146301
0.522865 0.1 -0.975 0.169542
1.0579 0.1 -0.324472 0.309476
1.0579 0.1 0.324472 0.289166
0 0.1 -1.10701 0.16936
0 0.1 1.10701 0.148209
0.0363518 0.1 1.10701 0.148209
0.0363518 0.1 -1.10701 0.16936
0.90582 0.1 0.6375 0.21416
0.905821 0.1 -0.6375 0.240005
0.219992 0.1 1.0875 0.132055
0.219992 0.1 -1.0875 0.153278
0.93886 0.1 0.6 0.224314
0.93886 0.1 -0.6 0.250424
1.10076 0.1 -0.174905 0.332126
1.10076 0.1 0.174905 0.319116
0.467897 0.1 1.0125 0.141132
0.467897 0.1 -1.0125 0.164058
1.08012 0.1 -0.283976 0.318924
1.08012 0.1 0.283976 0.299884
1.11928 0.1 3.93204e-18 0.336936
0.990306 0.1 -0.525 0.269099
0.990306 0.1 0.525 0.243262
0.96969 0.1 -0.5625 0.261276
0.969689 0.1 0.5625 0.234921
1.11928 0.1 -0.0690357 0.338525
1.11928 0.1 0.0690357 0.333129
0 0.1 1.125 0.146824
0 0.1 -1.125 0.168129
0.411108 0.1 -1.05 0.159951
0.411108 0.1 1.05 0.137303
1.10076 0.1 0.244866 0.310483
1.10076 0.1 -0.244866 0.328102
1.11928 0.1 -0.138072 0.337977
1.11928 0.1 0.138072 0.327232
1.02149 0.1 0.480517 0.255776
1.02149 0.1 -0.480517 0.281521
1.0579 0.1 -0.396577 0.30147
1.0579 0.1 0.396577 0.277719
1.04168 0.1 -0.437497 0.292061
1.04168 0.1 0.437497 0.267091
0.150379 0.1 1.125 0.137783
0.150379 0.1 -1.125 0.159209
0.714971 0.1 0.88201 0.165493
1.08012 0.1 0.354971 0.289013
1.08012 0.1 -0.354971 0.311875
1.11928 0.1 -0.207107 0.335181
1.11928 0.1 0.207107 0.319423
0.350249 0.1 -1.0875 0.156152
0.350249 0.1 1.0875 0.133796
0 0.1 1.14299 0.145439
0 0.1 -1.14299 0.166899
0.0363518 0.1 1.14299 0.145439
0.0363518 0.1 -1.14299 0.166899
1.14316 0.1 -0.0339211 0.34523
1.14316 0.1 0.0339211 0.342425
0.797314 0.1 0.821002 0.177182
1.10076 0.1 -0.314829 0.322062
1.10076 0.1 0.314829 0.300198
0.797314 0.1 -0.825 0.203155
0.756814 0.1 -0.8625 0.195084
0.756814 0.1 0.8625 0.169082
1.14316 0.1 -0.101763 0.345782
1.14316 0.1 0.101763 0.337417
0.835106 0.1 -0.7875 0.211664
0.835106 0.1 0.7875 0.18486
0.871687 0.1 -0.75 0.22042
0.871687 0.1 0.75 0.193266
0.67013 0.1 0.9375 0.155656
0.67013 0.1 -0.9375 0.180815
0.90582 0.1 -0.7125 0.229663
0.905821 0.1 0.7125 0.202221
0.714971 0.1 -0.903998 0.188621
1.11928 0.1 0.276143 0.309851
1.11928 0.1 -0.276143 0.330161
1.14316 0.1 0.169605 0.330426
1.14316 0.1 -0.169605 0.344256
0.93886 0.1 -0.675 0.239807
0.93886 0.1 0.675 0.21198
1.15704 0.1 0 0.347603
1.0579 0.1 0.468682 0.265126
1.0579 0.1 -0.468682 0.291832
0.623803 0.1 0.975 0.149661
0.623803 0.1 -0.975 0.174424
0.990306 0.1 0.6 0.230301
0.990306 0.1 -0.6 0.258271
1.15704 0.1 -0.0671479 0.349359
1.15704 0.1 0.0671479 0.343588
1.04168 0.1 -0.510414 0.281715
1.04168 0.1 0.510414 0.254071
0.969689 0.1 -0.6375 0.250418
0.969689 0.1 0.6375 0.222173
1.08012 0.1 0.425965 0.276846
1.08012 0.1 -0.425965 0.303007
0.287374 0.1 -1.125 0.152051
0.287374 0.1 1.125 0.129937
1.02149 0.1 -0.554443 0.27057
1.02149 0.1 0.554443 0.242444
0.574156 0.1 1.0125 0.144007
0.574156 0.1 -1.0125 0.168369
1.15704 0.1 -0.134296 0.348962
1.15704 0.1 0.134296 0.337486
0.075776 0.1 1.1625 0.14394
0.075776 0.1 -1.1625 0.165567
1.10076 0.1 -0.384791 0.314008
1.10076 0.1 0.384791 0.288474
1.14316 0.1 -0.237448 0.340308
1.14316 0.1 0.237448 0.321566
1.11928 0.1 -0.345179 0.323099
1.11928 0.1 0.345179 0.298722
0.522865 0.1 1.05 0.138947
0.522865 0.1 -1.05 0.162951
1.15704 0.1 -0.201444 0.346309
1.15704 0.1 0.201444 0.329457
1.1744 0.1 -0.0331401 0.35393
1.1744 0.1 0.0331401 0.350913
1.1744 0.1 -0.0994202 0.354582
1.1744 0.1 0.0994202 0.345721
0 0.1 1.18201 0.142457
0 0.1 -1.18201 0.164223
0.0363518 0.1 1.18201 0.142457
0.0363518 0.1 -1.18201 0.164223
0.219992 0.1 1.1625 0.126253
0.219993 0.1 -1.1625 0.148115
1.14316 0.1 0.30529 0.311032
1.14316 0.1 -0.30529 0.334278
0.467897 0.1 1.0875 0.134165
0.467897 0.1 -1.0875 0.157795
1.1744 0.1 -0.1657 0.35328
1.1744 0.1 0.1657 0.338543
1.15704 0.1 -0.268592 0.341368
1.15704 0.1 0.268592 0.319654
1.0579 0.1 0.540787 0.251665
1.0579 0.1 -0.540787 0.280799
0.796996 0.1 0.88201 0.168983
1.08012 0.1 -0.496959 0.29258
1.08012 0.1 0.496959 0.263654
1.10076 0.1 0.454752 0.275569
1.10076 0.1 -0.454752 0.304244
1.11928 0.1 -0.414214 0.314137
1.11928 0.1 0.414214 0.286271
1.04168 0.1 -0.58333 0.27015
1.04168 0.1 0.58333 0.240336
1.1744 0.1 -0.231981 0.349426
1.1744 0.1 0.231981 0.32949
0.871687 0.1 0.821002 0.182347
0.411108 0.1 1.125 0.130718
0.411108 0.1 -1.125 0.154019
1.19808 0.1 1.73472e-17 0.359329
0.990306 0.1 0.675 0.216962
0.990306 0.1 -0.675 0.246638
1.02149 0.1 0.628368 0.228555
1.02149 0.1 -0.628368 0.258602
1.19808 0.1 -0.0650961 0.361293
1.19808 0.1 0.0650961 0.355075
0 0.1 1.2 0.141092
0 0.1 -1.2 0.162986
0.871687 0.1 -0.825 0.210224
0.905821 0.1 -0.7875 0.218978
0.90582 0.1 0.7875 0.190165
0.835106 0.1 -0.8625 0.201955
0.835106 0.1 0.8625 0.174089
0.93886 0.1 -0.75 0.228693
0.93886 0.1 0.75 0.199454
1.14316 0.1 -0.373132 0.32617
1.14316 0.1 0.373132 0.299035
0.969689 0.1 0.7125 0.209185
0.969689 0.1 -0.7125 0.238907
1.15704 0.1 -0.33574 0.334335
1.15704 0.1 0.33574 0.308278
0.756813 0.1 0.9375 0.15944
0.756814 0.1 -0.9375 0.186374
1.19808 0.1 0.130192 0.348754
1.19808 0.1 -0.130192 0.361094
0.797314 0.1 -0.903998 0.194922
0.714971 0.1 0.975 0.153073
0.714971 0.1 -0.975 0.179517
0.150379 0.1 1.2 0.132032
0.150379 0.1 -1.2 0.154048
1.20938 0.1 -0.0322656 0.363874
1.20938 0.1 0.0322656 0.360622
1.1744 0.1 -0.298261 0.343507
1.1744 0.1 0.298261 0.31876
1.20938 0.1 -0.0967968 0.364657
1.20938 0.1 0.0967968 0.355245
1.19808 0.1 -0.195288 0.358646
1.19808 0.1 0.195288 0.340497
0.350249 0.1 1.1625 0.127574
0.350249 0.1 -1.1625 0.15054
0.67013 0.1 1.0125 0.147093
0.67013 0.1 -1.0125 0.173034
0 0.1 1.21799 0.139728
0 0.1 -1.21799 0.161749
0.0363518 0.1 -1.21799 0.161749
0.0363518 0.1 1.21799 0.139728
1.11928 0.1 -0.48325 0.303532
1.11928 0.1 0.48325 0.272762
1.10076 0.1 -0.524714 0.292983
1.10076 0.1 0.524714 0.261758
1.20938 0.1 0.161328 0.347868
1.20938 0.1 -0.161328 0.36358
1.08012 0.1 0.567953 0.249707
1.08012 0.1 -0.567953 0.280854
0.623803 0.1 1.05 0.141579
0.623803 0.1 -1.05 0.167072
1.0579 0.1 -0.612892 0.268667
1.0579 0.1 0.612892 0.237603
1.15704 0.1 -0.402888 0.325326
1.15704 0.1 0.402888 0.295558
1.14316 0.1 0.440974 0.285823
1.14316 0.1 -0.440974 0.316261
1.19808 0.1 -0.260384 0.35386
1.19808 0.1 0.260384 0.330462
1.2267 0.1 3.57064e-18 0.367003
1.2267 0.1 -0.0636649 0.36912
1.2267 0.1 0.0636649 0.362581
1.1744 0.1 -0.364541 0.33543
1.1744 0.1 0.364541 0.306557
0.574156 0.1 1.0875 0.136386
0.574156 0.1 -1.0875 0.16143
1.20938 0.1 0.225859 0.338617
1.20938 0.1 -0.225859 0.35987
1.04168 0.1 -0.656246 0.257699
1.04168 0.1 0.656246 0.226158
1.2267 0.1 -0.12733 0.369069
1.2267 0.1 0.12733 0.356104
0.287374 0.1 1.2 0.123962
0.287374 0.1 -1.2 0.14665
1.02149 0.1 -0.702294 0.245978
1.02149 0.1 0.702294 0.214358
0.075776 0.1 -1.2375 0.160411
0.075776 0.1 1.2375 0.138251
0.871399 0.1 0.88201 0.173268
0.522865 0.1 1.125 0.131729
0.522865 0.1 -1.125 0.156357
1.2267 0.1 -0.190994 0.366772
1.2267 0.1 0.190994 0.347688
1.19808 0.1 -0.32548 0.34694
1.19808 0.1 0.32548 0.318849
0.990306 0.1 -0.75 0.234494
0.990306 0.1 0.75 0.203457
1.24274 0.1 -0.0314313 0.37317
1.24274 0.1 0.0314313 0.369691
1.20938 0.1 -0.29039 0.354094
1.20938 0.1 0.29039 0.327685
1.24274 0.1 -0.0942942 0.374114
1.24274 0.1 0.0942942 0.364128
0.93886 0.1 0.821002 0.187468
1.11928 0.1 -0.552285 0.291542
1.11928 0.1 0.552285 0.258464
1.15704 0.1 -0.470036 0.31459
1.15704 0.1 0.470036 0.281756
0.969689 0.1 -0.7875 0.227016
0.96969 0.1 0.7875 0.196093
0.93886 0.1 -0.825 0.217317
0.90582 0.1 0.8625 0.178204
0.905821 0.1 -0.8625 0.208117
1.1744 0.1 -0.430821 0.325501
1.1744 0.1 0.430821 0.293122
1.10076 0.1 -0.594676 0.280525
1.10076 0.1 0.594676 0.2473
1.14316 0.1 -0.508816 0.304763
1.14316 0.1 0.508816 0.271673
1.24274 0.1 -0.157157 0.373245
1.24274 0.1 0.157157 0.356553
1.2267 0.1 -0.254659 0.362113
1.2267 0.1 0.254659 0.337493
0.467897 0.1 1.1625 0.127334
0.467897 0.1 -1.1625 0.151535
1.08012 0.1 0.638947 0.235287
1.08012 0.1 -0.638947 0.268151
1.25511 0.1 -5.78241e-19 0.374616
0.835106 0.1 -0.9375 0.192206
0.835106 0.1 0.9375 0.163495
0.871687 0.1 -0.903998 0.200993
1.25511 0.1 0.0622446 0.370041
1.25511 0.1 -0.0622446 0.376876
0.219992 0.1 1.2375 0.120516
0.219992 0.1 -1.2375 0.14292
0 0.1 -1.25701 0.159069
0 0.1 1.25701 0.136798
0.0363518 0.1 -1.25701 0.159069
0.0363518 0.1 1.25701 0.136798
0.797314 0.1 0.975 0.156553
0.797314 0.1 -0.975 0.184738
1.19808 0.1 -0.390576 0.337966
1.19808 0.1 0.390576 0.305875
1.0579 0.1 -0.684997 0.255783
1.0579 0.1 0.684997 0.223227
1.20938 0.1 -0.354921 0.346099
1.20938 0.1 0.354921 0.315273
1.25511 0.1 0.124489 0.363421
1.25511 0.1 -0.124489 0.376966
1.24274 0.1 -0.220019 0.369707
1.24274 0.1 0.220019 0.347106
0.756813 0.1 1.0125 0.149994
0.756814 0.1 -1.0125 0.177675
1.2267 0.1 -0.318324 0.355296
1.2267 0.1 0.318324 0.325716
0.411108 0.1 1.2 0.124255
0.411108 0.1 -1.2 0.148091
1.25511 0.1 -0.186734 0.374806
1.25511 0.1 0.186734 0.354857
0.714971 0.1 1.05 0.144185
0.714971 0.1 -1.05 0.171313
1.04168 0.1 -0.729162 0.2447
1.04168 0.1 0.729162 0.211791
1.24274 0.1 0.282882 0.335976
1.24274 0.1 -0.282882 0.364088
0 0.1 1.275 0.135462
0 0.1 -1.275 0.157835
1.1744 0.1 0.497102 0.278735
1.1744 0.1 -0.497102 0.313902
1.15704 0.1 -0.537184 0.302383
1.15704 0.1 0.537184 0.26714
1.2756 0.1 -0.03061 0.382219
1.2756 0.1 0.03061 0.378534
0.67013 0.1 1.0875 0.13873
0.67013 0.1 -1.0875 0.165303
1.2756 0.1 -0.09183 0.383395
1.2756 0.1 0.09183 0.372777
1.25511 0.1 -0.248978 0.370271
1.25511 0.1 0.248978 0.344514
1.20938 0.1 0.419453 0.301615
1.20938 0.1 -0.419453 0.336179
1.11928 0.1 -0.621322 0.278491
1.11928 0.1 0.621322 0.243659
1.14316 0.1 -0.576659 0.29199
1.14316 0.1 0.576659 0.256843
1.19808 0.1 -0.455673 0.327184
1.19808 0.1 0.455673 0.291798
1.02149 0.1 0.776219 0.200124
1.02149 0.1 -0.776219 0.23298
0.150379 0.1 1.275 0.126371
0.150379 0.1 -1.275 0.148875
1.2756 0.1 -0.15305 0.382693
1.2756 0.1 0.15305 0.365003
1.2267 0.1 -0.381989 0.346378
1.2267 0.1 0.381989 0.312572
1.10076 0.1 -0.664638 0.267212
1.10076 0.1 0.664638 0.23251
0.350249 0.1 1.2375 0.121452
0.350249 0.1 -1.2375 0.144926
0.623803 0.1 1.125 0.13369
0.623803 0.1 -1.125 0.159771
0.9386 0.1 0.88201 0.177561
0.990306 0.1 0.825 0.190418
0.990306 0.1 -0.825 0.222114
1.24274 0.1 -0.345745 0.35621
1.24274 0.1 0.345745 0.323361
1.2906 0.1 0 0.384274
1.07933 0.1 0.709941 0.220653
1.2906 0.1 -0.0604698 0.386804
1.2906 0.1 0.0604698 0.379435
1.08012 0.1 -0.709941 0.254815
0 0.1 1.29299 0.134126
0 0.1 -1.29299 0.156601
1.25511 0.1 0.311223 0.332583
1.25511 0.1 -0.311223 0.363554
1.2756 0.1 -0.214269 0.379384
1.2756 0.1 0.214269 0.355362
0.0363518 0.1 1.29299 0.134126
0.0363518 0.1 -1.29299 0.156601
1.2906 0.1 -0.12094 0.387144
1.2906 0.1 0.12094 0.372566
0.574156 0.1 1.1625 0.128955
0.574157 0.1 -1.1625 0.154538
0.969689 0.1 0.8625 0.183167
0.969689 0.1 -0.8625 0.214977
1.0579 0.1 0.757102 0.208765
1.0579 0.1 -0.757102 0.242486
1.1744 0.1 -0.563382 0.300956
1.1744 0.1 0.563382 0.263654
1.20938 0.1 0.483984 0.286987
1.20938 0.1 -0.483984 0.324529
1.2906 0.1 -0.181409 0.385248
1.2906 0.1 0.181409 0.363751
0.93886 0.1 -0.903998 0.207072
0.90582 0.1 0.9375 0.166513
0.90582 0.1 -0.9375 0.19728
1.2756 0.1 0.275489 0.344035
1.2756 0.1 -0.275489 0.373929
1.2267 0.1 -0.445653 0.335605
1.2267 0.1 0.445653 0.298314
1.15704 0.1 -0.604332 0.289025
1.15704 0.1 0.604332 0.251981
1.19808 0.1 -0.520769 0.314837
1.19808 0.1 0.520769 0.276888
1.30646 0.1 0.0298385 0.386535
1.30646 0.1 -0.0298385 0.39043
0.287374 0.1 -1.275 0.14125
0.287374 0.1 1.275 0.118083
0.871687 0.1 0.975 0.159616
0.871687 0.1 -0.975 0.189688
1.24274 0.1 0.408607 0.309491
1.24274 0.1 -0.408607 0.346339
0.522865 0.1 1.2 0.124698
0.522865 0.1 -1.2 0.149819