# pMean  POINT_DATA 63840
# x  y  z  pMean
0 0.5 3.39583e-17 0.184345
0 0.5 -0.00617931 0.184423
0 0.5 0.00617931 0.184271
0.0124865 0.5 -0.00617931 0.184423
0.0124865 0.5 0.00617931 0.184271
0 0.5 -0.0688207 0.184956
0 0.5 0.0688207 0.183268
0.0124865 0.5 -0.0688207 0.184956
0.0124865 0.5 0.0688207 0.183268
0 0.5 -0.075 0.184984
0 0.5 0.075 0.183144
0 0.5 -0.0811793 0.185015
0 0.5 0.0811793 0.183023
0.0124865 0.5 -0.0811793 0.185015
0.0124865 0.5 0.0811793 0.183023
0.075776 0.5 -0.0375 0.184816
0.075776 0.5 0.0375 0.183895
0.075776 0.5 -0.1125 0.185171
0.075776 0.5 0.1125 0.182413
0 0.5 -0.143821 0.185066
0 0.5 0.143821 0.18155
0.0124865 0.5 -0.143821 0.185066
0.0124865 0.5 0.143821 0.18155
0 0.5 -0.15 0.185045
0 0.5 0.15 0.18138
0.151149 0.5 -0.00137318 0.184577
0 0.5 -0.156179 0.185027
0 0.5 0.156179 0.181212
0.0124865 0.5 -0.156179 0.185027
0.0124865 0.5 0.156179 0.181212
0.151149 0.5 0.075 0.183391
0.151149 0.5 -0.075 0.185258
0.075776 0.5 -0.1875 0.184939
0.075776 0.5 0.1875 0.180366
0.151149 0.5 0.15 0.181604
0.151149 0.5 -0.15 0.185328
0 0.5 -0.218821 0.184596
0 0.5 0.218821 0.179286
0.0124865 0.5 -0.218821 0.184596
0.0124865 0.5 0.218821 0.179286
0.219992 0.5 0.0375 0.184392
0.219993 0.5 -0.0375 0.185335
0 0.5 -0.225 0.184528
0 0.5 0.225 0.179072
0 0.5 -0.231179 0.184463
0 0.5 0.231179 0.178862
0.0124865 0.5 -0.231179 0.184463
0.0124865 0.5 0.231179 0.178862
0.219992 0.5 0.1125 0.182864
0.219993 0.5 -0.1125 0.185709
0.151149 0.5 -0.225 0.184805
0.151149 0.5 0.225 0.179268
0.075776 0.5 -0.2625 0.184137
0.075776 0.5 0.2625 0.177798
0.288069 0.5 -0.00137318 0.187859
0.219992 0.5 0.1875 0.180774
0.219993 0.5 -0.1875 0.185489
0 0.5 0.293821 0.176513
0 0.5 -0.293821 0.183566
0.0124865 0.5 -0.293821 0.183566
0.0124865 0.5 0.293821 0.176513
0.288069 0.5 -0.075 0.188589
0.288069 0.5 0.075 0.186618
0 0.5 -0.3 0.183453
0 0.5 0.3 0.176259
0 0.5 0.306179 0.176008
0 0.5 -0.306179 0.183343
0.0124865 0.5 -0.306179 0.183343
0.0124865 0.5 0.306179 0.176008
0.288069 0.5 -0.15 0.188636
0.288069 0.5 0.15 0.184705
0.151149 0.5 -0.3 0.183712
0.151149 0.5 0.3 0.176419
0.219992 0.5 -0.2625 0.184654
0.219992 0.5 0.2625 0.178139
0.075776 0.5 0.3375 0.174739
0.075776 0.5 -0.3375 0.182788
0.350249 0.5 -0.0375 0.191303
0.350249 0.5 0.0375 0.190282
0.288069 0.5 -0.225 0.188042
0.288069 0.5 0.225 0.182205
0.350249 0.5 0.1125 0.188593
0.350249 0.5 -0.1125 0.191662
0 0.5 0.368821 0.173267
0 0.5 -0.368821 0.182
0.0124865 0.5 -0.368821 0.182
0.0124865 0.5 0.368821 0.173267
0 0.5 -0.375 0.181844
0 0.5 0.375 0.172976
0 0.5 -0.381179 0.18169
0 0.5 0.381179 0.172687
0.0124865 0.5 -0.381179 0.18169
0.0124865 0.5 0.381179 0.172687
0.350249 0.5 -0.1875 0.191338
0.350249 0.5 0.1875 0.186261
0.219992 0.5 -0.3375 0.183267
0.219992 0.5 0.3375 0.17501
0.151149 0.5 -0.375 0.182079
0.151149 0.5 0.375 0.173097
0.411736 0.5 -0.00137318 0.194723
0.288069 0.5 -0.3 0.186833
0.288069 0.5 0.3 0.179157
0.411736 0.5 -0.075 0.195499
0.411736 0.5 0.075 0.193365
0.075776 0.5 -0.4125 0.180918
0.075776 0.5 0.4125 0.171231
0.350249 0.5 -0.2625 0.190349
0.350249 0.5 0.2625 0.183335
0.411736 0.5 -0.15 0.195489
0.411736 0.5 0.15 0.191242
0 0.5 -0.443821 0.179926
0 0.5 0.443821 0.16959
0.0124865 0.5 -0.443821 0.179926
0.0124865 0.5 0.443821 0.16959
0 0.5 -0.45 0.17973
0 0.5 0.45 0.169265
0 0.5 -0.456179 0.179536
0 0.5 0.456179 0.168943
0.0124865 0.5 -0.456179 0.179536
0.0124865 0.5 0.456179 0.168943
0.219992 0.5 -0.4125 0.181345
0.219993 0.5 0.4125 0.171422
0.411736 0.5 -0.225 0.19476
0.411736 0.5 0.225 0.188455
0.467897 0.5 0.0375 0.198011
0.467897 0.5 -0.0375 0.199124
0.288069 0.5 -0.375 0.185046
0.288069 0.5 0.375 0.175604
0.151149 0.5 -0.45 0.179936
0.151149 0.5 0.45 0.169344
0.467897 0.5 -0.1125 0.19947
0.467897 0.5 0.1125 0.196146
0.350249 0.5 0.3375 0.179853
0.350249 0.5 -0.3375 0.188737
0.075776 0.5 -0.4875 0.17856
0.075776 0.5 0.4875 0.167318
0.467897 0.5 -0.1875 0.199051
0.467897 0.5 0.1875 0.193552
0.411736 0.5 -0.3 0.193337
0.411736 0.5 0.3 0.185049
0 0.5 -0.518821 0.177382
0 0.5 0.518821 0.165527
0.0124865 0.5 0.518821 0.165527
0.0124865 0.5 -0.518821 0.177382
0.523432 0.5 -0.00137318 0.203242
0 0.5 -0.525 0.177149
0 0.5 0.525 0.165173
0.523432 0.5 -0.075 0.204075
0.523432 0.5 0.075 0.201741
0 0.5 -0.531179 0.176918
0 0.5 0.531179 0.164822
0.0124865 0.5 -0.531179 0.176918
0.0124865 0.5 0.531179 0.164822
0.288069 0.5 -0.45 0.182712
0.288069 0.5 0.45 0.171594
0.219992 0.5 -0.4875 0.178925
0.219993 0.5 0.4875 0.167424
0.467897 0.5 -0.2625 0.197875
0.467897 0.5 0.2625 0.190273
0.350249 0.5 -0.4125 0.186526
0.350249 0.5 0.4125 0.175863
0.523432 0.5 -0.15 0.204009
0.523432 0.5 0.15 0.199371
0.151149 0.5 -0.525 0.17732
0.151149 0.5 0.525 0.165207
0.411736 0.5 -0.375 0.191257
0.411736 0.5 0.375 0.181077
0.075776 0.5 -0.5625 0.175756
0.075776 0.5 0.5625 0.163046
0.523432 0.5 -0.225 0.203122
0.523432 0.5 0.225 0.196244
0.574156 0.5 -0.0375 0.208437
0.574156 0.5 0.0375 0.20721
0.467897 0.5 0.3375 0.186363
0.467897 0.5 -0.3375 0.195974
0.574156 0.5 -0.1125 0.208781
0.574156 0.5 0.1125 0.205122
0 0.5 -0.593821 0.174409
0 0.5 0.593821 0.161127
0.0124865 0.5 -0.593821 0.174409
0.0124865 0.5 0.593821 0.161127
0.288069 0.5 -0.525 0.179877
0.288069 0.5 0.525 0.167181
0 0.5 -0.6 0.174142
0 0.5 0.6 0.160748
0.350249 0.5 -0.4875 0.183765
0.350249 0.5 0.4875 0.171424
0.523432 0.5 -0.3 0.20144
0.523432 0.5 0.3 0.192411
0.219992 0.5 -0.5625 0.176048
0.219992 0.5 0.5625 0.163065
0.574156 0.5 -0.1875 0.208247
0.574156 0.5 0.1875 0.202205
0 0.5 -0.606179 0.173878
0 0.5 0.606179 0.160371
0.0124865 0.5 -0.606179 0.173878
0.0124865 0.5 0.606179 0.160371
0.411736 0.5 -0.45 0.188567
0.411736 0.5 0.45 0.176598
0.151149 0.5 -0.6 0.174274
0.151149 0.5 0.6 0.160736
0.62168 0.5 2.64545e-17 0.212815
0.467897 0.5 0.4125 0.181884
0.467897 0.5 -0.4125 0.1934
0.624316 0.5 0.0729402 0.211433
0.624316 0.5 -0.075 0.214015
0.574156 0.5 -0.2625 0.206841
0.574157 0.5 0.2625 0.198504
0.075776 0.5 -0.6375 0.172547
0.075776 0.5 0.6375 0.158467
0.624316 0.5 -0.15 0.213885
0.624316 0.5 0.15 0.208762
0.523432 0.5 -0.375 0.199008
0.523432 0.5 0.375 0.187939
0.350249 0.5 -0.5625 0.180503
0.350249 0.5 0.5625 0.166599
0.624316 0.5 -0.225 0.212812
0.624316 0.5 0.225 0.205226
0.288069 0.5 0.6 0.162423
0.288069 0.5 -0.6 0.176588
0.574156 0.5 -0.3375 0.204608
0.574156 0.5 0.3375 0.19409
0.411736 0.5 -0.525 0.185319
0.411736 0.5 0.525 0.171679
0 0.5 -0.668821 0.171051
0 0.5 0.668821 0.156441
0.0124865 0.5 -0.668821 0.171051
0.0124865 0.5 0.668821 0.156441
0.67013 0.5 0.0375 0.217629
0.67013 0.5 -0.0375 0.218993
0.219993 0.5 -0.6375 0.17276
0.219993 0.5 0.6375 0.158395
0 0.5 -0.675 0.170755
0 0.5 0.675 0.15604
0.467897 0.5 0.4875 0.176905
0.467897 0.5 -0.4875 0.190207
0.67013 0.5 -0.1125 0.219338
0.67013 0.5 0.1125 0.215274
0 0.5 -0.681179 0.170461
0 0.5 0.681179 0.155642
0.0124865 0.5 -0.681179 0.170461
0.0124865 0.5 0.681179 0.155642
0.523432 0.5 -0.45 0.195887
0.523432 0.5 0.45 0.182899
0.151149 0.5 -0.675 0.170844
0.151149 0.5 0.675 0.155981
0.624316 0.5 -0.3 0.210827
0.624316 0.5 0.3 0.200887
0.67013 0.5 0.1875 0.211969
0.67013 0.5 -0.1875 0.218666
0.574156 0.5 -0.4125 0.201612
0.574157 0.5 0.4125 0.189034
0.708171 0.5 1.88651e-17 0.223048
0.075776 0.5 -0.7125 0.16898
0.075776 0.5 0.7125 0.15363
0.715434 0.5 0.0736268 0.221947
0.715434 0.5 -0.075 0.224998
0.67013 0.5 0.2625 0.207767
0.67013 0.5 -0.2625 0.216998
0.350249 0.5 -0.6375 0.176798
0.350249 0.5 0.6375 0.16145
0.411736 0.5 -0.6 0.181574
0.411736 0.5 0.6 0.166387
0.624316 0.5 -0.375 0.207986
0.624316 0.5 0.375 0.195827
0.715434 0.5 -0.15 0.224797
0.715434 0.5 0.15 0.219101
0.467897 0.5 -0.5625 0.186458
0.467897 0.5 0.5625 0.171502
0.288069 0.5 -0.675 0.172897
0.288069 0.5 0.675 0.157377
0.523432 0.5 -0.525 0.192139
0.523432 0.5 0.525 0.177373
0 0.5 -0.743821 0.167355
0 0.5 0.743821 0.151518
0.0124865 0.5 -0.743821 0.167355
0.0124865 0.5 0.743821 0.151518
0.219992 0.5 0.7125 0.153467
0.219992 0.5 -0.7125 0.169106
0.715434 0.5 -0.225 0.223512
0.715434 0.5 0.225 0.215088
0 0.5 -0.75 0.167034
0 0.5 0.75 0.1511
0.67013 0.5 0.3375 0.202758
0.67013 0.5 -0.3375 0.214381
0.574156 0.5 -0.4875 0.197913
0.574156 0.5 0.4875 0.183422
0 0.5 -0.756179 0.166714
0 0.5 0.756179 0.150685
0.0124865 0.5 -0.756179 0.166714
0.0124865 0.5 0.756179 0.150685
0.756813 0.5 -0.0375 0.230404
0.756813 0.5 0.0375 0.228883
0.151149 0.5 -0.75 0.167076
0.151149 0.5 0.75 0.150994
0.756813 0.5 -0.1125 0.230753
0.756813 0.5 0.1125 0.226221
0.624316 0.5 -0.45 0.204359
0.624316 0.5 0.45 0.190131
0.715434 0.5 -0.3 0.221181
0.715434 0.5 0.3 0.210162
0.756813 0.5 0.1875 0.22247
0.756813 0.5 -0.1875 0.229931
0.67013 0.5 -0.4125 0.210884
0.67013 0.5 0.4125 0.197029
0.411736 0.5 -0.675 0.177396
0.411736 0.5 0.675 0.160795
0.467897 0.5 0.6375 0.16575
0.467897 0.5 -0.6375 0.182222
0.075776 0.5 -0.7875 0.165104
0.075776 0.5 0.7875 0.148587
0.350249 0.5 -0.7125 0.172709
0.350249 0.5 0.7125 0.156041
0.523432 0.5 -0.6 0.187841
0.523432 0.5 0.6 0.171444
0.797732 0.5 2.68882e-17 0.235666
0.756813 0.5 -0.2625 0.227966
0.756814 0.5 0.2625 0.217701
0.797732 0.5 0.0736268 0.2333
0.797732 0.5 -0.075 0.236651
0.288069 0.5 -0.75 0.16886
0.288069 0.5 0.75 0.152099
0.574156 0.5 -0.5625 0.193593
0.574157 0.5 0.5625 0.177346
0.715434 0.5 -0.375 0.217867
0.715434 0.5 0.375 0.204424
0.797732 0.5 -0.15 0.236381
0.797732 0.5 0.15 0.230019
0.624316 0.5 -0.525 0.200027
0.624316 0.5 0.525 0.183899
0.219992 0.5 -0.7875 0.165139
0.219992 0.5 0.7875 0.148332
0 0.5 -0.818821 0.16337
0 0.5 0.818821 0.14641
0.0124865 0.5 0.818821 0.14641
0.0124865 0.5 -0.818821 0.16337
0 0.5 -0.825 0.163026
0 0.5 0.825 0.145979
0.756813 0.5 0.3375 0.212006
0.756814 0.5 -0.3375 0.224909
0.67013 0.5 -0.4875 0.206594
0.67013 0.5 0.4875 0.190677
0.797732 0.5 -0.225 0.234865
0.797732 0.5 0.225 0.225472
0 0.5 -0.831179 0.162685
0 0.5 0.831179 0.145551
0.0124865 0.5 -0.831179 0.162685
0.0124865 0.5 0.831179 0.145551
0.835106 0.5 0.0375 0.240605
0.835106 0.5 -0.0375 0.242306
0.151149 0.5 -0.825 0.163021
0.151149 0.5 0.825 0.145825
0.835106 0.5 0.1125 0.237597
0.835106 0.5 -0.1125 0.242672
0.715434 0.5 -0.45 0.213656
0.715434 0.5 0.45 0.19798
0.797732 0.5 -0.3 0.232146
0.797732 0.5 0.3 0.21989
0.467897 0.5 0.7125 0.159727
0.467897 0.5 -0.7125 0.177572
0.523432 0.5 -0.675 0.183072
0.523432 0.5 0.675 0.165198
0.411736 0.5 -0.75 0.172852
0.411736 0.5 0.75 0.154972
0.835106 0.5 -0.1875 0.2417
0.835106 0.5 0.1875 0.23335
0.574156 0.5 -0.6375 0.188737
0.574157 0.5 0.6375 0.170899
0.350249 0.5 -0.7875 0.168296
0.350249 0.5 0.7875 0.150434
0.756813 0.5 -0.4125 0.220844
0.756814 0.5 0.4125 0.205518
0.075776 0.5 -0.8625 0.160965
0.075776 0.5 0.8625 0.143387
0.624316 0.5 0.6 0.177234
0.624316 0.5 -0.6 0.195083
0.872064 0.5 5.91974e-17 0.247641
0.870122 0.5 0.075 0.244641
0.288069 0.5 -0.825 0.16453
0.288069 0.5 0.825 0.146648
0.67013 0.5 -0.5625 0.201607
0.67013 0.5 0.5625 0.183825
0.872064 0.5 -0.075 0.248728
0.835106 0.5 -0.2625 0.239405
0.835106 0.5 0.2625 0.227954
0.797732 0.5 -0.375 0.228305
0.797732 0.5 0.375 0.213395
0.872064 0.5 0.14794 0.241281
0.872064 0.5 -0.15 0.248389
0.715434 0.5 -0.525 0.208653
0.715434 0.5 0.525 0.190945
0.219992 0.5 0.8625 0.14304
0.219993 0.5 -0.8625 0.160906
0 0.5 -0.893821 0.159141
0 0.5 0.893821 0.141165
0.0124865 0.5 -0.893821 0.159141
0.0124865 0.5 0.893821 0.141165
0 0.5 -0.9 0.15878
0 0.5 0.9 0.140725
0.756813 0.5 -0.4875 0.215883
0.756813 0.5 0.4875 0.198348
0.872064 0.5 -0.225 0.24662
0.872064 0.5 0.225 0.236147
0.835106 0.5 -0.3375 0.235865
0.835106 0.5 0.3375 0.221516
0 0.5 0.906179 0.140287
0 0.5 -0.906179 0.158421
0.0124865 0.5 -0.906179 0.158421
0.0124865 0.5 0.906179 0.140287
0.90582 0.5 -0.0375 0.254562
0.90582 0.5 0.0375 0.252669
0.151149 0.5 -0.9 0.158726
0.151149 0.5 0.9 0.140524
0.90582 0.5 -0.1125 0.254947
0.905821 0.5 0.1125 0.249283
0.523432 0.5 -0.75 0.177915
0.523432 0.5 0.75 0.158719
0.574156 0.5 -0.7125 0.183437
0.574156 0.5 0.7125 0.164175
0.797732 0.5 -0.45 0.22345
0.797732 0.5 0.45 0.206123
0.467897 0.5 0.7875 0.153507
0.467897 0.5 -0.7875 0.172583
0.624316 0.5 -0.675 0.189627
0.624316 0.5 0.675 0.170241
0.411736 0.5 -0.825 0.16801
0.411736 0.5 0.825 0.148984
0.872064 0.5 0.3 0.229851
0.872064 0.5 -0.3 0.243478
0.67013 0.5 -0.6375 0.19603
0.67013 0.5 0.6375 0.176582
0.90582 0.5 0.1875 0.244497
0.905821 0.5 -0.1875 0.253811
0.350249 0.5 -0.8625 0.163619
0.350249 0.5 0.8625 0.144689
0.835106 0.5 -0.4125 0.231185
0.835106 0.5 0.4125 0.214189
0.715434 0.5 -0.6 0.20297
0.715434 0.5 0.6 0.183447
0.939201 0.5 2.75387e-17 0.259657
0.075776 0.5 0.9375 0.138077
0.075776 0.5 -0.9375 0.15661
0.939111 0.5 0.075 0.256557
0.939201 0.5 -0.075 0.260864
0.756813 0.5 0.5625 0.190621
0.756814 0.5 -0.5625 0.210141
0.90582 0.5 0.2625 0.238416
0.905821 0.5 -0.2625 0.251151
0.288069 0.5 -0.9 0.159963
0.288069 0.5 0.9 0.141076
0.872064 0.5 -0.375 0.239066
0.872064 0.5 0.375 0.22253
0.939201 0.5 0.148627 0.2524
0.939201 0.5 -0.15 0.260472
0.797732 0.5 -0.525 0.217704
0.797732 0.5 0.525 0.198204
0.219992 0.5 0.9375 0.137643
0.219992 0.5 -0.9375 0.156457
0.939201 0.5 -0.225 0.258453
0.939201 0.5 0.225 0.246755
0.905821 0.5 -0.3375 0.247093
0.90582 0.5 0.3375 0.231173
0.835106 0.5 -0.4875 0.225497
0.835106 0.5 0.4875 0.206119
0 0.5 0.968821 0.13583
0 0.5 -0.968821 0.154715
0.0124865 0.5 -0.968821 0.154715
0.0124865 0.5 0.968821 0.13583
0.969689 0.5 -0.0375 0.266575
0.969689 0.5 0.0375 0.264464
0.574156 0.5 -0.7875 0.177784
0.574156 0.5 0.7875 0.157264
0 0.5 -0.975 0.15434
0 0.5 0.975 0.135386
0.624316 0.5 -0.75 0.183761
0.624316 0.5 0.75 0.163018
0.969689 0.5 -0.1125 0.26701
0.96969 0.5 0.1125 0.26066
0.523432 0.5 -0.825 0.172452
0.523432 0.5 0.825 0.152088
0.67013 0.5 0.7125 0.169061
0.67013 0.5 -0.7125 0.189976
0 0.5 -0.981179 0.153967
0 0.5 0.981179 0.134944
0.467897 0.5 0.8625 0.147164
0.467897 0.5 -0.8625 0.167328
0.0124865 0.5 -0.981179 0.153967
0.0124865 0.5 0.981179 0.134944
0.872064 0.5 -0.45 0.233508
0.872064 0.5 0.45 0.214351
0.715434 0.5 -0.675 0.196731
0.715434 0.5 0.675 0.175613
0.939201 0.5 -0.3 0.254872
0.939201 0.5 0.3 0.239698
0.151149 0.5 0.975 0.135143
0.151149 0.5 -0.975 0.154238
0.969689 0.5 -0.1875 0.265757
0.969689 0.5 0.1875 0.255298
0.756813 0.5 -0.6375 0.20375
0.756813 0.5 0.6375 0.182492
0.411736 0.5 -0.9 0.162935
0.411736 0.5 0.9 0.142897
0.90582 0.5 -0.4125 0.241743
0.90582 0.5 0.4125 0.222929
0.995005 0.5 0.0749309 0.26693
0.797732 0.5 -0.6 0.211203
0.797732 0.5 0.6 0.189795
1.00005 0.5 -8.47123e-18 0.271374
0.350249 0.5 -0.9375 0.158737
0.350249 0.5 0.9375 0.138864
1.00005 0.5 -0.0749309 0.272691
0.969689 0.5 -0.2625 0.262741
0.969689 0.5 0.2625 0.248498
0.835106 0.5 -0.5625 0.218936
0.835106 0.5 0.5625 0.197452
1.00005 0.5 -0.149862 0.272242
0.939201 0.5 -0.375 0.24986
0.939201 0.5 0.375 0.231506
1.00029 0.5 0.148988 0.263218
0.075776 0.5 -1.0125 0.152084
0.075776 0.5 1.0125 0.132709
0.288069 0.5 0.975 0.13544
0.288069 0.5 -0.975 0.155211
0.872064 0.5 -0.525 0.226953
0.872064 0.5 0.525 0.20548
1.00005 0.5 0.224793 0.256981
1.00005 0.5 -0.224793 0.269944
0.969689 0.5 0.3375 0.240419
0.96969 0.5 -0.3375 0.258163
1.0271 0.5 -0.0368226 0.278467
1.0271 0.5 0.0368226 0.276187
0.90582 0.5 0.4875 0.213888
0.905821 0.5 -0.4875 0.235256
1.0271 0.5 -0.110468 0.27893
1.0271 0.5 0.110468 0.27151
0.67013 0.5 0.7875 0.161366
0.67013 0.5 -0.7875 0.183557
0.624316 0.5 0.825 0.155661
0.624316 0.5 -0.825 0.177586
0.219993 0.5 -1.0125 0.151839
0.219993 0.5 1.0125 0.132197
0.574156 0.5 -0.8625 0.171868
0.574156 0.5 0.8625 0.150249
0.715434 0.5 -0.75 0.19006
0.715434 0.5 0.75 0.167558
0.756813 0.5 0.7125 0.174086
0.756814 0.5 -0.7125 0.196852
0.523432 0.5 -0.9 0.166764
0.523432 0.5 0.9 0.14538
0.939201 0.5 -0.45 0.243564
0.939201 0.5 0.45 0.222374
1.04168 0.5 0 0.280862
1.0271 0.5 -0.184113 0.277562
1.0271 0.5 0.184113 0.266133
0 0.5 -1.04382 0.150137
0 0.5 1.04382 0.130456
0.0124865 0.5 -1.04382 0.150137
0.0124865 0.5 1.04382 0.130456
1.00005 0.5 -0.299723 0.265873
1.00005 0.5 0.299723 0.249107
1.04168 0.5 -0.0729162 0.282254
1.04168 0.5 0.0729162 0.277582
0.797732 0.5 -0.675 0.204099
0.797732 0.5 0.675 0.181048
0.467897 0.5 0.9375 0.140764
0.467897 0.5 -0.9375 0.161877
0 0.5 -1.05 0.149752
0 0.5 1.05 0.13001
0.835106 0.5 -0.6375 0.211663
0.835106 0.5 0.6375 0.188376
1.04168 0.5 -0.145832 0.281841
1.04168 0.5 0.145832 0.272489
0.969689 0.5 -0.4125 0.252122
0.96969 0.5 0.4125 0.231248
0 0.5 -1.05618 0.149369
0 0.5 1.05618 0.129566
0.0124865 0.5 -1.05618 0.149369
0.0124865 0.5 1.05618 0.129566
1.05695 0.5 -0.0360764 0.285511
1.05695 0.5 0.0360764 0.283157
0.411736 0.5 -0.975 0.157691
0.411736 0.5 0.975 0.136771
0.872064 0.5 -0.6 0.219558
0.872064 0.5 0.6 0.196095
1.0271 0.5 -0.257759 0.274202
1.0271 0.5 0.257759 0.258675
0.151149 0.5 -1.05 0.149605
0.151149 0.5 1.05 0.129726
1.05695 0.5 0.108229 0.279445
1.05695 0.5 -0.108229 0.285986
1.04168 0.5 -0.218749 0.279496
1.04168 0.5 0.218749 0.26575
0.90582 0.5 -0.5625 0.227804
0.905821 0.5 0.5625 0.204221
1.00005 0.5 -0.374654 0.260204
1.00005 0.5 0.374654 0.239983
0.350249 0.5 1.0125 0.133011
0.350249 0.5 -1.0125 0.153704
1.05695 0.5 -0.180382 0.284719
1.05695 0.5 0.180382 0.272889
1.07319 0.5 0.0709442 0.284132
0.939201 0.5 -0.525 0.236164
0.939201 0.5 0.525 0.212502
1.0271 0.5 -0.331404 0.269144
1.0271 0.5 0.331404 0.249819
1.08112 0.5 3.23815e-17 0.290293
1.04168 0.5 -0.291665 0.27527
1.04168 0.5 0.291665 0.257513
1.08112 0.5 -0.0709442 0.291768
0.969689 0.5 -0.4875 0.244837
0.96969 0.5 0.4875 0.221209
1.05695 0.5 0.252535 0.265305
1.05695 0.5 -0.252535 0.281336
0.288069 0.5 -1.05 0.150328
0.288069 0.5 1.05 0.129785
0.075776 0.5 -1.0875 0.147434
0.075776 0.5 1.0875 0.127325
1.08112 0.5 -0.141888 0.291429
1.08145 0.5 0.140165 0.281259
0.715434 0.5 0.825 0.159396
0.715434 0.5 -0.825 0.183081
0.756813 0.5 0.7875 0.165529
0.756814 0.5 -0.7875 0.189581
0.67013 0.5 -0.8625 0.176883
0.67013 0.5 0.8625 0.153599
0.797732 0.5 -0.75 0.196545
0.797732 0.5 0.75 0.172098
0.624316 0.5 -0.9 0.171197
0.624316 0.5 0.9 0.14826
1.00005 0.5 -0.449585 0.253101
1.00005 0.5 0.449585 0.229833
0.835106 0.5 -0.7125 0.203845
0.835106 0.5 0.7125 0.179037
0.574156 0.5 -0.9375 0.165772
0.574157 0.5 0.9375 0.143211
1.10076 0.5 -0.0349809 0.296454
1.10076 0.5 0.0349809 0.293926
1.08112 0.5 -0.212832 0.289147
1.08112 0.5 0.212832 0.274718
0.872064 0.5 -0.675 0.211514
0.872064 0.5 0.675 0.186375
1.04168 0.5 -0.364581 0.269374
1.04168 0.5 0.364581 0.247973
1.0271 0.5 0.405049 0.23978
1.0271 0.5 -0.405049 0.262472
1.05695 0.5 -0.324688 0.276262
1.05695 0.5 0.324688 0.256306
1.10076 0.5 -0.104943 0.296982
1.10076 0.5 0.104943 0.28945
0.523432 0.5 0.975 0.138664
0.523432 0.5 -0.975 0.160925
0.90582 0.5 0.6375 0.194127
0.905821 0.5 -0.6375 0.219547
0.219992 0.5 1.0875 0.126734
0.219992 0.5 -1.0875 0.147106
1.11376 0.5 3.81639e-17 0.298388
0.939201 0.5 0.6 0.202103
0.939201 0.5 -0.6 0.227845
1.10076 0.5 -0.174905 0.295862
1.10076 0.5 0.174905 0.283257
0.467897 0.5 -1.0125 0.156298
0.467897 0.5 1.0125 0.134367
1.11376 0.5 -0.0693118 0.299951
1.11376 0.5 0.0693118 0.294826
1.08112 0.5 0.283777 0.266283
1.08112 0.5 -0.283777 0.28492
0 0.5 -1.11882 0.145454
0 0.5 1.11882 0.125082
0.0124865 0.5 -1.11882 0.145454
0.0124865 0.5 1.11882 0.125082
0.969689 0.5 -0.5625 0.23649
0.969689 0.5 0.5625 0.2105
1.11376 0.5 0.138624 0.288911
1.11376 0.5 -0.138624 0.299678
0 0.5 -1.125 0.145063
0 0.5 1.125 0.124639
1.10076 0.5 0.244866 0.275433
1.10076 0.5 -0.244866 0.292502
0.411736 0.5 -1.05 0.152338
0.411736 0.5 1.05 0.13066
1.05695 0.5 -0.396841 0.269508
1.05695 0.5 0.396841 0.246103
1.00005 0.5 -0.524516 0.244774
1.00005 0.5 0.524516 0.218896
1.04168 0.5 -0.437497 0.261956
1.04168 0.5 0.437497 0.237363
0 0.5 -1.13118 0.144673
0 0.5 1.13118 0.124197
0.0124865 0.5 -1.13118 0.144673
0.0124865 0.5 1.13118 0.124197
1.11376 0.5 -0.207935 0.297446
1.11376 0.5 0.207935 0.282323
1.0271 0.5 -0.478694 0.254426
1.0271 0.5 0.478694 0.228806
0.151149 0.5 -1.125 0.144874
0.151149 0.5 1.125 0.124311
1.08112 0.5 -0.354722 0.278974
1.08112 0.5 0.354722 0.25652
1.13882 0.5 -0.0340295 0.30602
1.13882 0.5 0.0340295 0.303339
0.350249 0.5 -1.0875 0.148579
0.350249 0.5 1.0875 0.127177
1.13882 0.5 -0.102088 0.306616
1.13882 0.5 0.102088 0.2988
1.10076 0.5 -0.314829 0.287429
1.10076 0.5 0.314829 0.266162
0.756813 0.5 -0.8625 0.182068
0.756814 0.5 0.8625 0.156941
0.797732 0.5 -0.825 0.188689
0.797732 0.5 0.825 0.16308
1.11376 0.5 -0.277247 0.293211
1.11376 0.5 0.277247 0.273673
0.835106 0.5 0.7875 0.169578
0.835106 0.5 -0.7875 0.195655
0.715434 0.5 -0.9 0.175908
0.715434 0.5 0.9 0.151233
0.872064 0.5 -0.75 0.203013
0.872064 0.5 0.75 0.176473
1.13882 0.5 0.170147 0.292267
1.13882 0.5 -0.170147 0.305542
0.67013 0.5 -0.9375 0.17005
0.67013 0.5 0.9375 0.14585
0.905821 0.5 -0.7125 0.210752
0.905821 0.5 0.7125 0.18379
1.05695 0.5 0.468994 0.234943
1.05695 0.5 -0.468994 0.261347
0.939201 0.5 -0.675 0.218828
0.939201 0.5 0.675 0.191397
0.624316 0.5 0.975 0.140893
0.624316 0.5 -0.975 0.164683
1.04168 0.5 -0.510414 0.25324
1.04168 0.5 0.510414 0.225938
0.969689 0.5 -0.6375 0.227301
0.96969 0.5 0.6375 0.199405
0.288069 0.5 -1.125 0.145363
0.288069 0.5 1.125 0.124148
1.16179 0.5 5.78241e-19 0.310994
1.08112 0.5 0.425666 0.245655
1.08112 0.5 -0.425666 0.271438
1.13882 0.5 -0.238206 0.302176
1.13882 0.5 0.238206 0.284175
1.16179 0.5 0.0669104 0.30794
1.16179 0.5 -0.0669104 0.312684
0.574156 0.5 -1.0125 0.159576
0.574156 0.5 1.0125 0.136216
0.075776 0.5 -1.1625 0.142705
0.075776 0.5 1.1625 0.121966
1.00005 0.5 -0.599447 0.235459
1.00005 0.5 0.599447 0.207425
1.10076 0.5 0.384791 0.255652
1.10076 0.5 -0.384791 0.280578
1.0271 0.5 -0.55234 0.245199
1.0271 0.5 0.55234 0.217158
1.11376 0.5 -0.346559 0.287209
1.11376 0.5 0.346559 0.263666
1.16179 0.5 -0.133821 0.312497
1.16179 0.5 0.133821 0.301568
0.523432 0.5 -1.05 0.155006
0.523432 0.5 1.05 0.132004
1.17463 0.5 -0.0331343 0.31565
1.17463 0.5 0.0331343 0.312797
1.17463 0.5 -0.0994029 0.316269
1.17463 0.5 0.0994029 0.307946
1.16179 0.5 -0.200731 0.310296
1.16179 0.5 0.200731 0.294122
1.13882 0.5 -0.306265 0.297023
1.13882 0.5 0.306265 0.274595
0.219992 0.5 -1.1625 0.142299
0.219992 0.5 1.1625 0.121285
0.467897 0.5 -1.0875 0.150652
0.467897 0.5 1.0875 0.128037
1.17463 0.5 0.165672 0.301302
1.17463 0.5 -0.165672 0.315339
1.05695 0.5 -0.541147 0.251965
1.05695 0.5 0.541147 0.223085
1.18772 0.5 -5.78241e-19 0.317873
1.11376 0.5 -0.41587 0.279555
1.11376 0.5 0.41587 0.252526
1.18772 0.5 -0.065614 0.319651
1.18772 0.5 0.065614 0.31363
1.08112 0.5 -0.49661 0.262552
1.08112 0.5 0.49661 0.233941
1.10076 0.5 -0.454752 0.272252
1.10076 0.5 0.454752 0.244145
1.18534 0.5 0.118202 0.308129
1.16179 0.5 -0.267642 0.305989
1.16179 0.5 0.267642 0.285093
0 0.5 -1.19382 0.140709
0 0.5 1.19382 0.119747
0.0124865 0.5 1.19382 0.119747
0.0124865 0.5 -1.19382 0.140709
1.04168 0.5 -0.58333 0.243465
1.04168 0.5 0.58333 0.213952
1.18772 0.5 -0.131228 0.31953
1.17463 0.5 -0.23194 0.311918
1.17463 0.5 0.23194 0.292935
0.411736 0.5 -1.125 0.146931
0.411736 0.5 1.125 0.124613
1.13882 0.5 -0.374324 0.290028
1.13882 0.5 0.374324 0.263735
0 0.5 -1.2 0.140314
0 0.5 1.2 0.119309
0.905821 0.5 0.7875 0.173356
0.905821 0.5 -0.7875 0.20159
0.872064 0.5 -0.825 0.194227
0.872064 0.5 0.825 0.166547
0.835106 0.5 0.8625 0.160145
0.835106 0.5 -0.8625 0.187241
0.939201 0.5 -0.75 0.209339
0.939201 0.5 0.75 0.180547
0.797732 0.5 -0.9 0.180667
0.797732 0.5 0.9 0.154116
1.0271 0.5 0.625985 0.205087
1.0271 0.5 -0.625985 0.2351
0.969689 0.5 0.7125 0.188137
0.96969 0.5 -0.7125 0.217503
1.18772 0.5 -0.196842 0.317377
1.18772 0.5 0.196842 0.300534
0.756814 0.5 -0.9375 0.174431
0.756814 0.5 0.9375 0.148427
0 0.5 1.20618 0.118871
0 0.5 -1.20618 0.139921
1.00005 0.5 -0.674378 0.225414
1.00005 0.5 0.674378 0.19566
0.0124865 0.5 1.20618 0.118871
0.0124865 0.5 -1.20618 0.139921
1.16179 0.5 -0.334552 0.299836
1.16179 0.5 0.334552 0.274651
0.715434 0.5 0.975 0.143155
0.715434 0.5 -0.975 0.168643
0.151149 0.5 -1.2 0.140083
0.151149 0.5 1.2 0.118937
1.20942 0.5 0.0322645 0.322592
1.20942 0.5 -0.0322645 0.325601
1.17463 0.5 -0.298209 0.306711
1.17463 0.5 0.298209 0.283037
1.20942 0.5 -0.0967935 0.326279
1.20942 0.5 0.0967935 0.317541
0.350249 0.5 -1.1625 0.143405
0.350249 0.5 1.1625 0.121398
0.67013 0.5 1.0125 0.138196
0.67013 0.5 -1.0125 0.163155
1.11376 0.5 0.485183 0.240506
1.11376 0.5 -0.485183 0.270494
1.18772 0.5 0.262456 0.291297
1.18772 0.5 -0.262456 0.313056
1.10076 0.5 -0.524714 0.262641
1.10076 0.5 0.524714 0.231899
1.20942 0.5 -0.161322 0.325465
1.20942 0.5 0.161322 0.31068
1.08112 0.5 -0.567554 0.25254
1.08112 0.5 0.567554 0.22163
0.624316 0.5 -1.05 0.158124
0.624316 0.5 1.05 0.133627
1.13882 0.5 -0.442383 0.281481
1.13882 0.5 0.442383 0.251837
1.05695 0.5 0.6133 0.210776
1.05695 0.5 -0.6133 0.241639
1.16179 0.5 -0.401463 0.291931
1.16179 0.5 0.401463 0.263022
0.574156 0.5 -1.0875 0.15335
0.574156 0.5 1.0875 0.129328
1.17463 0.5 0.364477 0.271819
1.17463 0.5 -0.364477 0.29956
1.20942 0.5 -0.225851 0.32205
1.20942 0.5 0.225851 0.302058
1.23036 0.5 -1.32995e-17 0.330488
1.2294 0.5 0.0634819 0.325513
1.04168 0.5 -0.656246 0.232925
1.04168 0.5 0.656246 0.201641
1.23036 0.5 -0.0634819 0.332391
1.18772 0.5 0.32807 0.28062
1.18772 0.5 -0.32807 0.306848
0.288069 0.5 -1.2 0.140351
0.288069 0.5 1.2 0.118568
1.23036 0.5 -0.126964 0.332372
1.23036 0.5 0.126964 0.320296
0.075776 0.5 -1.2375 0.137936
0.075776 0.5 1.2375 0.116664
0.523432 0.5 -1.125 0.149066
0.523432 0.5 1.125 0.125457
1.0271 0.5 -0.69963 0.224381
1.0271 0.5 0.69963 0.192806
1.24274 0.5 0.0314313 0.332446
1.24274 0.5 -0.0314313 0.335662
1.20942 0.5 0.29038 0.291864
1.20942 0.5 -0.29038 0.316806
1.11376 0.5 -0.554494 0.260258
1.11376 0.5 0.554494 0.227862
1.23036 0.5 -0.190445 0.330281
1.23036 0.5 0.190445 0.312419
1.24274 0.5 -0.0942942 0.336393
1.24274 0.5 0.0942942 0.327224
1.13882 0.5 0.510442 0.239168
1.13882 0.5 -0.510442 0.271578
0.969689 0.5 -0.7875 0.207336
0.969689 0.5 0.7875 0.176807
1.00005 0.5 -0.749309 0.214893
1.00005 0.5 0.749309 0.183788
0.939201 0.5 -0.825 0.199584
0.939201 0.5 0.825 0.16972
0.90582 0.5 0.8625 0.163011
0.90582 0.5 -0.8625 0.192243
1.17463 0.5 -0.430746 0.290802
1.17463 0.5 0.430746 0.259523
1.10076 0.5 -0.594676 0.251999
1.10076 0.5 0.594676 0.219161
1.18772 0.5 -0.393684 0.298833
1.18772 0.5 0.393684 0.268727
1.24274 0.5 -0.157157 0.33572
1.24274 0.5 0.157157 0.320145
1.16179 0.5 -0.468373 0.282528
1.16179 0.5 0.468373 0.250463
0.467897 0.5 -1.1625 0.144996
0.467897 0.5 1.1625 0.121822
0.872064 0.5 -0.9 0.185314
0.872064 0.5 0.9 0.156742
1.25401 0.5 2.08167e-17 0.337291
0.835106 0.5 0.9375 0.150857
0.835106 0.5 -0.9375 0.178752
1.25401 0.5 -0.0622994 0.339294
1.25401 0.5 0.0622994 0.332846
1.08112 0.5 -0.638498 0.241696
1.08112 0.5 0.638498 0.208975
1.23036 0.5 -0.253927 0.325931
1.23036 0.5 0.253927 0.302849
0.219992 0.5 1.2375 0.115903
0.219992 0.5 -1.2375 0.137444
1.25309 0.5 0.121964 0.326814
1.05695 0.5 0.685452 0.198244
1.05695 0.5 -0.685452 0.230681
0.797732 0.5 0.975 0.145301
0.797732 0.5 -0.975 0.172599
1.25401 0.5 -0.124599 0.339348
1.20942 0.5 -0.354909 0.30954
1.20942 0.5 0.354909 0.280312
1.24274 0.5 -0.220019 0.332324
1.24274 0.5 0.220019 0.311265
0.756814 0.5 -1.0125 0.166774
0.756813 0.5 1.0125 0.140065
1.25401 0.5 -0.186898 0.337327
1.25401 0.5 0.186898 0.318767
0.411736 0.5 -1.2 0.141514
0.411736 0.5 1.2 0.118666
0 0.5 -1.26882 0.13594
0 0.5 1.26882 0.114482
0.0124865 0.5 1.26882 0.114482
0.0124865 0.5 -1.26882 0.13594
0.715434 0.5 -1.05 0.16138
0.715434 0.5 1.05 0.135237
1.23036 0.5 -0.31741 0.319615
1.23036 0.5 0.31741 0.291786
1.04168 0.5 -0.729162 0.221898
1.04168 0.5 0.729162 0.189221
1.18772 0.5 -0.459298 0.289268
1.18772 0.5 0.459298 0.255879
1.24274 0.5 -0.282882 0.327063
1.24274 0.5 0.282882 0.300776
0 0.5 -1.275 0.135545
0 0.5 1.275 0.114051
1.27472 0.5 -0.0306319 0.345737
1.27472 0.5 0.0306319 0.342357
1.17463 0.5 0.497015 0.246424
1.17463 0.5 -0.497015 0.280605
1.11376 0.5 -0.623806 0.249132
1.11376 0.5 0.623806 0.214859
1.13882 0.5 -0.578501 0.260606
1.13882 0.5 0.578501 0.225984
0.67013 0.5 -1.0875 0.156271
0.67013 0.5 1.0875 0.130703
1.27472 0.5 -0.0918959 0.346588
1.27472 0.5 0.0918959 0.335413
1.25401 0.5 -0.249197 0.332993
1.25401 0.5 0.249197 0.309001
1.16179 0.5 -0.535284 0.271866
1.16179 0.5 0.535284 0.237242
1.20942 0.5 -0.419438 0.300589
1.20942 0.5 0.419438 0.267637
0 0.5 -1.28118 0.135152
0 0.5 1.28118 0.113621
0.0124865 0.5 1.28118 0.113621
0.0124865 0.5 -1.28118 0.135152
1.27472 0.5 0.15316 0.329662
1.27472 0.5 -0.15316 0.34598
0.151149 0.5 -1.275 0.13527
0.151149 0.5 1.275 0.113639
1.0271 0.5 0.773275 0.180521
1.0271 0.5 -0.773275 0.213325
1.10076 0.5 0.664638 0.206213
1.10076 0.5 -0.664638 0.240652
0.350249 0.5 -1.2375 0.138215
0.350249 0.5 1.2375 0.115706
0.624316 0.5 -1.125 0.151589
0.624316 0.5 1.125 0.126523
1.23036 0.5 0.380892 0.27945
1.23036 0.5 -0.380892 0.311394
1.24274 0.5 -0.345745 0.319698
1.24274 0.5 0.345745 0.288887
1.2906 0.5 0 0.349283
1.2906 0.5 -0.0604698 0.351459
1.2906 0.5 0.0604698 0.344774
1.25401 0.5 -0.311497 0.326653
1.25401 0.5 0.311497 0.297716
1.27472 0.5 -0.214423 0.342665
1.27472 0.5 0.214423 0.320538
1.08112 0.5 0.709442 0.196203
1.08112 0.5 -0.709442 0.230321
1.00005 0.5 -0.824239 0.204148
1.00005 0.5 0.824239 0.171982
1.2906 0.5 -0.12094 0.351643
1.2906 0.5 0.12094 0.338316
0.574156 0.5 -1.1625 0.14715
0.574156 0.5 1.1625 0.122601
0.969689 0.5 -0.8625 0.197023
0.96969 0.5 0.8625 0.165635
1.18772 0.5 0.524912 0.242347
1.18772 0.5 -0.524912 0.278393
1.05695 0.5 -0.757605 0.219361
1.05695 0.5 0.757605 0.185705
0.939201 0.5 -0.9 0.189752
0.939201 0.5 0.9 0.159106
1.30091 0.5 -0.0299772 0.354359
1.30091 0.5 0.0299772 0.350831
1.20942 0.5 -0.483967 0.290129
1.20942 0.5 0.483967 0.25412
1.17463 0.5 -0.563284 0.269282
1.17463 0.5 0.563284 0.232789
1.2906 0.5 -0.181409 0.34975
1.2906 0.5 0.181409 0.329979
0.90582 0.5 0.9375 0.152888
0.90582 0.5 -0.9375 0.182875
1.30091 0.5 -0.0899316 0.355331
1.30091 0.5 0.0899316 0.342929
1.27472 0.5 0.275687 0.309765
1.27472 0.5 -0.275687 0.337378
0.288069 0.5 -1.275 0.135329
0.288069 0.5 1.275 0.11308
0.872064 0.5 -0.975 0.176414
0.872064 0.5 0.975 0.147162
1.23036 0.5 -0.444373 0.301527