# UMean  POINT_DATA 63140
# x  y  z  UMean_x  UMean_y  UMean_z
0 0.1 0 0.939693 0 0.34202
0 0.1 -0.0179898 0.939693 0 0.34202
0 0.1 0.0179898 0.939693 0 0.34202
0.0363518 0.1 0.0179898 0.942625 0.00729556 0.342648
0.0363518 0.1 -0.0179898 0.9426 0.00729525 0.342245
0 0.1 -0.0570102 0.939693 0 0.34202
0 0.1 0.0570102 0.939693 0 0.34202
0.0363518 0.1 0.0570102 0.942625 0.00729556 0.342648
0.0363518 0.1 -0.0570102 0.9426 0.00729525 0.342245
0 0.1 -0.075 0.939693 0 0.34202
0 0.1 0.075 0.939693 0 0.34202
0.075776 0.1 -0.0375 0.945796 0.0153311 0.342484
0.075776 0.1 0.0375 0.945851 0.0153317 0.343324
0 0.1 -0.0929898 0.939693 0 0.34202
0 0.1 0.0929898 0.939693 0 0.34202
0.0363518 0.1 -0.0929898 0.94254 0.00726569 0.34185
0.0363518 0.1 0.0929898 0.942625 0.00727666 0.343029
0 0.1 -0.13201 0.939693 0 0.34202
0 0.1 0.13201 0.939693 0 0.34202
0.075776 0.1 -0.1125 0.945672 0.015271 0.34166
0.075776 0.1 0.1125 0.94585 0.015293 0.344121
0.0363518 0.1 -0.13201 0.94254 0.00726569 0.34185
0.0363518 0.1 0.13201 0.942625 0.00727666 0.343029
0 0.1 -0.15 0.939693 0 0.34202
0 0.1 0.15 0.939693 0 0.34202
0.150379 0.1 -2.22623e-17 0.947787 0.0146647 0.343191
0 0.1 -0.16799 0.939693 0 0.34202
0 0.1 0.16799 0.939693 0 0.34202
0.150379 0.1 -0.075 0.947825 0.014622 0.341779
0.150379 0.1 0.075 0.947856 0.0146738 0.344589
0.0363518 0.1 -0.16799 0.942475 0.00722757 0.341451
0.0363518 0.1 0.16799 0.942587 0.00724143 0.343401
0.075776 0.1 -0.1875 0.945538 0.0151941 0.340828
0.075776 0.1 0.1875 0.945773 0.0152218 0.344895
0 0.1 -0.20701 0.939693 0 0.34202
0 0.1 0.20701 0.939693 0 0.34202
0.0363518 0.1 -0.20701 0.942475 0.00722757 0.341451
0.0363518 0.1 0.20701 0.942587 0.00724143 0.343401
0.150379 0.1 -0.15 0.947981 0.014563 0.340362
0.150379 0.1 0.15 0.948021 0.0146472 0.345963
0.219993 0.1 -0.0375 0.949666 0.014007 0.342487
0.219993 0.1 0.0375 0.949661 0.0140578 0.344443
0 0.1 -0.225 0.939693 0 0.34202
0 0.1 0.225 0.939693 0 0.34202
0 0.1 -0.24299 0.939693 0 0.34202
0 0.1 0.24299 0.939693 0 0.34202
0.0363518 0.1 0.24299 0.942539 0.00720083 0.343748
0.0363518 0.1 -0.24299 0.942434 0.00719866 0.341072
0.219993 0.1 -0.1125 0.949979 0.013949 0.340511
0.219993 0.1 0.1125 0.949883 0.014079 0.34639
0.150379 0.1 -0.225 0.948205 0.0145122 0.338963
0.150379 0.1 0.225 0.948268 0.0145908 0.347311
0.075776 0.1 -0.2625 0.945455 0.0151356 0.340037
0.075776 0.1 0.2625 0.945674 0.0151396 0.345619
0 0.1 -0.28201 0.939693 0 0.34202
0 0.1 0.28201 0.939693 0 0.34202
0.0363518 0.1 -0.28201 0.942434 0.00719866 0.341072
0.0363518 0.1 0.28201 0.942539 0.00720083 0.343748
0.287374 0.1 -2.89121e-19 0.946723 0.0135569 0.343483
0.219992 0.1 0.1875 0.950382 0.0140587 0.348316
0.219992 0.1 -0.1875 0.950526 0.013907 0.338529
0.287374 0.1 -0.075 0.946877 0.0135186 0.340936
0.287374 0.1 0.075 0.946818 0.0135893 0.34601
0 0.1 -0.3 0.939693 0 0.34202
0 0.1 0.3 0.939693 0 0.34202
0 0.1 0.31799 0.939693 0 0.34202
0 0.1 -0.31799 0.939693 0 0.34202
0.0363518 0.1 -0.31799 0.942408 0.00717081 0.34072
0.0363518 0.1 0.31799 0.9425 0.0071647 0.34407
0.287374 0.1 0.15 0.947152 0.0136005 0.348515
0.287374 0.1 -0.15 0.947285 0.0134834 0.33838
0.150379 0.1 -0.3 0.948417 0.0144663 0.337634
0.150379 0.1 0.3 0.948534 0.0145178 0.3486
0.219993 0.1 0.2625 0.951017 0.0140053 0.350226
0.219993 0.1 -0.2625 0.951063 0.0138798 0.336589
0.075776 0.1 -0.3375 0.945403 0.0150785 0.339303
0.075776 0.1 0.3375 0.945596 0.0150659 0.346291
0.350249 0.1 -0.0375 0.943929 0.0130896 0.341956
0.350249 0.1 0.0375 0.943901 0.0131164 0.345043
0 0.1 -0.35701 0.939693 0 0.34202
0 0.1 0.35701 0.939693 0 0.34202
0.0363518 0.1 -0.35701 0.942408 0.00717081 0.34072
0.0363518 0.1 0.35701 0.9425 0.0071647 0.34407
0.287374 0.1 -0.225 0.947843 0.0134459 0.335856
0.287374 0.1 0.225 0.947709 0.0135751 0.350989
0.350249 0.1 -0.1125 0.9442 0.0130708 0.338839
0.350249 0.1 0.1125 0.944093 0.0131474 0.348111
0 0.1 -0.375 0.939693 0 0.34202
0 0.1 0.375 0.939693 0 0.34202
0 0.1 -0.39299 0.939693 0 0.34202
0 0.1 0.39299 0.939693 0 0.34202
0.0363518 0.1 -0.39299 0.942394 0.00714274 0.340399
0.0363518 0.1 0.39299 0.942473 0.00713036 0.344352
0.350249 0.1 -0.1875 0.944702 0.0130474 0.33574
0.350249 0.1 0.1875 0.944517 0.0131595 0.351142
0.219992 0.1 -0.3375 0.951482 0.013838 0.33479
0.219992 0.1 0.3375 0.951591 0.013922 0.352026
0.150379 0.1 0.375 0.948784 0.0144366 0.349804
0.150379 0.1 -0.375 0.948613 0.0144145 0.336402
0.411108 0.1 4.33681e-19 0.938936 0.0133578 0.343243
0.287374 0.1 -0.3 0.948417 0.0133898 0.333442
0.287374 0.1 0.3 0.948388 0.0135062 0.353387
0.411108 0.1 -0.075 0.939124 0.0133356 0.339493
0.411108 0.1 0.075 0.93902 0.0133834 0.346973
0.075776 0.1 -0.4125 0.945375 0.0150212 0.338635
0.075776 0.1 0.4125 0.945542 0.0149955 0.346878
0 0.1 0.43201 0.939693 0 0.34202
0 0.1 -0.43201 0.939693 0 0.34202
0.0363518 0.1 0.43201 0.942473 0.00713036 0.344352
0.0363518 0.1 -0.43201 0.942394 0.00714274 0.340399
0.411108 0.1 -0.15 0.939583 0.0133089 0.335763
0.411108 0.1 0.15 0.939372 0.0134024 0.350659
0.350249 0.1 -0.2625 0.945347 0.0129906 0.332711
0.350249 0.1 0.2625 0.945191 0.0131188 0.354124
0 0.1 -0.45 0.939693 0 0.34202
0 0.1 0.45 0.939693 0 0.34202
0.219992 0.1 0.4125 0.952122 0.0138258 0.35373
0.219992 0.1 -0.4125 0.951905 0.0137868 0.333113
0 0.1 -0.46799 0.939693 0 0.34202
0 0.1 0.46799 0.939693 0 0.34202
0.411108 0.1 -0.225 0.940274 0.0132582 0.332119
0.411108 0.1 0.225 0.940006 0.0133881 0.354273
0.467897 0.1 -0.0375 0.934199 0.01359 0.34081
0.467897 0.1 0.0375 0.93413 0.0136113 0.345184
0.0363518 0.1 0.46799 0.942457 0.0071041 0.344597
0.0363518 0.1 -0.46799 0.942396 0.00711956 0.340104
0.287374 0.1 -0.375 0.948983 0.0133107 0.331194
0.287374 0.1 0.375 0.949099 0.0134025 0.355644
0.150379 0.1 0.45 0.949025 0.0143592 0.350891
0.150379 0.1 -0.45 0.948812 0.0143599 0.335272
0.467897 0.1 0.1125 0.934371 0.0136348 0.349521
0.467897 0.1 -0.1125 0.934581 0.013568 0.336442
0.350249 0.1 -0.3375 0.946036 0.0128941 0.329869
0.350249 0.1 0.3375 0.946017 0.013021 0.356975
0.075776 0.1 -0.4875 0.945382 0.014974 0.338019
0.075776 0.1 0.4875 0.945508 0.0149421 0.34739
0.467897 0.1 0.1875 0.934919 0.0136445 0.353776
0.467897 0.1 -0.1875 0.935257 0.0135259 0.332157
0 0.1 -0.50701 0.939693 0 0.34202
0 0.1 0.50701 0.939693 0 0.34202
0.0363518 0.1 -0.50701 0.942396 0.00711956 0.340104
0.0363518 0.1 0.50701 0.942457 0.0071041 0.344597
0.411108 0.1 0.3 0.940903 0.0133194 0.357764
0.411108 0.1 -0.3 0.941121 0.0131673 0.328645
0.522865 0.1 1.41031e-17 0.927834 0.0142088 0.342496
0 0.1 -0.525 0.939693 0 0.34202
0 0.1 0.525 0.939693 0 0.34202
0.522865 0.1 -0.075 0.92812 0.0141781 0.337445
0.522865 0.1 0.075 0.927921 0.0142291 0.347542
0.287374 0.1 0.45 0.949812 0.0132759 0.35771
0.287374 0.1 -0.45 0.949547 0.0132114 0.329138
0.219992 0.1 0.4875 0.952614 0.0137378 0.355224
0.219992 0.1 -0.4875 0.952282 0.0137246 0.331597
0.467897 0.1 -0.2625 0.936188 0.0134463 0.328039
0.467897 0.1 0.2625 0.935803 0.0136061 0.357914
0.350249 0.1 -0.4125 0.946756 0.0127698 0.327242
0.350249 0.1 0.4125 0.946914 0.0128848 0.359604
0 0.1 -0.54299 0.939693 0 0.34202
0 0.1 0.54299 0.939693 0 0.34202
0.522865 0.1 0.15 0.928379 0.0142356 0.352518
0.522865 0.1 -0.15 0.92877 0.0141252 0.33247
0.0363518 0.1 0.54299 0.942458 0.00708043 0.34482
0.0363518 0.1 -0.54299 0.942413 0.00709671 0.33983
0.150379 0.1 -0.525 0.949 0.0143014 0.334254
0.150379 0.1 0.525 0.94924 0.0142872 0.351824
0.411108 0.1 -0.375 0.942062 0.0130357 0.325415
0.411108 0.1 0.375 0.941987 0.0131979 0.361049
0.075776 0.1 -0.5625 0.945415 0.0149273 0.33745
0.075776 0.1 0.5625 0.94551 0.014894 0.347854
0.522865 0.1 -0.225 0.929752 0.0140351 0.327666
0.522865 0.1 0.225 0.929217 0.0142082 0.357367
0.574156 0.1 0.0375 0.921685 0.0148039 0.344878
0.574157 0.1 -0.0375 0.921814 0.0147772 0.339149
0.467897 0.1 -0.3375 0.937298 0.0133167 0.324175
0.467897 0.1 0.3375 0.936993 0.0135081 0.361862
0 0.1 -0.58201 0.939693 0 0.34202
0 0.1 0.58201 0.939693 0 0.34202
0.0363518 0.1 -0.58201 0.942413 0.00709671 0.33983
0.0363518 0.1 0.58201 0.942458 0.00708043 0.34482
0.574157 0.1 -0.1125 0.922375 0.0147253 0.333471
0.574157 0.1 0.1125 0.921989 0.0148138 0.350568
0.287374 0.1 -0.525 0.950085 0.0130954 0.327302
0.287374 0.1 0.525 0.95048 0.0131336 0.359525
0 0.1 -0.6 0.939693 0 0.34202
0 0.1 0.6 0.939693 0 0.34202
0.350249 0.1 0.4875 0.947829 0.0127017 0.362001
0.350249 0.1 -0.4875 0.947477 0.0126144 0.324875
0.522865 0.1 -0.3 0.931012 0.013896 0.323125
0.522865 0.1 0.3 0.930436 0.0141254 0.362029
0.219992 0.1 -0.5625 0.9526 0.0136478 0.330264
0.219992 0.1 0.5625 0.952995 0.0136412 0.356449
0.574156 0.1 -0.1875 0.923344 0.0146315 0.327948
0.574156 0.1 0.1875 0.922722 0.0147975 0.356139
0.411108 0.1 0.45 0.943179 0.0130251 0.36407
0.411108 0.1 -0.45 0.94306 0.0128691 0.322475
0 0.1 -0.61799 0.939693 0 0.34202
0 0.1 0.61799 0.939693 0 0.34202
0.150379 0.1 -0.6 0.949186 0.0142378 0.333349
0.150379 0.1 0.6 0.949439 0.014212 0.352612
0.0363518 0.1 -0.61799 0.942432 0.00707335 0.339585
0.0363518 0.1 0.61799 0.942469 0.00705479 0.345019
0.467897 0.1 -0.4125 0.938523 0.0131427 0.320629
0.467897 0.1 0.4125 0.938398 0.0133545 0.365529
0.623803 0.1 2.34188e-17 0.914395 0.0156935 0.34131
0.623803 0.1 0.075 0.914477 0.0157141 0.347744
0.623803 0.1 -0.075 0.914828 0.015637 0.334899
0.574156 0.1 0.2625 0.9239 0.0147339 0.361521
0.574156 0.1 -0.2625 0.924685 0.0144887 0.322706
0.623803 0.1 0.15 0.915074 0.0157009 0.354094
0.623803 0.1 -0.15 0.915762 0.0155335 0.328627
0.075776 0.1 0.6375 0.945534 0.0148418 0.348268
0.075776 0.1 -0.6375 0.945455 0.0148795 0.33694
0.522865 0.1 -0.375 0.932475 0.0137045 0.318923
0.522865 0.1 0.375 0.931986 0.0139802 0.366417
0 0.1 0.65701 0.939693 0 0.34202
0 0.1 -0.65701 0.939693 0 0.34202
0.0363518 0.1 0.65701 0.942469 0.00705479 0.345019
0.0363518 0.1 -0.65701 0.942432 0.00707335 0.339585
0.350249 0.1 0.5625 0.948694 0.0125044 0.364106
0.350249 0.1 -0.5625 0.948194 0.0124486 0.322784
0.623803 0.1 0.225 0.916183 0.0156425 0.360267
0.623803 0.1 -0.225 0.917159 0.0153744 0.322621
0.287374 0.1 -0.6 0.950618 0.01297 0.32569
0.287374 0.1 0.6 0.951098 0.0129841 0.36107
0.574157 0.1 -0.3375 0.926322 0.0142873 0.317807
0.574157 0.1 0.3375 0.925513 0.0146039 0.366653
0.411108 0.1 0.525 0.944405 0.0128107 0.366783
0.411108 0.1 -0.525 0.944093 0.0126769 0.319857
0.67013 0.1 0.0375 0.907194 0.0165827 0.344204
0.67013 0.1 -0.0375 0.907417 0.0165371 0.337058
0.219992 0.1 -0.6375 0.952939 0.0135662 0.329089
0.219993 0.1 0.6375 0.953366 0.0135397 0.357466
0 0.1 -0.675 0.939693 0 0.34202
0 0.1 0.675 0.939693 0 0.34202
0.467897 0.1 -0.4875 0.939827 0.0129319 0.317445
0.467897 0.1 0.4875 0.939927 0.0131375 0.368876
0.67013 0.1 -0.1125 0.908231 0.0164367 0.330017
0.67013 0.1 0.1125 0.907571 0.0165828 0.351323
0.522865 0.1 0.45 0.933775 0.0137702 0.370457
0.522865 0.1 -0.45 0.934087 0.0134676 0.315123
0.150379 0.1 0.675 0.949646 0.0141335 0.353275
0.150379 0.1 -0.675 0.949384 0.0141727 0.332555
0.623803 0.1 0.3 0.917806 0.0155217 0.366182
0.623803 0.1 -0.3 0.918956 0.0151538 0.316979
0 0.1 -0.69299 0.939693 0 0.34202
0 0.1 0.69299 0.939693 0 0.34202
0.0363518 0.1 -0.69299 0.94245 0.00705242 0.339372
0.0363518 0.1 0.69299 0.942484 0.00702936 0.345188
0.67013 0.1 -0.1875 0.909609 0.0162713 0.32322
0.67013 0.1 0.1875 0.908536 0.0165368 0.358294
0.574156 0.1 0.4125 0.927485 0.0144062 0.371414
0.574157 0.1 -0.4125 0.928181 0.0140294 0.313346
0.714971 0.1 -2.8382e-17 0.899178 0.0177302 0.339756
0.075776 0.1 -0.7125 0.945493 0.0148368 0.336495
0.075776 0.1 0.7125 0.945565 0.0147899 0.34862
0.714971 0.1 -0.075 0.899808 0.0176314 0.331923
0.714971 0.1 0.075 0.899242 0.0177618 0.347649
0.67013 0.1 0.2625 0.910088 0.0164309 0.365009
0.67013 0.1 -0.2625 0.911492 0.01604 0.316801
0.411108 0.1 -0.6 0.945156 0.01247 0.317575
0.411108 0.1 0.6 0.945621 0.012578 0.369146
0.350249 0.1 0.6375 0.949528 0.0123064 0.365901
0.350249 0.1 -0.6375 0.948933 0.0122754 0.320966
0.623803 0.1 0.375 0.9199 0.0153276 0.371742
0.623803 0.1 -0.375 0.921078 0.0148694 0.311793
0.714971 0.1 -0.15 0.901109 0.0174574 0.3243
0.714971 0.1 0.15 0.899996 0.017731 0.355454
0.467897 0.1 -0.5625 0.941188 0.0126979 0.314649
0.467897 0.1 0.5625 0.941495 0.0128794 0.371844
0 0.1 -0.73201 0.939693 0 0.34202
0 0.1 0.73201 0.939693 0 0.34202
0.0363518 0.1 0.73201 0.942484 0.00702936 0.345188
0.0363518 0.1 -0.73201 0.94245 0.00705242 0.339372
0.287374 0.1 -0.675 0.951172 0.0128383 0.324296
0.287374 0.1 0.675 0.951708 0.0128311 0.362363
0.522865 0.1 -0.525 0.935808 0.0131971 0.311765
0.522865 0.1 0.525 0.935707 0.0135007 0.374095
0.219993 0.1 -0.7125 0.9533 0.0134798 0.328073
0.219992 0.1 0.7125 0.953753 0.0134337 0.358307
0.714971 0.1 -0.225 0.903031 0.0172027 0.317035
0.714971 0.1 0.225 0.901429 0.0176339 0.363034
0 0.1 0.75 0.939693 0 0.34202
0 0.1 -0.75 0.939693 0 0.34202
0.67013 0.1 -0.3375 0.913799 0.0157368 0.310834
0.67013 0.1 0.3375 0.91222 0.0162489 0.371395
0.574156 0.1 -0.4875 0.930213 0.0137277 0.309372
0.574157 0.1 0.4875 0.929712 0.0141365 0.375758
0.756813 0.1 0.0375 0.891146 0.0188968 0.343223
0.756814 0.1 -0.0375 0.891494 0.0188164 0.334595
0.150379 0.1 0.746002 0.949773 0.0140704 0.353701
0.150379 0.1 -0.75 0.949588 0.0141077 0.331877
0.756813 0.1 -0.1125 0.892621 0.0186494 0.326127
0.756813 0.1 0.1125 0.891593 0.0188967 0.351851
0 0.1 0.76799 0.939693 0 0.34202
0 0.1 -0.76799 0.939693 0 0.34202
0.0363518 0.1 0.76799 0.942498 0.00700719 0.345324
0.0363518 0.1 -0.76799 0.942464 0.00703446 0.339192
0.623803 0.1 -0.45 0.923453 0.0145301 0.307143
0.623803 0.1 0.45 0.922371 0.0150582 0.376855
0.714971 0.1 -0.3 0.905496 0.0168692 0.310256
0.714971 0.1 0.3 0.903529 0.0174588 0.370281
0.756814 0.1 -0.1875 0.894493 0.0183895 0.317986
0.756814 0.1 0.1875 0.892817 0.01882 0.360303
0.67013 0.1 -0.4125 0.916456 0.0153654 0.305452
0.67013 0.1 0.4125 0.914856 0.0159844 0.377311
0.411108 0.1 0.675 0.946825 0.0123376 0.371141
0.411108 0.1 -0.675 0.94625 0.0122523 0.315632
0.467897 0.1 0.6375 0.94306 0.0126048 0.374393
0.467897 0.1 -0.6375 0.942596 0.0124464 0.312252
0.075776 0.1 0.7875 0.945595 0.0147447 0.348903
0.075776 0.1 -0.7875 0.945523 0.0148003 0.336121
0.350249 0.1 -0.7125 0.949694 0.0120941 0.319425
0.350249 0.1 0.7125 0.950357 0.0121043 0.367389
0.522865 0.1 -0.6 0.937606 0.0129035 0.308869
0.522865 0.1 0.6 0.937702 0.0131917 0.377274
0.797314 0.1 -3.59473e-17 0.882639 0.0203502 0.337903
0.287374 0.1 0.746002 0.952323 0.0126933 0.363284
0.797314 0.1 -0.075 0.883514 0.02019 0.328585
0.797314 0.1 0.075 0.88266 0.0204068 0.34732
0.756814 0.1 -0.2625 0.897028 0.0180308 0.310327
0.756814 0.1 0.2625 0.894796 0.0186617 0.36844
0.287374 0.1 -0.75 0.951742 0.0127009 0.323122
0.574156 0.1 -0.5625 0.932369 0.0133963 0.305921
0.574156 0.1 0.5625 0.932087 0.0138061 0.379613
0 0.1 0.80701 0.939693 0 0.34202
0 0.1 -0.80701 0.939693 0 0.34202
0.714971 0.1 -0.375 0.90842 0.0164607 0.304075
0.714971 0.1 0.375 0.906254 0.0171949 0.377084
0.0363518 0.1 0.80701 0.942498 0.00700719 0.345324
0.0363518 0.1 -0.80701 0.942464 0.00703446 0.339192
0.797314 0.1 -0.15 0.885257 0.0199189 0.319547
0.797314 0.1 0.15 0.883581 0.0203643 0.356652
0.623803 0.1 -0.525 0.926017 0.0141512 0.303075
0.623803 0.1 0.525 0.92511 0.0147171 0.381453
0.219992 0.1 0.7875 0.954153 0.0133233 0.358979
0.219992 0.1 -0.7875 0.953671 0.0133875 0.327221
0.149792 0.1 0.80701 0.950019 0.0139971 0.354142
0 0.1 0.825 0.939693 0 0.34202
0 0.1 -0.825 0.939693 0 0.34202
0.797314 0.1 -0.225 0.887806 0.0195352 0.310973
0.797314 0.1 0.225 0.885375 0.0202238 0.365718
0.756813 0.1 -0.3375 0.90014 0.0175945 0.303297
0.756813 0.1 0.3375 0.897518 0.0184093 0.376144
0.67013 0.1 0.4875 0.917881 0.0156416 0.382701
0.67013 0.1 -0.4875 0.919377 0.0149435 0.300703
0.835106 0.1 -0.0375 0.874477 0.0217259 0.33184
0.835106 0.1 0.0375 0.87396 0.0218595 0.34201
0.150379 0.1 -0.825 0.949789 0.0140437 0.331319
0.835106 0.1 -0.1125 0.875978 0.0214684 0.321883
0.835106 0.1 0.1125 0.874465 0.0218706 0.352208
0 0.1 -0.84299 0.939693 0 0.34202
0 0.1 0.84299 0.939693 0 0.34202
0.0363518 0.1 -0.84299 0.942475 0.00701904 0.339047
0.0363518 0.1 0.84299 0.942509 0.00698853 0.345426
0.714971 0.1 -0.45 0.911707 0.0159884 0.298579
0.714971 0.1 0.45 0.909501 0.0168417 0.383325
0.411108 0.1 0.746002 0.948014 0.012101 0.372613
0.797314 0.1 -0.3 0.891068 0.0190535 0.303029
0.797314 0.1 0.3 0.888014 0.0199779 0.374368
0.467897 0.1 -0.7125 0.944033 0.0121851 0.310257
0.467897 0.1 0.7125 0.944616 0.0123211 0.376512
0.522865 0.1 0.675 0.939713 0.0128618 0.379964
0.522865 0.1 -0.675 0.939452 0.0125942 0.306445
0.411108 0.1 -0.75 0.947359 0.0120275 0.314027
0.835106 0.1 -0.1875 0.878436 0.021072 0.312343
0.835107 0.1 0.1875 0.875968 0.0217667 0.362209
0.286844 0.1 0.80701 0.952798 0.0125525 0.36406
0.574156 0.1 0.6375 0.934525 0.0134366 0.382927
0.574157 0.1 -0.6375 0.934605 0.0130426 0.303006
0.350249 0.1 -0.7875 0.950464 0.0119087 0.318159
0.350249 0.1 0.7875 0.951184 0.0118962 0.368579
0.756813 0.1 -0.4125 0.903729 0.0170766 0.296982
0.756814 0.1 0.4125 0.900902 0.0180556 0.383306
0.623803 0.1 -0.6 0.92871 0.0137447 0.299617
0.623803 0.1 0.6 0.928008 0.0143171 0.385468
0.075776 0.1 0.8625 0.945619 0.0147068 0.349115
0.075776 0.1 -0.8625 0.945545 0.0147689 0.335818
0.871687 0.1 -3.2767e-18 0.865218 0.0235132 0.335804
0.287374 0.1 -0.825 0.952313 0.0125605 0.322168
0.871687 0.1 -0.075 0.866372 0.0232672 0.32495
0.871687 0.1 0.075 0.865181 0.0236119 0.346802
0.67013 0.1 -0.5625 0.922492 0.0144879 0.296632
0.67013 0.1 0.5625 0.92118 0.0152232 0.387469
0.835106 0.1 0.2625 0.878427 0.021545 0.371839
0.835106 0.1 -0.2625 0.881748 0.0205567 0.303426
0.797314 0.1 -0.375 0.894933 0.0184844 0.295838
0.797314 0.1 0.375 0.891446 0.0196202 0.382475
0 0.1 -0.88201 0.939693 0 0.34202
0 0.1 0.88201 0.939693 0 0.34202
0.0363518 0.1 0.88201 0.942509 0.00698853 0.345426
0.0363518 0.1 -0.88201 0.942475 0.00701904 0.339047
0.871687 0.1 0.15 0.866272 0.0235651 0.357719
0.871687 0.1 -0.15 0.868607 0.0228666 0.314448
0.714971 0.1 0.525 0.913149 0.016404 0.388916
0.714971 0.1 -0.525 0.915265 0.0154713 0.293826
0.219993 0.1 0.8625 0.954552 0.0132109 0.359496
0.219992 0.1 -0.8625 0.954036 0.0132948 0.326536
0 0.1 0.9 0.939693 0 0.34202
0 0.1 -0.9 0.939693 0 0.34202
0.756813 0.1 0.4875 0.90482 0.0176071 0.389763
0.756814 0.1 -0.4875 0.907677 0.0165038 0.291473
0.871687 0.1 0.225 0.86845 0.0233767 0.368332
0.871687 0.1 -0.225 0.87186 0.0223193 0.304531
0.835106 0.1 -0.3375 0.885809 0.0199456 0.295293
0.835106 0.1 0.3375 0.881803 0.0211965 0.380925
0.41063 0.1 0.80701 0.948933 0.0119006 0.373766
0.90582 0.1 -0.0375 0.856809 0.025074 0.328835
0.905821 0.1 0.0375 0.856113 0.0252856 0.340591
0.522865 0.1 0.746002 0.941687 0.0125318 0.381976
0.150379 0.1 0.9 0.950289 0.0139034 0.35455
0.90582 0.1 0.1125 0.856674 0.0253228 0.352413
0.905821 0.1 -0.1125 0.858701 0.0246956 0.317345
0.522865 0.1 -0.75 0.941313 0.0122762 0.304488
0.574156 0.1 0.7125 0.936971 0.013049 0.385676
0.574156 0.1 -0.7125 0.936876 0.0126762 0.300633
0.797314 0.1 -0.45 0.899276 0.0178406 0.289498
0.797314 0.1 0.45 0.895563 0.019153 0.389891
0.467897 0.1 -0.7875 0.945475 0.0119173 0.308657
0.467897 0.1 0.7875 0.946163 0.0120321 0.378204
0.150379 0.1 -0.903998 0.950059 0.0139714 0.33081
0 0.1 0.91799 0.939693 0 0.34202
0 0.1 -0.91799 0.939693 0 0.34202
0.0363518 0.1 0.91799 0.942516 0.00697301 0.345492
0.0363518 0.1 -0.91799 0.942482 0.00700498 0.338934
0.623803 0.1 0.675 0.930972 0.0138796 0.388859
0.623803 0.1 -0.675 0.931471 0.0133206 0.296778
0.411108 0.1 -0.825 0.948464 0.0117995 0.312755
0.871687 0.1 0.3 0.871664 0.0230449 0.378447
0.871687 0.1 -0.3 0.87601 0.0216499 0.295395
0.67013 0.1 -0.6375 0.925721 0.0140075 0.293257
0.67013 0.1 0.6375 0.924624 0.0147453 0.391563
0.90582 0.1 -0.1875 0.861778 0.0241294 0.306365
0.90582 0.1 0.1875 0.858462 0.0251909 0.364018
0.350249 0.1 0.8625 0.952 0.0116843 0.369475
0.350249 0.1 -0.8625 0.951225 0.0117215 0.317162
0.835106 0.1 -0.4125 0.890474 0.0192401 0.288039
0.835106 0.1 0.4125 0.886027 0.0207235 0.389357
0.714971 0.1 -0.6 0.919002 0.0149249 0.28985
0.714971 0.1 0.6 0.91706 0.0158921 0.393788
0.93886 0.1 -1.15648e-17 0.847224 0.0274682 0.333518
0.075776 0.1 0.9375 0.945634 0.0146753 0.349254
0.075776 0.1 -0.9375 0.945561 0.0147403 0.335584
0.93886 0.1 0.075 0.847104 0.02763 0.346177
0.93886 0.1 -0.075 0.848692 0.0271052 0.32105
0.756813 0.1 0.5625 0.909138 0.0170704 0.395478
0.756814 0.1 -0.5625 0.911888 0.0158912 0.286816
0.905821 0.1 -0.2625 0.865924 0.0234233 0.296171
0.905821 0.1 0.2625 0.861416 0.0248963 0.375191
0.287374 0.1 0.9 0.953541 0.0123497 0.364842
0.287374 0.1 -0.903998 0.952791 0.012415 0.321385
0.871687 0.1 0.375 0.87585 0.02257 0.3879
0.871687 0.1 -0.375 0.880908 0.0208739 0.287173
0.93886 0.1 -0.15 0.851475 0.0265346 0.30901
0.93886 0.1 0.15 0.848362 0.0275843 0.358764
0.797314 0.1 0.525 0.900216 0.0185852 0.396506
0.797314 0.1 -0.525 0.903975 0.0171452 0.284083
0 0.1 0.95701 0.939693 0 0.34202
0 0.1 -0.95701 0.939693 0 0.34202
0.0363518 0.1 0.95701 0.942516 0.00697301 0.345492
0.0363518 0.1 -0.95701 0.942482 0.00700498 0.338934
0.522433 0.1 0.80701 0.943233 0.0122599 0.383498
0.219992 0.1 0.9375 0.954933 0.0131014 0.359851
0.219992 0.1 -0.9375 0.954385 0.0132004 0.326012
0.93886 0.1 0.225 0.850945 0.0273387 0.371
0.93886 0.1 -0.225 0.855516 0.025775 0.297679
0.90582 0.1 0.3375 0.865466 0.0244366 0.385719
0.905821 0.1 -0.3375 0.870979 0.0225843 0.286902
0.835106 0.1 -0.4875 0.895611 0.0184674 0.281781
0.835107 0.1 0.4875 0.890943 0.0201344 0.396934
0.969689 0.1 -0.0375 0.838678 0.0295335 0.325623
0.969689 0.1 0.0375 0.837738 0.0298529 0.339079
0.61613 0.1 0.75 0.933942 0.013424 0.391609
0.574156 0.1 -0.7875 0.939139 0.0123044 0.298788
0.574156 0.1 0.7875 0.9394 0.0126538 0.387861
0 0.1 0.975 0.939693 0 0.34202
0 0.1 -0.975 0.939693 0 0.34202
0.623803 0.1 -0.75 0.934243 0.0128879 0.294547
0.969689 0.1 -0.1125 0.841012 0.0289942 0.312494
0.969689 0.1 0.1125 0.838336 0.0299299 0.352639
0.522865 0.1 -0.825 0.943156 0.0119549 0.302986
0.67013 0.1 0.7125 0.928115 0.0142348 0.394943
0.67013 0.1 -0.7125 0.928993 0.0135161 0.290575
0.871687 0.1 -0.45 0.886405 0.0200137 0.279988
0.871687 0.1 0.45 0.880893 0.0219589 0.396537
0.467897 0.1 0.8625 0.947686 0.0117388 0.379479
0.467897 0.1 -0.8625 0.946892 0.0116493 0.307441
0.714971 0.1 -0.675 0.922825 0.0143619 0.286657
0.714971 0.1 0.675 0.9211 0.0153267 0.397887
0.93886 0.1 -0.3 0.860641 0.0248591 0.287272
0.93886 0.1 0.3 0.854775 0.0268999 0.382651
0.150379 0.1 0.975 0.950482 0.0138336 0.354743
0.150379 0.1 -0.975 0.950161 0.0139189 0.330552
0.969689 0.1 -0.1875 0.844831 0.0282005 0.299971
0.969689 0.1 0.1875 0.840418 0.0297649 0.365955
0.411108 0.1 0.9 0.950366 0.0115867 0.374959
0.756813 0.1 0.6375 0.913686 0.0164601 0.40036
0.756814 0.1 -0.6375 0.916246 0.0152595 0.283031
0.990306 0.1 -2.19732e-17 0.832973 0.0309349 0.331613
0 0.1 0.99299 0.939693 0 0.34202
0 0.1 -0.99299 0.939693 0 0.34202
0.411108 0.1 -0.903998 0.949397 0.0115911 0.311772
0.990306 0.1 -0.075 0.834699 0.0304688 0.317891
0.990306 0.1 0.075 0.832785 0.0311597 0.345565
0.0363518 0.1 0.99299 0.94252 0.00695961 0.345526
0.0363518 0.1 -0.99299 0.942487 0.00699182 0.338854
0.90582 0.1 -0.4125 0.876763 0.021643 0.278698
0.905821 0.1 0.4125 0.87054 0.023822 0.395449
0.797314 0.1 -0.6 0.908903 0.0164201 0.279629
0.797314 0.1 0.6 0.905242 0.0179274 0.40225
0.350249 0.1 0.9375 0.952792 0.0114752 0.370098
0.350249 0.1 -0.9375 0.951964 0.0115319 0.316424
0.990306 0.1 0.15 0.83418 0.0311247 0.359453
0.990306 0.1 -0.15 0.837934 0.02975 0.304644
0.969689 0.1 -0.2625 0.84993 0.0272344 0.28838
0.969689 0.1 0.2625 0.843913 0.0293753 0.378766
0.835106 0.1 -0.5625 0.901074 0.0176508 0.276566
0.835106 0.1 0.5625 0.896372 0.0194423 0.403614
0.93886 0.1 -0.375 0.866676 0.023811 0.277951
0.93886 0.1 0.375 0.85977 0.0262762 0.39351
0.075776 0.1 1.0125 0.945642 0.014648 0.349323
0.075776 0.1 -1.0125 0.945573 0.0147134 0.335418
0.990306 0.1 -0.225 0.84262 0.0288036 0.292193
0.990306 0.1 0.225 0.837092 0.0308391 0.372957
0.287374 0.1 0.975 0.954116 0.0121908 0.365229
0.287374 0.1 -0.975 0.953406 0.0122745 0.320897
0.871687 0.1 -0.525 0.892347 0.0190979 0.273929
0.871687 0.1 0.525 0.886616 0.0212234 0.404214
1.02149 0.1 -0.0369628 0.82287 0.0334635 0.322796
1.02149 0.1 0.0369628 0.821783 0.0338856 0.33741
0.969689 0.1 -0.3375 0.856105 0.0260892 0.277837
0.969689 0.1 0.3375 0.84872 0.0287672 0.390818
1.02149 0.1 -0.110888 0.825547 0.0328072 0.308533
1.02149 0.1 0.110888 0.822412 0.0340196 0.352177
0.90582 0.1 0.4875 0.876471 0.0230587 0.404225
0.90582 0.1 -0.4875 0.883132 0.0206283 0.271699
0.623803 0.1 0.819003 0.936004 0.0130927 0.394053
0 0.1 1.03201 0.939693 0 0.34202
0 0.1 -1.03201 0.939693 0 0.34202
0.0363518 0.1 1.03201 0.94252 0.00695961 0.345526
0.0363518 0.1 -1.03201 0.942487 0.00699182 0.338854
0.67013 0.1 -0.7875 0.932237 0.0130202 0.288562
0.67013 0.1 0.7875 0.931588 0.0137106 0.39761
0.623803 0.1 -0.825 0.936971 0.0124535 0.292903
0.990306 0.1 -0.3 0.848547 0.0276725 0.280773
0.990306 0.1 0.3 0.841429 0.0303164 0.385811
0.219992 0.1 -1.0125 0.954713 0.0131042 0.325644
0.219993 0.1 1.0125 0.955287 0.0129944 0.36005
0.574156 0.1 0.8625 0.941782 0.0122542 0.389496
0.574157 0.1 -0.8625 0.941354 0.0119308 0.297448
0.714971 0.1 -0.75 0.926646 0.0137922 0.284227
0.714971 0.1 0.75 0.925169 0.0147324 0.401192
1.02149 0.1 0.184814 0.824698 0.0338618 0.366696
1.02149 0.1 -0.184814 0.829855 0.0318296 0.294891
0.756814 0.1 -0.7125 0.92064 0.0146164 0.28011
0.756814 0.1 0.7125 0.918327 0.0158025 0.404376
0.522865 0.1 0.9 0.945622 0.0118291 0.385085
0.93886 0.1 -0.45 0.87345 0.0226685 0.269897
0.93886 0.1 0.45 0.865802 0.0254781 0.403417
1.04168 0.1 0 0.815711 0.0355212 0.329211
1.04168 0.1 -0.0729162 0.817673 0.0349376 0.314357
1.04168 0.1 0.0729162 0.815449 0.035835 0.344332
0.522865 0.1 -0.903998 0.944721 0.0116672 0.30189
0.797314 0.1 -0.675 0.913926 0.0156836 0.276138
0.797314 0.1 0.675 0.910472 0.0171999 0.407055
0.467897 0.1 0.9375 0.949161 0.0114454 0.380358
0.467897 0.1 -0.9375 0.948259 0.0113782 0.306587
0 0.1 1.05 0.939693 0 0.34202
0 0.1 -1.05 0.939693 0 0.34202
0.835106 0.1 -0.6375 0.906713 0.0168177 0.27242
0.835106 0.1 0.6375 0.902143 0.0186555 0.409284
1.04168 0.1 -0.145832 0.821276 0.0340578 0.299987
1.04168 0.1 0.145832 0.816909 0.0358387 0.359414
1.02149 0.1 -0.25874 0.835638 0.0306631 0.282272
1.02149 0.1 0.25874 0.828565 0.0334325 0.380687
0.969689 0.1 -0.4125 0.863204 0.0248303 0.268598
0.969689 0.1 0.4125 0.854747 0.027959 0.401911
0.411108 0.1 0.975 0.951481 0.011336 0.375554
0.411108 0.1 -0.975 0.950576 0.011338 0.311152
0.871687 0.1 -0.6 0.898564 0.0181561 0.269034
0.871687 0.1 0.6 0.89282 0.0203792 0.410833
1.0579 0.1 -0.0360525 0.81112 0.0367646 0.320697
1.0579 0.1 0.0360525 0.809938 0.0372666 0.336042
0.990306 0.1 -0.375 0.855535 0.026388 0.2706
0.990306 0.1 0.375 0.847085 0.0295704 0.397776
0.150379 0.1 1.05 0.950658 0.0137667 0.354825
0.150379 0.1 -1.05 0.950328 0.0138571 0.330335
1.0579 0.1 0.108157 0.810512 0.0374498 0.351562
1.0579 0.1 -0.108157 0.81401 0.0360182 0.305727
1.04168 0.1 -0.218749 0.826471 0.0329039 0.286449
1.04168 0.1 0.218749 0.820023 0.0355422 0.374105
0.90582 0.1 -0.5625 0.889896 0.0195762 0.265954
0.90582 0.1 0.5625 0.883059 0.0221667 0.411869
0 0.1 -1.06799 0.939693 0 0.34202
0 0.1 1.06799 0.939693 0 0.34202
0.0363518 0.1 -1.06799 0.942491 0.00698129 0.338805
0.0363518 0.1 1.06799 0.942521 0.00694759 0.345527
0.350249 0.1 1.0125 0.953549 0.0112699 0.370461
0.350249 0.1 -1.0125 0.952672 0.0113405 0.315935
1.0579 0.1 -0.180262 0.818517 0.0349036 0.29137
1.0579 0.1 0.180262 0.8128 0.0373084 0.366842
1.02149 0.1 -0.332665 0.842644 0.0292852 0.270815
1.02149 0.1 0.332665 0.833896 0.0327427 0.393878
0.93886 0.1 -0.525 0.88076 0.0214669 0.263212
0.93886 0.1 0.525 0.872674 0.0245225 0.412194
1.08012 0.1 5.49329e-18 0.802896 0.0393837 0.327298
1.04168 0.1 -0.291665 0.833065 0.0315393 0.274035
1.04168 0.1 0.291665 0.824696 0.0349619 0.388128
1.08012 0.1 0.0709941 0.802562 0.0397697 0.343209
1.08012 0.1 -0.0709941 0.805015 0.0387058 0.311678
0.969689 0.1 -0.4875 0.871013 0.0234838 0.260847
0.96969 0.1 0.4875 0.861819 0.0269585 0.411907
1.0579 0.1 0.252367 0.816728 0.0368637 0.381595
1.0579 0.1 -0.252367 0.824604 0.0335851 0.278073
0.990306 0.1 -0.45 0.863389 0.0249974 0.261877
0.990306 0.1 0.45 0.853921 0.0286155 0.408678
0.287374 0.1 -1.05 0.953912 0.0121298 0.32056
0.287374 0.1 1.05 0.954658 0.0120344 0.365416
0.714971 0.1 0.821002 0.928839 0.0141834 0.403664
1.08012 0.1 -0.141988 0.808829 0.0377011 0.29655
1.08012 0.1 0.141988 0.803997 0.039813 0.359093
0.075776 0.1 1.0875 0.945645 0.0146235 0.349326
0.075776 0.1 -1.0875 0.945581 0.014692 0.335314
0.714971 0.1 -0.825 0.930389 0.0132261 0.282527
0.756813 0.1 -0.7875 0.92498 0.0139735 0.278015
0.756814 0.1 0.7875 0.922958 0.0151228 0.407513
0.67013 0.1 -0.8625 0.935393 0.0125284 0.287187
0.67013 0.1 0.8625 0.934993 0.0131844 0.399584
0.797314 0.1 -0.75 0.918922 0.0149494 0.27358
0.797314 0.1 0.75 0.915764 0.0164323 0.410903
0.623803 0.1 0.9 0.939726 0.0124988 0.39524
0.835106 0.1 -0.7125 0.912378 0.0159859 0.269315
0.835106 0.1 0.7125 0.908067 0.0178063 0.413918
0.623803 0.1 -0.903998 0.939299 0.0120715 0.291779
0.574156 0.1 0.9375 0.944082 0.0118549 0.390608
0.574156 0.1 -0.9375 0.943481 0.0115604 0.296578
1.02149 0.1 -0.406591 0.85075 0.0277812 0.260879
1.02149 0.1 0.406591 0.840565 0.031814 0.406035
1.08012 0.1 -0.212982 0.814284 0.0363899 0.28226
1.08012 0.1 0.212982 0.807147 0.0395233 0.374594
1.10076 0.1 -0.0349809 0.796077 0.0414413 0.318132
1.10076 0.1 0.0349809 0.79481 0.0420465 0.334396
0.871687 0.1 -0.675 0.904882 0.0172108 0.265303
0.871687 0.1 0.675 0.899298 0.0194499 0.416339
1.04168 0.1 -0.364581 0.840869 0.0299948 0.263003
1.04168 0.1 0.364581 0.830804 0.0341149 0.40122
1.10076 0.1 -0.104943 0.799196 0.0405823 0.302282
1.10076 0.1 0.104943 0.795358 0.0422934 0.350849
0.522865 0.1 0.975 0.947474 0.0114834 0.385866
0.522865 0.1 -0.975 0.946654 0.0113131 0.301247
1.0579 0.1 -0.324472 0.831983 0.0320291 0.266011
1.0579 0.1 0.324472 0.822179 0.0361265 0.395542
0 0.1 -1.10701 0.939693 0 0.34202