# UMean  POINT_DATA 63840
# x  y  z  UMean_x  UMean_y  UMean_z
0 0.5 3.39583e-17 0.939693 0 0.34202
0 0.5 -0.00617931 0.939693 0 0.34202
0 0.5 0.00617931 0.939693 0 0.34202
0.0124865 0.5 -0.00617931 0.939665 0.000900059 0.342097
0.0124865 0.5 0.00617931 0.939664 0.000899391 0.342216
0 0.5 -0.0688207 0.939693 0 0.34202
0 0.5 0.0688207 0.939693 0 0.34202
0.0124865 0.5 -0.0688207 0.939665 0.000900059 0.342097
0.0124865 0.5 0.0688207 0.939664 0.000899391 0.342216
0 0.5 -0.075 0.939693 0 0.34202
0 0.5 0.075 0.939693 0 0.34202
0 0.5 -0.0811793 0.939693 0 0.34202
0 0.5 0.0811793 0.939693 0 0.34202
0.0124865 0.5 -0.0811793 0.939663 0.000897756 0.34198
0.0124865 0.5 0.0811793 0.939665 0.000895141 0.342333
0.075776 0.5 -0.0375 0.939496 0.0054549 0.342488
0.075776 0.5 0.0375 0.939491 0.00545054 0.343208
0.075776 0.5 -0.1125 0.939486 0.00544108 0.341782
0.075776 0.5 0.1125 0.939497 0.00542479 0.343914
0 0.5 -0.143821 0.939693 0 0.34202
0 0.5 0.143821 0.939693 0 0.34202
0.0124865 0.5 -0.143821 0.939663 0.000897756 0.34198
0.0124865 0.5 0.143821 0.939665 0.000895141 0.342333
0 0.5 -0.15 0.939693 0 0.34202
0 0.5 0.15 0.939693 0 0.34202
0.151149 0.5 -0.00137318 0.938326 0.00912818 0.343305
0 0.5 -0.156179 0.939693 0 0.34202
0 0.5 0.156179 0.939693 0 0.34202
0.0124865 0.5 -0.156179 0.939662 0.000892125 0.34186
0.0124865 0.5 0.156179 0.939667 0.000886851 0.342447
0.151149 0.5 0.075 0.938335 0.00913498 0.344531
0.151149 0.5 -0.075 0.938313 0.00914125 0.34199
0.075776 0.5 -0.1875 0.939481 0.00540694 0.34106
0.075776 0.5 0.1875 0.939507 0.00537469 0.344602
0.151149 0.5 0.15 0.938377 0.00908032 0.345774
0.151149 0.5 -0.15 0.93832 0.00909441 0.340729
0 0.5 -0.218821 0.939693 0 0.34202
0 0.5 0.218821 0.939693 0 0.34202
0.0124865 0.5 -0.218821 0.939662 0.000892125 0.34186
0.0124865 0.5 0.218821 0.939667 0.000886851 0.342447
0.219992 0.5 0.0375 0.937227 0.0126134 0.344546
0.219993 0.5 -0.0375 0.937212 0.0126147 0.342757
0 0.5 -0.225 0.939693 0 0.34202
0 0.5 0.225 0.939693 0 0.34202
0 0.5 -0.231179 0.939693 0 0.34202
0 0.5 0.231179 0.939693 0 0.34202
0.0124865 0.5 -0.231179 0.939666 0.000882365 0.341746
0.0124865 0.5 0.231179 0.93967 0.000875291 0.342556
0.219992 0.5 0.1125 0.93728 0.012567 0.34633
0.219993 0.5 -0.1125 0.937214 0.0125706 0.340951
0.151149 0.5 -0.225 0.938361 0.00901339 0.339499
0.151149 0.5 0.225 0.938441 0.00899054 0.346973
0.075776 0.5 -0.2625 0.939501 0.00534801 0.34037
0.075776 0.5 0.2625 0.939526 0.00530455 0.345256
0.288069 0.5 -0.00137318 0.934387 0.0160144 0.343855
0.219992 0.5 0.1875 0.937373 0.0124728 0.348055
0.219993 0.5 -0.1875 0.937256 0.0124782 0.339212
0 0.5 0.293821 0.939693 0 0.34202
0 0.5 -0.293821 0.939693 0 0.34202
0.0124865 0.5 -0.293821 0.939666 0.000882365 0.341746
0.0124865 0.5 0.293821 0.93967 0.000875291 0.342556
0.288069 0.5 -0.075 0.934366 0.0160023 0.341413
0.288069 0.5 0.075 0.934429 0.0160133 0.346128
0 0.5 -0.3 0.939693 0 0.34202
0 0.5 0.3 0.939693 0 0.34202
0 0.5 0.306179 0.939693 0 0.34202
0 0.5 -0.306179 0.939693 0 0.34202
0.0124865 0.5 -0.306179 0.939669 0.000869783 0.341638
0.0124865 0.5 0.306179 0.939674 0.000860665 0.342657
0.288069 0.5 -0.15 0.934434 0.0159047 0.339089
0.288069 0.5 0.15 0.934564 0.0159274 0.348442
0.151149 0.5 -0.3 0.938428 0.00890185 0.338321
0.151149 0.5 0.3 0.938527 0.00886861 0.34811
0.219992 0.5 -0.2625 0.937356 0.0123441 0.337513
0.219992 0.5 0.2625 0.937501 0.012332 0.349713
0.075776 0.5 0.3375 0.939552 0.00521574 0.345867
0.075776 0.5 -0.3375 0.939519 0.00527196 0.339718
0.350249 0.5 -0.0375 0.931669 0.0192405 0.342441
0.350249 0.5 0.0375 0.93171 0.0192523 0.34534
0.288069 0.5 -0.225 0.934582 0.0157499 0.336835
0.288069 0.5 0.225 0.93477 0.015781 0.350682
0.350249 0.5 0.1125 0.931852 0.0191881 0.34821
0.350249 0.5 -0.1125 0.931726 0.0191525 0.339558
0 0.5 0.368821 0.939693 0 0.34202
0 0.5 -0.368821 0.939693 0 0.34202
0.0124865 0.5 -0.368821 0.939669 0.000869783 0.341638
0.0124865 0.5 0.368821 0.939674 0.000860665 0.342657
0 0.5 -0.375 0.939693 0 0.34202
0 0.5 0.375 0.939693 0 0.34202
0 0.5 -0.381179 0.939693 0 0.34202
0 0.5 0.381179 0.939693 0 0.34202
0.0124865 0.5 -0.381179 0.939672 0.000854739 0.341537
0.0124865 0.5 0.381179 0.939679 0.000843423 0.34275
0.350249 0.5 -0.1875 0.931892 0.0189901 0.336759
0.350249 0.5 0.1875 0.932098 0.0190509 0.351018
0.219992 0.5 -0.3375 0.93748 0.0121728 0.335905
0.219992 0.5 0.3375 0.937662 0.0121496 0.351274
0.151149 0.5 -0.375 0.938509 0.0087642 0.33721
0.151149 0.5 0.375 0.938631 0.00871744 0.349171
0.411736 0.5 -0.00137318 0.927668 0.0225527 0.343876
0.288069 0.5 -0.3 0.934802 0.0155444 0.334675
0.288069 0.5 0.3 0.935041 0.015577 0.352815
0.411736 0.5 -0.075 0.927667 0.0225029 0.34028
0.411736 0.5 0.075 0.927757 0.0225533 0.347232
0.075776 0.5 -0.4125 0.93954 0.00518081 0.339106
0.075776 0.5 0.4125 0.939582 0.00511088 0.34643
0.350249 0.5 -0.2625 0.932166 0.0187649 0.334046
0.350249 0.5 0.2625 0.932441 0.0188413 0.353719
0.411736 0.5 -0.15 0.927851 0.0223383 0.336869
0.411736 0.5 0.15 0.928026 0.0224382 0.350656
0 0.5 -0.443821 0.939693 0 0.34202
0 0.5 0.443821 0.939693 0 0.34202
0.0124865 0.5 -0.443821 0.939672 0.000854739 0.341537
0.0124865 0.5 0.443821 0.939679 0.000843423 0.34275
0 0.5 -0.45 0.939693 0 0.34202
0 0.5 0.45 0.939693 0 0.34202
0 0.5 -0.456179 0.939693 0 0.34202
0 0.5 0.456179 0.939693 0 0.34202
0.0124865 0.5 -0.456179 0.939676 0.000837543 0.341444
0.0124865 0.5 0.456179 0.939685 0.000823846 0.342834
0.219992 0.5 -0.4125 0.937633 0.0119678 0.334395
0.219993 0.5 0.4125 0.937854 0.0119282 0.35272
0.411736 0.5 -0.225 0.928189 0.0220887 0.333569
0.411736 0.5 0.225 0.92844 0.0222326 0.35398
0.467897 0.5 0.0375 0.923848 0.0257213 0.345652
0.467897 0.5 -0.0375 0.923798 0.0256834 0.341604
0.288069 0.5 -0.375 0.935079 0.0152921 0.332644
0.288069 0.5 0.375 0.935372 0.0153199 0.354812
0.151149 0.5 -0.45 0.938606 0.00860276 0.336176
0.151149 0.5 0.45 0.938753 0.00853977 0.350143
0.467897 0.5 -0.1125 0.923951 0.0255338 0.337602
0.467897 0.5 0.1125 0.924092 0.025647 0.349672
0.350249 0.5 0.3375 0.932877 0.0185637 0.356269
0.350249 0.5 -0.3375 0.932533 0.0184801 0.331487
0.075776 0.5 -0.4875 0.939565 0.0050764 0.338541
0.075776 0.5 0.4875 0.939619 0.00499152 0.346938
0.467897 0.5 -0.1875 0.924302 0.0252798 0.333706
0.467897 0.5 0.1875 0.924526 0.025464 0.353604
0.411736 0.5 -0.3 0.928672 0.0217624 0.330427
0.411736 0.5 0.3 0.928994 0.0219402 0.357151
0 0.5 -0.518821 0.939693 0 0.34202
0 0.5 0.518821 0.939693 0 0.34202
0.0124865 0.5 0.518821 0.939685 0.000823846 0.342834
0.0124865 0.5 -0.518821 0.939676 0.000837543 0.341444
0.523432 0.5 -0.00137318 0.918865 0.0289842 0.343438
0 0.5 -0.525 0.939693 0 0.34202
0 0.5 0.525 0.939693 0 0.34202
0.523432 0.5 -0.075 0.918918 0.0288818 0.338646
0.523432 0.5 0.075 0.918998 0.0289978 0.347925
0 0.5 -0.531179 0.939693 0 0.34202
0 0.5 0.531179 0.939693 0 0.34202
0.0124865 0.5 -0.531179 0.939681 0.000818428 0.341359
0.0124865 0.5 0.531179 0.939692 0.000802219 0.342907
0.288069 0.5 -0.45 0.93541 0.0149967 0.330762
0.288069 0.5 0.45 0.935755 0.0150145 0.356649
0.219992 0.5 -0.4875 0.937814 0.011731 0.333003
0.219993 0.5 0.4875 0.938068 0.0116717 0.354035
0.467897 0.5 -0.2625 0.924849 0.0249298 0.329979
0.467897 0.5 0.2625 0.925147 0.0251755 0.357391
0.350249 0.5 -0.4125 0.932981 0.0181402 0.329098
0.350249 0.5 0.4125 0.933394 0.0182239 0.358639
0.523432 0.5 -0.15 0.919272 0.0286315 0.334112
0.523432 0.5 0.15 0.919421 0.0288591 0.352514
0.151149 0.5 -0.525 0.938719 0.00841937 0.33523
0.151149 0.5 0.525 0.938887 0.0083382 0.351016
0.411736 0.5 -0.375 0.929283 0.0213655 0.327487
0.411736 0.5 0.375 0.929674 0.0215672 0.360123
0.075776 0.5 -0.5625 0.939596 0.00496004 0.338028
0.075776 0.5 0.5625 0.939659 0.00485961 0.347386
0.523432 0.5 -0.225 0.919881 0.0282635 0.329748
0.523432 0.5 0.225 0.92009 0.0285934 0.356969
0.574156 0.5 -0.0375 0.914088 0.0320786 0.340325
0.574156 0.5 0.0375 0.914123 0.0321566 0.345563
0.467897 0.5 0.3375 0.925941 0.0247876 0.360973
0.467897 0.5 -0.3375 0.925575 0.0244931 0.326468
0.574156 0.5 -0.1125 0.914379 0.031852 0.335158
0.574156 0.5 0.1125 0.914475 0.0320828 0.350786
0 0.5 -0.593821 0.939693 0 0.34202
0 0.5 0.593821 0.939693 0 0.34202
0.0124865 0.5 -0.593821 0.939681 0.000818428 0.341359
0.0124865 0.5 0.593821 0.939692 0.000802219 0.342907
0.288069 0.5 -0.525 0.935788 0.0146618 0.329049
0.288069 0.5 0.525 0.936181 0.0146655 0.358304
0 0.5 -0.6 0.939693 0 0.34202
0 0.5 0.6 0.939693 0 0.34202
0.350249 0.5 -0.4875 0.933503 0.0177501 0.326911
0.350249 0.5 0.4875 0.933982 0.0178282 0.360798
0.523432 0.5 -0.3 0.92073 0.0277876 0.325616
0.523432 0.5 0.3 0.920993 0.0282063 0.361223
0.219992 0.5 -0.5625 0.938017 0.0114646 0.331743
0.219992 0.5 0.5625 0.938302 0.0113832 0.355204
0.574156 0.5 -0.1875 0.914988 0.0314868 0.330149
0.574156 0.5 0.1875 0.91513 0.0318605 0.355898
0 0.5 -0.606179 0.939693 0 0.34202
0 0.5 0.606179 0.939693 0 0.34202
0.0124865 0.5 -0.606179 0.939688 0.00079767 0.341284
0.0124865 0.5 0.606179 0.9397 0.000778934 0.342971
0.411736 0.5 -0.45 0.930004 0.0209041 0.324782
0.411736 0.5 0.45 0.930464 0.0211212 0.36286
0.151149 0.5 -0.6 0.938845 0.00821615 0.33438
0.151149 0.5 0.6 0.939031 0.00811549 0.351781
0.62168 0.5 2.64545e-17 0.908701 0.0352356 0.342691
0.467897 0.5 0.4125 0.92689 0.0243087 0.364302
0.467897 0.5 -0.4125 0.926452 0.0239769 0.32322
0.624316 0.5 0.0729402 0.908562 0.0354448 0.348288
0.624316 0.5 -0.075 0.908539 0.0352401 0.336587
0.574156 0.5 -0.2625 0.9159 0.0309914 0.325385
0.574157 0.5 0.2625 0.91608 0.0314948 0.360823
0.075776 0.5 -0.6375 0.939631 0.00483339 0.337571
0.075776 0.5 0.6375 0.939703 0.00471739 0.34777
0.624316 0.5 -0.15 0.909121 0.0348889 0.330895
0.624316 0.5 0.15 0.909157 0.0352903 0.354094
0.523432 0.5 -0.375 0.921792 0.027214 0.321772
0.523432 0.5 0.375 0.922108 0.0277063 0.365212
0.350249 0.5 -0.5625 0.934086 0.0173143 0.324947
0.350249 0.5 0.5625 0.934625 0.0173828 0.362725
0.624316 0.5 -0.225 0.910081 0.0343842 0.325438
0.624316 0.5 0.225 0.91012 0.0349684 0.359735
0.288069 0.5 0.6 0.936639 0.014278 0.359762
0.288069 0.5 -0.6 0.936204 0.0142914 0.327521
0.574156 0.5 -0.3375 0.917089 0.0303793 0.320913
0.574156 0.5 0.3375 0.917304 0.0309943 0.365483
0.411736 0.5 -0.525 0.930822 0.0203849 0.322343
0.411736 0.5 0.525 0.931347 0.0206102 0.365328
0 0.5 -0.668821 0.939693 0 0.34202
0 0.5 0.668821 0.939693 0 0.34202
0.0124865 0.5 -0.668821 0.939688 0.00079767 0.341284
0.0124865 0.5 0.668821 0.9397 0.000778934 0.342971
0.67013 0.5 0.0375 0.902887 0.0386205 0.345157
0.67013 0.5 -0.0375 0.902894 0.038493 0.338677
0.219993 0.5 -0.6375 0.938238 0.0111719 0.330623
0.219993 0.5 0.6375 0.938546 0.0110664 0.356218
0 0.5 -0.675 0.939693 0 0.34202
0 0.5 0.675 0.939693 0 0.34202
0.467897 0.5 0.4875 0.927971 0.0237485 0.367336
0.467897 0.5 -0.4875 0.927465 0.0233893 0.320273
0.67013 0.5 -0.1125 0.903372 0.0381778 0.332303
0.67013 0.5 0.1125 0.903346 0.0385553 0.351635
0 0.5 -0.681179 0.939693 0 0.34202
0 0.5 0.681179 0.939693 0 0.34202
0.0124865 0.5 -0.681179 0.939694 0.000775612 0.341218
0.0124865 0.5 0.681179 0.939707 0.000754342 0.343023
0.523432 0.5 -0.45 0.923039 0.0265523 0.318268
0.523432 0.5 0.45 0.923409 0.0271041 0.368882
0.151149 0.5 -0.675 0.93898 0.00799578 0.333634
0.151149 0.5 0.675 0.93918 0.00787475 0.352433
0.624316 0.5 -0.3 0.911395 0.0337385 0.320299
0.624316 0.5 0.3 0.911432 0.0344869 0.365123
0.67013 0.5 0.1875 0.904249 0.0382995 0.357984
0.67013 0.5 -0.1875 0.904308 0.0376856 0.326146
0.574156 0.5 -0.4125 0.918518 0.029661 0.316818
0.574157 0.5 0.4125 0.918772 0.0303694 0.369809
0.708171 0.5 1.88651e-17 0.897604 0.041358 0.341895
0.075776 0.5 -0.7125 0.93967 0.00469862 0.337173
0.075776 0.5 0.7125 0.939748 0.0045672 0.348089
0.715434 0.5 0.0736268 0.896957 0.0418585 0.348574
0.715434 0.5 -0.075 0.8969 0.0416145 0.334172
0.67013 0.5 0.2625 0.905576 0.037859 0.364098
0.67013 0.5 -0.2625 0.905673 0.0370278 0.320307
0.350249 0.5 -0.6375 0.934716 0.0168391 0.323221
0.350249 0.5 0.6375 0.935307 0.0168942 0.364402
0.411736 0.5 -0.6 0.931714 0.0198154 0.32019
0.411736 0.5 0.6 0.932299 0.0200424 0.367505
0.624316 0.5 -0.375 0.913023 0.032966 0.315554
0.624316 0.5 0.375 0.91306 0.0338564 0.370171
0.715434 0.5 -0.15 0.897765 0.0411492 0.32728
0.715434 0.5 0.15 0.897593 0.0417615 0.355473
0.467897 0.5 -0.5625 0.928585 0.022739 0.317656
0.467897 0.5 0.5625 0.929158 0.0231169 0.370041
0.288069 0.5 -0.675 0.936647 0.0138905 0.326188
0.288069 0.5 0.675 0.937117 0.0138571 0.361012
0.523432 0.5 -0.525 0.924438 0.0258134 0.315141
0.523432 0.5 0.525 0.924864 0.0264115 0.37219
0 0.5 -0.743821 0.939693 0 0.34202
0 0.5 0.743821 0.939693 0 0.34202
0.0124865 0.5 -0.743821 0.939694 0.000775612 0.341218
0.0124865 0.5 0.743821 0.939707 0.000754342 0.343023
0.219992 0.5 0.7125 0.938797 0.0107251 0.35707
0.219992 0.5 -0.7125 0.938471 0.0108564 0.329653
0.715434 0.5 -0.225 0.899153 0.0404927 0.320696
0.715434 0.5 0.225 0.898883 0.041387 0.362355
0 0.5 -0.75 0.939693 0 0.34202
0 0.5 0.75 0.939693 0 0.34202
0.67013 0.5 0.3375 0.907299 0.0372447 0.369892
0.67013 0.5 -0.3375 0.907433 0.0362201 0.314878
0.574156 0.5 -0.4875 0.920152 0.028849 0.313138
0.574156 0.5 0.4875 0.920447 0.0296341 0.373748
0 0.5 -0.756179 0.939693 0 0.34202
0 0.5 0.756179 0.939693 0 0.34202
0.0124865 0.5 -0.756179 0.939701 0.000752605 0.341162
0.0124865 0.5 0.756179 0.939714 0.000728902 0.343065
0.756813 0.5 -0.0375 0.890601 0.0449323 0.336729
0.756813 0.5 0.0375 0.890528 0.0451179 0.344503
0.151149 0.5 -0.75 0.939122 0.00776145 0.332994
0.151149 0.5 0.75 0.939332 0.00761958 0.352969
0.756813 0.5 -0.1125 0.891309 0.0445172 0.329098
0.756813 0.5 0.1125 0.89109 0.0450673 0.352287
0.624316 0.5 -0.45 0.914918 0.0320806 0.311267
0.624316 0.5 0.45 0.914961 0.033091 0.374809
0.715434 0.5 -0.3 0.901026 0.03966 0.314533
0.715434 0.5 0.3 0.900656 0.0408113 0.368926
0.756813 0.5 0.1875 0.892261 0.0447818 0.359928
0.756813 0.5 -0.1875 0.892633 0.0438845 0.32175
0.67013 0.5 -0.4125 0.909536 0.0352795 0.309938
0.67013 0.5 0.4125 0.909368 0.03647 0.375248
0.411736 0.5 -0.675 0.932658 0.0192039 0.318336
0.411736 0.5 0.675 0.9333 0.0194261 0.369373
0.467897 0.5 0.6375 0.930423 0.0224237 0.372395
0.467897 0.5 -0.6375 0.929786 0.0220361 0.315387
0.075776 0.5 -0.7875 0.939713 0.00455775 0.336835
0.075776 0.5 0.7875 0.939793 0.00441187 0.348342
0.350249 0.5 -0.7125 0.935378 0.0163312 0.321742
0.350249 0.5 0.7125 0.936014 0.0163691 0.365819
0.523432 0.5 -0.6 0.925952 0.0250089 0.312415
0.523432 0.5 0.6 0.926437 0.0256406 0.375102
0.797732 0.5 2.68882e-17 0.883838 0.0483384 0.339844
0.756813 0.5 -0.2625 0.894539 0.0430492 0.314812
0.756814 0.5 0.2625 0.894004 0.0442683 0.36729
0.797732 0.5 0.0736268 0.884153 0.0484016 0.348602
0.797732 0.5 -0.075 0.884321 0.0479942 0.331467
0.288069 0.5 -0.75 0.937107 0.0134648 0.325057
0.288069 0.5 0.75 0.937606 0.0134087 0.362047
0.574156 0.5 -0.5625 0.921945 0.0279568 0.30991
0.574157 0.5 0.5625 0.922288 0.0288021 0.377254
0.715434 0.5 -0.375 0.903328 0.0386695 0.308885
0.715434 0.5 0.375 0.902867 0.040048 0.375082
0.797732 0.5 -0.15 0.885523 0.0474045 0.323332
0.797732 0.5 0.15 0.885047 0.0482566 0.356714
0.624316 0.5 -0.525 0.917029 0.0310977 0.307483
0.624316 0.5 0.525 0.91709 0.0322067 0.378983
0.219992 0.5 -0.7875 0.938711 0.0105229 0.328835
0.219992 0.5 0.7875 0.939052 0.0103647 0.357758
0 0.5 -0.818821 0.939693 0 0.34202
0 0.5 0.818821 0.939693 0 0.34202
0.0124865 0.5 0.818821 0.939714 0.000728902 0.343065
0.0124865 0.5 -0.818821 0.939701 0.000752605 0.341162
0 0.5 -0.825 0.939693 0 0.34202
0 0.5 0.825 0.939693 0 0.34202
0.756813 0.5 0.3375 0.896282 0.0435388 0.374249
0.756814 0.5 -0.3375 0.896971 0.0420293 0.308415
0.67013 0.5 -0.4875 0.911917 0.0342219 0.305545
0.67013 0.5 0.4875 0.911729 0.0355526 0.380128
0.797732 0.5 -0.225 0.887414 0.0465838 0.315591
0.797732 0.5 0.225 0.886691 0.0478316 0.364887
0 0.5 -0.831179 0.939693 0 0.34202
0 0.5 0.831179 0.939693 0 0.34202
0.0124865 0.5 -0.831179 0.939708 0.000728909 0.341117
0.0124865 0.5 0.831179 0.939721 0.000703181 0.343096
0.835106 0.5 0.0375 0.877309 0.0516175 0.343663
0.835106 0.5 -0.0375 0.877475 0.0513682 0.334546
0.151149 0.5 -0.825 0.939268 0.0075166 0.332462
0.151149 0.5 0.825 0.939485 0.00735439 0.353389
0.835106 0.5 0.1125 0.877968 0.0515855 0.352805
0.835106 0.5 -0.1125 0.878455 0.0508455 0.325616
0.715434 0.5 -0.45 0.905989 0.0375401 0.303824
0.715434 0.5 0.45 0.905452 0.039114 0.380724
0.797732 0.5 -0.3 0.889937 0.0455502 0.308386
0.797732 0.5 0.3 0.88897 0.0471621 0.372686
0.467897 0.5 0.7125 0.931735 0.0216787 0.374382
0.467897 0.5 -0.7125 0.931036 0.0212909 0.313475
0.523432 0.5 -0.675 0.927543 0.0241515 0.310107
0.523432 0.5 0.675 0.92809 0.0248034 0.377596
0.411736 0.5 -0.75 0.933633 0.0185595 0.316787
0.411736 0.5 0.75 0.934326 0.0187699 0.370923
0.835106 0.5 -0.1875 0.880232 0.050063 0.317038
0.835106 0.5 0.1875 0.879422 0.0512729 0.361786
0.574156 0.5 -0.6375 0.923849 0.0269991 0.307154
0.574157 0.5 0.6375 0.924249 0.0278877 0.380296
0.350249 0.5 -0.7875 0.936057 0.0157984 0.320514
0.350249 0.5 0.7875 0.93673 0.0158148 0.36697
0.756813 0.5 -0.4125 0.899852 0.040847 0.30263
0.756814 0.5 0.4125 0.899026 0.042611 0.38071
0.075776 0.5 -0.8625 0.939755 0.00441266 0.336558
0.075776 0.5 0.8625 0.939834 0.00425431 0.348531
0.624316 0.5 0.6 0.919392 0.0312199 0.382647
0.624316 0.5 -0.6 0.919297 0.030034 0.304232
0.872064 0.5 5.91974e-17 0.87048 0.054736 0.338253
0.870122 0.5 0.075 0.871175 0.0546713 0.348502
0.288069 0.5 -0.825 0.937576 0.0130207 0.324128
0.288069 0.5 0.825 0.938099 0.0129395 0.362867
0.67013 0.5 -0.5625 0.914512 0.0330662 0.301742
0.67013 0.5 0.5625 0.914328 0.0345111 0.384456
0.872064 0.5 -0.075 0.871155 0.0543044 0.328541
0.835106 0.5 -0.2625 0.882765 0.0490383 0.308987
0.835106 0.5 0.2625 0.881616 0.0506873 0.37044
0.797732 0.5 -0.375 0.893011 0.0443259 0.301824
0.797732 0.5 0.375 0.891826 0.0462638 0.379988
0.872064 0.5 0.14794 0.871881 0.0546947 0.357852
0.872064 0.5 -0.15 0.872732 0.0535839 0.319127
0.715434 0.5 -0.525 0.908931 0.036292 0.299408
0.715434 0.5 0.525 0.908347 0.0380299 0.385784
0.219992 0.5 0.8625 0.939307 0.0099916 0.358284
0.219993 0.5 -0.8625 0.938955 0.0101764 0.328168
0 0.5 -0.893821 0.939693 0 0.34202
0 0.5 0.893821 0.939693 0 0.34202
0.0124865 0.5 -0.893821 0.939708 0.000728909 0.341117
0.0124865 0.5 0.893821 0.939721 0.000703181 0.343096
0 0.5 -0.9 0.939693 0 0.34202
0 0.5 0.9 0.939693 0 0.34202
0.756813 0.5 -0.4875 0.903092 0.0395229 0.29754
0.756813 0.5 0.4875 0.902159 0.0415042 0.386534
0.872064 0.5 -0.225 0.875184 0.0525911 0.3102
0.872064 0.5 0.225 0.873901 0.0542223 0.367356
0.835106 0.5 -0.3375 0.885958 0.0477935 0.301595
0.835106 0.5 0.3375 0.884496 0.0498425 0.378606
0 0.5 0.906179 0.939693 0 0.34202
0 0.5 -0.906179 0.939693 0 0.34202
0.0124865 0.5 -0.906179 0.939714 0.000704972 0.341081
0.0124865 0.5 0.906179 0.939726 0.000677369 0.343117
0.90582 0.5 -0.0375 0.863961 0.0576765 0.332188
0.90582 0.5 0.0375 0.863689 0.0579931 0.342678
0.151149 0.5 -0.9 0.939414 0.00726493 0.332036
0.151149 0.5 0.9 0.939636 0.00708364 0.353697
0.90582 0.5 -0.1125 0.865235 0.0570425 0.321928
0.905821 0.5 0.1125 0.864447 0.0579832 0.353212
0.523432 0.5 -0.75 0.929171 0.0232541 0.308217
0.523432 0.5 0.75 0.929786 0.0239123 0.37966
0.574156 0.5 -0.7125 0.925817 0.0259908 0.304879
0.574156 0.5 0.7125 0.926284 0.0269053 0.382855
0.797732 0.5 -0.45 0.896542 0.0429355 0.295997
0.797732 0.5 0.45 0.895174 0.0451569 0.386665
0.467897 0.5 0.7875 0.933068 0.0208924 0.375996
0.467897 0.5 -0.7875 0.932308 0.0205145 0.311921
0.624316 0.5 -0.675 0.921661 0.0289067 0.301528
0.624316 0.5 0.675 0.921811 0.0301472 0.385772
0.411736 0.5 -0.825 0.934616 0.0178914 0.315541
0.411736 0.5 0.825 0.935357 0.0180828 0.372154
0.872064 0.5 0.3 0.876722 0.0534613 0.376419
0.872064 0.5 -0.3 0.87843 0.0513483 0.301927
0.67013 0.5 -0.6375 0.917249 0.0318319 0.298551
0.67013 0.5 0.6375 0.917096 0.0333639 0.388195
0.90582 0.5 0.1875 0.866195 0.0576475 0.363566
0.905821 0.5 -0.1875 0.867498 0.0561051 0.31209
0.350249 0.5 -0.8625 0.936739 0.0152481 0.319533
0.350249 0.5 0.8625 0.937444 0.0152391 0.367858
0.835106 0.5 -0.4125 0.889715 0.0463547 0.294962
0.835106 0.5 0.4125 0.887989 0.048758 0.386178
0.715434 0.5 -0.6 0.912072 0.0349474 0.295673
0.715434 0.5 0.6 0.911477 0.0368171 0.390211
0.939201 0.5 2.75387e-17 0.856548 0.0611974 0.336524
0.075776 0.5 0.9375 0.93987 0.00409646 0.348658
0.075776 0.5 -0.9375 0.939795 0.00426574 0.33634
0.939111 0.5 0.075 0.85684 0.0613738 0.348722
0.939201 0.5 -0.075 0.857449 0.060671 0.325417
0.756813 0.5 0.5625 0.905605 0.0402439 0.391699
0.756814 0.5 -0.5625 0.906601 0.038082 0.293193
0.90582 0.5 0.2625 0.868867 0.0569938 0.373541
0.905821 0.5 -0.2625 0.870711 0.0548859 0.302892
0.288069 0.5 -0.9 0.938043 0.0125644 0.323396
0.288069 0.5 0.9 0.938587 0.0124567 0.363476
0.872064 0.5 -0.375 0.882356 0.0498817 0.294445
0.872064 0.5 0.375 0.880269 0.0524294 0.384889
0.939201 0.5 0.148627 0.858198 0.0611729 0.359159
0.939201 0.5 -0.15 0.859447 0.0598077 0.314667
0.797732 0.5 -0.525 0.900425 0.0414052 0.290973
0.797732 0.5 0.525 0.898918 0.0438665 0.392625
0.219992 0.5 0.9375 0.939565 0.00961207 0.358653
0.219992 0.5 -0.9375 0.939199 0.00982223 0.327649
0.939201 0.5 -0.225 0.862527 0.0586271 0.304495
0.939201 0.5 0.225 0.860539 0.0606752 0.369876
0.905821 0.5 -0.3375 0.874726 0.0534124 0.294481
0.90582 0.5 0.3375 0.872381 0.0560383 0.382949
0.835106 0.5 -0.4875 0.893922 0.0447509 0.289192
0.835106 0.5 0.4875 0.891978 0.0474582 0.392985
0 0.5 0.968821 0.939693 0 0.34202
0 0.5 -0.968821 0.939693 0 0.34202
0.0124865 0.5 -0.968821 0.939714 0.000704972 0.341081
0.0124865 0.5 0.968821 0.939726 0.000677369 0.343117
0.969689 0.5 -0.0375 0.849726 0.0642275 0.329666
0.969689 0.5 0.0375 0.849296 0.0646185 0.341626
0.574156 0.5 -0.7875 0.927801 0.0249467 0.303078
0.574156 0.5 0.7875 0.928348 0.0258689 0.384924
0 0.5 -0.975 0.939693 0 0.34202
0 0.5 0.975 0.939693 0 0.34202
0.624316 0.5 -0.75 0.924063 0.0277332 0.299368
0.624316 0.5 0.75 0.92429 0.0290054 0.388345
0.969689 0.5 -0.1125 0.851345 0.0634669 0.317994
0.96969 0.5 0.1125 0.850135 0.0646295 0.353653
0.523432 0.5 -0.825 0.930801 0.022329 0.306738
0.523432 0.5 0.825 0.931489 0.0229794 0.381294
0.67013 0.5 0.7125 0.919965 0.0321306 0.391323
0.67013 0.5 -0.7125 0.920054 0.0305387 0.295975
0 0.5 -0.981179 0.939693 0 0.34202
0 0.5 0.981179 0.939693 0 0.34202
0.467897 0.5 0.8625 0.934393 0.0200753 0.377241
0.467897 0.5 -0.8625 0.933573 0.019717 0.310714
0.0124865 0.5 -0.981179 0.93972 0.000681054 0.341054
0.0124865 0.5 0.981179 0.939731 0.000651892 0.343128
0.872064 0.5 -0.45 0.886843 0.0482215 0.287864
0.872064 0.5 0.45 0.884439 0.05115 0.392628
0.715434 0.5 -0.675 0.915326 0.0335294 0.292629
0.715434 0.5 0.675 0.914762 0.0354969 0.393967
0.939201 0.5 -0.3 0.866577 0.0571565 0.295109
0.939201 0.5 0.3 0.86394 0.0598154 0.380254
0.151149 0.5 0.975 0.939786 0.00681028 0.353897
0.151149 0.5 -0.975 0.939558 0.00701018 0.331712
0.969689 0.5 -0.1875 0.854166 0.0623515 0.306807
0.969689 0.5 0.1875 0.852186 0.0642622 0.365469
0.756813 0.5 -0.6375 0.91028 0.0365499 0.289614
0.756813 0.5 0.6375 0.909271 0.0388537 0.396138
0.411736 0.5 -0.9 0.935589 0.017208 0.314586
0.411736 0.5 0.9 0.936373 0.017374 0.373071
0.90582 0.5 -0.4125 0.879432 0.0517137 0.287025
0.90582 0.5 0.4125 0.876656 0.0548015 0.391641
0.995005 0.5 0.0749309 0.84439 0.0666659 0.348424
0.797732 0.5 -0.6 0.90455 0.0397633 0.286791
0.797732 0.5 0.6 0.902962 0.0424198 0.397819
1.00005 0.5 -8.47123e-18 0.842931 0.0669157 0.334742
0.350249 0.5 -0.9375 0.937413 0.0146874 0.318788
0.350249 0.5 0.9375 0.938142 0.0146498 0.368491
1.00005 0.5 -0.0749309 0.844067 0.0663062 0.322332
0.969689 0.5 -0.2625 0.858166 0.0609085 0.296385
0.969689 0.5 0.2625 0.855371 0.0635249 0.376843
0.835106 0.5 -0.5625 0.898456 0.0430124 0.284331
0.835106 0.5 0.5625 0.896348 0.0459734 0.398993
1.00005 0.5 -0.149862 0.84649 0.0653208 0.310321
0.939201 0.5 -0.375 0.871443 0.0554272 0.286674
0.939201 0.5 0.375 0.86823 0.0586398 0.389931
1.00029 0.5 0.148988 0.844844 0.0669105 0.360087
0.075776 0.5 -1.0125 0.939831 0.00411877 0.336179
0.075776 0.5 1.0125 0.939898 0.00394016 0.348727
0.288069 0.5 0.975 0.939064 0.0119653 0.363884
0.288069 0.5 -0.975 0.938504 0.0121015 0.322852
0.872064 0.5 -0.525 0.891753 0.0463998 0.282251
0.872064 0.5 0.525 0.889103 0.0496524 0.39951
1.00005 0.5 0.224793 0.847499 0.066413 0.372092
1.00005 0.5 -0.224793 0.850211 0.0639821 0.298958
0.969689 0.5 0.3375 0.859582 0.0624369 0.387553
0.96969 0.5 -0.3375 0.863107 0.0591715 0.286912
1.0271 0.5 -0.0368226 0.836131 0.0697937 0.327292
1.0271 0.5 0.0368226 0.835591 0.0702359 0.340349
0.90582 0.5 0.4875 0.88155 0.0533127 0.399486
0.905821 0.5 -0.4875 0.884672 0.0498259 0.280586
1.0271 0.5 -0.110468 0.83805 0.0689612 0.314561
1.0271 0.5 0.110468 0.836069 0.0705786 0.356543
0.67013 0.5 0.7875 0.922872 0.03083 0.393833
0.67013 0.5 -0.7875 0.922863 0.0292063 0.294001
0.624316 0.5 0.825 0.926776 0.0278108 0.390366
0.624316 0.5 -0.825 0.92645 0.0265301 0.297736
0.219993 0.5 -1.0125 0.939444 0.00946562 0.32727
0.219993 0.5 1.0125 0.939829 0.00922768 0.358876
0.574156 0.5 -0.8625 0.92976 0.0238804 0.301733
0.574156 0.5 0.8625 0.930398 0.0247924 0.386509
0.715434 0.5 -0.75 0.918609 0.0320603 0.290267
0.715434 0.5 0.75 0.918126 0.0340907 0.397038
0.756813 0.5 0.7125 0.913067 0.0373567 0.399828
0.756814 0.5 -0.7125 0.91403 0.034953 0.2868
0.523432 0.5 -0.9 0.932399 0.0213877 0.30565
0.523432 0.5 0.9 0.933165 0.0220171 0.382506
0.939201 0.5 -0.45 0.876976 0.0534748 0.279312
0.939201 0.5 0.45 0.873285 0.0571753 0.398757
1.04168 0.5 0 0.831849 0.0716385 0.333297
1.0271 0.5 -0.184113 0.841315 0.0677489 0.302318
1.0271 0.5 0.184113 0.838815 0.0699203 0.366438
0 0.5 -1.04382 0.939693 0 0.34202
0 0.5 1.04382 0.939693 0 0.34202
0.0124865 0.5 -1.04382 0.93972 0.000681054 0.341054
0.0124865 0.5 1.04382 0.939731 0.000651892 0.343128
1.00005 0.5 -0.299723 0.855085 0.0623223 0.288514
1.00005 0.5 0.299723 0.851489 0.0654842 0.383714
1.04168 0.5 -0.0729162 0.833136 0.070986 0.320135
1.04168 0.5 0.0729162 0.832022 0.071891 0.346693
0.797732 0.5 -0.675 0.908794 0.0380376 0.28346
0.797732 0.5 0.675 0.907203 0.0408431 0.4022
0.467897 0.5 0.9375 0.935685 0.0192377 0.378126
0.467897 0.5 -0.9375 0.934808 0.0189076 0.309838
0 0.5 -1.05 0.939693 0 0.34202
0 0.5 1.05 0.939693 0 0.34202
0.835106 0.5 -0.6375 0.903188 0.0411705 0.280406
0.835106 0.5 0.6375 0.900998 0.0443332 0.404125
1.04168 0.5 -0.145832 0.835803 0.0699422 0.307375
1.04168 0.5 0.145832 0.833651 0.0717397 0.360029
0.969689 0.5 -0.4125 0.868875 0.0571743 0.278543
0.96969 0.5 0.4125 0.864713 0.0610212 0.39741
0 0.5 -1.05618 0.939693 0 0.34202
0 0.5 1.05618 0.939693 0 0.34202
0.0124865 0.5 -1.05618 0.939724 0.000657191 0.341036
0.0124865 0.5 1.05618 0.939733 0.000627649 0.343131
1.05695 0.5 -0.0360764 0.828178 0.0729949 0.325931
1.05695 0.5 0.0360764 0.82757 0.073463 0.339527
0.411736 0.5 -0.975 0.936532 0.0165167 0.313907
0.411736 0.5 0.975 0.937353 0.0166519 0.373688
0.872064 0.5 -0.6 0.896938 0.0444503 0.277655
0.872064 0.5 0.6 0.894128 0.0479705 0.405462
1.0271 0.5 -0.257759 0.845965 0.0661913 0.290903
1.0271 0.5 0.257759 0.842428 0.0691722 0.378904
0.151149 0.5 -1.05 0.939701 0.00675462 0.331484
0.151149 0.5 1.05 0.939933 0.00653768 0.353998
1.05695 0.5 0.108229 0.827703 0.073854 0.353533
1.05695 0.5 -0.108229 0.830253 0.072127 0.312703
1.04168 0.5 -0.218749 0.839874 0.0685315 0.295265
1.04168 0.5 0.218749 0.83666 0.0711892 0.373015
0.90582 0.5 -0.5625 0.890292 0.047782 0.275227
0.905821 0.5 0.5625 0.886915 0.0516051 0.406318
1.00005 0.5 -0.374654 0.860915 0.0603746 0.279169
1.00005 0.5 0.374654 0.856529 0.0642038 0.394538
0.350249 0.5 1.0125 0.938803 0.0140514 0.368884
0.350249 0.5 -1.0125 0.938064 0.0141214 0.318267
1.05695 0.5 -0.180382 0.833677 0.0708682 0.299923
1.05695 0.5 0.180382 0.830833 0.0731785 0.366724
1.07319 0.5 0.0709442 0.823376 0.0754225 0.349044
0.939201 0.5 -0.525 0.883004 0.0513374 0.273117
0.939201 0.5 0.525 0.878946 0.0554556 0.406579
1.0271 0.5 -0.331404 0.851693 0.0643193 0.280558
1.0271 0.5 0.331404 0.847222 0.068052 0.390665
1.08112 0.5 3.23815e-17 0.820828 0.0759835 0.331823
1.04168 0.5 -0.291665 0.845215 0.0667874 0.284136
1.04168 0.5 0.291665 0.840945 0.0702526 0.38541
1.08112 0.5 -0.0709442 0.822256 0.0752929 0.317968
0.969689 0.5 -0.4875 0.875257 0.0549605 0.271384
0.96969 0.5 0.4875 0.870606 0.0593128 0.406284
1.05695 0.5 0.252535 0.834557 0.0724345 0.379738
1.05695 0.5 -0.252535 0.838599 0.0692604 0.287994
0.288069 0.5 -1.05 0.938949 0.0116359 0.322483
0.288069 0.5 1.05 0.939524 0.0114681 0.364103
0.075776 0.5 -1.0875 0.93986 0.00397265 0.33607
0.075776 0.5 1.0875 0.939917 0.00379061 0.348744
1.08112 0.5 -0.141888 0.825134 0.0742006 0.304525
1.08145 0.5 0.140165 0.822921 0.0760322 0.360405
0.715434 0.5 0.825 0.921493 0.03262 0.399427
0.715434 0.5 -0.825 0.921847 0.0305616 0.288557
0.756813 0.5 0.7875 0.916907 0.0357771 0.402763
0.756814 0.5 -0.7875 0.917756 0.033315 0.284723
0.67013 0.5 -0.8625 0.925615 0.0278529 0.292598
0.67013 0.5 0.8625 0.925754 0.0294804 0.395734
0.797732 0.5 -0.75 0.913046 0.0362566 0.280959
0.797732 0.5 0.75 0.911541 0.0391629 0.405753
0.624316 0.5 -0.9 0.928773 0.0253127 0.296602
0.624316 0.5 0.9 0.92922 0.0265799 0.391849
1.00005 0.5 -0.449585 0.867532 0.0581781 0.271067
1.00005 0.5 0.449585 0.862473 0.062601 0.404395
0.835106 0.5 -0.7125 0.907962 0.039254 0.27741
0.835106 0.5 0.7125 0.905808 0.0425663 0.408361
0.574156 0.5 -0.9375 0.931656 0.0228044 0.300817
0.574157 0.5 0.9375 0.932395 0.0236901 0.387625
1.10076 0.5 -0.0349809 0.815358 0.0779758 0.323867
1.10076 0.5 0.0349809 0.814666 0.0784774 0.338293
1.08112 0.5 -0.212832 0.829484 0.0727336 0.291717
1.08112 0.5 0.212832 0.825724 0.0755991 0.373719
0.872064 0.5 -0.675 0.90225 0.0424088 0.274088
0.872064 0.5 0.675 0.899383 0.0461356 0.410453
1.04168 0.5 -0.364581 0.851601 0.0647404 0.274178
1.04168 0.5 0.364581 0.846371 0.0689511 0.396983
1.0271 0.5 0.405049 0.853057 0.0665833 0.401509
1.0271 0.5 -0.405049 0.858385 0.0621671 0.271431
1.05695 0.5 -0.324688 0.844621 0.0673281 0.277211