# wallShearStress  FACE_DATA 60650
# x  y  z  wallShearStress_x  wallShearStress_y  wallShearStress_z
8.75721 0 0.345731 0.000794419 -2.35396e-06 0.000712547
8.72516 0 0.336919 0.00092571 -7.27925e-06 0.000705317
8.69439 0 0.328456 0.00102291 -1.4596e-05 0.000681259
8.66483 0 0.320329 0.00106595 -2.35959e-05 0.000632284
8.63646 0 0.312526 0.00103481 -3.12831e-05 0.000549256
8.6092 0 0.305031 0.000935309 -3.55618e-05 0.000427828
8.58303 0 0.297833 0.00079265 -3.61402e-05 0.000273991
8.82531 0 0.430728 -4.18975e-06 -1.53929e-07 0.000813203
8.79057 0 0.419435 0.000124757 -2.50768e-06 0.000888644
8.75721 0 0.408591 0.000233466 -4.37668e-06 0.000951155
8.72516 0 0.398176 0.000337024 -7.38035e-06 0.000994562
8.69439 0 0.388175 0.000414119 -1.08676e-05 0.00101743
8.66483 0 0.378571 0.000454677 -1.61445e-05 0.00101123
8.63646 0 0.369348 0.000441987 -2.25152e-05 0.000966698
8.6092 0 0.360491 0.000376068 -2.81691e-05 0.000874889
8.58303 0 0.351985 0.000262183 -3.30341e-05 0.000735546
8.5579 0 0.343817 0.000111467 -3.52911e-05 0.000559492
8.53376 0 0.335973 -3.75024e-05 -3.41778e-05 0.000366704
8.51058 0 0.32844 -0.000154656 -3.11806e-05 0.000169837
8.9384 0 0.539403 -0.000654696 -1.38085e-06 0.000423852
8.89917 0 0.52469 -0.000651371 3.27979e-06 0.00054119
8.8615 0 0.510562 -0.000559201 -1.87431e-07 0.00066876
8.82531 0 0.496994 -0.000500984 2.61679e-06 0.000792552
8.79057 0 0.483964 -0.000414646 2.16547e-06 0.000907392
8.75721 0 0.471451 -0.000338455 1.33787e-07 0.00101494
8.72516 0 0.459434 -0.000257745 -2.96196e-06 0.00110448
8.69439 0 0.447895 -0.000196831 -5.55061e-06 0.00117355
8.66483 0 0.436813 -0.000157881 -1.05882e-05 0.00121523
8.63646 0 0.426171 -0.000149915 -1.56993e-05 0.00122354
8.6092 0 0.415951 -0.000173151 -2.03555e-05 0.0011901
8.58303 0 0.406136 -0.000228827 -2.55474e-05 0.00110848
8.5579 0 0.396712 -0.000319902 -2.89601e-05 0.000984654
8.53376 0 0.387661 -0.000423488 -2.76455e-05 0.0008269
8.51058 0 0.378969 -0.000516317 -2.56835e-05 0.000649144
8.48833 0 0.370622 -0.000600137 -2.45736e-05 0.000461547
8.46695 0 0.362605 -0.000662205 -2.51725e-05 0.000278174
8.9384 0 0.611323 -0.000935679 1.67295e-06 0.000230929
8.89917 0 0.594649 -0.000961389 5.16074e-06 0.00034446
8.8615 0 0.578636 -0.000919324 1.59837e-06 0.000478381
8.82531 0 0.563259 -0.000907044 2.51042e-06 0.000621933
8.79057 0 0.548492 -0.000870004 4.67595e-07 0.000760802
8.75721 0 0.534311 -0.000838975 3.73083e-07 0.000897286
8.72516 0 0.520692 -0.000790234 -7.85046e-07 0.00102092
8.69439 0 0.507614 -0.00074764 -2.10525e-06 0.00113099
8.66483 0 0.495055 -0.00071076 -4.36118e-06 0.00121958
8.63646 0 0.482994 -0.000690487 -7.05005e-06 0.00128057
8.6092 0 0.471411 -0.000687741 -9.53929e-06 0.00130635
8.58303 0 0.460288 -0.000707011 -1.31914e-05 0.00129416
8.5579 0 0.449607 -0.000744239 -1.58042e-05 0.00124086
8.53376 0 0.439349 -0.000793436 -1.84221e-05 0.00114572
8.51058 0 0.429498 -0.000852222 -2.03693e-05 0.00102078
8.48833 0 0.420038 -0.000906803 -2.0213e-05 0.000876455
8.46695 0 0.410953 -0.000967016 -2.12097e-05 0.000714473
8.44642 0 0.402229 -0.00100352 -1.99918e-05 0.00055345
8.42671 0 0.393851 -0.00101847 -1.97371e-05 0.000413601
8.9384 0 0.683243 -0.00102305 7.08079e-07 2.77308e-05
8.89917 0 0.664607 -0.0010997 4.4601e-06 0.000113916
8.8615 0 0.646711 -0.00113312 1.85948e-06 0.000211108
8.82531 0 0.629525 -0.00118022 3.61813e-06 0.000339561
8.79057 0 0.613021 -0.0011834 3.08634e-06 0.000470706
8.75721 0 0.597171 -0.00119713 3.97215e-06 0.000619852
8.72516 0 0.58195 -0.00119437 3.28598e-06 0.000765288
8.69439 0 0.567333 -0.00119324 2.1048e-06 0.000905757
8.66483 0 0.553296 -0.00118492 1.11279e-06 0.00103362
8.63646 0 0.539816 -0.0011753 -7.15067e-09 0.0011428
8.6092 0 0.526871 -0.0011694 -1.88746e-06 0.00122581
8.58303 0 0.51444 -0.00117084 -3.71223e-06 0.00127881
8.5579 0 0.502501 -0.00117671 -5.84082e-06 0.00129796
8.53376 0 0.491037 -0.00118983 -8.74867e-06 0.00128373
8.51058 0 0.480027 -0.00120708 -1.153e-05 0.00123362
8.48833 0 0.469454 -0.00122 -1.36893e-05 0.00115141
8.46695 0 0.4593 -0.00123723 -1.55698e-05 0.00104471
8.44642 0 0.44955 -0.00128919 -1.66913e-05 0.000914174
8.42671 0 0.440186 -0.00132277 -1.83372e-05 0.000782782
8.40778 0 0.431194 -0.0013069 -1.64896e-05 0.000660499
8.38959 0 0.422558 -0.00130274 -1.58609e-05 0.000546888
8.9384 0 0.755163 -0.000924369 -1.85395e-06 -0.000102501
8.89917 0 0.734566 -0.0010444 2.52354e-06 -4.64691e-05
8.8615 0 0.714786 -0.00111436 -1.17005e-07 -7.96356e-06
8.82531 0 0.69579 -0.00123823 2.79846e-06 7.52867e-05
8.79057 0 0.677549 -0.00130053 9.80859e-07 0.000157638
8.75721 0 0.660031 -0.00139032 2.50231e-06 0.000277619
8.72516 0 0.643208 -0.00143592 3.71636e-06 0.00040316
8.69439 0 0.627053 -0.00147924 5.39664e-06 0.000539991
8.66483 0 0.611538 -0.00150685 5.41958e-06 0.000676126
8.63646 0 0.596639 -0.00152787 4.67323e-06 0.000811606
8.6092 0 0.582331 -0.00154232 3.04401e-06 0.000936465
8.58303 0 0.568591 -0.00155793 1.47909e-06 0.00104341
8.5579 0 0.555397 -0.00157155 -2.84633e-07 0.00112707
8.53376 0 0.542725 -0.0015843 -1.89754e-06 0.00118403
8.51058 0 0.530556 -0.00159127 -2.36155e-06 0.00121368
8.48833 0 0.518871 -0.00158397 -4.19871e-06 0.00121378
8.46695 0 0.507648 -0.00157104 -6.19853e-06 0.00118413
8.44642 0 0.496871 -0.00156259 -8.4066e-06 0.0011314
8.42671 0 0.486522 -0.00156497 -1.0543e-05 0.00103924
8.40778 0 0.476583 -0.00158177 -1.30123e-05 0.00093855
8.38959 0 0.467038 -0.00157607 -1.55183e-05 0.00083575
8.9384 0 0.827083 -0.000682286 -5.38788e-06 -0.000166487
8.89917 0 0.804525 -0.000880749 4.83278e-06 -0.000128112
8.8615 0 0.782861 -0.000944796 -5.21594e-06 -0.000124958
8.82531 0 0.762056 -0.00114322 2.75818e-06 -8.33695e-05
8.79057 0 0.742077 -0.00122598 -6.90994e-07 -5.36414e-05
8.75721 0 0.722891 -0.00137269 2.40224e-06 5.227e-06
8.72516 0 0.704466 -0.00145865 1.59337e-06 7.72544e-05
8.69439 0 0.686772 -0.00156039 2.36616e-06 0.000175085
8.66483 0 0.66978 -0.00164702 2.91005e-06 0.000284021
8.63646 0 0.653462 -0.00172772 4.84709e-06 0.000403365
8.6092 0 0.637792 -0.00178094 6.43769e-06 0.000526265
8.58303 0 0.622743 -0.00181859 6.90065e-06 0.00064731
8.5579 0 0.608291 -0.00184803 6.20069e-06 0.000761503
8.53376 0 0.594413 -0.00187403 4.29642e-06 0.000863296
8.51058 0 0.581085 -0.00189774 2.02105e-06 0.000948812
8.48833 0 0.568287 -0.00191532 8.60455e-07 0.00101915
8.46695 0 0.555995 -0.00191887 -6.76444e-08 0.00106871
8.44642 0 0.544192 -0.00190882 2.72408e-07 0.00109586
8.42671 0 0.532857 -0.00188635 -8.32466e-08 0.00109643
8.40778 0 0.521972 -0.00185685 -2.22351e-06 0.00106638
8.38959 0 0.511518 -0.00183007 -5.50807e-06 0.0010093
8.9384 0 0.899004 -0.000392166 -1.51078e-05 -0.000147632
8.89917 0 0.874483 -0.000695288 2.48742e-06 -0.000120068
8.8615 0 0.850935 -0.000682927 -7.65899e-06 -0.000162529
8.82531 0 0.828322 -0.000915015 4.25501e-06 -0.00016501
8.79057 0 0.806606 -0.00100631 -4.50383e-06 -0.000154973
8.75721 0 0.785751 -0.00120547 -4.19943e-07 -0.00014459
8.72516 0 0.765724 -0.00133562 -1.38544e-06 -0.000125468
8.69439 0 0.746491 -0.00148225 1.6006e-06 -8.97107e-05
8.66483 0 0.728022 -0.00159503 1.70207e-06 -3.61017e-05
8.63646 0 0.710285 -0.0017062 2.70297e-06 3.45757e-05
8.6092 0 0.693252 -0.00180582 3.76504e-06 0.000120688
8.58303 0 0.676895 -0.0018985 5.10492e-06 0.000218953
8.5579 0 0.661186 -0.00197755 6.18708e-06 0.000321968
8.53376 0 0.646101 -0.00204085 7.18522e-06 0.000427443
8.51058 0 0.631614 -0.00208632 7.34504e-06 0.000531117
8.48833 0 0.617703 -0.00211917 7.37643e-06 0.00062821
8.46695 0 0.604343 -0.00214216 6.4727e-06 0.000716485
8.44642 0 0.591513 -0.00215715 5.34225e-06 0.00079459
8.42671 0 0.579192 -0.00217068 4.6487e-06 0.000860816
8.40778 0 0.56736 -0.00216754 3.17277e-06 0.00091349
8.38959 0 0.555998 -0.00214539 2.41708e-06 0.000946794
8.37214 0 0.545086 -0.00211657 2.09402e-06 0.000957036
8.9384 0 0.970925 -0.000242209 -2.19457e-05 -0.000130922
8.89917 0 0.944442 -0.00060938 1.27289e-05 -0.000100649
8.8615 0 0.91901 -0.000410099 -9.87021e-06 -0.000142391
8.82531 0 0.894588 -0.000660952 -1.77218e-06 -0.000172748
8.79057 0 0.871135 -0.000748062 -4.36134e-06 -0.000184219
8.75721 0 0.848612 -0.000935489 9.64445e-07 -0.000202548
8.72516 0 0.826982 -0.00107469 -2.7258e-06 -0.000203163
8.69439 0 0.806211 -0.00125185 -1.28129e-06 -0.000210017
8.66483 0 0.786263 -0.00140875 -1.40493e-06 -0.000208724
8.63646 0 0.767108 -0.0015616 -2.12175e-07 -0.000196124
8.6092 0 0.748712 -0.00169353 1.02814e-06 -0.000165728
8.58303 0 0.731046 -0.00181111 3.00477e-06 -0.000117805
8.5579 0 0.714081 -0.00191644 4.38954e-06 -5.54834e-05
8.53376 0 0.697789 -0.00201755 5.47438e-06 1.73213e-05
8.51058 0 0.682144 -0.00210819 6.51479e-06 9.87152e-05
8.48833 0 0.667119 -0.0021838 7.25026e-06 0.000187091
8.46695 0 0.65269 -0.00224227 8.07705e-06 0.000277401
8.44642 0 0.638834 -0.00228744 8.88299e-06 0.000367131
8.42671 0 0.625528 -0.00232409 9.03533e-06 0.000453908
8.40778 0 0.612749 -0.00234247 8.13749e-06 0.000535435
8.38959 0 0.600478 -0.00234929 7.68308e-06 0.000610261
8.37214 0 0.588693 -0.00235422 6.98755e-06 0.000676993
8.97926 0 1.07246 -0.00113459 4.7251e-05 2.65094e-05
8.9384 0 1.04284 -0.000397843 -2.91079e-05 -0.000108291
8.89917 0 1.0144 -0.000724312 2.21035e-05 -0.000146255
8.8615 0 0.987085 -0.00036613 -5.85007e-06 -0.000150666
8.82531 0 0.960854 -0.000519857 3.65103e-06 -0.000157203
8.79057 0 0.935663 -0.000497522 -5.52203e-06 -0.000164157
8.75721 0 0.911471 -0.000670117 -4.20127e-06 -0.000204502
8.72516 0 0.88824 -0.000813408 -2.16248e-06 -0.000219826
8.69439 0 0.86593 -0.000977691 -9.53085e-07 -0.000239597
8.66483 0 0.844505 -0.00113614 -2.50259e-06 -0.000254592
8.63646 0 0.823931 -0.0012993 -2.07871e-06 -0.0002749
8.6092 0 0.804172 -0.00145983 -1.40529e-06 -0.000291498
8.58303 0 0.785198 -0.00160982 -3.40381e-07 -0.00029925
8.5579 0 0.766976 -0.00174576 5.52138e-07 -0.00029093
8.53376 0 0.749477 -0.0018705 1.50769e-06 -0.000267873
8.51058 0 0.732673 -0.00198565 3.0987e-06 -0.000233711
8.48833 0 0.716535 -0.0020891 5.81685e-06 -0.000187922
8.46695 0 0.701038 -0.00217707 7.97678e-06 -0.000130073
8.44642 0 0.686155 -0.0022537 9.37198e-06 -6.21068e-05
8.42671 0 0.671863 -0.00232192 1.09505e-05 1.17311e-05
8.40778 0 0.658138 -0.00237339 1.17811e-05 9.00016e-05
8.38959 0 0.644957 -0.00241206 1.16575e-05 0.000170901
8.37214 0 0.6323 -0.00244586 1.1564e-05 0.000248102
8.97926 0 1.14643 -0.00170761 3.97112e-05 0.000149956
8.9384 0 1.11476 -0.000887539 -2.9065e-05 8.41817e-05
8.89917 0 1.08436 -0.00104432 5.44294e-06 -3.41248e-05
8.8615 0 1.05516 -0.000640825 -7.90755e-06 -0.000111163
8.82531 0 1.02712 -0.00061354 6.28474e-06 -0.000162343
8.79057 0 1.00019 -0.000485264 5.5173e-07 -0.000161704
8.75721 0 0.974331 -0.000497741 -2.68323e-07 -0.000173241
8.72516 0 0.949498 -0.000553891 -5.18515e-06 -0.000189972
8.69439 0 0.925649 -0.00070107 -5.43823e-06 -0.000228106
8.66483 0 0.902747 -0.000862971 -2.18165e-06 -0.000258722
8.63646 0 0.880753 -0.00102419 -1.73016e-06 -0.000284437
8.6092 0 0.859632 -0.00118023 -2.58181e-06 -0.000313823
8.58303 0 0.839349 -0.00133051 -2.33833e-06 -0.000349285
8.5579 0 0.819871 -0.0014781 -1.91432e-06 -0.000381636
8.53376 0 0.801165 -0.00161895 -1.25506e-06 -0.000402852
8.51058 0 0.783202 -0.00175172 -3.63676e-07 -0.000409532
8.48833 0 0.765951 -0.00187789 7.00985e-07 -0.000404816
8.46695 0 0.749385 -0.00199558 1.56634e-06 -0.000388368
8.44642 0 0.733476 -0.00210193 2.66385e-06 -0.000361507
8.42671 0 0.718198 -0.00220067 4.43884e-06 -0.000324206
8.40778 0 0.703526 -0.00228285 6.8147e-06 -0.000278712
8.38959 0 0.689437 -0.00234519 8.79805e-06 -0.000222501
8.37214 0 0.675907 -0.00240112 1.02067e-05 -0.00016062
8.97926 0 1.22039 -0.00236439 3.0496e-05 0.000200172
8.9384 0 1.18669 -0.00165846 -1.29045e-05 0.000257051
8.89917 0 1.15432 -0.00154878 1.64385e-07 0.000165684
8.8615 0 1.12324 -0.00114245 -1.01921e-05 7.6549e-05
8.82531 0 1.09339 -0.000937549 -4.19027e-06 -5.45e-05
8.79057 0 1.06472 -0.000718987 6.50227e-07 -0.000134141
8.75721 0 1.03719 -0.00058135 3.40703e-06 -0.000182693
8.72516 0 1.01076 -0.000520107 1.70375e-06 -0.000186498
8.69439 0 0.985369 -0.000515392 -6.96153e-07 -0.000186649
8.66483 0 0.960988 -0.000595795 -6.11365e-06 -0.000207238
8.63646 0 0.937576 -0.000749317 -5.84111e-06 -0.000246171
8.6092 0 0.915092 -0.000892558 -2.24669e-06 -0.000289515
8.58303 0 0.893501 -0.0010435 -9.29078e-07 -0.000333634
8.5579 0 0.872766 -0.00120494 -1.219e-06 -0.000379281
8.53376 0 0.852853 -0.00136807 -5.12306e-07 -0.000427783
8.51058 0 0.833731 -0.00151555 6.58581e-07 -0.000471399
8.48833 0 0.815368 -0.00164302 2.09169e-06 -0.00050671
8.46695 0 0.797732 -0.00175656 3.43705e-06 -0.000531336
8.44642 0 0.780797 -0.00186417 4.19604e-06 -0.000544258
8.42671 0 0.764534 -0.00196783 4.89362e-06 -0.000544814
8.40778 0 0.748915 -0.00206814 6.20692e-06 -0.000536015
8.38959 0 0.733917 -0.00215742 6.76992e-06 -0.000514716
8.37214 0 0.719513 -0.00223906 7.20532e-06 -0.000482423
8.97926 0 1.29435 -0.00277207 1.14658e-05 0.000192168
8.9384 0 1.25861 -0.00234031 -6.34149e-06 0.000303573
8.89917 0 1.22428 -0.00217933 8.93407e-07 0.000281169
8.8615 0 1.19131 -0.00183714 -2.5068e-07 0.000257649
8.82531 0 1.15965 -0.00148694 -2.05499e-06 0.000161273
8.79057 0 1.12925 -0.00116346 -2.38764e-06 3.52371e-05
8.75721 0 1.10005 -0.00090179 -2.0179e-06 -9.92797e-05
8.72516 0 1.07202 -0.00071488 3.36901e-06 -0.000206936
8.69439 0 1.04509 -0.000573206 6.56747e-06 -0.000260651
8.66483 0 1.01923 -0.000517896 5.20561e-06 -0.000262024
8.63646 0 0.994399 -0.000528092 1.94989e-06 -0.000236119
8.6092 0 0.970553 -0.000651247 -8.34257e-06 -0.000203168
8.58303 0 0.947652 -0.000830533 -1.30221e-05 -0.000195514
8.5579 0 0.925661 -0.000990181 -1.2745e-05 -0.00020797
8.53376 0 0.904541 -0.00113408 -1.37614e-05 -0.000246889
8.51058 0 0.88426 -0.00127371 -1.26245e-05 -0.000312316
8.48833 0 0.864784 -0.00140119 -1.06033e-05 -0.00038649
8.46695 0 0.84608 -0.00152036 -8.84729e-06 -0.000458237
8.44642 0 0.828118 -0.0016353 -7.13394e-06 -0.000521238
8.42671 0 0.810869 -0.00174612 -5.46169e-06 -0.00057108
8.40778 0 0.794304 -0.00185043 -3.21377e-06 -0.000608674
8.38959 0 0.778397 -0.00194484 -1.26524e-06 -0.000634509
8.37214 0 0.76312 -0.00203481 3.0965e-07 -0.000648664
8.97926 0 1.36832 -0.00306627 -3.74023e-06 0.000182263
8.9384 0 1.33053 -0.00288133 -5.5162e-06 0.000346841
8.89917 0 1.29423 -0.0026916 -7.11562e-06 0.000388502
8.8615 0 1.25938 -0.00249307 -7.67491e-06 0.000406931
8.82531 0 1.22592 -0.00221425 -8.0303e-06 0.00039564
8.79057 0 1.19378 -0.00189364 -9.10937e-06 0.000336826
8.75721 0 1.16291 -0.00150679 -1.17404e-05 0.000215189
8.72516 0 1.13327 -0.00112392 -9.61519e-06 3.2478e-05
8.69439 0 1.10481 -0.000820623 -2.7215e-06 -0.000172649
8.66484 0 1.07747 -0.000620357 8.55528e-06 -0.00038614
8.63646 0 1.05122 -0.000554131 2.10746e-05 -0.000554799
8.6092 0 1.02601 -0.000555245 2.75488e-05 -0.000625972
8.58303 0 1.0018 -0.000578973 3.23052e-05 -0.000611862
8.5579 0 0.978555 -0.000656718 2.74029e-05 -0.000547165
8.53376 0 0.956229 -0.000754533 2.07598e-05 -0.000487074
8.51058 0 0.934789 -0.000883394 1.6412e-05 -0.000452999
8.48833 0 0.9142 -0.00102807 1.04917e-05 -0.00044579
8.46695 0 0.894427 -0.00117542 5.6815e-06 -0.000461863
8.44642 0 0.875439 -0.00132195 2.08975e-06 -0.000497035
8.42671 0 0.857205 -0.00146341 -9.90333e-08 -0.000539338
8.40778 0 0.839693 -0.00158884 -1.06249e-06 -0.000585361
8.38959 0 0.822877 -0.00170017 -1.26473e-06 -0.000629303
8.37214 0 0.806727 -0.0018035 -8.96159e-07 -0.000669957
8.97926 0 1.44228 -0.00315979 4.90715e-06 6.4855e-05
8.9384 0 1.40245 -0.00321277 2.06035e-05 0.000144968
8.89917 0 1.36419 -0.00304305 1.09975e-05 0.000281063
8.8615 0 1.32746 -0.00293425 1.60229e-06 0.000374946
8.82531 0 1.29218 -0.00277224 -9.10682e-06 0.000461906
8.79057 0 1.2583 -0.00259697 -2.11758e-05 0.000528492
8.75721 0 1.22577 -0.00239312 -3.29491e-05 0.000571349
8.72516 0 1.19453 -0.00210924 -4.62539e-05 0.000586832
8.69439 0 1.16453 -0.00176388 -6.04169e-05 0.000555728
8.66483 0 1.13571 -0.0014194 -7.21831e-05 0.000476517
8.63646 0 1.10804 -0.00112434 -8.03734e-05 0.000341297
8.6092 0 1.08147 -0.000930171 -8.40085e-05 0.000165978
8.58303 0 1.05595 -0.000854085 -8.02672e-05 -3.59682e-06
8.5579 0 1.03145 -0.000848684 -6.58057e-05 -0.000147236
8.53376 0 1.00792 -0.000860209 -4.74692e-05 -0.000252155
8.51058 0 0.985317 -0.000902491 -3.18327e-05 -0.000331381
8.48833 0 0.963616 -0.000970767 -1.91161e-05 -0.000402695
8.46695 0 0.942775 -0.00103991 -1.02238e-05 -0.0004607
8.44642 0 0.92276 -0.00113045 -5.32314e-06 -0.000511484
8.42671 0 0.90354 -0.00123756 -2.38776e-06 -0.000559948
8.40778 0 0.885082 -0.00134462 -1.14484e-06 -0.000606439
8.38959 0 0.867357 -0.00145251 -5.62302e-07 -0.000649953
8.37214 0 0.850334 -0.00156013 7.11427e-07 -0.000688542
7.66922 0 0.966948 -0.000857158 -9.8011e-06 -0.000464675
7.67296 0 0.988324 -0.000806192 -9.69859e-06 -0.00032733
7.67685 0 1.01058 -0.000753642 -8.68196e-06 -0.000194315
7.68091 0 1.03376 -0.000705117 -7.47851e-06 -7.75166e-05
7.68513 0 1.0579 -0.00067864 -4.95326e-06 8.85843e-06
7.68953 0 1.08303 -0.000721621 -2.22927e-06 5.24751e-05
7.69411 0 1.1092 -0.000911752 -3.24947e-06 5.27647e-05
7.69888 0 1.13646 -0.00127942 -2.07549e-06 3.85038e-05
7.70385 0 1.16483 -0.00182356 9.59399e-07 1.48299e-05
7.70902 0 1.19439 -0.00236224 2.58276e-06 -3.39211e-05
7.7144 0 1.22516 -0.00269179 6.29056e-07 -6.83474e-05
7.72001 0 1.25721 -0.0029124 2.18555e-07 -7.95112e-05
7.72585 0 1.29057 -0.00311744 1.96936e-07 -8.84228e-05
7.73193 0 1.32531 -0.00330045 5.44936e-07 -0.000101162
7.70425 0 0.907776 -0.00101815 -7.22555e-06 -0.000841394
7.70851 0 0.926707 -0.00097572 -8.072e-06 -0.000732847
7.71295 0 0.946421 -0.000931473 -8.47411e-06 -0.000620015
7.71757 0 0.966948 -0.000880282 -9.51772e-06 -0.000496193
7.72238 0 0.988324 -0.000827706 -9.40594e-06 -0.000360685
7.72738 0 1.01058 -0.000772003 -8.74482e-06 -0.00023042
7.7326 0 1.03376 -0.000718044 -7.39634e-06 -0.000113222
7.73803 0 1.0579 -0.000679044 -5.51893e-06 -2.14135e-05
7.74368 0 1.08303 -0.00069153 -3.07426e-06 3.2653e-05
7.74957 0 1.1092 -0.000837147 -2.83346e-06 4.53136e-05
7.7557 0 1.13646 -0.00118278 -1.49842e-06 3.47631e-05
7.76209 0 1.16484 -0.00171651 8.7639e-07 2.01396e-05
7.76874 0 1.19439 -0.00228246 2.68785e-06 -1.63152e-05
7.77566 0 1.22516 -0.00264536 1.02245e-06 -4.46723e-05
7.78287 0 1.25721 -0.00288084 2.68621e-07 -5.20824e-05
7.79038 0 1.29057 -0.00308669 1.83027e-07 -5.71901e-05
7.7982 0 1.32531 -0.00327312 1.50591e-08 -6.42831e-05
7.73984 0 0.872138 -0.00113191 -5.29483e-06 -0.0010277
7.74464 0 0.889597 -0.00109399 -6.1512e-06 -0.000945931
7.74964 0 0.907777 -0.00105337 -6.84255e-06 -0.000853451
7.75484 0 0.926707 -0.0010095 -7.51781e-06 -0.000750982
7.76026 0 0.94642 -0.0009641 -7.86674e-06 -0.000639085
7.76591 0 0.966948 -0.000907841 -8.97638e-06 -0.000520803
7.77179 0 0.988324 -0.000852078 -9.21947e-06 -0.000396298
7.77791 0 1.01058 -0.000795504 -8.76187e-06 -0.000267524
7.78428 0 1.03376 -0.000737943 -7.30495e-06 -0.000150678
7.79092 0 1.0579 -0.000690072 -6.0418e-06 -5.42016e-05
7.79783 0 1.08303 -0.000677292 -3.86841e-06 8.25922e-06
7.80503 0 1.1092 -0.000780652 -1.70647e-06 3.46024e-05
7.81252 0 1.13646 -0.00109703 -8.66742e-07 3.0568e-05
7.82033 0 1.16483 -0.0016198 1.01584e-06 2.31943e-05
7.82845 0 1.19439 -0.00220381 2.59412e-06 -3.89396e-07
7.83692 0 1.22516 -0.00260054 9.1167e-07 -2.09565e-05
7.84573 0 1.25721 -0.00284951 -6.4975e-08 -2.30897e-05
7.85491 0 1.29057 -0.00305855 5.77219e-08 -2.37261e-05
7.86446 0 1.32531 -0.00324661 4.10826e-07 -2.69044e-05
7.87441 0 1.3615 -0.00342971 7.73674e-07 -4.12571e-05
7.778 0 0.855372 -0.00120616 -4.10282e-06 -0.00109862
7.78345 0 0.872138 -0.00116969 -5.00802e-06 -0.00103017
7.78912 0 0.889597 -0.00113013 -5.86616e-06 -0.000952093
7.79503 0 0.907776 -0.00108754 -6.52161e-06 -0.000863651
7.80118 0 0.926708 -0.00104168 -7.27831e-06 -0.000765777
7.80759 0 0.94642 -0.000992064 -7.7876e-06 -0.000655521
7.81425 0 0.966948 -0.000939133 -8.20131e-06 -0.000540566
7.82121 0 0.988324 -0.000878387 -8.77353e-06 -0.000427223
7.82844 0 1.01058 -0.000818424 -8.89215e-06 -0.000305025
7.83597 0 1.03376 -0.000760212 -7.699e-06 -0.000187097
7.84382 0 1.0579 -0.000706856 -6.1286e-06 -8.79114e-05
7.85199 0 1.08303 -0.000678376 -4.41661e-06 -2.32528e-05
7.86049 0 1.1092 -0.000742757 -1.74953e-06 1.65198e-05
7.86935 0 1.13646 -0.00101919 3.73983e-07 2.92409e-05
7.87857 0 1.16484 -0.00153116 1.02524e-06 2.68098e-05
7.88818 0 1.19439 -0.00212956 1.91914e-06 1.33593e-05
7.89818 0 1.22516 -0.00255579 3.73757e-07 2.68801e-06
7.90859 0 1.25721 -0.00281736 -5.54938e-07 6.29913e-06
7.91943 0 1.29057 -0.00302996 -3.38094e-07 1.08393e-05
7.93073 0 1.32531 -0.0032195 6.34318e-08 1.25402e-05
7.94249 0 1.3615 -0.00340496 8.13229e-07 -7.0436e-07
7.81473 0 0.839271 -0.00128405 -3.40615e-06 -0.00115436
7.82076 0 0.855372 -0.00124962 -3.8518e-06 -0.00109717
7.82705 0 0.872138 -0.00121199 -4.72278e-06 -0.00103117
7.8336 0 0.889597 -0.00117048 -5.50352e-06 -0.000955047
7.84042 0 0.907777 -0.00112582 -6.04754e-06 -0.000869401
7.84752 0 0.926707 -0.00107797 -6.66313e-06 -0.000774616
7.85491 0 0.946421 -0.00102616 -7.17245e-06 -0.000672027
7.8626 0 0.966948 -0.000973703 -7.38925e-06 -0.000559551
7.87062 0 0.988324 -0.00091121 -7.99642e-06 -0.000447893
7.87897 0 1.01058 -0.000844547 -8.67214e-06 -0.000338678
7.88766 0 1.03376 -0.000783221 -8.14251e-06 -0.000225958
7.89671 0 1.0579 -0.000728026 -6.72979e-06 -0.000124692
7.90614 0 1.08303 -0.000692171 -4.48209e-06 -5.64088e-05
7.91595 0 1.1092 -0.000720036 -1.78027e-06 -4.32664e-06
7.92617 0 1.13646 -0.000953927 1.42265e-06 2.58108e-05
7.93681 0 1.16483 -0.00145205 1.11441e-06 3.11143e-05
7.9479 0 1.19439 -0.00206349 1.3581e-06 2.8304e-05
7.95943 0 1.22516 -0.00251435 1.13111e-07 3.02046e-05
7.97145 0 1.25721 -0.00278914 -5.63884e-07 4.10088e-05
7.98397 0 1.29057 -0.0030056 -2.6699e-07 4.93798e-05
7.99699 0 1.32531 -0.00319455 -1.82417e-07 5.37651e-05
8.01056 0 1.3615 -0.00337809 1.39504e-07 4.24745e-05
8.02469 0 1.39917 -0.00350024 2.10635e-07 3.13299e-05
7.85669 0 0.839271 -0.00132286 -2.91952e-06 -0.00115139
7.86353 0 0.855372 -0.00128653 -3.86076e-06 -0.00109549
7.87066 0 0.872138 -0.00124748 -4.46416e-06 -0.00102892
7.87808 0 0.889596 -0.00120506 -5.15266e-06 -0.000954128
7.88581 0 0.907777 -0.00115883 -5.80363e-06 -0.000872356
7.89385 0 0.926708 -0.00110881 -6.54896e-06 -0.000781645
7.90223 0 0.94642 -0.00105541 -6.99062e-06 -0.000684107
7.91095 0 0.966948 -0.000999054 -7.23656e-06 -0.000574629
7.92003 0 0.988324 -0.000937783 -7.57312e-06 -0.000461422
7.9295 0 1.01058 -0.000868508 -8.0933e-06 -0.000359746
7.93935 0 1.03376 -0.000800249 -8.33355e-06 -0.000260268
7.94961 0 1.0579 -0.000742047 -7.48198e-06 -0.000163758
7.96029 0 1.08303 -0.000701923 -4.81811e-06 -8.79896e-05
7.97141 0 1.1092 -0.000707652 -1.83836e-06 -2.81004e-05
7.98299 0 1.13646 -0.000903651 1.67094e-06 1.69367e-05
7.99505 0 1.16484 -0.0013809 9.94229e-07 3.46518e-05
8.00761 0 1.19439 -0.00200378 7.7898e-07 4.53594e-05
8.02069 0 1.22516 -0.00247564 -9.04266e-08 5.83091e-05
8.03431 0 1.25721 -0.00276071 -8.34353e-07 7.59649e-05
8.04849 0 1.29057 -0.00297883 -6.41004e-07 8.97107e-05
8.06326 0 1.32531 -0.0031676 -2.13611e-07 9.76337e-05
8.07864 0 1.3615 -0.00334918 3.55609e-07 8.71878e-05
8.09465 0 1.39917 -0.00347319 4.49776e-08 7.53167e-05
7.89865 0 0.839271 -0.00137179 -3.08383e-06 -0.00113889
7.9063 0 0.855372 -0.0013351 -3.57471e-06 -0.0010845
7.91427 0 0.872138 -0.00129385 -4.13501e-06 -0.00102245
7.92256 0 0.889597 -0.00124907 -4.74878e-06 -0.0009503
7.93119 0 0.907776 -0.00120097 -5.02888e-06 -0.000869748
7.94019 0 0.926708 -0.0011487 -5.59061e-06 -0.000781919
7.94955 0 0.94642 -0.00109301 -5.98441e-06 -0.000688472
7.9593 0 0.966948 -0.00103317 -6.45735e-06 -0.000586325
7.96945 0 0.988324 -0.000972078 -6.64088e-06 -0.000474858
7.98003 0 1.01058 -0.00090309 -6.98091e-06 -0.000373591
7.99104 0 1.03376 -0.00083076 -7.68278e-06 -0.000284946
8.0025 0 1.0579 -0.000764112 -7.62659e-06 -0.000197955
8.01444 0 1.08303 -0.000715992 -5.22924e-06 -0.000122354
8.02687 0 1.1092 -0.00070712 -1.87096e-06 -5.76559e-05
8.03981 0 1.13646 -0.000869329 1.72884e-06 2.76863e-06
8.05329 0 1.16483 -0.00132633 3.12932e-07 3.65224e-05
8.06733 0 1.19439 -0.00195255 -4.55776e-07 6.20507e-05
8.08195 0 1.22516 -0.00243679 -1.06757e-06 9.0443e-05
8.09717 0 1.25721 -0.00273119 -1.69514e-06 0.000116356
8.11302 0 1.29057 -0.00295182 -1.35192e-06 0.000132197
8.12952 0 1.32531 -0.00314103 -5.19305e-07 0.000139657
8.14671 0 1.3615 -0.00332059 5.3161e-07 0.000130859
8.16461 0 1.39917 -0.0034464 9.71017e-07 0.000116258
8.18324 0 1.4384 -0.00354355 9.88503e-07 8.72016e-05
7.94062 0 0.839271 -0.00140574 -2.71712e-06 -0.00113802
7.94907 0 0.855372 -0.00136655 -3.74566e-06 -0.00107918
7.95787 0 0.872138 -0.00132406 -3.85649e-06 -0.00101318
7.96704 0 0.889597 -0.00127687 -4.46722e-06 -0.000942308
7.97658 0 0.907777 -0.00122524 -5.06199e-06 -0.00086461
7.98652 0 0.926707 -0.00116924 -5.90227e-06 -0.000779512
7.99687 0 0.946421 -0.00110943 -6.37655e-06 -0.000689135
8.00765 0 0.966948 -0.00104516 -6.85839e-06 -0.000592507
8.01887 0 0.988324 -0.000979413 -6.93766e-06 -0.00048483
8.03055 0 1.01058 -0.000908032 -7.24356e-06 -0.000383369
8.04273 0 1.03376 -0.000834374 -7.85325e-06 -0.00029861
8.0554 0 1.0579 -0.000764862 -8.04141e-06 -0.00021747
8.06859 0 1.08303 -0.000714333 -5.80891e-06 -0.000146142
8.08233 0 1.1092 -0.000700724 -2.49797e-06 -8.24305e-05
8.09664 0 1.13646 -0.000841952 3.73956e-07 -1.44089e-05
8.11154 0 1.16484 -0.00129169 -7.55382e-07 3.84706e-05
8.12705 0 1.19439 -0.00190714 -2.42211e-06 8.54703e-05
8.14321 0 1.22516 -0.00239676 -2.11367e-06 0.000129349
8.16003 0 1.25721 -0.00270207 -1.77621e-06 0.000158208
8.17755 0 1.29057 -0.00292728 -1.59271e-06 0.00017375
8.19579 0 1.32531 -0.00311839 -1.34412e-06 0.000177976
8.21479 0 1.3615 -0.00329464 -7.08029e-07 0.000165977
8.23457 0 1.39917 -0.00341738 5.03372e-07 0.000150677
8.25516 0 1.4384 -0.00350054 1.20558e-06 0.000125059
8.27661 0 1.47926 -0.00342467 2.91105e-07 0.000103243
7.99184 0 0.855371 -0.001415 -3.46768e-06 -0.00105724
8.00148 0 0.872138 -0.00137204 -3.35865e-06 -0.000994734
8.01152 0 0.889596 -0.0013247 -3.79903e-06 -0.000925631
8.02197 0 0.907777 -0.00127284 -3.87942e-06 -0.000849181
8.03286 0 0.926708 -0.00121577 -4.36585e-06 -0.000765148
8.04419 0 0.94642 -0.00115353 -4.5805e-06 -0.000676445
8.05599 0 0.966948 -0.00108532 -4.9783e-06 -0.000584603
8.06829 0 0.988324 -0.00101377 -5.17388e-06 -0.000481509
8.08108 0 1.01058 -0.000938974 -5.52046e-06 -0.000384154
8.09441 0 1.03376 -0.000861748 -6.34803e-06 -0.000306454
8.10829 0 1.0579 -0.000787171 -6.85864e-06 -0.000232586
8.12274 0 1.08303 -0.000731098 -5.1066e-06 -0.000167865
8.13779 0 1.1092 -0.000714075 -2.57377e-06 -0.00010434
8.15346 0 1.13646 -0.000843285 -4.58667e-07 -3.20226e-05
8.16978 0 1.16483 -0.00128127 -1.70181e-06 4.03753e-05
8.18677 0 1.19439 -0.00187786 -3.26037e-06 0.000109515
8.20447 0 1.22516 -0.00236527 -2.62912e-06 0.00016317
8.22289 0 1.25721 -0.0026764 -2.39242e-06 0.000192741
8.24208 0 1.29057 -0.00290321 -2.11803e-06 0.000206868
8.26206 0 1.32531 -0.00309302 -1.21379e-06 0.000211859
8.28286 0 1.3615 -0.00326298 -6.45909e-07 0.000201791
8.30453 0 1.39917 -0.0033796 -4.88812e-07 0.000185594
8.32708 0 1.4384 -0.00344868 -1.69731e-07 0.000158647
8.35057 0 1.47926 -0.00336151 -2.58086e-07 0.000128654
8.03461 0 0.855372 -0.00144582 -2.8668e-06 -0.00104485
8.04508 0 0.872138 -0.00139559 -3.61666e-06 -0.000983452
8.056 0 0.889597 -0.00133987 -4.49906e-06 -0.000914482
8.06736 0 0.907776 -0.00127851 -4.97498e-06 -0.00083923
8.07919 0 0.926707 -0.00121228 -5.78211e-06 -0.000756444
8.09151 0 0.946421 -0.0011431 -6.19849e-06 -0.000667663
8.10434 0 0.966948 -0.00107018 -6.70075e-06 -0.000576478
8.1177 0 0.988324 -0.000991475 -7.11666e-06 -0.000479343
8.13161 0 1.01058 -0.000913618 -7.43018e-06 -0.000385737
8.1461 0 1.03376 -0.000834658 -7.93847e-06 -0.000310138
8.16118 0 1.0579 -0.000760626 -8.16738e-06 -0.000238281
8.17689 0 1.08303 -0.000707713 -6.06837e-06 -0.00017759
8.19325 0 1.1092 -0.000700359 -3.65673e-06 -0.000116657
8.21028 0 1.13646 -0.000846868 -2.02467e-06 -3.61271e-05
8.22802 0 1.16484 -0.00127537 -3.34418e-06 5.83968e-05
8.24649 0 1.19439 -0.00186024 -4.18693e-06 0.000138528
8.26572 0 1.22516 -0.00233986 -3.11802e-06 0.000193009
8.28575 0 1.25721 -0.00265164 -2.16573e-06 0.000227594
8.30661 0 1.29057 -0.002876 -1.89512e-06 0.000244357
8.32832 0 1.32531 -0.00305921 -1.08169e-06 0.000249236
8.35093 0 1.3615 -0.00322281 -5.43368e-07 0.000236366
8.37448 0 1.39917 -0.00333646 -2.70073e-07 0.00021419
8.399 0 1.4384 -0.00339211 -2.27985e-07 0.000183218
8.42454 0 1.47926 -0.00329463 -6.76655e-07 0.000143511
8.07738 0 0.855372 -0.00148896 -2.7001e-06 -0.00100111
8.08869 0 0.872138 -0.00144009 -2.44176e-06 -0.000939565
8.10048 0 0.889597 -0.00138432 -2.86764e-06 -0.000871072
8.11275 0 0.907777 -0.00132349 -2.63161e-06 -0.000797277
8.12553 0 0.926708 -0.00125712 -2.76165e-06 -0.000720062
8.13883 0 0.94642 -0.00118609 -2.65983e-06 -0.000640341
8.15269 0 0.966948 -0.00110997 -2.99776e-06 -0.000550441
8.16712 0 0.988324 -0.00103119 -3.31154e-06 -0.000455969
8.18214 0 1.01058 -0.000950943 -4.02492e-06 -0.000371114
8.19779 0 1.03376 -0.000868368 -4.47615e-06 -0.000300984
8.21408 0 1.0579 -0.000790715 -4.85046e-06 -0.000236791
8.23104 0 1.08303 -0.000737277 -3.17483e-06 -0.000183527
8.24871 0 1.1092 -0.000743101 -1.51502e-06 -0.000125023
8.26711 0 1.13646 -0.000902457 -1.25019e-06 -3.95154e-05
8.28626 0 1.16483 -0.00131528 -4.26542e-06 7.55399e-05
8.30621 0 1.19439 -0.00187209 -4.32693e-06 0.000168913
8.32698 0 1.22516 -0.0023239 -3.21944e-06 0.000228523
8.34861 0 1.25721 -0.00262401 -2.27437e-06 0.000265767
8.37113 0 1.29057 -0.0028429 -1.73998e-06 0.000281811
8.39459 0 1.32531 -0.00302317 -7.58892e-07 0.000281449
8.41901 0 1.3615 -0.00318157 -3.78763e-07 0.000262545
8.44444 0 1.39917 -0.00329027 -1.68122e-07 0.00023315
8.47093 0 1.4384 -0.00333018 -2.78668e-07 0.000199814
8.4985 0 1.47926 -0.00322517 -4.6355e-07 0.000150903