0 	0 	0 	0
0.00184055 	0.0433674 	0.000242853 	-0.00511867
0.00368111 	0.0805045 	0.000474763 	-0.0100551
0.00558849 	0.118058 	0.00127292 	-0.0233111
0.00749587 	0.150757 	0.00209192 	-0.0368927
0.00947248 	0.176064 	0.00348631 	-0.0527043
0.0114491 	0.198195 	0.00492371 	-0.0690372
0.0134975 	0.211772 	0.0066044 	-0.0817255
0.0155459 	0.223542 	0.0083189 	-0.094614
0.0176687 	0.230552 	0.0100759 	-0.103527
0.0197915 	0.236454 	0.0118683 	-0.112422
0.0219913 	0.240179 	0.0136746 	-0.118862
0.0241911 	0.243157 	0.0155283 	-0.125268
0.0264709 	0.245158 	0.0173851 	-0.130229
0.0287506 	0.246614 	0.0193012 	-0.135201
0.031113 	0.247628 	0.0212122 	-0.139234
0.0334755 	0.248216 	0.023188 	-0.143328
0.0359238 	0.248623 	0.0251427 	-0.146724
0.038372 	0.248681 	0.0271689 	-0.150228
0.038372 	0.248681 	0.0271689 	-0.150228
0.0409091 	0.248702 	0.0291531 	-0.153147
0.0409092 	0.248702 	0.0291531 	-0.153147
0.0434463 	0.248423 	0.0312181 	-0.156215
0.0434463 	0.248423 	0.0312181 	-0.156215
0.0460755 	0.248194 	0.0332305 	-0.15874
0.0460756 	0.248194 	0.0332305 	-0.15874
0.0487048 	0.247698 	0.0353288 	-0.161454
0.0487048 	0.247698 	0.0353288 	-0.161454
0.0514295 	0.247307 	0.0373665 	-0.163624
0.0514296 	0.247307 	0.0373665 	-0.163624
0.0541543 	0.246674 	0.0394916 	-0.166021
0.0541543 	0.246674 	0.0394916 	-0.166021
0.0569779 	0.24618 	0.0415445 	-0.167857
0.0598016 	0.245465 	0.0436864 	-0.16995
0.0627277 	0.244908 	0.0457452 	-0.171462
0.0656539 	0.244147 	0.0478943 	-0.173253
0.0686863 	0.243553 	0.0499518 	-0.174447
0.0717187 	0.242772 	0.052101 	-0.175933
0.0739617 	0.242333 	0.0535644 	-0.176561
0.0762047 	0.241847 	0.0550539 	-0.177273
0.0771042 	0.241609 	0.0556741 	-0.177631
0.0780037 	0.241372 	0.0562942 	-0.17799
0.0808939 	0.240817 	0.0581038 	-0.178496
0.0837842 	0.240151 	0.0599791 	-0.179214
0.0841505 	0.240059 	0.0602214 	-0.179319
0.0845169 	0.239966 	0.0604638 	-0.179425
0.0878917 	0.239333 	0.0624884 	-0.179691
0.0912666 	0.238561 	0.0646018 	-0.180242
0.0947639 	0.237921 	0.0666079 	-0.180205
0.0982613 	0.237157 	0.068699 	-0.18044
0.101886 	0.236509 	0.0706821 	-0.180102
0.10551 	0.235752 	0.0727462 	-0.18002
0.108191 	0.235281 	0.0741422 	-0.179562
0.110872 	0.234784 	0.0755597 	-0.179171
0.111947 	0.234562 	0.0761469 	-0.179073
0.113022 	0.234339 	0.0767341 	-0.178974
0.116476 	0.233741 	0.0784422 	-0.178132
0.11993 	0.233084 	0.0802009 	-0.177446
0.120368 	0.232997 	0.0804274 	-0.17737
0.120806 	0.23291 	0.0806538 	-0.177294
0.12484 	0.232216 	0.0825441 	-0.176034
0.128874 	0.231454 	0.0844982 	-0.17497
0.133054 	0.230736 	0.0863511 	-0.173392
0.137234 	0.22996 	0.0882608 	-0.171988
0.141565 	0.229214 	0.0900735 	-0.170087
0.145897 	0.228417 	0.0919359 	-0.168336
0.150386 	0.227637 	0.0937055 	-0.166106
0.154876 	0.226813 	0.0955177 	-0.164001
0.159528 	0.225997 	0.0972408 	-0.161434
0.16418 	0.225141 	0.0989995 	-0.15897
0.169001 	0.224286 	0.100672 	-0.156061
0.173822 	0.223394 	0.102373 	-0.153232
0.178818 	0.222499 	0.10399 	-0.149976
0.183814 	0.221567 	0.105628 	-0.146778
0.188991 	0.220635 	0.107183 	-0.143171
0.194169 	0.219664 	0.108754 	-0.139598
0.197999 	0.218974 	0.109815 	-0.136771
0.201828 	0.218273 	0.110879 	-0.133947
0.203364 	0.217981 	0.111307 	-0.132818
0.2049 	0.217689 	0.111736 	-0.131688
0.209834 	0.216809 	0.112988 	-0.127857
0.214769 	0.215894 	0.114242 	-0.124019
0.215394 	0.215775 	0.114401 	-0.123532
0.21602 	0.215657 	0.11456 	-0.123045
0.221782 	0.214652 	0.115887 	-0.11837
0.227544 	0.213588 	0.117209 	-0.113667
0.231806 	0.212874 	0.118089 	-0.110076
0.236068 	0.21214 	0.118965 	-0.106472
0.237778 	0.211827 	0.119315 	-0.105014
0.239487 	0.211515 	0.119664 	-0.103557
0.244979 	0.210651 	0.120663 	-0.0987797
0.250471 	0.209724 	0.121651 	-0.0939533
0.251167 	0.209602 	0.121775 	-0.0933381
0.251863 	0.209481 	0.1219 	-0.0927229
0.252584 	0.209378 	0.122013 	-0.0920784
0.253306 	0.209274 	0.122126 	-0.0914338
0.258997 	0.208461 	0.123019 	-0.0863494
0.264688 	0.207543 	0.12389 	-0.0811769
0.27096 	0.206768 	0.124711 	-0.0754526
0.277232 	0.205886 	0.125509 	-0.0696358
0.277606 	0.205831 	0.125556 	-0.069287
0.27798 	0.205776 	0.125603 	-0.0689382
0.284867 	0.205099 	0.12632 	-0.06255
0.291753 	0.204275 	0.127003 	-0.0560342
0.29889 	0.203803 	0.127547 	-0.0493408
0.306027 	0.203156 	0.128049 	-0.0424993
0.311306 	0.203017 	0.128299 	-0.0375195
0.316585 	0.202821 	0.128534 	-0.0324918
0.318702 	0.202693 	0.128616 	-0.030434
0.320819 	0.202564 	0.128697 	-0.0283761
0.327621 	0.202714 	0.128814 	-0.0219573
0.334423 	0.202698 	0.128886 	-0.0154008
0.335286 	0.202685 	0.128892 	-0.0145601
0.336148 	0.202671 	0.128898 	-0.0137194
0.344091 	0.203302 	0.128788 	-0.00626991
0.352034 	0.203678 	0.128602 	0.0013931
0.360265 	0.204888 	0.128224 	0.00901037
0.368496 	0.205818 	0.127755 	0.0168586
0.374585 	0.207189 	0.127276 	0.0223826
0.380674 	0.208474 	0.126766 	0.0279737
0.383115 	0.208916 	0.126535 	0.0302743
0.385557 	0.209357 	0.126303 	0.0325749
0.393402 	0.211817 	0.125428 	0.0395124
0.401247 	0.21405 	0.124456 	0.0466213
0.402242 	0.214318 	0.124326 	0.0475344
0.403236 	0.214585 	0.124197 	0.0484475
0.403236 	0.214585 	0.124197 	0.0484475
0.412396 	0.218358 	0.122875 	0.0562909
0.421557 	0.221811 	0.121393 	0.0643741
0.43105 	0.226745 	0.119723 	0.0721937
0.440544 	0.231358 	0.117864 	0.080247
0.450382 	0.237619 	0.115839 	0.0879991
0.46022 	0.243559 	0.113594 	0.0959687
0.470415 	0.25132 	0.111213 	0.103618
0.48061 	0.258754 	0.108581 	0.111465
0.491175 	0.268173 	0.105853 	0.118985
0.501741 	0.277263 	0.102843 	0.126683
0.509556 	0.285258 	0.100667 	0.13194
0.517371 	0.293161 	0.0984023 	0.137243
0.520505 	0.296249 	0.0974169 	0.139409
0.523639 	0.299338 	0.0964315 	0.141575
0.533709 	0.310945 	0.0934785 	0.147963
0.543779 	0.322312 	0.0902802 	0.154453
0.545056 	0.323736 	0.0898577 	0.155283
0.546332 	0.325161 	0.0894352 	0.156113
0.558091 	0.340229 	0.0858904 	0.163151
0.569849 	0.354938 	0.0819827 	0.170317
0.582034 	0.372173 	0.0782847 	0.177218
0.594219 	0.388996 	0.0742108 	0.184239
0.606847 	0.408471 	0.0704057 	0.190949
0.619475 	0.427491 	0.0662184 	0.197786
0.630287 	0.44507 	0.0630004 	0.202973
0.6411 	0.462407 	0.0595641 	0.208246
0.643373 	0.46601 	0.0588031 	0.209371
0.645647 	0.469613 	0.0580422 	0.210495
0.656157 	0.486635 	0.0549555 	0.214747
0.666667 	0.503522 	0.0516976 	0.219081
0.669719 	0.508376 	0.0506907 	0.220368
0.67277 	0.51323 	0.0496837 	0.221655
0.686823 	0.534692 	0.0456392 	0.226128
0.700877 	0.55604 	0.0411952 	0.230805
0.715441 	0.576585 	0.0371263 	0.234245
0.730005 	0.597233 	0.0326517 	0.237888
0.742475 	0.613526 	0.0292777 	0.239837
0.754946 	0.629978 	0.0256742 	0.241887
0.757568 	0.633466 	0.0248761 	0.242336
0.76019 	0.636953 	0.0240781 	0.242785
0.772312 	0.651471 	0.0208914 	0.243646
0.784434 	0.666193 	0.0175297 	0.244571
0.787953 	0.670541 	0.0164913 	0.244862
0.791472 	0.674889 	0.0154528 	0.245153
0.80768 	0.692332 	0.0112847 	0.244902
0.823889 	0.710545 	0.00672573 	0.244768
0.840686 	0.72668 	0.00249426 	0.243264
0.857483 	0.744085 	-0.00211073 	0.24186
0.87489 	0.759507 	-0.00635132 	0.239564
0.892297 	0.776965 	-0.0109413 	0.237398
0.910336 	0.79303 	-0.0150539 	0.235139
0.928375 	0.812147 	-0.0194823 	0.233128
0.947068 	0.830414 	-0.0232472 	0.231819
0.965762 	0.852829 	-0.0272849 	0.230981
0.985136 	0.873655 	-0.0304803 	0.231067
1.00451 	0.899361 	-0.0338779 	0.231867
1.02458 	0.92064 	-0.036384 	0.232959
1.04466 	0.946662 	-0.0389844 	0.234859
1.06546 	0.964822 	-0.0408487 	0.236042
1.08627 	0.986641 	-0.0426781 	0.237871
1.10783 	0.999443 	-0.0440548 	0.238454
1.12939 	1.01443 	-0.0452687 	0.239369
1.15173 	1.02224 	-0.046313 	0.239225
1.17408 	1.0311 	-0.0471068 	0.23916
1.19723 	1.03564 	-0.0478974 	0.238397
1.22038 	1.04069 	-0.0483877 	0.237556
1.24437 	1.04344 	-0.0489373 	0.236128
1.26837 	1.04653 	-0.0491479 	0.234469
1.29323 	1.04829 	-0.0494605 	0.232251
1.3181 	1.05028 	-0.0493997 	0.229685
1.34387 	1.05136 	-0.0494828 	0.226852
1.36964 	1.05256 	-0.0491841 	0.223658
1.36964 	1.05256 	-0.0491841 	0.223658
1.39634 	1.05309 	-0.0490813 	0.220644
1.39634 	1.05309 	-0.0490813 	0.220644
1.42305 	1.05369 	-0.0486234 	0.217329
1.42305 	1.05369 	-0.0486234 	0.217329
1.45072 	1.05385 	-0.0483833 	0.214443
1.4784 	1.05406 	-0.0478207 	0.211317
1.50708 	1.054 	-0.0474668 	0.208642
1.53576 	1.05397 	-0.0468164 	0.205765
1.56548 	1.05378 	-0.0463596 	0.203288
1.5952 	1.05362 	-0.0456271 	0.20063
1.5952 	1.05362 	-0.0456271 	0.20063
1.626 	1.05336 	-0.045078 	0.19834
1.626 	1.05336 	-0.045078 	0.19834
1.65679 	1.05312 	-0.0442717 	0.195887
1.65679 	1.05312 	-0.0442717 	0.195887
1.68871 	1.05279 	-0.0436418 	0.193781
1.68871 	1.05279 	-0.0436418 	0.193781
1.72063 	1.05248 	-0.0427718 	0.191534
1.72063 	1.05248 	-0.0427718 	0.191534
1.75371 	1.05208 	-0.0420708 	0.189599
1.75371 	1.05208 	-0.0420708 	0.189599
1.78678 	1.0517 	-0.0411454 	0.187545
1.78678 	1.0517 	-0.0411454 	0.187545
1.82106 	1.05123 	-0.0403811 	0.185752
1.85533 	1.05076 	-0.0394057 	0.183855
1.89086 	1.05021 	-0.0385871 	0.182177
1.92638 	1.04964 	-0.0375696 	0.180404
1.96319 	1.04901 	-0.0367186 	0.178839
2 	1.04836 	-0.0356834 	0.177186
