0 	3.75841e-05 	0 	-0.124672
0.00138042 	3.91931e-05 	3.86615e-08 	-0.12467
0.00276083 	4.07852e-05 	7.76385e-08 	-0.124667
0.00419136 	7.81909e-05 	4.9752e-07 	-0.124661
0.0056219 	0.000115781 	9.2046e-07 	-0.124655
0.00710437 	0.00023091 	2.98694e-06 	-0.12465
0.00858684 	0.000346765 	5.06814e-06 	-0.124645
0.0101231 	0.000554391 	1.06846e-05 	-0.12464
0.0116594 	0.000763192 	1.63352e-05 	-0.124635
0.0132515 	0.00104766 	2.64944e-05 	-0.12463
0.0148436 	0.00133329 	3.67006e-05 	-0.124625
0.0164935 	0.00165279 	5.11371e-05 	-0.124623
0.0181433 	0.0019732 	6.56306e-05 	-0.12462
0.0198531 	0.00229845 	8.42538e-05 	-0.124625
0.0215629 	0.00262442 	0.000102947 	-0.124631
0.0233347 	0.00294442 	0.000126097 	-0.124648
0.0251066 	0.003265 	0.000149332 	-0.124666
0.0269428 	0.00357659 	0.000177754 	-0.124699
0.0287789 	0.00388867 	0.000206281 	-0.124732
0.0306818 	0.00419093 	0.000240967 	-0.124783
0.0325847 	0.00449361 	0.000275775 	-0.124834
0.0345566 	0.004787 	0.000317064 	-0.124904
0.0365285 	0.00508072 	0.000358488 	-0.124974
0.0385721 	0.00536672 	0.000406181 	-0.125064
0.0406156 	0.005653 	0.000454016 	-0.125155
0.0427334 	0.00593293 	0.00050804 	-0.125267
0.0448511 	0.0062131 	0.000562209 	-0.125379
0.0470457 	0.00648767 	0.000622558 	-0.125511
0.0492403 	0.00676244 	0.000683052 	-0.125644
0.0515146 	0.00703181 	0.000749515 	-0.125794
0.053789 	0.00730132 	0.000816127 	-0.125946
0.0561458 	0.00756537 	0.00088838 	-0.126112
0.0585027 	0.00782951 	0.000960783 	-0.126279
0.0609451 	0.00808805 	0.00103843 	-0.126459
0.0633875 	0.00834665 	0.00111623 	-0.12664
0.0659187 	0.00859956 	0.00119883 	-0.126832
0.0684498 	0.0088525 	0.00128159 	-0.127025
0.0710728 	0.00909959 	0.00136865 	-0.127227
0.0736958 	0.00934668 	0.00145586 	-0.12743
0.0764141 	0.00958752 	0.00154681 	-0.127643
0.0791323 	0.00982834 	0.00163791 	-0.127856
0.0819493 	0.0100625 	0.00173219 	-0.128079
0.0847663 	0.0102966 	0.00182661 	-0.128303
0.0876855 	0.0105239 	0.00192369 	-0.128536
0.0906046 	0.0107512 	0.0020209 	-0.128769
0.0936299 	0.0109718 	0.00212035 	-0.129008
0.0966551 	0.0111924 	0.00221992 	-0.129248
0.0997904 	0.0114065 	0.00232136 	-0.129491
0.102926 	0.0116206 	0.00242291 	-0.129736
0.106174 	0.0118286 	0.00252601 	-0.129983
0.109423 	0.0120365 	0.00262921 	-0.130232
0.11279 	0.0122384 	0.00273367 	-0.130482
0.116157 	0.0124402 	0.00283822 	-0.130734
0.119646 	0.0126364 	0.00294376 	-0.130988
0.123135 	0.0128324 	0.00304937 	-0.131242
0.12675 	0.0130229 	0.0031557 	-0.131498
0.130366 	0.0132133 	0.00326209 	-0.131756
0.134113 	0.0133983 	0.00336893 	-0.132014
0.13786 	0.0135832 	0.00347582 	-0.132274
0.141744 	0.013763 	0.00358291 	-0.132535
0.145627 	0.0139426 	0.00369001 	-0.132797
0.14965 	0.0141173 	0.00379708 	-0.13306
0.153674 	0.0142919 	0.00390414 	-0.133325
0.157844 	0.0144616 	0.00401089 	-0.13359
0.162015 	0.0146313 	0.00411763 	-0.133856
0.166336 	0.0147963 	0.00422378 	-0.134124
0.170658 	0.0149612 	0.0043299 	-0.134392
0.175137 	0.0151216 	0.00443517 	-0.134661
0.179615 	0.0152819 	0.00454038 	-0.134932
0.184256 	0.015438 	0.00464451 	-0.135202
0.188897 	0.0155939 	0.00474855 	-0.135474
0.193707 	0.0157458 	0.00485126 	-0.135747
0.198516 	0.0158976 	0.00495387 	-0.13602
0.2035 	0.0160455 	0.00505491 	-0.136293
0.208485 	0.0161934 	0.00515584 	-0.136568
0.213649 	0.0163376 	0.00525505 	-0.136842
0.218814 	0.0164818 	0.00535414 	-0.137118
0.224167 	0.0166226 	0.00545141 	-0.137392
0.22952 	0.0167633 	0.00554856 	-0.137668
0.235067 	0.016901 	0.00564384 	-0.137942
0.240614 	0.0170386 	0.00573898 	-0.138218
0.246363 	0.0171735 	0.00583222 	-0.13849
0.252111 	0.0173084 	0.00592532 	-0.138764
0.258068 	0.017441 	0.00601654 	-0.139035
0.264025 	0.0175735 	0.00610761 	-0.139308
0.270198 	0.0177041 	0.0061968 	-0.139576
0.276372 	0.0178347 	0.00628586 	-0.139846
0.28277 	0.0179639 	0.00637295 	-0.140111
0.289167 	0.0180931 	0.00645991 	-0.140378
0.295797 	0.0182214 	0.00654488 	-0.14064
0.302426 	0.0183498 	0.0066297 	-0.140903
0.309297 	0.0184779 	0.00671255 	-0.141159
0.316168 	0.0186061 	0.00679525 	-0.141416
0.323288 	0.0187346 	0.00687595 	-0.141663
0.330407 	0.0188633 	0.0069565 	-0.141912
0.337786 	0.018993 	0.00703498 	-0.142147
0.345164 	0.0191229 	0.00711329 	-0.142384
0.352811 	0.0192544 	0.00718935 	-0.142605
0.360457 	0.0193862 	0.00726524 	-0.142827
0.360457 	0.0193862 	0.00726524 	-0.142827
0.368381 	0.0195204 	0.00733866 	-0.143034
0.368381 	0.0195204 	0.00733866 	-0.143034
0.376305 	0.0196549 	0.0074119 	-0.143241
0.376305 	0.0196549 	0.0074119 	-0.143241
0.384517 	0.0197923 	0.00748247 	-0.143433
0.392728 	0.01993 	0.00755285 	-0.143626
0.401238 	0.0200713 	0.00762034 	-0.143804
0.409748 	0.0202129 	0.0076876 	-0.143982
0.418567 	0.0203584 	0.00775135 	-0.144138
0.427386 	0.0205043 	0.00781481 	-0.144294
0.436525 	0.0206544 	0.00787364 	-0.144418
0.445664 	0.0208048 	0.00793212 	-0.144541
0.455134 	0.0209596 	0.00798476 	-0.144633
0.464605 	0.0211148 	0.008037 	-0.144725
0.47442 	0.0212745 	0.00808222 	-0.144789
0.484235 	0.0214346 	0.00812697 	-0.144853
0.494406 	0.0215994 	0.00816328 	-0.144883
0.504577 	0.0217647 	0.00819902 	-0.144912
0.515117 	0.0219352 	0.00822459 	-0.144905
0.525657 	0.0221063 	0.00824949 	-0.144897
0.53658 	0.0222841 	0.00826246 	-0.144852
0.547503 	0.0224627 	0.00827467 	-0.144807
0.558822 	0.022651 	0.0082737 	-0.144724
0.570142 	0.0228403 	0.00827191 	-0.14464
0.581872 	0.0230448 	0.00825638 	-0.144523
0.593603 	0.0232508 	0.00824004 	-0.144405
0.605759 	0.0234812 	0.00820964 	-0.144261
0.617916 	0.0237139 	0.00817849 	-0.144115
0.630514 	0.0239857 	0.00813268 	-0.143937
0.643111 	0.0242611 	0.00808617 	-0.143757
0.656166 	0.0245979 	0.00802297 	-0.143536
0.669222 	0.0249401 	0.00795916 	-0.143315
0.682751 	0.0253751 	0.00787395 	-0.143059
0.69628 	0.0258176 	0.00778834 	-0.142803
0.69628 	0.0258176 	0.00778834 	-0.142803
0.7103 	0.0263911 	0.00767637 	-0.142525
0.7103 	0.0263911 	0.00767637 	-0.142525
0.72432 	0.0269743 	0.00756442 	-0.142246
0.72432 	0.0269743 	0.00756442 	-0.142246
0.73885 	0.0277316 	0.0074232 	-0.141916
0.73885 	0.0277316 	0.0074232 	-0.141916
0.753379 	0.0285017 	0.00728211 	-0.141581
0.753379 	0.0285017 	0.00728211 	-0.141581
0.768436 	0.0295084 	0.00709006 	-0.141099
0.783493 	0.0305326 	0.00689507 	-0.140607
0.799097 	0.0319048 	0.00656039 	-0.139887
0.8147 	0.0333009 	0.00622249 	-0.139156
0.83087 	0.0351911 	0.00577134 	-0.138137
0.847041 	0.0371039 	0.00532701 	-0.137098
0.863798 	0.0393251 	0.00499987 	-0.135457
0.880555 	0.0415327 	0.00467829 	-0.133791
0.897921 	0.0427604 	0.00439514 	-0.131561
0.915286 	0.0439072 	0.00410638 	-0.129338
0.933282 	0.0421579 	0.00368267 	-0.12742
0.951278 	0.0402856 	0.00325556 	-0.1255
0.969927 	0.0351626 	0.00279951 	-0.123297
0.988577 	0.029973 	0.00234401 	-0.121068
1.00791 	0.0242994 	0.00199603 	-0.118171
1.02723 	0.0186681 	0.00165325 	-0.115273
1.04726 	0.0153868 	0.00155815 	-0.112611
1.06729 	0.0121731 	0.00147061 	-0.109959
1.08804 	0.0110186 	0.00164491 	-0.107572
1.1088 	0.00989388 	0.00182564 	-0.105184
1.13031 	0.00944496 	0.00219003 	-0.102639
1.15181 	0.00900316 	0.00255834 	-0.100089
1.1741 	0.00865433 	0.00301826 	-0.0973644
1.1964 	0.00830877 	0.00347941 	-0.0946395
1.21949 	0.00799267 	0.00396422 	-0.0918963
1.24259 	0.00768016 	0.00444645 	-0.0891583
1.26653 	0.00743966 	0.00487078 	-0.0865471
1.29047 	0.0072021 	0.00528777 	-0.0839443
1.29047 	0.0072021 	0.00528777 	-0.0839443
1.31528 	0.00703286 	0.00553728 	-0.0816253
1.34008 	0.0068652 	0.00578019 	-0.0793136
1.36579 	0.00673378 	0.00587303 	-0.0769247
1.3915 	0.00660305 	0.00596349 	-0.0745418
1.41814 	0.0064895 	0.00616612 	-0.0715409
1.44478 	0.00637637 	0.0063687 	-0.0685471
1.47239 	0.00628217 	0.00620779 	-0.0674482
1.5 	0.00618829 	0.00604749 	-0.066356
1.51094 	0.0061349 	0.00602174 	-0.0656327
1.52189 	0.00608276 	0.00598999 	-0.0649374
1.53371 	0.00602868 	0.00596919 	-0.0642084
1.54554 	0.00597626 	0.0059431 	-0.0635149
1.54909 	0.00596101 	0.00593977 	-0.0633114
1.55263 	0.00594615 	0.00593572 	-0.0631158
1.5614 	0.00591863 	0.00603218 	-0.0625173
1.57016 	0.00589082 	0.00612038 	-0.0619257
1.58298 	0.0058525 	0.0062685 	-0.0610891
1.5958 	0.00581369 	0.00640032 	-0.060263
1.60346 	0.00579183 	0.00648977 	-0.059788
1.61111 	0.00576981 	0.00657369 	-0.0593157
1.61681 	0.00575313 	0.00659294 	-0.0589886
1.6225 	0.00573635 	0.00660925 	-0.0586658
1.6364 	0.00569762 	0.00666535 	-0.0579111
1.6503 	0.00565863 	0.00671321 	-0.0571653
1.66339 	0.00562391 	0.00677083 	-0.0564982
1.67647 	0.00558906 	0.00682415 	-0.0558337
1.67786 	0.00558539 	0.0068321 	-0.0557567
1.67925 	0.0055817 	0.00683962 	-0.0556808
1.69433 	0.00554391 	0.00693506 	-0.0548938
1.7094 	0.00550594 	0.00702586 	-0.0541171
1.7251 	0.00546863 	0.00713159 	-0.0533527
1.74079 	0.00543114 	0.00723221 	-0.0525966
1.7454 	0.00542077 	0.00726487 	-0.0523876
1.75 	0.00541037 	0.0072964 	-0.0521798
1.76174 	0.00538391 	0.00737723 	-0.0516606
1.77348 	0.00535734 	0.00745428 	-0.0511415
1.7905 	0.00532104 	0.00757721 	-0.0504397
1.80751 	0.00528453 	0.00769143 	-0.0497324
1.82042 	0.0052584 	0.00778694 	-0.0492349
1.83333 	0.00523218 	0.00787847 	-0.0487327
1.83815 	0.00522242 	0.00791372 	-0.0485343
1.84296 	0.00521263 	0.0079476 	-0.0483369
1.84296 	0.00521263 	0.0079476 	-0.0483369
1.86142 	0.00517717 	0.0080882 	-0.0476336
1.87987 	0.00514155 	0.00822159 	-0.0469315
1.89908 	0.00510644 	0.00836899 	-0.0462503
1.9183 	0.00507119 	0.00851133 	-0.0455679
1.92343 	0.00506233 	0.00856907 	-0.0453953
1.92857 	0.00505344 	0.00862421 	-0.0452231
1.94344 	0.00502772 	0.00878976 	-0.0447146
1.95832 	0.0050019 	0.00894836 	-0.0442036
1.97916 	0.00496449 	0.00928337 	-0.0434786
2 	0.00492669 	0.0096081 	-0.0427325
