# wallShearStress  FACE_DATA 60650
# x  y  z  wallShearStress_x  wallShearStress_y  wallShearStress_z
8.48833 0 0.815368 -0.000948173 4.8638e-06 0.000102119
8.46695 0 0.797732 -0.00090289 3.90879e-06 0.000201823
8.44642 0 0.780797 -0.000854818 3.55558e-06 0.000300091
8.51058 0 0.88426 -0.00102973 9.58722e-06 -0.000256353
8.48833 0 0.864784 -0.000991611 8.59382e-06 -0.000154023
8.46695 0 0.84608 -0.000949678 1.02438e-05 -5.35505e-05
8.44642 0 0.828118 -0.000900984 1.03493e-05 4.90227e-05
8.42671 0 0.810869 -0.000857003 9.67652e-06 0.000150054
8.51058 0 0.934789 -0.00107598 -1.74456e-06 -0.000431165
8.48833 0 0.9142 -0.00105601 -8.83741e-07 -0.000326869
8.46695 0 0.894427 -0.00101648 -1.20578e-06 -0.000236876
8.44642 0 0.875439 -0.00098411 -1.4375e-06 -0.00013888
8.42671 0 0.857205 -0.000934728 -1.40945e-06 -4.25109e-05
8.40778 0 0.839693 -0.000879974 -2.36103e-07 5.29294e-05
8.5579 0 1.03145 -0.00118338 1.55618e-05 -0.000907968
8.53376 0 1.00792 -0.00115145 1.55924e-05 -0.000815533
8.51058 0 0.985317 -0.00112907 1.59448e-05 -0.000712266
8.48833 0 0.963616 -0.0010745 1.7686e-05 -0.000611447
8.46695 0 0.942775 -0.00102059 1.66076e-05 -0.000510149
8.44642 0 0.92276 -0.000995594 1.8117e-05 -0.000412588
8.42671 0 0.90354 -0.000951767 1.7929e-05 -0.00031399
8.40778 0 0.885082 -0.000909013 1.64837e-05 -0.000212599
8.38959 0 0.867357 -0.000860738 1.49358e-05 -0.000113376
7.21655 0 0.872138 -0.00347491 -2.55916e-05 -0.000958499
7.21088 0 0.889597 -0.00379554 -1.72191e-05 -0.00109675
7.20497 0 0.907776 -0.00403964 -8.93719e-06 -0.001308
7.19882 0 0.926708 -0.00419628 -7.89483e-07 -0.00157918
7.19241 0 0.94642 -0.0042687 5.18456e-06 -0.00189486
7.2692 0 0.839271 -0.00199831 -2.84385e-05 -0.000571131
7.26477 0 0.855372 -0.00234881 -2.89718e-05 -0.000552798
7.26016 0 0.872138 -0.00272004 -2.81769e-05 -0.00055255
7.25536 0 0.889597 -0.00309328 -2.50269e-05 -0.000594581
7.25036 0 0.907777 -0.00343328 -1.89505e-05 -0.000696715
7.24516 0 0.926707 -0.00371552 -1.13424e-05 -0.000877009
7.23974 0 0.94642 -0.00392041 -3.98703e-06 -0.00113025
7.23409 0 0.966948 -0.00404668 2.63696e-06 -0.00144155
7.31464 0 0.823809 -0.00105708 -2.90001e-05 -0.000373498
7.31116 0 0.839271 -0.00137779 -2.88737e-05 -0.00032449
7.30754 0 0.855372 -0.00170871 -3.05829e-05 -0.000266412
7.30377 0 0.872138 -0.00205699 -3.05796e-05 -0.000222785
7.29984 0 0.889597 -0.00241571 -2.66071e-05 -0.000208609
7.29575 0 0.907776 -0.00277283 -2.23209e-05 -0.000239743
7.29149 0 0.926707 -0.00310539 -1.33185e-05 -0.000335326
7.28705 0 0.946421 -0.00339003 -8.24621e-06 -0.000505925
7.28243 0 0.966948 -0.00361307 -4.54245e-06 -0.000753195
7.27762 0 0.988324 -0.00377249 1.45065e-06 -0.00106678
7.27262 0 1.01058 -0.00386469 7.11918e-06 -0.00143268
7.35843 0 0.80896 -9.17285e-05 -2.46269e-05 -0.000184867
7.35584 0 0.823809 -0.000424627 -3.38079e-05 -0.000160629
7.35313 0 0.839271 -0.000775687 -3.81334e-05 -8.49182e-05
7.35031 0 0.855372 -0.00112413 -3.71932e-05 9.78958e-06
7.34738 0 0.872138 -0.00147352 -3.35601e-05 9.64707e-05
7.34432 0 0.889597 -0.00181987 -2.9872e-05 0.000151366
7.34114 0 0.907777 -0.00216442 -2.45331e-05 0.000158694
7.33783 0 0.926708 -0.00249777 -1.79726e-05 0.000111127
7.33437 0 0.94642 -0.0028081 -7.99188e-06 -6.24904e-06
7.33078 0 0.966948 -0.00307813 1.09482e-06 -0.000198553
7.32704 0 0.988324 -0.00329822 1.89835e-06 -0.000457633
7.32315 0 1.01058 -0.00347141 2.04924e-06 -0.0007805
7.31909 0 1.03376 -0.00358941 6.66767e-06 -0.00115829
7.40066 0 0.794701 0.000668781 -1.42975e-05 3.18131e-05
7.39888 0 0.80896 0.000490247 -2.0459e-05 1.47966e-05
7.39702 0 0.823809 0.000209061 -3.30497e-05 5.12626e-05
7.39509 0 0.839272 -0.000142577 -4.38746e-05 0.000160088
7.39308 0 0.855371 -0.000507421 -4.62509e-05 0.000308208
7.39098 0 0.872138 -0.000882825 -4.26687e-05 0.000447412
7.3888 0 0.889597 -0.00125109 -3.18005e-05 0.000544129
7.38653 0 0.907777 -0.00160386 -2.29665e-05 0.000572219
7.38416 0 0.926708 -0.00193807 -1.83377e-05 0.000529222
7.3817 0 0.946421 -0.00225136 -1.26534e-05 0.000421817
7.37913 0 0.966948 -0.00253676 -3.11655e-06 0.000250883
7.37646 0 0.988324 -0.00278373 5.27856e-06 1.60987e-05
7.37368 0 1.01058 -0.00299274 7.6419e-06 -0.00026834
7.37078 0 1.03376 -0.0031628 6.39174e-06 -0.000601541
7.36776 0 1.0579 -0.00329059 7.80059e-06 -0.0009828
7.44241 0 0.767858 0.0012187 -8.3171e-06 0.000257064
7.44143 0 0.781008 0.00115669 -8.78335e-06 0.00023619
7.4404 0 0.794701 0.00106651 -1.09802e-05 0.00022386
7.43933 0 0.80896 0.000933094 -1.57964e-05 0.000236211
7.43821 0 0.823809 0.000736227 -2.34893e-05 0.000291657
7.43705 0 0.839271 0.000457918 -3.267e-05 0.000400887
7.43585 0 0.855372 0.000119142 -4.2714e-05 0.000554242
7.43459 0 0.872138 -0.000251458 -4.662e-05 0.000724936
7.43328 0 0.889597 -0.000631986 -4.323e-05 0.000856664
7.43192 0 0.907776 -0.00100508 -3.47038e-05 0.000912995
7.4305 0 0.926707 -0.00135966 -2.42761e-05 0.000897483
7.42902 0 0.946421 -0.00169428 -9.05727e-06 0.000809269
7.42748 0 0.966948 -0.00199623 -1.1257e-06 0.000646006
7.42587 0 0.988324 -0.00226486 2.75781e-07 0.000418508
7.42421 0 1.01058 -0.00249387 6.79628e-06 0.000137739
7.42247 0 1.03376 -0.00269294 8.97981e-06 -0.000181659
7.42066 0 1.0579 -0.00286379 7.86742e-06 -0.000536675
7.4808 0 0.767857 0.00140486 -7.19782e-06 0.000466008
7.48048 0 0.781008 0.00136226 -6.55679e-06 0.000470871
7.48013 0 0.794701 0.001304 -6.31072e-06 0.000474817
7.47978 0 0.80896 0.00121476 -8.40917e-06 0.000493029
7.4794 0 0.823809 0.00107892 -1.30021e-05 0.000544486
7.47902 0 0.839271 0.000880465 -1.94074e-05 0.000635826
7.47861 0 0.855372 0.000620547 -2.74842e-05 0.000765977
7.4782 0 0.872138 0.000300996 -3.45385e-05 0.000917765
7.47776 0 0.889597 -5.41067e-05 -3.33177e-05 0.00104467
7.47731 0 0.907777 -0.000417767 -2.83238e-05 0.00110562
7.47683 0 0.926708 -0.000783079 -2.15071e-05 0.00109359
7.47634 0 0.94642 -0.00113626 -1.85469e-05 0.00101854
7.47583 0 0.966948 -0.00146843 -9.21198e-06 0.000884317
7.47529 0 0.988324 -0.00176671 4.0673e-06 0.000679015
7.47474 0 1.01058 -0.00202285 7.44501e-06 0.000414684
7.47416 0 1.03376 -0.00224128 1.03358e-05 0.000113473
7.47355 0 1.0579 -0.00243321 1.15446e-05 -0.000213738
7.47292 0 1.08303 -0.00260074 1.0182e-05 -0.00057229
7.5192 0 0.767857 0.00149043 -5.98271e-06 0.00063491
7.51952 0 0.781008 0.0014435 -5.46919e-06 0.000657912
7.51987 0 0.794701 0.00138538 -5.33383e-06 0.000683384
7.52022 0 0.80896 0.00131085 -5.34375e-06 0.000716882
7.5206 0 0.823809 0.00121194 -6.10023e-06 0.000763377
7.52098 0 0.839271 0.00106538 -8.44742e-06 0.000831553
7.52139 0 0.855372 0.000869074 -1.16127e-05 0.000922054
7.5218 0 0.872138 0.000627716 -1.6355e-05 0.00102268
7.52224 0 0.889597 0.000324534 -1.68575e-05 0.00110847
7.52269 0 0.907777 7.83345e-07 -1.9115e-05 0.001157
7.52317 0 0.926708 -0.000336374 -1.55965e-05 0.00115851
7.52366 0 0.94642 -0.000678629 -9.60444e-06 0.00109242
7.52417 0 0.966948 -0.00100839 -7.6635e-06 0.000971503
7.52471 0 0.988324 -0.00131556 -8.13088e-07 0.000795152
7.52526 0 1.01058 -0.00158626 7.43966e-06 0.000563707
7.52584 0 1.03376 -0.00182378 9.94872e-06 0.000289359
7.52645 0 1.0579 -0.00203562 1.36394e-05 -1.26816e-05
7.52708 0 1.08303 -0.00222522 1.26455e-05 -0.000340667
7.52773 0 1.1092 -0.00238405 1.06362e-05 -0.000691062
7.55759 0 0.767858 0.00151862 -5.34573e-06 0.000756812
7.55857 0 0.781008 0.00146284 -5.00523e-06 0.000788753
7.5596 0 0.794701 0.00139548 -4.42116e-06 0.000821054
7.56067 0 0.80896 0.00131838 -3.98518e-06 0.000857697
7.56179 0 0.823809 0.00122671 -3.35973e-06 0.00089967
7.56295 0 0.839271 0.00110574 -3.67026e-06 0.000951346
7.56415 0 0.855372 0.000944821 -4.26424e-06 0.00101296
7.56541 0 0.872138 0.000750523 -4.57899e-06 0.00107512
7.56672 0 0.889597 0.0005125 -7.04654e-06 0.00112358
7.56808 0 0.907776 0.00023644 -5.07435e-06 0.00114711
7.5695 0 0.926707 -5.7018e-05 -8.2952e-06 0.00113619
7.57098 0 0.946421 -0.000363296 -5.99923e-06 0.00108648
7.57252 0 0.966948 -0.000673638 -1.44728e-06 0.000972466
7.57413 0 0.988324 -0.000969784 -1.54039e-06 0.000810438
7.57579 0 1.01058 -0.0012408 5.41214e-06 0.000604778
7.57753 0 1.03376 -0.0014832 1.20869e-05 0.00035811
7.57934 0 1.0579 -0.00170301 1.23683e-05 8.56132e-05
7.58123 0 1.08303 -0.00190568 1.3841e-05 -0.000214657
7.58319 0 1.1092 -0.00208122 1.23757e-05 -0.000535656
7.58523 0 1.13646 -0.0022205 1.12845e-05 -0.000869183
7.59598 0 0.767857 0.001507 -4.82529e-06 0.000838565
7.59762 0 0.781008 0.00144178 -4.67065e-06 0.000876324
7.59934 0 0.794701 0.0013676 -4.24287e-06 0.000911084
7.60112 0 0.80896 0.00128577 -3.38378e-06 0.000944569
7.60298 0 0.823809 0.0011925 -2.59428e-06 0.00097696
7.60491 0 0.839272 0.00107653 -2.19292e-06 0.00101198
7.60692 0 0.855371 0.000934664 -1.74559e-06 0.00104979
7.60902 0 0.872138 0.00076697 -2.8524e-07 0.00108494
7.6112 0 0.889597 0.000571455 -8.7792e-07 0.00110679
7.61347 0 0.907777 0.000336803 7.03422e-07 0.00110901
7.61584 0 0.926708 8.35197e-05 3.59002e-07 0.00108178
7.6183 0 0.946421 -0.000183879 -2.23674e-07 0.00102094
7.62087 0 0.966948 -0.000460929 1.48951e-06 0.000914921
7.62354 0 0.988324 -0.000732471 3.20474e-06 0.000762467
7.62632 0 1.01058 -0.000988052 5.64741e-06 0.000574872
7.62922 0 1.03376 -0.00122453 9.55466e-06 0.000354357
7.63224 0 1.0579 -0.00144188 1.23398e-05 0.000107618
7.63538 0 1.08303 -0.00164463 1.32205e-05 -0.000164498
7.63865 0 1.1092 -0.00182162 1.24986e-05 -0.000453651
7.64205 0 1.13646 -0.0019705 1.04957e-05 -0.000758467
7.6456 0 1.16484 -0.00208231 9.87096e-06 -0.00106033
7.63438 0 0.767858 0.00146478 -3.85302e-06 0.000879264
7.63668 0 0.781008 0.00139111 -3.76186e-06 0.00092094
7.63907 0 0.794701 0.00131035 -3.88837e-06 0.000957549
7.64157 0 0.80896 0.00122174 -3.8376e-06 0.000987656
7.64416 0 0.823809 0.00112294 -3.62823e-06 0.00101211
7.64687 0 0.839271 0.00100148 -2.33783e-06 0.00103338
7.64969 0 0.855372 0.000866608 -7.39219e-07 0.00105164
7.65262 0 0.872138 0.000712736 6.64682e-07 0.00106243
7.65568 0 0.889597 0.000539974 2.72122e-06 0.00106123
7.65886 0 0.907777 0.000338943 2.85969e-06 0.0010417
7.66217 0 0.926708 0.000120402 3.5473e-06 0.000997467
7.66563 0 0.94642 -0.000109699 4.35065e-06 0.000925289
7.66922 0 0.966948 -0.00034914 4.63696e-06 0.000821022
7.67296 0 0.988324 -0.000588612 5.43674e-06 0.000677406
7.67685 0 1.01058 -0.000820123 6.6986e-06 0.000506032
7.68091 0 1.03376 -0.00104098 8.79168e-06 0.000307131
7.68513 0 1.0579 -0.00124799 1.25741e-05 8.22246e-05
7.68953 0 1.08303 -0.00144085 1.29278e-05 -0.000164624
7.69411 0 1.1092 -0.00161511 1.21052e-05 -0.000437532
7.69888 0 1.13646 -0.00175105 9.37697e-06 -0.000699782
7.70385 0 1.16483 -0.0018629 9.41768e-06 -0.00096716
7.67277 0 0.767857 0.00140119 -2.4718e-06 0.000882583
7.67573 0 0.781008 0.0013229 -2.29905e-06 0.000921317
7.67881 0 0.794701 0.00123727 -2.64167e-06 0.000954331
7.68201 0 0.80896 0.00114346 -3.26961e-06 0.000980951
7.68536 0 0.823809 0.00103777 -3.20122e-06 0.00100075
7.68884 0 0.839271 0.000913995 -2.4956e-06 0.00101396
7.69246 0 0.855372 0.000781363 -1.54133e-06 0.00101865
7.69623 0 0.872138 0.000635396 -6.25846e-07 0.0010125
7.70016 0 0.889597 0.000474991 1.89266e-06 0.000993699
7.70425 0 0.907776 0.000296763 3.12946e-06 0.000957016
7.70851 0 0.926707 0.000104781 4.49419e-06 0.000898304
7.71295 0 0.946421 -9.43969e-05 5.31519e-06 0.000816714
7.71757 0 0.966948 -0.000301373 5.95387e-06 0.000710754
7.72238 0 0.988324 -0.000509888 6.83712e-06 0.000575811
7.72738 0 1.01058 -0.000714782 7.92104e-06 0.000416489
7.7326 0 1.03376 -0.000913404 8.38308e-06 0.000234784
7.73803 0 1.0579 -0.00110417 1.21528e-05 2.7607e-05
7.74368 0 1.08303 -0.00127773 1.17126e-05 -0.000201852
7.74957 0 1.1092 -0.00143374 9.38056e-06 -0.000442614
7.7557 0 1.13646 -0.00156376 9.9819e-06 -0.000684535
7.76209 0 1.16484 -0.00166818 7.50541e-06 -0.000923395
7.76874 0 1.19439 -0.00173885 4.74402e-06 -0.00114813
7.71116 0 0.767857 0.00132238 -1.76717e-06 0.000857499
7.71478 0 0.781008 0.00124306 -1.659e-06 0.000890221
7.71854 0 0.794701 0.00115705 -1.8433e-06 0.000917774
7.72246 0 0.80896 0.00106396 -1.64104e-06 0.000939463
7.72655 0 0.823809 0.000956702 -9.97571e-07 0.000953325
7.7308 0 0.839271 0.000836048 -9.63408e-07 0.000958619
7.73523 0 0.855372 0.000707097 -9.55256e-07 0.000952722
7.73984 0 0.872138 0.000567862 -1.06757e-06 0.000934235
7.74464 0 0.889597 0.000416098 1.21918e-06 0.000901255
7.74964 0 0.907777 0.00025471 2.23073e-06 0.000851865
7.75484 0 0.926707 8.31338e-05 3.30113e-06 0.000783613
7.76026 0 0.94642 -9.24452e-05 4.1224e-06 0.000696286
7.76591 0 0.966948 -0.000273805 5.20368e-06 0.000589886
7.77179 0 0.988324 -0.000457 6.03273e-06 0.000461092
7.77791 0 1.01058 -0.000638776 7.39829e-06 0.000312166
7.78428 0 1.03376 -0.00081629 8.34831e-06 0.000142433
7.79092 0 1.0579 -0.000986628 1.0036e-05 -4.78838e-05
7.79783 0 1.08303 -0.00114349 8.88102e-06 -0.000268642
7.80503 0 1.1092 -0.00128762 9.11282e-06 -0.000481722
7.81252 0 1.13646 -0.0014039 8.83267e-06 -0.000691909
7.82033 0 1.16483 -0.00149562 5.87597e-06 -0.000913773
7.82845 0 1.19439 -0.00155702 3.11506e-06 -0.00110482
7.83692 0 1.22516 -0.00159694 2.14647e-06 -0.00126578
7.74955 0 0.767858 0.00122621 -9.26202e-07 0.000818983
7.75383 0 0.781007 0.00114835 -1.09218e-06 0.000845441
7.75828 0 0.794701 0.0010644 -1.0717e-06 0.000865803
7.76291 0 0.80896 0.000973361 -2.53435e-07 0.000879536
7.76774 0 0.823809 0.000868528 2.35855e-07 0.000884973
7.77277 0 0.839271 0.000754722 4.90464e-07 0.000880896
7.778 0 0.855372 0.000632119 4.60014e-07 0.000864809
7.78345 0 0.872138 0.000502538 1.19298e-06 0.000836509
7.78912 0 0.889597 0.000361112 2.66031e-06 0.000793028
7.79503 0 0.907776 0.000214208 2.73692e-06 0.000732809
7.80118 0 0.926708 5.97033e-05 3.38587e-06 0.000656617
7.80759 0 0.94642 -9.71855e-05 3.9494e-06 0.000565523
7.81425 0 0.966948 -0.000258732 4.46727e-06 0.000459007
7.82121 0 0.988324 -0.000420855 5.50286e-06 0.000333594
7.82844 0 1.01058 -0.000582447 6.1041e-06 0.000192629
7.83597 0 1.03376 -0.000741222 7.60893e-06 3.43845e-05
7.84382 0 1.0579 -0.000898078 7.61518e-06 -0.000155293
7.85199 0 1.08303 -0.00104415 7.81594e-06 -0.000353516
7.86049 0 1.1092 -0.0011643 8.83225e-06 -0.000532243
7.86935 0 1.13646 -0.00127138 6.86204e-06 -0.000727812
7.87857 0 1.16484 -0.00135089 3.60391e-06 -0.000928633
7.88818 0 1.19439 -0.00140349 2.27249e-06 -0.00108607
7.89818 0 1.22516 -0.00143852 1.55951e-06 -0.00121896
7.90859 0 1.25721 -0.00145076 1.88957e-08 -0.00131572
7.78795 0 0.767857 0.00111568 -7.28531e-07 0.000769818
7.79288 0 0.781008 0.00103913 -6.17558e-07 0.000789799
7.79801 0 0.794701 0.000957178 2.13936e-07 0.000803125
7.80336 0 0.80896 0.000865902 1.04766e-06 0.000809053
7.80893 0 0.823809 0.000766074 1.06162e-06 0.000805569
7.81473 0 0.839271 0.000660338 1.04618e-06 0.000792358
7.82076 0 0.855372 0.000546733 8.12059e-07 0.000767321
7.82705 0 0.872138 0.000426811 3.77825e-06 0.000728925
7.8336 0 0.889597 0.000298328 3.56636e-06 0.000676612
7.84042 0 0.907777 0.000164018 2.96725e-06 0.000610355
7.84752 0 0.926707 2.51528e-05 4.39372e-06 0.000529158
7.85491 0 0.946421 -0.000115897 4.68294e-06 0.000432861
7.8626 0 0.966948 -0.000260046 4.28046e-06 0.000323419
7.87062 0 0.988324 -0.000405129 5.12467e-06 0.000199537
7.87897 0 1.01058 -0.000550041 5.44132e-06 6.52217e-05
7.88766 0 1.03376 -0.000696699 5.84428e-06 -9.64152e-05
7.89671 0 1.0579 -0.000844276 6.29146e-06 -0.000271846
7.90614 0 1.08303 -0.000969638 7.53799e-06 -0.000435673
7.91595 0 1.1092 -0.00107957 7.12606e-06 -0.000612281
7.92617 0 1.13646 -0.00117346 4.15489e-06 -0.00079492
7.93681 0 1.16483 -0.00123811 2.21004e-06 -0.000958118
7.9479 0 1.19439 -0.00128382 1.75742e-06 -0.00108727
7.95943 0 1.22516 -0.00131419 1.02622e-06 -0.00119908
7.97145 0 1.25721 -0.00132248 -4.2297e-07 -0.00127425
7.98397 0 1.29057 -0.00131659 -1.80434e-06 -0.00132399
7.99699 0 1.32531 -0.00128471 -4.60283e-06 -0.00131596
7.82634 0 0.767858 0.000993474 7.00416e-08 0.000719036
7.83193 0 0.781007 0.000917547 8.00728e-07 0.000732465
7.83775 0 0.794701 0.000834781 1.57567e-06 0.000738939
7.84381 0 0.808961 0.000745612 1.49499e-06 0.000737235
7.85012 0 0.823809 0.000651735 1.3593e-06 0.000725834
7.85669 0 0.839271 0.000551184 1.00257e-06 0.00070365
7.86353 0 0.855372 0.000446026 2.77315e-06 0.000669589
7.87066 0 0.872138 0.000333713 4.71068e-06 0.000622796
7.87808 0 0.889596 0.00021662 3.46965e-06 0.000563098
7.88581 0 0.907777 9.36354e-05 4.31105e-06 0.000490475
7.89385 0 0.926708 -3.18278e-05 5.51685e-06 0.000405299
7.90223 0 0.94642 -0.000160292 4.26133e-06 0.00030715
7.91095 0 0.966948 -0.000290135 5.00884e-06 0.00019555
7.92003 0 0.988324 -0.000421273 4.96048e-06 7.03568e-05
7.9295 0 1.01058 -0.000553973 4.45255e-06 -7.24122e-05
7.93935 0 1.03376 -0.00069525 5.16813e-06 -0.000231542
7.94961 0 1.0579 -0.000820372 6.21985e-06 -0.000382667
7.96029 0 1.08303 -0.000932106 7.17946e-06 -0.000527461
7.97141 0 1.1092 -0.00103379 4.94801e-06 -0.000701069
7.98299 0 1.13646 -0.00110874 2.11492e-06 -0.00086672
7.99505 0 1.16484 -0.00116326 1.75245e-06 -0.000998413
8.00761 0 1.19439 -0.00120267 1.17497e-06 -0.0011062
8.02069 0 1.22516 -0.00122771 4.11244e-07 -0.00119716
8.03431 0 1.25721 -0.0012313 -8.43687e-07 -0.00125435
8.04849 0 1.29057 -0.00122192 -1.95812e-06 -0.0012846
8.06326 0 1.32531 -0.00118842 -4.18231e-06 -0.00126734
7.86473 0 0.767857 0.000861023 1.55327e-06 0.000669748
7.87098 0 0.781008 0.000785735 1.90811e-06 0.000676315
7.87748 0 0.794701 0.000705412 1.72687e-06 0.000675288
7.88426 0 0.80896 0.000620541 1.3998e-06 0.000665482
7.89131 0 0.823809 0.000530051 1.13824e-06 0.000645907
7.89865 0 0.839271 0.000435298 2.79869e-06 0.000614997
7.9063 0 0.855372 0.000334628 4.95207e-06 0.000572549
7.91427 0 0.872138 0.000230103 3.87877e-06 0.000518039
7.92256 0 0.889597 0.000120342 3.84883e-06 0.000452341
7.93119 0 0.907776 7.96573e-06 5.50974e-06 0.000374713
7.94019 0 0.926708 -0.000106709 4.42569e-06 0.000285338
7.94955 0 0.94642 -0.000223474 4.13903e-06 0.000185166
7.9593 0 0.966948 -0.000342512 3.86438e-06 7.17089e-05
7.96945 0 0.988324 -0.00046578 3.43987e-06 -5.77877e-05
7.98003 0 1.01058 -0.00059288 4.29067e-06 -0.000208196
7.99104 0 1.03376 -0.000715558 4.8866e-06 -0.000346177
8.0025 0 1.0579 -0.000823157 6.25821e-06 -0.000478264
8.01444 0 1.08303 -0.00092121 5.59557e-06 -0.000638185
8.02687 0 1.1092 -0.00100716 2.44404e-06 -0.000796173
8.03981 0 1.13646 -0.00106771 1.11683e-06 -0.000930715
8.05329 0 1.16483 -0.00111622 1.38468e-06 -0.00104173
8.06733 0 1.19439 -0.00114837 3.24234e-07 -0.00113447
8.08195 0 1.22516 -0.00116683 -3.30834e-07 -0.00120781
8.09717 0 1.25721 -0.00116595 -1.3573e-06 -0.00124764
8.11302 0 1.29057 -0.00115284 -2.32455e-06 -0.00126262
8.12952 0 1.32531 -0.00111695 -4.41731e-06 -0.00123915
7.90312 0 0.767857 0.000719714 2.36983e-06 0.000631357
7.91003 0 0.781008 0.000647812 1.95548e-06 0.000629878
7.91722 0 0.794701 0.000570802 1.52664e-06 0.000620955
7.92471 0 0.80896 0.000488662 1.94475e-06 0.00060276
7.9325 0 0.823809 0.000402335 3.31903e-06 0.00057474
7.94062 0 0.839271 0.000309747 5.13468e-06 0.000535218
7.94907 0 0.855372 0.000214127 4.28986e-06 0.000485002
7.95787 0 0.872138 0.000114148 4.13308e-06 0.000424392
7.96704 0 0.889597 1.14898e-05 5.64504e-06 0.000352344
7.97658 0 0.907777 -9.31912e-05 4.88745e-06 0.000269847
7.98652 0 0.926707 -0.000199366 4.04373e-06 0.000177361
7.99687 0 0.946421 -0.000308446 3.46753e-06 7.18157e-05
8.00765 0 0.966948 -0.000422268 3.32213e-06 -4.98184e-05
8.01887 0 0.988324 -0.00053798 4.00802e-06 -0.000182281
8.03055 0 1.01058 -0.000656146 4.48846e-06 -0.000314781
8.04273 0 1.03376 -0.000757237 5.50167e-06 -0.000442441
8.0554 0 1.0579 -0.000851074 5.60848e-06 -0.000575756
8.06859 0 1.08303 -0.00093749 4.08288e-06 -0.00073386
8.08233 0 1.1092 -0.00100364 1.41254e-06 -0.000878434
8.09664 0 1.13646 -0.00105392 1.22548e-06 -0.000990053
8.11154 0 1.16484 -0.00109415 9.48813e-07 -0.00108646
8.12705 0 1.19439 -0.00111899 -1.18057e-07 -0.00116417
8.14321 0 1.22516 -0.00113031 -6.92626e-07 -0.00122158
8.16003 0 1.25721 -0.00112384 -1.67519e-06 -0.00124807
8.17755 0 1.29057 -0.00110564 -2.61429e-06 -0.00124766
8.19579 0 1.32531 -0.00106708 -4.43671e-06 -0.00121811
7.94152 0 0.767858 0.000578123 1.88047e-06 0.000599436
7.94908 0 0.781008 0.000509134 1.62315e-06 0.000589358
7.95695 0 0.794701 0.000435405 2.7e-06 0.000571141
7.96516 0 0.80896 0.000356688 3.88338e-06 0.000544004
7.97369 0 0.823809 0.000272002 5.14984e-06 0.000506562
7.98258 0 0.839271 0.000184425 4.061e-06 0.00045901
7.99184 0 0.855371 9.2797e-05 4.26808e-06 0.000401431
8.00148 0 0.872138 -1.55728e-06 5.3452e-06 0.000334056
8.01152 0 0.889596 -9.76731e-05 4.6494e-06 0.000256876
8.02197 0 0.907777 -0.000195217 3.59351e-06 0.000170345
8.03286 0 0.926708 -0.000295532 2.81483e-06 6.98981e-05
8.04419 0 0.94642 -0.000400154 2.81302e-06 -4.31414e-05
8.05599 0 0.966948 -0.000505033 3.0957e-06 -0.000161697
8.06829 0 0.988324 -0.000615626 3.70487e-06 -0.000290102
8.08108 0 1.01058 -0.000716726 4.25966e-06 -0.000414024
8.09441 0 1.03376 -0.000806525 4.83488e-06 -0.000528657
8.10829 0 1.0579 -0.00088456 5.01625e-06 -0.000674117
8.12274 0 1.08303 -0.000956255 1.85588e-06 -0.000820406
8.13779 0 1.1092 -0.00100785 7.46192e-07 -0.000943233
8.15346 0 1.13646 -0.00105009 9.03267e-07 -0.00104143
8.16978 0 1.16483 -0.0010809 1.0711e-07 -0.00112721
8.18677 0 1.19439 -0.0010979 -7.22241e-07 -0.0011933
8.20447 0 1.22516 -0.00110203 -1.26945e-06 -0.00123645
8.22289 0 1.25721 -0.00109084 -2.35423e-06 -0.00125106
8.24208 0 1.29057 -0.00106805 -3.36638e-06 -0.00123834
8.26206 0 1.32531 -0.00103067 -4.61032e-06 -0.00120888
7.97991 0 0.767857 0.000434413 3.00027e-06 0.000581824
7.98813 0 0.781008 0.000367967 3.73893e-06 0.000561805
7.99669 0 0.794701 0.000296006 4.79639e-06 0.000533959
8.0056 0 0.80896 0.000218571 5.40188e-06 0.000496965
8.01488 0 0.823809 0.000138029 4.61919e-06 0.000451239
8.02455 0 0.839272 5.36341e-05 5.13461e-06 0.000395978
8.03461 0 0.855372 -3.38228e-05 5.72564e-06 0.000332002
8.04508 0 0.872138 -0.000123468 5.03743e-06 0.000259031
8.056 0 0.889597 -0.000214586 4.04518e-06 0.000177616
8.06736 0 0.907776 -0.000309105 3.69264e-06 8.30258e-05
8.07919 0 0.926707 -0.000406001 3.64312e-06 -2.349e-05
8.09151 0 0.946421 -0.000504378 3.80096e-06 -0.00013271
8.10434 0 0.966948 -0.00060283 4.21191e-06 -0.000259624
8.1177 0 0.988324 -0.000706518 4.82111e-06 -0.000380507
8.13161 0 1.01058 -0.000793537 5.45194e-06 -0.000491354
8.1461 0 1.03376 -0.000870035 4.22031e-06 -0.000601626
8.16118 0 1.0579 -0.000938294 5.61657e-06 -0.000751571
8.17689 0 1.08303 -0.0009918 1.41914e-06 -0.000890753
8.19325 0 1.1092 -0.00103534 1.70024e-06 -0.000993884
8.21028 0 1.13646 -0.00106952 1.29336e-06 -0.00108493
8.22802 0 1.16484 -0.00109062 3.46274e-07 -0.00116155
8.24649 0 1.19439 -0.00109887 -5.04224e-07 -0.00121683
8.26572 0 1.22516 -0.00109529 -1.18676e-06 -0.00124855
8.28575 0 1.25721 -0.00107889 -2.29096e-06 -0.00125566
8.30661 0 1.29057 -0.00105146 -3.29189e-06 -0.00123636
8.32832 0 1.32531 -0.00101183 -4.36062e-06 -0.00120949
8.0183 0 0.767858 0.000293235 4.67255e-06 0.000563641
8.02718 0 0.781008 0.000228749 5.5079e-06 0.000533376
8.03642 0 0.794701 0.000160132 4.80769e-06 0.000495201
8.04605 0 0.80896 8.72113e-05 4.94369e-06 0.000449422
8.05607 0 0.823809 1.09442e-05 5.55925e-06 0.000395836
8.06651 0 0.839271 -6.87007e-05 5.37964e-06 0.000333484
8.07738 0 0.855372 -0.000150684 4.65111e-06 0.000262939
8.08869 0 0.872138 -0.00023419 3.38254e-06 0.000184797
8.10048 0 0.889597 -0.000319879 3.08735e-06 9.32941e-05
8.11275 0 0.907777 -0.000409424 3.13782e-06 -5.89559e-06
8.12553 0 0.926708 -0.000499115 2.89793e-06 -0.00011153
8.13883 0 0.94642 -0.000588428 3.00032e-06 -0.000224383
8.15269 0 0.966948 -0.000684324 3.91369e-06 -0.000346013
8.16712 0 0.988324 -0.000770315 4.05624e-06 -0.000461939
8.18214 0 1.01058 -0.000848671 4.36483e-06 -0.000565693
8.19779 0 1.03376 -0.000912459 3.29008e-06 -0.000675231
8.21408 0 1.0579 -0.000970366 3.37118e-06 -0.000815328
8.23104 0 1.08303 -0.00101026 2.61568e-07 -0.000945607
8.24871 0 1.1092 -0.00104654 7.33746e-07 -0.00103826
8.26711 0 1.13646 -0.00107178 6.49764e-08 -0.00112106
8.28626 0 1.16483 -0.00108481 -7.01424e-07 -0.0011884
8.30621 0 1.19439 -0.00108588 -1.42065e-06 -0.00123511
8.32698 0 1.22516 -0.00107576 -1.95236e-06 -0.00125884
8.34861 0 1.25721 -0.00105534 -3.05501e-06 -0.00126025
8.37113 0 1.29057 -0.00102372 -4.47673e-06 -0.0012324
8.39459 0 1.32531 -0.00098347 -4.28743e-06 -0.00120801
8.0567 0 0.767857 0.000155712 5.39514e-06 0.000556028
8.06623 0 0.781008 9.29752e-05 5.24607e-06 0.00051626
8.07616 0 0.794701 2.62498e-05 6.04255e-06 0.000469721
8.0865 0 0.80896 -4.43289e-05 6.2053e-06 0.000416685
8.09726 0 0.823809 -0.00011837 5.81501e-06 0.000356449
8.10847 0 0.839271 -0.000195424 5.06863e-06 0.000288242
8.12014 0 0.855372 -0.000274045 4.57778e-06 0.000212746
8.1323 0 0.872138 -0.000354631 4.82844e-06 0.000128142
8.14496 0 0.889596 -0.000438486 4.18214e-06 3.23279e-05
8.15814 0 0.907777 -0.000522776 4.13841e-06 -6.83166e-05
8.17186 0 0.926708 -0.000607413 4.64163e-06 -0.000171586
8.18616 0 0.94642 -0.000692333 4.7138e-06 -0.000290466
8.20104 0 0.966948 -0.00078208 5.74777e-06 -0.000408699
8.21654 0 0.988324 -0.000857971 6.03001e-06 -0.000515295
8.23267 0 1.01058 -0.000925521 5.6547e-06 -0.00061495
8.24948 0 1.03376 -0.00098079 5.39789e-06 -0.000725344
8.26697 0 1.0579 -0.00102746 4.22226e-06 -0.000860016
8.2852 0 1.08303 -0.00105968 1.99636e-06 -0.000979027
8.30417 0 1.1092 -0.00108859 2.32292e-06 -0.00106498
8.32393 0 1.13646 -0.00110642 1.60574e-06 -0.00114182
8.3445 0 1.16484 -0.0011121 8.03205e-07 -0.00120326
8.36593 0 1.19439 -0.00110646 -4.59114e-08 -0.001244
8.38824 0 1.22516 -0.00109026 -1.10967e-06 -0.00126117
8.41147 0 1.25721 -0.00106381 -2.1251e-06 -0.00126341
8.10528 0 0.781008 -3.63809e-05 6.58074e-06 0.000489316
8.11589 0 0.794701 -9.87998e-05 6.16394e-06 0.000434296
8.12694 0 0.80896 -0.000164715 5.46824e-06 0.000372844
8.13845 0 0.823809 -0.000233527 4.34962e-06 0.000304379
8.15044 0 0.839271 -0.000304082 4.02991e-06 0.000229811
8.16292 0 0.855372 -0.000375328 4.20285e-06 0.000145804
8.17591 0 0.872138 -0.000449521 3.28105e-06 5.27045e-05
8.18944 0 0.889597 -0.000525199 2.98208e-06 -4.45708e-05
8.20352 0 0.907776 -0.000599927 2.79187e-06 -0.000144835
8.2182 0 0.926707 -0.000675205 2.58248e-06 -0.000251773
8.23348 0 0.946421 -0.000753125 3.06995e-06 -0.000368467
8.24938 0 0.966948 -0.000827136 3.89639e-06 -0.00048156
8.26595 0 0.988324 -0.000891978 3.16719e-06 -0.000581864
8.2832 0 1.01058 -0.000947576 2.77629e-06 -0.000679156
8.30116 0 1.03376 -0.000991153 2.33774e-06 -0.000784591
8.31987 0 1.0579 -0.00103001 1.3547e-06 -0.000908286
8.33935 0 1.08303 -0.00105235 -8.71789e-07 -0.00101854
8.35963 0 1.1092 -0.00107271 -7.0238e-07 -0.00109829
8.38075 0 1.13646 -0.00108283 -1.35698e-06 -0.00116837
8.40275 0 1.16483 -0.00108293 -1.95469e-06 -0.00122221
8.42565 0 1.19439 -0.00107325 -2.48227e-06 -0.00125849
8.4495 0 1.22516 -0.00105489 -3.05016e-06 -0.00126837
8.16739 0 0.80896 -0.000284287 5.24881e-06 0.000350181
8.17964 0 0.823809 -0.000353105 5.29834e-06 0.000278044
8.1924 0 0.839271 -0.000422711 5.287e-06 0.000200415
8.20568 0 0.855372 -0.000494924 5.41858e-06 0.000114675
8.21951 0 0.872138 -0.000567917 5.57042e-06 2.02933e-05
8.23392 0 0.889597 -0.000641315 5.31223e-06 -7.4929e-05
8.24892 0 0.907777 -0.000714415 5.90785e-06 -0.000174277
8.26453 0 0.926707 -0.000787303 5.9027e-06 -0.000282953
8.28079 0 0.94642 -0.000862506 6.84713e-06 -0.000395079
8.29773 0 0.966948 -0.000928807 7.79048e-06 -0.00050461
8.31537 0 0.988324 -0.000988207 7.27365e-06 -0.000602661
8.33373 0 1.01058 -0.00103864 6.81315e-06 -0.000692734
8.35285 0 1.03376 -0.00108178 7.76785e-06 -0.000803768
8.37277 0 1.0579 -0.00111014 5.23484e-06 -0.000924176
8.3935 0 1.08303 -0.00112855 3.94585e-06 -0.00102109
8.41509 0 1.1092 -0.00114451 4.00888e-06 -0.00109819
8.43757 0 1.13646 -0.00115006 3.43677e-06 -0.0011667
8.46099 0 1.16484 -0.00114511 2.89226e-06 -0.00121957
8.20784 0 0.80896 -0.000398823 5.39306e-06 0.000299405
8.22083 0 0.823809 -0.000457717 4.62254e-06 0.000219743
8.23436 0 0.839272 -0.000516751 4.39729e-06 0.000130757
8.24845 0 0.855372 -0.000577394 3.11839e-06 3.63255e-05
8.26312 0 0.872138 -0.000637598 2.45802e-06 -5.88875e-05
8.2784 0 0.889596 -0.000697208 1.63603e-06 -0.000157738
8.29431 0 0.907777 -0.000755894 1.07673e-06 -0.000260998
8.31087 0 0.926708 -0.000814339 1.10291e-06 -0.000372914
8.32812 0 0.946421 -0.000870155 9.93109e-07 -0.000479067
8.34608 0 0.966948 -0.000921267 1.7243e-06 -0.00057986
8.36478 0 0.988324 -0.000964422 3.4072e-07 -0.000682505
8.38426 0 1.01058 -0.00100358 -8.8267e-07 -0.000772882
8.40454 0 1.03376 -0.00103518 -9.60457e-07 -0.000865968
8.42566 0 1.0579 -0.00105091 -1.82795e-06 -0.000975571
8.44765 0 1.08303 -0.00106062 -3.47831e-06 -0.00107052
8.47055 0 1.1092 -0.00106628 -4.23155e-06 -0.00114302
8.4944 0 1.13646 -0.00106422 -4.93997e-06 -0.00120117
8.26202 0 0.823809 -0.000562048 5.33009e-06 0.000211687
8.27633 0 0.839271 -0.000626323 6.0285e-06 0.000128756
8.29122 0 0.855372 -0.000689955 6.7927e-06 3.97454e-05
8.30673 0 0.872138 -0.000754756 6.61173e-06 -5.09343e-05
8.32288 0 0.889597 -0.000820041 7.68126e-06 -0.000143872
8.33969 0 0.907776 -0.000884355 8.33466e-06 -0.00024318
8.35721 0 0.926707 -0.000948367 9.19992e-06 -0.000346644
8.37544 0 0.946421 -0.00100878 1.02753e-05 -0.000452453
8.39443 0 0.966948 -0.00106477 1.18824e-05 -0.000551526
8.4142 0 0.988324 -0.00111235 1.34114e-05 -0.000659108
8.43479 0 1.01058 -0.00114981 1.18276e-05 -0.000754863
8.45623 0 1.03376 -0.00118797 1.37327e-05 -0.000842575
8.47855 0 1.0579 -0.00121516 1.35879e-05 -0.000946072
8.5018 0 1.08303 -0.00122831 1.22325e-05 -0.00104102
8.52601 0 1.1092 -0.00123548 1.17953e-05 -0.00111677
8.33399 0 0.855372 -0.000765241 8.67588e-08 -5.23784e-05
8.35033 0 0.872138 -0.000808808 -1.32836e-06 -0.000152443
8.36736 0 0.889597 -0.000851945 -2.39413e-06 -0.000254306
8.38508 0 0.907777 -0.000892536 -2.84314e-06 -0.000360974
8.40354 0 0.926708 -0.00092834 -3.47236e-06 -0.000466483
8.42276 0 0.94642 -0.000956902 -4.62594e-06 -0.00056652