# kMean  POINT_DATA 63889
# x  y  z  kMean
0 0.5 3.39582e-17 0.00375
0 0.5 -0.00617965 0.00375
0 0.5 0.00617965 0.00375
0.0124871 0.5 -0.00617965 0.00375032
0.0124871 0.5 0.00617965 0.00375032
0 0.5 -0.0688203 0.00375
0 0.5 0.0688203 0.00375
0.0124871 0.5 -0.0688203 0.00375032
0.0124871 0.5 0.0688203 0.00375032
0 0.5 -0.075 0.00375
0 0.5 0.075 0.00375
0 0.5 -0.0811797 0.00375
0 0.5 0.0811797 0.00375
0.0124871 0.5 -0.0811797 0.00375032
0.0124871 0.5 0.0811797 0.00375033
0.0757758 0.5 -0.0375 0.00375195
0.0757758 0.5 0.0375 0.00375195
0.0757758 0.5 -0.1125 0.00375198
0.0757758 0.5 0.1125 0.003752
0 0.5 -0.14382 0.00375
0 0.5 0.14382 0.00375
0.0124871 0.5 -0.14382 0.00375032
0.0124871 0.5 0.14382 0.00375033
0 0.5 -0.15 0.00375
0 0.5 0.15 0.00375
0.151149 0.5 -0.00137326 0.00375429
0 0.5 -0.15618 0.00375
0 0.5 0.15618 0.00375
0.0124871 0.5 -0.15618 0.00375034
0.0124871 0.5 0.15618 0.00375035
0.151149 0.5 -0.075 0.00375435
0.151149 0.5 0.075 0.00375435
0.0757758 0.5 -0.1875 0.00375209
0.0757758 0.5 0.1875 0.00375211
0.151149 0.5 -0.15 0.0037545
0.151149 0.5 0.15 0.0037545
0 0.5 -0.21882 0.00375
0 0.5 0.21882 0.00375
0.0124871 0.5 -0.21882 0.00375034
0.0124871 0.5 0.21882 0.00375035
0.219992 0.5 -0.0375 0.00375651
0.219992 0.5 0.0375 0.00375651
0 0.5 -0.225 0.00375
0 0.5 0.225 0.00375
0 0.5 -0.23118 0.00375
0 0.5 0.23118 0.00375
0.0124871 0.5 -0.23118 0.00375037
0.0124871 0.5 0.23118 0.00375037
0.219992 0.5 -0.1125 0.00375665
0.219992 0.5 0.1125 0.00375663
0.151149 0.5 -0.225 0.00375476
0.151149 0.5 0.225 0.00375475
0.0757758 0.5 -0.2625 0.00375225
0.0757758 0.5 0.2625 0.00375228
0.288069 0.5 -0.00137326 0.00376113
0.219992 0.5 -0.1875 0.00375696
0.219992 0.5 0.1875 0.00375693
0 0.5 -0.29382 0.00375
0 0.5 0.29382 0.00375
0.0124871 0.5 -0.29382 0.00375037
0.0124871 0.5 0.29382 0.00375037
0.288069 0.5 -0.075 0.00376126
0.288069 0.5 0.075 0.00376121
0 0.5 -0.3 0.00375
0 0.5 0.3 0.00375
0 0.5 -0.30618 0.00375
0 0.5 0.30618 0.00375
0.0124871 0.5 -0.30618 0.0037504
0.0124871 0.5 0.30618 0.00375041
0.288069 0.5 -0.15 0.00376151
0.288069 0.5 0.15 0.00376141
0.151149 0.5 -0.3 0.00375509
0.151149 0.5 0.3 0.00375509
0.219992 0.5 -0.2625 0.00375739
0.219992 0.5 0.2625 0.00375736
0.0757758 0.5 -0.3375 0.00375244
0.0757758 0.5 0.3375 0.00375248
0.350249 0.5 -0.0375 0.00376555
0.350249 0.5 0.0375 0.00376551
0.288069 0.5 -0.225 0.00376191
0.288069 0.5 0.225 0.00376178
0.350249 0.5 -0.1125 0.00376574
0.350249 0.5 0.1125 0.00376561
0 0.5 0.36882 0.00375
0 0.5 -0.36882 0.00375
0.0124871 0.5 -0.36882 0.0037504
0.0124871 0.5 0.36882 0.00375041
0 0.5 -0.375 0.00375
0 0.5 0.375 0.00375
0 0.5 -0.38118 0.00375
0 0.5 0.38118 0.00375
0.0124871 0.5 -0.38118 0.00375044
0.0124871 0.5 0.38118 0.00375044
0.350249 0.5 -0.1875 0.00376609
0.350249 0.5 0.1875 0.0037659
0.219992 0.5 -0.3375 0.00375792
0.219992 0.5 0.3375 0.00375788
0.151149 0.5 -0.375 0.00375547
0.151149 0.5 0.375 0.00375547
0.411736 0.5 -0.00137326 0.00377268
0.288069 0.5 -0.3 0.00376243
0.288069 0.5 0.3 0.00376228
0.411736 0.5 -0.075 0.00377285
0.411736 0.5 0.075 0.00377273
0.0757758 0.5 -0.4125 0.00375264
0.0757758 0.5 0.4125 0.00375269
0.350249 0.5 -0.2625 0.0037666
0.350249 0.5 0.2625 0.00376636
0.411736 0.5 -0.15 0.00377309
0.411736 0.5 0.15 0.00377286
0 0.5 -0.44382 0.00375
0 0.5 0.44382 0.00375
0.0124871 0.5 -0.44382 0.00375044
0.0124871 0.5 0.44382 0.00375044
0 0.5 -0.45 0.00375
0 0.5 0.45 0.00375
0 0.5 -0.45618 0.00375
0 0.5 0.45618 0.00375
0.0124871 0.5 -0.45618 0.00375047
0.0124871 0.5 0.45618 0.00375048
0.219992 0.5 -0.4125 0.0037585
0.219992 0.5 0.4125 0.00375847
0.411736 0.5 0.225 0.00377316
0.411736 0.5 -0.225 0.00377347
0.467897 0.5 0.0375 0.00377946
0.467897 0.5 -0.0375 0.00377954
0.288069 0.5 -0.375 0.00376301
0.288069 0.5 0.375 0.00376285
0.151149 0.5 -0.45 0.00375587
0.151149 0.5 0.45 0.00375589
0.467897 0.5 -0.1125 0.0037797
0.467897 0.5 0.1125 0.00377947
0.350249 0.5 -0.3375 0.00376719
0.350249 0.5 0.3375 0.00376693
0.0757758 0.5 0.4875 0.00375291
0.0757758 0.5 -0.4875 0.00375285
0.467897 0.5 -0.1875 0.00377998
0.467897 0.5 0.1875 0.00377962
0.411736 0.5 -0.3 0.00377394
0.411736 0.5 0.3 0.00377359
0 0.5 -0.51882 0.00375
0 0.5 0.51882 0.00375
0.0124871 0.5 -0.51882 0.00375047
0.0124871 0.5 0.51882 0.00375048
0.523432 0.5 -0.00137326 0.00378899
0 0.5 -0.525 0.00375
0 0.5 0.525 0.00375
0.523432 0.5 -0.075 0.00378916
0.523432 0.5 0.075 0.00378899
0 0.5 -0.53118 0.00375
0 0.5 0.53118 0.00375
0.0124871 0.5 -0.53118 0.0037505
0.0124871 0.5 0.53118 0.00375051
0.288069 0.5 -0.45 0.00376362
0.288069 0.5 0.45 0.00376347
0.219992 0.5 -0.4875 0.00375909
0.219992 0.5 0.4875 0.00375907
0.467897 0.5 -0.2625 0.00378035
0.467897 0.5 0.2625 0.00377993
0.350249 0.5 -0.4125 0.00376783
0.350249 0.5 0.4125 0.00376756
0.523432 0.5 -0.15 0.0037893
0.523432 0.5 0.15 0.00378898
0.151149 0.5 -0.525 0.00375627
0.151149 0.5 0.525 0.0037563
0.411736 0.5 -0.375 0.00377445
0.411736 0.5 0.375 0.00377407
0.0757758 0.5 -0.5625 0.00375306
0.0757758 0.5 0.5625 0.00375312
0.523432 0.5 -0.225 0.00378951
0.523432 0.5 0.225 0.00378907
0.574156 0.5 0.0375 0.00379804
0.574156 0.5 -0.0375 0.00379813
0.467897 0.5 -0.3375 0.00378077
0.467897 0.5 0.3375 0.0037803
0.574156 0.5 -0.1125 0.0037982
0.574156 0.5 0.1125 0.00379792
0 0.5 -0.59382 0.00375
0 0.5 0.59382 0.00375
0.0124871 0.5 -0.59382 0.0037505
0.0124871 0.5 0.59382 0.00375051
0.288069 0.5 -0.525 0.00376421
0.288069 0.5 0.525 0.0037641
0 0.5 -0.6 0.00375
0 0.5 0.6 0.00375
0.350249 0.5 0.4875 0.00376821
0.350249 0.5 -0.4875 0.00376846
0.523432 0.5 -0.3 0.00378973
0.523432 0.5 0.3 0.00378923
0.219992 0.5 -0.5625 0.00375966
0.219992 0.5 0.5625 0.00375967
0.574156 0.5 -0.1875 0.00379828
0.574156 0.5 0.1875 0.00379784
0 0.5 -0.60618 0.00375
0 0.5 0.60618 0.00375
0.0124871 0.5 -0.60618 0.00375053
0.0124871 0.5 0.60618 0.00375055
0.411736 0.5 -0.45 0.00377495
0.411736 0.5 0.45 0.00377458
0.151149 0.5 -0.6 0.00375665
0.151149 0.5 0.6 0.00375669
0.62168 0.5 4.33681e-17 0.00380902
0.467897 0.5 -0.4125 0.00378118
0.467897 0.5 0.4125 0.00378069
0.624316 0.5 0.0729401 0.00380959
0.624316 0.5 -0.075 0.00380976
0.574156 0.5 -0.2625 0.00379839
0.574156 0.5 0.2625 0.00379783
0.0757758 0.5 -0.6375 0.00375324
0.0757758 0.5 0.6375 0.00375331
0.624316 0.5 -0.15 0.00380972
0.624316 0.5 0.15 0.00380938
0.523432 0.5 -0.375 0.00378992
0.523432 0.5 0.375 0.0037894
0.350249 0.5 -0.5625 0.00376905
0.350249 0.5 0.5625 0.00376885
0.624316 0.5 -0.225 0.00380962
0.624316 0.5 0.225 0.00380914
0.288069 0.5 -0.6 0.00376476
0.288069 0.5 0.6 0.00376469
0.574156 0.5 -0.3375 0.0037984
0.574156 0.5 0.3375 0.00379784
0.411736 0.5 0.525 0.00377509
0.411736 0.5 -0.525 0.00377541
0 0.5 0.66882 0.00375
0 0.5 -0.66882 0.00375
0.0124871 0.5 -0.66882 0.00375053
0.0124871 0.5 0.66882 0.00375055
0.67013 0.5 -0.0375 0.00382081
0.67013 0.5 0.0375 0.00382073
0.219992 0.5 -0.6375 0.00376017
0.219992 0.5 0.6375 0.00376022
0 0.5 -0.675 0.00375
0 0.5 0.675 0.00375
0.467897 0.5 -0.4875 0.00378153
0.467897 0.5 0.4875 0.00378108
0.67013 0.5 -0.1125 0.00382071
0.67013 0.5 0.1125 0.00382046
0 0.5 -0.68118 0.00375
0 0.5 0.68118 0.00375
0.0124871 0.5 -0.68118 0.00375056
0.0124871 0.5 0.68118 0.00375057
0.523432 0.5 -0.45 0.00379004
0.523432 0.5 0.45 0.00378955
0.151149 0.5 -0.675 0.00375698
0.151149 0.5 0.675 0.00375704
0.624316 0.5 -0.3 0.00380942
0.624316 0.5 0.3 0.00380889
0.67013 0.5 -0.1875 0.00382049
0.67013 0.5 0.1875 0.00382008
0.574156 0.5 0.4125 0.00379779
0.574156 0.5 -0.4125 0.00379834
0.708171 0.5 3.5345e-17 0.003832
0.0757758 0.5 -0.7125 0.0037534
0.0757758 0.5 0.7125 0.00375347
0.715434 0.5 0.0736267 0.0038337
0.715434 0.5 -0.075 0.0038341
0.67013 0.5 -0.2625 0.00382015
0.67013 0.5 0.2625 0.00381964
0.350249 0.5 -0.6375 0.00376956
0.350249 0.5 0.6375 0.00376943
0.411736 0.5 0.6 0.00377555
0.411736 0.5 -0.6 0.00377578
0.624316 0.5 -0.375 0.00380908
0.624316 0.5 0.375 0.00380858
0.715434 0.5 -0.15 0.00383378
0.715434 0.5 0.15 0.00383352
0.467897 0.5 -0.5625 0.0037818
0.467897 0.5 0.5625 0.00378144
0.288069 0.5 -0.675 0.00376523
0.288069 0.5 0.675 0.00376522
0.523432 0.5 -0.525 0.00379006
0.523432 0.5 0.525 0.00378965
0 0.5 0.74382 0.00375
0 0.5 -0.74382 0.00375
0.0124871 0.5 -0.74382 0.00375056
0.0124871 0.5 0.74382 0.00375057
0.219992 0.5 0.7125 0.0037607
0.219992 0.5 -0.7125 0.00376062
0.715434 0.5 -0.225 0.00383326
0.715434 0.5 0.225 0.00383289
0 0.5 -0.75 0.00375
0 0.5 0.75 0.00375
0.67013 0.5 -0.3375 0.0038196
0.67013 0.5 0.3375 0.00381911
0.574156 0.5 -0.4875 0.00379815
0.574156 0.5 0.4875 0.00379768
0 0.5 0.75618 0.00375
0 0.5 -0.75618 0.00375
0.0124871 0.5 -0.75618 0.00375058
0.0124871 0.5 0.75618 0.00375059
0.756814 0.5 0.0375 0.00384693
0.756814 0.5 -0.0375 0.00384696
0.151149 0.5 0.75 0.00375734
0.151149 0.5 -0.75 0.00375725
0.756814 0.5 -0.1125 0.00384665
0.756814 0.5 0.1125 0.0038465
0.624316 0.5 -0.45 0.00380859
0.624316 0.5 0.45 0.00380817
0.715434 0.5 -0.3 0.0038325
0.715434 0.5 0.3 0.00383211
0.756814 0.5 -0.1875 0.00384604
0.756814 0.5 0.1875 0.00384578
0.67013 0.5 -0.4125 0.00381887
0.67013 0.5 0.4125 0.00381846
0.411736 0.5 -0.675 0.00377605
0.411736 0.5 0.675 0.00377593
0.467897 0.5 -0.6375 0.00378196
0.467897 0.5 0.6375 0.00378171
0.0757758 0.5 -0.7875 0.00375352
0.0757758 0.5 0.7875 0.0037536
0.350249 0.5 -0.7125 0.00376996
0.350249 0.5 0.7125 0.00376993
0.523432 0.5 0.6 0.00378968
0.523432 0.5 -0.6 0.00378995
0.797732 0.5 1.60462e-17 0.0038619
0.756814 0.5 -0.2625 0.00384513
0.756814 0.5 0.2625 0.00384484
0.797732 0.5 0.0736267 0.00386151
0.797732 0.5 -0.075 0.00386166
0.288069 0.5 0.75 0.00376566
0.288069 0.5 -0.75 0.0037656
0.574156 0.5 -0.5625 0.00379782
0.574156 0.5 0.5625 0.00379748
0.715434 0.5 -0.375 0.00383147
0.715434 0.5 0.375 0.00383118
0.797732 0.5 -0.15 0.00386097
0.797732 0.5 0.15 0.0038609
0.624316 0.5 -0.525 0.00380792
0.624316 0.5 0.525 0.00380764
0.219992 0.5 -0.7875 0.00376097
0.219992 0.5 0.7875 0.0037611
0 0.5 -0.81882 0.00375
0 0.5 0.81882 0.00375
0.0124871 0.5 -0.81882 0.00375058
0.0124871 0.5 0.81882 0.00375059
0 0.5 -0.825 0.00375
0 0.5 0.825 0.00375
0.756814 0.5 -0.3375 0.00384393
0.756814 0.5 0.3375 0.00384364
0.67013 0.5 0.4875 0.00381766
0.67013 0.5 -0.4875 0.00381793
0.797732 0.5 0.225 0.00385979
0.797732 0.5 -0.225 0.00385988
0 0.5 -0.83118 0.00375
0 0.5 0.83118 0.00375
0.0124871 0.5 -0.83118 0.0037506
0.0124871 0.5 0.83118 0.00375061
0.835107 0.5 -0.0375 0.00387619
0.835107 0.5 0.0375 0.00387622
0.151149 0.5 -0.825 0.00375746
0.151149 0.5 0.825 0.00375758
0.835107 0.5 0.1125 0.0038756
0.835107 0.5 -0.1125 0.00387555
0.715434 0.5 -0.45 0.00383017
0.715434 0.5 0.45 0.00383006
0.797732 0.5 -0.3 0.00385839
0.797732 0.5 0.3 0.00385834
0.467897 0.5 0.7125 0.0037819
0.467897 0.5 -0.7125 0.00378198
0.523432 0.5 -0.675 0.00378971
0.523432 0.5 0.675 0.0037896
0.411736 0.5 0.75 0.0037762
0.411736 0.5 -0.75 0.00377619
0.835107 0.5 -0.1875 0.0038744
0.835107 0.5 0.1875 0.00387445
0.574156 0.5 0.6375 0.00379718
0.574156 0.5 -0.6375 0.00379734
0.350249 0.5 -0.7875 0.00377024
0.350249 0.5 0.7875 0.00377031
0.756814 0.5 -0.4125 0.00384234
0.756814 0.5 0.4125 0.00384233
0.0757758 0.5 -0.8625 0.00375361
0.0757758 0.5 0.8625 0.00375369
0.624316 0.5 -0.6 0.00380707
0.624316 0.5 0.6 0.00380698
0.872064 0.5 4.81386e-17 0.0038918
0.870122 0.5 0.075 0.00389055
0.288069 0.5 -0.825 0.00376586
0.288069 0.5 0.825 0.003766
0.67013 0.5 -0.5625 0.00381677
0.67013 0.5 0.5625 0.0038167
0.872064 0.5 -0.075 0.0038914
0.835107 0.5 -0.2625 0.00387272
0.835107 0.5 0.2625 0.00387285
0.797732 0.5 -0.375 0.00385651
0.797732 0.5 0.375 0.00385664
0.872064 0.5 0.14794 0.00389059
0.872064 0.5 -0.15 0.00389038
0.715434 0.5 0.525 0.0038287
0.715434 0.5 -0.525 0.0038286
0.219992 0.5 -0.8625 0.00376123
0.219992 0.5 0.8625 0.0037614
0 0.5 -0.89382 0.00375
0 0.5 0.89382 0.00375
0.0124871 0.5 -0.89382 0.0037506
0.0124871 0.5 0.89382 0.00375061
0 0.5 -0.9 0.00375
0 0.5 0.9 0.00375
0.756814 0.5 -0.4875 0.00384043
0.756814 0.5 0.4875 0.00384065
0.872064 0.5 -0.225 0.00388879
0.872064 0.5 0.225 0.0038891
0.835107 0.5 0.3375 0.00387082
0.835107 0.5 -0.3375 0.00387058
0 0.5 -0.90618 0.00375
0 0.5 0.90618 0.00375
0.0124871 0.5 -0.90618 0.0037506
0.0124871 0.5 0.90618 0.00375062
0.905821 0.5 0.0375 0.00390686
0.905821 0.5 -0.0375 0.00390674
0.151149 0.5 -0.9 0.0037576
0.151149 0.5 0.9 0.00375774
0.905821 0.5 -0.1125 0.00390592
0.905821 0.5 0.1125 0.00390621
0.523432 0.5 -0.75 0.00378931
0.523432 0.5 0.75 0.00378941
0.574156 0.5 -0.7125 0.00379669
0.574156 0.5 0.7125 0.00379676
0.797732 0.5 -0.45 0.00385423
0.797732 0.5 0.45 0.00385466
0.467897 0.5 0.7875 0.00378195
0.467897 0.5 -0.7875 0.00378187
0.624316 0.5 -0.675 0.00380605
0.624316 0.5 0.675 0.0038062
0.411736 0.5 -0.825 0.0037762
0.411736 0.5 0.825 0.00377635
0.872064 0.5 -0.3 0.00388664
0.872064 0.5 0.3 0.00388712
0.67013 0.5 0.6375 0.00381558
0.67013 0.5 -0.6375 0.00381539
0.905821 0.5 -0.1875 0.00390447
0.905821 0.5 0.1875 0.00390489
0.350249 0.5 -0.8625 0.0037704
0.350249 0.5 0.8625 0.00377057
0.835107 0.5 -0.4125 0.00386804
0.835107 0.5 0.4125 0.00386857
0.715434 0.5 -0.6 0.00382679
0.715434 0.5 0.6 0.00382716
0.939201 0.5 3.31766e-17 0.00392218
0.0757758 0.5 -0.9375 0.00375366
0.0757758 0.5 0.9375 0.00375375
0.939112 0.5 0.075 0.00392188
0.939201 0.5 -0.075 0.00392164
0.756814 0.5 -0.5625 0.00383823
0.756814 0.5 0.5625 0.00383872
0.905821 0.5 0.2625 0.00390303
0.905821 0.5 -0.2625 0.00390241
0.288069 0.5 -0.9 0.003766
0.288069 0.5 0.9 0.00376621
0.872064 0.5 -0.375 0.00388391
0.872064 0.5 0.375 0.00388463
0.939201 0.5 0.148627 0.0039208
0.939201 0.5 -0.15 0.00392039
0.797732 0.5 -0.525 0.00385159
0.797732 0.5 0.525 0.00385234
0.219992 0.5 -0.9375 0.00376139
0.219992 0.5 0.9375 0.0037616
0.939201 0.5 -0.225 0.00391846
0.939201 0.5 0.225 0.00391925
0.905821 0.5 -0.3375 0.0038997
0.905821 0.5 0.3375 0.0039006
0.835107 0.5 -0.4875 0.00386502
0.835107 0.5 0.4875 0.00386597
0 0.5 -0.96882 0.00375
0 0.5 0.96882 0.00375
0.0124871 0.5 -0.96882 0.0037506
0.0124871 0.5 0.96882 0.00375062
0.96969 0.5 -0.0375 0.00393693
0.96969 0.5 0.0375 0.00393714
0.574156 0.5 0.7875 0.0037962
0.574156 0.5 -0.7875 0.00379589
0 0.5 -0.975 0.00375
0 0.5 0.975 0.00375
0.624316 0.5 -0.75 0.00380484
0.624316 0.5 0.75 0.00380527
0.96969 0.5 -0.1125 0.00393592
0.96969 0.5 0.1125 0.00393648
0.523432 0.5 -0.825 0.00378876
0.523432 0.5 0.825 0.00378908
0.67013 0.5 -0.7125 0.00381383
0.67013 0.5 0.7125 0.00381432
0 0.5 -0.98118 0.00375
0 0.5 0.98118 0.00375
0.467897 0.5 -0.8625 0.0037816
0.467897 0.5 0.8625 0.00378187
0.0124871 0.5 -0.98118 0.00375061
0.0124871 0.5 0.98118 0.00375062
0.872064 0.5 0.45 0.00388168
0.872064 0.5 -0.45 0.00388055
0.715434 0.5 -0.675 0.00382475
0.715434 0.5 0.675 0.00382544
0.939201 0.5 0.3 0.00391696
0.939201 0.5 -0.3 0.00391585
0.151149 0.5 -0.975 0.00375768
0.151149 0.5 0.975 0.00375784
0.96969 0.5 -0.1875 0.00393419
0.96969 0.5 0.1875 0.00393505
0.756814 0.5 0.6375 0.0038366
0.756814 0.5 -0.6375 0.00383576
0.411736 0.5 -0.9 0.00377606
0.411736 0.5 0.9 0.00377636
0.905821 0.5 -0.4125 0.00389618
0.905821 0.5 0.4125 0.00389737
0.995005 0.5 0.0749309 0.00394815
0.797732 0.5 -0.6 0.00384862
0.797732 0.5 0.6 0.00384974
1.00005 0.5 3.26706e-18 0.0039509
0.350249 0.5 0.9375 0.00377069
0.350249 0.5 -0.9375 0.00377041
1.00005 0.5 -0.0749309 0.00395024
0.96969 0.5 -0.2625 0.00393174
0.96969 0.5 0.2625 0.00393296
0.835107 0.5 -0.5625 0.00386162
0.835107 0.5 0.5625 0.00386294
1.00005 0.5 -0.149862 0.00394878
0.939201 0.5 -0.375 0.00391243
0.939201 0.5 0.375 0.00391392
1.00029 0.5 0.148988 0.00394935
0.0757758 0.5 -1.0125 0.00375368
0.0757758 0.5 1.0125 0.00375377
0.288069 0.5 -0.975 0.00376603
0.288069 0.5 0.975 0.00376631
0.872064 0.5 -0.525 0.00387669
0.872064 0.5 0.525 0.00387831
1.00005 0.5 0.224793 0.00394785
1.00005 0.5 -0.224793 0.00394658
0.96969 0.5 0.3375 0.0039302
0.96969 0.5 -0.3375 0.00392854
1.02709 0.5 0.0368226 0.00396625
1.02709 0.5 -0.0368226 0.00396596
0.905821 0.5 0.4875 0.00389371
0.905821 0.5 -0.4875 0.0038919
1.02709 0.5 -0.110468 0.00396482
1.02709 0.5 0.110468 0.00396709
0.67013 0.5 -0.7875 0.00381208
0.67013 0.5 0.7875 0.00381291
0.624316 0.5 -0.825 0.00380348
0.624316 0.5 0.825 0.00380421
0.219992 0.5 -1.0125 0.00376145
0.219992 0.5 1.0125 0.0037617
0.574156 0.5 -0.8625 0.00379492
0.574156 0.5 0.8625 0.00379551
0.715434 0.5 -0.75 0.00382251
0.715434 0.5 0.75 0.00382356
0.756814 0.5 -0.7125 0.00383306
0.756814 0.5 0.7125 0.00383428
0.523432 0.5 0.9 0.00378861
0.523432 0.5 -0.9 0.00378806
0.939201 0.5 0.45 0.00391012
0.939201 0.5 -0.45 0.00390798
1.04168 0.5 0 0.00397393
1.02709 0.5 -0.184113 0.0039629
1.02709 0.5 0.184113 0.00396418
0 0.5 1.04382 0.00375
0 0.5 -1.04382 0.00375
0.0124871 0.5 -1.04382 0.00375061
0.0124871 0.5 1.04382 0.00375062
1.00005 0.5 -0.299723 0.00394364
1.00005 0.5 0.299723 0.00394537
1.04168 0.5 -0.0729162 0.00397318
1.04168 0.5 0.0729162 0.00397379
0.797732 0.5 -0.675 0.00384538
0.797732 0.5 0.675 0.00384691
0.467897 0.5 -0.9375 0.00378117
0.467897 0.5 0.9375 0.00378163
0 0.5 -1.05 0.00375
0 0.5 1.05 0.00375
0.835107 0.5 0.6375 0.00385964
0.835107 0.5 -0.6375 0.00385788
1.04168 0.5 -0.145832 0.0039716
1.04168 0.5 0.145832 0.00397275
0.96969 0.5 -0.4125 0.00392432
0.96969 0.5 0.4125 0.00392648
0 0.5 -1.05618 0.00375
0 0.5 1.05618 0.00375
0.0124871 0.5 -1.05618 0.00375061
0.0124871 0.5 1.05618 0.00375062
1.05694 0.5 -0.0360765 0.00398166
1.05694 0.5 0.0360765 0.003982
0.411736 0.5 0.975 0.00377622
0.411736 0.5 -0.975 0.00377577
0.872064 0.5 -0.6 0.00387241
0.872064 0.5 0.6 0.00387453
1.02709 0.5 -0.257758 0.00396023
1.02709 0.5 0.257758 0.00396199
0.151149 0.5 -1.05 0.00375769
0.151149 0.5 1.05 0.00375787
1.05694 0.5 -0.108229 0.00398043
1.05694 0.5 0.108229 0.00398301
1.04168 0.5 -0.218749 0.00396925
1.04168 0.5 0.218749 0.00397091
0.905821 0.5 -0.5625 0.00388718
0.905821 0.5 0.5625 0.00388955
1.00005 0.5 -0.374654 0.00393979
1.00005 0.5 0.374654 0.00394207
0.350249 0.5 -1.0125 0.00377028
0.350249 0.5 1.0125 0.00377067
1.05694 0.5 -0.180382 0.00397842
1.05694 0.5 0.180382 0.00397995
1.07319 0.5 0.0709442 0.00399111
0.939201 0.5 0.525 0.00390551
0.939201 0.5 -0.525 0.00390269
1.02709 0.5 -0.331404 0.00395676
1.02709 0.5 0.331404 0.0039591
1.08112 0.5 -3.98986e-18 0.00399572
1.04168 0.5 -0.291665 0.00396613
1.04168 0.5 0.291665 0.00396835
1.08112 0.5 -0.0709442 0.00399488
0.96969 0.5 -0.4875 0.00391857
0.96969 0.5 0.4875 0.00392191
1.05694 0.5 -0.252535 0.00397562
1.05694 0.5 0.252535 0.00397773
0.288069 0.5 -1.05 0.00376593
0.288069 0.5 1.05 0.00376629
0.0757758 0.5 -1.0875 0.00375368
0.0757758 0.5 1.0875 0.00375378
1.08112 0.5 -0.141888 0.00399318
1.08145 0.5 0.140165 0.00399409
0.715434 0.5 -0.825 0.0038201
0.715434 0.5 0.825 0.00382153
0.756814 0.5 -0.7875 0.00383017
0.756814 0.5 0.7875 0.0038318
0.67013 0.5 -0.8625 0.00381018
0.67013 0.5 0.8625 0.00381136
0.797732 0.5 0.75 0.00384388
0.797732 0.5 -0.75 0.00384191
0.624316 0.5 -0.9 0.00380195
0.624316 0.5 0.9 0.003803
1.00005 0.5 -0.449585 0.00393461
1.00005 0.5 0.449585 0.00393784
0.835107 0.5 -0.7125 0.00385387
0.835107 0.5 0.7125 0.00385612
0.574156 0.5 -0.9375 0.0037938
0.574156 0.5 0.9375 0.00379465
1.10076 0.5 0.034981 0.00400739
1.10076 0.5 -0.034981 0.00400698
1.08112 0.5 -0.212833 0.00399068
1.08112 0.5 0.212833 0.00399274
0.872064 0.5 -0.675 0.00386776
0.872064 0.5 0.675 0.00387043
1.04168 0.5 -0.364581 0.00396212
1.04168 0.5 0.364581 0.00396498
1.02709 0.5 0.405049 0.00395528
1.02709 0.5 -0.405049 0.00395225
1.05694 0.5 -0.324688 0.00397204
1.05694 0.5 0.324688 0.0039748
1.10076 0.5 -0.104943 0.00400562
1.10076 0.5 0.104943 0.00400685
0.523432 0.5 -0.975 0.00378719
0.523432 0.5 0.975 0.00378797
0.905821 0.5 -0.6375 0.00388197
0.905821 0.5 0.6375 0.00388498
0.219992 0.5 -1.0875 0.00376141
0.219992 0.5 1.0875 0.0037617
1.11376 0.5 0 0.00401502
0.939201 0.5 -0.6 0.00389695
0.939201 0.5 0.6 0.00390028
1.10076 0.5 -0.174905 0.00400344
1.10076 0.5 0.174905 0.00400537
0.467897 0.5 -1.0125 0.00378058
0.467897 0.5 1.0125 0.00378124
1.11376 0.5 -0.0693118 0.0040141
1.11376 0.5 0.0693118 0.00401497
1.08112 0.5 -0.283777 0.00398738
1.08112 0.5 0.283777 0.00399012
0 0.5 1.11882 0.00375
0 0.5 -1.11882 0.00375
0.0124871 0.5 -1.11882 0.00375061
0.0124871 0.5 1.11882 0.00375062
0.96969 0.5 -0.5625 0.00391223
0.96969 0.5 0.5625 0.00391593
1.11376 0.5 -0.138624 0.00401229
1.11376 0.5 0.138624 0.00401385
0 0.5 -1.125 0.00375
0 0.5 1.125 0.00375
1.10076 0.5 0.244867 0.00400307
1.10076 0.5 -0.244867 0.00400047
0.411736 0.5 -1.05 0.00377534
0.411736 0.5 1.05 0.00377594
1.05694 0.5 -0.396841 0.00396746
1.05694 0.5 0.396841 0.00397095
1.00005 0.5 -0.524516 0.00392828
1.00005 0.5 0.524516 0.00393241
1.04168 0.5 -0.437497 0.00395677
1.04168 0.5 0.437497 0.0039607
0 0.5 -1.13118 0.00375
0 0.5 1.13118 0.00375
0.0124871 0.5 -1.13118 0.0037506
0.0124871 0.5 1.13118 0.00375062
1.11376 0.5 -0.207935 0.00400965
1.11376 0.5 0.207935 0.00401207
1.02709 0.5 -0.478694 0.00394616
1.02709 0.5 0.478694 0.0039505
0.151149 0.5 -1.125 0.00375763
0.151149 0.5 1.125 0.00375784
1.08112 0.5 0.354721 0.00398669
1.08112 0.5 -0.354721 0.00398322
1.13882 0.5 0.0340295 0.00403072
1.13882 0.5 -0.0340295 0.00403024
0.350249 0.5 -1.0875 0.00377002
0.350249 0.5 1.0875 0.00377052
1.13882 0.5 -0.102088 0.00402876
1.13882 0.5 0.102088 0.00403109
1.10076 0.5 0.314829 0.00400006
1.10076 0.5 -0.314829 0.00399669
0.756814 0.5 -0.8625 0.00382711
0.756814 0.5 0.8625 0.00382918
0.797732 0.5 -0.825 0.00383826
0.797732 0.5 0.825 0.0038407
1.11376 0.5 -0.277247 0.0040062
1.11376 0.5 0.277247 0.00400938
0.835107 0.5 0.7875 0.0038524
0.835107 0.5 -0.7875 0.00384965
0.715434 0.5 -0.9 0.00381753
0.715434 0.5 0.9 0.00381937
0.872064 0.5 -0.75 0.00386284
0.872064 0.5 0.75 0.00386606
1.13882 0.5 0.170147 0.00402875
1.13882 0.5 -0.170147 0.00402642
0.67013 0.5 -0.9375 0.00380813
0.67013 0.5 0.9375 0.00380966
0.905821 0.5 -0.7125 0.00387639
0.905821 0.5 0.7125 0.00388001
1.05694 0.5 -0.468994 0.00396124
1.05694 0.5 0.468994 0.0039662
0.939201 0.5 -0.675 0.00389083
0.939201 0.5 0.675 0.00389482
0.624316 0.5 -0.975 0.00380027
0.624316 0.5 0.975 0.00380163
1.04168 0.5 -0.510414 0.00395016
1.04168 0.5 0.510414 0.0039552
0.96969 0.5 -0.6375 0.00390557
0.96969 0.5 0.6375 0.00390979
0.288069 0.5 -1.125 0.00376572
0.288069 0.5 1.125 0.00376616
1.16179 0.5 0 0.00404574
1.08112 0.5 -0.425665 0.00397775
1.08112 0.5 0.425665 0.00398238
1.13882 0.5 0.238206 0.00402639
1.13882 0.5 -0.238206 0.00402325
1.16179 0.5 -0.0669104 0.00404468
1.16179 0.5 0.0669104 0.00404819
0.574156 0.5 1.0125 0.00379364
0.574156 0.5 -1.0125 0.0037925
0.0757758 0.5 1.1625 0.00375374
0.0757758 0.5 -1.1625 0.00375364
1.00005 0.5 -0.599447 0.00392143
1.00005 0.5 0.599447 0.00392603
1.10076 0.5 -0.384791 0.00399198
1.10076 0.5 0.384791 0.00399615
1.02709 0.5 -0.552339 0.00393925
1.02709 0.5 0.552339 0.00394427
1.11376 0.5 0.346559 0.00400589
1.11376 0.5 -0.346559 0.00400189
1.16179 0.5 -0.133821 0.00404267
1.16179 0.5 0.133821 0.00404513
0.523432 0.5 -1.05 0.00378617
0.523432 0.5 1.05 0.00378719
1.17463 0.5 -0.0331343 0.00405332
1.17463 0.5 0.0331343 0.00405387
1.17463 0.5 -0.099403 0.0040517
1.17463 0.5 0.099403 0.00405342
1.16179 0.5 -0.200731 0.00403978
1.16179 0.5 0.200731 0.00404285
1.13882 0.5 -0.306265 0.00401925
1.13882 0.5 0.306265 0.00402327
0.219992 0.5 -1.1625 0.00376127
0.219992 0.5 1.1625 0.0037616
0.467897 0.5 -1.0875 0.00377985
0.467897 0.5 1.0875 0.0037807
1.17463 0.5 -0.165672 0.0040492
1.17463 0.5 0.165672 0.00405192
1.05694 0.5 0.541147 0.00395998
1.05694 0.5 -0.541147 0.00395413
1.18772 0.5 0 0.00406259
1.11376 0.5 -0.415871 0.00399632
1.11376 0.5 0.415871 0.00400153
1.18772 0.5 -0.065614 0.00406146
1.18772 0.5 0.065614 0.00406263
1.08112 0.5 -0.49661 0.00397096
1.08112 0.5 0.49661 0.00397691
1.10076 0.5 -0.454752 0.00398564
1.10076 0.5 0.454752 0.00399139
1.18534 0.5 0.118202 0.00406168
1.16179 0.5 -0.267642 0.00403605
1.16179 0.5 0.267642 0.00404004
0 0.5 -1.19382 0.00375
0 0.5 1.19382 0.00375
1.04168 0.5 -0.58333 0.0039429
1.04168 0.5 0.58333 0.00394853
0.0124871 0.5 -1.19382 0.0037506
0.0124871 0.5 1.19382 0.00375062
1.18772 0.5 -0.131228 0.00405933
1.17463 0.5 -0.23194 0.00404582
1.17463 0.5 0.23194 0.00404948
0.411736 0.5 -1.125 0.00377477
0.411736 0.5 1.125 0.00377553
1.13882 0.5 -0.374324 0.00401433
1.13882 0.5 0.374324 0.00401928
0 0.5 -1.2 0.00375
0 0.5 1.2 0.00375
0.905821 0.5 -0.7875 0.00387061
0.905821 0.5 0.7875 0.00387481
0.872064 0.5 -0.825 0.00385775
0.872064 0.5 0.825 0.00386151
0.835107 0.5 0.8625 0.00384854
0.835107 0.5 -0.8625 0.00384528
0.939201 0.5 -0.75 0.00388439
0.939201 0.5 0.75 0.00388909
0.797732 0.5 -0.9 0.00383446
0.797732 0.5 0.9 0.00383738
1.02709 0.5 -0.625985 0.00393183
1.02709 0.5 0.625985 0.00393733
0.96969 0.5 -0.7125 0.00389858
0.96969 0.5 0.7125 0.00390368
1.18772 0.5 -0.196842 0.00405631
1.18772 0.5 0.196842 0.0040597
0.756814 0.5 -0.9375 0.00382392
0.756814 0.5 0.9375 0.00382643
0 0.5 -1.20618 0.00375
0 0.5 1.20618 0.00375
1.00005 0.5 -0.674378 0.00391406
1.00005 0.5 0.674378 0.00391938
0.0124871 0.5 -1.20618 0.00375059
0.0124871 0.5 1.20618 0.00375061
1.16179 0.5 -0.334552 0.00403145
1.16179 0.5 0.334552 0.00403641
0.715434 0.5 -0.975 0.00381482
0.715434 0.5 0.975 0.00381706
0.151149 0.5 -1.2 0.00375751
0.151149 0.5 1.2 0.00375773
1.20942 0.5 -0.0322645 0.00407744
1.20942 0.5 0.0322645 0.00407835
1.17463 0.5 -0.298209 0.0040416
1.17463 0.5 0.298209 0.00404625
1.20942 0.5 -0.0967935 0.00407566
1.20942 0.5 0.0967935 0.00407765
0.350249 0.5 -1.1625 0.00376963
0.350249 0.5 1.1625 0.00377025
0.67013 0.5 1.0125 0.00380781
0.67013 0.5 -1.0125 0.00380593
1.11376 0.5 -0.485183 0.0039894
1.11376 0.5 0.485183 0.00399607
1.18772 0.5 -0.262456 0.00405241
1.18772 0.5 0.262456 0.00405682
1.10076 0.5 0.524714 0.00398524
1.10076 0.5 -0.524714 0.00397827
1.20942 0.5 -0.161322 0.00407297
1.20942 0.5 0.161322 0.00407613
1.08112 0.5 0.567554 0.0039702
1.08112 0.5 -0.567554 0.00396346
0.624316 0.5 -1.05 0.00379845
0.624316 0.5 1.05 0.00380013
1.13882 0.5 -0.442383 0.0040079
1.13882 0.5 0.442383 0.00401443
1.05694 0.5 0.6133 0.00395285
1.05694 0.5 -0.6133 0.00394653
1.16179 0.5 -0.401463 0.00402566
1.16179 0.5 0.401463 0.00403192
0.574156 0.5 1.0875 0.00379249
0.574156 0.5 -1.0875 0.00379109
1.17463 0.5 -0.364478 0.0040365
1.17463 0.5 0.364478 0.00404213
1.20942 0.5 0.225851 0.00407362
1.20942 0.5 -0.225851 0.00406935
1.23036 0.5 1.15648e-18 0.00409362
1.2294 0.5 0.0634819 0.0040933
1.04168 0.5 -0.656246 0.00393497
1.04168 0.5 0.656246 0.00394129
1.23036 0.5 -0.0634819 0.00409233
1.18772 0.5 0.32807 0.00405308
1.18772 0.5 -0.32807 0.00404765
0.288069 0.5 1.2 0.00376591
0.288069 0.5 -1.2 0.0037654
1.23036 0.5 -0.126964 0.00408996
1.23036 0.5 0.126964 0.00409283
0.0757758 0.5 -1.2375 0.00375357
0.0757758 0.5 1.2375 0.00375367
0.523432 0.5 -1.125 0.00378504
0.523432 0.5 1.125 0.00378628
1.02709 0.5 0.69963 0.00393003
1.02709 0.5 -0.69963 0.0039236
1.24275 0.5 -0.0314313 0.00410216
1.24275 0.5 0.0314313 0.00410286
1.20942 0.5 -0.29038 0.00406487
1.20942 0.5 0.29038 0.00407024
1.11376 0.5 -0.554494 0.00398171
1.11376 0.5 0.554494 0.00398936
1.23036 0.5 -0.190446 0.00408665
1.23036 0.5 0.190446 0.00409079
1.24275 0.5 -0.0942939 0.00410022
1.24275 0.5 0.0942939 0.00410249
1.13882 0.5 -0.510442 0.00400033
1.13882 0.5 0.510442 0.00400834
0.96969 0.5 0.7875 0.00389705
0.96969 0.5 -0.7875 0.00389125
1.00005 0.5 0.749309 0.00391236
1.00005 0.5 -0.749309 0.00390616
0.939201 0.5 -0.825 0.00387777
0.939201 0.5 0.825 0.00388308
0.905821 0.5 -0.8625 0.00386469
0.905821 0.5 0.8625 0.00386946
1.17463 0.5 0.430746 0.00403719
1.17463 0.5 -0.430746 0.00402991
1.10076 0.5 0.594676 0.00397798
1.10076 0.5 -0.594676 0.00397042
1.18772 0.5 -0.393684 0.00404172
1.18772 0.5 0.393684 0.00404849
1.24275 0.5 -0.157157 0.00409731
1.24275 0.5 0.157157 0.00410096
1.16179 0.5 -0.468373 0.0040185
1.16179 0.5 0.468373 0.00402642
0.467897 0.5 -1.1625 0.00377901
0.467897 0.5 1.1625 0.00378005
0.872064 0.5 -0.9 0.00385252
0.872064 0.5 0.9 0.00385682
1.25401 0.5 0 0.00411078
0.835107 0.5 -0.9375 0.00384076
0.835107 0.5 0.9375 0.00384454
1.25401 0.5 0.0622994 0.00411111
1.25401 0.5 -0.0622994 0.00410941
1.08112 0.5 0.638498 0.00396273
1.08112 0.5 -0.638498 0.00395531
1.23036 0.5 -0.253928 0.0040824
1.23036 0.5 0.253928 0.00408776
0.219992 0.5 -1.2375 0.00376104
0.219992 0.5 1.2375 0.00376139
1.2531 0.5 0.121964 0.00411003
1.05694 0.5 -0.685453 0.00393808
1.05694 0.5 0.685453 0.00394531
0.797732 0.5 -0.975 0.00383053
0.797732 0.5 0.975 0.00383394
1.25401 0.5 -0.124599 0.00410691
1.20942 0.5 -0.354909 0.00405951
1.20942 0.5 0.354909 0.00406596
1.24275 0.5 -0.220019 0.00409344
1.24275 0.5 0.220019 0.00409834
0.756814 0.5 -1.0125 0.00382057
0.756814 0.5 1.0125 0.00382354
1.25401 0.5 -0.186898 0.00410343
1.25401 0.5 0.186898 0.00410794
0.411736 0.5 -1.2 0.0037741
0.411736 0.5 1.2 0.00377502
0 0.5 -1.26882 0.00375
0 0.5 1.26882 0.00375
0.0124871 0.5 -1.26882 0.00375059
0.0124871 0.5 1.26882 0.00375061
0.715434 0.5 -1.05 0.00381199
0.715434 0.5 1.05 0.00381461
1.23036 0.5 -0.317409 0.00407728
1.23036 0.5 0.317409 0.00408383
1.04168 0.5 -0.729162 0.00392633
1.04168 0.5 0.729162 0.00393359
1.18772 0.5 -0.459298 0.00403443
1.18772 0.5 0.459298 0.00404292
1.24275 0.5 0.282882 0.0040948
1.24275 0.5 -0.282882 0.00408866
0 0.5 -1.275 0.00375
0 0.5 1.275 0.00375
1.27472 0.5 -0.0306319 0.00412768
1.27472 0.5 0.0306319 0.00412848
1.17463 0.5 -0.497015 0.00402208
1.17463 0.5 0.497015 0.00403109
1.11376 0.5 0.623806 0.00398177
1.11376 0.5 -0.623806 0.00397338
1.13882 0.5 -0.578501 0.0039922
1.13882 0.5 0.578501 0.00400105
0.67013 0.5 -1.0875 0.00380361
0.67013 0.5 1.0875 0.00380585
1.27472 0.5 0.0918957 0.00412498
1.27472 0.5 -0.0918957 0.00412557
1.25401 0.5 -0.249198 0.004099
1.25401 0.5 0.249198 0.00410482
1.16179 0.5 -0.535283 0.00401046
1.16179 0.5 0.535283 0.00401971
1.20942 0.5 0.419438 0.00406085
1.20942 0.5 -0.419438 0.00405273
0 0.5 -1.28118 0.00375
0 0.5 1.28118 0.00375
0.0124871 0.5 -1.28118 0.00375058
0.0124871 0.5 1.28118 0.00375059
1.27472 0.5 -0.15316 0.00412244
1.27472 0.5 0.15316 0.0041266
0.151149 0.5 -1.275 0.00375733
0.151149 0.5 1.275 0.00375756
1.02709 0.5 -0.773275 0.00391484