# kMean  POINT_DATA 63140
# x  y  z  kMean
0 0.1 0 0.00375
0 0.1 -0.0179898 0.00375
0 0.1 0.0179898 0.00375
0.0363518 0.1 -0.0179898 0.00374802
0.0363518 0.1 0.0179898 0.00374799
0 0.1 -0.0570102 0.00375
0 0.1 0.0570102 0.00375
0.0363518 0.1 0.0570102 0.00374799
0.0363518 0.1 -0.0570102 0.00374802
0 0.1 -0.075 0.00375
0 0.1 0.075 0.00375
0.0757758 0.1 -0.0375 0.00374563
0.0757758 0.1 0.0375 0.00374556
0 0.1 -0.0929898 0.00375
0 0.1 0.0929898 0.00375
0.0363518 0.1 -0.0929898 0.00374825
0.0363518 0.1 0.0929898 0.00374815
0 0.1 -0.13201 0.00375
0 0.1 0.13201 0.00375
0.0757758 0.1 -0.1125 0.0037461
0.0757758 0.1 0.1125 0.0037459
0.0363518 0.1 -0.13201 0.00374825
0.0363518 0.1 0.13201 0.00374815
0 0.1 -0.15 0.00375
0 0.1 0.15 0.00375
0.150379 0.1 -4.33681e-19 0.00373987
0 0.1 -0.16799 0.00375
0 0.1 0.16799 0.00375
0.150379 0.1 -0.075 0.00374044
0.150379 0.1 0.075 0.00374009
0.0363518 0.1 -0.16799 0.00374853
0.0363518 0.1 0.16799 0.00374844
0.0757758 0.1 -0.1875 0.00374668
0.0757758 0.1 0.1875 0.0037465
0 0.1 -0.20701 0.00375
0 0.1 0.20701 0.00375
0.0363518 0.1 -0.20701 0.00374853
0.0363518 0.1 0.20701 0.00374844
0.150379 0.1 -0.15 0.00374136
0.150379 0.1 0.15 0.00374091
0.219992 0.1 -0.0375 0.00373457
0.219992 0.1 0.0375 0.00373421
0 0.1 -0.225 0.00375
0 0.1 0.225 0.00375
0 0.1 -0.24299 0.00375
0 0.1 0.24299 0.00375
0.0363518 0.1 0.24299 0.00374875
0.0363518 0.1 -0.24299 0.00374878
0.219992 0.1 -0.1125 0.00373595
0.219992 0.1 0.1125 0.00373519
0.150379 0.1 0.225 0.00374187
0.150379 0.1 -0.225 0.00374221
0.0757758 0.1 0.2625 0.00374714
0.0757758 0.1 -0.2625 0.00374719
0 0.1 -0.28201 0.00375
0 0.1 0.28201 0.00375
0.0363518 0.1 -0.28201 0.00374878
0.0363518 0.1 0.28201 0.00374875
0.287374 0.1 0 0.00372815
0.219992 0.1 -0.1875 0.00373715
0.219992 0.1 0.1875 0.00373653
0.287374 0.1 -0.075 0.00372915
0.287374 0.1 0.075 0.00372837
0 0.1 -0.3 0.00375
0 0.1 0.3 0.00375
0 0.1 -0.31799 0.00375
0 0.1 0.31799 0.00375
0.0363518 0.1 -0.31799 0.00374901
0.0363518 0.1 0.31799 0.00374901
0.287374 0.1 -0.15 0.00373061
0.287374 0.1 0.15 0.00372958
0.150379 0.1 -0.3 0.00374301
0.150379 0.1 0.3 0.00374278
0.219992 0.1 -0.2625 0.00373824
0.219992 0.1 0.2625 0.00373775
0.0757758 0.1 -0.3375 0.00374768
0.0757758 0.1 0.3375 0.00374768
0.350249 0.1 -0.0375 0.00372247
0.350249 0.1 0.0375 0.00372185
0 0.1 0.35701 0.00375
0 0.1 -0.35701 0.00375
0.0363518 0.1 -0.35701 0.00374901
0.0363518 0.1 0.35701 0.00374901
0.287374 0.1 -0.225 0.00373192
0.287374 0.1 0.225 0.00373102
0.350249 0.1 0.1125 0.00372274
0.350249 0.1 -0.1125 0.00372412
0 0.1 -0.375 0.00375
0 0.1 0.375 0.00375
0 0.1 -0.39299 0.00375
0 0.1 0.39299 0.00375
0.0363518 0.1 -0.39299 0.00374926
0.0363518 0.1 0.39299 0.00374927
0.350249 0.1 -0.1875 0.00372571
0.350249 0.1 0.1875 0.00372436
0.219992 0.1 -0.3375 0.00373932
0.219992 0.1 0.3375 0.00373898
0.150379 0.1 -0.375 0.00374365
0.150379 0.1 0.375 0.00374356
0.411108 0.1 -2.21177e-17 0.00371774
0.287374 0.1 -0.3 0.00373308
0.287374 0.1 0.3 0.00373239
0.411108 0.1 0.075 0.00371776
0.411108 0.1 -0.075 0.00371891
0.0757758 0.1 -0.4125 0.00374819
0.0757758 0.1 0.4125 0.0037482
0 0.1 -0.43201 0.00375
0 0.1 0.43201 0.00375
0.0363518 0.1 -0.43201 0.00374926
0.0363518 0.1 0.43201 0.00374927
0.411108 0.1 -0.15 0.00372055
0.411108 0.1 0.15 0.0037189
0.350249 0.1 -0.2625 0.00372705
0.350249 0.1 0.2625 0.00372595
0 0.1 -0.45 0.00375
0 0.1 0.45 0.00375
0.219992 0.1 -0.4125 0.00373979
0.219992 0.1 0.4125 0.00373975
0 0.1 -0.46799 0.00375
0 0.1 0.46799 0.00375
0.411108 0.1 -0.225 0.00372203
0.411108 0.1 0.225 0.00372048
0.467897 0.1 0.0375 0.00371308
0.467897 0.1 -0.0375 0.00371386
0.0363518 0.1 -0.46799 0.00374953
0.0363518 0.1 0.46799 0.00374953
0.287374 0.1 -0.375 0.00373395
0.287374 0.1 0.375 0.0037335
0.150379 0.1 -0.45 0.00374418
0.150379 0.1 0.45 0.00374411
0.467897 0.1 -0.1125 0.0037155
0.467897 0.1 0.1125 0.00371367
0.350249 0.1 0.3375 0.00372735
0.350249 0.1 -0.3375 0.00372819
0.0757758 0.1 -0.4875 0.00374874
0.0757758 0.1 0.4875 0.00374874
0.467897 0.1 -0.1875 0.00371715
0.467897 0.1 0.1875 0.00371514
0 0.1 -0.50701 0.00375
0 0.1 0.50701 0.00375
0.0363518 0.1 -0.50701 0.00374953
0.0363518 0.1 0.50701 0.00374953
0.411108 0.1 -0.3 0.00372324
0.411108 0.1 0.3 0.00372198
0.522864 0.1 -2.08167e-17 0.00371139
0 0.1 -0.525 0.00375
0 0.1 0.525 0.00375
0.522864 0.1 -0.075 0.00371257
0.522864 0.1 0.075 0.00371118
0.287374 0.1 -0.45 0.00373457
0.287374 0.1 0.45 0.00373422
0.219992 0.1 -0.4875 0.00374037
0.219992 0.1 0.4875 0.00374015
0.467897 0.1 0.2625 0.00371677
0.467897 0.1 -0.2625 0.00371849
0.350249 0.1 -0.4125 0.00372894
0.350249 0.1 0.4125 0.00372838
0 0.1 -0.54299 0.00375
0 0.1 0.54299 0.00375
0.522864 0.1 0.15 0.00371202
0.522864 0.1 -0.15 0.00371412
0.0363518 0.1 -0.54299 0.00374981
0.0363518 0.1 0.54299 0.0037498
0.150379 0.1 -0.525 0.00374483
0.150379 0.1 0.525 0.00374469
0.411108 0.1 -0.375 0.00372413
0.411108 0.1 0.375 0.00372317
0.0757758 0.1 -0.5625 0.00374932
0.0757758 0.1 0.5625 0.00374931
0.522864 0.1 -0.225 0.00371551
0.522864 0.1 0.225 0.00371339
0.574156 0.1 -0.0375 0.00370976
0.574156 0.1 0.0375 0.00370889
0.467897 0.1 -0.3375 0.00371952
0.467897 0.1 0.3375 0.00371814
0 0.1 -0.58201 0.00375
0 0.1 0.58201 0.00375
0.0363518 0.1 -0.58201 0.00374981
0.0363518 0.1 0.58201 0.0037498
0.574156 0.1 -0.1125 0.00371123
0.574156 0.1 0.1125 0.00370913
0.287374 0.1 -0.525 0.00373532
0.287374 0.1 0.525 0.00373486
0 0.1 -0.6 0.00375
0 0.1 0.6 0.00375
0.350249 0.1 -0.4875 0.00372963
0.350249 0.1 0.4875 0.00372903
0.522864 0.1 0.3 0.00371475
0.522864 0.1 -0.3 0.00371653
0.219992 0.1 -0.5625 0.00374125
0.219992 0.1 0.5625 0.00374094
0.574156 0.1 -0.1875 0.00371265
0.574156 0.1 0.1875 0.00371021
0.411108 0.1 -0.45 0.00372477
0.411108 0.1 0.45 0.00372397
0 0.1 -0.61799 0.00375
0 0.1 0.61799 0.00375
0.150379 0.1 -0.6 0.00374555
0.150379 0.1 0.6 0.00374539
0.0363518 0.1 -0.61799 0.00375008
0.0363518 0.1 0.61799 0.00375008
0.467897 0.1 0.4125 0.00371912
0.467897 0.1 -0.4125 0.00372016
0.623803 0.1 1.04083e-17 0.00370947
0.623803 0.1 -0.075 0.00371058
0.623803 0.1 0.075 0.00370906
0.574156 0.1 -0.2625 0.00371379
0.574156 0.1 0.2625 0.00371154
0.623803 0.1 -0.15 0.00371187
0.623803 0.1 0.15 0.00370951
0.0757758 0.1 0.6375 0.00374987
0.0757758 0.1 -0.6375 0.00374988
0.522864 0.1 -0.375 0.00371714
0.522864 0.1 0.375 0.00371577
0 0.1 0.65701 0.00375
0 0.1 -0.65701 0.00375
0.0363518 0.1 0.65701 0.00375008
0.0363518 0.1 -0.65701 0.00375008
0.350249 0.1 -0.5625 0.00373047
0.350249 0.1 0.5625 0.00372976
0.623803 0.1 -0.225 0.00371292
0.623803 0.1 0.225 0.00371046
0.287374 0.1 -0.6 0.00373617
0.287374 0.1 0.6 0.00373566
0.574156 0.1 -0.3375 0.0037144
0.574156 0.1 0.3375 0.00371264
0.411108 0.1 -0.525 0.00372541
0.411108 0.1 0.525 0.00372456
0.67013 0.1 -0.0375 0.00370998
0.67013 0.1 0.0375 0.00370908
0.219992 0.1 0.6375 0.00374181
0.219992 0.1 -0.6375 0.0037421
0 0.1 -0.675 0.00375
0 0.1 0.675 0.00375
0.467897 0.1 -0.4875 0.00372065
0.467897 0.1 0.4875 0.00371967
0.67013 0.1 -0.1125 0.00371119
0.67013 0.1 0.1125 0.00370898
0.522864 0.1 -0.45 0.00371744
0.522864 0.1 0.45 0.00371633
0.150379 0.1 0.675 0.00374608
0.150379 0.1 -0.675 0.00374621
0.623803 0.1 0.3 0.00371141
0.623803 0.1 -0.3 0.00371352
0 0.1 -0.69299 0.00375
0 0.1 0.69299 0.00375
0.0363518 0.1 0.69299 0.00375034
0.0363518 0.1 -0.69299 0.00375033
0.67013 0.1 0.1875 0.00370958
0.67013 0.1 -0.1875 0.00371224
0.574156 0.1 -0.4125 0.00371458
0.574156 0.1 0.4125 0.00371327
0.714971 0.1 -1.82146e-17 0.0037117
0.0757758 0.1 0.7125 0.0037504
0.0757758 0.1 -0.7125 0.00375039
0.714971 0.1 -0.075 0.00371267
0.714971 0.1 0.075 0.00371113
0.67013 0.1 -0.2625 0.00371288
0.67013 0.1 0.2625 0.00371039
0.411108 0.1 -0.6 0.0037261
0.411108 0.1 0.6 0.0037252
0.350249 0.1 -0.6375 0.00373131
0.350249 0.1 0.6375 0.0037306
0.623803 0.1 -0.375 0.00371359
0.623803 0.1 0.375 0.003712
0.714971 0.1 0.15 0.00371116
0.714971 0.1 -0.15 0.00371359
0.467897 0.1 -0.5625 0.0037212
0.467897 0.1 0.5625 0.00372011
0 0.1 -0.73201 0.00375
0 0.1 0.73201 0.00375
0.0363518 0.1 -0.73201 0.00375033
0.0363518 0.1 0.73201 0.00375034
0.287374 0.1 0.675 0.0037365
0.287374 0.1 -0.675 0.00373697
0.522864 0.1 -0.525 0.00371763
0.522864 0.1 0.525 0.00371654
0.219992 0.1 0.7125 0.00374261
0.219992 0.1 -0.7125 0.00374283
0.714971 0.1 0.225 0.00371157
0.714971 0.1 -0.225 0.00371414
0 0.1 0.75 0.00375
0 0.1 -0.75 0.00375
0.67013 0.1 -0.3375 0.00371289
0.67013 0.1 0.3375 0.00371096
0.574156 0.1 0.4875 0.00371337
0.574156 0.1 -0.4875 0.00371448
0.756814 0.1 -0.0375 0.00371413
0.756814 0.1 0.0375 0.00371326
0.150379 0.1 0.746002 0.00374674
0.150379 0.1 -0.75 0.0037468
0.756814 0.1 -0.1125 0.00371502
0.756814 0.1 0.1125 0.00371285
0 0.1 0.76799 0.00375
0 0.1 -0.76799 0.00375
0.0363518 0.1 0.76799 0.00375056
0.0363518 0.1 -0.76799 0.00375054
0.623803 0.1 -0.45 0.00371325
0.623803 0.1 0.45 0.00371206
0.714971 0.1 0.3 0.00371192
0.714971 0.1 -0.3 0.00371414
0.756814 0.1 -0.1875 0.00371557
0.756814 0.1 0.1875 0.00371292
0.67013 0.1 -0.4125 0.00371238
0.67013 0.1 0.4125 0.00371104
0.411108 0.1 -0.675 0.00372675
0.411108 0.1 0.675 0.00372589
0.467897 0.1 -0.6375 0.00372175
0.467897 0.1 0.6375 0.00372064
0.0757758 0.1 -0.7875 0.00375084
0.0757758 0.1 0.7875 0.00375086
0.350249 0.1 0.7125 0.00373144
0.350249 0.1 -0.7125 0.00373207
0.522864 0.1 -0.6 0.00371779
0.522864 0.1 0.6 0.00371667
0.797314 0.1 -2.86229e-17 0.00371765
0.287374 0.1 0.746002 0.00373734
0.797314 0.1 -0.075 0.00371842
0.797314 0.1 0.075 0.00371695
0.756814 0.1 0.2625 0.0037131
0.756814 0.1 -0.2625 0.00371556
0.287374 0.1 -0.75 0.00373767
0.574156 0.1 -0.5625 0.0037143
0.574156 0.1 0.5625 0.00371316
0 0.1 0.80701 0.00375
0 0.1 -0.80701 0.00375
0.714971 0.1 -0.375 0.00371348
0.714971 0.1 0.375 0.0037119
0.0363518 0.1 -0.80701 0.00375054
0.0363518 0.1 0.80701 0.00375056
0.797314 0.1 -0.15 0.00371891
0.797314 0.1 0.15 0.00371657
0.623803 0.1 -0.525 0.00371268
0.623803 0.1 0.525 0.00371164
0.219992 0.1 0.7875 0.0037433
0.219992 0.1 -0.7875 0.00374348
0.149792 0.1 0.80701 0.00374714
0 0.1 0.825 0.00375
0 0.1 -0.825 0.00375
0.797314 0.1 -0.225 0.00371885
0.797314 0.1 0.225 0.00371639
0.756814 0.1 -0.3375 0.00371492
0.756814 0.1 0.3375 0.00371296
0.67013 0.1 -0.4875 0.00371149
0.67013 0.1 0.4875 0.00371049
0.835107 0.1 -0.0375 0.00372175
0.835107 0.1 0.0375 0.00372095
0.150379 0.1 -0.825 0.00374731
0.835107 0.1 -0.1125 0.00372228
0.835107 0.1 0.1125 0.00372026
0 0.1 0.84299 0.00375
0 0.1 -0.84299 0.00375
0.0363518 0.1 0.84299 0.00375075
0.0363518 0.1 -0.84299 0.00375073
0.714971 0.1 -0.45 0.00371229
0.714971 0.1 0.45 0.00371129
0.411108 0.1 0.746002 0.0037266
0.797314 0.1 -0.3 0.00371812
0.797314 0.1 0.3 0.00371604
0.467897 0.1 -0.7125 0.00372219
0.467897 0.1 0.7125 0.00372121
0.522864 0.1 0.675 0.00371683
0.522864 0.1 -0.675 0.00371791
0.411108 0.1 -0.75 0.00372727
0.835107 0.1 -0.1875 0.00372227
0.835107 0.1 0.1875 0.00371979
0.286844 0.1 0.80701 0.00373782
0.574156 0.1 0.6375 0.00371292
0.574156 0.1 -0.6375 0.00371408
0.350249 0.1 -0.7875 0.00373272
0.350249 0.1 0.7875 0.0037322
0.756814 0.1 0.4125 0.00371239
0.756814 0.1 -0.4125 0.00371348
0.623803 0.1 -0.6 0.003712
0.623803 0.1 0.6 0.00371097
0.0757758 0.1 0.8625 0.00375126
0.0757758 0.1 -0.8625 0.00375123
0.871687 0.1 -1.73472e-17 0.00372675
0.287374 0.1 -0.825 0.00373826
0.871687 0.1 -0.075 0.00372728
0.871687 0.1 0.075 0.00372597
0.67013 0.1 -0.5625 0.00371041
0.67013 0.1 0.5625 0.00370948
0.835107 0.1 0.2625 0.0037193
0.835107 0.1 -0.2625 0.00372154
0.797314 0.1 -0.375 0.00371662
0.797314 0.1 0.375 0.00371527
0 0.1 0.88201 0.00375
0 0.1 -0.88201 0.00375
0.0363518 0.1 0.88201 0.00375075
0.0363518 0.1 -0.88201 0.00375073
0.871687 0.1 0.15 0.0037252
0.871687 0.1 -0.15 0.00372729
0.714971 0.1 -0.525 0.00371077
0.714971 0.1 0.525 0.00371004
0.219992 0.1 0.8625 0.00374389
0.219992 0.1 -0.8625 0.00374402
0 0.1 0.9 0.00375
0 0.1 -0.9 0.00375
0.756814 0.1 -0.4875 0.00371158
0.756814 0.1 0.4875 0.00371098
0.871687 0.1 -0.225 0.00372658
0.871687 0.1 0.225 0.00372441
0.835107 0.1 -0.3375 0.00372004
0.835107 0.1 0.3375 0.00371838
0.410629 0.1 0.80701 0.00372699
0.905821 0.1 -0.0375 0.00373219
0.905821 0.1 0.0375 0.0037315
0.522864 0.1 0.746002 0.00371706
0.150379 0.1 0.9 0.00374769
0.905821 0.1 0.1125 0.00373057
0.905821 0.1 -0.1125 0.00373233
0.522864 0.1 -0.75 0.0037179
0.574156 0.1 -0.7125 0.0037138
0.574156 0.1 0.7125 0.00371274
0.797314 0.1 -0.45 0.00371443
0.797314 0.1 0.45 0.00371384
0.467897 0.1 0.7875 0.00372167
0.467897 0.1 -0.7875 0.00372244
0.150379 0.1 -0.903998 0.00374761
0 0.1 0.91799 0.00375
0 0.1 -0.91799 0.00375
0.0363518 0.1 0.91799 0.0037509
0.0363518 0.1 -0.91799 0.00375088
0.623803 0.1 -0.675 0.00371124
0.623803 0.1 0.675 0.00371026
0.411108 0.1 -0.825 0.00372765
0.871687 0.1 -0.3 0.00372502
0.871687 0.1 0.3 0.00372332
0.67013 0.1 0.6375 0.00370829
0.67013 0.1 -0.6375 0.0037092
0.905821 0.1 -0.1875 0.00373172
0.905821 0.1 0.1875 0.00372959
0.350249 0.1 0.8625 0.00373284
0.350249 0.1 -0.8625 0.00373324
0.835107 0.1 -0.4125 0.00371766
0.835107 0.1 0.4125 0.00371694
0.714971 0.1 -0.6 0.00370904
0.714971 0.1 0.6 0.00370841
0.93886 0.1 -1.25767e-17 0.00373865
0.0757758 0.1 0.9375 0.00375158
0.0757758 0.1 -0.9375 0.00375153
0.93886 0.1 -0.075 0.00373895
0.93886 0.1 0.075 0.00373782
0.756814 0.1 -0.5625 0.0037094
0.756814 0.1 0.5625 0.00370898
0.905821 0.1 -0.2625 0.00373022
0.905821 0.1 0.2625 0.00372839
0.287374 0.1 0.9 0.0037385
0.287374 0.1 -0.903998 0.00373857
0.871687 0.1 -0.375 0.0037226
0.871687 0.1 0.375 0.00372168
0.93886 0.1 -0.15 0.00373848
0.93886 0.1 0.15 0.0037367
0.797314 0.1 -0.525 0.0037118
0.797314 0.1 0.525 0.00371164
0 0.1 0.95701 0.00375
0 0.1 -0.95701 0.00375
0.0363518 0.1 0.95701 0.0037509
0.0363518 0.1 -0.95701 0.00375088
0.522432 0.1 0.80701 0.00371708
0.219992 0.1 0.9375 0.00374437
0.219992 0.1 -0.9375 0.00374444
0.93886 0.1 -0.225 0.00373711
0.93886 0.1 0.225 0.00373534
0.905821 0.1 -0.3375 0.00372775
0.905821 0.1 0.3375 0.00372665
0.835107 0.1 0.4875 0.00371466
0.835107 0.1 -0.4875 0.00371465
0.96969 0.1 -0.0375 0.00374541
0.96969 0.1 0.0375 0.00374483
0.61613 0.1 0.75 0.00370957
0.574156 0.1 0.7875 0.00371255
0.574156 0.1 -0.7875 0.00371341
0 0.1 0.975 0.00375
0 0.1 -0.975 0.00375
0.623803 0.1 -0.75 0.00371039
0.96969 0.1 -0.1125 0.00374519
0.96969 0.1 0.1125 0.0037437
0.522864 0.1 -0.825 0.00371776
0.67013 0.1 -0.7125 0.00370789
0.67013 0.1 0.7125 0.0037071
0.871687 0.1 -0.45 0.00371937
0.871687 0.1 0.45 0.00371932
0.467897 0.1 -0.8625 0.00372254
0.467897 0.1 0.8625 0.00372198
0.714971 0.1 -0.675 0.00370718
0.714971 0.1 0.675 0.00370663
0.93886 0.1 -0.3 0.00373472
0.93886 0.1 0.3 0.00373351
0.150379 0.1 0.975 0.00374804
0.150379 0.1 -0.975 0.00374804
0.96969 0.1 -0.1875 0.00374403
0.96969 0.1 0.1875 0.00374227
0.411108 0.1 0.9 0.00372749
0.756814 0.1 -0.6375 0.00370702
0.756814 0.1 0.6375 0.00370669
0.990306 0.1 0 0.00374654
0 0.1 0.99299 0.00375
0 0.1 -0.99299 0.00375
0.411108 0.1 -0.903998 0.00372776
0.990306 0.1 -0.075 0.00374666
0.990306 0.1 0.075 0.00374568
0.0363518 0.1 0.99299 0.00375101
0.0363518 0.1 -0.99299 0.00375099
0.905821 0.1 -0.4125 0.00372443
0.905821 0.1 0.4125 0.00372422
0.797314 0.1 -0.6 0.00370888
0.797314 0.1 0.6 0.00370892
0.350249 0.1 0.9375 0.00373335
0.350249 0.1 -0.9375 0.00373363
0.990306 0.1 -0.15 0.00374587
0.990306 0.1 0.15 0.00374433
0.96969 0.1 -0.2625 0.00374181
0.96969 0.1 0.2625 0.00374043
0.835107 0.1 -0.5625 0.00371124
0.835107 0.1 0.5625 0.00371159
0.93886 0.1 -0.375 0.00373135
0.93886 0.1 0.375 0.003731
0.0757758 0.1 1.0125 0.00375181
0.0757758 0.1 -1.0125 0.00375176
0.990306 0.1 -0.225 0.00374404
0.990306 0.1 0.225 0.00374256
0.287374 0.1 -0.975 0.00373906
0.287374 0.1 0.975 0.00373893
0.871687 0.1 -0.525 0.00371551
0.871687 0.1 0.525 0.00371613
1.02149 0.1 -0.0369628 0.00375444
1.02149 0.1 0.0369628 0.00375399
0.96969 0.1 0.3375 0.00373792
0.96969 0.1 -0.3375 0.00373846
1.02149 0.1 -0.110888 0.00375396
1.02149 0.1 0.110888 0.00375276
0.905821 0.1 -0.4875 0.00372025
0.905821 0.1 0.4875 0.00372097
0.623803 0.1 0.819003 0.0037086
0 0.1 1.03201 0.00375
0 0.1 -1.03201 0.00375
0.0363518 0.1 1.03201 0.00375101
0.0363518 0.1 -1.03201 0.00375099
0.67013 0.1 -0.7875 0.00370652
0.67013 0.1 0.7875 0.00370593
0.623803 0.1 -0.825 0.00370945
0.990306 0.1 0.3 0.00374022
0.990306 0.1 -0.3 0.00374109
0.219992 0.1 1.0125 0.00374473
0.219992 0.1 -1.0125 0.00374474
0.574156 0.1 0.8625 0.00371228
0.574156 0.1 -0.8625 0.00371291
0.714971 0.1 -0.75 0.00370521
0.714971 0.1 0.75 0.00370484
1.02149 0.1 -0.184814 0.00375244
1.02149 0.1 0.184814 0.00375102
0.756814 0.1 -0.7125 0.00370449
0.756814 0.1 0.7125 0.00370431
0.522864 0.1 0.9 0.00371703
0.93886 0.1 -0.45 0.00372695
0.93886 0.1 0.45 0.0037277
1.04168 0.1 0 0.00375937
1.04168 0.1 -0.0729162 0.00375931
1.04168 0.1 0.0729162 0.00375853
0.522864 0.1 -0.903998 0.00371743
0.797314 0.1 -0.675 0.00370576
0.797314 0.1 0.675 0.00370595
0.467897 0.1 0.9375 0.00372216
0.467897 0.1 -0.9375 0.00372253
0 0.1 1.05 0.00375
0 0.1 -1.05 0.00375
0.835107 0.1 -0.6375 0.00370757
0.835107 0.1 0.6375 0.00370808
1.04168 0.1 -0.145832 0.00375823
1.04168 0.1 0.145832 0.00375699
1.02149 0.1 -0.25874 0.00374979
1.02149 0.1 0.25874 0.00374874
0.96969 0.1 -0.4125 0.00373416
0.96969 0.1 0.4125 0.00373459
0.411108 0.1 0.975 0.00372776
0.411108 0.1 -0.975 0.00372801
0.871687 0.1 -0.6 0.00371123
0.871687 0.1 0.6 0.00371223
1.0579 0.1 -0.0360525 0.00376417
1.0579 0.1 0.0360525 0.0037638
0.990306 0.1 -0.375 0.00373706
0.990306 0.1 0.375 0.00373711
0.150379 0.1 1.05 0.00374829
0.150379 0.1 -1.05 0.00374826
1.0579 0.1 -0.108157 0.00376355
1.0579 0.1 0.108157 0.00376255
1.04168 0.1 -0.218749 0.00375605
1.04168 0.1 0.218749 0.00375489
0.905821 0.1 -0.5625 0.00371546
0.905821 0.1 0.5625 0.00371682
0 0.1 1.06799 0.00375
0 0.1 -1.06799 0.00375
0.0363518 0.1 -1.06799 0.00375107
0.0363518 0.1 1.06799 0.00375109
0.350249 0.1 1.0125 0.00373371
0.350249 0.1 -1.0125 0.00373388
1.0579 0.1 -0.180262 0.00376186
1.0579 0.1 0.180262 0.00376068
1.02149 0.1 0.332665 0.00374573
1.02149 0.1 -0.332665 0.00374592
0.93886 0.1 -0.525 0.0037217
0.93886 0.1 0.525 0.00372339
1.08012 0.1 4.48137e-18 0.00377047
1.04168 0.1 -0.291665 0.00375267
1.04168 0.1 0.291665 0.00375212
1.08012 0.1 -0.0709942 0.00377029
1.08012 0.1 0.0709942 0.00376966
0.96969 0.1 -0.4875 0.00372837
0.96969 0.1 0.4875 0.00373042
1.0579 0.1 -0.252367 0.003759
1.0579 0.1 0.252367 0.00375819
0.990306 0.1 -0.45 0.00373174
0.990306 0.1 0.45 0.00373314
0.287374 0.1 1.05 0.00373923
0.287374 0.1 -1.05 0.00373928
0.714971 0.1 0.821002 0.00370315
1.08012 0.1 0.141988 0.00376805
1.08012 0.1 -0.141988 0.00376908
0.0757758 0.1 -1.0875 0.00375193
0.0757758 0.1 1.0875 0.00375198
0.714971 0.1 -0.825 0.00370317
0.756814 0.1 -0.7875 0.00370187
0.756814 0.1 0.7875 0.00370193
0.67013 0.1 -0.8625 0.00370505
0.67013 0.1 0.8625 0.00370475
0.797314 0.1 -0.75 0.00370249
0.797314 0.1 0.75 0.0037029
0.623803 0.1 0.9 0.00370809
0.835107 0.1 -0.7125 0.00370371
0.835107 0.1 0.7125 0.00370442
0.623803 0.1 -0.903998 0.00370843
0.574156 0.1 0.9375 0.00371196
0.574156 0.1 -0.9375 0.00371232
1.02149 0.1 -0.406591 0.00374096
1.02149 0.1 0.406591 0.00374182
1.08012 0.1 -0.212982 0.00376673
1.08012 0.1 0.212982 0.0037658
1.10076 0.1 -0.034981 0.00377673
1.10076 0.1 0.034981 0.00377645
0.871687 0.1 -0.675 0.00370667
0.871687 0.1 0.675 0.00370792
1.04168 0.1 -0.364581 0.00374811
1.04168 0.1 0.364581 0.00374851
1.10076 0.1 0.104943 0.00377516
1.10076 0.1 -0.104943 0.00377601
0.522864 0.1 0.975 0.0037169
0.522864 0.1 -0.975 0.00371714
1.0579 0.1 0.324472 0.00375496
1.0579 0.1 -0.324472 0.0037549
0 0.1 1.10701 0.00375
0 0.1 -1.10701 0.00375
0.0363518 0.1 -1.10701 0.00375107
0.0363518 0.1 1.10701 0.00375109
0.905821 0.1 -0.6375 0.00371026
0.905821 0.1 0.6375 0.00371198
0.219992 0.1 -1.0875 0.00374493
0.219992 0.1 1.0875 0.00374497
0.93886 0.1 -0.6 0.003716
0.93886 0.1 0.6 0.00371817
1.10076 0.1 0.174905 0.00377316
1.10076 0.1 -0.174905 0.00377419
0.467897 0.1 1.0125 0.00372221
0.467897 0.1 -1.0125 0.00372241
1.08012 0.1 -0.283977 0.00376316
1.08012 0.1 0.283977 0.00376284
1.11929 0.1 1.20274e-17 0.00378223
0.990306 0.1 -0.525 0.00372547
0.990306 0.1 0.525 0.00372799
0.96969 0.1 -0.5625 0.0037222
0.96969 0.1 0.5625 0.00372478
1.11929 0.1 0.0690357 0.00378146
1.11929 0.1 -0.0690357 0.00378197
0 0.1 1.125 0.00375
0 0.1 -1.125 0.00375
0.411108 0.1 1.05 0.0037279
0.411108 0.1 -1.05 0.00372802
1.10076 0.1 -0.244867 0.00377118
1.10076 0.1 0.244867 0.0037705
1.11929 0.1 -0.138071 0.00378067
1.11929 0.1 0.138071 0.00377981
1.02149 0.1 0.480517 0.00373702
1.02149 0.1 -0.480517 0.00373437
1.0579 0.1 -0.396577 0.0037496
1.0579 0.1 0.396577 0.00375078
1.04168 0.1 -0.437497 0.00374212
1.04168 0.1 0.437497 0.00374401
0.150379 0.1 1.125 0.00374845
0.150379 0.1 -1.125 0.00374839
0.714971 0.1 0.88201 0.00370069
1.08012 0.1 -0.354971 0.00375835
1.08012 0.1 0.354971 0.00375902
1.11929 0.1 0.207107 0.00377744
1.11929 0.1 -0.207107 0.00377822
0.350249 0.1 1.0875 0.00373395
0.350249 0.1 -1.0875 0.003734
0 0.1 -1.14299 0.00375
0 0.1 1.14299 0.00375
0.0363518 0.1 1.14299 0.00375114
0.0363518 0.1 -1.14299 0.00375112
1.14316 0.1 0.0339211 0.00378982
1.14316 0.1 -0.0339211 0.00379002
0.797314 0.1 0.821002 0.00370001
1.10076 0.1 -0.314829 0.0037669
1.10076 0.1 0.314829 0.00376705
0.797314 0.1 -0.825 0.00369912
0.756814 0.1 0.8625 0.00369958
0.756814 0.1 -0.8625 0.0036992
1.14316 0.1 0.101763 0.00378857
1.14316 0.1 -0.101763 0.0037892
0.835107 0.1 -0.7875 0.00369968
0.835107 0.1 0.7875 0.00370069
0.871687 0.1 -0.75 0.00370191
0.871687 0.1 0.75 0.00370345
0.67013 0.1 0.9375 0.00370351
0.67013 0.1 -0.9375 0.0037035
0.905821 0.1 -0.7125 0.00370479
0.905821 0.1 0.7125 0.00370682
0.714971 0.1 -0.903998 0.0037012
1.11929 0.1 -0.276143 0.00377455
1.11929 0.1 0.276143 0.00377434
1.14316 0.1 -0.169605 0.0037873
1.14316 0.1 0.169605 0.00378653
0.93886 0.1 -0.675 0.00370998
0.93886 0.1 0.675 0.00371248
1.15704 0.1 0 0.00379422
1.0579 0.1 -0.468682 0.00374264
1.0579 0.1 0.468682 0.00374567
0.623803 0.1 0.975 0.00370728
0.623803 0.1 -0.975 0.00370732
0.990306 0.1 -0.6 0.00371878
0.990306 0.1 0.6 0.00372181
1.15704 0.1 -0.0671479 0.0037939
1.15704 0.1 0.0671479 0.00379349
1.04168 0.1 -0.510414 0.00373504
1.04168 0.1 0.510414 0.00373828
0.96969 0.1 -0.6375 0.0037156
0.96969 0.1 0.6375 0.00371858
1.08012 0.1 -0.425965 0.00375205
1.08012 0.1 0.425965 0.00375425
0.287374 0.1 1.125 0.0037394
0.287374 0.1 -1.125 0.00373937
1.02149 0.1 -0.554442 0.00372738
1.02149 0.1 0.554442 0.00373072
0.574156 0.1 1.0125 0.00371155
0.574156 0.1 -1.0125 0.00371161
1.15704 0.1 -0.134296 0.00379254
1.15704 0.1 0.134296 0.00379182
0.0757758 0.1 -1.1625 0.00375203
0.0757758 0.1 1.1625 0.00375208
1.10076 0.1 -0.384791 0.00376137
1.10076 0.1 0.384791 0.00376264
1.14316 0.1 -0.237448 0.00378421
1.14316 0.1 0.237448 0.00378376
1.11929 0.1 0.345179 0.00377036
1.11929 0.1 -0.345179 0.00376959
0.522864 0.1 1.05 0.00371665
0.522864 0.1 -1.05 0.00371668
1.15704 0.1 -0.201444 0.00379005
1.15704 0.1 0.201444 0.00378938
1.1744 0.1 -0.0331401 0.00379975
1.1744 0.1 0.0331401 0.00379959
1.1744 0.1 0.0994203 0.00379834
1.1744 0.1 -0.0994203 0.00379892
0 0.1 1.18201 0.00375
0 0.1 -1.18201 0.00375
0.0363518 0.1 -1.18201 0.00375112
0.0363518 0.1 1.18201 0.00375114
0.219992 0.1 -1.1625 0.00374501
0.219992 0.1 1.1625 0.00374509
1.14316 0.1 -0.30529 0.00377986
1.14316 0.1 0.30529 0.0037802
0.467897 0.1 -1.0875 0.00372219
0.467897 0.1 1.0875 0.00372215
1.1744 0.1 -0.1657 0.00379703
1.1744 0.1 0.1657 0.00379626
1.15704 0.1 -0.268592 0.00378634
1.15704 0.1 0.268592 0.00378619
1.0579 0.1 0.540787 0.00373911
1.0579 0.1 -0.540787 0.00373511
0.796996 0.1 0.88201 0.00369758
1.08012 0.1 0.496959 0.00374828
1.08012 0.1 -0.496959 0.00374454
1.10076 0.1 -0.454752 0.00375408
1.10076 0.1 0.454752 0.00375726
1.11929 0.1 -0.414214 0.00376313
1.11929 0.1 0.414214 0.00376541
1.04168 0.1 -0.58333 0.00372749
1.04168 0.1 0.58333 0.0037314
1.1744 0.1 -0.231981 0.00379398
1.1744 0.1 0.231981 0.00379346
0.871687 0.1 0.821002 0.00369914
0.411108 0.1 1.125 0.00372793
0.411108 0.1 -1.125 0.00372791
1.19808 0.1 0 0.00380819
0.990306 0.1 -0.675 0.00371173
0.990306 0.1 0.675 0.00371515
1.02149 0.1 0.628368 0.00372376
1.02149 0.1 -0.628368 0.00371984
1.19808 0.1 0.0650961 0.00380751
1.19808 0.1 -0.0650961 0.00380781
0 0.1 1.2 0.00375
0 0.1 -1.2 0.00375
0.871687 0.1 -0.825 0.00369707
0.905821 0.1 -0.7875 0.00369915
0.905821 0.1 0.7875 0.00370152
0.835107 0.1 0.8625 0.00369698
0.835107 0.1 -0.8625 0.00369556
0.93886 0.1 -0.75 0.00370373
0.93886 0.1 0.75 0.00370658
1.14316 0.1 -0.373132 0.00377416
1.14316 0.1 0.373132 0.00377569
0.96969 0.1 -0.7125 0.00370881
0.96969 0.1 0.7125 0.00371206
1.15704 0.1 -0.33574 0.00378134
1.15704 0.1 0.33574 0.00378213
0.756814 0.1 0.9375 0.00369722
0.756814 0.1 -0.9375 0.00369649
1.19808 0.1 -0.130192 0.00380641
1.19808 0.1 0.130192 0.00380584
0.797314 0.1 -0.903998 0.00369602
0.714971 0.1 -0.975 0.00369898
0.714971 0.1 0.975 0.00369946
0.150379 0.1 -1.2 0.00374845
0.150379 0.1 1.2 0.00374853
1.20938 0.1 -0.0322656 0.00381158
1.20938 0.1 0.0322656 0.00381148
1.1744 0.1 -0.298261 0.00378969
1.1744 0.1 0.298261 0.00378989
1.20938 0.1 -0.0967968 0.0038107
1.20938 0.1 0.0967968 0.00381025
1.19808 0.1 0.195288 0.00380336
1.19808 0.1 -0.195288 0.00380392
0.350249 0.1 -1.1625 0.00373399
0.350249 0.1 1.1625 0.00373404
0.67013 0.1 -1.0125 0.00370204
0.67013 0.1 1.0125 0.00370228
0 0.1 1.21799 0.00375
0 0.1 -1.21799 0.00375
0.0363518 0.1 1.21799 0.00375117
0.0363518 0.1 -1.21799 0.00375114
1.11929 0.1 -0.48325 0.00375529
1.11929 0.1 0.48325 0.00375929
1.10076 0.1 -0.524714 0.00374594
1.10076 0.1 0.524714 0.00375048
1.20938 0.1 0.161328 0.00380815
1.20938 0.1 -0.161328 0.00380879
1.08012 0.1 -0.567953 0.00373649
1.08012 0.1 0.567953 0.00374106
0.623803 0.1 1.05 0.00370642
0.623803 0.1 -1.05 0.00370622
1.0579 0.1 0.612892 0.00373167
1.0579 0.1 -0.612892 0.00372708
1.15704 0.1 -0.402888 0.00377483
1.15704 0.1 0.402888 0.00377707
1.14316 0.1 -0.440974 0.0037668
1.14316 0.1 0.440974 0.00377015
1.19808 0.1 -0.260384 0.00380025
1.19808 0.1 0.260384 0.00380013
1.2267 0.1 0 0.00381842
1.2267 0.1 -0.0636648 0.00381798
1.2267 0.1 0.0636648 0.00381778
1.1744 0.1 -0.364541 0.00378406
1.1744 0.1 0.364541 0.00378537
0.574156 0.1 -1.0875 0.00371083
0.574156 0.1 1.0875 0.00371099
1.20938 0.1 0.225859 0.0038053
1.20938 0.1 -0.225859 0.00380574
1.04168 0.1 -0.656246 0.00371943
1.04168 0.1 0.656246 0.00372392
1.2267 0.1 -0.12733 0.00381653
1.2267 0.1 0.12733 0.0038161
0.287374 0.1 -1.2 0.00373934
0.287374 0.1 1.2 0.00373944
1.02149 0.1 -0.702294 0.00371194
1.02149 0.1 0.702294 0.0037163
0.0757758 0.1 1.2375 0.00375214
0.0757758 0.1 -1.2375 0.00375209
0.871399 0.1 0.88201 0.00369558
0.522864 0.1 -1.125 0.00371616
0.522864 0.1 1.125 0.00371629
1.2267 0.1 -0.190995 0.003814
1.2267 0.1 0.190995 0.00381358
1.19808 0.1 -0.32548 0.0037953
1.19808 0.1 0.32548 0.00379604
0.990306 0.1 -0.75 0.00370442
0.990306 0.1 0.75 0.00370823
1.24275 0.1 -0.0314313 0.003824
1.24275 0.1 0.0314313 0.00382397
1.20938 0.1 -0.29039 0.0038015
1.20938 0.1 0.29039 0.00380167
1.24275 0.1 -0.0942939 0.00382304
1.24275 0.1 0.0942939 0.00382275
0.93886 0.1 0.821002 0.00370085
1.11929 0.1 -0.552286 0.00374683
1.11929 0.1 0.552286 0.00375185
1.15704 0.1 -0.470036 0.0037668
1.15704 0.1 0.470036 0.00377089
0.96969 0.1 -0.7875 0.00370175
0.96969 0.1 0.7875 0.00370545
0.93886 0.1 -0.825 0.0036974
0.905821 0.1 -0.8625 0.00369364
0.905821 0.1 0.8625 0.00369622
1.1744 0.1 -0.430821 0.00377676
1.1744 0.1 0.430821 0.00377983
1.10076 0.1 -0.594676 0.00373749
1.10076 0.1 0.594676 0.00374254
1.14316 0.1 -0.508816 0.0037583
1.14316 0.1 0.508816 0.00376333
1.24275 0.1 -0.157157 0.00382104
1.24275 0.1 0.157157 0.00382061
1.2267 0.1 -0.254659 0.00381032
1.2267 0.1 0.254659 0.00381028
0.467897 0.1 -1.1625 0.00372189
0.467897 0.1 1.1625 0.00372199
1.08012 0.1 -0.638947 0.00372789
1.08012 0.1 0.638947 0.00373312
1.25511 0.1 0 0.00382954
0.835107 0.1 -0.9375 0.00369156
0.835107 0.1 0.9375 0.00369328
0.871687 0.1 -0.903998 0.0036927
1.25511 0.1 -0.0622446 0.003829
1.25511 0.1 0.0622446 0.00382895
0.219992 0.1 -1.2375 0.003745
0.219992 0.1 1.2375 0.00374512
0 0.1 -1.25701 0.00375
0 0.1 1.25701 0.00375
0.0363518 0.1 1.25701 0.00375117
0.0363518 0.1 -1.25701 0.00375114
0.797314 0.1 0.975 0.00369379
0.797314 0.1 -0.975 0.00369244
1.19808 0.1 -0.390576 0.00378887
1.19808 0.1 0.390576 0.00379098
1.0579 0.1 0.684997 0.00372373
1.0579 0.1 -0.684997 0.00371849
1.20938 0.1 -0.354921 0.00379592
1.20938 0.1 0.354921 0.00379714
1.25511 0.1 -0.124489 0.00382743
1.25511 0.1 0.124489 0.00382726
1.24275 0.1 -0.220019 0.00381795
1.24275 0.1 0.220019 0.00381767
0.756814 0.1 -1.0125 0.00369393
0.756814 0.1 1.0125 0.00369487
1.2267 0.1 -0.318324 0.00380539
1.2267 0.1 0.318324 0.00380615
0.411108 0.1 -1.2 0.0037277
0.411108 0.1 1.2 0.00372783
1.25511 0.1 0.186734 0.00382466
1.25511 0.1 -0.186734 0.00382477
0.714971 0.1 1.05 0.00369771
0.714971 0.1 -1.05 0.00369702
1.04168 0.1 -0.729162 0.00371094
1.04168 0.1 0.729162 0.00371598
1.24275 0.1 0.282882 0.00381394
1.24275 0.1 -0.282882 0.0038137
0 0.1 1.275 0.00375
0 0.1 -1.275 0.00375
1.1744 0.1 -0.497101 0.00376805
1.1744 0.1 0.497101 0.00377308
1.15704 0.1 -0.537184 0.00375804
1.15704 0.1 0.537184 0.00376336
1.2756 0.1 -0.0306099 0.00383835
1.2756 0.1 0.0306099 0.00383842
0.67013 0.1 -1.0875 0.0037006
0.67013 0.1 1.0875 0.00370106
1.2756 0.1 0.0918298 0.00383723
1.2756 0.1 -0.0918298 0.00383723
1.25511 0.1 -0.248978 0.00382099
1.25511 0.1 0.248978 0.00382124
1.20938 0.1 0.419453 0.0037916
1.20938 0.1 -0.419453 0.00378872
1.11929 0.1 -0.621321 0.00373781
1.11929 0.1 0.621321 0.00374358
1.14316 0.1 -0.576658 0.00374946
1.14316 0.1 0.576658 0.0037552
1.19808 0.1 -0.455672 0.0037808
1.19808 0.1 0.455672 0.00378484
1.02149 0.1 0.776219 0.00370858
1.02149 0.1 -0.776219 0.00370373
0.150379 0.1 1.275 0.00374853
0.150379 0.1 -1.275 0.00374844
1.2756 0.1 -0.15305 0.00383504
1.2756 0.1 0.15305 0.00383501
1.2267 0.1 -0.381989 0.003799
1.2267 0.1 0.381989 0.00380106
1.10076 0.1 -0.664638 0.00372824
1.10076 0.1 0.664638 0.00373417