# kMean  POINT_DATA 91129
# x  y  z  kMean
0 0 0 0.00565539
0 0.00368111 0 0.00375
0 0.00749587 0 0.00375
0 0.0114491 0 0.00375
0 0.0155459 0 0.00375
0 0.0197915 0 0.00375
0 0.0241911 0 0.00375
0 0.0287506 0 0.00375
0 0.0334755 0 0.00375
0 0.038372 0 0.00375
0 0.0434463 0 0.00375
0 0.0487048 0 0.00375
0 0.0541543 0 0.00375
0 0.0598016 0 0.00375
0 0.0656539 0 0.00375
0 0.0717187 0 0.00375
0.0757758 0.00184056 0 0.00994609
0.0757758 0.00558849 3.46945e-18 0.00345217
0.0757758 0.0094725 0 0.00306651
0.0757758 0.0134975 0 0.00343422
0.0757758 0.0176687 0 0.00359281
0 0.0780037 0 0.00375
0.0757758 0.0219913 0 0.00365381
0.0757758 0.0264709 0 0.0036848
0.0757758 0.031113 3.46945e-18 0.00370264
0.0757758 0.0359238 -3.46945e-18 0.00371396
0 0.0845169 0 0.00375
0.0757758 0.0409092 0 0.00372166
0.0757758 0.0460756 0 0.00372717
0 0.0912666 0 0.00375
0.0757758 0.0514296 3.46945e-18 0.00373128
0.0757758 0.0569779 0 0.00373441
0 0.0982613 0 0.00375
0.0757758 0.0627277 0 0.00373694
0.0757758 0.0686863 0 0.00373908
0 0.10551 0 0.00375
0.0757758 0.0748612 3.46945e-18 0.00374092
0.0757758 0.0812603 3.46945e-18 0.00374248
0 0.113022 0 0.00375
0.0757758 0.0878917 0 0.00374381
0 0.120806 0 0.00375
0.0757758 0.0947639 -3.46945e-18 0.00374492
0.0757758 0.101886 -3.46945e-18 0.00374584
0 0.128874 0 0.00375
0.0757758 0.109266 0 0.00374662
0 0.137234 0 0.00375
0.0757758 0.116914 -3.46945e-18 0.00374726
0 0.145897 0 0.00375
0.0757758 0.12484 0 0.0037478
0.151552 0 0 0.00622772
0.151552 0.00368111 0 0.00437481
0.151552 0.00749587 0 0.00260403
0.151552 0.0114491 0 0.00293238
0.151552 0.0155459 0 0.00329995
0.151552 0.0197915 0 0.00347845
0.0757758 0.133054 3.46945e-18 0.00374826
0.151552 0.0241911 0 0.00356762
0.151552 0.0287506 0 0.00361975
0 0.154876 0 0.00375
0.151552 0.0334755 0 0.00365293
0.151552 0.038372 0 0.00367529
0.151552 0.0434463 0 0.00369105
0.151552 0.0487048 0 0.0037026
0.0757758 0.141566 0 0.00374867
0.151552 0.0541543 0 0.00371132
0.151552 0.0598016 0 0.00371811
0 0.16418 0 0.00375
0.151552 0.0656539 0 0.00372354
0.151552 0.0717187 0 0.00372797
0.0757758 0.150387 0 0.00374904
0.151552 0.0780037 0 0.00373163
0.151552 0.0845169 0 0.00373466
0 0.173822 0 0.00375
0.0757758 0.159528 3.46945e-18 0.00374938
0.151552 0.0912666 0 0.00373719
0.151552 0.0982613 0 0.00373932
0 0.183814 0 0.00375
0.151552 0.10551 0 0.00374111
0.0757758 0.169001 0 0.00374971
0.151552 0.113022 0 0.00374265
0.151552 0.120806 0 0.00374398
0 0.194169 0 0.00375
0.0757758 0.178818 0 0.00375004
0.151552 0.128874 0 0.00374513
0.0757758 0.188991 3.46945e-18 0.00375036
0.151552 0.137234 0 0.00374611
0 0.2049 0 0.00375
0.151552 0.145897 0 0.00374697
0.0757758 0.199534 -3.46945e-18 0.00375068
0 0.21602 0 0.00375
0.151552 0.154876 0 0.00374771
0.219992 0.00184056 -3.46945e-18 0.00279549
0.219992 0.00558849 0 0.00166296
0.219992 0.0094725 0 0.0023353
0.219992 0.0134975 0 0.0029424
0.219992 0.0176687 0 0.00326324
0.219992 0.0219913 3.46945e-18 0.00342622
0.219992 0.0264709 3.46945e-18 0.0035213
0.219992 0.031113 0 0.00358164
0.219992 0.0359238 0 0.00362199
0.151552 0.16418 0 0.00374837
0.0757758 0.21046 0 0.00375099
0.219992 0.0409092 0 0.00365009
0.219992 0.0460756 0 0.00367041
0.219992 0.0514296 0 0.00368561
0.219992 0.0569779 3.46945e-18 0.0036973
0 0.227544 0 0.00375
0.219992 0.0627277 0 0.0037065
0.219992 0.0686863 0 0.00371387
0.151552 0.173822 0 0.00374897
0.219992 0.0748612 -3.46945e-18 0.00371986
0.0757758 0.221782 0 0.00375128
0.219992 0.0812603 0 0.00372479
0.219992 0.0878917 0 0.00372888
0.151552 0.183814 0 0.00374951
7.47804e-17 0.239487 0 0.00375
0.219992 0.0947639 0 0.00373228
0.219992 0.101886 0 0.00373515
0.0757758 0.233515 0 0.00375154
0.219992 0.109266 0 0.00373762
0.151552 0.194169 0 0.00375002
0.219992 0.116914 -3.46945e-18 0.00373976
0 0.251863 0 0.00375
0.219992 0.12484 0 0.00374164
0.151552 0.2049 0 0.0037505
0.0757758 0.245675 3.46945e-18 0.00375174
0.219992 0.133054 0 0.00374325
0.219992 0.141566 0 0.00374464
0.151552 0.21602 0 0.00375094
0 0.264688 0 0.00375
0.219992 0.150387 0 0.00374582
0.0757758 0.258276 3.46945e-18 0.00375187
0.219992 0.159528 0 0.00374684
0.151552 0.227544 0 0.00375134
0.219992 0.169001 0 0.00374773
0 0.27798 0 0.00375
0.0757758 0.271334 0 0.00375193
0.151552 0.239487 3.70074e-18 0.0037517
0.219992 0.178818 0 0.00374852
0.288433 0 0 0.00185572
0.288433 0.00368111 0 0.00158396
0.288433 0.00749587 0 0.00178487
0.288433 0.0114491 0 0.00257308
0.288433 0.0155459 3.70074e-18 0.00305124
0.288433 0.0197915 0 0.00328901
0.288433 0.0241911 3.70074e-18 0.00341125
0.288433 0.0287506 0 0.00349227
0.219992 0.188991 0 0.00374923
0.288433 0.0334755 0 0.00355079
0.288433 0.038372 0 0.00359352
0.288433 0.0434463 0 0.00362519
7.47804e-17 0.291753 0 0.00375
0.288433 0.0487048 0 0.00364914
0.288433 0.0541543 0 0.00366762
0.151552 0.251863 0 0.003752
0.288433 0.0598016 3.70074e-18 0.00368215
0.0757758 0.284866 -3.46945e-18 0.00375193
0.288433 0.0656539 3.70074e-18 0.00369376
0.219992 0.199534 0 0.00374989
0.288433 0.0717187 0 0.00370314
0.288433 0.0780037 0 0.00371079
0.288433 0.0845169 0 0.00371709
0.288433 0.0912666 0 0.00372239
0.219992 0.21046 0 0.00375049
0.288433 0.0982613 0 0.00372702
0.151552 0.264688 3.70074e-18 0.00375225
0 0.306027 0 0.00375
0.288433 0.10551 0 0.00373112
0.0757758 0.29889 -3.46945e-18 0.00375189
0.288433 0.113022 0 0.00373474
0.219992 0.221782 0 0.00375103
0.288433 0.120806 0 0.0037379
0.288433 0.128874 0 0.00374065
0.151552 0.27798 0 0.00375244
0.288433 0.137234 0 0.00374302
0 0.320819 0 0.00375
0.219992 0.233515 0 0.00375153
0.0757758 0.313423 0 0.00375181
0.288433 0.145897 0 0.00374508
0.288433 0.154876 0 0.00374684
0.151552 0.291753 0 0.00375258
0.219992 0.245675 0 0.00375198
0.288433 0.16418 0 0.00374834
0 0.336148 0 0.00375
0.288433 0.173822 0 0.00374962
0.0757758 0.328484 0 0.00375171
0.219992 0.258276 0 0.00375239
0.151552 0.306027 0 0.00375268
0.288433 0.183814 0 0.00375071
0.288433 0.194169 0 0.00375164
0.219992 0.271334 -3.46945e-18 0.00375275
0.350249 0.00184056 0 0.000985072
0.350249 0.00558849 0 0.000987158
0.350249 0.0094725 0 0.00218558
0.350249 0.0134975 0 0.00283873
0.350249 0.0176687 3.46945e-18 0.00316817
0.350249 0.0219913 0 0.00330659
0.350249 0.0264709 -3.46945e-18 0.00340007
0.350249 0.031113 -3.46945e-18 0.00347476
0 0.352034 0 0.00375
0.350249 0.0359238 3.46945e-18 0.00353227
0.0757758 0.344091 0 0.00375162
0.350249 0.0409092 0 0.00357598
0.350249 0.0460756 0 0.00360942
0.288433 0.2049 0 0.00375246
0.350249 0.0514296 0 0.00363534
0.151552 0.320819 0 0.00375275
0.350249 0.0569779 3.46945e-18 0.00365573
0.350249 0.0627277 0 0.00367198
0.350249 0.0686863 0 0.00368509
0.350249 0.0748612 3.46945e-18 0.00369575
0.350249 0.0812603 0 0.00370447
0.219992 0.284866 0 0.00375306
0.288433 0.21602 0 0.00375316
0.350249 0.0878917 0 0.00371167
0.350249 0.0947639 0 0.00371794
0.350249 0.101886 0 0.00372368
0.350249 0.109266 3.46945e-18 0.00372882
0.288433 0.227544 0 0.00375379
0.0757758 0.360265 0 0.00375161
0 0.368496 0 0.00375
0.151552 0.336148 0 0.00375281
0.350249 0.116914 3.46945e-18 0.00373334
0.219992 0.29889 0 0.00375333
0.370854 0.0241911 0 0.00336236
0.350249 0.12484 0 0.00373727
0.350249 0.133054 3.46945e-18 0.00374069
0.288433 0.239487 -9.25186e-19 0.00375435
0.350249 0.141566 -3.46945e-18 0.00374366
0.350249 0.150387 0 0.00374622
0.288433 0.251863 0 0.00375486
0.219992 0.313423 0 0.00375356
0.151552 0.352034 0 0.00375291
0.0757758 0.377026 -3.46945e-18 0.00375167
0.350249 0.159528 3.46945e-18 0.0037484
0 0.385557 0 0.00375
0.350249 0.169001 3.46945e-18 0.00375024
0.288433 0.264688 0 0.00375535
0.350249 0.178818 0 0.00375177
0.219992 0.328484 0 0.00375377
0.350249 0.188991 0 0.00375304
0.151552 0.368496 0 0.00375306
0.288433 0.27798 3.70074e-18 0.0037558
0.0757758 0.394396 -3.46945e-18 0.00375177
0.350249 0.199534 3.46945e-18 0.00375411
7.47804e-17 0.403236 0 0.00375
0.219992 0.344091 0 0.00375398
0.350249 0.21046 0 0.003755
0.288433 0.291753 0 0.00375623
0.412065 9.0819e-19 0 0.000804332
0.412065 0.00368111 -2.31296e-18 0.000869255
0.412065 0.00749587 -2.31296e-18 0.00160474
0.412065 0.0114491 -2.31296e-18 0.00259872
0.412065 0.0155459 -2.31296e-18 0.00305763
0.412065 0.0197915 0 0.00324857
0.412065 0.0241911 0 0.00333792
0.412065 0.0264709 0 0.00337141
0.412065 0.0287506 -2.31296e-18 0.00340489
0.412065 0.0334755 -2.31296e-18 0.00346702
0.412065 0.038372 -2.31296e-18 0.00351988
0.151552 0.385557 0 0.00375326
0.412065 0.0434463 0 0.00356266
0.350249 0.221782 0 0.00375577
0.412065 0.0487048 0 0.00359677
0.412065 0.0541543 0 0.00362401
0.412065 0.0569779 0 0.00363493
0.412065 0.0598016 -2.31296e-18 0.00364586
0.412065 0.0656539 -2.31296e-18 0.00366352
0.412065 0.0717187 -2.31296e-18 0.00367786
0.0757758 0.412397 0 0.00375184
0.412065 0.0780037 -2.31296e-18 0.0036896
0.288433 0.306027 0 0.00375664
0.412065 0.0845169 -2.31296e-18 0.00369948
0.350249 0.233515 0 0.00375644
0 0.421557 0 0.00375
0.412065 0.0912666 -2.31296e-18 0.00370812
0.219992 0.360265 -3.46945e-18 0.00375423
0.412065 0.0982613 0 0.00371591
0.412065 0.10551 0 0.00372297
0.412065 0.113022 -2.31296e-18 0.00372928
0.350249 0.245675 3.46945e-18 0.00375706
0.412065 0.120806 0 0.00373485
0.151552 0.403236 0 0.00375348
0.288433 0.320819 0 0.00375702
0.412065 0.128874 -2.31296e-18 0.00373972
0.412065 0.137234 0 0.00374397
0.350249 0.258276 3.46945e-18 0.00375764
0.219992 0.377026 0 0.00375452
0.412065 0.145897 -2.31296e-18 0.00374764
0.0757758 0.431051 0 0.00375188
0.412065 0.154876 -2.31296e-18 0.00375078
0 0.440544 0 0.00375
0.288433 0.336148 0 0.0037574
0.350249 0.271334 0 0.00375821
0.412065 0.16418 -2.31296e-18 0.00375344
0.412065 0.173822 -2.31296e-18 0.00375568
0.151552 0.421557 0 0.00375368
0.412065 0.183814 -2.31296e-18 0.00375756
0.350249 0.284866 0 0.00375877
0.219992 0.394396 0 0.00375485
0.288433 0.352034 3.70074e-18 0.00375779
0.412065 0.194169 0 0.00375911
0.0757758 0.450382 0 0.00375191
0.412065 0.2049 -2.31296e-18 0.0037604
0 0.46022 0 0.00375
0.350249 0.29889 0 0.00375933
0.412065 0.21602 0 0.00376147
0.151552 0.440544 0 0.00375387
0.219992 0.412397 3.46945e-18 0.0037552
0.467897 0.00184056 -3.46945e-18 0.000636202
0.467897 0.00558849 0 0.000884884
0.288433 0.368496 0 0.00375819
0.467897 0.0094725 0 0.00235881
0.467897 0.0134975 3.46945e-18 0.0029997
0.467897 0.0176687 3.46945e-18 0.00321638
0.467897 0.0219913 -3.46945e-18 0.00330161
0.467897 0.0264709 -3.46945e-18 0.00334557
0.467897 0.031113 3.46945e-18 0.0034037
0.467897 0.0359238 0 0.00346246
0.467897 0.038372 0 0.00349204
0.467897 0.0409092 0 0.0035136
0.350249 0.313423 0 0.00375987
0.467897 0.0460756 0 0.00355581
0.467897 0.0514296 3.46945e-18 0.00359009
0.412065 0.227544 -2.31296e-18 0.00376237
0.467897 0.0569779 0 0.00361786
0.467897 0.0627277 -3.46945e-18 0.00364039
0.467897 0.0686863 0 0.00365872
0.467897 0.0748612 3.46945e-18 0.00367362
0.467897 0.0812603 3.46945e-18 0.00368603
0.467897 0.0878917 3.46945e-18 0.00369694
0.0757758 0.470415 3.46945e-18 0.00375192
0.412065 0.239487 -2.31296e-18 0.00376316
0.467897 0.0947639 0 0.00370685
0.467897 0.101886 3.46945e-18 0.00371586
0.350249 0.328484 0 0.0037604
0.467897 0.109266 3.46945e-18 0.00372398
0 0.48061 0 0.00375
0.288433 0.385557 0 0.00375862
0.467897 0.116914 3.46945e-18 0.00373122
0.412065 0.251863 -2.31296e-18 0.00376385
0.219992 0.431051 0 0.00375553
0.467897 0.12484 0 0.00373762
0.151552 0.46022 0 0.00375403
0.467897 0.133054 0 0.00374322
0.467897 0.141566 -3.46945e-18 0.00374808
0.412065 0.264688 -2.31296e-18 0.0037645
0.350249 0.344091 0 0.00376093
0.467897 0.150387 0 0.00375224
0.467897 0.154876 0 0.00375556
0.467897 0.159528 0 0.00375579
0.288433 0.403236 0 0.00375908
0.0757758 0.491176 3.46945e-18 0.00375194
0.412065 0.27798 -2.31296e-18 0.00376512
0.467897 0.169001 0 0.00375877
0.467897 0.178818 -3.46945e-18 0.0037613
0.219992 0.450382 3.46945e-18 0.00375584
6.73024e-17 0.501741 3.70074e-18 0.00375
0.350249 0.360265 0 0.00376146
0.151552 0.48061 0 0.00375418
0.467897 0.188991 0 0.0037634
0.412065 0.291753 0 0.00376571
0.467897 0.199534 0 0.00376512
0.288433 0.421557 0 0.00375954
0.467897 0.21046 3.46945e-18 0.00376654
0.412065 0.306027 0 0.00376629
0.350249 0.377026 0 0.00376199
0.467897 0.221782 0 0.00376771
0.0757758 0.51269 0 0.00375196
0.219992 0.470415 0 0.00375613
0.467897 0.227544 0 0.00376998
0.412065 0.320819 -2.31296e-18 0.00376686
0.467897 0.233515 0 0.0037687
6.73024e-17 0.523639 3.70074e-18 0.00375
0.523729 0 0 0.000543039
0.523729 0.00368111 0 0.000698875
0.523729 0.00749587 -2.31296e-18 0.00167332
0.523729 0.0114491 0 0.00283296
0.523729 0.0155459 0 0.00324239
0.523729 0.0197915 -2.31296e-18 0.00332756
0.151552 0.501741 0 0.00375433
0.523729 0.0241911 0 0.00334878
0.523729 0.0287506 0 0.0033709
0.523729 0.0334755 0 0.00341386
0.523729 0.038372 0 0.0034642
0.523729 0.0434463 0 0.00351125
0.523729 0.0487048 0 0.00355176
0.523729 0.0541543 0 0.00358559
0.288433 0.440544 0 0.00375999
0.523729 0.0598016 0 0.00361355
0.350249 0.394396 0 0.00376255
0.523729 0.0656539 0 0.00363653
0.467897 0.245675 3.46945e-18 0.00376954
0.523729 0.0717187 0 0.00365538
0.523729 0.0780037 0 0.00367112
0.523729 0.0845169 0 0.0036849
0.523729 0.0912666 0 0.0036974
0.412065 0.336148 0 0.00376743
0.523729 0.0982613 0 0.00370878
0.523729 0.10551 -2.31296e-18 0.00371908
0.467897 0.258276 3.46945e-18 0.00377028
0.523729 0.113022 0 0.00372833
0.523729 0.120806 0 0.00373656
0.219992 0.491176 3.46945e-18 0.0037564
0.523729 0.12484 0 0.00374018
0.523729 0.128874 -2.31296e-18 0.00374381
0.0757758 0.534985 -3.46945e-18 0.003752
0.467897 0.271334 0 0.00377096
0.350249 0.412397 3.46945e-18 0.00376313
0.523729 0.137234 0 0.00375015
0.412065 0.352034 -2.31296e-18 0.003768
0.288433 0.46022 0 0.00376043
0.523729 0.145897 0 0.00375564
0.151552 0.523639 0 0.00375448
0.523729 0.154876 0 0.00376034
0 0.546332 0 0.00375
0.523729 0.159528 0 0.00376234
0.467897 0.284866 3.46945e-18 0.0037716
0.523729 0.16418 -2.31296e-18 0.00376433
0.523729 0.173822 0 0.0037677
0.412065 0.368496 0 0.00376858
0.523729 0.183814 0 0.00377052
0.467897 0.29889 -3.46945e-18 0.00377222
0.350249 0.431051 0 0.00376371
0.219992 0.51269 3.46945e-18 0.00375667
0.523729 0.194169 0 0.00377284
0.288433 0.48061 0 0.00376083
0.523729 0.2049 0 0.00377475
0.467897 0.313423 0 0.00377283
0.0757758 0.55809 0 0.00375204
0.412065 0.385557 0 0.00376917
0.523729 0.21602 0 0.00377631
0.151552 0.546332 0 0.00375464
0 0.569849 0 0.00375
0.350249 0.450382 0 0.00376427
0.523729 0.227544 0 0.00377758
0.467897 0.328484 0 0.00377343
0.523729 0.231525 0 0.00377794
0.574156 0.00184056 0 0.000455991
0.574156 0.00558849 0 0.000826522
0.574156 0.0094725 0 0.00261637
0.574156 0.0134975 0 0.00333684
0.574156 0.0176687 0 0.00339903
0.574156 0.0219913 3.46945e-18 0.00338424
0.574156 0.0264709 0 0.0033604
0.574156 0.031113 0 0.00337441
0.574156 0.0359238 3.46945e-18 0.00341738
0.574156 0.0409092 -3.46945e-18 0.0034665
0.523729 0.239487 3.70074e-18 0.00377864
0.574156 0.0460756 3.46945e-18 0.00351217
0.574156 0.0514296 0 0.00355174
0.412065 0.403236 0 0.00376979
0.574156 0.0569779 0 0.0035851
0.574156 0.0627277 0 0.00361288
0.574156 0.0686863 0 0.00363583
0.219992 0.534985 0 0.00375693
0.288433 0.501741 0 0.00376122
0.574156 0.0748612 0 0.00365476
0.574156 0.0812603 0 0.0036712
0.467897 0.344091 3.46945e-18 0.00377403
0.574156 0.0878917 0 0.0036863
0.523729 0.251863 0 0.00377953
0.574156 0.0947639 -3.46945e-18 0.00370011
0.574156 0.101886 0 0.00371265
0.574156 0.109266 3.46945e-18 0.00372395
0.574156 0.116914 -3.46945e-18 0.00373406
0.412065 0.416977 0 0.00377026
0.350249 0.470415 0 0.00376481
0.523729 0.264688 0 0.0037803
0.0757758 0.582034 0 0.00375209
0.574156 0.12484 0 0.00374304
0.574156 0.133054 0 0.00375093
0.412065 0.421557 -2.31296e-18 0.00377041
0.151552 0.569849 0 0.00375479
0.467897 0.360265 0 0.00377465
0.574156 0.141566 -3.46945e-18 0.0037578
0.523729 0.27798 0 0.00378099
0.574156 0.150387 -3.46945e-18 0.00376373
0 0.594219 0 0.00375
0.574156 0.159528 0 0.00376879
0.574156 0.16418 0 0.00377238
0.288433 0.523639 9.24446e-33 0.00376159
0.574156 0.169001 -3.46945e-18 0.00377307
0.523729 0.291753 0 0.00378163
0.219992 0.55809 -3.46945e-18 0.00375718
0.467897 0.377026 0 0.00377527
0.574156 0.178818 -3.46945e-18 0.00377666
0.412065 0.440544 -2.31296e-18 0.00377105
0.350249 0.491176 3.46945e-18 0.00376533
0.574156 0.188991 0 0.00377964
0.523729 0.306027 0 0.00378223
0.574156 0.199534 0 0.00378208
0.574156 0.21046 0 0.00378408
0.0757758 0.606847 0 0.00375215
0.467897 0.394396 3.46945e-18 0.00377592
0.151552 0.594219 0 0.00375495
0.523729 0.320819 0 0.00378281
0.574156 0.221782 -3.46945e-18 0.0037857
0.412065 0.46022 0 0.00377166
0.288433 0.546332 0 0.00376195
0 0.619475 0 0.00375
0.574156 0.233515 0 0.00378701
0.350249 0.51269 3.46945e-18 0.00376581
0.219992 0.582034 0 0.00375744
0.523729 0.336148 0 0.0037834
0.467897 0.412397 0 0.00377659
0.574156 0.245675 3.46945e-18 0.00378808
0.624584 0 0 0.000390624
0.624584 0.00368111 0 0.000599984
0.624584 0.00749587 0 0.00178023
0.624584 0.0114491 0 0.00316153
0.624584 0.0155459 0 0.00357396
0.624584 0.0197915 0 0.00352468
0.624584 0.0241911 -2.31296e-18 0.00343661
0.624584 0.0287506 0 0.00339127
0.624584 0.0334755 0 0.00339575
0.624584 0.038372 0 0.00343014
0.624584 0.0434463 -2.31296e-18 0.0034737
0.624584 0.0487048 0 0.00351621
0.624584 0.0541543 0 0.00355412
0.624584 0.0598016 0 0.00358664
0.624584 0.0656539 0 0.00361399
0.624584 0.0717187 0 0.0036369
0.624584 0.0780037 0 0.00365667
0.574156 0.258276 0 0.00378898
0.624584 0.0845169 0 0.00367456
0.523729 0.352034 0 0.00378399
0.624584 0.0912666 0 0.00369101
0.624584 0.0982613 0 0.00370606
0.412065 0.48061 0 0.00377225
0.624584 0.10551 0 0.00371971
0.624584 0.113022 -2.31296e-18 0.00373201
0.574156 0.271334 0 0.00378974
0.624584 0.120806 0 0.00374298
0.467897 0.431051 0 0.00377728
0.0757758 0.632561 3.46945e-18 0.00375221
0.624584 0.128874 0 0.0037527
0.151552 0.619475 0 0.00375511
0.288433 0.569849 0 0.0037623
0.350249 0.534985 0 0.00376628
0.624584 0.137234 -2.31296e-18 0.00376123
0.523729 0.368496 0 0.00378459
0.574156 0.284866 -3.46945e-18 0.00379041
0.624584 0.145897 0 0.00376863
0.467897 0.440544 0 0.00377913
0.624584 0.154876 0 0.003775
0.219992 0.606847 0 0.0037577
0 0.645647 0 0.00375
0.624584 0.16418 0 0.00378043
0.574156 0.29889 0 0.00379102
0.624584 0.173822 0 0.003785
0.412065 0.501741 0 0.00377281
0.467897 0.450382 0 0.00377796
0.523729 0.385557 0 0.00378521
0.624584 0.183814 0 0.00378881
0.624584 0.194169 0 0.00379196
0.574156 0.313423 3.46945e-18 0.00379159
0.624584 0.2049 0 0.00379453
0.350249 0.55809 3.46945e-18 0.00376672
0.288433 0.594219 0 0.00376264
0.624584 0.21602 0 0.0037966
0.523729 0.403236 0 0.00378586
0.574156 0.328484 -3.46945e-18 0.00379216
0.151552 0.645647 0 0.00375527
0.467897 0.470415 0 0.00377862
0.0757758 0.659208 3.46945e-18 0.00375227
0.624584 0.227544 0 0.00379828
0.412065 0.523639 0 0.00377334
0.523729 0.41545 0 0.00378631
0.624584 0.239487 3.70074e-18 0.00379962
0.574156 0.344091 0 0.00379272
0.219992 0.632561 -3.46945e-18 0.00375795
0.67013 0.00184056 3.46945e-18 0.000329257
0.67013 0.00558849 -3.46945e-18 0.000793228
0.67013 0.0094725 3.46945e-18 0.00287768
0.67013 0.0134975 -3.46945e-18 0.00379267
0.67013 0.0176687 0 0.00374212
0.67013 0.0219913 0 0.00355706
0.67013 0.0264709 3.46945e-18 0.00343688
0.67013 0.031113 0 0.00339047
0.67013 0.0359238 -3.46945e-18 0.00340077
0.67013 0.0409092 0 0.00343736
0.67013 0.0460756 0 0.00348067
0.67013 0.0514296 -3.46945e-18 0.00352221
0.523729 0.421557 0 0.00378653
0.67013 0.0569779 0 0.00355917
0 0.67277 0 0.00375
0.67013 0.0627277 3.46945e-18 0.00359092
0.624584 0.251863 0 0.0038007
0.67013 0.0686863 0 0.0036176
0.67013 0.0748612 -3.46945e-18 0.00364044
0.67013 0.0812603 0 0.00366107
0.67013 0.0878917 0 0.00368017
0.67013 0.0947639 0 0.00369774
0.574156 0.360265 3.46945e-18 0.0037933
0.67013 0.101886 3.46945e-18 0.00371378
0.523729 0.431051 0 0.00378687
0.624584 0.264688 0 0.00380158
0.467897 0.491176 0 0.00377926
0.67013 0.109266 3.46945e-18 0.0037283
0.350249 0.582034 0 0.00376715
0.67013 0.116914 -3.46945e-18 0.00374134
0.67013 0.12484 0 0.00375295
0.67013 0.133054 -3.46945e-18 0.0037632
0.288433 0.619475 0 0.00376297
0.624584 0.27798 0 0.00380232
0.412065 0.546332 0 0.00377383
0.523729 0.440544 0 0.00378721
0.67013 0.141566 0 0.00377215
0.685312 0.0241911 0 0.00355216
0.685312 0.0434463 0 0.00345983
0.67013 0.150387 0 0.0037799
0.574156 0.377026 0 0.0037939
0.67013 0.159528 0 0.00378653
0.624584 0.291753 0 0.00380295
0.151552 0.67277 0 0.00375543
0.0757758 0.686823 0 0.00375234
0.67013 0.169001 -3.46945e-18 0.00379216
0.67013 0.178818 0 0.00379687
0.467897 0.51269 3.46945e-18 0.00377985
0.685312 0.113022 0 0.0037372
0.219992 0.659208 0 0.0037582
0.624584 0.306027 0 0.00380352
0.67013 0.188991 0 0.00380078
0.574156 0.394396 -3.46945e-18 0.00379452
0.523729 0.46022 0 0.00378789
0.685312 0.137234 0 0.00377143
0.67013 0.199534 3.46945e-18 0.00380398
0.350249 0.606847 3.46945e-18 0.00376756
0 0.700877 0 0.00375
0.624584 0.320819 0 0.00380405
0.67013 0.21046 -3.46945e-18 0.00380657
0.412065 0.569849 -2.31296e-18 0.00377431
0.67013 0.221782 0 0.00380865
0.574156 0.412397 -3.46945e-18 0.00379518
0.288433 0.645647 0 0.00376329
0.624584 0.336148 0 0.00380456
0.67013 0.233515 -3.46945e-18 0.0038103
0.467897 0.534985 0 0.00378041
0.523729 0.48061 0 0.00378854
0.624584 0.344091 0 0.00380482
0.67013 0.245675 0 0.00381161
0.715676 4.54095e-19 -1.54074e-33 0.000279451
0.715676 0.00368111 0 0.000531353
0.715676 0.00749587 0 0.00189532
0.715676 0.0114491 -1.54074e-33 0.00353126
0.715676 0.0155459 0 0.00402056
0.715676 0.0197915 0 0.00384416
0.715676 0.0241911 0 0.00360993
0.715676 0.0287506 0 0.00347167
0.715676 0.0334755 0 0.00341782
0.715676 0.038372 0 0.00342181
0.624584 0.352034 -2.31296e-18 0.00380508
0.715676 0.0434463 0 0.0034529
0.151552 0.700877 0 0.00375559
0.715676 0.0487048 0 0.0034922
0.715676 0.0541543 0 0.00353112
0.574156 0.431051 -3.46945e-18 0.00379585
0.715676 0.0598016 0 0.00356636
0.67013 0.258276 0 0.00381265
0.715676 0.0656539 0 0.00359692
0.715676 0.0717187 0 0.00362328
0.0757758 0.715441 0 0.00375241
0.715676 0.0780037 0 0.00364686
0.715676 0.0845169 0 0.00366867
0.219992 0.686823 0 0.00375844
0.715676 0.0912666 0 0.00368889
0.715676 0.0982613 0 0.00370749
0.67013 0.271334 0 0.00381348
0.350249 0.632561 3.46945e-18 0.00376795
0.412065 0.594219 -2.31296e-18 0.00377475
0.715676 0.10551 0 0.00372446
0.715676 0.113022 0 0.0037398
0.624584 0.368496 0 0.00380562
0.523729 0.501741 0 0.00378915
0.715676 0.120806 0 0.00375356
0.715676 0.128874 0 0.00376578
0.67013 0.284866 0 0.00381416
0.467897 0.55809 3.46945e-18 0.00378093
0.715676 0.137234 0 0.00377653
0.574156 0.450382 0 0.00379653
0 0.730005 0 0.00375
0.715676 0.145897 0 0.0037859
0.288433 0.67277 0 0.00376359
0.715676 0.154876 0 0.00379399
0.67013 0.29889 3.46945e-18 0.00381474
0.624584 0.385557 0 0.00380618
0.715676 0.16418 0 0.00380088
0.715676 0.173822 0 0.0038067
0.715676 0.183814 0 0.00381156
0.67013 0.313423 0 0.00381525
0.523729 0.523639 0 0.00378973
0.715676 0.194169 0 0.00381555
0.574156 0.470415 3.46945e-18 0.0037972
0.624584 0.403236 0 0.00380676
0.743101 0.0241911 0 0.00370301
0.412065 0.619475 -2.31296e-18 0.00377517
0.715676 0.2049 0 0.00381881
0.151552 0.730005 0 0.00375574
0.67013 0.328484 0 0.00381573
0.350249 0.659208 -3.46945e-18 0.00376831
0.467897 0.582034 0 0.00378142
0.715676 0.21602 0 0.00382142
0.219992 0.715441 0 0.00375868
0.0757758 0.745098 3.46945e-18 0.00375248
0.715676 0.227544 0 0.00382349
0.67013 0.344091 0 0.00381619
0.624584 0.421557 0 0.00380738
0.743101 0.128874 0 0.00377131
0.715676 0.239487 3.70074e-18 0.00382511
0.574156 0.491176 3.46945e-18 0.00379784
0.523729 0.546332 0 0.00379026
0.756814 0.00184056 0 0.000232458
0.756814 0.00558849 0 0.00077386
0.756814 0.0094725 0 0.00312985
0.756814 0.0134975 3.46945e-18 0.00430276
0.756814 0.0155459 0 0.00427792
0.756814 0.0176687 -3.46945e-18 0.00421612
0.756814 0.0219913 -3.46945e-18 0.00383936
0.756814 0.0264709 3.46945e-18 0.00359367
0.756814 0.031113 -3.46945e-18 0.00345913
0.756814 0.0359238 -3.46945e-18 0.00341841
0.288433 0.700877 0 0.00376388
0.756814 0.0409092 0 0.0034304
0.756814 0.0460756 -3.46945e-18 0.00346388
0.756814 0.0514296 -3.46945e-18 0.00350308
0.715676 0.251863 0 0.00382638
0.756814 0.0569779 0 0.00354109
0.756814 0.0627277 3.46945e-18 0.00357523
0.756814 0.0686863 0 0.00360476
0 0.76019 0 0.00375
0.756814 0.0748612 0 0.00363095
0.67013 0.360265 0 0.00381667
0.756814 0.0812603 0 0.00365541
0.756814 0.0878917 0 0.00367825
0.756814 0.0947639 -3.46945e-18 0.00369941
0.715676 0.264688 0 0.00382736
0.756814 0.101886 -3.46945e-18 0.00371884
0.624584 0.440544 0 0.003808
0.756814 0.109266 -3.46945e-18 0.00373653
0.756814 0.116914 -3.46945e-18 0.00375248
0.412065 0.645647 0 0.00377556
0.467897 0.606847 0 0.00378188
0.756814 0.120806 0 0.00376061
0.756814 0.12484 3.46945e-18 0.00376674
0.715676 0.27798 -1.54074e-33 0.00382812
0.756814 0.133054 3.46945e-18 0.00377936
0.67013 0.377026 3.46945e-18 0.00381716
0.756814 0.137234 0 0.00378594
0.574156 0.51269 0 0.00379844
0.756814 0.141566 0 0.00379043
0.685312 0.352034 0 0.00382201
0.743101 0.2049 0 0.00382811
0.350249 0.686823 0 0.00376866
0.756814 0.150387 0 0.00380003
0.756814 0.154876 0 0.00380525
0.715676 0.291753 -6.16298e-33 0.00382873
0.756814 0.159528 0 0.00380827
0.523729 0.569849 0 0.00379075
0.72743 0.264688 0 0.00383157
0.756814 0.16418 0 0.00381289
0.151552 0.76019 3.70074e-18 0.00375589
0.756814 0.169001 3.46945e-18 0.00381527
0.624584 0.46022 0 0.00380863
0.219992 0.745098 -3.46945e-18 0.00375891
0.67013 0.394396 0 0.00381769
0.756814 0.178818 0 0.00382114
0.715676 0.306027 0 0.00382923
0.0757758 0.775831 3.46945e-18 0.00375255
0.756814 0.188991 0 0.003826
0.756814 0.199534 -3.46945e-18 0.00382998
0.715676 0.320819 0 0.00382967
0.574156 0.534985 0 0.00379899
0.288433 0.730005 0 0.00376415
0.756814 0.21046 0 0.00383318
0.467897 0.632561 0 0.00378229
0.67013 0.412397 0 0.00381824
0.624584 0.48061 0 0.00380925
0.756814 0.221782 3.46945e-18 0.00383572
0.412065 0.67277 -2.31296e-18 0.00377592
0.715676 0.336148 0 0.00383007
0 0.791472 0 0.00375
0.756814 0.233515 0 0.00383771
0.523729 0.594219 0 0.0037912
0.624584 0.487654 0 0.00380944
0.756814 0.245675 0 0.00383924
0.350249 0.715441 3.46945e-18 0.00376898
0.67013 0.431051 -3.46945e-18 0.00381882
0.715676 0.352034 0 0.00383047
0.797951 9.0819e-19 0 0.00019519
0.797951 0.00368111 0 0.000481332
0.797951 0.00749587 0 0.00200691
0.797951 0.0114491 0 0.00390434
0.797951 0.0141803 0 0.00432496
0.797951 0.0155459 0 0.00453527
0.797951 0.0169611 0 0.00445079
0.797951 0.0197915 0 0.00428184
0.797951 0.0219913 0 0.0040855
0.797951 0.0241911 0 0.00388916
0.797951 0.0264709 0 0.00375693
0.797951 0.0287506 0 0.00362471
0.797951 0.0334755 0 0.00348731
0.797951 0.038372 0 0.00344401
0.797951 0.0434463 0 0.00345192
0.797951 0.0487048 0 0.00348154
0.756814 0.258276 0 0.00384041
0.797951 0.0541543 0 0.00351765
0.797951 0.0598016 0 0.0035533
0.797951 0.0656539 0 0.00358572
0.574156 0.55809 0 0.00379949
0.624584 0.501741 -2.05433e-33 0.00380983
0.797951 0.0717187 0 0.00361477
0.797951 0.0780037 0 0.00364165
0.797951 0.0845169 0 0.00366699
0.797951 0.0912666 0 0.0036907
0.797951 0.0982613 0 0.00371267
0.756814 0.271334 -3.46945e-18 0.00384129
0.797951 0.10551 0 0.00373283
0.715676 0.368496 0 0.00383088
0.151552 0.791472 0 0.00375604
0.797951 0.113022 0 0.00375116
0.219992 0.775831 3.46945e-18 0.00375913
0.797951 0.118212 0 0.00376216
0.770526 0.239487 0 0.00384455
0.797951 0.120806 9.25186e-19 0.00376766
0.67013 0.450382 3.46945e-18 0.00381941
0.797951 0.128874 -2.31296e-18 0.00378237
0.467897 0.659208 0 0.00378268
0.756814 0.284866 0 0.00384196
0.743101 0.320819 0 0.00383945
0.797951 0.137234 0 0.00379535
0.797951 0.141566 0 0.00380103
0.797951 0.145897 0 0.0038067
0.523729 0.619475 0 0.0037916
0.0757758 0.80768 0 0.00375263
0.797951 0.150387 0 0.00381161
0.797951 0.154876 9.25186e-19 0.00381652
0.715676 0.385557 0 0.00383131
0.412065 0.700877 -2.31296e-18 0.00377625
0.288433 0.76019 0 0.00376441
0.756814 0.29889 -3.46945e-18 0.00384247
0.797951 0.16418 0 0.00382491
0.624584 0.523639 -1.54074e-33 0.00381036
0.797951 0.167394 0 0.00382727
0.797951 0.173822 0 0.00383199
0.574156 0.582034 0 0.00379994
0.67013 0.470415 0 0.00382
0.797951 0.183814 0 0.0038379
0.756814 0.313423 0 0.00384288
0.797951 0.194169 0 0.00384277
0.715676 0.403236 -6.16298e-33 0.00383177
0.151552 0.80768 0 0.00375611
0.797951 0.197746 0 0.00384409
0.350249 0.745098 -3.46945e-18 0.00376929
0.797951 0.2049 0 0.00384672
0 0.823889 0 0.00375
0.756814 0.328484 0 0.00384324
0.797951 0.21046 0 0.00384829
0.797951 0.21602 0 0.00384987
0.797951 0.223703 0 0.00385152
0.797951 0.227544 0 0.00385235
0.624584 0.546332 0 0.00381083
0.715676 0.421557 0 0.00383226
0.67013 0.491176 3.46945e-18 0.00382056
0.797951 0.231525 0 0.00385299
0.467897 0.686823 0 0.00378302
0.523729 0.645647 0 0.00379196
0.756814 0.344091 -3.46945e-18 0.00384356
0.822721 0.120806 0 0.0037733
0.797951 0.239487 0 0.00385426
0.822721 0.137234 0 0.00380256
0.835107 0.00184056 -3.46945e-18 0.000159847
0.835107 0.00558849 0 0.000761436
0.835107 0.0094725 3.46945e-18 0.00335691
0.835107 0.0134975 0 0.00480849
0.835107 0.0176687 0 0.00478526
0.835107 0.0219913 3.46945e-18 0.00426039
0.574156 0.606847 3.46945e-18 0.00380034
0.835107 0.0241911 0 0.00408955
0.835107 0.0264709 3.46945e-18 0.0038454
0.822721 0.145897 0 0.00381457
0.835107 0.031113 0 0.00359048
0.835107 0.0359238 0 0.0034762
0.835107 0.0409092 -3.46945e-18 0.00344901
0.835107 0.0460756 0 0.0034639
0.835107 0.0514296 -3.46945e-18 0.0034955
0.797951 0.251863 0 0.00385573
0.835107 0.0541543 0 0.00351673
0.835107 0.0569779 -3.46945e-18 0.00353141
0.219992 0.80768 -3.46945e-18 0.00375934
0.822721 0.154876 0 0.00382497
0.835107 0.0627277 -3.46945e-18 0.00356598
0.151552 0.823889 0 0.00375618
0.797951 0.255069 0 0.003856
0.835107 0.0686863 3.46945e-18 0.00359734
0.756814 0.360265 3.46945e-18 0.00384389
0.412065 0.730005 0 0.00377654
0.835107 0.0748612 0 0.00362634
0.822721 0.16418 0 0.00383386