# nutMean  POINT_DATA 63889
# x  y  z  nutMean
0 0.5 3.39582e-17 0.0153429
0 0.5 -0.00617965 0.0153486
0 0.5 0.00617965 0.0153437
0.0124871 0.5 -0.00617965 0.0164067
0.0124871 0.5 0.00617965 0.0164029
0 0.5 -0.0688203 0.0153336
0 0.5 0.0688203 0.0152594
0.0124871 0.5 -0.0688203 0.0163917
0.0124871 0.5 0.0688203 0.0163187
0 0.5 -0.075 0.0153252
0 0.5 0.075 0.015242
0 0.5 -0.0811797 0.015323
0 0.5 0.0811797 0.0152308
0.0124871 0.5 -0.0811797 0.0164015
0.0124871 0.5 0.0811797 0.0162994
0.0757758 0.5 -0.0375 0.0217464
0.0757758 0.5 0.0375 0.0217252
0.0757758 0.5 -0.1125 0.0218027
0.0757758 0.5 0.1125 0.0216069
0 0.5 -0.14382 0.015156
0 0.5 0.14382 0.0149935
0.0124871 0.5 -0.14382 0.0162344
0.0124871 0.5 0.14382 0.0160621
0 0.5 -0.15 0.015125
0 0.5 0.15 0.0149577
0.151149 0.5 -0.00137326 0.0192065
0 0.5 -0.15618 0.0151
0 0.5 0.15618 0.0149277
0.0124871 0.5 -0.15618 0.0161505
0.0124871 0.5 0.15618 0.0159668
0.151149 0.5 -0.075 0.019177
0.151149 0.5 0.075 0.0191313
0.0757758 0.5 -0.1875 0.0213006
0.0757758 0.5 0.1875 0.0210365
0.151149 0.5 -0.15 0.018992
0.151149 0.5 0.15 0.0188803
0 0.5 -0.21882 0.0147698
0 0.5 0.21882 0.0145549
0.0124871 0.5 -0.21882 0.0158203
0.0124871 0.5 0.21882 0.0155939
0.219992 0.5 -0.0375 0.0168121
0.219992 0.5 0.0375 0.0168146
0 0.5 -0.225 0.0147293
0 0.5 0.225 0.0145108
0 0.5 -0.23118 0.0146942
0 0.5 0.23118 0.014472
0.0124871 0.5 -0.23118 0.0157076
0.0124871 0.5 0.23118 0.0154728
0.219992 0.5 -0.1125 0.0166951
0.219992 0.5 0.1125 0.0167183
0.151149 0.5 -0.225 0.0185847
0.151149 0.5 0.225 0.0184296
0.0757758 0.5 -0.2625 0.0206256
0.0757758 0.5 0.2625 0.0203105
0.288069 0.5 -0.00137326 0.0136123
0.219992 0.5 -0.1875 0.0165124
0.219992 0.5 0.1875 0.016487
0 0.5 -0.29382 0.014288
0 0.5 0.29382 0.0140386
0.0124871 0.5 -0.29382 0.0153014
0.0124871 0.5 0.29382 0.0150393
0.288069 0.5 -0.075 0.0135609
0.288069 0.5 0.075 0.013577
0 0.5 -0.3 0.0142425
0 0.5 0.3 0.0139914
0 0.5 -0.30618 0.014202
0 0.5 0.30618 0.0139488
0.0124871 0.5 -0.30618 0.0151739
0.0124871 0.5 0.30618 0.0149075
0.288069 0.5 -0.15 0.013501
0.288069 0.5 0.15 0.0135151
0.151149 0.5 -0.3 0.018071
0.151149 0.5 0.3 0.0178936
0.219992 0.5 -0.2625 0.0162188
0.219992 0.5 0.2625 0.0161853
0.0757758 0.5 -0.3375 0.0198616
0.0757758 0.5 0.3375 0.0195205
0.350249 0.5 -0.0375 0.0105618
0.350249 0.5 0.0375 0.010571
0.288069 0.5 -0.225 0.0134028
0.288069 0.5 0.225 0.0134011
0.350249 0.5 -0.1125 0.0105764
0.350249 0.5 0.1125 0.0106055
0 0.5 0.36882 0.0135001
0 0.5 -0.36882 0.0137652
0.0124871 0.5 -0.36882 0.0147371
0.0124871 0.5 0.36882 0.0144588
0 0.5 -0.375 0.0137194
0 0.5 0.375 0.0134542
0 0.5 -0.38118 0.0136775
0 0.5 0.38118 0.0134115
0.0124871 0.5 -0.38118 0.0146076
0.0124871 0.5 0.38118 0.0143283
0.350249 0.5 -0.1875 0.0106106
0.350249 0.5 0.1875 0.0106385
0.219992 0.5 -0.3375 0.0158687
0.219992 0.5 0.3375 0.0158293
0.151149 0.5 -0.375 0.017513
0.151149 0.5 0.375 0.0173241
0.411736 0.5 -0.00137326 0.00901096
0.288069 0.5 -0.3 0.013267
0.288069 0.5 0.3 0.013262
0.411736 0.5 -0.075 0.00900763
0.411736 0.5 0.075 0.0090213
0.0757758 0.5 -0.4125 0.0190847
0.0757758 0.5 0.4125 0.0187369
0.350249 0.5 -0.2625 0.0106425
0.350249 0.5 0.2625 0.0106632
0.411736 0.5 -0.15 0.00904176
0.411736 0.5 0.15 0.00906463
0 0.5 -0.44382 0.0132472
0 0.5 0.44382 0.0129809
0.0124871 0.5 -0.44382 0.0141773
0.0124871 0.5 0.44382 0.0138976
0 0.5 -0.45 0.0132047
0 0.5 0.45 0.0129392
0 0.5 -0.45618 0.013164
0 0.5 0.45618 0.0128985
0.0124871 0.5 -0.45618 0.0140547
0.0124871 0.5 0.45618 0.0137758
0.219992 0.5 -0.4125 0.0154987
0.219992 0.5 0.4125 0.0154511
0.411736 0.5 0.225 0.00911489
0.411736 0.5 -0.225 0.00909479
0.467897 0.5 0.0375 0.00752679
0.467897 0.5 -0.0375 0.00752254
0.288069 0.5 -0.375 0.0131201
0.288069 0.5 0.375 0.0131149
0.151149 0.5 -0.45 0.0169583
0.151149 0.5 0.45 0.0167649
0.467897 0.5 -0.1125 0.00755407
0.467897 0.5 0.1125 0.0075668
0.350249 0.5 -0.3375 0.0106874
0.350249 0.5 0.3375 0.010716
0.0757758 0.5 0.4875 0.0180062
0.0757758 0.5 -0.4875 0.0183487
0.467897 0.5 -0.1875 0.00760909
0.467897 0.5 0.1875 0.00763152
0.411736 0.5 -0.3 0.00916488
0.411736 0.5 0.3 0.00918261
0 0.5 -0.51882 0.0127658
0 0.5 0.51882 0.0125088
0.0124871 0.5 -0.51882 0.0136565
0.0124871 0.5 0.51882 0.0133861
0.523432 0.5 -0.00137326 0.00664119
0 0.5 -0.525 0.0127286
0 0.5 0.525 0.0124733
0.523432 0.5 -0.075 0.00664929
0.523432 0.5 0.075 0.00665458
0 0.5 -0.53118 0.0126907
0 0.5 0.53118 0.0124369
0.0124871 0.5 -0.53118 0.0135459
0.0124871 0.5 0.53118 0.0132799
0.288069 0.5 -0.45 0.0129785
0.288069 0.5 0.45 0.0129701
0.219992 0.5 -0.4875 0.0151351
0.219992 0.5 0.4875 0.0150794
0.467897 0.5 -0.2625 0.00769766
0.467897 0.5 0.2625 0.00770756
0.350249 0.5 -0.4125 0.0107483
0.350249 0.5 0.4125 0.0107812
0.523432 0.5 -0.15 0.00669398
0.523432 0.5 0.15 0.00670474
0.151149 0.5 -0.525 0.0164411
0.151149 0.5 0.525 0.0162482
0.411736 0.5 -0.375 0.00925488
0.411736 0.5 0.375 0.00927651
0.0757758 0.5 -0.5625 0.0176866
0.0757758 0.5 0.5625 0.0173652
0.523432 0.5 -0.225 0.00676388
0.523432 0.5 0.225 0.00677798
0.574156 0.5 0.0375 0.00579377
0.574156 0.5 -0.0375 0.00579315
0.467897 0.5 -0.3375 0.00780889
0.467897 0.5 0.3375 0.00782148
0.574156 0.5 -0.1125 0.00582496
0.574156 0.5 0.1125 0.0058289
0 0.5 -0.59382 0.0123447
0 0.5 0.59382 0.0121038
0.0124871 0.5 -0.59382 0.0131999
0.0124871 0.5 0.59382 0.0129468
0.288069 0.5 -0.525 0.0128554
0.288069 0.5 0.525 0.0128393
0 0.5 -0.6 0.012315
0 0.5 0.6 0.0120752
0.350249 0.5 0.4875 0.0108578
0.350249 0.5 -0.4875 0.0108262
0.523432 0.5 -0.3 0.00686374
0.523432 0.5 0.3 0.00687475
0.219992 0.5 -0.5625 0.0148027
0.219992 0.5 0.5625 0.0147325
0.574156 0.5 -0.1875 0.00588522
0.574156 0.5 0.1875 0.00588991
0 0.5 -0.60618 0.0122836
0 0.5 0.60618 0.0120454
0.0124871 0.5 -0.60618 0.013111
0.0124871 0.5 0.60618 0.0128613
0.411736 0.5 -0.45 0.00936718
0.411736 0.5 0.45 0.00938922
0.151149 0.5 -0.6 0.0159884
0.151149 0.5 0.6 0.015797
0.62168 0.5 4.33681e-17 0.00526078
0.467897 0.5 -0.4125 0.0079475
0.467897 0.5 0.4125 0.00796105
0.624316 0.5 0.0729401 0.00524259
0.624316 0.5 -0.075 0.00524201
0.574156 0.5 -0.2625 0.00596114
0.574156 0.5 0.2625 0.0059808
0.0757758 0.5 -0.6375 0.017141
0.0757758 0.5 0.6375 0.016838
0.624316 0.5 -0.15 0.00528617
0.624316 0.5 0.15 0.00528766
0.523432 0.5 -0.375 0.00699353
0.523432 0.5 0.375 0.00699956
0.350249 0.5 -0.5625 0.0109234
0.350249 0.5 0.5625 0.0109477
0.624316 0.5 -0.225 0.00535481
0.624316 0.5 0.225 0.00535937
0.288069 0.5 -0.6 0.01276
0.288069 0.5 0.6 0.0127311
0.574156 0.5 -0.3375 0.00608489
0.574156 0.5 0.3375 0.00608682
0.411736 0.5 0.525 0.00952064
0.411736 0.5 -0.525 0.00950267
0 0.5 0.66882 0.011774
0 0.5 -0.66882 0.011998
0.0124871 0.5 -0.66882 0.0128254
0.0124871 0.5 0.66882 0.0125899
0.67013 0.5 -0.0375 0.00468886
0.67013 0.5 0.0375 0.00468778
0.219992 0.5 -0.6375 0.0145116
0.219992 0.5 0.6375 0.0144249
0 0.5 -0.675 0.0119737
0 0.5 0.675 0.0117509
0.467897 0.5 -0.4875 0.00811424
0.467897 0.5 0.4875 0.00812569
0.67013 0.5 -0.1125 0.00471842
0.67013 0.5 0.1125 0.00471746
0 0.5 -0.68118 0.0119488
0 0.5 0.68118 0.0117274
0.0124871 0.5 -0.68118 0.0127544
0.0124871 0.5 0.68118 0.0125219
0.523432 0.5 -0.45 0.00714956
0.523432 0.5 0.45 0.00715288
0.151149 0.5 -0.675 0.0156136
0.151149 0.5 0.675 0.0154227
0.624316 0.5 -0.3 0.00545129
0.624316 0.5 0.3 0.00545592
0.67013 0.5 -0.1875 0.00477363
0.67013 0.5 0.1875 0.00477222
0.574156 0.5 0.4125 0.00622681
0.574156 0.5 -0.4125 0.00622996
0.708171 0.5 3.5345e-17 0.00436477
0.0757758 0.5 -0.7125 0.0166988
0.0757758 0.5 0.7125 0.0164175
0.715434 0.5 0.0736267 0.00432398
0.715434 0.5 -0.075 0.00431735
0.67013 0.5 -0.2625 0.00485673
0.67013 0.5 0.2625 0.00485284
0.350249 0.5 -0.6375 0.0110407
0.350249 0.5 0.6375 0.0110518
0.411736 0.5 0.6 0.00967089
0.411736 0.5 -0.6 0.00966185
0.624316 0.5 -0.375 0.00557766
0.624316 0.5 0.375 0.00557471
0.715434 0.5 -0.15 0.00435778
0.715434 0.5 0.15 0.00435512
0.467897 0.5 -0.5625 0.00830874
0.467897 0.5 0.5625 0.00831464
0.288069 0.5 -0.675 0.0126984
0.288069 0.5 0.675 0.0126527
0.523432 0.5 -0.525 0.00733406
0.523432 0.5 0.525 0.00733251
0 0.5 0.74382 0.0115186
0 0.5 -0.74382 0.0117252
0.0124871 0.5 -0.74382 0.0125308
0.0124871 0.5 0.74382 0.012313
0.219992 0.5 0.7125 0.0141697
0.219992 0.5 -0.7125 0.0142754
0.715434 0.5 -0.225 0.00442398
0.715434 0.5 0.225 0.0044188
0 0.5 -0.75 0.0117067
0 0.5 0.75 0.0115015
0.67013 0.5 -0.3375 0.00496024
0.67013 0.5 0.3375 0.00496173
0.574156 0.5 -0.4875 0.00640329
0.574156 0.5 0.4875 0.00639576
0 0.5 0.75618 0.0114837
0 0.5 -0.75618 0.0116876
0.0124871 0.5 -0.75618 0.012477
0.0124871 0.5 0.75618 0.0122625
0.756814 0.5 0.0375 0.00393366
0.756814 0.5 -0.0375 0.00393547
0.151149 0.5 0.75 0.0151306
0.151149 0.5 -0.75 0.0153217
0.756814 0.5 -0.1125 0.00396233
0.756814 0.5 0.1125 0.00395906
0.624316 0.5 -0.45 0.00573127
0.624316 0.5 0.45 0.00572067
0.715434 0.5 -0.3 0.00451208
0.715434 0.5 0.3 0.00450869
0.756814 0.5 -0.1875 0.00401259
0.756814 0.5 0.1875 0.00400777
0.67013 0.5 -0.4125 0.0050942
0.67013 0.5 0.4125 0.00508241
0.411736 0.5 -0.675 0.00984475
0.411736 0.5 0.675 0.00983989
0.467897 0.5 -0.6375 0.00853044
0.467897 0.5 0.6375 0.00852647
0.0757758 0.5 -0.7875 0.0163719
0.0757758 0.5 0.7875 0.0161102
0.350249 0.5 -0.7125 0.0111791
0.350249 0.5 0.7125 0.0111715
0.523432 0.5 0.6 0.00753726
0.523432 0.5 -0.6 0.00754713
0.797732 0.5 1.60462e-17 0.00366253
0.756814 0.5 -0.2625 0.00408911
0.756814 0.5 0.2625 0.00407875
0.797732 0.5 0.0736267 0.00367626
0.797732 0.5 -0.075 0.00367616
0.288069 0.5 0.75 0.0126102
0.288069 0.5 -0.75 0.0126764
0.574156 0.5 -0.5625 0.00660635
0.574156 0.5 0.5625 0.00659148
0.715434 0.5 -0.375 0.00462451
0.715434 0.5 0.375 0.00461615
0.797732 0.5 -0.15 0.00371267
0.797732 0.5 0.15 0.00370826
0.624316 0.5 -0.525 0.00591357
0.624316 0.5 0.525 0.0058962
0.219992 0.5 -0.7875 0.0141007
0.219992 0.5 0.7875 0.0139746
0 0.5 -0.81882 0.0115273
0 0.5 0.81882 0.0113367
0.0124871 0.5 -0.81882 0.0123167
0.0124871 0.5 0.81882 0.0121155
0 0.5 -0.825 0.0115155
0 0.5 0.825 0.0113264
0.756814 0.5 -0.3375 0.00417888
0.756814 0.5 0.3375 0.00417826
0.67013 0.5 0.4875 0.00523751
0.67013 0.5 -0.4875 0.00525688
0.797732 0.5 0.225 0.00376474
0.797732 0.5 -0.225 0.00377233
0 0.5 -0.83118 0.011502
0 0.5 0.83118 0.0113141
0.0124871 0.5 -0.83118 0.0122814
0.0124871 0.5 0.83118 0.0120833
0.835107 0.5 -0.0375 0.00340281
0.835107 0.5 0.0375 0.0034009
0.151149 0.5 -0.825 0.0151161
0.151149 0.5 0.825 0.0149244
0.835107 0.5 0.1125 0.00342308
0.835107 0.5 -0.1125 0.00342678
0.715434 0.5 -0.45 0.00476649
0.715434 0.5 0.45 0.00474662
0.797732 0.5 -0.3 0.00385363
0.797732 0.5 0.3 0.00384449
0.467897 0.5 0.7125 0.00876013
0.467897 0.5 -0.7125 0.00877824
0.523432 0.5 -0.675 0.00778814
0.523432 0.5 0.675 0.00776629
0.411736 0.5 0.75 0.0100279
0.411736 0.5 -0.75 0.0100516
0.835107 0.5 -0.1875 0.00347193
0.835107 0.5 0.1875 0.00346611
0.574156 0.5 0.6375 0.00681355
0.574156 0.5 -0.6375 0.00683883
0.350249 0.5 -0.7875 0.0113406
0.350249 0.5 0.7875 0.0113089
0.756814 0.5 -0.4125 0.00430192
0.756814 0.5 0.4125 0.00427971
0.0757758 0.5 -0.8625 0.0161539
0.0757758 0.5 0.8625 0.0159099
0.624316 0.5 -0.6 0.00612499
0.624316 0.5 0.6 0.00609846
0.872064 0.5 4.81386e-17 0.00318836
0.870122 0.5 0.075 0.00321159
0.288069 0.5 -0.825 0.0126962
0.288069 0.5 0.825 0.0126099
0.67013 0.5 -0.5625 0.00544763
0.67013 0.5 0.5625 0.00542056
0.872064 0.5 -0.075 0.00320059
0.835107 0.5 -0.2625 0.00353895
0.835107 0.5 0.2625 0.00352958
0.797732 0.5 -0.375 0.00395491
0.797732 0.5 0.375 0.0039438
0.872064 0.5 0.14794 0.00322832
0.872064 0.5 -0.15 0.00323318
0.715434 0.5 0.525 0.00490922
0.715434 0.5 -0.525 0.00493544
0.219992 0.5 -0.8625 0.0139886
0.219992 0.5 0.8625 0.0138458
0 0.5 -0.89382 0.0114036
0 0.5 0.89382 0.011229
0.0124871 0.5 -0.89382 0.0121829
0.0124871 0.5 0.89382 0.0119982
0 0.5 -0.9 0.0113981
0 0.5 0.9 0.0112248
0.756814 0.5 -0.4875 0.00445076
0.756814 0.5 0.4875 0.00442506
0.872064 0.5 -0.225 0.00328603
0.872064 0.5 0.225 0.00327845
0.835107 0.5 0.3375 0.00361508
0.835107 0.5 -0.3375 0.00363097
0 0.5 -0.90618 0.0113917
0 0.5 0.90618 0.0112201
0.0124871 0.5 -0.90618 0.0121682
0.0124871 0.5 0.90618 0.0119874
0.905821 0.5 0.0375 0.00298193
0.905821 0.5 -0.0375 0.00298381
0.151149 0.5 -0.9 0.0149974
0.151149 0.5 0.9 0.014807
0.905821 0.5 -0.1125 0.00300503
0.905821 0.5 0.1125 0.00300132
0.523432 0.5 -0.75 0.0080563
0.523432 0.5 0.75 0.00801863
0.574156 0.5 -0.7125 0.00710026
0.574156 0.5 0.7125 0.00706143
0.797732 0.5 -0.45 0.00408109
0.797732 0.5 0.45 0.00406204
0.467897 0.5 0.7875 0.00901446
0.467897 0.5 -0.7875 0.00905121
0.624316 0.5 -0.675 0.00636575
0.624316 0.5 0.675 0.00632692
0.411736 0.5 -0.825 0.0102821
0.411736 0.5 0.825 0.0102373
0.872064 0.5 -0.3 0.00336155
0.872064 0.5 0.3 0.00334849
0.67013 0.5 0.6375 0.00562944
0.67013 0.5 -0.6375 0.00566765
0.905821 0.5 -0.1875 0.00304517
0.905821 0.5 0.1875 0.00303899
0.350249 0.5 -0.8625 0.0115245
0.350249 0.5 0.8625 0.0114741
0.835107 0.5 -0.4125 0.00373167
0.835107 0.5 0.4125 0.00372597
0.715434 0.5 -0.6 0.00513209
0.715434 0.5 0.6 0.00509668
0.939201 0.5 3.31766e-17 0.00287646
0.0757758 0.5 -0.9375 0.0160516
0.0757758 0.5 0.9375 0.0158291
0.939112 0.5 0.075 0.00288703
0.939201 0.5 -0.075 0.00288778
0.756814 0.5 -0.5625 0.00462499
0.756814 0.5 0.5625 0.00459255
0.905821 0.5 0.2625 0.00309558
0.905821 0.5 -0.2625 0.00310448
0.288069 0.5 -0.9 0.0127589
0.288069 0.5 0.9 0.0126547
0.872064 0.5 -0.375 0.00345133
0.872064 0.5 0.375 0.00344148
0.939201 0.5 0.148627 0.00291515
0.939201 0.5 -0.15 0.00291794
0.797732 0.5 -0.525 0.00423423
0.797732 0.5 0.525 0.00420617
0.219992 0.5 -0.9375 0.013941
0.219992 0.5 0.9375 0.0137833
0.939201 0.5 -0.225 0.00296657
0.939201 0.5 0.225 0.00296071
0.905821 0.5 -0.3375 0.0031885
0.905821 0.5 0.3375 0.00317049
0.835107 0.5 -0.4875 0.00386463
0.835107 0.5 0.4875 0.00384164
0 0.5 -0.96882 0.0113506
0 0.5 0.96882 0.0111896
0.0124871 0.5 -0.96882 0.0121271
0.0124871 0.5 0.96882 0.0119568
0.96969 0.5 -0.0375 0.00277431
0.96969 0.5 0.0375 0.00277276
0.574156 0.5 0.7875 0.00733405
0.574156 0.5 -0.7875 0.00738986
0 0.5 -0.975 0.011347
0 0.5 0.975 0.0111857
0.624316 0.5 -0.75 0.0066355
0.624316 0.5 0.75 0.00658139
0.96969 0.5 -0.1125 0.00279496
0.96969 0.5 0.1125 0.00279245
0.523432 0.5 -0.825 0.00835067
0.523432 0.5 0.825 0.00829306
0.67013 0.5 -0.7125 0.00591741
0.67013 0.5 0.7125 0.00586514
0 0.5 -0.98118 0.0113461
0 0.5 0.98118 0.0111853
0.467897 0.5 -0.8625 0.00934783
0.467897 0.5 0.8625 0.00928825
0.0124871 0.5 -0.98118 0.0121216
0.0124871 0.5 0.98118 0.0119499
0.872064 0.5 0.45 0.00354841
0.872064 0.5 -0.45 0.0035616
0.715434 0.5 -0.675 0.00535771
0.715434 0.5 0.675 0.00530985
0.939201 0.5 0.3 0.0030255
0.939201 0.5 -0.3 0.00303556
0.151149 0.5 -0.975 0.0149583
0.151149 0.5 0.975 0.0147665
0.96969 0.5 -0.1875 0.00283361
0.96969 0.5 0.1875 0.00282978
0.756814 0.5 0.6375 0.00478378
0.756814 0.5 -0.6375 0.00482742
0.411736 0.5 -0.9 0.0105357
0.411736 0.5 0.9 0.0104702
0.905821 0.5 -0.4125 0.00327141
0.905821 0.5 0.4125 0.00327155
0.995005 0.5 0.0749309 0.00265643
0.797732 0.5 -0.6 0.00441355
0.797732 0.5 0.6 0.00437605
1.00005 0.5 3.26706e-18 0.00261869
0.350249 0.5 0.9375 0.0116619
0.350249 0.5 -0.9375 0.0117334
1.00005 0.5 -0.0749309 0.00262919
0.96969 0.5 -0.2625 0.00289008
0.96969 0.5 0.2625 0.00288547
0.835107 0.5 -0.5625 0.00402186
0.835107 0.5 0.5625 0.00399071
1.00005 0.5 -0.149862 0.0026575
0.939201 0.5 -0.375 0.00311864
0.939201 0.5 0.375 0.00311077
1.00029 0.5 0.148988 0.00265844
0.0757758 0.5 -1.0125 0.0160321
0.0757758 0.5 1.0125 0.0158128
0.288069 0.5 -0.975 0.0128683
0.288069 0.5 0.975 0.012742
0.872064 0.5 -0.525 0.00370046
0.872064 0.5 0.525 0.00367409
1.00005 0.5 0.224793 0.00269963
1.00005 0.5 -0.224793 0.0027034
0.96969 0.5 0.3375 0.00295747
0.96969 0.5 -0.3375 0.00296642
1.02709 0.5 0.0368226 0.0024554
1.02709 0.5 -0.0368226 0.00245649
0.905821 0.5 0.4875 0.0033721
0.905821 0.5 -0.4875 0.00339639
1.02709 0.5 -0.110468 0.00247425
1.02709 0.5 0.110468 0.00246188
0.67013 0.5 -0.7875 0.00619622
0.67013 0.5 0.7875 0.0061274
0.624316 0.5 -0.825 0.00693374
0.624316 0.5 0.825 0.00686098
0.219992 0.5 -1.0125 0.0139516
0.219992 0.5 1.0125 0.0137803
0.574156 0.5 -0.8625 0.00770709
0.574156 0.5 0.8625 0.00762992
0.715434 0.5 -0.75 0.00561225
0.715434 0.5 0.75 0.00554948
0.756814 0.5 -0.7125 0.00505854
0.756814 0.5 0.7125 0.00500148
0.523432 0.5 0.9 0.00858991
0.523432 0.5 -0.9 0.00867
0.939201 0.5 0.45 0.00321023
0.939201 0.5 -0.45 0.00323297
1.04168 0.5 0 0.00238042
1.02709 0.5 -0.184113 0.0025083
1.02709 0.5 0.184113 0.00250575
0 0.5 1.04382 0.0111768
0 0.5 -1.04382 0.0113344
0.0124871 0.5 -1.04382 0.0121099
0.0124871 0.5 1.04382 0.0119414
1.00005 0.5 -0.299723 0.00276779
1.00005 0.5 0.299723 0.00276168
1.04168 0.5 -0.0729162 0.00238905
1.04168 0.5 0.0729162 0.00238771
0.797732 0.5 -0.675 0.00462138
0.797732 0.5 0.675 0.00457078
0.467897 0.5 -0.9375 0.00966627
0.467897 0.5 0.9375 0.00958641
0 0.5 -1.05 0.0113302
0 0.5 1.05 0.0111732
0.835107 0.5 0.6375 0.00416322
0.835107 0.5 -0.6375 0.00420601
1.04168 0.5 -0.145832 0.00241248
1.04168 0.5 0.145832 0.00241056
0.96969 0.5 -0.4125 0.0030555
0.96969 0.5 0.4125 0.00305077
0 0.5 -1.05618 0.0113274
0 0.5 1.05618 0.0111707
0.0124871 0.5 -1.05618 0.0120947
0.0124871 0.5 1.05618 0.0119263
1.05694 0.5 -0.0360765 0.00230512
1.05694 0.5 0.0360765 0.00230396
0.411736 0.5 0.975 0.0107267
0.411736 0.5 -0.975 0.0108205
0.872064 0.5 -0.6 0.00386273
0.872064 0.5 0.6 0.00382765
1.02709 0.5 -0.257758 0.00255931
1.02709 0.5 0.257758 0.00255557
0.151149 0.5 -1.05 0.0149631
0.151149 0.5 1.05 0.014761
1.05694 0.5 -0.108229 0.00231958
1.05694 0.5 0.108229 0.00230263
1.04168 0.5 -0.218749 0.00245108
1.04168 0.5 0.218749 0.00244811
0.905821 0.5 -0.5625 0.0035371
0.905821 0.5 0.5625 0.00351004
1.00005 0.5 -0.374654 0.0028509
1.00005 0.5 0.374654 0.00284245
0.350249 0.5 -1.0125 0.011983
0.350249 0.5 1.0125 0.0118734
1.05694 0.5 -0.180382 0.00234731
1.05694 0.5 0.180382 0.00234478
1.07319 0.5 0.0709442 0.00224687
0.939201 0.5 0.525 0.00334184
0.939201 0.5 -0.525 0.00337491
1.02709 0.5 -0.331404 0.00262856
1.02709 0.5 0.331404 0.00262179
1.08112 0.5 -3.98986e-18 0.00221265
1.04168 0.5 -0.291665 0.00250566
1.04168 0.5 0.291665 0.00250083
1.08112 0.5 -0.0709442 0.00221972
0.96969 0.5 -0.4875 0.00321509
0.96969 0.5 0.4875 0.00315378
1.05694 0.5 -0.252535 0.00238933
1.05694 0.5 0.252535 0.00238537
0.288069 0.5 -1.05 0.0130191
0.288069 0.5 1.05 0.0128647
0.0757758 0.5 -1.0875 0.0159913
0.0757758 0.5 1.0875 0.0157625
1.08112 0.5 -0.141888 0.0022391
1.08145 0.5 0.140165 0.00224164
0.715434 0.5 -0.825 0.00589599
0.715434 0.5 0.825 0.00581509
0.756814 0.5 -0.7875 0.00531794
0.756814 0.5 0.7875 0.00524524
0.67013 0.5 -0.8625 0.00650404
0.67013 0.5 0.8625 0.00641552
0.797732 0.5 0.75 0.00479213
0.797732 0.5 -0.75 0.00485883
0.624316 0.5 -0.9 0.00725993
0.624316 0.5 0.9 0.00716456
1.00005 0.5 -0.449585 0.00296763
1.00005 0.5 0.449585 0.00294141
0.835107 0.5 -0.7125 0.00442041
0.835107 0.5 0.7125 0.0043615
0.574156 0.5 -0.9375 0.00805083
0.574156 0.5 0.9375 0.00794827
1.10076 0.5 0.034981 0.00214505
1.10076 0.5 -0.034981 0.00214572
1.08112 0.5 -0.212833 0.00227144
1.08112 0.5 0.212833 0.00226981
0.872064 0.5 -0.675 0.00405475
0.872064 0.5 0.675 0.00400463
1.04168 0.5 -0.364581 0.00257933
1.04168 0.5 0.364581 0.00257003
1.02709 0.5 0.405049 0.00270754
1.02709 0.5 -0.405049 0.00271973
1.05694 0.5 -0.324688 0.0024464
1.05694 0.5 0.324688 0.0024399
1.10076 0.5 -0.104943 0.00215823
1.10076 0.5 0.104943 0.00215829
0.523432 0.5 -0.975 0.0090185
0.523432 0.5 0.975 0.00891176
0.905821 0.5 -0.6375 0.00370472
0.905821 0.5 0.6375 0.00366528
0.219992 0.5 -1.0875 0.0140146
0.219992 0.5 1.0875 0.0138223
1.11376 0.5 0 0.00210434
0.939201 0.5 -0.6 0.00352021
0.939201 0.5 0.6 0.00349949
1.10076 0.5 -0.174905 0.00218278
1.10076 0.5 0.174905 0.00218298
0.467897 0.5 -1.0125 0.0100219
0.467897 0.5 1.0125 0.009908
1.11376 0.5 -0.0693118 0.00211074
1.11376 0.5 0.0693118 0.00211055
1.08112 0.5 -0.283777 0.0023174
1.08112 0.5 0.283777 0.00231452
0 0.5 1.11882 0.0112019
0 0.5 -1.11882 0.0113505
0.0124871 0.5 -1.11882 0.0121178
0.0124871 0.5 1.11882 0.0119576
0.96969 0.5 -0.5625 0.00335694
0.96969 0.5 0.5625 0.00333786
1.11376 0.5 -0.138624 0.00212881
1.11376 0.5 0.138624 0.00213123
0 0.5 -1.125 0.0113582
0 0.5 1.125 0.0112112
1.10076 0.5 0.244867 0.00222022
1.10076 0.5 -0.244867 0.00222056
0.411736 0.5 -1.05 0.0111361
0.411736 0.5 1.05 0.0110053
1.05694 0.5 -0.396841 0.00252442
1.05694 0.5 0.396841 0.00251092
1.00005 0.5 -0.524516 0.00310536
1.00005 0.5 0.524516 0.00307691
1.04168 0.5 -0.437497 0.00267491
1.04168 0.5 0.437497 0.00265851
0 0.5 -1.13118 0.0113659
0 0.5 1.13118 0.01122
0.0124871 0.5 -1.13118 0.0121401
0.0124871 0.5 1.13118 0.0119834
1.11376 0.5 -0.207935 0.00215922
1.11376 0.5 0.207935 0.00215957
1.02709 0.5 -0.478694 0.00283792
1.02709 0.5 0.478694 0.00281401
0.151149 0.5 -1.125 0.0150291
0.151149 0.5 1.125 0.0148195
1.08112 0.5 0.354721 0.00237333
1.08112 0.5 -0.354721 0.00238031
1.13882 0.5 0.0340295 0.00202278
1.13882 0.5 -0.0340295 0.00202319
0.350249 0.5 -1.0875 0.0122484
0.350249 0.5 1.0875 0.0121005
1.13882 0.5 -0.102088 0.00203472
1.13882 0.5 0.102088 0.00203119
1.10076 0.5 0.314829 0.00227039
1.10076 0.5 -0.314829 0.00227148
0.756814 0.5 -0.8625 0.00560773
0.756814 0.5 0.8625 0.0055144
0.797732 0.5 -0.825 0.00512537
0.797732 0.5 0.825 0.00504051
1.11376 0.5 -0.277247 0.00220247
1.11376 0.5 0.277247 0.00220242
0.835107 0.5 0.7875 0.00458797
0.835107 0.5 -0.7875 0.00466591
0.715434 0.5 -0.9 0.00621058
0.715434 0.5 0.9 0.0061065
0.872064 0.5 -0.75 0.00427759
0.872064 0.5 0.75 0.00420984
1.13882 0.5 0.170147 0.00205852
1.13882 0.5 -0.170147 0.0020575
0.67013 0.5 -0.9375 0.00684046
0.67013 0.5 0.9375 0.00672785
0.905821 0.5 -0.7125 0.00390716
0.905821 0.5 0.7125 0.00384777
1.05694 0.5 -0.468994 0.00262023
1.05694 0.5 0.468994 0.00260218
0.939201 0.5 -0.675 0.00368327
0.939201 0.5 0.675 0.00365021
0.624316 0.5 -0.975 0.00761601
0.624316 0.5 0.975 0.00749423
1.04168 0.5 -0.510414 0.0027905
1.04168 0.5 0.510414 0.00277008
0.96969 0.5 -0.6375 0.00348855
0.96969 0.5 0.6375 0.00349042
0.288069 0.5 -1.125 0.0132134
0.288069 0.5 1.125 0.0130261
1.16179 0.5 0 0.00194423
1.08112 0.5 -0.425665 0.00246049
1.08112 0.5 0.425665 0.00244948
1.13882 0.5 0.238206 0.00209347
1.13882 0.5 -0.238206 0.00209249
1.16179 0.5 -0.0669104 0.0019497
1.16179 0.5 0.0669104 0.00193858
0.574156 0.5 1.0125 0.00829624
0.574156 0.5 -1.0125 0.0084257
0.0757758 0.5 1.1625 0.0158836
0.0757758 0.5 -1.1625 0.0160842
1.00005 0.5 -0.599447 0.00323981
1.00005 0.5 0.599447 0.00322841
1.10076 0.5 -0.384791 0.00234176
1.10076 0.5 0.384791 0.00233471
1.02709 0.5 -0.552339 0.00296253
1.02709 0.5 0.552339 0.00295098
1.11376 0.5 0.346559 0.00225842
1.11376 0.5 -0.346559 0.00226144
1.16179 0.5 -0.133821 0.00196542
1.16179 0.5 0.133821 0.00196509
0.523432 0.5 -1.05 0.00939972
0.523432 0.5 1.05 0.00925954
1.17463 0.5 -0.0331343 0.00190256
1.17463 0.5 0.0331343 0.00190227
1.17463 0.5 -0.099403 0.00191251
1.17463 0.5 0.099403 0.00191353
1.16179 0.5 -0.200731 0.00199205
1.16179 0.5 0.200731 0.00199354
1.13882 0.5 -0.306265 0.00213975
1.13882 0.5 0.306265 0.0021406
0.219992 0.5 -1.1625 0.0141575
0.219992 0.5 1.1625 0.01394
0.467897 0.5 -1.0875 0.0104069
0.467897 0.5 1.0875 0.0102553
1.17463 0.5 -0.165672 0.00193242
1.17463 0.5 0.165672 0.00193436
1.05694 0.5 0.541147 0.00271377
1.05694 0.5 -0.541147 0.00273827
1.18772 0.5 0 0.00186074
1.11376 0.5 -0.415871 0.00233588
1.11376 0.5 0.415871 0.00233048
1.18772 0.5 -0.065614 0.0018655
1.18772 0.5 0.065614 0.0018668
1.08112 0.5 -0.49661 0.00256108
1.08112 0.5 0.49661 0.00254347
1.10076 0.5 -0.454752 0.00242467
1.10076 0.5 0.454752 0.00241811
1.18534 0.5 0.118202 0.00188141
1.16179 0.5 -0.267642 0.00202997
1.16179 0.5 0.267642 0.00203171
0 0.5 -1.19382 0.0114461
0 0.5 1.19382 0.0113111
1.04168 0.5 -0.58333 0.00290847
1.04168 0.5 0.58333 0.00289774
0.0124871 0.5 -1.19382 0.0122203
0.0124871 0.5 1.19382 0.0120745
1.18772 0.5 -0.131228 0.00187958
1.17463 0.5 -0.23194 0.00196327
1.17463 0.5 0.23194 0.00196549
0.411736 0.5 -1.125 0.0114746
0.411736 0.5 1.125 0.0113034
1.13882 0.5 -0.374324 0.00220394
1.13882 0.5 0.374324 0.00220051
0 0.5 -1.2 0.0114547
0 0.5 1.2 0.0113204
0.905821 0.5 -0.7875 0.00413669
0.905821 0.5 0.7875 0.00406194
0.872064 0.5 -0.825 0.00452927
0.872064 0.5 0.825 0.00444396
0.835107 0.5 0.8625 0.00484275
0.835107 0.5 -0.8625 0.00493802
0.939201 0.5 -0.75 0.00387984
0.939201 0.5 0.75 0.00382519
0.797732 0.5 -0.9 0.00542562
0.797732 0.5 0.9 0.00531847
1.02709 0.5 -0.625985 0.00309689
1.02709 0.5 0.625985 0.00308068
0.96969 0.5 -0.7125 0.0036406
0.96969 0.5 0.7125 0.00360423
1.18772 0.5 -0.196842 0.00190364
1.18772 0.5 0.196842 0.00190623
0.756814 0.5 -0.9375 0.00593273
0.756814 0.5 0.9375 0.00581126
0 0.5 -1.20618 0.0114645
0 0.5 1.20618 0.0113309
1.00005 0.5 -0.674378 0.00339234
1.00005 0.5 0.674378 0.00336772
0.0124871 0.5 -1.20618 0.0122446
0.0124871 0.5 1.20618 0.0121003
1.16179 0.5 -0.334552 0.0020816
1.16179 0.5 0.334552 0.00208146
0.715434 0.5 -0.975 0.0065618
0.715434 0.5 0.975 0.00642676
0.151149 0.5 -1.2 0.015188
0.151149 0.5 1.2 0.0149719
1.20942 0.5 -0.0322645 0.00178956
1.20942 0.5 0.0322645 0.00178846
1.17463 0.5 -0.298209 0.00200488
1.17463 0.5 0.298209 0.0020078
1.20942 0.5 -0.0967935 0.0017979
1.20942 0.5 0.0967935 0.00179962
0.350249 0.5 -1.1625 0.0125423
0.350249 0.5 1.1625 0.012349
0.67013 0.5 1.0125 0.00706822
0.67013 0.5 -1.0125 0.00721005
1.11376 0.5 -0.485183 0.00242942
1.11376 0.5 0.485183 0.00241813
1.18772 0.5 -0.262456 0.0019381
1.18772 0.5 0.262456 0.00194135
1.10076 0.5 0.524714 0.0025148
1.10076 0.5 -0.524714 0.00253437
1.20942 0.5 -0.161322 0.00181498
1.20942 0.5 0.161322 0.00181805
1.08112 0.5 0.567554 0.00265683
1.08112 0.5 -0.567554 0.00266317
0.624316 0.5 -1.05 0.00800889
0.624316 0.5 1.05 0.00785181
1.13882 0.5 -0.442383 0.00228042
1.13882 0.5 0.442383 0.00227739
1.05694 0.5 0.6133 0.00283924
1.05694 0.5 -0.6133 0.00284104
1.16179 0.5 -0.401463 0.00214683
1.16179 0.5 0.401463 0.00214521
0.574156 0.5 1.0875 0.00866897
0.574156 0.5 -1.0875 0.00883382
1.17463 0.5 -0.364478 0.00206205
1.17463 0.5 0.364478 0.00206127
1.20942 0.5 0.225851 0.00184545
1.20942 0.5 -0.225851 0.00184171
1.23036 0.5 1.15648e-18 0.00172452
1.2294 0.5 0.0634819 0.00173221
1.04168 0.5 -0.656246 0.00304905
1.04168 0.5 0.656246 0.0030264
1.23036 0.5 -0.0634819 0.00172823
1.18772 0.5 0.32807 0.00198725
1.18772 0.5 -0.32807 0.00198517
0.288069 0.5 1.2 0.0132203
0.288069 0.5 -1.2 0.0134484
1.23036 0.5 -0.126964 0.00173989
1.23036 0.5 0.126964 0.00174261
0.0757758 0.5 -1.2375 0.0162533
0.0757758 0.5 1.2375 0.0160576
0.523432 0.5 -1.125 0.00980823
0.523432 0.5 1.125 0.00962966
1.02709 0.5 0.69963 0.00323301
1.02709 0.5 -0.69963 0.00327247
1.24275 0.5 -0.0314313 0.00168756
1.24275 0.5 0.0314313 0.00168785
1.20942 0.5 -0.29038 0.00187808
1.20942 0.5 0.29038 0.00188303
1.11376 0.5 -0.554494 0.00252406
1.11376 0.5 0.554494 0.00252565
1.23036 0.5 -0.190446 0.00176016
1.23036 0.5 0.190446 0.00176398
1.24275 0.5 -0.0942939 0.00169456
1.24275 0.5 0.0942939 0.00169705
1.13882 0.5 -0.510442 0.00237816
1.13882 0.5 0.510442 0.00236674
0.96969 0.5 0.7875 0.00379523
0.96969 0.5 -0.7875 0.00384415
1.00005 0.5 0.749309 0.00353473
1.00005 0.5 -0.749309 0.00358194
0.939201 0.5 -0.825 0.00410772
0.939201 0.5 0.825 0.00403787
0.905821 0.5 -0.8625 0.00439677
0.905821 0.5 0.8625 0.00430344
1.17463 0.5 0.430746 0.00213061
1.17463 0.5 -0.430746 0.00213005
1.10076 0.5 0.594676 0.00263848
1.10076 0.5 -0.594676 0.00262055
1.18772 0.5 -0.393684 0.00204507
1.18772 0.5 0.393684 0.00204611
1.24275 0.5 -0.157157 0.00170947
1.24275 0.5 0.157157 0.00171377
1.16179 0.5 -0.468373 0.0022295
1.16179 0.5 0.468373 0.00222248
0.467897 0.5 -1.1625 0.0108095
0.467897 0.5 1.1625 0.0106177
0.872064 0.5 -0.9 0.00481457
0.872064 0.5 0.9 0.00471063
1.25401 0.5 0 0.00165826
0.835107 0.5 -0.9375 0.00525274
0.835107 0.5 0.9375 0.00513421
1.25401 0.5 0.0622994 0.00166259
1.25401 0.5 -0.0622994 0.00166143
1.08112 0.5 0.638498 0.0027699
1.08112 0.5 -0.638498 0.00277837
1.23036 0.5 -0.253928 0.00178941
1.23036 0.5 0.253928 0.00179422
0.219992 0.5 -1.2375 0.0143851
0.219992 0.5 1.2375 0.0141366
1.2531 0.5 0.121964 0.00167527
1.05694 0.5 -0.685453 0.00299352
1.05694 0.5 0.685453 0.00295725
0.797732 0.5 -0.975 0.00576291
0.797732 0.5 0.975 0.00562499
1.25401 0.5 -0.124599 0.0016719
1.20942 0.5 -0.354909 0.00192824
1.20942 0.5 0.354909 0.00193064
1.24275 0.5 -0.220019 0.00173304
1.24275 0.5 0.220019 0.00173838
0.756814 0.5 -1.0125 0.00630675
0.756814 0.5 1.0125 0.00614329
1.25401 0.5 -0.186898 0.00169031
1.25401 0.5 0.186898 0.00169509
0.411736 0.5 -1.2 0.0118134
0.411736 0.5 1.2 0.0115896
0 0.5 -1.26882 0.0115872
0 0.5 1.26882 0.0114596
0.0124871 0.5 -1.26882 0.0123672
0.0124871 0.5 1.26882 0.012229
0.715434 0.5 -1.05 0.0069506
0.715434 0.5 1.05 0.00678005
1.23036 0.5 -0.317409 0.00182948
1.23036 0.5 0.317409 0.00183392
1.04168 0.5 -0.729162 0.00323071
1.04168 0.5 0.729162 0.00318402
1.18772 0.5 -0.459298 0.00212218
1.18772 0.5 0.459298 0.00211767
1.24275 0.5 0.282882 0.00177211
1.24275 0.5 -0.282882 0.00176522
0 0.5 -1.275 0.0116005
0 0.5 1.275 0.0114736
1.27472 0.5 -0.0306319 0.00159434
1.27472 0.5 0.0306319 0.00159486
1.17463 0.5 -0.497015 0.00222124
1.17463 0.5 0.497015 0.00220996
1.11376 0.5 0.623806 0.00263135
1.11376 0.5 -0.623806 0.00262852
1.13882 0.5 -0.578501 0.00245764
1.13882 0.5 0.578501 0.00247927
0.67013 0.5 -1.0875 0.0076288
0.67013 0.5 1.0875 0.00743775
1.27472 0.5 0.0918957 0.00161476
1.27472 0.5 -0.0918957 0.00160018
1.25401 0.5 -0.249198 0.00171707
1.25401 0.5 0.249198 0.00172317
1.16179 0.5 -0.535283 0.00231115
1.16179 0.5 0.535283 0.00231831
1.20942 0.5 0.419438 0.00199242
1.20942 0.5 -0.419438 0.00198899
0 0.5 -1.28118 0.0116143
0 0.5 1.28118 0.0114882
0.0124871 0.5 -1.28118 0.0124042
0.0124871 0.5 1.28118 0.0122675
1.27472 0.5 -0.15316 0.00161304
1.27472 0.5 0.15316 0.00161792
0.151149 0.5 -1.275 0.0154193
0.151149 0.5 1.275 0.0151932
1.02709 0.5 -0.773275 0.00348024
1.02709 0.5 0.773275 0.00342422