# nutMean  POINT_DATA 63140
# x  y  z  nutMean
0 0.1 0 0.00522856
0 0.1 -0.0179898 0.00523234
0 0.1 0.0179898 0.00522485
0.0363518 0.1 -0.0179898 0.0117885
0.0363518 0.1 0.0179898 0.0118907
0 0.1 -0.0570102 0.0052526
0 0.1 0.0570102 0.00523012
0.0363518 0.1 0.0570102 0.011896
0.0363518 0.1 -0.0570102 0.0118087
0 0.1 -0.075 0.00526718
0 0.1 0.075 0.00523849
0.0757758 0.1 -0.0375 0.0187145
0.0757758 0.1 0.0375 0.0189273
0 0.1 -0.0929898 0.00528229
0 0.1 0.0929898 0.00524698
0.0363518 0.1 -0.0929898 0.011279
0.0363518 0.1 0.0929898 0.0114794
0 0.1 -0.13201 0.00531459
0 0.1 0.13201 0.00526996
0.0757758 0.1 -0.1125 0.0175967
0.0757758 0.1 0.1125 0.0180584
0.0363518 0.1 -0.13201 0.0113113
0.0363518 0.1 0.13201 0.0115024
0 0.1 -0.15 0.0053292
0 0.1 0.15 0.00528223
0.150379 0.1 -4.33681e-19 0.0181457
0 0.1 -0.16799 0.0053452
0 0.1 0.16799 0.00529533
0.150379 0.1 -0.075 0.0169338
0.150379 0.1 0.075 0.0175721
0.0363518 0.1 -0.16799 0.0104802
0.0363518 0.1 0.16799 0.0106553
0.0757758 0.1 -0.1875 0.0159108
0.0757758 0.1 0.1875 0.0163165
0 0.1 -0.20701 0.00536997
0 0.1 0.20701 0.00532056
0.0363518 0.1 -0.20701 0.010505
0.0363518 0.1 0.20701 0.0106805
0.150379 0.1 -0.15 0.0149513
0.150379 0.1 0.15 0.0156987
0.219992 0.1 -0.0375 0.0174022
0.219992 0.1 0.0375 0.0175945
0 0.1 -0.225 0.0053786
0 0.1 0.225 0.00533137
0 0.1 -0.24299 0.00538893
0 0.1 0.24299 0.00534384
0.0363518 0.1 0.24299 0.00990988
0.0363518 0.1 -0.24299 0.00992397
0.219992 0.1 -0.1125 0.0141069
0.219992 0.1 0.1125 0.0157723
0.150379 0.1 0.225 0.0139681
0.150379 0.1 -0.225 0.0137693
0.0757758 0.1 0.2625 0.0147718
0.0757758 0.1 -0.2625 0.0147668
0 0.1 -0.28201 0.00539665
0 0.1 0.28201 0.00535585
0.0363518 0.1 -0.28201 0.00993169
0.0363518 0.1 0.28201 0.00992188
0.287374 0.1 0 0.0136495
0.219992 0.1 -0.1875 0.0123161
0.219992 0.1 0.1875 0.0127476
0.287374 0.1 -0.075 0.0127117
0.287374 0.1 0.075 0.013233
0 0.1 -0.3 0.00539555
0 0.1 0.3 0.00535642
0 0.1 -0.31799 0.00539546
0 0.1 0.31799 0.00535829
0.0363518 0.1 -0.31799 0.00964789
0.0363518 0.1 0.31799 0.00954282
0.287374 0.1 -0.15 0.0113363
0.287374 0.1 0.15 0.0119341
0.150379 0.1 -0.3 0.0132501
0.150379 0.1 0.3 0.0131937
0.219992 0.1 -0.2625 0.0122048
0.219992 0.1 0.2625 0.0121523
0.0757758 0.1 -0.3375 0.0141916
0.0757758 0.1 0.3375 0.0140168
0.350249 0.1 -0.0375 0.00992553
0.350249 0.1 0.0375 0.00999144
0 0.1 0.35701 0.00535466
0 0.1 -0.35701 0.00538949
0.0363518 0.1 -0.35701 0.00964193
0.0363518 0.1 0.35701 0.0095392
0.287374 0.1 -0.225 0.0108039
0.287374 0.1 0.225 0.0109344
0.350249 0.1 0.1125 0.00984559
0.350249 0.1 -0.1125 0.00965096
0 0.1 -0.375 0.00538504
0 0.1 0.375 0.00535077
0 0.1 -0.39299 0.00538114
0 0.1 0.39299 0.0053475
0.0363518 0.1 -0.39299 0.00934788
0.0363518 0.1 0.39299 0.00925763
0.350249 0.1 -0.1875 0.00941181
0.350249 0.1 0.1875 0.0095451
0.219992 0.1 -0.3375 0.0119373
0.219992 0.1 0.3375 0.0119276
0.150379 0.1 -0.375 0.0130123
0.150379 0.1 0.375 0.0128509
0.411108 0.1 -2.21177e-17 0.00821302
0.287374 0.1 -0.3 0.0107369
0.287374 0.1 0.3 0.0107166
0.411108 0.1 0.075 0.00819857
0.411108 0.1 -0.075 0.00812408
0.0757758 0.1 -0.4125 0.0135922
0.0757758 0.1 0.4125 0.0134423
0 0.1 -0.43201 0.00536391
0 0.1 0.43201 0.00533365
0.0363518 0.1 -0.43201 0.00933065
0.0363518 0.1 0.43201 0.00924377
0.411108 0.1 -0.15 0.00799518
0.411108 0.1 0.15 0.00809232
0.350249 0.1 -0.2625 0.00940468
0.350249 0.1 0.2625 0.00941266
0 0.1 -0.45 0.00535286
0 0.1 0.45 0.00532494
0.219992 0.1 -0.4125 0.0123964
0.219992 0.1 0.4125 0.0120827
0 0.1 -0.46799 0.00534198
0 0.1 0.46799 0.00531652
0.411108 0.1 -0.225 0.00794776
0.411108 0.1 0.225 0.00799101
0.467897 0.1 0.0375 0.00654262
0.467897 0.1 -0.0375 0.00653075
0.0363518 0.1 -0.46799 0.00904464
0.0363518 0.1 0.46799 0.00897029
0.287374 0.1 -0.375 0.0108515
0.287374 0.1 0.375 0.0107595
0.150379 0.1 -0.45 0.0131175
0.150379 0.1 0.45 0.0129725
0.467897 0.1 -0.1125 0.00652027
0.467897 0.1 0.1125 0.00655058
0.350249 0.1 0.3375 0.00948483
0.350249 0.1 -0.3375 0.00951508
0.0757758 0.1 -0.4875 0.013011
0.0757758 0.1 0.4875 0.0128871
0.467897 0.1 -0.1875 0.00651825
0.467897 0.1 0.1875 0.00655382
0 0.1 -0.50701 0.00531635
0 0.1 0.50701 0.00529332
0.0363518 0.1 -0.50701 0.00901901
0.0363518 0.1 0.50701 0.00894709
0.411108 0.1 -0.3 0.00801318
0.411108 0.1 0.3 0.00800291
0.522864 0.1 -2.08167e-17 0.00563394
0 0.1 -0.525 0.0053041
0 0.1 0.525 0.00528097
0.522864 0.1 -0.075 0.00563443
0.522864 0.1 0.075 0.00564413
0.287374 0.1 -0.45 0.0113145
0.287374 0.1 0.45 0.0112388
0.219992 0.1 -0.4875 0.01348
0.219992 0.1 0.4875 0.0134878
0.467897 0.1 0.2625 0.00656928
0.467897 0.1 -0.2625 0.00657187
0.350249 0.1 -0.4125 0.00967243
0.350249 0.1 0.4125 0.00964875
0 0.1 -0.54299 0.00529146
0 0.1 0.54299 0.00526839
0.522864 0.1 0.15 0.00566239
0.522864 0.1 -0.15 0.00564852
0.0363518 0.1 -0.54299 0.00876839
0.0363518 0.1 0.54299 0.00870325
0.150379 0.1 -0.525 0.0131454
0.150379 0.1 0.525 0.0131436
0.411108 0.1 -0.375 0.00814437
0.411108 0.1 0.375 0.008121
0.0757758 0.1 -0.5625 0.0124968
0.0757758 0.1 0.5625 0.0123883
0.522864 0.1 -0.225 0.00568675
0.522864 0.1 0.225 0.00569295
0.574156 0.1 -0.0375 0.0047657
0.574156 0.1 0.0375 0.00476526
0.467897 0.1 -0.3375 0.00667728
0.467897 0.1 0.3375 0.00665986
0 0.1 -0.58201 0.00526594
0 0.1 0.58201 0.00524292
0.0363518 0.1 -0.58201 0.00874288
0.0363518 0.1 0.58201 0.00867778
0.574156 0.1 -0.1125 0.00478863
0.574156 0.1 0.1125 0.00478659
0.287374 0.1 -0.525 0.0116802
0.287374 0.1 0.525 0.0117555
0 0.1 -0.6 0.00525467
0 0.1 0.6 0.00523184
0.350249 0.1 -0.4875 0.00985667
0.350249 0.1 0.4875 0.00987564
0.522864 0.1 0.3 0.00575688
0.522864 0.1 -0.3 0.00576777
0.219992 0.1 -0.5625 0.0135553
0.219992 0.1 0.5625 0.0137635
0.574156 0.1 -0.1875 0.0048329
0.574156 0.1 0.1875 0.00482604
0.411108 0.1 -0.45 0.00831707
0.411108 0.1 0.45 0.00830486
0 0.1 -0.61799 0.00524276
0 0.1 0.61799 0.00522022
0.150379 0.1 -0.6 0.012873
0.150379 0.1 0.6 0.0129198
0.0363518 0.1 -0.61799 0.00852569
0.0363518 0.1 0.61799 0.0084652
0.467897 0.1 0.4125 0.00680715
0.467897 0.1 -0.4125 0.00683076
0.623803 0.1 1.04083e-17 0.00424568
0.623803 0.1 -0.075 0.00425901
0.623803 0.1 0.075 0.00425514
0.574156 0.1 -0.2625 0.00488909
0.574156 0.1 0.2625 0.00488845
0.623803 0.1 -0.15 0.00429429
0.623803 0.1 0.15 0.00428567
0.0757758 0.1 0.6375 0.0119503
0.0757758 0.1 -0.6375 0.0120494
0.522864 0.1 -0.375 0.0058932
0.522864 0.1 0.375 0.00586889
0 0.1 0.65701 0.00519763
0 0.1 -0.65701 0.00521961
0.0363518 0.1 0.65701 0.0084426
0.0363518 0.1 -0.65701 0.00850254
0.350249 0.1 -0.5625 0.0099939
0.350249 0.1 0.5625 0.0100642
0.623803 0.1 -0.225 0.00434867
0.623803 0.1 0.225 0.00433713
0.287374 0.1 -0.6 0.0117036
0.287374 0.1 0.6 0.0118367
0.574156 0.1 -0.3375 0.0049981
0.574156 0.1 0.3375 0.00497506
0.411108 0.1 -0.525 0.00849978
0.411108 0.1 0.525 0.00851729
0.67013 0.1 -0.0375 0.00374576
0.67013 0.1 0.0375 0.00374243
0.219992 0.1 0.6375 0.0135067
0.219992 0.1 -0.6375 0.0133328
0 0.1 -0.675 0.00520952
0 0.1 0.675 0.00518788
0.467897 0.1 -0.4875 0.00702827
0.467897 0.1 0.4875 0.00700744
0.67013 0.1 -0.1125 0.00377225
0.67013 0.1 0.1125 0.0037628
0.522864 0.1 -0.45 0.00605619
0.522864 0.1 0.45 0.00602742
0.150379 0.1 0.675 0.0125793
0.150379 0.1 -0.675 0.0125568
0.623803 0.1 0.3 0.0044121
0.623803 0.1 -0.3 0.00443013
0 0.1 -0.69299 0.00519875
0 0.1 0.69299 0.00517748
0.0363518 0.1 0.69299 0.00826325
0.0363518 0.1 -0.69299 0.00832034
0.67013 0.1 0.1875 0.00380371
0.67013 0.1 -0.1875 0.00381956
0.574156 0.1 -0.4125 0.00513263
0.574156 0.1 0.4125 0.00509948
0.714971 0.1 -1.82146e-17 0.00340053
0.0757758 0.1 0.7125 0.0115803
0.0757758 0.1 -0.7125 0.011674
0.714971 0.1 -0.075 0.00341538
0.714971 0.1 0.075 0.00340808
0.67013 0.1 -0.2625 0.00388903
0.67013 0.1 0.2625 0.00386676
0.411108 0.1 -0.6 0.00865853
0.411108 0.1 0.6 0.00870643
0.350249 0.1 -0.6375 0.0100854
0.350249 0.1 0.6375 0.010171
0.623803 0.1 -0.375 0.00454321
0.623803 0.1 0.375 0.00451331
0.714971 0.1 0.15 0.00343704
0.714971 0.1 -0.15 0.00345117
0.467897 0.1 -0.5625 0.00723981
0.467897 0.1 0.5625 0.00724295
0 0.1 -0.73201 0.00517853
0 0.1 0.73201 0.00515797
0.0363518 0.1 -0.73201 0.00830012
0.0363518 0.1 0.73201 0.00824374
0.287374 0.1 0.675 0.0117454
0.287374 0.1 -0.675 0.0116375
0.522864 0.1 -0.525 0.00625011
0.522864 0.1 0.525 0.00622663
0.219992 0.1 0.7125 0.0132037
0.219992 0.1 -0.7125 0.0131044
0.714971 0.1 0.225 0.00348644
0.714971 0.1 -0.225 0.00350795
0 0.1 0.75 0.00514987
0 0.1 -0.75 0.00517008
0.67013 0.1 -0.3375 0.0039803
0.67013 0.1 0.3375 0.00395453
0.574156 0.1 0.4875 0.00526329
0.574156 0.1 -0.4875 0.00530052
0.756814 0.1 -0.0375 0.0030701
0.756814 0.1 0.0375 0.00306582
0.150379 0.1 0.746002 0.012271
0.150379 0.1 -0.75 0.0122784
0.756814 0.1 -0.1125 0.00309537
0.756814 0.1 0.1125 0.00308331
0 0.1 0.76799 0.00514109
0 0.1 -0.76799 0.00516091
0.0363518 0.1 0.76799 0.00809817
0.0363518 0.1 -0.76799 0.00815187
0.623803 0.1 -0.45 0.00468494
0.623803 0.1 0.45 0.00464667
0.714971 0.1 0.3 0.00355846
0.714971 0.1 -0.3 0.00358315
0.756814 0.1 -0.1875 0.00313953
0.756814 0.1 0.1875 0.0031205
0.67013 0.1 -0.4125 0.00409848
0.67013 0.1 0.4125 0.00406093
0.411108 0.1 -0.675 0.00879502
0.411108 0.1 0.675 0.00885537
0.467897 0.1 -0.6375 0.00743135
0.467897 0.1 0.6375 0.00746618
0.0757758 0.1 -0.7875 0.0113683
0.0757758 0.1 0.7875 0.01128
0.350249 0.1 0.7125 0.0102414
0.350249 0.1 -0.7125 0.0101658
0.522864 0.1 -0.6 0.00645814
0.522864 0.1 0.6 0.00644788
0.797314 0.1 -2.86229e-17 0.00282507
0.287374 0.1 0.746002 0.0116753
0.797314 0.1 -0.075 0.00283913
0.797314 0.1 0.075 0.00283092
0.756814 0.1 0.2625 0.0031771
0.756814 0.1 -0.2625 0.0032058
0.287374 0.1 -0.75 0.0115748
0.574156 0.1 -0.5625 0.00550042
0.574156 0.1 0.5625 0.00546247
0 0.1 0.80701 0.00512527
0 0.1 -0.80701 0.00514434
0.714971 0.1 -0.375 0.00368175
0.714971 0.1 0.375 0.00364937
0.0363518 0.1 -0.80701 0.00813529
0.0363518 0.1 0.80701 0.00808235
0.797314 0.1 -0.15 0.00287184
0.797314 0.1 0.15 0.00285617
0.623803 0.1 -0.525 0.0048572
0.623803 0.1 0.525 0.00481451
0.219992 0.1 0.7875 0.0129479
0.219992 0.1 -0.7875 0.0128936
0.149792 0.1 0.80701 0.0120748
0 0.1 0.825 0.00511908
0 0.1 -0.825 0.00513776
0.797314 0.1 -0.225 0.00292341
0.797314 0.1 0.225 0.00289984
0.756814 0.1 -0.3375 0.00327995
0.756814 0.1 0.3375 0.00325797
0.67013 0.1 -0.4875 0.00424556
0.67013 0.1 0.4875 0.0042006
0.835107 0.1 -0.0375 0.00259134
0.835107 0.1 0.0375 0.00258698
0.150379 0.1 -0.825 0.0120431
0.835107 0.1 -0.1125 0.00261369
0.835107 0.1 0.1125 0.00260159
0 0.1 0.84299 0.00511217
0 0.1 -0.84299 0.00513046
0.0363518 0.1 0.84299 0.0079681
0.0363518 0.1 -0.84299 0.00801824
0.714971 0.1 -0.45 0.0038087
0.714971 0.1 0.45 0.00376449
0.411108 0.1 0.746002 0.00900484
0.797314 0.1 -0.3 0.00299184
0.797314 0.1 0.3 0.00296356
0.467897 0.1 -0.7125 0.0076089
0.467897 0.1 0.7125 0.00765658
0.522864 0.1 0.675 0.00667144
0.522864 0.1 -0.675 0.00667246
0.411108 0.1 -0.75 0.00893695
0.835107 0.1 -0.1875 0.00265287
0.835107 0.1 0.1875 0.00263341
0.286844 0.1 0.80701 0.0115919
0.574156 0.1 0.6375 0.00569022
0.574156 0.1 -0.6375 0.0057287
0.350249 0.1 -0.7875 0.0102588
0.350249 0.1 0.7875 0.0103161
0.756814 0.1 0.4125 0.00334701
0.756814 0.1 -0.4125 0.00339117
0.623803 0.1 -0.6 0.00505858
0.623803 0.1 0.6 0.00501263
0.0757758 0.1 0.8625 0.0110442
0.0757758 0.1 -0.8625 0.0111268
0.871687 0.1 -1.73472e-17 0.00240852
0.287374 0.1 -0.825 0.0115311
0.871687 0.1 -0.075 0.00242117
0.871687 0.1 0.075 0.00241307
0.67013 0.1 -0.5625 0.00442061
0.67013 0.1 0.5625 0.0043704
0.835107 0.1 0.2625 0.00268267
0.835107 0.1 -0.2625 0.00270975
0.797314 0.1 -0.375 0.00307938
0.797314 0.1 0.375 0.00304537
0 0.1 0.88201 0.00510044
0 0.1 -0.88201 0.00511786
0.0363518 0.1 0.88201 0.00795636
0.0363518 0.1 -0.88201 0.00800565
0.871687 0.1 0.15 0.00243444
0.871687 0.1 -0.15 0.00245006
0.714971 0.1 -0.525 0.00396089
0.714971 0.1 0.525 0.00391048
0.219992 0.1 0.8625 0.0127323
0.219992 0.1 -0.8625 0.0127062
0 0.1 0.9 0.00509628
0 0.1 -0.9 0.00511326
0.756814 0.1 -0.4875 0.00352289
0.756814 0.1 0.4875 0.0034729
0.871687 0.1 -0.225 0.00249502
0.871687 0.1 0.225 0.00247207
0.835107 0.1 -0.3375 0.00278628
0.835107 0.1 0.3375 0.00275111
0.410629 0.1 0.80701 0.00910073
0.905821 0.1 -0.0375 0.00223458
0.905821 0.1 0.0375 0.00223034
0.522864 0.1 0.746002 0.00690359
0.150379 0.1 0.9 0.0118203
0.905821 0.1 0.1125 0.00224255
0.905821 0.1 -0.1125 0.00225424
0.522864 0.1 -0.75 0.00690603
0.574156 0.1 -0.7125 0.00598516
0.574156 0.1 0.7125 0.00594112
0.797314 0.1 -0.45 0.00319058
0.797314 0.1 0.45 0.00314648
0.467897 0.1 0.7875 0.0078463
0.467897 0.1 -0.7875 0.00781974
0.150379 0.1 -0.903998 0.0118874
0 0.1 0.91799 0.00509138
0 0.1 -0.91799 0.00510789
0.0363518 0.1 0.91799 0.00787008
0.0363518 0.1 -0.91799 0.00791673
0.623803 0.1 -0.675 0.00528817
0.623803 0.1 0.675 0.00523714
0.411108 0.1 -0.825 0.00911033
0.871687 0.1 -0.3 0.00255782
0.871687 0.1 0.3 0.00252678
0.67013 0.1 0.6375 0.00456731
0.67013 0.1 -0.6375 0.00462383
0.905821 0.1 -0.1875 0.00228873
0.905821 0.1 0.1875 0.0022695
0.350249 0.1 0.8625 0.0104047
0.350249 0.1 -0.8625 0.0103751
0.835107 0.1 -0.4125 0.00287485
0.835107 0.1 0.4125 0.00284017
0.714971 0.1 -0.6 0.00413968
0.714971 0.1 0.6 0.00408271
0.93886 0.1 -1.25767e-17 0.00213387
0.0757758 0.1 0.9375 0.0108659
0.0757758 0.1 -0.9375 0.0109433
0.93886 0.1 -0.075 0.00214502
0.93886 0.1 0.075 0.00213777
0.756814 0.1 -0.5625 0.0036784
0.756814 0.1 0.5625 0.0036221
0.905821 0.1 -0.2625 0.00233816
0.905821 0.1 0.2625 0.00231212
0.287374 0.1 0.9 0.0115285
0.287374 0.1 -0.903998 0.0114895
0.871687 0.1 -0.375 0.00263473
0.871687 0.1 0.375 0.00260039
0.93886 0.1 -0.15 0.00217037
0.93886 0.1 0.15 0.00215632
0.797314 0.1 -0.525 0.00332476
0.797314 0.1 0.525 0.00327233
0 0.1 0.95701 0.00508382
0 0.1 -0.95701 0.00509953
0.0363518 0.1 0.95701 0.00786251
0.0363518 0.1 -0.95701 0.00790838
0.522432 0.1 0.80701 0.0070864
0.219992 0.1 0.9375 0.0125551
0.219992 0.1 -0.9375 0.0125597
0.93886 0.1 -0.225 0.00220964
0.93886 0.1 0.225 0.00218907
0.905821 0.1 -0.3375 0.00240671
0.905821 0.1 0.3375 0.00237085
0.835107 0.1 0.4875 0.00294101
0.835107 0.1 -0.4875 0.00298878
0.96969 0.1 -0.0375 0.00203911
0.96969 0.1 0.0375 0.00203555
0.61613 0.1 0.75 0.00548651
0.574156 0.1 0.7875 0.00621546
0.574156 0.1 -0.7875 0.0062707
0 0.1 0.975 0.00508166
0 0.1 -0.975 0.00509708
0.623803 0.1 -0.75 0.00554649
0.96969 0.1 -0.1125 0.00205631
0.96969 0.1 0.1125 0.00204675
0.522864 0.1 -0.825 0.00717148
0.67013 0.1 -0.7125 0.00485513
0.67013 0.1 0.7125 0.00479082
0.871687 0.1 -0.45 0.00273022
0.871687 0.1 0.45 0.00269003
0.467897 0.1 -0.8625 0.00808698
0.467897 0.1 0.8625 0.00807507
0.714971 0.1 -0.675 0.00434599
0.714971 0.1 0.675 0.00428094
0.93886 0.1 -0.3 0.00226444
0.93886 0.1 0.3 0.00223656
0.150379 0.1 0.975 0.0116681
0.150379 0.1 -0.975 0.0117133
0.96969 0.1 -0.1875 0.00208643
0.96969 0.1 0.1875 0.00207065
0.411108 0.1 0.9 0.00931299
0.756814 0.1 -0.6375 0.00386049
0.756814 0.1 0.6375 0.00379587
0.990306 0.1 0 0.00196008
0 0.1 0.99299 0.00507872
0 0.1 -0.99299 0.00509381
0.411108 0.1 -0.903998 0.00927153
0.990306 0.1 -0.075 0.00196997
0.990306 0.1 0.075 0.00196363
0.0363518 0.1 0.99299 0.00780163
0.0363518 0.1 -0.99299 0.00784487
0.905821 0.1 -0.4125 0.00248103
0.905821 0.1 0.4125 0.00244935
0.797314 0.1 -0.6 0.00348319
0.797314 0.1 0.6 0.00342257
0.350249 0.1 0.9375 0.0105178
0.350249 0.1 -0.9375 0.0105026
0.990306 0.1 -0.15 0.00199264
0.990306 0.1 0.15 0.0019804
0.96969 0.1 -0.2625 0.00212959
0.96969 0.1 0.2625 0.00210825
0.835107 0.1 -0.5625 0.0031249
0.835107 0.1 0.5625 0.00306919
0.93886 0.1 -0.375 0.00233212
0.93886 0.1 0.375 0.00230052
0.0757758 0.1 1.0125 0.0107399
0.0757758 0.1 -1.0125 0.010812
0.990306 0.1 -0.225 0.0020281
0.990306 0.1 0.225 0.00201008
0.287374 0.1 -0.975 0.011519
0.287374 0.1 0.975 0.0115153
0.871687 0.1 -0.525 0.00285085
0.871687 0.1 0.525 0.00279829
1.02149 0.1 -0.0369628 0.00181598
1.02149 0.1 0.0369628 0.00181285
0.96969 0.1 0.3375 0.0021594
0.96969 0.1 -0.3375 0.00218782
1.02149 0.1 -0.110888 0.00183023
1.02149 0.1 0.110888 0.00182175
0.905821 0.1 -0.4875 0.00258645
0.905821 0.1 0.4875 0.00253978
0.623803 0.1 0.819003 0.00564702
0 0.1 1.03201 0.0050753
0 0.1 -1.03201 0.00508971
0.0363518 0.1 1.03201 0.00779821
0.0363518 0.1 -1.03201 0.00784077
0.67013 0.1 -0.7875 0.00511596
0.67013 0.1 0.7875 0.00504045
0.623803 0.1 -0.825 0.00583008
0.990306 0.1 0.3 0.00205314
0.990306 0.1 -0.3 0.00207735
0.219992 0.1 1.0125 0.0124278
0.219992 0.1 -1.0125 0.0124571
0.574156 0.1 0.8625 0.00651272
0.574156 0.1 -0.8625 0.00656729
0.714971 0.1 -0.75 0.00458076
0.714971 0.1 0.75 0.00450508
1.02149 0.1 -0.184814 0.00185619
1.02149 0.1 0.184814 0.00184225
0.756814 0.1 -0.7125 0.00406981
0.756814 0.1 0.7125 0.00399541
0.522864 0.1 0.9 0.00742239
0.93886 0.1 -0.45 0.00242473
0.93886 0.1 0.45 0.00237932
1.04168 0.1 0 0.00174537
1.04168 0.1 -0.0729162 0.0017531
1.04168 0.1 0.0729162 0.00174775
0.522864 0.1 -0.903998 0.00741368
0.797314 0.1 -0.675 0.00366798
0.797314 0.1 0.675 0.00359722
0.467897 0.1 0.9375 0.00834892
0.467897 0.1 -0.9375 0.00839258
0 0.1 1.05 0.00507519
0 0.1 -1.05 0.00508926
0.835107 0.1 -0.6375 0.00328551
0.835107 0.1 0.6375 0.0032197
1.04168 0.1 -0.145832 0.00177064
1.04168 0.1 0.145832 0.00176038
1.02149 0.1 -0.25874 0.00189434
1.02149 0.1 0.25874 0.00187491
0.96969 0.1 -0.4125 0.00225762
0.96969 0.1 0.4125 0.00222706
0.411108 0.1 0.975 0.0095181
0.411108 0.1 -0.975 0.00954068
0.871687 0.1 -0.6 0.00299454
0.871687 0.1 0.6 0.0029312
1.0579 0.1 -0.0360525 0.00169697
1.0579 0.1 0.0360525 0.00169413
0.990306 0.1 -0.375 0.00214063
0.990306 0.1 0.375 0.00211114
0.150379 0.1 1.05 0.0115636
0.150379 0.1 -1.05 0.011618
1.0579 0.1 -0.108157 0.00170816
1.0579 0.1 0.108157 0.00170071
1.04168 0.1 -0.218749 0.00179859
1.04168 0.1 0.218749 0.00178326
0.905821 0.1 -0.5625 0.00271377
0.905821 0.1 0.5625 0.00265372
0 0.1 1.06799 0.00507423
0 0.1 -1.06799 0.00508794
0.0363518 0.1 -1.06799 0.00779929
0.0363518 0.1 1.06799 0.00775966
0.350249 0.1 1.0125 0.0106444
0.350249 0.1 -1.0125 0.0106417
1.0579 0.1 -0.180262 0.00172796
1.0579 0.1 0.180262 0.00171569
1.02149 0.1 0.332665 0.00192035
1.02149 0.1 -0.332665 0.00194592
0.93886 0.1 -0.525 0.00254161
0.93886 0.1 0.525 0.00248331
1.08012 0.1 4.48137e-18 0.00163908
1.04168 0.1 -0.291665 0.00183781
1.04168 0.1 0.291665 0.0018171
1.08012 0.1 -0.0709942 0.00164553
1.08012 0.1 0.0709942 0.0016409
0.96969 0.1 -0.4875 0.00237838
0.96969 0.1 0.4875 0.00230595
1.0579 0.1 -0.252367 0.00175737
1.0579 0.1 0.252367 0.00173999
0.990306 0.1 -0.45 0.00223193
0.990306 0.1 0.45 0.00218372
0.287374 0.1 1.05 0.0115333
0.287374 0.1 -1.05 0.0115551
0.714971 0.1 0.821002 0.00472892
1.08012 0.1 0.141988 0.00165097
1.08012 0.1 -0.141988 0.0016597
0.0757758 0.1 -1.0875 0.010726
0.0757758 0.1 1.0875 0.0106597
0.714971 0.1 -0.825 0.00484701
0.756814 0.1 -0.7875 0.00430817
0.756814 0.1 0.7875 0.00422008
0.67013 0.1 -0.8625 0.00540786
0.67013 0.1 0.8625 0.00531784
0.797314 0.1 -0.75 0.00388048
0.797314 0.1 0.75 0.00379744
0.623803 0.1 0.9 0.00605546
0.835107 0.1 -0.7125 0.00347331
0.835107 0.1 0.7125 0.00339521
0.623803 0.1 -0.903998 0.00608626
0.574156 0.1 0.9375 0.00681245
0.574156 0.1 -0.9375 0.00685071
1.02149 0.1 -0.406591 0.00201434
1.02149 0.1 0.406591 0.00198118
1.08012 0.1 -0.212982 0.00168225
1.08012 0.1 0.212982 0.00166911
1.10076 0.1 -0.034981 0.00158894
1.10076 0.1 0.034981 0.00158654
0.871687 0.1 -0.675 0.00316433
0.871687 0.1 0.675 0.00308832
1.04168 0.1 -0.364581 0.00189071
1.04168 0.1 0.364581 0.00186351
1.10076 0.1 0.104943 0.00159274
1.10076 0.1 -0.104943 0.00159859
0.522864 0.1 0.975 0.00771319
0.522864 0.1 -0.975 0.00776598
1.0579 0.1 0.324472 0.00177443
1.0579 0.1 -0.324472 0.00179734
0 0.1 1.10701 0.00507469
0 0.1 -1.10701 0.00508766
0.0363518 0.1 -1.10701 0.007799
0.0363518 0.1 1.10701 0.00776012
0.905821 0.1 -0.6375 0.00286472
0.905821 0.1 0.6375 0.00279306
0.219992 0.1 -1.0875 0.0123948
0.219992 0.1 1.0875 0.0123435
0.93886 0.1 -0.6 0.00267198
0.93886 0.1 0.6 0.00261106
1.10076 0.1 0.174905 0.0016061
1.10076 0.1 -0.174905 0.00161565
0.467897 0.1 1.0125 0.00864935
0.467897 0.1 -1.0125 0.00871176
1.08012 0.1 -0.283977 0.00171396
1.08012 0.1 0.283977 0.00169617
1.11929 0.1 1.20274e-17 0.00154932
0.990306 0.1 -0.525 0.00234133
0.990306 0.1 0.525 0.00228557
0.96969 0.1 -0.5625 0.00249239
0.96969 0.1 0.5625 0.00243857
1.11929 0.1 0.0690357 0.00155101
1.11929 0.1 -0.0690357 0.00155488
0 0.1 1.125 0.00507633
0 0.1 -1.125 0.00508894
0.411108 0.1 1.05 0.00974645
0.411108 0.1 -1.05 0.00978532
1.10076 0.1 -0.244867 0.00164118
1.10076 0.1 0.244867 0.00162753
1.11929 0.1 -0.138071 0.00156709
1.11929 0.1 0.138071 0.00155993
1.02149 0.1 0.480517 0.00205835
1.02149 0.1 -0.480517 0.00210584
1.0579 0.1 -0.396577 0.00185202
1.0579 0.1 0.396577 0.00182125
1.04168 0.1 -0.437497 0.00196075
1.04168 0.1 0.437497 0.00192446
0.150379 0.1 1.125 0.0115011
0.150379 0.1 -1.125 0.011562
0.714971 0.1 0.88201 0.00476347
1.08012 0.1 -0.354971 0.00175716
1.08012 0.1 0.354971 0.00173346
1.11929 0.1 0.207107 0.00157578
1.11929 0.1 -0.207107 0.00158655
0.350249 0.1 1.0875 0.0107905
0.350249 0.1 -1.0875 0.0108011
0 0.1 -1.14299 0.00508929
0 0.1 1.14299 0.00507707
0.0363518 0.1 1.14299 0.00773937
0.0363518 0.1 -1.14299 0.00777475
1.14316 0.1 0.0339211 0.00149373
1.14316 0.1 -0.0339211 0.00149577
0.797314 0.1 0.821002 0.00401881
1.10076 0.1 -0.314829 0.00167543
1.10076 0.1 0.314829 0.00165774
0.797314 0.1 -0.825 0.00412399
0.756814 0.1 0.8625 0.0044723
0.756814 0.1 -0.8625 0.00458262
1.14316 0.1 0.101763 0.00149864
1.14316 0.1 -0.101763 0.00150362
0.835107 0.1 -0.7875 0.00368852
0.835107 0.1 0.7875 0.00359708
0.871687 0.1 -0.75 0.00336136
0.871687 0.1 0.75 0.00327157
0.67013 0.1 0.9375 0.00562154
0.67013 0.1 -0.9375 0.00572829
0.905821 0.1 -0.7125 0.00304476
0.905821 0.1 0.7125 0.0029565
0.714971 0.1 -0.903998 0.00510566
1.11929 0.1 -0.276143 0.00161392
1.11929 0.1 0.276143 0.00159938
1.14316 0.1 -0.169605 0.00151743
1.14316 0.1 0.169605 0.00150938
0.93886 0.1 -0.675 0.00282005
0.93886 0.1 0.675 0.00275234
1.15704 0.1 0 0.00146692
1.0579 0.1 -0.468682 0.00192104
1.0579 0.1 0.468682 0.00188279
0.623803 0.1 0.975 0.00636181
0.623803 0.1 -0.975 0.00644585
0.990306 0.1 -0.6 0.00245898
0.990306 0.1 0.6 0.00240572
1.15704 0.1 -0.0671479 0.00147158
1.15704 0.1 0.0671479 0.00146831
1.04168 0.1 -0.510414 0.00204487
1.04168 0.1 0.510414 0.00200315
0.96969 0.1 -0.6375 0.00262199
0.96969 0.1 0.6375 0.00256358
1.08012 0.1 -0.425965 0.00181333
1.08012 0.1 0.425965 0.00178316
0.287374 0.1 1.125 0.0115919
0.287374 0.1 -1.125 0.011633
1.02149 0.1 -0.554442 0.00219959
1.02149 0.1 0.554442 0.00216098
0.574156 0.1 1.0125 0.00710182
0.574156 0.1 -1.0125 0.00716873
1.15704 0.1 -0.134296 0.00148166
1.15704 0.1 0.134296 0.00147576
0.0757758 0.1 -1.1625 0.0106756
0.0757758 0.1 1.1625 0.0106166
1.10076 0.1 -0.384791 0.00172213
1.10076 0.1 0.384791 0.00169816
1.14316 0.1 -0.237448 0.00153807
1.14316 0.1 0.237448 0.00152659
1.11929 0.1 0.345179 0.00163172
1.11929 0.1 -0.345179 0.00165107
0.522864 0.1 1.05 0.00802362
0.522864 0.1 -1.05 0.008106
1.15704 0.1 -0.201444 0.00149773
1.15704 0.1 0.201444 0.0014889
1.1744 0.1 -0.0331401 0.00143542
1.1744 0.1 0.0331401 0.00143356
1.1744 0.1 0.0994203 0.00143795
1.1744 0.1 -0.0994203 0.00144212
0 0.1 1.18201 0.00508109
0 0.1 -1.18201 0.00509255
0.0363518 0.1 -1.18201 0.00777801
0.0363518 0.1 1.18201 0.0077434
0.219992 0.1 -1.1625 0.0123683
0.219992 0.1 1.1625 0.0123015
1.14316 0.1 -0.30529 0.00156599
1.14316 0.1 0.30529 0.00155105
0.467897 0.1 -1.0875 0.00906447
0.467897 0.1 1.0875 0.00898218
1.1744 0.1 -0.1657 0.0014539
1.1744 0.1 0.1657 0.00144727
1.15704 0.1 -0.268592 0.00152031
1.15704 0.1 0.268592 0.00150848
1.0579 0.1 0.540787 0.00195962
1.0579 0.1 -0.540787 0.0020044
0.796996 0.1 0.88201 0.00421526
1.08012 0.1 0.496959 0.00184616
1.08012 0.1 -0.496959 0.00188451
1.10076 0.1 -0.454752 0.00177942
1.10076 0.1 0.454752 0.00175131
1.11929 0.1 -0.414214 0.00169899
1.11929 0.1 0.414214 0.00167479
1.04168 0.1 -0.58333 0.00213717
1.04168 0.1 0.58333 0.00209663
1.1744 0.1 -0.231981 0.00147152
1.1744 0.1 0.231981 0.00146207
0.871687 0.1 0.821002 0.00347377
0.411108 0.1 1.125 0.0100007
0.411108 0.1 -1.125 0.0100556
1.19808 0.1 0 0.00138597
0.990306 0.1 -0.675 0.00259218
0.990306 0.1 0.675 0.0025337
1.02149 0.1 0.628368 0.00226288
1.02149 0.1 -0.628368 0.00231732
1.19808 0.1 0.0650961 0.00138714
1.19808 0.1 -0.0650961 0.00139003
0 0.1 1.2 0.00508447
0 0.1 -1.2 0.00509558
0.871687 0.1 -0.825 0.00358
0.905821 0.1 -0.7875 0.0032501
0.905821 0.1 0.7875 0.003149
0.835107 0.1 0.8625 0.00382476
0.835107 0.1 -0.8625 0.00393528
0.93886 0.1 -0.75 0.00299127
0.93886 0.1 0.75 0.0029114
1.14316 0.1 -0.373132 0.00160385
1.14316 0.1 0.373132 0.0015838
0.96969 0.1 -0.7125 0.00275452
0.96969 0.1 0.7125 0.00270139
1.15704 0.1 -0.33574 0.00155093
1.15704 0.1 0.33574 0.00153525
0.756814 0.1 0.9375 0.00475881
0.756814 0.1 -0.9375 0.00489051
1.19808 0.1 -0.130192 0.00139864
1.19808 0.1 0.130192 0.00139357
0.797314 0.1 -0.903998 0.00436374
0.714971 0.1 -0.975 0.00547373
0.714971 0.1 0.975 0.00534624
0.150379 0.1 -1.2 0.0115389
0.150379 0.1 1.2 0.0114753
1.20938 0.1 -0.0322656 0.00136747
1.20938 0.1 0.0322656 0.00136569
1.1744 0.1 -0.298261 0.00149518
1.1744 0.1 0.298261 0.00148314
1.20938 0.1 -0.0967968 0.00137356
1.20938 0.1 0.0967968 0.00136975
1.19808 0.1 0.195288 0.00140473
1.19808 0.1 -0.195288 0.0014122
0.350249 0.1 -1.1625 0.0110309
0.350249 0.1 1.1625 0.0109941
0.67013 0.1 -1.0125 0.00607493
0.67013 0.1 1.0125 0.00595297
0 0.1 1.21799 0.00508688
0 0.1 -1.21799 0.00509762
0.0363518 0.1 1.21799 0.00773711
0.0363518 0.1 -1.21799 0.00776807
1.11929 0.1 -0.48325 0.00176083
1.11929 0.1 0.48325 0.00172893
1.10076 0.1 -0.524714 0.00185602
1.10076 0.1 0.524714 0.00181518
1.20938 0.1 0.161328 0.00137818
1.20938 0.1 -0.161328 0.00138409
1.08012 0.1 -0.567953 0.00196138
1.08012 0.1 0.567953 0.00192489
0.623803 0.1 1.05 0.0066855
0.623803 0.1 -1.05 0.00679341
1.0579 0.1 0.612892 0.002052
1.0579 0.1 -0.612892 0.00208935
1.15704 0.1 -0.402888 0.00159038
1.15704 0.1 0.402888 0.00157097
1.14316 0.1 -0.440974 0.00165129
1.14316 0.1 0.440974 0.00162731
1.19808 0.1 -0.260384 0.00143106
1.19808 0.1 0.260384 0.00142121
1.2267 0.1 0 0.00133358
1.2267 0.1 -0.0636648 0.00133748
1.2267 0.1 0.0636648 0.00133465
1.1744 0.1 -0.364541 0.00152733
1.1744 0.1 0.364541 0.00151103
0.574156 0.1 -1.0875 0.00753906
0.574156 0.1 1.0875 0.00742159
1.20938 0.1 0.225859 0.0013913
1.20938 0.1 -0.225859 0.00139967
1.04168 0.1 -0.656246 0.00225202
1.04168 0.1 0.656246 0.00219832
1.2267 0.1 -0.12733 0.00134562
1.2267 0.1 0.12733 0.00134071
0.287374 0.1 -1.2 0.0117681
0.287374 0.1 1.2 0.0117065
1.02149 0.1 -0.702294 0.0024617
1.02149 0.1 0.702294 0.00239377
0.0757758 0.1 1.2375 0.010603
0.0757758 0.1 -1.2375 0.0106546
0.871399 0.1 0.88201 0.00365268
0.522864 0.1 -1.125 0.00845683
0.522864 0.1 1.125 0.00835413
1.2267 0.1 -0.190995 0.00135829
1.2267 0.1 0.190995 0.00135113
1.19808 0.1 -0.32548 0.00145624
1.19808 0.1 0.32548 0.0014435
0.990306 0.1 -0.75 0.00274786
0.990306 0.1 0.75 0.0026777
1.24275 0.1 -0.0314313 0.00130386
1.24275 0.1 0.0314313 0.00130207
1.20938 0.1 -0.29039 0.00142025
1.20938 0.1 0.29039 0.0014099
1.24275 0.1 -0.0942939 0.00130974
1.24275 0.1 0.0942939 0.0013059
0.93886 0.1 0.821002 0.00308596
1.11929 0.1 -0.552286 0.00182819
1.11929 0.1 0.552286 0.00179723
1.15704 0.1 -0.470036 0.00164235
1.15704 0.1 0.470036 0.00161603
0.96969 0.1 -0.7875 0.00292253
0.96969 0.1 0.7875 0.00284482
0.93886 0.1 -0.825 0.00318596
0.905821 0.1 -0.8625 0.00345795
0.905821 0.1 0.8625 0.00335923
1.1744 0.1 -0.430821 0.00156697
1.1744 0.1 0.430821 0.00154824
1.10076 0.1 -0.594676 0.00192433
1.10076 0.1 0.594676 0.00189895
1.14316 0.1 -0.508816 0.00171298
1.14316 0.1 0.508816 0.00168029
1.24275 0.1 -0.157157 0.0013197
1.24275 0.1 0.157157 0.00131384
1.2267 0.1 -0.254659 0.00137569
1.2267 0.1 0.254659 0.00136642
0.467897 0.1 -1.1625 0.00940016
0.467897 0.1 1.1625 0.00931151
1.08012 0.1 -0.638947 0.00205092
1.08012 0.1 0.638947 0.00200971
1.25511 0.1 0 0.00127952
0.835107 0.1 -0.9375 0.00420998
0.835107 0.1 0.9375 0.0040834
0.871687 0.1 -0.903998 0.00379929
1.25511 0.1 -0.0622446 0.0012834
1.25511 0.1 0.0622446 0.00128041
0.219992 0.1 -1.2375 0.012373
0.219992 0.1 1.2375 0.0122967
0 0.1 -1.25701 0.00510432
0 0.1 1.25701 0.00509426
0.0363518 0.1 1.25701 0.00774449
0.0363518 0.1 -1.25701 0.00777478
0.797314 0.1 0.975 0.00456838
0.797314 0.1 -0.975 0.00470846
1.19808 0.1 -0.390576 0.00148859
1.19808 0.1 0.390576 0.00147285
1.0579 0.1 0.684997 0.00214549
1.0579 0.1 -0.684997 0.0022052
1.20938 0.1 -0.354921 0.00144774
1.20938 0.1 0.354921 0.00143404
1.25511 0.1 -0.124489 0.00129131
1.25511 0.1 0.124489 0.00128613
1.24275 0.1 -0.220019 0.00133422
1.24275 0.1 0.220019 0.00132607
0.756814 0.1 -1.0125 0.00522854
0.756814 0.1 1.0125 0.00507977
1.2267 0.1 -0.318324 0.00139857
1.2267 0.1 0.318324 0.0013869
0.411108 0.1 -1.2 0.0103593
0.411108 0.1 1.2 0.01028
1.25511 0.1 0.186734 0.00129597
1.25511 0.1 -0.186734 0.00130348
0.714971 0.1 1.05 0.00568296
0.714971 0.1 -1.05 0.00582268
1.04168 0.1 -0.729162 0.00239679
1.04168 0.1 0.729162 0.00232411
1.24275 0.1 0.282882 0.00134329
1.24275 0.1 -0.282882 0.00135312
0 0.1 1.275 0.00509922
0 0.1 -1.275 0.00510902
1.1744 0.1 -0.497101 0.00162297
1.1744 0.1 0.497101 0.00159318
1.15704 0.1 -0.537184 0.0016983
1.15704 0.1 0.537184 0.00167305
1.2756 0.1 -0.0306099 0.00123962
1.2756 0.1 0.0306099 0.00123785
0.67013 0.1 -1.0875 0.00643054
0.67013 0.1 1.0875 0.0063059
1.2756 0.1 0.0918298 0.00124132
1.2756 0.1 -0.0918298 0.00124537
1.25511 0.1 -0.248978 0.00132005
1.25511 0.1 0.248978 0.00131039
1.20938 0.1 0.419453 0.00146591
1.20938 0.1 -0.419453 0.00148198
1.11929 0.1 -0.621321 0.00190484
1.11929 0.1 0.621321 0.00187078
1.14316 0.1 -0.576658 0.00177227
1.14316 0.1 0.576658 0.00174808
1.19808 0.1 -0.455672 0.00153243
1.19808 0.1 0.455672 0.00151005
1.02149 0.1 0.776219 0.00254976
1.02149 0.1 -0.776219 0.00263563
0.150379 0.1 1.275 0.0114805
0.150379 0.1 -1.275 0.0115451
1.2756 0.1 -0.15305 0.00125501
1.2756 0.1 0.15305 0.00124879