# nutMean  POINT_DATA 91129
# x  y  z  nutMean
0 0 0 5.05484e-06
0 0.00368111 0 1.85271e-05
0 0.00749587 0 7.37847e-05
0 0.0114491 0 0.000273179
0 0.0155459 0 0.000711098
0 0.0197915 0 0.00182003
0 0.0241911 0 0.00271546
0 0.0287506 0 0.00302472
0 0.0334755 0 0.0034338
0 0.038372 0 0.00371857
0 0.0434463 0 0.00392137
0 0.0487048 0 0.00407971
0 0.0541543 0 0.00421577
0 0.0598016 0 0.00434456
0 0.0656539 0 0.00447635
0 0.0717187 0 0.00461344
0.0757758 0.00184056 0 9.04034e-06
0.0757758 0.00558849 3.46945e-18 1.32512e-05
0.0757758 0.0094725 0 6.31736e-05
0.0757758 0.0134975 0 0.000298178
0.0757758 0.0176687 0 0.000856709
0 0.0780037 0 0.00475396
0.0757758 0.0219913 0 0.00173204
0.0757758 0.0264709 0 0.00293076
0.0757758 0.031113 3.46945e-18 0.00442593
0.0757758 0.0359238 -3.46945e-18 0.00616363
0 0.0845169 0 0.00489738
0.0757758 0.0409092 0 0.00807782
0.0757758 0.0460756 0 0.0100984
0 0.0912666 0 0.00504385
0.0757758 0.0514296 3.46945e-18 0.0121559
0.0757758 0.0569779 0 0.0141749
0 0.0982613 0 0.00519268
0.0757758 0.0627277 0 0.0151482
0.0757758 0.0686863 0 0.0156315
0 0.10551 0 0.00534227
0.0757758 0.0748612 3.46945e-18 0.0161701
0.0757758 0.0812603 3.46945e-18 0.0167698
0 0.113022 0 0.00549057
0.0757758 0.0878917 0 0.0174387
0 0.120806 0 0.00563746
0.0757758 0.0947639 -3.46945e-18 0.0181895
0.0757758 0.101886 -3.46945e-18 0.0190483
0 0.128874 0 0.00579398
0.0757758 0.109266 0 0.0200683
0 0.137234 0 0.00597995
0.0757758 0.116914 -3.46945e-18 0.0213236
0 0.145897 0 0.0062018
0.0757758 0.12484 0 0.0228945
0.151552 0 0 0
0.151552 0.00368111 0 7.43912e-06
0.151552 0.00749587 0 2.54329e-05
0.151552 0.0114491 0 0.000112807
0.151552 0.0155459 0 0.000356729
0.151552 0.0197915 0 0.000813206
0.0757758 0.133054 3.46945e-18 0.0248082
0.151552 0.0241911 0 0.00149625
0.151552 0.0287506 0 0.00240557
0 0.154876 0 0.00644913
0.151552 0.0334755 0 0.00352389
0.151552 0.038372 0 0.00482266
0.151552 0.0434463 0 0.00626737
0.151552 0.0487048 0 0.00782102
0.0757758 0.141566 0 0.0267301
0.151552 0.0541543 0 0.00944417
0.151552 0.0598016 0 0.0108718
0 0.16418 0 0.00671422
0.151552 0.0656539 0 0.0119899
0.151552 0.0717187 0 0.0130557
0.0757758 0.150387 0 0.0282871
0.151552 0.0780037 0 0.014191
0.151552 0.0845169 0 0.0153845
0 0.173822 0 0.00699592
0.0757758 0.159528 3.46945e-18 0.0292191
0.151552 0.0912666 0 0.0166204
0.151552 0.0982613 0 0.0178495
0 0.183814 0 0.00729255
0.151552 0.10551 0 0.0189654
0.0757758 0.169001 0 0.0293672
0.151552 0.113022 0 0.0200098
0.151552 0.120806 0 0.0211076
0 0.194169 0 0.00760091
0.0757758 0.178818 0 0.0287786
0.151552 0.128874 0 0.022429
0.0757758 0.188991 3.46945e-18 0.0276652
0.151552 0.137234 0 0.0239452
0 0.2049 0 0.0079148
0.151552 0.145897 0 0.0253971
0.0757758 0.199534 -3.46945e-18 0.0262775
0 0.21602 0 0.0082262
0.151552 0.154876 0 0.0266151
0.219992 0.00184056 -3.46945e-18 2.58601e-06
0.219992 0.00558849 0 5.44921e-06
0.219992 0.0094725 0 2.18241e-05
0.219992 0.0134975 0 7.84962e-05
0.219992 0.0176687 0 0.000227487
0.219992 0.0219913 3.46945e-18 0.000510605
0.219992 0.0264709 3.46945e-18 0.000940041
0.219992 0.031113 0 0.0015213
0.219992 0.0359238 0 0.00225705
0.151552 0.16418 0 0.027439
0.0757758 0.21046 0 0.0247578
0.219992 0.0409092 0 0.00314554
0.219992 0.0460756 0 0.00418146
0.219992 0.0514296 0 0.00535671
0.219992 0.0569779 3.46945e-18 0.00666141
0 0.227544 0 0.00858038
0.219992 0.0627277 0 0.00808532
0.219992 0.0686863 0 0.00961713
0.151552 0.173822 0 0.0277994
0.219992 0.0748612 -3.46945e-18 0.0112412
0.0757758 0.221782 0 0.0231818
0.219992 0.0812603 0 0.0129333
0.219992 0.0878917 0 0.0146605
0.151552 0.183814 0 0.027743
7.47804e-17 0.239487 0 0.00903575
0.219992 0.0947639 0 0.0163763
0.219992 0.101886 0 0.0179024
0.0757758 0.233515 0 0.0221698
0.219992 0.109266 0 0.0189338
0.151552 0.194169 0 0.0273829
0.219992 0.116914 -3.46945e-18 0.0198188
0 0.251863 0 0.00956741
0.219992 0.12484 0 0.0205472
0.151552 0.2049 0 0.02682
0.0757758 0.245675 3.46945e-18 0.0217766
0.219992 0.133054 0 0.0216848
0.219992 0.141566 0 0.022838
0.151552 0.21602 0 0.0261127
0 0.264688 0 0.0101409
0.219992 0.150387 0 0.0240575
0.0757758 0.258276 3.46945e-18 0.0215625
0.219992 0.159528 0 0.025225
0.151552 0.227544 0 0.0254314
0.219992 0.169001 0 0.0262294
0 0.27798 0 0.0107573
0.0757758 0.271334 0 0.0214831
0.151552 0.239487 3.70074e-18 0.0249426
0.219992 0.178818 0 0.0270176
0.288433 0 0 0
0.288433 0.00368111 0 3.07494e-06
0.288433 0.00749587 0 1.1412e-05
0.288433 0.0114491 0 3.97358e-05
0.288433 0.0155459 3.70074e-18 0.000115108
0.288433 0.0197915 0 0.000278028
0.288433 0.0241911 3.70074e-18 0.000554407
0.288433 0.0287506 0 0.000953762
0.219992 0.188991 0 0.0275841
0.288433 0.0334755 0 0.00148362
0.288433 0.038372 0 0.0021459
0.288433 0.0434463 0 0.00293962
7.47804e-17 0.291753 0 0.0114192
0.288433 0.0487048 0 0.00386129
0.288433 0.0541543 0 0.00490515
0.151552 0.251863 0 0.0245646
0.288433 0.0598016 3.70074e-18 0.00606353
0.0757758 0.284866 -3.46945e-18 0.0215454
0.288433 0.0656539 3.70074e-18 0.0073266
0.219992 0.199534 0 0.0279415
0.288433 0.0717187 0 0.00868094
0.288433 0.0780037 0 0.0101068
0.288433 0.0845169 0 0.0115341
0.288433 0.0912666 0 0.012645
0.219992 0.21046 0 0.0281035
0.288433 0.0982613 0 0.0134157
0.151552 0.264688 3.70074e-18 0.0242031
0 0.306027 0 0.0121582
0.288433 0.10551 0 0.0140604
0.0757758 0.29889 -3.46945e-18 0.0217355
0.288433 0.113022 0 0.0146267
0.219992 0.221782 0 0.0280793
0.288433 0.120806 0 0.015141
0.288433 0.128874 0 0.015675
0.151552 0.27798 0 0.0239576
0.288433 0.137234 0 0.0162778
0 0.320819 0 0.0131626
0.219992 0.233515 0 0.0278727
0.0757758 0.313423 0 0.0221951
0.288433 0.145897 0 0.0169063
0.288433 0.154876 0 0.017551
0.151552 0.291753 0 0.0238008
0.219992 0.245675 0 0.0274966
0.288433 0.16418 0 0.0181487
0 0.336148 0 0.0146602
0.288433 0.173822 0 0.0186543
0.0757758 0.328484 0 0.0237641
0.219992 0.258276 0 0.0269797
0.151552 0.306027 0 0.0236454
0.288433 0.183814 0 0.019051
0.288433 0.194169 0 0.0193399
0.219992 0.271334 -3.46945e-18 0.026377
0.350249 0.00184056 0 9.15402e-07
0.350249 0.00558849 0 3.48778e-06
0.350249 0.0094725 0 1.52143e-05
0.350249 0.0134975 0 4.49418e-05
0.350249 0.0176687 3.46945e-18 0.000115078
0.350249 0.0219913 0 0.000272325
0.350249 0.0264709 -3.46945e-18 0.000519788
0.350249 0.031113 -3.46945e-18 0.000874628
0 0.352034 0 0.0158311
0.350249 0.0359238 3.46945e-18 0.00134113
0.0757758 0.344091 0 0.0267242
0.350249 0.0409092 0 0.00192154
0.350249 0.0460756 0 0.00261635
0.288433 0.2049 0 0.0195269
0.350249 0.0514296 0 0.00342404
0.151552 0.320819 0 0.0237524
0.350249 0.0569779 3.46945e-18 0.00434066
0.350249 0.0627277 0 0.00535918
0.350249 0.0686863 0 0.00646876
0.350249 0.0748612 3.46945e-18 0.0076535
0.350249 0.0812603 0 0.00888998
0.219992 0.284866 0 0.0260516
0.288433 0.21602 0 0.0196168
0.350249 0.0878917 0 0.00998501
0.350249 0.0947639 0 0.00998014
0.350249 0.101886 0 0.00995068
0.350249 0.109266 3.46945e-18 0.0100944
0.288433 0.227544 0 0.0196113
0.0757758 0.360265 0 0.0262734
0 0.368496 0 0.0157692
0.151552 0.336148 0 0.0244353
0.350249 0.116914 3.46945e-18 0.0103569
0.219992 0.29889 0 0.0255408
0.370854 0.0241911 0 0.000402964
0.350249 0.12484 0 0.0105807
0.350249 0.133054 3.46945e-18 0.0106854
0.288433 0.239487 -9.25186e-19 0.0195127
0.350249 0.141566 -3.46945e-18 0.0107806
0.350249 0.150387 0 0.0109082
0.288433 0.251863 0 0.0193291
0.219992 0.313423 0 0.0248537
0.151552 0.352034 0 0.0246178
0.0757758 0.377026 -3.46945e-18 0.0237002
0.350249 0.159528 3.46945e-18 0.0110526
0 0.385557 0 0.0151268
0.350249 0.169001 3.46945e-18 0.0111986
0.288433 0.264688 0 0.0190777
0.350249 0.178818 0 0.011339
0.219992 0.328484 0 0.0240788
0.350249 0.188991 0 0.0114715
0.151552 0.368496 0 0.0234214
0.288433 0.27798 3.70074e-18 0.0188567
0.0757758 0.394396 -3.46945e-18 0.0219161
0.350249 0.199534 3.46945e-18 0.0115955
7.47804e-17 0.403236 0 0.0148101
0.219992 0.344091 0 0.0232979
0.350249 0.21046 0 0.0117103
0.288433 0.291753 0 0.0186431
0.412065 9.0819e-19 0 2.44627e-22
0.412065 0.00368111 -2.31296e-18 2.07467e-06
0.412065 0.00749587 -2.31296e-18 9.23339e-06
0.412065 0.0114491 -2.31296e-18 2.77408e-05
0.412065 0.0155459 -2.31296e-18 6.91125e-05
0.412065 0.0197915 0 0.000160455
0.412065 0.0241911 0 0.000327242
0.412065 0.0264709 0 0.000454208
0.412065 0.0287506 -2.31296e-18 0.000581175
0.412065 0.0334755 -2.31296e-18 0.000930821
0.412065 0.038372 -2.31296e-18 0.00138177
0.151552 0.385557 0 0.0218519
0.412065 0.0434463 0 0.00193551
0.350249 0.221782 0 0.0118138
0.412065 0.0487048 0 0.0025916
0.412065 0.0541543 0 0.00334734
0.412065 0.0569779 0 0.0037722
0.412065 0.0598016 -2.31296e-18 0.00419707
0.412065 0.0656539 -2.31296e-18 0.00513133
0.412065 0.0717187 -2.31296e-18 0.00613569
0.0757758 0.412397 0 0.02151
0.412065 0.0780037 -2.31296e-18 0.00710039
0.288433 0.306027 0 0.0183301
0.412065 0.0845169 -2.31296e-18 0.00784496
0.350249 0.233515 0 0.0119027
0 0.421557 0 0.014861
0.412065 0.0912666 -2.31296e-18 0.00816159
0.219992 0.360265 -3.46945e-18 0.0224623
0.412065 0.0982613 0 0.00818427
0.412065 0.10551 0 0.00823574
0.412065 0.113022 -2.31296e-18 0.00836253
0.350249 0.245675 3.46945e-18 0.0119734
0.412065 0.120806 0 0.00851112
0.151552 0.403236 0 0.0208089
0.288433 0.320819 0 0.0179434
0.412065 0.128874 -2.31296e-18 0.00862165
0.412065 0.137234 0 0.00870168
0.350249 0.258276 3.46945e-18 0.0120221
0.219992 0.377026 0 0.0214875
0.412065 0.145897 -2.31296e-18 0.0087885
0.0757758 0.431051 0 0.0215179
0.412065 0.154876 -2.31296e-18 0.00888738
0 0.440544 0 0.0149952
0.288433 0.336148 0 0.0175265
0.350249 0.271334 0 0.0120419
0.412065 0.16418 -2.31296e-18 0.00899022
0.412065 0.173822 -2.31296e-18 0.00909148
0.151552 0.421557 0 0.020259
0.412065 0.183814 -2.31296e-18 0.0091887
0.350249 0.284866 0 0.0120304
0.219992 0.394396 0 0.0204488
0.288433 0.352034 3.70074e-18 0.0170883
0.412065 0.194169 0 0.00928106
0.0757758 0.450382 0 0.021564
0.412065 0.2049 -2.31296e-18 0.00936807
0 0.46022 0 0.0151418
0.350249 0.29889 0 0.0119932
0.412065 0.21602 0 0.00944887
0.151552 0.440544 0 0.0198957
0.219992 0.412397 3.46945e-18 0.0194978
0.467897 0.00184056 -3.46945e-18 5.91723e-07
0.467897 0.00558849 0 3.32156e-06
0.288433 0.368496 0 0.0165938
0.467897 0.0094725 0 1.49266e-05
0.467897 0.0134975 3.46945e-18 3.62071e-05
0.467897 0.0176687 3.46945e-18 8.17443e-05
0.467897 0.0219913 -3.46945e-18 0.000177314
0.467897 0.0264709 -3.46945e-18 0.00034914
0.467897 0.031113 3.46945e-18 0.000597326
0.467897 0.0359238 0 0.000934893
0.467897 0.038372 0 0.0011949
0.467897 0.0409092 0 0.00136434
0.350249 0.313423 0 0.0119337
0.467897 0.0460756 0 0.0018863
0.467897 0.0514296 3.46945e-18 0.00249946
0.412065 0.227544 -2.31296e-18 0.00952199
0.467897 0.0569779 0 0.00319978
0.467897 0.0627277 -3.46945e-18 0.00397965
0.467897 0.0686863 0 0.00482679
0.467897 0.0748612 3.46945e-18 0.00572268
0.467897 0.0812603 3.46945e-18 0.00629859
0.467897 0.0878917 3.46945e-18 0.00642805
0.0757758 0.470415 3.46945e-18 0.021699
0.412065 0.239487 -2.31296e-18 0.00958552
0.467897 0.0947639 0 0.00650665
0.467897 0.101886 3.46945e-18 0.0065475
0.350249 0.328484 0 0.0118574
0.467897 0.109266 3.46945e-18 0.00659902
0 0.48061 0 0.0152777
0.288433 0.385557 0 0.0160367
0.467897 0.116914 3.46945e-18 0.00665904
0.412065 0.251863 -2.31296e-18 0.00963754
0.219992 0.431051 0 0.0187007
0.467897 0.12484 0 0.00672017
0.151552 0.46022 0 0.0196265
0.467897 0.133054 0 0.00678004
0.467897 0.141566 -3.46945e-18 0.00684317
0.412065 0.264688 -2.31296e-18 0.00967561
0.350249 0.344091 0 0.0117689
0.467897 0.150387 0 0.00690787
0.467897 0.154876 0 0.00743966
0.467897 0.159528 0 0.00697175
0.288433 0.403236 0 0.0154726
0.0757758 0.491176 3.46945e-18 0.0217569
0.412065 0.27798 -2.31296e-18 0.00969797
0.467897 0.169001 0 0.00703459
0.467897 0.178818 -3.46945e-18 0.00709611
0.219992 0.450382 3.46945e-18 0.0180497
6.73024e-17 0.501741 3.70074e-18 0.0153488
0.350249 0.360265 0 0.0116666
0.151552 0.48061 0 0.0194003
0.467897 0.188991 0 0.00715595
0.412065 0.291753 0 0.00970532
0.467897 0.199534 0 0.00721387
0.288433 0.421557 0 0.0149611
0.467897 0.21046 3.46945e-18 0.00726956
0.412065 0.306027 0 0.0096989
0.350249 0.377026 0 0.0115408
0.467897 0.221782 0 0.00732263
0.0757758 0.51269 0 0.0217054
0.219992 0.470415 0 0.0174972
0.467897 0.227544 0 0.00792798
0.412065 0.320819 -2.31296e-18 0.00967992
0.467897 0.233515 0 0.00737263
6.73024e-17 0.523639 3.70074e-18 0.0153519
0.523729 0 0 0
0.523729 0.00368111 0 1.89387e-06
0.523729 0.00749587 -2.31296e-18 9.48775e-06
0.523729 0.0114491 0 2.57907e-05
0.523729 0.0155459 0 5.55468e-05
0.523729 0.0197915 -2.31296e-18 0.000113902
0.151552 0.501741 0 0.0191543
0.523729 0.0241911 0 0.000228319
0.523729 0.0287506 0 0.000411783
0.523729 0.0334755 0 0.000668236
0.523729 0.038372 0 0.00100803
0.523729 0.0434463 0 0.0014328
0.523729 0.0487048 0 0.00194201
0.523729 0.0541543 0 0.0025327
0.288433 0.440544 0 0.0145249
0.523729 0.0598016 0 0.00319869
0.350249 0.394396 0 0.0113857
0.523729 0.0656539 0 0.00392959
0.467897 0.245675 3.46945e-18 0.00741922
0.523729 0.0717187 0 0.0046931
0.523729 0.0780037 0 0.00524281
0.523729 0.0845169 0 0.00545888
0.523729 0.0912666 0 0.00554572
0.412065 0.336148 0 0.00965021
0.523729 0.0982613 0 0.00560886
0.523729 0.10551 -2.31296e-18 0.00566232
0.467897 0.258276 3.46945e-18 0.00746225
0.523729 0.113022 0 0.00571826
0.523729 0.120806 0 0.00577477
0.219992 0.491176 3.46945e-18 0.0170006
0.523729 0.12484 0 0.00580221
0.523729 0.128874 -2.31296e-18 0.00582965
0.0757758 0.534985 -3.46945e-18 0.0215741
0.467897 0.271334 0 0.00750223
0.350249 0.412397 3.46945e-18 0.011211
0.523729 0.137234 0 0.00588376
0.412065 0.352034 -2.31296e-18 0.00961022
0.288433 0.46022 0 0.0141567
0.523729 0.145897 0 0.00593811
0.151552 0.523639 0 0.0188831
0.523729 0.154876 0 0.00599194
0 0.546332 0 0.0153028
0.523729 0.159528 0 0.00601833
0.467897 0.284866 3.46945e-18 0.00754064
0.523729 0.16418 -2.31296e-18 0.00604472
0.523729 0.173822 0 0.0060964
0.412065 0.368496 0 0.00955714
0.523729 0.183814 0 0.00614687
0.467897 0.29889 -3.46945e-18 0.00757578
0.350249 0.431051 0 0.0110345
0.219992 0.51269 3.46945e-18 0.016544
0.523729 0.194169 0 0.006196
0.288433 0.48061 0 0.0138365
0.523729 0.2049 0 0.00624366
0.467897 0.313423 0 0.00760559
0.0757758 0.55809 0 0.0213897
0.412065 0.385557 0 0.00948707
0.523729 0.21602 0 0.00628971
0.151552 0.546332 0 0.018601
0 0.569849 0 0.0152142
0.350249 0.450382 0 0.0108718
0.523729 0.227544 0 0.00633397
0.467897 0.328484 0 0.00762867
0.523729 0.231525 0 0.00634808
0.574156 0.00184056 0 4.243e-07
0.574156 0.00558849 0 3.24621e-06
0.574156 0.0094725 0 1.64093e-05
0.574156 0.0134975 0 3.55911e-05
0.574156 0.0176687 0 6.90956e-05
0.574156 0.0219913 3.46945e-18 0.000129507
0.574156 0.0264709 0 0.000261899
0.574156 0.031113 0 0.00044683
0.574156 0.0359238 3.46945e-18 0.000706739
0.574156 0.0409092 -3.46945e-18 0.00104472
0.523729 0.239487 3.70074e-18 0.00637629
0.574156 0.0460756 3.46945e-18 0.00146111
0.574156 0.0514296 0 0.00195409
0.412065 0.403236 0 0.00940072
0.574156 0.0569779 0 0.00251903
0.574156 0.0627277 0 0.00314756
0.574156 0.0686863 0 0.00382646
0.219992 0.534985 0 0.0161254
0.288433 0.501741 0 0.0135484
0.574156 0.0748612 0 0.00447269
0.574156 0.0812603 0 0.00457788
0.467897 0.344091 3.46945e-18 0.00764405
0.574156 0.0878917 0 0.00464943
0.523729 0.251863 0 0.00641663
0.574156 0.0947639 -3.46945e-18 0.00471942
0.574156 0.101886 0 0.00478207
0.574156 0.109266 3.46945e-18 0.00483991
0.574156 0.116914 -3.46945e-18 0.00489424
0.412065 0.416977 0 0.00932914
0.350249 0.470415 0 0.010731
0.523729 0.264688 0 0.00645517
0.0757758 0.582034 0 0.0211713
0.574156 0.12484 0 0.00494528
0.574156 0.133054 0 0.00499348
0.412065 0.421557 -2.31296e-18 0.00930528
0.151552 0.569849 0 0.0183198
0.467897 0.360265 0 0.00765156
0.574156 0.141566 -3.46945e-18 0.00503963
0.523729 0.27798 0 0.00649244
0.574156 0.150387 -3.46945e-18 0.00508428
0 0.594219 0 0.0150959
0.574156 0.159528 0 0.00512768
0.574156 0.16418 0 0.00532145
0.288433 0.523639 9.24446e-33 0.0132856
0.574156 0.169001 -3.46945e-18 0.00517002
0.523729 0.291753 0 0.00652828
0.219992 0.55809 -3.46945e-18 0.0157493
0.467897 0.377026 0 0.00765117
0.574156 0.178818 -3.46945e-18 0.00521139
0.412065 0.440544 -2.31296e-18 0.00921048
0.350249 0.491176 3.46945e-18 0.01061
0.574156 0.188991 0 0.00525183
0.523729 0.306027 0 0.00656145
0.574156 0.199534 0 0.00529135
0.574156 0.21046 0 0.00533
0.0757758 0.606847 0 0.0209311
0.467897 0.394396 3.46945e-18 0.00764221
0.151552 0.594219 0 0.018046
0.523729 0.320819 0 0.00659069
0.574156 0.221782 -3.46945e-18 0.00536781
0.412065 0.46022 0 0.00912426
0.288433 0.546332 0 0.0130477
0 0.619475 0 0.0149553
0.574156 0.233515 0 0.00540484
0.350249 0.51269 3.46945e-18 0.0105036
0.219992 0.582034 0 0.0154148
0.523729 0.336148 0 0.00661504
0.467897 0.412397 0 0.00762454
0.574156 0.245675 3.46945e-18 0.00544122
0.624584 0 0 0
0.624584 0.00368111 0 1.80139e-06
0.624584 0.00749587 0 1.036e-05
0.624584 0.0114491 0 2.72454e-05
0.624584 0.0155459 0 5.18986e-05
0.624584 0.0197915 0 9.28819e-05
0.624584 0.0241911 -2.31296e-18 0.000174653
0.624584 0.0287506 0 0.000314827
0.624584 0.0334755 0 0.000515674
0.624584 0.038372 0 0.000784878
0.624584 0.0434463 -2.31296e-18 0.00112732
0.624584 0.0487048 0 0.00154221
0.624584 0.0541543 0 0.00202608
0.624584 0.0598016 0 0.00257212
0.624584 0.0656539 0 0.00316916
0.624584 0.0717187 0 0.00371775
0.624584 0.0780037 0 0.00400456
0.574156 0.258276 0 0.00547708
0.624584 0.0845169 0 0.00408895
0.523729 0.352034 0 0.00663397
0.624584 0.0912666 0 0.00415985
0.624584 0.0982613 0 0.00422446
0.412065 0.48061 0 0.00904992
0.624584 0.10551 0 0.00428245
0.624584 0.113022 -2.31296e-18 0.00433588
0.574156 0.271334 0 0.00551263
0.624584 0.120806 0 0.00438571
0.467897 0.431051 0 0.00760035
0.0757758 0.632561 3.46945e-18 0.0206771
0.624584 0.128874 0 0.00443243
0.151552 0.619475 0 0.017783
0.288433 0.569849 0 0.0128351
0.350249 0.534985 0 0.0104085
0.624584 0.137234 -2.31296e-18 0.00447656
0.523729 0.368496 0 0.00664738
0.574156 0.284866 -3.46945e-18 0.00554794
0.624584 0.145897 0 0.00451864
0.467897 0.440544 0 0.0079283
0.624584 0.154876 0 0.00455909
0.219992 0.606847 0 0.0151191
0 0.645647 0 0.014798
0.624584 0.16418 0 0.00459819
0.574156 0.29889 0 0.00558248
0.624584 0.173822 0 0.00463614
0.412065 0.501741 0 0.0089866
0.467897 0.450382 0 0.00757392
0.523729 0.385557 0 0.00665509
0.624584 0.183814 0 0.00467308
0.624584 0.194169 0 0.00470909
0.574156 0.313423 3.46945e-18 0.00561547
0.624584 0.2049 0 0.00474427
0.350249 0.55809 3.46945e-18 0.010323
0.288433 0.594219 0 0.012647
0.624584 0.21602 0 0.00477871
0.523729 0.403236 0 0.00665685
0.574156 0.328484 -3.46945e-18 0.00564606
0.151552 0.645647 0 0.0175319
0.467897 0.470415 0 0.00754968
0.0757758 0.659208 3.46945e-18 0.0204147
0.624584 0.227544 0 0.00481249
0.412065 0.523639 0 0.00893235
0.523729 0.41545 0 0.00665443
0.624584 0.239487 3.70074e-18 0.00484574
0.574156 0.344091 0 0.00567359
0.219992 0.632561 -3.46945e-18 0.0148586
0.67013 0.00184056 3.46945e-18 3.06469e-07
0.67013 0.00558849 -3.46945e-18 3.23283e-06
0.67013 0.0094725 3.46945e-18 1.84873e-05
0.67013 0.0134975 -3.46945e-18 3.83425e-05
0.67013 0.0176687 0 6.46209e-05
0.67013 0.0219913 0 0.000109091
0.67013 0.0264709 3.46945e-18 0.000200694
0.67013 0.031113 0 0.000354725
0.67013 0.0359238 -3.46945e-18 0.000561882
0.67013 0.0409092 0 0.00083729
0.67013 0.0460756 0 0.00118152
0.67013 0.0514296 -3.46945e-18 0.00159234
0.523729 0.421557 0 0.00665322
0.67013 0.0569779 0 0.00206459
0 0.67277 0 0.0146285
0.67013 0.0627277 3.46945e-18 0.00258925
0.624584 0.251863 0 0.00487857
0.67013 0.0686863 0 0.00315223
0.67013 0.0748612 -3.46945e-18 0.00347238
0.67013 0.0812603 0 0.00355886
0.67013 0.0878917 0 0.00363366
0.67013 0.0947639 0 0.00370091
0.574156 0.360265 3.46945e-18 0.0056978
0.67013 0.101886 3.46945e-18 0.00375965
0.523729 0.431051 0 0.00664967
0.624584 0.264688 0 0.00491113
0.467897 0.491176 0 0.0075303
0.67013 0.109266 3.46945e-18 0.00381263
0.350249 0.582034 0 0.0102473
0.67013 0.116914 -3.46945e-18 0.00386149
0.67013 0.12484 0 0.00390694
0.67013 0.133054 -3.46945e-18 0.00394945
0.288433 0.619475 0 0.0124822
0.624584 0.27798 0 0.00494349
0.412065 0.546332 0 0.00888578
0.523729 0.440544 0 0.00664612
0.67013 0.141566 0 0.00398945
0.685312 0.0241911 0 0.000152308
0.685312 0.0434463 0 0.000989138
0.67013 0.150387 0 0.00402737
0.574156 0.377026 0 0.0057187
0.67013 0.159528 0 0.00406361
0.624584 0.291753 0 0.00497549
0.151552 0.67277 0 0.0172927
0.0757758 0.686823 0 0.0201478
0.67013 0.169001 -3.46945e-18 0.00409846
0.67013 0.178818 0 0.00413214
0.467897 0.51269 3.46945e-18 0.00751656
0.685312 0.113022 0 0.00377001
0.219992 0.659208 0 0.014629
0.624584 0.306027 0 0.00500671
0.67013 0.188991 0 0.00416484
0.574156 0.394396 -3.46945e-18 0.00573623
0.523729 0.46022 0 0.0066384
0.685312 0.137234 0 0.00390236
0.67013 0.199534 3.46945e-18 0.00419669
0.350249 0.606847 3.46945e-18 0.0101819
0 0.700877 0 0.0144505
0.624584 0.320819 0 0.00503659
0.67013 0.21046 -3.46945e-18 0.00422783
0.412065 0.569849 -2.31296e-18 0.00884625
0.67013 0.221782 0 0.0042584
0.574156 0.412397 -3.46945e-18 0.00575027
0.288433 0.645647 0 0.012339
0.624584 0.336148 0 0.00506459
0.67013 0.233515 -3.46945e-18 0.00428852
0.467897 0.534985 0 0.00750821
0.523729 0.48061 0 0.00663265
0.624584 0.344091 0 0.00507746
0.67013 0.245675 0 0.00431834
0.715676 4.54095e-19 -1.54074e-33 4.2444e-23
0.715676 0.00368111 0 1.7548e-06
0.715676 0.00749587 0 1.1487e-05
0.715676 0.0114491 -1.54074e-33 3.01578e-05
0.715676 0.0155459 0 5.27874e-05
0.715676 0.0197915 0 8.43405e-05
0.715676 0.0241911 0 0.000141135
0.715676 0.0287506 0 0.00025087
0.715676 0.0334755 0 0.000416702
0.715676 0.038372 0 0.000635958
0.624584 0.352034 -2.31296e-18 0.00509034
0.715676 0.0434463 0 0.000920048
0.151552 0.700877 0 0.0170654
0.715676 0.0487048 0 0.00126831
0.715676 0.0541543 0 0.00167694
0.574156 0.431051 -3.46945e-18 0.00576115
0.715676 0.0598016 0 0.00213869
0.67013 0.258276 0 0.00434797
0.715676 0.0656539 0 0.00263679
0.715676 0.0717187 0 0.00300997
0.0757758 0.715441 0 0.0198797
0.715676 0.0780037 0 0.00317069
0.715676 0.0845169 0 0.00325069
0.219992 0.686823 0 0.0144266
0.715676 0.0912666 0 0.00332101
0.715676 0.0982613 0 0.0033827
0.67013 0.271334 0 0.00437749
0.350249 0.632561 3.46945e-18 0.0101275
0.412065 0.594219 -2.31296e-18 0.0088139
0.715676 0.10551 0 0.00343739
0.715676 0.113022 0 0.00348708
0.624584 0.368496 0 0.00511373
0.523729 0.501741 0 0.00663046
0.715676 0.120806 0 0.0035329
0.715676 0.128874 0 0.00357546
0.67013 0.284866 0 0.00440686
0.467897 0.55809 3.46945e-18 0.00750454
0.715676 0.137234 0 0.00361526
0.574156 0.450382 0 0.00577
0 0.730005 0 0.0142674
0.715676 0.145897 0 0.00365273
0.288433 0.67277 0 0.0122155
0.715676 0.154876 0 0.00368825
0.67013 0.29889 3.46945e-18 0.00443595
0.624584 0.385557 0 0.00513469
0.715676 0.16418 0 0.00372216
0.715676 0.173822 0 0.00375472
0.715676 0.183814 0 0.00378615
0.67013 0.313423 0 0.00446445
0.523729 0.523639 0 0.00663242
0.715676 0.194169 0 0.00381662
0.574156 0.470415 3.46945e-18 0.00577849
0.624584 0.403236 0 0.0051532
0.743101 0.0241911 0 0.000134357
0.412065 0.619475 -2.31296e-18 0.00878924
0.715676 0.2049 0 0.00384627
0.151552 0.730005 0 0.0168499
0.67013 0.328484 0 0.00449203
0.350249 0.659208 -3.46945e-18 0.0100841
0.467897 0.582034 0 0.00750531
0.715676 0.21602 0 0.00387526
0.219992 0.715441 0 0.014248
0.0757758 0.745098 3.46945e-18 0.0196133
0.715676 0.227544 0 0.00390371
0.67013 0.344091 0 0.00451837
0.624584 0.421557 0 0.00516932
0.743101 0.128874 0 0.00338256
0.715676 0.239487 3.70074e-18 0.00393175
0.574156 0.491176 3.46945e-18 0.00578835
0.523729 0.546332 0 0.00663846
0.756814 0.00184056 0 2.16418e-07
0.756814 0.00558849 0 3.26527e-06
0.756814 0.0094725 0 2.08925e-05
0.756814 0.0134975 3.46945e-18 4.27132e-05
0.756814 0.0155459 0 5.44184e-05
0.756814 0.0176687 -3.46945e-18 6.53267e-05
0.756814 0.0219913 -3.46945e-18 9.86093e-05
0.756814 0.0264709 3.46945e-18 0.000157703
0.756814 0.031113 -3.46945e-18 0.000293393
0.756814 0.0359238 -3.46945e-18 0.000461512
0.288433 0.700877 0 0.0121099
0.756814 0.0409092 0 0.000690341
0.756814 0.0460756 -3.46945e-18 0.000981139
0.756814 0.0514296 -3.46945e-18 0.00133162
0.715676 0.251863 0 0.0039595
0.756814 0.0569779 0 0.00173633
0.756814 0.0627277 3.46945e-18 0.00218586
0.756814 0.0686863 0 0.00264623
0 0.76019 0 0.0140822
0.756814 0.0748612 0 0.00280315
0.67013 0.360265 0 0.00454325
0.756814 0.0812603 0 0.00288723
0.756814 0.0878917 0 0.00296196
0.756814 0.0947639 -3.46945e-18 0.00302649
0.715676 0.264688 0 0.00398703
0.756814 0.101886 -3.46945e-18 0.00308289
0.624584 0.440544 0 0.00518353
0.756814 0.109266 -3.46945e-18 0.00313362
0.756814 0.116914 -3.46945e-18 0.00317997
0.412065 0.645647 0 0.00877267
0.467897 0.606847 0 0.00751072
0.756814 0.120806 0 0.00324428
0.756814 0.12484 3.46945e-18 0.00322271
0.715676 0.27798 -1.54074e-33 0.00401437
0.756814 0.133054 3.46945e-18 0.00326242
0.67013 0.377026 3.46945e-18 0.0045666
0.756814 0.137234 0 0.00332511
0.574156 0.51269 0 0.00580081
0.756814 0.141566 0 0.00329955
0.685312 0.352034 0 0.00445936
0.743101 0.2049 0 0.00364775
0.350249 0.686823 0 0.0100517
0.756814 0.150387 0 0.00333451
0.756814 0.154876 0 0.00339632
0.715676 0.291753 -6.16298e-33 0.00404148
0.756814 0.159528 0 0.00336764
0.523729 0.569849 0 0.00664839
0.72743 0.264688 0 0.00389979
0.756814 0.16418 0 0.00342922
0.151552 0.76019 3.70074e-18 0.0166463
0.756814 0.169001 3.46945e-18 0.00339923
0.624584 0.46022 0 0.0051968
0.219992 0.745098 -3.46945e-18 0.0140904
0.67013 0.394396 0 0.0045884
0.756814 0.178818 0 0.00342953
0.715676 0.306027 0 0.0040682
0.0757758 0.775831 3.46945e-18 0.0193513
0.756814 0.188991 0 0.00345873
0.756814 0.199534 -3.46945e-18 0.00348702
0.715676 0.320819 0 0.00409432
0.574156 0.534985 0 0.00581641
0.288433 0.730005 0 0.0120205
0.756814 0.21046 0 0.00351454
0.467897 0.632561 0 0.00752128
0.67013 0.412397 0 0.00460863
0.624584 0.48061 0 0.00521037
0.756814 0.221782 3.46945e-18 0.00354144
0.412065 0.67277 -2.31296e-18 0.00876443
0.715676 0.336148 0 0.00411961
0 0.791472 0 0.0138976
0.756814 0.233515 0 0.00356784
0.523729 0.594219 0 0.00666221
0.624584 0.487654 0 0.00521538
0.756814 0.245675 0 0.00359385
0.350249 0.715441 3.46945e-18 0.0100298
0.67013 0.431051 -3.46945e-18 0.0046274
0.715676 0.352034 0 0.00414387
0.797951 9.0819e-19 0 6.00896e-23
0.797951 0.00368111 0 1.73764e-06
0.797951 0.00749587 0 1.27649e-05
0.797951 0.0114491 0 3.37508e-05
0.797951 0.0141803 0 4.86166e-05
0.797951 0.0155459 0 5.60495e-05
0.797951 0.0169611 0 6.44151e-05
0.797951 0.0197915 0 8.11461e-05
0.797951 0.0219913 0 0.000100973
0.797951 0.0241911 0 0.000120799
0.797951 0.0264709 0 0.00016246
0.797951 0.0287506 0 0.000204121
0.797951 0.0334755 0 0.000343322
0.797951 0.038372 0 0.000529561
0.797951 0.0434463 0 0.000769175
0.797951 0.0487048 0 0.00106695
0.756814 0.258276 0 0.00361957
0.797951 0.0541543 0 0.00141909
0.797951 0.0598016 0 0.00181791
0.797951 0.0656539 0 0.00222515
0.574156 0.55809 0 0.00583525
0.624584 0.501741 -2.05433e-33 0.00522542
0.797951 0.0717187 0 0.00248944
0.797951 0.0780037 0 0.00259881
0.797951 0.0845169 0 0.00267875
0.797951 0.0912666 0 0.00274845
0.797951 0.0982613 0 0.00280895
0.756814 0.271334 -3.46945e-18 0.00364503
0.797951 0.10551 0 0.0028626
0.715676 0.368496 0 0.00416696
0.151552 0.791472 0 0.0164549
0.797951 0.113022 0 0.00291118
0.219992 0.775831 3.46945e-18 0.013952
0.797951 0.118212 0 0.00294084
0.770526 0.239487 0 0.00352894
0.797951 0.120806 9.25186e-19 0.00295567
0.67013 0.450382 3.46945e-18 0.00464511
0.797951 0.128874 -2.31296e-18 0.00299675
0.467897 0.659208 0 0.00753748
0.756814 0.284866 0 0.00367025
0.743101 0.320819 0 0.00388609
0.797951 0.137234 0 0.00303496
0.797951 0.141566 0 0.00305284
0.797951 0.145897 0 0.00307072
0.523729 0.619475 0 0.00668022
0.0757758 0.80768 0 0.0190959
0.797951 0.150387 0 0.00308755
0.797951 0.154876 9.25186e-19 0.00310438
0.715676 0.385557 0 0.00418885
0.412065 0.700877 -2.31296e-18 0.00876458
0.288433 0.76019 0 0.011946
0.756814 0.29889 -3.46945e-18 0.00369518
0.797951 0.16418 0 0.00313627
0.624584 0.523639 -1.54074e-33 0.00524275
0.797951 0.167394 0 0.00314639
0.797951 0.173822 0 0.00316663
0.574156 0.582034 0 0.00585732
0.67013 0.470415 0 0.00466246
0.797951 0.183814 0 0.0031957
0.756814 0.313423 0 0.00371973
0.797951 0.194169 0 0.00322367
0.715676 0.403236 -6.16298e-33 0.00420952
0.151552 0.80768 0 0.0163655
0.797951 0.197746 0 0.00323268
0.350249 0.745098 -3.46945e-18 0.0100182
0.797951 0.2049 0 0.00325069
0 0.823889 0 0.0137161
0.756814 0.328484 0 0.00374376
0.797951 0.21046 0 0.00326381
0.797951 0.21602 0 0.00327693
0.797951 0.223703 0 0.00329398
0.797951 0.227544 0 0.0033025
0.624584 0.546332 0 0.00526277
0.715676 0.421557 0 0.00422904
0.67013 0.491176 3.46945e-18 0.00468038
0.797951 0.231525 0 0.00331085
0.467897 0.686823 0 0.00755971
0.523729 0.645647 0 0.00670284
0.756814 0.344091 -3.46945e-18 0.00376711
0.822721 0.120806 0 0.00281734
0.797951 0.239487 0 0.00332754
0.822721 0.137234 0 0.00289657
0.835107 0.00184056 -3.46945e-18 1.48841e-07
0.835107 0.00558849 0 3.32048e-06
0.835107 0.0094725 3.46945e-18 2.35115e-05
0.835107 0.0134975 0 4.76862e-05
0.835107 0.0176687 0 6.82639e-05
0.835107 0.0219913 3.46945e-18 9.24709e-05
0.574156 0.606847 3.46945e-18 0.00588274
0.835107 0.0241911 0 0.000115638
0.835107 0.0264709 3.46945e-18 0.000135174
0.822721 0.145897 0 0.00293222
0.835107 0.031113 0 0.000232428
0.835107 0.0359238 0 0.000389485
0.835107 0.0409092 -3.46945e-18 0.0005817
0.835107 0.0460756 0 0.000830402
0.835107 0.0514296 -3.46945e-18 0.00113387
0.797951 0.251863 0 0.00335214
0.835107 0.0541543 0 0.00131715
0.835107 0.0569779 -3.46945e-18 0.0014864
0.219992 0.80768 -3.46945e-18 0.0138311
0.822721 0.154876 0 0.00296573
0.835107 0.0627277 -3.46945e-18 0.00187783
0.151552 0.823889 0 0.0162761
0.797951 0.255069 0 0.0033582
0.835107 0.0686863 3.46945e-18 0.00221038
0.756814 0.360265 3.46945e-18 0.00378965
0.412065 0.730005 0 0.00877311
0.835107 0.0748612 0 0.00232225
0.822721 0.16418 0 0.00299739