# pMean  POINT_DATA 63889
# x  y  z  pMean
0 0.5 3.39582e-17 0.19848
0 0.5 -0.00617965 0.198497
0 0.5 0.00617965 0.198467
0.0124871 0.5 -0.00617965 0.198497
0.0124871 0.5 0.00617965 0.198467
0 0.5 -0.0688203 0.198374
0 0.5 0.0688203 0.198044
0.0124871 0.5 -0.0688203 0.198374
0.0124871 0.5 0.0688203 0.198044
0 0.5 -0.075 0.198332
0 0.5 0.075 0.197974
0 0.5 -0.0811797 0.198295
0 0.5 0.0811797 0.197907
0.0124871 0.5 -0.0811797 0.198295
0.0124871 0.5 0.0811797 0.197907
0.0757758 0.5 -0.0375 0.198582
0.0757758 0.5 0.0375 0.1984
0.0757758 0.5 -0.1125 0.198105
0.0757758 0.5 0.1125 0.197569
0 0.5 -0.14382 0.197637
0 0.5 0.14382 0.196958
0.0124871 0.5 -0.14382 0.197637
0.0124871 0.5 0.14382 0.196958
0 0.5 -0.15 0.197544
0 0.5 0.15 0.196837
0.151149 0.5 -0.00137326 0.19884
0 0.5 -0.15618 0.197455
0 0.5 0.15618 0.196719
0.0124871 0.5 -0.15618 0.197455
0.0124871 0.5 0.15618 0.196719
0.151149 0.5 -0.075 0.198705
0.151149 0.5 0.075 0.19834
0.0757758 0.5 -0.1875 0.197006
0.0757758 0.5 0.1875 0.196127
0.151149 0.5 -0.15 0.197909
0.151149 0.5 0.15 0.197188
0 0.5 -0.21882 0.196279
0 0.5 0.21882 0.195257
0.0124871 0.5 -0.21882 0.196279
0.0124871 0.5 0.21882 0.195257
0.219992 0.5 -0.0375 0.199294
0.219992 0.5 0.0375 0.199105
0 0.5 -0.225 0.196135
0 0.5 0.225 0.195085
0 0.5 -0.23118 0.195994
0 0.5 0.23118 0.194916
0.0124871 0.5 -0.23118 0.195994
0.0124871 0.5 0.23118 0.194916
0.219992 0.5 -0.1125 0.198828
0.219992 0.5 0.1125 0.198274
0.151149 0.5 -0.225 0.196478
0.151149 0.5 0.225 0.195406
0.0757758 0.5 -0.2625 0.195286
0.0757758 0.5 0.2625 0.194065
0.288069 0.5 -0.00137326 0.202532
0.219992 0.5 -0.1875 0.197687
0.219992 0.5 0.1875 0.196773
0 0.5 -0.29382 0.194313
0 0.5 0.29382 0.192957
0.0124871 0.5 -0.29382 0.194313
0.0124871 0.5 0.29382 0.192957
0.288069 0.5 -0.075 0.202409
0.288069 0.5 0.075 0.20202
0 0.5 -0.3 0.19412
0 0.5 0.3 0.192737
0 0.5 -0.30618 0.193931
0 0.5 0.30618 0.192521
0.0124871 0.5 -0.30618 0.193931
0.0124871 0.5 0.30618 0.192521
0.288069 0.5 -0.15 0.201547
0.288069 0.5 0.15 0.200779
0.151149 0.5 -0.3 0.194437
0.151149 0.5 0.3 0.193025
0.219992 0.5 -0.2625 0.195924
0.219992 0.5 0.2625 0.194655
0.0757758 0.5 -0.3375 0.192977
0.0757758 0.5 0.3375 0.19143
0.350249 0.5 -0.0375 0.205838
0.350249 0.5 0.0375 0.205635
0.288069 0.5 -0.225 0.199997
0.288069 0.5 0.225 0.198856
0.350249 0.5 -0.1125 0.205294
0.350249 0.5 0.1125 0.204689
0 0.5 0.36882 0.190097
0 0.5 -0.36882 0.191773
0.0124871 0.5 -0.36882 0.191773
0.0124871 0.5 0.36882 0.190097
0 0.5 -0.375 0.191535
0 0.5 0.375 0.189833
0 0.5 -0.38118 0.1913
0 0.5 0.38118 0.189572
0.0124871 0.5 -0.38118 0.1913
0.0124871 0.5 0.38118 0.189572
0.350249 0.5 -0.1875 0.204007
0.350249 0.5 0.1875 0.203009
0.219992 0.5 -0.3375 0.193555
0.219992 0.5 0.3375 0.191948
0.151149 0.5 -0.375 0.191817
0.151149 0.5 0.375 0.190081
0.411736 0.5 -0.00137326 0.210165
0.288069 0.5 -0.3 0.197792
0.288069 0.5 0.3 0.196291
0.411736 0.5 -0.075 0.210018
0.411736 0.5 0.075 0.209593
0.0757758 0.5 -0.4125 0.190115
0.0757758 0.5 0.4125 0.188256
0.350249 0.5 -0.2625 0.202009
0.350249 0.5 0.2625 0.200631
0.411736 0.5 -0.15 0.209034
0.411736 0.5 0.15 0.208192
0 0.5 -0.44382 0.188698
0 0.5 0.44382 0.186717
0.0124871 0.5 -0.44382 0.188698
0.0124871 0.5 0.44382 0.186717
0 0.5 -0.45 0.188417
0 0.5 0.45 0.186413
0 0.5 -0.45618 0.18814
0 0.5 0.45618 0.186111
0.0124871 0.5 -0.45618 0.18814
0.0124871 0.5 0.45618 0.186111
0.219992 0.5 -0.4125 0.190621
0.219992 0.5 0.4125 0.188693
0.411736 0.5 0.225 0.206025
0.411736 0.5 -0.225 0.207271
0.467897 0.5 0.0375 0.214319
0.467897 0.5 -0.0375 0.214542
0.288069 0.5 -0.375 0.194967
0.288069 0.5 0.375 0.193125
0.151149 0.5 -0.45 0.18866
0.151149 0.5 0.45 0.186617
0.467897 0.5 -0.1125 0.213915
0.467897 0.5 0.1125 0.213249
0.350249 0.5 -0.3375 0.199335
0.350249 0.5 0.3375 0.197594
0.0757758 0.5 0.4875 0.184589
0.0757758 0.5 -0.4875 0.186741
0.467897 0.5 -0.1875 0.212444
0.467897 0.5 0.1875 0.211348
0.411736 0.5 -0.3 0.204767
0.411736 0.5 0.3 0.203132
0 0.5 -0.51882 0.18513
0 0.5 0.51882 0.182864
0.0124871 0.5 -0.51882 0.18513
0.0124871 0.5 0.51882 0.182864
0.523432 0.5 -0.00137326 0.219676
0 0.5 -0.525 0.184812
0 0.5 0.525 0.182523
0.523432 0.5 -0.075 0.219503
0.523432 0.5 0.075 0.219031
0 0.5 -0.53118 0.184496
0 0.5 0.53118 0.182184
0.0124871 0.5 -0.53118 0.184496
0.0124871 0.5 0.53118 0.182184
0.288069 0.5 -0.45 0.191569
0.288069 0.5 0.45 0.189407
0.219992 0.5 -0.4875 0.187166
0.219992 0.5 0.4875 0.184938
0.467897 0.5 -0.2625 0.210163
0.467897 0.5 0.2625 0.208654
0.350249 0.5 -0.4125 0.196034
0.350249 0.5 0.4125 0.19395
0.523432 0.5 -0.15 0.218373
0.523432 0.5 0.15 0.217437
0.151149 0.5 -0.525 0.185009
0.151149 0.5 0.525 0.18268
0.411736 0.5 -0.375 0.201567
0.411736 0.5 0.375 0.199566
0.0757758 0.5 -0.5625 0.182902
0.0757758 0.5 0.5625 0.180477
0.523432 0.5 -0.225 0.216356
0.523432 0.5 0.225 0.214974
0.574156 0.5 0.0375 0.22462
0.574156 0.5 -0.0375 0.22487
0.467897 0.5 -0.3375 0.207118
0.467897 0.5 0.3375 0.205215
0.574156 0.5 -0.1125 0.224145
0.574156 0.5 0.1125 0.223399
0 0.5 -0.59382 0.18112
0 0.5 0.59382 0.178588
0.0124871 0.5 -0.59382 0.18112
0.0124871 0.5 0.59382 0.178588
0.288069 0.5 -0.525 0.187651
0.288069 0.5 0.525 0.18519
0 0.5 -0.6 0.180767
0 0.5 0.6 0.178215
0.350249 0.5 0.4875 0.189756
0.350249 0.5 -0.4875 0.192158
0.523432 0.5 -0.3 0.213492
0.523432 0.5 0.3 0.211689
0.219992 0.5 -0.5625 0.183237
0.219992 0.5 0.5625 0.180731
0.574156 0.5 -0.1875 0.222459
0.574156 0.5 0.1875 0.221229
0 0.5 -0.60618 0.180417
0 0.5 0.60618 0.177844
0.0124871 0.5 -0.60618 0.180417
0.0124871 0.5 0.60618 0.177844
0.411736 0.5 -0.45 0.197728
0.411736 0.5 0.45 0.195384
0.151149 0.5 -0.6 0.180916
0.151149 0.5 0.6 0.178322
0.62168 0.5 4.33681e-17 0.230342
0.467897 0.5 -0.4125 0.203363
0.467897 0.5 0.4125 0.201094
0.624316 0.5 0.0729401 0.229926
0.624316 0.5 -0.075 0.230458
0.574156 0.5 -0.2625 0.219842
0.574156 0.5 0.2625 0.218158
0.0757758 0.5 -0.6375 0.178651
0.0757758 0.5 0.6375 0.175972
0.624316 0.5 -0.15 0.229156
0.624316 0.5 0.15 0.228104
0.523432 0.5 -0.375 0.209841
0.523432 0.5 0.375 0.20764
0.350249 0.5 -0.5625 0.18777
0.350249 0.5 0.5625 0.185075
0.624316 0.5 -0.225 0.226839
0.624316 0.5 0.225 0.225287
0.288069 0.5 -0.6 0.183268
0.288069 0.5 0.6 0.180534
0.574156 0.5 -0.3375 0.216353
0.574156 0.5 0.3375 0.214244
0.411736 0.5 0.525 0.190655
0.411736 0.5 -0.525 0.193314
0 0.5 0.66882 0.173942
0 0.5 -0.66882 0.176719
0.0124871 0.5 -0.66882 0.176719
0.0124871 0.5 0.66882 0.173942
0.67013 0.5 -0.0375 0.236546
0.67013 0.5 0.0375 0.236262
0.219992 0.5 -0.6375 0.178887
0.219992 0.5 0.6375 0.176126
0 0.5 -0.675 0.176336
0 0.5 0.675 0.173541
0.467897 0.5 -0.4875 0.198966
0.467897 0.5 0.4875 0.196358
0.67013 0.5 -0.1125 0.235707
0.67013 0.5 0.1125 0.234864
0 0.5 -0.68118 0.175957
0 0.5 0.68118 0.173142
0.0124871 0.5 -0.68118 0.175957
0.0124871 0.5 0.68118 0.173142
0.523432 0.5 -0.45 0.205471
0.523432 0.5 0.45 0.202902
0.151149 0.5 -0.675 0.176433
0.151149 0.5 0.675 0.173595
0.624316 0.5 -0.3 0.223556
0.624316 0.5 0.3 0.221534
0.67013 0.5 -0.1875 0.233761
0.67013 0.5 0.1875 0.232378
0.574156 0.5 0.4125 0.209554
0.574156 0.5 -0.4125 0.212064
0.708171 0.5 3.5345e-17 0.241765
0.0757758 0.5 -0.7125 0.17404
0.0757758 0.5 0.7125 0.171129
0.715434 0.5 0.0736267 0.241764
0.715434 0.5 -0.075 0.242534
0.67013 0.5 -0.2625 0.230758
0.67013 0.5 0.2625 0.228855
0.350249 0.5 -0.6375 0.182934
0.350249 0.5 0.6375 0.179974
0.411736 0.5 0.6 0.185451
0.411736 0.5 -0.6 0.188395
0.624316 0.5 -0.375 0.219376
0.624316 0.5 0.375 0.21692
0.715434 0.5 -0.15 0.241035
0.715434 0.5 0.15 0.239843
0.467897 0.5 -0.5625 0.194001
0.467897 0.5 0.5625 0.191085
0.288069 0.5 -0.675 0.178481
0.288069 0.5 0.675 0.175499
0.523432 0.5 -0.525 0.200459
0.523432 0.5 0.525 0.197556
0 0.5 0.74382 0.168981
0 0.5 -0.74382 0.171981
0.0124871 0.5 -0.74382 0.171981
0.0124871 0.5 0.74382 0.168981
0.219992 0.5 0.7125 0.171179
0.219992 0.5 -0.7125 0.174172
0.715434 0.5 -0.225 0.238373
0.715434 0.5 0.225 0.236616
0 0.5 -0.75 0.171573
0 0.5 0.75 0.168556
0.67013 0.5 -0.3375 0.226759
0.67013 0.5 0.3375 0.224379
0.574156 0.5 -0.4875 0.207054
0.574156 0.5 0.4875 0.204179
0 0.5 0.75618 0.168134
0 0.5 -0.75618 0.171168
0.0124871 0.5 -0.75618 0.171168
0.0124871 0.5 0.75618 0.168134
0.756814 0.5 0.0375 0.248824
0.756814 0.5 -0.0375 0.249148
0.151149 0.5 0.75 0.168556
0.151149 0.5 -0.75 0.171614
0.756814 0.5 -0.1125 0.248182
0.756814 0.5 0.1125 0.247221
0.624316 0.5 -0.45 0.214382
0.624316 0.5 0.45 0.211528
0.715434 0.5 -0.3 0.234608
0.715434 0.5 0.3 0.232323
0.756814 0.5 -0.1875 0.245947
0.756814 0.5 0.1875 0.244374
0.67013 0.5 -0.4125 0.221842
0.67013 0.5 0.4125 0.219031
0.411736 0.5 -0.675 0.183045
0.411736 0.5 0.675 0.179845
0.467897 0.5 -0.6375 0.188549
0.467897 0.5 0.6375 0.185357
0.0757758 0.5 -0.7875 0.169124
0.0757758 0.5 0.7875 0.166002
0.350249 0.5 -0.7125 0.177718
0.350249 0.5 0.7125 0.174519
0.523432 0.5 0.6 0.191691
0.523432 0.5 -0.6 0.194893
0.797732 0.5 1.60462e-17 0.255661
0.756814 0.5 -0.2625 0.2425
0.756814 0.5 0.2625 0.240342
0.797732 0.5 0.0736267 0.25452
0.797732 0.5 -0.075 0.255318
0.288069 0.5 0.75 0.170148
0.288069 0.5 -0.75 0.173352
0.574156 0.5 -0.5625 0.201415
0.574156 0.5 0.5625 0.198215
0.715434 0.5 -0.375 0.22982
0.715434 0.5 0.375 0.227055
0.797732 0.5 -0.15 0.253603
0.797732 0.5 0.15 0.252241
0.624316 0.5 -0.525 0.208674
0.624316 0.5 0.525 0.205463
0.219992 0.5 -0.7875 0.169147
0.219992 0.5 0.7875 0.165945
0 0.5 -0.81882 0.16696
0 0.5 0.81882 0.16376
0.0124871 0.5 -0.81882 0.16696
0.0124871 0.5 0.81882 0.16376
0 0.5 -0.825 0.166532
0 0.5 0.825 0.163316
0.756814 0.5 -0.3375 0.237915
0.756814 0.5 0.3375 0.235226
0.67013 0.5 0.4875 0.212913
0.67013 0.5 -0.4875 0.216117
0.797732 0.5 0.225 0.248557
0.797732 0.5 -0.225 0.250557
0 0.5 -0.83118 0.166106
0 0.5 0.83118 0.162874
0.0124871 0.5 -0.83118 0.166106
0.0124871 0.5 0.83118 0.162874
0.835107 0.5 -0.0375 0.262264
0.835107 0.5 0.0375 0.261892
0.151149 0.5 -0.825 0.166516
0.151149 0.5 0.825 0.16326
0.835107 0.5 0.1125 0.260061
0.835107 0.5 -0.1125 0.261162
0.715434 0.5 -0.45 0.224113
0.715434 0.5 0.45 0.220916
0.797732 0.5 -0.3 0.246254
0.797732 0.5 0.3 0.243659
0.467897 0.5 0.7125 0.179256
0.467897 0.5 -0.7125 0.182692
0.523432 0.5 -0.675 0.188864
0.523432 0.5 0.675 0.185398
0.411736 0.5 0.75 0.173914
0.411736 0.5 -0.75 0.17734
0.835107 0.5 -0.1875 0.258614
0.835107 0.5 0.1875 0.256813
0.574156 0.5 0.6375 0.19176
0.574156 0.5 -0.6375 0.195245
0.350249 0.5 -0.7875 0.172189
0.350249 0.5 0.7875 0.168779
0.756814 0.5 -0.4125 0.232291
0.756814 0.5 0.4125 0.229127
0.0757758 0.5 -0.8625 0.163957
0.0757758 0.5 0.8625 0.160647
0.624316 0.5 -0.6 0.202357
0.624316 0.5 0.6 0.198834
0.872064 0.5 4.81386e-17 0.268913
0.870122 0.5 0.075 0.267241
0.288069 0.5 -0.825 0.167943
0.288069 0.5 0.825 0.164541
0.67013 0.5 -0.5625 0.209695
0.67013 0.5 0.5625 0.206149
0.872064 0.5 -0.075 0.268524
0.835107 0.5 -0.2625 0.254677
0.835107 0.5 0.2625 0.252223
0.797732 0.5 -0.375 0.240793
0.797732 0.5 0.375 0.237663
0.872064 0.5 0.14794 0.26502
0.872064 0.5 -0.15 0.266575
0.715434 0.5 0.525 0.214031
0.715434 0.5 -0.525 0.217609
0.219992 0.5 -0.8625 0.163869
0.219992 0.5 0.8625 0.160481
0 0.5 -0.89382 0.16171
0 0.5 0.89382 0.15833
0.0124871 0.5 -0.89382 0.16171
0.0124871 0.5 0.89382 0.15833
0 0.5 -0.9 0.161265
0 0.5 0.9 0.157872
0.756814 0.5 -0.4875 0.225763
0.756814 0.5 0.4875 0.22217
0.872064 0.5 -0.225 0.263113
0.872064 0.5 0.225 0.260836
0.835107 0.5 0.3375 0.246394
0.835107 0.5 -0.3375 0.249459
0 0.5 -0.90618 0.160823
0 0.5 0.90618 0.157416
0.0124871 0.5 -0.90618 0.160823
0.0124871 0.5 0.90618 0.157416
0.905821 0.5 0.0375 0.275302
0.905821 0.5 -0.0375 0.275727
0.151149 0.5 -0.9 0.161193
0.151149 0.5 0.9 0.15776
0.905821 0.5 -0.1125 0.274479
0.905821 0.5 0.1125 0.273222
0.523432 0.5 -0.75 0.182463
0.523432 0.5 0.75 0.178769
0.574156 0.5 -0.7125 0.188646
0.574156 0.5 0.7125 0.184913
0.797732 0.5 -0.45 0.234298
0.797732 0.5 0.45 0.230699
0.467897 0.5 0.7875 0.172864
0.467897 0.5 -0.7875 0.176512
0.624316 0.5 -0.675 0.195541
0.624316 0.5 0.675 0.19175
0.411736 0.5 -0.825 0.171355
0.411736 0.5 0.825 0.167731
0.872064 0.5 -0.3 0.258226
0.872064 0.5 0.3 0.255279
0.67013 0.5 0.6375 0.198856
0.67013 0.5 -0.6375 0.202697
0.905821 0.5 -0.1875 0.27159
0.905821 0.5 0.1875 0.269537
0.350249 0.5 -0.8625 0.166414
0.350249 0.5 0.8625 0.16282
0.835107 0.5 -0.4125 0.243071
0.835107 0.5 0.4125 0.239486
0.715434 0.5 -0.6 0.210438
0.715434 0.5 0.6 0.206535
0.939201 0.5 3.31766e-17 0.282187
0.0757758 0.5 -0.9375 0.158591
0.0757758 0.5 0.9375 0.155113
0.939112 0.5 0.075 0.280667
0.939201 0.5 -0.075 0.281757
0.756814 0.5 -0.5625 0.218464
0.756814 0.5 0.5625 0.214511
0.905821 0.5 0.2625 0.264341
0.905821 0.5 -0.2625 0.26713
0.288069 0.5 -0.9 0.162313
0.288069 0.5 0.9 0.158739
0.872064 0.5 -0.375 0.252031
0.872064 0.5 0.375 0.24849
0.939201 0.5 0.148627 0.277684
0.939201 0.5 -0.15 0.279567
0.797732 0.5 -0.525 0.226917
0.797732 0.5 0.525 0.222913
0.219992 0.5 -0.9375 0.158392
0.219992 0.5 0.9375 0.154842
0.939201 0.5 -0.225 0.275674
0.939201 0.5 0.225 0.273073
0.905821 0.5 -0.3375 0.261218
0.905821 0.5 0.3375 0.257753
0.835107 0.5 -0.4875 0.235663
0.835107 0.5 0.4875 0.23163
0 0.5 -0.96882 0.156282
0 0.5 0.96882 0.152744
0.0124871 0.5 -0.96882 0.156282
0.0124871 0.5 0.96882 0.152744
0.96969 0.5 -0.0375 0.288907
0.96969 0.5 0.0375 0.288418
0.574156 0.5 0.7875 0.177775
0.574156 0.5 -0.7875 0.181719
0 0.5 -0.975 0.155825
0 0.5 0.975 0.152275
0.624316 0.5 -0.75 0.188341
0.624316 0.5 0.75 0.184322
0.96969 0.5 -0.1125 0.28752
0.96969 0.5 0.1125 0.286075
0.523432 0.5 -0.825 0.175781
0.523432 0.5 0.825 0.171892
0.67013 0.5 -0.7125 0.195246
0.67013 0.5 0.7125 0.191157
0 0.5 -0.98118 0.15537
0 0.5 0.98118 0.151808
0.467897 0.5 -0.8625 0.170091
0.467897 0.5 0.8625 0.16626
0.0124871 0.5 -0.98118 0.15537
0.0124871 0.5 0.98118 0.151808
0.872064 0.5 0.45 0.240629
0.872064 0.5 -0.45 0.244678
0.715434 0.5 -0.675 0.202734
0.715434 0.5 0.675 0.198559
0.939201 0.5 0.3 0.266824
0.939201 0.5 -0.3 0.270173
0.151149 0.5 -0.975 0.155696
0.151149 0.5 0.975 0.15211
0.96969 0.5 -0.1875 0.284294
0.96969 0.5 0.1875 0.281938
0.756814 0.5 0.6375 0.206287
0.756814 0.5 -0.6375 0.210538
0.411736 0.5 -0.9 0.165161
0.411736 0.5 0.9 0.161367
0.905821 0.5 -0.4125 0.253988
0.905821 0.5 0.4125 0.249954
0.995005 0.5 0.0749309 0.292273
0.797732 0.5 -0.6 0.218808
0.797732 0.5 0.6 0.214466
1.00005 0.5 3.26706e-18 0.295098
0.350249 0.5 0.9375 0.156706
0.350249 0.5 -0.9375 0.160457
1.00005 0.5 -0.0749309 0.294617
0.96969 0.5 -0.2625 0.279309
0.96969 0.5 0.2625 0.276115
0.835107 0.5 -0.5625 0.227415
0.835107 0.5 0.5625 0.222993
1.00005 0.5 -0.149862 0.292162
0.939201 0.5 -0.375 0.263202
0.939201 0.5 0.375 0.259199
1.00029 0.5 0.148988 0.289968
0.0757758 0.5 -1.0125 0.153075
0.0757758 0.5 1.0125 0.149452
0.288069 0.5 -0.975 0.156524
0.288069 0.5 0.975 0.152801
0.872064 0.5 -0.525 0.23635
0.872064 0.5 0.525 0.231866
1.00005 0.5 0.224793 0.284874
1.00005 0.5 -0.224793 0.287797
0.96969 0.5 0.3375 0.268749
0.96969 0.5 -0.3375 0.272683
1.02709 0.5 0.0368226 0.301374
1.02709 0.5 -0.0368226 0.301917
0.905821 0.5 0.4875 0.241108
0.905821 0.5 -0.4875 0.245634
1.02709 0.5 -0.110468 0.300398
1.02709 0.5 0.110468 0.298705
0.67013 0.5 -0.7875 0.187464
0.67013 0.5 0.7875 0.183171
0.624316 0.5 -0.825 0.180864
0.624316 0.5 0.825 0.176656
0.219992 0.5 -1.0125 0.152771
0.219992 0.5 1.0125 0.14908
0.574156 0.5 -0.8625 0.17456
0.574156 0.5 0.8625 0.170441
0.715434 0.5 -0.75 0.194633
0.715434 0.5 0.75 0.190236
0.756814 0.5 -0.7125 0.202138
0.756814 0.5 0.7125 0.197642
0.523432 0.5 0.9 0.164851
0.523432 0.5 -0.9 0.168906
0.939201 0.5 0.45 0.250382
0.939201 0.5 -0.45 0.25495
1.04168 0.5 0 0.305516
1.02709 0.5 -0.184113 0.296858
1.02709 0.5 0.184113 0.294244
0 0.5 1.04382 0.147052
0 0.5 -1.04382 0.150726
0.0124871 0.5 -1.04382 0.150726
0.0124871 0.5 1.04382 0.147052
1.00005 0.5 -0.299723 0.281631
1.00005 0.5 0.299723 0.27788
1.04168 0.5 -0.0729162 0.305034
1.04168 0.5 0.0729162 0.303934
0.797732 0.5 -0.675 0.21013
0.797732 0.5 0.675 0.205519
0.467897 0.5 -0.9375 0.163506
0.467897 0.5 0.9375 0.159519
0 0.5 -1.05 0.150262
0 0.5 1.05 0.146577
0.835107 0.5 0.6375 0.213769
0.835107 0.5 -0.6375 0.218489
1.04168 0.5 -0.145832 0.302498
1.04168 0.5 0.145832 0.300337
0.96969 0.5 -0.4125 0.264592
0.96969 0.5 0.4125 0.260029
0 0.5 -1.05618 0.149799
0 0.5 1.05618 0.146104
0.0124871 0.5 -1.05618 0.149799
0.0124871 0.5 1.05618 0.146104
1.05694 0.5 -0.0360765 0.309587
1.05694 0.5 0.0360765 0.309028
0.411736 0.5 0.975 0.15489
0.411736 0.5 -0.975 0.158828
0.872064 0.5 -0.6 0.227229
0.872064 0.5 0.6 0.222399
1.02709 0.5 -0.257758 0.291388
1.02709 0.5 0.257758 0.287844
0.151149 0.5 -1.05 0.150081
0.151149 0.5 1.05 0.146362
1.05694 0.5 -0.108229 0.308063
1.05694 0.5 0.108229 0.307093
1.04168 0.5 -0.218749 0.297972
1.04168 0.5 0.218749 0.294817
0.905821 0.5 -0.5625 0.236369
0.905821 0.5 0.5625 0.231429
1.00005 0.5 -0.374654 0.273832
1.00005 0.5 0.374654 0.269358
0.350249 0.5 -1.0125 0.154383
0.350249 0.5 1.0125 0.150497
1.05694 0.5 -0.180382 0.304498
1.05694 0.5 0.180382 0.301807
1.07319 0.5 0.0709442 0.311638
0.939201 0.5 0.525 0.240594
0.939201 0.5 -0.525 0.245638
1.02709 0.5 -0.331404 0.284123
1.02709 0.5 0.331404 0.279759
1.08112 0.5 -3.98986e-18 0.315849
1.04168 0.5 -0.291665 0.291568
1.04168 0.5 0.291665 0.287516
1.08112 0.5 -0.0709442 0.315388
0.96969 0.5 -0.4875 0.255287
0.96969 0.5 0.4875 0.250159
1.05694 0.5 -0.252535 0.298982
1.05694 0.5 0.252535 0.295329
0.288069 0.5 -1.05 0.150633
0.288069 0.5 1.05 0.146783
0.0757758 0.5 -1.0875 0.147463
0.0757758 0.5 1.0875 0.143716
1.08112 0.5 -0.141888 0.312844
1.08145 0.5 0.140165 0.310203
0.715434 0.5 -0.825 0.186268
0.715434 0.5 0.825 0.181693
0.756814 0.5 -0.7875 0.193414
0.756814 0.5 0.7875 0.188722
0.67013 0.5 -0.8625 0.179467
0.67013 0.5 0.8625 0.17501
0.797732 0.5 0.75 0.196227
0.797732 0.5 -0.75 0.201051
0.624316 0.5 -0.9 0.173215
0.624316 0.5 0.9 0.168854
1.00005 0.5 -0.449585 0.26462
1.00005 0.5 0.449585 0.259532
0.835107 0.5 -0.7125 0.209073
0.835107 0.5 0.7125 0.204115
0.574156 0.5 -0.9375 0.167262
0.574156 0.5 0.9375 0.162997
1.10076 0.5 0.034981 0.320922
1.10076 0.5 -0.034981 0.321538
1.08112 0.5 -0.212833 0.308282
1.08112 0.5 0.212833 0.304937
0.872064 0.5 -0.675 0.217503
0.872064 0.5 0.675 0.212412
1.04168 0.5 -0.364581 0.283458
1.04168 0.5 0.364581 0.278621
1.02709 0.5 0.405049 0.270205
1.02709 0.5 -0.405049 0.275282
1.05694 0.5 -0.324688 0.291638
1.05694 0.5 0.324688 0.287143
1.10076 0.5 -0.104943 0.320038
1.10076 0.5 0.104943 0.31822
0.523432 0.5 -0.975 0.161917
0.523432 0.5 0.975 0.157726
0.905821 0.5 -0.6375 0.226361
0.905821 0.5 0.6375 0.221142
0.219992 0.5 -1.0875 0.147064
0.219992 0.5 1.0875 0.143253
1.11376 0.5 0 0.324734
0.939201 0.5 -0.6 0.235472
0.939201 0.5 0.6 0.230079
1.10076 0.5 -0.174905 0.316461
1.10076 0.5 0.174905 0.313498
0.467897 0.5 -1.0125 0.156827
0.467897 0.5 1.0125 0.152711
1.11376 0.5 -0.0693118 0.324299
1.11376 0.5 0.0693118 0.323051
1.08112 0.5 -0.283777 0.301801
1.08112 0.5 0.283777 0.297505
0 0.5 1.11882 0.141303
0 0.5 -1.11882 0.145094
0.0124871 0.5 -1.11882 0.145094
0.0124871 0.5 1.11882 0.141303
0.96969 0.5 -0.5625 0.244996
0.96969 0.5 0.5625 0.239436
1.11376 0.5 -0.138624 0.321749
1.11376 0.5 0.138624 0.318911
0 0.5 -1.125 0.144626
0 0.5 1.125 0.140826
1.10076 0.5 0.244867 0.306866
1.10076 0.5 -0.244867 0.310888
0.411736 0.5 -1.05 0.152422
0.411736 0.5 1.05 0.148362
1.05694 0.5 -0.396841 0.282684
1.05694 0.5 0.396841 0.277456
1.00005 0.5 -0.524516 0.254239
1.00005 0.5 0.524516 0.248662
1.04168 0.5 -0.437497 0.273857
1.04168 0.5 0.437497 0.268372
0 0.5 -1.13118 0.144159
0 0.5 1.13118 0.14035
0.0124871 0.5 -1.13118 0.144159
0.0124871 0.5 1.13118 0.14035
1.11376 0.5 -0.207935 0.317143
1.11376 0.5 0.207935 0.313562
1.02709 0.5 -0.478694 0.265084
1.02709 0.5 0.478694 0.259442
0.151149 0.5 -1.125 0.144395
0.151149 0.5 1.125 0.140563
1.08112 0.5 0.354721 0.288443
1.08112 0.5 -0.354721 0.293568
1.13882 0.5 0.0340295 0.3313
1.13882 0.5 -0.0340295 0.331956
0.350249 0.5 -1.0875 0.148249
0.350249 0.5 1.0875 0.144248
1.13882 0.5 -0.102088 0.330449
1.13882 0.5 0.102088 0.328739
1.10076 0.5 0.314829 0.298485
1.10076 0.5 -0.314829 0.303433
0.756814 0.5 -0.8625 0.184498
0.756814 0.5 0.8625 0.179659
0.797732 0.5 -0.825 0.191725
0.797732 0.5 0.825 0.186743
1.11376 0.5 -0.277247 0.310577
1.11376 0.5 0.277247 0.305979
0.835107 0.5 0.7875 0.194207
0.835107 0.5 -0.7875 0.199339
0.715434 0.5 -0.9 0.177759
0.715434 0.5 0.9 0.173048
0.872064 0.5 -0.75 0.207378
0.872064 0.5 0.75 0.202086
1.13882 0.5 0.170147 0.323651
1.13882 0.5 -0.170147 0.326812
0.67013 0.5 -0.9375 0.171365
0.67013 0.5 0.9375 0.166778
0.905821 0.5 -0.7125 0.215847
0.905821 0.5 0.7125 0.210398
1.05694 0.5 -0.468994 0.272321
1.05694 0.5 0.468994 0.26653
0.939201 0.5 -0.675 0.224669
0.939201 0.5 0.675 0.219035
0.624316 0.5 -0.975 0.165488
0.624316 0.5 0.975 0.161004
1.04168 0.5 -0.510414 0.263009
1.04168 0.5 0.510414 0.257022
0.96969 0.5 -0.6375 0.233929
0.96969 0.5 0.6375 0.228099
0.288069 0.5 -1.125 0.144688
0.288069 0.5 1.125 0.140732
1.16179 0.5 0 0.338516
1.08112 0.5 -0.425665 0.283787
1.08112 0.5 0.425665 0.277982
1.13882 0.5 0.238206 0.316832
1.13882 0.5 -0.238206 0.321122
1.16179 0.5 -0.0669104 0.338097
1.16179 0.5 0.0669104 0.337686
0.574156 0.5 1.0125 0.155524
0.574156 0.5 -1.0125 0.159906
0.0757758 0.5 1.1625 0.13795
0.0757758 0.5 -1.1625 0.141803
1.00005 0.5 -0.599447 0.242947
1.00005 0.5 0.599447 0.237015
1.10076 0.5 -0.384791 0.2943
1.10076 0.5 0.384791 0.288552
1.02709 0.5 -0.552339 0.253793
1.02709 0.5 0.552339 0.247728
1.11376 0.5 0.346559 0.296727
1.11376 0.5 -0.346559 0.30221
1.16179 0.5 -0.133821 0.335496
1.16179 0.5 0.133821 0.332932
0.523432 0.5 -1.05 0.154888
0.523432 0.5 1.05 0.150586
1.17463 0.5 -0.0331343 0.342411
1.17463 0.5 0.0331343 0.341707
1.17463 0.5 -0.099403 0.340903
1.17463 0.5 0.099403 0.338821
1.16179 0.5 -0.200731 0.330769
1.16179 0.5 0.200731 0.326913
1.13882 0.5 -0.306265 0.313492
1.13882 0.5 0.306265 0.308213
0.219992 0.5 -1.1625 0.141305
0.219992 0.5 1.1625 0.137393
0.467897 0.5 -1.0875 0.150122
0.467897 0.5 1.0875 0.1459
1.17463 0.5 -0.165672 0.337212
1.17463 0.5 0.165672 0.333818
1.05694 0.5 0.541147 0.254606
1.05694 0.5 -0.541147 0.260835
1.18772 0.5 0 0.346042
1.11376 0.5 -0.415871 0.292244
1.11376 0.5 0.415871 0.286032
1.18772 0.5 -0.065614 0.345649
1.18772 0.5 0.065614 0.34403
1.08112 0.5 -0.49661 0.272705
1.08112 0.5 0.49661 0.266371
1.10076 0.5 -0.454752 0.283694
1.10076 0.5 0.454752 0.277324
1.18534 0.5 0.118202 0.340237
1.16179 0.5 -0.267642 0.324005
1.16179 0.5 0.267642 0.319053
0 0.5 -1.19382 0.139433
0 0.5 1.19382 0.135543
1.04168 0.5 -0.58333 0.251192
1.04168 0.5 0.58333 0.24484
0.0124871 0.5 -1.19382 0.139433
0.0124871 0.5 1.19382 0.135543
1.18772 0.5 -0.131228 0.343044
1.17463 0.5 -0.23194 0.331414
1.17463 0.5 0.23194 0.326804
0.411736 0.5 -1.125 0.145998
0.411736 0.5 1.125 0.14184
1.13882 0.5 -0.374324 0.304119
1.13882 0.5 0.374324 0.297987
0 0.5 -1.2 0.138964
0 0.5 1.2 0.135067
0.905821 0.5 -0.7875 0.205052
0.905821 0.5 0.7875 0.19944
0.872064 0.5 -0.825 0.19704
0.872064 0.5 0.825 0.19161
0.835107 0.5 0.8625 0.184199
0.835107 0.5 -0.8625 0.18945
0.939201 0.5 -0.75 0.21347
0.939201 0.5 0.75 0.207662
0.797732 0.5 -0.9 0.182295
0.797732 0.5 0.9 0.1772
1.02709 0.5 -0.625985 0.241703
1.02709 0.5 0.625985 0.23533
0.96969 0.5 -0.7125 0.222342
0.96969 0.5 0.7125 0.216325
1.18772 0.5 -0.196842 0.338276
1.18772 0.5 0.196842 0.334173
0.756814 0.5 -0.9375 0.175518
0.756814 0.5 0.9375 0.170574
0 0.5 -1.20618 0.138497
0 0.5 1.20618 0.134592
1.00005 0.5 -0.674378 0.231007
1.00005 0.5 0.674378 0.22484
0.0124871 0.5 -1.20618 0.138497
0.0124871 0.5 1.20618 0.134592
1.16179 0.5 -0.334552 0.315356
1.16179 0.5 0.334552 0.309451
0.715434 0.5 -0.975 0.169217
0.715434 0.5 0.975 0.164405
0.151149 0.5 -1.2 0.138681
0.151149 0.5 1.2 0.134754
1.20942 0.5 -0.0322645 0.353203
1.20942 0.5 0.0322645 0.352531
1.17463 0.5 -0.298209 0.323612
1.17463 0.5 0.298209 0.317937
1.20942 0.5 -0.0967935 0.351701
1.20942 0.5 0.0967935 0.349483
0.350249 0.5 -1.1625 0.142096
0.350249 0.5 1.1625 0.138003
0.67013 0.5 1.0125 0.158566
0.67013 0.5 -1.0125 0.163252
1.11376 0.5 -0.485183 0.280929
1.11376 0.5 0.485183 0.274146
1.18772 0.5 -0.262456 0.331432
1.18772 0.5 0.262456 0.326158
1.10076 0.5 0.524714 0.265044
1.10076 0.5 -0.524714 0.271904
1.20942 0.5 -0.161322 0.347973
1.20942 0.5 0.161322 0.344356
1.08112 0.5 0.567554 0.253887
1.08112 0.5 -0.567554 0.260602
0.624316 0.5 -1.05 0.157766
0.624316 0.5 1.05 0.153188
1.13882 0.5 -0.442383 0.293213
1.13882 0.5 0.442383 0.286412
1.05694 0.5 0.6133 0.241979
1.05694 0.5 -0.6133 0.248499
1.16179 0.5 -0.401463 0.305026
1.16179 0.5 0.401463 0.298334
0.574156 0.5 1.0875 0.148092
0.574156 0.5 -1.0875 0.152567
1.17463 0.5 -0.364478 0.314001
1.17463 0.5 0.364478 0.307408
1.20942 0.5 0.225851 0.337172
1.20942 0.5 -0.225851 0.342088
1.23036 0.5 1.15648e-18 0.359784
1.2294 0.5 0.0634819 0.357322
1.04168 0.5 -0.656246 0.238693
1.04168 0.5 0.656246 0.232097
1.23036 0.5 -0.0634819 0.359405
1.18772 0.5 0.32807 0.316367
1.18772 0.5 -0.32807 0.322658
0.288069 0.5 1.2 0.134686
0.288069 0.5 -1.2 0.138731
1.23036 0.5 -0.126964 0.356762
1.23036 0.5 0.126964 0.353809
0.0757758 0.5 -1.2375 0.136139
0.0757758 0.5 1.2375 0.132197
0.523432 0.5 -1.125 0.147886
0.523432 0.5 1.125 0.143496
1.02709 0.5 0.69963 0.222529
1.02709 0.5 -0.69963 0.229096
1.24275 0.5 -0.0314313 0.364105
1.24275 0.5 0.0314313 0.363307
1.20942 0.5 -0.29038 0.334142
1.20942 0.5 0.29038 0.328087
1.11376 0.5 -0.554494 0.268545
1.11376 0.5 0.554494 0.261353
1.23036 0.5 -0.190446 0.351898
1.23036 0.5 0.190446 0.347582
1.24275 0.5 -0.0942939 0.362619
1.24275 0.5 0.0942939 0.360249
1.13882 0.5 -0.510442 0.281062
1.13882 0.5 0.510442 0.273742
0.96969 0.5 0.7875 0.20434
0.96969 0.5 -0.7875 0.210475
1.00005 0.5 0.749309 0.212373
1.00005 0.5 -0.749309 0.218693
0.939201 0.5 -0.825 0.202091
0.939201 0.5 0.825 0.196178
0.905821 0.5 -0.8625 0.194154
0.905821 0.5 0.8625 0.188446
1.17463 0.5 0.430746 0.295477
1.17463 0.5 -0.430746 0.302792
1.10076 0.5 0.594676 0.252031
1.10076 0.5 -0.594676 0.259198
1.18772 0.5 -0.393684 0.312155
1.18772 0.5 0.393684 0.305022
1.24275 0.5 -0.157157 0.358862
1.24275 0.5 0.157157 0.354999
1.16179 0.5 -0.468373 0.293262
1.16179 0.5 0.468373 0.28596
0.467897 0.5 -1.1625 0.14345
0.467897 0.5 1.1625 0.139146
0.872064 0.5 -0.9 0.186648
0.872064 0.5 0.9 0.181131
1.25401 0.5 0 0.367218
0.835107 0.5 -0.9375 0.179551
0.835107 0.5 0.9375 0.174223
1.25401 0.5 0.0622994 0.365211
1.25401 0.5 -0.0622994 0.366873
1.08112 0.5 0.638498 0.240805
1.08112 0.5 -0.638498 0.247759
1.23036 0.5 -0.253928 0.344892
1.23036 0.5 0.253928 0.339343
0.219992 0.5 -1.2375 0.135537
0.219992 0.5 1.2375 0.13154
1.2531 0.5 0.121964 0.361106
1.05694 0.5 -0.685453 0.235604
1.05694 0.5 0.685453 0.228902
0.797732 0.5 -0.975 0.172886
0.797732 0.5 0.975 0.167722
1.25401 0.5 -0.124599 0.364237
1.20942 0.5 -0.354909 0.324321
1.20942 0.5 0.354909 0.317285
1.24275 0.5 -0.220019 0.3529
1.24275 0.5 0.220019 0.347649
0.756814 0.5 -1.0125 0.166582
0.756814 0.5 1.0125 0.161567
1.25401 0.5 -0.186898 0.35935
1.25401 0.5 0.186898 0.354771
0.411736 0.5 -1.2 0.139605
0.411736 0.5 1.2 0.13537
0 0.5 -1.26882 0.133781
0 0.5 1.26882 0.129809
0.0124871 0.5 -1.26882 0.133781
0.0124871 0.5 1.26882 0.129809
0.715434 0.5 -1.05 0.160735
0.715434 0.5 1.05 0.155853
1.23036 0.5 -0.317409 0.335879
1.23036 0.5 0.317409 0.32926
1.04168 0.5 -0.729162 0.225815
1.04168 0.5 0.729162 0.219063
1.18772 0.5 -0.459298 0.300168
1.18772 0.5 0.459298 0.292384
1.24275 0.5 0.282882 0.338348
1.24275 0.5 -0.282882 0.344821
0 0.5 -1.275 0.133315
0 0.5 1.275 0.129337
1.27472 0.5 -0.0306319 0.375027
1.27472 0.5 0.0306319 0.374183
1.17463 0.5 -0.497015 0.290271
1.17463 0.5 0.497015 0.282403
1.11376 0.5 0.623806 0.24794
1.11376 0.5 -0.623806 0.255382
1.13882 0.5 -0.578501 0.267947
1.13882 0.5 0.578501 0.260293
0.67013 0.5 -1.0875 0.155207
0.67013 0.5 1.0875 0.150454
1.27472 0.5 0.0918957 0.36947
1.27472 0.5 -0.0918957 0.373555
1.25401 0.5 -0.249198 0.352286
1.25401 0.5 0.249198 0.346395
1.16179 0.5 -0.535283 0.28036
1.16179 0.5 0.535283 0.272614
1.20942 0.5 0.419438 0.305023
1.20942 0.5 -0.419438 0.312836
0 0.5 -1.28118 0.13285
0 0.5 1.28118 0.128866
0.0124871 0.5 -1.28118 0.13285
0.0124871 0.5 1.28118 0.128866
1.27472 0.5 -0.15316 0.369774
1.27472 0.5 0.15316 0.365686
0.151149 0.5 -1.275 0.132981
0.151149 0.5 1.275 0.128975
1.02709 0.5 -0.773275 0.21626
1.02709 0.5 0.773275 0.209572
1.10076 0.5 -0.664638 0.245875
1.10076 0.5 0.664638 0.238526
0.350249 0.5 1.2375 0.131801
0.350249 0.5 -1.2375 0.135967
0.624316 0.5 -1.125 0.15012
0.624316 0.5 1.125 0.145473
1.23036 0.5 -0.380891 0.325054
1.23036 0.5 0.380891 0.317548
1.24275 0.5 -0.345744 0.334797
1.24275 0.5 0.345744 0.327276
1.2906 0.5 0 0.380309
1.2906 0.5 -0.0604698 0.380019
1.2906 0.5 0.0604698 0.378279
1.25401 0.5 -0.311497 0.343171
1.25401 0.5 0.311497 0.33614
1.27472 0.5 -0.214423 0.363742
1.27472 0.5 0.214423 0.358184
1.08112 0.5 0.709442 0.227392
1.08112 0.5 -0.709442 0.234494
1.00005 0.5 -0.824239 0.206252
1.00005 0.5 0.824239 0.199856
1.2906 0.5 -0.12094 0.377397
1.2906 0.5 0.12094 0.373973
0.574156 0.5 1.1625 0.140762
0.574156 0.5 -1.1625 0.145307
0.96969 0.5 -0.8625 0.198554
0.96969 0.5 0.8625 0.192374
1.18772 0.5 -0.524912 0.287
1.18772 0.5 0.524912 0.278738
1.05694 0.5 -0.757606 0.222481
1.05694 0.5 0.757606 0.215659
0.939201 0.5 0.9 0.184758
0.939201 0.5 -0.9 0.190721
1.30091 0.5 -0.0299772 0.384378
1.30091 0.5 0.0299772 0.383487
1.20942 0.5 -0.483967 0.299952
1.20942 0.5 0.483967 0.291569
1.17463 0.5 -0.563283 0.276741
1.17463 0.5 0.563283 0.268502
1.2906 0.5 -0.181409 0.372472
1.2906 0.5 0.181409 0.367462
0.905821 0.5 -0.9375 0.183307
0.905821 0.5 0.9375 0.177545
1.30091 0.5 -0.0899315 0.382931
1.30091 0.5 0.0899315 0.378342
1.27472 0.5 -0.275687 0.355541
1.27472 0.5 0.275687 0.348682
0.288069 0.5 -1.275 0.132804
0.288069 0.5 1.275 0.128688
0.872064 0.5 -0.975 0.176343
0.872064 0.5 0.975 0.170786
1.23036 0.5 -0.444373 0.312647
1.23036 0.5 0.444373 0.30447
1.24275 0.5 -0.408607 0.323044