# pMean  POINT_DATA 91129
# x  y  z  pMean
0 0 0 0.242536
0 0.00368111 0 0.2422
0 0.00749587 0 0.241469
0 0.0114491 0 0.24074
0 0.0155459 0 0.240081
0 0.0197915 0 0.239387
0 0.0241911 0 0.238602
0 0.0287506 0 0.237736
0 0.0334755 0 0.23682
0 0.038372 0 0.235873
0 0.0434463 0 0.234906
0 0.0487048 0 0.233927
0 0.0541543 0 0.232965
0 0.0598016 0 0.232064
0 0.0656539 0 0.231237
0 0.0717187 0 0.230442
0.0757758 0.00184056 0 0.242536
0.0757758 0.00558849 3.46945e-18 0.241865
0.0757758 0.0094725 0 0.241073
0.0757758 0.0134975 0 0.240407
0.0757758 0.0176687 0 0.239755
0 0.0780037 0 0.229641
0.0757758 0.0219913 0 0.239019
0.0757758 0.0264709 0 0.238185
0.0757758 0.031113 3.46945e-18 0.237287
0.0757758 0.0359238 -3.46945e-18 0.236352
0 0.0845169 0 0.228824
0.0757758 0.0409092 0 0.235393
0.0757758 0.0460756 0 0.234418
0 0.0912666 0 0.227994
0.0757758 0.0514296 3.46945e-18 0.233437
0.0757758 0.0569779 0 0.232493
0 0.0982613 0 0.227151
0.0757758 0.0627277 0 0.231635
0.0757758 0.0686863 0 0.230839
0 0.10551 0 0.226296
0.0757758 0.0748612 3.46945e-18 0.230046
0.0757758 0.0812603 3.46945e-18 0.229236
0 0.113022 0 0.225425
0.0757758 0.0878917 0 0.228412
0 0.120806 0 0.224537
0.0757758 0.0947639 -3.46945e-18 0.227575
0.0757758 0.101886 -3.46945e-18 0.226727
0 0.128874 0 0.223631
0.0757758 0.109266 0 0.225864
0 0.137234 0 0.222715
0.0757758 0.116914 -3.46945e-18 0.224986
0 0.145897 0 0.22181
0.0757758 0.12484 0 0.224088
0.151552 0 0 0.224813
0.151552 0.00368111 0 0.224684
0.151552 0.00749587 0 0.224433
0.151552 0.0114491 0 0.224228
0.151552 0.0155459 0 0.22406
0.151552 0.0197915 0 0.223866
0.0757758 0.133054 3.46945e-18 0.223173
0.151552 0.0241911 0 0.223622
0.151552 0.0287506 0 0.223331
0 0.154876 0 0.220946
0.151552 0.0334755 0 0.223008
0.151552 0.038372 0 0.222665
0.151552 0.0434463 0 0.222307
0.151552 0.0487048 0 0.221936
0.0757758 0.141566 0 0.222256
0.151552 0.0541543 0 0.221566
0.151552 0.0598016 0 0.221218
0 0.16418 0 0.220138
0.151552 0.0656539 0 0.220897
0.151552 0.0717187 0 0.220583
0.0757758 0.150387 0 0.221365
0.151552 0.0780037 0 0.220256
0.151552 0.0845169 0 0.219911
0 0.173822 0 0.219384
0.0757758 0.159528 3.46945e-18 0.220527
0.151552 0.0912666 0 0.21955
0.151552 0.0982613 0 0.219178
0 0.183814 0 0.218668
0.151552 0.10551 0 0.218796
0.0757758 0.169001 0 0.219749
0.151552 0.113022 0 0.218402
0.151552 0.120806 0 0.217989
0 0.194169 0 0.217971
0.0757758 0.178818 0 0.219019
0.151552 0.128874 0 0.217552
0.0757758 0.188991 3.46945e-18 0.218317
0.151552 0.137234 0 0.217093
0 0.2049 0 0.217277
0.151552 0.145897 0 0.216625
0.0757758 0.199534 -3.46945e-18 0.217625
0 0.21602 0 0.216567
0.151552 0.154876 0 0.216164
0.219992 0.00184056 -3.46945e-18 0.208454
0.219992 0.00558849 0 0.208576
0.219992 0.0094725 0 0.208839
0.219992 0.0134975 0 0.209133
0.219992 0.0176687 0 0.209408
0.219992 0.0219913 3.46945e-18 0.209669
0.219992 0.0264709 3.46945e-18 0.209917
0.219992 0.031113 0 0.210149
0.219992 0.0359238 0 0.210369
0.151552 0.16418 0 0.215718
0.0757758 0.21046 0 0.216929
0.219992 0.0409092 0 0.210578
0.219992 0.0460756 0 0.210775
0.219992 0.0514296 0 0.210959
0.219992 0.0569779 3.46945e-18 0.211128
0 0.227544 0 0.215817
0.219992 0.0627277 0 0.211283
0.219992 0.0686863 0 0.211421
0.151552 0.173822 0 0.215286
0.219992 0.0748612 -3.46945e-18 0.211541
0.0757758 0.221782 0 0.216205
0.219992 0.0812603 0 0.211642
0.219992 0.0878917 0 0.211723
0.151552 0.183814 0 0.214858
7.47804e-17 0.239487 0 0.215012
0.219992 0.0947639 0 0.211788
0.219992 0.101886 0 0.211845
0.0757758 0.233515 0 0.215428
0.219992 0.109266 0 0.211898
0.151552 0.194169 0 0.214425
0.219992 0.116914 -3.46945e-18 0.211937
0 0.251863 0 0.214167
0.219992 0.12484 0 0.21195
0.151552 0.2049 0 0.213978
0.0757758 0.245675 3.46945e-18 0.214597
0.219992 0.133054 0 0.211928
0.219992 0.141566 0 0.211876
0.151552 0.21602 0 0.213507
0 0.264688 0 0.2133
0.219992 0.150387 0 0.211799
0.0757758 0.258276 3.46945e-18 0.213737
0.219992 0.159528 0 0.211699
0.151552 0.227544 0 0.213
0.219992 0.169001 0 0.211576
0 0.27798 0 0.212416
0.0757758 0.271334 0 0.212862
0.151552 0.239487 3.70074e-18 0.212448
0.219992 0.178818 0 0.211428
0.288433 0 0 0.212564
0.288433 0.00368111 0 0.212608
0.288433 0.00749587 0 0.21274
0.288433 0.0114491 0 0.212929
0.288433 0.0155459 3.70074e-18 0.21313
0.288433 0.0197915 0 0.213327
0.288433 0.0241911 3.70074e-18 0.21352
0.288433 0.0287506 0 0.213708
0.219992 0.188991 0 0.211253
0.288433 0.0334755 0 0.213889
0.288433 0.038372 0 0.214064
0.288433 0.0434463 0 0.214233
7.47804e-17 0.291753 0 0.211512
0.288433 0.0487048 0 0.214394
0.288433 0.0541543 0 0.214545
0.151552 0.251863 0 0.211858
0.288433 0.0598016 3.70074e-18 0.214687
0.0757758 0.284866 -3.46945e-18 0.211969
0.288433 0.0656539 3.70074e-18 0.214818
0.219992 0.199534 0 0.211049
0.288433 0.0717187 0 0.214939
0.288433 0.0780037 0 0.21505
0.288433 0.0845169 0 0.215147
0.288433 0.0912666 0 0.215223
0.219992 0.21046 0 0.210815
0.288433 0.0982613 0 0.215281
0.151552 0.264688 3.70074e-18 0.211241
0 0.306027 0 0.210577
0.288433 0.10551 0 0.215324
0.0757758 0.29889 -3.46945e-18 0.211053
0.288433 0.113022 0 0.215353
0.219992 0.221782 0 0.210549
0.288433 0.120806 0 0.215365
0.288433 0.128874 0 0.215359
0.151552 0.27798 0 0.210601
0.288433 0.137234 0 0.215333
0 0.320819 0 0.209604
0.219992 0.233515 0 0.210249
0.0757758 0.313423 0 0.210101
0.288433 0.145897 0 0.215283
0.288433 0.154876 0 0.215208
0.151552 0.291753 0 0.209938
0.219992 0.245675 0 0.209913
0.288433 0.16418 0 0.215109
0 0.336148 0 0.208608
0.288433 0.173822 0 0.214986
0.0757758 0.328484 0 0.209107
0.219992 0.258276 0 0.20954
0.151552 0.306027 0 0.209241
0.288433 0.183814 0 0.214836
0.288433 0.194169 0 0.214658
0.219992 0.271334 -3.46945e-18 0.209138
0.350249 0.00184056 0 0.216372
0.350249 0.00558849 0 0.216428
0.350249 0.0094725 0 0.216525
0.350249 0.0134975 0 0.216642
0.350249 0.0176687 3.46945e-18 0.216769
0.350249 0.0219913 0 0.216904
0.350249 0.0264709 -3.46945e-18 0.217044
0.350249 0.031113 -3.46945e-18 0.217183
0 0.352034 0 0.207625
0.350249 0.0359238 3.46945e-18 0.217323
0.0757758 0.344091 0 0.208108
0.350249 0.0409092 0 0.217461
0.350249 0.0460756 0 0.217596
0.288433 0.2049 0 0.21445
0.350249 0.0514296 0 0.217727
0.151552 0.320819 0 0.208499
0.350249 0.0569779 3.46945e-18 0.217853
0.350249 0.0627277 0 0.217973
0.350249 0.0686863 0 0.218087
0.350249 0.0748612 3.46945e-18 0.2182
0.350249 0.0812603 0 0.21831
0.219992 0.284866 0 0.208713
0.288433 0.21602 0 0.21421
0.350249 0.0878917 0 0.218403
0.350249 0.0947639 0 0.218469
0.350249 0.101886 0 0.218511
0.350249 0.109266 3.46945e-18 0.218534
0.288433 0.227544 0 0.213937
0.0757758 0.360265 0 0.207142
0 0.368496 0 0.206653
0.151552 0.336148 0 0.207717
0.350249 0.116914 3.46945e-18 0.218538
0.219992 0.29889 0 0.208257
0.370854 0.0241911 0 0.219951
0.350249 0.12484 0 0.218533
0.350249 0.133054 3.46945e-18 0.218524
0.288433 0.239487 -9.25186e-19 0.213628
0.350249 0.141566 -3.46945e-18 0.2185
0.350249 0.150387 0 0.218451
0.288433 0.251863 0 0.213283
0.219992 0.313423 0 0.207757
0.151552 0.352034 0 0.206912
0.0757758 0.377026 -3.46945e-18 0.206164
0.350249 0.159528 3.46945e-18 0.218376
0 0.385557 0 0.205639
0.350249 0.169001 3.46945e-18 0.218276
0.288433 0.264688 0 0.212901
0.350249 0.178818 0 0.218151
0.219992 0.328484 0 0.207201
0.350249 0.188991 0 0.217998
0.151552 0.368496 0 0.206086
0.288433 0.27798 3.70074e-18 0.212486
0.0757758 0.394396 -3.46945e-18 0.205114
0.350249 0.199534 3.46945e-18 0.217816
7.47804e-17 0.403236 0 0.204554
0.219992 0.344091 0 0.206588
0.350249 0.21046 0 0.217603
0.288433 0.291753 0 0.212037
0.412065 9.0819e-19 0 0.222767
0.412065 0.00368111 -2.31296e-18 0.222787
0.412065 0.00749587 -2.31296e-18 0.22284
0.412065 0.0114491 -2.31296e-18 0.222913
0.412065 0.0155459 -2.31296e-18 0.222994
0.412065 0.0197915 0 0.223079
0.412065 0.0241911 0 0.223167
0.412065 0.0264709 0 0.223212
0.412065 0.0287506 -2.31296e-18 0.223258
0.412065 0.0334755 -2.31296e-18 0.223351
0.412065 0.038372 -2.31296e-18 0.223447
0.151552 0.385557 0 0.205213
0.412065 0.0434463 0 0.223543
0.350249 0.221782 0 0.217357
0.412065 0.0487048 0 0.223639
0.412065 0.0541543 0 0.223735
0.412065 0.0569779 0 0.223781
0.412065 0.0598016 -2.31296e-18 0.223828
0.412065 0.0656539 -2.31296e-18 0.223918
0.412065 0.0717187 -2.31296e-18 0.224002
0.0757758 0.412397 0 0.203993
0.412065 0.0780037 -2.31296e-18 0.22407
0.288433 0.306027 0 0.211549
0.412065 0.0845169 -2.31296e-18 0.224114
0.350249 0.233515 0 0.217076
0 0.421557 0 0.203407
0.412065 0.0912666 -2.31296e-18 0.224132
0.219992 0.360265 -3.46945e-18 0.205921
0.412065 0.0982613 0 0.224131
0.412065 0.10551 0 0.224114
0.412065 0.113022 -2.31296e-18 0.224081
0.350249 0.245675 3.46945e-18 0.216758
0.412065 0.120806 0 0.224034
0.151552 0.403236 0 0.204278
0.288433 0.320819 0 0.211013
0.412065 0.128874 -2.31296e-18 0.223975
0.412065 0.137234 0 0.223904
0.350249 0.258276 3.46945e-18 0.216401
0.219992 0.377026 0 0.205204
0.412065 0.145897 -2.31296e-18 0.223816
0.0757758 0.431051 0 0.202821
0.412065 0.154876 -2.31296e-18 0.223709
0 0.440544 0 0.202215
0.288433 0.336148 0 0.210424
0.350249 0.271334 0 0.216004
0.412065 0.16418 -2.31296e-18 0.22358
0.412065 0.173822 -2.31296e-18 0.223429
0.151552 0.421557 0 0.203282
0.412065 0.183814 -2.31296e-18 0.223255
0.350249 0.284866 0 0.215568
0.219992 0.394396 0 0.204435
0.288433 0.352034 3.70074e-18 0.209782
0.412065 0.194169 0 0.223054
0.0757758 0.450382 0 0.201607
0.412065 0.2049 -2.31296e-18 0.222826
0 0.46022 0 0.200981
0.350249 0.29889 0 0.215092
0.412065 0.21602 0 0.222568
0.151552 0.440544 0 0.202231
0.219992 0.412397 3.46945e-18 0.20361
0.467897 0.00184056 -3.46945e-18 0.228716
0.467897 0.00558849 0 0.228742
0.288433 0.368496 0 0.209085
0.467897 0.0094725 0 0.22878
0.467897 0.0134975 3.46945e-18 0.228822
0.467897 0.0176687 3.46945e-18 0.228865
0.467897 0.0219913 -3.46945e-18 0.228906
0.467897 0.0264709 -3.46945e-18 0.22895
0.467897 0.031113 3.46945e-18 0.228999
0.467897 0.0359238 0 0.229051
0.467897 0.038372 0 0.22976
0.467897 0.0409092 0 0.229108
0.350249 0.313423 0 0.214572
0.467897 0.0460756 0 0.229168
0.467897 0.0514296 3.46945e-18 0.229232
0.412065 0.227544 -2.31296e-18 0.222278
0.467897 0.0569779 0 0.229298
0.467897 0.0627277 -3.46945e-18 0.229365
0.467897 0.0686863 0 0.229429
0.467897 0.0748612 3.46945e-18 0.229476
0.467897 0.0812603 3.46945e-18 0.229485
0.467897 0.0878917 3.46945e-18 0.229456
0.0757758 0.470415 3.46945e-18 0.200352
0.412065 0.239487 -2.31296e-18 0.221954
0.467897 0.0947639 0 0.229408
0.467897 0.101886 3.46945e-18 0.22935
0.350249 0.328484 0 0.214006
0.467897 0.109266 3.46945e-18 0.229282
0 0.48061 0 0.199701
0.288433 0.385557 0 0.208333
0.467897 0.116914 3.46945e-18 0.2292
0.412065 0.251863 -2.31296e-18 0.221594
0.219992 0.431051 0 0.202722
0.467897 0.12484 0 0.229101
0.151552 0.46022 0 0.201127
0.467897 0.133054 0 0.228985
0.467897 0.141566 -3.46945e-18 0.228857
0.412065 0.264688 -2.31296e-18 0.221195
0.350249 0.344091 0 0.213388
0.467897 0.150387 0 0.228715
0.467897 0.154876 0 0.229415
0.467897 0.159528 0 0.228557
0.288433 0.403236 0 0.207523
0.0757758 0.491176 3.46945e-18 0.199048
0.412065 0.27798 -2.31296e-18 0.220755
0.467897 0.169001 0 0.228381
0.467897 0.178818 -3.46945e-18 0.228184
0.219992 0.450382 3.46945e-18 0.20177
6.73024e-17 0.501741 3.70074e-18 0.19837
0.350249 0.360265 0 0.212716
0.151552 0.48061 0 0.199967
0.467897 0.188991 0 0.227966
0.412065 0.291753 0 0.220274
0.467897 0.199534 0 0.227723
0.288433 0.421557 0 0.206652
0.467897 0.21046 3.46945e-18 0.227453
0.412065 0.306027 0 0.219748
0.350249 0.377026 0 0.211986
0.467897 0.221782 0 0.227155
0.0757758 0.51269 0 0.197691
0.219992 0.470415 0 0.200754
0.467897 0.227544 0 0.227732
0.412065 0.320819 -2.31296e-18 0.219175
0.467897 0.233515 0 0.226825
6.73024e-17 0.523639 3.70074e-18 0.196987
0.523729 0 0 0.23584
0.523729 0.00368111 0 0.23585
0.523729 0.00749587 -2.31296e-18 0.235876
0.523729 0.0114491 0 0.235909
0.523729 0.0155459 0 0.23594
0.523729 0.0197915 -2.31296e-18 0.235965
0.151552 0.501741 0 0.198747
0.523729 0.0241911 0 0.235988
0.523729 0.0287506 0 0.236013
0.523729 0.0334755 0 0.236042
0.523729 0.038372 0 0.236073
0.523729 0.0434463 0 0.236107
0.523729 0.0487048 0 0.236145
0.523729 0.0541543 0 0.236185
0.288433 0.440544 0 0.205714
0.523729 0.0598016 0 0.236228
0.350249 0.394396 0 0.211196
0.523729 0.0656539 0 0.23627
0.467897 0.245675 3.46945e-18 0.226461
0.523729 0.0717187 0 0.236298
0.523729 0.0780037 0 0.236292
0.523729 0.0845169 0 0.236245
0.523729 0.0912666 0 0.236174
0.412065 0.336148 0 0.218551
0.523729 0.0982613 0 0.236089
0.523729 0.10551 -2.31296e-18 0.235994
0.467897 0.258276 3.46945e-18 0.226061
0.523729 0.113022 0 0.235887
0.523729 0.120806 0 0.235765
0.219992 0.491176 3.46945e-18 0.199674
0.523729 0.12484 0 0.235696
0.523729 0.128874 -2.31296e-18 0.235627
0.0757758 0.534985 -3.46945e-18 0.19628
0.467897 0.271334 0 0.225621
0.350249 0.412397 3.46945e-18 0.210344
0.523729 0.137234 0 0.235474
0.412065 0.352034 -2.31296e-18 0.217873
0.288433 0.46022 0 0.204709
0.523729 0.145897 0 0.235306
0.151552 0.523639 0 0.19746
0.523729 0.154876 0 0.235121
0 0.546332 0 0.195546
0.523729 0.159528 0 0.235019
0.467897 0.284866 3.46945e-18 0.225139
0.523729 0.16418 -2.31296e-18 0.234916
0.523729 0.173822 0 0.234691
0.412065 0.368496 0 0.217138
0.523729 0.183814 0 0.234444
0.467897 0.29889 -3.46945e-18 0.224612
0.350249 0.431051 0 0.209425
0.219992 0.51269 3.46945e-18 0.198518
0.523729 0.194169 0 0.234171
0.288433 0.48061 0 0.203633
0.523729 0.2049 0 0.233872
0.467897 0.313423 0 0.224037
0.0757758 0.55809 0 0.19481
0.412065 0.385557 0 0.216343
0.523729 0.21602 0 0.233545
0.151552 0.546332 0 0.196102
0 0.569849 0 0.194044
0.350249 0.450382 0 0.208437
0.523729 0.227544 0 0.233186
0.467897 0.328484 0 0.223411
0.523729 0.231525 0 0.233056
0.574156 0.00184056 0 0.242495
0.574156 0.00558849 0 0.242512
0.574156 0.0094725 0 0.242538
0.574156 0.0134975 0 0.242563
0.574156 0.0176687 0 0.242578
0.574156 0.0219913 3.46945e-18 0.242583
0.574156 0.0264709 0 0.242587
0.574156 0.031113 0 0.242594
0.574156 0.0359238 3.46945e-18 0.242603
0.574156 0.0409092 -3.46945e-18 0.242613
0.523729 0.239487 3.70074e-18 0.232794
0.574156 0.0460756 3.46945e-18 0.242626
0.574156 0.0514296 0 0.242643
0.412065 0.403236 0 0.215484
0.574156 0.0569779 0 0.242662
0.574156 0.0627277 0 0.242684
0.574156 0.0686863 0 0.242701
0.219992 0.534985 0 0.197279
0.288433 0.501741 0 0.202484
0.574156 0.0748612 0 0.242688
0.574156 0.0812603 0 0.242625
0.467897 0.344091 3.46945e-18 0.222731
0.574156 0.0878917 0 0.242528
0.523729 0.251863 0 0.232367
0.574156 0.0947639 -3.46945e-18 0.242419
0.574156 0.101886 0 0.2423
0.574156 0.109266 3.46945e-18 0.24217
0.574156 0.116914 -3.46945e-18 0.242026
0.412065 0.416977 0 0.21479
0.350249 0.470415 0 0.207375
0.523729 0.264688 0 0.2319
0.0757758 0.582034 0 0.193275
0.574156 0.12484 0 0.241868
0.574156 0.133054 0 0.241695
0.412065 0.421557 -2.31296e-18 0.214559
0.151552 0.569849 0 0.194669
0.467897 0.360265 0 0.221995
0.574156 0.141566 -3.46945e-18 0.241504
0.523729 0.27798 0 0.231393
0.574156 0.150387 -3.46945e-18 0.241296
0 0.594219 0 0.192475
0.574156 0.159528 0 0.241068
0.574156 0.16418 0 0.241598
0.288433 0.523639 9.24446e-33 0.201253
0.574156 0.169001 -3.46945e-18 0.240818
0.523729 0.291753 0 0.230841
0.219992 0.55809 -3.46945e-18 0.195955
0.467897 0.377026 0 0.221198
0.574156 0.178818 -3.46945e-18 0.240545
0.412065 0.440544 -2.31296e-18 0.213564
0.350249 0.491176 3.46945e-18 0.206236
0.574156 0.188991 0 0.240248
0.523729 0.306027 0 0.230243
0.574156 0.199534 0 0.239924
0.574156 0.21046 0 0.239571
0.0757758 0.606847 0 0.191671
0.467897 0.394396 3.46945e-18 0.220338
0.151552 0.594219 0 0.193158
0.523729 0.320819 0 0.229595
0.574156 0.221782 -3.46945e-18 0.239188
0.412065 0.46022 0 0.212496
0.288433 0.546332 0 0.199937
0 0.619475 0 0.190832
0.574156 0.233515 0 0.238771
0.350249 0.51269 3.46945e-18 0.205017
0.219992 0.582034 0 0.194542
0.523729 0.336148 0 0.228894
0.467897 0.412397 0 0.219411
0.574156 0.245675 3.46945e-18 0.238319
0.624584 0 0 0.250428
0.624584 0.00368111 0 0.250436
0.624584 0.00749587 0 0.250456
0.624584 0.0114491 0 0.250481
0.624584 0.0155459 0 0.2505
0.624584 0.0197915 0 0.250505
0.624584 0.0241911 -2.31296e-18 0.250499
0.624584 0.0287506 0 0.250491
0.624584 0.0334755 0 0.250484
0.624584 0.038372 0 0.250479
0.624584 0.0434463 -2.31296e-18 0.250475
0.624584 0.0487048 0 0.250472
0.624584 0.0541543 0 0.25047
0.624584 0.0598016 0 0.25047
0.624584 0.0656539 0 0.250463
0.624584 0.0717187 0 0.250434
0.624584 0.0780037 0 0.250362
0.574156 0.258276 0 0.23783
0.624584 0.0845169 0 0.250253
0.523729 0.352034 0 0.228136
0.624584 0.0912666 0 0.250123
0.624584 0.0982613 0 0.249981
0.412065 0.48061 0 0.21135
0.624584 0.10551 0 0.249827
0.624584 0.113022 -2.31296e-18 0.249658
0.574156 0.271334 0 0.237301
0.624584 0.120806 0 0.249474
0.467897 0.431051 0 0.218415
0.0757758 0.632561 3.46945e-18 0.189991
0.624584 0.128874 0 0.249273
0.151552 0.619475 0 0.191563
0.288433 0.569849 0 0.198531
0.350249 0.534985 0 0.203713
0.624584 0.137234 -2.31296e-18 0.249055
0.523729 0.368496 0 0.22732
0.574156 0.284866 -3.46945e-18 0.236729
0.624584 0.145897 0 0.248817
0.467897 0.440544 0 0.218476
0.624584 0.154876 0 0.248559
0.219992 0.606847 0 0.193038
0 0.645647 0 0.189112
0.624584 0.16418 0 0.248279
0.574156 0.29889 0 0.236111
0.624584 0.173822 0 0.247975
0.412065 0.501741 0 0.210123
0.467897 0.450382 0 0.217345
0.523729 0.385557 0 0.22644
0.624584 0.183814 0 0.247646
0.624584 0.194169 0 0.24729
0.574156 0.313423 3.46945e-18 0.235444
0.624584 0.2049 0 0.246905
0.350249 0.55809 3.46945e-18 0.202321
0.288433 0.594219 0 0.197034
0.624584 0.21602 0 0.246488
0.523729 0.403236 0 0.225494
0.574156 0.328484 -3.46945e-18 0.234726
0.151552 0.645647 0 0.18988
0.467897 0.470415 0 0.216198
0.0757758 0.659208 3.46945e-18 0.18823
0.624584 0.227544 0 0.246039
0.412065 0.523639 0 0.208811
0.523729 0.41545 0 0.224816
0.624584 0.239487 3.70074e-18 0.245554
0.574156 0.344091 0 0.233952
0.219992 0.632561 -3.46945e-18 0.19144
0.67013 0.00184056 3.46945e-18 0.257875
0.67013 0.00558849 -3.46945e-18 0.25789
0.67013 0.0094725 3.46945e-18 0.257914
0.67013 0.0134975 -3.46945e-18 0.257939
0.67013 0.0176687 0 0.257949
0.67013 0.0219913 0 0.25794
0.67013 0.0264709 3.46945e-18 0.257919
0.67013 0.031113 0 0.257898
0.67013 0.0359238 -3.46945e-18 0.257878
0.67013 0.0409092 0 0.257859
0.67013 0.0460756 0 0.25784
0.67013 0.0514296 -3.46945e-18 0.257821
0.523729 0.421557 0 0.224478
0.67013 0.0569779 0 0.257801
0 0.67277 0 0.187309
0.67013 0.0627277 3.46945e-18 0.257779
0.624584 0.251863 0 0.245031
0.67013 0.0686863 0 0.257741
0.67013 0.0748612 -3.46945e-18 0.25766
0.67013 0.0812603 0 0.257535
0.67013 0.0878917 0 0.257386
0.67013 0.0947639 0 0.257225
0.574156 0.360265 3.46945e-18 0.23312
0.67013 0.101886 3.46945e-18 0.257051
0.523729 0.431051 0 0.223933
0.624584 0.264688 0 0.244469
0.467897 0.491176 0 0.214969
0.67013 0.109266 3.46945e-18 0.256861
0.350249 0.582034 0 0.200836
0.67013 0.116914 -3.46945e-18 0.256654
0.67013 0.12484 0 0.25643
0.67013 0.133054 -3.46945e-18 0.256187
0.288433 0.619475 0 0.19544
0.624584 0.27798 0 0.243863
0.412065 0.546332 0 0.20741
0.523729 0.440544 0 0.223388
0.67013 0.141566 0 0.255925
0.685312 0.0241911 0 0.261185
0.685312 0.0434463 0 0.261073
0.67013 0.150387 0 0.255641
0.574156 0.377026 0 0.232226
0.67013 0.159528 0 0.255334
0.624584 0.291753 0 0.243212
0.151552 0.67277 0 0.188106
0.0757758 0.686823 0 0.186384
0.67013 0.169001 -3.46945e-18 0.255003
0.67013 0.178818 0 0.254647
0.467897 0.51269 3.46945e-18 0.213656
0.685312 0.113022 0 0.25985
0.219992 0.659208 0 0.189743
0.624584 0.306027 0 0.242513
0.67013 0.188991 0 0.254263
0.574156 0.394396 -3.46945e-18 0.231266
0.523729 0.46022 0 0.22222
0.685312 0.137234 0 0.259101
0.67013 0.199534 3.46945e-18 0.253849
0.350249 0.606847 3.46945e-18 0.199253
0 0.700877 0 0.185417
0.624584 0.320819 0 0.241762
0.67013 0.21046 -3.46945e-18 0.253405
0.412065 0.569849 -2.31296e-18 0.205914
0.67013 0.221782 0 0.252927
0.574156 0.412397 -3.46945e-18 0.230236
0.288433 0.645647 0 0.193746
0.624584 0.336148 0 0.240956
0.67013 0.233515 -3.46945e-18 0.252413
0.467897 0.534985 0 0.212252
0.523729 0.48061 0 0.22097
0.624584 0.344091 0 0.240524
0.67013 0.245675 0 0.251862
0.715676 4.54095e-19 -1.54074e-33 0.266494
0.715676 0.00368111 0 0.266501
0.715676 0.00749587 0 0.26652
0.715676 0.0114491 -1.54074e-33 0.266545
0.715676 0.0155459 0 0.266561
0.715676 0.0197915 0 0.266555
0.715676 0.0241911 0 0.266528
0.715676 0.0287506 0 0.266491
0.715676 0.0334755 0 0.266452
0.715676 0.038372 0 0.266413
0.624584 0.352034 -2.31296e-18 0.240092
0.715676 0.0434463 0 0.266372
0.151552 0.700877 0 0.186235
0.715676 0.0487048 0 0.26633
0.715676 0.0541543 0 0.266288
0.574156 0.431051 -3.46945e-18 0.229132
0.715676 0.0598016 0 0.266242
0.67013 0.258276 0 0.251271
0.715676 0.0656539 0 0.266184
0.715676 0.0717187 0 0.266092
0.0757758 0.715441 0 0.184445
0.715676 0.0780037 0 0.265955
0.715676 0.0845169 0 0.265786
0.219992 0.686823 0 0.187945
0.715676 0.0912666 0 0.265599
0.715676 0.0982613 0 0.265398
0.67013 0.271334 0 0.250637
0.350249 0.632561 3.46945e-18 0.197569
0.412065 0.594219 -2.31296e-18 0.20432
0.715676 0.10551 0 0.265181
0.715676 0.113022 0 0.264946
0.624584 0.368496 0 0.239166
0.523729 0.501741 0 0.219634
0.715676 0.120806 0 0.264692
0.715676 0.128874 0 0.264418
0.67013 0.284866 0 0.249958
0.467897 0.55809 3.46945e-18 0.210754
0.715676 0.137234 0 0.264124
0.574156 0.450382 0 0.22795
0 0.730005 0 0.18343
0.715676 0.145897 0 0.263807
0.288433 0.67277 0 0.191947
0.715676 0.154876 0 0.263467
0.67013 0.29889 3.46945e-18 0.24923
0.624584 0.385557 0 0.238175
0.715676 0.16418 0 0.263102
0.715676 0.173822 0 0.26271
0.715676 0.183814 0 0.26229
0.67013 0.313423 0 0.248452
0.523729 0.523639 0 0.218208
0.715676 0.194169 0 0.261839
0.574156 0.470415 3.46945e-18 0.226686
0.624584 0.403236 0 0.237114
0.743101 0.0241911 0 0.272274
0.412065 0.619475 -2.31296e-18 0.202623
0.715676 0.2049 0 0.261358
0.151552 0.730005 0 0.184262
0.67013 0.328484 0 0.247619
0.350249 0.659208 -3.46945e-18 0.195779
0.467897 0.582034 0 0.209157
0.715676 0.21602 0 0.260842
0.219992 0.715441 0 0.18604
0.0757758 0.745098 3.46945e-18 0.182409
0.715676 0.227544 0 0.26029
0.67013 0.344091 0 0.246729
0.624584 0.421557 0 0.235979
0.743101 0.128874 0 0.269789
0.715676 0.239487 3.70074e-18 0.259701
0.574156 0.491176 3.46945e-18 0.225336
0.523729 0.546332 0 0.216685
0.756814 0.00184056 0 0.274626
0.756814 0.00558849 0 0.27464
0.756814 0.0094725 0 0.274664
0.756814 0.0134975 3.46945e-18 0.27469
0.756814 0.0155459 0 0.275199
0.756814 0.0176687 -3.46945e-18 0.274694
0.756814 0.0219913 -3.46945e-18 0.274666
0.756814 0.0264709 3.46945e-18 0.274617
0.756814 0.031113 -3.46945e-18 0.274562
0.756814 0.0359238 -3.46945e-18 0.274505
0.288433 0.700877 0 0.190039
0.756814 0.0409092 0 0.274445
0.756814 0.0460756 -3.46945e-18 0.274382
0.756814 0.0514296 -3.46945e-18 0.274319
0.715676 0.251863 0 0.259071
0.756814 0.0569779 0 0.274254
0.756814 0.0627277 3.46945e-18 0.274183
0.756814 0.0686863 0 0.274085
0 0.76019 0 0.181343
0.756814 0.0748612 0 0.273936
0.67013 0.360265 0 0.245777
0.756814 0.0812603 0 0.273747
0.756814 0.0878917 0 0.273538
0.756814 0.0947639 -3.46945e-18 0.273314
0.715676 0.264688 0 0.258399
0.756814 0.101886 -3.46945e-18 0.273073
0.624584 0.440544 0 0.234767
0.756814 0.109266 -3.46945e-18 0.272813
0.756814 0.116914 -3.46945e-18 0.272533
0.412065 0.645647 0 0.200817
0.467897 0.606847 0 0.207455
0.756814 0.120806 0 0.272793
0.756814 0.12484 3.46945e-18 0.272233
0.715676 0.27798 -1.54074e-33 0.257681
0.756814 0.133054 3.46945e-18 0.271911
0.67013 0.377026 3.46945e-18 0.24476
0.756814 0.137234 0 0.272134
0.574156 0.51269 0 0.223894
0.756814 0.141566 0 0.271566
0.685312 0.352034 0 0.248906
0.743101 0.2049 0 0.266458
0.350249 0.686823 0 0.193877
0.756814 0.150387 0 0.271196
0.756814 0.154876 0 0.27138
0.715676 0.291753 -6.16298e-33 0.256916
0.756814 0.159528 0 0.2708
0.523729 0.569849 0 0.215062
0.72743 0.264688 0 0.260502
0.756814 0.16418 0 0.270965
0.151552 0.76019 3.70074e-18 0.182183
0.756814 0.169001 3.46945e-18 0.270378
0.624584 0.46022 0 0.233472
0.219992 0.745098 -3.46945e-18 0.184026
0.67013 0.394396 0 0.243674
0.756814 0.178818 0 0.269926
0.715676 0.306027 0 0.2561
0.0757758 0.775831 3.46945e-18 0.180271
0.756814 0.188991 0 0.269444
0.756814 0.199534 -3.46945e-18 0.268929
0.715676 0.320819 0 0.255229
0.574156 0.534985 0 0.222356
0.288433 0.730005 0 0.188018
0.756814 0.21046 0 0.268381
0.467897 0.632561 0 0.205643
0.67013 0.412397 0 0.242516
0.624584 0.48061 0 0.23209
0.756814 0.221782 3.46945e-18 0.267796
0.412065 0.67277 -2.31296e-18 0.198897
0.715676 0.336148 0 0.254302
0 0.791472 0 0.179151
0.756814 0.233515 0 0.267173
0.523729 0.594219 0 0.213332
0.624584 0.487654 0 0.231599
0.756814 0.245675 0 0.26651
0.350249 0.715441 3.46945e-18 0.19186
0.67013 0.431051 -3.46945e-18 0.241279
0.715676 0.352034 0 0.253313
0.797951 9.0819e-19 0 0.283771
0.797951 0.00368111 0 0.283778
0.797951 0.00749587 0 0.283798
0.797951 0.0114491 0 0.283823
0.797951 0.0141803 0 0.283832
0.797951 0.0155459 0 0.283837
0.797951 0.0169611 0 0.28383
0.797951 0.0197915 0 0.283817
0.797951 0.0219913 0 0.283791
0.797951 0.0241911 0 0.283765
0.797951 0.0264709 0 0.283729
0.797951 0.0287506 0 0.283693
0.797951 0.0334755 0 0.283612
0.797951 0.038372 0 0.283525
0.797951 0.0434463 0 0.283434
0.797951 0.0487048 0 0.283339
0.756814 0.258276 0 0.265804
0.797951 0.0541543 0 0.283242
0.797951 0.0598016 0 0.283137
0.797951 0.0656539 0 0.283011
0.574156 0.55809 0 0.220716
0.624584 0.501741 -2.05433e-33 0.230617
0.797951 0.0717187 0 0.282843
0.797951 0.0780037 0 0.28263
0.797951 0.0845169 0 0.282388
0.797951 0.0912666 0 0.282128
0.797951 0.0982613 0 0.28185
0.756814 0.271334 -3.46945e-18 0.265053
0.797951 0.10551 0 0.281552
0.715676 0.368496 0 0.25226
0.151552 0.791472 0 0.179992
0.797951 0.113022 0 0.281234
0.219992 0.775831 3.46945e-18 0.181896
0.797951 0.118212 0 0.281007
0.770526 0.239487 0 0.269673
0.797951 0.120806 9.25186e-19 0.280893
0.67013 0.450382 3.46945e-18 0.239961
0.797951 0.128874 -2.31296e-18 0.28053
0.467897 0.659208 0 0.203716
0.756814 0.284866 0 0.264255
0.743101 0.320819 0 0.25997
0.797951 0.137234 0 0.280144
0.797951 0.141566 0 0.279938
0.797951 0.145897 0 0.279732
0.523729 0.619475 0 0.211491
0.0757758 0.80768 0 0.178024
0.797951 0.150387 0 0.279513
0.797951 0.154876 9.25186e-19 0.279294
0.715676 0.385557 0 0.251139
0.412065 0.700877 -2.31296e-18 0.196859
0.288433 0.76019 0 0.185879
0.756814 0.29889 -3.46945e-18 0.263405
0.797951 0.16418 0 0.278828
0.624584 0.523639 -1.54074e-33 0.229046
0.797951 0.167394 0 0.278663
0.797951 0.173822 0 0.278333
0.574156 0.582034 0 0.218969
0.67013 0.470415 0 0.238556
0.797951 0.183814 0 0.277808
0.756814 0.313423 0 0.262503
0.797951 0.194169 0 0.27725
0.715676 0.403236 -6.16298e-33 0.249945
0.151552 0.80768 0 0.178838
0.797951 0.197746 0 0.277052
0.350249 0.745098 -3.46945e-18 0.189721
0.797951 0.2049 0 0.276658
0 0.823889 0 0.176848
0.756814 0.328484 0 0.261543
0.797951 0.21046 0 0.276344
0.797951 0.21602 0 0.27603
0.797951 0.223703 0 0.275586
0.797951 0.227544 0 0.275364
0.624584 0.546332 0 0.227372
0.715676 0.421557 0 0.248674
0.67013 0.491176 3.46945e-18 0.237058
0.797951 0.231525 0 0.275129
0.467897 0.686823 0 0.201668
0.523729 0.645647 0 0.209532
0.756814 0.344091 -3.46945e-18 0.260524
0.822721 0.120806 0 0.286473
0.797951 0.239487 0 0.274658
0.822721 0.137234 0 0.285655
0.835107 0.00184056 -3.46945e-18 0.292444
0.835107 0.00558849 0 0.292459
0.835107 0.0094725 3.46945e-18 0.292485
0.835107 0.0134975 0 0.292511
0.835107 0.0176687 0 0.292508
0.835107 0.0219913 3.46945e-18 0.292459
0.574156 0.606847 3.46945e-18 0.217109
0.835107 0.0241911 0 0.292741
0.835107 0.0264709 3.46945e-18 0.292377
0.822721 0.145897 0 0.285207
0.835107 0.031113 0 0.292277
0.835107 0.0359238 0 0.292167
0.835107 0.0409092 -3.46945e-18 0.292051
0.835107 0.0460756 0 0.291929
0.835107 0.0514296 -3.46945e-18 0.291802
0.797951 0.251863 0 0.27391
0.835107 0.0541543 0 0.292045
0.835107 0.0569779 -3.46945e-18 0.291669
0.219992 0.80768 -3.46945e-18 0.179648
0.822721 0.154876 0 0.284733
0.835107 0.0627277 -3.46945e-18 0.291523
0.151552 0.823889 0 0.177685
0.797951 0.255069 0 0.273712
0.835107 0.0686863 3.46945e-18 0.291339
0.756814 0.360265 3.46945e-18 0.25944
0.412065 0.730005 0 0.194697
0.835107 0.0748612 0 0.291103
0.822721 0.16418 0 0.28423
0.835107 0.0812603 3.46945e-18 0.290831
0.835107 0.0878917 0 0.290539
0.715676 0.440544 0 0.247321
0.835107 0.0947639 0 0.290228
0.797951 0.264688 6.16298e-33 0.273118
0.835107 0.101886 -3.46945e-18 0.289896
0.835107 0.109266 0 0.289542
0.288433 0.791472 0 0.183617
0.835107 0.116914 0 0.289166
0.67013 0.51269 0 0.235463
0.797951 0.274657 0 0.272488
0.0757758 0.840686 3.46945e-18 0.175664
0.835107 0.12484 0 0.288767
0.797951 0.27798 0 0.272279
0.624584 0.569849 0 0.22559
0.756814 0.377026 0 0.258289
0.835107 0.133054 -3.46945e-18 0.288343
0.835107 0.141566 0 0.287893
0.835107 0.150387 3.46945e-18 0.287417
0.797951 0.291753 0 0.27139
0.835107 0.159528 0 0.286912
0.715676 0.46022 0 0.245882
0.816529 0.239487 0 0.278501
0.350249 0.775831 0 0.187457
0.835107 0.169001 0 0.286378
0.523729 0.67277 0 0.20745
0.756814 0.394396 -3.46945e-18 0.257066
0.822721 0.227544 0 0.280529
0.835107 0.178818 0 0.285813
0.574156 0.632561 0 0.215129
0.797951 0.306027 -1.54074e-33 0.270448
0.467897 0.715441 3.46945e-18 0.199494
0.835107 0.188991 0 0.285216
0.797951 0.310958 0 0.270115
0 0.857483 0 0.174428
0.67013 0.534985 3.46945e-18 0.233766
0.835107 0.199534 0 0.284585
0.835107 0.2049 0 0.284526
0.797951 0.320819 0 0.26945
0.835107 0.21046 3.46945e-18 0.283918
0.756814 0.412397 -3.46945e-18 0.255767
0.715676 0.48061 0 0.244351
0.624584 0.594219 0 0.223693
0.797951 0.328484 0 0.268922
0.835107 0.221782 0 0.283213
0.412065 0.76019 0 0.192406
0.797951 0.336148 0 0.268394
0.835107 0.233515 3.46945e-18 0.282469
0.219992 0.840686 0 0.177275
0.835107 0.245675 3.46945e-18 0.281683
0.151552 0.857483 0 0.175256
0.756814 0.431051 0 0.254387