# pMean  POINT_DATA 63140
# x  y  z  pMean
0 0.1 0 0.226946
0 0.1 -0.0179898 0.226998
0 0.1 0.0179898 0.226897
0.0363518 0.1 -0.0179898 0.226998
0.0363518 0.1 0.0179898 0.226897
0 0.1 -0.0570102 0.22695
0 0.1 0.0570102 0.226633
0.0363518 0.1 0.0570102 0.226633
0.0363518 0.1 -0.0570102 0.22695
0 0.1 -0.075 0.226852
0 0.1 0.075 0.226439
0.0757758 0.1 -0.0375 0.227058
0.0757758 0.1 0.0375 0.226845
0 0.1 -0.0929898 0.226757
0 0.1 0.0929898 0.226249
0.0363518 0.1 -0.0929898 0.226757
0.0363518 0.1 0.0929898 0.226249
0 0.1 -0.13201 0.226386
0 0.1 0.13201 0.225679
0.0757758 0.1 -0.1125 0.226657
0.0757758 0.1 0.1125 0.226044
0.0363518 0.1 -0.13201 0.226386
0.0363518 0.1 0.13201 0.225679
0 0.1 -0.15 0.22614
0 0.1 0.15 0.225345
0.150379 0.1 -4.33681e-19 0.219212
0 0.1 -0.16799 0.225897
0 0.1 0.16799 0.225014
0.150379 0.1 -0.075 0.219058
0.150379 0.1 0.075 0.218667
0.0363518 0.1 -0.16799 0.225897
0.0363518 0.1 0.16799 0.225014
0.0757758 0.1 -0.1875 0.225634
0.0757758 0.1 0.1875 0.224656
0 0.1 -0.20701 0.225185
0 0.1 0.20701 0.224118
0.0363518 0.1 -0.20701 0.225185
0.0363518 0.1 0.20701 0.224118
0.150379 0.1 -0.15 0.218182
0.150379 0.1 0.15 0.217423
0.219992 0.1 -0.0375 0.211917
0.219992 0.1 0.0375 0.211743
0 0.1 -0.225 0.224775
0 0.1 0.225 0.223626
0 0.1 -0.24299 0.224368
0 0.1 0.24299 0.223137
0.0363518 0.1 0.24299 0.223137
0.0363518 0.1 -0.24299 0.224368
0.219992 0.1 -0.1125 0.211321
0.219992 0.1 0.1125 0.210757
0.150379 0.1 0.225 0.215467
0.150379 0.1 -0.225 0.216572
0.0757758 0.1 0.2625 0.222607
0.0757758 0.1 -0.2625 0.223926
0 0.1 -0.28201 0.223303
0 0.1 0.28201 0.2219
0.0363518 0.1 -0.28201 0.223303
0.0363518 0.1 0.28201 0.2219
0.287374 0.1 0 0.215239
0.219992 0.1 -0.1875 0.209854
0.219992 0.1 0.1875 0.208971
0.287374 0.1 -0.075 0.215046
0.287374 0.1 0.075 0.214648
0 0.1 -0.3 0.222733
0 0.1 0.3 0.221251
0 0.1 -0.31799 0.222164
0 0.1 0.31799 0.220604
0.0363518 0.1 -0.31799 0.222164
0.0363518 0.1 0.31799 0.220604
0.287374 0.1 -0.15 0.214047
0.287374 0.1 0.15 0.213264
0.150379 0.1 -0.3 0.214278
0.150379 0.1 0.3 0.212822
0.219992 0.1 -0.2625 0.207633
0.219992 0.1 0.2625 0.20639
0.0757758 0.1 -0.3375 0.221549
0.0757758 0.1 0.3375 0.219904
0.350249 0.1 -0.0375 0.21861
0.350249 0.1 0.0375 0.218391
0 0.1 0.35701 0.219038
0 0.1 -0.35701 0.220766
0.0363518 0.1 -0.35701 0.220766
0.0363518 0.1 0.35701 0.219038
0.287374 0.1 -0.225 0.212252
0.287374 0.1 0.225 0.211097
0.350249 0.1 0.1125 0.217407
0.350249 0.1 -0.1125 0.21804
0 0.1 -0.375 0.220047
0 0.1 0.375 0.218243
0 0.1 -0.39299 0.21933
0 0.1 0.39299 0.217449
0.0363518 0.1 -0.39299 0.21933
0.0363518 0.1 0.39299 0.217449
0.350249 0.1 -0.1875 0.216675
0.350249 0.1 0.1875 0.215628
0.219992 0.1 -0.3375 0.204785
0.219992 0.1 0.3375 0.203167
0.150379 0.1 -0.375 0.21136
0.150379 0.1 0.375 0.209562
0.411108 0.1 -2.21177e-17 0.224046
0.287374 0.1 -0.3 0.209733
0.287374 0.1 0.3 0.208202
0.411108 0.1 0.075 0.223391
0.411108 0.1 -0.075 0.223827
0.0757758 0.1 -0.4125 0.218554
0.0757758 0.1 0.4125 0.21659
0 0.1 -0.43201 0.217618
0 0.1 0.43201 0.215577
0.0363518 0.1 -0.43201 0.217618
0.0363518 0.1 0.43201 0.215577
0.411108 0.1 -0.15 0.222731
0.411108 0.1 0.15 0.221865
0.350249 0.1 -0.2625 0.214543
0.350249 0.1 0.2625 0.213101
0 0.1 -0.45 0.21676
0 0.1 0.45 0.214647
0.219992 0.1 -0.4125 0.201353
0.219992 0.1 0.4125 0.19939
0 0.1 -0.46799 0.215903
0 0.1 0.46799 0.213718
0.411108 0.1 -0.225 0.220781
0.411108 0.1 0.225 0.219496
0.467897 0.1 0.0375 0.229255
0.467897 0.1 -0.0375 0.229476
0.0363518 0.1 -0.46799 0.215903
0.0363518 0.1 0.46799 0.213718
0.287374 0.1 -0.375 0.206547
0.287374 0.1 0.375 0.204657
0.150379 0.1 -0.45 0.207867
0.150379 0.1 0.45 0.205746
0.467897 0.1 -0.1125 0.228731
0.467897 0.1 0.1125 0.228059
0.350249 0.1 0.3375 0.209853
0.350249 0.1 -0.3375 0.211663
0.0757758 0.1 -0.4875 0.214975
0.0757758 0.1 0.4875 0.212713
0.467897 0.1 -0.1875 0.227038
0.467897 0.1 0.1875 0.225928
0 0.1 -0.50701 0.213901
0 0.1 0.50701 0.211567
0.0363518 0.1 -0.50701 0.213901
0.0363518 0.1 0.50701 0.211567
0.411108 0.1 -0.3 0.218016
0.411108 0.1 0.3 0.216329
0.522864 0.1 -2.08167e-17 0.235975
0 0.1 -0.525 0.212915
0 0.1 0.525 0.210515
0.522864 0.1 -0.075 0.235691
0.522864 0.1 0.075 0.235218
0.287374 0.1 -0.45 0.202748
0.287374 0.1 0.45 0.200519
0.219992 0.1 -0.4875 0.197406
0.219992 0.1 0.4875 0.195113
0.467897 0.1 0.2625 0.222905
0.467897 0.1 -0.2625 0.224446
0.350249 0.1 -0.4125 0.208083
0.350249 0.1 0.4125 0.205926
0 0.1 -0.54299 0.21193
0 0.1 0.54299 0.209463
0.522864 0.1 0.15 0.233433
0.522864 0.1 -0.15 0.234378
0.0363518 0.1 -0.54299 0.21193
0.0363518 0.1 0.54299 0.209463
0.150379 0.1 -0.525 0.203859
0.150379 0.1 0.525 0.20144
0.411108 0.1 -0.375 0.214482
0.411108 0.1 0.375 0.212417
0.0757758 0.1 -0.5625 0.210864
0.0757758 0.1 0.5625 0.208324
0.522864 0.1 -0.225 0.232066
0.522864 0.1 0.225 0.230665
0.574156 0.1 -0.0375 0.242457
0.574156 0.1 0.0375 0.242206
0.467897 0.1 -0.3375 0.221011
0.467897 0.1 0.3375 0.219058
0 0.1 -0.58201 0.209668
0 0.1 0.58201 0.207062
0.0363518 0.1 -0.58201 0.209668
0.0363518 0.1 0.58201 0.207062
0.574156 0.1 -0.1125 0.241596
0.574156 0.1 0.1125 0.240847
0.287374 0.1 -0.525 0.198408
0.287374 0.1 0.525 0.195863
0 0.1 -0.6 0.20857
0 0.1 0.6 0.205902
0.350249 0.1 -0.4875 0.203857
0.350249 0.1 0.4875 0.201364
0.522864 0.1 0.3 0.226974
0.522864 0.1 -0.3 0.228808
0.219992 0.1 -0.5625 0.193029
0.219992 0.1 0.5625 0.190447
0.574156 0.1 -0.1875 0.239649
0.574156 0.1 0.1875 0.238405
0.411108 0.1 -0.45 0.210235
0.411108 0.1 0.45 0.207816
0 0.1 -0.61799 0.207472
0 0.1 0.61799 0.204743
0.150379 0.1 -0.6 0.199393
0.150379 0.1 0.6 0.1967
0.0363518 0.1 -0.61799 0.207472
0.0363518 0.1 0.61799 0.204743
0.467897 0.1 0.4125 0.214458
0.467897 0.1 -0.4125 0.216791
0.623803 0.1 1.04083e-17 0.249848
0.623803 0.1 -0.075 0.249514
0.623803 0.1 0.075 0.248982
0.574156 0.1 -0.2625 0.236645
0.574156 0.1 0.2625 0.234944
0.623803 0.1 -0.15 0.24799
0.623803 0.1 0.15 0.246934
0.0757758 0.1 0.6375 0.203488
0.0757758 0.1 -0.6375 0.206284
0.522864 0.1 -0.375 0.224675
0.522864 0.1 0.375 0.22243
0 0.1 0.65701 0.202126
0 0.1 -0.65701 0.204982
0.0363518 0.1 0.65701 0.202126
0.0363518 0.1 -0.65701 0.204982
0.350249 0.1 -0.5625 0.199064
0.350249 0.1 0.5625 0.196261
0.623803 0.1 -0.225 0.24531
0.623803 0.1 0.225 0.24375
0.287374 0.1 -0.6 0.193593
0.287374 0.1 0.6 0.190762
0.574156 0.1 -0.3375 0.232663
0.574156 0.1 0.3375 0.230528
0.411108 0.1 -0.525 0.205352
0.411108 0.1 0.525 0.202602
0.67013 0.1 -0.0375 0.257238
0.67013 0.1 0.0375 0.256956
0.219992 0.1 0.6375 0.18539
0.219992 0.1 -0.6375 0.188241
0 0.1 -0.675 0.203786
0 0.1 0.675 0.200873
0.467897 0.1 -0.4875 0.21186
0.467897 0.1 0.4875 0.209174
0.67013 0.1 -0.1125 0.256232
0.67013 0.1 0.1125 0.25539
0.522864 0.1 -0.45 0.219743
0.522864 0.1 0.45 0.217117
0.150379 0.1 0.675 0.191568
0.150379 0.1 -0.675 0.194513
0.623803 0.1 0.3 0.239501
0.623803 0.1 -0.3 0.241536
0 0.1 -0.69299 0.20259
0 0.1 0.69299 0.199621
0.0363518 0.1 0.69299 0.199621
0.0363518 0.1 -0.69299 0.20259
0.67013 0.1 0.1875 0.252575
0.67013 0.1 -0.1875 0.253957
0.574156 0.1 -0.4125 0.227791
0.574156 0.1 0.4125 0.22524
0.714971 0.1 -1.82146e-17 0.26525
0.0757758 0.1 0.7125 0.198266
0.0757758 0.1 -0.7125 0.201296
0.714971 0.1 -0.075 0.264855
0.714971 0.1 0.075 0.264256
0.67013 0.1 -0.2625 0.250477
0.67013 0.1 0.2625 0.248573
0.411108 0.1 -0.6 0.199914
0.411108 0.1 0.6 0.196865
0.350249 0.1 -0.6375 0.193783
0.350249 0.1 0.6375 0.190703
0.623803 0.1 -0.375 0.23675
0.623803 0.1 0.375 0.234275
0.714971 0.1 0.15 0.261895
0.714971 0.1 -0.15 0.263079
0.467897 0.1 -0.5625 0.206306
0.467897 0.1 0.5625 0.203297
0 0.1 -0.73201 0.199905
0 0.1 0.73201 0.19682
0.0363518 0.1 -0.73201 0.199905
0.0363518 0.1 0.73201 0.19682
0.287374 0.1 0.675 0.185269
0.287374 0.1 -0.675 0.188358
0.522864 0.1 -0.525 0.214101
0.522864 0.1 0.525 0.211129
0.219992 0.1 0.7125 0.179986
0.219992 0.1 -0.7125 0.183087
0.714971 0.1 0.225 0.258221
0.714971 0.1 -0.225 0.259966
0 0.1 0.75 0.19549
0 0.1 -0.75 0.198626
0.67013 0.1 -0.3375 0.245867
0.67013 0.1 0.3375 0.243479
0.574156 0.1 0.4875 0.219188
0.574156 0.1 -0.4875 0.222113
0.756814 0.1 -0.0375 0.273296
0.756814 0.1 0.0375 0.272977
0.150379 0.1 0.746002 0.18653
0.150379 0.1 -0.75 0.189279
0.756814 0.1 -0.1125 0.272123
0.756814 0.1 0.1125 0.271172
0 0.1 0.76799 0.19416
0 0.1 -0.76799 0.197348
0.0363518 0.1 0.76799 0.19416
0.0363518 0.1 -0.76799 0.197348
0.623803 0.1 -0.45 0.231051
0.623803 0.1 0.45 0.228172
0.714971 0.1 0.3 0.253319
0.714971 0.1 -0.3 0.255589
0.756814 0.1 -0.1875 0.26948
0.756814 0.1 0.1875 0.267925
0.67013 0.1 -0.4125 0.240215
0.67013 0.1 0.4125 0.237396
0.411108 0.1 -0.675 0.194007
0.411108 0.1 0.675 0.190694
0.467897 0.1 -0.6375 0.200217
0.467897 0.1 0.6375 0.196921
0.0757758 0.1 -0.7875 0.195964
0.0757758 0.1 0.7875 0.192721
0.350249 0.1 0.7125 0.184773
0.350249 0.1 -0.7125 0.188088
0.522864 0.1 -0.6 0.207849
0.522864 0.1 0.6 0.204567
0.797314 0.1 -2.86229e-17 0.281688
0.287374 0.1 0.746002 0.179684
0.797314 0.1 -0.075 0.281227
0.797314 0.1 0.075 0.280548
0.756814 0.1 0.2625 0.263308
0.756814 0.1 -0.2625 0.265442
0.287374 0.1 -0.75 0.182769
0.574156 0.1 -0.5625 0.215739
0.574156 0.1 0.5625 0.21248
0 0.1 0.80701 0.191208
0 0.1 -0.80701 0.194501
0.714971 0.1 -0.375 0.250041
0.714971 0.1 0.375 0.247298
0.0363518 0.1 -0.80701 0.194501
0.0363518 0.1 0.80701 0.191208
0.797314 0.1 -0.15 0.279175
0.797314 0.1 0.15 0.277837
0.623803 0.1 -0.525 0.224555
0.623803 0.1 0.525 0.221314
0.219992 0.1 0.7875 0.174299
0.219992 0.1 -0.7875 0.177629
0.149792 0.1 0.80701 0.181791
0 0.1 0.825 0.189816
0 0.1 -0.825 0.193155
0.797314 0.1 -0.225 0.275581
0.797314 0.1 0.225 0.273618
0.756814 0.1 -0.3375 0.260084
0.756814 0.1 0.3375 0.257438
0.67013 0.1 -0.4875 0.233652
0.67013 0.1 0.4875 0.230441
0.835107 0.1 -0.0375 0.290166
0.835107 0.1 0.0375 0.289802
0.150379 0.1 -0.825 0.18375
0.835107 0.1 -0.1125 0.288815
0.835107 0.1 0.1125 0.287736
0 0.1 0.84299 0.188425
0 0.1 -0.84299 0.19181
0.0363518 0.1 0.84299 0.188425
0.0363518 0.1 -0.84299 0.19181
0.714971 0.1 -0.45 0.243454
0.714971 0.1 0.45 0.240279
0.411108 0.1 0.746002 0.18444
0.797314 0.1 -0.3 0.270534
0.797314 0.1 0.3 0.267991
0.467897 0.1 -0.7125 0.193689
0.467897 0.1 0.7125 0.190138
0.522864 0.1 0.675 0.197538
0.522864 0.1 -0.675 0.20109
0.411108 0.1 -0.75 0.187719
0.835107 0.1 -0.1875 0.285783
0.835107 0.1 0.1875 0.284019
0.286844 0.1 0.80701 0.174847
0.574156 0.1 0.6375 0.205229
0.574156 0.1 -0.6375 0.208782
0.350249 0.1 -0.7875 0.182063
0.350249 0.1 0.7875 0.178536
0.756814 0.1 0.4125 0.250429
0.756814 0.1 -0.4125 0.253542
0.623803 0.1 -0.6 0.217384
0.623803 0.1 0.6 0.213825
0.0757758 0.1 0.8625 0.18692
0.0757758 0.1 -0.8625 0.190353
0.871687 0.1 -1.73472e-17 0.298697
0.287374 0.1 -0.825 0.176894
0.871687 0.1 -0.075 0.298165
0.871687 0.1 0.075 0.297398
0.67013 0.1 -0.5625 0.226313
0.67013 0.1 0.5625 0.222755
0.835107 0.1 0.2625 0.278742
0.835107 0.1 -0.2625 0.281135
0.797314 0.1 -0.375 0.264154
0.797314 0.1 0.375 0.261091
0 0.1 0.88201 0.185356
0 0.1 -0.88201 0.188834
0.0363518 0.1 0.88201 0.185356
0.0363518 0.1 -0.88201 0.188834
0.871687 0.1 0.15 0.294303
0.871687 0.1 -0.15 0.295813
0.714971 0.1 -0.525 0.23597
0.714971 0.1 0.525 0.232414
0.219992 0.1 0.8625 0.168394
0.219992 0.1 -0.8625 0.17192
0 0.1 0.9 0.183918
0 0.1 -0.9 0.187437
0.756814 0.1 -0.4875 0.245979
0.756814 0.1 0.4875 0.242435
0.871687 0.1 -0.225 0.291697
0.871687 0.1 0.225 0.28949
0.835107 0.1 -0.3375 0.275011
0.835107 0.1 0.3375 0.272021
0.410629 0.1 0.80701 0.179035
0.905821 0.1 -0.0375 0.307382
0.905821 0.1 0.0375 0.306972
0.522864 0.1 0.746002 0.190431
0.150379 0.1 0.9 0.174421
0.905821 0.1 0.1125 0.304619
0.905821 0.1 -0.1125 0.305832
0.522864 0.1 -0.75 0.193932
0.574156 0.1 -0.7125 0.201356
0.574156 0.1 0.7125 0.197555
0.797314 0.1 -0.45 0.256592
0.797314 0.1 0.45 0.253071
0.467897 0.1 0.7875 0.183044
0.467897 0.1 -0.7875 0.186818
0.150379 0.1 -0.903998 0.178362
0 0.1 0.91799 0.182481
0 0.1 -0.91799 0.18604
0.0363518 0.1 0.91799 0.182481
0.0363518 0.1 -0.91799 0.18604
0.623803 0.1 -0.675 0.209669
0.623803 0.1 0.675 0.205834
0.411108 0.1 -0.825 0.181133
0.871687 0.1 -0.3 0.285923
0.871687 0.1 0.3 0.283072
0.67013 0.1 0.6375 0.21448
0.67013 0.1 -0.6375 0.218338
0.905821 0.1 -0.1875 0.302366
0.905821 0.1 0.1875 0.300385
0.350249 0.1 0.8625 0.172066
0.350249 0.1 -0.8625 0.17578
0.835107 0.1 -0.4125 0.267542
0.835107 0.1 0.4125 0.26405
0.714971 0.1 -0.6 0.22774
0.714971 0.1 0.6 0.223858
0.93886 0.1 -1.25767e-17 0.31574
0.0757758 0.1 0.9375 0.180924
0.0757758 0.1 -0.9375 0.184529
0.93886 0.1 -0.075 0.315148
0.93886 0.1 0.075 0.31427
0.756814 0.1 -0.5625 0.237543
0.756814 0.1 0.5625 0.233644
0.905821 0.1 -0.2625 0.297062
0.905821 0.1 0.2625 0.294377
0.287374 0.1 0.9 0.167092
0.287374 0.1 -0.903998 0.171443
0.871687 0.1 -0.375 0.278637
0.871687 0.1 0.375 0.275215
0.93886 0.1 -0.15 0.312507
0.93886 0.1 0.15 0.310783
0.797314 0.1 -0.525 0.248025
0.797314 0.1 0.525 0.244102
0 0.1 0.95701 0.179327
0 0.1 -0.95701 0.182969
0.0363518 0.1 0.95701 0.179327
0.0363518 0.1 -0.95701 0.182969
0.522432 0.1 0.80701 0.184341
0.219992 0.1 0.9375 0.162323
0.219992 0.1 -0.9375 0.166022
0.93886 0.1 -0.225 0.30788
0.93886 0.1 0.225 0.305367
0.905821 0.1 -0.3375 0.290064
0.905821 0.1 0.3375 0.286737
0.835107 0.1 0.4875 0.254975
0.835107 0.1 -0.4875 0.258898
0.96969 0.1 -0.0375 0.324337
0.96969 0.1 0.0375 0.323859
0.61613 0.1 0.75 0.197471
0.574156 0.1 0.7875 0.189565
0.574156 0.1 -0.7875 0.193584
0 0.1 0.975 0.177858
0 0.1 -0.975 0.181534
0.623803 0.1 -0.75 0.201539
0.96969 0.1 -0.1125 0.322635
0.96969 0.1 0.1125 0.321226
0.522864 0.1 -0.825 0.186477
0.67013 0.1 -0.7125 0.209871
0.67013 0.1 0.7125 0.205756
0.871687 0.1 -0.45 0.270009
0.871687 0.1 0.45 0.266106
0.467897 0.1 -0.8625 0.179689
0.467897 0.1 0.8625 0.175731
0.714971 0.1 -0.675 0.218924
0.714971 0.1 0.675 0.214764
0.93886 0.1 -0.3 0.30138
0.93886 0.1 0.3 0.298156
0.150379 0.1 0.975 0.168328
0.150379 0.1 -0.975 0.172053
0.96969 0.1 -0.1875 0.318795
0.96969 0.1 0.1875 0.316506
0.411108 0.1 0.9 0.170412
0.756814 0.1 -0.6375 0.228411
0.756814 0.1 0.6375 0.224208
0.990306 0.1 0 0.32887
0 0.1 0.99299 0.176389
0 0.1 -0.99299 0.1801
0.411108 0.1 -0.903998 0.175042
0.990306 0.1 -0.075 0.328231
0.990306 0.1 0.075 0.327251
0.0363518 0.1 0.99299 0.176389
0.0363518 0.1 -0.99299 0.1801
0.905821 0.1 -0.4125 0.281536
0.905821 0.1 0.4125 0.277669
0.797314 0.1 -0.6 0.238638
0.797314 0.1 0.6 0.23438
0.350249 0.1 0.9375 0.165435
0.350249 0.1 -0.9375 0.16932
0.990306 0.1 -0.15 0.325345
0.990306 0.1 0.15 0.323425
0.96969 0.1 -0.2625 0.31291
0.96969 0.1 0.2625 0.30982
0.835107 0.1 -0.5625 0.249305
0.835107 0.1 0.5625 0.244994
0.93886 0.1 -0.375 0.293167
0.93886 0.1 0.375 0.289332
0.0757758 0.1 1.0125 0.174798
0.0757758 0.1 -1.0125 0.178547
0.990306 0.1 -0.225 0.320282
0.990306 0.1 0.225 0.31749
0.287374 0.1 -0.975 0.164549
0.287374 0.1 0.975 0.160686
0.871687 0.1 -0.525 0.260257
0.871687 0.1 0.525 0.255941
1.02149 0.1 -0.0369628 0.338875
1.02149 0.1 0.0369628 0.338351
0.96969 0.1 0.3375 0.30133
0.96969 0.1 -0.3375 0.305114
1.02149 0.1 -0.110888 0.337011
1.02149 0.1 0.110888 0.335468
0.905821 0.1 -0.4875 0.271698
0.905821 0.1 0.4875 0.267378
0.623803 0.1 0.819003 0.19056
0 0.1 1.03201 0.173181
0 0.1 -1.03201 0.176963
0.0363518 0.1 1.03201 0.173181
0.0363518 0.1 -1.03201 0.176963
0.67013 0.1 -0.7875 0.201055
0.67013 0.1 0.7875 0.196727
0.623803 0.1 -0.825 0.193122
0.990306 0.1 0.3 0.309595
0.990306 0.1 -0.3 0.313162
0.219992 0.1 1.0125 0.156144
0.219992 0.1 -1.0125 0.159987
0.574156 0.1 0.8625 0.181373
0.574156 0.1 -0.8625 0.185572
0.714971 0.1 -0.75 0.209683
0.714971 0.1 0.75 0.205292
1.02149 0.1 -0.184814 0.332807
1.02149 0.1 0.184814 0.330303
0.756814 0.1 -0.7125 0.21876
0.756814 0.1 0.7125 0.214309
0.522864 0.1 0.9 0.174666
0.93886 0.1 -0.45 0.283464
0.93886 0.1 0.45 0.279102
1.04168 0.1 0 0.344676
1.04168 0.1 -0.0729162 0.344033
1.04168 0.1 0.0729162 0.342946
0.522864 0.1 -0.903998 0.179639
0.797314 0.1 -0.675 0.228622
0.797314 0.1 0.675 0.224094
0.467897 0.1 0.9375 0.168279
0.467897 0.1 -0.9375 0.1724
0 0.1 1.05 0.171694
0 0.1 -1.05 0.175506
0.835107 0.1 -0.6375 0.238954
0.835107 0.1 0.6375 0.234351
1.04168 0.1 -0.145832 0.341024
1.04168 0.1 0.145832 0.338897
1.02149 0.1 -0.25874 0.326362
1.02149 0.1 0.25874 0.322986
0.96969 0.1 -0.4125 0.295602
0.96969 0.1 0.4125 0.291253
0.411108 0.1 0.975 0.163325
0.411108 0.1 -0.975 0.167395
0.871687 0.1 -0.6 0.249606
0.871687 0.1 0.6 0.244954
1.0579 0.1 -0.0360525 0.349693
1.0579 0.1 0.0360525 0.349147
0.990306 0.1 -0.375 0.304166
0.990306 0.1 0.375 0.299941
0.150379 0.1 1.05 0.162141
0.150379 0.1 -1.05 0.166001
1.0579 0.1 -0.108157 0.347866
1.0579 0.1 0.108157 0.346258
1.04168 0.1 -0.218749 0.335719
1.04168 0.1 0.218749 0.332629
0.905821 0.1 -0.5625 0.260798
0.905821 0.1 0.5625 0.256099
0 0.1 1.06799 0.170206
0 0.1 -1.06799 0.174049
0.0363518 0.1 -1.06799 0.174049
0.0363518 0.1 1.06799 0.170206
0.350249 0.1 1.0125 0.158713
0.350249 0.1 -1.0125 0.162733
1.0579 0.1 -0.180262 0.34371
1.0579 0.1 0.180262 0.3411
1.02149 0.1 0.332665 0.313697
1.02149 0.1 -0.332665 0.317831
0.93886 0.1 -0.525 0.272528
0.93886 0.1 0.525 0.267724
1.08012 0.1 4.48137e-18 0.356134
1.04168 0.1 -0.291665 0.328238
1.04168 0.1 0.291665 0.324292
1.08012 0.1 -0.0709942 0.355527
1.08012 0.1 0.0709942 0.354377
0.96969 0.1 -0.4875 0.284691
0.96969 0.1 0.4875 0.279796
1.0579 0.1 -0.252367 0.337313
1.0579 0.1 0.252367 0.333794
0.990306 0.1 -0.45 0.29355
0.990306 0.1 0.45 0.288764
0.287374 0.1 1.05 0.154206
0.287374 0.1 -1.05 0.1582
0.714971 0.1 0.821002 0.196339
1.08012 0.1 0.141988 0.350309
1.08012 0.1 -0.141988 0.352562
0.0757758 0.1 -1.0875 0.172471
0.0757758 0.1 1.0875 0.168596
0.714971 0.1 -0.825 0.20017
0.756814 0.1 -0.7875 0.208768
0.756814 0.1 0.7875 0.204112
0.67013 0.1 -0.8625 0.192023
0.67013 0.1 0.8625 0.187526
0.797314 0.1 -0.75 0.218173
0.797314 0.1 0.75 0.213428
0.623803 0.1 0.9 0.180112
0.835107 0.1 -0.7125 0.228063
0.835107 0.1 0.7125 0.223221
0.623803 0.1 -0.903998 0.185444
0.574156 0.1 0.9375 0.173078
0.574156 0.1 -0.9375 0.177435
1.02149 0.1 -0.406591 0.307462
1.02149 0.1 0.406591 0.302679
1.08012 0.1 -0.212982 0.3473
1.08012 0.1 0.212982 0.344026
1.10076 0.1 -0.034981 0.36289
1.10076 0.1 0.034981 0.36227
0.871687 0.1 -0.675 0.238282
0.871687 0.1 0.675 0.233371
1.04168 0.1 -0.364581 0.318772
1.04168 0.1 0.364581 0.314092
1.10076 0.1 0.104943 0.359296
1.10076 0.1 -0.104943 0.361125
0.522864 0.1 0.975 0.166769
0.522864 0.1 -0.975 0.171073
1.0579 0.1 0.324472 0.324512
1.0579 0.1 -0.324472 0.328815
0 0.1 1.10701 0.166974
0 0.1 -1.10701 0.170877
0.0363518 0.1 -1.10701 0.170877
0.0363518 0.1 1.10701 0.166974
0.905821 0.1 -0.6375 0.249073
0.905821 0.1 0.6375 0.244088
0.219992 0.1 -1.0875 0.153876
0.219992 0.1 1.0875 0.149906
0.93886 0.1 -0.6 0.260603
0.93886 0.1 0.6 0.255482
1.10076 0.1 0.174905 0.354043
1.10076 0.1 -0.174905 0.357014
0.467897 0.1 1.0125 0.160769
0.467897 0.1 -1.0125 0.165015
1.08012 0.1 -0.283977 0.339847
1.08012 0.1 0.283977 0.33567
1.11929 0.1 1.20274e-17 0.367879
0.990306 0.1 -0.525 0.281591
0.990306 0.1 0.525 0.276358
0.96969 0.1 -0.5625 0.272627
0.96969 0.1 0.5625 0.267339
1.11929 0.1 0.0690357 0.366057
1.11929 0.1 -0.0690357 0.367321
0 0.1 1.125 0.165481
0 0.1 -1.125 0.16941
0.411108 0.1 1.05 0.156195
0.411108 0.1 -1.05 0.160387
1.10076 0.1 -0.244867 0.350631
1.10076 0.1 0.244867 0.346623
1.11929 0.1 -0.138071 0.364385
1.11929 0.1 0.138071 0.361908
1.02149 0.1 0.480517 0.290228
1.02149 0.1 -0.480517 0.295496
1.0579 0.1 -0.396577 0.31844
1.0579 0.1 0.396577 0.313479
1.04168 0.1 -0.437497 0.307558
1.04168 0.1 0.437497 0.302292
0.150379 0.1 1.125 0.155911
0.150379 0.1 -1.125 0.159887
0.714971 0.1 0.88201 0.189647
1.08012 0.1 -0.354971 0.330376
1.08012 0.1 0.354971 0.32543
1.11929 0.1 0.207107 0.355524
1.11929 0.1 -0.207107 0.359125
0.350249 0.1 1.0875 0.151956
0.350249 0.1 -1.0875 0.156094
0 0.1 -1.14299 0.167943
0 0.1 1.14299 0.163989
0.0363518 0.1 1.14299 0.163989
0.0363518 0.1 -1.14299 0.167943
1.14316 0.1 0.0339211 0.374985
1.14316 0.1 -0.0339211 0.375637
0.797314 0.1 0.821002 0.203006
1.10076 0.1 -0.314829 0.3421
1.10076 0.1 0.314829 0.3372
0.797314 0.1 -0.825 0.207471
0.756814 0.1 0.8625 0.193782
0.756814 0.1 -0.8625 0.198594
1.14316 0.1 0.101763 0.37196
1.14316 0.1 -0.101763 0.373886
0.835107 0.1 -0.7875 0.216836
0.835107 0.1 0.7875 0.211821
0.871687 0.1 -0.75 0.226524
0.871687 0.1 0.75 0.221411
0.67013 0.1 0.9375 0.178266
0.67013 0.1 -0.9375 0.182903
0.905821 0.1 -0.7125 0.236781
0.905821 0.1 0.7125 0.231578
0.714971 0.1 -0.903998 0.191535
1.11929 0.1 -0.276143 0.351639
1.11929 0.1 0.276143 0.347041
1.14316 0.1 -0.169605 0.369765
1.14316 0.1 0.169605 0.366635
0.93886 0.1 -0.675 0.247958
0.93886 0.1 0.675 0.24261
1.15704 0.1 0 0.379397
1.0579 0.1 -0.468682 0.306415
1.0579 0.1 0.468682 0.300972
0.623803 0.1 0.975 0.171339
0.623803 0.1 -0.975 0.175894
0.990306 0.1 -0.6 0.268567
0.990306 0.1 0.6 0.263035
1.15704 0.1 -0.0671479 0.378893
1.15704 0.1 0.0671479 0.377507
1.04168 0.1 -0.510414 0.294866
1.04168 0.1 0.510414 0.289169
0.96969 0.1 -0.6375 0.259646
0.96969 0.1 0.6375 0.254147
1.08012 0.1 -0.425965 0.319105
1.08012 0.1 0.425965 0.313554
0.287374 0.1 1.125 0.147704
0.287374 0.1 -1.125 0.151806
1.02149 0.1 -0.554442 0.282227
1.02149 0.1 0.554442 0.27662
0.574156 0.1 1.0125 0.164779
0.574156 0.1 -1.0125 0.169259
1.15704 0.1 -0.134296 0.375997
1.15704 0.1 0.134296 0.373276
0.0757758 0.1 -1.1625 0.166355
0.0757758 0.1 1.1625 0.162373
1.10076 0.1 -0.384791 0.331627
1.10076 0.1 0.384791 0.32598
1.14316 0.1 -0.237448 0.363342
1.14316 0.1 0.237448 0.359118
1.11929 0.1 0.345179 0.33664
1.11929 0.1 -0.345179 0.342086
0.522864 0.1 1.05 0.158877
0.522864 0.1 -1.05 0.163295
1.15704 0.1 -0.201444 0.370756
1.15704 0.1 0.201444 0.366795
1.1744 0.1 -0.0331401 0.384941
1.1744 0.1 0.0331401 0.384218
1.1744 0.1 0.0994203 0.381113
1.1744 0.1 -0.0994203 0.383256
0 0.1 1.18201 0.160758
0 0.1 -1.18201 0.164764
0.0363518 0.1 -1.18201 0.164764
0.0363518 0.1 1.18201 0.160758
0.219992 0.1 -1.1625 0.147721
0.219992 0.1 1.1625 0.14365
1.14316 0.1 -0.30529 0.354735
1.14316 0.1 0.30529 0.349567
0.467897 0.1 -1.0875 0.157627
0.467897 0.1 1.0875 0.15327
1.1744 0.1 -0.1657 0.379191
1.1744 0.1 0.1657 0.375704
1.15704 0.1 -0.268592 0.363259
1.15704 0.1 0.268592 0.358194
1.0579 0.1 0.540787 0.287253
1.0579 0.1 -0.540787 0.293061
0.796996 0.1 0.88201 0.194263
1.08012 0.1 0.496959 0.300306
1.08012 0.1 -0.496959 0.306305
1.10076 0.1 -0.454752 0.319426
1.10076 0.1 0.454752 0.313234
1.11929 0.1 -0.414214 0.330671
1.11929 0.1 0.414214 0.324559
1.04168 0.1 -0.58333 0.281013
1.04168 0.1 0.58333 0.275021
1.1744 0.1 -0.231981 0.372809
1.1744 0.1 0.231981 0.368093
0.871687 0.1 0.821002 0.2098
0.411108 0.1 1.125 0.149085
0.411108 0.1 -1.125 0.153376
1.19808 0.1 0 0.391994
0.990306 0.1 -0.675 0.254801
0.990306 0.1 0.675 0.249056
1.02149 0.1 0.628368 0.262157
1.02149 0.1 -0.628368 0.268012
1.19808 0.1 0.0650961 0.390035
1.19808 0.1 -0.0650961 0.391555
0 0.1 1.2 0.159272
0 0.1 -1.2 0.1633
0.871687 0.1 -0.825 0.214557
0.905821 0.1 -0.7875 0.224199
0.905821 0.1 0.7875 0.218816
0.835107 0.1 0.8625 0.200323
0.835107 0.1 -0.8625 0.205459
0.93886 0.1 -0.75 0.23488
0.93886 0.1 0.75 0.229359
1.14316 0.1 -0.373132 0.344131
1.14316 0.1 0.373132 0.33818
0.96969 0.1 -0.7125 0.246094
0.96969 0.1 0.7125 0.240399
1.15704 0.1 -0.33574 0.353653
1.15704 0.1 0.33574 0.347649
0.756814 0.1 0.9375 0.183456
0.756814 0.1 -0.9375 0.188389
1.19808 0.1 -0.130192 0.38872
1.19808 0.1 0.130192 0.385732
0.797314 0.1 -0.903998 0.197809
0.714971 0.1 -0.975 0.180881
0.714971 0.1 0.975 0.176047
0.150379 0.1 -1.2 0.153755
0.150379 0.1 1.2 0.149683
1.20938 0.1 -0.0322656 0.395519
1.20938 0.1 0.0322656 0.394735
1.1744 0.1 -0.298261 0.364215
1.1744 0.1 0.298261 0.358437
1.20938 0.1 -0.0967968 0.393892
1.20938 0.1 0.0967968 0.391567
1.19808 0.1 0.195288 0.379171
1.19808 0.1 -0.195288 0.383529
0.350249 0.1 -1.1625 0.149446
0.350249 0.1 1.1625 0.14522
0.67013 0.1 -1.0125 0.173797
0.67013 0.1 1.0125 0.169059
0 0.1 1.21799 0.157785
0 0.1 -1.21799 0.161836
0.0363518 0.1 1.21799 0.157785
0.0363518 0.1 -1.21799 0.161836
1.11929 0.1 -0.48325 0.317655
1.11929 0.1 0.48325 0.311058
1.10076 0.1 -0.524714 0.305818
1.10076 0.1 0.524714 0.299216
1.20938 0.1 0.161328 0.386092
1.20938 0.1 -0.161328 0.38988
1.08012 0.1 -0.567953 0.292286
1.08012 0.1 0.567953 0.285986
0.623803 0.1 1.05 0.162629
0.623803 0.1 -1.05 0.167285
1.0579 0.1 0.612892 0.272662
1.0579 0.1 -0.612892 0.278683
1.15704 0.1 -0.402888 0.342133
1.15704 0.1 0.402888 0.335388
1.14316 0.1 -0.440974 0.331739
1.14316 0.1 0.440974 0.325217
1.19808 0.1 -0.260384 0.376062
1.19808 0.1 0.260384 0.370479
1.2267 0.1 0 0.40022
1.2267 0.1 -0.0636648 0.399827
1.2267 0.1 0.0636648 0.398214
1.1744 0.1 -0.364541 0.35359
1.1744 0.1 0.364541 0.346922
0.574156 0.1 -1.0875 0.161127
0.574156 0.1 1.0875 0.156549
1.20938 0.1 0.225859 0.378407
1.20938 0.1 -0.225859 0.383539
1.04168 0.1 -0.656246 0.266345
1.04168 0.1 0.656246 0.260157
1.2267 0.1 -0.12733 0.397034
1.2267 0.1 0.12733 0.39386
0.287374 0.1 -1.2 0.145412
0.287374 0.1 1.2 0.141221
1.02149 0.1 -0.702294 0.253219
1.02149 0.1 0.702294 0.247172
0.0757758 0.1 1.2375 0.156177
0.0757758 0.1 -1.2375 0.160251
0.871399 0.1 0.88201 0.200086
0.522864 0.1 -1.125 0.155566
0.522864 0.1 1.125 0.151059
1.2267 0.1 -0.190995 0.39188
1.2267 0.1 0.190995 0.387244
1.19808 0.1 -0.32548 0.366455
1.19808 0.1 0.32548 0.359825
0.990306 0.1 -0.75 0.24061
0.990306 0.1 0.75 0.234723
1.24275 0.1 -0.0314313 0.405389
1.24275 0.1 0.0314313 0.404546
1.20938 0.1 -0.29039 0.374966
1.20938 0.1 0.29039 0.368666
1.24275 0.1 -0.0942939 0.40382
1.24275 0.1 0.0942939 0.401316
0.93886 0.1 0.821002 0.216553
1.11929 0.1 -0.552286 0.303346
1.11929 0.1 0.552286 0.29643
1.15704 0.1 -0.470036 0.328942
1.15704 0.1 0.470036 0.321667
0.96969 0.1 -0.7875 0.232237
0.96969 0.1 0.7875 0.226447
0.93886 0.1 -0.825 0.221627
0.905821 0.1 -0.8625 0.21155
0.905821 0.1 0.8625 0.206043
1.1744 0.1 -0.430821 0.34113
1.1744 0.1 0.430821 0.333806
1.10076 0.1 -0.594676 0.291098
1.10076 0.1 0.594676 0.28427
1.14316 0.1 -0.508816 0.317856
1.14316 0.1 0.508816 0.310934
1.24275 0.1 -0.157157 0.39986
1.24275 0.1 0.157157 0.395776
1.2267 0.1 -0.254659 0.384438
1.2267 0.1 0.254659 0.378491
0.467897 0.1 -1.1625 0.150288
0.467897 0.1 1.1625 0.145852
1.08012 0.1 -0.638947 0.277363
1.08012 0.1 0.638947 0.270905
1.25511 0.1 0 0.408348
0.835107 0.1 -0.9375 0.194125
0.835107 0.1 0.9375 0.188896
0.871687 0.1 -0.903998 0.203798
1.25511 0.1 -0.0622446 0.407981
1.25511 0.1 0.0622446 0.406315
0.219992 0.1 -1.2375 0.141571
0.219992 0.1 1.2375 0.137413
0 0.1 -1.25701 0.158674
0 0.1 1.25701 0.154581
0.0363518 0.1 1.25701 0.154581
0.0363518 0.1 -1.25701 0.158674
0.797314 0.1 0.975 0.180861
0.797314 0.1 -0.975 0.185976
1.19808 0.1 -0.390576 0.354891
1.19808 0.1 0.390576 0.347426
1.0579 0.1 0.684997 0.257476
1.0579 0.1 -0.684997 0.263617
1.20938 0.1 -0.354921 0.36433
1.20938 0.1 0.354921 0.357049
1.25511 0.1 -0.124489 0.405212
1.25511 0.1 0.124489 0.401932
1.24275 0.1 -0.220019 0.393561
1.24275 0.1 0.220019 0.388018
0.756814 0.1 -1.0125 0.178268
0.756814 0.1 1.0125 0.173251
1.2267 0.1 -0.318324 0.374836
1.2267 0.1 0.318324 0.367765
0.411108 0.1 -1.2 0.146416
0.411108 0.1 1.2 0.142046
1.25511 0.1 0.186734 0.395282
1.25511 0.1 -0.186734 0.400076
0.714971 0.1 1.05 0.166426
0.714971 0.1 -1.05 0.171343
1.04168 0.1 -0.729162 0.25122
1.04168 0.1 0.729162 0.244905
1.24275 0.1 0.282882 0.378195
1.24275 0.1 -0.282882 0.385013
0 0.1 1.275 0.153113
0 0.1 -1.275 0.157223
1.1744 0.1 -0.497101 0.327112
1.1744 0.1 0.497101 0.31934
1.15704 0.1 -0.537184 0.31439
1.15704 0.1 0.537184 0.306767
1.2756 0.1 -0.0306099 0.415
1.2756 0.1 0.0306099 0.4141
0.67013 0.1 -1.0875 0.164808
0.67013 0.1 1.0875 0.15999
1.2756 0.1 0.0918298 0.410813
1.2756 0.1 -0.0918298 0.413491
1.25511 0.1 -0.248978 0.392641
1.25511 0.1 0.248978 0.386485
1.20938 0.1 0.419453 0.343805
1.20938 0.1 -0.419453 0.351827
1.11929 0.1 -0.621321 0.288063
1.11929 0.1 0.621321 0.280992
1.14316 0.1 -0.576658 0.302793
1.14316 0.1 0.576658 0.29565
1.19808 0.1 -0.455672 0.341588
1.19808 0.1 0.455672 0.333534
1.02149 0.1 0.776219 0.232025
1.02149 0.1 -0.776219 0.238161
0.150379 0.1 1.275 0.143499
0.150379 0.1 -1.275 0.14765
1.2756 0.1 -0.15305 0.409587
1.2756 0.1 0.15305 0.405216
1.2267 0.1 -0.381989 0.363256
1.2267 0.1 0.381989 0.355278
1.10076 0.1 -0.664638 0.275597
1.10076 0.1 0.664638 0.268674
0.350249 0.1 -1.2375 0.142841
0.350249 0.1 1.2375 0.138538
0.623803 0.1 1.125 0.154056
0.623803 0.1 -1.125 0.158789
0.9386 0.1 0.88201 0.205886
0.990306 0.1 0.825 0.220756
0.990306 0.1 -0.825 0.226276
1.24275 0.1 0.345744 0.366482
1.24275 0.1 -0.345744 0.374376
1.2906 0.1 0 0.418728
1.07933 0.1 0.709942 0.255357
1.2906 0.1 -0.0604698 0.41846
1.2906 0.1 0.0604698 0.416597
1.08012 0.1 -0.709942 0.261896
0 0.1 1.29299 0.151645
0 0.1 -1.29299 0.155772
1.25511 0.1 -0.311223 0.383031
1.25511 0.1 0.311223 0.375704
1.2756 0.1 -0.21427 0.403337
1.2756 0.1 0.21427 0.397396
0.0363518 0.1 1.29299 0.151645
0.0363518 0.1 -1.29299 0.155772
1.2906 0.1 -0.12094 0.415787
1.2906 0.1 0.12094 0.412115
0.574156 0.1 1.1625 0.148452
0.574156 0.1 -1.1625 0.1531
0.96969 0.1 -0.8625 0.218344
0.96969 0.1 0.8625 0.212516
1.0579 0.1 0.757102 0.242022
1.0579 0.1 -0.757102 0.248244
1.1744 0.1 -0.563382 0.31187
1.1744 0.1 0.563382 0.303825
1.20938 0.1 0.483984 0.329188
1.20938 0.1 -0.483984 0.337682
1.2906 0.1 -0.181409 0.410739
1.2906 0.1 0.181409 0.405362
0.93886 0.1 -0.903998 0.209772
0.905821 0.1 0.9375 0.19343
0.905821 0.1 -0.9375 0.199011
1.2756 0.1 -0.275489 0.394822
1.2756 0.1 0.275489 0.387501
1.2267 0.1 -0.445654 0.349902
1.2267 0.1 0.445654 0.341281
1.15704 0.1 -0.604332 0.298794
1.15704 0.1 0.604332 0.291013
1.19808 0.1 -0.520768 0.326862
1.19808 0.1 0.520768 0.31841
1.30646 0.1 0.0298385 0.422752
1.30646 0.1 -0.0298385 0.423713
0.287374 0.1 1.275 0.134795
0.287374 0.1 -1.275 0.139056
0.871687 0.1 -0.975 0.190738
0.871687 0.1 0.975 0.18531
1.24275 0.1 -0.408607 0.361845
1.24275 0.1 0.408607 0.353121
0.522864 0.1 -1.2 0.147952
0.522864 0.1 1.2 0.143377
1.25511 0.1 0.373467 0.363146
1.25511 0.1 -0.373467 0.371421