# UMean  POINT_DATA 63889
# x  y  z  UMean_x  UMean_y  UMean_z
0 0.5 3.39582e-17 0.994522 0 0.104528
0 0.5 -0.00617965 0.994522 0 0.104528
0 0.5 0.00617965 0.994522 0 0.104528
0.0124871 0.5 -0.00617965 0.994487 0.000938261 0.104486
0.0124871 0.5 0.00617965 0.994487 0.000938388 0.104607
0 0.5 -0.0688203 0.994522 0 0.104528
0 0.5 0.0688203 0.994522 0 0.104528
0.0124871 0.5 -0.0688203 0.994487 0.000938261 0.104486
0.0124871 0.5 0.0688203 0.994487 0.000938388 0.104607
0 0.5 -0.075 0.994522 0 0.104528
0 0.5 0.075 0.994522 0 0.104528
0 0.5 -0.0811797 0.994522 0 0.104528
0 0.5 0.0811797 0.994522 0 0.104528
0.0124871 0.5 -0.0811797 0.994485 0.000934686 0.104359
0.0124871 0.5 0.0811797 0.994485 0.000935074 0.104733
0.0757758 0.5 -0.0375 0.994283 0.00568794 0.104274
0.0757758 0.5 0.0375 0.994285 0.00568868 0.105005
0.0757758 0.5 -0.1125 0.994271 0.0056661 0.103509
0.0757758 0.5 0.1125 0.994275 0.0056684 0.105768
0 0.5 -0.14382 0.994522 0 0.104528
0 0.5 0.14382 0.994522 0 0.104528
0.0124871 0.5 -0.14382 0.994485 0.000934686 0.104359
0.0124871 0.5 0.14382 0.994485 0.000935074 0.104733
0 0.5 -0.15 0.994522 0 0.104528
0 0.5 0.15 0.994522 0 0.104528
0.151149 0.5 -0.00137326 0.993046 0.00954972 0.104705
0 0.5 -0.15618 0.994522 0 0.104528
0 0.5 0.15618 0.994522 0 0.104528
0.0124871 0.5 -0.15618 0.994487 0.000927187 0.104237
0.0124871 0.5 0.15618 0.994488 0.000927928 0.104855
0.151149 0.5 -0.075 0.993036 0.00955621 0.103323
0.151149 0.5 0.075 0.993043 0.00956242 0.105994
0.0757758 0.5 -0.1875 0.994286 0.00562075 0.102771
0.0757758 0.5 0.1875 0.994289 0.00562506 0.106501
0.151149 0.5 -0.15 0.993059 0.0094997 0.102002
0.151149 0.5 0.15 0.993069 0.00951181 0.107312
0 0.5 -0.21882 0.994522 0 0.104528
0 0.5 0.21882 0.994522 0 0.104528
0.0124871 0.5 -0.21882 0.994487 0.000927187 0.104237
0.0124871 0.5 0.21882 0.994488 0.000927928 0.104855
0.219992 0.5 -0.0375 0.991871 0.013209 0.103723
0.219992 0.5 0.0375 0.991877 0.013214 0.10563
0 0.5 -0.225 0.994522 0 0.104528
0 0.5 0.225 0.994522 0 0.104528
0 0.5 -0.23118 0.994522 0 0.104528
0 0.5 0.23118 0.994522 0 0.104528
0.0124871 0.5 -0.23118 0.99449 0.000916279 0.104119
0.0124871 0.5 0.23118 0.994491 0.000917263 0.104972
0.219992 0.5 -0.1125 0.991883 0.0131536 0.10186
0.219992 0.5 0.1125 0.991898 0.0131698 0.107493
0.151149 0.5 -0.225 0.993115 0.00940969 0.10072
0.151149 0.5 0.225 0.993128 0.00942647 0.108592
0.0757758 0.5 -0.2625 0.994301 0.00555465 0.102061
0.0757758 0.5 0.2625 0.994306 0.00556028 0.107209
0.288069 0.5 -0.00137326 0.988889 0.0167888 0.104695
0.219992 0.5 -0.1875 0.991958 0.0130532 0.100017
0.219992 0.5 0.1875 0.991977 0.0130777 0.109332
0 0.5 -0.29382 0.994522 0 0.104528
0 0.5 0.29382 0.994522 0 0.104528
0.0124871 0.5 -0.29382 0.99449 0.000916279 0.104119
0.0124871 0.5 0.29382 0.994491 0.000917263 0.104972
0.288069 0.5 -0.075 0.988888 0.0167723 0.102122
0.288069 0.5 0.075 0.988902 0.0167902 0.107096
0 0.5 -0.3 0.994522 0 0.104528
0 0.5 0.3 0.994522 0 0.104528
0 0.5 -0.30618 0.994522 0 0.104528
0 0.5 0.30618 0.994522 0 0.104528
0.0124871 0.5 -0.30618 0.994493 0.000902363 0.104008
0.0124871 0.5 0.30618 0.994494 0.000903592 0.105082
0.288069 0.5 -0.15 0.988986 0.0166675 0.0996788
0.288069 0.5 0.15 0.989007 0.0167022 0.109541
0.151149 0.5 -0.3 0.993189 0.00928856 0.0994957
0.151149 0.5 0.3 0.993206 0.00930923 0.109814
0.219992 0.5 -0.2625 0.99207 0.0129095 0.0982495
0.219992 0.5 0.2625 0.992094 0.0129407 0.1111
0.0757758 0.5 -0.3375 0.99432 0.0054702 0.10139
0.0757758 0.5 0.3375 0.994328 0.00547714 0.107876
0.350249 0.5 -0.0375 0.986043 0.0201824 0.103008
0.350249 0.5 0.0375 0.986052 0.020195 0.106081
0.288069 0.5 -0.225 0.989167 0.016504 0.0973048
0.288069 0.5 0.225 0.989191 0.016553 0.11192
0.350249 0.5 -0.1125 0.986131 0.0200899 0.0999803
0.350249 0.5 0.1125 0.986153 0.0201271 0.109113
0 0.5 0.36882 0.994522 0 0.104528
0 0.5 -0.36882 0.994522 0 0.104528
0.0124871 0.5 -0.36882 0.994493 0.000902363 0.104008
0.0124871 0.5 0.36882 0.994494 0.000903592 0.105082
0 0.5 -0.375 0.994522 0 0.104528
0 0.5 0.375 0.994522 0 0.104528
0 0.5 -0.38118 0.994522 0 0.104528
0 0.5 0.38118 0.994522 0 0.104528
0.0124871 0.5 -0.38118 0.994497 0.000885737 0.103905
0.0124871 0.5 0.38118 0.994499 0.000886998 0.105185
0.350249 0.5 -0.1875 0.98634 0.0199225 0.0970133
0.350249 0.5 0.1875 0.986365 0.0199819 0.112089
0.219992 0.5 -0.3375 0.992215 0.0127252 0.0965713
0.219992 0.5 0.3375 0.992246 0.0127623 0.112777
0.151149 0.5 -0.375 0.993282 0.00913886 0.0983439
0.151149 0.5 0.375 0.993305 0.00916273 0.110963
0.411736 0.5 -0.00137326 0.981798 0.0236675 0.104528
0.288069 0.5 -0.3 0.989418 0.0162855 0.0950406
0.288069 0.5 0.3 0.989447 0.0163467 0.114193
0.411736 0.5 -0.075 0.981835 0.0236236 0.100726
0.411736 0.5 0.075 0.981846 0.0236606 0.108078
0.0757758 0.5 -0.4125 0.994345 0.0053693 0.100764
0.0757758 0.5 0.4125 0.994356 0.00537639 0.108496
0.350249 0.5 -0.2625 0.986658 0.0196854 0.0941648
0.350249 0.5 0.2625 0.986686 0.0197636 0.11495
0.411736 0.5 -0.15 0.982062 0.0234592 0.0971189
0.411736 0.5 0.15 0.982077 0.0235315 0.111699
0 0.5 -0.44382 0.994522 0 0.104528
0 0.5 0.44382 0.994522 0 0.104528
0.0124871 0.5 -0.44382 0.994497 0.000885737 0.103905
0.0124871 0.5 0.44382 0.994499 0.000886998 0.105185
0 0.5 -0.45 0.994522 0 0.104528
0 0.5 0.45 0.994522 0 0.104528
0 0.5 -0.45618 0.994522 0 0.104528
0 0.5 0.45618 0.994522 0 0.104528
0.0124871 0.5 -0.45618 0.994502 0.000866721 0.10381
0.0124871 0.5 0.45618 0.994504 0.000867886 0.105278
0.219992 0.5 -0.4125 0.99239 0.0125036 0.0950048
0.219992 0.5 0.4125 0.992427 0.0125458 0.114344
0.411736 0.5 0.225 0.982463 0.0233087 0.115215
0.411736 0.5 -0.225 0.982452 0.0232045 0.093626
0.467897 0.5 0.0375 0.97774 0.0269944 0.106407
0.467897 0.5 -0.0375 0.977735 0.0269699 0.102121
0.288069 0.5 -0.375 0.98973 0.0160159 0.0929124
0.288069 0.5 0.375 0.989764 0.016088 0.116333
0.151149 0.5 -0.45 0.993393 0.00896297 0.0972777
0.151149 0.5 0.45 0.99342 0.00898906 0.112026
0.467897 0.5 -0.1125 0.977931 0.0268287 0.097885
0.467897 0.5 0.1125 0.97794 0.0269011 0.110655
0.350249 0.5 -0.3375 0.987069 0.0193833 0.0914683
0.350249 0.5 0.3375 0.987102 0.0194783 0.117668
0.0757758 0.5 0.4875 0.994388 0.00526026 0.109063
0.0757758 0.5 -0.4875 0.994375 0.00525377 0.10019
0.467897 0.5 -0.1875 0.978338 0.0265762 0.0937568
0.467897 0.5 0.1875 0.978341 0.0266939 0.114813
0.411736 0.5 -0.3 0.98299 0.0228664 0.090301
0.411736 0.5 0.3 0.982996 0.0229983 0.118572
0 0.5 -0.51882 0.994522 0 0.104528
0 0.5 0.51882 0.994522 0 0.104528
0.0124871 0.5 -0.51882 0.994502 0.000866721 0.10381
0.0124871 0.5 0.51882 0.994504 0.000867886 0.105278
0.523432 0.5 -0.00137326 0.972509 0.0304365 0.104226
0 0.5 -0.525 0.994522 0 0.104528
0 0.5 0.525 0.994522 0 0.104528
0.523432 0.5 -0.075 0.972605 0.0303585 0.0991473
0.523432 0.5 0.075 0.972599 0.0304236 0.108974
0 0.5 -0.53118 0.994522 0 0.104528
0 0.5 0.53118 0.994522 0 0.104528
0.0124871 0.5 -0.53118 0.994508 0.000845662 0.103725
0.0124871 0.5 0.53118 0.99451 0.000846639 0.105362
0.288069 0.5 -0.45 0.990098 0.0156991 0.0909461
0.288069 0.5 0.45 0.990137 0.0157808 0.118312
0.219992 0.5 -0.4875 0.992593 0.012247 0.0935666
0.219992 0.5 0.4875 0.992635 0.0122931 0.115781
0.467897 0.5 -0.2625 0.97895 0.0262207 0.0897964
0.467897 0.5 0.2625 0.978939 0.0263784 0.118811
0.350249 0.5 -0.4125 0.987568 0.0190214 0.0889591
0.350249 0.5 0.4125 0.987605 0.0191315 0.120201
0.523432 0.5 -0.15 0.973009 0.0301225 0.0943331
0.523432 0.5 0.15 0.972989 0.03025 0.113819
0.151149 0.5 -0.525 0.99352 0.00876314 0.0963081
0.151149 0.5 0.525 0.993549 0.00879051 0.112992
0.411736 0.5 -0.375 0.98366 0.0224514 0.0871883
0.411736 0.5 0.375 0.983662 0.0226081 0.121727
0.0757758 0.5 -0.5625 0.994409 0.00512568 0.0996739
0.0757758 0.5 0.5625 0.994424 0.00513095 0.10957
0.523432 0.5 -0.225 0.973681 0.0297597 0.0896865
0.523432 0.5 0.225 0.973637 0.029945 0.118518
0.574156 0.5 0.0375 0.967489 0.0337573 0.106635
0.574156 0.5 -0.0375 0.967496 0.0337164 0.101082
0.467897 0.5 -0.3375 0.979741 0.0257714 0.086066
0.467897 0.5 0.3375 0.979717 0.025963 0.122598
0.574156 0.5 -0.1125 0.967832 0.0335185 0.095594
0.574156 0.5 0.1125 0.967804 0.0336392 0.112151
0 0.5 -0.59382 0.994522 0 0.104528
0 0.5 0.59382 0.994522 0 0.104528
0.0124871 0.5 -0.59382 0.994508 0.000845662 0.103725
0.0124871 0.5 0.59382 0.99451 0.000846639 0.105362
0.288069 0.5 -0.525 0.990513 0.0153392 0.0891625
0.288069 0.5 0.525 0.990556 0.0154289 0.12011
0 0.5 -0.6 0.994522 0 0.104528
0 0.5 0.6 0.994522 0 0.104528
0.350249 0.5 0.4875 0.988182 0.018728 0.122522
0.350249 0.5 -0.4875 0.988142 0.0186044 0.0866649
0.523432 0.5 -0.3 0.9746 0.0292799 0.0852754
0.523432 0.5 0.3 0.97453 0.0295169 0.122998
0.219992 0.5 -0.5625 0.992818 0.0119582 0.0922715
0.219992 0.5 0.5625 0.992864 0.012007 0.117075
0.574156 0.5 -0.1875 0.968498 0.0331707 0.0902577
0.574156 0.5 0.1875 0.968437 0.0333663 0.11754
0 0.5 -0.60618 0.994522 0 0.104528
0 0.5 0.60618 0.994522 0 0.104528
0.0124871 0.5 -0.60618 0.994515 0.000822957 0.10365
0.0124871 0.5 0.60618 0.994517 0.000823632 0.105436
0.411736 0.5 -0.45 0.984445 0.0219661 0.0843253
0.411736 0.5 0.45 0.984446 0.0221454 0.124639
0.151149 0.5 -0.6 0.993658 0.00854213 0.0954441
0.151149 0.5 0.6 0.99369 0.00856976 0.113851
0.62168 0.5 4.33681e-17 0.961799 0.0370215 0.103871
0.467897 0.5 -0.4125 0.980692 0.0252349 0.0826104
0.467897 0.5 0.4125 0.98066 0.0254587 0.126119
0.624316 0.5 0.0729401 0.961616 0.0371869 0.109812
0.624316 0.5 -0.075 0.961654 0.0370862 0.0974035
0.574156 0.5 -0.2625 0.969481 0.0326819 0.0851613
0.574156 0.5 0.2625 0.969381 0.032947 0.122725
0.0757758 0.5 -0.6375 0.99445 0.00498714 0.0992194
0.0757758 0.5 0.6375 0.994465 0.00499064 0.110015
0.624316 0.5 -0.15 0.962281 0.0367703 0.0913343
0.624316 0.5 0.15 0.962193 0.0369678 0.115935
0.523432 0.5 -0.375 0.97574 0.0286936 0.081163
0.523432 0.5 0.375 0.975645 0.0289765 0.127196
0.350249 0.5 -0.5625 0.988777 0.0181381 0.0846095
0.350249 0.5 0.5625 0.988819 0.0182733 0.124608
0.624316 0.5 -0.225 0.963302 0.0362882 0.0854901
0.624316 0.5 0.225 0.963157 0.0365763 0.121866
0.288069 0.5 -0.6 0.990966 0.0149408 0.0875784
0.288069 0.5 0.6 0.99101 0.0150369 0.12171
0.574156 0.5 -0.3375 0.970749 0.032065 0.0803651
0.574156 0.5 0.3375 0.970609 0.0323917 0.127611
0.411736 0.5 0.525 0.985326 0.0216169 0.127276
0.411736 0.5 -0.525 0.985329 0.0214176 0.0817433
0 0.5 0.66882 0.994522 0 0.104528
0 0.5 -0.66882 0.994522 0 0.104528
0.0124871 0.5 -0.66882 0.994515 0.000822957 0.10365
0.0124871 0.5 0.66882 0.994517 0.000823632 0.105436
0.67013 0.5 -0.0375 0.955696 0.0404955 0.0999129
0.67013 0.5 0.0375 0.955668 0.0405559 0.106791
0.219992 0.5 -0.6375 0.993059 0.0116411 0.0911305
0.219992 0.5 0.6375 0.993107 0.0116911 0.118215
0 0.5 -0.675 0.994522 0 0.104528
0 0.5 0.675 0.994522 0 0.104528
0.467897 0.5 -0.4875 0.981783 0.0246204 0.079471
0.467897 0.5 0.4875 0.981742 0.0248729 0.129335
0.67013 0.5 -0.1125 0.956204 0.0402348 0.0931187
0.67013 0.5 0.1125 0.956113 0.0404135 0.11363
0 0.5 -0.68118 0.994522 0 0.104528
0 0.5 0.68118 0.994522 0 0.104528
0.0124871 0.5 -0.68118 0.994522 0.000798929 0.103586
0.0124871 0.5 0.68118 0.994525 0.000799265 0.105498
0.523432 0.5 -0.45 0.977073 0.0280111 0.0774036
0.523432 0.5 0.45 0.976956 0.0283353 0.131059
0.151149 0.5 -0.675 0.993806 0.00830312 0.094692
0.151149 0.5 0.675 0.993838 0.00833008 0.114597
0.624316 0.5 -0.3 0.96469 0.0356523 0.0799623
0.624316 0.5 0.3 0.964485 0.036023 0.127513
0.67013 0.5 -0.1875 0.957188 0.039782 0.086526
0.67013 0.5 0.1875 0.95702 0.0400732 0.120308
0.574156 0.5 0.4125 0.972093 0.0317143 0.132149
0.574156 0.5 -0.4125 0.972271 0.0313333 0.0759541
0.708171 0.5 3.5345e-17 0.950116 0.043476 0.103669
0.0757758 0.5 -0.7125 0.994493 0.00484041 0.0988288
0.0757758 0.5 0.7125 0.99451 0.00484187 0.110395
0.715434 0.5 0.0736267 0.949426 0.0439148 0.110798
0.715434 0.5 -0.075 0.949368 0.0438458 0.095513
0.67013 0.5 -0.2625 0.958619 0.0391499 0.0802374
0.67013 0.5 0.2625 0.958374 0.0395445 0.126719
0.350249 0.5 -0.6375 0.989457 0.0176289 0.0828096
0.350249 0.5 0.6375 0.9895 0.0177738 0.12644
0.411736 0.5 0.6 0.986281 0.0210306 0.129614
0.411736 0.5 -0.6 0.986288 0.0208139 0.0794658
0.624316 0.5 -0.375 0.966408 0.0348772 0.0748334
0.624316 0.5 0.375 0.966142 0.0353214 0.132787
0.715434 0.5 -0.15 0.95026 0.0434428 0.0881367
0.715434 0.5 0.15 0.950072 0.0437227 0.118073
0.467897 0.5 -0.5625 0.982985 0.0239373 0.0766792
0.467897 0.5 0.5625 0.982935 0.0242152 0.13221
0.288069 0.5 -0.675 0.991444 0.0145096 0.086205
0.288069 0.5 0.675 0.991488 0.0146105 0.123099
0.523432 0.5 -0.525 0.978565 0.0272432 0.0740372
0.523432 0.5 0.525 0.978427 0.0276043 0.134541
0 0.5 0.74382 0.994522 0 0.104528
0 0.5 -0.74382 0.994522 0 0.104528
0.0124871 0.5 -0.74382 0.994522 0.000798929 0.103586
0.0124871 0.5 0.74382 0.994525 0.000799265 0.105498
0.219992 0.5 0.7125 0.993359 0.0113499 0.119192
0.219992 0.5 -0.7125 0.993312 0.0113001 0.0901507
0.715434 0.5 -0.225 0.951695 0.0428322 0.0810488
0.715434 0.5 0.225 0.9514 0.043241 0.125288
0 0.5 -0.75 0.994522 0 0.104528
0 0.5 0.75 0.994522 0 0.104528
0.67013 0.5 -0.3375 0.960462 0.0383529 0.0743655
0.67013 0.5 0.3375 0.960135 0.0388415 0.132762
0.574156 0.5 -0.4875 0.974006 0.0304981 0.0719725
0.574156 0.5 0.4875 0.973795 0.0309281 0.136272
0 0.5 0.75618 0.994522 0 0.104528
0 0.5 -0.75618 0.994522 0 0.104528
0.0124871 0.5 -0.75618 0.99453 0.00077401 0.103532
0.0124871 0.5 0.75618 0.994533 0.000773998 0.10555
0.756814 0.5 0.0375 0.942679 0.047395 0.106897
0.756814 0.5 -0.0375 0.942735 0.0473123 0.0986341
0.151149 0.5 0.75 0.993992 0.00807526 0.115227
0.151149 0.5 -0.75 0.99396 0.00804972 0.0940551
0.756814 0.5 -0.1125 0.943446 0.0469834 0.0904781
0.756814 0.5 0.1125 0.943269 0.0472286 0.115116
0.624316 0.5 -0.45 0.968407 0.0339775 0.070172
0.624316 0.5 0.45 0.968087 0.0344874 0.137619
0.715434 0.5 -0.3 0.953636 0.0420289 0.074371
0.715434 0.5 0.3 0.953233 0.0425559 0.132145
0.756814 0.5 -0.1875 0.944796 0.0464183 0.0825781
0.756814 0.5 0.1875 0.944486 0.0468185 0.123139
0.67013 0.5 -0.4125 0.962667 0.0374088 0.0689816
0.67013 0.5 0.4125 0.96226 0.0379801 0.138334
0.411736 0.5 -0.675 0.987299 0.020164 0.0775082
0.411736 0.5 0.675 0.987287 0.020395 0.131634
0.467897 0.5 -0.6375 0.984268 0.0231955 0.074257
0.467897 0.5 0.6375 0.984209 0.0234951 0.134722
0.0757758 0.5 -0.7875 0.99454 0.00468789 0.0985036
0.0757758 0.5 0.7875 0.994556 0.00468733 0.110709
0.350249 0.5 -0.7125 0.990168 0.0170843 0.0812755
0.350249 0.5 0.7125 0.990208 0.017237 0.128008
0.523432 0.5 0.6 0.980021 0.0267953 0.137609
0.523432 0.5 -0.6 0.980177 0.0264022 0.0710943
0.797732 0.5 1.60462e-17 0.935632 0.050855 0.102436
0.756814 0.5 -0.2625 0.946753 0.0456326 0.0750667
0.756814 0.5 0.2625 0.946304 0.0461755 0.130825
0.797732 0.5 0.0736267 0.936005 0.050782 0.111714
0.797732 0.5 -0.075 0.936083 0.0506246 0.0934966
0.288069 0.5 0.75 0.991981 0.0141557 0.124271
0.288069 0.5 -0.75 0.991938 0.0140519 0.0850485
0.574156 0.5 -0.5625 0.975908 0.0295733 0.068463
0.574156 0.5 0.5625 0.975668 0.0300466 0.139938
0.715434 0.5 -0.375 0.956028 0.0410501 0.0682039
0.715434 0.5 0.375 0.955519 0.0416842 0.138528
0.797732 0.5 -0.15 0.937279 0.0501288 0.0847602
0.797732 0.5 0.15 0.936961 0.0505003 0.120255
0.624316 0.5 -0.525 0.970634 0.0329687 0.0660305
0.624316 0.5 0.525 0.970266 0.0335371 0.141955
0.219992 0.5 -0.7875 0.993569 0.0109405 0.0893353
0.219992 0.5 0.7875 0.993616 0.0109888 0.120004
0 0.5 -0.81882 0.994522 0 0.104528
0 0.5 0.81882 0.994522 0 0.104528
0.0124871 0.5 -0.81882 0.99453 0.00077401 0.103532
0.0124871 0.5 0.81882 0.994533 0.000773998 0.10555
0 0.5 -0.825 0.994522 0 0.104528
0 0.5 0.825 0.994522 0 0.104528
0.756814 0.5 -0.3375 0.949256 0.0446427 0.068082
0.756814 0.5 0.3375 0.948678 0.0453169 0.138056
0.67013 0.5 0.4875 0.964693 0.0369802 0.143382
0.67013 0.5 -0.4875 0.965166 0.0363338 0.0641588
0.797732 0.5 0.225 0.938699 0.0499251 0.128804
0.797732 0.5 -0.225 0.939189 0.0493814 0.0763853
0 0.5 -0.83118 0.994522 0 0.104528
0 0.5 0.83118 0.994522 0 0.104528
0.0124871 0.5 -0.83118 0.994537 0.000748504 0.103489
0.0124871 0.5 0.83118 0.99454 0.000748172 0.105591
0.835107 0.5 -0.0375 0.928899 0.0541356 0.0972671
0.835107 0.5 0.0375 0.928806 0.0542426 0.106972
0.151149 0.5 -0.825 0.994116 0.00778578 0.0935343
0.151149 0.5 0.825 0.994147 0.00780948 0.11574
0.835107 0.5 0.1125 0.929554 0.0540521 0.116628
0.835107 0.5 -0.1125 0.929839 0.0537346 0.0876946
0.715434 0.5 -0.45 0.958803 0.0399162 0.0626304
0.715434 0.5 0.45 0.958195 0.0406458 0.144352
0.797732 0.5 -0.3 0.94176 0.0484003 0.068517
0.797732 0.5 0.3 0.9411 0.0491025 0.136912
0.467897 0.5 0.7125 0.985536 0.0227234 0.136856
0.467897 0.5 -0.7125 0.985601 0.0224064 0.0722164
0.523432 0.5 -0.675 0.981869 0.0255009 0.0685931
0.523432 0.5 0.675 0.981698 0.0259206 0.140244
0.411736 0.5 0.75 0.988323 0.0197193 0.13333
0.411736 0.5 -0.75 0.988339 0.0194776 0.0758773
0.835107 0.5 -0.1875 0.931606 0.0530509 0.0784362
0.835107 0.5 0.1875 0.931115 0.0535698 0.126046
0.574156 0.5 0.6375 0.977664 0.0290837 0.143119
0.574156 0.5 -0.6375 0.977929 0.0285736 0.0654513
0.350249 0.5 -0.7875 0.990892 0.0165128 0.0800107
0.350249 0.5 0.7875 0.990931 0.0166703 0.129306
0.756814 0.5 -0.4125 0.952239 0.0434694 0.0617033
0.756814 0.5 0.4125 0.95153 0.044262 0.144686
0.0757758 0.5 -0.8625 0.994586 0.00453177 0.0982429
0.0757758 0.5 0.8625 0.994603 0.00452941 0.110958
0.624316 0.5 -0.6 0.97303 0.0318675 0.0624461
0.624316 0.5 0.6 0.972621 0.0324866 0.145751
0.872064 0.5 4.81386e-17 0.921587 0.057614 0.101768
0.870122 0.5 0.075 0.922422 0.0573596 0.112605
0.288069 0.5 -0.825 0.992436 0.0135748 0.0841093
0.288069 0.5 0.825 0.992478 0.0136793 0.125226
0.67013 0.5 -0.5625 0.967895 0.0351472 0.0599463
0.67013 0.5 0.5625 0.967362 0.0358593 0.147842
0.872064 0.5 -0.075 0.922176 0.0573349 0.0913825
0.835107 0.5 -0.2625 0.934153 0.0521022 0.0696612
0.835107 0.5 0.2625 0.93345 0.0528089 0.135058
0.797732 0.5 -0.375 0.944916 0.047206 0.0612871
0.797732 0.5 0.375 0.944093 0.0480531 0.144442
0.872064 0.5 0.14794 0.923237 0.0572127 0.122476
0.872064 0.5 -0.15 0.923706 0.0567434 0.0812429
0.715434 0.5 0.525 0.961187 0.0394621 0.149553
0.715434 0.5 -0.525 0.961881 0.038648 0.0577206
0.219992 0.5 -0.8625 0.993829 0.0105675 0.088683
0.219992 0.5 0.8625 0.993873 0.0106137 0.120652
0 0.5 -0.89382 0.994522 0 0.104528
0 0.5 0.89382 0.994522 0 0.104528
0.0124871 0.5 -0.89382 0.994537 0.000748504 0.103489
0.0124871 0.5 0.89382 0.99454 0.000748172 0.105591
0 0.5 -0.9 0.994522 0 0.104528
0 0.5 0.9 0.994522 0 0.104528
0.756814 0.5 -0.4875 0.955613 0.0421386 0.0560379
0.756814 0.5 0.4875 0.954785 0.0430352 0.150686
0.872064 0.5 -0.225 0.926137 0.0558548 0.0715423
0.872064 0.5 0.225 0.925419 0.0565433 0.132401
0.835107 0.5 0.3375 0.936503 0.0517878 0.143505
0.835107 0.5 -0.3375 0.937399 0.0509107 0.0615106
0 0.5 -0.90618 0.994522 0 0.104528
0 0.5 0.90618 0.994522 0 0.104528
0.0124871 0.5 -0.90618 0.994544 0.000722849 0.103456
0.0124871 0.5 0.90618 0.994547 0.000722224 0.105622
0.905821 0.5 0.0375 0.914527 0.0609534 0.107022
0.905821 0.5 -0.0375 0.914659 0.060821 0.0958373
0.151149 0.5 -0.9 0.994271 0.00751537 0.0931275
0.151149 0.5 0.9 0.994302 0.00753705 0.116139
0.905821 0.5 -0.1125 0.915845 0.0603468 0.0848122
0.905821 0.5 0.1125 0.915442 0.0607402 0.11815
0.523432 0.5 -0.75 0.983602 0.024553 0.0665398
0.523432 0.5 0.75 0.983421 0.0249931 0.142435
0.574156 0.5 -0.7125 0.980019 0.0275146 0.0629502
0.574156 0.5 0.7125 0.979736 0.0280544 0.145797
0.797732 0.5 -0.45 0.948567 0.0458238 0.0547998
0.797732 0.5 0.45 0.947588 0.0468007 0.15128
0.467897 0.5 0.7875 0.986885 0.021911 0.138609
0.467897 0.5 -0.7875 0.986956 0.0215816 0.0705593
0.624316 0.5 -0.675 0.975534 0.0306919 0.0594391
0.624316 0.5 0.675 0.975093 0.0313528 0.148982
0.411736 0.5 -0.825 0.989386 0.0187646 0.0745716
0.411736 0.5 0.825 0.989367 0.0190129 0.1347
0.872064 0.5 -0.3 0.9294 0.0546908 0.062453
0.872064 0.5 0.3 0.928436 0.0555817 0.141793
0.67013 0.5 0.6375 0.970201 0.0346362 0.151681
0.67013 0.5 -0.6375 0.970783 0.0338689 0.0563745
0.905821 0.5 -0.1875 0.918056 0.0595437 0.0741628
0.905821 0.5 0.1875 0.917369 0.0601874 0.128997
0.350249 0.5 -0.8625 0.991617 0.0159226 0.0790115
0.350249 0.5 0.8625 0.991653 0.0160815 0.130338
0.835107 0.5 -0.4125 0.941258 0.0494985 0.0541502
0.835107 0.5 0.4125 0.940164 0.0505333 0.151269
0.715434 0.5 -0.6 0.96518 0.0372672 0.0535158
0.715434 0.5 0.6 0.964414 0.0381543 0.154071
0.939201 0.5 3.31766e-17 0.906936 0.0644396 0.101064
0.0757758 0.5 -0.9375 0.99463 0.00437439 0.0980453
0.0757758 0.5 0.9375 0.994646 0.00437029 0.111144
0.939112 0.5 0.075 0.907446 0.0643787 0.114011
0.939201 0.5 -0.075 0.90768 0.0641079 0.0891596
0.756814 0.5 -0.5625 0.959281 0.040672 0.051135
0.756814 0.5 0.5625 0.958357 0.0416607 0.155941
0.905821 0.5 0.2625 0.920254 0.0593101 0.139367
0.905821 0.5 -0.2625 0.921235 0.058431 0.0640937
0.288069 0.5 -0.9 0.992933 0.0130849 0.0833826
0.288069 0.5 0.9 0.992973 0.0131885 0.125966
0.872064 0.5 -0.375 0.933398 0.0532758 0.0541474
0.872064 0.5 0.375 0.932199 0.0543519 0.1505
0.939201 0.5 0.148627 0.909011 0.0639557 0.124982
0.939201 0.5 -0.15 0.909578 0.0634126 0.0775496
0.797732 0.5 -0.525 0.952602 0.0442811 0.0491293
0.797732 0.5 0.525 0.95149 0.0453717 0.157342
0.219992 0.5 -0.9375 0.994088 0.0101873 0.0881894
0.219992 0.5 0.9375 0.99413 0.0102311 0.121141
0.939201 0.5 -0.225 0.91258 0.0623709 0.066464
0.939201 0.5 0.225 0.911594 0.0632152 0.136164
0.905821 0.5 -0.3375 0.925287 0.0570357 0.0547771
0.905821 0.5 0.3375 0.924025 0.0581289 0.149057
0.835107 0.5 -0.4875 0.945607 0.047898 0.0476436
0.835107 0.5 0.4875 0.944337 0.0490701 0.158182
0 0.5 -0.96882 0.994522 0 0.104528
0 0.5 0.96882 0.994522 0 0.104528
0.0124871 0.5 -0.96882 0.994544 0.000722849 0.103456
0.0124871 0.5 0.96882 0.994547 0.000722224 0.105622
0.96969 0.5 -0.0375 0.899622 0.067768 0.0943236
0.96969 0.5 0.0375 0.89944 0.067928 0.107098
0.574156 0.5 0.7875 0.981837 0.0269737 0.147969
0.574156 0.5 -0.7875 0.982131 0.0264125 0.0609581
0 0.5 -0.975 0.994522 0 0.104528
0 0.5 0.975 0.994522 0 0.104528
0.624316 0.5 -0.75 0.978086 0.0294603 0.0570137
0.624316 0.5 0.75 0.977625 0.0301533 0.151638
0.96969 0.5 -0.1125 0.90109 0.0672097 0.0817411
0.96969 0.5 0.1125 0.900535 0.067686 0.119806
0.523432 0.5 -0.825 0.985339 0.0235723 0.0649289
0.523432 0.5 0.825 0.985152 0.0240263 0.144183
0.67013 0.5 -0.7125 0.973756 0.0325194 0.0534562
0.67013 0.5 0.7125 0.97314 0.0333312 0.154878
0 0.5 -0.98118 0.994522 0 0.104528
0 0.5 0.98118 0.994522 0 0.104528
0.467897 0.5 -0.8625 0.988303 0.0207324 0.0692778
0.467897 0.5 0.8625 0.98823 0.0210692 0.139983
0.0124871 0.5 -0.98118 0.99455 0.00069737 0.103434
0.0124871 0.5 0.98118 0.994552 0.000696404 0.105642
0.872064 0.5 0.45 0.936592 0.0528818 0.158362
0.872064 0.5 -0.45 0.938006 0.0516396 0.0467436
0.715434 0.5 -0.675 0.968613 0.0357972 0.0500393
0.715434 0.5 0.675 0.967793 0.0367442 0.157881
0.939201 0.5 0.3 0.91528 0.0621028 0.146892
0.939201 0.5 -0.3 0.916605 0.061008 0.0561104
0.151149 0.5 -0.975 0.994425 0.00724243 0.0928302
0.151149 0.5 0.975 0.994454 0.00726188 0.116427
0.96969 0.5 -0.1875 0.903804 0.0662683 0.0696086
0.96969 0.5 0.1875 0.902866 0.0670486 0.132179
0.756814 0.5 0.6375 0.962143 0.0401614 0.160426
0.756814 0.5 -0.6375 0.963146 0.0390953 0.0470315
0.411736 0.5 -0.9 0.990421 0.0180346 0.073582
0.411736 0.5 0.9 0.990401 0.0182855 0.135752
0.905821 0.5 -0.4125 0.930092 0.0553843 0.0464229
0.905821 0.5 0.4125 0.92856 0.0566742 0.157939
0.995005 0.5 0.0749309 0.894454 0.0699343 0.114767
0.797732 0.5 -0.6 0.956911 0.0426052 0.0443265
0.797732 0.5 0.6 0.955689 0.0437939 0.162572
1.00005 0.5 3.26706e-18 0.892635 0.0704892 0.100339
0.350249 0.5 0.9375 0.992366 0.015479 0.13111
0.350249 0.5 -0.9375 0.992331 0.0153211 0.078269
1.00005 0.5 -0.0749309 0.893538 0.0701121 0.0870045
0.96969 0.5 -0.2625 0.907691 0.0649654 0.058164
0.96969 0.5 0.2625 0.906362 0.0660334 0.143986
0.835107 0.5 -0.5625 0.950314 0.0461386 0.0420683
0.835107 0.5 0.5625 0.948906 0.0474307 0.164225
1.00005 0.5 -0.149862 0.895815 0.0693308 0.0740081
0.939201 0.5 -0.375 0.921524 0.0593534 0.0466839
0.939201 0.5 0.375 0.919881 0.0606774 0.156805
1.00029 0.5 0.148988 0.895151 0.0699377 0.127122
0.0757758 0.5 -1.0125 0.994666 0.00421801 0.097908
0.0757758 0.5 1.0125 0.994681 0.00421212 0.111269
0.288069 0.5 -0.975 0.993422 0.0125885 0.0828584
0.288069 0.5 0.975 0.993459 0.01269 0.126501
0.872064 0.5 -0.525 0.943077 0.0498155 0.040317
0.872064 0.5 0.525 0.941482 0.051204 0.165279
1.00005 0.5 0.224793 0.898132 0.0691537 0.13965
1.00005 0.5 -0.224793 0.899403 0.0681641 0.061611
0.96969 0.5 0.3375 0.910929 0.0646644 0.154986
0.96969 0.5 -0.3375 0.912644 0.0633325 0.047623
1.02709 0.5 0.0368226 0.885112 0.0738424 0.106972
1.02709 0.5 -0.0368226 0.885336 0.0736629 0.093001
0.905821 0.5 0.4875 0.933727 0.054976 0.165791
0.905821 0.5 -0.4875 0.935473 0.0535147 0.0390633
1.02709 0.5 -0.110468 0.887038 0.073063 0.0792377
1.02709 0.5 0.110468 0.885972 0.0738442 0.124141
0.67013 0.5 -0.7875 0.976743 0.0311197 0.051184
0.67013 0.5 0.7875 0.97611 0.031964 0.157433
0.624316 0.5 -0.825 0.980629 0.0281906 0.0551582
0.624316 0.5 0.825 0.98016 0.0289059 0.153724
0.219992 0.5 -1.0125 0.994349 0.00980489 0.0878455
0.219992 0.5 1.0125 0.99439 0.00984573 0.121478
0.574156 0.5 -0.8625 0.98422 0.0252823 0.0594605
0.574156 0.5 0.8625 0.983924 0.0258573 0.149642
0.715434 0.5 -0.75 0.972096 0.034262 0.0472912
0.715434 0.5 0.75 0.971242 0.0352549 0.160972
0.756814 0.5 -0.7125 0.967108 0.0374355 0.0437401
0.756814 0.5 0.7125 0.96605 0.0385632 0.164118
0.523432 0.5 0.9 0.986858 0.0230331 0.1455
0.523432 0.5 -0.9 0.987044 0.0225718 0.0637445
0.939201 0.5 0.45 0.925252 0.0589719 0.165722
0.939201 0.5 -0.45 0.92717 0.0574425 0.038306
1.04168 0.5 0 0.881024 0.0754634 0.0997831
1.02709 0.5 -0.184113 0.890172 0.0720571 0.0659576
1.02709 0.5 0.184113 0.889026 0.0729352 0.134418
0 0.5 1.04382 0.994522 0 0.104528
0 0.5 -1.04382 0.994522 0 0.104528
0.0124871 0.5 -1.04382 0.99455 0.00069737 0.103434
0.0124871 0.5 1.04382 0.994552 0.000696404 0.105642
1.00005 0.5 -0.299723 0.904203 0.0666389 0.0500556
1.00005 0.5 0.299723 0.902499 0.0679251 0.151646
1.04168 0.5 -0.0729162 0.882014 0.0750664 0.0856093
1.04168 0.5 0.0729162 0.881541 0.0754332 0.114028
0.797732 0.5 -0.675 0.96138 0.0408252 0.0404171
0.797732 0.5 0.675 0.960074 0.0420946 0.166938
0.467897 0.5 -0.9375 0.989619 0.0198696 0.0683563
0.467897 0.5 0.9375 0.989548 0.0202086 0.140993
0 0.5 -1.05 0.994522 0 0.104528
0 0.5 1.05 0.994522 0 0.104528
0.835107 0.5 0.6375 0.953732 0.0456457 0.169334
0.835107 0.5 -0.6375 0.955264 0.0442519 0.0374637
1.04168 0.5 -0.145832 0.884495 0.0742511 0.0717852
1.04168 0.5 0.145832 0.883538 0.0749773 0.128057
0.96969 0.5 -0.4125 0.918478 0.0614038 0.0381673
0.96969 0.5 0.4125 0.916432 0.0629759 0.165022
0 0.5 -1.05618 0.994522 0 0.104528
0 0.5 1.05618 0.994522 0 0.104528
0.0124871 0.5 -1.05618 0.994554 0.000672249 0.10342
0.0124871 0.5 1.05618 0.994556 0.00067109 0.105654
1.05694 0.5 -0.0360765 0.876986 0.0770436 0.0922436
1.05694 0.5 0.0360765 0.876734 0.0772341 0.106801
0.411736 0.5 0.975 0.991406 0.017546 0.136498
0.411736 0.5 -0.975 0.991425 0.0172956 0.0728919
0.872064 0.5 -0.6 0.948475 0.0478365 0.0349366
0.872064 0.5 0.6 0.946723 0.049352 0.171212
1.02709 0.5 -0.257758 0.89465 0.0706677 0.0534203
1.02709 0.5 0.257758 0.893036 0.071872 0.147353
0.151149 0.5 -1.05 0.994578 0.00696932 0.0926352
0.151149 0.5 1.05 0.994605 0.00698625 0.116613
1.05694 0.5 -0.108229 0.878779 0.0764243 0.0778994
1.05694 0.5 0.108229 0.877216 0.0773306 0.12167
1.04168 0.5 -0.218749 0.888396 0.073036 0.0585825
1.04168 0.5 0.218749 0.88695 0.0741073 0.141598
0.905821 0.5 -0.5625 0.94128 0.0514601 0.0328268
0.905821 0.5 0.5625 0.939342 0.0530764 0.172621
1.00005 0.5 -0.374654 0.910053 0.0647891 0.0395476
1.00005 0.5 0.374654 0.907949 0.0663467 0.162708
0.350249 0.5 -1.0125 0.993022 0.0147143 0.0777653
0.350249 0.5 1.0125 0.993055 0.0148704 0.131637
1.05694 0.5 -0.180382 0.882067 0.0753902 0.0640511
1.05694 0.5 0.180382 0.880778 0.0763248 0.135418
1.07319 0.5 0.0709442 0.872599 0.0790673 0.117287
0.939201 0.5 0.525 0.931212 0.0570261 0.173552
0.939201 0.5 -0.525 0.933367 0.0553147 0.0311028
1.02709 0.5 -0.331404 0.900349 0.0689253 0.0418664
1.02709 0.5 0.331404 0.898269 0.0704325 0.159425
1.08112 0.5 -3.98986e-18 0.869474 0.0800372 0.0991902
1.04168 0.5 -0.291665 0.893615 0.0714475 0.0462579
1.04168 0.5 0.291665 0.891676 0.0728437 0.154391
1.08112 0.5 -0.0709442 0.870538 0.0796232 0.0842445
0.96969 0.5 -0.4875 0.925004 0.0592217 0.029859
0.96969 0.5 0.4875 0.922677 0.061005 0.173887
1.05694 0.5 -0.252535 0.886759 0.073964 0.0509642
1.05694 0.5 0.252535 0.884947 0.0752477 0.148925
0.288069 0.5 -1.05 0.993896 0.0120891 0.0825233
0.288069 0.5 1.05 0.993931 0.0121878 0.126844
0.0757758 0.5 -1.0875 0.994695 0.00406373 0.0978262
0.0757758 0.5 1.0875 0.994708 0.00405647 0.111339
1.08112 0.5 -0.141888 0.873173 0.0787819 0.0696574
1.08145 0.5 0.140165 0.872419 0.0794439 0.129408
0.715434 0.5 -0.825 0.97555 0.0326848 0.0452507
0.715434 0.5 0.825 0.974684 0.0337094 0.163354
0.756814 0.5 -0.7875 0.971071 0.03572 0.0412436
0.756814 0.5 0.7875 0.969986 0.0368919 0.167018
0.67013 0.5 -0.8625 0.979683 0.0296897 0.049535
0.67013 0.5 0.8625 0.979048 0.0305549 0.159362
0.797732 0.5 0.75 0.964538 0.0403021 0.17043
0.797732 0.5 -0.75 0.965889 0.0389705 0.0373958
0.624316 0.5 -0.9 0.983113 0.0269003 0.0538475
0.624316 0.5 0.9 0.982648 0.0276282 0.155259
1.00005 0.5 -0.449585 0.916759 0.0626529 0.0302556
1.00005 0.5 0.449585 0.914301 0.0644556 0.172646
0.835107 0.5 -0.7125 0.960315 0.04227 0.0338428
0.835107 0.5 0.7125 0.958709 0.0437449 0.17349
0.574156 0.5 -0.9375 0.986248 0.0241391 0.0584321
0.574156 0.5 0.9375 0.985958 0.0247198 0.150838
1.10076 0.5 0.034981 0.863235 0.0824973 0.106646
1.10076 0.5 -0.034981 0.863513 0.0822952 0.0911986
1.08112 0.5 -0.212833 0.877311 0.0775316 0.0557072
1.08112 0.5 0.212833 0.875669 0.0786825 0.143319
0.872064 0.5 -0.675 0.954054 0.0457388 0.0306296
0.872064 0.5 0.675 0.952181 0.0473573 0.176112