# UMean  POINT_DATA 63140
# x  y  z  UMean_x  UMean_y  UMean_z
0 0.1 0 0.994522 0 0.104528
0 0.1 -0.0179898 0.994522 0 0.104528
0 0.1 0.0179898 0.994522 0 0.104528
0.0363518 0.1 -0.0179898 0.997449 0.00745049 0.104377
0.0363518 0.1 0.0179898 0.997469 0.00745575 0.104782
0 0.1 -0.0570102 0.994522 0 0.104528
0 0.1 0.0570102 0.994522 0 0.104528
0.0363518 0.1 0.0570102 0.997469 0.00745575 0.104782
0.0363518 0.1 -0.0570102 0.997449 0.00745049 0.104377
0 0.1 -0.075 0.994522 0 0.104528
0 0.1 0.075 0.994522 0 0.104528
0.0757758 0.1 -0.0375 1.00067 0.015658 0.104213
0.0757758 0.1 0.0375 1.00071 0.0156687 0.105056
0 0.1 -0.0929898 0.994522 0 0.104528
0 0.1 0.0929898 0.994522 0 0.104528
0.0363518 0.1 -0.0929898 0.997385 0.00741912 0.103961
0.0363518 0.1 0.0929898 0.997433 0.00743183 0.105195
0 0.1 -0.13201 0.994522 0 0.104528
0 0.1 0.13201 0.994522 0 0.104528
0.0757758 0.1 -0.1125 1.00053 0.0155944 0.103344
0.0757758 0.1 0.1125 1.00064 0.0156199 0.105917
0.0363518 0.1 -0.13201 0.997385 0.00741912 0.103961
0.0363518 0.1 0.13201 0.997433 0.00743183 0.105195
0 0.1 -0.15 0.994522 0 0.104528
0 0.1 0.15 0.994522 0 0.104528
0.150379 0.1 -4.33681e-19 1.00281 0.0151525 0.104611
0 0.1 -0.16799 0.994522 0 0.104528
0 0.1 0.16799 0.994522 0 0.104528
0.150379 0.1 -0.075 1.00287 0.0151194 0.103138
0.150379 0.1 0.075 1.00285 0.0151427 0.106078
0.0363518 0.1 -0.16799 0.997324 0.00738279 0.10356
0.0363518 0.1 0.16799 0.997376 0.00739463 0.10559
0.0757758 0.1 -0.1875 1.00041 0.015521 0.102507
0.0757758 0.1 0.1875 1.00052 0.0155446 0.106741
0 0.1 -0.20701 0.994522 0 0.104528
0 0.1 0.20701 0.994522 0 0.104528
0.0363518 0.1 -0.20701 0.997324 0.00738279 0.10356
0.0363518 0.1 0.20701 0.997376 0.00739463 0.10559
0.150379 0.1 -0.15 1.00304 0.015065 0.101659
0.150379 0.1 0.15 1.00299 0.0150968 0.107541
0.219992 0.1 -0.0375 1.00486 0.0146603 0.103556
0.219992 0.1 0.0375 1.00481 0.014678 0.105621
0 0.1 -0.225 0.994522 0 0.104528
0 0.1 0.225 0.994522 0 0.104528
0 0.1 -0.24299 0.994522 0 0.104528
0 0.1 0.24299 0.994522 0 0.104528
0.0363518 0.1 0.24299 0.997321 0.00736054 0.105969
0.0363518 0.1 -0.24299 0.997277 0.00735118 0.103178
0.219992 0.1 -0.1125 1.00521 0.0146192 0.101497
0.219992 0.1 0.1125 1.00504 0.014658 0.107666
0.150379 0.1 0.225 1.00322 0.0150378 0.108983
0.150379 0.1 -0.225 1.00326 0.0150087 0.10021
0.0757758 0.1 0.2625 1.0004 0.0154756 0.107531
0.0757758 0.1 -0.2625 1.00031 0.0154566 0.101711
0 0.1 -0.28201 0.994522 0 0.104528
0 0.1 0.28201 0.994522 0 0.104528
0.0363518 0.1 -0.28201 0.997277 0.00735118 0.103178
0.0363518 0.1 0.28201 0.997321 0.00736054 0.105969
0.287374 0.1 0 1.00178 0.0142014 0.104485
0.219992 0.1 -0.1875 1.00578 0.0145787 0.0994015
0.219992 0.1 0.1875 1.00556 0.0146175 0.109731
0.287374 0.1 -0.075 1.00197 0.0141835 0.101804
0.287374 0.1 0.075 1.00187 0.0142048 0.107155
0 0.1 -0.3 0.994522 0 0.104528
0 0.1 0.3 0.994522 0 0.104528
0 0.1 -0.31799 0.994522 0 0.104528
0 0.1 0.31799 0.994522 0 0.104528
0.0363518 0.1 -0.31799 0.997249 0.00731876 0.102828
0.0363518 0.1 0.31799 0.997286 0.00732907 0.106317
0.287374 0.1 -0.15 1.00241 0.014153 0.099112
0.287374 0.1 0.15 1.00222 0.014188 0.10982
0.150379 0.1 -0.3 1.00348 0.0149494 0.0988418
0.150379 0.1 0.3 1.00346 0.0149747 0.110362
0.219992 0.1 -0.2625 1.0063 0.0145309 0.0973904
0.219992 0.1 0.2625 1.00616 0.0145651 0.111763
0.0757758 0.1 -0.3375 1.00026 0.01539 0.100982
0.0757758 0.1 0.3375 1.00033 0.0154112 0.108257
0.350249 0.1 -0.0375 0.998892 0.0137518 0.10275
0.350249 0.1 0.0375 0.998847 0.0137582 0.10602
0 0.1 0.35701 0.994522 0 0.104528
0 0.1 -0.35701 0.994522 0 0.104528
0.0363518 0.1 -0.35701 0.997249 0.00731876 0.102828
0.0363518 0.1 0.35701 0.997286 0.00732907 0.106317
0.287374 0.1 -0.225 1.00299 0.0141031 0.096456
0.287374 0.1 0.225 1.00279 0.0141446 0.112468
0.350249 0.1 0.1125 0.999039 0.0137674 0.109269
0.350249 0.1 -0.1125 0.999184 0.0137445 0.0994749
0 0.1 -0.375 0.994522 0 0.104528
0 0.1 0.375 0.994522 0 0.104528
0 0.1 -0.39299 0.994522 0 0.104528
0 0.1 0.39299 0.994522 0 0.104528
0.0363518 0.1 -0.39299 0.997236 0.00728797 0.102509
0.0363518 0.1 0.39299 0.997263 0.00729755 0.10663
0.350249 0.1 -0.1875 0.999731 0.0137106 0.0961897
0.350249 0.1 0.1875 0.999508 0.0137507 0.112519
0.219992 0.1 -0.3375 1.00675 0.0144718 0.0955097
0.219992 0.1 0.3375 1.00667 0.0144981 0.113673
0.150379 0.1 -0.375 1.00369 0.0148859 0.0975755
0.150379 0.1 0.375 1.00369 0.0149073 0.111642
0.411108 0.1 -2.21177e-17 0.993602 0.0140278 0.104195
0.287374 0.1 -0.3 1.0036 0.0140289 0.093927
0.287374 0.1 0.3 1.00344 0.0140718 0.115022
0.411108 0.1 0.075 0.99369 0.0140344 0.108142
0.411108 0.1 -0.075 0.9938 0.0140179 0.100237
0.0757758 0.1 -0.4125 1.00023 0.0153274 0.100317
0.0757758 0.1 0.4125 1.00029 0.0153469 0.108908
0 0.1 -0.43201 0.994522 0 0.104528
0 0.1 0.43201 0.994522 0 0.104528
0.0363518 0.1 -0.43201 0.997236 0.00728797 0.102509
0.0363518 0.1 0.43201 0.997263 0.00729755 0.10663
0.411108 0.1 -0.15 0.994291 0.0139915 0.0962971
0.411108 0.1 0.15 0.994078 0.014027 0.112062
0.350249 0.1 -0.2625 1.00043 0.013634 0.0930094
0.350249 0.1 0.2625 1.00021 0.0136866 0.11571
0 0.1 -0.45 0.994522 0 0.104528
0 0.1 0.45 0.994522 0 0.104528
0.219992 0.1 -0.4125 1.0072 0.0144061 0.0937707
0.219992 0.1 0.4125 1.00716 0.0144247 0.115453
0 0.1 -0.46799 0.994522 0 0.104528
0 0.1 0.46799 0.994522 0 0.104528
0.411108 0.1 -0.225 0.99504 0.0139289 0.0924396
0.411108 0.1 0.225 0.994765 0.0139821 0.115919
0.467897 0.1 0.0375 0.988523 0.0142916 0.106324
0.467897 0.1 -0.0375 0.988584 0.0142838 0.1017
0.0363518 0.1 -0.46799 0.997247 0.00725973 0.102208
0.0363518 0.1 0.46799 0.99726 0.00726862 0.106916
0.287374 0.1 -0.375 1.00421 0.013933 0.0915746
0.287374 0.1 0.375 1.0041 0.0139742 0.117413
0.150379 0.1 -0.45 1.00389 0.0148199 0.0964216
0.150379 0.1 0.45 1.00391 0.0148395 0.112802
0.467897 0.1 -0.1125 0.988976 0.0142662 0.0970939
0.467897 0.1 0.1125 0.988789 0.0142948 0.110914
0.350249 0.1 0.3375 1.001 0.0135798 0.118742
0.350249 0.1 -0.3375 1.00118 0.0135226 0.090016
0.0757758 0.1 -0.4875 1.00026 0.0152699 0.0996898
0.0757758 0.1 0.4875 1.00028 0.015288 0.109505
0.467897 0.1 -0.1875 0.989706 0.0142202 0.0925548
0.467897 0.1 0.1875 0.989407 0.01427 0.115448
0 0.1 -0.50701 0.994522 0 0.104528
0 0.1 0.50701 0.994522 0 0.104528
0.0363518 0.1 -0.50701 0.997247 0.00725973 0.102208
0.0363518 0.1 0.50701 0.99726 0.00726862 0.106916
0.411108 0.1 -0.3 0.995961 0.013822 0.0887629
0.411108 0.1 0.3 0.995684 0.0138896 0.119634
0.522864 0.1 -2.08167e-17 0.981844 0.0149569 0.10375
0 0.1 -0.525 0.994522 0 0.104528
0 0.1 0.525 0.994522 0 0.104528
0.522864 0.1 -0.075 0.982119 0.0149354 0.0984136
0.522864 0.1 0.075 0.981966 0.0149597 0.109085
0.287374 0.1 -0.45 1.00481 0.0138179 0.0894378
0.287374 0.1 0.45 1.00476 0.0138582 0.119592
0.219992 0.1 -0.4875 1.00757 0.0143287 0.0922327
0.219992 0.1 0.4875 1.00758 0.014351 0.117018
0.467897 0.1 0.2625 0.990366 0.0141963 0.11985
0.467897 0.1 -0.2625 0.990719 0.0141267 0.0881805
0.350249 0.1 -0.4125 1.00196 0.0133781 0.0872664
0.350249 0.1 0.4125 1.00184 0.0134391 0.121539
0 0.1 -0.54299 0.994522 0 0.104528
0 0.1 0.54299 0.994522 0 0.104528
0.522864 0.1 0.15 0.982495 0.0149369 0.114358
0.522864 0.1 -0.15 0.982794 0.0148852 0.0931435
0.0363518 0.1 -0.54299 0.997269 0.00723062 0.101932
0.0363518 0.1 0.54299 0.997275 0.00723893 0.107182
0.150379 0.1 -0.525 1.00409 0.0147484 0.0953878
0.150379 0.1 0.525 1.00411 0.014769 0.113827
0.411108 0.1 -0.375 0.996986 0.0136732 0.0853437
0.411108 0.1 0.375 0.996745 0.0137515 0.123118
0.0757758 0.1 -0.5625 1.0003 0.0152102 0.0991143
0.0757758 0.1 0.5625 1.00031 0.0152273 0.11006
0.522864 0.1 -0.225 0.983845 0.0147903 0.0880305
0.522864 0.1 0.225 0.983434 0.0148691 0.119507
0.574156 0.1 -0.0375 0.975438 0.0155901 0.100472
0.574156 0.1 0.0375 0.975351 0.0156041 0.106526
0.467897 0.1 -0.3375 0.991926 0.0139819 0.0840704
0.467897 0.1 0.3375 0.991577 0.0140716 0.124038
0 0.1 -0.58201 0.994522 0 0.104528
0 0.1 0.58201 0.994522 0 0.104528
0.0363518 0.1 -0.58201 0.997269 0.00723062 0.101932
0.0363518 0.1 0.58201 0.997275 0.00723893 0.107182
0.574156 0.1 -0.1125 0.975994 0.0155446 0.0944637
0.574156 0.1 0.1125 0.975722 0.0155907 0.112539
0.287374 0.1 -0.525 1.00538 0.0136876 0.087538
0.287374 0.1 0.525 1.00537 0.0137281 0.12152
0 0.1 -0.6 0.994522 0 0.104528
0 0.1 0.6 0.994522 0 0.104528
0.350249 0.1 -0.4875 1.00274 0.0132095 0.0847893
0.350249 0.1 0.4875 1.00268 0.0132668 0.124068
0.522864 0.1 0.3 0.984738 0.0147448 0.124441
0.522864 0.1 -0.3 0.985202 0.0146409 0.0831739
0.219992 0.1 -0.5625 1.00791 0.0142389 0.0908777
0.219992 0.1 0.5625 1.00793 0.0142632 0.118359
0.574156 0.1 -0.1875 0.977011 0.0154541 0.08859
0.574156 0.1 0.1875 0.976573 0.0155355 0.11844
0.411108 0.1 -0.45 0.998071 0.013488 0.0822322
0.411108 0.1 0.45 0.997883 0.0135711 0.126306
0 0.1 -0.61799 0.994522 0 0.104528
0 0.1 0.61799 0.994522 0 0.104528
0.150379 0.1 -0.6 1.0043 0.0146728 0.0944701
0.150379 0.1 0.6 1.00431 0.0146906 0.114725
0.0363518 0.1 -0.61799 0.99729 0.00720343 0.101687
0.0363518 0.1 0.61799 0.997297 0.00720916 0.10742
0.467897 0.1 0.4125 0.992955 0.0138926 0.12791
0.467897 0.1 -0.4125 0.99326 0.013789 0.0802916
0.623803 0.1 1.04083e-17 0.967601 0.0165936 0.103178
0.623803 0.1 -0.075 0.967988 0.0165519 0.0963863
0.623803 0.1 0.075 0.967766 0.0165914 0.109977
0.574156 0.1 -0.2625 0.978441 0.0153067 0.0829756
0.574156 0.1 0.2625 0.977891 0.0154196 0.124146
0.623803 0.1 -0.15 0.968927 0.016459 0.0897104
0.623803 0.1 0.15 0.968488 0.0165413 0.116685
0.0757758 0.1 0.6375 1.00036 0.0151663 0.110554
0.0757758 0.1 -0.6375 1.00035 0.0151546 0.0986044
0.522864 0.1 -0.375 0.986785 0.0144346 0.078665
0.522864 0.1 0.375 0.986321 0.0145618 0.129064
0 0.1 0.65701 0.994522 0 0.104528
0 0.1 -0.65701 0.994522 0 0.104528
0.0363518 0.1 0.65701 0.997297 0.00720916 0.10742
0.0363518 0.1 -0.65701 0.99729 0.00720343 0.101687
0.350249 0.1 -0.5625 1.00353 0.0130279 0.0825996
0.350249 0.1 0.5625 1.00349 0.0130847 0.126302
0.623803 0.1 -0.225 0.970384 0.0163037 0.0832688
0.623803 0.1 0.225 0.969766 0.0164295 0.123208
0.287374 0.1 -0.6 1.00597 0.0135467 0.0858702
0.287374 0.1 0.6 1.00596 0.0135862 0.123199
0.574156 0.1 -0.3375 0.9802 0.0150971 0.0776953
0.574156 0.1 0.3375 0.979603 0.0152388 0.129539
0.411108 0.1 -0.525 0.999189 0.0132772 0.0794593
0.411108 0.1 0.525 0.999047 0.0133611 0.12916
0.67013 0.1 -0.0375 0.960152 0.0175381 0.0990867
0.67013 0.1 0.0375 0.960022 0.0175618 0.106649
0.219992 0.1 0.6375 1.0083 0.0141607 0.119526
0.219992 0.1 -0.6375 1.00829 0.0141432 0.0896816
0 0.1 -0.675 0.994522 0 0.104528
0 0.1 0.675 0.994522 0 0.104528
0.467897 0.1 -0.4875 0.994673 0.0135564 0.0768922
0.467897 0.1 0.4875 0.994422 0.013665 0.13142
0.67013 0.1 -0.1125 0.960925 0.0174555 0.0916
0.67013 0.1 0.1125 0.960529 0.017529 0.114162
0.522864 0.1 -0.45 0.988529 0.0141777 0.0745753
0.522864 0.1 0.45 0.988097 0.014321 0.133295
0.150379 0.1 0.675 1.00453 0.0146079 0.115505
0.150379 0.1 -0.675 1.00452 0.0145974 0.0936704
0.623803 0.1 0.3 0.971555 0.0162456 0.129434
0.623803 0.1 -0.3 0.972288 0.0160791 0.0771796
0 0.1 -0.69299 0.994522 0 0.104528
0 0.1 0.69299 0.994522 0 0.104528
0.0363518 0.1 0.69299 0.997316 0.00718293 0.107623
0.0363518 0.1 -0.69299 0.997308 0.00717983 0.101477
0.67013 0.1 0.1875 0.961679 0.0174311 0.121514
0.67013 0.1 -0.1875 0.962326 0.0173046 0.0843174
0.574156 0.1 -0.4125 0.98221 0.0148221 0.0728726
0.574156 0.1 0.4125 0.981615 0.0149935 0.13453
0.714971 0.1 -1.82146e-17 0.951467 0.018849 0.102497
0.0757758 0.1 0.7125 1.0004 0.0151127 0.110979
0.0757758 0.1 -0.7125 1.00038 0.0151064 0.0981674
0.714971 0.1 -0.075 0.951998 0.0187801 0.0941723
0.714971 0.1 0.075 0.951681 0.0188423 0.110841
0.67013 0.1 -0.2625 0.964286 0.0170747 0.0773715
0.67013 0.1 0.2625 0.963459 0.0172549 0.128594
0.411108 0.1 -0.6 1.00034 0.0130495 0.0770412
0.411108 0.1 0.6 1.00022 0.0131353 0.131658
0.350249 0.1 -0.6375 1.00434 0.0128356 0.0807029
0.350249 0.1 0.6375 1.00431 0.0128935 0.128239
0.623803 0.1 -0.375 0.974557 0.0157842 0.0715512
0.623803 0.1 0.375 0.973767 0.0159882 0.135247
0.714971 0.1 0.15 0.952638 0.0187578 0.119066
0.714971 0.1 -0.15 0.953266 0.0186304 0.0860139
0.467897 0.1 -0.5625 0.996145 0.0132992 0.0739027
0.467897 0.1 0.5625 0.99593 0.0134098 0.134524
0 0.1 -0.73201 0.994522 0 0.104528
0 0.1 0.73201 0.994522 0 0.104528
0.0363518 0.1 -0.73201 0.997308 0.00717983 0.101477
0.0363518 0.1 0.73201 0.997316 0.00718293 0.107623
0.287374 0.1 0.675 1.00657 0.0134335 0.124644
0.287374 0.1 -0.675 1.00658 0.0133983 0.0844329
0.522864 0.1 -0.525 0.990384 0.0138837 0.0709471
0.522864 0.1 0.525 0.989987 0.0140348 0.137078
0.219992 0.1 0.7125 1.0087 0.0140495 0.12053
0.219992 0.1 -0.7125 1.00869 0.0140431 0.0886551
0.714971 0.1 0.225 0.954328 0.0185869 0.12704
0.714971 0.1 -0.225 0.955224 0.0183916 0.07817
0 0.1 0.75 0.994522 0 0.104528
0 0.1 -0.75 0.994522 0 0.104528
0.67013 0.1 -0.3375 0.966733 0.016767 0.0709011
0.67013 0.1 0.3375 0.965785 0.0169949 0.135272
0.574156 0.1 0.4875 0.983831 0.0146855 0.13904
0.574156 0.1 -0.4875 0.984398 0.0144989 0.0685531
0.756814 0.1 -0.0375 0.943224 0.020081 0.097562
0.756814 0.1 0.0375 0.943041 0.0201181 0.106714
0.150379 0.1 0.746002 1.00467 0.01454 0.116044
0.150379 0.1 -0.75 1.00474 0.0145239 0.0929955
0.756814 0.1 -0.1125 0.944256 0.0199501 0.0885169
0.756814 0.1 0.1125 0.943701 0.0200634 0.11581
0 0.1 0.76799 0.994522 0 0.104528
0 0.1 -0.76799 0.994522 0 0.104528
0.0363518 0.1 0.76799 0.997331 0.00716047 0.107791
0.0363518 0.1 -0.76799 0.997321 0.00715987 0.101304
0.623803 0.1 -0.45 0.977102 0.0154261 0.0664702
0.623803 0.1 0.45 0.976301 0.0156608 0.140554
0.714971 0.1 0.3 0.956699 0.0183221 0.134629
0.714971 0.1 -0.3 0.957794 0.0180617 0.0707955
0.756814 0.1 -0.1875 0.94611 0.019718 0.0797488
0.756814 0.1 0.1875 0.945202 0.0199122 0.124697
0.67013 0.1 -0.4125 0.969567 0.0163836 0.0650022
0.67013 0.1 0.4125 0.968559 0.0166549 0.141418
0.411108 0.1 -0.675 1.00153 0.0128093 0.0749844
0.411108 0.1 0.675 1.00142 0.0128963 0.133792
0.467897 0.1 -0.6375 0.997667 0.013023 0.0713369
0.467897 0.1 0.6375 0.997466 0.0131385 0.137205
0.0757758 0.1 -0.7875 1.00041 0.0150658 0.097806
0.0757758 0.1 0.7875 1.00043 0.015067 0.111329
0.350249 0.1 0.7125 1.00514 0.0126914 0.12988
0.350249 0.1 -0.7125 1.00517 0.0126347 0.0791015
0.522864 0.1 -0.6 0.992322 0.0135633 0.0678081
0.522864 0.1 0.6 0.991946 0.0137205 0.140378
0.797314 0.1 -2.86229e-17 0.93391 0.0217658 0.101728
0.287374 0.1 0.746002 1.0072 0.0132939 0.125714
0.797314 0.1 -0.075 0.934611 0.0216611 0.0917926
0.797314 0.1 0.075 0.934174 0.0217555 0.111696
0.756814 0.1 0.2625 0.947517 0.0196563 0.133224
0.756814 0.1 -0.2625 0.948711 0.0193791 0.0714178
0.287374 0.1 -0.75 1.0072 0.0132454 0.0832311
0.574156 0.1 -0.5625 0.986715 0.0141397 0.0647822
0.574156 0.1 0.5625 0.986172 0.0143349 0.143013
0 0.1 0.80701 0.994522 0 0.104528
0 0.1 -0.80701 0.994522 0 0.104528
0.714971 0.1 -0.375 0.960878 0.017646 0.0640103
0.714971 0.1 0.375 0.959653 0.0179638 0.141687
0.0363518 0.1 -0.80701 0.997321 0.00715987 0.101304
0.0363518 0.1 0.80701 0.997331 0.00716047 0.107791
0.797314 0.1 -0.15 0.936264 0.0214369 0.0820758
0.797314 0.1 0.15 0.935398 0.0216294 0.121516
0.623803 0.1 -0.525 0.979848 0.0150195 0.0619939
0.623803 0.1 0.525 0.979055 0.0152745 0.145281
0.219992 0.1 0.7875 1.00911 0.0139381 0.121367
0.219992 0.1 -0.7875 1.0091 0.0139407 0.0878055
0.149792 0.1 0.80701 1.00492 0.0144688 0.116576
0 0.1 0.825 0.994522 0 0.104528
0 0.1 -0.825 0.994522 0 0.104528
0.797314 0.1 -0.225 0.938811 0.0210893 0.0727646
0.797314 0.1 0.225 0.937561 0.0213828 0.131017
0.756814 0.1 -0.3375 0.951958 0.0189401 0.063711
0.756814 0.1 0.3375 0.950562 0.0192927 0.14125
0.67013 0.1 -0.4875 0.972683 0.015937 0.0597561
0.67013 0.1 0.4875 0.971663 0.0162425 0.146957
0.835107 0.1 -0.0375 0.925089 0.0233471 0.0959213
0.835107 0.1 0.0375 0.924838 0.0234035 0.10674
0.150379 0.1 -0.825 1.00496 0.0144527 0.0924482
0.835107 0.1 -0.1125 0.926424 0.0231539 0.0852443
0.835107 0.1 0.1125 0.925668 0.0233236 0.117494
0 0.1 0.84299 0.994522 0 0.104528
0 0.1 -0.84299 0.994522 0 0.104528
0.0363518 0.1 0.84299 0.997342 0.00714137 0.107923
0.0363518 0.1 -0.84299 0.99733 0.00714283 0.101167
0.714971 0.1 -0.45 0.964362 0.0171534 0.0579136
0.714971 0.1 0.45 0.963066 0.01752 0.148106
0.411108 0.1 0.746002 1.00262 0.0126565 0.135396
0.797314 0.1 -0.3 0.942155 0.0206208 0.0640408
0.797314 0.1 0.3 0.940603 0.0210131 0.140033
0.467897 0.1 -0.7125 0.999222 0.0127353 0.0691992
0.467897 0.1 0.7125 0.999027 0.0128506 0.139457
0.522864 0.1 0.675 0.993947 0.013387 0.143179
0.522864 0.1 -0.675 0.994314 0.0132249 0.0651699
0.411108 0.1 -0.75 1.00274 0.0125622 0.0732894
0.835107 0.1 -0.1875 0.928802 0.0228163 0.0749159
0.835107 0.1 0.1875 0.927566 0.0231064 0.127987
0.286844 0.1 0.80701 1.00768 0.0131525 0.126618
0.574156 0.1 0.6375 0.988588 0.0139588 0.146422
0.574156 0.1 -0.6375 0.989119 0.0137551 0.0615802
0.350249 0.1 -0.7875 1.00601 0.0124311 0.0777945
0.350249 0.1 0.7875 1.00599 0.0124813 0.131223
0.756814 0.1 0.4125 0.954203 0.0188269 0.148589
0.756814 0.1 -0.4125 0.955734 0.0184123 0.056686
0.623803 0.1 -0.6 0.982734 0.014579 0.0581585
0.623803 0.1 0.6 0.981947 0.0148471 0.149381
0.0757758 0.1 0.8625 1.00045 0.0150281 0.111604
0.0757758 0.1 -0.8625 1.00043 0.0150311 0.0975205
0.871687 0.1 -1.73472e-17 0.915406 0.0253292 0.100887
0.287374 0.1 -0.825 1.00783 0.0130907 0.0822656
0.871687 0.1 -0.075 0.916297 0.0251765 0.089275
0.871687 0.1 0.075 0.915722 0.025317 0.112546
0.67013 0.1 -0.5625 0.976008 0.0154447 0.0552182
0.67013 0.1 0.5625 0.974983 0.0157723 0.151811
0.835107 0.1 0.2625 0.93049 0.0227472 0.138037
0.835107 0.1 -0.2625 0.93214 0.0223382 0.0651443
0.797314 0.1 -0.375 0.946172 0.0200438 0.0560575
0.797314 0.1 0.375 0.944403 0.0205231 0.148397
0 0.1 0.88201 0.994522 0 0.104528
0 0.1 -0.88201 0.994522 0 0.104528
0.0363518 0.1 0.88201 0.997342 0.00714137 0.107923
0.0363518 0.1 -0.88201 0.99733 0.00714283 0.101167
0.871687 0.1 0.15 0.917232 0.0251405 0.124026
0.871687 0.1 -0.15 0.918371 0.0248566 0.0779367
0.714971 0.1 -0.525 0.968143 0.0166003 0.0525899
0.714971 0.1 0.525 0.966814 0.0170033 0.153802
0.219992 0.1 0.8625 1.00952 0.013828 0.12203
0.219992 0.1 -0.8625 1.00949 0.0138366 0.0871329
0 0.1 0.9 0.994522 0 0.104528
0 0.1 -0.9 0.994522 0 0.104528
0.756814 0.1 -0.4875 0.959913 0.0178051 0.0505038
0.756814 0.1 0.4875 0.958306 0.0182745 0.155202
0.871687 0.1 -0.225 0.92156 0.0243705 0.0671006
0.871687 0.1 0.225 0.919906 0.0247992 0.135118
0.835107 0.1 -0.3375 0.936302 0.0217253 0.0561008
0.835107 0.1 0.3375 0.93435 0.022251 0.147455
0.410629 0.1 0.80701 1.00355 0.0124517 0.136666
0.905821 0.1 -0.0375 0.906267 0.0271805 0.0941846
0.905821 0.1 0.0375 0.905946 0.0272643 0.106728
0.522864 0.1 0.746002 0.995941 0.0130489 0.145288
0.150379 0.1 0.9 1.00519 0.0143753 0.117113
0.905821 0.1 0.1125 0.906948 0.0271553 0.119199
0.905821 0.1 -0.1125 0.907917 0.0269048 0.08182
0.522864 0.1 -0.75 0.996326 0.0128767 0.0630321
0.574156 0.1 -0.7125 0.99157 0.0133544 0.0589553
0.574156 0.1 0.7125 0.991045 0.0135645 0.149259
0.797314 0.1 -0.45 0.950731 0.0193741 0.048936
0.797314 0.1 0.45 0.94881 0.0199246 0.155966
0.467897 0.1 0.7875 1.00059 0.0125516 0.141278
0.467897 0.1 -0.7875 1.00078 0.0124427 0.0674848
0.150379 0.1 -0.903998 1.00525 0.0143774 0.091944
0 0.1 0.91799 0.994522 0 0.104528
0 0.1 -0.91799 0.994522 0 0.104528
0.0363518 0.1 0.91799 0.997348 0.00712437 0.10802
0.0363518 0.1 -0.91799 0.997336 0.00712794 0.101065
0.623803 0.1 -0.675 0.985701 0.0141162 0.0549789
0.623803 0.1 0.675 0.98492 0.0143931 0.152831
0.411108 0.1 -0.825 1.00393 0.0123126 0.0719525
0.871687 0.1 -0.3 0.925749 0.0237251 0.0569749
0.871687 0.1 0.3 0.923668 0.0242964 0.145616
0.67013 0.1 0.6375 0.97844 0.0152643 0.155943
0.67013 0.1 -0.6375 0.979467 0.0149236 0.0514122
0.905821 0.1 -0.1875 0.910841 0.026435 0.0698817
0.905821 0.1 0.1875 0.909254 0.026857 0.131355
0.350249 0.1 0.8625 1.00682 0.0122709 0.132277
0.350249 0.1 -0.8625 1.00684 0.0122267 0.0767794
0.835107 0.1 -0.4125 0.941155 0.0210026 0.04798
0.835107 0.1 0.4125 0.938975 0.0216213 0.156086
0.714971 0.1 -0.6 0.972129 0.0160067 0.0480775
0.714971 0.1 0.6 0.970779 0.0164315 0.158705
0.93886 0.1 -1.25767e-17 0.896289 0.029808 0.0999916
0.0757758 0.1 0.9375 1.00047 0.0149934 0.111805
0.0757758 0.1 -0.9375 1.00044 0.0150008 0.0973081
0.93886 0.1 -0.075 0.897387 0.0295912 0.0866097
0.93886 0.1 0.075 0.896657 0.0297958 0.113435
0.756814 0.1 -0.5625 0.964381 0.0171445 0.0452035
0.756814 0.1 0.5625 0.962734 0.0176482 0.160948
0.905821 0.1 -0.2625 0.91494 0.0257804 0.0586184
0.905821 0.1 0.2625 0.912806 0.0263697 0.142979
0.287374 0.1 0.9 1.00844 0.0129513 0.127584
0.287374 0.1 -0.903998 1.00835 0.0129338 0.0814752
0.871687 0.1 -0.375 0.930794 0.0229407 0.047764
0.871687 0.1 0.375 0.928383 0.023639 0.155334
0.93886 0.1 -0.15 0.899921 0.0291461 0.0735633
0.93886 0.1 0.15 0.898473 0.0295568 0.126665
0.797314 0.1 -0.525 0.955692 0.0186309 0.0427658
0.797314 0.1 0.525 0.953676 0.0192354 0.162637
0 0.1 0.95701 0.994522 0 0.104528
0 0.1 -0.95701 0.994522 0 0.104528
0.0363518 0.1 0.95701 0.997348 0.00712437 0.10802
0.0363518 0.1 -0.95701 0.997336 0.00712794 0.101065
0.522432 0.1 0.80701 0.997507 0.0127679 0.146898
0.219992 0.1 0.9375 1.00991 0.013719 0.122522
0.219992 0.1 -0.9375 1.00987 0.0137334 0.0866324
0.93886 0.1 -0.225 0.903808 0.0284792 0.061123
0.93886 0.1 0.225 0.901696 0.0290952 0.13943
0.905821 0.1 -0.3375 0.920074 0.0249499 0.0482328
0.905821 0.1 0.3375 0.917499 0.0257052 0.153838
0.835107 0.1 0.4875 0.944202 0.0208805 0.163742
0.835107 0.1 -0.4875 0.946548 0.0201882 0.0408532
0.96969 0.1 -0.0375 0.88691 0.0322621 0.0923395
0.96969 0.1 0.0375 0.886504 0.0323827 0.106736
0.61613 0.1 0.75 0.98792 0.0139208 0.155628
0.574156 0.1 0.7875 0.993505 0.0131554 0.151524
0.574156 0.1 -0.7875 0.994017 0.0129474 0.0568973
0 0.1 0.975 0.994522 0 0.104528
0 0.1 -0.975 0.994522 0 0.104528
0.623803 0.1 -0.75 0.988691 0.0136421 0.0524529
0.96969 0.1 -0.1125 0.888918 0.0318772 0.078161
0.96969 0.1 0.1125 0.887697 0.0322385 0.121052
0.522864 0.1 -0.825 0.998319 0.0125251 0.0613855
0.67013 0.1 -0.7125 0.982985 0.0143842 0.048346
0.67013 0.1 0.7125 0.981961 0.0147321 0.159342
0.871687 0.1 -0.45 0.936523 0.022045 0.0396077
0.871687 0.1 0.45 0.933874 0.0228422 0.164086
0.467897 0.1 -0.8625 1.00232 0.0121488 0.0661879
0.467897 0.1 0.8625 1.00214 0.012253 0.142684
0.714971 0.1 -0.675 0.976226 0.0153887 0.0443949
0.714971 0.1 0.675 0.974867 0.0158247 0.16279
0.93886 0.1 -0.3 0.908921 0.0276045 0.0495349
0.93886 0.1 0.3 0.906235 0.0284195 0.151483
0.150379 0.1 0.975 1.00539 0.0143045 0.117402
0.150379 0.1 -0.975 1.00536 0.0143159 0.0917274
0.96969 0.1 -0.1875 0.892462 0.0312306 0.0645002
0.96969 0.1 0.1875 0.890455 0.0318361 0.134988
0.411108 0.1 0.9 1.00502 0.0121351 0.138035
0.756814 0.1 -0.6375 0.969032 0.0164503 0.0408208
0.756814 0.1 0.6375 0.967354 0.0169711 0.165799
0.990306 0.1 0 0.881163 0.0337642 0.0992566
0 0.1 0.99299 0.994522 0 0.104528
0 0.1 -0.99299 0.994522 0 0.104528
0.411108 0.1 -0.903998 1.00495 0.0120872 0.0709237
0.990306 0.1 -0.075 0.882429 0.0334922 0.0844918
0.990306 0.1 0.075 0.881574 0.0337543 0.114093
0.0363518 0.1 0.99299 0.997352 0.00711005 0.108082
0.0363518 0.1 -0.99299 0.997339 0.00711462 0.100997
0.905821 0.1 -0.4125 0.926076 0.0239851 0.038973
0.905821 0.1 0.4125 0.923154 0.0248716 0.163763
0.797314 0.1 -0.6 0.960923 0.0178399 0.0375962
0.797314 0.1 0.6 0.958847 0.0184759 0.168341
0.350249 0.1 0.9375 1.00764 0.0120618 0.133049
0.350249 0.1 -0.9375 1.00764 0.0120266 0.0760418
0.990306 0.1 -0.15 0.88534 0.0329398 0.0701084
0.990306 0.1 0.15 0.883641 0.0334659 0.128692
0.96969 0.1 -0.2625 0.897426 0.0303393 0.0516418
0.96969 0.1 0.2625 0.894714 0.031181 0.148289
0.835107 0.1 -0.5625 0.952314 0.0193047 0.0348076
0.835107 0.1 0.5625 0.949872 0.0200497 0.170383
0.93886 0.1 -0.375 0.915085 0.026554 0.0390332
0.93886 0.1 0.375 0.911938 0.0275443 0.162606
0.0757758 0.1 1.0125 1.00048 0.0149643 0.111935
0.0757758 0.1 -1.0125 1.00045 0.0149737 0.097167
0.990306 0.1 -0.225 0.889799 0.0321179 0.0564082
0.990306 0.1 0.225 0.887313 0.0329055 0.142767
0.287374 0.1 -0.975 1.00901 0.0127816 0.0810185
0.287374 0.1 0.975 1.00903 0.0127931 0.12811
0.871687 0.1 -0.525 0.942751 0.0210608 0.0325904
0.871687 0.1 0.525 0.939946 0.0219323 0.17174
1.02149 0.1 -0.0369628 0.870135 0.0368509 0.0908112
1.02149 0.1 0.0369628 0.869667 0.0370035 0.106492
0.96969 0.1 0.3375 0.900347 0.0302902 0.160678
0.96969 0.1 -0.3375 0.903655 0.0292237 0.0398336
1.02149 0.1 -0.110888 0.872393 0.0363849 0.0753679
1.02149 0.1 0.110888 0.870987 0.0368435 0.122091
0.905821 0.1 -0.4875 0.932711 0.0229116 0.0308841
0.905821 0.1 0.4875 0.92958 0.0238949 0.172526
0.623803 0.1 0.819003 0.990006 0.0135717 0.158145
0 0.1 1.03201 0.994522 0 0.104528
0 0.1 -1.03201 0.994522 0 0.104528
0.0363518 0.1 1.03201 0.997352 0.00711005 0.108082
0.0363518 0.1 -1.03201 0.997339 0.00711462 0.100997
0.67013 0.1 -0.7875 0.986489 0.0138405 0.0460041
0.67013 0.1 0.7875 0.985483 0.0141839 0.162012
0.623803 0.1 -0.825 0.991642 0.0131655 0.0505633
0.990306 0.1 0.3 0.892489 0.0320847 0.156043
0.990306 0.1 -0.3 0.895666 0.031047 0.0436686
0.219992 0.1 1.0125 1.01027 0.0136121 0.122847
0.219992 0.1 -1.0125 1.01023 0.0136261 0.086301
0.574156 0.1 0.8625 0.995926 0.0127431 0.153236
0.574156 0.1 -0.8625 0.996412 0.012539 0.055391
0.714971 0.1 -0.75 0.980345 0.0147605 0.0415349
0.714971 0.1 0.75 0.978993 0.0151977 0.166054
1.02149 0.1 -0.184814 0.876371 0.0356108 0.0604824
1.02149 0.1 0.184814 0.874055 0.0363787 0.137287
0.756814 0.1 -0.7125 0.973754 0.0157393 0.0373615
0.756814 0.1 0.7125 0.972068 0.0162675 0.169737
0.522864 0.1 0.9 0.999938 0.0123259 0.148612
0.93886 0.1 -0.45 0.92208 0.0253652 0.0297546
0.93886 0.1 0.45 0.9186 0.0264916 0.172589
1.04168 0.1 0 0.862925 0.0390522 0.0983392
1.04168 0.1 -0.0729162 0.864323 0.0387212 0.082312
1.04168 0.1 0.0729162 0.863353 0.039052 0.114446
0.522864 0.1 -0.903998 1.00002 0.0122134 0.0601822
0.797314 0.1 -0.675 0.966296 0.017023 0.0334478
0.797314 0.1 0.675 0.964187 0.0176729 0.173043
0.467897 0.1 0.9375 1.00365 0.0119548 0.143689
0.467897 0.1 -0.9375 1.0038 0.0118587 0.0652826
0 0.1 1.05 0.994522 0 0.104528
0 0.1 -1.05 0.994522 0 0.104528
0.835107 0.1 -0.6375 0.958313 0.0183863 0.0298775
0.835107 0.1 0.6375 0.955802 0.019153 0.175935
1.04168 0.1 -0.145832 0.867515 0.0380616 0.0666883
1.04168 0.1 0.145832 0.865586 0.0387256 0.130307
1.02149 0.1 -0.25874 0.881943 0.0345481 0.0464594
1.02149 0.1 0.25874 0.878797 0.0356158 0.151804
0.96969 0.1 -0.4125 0.910917 0.0279403 0.0293134
0.96969 0.1 0.4125 0.907154 0.0291847 0.171962
0.411108 0.1 0.975 1.00615 0.0118835 0.138763
0.411108 0.1 -0.975 1.00622 0.0118163 0.0702981
0.871687 0.1 -0.6 0.949318 0.0200215 0.0267823
0.871687 0.1 0.6 0.946397 0.0209364 0.178237
1.0579 0.1 -0.0360525 0.857717 0.0406842 0.0896912
1.0579 0.1 0.0360525 0.857201 0.0408629 0.106178
0.990306 0.1 -0.375 0.902739 0.0297667 0.0321374
0.990306 0.1 0.375 0.898999 0.0310241 0.168273
0.150379 0.1 1.05 1.00557 0.0142371 0.117576
0.150379 0.1 -1.05 1.00554 0.0142496 0.0915456
1.0579 0.1 -0.108157 0.860079 0.0401606 0.0734514
1.0579 0.1 0.108157 0.858532 0.0406975 0.122587
1.04168 0.1 -0.218749 0.872405 0.0370857 0.051785
1.04168 0.1 0.218749 0.869567 0.0380805 0.14562
0.905821 0.1 -0.5625 0.939794 0.021754 0.0240998
0.905821 0.1 0.5625 0.936513 0.0228107 0.180054
0 0.1 1.06799 0.994522 0 0.104528
0 0.1 -1.06799 0.994522 0 0.104528
0.0363518 0.1 -1.06799 0.997341 0.00710347 0.100962
0.0363518 0.1 1.06799 0.997353 0.00709811 0.108112
0.350249 0.1 1.0125 1.00841 0.0118585 0.133551
0.350249 0.1 -1.0125 1.0084 0.0118215 0.07557
1.0579 0.1 -0.180262 0.864221 0.0392988 0.0577842
1.0579 0.1 0.180262 0.861667 0.0401972 0.138587
1.02149 0.1 0.332665 0.885074 0.0345715 0.165347
1.02149 0.1 -0.332665 0.888945 0.0332244 0.0335771
0.93886 0.1 -0.525 0.929689 0.0240654 0.0218459
0.93886 0.1 0.525 0.925973 0.0252958 0.181308
1.08012 0.1 4.48137e-18 0.849435 0.0434864 0.0975666
1.04168 0.1 -0.291665 0.878851 0.0358175 0.0379009
1.04168 0.1 0.291665 0.875193 0.0371271 0.160094
1.08012 0.1 -0.0709942 0.850909 0.0431109 0.0806881
1.08012 0.1 0.0709942 0.849847 0.0434985 0.114531
0.96969 0.1 -0.4875 0.918966 0.0265153 0.0200969
0.96969 0.1 0.4875 0.914886 0.0278972 0.181891
1.0579 0.1 -0.252367 0.870022 0.0381172 0.0430023
1.0579 0.1 0.252367 0.866537 0.0393682 0.153897
0.990306 0.1 -0.45 0.910776 0.0283216 0.021975
0.990306 0.1 0.45 0.906607 0.0297525 0.179231
0.287374 0.1 1.05 1.00959 0.0126371 0.128425
0.287374 0.1 -1.05 1.00956 0.0126264 0.0807155
0.714971 0.1 0.821002 0.982721 0.0146207 0.168481
1.08012 0.1 0.141988 0.852121 0.043153 0.131249
1.08012 0.1 -0.141988 0.854235 0.0423755 0.0642225
0.0757758 0.1 -1.0875 1.00046 0.014951 0.0970946
0.0757758 0.1 1.0875 1.00048 0.01494 0.111997
0.714971 0.1 -0.825 0.984399 0.0141336 0.03947
0.756814 0.1 -0.7875 0.978445 0.0150265 0.0347994
0.756814 0.1 0.7875 0.976775 0.0155495 0.172771
0.67013 0.1 -0.8625 0.98991 0.0132983 0.0443599
0.67013 0.1 0.8625 0.988941 0.013636 0.16398
0.797314 0.1 -0.75 0.971682 0.0162006 0.030307
0.797314 0.1 0.75 0.969576 0.0168485 0.176741
0.623803 0.1 0.9 0.993792 0.0129596 0.159329
0.835107 0.1 -0.7125 0.964393 0.0174496 0.0260699
0.835107 0.1 0.7125 0.961858 0.0182255 0.180384
0.623803 0.1 -0.903998 0.994167 0.0127479 0.0492529
0.574156 0.1 0.9375 0.998266 0.0123311 0.154421
0.574156 0.1 -0.9375 0.998719 0.012139 0.0543981
1.02149 0.1 -0.406591 0.897117 0.031691 0.0220624
1.02149 0.1 0.406591 0.892681 0.0332749 0.177688
1.08012 0.1 -0.212982 0.859324 0.0412916 0.0484917
1.08012 0.1 0.212982 0.856204 0.042458 0.147414
1.10076 0.1 -0.034981 0.84188 0.0460824 0.0884846
1.10076 0.1 0.034981 0.841337 0.0462902 0.10597
0.871687 0.1 -0.675 0.956058 0.0189605 0.0222045
0.871687 0.1 0.675 0.953066 0.0198881 0.183536
1.04168 0.1 -0.364581 0.886647 0.0342958 0.0252935
1.04168 0.1 0.364581 0.882298 0.0358892 0.173461
1.10076 0.1 0.104943 0.842714 0.046117 0.123378
1.10076 0.1 -0.104943 0.844343 0.045494 0.0712498
0.522864 0.1 0.975 1.00182 0.0119742 0.14949