# p  POINT_DATA 90431
# x  y  z  p
4 0 0 -0.229836
4 0.00256965 0 -0.229878
4 0.00518642 0 -0.229967
4 0.00785119 0 -0.230075
4 0.00128135 -0.00996393 -0.223878
4 0.00128135 0.00996393 -0.236113
4 0.0105648 0 -0.230229
4 0.00386754 -0.00996393 -0.223971
4 0.00386754 0.00996393 -0.236203
4 0.00650117 -0.00996393 -0.224078
4 0.00650117 0.00996393 -0.236271
4 0.0133283 0 -0.230431
4 0.00918311 -0.00996393 -0.224215
4 0.00918311 0.00996393 -0.236392
4 0.0119142 -0.00996393 -0.2244
4 0.0119142 0.00996393 -0.236565
4 0.0161424 0 -0.230676
4 0.0146954 -0.00996393 -0.224641
4 0.0146954 0.00996393 -0.236776
4 0.0190081 0 -0.230961
4 0 -0.02 -0.218595
4 0 0.02 -0.24397
4 0.0175277 -0.00996393 -0.224942
4 0.0175277 0.00996393 -0.237004
4 0.00256965 -0.02 -0.218638
4 0.00256965 0.02 -0.244009
4 0.00518642 -0.02 -0.218732
4 0.00518642 0.02 -0.244121
4 0.00785119 -0.02 -0.218835
4 0.00785119 0.02 -0.244313
4 0.0219263 0 -0.231294
4 0.0105648 -0.02 -0.218963
4 0.0105648 0.02 -0.24461
4 0.0204118 -0.00996393 -0.225304
4 0.0204118 0.00996393 -0.237255
4 0.0133283 -0.02 -0.219136
4 0.0133283 0.02 -0.244988
4 0.0248981 0 -0.23169
4 0.0233489 -0.00996393 -0.225759
4 0.0233489 0.00996393 -0.237525
4 0.0161424 -0.02 -0.219364
4 0.0161424 0.02 -0.245408
4 0.0190081 -0.02 -0.21966
4 0.0190081 0.02 -0.245844
4 0.0279244 0 -0.232153
4 0.0263398 -0.00996393 -0.226316
4 0.0263398 0.00996393 -0.237833
4 0.0219263 -0.02 -0.220043
4 0.0219263 0.02 -0.246287
4 0.00128135 -0.0298918 -0.213554
4 0.00128135 0.0298918 -0.252171
4 0.00386754 -0.0298918 -0.213646
4 0.00386754 0.0298918 -0.252254
4 0.00650117 -0.0298918 -0.213731
4 0.00650117 0.0298918 -0.252461
4 0.0310063 0 -0.232662
4 0.0293856 -0.00996393 -0.226962
4 0.0293856 0.00996393 -0.238176
4 0.00918311 -0.0298918 -0.213812
4 0.00918311 0.0298918 -0.252835
4 0.0248981 -0.02 -0.220527
4 0.0248981 0.02 -0.246742
4 0.0119142 -0.0298918 -0.213922
4 0.0119142 0.0298918 -0.253357
4 0.0146954 -0.0298918 -0.214077
4 0.0146954 0.0298918 -0.253964
4 0.0324873 -0.00996393 -0.227664
4 0.0324873 0.00996393 -0.238523
4 0.0341446 0 -0.233182
4 0.0279244 -0.02 -0.22111
4 0.0279244 0.02 -0.247208
4 0.0175277 -0.0298918 -0.214296
4 0.0175277 0.0298918 -0.2546
4 0.0204118 -0.0298918 -0.214603
4 0.0204118 0.0298918 -0.255233
4 0.0310063 -0.02 -0.221778
4 0.0310063 0.02 -0.247662
4 0.0356458 -0.00996393 -0.228394
4 0.0356458 0.00996393 -0.238819
4 0.0373405 0 -0.233672
4 0.0233489 -0.0298918 -0.215016
4 0.0233489 0.0298918 -0.255859
4 0.0341446 -0.02 -0.222514
4 0.0341446 0.02 -0.248051
4 0.0263398 -0.0298918 -0.215535
4 0.0263398 0.0298918 -0.256479
4 0 0.04 -0.26131
4 0 -0.04 -0.210981
4 0.00256965 0.04 -0.261337
4 0.00256965 -0.04 -0.211023
4 0.0388623 -0.00996393 -0.229128
4 0.0388623 0.00996393 -0.239013
4 0.00518642 0.04 -0.261541
4 0.00518642 -0.04 -0.211099
4 0.040595 0 -0.234102
4 0.00785119 -0.04 -0.21116
4 0.00785119 0.04 -0.262012
4 0.0105648 -0.04 -0.21123
4 0.0105648 0.04 -0.262726
4 0.0293856 -0.0298918 -0.216153
4 0.0293856 0.0298918 -0.257078
4 0.0133283 -0.04 -0.211338
4 0.0133283 0.04 -0.263638
4 0.0373405 -0.02 -0.223306
4 0.0373405 0.02 -0.248314
4 0.0161424 -0.04 -0.211506
4 0.0161424 0.04 -0.264665
4 0.0421378 -0.00996393 -0.229851
4 0.0421378 0.00996393 -0.23907
4 0.0439092 0 -0.234447
4 0.0324873 -0.0298918 -0.216863
4 0.0324873 0.0298918 -0.257601
4 0.0190081 0.04 -0.265731
4 0.0190081 -0.04 -0.211755
4 0.040595 -0.02 -0.224142
4 0.040595 0.02 -0.248387
4 0.0219263 0.04 -0.266799
4 0.0219263 -0.04 -0.212107
4 0.0356458 -0.0298918 -0.217667
4 0.0356458 0.0298918 -0.257986
4 0.0454733 0.00996393 -0.23896
4 0.0454733 -0.00996393 -0.230551
4 0.0248981 0.04 -0.267847
4 0.0248981 -0.04 -0.212581
4 0.0472842 0 -0.234692
4 0.0439092 -0.02 -0.225007
4 0.0439092 0.02 -0.248207
4 0.0279244 0.04 -0.268845
4 0.0279244 -0.04 -0.213177
4 0.0388623 -0.0298918 -0.218566
4 0.0388623 0.0298918 -0.258154
4 0.00128135 0.0498197 -0.270675
4 0.00128135 -0.0498197 -0.20859
4 0.0488701 -0.00996393 -0.231196
4 0.0488701 0.00996393 -0.238685
4 0.00386754 0.0498197 -0.270715
4 0.00386754 -0.0498197 -0.20867
4 0.00650117 -0.0498197 -0.208717
4 0.00650117 0.0498197 -0.271201
4 0.0310063 0.04 -0.26973
4 0.0310063 -0.04 -0.213892
4 0.00918311 -0.0498197 -0.208749
4 0.00918311 0.0498197 -0.272014
4 0.0507211 0 -0.234808
4 0.0119142 0.0498197 -0.273154
4 0.0119142 -0.0498197 -0.208808
4 0.0472842 -0.02 -0.22588
4 0.0472842 0.02 -0.247732
4 0.0421378 -0.0298918 -0.219546
4 0.0421378 0.0298918 -0.258016
4 0.0146954 -0.0498197 -0.208922
4 0.0146954 0.0498197 -0.274527
4 0.0341446 0.04 -0.270419
4 0.0341446 -0.04 -0.214726
4 0.0175277 -0.0498197 -0.209111
4 0.0175277 0.0498197 -0.276012
4 0.0523291 -0.00996393 -0.231723
4 0.0523291 0.00996393 -0.23823
4 0.0204118 0.0498197 -0.277524
4 0.0204118 -0.0498197 -0.209398
4 0.054221 0 -0.234764
4 0.0454733 -0.0298918 -0.220595
4 0.0454733 0.0298918 -0.257473
4 0.0507211 -0.02 -0.226726
4 0.0507211 0.02 -0.246949
4 0.0373405 0.04 -0.270817
4 0.0373405 -0.04 -0.215684
4 0.0233489 0.0498197 -0.279026
4 0.0233489 -0.0498197 -0.209812
4 0.0263398 0.0498197 -0.280475
4 0.0263398 -0.0498197 -0.210372
4 0.0558515 -0.00996393 -0.232078
4 0.0558515 0.00996393 -0.237597
4 0.040595 0.04 -0.270819
4 0.040595 -0.04 -0.216764
4 0.0488701 0.0298918 -0.256482
4 0.0488701 -0.0298918 -0.221681
4 0.0577851 0 -0.234556
4 0.054221 -0.02 -0.227509
4 0.054221 0.02 -0.245878
4 0.0293856 0.0498197 -0.281799
4 0.0293856 -0.0498197 -0.211073
4 0.0439092 0.04 -0.27031
4 0.0439092 -0.04 -0.21796
4 0.0324873 0.0498197 -0.282895
4 0.0324873 -0.0498197 -0.211914
4 0 0.06 -0.275796
4 0 -0.06 -0.208357
4 0.00256965 0.06 -0.275795
4 0.00256965 -0.06 -0.20838
4 0.00518642 0.06 -0.27602
4 0.00518642 -0.06 -0.208414
4 0.0523291 -0.0298918 -0.222788
4 0.0523291 0.0298918 -0.255054
4 0.0594386 -0.00996393 -0.232263
4 0.0594386 0.00996393 -0.23682
4 0.00785119 0.06 -0.276614
4 0.00785119 -0.06 -0.208426
4 0.0105648 0.06 -0.277499
4 0.0105648 -0.06 -0.208452
4 0.0577851 -0.02 -0.228205
4 0.0577851 0.02 -0.244579
4 0.0356458 0.0498197 -0.283647
4 0.0356458 -0.0498197 -0.212905
4 0.0614146 0 -0.2342
4 0.0133283 0.06 -0.278645
4 0.0133283 -0.06 -0.208533
4 0.0472842 0.04 -0.269213
4 0.0472842 -0.04 -0.219257
4 0.0161424 0.06 -0.279961
4 0.0161424 -0.06 -0.208703
4 0.0190081 0.06 -0.281352
4 0.0190081 -0.06 -0.208989
4 0.0388623 0.0498197 -0.283933
4 0.0388623 -0.0498197 -0.214052
4 0.0558515 -0.0298918 -0.223903
4 0.0558515 0.0298918 -0.25326
4 0.0630915 -0.00996393 -0.232276
4 0.0630915 0.00996393 -0.235933
4 0.0219263 0.06 -0.282754
4 0.0219263 -0.06 -0.209412
4 0.0614146 -0.02 -0.228804
4 0.0614146 0.02 -0.243148
4 0.0507211 0.04 -0.267537
4 0.0507211 -0.04 -0.220644
4 0.0248981 0.06 -0.284124
4 0.0248981 -0.06 -0.20999
4 0.0651106 0 -0.233727
4 0.0421378 0.0498197 -0.28362
4 0.0421378 -0.0498197 -0.215356
4 0.0279244 0.06 -0.285412
4 0.0279244 -0.06 -0.210733
4 0.0594386 -0.0298918 -0.224997
4 0.0594386 0.0298918 -0.251238
4 0.054221 0.04 -0.2654
4 0.054221 -0.04 -0.2221
4 0.0454733 0.0498197 -0.282578
4 0.0454733 -0.0498197 -0.216811
4 0.0310063 0.06 -0.286537
4 0.0310063 -0.06 -0.211642
4 0.0668113 -0.00996393 -0.232118
4 0.0668113 0.00996393 -0.235026
4 0.0651106 -0.02 -0.229298
4 0.0651106 0.02 -0.241696
4 0.0688745 0 -0.233177
4 0.0341446 0.06 -0.287431
4 0.0341446 -0.06 -0.212722
4 0.00128135 0.0697475 -0.280934
4 0.00128135 -0.0697475 -0.20829
4 0.0488701 0.0498197 -0.280759
4 0.0488701 -0.0498197 -0.218418
4 0.0630915 -0.0298918 -0.226063
4 0.0630915 0.0298918 -0.24917
4 0.00386754 0.0697475 -0.280904
4 0.00386754 -0.0697475 -0.208312
4 0.00650117 0.0697475 -0.281304
4 0.00650117 -0.0697475 -0.2083
4 0.0577851 0.04 -0.263007
4 0.0577851 -0.04 -0.223592
4 0.00918311 0.0697475 -0.281957
4 0.00918311 -0.0697475 -0.208285
4 0.0373405 0.06 -0.287959
4 0.0373405 -0.06 -0.213989
4 0.0119142 0.0697475 -0.282859
4 0.0119142 -0.0697475 -0.208318
4 0.0146954 0.0697475 -0.283984
4 0.0146954 -0.0697475 -0.208445
4 0.0705994 -0.00996393 -0.231817
4 0.0705994 0.00996393 -0.234143
4 0.0688745 -0.02 -0.229688
4 0.0688745 0.02 -0.240333
4 0.0175277 0.0697475 -0.285227
4 0.0175277 -0.0697475 -0.208704
4 0.0523291 0.0498197 -0.278287
4 0.0523291 -0.0498197 -0.220169
4 0.040595 0.06 -0.287937
4 0.040595 -0.06 -0.215457
4 0.0204118 0.0697475 -0.286513
4 0.0204118 -0.0697475 -0.209124
4 0.0727073 0 -0.23259
4 0.0668113 -0.0298918 -0.227077
4 0.0668113 0.0298918 -0.2472
4 0.0614146 0.04 -0.260583
4 0.0614146 -0.04 -0.225079
4 0.0233489 0.0697475 -0.287794
4 0.0233489 -0.0697475 -0.20971
4 0.0439092 0.06 -0.287276
4 0.0439092 -0.06 -0.21713
4 0.0263398 0.0697475 -0.289027
4 0.0263398 -0.0697475 -0.210478
4 0.0558515 0.0498197 -0.275437
4 0.0558515 -0.0498197 -0.222026
4 0.074457 -0.00996393 -0.231429
4 0.074457 0.00996393 -0.23331
4 0.0727073 -0.02 -0.229988
4 0.0727073 0.02 -0.239143
4 0.0293856 0.0697475 -0.290161
4 0.0293856 -0.0697475 -0.211439
4 0.0472842 0.06 -0.285938
4 0.0472842 -0.06 -0.219008
4 0.0651106 0.04 -0.258315
4 0.0651106 -0.04 -0.226534
4 0.0766105 0 -0.232008
4 0.0705994 -0.0298918 -0.22803
4 0.0705994 0.0298918 -0.245493
4 0.0324873 0.0697475 -0.291113
4 0.0324873 -0.0697475 -0.212588
4 0.0594386 0.0498197 -0.272548
4 0.0594386 -0.0498197 -0.223923
4 0.0356458 0.0697475 -0.2919
4 0.0356458 -0.0697475 -0.213946
4 0.0507211 0.06 -0.283991
4 0.0507211 -0.06 -0.221089
4 0.0783853 -0.00996393 -0.230993
4 0.0783853 0.00996393 -0.232586
4 0.0766105 -0.02 -0.230203
4 0.0766105 0.02 -0.238196
4 0.0688745 -0.04 -0.22793
4 0.0688745 0.04 -0.256356
4 0.0388623 0.0697475 -0.292214
4 0.0388623 -0.0697475 -0.215541
4 0 0.08 -0.282105
4 0 -0.08 -0.209794
4 0.00256965 0.08 -0.282084
4 0.00256965 -0.08 -0.209783
4 0.00518642 0.08 -0.282161
4 0.00518642 -0.08 -0.20976
4 0.074457 -0.0298918 -0.228914
4 0.074457 0.0298918 -0.244147
4 0.00785119 0.08 -0.282413
4 0.00785119 -0.08 -0.209737
4 0.0630915 0.0498197 -0.269851
4 0.0630915 -0.0498197 -0.225809
4 0.0805853 0 -0.231483
4 0.0105648 0.08 -0.282765
4 0.0105648 -0.08 -0.209751
4 0.054221 0.06 -0.281668
4 0.054221 -0.06 -0.22335
4 0.0133283 0.08 -0.283213
4 0.0133283 -0.08 -0.209847
4 0.0421378 0.0697475 -0.291889
4 0.0421378 -0.0697475 -0.217391
4 0.0161424 0.08 -0.283736
4 0.0161424 -0.08 -0.210068
4 0.0190081 0.08 -0.284313
4 0.0190081 -0.08 -0.210452
4 0.0219263 0.08 -0.284948
4 0.0219263 -0.08 -0.211019
4 0.0727073 -0.04 -0.229258
4 0.0727073 0.04 -0.254809
4 0.0823856 -0.00996393 -0.230568
4 0.0823856 0.00996393 -0.232015
4 0.0805853 -0.02 -0.230329
4 0.0805853 0.02 -0.237543
4 0.0454733 0.0697475 -0.290977
4 0.0454733 -0.0697475 -0.219498
4 0.0577851 0.06 -0.27925
4 0.0577851 -0.06 -0.225745
4 0.0668113 -0.0498197 -0.22765
4 0.0668113 0.0498197 -0.267539
4 0.0248981 0.08 -0.28564
4 0.0248981 -0.08 -0.211775
4 0.0783853 -0.0298918 -0.229656
4 0.0783853 0.0298918 -0.243246
4 0.0846329 0 -0.231072
4 0.0279244 0.08 -0.286363
4 0.0279244 -0.08 -0.212731
4 0.0488701 0.0697475 -0.289452
4 0.0488701 -0.0697475 -0.221869
4 0.0310063 0.08 -0.287069
4 0.0310063 -0.08 -0.213897
4 0.0614146 0.06 -0.276937
4 0.0614146 -0.06 -0.228209
4 0.0705994 -0.0498197 -0.229405
4 0.0705994 0.0498197 -0.265715
4 0.0766105 -0.04 -0.230528
4 0.0766105 0.04 -0.253725
4 0.0846329 -0.02 -0.230393
4 0.0846329 0.02 -0.237208
4 0.0341446 0.08 -0.287718
4 0.0341446 -0.08 -0.215282
4 0.0864594 -0.00996393 -0.230228
4 0.0864594 0.00996393 -0.23165
4 0.0523291 0.0697475 -0.287543
4 0.0523291 -0.0697475 -0.224491
4 0.0823856 -0.0298918 -0.230214
4 0.0823856 0.0298918 -0.242813
4 0.0373405 0.08 -0.288208
4 0.0373405 -0.08 -0.216911
4 0.0651106 0.06 -0.274884
4 0.0651106 -0.06 -0.23068
4 0.0887548 0 -0.230824
4 0.0558515 0.0697475 -0.285566
4 0.0558515 -0.0697475 -0.227333
4 0.074457 -0.0498197 -0.231099
4 0.074457 0.0498197 -0.264429
4 0.00128135 0.0896754 -0.283121
4 0.00128135 -0.0896754 -0.211458
4 0.040595 0.08 -0.288368
4 0.040595 -0.08 -0.218822
4 0.00386754 0.0896754 -0.283069
4 0.00386754 -0.0896754 -0.211406
4 0.00650117 0.0896754 -0.283052
4 0.00650117 -0.0896754 -0.211359
4 0.0805853 -0.04 -0.231723
4 0.0805853 0.04 -0.253116
4 0.00918311 -0.0896754 -0.211343
4 0.00918311 0.0896754 -0.282977
4 0.0119142 0.0896754 -0.282836
4 0.0119142 -0.0896754 -0.211403
4 0.0146954 0.0896754 -0.282654
4 0.0146954 -0.0896754 -0.211577
4 0.0887548 0.02 -0.237206
4 0.0887548 -0.02 -0.230445
4 0.0906078 -0.00996393 -0.230031
4 0.0906078 0.00996393 -0.231511
4 0.0439092 0.08 -0.288108
4 0.0439092 -0.08 -0.221039
4 0.0688745 0.06 -0.273235
4 0.0688745 -0.06 -0.233105
4 0.0175277 0.0896754 -0.282462
4 0.0175277 -0.0896754 -0.211912
4 0.0864594 -0.0298918 -0.230607
4 0.0864594 0.0298918 -0.242827
4 0.0594386 0.0697475 -0.28371
4 0.0594386 -0.0697475 -0.230337
4 0.0204118 0.0896754 -0.282348
4 0.0204118 -0.0896754 -0.212446
4 0.0233489 0.0896754 -0.282377
4 0.0233489 -0.0896754 -0.21319
4 0.0783853 -0.0498197 -0.232826
4 0.0783853 0.0498197 -0.263649
4 0.0472842 0.08 -0.287413
4 0.0472842 -0.08 -0.22357
4 0.0929523 0 -0.230781
4 0.0263398 0.0896754 -0.282572
4 0.0263398 -0.0896754 -0.214135
4 0.0846329 0.04 -0.252965
4 0.0846329 -0.04 -0.232807
4 0.0630915 0.0697475 -0.282
4 0.0630915 -0.0697475 -0.233421
4 0.0727073 0.06 -0.272067
4 0.0727073 -0.06 -0.23548
4 0.0293856 0.0896754 -0.282905
4 0.0293856 -0.0896754 -0.215307
4 0.0507211 0.08 -0.286361
4 0.0507211 -0.08 -0.226416
4 0.0929523 0.02 -0.237542
4 0.0929523 -0.02 -0.230544
4 0.0948324 -0.00996393 -0.23005
4 0.0948324 0.00996393 -0.231616
4 0.0324873 0.0896754 -0.283339
4 0.0324873 -0.0896754 -0.216711
4 0.0906078 -0.0298918 -0.230893
4 0.0906078 0.0298918 -0.243292
4 0.0823856 -0.0498197 -0.234544
4 0.0823856 0.0498197 -0.263347
4 0.0356458 0.0896754 -0.283821
4 0.0356458 -0.0896754 -0.218363
4 0.0668113 0.0697475 -0.280587
4 0.0668113 -0.0697475 -0.236498
4 0.054221 0.08 -0.285144
4 0.054221 -0.08 -0.229555
4 0.0972268 0 -0.231007
4 0.0766105 0.06 -0.271373
4 0.0766105 -0.06 -0.237828
4 0.0887548 0.04 -0.253254
4 0.0887548 -0.04 -0.233765
4 0.0388623 0.0896754 -0.284295
4 0.0388623 -0.0896754 -0.220308
4 0.0577851 0.08 -0.283968
4 0.0577851 -0.08 -0.232933
4 0.0421378 0.0896754 -0.284598
4 0.0421378 -0.0896754 -0.222598
4 0.0705994 0.0697475 -0.279604
4 0.0705994 -0.0697475 -0.23952
4 0.0972268 0.02 -0.238241
4 0.0972268 -0.02 -0.23074
4 0.0948324 -0.0298918 -0.23112
4 0.0948324 0.0298918 -0.24419
4 0.0991344 -0.00996393 -0.23029
4 0.0991344 0.00996393 -0.232122
4 0.0864594 0.0498197 -0.263484
4 0.0864594 -0.0498197 -0.236167
4 0 0.1 -0.283286
4 0 -0.1 -0.214082
4 0.00256965 0.1 -0.283281
4 0.00256965 -0.1 -0.214067
4 0.00518642 0.1 -0.283211
4 0.00518642 -0.1 -0.214065
4 0.00785119 0.1 -0.283
4 0.00785119 -0.1 -0.214113
4 0.0805853 0.06 -0.271114
4 0.0805853 -0.06 -0.240131
4 0.0454733 0.0896754 -0.284638
4 0.0454733 -0.0896754 -0.225258
4 0.0105648 0.1 -0.282611
4 0.0105648 -0.1 -0.214225
4 0.0614146 0.08 -0.283004
4 0.0614146 -0.08 -0.236466
4 0.0133283 0.1 -0.28206
4 0.0133283 -0.1 -0.21441
4 0.0929523 0.04 -0.253956
4 0.0929523 -0.04 -0.234614
4 0.0161424 0.1 -0.281423
4 0.0161424 -0.1 -0.214678
4 0.10158 0 -0.231573
4 0.0190081 0.1 -0.280801
4 0.0190081 -0.1 -0.215045
4 0.074457 0.0697475 -0.279075
4 0.074457 -0.0697475 -0.242535
4 0.0488701 0.0896754 -0.284413
4 0.0488701 -0.0896754 -0.228289
4 0.0219263 0.1 -0.280293
4 0.0219263 -0.1 -0.215542
4 0.0248981 0.1 -0.279954
4 0.0248981 -0.1 -0.216196
4 0.0651106 0.08 -0.282352
4 0.0651106 -0.08 -0.240047
4 0.0906078 0.0498197 -0.264039
4 0.0906078 -0.0498197 -0.23765
4 0.10158 0.02 -0.239371
4 0.10158 -0.02 -0.23106
4 0.0991344 0.0298918 -0.245467
4 0.0991344 -0.0298918 -0.231366
4 0.0846329 0.06 -0.271252
4 0.0846329 -0.06 -0.242364
4 0.0279244 0.1 -0.279799
4 0.0279244 -0.1 -0.217024
4 0.0523291 0.0896754 -0.284024
4 0.0523291 -0.0896754 -0.231695
4 0.103515 -0.00996393 -0.230682
4 0.103515 0.00996393 -0.233235
4 0.0310063 0.1 -0.279831
4 0.0310063 -0.1 -0.218057
4 0.0783853 0.0697475 -0.278941
4 0.0783853 -0.0697475 -0.24549
4 0.0972268 0.04 -0.255026
4 0.0972268 -0.04 -0.235387
4 0.0688745 0.08 -0.282048
4 0.0688745 -0.08 -0.243586
4 0.0558515 0.0896754 -0.283578
4 0.0558515 -0.0896754 -0.235428
4 0.0341446 0.1 -0.280039
4 0.0341446 -0.1 -0.219341
4 0.106012 0 -0.232546
4 0.0373405 0.1 -0.280378
4 0.0373405 -0.1 -0.220908
4 0.0948324 0.0498197 -0.264946
4 0.0948324 -0.0498197 -0.239006
4 0.0887548 0.06 -0.271752
4 0.0887548 -0.06 -0.244501
4 0.0594386 0.0896754 -0.283286
4 0.0594386 -0.0896754 -0.239405
4 0.103515 -0.0298918 -0.231737
4 0.103515 0.0298918 -0.24709
4 0.106012 -0.02 -0.231574
4 0.106012 0.02 -0.240974
4 0.040595 0.1 -0.280754
4 0.040595 -0.1 -0.222798
4 0.0823856 0.0697475 -0.279162
4 0.0823856 -0.0697475 -0.248314
4 0.0727073 0.08 -0.282078
4 0.0727073 -0.08 -0.247066
4 0.107977 -0.00996393 -0.231312
4 0.107977 0.00996393 -0.23499
4 0.10158 0.04 -0.25643
4 0.10158 -0.04 -0.236119
4 0.0439092 0.1 -0.281096
4 0.0439092 -0.1 -0.225057
4 0.00128135 0.109603 -0.28337
4 0.00128135 -0.109603 -0.216845
4 0.0630915 0.0896754 -0.283399
4 0.0630915 -0.0896754 -0.243507
4 0.00386754 0.109603 -0.283395
4 0.00386754 -0.109603 -0.216848
4 0.00650117 0.109603 -0.283153
4 0.00650117 -0.109603 -0.216933
4 0.00918311 0.109603 -0.282623
4 0.00918311 -0.109603 -0.217099
4 0.0119142 0.109603 -0.281777
4 0.0119142 -0.109603 -0.217331
4 0.110526 0 -0.233974
4 0.0146954 0.109603 -0.28069
4 0.0146954 -0.109603 -0.217608
4 0.0472842 0.1 -0.2814
4 0.0472842 -0.1 -0.227714
4 0.0929523 0.06 -0.272575
4 0.0929523 -0.06 -0.246476
4 0.0766105 0.08 -0.282402
4 0.0766105 -0.08 -0.250546
4 0.0991344 0.0498197 -0.266168
4 0.0991344 -0.0498197 -0.240229
4 0.0175277 0.109603 -0.279534
4 0.0175277 -0.109603 -0.217903
4 0.0864594 0.0697475 -0.279693
4 0.0864594 -0.0697475 -0.251098
4 0.0204118 -0.109603 -0.218226
4 0.0204118 0.109603 -0.278442
4 0.0668113 0.0896754 -0.283889
4 0.0668113 -0.0896754 -0.247602
4 0.107977 -0.0298918 -0.232393
4 0.107977 0.0298918 -0.249025
4 0.0233489 0.109603 -0.277542
4 0.0233489 -0.109603 -0.218642
4 0.0507211 0.1 -0.281731
4 0.0507211 -0.1 -0.230784
4 0.110526 -0.02 -0.23246
4 0.110526 0.02 -0.242992
4 0.0263398 0.109603 -0.276849
4 0.0263398 -0.109603 -0.21919
4 0.11252 -0.00996393 -0.232471
4 0.11252 0.00996393 -0.23718
4 0.106012 -0.04 -0.236855
4 0.106012 0.04 -0.258143
4 0.0293856 0.109603 -0.276417
4 0.0293856 -0.109603 -0.219875
4 0.0805853 0.08 -0.282976
4 0.0805853 -0.08 -0.254079
4 0.054221 0.1 -0.282174
4 0.054221 -0.1 -0.234262
4 0.0705994 0.0896754 -0.284651
4 0.0705994 -0.0896754 -0.251585
4 0.0972268 0.06 -0.273684
4 0.0972268 -0.06 -0.248235
4 0.0324873 0.109603 -0.276266
4 0.0324873 -0.109603 -0.220789
4 0.0906078 0.0697475 -0.280504
4 0.0906078 -0.0697475 -0.253762
4 0.103515 -0.0498197 -0.241285
4 0.103515 0.0498197 -0.267691
4 0.115123 0 -0.235893
4 0.0356458 0.109603 -0.276425
4 0.0356458 -0.109603 -0.222001
4 0.0577851 0.1 -0.282789
4 0.0577851 -0.1 -0.238111
4 0.0388623 0.109603 -0.276789
4 0.0388623 -0.109603 -0.223516
4 0.11252 -0.0298918 -0.233507
4 0.11252 0.0298918 -0.251246
4 0.0846329 0.08 -0.283761
4 0.0846329 -0.08 -0.257702
4 0.074457 0.0896754 -0.285583
4 0.074457 -0.0896754 -0.255507
4 0.115123 -0.02 -0.233957
4 0.115123 0.02 -0.245321
4 0.0614146 0.1 -0.28362
4 0.0614146 -0.1 -0.242261
4 0.0421378 0.109603 -0.277301
4 0.0421378 -0.109603 -0.225387
4 0.110526 -0.04 -0.237704
4 0.110526 0.04 -0.260138
4 0.117146 -0.00996393 -0.234375
4 0.117146 0.00996393 -0.239646
4 0.0948324 0.0697475 -0.281561
4 0.0948324 -0.0697475 -0.256146
4 0.10158 0.06 -0.275058
4 0.10158 -0.06 -0.249742
4 0.0454733 0.109603 -0.277969
4 0.0454733 -0.109603 -0.227671
4 0.107977 -0.0498197 -0.242126
4 0.107977 0.0498197 -0.269495
4 0.0783853 0.0896754 -0.286655
4 0.0783853 -0.0896754 -0.259562
4 0.0651106 0.1 -0.284674
4 0.0651106 -0.1 -0.246605
4 0.0887548 0.08 -0.284727
4 0.0887548 -0.08 -0.261376
4 0.119804 -3.70074e-17 -0.23833
4 0 0.12 -0.28539
4 0 -0.12 -0.21608
4 0.0488701 0.109603 -0.278853
4 0.0488701 -0.109603 -0.230398
4 0.00256965 0.12 -0.285409
4 0.00256965 -0.12 -0.216111
4 0.00518642 0.12 -0.28533
4 0.00518642 -0.12 -0.21623
4 0.00785119 0.12 -0.284999
4 0.00785119 -0.12 -0.216446
4 0.0105648 0.12 -0.284376
4 0.0105648 -0.12 -0.216729
4 0.0133283 0.12 -0.283459
4 0.0133283 -0.12 -0.217019
4 0.117146 -0.0298918 -0.235356
4 0.117146 0.0298918 -0.253735
4 0.0161424 0.12 -0.282353
4 0.0161424 -0.12 -0.217272
4 0.0991344 0.0697475 -0.282849
4 0.0991344 -0.0697475 -0.258186
4 0.0688745 0.1 -0.285895
4 0.0688745 -0.1 -0.251024
4 0.0523291 0.109603 -0.280025
4 0.0523291 -0.109603 -0.233592
4 0.119804 -0.02 -0.236246
4 0.119804 0.02 -0.247927
4 0.0190081 0.12 -0.281206
4 0.0190081 -0.12 -0.217477
4 0.0823856 0.0896754 -0.287829
4 0.0823856 -0.0896754 -0.26389
4 0.106012 -0.06 -0.250963
4 0.106012 0.06 -0.276677
4 0.115123 -0.04 -0.238906
4 0.115123 0.04 -0.262396
4 0.0219263 0.12 -0.280153
4 0.0219263 -0.12 -0.217675
4 0.121857 -0.00996393 -0.237032
4 0.121857 0.00996393 -0.242429
4 0.0248981 0.12 -0.279288
4 0.0248981 -0.12 -0.21795
4 0.0929523 0.08 -0.285855
4 0.0929523 -0.08 -0.264954
4 0.0558515 0.109603 -0.281544
4 0.0558515 -0.109603 -0.237242
4 0.11252 0.0498197 -0.271562
4 0.11252 -0.0498197 -0.242916
4 0.0279244 0.12 -0.278659
4 0.0279244 -0.12 -0.21838
4 0.0727073 0.1 -0.287212
4 0.0727073 -0.1 -0.255426
4 0.0310063 0.12 -0.278299
4 0.0310063 -0.12 -0.21901
4 0.0864594 0.0896754 -0.289074
4 0.0864594 -0.0896754 -0.268477
4 0.124571 0 -0.241306
4 0.0594386 0.109603 -0.283281
4 0.0594386 -0.109603 -0.241341
4 0.0341446 0.12 -0.278229
4 0.0341446 -0.12 -0.219868
4 0.103515 -0.0697475 -0.259869
4 0.103515 0.0697475 -0.284352
4 0.121857 -0.0298918 -0.238178
4 0.121857 0.0298918 -0.256485
4 0.0373405 0.12 -0.278426
4 0.0373405 -0.12 -0.220977
4 0.110526 -0.06 -0.251838
4 0.110526 0.06 -0.278521
4 0.0972268 0.08 -0.287136
4 0.0972268 -0.08 -0.268274
4 0.0766105 0.1 -0.288569
4 0.0766105 -0.1 -0.259823
4 0.124571 -0.02 -0.239449
4 0.124571 0.02 -0.250824
4 0.119804 -0.04 -0.240811
4 0.119804 0.04 -0.264901
4 0.0630915 0.109603 -0.285097
4 0.0630915 -0.109603 -0.245817
4 0.040595 0.12 -0.278846
4 0.040595 -0.12 -0.222376
4 0.126655 -0.00996393 -0.240467
4 0.126655 0.00996393 -0.245543
4 0.117146 0.0498197 -0.273871
4 0.117146 -0.0498197 -0.244011
4 0.0906078 0.0896754 -0.290379
4 0.0906078 -0.0896754 -0.273153
4 0.0439092 0.12 -0.279491
4 0.0439092 -0.12 -0.224115
4 0.0668113 0.109603 -0.286933
4 0.0668113 -0.109603 -0.250569
4 0.0805853 0.1 -0.289942
4 0.0805853 -0.1 -0.264292
4 0.107977 -0.0697475 -0.261143
4 0.107977 0.0697475 -0.286049
4 0.0472842 0.12 -0.280426
4 0.0472842 -0.12 -0.226245
4 0.10158 0.08 -0.288558
4 0.10158 -0.08 -0.271198
4 0.129426 0 -0.244821
4 0.00128135 0.129531 -0.287396
4 0.00128135 -0.129531 -0.21561
4 0.00386754 0.129531 -0.287448
4 0.00386754 -0.129531 -0.21574
4 0.00650117 0.129531 -0.287297
4 0.00650117 -0.129531 -0.215986
4 0.115123 -0.06 -0.252545
4 0.115123 0.06 -0.280565
4 0.00918311 0.129531 -0.286901
4 0.00918311 -0.129531 -0.216341
4 0.0119142 0.129531 -0.286178
4 0.0119142 -0.129531 -0.216707
4 0.126655 -0.0298918 -0.242187
4 0.126655 0.0298918 -0.259496
4 0.0507211 0.12 -0.281689
4 0.0507211 -0.12 -0.228811
4 0.0146954 0.129531 -0.285163
4 0.0146954 -0.129531 -0.216985
4 0.0705994 0.109603 -0.288766
4 0.0705994 -0.109603 -0.25545
4 0.0948324 0.0896754 -0.291752
4 0.0948324 -0.0896754 -0.277732
4 0.0175277 0.129531 -0.283993
4 0.0175277 -0.129531 -0.21715
4 0.124571 -0.04 -0.243767
4 0.124571 0.04 -0.267644
4 0.129426 -0.02 -0.243443
4 0.129426 0.02 -0.254026
4 0.0846329 0.1 -0.291319
4 0.0846329 -0.1 -0.268898
4 0.0204118 0.129531 -0.282816
4 0.0204118 -0.129531 -0.217199
4 0.0233489 0.129531 -0.281774
4 0.0233489 -0.129531 -0.217228
4 0.121857 -0.0498197 -0.245943
4 0.121857 0.0498197 -0.276407
4 0.054221 0.12 -0.283263
4 0.054221 -0.12 -0.231845
4 0.131541 -0.00996393 -0.244601
4 0.131541 0.00996393 -0.249033
4 0.0263398 0.129531 -0.280956
4 0.0263398 -0.129531 -0.217374
4 0.11252 -0.0697475 -0.261723
4 0.11252 0.0697475 -0.287913
4 0.074457 0.109603 -0.290535
4 0.074457 -0.109603 -0.260302
4 0.106012 -0.08 -0.2736
4 0.106012 0.08 -0.290105
4 0.0293856 0.129531 -0.280403
4 0.0293856 -0.129531 -0.217753
4 0.0577851 0.12 -0.285064
4 0.0577851 -0.12 -0.235364
4 0.0324873 0.129531 -0.280143
4 0.0324873 -0.129531 -0.218341
4 0.0991344 0.0896754 -0.293191
4 0.0991344 -0.0896754 -0.281976
4 0.0887548 0.1 -0.292695
4 0.0887548 -0.1 -0.273636
4 0.119804 -0.06 -0.253521
4 0.119804 0.06 -0.282788
4 0.0356458 0.129531 -0.280182
4 0.0356458 -0.129531 -0.219111
4 0.134369 0 -0.248857
4 0.0783853 0.109603 -0.292208
4 0.0783853 -0.109603 -0.26509
4 0.0614146 0.12 -0.286945
4 0.0614146 -0.12 -0.23936
4 0.131541 -0.0298918 -0.246765
4 0.131541 0.0298918 -0.262766
4 0.0388623 0.129531 -0.280502
4 0.0388623 -0.129531 -0.220109
4 0.129426 -0.04 -0.247811
4 0.129426 0.04 -0.270614
4 0.134369 -0.02 -0.248393
4 0.134369 0.02 -0.257549
4 0.126655 -0.0498197 -0.24912
4 0.126655 0.0498197 -0.279154
4 0.0421378 0.129531 -0.281087
4 0.0421378 -0.129531 -0.22138
4 0.117146 -0.0697475 -0.262086
4 0.117146 0.0697475 -0.289915
4 0.110526 -0.08 -0.275346
4 0.110526 0.08 -0.291758
4 0.0651106 0.12 -0.288806
4 0.0651106 -0.12 -0.243792
4 0.0929523 0.1 -0.294074
4 0.0929523 -0.1 -0.278436
4 0.136516 -0.00996393 -0.249338
4 0.136516 0.00996393 -0.252946
4 0.103515 0.0896754 -0.294688
4 0.103515 -0.0896754 -0.285646
4 0.0823856 0.109603 -0.293794
4 0.0823856 -0.109603 -0.269838
4 0.0454733 0.129531 -0.282009
4 0.0454733 -0.129531 -0.222979
4 0.124571 -0.06 -0.255199
4 0.124571 0.06 -0.285167
4 0.0688745 0.12 -0.290611
4 0.0688745 -0.12 -0.248573
4 0.0488701 0.129531 -0.283362
4 0.0488701 -0.129531 -0.224968
4 0.139403 0 -0.253378
4 0.0972268 0.1 -0.295457
4 0.0972268 -0.1 -0.283184
4 0.0864594 0.109603 -0.295307
4 0.0864594 -0.109603 -0.274657
4 0.0523291 0.129531 -0.285074
4 0.0523291 -0.129531 -0.227403
4 0.136516 -0.0298918 -0.253304
4 0.136516 0.0298918 -0.266277
4 0 0.14 -0.290656
4 0 -0.14 -0.212107
4 0.00256965 0.14 -0.290694
4 0.00256965 -0.14 -0.212159
4 0.00518642 0.14 -0.29072
4 0.00518642 -0.14 -0.212308
4 0.115123 -0.08 -0.276452
4 0.115123 0.08 -0.293491
4 0.134369 -0.04 -0.253223
4 0.134369 0.04 -0.273794
4 0.00785119 0.14 -0.290618
4 0.00785119 -0.14 -0.212528
4 0.0727073 0.12 -0.29233
4 0.0727073 -0.12 -0.253567
4 0.107977 -0.0896754 -0.288548
4 0.107977 0.0896754 -0.296226
4 0.0105648 0.14 -0.290334
4 0.0105648 -0.14 -0.212787
4 0.121857 -0.0697475 -0.262627
4 0.121857 0.0697475 -0.292027
4 0.0133283 0.14 -0.289838
4 0.0133283 -0.14 -0.213018
4 0.131541 -0.0498197 -0.253711
4 0.131541 0.0498197 -0.282091
4 0.139403 -0.02 -0.254353
4 0.139403 0.02 -0.261379
4 0.0161424 0.14 -0.289178
4 0.0161424 -0.14 -0.213154
4 0.0558515 0.129531 -0.28702
4 0.0558515 -0.129531 -0.230336
4 0.0190081 0.14 -0.288451
4 0.0190081 -0.14 -0.213164
4 0.0219263 0.14 -0.28776
4 0.0219263 -0.14 -0.213076
4 0.141583 -0.00996393 -0.254642
4 0.141583 0.00996393 -0.257209
4 0.0248981 0.14 -0.28718
4 0.0248981 -0.14 -0.212978
4 0.0906078 0.109603 -0.29676
4 0.0906078 -0.109603 -0.279589
4 0.0766105 0.12 -0.293939
4 0.0766105 -0.12 -0.258654
4 0.0594386 0.129531 -0.289057
4 0.0594386 -0.129531 -0.233804
4 0.10158 0.1 -0.296837
4 0.10158 -0.1 -0.287713
4 0.129426 -0.06 -0.258046
4 0.129426 0.06 -0.287675
4 0.0279244 0.14 -0.286755
4 0.0279244 -0.14 -0.212989
4 0.0310063 0.14 -0.286501
4 0.0310063 -0.14 -0.213191
4 0.11252 -0.0896754 -0.290689
4 0.11252 0.0896754 -0.297786
4 0.119804 -0.08 -0.277088
4 0.119804 0.08 -0.295279
4 0.0630915 -0.129531 -0.237816
4 0.0630915 0.129531 -0.291016
4 0.0341446 0.14 -0.286418
4 0.0341446 -0.14 -0.213611
4 0.14453 -3.70074e-17 -0.258318
4 0.0805853 0.12 -0.295436
4 0.0805853 -0.12 -0.263769
4 0.126655 -0.0697475 -0.26379
4 0.126655 0.0697475 -0.294219
4 0.141583 -0.0298918 -0.260734
4 0.141583 0.0298918 -0.270009
4 0.0373405 0.14 -0.286525
4 0.0373405 -0.14 -0.214279
4 0.0948324 0.109603 -0.298159
4 0.0948324 -0.109603 -0.284651
4 0.139403 -0.04 -0.260089
4 0.139403 0.04 -0.277142
4 0.136516 0.0498197 -0.285181
4 0.136516 -0.0498197 -0.259837
4 0.106012 -0.1 -0.29182
4 0.106012 0.1 -0.298201
4 0.0668113 0.129531 -0.292869
4 0.0668113 -0.129531 -0.242364
4 0.040595 0.14 -0.286864
4 0.040595 -0.14 -0.215234
4 0.14453 -0.02 -0.260918
4 0.14453 0.02 -0.265458
4 0.0439092 0.14 -0.287485
4 0.0439092 -0.14 -0.216515
4 0.0846329 0.12 -0.296835
4 0.0846329 -0.12 -0.268877
4 0.146742 -0.00996393 -0.260436
4 0.146742 0.00996393 -0.261734
4 0.134369 -0.06 -0.26242
4 0.134369 0.06 -0.29028
4 0.0705994 0.129531 -0.294584
4 0.0705994 -0.129531 -0.247358
4 0.117146 -0.0896754 -0.291951
4 0.117146 0.0896754 -0.299346
4 0.0472842 0.14 -0.288436
4 0.0472842 -0.14 -0.218169
4 0.0991344 0.109603 -0.299499
4 0.0991344 -0.109603 -0.289784
4 0.124571 -0.08 -0.2775
4 0.124571 0.08 -0.297092
4 0.131541 0.0697475 -0.296455
4 0.131541 -0.0697475 -0.26642
4 0.0507211 0.14 -0.289696
4 0.0507211 -0.14 -0.220242
4 0.110526 -0.1 -0.295312
4 0.110526 0.1 -0.299537
4 0.0887548 0.12 -0.298146
4 0.0887548 -0.12 -0.273975
4 0.074457 0.129531 -0.296152
4 0.074457 -0.129531 -0.252643
4 0.00128135 0.149459 -0.293979
4 0.00128135 -0.149459 -0.209103
4 0.00386754 -0.149459 -0.209195
4 0.00386754 0.149459 -0.294091
4 0.00650117 0.149459 -0.294187
4 0.00650117 -0.149459 -0.209323
4 0.00918311 0.149459 -0.294238
4 0.00918311 -0.149459 -0.209476
4 0.14975 0 -0.263569
4 0.146742 -0.0298918 -0.268637
4 0.146742 0.0298918 -0.273912
4 0.0119142 0.149459 -0.294189
4 0.0119142 -0.149459 -0.209645
4 0.14453 -0.04 -0.267916
4 0.14453 0.04 -0.280594
4 0.141583 -0.0498197 -0.267387
4 0.141583 0.0498197 -0.288331
4 0.054221 0.14 -0.291146
4 0.054221 -0.14 -0.222778
4 0.0146954 0.149459 -0.294013
4 0.0146954 -0.149459 -0.209761
4 0.0175277 0.149459 -0.293753
4 0.0175277 -0.149459 -0.209754
4 0.103515 -0.109603 -0.29484
4 0.103515 0.109603 -0.300768
4 0.0204118 0.149459 -0.293471
4 0.0204118 -0.149459 -0.209601
4 0.14975 -0.02 -0.267809
4 0.14975 0.02 -0.2697
4 0.0233489 0.149459 -0.293215
4 0.0233489 -0.149459 -0.209346