# p  POINT_DATA 90431
# x  y  z  p
5 0 0 -0.384451
5 0.00256965 0 -0.384533
5 0.00518642 0 -0.384615
5 0.00785119 0 -0.384629
5 0.00128482 0.01 -0.390926
5 0.00128482 -0.01 -0.377976
5 0.0105648 0 -0.384661
5 0.00387803 0.01 -0.391095
5 0.00387803 -0.01 -0.378138
5 0.00651881 0.01 -0.391098
5 0.00651881 -0.01 -0.37813
5 0.0133283 0 -0.384695
5 0.00920802 0.01 -0.391138
5 0.00920802 -0.01 -0.378149
5 0.0119465 0.01 -0.391186
5 0.0119465 -0.01 -0.378171
5 0.0161424 0 -0.384728
5 0.0147353 0.01 -0.391235
5 0.0147353 -0.01 -0.378189
5 0.0190081 0 -0.384763
5 0 0.02 -0.396015
5 0 -0.02 -0.370473
5 0.00256965 0.02 -0.396098
5 0.00256965 -0.02 -0.370541
5 0.0175752 0.01 -0.391284
5 0.0175752 -0.01 -0.378203
5 0.00518642 0.02 -0.396186
5 0.00518642 -0.02 -0.370607
5 0.00785119 0.02 -0.396217
5 0.00785119 -0.02 -0.37061
5 0.0219263 0 -0.384813
5 0.0105648 0.02 -0.396276
5 0.0105648 -0.02 -0.370621
5 0.0204672 0.01 -0.391341
5 0.0204672 -0.01 -0.378225
5 0.0133283 0.02 -0.396343
5 0.0133283 -0.02 -0.37063
5 0.0248981 0 -0.384887
5 0.0234122 0.01 -0.39142
5 0.0234122 -0.01 -0.378264
5 0.0161424 0.02 -0.396414
5 0.0161424 -0.02 -0.370635
5 0.0190081 0.02 -0.396493
5 0.0190081 -0.02 -0.370642
5 0.0279244 0 -0.384996
5 0.0264113 0.01 -0.391531
5 0.0264113 -0.01 -0.378333
5 0.0219263 0.02 -0.396589
5 0.0219263 -0.02 -0.370661
5 0.00128482 0.03 -0.401103
5 0.00128482 -0.03 -0.36297
5 0.00387803 0.03 -0.401268
5 0.00387803 -0.03 -0.363082
5 0.00651881 0.03 -0.401284
5 0.00651881 -0.03 -0.363078
5 0.0310063 0 -0.385149
5 0.0294653 0.01 -0.391681
5 0.0294653 -0.01 -0.37844
5 0.00920802 0.03 -0.401349
5 0.00920802 -0.03 -0.363081
5 0.0248981 0.02 -0.396715
5 0.0248981 -0.02 -0.370703
5 0.0119465 0.03 -0.40143
5 0.0119465 -0.03 -0.363083
5 0.0147353 0.03 -0.40152
5 0.0147353 -0.03 -0.363078
5 0.0325754 0.01 -0.391884
5 0.0325754 -0.01 -0.378589
5 0.0341446 0 -0.385352
5 0.0279244 0.02 -0.396882
5 0.0279244 -0.02 -0.37078
5 0.0175752 0.03 -0.401618
5 0.0175752 -0.03 -0.363071
5 0.0204672 0.03 -0.401729
5 0.0204672 -0.03 -0.363069
5 0.0310063 0.02 -0.3971
5 0.0310063 -0.02 -0.370899
5 0.0357425 0.01 -0.392146
5 0.0357425 -0.01 -0.37879
5 0.0373405 0 -0.385613
5 0.0234122 0.03 -0.401866
5 0.0234122 -0.03 -0.363085
5 0.0341446 0.02 -0.397376
5 0.0341446 -0.02 -0.371065
5 0.0264113 0.03 -0.402044
5 0.0264113 -0.03 -0.363131
5 0 0.04 -0.404587
5 0 -0.04 -0.354815
5 0.00256965 0.04 -0.404661
5 0.00256965 -0.04 -0.354852
5 0.0389677 0.01 -0.392467
5 0.0389677 -0.01 -0.379047
5 0.00518642 0.04 -0.404747
5 0.00518642 -0.04 -0.354889
5 0.040595 0 -0.385926
5 0.00785119 0.04 -0.404799
5 0.00785119 -0.04 -0.354889
5 0.0105648 0.04 -0.404886
5 0.0105648 -0.04 -0.354886
5 0.0294653 0.03 -0.402273
5 0.0294653 -0.03 -0.363216
5 0.0133283 0.04 -0.404991
5 0.0133283 -0.04 -0.354878
5 0.0373405 0.02 -0.39771
5 0.0373405 -0.02 -0.371283
5 0.0161424 0.04 -0.40511
5 0.0161424 -0.04 -0.354866
5 0.0422521 0.01 -0.392838
5 0.0422521 -0.01 -0.379353
5 0.0439092 0 -0.386285
5 0.0325754 0.03 -0.402561
5 0.0325754 -0.03 -0.363349
5 0.0190081 0.04 -0.405246
5 0.0190081 -0.04 -0.354856
5 0.040595 0.02 -0.398099
5 0.040595 -0.02 -0.371549
5 0.0219263 0.04 -0.405407
5 0.0219263 -0.04 -0.354859
5 0.0357425 0.03 -0.402911
5 0.0357425 -0.03 -0.363532
5 0.0455967 0.01 -0.393245
5 0.0455967 -0.01 -0.379705
5 0.0248981 0.04 -0.405604
5 0.0248981 -0.04 -0.354891
5 0.0472842 0 -0.386674
5 0.0439092 0.02 -0.398532
5 0.0439092 -0.02 -0.371861
5 0.0279244 0.04 -0.40585
5 0.0279244 -0.04 -0.354962
5 0.0389677 0.03 -0.403317
5 0.0389677 -0.03 -0.363762
5 0.0490026 0.01 -0.39366
5 0.0490026 -0.01 -0.380086
5 0.00128482 0.05 -0.40807
5 0.00128482 -0.05 -0.346659
5 0.00387803 0.05 -0.408201
5 0.00387803 -0.05 -0.346697
5 0.00651881 0.05 -0.408236
5 0.00651881 -0.05 -0.3467
5 0.0310063 0.04 -0.406155
5 0.0310063 -0.04 -0.355079
5 0.0507211 0 -0.387073
5 0.00920802 0.05 -0.408325
5 0.00920802 -0.05 -0.346696
5 0.0472842 0.02 -0.398991
5 0.0472842 -0.02 -0.372209
5 0.0119465 0.05 -0.40844
5 0.0119465 -0.05 -0.346685
5 0.0422521 0.03 -0.403774
5 0.0422521 -0.03 -0.364036
5 0.0147353 0.05 -0.408575
5 0.0147353 -0.05 -0.346668
5 0.0341446 0.04 -0.406524
5 0.0341446 -0.04 -0.355244
5 0.0175752 0.05 -0.408728
5 0.0175752 -0.05 -0.346647
5 0.052471 0.01 -0.394077
5 0.052471 -0.01 -0.38047
5 0.0204672 0.05 -0.408908
5 0.0204672 -0.05 -0.346635
5 0.054221 0 -0.387466
5 0.0507211 0.02 -0.399455
5 0.0507211 -0.02 -0.372579
5 0.0455967 0.03 -0.404272
5 0.0455967 -0.03 -0.364349
5 0.0373405 0.04 -0.406956
5 0.0373405 -0.04 -0.355459
5 0.0234122 0.05 -0.409123
5 0.0234122 -0.05 -0.346648
5 0.0264113 0.05 -0.409384
5 0.0264113 -0.05 -0.3467
5 0.056003 0.01 -0.394472
5 0.056003 -0.01 -0.380846
5 0.040595 0.04 -0.407449
5 0.040595 -0.04 -0.355725
5 0.0490026 0.03 -0.404786
5 0.0490026 -0.03 -0.364696
5 0.0577851 0 -0.387844
5 0.054221 0.02 -0.399913
5 0.054221 -0.02 -0.372956
5 0.0294653 0.05 -0.409702
5 0.0294653 -0.05 -0.346801
5 0.0439092 0.04 -0.40799
5 0.0439092 -0.04 -0.356035
5 0.0325754 0.05 -0.410086
5 0.0325754 -0.05 -0.346949
5 0 0.06 -0.409944
5 0 -0.06 -0.338169
5 0.00256965 0.06 -0.409995
5 0.00256965 -0.06 -0.338179
5 0.00518642 0.06 -0.410067
5 0.00518642 -0.06 -0.338191
5 0.0595998 0.01 -0.394848
5 0.0595998 -0.01 -0.38121
5 0.052471 0.03 -0.405298
5 0.052471 -0.03 -0.365065
5 0.00785119 0.06 -0.410137
5 0.00785119 -0.06 -0.33819
5 0.0105648 0.06 -0.41025
5 0.0105648 -0.06 -0.338181
5 0.0577851 0.02 -0.400364
5 0.0577851 -0.02 -0.373325
5 0.0614146 0 -0.388211
5 0.0357425 0.05 -0.410537
5 0.0357425 -0.05 -0.347145
5 0.0133283 0.06 -0.410391
5 0.0133283 -0.06 -0.338166
5 0.0472842 0.04 -0.408561
5 0.0472842 -0.04 -0.356381
5 0.0161424 0.06 -0.410558
5 0.0161424 -0.06 -0.338147
5 0.0190081 0.06 -0.410753
5 0.0190081 -0.06 -0.338133
5 0.0389677 0.05 -0.41106
5 0.0389677 -0.05 -0.347397
5 0.056003 0.03 -0.405807
5 0.056003 -0.03 -0.365441
5 0.0219263 0.06 -0.410984
5 0.0219263 -0.06 -0.338137
5 0.0632626 0.01 -0.395218
5 0.0632626 -0.01 -0.381569
5 0.0614146 0.02 -0.400817
5 0.0614146 -0.02 -0.373685
5 0.0507211 0.04 -0.409142
5 0.0507211 -0.04 -0.356747
5 0.0248981 0.06 -0.411263
5 0.0248981 -0.06 -0.338176
5 0.0651106 0 -0.388579
5 0.0422521 0.05 -0.411645
5 0.0422521 -0.05 -0.347704
5 0.0279244 0.06 -0.411598
5 0.0279244 -0.06 -0.338262
5 0.0595998 0.03 -0.40633
5 0.0595998 -0.03 -0.365802
5 0.054221 0.04 -0.409729
5 0.054221 -0.04 -0.357122
5 0.0310063 0.06 -0.411999
5 0.0310063 -0.06 -0.338402
5 0.0455967 0.05 -0.41227
5 0.0455967 -0.05 -0.348053
5 0.0669925 0.01 -0.395613
5 0.0669925 -0.01 -0.381915
5 0.0651106 0.02 -0.401287
5 0.0651106 -0.02 -0.374039
5 0.0688745 0 -0.388957
5 0.0341446 0.06 -0.412469
5 0.0341446 -0.06 -0.338595
5 0.0490026 0.05 -0.412915
5 0.0490026 -0.05 -0.348425
5 0.00128482 0.07 -0.411819
5 0.00128482 -0.07 -0.329678
5 0.0632626 0.03 -0.406873
5 0.0632626 -0.03 -0.366158
5 0.00387803 0.07 -0.411889
5 0.00387803 -0.07 -0.329683
5 0.0577851 0.04 -0.41033
5 0.0577851 -0.04 -0.357494
5 0.00651881 0.07 -0.411941
5 0.00651881 -0.07 -0.329685
5 0.00920802 0.07 -0.412046
5 0.00920802 -0.07 -0.329679
5 0.0373405 0.06 -0.413007
5 0.0373405 -0.06 -0.33884
5 0.0119465 0.07 -0.412188
5 0.0119465 -0.07 -0.329665
5 0.0707909 -0.01 -0.382263
5 0.0707909 0.01 -0.396037
5 0.0147353 0.07 -0.412361
5 0.0147353 -0.07 -0.329646
5 0.0688745 -0.02 -0.374394
5 0.0688745 0.02 -0.401782
5 0.0175752 0.07 -0.412566
5 0.0175752 -0.07 -0.329628
5 0.040595 0.06 -0.413606
5 0.040595 -0.06 -0.339134
5 0.052471 0.05 -0.413571
5 0.052471 -0.05 -0.348802
5 0.0727073 0 -0.389348
5 0.0204672 0.07 -0.412808
5 0.0204672 -0.07 -0.329622
5 0.0614146 0.04 -0.410953
5 0.0614146 -0.04 -0.357862
5 0.0669925 0.03 -0.407445
5 0.0669925 -0.03 -0.366515
5 0.0234122 0.07 -0.413098
5 0.0234122 -0.07 -0.329645
5 0.0439092 0.06 -0.414251
5 0.0439092 -0.06 -0.33947
5 0.0264113 0.07 -0.413446
5 0.0264113 -0.07 -0.329713
5 0.056003 0.05 -0.41424
5 0.056003 -0.05 -0.349178
5 0.0746589 -0.01 -0.382624
5 0.0746589 0.01 -0.396467
5 0.0727073 -0.02 -0.374758
5 0.0727073 0.02 -0.402291
5 0.0294653 0.07 -0.413861
5 0.0294653 -0.07 -0.329836
5 0.0472842 0.06 -0.414924
5 0.0472842 -0.06 -0.339832
5 0.0651106 -0.04 -0.358231
5 0.0651106 0.04 -0.411594
5 0.0766105 0 -0.389748
5 0.0707909 -0.03 -0.366883
5 0.0707909 0.03 -0.408033
5 0.0325754 0.07 -0.414348
5 0.0325754 -0.07 -0.330021
5 0.0595998 0.05 -0.414943
5 0.0595998 -0.05 -0.349555
5 0.0507211 0.06 -0.415611
5 0.0507211 -0.06 -0.340204
5 0.0357425 0.07 -0.414905
5 0.0357425 -0.07 -0.330264
5 0.0766105 -0.02 -0.375135
5 0.0766105 0.02 -0.402797
5 0.0785979 -0.01 -0.383004
5 0.0785979 0.01 -0.396896
5 0.0688745 -0.04 -0.358606
5 0.0688745 0.04 -0.412242
5 0 0.08 -0.412408
5 0 -0.08 -0.321112
5 0.00256965 0.08 -0.412432
5 0.00256965 -0.08 -0.321118
5 0.0389677 0.07 -0.415525
5 0.0389677 -0.07 -0.330553
5 0.00518642 0.08 -0.412483
5 0.00518642 -0.08 -0.321125
5 0.00785119 0.08 -0.412564
5 0.00785119 -0.08 -0.321123
5 0.0746589 -0.03 -0.367262
5 0.0746589 0.03 -0.408625
5 0.0805853 0 -0.390161
5 0.0632626 0.05 -0.415668
5 0.0632626 -0.05 -0.349934
5 0.0105648 0.08 -0.412696
5 0.0105648 -0.08 -0.321115
5 0.054221 0.06 -0.416308
5 0.054221 -0.06 -0.34058
5 0.0133283 0.08 -0.412872
5 0.0133283 -0.08 -0.321102
5 0.0161424 0.08 -0.41309
5 0.0161424 -0.08 -0.321088
5 0.0422521 0.07 -0.416193
5 0.0422521 -0.07 -0.330883
5 0.0190081 0.08 -0.413354
5 0.0190081 -0.08 -0.321083
5 0.0219263 0.08 -0.413671
5 0.0219263 -0.08 -0.321099
5 0.0727073 -0.04 -0.358989
5 0.0727073 0.04 -0.412888
5 0.0805853 -0.02 -0.375527
5 0.0805853 0.02 -0.4033
5 0.0826091 -0.01 -0.383401
5 0.0826091 0.01 -0.397342
5 0.0577851 0.06 -0.41702
5 0.0577851 -0.06 -0.340958
5 0.0455967 0.07 -0.416895
5 0.0455967 -0.07 -0.33124
5 0.0669925 -0.05 -0.350318
5 0.0669925 0.05 -0.41639
5 0.0248981 0.08 -0.41405
5 0.0248981 -0.08 -0.321153
5 0.0785979 -0.03 -0.367652
5 0.0785979 0.03 -0.409199
5 0.0846329 0 -0.390585
5 0.0279244 0.08 -0.414496
5 0.0279244 -0.08 -0.321256
5 0.0490026 0.07 -0.417617
5 0.0490026 -0.07 -0.331608
5 0.0310063 0.08 -0.415014
5 0.0310063 -0.08 -0.321418
5 0.0614146 -0.06 -0.341339
5 0.0614146 0.06 -0.417749
5 0.0766105 -0.04 -0.35938
5 0.0766105 0.04 -0.413519
5 0.0707909 -0.05 -0.350707
5 0.0707909 0.05 -0.417101
5 0.0846329 -0.02 -0.37593
5 0.0846329 0.02 -0.403802
5 0.0341446 0.08 -0.415601
5 0.0341446 -0.08 -0.321639
5 0.0866939 -0.01 -0.383804
5 0.0866939 0.01 -0.397796
5 0.052471 0.07 -0.418343
5 0.052471 -0.07 -0.331982
5 0.0826091 -0.03 -0.368051
5 0.0826091 0.03 -0.409762
5 0.0373405 0.08 -0.416253
5 0.0373405 -0.08 -0.321912
5 0.0651106 -0.06 -0.341725
5 0.0651106 0.06 -0.418486
5 0.0887548 0 -0.391015
5 0.056003 0.07 -0.419077
5 0.056003 -0.07 -0.33236
5 0.040595 0.08 -0.416959
5 0.040595 -0.08 -0.322225
5 0.0746589 -0.05 -0.351103
5 0.0746589 0.05 -0.417793
5 0.0805853 -0.04 -0.359781
5 0.0805853 0.04 -0.414125
5 0.00128482 0.09 -0.412998
5 0.00128482 -0.09 -0.312547
5 0.00387803 0.09 -0.413024
5 0.00387803 -0.09 -0.312564
5 0.00651881 0.09 -0.413078
5 0.00651881 -0.09 -0.312566
5 0.00920802 0.09 -0.413191
5 0.00920802 -0.09 -0.312562
5 0.0119465 0.09 -0.413359
5 0.0119465 -0.09 -0.312554
5 0.0887548 -0.02 -0.37634
5 0.0887548 0.02 -0.404297
5 0.0147353 0.09 -0.413579
5 0.0147353 -0.09 -0.312543
5 0.0439092 0.08 -0.417703
5 0.0439092 -0.08 -0.32257
5 0.0688745 -0.06 -0.342116
5 0.0688745 0.06 -0.419223
5 0.0908536 -0.01 -0.384208
5 0.0908536 0.01 -0.398251
5 0.0175752 0.09 -0.413854
5 0.0175752 -0.09 -0.312537
5 0.0866939 -0.03 -0.368463
5 0.0866939 0.03 -0.410308
5 0.0595998 0.07 -0.419819
5 0.0595998 -0.07 -0.332741
5 0.0204672 0.09 -0.414188
5 0.0204672 -0.09 -0.312546
5 0.0472842 0.08 -0.418471
5 0.0472842 -0.08 -0.322933
5 0.0929523 0 -0.391443
5 0.0234122 0.09 -0.414591
5 0.0234122 -0.09 -0.312585
5 0.0785979 -0.05 -0.351506
5 0.0785979 0.05 -0.418457
5 0.0846329 -0.04 -0.360193
5 0.0846329 0.04 -0.414704
5 0.0264113 0.09 -0.415066
5 0.0264113 -0.09 -0.312668
5 0.0727073 -0.06 -0.342514
5 0.0727073 0.06 -0.419951
5 0.0632626 -0.07 -0.333128
5 0.0632626 0.07 -0.420566
5 0.0294653 0.09 -0.415613
5 0.0294653 -0.09 -0.312808
5 0.0507211 0.08 -0.419248
5 0.0507211 -0.08 -0.323303
5 0.0929523 -0.02 -0.376755
5 0.0929523 0.02 -0.404778
5 0.0950896 -0.01 -0.384611
5 0.0950896 0.01 -0.398701
5 0.0908536 -0.03 -0.368885
5 0.0908536 0.03 -0.410833
5 0.0325754 0.09 -0.416232
5 0.0325754 -0.09 -0.313008
5 0.0826091 -0.05 -0.351917
5 0.0826091 0.05 -0.419081
5 0.054221 0.08 -0.420029
5 0.054221 -0.08 -0.323678
5 0.0357425 0.09 -0.416918
5 0.0357425 -0.09 -0.313265
5 0.0669925 -0.07 -0.333521
5 0.0669925 0.07 -0.421321
5 0.0972268 0 -0.391865
5 0.0766105 -0.06 -0.342919
5 0.0766105 0.06 -0.420665
5 0.0887548 -0.04 -0.360615
5 0.0887548 0.04 -0.415255
5 0.0389677 0.09 -0.417663
5 0.0389677 -0.09 -0.313565
5 0.0577851 -0.08 -0.324058
5 0.0577851 0.08 -0.420816
5 0.0972268 -0.02 -0.377175
5 0.0972268 0.02 -0.405239
5 0.0422521 0.09 -0.418454
5 0.0422521 -0.09 -0.3139
5 0.0707909 -0.07 -0.33392
5 0.0707909 0.07 -0.422079
5 0.0950896 -0.03 -0.369316
5 0.0950896 0.03 -0.411328
5 0.0994033 -0.01 -0.385012
5 0.0994033 0.01 -0.399136
5 0 0.1 -0.41299
5 0 -0.1 -0.304111
5 0.00256965 0.1 -0.412985
5 0.00256965 -0.1 -0.304125
5 0.0866939 -0.05 -0.352339
5 0.0866939 0.05 -0.419666
5 0.00518642 0.1 -0.413009
5 0.00518642 -0.1 -0.304139
5 0.00785119 0.1 -0.413099
5 0.00785119 -0.1 -0.304139
5 0.0805853 -0.06 -0.343333
5 0.0805853 0.06 -0.421354
5 0.0105648 0.1 -0.413256
5 0.0105648 -0.1 -0.304136
5 0.0614146 -0.08 -0.324442
5 0.0614146 0.08 -0.421611
5 0.0133283 0.1 -0.413483
5 0.0133283 -0.1 -0.304131
5 0.0455967 0.09 -0.419272
5 0.0455967 -0.09 -0.314258
5 0.0929523 -0.04 -0.36105
5 0.0929523 0.04 -0.415775
5 0.0161424 0.1 -0.413785
5 0.0161424 -0.1 -0.304128
5 0.10158 0 -0.392278
5 0.0190081 0.1 -0.414165
5 0.0190081 -0.1 -0.304136
5 0.0746589 -0.07 -0.334326
5 0.0746589 0.07 -0.422832
5 0.0219263 0.1 -0.414627
5 0.0219263 -0.1 -0.304166
5 0.0490026 0.09 -0.420101
5 0.0490026 -0.09 -0.314625
5 0.0248981 0.1 -0.415172
5 0.0248981 -0.1 -0.304234
5 0.0651106 -0.08 -0.324832
5 0.0651106 0.08 -0.422417
5 0.10158 -0.02 -0.3776
5 0.10158 0.02 -0.405671
5 0.0908536 -0.05 -0.352774
5 0.0908536 0.05 -0.420215
5 0.0846329 -0.06 -0.343756
5 0.0846329 0.06 -0.422011
5 0.0279244 0.1 -0.415798
5 0.0279244 -0.1 -0.304352
5 0.0994033 -0.03 -0.369759
5 0.0994033 0.03 -0.411789
5 0.052471 0.09 -0.420932
5 0.052471 -0.09 -0.314996
5 0.103796 -0.01 -0.385413
5 0.103796 0.01 -0.39955
5 0.0310063 0.1 -0.416498
5 0.0310063 -0.1 -0.304528
5 0.0972268 -0.04 -0.361499
5 0.0972268 0.04 -0.416257
5 0.0785979 -0.07 -0.334741
5 0.0785979 0.07 -0.423578
5 0.0688745 -0.08 -0.325228
5 0.0688745 0.08 -0.423233
5 0.0341446 0.1 -0.417266
5 0.0341446 -0.1 -0.304762
5 0.056003 0.09 -0.421766
5 0.056003 -0.09 -0.315374
5 0.106012 0 -0.392679
5 0.0373405 0.1 -0.418093
5 0.0373405 -0.1 -0.305045
5 0.0887548 -0.06 -0.344193
5 0.0887548 0.06 -0.422639
5 0.0950896 -0.05 -0.353225
5 0.0950896 0.05 -0.420724
5 0.106012 -0.02 -0.378034
5 0.106012 0.02 -0.406071
5 0.040595 0.1 -0.418968
5 0.040595 -0.1 -0.305365
5 0.0595998 -0.09 -0.315756
5 0.0595998 0.09 -0.422604
5 0.103796 -0.03 -0.370216
5 0.103796 0.03 -0.41221
5 0.0727073 -0.08 -0.325631
5 0.0727073 0.08 -0.424056
5 0.0826091 -0.07 -0.335166
5 0.0826091 0.07 -0.4243
5 0.108269 -0.01 -0.385815
5 0.108269 0.01 -0.399938
5 0.10158 -0.04 -0.361965
5 0.10158 0.04 -0.416699
5 0.0439092 0.1 -0.419876
5 0.0439092 -0.1 -0.30571
5 0.00128482 0.11 -0.412981
5 0.00128482 -0.11 -0.295675
5 0.0632626 -0.09 -0.316143
5 0.0632626 0.09 -0.423456
5 0.00387803 0.11 -0.412939
5 0.00387803 -0.11 -0.295712
5 0.00651881 0.11 -0.412998
5 0.00651881 -0.11 -0.295714
5 0.00920802 0.11 -0.413129
5 0.00920802 -0.11 -0.295714
5 0.110526 0 -0.393067
5 0.0472842 0.1 -0.420799
5 0.0472842 -0.1 -0.306069
5 0.0929523 -0.06 -0.344644
5 0.0929523 0.06 -0.423232
5 0.0119465 0.11 -0.413343
5 0.0119465 -0.11 -0.295713
5 0.0766105 -0.08 -0.326042
5 0.0766105 0.08 -0.424878
5 0.0147353 0.11 -0.413651
5 0.0147353 -0.11 -0.295713
5 0.0994033 -0.05 -0.353696
5 0.0994033 0.05 -0.421188
5 0.0175752 0.11 -0.414057
5 0.0175752 -0.11 -0.295719
5 0.0866939 -0.07 -0.335603
5 0.0866939 0.07 -0.424999
5 0.0204672 0.11 -0.414562
5 0.0204672 -0.11 -0.295741
5 0.0507211 0.1 -0.421727
5 0.0507211 -0.1 -0.306434
5 0.0669925 -0.09 -0.316537
5 0.0669925 0.09 -0.424325
5 0.110526 -0.02 -0.378481
5 0.110526 0.02 -0.406435
5 0.108269 -0.03 -0.370693
5 0.108269 0.03 -0.412588
5 0.0234122 0.11 -0.415167
5 0.0234122 -0.11 -0.295793
5 0.0264113 0.11 -0.415866
5 0.0264113 -0.11 -0.29589
5 0.112825 -0.01 -0.386223
5 0.112825 0.01 -0.400295
5 0.106012 -0.04 -0.362452
5 0.106012 0.04 -0.417097
5 0.0805853 -0.08 -0.326461
5 0.0805853 0.08 -0.425693
5 0.054221 0.1 -0.422654
5 0.054221 -0.1 -0.306805
5 0.0294653 0.11 -0.416648
5 0.0294653 -0.11 -0.296042
5 0.0972268 -0.06 -0.345113
5 0.0972268 0.06 -0.423787
5 0.0707909 -0.09 -0.316936
5 0.0707909 0.09 -0.425209
5 0.0908536 -0.07 -0.336054
5 0.0908536 0.07 -0.425674
5 0.0325754 0.11 -0.417501
5 0.0325754 -0.11 -0.296256
5 0.115123 0 -0.393446
5 0.103796 -0.05 -0.354189
5 0.103796 0.05 -0.421609
5 0.0577851 -0.1 -0.30718
5 0.0577851 0.1 -0.423582
5 0.0357425 0.11 -0.418414
5 0.0357425 -0.11 -0.296522
5 0.0846329 -0.08 -0.326892
5 0.0846329 0.08 -0.426493
5 0.0389677 0.11 -0.419376
5 0.0389677 -0.11 -0.296828
5 0.112825 -0.03 -0.371193
5 0.112825 0.03 -0.412918
5 0.115123 -0.02 -0.378946
5 0.115123 0.02 -0.406757
5 0.0746589 -0.09 -0.317342
5 0.0746589 0.09 -0.426102
5 0.0614146 -0.1 -0.307561
5 0.0614146 0.1 -0.424517
5 0.110526 -0.04 -0.362965
5 0.110526 0.04 -0.417448
5 0.0422521 0.11 -0.420377
5 0.0422521 -0.11 -0.297166
5 0.117464 -0.01 -0.386644
5 0.117464 0.01 -0.400621
5 0.10158 -0.06 -0.345605
5 0.10158 0.06 -0.424298
5 0.0950896 -0.07 -0.336522
5 0.0950896 0.07 -0.426316
5 0.0455967 0.11 -0.4214
5 0.0455967 -0.11 -0.297518
5 0.108269 -0.05 -0.35471
5 0.108269 0.05 -0.421982
5 0.0651106 -0.1 -0.307947
5 0.0651106 0.1 -0.425464
5 0.0887548 -0.08 -0.327335
5 0.0887548 0.08 -0.427271
5 0.0785979 -0.09 -0.317757
5 0.0785979 0.09 -0.427
5 0.119804 -3.70074e-17 -0.393816
5 0 0.12 -0.413092
5 0 -0.12 -0.287509
5 0.00256965 0.12 -0.413052
5 0.00256965 -0.12 -0.287529
5 0.00518642 0.12 -0.413048
5 0.00518642 -0.12 -0.28755
5 0.00785119 0.12 -0.413163
5 0.00785119 -0.12 -0.287553
5 0.0490026 0.11 -0.422426
5 0.0490026 -0.11 -0.297876
5 0.0105648 0.12 -0.413373
5 0.0105648 -0.12 -0.287556
5 0.0133283 0.12 -0.413698
5 0.0133283 -0.12 -0.28756
5 0.0161424 0.12 -0.414149
5 0.0161424 -0.12 -0.287568
5 0.117464 -0.03 -0.371722
5 0.117464 0.03 -0.413195
5 0.0688745 -0.1 -0.308339
5 0.0688745 0.1 -0.426424
5 0.119804 -0.02 -0.379434
5 0.119804 0.02 -0.407037
5 0.0190081 0.12 -0.414732
5 0.0190081 -0.12 -0.287587
5 0.0994033 -0.07 -0.337011
5 0.0994033 0.07 -0.426919
5 0.106012 -0.06 -0.346122
5 0.106012 0.06 -0.424761
5 0.052471 0.11 -0.423449
5 0.052471 -0.11 -0.29824
5 0.115123 -0.04 -0.363507
5 0.115123 0.04 -0.417749
5 0.0219263 0.12 -0.415446
5 0.0219263 -0.12 -0.287629
5 0.0826091 -0.09 -0.318181
5 0.0826091 0.09 -0.427895
5 0.0248981 0.12 -0.416277
5 0.0248981 -0.12 -0.287707
5 0.122188 -0.01 -0.387084
5 0.122188 0.01 -0.400916
5 0.0929523 -0.08 -0.327793
5 0.0929523 0.08 -0.42802
5 0.0279244 0.12 -0.417208
5 0.0279244 -0.12 -0.287835
5 0.112825 -0.05 -0.355263
5 0.112825 0.05 -0.422305
5 0.056003 0.11 -0.424469
5 0.056003 -0.11 -0.298608
5 0.0727073 -0.1 -0.308737
5 0.0727073 0.1 -0.427396
5 0.0310063 0.12 -0.418215
5 0.0310063 -0.12 -0.288019
5 0.124571 0 -0.394182
5 0.0341446 0.12 -0.41928
5 0.0341446 -0.12 -0.288259
5 0.0866939 -0.09 -0.318617
5 0.0866939 0.09 -0.428777
5 0.0595998 -0.11 -0.298982
5 0.0595998 0.11 -0.42549
5 0.103796 -0.07 -0.337524
5 0.103796 0.07 -0.427476
5 0.0373405 0.12 -0.420386
5 0.0373405 -0.12 -0.288546
5 0.110526 -0.06 -0.34667
5 0.110526 0.06 -0.425172
5 0.122188 -0.03 -0.372286
5 0.122188 0.03 -0.413416
5 0.0972268 -0.08 -0.328271
5 0.0972268 0.08 -0.428733
5 0.0766105 -0.1 -0.309143
5 0.0766105 0.1 -0.428375
5 0.124571 -0.02 -0.379951
5 0.124571 0.02 -0.407274
5 0.119804 -0.04 -0.364083
5 0.119804 0.04 -0.417995
5 0.040595 0.12 -0.421521
5 0.040595 -0.12 -0.288866
5 0.0632626 -0.11 -0.299361
5 0.0632626 0.11 -0.426518
5 0.126999 -0.01 -0.387544
5 0.126999 0.01 -0.401183
5 0.117464 -0.05 -0.35585
5 0.117464 0.05 -0.422576
5 0.0439092 0.12 -0.422669
5 0.0439092 -0.12 -0.289205
5 0.0908536 -0.09 -0.319066
5 0.0908536 0.09 -0.429633
5 0.0805853 -0.1 -0.309557
5 0.0805853 0.1 -0.429356
5 0.0669925 -0.11 -0.299746
5 0.0669925 0.11 -0.427556
5 0.108269 -0.07 -0.338066
5 0.108269 0.07 -0.427979
5 0.0472842 0.12 -0.423809
5 0.0472842 -0.12 -0.289554
5 0.10158 -0.08 -0.328769
5 0.10158 0.08 -0.429401
5 0.129426 0 -0.394544
5 0.115123 -0.06 -0.34725
5 0.115123 0.06 -0.425528
5 0.00128482 0.13 -0.413203
5 0.00128482 -0.13 -0.279343
5 0.00387803 0.13 -0.413087
5 0.00387803 -0.13 -0.279386
5 0.00651881 0.13 -0.413171
5 0.00651881 -0.13 -0.279389
5 0.0507211 0.12 -0.424924
5 0.0507211 -0.12 -0.289908
5 0.00920802 0.13 -0.413354
5 0.00920802 -0.13 -0.279395
5 0.126999 -0.03 -0.372892
5 0.126999 0.03 -0.413582
5 0.0119465 0.13 -0.413666
5 0.0119465 -0.13 -0.279402
5 0.0707909 -0.11 -0.300136
5 0.0707909 0.11 -0.428606
5 0.0147353 0.13 -0.41413
5 0.0147353 -0.13 -0.279411
5 0.124571 -0.04 -0.3647
5 0.124571 0.04 -0.418187
5 0.0950896 -0.09 -0.319532
5 0.0950896 0.09 -0.430456
5 0.129426 -0.02 -0.380501
5 0.129426 0.02 -0.407472
5 0.0846329 -0.1 -0.30998
5 0.0846329 0.1 -0.430333
5 0.0175752 0.13 -0.414758
5 0.0175752 -0.13 -0.279428
5 0.0204672 0.13 -0.415553
5 0.0204672 -0.13 -0.27946
5 0.054221 -0.12 -0.290266
5 0.054221 0.12 -0.426016
5 0.122188 -0.05 -0.356476
5 0.122188 0.05 -0.422793
5 0.0234122 0.13 -0.416501
5 0.0234122 -0.13 -0.279521
5 0.131897 -0.01 -0.388023
5 0.131897 0.01 -0.401427
5 0.0264113 0.13 -0.417576
5 0.0264113 -0.13 -0.279625
5 0.112825 -0.07 -0.33864
5 0.112825 0.07 -0.428423
5 0.106012 -0.08 -0.329293
5 0.106012 0.08 -0.430019
5 0.0746589 -0.11 -0.300533
5 0.0746589 0.11 -0.429666
5 0.0577851 -0.12 -0.290629
5 0.0577851 0.12 -0.427091
5 0.0294653 0.13 -0.418743
5 0.0294653 -0.13 -0.279782
5 0.0887548 -0.1 -0.310416
5 0.0887548 0.1 -0.431296
5 0.119804 -0.06 -0.347867
5 0.119804 0.06 -0.425824
5 0.0325754 0.13 -0.41997
5 0.0325754 -0.13 -0.279996
5 0.0994033 -0.09 -0.320018
5 0.0994033 0.09 -0.431238
5 0.134369 0 -0.394907
5 0.0614146 -0.12 -0.290997
5 0.0614146 0.12 -0.428159
5 0.0357425 0.13 -0.421235
5 0.0357425 -0.13 -0.280264
5 0.0785979 -0.11 -0.300938
5 0.0785979 0.11 -0.430731
5 0.131897 -0.03 -0.373546
5 0.131897 0.03 -0.413696
5 0.129426 -0.04 -0.365361
5 0.129426 0.04 -0.418325
5 0.0389677 0.13 -0.42252
5 0.0389677 -0.13 -0.28057
5 0.134369 -0.02 -0.381085
5 0.134369 0.02 -0.407638
5 0.110526 -0.08 -0.329846
5 0.110526 0.08 -0.43058
5 0.126999 -0.05 -0.357145
5 0.126999 0.05 -0.422955
5 0.0651106 -0.12 -0.29137
5 0.0651106 0.12 -0.429226
5 0.0929523 -0.1 -0.310865
5 0.0929523 0.1 -0.432236
5 0.0422521 0.13 -0.423812
5 0.0422521 -0.13 -0.280899
5 0.117464 -0.07 -0.339248
5 0.117464 0.07 -0.428805
5 0.136886 -0.01 -0.38852
5 0.136886 0.01 -0.401657
5 0.103796 -0.09 -0.320525
5 0.103796 0.09 -0.431972
5 0.0826091 -0.11 -0.301351
5 0.0826091 0.11 -0.431799
5 0.0455967 0.13 -0.425089
5 0.0455967 -0.13 -0.281239
5 0.124571 -0.06 -0.348525
5 0.124571 0.06 -0.426061
5 0.0688745 -0.12 -0.291748
5 0.0688745 0.12 -0.430302
5 0.0490026 0.13 -0.42632
5 0.0490026 -0.13 -0.281583
5 0.139403 0 -0.395281
5 0.0972268 -0.1 -0.311331
5 0.0972268 0.1 -0.433142
5 0 0.14 -0.413653
5 0 -0.14 -0.271517
5 0.00256965 0.14 -0.413583
5 0.00256965 -0.14 -0.271542
5 0.0866939 -0.11 -0.301773
5 0.0866939 0.11 -0.432863
5 0.00518642 0.14 -0.413567
5 0.00518642 -0.14 -0.271567
5 0.136886 -0.03 -0.374251
5 0.136886 0.03 -0.413772
5 0.052471 0.13 -0.4275
5 0.052471 -0.13 -0.281932
5 0.115123 -0.08 -0.33043
5 0.115123 0.08 -0.431078
5 0.134369 -0.04 -0.366072
5 0.134369 0.04 -0.418414
5 0.00785119 0.14 -0.413729
5 0.00785119 -0.14 -0.271573
5 0.0727073 -0.12 -0.292132
5 0.0727073 0.12 -0.431394
5 0.0105648 0.14 -0.414024
5 0.0105648 -0.14 -0.271582
5 0.0133283 0.14 -0.414484
5 0.0133283 -0.14 -0.271593
5 0.108269 -0.09 -0.321058
5 0.108269 0.09 -0.432651
5 0.122188 -0.07 -0.339896
5 0.122188 0.07 -0.429123
5 0.139403 -0.02 -0.381705
5 0.139403 0.02 -0.407785
5 0.0161424 0.14 -0.415134
5 0.0161424 -0.14 -0.271609
5 0.131897 -0.05 -0.357862
5 0.131897 0.05 -0.423064
5 0.0190081 0.14 -0.415985
5 0.0190081 -0.14 -0.271636
5 0.056003 -0.13 -0.282285
5 0.056003 0.13 -0.428645
5 0.0219263 0.14 -0.417035
5 0.0219263 -0.14 -0.271685
5 0.0248981 0.14 -0.41826
5 0.0248981 -0.14 -0.271768
5 0.141967 -0.01 -0.389049
5 0.141967 0.01 -0.401896
5 0.0766105 -0.12 -0.292523
5 0.0766105 0.12 -0.432506
5 0.10158 -0.1 -0.311815
5 0.10158 0.1 -0.434007
5 0.129426 -0.06 -0.349228
5 0.129426 0.06 -0.426238
5 0.0908536 -0.11 -0.302208
5 0.0908536 0.11 -0.433913
5 0.0279244 0.14 -0.419622
5 0.0279244 -0.14 -0.271898
5 0.0595998 -0.13 -0.282642
5 0.0595998 0.13 -0.429763
5 0.0310063 0.14 -0.421072
5 0.0310063 -0.14 -0.272082
5 0.119804 -0.08 -0.331048
5 0.119804 0.08 -0.431507
5 0.0341446 0.14 -0.422567
5 0.0341446 -0.14 -0.27232
5 0.112825 -0.09 -0.321619
5 0.112825 0.09 -0.433268
5 0.14453 -3.70074e-17 -0.395683
5 0.0805853 -0.12 -0.29292
5 0.0805853 0.12 -0.433642
5 0.0632626 -0.13 -0.283003
5 0.0632626 0.13 -0.430864
5 0.0373405 0.14 -0.424074
5 0.0373405 -0.14 -0.272603
5 0.126999 -0.07 -0.340585
5 0.126999 0.07 -0.429373
5 0.139403 -0.04 -0.366835
5 0.139403 0.04 -0.418459
5 0.141967 -0.03 -0.375001
5 0.141967 0.03 -0.413815
5 0.0950896 -0.11 -0.302655
5 0.0950896 0.11 -0.434941
5 0.136886 -0.05 -0.358631
5 0.136886 0.05 -0.423121
5 0.106012 -0.1 -0.312321
5 0.106012 0.1 -0.434821
5 0.040595 0.14 -0.425567
5 0.040595 -0.14 -0.272916
5 0.14453 -0.02 -0.382366
5 0.14453 0.02 -0.407928
5 0.0669925 -0.13 -0.28337
5 0.0669925 0.13 -0.431965
5 0.0439092 0.14 -0.427025
5 0.0439092 -0.14 -0.273245
5 0.0846329 -0.12 -0.293325
5 0.0846329 0.12 -0.434798
5 0.134369 -0.06 -0.34998
5 0.134369 0.06 -0.426356
5 0.14714 -0.01 -0.389623
5 0.14714 0.01 -0.402166
5 0.0472842 0.14 -0.428425
5 0.0472842 -0.14 -0.27358
5 0.117464 -0.09 -0.322211
5 0.117464 0.09 -0.433814
5 0.0707909 -0.13 -0.283742
5 0.0707909 0.13 -0.43308
5 0.124571 -0.08 -0.331704
5 0.124571 0.08 -0.431862
5 0.0994033 -0.11 -0.303118
5 0.0994033 0.11 -0.435934
5 0.0507211 -0.14 -0.273917
5 0.0507211 0.14 -0.429748
5 0.110526 -0.1 -0.312849
5 0.110526 0.1 -0.435578
5 0.0887548 -0.12 -0.29374
5 0.0887548 0.12 -0.435965
5 0.131897 -0.07 -0.341321
5 0.131897 0.07 -0.42956
5 0.14975 0 -0.396131
5 0.0746589 -0.13 -0.284118
5 0.0746589 0.13 -0.434223
5 0.14453 -0.04 -0.367647
5 0.14453 0.04 -0.418467
5 0.00128482 0.15 -0.414103
5 0.00128482 -0.15 -0.263692
5 0.00387803 0.15 -0.413941
5 0.00387803 -0.15 -0.263746
5 0.054221 -0.14 -0.274257
5 0.054221 0.14 -0.43099
5 0.00651881 0.15 -0.414069
5 0.00651881 -0.15 -0.263749
5 0.14714 -0.03 -0.375791
5 0.14714 0.03 -0.413833
5 0.00920802 0.15 -0.414325
5 0.00920802 -0.15 -0.263758
5 0.0119465 0.15 -0.414752
5 0.0119465 -0.15 -0.263771
5 0.141967 -0.05 -0.359455
5 0.141967 0.05 -0.423128
5 0.0147353 0.15 -0.41539
5 0.0147353 -0.15 -0.263787
5 0.0175752 0.15 -0.41626
5 0.0175752 -0.15 -0.26381
5 0.14975 -0.02 -0.383075
5 0.14975 0.02 -0.408082
5 0.103796 -0.11 -0.303599
5 0.103796 0.11 -0.436883
5 0.0204672 0.15 -0.417371
5 0.0204672 -0.15 -0.263847
5 0.0577851 -0.14 -0.274601
5 0.0577851 0.14 -0.432152
5 0.122188 -0.09 -0.322836
5 0.122188 0.09 -0.434284
5 0.139403 -0.06 -0.350784
5 0.139403 0.06 -0.426412
5 0.0929523 -0.12 -0.294166
5 0.0929523 0.12 -0.437131
5 0.0234122 0.15 -0.418713
5 0.0234122 -0.15 -0.263912
5 0.0785979 -0.13 -0.284501
5 0.0785979 0.13 -0.435405
5 0.129426 -0.08 -0.3324
5 0.129426 0.08 -0.432141
5 0.0264113 0.15 -0.420249
5 0.0264113 -0.15 -0.264015
5 0.115123 -0.1 -0.313404
5 0.115123 0.1 -0.436268
5 0.152408 -0.01 -0.390257
5 0.152408 0.01 -0.402479
5 0.0294653 0.15 -0.421919
5 0.0294653 -0.15 -0.264169
5 0.0614146 -0.14 -0.274949
5 0.0614146 0.14 -0.433231
5 0.0325754 0.15 -0.423657
5 0.0325754 -0.15 -0.264379
5 0.136886 -0.07 -0.342106
5 0.136886 0.07 -0.429678
5 0.0826091 -0.13 -0.28489
5 0.0826091 0.13 -0.436633
5 0.0357425 0.15 -0.425407
5 0.0357425 -0.15 -0.264641
5 0.108269 -0.11 -0.304099
5 0.108269 0.11 -0.437779
5 0.0651106 -0.14 -0.275302
5 0.0651106 0.14 -0.434242
5 0.0972268 -0.12 -0.294604
5 0.0972268 0.12 -0.438282
5 0.0389677 0.15 -0.427133
5 0.0389677 -0.15 -0.264938
5 0.14975 -0.04 -0.368513
5 0.14975 0.04 -0.418446
5 0.155066 0 -0.396639
5 0.152408 -0.03 -0.37663
5 0.152408 0.03 -0.41385
5 0.14714 -0.05 -0.36034
5 0.14714 0.05 -0.423091
5 0.126999 -0.09 -0.323497
5 0.126999 0.09 -0.43467
5 0.0422521 0.15 -0.428805
5 0.0422521 -0.15 -0.265257
5 0.0688745 -0.14 -0.275661
5 0.0688745 0.14 -0.43523
5 0.119804 -0.1 -0.313987
5 0.119804 0.1 -0.436885
5 0.0866939 -0.13 -0.285287
5 0.0866939 0.13 -0.437898
5 0.155066 -0.02 -0.383846
5 0.155066 0.02 -0.408263
5 0.134369 -0.08 -0.333141
5 0.134369 0.08 -0.43234
5 0.14453 -0.06 -0.351645
5 0.14453 0.06 -0.426408
5 0.0455967 0.15 -0.430396
5 0.0455967 -0.15 -0.265585
5 0.10158 -0.12 -0.295056
5 0.10158 0.12 -0.439404
5 0.112825 -0.11 -0.304621
5 0.112825 0.11 -0.438613
5 0.0727073 -0.14 -0.276023
5 0.0727073 0.14 -0.436251
5 0.0490026 0.15 -0.431895
5 0.0490026 -0.15 -0.265912
5 0.157773 -0.01 -0.390968
5 0.157773 0.01 -0.402853
5 0.141967 -0.07 -0.342944
5 0.141967 0.07 -0.429722
5 0.0908536 -0.13 -0.285692
5 0.0908536 0.13 -0.439188
5 0.052471 -0.15 -0.266241
5 0.052471 0.15 -0.433279
5 0.0766105 -0.14 -0.276389
5 0.0766105 0.14 -0.437337
5 0.131897 -0.09 -0.324198
5 0.131897 0.09 -0.434963
5 0.124571 -0.1 -0.314601
5 0.124571 0.1 -0.437418
5 0 0.16 -0.414324
5 0 -0.16 -0.256252
5 0.00256965 0.16 -0.41425
5 0.00256965 -0.16 -0.256282
5 0.00518642 0.16 -0.414247
5 0.00518642 -0.16 -0.256312
5 0.056003 -0.15 -0.266571
5 0.056003 0.15 -0.434538