# U  POINT_DATA 90431
# x  y  z  U_x  U_y  U_z
5 0 0 0 0 0
5 0.00256965 0 -0.0684484 -0.000881632 0.271608
5 0.00518642 0 -0.0518977 -0.00169064 0.372825
5 0.00785119 0 -0.00774494 -0.00277241 0.471968
5 0.00128482 0.01 -0.0742217 -0.000693411 0.217675
5 0.00128482 -0.01 -0.0640926 -0.000697601 0.224317
5 0.0105648 0 0.0582581 -0.00361241 0.56591
5 0.00387803 0.01 -0.0750462 -0.00105234 0.31829
5 0.00387803 -0.01 -0.0604331 -0.00108323 0.326165
5 0.00651881 0.01 -0.0454714 -0.00229584 0.41925
5 0.00651881 -0.01 -0.0266351 -0.00233135 0.42761
5 0.0133283 0 0.140398 -0.00428551 0.652869
5 0.00920802 0.01 0.00919531 -0.00320713 0.51644
5 0.00920802 -0.01 0.0319407 -0.00325546 0.524586
5 0.0119465 0.01 0.0827482 -0.00396861 0.607665
5 0.0119465 -0.01 0.109161 -0.00401857 0.614965
5 0.0161424 0 0.233842 -0.00478984 0.731368
5 0.0147353 0.01 0.169892 -0.00455472 0.691456
5 0.0147353 -0.01 0.199804 -0.00460025 0.697404
5 0.0190081 0 0.334361 -0.0051535 0.79984
5 0 0.02 0 0 0
5 0 -0.02 0 0 0
5 0.00256965 0.02 -0.078955 -0.000835791 0.264387
5 0.00256965 -0.02 -0.0546184 -0.000873178 0.278488
5 0.0175752 0.01 0.26623 -0.00498168 0.766172
5 0.0175752 -0.01 0.29946 -0.00502277 0.770456
5 0.00518642 0.02 -0.0664047 -0.0015993 0.364661
5 0.00518642 -0.02 -0.0334846 -0.00169115 0.380403
5 0.00785119 0.02 -0.0260954 -0.00263506 0.463509
5 0.00785119 -0.02 0.0148424 -0.00274619 0.47946
5 0.0219263 0 0.437934 -0.00541571 0.856996
5 0.0105648 0.02 0.0362822 -0.00344132 0.557761
5 0.0105648 -0.02 0.0846778 -0.0035786 0.572617
5 0.0204672 0.01 0.36774 -0.00528668 0.830104
5 0.0204672 -0.01 0.404032 -0.00532292 0.832642
5 0.0133283 0.02 0.114966 -0.00409446 0.645548
5 0.0133283 -0.02 0.170404 -0.00423801 0.658205
5 0.0248981 0 0.540701 -0.00560518 0.902455
5 0.0234122 0.01 0.470498 -0.00550786 0.882194
5 0.0234122 -0.01 0.509486 -0.00554543 0.883055
5 0.0161424 0.02 0.205093 -0.00458608 0.725245
5 0.0161424 -0.02 0.26722 -0.00472731 0.73492
5 0.0190081 0.02 0.302469 -0.00493878 0.795075
5 0.0190081 -0.02 0.37084 -0.00507665 0.801406
5 0.0279244 0 0.6392 -0.00571669 0.937034
5 0.0264113 0.01 0.570825 -0.00565911 0.922671
5 0.0264113 -0.01 0.612015 -0.00570837 0.921907
5 0.0219263 0.02 0.403155 -0.00518761 0.853564
5 0.0219263 -0.02 0.477142 -0.00532791 0.856564
5 0.00128482 0.03 -0.0810632 -0.000646495 0.211147
5 0.00128482 -0.03 -0.0513534 -0.000607664 0.230331
5 0.00387803 0.03 -0.0854891 -0.000950966 0.310449
5 0.00387803 -0.03 -0.0425938 -0.00110428 0.333157
5 0.00651881 0.03 -0.0596077 -0.00209826 0.410672
5 0.00651881 -0.03 -0.00427055 -0.00224592 0.434695
5 0.0310063 0 0.730621 -0.00571466 0.962442
5 0.0294653 0.01 0.665652 -0.00570918 0.953061
5 0.0294653 -0.01 0.708329 -0.0057901 0.950505
5 0.00920802 0.03 -0.00848907 -0.00293915 0.507691
5 0.00920802 -0.03 0.0583445 -0.00315215 0.530966
5 0.0248981 0.02 0.503389 -0.00535574 0.900273
5 0.0248981 -0.02 0.582131 -0.00551465 0.900084
5 0.0119465 0.03 0.0616864 -0.00365051 0.599264
5 0.0119465 -0.03 0.139278 -0.00388834 0.619964
5 0.0147353 0.03 0.145554 -0.00420409 0.683823
5 0.0147353 -0.03 0.23339 -0.00444498 0.700501
5 0.0325754 0.01 0.75267 -0.00561757 0.975479
5 0.0325754 -0.01 0.795851 -0.00574177 0.970728
5 0.0341446 0 0.812794 -0.00553659 0.980597
5 0.0279244 0.02 0.599858 -0.00543492 0.936158
5 0.0279244 -0.02 0.682152 -0.00563692 0.932684
5 0.0175752 0.03 0.238714 -0.0046039 0.759542
5 0.0175752 -0.03 0.336244 -0.00484133 0.771334
5 0.0204672 0.03 0.337211 -0.0048829 0.824495
5 0.0204672 -0.03 0.443643 -0.00511966 0.831205
5 0.0310063 0.02 0.689973 -0.0053816 0.963184
5 0.0310063 -0.02 0.774156 -0.00566731 0.955888
5 0.0357425 0.01 0.830093 -0.00528108 0.991793
5 0.0357425 -0.01 0.872579 -0.00550589 0.984393
5 0.0373405 0 0.883894 -0.00510898 0.993078
5 0.0234122 0.03 0.437193 -0.00507303 0.877475
5 0.0234122 -0.03 0.55143 -0.00532368 0.879365
5 0.0341446 0.02 0.771797 -0.00511521 0.983437
5 0.0341446 -0.02 0.855742 -0.00555598 0.971512
5 0.0264113 0.03 0.535061 -0.00518299 0.918759
5 0.0264113 -0.03 0.655612 -0.00548117 0.916015
5 0 0.04 0 0 0
5 0 -0.04 0 0 0
5 0.00256965 0.04 -0.0856153 -0.000725787 0.257656
5 0.00256965 -0.04 -0.0384292 -0.000811666 0.284266
5 0.0389677 0.01 0.896209 -0.00464733 1.00319
5 0.0389677 -0.01 0.936709 -0.0050015 0.992943
5 0.00518642 0.04 -0.0762938 -0.00138407 0.356902
5 0.00518642 -0.04 -0.0123965 -0.00163789 0.386497
5 0.040595 0 0.942195 -0.00437357 1.00098
5 0.00785119 0.04 -0.0393016 -0.0022869 0.45521
5 0.00785119 -0.04 0.0402111 -0.00260176 0.485
5 0.0105648 0.04 0.0198777 -0.00299439 0.549393
5 0.0105648 -0.04 0.113871 -0.00339834 0.576864
5 0.0294653 0.03 0.627913 -0.00518841 0.950147
5 0.0294653 -0.03 0.752671 -0.00556806 0.942316
5 0.0133283 0.04 0.0954904 -0.00357383 0.637514
5 0.0133283 -0.04 0.203103 -0.00402143 0.660583
5 0.0373405 0.02 0.843658 -0.00455407 0.998397
5 0.0373405 -0.02 0.924963 -0.00523654 0.981261
5 0.0161424 0.04 0.182637 -0.00401175 0.717805
5 0.0161424 -0.04 0.303127 -0.00447536 0.735036
5 0.0422521 0.01 0.949211 -0.00365466 1.01026
5 0.0422521 -0.01 0.986661 -0.00419056 0.997525
5 0.0439092 0 0.98639 -0.00329438 1.00516
5 0.0325754 0.03 0.713677 -0.00501122 0.974056
5 0.0325754 -0.03 0.839791 -0.00556928 0.960006
5 0.0190081 0.04 0.27714 -0.00431972 0.788289
5 0.0190081 -0.04 0.409584 -0.00479144 0.799077
5 0.040595 0.02 0.903811 -0.00363194 1.00878
5 0.040595 -0.02 0.980236 -0.00465374 0.986587
5 0.0219263 0.04 0.375109 -0.00452203 0.847309
5 0.0219263 -0.04 0.518227 -0.00501241 0.85179
5 0.0357425 0.03 0.790767 -0.00455087 0.992425
5 0.0357425 -0.03 0.914763 -0.00540694 0.970923
5 0.0455967 0.01 0.987858 -0.0022679 1.01375
5 0.0455967 -0.01 1.02184 -0.00306408 0.999127
5 0.0248981 0.04 0.472834 -0.00463726 0.894387
5 0.0248981 -0.04 0.624895 -0.00517514 0.892935
5 0.0472842 0 1.0166 -0.00187637 1.00659
5 0.0439092 0.02 0.950629 -0.0023013 1.01506
5 0.0439092 -0.02 1.02077 -0.00378046 0.988721
5 0.0279244 0.04 0.567082 -0.004656 0.930655
5 0.0279244 -0.04 0.725728 -0.00528969 0.923166
5 0.0389677 0.03 0.857579 -0.00373684 1.00619
5 0.0389677 -0.03 0.975817 -0.00503172 0.976786
5 0.0490026 0.01 1.01287 -0.000524238 1.01473
5 0.0490026 -0.01 1.04385 -0.00164886 0.998754
5 0.00128482 0.05 -0.0844429 -0.000529399 0.205487
5 0.00128482 -0.05 -0.0369554 -0.000410604 0.235094
5 0.00387803 0.05 -0.0914667 -0.000776328 0.303554
5 0.00387803 -0.05 -0.0228124 -0.00112421 0.3385
5 0.00651881 0.05 -0.068608 -0.00171088 0.402947
5 0.00651881 -0.05 0.0200972 -0.00207733 0.43965
5 0.0310063 0.04 0.655414 -0.00452213 0.958382
5 0.0310063 -0.04 0.817451 -0.00533673 0.94389
5 0.0507211 0 1.03516 -0.000153805 1.00624
5 0.00920802 0.05 -0.0204936 -0.00239944 0.499548
5 0.00920802 -0.05 0.0866839 -0.00293176 0.534703
5 0.0472842 0.02 0.983579 -0.000547577 1.01792
5 0.0472842 -0.02 1.04749 -0.00262312 0.988743
5 0.0119465 0.05 0.0468189 -0.00298856 0.591086
5 0.0119465 -0.05 0.171193 -0.00362122 0.621837
5 0.0422521 0.03 0.912258 -0.00248866 1.01549
5 0.0422521 -0.03 1.02177 -0.00439101 0.979096
5 0.0147353 0.05 0.127917 -0.00345225 0.675898
5 0.0147353 -0.05 0.268568 -0.00413126 0.700042
5 0.0341446 0.04 0.736087 -0.00414216 0.979857
5 0.0341446 -0.04 0.897474 -0.00527412 0.956899
5 0.0175752 0.05 0.21838 -0.00378682 0.751971
5 0.0175752 -0.05 0.374326 -0.00448393 0.76828
5 0.052471 0.01 1.02749 0.00153516 1.01407
5 0.052471 -0.01 1.05644 2.32158e-05 0.997408
5 0.0204672 0.05 0.314274 -0.00400532 0.81716
5 0.0204672 -0.05 0.484143 -0.0047209 0.825502
5 0.054221 0 1.04587 0.00182713 1.00499
5 0.0507211 0.02 1.00431 0.00159793 1.0184
5 0.0507211 -0.02 1.06339 -0.00120557 0.987593
5 0.0455967 0.03 0.953199 -0.000793611 1.02073
5 0.0455967 -0.03 1.05282 -0.00347594 0.979136
5 0.0373405 0.04 0.807588 -0.00342278 0.996493
5 0.0373405 -0.04 0.963824 -0.00505019 0.964062
5 0.0234122 0.05 0.411779 -0.00412689 0.870118
5 0.0234122 -0.05 0.593713 -0.00488542 0.871099
5 0.0264113 0.05 0.507322 -0.00416613 0.911205
5 0.0264113 -0.05 0.698847 -0.0050103 0.905268
5 0.056003 0.01 1.03589 0.0038239 1.01274
5 0.056003 -0.01 1.06367 0.00192683 0.995747
5 0.040595 0.04 0.868237 -0.0022773 1.0087
5 0.040595 -0.04 1.0152 -0.00460578 0.967139
5 0.0490026 0.03 0.980397 0.00139595 1.02246
5 0.0490026 -0.03 1.07146 -0.00230325 0.977955
5 0.0577851 0 1.05226 0.00403757 1.00334
5 0.054221 0.02 1.01639 0.00406333 1.01757
5 0.054221 -0.02 1.0724 0.000458732 0.985965
5 0.0294653 0.05 0.598049 -0.00408646 0.942518
5 0.0294653 -0.05 0.795804 -0.00509926 0.929071
5 0.0439092 0.04 0.9163 -0.000646357 1.01656
5 0.0439092 -0.04 1.05147 -0.00390505 0.967654
5 0.0325754 0.05 0.682035 -0.00380236 0.966813
5 0.0325754 -0.05 0.881559 -0.00511032 0.94417
5 0 0.06 0 0 0
5 0 -0.06 0 0 0
5 0.00256965 0.06 -0.0886309 -0.000533006 0.252113
5 0.00256965 -0.06 -0.0210072 -0.000722291 0.288383
5 0.00518642 0.06 -0.0817496 -0.00101928 0.350397
5 0.00518642 -0.06 0.00999257 -0.00153698 0.39047
5 0.0595998 0.01 1.04121 0.00634308 1.01084
5 0.0595998 -0.01 1.06828 0.00405716 0.994046
5 0.052471 0.03 0.996512 0.00398548 1.02236
5 0.052471 -0.03 1.08181 -0.000892974 0.976253
5 0.00785119 0.06 -0.0474747 -0.00167124 0.448082
5 0.00785119 -0.06 0.0668006 -0.00238892 0.487921
5 0.0105648 0.06 0.00906505 -0.00218512 0.541978
5 0.0105648 -0.06 0.144127 -0.00312114 0.578035
5 0.0577851 0.02 1.02354 0.00678637 1.01593
5 0.0577851 -0.02 1.07775 0.00235523 0.984272
5 0.0614146 0 1.05658 0.00647596 1.00167
5 0.0357425 0.05 0.757886 -0.00320408 0.986138
5 0.0357425 -0.05 0.9538 -0.0050099 0.9525
5 0.0133283 0.06 0.0821929 -0.00260812 0.630086
5 0.0133283 -0.06 0.236646 -0.0036862 0.659495
5 0.0472842 0.04 0.950866 0.00149504 1.02042
5 0.0472842 -0.04 1.0744 -0.00295015 0.966794
5 0.0161424 0.06 0.166987 -0.00292813 0.710492
5 0.0161424 -0.06 0.339587 -0.00408516 0.731374
5 0.0190081 0.06 0.259254 -0.00314824 0.781001
5 0.0190081 -0.06 0.448498 -0.00434793 0.792726
5 0.0389677 0.05 0.824135 -0.00219911 1.00123
5 0.0389677 -0.05 1.01093 -0.00475213 0.956041
5 0.056003 0.03 1.00569 0.00690953 1.02112
5 0.056003 -0.03 1.08767 0.000778356 0.974454
5 0.0219263 0.06 0.355093 -0.00328141 0.839758
5 0.0219263 -0.06 0.558984 -0.00451743 0.842799
5 0.0632626 0.01 1.04518 0.00910786 1.00932
5 0.0632626 -0.01 1.07167 0.00639651 0.992454
5 0.0614146 0.02 1.02833 0.00973425 1.01392
5 0.0614146 -0.02 1.08134 0.00446024 0.98271
5 0.0507211 0.04 0.973042 0.00412835 1.02134
5 0.0507211 -0.04 1.08753 -0.00175196 0.965337
5 0.0248981 0.06 0.450765 -0.00333632 0.886247
5 0.0248981 -0.06 0.666705 -0.00463447 0.881415
5 0.0651106 0 1.05996 0.00910652 1.0002
5 0.0422521 0.05 0.878987 -0.000684249 1.01192
5 0.0422521 -0.05 1.0523 -0.00424812 0.956633
5 0.0279244 0.06 0.54301 -0.00329155 0.921793
5 0.0279244 -0.06 0.767598 -0.00472272 0.909185
5 0.0595998 0.03 1.01137 0.0100698 1.01903
5 0.0595998 -0.03 1.09138 0.00265917 0.972842
5 0.054221 0.04 0.986027 0.00719072 1.02053
5 0.054221 -0.04 1.09477 -0.000313223 0.963714
5 0.0310063 0.06 0.629409 -0.00308005 0.948993
5 0.0310063 -0.06 0.858183 -0.00477346 0.927442
5 0.0455967 0.05 0.920766 0.00138156 1.01812
5 0.0455967 -0.05 1.079 -0.00350493 0.955752
5 0.0669925 0.01 1.04854 0.0120328 1.0079
5 0.0669925 -0.01 1.07445 0.00888979 0.991125
5 0.0651106 0.02 1.03211 0.0128596 1.01213
5 0.0651106 -0.02 1.08407 0.00674026 0.981392
5 0.0688745 0 1.06288 0.0118611 0.999089
5 0.0341446 0.06 0.708327 -0.00259932 0.970386
5 0.0341446 -0.06 0.935741 -0.0047501 0.938004
5 0.0490026 0.05 0.949111 0.0039969 1.02038
5 0.0490026 -0.05 1.09431 -0.00251621 0.954332
5 0.00128482 0.07 -0.0849267 -0.000313682 0.201186
5 0.00128482 -0.07 -0.0219177 -0.000297132 0.238199
5 0.0632626 0.03 1.01556 0.0134172 1.0165
5 0.0632626 -0.03 1.09404 0.00472878 0.971499
5 0.00387803 0.07 -0.0936886 -0.000512649 0.298239
5 0.00387803 -0.07 -0.00234082 -0.00105733 0.341755
5 0.0577851 0.04 0.993573 0.0105847 1.01867
5 0.0577851 -0.04 1.09901 0.00135121 0.962163
5 0.00651881 0.07 -0.0732316 -0.00107739 0.396864
5 0.00651881 -0.07 0.0450334 -0.0018892 0.44199
5 0.00920802 0.07 -0.027558 -0.00149734 0.492985
5 0.00920802 -0.07 0.115399 -0.00265752 0.535357
5 0.0373405 0.06 0.778427 -0.00173521 0.987389
5 0.0373405 -0.06 0.99839 -0.0045994 0.942932
5 0.0119465 0.07 0.0375042 -0.00185522 0.584309
5 0.0119465 -0.07 0.203246 -0.00327419 0.620257
5 0.0707909 -0.01 1.07692 0.0115045 0.990484
5 0.0707909 0.01 1.05161 0.0150181 1.00684
5 0.0147353 0.07 0.116545 -0.00213651 0.669067
5 0.0147353 -0.07 0.303592 -0.00371821 0.695859
5 0.0688745 -0.02 1.08635 0.00915115 0.980489
5 0.0688745 0.02 1.03545 0.0160819 1.01079
5 0.0175752 0.07 0.20512 -0.00233699 0.745047
5 0.0175752 -0.07 0.411883 -0.00400728 0.761327
5 0.040595 0.06 0.838206 -0.000380672 1.00022
5 0.040595 -0.06 1.04526 -0.00426006 0.944275
5 0.052471 0.05 0.966151 0.00713584 1.02017
5 0.052471 -0.05 1.10253 -0.00129506 0.952807
5 0.0727073 0 1.06558 0.0147089 0.99849
5 0.0204672 0.07 0.299261 -0.00246388 0.809839
5 0.0204672 -0.07 0.523662 -0.00417966 0.815806
5 0.0614146 0.04 0.998471 0.0141912 1.01632
5 0.0614146 -0.04 1.10178 0.0032048 0.960817
5 0.0669925 0.03 1.01916 0.0168817 1.01479
5 0.0669925 -0.03 1.09613 0.00694668 0.970491
5 0.0234122 0.07 0.395077 -0.00252958 0.861927
5 0.0234122 -0.07 0.63444 -0.00428376 0.858798
5 0.0439092 0.06 0.886042 0.0015466 1.00866
5 0.0439092 -0.06 1.077 -0.00368963 0.94377
5 0.0264113 0.07 0.488902 -0.0025227 0.901747
5 0.0264113 -0.07 0.73984 -0.00435841 0.890502
5 0.056003 0.05 0.975759 0.0107329 1.01845
5 0.056003 -0.05 1.10708 0.00015722 0.951342
5 0.0746589 -0.01 1.07926 0.0141843 0.990354
5 0.0746589 0.01 1.05455 0.0181298 1.00628
5 0.0727073 -0.02 1.08841 0.0116495 0.980085
5 0.0727073 0.02 1.0386 0.0193686 1.00995
5 0.0294653 0.07 0.577787 -0.00239088 0.931709
5 0.0294653 -0.07 0.835921 -0.00442294 0.911904
5 0.0472842 0.06 0.920961 0.00408628 1.01286
5 0.0472842 -0.06 1.09617 -0.00288705 0.942584
5 0.0651106 -0.04 1.10381 0.00521051 0.959751
5 0.0651106 0.04 1.00226 0.017918 1.01416
5 0.0766105 0 1.06823 0.017629 0.998454
5 0.0707909 -0.03 1.09791 0.00926439 0.969854
5 0.0707909 0.03 1.02251 0.0203961 1.01363
5 0.0325754 0.07 0.659783 -0.00204044 0.954938
5 0.0325754 -0.07 0.919465 -0.00446133 0.924625
5 0.0595998 0.05 0.981472 0.0146277 1.01607
5 0.0595998 -0.05 1.1099 0.0018106 0.950015
5 0.0507211 0.06 0.943757 0.00723563 1.01366
5 0.0507211 -0.06 1.10671 -0.00186638 0.941281
5 0.0357425 0.07 0.733621 -0.00135024 0.973659
5 0.0357425 -0.07 0.988155 -0.00441884 0.930723
5 0.0766105 -0.02 1.09039 0.0142078 0.980167
5 0.0766105 0.02 1.04169 0.0227032 1.00964
5 0.0785979 -0.01 1.08161 0.0169264 0.990734
5 0.0785979 0.01 1.0575 0.0212763 1.00645
5 0.0688745 -0.04 1.10542 0.00732732 0.959024
5 0.0688745 0.04 1.0056 0.0216997 1.01255
5 0 0.08 0 0 0
5 0 -0.08 0 0 0
5 0.00256965 0.08 -0.0890767 -0.000211536 0.24785
5 0.00256965 -0.08 -0.00336197 -0.000646403 0.290514
5 0.0389677 0.07 0.798081 -0.000187153 0.988536
5 0.0389677 -0.07 1.04069 -0.00421668 0.932465
5 0.00518642 0.08 -0.0841385 -0.000385471 0.345292
5 0.00518642 -0.08 0.032474 -0.00139267 0.391945
5 0.00785119 0.08 -0.0522277 -0.000600514 0.44238
5 0.00785119 -0.08 0.0932759 -0.0021569 0.487888
5 0.0746589 -0.03 1.09954 0.0116457 0.969646
5 0.0746589 0.03 1.02575 0.0239314 1.01303
5 0.0805853 0 1.07093 0.0205873 0.999015
5 0.0632626 0.05 0.98548 0.0186514 1.01367
5 0.0632626 -0.05 1.11183 0.00362122 0.948911
5 0.0105648 0.08 0.00205974 -0.000737367 0.535983
5 0.0105648 -0.08 0.174024 -0.00280889 0.575892
5 0.054221 0.06 0.957222 0.0109466 1.01227
5 0.054221 -0.06 1.11235 -0.000633891 0.940041
5 0.0133283 0.08 0.0732372 -0.000836179 0.624034
5 0.0133283 -0.08 0.26954 -0.00329975 0.654841
5 0.0161424 0.08 0.1564 -0.000902307 0.704436
5 0.0161424 -0.08 0.375049 -0.00362807 0.724
5 0.0422521 0.07 0.851635 0.00154822 0.999222
5 0.0422521 -0.07 1.07714 -0.0038232 0.93196
5 0.0190081 0.08 0.247338 -0.000947105 0.774728
5 0.0190081 -0.08 0.485993 -0.0038212 0.782616
5 0.0219263 0.08 0.342075 -0.000985459 0.832775
5 0.0219263 -0.08 0.597828 -0.00392303 0.830081
5 0.0727073 -0.04 1.10679 0.00952138 0.958678
5 0.0727073 0.04 1.00876 0.0254943 1.01145
5 0.0805853 -0.02 1.09243 0.0168176 0.980758
5 0.0805853 0.02 1.04481 0.0260469 1.00998
5 0.0826091 -0.01 1.08407 0.0197068 0.991602
5 0.0826091 0.01 1.06053 0.0244407 1.00728
5 0.0577851 0.06 0.964882 0.0150967 1.00978
5 0.0577851 -0.06 1.11556 0.000793275 0.938912
5 0.0455967 0.07 0.892792 0.00394145 1.00539
5 0.0455967 -0.07 1.09955 -0.0031821 0.930733
5 0.0669925 -0.05 1.11325 0.00554598 0.948104
5 0.0669925 0.05 0.988828 0.0227228 1.01167
5 0.0248981 0.08 0.436708 -0.00101539 0.877929
5 0.0248981 -0.08 0.706027 -0.00398092 0.866266
5 0.0785979 -0.03 1.10117 0.0140756 0.969934
5 0.0785979 0.03 1.02897 0.0274765 1.01278
5 0.0846329 0 1.07373 0.0235659 1.00019
5 0.0279244 0.08 0.52774 -0.00099089 0.911646
5 0.0279244 -0.08 0.806328 -0.00403035 0.891746
5 0.0490026 0.07 0.921184 0.00702594 1.00755
5 0.0490026 -0.07 1.11183 -0.00234472 0.929518
5 0.0310063 0.08 0.612543 -0.000812139 0.936867
5 0.0310063 -0.08 0.895059 -0.00407997 0.907808
5 0.0614146 -0.06 1.11758 0.00238229 0.937937
5 0.0614146 0.06 0.969554 0.019509 1.007
5 0.0766105 -0.04 1.10808 0.0117743 0.958752
5 0.0766105 0.04 1.01183 0.0292739 1.01077
5 0.0707909 -0.05 1.11438 0.00755292 0.947648
5 0.0707909 0.05 0.991913 0.0267992 1.01012
5 0.0846329 -0.02 1.09454 0.0194758 0.981906
5 0.0846329 0.02 1.04799 0.0293663 1.01105
5 0.0341446 0.08 0.689435 -0.000341852 0.956462
5 0.0341446 -0.08 0.969421 -0.00409728 0.916315
5 0.0866939 -0.01 1.08663 0.0225256 0.993166
5 0.0866939 0.01 1.06367 0.0275914 1.00872
5 0.052471 0.07 0.938588 0.0107848 1.00656
5 0.052471 -0.07 1.11819 -0.00130924 0.928467
5 0.0826091 -0.03 1.10286 0.0165625 0.970763
5 0.0826091 0.03 1.03223 0.0309951 1.0134
5 0.0373405 0.08 0.75724 0.000568933 0.971991
5 0.0373405 -0.08 1.02773 -0.0040131 0.919515
5 0.0651106 -0.06 1.11897 0.00409405 0.937171
5 0.0651106 0.06 0.972883 0.0240326 1.00439
5 0.0887548 0 1.07659 0.0265586 1.00192
5 0.056003 0.07 0.948391 0.0151342 1.0039
5 0.056003 -0.07 1.12161 -8.81132e-05 0.927547
5 0.040595 0.08 0.814772 0.00205576 0.983627
5 0.040595 -0.08 1.0697 -0.00376361 0.919697
5 0.0746589 -0.05 1.11535 0.00962321 0.947563
5 0.0746589 0.05 0.994869 0.0308519 1.00901
5 0.0805853 -0.04 1.10937 0.014084 0.959281
5 0.0805853 0.04 1.01488 0.0330078 1.01072
5 0.00128482 0.09 -0.0837846 -3.48118e-05 0.197896
5 0.00128482 -0.09 -0.00699706 -0.000303908 0.239512
5 0.00387803 0.09 -0.0939085 1.49879e-05 0.294092
5 0.00387803 -0.09 0.0178111 -0.000927345 0.342604
5 0.00651881 0.09 -0.0757224 3.31205e-05 0.391986
5 0.00651881 -0.09 0.0694 -0.00169693 0.441446
5 0.00920802 0.09 -0.0323917 0.000139523 0.487701
5 0.00920802 -0.09 0.143283 -0.00238407 0.532773
5 0.0119465 0.09 0.0306953 0.000263546 0.578955
5 0.0119465 -0.09 0.234181 -0.00291988 0.615194
5 0.0887548 -0.02 1.09667 0.0221858 0.983562
5 0.0887548 0.02 1.05125 0.0326412 1.01272
5 0.0147353 0.09 0.108218 0.00038345 0.66382
5 0.0147353 -0.09 0.337157 -0.00328677 0.688068
5 0.0439092 0.08 0.860771 0.00423186 0.990975
5 0.0439092 -0.08 1.09686 -0.00329891 0.91871
5 0.0688745 -0.06 1.11999 0.00589356 0.936663
5 0.0688745 0.06 0.975637 0.0285723 1.00213
5 0.0908536 -0.01 1.0892 0.0253877 0.995138
5 0.0908536 0.01 1.06686 0.0307308 1.01066
5 0.0175752 0.09 0.195733 0.00048081 0.739824
5 0.0175752 -0.09 0.447582 -0.00350005 0.750757
5 0.0866939 -0.03 1.10459 0.0191093 0.972094
5 0.0866939 0.03 1.03555 0.0344394 1.01479
5 0.0595998 0.07 0.953909 0.0198934 1.00069
5 0.0595998 -0.07 1.12364 0.00129383 0.926743
5 0.0204672 0.09 0.289254 0.00053163 0.804214
5 0.0204672 -0.09 0.560869 -0.00359786 0.802584
5 0.0472842 0.08 0.894515 0.00717968 0.994057
5 0.0472842 -0.08 1.11253 -0.0026185 0.917613
5 0.0929523 0 1.07939 0.0295714 1.00409
5 0.0234122 0.09 0.384726 0.00051999 0.855133
5 0.0234122 -0.09 0.672361 -0.00363087 0.843143
5 0.0785979 -0.05 1.11627 0.0117536 0.947864
5 0.0785979 0.05 0.997745 0.0348373 1.00825
5 0.0846329 -0.04 1.11068 0.0164548 0.960268
5 0.0846329 0.04 1.01793 0.0366673 1.0115
5 0.0264113 0.09 0.478145 0.000470727 0.892916
5 0.0264113 -0.09 0.777486 -0.00365066 0.872626
5 0.0727073 -0.06 1.12079 0.00775711 0.936452
5 0.0727073 0.06 0.978112 0.0330657 1.00027
5 0.0632626 -0.07 1.12496 0.002804 0.926079
5 0.0632626 0.07 0.957354 0.0248648 0.997552
5 0.0294653 0.09 0.566142 0.000479305 0.920219
5 0.0294653 -0.09 0.872087 -0.00368941 0.891957
5 0.0507211 0.08 0.916749 0.0109219 0.993543
5 0.0507211 -0.08 1.1208 -0.00175802 0.916735
5 0.0929523 -0.02 1.09868 0.0249592 0.985616
5 0.0929523 0.02 1.05446 0.0358704 1.01491
5 0.0950896 -0.01 1.09158 0.0283104 0.997497
5 0.0950896 0.01 1.06993 0.0338578 1.01307
5 0.0908536 -0.03 1.10626 0.0217218 0.973851
5 0.0908536 0.03 1.0389 0.0378045 1.01672
5 0.0325754 0.09 0.646477 0.000703528 0.940608
5 0.0325754 -0.09 0.952782 -0.00374622 0.902746
5 0.0826091 -0.05 1.11719 0.0139452 0.948562
5 0.0826091 0.05 1.00057 0.0387237 1.00846
5 0.054221 0.08 0.929897 0.0153953 0.990614
5 0.054221 -0.08 1.12507 -0.000733256 0.916044
5 0.0357425 0.09 0.717877 0.00131989 0.956646
5 0.0357425 -0.09 1.0173 -0.00376271 0.907165
5 0.0669925 -0.07 1.12585 0.00440554 0.925589
5 0.0669925 0.07 0.95987 0.0298928 0.994655
5 0.0972268 0 1.08193 0.0326047 1.00666
5 0.0766105 -0.06 1.12148 0.00967398 0.936567
5 0.0766105 0.06 0.98041 0.0374566 0.998824
5 0.0887548 -0.04 1.11194 0.0188908 0.961685
5 0.0887548 0.04 1.02098 0.040237 1.0129
5 0.0389677 0.09 0.779398 0.0024935 0.969127
5 0.0389677 -0.09 1.06478 -0.00365414 0.907707
5 0.0577851 -0.08 1.12742 0.00043647 0.915464
5 0.0577851 0.08 0.937086 0.0204414 0.986582
5 0.0972268 -0.02 1.10035 0.0277989 0.987998
5 0.0972268 0.02 1.05747 0.0390544 1.01759
5 0.0422521 0.09 0.829988 0.0043689 0.977624
5 0.0422521 -0.09 1.0962 -0.00336032 0.906656
5 0.0707909 -0.07 1.12648 0.0060704 0.92531
5 0.0707909 0.07 0.961939 0.0348758 0.992085
5 0.0950896 -0.03 1.10767 0.0244181 0.975977
5 0.0950896 0.03 1.04215 0.0410896 1.0192
5 0.0994033 -0.01 1.09354 0.0312857 1.00018
5 0.0994033 0.01 1.07266 0.0369661 1.01591
5 0 0.1 0 0 0
5 0 -0.1 0 0 0
5 0.00256965 0.1 -0.088511 0.00038254 0.243421
5 0.00256965 -0.1 0.013718 -0.000591121 0.290483
5 0.0866939 -0.05 1.11807 0.0162031 0.949651
5 0.0866939 0.05 1.00337 0.0425123 1.00935
5 0.00518642 0.1 -0.0856888 0.000813668 0.339904
5 0.00518642 -0.1 0.0541103 -0.0012421 0.390739
5 0.00785119 0.1 -0.0566008 0.00140027 0.436265
5 0.00785119 -0.1 0.118615 -0.00193908 0.484794
5 0.0805853 -0.06 1.12212 0.0116426 0.937029
5 0.0805853 0.06 0.982574 0.0417002 0.997932
5 0.0105648 0.1 -0.00504656 0.00202223 0.529649
5 0.0105648 -0.1 0.202478 -0.00251162 0.570432
5 0.0614146 -0.08 1.12884 0.00172369 0.91497
5 0.0614146 0.08 0.940949 0.0258441 0.982356
5 0.0133283 0.1 0.0639467 0.0026215 0.617966
5 0.0133283 -0.1 0.300648 -0.00292353 0.646736
5 0.0455967 0.09 0.868679 0.00706951 0.981668
5 0.0455967 -0.09 1.11456 -0.00282985 0.905491
5 0.0929523 -0.04 1.11301 0.0213954 0.963478
5 0.0929523 0.04 1.02397 0.0437103 1.01479
5 0.0161424 0.1 0.145641 0.00314263 0.698906
5 0.0161424 -0.1 0.408337 -0.00317366 0.713165
5 0.10158 0 1.08395 0.0356482 1.00951
5 0.0190081 0.1 0.235851 0.00352388 0.769625
5 0.0190081 -0.1 0.520889 -0.00328864 0.769148
5 0.0746589 -0.07 1.12696 0.00778255 0.925286
5 0.0746589 0.07 0.963727 0.0397372 0.989866
5 0.0219263 0.1 0.330535 0.0037114 0.827517
5 0.0219263 -0.1 0.633616 -0.00331451 0.814203
5 0.0490026 0.09 0.895412 0.0106827 0.981628
5 0.0490026 -0.09 1.12418 -0.00211712 0.904711
5 0.0248981 0.1 0.425545 0.00368993 0.871512
5 0.0248981 -0.1 0.741827 -0.00330638 0.848238
5 0.0651106 -0.08 1.12976 0.00309848 0.91458
5 0.0651106 0.08 0.943147 0.0313928 0.978364
5 0.10158 -0.02 1.10147 0.0306853 0.990575
5 0.10158 0.02 1.06007 0.042195 1.02062
5 0.0908536 -0.05 1.11882 0.0185301 0.951145
5 0.0908536 0.05 1.0061 0.0461933 1.01072
5 0.0846329 -0.06 1.12271 0.013665 0.937843
5 0.0846329 0.06 0.984632 0.0457876 0.997696
5 0.0279244 0.1 0.516883 0.00352713 0.902909
5 0.0279244 -0.1 0.841062 -0.00331322 0.871799
5 0.0994033 -0.03 1.10861 0.0271824 0.978342
5 0.0994033 0.03 1.04514 0.0443055 1.02217
5 0.052471 0.09 0.911817 0.0151955 0.978438
5 0.052471 -0.09 1.12899 -0.00126074 0.904244
5 0.103796 -0.01 1.09483 0.0342926 1.003
5 0.103796 0.01 1.07479 0.0400499 1.01897
5 0.0310063 0.1 0.601321 0.0033909 0.924868
5 0.0310063 -0.1 0.927453 -0.00336026 0.886135
5 0.0972268 -0.04 1.11371 0.0239584 0.965537
5 0.0972268 0.04 1.0268 0.0470879 1.01717
5 0.0785979 -0.07 1.12735 0.00953724 0.925553
5 0.0785979 0.07 0.965298 0.0444015 0.988162
5 0.0688745 -0.08 1.13037 0.00453463 0.914325
5 0.0688745 0.08 0.944531 0.0369216 0.974742
5 0.0341446 0.1 0.676764 0.0035133 0.940721
5 0.0341446 -0.1 0.998142 -0.0034212 0.893154
5 0.056003 0.09 0.920793 0.0204682 0.973558
5 0.056003 -0.09 1.13149 -0.000274621 0.903918
5 0.106012 0 1.08526 0.0386871 1.01246
5 0.0373405 0.1 0.741993 0.00413129 0.952414
5 0.0373405 -0.1 1.05172 -0.00342335 0.89524
5 0.0887548 -0.06 1.12318 0.0157401 0.938997
5 0.0887548 0.06 0.986602 0.0497202 0.998035
5 0.0950896 -0.05 1.11928 0.0209127 0.95294
5 0.0950896 0.05 1.00873 0.0497553 1.01252
5 0.106012 -0.02 1.10187 0.0335901 0.993191
5 0.106012 0.02 1.06204 0.0452908 1.02381
5 0.040595 0.1 0.796147 0.00544559 0.960278
5 0.040595 -0.1 1.08862 -0.00328091 0.894827
5 0.0595998 -0.09 1.13293 0.000815144 0.903646
5 0.0595998 0.09 0.925252 0.0262715 0.968176
5 0.103796 -0.03 1.1089 0.029982 0.980784
5 0.103796 0.03 1.04767 0.0474599 1.02542
5 0.0727073 -0.08 1.1308 0.00601463 0.914242
5 0.0727073 0.08 0.945473 0.0423112 0.971531
5 0.0826091 -0.07 1.12767 0.0113352 0.926135
5 0.0826091 0.07 0.96668 0.0488399 0.986855
5 0.108269 -0.01 1.09529 0.0373055 1.0058
5 0.108269 0.01 1.07614 0.0431017 1.02208
5 0.10158 -0.04 1.11389 0.0265515 0.967727
5 0.10158 0.04 1.02931 0.0503771 1.01995
5 0.0439092 0.1 0.838502 0.00761271 0.963919
5 0.0439092 -0.1 1.11134 -0.00292697 0.893775
5 0.00128482 0.11 -0.0822688 0.000489895 0.193282
5 0.00128482 -0.11 0.0071813 -0.000321732 0.238893
5 0.0632626 -0.09 1.13382 0.00198218 0.903412
5 0.0632626 0.09 0.927283 0.0323484 0.963001
5 0.00387803 0.11 -0.0940839 0.00106014 0.288427
5 0.00387803 -0.11 0.0368809 -0.000811584 0.34094
5 0.00651881 0.11 -0.0790379 0.00214651 0.385125
5 0.00651881 -0.11 0.0923575 -0.00153266 0.437979
5 0.00920802 0.11 -0.0392443 0.00328203 0.480264
5 0.00920802 -0.11 0.169434 -0.00214276 0.526991
5 0.110526 0 1.08572 0.0417036 1.01537
5 0.0472842 0.1 0.868857 0.0107442 0.96327
5 0.0472842 -0.1 1.12381 -0.0023719 0.892984
5 0.0929523 -0.06 1.12343 0.0178554 0.940439
5 0.0929523 0.06 0.988488 0.0534875 0.998884
5 0.0119465 0.11 0.0207648 0.00440394 0.571693
5 0.0119465 -0.11 0.263028 -0.00259984 0.606784
5 0.0766105 -0.08 1.13111 0.00752919 0.91437
5 0.0766105 0.08 0.946132 0.0474709 0.968808
5 0.0147353 0.11 0.0961221 0.00543518 0.657411
5 0.0147353 -0.11 0.368243 -0.0028877 0.676911
5 0.0994033 -0.05 1.11929 0.0233214 0.954892
5 0.0994033 0.05 1.01116 0.0532024 1.01478
5 0.0175752 0.11 0.182508 0.00627117 0.734585
5 0.0175752 -0.11 0.480384 -0.00302014 0.736934
5 0.0866939 -0.07 1.1279 0.0131771 0.927023
5 0.0866939 0.07 0.96791 0.0530757 0.986119
5 0.0204672 0.11 0.275926 0.00681198 0.799891
5 0.0204672 -0.11 0.594742 -0.00303652 0.786328
5 0.0507211 0.1 0.888197 0.0148706 0.95904
5 0.0507211 -0.1 1.13013 -0.00166959 0.892586
5 0.0669925 -0.09 1.13439 0.00320266 0.90324
5 0.0669925 0.09 0.928082 0.038467 0.958246
5 0.110526 -0.02 1.10148 0.0364825 0.995737
5 0.110526 0.02 1.06322 0.048335 1.02702
5 0.108269 -0.03 1.10846 0.0327815 0.983182
5 0.108269 0.03 1.04954 0.0505532 1.02878
5 0.0234122 0.11 0.372254 0.00698201 0.850838
5 0.0234122 -0.11 0.706516 -0.00299279 0.824764
5 0.0264113 0.11 0.467073 0.00678697 0.887167
5 0.0264113 -0.11 0.810967 -0.0029512 0.852426
5 0.112825 -0.01 1.09487 0.0402976 1.00849
5 0.112825 0.01 1.07659 0.046111 1.02511
5 0.106012 -0.04 1.11345 0.0291401 0.969929
5 0.106012 0.04 1.03137 0.0535819 1.023
5 0.0805853 -0.08 1.13133 0.00907391 0.914739
5 0.0805853 0.08 0.946587 0.0523399 0.966576
5 0.054221 0.1 0.898825 0.0198914 0.952535
5 0.054221 -0.1 1.13329 -0.000854158 0.892411
5 0.0294653 0.11 0.55619 0.00637148 0.91134
5 0.0294653 -0.11 0.903727 -0.0029616 0.87019
5 0.0972268 -0.06 1.12334 0.0199857 0.942076
5 0.0972268 0.06 0.990272 0.057082 1.00025
5 0.0707909 -0.09 1.13477 0.00446038 0.903161
5 0.0707909 0.09 0.928232 0.0444526 0.953981
5 0.0908536 -0.07 1.12794 0.0150509 0.928167
5 0.0908536 0.07 0.969033 0.0571009 0.985944
5 0.0325754 0.11 0.636494 0.00600927 0.927309
5 0.0325754 -0.11 0.981233 -0.00304384 0.879649
5 0.115123 0 1.08529 0.0446788 1.01815
5 0.103796 -0.05 1.11876 0.0257213 0.95689
5 0.103796 0.05 1.01329 0.0565418 1.01743
5 0.0577851 -0.1 1.13498 4.80659e-05 0.892308
5 0.0577851 0.1 0.903585 0.0255898 0.945143
5 0.0357425 0.11 0.706223 0.00602057 0.938323
5 0.0357425 -0.11 1.04127 -0.00313206 0.883055
5 0.0846329 -0.08 1.13145 0.0106444 0.915359
5 0.0846329 0.08 0.946897 0.056897 0.964829
5 0.0389677 0.11 0.76449 0.00669141 0.945562
5 0.0389677 -0.11 1.08353 -0.00314447 0.883033
5 0.112825 -0.03 1.10729 0.0355466 0.985472
5 0.112825 0.03 1.05063 0.0535753 1.0321
5 0.115123 -0.02 1.1003 0.039334 0.998154
5 0.115123 0.02 1.06355 0.051316 1.03012
5 0.0746589 -0.09 1.135 0.00574571 0.903213
5 0.0746589 0.09 0.927995 0.050181 0.950189
5 0.0614146 -0.1 1.13597 0.00101324 0.892214
5 0.0614146 0.1 0.904921 0.0317036 0.937852
5 0.110526 -0.04 1.1124 0.0316908 0.972075
5 0.110526 0.04 1.03284 0.0566987 1.02622
5 0.0422521 0.11 0.810723 0.00822898 0.948802
5 0.0422521 -0.11 1.10999 -0.00296466 0.881914
5 0.117464 -0.01 1.09359 0.0432437 1.011
5 0.117464 0.01 1.07611 0.0490643 1.02799
5 0.10158 -0.06 1.12283 0.0221001 0.943812
5 0.10158 0.06 0.991907 0.0605073 1.00215
5 0.0950896 -0.07 1.1277 0.0169289 0.929504
5 0.0950896 0.07 0.970092 0.0609018 0.98635
5 0.0455967 0.11 0.844626 0.0107841 0.947584