# UMean  POINT_DATA 90431
# x  y  z  UMean_x  UMean_y  UMean_z
5 0 0 0 0 0
5 0.00256965 0 0.0425342 0.000636253 0.151634
5 0.00518642 0 0.0764105 0.00138455 0.210259
5 0.00785119 0 0.12314 0.00244909 0.268036
5 0.00128482 0.01 0.0283907 0.000506839 0.121014
5 0.00128482 -0.01 0.030044 0.000261944 0.123419
5 0.0105648 0 0.179181 0.00358358 0.323949
5 0.00387803 0.01 0.0545509 0.00113805 0.1792
5 0.00387803 -0.01 0.0571554 0.000638261 0.182912
5 0.00651881 0.01 0.0951001 0.00234447 0.237215
5 0.00651881 -0.01 0.0988419 0.00141759 0.241717
5 0.0133283 0 0.241102 0.00468924 0.376806
5 0.00920802 0.01 0.146772 0.00367068 0.29432
5 0.00920802 -0.01 0.151856 0.00236379 0.298902
5 0.0119465 0.01 0.205737 0.00495009 0.349233
5 0.0119465 -0.01 0.212367 0.00334993 0.353352
5 0.0161424 0 0.306343 0.00571407 0.425426
5 0.0147353 0.01 0.269015 0.00613388 0.40065
5 0.0147353 -0.01 0.277301 0.00432325 0.403999
5 0.0190081 0 0.373042 0.00661271 0.468799
5 0 0.02 0 0 0
5 0 -0.02 0 0 0
5 0.00256965 0.02 0.0407512 0.00104007 0.147065
5 0.00256965 -0.02 0.0450946 0.000412248 0.154011
5 0.0175752 0.01 0.33452 0.00716297 0.447286
5 0.0175752 -0.01 0.344548 0.00523636 0.449779
5 0.00518642 0.02 0.0734679 0.00214215 0.20455
5 0.00518642 -0.02 0.0800755 0.000938382 0.213532
5 0.00785119 0.02 0.118692 0.00363859 0.261944
5 0.00785119 -0.02 0.127986 0.00173632 0.271677
5 0.0219263 0 0.439664 0.00735312 0.506327
5 0.0105648 0.02 0.172905 0.00513101 0.318196
5 0.0105648 -0.02 0.185359 0.00263348 0.327391
5 0.0204672 0.01 0.400636 0.00799471 0.48824
5 0.0204672 -0.01 0.412479 0.00605694 0.4899
5 0.0133283 0.02 0.232785 0.00650886 0.371856
5 0.0133283 -0.02 0.248765 0.00354771 0.379631
5 0.0248981 0 0.504829 0.0079193 0.537882
5 0.0234122 0.01 0.465954 0.0085949 0.523162
5 0.0234122 -0.01 0.479598 0.00676605 0.524013
5 0.0161424 0.02 0.295896 0.00771477 0.421478
5 0.0161424 -0.02 0.315562 0.00442764 0.427438
5 0.0190081 0.02 0.360464 0.00868975 0.465887
5 0.0190081 -0.02 0.383819 0.00523424 0.469992
5 0.0279244 0 0.567343 0.00831959 0.563725
5 0.0264113 0.01 0.529251 0.00897297 0.552129
5 0.0264113 -0.01 0.544525 0.00734339 0.552229
5 0.0219263 0.02 0.42505 0.00940007 0.504407
5 0.0219263 -0.02 0.451962 0.00595179 0.506782
5 0.00128482 0.03 0.0274659 0.000823864 0.115768
5 0.00128482 -0.03 0.0324224 0.000230257 0.124646
5 0.00387803 0.03 0.0526014 0.00169165 0.172289
5 0.00387803 -0.03 0.0607611 0.000518581 0.185077
5 0.00651881 0.03 0.0916256 0.00339468 0.229506
5 0.00651881 -0.03 0.10355 0.0011792 0.244433
5 0.0310063 0 0.626228 0.00858217 0.584387
5 0.0294653 0.01 0.589498 0.00916353 0.575515
5 0.0294653 -0.01 0.606112 0.00779854 0.575032
5 0.00920802 0.03 0.141278 0.00514478 0.286745
5 0.00920802 -0.03 0.157705 0.00198483 0.301663
5 0.0248981 0.02 0.488393 0.00984936 0.53686
5 0.0248981 -0.02 0.518564 0.00657314 0.537715
5 0.0119465 0.03 0.197842 0.00675873 0.342495
5 0.0119465 -0.03 0.21952 0.00283552 0.355657
5 0.0147353 0.03 0.258556 0.00819298 0.395056
5 0.0147353 -0.03 0.285885 0.00368229 0.405524
5 0.0325754 0.01 0.645852 0.00921304 0.593944
5 0.0325754 -0.01 0.663462 0.00815359 0.593061
5 0.0341446 0 0.680672 0.00873863 0.600524
5 0.0279244 0.02 0.549397 0.0100679 0.56345
5 0.0279244 -0.02 0.582351 0.00709541 0.56308
5 0.0175752 0.03 0.321503 0.00936943 0.442927
5 0.0175752 -0.03 0.354526 0.0044688 0.450459
5 0.0204672 0.03 0.385211 0.010232 0.485103
5 0.0204672 -0.03 0.423737 0.00517499 0.489837
5 0.0310063 0.02 0.607135 0.0100993 0.584653
5 0.0310063 -0.02 0.642251 0.00752588 0.583402
5 0.0357425 0.01 0.697544 0.00916551 0.60811
5 0.0357425 -0.01 0.71584 0.00842239 0.606982
5 0.0373405 0 0.729961 0.00881353 0.612829
5 0.0234122 0.03 0.448412 0.0107787 0.521128
5 0.0234122 -0.03 0.492045 0.00580931 0.523386
5 0.0341446 0.02 0.660783 0.00999439 0.601126
5 0.0341446 -0.02 0.697399 0.00787368 0.599312
5 0.0264113 0.03 0.509965 0.0110509 0.551028
5 0.0264113 -0.03 0.558099 0.00637393 0.55124
5 0 0.04 0 0 0
5 0 -0.04 0 0 0
5 0.00256965 0.04 0.0391098 0.00136481 0.139738
5 0.00256965 -0.04 0.0482286 0.000367762 0.155664
5 0.0389677 0.01 0.743884 0.00904944 0.61872
5 0.0389677 -0.01 0.762587 0.00861678 0.617504
5 0.00518642 0.04 0.0703658 0.0027825 0.195777
5 0.00518642 -0.04 0.0844441 0.000837786 0.21583
5 0.040595 0 0.773501 0.00881171 0.622022
5 0.00785119 0.04 0.113473 0.00467352 0.252674
5 0.00785119 -0.04 0.133525 0.00155378 0.274147
5 0.0105648 0.04 0.165001 0.00654012 0.309262
5 0.0105648 -0.04 0.19212 0.0023614 0.329559
5 0.0294653 0.03 0.568887 0.0110841 0.575134
5 0.0294653 -0.03 0.620681 0.00686587 0.573822
5 0.0133283 0.04 0.221913 0.00826045 0.363785
5 0.0133283 -0.04 0.256863 0.00319217 0.381127
5 0.0373405 0.02 0.709579 0.00979178 0.613598
5 0.0373405 -0.02 0.747092 0.00814237 0.611481
5 0.0161424 0.04 0.282062 0.00976563 0.414532
5 0.0161424 -0.04 0.325063 0.00399678 0.428083
5 0.0422521 0.01 0.78434 0.00885872 0.626542
5 0.0422521 -0.01 0.803201 0.00872187 0.625325
5 0.0439092 0 0.81093 0.00873113 0.628828
5 0.0325754 0.03 0.624315 0.0109364 0.594024
5 0.0325754 -0.03 0.678763 0.0072856 0.591698
5 0.0190081 0.04 0.343866 0.0109772 0.460167
5 0.0190081 -0.04 0.394684 0.00473625 0.469794
5 0.040595 0.02 0.752882 0.00950556 0.622845
5 0.040595 -0.02 0.790773 0.00832742 0.620595
5 0.0219263 0.04 0.406012 0.0118617 0.499895
5 0.0219263 -0.04 0.464085 0.00539774 0.505876
5 0.0357425 0.03 0.675433 0.0106626 0.608427
5 0.0357425 -0.03 0.731544 0.00763319 0.605509
5 0.0455967 0.01 0.818719 0.00860466 0.632321
5 0.0455967 -0.01 0.837468 0.00873924 0.631127
5 0.0248981 0.04 0.467327 0.0124253 0.533458
5 0.0248981 -0.04 0.531813 0.00598064 0.536282
5 0.0472842 0 0.842243 0.00858127 0.633909
5 0.0439092 0.02 0.79032 0.00914204 0.629644
5 0.0439092 -0.02 0.828108 0.00842354 0.627332
5 0.0279244 0.04 0.526763 0.0127004 0.561012
5 0.0279244 -0.04 0.596545 0.00648106 0.561277
5 0.0389677 0.03 0.721467 0.0102895 0.619139
5 0.0389677 -0.03 0.778408 0.00789716 0.615932
5 0.0490026 0.01 0.847202 0.00830382 0.636672
5 0.0490026 -0.01 0.865588 0.0086773 0.635518
5 0.00128482 0.05 0.026254 0.000923962 0.108265
5 0.00128482 -0.05 0.0350175 0.000212445 0.125858
5 0.00387803 0.05 0.0501214 0.00201991 0.162638
5 0.00387803 -0.05 0.0647177 0.000509811 0.187082
5 0.00651881 0.05 0.0871208 0.00402404 0.218684
5 0.00651881 -0.05 0.108754 0.00114365 0.246735
5 0.0310063 0.04 0.58339 0.0127355 0.582991
5 0.0310063 -0.04 0.657135 0.00689565 0.581341
5 0.0507211 0 0.867802 0.00838534 0.637804
5 0.00920802 0.05 0.133876 0.00613092 0.275772
5 0.00920802 -0.05 0.1641 0.00190758 0.303767
5 0.0472842 0.02 0.821882 0.00871626 0.634687
5 0.0472842 -0.02 0.859099 0.00843405 0.632338
5 0.0119465 0.05 0.187017 0.00812637 0.332044
5 0.0119465 -0.05 0.227166 0.0027178 0.357159
5 0.0422521 0.03 0.761847 0.00982446 0.626983
5 0.0422521 -0.03 0.818906 0.00807388 0.623622
5 0.0147353 0.05 0.244248 0.009964 0.385553
5 0.0147353 -0.05 0.294894 0.00353322 0.406177
5 0.0341446 0.04 0.636337 0.0125793 0.600035
5 0.0341446 -0.04 0.712668 0.00722715 0.597072
5 0.0175752 0.05 0.303952 0.0115364 0.434603
5 0.0175752 -0.05 0.364959 0.00430294 0.45018
5 0.052471 0.01 0.8703 0.00799231 0.640058
5 0.052471 -0.01 0.888124 0.00856788 0.63897
5 0.0204672 0.05 0.364809 0.0127712 0.478044
5 0.0204672 -0.05 0.435529 0.00499838 0.488707
5 0.054221 0 0.888279 0.00818178 0.640929
5 0.0507211 0.02 0.847895 0.00825591 0.638521
5 0.0507211 -0.02 0.884141 0.00837767 0.636166
5 0.0455967 0.03 0.796381 0.00928023 0.632733
5 0.0455967 -0.03 0.852863 0.00815919 0.629257
5 0.0373405 0.04 0.684759 0.0122653 0.612913
5 0.0373405 -0.04 0.762456 0.00747802 0.609126
5 0.0234122 0.05 0.425627 0.0136649 0.515313
5 0.0234122 -0.05 0.505044 0.00560838 0.52158
5 0.0264113 0.05 0.485317 0.0142066 0.546371
5 0.0264113 -0.05 0.572076 0.00613105 0.548928
5 0.056003 0.01 0.888782 0.00771365 0.642858
5 0.056003 -0.01 0.905915 0.00845323 0.641833
5 0.040595 0.04 0.727932 0.0118104 0.622435
5 0.040595 -0.04 0.805991 0.00765019 0.618162
5 0.0490026 0.03 0.825232 0.00867622 0.637025
5 0.0490026 -0.03 0.880486 0.00816047 0.633453
5 0.0577851 0 0.904528 0.00801245 0.643598
5 0.054221 0.02 0.868973 0.00780576 0.641572
5 0.054221 -0.02 0.903956 0.00828939 0.63924
5 0.0294653 0.05 0.542898 0.0144599 0.571521
5 0.0294653 -0.05 0.635335 0.00655349 0.571124
5 0.0439092 0.04 0.765433 0.0112287 0.629401
5 0.0439092 -0.04 0.842983 0.00774624 0.624833
5 0.0325754 0.05 0.597473 0.0144616 0.591288
5 0.0325754 -0.05 0.693773 0.00687772 0.588723
5 0 0.06 0 0 0
5 0 -0.06 0 0 0
5 0.00256965 0.06 0.0372299 0.00146843 0.130419
5 0.00256965 -0.06 0.0515768 0.000328823 0.157084
5 0.00518642 0.06 0.0668403 0.00306706 0.184448
5 0.00518642 -0.06 0.0891132 0.000775316 0.217799
5 0.0595998 0.01 0.903526 0.00751106 0.645368
5 0.0595998 -0.01 0.919894 0.0083718 0.644334
5 0.052471 0.03 0.848851 0.00805115 0.640329
5 0.052471 -0.03 0.902374 0.00810498 0.636725
5 0.00785119 0.06 0.10741 0.00517748 0.240317
5 0.00785119 -0.06 0.139421 0.00143986 0.276172
5 0.0105648 0.06 0.155629 0.00733398 0.296676
5 0.0105648 -0.06 0.199203 0.00220098 0.331192
5 0.0577851 0.02 0.885928 0.00741727 0.644187
5 0.0577851 -0.02 0.919456 0.00821009 0.64185
5 0.0614146 0 0.917419 0.00790822 0.64602
5 0.0357425 0.05 0.648138 0.0142566 0.606404
5 0.0357425 -0.05 0.746605 0.00711218 0.602361
5 0.0133283 0.06 0.208875 0.00939662 0.351549
5 0.0133283 -0.06 0.26517 0.00299761 0.382034
5 0.0472842 0.04 0.797222 0.0105427 0.634526
5 0.0472842 -0.04 0.87347 0.00777364 0.629772
5 0.0161424 0.06 0.265395 0.0112879 0.403071
5 0.0161424 -0.06 0.334619 0.00378282 0.428068
5 0.0190081 0.06 0.32386 0.0129093 0.449761
5 0.0190081 -0.06 0.405436 0.00451698 0.468807
5 0.0389677 0.05 0.694007 0.0138523 0.617684
5 0.0389677 -0.05 0.793277 0.00726958 0.612704
5 0.056003 0.03 0.867966 0.0074658 0.643043
5 0.056003 -0.03 0.919414 0.00803143 0.639435
5 0.0219263 0.06 0.383088 0.0142079 0.490684
5 0.0219263 -0.06 0.475904 0.0051796 0.503989
5 0.0632626 0.01 0.915355 0.0074 0.647772
5 0.0632626 -0.01 0.930905 0.00835 0.646605
5 0.0614146 0.02 0.899603 0.00713069 0.646619
5 0.0614146 -0.02 0.931564 0.0081754 0.644172
5 0.0507211 0.04 0.823619 0.00979506 0.638368
5 0.0507211 -0.04 0.897873 0.00775061 0.633538
5 0.0248981 0.06 0.441982 0.0151685 0.525479
5 0.0248981 -0.06 0.544532 0.00576134 0.533642
5 0.0651106 0 0.927709 0.00787727 0.648312
5 0.0422521 0.05 0.734418 0.0132751 0.625936
5 0.0422521 -0.05 0.83338 0.00736018 0.620391
5 0.0279244 0.06 0.499535 0.0158086 0.554226
5 0.0279244 -0.06 0.609967 0.00625399 0.558049
5 0.0595998 0.03 0.883441 0.00697846 0.645479
5 0.0595998 -0.03 0.932603 0.00798387 0.641799
5 0.054221 0.04 0.845243 0.00904599 0.641354
5 0.054221 -0.04 0.916951 0.00770572 0.636563
5 0.0310063 0.06 0.55481 0.0161658 0.577318
5 0.0310063 -0.06 0.671018 0.00664927 0.577693
5 0.0455967 0.05 0.769094 0.0125348 0.631954
5 0.0455967 -0.05 0.86679 0.0073917 0.626063
5 0.0669925 0.01 0.924926 0.0073722 0.650135
5 0.0669925 -0.01 0.939653 0.0083869 0.648737
5 0.0651106 0.02 0.910724 0.00696109 0.649005
5 0.0651106 -0.02 0.941083 0.00820317 0.646309
5 0.0688745 0 0.935991 0.00790516 0.650535
5 0.0341446 0.06 0.606876 0.0162681 0.595363
5 0.0341446 -0.06 0.726736 0.00694738 0.593175
5 0.0490026 0.05 0.79819 0.0116792 0.636393
5 0.0490026 -0.05 0.893749 0.00738318 0.630318
5 0.00128482 0.07 0.0249375 0.000844042 0.0996517
5 0.00128482 -0.07 0.0377502 0.000148671 0.126692
5 0.0632626 0.03 0.896093 0.00663317 0.647859
5 0.0632626 -0.03 0.942858 0.00799591 0.643948
5 0.00387803 0.07 0.0476101 0.00208599 0.151128
5 0.00387803 -0.07 0.0688265 0.000444412 0.188715
5 0.0577851 0.04 0.862913 0.00836339 0.643845
5 0.0577851 -0.04 0.931667 0.00767659 0.639137
5 0.00651881 0.07 0.0825145 0.00413861 0.205353
5 0.00651881 -0.07 0.114162 0.00100348 0.248673
5 0.00920802 0.07 0.126136 0.00641672 0.261467
5 0.00920802 -0.07 0.170679 0.00170486 0.305521
5 0.0373405 0.06 0.654785 0.0161306 0.609105
5 0.0373405 -0.06 0.776442 0.00716003 0.605138
5 0.0119465 0.07 0.175494 0.00866228 0.31743
5 0.0119465 -0.07 0.234879 0.00247383 0.358332
5 0.0707909 -0.01 0.946675 0.0084569 0.65079
5 0.0707909 0.01 0.932714 0.00740468 0.652479
5 0.0147353 0.07 0.228751 0.0108342 0.37118
5 0.0147353 -0.07 0.303751 0.00326572 0.406476
5 0.0688745 -0.02 0.948661 0.00828682 0.64833
5 0.0688745 0.02 0.919826 0.00689695 0.651379
5 0.0175752 0.07 0.284642 0.0128171 0.420958
5 0.0175752 -0.07 0.374886 0.00402953 0.449448
5 0.040595 0.06 0.697715 0.0157611 0.61933
5 0.040595 -0.06 0.819677 0.00730273 0.614221
5 0.052471 0.05 0.82221 0.0107735 0.639724
5 0.052471 -0.05 0.914888 0.00735378 0.633657
5 0.0727073 0 0.9427 0.00796527 0.652724
5 0.0204672 0.07 0.342048 0.0145127 0.465448
5 0.0204672 -0.07 0.446384 0.0047372 0.486899
5 0.0614146 0.04 0.877449 0.00780481 0.646122
5 0.0614146 -0.04 0.943003 0.0076975 0.641431
5 0.0669925 0.03 0.906526 0.00643895 0.650256
5 0.0669925 -0.03 0.95092 0.0080799 0.645945
5 0.0234122 0.07 0.399881 0.0158832 0.503941
5 0.0234122 -0.07 0.516672 0.00537454 0.518777
5 0.0439092 0.06 0.735159 0.0151772 0.626815
5 0.0439092 -0.06 0.856204 0.00738931 0.621039
5 0.0264113 0.07 0.457115 0.0169195 0.536297
5 0.0264113 -0.07 0.58435 0.0059315 0.545287
5 0.056003 0.05 0.841951 0.00989334 0.642319
5 0.056003 -0.05 0.931134 0.00733266 0.636438
5 0.0746589 -0.01 0.95236 0.00853448 0.652833
5 0.0746589 0.01 0.939052 0.00746505 0.654794
5 0.0727073 -0.02 0.954786 0.00840532 0.650297
5 0.0727073 0.02 0.927274 0.00691071 0.653731
5 0.0294653 0.07 0.512821 0.0176486 0.562722
5 0.0294653 -0.07 0.648119 0.00640001 0.56686
5 0.0472842 0.06 0.767035 0.0144185 0.632285
5 0.0472842 -0.06 0.886102 0.00743374 0.626169
5 0.0651106 -0.04 0.951827 0.00778736 0.643534
5 0.0651106 0.04 0.88951 0.00740304 0.648353
5 0.0766105 0 0.948125 0.0080267 0.654899
5 0.0707909 -0.03 0.957397 0.00822364 0.647849
5 0.0707909 0.03 0.915142 0.00637198 0.652648
5 0.0325754 0.07 0.566063 0.0180929 0.583744
5 0.0325754 -0.07 0.706856 0.00676596 0.58407
5 0.0595998 0.05 0.858298 0.00911578 0.644538
5 0.0595998 -0.05 0.94352 0.00735838 0.638879
5 0.0507211 0.06 0.793685 0.0135454 0.636327
5 0.0507211 -0.06 0.909827 0.00745282 0.630128
5 0.0357425 0.07 0.615841 0.0182612 0.600017
5 0.0357425 -0.07 0.759721 0.00703375 0.597548
5 0.0766105 -0.02 0.959796 0.00852937 0.652263
5 0.0766105 0.02 0.933314 0.00696992 0.656049
5 0.0785979 -0.01 0.956961 0.00858551 0.654889
5 0.0785979 0.01 0.944126 0.00752179 0.65708
5 0.0688745 -0.04 0.958835 0.00794891 0.645505
5 0.0688745 0.04 0.899547 0.00715931 0.650593
5 0 0.08 0 0 0
5 0 -0.08 0 0 0
5 0.00256965 0.08 0.0352822 0.00139945 0.120568
5 0.00256965 -0.08 0.054839 0.000287812 0.158107
5 0.0389677 0.07 0.661164 0.0181522 0.612317
5 0.0389677 -0.07 0.806175 0.00722465 0.60794
5 0.00518642 0.08 0.0632719 0.00299073 0.172096
5 0.00518642 -0.08 0.0936499 0.000702315 0.21934
5 0.00785119 0.08 0.101237 0.00510545 0.226334
5 0.00785119 -0.08 0.145099 0.00131476 0.277772
5 0.0746589 -0.03 0.962713 0.00840629 0.649715
5 0.0746589 0.03 0.922192 0.00640113 0.655005
5 0.0805853 0 0.952465 0.00806505 0.657065
5 0.0632626 0.05 0.871968 0.00849168 0.646613
5 0.0632626 -0.05 0.953036 0.00745187 0.641097
5 0.0105648 0.08 0.145985 0.0073523 0.281741
5 0.0105648 -0.08 0.205937 0.00202918 0.332431
5 0.054221 0.06 0.815801 0.0126303 0.639398
5 0.054221 -0.06 0.928173 0.00746581 0.633332
5 0.0133283 0.08 0.195326 0.00959082 0.336248
5 0.0133283 -0.08 0.27295 0.00278753 0.382568
5 0.0161424 0.08 0.247934 0.0117499 0.38795
5 0.0161424 -0.08 0.343438 0.00354417 0.427672
5 0.0422521 0.07 0.70128 0.0177645 0.621382
5 0.0422521 -0.07 0.845885 0.00735653 0.615853
5 0.0190081 0.08 0.302765 0.0137259 0.435289
5 0.0190081 -0.08 0.415208 0.00425848 0.467389
5 0.0219263 0.08 0.358775 0.0154438 0.477182
5 0.0219263 -0.08 0.486466 0.00491054 0.501581
5 0.0727073 -0.04 0.964554 0.00816973 0.647398
5 0.0727073 0.04 0.907851 0.00705188 0.65283
5 0.0805853 -0.02 0.96391 0.00863036 0.654261
5 0.0805853 0.02 0.938124 0.00704367 0.658326
5 0.0826091 -0.01 0.960666 0.00859877 0.656961
5 0.0826091 0.01 0.948109 0.00755416 0.65933
5 0.0577851 0.06 0.834236 0.0117479 0.641875
5 0.0577851 -0.06 0.942137 0.00749713 0.636058
5 0.0455967 0.07 0.735853 0.0171342 0.627989
5 0.0455967 -0.07 0.87877 0.00744883 0.621849
5 0.0669925 -0.05 0.960495 0.00762182 0.643148
5 0.0669925 0.05 0.883456 0.00804827 0.648684
5 0.0248981 0.08 0.414916 0.0168691 0.51311
5 0.0248981 -0.08 0.555703 0.0054943 0.530359
5 0.0785979 -0.03 0.96715 0.00859125 0.651615
5 0.0785979 0.03 0.927887 0.00649174 0.65732
5 0.0846329 0 0.955879 0.00806327 0.659219
5 0.0279244 0.08 0.470201 0.0179976 0.543053
5 0.0279244 -0.08 0.621584 0.00600648 0.55406
5 0.0490026 0.07 0.765009 0.0163254 0.632807
5 0.0490026 -0.07 0.905108 0.00751124 0.626445
5 0.0310063 0.08 0.523671 0.0188357 0.567343
5 0.0310063 -0.08 0.682905 0.00644207 0.573192
5 0.0614146 -0.06 0.952747 0.00757149 0.638469
5 0.0614146 0.06 0.849758 0.010958 0.644043
5 0.0766105 -0.04 0.969331 0.00842286 0.649267
5 0.0766105 0.04 0.914631 0.00704864 0.655051
5 0.0707909 -0.05 0.966529 0.00787035 0.645081
5 0.0707909 0.05 0.893069 0.00777797 0.650783
5 0.0846329 -0.02 0.967269 0.00868821 0.656302
5 0.0846329 0.02 0.941851 0.00710795 0.660546
5 0.0341446 0.08 0.574324 0.0193831 0.586522
5 0.0341446 -0.08 0.738675 0.00679569 0.588358
5 0.0866939 -0.01 0.963605 0.00855984 0.659053
5 0.0866939 0.01 0.951137 0.00754029 0.661532
5 0.052471 0.07 0.789339 0.0154034 0.636385
5 0.052471 -0.07 0.925568 0.00756307 0.630095
5 0.0826091 -0.03 0.970864 0.00874595 0.65358
5 0.0826091 0.03 0.932373 0.00660703 0.659575
5 0.0373405 0.08 0.621147 0.0196289 0.601267
5 0.0373405 -0.08 0.788194 0.00707471 0.600202
5 0.0651106 -0.06 0.960925 0.00770526 0.640654
5 0.0651106 0.06 0.862912 0.0103008 0.646074
5 0.0887548 0 0.95849 0.00801278 0.661341
5 0.056003 0.07 0.809711 0.0144508 0.639165
5 0.056003 -0.07 0.941107 0.00761375 0.633138
5 0.040595 0.08 0.663271 0.0195636 0.612321
5 0.040595 -0.08 0.831045 0.00729538 0.60935
5 0.0746589 -0.05 0.971579 0.00817871 0.64695
5 0.0746589 0.05 0.901003 0.00765642 0.652885
5 0.0805853 -0.04 0.973364 0.00867406 0.651148
5 0.0805853 0.04 0.920065 0.00711296 0.657246
5 0.00128482 0.09 0.023526 0.000758441 0.0915642
5 0.00128482 -0.09 0.0401998 0.00014085 0.127157
5 0.00387803 0.09 0.0450583 0.00190952 0.139935
5 0.00387803 -0.09 0.0725842 0.00041736 0.189875
5 0.00651881 0.09 0.0779098 0.0038291 0.191974
5 0.00651881 -0.09 0.119035 0.000944093 0.250106
5 0.00920802 0.09 0.118396 0.00603773 0.24655
5 0.00920802 -0.09 0.176529 0.00160673 0.306799
5 0.0119465 0.09 0.16392 0.00829286 0.301528
5 0.0119465 -0.09 0.241671 0.00233141 0.35908
5 0.0887548 -0.02 0.969964 0.00868794 0.658378
5 0.0887548 0.02 0.94462 0.00715082 0.662681
5 0.0147353 0.09 0.213149 0.0105743 0.354863
5 0.0147353 -0.09 0.311513 0.00307931 0.406394
5 0.0439092 0.08 0.700155 0.0192015 0.620436
5 0.0439092 -0.08 0.867069 0.00747078 0.616371
5 0.0688745 -0.06 0.967415 0.00790707 0.642668
5 0.0688745 0.06 0.87405 0.00979639 0.648048
5 0.0908536 -0.01 0.96587 0.00846422 0.661157
5 0.0908536 0.01 0.95335 0.00748674 0.663625
5 0.0175752 0.09 0.265206 0.0127743 0.404808
5 0.0175752 -0.09 0.383618 0.00380224 0.448378
5 0.0866939 -0.03 0.973942 0.00884829 0.655614
5 0.0866939 0.03 0.935783 0.00673033 0.661748
5 0.0595998 0.07 0.82699 0.0135315 0.641479
5 0.0595998 -0.07 0.952792 0.00768374 0.635778
5 0.0204672 0.09 0.319175 0.0148 0.449951
5 0.0204672 -0.09 0.455959 0.00446508 0.484839
5 0.0472842 0.08 0.73171 0.0185915 0.62635
5 0.0472842 -0.08 0.896405 0.00760969 0.621776
5 0.0929523 0 0.960407 0.00791787 0.663402
5 0.0234122 0.09 0.374006 0.0165797 0.489395
5 0.0234122 -0.09 0.526864 0.00506544 0.515815
5 0.0785979 -0.05 0.975884 0.00851529 0.648788
5 0.0785979 0.05 0.907445 0.00764527 0.654993
5 0.0846329 -0.04 0.976752 0.00889036 0.653056
5 0.0846329 0.04 0.924302 0.00721697 0.659397
5 0.0264113 0.09 0.428674 0.0180943 0.522815
5 0.0264113 -0.09 0.594942 0.00560584 0.541563
5 0.0727073 -0.06 0.972758 0.00817275 0.644562
5 0.0727073 0.06 0.883397 0.0094467 0.650003
5 0.0632626 -0.07 0.961643 0.00779198 0.638124
5 0.0632626 0.07 0.84178 0.0126928 0.643543
5 0.0294653 0.09 0.482206 0.0193281 0.550384
5 0.0294653 -0.09 0.658937 0.00608867 0.562535
5 0.0507211 0.08 0.758316 0.0178088 0.630737
5 0.0507211 -0.08 0.919541 0.00772051 0.626016
5 0.0929523 -0.02 0.972061 0.00862193 0.660456
5 0.0929523 0.02 0.946547 0.00717063 0.664691
5 0.0950896 -0.01 0.967544 0.00831771 0.663237
5 0.0950896 0.01 0.954866 0.00740276 0.665589
5 0.0908536 -0.03 0.976438 0.00887941 0.657688
5 0.0908536 0.03 0.938209 0.00684591 0.663818
5 0.0325754 0.09 0.533605 0.0202732 0.572527
5 0.0325754 -0.09 0.717722 0.00651375 0.579305
5 0.0826091 -0.05 0.97956 0.00884385 0.650609
5 0.0826091 0.05 0.912555 0.00770784 0.657095
5 0.054221 0.08 0.780724 0.0169337 0.634146
5 0.054221 -0.08 0.937291 0.00781012 0.629459
5 0.0357425 0.09 0.581798 0.0209052 0.589804
5 0.0357425 -0.09 0.770413 0.0068694 0.59251
5 0.0669925 -0.07 0.968528 0.00795543 0.640248
5 0.0669925 0.07 0.854446 0.0119702 0.645455
5 0.0972268 0 0.961737 0.00778925 0.665383
5 0.0766105 -0.06 0.977285 0.00848379 0.646375
5 0.0766105 0.06 0.891126 0.00923733 0.65196
5 0.0887548 -0.04 0.97954 0.00904463 0.654981
5 0.0887548 0.04 0.927471 0.00734431 0.661476
5 0.0389677 0.09 0.625796 0.0211971 0.602931
5 0.0389677 -0.09 0.816476 0.00717111 0.602812
5 0.0577851 -0.08 0.95066 0.00789027 0.632369
5 0.0577851 0.08 0.799796 0.0160353 0.636965
5 0.0972268 -0.02 0.973624 0.00848933 0.662484
5 0.0972268 0.02 0.947771 0.0071754 0.666556
5 0.0422521 0.09 0.664853 0.0211407 0.612656
5 0.0422521 -0.09 0.855654 0.00742929 0.610797
5 0.0707909 -0.07 0.97411 0.00818076 0.642197
5 0.0707909 0.07 0.865233 0.011389 0.647272
5 0.0950896 -0.03 0.978392 0.00882635 0.659741
5 0.0950896 0.03 0.939765 0.00694711 0.665732
5 0.0994033 -0.01 0.968718 0.00813045 0.665255
5 0.0994033 0.01 0.95582 0.00730603 0.667453
5 0 0.1 0 0 0
5 0 -0.1 0 0 0
5 0.00256965 0.1 0.0327724 0.00126539 0.111375
5 0.00256965 -0.1 0.0577604 0.000294867 0.15876
5 0.0866939 -0.05 0.982641 0.00912342 0.65242
5 0.0866939 0.05 0.916497 0.00782273 0.65917
5 0.00518642 0.1 0.0590529 0.00271909 0.160185
5 0.00518642 -0.1 0.097766 0.000700464 0.220406
5 0.00785119 0.1 0.0944358 0.00472457 0.212394
5 0.00785119 -0.1 0.150263 0.00130129 0.27886
5 0.0805853 -0.06 0.981164 0.0088124 0.648129
5 0.0805853 0.06 0.897405 0.00914166 0.653927
5 0.0105648 0.1 0.135853 0.0069271 0.266293
5 0.0105648 -0.1 0.21212 0.00199254 0.333172
5 0.0614146 -0.08 0.960689 0.00797939 0.634912
5 0.0614146 0.08 0.816229 0.0151652 0.639416
5 0.0133283 0.1 0.181499 0.00920516 0.319794
5 0.0133283 -0.1 0.280188 0.00272059 0.38268
5 0.0455967 0.09 0.698643 0.0207664 0.619718
5 0.0455967 -0.09 0.887977 0.0076485 0.616987
5 0.0929523 -0.04 0.981762 0.00911739 0.656888
5 0.0929523 0.04 0.929688 0.00748515 0.663437
5 0.0161424 0.1 0.230416 0.0115008 0.371024
5 0.0161424 -0.1 0.351756 0.00344299 0.426968
5 0.10158 0 0.962604 0.00764074 0.667267
5 0.0190081 0.1 0.281815 0.0137165 0.418423
5 0.0190081 -0.1 0.42454 0.00412162 0.465798
5 0.0746589 -0.07 0.978814 0.00846126 0.64402
5 0.0746589 0.07 0.874286 0.0109633 0.649072
5 0.0219263 0.1 0.334765 0.0157637 0.460818
5 0.0219263 -0.1 0.496618 0.00473748 0.499119
5 0.0490026 0.09 0.727341 0.0201398 0.624888
5 0.0490026 -0.09 0.913772 0.00783023 0.621825
5 0.0248981 0.1 0.388207 0.0175834 0.497535
5 0.0248981 -0.1 0.56638 0.00528928 0.527105
5 0.0651106 -0.08 0.96833 0.00809366 0.637188
5 0.0651106 0.08 0.830452 0.0143573 0.641589
5 0.10158 -0.02 0.974724 0.00829361 0.664408
5 0.10158 0.02 0.948465 0.00718261 0.668269
5 0.0908536 -0.05 0.985141 0.00932747 0.654204
5 0.0908536 0.05 0.919394 0.0079783 0.66117
5 0.0846329 -0.06 0.984461 0.00912493 0.649836
5 0.0846329 0.06 0.902387 0.00913459 0.655881
5 0.0279244 0.1 0.441082 0.0191399 0.528412
5 0.0279244 -0.1 0.63247 0.00577903 0.550127
5 0.0994033 -0.03 0.979843 0.00868275 0.661704
5 0.0994033 0.03 0.940635 0.00704572 0.66745
5 0.052471 0.09 0.751581 0.0193664 0.628868
5 0.052471 -0.09 0.933722 0.00797752 0.625699
5 0.103796 -0.01 0.969501 0.00791031 0.667152
5 0.103796 0.01 0.95638 0.00721611 0.669207
5 0.0310063 0.1 0.492355 0.0204054 0.553675
5 0.0310063 -0.1 0.693711 0.00620827 0.568703
5 0.0972268 -0.04 0.983452 0.00909718 0.658721
5 0.0972268 0.04 0.93111 0.00764001 0.665228
5 0.0785979 -0.07 0.982863 0.00877999 0.645743
5 0.0785979 0.07 0.881773 0.0106842 0.650892
5 0.0688745 -0.08 0.974356 0.00824676 0.639254
5 0.0688745 0.08 0.842708 0.0136409 0.643525
5 0.0341446 0.1 0.540985 0.0213506 0.573791
5 0.0341446 -0.1 0.749138 0.00657736 0.583453
5 0.056003 0.09 0.772269 0.0185139 0.632166
5 0.056003 -0.09 0.948773 0.00808616 0.628904
5 0.106012 0 0.963142 0.00748631 0.669008
5 0.0373405 0.1 0.585979 0.0219427 0.589389
5 0.0373405 -0.1 0.798085 0.00689406 0.595033
5 0.0887548 -0.06 0.987189 0.00939067 0.651499
5 0.0887548 0.06 0.906216 0.00919837 0.657781
5 0.0950896 -0.05 0.987078 0.00943635 0.655918
5 0.0950896 0.05 0.921386 0.00816934 0.663029
5 0.106012 -0.02 0.975431 0.0080423 0.666181
5 0.106012 0.02 0.948822 0.00721134 0.669815
5 0.040595 0.1 0.626533 0.0221579 0.601181
5 0.040595 -0.1 0.840227 0.00717272 0.604075
5 0.0595998 -0.09 0.95997 0.00817747 0.631657
5 0.0595998 0.09 0.790219 0.0176448 0.635051
5 0.103796 -0.03 0.980836 0.00845083 0.663523
5 0.103796 0.03 0.941026 0.00716259 0.668967
5 0.0727073 -0.08 0.97931 0.00844381 0.641153
5 0.0727073 0.08 0.853163 0.0130432 0.645295
5 0.0826091 -0.07 0.986352 0.0091106 0.647377
5 0.0826091 0.07 0.887848 0.0105293 0.652728
5 0.108269 -0.01 0.969977 0.0076684 0.668874
5 0.108269 0.01 0.956711 0.00715037 0.6708
5 0.10158 -0.04 0.984653 0.00898043 0.660435
5 0.10158 0.04 0.931924 0.00781902 0.66682
5 0.0439092 0.1 0.662187 0.0220042 0.609902
5 0.0439092 -0.1 0.875531 0.0074218 0.611137
5 0.00128482 0.11 0.0212122 0.000714842 0.0843955
5 0.00128482 -0.11 0.0422924 0.000176822 0.127395
5 0.0632626 -0.09 0.968351 0.00826442 0.634092
5 0.0632626 0.09 0.805933 0.0167914 0.637593
5 0.00387803 0.11 0.0412962 0.0016789 0.129614
5 0.00387803 -0.11 0.0759701 0.000444477 0.190621
5 0.00651881 0.11 0.0719525 0.00345911 0.179225
5 0.00651881 -0.11 0.123482 0.00099601 0.251031
5 0.00920802 0.11 0.109491 0.00557268 0.231836
5 0.00920802 -0.11 0.182015 0.00165842 0.307515
5 0.110526 0 0.963441 0.0073352 0.670561
5 0.0472842 0.1 0.692922 0.0215342 0.616317
5 0.0472842 -0.1 0.904232 0.00764138 0.616687
5 0.0929523 -0.06 0.989358 0.00958767 0.653102
5 0.0929523 0.06 0.909032 0.00932468 0.65958
5 0.0119465 0.11 0.151611 0.0078055 0.285268
5 0.0119465 -0.11 0.248274 0.00237372 0.359305
5 0.0766105 -0.08 0.983515 0.00868094 0.642912
5 0.0766105 0.08 0.861965 0.0125807 0.64699
5 0.0147353 0.11 0.197325 0.0101484 0.337526
5 0.0147353 -0.11 0.319306 0.00309806 0.405948
5 0.0994033 -0.05 0.988497 0.00944322 0.657521
5 0.0994033 0.05 0.922653 0.00839792 0.664704
5 0.0175752 0.11 0.245996 0.0125067 0.38691
5 0.0175752 -0.11 0.392601 0.00379248 0.44716
5 0.0866939 -0.07 0.989293 0.00942196 0.648939
5 0.0866939 0.07 0.892649 0.0104785 0.654533
5 0.0204672 0.11 0.296893 0.0147855 0.432033
5 0.0204672 -0.11 0.465998 0.00442679 0.482819
5 0.0507211 0.1 0.719163 0.0208397 0.621175
5 0.0507211 -0.1 0.926841 0.00782636 0.621111
5 0.0669925 -0.09 0.974802 0.00836284 0.636287
5 0.0669925 0.09 0.819653 0.0159748 0.639766
5 0.110526 -0.02 0.975794 0.00774615 0.667769
5 0.110526 0.02 0.948983 0.00727366 0.671174
5 0.108269 -0.03 0.981409 0.00813956 0.665174
5 0.108269 0.03 0.941171 0.00731631 0.670288
5 0.0234122 0.11 0.348996 0.0168902 0.471901
5 0.0234122 -0.11 0.537664 0.00499274 0.513007
5 0.0264113 0.11 0.401164 0.0187696 0.506037
5 0.0264113 -0.11 0.606066 0.00549322 0.53804
5 0.112825 -0.01 0.97019 0.00741045 0.670386
5 0.112825 0.01 0.956888 0.00711153 0.672183
5 0.106012 -0.04 0.985406 0.00876889 0.662009
5 0.106012 0.04 0.932317 0.00803406 0.668189
5 0.0805853 -0.08 0.987134 0.00894588 0.64455
5 0.0805853 0.08 0.869255 0.0122508 0.648662
5 0.054221 0.1 0.741649 0.0200217 0.625098
5 0.054221 -0.1 0.944145 0.00797238 0.624726
5 0.0294653 0.11 0.452295 0.0203679 0.534418
5 0.0294653 -0.11 0.669948 0.0059285 0.558372
5 0.0972268 -0.06 0.990995 0.00970249 0.654613
5 0.0972268 0.06 0.910988 0.00951393 0.661236
5 0.0707909 -0.09 0.979988 0.00848805 0.638283
5 0.0707909 0.09 0.831503 0.0152293 0.641609
5 0.0908536 -0.07 0.991683 0.00968991 0.650434
5 0.0908536 0.07 0.896325 0.0105139 0.656252
5 0.0325754 0.11 0.501325 0.0216525 0.557376
5 0.0325754 -0.11 0.728251 0.00630226 0.574604
5 0.115123 0 0.963524 0.00718777 0.671891
5 0.103796 -0.05 0.989439 0.00934486 0.658993
5 0.103796 0.05 0.923383 0.00866991 0.66616
5 0.0577851 -0.1 0.957111 0.00808489 0.627774
5 0.0577851 0.1 0.761155 0.0191632 0.628479
5 0.0357425 0.11 0.547224 0.0225718 0.575463
5 0.0357425 -0.11 0.780177 0.00662413 0.587397
5 0.0846329 -0.08 0.990227 0.00921892 0.64609
5 0.0846329 0.08 0.875151 0.0120394 0.650301
5 0.0389677 0.11 0.589107 0.0230967 0.58936
5 0.0389677 -0.11 0.825285 0.00691166 0.597417
5 0.112825 -0.03 0.981602 0.00776606 0.666643
5 0.112825 0.03 0.941163 0.00751648 0.671424
5 0.115123 -0.02 0.975845 0.00741715 0.669155
5 0.115123 0.02 0.948969 0.00736924 0.67232
5 0.0746589 -0.09 0.98433 0.00864525 0.640111
5 0.0746589 0.09 0.841633 0.0145908 0.643229
5 0.0614146 -0.1 0.966764 0.00817614 0.630426
5 0.0614146 0.1 0.778252 0.0183182 0.631464
5 0.110526 -0.04 0.985752 0.00847123 0.663438
5 0.110526 0.04 0.93242 0.0082959 0.669316
5 0.0422521 0.11 0.626386 0.0231973 0.599779
5 0.0422521 -0.11 0.863501 0.00717888 0.605276
5 0.117464 -0.01 0.970145 0.00714143 0.671661
5 0.117464 0.01 0.956874 0.00708759 0.673334
5 0.10158 -0.06 0.99214 0.00972652 0.656008
5 0.10158 0.06 0.912235 0.00976934 0.662693
5 0.0950896 -0.07 0.993531 0.009897 0.651852
5 0.0950896 0.07 0.899023 0.0106372 0.657871
5 0.0455967 0.11 0.658875 0.0229121 0.607459