# kMean  POINT_DATA 63840
# x  y  z  kMean
0 0.5 3.39583e-17 0.00375
0 0.5 -0.00617931 0.00375
0 0.5 0.00617931 0.00375
0.0124865 0.5 -0.00617931 0.00375036
0.0124865 0.5 0.00617931 0.0037504
0 0.5 -0.0688207 0.00375
0 0.5 0.0688207 0.00375
0.0124865 0.5 -0.0688207 0.00375036
0.0124865 0.5 0.0688207 0.0037504
0 0.5 -0.075 0.00375
0 0.5 0.075 0.00375
0 0.5 -0.0811793 0.00375
0 0.5 0.0811793 0.00375
0.0124865 0.5 -0.0811793 0.00375033
0.0124865 0.5 0.0811793 0.00375045
0.075776 0.5 -0.0375 0.0037522
0.075776 0.5 0.0375 0.00375244
0.075776 0.5 -0.1125 0.00375201
0.075776 0.5 0.1125 0.00375272
0 0.5 -0.143821 0.00375
0 0.5 0.143821 0.00375
0.0124865 0.5 -0.143821 0.00375033
0.0124865 0.5 0.143821 0.00375045
0 0.5 -0.15 0.00375
0 0.5 0.15 0.00375
0.151149 0.5 -0.00137318 0.00375475
0 0.5 -0.156179 0.00375
0 0.5 0.156179 0.00375
0.0124865 0.5 -0.156179 0.00375031
0.0124865 0.5 0.156179 0.0037505
0.151149 0.5 0.075 0.00375519
0.151149 0.5 -0.075 0.00375443
0.075776 0.5 -0.1875 0.00375188
0.075776 0.5 0.1875 0.00375303
0.151149 0.5 0.15 0.00375571
0.151149 0.5 -0.15 0.0037542
0 0.5 -0.218821 0.00375
0 0.5 0.218821 0.00375
0.0124865 0.5 -0.218821 0.00375031
0.0124865 0.5 0.218821 0.0037505
0.219992 0.5 0.0375 0.00375727
0.219993 0.5 -0.0375 0.00375676
0 0.5 -0.225 0.00375
0 0.5 0.225 0.00375
0 0.5 -0.231179 0.00375
0 0.5 0.231179 0.00375
0.0124865 0.5 -0.231179 0.0037503
0.0124865 0.5 0.231179 0.00375055
0.219992 0.5 0.1125 0.00375796
0.219993 0.5 -0.1125 0.00375643
0.151149 0.5 -0.225 0.00375407
0.151149 0.5 0.225 0.00375629
0.075776 0.5 -0.2625 0.00375183
0.075776 0.5 0.2625 0.00375333
0.288069 0.5 -0.00137318 0.00376161
0.219992 0.5 0.1875 0.00375876
0.219993 0.5 -0.1875 0.00375618
0 0.5 0.293821 0.00375
0 0.5 -0.293821 0.00375
0.0124865 0.5 -0.293821 0.0037503
0.0124865 0.5 0.293821 0.00375055
0.288069 0.5 -0.075 0.00376118
0.288069 0.5 0.075 0.00376223
0 0.5 -0.3 0.00375
0 0.5 0.3 0.00375
0 0.5 0.306179 0.00375
0 0.5 -0.306179 0.00375
0.0124865 0.5 -0.306179 0.0037503
0.0124865 0.5 0.306179 0.0037506
0.288069 0.5 -0.15 0.00376087
0.288069 0.5 0.15 0.00376298
0.151149 0.5 -0.3 0.00375403
0.151149 0.5 0.3 0.00375689
0.219992 0.5 -0.2625 0.00375609
0.219992 0.5 0.2625 0.00375962
0.075776 0.5 0.3375 0.00375363
0.075776 0.5 -0.3375 0.00375182
0.350249 0.5 -0.0375 0.00376567
0.350249 0.5 0.0375 0.00376621
0.288069 0.5 -0.225 0.00376068
0.288069 0.5 0.225 0.00376386
0.350249 0.5 0.1125 0.00376687
0.350249 0.5 -0.1125 0.00376529
0 0.5 0.368821 0.00375
0 0.5 -0.368821 0.00375
0.0124865 0.5 -0.368821 0.0037503
0.0124865 0.5 0.368821 0.0037506
0 0.5 -0.375 0.00375
0 0.5 0.375 0.00375
0 0.5 -0.381179 0.00375
0 0.5 0.381179 0.00375
0.0124865 0.5 -0.381179 0.0037503
0.0124865 0.5 0.381179 0.00375065
0.350249 0.5 -0.1875 0.00376501
0.350249 0.5 0.1875 0.00376773
0.219992 0.5 -0.3375 0.00375608
0.219992 0.5 0.3375 0.00376051
0.151149 0.5 -0.375 0.00375405
0.151149 0.5 0.375 0.00375748
0.411736 0.5 -0.00137318 0.0037731
0.288069 0.5 -0.3 0.00376059
0.288069 0.5 0.3 0.00376482
0.411736 0.5 -0.075 0.00377268
0.411736 0.5 0.075 0.0037737
0.075776 0.5 -0.4125 0.00375184
0.075776 0.5 0.4125 0.00375391
0.350249 0.5 -0.2625 0.00376485
0.350249 0.5 0.2625 0.00376874
0.411736 0.5 -0.15 0.00377231
0.411736 0.5 0.15 0.00377438
0 0.5 -0.443821 0.00375
0 0.5 0.443821 0.00375
0.0124865 0.5 -0.443821 0.0037503
0.0124865 0.5 0.443821 0.00375065
0 0.5 -0.45 0.00375
0 0.5 0.45 0.00375
0 0.5 -0.456179 0.00375
0 0.5 0.456179 0.00375
0.0124865 0.5 -0.456179 0.00375031
0.0124865 0.5 0.456179 0.00375069
0.219992 0.5 -0.4125 0.00375618
0.219993 0.5 0.4125 0.00376138
0.411736 0.5 -0.225 0.00377202
0.411736 0.5 0.225 0.00377521
0.467897 0.5 0.0375 0.00378015
0.467897 0.5 -0.0375 0.00377966
0.288069 0.5 -0.375 0.00376061
0.288069 0.5 0.375 0.00376581
0.151149 0.5 -0.45 0.00375418
0.151149 0.5 0.45 0.00375804
0.467897 0.5 -0.1125 0.00377923
0.467897 0.5 0.1125 0.00378071
0.350249 0.5 0.3375 0.00376982
0.350249 0.5 -0.3375 0.00376478
0.075776 0.5 -0.4875 0.00375192
0.075776 0.5 0.4875 0.00375416
0.467897 0.5 -0.1875 0.00377885
0.467897 0.5 0.1875 0.00378136
0.411736 0.5 -0.3 0.00377181
0.411736 0.5 0.3 0.00377616
0 0.5 -0.518821 0.00375
0 0.5 0.518821 0.00375
0.0124865 0.5 0.518821 0.00375069
0.0124865 0.5 -0.518821 0.00375031
0.523432 0.5 -0.00137318 0.00378952
0 0.5 -0.525 0.00375
0 0.5 0.525 0.00375
0.523432 0.5 -0.075 0.00378908
0.523432 0.5 0.075 0.00379007
0 0.5 -0.531179 0.00375
0 0.5 0.531179 0.00375
0.0124865 0.5 -0.531179 0.00375033
0.0124865 0.5 0.531179 0.00375072
0.288069 0.5 -0.45 0.00376078
0.288069 0.5 0.45 0.00376678
0.219992 0.5 -0.4875 0.00375646
0.219993 0.5 0.4875 0.0037622
0.467897 0.5 -0.2625 0.00377852
0.467897 0.5 0.2625 0.00378216
0.350249 0.5 -0.4125 0.00376483
0.350249 0.5 0.4125 0.00377092
0.523432 0.5 -0.15 0.00378858
0.523432 0.5 0.15 0.00379058
0.151149 0.5 -0.525 0.00375438
0.151149 0.5 0.525 0.00375856
0.411736 0.5 -0.375 0.00377167
0.411736 0.5 0.375 0.00377718
0.075776 0.5 -0.5625 0.00375204
0.075776 0.5 0.5625 0.00375437
0.523432 0.5 -0.225 0.00378808
0.523432 0.5 0.225 0.00379115
0.574156 0.5 -0.0375 0.00379845
0.574156 0.5 0.0375 0.00379895
0.467897 0.5 0.3375 0.00378309
0.467897 0.5 -0.3375 0.00377824
0.574156 0.5 -0.1125 0.0037979
0.574156 0.5 0.1125 0.00379939
0 0.5 -0.593821 0.00375
0 0.5 0.593821 0.00375
0.0124865 0.5 -0.593821 0.00375033
0.0124865 0.5 0.593821 0.00375072
0.288069 0.5 -0.525 0.00376105
0.288069 0.5 0.525 0.00376769
0 0.5 -0.6 0.00375
0 0.5 0.6 0.00375
0.350249 0.5 -0.4875 0.00376507
0.350249 0.5 0.4875 0.003772
0.523432 0.5 -0.3 0.00378758
0.523432 0.5 0.3 0.00379182
0.219992 0.5 -0.5625 0.0037568
0.219992 0.5 0.5625 0.00376294
0.574156 0.5 -0.1875 0.00379728
0.574156 0.5 0.1875 0.0037998
0 0.5 -0.606179 0.00375
0 0.5 0.606179 0.00375
0.0124865 0.5 -0.606179 0.00375036
0.0124865 0.5 0.606179 0.00375075
0.411736 0.5 -0.45 0.00377165
0.411736 0.5 0.45 0.0037782
0.151149 0.5 -0.6 0.00375462
0.151149 0.5 0.6 0.00375901
0.62168 0.5 2.64545e-17 0.00380986
0.467897 0.5 0.4125 0.00378406
0.467897 0.5 -0.4125 0.003778
0.624316 0.5 0.0729402 0.00381102
0.624316 0.5 -0.075 0.00380993
0.574156 0.5 -0.2625 0.00379662
0.574157 0.5 0.2625 0.00380024
0.075776 0.5 -0.6375 0.00375217
0.075776 0.5 0.6375 0.00375454
0.624316 0.5 -0.15 0.00380917
0.624316 0.5 0.15 0.00381137
0.523432 0.5 -0.375 0.00378706
0.523432 0.5 0.375 0.00379256
0.350249 0.5 -0.5625 0.00376532
0.350249 0.5 0.5625 0.00377299
0.624316 0.5 -0.225 0.00380828
0.624316 0.5 0.225 0.00381165
0.288069 0.5 0.6 0.00376851
0.288069 0.5 -0.6 0.00376135
0.574156 0.5 -0.3375 0.00379591
0.574156 0.5 0.3375 0.00380076
0.411736 0.5 -0.525 0.0037717
0.411736 0.5 0.525 0.00377919
0 0.5 -0.668821 0.00375
0 0.5 0.668821 0.00375
0.0124865 0.5 -0.668821 0.00375036
0.0124865 0.5 0.668821 0.00375075
0.67013 0.5 0.0375 0.00382208
0.67013 0.5 -0.0375 0.00382148
0.219993 0.5 -0.6375 0.00375716
0.219993 0.5 0.6375 0.00376358
0 0.5 -0.675 0.00375
0 0.5 0.675 0.00375
0.467897 0.5 0.4875 0.00378503
0.467897 0.5 -0.4875 0.0037779
0.67013 0.5 -0.1125 0.00382065
0.67013 0.5 0.1125 0.00382245
0 0.5 -0.681179 0.00375
0 0.5 0.681179 0.00375
0.0124865 0.5 -0.681179 0.00375038
0.0124865 0.5 0.681179 0.00375077
0.523432 0.5 -0.45 0.00378659
0.523432 0.5 0.45 0.00379332
0.151149 0.5 -0.675 0.00375487
0.151149 0.5 0.675 0.00375938
0.624316 0.5 -0.3 0.00380727
0.624316 0.5 0.3 0.00381189
0.67013 0.5 0.1875 0.00382264
0.67013 0.5 -0.1875 0.00381963
0.574156 0.5 -0.4125 0.00379512
0.574157 0.5 0.4125 0.00380132
0.708171 0.5 1.88651e-17 0.0038333
0.075776 0.5 -0.7125 0.0037523
0.075776 0.5 0.7125 0.00375467
0.715434 0.5 0.0736268 0.00383576
0.715434 0.5 -0.075 0.00383457
0.67013 0.5 0.2625 0.00382269
0.67013 0.5 -0.2625 0.00381842
0.350249 0.5 -0.6375 0.00376557
0.350249 0.5 0.6375 0.00377388
0.411736 0.5 -0.6 0.00377172
0.411736 0.5 0.6 0.00378008
0.624316 0.5 -0.375 0.00380614
0.624316 0.5 0.375 0.00381215
0.715434 0.5 -0.15 0.00383338
0.715434 0.5 0.15 0.00383627
0.467897 0.5 -0.5625 0.00377773
0.467897 0.5 0.5625 0.00378593
0.288069 0.5 -0.675 0.00376164
0.288069 0.5 0.675 0.00376922
0.523432 0.5 -0.525 0.0037861
0.523432 0.5 0.525 0.00379405
0 0.5 -0.743821 0.00375
0 0.5 0.743821 0.00375
0.0124865 0.5 -0.743821 0.00375038
0.0124865 0.5 0.743821 0.00375077
0.219992 0.5 0.7125 0.0037641
0.219992 0.5 -0.7125 0.00375751
0.715434 0.5 -0.225 0.00383191
0.715434 0.5 0.225 0.00383626
0 0.5 -0.75 0.00375
0 0.5 0.75 0.00375
0.67013 0.5 0.3375 0.0038227
0.67013 0.5 -0.3375 0.00381701
0.574156 0.5 -0.4875 0.00379437
0.574156 0.5 0.4875 0.00380189
0 0.5 -0.756179 0.00375
0 0.5 0.756179 0.00375
0.0124865 0.5 -0.756179 0.0037504
0.0124865 0.5 0.756179 0.00375078
0.756813 0.5 -0.0375 0.00384807
0.756813 0.5 0.0375 0.00384892
0.151149 0.5 -0.75 0.00375511
0.151149 0.5 0.75 0.00375967
0.756813 0.5 -0.1125 0.00384681
0.756813 0.5 0.1125 0.00384934
0.624316 0.5 -0.45 0.00380492
0.624316 0.5 0.45 0.0038124
0.715434 0.5 -0.3 0.00383016
0.715434 0.5 0.3 0.00383604
0.756813 0.5 0.1875 0.00384935
0.756813 0.5 -0.1875 0.00384517
0.67013 0.5 -0.4125 0.00381542
0.67013 0.5 0.4125 0.00382267
0.411736 0.5 -0.675 0.00377169
0.411736 0.5 0.675 0.00378086
0.467897 0.5 0.6375 0.00378674
0.467897 0.5 -0.6375 0.0037775
0.075776 0.5 -0.7875 0.00375243
0.075776 0.5 0.7875 0.00375475
0.350249 0.5 -0.7125 0.00376578
0.350249 0.5 0.7125 0.00377463
0.523432 0.5 -0.6 0.0037855
0.523432 0.5 0.6 0.00379471
0.797732 0.5 2.68882e-17 0.00386357
0.756813 0.5 -0.2625 0.00384318
0.756814 0.5 0.2625 0.00384904
0.797732 0.5 0.0736268 0.00386426
0.797732 0.5 -0.075 0.00386225
0.288069 0.5 -0.75 0.0037619
0.288069 0.5 0.75 0.00376978
0.574156 0.5 -0.5625 0.00379346
0.574157 0.5 0.5625 0.0038024
0.715434 0.5 -0.375 0.00382816
0.715434 0.5 0.375 0.00383572
0.797732 0.5 -0.15 0.00386044
0.797732 0.5 0.15 0.00386459
0.624316 0.5 -0.525 0.00380359
0.624316 0.5 0.525 0.00381261
0.219992 0.5 -0.7875 0.00375784
0.219992 0.5 0.7875 0.00376449
0 0.5 -0.818821 0.00375
0 0.5 0.818821 0.00375
0.0124865 0.5 0.818821 0.00375078
0.0124865 0.5 -0.818821 0.0037504
0 0.5 -0.825 0.00375
0 0.5 0.825 0.00375
0.756813 0.5 0.3375 0.00384848
0.756814 0.5 -0.3375 0.00384084
0.67013 0.5 -0.4875 0.00381373
0.67013 0.5 0.4875 0.00382261
0.797732 0.5 -0.225 0.00385817
0.797732 0.5 0.225 0.00386434
0 0.5 -0.831179 0.00375
0 0.5 0.831179 0.00375
0.0124865 0.5 -0.831179 0.00375042
0.0124865 0.5 0.831179 0.00375079
0.835106 0.5 0.0375 0.00387863
0.835106 0.5 -0.0375 0.00387737
0.151149 0.5 -0.825 0.00375533
0.151149 0.5 0.825 0.00375987
0.835106 0.5 0.1125 0.00387921
0.835106 0.5 -0.1125 0.0038755
0.715434 0.5 -0.45 0.00382595
0.715434 0.5 0.45 0.00383531
0.797732 0.5 -0.3 0.00385547
0.797732 0.5 0.3 0.00386368
0.467897 0.5 0.7125 0.00378742
0.467897 0.5 -0.7125 0.0037772
0.523432 0.5 -0.675 0.00378482
0.523432 0.5 0.675 0.00379525
0.411736 0.5 -0.75 0.0037716
0.411736 0.5 0.75 0.0037815
0.835106 0.5 -0.1875 0.00387305
0.835106 0.5 0.1875 0.00387914
0.574156 0.5 -0.6375 0.00379244
0.574157 0.5 0.6375 0.00380282
0.350249 0.5 -0.7875 0.00376593
0.350249 0.5 0.7875 0.00377522
0.756813 0.5 -0.4125 0.00383823
0.756814 0.5 0.4125 0.00384779
0.075776 0.5 -0.8625 0.00375254
0.075776 0.5 0.8625 0.0037548
0.624316 0.5 0.6 0.00381275
0.624316 0.5 -0.6 0.00380209
0.872064 0.5 5.91974e-17 0.00389439
0.870122 0.5 0.075 0.00389455
0.288069 0.5 -0.825 0.00376211
0.288069 0.5 0.825 0.0037702
0.67013 0.5 -0.5625 0.0038118
0.67013 0.5 0.5625 0.00382248
0.872064 0.5 -0.075 0.00389248
0.835106 0.5 -0.2625 0.00387008
0.835106 0.5 0.2625 0.0038785
0.797732 0.5 -0.375 0.0038524
0.797732 0.5 0.375 0.00386271
0.872064 0.5 0.14794 0.00389588
0.872064 0.5 -0.15 0.00388987
0.715434 0.5 -0.525 0.00382351
0.715434 0.5 0.525 0.0038348
0.219992 0.5 0.8625 0.00376476
0.219993 0.5 -0.8625 0.00375813
0 0.5 -0.893821 0.00375
0 0.5 0.893821 0.00375
0.0124865 0.5 -0.893821 0.00375042
0.0124865 0.5 0.893821 0.00375079
0 0.5 -0.9 0.00375
0 0.5 0.9 0.00375
0.756813 0.5 -0.4875 0.00383533
0.756813 0.5 0.4875 0.00384696
0.872064 0.5 -0.225 0.00388663
0.872064 0.5 0.225 0.00389547
0.835106 0.5 -0.3375 0.00386664
0.835106 0.5 0.3375 0.00387739
0 0.5 0.906179 0.00375
0 0.5 -0.906179 0.00375
0.0124865 0.5 -0.906179 0.00375043
0.0124865 0.5 0.906179 0.00375079
0.90582 0.5 -0.0375 0.00390925
0.90582 0.5 0.0375 0.00391106
0.151149 0.5 -0.9 0.00375551
0.151149 0.5 0.9 0.00375998
0.90582 0.5 -0.1125 0.00390658
0.905821 0.5 0.1125 0.00391194
0.523432 0.5 -0.75 0.00378403
0.523432 0.5 0.75 0.00379566
0.574156 0.5 -0.7125 0.00379129
0.574156 0.5 0.7125 0.00380312
0.797732 0.5 -0.45 0.00384896
0.797732 0.5 0.45 0.00386154
0.467897 0.5 0.7875 0.00378794
0.467897 0.5 -0.7875 0.0037768
0.624316 0.5 -0.675 0.00380045
0.624316 0.5 0.675 0.00381278
0.411736 0.5 -0.825 0.00377143
0.411736 0.5 0.825 0.00378196
0.872064 0.5 0.3 0.00389441
0.872064 0.5 -0.3 0.00388285
0.67013 0.5 -0.6375 0.00380971
0.67013 0.5 0.6375 0.00382225
0.90582 0.5 0.1875 0.00391191
0.905821 0.5 -0.1875 0.00390314
0.350249 0.5 -0.8625 0.00376602
0.350249 0.5 0.8625 0.00377564
0.835106 0.5 -0.4125 0.0038628
0.835106 0.5 0.4125 0.00387594
0.715434 0.5 -0.6 0.00382083
0.715434 0.5 0.6 0.00383418
0.939201 0.5 2.75387e-17 0.00392681
0.075776 0.5 0.9375 0.0037548
0.075776 0.5 -0.9375 0.00375264
0.939111 0.5 0.075 0.00392853
0.939201 0.5 -0.075 0.00392414
0.756813 0.5 0.5625 0.00384599
0.756814 0.5 -0.5625 0.00383214
0.90582 0.5 0.2625 0.00391103
0.905821 0.5 -0.2625 0.00389909
0.288069 0.5 -0.9 0.00376226
0.288069 0.5 0.9 0.00377047
0.872064 0.5 -0.375 0.00387854
0.872064 0.5 0.375 0.0038928
0.939201 0.5 0.148627 0.00392889
0.939201 0.5 -0.15 0.00392053
0.797732 0.5 -0.525 0.00384517
0.797732 0.5 0.525 0.00386019
0.219992 0.5 0.9375 0.00376489
0.219992 0.5 -0.9375 0.00375836
0.939201 0.5 -0.225 0.00391617
0.939201 0.5 0.225 0.00392851
0.905821 0.5 -0.3375 0.00389446
0.90582 0.5 0.3375 0.00390943
0.835106 0.5 -0.4875 0.00385845
0.835106 0.5 0.4875 0.00387427
0 0.5 0.968821 0.00375
0 0.5 -0.968821 0.00375
0.0124865 0.5 -0.968821 0.00375043
0.0124865 0.5 0.968821 0.00375079
0.969689 0.5 -0.0375 0.00394164
0.969689 0.5 0.0375 0.00394417
0.574156 0.5 -0.7875 0.00379005
0.574156 0.5 0.7875 0.00380328
0 0.5 -0.975 0.00375
0 0.5 0.975 0.00375
0.624316 0.5 -0.75 0.00379869
0.624316 0.5 0.75 0.00381268
0.969689 0.5 -0.1125 0.00393797
0.96969 0.5 0.1125 0.00394546
0.523432 0.5 -0.825 0.00378316
0.523432 0.5 0.825 0.00379591
0.67013 0.5 0.7125 0.00382191
0.67013 0.5 -0.7125 0.00380746
0 0.5 -0.981179 0.00375
0 0.5 0.981179 0.00375
0.467897 0.5 0.8625 0.00378828
0.467897 0.5 -0.8625 0.00377633
0.0124865 0.5 -0.981179 0.00375045
0.0124865 0.5 0.981179 0.00375078
0.872064 0.5 -0.45 0.00387367
0.872064 0.5 0.45 0.00389082
0.715434 0.5 -0.675 0.00381799
0.715434 0.5 0.675 0.00383345
0.939201 0.5 -0.3 0.00391114
0.939201 0.5 0.3 0.00392707
0.151149 0.5 0.975 0.00375999
0.151149 0.5 -0.975 0.00375566
0.969689 0.5 -0.1875 0.00393334
0.969689 0.5 0.1875 0.00394551
0.756813 0.5 -0.6375 0.00382873
0.756813 0.5 0.6375 0.00384489
0.411736 0.5 -0.9 0.00377119
0.411736 0.5 0.9 0.00378225
0.90582 0.5 -0.4125 0.00388921
0.90582 0.5 0.4125 0.00390721
0.995005 0.5 0.0749309 0.00395778
0.797732 0.5 -0.6 0.00384111
0.797732 0.5 0.6 0.00385865
1.00005 0.5 -8.47123e-18 0.00395829
0.350249 0.5 -0.9375 0.00376603
0.350249 0.5 0.9375 0.00377588
1.00005 0.5 -0.0749309 0.00395484
0.969689 0.5 -0.2625 0.00392806
0.969689 0.5 0.2625 0.00394439
0.835106 0.5 -0.5625 0.00385379
0.835106 0.5 0.5625 0.00387236
1.00005 0.5 -0.149862 0.00395034
0.939201 0.5 -0.375 0.00390535
0.939201 0.5 0.375 0.00392482
1.00029 0.5 0.148988 0.00396112
0.075776 0.5 -1.0125 0.00375271
0.075776 0.5 1.0125 0.00375474
0.288069 0.5 0.975 0.00377058
0.288069 0.5 -0.975 0.00376234
0.872064 0.5 -0.525 0.00386832
0.872064 0.5 0.525 0.00388853
1.00005 0.5 0.224793 0.00396111
1.00005 0.5 -0.224793 0.00394501
0.969689 0.5 0.3375 0.00394225
0.96969 0.5 -0.3375 0.00392196
1.0271 0.5 -0.0368226 0.0039735
1.0271 0.5 0.0368226 0.0039767
0.90582 0.5 0.4875 0.00390463
0.905821 0.5 -0.4875 0.00388322
1.0271 0.5 -0.110468 0.00396913
1.0271 0.5 0.110468 0.0039808
0.67013 0.5 0.7875 0.00382143
0.67013 0.5 -0.7875 0.00380511
0.624316 0.5 0.825 0.00381243
0.624316 0.5 -0.825 0.00379683
0.219993 0.5 -1.0125 0.00375853
0.219993 0.5 1.0125 0.00376487
0.574156 0.5 -0.8625 0.00378872
0.574156 0.5 0.8625 0.00380327
0.715434 0.5 -0.75 0.00381501
0.715434 0.5 0.75 0.00383258
0.756813 0.5 0.7125 0.00384366
0.756814 0.5 -0.7125 0.00382516
0.523432 0.5 -0.9 0.0037822
0.523432 0.5 0.9 0.00379597
0.939201 0.5 -0.45 0.00389876
0.939201 0.5 0.45 0.00392198
1.04168 0.5 0 0.00398379
1.0271 0.5 -0.184113 0.00396383
1.0271 0.5 0.184113 0.00397915
0 0.5 -1.04382 0.00375
0 0.5 1.04382 0.00375
0.0124865 0.5 -1.04382 0.00375045
0.0124865 0.5 1.04382 0.00375078
1.00005 0.5 -0.299723 0.0039389
1.00005 0.5 0.299723 0.00395959
1.04168 0.5 -0.0729162 0.0039798
1.04168 0.5 0.0729162 0.00398652
0.797732 0.5 -0.675 0.00383685
0.797732 0.5 0.675 0.00385695
0.467897 0.5 0.9375 0.00378842
0.467897 0.5 -0.9375 0.00377577
0 0.5 -1.05 0.00375
0 0.5 1.05 0.00375
0.835106 0.5 -0.6375 0.00384888
0.835106 0.5 0.6375 0.00387023
1.04168 0.5 -0.145832 0.00397479
1.04168 0.5 0.145832 0.00398791
0.969689 0.5 -0.4125 0.00391486
0.96969 0.5 0.4125 0.00393926
0 0.5 -1.05618 0.00375
0 0.5 1.05618 0.00375
0.0124865 0.5 -1.05618 0.00375045
0.0124865 0.5 1.05618 0.00375077
1.05695 0.5 -0.0360764 0.00399071
1.05695 0.5 0.0360764 0.00399432
0.411736 0.5 -0.975 0.00377086
0.411736 0.5 0.975 0.00378236
0.872064 0.5 -0.6 0.00386266
0.872064 0.5 0.6 0.00388596
1.0271 0.5 -0.257759 0.00395778
1.0271 0.5 0.257759 0.00397844
0.151149 0.5 -1.05 0.00375576
0.151149 0.5 1.05 0.00375991
1.05695 0.5 0.108229 0.00399841
1.05695 0.5 -0.108229 0.00398598
1.04168 0.5 -0.218749 0.00396895
1.04168 0.5 0.218749 0.00398801
0.90582 0.5 -0.5625 0.00387688
0.905821 0.5 0.5625 0.00390168
1.00005 0.5 -0.374654 0.00393175
1.00005 0.5 0.374654 0.00395695
0.350249 0.5 1.0125 0.00377599
0.350249 0.5 -1.0125 0.00376595
1.05695 0.5 -0.180382 0.00398036
1.05695 0.5 0.180382 0.00399747
1.07319 0.5 0.0709442 0.00400664
0.939201 0.5 -0.525 0.00389162
0.939201 0.5 0.525 0.00391869
1.0271 0.5 -0.331404 0.00395078
1.0271 0.5 0.331404 0.00397648
1.08112 0.5 3.23815e-17 0.00400786
1.04168 0.5 -0.291665 0.00396225
1.04168 0.5 0.291665 0.00398683
1.08112 0.5 -0.0709442 0.00400338
0.969689 0.5 -0.4875 0.00390689
0.96969 0.5 0.4875 0.00393572
1.05695 0.5 0.252535 0.00399709
1.05695 0.5 -0.252535 0.00397397
0.288069 0.5 -1.05 0.00376235
0.288069 0.5 1.05 0.00377053
0.075776 0.5 -1.0875 0.00375276
0.075776 0.5 1.0875 0.00375465
1.08112 0.5 -0.141888 0.00399792
1.08145 0.5 0.140165 0.00401247
0.715434 0.5 0.825 0.00383158
0.715434 0.5 -0.825 0.00381195
0.756813 0.5 0.7875 0.00384229
0.756814 0.5 -0.7875 0.00382149
0.67013 0.5 -0.8625 0.00380269
0.67013 0.5 0.8625 0.00382081
0.797732 0.5 -0.75 0.00383247
0.797732 0.5 0.75 0.00385512
0.624316 0.5 -0.9 0.00379491
0.624316 0.5 0.9 0.00381201
1.00005 0.5 -0.449585 0.00392346
1.00005 0.5 0.449585 0.00395336
0.835106 0.5 -0.7125 0.0038438
0.835106 0.5 0.7125 0.00386794
0.574156 0.5 -0.9375 0.00378731
0.574157 0.5 0.9375 0.00380306
1.10076 0.5 -0.0349809 0.00401841
1.10076 0.5 0.0349809 0.00402262
1.08112 0.5 -0.212832 0.00399162
1.08112 0.5 0.212832 0.00401357
0.872064 0.5 -0.675 0.00385678
0.872064 0.5 0.675 0.00388315
1.04168 0.5 -0.364581 0.00395439
1.04168 0.5 0.364581 0.00398433
1.0271 0.5 0.405049 0.00397321
1.0271 0.5 -0.405049 0.00394249
1.05695 0.5 -0.324688 0.00396656
1.05695 0.5 0.324688 0.00399541
1.10076 0.5 -0.104943 0.00401315
1.10076 0.5 0.104943 0.00402543
0.523432 0.5 0.975 0.00379585
0.523432 0.5 -0.975 0.00378116
0.90582 0.5 0.6375 0.00389845
0.905821 0.5 -0.6375 0.00387024
0.219992 0.5 1.0875 0.00376469
0.219992 0.5 -1.0875 0.00375864
1.11376 0.5 3.81639e-17 0.00402912
0.939201 0.5 0.6 0.00391495
0.939201 0.5 -0.6 0.0038842
1.10076 0.5 -0.174905 0.00400704
1.10076 0.5 0.174905 0.0040269
0.467897 0.5 -1.0125 0.00377512
0.467897 0.5 1.0125 0.00378841
1.11376 0.5 -0.0693118 0.00402422
1.11376 0.5 0.0693118 0.00403282
1.08112 0.5 0.283777 0.00401283
1.08112 0.5 -0.283777 0.00398437
0 0.5 -1.11882 0.00375
0 0.5 1.11882 0.00375
0.0124865 0.5 -1.11882 0.00375045
0.0124865 0.5 1.11882 0.00375077
0.969689 0.5 -0.5625 0.00389869
0.969689 0.5 0.5625 0.00393166
1.11376 0.5 0.138624 0.00403527
1.11376 0.5 -0.138624 0.00401836
0 0.5 -1.125 0.00375
0 0.5 1.125 0.00375
1.10076 0.5 0.244866 0.00402709
1.10076 0.5 -0.244866 0.00400007
0.411736 0.5 -1.05 0.00377045
0.411736 0.5 1.05 0.00378231
1.05695 0.5 -0.396841 0.00395778
1.05695 0.5 0.396841 0.00399235
1.00005 0.5 -0.524516 0.0039145
1.00005 0.5 0.524516 0.00394909
1.04168 0.5 -0.437497 0.0039452
1.04168 0.5 0.437497 0.00398058
0 0.5 -1.13118 0.00375
0 0.5 1.13118 0.00375
0.0124865 0.5 -1.13118 0.00375046
0.0124865 0.5 1.13118 0.00375075
1.11376 0.5 -0.207935 0.00401164
1.11376 0.5 0.207935 0.00403614
1.0271 0.5 -0.478694 0.00393294
1.0271 0.5 0.478694 0.00396893
0.151149 0.5 -1.125 0.00375581
0.151149 0.5 1.125 0.00375972
1.08112 0.5 -0.354722 0.00397588
1.08112 0.5 0.354722 0.00401072
1.13882 0.5 -0.0340295 0.00404371
1.13882 0.5 0.0340295 0.00404844
0.350249 0.5 -1.0875 0.00376579
0.350249 0.5 1.0875 0.00377586
1.13882 0.5 -0.102088 0.00403797
1.13882 0.5 0.102088 0.00405294
1.10076 0.5 -0.314829 0.00399197
1.10076 0.5 0.314829 0.00402591
0.756813 0.5 -0.8625 0.00381776
0.756814 0.5 0.8625 0.00384081
0.797732 0.5 -0.825 0.00382802
0.797732 0.5 0.825 0.00385315
1.11376 0.5 -0.277247 0.00400389
1.11376 0.5 0.277247 0.00403582
0.835106 0.5 0.7875 0.00386553
0.835106 0.5 -0.7875 0.00383864
0.715434 0.5 -0.9 0.00380884
0.715434 0.5 0.9 0.00383044
0.872064 0.5 -0.75 0.00385078
0.872064 0.5 0.75 0.00388013
1.13882 0.5 0.170147 0.0040538
1.13882 0.5 -0.170147 0.00403135
0.67013 0.5 -0.9375 0.00380021
0.67013 0.5 0.9375 0.00382001
0.905821 0.5 -0.7125 0.00386341
0.905821 0.5 0.7125 0.0038949
1.05695 0.5 0.468994 0.00398809
1.05695 0.5 -0.468994 0.00394774
0.939201 0.5 -0.675 0.0038766
0.939201 0.5 0.675 0.00391092
0.624316 0.5 0.975 0.00381142
0.624316 0.5 -0.975 0.00379292
1.04168 0.5 -0.510414 0.00393526
1.04168 0.5 0.510414 0.0039759
0.969689 0.5 -0.6375 0.00389026
0.96969 0.5 0.6375 0.00392699
0.288069 0.5 -1.125 0.00376227
0.288069 0.5 1.125 0.00377028
1.16179 0.5 5.78241e-19 0.00406273
1.08112 0.5 0.425666 0.00400725
1.08112 0.5 -0.425666 0.0039661
1.13882 0.5 -0.238206 0.00402379
1.13882 0.5 0.238206 0.00405448
1.16179 0.5 0.0669104 0.00407005
1.16179 0.5 -0.0669104 0.00405715
0.574156 0.5 -1.0125 0.00378583
0.574156 0.5 1.0125 0.00380269
0.075776 0.5 -1.1625 0.00375279
0.075776 0.5 1.1625 0.00375452
1.00005 0.5 -0.599447 0.00390539
1.00005 0.5 0.599447 0.00394416
1.10076 0.5 0.384791 0.00402331
1.10076 0.5 -0.384791 0.00398246
1.0271 0.5 -0.55234 0.0039231
1.0271 0.5 0.55234 0.00396388
1.11376 0.5 -0.346559 0.00399486
1.11376 0.5 0.346559 0.00403409
1.16179 0.5 -0.133821 0.00405063
1.16179 0.5 0.133821 0.00407064
0.523432 0.5 -1.05 0.00378005
0.523432 0.5 1.05 0.0037956
1.17463 0.5 -0.0331343 0.00406871
1.17463 0.5 0.0331343 0.00407396
1.17463 0.5 -0.0994029 0.00406248
1.17463 0.5 0.0994029 0.00407789
1.16179 0.5 -0.200731 0.00404317
1.16179 0.5 0.200731 0.00407186
1.13882 0.5 -0.306265 0.004015
1.13882 0.5 0.306265 0.0040538
0.219992 0.5 -1.1625 0.00375867
0.219992 0.5 1.1625 0.00376436
0.467897 0.5 -1.0875 0.00377439
0.467897 0.5 1.0875 0.00378826
1.17463 0.5 0.165672 0.00408039
1.17463 0.5 -0.165672 0.00405535
1.05695 0.5 -0.541147 0.00393751
1.05695 0.5 0.541147 0.00398298
1.18772 0.5 -5.78241e-19 0.00408111
1.11376 0.5 -0.41587 0.00398462
1.11376 0.5 0.41587 0.00403095
1.18772 0.5 -0.065614 0.00407517
1.18772 0.5 0.065614 0.00408617
1.08112 0.5 -0.49661 0.00395567
1.08112 0.5 0.49661 0.00400266
1.10076 0.5 -0.454752 0.00397187
1.10076 0.5 0.454752 0.00401934
1.18534 0.5 0.118202 0.00408933
1.16179 0.5 -0.267642 0.00403455
1.16179 0.5 0.267642 0.00407218
0 0.5 -1.19382 0.00375
0 0.5 1.19382 0.00375
0.0124865 0.5 1.19382 0.00375075
0.0124865 0.5 -1.19382 0.00375046
1.04168 0.5 -0.58333 0.00392515
1.04168 0.5 0.58333 0.00397032
1.18772 0.5 -0.131228 0.00406827
1.17463 0.5 -0.23194 0.00404718
1.17463 0.5 0.23194 0.00408154
0.411736 0.5 -1.125 0.00376995
0.411736 0.5 1.125 0.00378204
1.13882 0.5 -0.374324 0.00400487
1.13882 0.5 0.374324 0.00405168
0 0.5 -1.2 0.00375
0 0.5 1.2 0.00375
0.905821 0.5 0.7875 0.00389112
0.905821 0.5 -0.7875 0.00385654
0.872064 0.5 -0.825 0.00384477
0.872064 0.5 0.825 0.00387698
0.835106 0.5 0.8625 0.00386298
0.835106 0.5 -0.8625 0.00383346
0.939201 0.5 -0.75 0.00386897
0.939201 0.5 0.75 0.00390668
0.797732 0.5 -0.9 0.00382356
0.797732 0.5 0.9 0.00385106
1.0271 0.5 0.625985 0.00395809
1.0271 0.5 -0.625985 0.00391323
0.969689 0.5 0.7125 0.00392238
0.96969 0.5 -0.7125 0.00388183
1.18772 0.5 -0.196842 0.00406038
1.18772 0.5 0.196842 0.00409135
0.756814 0.5 -0.9375 0.00381402
0.756814 0.5 0.9375 0.00383919
0 0.5 1.20618 0.00375
0 0.5 -1.20618 0.00375
1.00005 0.5 -0.674378 0.00389621
1.00005 0.5 0.674378 0.00393893
0.0124865 0.5 1.20618 0.00375072
0.0124865 0.5 -1.20618 0.00375046
1.16179 0.5 -0.334552 0.00402465
1.16179 0.5 0.334552 0.00407109
0.715434 0.5 0.975 0.00382915
0.715434 0.5 -0.975 0.00380571
0.151149 0.5 -1.2 0.00375582
0.151149 0.5 1.2 0.00375945
1.20942 0.5 0.0322645 0.00410088
1.20942 0.5 -0.0322645 0.00409467
1.17463 0.5 -0.298209 0.0040377
1.17463 0.5 0.298209 0.00408134
1.20942 0.5 -0.0967935 0.00408791
1.20942 0.5 0.0967935 0.00410495
0.350249 0.5 -1.1625 0.00376555
0.350249 0.5 1.1625 0.00377548
0.67013 0.5 1.0125 0.00381906
0.67013 0.5 -1.0125 0.00379769
1.11376 0.5 0.485183 0.00402657
1.11376 0.5 -0.485183 0.00397382
1.18772 0.5 0.262456 0.004092
1.18772 0.5 -0.262456 0.00405128
1.10076 0.5 -0.524714 0.00396115
1.10076 0.5 0.524714 0.00401436
1.20942 0.5 -0.161322 0.00408018
1.20942 0.5 0.161322 0.00410799
1.08112 0.5 -0.567554 0.00394501
1.08112 0.5 0.567554 0.00399696
0.624316 0.5 -1.05 0.00379088
0.624316 0.5 1.05 0.00381071
1.13882 0.5 -0.442383 0.00399386
1.13882 0.5 0.442383 0.0040481
1.05695 0.5 0.6133 0.00397674
1.05695 0.5 -0.6133 0.00392705
1.16179 0.5 -0.401463 0.00401368
1.16179 0.5 0.401463 0.00406852
0.574156 0.5 -1.0875 0.00378428
0.574156 0.5 1.0875 0.00380224
1.17463 0.5 0.364477 0.00407967
1.17463 0.5 -0.364477 0.00402694
1.20942 0.5 -0.225851 0.00407131
1.20942 0.5 0.225851 0.00410963
1.23036 0.5 -1.32995e-17 0.00411467
1.2294 0.5 0.0634819 0.00412036
1.04168 0.5 -0.656246 0.00391483
1.04168 0.5 0.656246 0.00396419
1.23036 0.5 -0.0634819 0.00410802
1.18772 0.5 0.32807 0.00409124
1.18772 0.5 -0.32807 0.0040409
0.288069 0.5 -1.2 0.00376213
0.288069 0.5 1.2 0.00376984
1.23036 0.5 -0.126964 0.00410037
1.23036 0.5 0.126964 0.00412433
0.075776 0.5 -1.2375 0.0037528
0.075776 0.5 1.2375 0.00375435
0.523432 0.5 -1.125 0.00377887
0.523432 0.5 1.125 0.00379516
1.0271 0.5 -0.69963 0.00390325
1.0271 0.5 0.69963 0.00395224
1.24274 0.5 0.0314313 0.00412749
1.24274 0.5 -0.0314313 0.00412117
1.20942 0.5 0.29038 0.0041099
1.20942 0.5 -0.29038 0.00406111
1.11376 0.5 -0.554494 0.00396279
1.11376 0.5 0.554494 0.00402098
1.23036 0.5 -0.190445 0.0040916
1.23036 0.5 0.190445 0.00412703
1.24274 0.5 -0.0942942 0.00411383
1.24274 0.5 0.0942942 0.00413256
1.13882 0.5 0.510442 0.00404333
1.13882 0.5 -0.510442 0.00398271
0.969689 0.5 -0.7875 0.00387348
0.969689 0.5 0.7875 0.00391736
1.00005 0.5 -0.749309 0.00388705
1.00005 0.5 0.749309 0.00393358
0.939201 0.5 -0.825 0.00386137
0.939201 0.5 0.825 0.00390218
0.90582 0.5 0.8625 0.00388729
0.90582 0.5 -0.8625 0.00384977
1.17463 0.5 -0.430746 0.00401542
1.17463 0.5 0.430746 0.00407648
1.10076 0.5 -0.594676 0.0039501
1.10076 0.5 0.594676 0.004008
1.18772 0.5 -0.393684 0.00402955
1.18772 0.5 0.393684 0.00408898
1.24274 0.5 -0.157157 0.00410544
1.24274 0.5 0.157157 0.00413616
1.16179 0.5 -0.468373 0.00400229
1.16179 0.5 0.468373 0.00406456
0.467897 0.5 -1.1625 0.00377357
0.467897 0.5 1.1625 0.00378781
0.872064 0.5 -0.9 0.00383881
0.872064 0.5 0.9 0.00387373
1.25401 0.5 2.08167e-17 0.00413319
0.835106 0.5 0.9375 0.00386032
0.835106 0.5 -0.9375 0.00382833
1.25401 0.5 -0.0622994 0.00412615
1.25401 0.5 0.0622994 0.00413949
1.08112 0.5 -0.638498 0.00393385
1.08112 0.5 0.638498 0.00399025
1.23036 0.5 -0.253927 0.00408156
1.23036 0.5 0.253927 0.00412831
0.219992 0.5 1.2375 0.00376393
0.219992 0.5 -1.2375 0.00375864
1.25309 0.5 0.121964 0.00414362
1.05695 0.5 0.685452 0.00397024
1.05695 0.5 -0.685452 0.00391617
0.797732 0.5 0.975 0.00384884
0.797732 0.5 -0.975 0.00381913
1.25401 0.5 -0.124599 0.00411805
1.20942 0.5 -0.354909 0.0040497
1.20942 0.5 0.354909 0.0041087
1.24274 0.5 -0.220019 0.00409582
1.24274 0.5 0.220019 0.0041383
0.756814 0.5 -1.0125 0.00381029
0.756813 0.5 1.0125 0.00383743
1.25401 0.5 -0.186898 0.00410879
1.25401 0.5 0.186898 0.00414667
0.411736 0.5 -1.2 0.00376937
0.411736 0.5 1.2 0.00378149
0 0.5 -1.26882 0.00375
0 0.5 1.26882 0.00375
0.0124865 0.5 1.26882 0.00375072
0.0124865 0.5 -1.26882 0.00375046
0.715434 0.5 -1.05 0.00380258
0.715434 0.5 1.05 0.00382774
1.23036 0.5 -0.31741 0.00407028
1.23036 0.5 0.31741 0.00412815
1.04168 0.5 -0.729162 0.00390444
1.04168 0.5 0.729162 0.00395791
1.18772 0.5 -0.459298 0.00401782
1.18772 0.5 0.459298 0.00408525
1.24274 0.5 -0.282882 0.00408486
1.24274 0.5 0.282882 0.00413903
0 0.5 -1.275 0.00375
0 0.5 1.275 0.00375
1.27472 0.5 -0.0306319 0.00414835
1.27472 0.5 0.0306319 0.00415525
1.17463 0.5 0.497015 0.00407196
1.17463 0.5 -0.497015 0.00400386
1.11376 0.5 -0.623806 0.00395112
1.11376 0.5 0.623806 0.00401406
1.13882 0.5 -0.578501 0.00397118
1.13882 0.5 0.578501 0.00403727
0.67013 0.5 -1.0875 0.00379514
0.67013 0.5 1.0875 0.00381802
1.27472 0.5 -0.0918959 0.00414037
1.27472 0.5 0.0918959 0.00415769
1.25401 0.5 -0.249197 0.00409823
1.25401 0.5 0.249197 0.00414827
1.16179 0.5 -0.535284 0.00399068
1.16179 0.5 0.535284 0.00405933
1.20942 0.5 -0.419438 0.00403768
1.20942 0.5 0.419438 0.00410593
0 0.5 -1.28118 0.00375
0 0.5 1.28118 0.00375
0.0124865 0.5 1.28118 0.00375069
0.0124865 0.5 -1.28118 0.00375046
1.27472 0.5 0.15316 0.00416507