# kMean  POINT_DATA 91129
# x  y  z  kMean
0 0 0 0.00534238
0 0.00368111 0 0.00375
0 0.00749587 0 0.00375
0 0.0114491 0 0.00375
0 0.0155459 0 0.00375
0 0.0197915 0 0.00375
0 0.0241911 0 0.00375
0 0.0287506 0 0.00375
0 0.0334755 0 0.00375
0 0.038372 0 0.00375
0 0.0434463 0 0.00375
0 0.0487048 0 0.00375
0 0.0541543 0 0.00375
0 0.0598016 0 0.00375
0 0.0656539 0 0.00375
0 0.0717187 0 0.00375
0.075776 0.00184055 0 0.00892825
0.075776 0.00558849 0 0.00320551
0.075776 0.00947248 -3.46945e-18 0.00299927
0.075776 0.0134975 -3.46945e-18 0.00339099
0.075776 0.0176687 3.46945e-18 0.00356707
0 0.0780037 0 0.00375
0.075776 0.0219913 3.46945e-18 0.00363779
0.075776 0.0264709 3.46945e-18 0.00367358
0.075776 0.031113 -3.46945e-18 0.00369424
0.075776 0.0359237 -3.46945e-18 0.0037074
0 0.0845169 0 0.00375
0.075776 0.0409092 0 0.00371638
0.075776 0.0460755 -3.46945e-18 0.00372283
0 0.0912666 0 0.00375
0.075776 0.0514296 -3.46945e-18 0.00372765
0.075776 0.0569779 0 0.00373136
0 0.0982613 0 0.00375
0.075776 0.0627278 0 0.00373428
0.075776 0.0686863 0 0.00373664
0 0.10551 0 0.00375
0.075776 0.0748612 3.46945e-18 0.00373862
0.075776 0.0812603 -3.46945e-18 0.00374033
0 0.113022 0 0.00375
0.075776 0.0878918 3.46945e-18 0.0037418
0 0.120806 0 0.00375
0.075776 0.0947639 3.46945e-18 0.00374307
0.075776 0.101886 -3.46945e-18 0.00374416
0 0.128874 0 0.00375
0.075776 0.109266 3.46945e-18 0.00374509
0 0.137234 0 0.00375
0.075776 0.116914 3.46945e-18 0.00374588
0 0.145897 0 0.00375
0.075776 0.12484 0 0.00374656
0.151552 0 0 0.00548016
0.151552 0.00368111 0 0.00389978
0.151552 0.00749587 0 0.00250698
0.151552 0.0114491 0 0.00294593
0.151552 0.0155459 0 0.0033063
0.151552 0.0197915 0 0.00346745
0.075776 0.133054 0 0.00374715
0.151552 0.0241911 0 0.00355149
0.151552 0.0287506 0 0.00360439
0 0.154876 0 0.00375
0.151552 0.0334755 0 0.00363953
0.151552 0.038372 0 0.00366374
0.151552 0.0434463 0 0.00368106
0.151552 0.0487048 0 0.00369385
0.075776 0.141566 0 0.00374768
0.151552 0.0541543 0 0.00370358
0.151552 0.0598016 0 0.00371117
0 0.16418 0 0.00375
0.151552 0.0656539 0 0.00371722
0.151552 0.0717187 0 0.00372214
0.075776 0.150387 0 0.00374815
0.151552 0.0780037 0 0.00372622
0.151552 0.0845169 0 0.00372965
0 0.173822 0 0.00375
0.075776 0.159528 0 0.00374859
0.151552 0.0912666 0 0.00373256
0.151552 0.0982613 0 0.00373503
0 0.183814 0 0.00375
0.151552 0.10551 0 0.00373716
0.075776 0.169001 3.46945e-18 0.00374901
0.151552 0.113022 0 0.00373899
0.151552 0.120806 0 0.00374057
0 0.194169 0 0.00375
0.075776 0.178818 3.46945e-18 0.00374942
0.151552 0.128874 0 0.00374196
0.075776 0.188992 3.46945e-18 0.00374982
0.151552 0.137234 0 0.00374317
0 0.2049 0 0.00375
0.151552 0.145897 0 0.00374425
0.075776 0.199535 0 0.00375022
0 0.21602 0 0.00375
0.151552 0.154876 0 0.00374522
0.219992 0.00184055 0 0.00229743
0.219992 0.00558849 0 0.00150127
0.219992 0.00947248 -3.46945e-18 0.00241347
0.219992 0.0134975 3.46945e-18 0.00301835
0.219992 0.0176687 0 0.00327536
0.219992 0.0219913 0 0.00341036
0.219993 0.0264709 -3.46945e-18 0.00350025
0.219992 0.031113 -3.46945e-18 0.00356171
0.219992 0.0359238 3.46945e-18 0.0036042
0.151552 0.16418 0 0.00374609
0.075776 0.21046 0 0.00375061
0.219992 0.0409092 3.46945e-18 0.0036344
0.219992 0.0460755 0 0.00365654
0.219993 0.0514296 -3.46945e-18 0.00367321
0.219992 0.0569779 0 0.0036861
0 0.227544 0 0.00375
0.219992 0.0627277 3.46945e-18 0.00369627
0.219992 0.0686863 0 0.00370447
0.151552 0.173822 0 0.0037469
0.219992 0.0748612 3.46945e-18 0.00371119
0.075776 0.221782 0 0.00375098
0.219992 0.0812603 3.46945e-18 0.00371677
0.219992 0.0878917 -3.46945e-18 0.00372145
0.151552 0.183814 0 0.00374765
7.47806e-17 0.239487 0 0.00375
0.219992 0.0947639 3.46945e-18 0.00372542
0.219993 0.101886 3.46945e-18 0.00372881
0.075776 0.233516 0 0.00375131
0.219993 0.109266 0 0.00373173
0.151552 0.194169 0 0.00374834
0.219993 0.116914 0 0.00373425
0 0.251863 0 0.00375
0.219993 0.12484 0 0.00373646
0.151552 0.2049 0 0.003749
0.075776 0.245675 0 0.00375159
0.219992 0.133054 3.46945e-18 0.0037384
0.219992 0.141565 0 0.00374011
0.151552 0.21602 0 0.00374961
0 0.264688 0 0.00375
0.219992 0.150387 3.46945e-18 0.00374163
0.075776 0.258275 3.46945e-18 0.00375183
0.219992 0.159528 -3.46945e-18 0.00374299
0.151552 0.227544 0 0.00375018
0.219992 0.169001 3.46945e-18 0.00374421
0 0.27798 0 0.00375
0.075776 0.271334 3.46945e-18 0.00375202
0.151552 0.239487 3.70071e-18 0.00375071
0.219992 0.178818 3.46945e-18 0.00374532
0.288433 0 0 0.0015845
0.288433 0.00368111 0 0.00140414
0.288433 0.00749587 0 0.00179806
0.288433 0.0114491 0 0.0026884
0.288433 0.0155459 3.70071e-18 0.00312924
0.288433 0.0197915 0 0.00330802
0.288433 0.0241911 3.70071e-18 0.00340136
0.288433 0.0287506 0 0.00347285
0.219992 0.188991 0 0.00374633
0.288433 0.0334755 0 0.00352967
0.288433 0.038372 0 0.00357314
0.288433 0.0434463 0 0.00360636
7.47806e-17 0.291753 0 0.00375
0.288433 0.0487048 0 0.00363199
0.288433 0.0541543 0 0.00365206
0.151552 0.251863 0 0.00375119
0.288433 0.0598016 3.70071e-18 0.003668
0.075776 0.284866 0 0.00375214
0.288433 0.0656539 3.70071e-18 0.00368086
0.219992 0.199534 0 0.00374726
0.288433 0.0717187 0 0.00369137
0.288433 0.0780037 0 0.00370006
0.288433 0.0845169 0 0.00370731
0.288433 0.0912666 0 0.00371338
0.219992 0.21046 -3.46945e-18 0.00374811
0.288433 0.0982613 0 0.00371854
0.151552 0.264688 3.70071e-18 0.00375162
0 0.306027 0 0.00375
0.288433 0.10551 0 0.00372306
0.075776 0.29889 3.46945e-18 0.0037522
0.288433 0.113022 0 0.00372707
0.219993 0.221782 0 0.00374892
0.288433 0.120806 0 0.00373061
0.288433 0.128874 0 0.00373376
0.151552 0.27798 0 0.00375199
0.288433 0.137234 0 0.00373656
0 0.320819 0 0.00375
0.219992 0.233515 -3.46945e-18 0.00374967
0.075776 0.313423 -3.46945e-18 0.00375218
0.288433 0.145897 0 0.00373907
0.288433 0.154876 0 0.0037413
0.151552 0.291753 0 0.00375231
0.219993 0.245675 0 0.00375037
0.288433 0.16418 0 0.00374328
0 0.336148 0 0.00375
0.288433 0.173822 0 0.00374505
0.075776 0.328484 -3.46945e-18 0.00375211
0.219993 0.258275 -3.46945e-18 0.00375103
0.151552 0.306027 0 0.00375256
0.288433 0.183814 0 0.00374661
0.288433 0.194169 0 0.003748
0.219992 0.271334 3.46945e-18 0.00375163
0.350249 0.00184056 -3.46945e-18 0.000923998
0.350249 0.00558849 0 0.000966655
0.350249 0.00947248 3.46945e-18 0.00233428
0.350249 0.0134975 0 0.00299156
0.350249 0.0176687 0 0.00323427
0.350249 0.0219913 0 0.00331722
0.350249 0.0264708 3.46945e-18 0.00338553
0.350249 0.031113 0 0.00345245
0 0.352034 0 0.00375
0.350249 0.0359238 0 0.00350816
0.075776 0.344091 0 0.00375204
0.350249 0.0409091 0 0.0035526
0.350249 0.0460756 3.46945e-18 0.00358766
0.288433 0.2049 0 0.00374923
0.350249 0.0514296 0 0.00361541
0.151552 0.320819 0 0.00375276
0.350249 0.0569779 0 0.00363757
0.350249 0.0627277 3.46945e-18 0.00365546
0.350249 0.0686863 3.46945e-18 0.00367008
0.350249 0.0748612 3.46945e-18 0.00368214
0.350249 0.0812603 0 0.00369218
0.219992 0.284867 0 0.00375218
0.288433 0.21602 0 0.00375032
0.350249 0.0878917 0 0.00370057
0.350249 0.094764 0 0.00370756
0.350249 0.101886 0 0.00371363
0.350249 0.109266 0 0.00371912
0.288433 0.227544 0 0.00375131
0.075776 0.360265 3.46945e-18 0.00375201
0 0.368496 0 0.00375
0.151552 0.336148 0 0.00375292
0.350249 0.116914 3.46945e-18 0.00372403
0.219992 0.29889 0 0.00375268
0.370854 0.0241911 1.54074e-33 0.00337072
0.350249 0.12484 0 0.0037284
0.350249 0.133054 0 0.00373231
0.288433 0.239487 -9.25154e-19 0.0037522
0.350249 0.141566 3.46945e-18 0.00373583
0.350249 0.150387 3.46945e-18 0.00373897
0.288433 0.251863 0 0.00375302
0.219992 0.313423 0 0.00375313
0.151552 0.352034 0 0.00375308
0.075776 0.377027 0 0.00375204
0.350249 0.159528 0 0.00374176
0 0.385557 0 0.00375
0.350249 0.169001 0 0.00374422
0.288433 0.264688 0 0.00375376
0.350249 0.178818 0 0.00374639
0.219992 0.328484 0 0.00375353
0.350249 0.188992 0 0.0037483
0.151552 0.368496 0 0.00375327
0.288433 0.27798 3.70071e-18 0.00375444
0.075776 0.394397 0 0.00375212
0.350249 0.199535 0 0.00374994
7.47806e-17 0.403236 0 0.00375
0.219992 0.344091 0 0.00375389
0.350249 0.21046 -3.46945e-18 0.00375137
0.288433 0.291753 0 0.00375507
0.412065 9.08189e-19 3.08149e-33 0.000789566
0.412065 0.00368111 -2.31298e-18 0.000863754
0.412065 0.00749587 -2.31298e-18 0.00169547
0.412065 0.0114491 -2.31298e-18 0.00278988
0.412065 0.0155459 -2.31298e-18 0.00321451
0.412065 0.0197915 0 0.00332164
0.412065 0.0241911 -3.08149e-33 0.0033554
0.412065 0.0264709 0 0.00337505
0.412065 0.0287506 -2.31298e-18 0.00339469
0.412065 0.0334755 -2.31298e-18 0.00344556
0.412065 0.038372 -2.31298e-18 0.00349467
0.151552 0.385557 0 0.00375349
0.412065 0.0434463 0 0.00353722
0.350249 0.221782 0 0.00375262
0.412065 0.0487048 0 0.0035726
0.412065 0.0541543 -3.08149e-33 0.00360161
0.412065 0.0569779 0 0.0036135
0.412065 0.0598016 -2.31298e-18 0.00362538
0.412065 0.0656539 -2.31298e-18 0.00364493
0.412065 0.0717187 -2.31298e-18 0.00366108
0.075776 0.412396 -3.46945e-18 0.0037522
0.412065 0.0780037 -2.31298e-18 0.00367451
0.288433 0.306027 0 0.00375568
0.412065 0.0845169 -2.31298e-18 0.00368571
0.350249 0.233516 3.46945e-18 0.00375373
0 0.421557 0 0.00375
0.412065 0.0912666 -2.31298e-18 0.00369515
0.219992 0.360265 3.46945e-18 0.00375424
0.412065 0.0982613 0 0.00370341
0.412065 0.10551 0 0.00371086
0.412065 0.113022 -2.31298e-18 0.00371763
0.350249 0.245675 0 0.00375472
0.412065 0.120806 0 0.00372373
0.151552 0.403236 0 0.00375374
0.288433 0.320819 0 0.00375627
0.412065 0.128874 -2.31298e-18 0.0037292
0.412065 0.137234 0 0.00373411
0.350249 0.258275 -3.46945e-18 0.0037556
0.219992 0.377026 0 0.0037546
0.412065 0.145897 -2.31298e-18 0.00373849
0.075776 0.431051 0 0.00375225
0.412065 0.154876 -2.31298e-18 0.00374238
0 0.440544 0 0.00375
0.288433 0.336148 0 0.00375684
0.350249 0.271334 0 0.00375641
0.412065 0.16418 -2.31298e-18 0.0037458
0.412065 0.173822 -2.31298e-18 0.00374879
0.151552 0.421557 0 0.00375398
0.412065 0.183814 -2.31298e-18 0.0037514
0.350249 0.284867 3.46945e-18 0.00375716
0.219992 0.394397 0 0.00375499
0.288433 0.352034 3.70071e-18 0.00375739
0.412065 0.194169 0 0.00375366
0.075776 0.450382 0 0.00375228
0.412065 0.2049 -2.31298e-18 0.00375563
0 0.46022 0 0.00375
0.350249 0.29889 3.46945e-18 0.00375788
0.412065 0.21602 0 0.00375734
0.151552 0.440544 0 0.00375421
0.219993 0.412396 3.46945e-18 0.0037554
0.467897 0.00184056 -3.46945e-18 0.000664514
0.467897 0.00558849 0 0.000911228
0.288433 0.368496 0 0.00375794
0.467897 0.00947248 0 0.00256349
0.467897 0.0134975 0 0.00325251
0.467897 0.0176687 3.46945e-18 0.00336553
0.467897 0.0219913 -3.46945e-18 0.00336315
0.467897 0.0264709 3.46945e-18 0.00335514
0.467897 0.0311131 3.46945e-18 0.00338903
0.467897 0.0359238 -3.46945e-18 0.00343745
0.467897 0.038372 0 0.0034673
0.467897 0.0409092 3.46945e-18 0.00348544
0.350249 0.313423 0 0.00375862
0.467897 0.0460755 0 0.00352779
0.467897 0.0514296 3.46945e-18 0.00356358
0.412065 0.227544 -2.31298e-18 0.00375883
0.467897 0.0569779 0 0.00359337
0.467897 0.0627277 -3.46945e-18 0.00361808
0.467897 0.0686863 3.46945e-18 0.00363858
0.467897 0.0748612 0 0.00365563
0.467897 0.0812603 0 0.00366985
0.467897 0.0878918 3.46945e-18 0.00368171
0.075776 0.470415 3.46945e-18 0.0037523
0.412065 0.239487 -2.31298e-18 0.00376011
0.467897 0.0947639 -3.46945e-18 0.00369201
0.467897 0.101886 3.46945e-18 0.00370142
0.350249 0.328483 0 0.00375937
0.467897 0.109266 0 0.00371004
0 0.48061 0 0.00375
0.288433 0.385557 0 0.00375849
0.467897 0.116914 0 0.00371787
0.412065 0.251863 -2.31298e-18 0.00376124
0.219992 0.431051 0 0.0037558
0.467897 0.12484 0 0.00372495
0.151552 0.46022 0 0.00375441
0.467897 0.133054 3.46945e-18 0.00373131
0.467897 0.141566 3.46945e-18 0.003737
0.412065 0.264688 -2.31298e-18 0.00376224
0.350249 0.344091 -3.46945e-18 0.00376011
0.467897 0.150387 3.46945e-18 0.00374204
0.467897 0.154876 0 0.00374579
0.467897 0.159528 3.46945e-18 0.00374647
0.288433 0.403236 0 0.00375905
0.075776 0.491175 0 0.00375231
0.412065 0.27798 -2.31298e-18 0.00376313
0.467897 0.169001 0 0.00375035
0.467897 0.178818 3.46945e-18 0.00375372
0.219992 0.450382 0 0.00375619
6.73026e-17 0.501741 3.70071e-18 0.00375
0.350249 0.360265 0 0.00376084
0.151552 0.48061 0 0.0037546
0.467897 0.188991 0 0.00375662
0.412065 0.291753 0 0.00376397
0.467897 0.199535 0 0.00375916
0.288433 0.421557 0 0.00375961
0.467897 0.21046 0 0.00376137
0.412065 0.306027 0 0.00376477
0.350249 0.377027 0 0.00376156
0.467897 0.221782 3.46945e-18 0.00376327
0.075776 0.51269 0 0.00375233
0.219993 0.470415 3.46945e-18 0.00375655
0.467897 0.227544 0 0.00376595
0.412065 0.320819 -2.31298e-18 0.00376556
0.467897 0.233515 0 0.0037649
6.73026e-17 0.523639 3.70071e-18 0.00375
0.523729 0 0 0.000594096
0.523729 0.00368111 0 0.000744923
0.523729 0.00749587 -2.31298e-18 0.00180349
0.523729 0.0114491 0 0.0030921
0.523729 0.0155459 0 0.0034968
0.523729 0.0197915 -2.31298e-18 0.00348187
0.151552 0.501741 0 0.00375478
0.523729 0.0241911 0 0.00341367
0.523729 0.0287506 0 0.00338489
0.523729 0.0334755 0 0.00340201
0.523729 0.038372 -3.08149e-33 0.00343993
0.523729 0.0434463 0 0.00348248
0.523729 0.0487048 0 0.00352241
0.523729 0.0541543 0 0.00355748
0.288433 0.440544 0 0.00376017
0.523729 0.0598016 0 0.00358745
0.350249 0.394397 -3.46945e-18 0.00376227
0.523729 0.0656539 0 0.00361276
0.467897 0.245675 0 0.00376629
0.523729 0.0717187 0 0.00363404
0.523729 0.0780037 0 0.00365188
0.523729 0.0845169 0 0.00366692
0.523729 0.0912666 0 0.00367999
0.412065 0.336148 0 0.00376636
0.523729 0.0982613 0 0.0036918
0.523729 0.10551 -2.31298e-18 0.00370263
0.467897 0.258275 -3.46945e-18 0.0037675
0.523729 0.113022 0 0.00371253
0.523729 0.120806 -3.08149e-33 0.00372152
0.219993 0.491176 0 0.00375689
0.523729 0.12484 0 0.00372558
0.523729 0.128874 -2.31298e-18 0.00372965
0.075776 0.534986 0 0.00375237
0.467897 0.271334 3.46945e-18 0.00376857
0.350249 0.412396 -3.46945e-18 0.00376298
0.523729 0.137234 0 0.00373694
0.412065 0.352034 -2.31298e-18 0.00376714
0.288433 0.46022 0 0.00376071
0.523729 0.145897 0 0.00374344
0.151552 0.523639 0 0.00375495
0.523729 0.154876 -3.08149e-33 0.00374919
0 0.546332 0 0.00375
0.523729 0.159528 0 0.00375172
0.467897 0.284867 -3.46945e-18 0.00376952
0.523729 0.16418 -2.31298e-18 0.00375424
0.523729 0.173822 0 0.00375865
0.412065 0.368496 0 0.00376792
0.523729 0.183814 0 0.00376245
0.467897 0.29889 0 0.00377041
0.350249 0.431051 -3.46945e-18 0.00376369
0.219992 0.51269 0 0.0037572
0.523729 0.194169 0 0.00376574
0.288433 0.48061 0 0.00376121
0.523729 0.2049 0 0.00376858
0.467897 0.313423 3.46945e-18 0.00377127
0.075776 0.558091 0 0.00375241
0.412065 0.385557 0 0.0037687
0.523729 0.21602 -3.08149e-33 0.00377101
0.151552 0.546332 0 0.00375512
0 0.569849 0 0.00375
0.350249 0.450382 3.46945e-18 0.00376439
0.523729 0.227544 -3.08149e-33 0.00377308
0.467897 0.328483 0 0.0037721
0.523729 0.231525 1.54074e-33 0.00377366
0.574156 0.00184056 0 0.000528299
0.574156 0.00558849 0 0.000881293
0.574157 0.00947248 0 0.00284932
0.574156 0.0134975 -3.46945e-18 0.00367897
0.574156 0.0176687 -3.46945e-18 0.00366557
0.574156 0.0219913 0 0.00351783
0.574156 0.0264708 -3.46945e-18 0.00341139
0.574156 0.031113 0 0.0033823
0.574156 0.0359238 -3.46945e-18 0.00340073
0.574157 0.0409092 0 0.0034389
0.523729 0.239487 3.70071e-18 0.00377483
0.574156 0.0460755 -3.46945e-18 0.00348094
0.574156 0.0514295 0 0.00352041
0.412065 0.403236 0 0.00376947
0.574157 0.0569779 0 0.00355532
0.574156 0.0627277 0 0.00358541
0.574156 0.0686863 0 0.00361102
0.219992 0.534986 0 0.00375749
0.288433 0.501741 0 0.00376169
0.574156 0.0748612 3.46945e-18 0.00363265
0.574156 0.0812603 0 0.00365081
0.467897 0.344091 0 0.00377293
0.574156 0.0878917 3.46945e-18 0.00366647
0.523729 0.251863 0 0.00377632
0.574157 0.0947639 0 0.00368066
0.574156 0.101886 0 0.00369375
0.574156 0.109266 0 0.00370573
0.574156 0.116914 0 0.00371666
0.412065 0.416977 -6.16298e-33 0.00377006
0.350249 0.470415 0 0.00376506
0.523729 0.264688 0 0.0037776
0.075776 0.582034 0 0.00375245
0.574156 0.12484 0 0.00372658
0.574156 0.133054 3.46945e-18 0.00373554
0.412065 0.421557 -2.31298e-18 0.00377025
0.151552 0.569849 0 0.00375528
0.467897 0.360265 -3.46945e-18 0.00377376
0.574157 0.141566 -3.46945e-18 0.00374355
0.523729 0.27798 0 0.00377871
0.574156 0.150386 3.46945e-18 0.00375067
0 0.594219 0 0.00375
0.574156 0.159528 -3.46945e-18 0.00375695
0.574156 0.16418 0 0.00376115
0.288433 0.523639 1.2326e-32 0.00376213
0.574157 0.169001 0 0.00376244
0.523729 0.291753 0 0.0037797
0.219993 0.558091 3.46945e-18 0.00375778
0.467897 0.377026 0 0.00377459
0.574156 0.178818 3.46945e-18 0.00376721
0.412065 0.440544 -2.31298e-18 0.00377103
0.350249 0.491175 0 0.0037657
0.574156 0.188992 3.46945e-18 0.00377132
0.523729 0.306027 -3.08149e-33 0.0037806
0.574157 0.199535 0 0.00377484
0.574157 0.21046 0 0.00377785
0.075776 0.606847 0 0.00375251
0.467897 0.394397 0 0.00377543
0.151552 0.594219 0 0.00375545
0.523729 0.320819 0 0.00378146
0.574157 0.221782 -3.46945e-18 0.00378041
0.412065 0.46022 3.08149e-33 0.0037718
0.288433 0.546332 0 0.00376255
0 0.619475 0 0.00375
0.574156 0.233515 3.46945e-18 0.00378256
0.350249 0.51269 3.46945e-18 0.00376629
0.219992 0.582034 3.46945e-18 0.00375807
0.523729 0.336148 0 0.00378228
0.467897 0.412396 0 0.00377627
0.574156 0.245675 0 0.00378437
0.624584 0 0 0.000480134
0.624584 0.00368111 0 0.000678271
0.624584 0.00749587 0 0.00193146
0.624584 0.0114491 0 0.00345715
0.624584 0.0155459 0 0.00391055
0.624584 0.0197915 0 0.00377589
0.624584 0.0241911 -2.31298e-18 0.00357302
0.624584 0.0287506 0 0.00344904
0.624584 0.0334755 0 0.00340699
0.624584 0.038372 0 0.00341606
0.624584 0.0434463 -2.31298e-18 0.00344721
0.624584 0.0487048 0 0.00348506
0.624584 0.0541543 0 0.00352233
0.624584 0.0598016 0 0.00355623
0.624584 0.0656539 0 0.00358597
0.624584 0.0717187 0 0.00361158
0.624584 0.0780037 0 0.00363335
0.574157 0.258276 3.46945e-18 0.00378589
0.624584 0.0845169 0 0.0036521
0.523729 0.352034 0 0.00378309
0.624584 0.0912666 0 0.00366895
0.624584 0.0982613 0 0.00368453
0.412065 0.48061 3.08149e-33 0.00377253
0.624584 0.10551 0 0.0036989
0.624584 0.113022 -2.31298e-18 0.00371205
0.574156 0.271334 0 0.00378719
0.624584 0.120806 0 0.00372404
0.467897 0.431051 0 0.00377712
0.075776 0.632561 -3.46945e-18 0.00375257
0.624584 0.128874 0 0.00373492
0.151552 0.619475 0 0.00375562
0.288433 0.569849 0 0.00376295
0.350249 0.534985 0 0.00376685
0.624584 0.137234 -2.31298e-18 0.00374471
0.523729 0.368496 0 0.00378391
0.574156 0.284866 -3.46945e-18 0.0037883
0.624584 0.145897 0 0.00375347
0.467897 0.440544 0 0.00377913
0.624584 0.154876 0 0.00376123
0.219992 0.606847 -3.46945e-18 0.00375834
0 0.645647 0 0.00375
0.624584 0.16418 -3.08149e-33 0.00376806
0.574156 0.29889 -3.46945e-18 0.00378929
0.624584 0.173822 0 0.00377401
0.412065 0.501741 1.54074e-33 0.00377323
0.467897 0.450382 -3.46945e-18 0.00377797
0.523729 0.385557 0 0.00378472
0.624584 0.183814 0 0.00377915
0.624584 0.194169 0 0.00378357
0.574156 0.313423 0 0.00379018
0.624584 0.2049 0 0.00378734
0.350249 0.558091 3.46945e-18 0.00376737
0.288433 0.594219 0 0.00376333
0.624584 0.21602 0 0.00379053
0.523729 0.403236 0 0.00378555
0.574156 0.328483 -3.46945e-18 0.00379101
0.151552 0.645647 0 0.00375579
0.467897 0.470415 3.46945e-18 0.0037788
0.075776 0.659208 0 0.00375263
0.624584 0.227544 0 0.0037932
0.412065 0.523639 0 0.00377388
0.523729 0.41545 3.08149e-33 0.00378611
0.624584 0.239487 3.70071e-18 0.00379544
0.574156 0.344091 0 0.00379181
0.219992 0.632561 0 0.00375861
0.67013 0.00184055 0 0.000434916
0.67013 0.00558849 0 0.000871831
0.67013 0.00947248 0 0.00311537
0.67013 0.0134975 0 0.0041614
0.67013 0.0176687 -3.46945e-18 0.00410711
0.67013 0.0219913 0 0.00379052
0.67013 0.0264708 3.46945e-18 0.00355908
0.67013 0.0311131 0 0.00343699
0.67013 0.0359237 0 0.00340604
0.67013 0.0409092 -3.46945e-18 0.00341904
0.67013 0.0460755 0 0.00345151
0.67013 0.0514296 3.46945e-18 0.00348931
0.523729 0.421557 -2.31298e-18 0.00378639
0.67013 0.056978 0 0.00352618
0 0.67277 0 0.00375
0.67013 0.0627277 0 0.00355972
0.624584 0.251863 0 0.0037973
0.67013 0.0686863 0 0.00358923
0.67013 0.0748612 3.46945e-18 0.00361466
0.67013 0.0812603 0 0.00363632
0.67013 0.0878917 0 0.00365559
0.67013 0.0947639 3.46945e-18 0.00367364
0.574156 0.360265 0 0.00379261
0.67013 0.101886 0 0.00369042
0.523729 0.431051 0 0.00378681
0.624584 0.264688 0 0.00379884
0.467897 0.491175 0 0.0037796
0.67013 0.109266 3.46945e-18 0.00370582
0.350249 0.582034 0 0.00376786
0.67013 0.116914 0 0.0037199
0.67013 0.12484 0 0.00373273
0.67013 0.133054 0 0.00374435
0.288433 0.619475 0 0.0037637
0.624584 0.27798 -3.08149e-33 0.00380014
0.412065 0.546332 1.54074e-33 0.00377449
0.523729 0.440544 -3.08149e-33 0.00378723
0.67013 0.141566 3.46945e-18 0.00375479
0.685312 0.0241911 -7.70372e-34 0.00374899
0.685312 0.0434463 -7.70372e-34 0.00343983
0.67013 0.150387 0 0.00376409
0.574156 0.377026 -3.46945e-18 0.00379341
0.67013 0.159528 0 0.00377231
0.624584 0.291753 0 0.00380123
0.151552 0.67277 0 0.00375596
0.075776 0.686823 0 0.0037527
0.67013 0.169001 0 0.0037795
0.67013 0.178818 0 0.00378575
0.467897 0.51269 0 0.00378035
0.685312 0.113022 -7.70372e-34 0.00371444
0.219992 0.659208 0 0.00375888
0.624584 0.306027 0 0.00380218
0.67013 0.188991 0 0.00379113
0.574156 0.394397 3.46945e-18 0.00379421
0.523729 0.46022 0 0.00378808
0.685312 0.137234 -7.70372e-34 0.00375266
0.67013 0.199535 -3.46945e-18 0.00379572
0.350249 0.606847 0 0.00376832
0 0.700877 0 0.00375
0.624584 0.320819 0 0.00380303
0.67013 0.21046 0 0.00379961
0.412065 0.569849 -2.31298e-18 0.00377505
0.67013 0.221782 -3.46945e-18 0.00380286
0.574157 0.412396 0 0.00379504
0.288433 0.645647 0 0.00376404
0.624584 0.336148 -3.08149e-33 0.00380381
0.67013 0.233515 3.46945e-18 0.00380557
0.467897 0.534986 0 0.00378104
0.523729 0.48061 0 0.0037889
0.624584 0.344091 0 0.00380419
0.67013 0.245675 0 0.00380781
0.715676 4.54095e-19 0 0.000398705
0.715676 0.00368111 0 0.000634172
0.715676 0.00749587 0 0.00204799
0.715676 0.0114491 0 0.00380783
0.715676 0.0155459 0 0.00437798
0.715676 0.0197915 0 0.00417772
0.715676 0.0241911 0 0.00383697
0.715676 0.0287506 0 0.0035949
0.715676 0.0334755 0 0.00346864
0.715676 0.038372 0 0.00342887
0.624584 0.352034 -2.31298e-18 0.00380456
0.715676 0.0434463 0 0.00343614
0.151552 0.700877 0 0.00375612
0.715676 0.0487048 0 0.00346395
0.715676 0.0541543 0 0.00349859
0.574156 0.43105 0 0.00379588
0.715676 0.0598016 0 0.00353347
0.67013 0.258275 0 0.00380965
0.715676 0.0656539 0 0.0035658
0.715676 0.0717187 0 0.00359454
0.075776 0.715441 0 0.00375276
0.715676 0.0780037 0 0.00361957
0.715676 0.0845169 0 0.00364174
0.219992 0.686824 0 0.00375914
0.715676 0.0912666 0 0.00366221
0.715676 0.0982613 0 0.00368141
0.67013 0.271334 -3.46945e-18 0.00381115
0.350249 0.632561 -3.46945e-18 0.00376876
0.412065 0.594219 3.08149e-33 0.00377557
0.715676 0.10551 0 0.00369924
0.715676 0.113022 0 0.00371563
0.624584 0.368496 0 0.0038053
0.523729 0.501741 0 0.00378968
0.715676 0.120806 0 0.00373063
0.715676 0.128874 0 0.00374429
0.67013 0.284867 0 0.0038124
0.467897 0.558091 3.46945e-18 0.00378169
0.715676 0.137234 0 0.00375664
0.574156 0.450382 0 0.00379672
0 0.730005 0 0.00375
0.715676 0.145897 0 0.00376771
0.288433 0.67277 0 0.00376437
0.715676 0.154876 0 0.00377755
0.67013 0.29889 0 0.00381344
0.624584 0.385557 0 0.00380604
0.715676 0.16418 -9.25187e-19 0.00378623
0.715676 0.173822 0 0.0037938
0.715676 0.183814 0 0.00380036
0.67013 0.313423 0 0.00381433
0.523729 0.523639 0 0.00379042
0.715676 0.194169 0 0.00380597
0.574156 0.470415 3.46945e-18 0.00379757
0.624584 0.403236 0 0.00380679
0.743101 0.0241911 -7.70372e-34 0.00395722
0.412065 0.619475 3.08149e-33 0.00377605
0.715676 0.2049 0 0.00381074
0.151552 0.730005 0 0.00375628
0.67013 0.328484 3.46945e-18 0.00381511
0.350249 0.659208 0 0.00376916
0.467897 0.582034 0 0.00378227
0.715676 0.21602 0 0.00381474
0.219992 0.715441 0 0.00375939
0.075776 0.745097 -3.46945e-18 0.00375283
0.715676 0.227544 0 0.00381807
0.67013 0.344091 0 0.00381583
0.624584 0.421557 0 0.00380756
0.743101 0.128874 -7.70372e-34 0.00374849
0.715676 0.239487 3.70071e-18 0.00382081
0.574156 0.491175 0 0.00379838
0.756814 0.00184055 0 0.00036454
0.523729 0.546332 0 0.00379109
0.756813 0.00558849 0 0.000867586
0.756813 0.00947248 0 0.00333113
0.756814 0.0134975 -3.46945e-18 0.00460436
0.756814 0.0155459 0 0.00460963
0.756814 0.0176687 0 0.00461155
0.756814 0.0219913 0 0.00417585
0.756814 0.0264709 0 0.00380413
0.756814 0.031113 -3.46945e-18 0.00356847
0.756813 0.0359238 -3.46945e-18 0.00345776
0.288433 0.700877 0 0.00376468
0.756814 0.0409092 -3.46945e-18 0.00343079
0.756813 0.0460755 3.46945e-18 0.00344312
0.756813 0.0514296 0 0.00347259
0.715676 0.251863 0 0.00382305
0.756813 0.0569779 0 0.00350731
0.756814 0.0627277 -3.46945e-18 0.00354175
0.756814 0.0686863 -3.46945e-18 0.00357349
0 0.76019 0 0.00375
0.756814 0.0748612 0 0.00360159
0.67013 0.360265 3.46945e-18 0.00381651
0.756814 0.0812603 -3.46945e-18 0.00362637
0.756814 0.0878917 -3.46945e-18 0.00364915
0.756814 0.0947639 -3.46945e-18 0.00367072
0.715676 0.264688 0 0.00382486
0.756813 0.101886 0 0.00369094
0.624584 0.440544 0 0.00380834
0.756813 0.109266 3.46945e-18 0.00370966
0.756813 0.116914 3.46945e-18 0.00372685
0.412065 0.645647 0 0.00377649
0.467897 0.606847 0 0.00378281
0.756814 0.120806 0 0.00373557
0.756813 0.12484 0 0.00374257
0.715676 0.27798 0 0.00382633
0.756814 0.133054 -3.46945e-18 0.00375686
0.67013 0.377026 -3.46945e-18 0.00381719
0.756814 0.137234 0 0.00376421
0.574156 0.51269 0 0.00379916
0.756813 0.141566 3.46945e-18 0.00376975
0.685312 0.352034 -7.70372e-34 0.00382194
0.743101 0.2049 -7.70372e-34 0.0038197
0.350249 0.686824 0 0.00376954
0.756814 0.150387 0 0.00378128
0.756814 0.154876 0 0.00378735
0.715676 0.291753 0 0.00382752
0.756814 0.159528 -3.46945e-18 0.00379149
0.523729 0.569849 0 0.0037917
0.72743 0.264688 0 0.0038291
0.756814 0.16418 0 0.00379697
0.151552 0.76019 0 0.00375644
0.756813 0.169001 3.46945e-18 0.00380046
0.624584 0.46022 0 0.00380913
0.219993 0.745097 0 0.00375963
0.67013 0.394396 0 0.00381787
0.756813 0.178818 -3.46945e-18 0.00380825
0.715676 0.306027 0 0.00382849
0.075776 0.775831 0 0.0037529
0.756813 0.188991 0 0.00381496
0.756814 0.199535 0 0.00382067
0.715676 0.320819 0 0.0038293
0.574156 0.534985 0 0.00379987
0.288433 0.730005 0 0.00376498
0.756813 0.21046 0 0.00382549
0.467897 0.632561 0 0.0037833
0.67013 0.412396 -3.46945e-18 0.00381857
0.624584 0.48061 -3.08149e-33 0.00380991
0.756814 0.221782 0 0.0038295
0.412065 0.67277 3.08149e-33 0.00377689
0.715676 0.336148 0 0.00383
0 0.791472 0 0.00375
0.756813 0.233516 3.46945e-18 0.0038328
0.523729 0.594219 0 0.00379225
0.624584 0.487654 1.54074e-33 0.00381016
0.756814 0.245675 3.46945e-18 0.00383549
0.350249 0.715441 3.46945e-18 0.0037699
0.67013 0.43105 0 0.00381929
0.715676 0.352034 -9.25187e-19 0.00383063
0.797951 9.08189e-19 -3.08149e-33 0.000336768
0.797951 0.00368111 2.31298e-18 0.000599423
0.797951 0.00749587 2.31298e-18 0.0021381
0.797951 0.0114491 2.31298e-18 0.00411183
0.797951 0.0141803 7.70372e-34 0.00459813
0.797951 0.0155459 0 0.00484128
0.797951 0.0169611 7.70372e-34 0.00477618
0.797951 0.0197915 2.31298e-18 0.00464599
0.797951 0.0219913 0 0.00442186
0.797951 0.0241911 3.08149e-33 0.00419772
0.797951 0.0264709 0 0.00401111
0.797951 0.0287506 -3.08149e-33 0.0038245
0.797951 0.0334755 2.31298e-18 0.00359364
0.797951 0.038372 2.31298e-18 0.00348523
0.797951 0.0434463 2.31298e-18 0.00345352
0.797951 0.0487048 0 0.00346191
0.756813 0.258275 -3.46945e-18 0.00383766
0.797951 0.0541543 2.31298e-18 0.00348802
0.797951 0.0598016 2.31298e-18 0.00352024
0.797951 0.0656539 2.31298e-18 0.00355286
0.574156 0.55809 0 0.00380052
0.624584 0.501741 0 0.00381066
0.797951 0.0717187 2.31298e-18 0.00358322
0.797951 0.0780037 -3.08149e-33 0.00361061
0.797951 0.0845169 2.31298e-18 0.00363574
0.797951 0.0912666 -3.08149e-33 0.00365947
0.797951 0.0982613 2.31298e-18 0.00368197
0.756813 0.271334 0 0.00383939
0.797951 0.10551 2.31298e-18 0.00370305
0.715676 0.368496 0 0.00383123
0.151552 0.791472 0 0.00375659
0.797951 0.113022 2.31298e-18 0.00372256
0.219992 0.775831 3.46945e-18 0.00375986
0.797951 0.118211 7.70372e-34 0.00373452
0.770526 0.239487 1.54074e-33 0.00384014
0.797951 0.120806 0 0.0037405
0.67013 0.450382 3.46945e-18 0.00382003
0.797951 0.128874 3.08149e-33 0.0037569
0.467897 0.659208 0 0.00378373
0.756813 0.284866 -3.46945e-18 0.00384076
0.743101 0.320819 -7.70372e-34 0.00383927
0.797951 0.137234 0 0.00377178
0.797951 0.141566 0 0.00377848
0.797951 0.145897 -9.25187e-19 0.00378518
0.523729 0.619475 0 0.00379274
0.075776 0.807681 0 0.00375297
0.797951 0.150387 0 0.00379116
0.797951 0.154876 0 0.00379714
0.715676 0.385557 0 0.00383182
0.412065 0.700877 3.08149e-33 0.00377726
0.288433 0.76019 0 0.00376525
0.756813 0.29889 0 0.00384184
0.797951 0.16418 0 0.0038077
0.624584 0.523639 0 0.00381136
0.797951 0.167394 7.70372e-34 0.00381078
0.797951 0.173822 2.31298e-18 0.00381694
0.574156 0.582034 0 0.0038011
0.67013 0.470415 0 0.00382077
0.797951 0.183814 2.31298e-18 0.00382495
0.756813 0.313423 -3.46945e-18 0.00384271
0.797951 0.194169 -9.25187e-19 0.00383181
0.715676 0.403236 0 0.00383241
0.151552 0.807681 0 0.00375666
0.797951 0.197746 -7.70372e-34 0.00383375
0.350249 0.745097 0 0.00377022
0.797951 0.2049 3.08149e-33 0.00383762
0 0.823889 0 0.00375
0.756813 0.328483 -3.46945e-18 0.00384342
0.797951 0.21046 0 0.00384006
0.797951 0.21602 -3.08149e-33 0.00384249
0.797951 0.223703 7.70372e-34 0.00384517
0.797951 0.227544 9.25187e-19 0.00384651
0.624584 0.546332 0 0.003812
0.715676 0.421557 0 0.00383303
0.67013 0.491176 -3.46945e-18 0.0038215
0.797951 0.231525 7.70372e-34 0.00384761
0.467897 0.686824 -3.46945e-18 0.00378412
0.523729 0.645647 0 0.00379316
0.756813 0.344091 -3.46945e-18 0.00384402
0.822721 0.120806 7.70372e-34 0.00374462
0.797951 0.239487 -3.08149e-33 0.0038498
0.822721 0.137234 7.70372e-34 0.00377762
0.835106 0.00184056 0 0.00031043
0.835106 0.00558849 0 0.000856873
0.835106 0.00947248 0 0.00349292
0.835106 0.0134975 0 0.00500413
0.835107 0.0176687 0 0.00512101
0.835106 0.0219913 -3.46945e-18 0.00464952