# kMean  POINT_DATA 63140
# x  y  z  kMean
0 0.1 0 0.00375
0 0.1 -0.0179898 0.00375
0 0.1 0.0179898 0.00375
0.0363518 0.1 0.0179898 0.00374732
0.0363518 0.1 -0.0179898 0.00374707
0 0.1 -0.0570102 0.00375
0 0.1 0.0570102 0.00375
0.0363518 0.1 0.0570102 0.00374732
0.0363518 0.1 -0.0570102 0.00374707
0 0.1 -0.075 0.00375
0 0.1 0.075 0.00375
0.075776 0.1 -0.0375 0.00374361
0.075776 0.1 0.0375 0.00374413
0 0.1 -0.0929898 0.00375
0 0.1 0.0929898 0.00375
0.0363518 0.1 -0.0929898 0.00374693
0.0363518 0.1 0.0929898 0.00374767
0 0.1 -0.13201 0.00375
0 0.1 0.13201 0.00375
0.075776 0.1 -0.1125 0.00374332
0.075776 0.1 0.1125 0.00374483
0.0363518 0.1 -0.13201 0.00374693
0.0363518 0.1 0.13201 0.00374767
0 0.1 -0.15 0.00375
0 0.1 0.15 0.00375
0.150379 0.1 -2.22623e-17 0.00373571
0 0.1 -0.16799 0.00375
0 0.1 0.16799 0.00375
0.150379 0.1 -0.075 0.00373529
0.150379 0.1 0.075 0.00373664
0.0363518 0.1 -0.16799 0.00374693
0.0363518 0.1 0.16799 0.0037481
0.075776 0.1 -0.1875 0.00374334
0.075776 0.1 0.1875 0.00374571
0 0.1 -0.20701 0.00375
0 0.1 0.20701 0.00375
0.0363518 0.1 -0.20701 0.00374693
0.0363518 0.1 0.20701 0.0037481
0.150379 0.1 -0.15 0.00373538
0.150379 0.1 0.15 0.00373792
0.219993 0.1 -0.0375 0.00372752
0.219993 0.1 0.0375 0.0037283
0 0.1 -0.225 0.00375
0 0.1 0.225 0.00375
0 0.1 -0.24299 0.00375
0 0.1 0.24299 0.00375
0.0363518 0.1 0.24299 0.00374856
0.0363518 0.1 -0.24299 0.00374708
0.219993 0.1 -0.1125 0.00372742
0.219993 0.1 0.1125 0.00373002
0.150379 0.1 -0.225 0.00373608
0.150379 0.1 0.225 0.0037393
0.075776 0.1 -0.2625 0.00374364
0.075776 0.1 0.2625 0.00374667
0 0.1 -0.28201 0.00375
0 0.1 0.28201 0.00375
0.0363518 0.1 -0.28201 0.00374708
0.0363518 0.1 0.28201 0.00374856
0.287374 0.1 -2.89121e-19 0.0037198
0.219992 0.1 0.1875 0.00373178
0.219992 0.1 -0.1875 0.00372817
0.287374 0.1 -0.075 0.0037197
0.287374 0.1 0.075 0.00372072
0 0.1 -0.3 0.00375
0 0.1 0.3 0.00375
0 0.1 0.31799 0.00375
0 0.1 -0.31799 0.00375
0.0363518 0.1 -0.31799 0.00374737
0.0363518 0.1 0.31799 0.00374902
0.287374 0.1 0.15 0.00372227
0.287374 0.1 -0.15 0.00372037
0.150379 0.1 -0.3 0.00373718
0.150379 0.1 0.3 0.00374074
0.219993 0.1 0.2625 0.00373367
0.219993 0.1 -0.2625 0.00372982
0.075776 0.1 -0.3375 0.00374422
0.075776 0.1 0.3375 0.00374762
0.350249 0.1 -0.0375 0.00371194
0.350249 0.1 0.0375 0.0037121
0 0.1 -0.35701 0.00375
0 0.1 0.35701 0.00375
0.0363518 0.1 -0.35701 0.00374737
0.0363518 0.1 0.35701 0.00374902
0.287374 0.1 -0.225 0.0037218
0.287374 0.1 0.225 0.00372414
0.350249 0.1 -0.1125 0.00371256
0.350249 0.1 0.1125 0.00371314
0 0.1 -0.375 0.00375
0 0.1 0.375 0.00375
0 0.1 -0.39299 0.00375
0 0.1 0.39299 0.00375
0.0363518 0.1 -0.39299 0.00374767
0.0363518 0.1 0.39299 0.0037494
0.350249 0.1 -0.1875 0.00371395
0.350249 0.1 0.1875 0.00371484
0.219992 0.1 -0.3375 0.00373163
0.219992 0.1 0.3375 0.00373559
0.150379 0.1 0.375 0.0037421
0.150379 0.1 -0.375 0.00373819
0.411108 0.1 4.33681e-19 0.00370536
0.287374 0.1 -0.3 0.00372357
0.287374 0.1 0.3 0.0037262
0.411108 0.1 -0.075 0.0037059
0.411108 0.1 0.075 0.00370558
0.075776 0.1 -0.4125 0.00374485
0.075776 0.1 0.4125 0.0037484
0 0.1 0.43201 0.00375
0 0.1 -0.43201 0.00375
0.0363518 0.1 0.43201 0.0037494
0.0363518 0.1 -0.43201 0.00374767
0.411108 0.1 -0.15 0.00370709
0.411108 0.1 0.15 0.00370657
0.350249 0.1 -0.2625 0.00371584
0.350249 0.1 0.2625 0.00371698
0 0.1 -0.45 0.00375
0 0.1 0.45 0.00375
0.219992 0.1 0.4125 0.00373732
0.219992 0.1 -0.4125 0.00373262
0 0.1 -0.46799 0.00375
0 0.1 0.46799 0.00375
0.411108 0.1 -0.225 0.00370872
0.411108 0.1 0.225 0.0037082
0.467897 0.1 -0.0375 0.00369919
0.467897 0.1 0.0375 0.00369867
0.0363518 0.1 0.46799 0.00374971
0.0363518 0.1 -0.46799 0.00374795
0.287374 0.1 -0.375 0.003725
0.287374 0.1 0.375 0.00372824
0.150379 0.1 0.45 0.00374315
0.150379 0.1 -0.45 0.00373898
0.467897 0.1 0.1125 0.0036989
0.467897 0.1 -0.1125 0.00370034
0.350249 0.1 -0.3375 0.00371759
0.350249 0.1 0.3375 0.00371925
0.075776 0.1 -0.4875 0.00374542
0.075776 0.1 0.4875 0.00374904
0.467897 0.1 0.1875 0.00369993
0.467897 0.1 -0.1875 0.00370193
0 0.1 -0.50701 0.00375
0 0.1 0.50701 0.00375
0.0363518 0.1 -0.50701 0.00374795
0.0363518 0.1 0.50701 0.00374971
0.411108 0.1 0.3 0.00371024
0.411108 0.1 -0.3 0.00371039
0.522865 0.1 1.41031e-17 0.00369455
0 0.1 -0.525 0.00375
0 0.1 0.525 0.00375
0.522865 0.1 -0.075 0.00369556
0.522865 0.1 0.075 0.00369409
0.287374 0.1 0.45 0.00372993
0.287374 0.1 -0.45 0.003726
0.219992 0.1 0.4875 0.00373833
0.219992 0.1 -0.4875 0.00373357
0.467897 0.1 -0.2625 0.0037036
0.467897 0.1 0.2625 0.0037016
0.350249 0.1 -0.4125 0.00371876
0.350249 0.1 0.4125 0.00372147
0 0.1 -0.54299 0.00375
0 0.1 0.54299 0.00375
0.522865 0.1 0.15 0.00369429
0.522865 0.1 -0.15 0.00369693
0.0363518 0.1 0.54299 0.00374998
0.0363518 0.1 -0.54299 0.0037482
0.150379 0.1 -0.525 0.00373967
0.150379 0.1 0.525 0.00374391
0.411108 0.1 -0.375 0.00371173
0.411108 0.1 0.375 0.00371245
0.075776 0.1 -0.5625 0.00374593
0.075776 0.1 0.5625 0.0037496
0.522865 0.1 -0.225 0.00369837
0.522865 0.1 0.225 0.0036952
0.574156 0.1 0.0375 0.00368977
0.574157 0.1 -0.0375 0.00369079
0.467897 0.1 -0.3375 0.00370499
0.467897 0.1 0.3375 0.0037037
0 0.1 -0.58201 0.00375
0 0.1 0.58201 0.00375
0.0363518 0.1 -0.58201 0.0037482
0.0363518 0.1 0.58201 0.00374998
0.574157 0.1 -0.1125 0.00369212
0.574157 0.1 0.1125 0.00368925
0.287374 0.1 -0.525 0.0037268
0.287374 0.1 0.525 0.00373117
0 0.1 -0.6 0.00375
0 0.1 0.6 0.00375
0.350249 0.1 0.4875 0.00372324
0.350249 0.1 -0.4875 0.00371964
0.522865 0.1 -0.3 0.00369961
0.522865 0.1 0.3 0.00369669
0.219992 0.1 -0.5625 0.00373431
0.219992 0.1 0.5625 0.00373915
0.574156 0.1 -0.1875 0.00369351
0.574156 0.1 0.1875 0.00368937
0.411108 0.1 0.45 0.00371453
0.411108 0.1 -0.45 0.00371265
0 0.1 -0.61799 0.00375
0 0.1 0.61799 0.00375
0.150379 0.1 -0.6 0.0037402
0.150379 0.1 0.6 0.00374457
0.0363518 0.1 -0.61799 0.00374841
0.0363518 0.1 0.61799 0.00375024
0.467897 0.1 -0.4125 0.00370601
0.467897 0.1 0.4125 0.00370594
0.623803 0.1 2.34188e-17 0.00368813
0.623803 0.1 0.075 0.00368716
0.623803 0.1 -0.075 0.00368933
0.574156 0.1 0.2625 0.00369019
0.574156 0.1 -0.2625 0.00369466
0.623803 0.1 0.15 0.0036866
0.623803 0.1 -0.15 0.00369052
0.075776 0.1 0.6375 0.00375012
0.075776 0.1 -0.6375 0.00374637
0.522865 0.1 -0.375 0.00370052
0.522865 0.1 0.375 0.00369856
0 0.1 0.65701 0.00375
0 0.1 -0.65701 0.00375
0.0363518 0.1 0.65701 0.00375024
0.0363518 0.1 -0.65701 0.00374841
0.350249 0.1 0.5625 0.00372458
0.350249 0.1 -0.5625 0.00372028
0.623803 0.1 0.225 0.00368661
0.623803 0.1 -0.225 0.00369151
0.287374 0.1 -0.6 0.00372736
0.287374 0.1 0.6 0.00373217
0.574157 0.1 -0.3375 0.00369545
0.574157 0.1 0.3375 0.00369159
0.411108 0.1 0.525 0.00371625
0.411108 0.1 -0.525 0.00371327
0.67013 0.1 0.0375 0.00368535
0.67013 0.1 -0.0375 0.0036866
0.219992 0.1 -0.6375 0.0037347
0.219993 0.1 0.6375 0.00373989
0 0.1 -0.675 0.00375
0 0.1 0.675 0.00375
0.467897 0.1 -0.4875 0.00370663
0.467897 0.1 0.4875 0.00370802
0.67013 0.1 -0.1125 0.00368777
0.67013 0.1 0.1125 0.00368427
0.522865 0.1 0.45 0.00370053
0.522865 0.1 -0.45 0.00370106
0.150379 0.1 0.675 0.00374518
0.150379 0.1 -0.675 0.00374065
0.623803 0.1 0.3 0.00368722
0.623803 0.1 -0.3 0.00369213
0 0.1 -0.69299 0.00375
0 0.1 0.69299 0.00375
0.0363518 0.1 -0.69299 0.00374862
0.0363518 0.1 0.69299 0.00375045
0.67013 0.1 -0.1875 0.00368868
0.67013 0.1 0.1875 0.00368355
0.574156 0.1 0.4125 0.00369334
0.574157 0.1 -0.4125 0.0036959
0.714971 0.1 -2.8382e-17 0.00368584
0.075776 0.1 -0.7125 0.0037468
0.075776 0.1 0.7125 0.00375057
0.714971 0.1 -0.075 0.00368691
0.714971 0.1 0.075 0.00368462
0.67013 0.1 0.2625 0.00368339
0.67013 0.1 -0.2625 0.00368919
0.411108 0.1 -0.6 0.00371368
0.411108 0.1 0.6 0.00371759
0.350249 0.1 0.6375 0.00372564
0.350249 0.1 -0.6375 0.00372071
0.623803 0.1 0.375 0.00368834
0.623803 0.1 -0.375 0.00369234
0.714971 0.1 -0.15 0.00368768
0.714971 0.1 0.15 0.00368348
0.467897 0.1 -0.5625 0.00370698
0.467897 0.1 0.5625 0.00370969
0 0.1 -0.73201 0.00375
0 0.1 0.73201 0.00375
0.0363518 0.1 0.73201 0.00375045
0.0363518 0.1 -0.73201 0.00374862
0.287374 0.1 -0.675 0.00372782
0.287374 0.1 0.675 0.00373303
0.522865 0.1 -0.525 0.00370126
0.522865 0.1 0.525 0.00370232
0.219993 0.1 -0.7125 0.00373524
0.219992 0.1 0.7125 0.00374061
0.714971 0.1 -0.225 0.00368801
0.714971 0.1 0.225 0.00368263
0 0.1 0.75 0.00375
0 0.1 -0.75 0.00375
0.67013 0.1 -0.3375 0.00368925
0.67013 0.1 0.3375 0.0036838
0.574156 0.1 -0.4875 0.00369596
0.574157 0.1 0.4875 0.00369516
0.756813 0.1 0.0375 0.00368501
0.756814 0.1 -0.0375 0.00368616
0.150379 0.1 0.746002 0.00374579
0.150379 0.1 -0.75 0.00374115
0.756813 0.1 -0.1125 0.00368691
0.756813 0.1 0.1125 0.00368364
0 0.1 0.76799 0.00375
0 0.1 -0.76799 0.00375
0.0363518 0.1 0.76799 0.00375063
0.0363518 0.1 -0.76799 0.00374883
0.623803 0.1 -0.45 0.00369217
0.623803 0.1 0.45 0.00368974
0.714971 0.1 -0.3 0.00368785
0.714971 0.1 0.3 0.00368223
0.756814 0.1 -0.1875 0.00368715
0.756814 0.1 0.1875 0.00368227
0.67013 0.1 -0.4125 0.00368885
0.67013 0.1 0.4125 0.00368472
0.411108 0.1 0.675 0.00371867
0.411108 0.1 -0.675 0.00371402
0.467897 0.1 0.6375 0.00371098
0.467897 0.1 -0.6375 0.00370721
0.075776 0.1 0.7875 0.00375093
0.075776 0.1 -0.7875 0.00374723
0.350249 0.1 -0.7125 0.00372118
0.350249 0.1 0.7125 0.00372655
0.522865 0.1 -0.6 0.00370127
0.522865 0.1 0.6 0.00370376
0.797314 0.1 -3.59473e-17 0.00368717
0.287374 0.1 0.746002 0.0037339
0.797314 0.1 -0.075 0.00368789
0.797314 0.1 0.075 0.00368597
0.756814 0.1 -0.2625 0.00368684
0.756814 0.1 0.2625 0.00368115
0.287374 0.1 -0.75 0.00372836
0.574156 0.1 -0.5625 0.00369576
0.574156 0.1 0.5625 0.00369676
0 0.1 0.80701 0.00375
0 0.1 -0.80701 0.00375
0.714971 0.1 -0.375 0.00368718
0.714971 0.1 0.375 0.00368234
0.0363518 0.1 0.80701 0.00375063
0.0363518 0.1 -0.80701 0.00374883
0.797314 0.1 -0.15 0.00368804
0.797314 0.1 0.15 0.00368449
0.623803 0.1 -0.525 0.00369167
0.623803 0.1 0.525 0.00369116
0.219992 0.1 0.7875 0.00374127
0.219992 0.1 -0.7875 0.00373588
0.149792 0.1 0.80701 0.00374611
0 0.1 0.825 0.00375
0 0.1 -0.825 0.00375
0.797314 0.1 -0.225 0.00368758
0.797314 0.1 0.225 0.00368295
0.756813 0.1 -0.3375 0.00368598
0.756813 0.1 0.3375 0.00368045
0.67013 0.1 0.4875 0.00368589
0.67013 0.1 -0.4875 0.00368807
0.835106 0.1 -0.0375 0.00368898
0.835106 0.1 0.0375 0.00368813
0.150379 0.1 -0.825 0.00374167
0.835106 0.1 -0.1125 0.00368914
0.835106 0.1 0.1125 0.00368672
0 0.1 -0.84299 0.00375
0 0.1 0.84299 0.00375
0.0363518 0.1 -0.84299 0.00374903
0.0363518 0.1 0.84299 0.00375077
0.714971 0.1 -0.45 0.00368607
0.714971 0.1 0.45 0.00368286
0.411108 0.1 0.746002 0.00371968
0.797314 0.1 -0.3 0.00368649
0.797314 0.1 0.3 0.00368159
0.467897 0.1 -0.7125 0.00370748
0.467897 0.1 0.7125 0.00371203
0.522865 0.1 0.675 0.00370485
0.522865 0.1 -0.675 0.00370122
0.411108 0.1 -0.75 0.00371441
0.835106 0.1 -0.1875 0.00368861
0.835107 0.1 0.1875 0.00368495
0.286844 0.1 0.80701 0.00373437
0.574156 0.1 0.6375 0.00369797
0.574157 0.1 -0.6375 0.00369544
0.350249 0.1 -0.7875 0.00372174
0.350249 0.1 0.7875 0.00372738
0.756813 0.1 -0.4125 0.00368454
0.756814 0.1 0.4125 0.00368027
0.623803 0.1 -0.6 0.00369098
0.623803 0.1 0.6 0.00369234
0.075776 0.1 0.8625 0.00375122
0.075776 0.1 -0.8625 0.00374764
0.871687 0.1 -3.2767e-18 0.00369155
0.287374 0.1 -0.825 0.00372892
0.871687 0.1 -0.075 0.00369175
0.871687 0.1 0.075 0.00369059
0.67013 0.1 -0.5625 0.00368702
0.67013 0.1 0.5625 0.003687
0.835106 0.1 0.2625 0.00368306
0.835106 0.1 -0.2625 0.00368739
0.797314 0.1 -0.375 0.00368479
0.797314 0.1 0.375 0.00368057
0 0.1 -0.88201 0.00375
0 0.1 0.88201 0.00375
0.0363518 0.1 0.88201 0.00375077
0.0363518 0.1 -0.88201 0.00374903
0.871687 0.1 0.15 0.00368901
0.871687 0.1 -0.15 0.00369115
0.714971 0.1 0.525 0.00368355
0.714971 0.1 -0.525 0.00368464
0.219993 0.1 0.8625 0.00374181
0.219992 0.1 -0.8625 0.00373644
0 0.1 0.9 0.00375
0 0.1 -0.9 0.00375
0.756813 0.1 0.4875 0.00368047
0.756814 0.1 -0.4875 0.00368277
0.871687 0.1 0.225 0.00368699
0.871687 0.1 -0.225 0.0036898
0.835106 0.1 -0.3375 0.00368546
0.835106 0.1 0.3375 0.00368134
0.41063 0.1 0.80701 0.00372024
0.90582 0.1 -0.0375 0.00369447
0.905821 0.1 0.0375 0.00369411
0.522865 0.1 0.746002 0.00370578
0.150379 0.1 0.9 0.00374655
0.90582 0.1 0.1125 0.00369288
0.905821 0.1 -0.1125 0.00369391
0.522865 0.1 -0.75 0.00370117
0.574156 0.1 0.7125 0.0036988
0.574156 0.1 -0.7125 0.00369508
0.797314 0.1 -0.45 0.00368262
0.797314 0.1 0.45 0.00367998
0.467897 0.1 -0.7875 0.00370776
0.467897 0.1 0.7875 0.00371293
0.150379 0.1 -0.903998 0.00374197
0 0.1 0.91799 0.00375
0 0.1 -0.91799 0.00375
0.0363518 0.1 0.91799 0.00375086
0.0363518 0.1 -0.91799 0.00374921
0.623803 0.1 0.675 0.00369316
0.623803 0.1 -0.675 0.00369022
0.411108 0.1 -0.825 0.00371479
0.871687 0.1 0.3 0.00368482
0.871687 0.1 -0.3 0.00368768
0.67013 0.1 -0.6375 0.00368587
0.67013 0.1 0.6375 0.0036878
0.90582 0.1 -0.1875 0.00369248
0.90582 0.1 0.1875 0.00369094
0.350249 0.1 0.8625 0.0037281
0.350249 0.1 -0.8625 0.00372224
0.835106 0.1 -0.4125 0.00368294
0.835106 0.1 0.4125 0.00367993
0.714971 0.1 -0.6 0.003683
0.714971 0.1 0.6 0.00368414
0.93886 0.1 -1.15648e-17 0.00369861
0.075776 0.1 0.9375 0.00375142
0.075776 0.1 -0.9375 0.00374802
0.93886 0.1 0.075 0.00369803
0.93886 0.1 -0.075 0.00369818
0.756813 0.1 0.5625 0.0036808
0.756814 0.1 -0.5625 0.00368068
0.905821 0.1 -0.2625 0.00369027
0.905821 0.1 0.2625 0.0036885
0.287374 0.1 0.9 0.00373507
0.287374 0.1 -0.903998 0.00372922
0.871687 0.1 0.375 0.00368273
0.871687 0.1 -0.375 0.00368485
0.93886 0.1 -0.15 0.00369678
0.93886 0.1 0.15 0.00369652
0.797314 0.1 0.525 0.00367968
0.797314 0.1 -0.525 0.0036801
0 0.1 0.95701 0.00375
0 0.1 -0.95701 0.00375
0.0363518 0.1 0.95701 0.00375086
0.0363518 0.1 -0.95701 0.00374921
0.522433 0.1 0.80701 0.00370625
0.219992 0.1 0.9375 0.0037422
0.219992 0.1 -0.9375 0.00373693
0.93886 0.1 0.225 0.00369425
0.93886 0.1 -0.225 0.00369452
0.90582 0.1 0.3375 0.00368587
0.905821 0.1 -0.3375 0.00368719
0.835106 0.1 -0.4875 0.00368001
0.835107 0.1 0.4875 0.00367897
0.969689 0.1 -0.0375 0.00370253
0.969689 0.1 0.0375 0.00370272
0.61613 0.1 0.75 0.00369365
0.574156 0.1 -0.7875 0.00369473
0.574156 0.1 0.7875 0.0036994
0 0.1 0.975 0.00375
0 0.1 -0.975 0.00375
0.623803 0.1 -0.75 0.00368942
0.969689 0.1 -0.1125 0.00370121
0.969689 0.1 0.1125 0.00370178
0.522865 0.1 -0.825 0.0037011
0.67013 0.1 0.7125 0.00368825
0.67013 0.1 -0.7125 0.00368468
0.871687 0.1 -0.45 0.00368148
0.871687 0.1 0.45 0.00368093
0.467897 0.1 0.8625 0.00371369
0.467897 0.1 -0.8625 0.00370797
0.714971 0.1 -0.675 0.00368126
0.714971 0.1 0.675 0.00368444
0.93886 0.1 -0.3 0.00369137
0.93886 0.1 0.3 0.00369148
0.150379 0.1 0.975 0.0037468
0.150379 0.1 -0.975 0.00374253
0.969689 0.1 -0.1875 0.00369894
0.969689 0.1 0.1875 0.00369985
0.411108 0.1 0.9 0.00372107
0.756813 0.1 0.6375 0.00368095
0.756814 0.1 -0.6375 0.00367842
0.990306 0.1 -2.19732e-17 0.00370292
0 0.1 0.99299 0.00375
0 0.1 -0.99299 0.00375
0.411108 0.1 -0.903998 0.00371491
0.990306 0.1 -0.075 0.00370203
0.990306 0.1 0.075 0.00370265
0.0363518 0.1 0.99299 0.00375092
0.0363518 0.1 -0.99299 0.00374937
0.90582 0.1 -0.4125 0.00368346
0.905821 0.1 0.4125 0.00368331
0.797314 0.1 -0.6 0.00367731
0.797314 0.1 0.6 0.00367943
0.350249 0.1 0.9375 0.00372871
0.350249 0.1 -0.9375 0.00372265
0.990306 0.1 0.15 0.00370126
0.990306 0.1 -0.15 0.00370006
0.969689 0.1 -0.2625 0.00369585
0.969689 0.1 0.2625 0.0036971
0.835106 0.1 -0.5625 0.00367675
0.835106 0.1 0.5625 0.00367824
0.93886 0.1 -0.375 0.00368733
0.93886 0.1 0.375 0.00368848
0.075776 0.1 1.0125 0.00375154
0.075776 0.1 -1.0125 0.00374835
0.990306 0.1 -0.225 0.00369717
0.990306 0.1 0.225 0.00369889
0.287374 0.1 0.975 0.00373549
0.287374 0.1 -0.975 0.00372983
0.871687 0.1 -0.525 0.00367768
0.871687 0.1 0.525 0.00367944
1.02149 0.1 -0.0369628 0.00370764
1.02149 0.1 0.0369628 0.00370824
0.969689 0.1 -0.3375 0.00369167
0.969689 0.1 0.3375 0.00369381
1.02149 0.1 -0.110888 0.00370582
1.02149 0.1 0.110888 0.00370761
0.90582 0.1 0.4875 0.00368105
0.90582 0.1 -0.4875 0.00367917
0.623803 0.1 0.819003 0.00369328
0 0.1 1.03201 0.00375
0 0.1 -1.03201 0.00375
0.0363518 0.1 1.03201 0.00375092
0.0363518 0.1 -1.03201 0.00374937
0.67013 0.1 -0.7875 0.00368343
0.67013 0.1 0.7875 0.00368837
0.623803 0.1 -0.825 0.00368862
0.990306 0.1 -0.3 0.00369328
0.990306 0.1 0.3 0.00369576
0.219992 0.1 -1.0125 0.00373734
0.219993 0.1 1.0125 0.00374244
0.574156 0.1 0.8625 0.00369989
0.574157 0.1 -0.8625 0.00369437
0.714971 0.1 -0.75 0.0036795
0.714971 0.1 0.75 0.00368439
1.02149 0.1 0.184814 0.00370582
1.02149 0.1 -0.184814 0.00370298
0.756814 0.1 -0.7125 0.00367613
0.756814 0.1 0.7125 0.00368074
0.522865 0.1 0.9 0.00370694
0.93886 0.1 -0.45 0.00368255
0.93886 0.1 0.45 0.00368556
1.04168 0.1 0 0.0037121
1.04168 0.1 -0.0729162 0.0037107
1.04168 0.1 0.0729162 0.00371225
0.522865 0.1 -0.903998 0.00370085
0.797314 0.1 -0.675 0.0036744
0.797314 0.1 0.675 0.00367897
0.467897 0.1 0.9375 0.00371431
0.467897 0.1 -0.9375 0.00370805
0 0.1 1.05 0.00375
0 0.1 -1.05 0.00375
0.835106 0.1 -0.6375 0.00367326
0.835106 0.1 0.6375 0.00367751
1.04168 0.1 -0.145832 0.00370815
1.04168 0.1 0.145832 0.00371116
1.02149 0.1 -0.25874 0.00369918
1.02149 0.1 0.25874 0.003703
0.969689 0.1 -0.4125 0.00368655
0.969689 0.1 0.4125 0.00369033
0.411108 0.1 0.975 0.00372161
0.411108 0.1 -0.975 0.00371529
0.871687 0.1 -0.6 0.0036736
0.871687 0.1 0.6 0.00367811
1.0579 0.1 -0.0360525 0.00371497
1.0579 0.1 0.0360525 0.0037159
0.990306 0.1 -0.375 0.0036883
0.990306 0.1 0.375 0.00369218
0.150379 0.1 1.05 0.00374692
0.150379 0.1 -1.05 0.00374288
1.0579 0.1 0.108157 0.00371556
1.0579 0.1 -0.108157 0.00371279
1.04168 0.1 -0.218749 0.00370457
1.04168 0.1 0.218749 0.00370891
0.90582 0.1 -0.5625 0.00367451
0.90582 0.1 0.5625 0.00367907
0 0.1 -1.06799 0.00375
0 0.1 1.06799 0.00375
0.0363518 0.1 -1.06799 0.00374951
0.0363518 0.1 1.06799 0.00375094
0.350249 0.1 1.0125 0.00372915
0.350249 0.1 -1.0125 0.00372299
1.0579 0.1 -0.180262 0.00370956
1.0579 0.1 0.180262 0.00371397
1.02149 0.1 -0.332665 0.00369418
1.02149 0.1 0.332665 0.00369938
0.93886 0.1 -0.525 0.00367731
0.93886 0.1 0.525 0.00368288
1.08012 0.1 5.49329e-18 0.00372085
1.04168 0.1 -0.291665 0.00369985
1.04168 0.1 0.291665 0.00370567
1.08012 0.1 0.0709941 0.00372131
1.08012 0.1 -0.0709941 0.0037191
0.969689 0.1 -0.4875 0.00368061
0.96969 0.1 0.4875 0.00368695
1.0579 0.1 0.252367 0.00371125
1.0579 0.1 -0.252367 0.00370522
0.990306 0.1 -0.45 0.00368241
0.990306 0.1 0.45 0.00368846
0.287374 0.1 -1.05 0.00373016
0.287374 0.1 1.05 0.00373575
0.714971 0.1 0.821002 0.00368402
1.08012 0.1 -0.141988 0.00371616
1.08012 0.1 0.141988 0.00372049
0.075776 0.1 1.0875 0.00375158
0.075776 0.1 -1.0875 0.00374864
0.714971 0.1 -0.825 0.00367773
0.756813 0.1 -0.7875 0.00367384
0.756814 0.1 0.7875 0.00368023
0.67013 0.1 -0.8625 0.0036822
0.67013 0.1 0.8625 0.00368827
0.797314 0.1 -0.75 0.00367148
0.797314 0.1 0.75 0.0036782
0.623803 0.1 0.9 0.00369409
0.835106 0.1 -0.7125 0.00366968
0.835106 0.1 0.7125 0.00367651
0.623803 0.1 -0.903998 0.00368777
0.574156 0.1 0.9375 0.00370031
0.574156 0.1 -0.9375 0.00369398
1.02149 0.1 -0.406591 0.003688
1.02149 0.1 0.406591 0.00369527
1.08012 0.1 -0.212982 0.00371209
1.08012 0.1 0.212982 0.00371844
1.10076 0.1 -0.0349809 0.00372524
1.10076 0.1 0.0349809 0.00372651
0.871687 0.1 -0.675 0.00366936
0.871687 0.1 0.675 0.0036767
1.04168 0.1 -0.364581 0.00369387
1.04168 0.1 0.364581 0.00370167
1.10076 0.1 -0.104943 0.00372265
1.10076 0.1 0.104943 0.00372648
0.522865 0.1 0.975 0.00370741
0.522865 0.1 -0.975 0.00370076
1.0579 0.1 -0.324472 0.0036996
1.0579 0.1 0.324472 0.00370757
0 0.1 -1.10701 0.00375
0 0.1 1.10701 0.00375
0.0363518 0.1 1.10701 0.00375094
0.0363518 0.1 -1.10701 0.00374951
0.90582 0.1 0.6375 0.00367724
0.905821 0.1 -0.6375 0.00366963
0.219992 0.1 1.0875 0.00374254
0.219992 0.1 -1.0875 0.00373768
0.93886 0.1 0.6 0.00368034
0.93886 0.1 -0.6 0.00367187
1.10076 0.1 -0.174905 0.00371895
1.10076 0.1 0.174905 0.00372515
0.467897 0.1 1.0125 0.00371478
0.467897 0.1 -1.0125 0.00370801
1.08012 0.1 -0.283976 0.00370675
1.08012 0.1 0.283976 0.00371527
1.11928 0.1 3.93204e-18 0.00373106
0.990306 0.1 -0.525 0.00367614
0.990306 0.1 0.525 0.00368488
0.96969 0.1 -0.5625 0.00367457
0.969689 0.1 0.5625 0.00368388
1.11928 0.1 -0.0690357 0.00372897
1.11928 0.1 0.0690357 0.00373182
0 0.1 1.125 0.00375
0 0.1 -1.125 0.00375
0.411108 0.1 -1.05 0.0037154
0.411108 0.1 1.05 0.00372196
1.10076 0.1 0.244866 0.00372258
1.10076 0.1 -0.244866 0.00371397
1.11928 0.1 -0.138072 0.00372563
1.11928 0.1 0.138072 0.00373127
1.02149 0.1 0.480517 0.00369096
1.02149 0.1 -0.480517 0.0036811
1.0579 0.1 -0.396577 0.00369274
1.0579 0.1 0.396577 0.00370319
1.04168 0.1 -0.437497 0.00368695
1.04168 0.1 0.437497 0.00369721
0.150379 0.1 1.125 0.00374695
0.150379 0.1 -1.125 0.00374316
0.714971 0.1 0.88201 0.00368182
1.08012 0.1 0.354971 0.00371117
1.08012 0.1 -0.354971 0.0037001
1.11928 0.1 -0.207107 0.00372104
1.11928 0.1 0.207107 0.00372944
0.350249 0.1 -1.0875 0.00372326
0.350249 0.1 1.0875 0.00372939
0 0.1 1.14299 0.00375
0 0.1 -1.14299 0.00375
0.0363518 0.1 1.14299 0.00375093
0.0363518 0.1 -1.14299 0.00374963
1.14316 0.1 -0.0339211 0.00373721
1.14316 0.1 0.0339211 0.00373884
0.797314 0.1 0.821002 0.00367723
1.10076 0.1 -0.314829 0.0037076
1.10076 0.1 0.314829 0.00371891
0.797314 0.1 -0.825 0.00366861
0.756814 0.1 -0.8625 0.00367158
0.756814 0.1 0.8625 0.00367943
1.14316 0.1 -0.101763 0.00373421
1.14316 0.1 0.101763 0.00373915
0.835106 0.1 -0.7875 0.0036662
0.835106 0.1 0.7875 0.00367515
0.871687 0.1 -0.75 0.00366515
0.871687 0.1 0.75 0.003675
0.67013 0.1 0.9375 0.00368814
0.67013 0.1 -0.9375 0.00368104
0.90582 0.1 -0.7125 0.00366468
0.905821 0.1 0.7125 0.00367522
0.714971 0.1 -0.903998 0.00367608
1.11928 0.1 0.276143 0.0037264
1.11928 0.1 -0.276143 0.00371509
1.14316 0.1 0.169605 0.00373813
1.14316 0.1 -0.169605 0.00372996
0.93886 0.1 -0.675 0.0036663
0.93886 0.1 0.675 0.0036778
1.15704 0.1 0 0.00374251
1.0579 0.1 0.468682 0.0036984
1.0579 0.1 -0.468682 0.00368529
0.623803 0.1 0.975 0.00369421
0.623803 0.1 -0.975 0.003687
0.990306 0.1 0.6 0.00368136
0.990306 0.1 -0.6 0.00366973
1.15704 0.1 -0.0671479 0.00374007
1.15704 0.1 0.0671479 0.00374357
1.04168 0.1 -0.510414 0.00367977
1.04168 0.1 0.510414 0.0036926
0.969689 0.1 -0.6375 0.0036684
0.969689 0.1 0.6375 0.00368066
1.08012 0.1 0.425965 0.00370641
1.08012 0.1 -0.425965 0.00369255
0.287374 0.1 -1.125 0.00373043
0.287374 0.1 1.125 0.00373583
1.02149 0.1 -0.554443 0.00367427
1.02149 0.1 0.554443 0.00368678
0.574156 0.1 1.0125 0.00370067
0.574156 0.1 -1.0125 0.00369346
1.15704 0.1 -0.134296 0.0037363
1.15704 0.1 0.134296 0.0037433
0.075776 0.1 1.1625 0.00375157
0.075776 0.1 -1.1625 0.00374888
1.10076 0.1 -0.384791 0.00369992
1.10076 0.1 0.384791 0.00371433
1.14316 0.1 -0.237448 0.00372434
1.14316 0.1 0.237448 0.00373582
1.11928 0.1 -0.345179 0.00370778
1.11928 0.1 0.345179 0.00372229
0.522865 0.1 1.05 0.00370773
0.522865 0.1 -1.05 0.00370045
1.15704 0.1 -0.201444 0.00373118
1.15704 0.1 0.201444 0.00374171
1.1744 0.1 -0.0331401 0.00374644
1.1744 0.1 0.0331401 0.00374828
1.1744 0.1 -0.0994202 0.00374317
1.1744 0.1 0.0994202 0.00374879
0 0.1 1.18201 0.00375
0 0.1 -1.18201 0.00375
0.0363518 0.1 1.18201 0.00375093
0.0363518 0.1 -1.18201 0.00374963
0.219992 0.1 1.1625 0.00374251
0.219993 0.1 -1.1625 0.00373795
1.14316 0.1 0.30529 0.00373231
1.14316 0.1 -0.30529 0.0037173
0.467897 0.1 1.0875 0.00371505
0.467897 0.1 -1.0875 0.00370794
1.1744 0.1 -0.1657 0.0037386
1.1744 0.1 0.1657 0.00374797
1.15704 0.1 -0.268592 0.00372465
1.15704 0.1 0.268592 0.00373884
1.0579 0.1 0.540787 0.0036935
1.0579 0.1 -0.540787 0.00367794
0.796996 0.1 0.88201 0.00367621
1.08012 0.1 -0.496959 0.00368483
1.08012 0.1 0.496959 0.00370126
1.10076 0.1 0.454752 0.00370911
1.10076 0.1 -0.454752 0.00369184
1.11928 0.1 -0.414214 0.00369965
1.11928 0.1 0.414214 0.00371732
1.04168 0.1 -0.58333 0.0036724
1.04168 0.1 0.58333 0.00368796
1.1744 0.1 -0.231981 0.00373258
1.1744 0.1 0.231981 0.00374584
0.871687 0.1 0.821002 0.0036731
0.411108 0.1 1.125 0.0037221
0.411108 0.1 -1.125 0.00371545
1.19808 0.1 1.73472e-17 0.00375665
0.990306 0.1 0.675 0.00367788
0.990306 0.1 -0.675 0.0036632
1.02149 0.1 0.628368 0.0036825
1.02149 0.1 -0.628368 0.00366711
1.19808 0.1 -0.0650961 0.00375379
1.19808 0.1 0.0650961 0.00375808
0 0.1 1.2 0.00375
0 0.1 -1.2 0.00375
0.871687 0.1 -0.825 0.00366108
0.905821 0.1 -0.7875 0.00365987
0.90582 0.1 0.7875 0.00367282
0.835106 0.1 -0.8625 0.00366283
0.835106 0.1 0.8625 0.00367354
0.93886 0.1 -0.75 0.00366078
0.93886 0.1 0.75 0.00367511
1.14316 0.1 -0.373132 0.00370904
1.14316 0.1 0.373132 0.00372772
0.969689 0.1 0.7125 0.00367761
0.969689 0.1 -0.7125 0.00366219
1.15704 0.1 -0.33574 0.00371679
1.15704 0.1 0.33574 0.00373479
0.756813 0.1 0.9375 0.00367851
0.756814 0.1 -0.9375 0.00366951
1.19808 0.1 0.130192 0.00375814
1.19808 0.1 -0.130192 0.00374951
0.797314 0.1 -0.903998 0.00366604
0.714971 0.1 0.975 0.00368305
0.714971 0.1 -0.975 0.00367443
0.150379 0.1 1.2 0.00374688
0.150379 0.1 -1.2 0.00374338
1.20938 0.1 -0.0322656 0.0037589
1.20938 0.1 0.0322656 0.0037611
1.1744 0.1 -0.298261 0.00372518
1.1744 0.1 0.298261 0.00374246
1.20938 0.1 -0.0967968 0.0037552
1.20938 0.1 0.0967968 0.00376191
1.19808 0.1 -0.195288 0.00374382
1.19808 0.1 0.195288 0.00375686
0.350249 0.1 1.1625 0.00372943
0.350249 0.1 -1.1625 0.00372345
0.67013 0.1 1.0125 0.003688
0.67013 0.1 -1.0125 0.00367987
0 0.1 1.21799 0.00375
0 0.1 -1.21799 0.00375
0.0363518 0.1 -1.21799 0.00374972
0.0363518 0.1 1.21799 0.00375089
1.11928 0.1 -0.48325 0.00369135
1.11928 0.1 0.48325 0.00371174
1.10076 0.1 -0.524714 0.0036839
1.10076 0.1 0.524714 0.00370352
1.20938 0.1 0.161328 0.00376138
1.20938 0.1 -0.161328 0.00375012
1.08012 0.1 0.567953 0.00369594
1.08012 0.1 -0.567953 0.00367681
0.623803 0.1 1.05 0.00369426
0.623803 0.1 -1.05 0.00368611
1.0579 0.1 -0.612892 0.00367003
1.0579 0.1 0.612892 0.00368854
1.15704 0.1 -0.402888 0.00370814
1.15704 0.1 0.402888 0.00372972
1.14316 0.1 0.440974 0.00372228
1.14316 0.1 -0.440974 0.00370042
1.19808 0.1 -0.260384 0.00373674
1.19808 0.1 0.260384 0.00375425
1.2267 0.1 3.57064e-18 0.00376774
1.2267 0.1 -0.0636649 0.00376449
1.2267 0.1 0.0636649 0.00376949
1.1744 0.1 -0.364541 0.00371656
1.1744 0.1 0.364541 0.00373792
0.574156 0.1 1.0875 0.00370085
0.574156 0.1 -1.0875 0.00369286
1.20938 0.1 0.225859 0.00375949
1.20938 0.1 -0.225859 0.00374358
1.04168 0.1 -0.656246 0.00366477
1.04168 0.1 0.656246 0.00368332
1.2267 0.1 -0.12733 0.00375978
1.2267 0.1 0.12733 0.00376983
0.287374 0.1 1.2 0.00373579
0.287374 0.1 -1.2 0.00373061
1.02149 0.1 -0.702294 0.00365988
1.02149 0.1 0.702294 0.00367839
0.075776 0.1 -1.2375 0.00374906
0.075776 0.1 1.2375 0.00375149
0.871399 0.1 0.88201 0.00367133
0.522865 0.1 1.125 0.00370782
0.522865 0.1 -1.125 0.00370006
1.2267 0.1 -0.190994 0.00375366
1.2267 0.1 0.190994 0.0037688
1.19808 0.1 -0.32548 0.00372841
1.19808 0.1 0.32548 0.00375037
0.990306 0.1 -0.75 0.00365672
0.990306 0.1 0.75 0.00367442
1.24274 0.1 -0.0314313 0.00377258
1.24274 0.1 0.0314313 0.00377526
1.20938 0.1 -0.29039 0.00373575
1.20938 0.1 0.29039 0.00375629
1.24274 0.1 -0.0942942 0.00376834
1.24274 0.1 0.0942942 0.00377645
0.93886 0.1 0.821002 0.00367222
1.11928 0.1 -0.552285 0.00368264
1.11928 0.1 0.552285 0.00370581
1.15704 0.1 -0.470036 0.00369925
1.15704 0.1 0.470036 0.00372385
0.969689 0.1 -0.7875 0.00365613
0.96969 0.1 0.7875 0.00367435
0.93886 0.1 -0.825 0.0036555
0.90582 0.1 0.8625 0.00367007
0.905821 0.1 -0.8625 0.0036553
1.1744 0.1 -0.430821 0.00370762
1.1744 0.1 0.430821 0.0037324
1.10076 0.1 -0.594676 0.00367509
1.10076 0.1 0.594676 0.00369776
1.14316 0.1 -0.508816 0.00369165
1.14316 0.1 0.508816 0.00371622
1.24274 0.1 -0.157157 0.00376268
1.24274 0.1 0.157157 0.00377626
1.2267 0.1 -0.254659 0.00374621
1.2267 0.1 0.254659 0.0037664
0.467897 0.1 1.1625 0.00371505
0.467897 0.1 -1.1625 0.00370777
1.08012 0.1 0.638947 0.00369052
1.08012 0.1 -0.638947 0.00366836
1.25511 0.1 -5.78241e-19 0.0037804
0.835106 0.1 -0.9375 0.00365963
0.835106 0.1 0.9375 0.0036717
0.871687 0.1 -0.903998 0.0036575
1.25511 0.1 0.0622446 0.00378262
1.25511 0.1 -0.0622446 0.00377661
0.219992 0.1 1.2375 0.00374236
0.219992 0.1 -1.2375 0.00373813
0 0.1 -1.25701 0.00375
0 0.1 1.25701 0.00375
0.0363518 0.1 -1.25701 0.00374972
0.0363518 0.1 1.25701 0.00375089
0.797314 0.1 0.975 0.00367444
0.797314 0.1 -0.975 0.00366332
1.19808 0.1 -0.390576 0.00371932
1.19808 0.1 0.390576 0.00374534
1.0579 0.1 -0.684997 0.00366205
1.0579 0.1 0.684997 0.0036836
1.20938 0.1 -0.354921 0.00372676
1.20938 0.1 0.354921 0.00375185
1.25511 0.1 0.124489 0.00378336
1.25511 0.1 -0.124489 0.00377132
1.24274 0.1 -0.220019 0.00375563
1.24274 0.1 0.220019 0.00377467
0.756813 0.1 1.0125 0.00367765
0.756814 0.1 -1.0125 0.00366753
1.2267 0.1 -0.318324 0.00373758
1.2267 0.1 0.318324 0.00376266
0.411108 0.1 1.2 0.00372209
0.411108 0.1 -1.2 0.00371541
1.25511 0.1 -0.186734 0.00376465
1.25511 0.1 0.186734 0.00378267
0.714971 0.1 1.05 0.00368254
0.714971 0.1 -1.05 0.00367283
1.04168 0.1 -0.729162 0.00365714
1.04168 0.1 0.729162 0.00367883
1.24274 0.1 0.282882 0.00377169
1.24274 0.1 -0.282882 0.00374738
0 0.1 1.275 0.00375
0 0.1 -1.275 0.00375
1.1744 0.1 0.497102 0.00372612
1.1744 0.1 -0.497102 0.00369839
1.15704 0.1 -0.537184 0.00368986
1.15704 0.1 0.537184 0.0037174
1.2756 0.1 -0.03061 0.00378869
1.2756 0.1 0.03061 0.00379211
0.67013 0.1 1.0875 0.00368782
0.67013 0.1 -1.0875 0.00367865
1.2756 0.1 -0.09183 0.00378369
1.2756 0.1 0.09183 0.00379392
1.25511 0.1 -0.248978 0.00375673
1.25511 0.1 0.248978 0.00378053
1.20938 0.1 0.419453 0.00374628
1.20938 0.1 -0.419453 0.00371739
1.11928 0.1 -0.621322 0.00367335
1.11928 0.1 0.621322 0.00369964
1.14316 0.1 -0.576659 0.00368208
1.14316 0.1 0.576659 0.00370978
1.19808 0.1 -0.455673 0.00370983
1.19808 0.1 0.455673 0.00373932
1.02149 0.1 0.776219 0.00367434
1.02149 0.1 -0.776219 0.00365273
0.150379 0.1 1.275 0.00374672
0.150379 0.1 -1.275 0.00374353
1.2756 0.1 -0.15305 0.00377728
1.2756 0.1 0.15305 0.00379425
1.2267 0.1 -0.381989 0.00372816
1.2267 0.1 0.381989 0.00375768
1.10076 0.1 -0.664638 0.00366611
1.10076 0.1 0.664638 0.00369183