# nutMean  POINT_DATA 63840
# x  y  z  nutMean
0 0.5 3.39583e-17 0.0146568
0 0.5 -0.00617931 0.0147143
0 0.5 0.00617931 0.014604
0.0124865 0.5 -0.00617931 0.0157944
0.0124865 0.5 0.00617931 0.0156337
0 0.5 -0.0688207 0.015257
0 0.5 0.0688207 0.0140483
0.0124865 0.5 -0.0688207 0.0163371
0.0124865 0.5 0.0688207 0.015078
0 0.5 -0.075 0.0153068
0 0.5 0.075 0.0139916
0 0.5 -0.0811793 0.0153618
0 0.5 0.0811793 0.0139388
0.0124865 0.5 -0.0811793 0.0164882
0.0124865 0.5 0.0811793 0.0149155
0.075776 0.5 -0.0375 0.0215203
0.075776 0.5 0.0375 0.0205516
0.075776 0.5 -0.1125 0.0224303
0.075776 0.5 0.1125 0.0195717
0 0.5 -0.143821 0.0158568
0 0.5 0.143821 0.013401
0.0124865 0.5 -0.143821 0.0169833
0.0124865 0.5 0.143821 0.0143777
0 0.5 -0.15 0.0159002
0 0.5 0.15 0.0133482
0.151149 0.5 -0.00137318 0.019327
0 0.5 -0.156179 0.0159492
0 0.5 0.156179 0.0132979
0.0124865 0.5 -0.156179 0.0171351
0.0124865 0.5 0.156179 0.0142236
0.151149 0.5 0.075 0.018566
0.151149 0.5 -0.075 0.0199461
0.075776 0.5 -0.1875 0.0233345
0.075776 0.5 0.1875 0.0186434
0.151149 0.5 0.15 0.0177933
0.151149 0.5 -0.15 0.0204853
0 0.5 -0.218821 0.0162971
0 0.5 0.218821 0.0128008
0.0124865 0.5 -0.218821 0.0174831
0.0124865 0.5 0.218821 0.0137266
0.219992 0.5 0.0375 0.0174801
0.219993 0.5 -0.0375 0.0180425
0 0.5 -0.225 0.0163169
0 0.5 0.225 0.0127538
0 0.5 -0.231179 0.016343
0 0.5 0.231179 0.0127073
0.0124865 0.5 -0.231179 0.0175039
0.0124865 0.5 0.231179 0.0135861
0.219992 0.5 0.1125 0.0168635
0.219993 0.5 -0.1125 0.0180658
0.151149 0.5 -0.225 0.0208845
0.151149 0.5 0.225 0.0170615
0.075776 0.5 -0.2625 0.0234695
0.075776 0.5 0.2625 0.0177982
0.288069 0.5 -0.00137318 0.014527
0.219992 0.5 0.1875 0.0162726
0.219993 0.5 -0.1875 0.0184336
0 0.5 0.293821 0.0122668
0 0.5 -0.293821 0.0165481
0.0124865 0.5 -0.293821 0.017709
0.0124865 0.5 0.293821 0.0131457
0.288069 0.5 -0.075 0.0146971
0.288069 0.5 0.075 0.0142192
0 0.5 -0.3 0.0165621
0 0.5 0.3 0.0122272
0 0.5 0.306179 0.0121869
0 0.5 -0.306179 0.016583
0.0124865 0.5 -0.306179 0.0177492
0.0124865 0.5 0.306179 0.0130258
0.288069 0.5 -0.15 0.0148431
0.288069 0.5 0.15 0.0139212
0.151149 0.5 -0.3 0.0210715
0.151149 0.5 0.3 0.0163896
0.219992 0.5 -0.2625 0.0186394
0.219992 0.5 0.2625 0.015688
0.075776 0.5 0.3375 0.0170684
0.075776 0.5 -0.3375 0.0237098
0.350249 0.5 -0.0375 0.0115128
0.350249 0.5 0.0375 0.0114279
0.288069 0.5 -0.225 0.0150476
0.288069 0.5 0.225 0.0136032
0.350249 0.5 0.1125 0.0114776
0.350249 0.5 -0.1125 0.0115904
0 0.5 0.368821 0.0118107
0 0.5 -0.368821 0.0166969
0.0124865 0.5 -0.368821 0.0178631
0.0124865 0.5 0.368821 0.0126497
0 0.5 -0.375 0.0166977
0 0.5 0.375 0.0117775
0 0.5 -0.381179 0.0167058
0 0.5 0.381179 0.011744
0.0124865 0.5 -0.381179 0.0179047
0.0124865 0.5 0.381179 0.0125496
0.350249 0.5 -0.1875 0.0117122
0.350249 0.5 0.1875 0.0114048
0.219992 0.5 -0.3375 0.0188065
0.219992 0.5 0.3375 0.0151437
0.151149 0.5 -0.375 0.0213294
0.151149 0.5 0.375 0.0157969
0.411736 0.5 -0.00137318 0.00984455
0.288069 0.5 -0.3 0.0152145
0.288069 0.5 0.3 0.013305
0.411736 0.5 -0.075 0.00988628
0.411736 0.5 0.075 0.00982876
0.075776 0.5 -0.4125 0.0239727
0.075776 0.5 0.4125 0.0164535
0.350249 0.5 -0.2625 0.0118452
0.350249 0.5 0.2625 0.011347
0.411736 0.5 -0.15 0.00996675
0.411736 0.5 0.15 0.00984879
0 0.5 -0.443821 0.0166492
0 0.5 0.443821 0.0114333
0.0124865 0.5 -0.443821 0.017848
0.0124865 0.5 0.443821 0.0122389
0 0.5 -0.45 0.0166296
0 0.5 0.45 0.0114061
0 0.5 -0.456179 0.0166154
0 0.5 0.456179 0.011379
0.0124865 0.5 -0.456179 0.0177879
0.0124865 0.5 0.456179 0.0121574
0.219992 0.5 -0.4125 0.0191671
0.219993 0.5 0.4125 0.0146508
0.411736 0.5 -0.225 0.0100779
0.411736 0.5 0.225 0.00985417
0.467897 0.5 0.0375 0.00829191
0.467897 0.5 -0.0375 0.00829693
0.288069 0.5 -0.375 0.0154654
0.288069 0.5 0.375 0.0130362
0.151149 0.5 -0.45 0.0213541
0.151149 0.5 0.45 0.0152902
0.467897 0.5 -0.1125 0.00834199
0.467897 0.5 0.1125 0.00830966
0.350249 0.5 0.3375 0.0113072
0.350249 0.5 -0.3375 0.0120091
0.075776 0.5 -0.4875 0.0236213
0.075776 0.5 0.4875 0.0159557
0.467897 0.5 -0.1875 0.0084217
0.467897 0.5 0.1875 0.00839133
0.411736 0.5 -0.3 0.0102142
0.411736 0.5 0.3 0.00986822
0 0.5 -0.518821 0.0164068
0 0.5 0.518821 0.0111345
0.0124865 0.5 0.518821 0.0119128
0.0124865 0.5 -0.518821 0.0175793
0.523432 0.5 -0.00137318 0.00733609
0 0.5 -0.525 0.0163806
0 0.5 0.525 0.0111138
0.523432 0.5 -0.075 0.00734944
0.523432 0.5 0.075 0.00734216
0 0.5 -0.531179 0.0163557
0 0.5 0.531179 0.0110928
0.0124865 0.5 -0.531179 0.0174968
0.0124865 0.5 0.531179 0.01185
0.288069 0.5 -0.45 0.0156286
0.288069 0.5 0.45 0.0128019
0.219992 0.5 -0.4875 0.0189841
0.219993 0.5 0.4875 0.0142225
0.467897 0.5 -0.2625 0.00853371
0.467897 0.5 0.2625 0.00845343
0.350249 0.5 -0.4125 0.0123231
0.350249 0.5 0.4125 0.0112777
0.523432 0.5 -0.15 0.00740652
0.523432 0.5 0.15 0.00739023
0.151149 0.5 -0.525 0.0210618
0.151149 0.5 0.525 0.0148745
0.411736 0.5 -0.375 0.0104285
0.411736 0.5 0.375 0.00990024
0.075776 0.5 -0.5625 0.0231351
0.075776 0.5 0.5625 0.0155742
0.523432 0.5 -0.225 0.007496
0.523432 0.5 0.225 0.00746346
0.574156 0.5 -0.0375 0.00641505
0.574156 0.5 0.0375 0.00641862
0.467897 0.5 0.3375 0.00853771
0.467897 0.5 -0.3375 0.00867162
0.574156 0.5 -0.1125 0.00645051
0.574156 0.5 0.1125 0.00645389
0 0.5 -0.593821 0.0160768
0 0.5 0.593821 0.0109125
0.0124865 0.5 -0.593821 0.017218
0.0124865 0.5 0.593821 0.0116697
0.288069 0.5 -0.525 0.0156354
0.288069 0.5 0.525 0.0126073
0 0.5 -0.6 0.0160475
0 0.5 0.6 0.0108986
0.350249 0.5 -0.4875 0.0124749
0.350249 0.5 0.4875 0.0112624
0.523432 0.5 -0.3 0.00761319
0.523432 0.5 0.3 0.00754997
0.219992 0.5 -0.5625 0.0188169
0.219992 0.5 0.5625 0.0138633
0.574156 0.5 -0.1875 0.00651921
0.574156 0.5 0.1875 0.00651169
0 0.5 -0.606179 0.0160162
0 0.5 0.606179 0.0108835
0.0124865 0.5 -0.606179 0.0171239
0.0124865 0.5 0.606179 0.0116259
0.411736 0.5 -0.45 0.0106558
0.411736 0.5 0.45 0.00994812
0.151149 0.5 -0.6 0.0207116
0.151149 0.5 0.6 0.0145505
0.62168 0.5 2.64545e-17 0.00583376
0.467897 0.5 0.4125 0.00864293
0.467897 0.5 -0.4125 0.00891596
0.624316 0.5 0.0729402 0.00581369
0.624316 0.5 -0.075 0.0058127
0.574156 0.5 -0.2625 0.00661739
0.574157 0.5 0.2625 0.00660291
0.075776 0.5 -0.6375 0.0225711
0.075776 0.5 0.6375 0.0153046
0.624316 0.5 -0.15 0.00586264
0.624316 0.5 0.15 0.00585914
0.523432 0.5 -0.375 0.00778968
0.523432 0.5 0.375 0.00765686
0.350249 0.5 -0.5625 0.0126772
0.350249 0.5 0.5625 0.0112618
0.624316 0.5 -0.225 0.0059424
0.624316 0.5 0.225 0.00593051
0.288069 0.5 0.6 0.012455
0.288069 0.5 -0.6 0.0156545
0.574156 0.5 -0.3375 0.00673894
0.574156 0.5 0.3375 0.00670988
0.411736 0.5 -0.525 0.0108573
0.411736 0.5 0.525 0.0100117
0 0.5 -0.668821 0.0157073
0 0.5 0.668821 0.0107673
0.0124865 0.5 -0.668821 0.016815
0.0124865 0.5 0.668821 0.0115096
0.67013 0.5 0.0375 0.00520653
0.67013 0.5 -0.0375 0.00520747
0.219993 0.5 -0.6375 0.0186089
0.219993 0.5 0.6375 0.0135771
0 0.5 -0.675 0.0156784
0 0.5 0.675 0.0107602
0.467897 0.5 0.4875 0.00876575
0.467897 0.5 -0.4875 0.00911557
0.67013 0.5 -0.1125 0.00524067
0.67013 0.5 0.1125 0.00523886
0 0.5 -0.681179 0.0156471
0 0.5 0.681179 0.010752
0.0124865 0.5 -0.681179 0.0167247
0.0124865 0.5 0.681179 0.0114867
0.523432 0.5 -0.45 0.00800054
0.523432 0.5 0.45 0.00778468
0.151149 0.5 -0.675 0.0203316
0.151149 0.5 0.675 0.0143203
0.624316 0.5 -0.3 0.00605075
0.624316 0.5 0.3 0.00602533
0.67013 0.5 0.1875 0.00529541
0.67013 0.5 -0.1875 0.00530324
0.574156 0.5 -0.4125 0.00694268
0.574157 0.5 0.4125 0.00683964
0.708171 0.5 1.88651e-17 0.00485249
0.075776 0.5 -0.7125 0.0220119
0.075776 0.5 0.7125 0.0151545
0.715434 0.5 0.0736268 0.00480601
0.715434 0.5 -0.075 0.00480227
0.67013 0.5 0.2625 0.00537563
0.67013 0.5 -0.2625 0.00539321
0.350249 0.5 -0.6375 0.0129008
0.350249 0.5 0.6375 0.0112771
0.411736 0.5 -0.6 0.0110983
0.411736 0.5 0.6 0.0100906
0.624316 0.5 -0.375 0.0062036
0.624316 0.5 0.375 0.00614068
0.715434 0.5 -0.15 0.00484921
0.715434 0.5 0.15 0.00483768
0.467897 0.5 -0.5625 0.00936475
0.467897 0.5 0.5625 0.00890483
0.288069 0.5 -0.675 0.0156749
0.288069 0.5 0.675 0.012347
0.523432 0.5 -0.525 0.00822214
0.523432 0.5 0.525 0.00793149
0 0.5 -0.743821 0.0153396
0 0.5 0.743821 0.0106969
0.0124865 0.5 -0.743821 0.0164172
0.0124865 0.5 0.743821 0.0114316
0.219992 0.5 0.7125 0.0133645
0.219992 0.5 -0.7125 0.0183955
0.715434 0.5 -0.225 0.00492304
0.715434 0.5 0.225 0.00490215
0 0.5 -0.75 0.0153112
0 0.5 0.75 0.0106932
0.67013 0.5 0.3375 0.00547695
0.67013 0.5 -0.3375 0.00551706
0.574156 0.5 -0.4875 0.00713968
0.574156 0.5 0.4875 0.00699159
0 0.5 -0.756179 0.015282
0 0.5 0.756179 0.0106907
0.0124865 0.5 -0.756179 0.0163322
0.0124865 0.5 0.756179 0.0114208
0.756813 0.5 -0.0375 0.00438354
0.756813 0.5 0.0375 0.00437825
0.151149 0.5 -0.75 0.0199615
0.151149 0.5 0.75 0.0141788
0.756813 0.5 -0.1125 0.00441643
0.756813 0.5 0.1125 0.00440291
0.624316 0.5 -0.45 0.00639055
0.624316 0.5 0.45 0.00627884
0.715434 0.5 -0.3 0.00502612
0.715434 0.5 0.3 0.00498931
0.756813 0.5 0.1875 0.00445333
0.756813 0.5 -0.1875 0.00447559
0.67013 0.5 -0.4125 0.00568033
0.67013 0.5 0.4125 0.00560062
0.411736 0.5 -0.675 0.0113705
0.411736 0.5 0.675 0.0101847
0.467897 0.5 0.6375 0.00905798
0.467897 0.5 -0.6375 0.00965069
0.075776 0.5 -0.7875 0.0214797
0.075776 0.5 0.7875 0.0150986
0.350249 0.5 -0.7125 0.0131511
0.350249 0.5 0.7125 0.0113109
0.523432 0.5 -0.6 0.00848573
0.523432 0.5 0.6 0.00809526
0.797732 0.5 2.68882e-17 0.00408178
0.756813 0.5 -0.2625 0.00455944
0.756814 0.5 0.2625 0.0045244
0.797732 0.5 0.0736268 0.00409266
0.797732 0.5 -0.075 0.00410097
0.288069 0.5 -0.75 0.0157103
0.288069 0.5 0.75 0.0122845
0.574156 0.5 -0.5625 0.00738064
0.574157 0.5 0.5625 0.00716328
0.715434 0.5 -0.375 0.00516041
0.715434 0.5 0.375 0.00509571
0.797732 0.5 -0.15 0.00414632
0.797732 0.5 0.15 0.00412398
0.624316 0.5 -0.525 0.00660228
0.624316 0.5 0.525 0.00643907
0.219992 0.5 -0.7875 0.0181967
0.219992 0.5 0.7875 0.0132225
0 0.5 -0.818821 0.0149985
0 0.5 0.818821 0.0106744
0.0124865 0.5 0.818821 0.0114046
0.0124865 0.5 -0.818821 0.0160488
0 0.5 -0.825 0.0149729
0 0.5 0.825 0.0106713
0.756813 0.5 0.3375 0.00462076
0.756814 0.5 -0.3375 0.00467443
0.67013 0.5 -0.4875 0.00586548
0.67013 0.5 0.4875 0.00574813
0.797732 0.5 -0.225 0.0042157
0.797732 0.5 0.225 0.00418098
0 0.5 -0.831179 0.0149466
0 0.5 0.831179 0.01067
0.0124865 0.5 -0.831179 0.0159735
0.0124865 0.5 0.831179 0.011392
0.835106 0.5 0.0375 0.00379183
0.835106 0.5 -0.0375 0.00379851
0.151149 0.5 -0.825 0.0196273
0.151149 0.5 0.825 0.0140943
0.835106 0.5 0.1125 0.00381112
0.835106 0.5 -0.1125 0.0038304
0.715434 0.5 -0.45 0.00532496
0.715434 0.5 0.45 0.00522358
0.797732 0.5 -0.3 0.00430987
0.797732 0.5 0.3 0.00425944
0.467897 0.5 0.7125 0.00922383
0.467897 0.5 -0.7125 0.00997583
0.523432 0.5 -0.675 0.00878782
0.523432 0.5 0.675 0.00827413
0.411736 0.5 -0.75 0.0116742
0.411736 0.5 0.75 0.0102952
0.835106 0.5 -0.1875 0.00388787
0.835106 0.5 0.1875 0.00385404
0.574156 0.5 -0.6375 0.00765943
0.574157 0.5 0.6375 0.00735249
0.350249 0.5 -0.7875 0.0134244
0.350249 0.5 0.7875 0.0113673
0.756813 0.5 -0.4125 0.00481036
0.756814 0.5 0.4125 0.0047256
0.075776 0.5 -0.8625 0.0210199
0.075776 0.5 0.8625 0.0150544
0.624316 0.5 0.6 0.00661914
0.624316 0.5 -0.6 0.00685337
0.872064 0.5 5.91974e-17 0.00356138
0.870122 0.5 0.075 0.00358108
0.288069 0.5 -0.825 0.0157688
0.288069 0.5 0.825 0.0122609
0.67013 0.5 -0.5625 0.00609005
0.67013 0.5 0.5625 0.00591808
0.872064 0.5 -0.075 0.00358125
0.835106 0.5 -0.2625 0.00396511
0.835106 0.5 0.2625 0.00391792
0.797732 0.5 -0.375 0.00442579
0.797732 0.5 0.375 0.00435734
0.872064 0.5 0.14794 0.00359417
0.872064 0.5 -0.15 0.00362643
0.715434 0.5 -0.525 0.00552263
0.715434 0.5 0.525 0.00537641
0.219992 0.5 0.8625 0.0131301
0.219993 0.5 -0.8625 0.0180293
0 0.5 -0.893821 0.0147053
0 0.5 0.893821 0.0106892
0.0124865 0.5 -0.893821 0.0157322
0.0124865 0.5 0.893821 0.0114113
0 0.5 -0.9 0.0146849
0 0.5 0.9 0.0106944
0.756813 0.5 -0.4875 0.00498512
0.756813 0.5 0.4875 0.00486174
0.872064 0.5 -0.225 0.00369151
0.872064 0.5 0.225 0.00364369
0.835106 0.5 -0.3375 0.00406614
0.835106 0.5 0.3375 0.00400089
0 0.5 0.906179 0.0107
0 0.5 -0.906179 0.0146624
0.0124865 0.5 -0.906179 0.0156715
0.0124865 0.5 0.906179 0.0114226
0.90582 0.5 -0.0375 0.00334058
0.90582 0.5 0.0375 0.00333214
0.151149 0.5 -0.9 0.0193509
0.151149 0.5 0.9 0.0140609
0.90582 0.5 -0.1125 0.00337297
0.905821 0.5 0.1125 0.00334717
0.523432 0.5 -0.75 0.00912842
0.523432 0.5 0.75 0.00846702
0.574156 0.5 -0.7125 0.00797833
0.574156 0.5 0.7125 0.00755763
0.797732 0.5 -0.45 0.0045733
0.797732 0.5 0.45 0.00447255
0.467897 0.5 0.7875 0.00940233
0.467897 0.5 -0.7875 0.0103369
0.624316 0.5 -0.675 0.00714263
0.624316 0.5 0.675 0.00681689
0.411736 0.5 -0.825 0.0120072
0.411736 0.5 0.825 0.0104216
0.872064 0.5 0.3 0.00371273
0.872064 0.5 -0.3 0.00377333
0.67013 0.5 -0.6375 0.006351
0.67013 0.5 0.6375 0.00610755
0.90582 0.5 0.1875 0.00338227
0.905821 0.5 -0.1875 0.00343192
0.350249 0.5 -0.8625 0.013721
0.350249 0.5 0.8625 0.0114386
0.835106 0.5 -0.4125 0.0041787
0.835106 0.5 0.4125 0.00410856
0.715434 0.5 -0.6 0.0057558
0.715434 0.5 0.6 0.00555039
0.939201 0.5 2.75387e-17 0.00322306
0.075776 0.5 0.9375 0.0151047
0.075776 0.5 -0.9375 0.0206493
0.939111 0.5 0.075 0.00322845
0.939201 0.5 -0.075 0.00324244
0.756813 0.5 0.5625 0.00502002
0.756814 0.5 -0.5625 0.00519198
0.90582 0.5 0.2625 0.00343872
0.905821 0.5 -0.2625 0.00349873
0.288069 0.5 -0.9 0.015856
0.288069 0.5 0.9 0.0122717
0.872064 0.5 -0.375 0.00387199
0.872064 0.5 0.375 0.00380275
0.939201 0.5 0.148627 0.00325363
0.939201 0.5 -0.15 0.00328743
0.797732 0.5 -0.525 0.00475814
0.797732 0.5 0.525 0.00460999
0.219992 0.5 0.9375 0.0130868
0.219992 0.5 -0.9375 0.0179023
0.939201 0.5 -0.225 0.00334845
0.939201 0.5 0.225 0.00329754
0.905821 0.5 -0.3375 0.00358147
0.90582 0.5 0.3375 0.00351193
0.835106 0.5 -0.4875 0.00434612
0.835106 0.5 0.4875 0.0042212
0 0.5 0.968821 0.0107842
0 0.5 -0.968821 0.0144698
0.0124865 0.5 -0.968821 0.0154788
0.0124865 0.5 0.968821 0.0115068
0.969689 0.5 -0.0375 0.00311673
0.969689 0.5 0.0375 0.00311017
0.574156 0.5 -0.7875 0.00833601
0.574156 0.5 0.7875 0.00777741
0 0.5 -0.975 0.0144559
0 0.5 0.975 0.0107958
0.624316 0.5 -0.75 0.0074708
0.624316 0.5 0.75 0.0070309
0.969689 0.5 -0.1125 0.00314691
0.96969 0.5 0.1125 0.00312633
0.523432 0.5 -0.825 0.00950585
0.523432 0.5 0.825 0.00867292
0.67013 0.5 0.7125 0.00631466
0.67013 0.5 -0.7125 0.00665042
0 0.5 -0.981179 0.0144377
0 0.5 0.981179 0.0108074
0.467897 0.5 0.8625 0.00959406
0.467897 0.5 -0.8625 0.0107323
0.0124865 0.5 -0.981179 0.0154352
0.0124865 0.5 0.981179 0.011536
0.872064 0.5 -0.45 0.00400631
0.872064 0.5 0.45 0.00390692
0.715434 0.5 -0.675 0.00602533
0.715434 0.5 0.675 0.00574383
0.939201 0.5 -0.3 0.0034181
0.939201 0.5 0.3 0.00336138
0.151149 0.5 0.975 0.0141224
0.151149 0.5 -0.975 0.0191422
0.969689 0.5 -0.1875 0.00320541
0.969689 0.5 0.1875 0.00316108
0.756813 0.5 -0.6375 0.00543319
0.756813 0.5 0.6375 0.0051988
0.411736 0.5 -0.9 0.0123677
0.411736 0.5 0.9 0.0105671
0.90582 0.5 -0.4125 0.00368042
0.90582 0.5 0.4125 0.00360857
0.995005 0.5 0.0749309 0.00297632
0.797732 0.5 -0.6 0.00497413
0.797732 0.5 0.6 0.00477102
1.00005 0.5 -8.47123e-18 0.00293894
0.350249 0.5 -0.9375 0.0140381
0.350249 0.5 0.9375 0.0115358
1.00005 0.5 -0.0749309 0.00295613
0.969689 0.5 -0.2625 0.00326535
0.969689 0.5 0.2625 0.00321547
0.835106 0.5 -0.5625 0.00453693
0.835106 0.5 0.5625 0.00436473
1.00005 0.5 -0.149862 0.00299766
0.939201 0.5 -0.375 0.00350859
0.939201 0.5 0.375 0.00344337
1.00029 0.5 0.148988 0.0029732
0.075776 0.5 -1.0125 0.0203753
0.075776 0.5 1.0125 0.015294
0.288069 0.5 0.975 0.0123055
0.288069 0.5 -0.975 0.0159748
0.872064 0.5 -0.525 0.00417987
0.872064 0.5 0.525 0.00402873
1.00005 0.5 0.224793 0.00301251
1.00005 0.5 -0.224793 0.00305405
0.969689 0.5 0.3375 0.00328687
0.96969 0.5 -0.3375 0.00333478
1.0271 0.5 -0.0368226 0.0027589
1.0271 0.5 0.0368226 0.00275456
0.90582 0.5 0.4875 0.00370875
0.905821 0.5 -0.4875 0.00383917
1.0271 0.5 -0.110468 0.00278624
1.0271 0.5 0.110468 0.00275588
0.67013 0.5 0.7875 0.00653851
0.67013 0.5 -0.7875 0.00698815
0.624316 0.5 0.825 0.00725939
0.624316 0.5 -0.825 0.00783733
0.219993 0.5 -1.0125 0.0178237
0.219993 0.5 1.0125 0.013144
0.574156 0.5 -0.8625 0.0087318
0.574156 0.5 0.8625 0.00800868
0.715434 0.5 -0.75 0.00633285
0.715434 0.5 0.75 0.0059556
0.756813 0.5 0.7125 0.00539764
0.756814 0.5 -0.7125 0.0057107
0.523432 0.5 -0.9 0.00991857
0.523432 0.5 0.9 0.00889503
0.939201 0.5 -0.45 0.00364537
0.939201 0.5 0.45 0.0035403
1.04168 0.5 0 0.00267411
1.0271 0.5 -0.184113 0.00283317
1.0271 0.5 0.184113 0.00280032
0 0.5 -1.04382 0.0143002
0 0.5 1.04382 0.0109441
0.0124865 0.5 -1.04382 0.0152977
0.0124865 0.5 1.04382 0.0116727
1.00005 0.5 -0.299723 0.00311899
1.00005 0.5 0.299723 0.00307401
1.04168 0.5 -0.0729162 0.00268973
1.04168 0.5 0.0729162 0.00267796
0.797732 0.5 -0.675 0.00522539
0.797732 0.5 0.675 0.00495136
0.467897 0.5 0.9375 0.00980859
0.467897 0.5 -0.9375 0.0111591
0 0.5 -1.05 0.0142934
0 0.5 1.05 0.0109585
0.835106 0.5 -0.6375 0.00476269
0.835106 0.5 0.6375 0.00452886
1.04168 0.5 -0.145832 0.00272469
1.04168 0.5 0.145832 0.00269763
0.969689 0.5 -0.4125 0.00344564
0.96969 0.5 0.4125 0.00337378
0 0.5 -1.05618 0.0142812
0 0.5 1.05618 0.0109732
0.0124865 0.5 -1.05618 0.0152751
0.0124865 0.5 1.05618 0.0117098
1.05695 0.5 -0.0360764 0.00259382
1.05695 0.5 0.0360764 0.00258888
0.411736 0.5 -0.975 0.0127536
0.411736 0.5 0.975 0.0106997
0.872064 0.5 -0.6 0.00438121
0.872064 0.5 0.6 0.00417488
1.0271 0.5 -0.257759 0.00289
1.0271 0.5 0.257759 0.00284886
0.151149 0.5 -1.05 0.0190099
0.151149 0.5 1.05 0.0142823
1.05695 0.5 0.108229 0.00258121
1.05695 0.5 -0.108229 0.0026198
1.04168 0.5 -0.218749 0.00277261
1.04168 0.5 0.218749 0.00273275
0.90582 0.5 -0.5625 0.00401685
0.905821 0.5 0.5625 0.00384009
1.00005 0.5 -0.374654 0.00321193
1.00005 0.5 0.374654 0.0031521
0.350249 0.5 1.0125 0.0115564
0.350249 0.5 -1.0125 0.0143744
1.05695 0.5 -0.180382 0.00265841
1.05695 0.5 0.180382 0.0026217
1.07319 0.5 0.0709442 0.00252351
0.939201 0.5 -0.525 0.00382183
0.939201 0.5 0.525 0.00365637
1.0271 0.5 -0.331404 0.00296178
1.0271 0.5 0.331404 0.00291488
1.08112 0.5 3.23815e-17 0.00249234
1.04168 0.5 -0.291665 0.00283191
1.04168 0.5 0.291665 0.002784
1.08112 0.5 -0.0709442 0.00250678
0.969689 0.5 -0.4875 0.00362366
0.96969 0.5 0.4875 0.00347787
1.05695 0.5 0.252535 0.00265916
1.05695 0.5 -0.252535 0.00270737
0.288069 0.5 -1.05 0.0161269
0.288069 0.5 1.05 0.0124004
0.075776 0.5 -1.0875 0.0202168
0.075776 0.5 1.0875 0.0155222
1.08112 0.5 -0.141888 0.00253792
1.08145 0.5 0.140165 0.00251438
0.715434 0.5 0.825 0.00618288
0.715434 0.5 -0.825 0.00667957
0.756813 0.5 0.7875 0.00561525
0.756814 0.5 -0.7875 0.00602715
0.67013 0.5 -0.8625 0.00736413
0.67013 0.5 0.8625 0.00677728
0.797732 0.5 -0.75 0.00551347
0.797732 0.5 0.75 0.00515009
0.624316 0.5 -0.9 0.00824167
0.624316 0.5 0.9 0.00750258
1.00005 0.5 -0.449585 0.00334949
1.00005 0.5 0.449585 0.00324772
0.835106 0.5 -0.7125 0.00502392
0.835106 0.5 0.7125 0.0047092
0.574156 0.5 -0.9375 0.0091645
0.574157 0.5 0.9375 0.00825747
1.10076 0.5 -0.0349809 0.00242185
1.10076 0.5 0.0349809 0.00241936
1.08112 0.5 -0.212832 0.00257825
1.08112 0.5 0.212832 0.00253986
0.872064 0.5 -0.675 0.00461779
0.872064 0.5 0.675 0.00434092
1.04168 0.5 -0.364581 0.00291733
1.04168 0.5 0.364581 0.00285079
1.0271 0.5 0.405049 0.00299663
1.0271 0.5 -0.405049 0.00307308
1.05695 0.5 -0.324688 0.00277016
1.05695 0.5 0.324688 0.00271205
1.10076 0.5 -0.104943 0.00244633
1.10076 0.5 0.104943 0.00242917
0.523432 0.5 0.975 0.00912195
0.523432 0.5 -0.975 0.0103648
0.90582 0.5 0.6375 0.00398626
0.905821 0.5 -0.6375 0.00422845
0.219992 0.5 1.0875 0.0133153
0.219992 0.5 -1.0875 0.0177945
1.11376 0.5 3.81639e-17 0.00237535
0.939201 0.5 0.6 0.00380501
0.939201 0.5 -0.6 0.00401857
1.10076 0.5 -0.174905 0.00248331
1.10076 0.5 0.174905 0.00245205
0.467897 0.5 -1.0125 0.0116154
0.467897 0.5 1.0125 0.00999751
1.11376 0.5 -0.0693118 0.00238822
1.11376 0.5 0.0693118 0.00237932
1.08112 0.5 0.283777 0.0025828
1.08112 0.5 -0.283777 0.00262856
0 0.5 -1.11882 0.0142076
0 0.5 1.11882 0.0111513
0.0124865 0.5 -1.11882 0.0152015
0.0124865 0.5 1.11882 0.0118879
0.969689 0.5 -0.5625 0.00381446
0.969689 0.5 0.5625 0.00360649
1.11376 0.5 0.138624 0.0023975
1.11376 0.5 -0.138624 0.00241866
0 0.5 -1.125 0.0142045
0 0.5 1.125 0.0111712
1.10076 0.5 0.244866 0.00248782
1.10076 0.5 -0.244866 0.0025231
0.411736 0.5 -1.05 0.0131629
0.411736 0.5 1.05 0.0108194
1.05695 0.5 -0.396841 0.00286776
1.05695 0.5 0.396841 0.00277881
1.00005 0.5 -0.524516 0.00352223
1.00005 0.5 0.524516 0.00336419
1.04168 0.5 -0.437497 0.00303343
1.04168 0.5 0.437497 0.00293447
0 0.5 -1.13118 0.0142034
0 0.5 1.13118 0.0111916
0.0124865 0.5 -1.13118 0.0152032
0.0124865 0.5 1.13118 0.0119413
1.11376 0.5 -0.207935 0.00245613
1.11376 0.5 0.207935 0.00242465
1.0271 0.5 -0.478694 0.00321317
1.0271 0.5 0.478694 0.00309849
0.151149 0.5 -1.125 0.0189621
0.151149 0.5 1.125 0.0145222
1.08112 0.5 -0.354722 0.00270364
1.08112 0.5 0.354722 0.00263976
1.13882 0.5 -0.0340295 0.00228646
1.13882 0.5 0.0340295 0.00228502
0.350249 0.5 -1.0875 0.0147283
0.350249 0.5 1.0875 0.0116892
1.13882 0.5 -0.102088 0.00230863
1.13882 0.5 0.102088 0.00229052
1.10076 0.5 -0.314829 0.00257608
1.10076 0.5 0.314829 0.00253784
0.756813 0.5 -0.8625 0.00638483
0.756814 0.5 0.8625 0.00584454
0.797732 0.5 -0.825 0.00584123
0.797732 0.5 0.825 0.00536592
1.11376 0.5 -0.277247 0.00250039
1.11376 0.5 0.277247 0.00246689
0.835106 0.5 0.7875 0.00490813
0.835106 0.5 -0.7875 0.00532178
0.715434 0.5 -0.9 0.00706526
0.715434 0.5 0.9 0.00642352
0.872064 0.5 -0.75 0.00489143
0.872064 0.5 0.75 0.00453049
1.13882 0.5 0.170147 0.00231728
1.13882 0.5 -0.170147 0.00234486
0.67013 0.5 -0.9375 0.00777805
0.67013 0.5 0.9375 0.00703088
0.905821 0.5 -0.7125 0.00447667
0.905821 0.5 0.7125 0.00416022
1.05695 0.5 0.468994 0.00286376
1.05695 0.5 -0.468994 0.00298378
0.939201 0.5 -0.675 0.00423933
0.939201 0.5 0.675 0.00395438
0.624316 0.5 0.975 0.00775611
0.624316 0.5 -0.975 0.00868334
1.04168 0.5 -0.510414 0.00317708
1.04168 0.5 0.510414 0.00303743
0.969689 0.5 -0.6375 0.00402118
0.96969 0.5 0.6375 0.00379425
0.288069 0.5 -1.125 0.0163108
0.288069 0.5 1.125 0.0125886
1.16179 0.5 5.78241e-19 0.00219866
1.08112 0.5 0.425666 0.00271176
1.08112 0.5 -0.425666 0.00280472
1.13882 0.5 -0.238206 0.00237997
1.13882 0.5 0.238206 0.00235159
1.16179 0.5 0.0669104 0.0021907
1.16179 0.5 -0.0669104 0.00220918
0.574156 0.5 -1.0125 0.00963299
0.574156 0.5 1.0125 0.00851005
0.075776 0.5 -1.1625 0.020192
0.075776 0.5 1.1625 0.0158503
1.00005 0.5 -0.599447 0.00370575
1.00005 0.5 0.599447 0.00351451
1.10076 0.5 0.384791 0.00260111
1.10076 0.5 -0.384791 0.00266687
1.0271 0.5 -0.55234 0.00338111
1.0271 0.5 0.55234 0.00322105
1.11376 0.5 -0.346559 0.00256965
1.11376 0.5 0.346559 0.00252258
1.16179 0.5 -0.133821 0.00223747
1.16179 0.5 0.133821 0.00221664
0.523432 0.5 -1.05 0.0108426
0.523432 0.5 1.05 0.00931861
1.17463 0.5 -0.0331343 0.00215233
1.17463 0.5 0.0331343 0.00215237
1.17463 0.5 -0.0994029 0.00217197
1.17463 0.5 0.0994029 0.00216145
1.16179 0.5 -0.200731 0.00227103
1.16179 0.5 0.200731 0.00224458
1.13882 0.5 -0.306265 0.00242698
1.13882 0.5 0.306265 0.00239889
0.219992 0.5 -1.1625 0.0178118
0.219992 0.5 1.1625 0.0135518
0.467897 0.5 -1.0875 0.0120987
0.467897 0.5 1.0875 0.0101288
1.17463 0.5 0.165672 0.00218146
1.17463 0.5 -0.165672 0.00220712
1.05695 0.5 -0.541147 0.00313037
1.05695 0.5 0.541147 0.00296713
1.18772 0.5 -5.78241e-19 0.00210684
1.11376 0.5 -0.41587 0.00266587
1.11376 0.5 0.41587 0.00259236
1.18772 0.5 -0.065614 0.00211592
1.18772 0.5 0.065614 0.00211204
1.08112 0.5 -0.49661 0.0029289
1.08112 0.5 0.49661 0.00280064
1.10076 0.5 -0.454752 0.00277364
1.10076 0.5 0.454752 0.00268008
1.18534 0.5 0.118202 0.00212546
1.16179 0.5 -0.267642 0.00230747
1.16179 0.5 0.267642 0.00228253
0 0.5 -1.19382 0.0141698
0 0.5 1.19382 0.0114268
0.0124865 0.5 1.19382 0.0121766
0.0124865 0.5 -1.19382 0.0151697
1.04168 0.5 -0.58333 0.00332896
1.04168 0.5 0.58333 0.0031638
1.18772 0.5 -0.131228 0.00214226
1.17463 0.5 -0.23194 0.00223696
1.17463 0.5 0.23194 0.00221215
0.411736 0.5 -1.125 0.0135969
0.411736 0.5 1.125 0.0110008
1.13882 0.5 -0.374324 0.00250848
1.13882 0.5 0.374324 0.00245884
0 0.5 -1.2 0.0141583
0 0.5 1.2 0.0114524
0.905821 0.5 0.7875 0.00436525
0.905821 0.5 -0.7875 0.00476435
0.872064 0.5 -0.825 0.00519974
0.872064 0.5 0.825 0.00473671
0.835106 0.5 0.8625 0.00512623
0.835106 0.5 -0.8625 0.0056616
0.939201 0.5 -0.75 0.0044802
0.939201 0.5 0.75 0.00411509
0.797732 0.5 -0.9 0.00620903
0.797732 0.5 0.9 0.00559809
1.0271 0.5 0.625985 0.00336916
1.0271 0.5 -0.625985 0.00354633
0.969689 0.5 0.7125 0.00388454
0.96969 0.5 -0.7125 0.00423827
1.18772 0.5 -0.196842 0.00217345
1.18772 0.5 0.196842 0.00214982
0.756814 0.5 -0.9375 0.00678087
0.756814 0.5 0.9375 0.00608594
0 0.5 1.20618 0.0114783
0 0.5 -1.20618 0.0141565
1.00005 0.5 -0.674378 0.00391232
1.00005 0.5 0.674378 0.0036508
0.0124865 0.5 1.20618 0.0122464
0.0124865 0.5 -1.20618 0.0151492
1.16179 0.5 -0.334552 0.00236589
1.16179 0.5 0.334552 0.00233256
0.715434 0.5 0.975 0.00667829
0.715434 0.5 -0.975 0.00749015
0.151149 0.5 -1.2 0.0189625
0.151149 0.5 1.2 0.0148405
1.20942 0.5 0.0322645 0.00202835
1.20942 0.5 -0.0322645 0.00202872
1.17463 0.5 -0.298209 0.00227605
1.17463 0.5 0.298209 0.00225441
1.20942 0.5 -0.0967935 0.00204549
1.20942 0.5 0.0967935 0.002038
0.350249 0.5 -1.1625 0.0150981
0.350249 0.5 1.1625 0.0119032
0.67013 0.5 1.0125 0.00728973
0.67013 0.5 -1.0125 0.00823056
1.11376 0.5 0.485183 0.00267745
1.11376 0.5 -0.485183 0.00278384
1.18772 0.5 0.262456 0.00218483
1.18772 0.5 -0.262456 0.00220605
1.10076 0.5 -0.524714 0.00290874
1.10076 0.5 0.524714 0.00277493
1.20942 0.5 -0.161322 0.00207767
1.20942 0.5 0.161322 0.00205596
1.08112 0.5 -0.567554 0.00305755
1.08112 0.5 0.567554 0.00290829
0.624316 0.5 -1.05 0.00916374
0.624316 0.5 1.05 0.00800334
1.13882 0.5 -0.442383 0.00260836
1.13882 0.5 0.442383 0.00253287
1.05695 0.5 0.6133 0.00309452
1.05695 0.5 -0.6133 0.00326246
1.16179 0.5 -0.401463 0.00245024
1.16179 0.5 0.401463 0.00239519
0.574156 0.5 -1.0875 0.0101353
0.574156 0.5 1.0875 0.00871974
1.17463 0.5 0.364477 0.00230849
1.17463 0.5 -0.364477 0.00234753
1.20942 0.5 -0.225851 0.00210347
1.20942 0.5 0.225851 0.00208345
1.23036 0.5 -1.32995e-17 0.00195816
1.2294 0.5 0.0634819 0.00196616
1.04168 0.5 -0.656246 0.00350436
1.04168 0.5 0.656246 0.00329114
1.23036 0.5 -0.0634819 0.00196515
1.18772 0.5 0.32807 0.00223115
1.18772 0.5 -0.32807 0.00225833
0.288069 0.5 -1.2 0.0165315
0.288069 0.5 1.2 0.0128468
1.23036 0.5 -0.126964 0.00198848
1.23036 0.5 0.126964 0.00197596
0.075776 0.5 -1.2375 0.0201438
0.075776 0.5 1.2375 0.0162777
0.523432 0.5 -1.125 0.011357
0.523432 0.5 1.125 0.0095322
1.0271 0.5 -0.69963 0.00376697
1.0271 0.5 0.69963 0.00348937
1.24274 0.5 0.0314313 0.00191906
1.24274 0.5 -0.0314313 0.00191704
1.20942 0.5 0.29038 0.00212116
1.20942 0.5 -0.29038 0.002137
1.11376 0.5 -0.554494 0.00290383
1.11376 0.5 0.554494 0.00277673
1.23036 0.5 -0.190445 0.0020157
1.23036 0.5 0.190445 0.00199747
1.24274 0.5 -0.0942942 0.00193147
1.24274 0.5 0.0942942 0.0019276
1.13882 0.5 0.510442 0.00262119
1.13882 0.5 -0.510442 0.00273088
0.969689 0.5 -0.7875 0.00445057
0.969689 0.5 0.7875 0.00406005
1.00005 0.5 -0.749309 0.00414589
1.00005 0.5 0.749309 0.00379052
0.939201 0.5 -0.825 0.00475452
0.939201 0.5 0.825 0.00431628
0.90582 0.5 0.8625 0.00456821
0.90582 0.5 -0.8625 0.005073
1.17463 0.5 -0.430746 0.00243739
1.17463 0.5 0.430746 0.00237519
1.10076 0.5 -0.594676 0.00302043
1.10076 0.5 0.594676 0.00288698
1.18772 0.5 -0.393684 0.00233546
1.18772 0.5 0.393684 0.00228929
1.24274 0.5 -0.157157 0.00196182
1.24274 0.5 0.157157 0.00194454
1.16179 0.5 -0.468373 0.00255508
1.16179 0.5 0.468373 0.00247164
0.467897 0.5 -1.1625 0.0126193
0.467897 0.5 1.1625 0.0103752
0.872064 0.5 -0.9 0.00554645
0.872064 0.5 0.9 0.00495478
1.25401 0.5 2.08167e-17 0.00188503
0.835106 0.5 0.9375 0.00536638
0.835106 0.5 -0.9375 0.00604004
1.25401 0.5 -0.0622994 0.00189093
1.25401 0.5 0.0622994 0.00188987
1.08112 0.5 -0.638498 0.00320478
1.08112 0.5 0.638498 0.00302889
1.23036 0.5 -0.253927 0.00204288
1.23036 0.5 0.253927 0.002028
0.219992 0.5 1.2375 0.0138404
0.219992 0.5 -1.2375 0.0178648
1.25309 0.5 0.121964 0.00190248
1.05695 0.5 0.685452 0.00320528
1.05695 0.5 -0.685452 0.00345217
0.797732 0.5 0.975 0.00585003
0.797732 0.5 -0.975 0.00661477
1.25401 0.5 -0.124599 0.00191264
1.20942 0.5 -0.354909 0.00219842
1.20942 0.5 0.354909 0.00216993
1.24274 0.5 -0.220019 0.00198423
1.24274 0.5 0.220019 0.00196961
0.756814 0.5 -1.0125 0.00721873
0.756813 0.5 1.0125 0.00635126
1.25401 0.5 -0.186898 0.00193799
1.25401 0.5 0.186898 0.00192292
0.411736 0.5 -1.2 0.0140672
0.411736 0.5 1.2 0.0112614
0 0.5 -1.26882 0.0141211
0 0.5 1.26882 0.0117696
0.0124865 0.5 1.26882 0.0125377
0.0124865 0.5 -1.26882 0.0151139
0.715434 0.5 -1.05 0.00795735
0.715434 0.5 1.05 0.00694274
1.23036 0.5 -0.31741 0.00208633
1.23036 0.5 0.31741 0.00206847
1.04168 0.5 -0.729162 0.00372969
1.04168 0.5 0.729162 0.00342143
1.18772 0.5 -0.459298 0.00243207
1.18772 0.5 0.459298 0.00236064
1.24274 0.5 -0.282882 0.00201338
1.24274 0.5 0.282882 0.00200362
0 0.5 -1.275 0.0141095
0 0.5 1.275 0.0118005
1.27472 0.5 -0.0306319 0.00181345
1.27472 0.5 0.0306319 0.00181543
1.17463 0.5 0.497015 0.00245629
1.17463 0.5 -0.497015 0.00254957
1.11376 0.5 -0.623806 0.00303932
1.11376 0.5 0.623806 0.00289676
1.13882 0.5 -0.578501 0.00283553
1.13882 0.5 0.578501 0.00271763
0.67013 0.5 -1.0875 0.00872928
0.67013 0.5 1.0875 0.00755578
1.27472 0.5 -0.0918959 0.00182574
1.27472 0.5 0.0918959 0.00183623
1.25401 0.5 -0.249197 0.00196267
1.25401 0.5 0.249197 0.00195187
1.16179 0.5 -0.535284 0.00266142
1.16179 0.5 0.535284 0.00255814
1.20942 0.5 -0.419438 0.0022793
1.20942 0.5 0.419438 0.00223007
0 0.5 -1.28118 0.0141042
0 0.5 1.28118 0.0118318
0.0124865 0.5 1.28118 0.0126231
0.0124865 0.5 -1.28118 0.015082
1.27472 0.5 0.15316 0.00183869
1.27472 0.5 -0.15316 0.00185248
0.151149 0.5 -1.275 0.018968