# nutMean  POINT_DATA 63140
# x  y  z  nutMean
0 0.1 0 0.00536827
0 0.1 -0.0179898 0.0053695
0 0.1 0.0179898 0.0053664
0.0363518 0.1 0.0179898 0.0119744
0.0363518 0.1 -0.0179898 0.0129877
0 0.1 -0.0570102 0.00537766
0 0.1 0.0570102 0.00536433
0.0363518 0.1 0.0570102 0.0119723
0.0363518 0.1 -0.0570102 0.0129959
0 0.1 -0.075 0.00538361
0 0.1 0.075 0.00536464
0.075776 0.1 -0.0375 0.0210384
0.075776 0.1 0.0375 0.0189915
0 0.1 -0.0929898 0.00538892
0 0.1 0.0929898 0.00536438
0.0363518 0.1 -0.0929898 0.0138589
0.0363518 0.1 0.0929898 0.0110169
0 0.1 -0.13201 0.00540615
0 0.1 0.13201 0.00536767
0.075776 0.1 -0.1125 0.0227627
0.075776 0.1 0.1125 0.0170467
0.0363518 0.1 -0.13201 0.0138761
0.0363518 0.1 0.13201 0.0110202
0 0.1 -0.15 0.00541697
0 0.1 0.15 0.00537125
0.150379 0.1 -2.22623e-17 0.0179416
0 0.1 -0.16799 0.00542716
0 0.1 0.16799 0.00537473
0.150379 0.1 -0.075 0.0188658
0.150379 0.1 0.075 0.0169621
0.0363518 0.1 -0.16799 0.0139407
0.0363518 0.1 0.16799 0.0101267
0.075776 0.1 -0.1875 0.022866
0.075776 0.1 0.1875 0.0152163
0 0.1 -0.20701 0.00545549
0 0.1 0.20701 0.00538303
0.0363518 0.1 -0.20701 0.013969
0.0363518 0.1 0.20701 0.010135
0.150379 0.1 -0.15 0.0193225
0.150379 0.1 0.15 0.0156398
0.219993 0.1 -0.0375 0.0159513
0.219993 0.1 0.0375 0.0159553
0 0.1 -0.225 0.00547249
0 0.1 0.225 0.00538767
0 0.1 -0.24299 0.00548898
0 0.1 0.24299 0.00539281
0.0363518 0.1 0.24299 0.0094017
0.0363518 0.1 -0.24299 0.0133404
0.219993 0.1 -0.1125 0.015962
0.219993 0.1 0.1125 0.0159392
0.150379 0.1 -0.225 0.0190427
0.150379 0.1 0.225 0.0140334
0.075776 0.1 -0.2625 0.0215861
0.075776 0.1 0.2625 0.0137089
0 0.1 -0.28201 0.00553403
0 0.1 0.28201 0.00539931
0.0363518 0.1 -0.28201 0.0133855
0.0363518 0.1 0.28201 0.00940819
0.287374 0.1 -2.89121e-19 0.013175
0.219992 0.1 0.1875 0.0143904
0.219992 0.1 -0.1875 0.0159873
0.287374 0.1 -0.075 0.0132286
0.287374 0.1 0.075 0.0131247
0 0.1 -0.3 0.00556097
0 0.1 0.3 0.005401
0 0.1 0.31799 0.00540331
0 0.1 -0.31799 0.00558811
0.0363518 0.1 -0.31799 0.0124483
0.0363518 0.1 0.31799 0.00886984
0.287374 0.1 0.15 0.0126512
0.287374 0.1 -0.15 0.013277
0.150379 0.1 -0.3 0.0180716
0.150379 0.1 0.3 0.0128713
0.219993 0.1 0.2625 0.0128439
0.219993 0.1 -0.2625 0.015991
0.075776 0.1 -0.3375 0.0196952
0.075776 0.1 0.3375 0.0126037
0.350249 0.1 -0.0375 0.0105583
0.350249 0.1 0.0375 0.0104496
0 0.1 -0.35701 0.00563923
0 0.1 0.35701 0.00539912
0.0363518 0.1 -0.35701 0.0124994
0.0363518 0.1 0.35701 0.00886565
0.287374 0.1 -0.225 0.0132921
0.287374 0.1 0.225 0.0117602
0.350249 0.1 -0.1125 0.010656
0.350249 0.1 0.1125 0.0103726
0 0.1 -0.375 0.00566252
0 0.1 0.375 0.00539375
0 0.1 -0.39299 0.00568667
0 0.1 0.39299 0.00538866
0.0363518 0.1 -0.39299 0.0114777
0.0363518 0.1 0.39299 0.00860904
0.350249 0.1 -0.1875 0.0107155
0.350249 0.1 0.1875 0.0101016
0.219992 0.1 -0.3375 0.0152288
0.219992 0.1 0.3375 0.0123436
0.150379 0.1 0.375 0.0122382
0.150379 0.1 -0.375 0.0167388
0.411108 0.1 4.33681e-19 0.00876565
0.287374 0.1 -0.3 0.0130726
0.287374 0.1 0.3 0.0111777
0.411108 0.1 -0.075 0.00883638
0.411108 0.1 0.075 0.00871119
0.075776 0.1 -0.4125 0.0176431
0.075776 0.1 0.4125 0.0120769
0 0.1 0.43201 0.0053744
0 0.1 -0.43201 0.00572077
0.0363518 0.1 0.43201 0.00859478
0.0363518 0.1 -0.43201 0.0115118
0.411108 0.1 -0.15 0.00890397
0.411108 0.1 0.15 0.00862653
0.350249 0.1 -0.2625 0.0106873
0.350249 0.1 0.2625 0.00985783
0 0.1 -0.45 0.00573172
0 0.1 0.45 0.00536677
0.219992 0.1 0.4125 0.0119281
0.219992 0.1 -0.4125 0.0145563
0 0.1 -0.46799 0.00574329
0 0.1 0.46799 0.00535901
0.411108 0.1 -0.225 0.00894586
0.411108 0.1 0.225 0.00850729
0.467897 0.1 -0.0375 0.00711115
0.467897 0.1 0.0375 0.00708324
0.0363518 0.1 0.46799 0.00840644
0.0363518 0.1 -0.46799 0.0107807
0.287374 0.1 -0.375 0.0126705
0.287374 0.1 0.375 0.0109455
0.150379 0.1 0.45 0.0122087
0.150379 0.1 -0.45 0.0157013
0.467897 0.1 0.1125 0.00707507
0.467897 0.1 -0.1125 0.00716341
0.350249 0.1 -0.3375 0.0105963
0.350249 0.1 0.3375 0.00978379
0.075776 0.1 -0.4875 0.0161692
0.075776 0.1 0.4875 0.0116918
0.467897 0.1 0.1875 0.00708448
0.467897 0.1 -0.1875 0.0072259
0 0.1 -0.50701 0.00575721
0 0.1 0.50701 0.00533914
0.0363518 0.1 -0.50701 0.0107946
0.0363518 0.1 0.50701 0.00838657
0.411108 0.1 0.3 0.00844169
0.411108 0.1 -0.3 0.00896352
0.522865 0.1 1.41031e-17 0.00613986
0 0.1 -0.525 0.00576087
0 0.1 0.525 0.00532851
0.522865 0.1 -0.075 0.00617164
0.522865 0.1 0.075 0.00613215
0.287374 0.1 0.45 0.0111808
0.287374 0.1 -0.45 0.012496
0.219992 0.1 0.4875 0.013103
0.219992 0.1 -0.4875 0.0145398
0.467897 0.1 -0.2625 0.00729751
0.467897 0.1 0.2625 0.00710114
0.350249 0.1 -0.4125 0.0105054
0.350249 0.1 0.4125 0.00982655
0 0.1 -0.54299 0.00576449
0 0.1 0.54299 0.00531742
0.522865 0.1 0.15 0.00614575
0.522865 0.1 -0.15 0.00622395
0.0363518 0.1 0.54299 0.00823738
0.0363518 0.1 -0.54299 0.010318
0.150379 0.1 -0.525 0.0150264
0.150379 0.1 0.525 0.0124213
0.411108 0.1 -0.375 0.00896877
0.411108 0.1 0.375 0.00846588
0.075776 0.1 -0.5625 0.0151972
0.075776 0.1 0.5625 0.0113863
0.522865 0.1 -0.225 0.00629172
0.522865 0.1 0.225 0.00617497
0.574156 0.1 0.0375 0.00521331
0.574157 0.1 -0.0375 0.00522396
0.467897 0.1 -0.3375 0.0074091
0.467897 0.1 0.3375 0.00713276
0 0.1 -0.58201 0.005762
0 0.1 0.58201 0.00529626
0.0363518 0.1 -0.58201 0.0103155
0.0363518 0.1 0.58201 0.00821622
0.574157 0.1 -0.1125 0.00526092
0.574157 0.1 0.1125 0.00522839
0.287374 0.1 -0.525 0.0124835
0.287374 0.1 0.525 0.0116274
0 0.1 -0.6 0.00575719
0 0.1 0.6 0.00528745
0.350249 0.1 0.4875 0.00998084
0.350249 0.1 -0.4875 0.0105761
0.522865 0.1 -0.3 0.00638275
0.522865 0.1 0.3 0.00621783
0.219992 0.1 -0.5625 0.0142523
0.219992 0.1 0.5625 0.0134235
0.574156 0.1 -0.1875 0.00531881
0.574156 0.1 0.1875 0.00526539
0.411108 0.1 0.45 0.00858093
0.411108 0.1 -0.45 0.00902039
0 0.1 -0.61799 0.00575186
0 0.1 0.61799 0.00527794
0.150379 0.1 -0.6 0.0146799
0.150379 0.1 0.6 0.0122998
0.0363518 0.1 -0.61799 0.0100634
0.0363518 0.1 0.61799 0.00809104
0.467897 0.1 -0.4125 0.00749358
0.467897 0.1 0.4125 0.0072271
0.623803 0.1 2.34188e-17 0.00465318
0.623803 0.1 0.075 0.00465582
0.623803 0.1 -0.075 0.00467553
0.574156 0.1 0.2625 0.00531784
0.574156 0.1 -0.2625 0.0053978
0.623803 0.1 0.15 0.00468222
0.623803 0.1 -0.15 0.00472072
0.075776 0.1 0.6375 0.0111281
0.075776 0.1 -0.6375 0.0146832
0.522865 0.1 -0.375 0.00648987
0.522865 0.1 0.375 0.00629082
0 0.1 0.65701 0.00526096
0 0.1 -0.65701 0.00573621
0.0363518 0.1 0.65701 0.00807406
0.0363518 0.1 -0.65701 0.0100477
0.350249 0.1 0.5625 0.0101454
0.350249 0.1 -0.5625 0.0107505
0.623803 0.1 0.225 0.00472801
0.623803 0.1 -0.225 0.00478641
0.287374 0.1 -0.6 0.0125996
0.287374 0.1 0.6 0.0117135
0.574157 0.1 -0.3375 0.00549966
0.574157 0.1 0.3375 0.00538708
0.411108 0.1 0.525 0.00876443
0.411108 0.1 -0.525 0.00916857
0.67013 0.1 0.0375 0.0041028
0.67013 0.1 -0.0375 0.00411217
0.219992 0.1 -0.6375 0.0146151
0.219993 0.1 0.6375 0.0131669
0 0.1 -0.675 0.0057275
0 0.1 0.675 0.00525446
0.467897 0.1 -0.4875 0.0076332
0.467897 0.1 0.4875 0.00739573
0.67013 0.1 -0.1125 0.00414467
0.67013 0.1 0.1125 0.00411825
0.522865 0.1 0.45 0.00641464
0.522865 0.1 -0.45 0.00661603
0.150379 0.1 0.675 0.0120411
0.150379 0.1 -0.675 0.0148064
0.623803 0.1 0.3 0.00479098
0.623803 0.1 -0.3 0.00487129
0 0.1 -0.69299 0.00571776
0 0.1 0.69299 0.00524723
0.0363518 0.1 -0.69299 0.00982216
0.0363518 0.1 0.69299 0.00797267
0.67013 0.1 -0.1875 0.0041982
0.67013 0.1 0.1875 0.00415627
0.574156 0.1 0.4125 0.00548316
0.574157 0.1 -0.4125 0.00562946
0.714971 0.1 -2.8382e-17 0.00373758
0.075776 0.1 -0.7125 0.0142236
0.075776 0.1 0.7125 0.0109185
0.714971 0.1 -0.075 0.00375886
0.714971 0.1 0.075 0.00373878
0.67013 0.1 0.2625 0.00421184
0.67013 0.1 -0.2625 0.0042707
0.411108 0.1 -0.6 0.00937604
0.411108 0.1 0.6 0.00896262
0.350249 0.1 0.6375 0.0102576
0.350249 0.1 -0.6375 0.0109751
0.623803 0.1 0.375 0.00487236
0.623803 0.1 -0.375 0.00498432
0.714971 0.1 -0.15 0.00380087
0.714971 0.1 0.15 0.00376263
0.467897 0.1 -0.5625 0.00784231
0.467897 0.1 0.5625 0.00764083
0 0.1 -0.73201 0.00569642
0 0.1 0.73201 0.00523516
0.0363518 0.1 0.73201 0.00796061
0.0363518 0.1 -0.73201 0.00980082
0.287374 0.1 -0.675 0.0130697
0.287374 0.1 0.675 0.0116225
0.522865 0.1 -0.525 0.00678836
0.522865 0.1 0.525 0.00659967
0.219993 0.1 -0.7125 0.0156996
0.219992 0.1 0.7125 0.0128581
0.714971 0.1 -0.225 0.00386156
0.714971 0.1 0.225 0.00380619
0 0.1 0.75 0.00523105
0 0.1 -0.75 0.00568614
0.67013 0.1 -0.3375 0.00435718
0.67013 0.1 0.3375 0.00428621
0.574156 0.1 -0.4875 0.00577922
0.574157 0.1 0.4875 0.00562018
0.756813 0.1 0.0375 0.00337364
0.756814 0.1 -0.0375 0.00338532
0.150379 0.1 0.746002 0.0117984
0.150379 0.1 -0.75 0.0148989
0.756813 0.1 -0.1125 0.00341686
0.756813 0.1 0.1125 0.00338416
0 0.1 0.76799 0.00522618
0 0.1 -0.76799 0.00567439
0.0363518 0.1 0.76799 0.00788298
0.0363518 0.1 -0.76799 0.00960076
0.623803 0.1 -0.45 0.00512396
0.623803 0.1 0.45 0.00498137
0.714971 0.1 -0.3 0.0039383
0.714971 0.1 0.3 0.00386783
0.756814 0.1 -0.1875 0.00346736
0.756814 0.1 0.1875 0.00341572
0.67013 0.1 -0.4125 0.00449126
0.67013 0.1 0.4125 0.00437206
0.411108 0.1 0.675 0.009132
0.411108 0.1 -0.675 0.00960781
0.467897 0.1 0.6375 0.00790857
0.467897 0.1 -0.6375 0.00806981
0.075776 0.1 0.7875 0.0107577
0.075776 0.1 -0.7875 0.0138134
0.350249 0.1 -0.7125 0.0112227
0.350249 0.1 0.7125 0.0103329
0.522865 0.1 -0.6 0.00700331
0.522865 0.1 0.6 0.00683556
0.797314 0.1 -3.59473e-17 0.00311687
0.287374 0.1 0.746002 0.0115408
0.797314 0.1 -0.075 0.00313808
0.797314 0.1 0.075 0.00311523
0.756814 0.1 -0.2625 0.00353374
0.756814 0.1 0.2625 0.003465
0.287374 0.1 -0.75 0.0134496
0.574156 0.1 -0.5625 0.00597054
0.574156 0.1 0.5625 0.00581156
0 0.1 0.80701 0.00521922
0 0.1 -0.80701 0.00565194
0.714971 0.1 -0.375 0.00404425
0.714971 0.1 0.375 0.00394436
0.0363518 0.1 0.80701 0.00787601
0.0363518 0.1 -0.80701 0.0095783
0.797314 0.1 -0.15 0.00317772
0.797314 0.1 0.15 0.00313357
0.623803 0.1 -0.525 0.00528921
0.623803 0.1 0.525 0.00513092
0.219992 0.1 0.7875 0.0125988
0.219992 0.1 -0.7875 0.0158161
0.149792 0.1 0.80701 0.0116607
0 0.1 0.825 0.00521766
0 0.1 -0.825 0.00564203
0.797314 0.1 -0.225 0.00323368
0.797314 0.1 0.225 0.00317043
0.756813 0.1 -0.3375 0.00361548
0.756813 0.1 0.3375 0.00353253
0.67013 0.1 0.4875 0.00448963
0.67013 0.1 -0.4875 0.00463608
0.835106 0.1 -0.0375 0.00286786
0.835106 0.1 0.0375 0.00285571
0.150379 0.1 -0.825 0.01473
0.835106 0.1 -0.1125 0.00289735
0.835106 0.1 0.1125 0.00286253
0 0.1 -0.84299 0.00563049
0 0.1 0.84299 0.00521528
0.0363518 0.1 -0.84299 0.00939764
0.0363518 0.1 0.84299 0.0078224
0.714971 0.1 -0.45 0.00417864
0.714971 0.1 0.45 0.00404029
0.411108 0.1 0.746002 0.0092756
0.797314 0.1 -0.3 0.00330621
0.797314 0.1 0.3 0.00322429
0.467897 0.1 -0.7125 0.00830787
0.467897 0.1 0.7125 0.00813045
0.522865 0.1 0.675 0.00708625
0.522865 0.1 -0.675 0.00724591
0.411108 0.1 -0.75 0.00981342
0.835106 0.1 -0.1875 0.00294445
0.835107 0.1 0.1875 0.00288712
0.286844 0.1 0.80701 0.0114542
0.574156 0.1 0.6375 0.00605314
0.574157 0.1 -0.6375 0.00620375
0.350249 0.1 -0.7875 0.0113122
0.350249 0.1 0.7875 0.0103864
0.756813 0.1 -0.4125 0.0037372
0.756814 0.1 0.4125 0.0036111
0.623803 0.1 -0.6 0.00549134
0.623803 0.1 0.6 0.00532534
0.075776 0.1 0.8625 0.0106466
0.075776 0.1 -0.8625 0.0134422
0.871687 0.1 -3.2767e-18 0.00266694
0.287374 0.1 -0.825 0.0135042
0.871687 0.1 -0.075 0.002688
0.871687 0.1 0.075 0.00266316
0.67013 0.1 -0.5625 0.0048115
0.67013 0.1 0.5625 0.00464293
0.835106 0.1 0.2625 0.00292933
0.835106 0.1 -0.2625 0.00300445
0.797314 0.1 -0.375 0.00340203
0.797314 0.1 0.375 0.00329375
0 0.1 -0.88201 0.00560969
0 0.1 0.88201 0.0052136
0.0363518 0.1 0.88201 0.00782073
0.0363518 0.1 -0.88201 0.00937685
0.871687 0.1 0.15 0.00267642
0.871687 0.1 -0.15 0.00272606
0.714971 0.1 0.525 0.00416571
0.714971 0.1 -0.525 0.00433416
0.219993 0.1 0.8625 0.0124161
0.219992 0.1 -0.8625 0.0157837
0 0.1 0.9 0.00521464
0 0.1 -0.9 0.00560133
0.756813 0.1 0.4875 0.00371312
0.756814 0.1 -0.4875 0.00387434
0.871687 0.1 0.225 0.00270637
0.871687 0.1 -0.225 0.00277757
0.835106 0.1 -0.3375 0.00308652
0.835106 0.1 0.3375 0.002986
0.41063 0.1 0.80701 0.00934611
0.90582 0.1 -0.0375 0.00248356
0.905821 0.1 0.0375 0.00247044
0.522865 0.1 0.746002 0.00732635
0.150379 0.1 0.9 0.0115081
0.90582 0.1 0.1125 0.00247384
0.905821 0.1 -0.1125 0.00251303
0.522865 0.1 -0.75 0.00750322
0.574156 0.1 0.7125 0.00632609
0.574156 0.1 -0.7125 0.00647729
0.797314 0.1 -0.45 0.00352228
0.797314 0.1 0.45 0.00337828
0.467897 0.1 -0.7875 0.00855967
0.467897 0.1 0.7875 0.00830643
0.150379 0.1 -0.903998 0.0145695
0 0.1 0.91799 0.00521479
0 0.1 -0.91799 0.00559118
0.0363518 0.1 0.91799 0.00779284
0.0363518 0.1 -0.91799 0.00921455
0.623803 0.1 0.675 0.00555946
0.623803 0.1 -0.675 0.0057311
0.411108 0.1 -0.825 0.00995835
0.871687 0.1 0.3 0.00275183
0.871687 0.1 -0.3 0.0028457
0.67013 0.1 -0.6375 0.00502088
0.67013 0.1 0.6375 0.00483601
0.90582 0.1 -0.1875 0.00255921
0.90582 0.1 0.1875 0.0024922
0.350249 0.1 0.8625 0.0104349
0.350249 0.1 -0.8625 0.0113488
0.835106 0.1 -0.4125 0.00318457
0.835106 0.1 0.4125 0.00306126
0.714971 0.1 -0.6 0.00451971
0.714971 0.1 0.6 0.00432495
0.93886 0.1 -1.15648e-17 0.00237259
0.075776 0.1 0.9375 0.0105884
0.075776 0.1 -0.9375 0.0131087
0.93886 0.1 0.075 0.00236825
0.93886 0.1 -0.075 0.00239257
0.756813 0.1 0.5625 0.00384248
0.756814 0.1 -0.5625 0.00403922
0.905821 0.1 -0.2625 0.0026121
0.905821 0.1 0.2625 0.002527
0.287374 0.1 0.9 0.0113883
0.287374 0.1 -0.903998 0.0134387
0.871687 0.1 0.375 0.00281291
0.871687 0.1 -0.375 0.00293332
0.93886 0.1 -0.15 0.00242872
0.93886 0.1 0.15 0.00237856
0.797314 0.1 0.525 0.00348411
0.797314 0.1 -0.525 0.00366647
0 0.1 0.95701 0.00521813
0 0.1 -0.95701 0.00557383
0.0363518 0.1 0.95701 0.00779618
0.0363518 0.1 -0.95701 0.00919721
0.522433 0.1 0.80701 0.00747393
0.219992 0.1 0.9375 0.0122972
0.219992 0.1 -0.9375 0.0156397
0.93886 0.1 0.225 0.0024032
0.93886 0.1 -0.225 0.00247541
0.90582 0.1 0.3375 0.00257536
0.905821 0.1 -0.3375 0.00268979
0.835106 0.1 -0.4875 0.00330917
0.835107 0.1 0.4875 0.00314385
0.969689 0.1 -0.0375 0.00227581
0.969689 0.1 0.0375 0.00226483
0.61613 0.1 0.75 0.00581725
0.574156 0.1 -0.7875 0.00674766
0.574156 0.1 0.7875 0.00659542
0 0.1 0.975 0.00522146
0 0.1 -0.975 0.00556757
0.623803 0.1 -0.75 0.0059974
0.969689 0.1 -0.1125 0.00230224
0.969689 0.1 0.1125 0.00226815
0.522865 0.1 -0.825 0.00774883
0.67013 0.1 0.7125 0.00506676
0.67013 0.1 -0.7125 0.00526496
0.871687 0.1 -0.45 0.00304357
0.871687 0.1 0.45 0.00288706
0.467897 0.1 0.8625 0.00843749
0.467897 0.1 -0.8625 0.00875476
0.714971 0.1 -0.675 0.00473877
0.714971 0.1 0.675 0.00451998
0.93886 0.1 -0.3 0.00253487
0.93886 0.1 0.3 0.00244191
0.150379 0.1 0.975 0.0114408
0.150379 0.1 -0.975 0.0142907
0.969689 0.1 -0.1875 0.00234483
0.969689 0.1 0.1875 0.0022843
0.411108 0.1 0.9 0.00946272
0.756813 0.1 0.6375 0.00400455
0.756814 0.1 -0.6375 0.00423206
0.990306 0.1 -2.19732e-17 0.00218232
0 0.1 0.99299 0.00522385
0 0.1 -0.99299 0.0055595
0.411108 0.1 -0.903998 0.0100231
0.990306 0.1 -0.075 0.0022002
0.990306 0.1 0.075 0.00217861
0.0363518 0.1 0.99299 0.00778667
0.0363518 0.1 -0.99299 0.00905673
0.90582 0.1 -0.4125 0.00278255
0.905821 0.1 0.4125 0.00263965
0.797314 0.1 -0.6 0.00383785
0.797314 0.1 0.6 0.00361811
0.350249 0.1 0.9375 0.0104986
0.350249 0.1 -0.9375 0.0113754
0.990306 0.1 0.15 0.00218779
0.990306 0.1 -0.15 0.00223321
0.969689 0.1 -0.2625 0.00239006
0.969689 0.1 0.2625 0.00231364
0.835106 0.1 -0.5625 0.00345963
0.835106 0.1 0.5625 0.00325376
0.93886 0.1 -0.375 0.00261509
0.93886 0.1 0.375 0.00249394
0.075776 0.1 1.0125 0.0105681
0.075776 0.1 -1.0125 0.0128193
0.990306 0.1 -0.225 0.00227642
0.990306 0.1 0.225 0.00220962
0.287374 0.1 0.975 0.0113812
0.287374 0.1 -0.975 0.0134254
0.871687 0.1 -0.525 0.00318041
0.871687 0.1 0.525 0.00297722
1.02149 0.1 -0.0369628 0.00202158
1.02149 0.1 0.0369628 0.00201264
0.969689 0.1 -0.3375 0.00245236
0.969689 0.1 0.3375 0.00235612
1.02149 0.1 -0.110888 0.00204459
1.02149 0.1 0.110888 0.00201429
0.90582 0.1 0.4875 0.00271435
0.90582 0.1 -0.4875 0.00290819
0.623803 0.1 0.819003 0.00595439
0 0.1 1.03201 0.00523169
0 0.1 -1.03201 0.00554563
0.0363518 0.1 1.03201 0.00779451
0.0363518 0.1 -1.03201 0.00904286
0.67013 0.1 -0.7875 0.0055438
0.67013 0.1 0.7875 0.00532656
0.623803 0.1 -0.825 0.00627071
0.990306 0.1 -0.3 0.00233034
0.990306 0.1 0.3 0.00224437
0.219992 0.1 -1.0125 0.0155032
0.219993 0.1 1.0125 0.0122274
0.574156 0.1 0.8625 0.00682323
0.574157 0.1 -0.8625 0.00701862
0.714971 0.1 -0.75 0.00499304
0.714971 0.1 0.75 0.00474832
1.02149 0.1 0.184814 0.00202778
1.02149 0.1 -0.184814 0.00208001
0.756814 0.1 -0.7125 0.0044625
0.756814 0.1 0.7125 0.00419988
0.522865 0.1 0.9 0.00770295
0.93886 0.1 -0.45 0.00272778
0.93886 0.1 0.45 0.00255894
1.04168 0.1 0 0.0019369
1.04168 0.1 -0.0729162 0.00195194
1.04168 0.1 0.0729162 0.00193305
0.522865 0.1 -0.903998 0.00792795
0.797314 0.1 -0.675 0.00403918
0.797314 0.1 0.675 0.0037817
0.467897 0.1 0.9375 0.00858359
0.467897 0.1 -0.9375 0.00890521
0 0.1 1.05 0.00523712
0 0.1 -1.05 0.00554057
0.835106 0.1 -0.6375 0.00363729
0.835106 0.1 0.6375 0.00338906
1.04168 0.1 -0.145832 0.00197862
1.04168 0.1 0.145832 0.00193879
1.02149 0.1 -0.25874 0.00212629
1.02149 0.1 0.25874 0.00205267
0.969689 0.1 -0.4125 0.00254073
0.969689 0.1 0.4125 0.00240928
0.411108 0.1 0.975 0.00958624
0.411108 0.1 -0.975 0.0101279
0.871687 0.1 -0.6 0.00334229
0.871687 0.1 0.6 0.00309011
1.0579 0.1 -0.0360525 0.00188383
1.0579 0.1 0.0360525 0.00187527
0.990306 0.1 -0.375 0.00240607
0.990306 0.1 0.375 0.00229113
0.150379 0.1 1.05 0.0114172
0.150379 0.1 -1.05 0.0140963
1.0579 0.1 0.108157 0.00187522
1.0579 0.1 -0.108157 0.00190425
1.04168 0.1 -0.218749 0.00201603
1.04168 0.1 0.218749 0.00195449
0.90582 0.1 -0.5625 0.00305485
0.90582 0.1 0.5625 0.00280811
0 0.1 -1.06799 0.00553376
0 0.1 1.06799 0.00524152
0.0363518 0.1 -1.06799 0.00892746
0.0363518 0.1 1.06799 0.00780285
0.350249 0.1 1.0125 0.010589
0.350249 0.1 -1.0125 0.011401
1.0579 0.1 -0.180262 0.00193312
1.0579 0.1 0.180262 0.00188344
1.02149 0.1 -0.332665 0.00218639
1.02149 0.1 0.332665 0.00209009
0.93886 0.1 -0.525 0.00286555
0.93886 0.1 0.525 0.00263713
1.08012 0.1 5.49329e-18 0.00181225
1.04168 0.1 -0.291665 0.00206476
1.04168 0.1 0.291665 0.0019807
1.08012 0.1 0.0709941 0.00180858
1.08012 0.1 -0.0709941 0.00182565
0.969689 0.1 -0.4875 0.00268454
0.96969 0.1 0.4875 0.00247736
1.0579 0.1 0.252367 0.00190043
1.0579 0.1 -0.252367 0.0019733
0.990306 0.1 -0.45 0.0025179
0.990306 0.1 0.45 0.00235096
0.287374 0.1 -1.05 0.0133764
0.287374 0.1 1.05 0.0114131
0.714971 0.1 0.821002 0.00497339
1.08012 0.1 -0.141988 0.00184881
1.08012 0.1 0.141988 0.0018126
0.075776 0.1 1.0875 0.0105848
0.075776 0.1 -1.0875 0.0125815
0.714971 0.1 -0.825 0.00527134
0.756813 0.1 -0.7875 0.0047269
0.756814 0.1 0.7875 0.00442857
0.67013 0.1 -0.8625 0.00582155
0.67013 0.1 0.8625 0.00559882
0.797314 0.1 -0.75 0.00427284
0.797314 0.1 0.75 0.00397599
0.623803 0.1 0.9 0.0063125
0.835106 0.1 -0.7125 0.00384215
0.835106 0.1 0.7125 0.00355152
0.623803 0.1 -0.903998 0.00649637
0.574156 0.1 0.9375 0.00704763
0.574156 0.1 -0.9375 0.00731053
1.02149 0.1 -0.406591 0.0022746
1.02149 0.1 0.406591 0.00213877
1.08012 0.1 -0.212982 0.00188098
1.08012 0.1 0.212982 0.00182451
1.10076 0.1 -0.0349809 0.00175383
1.10076 0.1 0.0349809 0.0017474
0.871687 0.1 -0.675 0.00353102
0.871687 0.1 0.675 0.00323004
1.04168 0.1 -0.364581 0.00213257
1.04168 0.1 0.364581 0.00201768
1.10076 0.1 -0.104943 0.00177197
1.10076 0.1 0.104943 0.00174799
0.522865 0.1 0.975 0.0078966
0.522865 0.1 -0.975 0.00812601
1.0579 0.1 -0.324472 0.00202469
1.0579 0.1 0.324472 0.00192711
0 0.1 -1.10701 0.00552268
0 0.1 1.10701 0.0052535
0.0363518 0.1 1.10701 0.00781484
0.0363518 0.1 -1.10701 0.00891638
0.90582 0.1 0.6375 0.00292117
0.905821 0.1 -0.6375 0.00322761
0.219992 0.1 1.0875 0.0122084
0.219992 0.1 -1.0875 0.0153782
0.93886 0.1 0.6 0.00274194
0.93886 0.1 -0.6 0.00301727
1.10076 0.1 -0.174905 0.00179791
1.10076 0.1 0.174905 0.00175635
0.467897 0.1 1.0125 0.00878014
0.467897 0.1 -1.0125 0.0089508
1.08012 0.1 -0.283976 0.00192341
1.08012 0.1 0.283976 0.00184475
1.11928 0.1 3.93204e-18 0.00170401
0.990306 0.1 -0.525 0.00264704
0.990306 0.1 0.525 0.00242363
0.96969 0.1 -0.5625 0.00281941
0.969689 0.1 0.5625 0.00255384
1.11928 0.1 -0.0690357 0.00171553
1.11928 0.1 0.0690357 0.00170106
0 0.1 1.125 0.00526089
0 0.1 -1.125 0.00551903
0.411108 0.1 -1.05 0.0101675
0.411108 0.1 1.05 0.00971596
1.10076 0.1 0.244866 0.0017722
1.10076 0.1 -0.244866 0.00183282
1.11928 0.1 -0.138072 0.00173623
1.11928 0.1 0.138072 0.00170483
1.02149 0.1 0.480517 0.00220203
1.02149 0.1 -0.480517 0.00238554
1.0579 0.1 -0.396577 0.00209944
1.0579 0.1 0.396577 0.00196369
1.04168 0.1 -0.437497 0.00222214
1.04168 0.1 0.437497 0.0020663
0.150379 0.1 1.125 0.0114374
0.150379 0.1 -1.125 0.0139374
0.714971 0.1 0.88201 0.00496949
1.08012 0.1 0.354971 0.001874
1.08012 0.1 -0.354971 0.00198222
1.11928 0.1 -0.207107 0.00176481
1.11928 0.1 0.207107 0.00171563
0.350249 0.1 -1.0875 0.0114263
0.350249 0.1 1.0875 0.0107112
0 0.1 1.14299 0.00526715
0 0.1 -1.14299 0.00551366
0.0363518 0.1 1.14299 0.00783684
0.0363518 0.1 -1.14299 0.0088246
1.14316 0.1 -0.0339211 0.00164119
1.14316 0.1 0.0339211 0.00163528
0.797314 0.1 0.821002 0.00419584
1.10076 0.1 -0.314829 0.00187802
1.10076 0.1 0.314829 0.00179601
0.797314 0.1 -0.825 0.00453811
0.756814 0.1 -0.8625 0.00502032
0.756814 0.1 0.8625 0.00468032
1.14316 0.1 -0.101763 0.0016565
1.14316 0.1 0.101763 0.0016351
0.835106 0.1 -0.7875 0.00407792
0.835106 0.1 0.7875 0.00374318
0.871687 0.1 -0.75 0.003748
0.871687 0.1 0.75 0.00340215
0.67013 0.1 0.9375 0.0058333
0.67013 0.1 -0.9375 0.00609622
0.90582 0.1 -0.7125 0.0034272
0.905821 0.1 0.7125 0.0030705
0.714971 0.1 -0.903998 0.00550412
1.11928 0.1 0.276143 0.00173351
1.11928 0.1 -0.276143 0.00180213
1.14316 0.1 0.169605 0.00164134
1.14316 0.1 -0.169605 0.00167903
0.93886 0.1 -0.675 0.00319245
0.93886 0.1 0.675 0.00287043
1.15704 0.1 0 0.00160457
1.0579 0.1 0.468682 0.00201162
1.0579 0.1 -0.468682 0.00218586
0.623803 0.1 0.975 0.00653788
0.623803 0.1 -0.975 0.00678414
0.990306 0.1 0.6 0.00252603
0.990306 0.1 -0.6 0.00278583
1.15704 0.1 -0.0671479 0.00161469
1.15704 0.1 0.0671479 0.00160171
1.04168 0.1 -0.510414 0.00231837
1.04168 0.1 0.510414 0.00212884
0.969689 0.1 -0.6375 0.0029723
0.969689 0.1 0.6375 0.00268967
1.08012 0.1 0.425965 0.00191276
1.08012 0.1 -0.425965 0.00205745
0.287374 0.1 -1.125 0.0133383
0.287374 0.1 1.125 0.0114718
1.02149 0.1 -0.554443 0.00249171
1.02149 0.1 0.554443 0.00228062
0.574156 0.1 1.0125 0.0072626
0.574156 0.1 -1.0125 0.00742027
1.15704 0.1 -0.134296 0.00163287
1.15704 0.1 0.134296 0.00160447
0.075776 0.1 1.1625 0.0106299
0.075776 0.1 -1.1625 0.0123924
1.10076 0.1 -0.384791 0.00194408
1.10076 0.1 0.384791 0.00182861
1.14316 0.1 -0.237448 0.00170876
1.14316 0.1 0.237448 0.00165368
1.11928 0.1 -0.345179 0.00185375
1.11928 0.1 0.345179 0.00175916
0.522865 0.1 1.05 0.00805707
0.522865 0.1 -1.05 0.00819456
1.15704 0.1 -0.201444 0.00165775
1.15704 0.1 0.201444 0.00161317
1.1744 0.1 -0.0331401 0.00156872
1.1744 0.1 0.0331401 0.00156355
1.1744 0.1 -0.0994202 0.00158282
1.1744 0.1 0.0994202 0.00156312
0 0.1 1.18201 0.00528252
0 0.1 -1.18201 0.00550567
0.0363518 0.1 1.18201 0.00785221
0.0363518 0.1 -1.18201 0.00881661
0.219992 0.1 1.1625 0.0122475
0.219993 0.1 -1.1625 0.0152853
1.14316 0.1 0.30529 0.0016724
1.14316 0.1 -0.30529 0.00174698
0.467897 0.1 1.0875 0.0088915
0.467897 0.1 -1.0875 0.00899673
1.1744 0.1 -0.1657 0.001603
1.1744 0.1 0.1657 0.00156851
1.15704 0.1 -0.268592 0.00168947
1.15704 0.1 0.268592 0.00162765
1.0579 0.1 0.540787 0.00207405
1.0579 0.1 -0.540787 0.00227288
0.796996 0.1 0.88201 0.00438628
1.08012 0.1 -0.496959 0.0021385
1.08012 0.1 0.496959 0.00196327
1.10076 0.1 0.454752 0.00186972
1.10076 0.1 -0.454752 0.00201941
1.11928 0.1 -0.414214 0.00191994
1.11928 0.1 0.414214 0.00179299
1.04168 0.1 -0.58333 0.00242919
1.04168 0.1 0.58333 0.00220742
1.1744 0.1 -0.231981 0.00162935
1.1744 0.1 0.231981 0.00157899
0.871687 0.1 0.821002 0.00359918
0.411108 0.1 1.125 0.00980317
0.411108 0.1 -1.125 0.0102067
1.19808 0.1 1.73472e-17 0.00150962
0.990306 0.1 0.675 0.00264521
0.990306 0.1 -0.675 0.00295018
1.02149 0.1 0.628368 0.00238325
1.02149 0.1 -0.628368 0.00263504
1.19808 0.1 -0.0650961 0.00151875
1.19808 0.1 0.0650961 0.00150672
0 0.1 1.2 0.00529136
0 0.1 -1.2 0.00550355
0.871687 0.1 -0.825 0.00399681
0.905821 0.1 -0.7875 0.00365501
0.90582 0.1 0.7875 0.00325563
0.835106 0.1 -0.8625 0.00434651
0.835106 0.1 0.8625 0.00396923
0.93886 0.1 -0.75 0.00339125
0.93886 0.1 0.75 0.00301602
1.14316 0.1 -0.373132 0.00180142
1.14316 0.1 0.373132 0.00169856
0.969689 0.1 0.7125 0.0028055
0.969689 0.1 -0.7125 0.00314821
1.15704 0.1 -0.33574 0.00173248
1.15704 0.1 0.33574 0.00164862
0.756813 0.1 0.9375 0.00493813
0.756814 0.1 -0.9375 0.00528397
1.19808 0.1 0.130192 0.00150868
1.19808 0.1 -0.130192 0.00153492
0.797314 0.1 -0.903998 0.00477543
0.714971 0.1 0.975 0.00549249
0.714971 0.1 -0.975 0.00581953
0.150379 0.1 1.2 0.0115034
0.150379 0.1 -1.2 0.0138182
1.20938 0.1 -0.0322656 0.00148964
1.20938 0.1 0.0322656 0.00148469
1.1744 0.1 -0.298261 0.00166172
1.1744 0.1 0.298261 0.00159483
1.20938 0.1 -0.0967968 0.0015024
1.20938 0.1 0.0967968 0.00148392
1.19808 0.1 -0.195288 0.00155651
1.19808 0.1 0.195288 0.00151564
0.350249 0.1 1.1625 0.0108054
0.350249 0.1 -1.1625 0.0114528
0.67013 0.1 1.0125 0.00606945
0.67013 0.1 -1.0125 0.00637222
0 0.1 1.21799 0.00529894
0 0.1 -1.21799 0.00549972
0.0363518 0.1 -1.21799 0.00874645
0.0363518 0.1 1.21799 0.00788598
1.11928 0.1 -0.48325 0.00199514
1.11928 0.1 0.48325 0.00183681
1.10076 0.1 -0.524714 0.00209962
1.10076 0.1 0.524714 0.00192356
1.20938 0.1 0.161328 0.00148835
1.20938 0.1 -0.161328 0.001521
1.08012 0.1 0.567953 0.00202567
1.08012 0.1 -0.567953 0.00223193
0.623803 0.1 1.05 0.0067386
0.623803 0.1 -1.05 0.00691507
1.0579 0.1 -0.612892 0.00238934
1.0579 0.1 0.612892 0.0021489
1.15704 0.1 -0.402888 0.00178858
1.15704 0.1 0.402888 0.00167648
1.14316 0.1 0.440974 0.00173211
1.14316 0.1 -0.440974 0.00186648
1.19808 0.1 -0.260384 0.001583
1.19808 0.1 0.260384 0.00152725
1.2267 0.1 3.57064e-18 0.00145186
1.2267 0.1 -0.0636649 0.0014606
1.2267 0.1 0.0636649 0.00144863
1.1744 0.1 -0.364541 0.00170789
1.1744 0.1 0.364541 0.00161715
0.574156 0.1 1.0875 0.00738379
0.574156 0.1 -1.0875 0.00747597
1.20938 0.1 0.225859 0.00149715
1.20938 0.1 -0.225859 0.00154407
1.04168 0.1 -0.656246 0.00257199
1.04168 0.1 0.656246 0.00230156
1.2267 0.1 -0.12733 0.00147581
1.2267 0.1 0.12733 0.00144985
0.287374 0.1 1.2 0.0115408
0.287374 0.1 -1.2 0.0133165
1.02149 0.1 -0.702294 0.00280832
1.02149 0.1 0.702294 0.00248813
0.075776 0.1 -1.2375 0.0122477
0.075776 0.1 1.2375 0.0106992
0.871399 0.1 0.88201 0.00377169
0.522865 0.1 1.125 0.00813375
0.522865 0.1 -1.125 0.00824937
1.2267 0.1 -0.190994 0.00149558
1.2267 0.1 0.190994 0.00145565
1.19808 0.1 -0.32548 0.00161781
1.19808 0.1 0.32548 0.00154416
0.990306 0.1 -0.75 0.00313833
0.990306 0.1 0.75 0.00276821
1.24274 0.1 -0.0314313 0.0014215
1.24274 0.1 0.0314313 0.0014162
1.20938 0.1 -0.29039 0.00157153
1.20938 0.1 0.29039 0.00151043
1.24274 0.1 -0.0942942 0.00143325
1.24274 0.1 0.0942942 0.0014146
0.93886 0.1 0.821002 0.00318452
1.11928 0.1 -0.552285 0.00207745
1.11928 0.1 0.552285 0.00189107
1.15704 0.1 -0.470036 0.00185648
1.15704 0.1 0.470036 0.00171237
0.969689 0.1 -0.7875 0.00334071
0.96969 0.1 0.7875 0.00293853
0.93886 0.1 -0.825 0.00361412
0.90582 0.1 0.8625 0.00346224
0.905821 0.1 -0.8625 0.00391842
1.1744 0.1 -0.430821 0.00176454
1.1744 0.1 0.430821 0.00164548
1.10076 0.1 -0.594676 0.00219672
1.10076 0.1 0.594676 0.00198591
1.14316 0.1 -0.508816 0.00194247
1.14316 0.1 0.508816 0.0017762
1.24274 0.1 -0.157157 0.00145084
1.24274 0.1 0.157157 0.00141775
1.2267 0.1 -0.254659 0.00151914
1.2267 0.1 0.254659 0.00146567
0.467897 0.1 1.1625 0.00891481
0.467897 0.1 -1.1625 0.00904061
1.08012 0.1 0.638947 0.00210299
1.08012 0.1 -0.638947 0.00235137
1.25511 0.1 -5.78241e-19 0.00139486
0.835106 0.1 -0.9375 0.00462762
0.835106 0.1 0.9375 0.00422443
0.871687 0.1 -0.903998 0.00423116
1.25511 0.1 0.0622446 0.00139073
1.25511 0.1 -0.0622446 0.0014038
0.219992 0.1 1.2375 0.0123572
0.219992 0.1 -1.2375 0.0152276
0 0.1 -1.25701 0.00549486
0 0.1 1.25701 0.00531715
0.0363518 0.1 -1.25701 0.00874158
0.0363518 0.1 1.25701 0.00790418
0.797314 0.1 0.975 0.00469438
0.797314 0.1 -0.975 0.00508701
1.19808 0.1 -0.390576 0.00166401
1.19808 0.1 0.390576 0.00156676
1.0579 0.1 -0.684997 0.00253175
1.0579 0.1 0.684997 0.00224158
1.20938 0.1 -0.354921 0.00160999
1.20938 0.1 0.354921 0.00152926
1.25511 0.1 0.124489 0.00139073
1.25511 0.1 -0.124489 0.00141866
1.24274 0.1 -0.220019 0.00147075
1.24274 0.1 0.220019 0.00142485
0.756813 0.1 1.0125 0.00516645
0.756814 0.1 -1.0125 0.00557007
1.2267 0.1 -0.318324 0.00154946
1.2267 0.1 0.318324 0.00148038
0.411108 0.1 1.2 0.00984825
0.411108 0.1 -1.2 0.0102427
1.25511 0.1 -0.186734 0.0014371
1.25511 0.1 0.186734 0.00139509
0.714971 0.1 1.05 0.00572497
0.714971 0.1 -1.05 0.00601096
1.04168 0.1 -0.729162 0.00273996
1.04168 0.1 0.729162 0.0024033
1.24274 0.1 0.282882 0.00143605
1.24274 0.1 -0.282882 0.00149465
0 0.1 1.275 0.00532751
0 0.1 -1.275 0.00549423
1.1744 0.1 0.497102 0.00168179
1.1744 0.1 -0.497102 0.00183541
1.15704 0.1 -0.537184 0.00192834
1.15704 0.1 0.537184 0.00175779
1.2756 0.1 -0.03061 0.00135703
1.2756 0.1 0.03061 0.00135031
0.67013 0.1 1.0875 0.00630406
0.67013 0.1 -1.0875 0.00644266
1.2756 0.1 -0.09183 0.00136888
1.2756 0.1 0.09183 0.001347
1.25511 0.1 -0.248978 0.00145831
1.25511 0.1 0.248978 0.00140347
1.20938 0.1 0.419453 0.00155345
1.20938 0.1 -0.419453 0.00165948
1.11928 0.1 -0.621322 0.00218036
1.11928 0.1 0.621322 0.00195727
1.14316 0.1 -0.576659 0.00201837
1.14316 0.1 0.576659 0.0018291
1.19808 0.1 -0.455673 0.00172202
1.19808 0.1 0.455673 0.00159529
1.02149 0.1 0.776219 0.00261535
1.02149 0.1 -0.776219 0.00301018
0.150379 0.1 1.275 0.0116155
0.150379 0.1 -1.275 0.0137326
1.2756 0.1 -0.15305 0.00138632
1.2756 0.1 0.15305 0.00134824
1.2267 0.1 -0.381989 0.00159026