# nutMean  POINT_DATA 91129
# x  y  z  nutMean
0 0 0 4.94898e-06
0 0.00368111 0 1.71767e-05
0 0.00749587 0 6.28559e-05
0 0.0114491 0 0.000233514
0 0.0155459 0 0.000614122
0 0.0197915 0 0.00144267
0 0.0241911 0 0.00236694
0 0.0287506 0 0.00299439
0 0.0334755 0 0.00347965
0 0.038372 0 0.0038166
0 0.0434463 0 0.00405483
0 0.0487048 0 0.00423464
0 0.0541543 0 0.00438275
0 0.0598016 0 0.00451506
0 0.0656539 0 0.00464151
0 0.0717187 0 0.00476978
0.075776 0.00184055 0 8.13522e-06
0.075776 0.00558849 0 1.23389e-05
0.075776 0.00947248 -3.46945e-18 5.77728e-05
0.075776 0.0134975 -3.46945e-18 0.000263843
0.075776 0.0176687 3.46945e-18 0.000738023
0 0.0780037 0 0.00490396
0.075776 0.0219913 3.46945e-18 0.0014853
0.075776 0.0264709 3.46945e-18 0.00252298
0.075776 0.031113 -3.46945e-18 0.00383733
0.075776 0.0359237 -3.46945e-18 0.00539045
0 0.0845169 0 0.0050433
0.075776 0.0409092 0 0.00713368
0.075776 0.0460755 -3.46945e-18 0.00901215
0 0.0912666 0 0.00518619
0.075776 0.0514296 -3.46945e-18 0.0109696
0.075776 0.0569779 0 0.0129508
0 0.0982613 0 0.00533245
0.075776 0.0627278 0 0.0149008
0.075776 0.0686863 0 0.0165132
0 0.10551 0 0.0054818
0.075776 0.0748612 3.46945e-18 0.0173293
0.075776 0.0812603 -3.46945e-18 0.0179633
0 0.113022 0 0.00563329
0.075776 0.0878918 3.46945e-18 0.0186532
0 0.120806 0 0.00578594
0.075776 0.0947639 3.46945e-18 0.0194071
0.075776 0.101886 -3.46945e-18 0.0202338
0 0.128874 0 0.005939
0.075776 0.109266 3.46945e-18 0.0211518
0 0.137234 0 0.00609935
0.075776 0.116914 3.46945e-18 0.0221893
0 0.145897 0 0.00628413
0.075776 0.12484 0 0.0233749
0.151552 0 0 0
0.151552 0.00368111 0 6.76812e-06
0.151552 0.00749587 0 2.34879e-05
0.151552 0.0114491 0 0.00010044
0.151552 0.0155459 0 0.000307425
0.151552 0.0197915 0 0.000691787
0.075776 0.133054 0 0.0247437
0.151552 0.0241911 0 0.00127383
0.151552 0.0287506 0 0.00206087
0 0.154876 0 0.00650165
0.151552 0.0334755 0 0.00304314
0.151552 0.038372 0 0.0042009
0.151552 0.0434463 0 0.00550871
0.151552 0.0487048 0 0.00693783
0.075776 0.141566 0 0.0263183
0.151552 0.0541543 0 0.00845784
0.151552 0.0598016 0 0.0100376
0 0.16418 0 0.00674263
0.151552 0.0656539 0 0.0115849
0.151552 0.0717187 0 0.0129101
0.075776 0.150387 0 0.0276648
0.151552 0.0780037 0 0.0140434
0.151552 0.0845169 0 0.0151809
0 0.173822 0 0.0069982
0.075776 0.159528 0 0.0284021
0.151552 0.0912666 0 0.0163717
0.151552 0.0982613 0 0.0176075
0 0.183814 0 0.00726683
0.151552 0.10551 0 0.0188814
0.075776 0.169001 3.46945e-18 0.0284926
0.151552 0.113022 0 0.0201925
0.151552 0.120806 0 0.0215427
0 0.194169 0 0.00754741
0.075776 0.178818 3.46945e-18 0.0278179
0.151552 0.128874 0 0.0229364
0.075776 0.188992 3.46945e-18 0.0266085
0.151552 0.137234 0 0.0243787
0 0.2049 0 0.00783775
0.151552 0.145897 0 0.0257398
0.075776 0.199535 0 0.0251978
0 0.21602 0 0.0081497
0.151552 0.154876 0 0.026783
0.219992 0.00184055 0 2.12793e-06
0.219992 0.00558849 0 5.00417e-06
0.219992 0.00947248 -3.46945e-18 2.06158e-05
0.219992 0.0134975 3.46945e-18 6.88183e-05
0.219992 0.0176687 0 0.000188786
0.219992 0.0219913 0 0.000419632
0.219993 0.0264709 -3.46945e-18 0.00077974
0.219992 0.031113 -3.46945e-18 0.0012756
0.219992 0.0359238 3.46945e-18 0.00191078
0.151552 0.16418 0 0.0274247
0.075776 0.21046 0 0.0237578
0.219992 0.0409092 3.46945e-18 0.00268568
0.219992 0.0460755 0 0.00359767
0.219993 0.0514296 -3.46945e-18 0.00464137
0.219992 0.0569779 0 0.00580817
0 0.227544 0 0.00852029
0.219992 0.0627277 3.46945e-18 0.00708835
0.219992 0.0686863 0 0.00847094
0.151552 0.173822 0 0.0276675
0.219992 0.0748612 3.46945e-18 0.00994343
0.075776 0.221782 0 0.0225425
0.219992 0.0812603 3.46945e-18 0.0114911
0.219992 0.0878917 -3.46945e-18 0.0130965
0.151552 0.183814 0 0.0275409
7.47806e-17 0.239487 0 0.00896209
0.219992 0.0947639 3.46945e-18 0.0147384
0.219993 0.101886 3.46945e-18 0.0163909
0.075776 0.233516 0 0.0217964
0.219993 0.109266 0 0.0180274
0.151552 0.194169 0 0.0271626
0.219993 0.116914 0 0.0196284
0 0.251863 0 0.00945049
0.219993 0.12484 0 0.0211686
0.151552 0.2049 0 0.0266161
0.075776 0.245675 0 0.0213608
0.219992 0.133054 3.46945e-18 0.0226308
0.219992 0.141565 0 0.023999
0.151552 0.21602 0 0.0259998
0 0.264688 0 0.0099721
0.219992 0.150387 3.46945e-18 0.0251694
0.075776 0.258275 3.46945e-18 0.0210874
0.219992 0.159528 -3.46945e-18 0.0260877
0.151552 0.227544 0 0.0254691
0.219992 0.169001 3.46945e-18 0.0268731
0 0.27798 0 0.0105271
0.075776 0.271334 3.46945e-18 0.0209557
0.151552 0.239487 3.70071e-18 0.0250578
0.219992 0.178818 3.46945e-18 0.0275613
0.288433 0 0 0
0.288433 0.00368111 0 2.84953e-06
0.288433 0.00749587 0 1.1168e-05
0.288433 0.0114491 0 3.65232e-05
0.288433 0.0155459 3.70071e-18 9.87945e-05
0.288433 0.0197915 0 0.0002308
0.288433 0.0241911 3.70071e-18 0.000457833
0.288433 0.0287506 0 0.000792684
0.219992 0.188991 0 0.0281257
0.288433 0.0334755 0 0.00124392
0.288433 0.038372 0 0.00181463
0.288433 0.0434463 0 0.0025055
7.47806e-17 0.291753 0 0.0111165
0.288433 0.0487048 0 0.00331497
0.288433 0.0541543 0 0.00423926
0.151552 0.251863 0 0.0246959
0.288433 0.0598016 3.70071e-18 0.00527266
0.075776 0.284866 0 0.0209536
0.288433 0.0656539 3.70071e-18 0.00640761
0.219992 0.199534 0 0.0285253
0.288433 0.0717187 0 0.00763443
0.288433 0.0780037 0 0.0089409
0.288433 0.0845169 0 0.0103113
0.288433 0.0912666 0 0.0117246
0.219992 0.21046 -3.46945e-18 0.0286555
0.288433 0.0982613 0 0.0129054
0.151552 0.264688 3.70071e-18 0.0243487
0 0.306027 0 0.0117503
0.288433 0.10551 0 0.0138151
0.075776 0.29889 3.46945e-18 0.0210709
0.288433 0.113022 0 0.0147405
0.219993 0.221782 0 0.0286066
0.288433 0.120806 0 0.0156668
0.288433 0.128874 0 0.0164956
0.151552 0.27798 0 0.0240814
0.288433 0.137234 0 0.0172252
0 0.320819 0 0.012493
0.219992 0.233515 -3.46945e-18 0.0284253
0.075776 0.313423 -3.46945e-18 0.0213424
0.288433 0.145897 0 0.0178788
0.288433 0.154876 0 0.0184429
0.151552 0.291753 0 0.0239058
0.219993 0.245675 0 0.0281158
0.288433 0.16418 0 0.0189249
0 0.336148 0 0.0135074
0.288433 0.173822 0 0.0193554
0.075776 0.328484 -3.46945e-18 0.0220523
0.219993 0.258275 -3.46945e-18 0.0276881
0.151552 0.306027 0 0.023739
0.288433 0.183814 0 0.0197326
0.288433 0.194169 0 0.0200383
0.219992 0.271334 3.46945e-18 0.0271548
0.350249 0.00184056 -3.46945e-18 8.58785e-07
0.350249 0.00558849 0 3.51263e-06
0.350249 0.00947248 3.46945e-18 1.5781e-05
0.350249 0.0134975 0 4.2083e-05
0.350249 0.0176687 0 9.99037e-05
0.350249 0.0219913 0 0.000225673
0.350249 0.0264708 3.46945e-18 0.000427143
0.350249 0.031113 0 0.000722796
0 0.352034 0 0.0144768
0.350249 0.0359238 0 0.00111783
0.075776 0.344091 0 0.0237475
0.350249 0.0409091 0 0.00161532
0.350249 0.0460756 3.46945e-18 0.00221684
0.288433 0.2049 0 0.0202362
0.350249 0.0514296 0 0.00292225
0.151552 0.320819 0 0.0236365
0.350249 0.0569779 0 0.00373006
0.350249 0.0627277 3.46945e-18 0.00463679
0.350249 0.0686863 3.46945e-18 0.00563594
0.350249 0.0748612 3.46945e-18 0.00671846
0.350249 0.0812603 0 0.00787152
0.219992 0.284867 0 0.0267834
0.288433 0.21602 0 0.0203219
0.350249 0.0878917 0 0.00907733
0.350249 0.094764 0 0.0103081
0.350249 0.101886 0 0.0105745
0.350249 0.109266 0 0.0107659
0.288433 0.227544 0 0.020327
0.075776 0.360265 3.46945e-18 0.0242075
0 0.368496 0 0.0148839
0.151552 0.336148 0 0.0238304
0.350249 0.116914 3.46945e-18 0.0111401
0.219992 0.29889 0 0.0263731
0.370854 0.0241911 1.54074e-33 0.000333626
0.350249 0.12484 0 0.0114243
0.350249 0.133054 0 0.0115513
0.288433 0.239487 -9.25154e-19 0.0202619
0.350249 0.141566 3.46945e-18 0.0116126
0.350249 0.150387 3.46945e-18 0.0117175
0.288433 0.251863 0 0.020128
0.219992 0.313423 0 0.0257829
0.151552 0.352034 0 0.0239388
0.075776 0.377027 0 0.0234339
0.350249 0.159528 0 0.0118503
0 0.385557 0 0.0146391
0.350249 0.169001 0 0.0119956
0.288433 0.264688 0 0.019928
0.350249 0.178818 0 0.0121432
0.219992 0.328484 0 0.0250724
0.350249 0.188992 0 0.012288
0.151552 0.368496 0 0.0234204
0.288433 0.27798 3.70071e-18 0.0197265
0.075776 0.394397 0 0.021644
0.350249 0.199535 0 0.0124273
7.47806e-17 0.403236 0 0.0142754
0.219992 0.344091 0 0.0243075
0.350249 0.21046 -3.46945e-18 0.0125592
0.288433 0.291753 0 0.0195391
0.412065 9.08189e-19 3.08149e-33 2.38039e-22
0.412065 0.00368111 -2.31298e-18 2.12501e-06
0.412065 0.00749587 -2.31298e-18 9.83201e-06
0.412065 0.0114491 -2.31298e-18 2.78235e-05
0.412065 0.0155459 -2.31298e-18 6.33631e-05
0.412065 0.0197915 0 0.000137277
0.412065 0.0241911 -3.08149e-33 0.000271523
0.412065 0.0264709 0 0.000375452
0.412065 0.0287506 -2.31298e-18 0.00047938
0.412065 0.0334755 -2.31298e-18 0.000770994
0.412065 0.038372 -2.31298e-18 0.0011529
0.151552 0.385557 0 0.0223189
0.412065 0.0434463 0 0.00162768
0.350249 0.221782 0 0.0126818
0.412065 0.0487048 0 0.00219635
0.412065 0.0541543 -3.08149e-33 0.00285836
0.412065 0.0569779 0 0.0032349
0.412065 0.0598016 -2.31298e-18 0.00361143
0.412065 0.0656539 -2.31298e-18 0.00445093
0.412065 0.0717187 -2.31298e-18 0.00536925
0.075776 0.412396 -3.46945e-18 0.0209671
0.412065 0.0780037 -2.31298e-18 0.00635516
0.288433 0.306027 0 0.019285
0.412065 0.0845169 -2.31298e-18 0.00739251
0.350249 0.233516 3.46945e-18 0.0127917
0 0.421557 0 0.0142382
0.412065 0.0912666 -2.31298e-18 0.00827099
0.219992 0.360265 3.46945e-18 0.0234983
0.412065 0.0982613 0 0.00870113
0.412065 0.10551 0 0.00884829
0.412065 0.113022 -2.31298e-18 0.00902559
0.350249 0.245675 0 0.0128853
0.412065 0.120806 0 0.00922456
0.151552 0.403236 0 0.0212229
0.288433 0.320819 0 0.0189456
0.412065 0.128874 -2.31298e-18 0.00936132
0.412065 0.137234 0 0.00944321
0.350249 0.258275 -3.46945e-18 0.0129585
0.219992 0.377026 0 0.0226026
0.412065 0.145897 -2.31298e-18 0.00952069
0.075776 0.431051 0 0.0208737
0.412065 0.154876 -2.31298e-18 0.00961584
0 0.440544 0 0.0143395
0.288433 0.336148 0 0.0185528
0.350249 0.271334 0 0.0130049
0.412065 0.16418 -2.31298e-18 0.00972029
0.412065 0.173822 -2.31298e-18 0.00982776
0.151552 0.421557 0 0.0205653
0.412065 0.183814 -2.31298e-18 0.00993444
0.350249 0.284867 3.46945e-18 0.0130201
0.219992 0.394397 0 0.021628
0.288433 0.352034 3.70071e-18 0.018126
0.412065 0.194169 0 0.0100383
0.075776 0.450382 0 0.0208996
0.412065 0.2049 -2.31298e-18 0.0101382
0 0.46022 0 0.0144523
0.350249 0.29889 3.46945e-18 0.0130068
0.412065 0.21602 0 0.0102331
0.151552 0.440544 0 0.0201386
0.219993 0.412396 3.46945e-18 0.0206646
0.467897 0.00184056 -3.46945e-18 6.18017e-07
0.467897 0.00558849 0 3.51916e-06
0.288433 0.368496 0 0.0176565
0.467897 0.00947248 0 1.64898e-05
0.467897 0.0134975 0 3.70955e-05
0.467897 0.0176687 3.46945e-18 7.54354e-05
0.467897 0.0219913 -3.46945e-18 0.000151657
0.467897 0.0264709 3.46945e-18 0.000289277
0.467897 0.0311131 3.46945e-18 0.000491639
0.467897 0.0359238 -3.46945e-18 0.000772538
0.467897 0.038372 0 0.000993953
0.467897 0.0409092 3.46945e-18 0.00113571
0.350249 0.313423 0 0.0129673
0.467897 0.0460755 0 0.00158308
0.467897 0.0514296 3.46945e-18 0.00211526
0.412065 0.227544 -2.31298e-18 0.0103213
0.467897 0.0569779 0 0.00273109
0.467897 0.0627277 -3.46945e-18 0.00342752
0.467897 0.0686863 3.46945e-18 0.00419901
0.467897 0.0748612 0 0.00503619
0.467897 0.0812603 0 0.00592542
0.467897 0.0878918 3.46945e-18 0.00684649
0.075776 0.470415 3.46945e-18 0.0209374
0.412065 0.239487 -2.31298e-18 0.0104011
0.467897 0.0947639 -3.46945e-18 0.00705005
0.467897 0.101886 3.46945e-18 0.00711417
0.350249 0.328483 0 0.0129041
0.467897 0.109266 0 0.00719221
0 0.48061 0 0.0145678
0.288433 0.385557 0 0.017133
0.467897 0.116914 0 0.00727236
0.412065 0.251863 -2.31298e-18 0.0104703
0.219992 0.431051 0 0.0198094
0.467897 0.12484 0 0.00734777
0.151552 0.46022 0 0.0198088
0.467897 0.133054 3.46945e-18 0.00741768
0.467897 0.141566 3.46945e-18 0.00748868
0.412065 0.264688 -2.31298e-18 0.0105264
0.350249 0.344091 -3.46945e-18 0.0128205
0.467897 0.150387 3.46945e-18 0.0075621
0.467897 0.154876 0 0.00809712
0.467897 0.159528 3.46945e-18 0.00763476
0.288433 0.403236 0 0.016578
0.075776 0.491175 0 0.0210326
0.412065 0.27798 -2.31298e-18 0.0105669
0.467897 0.169001 0 0.00770648
0.467897 0.178818 3.46945e-18 0.00777706
0.219992 0.450382 0 0.0190849
6.73026e-17 0.501741 3.70071e-18 0.0146648
0.350249 0.360265 0 0.0127178
0.151552 0.48061 0 0.0195474
0.467897 0.188991 0 0.00784618
0.412065 0.291753 0 0.0105915
0.467897 0.199535 0 0.00791373
0.288433 0.421557 0 0.0160411
0.467897 0.21046 0 0.00797946
0.412065 0.306027 0 0.0106004
0.350249 0.377027 0 0.012591
0.467897 0.221782 3.46945e-18 0.00804297
0.075776 0.51269 0 0.0210407
0.219993 0.470415 3.46945e-18 0.0184813
0.467897 0.227544 0 0.0086481
0.412065 0.320819 -2.31298e-18 0.0105939
0.467897 0.233515 0 0.00810377
6.73026e-17 0.523639 3.70071e-18 0.014706
0.523729 0 0 0
0.523729 0.00368111 0 2.04321e-06
0.523729 0.00749587 -2.31298e-18 1.05871e-05
0.523729 0.0114491 0 2.78376e-05
0.523729 0.0155459 0 5.4822e-05
0.523729 0.0197915 -2.31298e-18 0.000102845
0.151552 0.501741 0 0.0193124
0.523729 0.0241911 0 0.000194193
0.523729 0.0287506 0 0.000341501
0.523729 0.0334755 0 0.000551518
0.523729 0.038372 -3.08149e-33 0.000835004
0.523729 0.0434463 0 0.00119517
0.523729 0.0487048 0 0.00163327
0.523729 0.0541543 0 0.00214895
0.288433 0.440544 0 0.0155592
0.523729 0.0598016 0 0.00273992
0.350249 0.394397 -3.46945e-18 0.0124336
0.523729 0.0656539 0 0.00340154
0.467897 0.245675 0 0.0081614
0.523729 0.0717187 0 0.00412615
0.523729 0.0780037 0 0.00490192
0.523729 0.0845169 0 0.00561783
0.523729 0.0912666 0 0.00600457
0.412065 0.336148 0 0.0105726
0.523729 0.0982613 0 0.00610955
0.523729 0.10551 -2.31298e-18 0.00618259
0.467897 0.258275 -3.46945e-18 0.00821558
0.523729 0.113022 0 0.0062568
0.523729 0.120806 -3.08149e-33 0.00632709
0.219993 0.491176 0 0.0179561
0.523729 0.12484 0 0.00635976
0.523729 0.128874 -2.31298e-18 0.00639244
0.075776 0.534986 0 0.0209762
0.467897 0.271334 3.46945e-18 0.00826639
0.350249 0.412396 -3.46945e-18 0.0122484
0.523729 0.137234 0 0.00645493
0.412065 0.352034 -2.31298e-18 0.0105371
0.288433 0.46022 0 0.0151434
0.523729 0.145897 0 0.00651695
0.151552 0.523639 0 0.0190634
0.523729 0.154876 -3.08149e-33 0.00657841
0 0.546332 0 0.0147
0.523729 0.159528 0 0.00660854
0.467897 0.284867 -3.46945e-18 0.0083146
0.523729 0.16418 -2.31298e-18 0.00663867
0.523729 0.173822 0 0.00669779
0.412065 0.368496 0 0.010486
0.523729 0.183814 0 0.00675572
0.467897 0.29889 0 0.00835925
0.350249 0.431051 -3.46945e-18 0.0120499
0.219992 0.51269 0 0.0174812
0.523729 0.194169 0 0.00681246
0.288433 0.48061 0 0.0147862
0.523729 0.2049 0 0.00686799
0.467897 0.313423 3.46945e-18 0.00839809
0.075776 0.558091 0 0.0208617
0.412065 0.385557 0 0.0104163
0.523729 0.21602 -3.08149e-33 0.00692218
0.151552 0.546332 0 0.0188068
0 0.569849 0 0.014659
0.350249 0.450382 3.46945e-18 0.0118553
0.523729 0.227544 -3.08149e-33 0.00697486
0.467897 0.328483 0 0.00842947
0.523729 0.231525 1.54074e-33 0.00699185
0.574156 0.00184056 0 4.91501e-07
0.574156 0.00558849 0 3.54757e-06
0.574157 0.00947248 0 1.87158e-05
0.574156 0.0134975 -3.46945e-18 3.89128e-05
0.574156 0.0176687 -3.46945e-18 6.80348e-05
0.574156 0.0219913 0 0.000117659
0.574156 0.0264708 -3.46945e-18 0.000221629
0.574156 0.031113 0 0.000369885
0.574156 0.0359238 -3.46945e-18 0.000582585
0.574157 0.0409092 0 0.000864814
0.523729 0.239487 3.70071e-18 0.00702583
0.574156 0.0460755 -3.46945e-18 0.00121863
0.574156 0.0514295 0 0.00164444
0.412065 0.403236 0 0.0103269
0.574157 0.0569779 0 0.00214099
0.574156 0.0627277 0 0.00270459
0.574156 0.0686863 0 0.00332904
0.219992 0.534986 0 0.0170492
0.288433 0.501741 0 0.0144715
0.574156 0.0748612 3.46945e-18 0.0040048
0.574156 0.0812603 0 0.00471715
0.467897 0.344091 0 0.0084521
0.574156 0.0878917 3.46945e-18 0.0050829
0.523729 0.251863 0 0.00707496
0.574157 0.0947639 0 0.00516237
0.574156 0.101886 0 0.00523889
0.574156 0.109266 0 0.00531212
0.574156 0.116914 0 0.00537815
0.412065 0.416977 -6.16298e-33 0.0102483
0.350249 0.470415 0 0.0116782
0.523729 0.264688 0 0.00712224
0.075776 0.582034 0 0.0207135
0.574156 0.12484 0 0.00543865
0.574156 0.133054 3.46945e-18 0.00549516
0.412065 0.421557 -2.31298e-18 0.0102221
0.151552 0.569849 0 0.018552
0.467897 0.360265 -3.46945e-18 0.00846521
0.574157 0.141566 -3.46945e-18 0.00554869
0.523729 0.27798 0 0.00716789
0.574156 0.150386 3.46945e-18 0.00560012
0 0.594219 0 0.0145912
0.574156 0.159528 -3.46945e-18 0.00564991
0.574156 0.16418 0 0.00585668
0.288433 0.523639 1.2326e-32 0.0141893
0.574157 0.169001 0 0.00569832
0.523729 0.291753 0 0.00721172
0.219993 0.558091 3.46945e-18 0.0166588
0.467897 0.377026 0 0.00846823
0.574156 0.178818 3.46945e-18 0.00574558
0.412065 0.440544 -2.31298e-18 0.0101107
0.350249 0.491175 0 0.0115246
0.574156 0.188992 3.46945e-18 0.00579186
0.523729 0.306027 -3.08149e-33 0.00725268
0.574157 0.199535 0 0.00583732
0.574157 0.21046 0 0.00588206
0.075776 0.606847 0 0.0205427
0.467897 0.394397 0 0.00846053
0.151552 0.594219 0 0.0183052
0.523729 0.320819 0 0.00728941
0.574157 0.221782 -3.46945e-18 0.00592614
0.412065 0.46022 3.08149e-33 0.0100023
0.288433 0.546332 0 0.0139359
0 0.619475 0 0.0145032
0.574156 0.233515 3.46945e-18 0.00596963
0.350249 0.51269 3.46945e-18 0.0113923
0.219992 0.582034 3.46945e-18 0.016311
0.523729 0.336148 0 0.00732077
0.467897 0.412396 0 0.00844175
0.574156 0.245675 0 0.0060126
0.624584 0 0 0
0.624584 0.00368111 0 2.01754e-06
0.624584 0.00749587 0 1.18378e-05
0.624584 0.0114491 0 3.05807e-05
0.624584 0.0155459 0 5.44352e-05
0.624584 0.0197915 0 8.9248e-05
0.624584 0.0241911 -2.31298e-18 0.000154033
0.624584 0.0287506 0 0.000265204
0.624584 0.0334755 0 0.000427607
0.624584 0.038372 0 0.000649015
0.624584 0.0434463 -2.31298e-18 0.000936262
0.624584 0.0487048 0 0.00129082
0.624584 0.0541543 0 0.00171219
0.624584 0.0598016 0 0.00219785
0.624584 0.0656539 0 0.00274268
0.624584 0.0717187 0 0.00333858
0.624584 0.0780037 0 0.00396596
0.574157 0.258276 3.46945e-18 0.00605514
0.624584 0.0845169 0 0.00439776
0.523729 0.352034 0 0.00734591
0.624584 0.0912666 0 0.00455078
0.624584 0.0982613 0 0.00462775
0.412065 0.48061 3.08149e-33 0.00990418
0.624584 0.10551 0 0.00470049
0.624584 0.113022 -2.31298e-18 0.00476667
0.574156 0.271334 0 0.00609732
0.624584 0.120806 0 0.00482672
0.467897 0.431051 0 0.00841282
0.075776 0.632561 -3.46945e-18 0.0203572
0.624584 0.128874 0 0.00488212
0.151552 0.619475 0 0.0180693
0.288433 0.569849 0 0.0137102
0.350249 0.534985 0 0.0112775
0.624584 0.137234 -2.31298e-18 0.00493393
0.523729 0.368496 0 0.00736426
0.574156 0.284866 -3.46945e-18 0.00613909
0.624584 0.145897 0 0.00498294
0.467897 0.440544 0 0.00873757
0.624584 0.154876 0 0.00502972
0.219992 0.606847 -3.46945e-18 0.0160033
0 0.645647 0 0.0143998
0.624584 0.16418 -3.08149e-33 0.00507469
0.574156 0.29889 -3.46945e-18 0.00618003
0.624584 0.173822 0 0.00511818
0.412065 0.501741 1.54074e-33 0.0098193
0.467897 0.450382 -3.46945e-18 0.00837715
0.523729 0.385557 0 0.00737537
0.624584 0.183814 0 0.00516045
0.624584 0.194169 0 0.00520171
0.574156 0.313423 0 0.00621941
0.624584 0.2049 0 0.00524215
0.350249 0.558091 3.46945e-18 0.0111778
0.288433 0.594219 0 0.0135112
0.624584 0.21602 0 0.0052819
0.523729 0.403236 0 0.00737887
0.574156 0.328483 -3.46945e-18 0.00625637
0.151552 0.645647 0 0.0178455
0.467897 0.470415 3.46945e-18 0.00833987
0.075776 0.659208 0 0.0201623
0.624584 0.227544 0 0.00532109
0.412065 0.523639 0 0.00974734
0.523729 0.41545 3.08149e-33 0.00737617
0.624584 0.239487 3.70071e-18 0.00535984
0.574156 0.344091 0 0.00629013
0.219992 0.632561 0 0.0157318
0.67013 0.00184055 0 4.04716e-07
0.67013 0.00558849 0 3.62671e-06
0.67013 0.00947248 0 2.13753e-05
0.67013 0.0134975 0 4.31038e-05
0.67013 0.0176687 -3.46945e-18 6.75731e-05
0.67013 0.0219913 0 0.000104167
0.67013 0.0264708 3.46945e-18 0.000174588
0.67013 0.0311131 0 0.000298456
0.67013 0.0359237 0 0.000465453
0.67013 0.0409092 -3.46945e-18 0.000692348
0.67013 0.0460755 0 0.000982156
0.67013 0.0514296 3.46945e-18 0.00133526
0.523729 0.421557 -2.31298e-18 0.00737482
0.67013 0.056978 0 0.00175015
0 0.67277 0 0.0142852
0.67013 0.0627277 0 0.00222318
0.624584 0.251863 0 0.00539824
0.67013 0.0686863 0 0.00274742
0.67013 0.0748612 3.46945e-18 0.00331322
0.67013 0.0812603 0 0.00387694
0.67013 0.0878917 0 0.00397537
0.67013 0.0947639 3.46945e-18 0.00405224
0.574156 0.360265 0 0.0063201
0.67013 0.101886 0 0.00412739
0.523729 0.431051 0 0.00736961
0.624584 0.264688 0 0.00543638
0.467897 0.491175 0 0.00830583
0.67013 0.109266 3.46945e-18 0.00419367
0.350249 0.582034 0 0.0110914
0.67013 0.116914 0 0.00425325
0.67013 0.12484 0 0.00430774
0.67013 0.133054 0 0.0043582
0.288433 0.619475 0 0.0133374
0.624584 0.27798 -3.08149e-33 0.00547427
0.412065 0.546332 1.54074e-33 0.00968721
0.523729 0.440544 -3.08149e-33 0.0073644
0.67013 0.141566 3.46945e-18 0.00440532
0.685312 0.0241911 -7.70372e-34 0.000138403
0.685312 0.0434463 -7.70372e-34 0.000821212
0.67013 0.150387 0 0.00444965
0.574156 0.377026 -3.46945e-18 0.00634592
0.67013 0.159528 0 0.00449167
0.624584 0.291753 0 0.00551176
0.151552 0.67277 0 0.017634
0.075776 0.686823 0 0.0199621
0.67013 0.169001 0 0.00453182
0.67013 0.178818 0 0.00457044
0.467897 0.51269 0 0.00827801
0.685312 0.113022 -7.70372e-34 0.0041527
0.219992 0.659208 0 0.0154927
0.624584 0.306027 0 0.00554847
0.67013 0.188991 0 0.00460785
0.574156 0.394397 3.46945e-18 0.00636733
0.523729 0.46022 0 0.00735023
0.685312 0.137234 -7.70372e-34 0.00431053
0.67013 0.199535 -3.46945e-18 0.00464427
0.350249 0.606847 0 0.0110181
0 0.700877 0 0.0141626
0.624584 0.320819 0 0.00558388
0.67013 0.21046 0 0.00467993
0.412065 0.569849 -2.31298e-18 0.00963781
0.67013 0.221782 -3.46945e-18 0.00471499
0.574157 0.412396 0 0.00638406
0.288433 0.645647 0 0.0131869
0.624584 0.336148 -3.08149e-33 0.00561741
0.67013 0.233515 3.46945e-18 0.00474964
0.467897 0.534986 0 0.00825775
0.523729 0.48061 0 0.00733567
0.624584 0.344091 0 0.00563299
0.67013 0.245675 0 0.00478401
0.715676 4.54095e-19 0 6.1499e-23
0.715676 0.00368111 0 2.02028e-06
0.715676 0.00749587 0 1.32138e-05
0.715676 0.0114491 0 3.41639e-05
0.715676 0.0155459 0 5.72917e-05
0.715676 0.0197915 0 8.51256e-05
0.715676 0.0241911 0 0.000130589
0.715676 0.0287506 0 0.000216636
0.715676 0.0334755 0 0.000349186
0.715676 0.038372 0 0.000528013
0.624584 0.352034 -2.31298e-18 0.00564856
0.715676 0.0434463 0 0.000763687
0.151552 0.700877 0 0.0174348
0.715676 0.0487048 0 0.00105912
0.715676 0.0541543 0 0.00141386
0.574156 0.43105 0 0.00639608
0.715676 0.0598016 0 0.00182521
0.67013 0.258275 0 0.00481821
0.715676 0.0656539 0 0.00228782
0.715676 0.0717187 0 0.00279309
0.075776 0.715441 0 0.0197596
0.715676 0.0780037 0 0.00328042
0.715676 0.0845169 0 0.00355373
0.219992 0.686824 0 0.0152823
0.715676 0.0912666 0 0.00364045
0.715676 0.0982613 0 0.00371573
0.67013 0.271334 -3.46945e-18 0.0048523
0.350249 0.632561 -3.46945e-18 0.0109582
0.412065 0.594219 3.08149e-33 0.00959846
0.715676 0.10551 0 0.00378454
0.715676 0.113022 0 0.00384572
0.624584 0.368496 0 0.00567694
0.523729 0.501741 0 0.00732373
0.715676 0.120806 0 0.00390107
0.715676 0.128874 0 0.00395182
0.67013 0.284867 0 0.00488625
0.467897 0.558091 3.46945e-18 0.00824519
0.715676 0.137234 0 0.00399882
0.574156 0.450382 0 0.00640398
0 0.730005 0 0.0140349
0.715676 0.145897 0 0.00404269
0.288433 0.67277 0 0.0130577
0.715676 0.154876 0 0.00408394
0.67013 0.29889 0 0.00491994
0.624584 0.385557 0 0.00570228
0.715676 0.16418 -9.25187e-19 0.00412302
0.715676 0.173822 0 0.0041603
0.715676 0.183814 0 0.00419612
0.67013 0.313423 0 0.00495313
0.523729 0.523639 0 0.00731647
0.715676 0.194169 0 0.00423074
0.574156 0.470415 3.46945e-18 0.00640928
0.624584 0.403236 0 0.00572436
0.743101 0.0241911 -7.70372e-34 0.000126635
0.412065 0.619475 3.08149e-33 0.0095691
0.715676 0.2049 0 0.00426439
0.151552 0.730005 0 0.0172476
0.67013 0.328484 3.46945e-18 0.00498549
0.350249 0.659208 0 0.0109111
0.467897 0.582034 0 0.00823991
0.715676 0.21602 0 0.00429729
0.219992 0.715441 0 0.0150974
0.075776 0.745097 -3.46945e-18 0.0195576
0.715676 0.227544 0 0.00432962
0.67013 0.344091 0 0.00501667
0.624584 0.421557 0 0.00574303
0.743101 0.128874 -7.70372e-34 0.00374322
0.715676 0.239487 3.70071e-18 0.00436152
0.574156 0.491175 0 0.00641413
0.756814 0.00184055 0 3.39286e-07
0.523729 0.546332 0 0.00731497
0.756813 0.00558849 0 3.71002e-06
0.756813 0.00947248 0 2.40636e-05
0.756814 0.0134975 -3.46945e-18 4.78968e-05
0.756814 0.0155459 0 5.93883e-05
0.756814 0.0176687 0 7.03737e-05
0.756814 0.0219913 0 9.84745e-05
0.756814 0.0264709 0 0.000146121
0.756814 0.031113 -3.46945e-18 0.000249628
0.756813 0.0359238 -3.46945e-18 0.000386914
0.288433 0.700877 0 0.0129478
0.756814 0.0409092 -3.46945e-18 0.000573089
0.756813 0.0460755 3.46945e-18 0.000815469
0.756813 0.0514296 0 0.00111486
0.715676 0.251863 0 0.00439313
0.756813 0.0569779 0 0.0014697
0.756814 0.0627277 -3.46945e-18 0.00187605
0.756814 0.0686863 -3.46945e-18 0.00232693
0 0.76019 0 0.0139045
0.756814 0.0748612 0 0.00281159
0.67013 0.360265 3.46945e-18 0.00504634
0.756814 0.0812603 -3.46945e-18 0.00315542
0.756814 0.0878917 -3.46945e-18 0.00324915
0.756814 0.0947639 -3.46945e-18 0.00332707
0.715676 0.264688 0 0.00442452
0.756813 0.101886 0 0.00339836
0.624584 0.440544 0 0.00575844
0.756813 0.109266 3.46945e-18 0.00346105
0.756813 0.116914 3.46945e-18 0.0035174
0.412065 0.645647 0 0.0095497
0.467897 0.606847 0 0.00824159
0.756814 0.120806 0 0.00358909
0.756813 0.12484 0 0.00356858
0.715676 0.27798 0 0.00445573
0.756814 0.133054 -3.46945e-18 0.00361563
0.67013 0.377026 -3.46945e-18 0.00507424
0.756814 0.137234 0 0.00368492
0.574156 0.51269 0 0.00642073
0.756813 0.141566 3.46945e-18 0.00365919
0.685312 0.352034 -7.70372e-34 0.00495324
0.743101 0.2049 -7.70372e-34 0.0040487
0.350249 0.686824 0 0.0108764
0.756814 0.150387 0 0.00369984
0.756814 0.154876 0 0.0037678
0.715676 0.291753 0 0.00448674
0.756814 0.159528 -3.46945e-18 0.00373804
0.523729 0.569849 0 0.00731956
0.72743 0.264688 0 0.00432919
0.756814 0.16418 0 0.00380561
0.151552 0.76019 0 0.0170726
0.756813 0.169001 3.46945e-18 0.00377419
0.624584 0.46022 0 0.00577127
0.219993 0.745097 0 0.0149352
0.67013 0.394396 0 0.00510016
0.756813 0.178818 -3.46945e-18 0.00380862
0.715676 0.306027 0 0.00451743
0.075776 0.775831 0 0.0193585
0.756813 0.188991 0 0.00384163
0.756814 0.199535 0 0.00387349
0.715676 0.320819 0 0.00454763
0.574156 0.534985 0 0.0064308
0.288433 0.730005 0 0.0128558
0.756813 0.21046 0 0.00390443
0.467897 0.632561 0 0.00825021
0.67013 0.412396 -3.46945e-18 0.00512394
0.624584 0.48061 -3.08149e-33 0.00578275
0.756814 0.221782 0 0.00393463
0.412065 0.67277 3.08149e-33 0.00954011
0.715676 0.336148 0 0.0045771
0 0.791472 0 0.0137738
0.756813 0.233516 3.46945e-18 0.00396426
0.523729 0.594219 0 0.0073302
0.624584 0.487654 1.54074e-33 0.00578667
0.756814 0.245675 3.46945e-18 0.00399348
0.350249 0.715441 3.46945e-18 0.0108538
0.67013 0.43105 0 0.00514548
0.715676 0.352034 -9.25187e-19 0.00460559
0.797951 9.08189e-19 -3.08149e-33 1.05755e-22
0.797951 0.00368111 2.31298e-18 2.02488e-06
0.797951 0.00749587 2.31298e-18 1.4574e-05
0.797951 0.0114491 2.31298e-18 3.79547e-05
0.797951 0.0141803 7.70372e-34 5.36414e-05
0.797951 0.0155459 0 6.14848e-05
0.797951 0.0169611 7.70372e-34 6.93743e-05
0.797951 0.0197915 2.31298e-18 8.51532e-05
0.797951 0.0219913 0 0.00010194
0.797951 0.0241911 3.08149e-33 0.000118727
0.797951 0.0264709 0 0.000151088
0.797951 0.0287506 -3.08149e-33 0.00018345
0.797951 0.0334755 2.31298e-18 0.000293134
0.797951 0.038372 2.31298e-18 0.000443827
0.797951 0.0434463 2.31298e-18 0.000640314
0.797951 0.0487048 0 0.000890926
0.756813 0.258275 -3.46945e-18 0.00402238
0.797951 0.0541543 2.31298e-18 0.00119542
0.797951 0.0598016 2.31298e-18 0.00155107
0.797951 0.0656539 2.31298e-18 0.00195236
0.574156 0.55809 0 0.00644542
0.624584 0.501741 0 0.00579451
0.797951 0.0717187 2.31298e-18 0.00239034
0.797951 0.0780037 -3.08149e-33 0.00275262
0.797951 0.0845169 2.31298e-18 0.00293502
0.797951 0.0912666 -3.08149e-33 0.00302167
0.797951 0.0982613 2.31298e-18 0.00309704
0.756813 0.271334 0 0.00405103
0.797951 0.10551 2.31298e-18 0.00316399
0.715676 0.368496 0 0.00463287
0.151552 0.791472 0 0.01691
0.797951 0.113022 2.31298e-18 0.00322345
0.219992 0.775831 3.46945e-18 0.014794
0.797951 0.118211 7.70372e-34 0.00325923
0.770526 0.239487 1.54074e-33 0.00392246
0.797951 0.120806 0 0.00327711
0.67013 0.450382 3.46945e-18 0.00516489
0.797951 0.128874 3.08149e-33 0.00332602
0.467897 0.659208 0 0.00826593
0.756813 0.284866 -3.46945e-18 0.00407947
0.743101 0.320819 -7.70372e-34 0.00431894
0.797951 0.137234 0 0.00337102
0.797951 0.141566 0 0.00339188
0.797951 0.145897 -9.25187e-19 0.00341273
0.523729 0.619475 0 0.00734687
0.075776 0.807681 0 0.0191644
0.797951 0.150387 0 0.00343219
0.797951 0.154876 0 0.00345165
0.715676 0.385557 0 0.00465876
0.412065 0.700877 3.08149e-33 0.00954028
0.288433 0.76019 0 0.0127803
0.756813 0.29889 0 0.00410768
0.797951 0.16418 0 0.0034882
0.624584 0.523639 0 0.00580814
0.797951 0.167394 7.70372e-34 0.00349972
0.797951 0.173822 2.31298e-18 0.00352276
0.574156 0.582034 0 0.00646502
0.67013 0.470415 0 0.00518268
0.797951 0.183814 2.31298e-18 0.00355561
0.756813 0.313423 -3.46945e-18 0.00413561
0.797951 0.194169 -9.25187e-19 0.00358706
0.715676 0.403236 0 0.00468311
0.151552 0.807681 0 0.0168352
0.797951 0.197746 -7.70372e-34 0.00359714
0.350249 0.745097 0 0.0108429
0.797951 0.2049 3.08149e-33 0.00361731
0 0.823889 0 0.0136451
0.756813 0.328483 -3.46945e-18 0.00416315
0.797951 0.21046 0 0.00363195
0.797951 0.21602 -3.08149e-33 0.0036466
0.797951 0.223703 7.70372e-34 0.00366559
0.797951 0.227544 9.25187e-19 0.00367508
0.624584 0.546332 0 0.00582492
0.715676 0.421557 0 0.00470582
0.67013 0.491176 -3.46945e-18 0.00519977
0.797951 0.231525 7.70372e-34 0.00368436
0.467897 0.686824 -3.46945e-18 0.00828898
0.523729 0.645647 0 0.00736966
0.756813 0.344091 -3.46945e-18 0.00419014
0.822721 0.120806 7.70372e-34 0.00312743
0.797951 0.239487 -3.08149e-33 0.00370292
0.822721 0.137234 7.70372e-34 0.00322116
0.835106 0.00184056 0 2.88963e-07
0.835106 0.00558849 0 3.76136e-06
0.835106 0.00947248 0 2.66913e-05
0.835106 0.0134975 0 5.29647e-05
0.835107 0.0176687 0 7.4463e-05
0.835106 0.0219913 -3.46945e-18 9.72278e-05