# pMean  POINT_DATA 91129
# x  y  z  pMean
0 0 0 0.193248
0 0.00368111 0 0.192971
0 0.00749587 0 0.192373
0 0.0114491 0 0.191792
0 0.0155459 0 0.191269
0 0.0197915 0 0.190713
0 0.0241911 0 0.190085
0 0.0287506 0 0.189393
0 0.0334755 0 0.188652
0 0.038372 0 0.187882
0 0.0434463 0 0.187093
0 0.0487048 0 0.186293
0 0.0541543 0 0.185488
0 0.0598016 0 0.18469
0 0.0656539 0 0.183921
0 0.0717187 0 0.183204
0.075776 0.00184055 0 0.193248
0.075776 0.00558849 0 0.192693
0.075776 0.00947248 -3.46945e-18 0.192054
0.075776 0.0134975 -3.46945e-18 0.19153
0.075776 0.0176687 3.46945e-18 0.191008
0 0.0780037 0 0.182531
0.075776 0.0219913 3.46945e-18 0.190418
0.075776 0.0264709 3.46945e-18 0.189753
0.075776 0.031113 -3.46945e-18 0.189032
0.075776 0.0359237 -3.46945e-18 0.188273
0 0.0845169 0 0.181872
0.075776 0.0409092 0 0.187491
0.075776 0.0460755 -3.46945e-18 0.186694
0 0.0912666 0 0.181205
0.075776 0.0514296 -3.46945e-18 0.185891
0.075776 0.0569779 0 0.185086
0 0.0982613 0 0.180528
0.075776 0.0627278 0 0.184294
0.075776 0.0686863 0 0.183547
0 0.10551 0 0.179844
0.075776 0.0748612 3.46945e-18 0.18286
0.075776 0.0812603 -3.46945e-18 0.182203
0 0.113022 0 0.179152
0.075776 0.0878918 3.46945e-18 0.181541
0 0.120806 0 0.178454
0.075776 0.0947639 3.46945e-18 0.180869
0.075776 0.101886 -3.46945e-18 0.180188
0 0.128874 0 0.177749
0.075776 0.109266 3.46945e-18 0.179499
0 0.137234 0 0.17704
0.075776 0.116914 3.46945e-18 0.178804
0 0.145897 0 0.176336
0.075776 0.12484 0 0.178103
0.151552 0 0 0.178203
0.151552 0.00368111 0 0.178095
0.151552 0.00749587 0 0.177894
0.151552 0.0114491 0 0.177743
0.151552 0.0155459 0 0.177622
0.151552 0.0197915 0 0.177479
0.075776 0.133054 0 0.177395
0.151552 0.0241911 0 0.177298
0.151552 0.0287506 0 0.17708
0 0.154876 0 0.175654
0.151552 0.0334755 0 0.176834
0.151552 0.038372 0 0.176569
0.151552 0.0434463 0 0.176292
0.151552 0.0487048 0 0.176004
0.075776 0.141566 0 0.176685
0.151552 0.0541543 0 0.17571
0.151552 0.0598016 0 0.175412
0 0.16418 0 0.175008
0.151552 0.0656539 0 0.175122
0.151552 0.0717187 0 0.174851
0.075776 0.150387 0 0.175987
0.151552 0.0780037 0 0.174593
0.151552 0.0845169 0 0.174333
0 0.173822 0 0.174405
0.075776 0.159528 0 0.17532
0.151552 0.0912666 0 0.174061
0.151552 0.0982613 0 0.173775
0 0.183814 0 0.173834
0.151552 0.10551 0 0.173477
0.075776 0.169001 3.46945e-18 0.174697
0.151552 0.113022 0 0.173168
0.151552 0.120806 0 0.172845
0 0.194169 0 0.173278
0.075776 0.178818 3.46945e-18 0.174113
0.151552 0.128874 0 0.172508
0.075776 0.188992 3.46945e-18 0.173554
0.151552 0.137234 0 0.172159
0 0.2049 0 0.172719
0.151552 0.145897 0 0.171803
0.075776 0.199535 0 0.173002
0 0.21602 0 0.172136
0.151552 0.154876 0 0.171451
0.219992 0.00184055 0 0.164316
0.219992 0.00558849 0 0.164413
0.219992 0.00947248 -3.46945e-18 0.164644
0.219992 0.0134975 3.46945e-18 0.164903
0.219992 0.0176687 0 0.165146
0.219992 0.0219913 0 0.16538
0.219993 0.0264709 -3.46945e-18 0.165607
0.219992 0.031113 -3.46945e-18 0.165822
0.219992 0.0359238 3.46945e-18 0.166027
0.151552 0.16418 0 0.171111
0.075776 0.21046 0 0.172436
0.219992 0.0409092 3.46945e-18 0.166226
0.219992 0.0460755 0 0.166417
0.219993 0.0514296 -3.46945e-18 0.166598
0.219992 0.0569779 0 0.166768
0 0.227544 0 0.171518
0.219992 0.0627277 3.46945e-18 0.166927
0.219992 0.0686863 0 0.167073
0.151552 0.173822 0 0.170783
0.219992 0.0748612 3.46945e-18 0.167206
0.075776 0.221782 0 0.171837
0.219992 0.0812603 3.46945e-18 0.167323
0.219992 0.0878917 -3.46945e-18 0.167424
0.151552 0.183814 0 0.170458
7.47806e-17 0.239487 0 0.170865
0.219992 0.0947639 3.46945e-18 0.167507
0.219993 0.101886 3.46945e-18 0.167573
0.075776 0.233516 0 0.171199
0.219993 0.109266 0 0.167626
0.151552 0.194169 0 0.170128
0.219993 0.116914 0 0.16766
0 0.251863 0 0.170189
0.219993 0.12484 0 0.167674
0.151552 0.2049 0 0.169783
0.075776 0.245675 0 0.170531
0.219992 0.133054 3.46945e-18 0.167666
0.219992 0.141565 0 0.167638
0.151552 0.21602 0 0.169414
0 0.264688 0 0.1695
0.219992 0.150387 3.46945e-18 0.167596
0.075776 0.258275 3.46945e-18 0.169848
0.219992 0.159528 -3.46945e-18 0.167546
0.151552 0.227544 0 0.169013
0.219992 0.169001 3.46945e-18 0.167481
0 0.27798 0 0.168799
0.075776 0.271334 3.46945e-18 0.169153
0.151552 0.239487 3.70071e-18 0.16858
0.219992 0.178818 3.46945e-18 0.167396
0.288433 0 0 0.168143
0.288433 0.00368111 0 0.168178
0.288433 0.00749587 0 0.168287
0.288433 0.0114491 0 0.168447
0.288433 0.0155459 3.70071e-18 0.168614
0.288433 0.0197915 0 0.168778
0.288433 0.0241911 3.70071e-18 0.168941
0.288433 0.0287506 0 0.1691
0.219992 0.188991 0 0.167286
0.288433 0.0334755 0 0.169254
0.288433 0.038372 0 0.169404
0.288433 0.0434463 0 0.169551
7.47806e-17 0.291753 0 0.168083
0.288433 0.0487048 0 0.169691
0.288433 0.0541543 0 0.169824
0.151552 0.251863 0 0.168121
0.288433 0.0598016 3.70071e-18 0.169951
0.075776 0.284866 0 0.168445
0.288433 0.0656539 3.70071e-18 0.170071
0.219992 0.199534 0 0.167153
0.288433 0.0717187 0 0.170186
0.288433 0.0780037 0 0.170293
0.288433 0.0845169 0 0.170393
0.288433 0.0912666 0 0.170481
0.219992 0.21046 -3.46945e-18 0.166994
0.288433 0.0982613 0 0.170547
0.151552 0.264688 3.70071e-18 0.16764
0 0.306027 0 0.167347
0.288433 0.10551 0 0.170588
0.075776 0.29889 3.46945e-18 0.16772
0.288433 0.113022 0 0.170608
0.219993 0.221782 0 0.166808
0.288433 0.120806 0 0.170612
0.288433 0.128874 0 0.170604
0.151552 0.27798 0 0.167142
0.288433 0.137234 0 0.170583
0 0.320819 0 0.166586
0.219992 0.233515 -3.46945e-18 0.166593
0.075776 0.313423 -3.46945e-18 0.166973
0.288433 0.145897 0 0.170547
0.288433 0.154876 0 0.170496
0.151552 0.291753 0 0.166625
0.219993 0.245675 0 0.166348
0.288433 0.16418 0 0.170428
0 0.336148 0 0.165806
0.288433 0.173822 0 0.170342
0.075776 0.328484 -3.46945e-18 0.166199
0.219993 0.258275 -3.46945e-18 0.166072
0.151552 0.306027 0 0.166086
0.288433 0.183814 0 0.170234
0.288433 0.194169 0 0.170104
0.219992 0.271334 3.46945e-18 0.165771
0.350249 0.00184056 -3.46945e-18 0.17169
0.350249 0.00558849 0 0.171732
0.350249 0.00947248 3.46945e-18 0.171807
0.350249 0.0134975 0 0.171894
0.350249 0.0176687 0 0.171986
0.350249 0.0219913 0 0.172085
0.350249 0.0264708 3.46945e-18 0.172187
0.350249 0.031113 0 0.172288
0 0.352034 0 0.165027
0.350249 0.0359238 0 0.17239
0.075776 0.344091 0 0.165413
0.350249 0.0409091 0 0.172493
0.350249 0.0460756 3.46945e-18 0.172593
0.288433 0.2049 0 0.16995
0.350249 0.0514296 0 0.172689
0.151552 0.320819 0 0.165515
0.350249 0.0569779 0 0.172781
0.350249 0.0627277 3.46945e-18 0.172872
0.350249 0.0686863 3.46945e-18 0.172962
0.350249 0.0748612 3.46945e-18 0.173054
0.350249 0.0812603 0 0.173145
0.219992 0.284867 0 0.165451
0.288433 0.21602 0 0.16977
0.350249 0.0878917 0 0.173237
0.350249 0.094764 0 0.173314
0.350249 0.101886 0 0.173354
0.350249 0.109266 0 0.173361
0.288433 0.227544 0 0.169564
0.075776 0.360265 3.46945e-18 0.164639
0 0.368496 0 0.164252
0.151552 0.336148 0 0.164912
0.350249 0.116914 3.46945e-18 0.17335
0.219992 0.29889 0 0.165109
0.370854 0.0241911 1.54074e-33 0.174193
0.350249 0.12484 0 0.173332
0.350249 0.133054 0 0.173313
0.288433 0.239487 -9.25154e-19 0.169328
0.350249 0.141566 3.46945e-18 0.173286
0.350249 0.150387 3.46945e-18 0.17324
0.288433 0.251863 0 0.169064
0.219992 0.313423 0 0.164733
0.151552 0.352034 0 0.164287
0.075776 0.377027 0 0.163864
0.350249 0.159528 0 0.173173
0 0.385557 0 0.163457
0.350249 0.169001 0 0.173086
0.288433 0.264688 0 0.168769
0.350249 0.178818 0 0.17298
0.219992 0.328484 0 0.164317
0.350249 0.188992 0 0.172852
0.151552 0.368496 0 0.163642
0.288433 0.27798 3.70071e-18 0.168448
0.075776 0.394397 0 0.163049
0.350249 0.199535 0 0.172702
7.47806e-17 0.403236 0 0.162613
0.219992 0.344091 0 0.163856
0.350249 0.21046 -3.46945e-18 0.172529
0.288433 0.291753 0 0.1681
0.412065 9.08189e-19 3.08149e-33 0.17652
0.412065 0.00368111 -2.31298e-18 0.176534
0.412065 0.00749587 -2.31298e-18 0.176576
0.412065 0.0114491 -2.31298e-18 0.176631
0.412065 0.0155459 -2.31298e-18 0.176692
0.412065 0.0197915 0 0.176755
0.412065 0.0241911 -3.08149e-33 0.176819
0.412065 0.0264709 0 0.176852
0.412065 0.0287506 -2.31298e-18 0.176885
0.412065 0.0334755 -2.31298e-18 0.176953
0.412065 0.038372 -2.31298e-18 0.177023
0.151552 0.385557 0 0.162965
0.412065 0.0434463 0 0.177094
0.350249 0.221782 0 0.17233
0.412065 0.0487048 0 0.177165
0.412065 0.0541543 -3.08149e-33 0.177237
0.412065 0.0569779 0 0.177273
0.412065 0.0598016 -2.31298e-18 0.177308
0.412065 0.0656539 -2.31298e-18 0.177378
0.412065 0.0717187 -2.31298e-18 0.177445
0.075776 0.412396 -3.46945e-18 0.162177
0.412065 0.0780037 -2.31298e-18 0.177509
0.288433 0.306027 0 0.167723
0.412065 0.0845169 -2.31298e-18 0.177567
0.350249 0.233516 3.46945e-18 0.172104
0 0.421557 0 0.16172
0.412065 0.0912666 -2.31298e-18 0.177607
0.219992 0.360265 3.46945e-18 0.163352
0.412065 0.0982613 0 0.177617
0.412065 0.10551 0 0.1776
0.412065 0.113022 -2.31298e-18 0.177564
0.350249 0.245675 0 0.17185
0.412065 0.120806 0 0.177518
0.151552 0.403236 0 0.162241
0.288433 0.320819 0 0.16731
0.412065 0.128874 -2.31298e-18 0.177463
0.412065 0.137234 0 0.177399
0.350249 0.258275 -3.46945e-18 0.171566
0.219992 0.377026 0 0.162805
0.412065 0.145897 -2.31298e-18 0.177323
0.075776 0.431051 0 0.161261
0.412065 0.154876 -2.31298e-18 0.177232
0 0.440544 0 0.160785
0.288433 0.336148 0 0.166857
0.350249 0.271334 0 0.171251
0.412065 0.16418 -2.31298e-18 0.177124
0.412065 0.173822 -2.31298e-18 0.176999
0.151552 0.421557 0 0.161467
0.412065 0.183814 -2.31298e-18 0.176856
0.350249 0.284867 3.46945e-18 0.170904
0.219992 0.394397 0 0.162215
0.288433 0.352034 3.70071e-18 0.166361
0.412065 0.194169 0 0.176692
0.075776 0.450382 0 0.160309
0.412065 0.2049 -2.31298e-18 0.176508
0 0.46022 0 0.159817
0.350249 0.29889 3.46945e-18 0.170526
0.412065 0.21602 0 0.1763
0.151552 0.440544 0 0.160647
0.219993 0.412396 3.46945e-18 0.161578
0.467897 0.00184056 -3.46945e-18 0.181012
0.467897 0.00558849 0 0.181031
0.288433 0.368496 0 0.165823
0.467897 0.00947248 0 0.181062
0.467897 0.0134975 0 0.181096
0.467897 0.0176687 3.46945e-18 0.18113
0.467897 0.0219913 -3.46945e-18 0.181161
0.467897 0.0264709 3.46945e-18 0.181192
0.467897 0.0311131 3.46945e-18 0.181226
0.467897 0.0359238 -3.46945e-18 0.181264
0.467897 0.038372 0 0.181755
0.467897 0.0409092 3.46945e-18 0.181305
0.350249 0.313423 0 0.170116
0.467897 0.0460755 0 0.181351
0.467897 0.0514296 3.46945e-18 0.181399
0.412065 0.227544 -2.31298e-18 0.176068
0.467897 0.0569779 0 0.181451
0.467897 0.0627277 -3.46945e-18 0.181504
0.467897 0.0686863 3.46945e-18 0.181552
0.467897 0.0748612 0 0.181593
0.467897 0.0812603 0 0.181629
0.467897 0.0878918 3.46945e-18 0.181647
0.075776 0.470415 3.46945e-18 0.159325
0.412065 0.239487 -2.31298e-18 0.17581
0.467897 0.0947639 -3.46945e-18 0.181627
0.467897 0.101886 3.46945e-18 0.181577
0.350249 0.328483 0 0.169669
0.467897 0.109266 0 0.181516
0 0.48061 0 0.158815
0.288433 0.385557 0 0.165239
0.467897 0.116914 0 0.181446
0.412065 0.251863 -2.31298e-18 0.175523
0.219992 0.431051 0 0.160889
0.467897 0.12484 0 0.181363
0.151552 0.46022 0 0.159782
0.467897 0.133054 3.46945e-18 0.181267
0.467897 0.141566 3.46945e-18 0.18116
0.412065 0.264688 -2.31298e-18 0.175207
0.350249 0.344091 -3.46945e-18 0.169182
0.467897 0.150387 3.46945e-18 0.181042
0.467897 0.154876 0 0.181546
0.467897 0.159528 3.46945e-18 0.180913
0.288433 0.403236 0 0.164609
0.075776 0.491175 0 0.158305
0.412065 0.27798 -2.31298e-18 0.174858
0.467897 0.169001 0 0.180769
0.467897 0.178818 3.46945e-18 0.18061
0.219992 0.450382 0 0.160148
6.73026e-17 0.501741 3.70071e-18 0.157774
0.350249 0.360265 0 0.168654
0.151552 0.48061 0 0.158875
0.467897 0.188991 0 0.180433
0.412065 0.291753 0 0.174477
0.467897 0.199535 0 0.180238
0.288433 0.421557 0 0.163929
0.467897 0.21046 0 0.180022
0.412065 0.306027 0 0.174062
0.350249 0.377027 0 0.168081
0.467897 0.221782 3.46945e-18 0.179784
0.075776 0.51269 0 0.157242
0.219993 0.470415 3.46945e-18 0.159353
0.467897 0.227544 0 0.180203
0.412065 0.320819 -2.31298e-18 0.173609
0.467897 0.233515 0 0.179522
6.73026e-17 0.523639 3.70071e-18 0.156689
0.523729 0 0 0.186291
0.523729 0.00368111 0 0.186299
0.523729 0.00749587 -2.31298e-18 0.186321
0.523729 0.0114491 0 0.186349
0.523729 0.0155459 0 0.186378
0.523729 0.0197915 -2.31298e-18 0.186402
0.151552 0.501741 0 0.15792
0.523729 0.0241911 0 0.186422
0.523729 0.0287506 0 0.186442
0.523729 0.0334755 0 0.186464
0.523729 0.038372 -3.08149e-33 0.186488
0.523729 0.0434463 0 0.186515
0.523729 0.0487048 0 0.186546
0.523729 0.0541543 0 0.186579
0.288433 0.440544 0 0.163196
0.523729 0.0598016 0 0.186615
0.350249 0.394397 -3.46945e-18 0.16746
0.523729 0.0656539 0 0.186651
0.467897 0.245675 0 0.179233
0.523729 0.0717187 0 0.186684
0.523729 0.0780037 0 0.186709
0.523729 0.0845169 0 0.186714
0.523729 0.0912666 0 0.186685
0.412065 0.336148 0 0.173118
0.523729 0.0982613 0 0.186626
0.523729 0.10551 -2.31298e-18 0.18655
0.467897 0.258275 -3.46945e-18 0.178916
0.523729 0.113022 0 0.186465
0.523729 0.120806 -3.08149e-33 0.186369
0.219993 0.491176 0 0.158506
0.523729 0.12484 0 0.186315
0.523729 0.128874 -2.31298e-18 0.186261
0.075776 0.534986 0 0.156134
0.467897 0.271334 3.46945e-18 0.178568
0.350249 0.412396 -3.46945e-18 0.16679
0.523729 0.137234 0 0.18614
0.412065 0.352034 -2.31298e-18 0.172584
0.288433 0.46022 0 0.162408
0.523729 0.145897 0 0.186007
0.151552 0.523639 0 0.156913
0.523729 0.154876 -3.08149e-33 0.18586
0 0.546332 0 0.155557
0.523729 0.159528 0 0.18578
0.467897 0.284867 -3.46945e-18 0.178187
0.523729 0.16418 -2.31298e-18 0.185699
0.523729 0.173822 0 0.185522
0.412065 0.368496 0 0.172004
0.523729 0.183814 0 0.185327
0.467897 0.29889 0 0.177771
0.350249 0.431051 -3.46945e-18 0.166068
0.219992 0.51269 0 0.157603
0.523729 0.194169 0 0.185112
0.288433 0.48061 0 0.161564
0.523729 0.2049 0 0.184877
0.467897 0.313423 3.46945e-18 0.177317
0.075776 0.558091 0 0.154979
0.412065 0.385557 0 0.171378
0.523729 0.21602 -3.08149e-33 0.18462
0.151552 0.546332 0 0.15585
0 0.569849 0 0.154377
0.350249 0.450382 3.46945e-18 0.165291
0.523729 0.227544 -3.08149e-33 0.184338
0.467897 0.328483 0 0.176823
0.523729 0.231525 1.54074e-33 0.184235
0.574156 0.00184056 0 0.191224
0.574156 0.00558849 0 0.191237
0.574157 0.00947248 0 0.19126
0.574156 0.0134975 -3.46945e-18 0.191288
0.574156 0.0176687 -3.46945e-18 0.191309
0.574156 0.0219913 0 0.19132
0.574156 0.0264708 -3.46945e-18 0.191328
0.574156 0.031113 0 0.191336
0.574156 0.0359238 -3.46945e-18 0.191345
0.574157 0.0409092 0 0.191356
0.523729 0.239487 3.70071e-18 0.18403
0.574156 0.0460755 -3.46945e-18 0.19137
0.574156 0.0514295 0 0.191385
0.412065 0.403236 0 0.170701
0.574157 0.0569779 0 0.191405
0.574156 0.0627277 0 0.191427
0.574156 0.0686863 0 0.19145
0.219992 0.534986 0 0.156638
0.288433 0.501741 0 0.160662
0.574156 0.0748612 3.46945e-18 0.19147
0.574156 0.0812603 0 0.191474
0.467897 0.344091 0 0.176287
0.574156 0.0878917 3.46945e-18 0.19144
0.523729 0.251863 0 0.183694
0.574157 0.0947639 0 0.191367
0.574156 0.101886 0 0.191276
0.574156 0.109266 0 0.191178
0.574156 0.116914 0 0.19107
0.412065 0.416977 -6.16298e-33 0.170155
0.350249 0.470415 0 0.164456
0.523729 0.264688 0 0.183327
0.075776 0.582034 0 0.153773
0.574156 0.12484 0 0.19095
0.574156 0.133054 3.46945e-18 0.190818
0.412065 0.421557 -2.31298e-18 0.169972
0.151552 0.569849 0 0.154728
0.467897 0.360265 -3.46945e-18 0.175706
0.574157 0.141566 -3.46945e-18 0.190672
0.523729 0.27798 0 0.182929
0.574156 0.150386 3.46945e-18 0.190512
0 0.594219 0 0.153144
0.574156 0.159528 -3.46945e-18 0.190336
0.574156 0.16418 0 0.190746
0.288433 0.523639 1.2326e-32 0.159698
0.574157 0.169001 0 0.190144
0.523729 0.291753 0 0.182495
0.219993 0.558091 3.46945e-18 0.155605
0.467897 0.377026 0 0.175077
0.574156 0.178818 3.46945e-18 0.189933
0.412065 0.440544 -2.31298e-18 0.169188
0.350249 0.491175 0 0.163561
0.574156 0.188992 3.46945e-18 0.189703
0.523729 0.306027 -3.08149e-33 0.182025
0.574157 0.199535 0 0.189452
0.574157 0.21046 0 0.189178
0.075776 0.606847 0 0.152512
0.467897 0.394397 0 0.174398
0.151552 0.594219 0 0.153543
0.523729 0.320819 0 0.181515
0.574157 0.221782 -3.46945e-18 0.18888
0.412065 0.46022 3.08149e-33 0.168345
0.288433 0.546332 0 0.158666
0 0.619475 0 0.151854
0.574156 0.233515 3.46945e-18 0.188556
0.350249 0.51269 3.46945e-18 0.162602
0.219992 0.582034 3.46945e-18 0.154501
0.523729 0.336148 0 0.180963
0.467897 0.412396 0 0.173666
0.574156 0.245675 0 0.188204
0.624584 0 0 0.197219
0.624584 0.00368111 0 0.197225
0.624584 0.00749587 0 0.197243
0.624584 0.0114491 0 0.197268
0.624584 0.0155459 0 0.197292
0.624584 0.0197915 0 0.197304
0.624584 0.0241911 -2.31298e-18 0.197306
0.624584 0.0287506 0 0.197305
0.624584 0.0334755 0 0.197303
0.624584 0.038372 0 0.197302
0.624584 0.0434463 -2.31298e-18 0.197303
0.624584 0.0487048 0 0.197305
0.624584 0.0541543 0 0.197308
0.624584 0.0598016 0 0.197313
0.624584 0.0656539 0 0.197319
0.624584 0.0717187 0 0.197323
0.624584 0.0780037 0 0.197314
0.574157 0.258276 3.46945e-18 0.187822
0.624584 0.0845169 0 0.197273
0.523729 0.352034 0 0.180366
0.624584 0.0912666 0 0.197193
0.624584 0.0982613 0 0.197088
0.412065 0.48061 3.08149e-33 0.167442
0.624584 0.10551 0 0.196972
0.624584 0.113022 -2.31298e-18 0.196845
0.574156 0.271334 0 0.187408
0.624584 0.120806 0 0.196706
0.467897 0.431051 0 0.172878
0.075776 0.632561 -3.46945e-18 0.151193
0.624584 0.128874 0 0.196554
0.151552 0.619475 0 0.152293
0.288433 0.569849 0 0.157565
0.350249 0.534985 0 0.161576
0.624584 0.137234 -2.31298e-18 0.196387
0.523729 0.368496 0 0.179723
0.574156 0.284866 -3.46945e-18 0.18696
0.624584 0.145897 0 0.196206
0.467897 0.440544 0 0.172902
0.624584 0.154876 0 0.196009
0.219992 0.606847 -3.46945e-18 0.153325
0 0.645647 0 0.150503
0.624584 0.16418 -3.08149e-33 0.195794
0.574156 0.29889 -3.46945e-18 0.186476
0.624584 0.173822 0 0.19556
0.412065 0.501741 1.54074e-33 0.166474
0.467897 0.450382 -3.46945e-18 0.172033
0.523729 0.385557 0 0.179028
0.624584 0.183814 0 0.195307
0.624584 0.194169 0 0.195032
0.574156 0.313423 0 0.185954
0.624584 0.2049 0 0.194734
0.350249 0.558091 3.46945e-18 0.16048
0.288433 0.594219 0 0.15639
0.624584 0.21602 0 0.194412
0.523729 0.403236 0 0.178281
0.574156 0.328483 -3.46945e-18 0.18539
0.151552 0.645647 0 0.150974
0.467897 0.470415 3.46945e-18 0.171126
0.075776 0.659208 0 0.14981
0.624584 0.227544 0 0.194063
0.412065 0.523639 0 0.165439
0.523729 0.41545 3.08149e-33 0.177746
0.624584 0.239487 3.70071e-18 0.193687
0.574156 0.344091 0 0.184781
0.219992 0.632561 0 0.152074
0.67013 0.00184055 0 0.202848
0.67013 0.00558849 0 0.20286
0.67013 0.00947248 0 0.202882
0.67013 0.0134975 0 0.202909
0.67013 0.0176687 -3.46945e-18 0.202927
0.67013 0.0219913 0 0.202928
0.67013 0.0264708 3.46945e-18 0.202918
0.67013 0.0311131 0 0.202907
0.67013 0.0359237 0 0.202895
0.67013 0.0409092 -3.46945e-18 0.202884
0.67013 0.0460755 0 0.202875
0.67013 0.0514296 3.46945e-18 0.202865
0.523729 0.421557 -2.31298e-18 0.177478
0.67013 0.056978 0 0.202856
0 0.67277 0 0.149087
0.67013 0.0627277 0 0.202846
0.624584 0.251863 0 0.19328
0.67013 0.0686863 0 0.202835
0.67013 0.0748612 3.46945e-18 0.202821
0.67013 0.0812603 0 0.202779
0.67013 0.0878917 0 0.20269
0.67013 0.0947639 3.46945e-18 0.202569
0.574156 0.360265 0 0.184126
0.67013 0.101886 0 0.202437
0.523729 0.431051 0 0.177047
0.624584 0.264688 0 0.192842
0.467897 0.491175 0 0.170155
0.67013 0.109266 3.46945e-18 0.202295
0.350249 0.582034 0 0.159311
0.67013 0.116914 0 0.202139
0.67013 0.12484 0 0.20197
0.67013 0.133054 0 0.201786
0.288433 0.619475 0 0.155139
0.624584 0.27798 -3.08149e-33 0.19237
0.412065 0.546332 1.54074e-33 0.164333
0.523729 0.440544 -3.08149e-33 0.176617
0.67013 0.141566 3.46945e-18 0.201587
0.685312 0.0241911 -7.70372e-34 0.205354
0.685312 0.0434463 -7.70372e-34 0.205288
0.67013 0.150387 0 0.20137
0.574156 0.377026 -3.46945e-18 0.183421
0.67013 0.159528 0 0.201136
0.624584 0.291753 0 0.191861
0.151552 0.67277 0 0.149582
0.075776 0.686823 0 0.14836
0.67013 0.169001 0 0.200883
0.67013 0.178818 0 0.200609
0.467897 0.51269 0 0.169116
0.685312 0.113022 -7.70372e-34 0.204533
0.219992 0.659208 0 0.150746
0.624584 0.306027 0 0.191314
0.67013 0.188991 0 0.200314
0.574156 0.394397 3.46945e-18 0.182664
0.523729 0.46022 0 0.175693
0.685312 0.137234 -7.70372e-34 0.203969
0.67013 0.199535 -3.46945e-18 0.199995
0.350249 0.606847 0 0.158066
0 0.700877 0 0.147601
0.624584 0.320819 0 0.190725
0.67013 0.21046 0 0.199652
0.412065 0.569849 -2.31298e-18 0.163153
0.67013 0.221782 -3.46945e-18 0.199283
0.574157 0.412396 0 0.18185
0.288433 0.645647 0 0.153809
0.624584 0.336148 -3.08149e-33 0.190093
0.67013 0.233515 3.46945e-18 0.198886
0.467897 0.534986 0 0.168006
0.523729 0.48061 0 0.174703
0.624584 0.344091 0 0.189753
0.67013 0.245675 0 0.198458
0.715676 4.54095e-19 0 0.209316
0.715676 0.00368111 0 0.209321
0.715676 0.00749587 0 0.209338
0.715676 0.0114491 0 0.209362
0.715676 0.0155459 0 0.209384
0.715676 0.0197915 0 0.209389
0.715676 0.0241911 0 0.209378
0.715676 0.0287506 0 0.209357
0.715676 0.0334755 0 0.209333
0.715676 0.038372 0 0.209307
0.624584 0.352034 -2.31298e-18 0.189414
0.715676 0.0434463 0 0.209281
0.151552 0.700877 0 0.148115
0.715676 0.0487048 0 0.209255
0.715676 0.0541543 0 0.209228
0.574156 0.43105 0 0.180977
0.715676 0.0598016 0 0.209201
0.67013 0.258275 0 0.197999
0.715676 0.0656539 0 0.209172
0.715676 0.0717187 0 0.209139
0.075776 0.715441 0 0.146838
0.715676 0.0780037 0 0.209086
0.715676 0.0845169 0 0.208993
0.219992 0.686824 0 0.149337
0.715676 0.0912666 0 0.208864
0.715676 0.0982613 0 0.208714
0.67013 0.271334 -3.46945e-18 0.197506
0.350249 0.632561 -3.46945e-18 0.156741
0.412065 0.594219 3.08149e-33 0.161896
0.715676 0.10551 0 0.208551
0.715676 0.113022 0 0.208377
0.624584 0.368496 0 0.188685
0.523729 0.501741 0 0.173645
0.715676 0.120806 0 0.208187
0.715676 0.128874 0 0.207982
0.67013 0.284867 0 0.196977
0.467897 0.558091 3.46945e-18 0.166821
0.715676 0.137234 0 0.20776
0.574156 0.450382 0 0.180042
0 0.730005 0 0.146041
0.715676 0.145897 0 0.207522
0.288433 0.67277 0 0.152397
0.715676 0.154876 0 0.207264
0.67013 0.29889 0 0.196409
0.624584 0.385557 0 0.187904
0.715676 0.16418 -9.25187e-19 0.206987
0.715676 0.173822 0 0.206689
0.715676 0.183814 0 0.206369
0.67013 0.313423 0 0.1958
0.523729 0.523639 0 0.172515
0.715676 0.194169 0 0.206026
0.574156 0.470415 3.46945e-18 0.179041
0.624584 0.403236 0 0.187067
0.743101 0.0241911 -7.70372e-34 0.213683
0.412065 0.619475 3.08149e-33 0.160556
0.715676 0.2049 0 0.205657
0.151552 0.730005 0 0.146568
0.67013 0.328484 3.46945e-18 0.195148
0.350249 0.659208 0 0.155331
0.467897 0.582034 0 0.165558
0.715676 0.21602 0 0.205261
0.219992 0.715441 0 0.147846
0.075776 0.745097 -3.46945e-18 0.14524
0.715676 0.227544 0 0.204837
0.67013 0.344091 0 0.194449
0.624584 0.421557 0 0.18617
0.743101 0.128874 -7.70372e-34 0.212023
0.715676 0.239487 3.70071e-18 0.204383
0.574156 0.491175 0 0.177971
0.756814 0.00184055 0 0.215418
0.523729 0.546332 0 0.171309
0.756813 0.00558849 0 0.21543
0.756813 0.00947248 0 0.215451
0.756814 0.0134975 -3.46945e-18 0.215478
0.756814 0.0155459 0 0.215853
0.756814 0.0176687 0 0.215491
0.756814 0.0219913 0 0.215481
0.756814 0.0264709 0 0.215455
0.756814 0.031113 -3.46945e-18 0.215421
0.756813 0.0359238 -3.46945e-18 0.215383
0.288433 0.700877 0 0.150899
0.756814 0.0409092 -3.46945e-18 0.215342
0.756813 0.0460755 3.46945e-18 0.2153
0.756813 0.0514296 0 0.215258
0.715676 0.251863 0 0.203897
0.756813 0.0569779 0 0.215215
0.756814 0.0627277 -3.46945e-18 0.215171
0.756814 0.0686863 -3.46945e-18 0.215124
0 0.76019 0 0.144403
0.756814 0.0748612 0 0.215065
0.67013 0.360265 3.46945e-18 0.193701
0.756814 0.0812603 -3.46945e-18 0.214969
0.756814 0.0878917 -3.46945e-18 0.21483
0.756814 0.0947639 -3.46945e-18 0.214664
0.715676 0.264688 0 0.203377
0.756813 0.101886 0 0.214485
0.624584 0.440544 0 0.185211
0.756813 0.109266 3.46945e-18 0.214293
0.756813 0.116914 3.46945e-18 0.214086
0.412065 0.645647 0 0.159131
0.467897 0.606847 0 0.164212
0.756814 0.120806 0 0.214281
0.756813 0.12484 0 0.213863
0.715676 0.27798 0 0.20282
0.756814 0.133054 -3.46945e-18 0.213622
0.67013 0.377026 -3.46945e-18 0.192901
0.756814 0.137234 0 0.21379
0.574156 0.51269 0 0.176827
0.756813 0.141566 3.46945e-18 0.213364
0.685312 0.352034 -7.70372e-34 0.196077
0.743101 0.2049 -7.70372e-34 0.209504
0.350249 0.686824 0 0.153835
0.756814 0.150387 0 0.213087
0.756814 0.154876 0 0.213225
0.715676 0.291753 0 0.202225
0.756814 0.159528 -3.46945e-18 0.212789
0.523729 0.569849 0 0.170022
0.72743 0.264688 0 0.204965
0.756814 0.16418 0 0.212912
0.151552 0.76019 0 0.144938
0.756813 0.169001 3.46945e-18 0.21247
0.624584 0.46022 0 0.184185
0.219993 0.745097 0 0.146268
0.67013 0.394396 0 0.192045
0.756813 0.178818 -3.46945e-18 0.212129
0.715676 0.306027 0 0.201589
0.075776 0.775831 0 0.143562
0.756813 0.188991 0 0.211763
0.756814 0.199535 0 0.211372
0.715676 0.320819 0 0.20091
0.574156 0.534985 0 0.175607
0.288433 0.730005 0 0.149312
0.756813 0.21046 0 0.210954
0.467897 0.632561 0 0.162779
0.67013 0.412396 -3.46945e-18 0.19113
0.624584 0.48061 -3.08149e-33 0.18309
0.756814 0.221782 0 0.210507
0.412065 0.67277 3.08149e-33 0.157617
0.715676 0.336148 0 0.200184
0 0.791472 0 0.142684
0.756813 0.233516 3.46945e-18 0.21003
0.523729 0.594219 0 0.168652
0.624584 0.487654 1.54074e-33 0.1827
0.756814 0.245675 3.46945e-18 0.209521
0.350249 0.715441 3.46945e-18 0.152247
0.67013 0.43105 0 0.190153
0.715676 0.352034 -9.25187e-19 0.199409
0.797951 9.08189e-19 -3.08149e-33 0.222257
0.797951 0.00368111 2.31298e-18 0.222263
0.797951 0.00749587 2.31298e-18 0.222279
0.797951 0.0114491 2.31298e-18 0.222304
0.797951 0.0141803 7.70372e-34 0.222316
0.797951 0.0155459 0 0.222322
0.797951 0.0169611 7.70372e-34 0.222321
0.797951 0.0197915 2.31298e-18 0.22232
0.797951 0.0219913 0 0.222307
0.797951 0.0241911 3.08149e-33 0.222294
0.797951 0.0264709 0 0.222273
0.797951 0.0287506 -3.08149e-33 0.222251
0.797951 0.0334755 2.31298e-18 0.222199
0.797951 0.038372 2.31298e-18 0.22214
0.797951 0.0434463 2.31298e-18 0.222079
0.797951 0.0487048 0 0.222015
0.756813 0.258275 -3.46945e-18 0.208977
0.797951 0.0541543 2.31298e-18 0.221949
0.797951 0.0598016 2.31298e-18 0.22188
0.797951 0.0656539 2.31298e-18 0.221809
0.574156 0.55809 0 0.174305
0.624584 0.501741 0 0.18192
0.797951 0.0717187 2.31298e-18 0.221728
0.797951 0.0780037 -3.08149e-33 0.221618
0.797951 0.0845169 2.31298e-18 0.221466
0.797951 0.0912666 -3.08149e-33 0.221281
0.797951 0.0982613 2.31298e-18 0.221077
0.756813 0.271334 0 0.208397
0.797951 0.10551 2.31298e-18 0.220859
0.715676 0.368496 0 0.198582
0.151552 0.791472 0 0.143221
0.797951 0.113022 2.31298e-18 0.220625
0.219992 0.775831 3.46945e-18 0.1446
0.797951 0.118211 7.70372e-34 0.220458
0.770526 0.239487 1.54074e-33 0.211911
0.797951 0.120806 0 0.220374
0.67013 0.450382 3.46945e-18 0.189109
0.797951 0.128874 3.08149e-33 0.220106
0.467897 0.659208 0 0.161256
0.756813 0.284866 -3.46945e-18 0.207779
0.743101 0.320819 -7.70372e-34 0.204491
0.797951 0.137234 0 0.219819
0.797951 0.141566 0 0.219666
0.797951 0.145897 -9.25187e-19 0.219512
0.523729 0.619475 0 0.167192
0.075776 0.807681 0 0.1418
0.797951 0.150387 0 0.219349
0.797951 0.154876 0 0.219185
0.715676 0.385557 0 0.197699
0.412065 0.700877 3.08149e-33 0.15601
0.288433 0.76019 0 0.147633
0.756813 0.29889 0 0.20712
0.797951 0.16418 0 0.218836
0.624584 0.523639 0 0.180672
0.797951 0.167394 7.70372e-34 0.218713
0.797951 0.173822 2.31298e-18 0.218465
0.574156 0.582034 0 0.172918
0.67013 0.470415 0 0.187994
0.797951 0.183814 2.31298e-18 0.218069
0.756813 0.313423 -3.46945e-18 0.206418
0.797951 0.194169 -9.25187e-19 0.217647
0.715676 0.403236 0 0.196758
0.151552 0.807681 0 0.142318
0.797951 0.197746 -7.70372e-34 0.217498
0.350249 0.745097 0 0.150565
0.797951 0.2049 3.08149e-33 0.217199
0 0.823889 0 0.140878
0.756813 0.328483 -3.46945e-18 0.205669
0.797951 0.21046 0 0.21696
0.797951 0.21602 -3.08149e-33 0.216722
0.797951 0.223703 7.70372e-34 0.216384
0.797951 0.227544 9.25187e-19 0.216215
0.624584 0.546332 0 0.179342
0.715676 0.421557 0 0.195753
0.67013 0.491176 -3.46945e-18 0.186806
0.797951 0.231525 7.70372e-34 0.216035
0.467897 0.686824 -3.46945e-18 0.159637
0.523729 0.645647 0 0.16564
0.756813 0.344091 -3.46945e-18 0.204872
0.822721 0.120806 7.70372e-34 0.224561
0.797951 0.239487 -3.08149e-33 0.215675
0.822721 0.137234 7.70372e-34 0.223959
0.835106 0.00184056 0 0.228742
0.835106 0.00558849 0 0.228755
0.835106 0.00947248 0 0.228777
0.835106 0.0134975 0 0.228803
0.835107 0.0176687 0 0.228812
0.835106 0.0219913 -3.46945e-18 0.22879
0.574156 0.606847 3.46945e-18 0.17144
0.835106 0.0241911 0 0.22897
0.835106 0.0264709 -3.46945e-18 0.228745
0.822721 0.145897 -7.70372e-34 0.223629
0.835106 0.031113 3.46945e-18 0.228682
0.835106 0.0359238 3.46945e-18 0.228609
0.835106 0.0409092 -3.46945e-18 0.228529
0.835106 0.0460755 3.46945e-18 0.228446
0.835106 0.0514296 0 0.22836
0.797951 0.251863 -3.08149e-33 0.215102
0.835106 0.0541543 0 0.228515
0.835106 0.0569779 0 0.22827
0.219992 0.807681 3.46945e-18 0.14284
0.822721 0.154876 7.70372e-34 0.223277
0.835106 0.0627277 0 0.228177
0.151552 0.823889 0 0.141414
0.797951 0.255069 -1.54074e-33 0.21495
0.835106 0.0686863 3.46945e-18 0.228079
0.756814 0.360265 -3.46945e-18 0.204023
0.412065 0.730005 0 0.154305
0.835106 0.0748612 0 0.22796
0.822721 0.16418 7.70372e-34 0.222902
0.835106 0.0812603 0 0.227797
0.835106 0.0878917 -3.46945e-18 0.227593
0.715676 0.440544 0 0.194683
0.835106 0.094764 0 0.227366
0.797951 0.264688 -1.2326e-32 0.214493
0.835106 0.101886 -3.46945e-18 0.227125
0.835106 0.109266 3.46945e-18 0.226868
0.288433 0.791472 0 0.145858
0.835106 0.116914 0 0.226592
0.67013 0.51269 3.46945e-18 0.185538
0.797951 0.274657 6.16298e-33 0.214008
0.075776 0.840686 -3.46945e-18 0.13995
0.835106 0.12484 0 0.226299
0.797951 0.27798 -3.08149e-33 0.213846
0.624584 0.569849 0 0.177925
0.756813 0.377026 -3.46945e-18 0.203118
0.835106 0.133054 3.46945e-18 0.225986
0.835106 0.141565 3.46945e-18 0.225653
0.835106 0.150386 0 0.2253
0.797951 0.291753 0 0.213158
0.835106 0.159528 3.46945e-18 0.224924
0.715676 0.46022 0 0.193541
0.816529 0.239487 -1.54074e-33 0.218578
0.350249 0.775831 3.46945e-18 0.148784