# pMean  POINT_DATA 63140
# x  y  z  pMean
0 0.1 0 0.180364
0 0.1 -0.0179898 0.180925
0 0.1 0.0179898 0.179805
0.0363518 0.1 0.0179898 0.179805
0.0363518 0.1 -0.0179898 0.180925
0 0.1 -0.0570102 0.182005
0 0.1 0.0570102 0.178463
0.0363518 0.1 0.0570102 0.178463
0.0363518 0.1 -0.0570102 0.182005
0 0.1 -0.075 0.182436
0 0.1 0.075 0.177788
0.075776 0.1 -0.0375 0.181537
0.075776 0.1 0.0375 0.179199
0 0.1 -0.0929898 0.182869
0 0.1 0.0929898 0.177114
0.0363518 0.1 -0.0929898 0.182869
0.0363518 0.1 0.0929898 0.177114
0 0.1 -0.13201 0.183693
0 0.1 0.13201 0.175526
0.075776 0.1 -0.1125 0.183344
0.075776 0.1 0.1125 0.176385
0.0363518 0.1 -0.13201 0.183693
0.0363518 0.1 0.13201 0.175526
0 0.1 -0.15 0.184015
0 0.1 0.15 0.174737
0.150379 0.1 -2.22623e-17 0.17381
0 0.1 -0.16799 0.18434
0 0.1 0.16799 0.173949
0.150379 0.1 -0.075 0.176035
0.150379 0.1 0.075 0.171061
0.0363518 0.1 -0.16799 0.18434
0.0363518 0.1 0.16799 0.173949
0.075776 0.1 -0.1875 0.184696
0.075776 0.1 0.1875 0.173096
0 0.1 -0.20701 0.184954
0 0.1 0.20701 0.172118
0.0363518 0.1 -0.20701 0.184954
0.0363518 0.1 0.20701 0.172118
0.150379 0.1 -0.15 0.17772
0.150379 0.1 0.15 0.167805
0.219993 0.1 -0.0375 0.168876
0.219993 0.1 0.0375 0.166235
0 0.1 -0.225 0.185193
0 0.1 0.225 0.171219
0 0.1 -0.24299 0.185435
0 0.1 0.24299 0.170321
0.0363518 0.1 0.24299 0.170321
0.0363518 0.1 -0.24299 0.185435
0.219993 0.1 -0.1125 0.170975
0.219993 0.1 0.1125 0.163045
0.150379 0.1 -0.225 0.178884
0.150379 0.1 0.225 0.164073
0.075776 0.1 -0.2625 0.1857
0.075776 0.1 0.2625 0.169349
0 0.1 -0.28201 0.185842
0 0.1 0.28201 0.168263
0.0363518 0.1 -0.28201 0.185842
0.0363518 0.1 0.28201 0.168263
0.287374 0.1 -2.89121e-19 0.170514
0.219992 0.1 0.1875 0.159336
0.219992 0.1 -0.1875 0.172448
0.287374 0.1 -0.075 0.17289
0.287374 0.1 0.075 0.167574
0 0.1 -0.3 0.185975
0 0.1 0.3 0.167264
0 0.1 0.31799 0.166267
0 0.1 -0.31799 0.186112
0.0363518 0.1 -0.31799 0.186112
0.0363518 0.1 0.31799 0.166267
0.287374 0.1 0.15 0.164097
0.287374 0.1 -0.15 0.174671
0.150379 0.1 -0.3 0.179535
0.150379 0.1 0.3 0.159898
0.219993 0.1 0.2625 0.155169
0.219993 0.1 -0.2625 0.173277
0.075776 0.1 -0.3375 0.186261
0.075776 0.1 0.3375 0.165187
0.350249 0.1 -0.0375 0.174687
0.350249 0.1 0.0375 0.172
0 0.1 -0.35701 0.186259
0 0.1 0.35701 0.163999
0.0363518 0.1 -0.35701 0.186259
0.0363518 0.1 0.35701 0.163999
0.287374 0.1 -0.225 0.175836
0.287374 0.1 0.225 0.160114
0.350249 0.1 -0.1125 0.176765
0.350249 0.1 0.1125 0.168764
0 0.1 -0.375 0.18626
0 0.1 0.375 0.162907
0 0.1 -0.39299 0.186266
0 0.1 0.39299 0.161815
0.0363518 0.1 -0.39299 0.186266
0.0363518 0.1 0.39299 0.161815
0.350249 0.1 -0.1875 0.178241
0.350249 0.1 0.1875 0.164994
0.219992 0.1 -0.3375 0.173501
0.219992 0.1 0.3375 0.150565
0.150379 0.1 0.375 0.155336
0.150379 0.1 -0.375 0.179621
0.411108 0.1 4.33681e-19 0.177553
0.287374 0.1 -0.3 0.176391
0.287374 0.1 0.3 0.155671
0.411108 0.1 -0.075 0.180043
0.411108 0.1 0.075 0.174418
0.075776 0.1 -0.4125 0.18627
0.075776 0.1 0.4125 0.160634
0 0.1 0.43201 0.159358
0 0.1 -0.43201 0.186131
0.0363518 0.1 0.43201 0.159358
0.0363518 0.1 -0.43201 0.186131
0.411108 0.1 -0.15 0.181863
0.411108 0.1 0.15 0.170676
0.350249 0.1 -0.2625 0.179122
0.350249 0.1 0.2625 0.160711
0 0.1 -0.45 0.186005
0 0.1 0.45 0.158184
0.219992 0.1 0.4125 0.145656
0.219992 0.1 -0.4125 0.173065
0 0.1 -0.46799 0.185882
0 0.1 0.46799 0.157011
0.411108 0.1 -0.225 0.183013
0.411108 0.1 0.225 0.166368
0.467897 0.1 -0.0375 0.183066
0.467897 0.1 0.0375 0.180115
0.0363518 0.1 0.46799 0.157011
0.0363518 0.1 -0.46799 0.185882
0.287374 0.1 -0.375 0.176329
0.287374 0.1 0.375 0.150831
0.150379 0.1 0.45 0.150456
0.150379 0.1 -0.45 0.179136
0.467897 0.1 0.1125 0.176464
0.467897 0.1 -0.1125 0.185301
0.350249 0.1 -0.3375 0.179405
0.350249 0.1 0.3375 0.155997
0.075776 0.1 -0.4875 0.185749
0.075776 0.1 0.4875 0.155741
0.467897 0.1 0.1875 0.172172
0.467897 0.1 -0.1875 0.186788
0 0.1 -0.50701 0.185476
0 0.1 0.50701 0.154391
0.0363518 0.1 -0.50701 0.185476
0.0363518 0.1 0.50701 0.154391
0.411108 0.1 0.3 0.161552
0.411108 0.1 -0.3 0.1835
0.522865 0.1 1.41031e-17 0.18654
0 0.1 -0.525 0.185227
0 0.1 0.525 0.15315
0.522865 0.1 -0.075 0.189232
0.522865 0.1 0.075 0.183091
0.287374 0.1 0.45 0.145657
0.287374 0.1 -0.45 0.175673
0.219992 0.1 0.4875 0.140505
0.219992 0.1 -0.4875 0.172095
0.467897 0.1 -0.2625 0.187545
0.467897 0.1 0.2625 0.167307
0.350249 0.1 -0.4125 0.179081
0.350249 0.1 0.4125 0.150871
0 0.1 -0.54299 0.184979
0 0.1 0.54299 0.151909
0.522865 0.1 0.15 0.178925
0.522865 0.1 -0.15 0.191139
0.0363518 0.1 0.54299 0.151909
0.0363518 0.1 -0.54299 0.184979
0.150379 0.1 -0.525 0.178145
0.150379 0.1 0.525 0.145321
0.411108 0.1 -0.375 0.183325
0.411108 0.1 0.375 0.156286
0.075776 0.1 -0.5625 0.184712
0.075776 0.1 0.5625 0.150565
0.522865 0.1 -0.225 0.192255
0.522865 0.1 0.225 0.174099
0.574156 0.1 0.0375 0.189701
0.574157 0.1 -0.0375 0.1929
0.467897 0.1 -0.3375 0.187581
0.467897 0.1 0.3375 0.161932
0 0.1 -0.58201 0.184316
0 0.1 0.58201 0.14916
0.0363518 0.1 -0.58201 0.184316
0.0363518 0.1 0.58201 0.14916
0.574157 0.1 -0.1125 0.195275
0.574157 0.1 0.1125 0.185717
0.287374 0.1 -0.525 0.174491
0.287374 0.1 0.525 0.140214
0 0.1 -0.6 0.183954
0 0.1 0.6 0.147868
0.350249 0.1 0.4875 0.145371
0.350249 0.1 -0.4875 0.178183
0.522865 0.1 -0.3 0.192589
0.522865 0.1 0.3 0.168684
0.219992 0.1 -0.5625 0.170678
0.219992 0.1 0.5625 0.135192
0.574156 0.1 -0.1875 0.196803
0.574156 0.1 0.1875 0.180993
0.411108 0.1 0.45 0.150615
0.411108 0.1 -0.45 0.182512
0 0.1 -0.61799 0.183593
0 0.1 0.61799 0.146575
0.150379 0.1 -0.6 0.176688
0.150379 0.1 0.6 0.139978
0.0363518 0.1 -0.61799 0.183593
0.0363518 0.1 0.61799 0.146575
0.467897 0.1 -0.4125 0.186898
0.467897 0.1 0.4125 0.156109
0.623803 0.1 2.34188e-17 0.196988
0.623803 0.1 0.075 0.193209
0.623803 0.1 -0.075 0.199896
0.574156 0.1 0.2625 0.17559
0.574156 0.1 -0.2625 0.197492
0.623803 0.1 0.15 0.188609
0.623803 0.1 -0.15 0.201901
0.075776 0.1 0.6375 0.145176
0.075776 0.1 -0.6375 0.183204
0.522865 0.1 -0.375 0.192153
0.522865 0.1 0.375 0.162752
0 0.1 0.65701 0.14373
0 0.1 -0.65701 0.182696
0.0363518 0.1 0.65701 0.14373
0.0363518 0.1 -0.65701 0.182696
0.350249 0.1 0.5625 0.139584
0.350249 0.1 -0.5625 0.17674
0.623803 0.1 0.225 0.183246
0.623803 0.1 -0.225 0.202995
0.287374 0.1 -0.6 0.172826
0.287374 0.1 0.6 0.134563
0.574157 0.1 -0.3375 0.197352
0.574157 0.1 0.3375 0.169593
0.411108 0.1 0.525 0.14461
0.411108 0.1 -0.525 0.181109
0.67013 0.1 0.0375 0.20072
0.67013 0.1 -0.0375 0.204224
0.219992 0.1 -0.6375 0.168828
0.219993 0.1 0.6375 0.129703
0 0.1 -0.675 0.182231
0 0.1 0.675 0.142399
0.467897 0.1 -0.4875 0.185568
0.467897 0.1 0.4875 0.149905
0.67013 0.1 -0.1125 0.20677
0.67013 0.1 0.1125 0.196306
0.522865 0.1 0.45 0.156381
0.522865 0.1 -0.45 0.190986
0.150379 0.1 0.675 0.134462
0.150379 0.1 -0.675 0.174803
0.623803 0.1 0.3 0.177198
0.623803 0.1 -0.3 0.203189
0 0.1 -0.69299 0.181768
0 0.1 0.69299 0.141068
0.0363518 0.1 -0.69299 0.181768
0.0363518 0.1 0.69299 0.141068
0.67013 0.1 -0.1875 0.208338
0.67013 0.1 0.1875 0.191045
0.574156 0.1 0.4125 0.163089
0.574157 0.1 -0.4125 0.196405
0.714971 0.1 -2.8382e-17 0.208603
0.075776 0.1 -0.7125 0.181267
0.075776 0.1 0.7125 0.139627
0.714971 0.1 -0.075 0.211758
0.714971 0.1 0.075 0.204438
0.67013 0.1 0.2625 0.185001
0.67013 0.1 -0.2625 0.208932
0.411108 0.1 -0.6 0.179156
0.411108 0.1 0.6 0.138351
0.350249 0.1 0.6375 0.133589
0.350249 0.1 -0.6375 0.174791
0.623803 0.1 0.375 0.17056
0.623803 0.1 -0.375 0.202505
0.714971 0.1 -0.15 0.213866
0.714971 0.1 0.15 0.199326
0.467897 0.1 -0.5625 0.183645
0.467897 0.1 0.5625 0.143405
0 0.1 -0.73201 0.180656
0 0.1 0.73201 0.138153
0.0363518 0.1 0.73201 0.138153
0.0363518 0.1 -0.73201 0.180656
0.287374 0.1 -0.675 0.170714
0.287374 0.1 0.675 0.128747
0.522865 0.1 -0.525 0.189151
0.522865 0.1 0.525 0.149652
0.219993 0.1 -0.7125 0.166597
0.219992 0.1 0.7125 0.12407
0.714971 0.1 -0.225 0.214923
0.714971 0.1 0.225 0.193336
0 0.1 0.75 0.136797
0 0.1 -0.75 0.180096
0.67013 0.1 -0.3375 0.20857
0.67013 0.1 0.3375 0.17828
0.574156 0.1 -0.4875 0.194709
0.574157 0.1 0.4875 0.156162
0.756813 0.1 0.0375 0.212614
0.756814 0.1 -0.0375 0.21645
0.150379 0.1 0.746002 0.129226
0.150379 0.1 -0.75 0.172541
0.756813 0.1 -0.1125 0.219175
0.756813 0.1 0.1125 0.207725
0 0.1 0.76799 0.135441
0 0.1 -0.76799 0.179537
0.0363518 0.1 0.76799 0.135441
0.0363518 0.1 -0.76799 0.179537
0.623803 0.1 -0.45 0.200986
0.623803 0.1 0.45 0.163424
0.714971 0.1 -0.3 0.214941
0.714971 0.1 0.3 0.186561
0.756814 0.1 -0.1875 0.220767
0.756814 0.1 0.1875 0.201857
0.67013 0.1 -0.4125 0.207293
0.67013 0.1 0.4125 0.170976
0.411108 0.1 0.675 0.131917
0.411108 0.1 -0.675 0.1767
0.467897 0.1 0.6375 0.136683
0.467897 0.1 -0.6375 0.18117
0.075776 0.1 0.7875 0.133973
0.075776 0.1 -0.7875 0.178933
0.350249 0.1 -0.7125 0.172381
0.350249 0.1 0.7125 0.127464
0.522865 0.1 -0.6 0.186706
0.522865 0.1 0.6 0.142655
0.797314 0.1 -3.59473e-17 0.220956
0.287374 0.1 0.746002 0.123068
0.797314 0.1 -0.075 0.224388
0.797314 0.1 0.075 0.216364
0.756814 0.1 -0.2625 0.22124
0.756814 0.1 0.2625 0.195094
0.287374 0.1 -0.75 0.168213
0.574156 0.1 -0.5625 0.192334
0.574156 0.1 0.5625 0.148909
0 0.1 0.80701 0.132487
0 0.1 -0.80701 0.178231
0.714971 0.1 -0.375 0.213952
0.714971 0.1 0.375 0.179112
0.0363518 0.1 0.80701 0.132487
0.0363518 0.1 -0.80701 0.178231
0.797314 0.1 -0.15 0.226611
0.797314 0.1 0.15 0.210682
0.623803 0.1 -0.525 0.198701
0.623803 0.1 0.525 0.155896
0.219992 0.1 0.7875 0.118342
0.219992 0.1 -0.7875 0.164062
0.149792 0.1 0.80701 0.124501
0 0.1 0.825 0.131119
0 0.1 -0.825 0.177586
0.797314 0.1 -0.225 0.227628
0.797314 0.1 0.225 0.204
0.756813 0.1 -0.3375 0.220615
0.756813 0.1 0.3375 0.187548
0.67013 0.1 0.4875 0.163201
0.67013 0.1 -0.4875 0.205151
0.835106 0.1 -0.0375 0.229296
0.835106 0.1 0.0375 0.225082
0.150379 0.1 -0.825 0.169941
0.835106 0.1 -0.1125 0.232239
0.835106 0.1 0.1125 0.219664
0 0.1 -0.84299 0.176943
0 0.1 0.84299 0.129751
0.0363518 0.1 -0.84299 0.176943
0.0363518 0.1 0.84299 0.129751
0.714971 0.1 -0.45 0.212007
0.714971 0.1 0.45 0.171103
0.411108 0.1 0.746002 0.125667
0.797314 0.1 -0.3 0.227461
0.797314 0.1 0.3 0.196421
0.467897 0.1 -0.7125 0.178206
0.467897 0.1 0.7125 0.129818
0.522865 0.1 0.675 0.135474
0.522865 0.1 -0.675 0.183712
0.411108 0.1 -0.75 0.173797
0.835106 0.1 -0.1875 0.233864
0.835107 0.1 0.1875 0.213131
0.286844 0.1 0.80701 0.11827
0.574156 0.1 0.6375 0.141423
0.574157 0.1 -0.6375 0.189346
0.350249 0.1 -0.7875 0.169562
0.350249 0.1 0.7875 0.121263
0.756813 0.1 -0.4125 0.218936
0.756814 0.1 0.4125 0.17935
0.623803 0.1 -0.6 0.195728
0.623803 0.1 0.6 0.148081
0.075776 0.1 0.8625 0.128271
0.075776 0.1 -0.8625 0.176246
0.871687 0.1 -3.2767e-18 0.233696
0.287374 0.1 -0.825 0.165369
0.871687 0.1 -0.075 0.237421
0.871687 0.1 0.075 0.228644
0.67013 0.1 -0.5625 0.202241
0.67013 0.1 0.5625 0.155075
0.835106 0.1 0.2625 0.205587
0.835106 0.1 -0.2625 0.234244
0.797314 0.1 -0.375 0.226137
0.797314 0.1 0.375 0.188082
0 0.1 -0.88201 0.175465
0 0.1 0.88201 0.126783
0.0363518 0.1 0.88201 0.126783
0.0363518 0.1 -0.88201 0.175465
0.871687 0.1 0.15 0.222351
0.871687 0.1 -0.15 0.23975
0.714971 0.1 0.525 0.162661
0.714971 0.1 -0.525 0.209186
0.219993 0.1 0.8625 0.112584
0.219992 0.1 -0.8625 0.161225
0 0.1 0.9 0.125414
0 0.1 -0.9 0.174747
0.756813 0.1 0.4875 0.170625
0.756814 0.1 -0.4875 0.216267
0.871687 0.1 0.225 0.214921
0.871687 0.1 -0.225 0.240718
0.835106 0.1 -0.3375 0.233356
0.835106 0.1 0.3375 0.197152
0.41063 0.1 0.80701 0.120376
0.90582 0.1 -0.0375 0.242325
0.905821 0.1 0.0375 0.237731
0.522865 0.1 0.746002 0.128501
0.150379 0.1 0.9 0.117379
0.90582 0.1 0.1125 0.231765
0.905821 0.1 -0.1125 0.245468
0.522865 0.1 -0.75 0.180238
0.574156 0.1 0.7125 0.133801
0.574156 0.1 -0.7125 0.18582
0.797314 0.1 -0.45 0.223718
0.797314 0.1 0.45 0.179127
0.467897 0.1 -0.7875 0.174808
0.467897 0.1 0.7875 0.122888
0.150379 0.1 -0.903998 0.167168
0 0.1 0.91799 0.124045
0 0.1 -0.91799 0.17403
0.0363518 0.1 0.91799 0.124045
0.0363518 0.1 -0.91799 0.17403
0.623803 0.1 0.675 0.140083
0.623803 0.1 -0.675 0.192147
0.411108 0.1 -0.825 0.170504
0.871687 0.1 0.3 0.206479
0.871687 0.1 -0.3 0.240352
0.67013 0.1 -0.6375 0.198641
0.67013 0.1 0.6375 0.146711
0.90582 0.1 -0.1875 0.247069
0.90582 0.1 0.1875 0.224526
0.350249 0.1 0.8625 0.115035
0.350249 0.1 -0.8625 0.166392
0.835106 0.1 -0.4125 0.231262
0.835106 0.1 0.4125 0.188004
0.714971 0.1 -0.6 0.205592
0.714971 0.1 0.6 0.153915
0.93886 0.1 -1.15648e-17 0.246471
0.075776 0.1 0.9375 0.122563
0.075776 0.1 -0.9375 0.173254
0.93886 0.1 0.075 0.240915
0.93886 0.1 -0.075 0.250541
0.756813 0.1 0.5625 0.161515
0.756814 0.1 -0.5625 0.212726
0.905821 0.1 -0.2625 0.247338
0.905821 0.1 0.2625 0.216142
0.287374 0.1 0.9 0.110849
0.287374 0.1 -0.903998 0.162595
0.871687 0.1 0.375 0.197183
0.871687 0.1 -0.375 0.238648
0.93886 0.1 -0.15 0.253009
0.93886 0.1 0.15 0.233967
0.797314 0.1 0.525 0.169694
0.797314 0.1 -0.525 0.220306
0 0.1 0.95701 0.121086
0 0.1 -0.95701 0.172404
0.0363518 0.1 0.95701 0.121086
0.0363518 0.1 -0.95701 0.172404
0.522433 0.1 0.80701 0.122638
0.219992 0.1 0.9375 0.10684
0.219992 0.1 -0.9375 0.158118
0.93886 0.1 0.225 0.225752
0.93886 0.1 -0.225 0.253956
0.90582 0.1 0.3375 0.206762
0.905821 0.1 -0.3375 0.246117
0.835106 0.1 -0.4875 0.228043
0.835107 0.1 0.4875 0.178283
0.969689 0.1 -0.0375 0.255294
0.969689 0.1 0.0375 0.250226
0.61613 0.1 0.75 0.132002
0.574156 0.1 -0.7875 0.181833
0.574156 0.1 0.7875 0.126129
0 0.1 0.975 0.119727
0 0.1 -0.975 0.171624
0.623803 0.1 -0.75 0.188046
0.969689 0.1 -0.1125 0.25876
0.969689 0.1 0.1125 0.243643
0.522865 0.1 -0.825 0.176353
0.67013 0.1 0.7125 0.138222
0.67013 0.1 -0.7125 0.194455
0.871687 0.1 -0.45 0.235695
0.871687 0.1 0.45 0.187205
0.467897 0.1 0.8625 0.115961
0.467897 0.1 -0.8625 0.171047
0.714971 0.1 -0.675 0.201326
0.714971 0.1 0.675 0.144989
0.93886 0.1 -0.3 0.253423
0.93886 0.1 0.3 0.216419
0.150379 0.1 0.975 0.111676
0.150379 0.1 -0.975 0.163859
0.969689 0.1 -0.1875 0.260416
0.969689 0.1 0.1875 0.235659
0.411108 0.1 0.9 0.11224
0.756813 0.1 0.6375 0.152163
0.756814 0.1 -0.6375 0.208422
0.990306 0.1 -2.19732e-17 0.25633
0 0.1 0.99299 0.118368
0 0.1 -0.99299 0.170843
0.411108 0.1 -0.903998 0.167295
0.990306 0.1 -0.075 0.260704
0.990306 0.1 0.075 0.250339
0.0363518 0.1 0.99299 0.118368
0.0363518 0.1 -0.99299 0.170843
0.90582 0.1 -0.4125 0.243517
0.905821 0.1 0.4125 0.196567
0.797314 0.1 -0.6 0.216026
0.797314 0.1 0.6 0.159945
0.350249 0.1 0.9375 0.108836
0.350249 0.1 -0.9375 0.162924
0.990306 0.1 0.15 0.242828
0.990306 0.1 -0.15 0.263271
0.969689 0.1 -0.2625 0.260679
0.969689 0.1 0.2625 0.226423
0.835106 0.1 -0.5625 0.223843
0.835106 0.1 0.5625 0.168139
0.93886 0.1 -0.375 0.25136
0.93886 0.1 0.375 0.206145
0.075776 0.1 1.0125 0.116897
0.075776 0.1 -1.0125 0.169999
0.990306 0.1 -0.225 0.264192
0.990306 0.1 0.225 0.233937
0.287374 0.1 0.975 0.104904
0.287374 0.1 -0.975 0.158808
0.871687 0.1 -0.525 0.231619
0.871687 0.1 0.525 0.17671
1.02149 0.1 -0.0369628 0.266366
1.02149 0.1 0.0369628 0.260957
0.969689 0.1 -0.3375 0.259239
0.969689 0.1 0.3375 0.216114
1.02149 0.1 -0.110888 0.270038
1.02149 0.1 0.110888 0.25389
0.90582 0.1 0.4875 0.18575
0.90582 0.1 -0.4875 0.239631
0.623803 0.1 0.819003 0.125324
0 0.1 1.03201 0.115445
0 0.1 -1.03201 0.169094
0.0363518 0.1 1.03201 0.115445
0.0363518 0.1 -1.03201 0.169094
0.67013 0.1 -0.7875 0.189775
0.67013 0.1 0.7875 0.12971
0.623803 0.1 -0.825 0.18351
0.990306 0.1 -0.3 0.263533
0.990306 0.1 0.3 0.223837
0.219992 0.1 -1.0125 0.154778
0.219993 0.1 1.0125 0.101147
0.574156 0.1 0.8625 0.118489
0.574157 0.1 -0.8625 0.177462
0.714971 0.1 -0.75 0.196498
0.714971 0.1 0.75 0.135999
1.02149 0.1 0.184814 0.245283
1.02149 0.1 -0.184814 0.271581
0.756814 0.1 -0.7125 0.203474
0.756814 0.1 0.7125 0.142694
0.522865 0.1 0.9 0.11365
0.93886 0.1 -0.45 0.247878
0.93886 0.1 0.45 0.195129
1.04168 0.1 0 0.26825
1.04168 0.1 -0.0729162 0.272913
1.04168 0.1 0.0729162 0.261916
0.522865 0.1 -0.903998 0.172622
0.797314 0.1 -0.675 0.211003
0.797314 0.1 0.675 0.15003
0.467897 0.1 0.9375 0.109102
0.467897 0.1 -0.9375 0.16698
0 0.1 1.05 0.114108
0 0.1 -1.05 0.168262
0.835106 0.1 -0.6375 0.218787
0.835106 0.1 0.6375 0.157778
1.04168 0.1 -0.145832 0.275611
1.04168 0.1 0.145832 0.253986
1.02149 0.1 -0.25874 0.271798
1.02149 0.1 0.25874 0.235307
0.969689 0.1 -0.4125 0.256255
0.969689 0.1 0.4125 0.204926
0.411108 0.1 0.975 0.105755
0.411108 0.1 -0.975 0.162983
0.871687 0.1 -0.6 0.226578
0.871687 0.1 0.6 0.165882
1.0579 0.1 -0.0360525 0.27469
1.0579 0.1 0.0360525 0.269131
0.990306 0.1 -0.375 0.261169
0.990306 0.1 0.375 0.212722
0.150379 0.1 1.05 0.106041
0.150379 0.1 -1.05 0.160456
1.0579 0.1 0.108157 0.261933
1.0579 0.1 -0.108157 0.278565
1.04168 0.1 -0.218749 0.276542
1.04168 0.1 0.218749 0.244604
0.90582 0.1 -0.5625 0.234656
0.90582 0.1 0.5625 0.174482
0 0.1 -1.06799 0.167431
0 0.1 1.06799 0.112772
0.0363518 0.1 -1.06799 0.167431
0.0363518 0.1 1.06799 0.112772
0.350249 0.1 1.0125 0.102714
0.350249 0.1 -1.0125 0.159207
1.0579 0.1 -0.180262 0.280253
1.0579 0.1 0.180262 0.253208
1.02149 0.1 -0.332665 0.270134
1.02149 0.1 0.332665 0.224154
0.93886 0.1 -0.525 0.24313
0.93886 0.1 0.525 0.183561
1.08012 0.1 5.49329e-18 0.277006
1.04168 0.1 -0.291665 0.275896
1.04168 0.1 0.291665 0.23395
1.08012 0.1 0.0709941 0.270495
1.08012 0.1 -0.0709941 0.281874
0.969689 0.1 -0.4875 0.251806
0.96969 0.1 0.4875 0.193086
1.0579 0.1 0.252367 0.243127
1.0579 0.1 -0.252367 0.28053
0.990306 0.1 -0.45 0.257221
0.990306 0.1 0.45 0.200815
0.287374 0.1 -1.05 0.155176
0.287374 0.1 1.05 0.0990425
0.714971 0.1 0.821002 0.127705
1.08012 0.1 -0.141988 0.284771
1.08012 0.1 0.141988 0.262393
0.075776 0.1 1.0875 0.111325
0.075776 0.1 -1.0875 0.166532
0.714971 0.1 -0.825 0.191216
0.756813 0.1 -0.7875 0.198001
0.756814 0.1 0.7875 0.133238
0.67013 0.1 -0.8625 0.184697
0.67013 0.1 0.8625 0.121275
0.797314 0.1 -0.75 0.205375
0.797314 0.1 0.75 0.140084
0.623803 0.1 0.9 0.115952
0.835106 0.1 -0.7125 0.213029
0.835106 0.1 0.7125 0.147332
0.623803 0.1 -0.903998 0.179192
0.574156 0.1 0.9375 0.110962
0.574156 0.1 -0.9375 0.172791
1.02149 0.1 -0.406591 0.266732
1.02149 0.1 0.406591 0.21204
1.08012 0.1 -0.212982 0.285822
1.08012 0.1 0.212982 0.252847
1.10076 0.1 -0.0349809 0.284807
1.10076 0.1 0.0349809 0.278992
0.871687 0.1 -0.675 0.220725
0.871687 0.1 0.675 0.154899
1.04168 0.1 -0.364581 0.273444
1.04168 0.1 0.364581 0.222227
1.10076 0.1 -0.104943 0.288995
1.10076 0.1 0.104943 0.271518
0.522865 0.1 0.975 0.106526
0.522865 0.1 -0.975 0.167634
1.0579 0.1 -0.324472 0.27903
1.0579 0.1 0.324472 0.231875
0 0.1 -1.10701 0.165581
0 0.1 1.10701 0.109906
0.0363518 0.1 1.10701 0.109906
0.0363518 0.1 -1.10701 0.165581
0.90582 0.1 0.6375 0.162972
0.905821 0.1 -0.6375 0.228742
0.219992 0.1 1.0875 0.095536
0.219992 0.1 -1.0875 0.151235
0.93886 0.1 0.6 0.17166
0.93886 0.1 -0.6 0.237306
1.10076 0.1 -0.174905 0.290855
1.10076 0.1 0.174905 0.262508
0.467897 0.1 1.0125 0.102368
0.467897 0.1 -1.0125 0.162662
1.08012 0.1 -0.283976 0.28529
1.08012 0.1 0.283976 0.242034
1.11928 0.1 3.93204e-18 0.286014
0.990306 0.1 -0.525 0.251878
0.990306 0.1 0.525 0.188333
0.96969 0.1 -0.5625 0.246139
0.969689 0.1 0.5625 0.180763
1.11928 0.1 -0.0690357 0.291128
1.11928 0.1 0.0690357 0.279252
0 0.1 1.125 0.1086
0 0.1 -1.125 0.164707
0.411108 0.1 -1.05 0.158865
0.411108 0.1 1.05 0.0993941
1.10076 0.1 0.244866 0.252136
1.10076 0.1 -0.244866 0.291252
1.11928 0.1 -0.138072 0.294257
1.11928 0.1 0.138072 0.270883
1.02149 0.1 0.480517 0.199211
1.02149 0.1 -0.480517 0.261667
1.0579 0.1 -0.396577 0.275787
1.0579 0.1 0.396577 0.219662
1.04168 0.1 -0.437497 0.269256
1.04168 0.1 0.437497 0.209661
0.150379 0.1 1.125 0.100509
0.150379 0.1 -1.125 0.156866
0.714971 0.1 0.88201 0.120974
1.08012 0.1 0.354971 0.230148
1.08012 0.1 -0.354971 0.282982
1.11928 0.1 -0.207107 0.295453
1.11928 0.1 0.207107 0.261061
0.350249 0.1 -1.0875 0.155297
0.350249 0.1 1.0875 0.0967107
0 0.1 1.14299 0.107294
0 0.1 -1.14299 0.163833
0.0363518 0.1 1.14299 0.107294
0.0363518 0.1 -1.14299 0.163833
1.14316 0.1 -0.0339211 0.294872
1.14316 0.1 0.0339211 0.288791
0.797314 0.1 0.821002 0.130658
1.10076 0.1 -0.314829 0.289913
1.10076 0.1 0.314829 0.240581
0.797314 0.1 -0.825 0.199273
0.756814 0.1 -0.8625 0.192129
0.756814 0.1 0.8625 0.123905
1.14316 0.1 -0.101763 0.299269
1.14316 0.1 0.101763 0.281042
0.835106 0.1 -0.7875 0.206717
0.835106 0.1 0.7875 0.136946
0.871687 0.1 -0.75 0.214229
0.871687 0.1 0.75 0.143909
0.67013 0.1 0.9375 0.112997
0.67013 0.1 -0.9375 0.179313
0.90582 0.1 -0.7125 0.222084
0.905821 0.1 0.7125 0.151388
0.714971 0.1 -0.903998 0.186223
1.11928 0.1 0.276143 0.24996
1.11928 0.1 -0.276143 0.295035
1.14316 0.1 0.169605 0.271746
1.14316 0.1 -0.169605 0.301416
0.93886 0.1 -0.675 0.230593
0.93886 0.1 0.675 0.159648
1.15704 0.1 0 0.29494
1.0579 0.1 0.468682 0.20672
1.0579 0.1 -0.468682 0.2708
0.623803 0.1 0.975 0.108144
0.623803 0.1 -0.975 0.173481
0.990306 0.1 0.6 0.17552
0.990306 0.1 -0.6 0.245373
1.15704 0.1 -0.0671479 0.300316
1.15704 0.1 0.0671479 0.28791
1.04168 0.1 -0.510414 0.263536
1.04168 0.1 0.510414 0.196494
0.969689 0.1 -0.6375 0.23942
0.969689 0.1 0.6375 0.168285
1.08012 0.1 0.425965 0.217408
1.08012 0.1 -0.425965 0.278895
0.287374 0.1 -1.125 0.151367
0.287374 0.1 1.125 0.0932966
1.02149 0.1 -0.554443 0.255289
1.02149 0.1 0.554443 0.185915
0.574156 0.1 1.0125 0.103611
0.574156 0.1 -1.0125 0.167887
1.15704 0.1 -0.134296 0.303711
1.15704 0.1 0.134296 0.279264
0.075776 0.1 1.1625 0.10588
0.075776 0.1 -1.1625 0.162888
1.10076 0.1 -0.384791 0.286753
1.10076 0.1 0.384791 0.22805
1.14316 0.1 -0.237448 0.301901
1.14316 0.1 0.237448 0.261078
1.11928 0.1 -0.345179 0.292833
1.11928 0.1 0.345179 0.237772
0.522865 0.1 1.05 0.0995809
0.522865 0.1 -1.05 0.16293
1.15704 0.1 -0.201444 0.305092
1.15704 0.1 0.201444 0.26916
1.1744 0.1 -0.0331401 0.302144
1.1744 0.1 0.0331401 0.295838
1.1744 0.1 -0.0994202 0.306818
1.1744 0.1 0.0994202 0.287847
0 0.1 1.18201 0.104503
0 0.1 -1.18201 0.161902
0.0363518 0.1 1.18201 0.104503
0.0363518 0.1 -1.18201 0.161902
0.219992 0.1 1.1625 0.09004
0.219993 0.1 -1.1625 0.147531
1.14316 0.1 0.30529 0.249213
1.14316 0.1 -0.30529 0.300703
0.467897 0.1 1.0875 0.0958101
0.467897 0.1 -1.0875 0.15816
1.1744 0.1 -0.1657 0.309186
1.1744 0.1 0.1657 0.278309
1.15704 0.1 -0.268592 0.304825
1.15704 0.1 0.268592 0.257771
1.0579 0.1 0.540787 0.193288
1.0579 0.1 -0.540787 0.264448
0.796996 0.1 0.88201 0.122868
1.08012 0.1 -0.496959 0.273214
1.08012 0.1 0.496959 0.204047
1.10076 0.1 0.454752 0.214765
1.10076 0.1 -0.454752 0.28179
1.11928 0.1 -0.414214 0.288789
1.11928 0.1 0.414214 0.224711
1.04168 0.1 -0.58333 0.256578
1.04168 0.1 0.58333 0.182958
1.1744 0.1 -0.231981 0.309785
1.1744 0.1 0.231981 0.267403
0.871687 0.1 0.821002 0.133541
0.411108 0.1 1.125 0.093198
0.411108 0.1 -1.125 0.154581
1.19808 0.1 1.73472e-17 0.304788
0.990306 0.1 0.675 0.162616
0.990306 0.1 -0.675 0.237917
1.02149 0.1 0.628368 0.17237
1.02149 0.1 -0.628368 0.247806
1.19808 0.1 -0.0650961 0.310471
1.19808 0.1 0.0650961 0.297448
0 0.1 1.2 0.103236
0 0.1 -1.2 0.160995
0.871687 0.1 -0.825 0.207247
0.905821 0.1 -0.7875 0.214851
0.90582 0.1 0.7875 0.139875
0.835106 0.1 -0.8625 0.199993
0.835106 0.1 0.8625 0.126751
0.93886 0.1 -0.75 0.223195
0.93886 0.1 0.75 0.147681
1.14316 0.1 -0.373132 0.297619
1.14316 0.1 0.373132 0.236356
0.969689 0.1 0.7125 0.155832
0.969689 0.1 -0.7125 0.23188
1.15704 0.1 -0.33574 0.302777
1.15704 0.1 0.33574 0.245288
0.756813 0.1 0.9375 0.114806
0.756814 0.1 -0.9375 0.185964
1.19808 0.1 0.130192 0.288491
1.19808 0.1 -0.130192 0.314207
0.797314 0.1 -0.903998 0.193546
0.714971 0.1 0.975 0.109701
0.714971 0.1 -0.975 0.179701
0.150379 0.1 1.2 0.095111
0.150379 0.1 -1.2 0.153126
1.20938 0.1 -0.0322656 0.310526
1.20938 0.1 0.0322656 0.303954
1.1744 0.1 -0.298261 0.308803
1.1744 0.1 0.298261 0.255299
1.20938 0.1 -0.0967968 0.315476
1.20938 0.1 0.0967968 0.295689
1.19808 0.1 -0.195288 0.315853
1.19808 0.1 0.195288 0.278079
0.350249 0.1 1.1625 0.0908538
0.350249 0.1 -1.1625 0.151234
0.67013 0.1 1.0125 0.104947
0.67013 0.1 -1.0125 0.17371
0 0.1 1.21799 0.101969
0 0.1 -1.21799 0.160089
0.0363518 0.1 -1.21799 0.160089
0.0363518 0.1 1.21799 0.101969
1.11928 0.1 -0.48325 0.283086
1.11928 0.1 0.48325 0.21101
1.10076 0.1 -0.524714 0.275382
1.10076 0.1 0.524714 0.20097
1.20938 0.1 0.161328 0.285881
1.20938 0.1 -0.161328 0.318173
1.08012 0.1 0.567953 0.190294
1.08012 0.1 -0.567953 0.266227
0.623803 0.1 1.05 0.100574
0.623803 0.1 -1.05 0.168143
1.0579 0.1 -0.612892 0.256932
1.0579 0.1 0.612892 0.179587
1.15704 0.1 -0.402888 0.298829
1.15704 0.1 0.402888 0.231919
1.14316 0.1 0.440974 0.222725
1.14316 0.1 -0.440974 0.2927
1.19808 0.1 -0.260384 0.315801
1.19808 0.1 0.260384 0.266386
1.2267 0.1 3.57064e-18 0.311236
1.2267 0.1 -0.0636649 0.317137
1.2267 0.1 0.0636649 0.303673
1.1744 0.1 -0.364541 0.30586
1.1744 0.1 0.364541 0.242199
0.574156 0.1 1.0875 0.0964974
0.574156 0.1 -1.0875 0.162817
1.20938 0.1 0.225859 0.27471
1.20938 0.1 -0.225859 0.318913
1.04168 0.1 -0.656246 0.248599
1.04168 0.1 0.656246 0.169277
1.2267 0.1 -0.12733 0.321126
1.2267 0.1 0.12733 0.294494
0.287374 0.1 1.2 0.0876916
0.287374 0.1 -1.2 0.147421
1.02149 0.1 -0.702294 0.239465
1.02149 0.1 0.702294 0.158775
0.075776 0.1 -1.2375 0.159108
0.075776 0.1 1.2375 0.100597
0.871399 0.1 0.88201 0.124993
0.522865 0.1 1.125 0.0928607
0.522865 0.1 -1.125 0.158079
1.2267 0.1 -0.190994 0.322984
1.2267 0.1 0.190994 0.283866
1.19808 0.1 -0.32548 0.313994
1.19808 0.1 0.32548 0.253595
0.990306 0.1 -0.75 0.229747
0.990306 0.1 0.75 0.149775
1.24274 0.1 -0.0314313 0.318374
1.24274 0.1 0.0314313 0.311527
1.20938 0.1 -0.29039 0.318182
1.20938 0.1 0.29039 0.262341
1.24274 0.1 -0.0942942 0.323589
1.24274 0.1 0.0942942 0.302985
0.93886 0.1 0.821002 0.136422
1.11928 0.1 -0.552285 0.275997
1.11928 0.1 0.552285 0.196897
1.15704 0.1 -0.470036 0.293146
1.15704 0.1 0.470036 0.217896
0.969689 0.1 -0.7875 0.223741
0.96969 0.1 0.7875 0.143532
0.93886 0.1 -0.825 0.2153
0.90582 0.1 0.8625 0.128619
0.905821 0.1 -0.8625 0.207219
1.1744 0.1 -0.430821 0.301038
1.1744 0.1 0.430821 0.228317
1.10076 0.1 -0.594676 0.267722
1.10076 0.1 0.594676 0.186877
1.14316 0.1 -0.508816 0.286221
1.14316 0.1 0.508816 0.208562
1.24274 0.1 -0.157157 0.326654
1.24274 0.1 0.157157 0.292909
1.2267 0.1 -0.254659 0.323102
1.2267 0.1 0.254659 0.271958
0.467897 0.1 1.1625 0.0894655
0.467897 0.1 -1.1625 0.153523
1.08012 0.1 0.638947 0.176384
1.08012 0.1 -0.638947 0.258148
1.25511 0.1 -5.78241e-19 0.317659
0.835106 0.1 -0.9375 0.192984
0.835106 0.1 0.9375 0.116818
0.871687 0.1 -0.903998 0.200734
1.25511 0.1 0.0622446 0.309878
1.25511 0.1 -0.0622446 0.323775
0.219992 0.1 1.2375 0.0846745
0.219992 0.1 -1.2375 0.143703
0 0.1 -1.25701 0.158095
0 0.1 1.25701 0.0992653
0.0363518 0.1 -1.25701 0.158095
0.0363518 0.1 1.25701 0.0992653
0.797314 0.1 0.975 0.111238
0.797314 0.1 -0.975 0.186141
1.19808 0.1 -0.390576 0.310234
1.19808 0.1 0.390576 0.239913
1.0579 0.1 -0.684997 0.248484
1.0579 0.1 0.684997 0.165859
1.20938 0.1 -0.354921 0.31543
1.20938 0.1 0.354921 0.248975
1.25511 0.1 0.124489 0.300485
1.25511 0.1 -0.124489 0.328014
1.24274 0.1 -0.220019 0.327573
1.24274 0.1 0.220019 0.281475
0.756813 0.1 1.0125 0.106006
0.756814 0.1 -1.0125 0.179608
1.2267 0.1 -0.318324 0.321485
1.2267 0.1 0.318324 0.258953
0.411108 0.1 1.2 0.0872014
0.411108 0.1 -1.2 0.150176
1.25511 0.1 -0.186734 0.330095
1.25511 0.1 0.186734 0.289646
0.714971 0.1 1.05 0.101443
0.714971 0.1 -1.05 0.173654
1.04168 0.1 -0.729162 0.239852
1.04168 0.1 0.729162 0.155646
1.24274 0.1 0.282882 0.268845
1.24274 0.1 -0.282882 0.327095
0 0.1 1.275 0.0980403
0 0.1 -1.275 0.157164
1.1744 0.1 0.497102 0.213899
1.1744 0.1 -0.497102 0.294568
1.15704 0.1 -0.537184 0.28599
1.15704 0.1 0.537184 0.203447
1.2756 0.1 -0.03061 0.326027
1.2756 0.1 0.03061 0.318881
0.67013 0.1 1.0875 0.0972048
0.67013 0.1 -1.0875 0.167962
1.2756 0.1 -0.09183 0.331503
1.2756 0.1 0.09183 0.310056
1.25511 0.1 -0.248978 0.330389
1.25511 0.1 0.248978 0.27753
1.20938 0.1 0.419453 0.234822
1.20938 0.1 -0.419453 0.31077
1.11928 0.1 -0.621322 0.267742
1.11928 0.1 0.621322 0.182602
1.14316 0.1 -0.576659 0.278419
1.14316 0.1 0.576659 0.194082
1.19808 0.1 -0.455673 0.304661
1.19808 0.1 0.455673 0.225567
1.02149 0.1 0.776219 0.145274
1.02149 0.1 -0.776219 0.230514
0.150379 0.1 1.275 0.0898759
0.150379 0.1 -1.275 0.149273
1.2756 0.1 -0.15305 0.334965
1.2756 0.1 0.15305 0.299709
1.2267 0.1 -0.381989 0.31789
1.2267 0.1 0.381989 0.245057
1.10076 0.1 -0.664638 0.259046
1.10076 0.1 0.664638 0.172741
0.350249 0.1 1.2375 0.0851675
0.350249 0.1 -1.2375 0.14706
0.623803 0.1 1.125 0.0932897
0.623803 0.1 -1.125 0.162686
0.9386 0.1 0.88201 0.127176
0.990306 0.1 0.825 0.137581
0.990306 0.1 -0.825 0.221079
1.24274 0.1 -0.345745 0.324574
1.24274 0.1 0.345745 0.255217
1.2906 0.1 0 0.325673
1.07933 0.1 0.709941 0.162538
1.2906 0.1 -0.0604698 0.332128
1.2906 0.1 0.0604698 0.317546
1.08012 0.1 -0.709941 0.249231
0 0.1 1.29299 0.096815
0 0.1 -1.29299 0.156233
1.25511 0.1 0.311223 0.264315
1.25511 0.1 -0.311223 0.328964
1.2756 0.1 -0.214269 0.336169
1.2756 0.1 0.214269 0.288008
0.0363518 0.1 1.29299 0.096815
0.0363518 0.1 -1.29299 0.156233
1.2906 0.1 -0.12094 0.336776
1.2906 0.1 0.12094 0.307818
0.574156 0.1 1.1625 0.0896534
0.574157 0.1 -1.1625 0.157643
0.969689 0.1 0.8625 0.131551
0.969689 0.1 -0.8625 0.215186
1.0579 0.1 0.757102 0.152307
1.0579 0.1 -0.757102 0.239372
1.1744 0.1 -0.563382 0.286713
1.1744 0.1 0.563382 0.199157
1.20938 0.1 0.483984 0.220125
1.20938 0.1 -0.483984 0.304356
1.2906 0.1 -0.181409 0.339254
1.2906 0.1 0.181409 0.296657
0.93886 0.1 -0.903998 0.207985
0.90582 0.1 0.9375 0.117804
0.90582 0.1 -0.9375 0.199363
1.2756 0.1 0.275489 0.275114
1.2756 0.1 -0.275489 0.335921
1.2267 0.1 -0.445653 0.312428
1.2267 0.1 0.445653 0.230493
1.15704 0.1 -0.604332 0.277595
1.15704 0.1 0.604332 0.188797
1.19808 0.1 -0.520769 0.297507
1.19808 0.1 0.520769 0.210787
1.30646 0.1 0.0298385 0.325484
1.30646 0.1 -0.0298385 0.332919
0.287374 0.1 -1.275 0.143373
0.287374 0.1 1.275 0.0822604
0.871687 0.1 0.975 0.112348
0.871687 0.1 -0.975 0.192427
1.24274 0.1 0.408607 0.240803
1.24274 0.1 -0.408607 0.320117
0.522865 0.1 1.2 0.0864074