# pMean  POINT_DATA 63840
# x  y  z  pMean
0 0.5 3.39583e-17 0.15786
0 0.5 -0.00617931 0.158057
0 0.5 0.00617931 0.157667
0.0124865 0.5 -0.00617931 0.158057
0.0124865 0.5 0.00617931 0.157667
0 0.5 -0.0688207 0.159835
0 0.5 0.0688207 0.155504
0.0124865 0.5 -0.0688207 0.159835
0.0124865 0.5 0.0688207 0.155504
0 0.5 -0.075 0.15999
0 0.5 0.075 0.155269
0 0.5 -0.0811793 0.160148
0 0.5 0.0811793 0.155038
0.0124865 0.5 -0.0811793 0.160148
0.0124865 0.5 0.0811793 0.155038
0.075776 0.5 -0.0375 0.159049
0.075776 0.5 0.0375 0.156689
0.075776 0.5 -0.1125 0.160949
0.075776 0.5 0.1125 0.153866
0 0.5 -0.143821 0.161515
0 0.5 0.143821 0.152501
0.0124865 0.5 -0.143821 0.161515
0.0124865 0.5 0.143821 0.152501
0 0.5 -0.15 0.161626
0 0.5 0.15 0.152231
0.151149 0.5 -0.00137318 0.157919
0 0.5 -0.156179 0.161741
0 0.5 0.156179 0.151964
0.0124865 0.5 -0.156179 0.161741
0.0124865 0.5 0.156179 0.151964
0.151149 0.5 0.075 0.15539
0.151149 0.5 -0.075 0.160132
0.075776 0.5 -0.1875 0.162322
0.075776 0.5 0.1875 0.150613
0.151149 0.5 0.15 0.152323
0.151149 0.5 -0.15 0.161786
0 0.5 -0.218821 0.162681
0 0.5 0.218821 0.149081
0.0124865 0.5 -0.218821 0.162681
0.0124865 0.5 0.218821 0.149081
0.219992 0.5 0.0375 0.156948
0.219993 0.5 -0.0375 0.159323
0 0.5 -0.225 0.162751
0 0.5 0.225 0.148778
0 0.5 -0.231179 0.162825
0 0.5 0.231179 0.148478
0.0124865 0.5 -0.231179 0.162825
0.0124865 0.5 0.231179 0.148478
0.219992 0.5 0.1125 0.154068
0.219993 0.5 -0.1125 0.16122
0.151149 0.5 -0.225 0.162935
0.151149 0.5 0.225 0.148842
0.075776 0.5 -0.2625 0.163198
0.075776 0.5 0.2625 0.14696
0.288069 0.5 -0.00137318 0.160622
0.219992 0.5 0.1875 0.150761
0.219993 0.5 -0.1875 0.162662
0 0.5 0.293821 0.145278
0 0.5 -0.293821 0.163372
0.0124865 0.5 -0.293821 0.163372
0.0124865 0.5 0.293821 0.145278
0.288069 0.5 -0.075 0.162956
0.288069 0.5 0.075 0.157977
0 0.5 -0.3 0.163406
0 0.5 0.3 0.144946
0 0.5 0.306179 0.144615
0 0.5 -0.306179 0.163443
0.0124865 0.5 -0.306179 0.163443
0.0124865 0.5 0.306179 0.144615
0.288069 0.5 -0.15 0.164664
0.288069 0.5 0.15 0.154751
0.151149 0.5 -0.3 0.163596
0.151149 0.5 0.3 0.14498
0.219992 0.5 -0.2625 0.163565
0.219992 0.5 0.2625 0.147054
0.075776 0.5 0.3375 0.142947
0.075776 0.5 -0.3375 0.163632
0.350249 0.5 -0.0375 0.164473
0.350249 0.5 0.0375 0.161862
0.288069 0.5 -0.225 0.165834
0.288069 0.5 0.225 0.151078
0.350249 0.5 0.1125 0.158752
0.350249 0.5 -0.1125 0.166505
0 0.5 0.368821 0.141132
0 0.5 -0.368821 0.163592
0.0124865 0.5 -0.368821 0.163592
0.0124865 0.5 0.368821 0.141132
0 0.5 -0.375 0.163584
0 0.5 0.375 0.140773
0 0.5 -0.381179 0.163579
0 0.5 0.381179 0.140416
0.0124865 0.5 -0.381179 0.163579
0.0124865 0.5 0.381179 0.140416
0.350249 0.5 -0.1875 0.167961
0.350249 0.5 0.1875 0.15516
0.219992 0.5 -0.3375 0.163996
0.219992 0.5 0.3375 0.14298
0.151149 0.5 -0.375 0.163775
0.151149 0.5 0.375 0.140773
0.411736 0.5 -0.00137318 0.166424
0.288069 0.5 -0.3 0.166471
0.288069 0.5 0.3 0.146995
0.411736 0.5 -0.075 0.168936
0.411736 0.5 0.075 0.163563
0.075776 0.5 -0.4125 0.163554
0.075776 0.5 0.4125 0.138615
0.350249 0.5 -0.2625 0.168841
0.350249 0.5 0.2625 0.151095
0.411736 0.5 -0.15 0.170724
0.411736 0.5 0.15 0.160045
0 0.5 -0.443821 0.163319
0 0.5 0.443821 0.136684
0.0124865 0.5 -0.443821 0.163319
0.0124865 0.5 0.443821 0.136684
0 0.5 -0.45 0.163272
0 0.5 0.45 0.136303
0 0.5 -0.456179 0.163228
0 0.5 0.456179 0.135923
0.0124865 0.5 -0.456179 0.163228
0.0124865 0.5 0.456179 0.135923
0.219992 0.5 -0.4125 0.163921
0.219993 0.5 0.4125 0.138578
0.411736 0.5 -0.225 0.171895
0.411736 0.5 0.225 0.156019
0.467897 0.5 0.0375 0.168338
0.467897 0.5 -0.0375 0.171119
0.288069 0.5 -0.375 0.166585
0.288069 0.5 0.375 0.14255
0.151149 0.5 -0.45 0.163452
0.151149 0.5 0.45 0.136266
0.467897 0.5 -0.1125 0.173274
0.467897 0.5 0.1125 0.164947
0.350249 0.5 0.3375 0.146632
0.350249 0.5 -0.3375 0.169177
0.075776 0.5 -0.4875 0.163007
0.075776 0.5 0.4875 0.134006
0.467897 0.5 -0.1875 0.174777
0.467897 0.5 0.1875 0.160987
0.411736 0.5 -0.3 0.172465
0.411736 0.5 0.3 0.151532
0 0.5 -0.518821 0.162588
0 0.5 0.518821 0.131979
0.0124865 0.5 0.518821 0.131979
0.0124865 0.5 -0.518821 0.162588
0.523432 0.5 -0.00137318 0.173589
0 0.5 -0.525 0.162505
0 0.5 0.525 0.131578
0.523432 0.5 -0.075 0.176285
0.523432 0.5 0.075 0.170486
0 0.5 -0.531179 0.162424
0 0.5 0.531179 0.131179
0.0124865 0.5 -0.531179 0.162424
0.0124865 0.5 0.531179 0.131179
0.288069 0.5 -0.45 0.166163
0.288069 0.5 0.45 0.137787
0.219992 0.5 -0.4875 0.163333
0.219993 0.5 0.4875 0.133894
0.467897 0.5 -0.2625 0.175623
0.467897 0.5 0.2625 0.156523
0.350249 0.5 -0.4125 0.168948
0.350249 0.5 0.4125 0.141813
0.523432 0.5 -0.15 0.178166
0.523432 0.5 0.15 0.166625
0.151149 0.5 -0.525 0.162664
0.151149 0.5 0.525 0.131502
0.411736 0.5 -0.375 0.172441
0.411736 0.5 0.375 0.14664
0.075776 0.5 -0.5625 0.162019
0.075776 0.5 0.5625 0.129166
0.523432 0.5 -0.225 0.179345
0.523432 0.5 0.225 0.162183
0.574156 0.5 -0.0375 0.179013
0.574156 0.5 0.0375 0.17599
0.467897 0.5 0.3375 0.151593
0.467897 0.5 -0.3375 0.175844
0.574156 0.5 -0.1125 0.181316
0.574156 0.5 0.1125 0.17228
0 0.5 -0.593821 0.161426
0 0.5 0.593821 0.127062
0.0124865 0.5 -0.593821 0.161426
0.0124865 0.5 0.593821 0.127062
0.288069 0.5 -0.525 0.165243
0.288069 0.5 0.525 0.132759
0 0.5 -0.6 0.161309
0 0.5 0.6 0.126646
0.350249 0.5 -0.4875 0.168163
0.350249 0.5 0.4875 0.136694
0.523432 0.5 -0.3 0.179834
0.523432 0.5 0.3 0.157221
0.219992 0.5 -0.5625 0.162306
0.219992 0.5 0.5625 0.128976
0.574156 0.5 -0.1875 0.182875
0.574156 0.5 0.1875 0.167915
0 0.5 -0.606179 0.161194
0 0.5 0.606179 0.126232
0.0124865 0.5 -0.606179 0.161194
0.0124865 0.5 0.606179 0.126232
0.411736 0.5 -0.45 0.171822
0.411736 0.5 0.45 0.1414
0.151149 0.5 -0.6 0.161446
0.151149 0.5 0.6 0.126529
0.62168 0.5 2.64545e-17 0.181596
0.467897 0.5 0.4125 0.146264
0.467897 0.5 -0.4125 0.175428
0.624316 0.5 0.0729402 0.178459
0.624316 0.5 -0.075 0.184781
0.574156 0.5 -0.2625 0.183681
0.574157 0.5 0.2625 0.16296
0.075776 0.5 -0.6375 0.160615
0.075776 0.5 0.6375 0.124141
0.624316 0.5 -0.15 0.186772
0.624316 0.5 0.15 0.174201
0.523432 0.5 -0.375 0.179648
0.523432 0.5 0.375 0.151801
0.350249 0.5 -0.5625 0.166896
0.350249 0.5 0.5625 0.13133
0.624316 0.5 -0.225 0.187959
0.624316 0.5 0.225 0.169277
0.288069 0.5 0.6 0.127518
0.288069 0.5 -0.6 0.16387
0.574156 0.5 -0.3375 0.18377
0.574156 0.5 0.3375 0.15749
0.411736 0.5 -0.525 0.170653
0.411736 0.5 0.525 0.135874
0 0.5 -0.668821 0.159863
0 0.5 0.668821 0.12198
0.0124865 0.5 -0.668821 0.159863
0.0124865 0.5 0.668821 0.12198
0.67013 0.5 0.0375 0.18463
0.67013 0.5 -0.0375 0.187941
0.219993 0.5 -0.6375 0.160853
0.219993 0.5 0.6375 0.123871
0 0.5 -0.675 0.159714
0 0.5 0.675 0.121552
0.467897 0.5 0.4875 0.140602
0.467897 0.5 -0.4875 0.174395
0.67013 0.5 -0.1125 0.190418
0.67013 0.5 0.1125 0.180532
0 0.5 -0.681179 0.159568
0 0.5 0.681179 0.121127
0.0124865 0.5 -0.681179 0.159568
0.0124865 0.5 0.681179 0.121127
0.523432 0.5 -0.45 0.178794
0.523432 0.5 0.45 0.145994
0.151149 0.5 -0.675 0.159824
0.151149 0.5 0.675 0.121393
0.624316 0.5 -0.3 0.188357
0.624316 0.5 0.3 0.163759
0.67013 0.5 0.1875 0.175694
0.67013 0.5 -0.1875 0.192038
0.574156 0.5 -0.4125 0.183141
0.574157 0.5 0.4125 0.15157
0.708171 0.5 1.88651e-17 0.19006
0.075776 0.5 -0.7125 0.15883
0.075776 0.5 0.7125 0.118977
0.715434 0.5 0.0736268 0.187021
0.715434 0.5 -0.075 0.194146
0.67013 0.5 0.2625 0.17018
0.67013 0.5 -0.2625 0.192801
0.350249 0.5 -0.6375 0.165166
0.350249 0.5 0.6375 0.125781
0.411736 0.5 -0.6 0.168983
0.411736 0.5 0.6 0.130125
0.624316 0.5 -0.375 0.187982
0.624316 0.5 0.375 0.157727
0.715434 0.5 -0.15 0.196261
0.715434 0.5 0.15 0.182503
0.467897 0.5 -0.5625 0.172819
0.467897 0.5 0.5625 0.134675
0.288069 0.5 -0.675 0.162073
0.288069 0.5 0.675 0.122116
0.523432 0.5 -0.525 0.177324
0.523432 0.5 0.525 0.139873
0 0.5 -0.743821 0.157933
0 0.5 0.743821 0.116777
0.0124865 0.5 -0.743821 0.157933
0.0124865 0.5 0.743821 0.116777
0.219992 0.5 0.7125 0.118625
0.219992 0.5 -0.7125 0.159013
0.715434 0.5 -0.225 0.197458
0.715434 0.5 0.225 0.177027
0 0.5 -0.75 0.157756
0 0.5 0.75 0.116342
0.67013 0.5 0.3375 0.164078
0.67013 0.5 -0.3375 0.192737
0.574156 0.5 -0.4875 0.181819
0.574156 0.5 0.4875 0.145283
0 0.5 -0.756179 0.15758
0 0.5 0.756179 0.115908
0.0124865 0.5 -0.756179 0.15758
0.0124865 0.5 0.756179 0.115908
0.756813 0.5 -0.0375 0.197564
0.756813 0.5 0.0375 0.193932
0.151149 0.5 -0.75 0.157836
0.151149 0.5 0.75 0.11614
0.756813 0.5 -0.1125 0.200235
0.756813 0.5 0.1125 0.189394
0.624316 0.5 -0.45 0.186853
0.624316 0.5 0.45 0.151264
0.715434 0.5 -0.3 0.19775
0.715434 0.5 0.3 0.170877
0.756813 0.5 0.1875 0.184017
0.756813 0.5 -0.1875 0.201922
0.67013 0.5 -0.4125 0.191852
0.67013 0.5 0.4125 0.157475
0.411736 0.5 -0.675 0.166852
0.411736 0.5 0.675 0.124216
0.467897 0.5 0.6375 0.128553
0.467897 0.5 -0.6375 0.170732
0.075776 0.5 -0.7875 0.156697
0.075776 0.5 0.7875 0.11372
0.350249 0.5 -0.7125 0.163021
0.350249 0.5 0.7125 0.120101
0.523432 0.5 -0.6 0.175296
0.523432 0.5 0.6 0.133516
0.797732 0.5 2.68882e-17 0.20076
0.756813 0.5 -0.2625 0.202637
0.756814 0.5 0.2625 0.177871
0.797732 0.5 0.0736268 0.196262
0.797732 0.5 -0.075 0.20406
0.288069 0.5 -0.75 0.159894
0.288069 0.5 0.75 0.116605
0.574156 0.5 -0.5625 0.179887
0.574157 0.5 0.5625 0.138711
0.715434 0.5 -0.375 0.197154
0.715434 0.5 0.375 0.16415
0.797732 0.5 -0.15 0.206314
0.797732 0.5 0.15 0.191226
0.624316 0.5 -0.525 0.18503
0.624316 0.5 0.525 0.144461
0.219992 0.5 -0.7875 0.156821
0.219992 0.5 0.7875 0.113285
0 0.5 -0.818821 0.155671
0 0.5 0.818821 0.1115
0.0124865 0.5 0.818821 0.1115
0.0124865 0.5 -0.818821 0.155671
0 0.5 -0.825 0.155468
0 0.5 0.825 0.111061
0.756813 0.5 0.3375 0.171064
0.756814 0.5 -0.3375 0.202395
0.67013 0.5 -0.4875 0.190188
0.67013 0.5 0.4875 0.150468
0.797732 0.5 -0.225 0.207521
0.797732 0.5 0.225 0.185135
0 0.5 -0.831179 0.155267
0 0.5 0.831179 0.110624
0.0124865 0.5 -0.831179 0.155267
0.0124865 0.5 0.831179 0.110624
0.835106 0.5 0.0375 0.203584
0.835106 0.5 -0.0375 0.207577
0.151149 0.5 -0.825 0.155517
0.151149 0.5 0.825 0.110818
0.835106 0.5 0.1125 0.198561
0.835106 0.5 -0.1125 0.210467
0.715434 0.5 -0.45 0.195704
0.715434 0.5 0.45 0.156944
0.797732 0.5 -0.3 0.207699
0.797732 0.5 0.3 0.178284
0.467897 0.5 0.7125 0.122303
0.467897 0.5 -0.7125 0.168193
0.523432 0.5 -0.675 0.172761
0.523432 0.5 0.675 0.126997
0.411736 0.5 -0.75 0.164311
0.411736 0.5 0.75 0.118209
0.835106 0.5 -0.1875 0.212226
0.835106 0.5 0.1875 0.192586
0.574156 0.5 -0.6375 0.177389
0.574157 0.5 0.6375 0.131938
0.350249 0.5 -0.7875 0.160502
0.350249 0.5 0.7875 0.114347
0.756813 0.5 -0.4125 0.201214
0.756814 0.5 0.4125 0.1637
0.075776 0.5 -0.8625 0.154253
0.075776 0.5 0.8625 0.108415
0.624316 0.5 0.6 0.13741
0.624316 0.5 -0.6 0.182583
0.872064 0.5 5.91974e-17 0.210722
0.870122 0.5 0.075 0.205466
0.288069 0.5 -0.825 0.157374
0.288069 0.5 0.825 0.111036
0.67013 0.5 -0.5625 0.187834
0.67013 0.5 0.5625 0.143158
0.872064 0.5 -0.075 0.21432
0.835106 0.5 -0.2625 0.212895
0.835106 0.5 0.2625 0.185749
0.797732 0.5 -0.375 0.20686
0.797732 0.5 0.375 0.170789
0.872064 0.5 0.14794 0.200191
0.872064 0.5 -0.15 0.216716
0.715434 0.5 -0.525 0.193472
0.715434 0.5 0.525 0.14937
0.219992 0.5 0.8625 0.107905
0.219993 0.5 -0.8625 0.154314
0 0.5 -0.893821 0.153113
0 0.5 0.893821 0.106196
0.0124865 0.5 -0.893821 0.153113
0.0124865 0.5 0.893821 0.106196
0 0.5 -0.9 0.152887
0 0.5 0.9 0.105757
0.756813 0.5 -0.4875 0.199161
0.756813 0.5 0.4875 0.155887
0.872064 0.5 -0.225 0.217928
0.872064 0.5 0.225 0.193433
0.835106 0.5 -0.3375 0.212468
0.835106 0.5 0.3375 0.178163
0 0.5 0.906179 0.10532
0 0.5 -0.906179 0.152663
0.0124865 0.5 -0.906179 0.152663
0.0124865 0.5 0.906179 0.10532
0.90582 0.5 -0.0375 0.217878
0.90582 0.5 0.0375 0.213499
0.151149 0.5 -0.9 0.152903
0.151149 0.5 0.9 0.105476
0.90582 0.5 -0.1125 0.220999
0.905821 0.5 0.1125 0.207961
0.523432 0.5 -0.75 0.169782
0.523432 0.5 0.75 0.120391
0.574156 0.5 -0.7125 0.174396
0.574156 0.5 0.7125 0.125045
0.797732 0.5 -0.45 0.205054
0.797732 0.5 0.45 0.162772
0.467897 0.5 0.7875 0.11599
0.467897 0.5 -0.7875 0.165254
0.624316 0.5 -0.675 0.179578
0.624316 0.5 0.675 0.130201
0.411736 0.5 -0.825 0.161409
0.411736 0.5 0.825 0.112162
0.872064 0.5 0.3 0.185822
0.872064 0.5 -0.3 0.217987
0.67013 0.5 -0.6375 0.184853
0.67013 0.5 0.6375 0.135645
0.90582 0.5 0.1875 0.201347
0.905821 0.5 -0.1875 0.222804
0.350249 0.5 -0.8625 0.157658
0.350249 0.5 0.8625 0.108571
0.835106 0.5 -0.4125 0.210972
0.835106 0.5 0.4125 0.169975
0.715434 0.5 -0.6 0.190541
0.715434 0.5 0.6 0.14154
0.939201 0.5 2.75387e-17 0.220686
0.075776 0.5 0.9375 0.103111
0.075776 0.5 -0.9375 0.151535
0.939111 0.5 0.075 0.214991
0.939201 0.5 -0.075 0.224624
0.756813 0.5 0.5625 0.147757
0.756814 0.5 -0.5625 0.196325
0.90582 0.5 0.2625 0.193766
0.905821 0.5 -0.2625 0.223418
0.288069 0.5 -0.9 0.154553
0.288069 0.5 0.9 0.10546
0.872064 0.5 -0.375 0.216889
0.872064 0.5 0.375 0.177495
0.939201 0.5 0.148627 0.20894
0.939201 0.5 -0.15 0.227174
0.797732 0.5 -0.525 0.202367
0.797732 0.5 0.525 0.154357
0.219992 0.5 0.9375 0.102529
0.219992 0.5 -0.9375 0.151531
0.939201 0.5 -0.225 0.228387
0.939201 0.5 0.225 0.201608
0.905821 0.5 -0.3375 0.222803
0.90582 0.5 0.3375 0.185352
0.835106 0.5 -0.4875 0.208495
0.835106 0.5 0.4875 0.161306
0 0.5 0.968821 0.100906
0 0.5 -0.968821 0.150295
0.0124865 0.5 -0.968821 0.150295
0.0124865 0.5 0.968821 0.100906
0.969689 0.5 -0.0375 0.227945
0.969689 0.5 0.0375 0.223128
0.574156 0.5 -0.7875 0.170975
0.574156 0.5 0.7875 0.118109
0 0.5 -0.975 0.15005
0 0.5 0.975 0.10047
0.624316 0.5 -0.75 0.176091
0.624316 0.5 0.75 0.12292
0.969689 0.5 -0.1125 0.231367
0.96969 0.5 0.1125 0.217027
0.523432 0.5 -0.825 0.16642
0.523432 0.5 0.825 0.113765
0.67013 0.5 0.7125 0.128024
0.67013 0.5 -0.7125 0.181329
0 0.5 -0.981179 0.149806
0 0.5 0.981179 0.100036
0.467897 0.5 0.8625 0.109676
0.467897 0.5 -0.8625 0.161973
0.0124865 0.5 -0.981179 0.149806
0.0124865 0.5 0.981179 0.100036
0.872064 0.5 -0.45 0.214694
0.872064 0.5 0.45 0.168603
0.715434 0.5 -0.675 0.186994
0.715434 0.5 0.675 0.133561
0.939201 0.5 -0.3 0.228347
0.939201 0.5 0.3 0.193193
0.151149 0.5 0.975 0.100149
0.151149 0.5 -0.975 0.150032
0.969689 0.5 -0.1875 0.233216
0.969689 0.5 0.1875 0.209727
0.756813 0.5 -0.6375 0.192793
0.756813 0.5 0.6375 0.139429
0.411736 0.5 -0.9 0.158197
0.411736 0.5 0.9 0.106131
0.90582 0.5 -0.4125 0.220962
0.90582 0.5 0.4125 0.176268
0.995005 0.5 0.0749309 0.223357
0.797732 0.5 -0.6 0.198895
0.797732 0.5 0.6 0.145683
1.00005 0.5 -8.47123e-18 0.230393
0.350249 0.5 -0.9375 0.154532
0.350249 0.5 0.9375 0.102821
1.00005 0.5 -0.0749309 0.234686
0.969689 0.5 -0.2625 0.2338
0.969689 0.5 0.2625 0.201361
0.835106 0.5 -0.5625 0.205132
0.835106 0.5 0.5625 0.152295
1.00005 0.5 -0.149862 0.237353
0.939201 0.5 -0.375 0.227004
0.939201 0.5 0.375 0.183991
1.00029 0.5 0.148988 0.217465
0.075776 0.5 -1.0125 0.148579
0.075776 0.5 1.0125 0.0978412
0.288069 0.5 0.975 0.0999147
0.288069 0.5 -0.975 0.151475
0.872064 0.5 -0.525 0.211503
0.872064 0.5 0.525 0.159288
1.00005 0.5 0.224793 0.209446
1.00005 0.5 -0.224793 0.238516
0.969689 0.5 0.3375 0.192087
0.96969 0.5 -0.3375 0.233057
1.0271 0.5 -0.0368226 0.237896
1.0271 0.5 0.0368226 0.232723
0.90582 0.5 0.4875 0.166672
0.905821 0.5 -0.4875 0.21801
1.0271 0.5 -0.110468 0.241556
1.0271 0.5 0.110468 0.225011
0.67013 0.5 0.7875 0.120388
0.67013 0.5 -0.7875 0.177346
0.624316 0.5 0.825 0.115649
0.624316 0.5 -0.825 0.172199
0.219993 0.5 -1.0125 0.148509
0.219993 0.5 1.0125 0.0971762
0.574156 0.5 -0.8625 0.167195
0.574156 0.5 0.8625 0.111201
0.715434 0.5 -0.75 0.182926
0.715434 0.5 0.75 0.125533
0.756813 0.5 0.7125 0.131011
0.756814 0.5 -0.7125 0.18867
0.523432 0.5 -0.9 0.162737
0.523432 0.5 0.9 0.107184
0.939201 0.5 -0.45 0.224405
0.939201 0.5 0.45 0.174178
1.04168 0.5 0 0.238229
1.0271 0.5 -0.184113 0.243353
1.0271 0.5 0.184113 0.218244
0 0.5 -1.04382 0.147254
0 0.5 1.04382 0.0956673
0.0124865 0.5 -1.04382 0.147254
0.0124865 0.5 1.04382 0.0956673
1.00005 0.5 -0.299723 0.238389
1.00005 0.5 0.299723 0.200177
1.04168 0.5 -0.0729162 0.242738
1.04168 0.5 0.0729162 0.232286
0.797732 0.5 -0.675 0.194748
0.797732 0.5 0.675 0.136878
0.467897 0.5 0.9375 0.103422
0.467897 0.5 -0.9375 0.158403
0 0.5 -1.05 0.146992
0 0.5 1.05 0.0952376
0.835106 0.5 -0.6375 0.201
0.835106 0.5 0.6375 0.143105
1.04168 0.5 -0.145832 0.24552
1.04168 0.5 0.145832 0.224972
0.969689 0.5 -0.4125 0.230894
0.96969 0.5 0.4125 0.182082
0 0.5 -1.05618 0.146732
0 0.5 1.05618 0.094809
0.0124865 0.5 -1.05618 0.146732
0.0124865 0.5 1.05618 0.094809
1.05695 0.5 -0.0360764 0.243774
1.05695 0.5 0.0360764 0.238481
0.411736 0.5 -0.975 0.154725
0.411736 0.5 0.975 0.10017
0.872064 0.5 -0.6 0.207438
0.872064 0.5 0.6 0.149713
1.0271 0.5 -0.257759 0.243885
1.0271 0.5 0.257759 0.209174
0.151149 0.5 -1.05 0.14694
0.151149 0.5 1.05 0.0948735
1.05695 0.5 0.108229 0.232172
1.05695 0.5 -0.108229 0.247611
1.04168 0.5 -0.218749 0.246683
1.04168 0.5 0.218749 0.216404
0.90582 0.5 -0.5625 0.214059
0.905821 0.5 0.5625 0.156721
1.00005 0.5 -0.374654 0.236787
1.00005 0.5 0.374654 0.190043
0.350249 0.5 1.0125 0.0971418
0.350249 0.5 -1.0125 0.151169
1.05695 0.5 -0.180382 0.249454
1.05695 0.5 0.180382 0.22374
1.07319 0.5 0.0709442 0.23698
0.939201 0.5 -0.525 0.22068
0.939201 0.5 0.525 0.163925
1.0271 0.5 -0.331404 0.243071
1.0271 0.5 0.331404 0.199113
1.08112 0.5 3.23815e-17 0.246023
1.04168 0.5 -0.291665 0.246576
1.04168 0.5 0.291665 0.206751
1.08112 0.5 -0.0709442 0.250724
0.969689 0.5 -0.4875 0.227466
0.96969 0.5 0.4875 0.171542
1.05695 0.5 0.252535 0.214524
1.05695 0.5 -0.252535 0.249999
0.288069 0.5 -1.05 0.148178
0.288069 0.5 1.05 0.0944359
0.075776 0.5 -1.0875 0.145419
0.075776 0.5 1.0875 0.0926445
1.08112 0.5 -0.141888 0.25368
1.08145 0.5 0.140165 0.232
0.715434 0.5 0.825 0.11755
0.715434 0.5 -0.825 0.178431
0.756813 0.5 0.7875 0.12261
0.756814 0.5 -0.7875 0.184056
0.67013 0.5 -0.8625 0.17299
0.67013 0.5 0.8625 0.112817
0.797732 0.5 -0.75 0.190038
0.797732 0.5 0.75 0.128059
0.624316 0.5 -0.9 0.167977
0.624316 0.5 0.9 0.108459
1.00005 0.5 -0.449585 0.233716
1.00005 0.5 0.449585 0.179249
0.835106 0.5 -0.7125 0.196223
0.835106 0.5 0.7125 0.133856
0.574156 0.5 -0.9375 0.163123
0.574157 0.5 0.9375 0.104386
1.10076 0.5 -0.0349809 0.252797
1.10076 0.5 0.0349809 0.247285
1.08112 0.5 -0.212832 0.254927
1.08112 0.5 0.212832 0.223613
0.872064 0.5 -0.675 0.202633
0.872064 0.5 0.675 0.14003
1.04168 0.5 -0.364581 0.244967
1.04168 0.5 0.364581 0.196199
1.0271 0.5 0.405049 0.188256
1.0271 0.5 -0.405049 0.240595
1.05695 0.5 -0.324688 0.249246
1.05695 0.5 0.324688 0.204308
1.10076 0.5 -0.104943 0.256895
1.10076 0.5 0.104943 0.240345
0.523432 0.5 0.975 0.100711
0.523432 0.5 -0.975 0.158794
0.90582 0.5 0.6375 0.146608
0.905821 0.5 -0.6375 0.209265
0.219992 0.5 1.0875 0.0918972
0.219992 0.5 -1.0875 0.145285
1.11376 0.5 3.81639e-17 0.252666
0.939201 0.5 0.6 0.153428
0.939201 0.5 -0.6 0.215984
1.10076 0.5 -0.174905 0.258911
1.10076 0.5 0.174905 0.232044
0.467897 0.5 -1.0125 0.154599
0.467897 0.5 1.0125 0.0972912
1.11376 0.5 -0.0693118 0.257541
1.11376 0.5 0.0693118 0.246361
1.08112 0.5 0.283777 0.213735
1.08112 0.5 -0.283777 0.254866
0 0.5 -1.11882 0.144024
0 0.5 1.11882 0.0905129
0.0124865 0.5 -1.11882 0.144024
0.0124865 0.5 1.11882 0.0905129
0.969689 0.5 -0.5625 0.222914
0.969689 0.5 0.5625 0.160649
1.11376 0.5 0.138624 0.237969
1.11376 0.5 -0.138624 0.260657
0 0.5 -1.125 0.143748
0 0.5 1.125 0.0900917
1.10076 0.5 0.244866 0.222548
1.10076 0.5 -0.244866 0.259503
0.411736 0.5 -1.05 0.151041
0.411736 0.5 1.05 0.094321
1.05695 0.5 -0.396841 0.246825
1.05695 0.5 0.396841 0.193281
1.00005 0.5 -0.524516 0.229382
1.00005 0.5 0.524516 0.168003
1.04168 0.5 -0.437497 0.241786
1.04168 0.5 0.437497 0.184956
0 0.5 -1.13118 0.143474
0 0.5 1.13118 0.0896713
0.0124865 0.5 -1.13118 0.143474
0.0124865 0.5 1.13118 0.0896713
1.11376 0.5 -0.207935 0.261992
1.11376 0.5 0.207935 0.229649
1.0271 0.5 -0.478694 0.236685
1.0271 0.5 0.478694 0.17683
0.151149 0.5 -1.125 0.143663
0.151149 0.5 1.125 0.0896875
1.08112 0.5 -0.354722 0.253321
1.08112 0.5 0.354722 0.202939
1.13882 0.5 -0.0340295 0.260713
1.13882 0.5 0.0340295 0.254987
0.350249 0.5 -1.0875 0.147613
0.350249 0.5 1.0875 0.0915566
1.13882 0.5 -0.102088 0.264972
1.13882 0.5 0.102088 0.247749
1.10076 0.5 -0.314829 0.258852
1.10076 0.5 0.314829 0.212031
0.756813 0.5 -0.8625 0.179058
0.756814 0.5 0.8625 0.11432
0.797732 0.5 -0.825 0.18488
0.797732 0.5 0.825 0.11933
1.11376 0.5 -0.277247 0.261984
1.11376 0.5 0.277247 0.219529
0.835106 0.5 0.7875 0.124677
0.835106 0.5 -0.7875 0.190925
0.715434 0.5 -0.9 0.173602
0.715434 0.5 0.9 0.109696
0.872064 0.5 -0.75 0.197225
0.872064 0.5 0.75 0.130364
1.13882 0.5 0.170147 0.239226
1.13882 0.5 -0.170147 0.26716
0.67013 0.5 -0.9375 0.168341
0.67013 0.5 0.9375 0.105385
0.905821 0.5 -0.7125 0.203774
0.905821 0.5 0.7125 0.136461
1.05695 0.5 0.468994 0.18167
1.05695 0.5 -0.468994 0.242947
0.939201 0.5 -0.675 0.210487
0.939201 0.5 0.675 0.142873
0.624316 0.5 0.975 0.101417
0.624316 0.5 -0.975 0.163499
1.04168 0.5 -0.510414 0.237247
1.04168 0.5 0.510414 0.173243
0.969689 0.5 -0.6375 0.217448
0.96969 0.5 0.6375 0.149649
0.288069 0.5 -1.125 0.144703
0.288069 0.5 1.125 0.0890596
1.16179 0.5 5.78241e-19 0.263039
1.08112 0.5 0.425666 0.191431
1.08112 0.5 -0.425666 0.250195
1.13882 0.5 -0.238206 0.267812
1.13882 0.5 0.238206 0.229426
1.16179 0.5 0.0669104 0.256856
1.16179 0.5 -0.0669104 0.268178
0.574156 0.5 -1.0125 0.158824
0.574156 0.5 1.0125 0.0977244
0.075776 0.5 -1.1625 0.14209
0.075776 0.5 1.1625 0.0875487
1.00005 0.5 -0.599447 0.223995
1.00005 0.5 0.599447 0.156521
1.10076 0.5 0.384791 0.200677
1.10076 0.5 -0.384791 0.25648
1.0271 0.5 -0.55234 0.231566
1.0271 0.5 0.55234 0.165051
1.11376 0.5 -0.346559 0.260479
1.11376 0.5 0.346559 0.20847
1.16179 0.5 -0.133821 0.271511
1.16179 0.5 0.133821 0.248351
0.523432 0.5 -1.05 0.154648
0.523432 0.5 1.05 0.0943993
1.17463 0.5 -0.0331343 0.268647
1.17463 0.5 0.0331343 0.262709
1.17463 0.5 -0.0994029 0.273136
1.17463 0.5 0.0994029 0.255278
1.16179 0.5 -0.200731 0.27297
1.16179 0.5 0.200731 0.239007
1.13882 0.5 -0.306265 0.267205
1.13882 0.5 0.306265 0.218572
0.219992 0.5 -1.1625 0.141892
0.219992 0.5 1.1625 0.0867288
0.467897 0.5 -1.0875 0.150611
0.467897 0.5 1.0875 0.0913129
1.17463 0.5 0.165672 0.246422
1.17463 0.5 -0.165672 0.275449
1.05695 0.5 -0.541147 0.237755
1.05695 0.5 0.541147 0.169687
1.18772 0.5 -5.78241e-19 0.268672
1.11376 0.5 -0.41587 0.257363
1.11376 0.5 0.41587 0.196677
1.18772 0.5 -0.065614 0.273965
1.18772 0.5 0.065614 0.261406
1.08112 0.5 -0.49661 0.245646
1.08112 0.5 0.49661 0.179429
1.10076 0.5 -0.454752 0.252642
1.10076 0.5 0.454752 0.188711
1.18534 0.5 0.118202 0.25366
1.16179 0.5 -0.267642 0.273044
1.16179 0.5 0.267642 0.228469
0 0.5 -1.19382 0.140639
0 0.5 1.19382 0.0854737
0.0124865 0.5 1.19382 0.0854737
0.0124865 0.5 -1.19382 0.140639
1.04168 0.5 -0.58333 0.231594
1.04168 0.5 0.58333 0.161273
1.18772 0.5 -0.131228 0.27744
1.17463 0.5 -0.23194 0.276138
1.17463 0.5 0.23194 0.236315
0.411736 0.5 -1.125 0.147191
0.411736 0.5 1.125 0.0886097
1.13882 0.5 -0.374324 0.26482
1.13882 0.5 0.374324 0.206854
0 0.5 -1.2 0.140351
0 0.5 1.2 0.0850636
0.905821 0.5 0.7875 0.126404
0.905821 0.5 -0.7875 0.197734
0.872064 0.5 -0.825 0.191356
0.872064 0.5 0.825 0.120842
0.835106 0.5 0.8625 0.115665
0.835106 0.5 -0.8625 0.18523
0.939201 0.5 -0.75 0.204352
0.939201 0.5 0.75 0.132407
0.797732 0.5 -0.9 0.179386
0.797732 0.5 0.9 0.110783
1.0271 0.5 0.625985 0.15312
1.0271 0.5 -0.625985 0.225479
0.969689 0.5 0.7125 0.138714
0.96969 0.5 -0.7125 0.211232
1.18772 0.5 -0.196842 0.278986
1.18772 0.5 0.196842 0.244073
0.756814 0.5 -0.9375 0.173772
0.756814 0.5 0.9375 0.106226
0 0.5 1.20618 0.0846543
0 0.5 -1.20618 0.140066
1.00005 0.5 -0.674378 0.217753
1.00005 0.5 0.674378 0.144988
0.0124865 0.5 1.20618 0.0846543
0.0124865 0.5 -1.20618 0.140066
1.16179 0.5 -0.334552 0.271575
1.16179 0.5 0.334552 0.216951
0.715434 0.5 0.975 0.102042
0.715434 0.5 -0.975 0.168523
0.151149 0.5 -1.2 0.140234
0.151149 0.5 1.2 0.0846214
1.20942 0.5 0.0322645 0.270629
1.20942 0.5 -0.0322645 0.276854
1.17463 0.5 -0.298209 0.275654
1.17463 0.5 0.298209 0.225126
1.20942 0.5 -0.0967935 0.281545
1.20942 0.5 0.0967935 0.263023
0.350249 0.5 -1.1625 0.143903
0.350249 0.5 1.1625 0.0861019
0.67013 0.5 1.0125 0.0981549
0.67013 0.5 -1.0125 0.163475
1.11376 0.5 0.485183 0.184369
1.11376 0.5 -0.485183 0.252785
1.18772 0.5 0.262456 0.233309
1.18772 0.5 -0.262456 0.279121
1.10076 0.5 -0.524714 0.247385
1.10076 0.5 0.524714 0.176345
1.20942 0.5 -0.161322 0.284042
1.20942 0.5 0.161322 0.2539
1.08112 0.5 -0.567554 0.239907
1.08112 0.5 0.567554 0.167149
0.624316 0.5 -1.05 0.15883
0.624316 0.5 1.05 0.0945825
1.13882 0.5 -0.442383 0.260945
1.13882 0.5 0.442383 0.194494
1.05695 0.5 0.6133 0.157544
1.05695 0.5 -0.6133 0.231584
1.16179 0.5 -0.401463 0.268433
1.16179 0.5 0.401463 0.204659
0.574156 0.5 -1.0875 0.154356
0.574156 0.5 1.0875 0.0912736
1.17463 0.5 0.364477 0.213043
1.17463 0.5 -0.364477 0.27325
1.20942 0.5 -0.225851 0.284799
1.20942 0.5 0.225851 0.243502
1.23036 0.5 -1.32995e-17 0.279048
1.2294 0.5 0.0634819 0.270837
1.04168 0.5 -0.656246 0.225046
1.04168 0.5 0.656246 0.149237
1.23036 0.5 -0.0634819 0.2846
1.18772 0.5 0.32807 0.221547
1.18772 0.5 -0.32807 0.277701
0.288069 0.5 -1.2 0.141085
0.288069 0.5 1.2 0.0838201
1.23036 0.5 -0.126964 0.288306
1.23036 0.5 0.126964 0.263447
0.075776 0.5 -1.2375 0.138625
0.075776 0.5 1.2375 0.0825878
0.523432 0.5 -1.125 0.150352
0.523432 0.5 1.125 0.0882803
1.0271 0.5 -0.69963 0.218602
1.0271 0.5 0.69963 0.14118
1.24274 0.5 0.0314313 0.278738
1.24274 0.5 -0.0314313 0.285117
1.20942 0.5 0.29038 0.231994
1.20942 0.5 -0.29038 0.284417
1.11376 0.5 -0.554494 0.246959
1.11376 0.5 0.554494 0.171765
1.23036 0.5 -0.190445 0.289997
1.23036 0.5 0.190445 0.253517
1.24274 0.5 -0.0942942 0.290027
1.24274 0.5 0.0942942 0.270817
1.13882 0.5 0.510442 0.181711
1.13882 0.5 -0.510442 0.255574
0.969689 0.5 -0.7875 0.204464
0.969689 0.5 0.7875 0.128011
1.00005 0.5 -0.749309 0.210859
1.00005 0.5 0.749309 0.133508
0.939201 0.5 -0.825 0.197747
0.939201 0.5 0.825 0.122137
0.90582 0.5 0.8625 0.116597
0.90582 0.5 -0.8625 0.191318
1.17463 0.5 -0.430746 0.269381
1.17463 0.5 0.430746 0.200288
1.10076 0.5 -0.594676 0.241094
1.10076 0.5 0.594676 0.163799
1.18772 0.5 -0.393684 0.274574
1.18772 0.5 0.393684 0.208989
1.24274 0.5 -0.157157 0.292723
1.24274 0.5 0.157157 0.261424
1.16179 0.5 -0.468373 0.263748
1.16179 0.5 0.468373 0.191817
0.467897 0.5 -1.1625 0.146488
0.467897 0.5 1.1625 0.0855072
0.872064 0.5 -0.9 0.185161
0.872064 0.5 0.9 0.111577
1.25401 0.5 2.08167e-17 0.284593
0.835106 0.5 0.9375 0.1069
0.835106 0.5 -0.9375 0.179262
1.25401 0.5 -0.0622994 0.290301
1.25401 0.5 0.0622994 0.277064
1.08112 0.5 -0.638498 0.233223
1.08112 0.5 0.638498 0.154807
1.23036 0.5 -0.253927 0.290237
1.23036 0.5 0.253927 0.242377
0.219992 0.5 1.2375 0.0816936
0.219992 0.5 -1.2375 0.138367
1.25309 0.5 0.121964 0.26864
1.05695 0.5 0.685452 0.145433
1.05695 0.5 -0.685452 0.224571
0.797732 0.5 0.975 0.102494
0.797732 0.5 -0.975 0.173659
1.25401 0.5 -0.124599 0.294163
1.20942 0.5 -0.354909 0.282041
1.20942 0.5 0.354909 0.219562
1.24274 0.5 -0.220019 0.293548
1.24274 0.5 0.220019 0.250733
0.756814 0.5 -1.0125 0.168286
0.756813 0.5 1.0125 0.0983963
1.25401 0.5 -0.186898 0.295962
1.25401 0.5 0.186898 0.258513
0.411736 0.5 -1.2 0.143217
0.411736 0.5 1.2 0.0830721
0 0.5 -1.26882 0.137131
0 0.5 1.26882 0.080577
0.0124865 0.5 1.26882 0.080577
0.0124865 0.5 -1.26882 0.137131
0.715434 0.5 -1.05 0.163275
0.715434 0.5 1.05 0.0946518
1.23036 0.5 -0.31741 0.288888
1.23036 0.5 0.31741 0.230199
1.04168 0.5 -0.729162 0.217807
1.04168 0.5 0.729162 0.13728
1.18772 0.5 -0.459298 0.269859
1.18772 0.5 0.459298 0.195863
1.24274 0.5 -0.282882 0.29329
1.24274 0.5 0.282882 0.238903
0 0.5 -1.275 0.136836
0 0.5 1.275 0.0801797
1.27472 0.5 -0.0306319 0.29342
1.27472 0.5 0.0306319 0.286814
1.17463 0.5 0.497015 0.187088
1.17463 0.5 -0.497015 0.263856
1.11376 0.5 -0.623806 0.240144
1.11376 0.5 0.623806 0.159088
1.13882 0.5 -0.578501 0.249114
1.13882 0.5 0.578501 0.168734
0.67013 0.5 -1.0875 0.158462
0.67013 0.5 1.0875 0.0911849
1.27472 0.5 -0.0918959 0.29851
1.27472 0.5 0.0918959 0.27722
1.25401 0.5 -0.249197 0.296274
1.25401 0.5 0.249197 0.247158
1.16179 0.5 -0.535284 0.257717
1.16179 0.5 0.535284 0.178655
1.20942 0.5 -0.419438 0.278191
1.20942 0.5 0.419438 0.206426
0 0.5 -1.28118 0.136542
0 0.5 1.28118 0.079783
0.0124865 0.5 1.28118 0.079783
0.0124865 0.5 -1.28118 0.136542
1.27472 0.5 0.15316 0.268995
1.27472 0.5 -0.15316 0.30143
0.151149 0.5 -1.275 0.136689
0.151149 0.5 1.275 0.0797035
1.0271 0.5 0.773275 0.129267
1.0271 0.5 -0.773275 0.211179
1.10076 0.5 0.664638 0.151302
1.10076 0.5 -0.664638 0.233892
0.350249 0.5 -1.2375 0.14008
0.350249 0.5 1.2375 0.0808184
0.624316 0.5 -1.125 0.154033
0.624316 0.5 1.125 0.0879989
1.23036 0.5 0.380892 0.217184
1.23036 0.5 -0.380892 0.285781
1.24274 0.5 -0.345745 0.290953
1.24274 0.5 0.345745 0.226119
1.2906 0.5 0 0.294367
1.2906 0.5 -0.0604698 0.300346
1.2906 0.5 0.0604698 0.286856
1.25401 0.5 -0.311497 0.294994
1.25401 0.5 0.311497 0.234746
1.27472 0.5 -0.214423 0.302382
1.27472 0.5 0.214423 0.25802
1.08112 0.5 0.709442 0.142617
1.08112 0.5 -0.709442 0.225791
1.00005 0.5 -0.824239 0.203494
1.00005 0.5 0.824239 0.122355
1.2906 0.5 -0.12094 0.304481
1.2906 0.5 0.12094 0.277806
0.574156 0.5 -1.1625 0.149776
0.574156 0.5 1.1625 0.0850559
0.969689 0.5 -0.8625 0.197292
0.96969 0.5 0.8625 0.117521
1.18772 0.5 0.524912 0.182402
1.18772 0.5 -0.524912 0.263733
1.05695 0.5 -0.757605 0.216976
1.05695 0.5 0.757605 0.13357
0.939201 0.5 -0.9 0.190824
0.939201 0.5 0.9 0.112162
1.30091 0.5 -0.0299772 0.300505
1.30091 0.5 0.0299772 0.293699
1.20942 0.5 -0.483967 0.272569
1.20942 0.5 0.483967 0.192819
1.17463 0.5 -0.563284 0.257229
1.17463 0.5 0.563284 0.173684
1.2906 0.5 -0.181409 0.30648
1.2906 0.5 0.181409 0.26734
0.90582 0.5 0.9375 0.107148
0.90582 0.5 -0.9375 0.184646
1.30091 0.5 -0.0899316 0.30576
1.30091 0.5 0.0899316 0.282544
1.27472 0.5 0.275687 0.245879
1.27472 0.5 -0.275687 0.30219
0.288069 0.5 -1.275 0.137363
0.288069 0.5 1.275 0.0787494
0.872064 0.5 -0.975 0.178758