# UMean  POINT_DATA 63840
# x  y  z  UMean_x  UMean_y  UMean_z
0 0.5 3.39583e-17 0.848048 0 0.529919
0 0.5 -0.00617931 0.848048 0 0.529919
0 0.5 0.00617931 0.848048 0 0.529919
0.0124865 0.5 -0.00617931 0.848023 0.000877548 0.530321
0.0124865 0.5 0.00617931 0.848023 0.000871623 0.530431
0 0.5 -0.0688207 0.848048 0 0.529919
0 0.5 0.0688207 0.848048 0 0.529919
0.0124865 0.5 -0.0688207 0.848023 0.000877548 0.530321
0.0124865 0.5 0.0688207 0.848023 0.000871623 0.530431
0 0.5 -0.075 0.848048 0 0.529919
0 0.5 0.075 0.848048 0 0.529919
0 0.5 -0.0811793 0.848048 0 0.529919
0 0.5 0.0811793 0.848048 0 0.529919
0.0124865 0.5 -0.0811793 0.848023 0.000879377 0.530207
0.0124865 0.5 0.0811793 0.848026 0.000861664 0.530538
0.075776 0.5 -0.0375 0.847871 0.00531866 0.532348
0.075776 0.5 0.0375 0.847874 0.00528292 0.533015
0.075776 0.5 -0.1125 0.847873 0.00533003 0.531662
0.075776 0.5 0.1125 0.847887 0.00522299 0.533658
0 0.5 -0.143821 0.848048 0 0.529919
0 0.5 0.143821 0.848048 0 0.529919
0.0124865 0.5 -0.143821 0.848023 0.000879377 0.530207
0.0124865 0.5 0.143821 0.848026 0.000861664 0.530538
0 0.5 -0.15 0.848048 0 0.529919
0 0.5 0.15 0.848048 0 0.529919
0.151149 0.5 -0.00137318 0.846769 0.00886527 0.534468
0 0.5 -0.156179 0.848048 0 0.529919
0 0.5 0.156179 0.848048 0 0.529919
0.0124865 0.5 -0.156179 0.848021 0.000877309 0.530097
0.0124865 0.5 0.156179 0.848029 0.000848399 0.530638
0.151149 0.5 0.075 0.846807 0.00883117 0.535611
0.151149 0.5 -0.075 0.846735 0.00891776 0.533235
0.075776 0.5 -0.1875 0.847863 0.00531795 0.530997
0.075776 0.5 0.1875 0.847908 0.00514271 0.534265
0.151149 0.5 0.15 0.846875 0.00873499 0.536741
0.151149 0.5 -0.15 0.846725 0.0089102 0.532023
0 0.5 -0.218821 0.848048 0 0.529919
0 0.5 0.218821 0.848048 0 0.529919
0.0124865 0.5 -0.218821 0.848021 0.000877309 0.530097
0.0124865 0.5 0.218821 0.848029 0.000848399 0.530638
0.219992 0.5 0.0375 0.845756 0.0122236 0.536919
0.219993 0.5 -0.0375 0.845686 0.0122733 0.535249
0 0.5 -0.225 0.848048 0 0.529919
0 0.5 0.225 0.848048 0 0.529919
0 0.5 -0.231179 0.848048 0 0.529919
0 0.5 0.231179 0.848048 0 0.529919
0.0124865 0.5 -0.231179 0.848022 0.000873003 0.529981
0.0124865 0.5 0.231179 0.848034 0.000832193 0.530731
0.219992 0.5 0.1125 0.845856 0.0121264 0.538557
0.219993 0.5 -0.1125 0.845659 0.0122782 0.533522
0.151149 0.5 -0.225 0.846729 0.00887316 0.530823
0.151149 0.5 0.225 0.846964 0.00860574 0.537809
0.075776 0.5 -0.2625 0.847865 0.00529194 0.530301
0.075776 0.5 0.2625 0.847934 0.00504427 0.53483
0.288069 0.5 -0.00137318 0.843018 0.0155529 0.537382
0.219992 0.5 0.1875 0.845987 0.0119826 0.540123
0.219993 0.5 -0.1875 0.845654 0.0122447 0.531821
0 0.5 0.293821 0.848048 0 0.529919
0 0.5 -0.293821 0.848048 0 0.529919
0.0124865 0.5 -0.293821 0.848022 0.000873003 0.529981
0.0124865 0.5 0.293821 0.848034 0.000832193 0.530731
0.288069 0.5 -0.075 0.842914 0.0156044 0.53509
0.288069 0.5 0.075 0.843143 0.0154949 0.539506
0 0.5 -0.3 0.848048 0 0.529919
0 0.5 0.3 0.848048 0 0.529919
0 0.5 0.306179 0.848048 0 0.529919
0 0.5 -0.306179 0.848048 0 0.529919
0.0124865 0.5 -0.306179 0.848022 0.000866157 0.529872
0.0124865 0.5 0.306179 0.848039 0.000813431 0.530816
0.288069 0.5 -0.15 0.8429 0.0155748 0.532856
0.288069 0.5 0.15 0.843354 0.0153535 0.541631
0.151149 0.5 -0.3 0.846751 0.00880771 0.529641
0.151149 0.5 0.3 0.847071 0.00844587 0.538802
0.219992 0.5 -0.2625 0.845683 0.0121705 0.53015
0.219992 0.5 0.2625 0.846153 0.0117934 0.541595
0.075776 0.5 0.3375 0.847967 0.00492999 0.535345
0.075776 0.5 -0.3375 0.847864 0.00525057 0.529644
0.350249 0.5 -0.0375 0.840358 0.0187269 0.537115
0.350249 0.5 0.0375 0.84052 0.0186682 0.539825
0.288069 0.5 -0.225 0.842949 0.0154908 0.530657
0.288069 0.5 0.225 0.843628 0.0151534 0.543654
0.350249 0.5 0.1125 0.840773 0.0185418 0.542504
0.350249 0.5 -0.1125 0.840297 0.0187181 0.534385
0 0.5 0.368821 0.848048 0 0.529919
0 0.5 -0.368821 0.848048 0 0.529919
0.0124865 0.5 -0.368821 0.848022 0.000866157 0.529872
0.0124865 0.5 0.368821 0.848039 0.000813431 0.530816
0 0.5 -0.375 0.848048 0 0.529919
0 0.5 0.375 0.848048 0 0.529919
0 0.5 -0.381179 0.848048 0 0.529919
0 0.5 0.381179 0.848048 0 0.529919
0.0124865 0.5 -0.381179 0.848023 0.000856297 0.529764
0.0124865 0.5 0.381179 0.848045 0.000792491 0.530892
0.350249 0.5 -0.1875 0.840336 0.0186391 0.531672
0.350249 0.5 0.1875 0.841121 0.018346 0.545058
0.219992 0.5 -0.3375 0.84574 0.0120544 0.528513
0.219992 0.5 0.3375 0.846347 0.0115629 0.542954
0.151149 0.5 -0.375 0.846794 0.00871349 0.528504
0.151149 0.5 0.375 0.847194 0.0082584 0.539705
0.411736 0.5 -0.00137318 0.836614 0.0219295 0.539386
0.288069 0.5 -0.3 0.843059 0.0153529 0.528513
0.288069 0.5 0.3 0.843961 0.0148973 0.545551
0.411736 0.5 -0.075 0.83645 0.0219689 0.536012
0.411736 0.5 0.075 0.836849 0.0218551 0.542516
0.075776 0.5 -0.4125 0.847874 0.00519094 0.528988
0.075776 0.5 0.4125 0.848004 0.00480227 0.535805
0.350249 0.5 -0.2625 0.840462 0.0184935 0.529026
0.350249 0.5 0.2625 0.841557 0.018079 0.547494
0.411736 0.5 -0.15 0.836462 0.0218975 0.532755
0.411736 0.5 0.15 0.837259 0.0216709 0.545671
0 0.5 -0.443821 0.848048 0 0.529919
0 0.5 0.443821 0.848048 0 0.529919
0.0124865 0.5 -0.443821 0.848023 0.000856297 0.529764
0.0124865 0.5 0.443821 0.848045 0.000792491 0.530892
0 0.5 -0.45 0.848048 0 0.529919
0 0.5 0.45 0.848048 0 0.529919
0 0.5 -0.456179 0.848048 0 0.529919
0 0.5 0.456179 0.848048 0 0.529919
0.0124865 0.5 -0.456179 0.848029 0.000842949 0.529663
0.0124865 0.5 0.456179 0.848053 0.000769726 0.530958
0.219992 0.5 -0.4125 0.845839 0.0119003 0.526975
0.219993 0.5 0.4125 0.846565 0.0112943 0.544182
0.411736 0.5 -0.225 0.836612 0.0217413 0.52956
0.411736 0.5 0.225 0.837803 0.0214019 0.548695
0.467897 0.5 0.0375 0.833066 0.0249861 0.541935
0.467897 0.5 -0.0375 0.832829 0.0250413 0.538149
0.288069 0.5 -0.375 0.843233 0.0151641 0.526461
0.288069 0.5 0.375 0.844346 0.0145894 0.547292
0.151149 0.5 -0.45 0.846866 0.00859121 0.527421
0.151149 0.5 0.45 0.847331 0.00804635 0.540509
0.467897 0.5 -0.1125 0.832771 0.024995 0.534365
0.467897 0.5 0.1125 0.833485 0.0248296 0.545644
0.350249 0.5 0.3375 0.842075 0.0177472 0.549755
0.350249 0.5 -0.3375 0.840681 0.018283 0.526463
0.075776 0.5 -0.4875 0.847904 0.00511029 0.528378
0.075776 0.5 0.4875 0.848047 0.00466317 0.536204
0.467897 0.5 -0.1875 0.832898 0.0248465 0.530628
0.467897 0.5 0.1875 0.834089 0.0245745 0.549258
0.411736 0.5 -0.3 0.836895 0.0215048 0.526466
0.411736 0.5 0.3 0.838472 0.0210504 0.551544
0 0.5 -0.518821 0.848048 0 0.529919
0 0.5 0.518821 0.848048 0 0.529919
0.0124865 0.5 0.518821 0.848053 0.000769726 0.530958
0.0124865 0.5 -0.518821 0.848029 0.000842949 0.529663
0.523432 0.5 -0.00137318 0.828241 0.028228 0.540626
0 0.5 -0.525 0.848048 0 0.529919
0 0.5 0.525 0.848048 0 0.529919
0.523432 0.5 -0.075 0.828043 0.0282352 0.536134
0.523432 0.5 0.075 0.828587 0.0281493 0.544796
0 0.5 -0.531179 0.848048 0 0.529919
0 0.5 0.531179 0.848048 0 0.529919
0.0124865 0.5 -0.531179 0.848032 0.000827568 0.52957
0.0124865 0.5 0.531179 0.84806 0.000745398 0.531013
0.288069 0.5 -0.45 0.843471 0.0149313 0.524523
0.288069 0.5 0.45 0.844775 0.0142341 0.548857
0.219992 0.5 -0.4875 0.845981 0.0117124 0.525505
0.219993 0.5 0.4875 0.846801 0.0109919 0.545263
0.467897 0.5 -0.2625 0.8332 0.0246001 0.527003
0.467897 0.5 0.2625 0.834862 0.024221 0.552689
0.350249 0.5 -0.4125 0.840993 0.0180153 0.524052
0.350249 0.5 0.4125 0.842664 0.017354 0.551818
0.523432 0.5 -0.15 0.828126 0.0280981 0.531829
0.523432 0.5 0.15 0.829213 0.0279276 0.549016
0.151149 0.5 -0.525 0.846954 0.00844484 0.526406
0.151149 0.5 0.525 0.847478 0.00781292 0.541206
0.411736 0.5 -0.375 0.837306 0.0211947 0.523523
0.411736 0.5 0.375 0.839252 0.0206219 0.554177
0.075776 0.5 -0.5625 0.847927 0.00501711 0.527814
0.075776 0.5 0.5625 0.848092 0.00451443 0.53654
0.523432 0.5 -0.225 0.828442 0.0278444 0.527629
0.523432 0.5 0.225 0.830067 0.0275897 0.553083
0.574156 0.5 -0.0375 0.823554 0.0313193 0.538451
0.574156 0.5 0.0375 0.82386 0.0312878 0.543338
0.467897 0.5 0.3375 0.835787 0.023774 0.555899
0.467897 0.5 -0.3375 0.833671 0.0242635 0.523519
0.574156 0.5 -0.1125 0.823539 0.0312124 0.533585
0.574156 0.5 0.1125 0.824453 0.0311184 0.548157
0 0.5 -0.593821 0.848048 0 0.529919
0 0.5 0.593821 0.848048 0 0.529919
0.0124865 0.5 -0.593821 0.848032 0.000827568 0.52957
0.0124865 0.5 0.593821 0.84806 0.000745398 0.531013
0.288069 0.5 -0.525 0.843753 0.0146606 0.522706
0.288069 0.5 0.525 0.845238 0.0138372 0.550227
0 0.5 -0.6 0.848048 0 0.529919
0 0.5 0.6 0.848048 0 0.529919
0.350249 0.5 -0.4875 0.841378 0.0177016 0.521769
0.350249 0.5 0.4875 0.843312 0.0169061 0.553656
0.523432 0.5 -0.3 0.828979 0.0274819 0.523587
0.523432 0.5 0.3 0.831134 0.0271392 0.556929
0.219992 0.5 -0.5625 0.846131 0.0114965 0.524144
0.219992 0.5 0.5625 0.847051 0.0106602 0.546188
0.574156 0.5 -0.1875 0.823813 0.03097 0.52881
0.574156 0.5 0.1875 0.825327 0.0308145 0.552836
0 0.5 -0.606179 0.848048 0 0.529919
0 0.5 0.606179 0.848048 0 0.529919
0.0124865 0.5 -0.606179 0.848037 0.00081052 0.529484
0.0124865 0.5 0.606179 0.848068 0.000719806 0.531058
0.411736 0.5 -0.45 0.837829 0.0208215 0.520757
0.411736 0.5 0.45 0.840127 0.0201224 0.556559
0.151149 0.5 -0.6 0.847048 0.00827957 0.525468
0.151149 0.5 0.6 0.847631 0.00756137 0.541788
0.62168 0.5 2.64545e-17 0.818586 0.0343544 0.541246
0.467897 0.5 0.4125 0.836848 0.02324 0.558841
0.467897 0.5 -0.4125 0.834296 0.0238464 0.520257
0.624316 0.5 0.0729402 0.818748 0.0344576 0.546469
0.624316 0.5 -0.075 0.818092 0.0344792 0.535577
0.574156 0.5 -0.2625 0.824363 0.0305986 0.524203
0.574157 0.5 0.2625 0.826475 0.0303797 0.557319
0.075776 0.5 -0.6375 0.847952 0.00491352 0.527293
0.075776 0.5 0.6375 0.848139 0.0043582 0.53681
0.624316 0.5 -0.15 0.818299 0.0342553 0.530201
0.624316 0.5 0.15 0.819602 0.0342116 0.551804
0.523432 0.5 -0.375 0.82972 0.0270212 0.519766
0.523432 0.5 0.375 0.832389 0.0265826 0.560498
0.350249 0.5 -0.5625 0.841812 0.0173453 0.519666
0.350249 0.5 0.5625 0.844003 0.0164108 0.555248
0.624316 0.5 -0.225 0.818848 0.0338823 0.524984
0.624316 0.5 0.225 0.820793 0.0338134 0.556954
0.288069 0.5 0.6 0.845725 0.0134047 0.55139
0.288069 0.5 -0.6 0.844067 0.0143569 0.521036
0.574156 0.5 -0.3375 0.825173 0.0301112 0.519805
0.574156 0.5 0.3375 0.827871 0.0298191 0.561523
0.411736 0.5 -0.525 0.83844 0.0203941 0.518188
0.411736 0.5 0.525 0.841079 0.0195597 0.558662
0 0.5 -0.668821 0.848048 0 0.529919
0 0.5 0.668821 0.848048 0 0.529919
0.0124865 0.5 -0.668821 0.848037 0.00081052 0.529484
0.0124865 0.5 0.668821 0.848068 0.000719806 0.531058
0.67013 0.5 0.0375 0.813229 0.0376179 0.544168
0.67013 0.5 -0.0375 0.812878 0.0376091 0.538145
0.219993 0.5 -0.6375 0.846298 0.0112568 0.522891
0.219993 0.5 0.6375 0.847308 0.0103038 0.546949
0 0.5 -0.675 0.848048 0 0.529919
0 0.5 0.675 0.848048 0 0.529919
0.467897 0.5 0.4875 0.838022 0.0226267 0.561478
0.467897 0.5 -0.4875 0.835045 0.023362 0.5172
0.67013 0.5 -0.1125 0.812952 0.0374237 0.53217
0.67013 0.5 0.1125 0.813998 0.0374498 0.55014
0 0.5 -0.681179 0.848048 0 0.529919
0 0.5 0.681179 0.848048 0 0.529919
0.0124865 0.5 -0.681179 0.848041 0.000792001 0.529405
0.0124865 0.5 0.681179 0.848075 0.000693486 0.531092
0.523432 0.5 -0.45 0.830637 0.0264746 0.516205
0.523432 0.5 0.45 0.833805 0.0259284 0.563741
0.151149 0.5 -0.675 0.84715 0.00809778 0.524611
0.151149 0.5 0.675 0.847788 0.00729548 0.542252
0.624316 0.5 -0.3 0.819722 0.0333716 0.519995
0.624316 0.5 0.3 0.822302 0.0332684 0.561842
0.67013 0.5 0.1875 0.815166 0.0371085 0.55595
0.67013 0.5 -0.1875 0.813437 0.0370679 0.526338
0.574156 0.5 -0.4125 0.82621 0.0295189 0.515713
0.574157 0.5 0.4125 0.829481 0.0291421 0.56539
0.708171 0.5 1.88651e-17 0.808072 0.0403451 0.541563
0.075776 0.5 -0.7125 0.847981 0.00480066 0.526821
0.075776 0.5 0.7125 0.848184 0.00419718 0.537014
0.715434 0.5 0.0736268 0.80782 0.0407307 0.547803
0.715434 0.5 -0.075 0.806964 0.0407265 0.534457
0.67013 0.5 0.2625 0.816721 0.0365993 0.561521
0.67013 0.5 -0.2625 0.814312 0.036552 0.520738
0.350249 0.5 -0.6375 0.842295 0.016952 0.517747
0.350249 0.5 0.6375 0.844724 0.0158755 0.55658
0.411736 0.5 -0.6 0.839124 0.0199189 0.515848
0.411736 0.5 0.6 0.842087 0.0189427 0.560464
0.624316 0.5 -0.375 0.820889 0.0327371 0.515311
0.624316 0.5 0.375 0.824096 0.0325848 0.56639
0.715434 0.5 -0.15 0.807346 0.0403986 0.527988
0.715434 0.5 0.15 0.808769 0.0405406 0.554145
0.467897 0.5 -0.5625 0.835898 0.0228181 0.514412
0.467897 0.5 0.5625 0.839285 0.0219438 0.563779
0.288069 0.5 -0.675 0.84441 0.0140244 0.519519
0.288069 0.5 0.675 0.846227 0.012943 0.552336
0.523432 0.5 -0.525 0.831699 0.0258546 0.512931
0.523432 0.5 0.525 0.835354 0.0251865 0.566616
0 0.5 -0.743821 0.848048 0 0.529919
0 0.5 0.743821 0.848048 0 0.529919
0.0124865 0.5 -0.743821 0.848041 0.000792001 0.529405
0.0124865 0.5 0.743821 0.848075 0.000693486 0.531092
0.219992 0.5 0.7125 0.847571 0.009928 0.547544
0.219992 0.5 -0.7125 0.846479 0.0109954 0.521756
0.715434 0.5 -0.225 0.808197 0.0398881 0.521741
0.715434 0.5 0.225 0.810322 0.0400906 0.560427
0 0.5 -0.75 0.848048 0 0.529919
0 0.5 0.75 0.848048 0 0.529919
0.67013 0.5 0.3375 0.818636 0.0359293 0.566762
0.67013 0.5 -0.3375 0.815551 0.0358928 0.515435
0.574156 0.5 -0.4875 0.827439 0.0288374 0.511921
0.574156 0.5 0.4875 0.83127 0.0283588 0.568866
0 0.5 -0.756179 0.848048 0 0.529919
0 0.5 0.756179 0.848048 0 0.529919
0.0124865 0.5 -0.756179 0.848047 0.000772229 0.529336
0.0124865 0.5 0.756179 0.848081 0.000666908 0.531114
0.756813 0.5 -0.0375 0.801184 0.0439107 0.537343
0.756813 0.5 0.0375 0.80155 0.0439741 0.54454
0.151149 0.5 -0.75 0.847261 0.00790133 0.523839
0.151149 0.5 0.75 0.847945 0.00701975 0.542599
0.756813 0.5 -0.1125 0.801391 0.0436316 0.530232
0.756813 0.5 0.1125 0.802485 0.0438193 0.5517
0.624316 0.5 -0.45 0.822307 0.0319934 0.510982
0.624316 0.5 0.45 0.826134 0.0317736 0.570533
0.715434 0.5 -0.3 0.809487 0.0392102 0.515805
0.715434 0.5 0.3 0.812313 0.0394563 0.566401
0.756813 0.5 0.1875 0.803964 0.0434499 0.55869
0.756813 0.5 -0.1875 0.802147 0.0431459 0.523325
0.67013 0.5 -0.4125 0.817108 0.0351035 0.510535
0.67013 0.5 0.4125 0.820863 0.0351095 0.571593
0.411736 0.5 -0.675 0.839868 0.0194027 0.513745
0.411736 0.5 0.675 0.843131 0.0182805 0.561951
0.467897 0.5 0.6375 0.840609 0.0212016 0.565723
0.467897 0.5 -0.6375 0.836837 0.0222229 0.511897
0.075776 0.5 -0.7875 0.848011 0.00468001 0.526397
0.075776 0.5 0.7875 0.848225 0.00403446 0.537151
0.350249 0.5 -0.7125 0.842818 0.0165265 0.516025
0.350249 0.5 0.7125 0.845459 0.0153083 0.557644
0.523432 0.5 -0.6 0.832879 0.0251713 0.509981
0.523432 0.5 0.6 0.837 0.0243682 0.569095
0.797732 0.5 2.68882e-17 0.795004 0.047176 0.54064
0.756813 0.5 -0.2625 0.803418 0.0424685 0.516726
0.756814 0.5 0.2625 0.805957 0.0428727 0.565394
0.797732 0.5 0.0736268 0.795768 0.0471241 0.5487
0.797732 0.5 -0.075 0.794976 0.0469624 0.532881
0.288069 0.5 -0.75 0.844778 0.0136666 0.518163
0.288069 0.5 0.75 0.846735 0.0124591 0.553063
0.574156 0.5 -0.5625 0.828827 0.0280793 0.5085
0.574157 0.5 0.5625 0.833201 0.0274815 0.571912
0.715434 0.5 -0.375 0.811174 0.0383812 0.510269
0.715434 0.5 0.375 0.814699 0.0386478 0.571968
0.797732 0.5 -0.15 0.795591 0.0465182 0.525298
0.797732 0.5 0.15 0.797012 0.0468902 0.556135
0.624316 0.5 -0.525 0.823934 0.0311569 0.507046
0.624316 0.5 0.525 0.828368 0.0308478 0.574217
0.219992 0.5 -0.7875 0.846672 0.0107151 0.520743
0.219992 0.5 0.7875 0.847838 0.00953965 0.547971
0 0.5 -0.818821 0.848048 0 0.529919
0 0.5 0.818821 0.848048 0 0.529919
0.0124865 0.5 0.818821 0.848081 0.000666908 0.531114
0.0124865 0.5 -0.818821 0.848047 0.000772229 0.529336
0 0.5 -0.825 0.848048 0 0.529919
0 0.5 0.825 0.848048 0 0.529919
0.756813 0.5 0.3375 0.808433 0.0420969 0.57172
0.756814 0.5 -0.3375 0.805172 0.0416182 0.510528
0.67013 0.5 -0.4875 0.818929 0.0342034 0.506042
0.67013 0.5 0.4875 0.823351 0.0341539 0.575945
0.797732 0.5 -0.225 0.796811 0.0458569 0.518014
0.797732 0.5 0.225 0.798945 0.0463953 0.563593
0 0.5 -0.831179 0.848048 0 0.529919
0 0.5 0.831179 0.848048 0 0.529919
0.0124865 0.5 -0.831179 0.848052 0.000751533 0.529274
0.0124865 0.5 0.831179 0.848087 0.000640232 0.531126
0.835106 0.5 0.0375 0.78908 0.0503179 0.544552
0.835106 0.5 -0.0375 0.788733 0.0501909 0.53615
0.151149 0.5 -0.825 0.847378 0.00769254 0.523156
0.151149 0.5 0.825 0.848104 0.00673751 0.54283
0.835106 0.5 0.1125 0.790162 0.0501852 0.552933
0.835106 0.5 -0.1125 0.789124 0.0498093 0.527875
0.715434 0.5 -0.45 0.813196 0.0374193 0.505195
0.715434 0.5 0.45 0.817423 0.0376787 0.577046
0.797732 0.5 -0.3 0.798593 0.0449963 0.511132
0.797732 0.5 0.3 0.80145 0.0456765 0.57069
0.467897 0.5 0.7125 0.841966 0.020411 0.567298
0.467897 0.5 -0.7125 0.837841 0.0215851 0.509673
0.523432 0.5 -0.675 0.834152 0.0244351 0.507366
0.523432 0.5 0.675 0.838709 0.0234858 0.571156
0.411736 0.5 -0.75 0.840656 0.0188523 0.511889
0.411736 0.5 0.75 0.844188 0.0175826 0.563117
0.835106 0.5 -0.1875 0.79022 0.0491843 0.519883
0.835106 0.5 0.1875 0.791954 0.0497947 0.561139
0.574156 0.5 -0.6375 0.83034 0.0272562 0.505456
0.574157 0.5 0.6375 0.835231 0.0265231 0.574497
0.350249 0.5 -0.7875 0.843368 0.0160738 0.514507
0.350249 0.5 0.7875 0.846196 0.0147173 0.558439
0.756813 0.5 -0.4125 0.807341 0.0406113 0.504825
0.756814 0.5 0.4125 0.811333 0.0411348 0.577542
0.075776 0.5 -0.8625 0.848045 0.00455344 0.526024
0.075776 0.5 0.8625 0.848261 0.00387133 0.537226
0.624316 0.5 0.6 0.830748 0.0298218 0.577401
0.624316 0.5 -0.6 0.825727 0.0302417 0.503542
0.872064 0.5 5.91974e-17 0.78238 0.0534177 0.539898
0.870122 0.5 0.075 0.783567 0.0532446 0.54928
0.288069 0.5 -0.825 0.845161 0.0132877 0.516972
0.288069 0.5 0.825 0.847241 0.0119589 0.553573
0.67013 0.5 -0.5625 0.820967 0.0332095 0.502035
0.67013 0.5 0.5625 0.826041 0.0330775 0.579764
0.872064 0.5 -0.075 0.782463 0.0531182 0.530947
0.835106 0.5 -0.2625 0.791956 0.0483343 0.512287
0.835106 0.5 0.2625 0.794408 0.0491549 0.56902
0.797732 0.5 -0.375 0.800884 0.0439559 0.504749
0.797732 0.5 0.375 0.804474 0.0447456 0.577314
0.872064 0.5 0.14794 0.784677 0.0531824 0.557843
0.872064 0.5 -0.15 0.783358 0.0525503 0.522239
0.715434 0.5 -0.525 0.815494 0.0363448 0.500634
0.715434 0.5 0.525 0.82042 0.0365657 0.581568
0.219992 0.5 0.8625 0.848115 0.00914062 0.548239
0.219993 0.5 -0.8625 0.846872 0.0104187 0.519855
0 0.5 -0.893821 0.848048 0 0.529919
0 0.5 0.893821 0.848048 0 0.529919
0.0124865 0.5 -0.893821 0.848052 0.000751533 0.529274
0.0124865 0.5 0.893821 0.848087 0.000640232 0.531126
0 0.5 -0.9 0.848048 0 0.529919
0 0.5 0.9 0.848048 0 0.529919
0.756813 0.5 -0.4875 0.809852 0.0394715 0.499661
0.756813 0.5 0.4875 0.81458 0.0400046 0.582803
0.872064 0.5 -0.225 0.785002 0.05173 0.51392
0.872064 0.5 0.225 0.787002 0.0526499 0.566507
0.835106 0.5 -0.3375 0.794301 0.0472786 0.505193
0.835106 0.5 0.3375 0.797481 0.0482766 0.576449
0 0.5 0.906179 0.848048 0 0.529919
0 0.5 -0.906179 0.848048 0 0.529919
0.0124865 0.5 -0.906179 0.848058 0.000730128 0.529221
0.0124865 0.5 0.906179 0.848091 0.000614553 0.531129
0.90582 0.5 -0.0375 0.775938 0.0563417 0.534647
0.90582 0.5 0.0375 0.776256 0.0565381 0.544277
0.151149 0.5 -0.9 0.847499 0.0074739 0.522561
0.151149 0.5 0.9 0.848263 0.00645221 0.54295
0.90582 0.5 -0.1125 0.776537 0.0558522 0.525194
0.905821 0.5 0.1125 0.777481 0.0564347 0.553901
0.523432 0.5 -0.75 0.835485 0.0236566 0.505095
0.523432 0.5 0.75 0.840444 0.0225523 0.57279
0.574156 0.5 -0.7125 0.83194 0.0263813 0.502807
0.574156 0.5 0.7125 0.837316 0.0254984 0.576605
0.797732 0.5 -0.45 0.803603 0.0427586 0.498947
0.797732 0.5 0.45 0.807942 0.0436188 0.583356
0.467897 0.5 0.7875 0.843327 0.019583 0.568498
0.467897 0.5 -0.7875 0.838887 0.0209131 0.507742
0.624316 0.5 -0.675 0.82764 0.0292625 0.500484
0.624316 0.5 0.675 0.833224 0.0287112 0.580058
0.411736 0.5 -0.825 0.841471 0.0182745 0.510283
0.411736 0.5 0.825 0.845234 0.0168581 0.563961
0.872064 0.5 0.3 0.790044 0.0518526 0.574756
0.872064 0.5 -0.3 0.787328 0.0506767 0.506093
0.67013 0.5 -0.6375 0.823167 0.0321373 0.498521
0.67013 0.5 0.6375 0.828874 0.0318972 0.583013
0.90582 0.5 0.1875 0.779587 0.0560315 0.563339
0.905821 0.5 -0.1875 0.778023 0.0550817 0.516124
0.350249 0.5 -0.8625 0.843935 0.0155993 0.513193
0.350249 0.5 0.8625 0.84691 0.0141085 0.558971
0.835106 0.5 -0.4125 0.79717 0.0460399 0.498692
0.835106 0.5 0.4125 0.801101 0.0471752 0.583324
0.715434 0.5 -0.6 0.818006 0.0351766 0.496627
0.715434 0.5 0.6 0.82362 0.0353268 0.585479
0.939201 0.5 2.75387e-17 0.769255 0.059709 0.538893
0.075776 0.5 0.9375 0.848286 0.00371272 0.537241
0.075776 0.5 -0.9375 0.848079 0.00442237 0.525701
0.939111 0.5 0.075 0.770136 0.0597739 0.550034
0.939201 0.5 -0.075 0.769496 0.0593161 0.528703
0.756813 0.5 0.5625 0.818105 0.0387249 0.58742
0.756814 0.5 -0.5625 0.812642 0.0382202 0.495108
0.90582 0.5 0.2625 0.78252 0.0553367 0.572426
0.905821 0.5 -0.2625 0.78026 0.0540526 0.507544
0.288069 0.5 -0.9 0.845553 0.0128922 0.515947
0.288069 0.5 0.9 0.847737 0.011446 0.553875
0.872064 0.5 -0.375 0.790286 0.0494141 0.498859
0.872064 0.5 0.375 0.793738 0.0508047 0.582461
0.939201 0.5 0.148627 0.771873 0.0595048 0.559538
0.939201 0.5 -0.15 0.77075 0.0586134 0.518837
0.797732 0.5 -0.525 0.806671 0.0414295 0.493793
0.797732 0.5 0.525 0.811768 0.0423165 0.588733
0.219992 0.5 0.9375 0.848393 0.00873663 0.548352
0.219992 0.5 -0.9375 0.847076 0.01011 0.519092
0.939201 0.5 -0.225 0.772886 0.0576192 0.509467
0.939201 0.5 0.225 0.774514 0.0589609 0.569293
0.905821 0.5 -0.3375 0.783227 0.0527825 0.499543
0.90582 0.5 0.3375 0.786207 0.0543644 0.580981
0.835106 0.5 -0.4875 0.800468 0.0446474 0.49288
0.835106 0.5 0.4875 0.805174 0.0458696 0.589493
0 0.5 0.968821 0.848048 0 0.529919
0 0.5 -0.968821 0.848048 0 0.529919
0.0124865 0.5 -0.968821 0.848058 0.000730128 0.529221
0.0124865 0.5 0.968821 0.848091 0.000614553 0.531129
0.969689 0.5 -0.0375 0.762526 0.0627081 0.532877
0.969689 0.5 0.0375 0.76275 0.0629805 0.543806
0.574156 0.5 -0.7875 0.833589 0.0254665 0.500549
0.574156 0.5 0.7875 0.839413 0.0244219 0.578229
0 0.5 -0.975 0.848048 0 0.529919
0 0.5 0.975 0.848048 0 0.529919
0.624316 0.5 -0.75 0.829624 0.028234 0.497875
0.624316 0.5 0.75 0.835743 0.0275326 0.582174
0.969689 0.5 -0.1125 0.763426 0.0620982 0.522171
0.96969 0.5 0.1125 0.764075 0.0629066 0.554745
0.523432 0.5 -0.825 0.836848 0.0228462 0.503166
0.523432 0.5 0.825 0.842169 0.0215803 0.573994
0.67013 0.5 0.7125 0.831787 0.0306312 0.585667
0.67013 0.5 -0.7125 0.825469 0.0310047 0.495514
0 0.5 -0.981179 0.848048 0 0.529919
0 0.5 0.981179 0.848048 0 0.529919
0.467897 0.5 0.8625 0.844662 0.0187281 0.569327
0.467897 0.5 -0.8625 0.839952 0.0202153 0.506103
0.0124865 0.5 -0.981179 0.848063 0.000708279 0.529176
0.0124865 0.5 0.981179 0.848094 0.000589406 0.531122
0.872064 0.5 -0.45 0.793779 0.0479717 0.492338
0.872064 0.5 0.45 0.797995 0.0495241 0.58949
0.715434 0.5 -0.675 0.82066 0.0339343 0.493186
0.715434 0.5 0.675 0.826951 0.0339811 0.588747
0.939201 0.5 -0.3 0.775796 0.0563552 0.500668
0.939201 0.5 0.3 0.778115 0.0580819 0.578737
0.151149 0.5 0.975 0.848415 0.00616761 0.542965
0.151149 0.5 -0.975 0.847621 0.00724812 0.522054
0.969689 0.5 -0.1875 0.765443 0.0611622 0.511976
0.969689 0.5 0.1875 0.766478 0.0624849 0.565485
0.756813 0.5 -0.6375 0.815624 0.0368787 0.491178
0.756813 0.5 0.6375 0.821818 0.0373167 0.591346
0.411736 0.5 -0.9 0.842296 0.0176764 0.508923
0.411736 0.5 0.9 0.84625 0.0161142 0.564492
0.90582 0.5 -0.4125 0.786851 0.0513066 0.492236
0.90582 0.5 0.4125 0.790577 0.0531303 0.588903
0.995005 0.5 0.0749309 0.75847 0.0649233 0.550149
0.797732 0.5 -0.6 0.809995 0.0399921 0.489329
0.797732 0.5 0.6 0.815861 0.0408615 0.593383
1.00005 0.5 -8.47123e-18 0.756448 0.0652659 0.537733
0.350249 0.5 -0.9375 0.844509 0.0151087 0.512082
0.350249 0.5 0.9375 0.847598 0.0134829 0.559252
1.00005 0.5 -0.0749309 0.756853 0.0647896 0.526377
0.969689 0.5 -0.2625 0.768226 0.0599281 0.502378
0.969689 0.5 0.2625 0.769899 0.0617241 0.575832
0.835106 0.5 -0.5625 0.804106 0.0431271 0.48782
0.835106 0.5 0.5625 0.809598 0.0443856 0.594916
1.00005 0.5 -0.149862 0.758478 0.0639707 0.515433
0.939201 0.5 -0.375 0.779485 0.0548511 0.492543
0.939201 0.5 0.375 0.782514 0.0569111 0.58755
1.00029 0.5 0.148988 0.759384 0.0650981 0.560762
0.075776 0.5 -1.0125 0.848113 0.00428856 0.525427
0.075776 0.5 1.0125 0.848306 0.00355798 0.537201
0.288069 0.5 0.975 0.848221 0.0109241 0.553978
0.288069 0.5 -0.975 0.845946 0.0124848 0.515084
0.872064 0.5 -0.525 0.797696 0.0463784 0.486622
0.872064 0.5 0.525 0.802703 0.0480353 0.595732
1.00005 0.5 0.224793 0.762334 0.0645676 0.571669
1.00005 0.5 -0.224793 0.761111 0.0628312 0.505117
0.969689 0.5 0.3375 0.774242 0.0606403 0.585577
0.96969 0.5 -0.3375 0.77186 0.0584138 0.493392
1.0271 0.5 -0.0368226 0.749719 0.0681245 0.531163
1.0271 0.5 0.0368226 0.749891 0.0684529 0.543061
0.90582 0.5 0.4875 0.795514 0.051656 0.596012
0.905821 0.5 -0.4875 0.791004 0.0496546 0.485799
1.0271 0.5 -0.110468 0.75083 0.0674413 0.519505
1.0271 0.5 0.110468 0.751031 0.0686981 0.557744
0.67013 0.5 0.7875 0.834723 0.0292981 0.587721
0.67013 0.5 -0.7875 0.827819 0.0298278 0.493007
0.624316 0.5 0.825 0.838252 0.0263029 0.583748
0.624316 0.5 -0.825 0.831634 0.0271705 0.495706
0.219993 0.5 -1.0125 0.84728 0.00979285 0.518452
0.219993 0.5 1.0125 0.848661 0.00833251 0.54832
0.574156 0.5 -0.8625 0.83525 0.024524 0.498675
0.574156 0.5 0.8625 0.841478 0.0233085 0.579371
0.715434 0.5 -0.75 0.823388 0.0326372 0.490309
0.715434 0.5 0.75 0.830342 0.032549 0.591354
0.756813 0.5 0.7125 0.82564 0.035801 0.594558
0.756814 0.5 -0.7125 0.81872 0.0354697 0.487879
0.523432 0.5 -0.9 0.838214 0.0220137 0.501569
0.523432 0.5 0.9 0.843853 0.0205822 0.574775
0.939201 0.5 -0.45 0.783848 0.0531427 0.485288
0.939201 0.5 0.45 0.787609 0.0554692 0.595591
1.04168 0.5 0 0.746052 0.0698662 0.536743
1.0271 0.5 -0.184113 0.753206 0.0664136 0.508486
1.0271 0.5 0.184113 0.753988 0.0680162 0.5667
0 0.5 -1.04382 0.848048 0 0.529919
0 0.5 1.04382 0.848048 0 0.529919
0.0124865 0.5 -1.04382 0.848063 0.000708279 0.529176
0.0124865 0.5 1.04382 0.848094 0.000589406 0.531122
1.00005 0.5 -0.299723 0.764611 0.0613902 0.495401
1.00005 0.5 0.299723 0.766494 0.0636369 0.582236
1.04168 0.5 -0.0729162 0.746559 0.0693445 0.524712
1.04168 0.5 0.0729162 0.746839 0.0700254 0.548893
0.797732 0.5 -0.675 0.813478 0.038471 0.485562
0.797732 0.5 0.675 0.820123 0.0392768 0.597263
0.467897 0.5 0.9375 0.845951 0.0178571 0.569794
0.467897 0.5 -0.9375 0.841016 0.0194998 0.504745
0 0.5 -1.05 0.848048 0 0.529919
0 0.5 1.05 0.848048 0 0.529919
0.835106 0.5 -0.6375 0.807957 0.0415039 0.483524
0.835106 0.5 0.6375 0.814265 0.0427479 0.59952
1.04168 0.5 -0.145832 0.748371 0.0684694 0.51314
1.04168 0.5 0.145832 0.748898 0.0698161 0.56096
0.969689 0.5 -0.4125 0.776366 0.0566679 0.485218
0.96969 0.5 0.4125 0.779417 0.0592528 0.594569
0 0.5 -1.05618 0.848048 0 0.529919
0 0.5 1.05618 0.848048 0 0.529919
0.0124865 0.5 -1.05618 0.848069 0.000686324 0.529139
0.0124865 0.5 1.05618 0.848099 0.000565326 0.531108
1.05695 0.5 -0.0360764 0.742266 0.0712374 0.530148
1.05695 0.5 0.0360764 0.742375 0.0715955 0.542506
0.411736 0.5 -0.975 0.843115 0.0170646 0.507801
0.411736 0.5 0.975 0.847227 0.0153574 0.564723
0.872064 0.5 -0.6 0.801907 0.044663 0.481741
0.872064 0.5 0.6 0.807736 0.0463668 0.601123
1.0271 0.5 -0.257759 0.756469 0.0650746 0.498152
1.0271 0.5 0.257759 0.757817 0.0672573 0.578016
0.151149 0.5 -1.05 0.847743 0.00701801 0.521633
0.151149 0.5 1.05 0.84856 0.00588764 0.542882
1.05695 0.5 0.108229 0.743078 0.0719039 0.555171
1.05695 0.5 -0.108229 0.743477 0.0705199 0.51801
1.04168 0.5 -0.218749 0.75129 0.067263 0.50229
1.04168 0.5 0.218749 0.752183 0.0692413 0.572729
0.90582 0.5 -0.5625 0.795548 0.0478578 0.480263
0.905821 0.5 0.5625 0.800876 0.0499731 0.602246
1.00005 0.5 -0.374654 0.769059 0.0596837 0.486403
1.00005 0.5 0.374654 0.771597 0.0623821 0.592098
0.350249 0.5 1.0125 0.848275 0.0128443 0.559294
0.350249 0.5 -1.0125 0.845078 0.0146076 0.511165
1.05695 0.5 -0.180382 0.745994 0.0694508 0.506597
1.05695 0.5 0.180382 0.746493 0.0711991 0.567093
1.07319 0.5 0.0709442 0.738863 0.073455 0.551187
0.939201 0.5 -0.525 0.788705 0.0512626 0.479026
0.939201 0.5 0.525 0.793258 0.0537837 0.602731
1.0271 0.5 -0.331404 0.760703 0.0634274 0.488356
1.0271 0.5 0.331404 0.762704 0.0661561 0.588714
1.08112 0.5 3.23815e-17 0.735745 0.0740973 0.535664
1.04168 0.5 -0.291665 0.755156 0.0657401 0.492035
1.04168 0.5 0.291665 0.756609 0.0683126 0.583985
1.08112 0.5 -0.0709442 0.736359 0.0735359 0.523025
0.969689 0.5 -0.4875 0.781505 0.0547189 0.478141
0.96969 0.5 0.4875 0.785287 0.0575887 0.602676
1.05695 0.5 0.252535 0.75041 0.0704506 0.578887
1.05695 0.5 -0.252535 0.749482 0.0680632 0.495938
0.288069 0.5 -1.05 0.846336 0.01207 0.514377
0.288069 0.5 1.05 0.848691 0.010399 0.553895
0.075776 0.5 -1.0875 0.848146 0.00415377 0.525202
0.075776 0.5 1.0875 0.848335 0.00340923 0.537113
1.08112 0.5 -0.141888 0.738319 0.0726156 0.510876
1.08145 0.5 0.140165 0.738861 0.0740073 0.561471
0.715434 0.5 0.825 0.833722 0.0310522 0.593299
0.715434 0.5 -0.825 0.826128 0.0313036 0.487978
0.756813 0.5 0.7875 0.829488 0.0342012 0.597044
0.756814 0.5 -0.7875 0.82185 0.0340141 0.485195
0.67013 0.5 -0.8625 0.830164 0.0286225 0.490981
0.67013 0.5 0.8625 0.837621 0.0279171 0.589179
0.797732 0.5 -0.75 0.817028 0.0368907 0.482481
0.797732 0.5 0.75 0.824466 0.0375866 0.600356
0.624316 0.5 -0.9 0.833629 0.026085 0.493959
0.624316 0.5 0.9 0.840709 0.0250381 0.58479
1.00005 0.5 -0.449585 0.774329 0.0577517 0.478464
1.00005 0.5 0.449585 0.77752 0.0608264 0.601104
0.835106 0.5 -0.7125 0.811921 0.0398068 0.479991
0.835106 0.5 0.7125 0.819072 0.0409825 0.603273
0.574156 0.5 -0.9375 0.836892 0.0235645 0.497167
0.574157 0.5 0.9375 0.843484 0.0221713 0.580044
1.10076 0.5 -0.0349809 0.730307 0.0760829 0.528593
1.10076 0.5 0.0349809 0.730331 0.0764811 0.541642
1.08112 0.5 -0.212832 0.741473 0.0713543 0.499516
1.08112 0.5 0.212832 0.741926 0.073556 0.573516
0.872064 0.5 -0.675 0.806283 0.0428553 0.477698
0.872064 0.5 0.675 0.812976 0.044544 0.605614
1.04168 0.5 -0.364581 0.760045 0.0639377 0.48247
1.04168 0.5 0.364581 0.762059 0.0670478 0.594524