# UMean  POINT_DATA 63140
# x  y  z  UMean_x  UMean_y  UMean_z
0 0.1 0 0.848048 0 0.529919
0 0.1 -0.0179898 0.848048 0 0.529919
0 0.1 0.0179898 0.848048 0 0.529919
0.0363518 0.1 0.0179898 0.850943 0.00700956 0.531543
0.0363518 0.1 -0.0179898 0.850949 0.00702743 0.53118
0 0.1 -0.0570102 0.848048 0 0.529919
0 0.1 0.0570102 0.848048 0 0.529919
0.0363518 0.1 0.0570102 0.850943 0.00700956 0.531543
0.0363518 0.1 -0.0570102 0.850949 0.00702743 0.53118
0 0.1 -0.075 0.848048 0 0.529919
0 0.1 0.075 0.848048 0 0.529919
0.075776 0.1 -0.0375 0.854137 0.0147661 0.53254
0.075776 0.1 0.0375 0.854128 0.0147299 0.533298
0 0.1 -0.0929898 0.848048 0 0.529919
0 0.1 0.0929898 0.848048 0 0.529919
0.0363518 0.1 -0.0929898 0.850929 0.0070386 0.53081
0.0363518 0.1 0.0929898 0.850926 0.00697962 0.531893
0 0.1 -0.13201 0.848048 0 0.529919
0 0.1 0.13201 0.848048 0 0.529919
0.075776 0.1 -0.1125 0.854094 0.0147888 0.531769
0.075776 0.1 0.1125 0.854094 0.0146689 0.534026
0.0363518 0.1 -0.13201 0.850929 0.0070386 0.53081
0.0363518 0.1 0.13201 0.850926 0.00697962 0.531893
0 0.1 -0.15 0.848048 0 0.529919
0 0.1 0.15 0.848048 0 0.529919
0.150379 0.1 -2.22623e-17 0.85581 0.0140016 0.534484
0 0.1 -0.16799 0.848048 0 0.529919
0 0.1 0.16799 0.848048 0 0.529919
0.150379 0.1 -0.075 0.855704 0.0139995 0.533143
0.150379 0.1 0.075 0.85596 0.0139793 0.535792
0.0363518 0.1 -0.16799 0.850895 0.00704008 0.530426
0.0363518 0.1 0.16799 0.850901 0.00693757 0.532219
0.075776 0.1 -0.1875 0.854024 0.014792 0.530967
0.075776 0.1 0.1875 0.854042 0.0145833 0.534706
0 0.1 -0.20701 0.848048 0 0.529919
0 0.1 0.20701 0.848048 0 0.529919
0.0363518 0.1 -0.20701 0.850895 0.00704008 0.530426
0.0363518 0.1 0.20701 0.850901 0.00693757 0.532219
0.150379 0.1 -0.15 0.855647 0.013974 0.531799
0.150379 0.1 0.15 0.856178 0.013929 0.537041
0.219993 0.1 -0.0375 0.857287 0.0132854 0.535033
0.219993 0.1 0.0375 0.857539 0.0133007 0.536923
0 0.1 -0.225 0.848048 0 0.529919
0 0.1 0.225 0.848048 0 0.529919
0 0.1 -0.24299 0.848048 0 0.529919
0 0.1 0.24299 0.848048 0 0.529919
0.0363518 0.1 0.24299 0.850867 0.00689376 0.532513
0.0363518 0.1 -0.24299 0.850852 0.00701484 0.530039
0.219993 0.1 -0.1125 0.857157 0.0132362 0.533142
0.219993 0.1 0.1125 0.857917 0.0132908 0.538729
0.150379 0.1 -0.225 0.855664 0.0139214 0.530461
0.150379 0.1 0.225 0.856457 0.013853 0.538228
0.075776 0.1 -0.2625 0.853933 0.01474 0.530161
0.075776 0.1 0.2625 0.853973 0.0144944 0.535318
0 0.1 -0.28201 0.848048 0 0.529919
0 0.1 0.28201 0.848048 0 0.529919
0.0363518 0.1 -0.28201 0.850852 0.00701484 0.530039
0.0363518 0.1 0.28201 0.850867 0.00689376 0.532513
0.287374 0.1 -2.89121e-19 0.854427 0.0128587 0.53702
0.219992 0.1 0.1875 0.858474 0.0132444 0.540462
0.219992 0.1 -0.1875 0.857173 0.0131609 0.531278
0.287374 0.1 -0.075 0.854256 0.0128222 0.534599
0.287374 0.1 0.075 0.854744 0.0128728 0.539406
0 0.1 -0.3 0.848048 0 0.529919
0 0.1 0.3 0.848048 0 0.529919
0 0.1 0.31799 0.848048 0 0.529919
0 0.1 -0.31799 0.848048 0 0.529919
0.0363518 0.1 -0.31799 0.850797 0.00696737 0.529664
0.0363518 0.1 0.31799 0.850837 0.0068564 0.532775
0.287374 0.1 0.15 0.855218 0.012857 0.541718
0.287374 0.1 -0.15 0.854242 0.0127658 0.532187
0.150379 0.1 -0.3 0.855787 0.0138431 0.529147
0.150379 0.1 0.3 0.856747 0.0137624 0.539339
0.219993 0.1 0.2625 0.859122 0.0131605 0.542137
0.219993 0.1 -0.2625 0.857379 0.0130769 0.529446
0.075776 0.1 -0.3375 0.853821 0.0146432 0.529379
0.075776 0.1 0.3375 0.853913 0.0144183 0.535865
0.350249 0.1 -0.0375 0.851454 0.0124264 0.536558
0.350249 0.1 0.0375 0.851696 0.0124613 0.539476
0 0.1 -0.35701 0.848048 0 0.529919
0 0.1 0.35701 0.848048 0 0.529919
0.0363518 0.1 -0.35701 0.850797 0.00696737 0.529664
0.0363518 0.1 0.35701 0.850837 0.0068564 0.532775
0.287374 0.1 -0.225 0.854405 0.0126992 0.529812
0.287374 0.1 0.225 0.855851 0.0128018 0.543945
0.350249 0.1 -0.1125 0.85139 0.0123803 0.533618
0.350249 0.1 0.1125 0.852089 0.0124764 0.54236
0 0.1 -0.375 0.848048 0 0.529919
0 0.1 0.375 0.848048 0 0.529919
0 0.1 -0.39299 0.848048 0 0.529919
0 0.1 0.39299 0.848048 0 0.529919
0.0363518 0.1 -0.39299 0.850755 0.00692732 0.529297
0.0363518 0.1 0.39299 0.850817 0.00682286 0.532997
0.350249 0.1 -0.1875 0.851508 0.0123248 0.530713
0.350249 0.1 0.1875 0.852657 0.0124537 0.545138
0.219992 0.1 -0.3375 0.857846 0.0129972 0.527658
0.219992 0.1 0.3375 0.859729 0.0130478 0.543694
0.150379 0.1 0.375 0.857019 0.0136664 0.540353
0.150379 0.1 -0.375 0.856019 0.0137684 0.527861
0.411108 0.1 4.33681e-19 0.846746 0.012726 0.538668
0.287374 0.1 -0.3 0.854776 0.0126329 0.52749
0.287374 0.1 0.3 0.856581 0.0127032 0.546064
0.411108 0.1 -0.075 0.84661 0.012682 0.535141
0.411108 0.1 0.075 0.847099 0.0127552 0.542163
0.075776 0.1 -0.4125 0.853736 0.0145624 0.528613
0.075776 0.1 0.4125 0.853873 0.0143498 0.536329
0 0.1 0.43201 0.848048 0 0.529919
0 0.1 -0.43201 0.848048 0 0.529919
0.0363518 0.1 0.43201 0.850817 0.00682286 0.532997
0.0363518 0.1 -0.43201 0.850755 0.00692732 0.529297
0.411108 0.1 -0.15 0.846703 0.0126281 0.53163
0.411108 0.1 0.15 0.847664 0.0127579 0.545578
0.350249 0.1 -0.2625 0.851815 0.0122721 0.527857
0.350249 0.1 0.2625 0.853413 0.0123851 0.547815
0 0.1 -0.45 0.848048 0 0.529919
0 0.1 0.45 0.848048 0 0.529919
0.219992 0.1 0.4125 0.860283 0.0129232 0.545139
0.219992 0.1 -0.4125 0.858474 0.0129545 0.525897
0 0.1 -0.46799 0.848048 0 0.529919
0 0.1 0.46799 0.848048 0 0.529919
0.411108 0.1 -0.225 0.847022 0.0125709 0.52818
0.411108 0.1 0.225 0.84845 0.0127174 0.548869
0.467897 0.1 -0.0375 0.841989 0.0129746 0.537242
0.467897 0.1 0.0375 0.842246 0.0130154 0.541342
0.0363518 0.1 0.46799 0.850802 0.00679856 0.533182
0.0363518 0.1 -0.46799 0.850733 0.00690074 0.528957
0.287374 0.1 -0.375 0.855349 0.0125754 0.525227
0.287374 0.1 0.375 0.857344 0.012569 0.548025
0.150379 0.1 0.45 0.85727 0.013575 0.541245
0.150379 0.1 -0.45 0.856277 0.013718 0.526628
0.467897 0.1 0.1125 0.842764 0.013041 0.545373
0.467897 0.1 -0.1125 0.842007 0.0129205 0.53314
0.350249 0.1 -0.3375 0.85232 0.012222 0.525087
0.350249 0.1 0.3375 0.854314 0.0122561 0.550335
0.075776 0.1 -0.4875 0.853694 0.0145086 0.527904
0.075776 0.1 0.4875 0.853842 0.0143005 0.536715
0.467897 0.1 0.1875 0.843537 0.0130333 0.54929
0.467897 0.1 -0.1875 0.842299 0.0128611 0.529092
0 0.1 -0.50701 0.848048 0 0.529919
0 0.1 0.50701 0.848048 0 0.529919
0.0363518 0.1 -0.50701 0.850733 0.00690074 0.528957
0.0363518 0.1 0.50701 0.850802 0.00679856 0.533182
0.411108 0.1 0.3 0.849453 0.0126222 0.551997
0.411108 0.1 -0.3 0.847565 0.0125116 0.524832
0.522865 0.1 1.41031e-17 0.836046 0.0135856 0.539542
0 0.1 -0.525 0.848048 0 0.529919
0 0.1 0.525 0.848048 0 0.529919
0.522865 0.1 -0.075 0.83596 0.0135346 0.534816
0.522865 0.1 0.075 0.836463 0.0136158 0.544239
0.287374 0.1 0.45 0.858101 0.0124116 0.549785
0.287374 0.1 -0.45 0.855986 0.012522 0.523061
0.219992 0.1 0.4875 0.860777 0.0128029 0.54637
0.219992 0.1 -0.4875 0.858979 0.0129289 0.524246
0.467897 0.1 -0.2625 0.842853 0.0127999 0.525147
0.467897 0.1 0.2625 0.844574 0.0129698 0.553036
0.350249 0.1 -0.4125 0.853008 0.0121644 0.522397
0.350249 0.1 0.4125 0.855289 0.012087 0.552618
0 0.1 -0.54299 0.848048 0 0.529919
0 0.1 0.54299 0.848048 0 0.529919
0.522865 0.1 0.15 0.8372 0.0136175 0.548835
0.522865 0.1 -0.15 0.836205 0.0134676 0.530133
0.0363518 0.1 0.54299 0.850796 0.00677763 0.533342
0.0363518 0.1 -0.54299 0.850721 0.00687831 0.528647
0.150379 0.1 -0.525 0.856499 0.0136765 0.52549
0.150379 0.1 0.525 0.857488 0.0134911 0.541982
0.411108 0.1 -0.375 0.848313 0.0124446 0.521613
0.411108 0.1 0.375 0.85063 0.0124729 0.5549
0.075776 0.1 -0.5625 0.85367 0.0144628 0.527258
0.075776 0.1 0.5625 0.853829 0.014258 0.537048
0.522865 0.1 -0.225 0.836771 0.013389 0.52556
0.522865 0.1 0.225 0.838252 0.0135746 0.553266
0.574156 0.1 0.0375 0.830336 0.0141714 0.542452
0.574157 0.1 -0.0375 0.830084 0.0141297 0.537113
0.467897 0.1 -0.3375 0.843646 0.0127276 0.521368
0.467897 0.1 0.3375 0.845878 0.01285 0.556563
0 0.1 -0.58201 0.848048 0 0.529919
0 0.1 0.58201 0.848048 0 0.529919
0.0363518 0.1 -0.58201 0.850721 0.00687831 0.528647
0.0363518 0.1 0.58201 0.850796 0.00677763 0.533342
0.574157 0.1 -0.1125 0.830226 0.0140626 0.531796
0.574157 0.1 0.1125 0.830974 0.0141843 0.547719
0.287374 0.1 -0.525 0.856578 0.0124537 0.521056
0.287374 0.1 0.525 0.858809 0.0122406 0.551293
0 0.1 -0.6 0.848048 0 0.529919
0 0.1 0.6 0.848048 0 0.529919
0.350249 0.1 0.4875 0.856276 0.0118744 0.554663
0.350249 0.1 -0.4875 0.85373 0.0120786 0.519875
0.522865 0.1 -0.3 0.837629 0.013294 0.521162
0.522865 0.1 0.3 0.839624 0.0134739 0.557471
0.219992 0.1 -0.5625 0.859402 0.0128875 0.522741
0.219992 0.1 0.5625 0.861176 0.0126831 0.547334
0.574156 0.1 -0.1875 0.830751 0.013976 0.526579
0.574156 0.1 0.1875 0.831984 0.0141608 0.55284
0.411108 0.1 0.45 0.851913 0.0122715 0.557529
0.411108 0.1 -0.45 0.849198 0.0123556 0.51857
0 0.1 -0.61799 0.848048 0 0.529919
0 0.1 0.61799 0.848048 0 0.529919
0.150379 0.1 -0.6 0.856699 0.0136309 0.524456
0.150379 0.1 0.6 0.857683 0.0134095 0.542571
0.0363518 0.1 -0.61799 0.85072 0.00685798 0.528371
0.0363518 0.1 0.61799 0.850798 0.00675547 0.533477
0.467897 0.1 -0.4125 0.84464 0.0126407 0.517774
0.467897 0.1 0.4125 0.847387 0.0126704 0.5598
0.623803 0.1 2.34188e-17 0.823181 0.0150179 0.539692
0.623803 0.1 0.075 0.82365 0.0150455 0.545655
0.623803 0.1 -0.075 0.82318 0.0149537 0.533716
0.574156 0.1 0.2625 0.833364 0.0140846 0.557733
0.574156 0.1 -0.2625 0.831631 0.0138703 0.52154
0.623803 0.1 0.15 0.824574 0.015032 0.551508
0.623803 0.1 -0.15 0.823637 0.0148569 0.527827
0.075776 0.1 0.6375 0.853833 0.0142129 0.537328
0.075776 0.1 -0.6375 0.853668 0.0144213 0.526684
0.522865 0.1 -0.375 0.838739 0.0131768 0.51699
0.522865 0.1 0.375 0.841289 0.0133104 0.561389
0 0.1 0.65701 0.848048 0 0.529919
0 0.1 -0.65701 0.848048 0 0.529919
0.0363518 0.1 0.65701 0.850798 0.00675547 0.533477
0.0363518 0.1 -0.65701 0.85072 0.00685798 0.528371
0.350249 0.1 0.5625 0.857202 0.0116479 0.556421
0.350249 0.1 -0.5625 0.854437 0.0119616 0.51757
0.623803 0.1 0.225 0.825941 0.0149685 0.557154
0.623803 0.1 -0.225 0.824526 0.01473 0.522116
0.287374 0.1 -0.6 0.857133 0.0123638 0.519232
0.287374 0.1 0.6 0.859457 0.012068 0.552529
0.574157 0.1 -0.3375 0.832822 0.0137318 0.516752
0.574157 0.1 0.3375 0.835114 0.0139419 0.562345
0.411108 0.1 0.525 0.853226 0.0120291 0.559853
0.411108 0.1 -0.525 0.850137 0.0122307 0.515767
0.67013 0.1 0.0375 0.816515 0.0158763 0.542918
0.67013 0.1 -0.0375 0.816295 0.0158241 0.536289
0.219992 0.1 -0.6375 0.859785 0.012834 0.521367
0.219993 0.1 0.6375 0.861551 0.0125677 0.548084
0 0.1 -0.675 0.848048 0 0.529919
0 0.1 0.675 0.848048 0 0.529919
0.467897 0.1 -0.4875 0.845763 0.0125163 0.514443
0.467897 0.1 0.4875 0.849023 0.012427 0.562715
0.67013 0.1 -0.1125 0.816615 0.0157287 0.529718
0.67013 0.1 0.1125 0.817276 0.0158799 0.54949
0.522865 0.1 0.45 0.843184 0.0130812 0.564959
0.522865 0.1 -0.45 0.840048 0.0130277 0.513101
0.150379 0.1 0.675 0.85788 0.0133297 0.543028
0.150379 0.1 -0.675 0.856875 0.0135811 0.523527
0.623803 0.1 0.3 0.827742 0.0148422 0.562514
0.623803 0.1 -0.3 0.825803 0.0145656 0.516664
0 0.1 -0.69299 0.848048 0 0.529919
0 0.1 0.69299 0.848048 0 0.529919
0.0363518 0.1 -0.69299 0.850727 0.00684093 0.528123
0.0363518 0.1 0.69299 0.850804 0.00673504 0.533582
0.67013 0.1 -0.1875 0.817449 0.0155925 0.523311
0.67013 0.1 0.1875 0.818559 0.0158334 0.555892
0.574156 0.1 0.4125 0.837193 0.0137313 0.566598
0.574157 0.1 -0.4125 0.834269 0.0135636 0.512262
0.714971 0.1 -2.8382e-17 0.808673 0.0169633 0.539223
0.075776 0.1 -0.7125 0.853682 0.0143863 0.526167
0.075776 0.1 0.7125 0.853846 0.0141713 0.537547
0.714971 0.1 -0.075 0.808797 0.0168695 0.531954
0.714971 0.1 0.075 0.809176 0.0169985 0.54651
0.67013 0.1 0.2625 0.820343 0.0157267 0.562014
0.67013 0.1 -0.2625 0.818753 0.0154157 0.51717
0.411108 0.1 -0.6 0.851092 0.0120718 0.513235
0.411108 0.1 0.6 0.854514 0.011769 0.561827
0.350249 0.1 0.6375 0.858074 0.0114241 0.55786
0.350249 0.1 -0.6375 0.855128 0.0118174 0.515493
0.623803 0.1 0.375 0.829954 0.0146449 0.567513
0.623803 0.1 -0.375 0.827412 0.0143598 0.511544
0.714971 0.1 -0.15 0.809527 0.0167213 0.524828
0.714971 0.1 0.15 0.810298 0.0169716 0.553688
0.467897 0.1 -0.5625 0.846949 0.012346 0.51142
0.467897 0.1 0.5625 0.850697 0.0121418 0.565257
0 0.1 -0.73201 0.848048 0 0.529919
0 0.1 0.73201 0.848048 0 0.529919
0.0363518 0.1 0.73201 0.850804 0.00673504 0.533582
0.0363518 0.1 -0.73201 0.850727 0.00684093 0.528123
0.287374 0.1 -0.675 0.857643 0.0122549 0.517602
0.287374 0.1 0.675 0.860079 0.0118978 0.553505
0.522865 0.1 -0.525 0.84149 0.0128345 0.509559
0.522865 0.1 0.525 0.845225 0.0127917 0.568133
0.219993 0.1 -0.7125 0.860081 0.0127659 0.520155
0.219992 0.1 0.7125 0.861929 0.0124542 0.548647
0.714971 0.1 -0.225 0.81082 0.0165183 0.517962
0.714971 0.1 0.225 0.812017 0.0168794 0.560625
0 0.1 0.75 0.848048 0 0.529919
0 0.1 -0.75 0.848048 0 0.529919
0.67013 0.1 -0.3375 0.820468 0.0151821 0.511368
0.67013 0.1 0.3375 0.822615 0.0155482 0.567785
0.574156 0.1 -0.4875 0.835921 0.0133504 0.508156
0.574157 0.1 0.4875 0.839525 0.0134494 0.570435
0.756813 0.1 0.0375 0.801274 0.0180741 0.542838
0.756814 0.1 -0.0375 0.801117 0.017995 0.534869
0.150379 0.1 0.746002 0.857994 0.0132724 0.543246
0.150379 0.1 -0.75 0.857034 0.0135267 0.522708
0.756813 0.1 -0.1125 0.801664 0.017848 0.527006
0.756813 0.1 0.1125 0.802146 0.0180794 0.550773
0 0.1 0.76799 0.848048 0 0.529919
0 0.1 -0.76799 0.848048 0 0.529919
0.0363518 0.1 0.76799 0.850811 0.00671854 0.533655
0.0363518 0.1 -0.76799 0.850736 0.0068236 0.527902
0.623803 0.1 -0.45 0.829294 0.0141117 0.506833
0.623803 0.1 0.45 0.832521 0.0143729 0.572078
0.714971 0.1 -0.3 0.812617 0.0162546 0.511446
0.714971 0.1 0.3 0.814306 0.0167132 0.567216
0.756814 0.1 -0.1875 0.802876 0.0176359 0.519387
0.756814 0.1 0.1875 0.803714 0.0180098 0.558528
0.67013 0.1 -0.4125 0.82253 0.0149033 0.506004
0.67013 0.1 0.4125 0.825342 0.0152922 0.573106
0.411108 0.1 0.675 0.855765 0.0115043 0.56343
0.411108 0.1 -0.675 0.852044 0.0118875 0.510992
0.467897 0.1 0.6375 0.852347 0.01184 0.567384
0.467897 0.1 -0.6375 0.848163 0.0121443 0.508727
0.075776 0.1 0.7875 0.853861 0.0141377 0.537699
0.075776 0.1 -0.7875 0.853701 0.0143508 0.525706
0.350249 0.1 -0.7125 0.855783 0.0116518 0.513665
0.350249 0.1 0.7125 0.858916 0.011201 0.558983
0.522865 0.1 -0.6 0.843011 0.0126024 0.506394
0.522865 0.1 0.6 0.847324 0.0124606 0.570861
0.797314 0.1 -3.59473e-17 0.792983 0.0194405 0.538245
0.287374 0.1 0.746002 0.860685 0.011748 0.554106
0.797314 0.1 -0.075 0.793283 0.0192937 0.529642
0.797314 0.1 0.075 0.793489 0.0194999 0.546903
0.756814 0.1 -0.2625 0.804682 0.0173522 0.512125
0.756814 0.1 0.2625 0.805941 0.0178649 0.565955
0.287374 0.1 -0.75 0.858118 0.0121342 0.516174
0.574156 0.1 -0.5625 0.837708 0.0130888 0.504474
0.574156 0.1 0.5625 0.842016 0.013104 0.573802
0 0.1 0.80701 0.848048 0 0.529919
0 0.1 -0.80701 0.848048 0 0.529919
0.714971 0.1 -0.375 0.814853 0.0159318 0.505387
0.714971 0.1 0.375 0.817135 0.0164648 0.573362
0.0363518 0.1 0.80701 0.850811 0.00671854 0.533655
0.0363518 0.1 -0.80701 0.850736 0.0068236 0.527902
0.797314 0.1 -0.15 0.794356 0.0190641 0.521251
0.797314 0.1 0.15 0.7948 0.0194681 0.555461
0.623803 0.1 -0.525 0.831383 0.013816 0.502591
0.623803 0.1 0.525 0.835357 0.0140278 0.576146
0.219992 0.1 0.7875 0.862309 0.0123396 0.549047
0.219992 0.1 -0.7875 0.860374 0.0126887 0.519097
0.149792 0.1 0.80701 0.858225 0.0131988 0.543534
0 0.1 0.825 0.848048 0 0.529919
0 0.1 -0.825 0.848048 0 0.529919
0.797314 0.1 -0.225 0.796134 0.0187509 0.513208
0.797314 0.1 0.225 0.796886 0.0193451 0.563755
0.756813 0.1 -0.3375 0.807026 0.0169957 0.505305
0.756813 0.1 0.3375 0.808798 0.0176318 0.572954
0.67013 0.1 0.4875 0.828446 0.0149551 0.577915
0.67013 0.1 -0.4875 0.824875 0.0145752 0.501148
0.835106 0.1 -0.0375 0.784996 0.0207334 0.532979
0.835106 0.1 0.0375 0.785039 0.0208628 0.542327
0.150379 0.1 -0.825 0.857197 0.0134695 0.52199
0.835106 0.1 -0.1125 0.785841 0.0205038 0.523789
0.835106 0.1 0.1125 0.785989 0.0208852 0.551667
0 0.1 -0.84299 0.848048 0 0.529919
0 0.1 0.84299 0.848048 0 0.529919
0.0363518 0.1 -0.84299 0.850745 0.00680588 0.527708
0.0363518 0.1 0.84299 0.850818 0.00670472 0.533695
0.714971 0.1 -0.45 0.817455 0.0155572 0.499875
0.714971 0.1 0.45 0.820442 0.0161326 0.578976
0.411108 0.1 0.746002 0.856966 0.0112482 0.564512
0.797314 0.1 -0.3 0.798553 0.018354 0.505622
0.797314 0.1 0.3 0.799706 0.0191263 0.57164
0.467897 0.1 -0.7125 0.849386 0.011921 0.506377
0.467897 0.1 0.7125 0.853955 0.0115334 0.569082
0.522865 0.1 0.675 0.849418 0.0121079 0.573109
0.522865 0.1 -0.675 0.844573 0.0123448 0.503622
0.411108 0.1 -0.75 0.852985 0.01169 0.509042
0.835106 0.1 -0.1875 0.787519 0.020177 0.514934
0.835107 0.1 0.1875 0.787836 0.0208 0.560824
0.286844 0.1 0.80701 0.86115 0.0116011 0.554627
0.574156 0.1 0.6375 0.844564 0.012715 0.576649
0.574157 0.1 -0.6375 0.839578 0.0127977 0.501234
0.350249 0.1 -0.7875 0.856425 0.0114841 0.512077
0.350249 0.1 0.7875 0.859735 0.0109783 0.559793
0.756813 0.1 -0.4125 0.809829 0.0165778 0.499084
0.756814 0.1 0.4125 0.812236 0.0173082 0.57941
0.623803 0.1 -0.6 0.833609 0.0134824 0.498849
0.623803 0.1 0.6 0.838357 0.0136204 0.579661
0.075776 0.1 0.8625 0.853876 0.0141097 0.537781
0.075776 0.1 -0.8625 0.85372 0.0143146 0.525302
0.871687 0.1 -3.2767e-18 0.776525 0.0223798 0.536841
0.287374 0.1 -0.825 0.858594 0.0120107 0.514936
0.871687 0.1 -0.075 0.777034 0.0221482 0.526873
0.871687 0.1 0.075 0.777011 0.0224871 0.546908
0.67013 0.1 -0.5625 0.827419 0.0141996 0.496849
0.67013 0.1 0.5625 0.831831 0.0145413 0.582143
0.835106 0.1 0.2625 0.790529 0.0206086 0.569621
0.835106 0.1 -0.2625 0.789919 0.0197512 0.506535
0.797314 0.1 -0.375 0.801543 0.0178816 0.498631
0.797314 0.1 0.375 0.803211 0.0188061 0.578997
0 0.1 -0.88201 0.848048 0 0.529919
0 0.1 0.88201 0.848048 0 0.529919
0.0363518 0.1 0.88201 0.850818 0.00670472 0.533695
0.0363518 0.1 -0.88201 0.850745 0.00680588 0.527708
0.871687 0.1 0.15 0.778498 0.0224655 0.556885
0.871687 0.1 -0.15 0.7785 0.0218013 0.517199
0.714971 0.1 0.525 0.824141 0.0157157 0.583984
0.714971 0.1 -0.525 0.820337 0.0151338 0.494969
0.219993 0.1 0.8625 0.862686 0.0122243 0.54929
0.219992 0.1 -0.8625 0.860683 0.0126107 0.518173
0 0.1 0.9 0.848048 0 0.529919
0 0.1 -0.9 0.848048 0 0.529919
0.756813 0.1 0.4875 0.816171 0.0168984 0.585242
0.756814 0.1 -0.4875 0.813002 0.0161092 0.493506
0.871687 0.1 0.225 0.780955 0.0223154 0.566583
0.871687 0.1 -0.225 0.780823 0.021344 0.507974
0.835106 0.1 -0.3375 0.793023 0.0192346 0.498707
0.835106 0.1 0.3375 0.794015 0.0203047 0.577896
0.41063 0.1 0.80701 0.857891 0.0110368 0.565347
0.90582 0.1 -0.0375 0.768298 0.0238055 0.53067
0.905821 0.1 0.0375 0.768224 0.0240178 0.541429
0.522865 0.1 0.746002 0.851434 0.0117576 0.574696
0.150379 0.1 0.9 0.858477 0.0131076 0.543692
0.90582 0.1 0.1125 0.769249 0.0240809 0.55221
0.905821 0.1 -0.1125 0.769453 0.0234531 0.520133
0.522865 0.1 -0.75 0.846151 0.0120731 0.501246
0.574156 0.1 0.7125 0.847097 0.0123056 0.578945
0.574156 0.1 -0.7125 0.841491 0.0124868 0.498449
0.797314 0.1 -0.45 0.805002 0.0173469 0.492338
0.797314 0.1 0.45 0.807327 0.0183867 0.585711
0.467897 0.1 -0.7875 0.850609 0.0116904 0.504363
0.467897 0.1 0.7875 0.855519 0.011226 0.570343
0.150379 0.1 -0.903998 0.857429 0.0133995 0.521341
0 0.1 0.91799 0.848048 0 0.529919
0 0.1 -0.91799 0.848048 0 0.529919
0.0363518 0.1 0.91799 0.850822 0.00669206 0.533698
0.0363518 0.1 -0.91799 0.850755 0.00678862 0.52754
0.623803 0.1 0.675 0.84142 0.0131707 0.582579
0.623803 0.1 -0.675 0.835919 0.0131257 0.495621
0.411108 0.1 -0.825 0.853922 0.0114894 0.507377
0.871687 0.1 0.3 0.784323 0.0220373 0.575814
0.871687 0.1 -0.3 0.783934 0.0207794 0.499319
0.67013 0.1 -0.6375 0.830096 0.0137978 0.493123
0.67013 0.1 0.6375 0.835375 0.0140629 0.585732
0.90582 0.1 -0.1875 0.771628 0.0229783 0.510052
0.90582 0.1 0.1875 0.771369 0.0239936 0.562802
0.350249 0.1 0.8625 0.860537 0.0107589 0.560313
0.350249 0.1 -0.8625 0.857068 0.011317 0.510718
0.835106 0.1 -0.4125 0.796708 0.0186411 0.491639
0.835106 0.1 0.4125 0.798232 0.0198875 0.585556
0.714971 0.1 -0.6 0.823411 0.0146748 0.490702
0.714971 0.1 0.6 0.828116 0.0152198 0.588319
0.93886 0.1 -1.15648e-17 0.759595 0.0260051 0.5351
0.075776 0.1 0.9375 0.853885 0.014084 0.537788
0.075776 0.1 -0.9375 0.853741 0.0142794 0.524953
0.93886 0.1 0.075 0.760029 0.0261892 0.546633
0.93886 0.1 -0.075 0.760365 0.0256478 0.523714
0.756813 0.1 0.5625 0.820511 0.0163948 0.590373
0.756814 0.1 -0.5625 0.816438 0.0155929 0.488634
0.905821 0.1 -0.2625 0.774652 0.022381 0.500522
0.905821 0.1 0.2625 0.77453 0.0237581 0.57301
0.287374 0.1 0.9 0.861873 0.011391 0.555008
0.287374 0.1 -0.903998 0.858991 0.0118846 0.51389
0.871687 0.1 0.375 0.788534 0.0216302 0.584428
0.871687 0.1 -0.375 0.787762 0.0201211 0.491396
0.93886 0.1 -0.15 0.7623 0.0251379 0.512718
0.93886 0.1 0.15 0.761671 0.0261944 0.558088
0.797314 0.1 0.525 0.811955 0.0178701 0.59169
0.797314 0.1 -0.525 0.808816 0.0167622 0.486799
0 0.1 0.95701 0.848048 0 0.529919
0 0.1 -0.95701 0.848048 0 0.529919
0.0363518 0.1 0.95701 0.850822 0.00669206 0.533698
0.0363518 0.1 -0.95701 0.850755 0.00678862 0.52754
0.522433 0.1 0.80701 0.853006 0.0114718 0.575868
0.219992 0.1 0.9375 0.863048 0.0121111 0.549373
0.219992 0.1 -0.9375 0.860994 0.0125326 0.517386
0.93886 0.1 0.225 0.764494 0.0260207 0.569245
0.93886 0.1 -0.225 0.765239 0.0244948 0.502287
0.90582 0.1 0.3375 0.778646 0.0233781 0.582616
0.905821 0.1 -0.3375 0.778551 0.0216677 0.491686
0.835106 0.1 -0.4875 0.800855 0.0179881 0.485359
0.835107 0.1 0.4875 0.803081 0.0193637 0.59243
0.969689 0.1 -0.0375 0.751271 0.0278738 0.528047
0.969689 0.1 0.0375 0.751002 0.0282062 0.540297
0.61613 0.1 0.75 0.844465 0.0126994 0.584875
0.574156 0.1 -0.7875 0.843416 0.0121686 0.496109
0.574156 0.1 0.7875 0.849573 0.0118904 0.580679
0 0.1 0.975 0.848048 0 0.529919
0 0.1 -0.975 0.848048 0 0.529919
0.623803 0.1 -0.75 0.838263 0.0127558 0.492905
0.969689 0.1 -0.1125 0.752843 0.0273454 0.516082
0.969689 0.1 0.1125 0.752055 0.0283327 0.5526
0.522865 0.1 -0.825 0.847725 0.0117958 0.499257
0.67013 0.1 0.7125 0.838963 0.0135447 0.588647
0.67013 0.1 -0.7125 0.832844 0.0133789 0.489978
0.871687 0.1 -0.45 0.792168 0.0193898 0.484331
0.871687 0.1 0.45 0.793499 0.0210981 0.592288
0.467897 0.1 0.8625 0.857037 0.0109186 0.571188
0.467897 0.1 -0.8625 0.851823 0.011456 0.502679
0.714971 0.1 -0.675 0.826598 0.0141964 0.487083
0.714971 0.1 0.675 0.832237 0.0146623 0.591929
0.93886 0.1 -0.3 0.769113 0.0237181 0.492529
0.93886 0.1 0.3 0.768425 0.0256731 0.579881
0.150379 0.1 0.975 0.858659 0.0130381 0.543684
0.150379 0.1 -0.975 0.857533 0.0133552 0.520844
0.969689 0.1 -0.1875 0.755668 0.0266662 0.504714
0.969689 0.1 0.1875 0.754424 0.0282501 0.564709
0.411108 0.1 0.9 0.859315 0.0107089 0.566042
0.756813 0.1 0.6375 0.825111 0.0158103 0.594736
0.756814 0.1 -0.6375 0.820046 0.0150556 0.484479
0.990306 0.1 -2.19732e-17 0.746224 0.0291312 0.533536
0 0.1 0.99299 0.848048 0 0.529919
0 0.1 -0.99299 0.848048 0 0.529919
0.411108 0.1 -0.903998 0.854709 0.0113078 0.50602
0.990306 0.1 -0.075 0.74721 0.0286529 0.521048
0.990306 0.1 0.075 0.746611 0.0293948 0.546199
0.0363518 0.1 0.99299 0.850825 0.00667901 0.533673
0.0363518 0.1 -0.99299 0.850766 0.00677295 0.527399
0.90582 0.1 -0.4125 0.783152 0.0208637 0.483753
0.905821 0.1 0.4125 0.78365 0.0228533 0.591496
0.797314 0.1 -0.6 0.81287 0.0161458 0.482054
0.797314 0.1 0.6 0.816973 0.0172598 0.596867
0.350249 0.1 0.9375 0.861316 0.0105398 0.560566
0.350249 0.1 -0.9375 0.857709 0.0111488 0.509586
0.990306 0.1 0.15 0.748376 0.0294381 0.558796
0.990306 0.1 -0.15 0.749538 0.0279948 0.509037
0.969689 0.1 -0.2625 0.759387 0.0258508 0.494003
0.969689 0.1 0.2625 0.758058 0.0279616 0.576391
0.835106 0.1 -0.5625 0.805325 0.0172931 0.479951
0.835106 0.1 0.5625 0.808442 0.0187385 0.598481
0.93886 0.1 -0.375 0.773876 0.0228199 0.483626
0.93886 0.1 0.375 0.773374 0.0251579 0.5898
0.075776 0.1 1.0125 0.853892 0.0140575 0.537735
0.075776 0.1 -1.0125 0.853763 0.0142475 0.52466
0.990306 0.1 -0.225 0.75299 0.027198 0.497691
0.990306 0.1 0.225 0.751488 0.02926 0.57108
0.287374 0.1 0.975 0.862433 0.0112253 0.555077
0.287374 0.1 -0.975 0.859548 0.0117618 0.513007
0.871687 0.1 -0.525 0.797008 0.0186089 0.478191
0.871687 0.1 0.525 0.799102 0.0204512 0.599273
1.02149 0.1 -0.0369628 0.736422 0.031324 0.525631
1.02149 0.1 0.0369628 0.736047 0.0317769 0.538898
0.969689 0.1 -0.3375 0.764221 0.0248758 0.484075
0.969689 0.1 0.3375 0.762854 0.0274772 0.587403
1.02149 0.1 -0.110888 0.73825 0.0306364 0.512676
1.02149 0.1 0.110888 0.737141 0.0319899 0.552236
0.90582 0.1 0.4875 0.789421 0.0221944 0.599487
0.90582 0.1 -0.4875 0.788314 0.019995 0.476796
0.623803 0.1 0.819003 0.84661 0.0123581 0.586967
0 0.1 1.03201 0.848048 0 0.529919
0 0.1 -1.03201 0.848048 0 0.529919
0.0363518 0.1 1.03201 0.850825 0.00667901 0.533673
0.0363518 0.1 -1.03201 0.850766 0.00677295 0.527399
0.67013 0.1 -0.7875 0.835603 0.0129513 0.487394
0.67013 0.1 0.7875 0.842508 0.0130067 0.590866
0.623803 0.1 -0.825 0.840599 0.0123807 0.490686
0.990306 0.1 -0.3 0.757496 0.0262424 0.487063
0.990306 0.1 0.3 0.75587 0.0288669 0.582807
0.219992 0.1 -1.0125 0.861298 0.0124525 0.516735
0.219993 0.1 1.0125 0.863386 0.0120024 0.549303
0.574156 0.1 0.8625 0.851967 0.0114764 0.581866
0.574157 0.1 -0.8625 0.845325 0.0118461 0.494203
0.714971 0.1 -0.75 0.829826 0.0137073 0.484105
0.714971 0.1 0.75 0.836383 0.0140667 0.594785
1.02149 0.1 0.184814 0.739695 0.0319565 0.565393
1.02149 0.1 -0.184814 0.741487 0.0298012 0.500461
0.756814 0.1 -0.7125 0.82373 0.0145047 0.481044
0.756814 0.1 0.7125 0.829825 0.0151656 0.598288
0.522865 0.1 0.9 0.855399 0.011024 0.576913
0.93886 0.1 -0.45 0.779342 0.0218334 0.475758
0.93886 0.1 0.45 0.779237 0.0244823 0.598855
1.04168 0.1 0 0.730031 0.0331728 0.531484
1.04168 0.1 -0.0729162 0.731195 0.0325422 0.518009
1.04168 0.1 0.0729162 0.730352 0.0335509 0.54515
0.522865 0.1 -0.903998 0.849062 0.0115463 0.497687
0.797314 0.1 -0.675 0.817056 0.0155153 0.478106
0.797314 0.1 0.675 0.822228 0.0165693 0.60118
0.467897 0.1 0.9375 0.858508 0.0106111 0.57164
0.467897 0.1 -0.9375 0.853017 0.0112176 0.501309
0 0.1 1.05 0.848048 0 0.529919
0 0.1 -1.05 0.848048 0 0.529919
0.835106 0.1 -0.6375 0.809995 0.0165817 0.475419
0.835106 0.1 0.6375 0.814177 0.0180148 0.603617
1.04168 0.1 -0.145832 0.733824 0.03171 0.505089
1.04168 0.1 0.145832 0.732165 0.0336728 0.55877
1.02149 0.1 -0.25874 0.745757 0.0288432 0.488947
1.02149 0.1 0.25874 0.743653 0.0316783 0.578116
0.969689 0.1 -0.4125 0.769914 0.0237824 0.475183
0.969689 0.1 0.4125 0.768716 0.0268087 0.597552
0.411108 0.1 0.975 0.86042 0.010445 0.566241
0.411108 0.1 -0.975 0.855762 0.0110812 0.504864
0.871687 0.1 -0.6 0.802137 0.017803 0.473016
0.871687 0.1 0.6 0.805196 0.0196961 0.605306
1.0579 0.1 -0.0360525 0.725402 0.0342082 0.523805
1.0579 0.1 0.0360525 0.724919 0.0347557 0.537693
0.990306 0.1 -0.375 0.763041 0.0251311 0.477372
0.990306 0.1 0.375 0.761414 0.0282708 0.593749
0.150379 0.1 1.05 0.858831 0.0129711 0.543571
0.150379 0.1 -1.05 0.857696 0.0133 0.520414
1.0579 0.1 0.108157 0.725946 0.035042 0.551665
1.0579 0.1 -0.108157 0.72737 0.0334018 0.510239
1.04168 0.1 -0.218749 0.737723 0.0307497 0.492931
1.04168 0.1 0.218749 0.735439 0.0335345 0.572087
0.90582 0.1 -0.5625 0.793867 0.0190947 0.470896
0.90582 0.1 0.5625 0.795824 0.0214189 0.606484
0 0.1 -1.06799 0.848048 0 0.529919
0 0.1 1.06799 0.848048 0 0.529919
0.0363518 0.1 -1.06799 0.850775 0.0067606 0.527286
0.0363518 0.1 1.06799 0.850829 0.00666518 0.533617
0.350249 0.1 1.0125 0.862057 0.0103229 0.560568
0.350249 0.1 -1.0125 0.858337 0.0109792 0.508671
1.0579 0.1 -0.180262 0.730789 0.0324381 0.497481
1.0579 0.1 0.180262 0.728475 0.0350576 0.565474
1.02149 0.1 -0.332665 0.751251 0.0276592 0.478165
1.02149 0.1 0.332665 0.748914 0.0311635 0.590162
0.93886 0.1 -0.525 0.785326 0.0207986 0.469035
0.93886 0.1 0.525 0.785871 0.0236628 0.606894
1.08012 0.1 5.49329e-18 0.717997 0.0365492 0.529787
1.04168 0.1 -0.291665 0.742777 0.0296027 0.481477
1.04168 0.1 0.291665 0.740098 0.0331392 0.584854
1.08012 0.1 0.0709941 0.718234 0.0370227 0.544114
1.08012 0.1 -0.0709941 0.719286 0.0358014 0.51566
0.969689 0.1 -0.4875 0.776294 0.0226103 0.467513
0.96969 0.1 0.4875 0.775509 0.0259628 0.60672
1.0579 0.1 0.252367 0.732454 0.034802 0.578859
1.0579 0.1 -0.252367 0.735386 0.0313639 0.485463
0.990306 0.1 -0.45 0.769412 0.0239183 0.468896
0.990306 0.1 0.45 0.767998 0.0274818 0.603743
0.287374 0.1 -1.05 0.860009 0.0116358 0.512304
0.287374 0.1 1.05 0.862962 0.0110662 0.554952
0.714971 0.1 0.821002 0.840108 0.013512 0.596865
1.08012 0.1 -0.141988 0.72208 0.0348305 0.502119
1.08012 0.1 0.141988 0.720007 0.037218 0.558412
0.075776 0.1 1.0875 0.8539 0.0140292 0.537618
0.075776 0.1 -1.0875 0.853783 0.0142224 0.524423
0.714971 0.1 -0.825 0.833031 0.0132159 0.481743
0.756813 0.1 -0.7875 0.827419 0.01395 0.478304
0.756814 0.1 0.7875 0.834524 0.0144889 0.601006
0.67013 0.1 -0.8625 0.838324 0.0125233 0.485354
0.67013 0.1 0.8625 0.845945 0.0124661 0.592406
0.797314 0.1 -0.75 0.821276 0.0148806 0.474939
0.797314 0.1 0.75 0.82757 0.0158229 0.604596
0.623803 0.1 0.9 0.850306 0.0117455 0.587622
0.835106 0.1 -0.7125 0.814744 0.0158648 0.471758
0.835106 0.1 0.7125 0.820116 0.0172108 0.607797
0.623803 0.1 -0.903998 0.8426 0.0120491 0.488992
0.574156 0.1 0.9375 0.854273 0.0110656 0.58253
0.574156 0.1 -0.9375 0.847186 0.0115215 0.492706
1.02149 0.1 -0.406591 0.757752 0.026332 0.468574
1.02149 0.1 0.406591 0.755349 0.0304299 0.601298
1.08012 0.1 -0.212982 0.726245 0.0337288 0.489396
1.08012 0.1 0.212982 0.723286 0.0371275 0.572424
1.10076 0.1 -0.0349809 0.711285 0.0382714 0.521527
1.10076 0.1 0.0349809 0.710708 0.0389412 0.536174
0.871687 0.1 -0.675 0.807413 0.0169909 0.4688
0.871687 0.1 0.675 0.81161 0.0188439 0.610327
1.04168 0.1 -0.364581 0.748977 0.0282509 0.470987
1.04168 0.1 0.364581 0.746028 0.0325003 0.596826
1.10076 0.1 -0.104943 0.713403 0.0373137 0.507184
1.10076 0.1 0.104943 0.711699 0.0393295 0.550923
0.522865 0.1 0.975 0.85725 0.0106646 0.577257
0.522865 0.1 -0.975 0.850784 0.0112312 0.496377