# wallShearStress  FACE_DATA 60650
# x  y  z  wallShearStress_x  wallShearStress_y  wallShearStress_z
8.75721 0 0.345731 0.00108202 -7.2746e-06 0.000942901
8.72516 0 0.336919 0.000965962 -8.98537e-06 0.000817009
8.69439 0 0.328456 0.000840878 -9.46566e-06 0.000688382
8.66483 0 0.320329 0.000714603 -9.24919e-06 0.000557751
8.63646 0 0.312526 0.000579568 -9.51106e-06 0.000426665
8.6092 0 0.305031 0.000429047 -1.01232e-05 0.00029216
8.58303 0 0.297833 0.000274049 -1.12115e-05 0.000162017
8.82531 0 0.430728 0.00145957 -5.44354e-06 0.00128626
8.79057 0 0.419435 0.00135069 -6.06591e-06 0.00117038
8.75721 0 0.408591 0.00124475 -5.76646e-06 0.00105471
8.72516 0 0.398176 0.00113908 -6.96432e-06 0.000938574
8.69439 0 0.388175 0.0010258 -8.04502e-06 0.00081586
8.66483 0 0.378571 0.000900975 -8.52744e-06 0.000686673
8.63646 0 0.369348 0.000769489 -8.70792e-06 0.00055828
8.6092 0 0.360491 0.0006301 -9.27977e-06 0.00042643
8.58303 0 0.351985 0.000476756 -9.81742e-06 0.000291205
8.5579 0 0.343817 0.000321541 -9.90419e-06 0.000154349
8.53376 0 0.335973 0.000169153 -1.25972e-05 1.74799e-05
8.51058 0 0.32844 2.21665e-05 -1.04072e-05 -0.000112986
8.9384 0 0.539403 0.00182199 -4.83425e-06 0.00161774
8.89917 0 0.52469 0.00174067 -4.26246e-06 0.00152807
8.8615 0 0.510562 0.0016534 -4.36722e-06 0.00143555
8.82531 0 0.496994 0.00156988 -4.2574e-06 0.00134108
8.79057 0 0.483964 0.00147833 -4.76138e-06 0.00124075
8.75721 0 0.471451 0.0013761 -4.96041e-06 0.00112986
8.72516 0 0.459434 0.00127674 -4.87172e-06 0.00101942
8.69439 0 0.447895 0.00117763 -6.1295e-06 0.000907766
8.66483 0 0.436813 0.00106589 -7.31191e-06 0.000788284
8.63646 0 0.426171 0.00094222 -7.96249e-06 0.000661997
8.6092 0 0.415951 0.000808322 -8.51968e-06 0.000531509
8.58303 0 0.406136 0.000665708 -8.9425e-06 0.000397759
8.5579 0 0.396712 0.000514862 -9.23146e-06 0.000258265
8.53376 0 0.387661 0.000356509 -1.02088e-05 0.000117708
8.51058 0 0.378969 0.000198105 -1.17616e-05 -2.22581e-05
8.48833 0 0.370622 4.57566e-05 -1.05345e-05 -0.000157104
8.46695 0 0.362605 -8.57763e-05 -5.57296e-06 -0.000283746
8.9384 0 0.611323 0.0018666 -5.33162e-06 0.00162929
8.89917 0 0.594649 0.00179674 -3.79613e-06 0.00154558
8.8615 0 0.578636 0.00171099 -4.56315e-06 0.00145638
8.82531 0 0.563259 0.00163061 -4.19771e-06 0.00136582
8.79057 0 0.548492 0.00155983 -3.79484e-06 0.00127578
8.75721 0 0.534311 0.00147886 -4.48188e-06 0.00117729
8.72516 0 0.520692 0.00138092 -4.42307e-06 0.00107109
8.69439 0 0.507614 0.0012889 -4.32787e-06 0.000963627
8.66483 0 0.495055 0.00119454 -5.49197e-06 0.000856002
8.63646 0 0.482994 0.00108911 -6.60685e-06 0.000741425
8.6092 0 0.471411 0.00097001 -7.39124e-06 0.000618011
8.58303 0 0.460288 0.000839213 -8.20807e-06 0.000487983
8.5579 0 0.449607 0.000697217 -8.78188e-06 0.000352592
8.53376 0 0.439349 0.000545669 -9.21295e-06 0.000212623
8.51058 0 0.429498 0.000385939 -1.07653e-05 6.89708e-05
8.48833 0 0.420038 0.000224499 -1.07868e-05 -7.45389e-05
8.46695 0 0.410953 7.22807e-05 -1.05758e-05 -0.000214529
8.44642 0 0.402229 -5.97505e-05 -5.39774e-06 -0.00034828
8.42671 0 0.393851 -0.000150275 -5.63426e-07 -0.000471579
8.9384 0 0.683243 0.00186009 -6.39627e-06 0.0016011
8.89917 0 0.664607 0.0017997 -2.91448e-06 0.00153467
8.8615 0 0.646711 0.00173849 -4.07641e-06 0.00145628
8.82531 0 0.629525 0.0016728 -3.85208e-06 0.00137397
8.79057 0 0.613021 0.00160229 -4.53833e-06 0.0012856
8.75721 0 0.597171 0.00153263 -4.01626e-06 0.00119912
8.72516 0 0.58195 0.00146013 -4.45038e-06 0.0011053
8.69439 0 0.567333 0.00137568 -4.01948e-06 0.00100506
8.66483 0 0.553296 0.00128626 -4.157e-06 0.000899488
8.63646 0 0.539816 0.00119871 -5.23514e-06 0.000796386
8.6092 0 0.526871 0.00109969 -6.47335e-06 0.000686575
8.58303 0 0.51444 0.00098607 -7.2973e-06 0.000566863
8.5579 0 0.502501 0.000859269 -8.03418e-06 0.000438384
8.53376 0 0.491037 0.000720714 -8.65377e-06 0.000302831
8.51058 0 0.480027 0.000570525 -9.77444e-06 0.000161523
8.48833 0 0.469454 0.000411046 -1.10401e-05 1.58197e-05
8.46695 0 0.4593 0.000250004 -9.90631e-06 -0.000131103
8.44642 0 0.44955 9.74202e-05 -1.08823e-05 -0.000274889
8.42671 0 0.440186 -3.21585e-05 -5.35553e-06 -0.000413146
8.40778 0 0.431194 -0.000122094 -7.33278e-07 -0.000542971
8.38959 0 0.422558 -0.000162429 1.88747e-06 -0.000671624
8.9384 0 0.755163 0.00180696 -7.89259e-06 0.00156414
8.89917 0 0.734566 0.00176137 -1.28624e-06 0.00150641
8.8615 0 0.714786 0.00171614 -4.48979e-06 0.0014281
8.82531 0 0.69579 0.00166339 -2.92541e-06 0.00135684
8.79057 0 0.677549 0.00161312 -3.63044e-06 0.00127781
8.75721 0 0.660031 0.00155556 -4.00717e-06 0.00119693
8.72516 0 0.643208 0.00149447 -3.7453e-06 0.00111338
8.69439 0 0.627053 0.00143369 -4.29206e-06 0.00102438
8.66483 0 0.611538 0.00136014 -3.40575e-06 0.0009311
8.63646 0 0.596639 0.00127456 -3.37733e-06 0.000829085
8.6092 0 0.582331 0.00119658 -4.13153e-06 0.00072872
8.58303 0 0.568591 0.00110833 -5.6987e-06 0.000624351
8.5579 0 0.555397 0.00100278 -6.76035e-06 0.000509287
8.53376 0 0.542725 0.000881935 -7.59743e-06 0.000382935
8.51058 0 0.530556 0.000747353 -8.13478e-06 0.000248106
8.48833 0 0.518871 0.000600628 -9.97578e-06 0.000106551
8.46695 0 0.507648 0.000444327 -1.03137e-05 -4.02757e-05
8.44642 0 0.496871 0.000285167 -9.21444e-06 -0.000189056
8.42671 0 0.486522 0.000134269 -9.95551e-06 -0.000336427
8.40778 0 0.476583 7.71774e-06 -4.58546e-06 -0.000478582
8.38959 0 0.467038 -7.57149e-05 3.85337e-07 -0.000616488
8.9384 0 0.827083 0.00169239 -9.21861e-06 0.00151476
8.89917 0 0.804525 0.00166107 -3.8262e-07 0.00146689
8.8615 0 0.782861 0.00163025 -4.93352e-06 0.00139036
8.82531 0 0.762056 0.00159108 -2.27629e-06 0.00132763
8.79057 0 0.742077 0.00155473 -3.80853e-06 0.00125409
8.75721 0 0.722891 0.00151163 -3.94628e-06 0.00118139
8.72516 0 0.704466 0.00146855 -4.84052e-06 0.00110374
8.69439 0 0.686772 0.00141924 -4.65356e-06 0.00102484
8.66483 0 0.66978 0.00137095 -4.64249e-06 0.000944311
8.63646 0 0.653462 0.00131372 -4.13314e-06 0.000855781
8.6092 0 0.637792 0.0012345 -3.86775e-06 0.000757704
8.58303 0 0.622743 0.00116323 -4.24025e-06 0.000659899
8.5579 0 0.608291 0.0010881 -5.49337e-06 0.000562253
8.53376 0 0.594413 0.000995218 -6.97288e-06 0.000452623
8.51058 0 0.581085 0.000882608 -7.88583e-06 0.000329746
8.48833 0 0.568287 0.00075425 -8.82142e-06 0.000196114
8.46695 0 0.555995 0.000612607 -1.09968e-05 5.4449e-05
8.44642 0 0.544192 0.000460933 -1.02995e-05 -9.37827e-05
8.42671 0 0.532857 0.000306462 -9.42342e-06 -0.000244572
8.40778 0 0.521972 0.000159953 -8.83821e-06 -0.000395535
8.38959 0 0.511518 3.95497e-05 -5.31726e-06 -0.000541381
8.9384 0 0.899004 0.00152528 -1.34538e-05 0.00141961
8.89917 0 0.874483 0.0014911 1.07324e-06 0.00141695
8.8615 0 0.850935 0.00148486 -6.76924e-06 0.00133376
8.82531 0 0.828322 0.00146258 -1.65327e-06 0.0012872
8.79057 0 0.806606 0.00145197 -4.53025e-06 0.00121626
8.75721 0 0.785751 0.00142922 -3.10869e-06 0.00115244
8.72516 0 0.765724 0.00140731 -3.95456e-06 0.00108306
8.69439 0 0.746491 0.0013816 -3.89547e-06 0.00101511
8.66483 0 0.728022 0.0013478 -4.04487e-06 0.000942178
8.63646 0 0.710285 0.00131117 -4.01144e-06 0.000869288
8.6092 0 0.693252 0.00127204 -4.05712e-06 0.000785064
8.58303 0 0.676895 0.00120718 -2.99303e-06 0.000691076
8.5579 0 0.661186 0.0011429 -3.30589e-06 0.000594291
8.53376 0 0.646101 0.00108228 -4.54081e-06 0.000500261
8.51058 0 0.631614 0.00100439 -5.85979e-06 0.000396333
8.48833 0 0.617703 0.000904692 -6.83063e-06 0.000278758
8.46695 0 0.604343 0.000787457 -8.4298e-06 0.00014879
8.44642 0 0.591513 0.000655317 -1.03611e-05 9.27168e-06
8.42671 0 0.579192 0.000511286 -9.25802e-06 -0.000138587
8.40778 0 0.56736 0.000363301 -9.77163e-06 -0.000289497
8.38959 0 0.555998 0.000220946 -7.64132e-06 -0.00044219
8.37214 0 0.545086 0.000104989 -4.4002e-06 -0.000591379
8.9384 0 0.970925 0.00128983 -1.90807e-05 0.00133505
8.89917 0 0.944442 0.00123127 6.35236e-06 0.00140026
8.8615 0 0.91901 0.00128973 -8.84528e-06 0.00129769
8.82531 0 0.894588 0.00127799 2.44797e-07 0.00128721
8.79057 0 0.871135 0.00129671 -5.92125e-06 0.00121272
8.75721 0 0.848612 0.00128769 -2.89514e-06 0.00115757
8.72516 0 0.826982 0.00127988 -4.77455e-06 0.00108829
8.69439 0 0.806211 0.00126144 -4.93383e-06 0.00102172
8.66483 0 0.786263 0.00124392 -5.96746e-06 0.000952631
8.63646 0 0.767108 0.00122607 -6.18161e-06 0.000878988
8.6092 0 0.748712 0.00120465 -6.13608e-06 0.000807961
8.58303 0 0.731046 0.00117608 -6.09583e-06 0.000730925
8.5579 0 0.714081 0.0011262 -4.82166e-06 0.000642464
8.53376 0 0.697789 0.00106896 -5.14949e-06 0.000546431
8.51058 0 0.682144 0.00101725 -6.03898e-06 0.000452229
8.48833 0 0.667119 0.000950841 -7.1782e-06 0.000353103
8.46695 0 0.65269 0.000865486 -8.02807e-06 0.000240026
8.44642 0 0.638834 0.000760533 -1.00796e-05 0.000112747
8.42671 0 0.625528 0.000639005 -1.1305e-05 -2.62975e-05
8.40778 0 0.612749 0.000505709 -1.03981e-05 -0.000175055
8.38959 0 0.600478 0.000367894 -1.07273e-05 -0.000328929
8.37214 0 0.588693 0.000238208 -7.43772e-06 -0.000483404
8.97926 0 1.07246 0.000693072 2.81548e-05 0.00146656
8.9384 0 1.04284 0.00101027 -2.44437e-05 0.00126008
8.89917 0 1.0144 0.000939115 1.64516e-05 0.0014207
8.8615 0 0.987085 0.00109409 -1.27884e-05 0.00126095
8.82531 0 0.960854 0.00106457 6.43224e-06 0.0013033
8.79057 0 0.935663 0.00113619 -6.42125e-06 0.00120682
8.75721 0 0.911471 0.00113874 -1.02822e-06 0.00116714
8.72516 0 0.88824 0.00115922 -3.98375e-06 0.00109561
8.69439 0 0.86593 0.00116577 -2.53103e-06 0.00103008
8.66483 0 0.844505 0.00117505 -3.07209e-06 0.000959731
8.63646 0 0.823931 0.00117787 -2.52365e-06 0.000892483
8.6092 0 0.804172 0.0011729 -2.82134e-06 0.000824254
8.58303 0 0.785198 0.00116343 -3.01706e-06 0.000755261
8.5579 0 0.766976 0.00115527 -3.73544e-06 0.000681523
8.53376 0 0.749477 0.00113002 -2.45365e-06 0.000597582
8.51058 0 0.732673 0.00108046 -2.38286e-06 0.000505202
8.48833 0 0.716535 0.00103737 -3.04288e-06 0.000409587
8.46695 0 0.701038 0.000987069 -4.31934e-06 0.000312524
8.44642 0 0.686155 0.000916877 -5.58461e-06 0.000204972
8.42671 0 0.671863 0.000824753 -8.24549e-06 8.47823e-05
8.40778 0 0.658138 0.000713206 -9.53189e-06 -4.66488e-05
8.38959 0 0.644957 0.000587515 -9.51848e-06 -0.000190161
8.37214 0 0.6323 0.000456357 -9.27155e-06 -0.000341543
8.97926 0 1.14643 0.000296681 2.59303e-05 0.0013789
8.9384 0 1.11476 0.000705087 -2.5998e-05 0.00120746
8.89917 0 1.08436 0.000621254 2.14133e-05 0.00139681
8.8615 0 1.05516 0.000875596 -1.93002e-05 0.00122395
8.82531 0 1.02712 0.000814197 1.16863e-05 0.00131328
8.79057 0 1.00019 0.000953389 -1.09174e-05 0.001207
8.75721 0 0.974331 0.000945014 -1.60316e-08 0.00119675
8.72516 0 0.949498 0.000991818 -5.33675e-06 0.00113351
8.69439 0 0.925649 0.0010064 -3.44555e-06 0.00108074
8.66483 0 0.902747 0.00101801 -5.09322e-06 0.00101935
8.63646 0 0.880753 0.00101839 -5.10218e-06 0.000956932
8.6092 0 0.859632 0.00101849 -6.29964e-06 0.000888549
8.58303 0 0.839349 0.00101812 -6.73334e-06 0.000815861
8.5579 0 0.819871 0.00101033 -7.18161e-06 0.000740555
8.53376 0 0.801165 0.0010005 -7.66299e-06 0.000667322
8.51058 0 0.783202 0.000989549 -7.34207e-06 0.000584619
8.48833 0 0.765951 0.000953557 -6.71857e-06 0.000493908
8.46695 0 0.749385 0.000917477 -6.78133e-06 0.000395312
8.44642 0 0.733476 0.000879423 -7.52783e-06 0.000296512
8.42671 0 0.718198 0.000823791 -8.7562e-06 0.000186707
8.40778 0 0.703526 0.00074909 -1.06159e-05 6.86861e-05
8.38959 0 0.689437 0.000660664 -1.15296e-05 -6.00054e-05
8.37214 0 0.675907 0.000557981 -1.15183e-05 -0.000201911
8.97926 0 1.22039 -6.97659e-05 2.82577e-05 0.0011613
8.9384 0 1.18669 0.00045681 -2.40567e-05 0.00108215
8.89917 0 1.15432 0.000331668 2.28622e-05 0.00120692
8.8615 0 1.12324 0.000657154 -1.76544e-05 0.00113384
8.82531 0 1.09339 0.000602112 1.82785e-05 0.00120168
8.79057 0 1.06472 0.000787324 -8.38566e-06 0.00112768
8.75721 0 1.03719 0.000795351 7.7239e-06 0.00114055
8.72516 0 1.01076 0.000878553 -1.10917e-06 0.00109163
8.69439 0 0.985369 0.000913378 1.72663e-06 0.0010531
8.66483 0 0.960988 0.000950346 -5.73695e-08 0.00100452
8.63646 0 0.937576 0.00098424 -6.06831e-07 0.000948464
8.6092 0 0.915092 0.00101633 -1.41694e-06 0.000889404
8.58303 0 0.893501 0.00104153 -1.19659e-06 0.000829991
8.5579 0 0.872766 0.00105539 -1.66061e-06 0.000769236
8.53376 0 0.852853 0.00106211 -3.19744e-07 0.000704776
8.51058 0 0.833731 0.00105809 -1.58153e-06 0.000637115
8.48833 0 0.815368 0.00105827 -1.74766e-06 0.000563096
8.46695 0 0.797732 0.00103552 -1.54154e-06 0.000479295
8.44642 0 0.780797 0.000997826 -1.36848e-06 0.000386331
8.42671 0 0.764534 0.000957684 -2.09851e-06 0.000287272
8.40778 0 0.748915 0.000898615 -3.96657e-06 0.000179011
8.38959 0 0.733917 0.000832458 -5.8954e-06 6.66124e-05
8.37214 0 0.719513 0.00075698 -6.76789e-06 -5.61652e-05
8.97926 0 1.29435 -0.000379115 2.89079e-05 0.000861797
8.9384 0 1.25861 0.000191827 -2.80367e-05 0.000911414
8.89917 0 1.22428 1.97915e-05 1.56096e-05 0.000995413
8.8615 0 1.19131 0.000360821 -2.28077e-05 0.00107293
8.82531 0 1.15965 0.000330615 4.91515e-06 0.00108244
8.79057 0 1.12925 0.000484531 -1.2692e-05 0.00110754
8.75721 0 1.10005 0.000518611 -7.90465e-07 0.0011152
8.72516 0 1.07202 0.000608212 -6.4978e-06 0.00109954
8.69439 0 1.04509 0.000653228 -3.42439e-06 0.00107788
8.66483 0 1.01923 0.000705951 -4.51421e-06 0.00104332
8.63646 0 0.994399 0.000742736 -4.76395e-06 0.000998808
8.6092 0 0.970553 0.000765905 -6.38446e-06 0.000948585
8.58303 0 0.947652 0.000783861 -7.19943e-06 0.000894733
8.5579 0 0.925661 0.000802183 -7.94384e-06 0.000836671
8.53376 0 0.904541 0.000823045 -8.67541e-06 0.000770355
8.51058 0 0.88426 0.000840738 -9.32534e-06 0.00069926
8.48833 0 0.864784 0.000848392 -1.00367e-05 0.000624266
8.46695 0 0.84608 0.000854769 -9.82782e-06 0.000554229
8.44642 0 0.828118 0.000859048 -9.77475e-06 0.000476336
8.42671 0 0.810869 0.000842488 -9.3052e-06 0.000395026
8.40778 0 0.794304 0.00081449 -9.84605e-06 0.000296654
8.38959 0 0.778397 0.000775594 -1.10183e-05 0.000194368
8.37214 0 0.76312 0.000733034 -1.32625e-05 8.34501e-05
8.97926 0 1.36832 -0.000552245 4.09792e-05 0.000457542
8.9384 0 1.33053 -3.23713e-05 -2.31021e-05 0.000611881
8.89917 0 1.29423 -0.000181484 2.99838e-05 0.000622869
8.8615 0 1.25938 0.000136515 -1.14382e-06 0.000783537
8.82531 0 1.22592 0.000174073 1.33962e-05 0.000795275
8.79057 0 1.19378 0.000326436 6.1742e-06 0.000898074
8.75721 0 1.16291 0.000412307 6.6963e-06 0.000923539
8.72516 0 1.13327 0.00049699 3.65361e-08 0.000962936
8.69439 0 1.10481 0.000570686 1.12772e-06 0.000975247
8.66484 0 1.07747 0.000634527 4.1803e-06 0.000975248
8.63646 0 1.05122 0.000694617 4.36285e-06 0.000958753
8.6092 0 1.02601 0.000747205 3.8969e-06 0.000928939
8.58303 0 1.0018 0.000799069 3.41761e-06 0.000885801
8.5579 0 0.978555 0.000850605 2.35153e-06 0.000837849
8.53376 0 0.956229 0.000895501 1.35785e-06 0.000790567
8.51058 0 0.934789 0.000931424 1.84745e-06 0.000743064
8.48833 0 0.9142 0.000954167 2.06083e-06 0.000691724
8.46695 0 0.894427 0.000958194 2.3947e-06 0.000630066
8.44642 0 0.875439 0.000953815 2.53764e-06 0.000563203
8.42671 0 0.857205 0.000965382 2.81578e-06 0.000487374
8.40778 0 0.839693 0.000957186 2.3091e-06 0.00040278
8.38959 0 0.822877 0.000928066 2.15907e-06 0.000307689
8.37214 0 0.806727 0.000898212 1.37611e-06 0.00020029
8.97926 0 1.44228 -0.000522716 5.70329e-05 5.69342e-05
8.9384 0 1.40245 -0.000100441 -2.98015e-05 0.000329882
8.89917 0 1.36419 -0.000190402 -7.30168e-06 0.000320855
8.8615 0 1.32746 -5.19346e-05 -2.00904e-05 0.000474455
8.82531 0 1.29218 1.40439e-05 -1.86749e-05 0.000526965
8.79057 0 1.2583 8.48377e-05 -2.13913e-05 0.000619869
8.75721 0 1.22577 0.00016599 -2.21505e-05 0.000683573
8.72516 0 1.19453 0.000250086 -1.9649e-05 0.00074193
8.69439 0 1.16453 0.00033243 -1.61991e-05 0.000784157
8.66483 0 1.13571 0.00041406 -1.64096e-05 0.000809618
8.63646 0 1.10804 0.000486015 -1.82976e-05 0.000821717
8.6092 0 1.08147 0.000551613 -1.52753e-05 0.000820871
8.58303 0 1.05595 0.000604847 -1.36083e-05 0.000806875
8.5579 0 1.03145 0.00064314 -1.35464e-05 0.000783759
8.53376 0 1.00792 0.000670012 -1.39842e-05 0.000752617
8.51058 0 0.985317 0.000688857 -1.45786e-05 0.000713377
8.48833 0 0.963616 0.000703268 -1.59968e-05 0.000667113
8.46695 0 0.942775 0.000723259 -1.68436e-05 0.000614805
8.44642 0 0.92276 0.000738162 -1.81812e-05 0.000553807
8.42671 0 0.90354 0.000742373 -1.8953e-05 0.000492366
8.40778 0 0.885082 0.000733351 -1.96823e-05 0.000437696
8.38959 0 0.867357 0.000734543 -1.88047e-05 0.000376649
8.37214 0 0.850334 0.000713975 -1.99588e-05 0.000310049
7.66922 0 0.966948 -0.000634447 1.67724e-05 -0.000483335
7.67296 0 0.988324 -0.000778853 1.01808e-05 -0.000613356
7.67685 0 1.01058 -0.00097246 1.84465e-06 -0.000697775
7.68091 0 1.03376 -0.00123478 -5.7269e-06 -0.000736942
7.68513 0 1.0579 -0.00155936 -1.01132e-05 -0.000755834
7.68953 0 1.08303 -0.00193482 -1.17947e-05 -0.000779032
7.69411 0 1.1092 -0.00233805 -1.28691e-05 -0.000817343
7.69888 0 1.13646 -0.00274464 -1.44595e-05 -0.000860134
7.70385 0 1.16483 -0.00314752 -1.63218e-05 -0.000897106
7.70902 0 1.19439 -0.00355273 -1.70133e-05 -0.00093156
7.7144 0 1.22516 -0.00395952 -1.74069e-05 -0.000976433
7.72001 0 1.25721 -0.00435427 -1.5762e-05 -0.00103611
7.72585 0 1.29057 -0.00472884 -1.34355e-05 -0.00111629
7.73193 0 1.32531 -0.00506744 -1.14711e-05 -0.00120393
7.70425 0 0.907776 -0.000410334 6.62858e-06 0.000415136
7.70851 0 0.926707 -0.000493461 8.47487e-06 0.000219953
7.71295 0 0.946421 -0.000603822 1.65435e-05 -1.47581e-05
7.71757 0 0.966948 -0.000707306 1.6607e-05 -0.000260455
7.72238 0 0.988324 -0.000832209 1.31196e-05 -0.000480145
7.72738 0 1.01058 -0.000957816 7.27745e-06 -0.000637093
7.7326 0 1.03376 -0.0010967 1.13417e-06 -0.000716571
7.73803 0 1.0579 -0.00127531 -4.25056e-06 -0.000738612
7.74368 0 1.08303 -0.0015073 -8.85147e-06 -0.000730372
7.74957 0 1.1092 -0.00180265 -1.10386e-05 -0.000721437
7.7557 0 1.13646 -0.00216719 -1.25269e-05 -0.000727778
7.76209 0 1.16484 -0.00256461 -1.30925e-05 -0.000751123
7.76874 0 1.19439 -0.00296321 -1.40091e-05 -0.000780552
7.77566 0 1.22516 -0.00336089 -1.53476e-05 -0.00081107
7.78287 0 1.25721 -0.00376085 -1.63918e-05 -0.000845351
7.79038 0 1.29057 -0.00416132 -1.47943e-05 -0.000896623
7.7982 0 1.32531 -0.00454079 -1.37643e-05 -0.00095565
7.73984 0 0.872138 -5.46109e-05 -3.48273e-06 0.000602434
7.74464 0 0.889597 -0.000113601 -1.85401e-06 0.000485138
7.74964 0 0.907777 -0.000202901 -7.91268e-07 0.000353649
7.75484 0 0.926707 -0.000323362 -1.27042e-06 0.000200774
7.76026 0 0.94642 -0.000452723 -4.5668e-06 6.32995e-05
7.76591 0 0.966948 -0.000583868 -3.42739e-06 -8.49559e-05
7.77179 0 0.988324 -0.000719519 -2.9401e-06 -0.000264885
7.77791 0 1.01058 -0.000842496 -5.22798e-06 -0.000411554
7.78428 0 1.03376 -0.000952758 -7.5828e-06 -0.000512494
7.79092 0 1.0579 -0.00106779 -9.56497e-06 -0.000563251
7.79783 0 1.08303 -0.00121681 -8.45593e-06 -0.000574851
7.80503 0 1.1092 -0.00141688 -1.00716e-05 -0.000583749
7.81252 0 1.13646 -0.00168416 -1.13813e-05 -0.000592766
7.82033 0 1.16483 -0.00201936 -1.29509e-05 -0.00059895
7.82845 0 1.19439 -0.00240567 -1.29878e-05 -0.000621169
7.83692 0 1.22516 -0.00280485 -1.28742e-05 -0.000654045
7.84573 0 1.25721 -0.00320136 -1.36985e-05 -0.000685905
7.85491 0 1.29057 -0.00360162 -1.40217e-05 -0.000723362
7.86446 0 1.32531 -0.00399466 -1.43528e-05 -0.000760143
7.87441 0 1.3615 -0.00439563 -1.21848e-05 -0.000827877
7.778 0 0.855372 0.000232014 -5.95189e-06 0.000464876
7.78345 0 0.872138 0.000242681 4.07202e-07 0.00037327
7.78912 0 0.889597 0.000218234 3.85838e-06 0.000263138
7.79503 0 0.907776 0.00016207 4.53961e-06 0.000123091
7.80118 0 0.926708 6.48055e-05 -4.13003e-07 -6.91546e-06
7.80759 0 0.94642 -4.01962e-05 -1.97068e-06 -0.000103409
7.81425 0 0.966948 -0.000166271 -3.53859e-06 -0.000188241
7.82121 0 0.988324 -0.000301062 -8.96725e-06 -0.000249957
7.82844 0 1.01058 -0.00043326 -1.26622e-05 -0.000281678
7.83597 0 1.03376 -0.000558251 -1.38647e-05 -0.000298585
7.84382 0 1.0579 -0.000683963 -1.20795e-05 -0.000316475
7.85199 0 1.08303 -0.000827427 -1.0447e-05 -0.000345476
7.86049 0 1.1092 -0.00101183 -9.34771e-06 -0.000388388
7.86935 0 1.13646 -0.00122884 -1.06597e-05 -0.00041725
7.87857 0 1.16484 -0.00151444 -9.62911e-06 -0.00044435
7.88818 0 1.19439 -0.00185785 -1.21918e-05 -0.000475531
7.89818 0 1.22516 -0.00225551 -1.2304e-05 -0.000508896
7.90859 0 1.25721 -0.00266398 -1.24591e-05 -0.000542583
7.91943 0 1.29057 -0.00307043 -1.2451e-05 -0.000578848
7.93073 0 1.32531 -0.00346348 -1.34858e-05 -0.000606666
7.94249 0 1.3615 -0.00386969 -1.31396e-05 -0.000657918
7.81473 0 0.839271 0.000428171 -5.16932e-06 0.000269397
7.82076 0 0.855372 0.000491038 -1.55478e-06 0.000183965
7.82705 0 0.872138 0.00049298 -1.63351e-08 8.20737e-05
7.8336 0 0.889597 0.000459161 9.02785e-07 -1.48873e-05
7.84042 0 0.907777 0.0003952 1.24389e-06 -0.000115981
7.84752 0 0.926707 0.000308725 -2.56173e-06 -0.000183948
7.85491 0 0.946421 0.000209362 -6.61796e-06 -0.000192094
7.8626 0 0.966948 0.000107064 -6.90104e-06 -0.00018851
7.87062 0 0.988324 7.10725e-06 -7.70583e-06 -0.000172588
7.87897 0 1.01058 -7.14944e-05 -7.72364e-06 -0.000134339
7.88766 0 1.03376 -0.00013779 -8.17898e-06 -9.61694e-05
7.89671 0 1.0579 -0.000240753 -7.3617e-06 -9.02761e-05
7.90614 0 1.08303 -0.00038761 -4.66781e-06 -0.000124242
7.91595 0 1.1092 -0.000566945 -5.1803e-06 -0.00016855
7.92617 0 1.13646 -0.000789257 -5.24288e-06 -0.000225248
7.93681 0 1.16483 -0.00105672 -8.32837e-06 -0.000282727
7.9479 0 1.19439 -0.00137056 -8.38353e-06 -0.000335996
7.95943 0 1.22516 -0.00173487 -1.12865e-05 -0.000381313
7.97145 0 1.25721 -0.00214059 -1.2325e-05 -0.000414018
7.98397 0 1.29057 -0.00256209 -1.21385e-05 -0.000448569
7.99699 0 1.32531 -0.0029637 -1.23382e-05 -0.00047325
8.01056 0 1.3615 -0.00336947 -1.16386e-05 -0.000516648
8.02469 0 1.39917 -0.00372944 -1.47607e-05 -0.000518066
7.85669 0 0.839271 0.000703487 -2.58461e-06 6.37258e-05
7.86353 0 0.855372 0.000736061 2.40757e-06 -4.07688e-05
7.87066 0 0.872138 0.000721226 4.31796e-06 -0.0001387
7.87808 0 0.889596 0.000676654 1.34926e-06 -0.000216573
7.88581 0 0.907777 0.000606944 -1.02424e-06 -0.000278723
7.89385 0 0.926708 0.000509293 -4.03231e-06 -0.00030588
7.90223 0 0.94642 0.000380919 -6.98221e-06 -0.000267328
7.91095 0 0.966948 0.000239726 -7.80091e-06 -0.000195067
7.92003 0 0.988324 0.000132568 -7.86873e-06 -0.000112775
7.9295 0 1.01058 8.87573e-05 -8.10372e-06 -2.81797e-05
7.93935 0 1.03376 7.46125e-05 -6.21146e-06 3.07963e-05
7.94961 0 1.0579 4.03208e-05 -2.98801e-06 6.2478e-05
7.96029 0 1.08303 -3.8765e-05 -1.14733e-06 6.27771e-05
7.97141 0 1.1092 -0.000176902 -4.41183e-07 1.36614e-05
7.98299 0 1.13646 -0.000379746 -1.71759e-06 -5.16972e-05
7.99505 0 1.16484 -0.000627165 -4.46903e-06 -0.000112044
8.00761 0 1.19439 -0.000924546 -7.35356e-06 -0.00017498
8.02069 0 1.22516 -0.00126673 -9.98305e-06 -0.000238815
8.03431 0 1.25721 -0.00164916 -1.26304e-05 -0.000282275
8.04849 0 1.29057 -0.00206947 -1.30678e-05 -0.0003182
8.06326 0 1.32531 -0.00248492 -1.29483e-05 -0.000341667
8.07864 0 1.3615 -0.00290378 -1.16159e-05 -0.000387427
8.09465 0 1.39917 -0.00325317 -1.66036e-05 -0.000378131
7.89865 0 0.839271 0.000940966 6.85867e-06 -0.000153973
7.9063 0 0.855372 0.00092682 4.28618e-06 -0.00024717
7.91427 0 0.872138 0.000879831 1.45088e-06 -0.000312176
7.92256 0 0.889597 0.000805983 3.21559e-07 -0.000353051
7.93119 0 0.907776 0.000697904 -9.19401e-07 -0.000371298
7.94019 0 0.926708 0.0005682 -2.96097e-06 -0.000356773
7.94955 0 0.94642 0.000412162 -5.22831e-06 -0.000293067
7.9593 0 0.966948 0.000271634 -7.81283e-06 -0.00018105
7.96945 0 0.988324 0.000218484 -7.69811e-06 -8.18333e-05
7.98003 0 1.01058 0.000212094 -7.4381e-06 -3.48772e-06
7.99104 0 1.03376 0.000194074 -6.27858e-06 5.47902e-05
8.0025 0 1.0579 0.000163013 -5.43381e-06 0.000103287
8.01444 0 1.08303 0.000116091 -2.75539e-06 0.000129266
8.02687 0 1.1092 5.05484e-05 -2.58697e-06 0.000129154
8.03981 0 1.13646 -6.86452e-05 -2.73626e-07 8.96896e-05
8.05329 0 1.16483 -0.000247495 -1.29155e-06 1.40298e-05
8.06733 0 1.19439 -0.000477874 -3.5873e-06 -5.11301e-05
8.08195 0 1.22516 -0.000779972 -6.49291e-06 -0.000110368
8.09717 0 1.25721 -0.00115467 -1.07334e-05 -0.000154739
8.11302 0 1.29057 -0.00158242 -1.22812e-05 -0.0001953
8.12952 0 1.32531 -0.00200966 -1.33064e-05 -0.000215601
8.14671 0 1.3615 -0.00245355 -1.1926e-05 -0.000263074
8.16461 0 1.39917 -0.00280098 -1.54233e-05 -0.000247355
8.18324 0 1.4384 -0.0032561 -8.86228e-06 -0.00033232
7.94062 0 0.839271 0.00109236 4.60896e-06 -0.000354439
7.94907 0 0.855372 0.00103432 2.99039e-06 -0.000423634
7.95787 0 0.872138 0.00094572 7.63791e-07 -0.000463277
7.96704 0 0.889597 0.00082285 1.27439e-07 -0.000472596
7.97658 0 0.907777 0.000675219 -2.23871e-06 -0.00044864
7.98652 0 0.926707 0.000495342 -4.29029e-06 -0.000371748
7.99687 0 0.946421 0.000349069 -7.54753e-06 -0.00024945
8.00765 0 0.966948 0.000306244 -8.21275e-06 -0.000138373
8.01887 0 0.988324 0.000317795 -7.73849e-06 -4.82118e-05
8.03055 0 1.01058 0.000320811 -6.67028e-06 2.37739e-05
8.04273 0 1.03376 0.00030854 -5.41207e-06 7.89658e-05
8.0554 0 1.0579 0.000280672 -3.45694e-06 0.000114215
8.06859 0 1.08303 0.000236733 -2.78615e-06 0.000134803
8.08233 0 1.1092 0.000185757 -2.76316e-06 0.000140062
8.09664 0 1.13646 0.000122544 -2.36708e-06 0.000134181
8.11154 0 1.16484 3.56406e-05 -1.43015e-06 0.000109291
8.12705 0 1.19439 -0.000101349 -2.38584e-06 6.39003e-05
8.14321 0 1.22516 -0.00032039 -4.04497e-06 -7.32985e-06
8.16003 0 1.25721 -0.000628894 -8.71919e-06 -6.37195e-05
8.17755 0 1.29057 -0.00104529 -1.00461e-05 -0.000117869
8.19579 0 1.32531 -0.0014913 -1.16267e-05 -0.000140951
8.21479 0 1.3615 -0.00197391 -1.04813e-05 -0.00018347
8.23457 0 1.39917 -0.00233402 -1.30922e-05 -0.000153603
8.25516 0 1.4384 -0.00281618 -6.85521e-06 -0.000234496
8.27661 0 1.47926 -0.00294442 -2.28217e-05 -9.78116e-05
7.99184 0 0.855371 0.00102417 2.26498e-06 -0.000574346
8.00148 0 0.872138 0.000885812 2.02834e-06 -0.000584669
8.01152 0 0.889596 0.000719351 -2.11022e-06 -0.000550004
8.02197 0 0.907777 0.000530432 -4.07447e-06 -0.000443303
8.03286 0 0.926708 0.000392468 -7.7747e-06 -0.00030361
8.04419 0 0.94642 0.000358704 -8.36759e-06 -0.000174122
8.05599 0 0.966948 0.000376421 -7.54759e-06 -6.0297e-05
8.06829 0 0.988324 0.000390876 -6.92288e-06 3.41305e-05
8.08108 0 1.01058 0.000386687 -4.99639e-06 0.000115681
8.09441 0 1.03376 0.000368187 -2.4516e-06 0.000165311
8.10829 0 1.0579 0.0003354 -2.06333e-06 0.000186187
8.12274 0 1.08303 0.000291671 -4.85193e-07 0.000187862
8.13779 0 1.1092 0.000240228 5.44789e-07 0.000170975
8.15346 0 1.13646 0.000184196 4.38e-07 0.00014711
8.16978 0 1.16483 0.000123786 3.80013e-07 0.000124223
8.18677 0 1.19439 5.33085e-05 -8.65504e-07 0.000111939
8.20447 0 1.22516 -5.23621e-05 -1.41604e-06 8.79005e-05
8.22289 0 1.25721 -0.000238798 -4.53991e-06 5.64898e-05
8.24208 0 1.29057 -0.000562675 -5.8725e-06 -4.69329e-06
8.26206 0 1.32531 -0.000982982 -9.57344e-06 -3.99178e-05
8.28286 0 1.3615 -0.0014965 -9.04627e-06 -9.3711e-05
8.30453 0 1.39917 -0.00188052 -1.0559e-05 -6.95137e-05
8.32708 0 1.4384 -0.00239881 -5.79309e-06 -0.000152558
8.35057 0 1.47926 -0.0025069 -1.77446e-05 -2.31957e-05
8.03461 0 0.855372 0.000908219 1.66202e-06 -0.000699944
8.04508 0 0.872138 0.000724821 -2.0053e-06 -0.000643686
8.056 0 0.889597 0.000542361 -4.52181e-06 -0.000503633
8.06736 0 0.907776 0.000425361 -7.95659e-06 -0.000354819
8.07919 0 0.926707 0.000404934 -9.27069e-06 -0.000225924
8.09151 0 0.946421 0.000428797 -1.0143e-05 -0.000112873
8.10434 0 0.966948 0.000454787 -1.01638e-05 -6.35045e-06
8.1177 0 0.988324 0.00046415 -8.20111e-06 8.17737e-05
8.13161 0 1.01058 0.000460576 -5.82426e-06 0.000151768
8.1461 0 1.03376 0.000438957 -4.53693e-06 0.000206453
8.16118 0 1.0579 0.000406064 -3.76596e-06 0.000223182
8.17689 0 1.08303 0.000361454 -2.96222e-06 0.000222069
8.19325 0 1.1092 0.00031278 -2.31032e-06 0.00020525
8.21028 0 1.13646 0.000259815 -2.22811e-06 0.000174051
8.22802 0 1.16484 0.000205838 -2.42727e-06 0.000137965
8.24649 0 1.19439 0.000147168 -1.50022e-06 0.000114285
8.26572 0 1.22516 7.99699e-05 -1.87741e-06 9.75104e-05
8.28575 0 1.25721 -7.84519e-06 -4.93533e-06 0.000103968
8.30661 0 1.29057 -0.000191024 -5.05181e-06 8.41584e-05
8.32832 0 1.32531 -0.00050583 -1.10345e-05 7.06681e-05
8.35093 0 1.3615 -0.00102431 -1.19963e-05 7.27553e-06
8.37448 0 1.39917 -0.00142954 -1.24012e-05 2.91223e-05
8.399 0 1.4384 -0.00199204 -7.77739e-06 -4.96444e-05
8.42454 0 1.47926 -0.00211376 -1.68839e-05 5.65091e-05
8.07738 0 0.855372 0.000694233 -2.10851e-06 -0.000714733
8.08869 0 0.872138 0.000530111 -4.85952e-06 -0.000558551
8.10048 0 0.889597 0.000434721 -7.69157e-06 -0.000382836
8.11275 0 0.907777 0.000426049 -7.91411e-06 -0.000230296
8.12553 0 0.926708 0.000453668 -7.84017e-06 -9.74819e-05
8.13883 0 0.94642 0.000482112 -7.75701e-06 3.21962e-05
8.15269 0 0.966948 0.0004991 -5.9263e-06 0.00013811
8.16712 0 0.988324 0.000489701 -3.07181e-06 0.000231687
8.18214 0 1.01058 0.000475587 -2.002e-06 0.000298866
8.19779 0 1.03376 0.000440911 -1.24982e-06 0.000333813
8.21408 0 1.0579 0.000396205 -8.91124e-10 0.000345223
8.23104 0 1.08303 0.000342786 4.56935e-07 0.00033337
8.24871 0 1.1092 0.000285031 7.38289e-07 0.000300112
8.26711 0 1.13646 0.000223942 1.10885e-06 0.000250909
8.28626 0 1.16483 0.00016917 2.10828e-06 0.000192996
8.30621 0 1.19439 0.000120313 1.76753e-06 0.00014261
8.32698 0 1.22516 7.5003e-05 1.26064e-06 0.000103971
8.34861 0 1.25721 3.13054e-05 1.32607e-06 9.51758e-05
8.37113 0 1.29057 -3.66421e-05 -1.44249e-06 9.28355e-05
8.39459 0 1.32531 -0.000183456 -7.36674e-06 0.000133055
8.41901 0 1.3615 -0.000592412 -6.57802e-06 9.40357e-05
8.44444 0 1.39917 -0.000980102 -1.41865e-05 0.000111809
8.47093 0 1.4384 -0.00156779 -9.96191e-06 3.63273e-05
8.4985 0 1.47926 -0.00171968 -1.76233e-05 0.000113534
8.12014 0 0.855372 0.000502094 -6.56989e-06 -0.000586097
8.1323 0 0.872138 0.000451421 -8.44084e-06 -0.00041549
8.14496 0 0.889596 0.000465802 -1.0461e-05 -0.000278534
8.15814 0 0.907777 0.000496486 -1.20956e-05 -0.00015488
8.17186 0 0.926708 0.000529175 -1.1958e-05 -3.02362e-05