0 1e-10
0.000963618 0.0155666
0.00192724 0.0282984
0.00290853 0.021189
0.00388982 0.014369
0.00488911 0.00955251
0.0058884 0.0058003
0.00690601 0.00353216
0.00792363 0.00221925
0.00895991 0.00154328
0.00999619 0.0012605
0.0110515 0.00111842
0.0121068 0.00109778
0.0131814 0.00109412
0.0142561 0.00112662
0.0153504 0.00116094
0.0164448 0.00120299
0.0175592 0.00124797
0.0186736 0.00129301
0.0198085 0.00133617
0.0209433 0.00138043
0.022099 0.00141648
0.0232547 0.00145605
0.0244316 0.00148354
0.0256084 0.00151602
0.0268069 0.00153585
0.0280054 0.00156056
0.0292258 0.0015745
0.0304462 0.0015921
0.0316891 0.0016008
0.0329319 0.00161321
0.0341975 0.00161775
0.0354631 0.00162692
0.036752 0.0016275
0.0380408 0.00163301
0.0393533 0.00162705
0.0406657 0.00162743
0.0420023 0.00161221
0.0433388 0.00160502
0.0446999 0.00158206
0.0460609 0.00156261
0.047447 0.00153786
0.048833 0.00150655
0.0502444 0.00148584
0.0516559 0.00145183
0.0530932 0.00143615
0.0545305 0.00140967
0.0559942 0.0013915
0.0574579 0.00137408
0.0589484 0.0013529
0.060439 0.00133991
0.0619568 0.0013253
0.0634747 0.00131397
0.0650204 0.00131049
0.0665661 0.0013011
0.0681402 0.00130693
0.0697143 0.00130102
0.0713172 0.00131167
0.0729201 0.00131009
0.0745524 0.00132237
0.0761848 0.00132453
0.077847 0.001334
0.0795093 0.00133759
0.0812021 0.00134276
0.0828948 0.0013498
0.0846186 0.0013561
0.0863424 0.00137243
0.0880979 0.00138862
0.0898533 0.00141844
0.0916409 0.00145624
0.0934285 0.00150348
0.0952489 0.00157221
0.0970693 0.00163563
0.0989231 0.00172857
0.100777 0.00179328
0.102665 0.00187596
0.104552 0.0019206
0.106475 0.00196197
0.108397 0.00197399
0.110355 0.00196937
0.112313 0.00193623
0.114306 0.00186992
0.1163 0.00178689
0.11833 0.00165699
0.12036 0.00153541
0.122428 0.0013744
0.124495 0.00123414
0.1266 0.00107478
0.128705 0.000940707
0.130849 0.000813417
0.132993 0.000706271
0.135177 0.000622907
0.13736 0.000551571
0.139583 0.000502467
0.141806 0.00045954
0.14407 0.000431654
0.146334 0.000406113
0.14864 0.000389625
0.150946 0.000373867
0.153293 0.000363516
0.155641 0.000353024
0.158032 0.000346378
0.160423 0.000339244
0.162858 0.000334966
0.165293 0.000330136
0.167772 0.000327474
0.170252 0.000324195
0.172776 0.000322632
0.175301 0.000320461
0.177873 0.000319679
0.180444 0.000318352
0.183062 0.000318176
0.185681 0.000317554
0.188347 0.000317889
0.191013 0.000317825
0.193729 0.000318571
0.196444 0.00031894
0.199209 0.000319876
0.201974 0.00032051
0.20479 0.00032153
0.207606 0.000322261
0.210473 0.000323397
0.213341 0.000324243
0.216261 0.000325495
0.219181 0.000326493
0.222155 0.000327835
0.225128 0.000328959
0.228156 0.000330356
0.231184 0.000331566
0.234268 0.000332993
0.237352 0.000334258
0.240492 0.00033571
0.243632 0.000337011
0.24683 0.000338487
0.250028 0.000339818
0.253285 0.000341318
0.256541 0.000342679
0.259857 0.000344209
0.263174 0.000345606
0.266551 0.000347161
0.269928 0.000348589
0.273367 0.000350154
0.276806 0.000351604
0.280308 0.00035319
0.28381 0.000354673
0.287376 0.000356283
0.290942 0.000357792
0.294574 0.0003594
0.298206 0.000360906
0.301904 0.000362526
0.305602 0.000364046
0.309368 0.000365712
0.313135 0.00036729
0.31697 0.000368978
0.320805 0.000370583
0.324711 0.000372258
0.328616 0.000373846
0.332593 0.00037553
0.336571 0.000377127
0.340621 0.00037885
0.344671 0.000380489
0.348795 0.000382248
0.35292 0.000383922
0.35712 0.00038571
0.36132 0.000387411
0.365597 0.000389232
0.369874 0.000390967
0.37423 0.000392822
0.378585 0.000394592
0.383021 0.000396479
0.387456 0.000398284
0.391973 0.000400203
0.39649 0.00040204
0.401089 0.000403992
0.405689 0.000405862
0.410373 0.000407848
0.415057 0.000409751
0.419827 0.000411774
0.424597 0.000413712
0.429454 0.000415772
0.434311 0.000417748
0.439258 0.000419848
0.444204 0.000421862
0.449241 0.000424003
0.454279 0.000426057
0.459408 0.00042824
0.464538 0.000430335
0.469761 0.000432563
0.474985 0.000434702
0.480305 0.000436974
0.485624 0.000439157
0.491041 0.000441475
0.496458 0.000443703
0.501975 0.000446069
0.507491 0.000448345
0.513109 0.000450761
0.518726 0.000453085
0.524447 0.000455551
0.530167 0.000457925
0.535993 0.000460445
0.541818 0.00046287
0.547751 0.000465445
0.553683 0.000467924
0.559724 0.000470557
0.565765 0.000473092
0.571917 0.000475784
0.578069 0.000478377
0.584334 0.000481129
0.590599 0.000483782
0.596979 0.000486597
0.603358 0.000489312
0.609855 0.000492194
0.616352 0.000494973
0.622968 0.000497926
0.629583 0.000500774
0.636321 0.0005038
0.643058 0.000506719
0.649919 0.000509821
0.656779 0.000512814
0.663766 0.000515993
0.670753 0.000519062
0.677867 0.000522321
0.684982 0.000525469
0.692227 0.000528813
0.699473 0.000532044
0.706851 0.000535477
0.714229 0.000538796
0.721742 0.000542325
0.729256 0.000545735
0.736907 0.00054936
0.744558 0.000552867
0.75235 0.000556593
0.760142 0.000560199
0.768076 0.000564031
0.776011 0.00056774
0.784091 0.000571681
0.792171 0.000575499
0.800399 0.000579557
0.808627 0.000583486
0.817006 0.00058766
0.825385 0.00059171
0.833918 0.000596011
0.842451 0.00060018
0.85114 0.000604607
0.85983 0.000608907
0.868678 0.000613468
0.877527 0.000617898
0.886538 0.000622597
0.895549 0.000627164
0.904725 0.000632008
0.913901 0.000636718
0.923246 0.000641702
0.93259 0.000646552
0.942106 0.000651701
0.951622 0.000656721
0.961313 0.000661994
0.971003 0.000667118
0.980872 0.000672615
0.99074 0.000677996
1.00079 0.000683527
1.01084 0.000688895
1.02107 0.000694801
1.03131 0.0007006
1.04173 0.000706357
1.05215 0.000711964
1.06276 0.000718281
1.07337 0.000724456
1.08418 0.000730523
1.09499 0.000736496
1.10599 0.000743068
1.117 0.000749447
1.1282 0.000756002
1.13941 0.000762483
1.15082 0.000769191
1.16224 0.000775757
1.17386 0.000782731
1.18548 0.000789559
1.19731 0.000796607
1.20915 0.000803571
1.2212 0.000810722
1.23325 0.000817734
1.24553 0.000825161
1.2578 0.000832455
1.2703 0.000839896
1.2828 0.000847249
1.29552 0.000854849
1.30825 0.00086233
1.32121 0.000870057
1.33417 0.000877658
1.34737 0.000885523
1.36057 0.000893288
1.37401 0.000901176
1.38745 0.000908965
1.40114 0.000917002
1.41483 0.000924927
1.42877 0.000933016
1.4427 0.000940998
1.4569 0.000955068
1.47109 0.00096881
1.48555 0.000972004
1.5 0.000975215
1.50339 0.000976358
1.50679 0.0009775
1.5136 0.000979451
1.52041 0.000981402
1.52046 0.000981421
1.5205 0.000981441
1.52751 0.000984347
1.53451 0.000987261
1.53809 0.000988624
1.54167 0.000989987
1.54524 0.000991572
1.54882 0.000993156
1.55612 0.000996152
1.56343 0.000999177
1.56363 0.00099926
1.56383 0.000999342
1.57109 0.00100279
1.57835 0.00100623
1.58265 0.00100813
1.58696 0.00101004
1.59027 0.0010117
1.59359 0.00101336
1.60137 0.00101701
1.60915 0.0010208
1.61013 0.00102127
1.61111 0.00102173
1.61807 0.00102544
1.62504 0.00102915
1.6307 0.00103199
1.63636 0.00103483
1.63881 0.00103619
1.64127 0.00103755
1.64955 0.00104191
1.65784 0.00104659
1.66031 0.00104791
1.66279 0.00104924
1.66878 0.00105274
1.67476 0.00105625
1.68262 0.00106063
1.69048 0.001065
1.69126 0.00106547
1.69205 0.00106595
1.70087 0.0010713
1.7097 0.00107674
1.7146 0.00107962
1.71951 0.00108251
1.72362 0.00108512
1.72772 0.00108773
1.73693 0.00109332
1.74613 0.00109915
1.74806 0.00110036
1.75 0.00110156
1.75746 0.00110655
1.76493 0.00111153
1.77349 0.00111703
1.78205 0.00112252
1.78309 0.00112324
1.78412 0.00112395
1.79393 0.00113072
1.80373 0.00113763
1.80976 0.00114171
1.81579 0.0011458
1.81977 0.00114867
1.82375 0.00115154
1.83397 0.00115863
1.8442 0.00116614
1.84777 0.00116867
1.85135 0.00117119
1.85821 0.00117634
1.86508 0.00118148
1.87574 0.00118912
1.8864 0.00119689
1.88764 0.00119778
1.88889 0.00119866
1.89853 0.00120592
1.90818 0.00121318
1.91837 0.00122094
1.92857 0.00122871
1.92949 0.00122945
1.93041 0.0012302
1.94177 0.00123673
1.95312 0.00124336
1.96186 0.00125247
1.97059 0.00126158
1.97345 0.00126466
1.97632 0.00126773
1.98816 0.00127591
2 0.00128411
