0 	0 	0 	0 	0 	0 	0
0.00123105 	0.0725524 	-0.00396294 	0.0131049 	0.0211 	-0.000101486 	-0.00271992
0.0024621 	0.129894 	-0.00905483 	0.00784698 	0.0409231 	-0.000224798 	-0.00573473
0.00251587 	0.131771 	-0.00932389 	0.00685873 	0.0417363 	-0.000231087 	-0.00587861
0.00256965 	0.133647 	-0.00959296 	0.00587049 	0.0425495 	-0.000237375 	-0.00602248
0.00355588 	0.155304 	-0.0134472 	0.00533954 	0.0508974 	-0.000352341 	-0.00741794
0.00454212 	0.176277 	-0.0175464 	0.00411137 	0.0591489 	-0.000471815 	-0.00882601
0.00486427 	0.181339 	-0.0195261 	0.00188711 	0.0615921 	-0.000522629 	-0.00931893
0.00518642 	0.186401 	-0.0215059 	-0.000337141 	0.0640353 	-0.000573444 	-0.00981184
0.00646304 	0.207512 	-0.0282108 	-0.00312481 	0.0745112 	-0.000810508 	-0.0115604
0.00773966 	0.22437 	-0.0365509 	-0.00762143 	0.0844777 	-0.00107473 	-0.0133743
0.00779543 	0.224931 	-0.0369828 	-0.00788845 	0.0848921 	-0.0010874 	-0.0134562
0.00785119 	0.225491 	-0.0374147 	-0.00815547 	0.0853064 	-0.00110006 	-0.0135381
0.00887394 	0.235319 	-0.0433288 	-0.0103586 	0.0929989 	-0.00133364 	-0.0148725
0.00989668 	0.244447 	-0.0495095 	-0.0126393 	0.100618 	-0.00157078 	-0.0162126
0.0102308 	0.245599 	-0.052225 	-0.0135871 	0.102914 	-0.00165755 	-0.0166652
0.0105648 	0.246751 	-0.0549406 	-0.0145348 	0.10521 	-0.00174433 	-0.0171178
0.0119465 	0.251664 	-0.0635169 	-0.0168635 	0.114337 	-0.00211235 	-0.0188027
0.0133283 	0.253122 	-0.0737079 	-0.0193195 	0.123068 	-0.00249343 	-0.0204794
0.0146764 	0.252763 	-0.0823718 	-0.0214995 	0.130714 	-0.00287892 	-0.022013
0.0160246 	0.251036 	-0.09217 	-0.0236365 	0.138122 	-0.00326561 	-0.0235118
0.0160835 	0.250904 	-0.0926449 	-0.0237281 	0.138436 	-0.00328255 	-0.0235759
0.0161424 	0.250772 	-0.0931198 	-0.0238197 	0.138749 	-0.0032995 	-0.0236399
0.0172224 	0.248327 	-0.100111 	-0.0258762 	0.143967 	-0.00361246 	-0.0248172
0.0183025 	0.245897 	-0.107252 	-0.0278706 	0.14916 	-0.00392418 	-0.0259871
0.0186553 	0.245143 	-0.109974 	-0.0283596 	0.150792 	-0.00402274 	-0.0263499
0.0190081 	0.24439 	-0.112696 	-0.0288486 	0.152424 	-0.00412131 	-0.0267126
0.0204672 	0.239932 	-0.12197 	-0.0321578 	0.158429 	-0.00452774 	-0.0283064
0.0219263 	0.236825 	-0.131989 	-0.034459 	0.16436 	-0.0049178 	-0.0298485
0.0233501 	0.232424 	-0.140681 	-0.0380454 	0.169378 	-0.0052787 	-0.0314693
0.0247738 	0.229791 	-0.149795 	-0.0401901 	0.174406 	-0.00562049 	-0.0330446
0.024836 	0.229749 	-0.150211 	-0.0402242 	0.174626 	-0.00563463 	-0.0331115
0.0248981 	0.229707 	-0.150626 	-0.0402583 	0.174846 	-0.00564877 	-0.0331784
0.0260387 	0.226436 	-0.15719 	-0.0432016 	0.17832 	-0.00589304 	-0.0345547
0.0271793 	0.223525 	-0.163794 	-0.0458029 	0.181806 	-0.00613353 	-0.0359232
0.0275519 	0.223516 	-0.166056 	-0.0457585 	0.182978 	-0.00620219 	-0.0363498
0.0279244 	0.223507 	-0.168318 	-0.0457141 	0.184149 	-0.00627085 	-0.0367764
0.0294653 	0.219501 	-0.17654 	-0.049603 	0.188249 	-0.00652065 	-0.0387327
0.0310063 	0.21823 	-0.184839 	-0.0505641 	0.192489 	-0.00674293 	-0.040643
0.0325754 	0.214629 	-0.192491 	-0.054438 	0.196185 	-0.00689838 	-0.0426878
0.0341446 	0.213922 	-0.20004 	-0.0549224 	0.200052 	-0.00702607 	-0.044702
0.0357425 	0.210904 	-0.207078 	-0.0588677 	0.203444 	-0.00707053 	-0.0467709
0.0373405 	0.210801 	-0.213852 	-0.0590456 	0.207012 	-0.00708847 	-0.0488249
0.0389677 	0.208468 	-0.220268 	-0.063111 	0.21019 	-0.00700928 	-0.0508548
0.040595 	0.208958 	-0.22628 	-0.0630898 	0.213526 	-0.00690563 	-0.0528806
0.0422521 	0.207283 	-0.232071 	-0.0672317 	0.216551 	-0.00669841 	-0.0548291
0.0439092 	0.208305 	-0.237349 	-0.0670416 	0.219699 	-0.0064677 	-0.0567806
0.0455261 	0.207259 	-0.242281 	-0.0709545 	0.222484 	-0.00614607 	-0.058556
0.0471429 	0.208421 	-0.246721 	-0.0710597 	0.225335 	-0.00580564 	-0.0603395
0.0472135 	0.208563 	-0.246894 	-0.070907 	0.225462 	-0.00578999 	-0.0604178
0.0472842 	0.208705 	-0.247068 	-0.0707543 	0.225589 	-0.00577434 	-0.060496
0.0485795 	0.208248 	-0.250434 	-0.0736316 	0.227703 	-0.00543096 	-0.0618294
0.0498748 	0.208151 	-0.253714 	-0.0758696 	0.22982 	-0.00508431 	-0.0631653
0.0502979 	0.209062 	-0.254561 	-0.0749291 	0.23052 	-0.0049625 	-0.063608
0.0507211 	0.209973 	-0.255409 	-0.0739887 	0.231219 	-0.0048407 	-0.0640507
0.052471 	0.209725 	-0.259147 	-0.0773058 	0.233921 	-0.00427658 	-0.0657607
0.054221 	0.211872 	-0.262319 	-0.0764616 	0.236593 	-0.00368817 	-0.0674917
0.056003 	0.211894 	-0.265312 	-0.0791035 	0.239177 	-0.00302118 	-0.0691686
0.0577851 	0.214231 	-0.267784 	-0.0778854 	0.241694 	-0.00232917 	-0.0708623
0.0595998 	0.214489 	-0.270047 	-0.0798355 	0.244141 	-0.00156726 	-0.0725269
0.0614146 	0.216985 	-0.271842 	-0.0781406 	0.246495 	-0.000778645 	-0.0741902
0.0629577 	0.21735 	-0.273137 	-0.0793324 	0.248417 	-6.42355e-05 	-0.0755663
0.0645009 	0.218652 	-0.274249 	-0.0790189 	0.250293 	0.000661848 	-0.0769289
0.0648058 	0.219353 	-0.274383 	-0.0782459 	0.250642 	0.000810803 	-0.0771917
0.0651106 	0.220054 	-0.274516 	-0.0774729 	0.250991 	0.000959759 	-0.0774545
0.0667609 	0.220535 	-0.275317 	-0.078459 	0.252896 	0.00179372 	-0.0788541
0.0684111 	0.222262 	-0.27589 	-0.0775053 	0.254736 	0.00264316 	-0.0802157
0.0686428 	0.222795 	-0.275918 	-0.0769199 	0.254979 	0.00276603 	-0.080398
0.0688745 	0.223327 	-0.275945 	-0.0763346 	0.255222 	0.00288889 	-0.0805804
0.0707107 	0.223935 	-0.27621 	-0.0772675 	0.257214 	0.00389766 	-0.0820143
0.0725469 	0.226382 	-0.276167 	-0.0755087 	0.259104 	0.00492691 	-0.0833601
0.0726271 	0.226564 	-0.276153 	-0.0753207 	0.259182 	0.00497271 	-0.0834152
0.0727073 	0.226747 	-0.276138 	-0.0751327 	0.25926 	0.00501852 	-0.0834704
0.0741784 	0.227306 	-0.275874 	-0.0758041 	0.260779 	0.00589419 	-0.084483
0.0756495 	0.228171 	-0.275564 	-0.0760667 	0.26228 	0.00677229 	-0.0854756
0.07613 	0.229252 	-0.275343 	-0.0750834 	0.262723 	0.00706544 	-0.0857476
0.0766105 	0.230332 	-0.275123 	-0.0741001 	0.263166 	0.00735859 	-0.0860196
0.0785979 	0.231177 	-0.274222 	-0.0748854 	0.265117 	0.0086358 	-0.0871643
0.0805853 	0.234027 	-0.273046 	-0.0732461 	0.266947 	0.00991843 	-0.0881497
0.0825244 	0.234849 	-0.27168 	-0.0738612 	0.268728 	0.011258 	-0.0890419
0.0844635 	0.237271 	-0.270096 	-0.0727417 	0.270419 	0.0125906 	-0.0897916
0.0845482 	0.237443 	-0.270018 	-0.0726211 	0.270489 	0.0126486 	-0.0898185
0.0846329 	0.237615 	-0.26994 	-0.0725005 	0.270559 	0.0127065 	-0.0898454
0.0861864 	0.238207 	-0.268504 	-0.0728637 	0.271865 	0.0138519 	-0.0903995
0.0877399 	0.239049 	-0.26703 	-0.0729784 	0.273159 	0.0149943 	-0.09093
0.0882474 	0.239976 	-0.266451 	-0.0723662 	0.273548 	0.0153594 	-0.0910413
0.0887548 	0.240904 	-0.265871 	-0.071754 	0.273937 	0.0157246 	-0.0911527
0.0908536 	0.241592 	-0.263498 	-0.0720015 	0.275507 	0.017362 	-0.0917309
0.0929523 	0.243815 	-0.260856 	-0.0707996 	0.277013 	0.0189686 	-0.0921608
0.0950896 	0.244434 	-0.258023 	-0.0706932 	0.278386 	0.0207172 	-0.092626
0.0972268 	0.246345 	-0.254913 	-0.0693911 	0.279732 	0.0224308 	-0.0929674
0.0994033 	0.246964 	-0.251638 	-0.0688422 	0.280908 	0.0242809 	-0.0933587
0.10158 	0.248548 	-0.248089 	-0.0673403 	0.282101 	0.0260977 	-0.0936555
0.103796 	0.249218 	-0.2444 	-0.0663427 	0.283114 	0.0280407 	-0.0939996
0.106012 	0.250478 	-0.240457 	-0.0645997 	0.284191 	0.0299548 	-0.0942834
0.108269 	0.251199 	-0.236403 	-0.0631646 	0.285078 	0.031987 	-0.0945896
0.110526 	0.252154 	-0.232137 	-0.0611723 	0.286062 	0.0339941 	-0.0948753
0.112825 	0.25293 	-0.227797 	-0.0593014 	0.286828 	0.0361136 	-0.095151
0.115123 	0.253611 	-0.223295 	-0.0570843 	0.287705 	0.0382112 	-0.095452
0.1157 	0.253804 	-0.222184 	-0.056529 	0.28786 	0.0387537 	-0.0955154
0.116276 	0.253996 	-0.221073 	-0.0559738 	0.288015 	0.0392962 	-0.0955787
0.11804 	0.254586 	-0.217672 	-0.054274 	0.288488 	0.040957 	-0.0957728
0.119804 	0.254824 	-0.214141 	-0.0524697 	0.289076 	0.0425982 	-0.0960419
0.121894 	0.255409 	-0.210154 	-0.0501449 	0.289497 	0.0446021 	-0.0962525
0.123984 	0.255709 	-0.206094 	-0.0479473 	0.289981 	0.0465952 	-0.0965347
0.124278 	0.255684 	-0.205507 	-0.0476683 	0.290063 	0.0468725 	-0.096591
0.124571 	0.25566 	-0.204921 	-0.0473894 	0.290146 	0.0471498 	-0.0966473
0.126999 	0.2561 	-0.200476 	-0.0443001 	0.29047 	0.0495137 	-0.0968541
0.129426 	0.255984 	-0.195869 	-0.0418254 	0.29089 	0.0518592 	-0.0972285
0.131897 	0.256106 	-0.191645 	-0.0383216 	0.29105 	0.0542967 	-0.0973825
0.134369 	0.255711 	-0.18717 	-0.0358144 	0.291287 	0.0567167 	-0.0977284
0.136886 	0.255436 	-0.183244 	-0.031973 	0.291273 	0.0592232 	-0.0978168
0.139403 	0.254806 	-0.178914 	-0.0294423 	0.291307 	0.0617125 	-0.0980969
0.141544 	0.254216 	-0.175902 	-0.0261149 	0.291153 	0.0638548 	-0.0981106
0.143684 	0.25358 	-0.172621 	-0.0234159 	0.291005 	0.0659894 	-0.0981966
0.144107 	0.253433 	-0.171846 	-0.0231796 	0.290979 	0.0664074 	-0.0982478
0.14453 	0.253286 	-0.171071 	-0.0229433 	0.290953 	0.0668255 	-0.0982991
0.14453 	0.253286 	-0.171071 	-0.0229433 	0.290953 	0.0668255 	-0.0982991
0.146662 	0.252455 	-0.168339 	-0.019808 	0.290687 	0.0689548 	-0.0982496
0.148794 	0.251662 	-0.165281 	-0.0171916 	0.290415 	0.0710773 	-0.0982493
0.149272 	0.251508 	-0.164383 	-0.0169412 	0.29035 	0.0715486 	-0.098281
0.14975 	0.251354 	-0.163486 	-0.0166909 	0.290285 	0.0720198 	-0.0983127
0.152408 	0.250357 	-0.160278 	-0.0132935 	0.289864 	0.0746409 	-0.0981648
0.155066 	0.24948 	-0.155903 	-0.0110873 	0.289403 	0.0772429 	-0.0981178
0.157773 	0.248927 	-0.15266 	-0.00838442 	0.288919 	0.079857 	-0.0978554
0.16048 	0.24826 	-0.148043 	-0.00653527 	0.288387 	0.0824502 	-0.0976704
0.163237 	0.248376 	-0.14458 	-0.00461409 	0.287866 	0.085038 	-0.0972452
0.165993 	0.248019 	-0.139626 	-0.00318495 	0.2873 	0.0876019 	-0.096891
0.1688 	0.248715 	-0.135777 	-0.00205397 	0.28677 	0.0901405 	-0.0962684
0.171607 	0.248652 	-0.13039 	-0.00107342 	0.286198 	0.0926534 	-0.0957236
0.174466 	0.2496 	-0.12607 	-0.000721207 	0.285678 	0.0951258 	-0.094912
0.177324 	0.249648 	-0.120178 	-0.000265525 	0.285114 	0.0975711 	-0.0941862
0.180235 	0.25052 	-0.115339 	-0.000481386 	0.284609 	0.099962 	-0.0932351
0.183146 	0.250425 	-0.108904 	-0.0005882 	0.28406 	0.102323 	-0.0923674
0.183146 	0.250425 	-0.108904 	-0.0005882 	0.28406 	0.102323 	-0.0923674
0.186111 	0.251215 	-0.103571 	-0.00105025 	0.283557 	0.104616 	-0.0913448
0.189075 	0.250841 	-0.0966538 	-0.00174833 	0.283018 	0.106878 	-0.0903875
0.192094 	0.251903 	-0.0909612 	-0.00208218 	0.282508 	0.109053 	-0.089329
0.195113 	0.251329 	-0.0835708 	-0.00327872 	0.28198 	0.111199 	-0.0883119
0.198187 	0.253172 	-0.0780096 	-0.00301902 	0.281498 	0.11323 	-0.0872008
0.201261 	0.252678 	-0.0706609 	-0.00444808 	0.281018 	0.115243 	-0.0861123
0.204335 	0.255419 	-0.065597 	-0.00331877 	0.280643 	0.117075 	-0.0849083
0.207409 	0.255308 	-0.0588505 	-0.00461811 	0.280274 	0.118899 	-0.0837043
0.207465 	0.255263 	-0.058701 	-0.00467861 	0.280267 	0.118932 	-0.0836822
0.207522 	0.255218 	-0.0585515 	-0.00473912 	0.280261 	0.118965 	-0.08366
0.209849 	0.257725 	-0.0553249 	-0.00328396 	0.280099 	0.120203 	-0.0826442
0.212176 	0.260015 	-0.0519911 	-0.00203631 	0.279938 	0.121441 	-0.0816252
0.213037 	0.259316 	-0.0499968 	-0.00304801 	0.279879 	0.121894 	-0.0812251
0.213898 	0.258616 	-0.0480024 	-0.00405971 	0.27982 	0.122347 	-0.0808251
0.217144 	0.262394 	-0.0447715 	-0.00141945 	0.279783 	0.123888 	-0.079267
0.22039 	0.262565 	-0.0401873 	-0.00254545 	0.279746 	0.125411 	-0.0775986
0.223696 	0.266625 	-0.0381608 	0.00071651 	0.279836 	0.126814 	-0.0759192
0.227002 	0.267174 	-0.0354509 	2.54437e-06 	0.279927 	0.128191 	-0.0741019
0.230308 	0.27135 	-0.0346103 	0.00397384 	0.280035 	0.129423 	-0.0723979
0.233614 	0.27261 	-0.03405 	0.00443524 	0.280128 	0.130633 	-0.0705667
0.233674 	0.272589 	-0.0340439 	0.00439086 	0.28013 	0.130655 	-0.070531
0.233735 	0.272568 	-0.0340378 	0.00434648 	0.280131 	0.130677 	-0.0704954
0.236238 	0.275588 	-0.0340623 	0.00779394 	0.280184 	0.131468 	-0.0691925
0.238741 	0.278448 	-0.0341786 	0.0110534 	0.280233 	0.132259 	-0.067884
0.239666 	0.278378 	-0.0348729 	0.0109245 	0.280228 	0.132549 	-0.06736
0.240592 	0.278308 	-0.0355672 	0.0107955 	0.280224 	0.132839 	-0.066836
0.244083 	0.282008 	-0.0361033 	0.0157551 	0.280302 	0.133724 	-0.0649694
0.247574 	0.283605 	-0.0393338 	0.0186209 	0.280276 	0.134629 	-0.0630877
0.247574 	0.283605 	-0.0393338 	0.0186209 	0.280276 	0.134629 	-0.0630877
0.251129 	0.286683 	-0.0399136 	0.0234383 	0.280395 	0.135294 	-0.0611531
0.254685 	0.28791 	-0.0442727 	0.0266541 	0.280353 	0.136009 	-0.0592556
0.258305 	0.290043 	-0.044237 	0.0308892 	0.280458 	0.136419 	-0.0572933
0.261925 	0.290622 	-0.0485516 	0.0334735 	0.280355 	0.136922 	-0.0553892
0.265612 	0.291181 	-0.0472147 	0.0362389 	0.280389 	0.137055 	-0.0534282
0.269299 	0.290412 	-0.0500029 	0.0365128 	0.280171 	0.137339 	-0.0515231
0.273053 	0.288532 	-0.0467918 	0.0366828 	0.2801 	0.137244 	-0.0495382
0.276808 	0.28546 	-0.0469007 	0.0327672 	0.279755 	0.137338 	-0.0475904
0.280631 	0.280536 	-0.0418755 	0.0296797 	0.27955 	0.137077 	-0.0454911
0.284454 	0.274714 	-0.0392724 	0.0208225 	0.279105 	0.137003 	-0.0434169
0.288348 	0.267241 	-0.0333185 	0.015243 	0.278752 	0.136613 	-0.0411699
0.292241 	0.25953 	-0.0289783 	0.00295286 	0.278249 	0.136385 	-0.0389713
0.296206 	0.250947 	-0.0233392 	-0.00320638 	0.277814 	0.135878 	-0.0366236
0.300171 	0.242708 	-0.0185272 	-0.015662 	0.277324 	0.135508 	-0.0344012
0.304208 	0.2348 	-0.0145405 	-0.0208939 	0.276993 	0.134851 	-0.0319965
0.308246 	0.227128 	-0.0105028 	-0.0305817 	0.276679 	0.134325 	-0.0298265
0.312358 	0.221669 	-0.00926235 	-0.0342797 	0.276617 	0.133505 	-0.0273719
0.316469 	0.215776 	-0.00707918 	-0.0397097 	0.276646 	0.132818 	-0.0252191
0.320656 	0.214646 	-0.00911954 	-0.0418961 	0.276946 	0.131848 	-0.0227147
0.324843 	0.21224 	-0.00947213 	-0.0432622 	0.277437 	0.131009 	-0.0204428
0.329107 	0.21769 	-0.0145913 	-0.044354 	0.278147 	0.129948 	-0.0177882
0.333371 	0.221492 	-0.0178382 	-0.0429591 	0.279137 	0.128999 	-0.0151799
0.337713 	0.234395 	-0.0249369 	-0.0426034 	0.28018 	0.127918 	-0.0122102
0.342055 	0.246629 	-0.0307859 	-0.0390886 	0.28147 	0.126902 	-0.00910474
0.346476 	0.264568 	-0.0375254 	-0.0351044 	0.282636 	0.125815 	-0.00580459
0.350898 	0.284641 	-0.0441975 	-0.02793 	0.283893 	0.124738 	-0.00226605
0.355401 	0.302239 	-0.0473397 	-0.0168035 	0.285039 	0.123615 	0.00131049
0.359903 	0.325502 	-0.051585 	-0.00245352 	0.286173 	0.122462 	0.00514429
0.364489 	0.336222 	-0.0489112 	0.0186913 	0.287427 	0.121259 	0.00896918
0.369074 	0.354903 	-0.0475443 	0.0435394 	0.288658 	0.120003 	0.0130269
0.373744 	0.357277 	-0.0391395 	0.0749054 	0.290239 	0.118748 	0.0170309
0.378413 	0.366712 	-0.0310363 	0.110215 	0.29181 	0.117412 	0.0212301
0.378413 	0.366712 	-0.0310363 	0.110215 	0.29181 	0.117412 	0.0212301
0.383168 	0.364684 	-0.0188109 	0.149703 	0.293763 	0.116201 	0.0253261
0.387923 	0.366206 	-0.00545948 	0.192025 	0.295716 	0.114864 	0.0295877
0.392765 	0.365707 	0.00802122 	0.235677 	0.297978 	0.113755 	0.0337136
0.397608 	0.365323 	0.0237659 	0.279334 	0.300246 	0.112495 	0.0379934
0.402539 	0.372174 	0.0369861 	0.321139 	0.302795 	0.111457 	0.0420613
0.40747 	0.376444 	0.0527976 	0.360162 	0.305323 	0.110289 	0.046251
0.41225 	0.391061 	0.0639753 	0.389104 	0.307931 	0.109289 	0.0499369
0.41703 	0.402065 	0.076965 	0.416061 	0.310478 	0.108209 	0.0536844
0.417271 	0.402441 	0.0777109 	0.417323 	0.310604 	0.10815 	0.0538767
0.417513 	0.402817 	0.0784569 	0.418586 	0.310729 	0.108092 	0.0540691
0.422626 	0.421157 	0.0877106 	0.430874 	0.313387 	0.107011 	0.057764
0.42774 	0.435354 	0.0985249 	0.443653 	0.315974 	0.105846 	0.0615034
0.431698 	0.445417 	0.104284 	0.439206 	0.317833 	0.105034 	0.0644499
0.435655 	0.455074 	0.110199 	0.435328 	0.319694 	0.104209 	0.0673947
0.436905 	0.45724 	0.112405 	0.435342 	0.320287 	0.103919 	0.0683207
0.438155 	0.459406 	0.114612 	0.435355 	0.32088 	0.103629 	0.0692466
0.443458 	0.463524 	0.121813 	0.412045 	0.323304 	0.10259 	0.0736726
0.448761 	0.466913 	0.129684 	0.394566 	0.325815 	0.101477 	0.0779453
0.453901 	0.462373 	0.135347 	0.360413 	0.328202 	0.100475 	0.0825713
0.459042 	0.458131 	0.142139 	0.331196 	0.33062 	0.0994031 	0.0869311
0.459302 	0.457932 	0.142537 	0.329966 	0.330744 	0.0993455 	0.0871381
0.459561 	0.457733 	0.142936 	0.328736 	0.330868 	0.0992879 	0.087345
0.463741 	0.449468 	0.143426 	0.302073 	0.332736 	0.0983939 	0.0910622
0.46792 	0.441336 	0.144422 	0.275791 	0.334592 	0.0974814 	0.09471
0.46924 	0.439058 	0.145842 	0.268323 	0.335148 	0.0971524 	0.0957104
0.47056 	0.436781 	0.147261 	0.260856 	0.335705 	0.0968235 	0.0967109
0.47616 	0.424042 	0.139824 	0.239925 	0.337995 	0.0955384 	0.101325
0.48176 	0.411833 	0.136613 	0.216321 	0.340193 	0.0941203 	0.105548
0.487463 	0.400145 	0.124046 	0.209734 	0.342207 	0.0927758 	0.109627
0.493165 	0.388566 	0.115161 	0.198805 	0.344195 	0.0912949 	0.113439
0.498973 	0.379438 	0.102166 	0.199363 	0.345791 	0.0898496 	0.11701
0.50478 	0.370042 	0.0917328 	0.197357 	0.347404 	0.0883063 	0.120399
0.510694 	0.364118 	0.0808709 	0.208588 	0.34859 	0.0868197 	0.123962
0.516608 	0.357402 	0.0718529 	0.218166 	0.349882 	0.0853352 	0.127335
0.522341 	0.355453 	0.0655478 	0.247951 	0.350912 	0.0839825 	0.131093
0.528074 	0.352679 	0.0602935 	0.277402 	0.352115 	0.0827182 	0.134661
0.528363 	0.352498 	0.0600804 	0.278872 	0.352184 	0.0826587 	0.134832
0.528653 	0.352317 	0.0598672 	0.280343 	0.352253 	0.0825993 	0.135003
0.534786 	0.357513 	0.059163 	0.330262 	0.353924 	0.0811639 	0.139011
0.540918 	0.362275 	0.0590774 	0.383136 	0.355822 	0.0799036 	0.142843
0.545665 	0.373717 	0.0624229 	0.425305 	0.357985 	0.0788222 	0.14538
0.550411 	0.385242 	0.065704 	0.468413 	0.36018 	0.0777698 	0.147916
0.55191 	0.38906 	0.0665996 	0.484073 	0.360942 	0.077501 	0.148714
0.553409 	0.392877 	0.0674952 	0.499733 	0.361704 	0.0772322 	0.149513
0.559463 	0.414845 	0.0738192 	0.543053 	0.365303 	0.0760749 	0.151783
0.565517 	0.437463 	0.0787033 	0.591275 	0.368966 	0.0750374 	0.154207
0.565823 	0.438638 	0.0788785 	0.593953 	0.369154 	0.0749909 	0.154337
0.566129 	0.439812 	0.0790537 	0.596632 	0.369342 	0.0749444 	0.154467
0.572605 	0.467781 	0.0846173 	0.623049 	0.373463 	0.0740511 	0.156171
0.579082 	0.496094 	0.0872893 	0.652999 	0.377537 	0.0732871 	0.158128
0.584094 	0.519742 	0.0889662 	0.659715 	0.380626 	0.0728902 	0.159287
0.589107 	0.543498 	0.0900575 	0.666527 	0.383696 	0.0725056 	0.160473
0.59069 	0.551232 	0.0891254 	0.668889 	0.384623 	0.0724111 	0.160908
0.592272 	0.558967 	0.0881933 	0.671251 	0.38555 	0.0723166 	0.161343
0.598989 	0.588036 	0.0875816 	0.669027 	0.389229 	0.0719456 	0.162975
0.605705 	0.619459 	0.0832408 	0.666449 	0.392713 	0.0716003 	0.164711
0.612216 	0.635228 	0.0819784 	0.65764 	0.395782 	0.0709821 	0.166176
0.618726 	0.653556 	0.0775924 	0.648952 	0.398668 	0.0703986 	0.16781
0.619055 	0.654609 	0.0772158 	0.648519 	0.398805 	0.0703708 	0.1679
0.619384 	0.655661 	0.0768392 	0.648086 	0.398942 	0.0703431 	0.167991
0.619719 	0.65576 	0.0767737 	0.647515 	0.399089 	0.0702816 	0.168049
0.620053 	0.655859 	0.0767081 	0.646944 	0.399236 	0.0702202 	0.168107
0.626684 	0.657814 	0.07541 	0.635642 	0.402147 	0.0690037 	0.169249
0.633314 	0.660602 	0.0709614 	0.62383 	0.404961 	0.0678682 	0.170761
0.638022 	0.661249 	0.0696164 	0.620384 	0.407145 	0.0664867 	0.171433
0.64273 	0.661895 	0.0682713 	0.616939 	0.40933 	0.0651052 	0.172105
0.643412 	0.661989 	0.0680765 	0.61644 	0.409646 	0.0649051 	0.172202
0.644094 	0.661885 	0.0675938 	0.615652 	0.409976 	0.0647268 	0.172367
0.645797 	0.661626 	0.066389 	0.613686 	0.410799 	0.0642818 	0.172778
0.647499 	0.661366 	0.0651842 	0.611721 	0.411621 	0.0638368 	0.173189
0.654722 	0.672244 	0.0628026 	0.618551 	0.415351 	0.0609887 	0.17421
0.661944 	0.683594 	0.0597331 	0.624654 	0.419225 	0.0582591 	0.175516
0.669299 	0.700032 	0.0597946 	0.637244 	0.423538 	0.0548132 	0.176478
0.676655 	0.7198 	0.058946 	0.651627 	0.427939 	0.0513912 	0.17753
0.683785 	0.725071 	0.0631752 	0.657362 	0.432705 	0.0477871 	0.178328
0.690915 	0.729798 	0.0649986 	0.664492 	0.437489 	0.0441027 	0.179106
0.691275 	0.73001 	0.0649712 	0.664921 	0.437732 	0.0439127 	0.179145
0.691635 	0.730222 	0.0649438 	0.665351 	0.437974 	0.0437226 	0.179183
0.699262 	0.708597 	0.0699874 	0.65003 	0.443284 	0.0398392 	0.179725
0.70689 	0.677912 	0.0684139 	0.631283 	0.448661 	0.0357099 	0.180291
0.713725 	0.641963 	0.0687936 	0.594818 	0.453463 	0.0323842 	0.180454
0.72056 	0.600802 	0.0640065 	0.552747 	0.45836 	0.0288678 	0.180603
0.721492 	0.594039 	0.0622138 	0.545774 	0.459049 	0.0283462 	0.180621
0.722424 	0.587276 	0.0604211 	0.5388 	0.459738 	0.0278246 	0.180638
0.730334 	0.552348 	0.0554387 	0.485222 	0.465606 	0.0243615 	0.180439
0.738244 	0.515484 	0.0437657 	0.420462 	0.471587 	0.0206661 	0.179993
0.744945 	0.501964 	0.0350093 	0.3821 	0.476602 	0.0181855 	0.179233
0.751646 	0.489581 	0.0247572 	0.341721 	0.48158 	0.015687 	0.178338
0.753 	0.487646 	0.0219406 	0.332558 	0.482567 	0.0151733 	0.178091
0.754354 	0.485711 	0.019124 	0.323395 	0.483554 	0.0146596 	0.177844
0.761572 	0.485913 	0.00464308 	0.302735 	0.488874 	0.0124767 	0.176713
0.76879 	0.488948 	-0.0101719 	0.284993 	0.494102 	0.0103536 	0.175524
0.769775 	0.489986 	-0.0122659 	0.283218 	0.494794 	0.0100772 	0.175349
0.770759 	0.491025 	-0.0143598 	0.281442 	0.495487 	0.00980091 	0.175174
0.779112 	0.498129 	-0.0337567 	0.285442 	0.5023 	0.00769531 	0.174762
0.787465 	0.509937 	-0.0497854 	0.296702 	0.509143 	0.00578806 	0.1745
0.795971 	0.5144 	-0.0691236 	0.314941 	0.517536 	0.00392093 	0.175917
0.804478 	0.522138 	-0.0830326 	0.334046 	0.526183 	0.00221642 	0.177534
0.812724 	0.527526 	-0.0985456 	0.346693 	0.53553 	0.000529475 	0.180724
0.820969 	0.533349 	-0.110589 	0.355829 	0.545148 	-0.0011527 	0.183975
0.821386 	0.533664 	-0.111025 	0.356117 	0.545647 	-0.00123742 	0.184143
0.821802 	0.53398 	-0.111461 	0.356404 	0.546146 	-0.00132214 	0.18431
0.828506 	0.540611 	-0.122596 	0.357589 	0.554322 	-0.00269593 	0.187951
0.83521 	0.54654 	-0.133534 	0.358276 	0.562522 	-0.00408314 	0.191583
0.837328 	0.546883 	-0.136561 	0.357407 	0.565162 	-0.00455044 	0.192712
0.839445 	0.547226 	-0.139587 	0.356538 	0.567803 	-0.00501775 	0.19384
0.846918 	0.547499 	-0.156985 	0.352387 	0.577426 	-0.00655972 	0.198373
0.854391 	0.545859 	-0.174048 	0.347896 	0.586976 	-0.00813906 	0.202865
0.855901 	0.544575 	-0.177327 	0.346819 	0.588869 	-0.00847677 	0.203753
0.857411 	0.54329 	-0.180607 	0.345742 	0.590763 	-0.00881447 	0.20464
0.866558 	0.536023 	-0.210132 	0.338665 	0.602549 	-0.0107105 	0.209533
0.875706 	0.528638 	-0.234878 	0.327661 	0.614022 	-0.0127268 	0.214322
0.885021 	0.527118 	-0.264056 	0.310142 	0.624947 	-0.0147084 	0.217562
0.894337 	0.527647 	-0.283762 	0.282563 	0.63577 	-0.0168925 	0.220852
0.901547 	0.534528 	-0.296441 	0.25298 	0.643205 	-0.018608 	0.222587
0.908756 	0.541424 	-0.30755 	0.22157 	0.650672 	-0.0203691 	0.224366
0.911033 	0.543634 	-0.307638 	0.207666 	0.653099 	-0.0210245 	0.225023
0.91331 	0.545844 	-0.307725 	0.193763 	0.655525 	-0.0216798 	0.22568
0.92297 	0.562603 	-0.310313 	0.140915 	0.664866 	-0.0242533 	0.228938
0.93263 	0.578813 	-0.308507 	0.085021 	0.67454 	-0.0271194 	0.23246
0.940814 	0.600263 	-0.304729 	0.0496187 	0.682573 	-0.0291676 	0.236206
0.948998 	0.62278 	-0.301317 	0.0169393 	0.690781 	-0.0313154 	0.239987
0.950652 	0.627861 	-0.30081 	0.0116938 	0.692527 	-0.031799 	0.240767
0.952305 	0.632942 	-0.300303 	0.00644829 	0.694273 	-0.0322826 	0.241548
0.961121 	0.663907 	-0.293874 	-0.00589013 	0.70351 	-0.0341575 	0.245138
0.969937 	0.697618 	-0.28974 	-0.0129034 	0.712983 	-0.0361074 	0.248684
0.971139 	0.702821 	-0.289683 	-0.012685 	0.714327 	-0.0363898 	0.249158
0.972341 	0.708024 	-0.289626 	-0.0124665 	0.715671 	-0.0366723 	0.249631
0.980828 	0.7366 	-0.283366 	-0.0028686 	0.72495 	-0.0382931 	0.251852
0.989315 	0.766716 	-0.278931 	0.00897778 	0.734368 	-0.0399151 	0.254037
0.99103 	0.773568 	-0.278943 	0.0124915 	0.73634 	-0.0402435 	0.25446
0.992745 	0.78042 	-0.278956 	0.0160052 	0.738312 	-0.0405718 	0.254884
1.00189 	0.802681 	-0.274331 	0.035251 	0.748395 	-0.0422743 	0.256692
1.01103 	0.826508 	-0.271226 	0.0552855 	0.75861 	-0.0439498 	0.25851
1.01228 	0.830103 	-0.271138 	0.0581914 	0.760032 	-0.0441723 	0.25876
1.01352 	0.833698 	-0.27105 	0.0610974 	0.761454 	-0.0443948 	0.25901
1.0241 	0.854503 	-0.268199 	0.0820906 	0.772724 	-0.0464377 	0.261508
1.03468 	0.878108 	-0.266047 	0.103578 	0.784088 	-0.0484869 	0.26416
1.04545 	0.900045 	-0.264504 	0.120861 	0.794086 	-0.0510081 	0.266914
1.05623 	0.924822 	-0.26328 	0.140262 	0.804177 	-0.0535814 	0.269888
1.0672 	0.946356 	-0.261908 	0.155286 	0.812809 	-0.0563678 	0.272473
1.07817 	0.970591 	-0.261371 	0.174293 	0.821712 	-0.0592274 	0.275162
1.08934 	0.988158 	-0.258912 	0.187819 	0.830401 	-0.0614151 	0.277901
1.10051 	1.00809 	-0.257614 	0.205978 	0.839468 	-0.063613 	0.280537
1.10051 	1.00809 	-0.257614 	0.205978 	0.839468 	-0.063613 	0.280537
1.11189 	1.02006 	-0.252982 	0.217224 	0.849453 	-0.0647316 	0.283328
1.12327 	1.03348 	-0.249568 	0.23214 	0.859678 	-0.065778 	0.285901
1.13485 	1.03977 	-0.24232 	0.24022 	0.870924 	-0.0660212 	0.287585
1.14644 	1.04622 	-0.236165 	0.250232 	0.882212 	-0.0662108 	0.289069
1.15824 	1.04791 	-0.226797 	0.255045 	0.893825 	-0.0661616 	0.288809
1.17004 	1.04863 	-0.218089 	0.260442 	0.905483 	-0.0661502 	0.288509
1.18205 	1.04793 	-0.207847 	0.262491 	0.91643 	-0.0662798 	0.286715
1.19407 	1.04566 	-0.197689 	0.264347 	0.927662 	-0.0664456 	0.285089
1.2063 	1.04477 	-0.18805 	0.26443 	0.937812 	-0.0666022 	0.283003
1.21854 	1.04238 	-0.178186 	0.263969 	0.948431 	-0.0666796 	0.281106
1.22974 	1.04229 	-0.170968 	0.263176 	0.956908 	-0.0663636 	0.279808
1.24095 	1.04152 	-0.163601 	0.262047 	0.965654 	-0.0659576 	0.278526
1.2422 	1.04132 	-0.162754 	0.261868 	0.966674 	-0.0658981 	0.278385
1.24345 	1.04113 	-0.161907 	0.261689 	0.967694 	-0.0658386 	0.278245
1.25376 	1.04152 	-0.156775 	0.260832 	0.97403 	-0.065054 	0.277419
1.26407 	1.04168 	-0.151608 	0.259837 	0.98043 	-0.0642315 	0.276566
1.26645 	1.04155 	-0.15039 	0.25951 	0.981951 	-0.0640151 	0.276349
1.26883 	1.04143 	-0.149172 	0.259183 	0.983472 	-0.0637987 	0.276132
1.28045 	1.04191 	-0.144547 	0.258245 	0.988503 	-0.0627311 	0.275166
1.29207 	1.04211 	-0.139919 	0.257115 	0.993509 	-0.061628 	0.274155
1.29337 	1.04209 	-0.139401 	0.256959 	0.994065 	-0.0614991 	0.274035
1.29467 	1.04206 	-0.138883 	0.256802 	0.99462 	-0.0613702 	0.273915
1.30536 	1.04237 	-0.135264 	0.255838 	0.99786 	-0.0605106 	0.272909
1.31605 	1.04259 	-0.131653 	0.254802 	1.00106 	-0.0596398 	0.271888
1.31852 	1.04257 	-0.130825 	0.254513 	1.00177 	-0.059431 	0.271642
1.32099 	1.04256 	-0.129997 	0.254224 	1.00248 	-0.0592221 	0.271396
1.33439 	1.04285 	-0.126066 	0.252916 	1.00566 	-0.0584038 	0.269741
1.34778 	1.04296 	-0.122151 	0.251463 	1.00879 	-0.0575548 	0.268081
1.35878 	1.04317 	-0.119336 	0.2504 	1.01108 	-0.0570609 	0.266309
1.36977 	1.04334 	-0.116523 	0.249301 	1.01339 	-0.0565574 	0.264547
1.37242 	1.04334 	-0.115845 	0.249006 	1.01396 	-0.0564283 	0.26413
1.37507 	1.04335 	-0.115167 	0.248712 	1.01453 	-0.0562993 	0.263713
1.38767 	1.04355 	-0.112313 	0.247521 	1.01685 	-0.0557835 	0.261616
1.40026 	1.04369 	-0.109455 	0.24627 	1.01922 	-0.0552593 	0.259552
1.40156 	1.04369 	-0.109158 	0.246132 	1.01947 	-0.0552039 	0.259342
1.40286 	1.0437 	-0.108862 	0.245995 	1.01972 	-0.0551484 	0.259133
1.41701 	1.04389 	-0.105997 	0.244695 	1.02176 	-0.0546812 	0.257033
1.43116 	1.04399 	-0.103117 	0.243329 	1.02382 	-0.0542082 	0.254978
1.44412 	1.04414 	-0.100745 	0.242183 	1.0252 	-0.0538762 	0.253298
1.45708 	1.04424 	-0.0983599 	0.241004 	1.02656 	-0.0535308 	0.251633
1.45853 	1.04424 	-0.098091 	0.240867 	1.02671 	-0.0534901 	0.251449
1.45998 	1.04424 	-0.0978221 	0.24073 	1.02686 	-0.0534494 	0.251265
1.4719 	1.04434 	-0.0958291 	0.239718 	1.02777 	-0.0531523 	0.249874
1.48383 	1.04442 	-0.0938271 	0.238692 	1.02868 	-0.0528451 	0.248482
1.48658 	1.04443 	-0.0933588 	0.238446 	1.02888 	-0.052767 	0.248159
1.48933 	1.04443 	-0.0928905 	0.2382 	1.02908 	-0.052689 	0.247837
1.50427 	1.04451 	-0.090589 	0.236985 	1.02978 	-0.0522984 	0.246212
1.51921 	1.04454 	-0.0882583 	0.235741 	1.03045 	-0.0518828 	0.244573
1.53443 	1.04457 	-0.086085 	0.234557 	1.03078 	-0.051451 	0.243031
1.54965 	1.04456 	-0.0838803 	0.233351 	1.0311 	-0.0509976 	0.241474
1.56359 	1.04454 	-0.0820262 	0.232316 	1.0312 	-0.0505779 	0.24017
1.57752 	1.04449 	-0.080151 	0.231269 	1.03129 	-0.0501438 	0.238854
1.57908 	1.04448 	-0.0799381 	0.23115 	1.0313 	-0.050093 	0.238705
1.58064 	1.04447 	-0.0797251 	0.231032 	1.03131 	-0.0500423 	0.238556
1.59346 	1.04441 	-0.0781305 	0.230124 	1.0313 	-0.0496283 	0.237446
1.60628 	1.04433 	-0.0765246 	0.229211 	1.03128 	-0.049207 	0.23633
1.60924 	1.0443 	-0.0761462 	0.228997 	1.03127 	-0.0491046 	0.236068
1.6122 	1.04428 	-0.0757677 	0.228783 	1.03127 	-0.0490023 	0.235806
1.62827 	1.04415 	-0.0738942 	0.2277 	1.03117 	-0.0484456 	0.234512
1.64434 	1.04398 	-0.0719893 	0.226606 	1.03107 	-0.0478681 	0.233205
1.6607 	1.0438 	-0.0701965 	0.225557 	1.03094 	-0.0473101 	0.231928
1.67707 	1.04359 	-0.0683737 	0.2245 	1.0308 	-0.0467312 	0.230642
1.69373 	1.04337 	-0.0666555 	0.223486 	1.03066 	-0.0461947 	0.229352
1.7104 	1.04312 	-0.0649091 	0.222465 	1.0305 	-0.0456397 	0.228054
1.72737 	1.04287 	-0.0632594 	0.221486 	1.03035 	-0.0450933 	0.226788
1.74434 	1.04259 	-0.0615834 	0.220501 	1.03019 	-0.0445311 	0.225514
1.76162 	1.04231 	-0.0599994 	0.219556 	1.03003 	-0.0439718 	0.224294
1.7789 	1.04199 	-0.0583914 	0.218607 	1.02986 	-0.0433978 	0.223065
1.7965 	1.04168 	-0.0568681 	0.217697 	1.02969 	-0.0428243 	0.22189
1.81409 	1.04135 	-0.0553232 	0.216785 	1.02953 	-0.0422369 	0.220707