0 1e-10
0.00128482 0.00118228
0.00256965 0.00227725
0.00387803 0.00240572
0.00518642 0.00254292
0.00651881 0.00260829
0.00785119 0.00268557
0.00920802 0.00273368
0.0105648 0.00278876
0.0119465 0.00283755
0.0133283 0.00288542
0.0147353 0.00292759
0.0161424 0.00296126
0.0175752 0.00298566
0.0190081 0.00299672
0.0204672 0.00300325
0.0219263 0.00299505
0.0234122 0.00298079
0.0248981 0.00295043
0.0264113 0.00291088
0.0279244 0.00285733
0.0294653 0.00279159
0.0310063 0.00271995
0.0325754 0.00262932
0.0341446 0.00254464
0.0357425 0.00243394
0.0373405 0.0023432
0.0389677 0.00222361
0.040595 0.00213379
0.0422521 0.00201959
0.0439092 0.00193848
0.0455967 0.00184134
0.0472842 0.00177668
0.0490026 0.00170072
0.0507211 0.00165438
0.052471 0.0015997
0.054221 0.00156775
0.056003 0.00153248
0.0577851 0.00150929
0.0595998 0.0014887
0.0614146 0.00146427
0.0632626 0.00145181
0.0651106 0.00141441
0.0669925 0.00139941
0.0688745 0.00133982
0.0707909 0.00131121
0.0727073 0.00122655
0.0746589 0.0011773
0.0766105 0.0010785
0.0776921 0.0010396
0.0787737 0.0010007
0.0796795 0.000954913
0.0805853 0.000909127
0.0816867 0.000862495
0.0827881 0.000815862
0.0837105 0.000776422
0.0846329 0.000736982
0.0866939 0.000649925
0.0887548 0.000582498
0.0908536 0.000504966
0.0929523 0.000457087
0.0950896 0.000395025
0.0972268 0.000361794
0.0994033 0.000315136
0.10158 0.000291539
0.103796 0.000258022
0.106012 0.000241063
0.108269 0.000217758
0.110526 0.00020671
0.112825 0.000191321
0.115123 0.000185582
0.116397 0.000180644
0.117671 0.000175706
0.118738 0.000175151
0.119804 0.000174596
0.122188 0.000170359
0.124571 0.000171716
0.126999 0.00017105
0.129426 0.000176521
0.131897 0.000179209
0.134369 0.00019017
0.136886 0.000197207
0.139403 0.000214917
0.140798 0.000221856
0.142193 0.000228796
0.143362 0.000240943
0.14453 0.00025309
0.14714 0.000271961
0.14975 0.00030295
0.152408 0.000326007
0.155066 0.000356199
0.157773 0.000380084
0.16048 0.000403298
0.163237 0.000425155
0.165993 0.000438574
0.1688 0.000457061
0.171607 0.000460928
0.173163 0.000468826
0.174719 0.000476725
0.176022 0.000474664
0.177324 0.000472604
0.180235 0.000482837
0.183146 0.000477236
0.186111 0.000483271
0.189075 0.000476911
0.192094 0.000479565
0.195113 0.000472929
0.198187 0.000472913
0.201261 0.000466031
0.204391 0.000462714
0.207522 0.000455905
0.21071 0.000449173
0.213898 0.000443644
0.217144 0.000434556
0.22039 0.00043085
0.221492 0.000427489
0.222594 0.000424128
0.224798 0.000419551
0.227002 0.000418668
0.230369 0.000409429
0.233735 0.000408768
0.237164 0.000401849
0.240592 0.000402575
0.244083 0.000397812
0.247574 0.000399786
0.249509 0.000397781
0.251444 0.000395777
0.253064 0.000397501
0.254685 0.000399225
0.258305 0.000396372
0.261925 0.000400575
0.265612 0.000398589
0.269299 0.000402295
0.273053 0.000400006
0.276808 0.00039935
0.280631 0.000394846
0.284454 0.00038568
0.288348 0.000377042
0.292241 0.000357687
0.296206 0.000343437
0.300171 0.000320618
0.304208 0.000303503
0.308246 0.000285258
0.310484 0.000277096
0.312721 0.000268934
0.314595 0.000263357
0.316469 0.000257779
0.320656 0.000247065
0.324843 0.000238252
0.329107 0.000229719
0.333371 0.000218521
0.337713 0.000208283
0.342055 0.000194013
0.346476 0.000183161
0.350898 0.000172367
0.355401 0.000165196
0.359903 0.000161017
0.364489 0.000161
0.369074 0.000163823
0.373744 0.000169743
0.378413 0.000175113
0.383168 0.000179874
0.387923 0.000181339
0.390558 0.000179624
0.393194 0.000177909
0.395401 0.000175112
0.397608 0.000172316
0.402539 0.000160535
0.40747 0.000148256
0.412491 0.000133317
0.417513 0.000121441
0.422626 0.000109101
0.42774 0.000101881
0.432948 9.39507e-05
0.438155 9.03085e-05
0.443458 8.61538e-05
0.448761 8.44141e-05
0.454161 8.26997e-05
0.459561 8.21893e-05
0.46506 8.15503e-05
0.47056 8.16165e-05
0.473607 8.15529e-05
0.476655 8.14894e-05
0.479207 8.16463e-05
0.48176 8.18032e-05
0.487463 8.21092e-05
0.493165 8.29492e-05
0.498973 8.35736e-05
0.50478 8.51572e-05
0.510694 8.58222e-05
0.516608 8.7653e-05
0.52263 8.82821e-05
0.528653 8.97765e-05
0.53199 9.0295e-05
0.535328 9.08134e-05
0.538123 9.17009e-05
0.540918 9.25884e-05
0.547164 9.42521e-05
0.553409 9.72457e-05
0.55687 9.85581e-05
0.560331 9.98704e-05
0.56323 0.000101594
0.566129 0.000103317
0.572605 0.000105835
0.579082 0.00010881
0.585677 0.000110529
0.592272 0.000111846
0.598989 0.000112526
0.605705 0.00011228
0.612544 0.00011222
0.619384 0.000111199
0.626349 0.000110922
0.633314 0.000110154
0.640406 0.000110103
0.647499 0.000110001
0.654722 0.000110265
0.661944 0.000110565
0.669299 0.000110998
0.676655 0.000111074
0.684145 0.000111753
0.691635 0.000110948
0.697187 0.000112204
0.702739 0.000111948
0.704814 0.000111297
0.70689 0.000110647
0.711117 0.000111556
0.715344 0.000112465
0.718884 0.000110565
0.722424 0.000108666
0.730334 0.000107841
0.738244 0.000102322
0.746299 9.87314e-05
0.754354 9.18026e-05
0.762556 8.66389e-05
0.770759 7.89335e-05
0.779112 7.43647e-05
0.787465 6.76241e-05
0.795971 6.41155e-05
0.804478 5.92853e-05
0.81314 5.54306e-05
0.821802 5.15609e-05
0.830623 4.66792e-05
0.839445 4.32201e-05
0.848428 3.80443e-05
0.857411 3.51336e-05
0.866558 3.15563e-05
0.875706 2.95658e-05
0.885021 2.78814e-05
0.894337 2.67144e-05
0.903823 2.58676e-05
0.91331 2.512e-05
0.92297 2.45252e-05
0.93263 2.39832e-05
0.942468 2.35442e-05
0.952305 2.3185e-05
0.962323 2.29255e-05
0.972341 2.2747e-05
0.982543 2.26206e-05
0.992745 2.25901e-05
1.00313 2.25404e-05
1.01352 2.25942e-05
1.0241 2.25392e-05
1.03468 2.25777e-05
1.04545 2.25133e-05
1.05623 2.25231e-05
1.0672 2.24654e-05
1.07817 2.24697e-05
1.08934 2.23708e-05
1.10051 2.23083e-05
1.11189 2.21555e-05
1.12327 2.19635e-05
1.13485 2.17742e-05
1.14644 2.1491e-05
1.15824 2.12934e-05
1.17004 2.10171e-05
1.18205 2.08349e-05
1.19407 2.05931e-05
1.2063 2.04213e-05
1.21854 2.02147e-05
1.23099 2.00809e-05
1.24345 1.99374e-05
1.25614 1.98449e-05
1.26883 1.97451e-05
1.28175 1.96671e-05
1.29467 1.95853e-05
1.30783 1.95337e-05
1.32099 1.94841e-05
1.33439 1.94656e-05
1.34778 1.945e-05
1.36143 1.94532e-05
1.37507 1.94596e-05
1.38897 1.9496e-05
1.40286 1.95368e-05
1.41701 1.96122e-05
1.43116 1.96915e-05
1.44557 1.97852e-05
1.45998 1.98824e-05
1.47466 1.99916e-05
1.48933 2.01066e-05
1.50427 2.02441e-05
1.51921 2.03892e-05
1.53443 2.05535e-05
1.54965 2.07195e-05
1.56514 2.08952e-05
1.58064 2.10654e-05
1.59642 2.12378e-05
1.6122 2.14047e-05
1.62827 2.15751e-05
1.64434 2.17438e-05
1.6607 2.19194e-05
1.67707 2.20945e-05
1.69373 2.22804e-05
1.7104 2.24657e-05
1.72737 2.2661e-05
1.74434 2.28549e-05
1.76162 2.30545e-05
1.7789 2.32512e-05
1.7965 2.34508e-05
1.81409 2.36466e-05
1.83202 2.3845e-05
1.84994 2.40371e-05
1.86819 2.41791e-05
1.88644 2.43147e-05
1.90502 2.43556e-05
1.9236 2.43938e-05
1.94253 2.42966e-05
1.96146 2.42013e-05
1.98073 2.39742e-05
2 2.37543e-05
