0 	0.00227532
0.00128482 	0.00233732
0.00256965 	0.00237201
0.00387803 	0.00243838
0.00518642 	0.00247951
0.00651881 	0.00247729
0.00785119 	0.00248956
0.00920802 	0.00246466
0.0105648 	0.00247401
0.0119465 	0.00242398
0.0133283 	0.0024279
0.0147353 	0.00235425
0.0161424 	0.00235281
0.0175057 	0.00226492
0.0188691 	0.00226066
0.0189386 	0.00226044
0.0190081 	0.00226023
0.0202768 	0.00216835
0.0215455 	0.0021648
0.0217359 	0.00216427
0.0219263 	0.00216373
0.0234122 	0.00207672
0.0248981 	0.00207566
0.0264113 	0.00200383
0.0279244 	0.0020054
0.0294653 	0.00195424
0.0310063 	0.00195643
0.0325754 	0.00192467
0.0341446 	0.00192328
0.0357425 	0.00191052
0.0373405 	0.0019043
0.0389677 	0.00191462
0.040595 	0.00190774
0.0422521 	0.00194423
0.0439092 	0.0019395
0.0455967 	0.0020025
0.0472842 	0.00199952
0.0490026 	0.00208579
0.0507211 	0.00208251
0.052471 	0.00218835
0.054221 	0.00218383
0.0544535 	0.00220356
0.0546861 	0.0022233
0.0562356 	0.00230629
0.0577851 	0.00230155
0.0582932 	0.00234913
0.0588013 	0.00239672
0.060108 	0.00243834
0.0614146 	0.00243405
0.0632626 	0.00258464
0.0651106 	0.00257879
0.0669925 	0.00273801
0.0688745 	0.00273626
0.0707909 	0.00290264
0.0727073 	0.00291316
0.0746589 	0.00308629
0.0766105 	0.00311551
0.0785979 	0.00329473
0.0805853 	0.00334492
0.0820424 	0.00349651
0.0834996 	0.00356292
0.0840663 	0.00358334
0.0846329 	0.00360376
0.0849215 	0.00363376
0.08521 	0.00366376
0.0869824 	0.00381048
0.0887548 	0.00389348
0.0908536 	0.00409193
0.0929523 	0.00420816
0.0950896 	0.00440686
0.0972268 	0.00453917
0.0994033 	0.00473269
0.10158 	0.00488299
0.103796 	0.00506861
0.106012 	0.00523469
0.108269 	0.00541298
0.110526 	0.00558359
0.112825 	0.00575797
0.115123 	0.00592202
0.117464 	0.00609889
0.119804 	0.00625412
0.119804 	0.00625412
0.122188 	0.00643926
0.124571 	0.0065898
0.126999 	0.00678728
0.129426 	0.00693762
0.131897 	0.00715175
0.134369 	0.00730481
0.136886 	0.00754125
0.139403 	0.00769904
0.141967 	0.00796006
0.14453 	0.008123
0.14714 	0.00840396
0.14975 	0.00856895
0.152408 	0.00885916
0.155066 	0.00901879
0.157773 	0.00930787
0.16048 	0.00945489
0.163237 	0.00973351
0.165993 	0.00986904
0.1688 	0.0101154
0.171607 	0.0102394
0.174466 	0.0104387
0.177324 	0.0105456
0.180235 	0.0106921
0.183146 	0.0107661
0.185075 	0.0108249
0.187003 	0.0108509
0.188039 	0.0108586
0.189075 	0.0108663
0.19013 	0.0108699
0.191185 	0.0108735
0.193149 	0.0108617
0.195113 	0.0108456
0.198187 	0.0107846
0.201261 	0.0107294
0.201452 	0.0107219
0.201643 	0.0107144
0.203831 	0.0106286
0.206019 	0.0105731
0.20677 	0.010554
0.207522 	0.0105349
0.21071 	0.0103789
0.213898 	0.0102782
0.215428 	0.0101855
0.216959 	0.0101024
0.218675 	0.0100399
0.22039 	0.00997752
0.223696 	0.00977944
0.227002 	0.00964884
0.2303 	0.00944705
0.233598 	0.00931179
0.233667 	0.00930898
0.233735 	0.00930617
0.233944 	0.00929284
0.234154 	0.00927952
0.23655 	0.00912682
0.238946 	0.00902694
0.239769 	0.00899265
0.240592 	0.00895836
0.24316 	0.00880093
0.245729 	0.00868806
0.246652 	0.00864962
0.247574 	0.00861119
0.251129 	0.00841517
0.254685 	0.00826902
0.258305 	0.00808055
0.261925 	0.00793689
0.265387 	0.00776744
0.268849 	0.00763875
0.269074 	0.00763039
0.269299 	0.00762203
0.273053 	0.00745919
0.276808 	0.00733225
0.280631 	0.00718748
0.284454 	0.00707234
0.287319 	0.00697681
0.290184 	0.00689869
0.291212 	0.00687145
0.292241 	0.00684422
0.294917 	0.00677455
0.297592 	0.00671196
0.298881 	0.00668274
0.300171 	0.00665352
0.303142 	0.00660058
0.306112 	0.00652632
0.307179 	0.00649864
0.308246 	0.00647097
0.312107 	0.00641817
0.315967 	0.00627136
0.316218 	0.00626182
0.316469 	0.00625228
0.320656 	0.00621385
0.324843 	0.00603476
0.329107 	0.00603865
0.333371 	0.00589813
0.337713 	0.00594943
0.342055 	0.00587635
0.345308 	0.00596112
0.348561 	0.00597065
0.34973 	0.00597052
0.350898 	0.0059704
0.353936 	0.00604654
0.356974 	0.00610387
0.358439 	0.006129
0.359903 	0.00615413
0.364489 	0.00622628
0.369074 	0.00638981
0.373744 	0.00642207
0.378413 	0.00667792
0.381912 	0.00666152
0.38541 	0.00688786
0.386667 	0.00698057
0.387923 	0.00707328
0.39119 	0.00713161
0.394458 	0.00737419
0.396033 	0.0075157
0.397608 	0.00765721
0.402539 	0.00798104
0.40747 	0.00848449
0.412491 	0.00898472
0.417513 	0.00956118
0.421275 	0.0100216
0.425038 	0.0105105
0.426389 	0.0106874
0.42774 	0.0108644
0.430185 	0.011206
0.43263 	0.0115557
0.435392 	0.011978
0.438155 	0.0124003
0.443458 	0.0132291
0.448761 	0.014123
0.454161 	0.0149849
0.459561 	0.0158389
0.46506 	0.0166473
0.47056 	0.0173692
0.47468 	0.0178971
0.4788 	0.0183647
0.48028 	0.0185297
0.48176 	0.0186948
0.487115 	0.0192407
0.49247 	0.019787
0.492817 	0.0198225
0.493165 	0.019858
0.498973 	0.0203256
0.50478 	0.0208815
0.510694 	0.0212497
0.516608 	0.0217562
0.52263 	0.0220382
0.528653 	0.0224913
0.533165 	0.0226212
0.537677 	0.0229197
0.539298 	0.0230348
0.540918 	0.02315
0.547164 	0.0233369
0.553409 	0.023744
0.5577 	0.0238323
0.561992 	0.0240319
0.56406 	0.024143
0.566129 	0.0242541
0.572605 	0.0244032
0.579082 	0.0246379
0.585677 	0.0247366
0.592272 	0.0248584
0.598989 	0.0249098
0.605705 	0.0249454
0.612544 	0.0249756
0.619384 	0.0248736
0.619384 	0.0248736
0.622866 	0.024904
0.626349 	0.0248703
0.629831 	0.0247215
0.633314 	0.0245727
0.637998 	0.024611
0.642683 	0.0243938
0.645091 	0.02424
0.647499 	0.0240862
0.654722 	0.0240349
0.661944 	0.0234783
0.669299 	0.0233685
0.676655 	0.0227345
0.684145 	0.0225422
0.691635 	0.021874
0.692317 	0.0218608
0.693 	0.0218476
0.699945 	0.0215768
0.70689 	0.0209791
0.713614 	0.020812
0.720339 	0.0202813
0.721382 	0.020199
0.722424 	0.0201167
0.730334 	0.0198759
0.738244 	0.0193338
0.746299 	0.0191228
0.754354 	0.0186714
0.760506 	0.0185741
0.766658 	0.0183275
0.768708 	0.0182401
0.770759 	0.0181527
0.778365 	0.0180553
0.78597 	0.0178412
0.786718 	0.0178201
0.787465 	0.017799
0.791718 	0.0177724
0.795971 	0.0177332
0.800225 	0.0176715
0.804478 	0.0176098
0.812365 	0.0175905
0.820252 	0.0175633
0.821027 	0.0175607
0.821802 	0.017558
0.826213 	0.0175581
0.830623 	0.0175652
0.835034 	0.0175851
0.839445 	0.0176051
0.839445 	0.0176051
0.847978 	0.0176214
0.850979 	0.0176478
0.854195 	0.0176761
0.856512 	0.0176965
0.857411 	0.0177044
0.857411 	0.0177044
0.866558 	0.0177245
0.875706 	0.0178151
0.881721 	0.0178121
0.887737 	0.0178494
0.891037 	0.017878
0.894337 	0.0179067
0.903823 	0.0179001
0.91331 	0.017953
0.92297 	0.0179254
0.93263 	0.0179454
0.942173 	0.017898
0.951715 	0.0178891
0.95201 	0.0178888
0.952305 	0.0178885
0.958774 	0.0178409
0.965244 	0.0178104
0.968792 	0.0177973
0.972341 	0.0177841
0.982543 	0.0176976
0.992745 	0.0176342
1.00313 	0.0175293
1.01352 	0.0174415
1.02161 	0.0173463
1.0297 	0.0172614
1.03219 	0.0172356
1.03468 	0.0172097
1.04545 	0.0170727
1.05623 	0.0169431
1.06589 	0.0168103
1.07556 	0.0166811
1.07686 	0.0166637
1.07817 	0.0166462
1.08409 	0.0165608
1.09 	0.0164754
1.09526 	0.0163995
1.10051 	0.0163237
1.11189 	0.016153
1.12327 	0.0159796
1.13075 	0.0158652
1.13823 	0.0157477
1.14234 	0.0156827
1.14644 	0.0156176
1.15824 	0.015433
1.17004 	0.0152408
1.17922 	0.0150973
1.18841 	0.0149455
1.19124 	0.0148986
1.19407 	0.0148517
1.20197 	0.014728
1.20987 	0.0145978
1.2142 	0.014525
1.21854 	0.0144523
1.22806 	0.0143032
1.23759 	0.0141432
1.24052 	0.0140937
1.24345 	0.0140442
1.25614 	0.0138434
1.26883 	0.0136288
1.28021 	0.0134513
1.2916 	0.0132591
1.29313 	0.0132332
1.29467 	0.0132072
1.30164 	0.0131
1.3086 	0.0129884
1.3148 	0.0128844
1.32099 	0.0127804
1.32964 	0.0126485
1.33829 	0.0125076
1.34304 	0.0124285
1.34778 	0.0123493
1.36143 	0.0121402
1.37507 	0.0119151
1.38897 	0.0117049
1.40286 	0.0114784
1.41368 	0.0113198
1.42451 	0.0111471
1.42783 	0.0110936
1.43116 	0.0110401
1.44557 	0.0108286
1.45998 	0.0106009
1.46946 	0.0104664
1.47893 	0.0103228
1.48413 	0.0102421
1.48933 	0.0101614
1.50427 	0.00994968
1.51921 	0.00972222
1.53443 	0.00951074
1.54965 	0.0092839
1.54965 	0.0092839
1.56514 	0.00907287
1.58064 	0.00884692
1.59642 	0.00863661
1.6122 	0.00841188
1.62827 	0.00820245
1.64434 	0.00797915
1.64434 	0.00797915
1.65645 	0.00782718
1.66856 	0.00766455
1.67281 	0.00760695
1.67707 	0.00754935
1.68824 	0.00741243
1.69941 	0.00726749
1.7049 	0.00719513
1.7104 	0.00712276
1.72737 	0.00691738
1.74434 	0.00669998
1.76162 	0.00649632
1.7789 	0.00628129
1.7965 	0.00607961
1.81409 	0.00586726
1.83202 	0.00566769
1.84994 	0.00545812
1.86819 	0.00526076
1.88644 	0.00505405
1.90502 	0.00485886
1.9236 	0.00465496
1.94253 	0.004462
1.96146 	0.00426096
1.98073 	0.00408295
2 	0.00389788
