0 	0 	0 	0 	0 	0 	0
0.00128482 	0.00130045 	-7.30873e-06 	-3.6857e-05 	1.12378e-06 	-3.36341e-06 	0.000687109
0.00256965 	0.0025996 	-1.45045e-05 	-7.46455e-05 	2.24928e-06 	-6.69908e-06 	0.0013746
0.00387803 	0.00308876 	-3.075e-05 	-8.05611e-05 	6.32797e-06 	-1.28698e-05 	0.00188571
0.00518642 	0.00357728 	-4.68268e-05 	-8.70622e-05 	1.04146e-05 	-1.90114e-05 	0.00239739
0.00651881 	0.00417898 	-7.93703e-05 	-8.39605e-05 	2.00726e-05 	-2.94283e-05 	0.00293984
0.00785119 	0.00477984 	-0.000111647 	-8.12539e-05 	2.97506e-05 	-3.98002e-05 	0.00348279
0.00920802 	0.00550311 	-0.000162283 	-7.05603e-05 	4.65415e-05 	-5.39974e-05 	0.00401664
0.0105648 	0.00622548 	-0.000212576 	-6.00494e-05 	6.33699e-05 	-6.81445e-05 	0.00455099
0.0119465 	0.00704751 	-0.000281389 	-4.40963e-05 	8.88648e-05 	-8.65393e-05 	0.00505452
0.0133283 	0.00786878 	-0.000349789 	-2.81705e-05 	0.000114418 	-0.000104865 	0.00555855
0.0147353 	0.008751 	-0.000433051 	-7.58255e-06 	0.000149722 	-0.000127795 	0.00602326
0.0161424 	0.00963277 	-0.000515848 	1.30612e-05 	0.000185104 	-0.000150622 	0.00648848
0.0175752 	0.0105286 	-0.000607309 	4.06634e-05 	0.00023081 	-0.000178225 	0.00691644
0.0190081 	0.0114243 	-0.00069828 	6.83536e-05 	0.000276607 	-0.000205677 	0.00734486
0.0204672 	0.0122888 	-0.000791108 	0.000106074 	0.000332914 	-0.000237874 	0.00774619
0.0219263 	0.0131534 	-0.000883452 	0.00014386 	0.000389314 	-0.000269861 	0.00814796
0.0234122 	0.0139539 	-0.000971816 	0.000192572 	0.000456147 	-0.000306439 	0.00853577
0.0248981 	0.0147546 	-0.00105974 	0.000241266 	0.000523062 	-0.000342734 	0.00892424
0.0264113 	0.015477 	-0.00113979 	0.000300033 	0.000600108 	-0.000383491 	0.00930932
0.0279244 	0.0161995 	-0.00121948 	0.000358659 	0.000677213 	-0.000423871 	0.00969551
0.0294653 	0.0168433 	-0.00128953 	0.000427201 	0.000764003 	-0.000468739 	0.0100836
0.0310063 	0.0174872 	-0.00135937 	0.000495495 	0.000850813 	-0.000513115 	0.0104734
0.0325754 	0.0180572 	-0.00141933 	0.000575643 	0.000946761 	-0.000561992 	0.0108648
0.0341446 	0.0186277 	-0.00147925 	0.000655502 	0.00104268 	-0.000610263 	0.0112586
0.0357425 	0.01913 	-0.00152982 	0.000750861 	0.00114708 	-0.000662675 	0.0116497
0.0373405 	0.0196332 	-0.00158059 	0.00084597 	0.0012514 	-0.000714393 	0.0120437
0.0389677 	0.0200752 	-0.001623 	0.000959868 	0.00136343 	-0.000769173 	0.0124304
0.040595 	0.0205189 	-0.00166582 	0.00107363 	0.00147534 	-0.000823211 	0.0128204
0.0422521 	0.0209101 	-0.00170178 	0.0012067 	0.00159413 	-0.000878438 	0.0132001
0.0439092 	0.0213037 	-0.00173831 	0.0013398 	0.00171275 	-0.000932913 	0.0135835
0.0455967 	0.0216532 	-0.00176983 	0.00148972 	0.00183742 	-0.000986197 	0.0139546
0.0472842 	0.0220059 	-0.00180209 	0.00163986 	0.00196188 	-0.00103876 	0.01433
0.0490026 	0.0223197 	-0.00183107 	0.00180252 	0.00209154 	-0.00108776 	0.0146908
0.0507211 	0.0226372 	-0.00186094 	0.00196565 	0.00222096 	-0.00113611 	0.0150564
0.052471 	0.022918 	-0.00188907 	0.00213632 	0.00235467 	-0.00117904 	0.0154045
0.054221 	0.0232028 	-0.0019182 	0.00230774 	0.00248813 	-0.00122144 	0.0157577
0.0542212 	0.0232028 	-0.0019182 	0.00230776 	0.00248815 	-0.00122145 	0.0157577
0.0542214 	0.0232029 	-0.00191821 	0.00230778 	0.00248816 	-0.00122145 	0.0157577
0.0560033 	0.0234526 	-0.00194695 	0.00248147 	0.00262502 	-0.00125729 	0.0160901
0.0577851 	0.0237065 	-0.00197674 	0.0026561 	0.00276164 	-0.00129277 	0.0164279
0.0578577 	0.0237136 	-0.00197748 	0.00266251 	0.00276732 	-0.00129399 	0.016438
0.0579303 	0.0237207 	-0.00197822 	0.00266891 	0.002773 	-0.0012952 	0.0164481
0.0596724 	0.0239366 	-0.00200866 	0.00283456 	0.0029066 	-0.00132247 	0.0167559
0.0614146 	0.0241524 	-0.00203911 	0.0030002 	0.0030402 	-0.00134974 	0.0170636
0.0632626 	0.0243489 	-0.00207255 	0.00316472 	0.00318166 	-0.00137172 	0.0173617
0.0651106 	0.0245486 	-0.00210701 	0.00333011 	0.00332291 	-0.00139374 	0.017665
0.0669925 	0.0247271 	-0.00214385 	0.00348359 	0.00346618 	-0.00141051 	0.0179477
0.0688745 	0.0249081 	-0.00218156 	0.00363769 	0.00360929 	-0.00142752 	0.0182354
0.0707909 	0.025074 	-0.00222185 	0.00377684 	0.00375434 	-0.00144079 	0.0185056
0.0727073 	0.0252417 	-0.00226282 	0.00391628 	0.00389926 	-0.00145445 	0.0187803
0.0746589 	0.0253954 	-0.00230603 	0.00403883 	0.00404622 	-0.00146619 	0.0190417
0.0766105 	0.0255503 	-0.00234967 	0.0041613 	0.00419307 	-0.00147843 	0.0193071
0.0785979 	0.025688 	-0.00239502 	0.0042671 	0.00434223 	-0.00149078 	0.0195639
0.0805853 	0.0258259 	-0.00244056 	0.00437249 	0.00449132 	-0.0015037 	0.0198241
0.0826091 	0.0259407 	-0.00248719 	0.00446395 	0.00464309 	-0.00151882 	0.0200801
0.0846329 	0.0260545 	-0.00253374 	0.00455484 	0.00479481 	-0.00153456 	0.0203386
0.0866939 	0.0261388 	-0.00258087 	0.00463604 	0.00494966 	-0.0015545 	0.0205964
0.0887548 	0.0262209 	-0.00262767 	0.00471673 	0.00510447 	-0.0015751 	0.020856
0.0908536 	0.0262703 	-0.00267443 	0.0047928 	0.00526295 	-0.00160165 	0.021117
0.0929523 	0.0263162 	-0.00272062 	0.00486865 	0.00542138 	-0.00162886 	0.021379
0.0950896 	0.0263337 	-0.00276592 	0.00494554 	0.00558399 	-0.00166346 	0.0216429
0.0972268 	0.0263468 	-0.00281042 	0.00502265 	0.00574656 	-0.00169871 	0.021907
0.0994033 	0.0263423 	-0.0028527 	0.0051062 	0.00591378 	-0.00174244 	0.0221721
0.10158 	0.026333 	-0.00289403 	0.00519041 	0.00608099 	-0.00178682 	0.0224367
0.103796 	0.0263198 	-0.00293176 	0.00528501 	0.00625323 	-0.00184074 	0.0227
0.106012 	0.0263019 	-0.00296844 	0.00538054 	0.00642549 	-0.00189532 	0.0229622
0.108269 	0.026294 	-0.00300061 	0.0054877 	0.0066029 	-0.00196034 	0.0232203
0.110526 	0.0262817 	-0.00303171 	0.0055958 	0.00678037 	-0.00202609 	0.023477
0.112825 	0.0262921 	-0.00305818 	0.00571364 	0.00696289 	-0.00210271 	0.0237277
0.115123 	0.026299 	-0.00308359 	0.00583216 	0.00714557 	-0.0021802 	0.0239771
0.117464 	0.0263364 	-0.0031049 	0.00595607 	0.00733301 	-0.00226844 	0.0242204
0.119804 	0.0263711 	-0.00312511 	0.00608026 	0.00752075 	-0.00235777 	0.0244626
0.122188 	0.0264358 	-0.00314233 	0.00620476 	0.00771282 	-0.00245714 	0.0247007
0.124571 	0.0264986 	-0.00315832 	0.00632918 	0.00790536 	-0.00255787 	0.0249382
0.126999 	0.0265848 	-0.00317255 	0.00645054 	0.00810133 	-0.00266755 	0.0251744
0.129426 	0.0266699 	-0.00318533 	0.00657169 	0.00829798 	-0.00277887 	0.025411
0.131897 	0.0267687 	-0.0031974 	0.00668836 	0.00849683 	-0.00289812 	0.0256493
0.134369 	0.0268673 	-0.00320774 	0.00680503 	0.00869657 	-0.00301922 	0.025889
0.136886 	0.0269726 	-0.00321834 	0.0069175 	0.00889733 	-0.00314807 	0.0261327
0.139403 	0.0270785 	-0.00322693 	0.00703049 	0.00909916 	-0.00327892 	0.0263789
0.141967 	0.0271913 	-0.00323611 	0.00714108 	0.00930109 	-0.0034184 	0.0266302
0.14453 	0.0273051 	-0.00324308 	0.00725278 	0.00950422 	-0.00355996 	0.0268849
0.14714 	0.0274294 	-0.00325036 	0.00736516 	0.00970693 	-0.00371176 	0.027144
0.14975 	0.0275548 	-0.00325535 	0.00747909 	0.00991092 	-0.00386563 	0.0274072
0.152408 	0.0276905 	-0.00326048 	0.00759863 	0.0101142 	-0.00403132 	0.0276744
0.155066 	0.027827 	-0.0032634 	0.00771998 	0.0103189 	-0.004199 	0.0279461
0.157773 	0.027963 	-0.00326619 	0.0078536 	0.0105229 	-0.00437892 	0.0282223
0.16048 	0.0280993 	-0.00326698 	0.00798926 	0.0107281 	-0.00456064 	0.028503
0.163237 	0.028214 	-0.00326746 	0.00814212 	0.0109328 	-0.00475292 	0.0287894
0.165993 	0.0283288 	-0.00326634 	0.00829717 	0.0111386 	-0.00494667 	0.0290801
0.1688 	0.0284021 	-0.00326517 	0.00846819 	0.0113436 	-0.00514745 	0.0293773
0.171607 	0.0284753 	-0.00326297 	0.00864127 	0.0115496 	-0.00534925 	0.0296782
0.174466 	0.0284991 	-0.00326081 	0.00882318 	0.0117548 	-0.00555416 	0.0299863
0.177324 	0.028523 	-0.00325834 	0.00900666 	0.0119605 	-0.00575951 	0.0302969
0.180235 	0.0285064 	-0.00325771 	0.00918782 	0.0121646 	-0.00596438 	0.0306148
0.183146 	0.0284902 	-0.00325782 	0.00936988 	0.012369 	-0.00616909 	0.0309335
0.186111 	0.028457 	-0.00326333 	0.00953715 	0.0125702 	-0.00637069 	0.0312541
0.189075 	0.0284253 	-0.0032707 	0.00970469 	0.0127712 	-0.00657161 	0.0315736
0.192094 	0.0284058 	-0.00328287 	0.00984764 	0.012967 	-0.00676685 	0.0318824
0.195113 	0.0283899 	-0.00329782 	0.00999028 	0.0131621 	-0.006961 	0.0321879
0.198187 	0.0284049 	-0.00331477 	0.0101042 	0.0133498 	-0.00714696 	0.0324667
0.201261 	0.0284263 	-0.00333518 	0.0102173 	0.0135365 	-0.00733144 	0.0327402
0.204391 	0.0284745 	-0.00335592 	0.010303 	0.0137143 	-0.00750581 	0.0329738
0.207522 	0.0285305 	-0.00338041 	0.0103876 	0.0138907 	-0.00767827 	0.0332005
0.21071 	0.0285946 	-0.00340416 	0.0104497 	0.0140579 	-0.00783825 	0.0333818
0.213898 	0.0286658 	-0.0034316 	0.0105102 	0.0142236 	-0.00799579 	0.0335549
0.217144 	0.0287309 	-0.00345956 	0.0105553 	0.0143808 	-0.00813882 	0.0336852
0.22039 	0.0288014 	-0.00349089 	0.0105987 	0.0145366 	-0.00827898 	0.0338064
0.223696 	0.0288663 	-0.00352568 	0.0106358 	0.0146862 	-0.00840296 	0.0338916
0.227002 	0.0289354 	-0.00356342 	0.0106713 	0.0148345 	-0.00852383 	0.0339674
0.230369 	0.0290057 	-0.00360761 	0.0107113 	0.0149802 	-0.00862733 	0.0340136
0.233735 	0.0290796 	-0.0036544 	0.01075 	0.0151249 	-0.00872776 	0.0340505
0.237164 	0.0291611 	-0.00370882 	0.010802 	0.0152715 	-0.00881044 	0.0340615
0.240592 	0.0292458 	-0.00376553 	0.010853 	0.0154176 	-0.00889031 	0.0340637
0.244083 	0.0293425 	-0.00382958 	0.0109205 	0.0155694 	-0.00895354 	0.0340417
0.247574 	0.0294424 	-0.00389561 	0.0109875 	0.0157216 	-0.00901437 	0.0340117
0.251129 	0.0295543 	-0.00396897 	0.0110674 	0.0158822 	-0.00906227 	0.0339615
0.254685 	0.0296694 	-0.00404404 	0.0111471 	0.0160441 	-0.00910831 	0.0339044
0.258305 	0.0297921 	-0.00412789 	0.0112325 	0.0162152 	-0.00914704 	0.0338331
0.261925 	0.0299174 	-0.00421332 	0.0113176 	0.0163885 	-0.00918463 	0.0337558
0.265612 	0.0300466 	-0.00430952 	0.0114018 	0.0165697 	-0.00922055 	0.0336681
0.269299 	0.0301772 	-0.00440739 	0.011485 	0.0167539 	-0.00925611 	0.0335748
0.273053 	0.0303098 	-0.00451726 	0.0115638 	0.0169433 	-0.00929426 	0.0334717
0.276808 	0.0304421 	-0.00462912 	0.0116406 	0.0171362 	-0.00933284 	0.0333628
0.280631 	0.0305745 	-0.00475319 	0.0117128 	0.0173309 	-0.00937604 	0.0332439
0.284454 	0.0307046 	-0.00487964 	0.0117821 	0.0175292 	-0.00942042 	0.0331187
0.288348 	0.0308298 	-0.00501874 	0.0118487 	0.0177257 	-0.00946848 	0.032983
0.292241 	0.0309502 	-0.00516063 	0.0119113 	0.0179258 	-0.00951841 	0.0328411
0.296206 	0.0310574 	-0.00531713 	0.0119737 	0.0181203 	-0.00956834 	0.0326862
0.300171 	0.0311567 	-0.00547676 	0.0120308 	0.0183183 	-0.00962065 	0.0325261
0.300171 	0.0311567 	-0.00547678 	0.0120308 	0.0183183 	-0.00962065 	0.0325261
0.300172 	0.0311568 	-0.0054768 	0.0120308 	0.0183183 	-0.00962065 	0.0325261
0.300495 	0.0311736 	-0.00548802 	0.0120411 	0.0183305 	-0.00962204 	0.0325151
0.300818 	0.0311794 	-0.00550246 	0.0120454 	0.0183458 	-0.00962598 	0.0325008
0.304532 	0.0312463 	-0.0056684 	0.0120948 	0.0185217 	-0.00967128 	0.0323355
0.308246 	0.0313131 	-0.00583434 	0.0121443 	0.0186976 	-0.00971658 	0.0321702
0.312358 	0.0313794 	-0.00603416 	0.0122028 	0.018875 	-0.0097535 	0.0319701
0.316469 	0.0314331 	-0.00623684 	0.0122558 	0.0190553 	-0.00979275 	0.0317689
0.320656 	0.0314936 	-0.00645885 	0.0123132 	0.0192185 	-0.00981251 	0.031543
0.324843 	0.0315428 	-0.00668301 	0.0123674 	0.0193842 	-0.00983406 	0.0313184
0.329107 	0.0315989 	-0.00692338 	0.0124187 	0.0195313 	-0.00982872 	0.0310705
0.333371 	0.0316479 	-0.0071651 	0.0124703 	0.0196805 	-0.00982461 	0.0308257
0.337713 	0.0316912 	-0.0074166 	0.0125049 	0.0198118 	-0.00978751 	0.0305659
0.342055 	0.0317319 	-0.00766876 	0.0125431 	0.019945 	-0.00975124 	0.0303101
0.346476 	0.0317667 	-0.00792343 	0.0125545 	0.0200627 	-0.00967902 	0.030049
0.350898 	0.0318022 	-0.00817824 	0.0125717 	0.0201821 	-0.00960746 	0.029792
0.355401 	0.0318484 	-0.00842761 	0.0125619 	0.0202883 	-0.00949956 	0.0295315
0.359903 	0.0318973 	-0.00867671 	0.0125593 	0.0203961 	-0.00939233 	0.0292745
0.364489 	0.0319649 	-0.00891077 	0.0125298 	0.0204925 	-0.00924864 	0.0290102
0.369074 	0.0320364 	-0.00914417 	0.0125076 	0.0205906 	-0.00910569 	0.028749
0.373744 	0.0321009 	-0.00935105 	0.0124471 	0.0206781 	-0.00892688 	0.0284932
0.378413 	0.0321694 	-0.00955686 	0.0123926 	0.0207674 	-0.00874877 	0.0282408
0.383168 	0.0322028 	-0.00972335 	0.0123002 	0.0208462 	-0.00853747 	0.0280327
0.387923 	0.0322403 	-0.0098882 	0.0122123 	0.0209268 	-0.00832666 	0.0278287
0.392765 	0.0322479 	-0.0100091 	0.0121202 	0.0209959 	-0.00808545 	0.027709
0.397608 	0.0322604 	-0.0101278 	0.0120315 	0.0210667 	-0.00784428 	0.0275941
0.402539 	0.0322345 	-0.0102118 	0.0119612 	0.0211218 	-0.0075765 	0.0275702
0.40747 	0.0322137 	-0.0102932 	0.0118933 	0.0211782 	-0.00730832 	0.0275507
0.412491 	0.032126 	-0.0103494 	0.0118287 	0.0212118 	-0.00702018 	0.0275894
0.417513 	0.0320421 	-0.0104027 	0.011765 	0.021246 	-0.00673138 	0.0276311
0.422626 	0.0318869 	-0.0104325 	0.0116879 	0.0212496 	-0.00643136 	0.0276942
0.42774 	0.0317342 	-0.0104592 	0.0116106 	0.0212531 	-0.00613069 	0.0277582
0.432948 	0.0315261 	-0.0104607 	0.01153 	0.0212226 	-0.00582735 	0.0278318
0.438155 	0.0313206 	-0.0104588 	0.0114488 	0.0211913 	-0.00552353 	0.0279048
0.443458 	0.031092 	-0.0104299 	0.0113849 	0.0211276 	-0.00522688 	0.0279958
0.448761 	0.0308669 	-0.0103977 	0.0113204 	0.0210629 	-0.00492993 	0.0280849
0.454161 	0.0306595 	-0.0103375 	0.0112792 	0.0209712 	-0.00465404 	0.0282035
0.459561 	0.030456 	-0.0102745 	0.0112367 	0.0208783 	-0.00437798 	0.0283193
0.460838 	0.0304169 	-0.0102559 	0.0112316 	0.0208531 	-0.00432222 	0.028355
0.462114 	0.0303818 	-0.0102351 	0.0112246 	0.0208266 	-0.00426643 	0.0283873
0.466337 	0.0302656 	-0.0101665 	0.0112017 	0.0207388 	-0.0040819 	0.0284944
0.47056 	0.0301493 	-0.0100979 	0.0111787 	0.020651 	-0.00389737 	0.0286014
0.475084 	0.0300723 	-0.010018 	0.0111553 	0.0205488 	-0.00373765 	0.0287267
0.479609 	0.0299989 	-0.00993676 	0.0111308 	0.020445 	-0.00357807 	0.0288488
0.480685 	0.0299814 	-0.00991744 	0.0111249 	0.0204204 	-0.00354015 	0.0288778
0.48176 	0.029964 	-0.00989813 	0.0111191 	0.0203957 	-0.00350223 	0.0289068
0.487463 	0.029921 	-0.00980432 	0.011091 	0.0202655 	-0.00334444 	0.0290601
0.493165 	0.0298804 	-0.00971018 	0.0110631 	0.0201336 	-0.00318697 	0.0292115
0.498973 	0.0298844 	-0.00962742 	0.0110555 	0.0200102 	-0.00306406 	0.0293577
0.50478 	0.0298893 	-0.00954486 	0.0110498 	0.0198855 	-0.00294179 	0.0295042
0.510694 	0.029935 	-0.00947555 	0.0110717 	0.0197775 	-0.00285322 	0.0296392
0.516608 	0.0299807 	-0.00940612 	0.0110958 	0.0196689 	-0.0027656 	0.0297772
0.52263 	0.0300461 	-0.00935752 	0.0111264 	0.0195809 	-0.00271871 	0.0298823
0.528653 	0.0301107 	-0.00930824 	0.0111578 	0.019493 	-0.00267304 	0.0299925
0.534786 	0.0301635 	-0.00928286 	0.0111642 	0.0194257 	-0.00267684 	0.0300325
0.540918 	0.0302144 	-0.00925612 	0.0111692 	0.0193591 	-0.00268204 	0.0300786
0.547164 	0.0302012 	-0.00924652 	0.0111353 	0.0193133 	-0.00273873 	0.0300232
0.553409 	0.0301831 	-0.00923477 	0.0110983 	0.0192683 	-0.00279647 	0.0299744
0.559769 	0.0300528 	-0.0092336 	0.0110264 	0.0192416 	-0.00290256 	0.0298155
0.566129 	0.029914 	-0.00922945 	0.0109517 	0.0192156 	-0.00300868 	0.0296631
0.572605 	0.0296834 	-0.00923656 	0.0108509 	0.0191986 	-0.00316261 	0.0293996
0.579082 	0.0294437 	-0.00924046 	0.0107485 	0.0191821 	-0.00331539 	0.0291411
0.585677 	0.029191 	-0.00924902 	0.0106321 	0.019165 	-0.00351499 	0.028768
0.592272 	0.0289322 	-0.00925497 	0.0105144 	0.0191481 	-0.00371298 	0.0283965
0.598989 	0.0287279 	-0.00925345 	0.0103896 	0.0191244 	-0.00394554 	0.0279295
0.605705 	0.0285217 	-0.00925025 	0.010264 	0.0191004 	-0.00417677 	0.0274612
0.612544 	0.0283703 	-0.00924311 	0.0101183 	0.0190695 	-0.0044192 	0.0269455
0.619384 	0.0282197 	-0.00923534 	0.00997307 	0.0190379 	-0.00466068 	0.0264276
0.626349 	0.0280688 	-0.00923555 	0.00979226 	0.0190066 	-0.00488625 	0.0259025
0.633314 	0.0279198 	-0.00923622 	0.00961287 	0.0189743 	-0.00511123 	0.0253748
0.640406 	0.0277281 	-0.00924198 	0.00941153 	0.0189527 	-0.00529443 	0.0248515
0.647499 	0.0275397 	-0.00924911 	0.00921126 	0.0189299 	-0.00547749 	0.0243242
0.654722 	0.0273014 	-0.00924246 	0.00902651 	0.0189265 	-0.00560005 	0.0237804
0.661944 	0.0270685 	-0.00923777 	0.00884136 	0.0189218 	-0.00572274 	0.0232306
0.669299 	0.0268024 	-0.00921708 	0.00869192 	0.0189317 	-0.00578122 	0.0226294
0.676655 	0.0265428 	-0.00919911 	0.00854065 	0.0189401 	-0.00583951 	0.0220207
0.678452 	0.026474 	-0.00919328 	0.00851276 	0.018943 	-0.00584107 	0.0218675
0.68025 	0.0264111 	-0.00919092 	0.00848287 	0.0189441 	-0.00584165 	0.0217083
0.685942 	0.0262121 	-0.00918347 	0.00838821 	0.0189476 	-0.00584348 	0.0212042
0.691635 	0.0260131 	-0.00917601 	0.00829355 	0.0189512 	-0.00584531 	0.0207001
0.697432 	0.0258309 	-0.00917755 	0.0082176 	0.0189406 	-0.00581656 	0.0202002
0.703228 	0.0256539 	-0.0091826 	0.00814123 	0.0189276 	-0.00578612 	0.0196979
0.705059 	0.025598 	-0.00918419 	0.00811711 	0.0189235 	-0.00577651 	0.0195393
0.70689 	0.0255421 	-0.00918579 	0.00809299 	0.0189194 	-0.00576689 	0.0193806
0.714346 	0.0253808 	-0.00919533 	0.0080335 	0.0188724 	-0.00570091 	0.0188052
0.721803 	0.0252231 	-0.00920784 	0.00797587 	0.0188224 	-0.00563288 	0.0182298
0.722114 	0.0252166 	-0.00920836 	0.00797347 	0.0188203 	-0.00563004 	0.0182059
0.722424 	0.02521 	-0.00920889 	0.00797107 	0.0188182 	-0.00562721 	0.0181819
0.722741 	0.0252058 	-0.00920821 	0.00796969 	0.0188162 	-0.00562467 	0.0181612
0.723057 	0.0252016 	-0.00920754 	0.0079683 	0.0188141 	-0.00562214 	0.0181405
0.730651 	0.0251195 	-0.00921856 	0.007967 	0.0187221 	-0.00553755 	0.0176417
0.738244 	0.0250375 	-0.00922959 	0.00796572 	0.0186302 	-0.00545295 	0.0171429
0.746299 	0.0250211 	-0.00923217 	0.00802082 	0.018493 	-0.00536586 	0.0166945
0.754354 	0.0250059 	-0.00923596 	0.00807748 	0.0183522 	-0.00527736 	0.0162452
0.762556 	0.0250563 	-0.00922002 	0.00817794 	0.0181767 	-0.00519934 	0.0158648
0.770759 	0.0251086 	-0.00920378 	0.0082789 	0.0179976 	-0.00512076 	0.0154839
0.779112 	0.0252168 	-0.00916697 	0.00841997 	0.0177925 	-0.00505075 	0.0151835
0.787465 	0.0253277 	-0.0091286 	0.00856225 	0.0175835 	-0.00498078 	0.014884
0.795971 	0.0254464 	-0.00907529 	0.00874346 	0.0173599 	-0.00490756 	0.0146654
0.804478 	0.0255672 	-0.00901941 	0.00892742 	0.0171322 	-0.0048344 	0.0144485
0.81314 	0.0256165 	-0.00895367 	0.00911742 	0.0169051 	-0.00475311 	0.0142869
0.821802 	0.0256661 	-0.00888444 	0.00931038 	0.0166741 	-0.0046718 	0.0141264
0.830623 	0.0256116 	-0.00881294 	0.00945533 	0.0164605 	-0.00459357 	0.0139849
0.839445 	0.0255554 	-0.00873762 	0.00960155 	0.0162435 	-0.00451567 	0.0138433
0.848068 	0.0254095 	-0.00867184 	0.00966052 	0.0160682 	-0.0044559 	0.0136977
0.856692 	0.0252592 	-0.00860251 	0.00971835 	0.0158904 	-0.00439684 	0.0135511
0.857051 	0.025253 	-0.00859962 	0.00972076 	0.015883 	-0.00439437 	0.013545
0.857411 	0.0252467 	-0.00859673 	0.00972316 	0.0158756 	-0.00439191 	0.0135389
0.866558 	0.0249922 	-0.00853792 	0.00969431 	0.0157387 	-0.00433929 	0.0133683
0.875706 	0.0247305 	-0.0084762 	0.00966254 	0.0156006 	-0.00428712 	0.0131969
0.877574 	0.024666 	-0.00846637 	0.00964433 	0.0155827 	-0.00427451 	0.0131588
0.879441 	0.0245921 	-0.00845445 	0.00962245 	0.0155644 	-0.00426118 	0.0131211
0.886889 	0.0242977 	-0.00840691 	0.00953518 	0.0154915 	-0.00420803 	0.0129707
0.894337 	0.0240032 	-0.00835937 	0.00944791 	0.0154186 	-0.00415488 	0.0128204
0.903823 	0.0235577 	-0.00828322 	0.00926706 	0.0153471 	-0.00406192 	0.01259
0.91331 	0.0231029 	-0.00820568 	0.00908245 	0.015275 	-0.0039669 	0.0123603
0.92297 	0.0225936 	-0.00809921 	0.00880475 	0.0151821 	-0.00384994 	0.0120411
0.93263 	0.0220772 	-0.00799167 	0.00852346 	0.0150877 	-0.0037306 	0.0117201
0.942074 	0.0215377 	-0.00787858 	0.00813748 	0.0149528 	-0.00359922 	0.0113058
0.951518 	0.0209935 	-0.00776514 	0.0077475 	0.0148159 	-0.00346614 	0.0108859
0.951912 	0.0209708 	-0.00776041 	0.00773125 	0.0148102 	-0.0034606 	0.0108684
0.952305 	0.0209482 	-0.00775569 	0.007715 	0.0148045 	-0.00345505 	0.0108509
0.952706 	0.0209257 	-0.00775135 	0.00769641 	0.0147977 	-0.00344884 	0.0108334
0.953107 	0.0209032 	-0.00774701 	0.00767782 	0.0147909 	-0.00344263 	0.010816
0.962724 	0.0203143 	-0.00765536 	0.00717039 	0.0146154 	-0.00327699 	0.0103084
0.972341 	0.0197254 	-0.00756371 	0.00666294 	0.0144399 	-0.00311135 	0.00980083
0.982543 	0.019062 	-0.00748449 	0.00608729 	0.0142447 	-0.00288322 	0.00927356
0.992745 	0.0183927 	-0.00740678 	0.00550687 	0.0140507 	-0.00265325 	0.00874094
1.00313 	0.0176407 	-0.00730274 	0.00496476 	0.0138517 	-0.00238106 	0.00832205
1.01352 	0.01688 	-0.00719898 	0.00442068 	0.0136561 	-0.00210714 	0.00790265
1.0241 	0.016076 	-0.00704342 	0.00394966 	0.0134375 	-0.00184549 	0.00762596
1.03468 	0.0152651 	-0.006887 	0.0034796 	0.0132235 	-0.00158336 	0.00735211
1.04545 	0.0145493 	-0.00669457 	0.00309428 	0.0129634 	-0.00137757 	0.00717502
1.05623 	0.0138326 	-0.00650163 	0.00271258 	0.0127074 	-0.00117286 	0.00700159
1.0672 	0.0132854 	-0.00629893 	0.00244525 	0.0123869 	-0.00103231 	0.00688763
1.07817 	0.0127411 	-0.00609743 	0.00218393 	0.012069 	-0.000894218 	0.00677668
1.08934 	0.0123378 	-0.00590155 	0.00205162 	0.0116836 	-0.000804031 	0.00669046
1.10051 	0.0119394 	-0.00570907 	0.00192554 	0.0112988 	-0.000717162 	0.00660559
1.11189 	0.0116125 	-0.00551673 	0.00191102 	0.0108536 	-0.000655965 	0.00652084
1.12327 	0.0112939 	-0.00532932 	0.00190126 	0.0104072 	-0.000598098 	0.00643659
1.13485 	0.0109853 	-0.0051125 	0.00197956 	0.00991299 	-0.000552354 	0.00633347
1.14644 	0.0106864 	-0.00490098 	0.00206041 	0.00941698 	-0.000508815 	0.00623168
1.15824 	0.0103715 	-0.00464501 	0.0021838 	0.0089092 	-0.000470275 	0.00607598
1.17004 	0.0100625 	-0.00439324 	0.00230659 	0.0084005 	-0.000432224 	0.00592179
1.18205 	0.00968892 	-0.00411206 	0.00238467 	0.00792914 	-0.000396862 	0.0057256
1.19407 	0.00931536 	-0.00383248 	0.00245906 	0.00745821 	-0.000361311 	0.00552924
1.2063 	0.00883024 	-0.00354884 	0.00242606 	0.0070502 	-0.00033239 	0.00534709
1.21854 	0.00834118 	-0.00326404 	0.00238783 	0.00664323 	-0.000304024 	0.00516336
1.23099 	0.00779038 	-0.00298907 	0.00227193 	0.00630052 	-0.000279279 	0.00502919
1.24345 	0.0072349 	-0.00271128 	0.00215143 	0.00595857 	-0.00025567 	0.00489366
1.25614 	0.00670744 	-0.00244082 	0.00200786 	0.00567071 	-0.000221242 	0.00482224
1.26883 	0.00617785 	-0.00216751 	0.00186163 	0.00538283 	-0.000187321 	0.00475
1.28175 	0.00570744 	-0.00190726 	0.00171917 	0.00512624 	-0.000133771 	0.00472469
1.29467 	0.00523792 	-0.00164543 	0.00157613 	0.00486844 	-7.94017e-05 	0.00469828
1.30783 	0.00484246 	-0.0014168 	0.00146614 	0.00461472 	-1.85066e-05 	0.00467747
1.32099 	0.00444799 	-0.00118781 	0.00135693 	0.00435874 	4.40405e-05 	0.00465506
1.33439 	0.00415345 	-0.00100075 	0.00130301 	0.00409151 	8.97997e-05 	0.00461588
1.34778 	0.00385886 	-0.000813522 	0.0012502 	0.003822 	0.000137022 	0.00457498
1.36143 	0.00363891 	-0.000661808 	0.00122807 	0.00354798 	0.000155091 	0.00451025
1.37507 	0.00341815 	-0.000509185 	0.00120654 	0.00327278 	0.000174104 	0.00444432
1.38897 	0.00323246 	-0.000383023 	0.00117501 	0.00301977 	0.000174586 	0.00434979
1.40286 	0.00304522 	-0.000255432 	0.00114357 	0.00276687 	0.000175798 	0.004255
1.41701 	0.00289199 	-0.000157658 	0.00110255 	0.0025566 	0.000176669 	0.004141
1.43116 	0.00273676 	-5.90747e-05 	0.00106178 	0.00234684 	0.000177921 	0.00402792
1.44557 	0.0026185 	-6.22948e-06 	0.00102915 	0.00217466 	0.000177536 	0.0039141
1.45998 	0.00249833 	4.62238e-05 	0.000996889 	0.00200249 	0.000176633 	0.00380185
1.47466 	0.00240802 	5.57878e-05 	0.000970999 	0.00185409 	0.000164667 	0.00369499
1.48933 	0.0023168 	6.45795e-05 	0.000945314 	0.00170541 	0.000151568 	0.00358928
1.50427 	0.00224915 	5.5704e-05 	0.000917153 	0.00157732 	0.000132757 	0.00348765
1.51921 	0.00218177 	4.65216e-05 	0.000889256 	0.00144913 	0.000113141 	0.0033864
1.53443 	0.00212737 	3.9019e-05 	0.000855265 	0.00134267 	9.89977e-05 	0.00329342
1.54965 	0.00207355 	3.15703e-05 	0.000821506 	0.00123627 	8.46633e-05 	0.00320035
1.56514 	0.0020162 	2.80162e-05 	0.000779346 	0.00114872 	7.8704e-05 	0.00311732
1.58064 	0.0019591 	2.4532e-05 	0.00073718 	0.00106118 	7.28364e-05 	0.00303398
1.59642 	0.00189799 	2.25668e-05 	0.000688011 	0.000987974 	7.32051e-05 	0.00295943
1.6122 	0.00183697 	2.06313e-05 	0.000638695 	0.000914741 	7.37037e-05 	0.00288447
1.62827 	0.00178423 	2.30941e-05 	0.000589517 	0.000852858 	7.77428e-05 	0.0028183
1.64434 	0.00173169 	2.56622e-05 	0.000540395 	0.000790968 	8.18812e-05 	0.00275178
1.6607 	0.00169365 	3.35782e-05 	0.000495478 	0.000737541 	8.71433e-05 	0.00270219
1.67707 	0.00165587 	4.17003e-05 	0.000450509 	0.000684097 	9.24602e-05 	0.00265254
1.69373 	0.00163209 	4.85677e-05 	0.000415145 	0.000635037 	9.65121e-05 	0.00262751
1.7104 	0.00160852 	5.55693e-05 	0.000379632 	0.000585917 	0.000100593 	0.00260264
1.72737 	0.00159218 	5.6705e-05 	0.000358029 	0.000539429 	0.000102404 	0.00259919
1.74434 	0.00157595 	5.78492e-05 	0.000336535 	0.000492878 	0.000104255 	0.00259587
1.76162 	0.00155881 	5.37379e-05 	0.000327353 	0.000451351 	0.000105184 	0.00260057
1.7789 	0.00154169 	4.96155e-05 	0.000318312 	0.000409797 	0.000106153 	0.0026053
1.7965 	0.00152416 	4.42229e-05 	0.000316704 	0.000376058 	0.000105575 	0.00260171
1.81409 	0.00150666 	3.88419e-05 	0.000315157 	0.000342305 	0.000104996 	0.00259801
1.83202 	0.00149162 	3.49303e-05 	0.000313609 	0.000315998 	0.000102143 	0.00258255
1.84994 	0.00147661 	3.10244e-05 	0.000312031 	0.000289663 	9.92632e-05 	0.00256699
1.86819 	0.00146388 	2.8197e-05 	0.000310445 	0.000269077 	9.59779e-05 	0.00254738
1.88644 	0.00145114 	2.53604e-05 	0.000308837 	0.000248468 	9.26801e-05 	0.00252774
1.90502 	0.00144087 	2.3749e-05 	0.000309475 	0.000232043 	8.95703e-05 	0.00250992
1.9236 	0.0014306 	2.21369e-05 	0.000310106 	0.000215619 	8.64662e-05 	0.00249211
1.94253 	0.0014229 	2.16375e-05 	0.000311833 	0.000202113 	8.32084e-05 	0.00247636
1.96146 	0.00141519 	2.11467e-05 	0.000313559 	0.000188621 	7.99579e-05 	0.00246062
1.98073 	0.00140958 	2.09634e-05 	0.000314219 	0.000177915 	7.67506e-05 	0.00244651
2 	0.00140395 	2.07869e-05 	0.000314885 	0.000167224 	7.35489e-05 	0.0024324
