0 1e-10
0.00128482 0.001125
0.00256965 0.00203956
0.00275177 0.0020441
0.0029339 0.00204863
0.00406016 0.00214172
0.00518642 0.00225136
0.0053027 0.0022446
0.00541897 0.00223784
0.00616084 0.00221749
0.0069027 0.00221989
0.00737695 0.00222143
0.00785119 0.00222297
0.00864142 0.00214978
0.00943164 0.00211061
0.00999824 0.00208252
0.0105648 0.00205443
0.0119465 0.00192495
0.0133283 0.00183182
0.0135241 0.00180716
0.01372 0.00178249
0.0149312 0.00169675
0.0161424 0.001628
0.0162674 0.00161415
0.0163924 0.0016003
0.0177003 0.00153052
0.0190081 0.0014937
0.0199478 0.0014401
0.0208876 0.00144613
0.021407 0.00144947
0.0219263 0.00145281
0.0234122 0.0014396
0.0248981 0.00148076
0.0250828 0.00147596
0.0252676 0.00147116
0.026596 0.00148909
0.0279244 0.00152337
0.0294653 0.00152917
0.0310063 0.00154482
0.0325754 0.00154136
0.0341446 0.00152435
0.0357425 0.00150456
0.0373405 0.00145822
0.0384939 0.00144463
0.0396473 0.0014025
0.0401211 0.00138519
0.040595 0.00136787
0.0415601 0.00135985
0.0425252 0.00132876
0.0432172 0.00130647
0.0439092 0.00128417
0.0455967 0.00126371
0.0472842 0.00122999
0.0490026 0.00122182
0.0507211 0.00120884
0.052471 0.00121121
0.054221 0.00121372
0.0553687 0.00121975
0.0565165 0.00122903
0.0571508 0.00123416
0.0577851 0.00123929
0.0595998 0.00125885
0.0614146 0.00128336
0.0616565 0.00128604
0.0618984 0.00128871
0.0635045 0.00131521
0.0651106 0.00134416
0.0668694 0.00137573
0.0686281 0.00141332
0.0687513 0.00141595
0.0688745 0.00141858
0.0690417 0.00142149
0.069209 0.0014244
0.0709581 0.00146232
0.0727073 0.00150354
0.0746589 0.00154769
0.0766105 0.00159596
0.0785979 0.00164076
0.0805853 0.00168682
0.0826091 0.00172644
0.0846329 0.00176238
0.0866939 0.00179179
0.0887548 0.00181141
0.0889739 0.00181498
0.089193 0.00181855
0.0910727 0.0018244
0.0929523 0.00182096
0.0932132 0.00182381
0.0934741 0.00182667
0.0945897 0.00182103
0.0957054 0.00180349
0.0964661 0.00179153
0.0972268 0.00177956
0.0984944 0.00177534
0.099762 0.00173917
0.100671 0.00171323
0.10158 0.0016873
0.103796 0.00163718
0.106012 0.00155434
0.108269 0.00149076
0.110526 0.00139807
0.112007 0.0013615
0.113487 0.00130265
0.114305 0.00127013
0.115123 0.00123761
0.11582 0.00122172
0.116517 0.0012017
0.11816 0.00114378
0.119804 0.00108586
0.12191 0.00102764
0.124016 0.000964224
0.124294 0.000955864
0.124571 0.000947504
0.125985 0.000912549
0.127399 0.000877883
0.128412 0.000853026
0.129426 0.00082817
0.131897 0.000779498
0.134369 0.000735224
0.13542 0.00071615
0.136471 0.000703189
0.137937 0.000685901
0.139403 0.000668612
0.140136 0.000657771
0.140868 0.000649264
0.142699 0.000636217
0.14453 0.00062317
0.146985 0.000604092
0.149441 0.000594364
0.149595 0.00059375
0.14975 0.000593137
0.151298 0.000581403
0.152846 0.000578296
0.153956 0.000576068
0.155066 0.00057384
0.157773 0.000564132
0.16048 0.00056145
0.163237 0.000554226
0.165993 0.000552038
0.166384 0.000550511
0.166775 0.000548984
0.167755 0.000546446
0.168734 0.000545197
0.170171 0.000543367
0.171607 0.000541536
0.174466 0.000533527
0.177324 0.00052747
0.180235 0.000518333
0.183146 0.000510351
0.186111 0.000501147
0.189075 0.000493097
0.192094 0.000484962
0.195113 0.00047823
0.198187 0.00047163
0.201261 0.000466718
0.203277 0.000462687
0.205293 0.000460659
0.206407 0.000459538
0.207522 0.000458417
0.209378 0.000455358
0.211235 0.000454616
0.212566 0.000454085
0.213898 0.000453553
0.217144 0.000452058
0.22039 0.000453231
0.220563 0.000453071
0.220735 0.00045291
0.223869 0.000453566
0.227002 0.000456295
0.230017 0.000456698
0.233032 0.000459428
0.233384 0.000459746
0.233735 0.000460065
0.237164 0.000460404
0.240592 0.000462343
0.244083 0.000461097
0.247574 0.000460351
0.250199 0.00045717
0.252823 0.000453086
0.253754 0.000451638
0.254685 0.00045019
0.255 0.000449677
0.255316 0.000449164
0.258621 0.0004405
0.261925 0.000430387
0.2643 0.000424712
0.266674 0.000416493
0.267987 0.00041195
0.269299 0.000407407
0.271486 0.000402502
0.273672 0.000395821
0.27524 0.000391031
0.276808 0.000386241
0.280631 0.0003773
0.284454 0.000367265
0.286962 0.000362505
0.28947 0.000357374
0.290855 0.000354538
0.292241 0.000351702
0.296206 0.000345692
0.300171 0.00033976
0.304208 0.000335527
0.308246 0.00033148
0.310641 0.000330053
0.313035 0.000328797
0.314752 0.000327896
0.316469 0.000326995
0.320656 0.00032639
0.324843 0.000325924
0.325288 0.000325975
0.325733 0.000326026
0.329552 0.000326586
0.333371 0.000327192
0.335127 0.000327757
0.336883 0.000328285
0.339469 0.000329055
0.342055 0.000329824
0.346476 0.000331541
0.350898 0.000332944
0.355401 0.000334393
0.359903 0.000335289
0.364489 0.000336008
0.369074 0.000335921
0.373744 0.000336186
0.378413 0.000335351
0.383168 0.000335786
0.387923 0.000335039
0.392765 0.000335914
0.397608 0.000335814
0.402539 0.000337065
0.40747 0.000337625
0.412491 0.00033911
0.417513 0.000340302
0.422626 0.000342208
0.42774 0.000344376
0.428465 0.000344581
0.42919 0.000344786
0.433672 0.000347169
0.438155 0.000349834
0.438618 0.000349948
0.43908 0.000350061
0.443921 0.000352935
0.448761 0.000356551
0.454161 0.00035955
0.459561 0.000364113
0.463103 0.000365318
0.466645 0.000368166
0.468602 0.00036974
0.47056 0.000371314
0.473821 0.00037199
0.477083 0.000374358
0.479421 0.000376056
0.48176 0.000377754
0.483647 0.000377791
0.485534 0.000378607
0.489349 0.00038118
0.493165 0.000383752
0.498367 0.000385286
0.503568 0.00038826
0.504174 0.000388606
0.50478 0.000388953
0.510694 0.000390356
0.516608 0.000392781
0.519123 0.000392708
0.521638 0.000393228
0.525145 0.000394031
0.528653 0.000394833
0.532225 0.000394145
0.535796 0.00039395
0.538357 0.00039381
0.540918 0.000393669
0.547164 0.000390667
0.553409 0.000387893
0.559769 0.000382384
0.566129 0.000376996
0.572605 0.000369395
0.579082 0.000361928
0.585677 0.000354628
0.592272 0.000347772
0.598989 0.000343428
0.605705 0.000340056
0.612544 0.000339383
0.619384 0.0003399
0.626349 0.000342839
0.633314 0.000347295
0.640406 0.000354122
0.647499 0.000362112
0.654722 0.00037435
0.661944 0.000384555
0.669299 0.000408427
0.676655 0.00042301
0.677437 0.000429212
0.678218 0.000435413
0.684927 0.000464263
0.691635 0.00048399
0.696077 0.000515369
0.700519 0.000530617
0.703704 0.000541551
0.70689 0.000552484
0.707701 0.000556983
0.708511 0.000561482
0.710724 0.000572962
0.712936 0.000579681
0.71768 0.00059409
0.722424 0.000608498
0.730334 0.000631313
0.738244 0.000651769
0.746299 0.000668185
0.754354 0.000687426
0.762556 0.000696053
0.770759 0.00071118
0.779112 0.000713005
0.787465 0.000721309
0.795971 0.000719444
0.804478 0.000721547
0.805382 0.000720778
0.806286 0.000720008
0.814044 0.000716425
0.821802 0.000713974
0.822879 0.000713
0.823956 0.000712026
0.8317 0.000706172
0.839445 0.000700675
0.848428 0.000692709
0.857411 0.000684897
0.866558 0.000677396
0.875706 0.000670675
0.885021 0.000663017
0.894337 0.000657028
0.903823 0.00064638
0.91331 0.000637286
0.92297 0.000622444
0.93263 0.000608937
0.942468 0.000591441
0.952305 0.000576056
0.962323 0.000559152
0.972341 0.000545499
0.982543 0.000532745
0.992745 0.000523613
1.00313 0.000517235
1.01352 0.000513575
1.0241 0.00051305
1.03468 0.0005141
1.04545 0.000519746
1.05623 0.000526486
1.0672 0.000542323
1.07817 0.000559493
1.08934 0.000581577
1.10051 0.000605539
1.11189 0.000624478
1.12327 0.000643639
1.13485 0.000654635
1.14644 0.000662275
1.15824 0.000659572
1.17004 0.00065124
1.18205 0.000628117
1.19407 0.000598824
1.2063 0.000563736
1.21854 0.000528166
1.23099 0.000501723
1.24345 0.000478056
1.25614 0.000460869
1.26883 0.000441507
1.28175 0.000418486
1.29467 0.000388203
1.30783 0.000350922
1.32099 0.000305457
1.33439 0.000252316
1.34778 0.000201565
1.36143 0.000147151
1.37507 0.000106477
1.37652 0.000101504
1.37797 9.65313e-05
1.39042 7.02737e-05
1.40286 5.01625e-05
1.40459 4.79773e-05
1.40632 4.57921e-05
1.41874 3.63721e-05
1.43116 2.89168e-05
1.44557 2.54397e-05
1.45998 2.3161e-05
1.46151 2.3032e-05
1.46305 2.29031e-05
1.47619 2.22363e-05
1.48933 2.17342e-05
1.49115 2.16826e-05
1.49298 2.1631e-05
1.5061 2.13956e-05
1.51921 2.12025e-05
1.53443 2.10021e-05
1.54965 2.08425e-05
1.55127 2.08249e-05
1.55288 2.08072e-05
1.56676 2.06843e-05
1.58064 2.05722e-05
1.58257 2.05607e-05
1.58449 2.05492e-05
1.59835 2.04718e-05
1.6122 2.03961e-05
1.62827 2.03378e-05
1.64434 2.02779e-05
1.64605 2.02709e-05
1.64776 2.02639e-05
1.66241 2.02087e-05
1.67707 2.01552e-05
1.6791 2.01454e-05
1.68114 2.01355e-05
1.69577 2.00789e-05
1.7104 2.00268e-05
1.71217 2.00197e-05
1.71394 2.00127e-05
1.72914 1.9972e-05
1.74434 1.99387e-05
1.76162 1.99212e-05
1.7789 1.99169e-05
1.78105 1.9917e-05
1.78319 1.99171e-05
1.79864 1.99345e-05
1.81409 1.99572e-05
1.81597 1.99603e-05
1.81784 1.99634e-05
1.83389 2.00054e-05
1.84994 2.00533e-05
1.85216 2.006e-05
1.85439 2.00668e-05
1.87041 2.01282e-05
1.88644 2.01935e-05
1.90502 2.02797e-05
1.9236 2.03736e-05
1.92558 2.03856e-05
1.92756 2.03976e-05
1.94451 2.05122e-05
1.96146 2.06312e-05
1.96381 2.06309e-05
1.96616 2.06305e-05
1.98308 2.06315e-05
2 2.06338e-05
