1 1e-10
1.00148 0.0247883
1.00296 0.0495766
1.00447 0.0418744
1.00598 0.0257375
1.00753 0.0232186
1.00907 0.0197362
1.00964 0.0190792
1.0102 0.0184222
1.01121 0.0162358
1.01222 0.0140495
1.01383 0.0129214
1.01544 0.0108694
1.01709 0.0106122
1.01873 0.00980199
1.01978 0.00961415
1.02083 0.00942631
1.02146 0.00909388
1.02209 0.00876145
1.02381 0.00819495
1.02552 0.00739333
1.02727 0.00722589
1.02902 0.0067361
1.03047 0.00660908
1.03191 0.00648206
1.03226 0.00640025
1.0326 0.00631845
1.03443 0.00593462
1.03625 0.00548342
1.03812 0.00536726
1.03998 0.00501488
1.04173 0.00487473
1.04348 0.00473457
1.04363 0.00470858
1.04379 0.00468259
1.04574 0.00438426
1.04768 0.00406779
1.04967 0.00393781
1.05165 0.00368845
1.0536 0.00350089
1.05556 0.00331334
1.05563 0.00330254
1.05571 0.00329173
1.05778 0.00304697
1.05985 0.00279783
1.06197 0.00259608
1.06409 0.00243328
1.06613 0.00221012
1.06818 0.00198697
1.06829 0.00197469
1.06841 0.0019624
1.07061 0.00181244
1.07282 0.00166588
1.07507 0.00142939
1.07733 0.00134499
1.07936 0.00118926
1.0814 0.00103353
1.08166 0.00101836
1.08193 0.00100318
1.08428 0.000926101
1.08663 0.000868144
1.08903 0.000725782
1.09143 0.000676769
1.09333 0.00062012
1.09524 0.000563471
1.09578 0.000551891
1.09633 0.00054031
1.09883 0.000496435
1.10133 0.000470837
1.10389 0.000419062
1.10644 0.000394639
1.1081 0.0003787
1.10976 0.000362761
1.11071 0.000355915
1.11166 0.00034907
1.11433 0.000330012
1.11699 0.000321156
1.11972 0.000304675
1.12244 0.000294514
1.12372 0.000290948
1.125 0.000287382
1.1265 0.000284062
1.128 0.000280742
1.13084 0.000273482
1.13368 0.000270595
1.13657 0.000265779
1.13947 0.000261961
1.14025 0.000261337
1.14103 0.000260713
1.14321 0.000259218
1.14539 0.000257723
1.14842 0.00025506
1.15144 0.000254007
1.15453 0.00025254
1.15762 0.000251118
1.15776 0.00025108
1.15789 0.000251042
1.16091 0.000250299
1.16392 0.000249556
1.16714 0.0002485
1.17036 0.000247922
1.17302 0.000247381
1.17568 0.000246841
1.17631 0.000246718
1.17694 0.000246595
1.1803 0.00024626
1.18366 0.00024604
1.18709 0.000245737
1.19052 0.000245745
1.19248 0.00024578
1.19444 0.000245815
1.19598 0.000245858
1.19752 0.000245902
1.2011 0.000246277
1.20467 0.000247011
1.20833 0.000247628
1.21198 0.000248546
1.21313 0.000248958
1.21429 0.00024937
1.21686 0.000250339
1.21944 0.000251308
1.22325 0.000252655
1.22706 0.000254101
1.23095 0.000255556
1.23484 0.000256989
1.23507 0.000257056
1.23529 0.000257123
1.23904 0.000258233
1.24278 0.000259343
1.24684 0.000260577
1.2509 0.000261966
1.25424 0.000263096
1.25758 0.000264226
1.25838 0.000264505
1.25918 0.000264783
1.26341 0.000266393
1.26764 0.00026805
1.27197 0.000269716
1.27629 0.000271411
1.27877 0.000272391
1.28125 0.000273371
1.28318 0.000274144
1.28511 0.000274917
1.28962 0.000276746
1.29412 0.000278597
1.29873 0.000280471
1.30333 0.00028239
1.30489 0.000283049
1.30645 0.000283707
1.30959 0.000285059
1.31273 0.000286411
1.31753 0.000288472
1.32233 0.000290611
1.32723 0.000292759
1.33213 0.000294916
1.33273 0.000295184
1.33333 0.000295452
1.33774 0.00029744
1.34214 0.000299428
1.34725 0.000301725
1.35236 0.000304081
1.35722 0.000306296
1.36207 0.000308511
1.36244 0.000308681
1.3628 0.00030885
1.36813 0.000311323
1.37346 0.000313799
1.37891 0.000316326
1.38435 0.000318904
1.3886 0.000320882
1.39286 0.00032286
1.39416 0.000323478
1.39547 0.000324096
1.40115 0.000326794
1.40682 0.000329505
1.41262 0.00033224
1.41842 0.000335043
1.42217 0.000336824
1.42593 0.000338606
1.42809 0.000339658
1.43026 0.00034071
1.43631 0.000343646
1.44236 0.000346614
1.44853 0.000349601
1.45471 0.000352637
1.45812 0.0003543
1.46154 0.000355964
1.46443 0.000357391
1.46732 0.000358819
1.47376 0.000361992
1.4802 0.000365194
1.48678 0.000368429
1.49335 0.000371701
1.49668 0.000373343
1.5 0.000374984
1.50339 0.000376684
1.50679 0.000378383
1.51364 0.00038181
1.5205 0.000385274
1.52751 0.000388756
1.53451 0.000392285
1.53809 0.000394079
1.54167 0.000395873
1.54524 0.000397693
1.54882 0.000399514
1.55612 0.000403222
1.56343 0.000406976
1.57089 0.000410749
1.57835 0.000414574
1.58265 0.000416773
1.58696 0.000418971
1.59027 0.000420688
1.59359 0.000422405
1.60137 0.00042643
1.60915 0.000430494
1.61709 0.000434585
1.62504 0.00043874
1.6307 0.000441683
1.63636 0.000444626
1.63881 0.000445916
1.64127 0.000447206
1.64955 0.000451579
1.65784 0.000455981
1.6663 0.000460411
1.67476 0.000464934
1.68262 0.000469089
1.69048 0.000473245
1.69126 0.000473666
1.69205 0.000474086
1.70087 0.000478856
1.7097 0.000483635
1.71871 0.000488456
1.72772 0.000493397
1.73693 0.000498372
1.74613 0.00050337
1.74806 0.000504428
1.75 0.000505487
1.75746 0.000509619
1.76493 0.000513751
1.77453 0.000519034
1.78412 0.000524411
1.79393 0.000529828
1.80373 0.00053532
1.80976 0.000538679
1.81579 0.000542039
1.81977 0.000544281
1.82375 0.000546524
1.83397 0.000552397
1.8442 0.000558319
1.85464 0.00056408
1.86508 0.000570002
1.87574 0.000576446
1.8864 0.000582906
1.88764 0.00058358
1.88889 0.000584255
1.89853 0.000589548
1.90818 0.000594842
1.91929 0.000601753
1.93041 0.000608829
1.94177 0.000615586
1.95312 0.000622417
1.96186 0.000627151
1.97059 0.000631884
1.97345 0.000633455
1.97632 0.000635025
1.98816 0.000643371
2 0.000651779
