0 1e-10
0.00128482 0.00227666
0.00256965 0.00455331
0.00387803 0.00467494
0.00518642 0.00479657
0.00651881 0.0044795
0.00785119 0.00416242
0.00920802 0.00365333
0.0105648 0.00314424
0.0119465 0.00280383
0.0133283 0.00246341
0.0147353 0.00233738
0.0161424 0.00221135
0.0175752 0.00217518
0.0190081 0.002139
0.0204672 0.00214183
0.0219263 0.00214466
0.0234122 0.0021764
0.0248981 0.00220814
0.0264113 0.00225064
0.0279244 0.00229314
0.0294653 0.00232836
0.0310063 0.00236357
0.0325754 0.00237714
0.0341446 0.00239071
0.0357425 0.00237349
0.0373405 0.00235627
0.0389677 0.00230977
0.040595 0.00226326
0.0422521 0.00219534
0.0439092 0.00212741
0.0455967 0.00205548
0.0472842 0.00198355
0.0490026 0.00191933
0.0507211 0.00185512
0.052471 0.00180015
0.054221 0.00174518
0.056003 0.0017003
0.0577851 0.00165543
0.0595998 0.0016191
0.0614146 0.00158277
0.0632626 0.00155591
0.0651106 0.00152904
0.0669925 0.00151488
0.0688745 0.00150071
0.0707909 0.00150022
0.0727073 0.00149973
0.0746589 0.0015171
0.0766105 0.00153448
0.0785979 0.00157746
0.0805853 0.00162043
0.0826091 0.00167826
0.0846329 0.00173608
0.0866939 0.0017656
0.0887548 0.00179512
0.0908536 0.00175938
0.0929523 0.00172363
0.0950896 0.00161869
0.0972268 0.00151375
0.0994033 0.0013668
0.10158 0.00121986
0.103796 0.00108472
0.106012 0.00094959
0.108269 0.000857509
0.110526 0.000765429
0.112825 0.00071247
0.115123 0.000659512
0.117464 0.000633329
0.119804 0.000607147
0.1221 0.000596108
0.124395 0.00058507
0.124483 0.000584645
0.124571 0.000584221
0.126999 0.000581613
0.129426 0.000579006
0.131897 0.000581454
0.134369 0.000583902
0.136886 0.000589263
0.139403 0.000594625
0.139498 0.000594887
0.139593 0.000595149
0.142061 0.000601967
0.14453 0.000608785
0.14975 0.000624568
0.155066 0.000640267
0.16048 0.000654978
0.165993 0.00066903
0.1688 0.000675757
0.171607 0.000682483
0.174466 0.000688885
0.177324 0.000695287
0.180235 0.000701285
0.183146 0.000707283
0.186111 0.000713417
0.189075 0.000719552
0.195113 0.000730817
0.201261 0.000739041
0.207522 0.000745407
0.213898 0.000750073
0.22039 0.000752474
0.227002 0.0007527
0.233735 0.000751934
0.240592 0.000750701
0.247574 0.00074788
0.254685 0.000741886
0.261925 0.000731258
0.269299 0.000716712
0.276808 0.000705166
0.284454 0.000712594
0.292241 0.000769385
0.300171 0.00088868
0.308246 0.00101303
0.316469 0.00110557
0.324843 0.00121774
0.333371 0.00130257
0.342055 0.00125615
0.350898 0.00118089
0.359903 0.00127441
0.369074 0.00158531
0.378413 0.00201839
0.387923 0.00238183
0.397608 0.00245692
0.40747 0.00214352
0.417513 0.00162565
0.42774 0.00123418
0.438155 0.00106796
0.448761 0.00102193
0.459561 0.00101945
0.47056 0.00105885
0.48176 0.00115756
0.493165 0.00131759
0.50478 0.00153242
0.516608 0.00181607
0.528653 0.00217291
0.540918 0.00248942
0.553409 0.00261489
0.566129 0.00249701
0.579082 0.00226435
0.592272 0.00208465
0.605705 0.00200729
0.619384 0.00203788
0.633314 0.00216783
0.647499 0.00243814
0.661944 0.00299913
0.676655 0.00398109
0.691635 0.0048644
0.70689 0.00509841
0.722424 0.00459517
0.738244 0.00360595
0.754354 0.00281354
0.770759 0.00240131
0.787465 0.00217363
0.804478 0.00203109
0.821802 0.00184782
0.839445 0.00162588
0.857411 0.00148961
0.875706 0.00146054
0.894337 0.00150556
0.91331 0.00166039
0.93263 0.00184814
0.952305 0.00194154
0.972341 0.00192421
0.992745 0.00173329
1.01352 0.00142943
1.03468 0.00125581
1.05623 0.00128709
1.07817 0.00148432
1.10051 0.00168026
1.12327 0.00164431
1.14644 0.00138167
1.17004 0.0011116
1.19407 0.000948278
1.21854 0.000827804
1.24345 0.00071315
1.26883 0.0006063
1.29467 0.000511128
1.32099 0.000401931
1.34778 0.000288438
1.37507 0.000215164
1.40286 0.000173293
1.43116 0.000144737
1.45998 0.00012915
1.48933 0.000119711
1.51921 0.000112848
1.54965 0.000107934
1.58064 0.000104984
1.6122 0.000103438
1.64434 0.000102698
1.67707 0.000102449
1.7104 0.000102751
1.74434 0.000103788
1.7789 0.000104752
1.81409 0.000105228
1.84994 0.000106138
1.88644 0.000107828
1.9236 0.000109454
1.96146 0.000110204
2 0.000110289
