0 1e-10
0.000963618 0.000784477
0.00192724 0.00159018
0.00290853 0.00193857
0.00388982 0.00229298
0.00488911 0.0023788
0.0058884 0.00249618
0.00690601 0.00235486
0.00792363 0.00225893
0.00895991 0.00196794
0.00999619 0.0017047
0.0110515 0.00139229
0.0121068 0.00106544
0.0131814 0.000846105
0.0142561 0.000581849
0.0153504 0.000477284
0.0164448 0.000333922
0.0175592 0.000294499
0.0186736 0.000238427
0.0198085 0.000224015
0.0209433 0.000204537
0.022099 0.000198572
0.0232547 0.000190738
0.0244316 0.000188134
0.0256084 0.000183968
0.0268069 0.000183425
0.0280054 0.000180983
0.0292258 0.000182105
0.0304462 0.000181142
0.0316891 0.000183529
0.0329319 0.000183998
0.0341975 0.000187287
0.0354631 0.000188833
0.036752 0.000192711
0.0380408 0.000194843
0.0393533 0.000199161
0.0406657 0.000201522
0.0420023 0.000206193
0.0433388 0.000208562
0.0446999 0.000213484
0.0460609 0.000215766
0.047447 0.000220802
0.048833 0.000222977
0.0502444 0.000227915
0.0516559 0.000229954
0.0530932 0.000234481
0.0545305 0.000236308
0.0559942 0.000240083
0.0574579 0.000241589
0.0589484 0.00024412
0.060439 0.000245139
0.0619568 0.000246271
0.0634747 0.000246751
0.0650204 0.000246854
0.0665661 0.000246963
0.0681402 0.00024609
0.0697143 0.00024592
0.0713172 0.000244095
0.0729201 0.000243705
0.0745524 0.000241388
0.0761848 0.00024102
0.077847 0.000238784
0.0795093 0.000238754
0.0812021 0.000237025
0.0828948 0.000237537
0.0846186 0.000236603
0.0863424 0.000237794
0.0880979 0.000237746
0.0898533 0.000239728
0.0916409 0.000240566
0.0934285 0.000243438
0.0952489 0.000245438
0.0970693 0.000249392
0.0989231 0.000253134
0.100777 0.000258325
0.102665 0.000264398
0.104552 0.00027069
0.106475 0.000278208
0.108397 0.000284692
0.110355 0.000290268
0.112313 0.000295163
0.114306 0.000296714
0.1163 0.000299065
0.11833 0.000295923
0.12036 0.000295636
0.122428 0.000288317
0.124495 0.000286232
0.1266 0.000278729
0.128705 0.000278802
0.130849 0.000275223
0.132993 0.000278099
0.135177 0.0002772
0.13736 0.000279008
0.139583 0.000277231
0.141806 0.000276779
0.14407 0.000274676
0.146334 0.000273685
0.14864 0.000273098
0.150946 0.000273367
0.153293 0.000274473
0.155641 0.000275665
0.158032 0.000276319
0.160423 0.000276073
0.162858 0.000274525
0.165293 0.000271393
0.167772 0.000266855
0.170252 0.000259364
0.172776 0.000250309
0.175301 0.000236815
0.177873 0.000224177
0.180444 0.000207443
0.183062 0.000196155
0.185681 0.000181317
0.188347 0.000174337
0.191013 0.000164574
0.193729 0.000160505
0.196444 0.000155078
0.199209 0.000152869
0.201974 0.000149648
0.20479 0.000149068
0.207606 0.000147584
0.210473 0.000148473
0.213341 0.000148454
0.216261 0.000151243
0.219181 0.000152519
0.222155 0.000157543
0.225128 0.000160364
0.228156 0.00016641
0.231184 0.000170218
0.234268 0.000176907
0.237352 0.000181095
0.240492 0.000190349
0.243632 0.000196034
0.24683 0.000209612
0.250028 0.000218475
0.253285 0.000237607
0.256541 0.000251529
0.259857 0.000273403
0.263174 0.000291906
0.266551 0.000309978
0.269928 0.000327892
0.273367 0.000341196
0.276806 0.000354034
0.280308 0.000372272
0.28381 0.000384264
0.287376 0.00042032
0.290942 0.000443926
0.294574 0.000486521
0.298206 0.000526222
0.301904 0.000546941
0.305602 0.000583126
0.309368 0.000577262
0.313135 0.000590614
0.31697 0.000567097
0.320805 0.000557999
0.324711 0.000533841
0.328616 0.000512887
0.332593 0.00050466
0.336571 0.000487893
0.340621 0.000496344
0.344671 0.000491487
0.348795 0.00051598
0.35292 0.000522239
0.35712 0.00056007
0.36132 0.000578064
0.365597 0.000619357
0.369874 0.000648151
0.37423 0.000686394
0.378585 0.000719975
0.383021 0.000755831
0.387456 0.000791166
0.391973 0.00082596
0.39649 0.000861877
0.401089 0.000893214
0.405689 0.000927431
0.410373 0.000952022
0.415057 0.000982197
0.419827 0.000999188
0.424597 0.00102201
0.429454 0.00103228
0.434311 0.00104467
0.439258 0.00104953
0.444204 0.00105134
0.449241 0.00105188
0.454279 0.00104515
0.459408 0.00104247
0.464538 0.00102973
0.469761 0.00102553
0.474985 0.00101168
0.480305 0.00100557
0.485624 0.000993521
0.491041 0.000986504
0.496458 0.000977033
0.501975 0.000973144
0.507491 0.000969692
0.513109 0.000971659
0.518726 0.00097714
0.524447 0.000983826
0.530167 0.000998086
0.535993 0.00101222
0.541818 0.00103496
0.547751 0.00106369
0.553683 0.00109564
0.559724 0.00115824
0.565765 0.00119719
0.571917 0.00132869
0.578069 0.00138301
0.584334 0.00154138
0.590599 0.00162632
0.596979 0.00170906
0.603358 0.00180745
0.609855 0.00180343
0.616352 0.00187198
0.622968 0.00185288
0.629583 0.00188045
0.636321 0.00192064
0.643058 0.00195024
0.649919 0.00208949
0.656779 0.00220421
0.663766 0.00224113
0.670753 0.00233089
0.677867 0.00202922
0.684982 0.0018308
0.692227 0.0015221
0.699473 0.00118762
0.706851 0.00116989
0.714229 0.00107033
0.721742 0.00119963
0.729256 0.00133002
0.736907 0.00149118
0.744558 0.00167411
0.75235 0.00180089
0.760142 0.00195458
0.768076 0.00194792
0.776011 0.00199539
0.784091 0.00183954
0.792171 0.00172686
0.800399 0.00149818
0.808627 0.00125931
0.817006 0.00108306
0.825385 0.000873443
0.833918 0.00076858
0.842451 0.000655779
0.85114 0.000588742
0.85983 0.000524872
0.868678 0.000475452
0.877527 0.00043312
0.886538 0.000394127
0.895549 0.000363582
0.904725 0.000331459
0.913901 0.000307468
0.923246 0.000278527
0.93259 0.000257807
0.942106 0.000230988
0.951622 0.000209835
0.961313 0.000188266
0.971003 0.000164958
0.980872 0.000149871
0.99074 0.000126726
1.00079 0.000117192
1.01084 9.71051e-05
1.02107 9.1305e-05
1.03131 7.7038e-05
1.04173 7.36771e-05
1.05215 6.49902e-05
1.06276 6.3209e-05
1.07337 5.83296e-05
1.08418 5.74904e-05
1.09499 5.50132e-05
1.10599 5.46869e-05
1.117 5.35509e-05
1.1282 5.34842e-05
1.13941 5.30436e-05
1.15082 5.31171e-05
1.16224 5.30158e-05
1.17386 5.31207e-05
1.18548 5.31527e-05
1.19731 5.32023e-05
1.20915 5.32476e-05
1.2212 5.32472e-05
1.23325 5.32696e-05
1.24553 5.3207e-05
1.2578 5.31834e-05
1.2703 5.29576e-05
1.2828 5.28221e-05
1.29552 5.23711e-05
1.30825 5.19715e-05
1.32121 5.15196e-05
1.33417 5.09789e-05
1.34737 5.06488e-05
1.36057 5.02143e-05
1.37401 4.99756e-05
1.38745 4.9666e-05
1.40114 4.9539e-05
1.41483 4.93282e-05
1.42877 4.93206e-05
1.4427 4.92362e-05
1.4569 4.94327e-05
1.47109 4.95565e-05
1.48555 4.96396e-05
1.5 4.96633e-05
1.50339 4.96855e-05
1.50679 4.97077e-05
1.5136 4.97882e-05
1.52041 4.98688e-05
1.52046 4.98694e-05
1.5205 4.987e-05
1.52751 5.00212e-05
1.53451 5.01729e-05
1.53809 5.028e-05
1.54167 5.03871e-05
1.54524 5.04904e-05
1.54882 5.05936e-05
1.55612 5.08364e-05
1.56343 5.10797e-05
1.56363 5.10867e-05
1.56383 5.10936e-05
1.57109 5.13496e-05
1.57835 5.16056e-05
1.58265 5.1753e-05
1.58696 5.19004e-05
1.59027 5.20173e-05
1.59359 5.21342e-05
1.60137 5.23839e-05
1.60915 5.26321e-05
1.61013 5.26598e-05
1.61111 5.26875e-05
1.61807 5.28924e-05
1.62504 5.30973e-05
1.6307 5.32518e-05
1.63636 5.34063e-05
1.63881 5.34746e-05
1.64127 5.35429e-05
1.64955 5.37786e-05
1.65784 5.40158e-05
1.66031 5.40874e-05
1.66279 5.4159e-05
1.66878 5.43366e-05
1.67476 5.45141e-05
1.68262 5.47408e-05
1.69048 5.49674e-05
1.69126 5.49904e-05
1.69205 5.50134e-05
1.70087 5.52745e-05
1.7097 5.55355e-05
1.7146 5.5684e-05
1.71951 5.58325e-05
1.72362 5.59585e-05
1.72772 5.60845e-05
1.73693 5.63739e-05
1.74613 5.66632e-05
1.74806 5.67248e-05
1.75 5.67864e-05
1.75746 5.7029e-05
1.76493 5.72715e-05
1.77349 5.75519e-05
1.78205 5.78323e-05
1.78309 5.78667e-05
1.78412 5.79012e-05
1.79393 5.82253e-05
1.80373 5.85492e-05
1.80976 5.87481e-05
1.81579 5.89471e-05
1.81977 5.90798e-05
1.82375 5.92124e-05
1.83397 5.95577e-05
1.8442 5.99006e-05
1.84777 6.00156e-05
1.85135 6.01307e-05
1.85821 6.03564e-05
1.86508 6.05821e-05
1.87574 6.08942e-05
1.8864 6.12049e-05
1.88764 6.12332e-05
1.88889 6.12616e-05
1.89853 6.14897e-05
1.90818 6.17179e-05
1.91837 6.18782e-05
1.92857 6.20385e-05
1.92949 6.20538e-05
1.93041 6.20691e-05
1.94177 6.21608e-05
1.95312 6.22511e-05
1.96186 6.22523e-05
1.97059 6.22534e-05
1.97345 6.22557e-05
1.97632 6.2258e-05
1.98816 6.2241e-05
2 6.22252e-05
