1 	-0.158738
1.00148 	-0.155731
1.00296 	-0.152982
1.00447 	-0.148457
1.00598 	-0.146559
1.00753 	-0.142901
1.00907 	-0.140784
1.00964 	-0.13981
1.0102 	-0.139296
1.01121 	-0.139668
1.01222 	-0.140189
1.01383 	-0.141052
1.01544 	-0.142255
1.01709 	-0.144403
1.01873 	-0.146742
1.01978 	-0.148993
1.02083 	-0.151228
1.02146 	-0.151586
1.02209 	-0.151886
1.02381 	-0.154007
1.02552 	-0.155858
1.02727 	-0.158015
1.02902 	-0.16087
1.03047 	-0.162643
1.03191 	-0.165365
1.03226 	-0.165607
1.0326 	-0.165736
1.03443 	-0.16491
1.03625 	-0.164906
1.03812 	-0.161486
1.03998 	-0.161481
1.04173 	-0.158419
1.04348 	-0.157296
1.04363 	-0.156923
1.04379 	-0.156637
1.04574 	-0.151013
1.04768 	-0.14685
1.04967 	-0.141499
1.05165 	-0.138462
1.0536 	-0.135354
1.05556 	-0.1326
1.05563 	-0.132442
1.05571 	-0.132293
1.05778 	-0.128973
1.05985 	-0.12556
1.06197 	-0.12241
1.06409 	-0.119402
1.06613 	-0.116318
1.06818 	-0.114289
1.06829 	-0.114178
1.06841 	-0.11405
1.07061 	-0.111163
1.07282 	-0.108677
1.07507 	-0.105112
1.07733 	-0.103167
1.07936 	-0.100511
1.0814 	-0.098526
1.0814 	-0.098526
1.08166 	-0.0982776
1.08166 	-0.0982776
1.08193 	-0.098067
1.08193 	-0.098067
1.08428 	-0.0958942
1.08663 	-0.0941238
1.08903 	-0.0923605
1.09143 	-0.0908938
1.09333 	-0.089838
1.09524 	-0.0886074
1.09578 	-0.0884869
1.09633 	-0.0883387
1.09883 	-0.0879571
1.10133 	-0.0870161
1.10389 	-0.0862277
1.10644 	-0.0844488
1.1081 	-0.0833204
1.10976 	-0.0819134
1.11071 	-0.0815364
1.11166 	-0.0809219
1.11433 	-0.0795602
1.11699 	-0.0773672
1.11972 	-0.0755714
1.12244 	-0.073209
1.12372 	-0.0722481
1.125 	-0.0712528
1.1265 	-0.0703986
1.128 	-0.0694496
1.13084 	-0.0679767
1.13368 	-0.0665005
1.13657 	-0.0650758
1.13947 	-0.0638402
1.14025 	-0.0634849
1.14103 	-0.0631837
1.14321 	-0.0626914
1.14539 	-0.0623285
1.14842 	-0.0617519
1.15144 	-0.0615353
1.15453 	-0.0612262
1.15762 	-0.0610661
1.15776 	-0.0610585
1.15789 	-0.0610525
1.16091 	-0.0614206
1.16392 	-0.0617919
1.16714 	-0.0622037
1.17036 	-0.0625351
1.17302 	-0.0627876
1.17568 	-0.0630078
1.17631 	-0.0631329
1.17694 	-0.0632388
1.1803 	-0.0638283
1.18366 	-0.0643237
1.18709 	-0.0648667
1.19052 	-0.0653243
1.19248 	-0.0656209
1.19444 	-0.0658904
1.19598 	-0.0662163
1.19752 	-0.0665077
1.2011 	-0.0672702
1.20467 	-0.0679254
1.20833 	-0.0686663
1.21198 	-0.0693284
1.21313 	-0.0695587
1.21429 	-0.0697748
1.21686 	-0.0704296
1.21944 	-0.0710212
1.22325 	-0.0719813
1.22706 	-0.0728032
1.23095 	-0.0737241
1.23484 	-0.0745757
1.23507 	-0.074631
1.23529 	-0.0746837
1.23904 	-0.0758454
1.24278 	-0.0769173
1.24684 	-0.078187
1.2509 	-0.0793124
1.25424 	-0.0803304
1.25758 	-0.0812939
1.25838 	-0.0816065
1.25918 	-0.0818959
1.26341 	-0.083571
1.26764 	-0.0851027
1.27197 	-0.0868032
1.27629 	-0.0883316
1.27629 	-0.0883316
1.27877 	-0.0892839
1.28125 	-0.0901836
1.28318 	-0.0911196
1.28511 	-0.0919615
1.28962 	-0.0940972
1.29412 	-0.0959268
1.29873 	-0.0979239
1.30333 	-0.0996668
1.30489 	-0.100291
1.30645 	-0.100866
1.30959 	-0.102442
1.31273 	-0.103768
1.31753 	-0.105917
1.32233 	-0.107484
1.32723 	-0.10912
1.33213 	-0.11047
1.33273 	-0.11063
1.33333 	-0.110772
1.33774 	-0.112297
1.34214 	-0.113303
1.34725 	-0.114286
1.35236 	-0.114508
1.35722 	-0.11464
1.36207 	-0.114557
1.36244 	-0.114603
1.3628 	-0.114608
1.36813 	-0.114998
1.37346 	-0.114785
1.37891 	-0.114934
1.38435 	-0.114316
1.3886 	-0.114015
1.39286 	-0.113694
1.39416 	-0.113668
1.39547 	-0.113518
1.40115 	-0.112691
1.40682 	-0.111691
1.41262 	-0.110226
1.41842 	-0.10872
1.42217 	-0.107701
1.42593 	-0.106599
1.42809 	-0.105964
1.43026 	-0.105299
1.43631 	-0.103853
1.44236 	-0.102181
1.44853 	-0.101087
1.45471 	-0.099773
1.45812 	-0.0992481
1.46154 	-0.0987151
1.46443 	-0.0982751
1.46732 	-0.0977959
1.47376 	-0.0968543
1.4802 	-0.0958604
1.48678 	-0.0950571
1.49335 	-0.0941105
1.49668 	-0.0937453
1.5 	-0.0933408
1.50339 	-0.0929544
1.50679 	-0.0925303
1.51364 	-0.0918284
1.5205 	-0.0910242
1.52751 	-0.090352
1.53451 	-0.0895789
1.53809 	-0.0892512
1.54167 	-0.0888923
1.54524 	-0.0885556
1.54882 	-0.0881904
1.55612 	-0.0875611
1.56343 	-0.0868498
1.57089 	-0.0862299
1.57835 	-0.0855307
1.58265 	-0.0851805
1.58696 	-0.0848036
1.59027 	-0.0845293
1.59359 	-0.0842355
1.60137 	-0.0836299
1.60915 	-0.0829623
1.61709 	-0.0823592
1.62504 	-0.0816874
1.6307 	-0.0812572
1.63636 	-0.0808002
1.63881 	-0.080612
1.64127 	-0.0804124
1.64955 	-0.0798021
1.65784 	-0.0791438
1.6663 	-0.0785346
1.67476 	-0.0778592
1.68262 	-0.0772834
1.69048 	-0.0766774
1.69126 	-0.0766194
1.69205 	-0.0765583
1.70087 	-0.0759259
1.7097 	-0.0752573
1.7097 	-0.0752573
1.71871 	-0.0746297
1.72772 	-0.0739351
1.73693 	-0.0732822
1.74613 	-0.0725929
1.74806 	-0.0724582
1.75 	-0.0723175
1.75746 	-0.0717932
1.76493 	-0.0712447
1.76493 	-0.0712447
1.77453 	-0.0705901
1.77453 	-0.0705901
1.78412 	-0.0698825
1.78412 	-0.0698825
1.79393 	-0.0692158
1.80373 	-0.0685047
1.80976 	-0.0680977
1.81579 	-0.0676747
1.81977 	-0.067403
1.82375 	-0.0671203
1.83397 	-0.0664445
1.8442 	-0.0657314
1.85464 	-0.0650604
1.86508 	-0.0643369
1.87574 	-0.0636507
1.8864 	-0.0629382
1.88764 	-0.0628609
1.88889 	-0.0627809
1.89853 	-0.0621739
1.90818 	-0.0615459
1.91929 	-0.0608703
1.93041 	-0.0601528
1.94177 	-0.0594822
1.95312 	-0.0587751
1.96186 	-0.0582608
1.97059 	-0.0577323
1.97345 	-0.0575614
1.97632 	-0.0573857
1.98816 	-0.0567033
2 	-0.0559968
2 	-0.0559968
2.01332 	-0.0552754
2.02663 	-0.0545292
