1 1e-10
1.00148 0.00243667
1.00296 0.00512809
1.00447 0.00439897
1.00598 0.0032609
1.00753 0.00291983
1.00907 0.00236416
1.00964 0.00238096
1.0102 0.00236574
1.01121 0.00238948
1.01222 0.00230644
1.01383 0.00259228
1.01544 0.00254771
1.01709 0.00274925
1.01873 0.00268842
1.01978 0.00273947
1.02083 0.00280506
1.02146 0.00290953
1.02209 0.00295131
1.02381 0.00315895
1.02552 0.00323292
1.02727 0.00325893
1.02902 0.00335156
1.03047 0.00332155
1.03191 0.00344939
1.03226 0.00346532
1.0326 0.00347557
1.03443 0.0033976
1.03625 0.00345019
1.03812 0.00336259
1.03998 0.00349046
1.04173 0.00352408
1.04348 0.0035849
1.04363 0.00358613
1.04379 0.00359
1.04574 0.00359357
1.04768 0.0036284
1.04967 0.00344022
1.05165 0.00351256
1.0536 0.00332467
1.05556 0.00330741
1.05563 0.00330031
1.05571 0.00329692
1.05778 0.00298101
1.05985 0.00280659
1.06197 0.00249198
1.06409 0.00237146
1.06613 0.00218336
1.06818 0.00200861
1.06829 0.00199412
1.06841 0.00198443
1.07061 0.00177501
1.07282 0.00161577
1.07507 0.0015123
1.07733 0.00141593
1.07936 0.0013899
1.0814 0.00134862
1.08166 0.00134396
1.08193 0.00134058
1.08428 0.00136254
1.08663 0.00137874
1.08903 0.00144008
1.09143 0.0014842
1.09333 0.00155104
1.09524 0.0015994
1.09578 0.00161592
1.09633 0.00162852
1.09883 0.00171272
1.10133 0.00176698
1.10389 0.00182011
1.10644 0.0018405
1.1081 0.00183731
1.10976 0.00182806
1.11071 0.00182909
1.11166 0.00182997
1.11433 0.00181286
1.11699 0.00179929
1.11972 0.00179268
1.12244 0.00178262
1.12372 0.00178524
1.125 0.00178503
1.1265 0.0017925
1.128 0.00179565
1.13084 0.00182164
1.13368 0.00181801
1.13657 0.00182629
1.13947 0.00181106
1.14025 0.00180484
1.14103 0.0017966
1.14321 0.00175887
1.14539 0.00170415
1.14842 0.00160451
1.15144 0.00148286
1.15453 0.0013196
1.15762 0.00115495
1.15776 0.00114572
1.15789 0.00113707
1.16091 0.000925969
1.16392 0.000752665
1.16714 0.000551864
1.17036 0.000438735
1.17302 0.000350529
1.17568 0.000298863
1.17631 0.000287643
1.17694 0.000280793
1.1803 0.000255465
1.18366 0.00024134
1.18709 0.000231421
1.19052 0.000227573
1.19248 0.000226088
1.19444 0.000225644
1.19598 0.000225286
1.19752 0.000225369
1.2011 0.000226508
1.20467 0.000228578
1.20833 0.000231304
1.21198 0.000234798
1.21313 0.000235982
1.21429 0.000237366
1.21686 0.000240619
1.21944 0.000243977
1.22325 0.000249119
1.22706 0.000254649
1.23095 0.000260697
1.23484 0.000267078
1.23507 0.000267463
1.23529 0.000267884
1.23904 0.000275043
1.24278 0.000282328
1.24684 0.000290329
1.2509 0.000298969
1.25424 0.00030588
1.25758 0.000313309
1.25838 0.000315252
1.25918 0.0003172
1.26341 0.000327152
1.26764 0.000337277
1.27197 0.000347039
1.27629 0.000357282
1.27877 0.00036282
1.28125 0.000368753
1.28318 0.000373959
1.28511 0.000378956
1.28962 0.000389941
1.29412 0.00040056
1.29873 0.000410311
1.30333 0.000419834
1.30489 0.000423313
1.30645 0.000426818
1.30959 0.000435367
1.31273 0.000442431
1.31753 0.00045778
1.32233 0.000468672
1.32723 0.000483031
1.33213 0.000495376
1.33273 0.000496553
1.33333 0.000497608
1.33774 0.00050555
1.34214 0.000508948
1.34725 0.000510394
1.35236 0.000506177
1.35722 0.000506201
1.36207 0.00050586
1.36244 0.000505789
1.3628 0.000505501
1.36813 0.000509019
1.37346 0.000511786
1.37891 0.000512983
1.38435 0.000522344
1.3886 0.000521226
1.39286 0.000527364
1.39416 0.000526939
1.39547 0.000527853
1.40115 0.000518648
1.40682 0.000519772
1.41262 0.000506391
1.41842 0.000518525
1.42217 0.000504036
1.42593 0.000506707
1.42809 0.000500039
1.43026 0.000500996
1.43631 0.000430006
1.44236 0.00039265
1.44853 0.000325504
1.45471 0.000231539
1.45812 0.000208327
1.46154 0.000172639
1.46443 0.000148299
1.46732 0.000114219
1.47376 9.92144e-05
1.4802 6.89751e-05
1.48678 6.21976e-05
1.49335 5.07986e-05
1.49668 4.94368e-05
1.5 4.766e-05
1.50339 4.60075e-05
1.50679 4.40071e-05
1.51364 4.28178e-05
1.5205 4.12799e-05
1.52751 4.0473e-05
1.53451 3.9615e-05
1.53809 3.92887e-05
1.54167 3.8961e-05
1.54524 3.86037e-05
1.54882 3.82536e-05
1.55612 3.76901e-05
1.56343 3.71735e-05
1.57089 3.67295e-05
1.57835 3.6315e-05
1.58265 3.61135e-05
1.58696 3.58994e-05
1.59027 3.57274e-05
1.59359 3.55614e-05
1.60137 3.52952e-05
1.60915 3.50124e-05
1.61709 3.48133e-05
1.62504 3.46045e-05
1.6307 3.44848e-05
1.63636 3.43619e-05
1.63881 3.43072e-05
1.64127 3.4252e-05
1.64955 3.40935e-05
1.65784 3.39341e-05
1.6663 3.37943e-05
1.67476 3.36447e-05
1.68262 3.35521e-05
1.69048 3.34498e-05
1.69126 3.34398e-05
1.69205 3.34291e-05
1.70087 3.33885e-05
1.7097 3.3337e-05
1.71871 3.33509e-05
1.72772 3.33527e-05
1.73693 3.34082e-05
1.74613 3.34569e-05
1.74806 3.34791e-05
1.75 3.35005e-05
1.75746 3.35832e-05
1.76493 3.36631e-05
1.77453 3.38114e-05
1.78412 3.3962e-05
1.79393 3.41457e-05
1.80373 3.43328e-05
1.80976 3.44628e-05
1.81579 3.45938e-05
1.81977 3.46796e-05
1.82375 3.47662e-05
1.83397 3.50013e-05
1.8442 3.52369e-05
1.85464 3.5492e-05
1.86508 3.57463e-05
1.87574 3.6031e-05
1.8864 3.63155e-05
1.88764 3.63524e-05
1.88889 3.63893e-05
1.89853 3.66745e-05
1.90818 3.69601e-05
1.91929 3.72981e-05
1.93041 3.76389e-05
1.94177 3.79442e-05
1.95312 3.82509e-05
1.96186 3.84817e-05
1.97059 3.87131e-05
1.97345 3.87888e-05
1.97632 3.88648e-05
1.98816 3.9161e-05
2 3.94589e-05
