0 1e-10
0.000963618 0.000450456
0.00192724 0.000933402
0.00290853 0.00113309
0.00388982 0.00136078
0.00488911 0.00144477
0.0058884 0.00156636
0.00690601 0.00157776
0.00792363 0.00164044
0.00895991 0.00161553
0.00999619 0.00164303
0.0110515 0.00159691
0.0121068 0.00158443
0.0131814 0.00152026
0.0142561 0.00146377
0.0153504 0.00140153
0.0164448 0.00133273
0.0175592 0.00130125
0.0186736 0.0012656
0.0198085 0.00126471
0.0209433 0.00126099
0.022099 0.00126628
0.0232547 0.00125071
0.0244316 0.00124716
0.0256084 0.00119466
0.0268069 0.0011928
0.0280054 0.0011269
0.0292258 0.00113131
0.0304462 0.00107974
0.0316891 0.00107415
0.0329319 0.00103153
0.0341975 0.00100604
0.0354631 0.000958934
0.036752 0.000916987
0.0380408 0.000866158
0.0393533 0.000819032
0.0406657 0.000772891
0.0420023 0.000731432
0.0433388 0.000694429
0.0446999 0.000662467
0.0460609 0.000635355
0.047447 0.000611761
0.048833 0.000593325
0.0502444 0.000576298
0.0516559 0.000564573
0.0530932 0.000552607
0.0545305 0.000545729
0.0559942 0.000537987
0.0574579 0.000534612
0.0589484 0.000530404
0.060439 0.000529602
0.0619568 0.000527839
0.0634747 0.000528798
0.0650204 0.000529009
0.0665661 0.000531238
0.0681402 0.000533139
0.0697143 0.000536251
0.0713172 0.000539058
0.0729201 0.000542136
0.0745524 0.00054519
0.0761848 0.000547624
0.077847 0.000550405
0.0795093 0.000552229
0.0812021 0.000554329
0.0828948 0.000555414
0.0846186 0.000556751
0.0863424 0.000556835
0.0880979 0.000557502
0.0898533 0.000556822
0.0916409 0.000556958
0.0934285 0.000555879
0.0952489 0.000555551
0.0970693 0.00055404
0.0989231 0.000553337
0.100777 0.000551548
0.102665 0.000550766
0.104552 0.000549013
0.106475 0.000548364
0.108397 0.000546754
0.110355 0.000546312
0.112313 0.000544933
0.114306 0.000544858
0.1163 0.000543833
0.11833 0.000544237
0.12036 0.000543464
0.122428 0.00054426
0.124495 0.000543501
0.1266 0.000544688
0.128705 0.000543681
0.130849 0.000545293
0.132993 0.000543594
0.135177 0.000545197
0.13736 0.000542457
0.139583 0.000543314
0.141806 0.000539575
0.14407 0.000540342
0.146334 0.000536792
0.14864 0.000538143
0.150946 0.000535702
0.153293 0.000536616
0.155641 0.000534431
0.158032 0.000533773
0.160423 0.00053102
0.162858 0.000528541
0.165293 0.000525263
0.167772 0.000521713
0.170252 0.000517959
0.172776 0.000514022
0.175301 0.000509837
0.177873 0.000505457
0.180444 0.00050075
0.183062 0.000495451
0.185681 0.000489805
0.188347 0.00048321
0.191013 0.000476416
0.193729 0.000468169
0.196444 0.000460118
0.199209 0.000449789
0.201974 0.000440497
0.20479 0.000427636
0.207606 0.000417449
0.210473 0.000402114
0.213341 0.000392092
0.216261 0.000375608
0.219181 0.000367346
0.222155 0.000352606
0.225128 0.000347653
0.228156 0.000337553
0.231184 0.000336156
0.234268 0.000331012
0.237352 0.000332294
0.240492 0.000330567
0.243632 0.000333964
0.24683 0.000334481
0.250028 0.000339445
0.253285 0.000341456
0.256541 0.000346139
0.259857 0.000348474
0.263174 0.000351074
0.266551 0.000353037
0.269928 0.000353118
0.273367 0.000354491
0.276806 0.000352127
0.280308 0.000353015
0.28381 0.000349593
0.287376 0.000350882
0.290942 0.000348476
0.294574 0.000351003
0.298206 0.000350896
0.301904 0.000354965
0.305602 0.000357801
0.309368 0.000363274
0.313135 0.000369103
0.31697 0.000376006
0.320805 0.000384436
0.324711 0.000393039
0.328616 0.000403506
0.332593 0.000413717
0.336571 0.000425416
0.340621 0.000436577
0.344671 0.000448504
0.348795 0.000459021
0.35292 0.000469779
0.35712 0.00047876
0.36132 0.000487769
0.365597 0.000495587
0.369874 0.0005031
0.37423 0.000509778
0.378585 0.000516066
0.383021 0.000521244
0.387456 0.000527456
0.391973 0.000531231
0.39649 0.00053849
0.401089 0.00054093
0.405689 0.000548527
0.410373 0.000549826
0.415057 0.000557337
0.419827 0.000562435
0.424597 0.000571575
0.429454 0.000593183
0.434311 0.000609808
0.439258 0.000674332
0.444204 0.000715745
0.449241 0.000801628
0.454279 0.000879639
0.459408 0.000921835
0.464538 0.000964952
0.469761 0.000956847
0.474985 0.000912116
0.480305 0.000868664
0.485624 0.000794855
0.491041 0.000713848
0.496458 0.000664323
0.501975 0.000600027
0.507491 0.000584525
0.513109 0.000567913
0.518726 0.000570822
0.524447 0.000580863
0.530167 0.000595266
0.535993 0.000619528
0.541818 0.0006394
0.547751 0.000676217
0.553683 0.000707806
0.559724 0.00080638
0.565765 0.000906324
0.571917 0.00121372
0.578069 0.00149799
0.584334 0.00190063
0.590599 0.00215256
0.596979 0.00212371
0.603358 0.00209363
0.609855 0.00179478
0.616352 0.00166185
0.622968 0.00144742
0.629583 0.00124476
0.636321 0.00110012
0.643058 0.000926089
0.649919 0.00088947
0.656779 0.00085485
0.663766 0.000887567
0.670753 0.000899212
0.677867 0.000920853
0.684982 0.000918673
0.692227 0.000900927
0.699473 0.000888204
0.706851 0.000850522
0.714229 0.000850082
0.721742 0.000832591
0.729256 0.00084924
0.736907 0.000856199
0.744558 0.000870272
0.75235 0.000869614
0.760142 0.000845417
0.768076 0.000807733
0.776011 0.000739528
0.784091 0.000688224
0.792171 0.0006382
0.800399 0.000631507
0.808627 0.000641143
0.817006 0.000710119
0.825385 0.000748699
0.833918 0.000777777
0.842451 0.000773853
0.85114 0.000754351
0.85983 0.000755224
0.868678 0.000771743
0.877527 0.000852168
0.886538 0.00102434
0.895549 0.00131033
0.904725 0.00173863
0.913901 0.00214075
0.923246 0.00240814
0.93259 0.00249846
0.942106 0.00231326
0.951622 0.00199045
0.961313 0.00160972
0.971003 0.00125539
0.980872 0.00101981
0.99074 0.000872475
1.00079 0.000758338
1.01084 0.000685963
1.02107 0.000600575
1.03131 0.000531115
1.04173 0.000441849
1.05215 0.000351278
1.06276 0.000281863
1.07337 0.00021262
1.08418 0.00018331
1.09499 0.000157666
1.10599 0.000141299
1.117 0.00013247
1.1282 0.000123035
1.13941 0.000122199
1.15082 0.000126733
1.16224 0.00013993
1.17386 0.000177984
1.18548 0.000224312
1.19731 0.000310881
1.20915 0.000396307
1.2212 0.000469245
1.23325 0.000533366
1.24553 0.000550795
1.2578 0.000561394
1.2703 0.000535944
1.2828 0.00049772
1.29552 0.000412756
1.30825 0.000313743
1.32121 0.00021417
1.33417 0.0001316
1.34737 8.61194e-05
1.36057 5.74806e-05
1.37401 4.38466e-05
1.38745 3.50336e-05
1.40114 3.0973e-05
1.41483 2.83375e-05
1.42877 2.71833e-05
1.4427 2.64664e-05
1.4569 2.62367e-05
1.47109 2.61459e-05
1.48555 2.62918e-05
1.5 2.64767e-05
1.50339 2.65445e-05
1.50679 2.66106e-05
1.5136 2.67364e-05
1.52041 2.68562e-05
1.52046 2.68568e-05
1.5205 2.68574e-05
1.52751 2.69334e-05
1.53451 2.7013e-05
1.53809 2.70489e-05
1.54167 2.70873e-05
1.54524 2.71367e-05
1.54882 2.71837e-05
1.55612 2.72749e-05
1.56343 2.73633e-05
1.56363 2.73656e-05
1.56383 2.73679e-05
1.57109 2.7451e-05
1.57835 2.75303e-05
1.58265 2.75756e-05
1.58696 2.76196e-05
1.59027 2.76561e-05
1.59359 2.76903e-05
1.60137 2.77694e-05
1.60915 2.78449e-05
1.61013 2.78543e-05
1.61111 2.78635e-05
1.61807 2.79318e-05
1.62504 2.79976e-05
1.6307 2.8051e-05
1.63636 2.81036e-05
1.63881 2.81273e-05
1.64127 2.81503e-05
1.64955 2.82295e-05
1.65784 2.83067e-05
1.66031 2.83301e-05
1.66279 2.83534e-05
1.66878 2.84115e-05
1.67476 2.84685e-05
1.68262 2.85463e-05
1.69048 2.86241e-05
1.69126 2.86321e-05
1.69205 2.864e-05
1.70087 2.8734e-05
1.7097 2.8828e-05
1.7146 2.88824e-05
1.71951 2.89367e-05
1.72362 2.8983e-05
1.72772 2.90287e-05
1.73693 2.91331e-05
1.74613 2.92363e-05
1.74806 2.92586e-05
1.75 2.92809e-05
1.75746 2.9368e-05
1.76493 2.94549e-05
1.77349 2.95629e-05
1.78205 2.96727e-05
1.78309 2.9686e-05
1.78412 2.96995e-05
1.79393 2.98438e-05
1.80373 2.99929e-05
1.80976 3.00968e-05
1.81579 3.02043e-05
1.81977 3.02749e-05
1.82375 3.03479e-05
1.83397 3.05531e-05
1.8442 3.07664e-05
1.84777 3.08458e-05
1.85135 3.09269e-05
1.85821 3.10821e-05
1.86508 3.124e-05
1.87574 3.14973e-05
1.8864 3.17575e-05
1.88764 3.17888e-05
1.88889 3.18202e-05
1.89853 3.20644e-05
1.90818 3.231e-05
1.91837 3.25702e-05
1.92857 3.28323e-05
1.92949 3.2856e-05
1.93041 3.28798e-05
1.94177 3.31568e-05
1.95312 3.34357e-05
1.96186 3.36469e-05
1.97059 3.38587e-05
1.97345 3.39286e-05
1.97632 3.3999e-05
1.98816 3.4278e-05
2 3.4559e-05
