# kMean  POINT_DATA 63140
# x  y  z  kMean
0 0.1 0 0.00375
0 0.1 -0.0179898 0.00375
0 0.1 0.0179898 0.00375
0.0363518 0.1 0.0179898 0.00374795
0.0363518 0.1 -0.0179898 0.003748
0 0.1 -0.0570102 0.00375
0 0.1 0.0570102 0.00375
0.0363518 0.1 0.0570102 0.00374795
0.0363518 0.1 -0.0570102 0.003748
0 0.1 -0.075 0.00375
0 0.1 0.075 0.00375
0.075776 0.1 -0.0375 0.00374559
0.075776 0.1 0.0375 0.00374547
0 0.1 -0.0929898 0.00375
0 0.1 0.0929898 0.00375
0.0363518 0.1 -0.0929898 0.00374824
0.0363518 0.1 0.0929898 0.00374808
0 0.1 -0.13201 0.00375
0 0.1 0.13201 0.00375
0.075776 0.1 -0.1125 0.00374608
0.075776 0.1 0.1125 0.00374574
0.0363518 0.1 -0.13201 0.00374824
0.0363518 0.1 0.13201 0.00374808
0 0.1 -0.15 0.00375
0 0.1 0.15 0.00375
0.150379 0.1 -2.22623e-17 0.00373977
0 0.1 -0.16799 0.00375
0 0.1 0.16799 0.00375
0.150379 0.1 -0.075 0.00374041
0.150379 0.1 0.075 0.00373982
0.0363518 0.1 -0.16799 0.00374851
0.0363518 0.1 0.16799 0.00374835
0.075776 0.1 -0.1875 0.00374663
0.075776 0.1 0.1875 0.00374631
0 0.1 -0.20701 0.00375
0 0.1 0.20701 0.00375
0.0363518 0.1 -0.20701 0.00374851
0.0363518 0.1 0.20701 0.00374835
0.150379 0.1 -0.15 0.00374129
0.150379 0.1 0.15 0.00374052
0.219993 0.1 -0.0375 0.00373456
0.219993 0.1 0.0375 0.00373398
0 0.1 -0.225 0.00375
0 0.1 0.225 0.00375
0 0.1 -0.24299 0.00375
0 0.1 0.24299 0.00375
0.0363518 0.1 0.24299 0.00374868
0.0363518 0.1 -0.24299 0.00374875
0.219993 0.1 -0.1125 0.00373589
0.219993 0.1 0.1125 0.00373463
0.150379 0.1 -0.225 0.0037421
0.150379 0.1 0.225 0.00374148
0.075776 0.1 -0.2625 0.00374712
0.075776 0.1 0.2625 0.00374698
0 0.1 -0.28201 0.00375
0 0.1 0.28201 0.00375
0.0363518 0.1 -0.28201 0.00374875
0.0363518 0.1 0.28201 0.00374868
0.287374 0.1 -2.89121e-19 0.00372797
0.219992 0.1 0.1875 0.00373591
0.219992 0.1 -0.1875 0.00373702
0.287374 0.1 -0.075 0.0037291
0.287374 0.1 0.075 0.00372785
0 0.1 -0.3 0.00375
0 0.1 0.3 0.00375
0 0.1 0.31799 0.00375
0 0.1 -0.31799 0.00375
0.0363518 0.1 -0.31799 0.00374898
0.0363518 0.1 0.31799 0.00374896
0.287374 0.1 0.15 0.00372878
0.287374 0.1 -0.15 0.0037305
0.150379 0.1 -0.3 0.00374287
0.150379 0.1 0.3 0.00374245
0.219993 0.1 0.2625 0.00373719
0.219993 0.1 -0.2625 0.00373808
0.075776 0.1 -0.3375 0.00374761
0.075776 0.1 0.3375 0.00374757
0.350249 0.1 -0.0375 0.0037224
0.350249 0.1 0.0375 0.00372145
0 0.1 -0.35701 0.00375
0 0.1 0.35701 0.00375
0.0363518 0.1 -0.35701 0.00374898
0.0363518 0.1 0.35701 0.00374896
0.287374 0.1 -0.225 0.00373174
0.287374 0.1 0.225 0.00373017
0.350249 0.1 -0.1125 0.00372405
0.350249 0.1 0.1125 0.00372186
0 0.1 -0.375 0.00375
0 0.1 0.375 0.00375
0 0.1 -0.39299 0.00375
0 0.1 0.39299 0.00375
0.0363518 0.1 -0.39299 0.00374922
0.0363518 0.1 0.39299 0.00374922
0.350249 0.1 -0.1875 0.00372553
0.350249 0.1 0.1875 0.00372325
0.219992 0.1 -0.3375 0.00373908
0.219992 0.1 0.3375 0.00373848
0.150379 0.1 0.375 0.00374329
0.150379 0.1 -0.375 0.00374348
0.411108 0.1 4.33681e-19 0.00371738
0.287374 0.1 -0.3 0.00373284
0.287374 0.1 0.3 0.0037316
0.411108 0.1 -0.075 0.00371875
0.411108 0.1 0.075 0.00371695
0.075776 0.1 -0.4125 0.00374811
0.075776 0.1 0.4125 0.00374811
0 0.1 0.43201 0.00375
0 0.1 -0.43201 0.00375
0.0363518 0.1 0.43201 0.00374922
0.0363518 0.1 -0.43201 0.00374922
0.411108 0.1 -0.15 0.00372035
0.411108 0.1 0.15 0.00371767
0.350249 0.1 -0.2625 0.0037268
0.350249 0.1 0.2625 0.00372487
0 0.1 -0.45 0.00375
0 0.1 0.45 0.00375
0.219992 0.1 0.4125 0.0037394
0.219992 0.1 -0.4125 0.0037395
0 0.1 -0.46799 0.00375
0 0.1 0.46799 0.00375
0.411108 0.1 -0.225 0.00372173
0.411108 0.1 0.225 0.00371908
0.467897 0.1 -0.0375 0.00371358
0.467897 0.1 0.0375 0.00371241
0.0363518 0.1 0.46799 0.00374948
0.0363518 0.1 -0.46799 0.00374949
0.287374 0.1 -0.375 0.00373364
0.287374 0.1 0.375 0.00373283
0.150379 0.1 0.45 0.00374388
0.150379 0.1 -0.45 0.003744
0.467897 0.1 0.1125 0.00371241
0.467897 0.1 -0.1125 0.00371527
0.350249 0.1 -0.3375 0.00372785
0.350249 0.1 0.3375 0.00372636
0.075776 0.1 -0.4875 0.00374866
0.075776 0.1 0.4875 0.00374864
0.467897 0.1 0.1875 0.0037135
0.467897 0.1 -0.1875 0.00371683
0 0.1 -0.50701 0.00375
0 0.1 0.50701 0.00375
0.0363518 0.1 -0.50701 0.00374949
0.0363518 0.1 0.50701 0.00374948
0.411108 0.1 0.3 0.00372062
0.411108 0.1 -0.3 0.00372285
0.522865 0.1 1.41031e-17 0.00371076
0 0.1 -0.525 0.00375
0 0.1 0.525 0.00375
0.522865 0.1 -0.075 0.00371217
0.522865 0.1 0.075 0.00371004
0.287374 0.1 0.45 0.00373364
0.287374 0.1 -0.45 0.00373426
0.219992 0.1 0.4875 0.00373978
0.219992 0.1 -0.4875 0.00374014
0.467897 0.1 -0.2625 0.00371806
0.467897 0.1 0.2625 0.00371504
0.350249 0.1 -0.4125 0.00372856
0.350249 0.1 0.4125 0.00372755
0 0.1 -0.54299 0.00375
0 0.1 0.54299 0.00375
0.522865 0.1 0.15 0.00371036
0.522865 0.1 -0.15 0.00371371
0.0363518 0.1 0.54299 0.00374975
0.0363518 0.1 -0.54299 0.00374976
0.150379 0.1 -0.525 0.00374466
0.150379 0.1 0.525 0.00374443
0.411108 0.1 -0.375 0.00372367
0.411108 0.1 0.375 0.00372195
0.075776 0.1 -0.5625 0.00374922
0.075776 0.1 0.5625 0.00374919
0.522865 0.1 -0.225 0.00371497
0.522865 0.1 0.225 0.00371144
0.574156 0.1 0.0375 0.00370791
0.574157 0.1 -0.0375 0.00370918
0.467897 0.1 -0.3375 0.00371898
0.467897 0.1 0.3375 0.00371653
0 0.1 -0.58201 0.00375
0 0.1 0.58201 0.00375
0.0363518 0.1 -0.58201 0.00374976
0.0363518 0.1 0.58201 0.00374975
0.574157 0.1 -0.1125 0.00371072
0.574157 0.1 0.1125 0.00370751
0.287374 0.1 -0.525 0.00373502
0.287374 0.1 0.525 0.00373427
0 0.1 -0.6 0.00375
0 0.1 0.6 0.00375
0.350249 0.1 0.4875 0.00372828
0.350249 0.1 -0.4875 0.00372928
0.522865 0.1 -0.3 0.00371587
0.522865 0.1 0.3 0.00371278
0.219992 0.1 -0.5625 0.00374101
0.219992 0.1 0.5625 0.0037405
0.574156 0.1 -0.1875 0.00371207
0.574156 0.1 0.1875 0.00370809
0.411108 0.1 0.45 0.00372289
0.411108 0.1 -0.45 0.0037243
0 0.1 -0.61799 0.00375
0 0.1 0.61799 0.00375
0.150379 0.1 -0.6 0.00374536
0.150379 0.1 0.6 0.00374509
0.0363518 0.1 -0.61799 0.00375003
0.0363518 0.1 0.61799 0.00375001
0.467897 0.1 -0.4125 0.00371957
0.467897 0.1 0.4125 0.00371769
0.623803 0.1 2.34188e-17 0.00370852
0.623803 0.1 0.075 0.00370759
0.623803 0.1 -0.075 0.00370986
0.574156 0.1 0.2625 0.00370922
0.574156 0.1 -0.2625 0.00371301
0.623803 0.1 0.15 0.00370744
0.623803 0.1 -0.15 0.00371113
0.075776 0.1 0.6375 0.00374973
0.075776 0.1 -0.6375 0.00374977
0.522865 0.1 -0.375 0.0037164
0.522865 0.1 0.375 0.00371395
0 0.1 0.65701 0.00375
0 0.1 -0.65701 0.00375
0.0363518 0.1 0.65701 0.00375001
0.0363518 0.1 -0.65701 0.00375003
0.350249 0.1 0.5625 0.00372897
0.350249 0.1 -0.5625 0.00373011
0.623803 0.1 0.225 0.003708
0.623803 0.1 -0.225 0.00371205
0.287374 0.1 -0.6 0.00373585
0.287374 0.1 0.6 0.00373502
0.574157 0.1 -0.3375 0.00371353
0.574157 0.1 0.3375 0.00371044
0.411108 0.1 0.525 0.00372354
0.411108 0.1 -0.525 0.00372495
0.67013 0.1 0.0375 0.00370777
0.67013 0.1 -0.0375 0.00370905
0.219992 0.1 -0.6375 0.00374182
0.219993 0.1 0.6375 0.00374133
0 0.1 -0.675 0.00375
0 0.1 0.675 0.00375
0.467897 0.1 -0.4875 0.00372009
0.467897 0.1 0.4875 0.00371839
0.67013 0.1 -0.1125 0.00371032
0.67013 0.1 0.1125 0.00370701
0.522865 0.1 0.45 0.0037147
0.522865 0.1 -0.45 0.00371667
0.150379 0.1 0.675 0.00374577
0.150379 0.1 -0.675 0.003746
0.623803 0.1 0.3 0.00370888
0.623803 0.1 -0.3 0.00371249
0 0.1 -0.69299 0.00375
0 0.1 0.69299 0.00375
0.0363518 0.1 -0.69299 0.00375027
0.0363518 0.1 0.69299 0.00375027
0.67013 0.1 -0.1875 0.00371126
0.67013 0.1 0.1875 0.00370703
0.574156 0.1 0.4125 0.00371127
0.574157 0.1 -0.4125 0.00371363
0.714971 0.1 -2.8382e-17 0.00371039
0.075776 0.1 -0.7125 0.00375027
0.075776 0.1 0.7125 0.00375027
0.714971 0.1 -0.075 0.00371155
0.714971 0.1 0.075 0.00370932
0.67013 0.1 0.2625 0.00370757
0.67013 0.1 -0.2625 0.00371171
0.411108 0.1 -0.6 0.00372561
0.411108 0.1 0.6 0.00372413
0.350249 0.1 0.6375 0.00372974
0.350249 0.1 -0.6375 0.00373091
0.623803 0.1 0.375 0.00370963
0.623803 0.1 -0.375 0.00371245
0.714971 0.1 -0.15 0.00371243
0.714971 0.1 0.15 0.00370873
0.467897 0.1 -0.5625 0.00372062
0.467897 0.1 0.5625 0.00371884
0 0.1 -0.73201 0.00375
0 0.1 0.73201 0.00375
0.0363518 0.1 0.73201 0.00375027
0.0363518 0.1 -0.73201 0.00375027
0.287374 0.1 -0.675 0.00373661
0.287374 0.1 0.675 0.00373582
0.522865 0.1 -0.525 0.00371685
0.522865 0.1 0.525 0.00371503
0.219993 0.1 -0.7125 0.00374252
0.219992 0.1 0.7125 0.00374211
0.714971 0.1 -0.225 0.00371282
0.714971 0.1 0.225 0.00370869
0 0.1 0.75 0.00375
0 0.1 -0.75 0.00375
0.67013 0.1 -0.3375 0.00371159
0.67013 0.1 0.3375 0.0037082
0.574156 0.1 -0.4875 0.00371352
0.574157 0.1 0.4875 0.00371158
0.756813 0.1 0.0375 0.0037116
0.756814 0.1 -0.0375 0.00371279
0.150379 0.1 0.746002 0.00374644
0.150379 0.1 -0.75 0.00374657
0.756813 0.1 -0.1125 0.00371371
0.756813 0.1 0.1125 0.00371056
0 0.1 0.76799 0.00375
0 0.1 -0.76799 0.00375
0.0363518 0.1 0.76799 0.0037505
0.0363518 0.1 -0.76799 0.00375048
0.623803 0.1 -0.45 0.00371206
0.623803 0.1 0.45 0.00370991
0.714971 0.1 -0.3 0.00371262
0.714971 0.1 0.3 0.00370891
0.756814 0.1 -0.1875 0.00371412
0.756814 0.1 0.1875 0.00371
0.67013 0.1 -0.4125 0.00371098
0.67013 0.1 0.4125 0.00370851
0.411108 0.1 0.675 0.00372477
0.411108 0.1 -0.675 0.00372619
0.467897 0.1 0.6375 0.0037193
0.467897 0.1 -0.6375 0.00372111
0.075776 0.1 0.7875 0.00375074
0.075776 0.1 -0.7875 0.0037507
0.350249 0.1 -0.7125 0.00373161
0.350249 0.1 0.7125 0.00373055
0.522865 0.1 -0.6 0.00371699
0.522865 0.1 0.6 0.00371515
0.797314 0.1 -3.59473e-17 0.00371594
0.287374 0.1 0.746002 0.00373665
0.797314 0.1 -0.075 0.00371686
0.797314 0.1 0.075 0.00371481
0.756814 0.1 -0.2625 0.00371389
0.756814 0.1 0.2625 0.00370987
0.287374 0.1 -0.75 0.00373726
0.574156 0.1 -0.5625 0.00371333
0.574156 0.1 0.5625 0.00371145
0 0.1 0.80701 0.00375
0 0.1 -0.80701 0.00375
0.714971 0.1 -0.375 0.00371182
0.714971 0.1 0.375 0.00370902
0.0363518 0.1 0.80701 0.0037505
0.0363518 0.1 -0.80701 0.00375048
0.797314 0.1 -0.15 0.00371726
0.797314 0.1 0.15 0.00371382
0.623803 0.1 -0.525 0.00371147
0.623803 0.1 0.525 0.00370967
0.219992 0.1 0.7875 0.00374282
0.219992 0.1 -0.7875 0.00374313
0.149792 0.1 0.80701 0.00374683
0 0.1 0.825 0.00375
0 0.1 -0.825 0.00375
0.797314 0.1 -0.225 0.00371701
0.797314 0.1 0.225 0.00371315
0.756813 0.1 -0.3375 0.00371299
0.756813 0.1 0.3375 0.00370974
0.67013 0.1 0.4875 0.00370824
0.67013 0.1 -0.4875 0.00371006
0.835106 0.1 -0.0375 0.00371996
0.835106 0.1 0.0375 0.00371892
0.150379 0.1 -0.825 0.00374706
0.835106 0.1 -0.1125 0.00372048
0.835106 0.1 0.1125 0.00371766
0 0.1 -0.84299 0.00375
0 0.1 0.84299 0.00375
0.0363518 0.1 -0.84299 0.00375066
0.0363518 0.1 0.84299 0.00375069
0.714971 0.1 -0.45 0.00371057
0.714971 0.1 0.45 0.00370867
0.411108 0.1 0.746002 0.00372548
0.797314 0.1 -0.3 0.00371604
0.797314 0.1 0.3 0.00371264
0.467897 0.1 -0.7125 0.00372146
0.467897 0.1 0.7125 0.00371983
0.522865 0.1 0.675 0.00371528
0.522865 0.1 -0.675 0.00371704
0.411108 0.1 -0.75 0.00372665
0.835106 0.1 -0.1875 0.00372028
0.835107 0.1 0.1875 0.00371657
0.286844 0.1 0.80701 0.00373714
0.574156 0.1 0.6375 0.0037112
0.574157 0.1 -0.6375 0.00371307
0.350249 0.1 -0.7875 0.00373223
0.350249 0.1 0.7875 0.00373132
0.756813 0.1 -0.4125 0.00371148
0.756814 0.1 0.4125 0.00370937
0.623803 0.1 -0.6 0.00371075
0.623803 0.1 0.6 0.00370907
0.075776 0.1 0.8625 0.00375113
0.075776 0.1 -0.8625 0.00375108
0.871687 0.1 -3.2767e-18 0.00372463
0.287374 0.1 -0.825 0.00373782
0.871687 0.1 -0.075 0.00372524
0.871687 0.1 0.075 0.00372349
0.67013 0.1 -0.5625 0.00370893
0.67013 0.1 0.5625 0.0037074
0.835106 0.1 0.2625 0.00371572
0.835106 0.1 -0.2625 0.00371929
0.797314 0.1 -0.375 0.00371436
0.797314 0.1 0.375 0.00371196
0 0.1 -0.88201 0.00375
0 0.1 0.88201 0.00375
0.0363518 0.1 0.88201 0.00375069
0.0363518 0.1 -0.88201 0.00375066
0.871687 0.1 0.15 0.00372215
0.871687 0.1 -0.15 0.00372511
0.714971 0.1 0.525 0.00370769
0.714971 0.1 -0.525 0.003709
0.219993 0.1 0.8625 0.00374342
0.219992 0.1 -0.8625 0.00374365
0 0.1 0.9 0.00375
0 0.1 -0.9 0.00375
0.756813 0.1 0.4875 0.00370832
0.756814 0.1 -0.4875 0.00370954
0.871687 0.1 0.225 0.00372088
0.871687 0.1 -0.225 0.00372415
0.835106 0.1 -0.3375 0.00371758
0.835106 0.1 0.3375 0.00371479
0.41063 0.1 0.80701 0.00372589
0.90582 0.1 -0.0375 0.00372994
0.905821 0.1 0.0375 0.00372909
0.522865 0.1 0.746002 0.00371551
0.150379 0.1 0.9 0.00374739
0.90582 0.1 0.1125 0.00372769
0.905821 0.1 -0.1125 0.00372999
0.522865 0.1 -0.75 0.00371696
0.574156 0.1 0.7125 0.00371099
0.574156 0.1 -0.7125 0.00371272
0.797314 0.1 -0.45 0.00371207
0.797314 0.1 0.45 0.00371082
0.467897 0.1 -0.7875 0.00372165
0.467897 0.1 0.7875 0.00372033
0.150379 0.1 -0.903998 0.00374734
0 0.1 0.91799 0.00375
0 0.1 -0.91799 0.00375
0.0363518 0.1 0.91799 0.00375084
0.0363518 0.1 -0.91799 0.00375081
0.623803 0.1 0.675 0.00370836
0.623803 0.1 -0.675 0.00370993
0.411108 0.1 -0.825 0.00372698
0.871687 0.1 0.3 0.00371959
0.871687 0.1 -0.3 0.00372234
0.67013 0.1 -0.6375 0.00370766
0.67013 0.1 0.6375 0.00370624
0.90582 0.1 -0.1875 0.00372913
0.90582 0.1 0.1875 0.00372611
0.350249 0.1 0.8625 0.00373199
0.350249 0.1 -0.8625 0.00373271
0.835106 0.1 -0.4125 0.003715
0.835106 0.1 0.4125 0.00371354
0.714971 0.1 -0.6 0.00370722
0.714971 0.1 0.6 0.0037062
0.93886 0.1 -1.15648e-17 0.00373613
0.075776 0.1 0.9375 0.00375146
0.075776 0.1 -0.9375 0.00375139
0.93886 0.1 0.075 0.00373502
0.93886 0.1 -0.075 0.00373641
0.756813 0.1 0.5625 0.00370659
0.756814 0.1 -0.5625 0.0037073
0.905821 0.1 -0.2625 0.00372734
0.905821 0.1 0.2625 0.00372453
0.287374 0.1 0.9 0.00373785
0.287374 0.1 -0.903998 0.0037381
0.871687 0.1 0.375 0.00371803
0.871687 0.1 -0.375 0.00371968
0.93886 0.1 -0.15 0.00373575
0.93886 0.1 0.15 0.0037334
0.797314 0.1 0.525 0.00370897
0.797314 0.1 -0.525 0.00370937
0 0.1 0.95701 0.00375
0 0.1 -0.95701 0.00375
0.0363518 0.1 0.95701 0.00375084
0.0363518 0.1 -0.95701 0.00375081
0.522433 0.1 0.80701 0.00371556
0.219992 0.1 0.9375 0.0037439
0.219992 0.1 -0.9375 0.00374404
0.93886 0.1 0.225 0.00373155
0.93886 0.1 -0.225 0.00373407
0.90582 0.1 0.3375 0.00372276
0.905821 0.1 -0.3375 0.00372463
0.835106 0.1 -0.4875 0.00371191
0.835107 0.1 0.4875 0.00371165
0.969689 0.1 -0.0375 0.00374272
0.969689 0.1 0.0375 0.00374208
0.61613 0.1 0.75 0.00370767
0.574156 0.1 -0.7875 0.00371227
0.574156 0.1 0.7875 0.00371081
0 0.1 0.975 0.00375
0 0.1 -0.975 0.00375
0.623803 0.1 -0.75 0.00370902
0.969689 0.1 -0.1125 0.00374233
0.969689 0.1 0.1125 0.00374055
0.522865 0.1 -0.825 0.00371678
0.67013 0.1 0.7125 0.00370504
0.67013 0.1 -0.7125 0.00370631
0.871687 0.1 -0.45 0.00371627
0.871687 0.1 0.45 0.00371599
0.467897 0.1 0.8625 0.00372073
0.467897 0.1 -0.8625 0.00372172
0.714971 0.1 -0.675 0.00370529
0.714971 0.1 0.675 0.00370447
0.93886 0.1 -0.3 0.00373139
0.93886 0.1 0.3 0.00372951
0.150379 0.1 0.975 0.00374774
0.150379 0.1 -0.975 0.00374775
0.969689 0.1 -0.1875 0.00374087
0.969689 0.1 0.1875 0.00373856
0.411108 0.1 0.9 0.00372646
0.756813 0.1 0.6375 0.00370441
0.756814 0.1 -0.6375 0.00370485
0.990306 0.1 -2.19732e-17 0.00374373
0 0.1 0.99299 0.00375
0 0.1 -0.99299 0.00375
0.411108 0.1 -0.903998 0.00372706
0.990306 0.1 -0.075 0.00374379
0.990306 0.1 0.075 0.00374267
0.0363518 0.1 0.99299 0.00375096
0.0363518 0.1 -0.99299 0.00375092
0.90582 0.1 -0.4125 0.003721
0.905821 0.1 0.4125 0.00372052
0.797314 0.1 -0.6 0.00370638
0.797314 0.1 0.6 0.00370648
0.350249 0.1 0.9375 0.00373253
0.350249 0.1 -0.9375 0.00373305
0.990306 0.1 0.15 0.00374086
0.990306 0.1 -0.15 0.00374275
0.969689 0.1 -0.2625 0.00373831
0.969689 0.1 0.2625 0.00373632
0.835106 0.1 -0.5625 0.00370843
0.835106 0.1 0.5625 0.00370895
0.93886 0.1 -0.375 0.0037277
0.93886 0.1 0.375 0.00372709
0.075776 0.1 1.0125 0.00375169
0.075776 0.1 -1.0125 0.00375161
0.990306 0.1 -0.225 0.00374059
0.990306 0.1 0.225 0.00373862
0.287374 0.1 0.975 0.00373829
0.287374 0.1 -0.975 0.00373854
0.871687 0.1 -0.525 0.00371232
0.871687 0.1 0.525 0.00371321
1.02149 0.1 -0.0369628 0.00375142
1.02149 0.1 0.0369628 0.00375096
0.969689 0.1 -0.3375 0.00373466
0.969689 0.1 0.3375 0.00373378
1.02149 0.1 -0.110888 0.00375074
1.02149 0.1 0.110888 0.00374945
0.90582 0.1 0.4875 0.00371776
0.90582 0.1 -0.4875 0.0037167
0.623803 0.1 0.819003 0.00370673
0 0.1 1.03201 0.00375
0 0.1 -1.03201 0.00375
0.0363518 0.1 1.03201 0.00375096
0.0363518 0.1 -1.03201 0.00375092
0.67013 0.1 -0.7875 0.00370488
0.67013 0.1 0.7875 0.00370391
0.623803 0.1 -0.825 0.00370802
0.990306 0.1 -0.3 0.00373731
0.990306 0.1 0.3 0.00373605
0.219992 0.1 -1.0125 0.0037443
0.219993 0.1 1.0125 0.00374427
0.574156 0.1 0.8625 0.00371064
0.574157 0.1 -0.8625 0.00371173
0.714971 0.1 -0.75 0.00370327
0.714971 0.1 0.75 0.0037027
1.02149 0.1 0.184814 0.00374722
1.02149 0.1 -0.184814 0.00374889
0.756814 0.1 -0.7125 0.00370225
0.756814 0.1 0.7125 0.00370205
0.522865 0.1 0.9 0.00371563
0.93886 0.1 -0.45 0.00372306
0.93886 0.1 0.45 0.00372413
1.04168 0.1 0 0.00375629
1.04168 0.1 -0.0729162 0.0037561
1.04168 0.1 0.0729162 0.00375534
0.522865 0.1 -0.903998 0.0037164
0.797314 0.1 -0.675 0.00370318
0.797314 0.1 0.675 0.00370361
0.467897 0.1 0.9375 0.003721
0.467897 0.1 -0.9375 0.00372166
0 0.1 1.05 0.00375
0 0.1 -1.05 0.00375
0.835106 0.1 -0.6375 0.00370467
0.835106 0.1 0.6375 0.00370565
1.04168 0.1 -0.145832 0.00375475
1.04168 0.1 0.145832 0.00375343
1.02149 0.1 -0.25874 0.00374587
1.02149 0.1 0.25874 0.00374453
0.969689 0.1 -0.4125 0.00372993
0.969689 0.1 0.4125 0.00373066
0.411108 0.1 0.975 0.00372679
0.411108 0.1 -0.975 0.00372725
0.871687 0.1 -0.6 0.00370794
0.871687 0.1 0.6 0.00370962
1.0579 0.1 -0.0360525 0.00376096
1.0579 0.1 0.0360525 0.00376063
0.990306 0.1 -0.375 0.00373289
0.990306 0.1 0.375 0.00373301
0.150379 0.1 1.05 0.003748
0.150379 0.1 -1.05 0.00374795
1.0579 0.1 0.108157 0.00375916
1.0579 0.1 -0.108157 0.00376012
1.04168 0.1 -0.218749 0.0037522
1.04168 0.1 0.218749 0.00375087
0.90582 0.1 -0.5625 0.00371181
0.90582 0.1 0.5625 0.003714
0 0.1 -1.06799 0.00375
0 0.1 1.06799 0.00375
0.0363518 0.1 -1.06799 0.00375099
0.0363518 0.1 1.06799 0.00375104
0.350249 0.1 1.0125 0.00373293
0.350249 0.1 -1.0125 0.00373324
1.0579 0.1 -0.180262 0.00375808
1.0579 0.1 0.180262 0.00375686
1.02149 0.1 -0.332665 0.00374165
1.02149 0.1 0.332665 0.00374142
0.93886 0.1 -0.525 0.0037177
0.93886 0.1 0.525 0.00372032
1.08012 0.1 5.49329e-18 0.00376722
1.04168 0.1 -0.291665 0.00374844
1.04168 0.1 0.291665 0.00374783
1.08012 0.1 0.0709941 0.00376636
1.08012 0.1 -0.0709941 0.0037669
0.969689 0.1 -0.4875 0.00372405
0.96969 0.1 0.4875 0.00372699
1.0579 0.1 0.252367 0.00375396
1.0579 0.1 -0.252367 0.00375483
0.990306 0.1 -0.45 0.00372729
0.990306 0.1 0.45 0.0037294
0.287374 0.1 -1.05 0.00373871
0.287374 0.1 1.05 0.00373862
0.714971 0.1 0.821002 0.00370107
1.08012 0.1 -0.141988 0.00376538
1.08012 0.1 0.141988 0.00376445
0.075776 0.1 1.0875 0.00375186
0.075776 0.1 -1.0875 0.00375177
0.714971 0.1 -0.825 0.00370116
0.756813 0.1 -0.7875 0.00369958
0.756814 0.1 0.7875 0.00369972
0.67013 0.1 -0.8625 0.00370333
0.67013 0.1 0.8625 0.00370281
0.797314 0.1 -0.75 0.00369983
0.797314 0.1 0.75 0.00370061
0.623803 0.1 0.9 0.00370636
0.835106 0.1 -0.7125 0.00370071
0.835106 0.1 0.7125 0.00370205
0.623803 0.1 -0.903998 0.00370696
0.574156 0.1 0.9375 0.00371044
0.574156 0.1 -0.9375 0.00371107
1.02149 0.1 -0.406591 0.00373621
1.02149 0.1 0.406591 0.0037377
1.08012 0.1 -0.212982 0.00376265
1.08012 0.1 0.212982 0.00376178
1.10076 0.1 -0.0349809 0.00377338
1.10076 0.1 0.0349809 0.00377318
0.871687 0.1 -0.675 0.00370327
0.871687 0.1 0.675 0.0037055
1.04168 0.1 -0.364581 0.00374342
1.04168 0.1 0.364581 0.00374425
1.10076 0.1 -0.104943 0.00377241
1.10076 0.1 0.104943 0.00377174
0.522865 0.1 0.975 0.0037156
0.522865 0.1 -0.975 0.00371604
1.0579 0.1 -0.324472 0.00375032
1.0579 0.1 0.324472 0.00375057
0 0.1 -1.10701 0.00375
0 0.1 1.10701 0.00375
0.0363518 0.1 1.10701 0.00375104
0.0363518 0.1 -1.10701 0.00375099
0.90582 0.1 0.6375 0.00370944
0.905821 0.1 -0.6375 0.00370649
0.219992 0.1 1.0875 0.00374452
0.219992 0.1 -1.0875 0.00374445
0.93886 0.1 0.6 0.00371551
0.93886 0.1 -0.6 0.00371187
1.10076 0.1 -0.174905 0.00377022
1.10076 0.1 0.174905 0.00376936
0.467897 0.1 1.0125 0.00372111
0.467897 0.1 -1.0125 0.00372147
1.08012 0.1 -0.283976 0.00375866
1.08012 0.1 0.283976 0.00375851
1.11928 0.1 3.93204e-18 0.0037789
0.990306 0.1 -0.525 0.00372088
0.990306 0.1 0.525 0.00372481
0.96969 0.1 -0.5625 0.00371772
0.969689 0.1 0.5625 0.00372196
1.11928 0.1 -0.0690357 0.00377847
1.11928 0.1 0.0690357 0.00377812
0 0.1 1.125 0.00375
0 0.1 -1.125 0.00375
0.411108 0.1 -1.05 0.0037272
0.411108 0.1 1.05 0.00372699
1.10076 0.1 0.244866 0.00376628
1.10076 0.1 -0.244866 0.00376679
1.11928 0.1 -0.138072 0.00377685
1.11928 0.1 0.138072 0.00377623
1.02149 0.1 0.480517 0.00373335
1.02149 0.1 -0.480517 0.00372942
1.0579 0.1 -0.396577 0.00374449
1.0579 0.1 0.396577 0.00374655
1.04168 0.1 -0.437497 0.00373703
1.04168 0.1 0.437497 0.00374003
0.150379 0.1 1.125 0.00374817
0.150379 0.1 -1.125 0.00374807
0.714971 0.1 0.88201 0.00369865
1.08012 0.1 0.354971 0.00375466
1.08012 0.1 -0.354971 0.00375335
1.11928 0.1 -0.207107 0.00377401
1.11928 0.1 0.207107 0.00377348
0.350249 0.1 -1.0875 0.00373331
0.350249 0.1 1.0875 0.00373321
0 0.1 1.14299 0.00375
0 0.1 -1.14299 0.00375
0.0363518 0.1 1.14299 0.00375109
0.0363518 0.1 -1.14299 0.00375104
1.14316 0.1 -0.0339211 0.0037866
1.14316 0.1 0.0339211 0.00378651
0.797314 0.1 0.821002 0.0036978
1.10076 0.1 -0.314829 0.00376207
1.10076 0.1 0.314829 0.00376261
0.797314 0.1 -0.825 0.0036964
0.756814 0.1 -0.8625 0.00369684
0.756814 0.1 0.8625 0.00369747
1.14316 0.1 -0.101763 0.00378553
1.14316 0.1 0.101763 0.00378518
0.835106 0.1 -0.7875 0.00369659
0.835106 0.1 0.7875 0.00369839
0.871687 0.1 -0.75 0.00369843
0.871687 0.1 0.75 0.00370112
0.67013 0.1 0.9375 0.00370171
0.67013 0.1 -0.9375 0.00370178
0.90582 0.1 -0.7125 0.00370088
0.905821 0.1 0.7125 0.00370445
0.714971 0.1 -0.903998 0.00369915
1.11928 0.1 0.276143 0.00377005
1.11928 0.1 -0.276143 0.00376989
1.14316 0.1 0.169605 0.00378283
1.14316 0.1 -0.169605 0.00378325
0.93886 0.1 -0.675 0.00370573
0.93886 0.1 0.675 0.00371007
1.15704 0.1 0 0.00379089
1.0579 0.1 0.468682 0.00374184
1.0579 0.1 -0.468682 0.00373721
0.623803 0.1 0.975 0.00370569
0.623803 0.1 -0.975 0.0037058
0.990306 0.1 0.6 0.00371911
0.990306 0.1 -0.6 0.00371404
1.15704 0.1 -0.0671479 0.00379037
1.15704 0.1 0.0671479 0.00379019
1.04168 0.1 -0.510414 0.0037298
1.04168 0.1 0.510414 0.00373488
0.969689 0.1 -0.6375 0.003711
0.969689 0.1 0.6375 0.00371612
1.08012 0.1 0.425965 0.00375013
1.08012 0.1 -0.425965 0.00374655
0.287374 0.1 -1.125 0.00373877
0.287374 0.1 1.125 0.00373882
1.02149 0.1 -0.554443 0.00372228
1.02149 0.1 0.554443 0.00372772
0.574156 0.1 1.0125 0.00371014
0.574156 0.1 -1.0125 0.00371028
1.15704 0.1 -0.134296 0.0037887
1.15704 0.1 0.134296 0.00378834
0.075776 0.1 1.1625 0.00375197
0.075776 0.1 -1.1625 0.00375187
1.10076 0.1 -0.384791 0.00375591
1.10076 0.1 0.384791 0.00375829
1.14316 0.1 -0.237448 0.00377973
1.14316 0.1 0.237448 0.00377967
1.11928 0.1 -0.345179 0.00376438
1.11928 0.1 0.345179 0.00376598
0.522865 0.1 1.05 0.00371544
0.522865 0.1 -1.05 0.00371553
1.15704 0.1 -0.201444 0.00378581
1.15704 0.1 0.201444 0.00378555
1.1744 0.1 -0.0331401 0.00379633
1.1744 0.1 0.0331401 0.0037963
1.1744 0.1 -0.0994202 0.00379525
1.1744 0.1 0.0994202 0.00379501
0 0.1 1.18201 0.00375
0 0.1 -1.18201 0.00375
0.0363518 0.1 1.18201 0.00375109
0.0363518 0.1 -1.18201 0.00375104
0.219992 0.1 1.1625 0.00374466
0.219993 0.1 -1.1625 0.00374452
1.14316 0.1 0.30529 0.00377584
1.14316 0.1 -0.30529 0.00377488
0.467897 0.1 1.0875 0.00372112
0.467897 0.1 -1.0875 0.00372121
1.1744 0.1 -0.1657 0.003793
1.1744 0.1 0.1657 0.00379267
1.15704 0.1 -0.268592 0.00378163
1.15704 0.1 0.268592 0.00378201
1.0579 0.1 0.540787 0.00373596
1.0579 0.1 -0.540787 0.00372966
0.796996 0.1 0.88201 0.00369546
1.08012 0.1 -0.496959 0.00373889
1.08012 0.1 0.496959 0.0037447
1.10076 0.1 0.454752 0.00375325
1.10076 0.1 -0.454752 0.00374813
1.11928 0.1 -0.414214 0.00375731
1.11928 0.1 0.414214 0.0037612
1.04168 0.1 -0.58333 0.00372208
1.04168 0.1 0.58333 0.00372852
1.1744 0.1 -0.231981 0.00378952
1.1744 0.1 0.231981 0.00378948
0.871687 0.1 0.821002 0.00369691
0.411108 0.1 1.125 0.00372707
0.411108 0.1 -1.125 0.00372706
1.19808 0.1 1.73472e-17 0.00380489
0.990306 0.1 0.675 0.00371273
0.990306 0.1 -0.675 0.00370688
1.02149 0.1 0.628368 0.00372108
1.02149 0.1 -0.628368 0.00371456
1.19808 0.1 -0.0650961 0.00380432
1.19808 0.1 0.0650961 0.00380429
0 0.1 1.2 0.00375
0 0.1 -1.2 0.00375
0.871687 0.1 -0.825 0.00369354
0.905821 0.1 -0.7875 0.00369526
0.90582 0.1 0.7875 0.00369926
0.835106 0.1 -0.8625 0.00369246
0.835106 0.1 0.8625 0.00369478
0.93886 0.1 -0.75 0.0036994
0.93886 0.1 0.75 0.0037043
1.14316 0.1 -0.373132 0.0037685
1.14316 0.1 0.373132 0.00377133
0.969689 0.1 0.7125 0.00370977
0.969689 0.1 -0.7125 0.00370413
1.15704 0.1 -0.33574 0.00377602
1.15704 0.1 0.33574 0.00377778
0.756813 0.1 0.9375 0.00369524
0.756814 0.1 -0.9375 0.0036941
1.19808 0.1 0.130192 0.0038025
1.19808 0.1 -0.130192 0.00380261
0.797314 0.1 -0.903998 0.00369327
0.714971 0.1 0.975 0.00369766
0.714971 0.1 -0.975 0.00369691
0.150379 0.1 1.2 0.00374825
0.150379 0.1 -1.2 0.00374811
1.20938 0.1 -0.0322656 0.00380823
1.20938 0.1 0.0322656 0.00380827
1.1744 0.1 -0.298261 0.00378472
1.1744 0.1 0.298261 0.00378558
1.20938 0.1 -0.0967968 0.00380709
1.20938 0.1 0.0967968 0.00380705
1.19808 0.1 -0.195288 0.00379973
1.19808 0.1 0.195288 0.00379974
0.350249 0.1 1.1625 0.00373334
0.350249 0.1 -1.1625 0.00373327
0.67013 0.1 1.0125 0.00370064
0.67013 0.1 -1.0125 0.00370026
0 0.1 1.21799 0.00375
0 0.1 -1.21799 0.00375
0.0363518 0.1 -1.21799 0.00375106
0.0363518 0.1 1.21799 0.00375111
1.11928 0.1 -0.48325 0.00374927
1.11928 0.1 0.48325 0.00375555
1.10076 0.1 -0.524714 0.00374018
1.10076 0.1 0.524714 0.00374714
1.20938 0.1 0.161328 0.00380474
1.20938 0.1 -0.161328 0.00380483
1.08012 0.1 0.567953 0.00373804
1.08012 0.1 -0.567953 0.00373069
0.623803 0.1 1.05 0.00370495
0.623803 0.1 -1.05 0.00370464
1.0579 0.1 -0.612892 0.00372134
1.0579 0.1 0.612892 0.0037289
1.15704 0.1 -0.402888 0.0037688
1.15704 0.1 0.402888 0.00377284
1.14316 0.1 0.440974 0.00376605
1.14316 0.1 -0.440974 0.00376054
1.19808 0.1 -0.260384 0.00379558
1.19808 0.1 0.260384 0.00379614
1.2267 0.1 3.57064e-18 0.00381517
1.2267 0.1 -0.0636649 0.00381453
1.2267 0.1 0.0636649 0.00381463
1.1744 0.1 -0.364541 0.00377835
1.1744 0.1 0.364541 0.003781
0.574156 0.1 1.0875 0.0037097
0.574156 0.1 -1.0875 0.00370947
1.20938 0.1 0.225859 0.00380154
1.20938 0.1 -0.225859 0.00380136
1.04168 0.1 -0.656246 0.00371382
1.04168 0.1 0.656246 0.00372137
1.2267 0.1 -0.12733 0.00381278
1.2267 0.1 0.12733 0.0038129
0.287374 0.1 1.2 0.00373888
0.287374 0.1 -1.2 0.00373872
1.02149 0.1 -0.702294 0.00370655
1.02149 0.1 0.702294 0.00371394
0.075776 0.1 -1.2375 0.00375191
0.075776 0.1 1.2375 0.00375202
0.871399 0.1 0.88201 0.00369344
0.522865 0.1 1.125 0.00371518
0.522865 0.1 -1.125 0.00371498
1.2267 0.1 -0.190994 0.00380987
1.2267 0.1 0.190994 0.00381013
1.19808 0.1 -0.32548 0.00378999
1.19808 0.1 0.32548 0.00379182
0.990306 0.1 -0.75 0.00369946
0.990306 0.1 0.75 0.00370598
1.24274 0.1 -0.0314313 0.0038207
1.24274 0.1 0.0314313 0.00382084
1.20938 0.1 -0.29039 0.00379659
1.20938 0.1 0.29039 0.00379755
1.24274 0.1 -0.0942942 0.0038195
1.24274 0.1 0.0942942 0.0038197
0.93886 0.1 0.821002 0.00369867
1.11928 0.1 -0.552285 0.00374066
1.11928 0.1 0.552285 0.0037487
1.15704 0.1 -0.470036 0.00376044
1.15704 0.1 0.470036 0.00376704
0.969689 0.1 -0.7875 0.00369695
0.96969 0.1 0.7875 0.00370324
0.93886 0.1 -0.825 0.00369299
0.90582 0.1 0.8625 0.00369405
0.905821 0.1 -0.8625 0.00368963
1.1744 0.1 -0.430821 0.00377031
1.1744 0.1 0.430821 0.00377565
1.10076 0.1 -0.594676 0.00373125
1.10076 0.1 0.594676 0.00373969
1.14316 0.1 -0.508816 0.00375207
1.14316 0.1 0.508816 0.00375979
1.24274 0.1 -0.157157 0.00381717
1.24274 0.1 0.157157 0.00381742
1.2267 0.1 -0.254659 0.00380571
1.2267 0.1 0.254659 0.00380649
0.467897 0.1 1.1625 0.00372105
0.467897 0.1 -1.1625 0.0037209
1.08012 0.1 0.638947 0.00373051
1.08012 0.1 -0.638947 0.00372176
1.25511 0.1 -5.78241e-19 0.00382635
0.835106 0.1 -0.9375 0.00368845
0.835106 0.1 0.9375 0.00369125
0.871687 0.1 -0.903998 0.00368915
1.25511 0.1 0.0622446 0.00382591
1.25511 0.1 -0.0622446 0.00382559
0.219992 0.1 1.2375 0.00374469
0.219992 0.1 -1.2375 0.00374449
0 0.1 -1.25701 0.00375
0 0.1 1.25701 0.00375
0.0363518 0.1 -1.25701 0.00375106
0.0363518 0.1 1.25701 0.00375111
0.797314 0.1 0.975 0.00369187
0.797314 0.1 -0.975 0.0036897
1.19808 0.1 -0.390576 0.00378276
1.19808 0.1 0.390576 0.00378677
1.0579 0.1 -0.684997 0.00371255
1.0579 0.1 0.684997 0.00372132
1.20938 0.1 -0.354921 0.00379024
1.20938 0.1 0.354921 0.00379288
1.25511 0.1 0.124489 0.00382423
1.25511 0.1 -0.124489 0.00382371
1.24274 0.1 -0.220019 0.00381366
1.24274 0.1 0.220019 0.00381419
0.756813 0.1 1.0125 0.00369309
0.756814 0.1 -1.0125 0.00369158
1.2267 0.1 -0.318324 0.00380012
1.2267 0.1 0.318324 0.00380208
0.411108 0.1 1.2 0.00372703
0.411108 0.1 -1.2 0.00372682
1.25511 0.1 -0.186734 0.00382068
1.25511 0.1 0.186734 0.00382146
0.714971 0.1 1.05 0.00369607
0.714971 0.1 -1.05 0.00369493
1.04168 0.1 -0.729162 0.00370517
1.04168 0.1 0.729162 0.00371374
1.24274 0.1 0.282882 0.0038101
1.24274 0.1 -0.282882 0.00380887
0 0.1 1.275 0.00375
0 0.1 -1.275 0.00375
1.1744 0.1 0.497102 0.00376939
1.1744 0.1 -0.497102 0.00376151
1.15704 0.1 -0.537184 0.00375152
1.15704 0.1 0.537184 0.0037601
1.2756 0.1 -0.03061 0.00383511
1.2756 0.1 0.03061 0.00383538
0.67013 0.1 1.0875 0.00369954
0.67013 0.1 -1.0875 0.00369875
1.2756 0.1 -0.09183 0.00383372
1.2756 0.1 0.09183 0.00383435
1.25511 0.1 -0.248978 0.00381641
1.25511 0.1 0.248978 0.00381774
1.20938 0.1 0.419453 0.00378744
1.20938 0.1 -0.419453 0.0037822
1.11928 0.1 -0.621322 0.00373121
1.11928 0.1 0.621322 0.00374089
1.14316 0.1 -0.576659 0.00374283
1.14316 0.1 0.576659 0.00375223
1.19808 0.1 -0.455673 0.00377418
1.19808 0.1 0.455673 0.0037809
1.02149 0.1 0.776219 0.00370643
1.02149 0.1 -0.776219 0.00369819
0.150379 0.1 1.275 0.00374826
0.150379 0.1 -1.275 0.00374809
1.2756 0.1 -0.15305 0.0038312
1.2756 0.1 0.15305 0.0038321
1.2267 0.1 -0.381989 0.0037929
1.2267 0.1 0.381989 0.00379694
1.10076 0.1 -0.664638 0.00372166
1.10076 0.1 0.664638 0.00373174