# kMean  POINT_DATA 63840
# x  y  z  kMean
0 0.5 3.39583e-17 0.00375
0 0.5 -0.00617931 0.00375
0 0.5 0.00617931 0.00375
0.0124865 0.5 -0.00617931 0.00375031
0.0124865 0.5 0.00617931 0.00375031
0 0.5 -0.0688207 0.00375
0 0.5 0.0688207 0.00375
0.0124865 0.5 -0.0688207 0.00375031
0.0124865 0.5 0.0688207 0.00375031
0 0.5 -0.075 0.00375
0 0.5 0.075 0.00375
0 0.5 -0.0811793 0.00375
0 0.5 0.0811793 0.00375
0.0124865 0.5 -0.0811793 0.00375032
0.0124865 0.5 0.0811793 0.00375032
0.075776 0.5 -0.0375 0.00375192
0.075776 0.5 0.0375 0.00375192
0.075776 0.5 -0.1125 0.00375195
0.075776 0.5 0.1125 0.00375197
0 0.5 -0.143821 0.00375
0 0.5 0.143821 0.00375
0.0124865 0.5 -0.143821 0.00375032
0.0124865 0.5 0.143821 0.00375032
0 0.5 -0.15 0.00375
0 0.5 0.15 0.00375
0.151149 0.5 -0.00137318 0.00375422
0 0.5 -0.156179 0.00375
0 0.5 0.156179 0.00375
0.0124865 0.5 -0.156179 0.00375034
0.0124865 0.5 0.156179 0.00375034
0.151149 0.5 0.075 0.00375428
0.151149 0.5 -0.075 0.00375429
0.075776 0.5 -0.1875 0.00375205
0.075776 0.5 0.1875 0.00375209
0.151149 0.5 0.15 0.00375442
0.151149 0.5 -0.15 0.00375444
0 0.5 -0.218821 0.00375
0 0.5 0.218821 0.00375
0.0124865 0.5 -0.218821 0.00375034
0.0124865 0.5 0.218821 0.00375034
0.219992 0.5 0.0375 0.0037564
0.219993 0.5 -0.0375 0.00375642
0 0.5 -0.225 0.00375
0 0.5 0.225 0.00375
0 0.5 -0.231179 0.00375
0 0.5 0.231179 0.00375
0.0124865 0.5 -0.231179 0.00375036
0.0124865 0.5 0.231179 0.00375037
0.219992 0.5 0.1125 0.00375652
0.219993 0.5 -0.1125 0.00375657
0.151149 0.5 -0.225 0.0037547
0.151149 0.5 0.225 0.00375466
0.075776 0.5 -0.2625 0.00375221
0.075776 0.5 0.2625 0.00375225
0.288069 0.5 -0.00137318 0.00376099
0.219992 0.5 0.1875 0.00375679
0.219993 0.5 -0.1875 0.00375687
0 0.5 0.293821 0.00375
0 0.5 -0.293821 0.00375
0.0124865 0.5 -0.293821 0.00375036
0.0124865 0.5 0.293821 0.00375037
0.288069 0.5 -0.075 0.00376114
0.288069 0.5 0.075 0.00376104
0 0.5 -0.3 0.00375
0 0.5 0.3 0.00375
0 0.5 0.306179 0.00375
0 0.5 -0.306179 0.00375
0.0124865 0.5 -0.306179 0.00375039
0.0124865 0.5 0.306179 0.0037504
0.288069 0.5 -0.15 0.0037614
0.288069 0.5 0.15 0.00376121
0.151149 0.5 -0.3 0.00375503
0.151149 0.5 0.3 0.00375499
0.219992 0.5 -0.2625 0.00375731
0.219992 0.5 0.2625 0.0037572
0.075776 0.5 0.3375 0.00375245
0.075776 0.5 -0.3375 0.00375239
0.350249 0.5 -0.0375 0.00376538
0.350249 0.5 0.0375 0.0037653
0.288069 0.5 -0.225 0.00376181
0.288069 0.5 0.225 0.00376155
0.350249 0.5 0.1125 0.00376537
0.350249 0.5 -0.1125 0.0037656
0 0.5 0.368821 0.00375
0 0.5 -0.368821 0.00375
0.0124865 0.5 -0.368821 0.00375039
0.0124865 0.5 0.368821 0.0037504
0 0.5 -0.375 0.00375
0 0.5 0.375 0.00375
0 0.5 -0.381179 0.00375
0 0.5 0.381179 0.00375
0.0124865 0.5 -0.381179 0.00375043
0.0124865 0.5 0.381179 0.00375044
0.350249 0.5 -0.1875 0.00376596
0.350249 0.5 0.1875 0.00376561
0.219992 0.5 -0.3375 0.00375784
0.219992 0.5 0.3375 0.00375772
0.151149 0.5 -0.375 0.00375541
0.151149 0.5 0.375 0.00375537
0.411736 0.5 -0.00137318 0.00377244
0.288069 0.5 -0.3 0.00376233
0.288069 0.5 0.3 0.00376202
0.411736 0.5 -0.075 0.00377266
0.411736 0.5 0.075 0.00377245
0.075776 0.5 -0.4125 0.0037526
0.075776 0.5 0.4125 0.00375266
0.350249 0.5 -0.2625 0.00376649
0.350249 0.5 0.2625 0.00376602
0.411736 0.5 -0.15 0.00377293
0.411736 0.5 0.15 0.00377253
0 0.5 -0.443821 0.00375
0 0.5 0.443821 0.00375
0.0124865 0.5 -0.443821 0.00375043
0.0124865 0.5 0.443821 0.00375044
0 0.5 -0.45 0.00375
0 0.5 0.45 0.00375
0 0.5 -0.456179 0.00375
0 0.5 0.456179 0.00375
0.0124865 0.5 -0.456179 0.00375046
0.0124865 0.5 0.456179 0.00375047
0.219992 0.5 -0.4125 0.00375841
0.219993 0.5 0.4125 0.00375829
0.411736 0.5 -0.225 0.00377333
0.411736 0.5 0.225 0.00377276
0.467897 0.5 0.0375 0.00377916
0.467897 0.5 -0.0375 0.00377929
0.288069 0.5 -0.375 0.00376292
0.288069 0.5 0.375 0.00376258
0.151149 0.5 -0.45 0.0037558
0.151149 0.5 0.45 0.00375578
0.467897 0.5 -0.1125 0.0037795
0.467897 0.5 0.1125 0.00377911
0.350249 0.5 0.3375 0.00376656
0.350249 0.5 -0.3375 0.00376709
0.075776 0.5 -0.4875 0.0037528
0.075776 0.5 0.4875 0.00375288
0.467897 0.5 -0.1875 0.00377981
0.467897 0.5 0.1875 0.00377918
0.411736 0.5 -0.3 0.00377381
0.411736 0.5 0.3 0.00377313
0 0.5 -0.518821 0.00375
0 0.5 0.518821 0.00375
0.0124865 0.5 0.518821 0.00375047
0.0124865 0.5 -0.518821 0.00375046
0.523432 0.5 -0.00137318 0.00378867
0 0.5 -0.525 0.00375
0 0.5 0.525 0.00375
0.523432 0.5 -0.075 0.00378889
0.523432 0.5 0.075 0.00378861
0 0.5 -0.531179 0.00375
0 0.5 0.531179 0.00375
0.0124865 0.5 -0.531179 0.00375049
0.0124865 0.5 0.531179 0.00375051
0.288069 0.5 -0.45 0.00376351
0.288069 0.5 0.45 0.00376319
0.219992 0.5 -0.4875 0.00375898
0.219993 0.5 0.4875 0.0037589
0.467897 0.5 -0.2625 0.0037802
0.467897 0.5 0.2625 0.00377939
0.350249 0.5 -0.4125 0.00376772
0.350249 0.5 0.4125 0.00376717
0.523432 0.5 -0.15 0.00378908
0.523432 0.5 0.15 0.00378852
0.151149 0.5 -0.525 0.00375619
0.151149 0.5 0.525 0.00375619
0.411736 0.5 -0.375 0.00377432
0.411736 0.5 0.375 0.00377359
0.075776 0.5 -0.5625 0.003753
0.075776 0.5 0.5625 0.00375309
0.523432 0.5 -0.225 0.00378931
0.523432 0.5 0.225 0.00378851
0.574156 0.5 -0.0375 0.0037978
0.574156 0.5 0.0375 0.00379765
0.467897 0.5 0.3375 0.00377973
0.467897 0.5 -0.3375 0.00378062
0.574156 0.5 -0.1125 0.00379792
0.574156 0.5 0.1125 0.00379746
0 0.5 -0.593821 0.00375
0 0.5 0.593821 0.00375
0.0124865 0.5 -0.593821 0.00375049
0.0124865 0.5 0.593821 0.00375051
0.288069 0.5 -0.525 0.00376408
0.288069 0.5 0.525 0.00376381
0 0.5 -0.6 0.00375
0 0.5 0.6 0.00375
0.350249 0.5 -0.4875 0.00376833
0.350249 0.5 0.4875 0.00376782
0.523432 0.5 -0.3 0.00378954
0.523432 0.5 0.3 0.0037886
0.219992 0.5 -0.5625 0.00375953
0.219992 0.5 0.5625 0.00375949
0.574156 0.5 -0.1875 0.00379804
0.574156 0.5 0.1875 0.00379728
0 0.5 -0.606179 0.00375
0 0.5 0.606179 0.00375
0.0124865 0.5 -0.606179 0.00375052
0.0124865 0.5 0.606179 0.00375054
0.411736 0.5 -0.45 0.0037748
0.411736 0.5 0.45 0.00377409
0.151149 0.5 -0.6 0.00375655
0.151149 0.5 0.6 0.00375659
0.62168 0.5 2.64545e-17 0.00380862
0.467897 0.5 0.4125 0.00378011
0.467897 0.5 -0.4125 0.00378101
0.624316 0.5 0.0729402 0.00380912
0.624316 0.5 -0.075 0.0038094
0.574156 0.5 -0.2625 0.00379815
0.574157 0.5 0.2625 0.00379716
0.075776 0.5 -0.6375 0.00375318
0.075776 0.5 0.6375 0.00375327
0.624316 0.5 -0.15 0.0038094
0.624316 0.5 0.15 0.00380883
0.523432 0.5 -0.375 0.0037897
0.523432 0.5 0.375 0.00378875
0.350249 0.5 -0.5625 0.00376888
0.350249 0.5 0.5625 0.00376846
0.624316 0.5 -0.225 0.00380931
0.624316 0.5 0.225 0.00380849
0.288069 0.5 0.6 0.00376441
0.288069 0.5 -0.6 0.00376459
0.574156 0.5 -0.3375 0.00379815
0.574156 0.5 0.3375 0.00379713
0.411736 0.5 -0.525 0.00377521
0.411736 0.5 0.525 0.0037746
0 0.5 -0.668821 0.00375
0 0.5 0.668821 0.00375
0.0124865 0.5 -0.668821 0.00375052
0.0124865 0.5 0.668821 0.00375054
0.67013 0.5 0.0375 0.00382026
0.67013 0.5 -0.0375 0.00382038
0.219993 0.5 -0.6375 0.00376003
0.219993 0.5 0.6375 0.00376005
0 0.5 -0.675 0.00375
0 0.5 0.675 0.00375
0.467897 0.5 0.4875 0.00378049
0.467897 0.5 -0.4875 0.00378133
0.67013 0.5 -0.1125 0.00382033
0.67013 0.5 0.1125 0.00381992
0 0.5 -0.681179 0.00375
0 0.5 0.681179 0.00375
0.0124865 0.5 -0.681179 0.00375055
0.0124865 0.5 0.681179 0.00375057
0.523432 0.5 -0.45 0.00378978
0.523432 0.5 0.45 0.00378889
0.151149 0.5 -0.675 0.00375686
0.151149 0.5 0.675 0.00375694
0.624316 0.5 -0.3 0.00380909
0.624316 0.5 0.3 0.00380816
0.67013 0.5 0.1875 0.00381945
0.67013 0.5 -0.1875 0.00382013
0.574156 0.5 -0.4125 0.00379805
0.574157 0.5 0.4125 0.00379706
0.708171 0.5 1.88651e-17 0.00383151
0.075776 0.5 -0.7125 0.00375333
0.075776 0.5 0.7125 0.00375343
0.715434 0.5 0.0736268 0.00383316
0.715434 0.5 -0.075 0.00383364
0.67013 0.5 0.2625 0.00381889
0.67013 0.5 -0.2625 0.00381977
0.350249 0.5 -0.6375 0.00376934
0.350249 0.5 0.6375 0.00376905
0.411736 0.5 -0.6 0.00377553
0.411736 0.5 0.6 0.00377506
0.624316 0.5 -0.375 0.00380871
0.624316 0.5 0.375 0.00380782
0.715434 0.5 -0.15 0.00383334
0.715434 0.5 0.15 0.00383292
0.467897 0.5 -0.5625 0.00378154
0.467897 0.5 0.5625 0.00378085
0.288069 0.5 -0.675 0.00376503
0.288069 0.5 0.675 0.00376495
0.523432 0.5 -0.525 0.00378974
0.523432 0.5 0.525 0.00378899
0 0.5 -0.743821 0.00375
0 0.5 0.743821 0.00375
0.0124865 0.5 -0.743821 0.00375055
0.0124865 0.5 0.743821 0.00375057
0.219992 0.5 0.7125 0.00376054
0.219992 0.5 -0.7125 0.00376045
0.715434 0.5 -0.225 0.00383279
0.715434 0.5 0.225 0.0038322
0 0.5 -0.75 0.00375
0 0.5 0.75 0.00375
0.67013 0.5 0.3375 0.00381831
0.67013 0.5 -0.3375 0.00381917
0.574156 0.5 -0.4875 0.0037978
0.574156 0.5 0.4875 0.00379694
0 0.5 -0.756179 0.00375
0 0.5 0.756179 0.00375
0.0124865 0.5 -0.756179 0.00375057
0.0124865 0.5 0.756179 0.00375059
0.756813 0.5 -0.0375 0.00384644
0.756813 0.5 0.0375 0.00384639
0.151149 0.5 -0.75 0.00375712
0.151149 0.5 0.75 0.00375724
0.756813 0.5 -0.1125 0.00384614
0.756813 0.5 0.1125 0.00384593
0.624316 0.5 -0.45 0.00380815
0.624316 0.5 0.45 0.0038074
0.715434 0.5 -0.3 0.00383199
0.715434 0.5 0.3 0.00383134
0.756813 0.5 0.1875 0.00384513
0.756813 0.5 -0.1875 0.00384551
0.67013 0.5 -0.4125 0.00381838
0.67013 0.5 0.4125 0.00381766
0.411736 0.5 -0.675 0.00377574
0.411736 0.5 0.675 0.00377546
0.467897 0.5 0.6375 0.00378114
0.467897 0.5 -0.6375 0.00378162
0.075776 0.5 -0.7875 0.00375345
0.075776 0.5 0.7875 0.00375356
0.350249 0.5 -0.7125 0.00376969
0.350249 0.5 0.7125 0.00376956
0.523432 0.5 -0.6 0.00378956
0.523432 0.5 0.6 0.00378903
0.797732 0.5 2.68882e-17 0.0038613
0.756813 0.5 -0.2625 0.00384455
0.756814 0.5 0.2625 0.00384409
0.797732 0.5 0.0736268 0.00386091
0.797732 0.5 -0.075 0.00386104
0.288069 0.5 -0.75 0.00376536
0.288069 0.5 0.75 0.0037654
0.574156 0.5 -0.5625 0.00379738
0.574157 0.5 0.5625 0.00379675
0.715434 0.5 -0.375 0.00383088
0.715434 0.5 0.375 0.00383036
0.797732 0.5 -0.15 0.00386033
0.797732 0.5 0.15 0.00386027
0.624316 0.5 -0.525 0.00380739
0.624316 0.5 0.525 0.00380687
0.219992 0.5 -0.7875 0.00376078
0.219992 0.5 0.7875 0.00376094
0 0.5 -0.818821 0.00375
0 0.5 0.818821 0.00375
0.0124865 0.5 0.818821 0.00375059
0.0124865 0.5 -0.818821 0.00375057
0 0.5 -0.825 0.00375
0 0.5 0.825 0.00375
0.756813 0.5 0.3375 0.00384285
0.756814 0.5 -0.3375 0.00384328
0.67013 0.5 -0.4875 0.00381733
0.67013 0.5 0.4875 0.00381686
0.797732 0.5 -0.225 0.00385918
0.797732 0.5 0.225 0.00385909
0 0.5 -0.831179 0.00375
0 0.5 0.831179 0.00375
0.0124865 0.5 -0.831179 0.00375058
0.0124865 0.5 0.831179 0.0037506
0.835106 0.5 0.0375 0.00387558
0.835106 0.5 -0.0375 0.0038755
0.151149 0.5 -0.825 0.00375732
0.151149 0.5 0.825 0.00375748
0.835106 0.5 0.1125 0.00387497
0.835106 0.5 -0.1125 0.00387483
0.715434 0.5 -0.45 0.00382946
0.715434 0.5 0.45 0.00382924
0.797732 0.5 -0.3 0.00385761
0.797732 0.5 0.3 0.00385759
0.467897 0.5 0.7125 0.00378135
0.467897 0.5 -0.7125 0.00378157
0.523432 0.5 -0.675 0.00378922
0.523432 0.5 0.675 0.00378898
0.411736 0.5 -0.75 0.00377582
0.411736 0.5 0.75 0.00377576
0.835106 0.5 -0.1875 0.0038736
0.835106 0.5 0.1875 0.00387378
0.574156 0.5 -0.6375 0.0037968
0.574157 0.5 0.6375 0.00379648
0.350249 0.5 -0.7875 0.00376993
0.350249 0.5 0.7875 0.00376997
0.756813 0.5 -0.4125 0.00384155
0.756814 0.5 0.4125 0.00384146
0.075776 0.5 -0.8625 0.00375353
0.075776 0.5 0.8625 0.00375365
0.624316 0.5 0.6 0.00380624
0.624316 0.5 -0.6 0.00380643
0.872064 0.5 5.91974e-17 0.0038912
0.870122 0.5 0.075 0.00389
0.288069 0.5 -0.825 0.00376558
0.288069 0.5 0.825 0.00376575
0.67013 0.5 -0.5625 0.00381605
0.67013 0.5 0.5625 0.00381591
0.872064 0.5 -0.075 0.00389073
0.835106 0.5 -0.2625 0.00387183
0.835106 0.5 0.2625 0.00387212
0.797732 0.5 -0.375 0.00385561
0.797732 0.5 0.375 0.00385584
0.872064 0.5 0.14794 0.00389006
0.872064 0.5 -0.15 0.00388963
0.715434 0.5 -0.525 0.00382776
0.715434 0.5 0.525 0.00382792
0.219992 0.5 0.8625 0.00376125
0.219993 0.5 -0.8625 0.00376101
0 0.5 -0.893821 0.00375
0 0.5 0.893821 0.00375
0.0124865 0.5 -0.893821 0.00375058
0.0124865 0.5 0.893821 0.0037506
0 0.5 -0.9 0.00375
0 0.5 0.9 0.00375
0.756813 0.5 -0.4875 0.0038395
0.756813 0.5 0.4875 0.00383985
0.872064 0.5 -0.225 0.00388793
0.872064 0.5 0.225 0.00388855
0.835106 0.5 -0.3375 0.00386961
0.835106 0.5 0.3375 0.00387008
0 0.5 0.906179 0.00375
0 0.5 -0.906179 0.00375
0.0124865 0.5 -0.906179 0.00375059
0.0124865 0.5 0.906179 0.00375061
0.90582 0.5 -0.0375 0.00390615
0.90582 0.5 0.0375 0.00390637
0.151149 0.5 -0.9 0.00375744
0.151149 0.5 0.9 0.00375765
0.90582 0.5 -0.1125 0.00390525
0.905821 0.5 0.1125 0.00390579
0.523432 0.5 -0.75 0.00378872
0.523432 0.5 0.75 0.00378883
0.574156 0.5 -0.7125 0.00379604
0.574156 0.5 0.7125 0.0037961
0.797732 0.5 -0.45 0.00385317
0.797732 0.5 0.45 0.00385387
0.467897 0.5 0.7875 0.00378145
0.467897 0.5 -0.7875 0.00378137
0.624316 0.5 -0.675 0.00380528
0.624316 0.5 0.675 0.0038055
0.411736 0.5 -0.825 0.00377575
0.411736 0.5 0.825 0.00377595
0.872064 0.5 0.3 0.00388652
0.872064 0.5 -0.3 0.0038856
0.67013 0.5 -0.6375 0.00381454
0.67013 0.5 0.6375 0.00381484
0.90582 0.5 0.1875 0.0039045
0.905821 0.5 -0.1875 0.00390367
0.350249 0.5 -0.8625 0.00377002
0.350249 0.5 0.8625 0.00377026
0.835106 0.5 -0.4125 0.00386689
0.835106 0.5 0.4125 0.00386778
0.715434 0.5 -0.6 0.0038258
0.715434 0.5 0.6 0.00382642
0.939201 0.5 2.75387e-17 0.00392173
0.075776 0.5 0.9375 0.00375371
0.075776 0.5 -0.9375 0.00375358
0.939111 0.5 0.075 0.00392156
0.939201 0.5 -0.075 0.00392106
0.756813 0.5 0.5625 0.00383798
0.756814 0.5 -0.5625 0.00383713
0.90582 0.5 0.2625 0.00390261
0.905821 0.5 -0.2625 0.00390144
0.288069 0.5 -0.9 0.00376568
0.288069 0.5 0.9 0.00376599
0.872064 0.5 -0.375 0.00388262
0.872064 0.5 0.375 0.00388396
0.939201 0.5 0.148627 0.00392056
0.939201 0.5 -0.15 0.00391967
0.797732 0.5 -0.525 0.00385035
0.797732 0.5 0.525 0.00385163
0.219992 0.5 0.9375 0.00376146
0.219992 0.5 -0.9375 0.00376114
0.939201 0.5 -0.225 0.00391755
0.939201 0.5 0.225 0.00391902
0.905821 0.5 -0.3375 0.00389838
0.90582 0.5 0.3375 0.00390008
0.835106 0.5 -0.4875 0.00386367
0.835106 0.5 0.4875 0.00386526
0 0.5 0.968821 0.00375
0 0.5 -0.968821 0.00375
0.0124865 0.5 -0.968821 0.00375059
0.0124865 0.5 0.968821 0.00375061
0.969689 0.5 -0.0375 0.00393648
0.969689 0.5 0.0375 0.00393686
0.574156 0.5 -0.7875 0.00379512
0.574156 0.5 0.7875 0.0037956
0 0.5 -0.975 0.00375
0 0.5 0.975 0.00375
0.624316 0.5 -0.75 0.00380395
0.624316 0.5 0.75 0.00380464
0.969689 0.5 -0.1125 0.00393531
0.96969 0.5 0.1125 0.00393635
0.523432 0.5 -0.825 0.00378807
0.523432 0.5 0.825 0.00378856
0.67013 0.5 0.7125 0.00381364
0.67013 0.5 -0.7125 0.00381283
0 0.5 -0.981179 0.00375
0 0.5 0.981179 0.00375
0.467897 0.5 0.8625 0.00378142
0.467897 0.5 -0.8625 0.00378101
0.0124865 0.5 -0.981179 0.00375059
0.0124865 0.5 0.981179 0.00375062
0.872064 0.5 -0.45 0.00387904
0.872064 0.5 0.45 0.00388102
0.715434 0.5 -0.675 0.0038236
0.715434 0.5 0.675 0.00382476
0.939201 0.5 -0.3 0.00391463
0.939201 0.5 0.3 0.0039167
0.151149 0.5 0.975 0.00375775
0.151149 0.5 -0.975 0.0037575
0.969689 0.5 -0.1875 0.00393339
0.969689 0.5 0.1875 0.00393499
0.756813 0.5 -0.6375 0.00383448
0.756813 0.5 0.6375 0.00383591
0.411736 0.5 -0.9 0.00377554
0.411736 0.5 0.9 0.003776
0.90582 0.5 -0.4125 0.00389449
0.90582 0.5 0.4125 0.00389674
0.995005 0.5 0.0749309 0.00394804
0.797732 0.5 -0.6 0.00384719
0.797732 0.5 0.6 0.0038491
1.00005 0.5 -8.47123e-18 0.00395062
0.350249 0.5 -0.9375 0.00376998
0.350249 0.5 0.9375 0.00377041
1.00005 0.5 -0.0749309 0.00394976
0.969689 0.5 -0.2625 0.00393068
0.969689 0.5 0.2625 0.00393292
0.835106 0.5 -0.5625 0.00386005
0.835106 0.5 0.5625 0.00386234
1.00005 0.5 -0.149862 0.00394811
0.939201 0.5 -0.375 0.00391078
0.939201 0.5 0.375 0.00391356
1.00029 0.5 0.148988 0.0039494
0.075776 0.5 -1.0125 0.0037536
0.075776 0.5 1.0125 0.00375374
0.288069 0.5 0.975 0.00376611
0.288069 0.5 -0.975 0.00376567
0.872064 0.5 -0.525 0.00387495
0.872064 0.5 0.525 0.00387774
1.00005 0.5 0.224793 0.00394798
1.00005 0.5 -0.224793 0.00394565
0.969689 0.5 0.3375 0.00393011
0.96969 0.5 -0.3375 0.003927
1.0271 0.5 -0.0368226 0.00396566
1.0271 0.5 0.0368226 0.00396616
0.90582 0.5 0.4875 0.00389318
0.905821 0.5 -0.4875 0.00389005
1.0271 0.5 -0.110468 0.00396429
1.0271 0.5 0.110468 0.00396727
0.67013 0.5 0.7875 0.0038123
0.67013 0.5 -0.7875 0.00381094
0.624316 0.5 0.825 0.00380365
0.624316 0.5 -0.825 0.00380244
0.219993 0.5 -1.0125 0.00376118
0.219993 0.5 1.0125 0.00376157
0.574156 0.5 -0.8625 0.00379403
0.574156 0.5 0.8625 0.00379498
0.715434 0.5 -0.75 0.00382119
0.715434 0.5 0.75 0.00382296
0.756813 0.5 0.7125 0.00383367
0.756814 0.5 -0.7125 0.0038316
0.523432 0.5 -0.9 0.00378726
0.523432 0.5 0.9 0.00378815
0.939201 0.5 -0.45 0.00390596
0.939201 0.5 0.45 0.0039097
1.04168 0.5 0 0.00397378
1.0271 0.5 -0.184113 0.00396212
1.0271 0.5 0.184113 0.00396445
0 0.5 -1.04382 0.00375
0 0.5 1.04382 0.00375
0.0124865 0.5 -1.04382 0.00375059
0.0124865 0.5 1.04382 0.00375062
1.00005 0.5 -0.299723 0.00394231
1.00005 0.5 0.299723 0.00394551
1.04168 0.5 -0.0729162 0.00397279
1.04168 0.5 0.0729162 0.00397387
0.797732 0.5 -0.675 0.00384374
0.797732 0.5 0.675 0.00384634
0.467897 0.5 0.9375 0.00378124
0.467897 0.5 -0.9375 0.0037805
0 0.5 -1.05 0.00375
0 0.5 1.05 0.00375
0.835106 0.5 -0.6375 0.0038561
0.835106 0.5 0.6375 0.00385911
1.04168 0.5 -0.145832 0.00397096
1.04168 0.5 0.145832 0.00397303
0.969689 0.5 -0.4125 0.00392226
0.96969 0.5 0.4125 0.00392625
0 0.5 -1.05618 0.00375
0 0.5 1.05618 0.00375
0.0124865 0.5 -1.05618 0.00375059
0.0124865 0.5 1.05618 0.00375062
1.05695 0.5 -0.0360764 0.00398143
1.05695 0.5 0.0360764 0.00398201
0.411736 0.5 -0.975 0.00377518
0.411736 0.5 0.975 0.00377591
0.872064 0.5 -0.6 0.00387041
0.872064 0.5 0.6 0.00387406
1.0271 0.5 -0.257759 0.00395912
1.0271 0.5 0.257759 0.00396234
0.151149 0.5 -1.05 0.0037575
0.151149 0.5 1.05 0.00375779
1.05695 0.5 0.108229 0.00398329
1.05695 0.5 -0.108229 0.00397994
1.04168 0.5 -0.218749 0.00396831
1.04168 0.5 0.218749 0.00397132
0.90582 0.5 -0.5625 0.00388505
0.905821 0.5 0.5625 0.00388911
1.00005 0.5 -0.374654 0.00393792
1.00005 0.5 0.374654 0.00394213
0.350249 0.5 1.0125 0.00377043
0.350249 0.5 -1.0125 0.0037698
1.05695 0.5 -0.180382 0.00397764
1.05695 0.5 0.180382 0.0039804
1.07319 0.5 0.0709442 0.00399137
0.939201 0.5 -0.525 0.00390038
0.939201 0.5 0.525 0.0039052
1.0271 0.5 -0.331404 0.00395512
1.0271 0.5 0.331404 0.00395946
1.08112 0.5 3.23815e-17 0.00399567
1.04168 0.5 -0.291665 0.00396475
1.04168 0.5 0.291665 0.00396883
1.08112 0.5 -0.0709442 0.00399456
0.969689 0.5 -0.4875 0.0039161
0.96969 0.5 0.4875 0.0039216
1.05695 0.5 0.252535 0.00397829
1.05695 0.5 -0.252535 0.00397449
0.288069 0.5 -1.05 0.00376553
0.288069 0.5 1.05 0.00376611
0.075776 0.5 -1.0875 0.00375359
0.075776 0.5 1.0875 0.00375374
1.08112 0.5 -0.141888 0.00399255
1.08145 0.5 0.140165 0.00399458
0.715434 0.5 0.825 0.00382103
0.715434 0.5 -0.825 0.00381862
0.756813 0.5 0.7875 0.00383129
0.756814 0.5 -0.7875 0.00382853
0.67013 0.5 -0.8625 0.00380889
0.67013 0.5 0.8625 0.00381084
0.797732 0.5 -0.75 0.00384007
0.797732 0.5 0.75 0.00384342
0.624316 0.5 -0.9 0.00380079
0.624316 0.5 0.9 0.00380252
1.00005 0.5 -0.449585 0.0039322
1.00005 0.5 0.449585 0.0039378
0.835106 0.5 -0.7125 0.00385186
0.835106 0.5 0.7125 0.00385568
0.574156 0.5 -0.9375 0.00379279
0.574157 0.5 0.9375 0.00379421
1.10076 0.5 -0.0349809 0.00400684
1.10076 0.5 0.0349809 0.00400754
1.08112 0.5 -0.212832 0.00398971
1.08112 0.5 0.212832 0.00399342
0.872064 0.5 -0.675 0.00386551
0.872064 0.5 0.675 0.00387007
1.04168 0.5 -0.364581 0.00396014
1.04168 0.5 0.364581 0.00396544
1.0271 0.5 0.405049 0.00395556
1.0271 0.5 -0.405049 0.00394999
1.05695 0.5 -0.324688 0.00397036
1.05695 0.5 0.324688 0.00397541
1.10076 0.5 -0.104943 0.00400517
1.10076 0.5 0.104943 0.00400732
0.523432 0.5 0.975 0.00378759
0.523432 0.5 -0.975 0.0037863
0.90582 0.5 0.6375 0.00388466
0.905821 0.5 -0.6375 0.00387951
0.219992 0.5 1.0875 0.00376158
0.219992 0.5 -1.0875 0.00376112
1.11376 0.5 3.81639e-17 0.00401506
0.939201 0.5 0.6 0.00390012
0.939201 0.5 -0.6 0.00389435
1.10076 0.5 -0.174905 0.00400266
1.10076 0.5 0.174905 0.0040061
0.467897 0.5 -1.0125 0.00377983
0.467897 0.5 1.0125 0.0037809
1.11376 0.5 -0.0693118 0.00401383
1.11376 0.5 0.0693118 0.00401534
1.08112 0.5 0.283777 0.00399092
1.08112 0.5 -0.283777 0.00398594
0 0.5 -1.11882 0.00375
0 0.5 1.11882 0.00375
0.0124865 0.5 -1.11882 0.00375059
0.0124865 0.5 1.11882 0.00375062
0.969689 0.5 -0.5625 0.00390945
0.969689 0.5 0.5625 0.00391593
1.11376 0.5 0.138624 0.00401455
1.11376 0.5 -0.138624 0.00401167
0 0.5 -1.125 0.00375
0 0.5 1.125 0.00375
1.10076 0.5 0.244866 0.00400398
1.10076 0.5 -0.244866 0.00399929
0.411736 0.5 -1.05 0.00377468
0.411736 0.5 1.05 0.00377567
1.05695 0.5 -0.396841 0.00396511
1.05695 0.5 0.396841 0.00397153
1.00005 0.5 -0.524516 0.00392547
1.00005 0.5 0.524516 0.00393248
1.04168 0.5 -0.437497 0.00395416
1.04168 0.5 0.437497 0.00396107
0 0.5 -1.13118 0.00375
0 0.5 1.13118 0.00375
0.0124865 0.5 -1.13118 0.00375059
0.0124865 0.5 1.13118 0.00375061
1.11376 0.5 -0.207935 0.00400865
1.11376 0.5 0.207935 0.00401298
1.0271 0.5 -0.478694 0.00394335
1.0271 0.5 0.478694 0.0039507
0.151149 0.5 -1.125 0.00375743
0.151149 0.5 1.125 0.00375776
1.08112 0.5 -0.354722 0.00398113
1.08112 0.5 0.354722 0.00398753
1.13882 0.5 -0.0340295 0.00403018
1.13882 0.5 0.0340295 0.00403101
0.350249 0.5 -1.0875 0.00376949
0.350249 0.5 1.0875 0.00377031
1.13882 0.5 -0.102088 0.00402833
1.13882 0.5 0.102088 0.00403177
1.10076 0.5 -0.314829 0.00399492
1.10076 0.5 0.314829 0.00400107
0.756813 0.5 -0.8625 0.0038253
0.756814 0.5 0.8625 0.00382878
0.797732 0.5 -0.825 0.00383622
0.797732 0.5 0.825 0.00384035
1.11376 0.5 -0.277247 0.0040047
1.11376 0.5 0.277247 0.00401046
0.835106 0.5 0.7875 0.00385209
0.835106 0.5 -0.7875 0.00384742
0.715434 0.5 -0.9 0.00381589
0.715434 0.5 0.9 0.00381896
0.872064 0.5 -0.75 0.00386036
0.872064 0.5 0.75 0.00386584
1.13882 0.5 0.170147 0.00402973
1.13882 0.5 -0.170147 0.0040256
0.67013 0.5 -0.9375 0.00380669
0.67013 0.5 0.9375 0.00380925
0.905821 0.5 -0.7125 0.00387369
0.905821 0.5 0.7125 0.00387986
1.05695 0.5 0.468994 0.00396668
1.05695 0.5 -0.468994 0.00395826
0.939201 0.5 -0.675 0.00388793
0.939201 0.5 0.675 0.00389476
0.624316 0.5 0.975 0.00380125
0.624316 0.5 -0.975 0.00379898
1.04168 0.5 -0.510414 0.00394706
1.04168 0.5 0.510414 0.00395566
0.969689 0.5 -0.6375 0.00390258
0.96969 0.5 0.6375 0.00390988
0.288069 0.5 -1.125 0.00376529
0.288069 0.5 1.125 0.003766
1.16179 0.5 5.78241e-19 0.00404591
1.08112 0.5 0.425666 0.00398317
1.08112 0.5 -0.425666 0.00397496
1.13882 0.5 -0.238206 0.00402199
1.13882 0.5 0.238206 0.00402761
1.16179 0.5 0.0669104 0.00404879
1.16179 0.5 -0.0669104 0.00404447
0.574156 0.5 -1.0125 0.00379139
0.574156 0.5 1.0125 0.00379328
0.075776 0.5 -1.1625 0.00375354
0.075776 0.5 1.1625 0.0037537
1.00005 0.5 -0.599447 0.0039183
1.00005 0.5 0.599447 0.00392624
1.10076 0.5 0.384791 0.00399721
1.10076 0.5 -0.384791 0.00398947
1.0271 0.5 -0.55234 0.00393607
1.0271 0.5 0.55234 0.00394472
1.11376 0.5 -0.346559 0.00399971
1.11376 0.5 0.346559 0.00400706
1.16179 0.5 -0.133821 0.00404203
1.16179 0.5 0.133821 0.0040461
0.523432 0.5 -1.05 0.00378519
0.523432 0.5 1.05 0.00378688
1.17463 0.5 -0.0331343 0.00405334
1.17463 0.5 0.0331343 0.00405428
1.17463 0.5 -0.0994029 0.00405129
1.17463 0.5 0.0994029 0.00405426
1.16179 0.5 -0.200731 0.00403871
1.16179 0.5 0.200731 0.00404413
1.13882 0.5 -0.306265 0.00401738
1.13882 0.5 0.306265 0.00402465
0.219992 0.5 -1.1625 0.00376095
0.219992 0.5 1.1625 0.00376148
0.467897 0.5 -1.0875 0.00377902
0.467897 0.5 1.0875 0.00378042
1.17463 0.5 0.165672 0.00405315
1.17463 0.5 -0.165672 0.00404834
1.05695 0.5 -0.541147 0.00395076
1.05695 0.5 0.541147 0.00396072
1.18772 0.5 -5.78241e-19 0.00406283
1.11376 0.5 -0.41587 0.00399337
1.11376 0.5 0.41587 0.0040027
1.18772 0.5 -0.065614 0.00406127
1.18772 0.5 0.065614 0.00406333
1.08112 0.5 -0.49661 0.00396763
1.08112 0.5 0.49661 0.00397778
1.10076 0.5 -0.454752 0.00398239
1.10076 0.5 0.454752 0.00399237
1.18534 0.5 0.118202 0.0040628
1.16179 0.5 -0.267642 0.00403443
1.16179 0.5 0.267642 0.00404157
0 0.5 -1.19382 0.00375
0 0.5 1.19382 0.00375
0.0124865 0.5 1.19382 0.00375061
0.0124865 0.5 -1.19382 0.00375059
1.04168 0.5 -0.58333 0.00393944
1.04168 0.5 0.58333 0.00394912
1.18772 0.5 -0.131228 0.00405869
1.17463 0.5 -0.23194 0.00404449
1.17463 0.5 0.23194 0.00405102
0.411736 0.5 -1.125 0.00377406
0.411736 0.5 1.125 0.00377531
1.13882 0.5 -0.374324 0.00401167
1.13882 0.5 0.374324 0.00402077
0 0.5 -1.2 0.00375
0 0.5 1.2 0.00375
0.905821 0.5 0.7875 0.0038748
0.905821 0.5 -0.7875 0.00386766
0.872064 0.5 -0.825 0.00385504
0.872064 0.5 0.825 0.00386142
0.835106 0.5 0.8625 0.00384835
0.835106 0.5 -0.8625 0.00384283
0.939201 0.5 -0.75 0.0038812
0.939201 0.5 0.75 0.00388917
0.797732 0.5 -0.9 0.00383223
0.797732 0.5 0.9 0.00383715
1.0271 0.5 0.625985 0.00393773
1.0271 0.5 -0.625985 0.00392828
0.969689 0.5 0.7125 0.0039038
0.96969 0.5 -0.7125 0.00389516
1.18772 0.5 -0.196842 0.00405519
1.18772 0.5 0.196842 0.00406119
0.756814 0.5 -0.9375 0.00382193
0.756814 0.5 0.9375 0.00382615
0 0.5 1.20618 0.00375
0 0.5 -1.20618 0.00375
1.00005 0.5 -0.674378 0.00391054
1.00005 0.5 0.674378 0.00391961
0.0124865 0.5 1.20618 0.0037506
0.0124865 0.5 -1.20618 0.00375057
1.16179 0.5 -0.334552 0.00402911
1.16179 0.5 0.334552 0.00403811
0.715434 0.5 0.975 0.00381677
0.715434 0.5 -0.975 0.00381303
0.151149 0.5 -1.2 0.00375729
0.151149 0.5 1.2 0.00375765
1.20942 0.5 0.0322645 0.00407888
1.20942 0.5 -0.0322645 0.00407751
1.17463 0.5 -0.298209 0.00403963
1.17463 0.5 0.298209 0.004048
1.20942 0.5 -0.0967935 0.00407525
1.20942 0.5 0.0967935 0.00407866
0.350249 0.5 -1.1625 0.00376905
0.350249 0.5 1.1625 0.00377007
0.67013 0.5 1.0125 0.00380751
0.67013 0.5 -1.0125 0.00380436
1.11376 0.5 0.485183 0.00399733
1.11376 0.5 -0.485183 0.00398584
1.18772 0.5 0.262456 0.00405859
1.18772 0.5 -0.262456 0.00405072
1.10076 0.5 -0.524714 0.00397459
1.10076 0.5 0.524714 0.00398646
1.20942 0.5 -0.161322 0.00407206
1.20942 0.5 0.161322 0.00407761
1.08112 0.5 -0.567554 0.00395972
1.08112 0.5 0.567554 0.00397123
0.624316 0.5 -1.05 0.00379704
0.624316 0.5 1.05 0.00379985
1.13882 0.5 -0.442383 0.00400442
1.13882 0.5 0.442383 0.0040159
1.05695 0.5 0.6133 0.00395359
1.05695 0.5 -0.6133 0.00394278
1.16179 0.5 -0.401463 0.00402245
1.16179 0.5 0.401463 0.0040337
0.574156 0.5 -1.0875 0.00378987
0.574156 0.5 1.0875 0.00379221
1.17463 0.5 0.364477 0.00404406
1.17463 0.5 -0.364477 0.00403369
1.20942 0.5 -0.225851 0.00406792
1.20942 0.5 0.225851 0.00407547
1.23036 0.5 -1.32995e-17 0.00409396
1.2294 0.5 0.0634819 0.00409422
1.04168 0.5 -0.656246 0.00393107
1.04168 0.5 0.656246 0.00394186
1.23036 0.5 -0.0634819 0.00409216
1.18772 0.5 0.32807 0.00405508
1.18772 0.5 -0.32807 0.00404521
0.288069 0.5 -1.2 0.00376493
0.288069 0.5 1.2 0.00376577
1.23036 0.5 -0.126964 0.00408926
1.23036 0.5 0.126964 0.00409421
0.075776 0.5 -1.2375 0.00375347
0.075776 0.5 1.2375 0.00375363
0.523432 0.5 -1.125 0.00378396
0.523432 0.5 1.125 0.00378604
1.0271 0.5 -0.69963 0.00391956
1.0271 0.5 0.69963 0.00393047
1.24274 0.5 0.0314313 0.00410349
1.24274 0.5 -0.0314313 0.00410228
1.20942 0.5 0.29038 0.00407237
1.20942 0.5 -0.29038 0.00406276
1.11376 0.5 -0.554494 0.00397772
1.11376 0.5 0.554494 0.00399081
1.23036 0.5 -0.190445 0.0040854
1.23036 0.5 0.190445 0.00409264
1.24274 0.5 -0.0942942 0.00409979
1.24274 0.5 0.0942942 0.00410368
1.13882 0.5 0.510442 0.00401001
1.13882 0.5 -0.510442 0.00399634
0.969689 0.5 -0.7875 0.00388757
0.969689 0.5 0.7875 0.00389742
1.00005 0.5 -0.749309 0.00390227
1.00005 0.5 0.749309 0.00391274
0.939201 0.5 -0.825 0.00387431
0.939201 0.5 0.825 0.00388334
0.90582 0.5 0.8625 0.0038696
0.90582 0.5 -0.8625 0.00386149
1.17463 0.5 -0.430746 0.00402618
1.17463 0.5 0.430746 0.00403914
1.10076 0.5 -0.594676 0.00396634
1.10076 0.5 0.594676 0.00397931
1.18772 0.5 -0.393684 0.00403838
1.18772 0.5 0.393684 0.00405061
1.24274 0.5 -0.157157 0.00409633
1.24274 0.5 0.157157 0.00410268
1.16179 0.5 -0.468373 0.00401457
1.16179 0.5 0.468373 0.0040283
0.467897 0.5 -1.1625 0.00377811
0.467897 0.5 1.1625 0.00377983
0.872064 0.5 -0.9 0.0038496
0.872064 0.5 0.9 0.00385688
1.25401 0.5 2.08167e-17 0.00411118
0.835106 0.5 0.9375 0.00384451
0.835106 0.5 -0.9375 0.00383814
1.25401 0.5 -0.0622994 0.00410925
1.25401 0.5 0.0622994 0.00411209
1.08112 0.5 -0.638498 0.00395111
1.08112 0.5 0.638498 0.0039638
1.23036 0.5 -0.253927 0.00408054
1.23036 0.5 0.253927 0.00408999
0.219992 0.5 1.2375 0.00376128
0.219992 0.5 -1.2375 0.0037607
1.25309 0.5 0.121964 0.00411155
1.05695 0.5 0.685452 0.00394605
1.05695 0.5 -0.685452 0.0039338
0.797732 0.5 0.975 0.00383385
0.797732 0.5 -0.975 0.00382814
1.25401 0.5 -0.124599 0.00410618
1.20942 0.5 -0.354909 0.00405653
1.20942 0.5 0.354909 0.00406834
1.24274 0.5 -0.220019 0.00409188
1.24274 0.5 0.220019 0.00410052
0.756814 0.5 -1.0125 0.00381842
0.756813 0.5 1.0125 0.00382339
1.25401 0.5 -0.186898 0.00410212
1.25401 0.5 0.186898 0.00410999
0.411736 0.5 -1.2 0.00377332
0.411736 0.5 1.2 0.00377484
0 0.5 -1.26882 0.00375
0 0.5 1.26882 0.00375
0.0124865 0.5 1.26882 0.0037506
0.0124865 0.5 -1.26882 0.00375057
0.715434 0.5 -1.05 0.00381005
0.715434 0.5 1.05 0.00381445
1.23036 0.5 -0.31741 0.00407462
1.23036 0.5 0.31741 0.00408635
1.04168 0.5 -0.729162 0.00392196
1.04168 0.5 0.729162 0.00393428
1.18772 0.5 -0.459298 0.00403029
1.18772 0.5 0.459298 0.00404516
1.24274 0.5 -0.282882 0.0040864
1.24274 0.5 0.282882 0.00409733
0 0.5 -1.275 0.00375
0 0.5 1.275 0.00375
1.27472 0.5 -0.0306319 0.00412784
1.27472 0.5 0.0306319 0.00412923
1.17463 0.5 0.497015 0.00403323
1.17463 0.5 -0.497015 0.00401777
1.11376 0.5 -0.623806 0.00396893
1.11376 0.5 0.623806 0.0039833
1.13882 0.5 -0.578501 0.00398779
1.13882 0.5 0.578501 0.00400291
0.67013 0.5 -1.0875 0.0038019
0.67013 0.5 1.0875 0.00380566
1.27472 0.5 -0.0918959 0.00412512
1.27472 0.5 0.0918959 0.00412635
1.25401 0.5 -0.249197 0.00409703
1.25401 0.5 0.249197 0.0041073
1.16179 0.5 -0.535284 0.00400605
1.16179 0.5 0.535284 0.0040218
1.20942 0.5 -0.419438 0.00404874
1.20942 0.5 0.419438 0.00406332
0 0.5 -1.28118 0.00375
0 0.5 1.28118 0.00375
0.0124865 0.5 1.28118 0.00375059
0.0124865 0.5 -1.28118 0.00375056
1.27472 0.5 0.15316 0.00412857