# kMean  POINT_DATA 91129
# x  y  z  kMean
0 0 0 0.00563506
0 0.00368111 0 0.00375
0 0.00749587 0 0.00375
0 0.0114491 0 0.00375
0 0.0155459 0 0.00375
0 0.0197915 0 0.00375
0 0.0241911 0 0.00375
0 0.0287506 0 0.00375
0 0.0334755 0 0.00375
0 0.038372 0 0.00375
0 0.0434463 0 0.00375
0 0.0487048 0 0.00375
0 0.0541543 0 0.00375
0 0.0598016 0 0.00375
0 0.0656539 0 0.00375
0 0.0717187 0 0.00375
0.075776 0.00184055 0 0.00988
0.075776 0.00558849 0 0.0034359
0.075776 0.00947248 -3.46945e-18 0.00306154
0.075776 0.0134975 -3.46945e-18 0.00343108
0.075776 0.0176687 3.46945e-18 0.00359104
0 0.0780037 0 0.00375
0.075776 0.0219913 3.46945e-18 0.00365275
0.075776 0.0264709 3.46945e-18 0.00368409
0.075776 0.031113 -3.46945e-18 0.00370213
0.075776 0.0359237 -3.46945e-18 0.00371357
0 0.0845169 0 0.00375
0.075776 0.0409092 0 0.00372135
0.075776 0.0460755 -3.46945e-18 0.00372693
0 0.0912666 0 0.00375
0.075776 0.0514296 -3.46945e-18 0.00373107
0.075776 0.0569779 0 0.00373424
0 0.0982613 0 0.00375
0.075776 0.0627278 0 0.0037368
0.075776 0.0686863 0 0.00373896
0 0.10551 0 0.00375
0.075776 0.0748612 3.46945e-18 0.00374081
0.075776 0.0812603 -3.46945e-18 0.00374239
0 0.113022 0 0.00375
0.075776 0.0878918 3.46945e-18 0.00374372
0 0.120806 0 0.00375
0.075776 0.0947639 3.46945e-18 0.00374484
0.075776 0.101886 -3.46945e-18 0.00374578
0 0.128874 0 0.00375
0.075776 0.109266 3.46945e-18 0.00374656
0 0.137234 0 0.00375
0.075776 0.116914 3.46945e-18 0.0037472
0 0.145897 0 0.00375
0.075776 0.12484 0 0.00374774
0.151552 0 0 0.00617725
0.151552 0.00368111 0 0.00434289
0.151552 0.00749587 0 0.00259798
0.151552 0.0114491 0 0.00293378
0.151552 0.0155459 0 0.00330072
0.151552 0.0197915 0 0.00347812
0.075776 0.133054 0 0.0037482
0.151552 0.0241911 0 0.00356695
0.151552 0.0287506 0 0.00361904
0 0.154876 0 0.00375
0.151552 0.0334755 0 0.00365228
0.151552 0.038372 0 0.00367473
0.151552 0.0434463 0 0.00369058
0.151552 0.0487048 0 0.0037022
0.075776 0.141566 0 0.0037486
0.151552 0.0541543 0 0.00371099
0.151552 0.0598016 0 0.00371784
0 0.16418 0 0.00375
0.151552 0.0656539 0 0.00372331
0.151552 0.0717187 0 0.00372778
0.075776 0.150387 0 0.00374897
0.151552 0.0780037 0 0.00373146
0.151552 0.0845169 0 0.00373453
0 0.173822 0 0.00375
0.075776 0.159528 0 0.00374931
0.151552 0.0912666 0 0.00373708
0.151552 0.0982613 0 0.00373922
0 0.183814 0 0.00375
0.151552 0.10551 0 0.00374103
0.075776 0.169001 3.46945e-18 0.00374963
0.151552 0.113022 0 0.00374258
0.151552 0.120806 0 0.00374392
0 0.194169 0 0.00375
0.075776 0.178818 3.46945e-18 0.00374995
0.151552 0.128874 0 0.00374507
0.075776 0.188992 3.46945e-18 0.00375027
0.151552 0.137234 0 0.00374606
0 0.2049 0 0.00375
0.151552 0.145897 0 0.00374691
0.075776 0.199535 0 0.00375058
0 0.21602 0 0.00375
0.151552 0.154876 0 0.00374765
0.219992 0.00184055 0 0.00275945
0.219992 0.00558849 0 0.00165231
0.219992 0.00947248 -3.46945e-18 0.00234227
0.219992 0.0134975 3.46945e-18 0.00294833
0.219992 0.0176687 0 0.00326478
0.219992 0.0219913 0 0.00342603
0.219993 0.0264709 -3.46945e-18 0.00352055
0.219992 0.031113 -3.46945e-18 0.00358079
0.219992 0.0359238 3.46945e-18 0.00362119
0.151552 0.16418 0 0.0037483
0.075776 0.21046 0 0.00375089
0.219992 0.0409092 3.46945e-18 0.00364939
0.219992 0.0460755 0 0.00366982
0.219993 0.0514296 -3.46945e-18 0.00368511
0.219992 0.0569779 0 0.00369688
0 0.227544 0 0.00375
0.219992 0.0627277 3.46945e-18 0.00370615
0.219992 0.0686863 0 0.00371358
0.151552 0.173822 0 0.00374888
0.219992 0.0748612 3.46945e-18 0.00371962
0.075776 0.221782 0 0.00375118
0.219992 0.0812603 3.46945e-18 0.00372459
0.219992 0.0878917 -3.46945e-18 0.00372871
0.151552 0.183814 0 0.00374942
7.47806e-17 0.239487 0 0.00375
0.219992 0.0947639 3.46945e-18 0.00373214
0.219993 0.101886 3.46945e-18 0.00373504
0.075776 0.233516 0 0.00375145
0.219993 0.109266 0 0.00373752
0.151552 0.194169 0 0.00374992
0.219993 0.116914 0 0.00373969
0 0.251863 0 0.00375
0.219993 0.12484 0 0.00374158
0.151552 0.2049 0 0.00375039
0.075776 0.245675 0 0.00375166
0.219992 0.133054 3.46945e-18 0.00374321
0.219992 0.141565 0 0.00374459
0.151552 0.21602 0 0.00375083
0 0.264688 0 0.00375
0.219992 0.150387 3.46945e-18 0.00374576
0.075776 0.258275 3.46945e-18 0.0037518
0.219992 0.159528 -3.46945e-18 0.00374677
0.151552 0.227544 0 0.00375124
0.219992 0.169001 3.46945e-18 0.00374765
0 0.27798 0 0.00375
0.075776 0.271334 3.46945e-18 0.00375187
0.151552 0.239487 3.70071e-18 0.00375159
0.219992 0.178818 3.46945e-18 0.00374843
0.288433 0 0 0.00183574
0.288433 0.00368111 0 0.00157096
0.288433 0.00749587 0 0.0017864
0.288433 0.0114491 0 0.00258194
0.288433 0.0155459 3.70071e-18 0.00305731
0.288433 0.0197915 0 0.00329138
0.288433 0.0241911 3.70071e-18 0.0034118
0.288433 0.0287506 0 0.00349189
0.219992 0.188991 0 0.00374913
0.288433 0.0334755 0 0.00355008
0.288433 0.038372 0 0.00359275
0.288433 0.0434463 0 0.00362446
7.47806e-17 0.291753 0 0.00375
0.288433 0.0487048 0 0.00364848
0.288433 0.0541543 0 0.00366705
0.151552 0.251863 0 0.0037519
0.288433 0.0598016 3.70071e-18 0.00368166
0.075776 0.284866 0 0.00375188
0.288433 0.0656539 3.70071e-18 0.00369334
0.219992 0.199534 0 0.00374978
0.288433 0.0717187 0 0.00370279
0.288433 0.0780037 0 0.00371052
0.288433 0.0845169 0 0.00371687
0.288433 0.0912666 0 0.00372219
0.219992 0.21046 -3.46945e-18 0.00375037
0.288433 0.0982613 0 0.00372683
0.151552 0.264688 3.70071e-18 0.00375215
0 0.306027 0 0.00375
0.288433 0.10551 0 0.00373095
0.075776 0.29889 3.46945e-18 0.00375184
0.288433 0.113022 0 0.00373459
0.219993 0.221782 0 0.00375092
0.288433 0.120806 0 0.00373776
0.288433 0.128874 0 0.00374053
0.151552 0.27798 0 0.00375235
0.288433 0.137234 0 0.00374291
0 0.320819 0 0.00375
0.219992 0.233515 -3.46945e-18 0.00375141
0.075776 0.313423 -3.46945e-18 0.00375177
0.288433 0.145897 0 0.00374497
0.288433 0.154876 0 0.00374673
0.151552 0.291753 0 0.00375249
0.219993 0.245675 0 0.00375186
0.288433 0.16418 0 0.00374823
0 0.336148 0 0.00375
0.288433 0.173822 0 0.0037495
0.075776 0.328484 -3.46945e-18 0.00375167
0.219993 0.258275 -3.46945e-18 0.00375226
0.151552 0.306027 0 0.0037526
0.288433 0.183814 0 0.00375059
0.288433 0.194169 0 0.00375152
0.219992 0.271334 3.46945e-18 0.00375263
0.350249 0.00184056 -3.46945e-18 0.000979975
0.350249 0.00558849 0 0.000985426
0.350249 0.00947248 3.46945e-18 0.00219664
0.350249 0.0134975 0 0.00284986
0.350249 0.0176687 0 0.00317352
0.350249 0.0219913 0 0.00330914
0.350249 0.0264708 3.46945e-18 0.00340055
0.350249 0.031113 0 0.00347433
0 0.352034 0 0.00375
0.350249 0.0359238 0 0.00353151
0.075776 0.344091 0 0.00375158
0.350249 0.0409091 0 0.00357515
0.350249 0.0460756 3.46945e-18 0.00360863
0.288433 0.2049 0 0.00375233
0.350249 0.0514296 0 0.00363462
0.151552 0.320819 0 0.00375268
0.350249 0.0569779 0 0.0036551
0.350249 0.0627277 3.46945e-18 0.00367144
0.350249 0.0686863 3.46945e-18 0.00368463
0.350249 0.0748612 3.46945e-18 0.00369537
0.350249 0.0812603 0 0.00370418
0.219992 0.284867 0 0.00375294
0.288433 0.21602 0 0.00375303
0.350249 0.0878917 0 0.00371142
0.350249 0.094764 0 0.00371771
0.350249 0.101886 0 0.00372344
0.350249 0.109266 0 0.0037286
0.288433 0.227544 0 0.00375365
0.075776 0.360265 3.46945e-18 0.00375157
0 0.368496 0 0.00375
0.151552 0.336148 0 0.00375274
0.350249 0.116914 3.46945e-18 0.00373313
0.219992 0.29889 0 0.00375322
0.370854 0.0241911 1.54074e-33 0.00336437
0.350249 0.12484 0 0.00373708
0.350249 0.133054 0 0.00374051
0.288433 0.239487 -9.25154e-19 0.00375421
0.350249 0.141566 3.46945e-18 0.00374349
0.350249 0.150387 3.46945e-18 0.00374606
0.288433 0.251863 0 0.00375472
0.219992 0.313423 0 0.00375345
0.151552 0.352034 0 0.00375283
0.075776 0.377027 0 0.00375163
0.350249 0.159528 0 0.00374824
0 0.385557 0 0.00375
0.350249 0.169001 0 0.00375009
0.288433 0.264688 0 0.0037552
0.350249 0.178818 0 0.00375162
0.219992 0.328484 0 0.00375366
0.350249 0.188992 0 0.0037529
0.151552 0.368496 0 0.00375298
0.288433 0.27798 3.70071e-18 0.00375565
0.075776 0.394397 0 0.00375172
0.350249 0.199535 0 0.00375396
7.47806e-17 0.403236 0 0.00375
0.219992 0.344091 0 0.00375388
0.350249 0.21046 -3.46945e-18 0.00375486
0.288433 0.291753 0 0.00375608
0.412065 9.08189e-19 3.08149e-33 0.000802765
0.412065 0.00368111 -2.31298e-18 0.000868598
0.412065 0.00749587 -2.31298e-18 0.00161115
0.412065 0.0114491 -2.31298e-18 0.00261184
0.412065 0.0155459 -2.31298e-18 0.00306804
0.412065 0.0197915 0 0.00325418
0.412065 0.0241911 -3.08149e-33 0.00334065
0.412065 0.0264709 0 0.00337311
0.412065 0.0287506 -2.31298e-18 0.00340557
0.412065 0.0334755 -2.31298e-18 0.00346667
0.412065 0.038372 -2.31298e-18 0.00351912
0.151552 0.385557 0 0.00375318
0.412065 0.0434463 0 0.00356177
0.350249 0.221782 0 0.00375562
0.412065 0.0487048 0 0.0035959
0.412065 0.0541543 -3.08149e-33 0.00362321
0.412065 0.0569779 0 0.00363418
0.412065 0.0598016 -2.31298e-18 0.00364516
0.412065 0.0656539 -2.31298e-18 0.00366293
0.412065 0.0717187 -2.31298e-18 0.00367737
0.075776 0.412396 -3.46945e-18 0.0037518
0.412065 0.0780037 -2.31298e-18 0.0036892
0.288433 0.306027 0 0.00375648
0.412065 0.0845169 -2.31298e-18 0.00369912
0.350249 0.233516 3.46945e-18 0.00375629
0 0.421557 0 0.00375
0.412065 0.0912666 -2.31298e-18 0.00370776
0.219992 0.360265 3.46945e-18 0.00375412
0.412065 0.0982613 0 0.00371555
0.412065 0.10551 0 0.00372261
0.412065 0.113022 -2.31298e-18 0.00372894
0.350249 0.245675 0 0.0037569
0.412065 0.120806 0 0.00373453
0.151552 0.403236 0 0.0037534
0.288433 0.320819 0 0.00375687
0.412065 0.128874 -2.31298e-18 0.00373943
0.412065 0.137234 0 0.0037437
0.350249 0.258275 -3.46945e-18 0.00375747
0.219992 0.377026 0 0.00375441
0.412065 0.145897 -2.31298e-18 0.00374739
0.075776 0.431051 0 0.00375184
0.412065 0.154876 -2.31298e-18 0.00375055
0 0.440544 0 0.00375
0.288433 0.336148 0 0.00375725
0.350249 0.271334 0 0.00375803
0.412065 0.16418 -2.31298e-18 0.00375322
0.412065 0.173822 -2.31298e-18 0.00375548
0.151552 0.421557 0 0.0037536
0.412065 0.183814 -2.31298e-18 0.00375736
0.350249 0.284867 3.46945e-18 0.00375859
0.219992 0.394397 0 0.00375474
0.288433 0.352034 3.70071e-18 0.00375763
0.412065 0.194169 0 0.00375892
0.075776 0.450382 0 0.00375187
0.412065 0.2049 -2.31298e-18 0.00376022
0 0.46022 0 0.00375
0.350249 0.29889 3.46945e-18 0.00375914
0.412065 0.21602 0 0.00376129
0.151552 0.440544 0 0.00375379
0.219993 0.412396 3.46945e-18 0.00375508
0.467897 0.00184056 -3.46945e-18 0.00063792
0.467897 0.00558849 0 0.000886985
0.288433 0.368496 0 0.00375803
0.467897 0.00947248 0 0.0023728
0.467897 0.0134975 0 0.00301572
0.467897 0.0176687 3.46945e-18 0.00322521
0.467897 0.0219913 -3.46945e-18 0.00330706
0.467897 0.0264709 3.46945e-18 0.00334783
0.467897 0.0311131 3.46945e-18 0.003404
0.467897 0.0359238 -3.46945e-18 0.00346188
0.467897 0.038372 0 0.00349134
0.467897 0.0409092 3.46945e-18 0.00351269
0.350249 0.313423 0 0.00375968
0.467897 0.0460755 0 0.00355482
0.467897 0.0514296 3.46945e-18 0.00358913
0.412065 0.227544 -2.31298e-18 0.0037622
0.467897 0.0569779 0 0.00361699
0.467897 0.0627277 -3.46945e-18 0.00363964
0.467897 0.0686863 3.46945e-18 0.0036581
0.467897 0.0748612 0 0.00367314
0.467897 0.0812603 0 0.0036856
0.467897 0.0878918 3.46945e-18 0.00369648
0.075776 0.470415 3.46945e-18 0.00375189
0.412065 0.239487 -2.31298e-18 0.00376298
0.467897 0.0947639 -3.46945e-18 0.00370637
0.467897 0.101886 3.46945e-18 0.00371538
0.350249 0.328483 0 0.00376021
0.467897 0.109266 0 0.00372351
0 0.48061 0 0.00375
0.288433 0.385557 0 0.00375846
0.467897 0.116914 0 0.00373078
0.412065 0.251863 -2.31298e-18 0.00376367
0.219992 0.431051 0 0.00375542
0.467897 0.12484 0 0.0037372
0.151552 0.46022 0 0.00375396
0.467897 0.133054 3.46945e-18 0.00374283
0.467897 0.141566 3.46945e-18 0.00374772
0.412065 0.264688 -2.31298e-18 0.00376431
0.350249 0.344091 -3.46945e-18 0.00376074
0.467897 0.150387 3.46945e-18 0.00375192
0.467897 0.154876 0 0.00375524
0.467897 0.159528 3.46945e-18 0.00375549
0.288433 0.403236 0 0.00375892
0.075776 0.491175 0 0.00375191
0.412065 0.27798 -2.31298e-18 0.00376492
0.467897 0.169001 0 0.00375851
0.467897 0.178818 3.46945e-18 0.00376105
0.219992 0.450382 0 0.00375574
6.73026e-17 0.501741 3.70071e-18 0.00375
0.350249 0.360265 0 0.00376126
0.151552 0.48061 0 0.00375412
0.467897 0.188991 0 0.00376317
0.412065 0.291753 0 0.0037655
0.467897 0.199535 0 0.00376491
0.288433 0.421557 0 0.00375938
0.467897 0.21046 0 0.00376634
0.412065 0.306027 0 0.00376607
0.350249 0.377027 0 0.00376179
0.467897 0.221782 3.46945e-18 0.00376751
0.075776 0.51269 0 0.00375193
0.219993 0.470415 3.46945e-18 0.00375603
0.467897 0.227544 0 0.00376978
0.412065 0.320819 -2.31298e-18 0.00376664
0.467897 0.233515 0 0.0037685
6.73026e-17 0.523639 3.70071e-18 0.00375
0.523729 0 0 0.000546154
0.523729 0.00368111 0 0.000701879
0.523729 0.00749587 -2.31298e-18 0.00168218
0.523729 0.0114491 0 0.00284974
0.523729 0.0155459 0 0.00325786
0.523729 0.0197915 -2.31298e-18 0.00333737
0.151552 0.501741 0 0.00375427
0.523729 0.0241911 0 0.00335424
0.523729 0.0287506 0 0.00337313
0.523729 0.0334755 0 0.00341416
0.523729 0.038372 -3.08149e-33 0.00346357
0.523729 0.0434463 0 0.00351026
0.523729 0.0487048 0 0.00355068
0.523729 0.0541543 0 0.00358456
0.288433 0.440544 0 0.00375984
0.523729 0.0598016 0 0.00361261
0.350249 0.394397 -3.46945e-18 0.00376235
0.523729 0.0656539 0 0.00363573
0.467897 0.245675 0 0.00376934
0.523729 0.0717187 0 0.00365472
0.523729 0.0780037 0 0.00367053
0.523729 0.0845169 0 0.00368431
0.523729 0.0912666 0 0.00369678
0.412065 0.336148 0 0.0037672
0.523729 0.0982613 0 0.00370815
0.523729 0.10551 -2.31298e-18 0.00371845
0.467897 0.258275 -3.46945e-18 0.00377007
0.523729 0.113022 0 0.00372772
0.523729 0.120806 -3.08149e-33 0.00373598
0.219993 0.491176 0 0.0037563
0.523729 0.12484 0 0.00373963
0.523729 0.128874 -2.31298e-18 0.00374327
0.075776 0.534986 0 0.00375197
0.467897 0.271334 3.46945e-18 0.00377075
0.350249 0.412396 -3.46945e-18 0.00376292
0.523729 0.137234 0 0.00374966
0.412065 0.352034 -2.31298e-18 0.00376777
0.288433 0.46022 0 0.00376027
0.523729 0.145897 0 0.00375519
0.151552 0.523639 0 0.00375442
0.523729 0.154876 -3.08149e-33 0.00375994
0 0.546332 0 0.00375
0.523729 0.159528 0 0.00376196
0.467897 0.284867 -3.46945e-18 0.00377138
0.523729 0.16418 -2.31298e-18 0.00376398
0.523729 0.173822 0 0.00376738
0.412065 0.368496 0 0.00376834
0.523729 0.183814 0 0.00377023
0.467897 0.29889 0 0.00377198
0.350249 0.431051 -3.46945e-18 0.00376351
0.219992 0.51269 0 0.00375657
0.523729 0.194169 0 0.00377258
0.288433 0.48061 0 0.00376069
0.523729 0.2049 0 0.0037745
0.467897 0.313423 3.46945e-18 0.00377258
0.075776 0.558091 0 0.00375201
0.412065 0.385557 0 0.00376893
0.523729 0.21602 -3.08149e-33 0.00377608
0.151552 0.546332 0 0.00375457
0 0.569849 0 0.00375
0.350249 0.450382 3.46945e-18 0.00376408
0.523729 0.227544 -3.08149e-33 0.00377736
0.467897 0.328483 0 0.00377317
0.523729 0.231525 1.54074e-33 0.00377772
0.574156 0.00184056 0 0.00046041
0.574156 0.00558849 0 0.000830155
0.574157 0.00947248 0 0.00263195
0.574156 0.0134975 -3.46945e-18 0.00335811
0.574156 0.0176687 -3.46945e-18 0.00341438
0.574156 0.0219913 0 0.0033935
0.574156 0.0264708 -3.46945e-18 0.00336506
0.574156 0.031113 0 0.003376
0.574156 0.0359238 -3.46945e-18 0.00341721
0.574157 0.0409092 0 0.00346561
0.523729 0.239487 3.70071e-18 0.00377842
0.574156 0.0460755 -3.46945e-18 0.00351102
0.574156 0.0514295 0 0.00355055
0.412065 0.403236 0 0.00376954
0.574157 0.0569779 0 0.00358398
0.574156 0.0627277 0 0.0036119
0.574156 0.0686863 0 0.00363501
0.219992 0.534986 0 0.00375683
0.288433 0.501741 0 0.00376108
0.574156 0.0748612 3.46945e-18 0.00365405
0.574156 0.0812603 0 0.00367049
0.467897 0.344091 0 0.00377377
0.574156 0.0878917 3.46945e-18 0.00368554
0.523729 0.251863 0 0.00377931
0.574157 0.0947639 0 0.00369933
0.574156 0.101886 0 0.00371187
0.574156 0.109266 0 0.00372319
0.574156 0.116914 0 0.00373333
0.412065 0.416977 -6.16298e-33 0.00377002
0.350249 0.470415 0 0.00376462
0.523729 0.264688 0 0.00378008
0.075776 0.582034 0 0.00375206
0.574156 0.12484 0 0.00374235
0.574156 0.133054 3.46945e-18 0.00375029
0.412065 0.421557 -2.31298e-18 0.00377017
0.151552 0.569849 0 0.00375472
0.467897 0.360265 -3.46945e-18 0.00377438
0.574157 0.141566 -3.46945e-18 0.00375722
0.523729 0.27798 0 0.00378076
0.574156 0.150386 3.46945e-18 0.00376321
0 0.594219 0 0.00375
0.574156 0.159528 -3.46945e-18 0.00376833
0.574156 0.16418 0 0.00377194
0.288433 0.523639 1.2326e-32 0.00376145
0.574157 0.169001 0 0.00377266
0.523729 0.291753 0 0.00378138
0.219993 0.558091 3.46945e-18 0.00375709
0.467897 0.377026 0 0.003775
0.574156 0.178818 3.46945e-18 0.0037763
0.412065 0.440544 -2.31298e-18 0.0037708
0.350249 0.491175 0 0.00376514
0.574156 0.188992 3.46945e-18 0.00377932
0.523729 0.306027 -3.08149e-33 0.00378197
0.574157 0.199535 0 0.0037818
0.574157 0.21046 0 0.00378381
0.075776 0.606847 0 0.00375211
0.467897 0.394397 0 0.00377564
0.151552 0.594219 0 0.00375488
0.523729 0.320819 0 0.00378254
0.574157 0.221782 -3.46945e-18 0.00378545
0.412065 0.46022 3.08149e-33 0.00377142
0.288433 0.546332 0 0.00376181
0 0.619475 0 0.00375
0.574156 0.233515 3.46945e-18 0.00378677
0.350249 0.51269 3.46945e-18 0.00376563
0.219992 0.582034 3.46945e-18 0.00375734
0.523729 0.336148 0 0.00378312
0.467897 0.412396 0 0.00377631
0.574156 0.245675 0 0.00378785
0.624584 0 0 0.000396145
0.624584 0.00368111 0 0.00060497
0.624584 0.00749587 0 0.00179033
0.624584 0.0114491 0 0.00318049
0.624584 0.0155459 0 0.00359409
0.624584 0.0197915 0 0.00353965
0.624584 0.0241911 -2.31298e-18 0.00344584
0.624584 0.0287506 0 0.00339592
0.624584 0.0334755 0 0.0033973
0.624584 0.038372 0 0.00343001
0.624584 0.0434463 -2.31298e-18 0.00347277
0.624584 0.0487048 0 0.003515
0.624584 0.0541543 0 0.00355287
0.624584 0.0598016 0 0.00358547
0.624584 0.0656539 0 0.00361298
0.624584 0.0717187 0 0.00363603
0.624584 0.0780037 0 0.00365581
0.574157 0.258276 3.46945e-18 0.00378874
0.624584 0.0845169 0 0.00367364
0.523729 0.352034 0 0.0037837
0.624584 0.0912666 0 0.00369006
0.624584 0.0982613 0 0.0037051
0.412065 0.48061 3.08149e-33 0.00377202
0.624584 0.10551 0 0.00371877
0.624584 0.113022 -2.31298e-18 0.00373109
0.574156 0.271334 0 0.00378949
0.624584 0.120806 0 0.00374211
0.467897 0.431051 0 0.00377699
0.075776 0.632561 -3.46945e-18 0.00375217
0.624584 0.128874 0 0.00375189
0.151552 0.619475 0 0.00375504
0.288433 0.569849 0 0.00376216
0.350249 0.534985 0 0.0037661
0.624584 0.137234 -2.31298e-18 0.00376048
0.523729 0.368496 0 0.00378429
0.574156 0.284866 -3.46945e-18 0.00379015
0.624584 0.145897 0 0.00376796
0.467897 0.440544 0 0.00377885
0.624584 0.154876 0 0.00377441
0.219992 0.606847 -3.46945e-18 0.0037576
0 0.645647 0 0.00375
0.624584 0.16418 -3.08149e-33 0.0037799
0.574156 0.29889 -3.46945e-18 0.00379075
0.624584 0.173822 0 0.00378454
0.412065 0.501741 1.54074e-33 0.00377258
0.467897 0.450382 -3.46945e-18 0.00377768
0.523729 0.385557 0 0.00378491
0.624584 0.183814 0 0.00378841
0.624584 0.194169 0 0.0037916
0.574156 0.313423 0 0.00379131
0.624584 0.2049 0 0.00379421
0.350249 0.558091 3.46945e-18 0.00376654
0.288433 0.594219 0 0.0037625
0.624584 0.21602 0 0.00379632
0.523729 0.403236 0 0.00378555
0.574156 0.328483 -3.46945e-18 0.00379186
0.151552 0.645647 0 0.0037552
0.467897 0.470415 3.46945e-18 0.00377834
0.075776 0.659208 0 0.00375224
0.624584 0.227544 0 0.00379801
0.412065 0.523639 0 0.00377311
0.523729 0.41545 3.08149e-33 0.00378599
0.624584 0.239487 3.70071e-18 0.00379936
0.574156 0.344091 0 0.00379241
0.219992 0.632561 0 0.00375785
0.67013 0.00184055 0 0.000335812
0.67013 0.00558849 0 0.000798446
0.67013 0.00947248 0 0.00289359
0.67013 0.0134975 0 0.00381566
0.67013 0.0176687 -3.46945e-18 0.00376281
0.67013 0.0219913 0 0.00357132
0.67013 0.0264708 3.46945e-18 0.00344535
0.67013 0.0311131 0 0.00339415
0.67013 0.0359237 0 0.00340178
0.67013 0.0409092 -3.46945e-18 0.00343682
0.67013 0.0460755 0 0.00347952
0.67013 0.0514296 3.46945e-18 0.00352086
0.523729 0.421557 -2.31298e-18 0.00378621
0.67013 0.056978 0 0.00355784
0 0.67277 0 0.00375
0.67013 0.0627277 0 0.00358971
0.624584 0.251863 0 0.00380045
0.67013 0.0686863 0 0.00361659
0.67013 0.0748612 3.46945e-18 0.00363948
0.67013 0.0812603 0 0.00366001
0.67013 0.0878917 0 0.00367906
0.67013 0.0947639 3.46945e-18 0.00369661
0.574156 0.360265 0 0.00379298
0.67013 0.101886 0 0.00371266
0.523729 0.431051 0 0.00378655
0.624584 0.264688 0 0.00380132
0.467897 0.491175 0 0.00377898
0.67013 0.109266 3.46945e-18 0.00372721
0.350249 0.582034 0 0.00376697
0.67013 0.116914 0 0.00374029
0.67013 0.12484 0 0.00375196
0.67013 0.133054 0 0.00376228
0.288433 0.619475 0 0.00376283
0.624584 0.27798 -3.08149e-33 0.00380205
0.412065 0.546332 1.54074e-33 0.00377361
0.523729 0.440544 -3.08149e-33 0.00378689
0.67013 0.141566 3.46945e-18 0.00377132
0.685312 0.0241911 -7.70372e-34 0.00356459
0.685312 0.0434463 -7.70372e-34 0.00345917
0.67013 0.150387 0 0.00377916
0.574156 0.377026 -3.46945e-18 0.00379357
0.67013 0.159528 0 0.00378588
0.624584 0.291753 0 0.00380267
0.151552 0.67277 0 0.00375536
0.075776 0.686823 0 0.00375231
0.67013 0.169001 0 0.00379159
0.67013 0.178818 0 0.00379638
0.467897 0.51269 0 0.00377958
0.685312 0.113022 -7.70372e-34 0.00373606
0.219992 0.659208 0 0.0037581
0.624584 0.306027 0 0.00380323
0.67013 0.188991 0 0.00380035
0.574156 0.394397 3.46945e-18 0.00379418
0.523729 0.46022 0 0.00378756
0.685312 0.137234 -7.70372e-34 0.0037705
0.67013 0.199535 -3.46945e-18 0.00380361
0.350249 0.606847 0 0.00376738
0 0.700877 0 0.00375
0.624584 0.320819 0 0.00380374
0.67013 0.21046 0 0.00380624
0.412065 0.569849 -2.31298e-18 0.00377408
0.67013 0.221782 -3.46945e-18 0.00380835
0.574157 0.412396 0 0.00379482
0.288433 0.645647 0 0.00376315
0.624584 0.336148 -3.08149e-33 0.00380424
0.67013 0.233515 3.46945e-18 0.00381002
0.467897 0.534986 0 0.00378014
0.523729 0.48061 0 0.00378822
0.624584 0.344091 0 0.00380449
0.67013 0.245675 0 0.00381134
0.715676 4.54095e-19 0 0.000286862
0.715676 0.00368111 0 0.00053809
0.715676 0.00749587 0 0.00190591
0.715676 0.0114491 0 0.00354928
0.715676 0.0155459 0 0.00404181
0.715676 0.0197915 0 0.00386356
0.715676 0.0241911 0 0.00362397
0.715676 0.0287506 0 0.00347981
0.715676 0.0334755 0 0.00342144
0.715676 0.038372 0 0.00342269
0.624584 0.352034 -2.31298e-18 0.00380474
0.715676 0.0434463 0 0.00345237
0.151552 0.700877 0 0.00375552
0.715676 0.0487048 0 0.00349103
0.715676 0.0541543 0 0.00352974
0.574156 0.43105 0 0.00379549
0.715676 0.0598016 0 0.003565
0.67013 0.258275 0 0.00381238
0.715676 0.0656539 0 0.0035957
0.715676 0.0717187 0 0.00362215
0.075776 0.715441 0 0.00375238
0.715676 0.0780037 0 0.00364568
0.715676 0.0845169 0 0.0036674
0.219992 0.686824 0 0.00375834
0.715676 0.0912666 0 0.00368758
0.715676 0.0982613 0 0.00370617
0.67013 0.271334 -3.46945e-18 0.00381321
0.350249 0.632561 -3.46945e-18 0.00376777
0.412065 0.594219 3.08149e-33 0.00377453
0.715676 0.10551 0 0.00372316
0.715676 0.113022 0 0.00373855
0.624584 0.368496 0 0.00380526
0.523729 0.501741 0 0.00378884
0.715676 0.120806 0 0.00375236
0.715676 0.128874 0 0.00376466
0.67013 0.284867 0 0.00381388
0.467897 0.558091 3.46945e-18 0.00378067
0.715676 0.137234 0 0.00377551
0.574156 0.450382 0 0.00379617
0 0.730005 0 0.00375
0.715676 0.145897 0 0.00378498
0.288433 0.67277 0 0.00376345
0.715676 0.154876 0 0.00379317
0.67013 0.29889 0 0.00381444
0.624584 0.385557 0 0.00380581
0.715676 0.16418 -9.25187e-19 0.00380016
0.715676 0.173822 0 0.00380608
0.715676 0.183814 0 0.00381102
0.67013 0.313423 0 0.00381493
0.523729 0.523639 0 0.00378941
0.715676 0.194169 0 0.00381509
0.574156 0.470415 3.46945e-18 0.00379684
0.624584 0.403236 0 0.00380638
0.743101 0.0241911 -7.70372e-34 0.00371838
0.412065 0.619475 3.08149e-33 0.00377494
0.715676 0.2049 0 0.0038184
0.151552 0.730005 0 0.00375567
0.67013 0.328484 3.46945e-18 0.00381539
0.350249 0.659208 0 0.00376813
0.467897 0.582034 0 0.00378116
0.715676 0.21602 0 0.00382106
0.219992 0.715441 0 0.00375857
0.075776 0.745097 -3.46945e-18 0.00375245
0.715676 0.227544 0 0.00382317
0.67013 0.344091 0 0.00381584
0.624584 0.421557 0 0.00380698
0.743101 0.128874 -7.70372e-34 0.00377008
0.715676 0.239487 3.70071e-18 0.00382481
0.574156 0.491175 0 0.00379748
0.756814 0.00184055 0 0.000240677
0.523729 0.546332 0 0.00378995
0.756813 0.00558849 0 0.00078072
0.756813 0.00947248 0 0.00314422
0.756814 0.0134975 -3.46945e-18 0.00432175
0.756814 0.0155459 0 0.00429663
0.756814 0.0176687 0 0.00423854
0.756814 0.0219913 0 0.00385937
0.756814 0.0264709 0 0.00360677
0.756814 0.031113 -3.46945e-18 0.00346617
0.756813 0.0359238 -3.46945e-18 0.00342099
0.288433 0.700877 0 0.00376373
0.756814 0.0409092 -3.46945e-18 0.00343077
0.756813 0.0460755 3.46945e-18 0.00346304
0.756813 0.0514296 0 0.00350174
0.715676 0.251863 0 0.00382609
0.756813 0.0569779 0 0.00353961
0.756814 0.0627277 -3.46945e-18 0.00357384
0.756814 0.0686863 -3.46945e-18 0.00360349
0 0.76019 0 0.00375
0.756814 0.0748612 0 0.00362968
0.67013 0.360265 3.46945e-18 0.0038163
0.756814 0.0812603 -3.46945e-18 0.00365401
0.756814 0.0878917 -3.46945e-18 0.00367677
0.756814 0.0947639 -3.46945e-18 0.0036979
0.715676 0.264688 0 0.00382707
0.756813 0.101886 0 0.00371734
0.624584 0.440544 0 0.0038076
0.756813 0.109266 3.46945e-18 0.00373507
0.756813 0.116914 3.46945e-18 0.00375108
0.412065 0.645647 0 0.00377533
0.467897 0.606847 0 0.00378161
0.756814 0.120806 0 0.00375923
0.756813 0.12484 0 0.00376542
0.715676 0.27798 0 0.00382783
0.756814 0.133054 -3.46945e-18 0.00377814
0.67013 0.377026 -3.46945e-18 0.00381677
0.756814 0.137234 0 0.00378476
0.574156 0.51269 0 0.00379808
0.756813 0.141566 3.46945e-18 0.00378931
0.685312 0.352034 -7.70372e-34 0.00382164
0.743101 0.2049 -7.70372e-34 0.00382767
0.350249 0.686824 0 0.00376848
0.756814 0.150387 0 0.00379903
0.756814 0.154876 0 0.0038043
0.715676 0.291753 0 0.00382843
0.756814 0.159528 -3.46945e-18 0.00380739
0.523729 0.569849 0 0.00379044
0.72743 0.264688 0 0.00383128
0.756814 0.16418 0 0.00381206
0.151552 0.76019 0 0.00375582
0.756813 0.169001 3.46945e-18 0.00381451
0.624584 0.46022 0 0.00380823
0.219993 0.745097 0 0.0037588
0.67013 0.394396 0 0.00381728
0.756813 0.178818 -3.46945e-18 0.00382048
0.715676 0.306027 0 0.00382891
0.075776 0.775831 0 0.00375252
0.756813 0.188991 0 0.00382544
0.756814 0.199535 0 0.00382949
0.715676 0.320819 0 0.00382933
0.574156 0.534985 0 0.00379863
0.288433 0.730005 0 0.003764
0.756813 0.21046 0 0.00383276
0.467897 0.632561 0 0.00378203
0.67013 0.412396 -3.46945e-18 0.00381782
0.624584 0.48061 -3.08149e-33 0.00380884
0.756814 0.221782 0 0.00383535
0.412065 0.67277 3.08149e-33 0.00377569
0.715676 0.336148 0 0.00382971
0 0.791472 0 0.00375
0.756813 0.233516 3.46945e-18 0.00383738
0.523729 0.594219 0 0.00379089
0.624584 0.487654 1.54074e-33 0.00380903
0.756814 0.245675 3.46945e-18 0.00383894
0.350249 0.715441 3.46945e-18 0.0037688
0.67013 0.43105 0 0.00381838
0.715676 0.352034 -9.25187e-19 0.00383009
0.797951 9.08189e-19 -3.08149e-33 0.000203887
0.797951 0.00368111 2.31298e-18 0.00048915
0.797951 0.00749587 2.31298e-18 0.00201624
0.797951 0.0114491 2.31298e-18 0.00391662
0.797951 0.0141803 7.70372e-34 0.00433983
0.797951 0.0155459 0 0.00455144
0.797951 0.0169611 7.70372e-34 0.00446834
0.797951 0.0197915 2.31298e-18 0.00430213
0.797951 0.0219913 0 0.00410467
0.797951 0.0241911 3.08149e-33 0.0039072
0.797951 0.0264709 0 0.00377189
0.797951 0.0287506 -3.08149e-33 0.00363657
0.797951 0.0334755 2.31298e-18 0.0034936
0.797951 0.038372 2.31298e-18 0.00344641
0.797951 0.0434463 2.31298e-18 0.00345213
0.797951 0.0487048 0 0.00348066
0.756813 0.258275 -3.46945e-18 0.00384011
0.797951 0.0541543 2.31298e-18 0.00351631
0.797951 0.0598016 2.31298e-18 0.00355187
0.797951 0.0656539 2.31298e-18 0.00358433
0.574156 0.55809 0 0.00379914
0.624584 0.501741 0 0.00380942
0.797951 0.0717187 2.31298e-18 0.00361337
0.797951 0.0780037 -3.08149e-33 0.00364013
0.797951 0.0845169 2.31298e-18 0.00366536
0.797951 0.0912666 -3.08149e-33 0.003689
0.797951 0.0982613 2.31298e-18 0.00371096
0.756813 0.271334 0 0.003841
0.797951 0.10551 2.31298e-18 0.00373114
0.715676 0.368496 0 0.00383048
0.151552 0.791472 0 0.00375597
0.797951 0.113022 2.31298e-18 0.00374952
0.219992 0.775831 3.46945e-18 0.00375902
0.797951 0.118211 7.70372e-34 0.00376057
0.770526 0.239487 1.54074e-33 0.00384421
0.797951 0.120806 0 0.0037661
0.67013 0.450382 3.46945e-18 0.00381897
0.797951 0.128874 3.08149e-33 0.00378091
0.467897 0.659208 0 0.00378241
0.756813 0.284866 -3.46945e-18 0.00384165
0.743101 0.320819 -7.70372e-34 0.0038391
0.797951 0.137234 0 0.00379401
0.797951 0.141566 0 0.00379975
0.797951 0.145897 -9.25187e-19 0.00380549
0.523729 0.619475 0 0.00379129
0.075776 0.807681 0 0.00375259
0.797951 0.150387 0 0.00381046
0.797951 0.154876 0 0.00381543
0.715676 0.385557 0 0.00383089
0.412065 0.700877 3.08149e-33 0.00377601
0.288433 0.76019 0 0.00376426
0.756813 0.29889 0 0.00384215
0.797951 0.16418 0 0.00382395
0.624584 0.523639 0 0.00380995
0.797951 0.167394 7.70372e-34 0.00382636
0.797951 0.173822 2.31298e-18 0.00383117
0.574156 0.582034 0 0.00379959
0.67013 0.470415 0 0.00381955
0.797951 0.183814 2.31298e-18 0.0038372
0.756813 0.313423 -3.46945e-18 0.00384255
0.797951 0.194169 -9.25187e-19 0.00384217
0.715676 0.403236 0 0.00383133
0.151552 0.807681 0 0.00375604
0.797951 0.197746 -7.70372e-34 0.00384351
0.350249 0.745097 0 0.0037691
0.797951 0.2049 3.08149e-33 0.0038462
0 0.823889 0 0.00375
0.756813 0.328483 -3.46945e-18 0.00384288
0.797951 0.21046 0 0.00384781
0.797951 0.21602 -3.08149e-33 0.00384942
0.797951 0.223703 7.70372e-34 0.00385111
0.797951 0.227544 9.25187e-19 0.00385195
0.624584 0.546332 0 0.00381043
0.715676 0.421557 0 0.0038318
0.67013 0.491176 -3.46945e-18 0.00382011
0.797951 0.231525 7.70372e-34 0.0038526
0.467897 0.686824 -3.46945e-18 0.00378275
0.523729 0.645647 0 0.00379164
0.756813 0.344091 -3.46945e-18 0.00384318
0.822721 0.120806 7.70372e-34 0.00377161
0.797951 0.239487 -3.08149e-33 0.0038539
0.822721 0.137234 7.70372e-34 0.0038011
0.835106 0.00184056 0 0.000168996
0.835106 0.00558849 0 0.000768454
0.835106 0.00947248 0 0.00336614
0.835106 0.0134975 0 0.0048155
0.835107 0.0176687 0 0.004802
0.835106 0.0219913 -3.46945e-18 0.00428249