# nutMean  POINT_DATA 63140
# x  y  z  nutMean
0 0.1 0 0.00525243
0 0.1 -0.0179898 0.0052589
0 0.1 0.0179898 0.00524601
0.0363518 0.1 0.0179898 0.0119278
0.0363518 0.1 -0.0179898 0.0117476
0 0.1 -0.0570102 0.00528381
0 0.1 0.0570102 0.0052451
0.0363518 0.1 0.0570102 0.0119268
0.0363518 0.1 -0.0570102 0.0117725
0 0.1 -0.075 0.00530009
0 0.1 0.075 0.00525057
0.075776 0.1 -0.0375 0.0186043
0.075776 0.1 0.0375 0.0189785
0 0.1 -0.0929898 0.00531702
0 0.1 0.0929898 0.00525605
0.0363518 0.1 -0.0929898 0.0112212
0.0363518 0.1 0.0929898 0.0115712
0 0.1 -0.13201 0.00535124
0 0.1 0.13201 0.00527438
0.075776 0.1 -0.1125 0.0174457
0.075776 0.1 0.1125 0.0182462
0.0363518 0.1 -0.13201 0.0112555
0.0363518 0.1 0.13201 0.0115895
0 0.1 -0.15 0.00536612
0 0.1 0.15 0.00528539
0.150379 0.1 -2.22623e-17 0.0180488
0 0.1 -0.16799 0.00538255
0 0.1 0.16799 0.00529704
0.150379 0.1 -0.075 0.0167342
0.150379 0.1 0.075 0.0177946
0.0363518 0.1 -0.16799 0.0104532
0.0363518 0.1 0.16799 0.0107739
0.075776 0.1 -0.1875 0.0158241
0.075776 0.1 0.1875 0.0165618
0 0.1 -0.20701 0.00540626
0 0.1 0.20701 0.00532189
0.0363518 0.1 -0.20701 0.0104769
0.0363518 0.1 0.20701 0.0107988
0.150379 0.1 -0.15 0.0148519
0.150379 0.1 0.15 0.0161092
0.219993 0.1 -0.0375 0.0171552
0.219993 0.1 0.0375 0.0175186
0 0.1 -0.225 0.0054138
0 0.1 0.225 0.00533338
0 0.1 -0.24299 0.00542296
0 0.1 0.24299 0.00534636
0.0363518 0.1 0.24299 0.00998492
0.0363518 0.1 -0.24299 0.00995893
0.219993 0.1 -0.1125 0.0138237
0.219993 0.1 0.1125 0.0164963
0.150379 0.1 -0.225 0.0138319
0.150379 0.1 0.225 0.0142219
0.075776 0.1 -0.2625 0.0148064
0.075776 0.1 0.2625 0.0149161
0 0.1 -0.28201 0.00542915
0 0.1 0.28201 0.00536118
0.0363518 0.1 -0.28201 0.00996513
0.0363518 0.1 0.28201 0.00999973
0.287374 0.1 -2.89121e-19 0.0136158
0.219992 0.1 0.1875 0.013221
0.219992 0.1 -0.1875 0.0124402
0.287374 0.1 -0.075 0.0126071
0.287374 0.1 0.075 0.0134632
0 0.1 -0.3 0.00542772
0 0.1 0.3 0.0053637
0 0.1 0.31799 0.00536751
0 0.1 -0.31799 0.00542714
0.0363518 0.1 -0.31799 0.00969294
0.0363518 0.1 0.31799 0.00953966
0.287374 0.1 0.15 0.0123176
0.287374 0.1 -0.15 0.011332
0.150379 0.1 -0.3 0.0133461
0.150379 0.1 0.3 0.0132957
0.219993 0.1 0.2625 0.0122975
0.219993 0.1 -0.2625 0.0123727
0.075776 0.1 -0.3375 0.0142507
0.075776 0.1 0.3375 0.0140028
0.350249 0.1 -0.0375 0.00998914
0.350249 0.1 0.0375 0.0101047
0 0.1 -0.35701 0.00542036
0 0.1 0.35701 0.00536605
0.0363518 0.1 -0.35701 0.00968615
0.0363518 0.1 0.35701 0.0095382
0.287374 0.1 -0.225 0.0109305
0.287374 0.1 0.225 0.0111687
0.350249 0.1 -0.1125 0.00968838
0.350249 0.1 0.1125 0.0100163
0 0.1 -0.375 0.00541552
0 0.1 0.375 0.00536239
0 0.1 -0.39299 0.00541114
0 0.1 0.39299 0.00535937
0.0363518 0.1 -0.39299 0.00939269
0.0363518 0.1 0.39299 0.00926216
0.350249 0.1 -0.1875 0.00951411
0.350249 0.1 0.1875 0.00973216
0.219992 0.1 -0.3375 0.0120508
0.219992 0.1 0.3375 0.0120555
0.150379 0.1 0.375 0.012867
0.150379 0.1 -0.375 0.0131345
0.411108 0.1 4.33681e-19 0.00829644
0.287374 0.1 -0.3 0.0108654
0.287374 0.1 0.3 0.0108458
0.411108 0.1 -0.075 0.00818557
0.411108 0.1 0.075 0.00831273
0.075776 0.1 -0.4125 0.013653
0.075776 0.1 0.4125 0.0134392
0 0.1 0.43201 0.00534724
0 0.1 -0.43201 0.00539286
0.0363518 0.1 0.43201 0.00925002
0.0363518 0.1 -0.43201 0.00937442
0.411108 0.1 -0.15 0.00806491
0.411108 0.1 0.15 0.00822783
0.350249 0.1 -0.2625 0.00952041
0.350249 0.1 0.2625 0.00954826
0 0.1 -0.45 0.00538126
0 0.1 0.45 0.0053398
0.219992 0.1 0.4125 0.0120339
0.219992 0.1 -0.4125 0.0126464
0 0.1 -0.46799 0.0053697
0 0.1 0.46799 0.00533265
0.411108 0.1 -0.225 0.00803943
0.411108 0.1 0.225 0.00812077
0.467897 0.1 -0.0375 0.00660481
0.467897 0.1 0.0375 0.00662577
0.0363518 0.1 0.46799 0.00898316
0.0363518 0.1 -0.46799 0.00909381
0.287374 0.1 -0.375 0.0109998
0.287374 0.1 0.375 0.0108324
0.150379 0.1 0.45 0.0129896
0.150379 0.1 -0.45 0.0132534
0.467897 0.1 0.1125 0.00664254
0.467897 0.1 -0.1125 0.00659017
0.350249 0.1 -0.3375 0.00963315
0.350249 0.1 0.3375 0.0095926
0.075776 0.1 -0.4875 0.0130827
0.075776 0.1 0.4875 0.0128974
0.467897 0.1 0.1875 0.00664974
0.467897 0.1 -0.1875 0.00658771
0 0.1 -0.50701 0.00534344
0 0.1 0.50701 0.00531083
0.0363518 0.1 -0.50701 0.00906755
0.0363518 0.1 0.50701 0.00896133
0.411108 0.1 0.3 0.00810965
0.411108 0.1 -0.3 0.00811338
0.522865 0.1 1.41031e-17 0.00570274
0 0.1 -0.525 0.00533113
0 0.1 0.525 0.00529848
0.522865 0.1 -0.075 0.00570014
0.522865 0.1 0.075 0.0057174
0.287374 0.1 0.45 0.0113075
0.287374 0.1 -0.45 0.0114715
0.219992 0.1 0.4875 0.0135974
0.219992 0.1 -0.4875 0.0136352
0.467897 0.1 -0.2625 0.00665282
0.467897 0.1 0.2625 0.00667201
0.350249 0.1 -0.4125 0.00978804
0.350249 0.1 0.4125 0.00974949
0 0.1 -0.54299 0.00531831
0 0.1 0.54299 0.0052859
0.522865 0.1 0.15 0.00573879
0.522865 0.1 -0.15 0.00571316
0.0363518 0.1 0.54299 0.00872338
0.0363518 0.1 -0.54299 0.00882066
0.150379 0.1 -0.525 0.0132501
0.150379 0.1 0.525 0.0132338
0.411108 0.1 -0.375 0.0082475
0.411108 0.1 0.375 0.00821235
0.075776 0.1 -0.5625 0.012576
0.075776 0.1 0.5625 0.0124114
0.522865 0.1 -0.225 0.00575736
0.522865 0.1 0.225 0.00577139
0.574156 0.1 0.0375 0.00482458
0.574157 0.1 -0.0375 0.00482509
0.467897 0.1 -0.3375 0.00676498
0.467897 0.1 0.3375 0.00674144
0 0.1 -0.58201 0.00529274
0 0.1 0.58201 0.00526007
0.0363518 0.1 -0.58201 0.00879509
0.0363518 0.1 0.58201 0.00869754
0.574157 0.1 -0.1125 0.00484853
0.574157 0.1 0.1125 0.00484634
0.287374 0.1 -0.525 0.0118024
0.287374 0.1 0.525 0.0118974
0 0.1 -0.6 0.00528152
0 0.1 0.6 0.00524874
0.350249 0.1 0.4875 0.00998557
0.350249 0.1 -0.4875 0.00996897
0.522865 0.1 -0.3 0.00584537
0.522865 0.1 0.3 0.00582878
0.219992 0.1 -0.5625 0.0136652
0.219992 0.1 0.5625 0.0139765
0.574156 0.1 -0.1875 0.00489256
0.574156 0.1 0.1875 0.00488535
0.411108 0.1 0.45 0.00839559
0.411108 0.1 -0.45 0.00842063
0 0.1 -0.61799 0.00526958
0 0.1 0.61799 0.00523683
0.150379 0.1 -0.6 0.0129726
0.150379 0.1 0.6 0.0130447
0.0363518 0.1 -0.61799 0.00858053
0.0363518 0.1 0.61799 0.0084888
0.467897 0.1 -0.4125 0.00692337
0.467897 0.1 0.4125 0.00688301
0.623803 0.1 2.34188e-17 0.00429843
0.623803 0.1 0.075 0.00430699
0.623803 0.1 -0.075 0.00431287
0.574156 0.1 0.2625 0.0049458
0.574156 0.1 -0.2625 0.00496183
0.623803 0.1 0.15 0.00433658
0.623803 0.1 -0.15 0.00434923
0.075776 0.1 0.6375 0.0119816
0.075776 0.1 -0.6375 0.0121341
0.522865 0.1 -0.375 0.00597383
0.522865 0.1 0.375 0.00593208
0 0.1 0.65701 0.00521397
0 0.1 -0.65701 0.00524653
0.0363518 0.1 0.65701 0.00846595
0.0363518 0.1 -0.65701 0.00855748
0.350249 0.1 0.5625 0.0102023
0.350249 0.1 -0.5625 0.0101065
0.623803 0.1 0.225 0.00438612
0.623803 0.1 -0.225 0.00440754
0.287374 0.1 -0.6 0.0118178
0.287374 0.1 0.6 0.012019
0.574157 0.1 -0.3375 0.00506767
0.574157 0.1 0.3375 0.00502244
0.411108 0.1 0.525 0.00862061
0.411108 0.1 -0.525 0.00860257
0.67013 0.1 0.0375 0.00378771
0.67013 0.1 -0.0375 0.00379324
0.219992 0.1 -0.6375 0.0134557
0.219993 0.1 0.6375 0.0137313
0 0.1 -0.675 0.00523654
0 0.1 0.675 0.00520432
0.467897 0.1 -0.4875 0.00712323
0.467897 0.1 0.4875 0.00708437
0.67013 0.1 -0.1125 0.00382135
0.67013 0.1 0.1125 0.00380639
0.522865 0.1 0.45 0.00608957
0.522865 0.1 -0.45 0.00614089
0.150379 0.1 0.675 0.0127061
0.150379 0.1 -0.675 0.0126638
0.623803 0.1 0.3 0.00445678
0.623803 0.1 -0.3 0.00449297
0 0.1 -0.69299 0.00522578
0 0.1 0.69299 0.00519398
0.0363518 0.1 -0.69299 0.00837729
0.0363518 0.1 0.69299 0.0082889
0.67013 0.1 -0.1875 0.00387101
0.67013 0.1 0.1875 0.00384532
0.574156 0.1 0.4125 0.00514847
0.574157 0.1 -0.4125 0.00520604
0.714971 0.1 -2.8382e-17 0.00344269
0.075776 0.1 -0.7125 0.0117628
0.075776 0.1 0.7125 0.0116165
0.714971 0.1 -0.075 0.00345973
0.714971 0.1 0.075 0.00344794
0.67013 0.1 0.2625 0.00390505
0.67013 0.1 -0.2625 0.00394115
0.411108 0.1 -0.6 0.00876037
0.411108 0.1 0.6 0.0088289
0.350249 0.1 0.6375 0.0103286
0.350249 0.1 -0.6375 0.0101978
0.623803 0.1 0.375 0.00455488
0.623803 0.1 -0.375 0.00460879
0.714971 0.1 -0.15 0.00349785
0.714971 0.1 0.15 0.00347478
0.467897 0.1 -0.5625 0.00733232
0.467897 0.1 0.5625 0.0073324
0 0.1 -0.73201 0.00520576
0 0.1 0.73201 0.00517481
0.0363518 0.1 0.73201 0.00826973
0.0363518 0.1 -0.73201 0.00835727
0.287374 0.1 -0.675 0.0117586
0.287374 0.1 0.675 0.0119343
0.522865 0.1 -0.525 0.0063375
0.522865 0.1 0.525 0.00629259
0.219993 0.1 -0.7125 0.0132341
0.219992 0.1 0.7125 0.0134112
0.714971 0.1 -0.225 0.00355671
0.714971 0.1 0.225 0.00352139
0 0.1 0.75 0.005167
0 0.1 -0.75 0.00519746
0.67013 0.1 -0.3375 0.00403782
0.67013 0.1 0.3375 0.00399073
0.574156 0.1 -0.4875 0.0053791
0.574157 0.1 0.4875 0.00531098
0.756813 0.1 0.0375 0.00310241
0.756814 0.1 -0.0375 0.00310963
0.150379 0.1 0.746002 0.0123889
0.150379 0.1 -0.75 0.0123906
0.756813 0.1 -0.1125 0.00313694
0.756813 0.1 0.1125 0.00311756
0 0.1 0.76799 0.00515846
0 0.1 -0.76799 0.00518838
0.0363518 0.1 0.76799 0.00812544
0.0363518 0.1 -0.76799 0.00821026
0.623803 0.1 -0.45 0.00475504
0.623803 0.1 0.45 0.0046874
0.714971 0.1 -0.3 0.0036362
0.714971 0.1 0.3 0.0035905
0.756814 0.1 -0.1875 0.00318435
0.756814 0.1 0.1875 0.00315229
0.67013 0.1 -0.4125 0.00416071
0.67013 0.1 0.4125 0.00409507
0.411108 0.1 0.675 0.00899393
0.411108 0.1 -0.675 0.00889944
0.467897 0.1 0.6375 0.00757269
0.467897 0.1 -0.6375 0.00752233
0.075776 0.1 0.7875 0.0113187
0.075776 0.1 -0.7875 0.0114597
0.350249 0.1 -0.7125 0.0102863
0.350249 0.1 0.7125 0.0104101
0.522865 0.1 -0.6 0.00654766
0.522865 0.1 0.6 0.00652351
0.797314 0.1 -3.59473e-17 0.00286003
0.287374 0.1 0.746002 0.0118584
0.797314 0.1 -0.075 0.00287661
0.797314 0.1 0.075 0.0028633
0.756814 0.1 -0.2625 0.00325268
0.756814 0.1 0.2625 0.00320552
0.287374 0.1 -0.75 0.0117039
0.574156 0.1 -0.5625 0.0055844
0.574156 0.1 0.5625 0.00551342
0 0.1 0.80701 0.00514324
0 0.1 -0.80701 0.00517201
0.714971 0.1 -0.375 0.00373944
0.714971 0.1 0.375 0.00367998
0.0363518 0.1 0.80701 0.00811023
0.0363518 0.1 -0.80701 0.00819389
0.797314 0.1 -0.15 0.00291202
0.797314 0.1 0.15 0.00288623
0.623803 0.1 -0.525 0.00493252
0.623803 0.1 0.525 0.00485562
0.219992 0.1 0.7875 0.0131341
0.219992 0.1 -0.7875 0.0130305
0.149792 0.1 0.80701 0.012189
0 0.1 0.825 0.0051374
0 0.1 -0.825 0.00516553
0.797314 0.1 -0.225 0.00296659
0.797314 0.1 0.225 0.00292723
0.756813 0.1 -0.3375 0.00333574
0.756813 0.1 0.3375 0.00328354
0.67013 0.1 0.4875 0.00423319
0.67013 0.1 -0.4875 0.00431215
0.835106 0.1 -0.0375 0.00262471
0.835106 0.1 0.0375 0.0026175
0.150379 0.1 -0.825 0.0121591
0.835106 0.1 -0.1125 0.00264934
0.835106 0.1 0.1125 0.00262988
0 0.1 -0.84299 0.00515826
0 0.1 0.84299 0.00513079
0.0363518 0.1 -0.84299 0.00807774
0.0363518 0.1 0.84299 0.00799738
0.714971 0.1 -0.45 0.00386952
0.714971 0.1 0.45 0.00379362
0.411108 0.1 0.746002 0.00915169
0.797314 0.1 -0.3 0.00303727
0.797314 0.1 0.3 0.00298807
0.467897 0.1 -0.7125 0.00770355
0.467897 0.1 0.7125 0.00778011
0.522865 0.1 0.675 0.00675875
0.522865 0.1 -0.675 0.00676684
0.411108 0.1 -0.75 0.00905231
0.835106 0.1 -0.1875 0.00269173
0.835107 0.1 0.1875 0.00265949
0.286844 0.1 0.80701 0.0117701
0.574156 0.1 0.6375 0.00574755
0.574157 0.1 -0.6375 0.00581928
0.350249 0.1 -0.7875 0.0103894
0.350249 0.1 0.7875 0.0104859
0.756813 0.1 -0.4125 0.0034465
0.756814 0.1 0.4125 0.00337377
0.623803 0.1 -0.6 0.00514009
0.623803 0.1 0.6 0.00505716
0.075776 0.1 0.8625 0.0110858
0.075776 0.1 -0.8625 0.0112201
0.871687 0.1 -3.2767e-18 0.00243816
0.287374 0.1 -0.825 0.0116667
0.871687 0.1 -0.075 0.00245338
0.871687 0.1 0.075 0.00244024
0.67013 0.1 -0.5625 0.00449316
0.67013 0.1 0.5625 0.00440415
0.835106 0.1 0.2625 0.00270608
0.835106 0.1 -0.2625 0.00275208
0.797314 0.1 -0.375 0.00312831
0.797314 0.1 0.375 0.00306831
0 0.1 -0.88201 0.00514584
0 0.1 0.88201 0.00511968
0.0363518 0.1 0.88201 0.00798627
0.0363518 0.1 -0.88201 0.00806532
0.871687 0.1 0.15 0.00245952
0.871687 0.1 -0.15 0.00248495
0.714971 0.1 0.525 0.0039385
0.714971 0.1 -0.525 0.00402679
0.219993 0.1 0.8625 0.0129146
0.219992 0.1 -0.8625 0.0128464
0 0.1 0.9 0.00511582
0 0.1 -0.9 0.00514136
0.756813 0.1 0.4875 0.00349617
0.756814 0.1 -0.4875 0.00358223
0.871687 0.1 0.225 0.00249493
0.871687 0.1 -0.225 0.00253296
0.835106 0.1 -0.3375 0.00282337
0.835106 0.1 0.3375 0.00277184
0.41063 0.1 0.80701 0.00924883
0.90582 0.1 -0.0375 0.00226333
0.905821 0.1 0.0375 0.00225638
0.522865 0.1 0.746002 0.00699944
0.150379 0.1 0.9 0.0119332
0.90582 0.1 0.1125 0.00226651
0.905821 0.1 -0.1125 0.00228544
0.522865 0.1 -0.75 0.00701122
0.574156 0.1 0.7125 0.00600527
0.574156 0.1 -0.7125 0.00608598
0.797314 0.1 -0.45 0.00324433
0.797314 0.1 0.45 0.00316802
0.467897 0.1 -0.7875 0.00793611
0.467897 0.1 0.7875 0.0079731
0.150379 0.1 -0.903998 0.012008
0 0.1 0.91799 0.00511117
0 0.1 -0.91799 0.00513606
0.0363518 0.1 0.91799 0.00790202
0.0363518 0.1 -0.91799 0.00797713
0.623803 0.1 0.675 0.00528634
0.623803 0.1 -0.675 0.00537763
0.411108 0.1 -0.825 0.00923996
0.871687 0.1 0.3 0.00254706
0.871687 0.1 -0.3 0.00259663
0.67013 0.1 -0.6375 0.00470316
0.67013 0.1 0.6375 0.00460409
0.90582 0.1 -0.1875 0.0023227
0.90582 0.1 0.1875 0.00229158
0.350249 0.1 0.8625 0.0105816
0.350249 0.1 -0.8625 0.0105105
0.835106 0.1 -0.4125 0.00292274
0.835106 0.1 0.4125 0.00285902
0.714971 0.1 -0.6 0.00421203
0.714971 0.1 0.6 0.00411191
0.93886 0.1 -1.15648e-17 0.00215953
0.075776 0.1 0.9375 0.0109117
0.075776 0.1 -0.9375 0.011038
0.93886 0.1 0.075 0.00216125
0.93886 0.1 -0.075 0.00217306
0.756813 0.1 0.5625 0.0036449
0.756814 0.1 -0.5625 0.00374375
0.905821 0.1 -0.2625 0.00237492
0.905821 0.1 0.2625 0.00233207
0.287374 0.1 0.9 0.011706
0.287374 0.1 -0.903998 0.0116317
0.871687 0.1 0.375 0.00261841
0.871687 0.1 -0.375 0.00267776
0.93886 0.1 -0.15 0.00220083
0.93886 0.1 0.15 0.00217804
0.797314 0.1 0.525 0.00329234
0.797314 0.1 -0.525 0.00338348
0 0.1 0.95701 0.00510421
0 0.1 -0.95701 0.00512796
0.0363518 0.1 0.95701 0.00789506
0.0363518 0.1 -0.95701 0.00796903
0.522433 0.1 0.80701 0.00718507
0.219992 0.1 0.9375 0.012731
0.219992 0.1 -0.9375 0.0127122
0.93886 0.1 0.225 0.00220899
0.93886 0.1 -0.225 0.0022427
0.90582 0.1 0.3375 0.00238795
0.905821 0.1 -0.3375 0.00244582
0.835106 0.1 -0.4875 0.00304138
0.835107 0.1 0.4875 0.00295846
0.969689 0.1 -0.0375 0.00206422
0.969689 0.1 0.0375 0.00205838
0.61613 0.1 0.75 0.00554046
0.574156 0.1 -0.7875 0.00637957
0.574156 0.1 0.7875 0.00628576
0 0.1 0.975 0.00510238
0 0.1 -0.975 0.00512567
0.623803 0.1 -0.75 0.00564502
0.969689 0.1 -0.1125 0.00208347
0.969689 0.1 0.1125 0.00206792
0.522865 0.1 -0.825 0.00728767
0.67013 0.1 0.7125 0.00483027
0.67013 0.1 -0.7125 0.00494262
0.871687 0.1 -0.45 0.00277962
0.871687 0.1 0.45 0.00270498
0.467897 0.1 0.8625 0.00820216
0.467897 0.1 -0.8625 0.00822365
0.714971 0.1 -0.675 0.00442569
0.714971 0.1 0.675 0.00431206
0.93886 0.1 -0.3 0.00230008
0.93886 0.1 0.3 0.00225426
0.150379 0.1 0.975 0.0117797
0.150379 0.1 -0.975 0.0118409
0.969689 0.1 -0.1875 0.00211602
0.969689 0.1 0.1875 0.00209034
0.411108 0.1 0.9 0.00946306
0.756813 0.1 0.6375 0.00381978
0.756814 0.1 -0.6375 0.00393287
0.990306 0.1 -2.19732e-17 0.00198289
0 0.1 0.99299 0.00509973
0 0.1 -0.99299 0.00512252
0.411108 0.1 -0.903998 0.00941117
0.990306 0.1 -0.075 0.00199486
0.990306 0.1 0.075 0.00198454
0.0363518 0.1 0.99299 0.00783597
0.0363518 0.1 -0.99299 0.00790656
0.90582 0.1 -0.4125 0.00252902
0.905821 0.1 0.4125 0.00246483
0.797314 0.1 -0.6 0.00354837
0.797314 0.1 0.6 0.00344267
0.350249 0.1 0.9375 0.0106942
0.350249 0.1 -0.9375 0.0106488
0.990306 0.1 0.15 0.0019998
0.990306 0.1 -0.15 0.00201968
0.969689 0.1 -0.2625 0.00216162
0.969689 0.1 0.2625 0.00212624
0.835106 0.1 -0.5625 0.00318267
0.835106 0.1 0.5625 0.00308588
0.93886 0.1 -0.375 0.00237242
0.93886 0.1 0.375 0.0023159
0.075776 0.1 1.0125 0.0107894
0.075776 0.1 -1.0125 0.0109089
0.990306 0.1 -0.225 0.00205748
0.990306 0.1 0.225 0.00202796
0.287374 0.1 0.975 0.0116901
0.287374 0.1 -0.975 0.0116738
0.871687 0.1 -0.525 0.00290428
0.871687 0.1 0.525 0.00281175
1.02149 0.1 -0.0369628 0.00183744
1.02149 0.1 0.0369628 0.00183243
0.969689 0.1 -0.3375 0.00222258
0.969689 0.1 0.3375 0.0021752
1.02149 0.1 -0.110888 0.00185351
1.02149 0.1 0.110888 0.00183983
0.90582 0.1 0.4875 0.00254799
0.90582 0.1 -0.4875 0.00263564
0.623803 0.1 0.819003 0.00570312
0 0.1 1.03201 0.00509688
0 0.1 -1.03201 0.00511861
0.0363518 0.1 1.03201 0.00783312
0.0363518 0.1 -1.03201 0.00790264
0.67013 0.1 -0.7875 0.00521333
0.67013 0.1 0.7875 0.00508335
0.623803 0.1 -0.825 0.00593487
0.990306 0.1 -0.3 0.00210935
0.990306 0.1 0.3 0.0020692
0.219992 0.1 -1.0125 0.0126207
0.219993 0.1 1.0125 0.0125978
0.574156 0.1 0.8625 0.00658914
0.574157 0.1 -0.8625 0.00667122
0.714971 0.1 -0.75 0.0046699
0.714971 0.1 0.75 0.00453838
1.02149 0.1 0.184814 0.001859
1.02149 0.1 -0.184814 0.00188146
0.756814 0.1 -0.7125 0.00414962
0.756814 0.1 0.7125 0.00402031
0.522865 0.1 0.9 0.00752467
0.93886 0.1 -0.45 0.00246903
0.93886 0.1 0.45 0.00239173
1.04168 0.1 0 0.00176454
1.04168 0.1 -0.0729162 0.00177397
1.04168 0.1 0.0729162 0.00176534
0.522865 0.1 -0.903998 0.00753698
0.797314 0.1 -0.675 0.00374081
0.797314 0.1 0.675 0.00361783
0.467897 0.1 0.9375 0.00847187
0.467897 0.1 -0.9375 0.00853729
0 0.1 1.05 0.00509703
0 0.1 -1.05 0.00511822
0.835106 0.1 -0.6375 0.00335096
0.835106 0.1 0.6375 0.00323693
1.04168 0.1 -0.145832 0.00179319
1.04168 0.1 0.145832 0.00177667
1.02149 0.1 -0.25874 0.00192187
1.02149 0.1 0.25874 0.00189027
0.969689 0.1 -0.4125 0.00229713
0.969689 0.1 0.4125 0.00224023
0.411108 0.1 0.975 0.00966849
0.411108 0.1 -0.975 0.00969441
0.871687 0.1 -0.6 0.0030543
0.871687 0.1 0.6 0.00294524
1.0579 0.1 -0.0360525 0.00171599
1.0579 0.1 0.0360525 0.00171153
0.990306 0.1 -0.375 0.0021763
0.990306 0.1 0.375 0.00212479
0.150379 0.1 1.05 0.0116734
0.150379 0.1 -1.05 0.0117516
1.0579 0.1 0.108157 0.00171679
1.0579 0.1 -0.108157 0.00172868
1.04168 0.1 -0.218749 0.00182307
1.04168 0.1 0.218749 0.00179833
0.90582 0.1 -0.5625 0.00276801
0.90582 0.1 0.5625 0.00266542
0 0.1 -1.06799 0.00511691
0 0.1 1.06799 0.00509631
0.0363518 0.1 -1.06799 0.00786128
0.0363518 0.1 1.06799 0.00779611
0.350249 0.1 1.0125 0.0108224
0.350249 0.1 -1.0125 0.0107995
1.0579 0.1 -0.180262 0.00175006
1.0579 0.1 0.180262 0.00173063
1.02149 0.1 -0.332665 0.00197642
1.02149 0.1 0.332665 0.00193407
0.93886 0.1 -0.525 0.00258933
0.93886 0.1 0.525 0.00249188
1.08012 0.1 5.49329e-18 0.00165591
1.04168 0.1 -0.291665 0.00186474
1.04168 0.1 0.291665 0.00183087
1.08012 0.1 0.0709941 0.00165643
1.08012 0.1 -0.0709941 0.00166376
0.969689 0.1 -0.4875 0.00241909
0.96969 0.1 0.4875 0.00231868
1.0579 0.1 0.252367 0.00175384
1.0579 0.1 -0.252367 0.00178142
0.990306 0.1 -0.45 0.00227111
0.990306 0.1 0.45 0.00219573
0.287374 0.1 -1.05 0.0117205
0.287374 0.1 1.05 0.0117049
0.714971 0.1 0.821002 0.0047641
1.08012 0.1 -0.141988 0.0016793
1.08012 0.1 0.141988 0.00166544
0.075776 0.1 1.0875 0.0107126
0.075776 0.1 -1.0875 0.0108232
0.714971 0.1 -0.825 0.00494764
0.756813 0.1 -0.7875 0.00440021
0.756814 0.1 0.7875 0.00424669
0.67013 0.1 -0.8625 0.00551685
0.67013 0.1 0.8625 0.00536346
0.797314 0.1 -0.75 0.00396276
0.797314 0.1 0.75 0.00381837
0.623803 0.1 0.9 0.00611822
0.835106 0.1 -0.7125 0.00354716
0.835106 0.1 0.7125 0.00341191
0.623803 0.1 -0.903998 0.00619739
0.574156 0.1 0.9375 0.00689709
0.574156 0.1 -0.9375 0.00696386
1.02149 0.1 -0.406591 0.00204863
1.02149 0.1 0.406591 0.00199213
1.08012 0.1 -0.212982 0.00170338
1.08012 0.1 0.212982 0.00168264
1.10076 0.1 -0.0349809 0.00160509
1.10076 0.1 0.0349809 0.00160141
0.871687 0.1 -0.675 0.00323255
0.871687 0.1 0.675 0.00310169
1.04168 0.1 -0.364581 0.00192072
1.04168 0.1 0.364581 0.00187519
1.10076 0.1 -0.104943 0.00161595
1.10076 0.1 0.104943 0.00160664
0.522865 0.1 0.975 0.00781924
0.522865 0.1 -0.975 0.00790759
1.0579 0.1 -0.324472 0.0018241
1.0579 0.1 0.324472 0.001787
0 0.1 -1.10701 0.00511663
0 0.1 1.10701 0.00509729
0.0363518 0.1 1.10701 0.00779709
0.0363518 0.1 -1.10701 0.007861
0.90582 0.1 0.6375 0.0028038
0.905821 0.1 -0.6375 0.0029264
0.219992 0.1 1.0875 0.0125055
0.219992 0.1 -1.0875 0.0125683
0.93886 0.1 0.6 0.00261808
0.93886 0.1 -0.6 0.00272533
1.10076 0.1 -0.174905 0.00163425
1.10076 0.1 0.174905 0.00161919
0.467897 0.1 1.0125 0.00877648
0.467897 0.1 -1.0125 0.00887815
1.08012 0.1 -0.283976 0.00173719
1.08012 0.1 0.283976 0.00170876
1.11928 0.1 3.93204e-18 0.00156408
0.990306 0.1 -0.525 0.00238358
0.990306 0.1 0.525 0.00229237
0.96969 0.1 -0.5625 0.00253929
0.969689 0.1 0.5625 0.00244028
1.11928 0.1 -0.0690357 0.00157075
1.11928 0.1 0.0690357 0.00156472
0 0.1 1.125 0.00509918
0 0.1 -1.125 0.00511791
0.411108 0.1 -1.05 0.00994584
0.411108 0.1 1.05 0.00989513
1.10076 0.1 0.244866 0.00163992
1.10076 0.1 -0.244866 0.00166121
1.11928 0.1 -0.138072 0.00158402
1.11928 0.1 0.138072 0.00157279
1.02149 0.1 0.480517 0.00206798
1.02149 0.1 -0.480517 0.0021449
1.0579 0.1 -0.396577 0.00188193
1.0579 0.1 0.396577 0.00183135
1.04168 0.1 -0.437497 0.00199551
1.04168 0.1 0.437497 0.00193409
0.150379 0.1 1.125 0.011609
0.150379 0.1 -1.125 0.0117002
0.714971 0.1 0.88201 0.00479536
1.08012 0.1 0.354971 0.00174445
1.08012 0.1 -0.354971 0.00178297
1.11928 0.1 -0.207107 0.00160463
1.11928 0.1 0.207107 0.00158791
0.350249 0.1 -1.0875 0.0109685
0.350249 0.1 1.0875 0.0109675
0 0.1 1.14299 0.00510015
0 0.1 -1.14299 0.00511821
0.0363518 0.1 1.14299 0.00777794
0.0363518 0.1 -1.14299 0.00783677
1.14316 0.1 -0.0339211 0.00150998
1.14316 0.1 0.0339211 0.00150694
0.797314 0.1 0.821002 0.00404006
1.10076 0.1 -0.314829 0.00169778
1.10076 0.1 0.314829 0.00166941
0.797314 0.1 -0.825 0.00421675
0.756814 0.1 -0.8625 0.00468683
0.756814 0.1 0.8625 0.00449994
1.14316 0.1 -0.101763 0.00151875
1.14316 0.1 0.101763 0.00151101
0.835106 0.1 -0.7875 0.00377211
0.835106 0.1 0.7875 0.00361296
0.871687 0.1 -0.75 0.00343382
0.871687 0.1 0.75 0.00328375
0.67013 0.1 0.9375 0.00566738
0.67013 0.1 -0.9375 0.00584902
0.90582 0.1 -0.7125 0.00311674
0.905821 0.1 0.7125 0.00296558
0.714971 0.1 -0.903998 0.00521674
1.11928 0.1 0.276143 0.0016109
1.11928 0.1 -0.276143 0.00163364
1.14316 0.1 0.169605 0.00152104
1.14316 0.1 -0.169605 0.00153341
0.93886 0.1 -0.675 0.00287827
0.93886 0.1 0.675 0.00276046
1.15704 0.1 0 0.00148021
1.0579 0.1 0.468682 0.00189113
1.0579 0.1 -0.468682 0.00195649
0.623803 0.1 0.975 0.00642848
0.623803 0.1 -0.975 0.00657253
0.990306 0.1 0.6 0.00241322
0.990306 0.1 -0.6 0.002506
1.15704 0.1 -0.0671479 0.00148579
1.15704 0.1 0.0671479 0.00148072
1.04168 0.1 -0.510414 0.0020776
1.04168 0.1 0.510414 0.00201009
0.969689 0.1 -0.6375 0.00267279
0.969689 0.1 0.6375 0.00256776
1.08012 0.1 0.425965 0.00179222
1.08012 0.1 -0.425965 0.00184359
0.287374 0.1 -1.125 0.011808
0.287374 0.1 1.125 0.0117584
1.02149 0.1 -0.554443 0.00223733
1.02149 0.1 0.554443 0.00216548
0.574156 0.1 1.0125 0.00719316
0.574156 0.1 -1.0125 0.00731196
1.15704 0.1 -0.134296 0.00149669
1.15704 0.1 0.134296 0.00148745
0.075776 0.1 1.1625 0.0106724
0.075776 0.1 -1.1625 0.0107729
1.10076 0.1 -0.384791 0.00174682
1.10076 0.1 0.384791 0.00170796
1.14316 0.1 -0.237448 0.00155496
1.14316 0.1 0.237448 0.00153763
1.11928 0.1 -0.345179 0.00167297
1.11928 0.1 0.345179 0.00164214
0.522865 0.1 1.05 0.00812742
0.522865 0.1 -1.05 0.00825573
1.15704 0.1 -0.201444 0.00151348
1.15704 0.1 0.201444 0.00149994
1.1744 0.1 -0.0331401 0.00144867
1.1744 0.1 0.0331401 0.00144594
1.1744 0.1 -0.0994202 0.00145622
1.1744 0.1 0.0994202 0.00144958
0 0.1 1.18201 0.00510443
0 0.1 -1.18201 0.00512149
0.0363518 0.1 1.18201 0.00778221
0.0363518 0.1 -1.18201 0.00784006
0.219992 0.1 1.1625 0.012458
0.219993 0.1 -1.1625 0.0125495
1.14316 0.1 0.30529 0.00156166
1.14316 0.1 -0.30529 0.00158458
0.467897 0.1 1.0875 0.00909848
0.467897 0.1 -1.0875 0.00921686
1.1744 0.1 -0.1657 0.00146858
1.1744 0.1 0.1657 0.00145835
1.15704 0.1 -0.268592 0.00153714
1.15704 0.1 0.268592 0.00151903
1.0579 0.1 0.540787 0.00196602
1.0579 0.1 -0.540787 0.00202708
0.796996 0.1 0.88201 0.00423605
1.08012 0.1 -0.496959 0.00191068
1.08012 0.1 0.496959 0.00185352
1.10076 0.1 0.454752 0.00175952
1.10076 0.1 -0.454752 0.00180964
1.11928 0.1 -0.414214 0.00172421
1.11928 0.1 0.414214 0.00168355
1.04168 0.1 -0.58333 0.00217344
1.04168 0.1 0.58333 0.00210664
1.1744 0.1 -0.231981 0.00148668
1.1744 0.1 0.231981 0.0014725
0.871687 0.1 0.821002 0.00348646
0.411108 0.1 1.125 0.0101351
0.411108 0.1 -1.125 0.0102127
1.19808 0.1 1.73472e-17 0.00139833
0.990306 0.1 0.675 0.00254306
0.990306 0.1 -0.675 0.0026424
1.02149 0.1 0.628368 0.00228533
1.02149 0.1 -0.628368 0.00236338
1.19808 0.1 -0.0650961 0.00140317
1.19808 0.1 0.0650961 0.0013987
0 0.1 1.2 0.00510781
0 0.1 -1.2 0.0051246
0.871687 0.1 -0.825 0.0036637
0.905821 0.1 -0.7875 0.00331081
0.90582 0.1 0.7875 0.00315634
0.835106 0.1 -0.8625 0.00402674
0.835106 0.1 0.8625 0.00383967
0.93886 0.1 -0.75 0.00305305
0.93886 0.1 0.75 0.00292151
1.14316 0.1 -0.373132 0.00162454
1.14316 0.1 0.373132 0.00159312
0.969689 0.1 0.7125 0.00271002
0.969689 0.1 -0.7125 0.00280335
1.15704 0.1 -0.33574 0.00156942
1.15704 0.1 0.33574 0.00154505
0.756813 0.1 0.9375 0.00478424
0.756814 0.1 -0.9375 0.00500589
1.19808 0.1 0.130192 0.00140446
1.19808 0.1 -0.130192 0.00141241
0.797314 0.1 -0.903998 0.00446603
0.714971 0.1 0.975 0.00538111
0.714971 0.1 -0.975 0.00559758
0.150379 0.1 1.2 0.0115827
0.150379 0.1 -1.2 0.0116805
1.20938 0.1 -0.0322656 0.00138001
1.20938 0.1 0.0322656 0.00137744
1.1744 0.1 -0.298261 0.00151147
1.1744 0.1 0.298261 0.00149327
1.20938 0.1 -0.0967968 0.00138678
1.20938 0.1 0.0967968 0.00138076
1.19808 0.1 -0.195288 0.00142637
1.19808 0.1 0.195288 0.00141498
0.350249 0.1 1.1625 0.0111647
0.350249 0.1 -1.1625 0.0112094
0.67013 0.1 1.0125 0.00599959
0.67013 0.1 -1.0125 0.00620469
0 0.1 1.21799 0.0051102
0 0.1 -1.21799 0.00512666
0.0363518 0.1 -1.21799 0.00782943
0.0363518 0.1 1.21799 0.00777701
1.11928 0.1 -0.48325 0.00178658
1.11928 0.1 0.48325 0.00173651
1.10076 0.1 -0.524714 0.00187432
1.10076 0.1 0.524714 0.0018223
1.20938 0.1 0.161328 0.00138861
1.20938 0.1 -0.161328 0.0013978
1.08012 0.1 0.567953 0.00193147
1.08012 0.1 -0.567953 0.00198901
0.623803 0.1 1.05 0.00675298
0.623803 0.1 -1.05 0.00693031
1.0579 0.1 -0.612892 0.00212899
1.0579 0.1 0.612892 0.00206094
1.15704 0.1 -0.402888 0.00161119
1.15704 0.1 0.402888 0.00157936
1.14316 0.1 0.440974 0.0016351
1.14316 0.1 -0.440974 0.00167537
1.19808 0.1 -0.260384 0.00144571
1.19808 0.1 0.260384 0.00143096
1.2267 0.1 3.57064e-18 0.00134578
1.2267 0.1 -0.0636649 0.00135035
1.2267 0.1 0.0636649 0.00134606
1.1744 0.1 -0.364541 0.00154523
1.1744 0.1 0.364541 0.0015202
0.574156 0.1 1.0875 0.00750407
0.574156 0.1 -1.0875 0.00767883
1.20938 0.1 0.225859 0.00140102
1.20938 0.1 -0.225859 0.00141354
1.04168 0.1 -0.656246 0.00229893
1.04168 0.1 0.656246 0.00221101
1.2267 0.1 -0.12733 0.00135901
1.2267 0.1 0.12733 0.00135142
0.287374 0.1 1.2 0.0118657
0.287374 0.1 -1.2 0.0119505
1.02149 0.1 -0.702294 0.00251546
1.02149 0.1 0.702294 0.0024019
0.075776 0.1 -1.2375 0.0107504
0.075776 0.1 1.2375 0.0106612
0.871399 0.1 0.88201 0.00366557
0.522865 0.1 1.125 0.00843405
0.522865 0.1 -1.125 0.00859436
1.2267 0.1 -0.190994 0.00137196
1.2267 0.1 0.190994 0.0013611
1.19808 0.1 -0.32548 0.0014719
1.19808 0.1 0.32548 0.00145271
0.990306 0.1 -0.75 0.00280616
0.990306 0.1 0.75 0.00268772
1.24274 0.1 -0.0314313 0.00131648
1.24274 0.1 0.0314313 0.0013139
1.20938 0.1 -0.29039 0.0014347
1.20938 0.1 0.29039 0.00141932
1.24274 0.1 -0.0942942 0.00132276
1.24274 0.1 0.0942942 0.00131695
0.93886 0.1 0.821002 0.00309642
1.11928 0.1 -0.552285 0.00185514
1.11928 0.1 0.552285 0.00180328
1.15704 0.1 -0.470036 0.00166773
1.15704 0.1 0.470036 0.00162354
0.969689 0.1 -0.7875 0.00298833
0.96969 0.1 0.7875 0.00286017
0.93886 0.1 -0.825 0.00326135
0.90582 0.1 0.8625 0.00337255
0.905821 0.1 -0.8625 0.00355721
1.1744 0.1 -0.430821 0.00158724
1.1744 0.1 0.430821 0.00155594
1.10076 0.1 -0.594676 0.00195789
1.10076 0.1 0.594676 0.00190439
1.14316 0.1 -0.508816 0.00174102
1.14316 0.1 0.508816 0.00168744
1.24274 0.1 -0.157157 0.00133319
1.24274 0.1 0.157157 0.00132422
1.2267 0.1 -0.254659 0.00138961
1.2267 0.1 0.254659 0.00137578
0.467897 0.1 1.1625 0.00939168
0.467897 0.1 -1.1625 0.00953676
1.08012 0.1 0.638947 0.00201535
1.08012 0.1 -0.638947 0.00209127
1.25511 0.1 -5.78241e-19 0.00129164
0.835106 0.1 -0.9375 0.00431336
0.835106 0.1 0.9375 0.00409747
0.871687 0.1 -0.903998 0.00389689
1.25511 0.1 0.0622446 0.00129171
1.25511 0.1 -0.0622446 0.00129616
0.219992 0.1 1.2375 0.0124518
0.219992 0.1 -1.2375 0.0125607
0 0.1 -1.25701 0.00513336
0 0.1 1.25701 0.00511777
0.0363518 0.1 -1.25701 0.00783613
0.0363518 0.1 1.25701 0.00778457
0.797314 0.1 0.975 0.00458692
0.797314 0.1 -0.975 0.00482456
1.19808 0.1 -0.390576 0.00150562
1.19808 0.1 0.390576 0.001481
1.0579 0.1 -0.684997 0.00225392
1.0579 0.1 0.684997 0.00215216
1.20938 0.1 -0.354921 0.00146331
1.20938 0.1 0.354921 0.00144278
1.25511 0.1 0.124489 0.00129666
1.25511 0.1 -0.124489 0.00130457
1.24274 0.1 -0.220019 0.00134771
1.24274 0.1 0.220019 0.00133548
0.756813 0.1 1.0125 0.00510206
0.756814 0.1 -1.0125 0.00535817
1.2267 0.1 -0.318324 0.00141316
1.2267 0.1 0.318324 0.0013958
0.411108 0.1 1.2 0.0103986
0.411108 0.1 -1.2 0.0105221
1.25511 0.1 -0.186734 0.00131705
1.25511 0.1 0.186734 0.00130565
0.714971 0.1 1.05 0.00571844
0.714971 0.1 -1.05 0.00595647
1.04168 0.1 -0.729162 0.00245224
1.04168 0.1 0.729162 0.00232987
1.24274 0.1 0.282882 0.0013523
1.24274 0.1 -0.282882 0.00136683
0 0.1 1.275 0.00512293
0 0.1 -1.275 0.00513804
1.1744 0.1 0.497102 0.00160081
1.1744 0.1 -0.497102 0.00165051
1.15704 0.1 -0.537184 0.00172582
1.15704 0.1 0.537184 0.00167836
1.2756 0.1 -0.03061 0.00125198
1.2756 0.1 0.03061 0.00124935
0.67013 0.1 1.0875 0.00635681
0.67013 0.1 -1.0875 0.00656678
1.2756 0.1 -0.09183 0.00125824
1.2756 0.1 0.09183 0.00125193
1.25511 0.1 -0.248978 0.00133375
1.25511 0.1 0.248978 0.0013193
1.20938 0.1 0.419453 0.00147339
1.20938 0.1 -0.419453 0.0014988
1.11928 0.1 -0.621322 0.00193885
1.11928 0.1 0.621322 0.00187812
1.14316 0.1 -0.576659 0.00180102
1.14316 0.1 0.576659 0.00175351
1.19808 0.1 -0.455673 0.00155292
1.19808 0.1 0.455673 0.00151744
1.02149 0.1 0.776219 0.00255534
1.02149 0.1 -0.776219 0.00269942
0.150379 0.1 1.275 0.011588
0.150379 0.1 -1.275 0.0116911
1.2756 0.1 -0.15305 0.00126853