# nutMean  POINT_DATA 63840
# x  y  z  nutMean
0 0.5 3.39583e-17 0.0154839
0 0.5 -0.00617931 0.0154907
0 0.5 0.00617931 0.0154836
0.0124865 0.5 -0.00617931 0.0165604
0.0124865 0.5 0.00617931 0.0165571
0 0.5 -0.0688207 0.0154931
0 0.5 0.0688207 0.0153816
0.0124865 0.5 -0.0688207 0.0165628
0.0124865 0.5 0.0688207 0.0164551
0 0.5 -0.075 0.0154869
0 0.5 0.075 0.0153617
0 0.5 -0.0811793 0.0154871
0 0.5 0.0811793 0.0153482
0.0124865 0.5 -0.0811793 0.0165799
0.0124865 0.5 0.0811793 0.0164259
0.075776 0.5 -0.0375 0.0219654
0.075776 0.5 0.0375 0.0219472
0.075776 0.5 -0.1125 0.0220663
0.075776 0.5 0.1125 0.0217697
0 0.5 -0.143821 0.015338
0 0.5 0.143821 0.0150928
0.0124865 0.5 -0.143821 0.0164308
0.0124865 0.5 0.143821 0.0161705
0 0.5 -0.15 0.0153082
0 0.5 0.15 0.0150557
0.151149 0.5 -0.00137318 0.0194253
0 0.5 -0.156179 0.0152846
0 0.5 0.156179 0.0150246
0.0124865 0.5 -0.156179 0.016349
0.0124865 0.5 0.156179 0.0160724
0.151149 0.5 0.075 0.0193395
0.151149 0.5 -0.075 0.0194052
0.075776 0.5 -0.1875 0.0215768
0.075776 0.5 0.1875 0.0211819
0.151149 0.5 0.15 0.019082
0.151149 0.5 -0.15 0.0192377
0 0.5 -0.218821 0.0149661
0 0.5 0.218821 0.0146419
0.0124865 0.5 -0.218821 0.0160305
0.0124865 0.5 0.218821 0.0156897
0.219992 0.5 0.0375 0.017034
0.219993 0.5 -0.0375 0.0170269
0 0.5 -0.225 0.0149265
0 0.5 0.225 0.0145971
0 0.5 -0.231179 0.0148926
0 0.5 0.231179 0.0145576
0.0124865 0.5 -0.231179 0.0159203
0.0124865 0.5 0.231179 0.0155666
0.219992 0.5 0.1125 0.0169449
0.219993 0.5 -0.1125 0.0169121
0.151149 0.5 -0.225 0.0188381
0.151149 0.5 0.225 0.0186328
0.075776 0.5 -0.2625 0.0209163
0.075776 0.5 0.2625 0.0204443
0.288069 0.5 -0.00137318 0.0137893
0.219992 0.5 0.1875 0.0167528
0.219993 0.5 -0.1875 0.0167418
0 0.5 0.293821 0.014119
0 0.5 -0.293821 0.0144951
0.0124865 0.5 -0.293821 0.0155228
0.0124865 0.5 0.293821 0.015128
0.288069 0.5 -0.075 0.0137338
0.288069 0.5 0.075 0.0137599
0 0.5 -0.3 0.0144502
0 0.5 0.3 0.0140716
0 0.5 0.306179 0.0140288
0 0.5 -0.306179 0.0144104
0.0124865 0.5 -0.306179 0.0153965
0.0124865 0.5 0.306179 0.0149955
0.288069 0.5 -0.15 0.0136788
0.288069 0.5 0.15 0.0137139
0.151149 0.5 -0.3 0.0183262
0.151149 0.5 0.3 0.0180906
0.219992 0.5 -0.2625 0.0164401
0.219992 0.5 0.2625 0.0164451
0.075776 0.5 0.3375 0.0196497
0.075776 0.5 -0.3375 0.0201598
0.350249 0.5 -0.0375 0.010698
0.350249 0.5 0.0375 0.0107119
0.288069 0.5 -0.225 0.0135835
0.288069 0.5 0.225 0.0136141
0.350249 0.5 0.1125 0.0107552
0.350249 0.5 -0.1125 0.0107057
0 0.5 0.368821 0.0135784
0 0.5 -0.368821 0.013978
0.0124865 0.5 -0.368821 0.0149641
0.0124865 0.5 0.368821 0.0145451
0 0.5 -0.375 0.0139326
0 0.5 0.375 0.0135327
0 0.5 -0.381179 0.0138908
0 0.5 0.381179 0.0134896
0.0124865 0.5 -0.381179 0.0148351
0.0124865 0.5 0.381179 0.0144141
0.350249 0.5 -0.1875 0.010752
0.350249 0.5 0.1875 0.0107975
0.219992 0.5 -0.3375 0.0160845
0.219992 0.5 0.3375 0.0160858
0.151149 0.5 -0.375 0.0177686
0.151149 0.5 0.375 0.0175169
0.411736 0.5 -0.00137318 0.00912849
0.288069 0.5 -0.3 0.013443
0.288069 0.5 0.3 0.0134768
0.411736 0.5 -0.075 0.00912134
0.411736 0.5 0.075 0.00914346
0.075776 0.5 -0.4125 0.0193852
0.075776 0.5 0.4125 0.0188636
0.350249 0.5 -0.2625 0.0107789
0.350249 0.5 0.2625 0.0108368
0.411736 0.5 -0.15 0.0091562
0.411736 0.5 0.15 0.00919326
0 0.5 -0.443821 0.0134615
0 0.5 0.443821 0.0130588
0.0124865 0.5 -0.443821 0.0144058
0.0124865 0.5 0.443821 0.0139833
0 0.5 -0.45 0.0134192
0 0.5 0.45 0.0130176
0 0.5 -0.456179 0.0133782
0 0.5 0.456179 0.0129764
0.0124865 0.5 -0.456179 0.0142828
0.0124865 0.5 0.456179 0.0138612
0.219992 0.5 -0.4125 0.0157124
0.219993 0.5 0.4125 0.0157013
0.411736 0.5 -0.225 0.00921219
0.411736 0.5 0.225 0.0092554
0.467897 0.5 0.0375 0.00762478
0.467897 0.5 -0.0375 0.00761905
0.288069 0.5 -0.375 0.0132949
0.288069 0.5 0.375 0.0133277
0.151149 0.5 -0.45 0.0172141
0.151149 0.5 0.45 0.0169527
0.467897 0.5 -0.1125 0.00764916
0.467897 0.5 0.1125 0.00766968
0.350249 0.5 0.3375 0.0108907
0.350249 0.5 -0.3375 0.0108235
0.075776 0.5 -0.4875 0.0186474
0.075776 0.5 0.4875 0.0181317
0.467897 0.5 -0.1875 0.00770353
0.467897 0.5 0.1875 0.00773758
0.411736 0.5 -0.3 0.00928311
0.411736 0.5 0.3 0.00932905
0 0.5 -0.518821 0.0129794
0 0.5 0.518821 0.0125902
0.0124865 0.5 0.518821 0.013475
0.0124865 0.5 -0.518821 0.013884
0.523432 0.5 -0.00137318 0.00672558
0 0.5 -0.525 0.0129424
0 0.5 0.525 0.012556
0.523432 0.5 -0.075 0.00673305
0.523432 0.5 0.075 0.0067408
0 0.5 -0.531179 0.0129044
0 0.5 0.531179 0.0125203
0.0124865 0.5 -0.531179 0.0137736
0.0124865 0.5 0.531179 0.013372
0.288069 0.5 -0.45 0.0131553
0.288069 0.5 0.45 0.0131796
0.219992 0.5 -0.4875 0.015351
0.219993 0.5 0.4875 0.0153199
0.467897 0.5 -0.2625 0.00779765
0.467897 0.5 0.2625 0.00783414
0.350249 0.5 -0.4125 0.0108867
0.350249 0.5 0.4125 0.0109562
0.523432 0.5 -0.15 0.00677752
0.523432 0.5 0.15 0.00679416
0.151149 0.5 -0.525 0.0166981
0.151149 0.5 0.525 0.016433
0.411736 0.5 -0.375 0.00937545
0.411736 0.5 0.375 0.00942088
0.075776 0.5 -0.5625 0.0179851
0.075776 0.5 0.5625 0.0175032
0.523432 0.5 -0.225 0.00684938
0.523432 0.5 0.225 0.00687465
0.574156 0.5 -0.0375 0.00586536
0.574156 0.5 0.0375 0.00586561
0.467897 0.5 0.3375 0.00793582
0.467897 0.5 -0.3375 0.00791154
0.574156 0.5 -0.1125 0.00589753
0.574156 0.5 0.1125 0.00590266
0 0.5 -0.593821 0.0125574
0 0.5 0.593821 0.0121925
0.0124865 0.5 -0.593821 0.0134267
0.0124865 0.5 0.593821 0.0130441
0.288069 0.5 -0.525 0.0130373
0.288069 0.5 0.525 0.0130447
0 0.5 -0.6 0.0125277
0 0.5 0.6 0.0121642
0.350249 0.5 -0.4875 0.01097
0.350249 0.5 0.4875 0.0110347
0.523432 0.5 -0.3 0.00695331
0.523432 0.5 0.3 0.00697362
0.219992 0.5 -0.5625 0.0150232
0.219992 0.5 0.5625 0.0149609
0.574156 0.5 -0.1875 0.00595851
0.574156 0.5 0.1875 0.00596657
0 0.5 -0.606179 0.0124962
0 0.5 0.606179 0.0121351
0.0124865 0.5 -0.606179 0.0133379
0.0124865 0.5 0.606179 0.0129597
0.411736 0.5 -0.45 0.00949244
0.411736 0.5 0.45 0.00953605
0.151149 0.5 -0.6 0.0162483
0.151149 0.5 0.6 0.0159802
0.62168 0.5 2.64545e-17 0.00532508
0.467897 0.5 0.4125 0.00807828
0.467897 0.5 -0.4125 0.00805461
0.624316 0.5 0.0729402 0.00530659
0.624316 0.5 -0.075 0.00530661
0.574156 0.5 -0.2625 0.00603672
0.574157 0.5 0.2625 0.00606037
0.075776 0.5 -0.6375 0.0174389
0.075776 0.5 0.6375 0.0169806
0.624316 0.5 -0.15 0.00535175
0.624316 0.5 0.15 0.00535338
0.523432 0.5 -0.375 0.00708765
0.523432 0.5 0.375 0.00709697
0.350249 0.5 -0.5625 0.0110755
0.350249 0.5 0.5625 0.0111272
0.624316 0.5 -0.225 0.0054224
0.624316 0.5 0.225 0.00542705
0.288069 0.5 0.6 0.0129323
0.288069 0.5 -0.6 0.0129497
0.574156 0.5 -0.3375 0.00616623
0.574156 0.5 0.3375 0.00616424
0.411736 0.5 -0.525 0.00963518
0.411736 0.5 0.525 0.00967071
0 0.5 -0.668821 0.0122095
0 0.5 0.668821 0.0118692
0.0124865 0.5 -0.668821 0.0130512
0.0124865 0.5 0.668821 0.0126939
0.67013 0.5 0.0375 0.00474322
0.67013 0.5 -0.0375 0.00474558
0.219993 0.5 -0.6375 0.0147393
0.219993 0.5 0.6375 0.0146433
0 0.5 -0.675 0.0121851
0 0.5 0.675 0.0118465
0.467897 0.5 0.4875 0.00824743
0.467897 0.5 -0.4875 0.00822791
0.67013 0.5 -0.1125 0.00477615
0.67013 0.5 0.1125 0.00477332
0 0.5 -0.681179 0.0121601
0 0.5 0.681179 0.0118235
0.0124865 0.5 -0.681179 0.0129801
0.0124865 0.5 0.681179 0.0126269
0.523432 0.5 -0.45 0.00724942
0.523432 0.5 0.45 0.00725407
0.151149 0.5 -0.675 0.0158775
0.151149 0.5 0.675 0.015605
0.624316 0.5 -0.3 0.00552298
0.624316 0.5 0.3 0.00552445
0.67013 0.5 0.1875 0.00482982
0.67013 0.5 -0.1875 0.0048331
0.574156 0.5 -0.4125 0.00631651
0.574157 0.5 0.4125 0.00630948
0.708171 0.5 1.88651e-17 0.00441612
0.075776 0.5 -0.7125 0.0169963
0.075776 0.5 0.7125 0.0165705
0.715434 0.5 0.0736268 0.00437392
0.715434 0.5 -0.075 0.00436926
0.67013 0.5 0.2625 0.00491081
0.67013 0.5 -0.2625 0.00491948
0.350249 0.5 -0.6375 0.0112038
0.350249 0.5 0.6375 0.011233
0.411736 0.5 -0.6 0.00980412
0.411736 0.5 0.6 0.00982385
0.624316 0.5 -0.375 0.00565455
0.624316 0.5 0.375 0.00564475
0.715434 0.5 -0.15 0.00441138
0.715434 0.5 0.15 0.00440553
0.467897 0.5 -0.5625 0.00843111
0.467897 0.5 0.5625 0.00844017
0.288069 0.5 -0.675 0.0128985
0.288069 0.5 0.675 0.0128509
0.523432 0.5 -0.525 0.00744156
0.523432 0.5 0.525 0.00743712
0 0.5 -0.743821 0.0119359
0 0.5 0.743821 0.0116214
0.0124865 0.5 -0.743821 0.0127559
0.0124865 0.5 0.743821 0.0124247
0.219992 0.5 0.7125 0.0143806
0.219992 0.5 -0.7125 0.0145123
0.715434 0.5 -0.225 0.00448049
0.715434 0.5 0.225 0.00446999
0 0.5 -0.75 0.0119175
0 0.5 0.75 0.0116051
0.67013 0.5 0.3375 0.0050219
0.67013 0.5 -0.3375 0.00502801
0.574156 0.5 -0.4875 0.00649655
0.574156 0.5 0.4875 0.00648095
0 0.5 -0.756179 0.0118983
0 0.5 0.756179 0.0115879
0.0124865 0.5 -0.756179 0.0127024
0.0124865 0.5 0.756179 0.0123759
0.756813 0.5 -0.0375 0.00398163
0.756813 0.5 0.0375 0.00397808
0.151149 0.5 -0.75 0.015591
0.151149 0.5 0.75 0.015314
0.756813 0.5 -0.1125 0.00400984
0.756813 0.5 0.1125 0.00400317
0.624316 0.5 -0.45 0.00581395
0.624316 0.5 0.45 0.00579307
0.715434 0.5 -0.3 0.00457074
0.715434 0.5 0.3 0.0045602
0.756813 0.5 0.1875 0.00405242
0.756813 0.5 -0.1875 0.00406274
0.67013 0.5 -0.4125 0.00516684
0.67013 0.5 0.4125 0.00514333
0.411736 0.5 -0.675 0.00999916
0.411736 0.5 0.675 0.00999553
0.467897 0.5 0.6375 0.00865531
0.467897 0.5 -0.6375 0.00866374
0.075776 0.5 -0.7875 0.0166711
0.075776 0.5 0.7875 0.0162724
0.350249 0.5 -0.7125 0.0113559
0.350249 0.5 0.7125 0.0113559
0.523432 0.5 -0.6 0.00766426
0.523432 0.5 0.6 0.00764503
0.797732 0.5 2.68882e-17 0.00370375
0.756813 0.5 -0.2625 0.00414321
0.756814 0.5 0.2625 0.0041239
0.797732 0.5 0.0736268 0.00371645
0.797732 0.5 -0.075 0.0037189
0.288069 0.5 -0.75 0.0128888
0.288069 0.5 0.75 0.0128066
0.574156 0.5 -0.5625 0.00670816
0.574157 0.5 0.5625 0.00667956
0.715434 0.5 -0.375 0.00468742
0.715434 0.5 0.375 0.00467194
0.797732 0.5 -0.15 0.00375739
0.797732 0.5 0.15 0.00374842
0.624316 0.5 -0.525 0.00600364
0.624316 0.5 0.525 0.00597062
0.219992 0.5 -0.7875 0.0143483
0.219992 0.5 0.7875 0.0141788
0 0.5 -0.818821 0.0117385
0 0.5 0.818821 0.0114478
0.0124865 0.5 0.818821 0.0122358
0.0124865 0.5 -0.818821 0.0125426
0 0.5 -0.825 0.011727
0 0.5 0.825 0.0114386
0.756813 0.5 0.3375 0.00422175
0.756814 0.5 -0.3375 0.00422947
0.67013 0.5 -0.4875 0.00533588
0.67013 0.5 0.4875 0.00529951
0.797732 0.5 -0.225 0.00382004
0.797732 0.5 0.225 0.0038053
0 0.5 -0.831179 0.0117136
0 0.5 0.831179 0.0114271
0.0124865 0.5 -0.831179 0.0125083
0.0124865 0.5 0.831179 0.0122063
0.835106 0.5 0.0375 0.00343736
0.835106 0.5 -0.0375 0.00344097
0.151149 0.5 -0.825 0.0153929
0.151149 0.5 0.825 0.01511
0.835106 0.5 0.1125 0.00345911
0.835106 0.5 -0.1125 0.00346629
0.715434 0.5 -0.45 0.00483647
0.715434 0.5 0.45 0.00480428
0.797732 0.5 -0.3 0.00390313
0.797732 0.5 0.3 0.00388486
0.467897 0.5 0.7125 0.00889152
0.467897 0.5 -0.7125 0.00892453
0.523432 0.5 -0.675 0.00791688
0.523432 0.5 0.675 0.00787667
0.411736 0.5 -0.75 0.0102202
0.411736 0.5 0.75 0.0101861
0.835106 0.5 -0.1875 0.00351397
0.835106 0.5 0.1875 0.00350232
0.574156 0.5 -0.6375 0.00695106
0.574157 0.5 0.6375 0.00690434
0.350249 0.5 -0.7875 0.0115328
0.350249 0.5 0.7875 0.0114965
0.756813 0.5 -0.4125 0.00436324
0.756814 0.5 0.4125 0.00433874
0.075776 0.5 -0.8625 0.0164578
0.075776 0.5 0.8625 0.0160853
0.624316 0.5 0.6 0.00617516
0.624316 0.5 -0.6 0.00622425
0.872064 0.5 5.91974e-17 0.00322281
0.870122 0.5 0.075 0.00324514
0.288069 0.5 -0.825 0.0129226
0.288069 0.5 0.825 0.012803
0.67013 0.5 -0.5625 0.00553456
0.67013 0.5 0.5625 0.00548423
0.872064 0.5 -0.075 0.0032365
0.835106 0.5 -0.2625 0.00358386
0.835106 0.5 0.2625 0.0035662
0.797732 0.5 -0.375 0.00400814
0.797732 0.5 0.375 0.00398775
0.872064 0.5 0.14794 0.00326154
0.872064 0.5 -0.15 0.00327091
0.715434 0.5 -0.525 0.00501237
0.715434 0.5 0.525 0.00496488
0.219992 0.5 0.8625 0.014044
0.219993 0.5 -0.8625 0.0142484
0 0.5 -0.893821 0.0116179
0 0.5 0.893821 0.0113507
0.0124865 0.5 -0.893821 0.0124126
0.0124865 0.5 0.893821 0.0121299
0 0.5 -0.9 0.0116129
0 0.5 0.9 0.0113473
0.756813 0.5 -0.4875 0.00451824
0.756813 0.5 0.4875 0.00447411
0.872064 0.5 -0.225 0.0033264
0.872064 0.5 0.225 0.00331188
0.835106 0.5 -0.3375 0.00367961
0.835106 0.5 0.3375 0.00365163
0 0.5 0.906179 0.011344
0 0.5 -0.906179 0.0116071
0.0124865 0.5 -0.906179 0.0124001
0.0124865 0.5 0.906179 0.0121223
0.90582 0.5 -0.0375 0.00301629
0.90582 0.5 0.0375 0.00301282
0.151149 0.5 -0.9 0.0152844
0.151149 0.5 0.9 0.0149964
0.90582 0.5 -0.1125 0.00303871
0.905821 0.5 0.1125 0.00303174
0.523432 0.5 -0.75 0.00819854
0.523432 0.5 0.75 0.00813076
0.574156 0.5 -0.7125 0.0072246
0.574156 0.5 0.7125 0.00715417
0.797732 0.5 -0.45 0.00414063
0.797732 0.5 0.45 0.00410756
0.467897 0.5 0.7875 0.0091471
0.467897 0.5 -0.7875 0.00921241
0.624316 0.5 -0.675 0.00647597
0.624316 0.5 0.675 0.00640555
0.411736 0.5 -0.825 0.0104668
0.411736 0.5 0.825 0.0103959
0.872064 0.5 0.3 0.00338214
0.872064 0.5 -0.3 0.00340508
0.67013 0.5 -0.6375 0.00576452
0.67013 0.5 0.6375 0.00569503
0.90582 0.5 0.1875 0.00306942
0.905821 0.5 -0.1875 0.0030811
0.350249 0.5 -0.8625 0.0117339
0.350249 0.5 0.8625 0.0116577
0.835106 0.5 -0.4125 0.00378429
0.835106 0.5 0.4125 0.00376331
0.715434 0.5 -0.6 0.00521768
0.715434 0.5 0.6 0.00515339
0.939201 0.5 2.75387e-17 0.00290615
0.075776 0.5 0.9375 0.016022
0.075776 0.5 -0.9375 0.0163669
0.939111 0.5 0.075 0.00291586
0.939201 0.5 -0.075 0.00291859
0.756813 0.5 0.5625 0.00464114
0.756814 0.5 -0.5625 0.00469988
0.90582 0.5 0.2625 0.00312627
0.905821 0.5 -0.2625 0.00314332
0.288069 0.5 -0.9 0.0130001
0.288069 0.5 0.9 0.0128422
0.872064 0.5 -0.375 0.0035001
0.872064 0.5 0.375 0.00347523
0.939201 0.5 0.148627 0.00294395
0.939201 0.5 -0.15 0.00295025
0.797732 0.5 -0.525 0.0042999
0.797732 0.5 0.525 0.00424955
0.219992 0.5 0.9375 0.0139738
0.219992 0.5 -0.9375 0.0142133
0.939201 0.5 -0.225 0.00300132
0.939201 0.5 0.225 0.00298977
0.905821 0.5 -0.3375 0.00323049
0.90582 0.5 0.3375 0.00320144
0.835106 0.5 -0.4875 0.00392179
0.835106 0.5 0.4875 0.00387904
0 0.5 0.968821 0.0113183
0 0.5 -0.968821 0.0115689
0.0124865 0.5 -0.968821 0.0123619
0.0124865 0.5 0.968821 0.0120966
0.969689 0.5 -0.0375 0.00280267
0.969689 0.5 0.0375 0.00279992
0.574156 0.5 -0.7875 0.00752826
0.574156 0.5 0.7875 0.00742802
0 0.5 -0.975 0.0115646
0 0.5 0.975 0.0113135
0.624316 0.5 -0.75 0.00675838
0.624316 0.5 0.75 0.00666125
0.969689 0.5 -0.1125 0.0028238
0.96969 0.5 0.1125 0.0028195
0.523432 0.5 -0.825 0.00850835
0.523432 0.5 0.825 0.00840628
0.67013 0.5 0.7125 0.00593189
0.67013 0.5 -0.7125 0.00602566
0 0.5 -0.981179 0.0115636
0 0.5 0.981179 0.0113128
0.467897 0.5 0.8625 0.00942226
0.467897 0.5 -0.8625 0.0095259
0.0124865 0.5 -0.981179 0.0123549
0.0124865 0.5 0.981179 0.0120863
0.872064 0.5 -0.45 0.0036143
0.872064 0.5 0.45 0.00358194
0.715434 0.5 -0.675 0.0054535
0.715434 0.5 0.675 0.00536766
0.939201 0.5 -0.3 0.00307298
0.939201 0.5 0.3 0.00305505
0.151149 0.5 0.975 0.014954
0.151149 0.5 -0.975 0.0152548
0.969689 0.5 -0.1875 0.00286456
0.969689 0.5 0.1875 0.00285713
0.756813 0.5 -0.6375 0.00491166
0.756813 0.5 0.6375 0.00483349
0.411736 0.5 -0.9 0.010738
0.411736 0.5 0.9 0.010627
0.90582 0.5 -0.4125 0.00332338
0.90582 0.5 0.4125 0.00330195
0.995005 0.5 0.0749309 0.00268192
0.797732 0.5 -0.6 0.00448729
0.797732 0.5 0.6 0.00442027
1.00005 0.5 -8.47123e-18 0.00264441
0.350249 0.5 -0.9375 0.0119597
0.350249 0.5 0.9375 0.0118405
1.00005 0.5 -0.0749309 0.00265564
0.969689 0.5 -0.2625 0.00292354
0.969689 0.5 0.2625 0.00291331
0.835106 0.5 -0.5625 0.00408549
0.835106 0.5 0.5625 0.00402963
1.00005 0.5 -0.149862 0.00268509
0.939201 0.5 -0.375 0.00316088
0.939201 0.5 0.375 0.00314026
1.00029 0.5 0.148988 0.0026838
0.075776 0.5 -1.0125 0.0163485
0.075776 0.5 1.0125 0.0159969
0.288069 0.5 0.975 0.0129225
0.288069 0.5 -0.975 0.0131247
0.872064 0.5 -0.525 0.00375657
0.872064 0.5 0.525 0.0037089
1.00005 0.5 0.224793 0.00272536
1.00005 0.5 -0.224793 0.00273314
0.969689 0.5 0.3375 0.00298628
0.96969 0.5 -0.3375 0.00300201
1.0271 0.5 -0.0368226 0.00248055
1.0271 0.5 0.0368226 0.00247863
0.90582 0.5 0.4875 0.00340138
0.905821 0.5 -0.4875 0.00344561
1.0271 0.5 -0.110468 0.00249872
1.0271 0.5 0.110468 0.0024849
0.67013 0.5 0.7875 0.0061948
0.67013 0.5 -0.7875 0.00631758
0.624316 0.5 0.825 0.00694149
0.624316 0.5 -0.825 0.00707102
0.219993 0.5 -1.0125 0.0142363
0.219993 0.5 1.0125 0.0139629
0.574156 0.5 -0.8625 0.00786146
0.574156 0.5 0.8625 0.00772441
0.715434 0.5 -0.75 0.00571978
0.715434 0.5 0.75 0.00560793
0.756813 0.5 0.7125 0.00505147
0.756814 0.5 -0.7125 0.00515296
0.523432 0.5 -0.9 0.00884535
0.523432 0.5 0.9 0.00870372
0.939201 0.5 -0.45 0.00327901
0.939201 0.5 0.45 0.00324027
1.04168 0.5 0 0.00240322
1.0271 0.5 -0.184113 0.00253436
1.0271 0.5 0.184113 0.00252925
0 0.5 -1.04382 0.01155
0 0.5 1.04382 0.0113044
0.0124865 0.5 -1.04382 0.0123413
0.0124865 0.5 1.04382 0.0120779
1.00005 0.5 -0.299723 0.0027999
1.00005 0.5 0.299723 0.00278812
1.04168 0.5 -0.0729162 0.00241242
1.04168 0.5 0.0729162 0.00241
0.797732 0.5 -0.675 0.00470525
0.797732 0.5 0.675 0.00461542
0.467897 0.5 0.9375 0.00972045
0.467897 0.5 -0.9375 0.00986372
0 0.5 -1.05 0.0115457
0 0.5 1.05 0.0113014
0.835106 0.5 -0.6375 0.00427873
0.835106 0.5 0.6375 0.0042033
1.04168 0.5 -0.145832 0.00243669
1.04168 0.5 0.145832 0.00243297
0.969689 0.5 -0.4125 0.00309522
0.96969 0.5 0.4125 0.00307866
0 0.5 -1.05618 0.0115424
0 0.5 1.05618 0.0112991
0.0124865 0.5 -1.05618 0.012325
0.0124865 0.5 1.05618 0.0120634
1.05695 0.5 -0.0360764 0.00232751
1.05695 0.5 0.0360764 0.00232546
0.411736 0.5 -0.975 0.011042
0.411736 0.5 0.975 0.0108799
0.872064 0.5 -0.6 0.00392732
0.872064 0.5 0.6 0.00386429
1.0271 0.5 -0.257759 0.00258755
1.0271 0.5 0.257759 0.00257949
0.151149 0.5 -1.05 0.0152636
0.151149 0.5 1.05 0.0149421
1.05695 0.5 0.108229 0.0023238
1.05695 0.5 -0.108229 0.00234215
1.04168 0.5 -0.218749 0.00247702
1.04168 0.5 0.218749 0.00247082
0.90582 0.5 -0.5625 0.00359187
0.905821 0.5 0.5625 0.00354392
1.00005 0.5 -0.374654 0.00288606
1.00005 0.5 0.374654 0.00286883
0.350249 0.5 1.0125 0.0120446
0.350249 0.5 -1.0125 0.012228
1.05695 0.5 -0.180382 0.0023712
1.05695 0.5 0.180382 0.00236638
1.07319 0.5 0.0709442 0.00226749
0.939201 0.5 -0.525 0.00342387
0.939201 0.5 0.525 0.00336698
1.0271 0.5 -0.331404 0.00265927
1.0271 0.5 0.331404 0.00264643
1.08112 0.5 3.23815e-17 0.00223347
1.04168 0.5 -0.291665 0.00253381
1.04168 0.5 0.291665 0.00252408
1.08112 0.5 -0.0709442 0.00224087
0.969689 0.5 -0.4875 0.00325866
0.96969 0.5 0.4875 0.00318637
1.05695 0.5 0.252535 0.0024072
1.05695 0.5 -0.252535 0.00241497
0.288069 0.5 -1.05 0.0132919
0.288069 0.5 1.05 0.0130385
0.075776 0.5 -1.0875 0.0162964
0.075776 0.5 1.0875 0.0159426
1.08112 0.5 -0.141888 0.00226072
1.08145 0.5 0.140165 0.00226215
0.715434 0.5 0.825 0.00587382
0.715434 0.5 -0.825 0.00601746
0.756813 0.5 0.7875 0.00529569
0.756814 0.5 -0.7875 0.00542466
0.67013 0.5 -0.8625 0.00663997
0.67013 0.5 0.8625 0.00648308
0.797732 0.5 -0.75 0.0049543
0.797732 0.5 0.75 0.0048364
0.624316 0.5 -0.9 0.00741375
0.624316 0.5 0.9 0.00724534
1.00005 0.5 -0.449585 0.00300808
1.00005 0.5 0.449585 0.00296883
0.835106 0.5 -0.7125 0.00450493
0.835106 0.5 0.7125 0.00440072
0.574156 0.5 -0.9375 0.00822371
0.574157 0.5 0.9375 0.00804324
1.10076 0.5 -0.0349809 0.00216609
1.10076 0.5 0.0349809 0.00216463
1.08112 0.5 -0.212832 0.00229428
1.08112 0.5 0.212832 0.00229059
0.872064 0.5 -0.675 0.00412976
0.872064 0.5 0.675 0.00404063
1.04168 0.5 -0.364581 0.00261008
1.04168 0.5 0.364581 0.0025932
1.0271 0.5 0.405049 0.00273139
1.0271 0.5 -0.405049 0.00275414
1.05695 0.5 -0.324688 0.00247441
1.05695 0.5 0.324688 0.00246236
1.10076 0.5 -0.104943 0.00217812
1.10076 0.5 0.104943 0.00217786
0.523432 0.5 0.975 0.00902492
0.523432 0.5 -0.975 0.00921384
0.90582 0.5 0.6375 0.00369918
0.905821 0.5 -0.6375 0.00377226
0.219992 0.5 1.0875 0.0140001
0.219992 0.5 -1.0875 0.0143114
1.11376 0.5 3.81639e-17 0.00212375
0.939201 0.5 0.6 0.00352379
0.939201 0.5 -0.6 0.00356964
1.10076 0.5 -0.174905 0.00220359
1.10076 0.5 0.174905 0.00220298
0.467897 0.5 -1.0125 0.0102407
0.467897 0.5 1.0125 0.0100397
1.11376 0.5 -0.0693118 0.00213018
1.11376 0.5 0.0693118 0.00212958
1.08112 0.5 0.283777 0.00233583
1.08112 0.5 -0.283777 0.00234202
0 0.5 -1.11882 0.0115686
0 0.5 1.11882 0.0113384
0.0124865 0.5 -1.11882 0.0123512
0.0124865 0.5 1.11882 0.0121026
0.969689 0.5 -0.5625 0.00340542
0.969689 0.5 0.5625 0.0033431
1.11376 0.5 0.138624 0.00215052
1.11376 0.5 -0.138624 0.00214837
0 0.5 -1.125 0.0115775
0 0.5 1.125 0.0113493
1.10076 0.5 0.244866 0.00224062
1.10076 0.5 -0.244866 0.00224236
0.411736 0.5 -1.05 0.0113793
0.411736 0.5 1.05 0.0111538
1.05695 0.5 -0.396841 0.00255503
1.05695 0.5 0.396841 0.00253255
1.00005 0.5 -0.524516 0.00314364
1.00005 0.5 0.524516 0.00309681
1.04168 0.5 -0.437497 0.0027117
1.04168 0.5 0.437497 0.00268142
0 0.5 -1.13118 0.011586
0 0.5 1.13118 0.0113591
0.0124865 0.5 -1.13118 0.0123768
0.0124865 0.5 1.13118 0.0121322
1.11376 0.5 -0.207935 0.0021797
1.11376 0.5 0.207935 0.00217929
1.0271 0.5 -0.478694 0.0028778
1.0271 0.5 0.478694 0.00283853
0.151149 0.5 -1.125 0.0153414
0.151149 0.5 1.125 0.015005
1.08112 0.5 -0.354722 0.00240697
1.08112 0.5 0.354722 0.0023948
1.13882 0.5 -0.0340295 0.00204171
1.13882 0.5 0.0340295 0.00204073
0.350249 0.5 -1.0875 0.0125152
0.350249 0.5 1.0875 0.0122648
1.13882 0.5 -0.102088 0.00205234
1.13882 0.5 0.102088 0.0020491
1.10076 0.5 -0.314829 0.00229531
1.10076 0.5 0.314829 0.00229172
0.756813 0.5 -0.8625 0.00573024
0.756814 0.5 0.8625 0.00556475
0.797732 0.5 -0.825 0.00523573
0.797732 0.5 0.825 0.00508409
1.11376 0.5 -0.277247 0.00222434
1.11376 0.5 0.277247 0.00222284
0.835106 0.5 0.7875 0.00462589
0.835106 0.5 -0.7875 0.00476256
0.715434 0.5 -0.9 0.0063474
0.715434 0.5 0.9 0.00616519
0.872064 0.5 -0.75 0.00436323
0.872064 0.5 0.75 0.00424424
1.13882 0.5 0.170147 0.00207701
1.13882 0.5 -0.170147 0.00207597
0.67013 0.5 -0.9375 0.00699353
0.67013 0.5 0.9375 0.00679537
0.905821 0.5 -0.7125 0.0039827
0.905821 0.5 0.7125 0.00387886
1.05695 0.5 0.468994 0.00262362
1.05695 0.5 -0.468994 0.00265904
0.939201 0.5 -0.675 0.00374104
0.939201 0.5 0.675 0.00368466
0.624316 0.5 0.975 0.00757469
0.624316 0.5 -0.975 0.00778903
1.04168 0.5 -0.510414 0.00281773
1.04168 0.5 0.510414 0.00279103
0.969689 0.5 -0.6375 0.00351627
0.96969 0.5 0.6375 0.00351524
0.288069 0.5 -1.125 0.0135054
0.288069 0.5 1.125 0.0131941
1.16179 0.5 5.78241e-19 0.00196149
1.08112 0.5 0.425666 0.00247054
1.08112 0.5 -0.425666 0.00249209
1.13882 0.5 -0.238206 0.00211175
1.13882 0.5 0.238206 0.0021125
1.16179 0.5 0.0669104 0.00195535
1.16179 0.5 -0.0669104 0.0019665
0.574156 0.5 -1.0125 0.00861929
0.574156 0.5 1.0125 0.00839038
0.075776 0.5 -1.1625 0.0164122
0.075776 0.5 1.1625 0.0160912
1.00005 0.5 -0.599447 0.00327684
1.00005 0.5 0.599447 0.00325481
1.10076 0.5 0.384791 0.00235598
1.10076 0.5 -0.384791 0.00236708
1.0271 0.5 -0.55234 0.00298725
1.0271 0.5 0.55234 0.00297011
1.11376 0.5 -0.346559 0.00228496
1.11376 0.5 0.346559 0.00227938
1.16179 0.5 -0.133821 0.00198197
1.16179 0.5 0.133821 0.00198231
0.523432 0.5 -1.05 0.00961792
0.523432 0.5 1.05 0.00937072
1.17463 0.5 -0.0331343 0.00191961
1.17463 0.5 0.0331343 0.00191865
1.17463 0.5 -0.0994029 0.00192774
1.17463 0.5 0.0994029 0.00192991
1.16179 0.5 -0.200731 0.00200941
1.16179 0.5 0.200731 0.00201136
1.13882 0.5 -0.306265 0.00216055
1.13882 0.5 0.306265 0.0021606
0.219992 0.5 -1.1625 0.0144773
0.219992 0.5 1.1625 0.0141173
0.467897 0.5 -1.0875 0.0106505
0.467897 0.5 1.0875 0.0103844
1.17463 0.5 0.165672 0.0019514
1.17463 0.5 -0.165672 0.00194874
1.05695 0.5 -0.541147 0.00274738
1.05695 0.5 0.541147 0.00273348
1.18772 0.5 -5.78241e-19 0.00187695
1.11376 0.5 -0.41587 0.00236258
1.11376 0.5 0.41587 0.00235132
1.18772 0.5 -0.065614 0.00188098
1.18772 0.5 0.065614 0.00188268
1.08112 0.5 -0.49661 0.00258534
1.08112 0.5 0.49661 0.00256433
1.10076 0.5 -0.454752 0.00245661
1.10076 0.5 0.454752 0.00243896
1.18534 0.5 0.118202 0.00189764
1.16179 0.5 -0.267642 0.0020483
1.16179 0.5 0.267642 0.0020503
0 0.5 -1.19382 0.0116726
0 0.5 1.19382 0.0114607
0.0124865 0.5 1.19382 0.0122338
0.0124865 0.5 -1.19382 0.0124634
1.04168 0.5 -0.58333 0.00293732
1.04168 0.5 0.58333 0.00292562
1.18772 0.5 -0.131228 0.00189457
1.17463 0.5 -0.23194 0.00198011
1.17463 0.5 0.23194 0.00198308
0.411736 0.5 -1.125 0.0117407
0.411736 0.5 1.125 0.011446
1.13882 0.5 -0.374324 0.00222605
1.13882 0.5 0.374324 0.00222095
0 0.5 -1.2 0.0116814
0 0.5 1.2 0.0114707
0.905821 0.5 0.7875 0.00409161
0.905821 0.5 -0.7875 0.00422291
0.872064 0.5 -0.825 0.00462883
0.872064 0.5 0.825 0.00447739
0.835106 0.5 0.8625 0.00487893
0.835106 0.5 -0.8625 0.00505394
0.939201 0.5 -0.75 0.00395242
0.939201 0.5 0.75 0.00385974
0.797732 0.5 -0.9 0.00555018
0.797732 0.5 0.9 0.00536068
1.0271 0.5 0.625985 0.0031263
1.0271 0.5 -0.625985 0.00314112
0.969689 0.5 0.7125 0.00365208
0.96969 0.5 -0.7125 0.00370183
1.18772 0.5 -0.196842 0.00191939
1.18772 0.5 0.196842 0.00192309
0.756814 0.5 -0.9375 0.0060692
0.756814 0.5 0.9375 0.00586141
0 0.5 1.20618 0.0114818
0 0.5 -1.20618 0.0116916
1.00005 0.5 -0.674378 0.0034409
1.00005 0.5 0.674378 0.00340541
0.0124865 0.5 1.20618 0.0122612
0.0124865 0.5 -1.20618 0.0124884
1.16179 0.5 -0.334552 0.00210122
1.16179 0.5 0.334552 0.00210087
0.715434 0.5 0.975 0.00648414
0.715434 0.5 -0.975 0.00671719
0.151149 0.5 -1.2 0.0155187
0.151149 0.5 1.2 0.015165
1.20942 0.5 0.0322645 0.0018035
1.20942 0.5 -0.0322645 0.00180521
1.17463 0.5 -0.298209 0.00202294
1.17463 0.5 0.298209 0.00202639
1.20942 0.5 -0.0967935 0.00181104
1.20942 0.5 0.0967935 0.00181465
0.350249 0.5 -1.1625 0.0128289
0.350249 0.5 1.1625 0.0125026
0.67013 0.5 1.0125 0.00713487
0.67013 0.5 -1.0125 0.00738364
1.11376 0.5 0.485183 0.00243954
1.11376 0.5 -0.485183 0.00245574
1.18772 0.5 0.262456 0.001959
1.18772 0.5 -0.262456 0.00195461
1.10076 0.5 -0.524714 0.00255246
1.10076 0.5 0.524714 0.00253698
1.20942 0.5 -0.161322 0.00182922
1.20942 0.5 0.161322 0.00183385
1.08112 0.5 -0.567554 0.00268641
1.08112 0.5 0.567554 0.0026794
0.624316 0.5 -1.05 0.00820502
0.624316 0.5 1.05 0.00793074
1.13882 0.5 -0.442383 0.00230491
1.13882 0.5 0.442383 0.00229769
1.05695 0.5 0.6133 0.00286909
1.05695 0.5 -0.6133 0.00288036
1.16179 0.5 -0.401463 0.00216694
1.16179 0.5 0.401463 0.00216483
0.574156 0.5 -1.0875 0.009052
0.574156 0.5 1.0875 0.0087609
1.17463 0.5 0.364477 0.00208057
1.17463 0.5 -0.364477 0.00208131
1.20942 0.5 -0.225851 0.00185619
1.20942 0.5 0.225851 0.00186186
1.23036 0.5 -1.32995e-17 0.00173919
1.2294 0.5 0.0634819 0.0017466
1.04168 0.5 -0.656246 0.00309705
1.04168 0.5 0.656246 0.00305968
1.23036 0.5 -0.0634819 0.00174167
1.18772 0.5 0.32807 0.00200579
1.18772 0.5 -0.32807 0.00200283
0.288069 0.5 -1.2 0.0137685
0.288069 0.5 1.2 0.0133828
1.23036 0.5 -0.126964 0.0017525
1.23036 0.5 0.126964 0.00175737
0.075776 0.5 -1.2375 0.0165833
0.075776 0.5 1.2375 0.0162718
0.523432 0.5 -1.125 0.0100522
0.523432 0.5 1.125 0.00973787
1.0271 0.5 -0.69963 0.00332784
1.0271 0.5 0.69963 0.00326242
1.24274 0.5 0.0314313 0.00170193
1.24274 0.5 -0.0314313 0.00170204
1.20942 0.5 0.29038 0.00190043
1.20942 0.5 -0.29038 0.00189349
1.11376 0.5 -0.554494 0.00255044
1.11376 0.5 0.554494 0.00254647
1.23036 0.5 -0.190445 0.00177338
1.23036 0.5 0.190445 0.00177952
1.24274 0.5 -0.0942942 0.001706
1.24274 0.5 0.0942942 0.00171101
1.13882 0.5 0.510442 0.00238828
1.13882 0.5 -0.510442 0.00240865
0.969689 0.5 -0.7875 0.00391203
0.969689 0.5 0.7875 0.00382454
1.00005 0.5 -0.749309 0.00364494
1.00005 0.5 0.749309 0.00356681
0.939201 0.5 -0.825 0.00419043
0.939201 0.5 0.825 0.00406744
0.90582 0.5 0.8625 0.00433363
0.90582 0.5 -0.8625 0.00449677
1.17463 0.5 -0.430746 0.00214786
1.17463 0.5 0.430746 0.00214974
1.10076 0.5 -0.594676 0.00265297
1.10076 0.5 0.594676 0.00266049
1.18772 0.5 -0.393684 0.00206251
1.18772 0.5 0.393684 0.00206498
1.24274 0.5 -0.157157 0.00172204
1.24274 0.5 0.157157 0.00172866
1.16179 0.5 -0.468373 0.00225427
1.16179 0.5 0.468373 0.0022433
0.467897 0.5 -1.1625 0.011078
0.467897 0.5 1.1625 0.0107428
0.872064 0.5 -0.9 0.00492844
0.872064 0.5 0.9 0.00474323
1.25401 0.5 2.08167e-17 0.00167212
0.835106 0.5 0.9375 0.00516705
0.835106 0.5 -0.9375 0.00537646
1.25401 0.5 -0.0622994 0.00167388
1.25401 0.5 0.0622994 0.0016762
1.08112 0.5 -0.638498 0.00281925
1.08112 0.5 0.638498 0.00279363
1.23036 0.5 -0.253927 0.00180307
1.23036 0.5 0.253927 0.00181058
0.219992 0.5 1.2375 0.0143122
0.219992 0.5 -1.2375 0.0147297
1.25309 0.5 0.121964 0.00168929
1.05695 0.5 0.685452 0.00297991
1.05695 0.5 -0.685452 0.00304429
0.797732 0.5 0.975 0.00566543
0.797732 0.5 -0.975 0.00590315
1.25401 0.5 -0.124599 0.00168339
1.20942 0.5 -0.354909 0.00194475
1.20942 0.5 0.354909 0.00194895
1.24274 0.5 -0.220019 0.00174566
1.24274 0.5 0.220019 0.00175398
0.756814 0.5 -1.0125 0.00646591
0.756813 0.5 1.0125 0.00618938
1.25401 0.5 -0.186898 0.00170235
1.25401 0.5 0.186898 0.00170998
0.411736 0.5 -1.2 0.0121105
0.411736 0.5 1.2 0.0117235
0 0.5 -1.26882 0.0118179
0 0.5 1.26882 0.0116176
0.0124865 0.5 1.26882 0.0123969
0.0124865 0.5 -1.26882 0.0126148
0.715434 0.5 -1.05 0.0071288
0.715434 0.5 1.05 0.00683459
1.23036 0.5 -0.31741 0.00184406
1.23036 0.5 0.31741 0.00185127
1.04168 0.5 -0.729162 0.00328829
1.04168 0.5 0.729162 0.00320772
1.18772 0.5 -0.459298 0.00214345
1.18772 0.5 0.459298 0.00213807
1.24274 0.5 -0.282882 0.00177848
1.24274 0.5 0.282882 0.00178866
0 0.5 -1.275 0.0118318
0 0.5 1.275 0.0116325
1.27472 0.5 -0.0306319 0.00160717
1.27472 0.5 0.0306319 0.00160776
1.17463 0.5 0.497015 0.00223209
1.17463 0.5 -0.497015 0.00224949
1.11376 0.5 -0.623806 0.00266382
1.11376 0.5 0.623806 0.00265426
1.13882 0.5 -0.578501 0.00248686
1.13882 0.5 0.578501 0.00249626
0.67013 0.5 -1.0875 0.00782898
0.67013 0.5 1.0875 0.00750222
1.27472 0.5 -0.0918959 0.00161012
1.27472 0.5 0.0918959 0.00162766
1.25401 0.5 -0.249197 0.00172939
1.25401 0.5 0.249197 0.00173891
1.16179 0.5 -0.535284 0.00233917
1.16179 0.5 0.535284 0.00233586
1.20942 0.5 -0.419438 0.00200351
1.20942 0.5 0.419438 0.00201073
0 0.5 -1.28118 0.0118462
0 0.5 1.28118 0.0116479
0.0124865 0.5 1.28118 0.0124376
0.0124865 0.5 -1.28118 0.0126536
1.27472 0.5 0.15316 0.00163163
1.27472 0.5 -0.15316 0.00162386
0.151149 0.5 -1.275 0.0157649