# nutMean  POINT_DATA 91129
# x  y  z  nutMean
0 0 0 5.04597e-06
0 0.00368111 0 1.84327e-05
0 0.00749587 0 7.29872e-05
0 0.0114491 0 0.000270619
0 0.0155459 0 0.000705697
0 0.0197915 0 0.00179857
0 0.0241911 0 0.00269056
0 0.0287506 0 0.00301543
0 0.0334755 0 0.00343256
0 0.038372 0 0.00372301
0 0.0434463 0 0.00392961
0 0.0487048 0 0.00409055
0 0.0541543 0 0.00422848
0 0.0598016 0 0.0043586
0 0.0656539 0 0.00449149
0 0.0717187 0 0.00462987
0.075776 0.00184055 0 8.9817e-06
0.075776 0.00558849 0 1.31896e-05
0.075776 0.00947248 -3.46945e-18 6.28067e-05
0.075776 0.0134975 -3.46945e-18 0.000295912
0.075776 0.0176687 3.46945e-18 0.000848723
0 0.0780037 0 0.00477192
0.075776 0.0219913 3.46945e-18 0.00171556
0.075776 0.0264709 3.46945e-18 0.0029037
0.075776 0.031113 -3.46945e-18 0.00438695
0.075776 0.0359237 -3.46945e-18 0.00611243
0 0.0845169 0 0.00491704
0.075776 0.0409092 0 0.00801512
0.075776 0.0460755 -3.46945e-18 0.0100257
0 0.0912666 0 0.00506534
0.075776 0.0514296 -3.46945e-18 0.0120755
0.075776 0.0569779 0 0.0140917
0 0.0982613 0 0.00521608
0.075776 0.0627278 0 0.0151229
0.075776 0.0686863 0 0.0156059
0 0.10551 0 0.00536764
0.075776 0.0748612 3.46945e-18 0.0161436
0.075776 0.0812603 -3.46945e-18 0.0167421
0 0.113022 0 0.00551794
0.075776 0.0878918 3.46945e-18 0.0174096
0 0.120806 0 0.00566584
0.075776 0.0947639 3.46945e-18 0.0181596
0.075776 0.101886 -3.46945e-18 0.0190189
0 0.128874 0 0.0058202
0.075776 0.109266 3.46945e-18 0.0200391
0 0.137234 0 0.00600122
0.075776 0.116914 3.46945e-18 0.0212972
0 0.145897 0 0.00621901
0.075776 0.12484 0 0.0228799
0.151552 0 0 0
0.151552 0.00368111 0 7.39407e-06
0.151552 0.00749587 0 2.53136e-05
0.151552 0.0114491 0 0.000112008
0.151552 0.0155459 0 0.00035341
0.151552 0.0197915 0 0.000805009
0.075776 0.133054 0 0.0248357
0.151552 0.0241911 0 0.00148134
0.151552 0.0287506 0 0.00238257
0 0.154876 0 0.00646503
0.151552 0.0334755 0 0.00349186
0.151552 0.038372 0 0.00478118
0.151552 0.0434463 0 0.00621649
0.151552 0.0487048 0 0.00776129
0.075776 0.141566 0 0.0269005
0.151552 0.0541543 0 0.00937697
0.151552 0.0598016 0 0.0108126
0 0.16418 0 0.00673027
0.151552 0.0656539 0 0.011939
0.151552 0.0717187 0 0.0129986
0.075776 0.150387 0 0.0286172
0.151552 0.0780037 0 0.0141276
0.151552 0.0845169 0 0.0153162
0 0.173822 0 0.00701259
0.075776 0.159528 0 0.0296978
0.151552 0.0912666 0 0.0165385
0.151552 0.0982613 0 0.0177529
0 0.183814 0 0.00731049
0.151552 0.10551 0 0.0188662
0.075776 0.169001 3.46945e-18 0.0299482
0.151552 0.113022 0 0.019889
0.151552 0.120806 0 0.0209731
0 0.194169 0 0.00762105
0.075776 0.178818 3.46945e-18 0.0293953
0.151552 0.128874 0 0.0223258
0.075776 0.188992 3.46945e-18 0.0282596
0.151552 0.137234 0 0.0239392
0 0.2049 0 0.00793849
0.151552 0.145897 0 0.0255422
0.075776 0.199535 0 0.0268191
0 0.21602 0 0.00825446
0.151552 0.154876 0 0.0268991
0.219992 0.00184055 0 2.55289e-06
0.219992 0.00558849 0 5.42005e-06
0.219992 0.00947248 -3.46945e-18 2.17897e-05
0.219992 0.0134975 3.46945e-18 7.78862e-05
0.219992 0.0176687 0 0.000224797
0.219992 0.0219913 0 0.000504359
0.219993 0.0264709 -3.46945e-18 0.000929162
0.219992 0.031113 -3.46945e-18 0.00150471
0.219992 0.0359238 3.46945e-18 0.00223371
0.151552 0.16418 0 0.0278277
0.075776 0.21046 0 0.0252454
0.219992 0.0409092 3.46945e-18 0.00311451
0.219992 0.0460755 0 0.00414184
0.219993 0.0514296 -3.46945e-18 0.00530792
0.219992 0.0569779 0 0.00660275
0 0.227544 0 0.00860763
0.219992 0.0627277 3.46945e-18 0.00801644
0.219992 0.0686863 0 0.00953732
0.151552 0.173822 0 0.0282508
0.219992 0.0748612 3.46945e-18 0.0111498
0.075776 0.221782 0 0.0236162
0.219992 0.0812603 3.46945e-18 0.0128309
0.219992 0.0878917 -3.46945e-18 0.0145526
0.151552 0.183814 0 0.0282175
7.47806e-17 0.239487 0 0.00906031
0.219992 0.0947639 3.46945e-18 0.0162239
0.219993 0.101886 3.46945e-18 0.0177377
0.075776 0.233516 0 0.0224989
0.219993 0.109266 0 0.0187711
0.151552 0.194169 0 0.0278521
0.219993 0.116914 0 0.0195682
0 0.251863 0 0.00959393
0.219993 0.12484 0 0.0203183
0.151552 0.2049 0 0.0272717
0.075776 0.245675 0 0.0220623
0.219992 0.133054 3.46945e-18 0.0215045
0.219992 0.141565 0 0.0228125
0.151552 0.21602 0 0.0265437
0 0.264688 0 0.0101699
0.219992 0.150387 3.46945e-18 0.0241788
0.075776 0.258275 3.46945e-18 0.0218211
0.219992 0.159528 -3.46945e-18 0.0254493
0.151552 0.227544 0 0.0258274
0.219992 0.169001 3.46945e-18 0.0265217
0 0.27798 0 0.0107891
0.075776 0.271334 3.46945e-18 0.0217173
0.151552 0.239487 3.70071e-18 0.0253041
0.219992 0.178818 3.46945e-18 0.0273558
0.288433 0 0 0
0.288433 0.00368111 0 3.05885e-06
0.288433 0.00749587 0 1.14084e-05
0.288433 0.0114491 0 3.95473e-05
0.288433 0.0155459 3.70071e-18 0.000114042
0.288433 0.0197915 0 0.000274823
0.288433 0.0241911 3.70071e-18 0.000547807
0.288433 0.0287506 0 0.000942795
0.219992 0.188991 0 0.0279527
0.288433 0.0334755 0 0.00146734
0.288433 0.038372 0 0.00212342
0.288433 0.0434463 0 0.0029101
7.47806e-17 0.291753 0 0.0114536
0.288433 0.0487048 0 0.00382403
0.288433 0.0541543 0 0.0048596
0.151552 0.251863 0 0.0249084
0.288433 0.0598016 3.70071e-18 0.00600933
0.075776 0.284866 0 0.0217608
0.288433 0.0656539 3.70071e-18 0.00726357
0.219992 0.199534 0 0.0283291
0.288433 0.0717187 0 0.00860919
0.288433 0.0780037 0 0.0100272
0.288433 0.0845169 0 0.0114743
0.288433 0.0912666 0 0.0126131
0.219992 0.21046 -3.46945e-18 0.0285031
0.288433 0.0982613 0 0.0133854
0.151552 0.264688 3.70071e-18 0.0245264
0 0.306027 0 0.0121875
0.288433 0.10551 0 0.0140273
0.075776 0.29889 3.46945e-18 0.0219338
0.288433 0.113022 0 0.0145745
0.219993 0.221782 0 0.0284863
0.288433 0.120806 0 0.0150772
0.288433 0.128874 0 0.0156338
0.151552 0.27798 0 0.0242571
0.288433 0.137234 0 0.0162909
0 0.320819 0 0.0131608
0.219992 0.233515 -3.46945e-18 0.028284
0.075776 0.313423 -3.46945e-18 0.022337
0.288433 0.145897 0 0.016996
0.288433 0.154876 0 0.0177038
0.151552 0.291753 0 0.0240897
0.219993 0.245675 0 0.0279082
0.288433 0.16418 0 0.0183451
0 0.336148 0 0.0146858
0.288433 0.173822 0 0.0188798
0.075776 0.328484 -3.46945e-18 0.0237559
0.219993 0.258275 -3.46945e-18 0.0273881
0.151552 0.306027 0 0.0239215
0.288433 0.183814 0 0.0192962
0.288433 0.194169 0 0.019598
0.219992 0.271334 3.46945e-18 0.0267571
0.350249 0.00184056 -3.46945e-18 9.10678e-07
0.350249 0.00558849 0 3.48819e-06
0.350249 0.00947248 3.46945e-18 1.5259e-05
0.350249 0.0134975 0 4.4768e-05
0.350249 0.0176687 0 0.000114201
0.350249 0.0219913 0 0.000269133
0.350249 0.0264708 3.46945e-18 0.000513413
0.350249 0.031113 0 0.000864202
0 0.352034 0 0.0159434
0.350249 0.0359238 0 0.00132582
0.075776 0.344091 0 0.0270088
0.350249 0.0409091 0 0.00190059
0.350249 0.0460756 3.46945e-18 0.002589
0.288433 0.2049 0 0.0197932
0.350249 0.0514296 0 0.00338975
0.151552 0.320819 0 0.0239768
0.350249 0.0569779 0 0.00429901
0.350249 0.0627277 3.46945e-18 0.00531016
0.350249 0.0686863 3.46945e-18 0.0064127
0.350249 0.0748612 3.46945e-18 0.00759172
0.350249 0.0812603 0 0.00882476
0.219992 0.284867 0 0.026408
0.288433 0.21602 0 0.0198885
0.350249 0.0878917 0 0.0100145
0.350249 0.094764 0 0.0100689
0.350249 0.101886 0 0.010039
0.350249 0.109266 0 0.0101818
0.288433 0.227544 0 0.0198866
0.075776 0.360265 3.46945e-18 0.0266841
0 0.368496 0 0.0159708
0.151552 0.336148 0 0.0246887
0.350249 0.116914 3.46945e-18 0.0104511
0.219992 0.29889 0 0.0259136
0.370854 0.0241911 1.54074e-33 0.000398136
0.350249 0.12484 0 0.010685
0.350249 0.133054 0 0.0108014
0.288433 0.239487 -9.25154e-19 0.01979
0.350249 0.141566 3.46945e-18 0.0109056
0.350249 0.150387 3.46945e-18 0.0110399
0.288433 0.251863 0 0.0196068
0.219992 0.313423 0 0.0252287
0.151552 0.352034 0 0.0249682
0.075776 0.377027 0 0.0242511
0.350249 0.159528 0 0.0111895
0 0.385557 0 0.0153424
0.350249 0.169001 0 0.0113395
0.288433 0.264688 0 0.0193493
0.350249 0.178818 0 0.0114829
0.219992 0.328484 0 0.0244436
0.350249 0.188992 0 0.0116176
0.151552 0.368496 0 0.0238334
0.288433 0.27798 3.70071e-18 0.0191173
0.075776 0.394397 0 0.0222405
0.350249 0.199535 0 0.0117433
7.47806e-17 0.403236 0 0.0149636
0.219992 0.344091 0 0.0236527
0.350249 0.21046 -3.46945e-18 0.0118594
0.288433 0.291753 0 0.0189031
0.412065 9.08189e-19 3.08149e-33 2.43826e-22
0.412065 0.00368111 -2.31298e-18 2.07774e-06
0.412065 0.00749587 -2.31298e-18 9.2748e-06
0.412065 0.0114491 -2.31298e-18 2.77541e-05
0.412065 0.0155459 -2.31298e-18 6.88134e-05
0.412065 0.0197915 0 0.000158812
0.412065 0.0241911 -3.08149e-33 0.000323301
0.412065 0.0264709 0 0.00044877
0.412065 0.0287506 -2.31298e-18 0.000574239
0.412065 0.0334755 -2.31298e-18 0.00091991
0.412065 0.038372 -2.31298e-18 0.00136615
0.151552 0.385557 0 0.0222371
0.412065 0.0434463 0 0.00191452
0.350249 0.221782 0 0.0119642
0.412065 0.0487048 0 0.00256472
0.412065 0.0541543 -3.08149e-33 0.00331428
0.412065 0.0569779 0 0.00373608
0.412065 0.0598016 -2.31298e-18 0.00415789
0.412065 0.0656539 -2.31298e-18 0.00508661
0.412065 0.0717187 -2.31298e-18 0.00608689
0.075776 0.412396 -3.46945e-18 0.0217364
0.412065 0.0780037 -2.31298e-18 0.00707835
0.288433 0.306027 0 0.0185952
0.412065 0.0845169 -2.31298e-18 0.00787539
0.350249 0.233516 3.46945e-18 0.0120547
0 0.421557 0 0.014992
0.412065 0.0912666 -2.31298e-18 0.00823034
0.219992 0.360265 3.46945e-18 0.0228136
0.412065 0.0982613 0 0.00826747
0.412065 0.10551 0 0.00831958
0.412065 0.113022 -2.31298e-18 0.00844892
0.350249 0.245675 0 0.0121273
0.412065 0.120806 0 0.00860264
0.151552 0.403236 0 0.0211036
0.288433 0.320819 0 0.0182069
0.412065 0.128874 -2.31298e-18 0.00871934
0.412065 0.137234 0 0.00880512
0.350249 0.258275 -3.46945e-18 0.0121783
0.219992 0.377026 0 0.0218331
0.412065 0.145897 -2.31298e-18 0.00889634
0.075776 0.431051 0 0.0217303
0.412065 0.154876 -2.31298e-18 0.00899858
0 0.440544 0 0.0151267
0.288433 0.336148 0 0.017785
0.350249 0.271334 0 0.0122012
0.412065 0.16418 -2.31298e-18 0.00910402
0.412065 0.173822 -2.31298e-18 0.00920728
0.151552 0.421557 0 0.0205115
0.412065 0.183814 -2.31298e-18 0.009306
0.350249 0.284867 3.46945e-18 0.0121923
0.219992 0.394397 0 0.0207765
0.288433 0.352034 3.70071e-18 0.0173434
0.412065 0.194169 0 0.0093995
0.075776 0.450382 0 0.0217792
0.412065 0.2049 -2.31298e-18 0.00948744
0 0.46022 0 0.0152742
0.350249 0.29889 3.46945e-18 0.0121569
0.412065 0.21602 0 0.00956911
0.151552 0.440544 0 0.0201319
0.219993 0.412396 3.46945e-18 0.0197953
0.467897 0.00184056 -3.46945e-18 5.93318e-07
0.467897 0.00558849 0 3.33582e-06
0.288433 0.368496 0 0.0168466
0.467897 0.00947248 0 1.50303e-05
0.467897 0.0134975 0 3.62749e-05
0.467897 0.0176687 3.46945e-18 8.14988e-05
0.467897 0.0219913 -3.46945e-18 0.000174998
0.467897 0.0264709 3.46945e-18 0.000345141
0.467897 0.0311131 3.46945e-18 0.00059018
0.467897 0.0359238 -3.46945e-18 0.000923859
0.467897 0.038372 0 0.00118123
0.467897 0.0409092 3.46945e-18 0.00134878
0.350249 0.313423 0 0.0120985
0.467897 0.0460755 0 0.00186574
0.467897 0.0514296 3.46945e-18 0.00247359
0.412065 0.227544 -2.31298e-18 0.00964318
0.467897 0.0569779 0 0.00316867
0.467897 0.0627277 -3.46945e-18 0.00394388
0.467897 0.0686863 3.46945e-18 0.0047877
0.467897 0.0748612 0 0.00568298
0.467897 0.0812603 0 0.00637136
0.467897 0.0878918 3.46945e-18 0.00650602
0.075776 0.470415 3.46945e-18 0.0219055
0.412065 0.239487 -2.31298e-18 0.00970783
0.467897 0.0947639 -3.46945e-18 0.00658412
0.467897 0.101886 3.46945e-18 0.00662652
0.350249 0.328483 0 0.0120222
0.467897 0.109266 0 0.00668026
0 0.48061 0 0.0154123
0.288433 0.385557 0 0.0162837
0.467897 0.116914 0 0.00674239
0.412065 0.251863 -2.31298e-18 0.0097612
0.219992 0.431051 0 0.0189695
0.467897 0.12484 0 0.00680545
0.151552 0.46022 0 0.0198512
0.467897 0.133054 3.46945e-18 0.00686694
0.467897 0.141566 3.46945e-18 0.00693134
0.412065 0.264688 -2.31298e-18 0.00980085
0.350249 0.344091 -3.46945e-18 0.0119332
0.467897 0.150387 3.46945e-18 0.00699712
0.467897 0.154876 0 0.00753351
0.467897 0.159528 3.46945e-18 0.00706187
0.288433 0.403236 0 0.0157071
0.075776 0.491175 0 0.0219743
0.412065 0.27798 -2.31298e-18 0.00982484
0.467897 0.169001 0 0.00712538
0.467897 0.178818 3.46945e-18 0.00718743
0.219992 0.450382 0 0.018295
6.73026e-17 0.501741 3.70071e-18 0.0154903
0.350249 0.360265 0 0.0118307
0.151552 0.48061 0 0.0196191
0.467897 0.188991 0 0.00724771
0.412065 0.291753 0 0.00983358
0.467897 0.199535 0 0.00730602
0.288433 0.421557 0 0.0151795
0.467897 0.21046 0 0.0073621
0.412065 0.306027 0 0.00982825
0.350249 0.377027 0 0.0117049
0.467897 0.221782 3.46945e-18 0.0074156
0.075776 0.51269 0 0.0219304
0.219993 0.470415 3.46945e-18 0.0177271
0.467897 0.227544 0 0.008028
0.412065 0.320819 -2.31298e-18 0.00981003
0.467897 0.233515 0 0.00746612
6.73026e-17 0.523639 3.70071e-18 0.0154985
0.523729 0 0 0
0.523729 0.00368111 0 1.90388e-06
0.523729 0.00749587 -2.31298e-18 9.55875e-06
0.523729 0.0114491 0 2.59224e-05
0.523729 0.0155459 0 5.55487e-05
0.523729 0.0197915 -2.31298e-18 0.000113042
0.151552 0.501741 0 0.019373
0.523729 0.0241911 0 0.000225871
0.523729 0.0287506 0 0.000407063
0.523729 0.0334755 0 0.000660343
0.523729 0.038372 -3.08149e-33 0.000996316
0.523729 0.0434463 0 0.00141677
0.523729 0.0487048 0 0.00192135
0.523729 0.0541543 0 0.00250739
0.288433 0.440544 0 0.014728
0.523729 0.0598016 0 0.00316918
0.350249 0.394397 -3.46945e-18 0.0115491
0.523729 0.0656539 0 0.00389699
0.467897 0.245675 0 0.00751331
0.523729 0.0717187 0 0.00466924
0.523729 0.0780037 0 0.0052681
0.523729 0.0845169 0 0.00552486
0.523729 0.0912666 0 0.00561321
0.412065 0.336148 0 0.00978069
0.523729 0.0982613 0 0.00567716
0.523729 0.10551 -2.31298e-18 0.00573225
0.467897 0.258275 -3.46945e-18 0.00755697
0.523729 0.113022 0 0.00578983
0.523729 0.120806 -3.08149e-33 0.00584777
0.219993 0.491176 0 0.017221
0.523729 0.12484 0 0.00587581
0.523729 0.128874 -2.31298e-18 0.00590384
0.075776 0.534986 0 0.0218034
0.467897 0.271334 3.46945e-18 0.00759748
0.350249 0.412396 -3.46945e-18 0.0113716
0.523729 0.137234 0 0.00595888
0.412065 0.352034 -2.31298e-18 0.00974096
0.288433 0.46022 0 0.0143475
0.523729 0.145897 0 0.00601399
0.151552 0.523639 0 0.0191007
0.523729 0.154876 -3.08149e-33 0.00606844
0 0.546332 0 0.0154529
0.523729 0.159528 0 0.00609507
0.467897 0.284867 -3.46945e-18 0.00763637
0.523729 0.16418 -2.31298e-18 0.00612171
0.523729 0.173822 0 0.00617379
0.412065 0.368496 0 0.00968824
0.523729 0.183814 0 0.00622458
0.467897 0.29889 0 0.00767225
0.350249 0.431051 -3.46945e-18 0.0111905
0.219992 0.51269 0 0.0167565
0.523729 0.194169 0 0.00627398
0.288433 0.48061 0 0.0140187
0.523729 0.2049 0 0.00632191
0.467897 0.313423 3.46945e-18 0.00770295
0.075776 0.558091 0 0.0216209
0.412065 0.385557 0 0.00961835
0.523729 0.21602 -3.08149e-33 0.00636824
0.151552 0.546332 0 0.0188164
0 0.569849 0 0.0153665
0.350249 0.450382 3.46945e-18 0.011022
0.523729 0.227544 -3.08149e-33 0.00641283
0.467897 0.328483 0 0.00772698
0.523729 0.231525 1.54074e-33 0.00642707
0.574156 0.00184056 0 4.28408e-07
0.574156 0.00558849 0 3.26603e-06
0.574157 0.00947248 0 1.6554e-05
0.574156 0.0134975 -3.46945e-18 3.57959e-05
0.574156 0.0176687 -3.46945e-18 6.90644e-05
0.574156 0.0219913 0 0.000128605
0.574156 0.0264708 -3.46945e-18 0.000259231
0.574156 0.031113 0 0.000441656
0.574156 0.0359238 -3.46945e-18 0.000698365
0.574157 0.0409092 0 0.00103263
0.523729 0.239487 3.70071e-18 0.00645555
0.574156 0.0460755 -3.46945e-18 0.00144493
0.574156 0.0514295 0 0.00193371
0.412065 0.403236 0 0.0095314
0.574157 0.0569779 0 0.00249474
0.574156 0.0627277 0 0.0031202
0.574156 0.0686863 0 0.00379766
0.219992 0.534986 0 0.0163305
0.288433 0.501741 0 0.0137242
0.574156 0.0748612 3.46945e-18 0.00448284
0.574156 0.0812603 0 0.00463467
0.467897 0.344091 0 0.00774328
0.574156 0.0878917 3.46945e-18 0.00470703
0.523729 0.251863 0 0.00649632
0.574157 0.0947639 0 0.00477766
0.574156 0.101886 0 0.00484182
0.574156 0.109266 0 0.00490095
0.574156 0.116914 0 0.00495628
0.412065 0.416977 -6.16298e-33 0.00945848
0.350249 0.470415 0 0.0108754
0.523729 0.264688 0 0.00653529
0.075776 0.582034 0 0.0214029
0.574156 0.12484 0 0.00500809
0.574156 0.133054 3.46945e-18 0.00505681
0.412065 0.421557 -2.31298e-18 0.00943417
0.151552 0.569849 0 0.0185324
0.467897 0.360265 -3.46945e-18 0.00775162
0.574157 0.141566 -3.46945e-18 0.00510336
0.523729 0.27798 0 0.00657298
0.574156 0.150386 3.46945e-18 0.00514832
0 0.594219 0 0.0152495
0.574156 0.159528 -3.46945e-18 0.00519199
0.574156 0.16418 0 0.00538859
0.288433 0.523639 1.2326e-32 0.0134563
0.574157 0.169001 0 0.00523454
0.523729 0.291753 0 0.00660933
0.219993 0.558091 3.46945e-18 0.0159476
0.467897 0.377026 0 0.00775194
0.574156 0.178818 3.46945e-18 0.00527608
0.412065 0.440544 -2.31298e-18 0.00933655
0.350249 0.491175 0 0.01075
0.574156 0.188992 3.46945e-18 0.00531667
0.523729 0.306027 -3.08149e-33 0.00664316
0.574157 0.199535 0 0.00535635
0.574157 0.21046 0 0.00539515
0.075776 0.606847 0 0.0211623
0.467897 0.394397 0 0.00774354
0.151552 0.594219 0 0.0182558
0.523729 0.320819 0 0.00667317
0.574157 0.221782 -3.46945e-18 0.00543313
0.412065 0.46022 3.08149e-33 0.00924697
0.288433 0.546332 0 0.0132138
0 0.619475 0 0.0151097
0.574156 0.233515 3.46945e-18 0.00547038
0.350249 0.51269 3.46945e-18 0.0106402
0.219992 0.582034 3.46945e-18 0.0156072
0.523729 0.336148 0 0.00669831
0.467897 0.412396 0 0.00772614
0.574156 0.245675 0 0.005507
0.624584 0 0 0
0.624584 0.00368111 0 1.81546e-06
0.624584 0.00749587 0 1.04529e-05
0.624584 0.0114491 0 2.74514e-05
0.624584 0.0155459 0 5.20737e-05
0.624584 0.0197915 0 9.26154e-05
0.624584 0.0241911 -2.31298e-18 0.000173149
0.624584 0.0287506 0 0.000311445
0.624584 0.0334755 0 0.000509823
0.624584 0.038372 0 0.000775839
0.624584 0.0434463 -2.31298e-18 0.00111467
0.624584 0.0487048 0 0.00152578
0.624584 0.0541543 0 0.002006
0.624584 0.0598016 0 0.00254901
0.624584 0.0656539 0 0.00314431
0.624584 0.0717187 0 0.00371819
0.624584 0.0780037 0 0.00404272
0.574157 0.258276 3.46945e-18 0.00554314
0.624584 0.0845169 0 0.00413937
0.523729 0.352034 0 0.00671803
0.624584 0.0912666 0 0.00421103
0.624584 0.0982613 0 0.0042768
0.412065 0.48061 3.08149e-33 0.00916944
0.624584 0.10551 0 0.00433606
0.624584 0.113022 -2.31298e-18 0.00439054
0.574156 0.271334 0 0.00557901
0.624584 0.120806 0 0.00444121
0.467897 0.431051 0 0.00770171
0.075776 0.632561 -3.46945e-18 0.0209075
0.624584 0.128874 0 0.00448854
0.151552 0.619475 0 0.0179901
0.288433 0.569849 0 0.0129971
0.350249 0.534985 0 0.0105425
0.624584 0.137234 -2.31298e-18 0.00453309
0.523729 0.368496 0 0.00673216
0.574156 0.284866 -3.46945e-18 0.00561467
0.624584 0.145897 0 0.00457548
0.467897 0.440544 0 0.0080344
0.624584 0.154876 0 0.00461617
0.219992 0.606847 -3.46945e-18 0.0153064
0 0.645647 0 0.0149527
0.624584 0.16418 -3.08149e-33 0.00465546
0.574156 0.29889 -3.46945e-18 0.00564968
0.624584 0.173822 0 0.00469356
0.412065 0.501741 1.54074e-33 0.00910357
0.467897 0.450382 -3.46945e-18 0.00767438
0.523729 0.385557 0 0.00674052
0.624584 0.183814 0 0.00473062
0.624584 0.194169 0 0.00476674
0.574156 0.313423 0 0.00568325
0.624584 0.2049 0 0.00480202
0.350249 0.558091 3.46945e-18 0.010455
0.288433 0.594219 0 0.0128055
0.624584 0.21602 0 0.00483656
0.523729 0.403236 0 0.0067428
0.574156 0.328483 -3.46945e-18 0.00571449
0.151552 0.645647 0 0.0177364
0.467897 0.470415 3.46945e-18 0.00764879
0.075776 0.659208 0 0.0206439
0.624584 0.227544 0 0.00487046
0.412065 0.523639 0 0.00904738
0.523729 0.41545 3.08149e-33 0.00674057
0.624584 0.239487 3.70071e-18 0.00490385
0.574156 0.344091 0 0.00574272
0.219992 0.632561 0 0.0150415
0.67013 0.00184055 0 3.12566e-07
0.67013 0.00558849 0 3.2588e-06
0.67013 0.00947248 0 1.86671e-05
0.67013 0.0134975 0 3.86334e-05
0.67013 0.0176687 -3.46945e-18 6.48459e-05
0.67013 0.0219913 0 0.000108708
0.67013 0.0264708 3.46945e-18 0.000198593
0.67013 0.0311131 0 0.000351073
0.67013 0.0359237 0 0.000555564
0.67013 0.0409092 -3.46945e-18 0.000827768
0.67013 0.0460755 0 0.00116855
0.67013 0.0514296 3.46945e-18 0.00157591
0.523729 0.421557 -2.31298e-18 0.00673945
0.67013 0.056978 0 0.00204509
0 0.67277 0 0.0147833
0.67013 0.0627277 0 0.00256761
0.624584 0.251863 0 0.00493686
0.67013 0.0686863 0 0.00313022
0.67013 0.0748612 3.46945e-18 0.00351361
0.67013 0.0812603 0 0.00360275
0.67013 0.0878917 0 0.00367789
0.67013 0.0947639 3.46945e-18 0.00374638
0.574156 0.360265 0 0.00576762
0.67013 0.101886 0 0.00380636
0.523729 0.431051 0 0.00673585
0.624584 0.264688 0 0.00496963
0.467897 0.491175 0 0.00762802
0.67013 0.109266 3.46945e-18 0.0038604
0.350249 0.582034 0 0.0103775
0.67013 0.116914 0 0.00391015
0.67013 0.12484 0 0.00395627
0.67013 0.133054 0 0.00399925
0.288433 0.619475 0 0.0126378
0.624584 0.27798 -3.08149e-33 0.00500222
0.412065 0.546332 1.54074e-33 0.00899933
0.523729 0.440544 -3.08149e-33 0.00673225
0.67013 0.141566 3.46945e-18 0.00403956
0.685312 0.0241911 -7.70372e-34 0.000151236
0.685312 0.0434463 -7.70372e-34 0.000978229
0.67013 0.150387 0 0.0040777
0.574156 0.377026 -3.46945e-18 0.0057892
0.67013 0.159528 0 0.00411411
0.624584 0.291753 0 0.00503453
0.151552 0.67277 0 0.017495
0.075776 0.686823 0 0.0203757
0.67013 0.169001 0 0.00414909
0.67013 0.178818 0 0.00418287
0.467897 0.51269 0 0.00761313
0.685312 0.113022 -7.70372e-34 0.00381743
0.219992 0.659208 0 0.0148085
0.624584 0.306027 0 0.00506614
0.67013 0.188991 0 0.00421564
0.574156 0.394397 3.46945e-18 0.00580738
0.523729 0.46022 0 0.00672402
0.685312 0.137234 -7.70372e-34 0.00395151
0.67013 0.199535 -3.46945e-18 0.00424754
0.350249 0.606847 0 0.0103107
0 0.700877 0 0.0146052
0.624584 0.320819 0 0.00509649
0.67013 0.21046 0 0.00427873
0.412065 0.569849 -2.31298e-18 0.00895867
0.67013 0.221782 -3.46945e-18 0.00430933
0.574157 0.412396 0 0.00582201
0.288433 0.645647 0 0.0124923
0.624584 0.336148 -3.08149e-33 0.00512503
0.67013 0.233515 3.46945e-18 0.00433951
0.467897 0.534986 0 0.00760395
0.523729 0.48061 0 0.00671753
0.624584 0.344091 0 0.0051382
0.67013 0.245675 0 0.00436941
0.715676 4.54095e-19 0 4.37382e-23
0.715676 0.00368111 0 1.77264e-06
0.715676 0.00749587 0 1.15972e-05
0.715676 0.0114491 0 3.04057e-05
0.715676 0.0155459 0 5.308e-05
0.715676 0.0197915 0 8.43613e-05
0.715676 0.0241911 0 0.000140279
0.715676 0.0287506 0 0.000248598
0.715676 0.0334755 0 0.000412418
0.715676 0.038372 0 0.000628991
0.624584 0.352034 -2.31298e-18 0.00515137
0.715676 0.0434463 0 0.000910006
0.151552 0.700877 0 0.0172658
0.715676 0.0487048 0 0.00125506
0.715676 0.0541543 0 0.00166073
0.574156 0.43105 0 0.00583334
0.715676 0.0598016 0 0.00212021
0.67013 0.258275 0 0.00439915
0.715676 0.0656539 0 0.00262087
0.715676 0.0717187 0 0.00302219
0.075776 0.715441 0 0.0201062
0.715676 0.0780037 0 0.00320889
0.715676 0.0845169 0 0.00329052
0.219992 0.686824 0 0.0146033
0.715676 0.0912666 0 0.00336173
0.715676 0.0982613 0 0.00342455
0.67013 0.271334 -3.46945e-18 0.00442879
0.350249 0.632561 -3.46945e-18 0.0102552
0.412065 0.594219 3.08149e-33 0.00892547
0.715676 0.10551 0 0.00348027
0.715676 0.113022 0 0.00353087
0.624584 0.368496 0 0.00517534
0.523729 0.501741 0 0.00671462
0.715676 0.120806 0 0.00357744
0.715676 0.128874 0 0.00362055
0.67013 0.284867 0 0.00445834
0.467897 0.558091 3.46945e-18 0.00759974
0.715676 0.137234 0 0.00366072
0.574156 0.450382 0 0.00584238
0 0.730005 0 0.0144219
0.715676 0.145897 0 0.00369844
0.288433 0.67277 0 0.012367
0.715676 0.154876 0 0.00373414
0.67013 0.29889 0 0.00448765
0.624584 0.385557 0 0.00519689
0.715676 0.16418 -9.25187e-19 0.00376817
0.715676 0.173822 0 0.00380082
0.715676 0.183814 0 0.0038323
0.67013 0.313423 0 0.00451646
0.523729 0.523639 0 0.006716
0.715676 0.194169 0 0.00386279
0.574156 0.470415 3.46945e-18 0.00585082
0.624584 0.403236 0 0.00521596
0.743101 0.0241911 -7.70372e-34 0.00013373
0.412065 0.619475 3.08149e-33 0.00890021
0.715676 0.2049 0 0.00389246
0.151552 0.730005 0 0.0170487
0.67013 0.328484 3.46945e-18 0.00454442
0.350249 0.659208 0 0.0102111
0.467897 0.582034 0 0.00760019
0.715676 0.21602 0 0.00392145
0.219992 0.715441 0 0.0144225
0.075776 0.745097 -3.46945e-18 0.0198385
0.715676 0.227544 0 0.0039499
0.67013 0.344091 0 0.00457121
0.624584 0.421557 0 0.00523257
0.743101 0.128874 -7.70372e-34 0.00342516
0.715676 0.239487 3.70071e-18 0.00397796
0.574156 0.491175 0 0.00586048
0.756814 0.00184055 0 2.24066e-07
0.523729 0.546332 0 0.00672167
0.756813 0.00558849 0 3.29671e-06
0.756813 0.00947248 0 2.10953e-05
0.756814 0.0134975 -3.46945e-18 4.30298e-05
0.756814 0.0155459 0 5.47265e-05
0.756814 0.0176687 0 6.56607e-05
0.756814 0.0219913 0 9.85045e-05
0.756814 0.0264709 0 0.000156824
0.756814 0.031113 -3.46945e-18 0.000290871
0.756813 0.0359238 -3.46945e-18 0.000456788
0.288433 0.700877 0 0.0122601
0.756814 0.0409092 -3.46945e-18 0.00068293
0.756813 0.0460755 3.46945e-18 0.000970741
0.756813 0.0514296 0 0.0013183
0.715676 0.251863 0 0.00400575
0.756813 0.0569779 0 0.00172053
0.756814 0.0627277 -3.46945e-18 0.00216864
0.756814 0.0686863 -3.46945e-18 0.00264275
0 0.76019 0 0.0142363
0.756814 0.0748612 0 0.00283596
0.67013 0.360265 3.46945e-18 0.00459659
0.756814 0.0812603 -3.46945e-18 0.00292258
0.756814 0.0878917 -3.46945e-18 0.00299826
0.756814 0.0947639 -3.46945e-18 0.00306384
0.715676 0.264688 0 0.00403334
0.756813 0.101886 0 0.00312121
0.624584 0.440544 0 0.00524716
0.756813 0.109266 3.46945e-18 0.00317284
0.756813 0.116914 3.46945e-18 0.00321999
0.412065 0.645647 0 0.00888332
0.467897 0.606847 0 0.0076055
0.756814 0.120806 0 0.0032851
0.756813 0.12484 0 0.00326336
0.715676 0.27798 0 0.00406076
0.756814 0.133054 -3.46945e-18 0.00330349
0.67013 0.377026 -3.46945e-18 0.00462045
0.756814 0.137234 0 0.00336683
0.574156 0.51269 0 0.00587269
0.756813 0.141566 3.46945e-18 0.00334091
0.685312 0.352034 -7.70372e-34 0.0045115
0.743101 0.2049 -7.70372e-34 0.00369136
0.350249 0.686824 0 0.0101782
0.756814 0.150387 0 0.00337606
0.756814 0.154876 0 0.00343845
0.715676 0.291753 0 0.004088
0.756814 0.159528 -3.46945e-18 0.00340931
0.523729 0.569849 0 0.00673142
0.72743 0.264688 0 0.00394494
0.756814 0.16418 0 0.00347146
0.151552 0.76019 0 0.0168438
0.756813 0.169001 3.46945e-18 0.00344098
0.624584 0.46022 0 0.00526062
0.219993 0.745097 0 0.0142634
0.67013 0.394396 0 0.00464274
0.756813 0.178818 -3.46945e-18 0.00347131
0.715676 0.306027 0 0.00411492
0.075776 0.775831 0 0.0195753
0.756813 0.188991 0 0.00350053
0.756814 0.199535 0 0.0035288
0.715676 0.320819 0 0.0041413
0.574156 0.534985 0 0.00588813
0.288433 0.730005 0 0.0121698
0.756813 0.21046 0 0.00355629
0.467897 0.632561 0 0.00761617
0.67013 0.412396 -3.46945e-18 0.00466346
0.624584 0.48061 -3.08149e-33 0.00527422
0.756814 0.221782 0 0.00358315
0.412065 0.67277 3.08149e-33 0.008875
0.715676 0.336148 0 0.00416693
0 0.791472 0 0.0140514
0.756813 0.233516 3.46945e-18 0.00360951
0.523729 0.594219 0 0.00674526
0.624584 0.487654 1.54074e-33 0.00527922
0.756814 0.245675 3.46945e-18 0.0036355
0.350249 0.715441 3.46945e-18 0.0101563
0.67013 0.43105 0 0.0046827
0.715676 0.352034 -9.25187e-19 0.00419156
0.797951 9.08189e-19 -3.08149e-33 6.31371e-23
0.797951 0.00368111 2.31298e-18 1.75735e-06
0.797951 0.00749587 2.31298e-18 1.28801e-05
0.797951 0.0114491 2.31298e-18 3.39984e-05
0.797951 0.0141803 7.70372e-34 4.89148e-05
0.797951 0.0155459 0 5.6373e-05
0.797951 0.0169611 7.70372e-34 6.47012e-05
0.797951 0.0197915 2.31298e-18 8.13575e-05
0.797951 0.0219913 0 0.000100995
0.797951 0.0241911 3.08149e-33 0.000120632
0.797951 0.0264709 0 0.000161762
0.797951 0.0287506 -3.08149e-33 0.000202892
0.797951 0.0334755 2.31298e-18 0.000340282
0.797951 0.038372 2.31298e-18 0.00052428
0.797951 0.0434463 2.31298e-18 0.000761267
0.797951 0.0487048 0 0.00105632
0.756813 0.258275 -3.46945e-18 0.00366121
0.797951 0.0541543 2.31298e-18 0.00140602
0.797951 0.0598016 2.31298e-18 0.00180325
0.797951 0.0656539 2.31298e-18 0.00222183
0.574156 0.55809 0 0.00590697
0.624584 0.501741 0 0.00528922
0.797951 0.0717187 2.31298e-18 0.00250864
0.797951 0.0780037 -3.08149e-33 0.00262975
0.797951 0.0845169 2.31298e-18 0.00271136
0.797951 0.0912666 -3.08149e-33 0.00278221
0.797951 0.0982613 2.31298e-18 0.00284366
0.756813 0.271334 0 0.00368668
0.797951 0.10551 2.31298e-18 0.00289819
0.715676 0.368496 0 0.00421508
0.151552 0.791472 0 0.0166514
0.797951 0.113022 2.31298e-18 0.00294757
0.219992 0.775831 3.46945e-18 0.0141238
0.797951 0.118211 7.70372e-34 0.00297769
0.770526 0.239487 1.54074e-33 0.00356987
0.797951 0.120806 0 0.00299276
0.67013 0.450382 3.46945e-18 0.00470077
0.797951 0.128874 3.08149e-33 0.00303437
0.467897 0.659208 0 0.00763267
0.756813 0.284866 -3.46945e-18 0.00371194
0.743101 0.320819 -7.70372e-34 0.00393021
0.797951 0.137234 0 0.00307294
0.797951 0.141566 0 0.00309094
0.797951 0.145897 -9.25187e-19 0.00310894
0.523729 0.619475 0 0.00676347
0.075776 0.807681 0 0.0193189
0.797951 0.150387 0 0.00312585
0.797951 0.154876 0 0.00314276
0.715676 0.385557 0 0.0042374
0.412065 0.700877 3.08149e-33 0.00887535
0.288433 0.76019 0 0.0120949
0.756813 0.29889 0 0.00373697
0.797951 0.16418 0 0.00317474
0.624584 0.523639 0 0.0053065
0.797951 0.167394 7.70372e-34 0.00318488
0.797951 0.173822 2.31298e-18 0.00320516
0.574156 0.582034 0 0.00592919
0.67013 0.470415 0 0.00471838
0.797951 0.183814 2.31298e-18 0.00323424
0.756813 0.313423 -3.46945e-18 0.00376167
0.797951 0.194169 -9.25187e-19 0.00326219
0.715676 0.403236 0 0.00425851
0.151552 0.807681 0 0.0165617
0.797951 0.197746 -7.70372e-34 0.00327118
0.350249 0.745097 0 0.0101449
0.797951 0.2049 3.08149e-33 0.00328917
0 0.823889 0 0.0138696
0.756813 0.328483 -3.46945e-18 0.00378592
0.797951 0.21046 0 0.00330226
0.797951 0.21602 -3.08149e-33 0.00331535
0.797951 0.223703 7.70372e-34 0.00333235
0.797951 0.227544 9.25187e-19 0.00334085
0.624584 0.546332 0 0.00532656
0.715676 0.421557 0 0.00427846
0.67013 0.491176 -3.46945e-18 0.00473643
0.797951 0.231525 7.70372e-34 0.00334918
0.467897 0.686824 -3.46945e-18 0.00765541
0.523729 0.645647 0 0.00678647
0.756813 0.344091 -3.46945e-18 0.00380955
0.822721 0.120806 7.70372e-34 0.00285257
0.797951 0.239487 -3.08149e-33 0.00336582
0.822721 0.137234 7.70372e-34 0.00293268
0.835106 0.00184056 0 1.57357e-07
0.835106 0.00558849 0 3.35171e-06
0.835106 0.00947248 0 2.37068e-05
0.835106 0.0134975 0 4.79633e-05
0.835107 0.0176687 0 6.86303e-05
0.835106 0.0219913 -3.46945e-18 9.27107e-05