# pMean  POINT_DATA 63140
# x  y  z  pMean
0 0.1 0 0.228222
0 0.1 -0.0179898 0.228303
0 0.1 0.0179898 0.228145
0.0363518 0.1 0.0179898 0.228145
0.0363518 0.1 -0.0179898 0.228303
0 0.1 -0.0570102 0.228318
0 0.1 0.0570102 0.227825
0.0363518 0.1 0.0570102 0.227825
0.0363518 0.1 -0.0570102 0.228318
0 0.1 -0.075 0.22825
0 0.1 0.075 0.227608
0.075776 0.1 -0.0375 0.228393
0.075776 0.1 0.0375 0.228062
0 0.1 -0.0929898 0.228186
0 0.1 0.0929898 0.227394
0.0363518 0.1 -0.0929898 0.228186
0.0363518 0.1 0.0929898 0.227394
0 0.1 -0.13201 0.22788
0 0.1 0.13201 0.226778
0.075776 0.1 -0.1125 0.228118
0.075776 0.1 0.1125 0.227164
0.0363518 0.1 -0.13201 0.22788
0.0363518 0.1 0.13201 0.226778
0 0.1 -0.15 0.227663
0 0.1 0.15 0.226425
0.150379 0.1 -2.22623e-17 0.220552
0 0.1 -0.16799 0.227451
0 0.1 0.16799 0.226075
0.150379 0.1 -0.075 0.220509
0.150379 0.1 0.075 0.219909
0.0363518 0.1 -0.16799 0.227451
0.0363518 0.1 0.16799 0.226075
0.075776 0.1 -0.1875 0.22722
0.075776 0.1 0.1875 0.225697
0 0.1 -0.20701 0.226806
0 0.1 0.20701 0.225145
0.0363518 0.1 -0.20701 0.226806
0.0363518 0.1 0.20701 0.225145
0.150379 0.1 -0.15 0.219753
0.150379 0.1 0.15 0.218588
0.219993 0.1 -0.0375 0.213364
0.219993 0.1 0.0375 0.2131
0 0.1 -0.225 0.226428
0 0.1 0.225 0.22464
0 0.1 -0.24299 0.226052
0 0.1 0.24299 0.224138
0.0363518 0.1 0.24299 0.224138
0.0363518 0.1 -0.24299 0.226052
0.219993 0.1 -0.1125 0.212877
0.219993 0.1 0.1125 0.212023
0.150379 0.1 -0.225 0.218276
0.150379 0.1 0.225 0.21658
0.075776 0.1 -0.2625 0.225646
0.075776 0.1 0.2625 0.223594
0 0.1 -0.28201 0.225062
0 0.1 0.28201 0.22288
0.0363518 0.1 -0.28201 0.225062
0.0363518 0.1 0.28201 0.22288
0.287374 0.1 -2.89121e-19 0.2166
0.219992 0.1 0.1875 0.210196
0.219992 0.1 -0.1875 0.21153
0.287374 0.1 -0.075 0.216521
0.287374 0.1 0.075 0.215908
0 0.1 -0.3 0.224527
0 0.1 0.3 0.222225
0 0.1 0.31799 0.221573
0 0.1 -0.31799 0.223993
0.0363518 0.1 -0.31799 0.223993
0.0363518 0.1 0.31799 0.221573
0.287374 0.1 0.15 0.214447
0.287374 0.1 -0.15 0.215652
0.150379 0.1 -0.3 0.216134
0.150379 0.1 0.3 0.213896
0.219993 0.1 0.2625 0.207578
0.219993 0.1 -0.2625 0.209464
0.075776 0.1 -0.3375 0.223417
0.075776 0.1 0.3375 0.220866
0.350249 0.1 -0.0375 0.219992
0.350249 0.1 0.0375 0.219652
0 0.1 -0.35701 0.222675
0 0.1 0.35701 0.219996
0.0363518 0.1 -0.35701 0.222675
0.0363518 0.1 0.35701 0.219996
0.287374 0.1 -0.225 0.214004
0.287374 0.1 0.225 0.212227
0.350249 0.1 -0.1125 0.219556
0.350249 0.1 0.1125 0.218567
0 0.1 -0.375 0.221995
0 0.1 0.375 0.219198
0 0.1 -0.39299 0.221316
0 0.1 0.39299 0.218401
0.0363518 0.1 -0.39299 0.221316
0.0363518 0.1 0.39299 0.218401
0.350249 0.1 -0.1875 0.218345
0.350249 0.1 0.1875 0.216714
0.219992 0.1 -0.3375 0.206787
0.219992 0.1 0.3375 0.204316
0.150379 0.1 0.375 0.210612
0.150379 0.1 -0.375 0.213379
0.411108 0.1 4.33681e-19 0.225234
0.287374 0.1 -0.3 0.211648
0.287374 0.1 0.3 0.209291
0.411108 0.1 -0.075 0.225146
0.411108 0.1 0.075 0.224466
0.075776 0.1 -0.4125 0.220582
0.075776 0.1 0.4125 0.217539
0 0.1 0.43201 0.216529
0 0.1 -0.43201 0.21969
0.0363518 0.1 0.43201 0.216529
0.0363518 0.1 -0.43201 0.21969
0.411108 0.1 -0.15 0.224199
0.411108 0.1 0.15 0.222851
0.350249 0.1 -0.2625 0.216373
0.350249 0.1 0.2625 0.21413
0 0.1 -0.45 0.218871
0 0.1 0.45 0.215602
0.219992 0.1 0.4125 0.200521
0.219992 0.1 -0.4125 0.203525
0 0.1 -0.46799 0.218053
0 0.1 0.46799 0.214675
0.411108 0.1 -0.225 0.222412
0.411108 0.1 0.225 0.220413
0.467897 0.1 -0.0375 0.230597
0.467897 0.1 0.0375 0.230251
0.0363518 0.1 0.46799 0.214675
0.0363518 0.1 -0.46799 0.218053
0.287374 0.1 -0.375 0.208635
0.287374 0.1 0.375 0.205723
0.150379 0.1 0.45 0.206789
0.150379 0.1 -0.45 0.210056
0.467897 0.1 0.1125 0.228956
0.467897 0.1 -0.1125 0.229999
0.350249 0.1 -0.3375 0.213661
0.350249 0.1 0.3375 0.210851
0.075776 0.1 -0.4875 0.217169
0.075776 0.1 0.4875 0.213672
0.467897 0.1 0.1875 0.226741
0.467897 0.1 -0.1875 0.228468
0 0.1 -0.50701 0.216141
0 0.1 0.50701 0.212534
0.0363518 0.1 -0.50701 0.216141
0.0363518 0.1 0.50701 0.212534
0.411108 0.1 0.3 0.217202
0.411108 0.1 -0.3 0.219821
0.522865 0.1 1.41031e-17 0.236889
0 0.1 -0.525 0.215197
0 0.1 0.525 0.211488
0.522865 0.1 -0.075 0.236749
0.522865 0.1 0.075 0.236013
0.287374 0.1 0.45 0.201583
0.287374 0.1 -0.45 0.205018
0.219992 0.1 0.4875 0.196238
0.219992 0.1 -0.4875 0.199762
0.467897 0.1 -0.2625 0.226051
0.467897 0.1 0.2625 0.22366
0.350249 0.1 -0.4125 0.210264
0.350249 0.1 0.4125 0.206919
0 0.1 -0.54299 0.214253
0 0.1 0.54299 0.210443
0.522865 0.1 0.15 0.234132
0.522865 0.1 -0.15 0.235599
0.0363518 0.1 0.54299 0.210443
0.0363518 0.1 -0.54299 0.214253
0.150379 0.1 -0.525 0.206227
0.150379 0.1 0.525 0.202496
0.411108 0.1 -0.375 0.216471
0.411108 0.1 0.375 0.21327
0.075776 0.1 -0.5625 0.213233
0.075776 0.1 0.5625 0.209311
0.522865 0.1 -0.225 0.233466
0.522865 0.1 0.225 0.231291
0.574156 0.1 0.0375 0.242911
0.574157 0.1 -0.0375 0.243302
0.467897 0.1 -0.3375 0.222806
0.467897 0.1 0.3375 0.219783
0 0.1 -0.58201 0.212084
0 0.1 0.58201 0.208062
0.0363518 0.1 -0.58201 0.212084
0.0363518 0.1 0.58201 0.208062
0.574157 0.1 -0.1125 0.242603
0.574157 0.1 0.1125 0.24144
0.287374 0.1 -0.525 0.200867
0.287374 0.1 0.525 0.196942
0 0.1 -0.6 0.211028
0 0.1 0.6 0.206914
0.350249 0.1 0.4875 0.202374
0.350249 0.1 -0.4875 0.206226
0.522865 0.1 -0.3 0.230403
0.522865 0.1 0.3 0.227552
0.219992 0.1 -0.5625 0.195571
0.219992 0.1 0.5625 0.191591
0.574156 0.1 -0.1875 0.240836
0.574156 0.1 0.1875 0.238909
0.411108 0.1 0.45 0.208673
0.411108 0.1 -0.45 0.212419
0 0.1 -0.61799 0.209974
0 0.1 0.61799 0.205766
0.150379 0.1 -0.6 0.201943
0.150379 0.1 0.6 0.197792
0.0363518 0.1 -0.61799 0.209974
0.0363518 0.1 0.61799 0.205766
0.467897 0.1 -0.4125 0.218782
0.467897 0.1 0.4125 0.215169
0.623803 0.1 2.34188e-17 0.250467
0.623803 0.1 0.075 0.249465
0.623803 0.1 -0.075 0.250294
0.574156 0.1 0.2625 0.235387
0.574156 0.1 -0.2625 0.238034
0.623803 0.1 0.15 0.247309
0.623803 0.1 -0.15 0.248954
0.075776 0.1 0.6375 0.204524
0.075776 0.1 -0.6375 0.208832
0.522865 0.1 -0.375 0.226473
0.522865 0.1 0.375 0.222986
0 0.1 0.65701 0.203178
0 0.1 -0.65701 0.207579
0.0363518 0.1 0.65701 0.203178
0.0363518 0.1 -0.65701 0.207579
0.350249 0.1 0.5625 0.197303
0.350249 0.1 -0.5625 0.201632
0.623803 0.1 0.225 0.244044
0.623803 0.1 -0.225 0.246475
0.287374 0.1 -0.6 0.196246
0.287374 0.1 0.6 0.191878
0.574157 0.1 -0.3375 0.234263
0.574157 0.1 0.3375 0.230931
0.411108 0.1 0.525 0.203484
0.411108 0.1 -0.525 0.207738
0.67013 0.1 0.0375 0.257344
0.67013 0.1 -0.0375 0.257785
0.219992 0.1 -0.6375 0.190972
0.219993 0.1 0.6375 0.186582
0 0.1 -0.675 0.206427
0 0.1 0.675 0.20194
0.467897 0.1 -0.4875 0.214061
0.467897 0.1 0.4875 0.209899
0.67013 0.1 -0.1125 0.256964
0.67013 0.1 0.1125 0.255646
0.522865 0.1 0.45 0.217679
0.522865 0.1 -0.45 0.221752
0.150379 0.1 0.675 0.192716
0.150379 0.1 -0.675 0.19725
0.623803 0.1 0.3 0.239743
0.623803 0.1 -0.3 0.242915
0 0.1 -0.69299 0.205276
0 0.1 0.69299 0.200703
0.0363518 0.1 -0.69299 0.205276
0.0363518 0.1 0.69299 0.200703
0.67013 0.1 -0.1875 0.254896
0.67013 0.1 0.1875 0.252733
0.574156 0.1 0.4125 0.225639
0.574157 0.1 -0.4125 0.229606
0.714971 0.1 -2.8382e-17 0.265547
0.075776 0.1 -0.7125 0.20403
0.075776 0.1 0.7125 0.199364
0.714971 0.1 -0.075 0.265334
0.714971 0.1 0.075 0.264398
0.67013 0.1 0.2625 0.248656
0.67013 0.1 -0.2625 0.251632
0.411108 0.1 -0.6 0.202507
0.411108 0.1 0.6 0.197793
0.350249 0.1 0.6375 0.191792
0.350249 0.1 -0.6375 0.196551
0.623803 0.1 0.375 0.234496
0.623803 0.1 -0.375 0.238354
0.714971 0.1 -0.15 0.263765
0.714971 0.1 0.15 0.261915
0.467897 0.1 -0.5625 0.208719
0.467897 0.1 0.5625 0.204062
0 0.1 -0.73201 0.202688
0 0.1 0.73201 0.197938
0.0363518 0.1 0.73201 0.197938
0.0363518 0.1 -0.73201 0.202688
0.287374 0.1 -0.675 0.191208
0.287374 0.1 0.675 0.18644
0.522865 0.1 -0.525 0.216329
0.522865 0.1 0.525 0.211723
0.219993 0.1 -0.7125 0.186013
0.219992 0.1 0.7125 0.181242
0.714971 0.1 -0.225 0.260875
0.714971 0.1 0.225 0.258149
0 0.1 0.75 0.196627
0 0.1 -0.75 0.201455
0.67013 0.1 -0.3375 0.247247
0.67013 0.1 0.3375 0.243528
0.574156 0.1 -0.4875 0.224152
0.574157 0.1 0.4875 0.219613
0.756813 0.1 0.0375 0.273018
0.756814 0.1 -0.0375 0.273517
0.150379 0.1 0.746002 0.187743
0.150379 0.1 -0.75 0.192206
0.756813 0.1 -0.1125 0.272549
0.756813 0.1 0.1125 0.271066
0 0.1 0.76799 0.195316
0 0.1 -0.76799 0.200222
0.0363518 0.1 0.76799 0.195316
0.0363518 0.1 -0.76799 0.200222
0.623803 0.1 -0.45 0.232888
0.623803 0.1 0.45 0.228405
0.714971 0.1 -0.3 0.256735
0.714971 0.1 0.3 0.25319
0.756814 0.1 -0.1875 0.270138
0.756814 0.1 0.1875 0.267707
0.67013 0.1 -0.4125 0.24184
0.67013 0.1 0.4125 0.237443
0.411108 0.1 0.675 0.191688
0.411108 0.1 -0.675 0.196809
0.467897 0.1 0.6375 0.197749
0.467897 0.1 -0.6375 0.202844
0.075776 0.1 0.7875 0.193897
0.075776 0.1 -0.7875 0.198887
0.350249 0.1 -0.7125 0.191059
0.350249 0.1 0.7125 0.185925
0.522865 0.1 -0.6 0.210299
0.522865 0.1 0.6 0.205219
0.797314 0.1 -3.59473e-17 0.281646
0.287374 0.1 0.746002 0.180927
0.797314 0.1 -0.075 0.281393
0.797314 0.1 0.075 0.28033
0.756814 0.1 -0.2625 0.266334
0.756814 0.1 0.2625 0.263013
0.287374 0.1 -0.75 0.185817
0.574156 0.1 -0.5625 0.218007
0.574156 0.1 0.5625 0.212954
0 0.1 0.80701 0.192408
0 0.1 -0.80701 0.197474
0.714971 0.1 -0.375 0.251439
0.714971 0.1 0.375 0.24715
0.0363518 0.1 0.80701 0.192408
0.0363518 0.1 -0.80701 0.197474
0.797314 0.1 -0.15 0.279573
0.797314 0.1 0.15 0.27748
0.623803 0.1 -0.525 0.226629
0.623803 0.1 0.525 0.221588
0.219992 0.1 0.7875 0.175633
0.219992 0.1 -0.7875 0.180746
0.149792 0.1 0.80701 0.183072
0 0.1 0.825 0.191039
0 0.1 -0.825 0.196174
0.797314 0.1 -0.225 0.276229
0.797314 0.1 0.225 0.27316
0.756813 0.1 -0.3375 0.261248
0.756813 0.1 0.3375 0.257098
0.67013 0.1 0.4875 0.230515
0.67013 0.1 -0.4875 0.235525
0.835106 0.1 -0.0375 0.290059
0.835106 0.1 0.0375 0.28949
0.150379 0.1 -0.825 0.18687
0.835106 0.1 -0.1125 0.288948
0.835106 0.1 0.1125 0.287253
0 0.1 -0.84299 0.194875
0 0.1 0.84299 0.189669
0.0363518 0.1 -0.84299 0.194875
0.0363518 0.1 0.84299 0.189669
0.714971 0.1 -0.45 0.245108
0.714971 0.1 0.45 0.24015
0.411108 0.1 0.746002 0.185519
0.797314 0.1 -0.3 0.271448
0.797314 0.1 0.3 0.267469
0.467897 0.1 -0.7125 0.196536
0.467897 0.1 0.7125 0.191053
0.522865 0.1 0.675 0.198271
0.522865 0.1 -0.675 0.203766
0.411108 0.1 -0.75 0.190731
0.835106 0.1 -0.1875 0.286168
0.835107 0.1 0.1875 0.28341
0.286844 0.1 0.80701 0.176162
0.574156 0.1 0.6375 0.20578
0.574157 0.1 -0.6375 0.211281
0.350249 0.1 -0.7875 0.18524
0.350249 0.1 0.7875 0.179782
0.756813 0.1 -0.4125 0.254971
0.756814 0.1 0.4125 0.250094
0.623803 0.1 -0.6 0.219699
0.623803 0.1 0.6 0.21417
0.075776 0.1 0.8625 0.188187
0.075776 0.1 -0.8625 0.193469
0.871687 0.1 -3.2767e-18 0.298315
0.287374 0.1 -0.825 0.180143
0.871687 0.1 -0.075 0.298018
0.871687 0.1 0.075 0.296814
0.67013 0.1 -0.5625 0.228436
0.67013 0.1 0.5625 0.222893
0.835106 0.1 0.2625 0.278045
0.835106 0.1 -0.2625 0.2818
0.797314 0.1 -0.375 0.265342
0.797314 0.1 0.375 0.260548
0 0.1 -0.88201 0.192
0 0.1 0.88201 0.186652
0.0363518 0.1 0.88201 0.186652
0.0363518 0.1 -0.88201 0.192
0.871687 0.1 0.15 0.293557
0.871687 0.1 -0.15 0.295925
0.714971 0.1 0.525 0.232337
0.714971 0.1 -0.525 0.237883
0.219993 0.1 0.8625 0.169819
0.219992 0.1 -0.8625 0.175234
0 0.1 0.9 0.185239
0 0.1 -0.9 0.190649
0.756813 0.1 0.4875 0.242146
0.756814 0.1 -0.4875 0.247676
0.871687 0.1 0.225 0.288625
0.871687 0.1 -0.225 0.292088
0.835106 0.1 -0.3375 0.275951
0.835106 0.1 0.3375 0.271278
0.41063 0.1 0.80701 0.180197
0.90582 0.1 -0.0375 0.306946
0.905821 0.1 0.0375 0.306305
0.522865 0.1 0.746002 0.191265
0.150379 0.1 0.9 0.175824
0.90582 0.1 0.1125 0.303755
0.905821 0.1 -0.1125 0.305662
0.522865 0.1 -0.75 0.196833
0.574156 0.1 0.7125 0.198204
0.574156 0.1 -0.7125 0.204089
0.797314 0.1 -0.45 0.258062
0.797314 0.1 0.45 0.252553
0.467897 0.1 -0.7875 0.189879
0.467897 0.1 0.7875 0.184067
0.150379 0.1 -0.903998 0.181659
0 0.1 0.91799 0.183827
0 0.1 -0.91799 0.189298
0.0363518 0.1 0.91799 0.183827
0.0363518 0.1 -0.91799 0.189298
0.623803 0.1 0.675 0.206277
0.623803 0.1 -0.675 0.212225
0.411108 0.1 -0.825 0.184358
0.871687 0.1 0.3 0.282137
0.871687 0.1 -0.3 0.286605
0.67013 0.1 -0.6375 0.22071
0.67013 0.1 0.6375 0.214709
0.90582 0.1 -0.1875 0.302475
0.90582 0.1 0.1875 0.299368
0.350249 0.1 0.8625 0.173419
0.350249 0.1 -0.8625 0.179165
0.835106 0.1 -0.4125 0.268768
0.835106 0.1 0.4125 0.263307
0.714971 0.1 -0.6 0.229913
0.714971 0.1 0.6 0.223866
0.93886 0.1 -1.15648e-17 0.315031
0.075776 0.1 0.9375 0.182298
0.075776 0.1 -0.9375 0.187837
0.93886 0.1 0.075 0.313326
0.93886 0.1 -0.075 0.314709
0.756813 0.1 0.5625 0.233425
0.756814 0.1 -0.5625 0.239508
0.905821 0.1 -0.2625 0.297473
0.905821 0.1 0.2625 0.293256
0.287374 0.1 0.9 0.168539
0.287374 0.1 -0.903998 0.174873
0.871687 0.1 0.375 0.27426
0.871687 0.1 -0.375 0.279619
0.93886 0.1 -0.15 0.31236
0.93886 0.1 0.15 0.309645
0.797314 0.1 0.525 0.243648
0.797314 0.1 -0.525 0.249778
0 0.1 0.95701 0.180731
0 0.1 -0.95701 0.186327
0.0363518 0.1 0.95701 0.180731
0.0363518 0.1 -0.95701 0.186327
0.522433 0.1 0.80701 0.185269
0.219992 0.1 0.9375 0.163857
0.219992 0.1 -0.9375 0.169527
0.93886 0.1 0.225 0.304085
0.93886 0.1 -0.225 0.308044
0.90582 0.1 0.3375 0.285569
0.905821 0.1 -0.3375 0.290782
0.835106 0.1 -0.4875 0.260433
0.835107 0.1 0.4875 0.254281
0.969689 0.1 -0.0375 0.323612
0.969689 0.1 0.0375 0.322861
0.61613 0.1 0.75 0.198036
0.574156 0.1 -0.7875 0.196549
0.574156 0.1 0.7875 0.190337
0 0.1 0.975 0.17929
0 0.1 -0.975 0.184939
0.623803 0.1 -0.75 0.204337
0.969689 0.1 -0.1125 0.322215
0.969689 0.1 0.1125 0.31999
0.522865 0.1 -0.825 0.189603
0.67013 0.1 0.7125 0.206109
0.67013 0.1 -0.7125 0.212495
0.871687 0.1 -0.45 0.271303
0.871687 0.1 0.45 0.26518
0.467897 0.1 0.8625 0.176873
0.467897 0.1 -0.8625 0.182971
0.714971 0.1 -0.675 0.221358
0.714971 0.1 0.675 0.214889
0.93886 0.1 -0.3 0.301867
0.93886 0.1 0.3 0.296789
0.150379 0.1 0.975 0.169843
0.150379 0.1 -0.975 0.17556
0.969689 0.1 -0.1875 0.318695
0.969689 0.1 0.1875 0.315082
0.411108 0.1 0.9 0.171723
0.756813 0.1 0.6375 0.224103
0.756814 0.1 -0.6375 0.230649
0.990306 0.1 -2.19732e-17 0.327929
0 0.1 0.99299 0.177849
0 0.1 -0.99299 0.183551
0.411108 0.1 -0.903998 0.178457
0.990306 0.1 -0.075 0.327591
0.990306 0.1 0.075 0.326044
0.0363518 0.1 0.99299 0.177849
0.0363518 0.1 -0.99299 0.183551
0.90582 0.1 -0.4125 0.282586
0.905821 0.1 0.4125 0.276515
0.797314 0.1 -0.6 0.240671
0.797314 0.1 0.6 0.234029
0.350249 0.1 0.9375 0.166912
0.350249 0.1 -0.9375 0.172907
0.990306 0.1 0.15 0.321996
0.990306 0.1 -0.15 0.325028
0.969689 0.1 -0.2625 0.313151
0.969689 0.1 0.2625 0.308264
0.835106 0.1 -0.5625 0.251128
0.835106 0.1 0.5625 0.244392
0.93886 0.1 -0.375 0.293988
0.93886 0.1 0.375 0.287944
0.075776 0.1 1.0125 0.176289
0.075776 0.1 -1.0125 0.182049
0.990306 0.1 -0.225 0.320306
0.990306 0.1 0.225 0.315894
0.287374 0.1 0.975 0.162254
0.287374 0.1 -0.975 0.168197
0.871687 0.1 -0.525 0.261856
0.871687 0.1 0.525 0.25509
1.02149 0.1 -0.0369628 0.33793
1.02149 0.1 0.0369628 0.337101
0.969689 0.1 -0.3375 0.305695
0.969689 0.1 0.3375 0.299719
1.02149 0.1 -0.110888 0.336402
1.02149 0.1 0.110888 0.333951
0.90582 0.1 0.4875 0.266277
0.90582 0.1 -0.4875 0.273066
0.623803 0.1 0.819003 0.19123
0 0.1 1.03201 0.174706
0 0.1 -1.03201 0.180515
0.0363518 0.1 1.03201 0.174706
0.0363518 0.1 -1.03201 0.180515
0.67013 0.1 -0.7875 0.203927
0.67013 0.1 0.7875 0.197225
0.623803 0.1 -0.825 0.196159
0.990306 0.1 -0.3 0.313536
0.990306 0.1 0.3 0.307901
0.219992 0.1 -1.0125 0.163691
0.219993 0.1 1.0125 0.157798
0.574156 0.1 0.8625 0.182283
0.574157 0.1 -0.8625 0.188769
0.714971 0.1 -0.75 0.212376
0.714971 0.1 0.75 0.205561
1.02149 0.1 0.184814 0.328573
1.02149 0.1 -0.184814 0.332545
0.756814 0.1 -0.7125 0.221267
0.756814 0.1 0.7125 0.214343
0.522865 0.1 0.9 0.175764
0.93886 0.1 -0.45 0.28462
0.93886 0.1 0.45 0.277755
1.04168 0.1 0 0.343485
1.04168 0.1 -0.0729162 0.343176
1.04168 0.1 0.0729162 0.341456
0.522865 0.1 -0.903998 0.182966
0.797314 0.1 -0.675 0.230935
0.797314 0.1 0.675 0.223882
0.467897 0.1 0.9375 0.169558
0.467897 0.1 -0.9375 0.175895
0 0.1 1.05 0.17325
0 0.1 -1.05 0.179104
0.835106 0.1 -0.6375 0.241064
0.835106 0.1 0.6375 0.233882
1.04168 0.1 -0.145832 0.340519
1.04168 0.1 0.145832 0.337152
1.02149 0.1 -0.25874 0.326467
1.02149 0.1 0.25874 0.321103
0.969689 0.1 -0.4125 0.29654
0.969689 0.1 0.4125 0.289645
0.411108 0.1 0.975 0.164771
0.411108 0.1 -0.975 0.17104
0.871687 0.1 -0.6 0.251501
0.871687 0.1 0.6 0.244227
1.0579 0.1 -0.0360525 0.348596
1.0579 0.1 0.0360525 0.347722
0.990306 0.1 -0.375 0.304896
0.990306 0.1 0.375 0.298218
0.150379 0.1 1.05 0.163781
0.150379 0.1 -1.05 0.169702
1.0579 0.1 0.108157 0.344541
1.0579 0.1 -0.108157 0.347128
1.04168 0.1 -0.218749 0.335579
1.04168 0.1 0.218749 0.330687
0.90582 0.1 -0.5625 0.262471
0.90582 0.1 0.5625 0.255102
0 0.1 -1.06799 0.177693
0 0.1 1.06799 0.171793
0.0363518 0.1 -1.06799 0.177693
0.0363518 0.1 1.06799 0.171793
0.350249 0.1 1.0125 0.160323
0.350249 0.1 -1.0125 0.166524
1.0579 0.1 -0.180262 0.343335
1.0579 0.1 0.180262 0.339145
1.02149 0.1 -0.332665 0.318303
1.02149 0.1 0.332665 0.311742
0.93886 0.1 -0.525 0.274006
0.93886 0.1 0.525 0.26647
1.08012 0.1 5.49329e-18 0.354778
1.04168 0.1 -0.291665 0.328472
1.04168 0.1 0.291665 0.322225
1.08012 0.1 0.0709941 0.352692
1.08012 0.1 -0.0709941 0.354533
0.969689 0.1 -0.4875 0.285967
0.96969 0.1 0.4875 0.278281
1.0579 0.1 0.252367 0.331662
1.0579 0.1 -0.252367 0.337317
0.990306 0.1 -0.45 0.294633
0.990306 0.1 0.45 0.287085
0.287374 0.1 -1.05 0.162047
0.287374 0.1 1.05 0.155907
0.714971 0.1 0.821002 0.196758
1.08012 0.1 -0.141988 0.351944
1.08012 0.1 0.141988 0.348342
0.075776 0.1 1.0875 0.170217
0.075776 0.1 -1.0875 0.176165
0.714971 0.1 -0.825 0.203117
0.756813 0.1 -0.7875 0.21154
0.756814 0.1 0.7875 0.204313
0.67013 0.1 -0.8625 0.19514
0.67013 0.1 0.8625 0.188187
0.797314 0.1 -0.75 0.22076
0.797314 0.1 0.75 0.213384
0.623803 0.1 0.9 0.180981
0.835106 0.1 -0.7125 0.230462
0.835106 0.1 0.7125 0.222923
0.623803 0.1 -0.903998 0.188694
0.574156 0.1 0.9375 0.174147
0.574156 0.1 -0.9375 0.180863
1.02149 0.1 -0.406591 0.308298
1.02149 0.1 0.406591 0.30072
1.08012 0.1 -0.212982 0.347067
1.08012 0.1 0.212982 0.341833
1.10076 0.1 -0.0349809 0.361625
1.10076 0.1 0.0349809 0.360641
0.871687 0.1 -0.675 0.240472
0.871687 0.1 0.675 0.232812
1.04168 0.1 -0.364581 0.319376
1.04168 0.1 0.364581 0.311978
1.10076 0.1 -0.104943 0.360255
1.10076 0.1 0.104943 0.357339
0.522865 0.1 0.975 0.16802
0.522865 0.1 -0.975 0.174645
1.0579 0.1 -0.324472 0.329197
1.0579 0.1 0.324472 0.322285
0 0.1 -1.10701 0.174621
0 0.1 1.10701 0.168631
0.0363518 0.1 1.10701 0.168631
0.0363518 0.1 -1.10701 0.174621
0.90582 0.1 0.6375 0.24326
0.905821 0.1 -0.6375 0.25105
0.219992 0.1 1.0875 0.151692
0.219992 0.1 -1.0875 0.157768
0.93886 0.1 0.6 0.254367
0.93886 0.1 -0.6 0.262394
1.10076 0.1 -0.174905 0.356533
1.10076 0.1 0.174905 0.351813
0.467897 0.1 1.0125 0.162196
0.467897 0.1 -1.0125 0.168726
1.08012 0.1 -0.283976 0.340003
1.08012 0.1 0.283976 0.333322
1.11928 0.1 3.93204e-18 0.36637
0.990306 0.1 -0.525 0.283011
0.990306 0.1 0.525 0.274783
0.96969 0.1 -0.5625 0.274224
0.969689 0.1 0.5625 0.265943
1.11928 0.1 -0.0690357 0.366208
1.11928 0.1 0.0690357 0.364186
0 0.1 1.125 0.167171
0 0.1 -1.125 0.173201
0.411108 0.1 -1.05 0.164241
0.411108 0.1 1.05 0.157788
1.10076 0.1 0.244866 0.34418
1.10076 0.1 -0.244866 0.350557
1.11928 0.1 -0.138072 0.36368
1.11928 0.1 0.138072 0.35972
1.02149 0.1 0.480517 0.288335
1.02149 0.1 -0.480517 0.296691
1.0579 0.1 -0.396577 0.31919
1.0579 0.1 0.396577 0.311233
1.04168 0.1 -0.437497 0.308527
1.04168 0.1 0.437497 0.300203
0.150379 0.1 1.125 0.157686
0.150379 0.1 -1.125 0.163779
0.714971 0.1 0.88201 0.190154
1.08012 0.1 0.354971 0.323012
1.08012 0.1 -0.354971 0.330911
1.11928 0.1 -0.207107 0.358833
1.11928 0.1 0.207107 0.353077
0.350249 0.1 -1.0875 0.160089
0.350249 0.1 1.0875 0.153713
0 0.1 1.14299 0.165711
0 0.1 -1.14299 0.17178
0.0363518 0.1 1.14299 0.165711
0.0363518 0.1 -1.14299 0.17178
1.14316 0.1 -0.0339211 0.374245
1.14316 0.1 0.0339211 0.37319
0.797314 0.1 0.821002 0.203148
1.10076 0.1 -0.314829 0.342421
1.10076 0.1 0.314829 0.334628
0.797314 0.1 -0.825 0.210328
0.756814 0.1 -0.8625 0.201628
0.756814 0.1 0.8625 0.194169
1.14316 0.1 -0.101763 0.372928
1.14316 0.1 0.101763 0.369797
0.835106 0.1 -0.7875 0.219513
0.835106 0.1 0.7875 0.211717
0.871687 0.1 -0.75 0.229009
0.871687 0.1 0.75 0.221048
0.67013 0.1 0.9375 0.179109
0.67013 0.1 -0.9375 0.186264
0.90582 0.1 -0.7125 0.239058
0.905821 0.1 0.7125 0.230947
0.714971 0.1 -0.903998 0.19471
1.11928 0.1 0.276143 0.344407
1.11928 0.1 -0.276143 0.351759
1.14316 0.1 0.169605 0.364161
1.14316 0.1 -0.169605 0.369233
0.93886 0.1 -0.675 0.250055
0.93886 0.1 0.675 0.241687
1.15704 0.1 0 0.377754
1.0579 0.1 0.468682 0.298783
1.0579 0.1 -0.468682 0.30753
0.623803 0.1 0.975 0.172381
0.623803 0.1 -0.975 0.179404
0.990306 0.1 0.6 0.261618
0.990306 0.1 -0.6 0.270312
1.15704 0.1 -0.0671479 0.377684
1.15704 0.1 0.0671479 0.375464
1.04168 0.1 -0.510414 0.296181
1.04168 0.1 0.510414 0.287179
0.969689 0.1 -0.6375 0.261561
0.969689 0.1 0.6375 0.252915
1.08012 0.1 0.425965 0.311143
1.08012 0.1 -0.425965 0.320007
0.287374 0.1 -1.125 0.155848
0.287374 0.1 1.125 0.149548
1.02149 0.1 -0.554443 0.283757
1.02149 0.1 0.554443 0.274858
0.574156 0.1 1.0125 0.166013
0.574156 0.1 -1.0125 0.172916
1.15704 0.1 -0.134296 0.375231
1.15704 0.1 0.134296 0.370881
0.075776 0.1 1.1625 0.164132
0.075776 0.1 -1.1625 0.170243
1.10076 0.1 -0.384791 0.332322
1.10076 0.1 0.384791 0.323363
1.14316 0.1 -0.237448 0.363247
1.14316 0.1 0.237448 0.356394
1.11928 0.1 -0.345179 0.342599
1.11928 0.1 0.345179 0.333906
0.522865 0.1 1.05 0.160291
0.522865 0.1 -1.05 0.167086
1.15704 0.1 -0.201444 0.370435
1.15704 0.1 0.201444 0.364106
1.1744 0.1 -0.0331401 0.383459
1.1744 0.1 0.0331401 0.382302
1.1744 0.1 -0.0994202 0.382243
1.1744 0.1 0.0994202 0.378796
0 0.1 1.18201 0.162554
0 0.1 -1.18201 0.168701
0.0363518 0.1 1.18201 0.162554
0.0363518 0.1 -1.18201 0.168701
0.219992 0.1 1.1625 0.145578
0.219993 0.1 -1.1625 0.151806
1.14316 0.1 0.30529 0.346677
1.14316 0.1 -0.30529 0.355059
0.467897 0.1 1.0875 0.154858
0.467897 0.1 -1.0875 0.161548
1.1744 0.1 -0.1657 0.378631
1.1744 0.1 0.1657 0.373049
1.15704 0.1 -0.268592 0.363377
1.15704 0.1 0.268592 0.355286
1.0579 0.1 0.540787 0.285202
1.0579 0.1 -0.540787 0.294502
0.796996 0.1 0.88201 0.194571
1.08012 0.1 -0.496959 0.307555
1.08012 0.1 0.496959 0.297984
1.10076 0.1 0.454752 0.310653
1.10076 0.1 -0.454752 0.320481
1.11928 0.1 -0.414214 0.331553
1.11928 0.1 0.414214 0.321808
1.04168 0.1 -0.58333 0.282652
1.04168 0.1 0.58333 0.273202
1.1744 0.1 -0.231981 0.372715
1.1744 0.1 0.231981 0.36516
0.871687 0.1 0.821002 0.209648
0.411108 0.1 1.125 0.150835
0.411108 0.1 -1.125 0.157435
1.19808 0.1 1.73472e-17 0.390214
0.990306 0.1 0.675 0.247859
0.990306 0.1 -0.675 0.256862
1.02149 0.1 0.628368 0.260618
1.02149 0.1 -0.628368 0.269865
1.19808 0.1 -0.0650961 0.390256
1.19808 0.1 0.0650961 0.38781
0 0.1 1.2 0.161103
0 0.1 -1.2 0.167282
0.871687 0.1 -0.825 0.217329
0.905821 0.1 -0.7875 0.226789
0.90582 0.1 0.7875 0.218406
0.835106 0.1 -0.8625 0.20841
0.835106 0.1 0.8625 0.200443
0.93886 0.1 -0.75 0.237282
0.93886 0.1 0.75 0.228666
1.14316 0.1 -0.373132 0.344847
1.14316 0.1 0.373132 0.335212
0.969689 0.1 0.7125 0.239407
0.969689 0.1 -0.7125 0.248314
1.15704 0.1 -0.33574 0.354187
1.15704 0.1 0.33574 0.344608
0.756813 0.1 0.9375 0.184047
0.756814 0.1 -0.9375 0.19168
1.19808 0.1 0.130192 0.38311
1.19808 0.1 -0.130192 0.38791
0.797314 0.1 -0.903998 0.200906
0.714971 0.1 0.975 0.176863
0.714971 0.1 -0.975 0.184327
0.150379 0.1 1.2 0.151601
0.150379 0.1 -1.2 0.157838
1.20938 0.1 -0.0322656 0.39394
1.20938 0.1 0.0322656 0.392685
1.1744 0.1 -0.298261 0.364563
1.1744 0.1 0.298261 0.35531
1.20938 0.1 -0.0967968 0.392828
1.20938 0.1 0.0967968 0.389076
1.19808 0.1 -0.195288 0.383205
1.19808 0.1 0.195288 0.376217
0.350249 0.1 1.1625 0.14713
0.350249 0.1 -1.1625 0.153638
0.67013 0.1 1.0125 0.170089
0.67013 0.1 -1.0125 0.177393
0 0.1 1.21799 0.159652
0 0.1 -1.21799 0.165864
0.0363518 0.1 -1.21799 0.165864
0.0363518 0.1 1.21799 0.159652
1.11928 0.1 -0.48325 0.318888
1.11928 0.1 0.48325 0.308378
1.10076 0.1 -0.524714 0.307212
1.10076 0.1 0.524714 0.29676
1.20938 0.1 0.161328 0.383227
1.20938 0.1 -0.161328 0.389304
1.08012 0.1 0.567953 0.283827
1.08012 0.1 -0.567953 0.293854
0.623803 0.1 1.05 0.163854
0.623803 0.1 -1.05 0.171025
1.0579 0.1 -0.612892 0.280435
1.0579 0.1 0.612892 0.270808
1.15704 0.1 -0.402888 0.343048
1.15704 0.1 0.402888 0.332303
1.14316 0.1 0.440974 0.32226
1.14316 0.1 -0.440974 0.332813
1.19808 0.1 -0.260384 0.376217
1.19808 0.1 0.260384 0.367266
1.2267 0.1 3.57064e-18 0.398352
1.2267 0.1 -0.0636649 0.398474
1.2267 0.1 0.0636649 0.395868
1.1744 0.1 -0.364541 0.354348
1.1744 0.1 0.364541 0.343691
0.574156 0.1 1.0875 0.157961
0.574156 0.1 -1.0875 0.165005
1.20938 0.1 0.225859 0.375231
1.20938 0.1 -0.225859 0.383468
1.04168 0.1 -0.656246 0.268301
1.04168 0.1 0.656246 0.258579
1.2267 0.1 -0.12733 0.396204
1.2267 0.1 0.12733 0.391086
0.287374 0.1 1.2 0.143217
0.287374 0.1 -1.2 0.149647
1.02149 0.1 -0.702294 0.255394
1.02149 0.1 0.702294 0.245897
0.075776 0.1 -1.2375 0.164329
0.075776 0.1 1.2375 0.158082
0.871399 0.1 0.88201 0.200121
0.522865 0.1 1.125 0.152645
0.522865 0.1 -1.125 0.159572
1.2267 0.1 -0.190994 0.391567
1.2267 0.1 0.190994 0.384111
1.19808 0.1 -0.32548 0.367058
1.19808 0.1 0.32548 0.356441
0.990306 0.1 -0.75 0.24298
0.990306 0.1 0.75 0.233779
1.24274 0.1 -0.0314313 0.403724
1.24274 0.1 0.0314313 0.402373
1.20938 0.1 -0.29039 0.37537
1.20938 0.1 0.29039 0.365263
1.24274 0.1 -0.0942942 0.402716
1.24274 0.1 0.0942942 0.398659
0.93886 0.1 0.821002 0.216102
1.11928 0.1 -0.552285 0.304904
1.11928 0.1 0.552285 0.293898
1.15704 0.1 -0.470036 0.330212
1.15704 0.1 0.470036 0.318632
0.969689 0.1 -0.7875 0.23476
0.96969 0.1 0.7875 0.225715
0.93886 0.1 -0.825 0.224326
0.90582 0.1 0.8625 0.205867
0.905821 0.1 -0.8625 0.214426
1.1744 0.1 -0.430821 0.342257
1.1744 0.1 0.430821 0.330565
1.10076 0.1 -0.594676 0.292796
1.10076 0.1 0.594676 0.282002
1.14316 0.1 -0.508816 0.319277
1.14316 0.1 0.508816 0.308079
1.24274 0.1 -0.157157 0.399281
1.24274 0.1 0.157157 0.392709
1.2267 0.1 -0.254659 0.384636
1.2267 0.1 0.254659 0.375073
0.467897 0.1 1.1625 0.147605
0.467897 0.1 -1.1625 0.154418
1.08012 0.1 0.638947 0.268975
1.08012 0.1 -0.638947 0.279234
1.25511 0.1 -5.78241e-19 0.4064
0.835106 0.1 -0.9375 0.197347
0.835106 0.1 0.9375 0.189248
0.871687 0.1 -0.903998 0.206823
1.25511 0.1 0.0622446 0.403855
1.25511 0.1 -0.0622446 0.406585
0.219992 0.1 1.2375 0.139487
0.219992 0.1 -1.2375 0.145846
0 0.1 -1.25701 0.162801
0 0.1 1.25701 0.156525
0.0363518 0.1 -1.25701 0.162801
0.0363518 0.1 1.25701 0.156525
0.797314 0.1 0.975 0.181448
0.797314 0.1 -0.975 0.189359
1.19808 0.1 -0.390576 0.3559
1.19808 0.1 0.390576 0.343962
1.0579 0.1 -0.684997 0.265681
1.0579 0.1 0.684997 0.255883
1.20938 0.1 -0.354921 0.365174
1.20938 0.1 0.354921 0.35351
1.25511 0.1 0.124489 0.399009
1.25511 0.1 -0.124489 0.404374
1.24274 0.1 -0.220019 0.393529
1.24274 0.1 0.220019 0.384609
0.756813 0.1 1.0125 0.17406
0.756814 0.1 -1.0125 0.181809
1.2267 0.1 -0.318324 0.375511
1.2267 0.1 0.318324 0.364149
0.411108 0.1 1.2 0.143961
0.411108 0.1 -1.2 0.150676
1.25511 0.1 -0.186734 0.399789
1.25511 0.1 0.186734 0.391969
0.714971 0.1 1.05 0.16745
0.714971 0.1 -1.05 0.175031
1.04168 0.1 -0.729162 0.253486
1.04168 0.1 0.729162 0.2436
1.24274 0.1 0.282882 0.374529
1.24274 0.1 -0.282882 0.385494
0 0.1 1.275 0.155093
0 0.1 -1.275 0.161395
1.1744 0.1 0.497102 0.316189
1.1744 0.1 -0.497102 0.328584
1.15704 0.1 -0.537184 0.315983
1.15704 0.1 0.537184 0.303865
1.2756 0.1 -0.03061 0.413257
1.2756 0.1 0.03061 0.411808
0.67013 0.1 1.0875 0.161222
0.67013 0.1 -1.0875 0.16864
1.2756 0.1 -0.09183 0.41236
1.2756 0.1 0.09183 0.407993
1.25511 0.1 -0.248978 0.392898
1.25511 0.1 0.248978 0.38286
1.20938 0.1 0.419453 0.340225
1.20938 0.1 -0.419453 0.353057
1.11928 0.1 -0.621322 0.289914
1.11928 0.1 0.621322 0.278687
1.14316 0.1 -0.576659 0.30452
1.14316 0.1 0.576659 0.292964
1.19808 0.1 -0.455673 0.342969
1.19808 0.1 0.455673 0.33009
1.02149 0.1 0.776219 0.231007
1.02149 0.1 -0.776219 0.240639
0.150379 0.1 1.275 0.145566
0.150379 0.1 -1.275 0.151921
1.2756 0.1 -0.15305 0.409023
1.2756 0.1 0.15305 0.401946
1.2267 0.1 -0.381989 0.364358
1.2267 0.1 0.381989 0.351557
1.10076 0.1 -0.664638 0.277586
1.10076 0.1 0.664638 0.266675
0.350249 0.1 1.2375 0.140611
0.350249 0.1 -1.2375 0.147228
0.623803 0.1 1.125 0.155474
0.623803 0.1 -1.125 0.162754
0.9386 0.1 0.88201 0.205653
0.990306 0.1 0.825 0.220083
0.990306 0.1 -0.825 0.228946
1.24274 0.1 -0.345745 0.375332
1.24274 0.1 0.345745 0.362648
1.2906 0.1 0 0.416665
1.07933 0.1 0.709941 0.253709
1.2906 0.1 -0.0604698 0.417001
1.2906 0.1 0.0604698 0.413975
1.08012 0.1 -0.709941 0.264063
0 0.1 1.29299 0.153661
0 0.1 -1.29299 0.159989
1.25511 0.1 0.311223 0.371855
1.25511 0.1 -0.311223 0.383796
1.2756 0.1 -0.214269 0.403361
1.2756 0.1 0.214269 0.393749
0.0363518 0.1 1.29299 0.153661
0.0363518 0.1 -1.29299 0.159989
1.2906 0.1 -0.12094 0.414941
1.2906 0.1 0.12094 0.408983
0.574156 0.1 1.1625 0.150048
0.574157 0.1 -1.1625 0.157196
0.969689 0.1 0.8625 0.212075
0.969689 0.1 -0.8625 0.221152
1.0579 0.1 0.757102 0.240723
1.0579 0.1 -0.757102 0.250606
1.1744 0.1 -0.563382 0.313638
1.1744 0.1 0.563382 0.300838
1.20938 0.1 0.483984 0.325673
1.20938 0.1 -0.483984 0.339281
1.2906 0.1 -0.181409 0.410489
1.2906 0.1 0.181409 0.401801
0.93886 0.1 -0.903998 0.212731
0.90582 0.1 0.9375 0.193519
0.90582 0.1 -0.9375 0.202177
1.2756 0.1 0.275489 0.383564
1.2756 0.1 -0.275489 0.395399
1.2267 0.1 -0.445653 0.351391
1.2267 0.1 0.445653 0.337557
1.15704 0.1 -0.604332 0.300673
1.15704 0.1 0.604332 0.288328
1.19808 0.1 -0.520769 0.328561
1.19808 0.1 0.520769 0.315087
1.30646 0.1 0.0298385 0.420352
1.30646 0.1 -0.0298385 0.421902
0.287374 0.1 -1.275 0.143481
0.287374 0.1 1.275 0.136949
0.871687 0.1 0.975 0.185659
0.871687 0.1 -0.975 0.194066
1.24274 0.1 0.408607 0.349214
1.24274 0.1 -0.408607 0.363207
0.522865 0.1 1.2 0.145141
0.522865 0.1 -1.2 0.15217