# pMean  POINT_DATA 91129
# x  y  z  pMean
0 0 0 0.24364
0 0.00368111 0 0.243308
0 0.00749587 0 0.242584
0 0.0114491 0 0.241866
0 0.0155459 0 0.241217
0 0.0197915 0 0.240532
0 0.0241911 0 0.239756
0 0.0287506 0 0.238901
0 0.0334755 0 0.237996
0 0.038372 0 0.23706
0 0.0434463 0 0.236103
0 0.0487048 0 0.235135
0 0.0541543 0 0.234181
0 0.0598016 0 0.233286
0 0.0656539 0 0.232465
0 0.0717187 0 0.231679
0.075776 0.00184055 0 0.24364
0.075776 0.00558849 0 0.242975
0.075776 0.00947248 -3.46945e-18 0.242193
0.075776 0.0134975 -3.46945e-18 0.241539
0.075776 0.0176687 3.46945e-18 0.240895
0 0.0780037 0 0.230887
0.075776 0.0219913 3.46945e-18 0.240168
0.075776 0.0264709 3.46945e-18 0.239345
0.075776 0.031113 -3.46945e-18 0.238458
0.075776 0.0359237 -3.46945e-18 0.237534
0 0.0845169 0 0.23008
0.075776 0.0409092 0 0.236585
0.075776 0.0460755 -3.46945e-18 0.23562
0 0.0912666 0 0.229259
0.075776 0.0514296 -3.46945e-18 0.234649
0.075776 0.0569779 0 0.233713
0 0.0982613 0 0.228425
0.075776 0.0627278 0 0.23286
0.075776 0.0686863 0 0.232071
0 0.10551 0 0.227579
0.075776 0.0748612 3.46945e-18 0.231288
0.075776 0.0812603 -3.46945e-18 0.230487
0 0.113022 0 0.226718
0.075776 0.0878918 3.46945e-18 0.229672
0 0.120806 0 0.22584
0.075776 0.0947639 3.46945e-18 0.228845
0.075776 0.101886 -3.46945e-18 0.228006
0 0.128874 0 0.224943
0.075776 0.109266 3.46945e-18 0.227153
0 0.137234 0 0.224032
0.075776 0.116914 3.46945e-18 0.226284
0 0.145897 0 0.22313
0.075776 0.12484 0 0.225396
0.151552 0 0 0.226059
0.151552 0.00368111 0 0.225931
0.151552 0.00749587 0 0.225683
0.151552 0.0114491 0 0.225483
0.151552 0.0155459 0 0.225319
0.151552 0.0197915 0 0.225129
0.075776 0.133054 0 0.224489
0.151552 0.0241911 0 0.224889
0.151552 0.0287506 0 0.224604
0 0.154876 0 0.222267
0.151552 0.0334755 0 0.224287
0.151552 0.038372 0 0.223949
0.151552 0.0434463 0 0.223596
0.151552 0.0487048 0 0.223231
0.075776 0.141566 0 0.223575
0.151552 0.0541543 0 0.222866
0.151552 0.0598016 0 0.222522
0 0.16418 0 0.221462
0.151552 0.0656539 0 0.222205
0.151552 0.0717187 0 0.221897
0.075776 0.150387 0 0.222685
0.151552 0.0780037 0 0.221576
0.151552 0.0845169 0 0.221238
0 0.173822 0 0.220715
0.075776 0.159528 0 0.221848
0.151552 0.0912666 0 0.220884
0.151552 0.0982613 0 0.220518
0 0.183814 0 0.220011
0.151552 0.10551 0 0.220142
0.075776 0.169001 3.46945e-18 0.221075
0.151552 0.113022 0 0.219756
0.151552 0.120806 0 0.21935
0 0.194169 0 0.219328
0.075776 0.178818 3.46945e-18 0.220354
0.151552 0.128874 0 0.218919
0.075776 0.188992 3.46945e-18 0.219666
0.151552 0.137234 0 0.218464
0 0.2049 0 0.21865
0.151552 0.145897 0 0.217997
0.075776 0.199535 0 0.21899
0 0.21602 0 0.217957
0.151552 0.154876 0 0.217538
0.219992 0.00184055 0 0.209831
0.219992 0.00558849 0 0.209951
0.219992 0.00947248 -3.46945e-18 0.210214
0.219992 0.0134975 3.46945e-18 0.210506
0.219992 0.0176687 0 0.21078
0.219992 0.0219913 0 0.211041
0.219993 0.0264709 -3.46945e-18 0.211289
0.219992 0.031113 -3.46945e-18 0.211522
0.219992 0.0359238 3.46945e-18 0.211742
0.151552 0.16418 0 0.217095
0.075776 0.21046 0 0.21831
0.219992 0.0409092 3.46945e-18 0.211951
0.219992 0.0460755 0 0.21215
0.219993 0.0514296 -3.46945e-18 0.212335
0.219992 0.0569779 0 0.212507
0 0.227544 0 0.217225
0.219992 0.0627277 3.46945e-18 0.212664
0.219992 0.0686863 0 0.212805
0.151552 0.173822 0 0.216668
0.219992 0.0748612 3.46945e-18 0.212928
0.075776 0.221782 0 0.217604
0.219992 0.0812603 3.46945e-18 0.213032
0.219992 0.0878917 -3.46945e-18 0.213117
0.151552 0.183814 0 0.216249
7.47806e-17 0.239487 0 0.216439
0.219992 0.0947639 3.46945e-18 0.213187
0.219993 0.101886 3.46945e-18 0.213248
0.075776 0.233516 0 0.216846
0.219993 0.109266 0 0.213305
0.151552 0.194169 0 0.215826
0.219993 0.116914 0 0.21335
0 0.251863 0 0.215611
0.219993 0.12484 0 0.213368
0.151552 0.2049 0 0.215389
0.075776 0.245675 0 0.216032
0.219992 0.133054 3.46945e-18 0.213349
0.219992 0.141565 0 0.213297
0.151552 0.21602 0 0.21493
0 0.264688 0 0.214759
0.219992 0.150387 3.46945e-18 0.21322
0.075776 0.258275 3.46945e-18 0.215189
0.219992 0.159528 -3.46945e-18 0.213123
0.151552 0.227544 0 0.214436
0.219992 0.169001 3.46945e-18 0.213003
0 0.27798 0 0.213892
0.075776 0.271334 3.46945e-18 0.21433
0.151552 0.239487 3.70071e-18 0.213897
0.219992 0.178818 3.46945e-18 0.21286
0.288433 0 0 0.213933
0.288433 0.00368111 0 0.213976
0.288433 0.00749587 0 0.214107
0.288433 0.0114491 0 0.214295
0.288433 0.0155459 3.70071e-18 0.214493
0.288433 0.0197915 0 0.214688
0.288433 0.0241911 3.70071e-18 0.21488
0.288433 0.0287506 0 0.215067
0.219992 0.188991 0 0.212691
0.288433 0.0334755 0 0.215246
0.288433 0.038372 0 0.21542
0.288433 0.0434463 0 0.215588
7.47806e-17 0.291753 0 0.213005
0.288433 0.0487048 0 0.215747
0.288433 0.0541543 0 0.215898
0.151552 0.251863 0 0.21332
0.288433 0.0598016 3.70071e-18 0.21604
0.075776 0.284866 0 0.213454
0.288433 0.0656539 3.70071e-18 0.216171
0.219992 0.199534 0 0.212493
0.288433 0.0717187 0 0.216292
0.288433 0.0780037 0 0.216404
0.288433 0.0845169 0 0.216502
0.288433 0.0912666 0 0.216581
0.219992 0.21046 -3.46945e-18 0.212265
0.288433 0.0982613 0 0.21664
0.151552 0.264688 3.70071e-18 0.212714
0 0.306027 0 0.212089
0.288433 0.10551 0 0.216686
0.075776 0.29889 3.46945e-18 0.212555
0.288433 0.113022 0 0.216716
0.219993 0.221782 0 0.212006
0.288433 0.120806 0 0.21673
0.288433 0.128874 0 0.216726
0.151552 0.27798 0 0.212087
0.288433 0.137234 0 0.216701
0 0.320819 0 0.211134
0.219992 0.233515 -3.46945e-18 0.211714
0.075776 0.313423 -3.46945e-18 0.211622
0.288433 0.145897 0 0.216651
0.288433 0.154876 0 0.216578
0.151552 0.291753 0 0.211436
0.219993 0.245675 0 0.211386
0.288433 0.16418 0 0.216481
0 0.336148 0 0.210153
0.288433 0.173822 0 0.21636
0.075776 0.328484 -3.46945e-18 0.210646
0.219993 0.258275 -3.46945e-18 0.211022
0.151552 0.306027 0 0.210754
0.288433 0.183814 0 0.216214
0.288433 0.194169 0 0.216041
0.219992 0.271334 3.46945e-18 0.210628
0.350249 0.00184056 -3.46945e-18 0.217734
0.350249 0.00558849 0 0.217789
0.350249 0.00947248 3.46945e-18 0.217884
0.350249 0.0134975 0 0.217999
0.350249 0.0176687 0 0.218123
0.350249 0.0219913 0 0.218255
0.350249 0.0264708 3.46945e-18 0.218391
0.350249 0.031113 0 0.218527
0 0.352034 0 0.209184
0.350249 0.0359238 0 0.218664
0.075776 0.344091 0 0.209659
0.350249 0.0409091 0 0.218799
0.350249 0.0460756 3.46945e-18 0.218931
0.288433 0.2049 0 0.215838
0.350249 0.0514296 0 0.219059
0.151552 0.320819 0 0.210028
0.350249 0.0569779 0 0.219182
0.350249 0.0627277 3.46945e-18 0.219299
0.350249 0.0686863 3.46945e-18 0.219411
0.350249 0.0748612 3.46945e-18 0.219522
0.350249 0.0812603 0 0.21963
0.219992 0.284867 0 0.210211
0.288433 0.21602 0 0.215604
0.350249 0.0878917 0 0.219725
0.350249 0.094764 0 0.219791
0.350249 0.101886 0 0.219834
0.350249 0.109266 0 0.219855
0.288433 0.227544 0 0.215337
0.075776 0.360265 3.46945e-18 0.208709
0 0.368496 0 0.208231
0.151552 0.336148 0 0.20926
0.350249 0.116914 3.46945e-18 0.219858
0.219992 0.29889 0 0.209765
0.370854 0.0241911 1.54074e-33 0.221203
0.350249 0.12484 0 0.219851
0.350249 0.133054 0 0.219842
0.288433 0.239487 -9.25154e-19 0.215035
0.350249 0.141566 3.46945e-18 0.219819
0.350249 0.150387 3.46945e-18 0.219771
0.288433 0.251863 0 0.214697
0.219992 0.313423 0 0.209277
0.151552 0.352034 0 0.208469
0.075776 0.377027 0 0.207753
0.350249 0.159528 0 0.219697
0 0.385557 0 0.207241
0.350249 0.169001 0 0.2196
0.288433 0.264688 0 0.214322
0.350249 0.178818 0 0.219477
0.219992 0.328484 0 0.208735
0.350249 0.188992 0 0.219327
0.151552 0.368496 0 0.207659
0.288433 0.27798 3.70071e-18 0.213915
0.075776 0.394397 0 0.206729
0.350249 0.199535 0 0.219148
7.47806e-17 0.403236 0 0.20618
0.219992 0.344091 0 0.208135
0.350249 0.21046 -3.46945e-18 0.218939
0.288433 0.291753 0 0.213475
0.412065 9.08189e-19 3.08149e-33 0.223974
0.412065 0.00368111 -2.31298e-18 0.223993
0.412065 0.00749587 -2.31298e-18 0.224045
0.412065 0.0114491 -2.31298e-18 0.224116
0.412065 0.0155459 -2.31298e-18 0.224196
0.412065 0.0197915 0 0.224278
0.412065 0.0241911 -3.08149e-33 0.224365
0.412065 0.0264709 0 0.224409
0.412065 0.0287506 -2.31298e-18 0.224454
0.412065 0.0334755 -2.31298e-18 0.224545
0.412065 0.038372 -2.31298e-18 0.224638
0.151552 0.385557 0 0.206805
0.412065 0.0434463 0 0.224732
0.350249 0.221782 0 0.218697
0.412065 0.0487048 0 0.224827
0.412065 0.0541543 -3.08149e-33 0.22492
0.412065 0.0569779 0 0.224966
0.412065 0.0598016 -2.31298e-18 0.225011
0.412065 0.0656539 -2.31298e-18 0.2251
0.412065 0.0717187 -2.31298e-18 0.225182
0.075776 0.412396 -3.46945e-18 0.205631
0.412065 0.0780037 -2.31298e-18 0.225251
0.288433 0.306027 0 0.212997
0.412065 0.0845169 -2.31298e-18 0.225297
0.350249 0.233516 3.46945e-18 0.218421
0 0.421557 0 0.205057
0.412065 0.0912666 -2.31298e-18 0.225317
0.219992 0.360265 3.46945e-18 0.207482
0.412065 0.0982613 0 0.225316
0.412065 0.10551 0 0.2253
0.412065 0.113022 -2.31298e-18 0.225267
0.350249 0.245675 0 0.218109
0.412065 0.120806 0 0.225221
0.151552 0.403236 0 0.20589
0.288433 0.320819 0 0.212472
0.412065 0.128874 -2.31298e-18 0.225163
0.412065 0.137234 0 0.225093
0.350249 0.258275 -3.46945e-18 0.217759
0.219992 0.377026 0 0.206779
0.412065 0.145897 -2.31298e-18 0.225008
0.075776 0.431051 0 0.204481
0.412065 0.154876 -2.31298e-18 0.224903
0 0.440544 0 0.203887
0.288433 0.336148 0 0.211896
0.350249 0.271334 0 0.21737
0.412065 0.16418 -2.31298e-18 0.224777
0.412065 0.173822 -2.31298e-18 0.224629
0.151552 0.421557 0 0.204915
0.412065 0.183814 -2.31298e-18 0.224458
0.350249 0.284867 3.46945e-18 0.216942
0.219992 0.394397 0 0.206027
0.288433 0.352034 3.70071e-18 0.211267
0.412065 0.194169 0 0.224262
0.075776 0.450382 0 0.203291
0.412065 0.2049 -2.31298e-18 0.224039
0 0.46022 0 0.202676
0.350249 0.29889 3.46945e-18 0.216474
0.412065 0.21602 0 0.223786
0.151552 0.440544 0 0.203884
0.219993 0.412396 3.46945e-18 0.205218
0.467897 0.00184056 -3.46945e-18 0.229778
0.467897 0.00558849 0 0.229802
0.288433 0.368496 0 0.210584
0.467897 0.00947248 0 0.22984
0.467897 0.0134975 0 0.229882
0.467897 0.0176687 3.46945e-18 0.229924
0.467897 0.0219913 -3.46945e-18 0.229964
0.467897 0.0264709 3.46945e-18 0.230007
0.467897 0.0311131 3.46945e-18 0.230054
0.467897 0.0359238 -3.46945e-18 0.230106
0.467897 0.038372 0 0.230804
0.467897 0.0409092 3.46945e-18 0.230161
0.350249 0.313423 0 0.215964
0.467897 0.0460755 0 0.23022
0.467897 0.0514296 3.46945e-18 0.230283
0.412065 0.227544 -2.31298e-18 0.223502
0.467897 0.0569779 0 0.230347
0.467897 0.0627277 -3.46945e-18 0.230412
0.467897 0.0686863 3.46945e-18 0.230475
0.467897 0.0748612 0 0.230524
0.467897 0.0812603 0 0.230539
0.467897 0.0878918 3.46945e-18 0.230513
0.075776 0.470415 3.46945e-18 0.20206
0.412065 0.239487 -2.31298e-18 0.223185
0.467897 0.0947639 -3.46945e-18 0.230466
0.467897 0.101886 3.46945e-18 0.230409
0.350249 0.328483 0 0.215408
0.467897 0.109266 0 0.230342
0 0.48061 0 0.201421
0.288433 0.385557 0 0.209847
0.467897 0.116914 0 0.230262
0.412065 0.251863 -2.31298e-18 0.222832
0.219992 0.431051 0 0.204349
0.467897 0.12484 0 0.230165
0.151552 0.46022 0 0.202802
0.467897 0.133054 3.46945e-18 0.230053
0.467897 0.141566 3.46945e-18 0.229927
0.412065 0.264688 -2.31298e-18 0.222441
0.350249 0.344091 -3.46945e-18 0.214803
0.467897 0.150387 3.46945e-18 0.229789
0.467897 0.154876 0 0.23048
0.467897 0.159528 3.46945e-18 0.229635
0.288433 0.403236 0 0.209054
0.075776 0.491175 0 0.200781
0.412065 0.27798 -2.31298e-18 0.22201
0.467897 0.169001 0 0.229463
0.467897 0.178818 3.46945e-18 0.229271
0.219992 0.450382 0 0.203416
6.73026e-17 0.501741 3.70071e-18 0.200116
0.350249 0.360265 0 0.214144
0.151552 0.48061 0 0.201665
0.467897 0.188991 0 0.229057
0.412065 0.291753 0 0.221538
0.467897 0.199535 0 0.228819
0.288433 0.421557 0 0.208199
0.467897 0.21046 0 0.228556
0.412065 0.306027 0 0.221023
0.350249 0.377027 0 0.213428
0.467897 0.221782 3.46945e-18 0.228264
0.075776 0.51269 0 0.19945
0.219993 0.470415 3.46945e-18 0.202421
0.467897 0.227544 0 0.228835
0.412065 0.320819 -2.31298e-18 0.220461
0.467897 0.233515 0 0.227942
6.73026e-17 0.523639 3.70071e-18 0.198759
0.523729 0 0 0.236738
0.523729 0.00368111 0 0.236748
0.523729 0.00749587 -2.31298e-18 0.236774
0.523729 0.0114491 0 0.236806
0.523729 0.0155459 0 0.236837
0.523729 0.0197915 -2.31298e-18 0.236863
0.151552 0.501741 0 0.200469
0.523729 0.0241911 0 0.236885
0.523729 0.0287506 0 0.236911
0.523729 0.0334755 0 0.236939
0.523729 0.038372 -3.08149e-33 0.23697
0.523729 0.0434463 0 0.237004
0.523729 0.0487048 0 0.237041
0.523729 0.0541543 0 0.237081
0.288433 0.440544 0 0.207281
0.523729 0.0598016 0 0.237123
0.350249 0.394397 -3.46945e-18 0.212654
0.523729 0.0656539 0 0.237164
0.467897 0.245675 0 0.227586
0.523729 0.0717187 0 0.237194
0.523729 0.0780037 0 0.237193
0.523729 0.0845169 0 0.237152
0.523729 0.0912666 0 0.237083
0.412065 0.336148 0 0.21985
0.523729 0.0982613 0 0.237
0.523729 0.10551 -2.31298e-18 0.236908
0.467897 0.258275 -3.46945e-18 0.227195
0.523729 0.113022 0 0.236804
0.523729 0.120806 -3.08149e-33 0.236685
0.219993 0.491176 0 0.201362
0.523729 0.12484 0 0.236618
0.523729 0.128874 -2.31298e-18 0.236551
0.075776 0.534986 0 0.198066
0.467897 0.271334 3.46945e-18 0.226764
0.350249 0.412396 -3.46945e-18 0.211818
0.523729 0.137234 0 0.236402
0.412065 0.352034 -2.31298e-18 0.219186
0.288433 0.46022 0 0.206295
0.523729 0.145897 0 0.236238
0.151552 0.523639 0 0.199208
0.523729 0.154876 -3.08149e-33 0.236057
0 0.546332 0 0.197347
0.523729 0.159528 0 0.235957
0.467897 0.284867 -3.46945e-18 0.226293
0.523729 0.16418 -2.31298e-18 0.235858
0.523729 0.173822 0 0.235638
0.412065 0.368496 0 0.218465
0.523729 0.183814 0 0.235396
0.467897 0.29889 0 0.225776
0.350249 0.431051 -3.46945e-18 0.210917
0.219992 0.51269 0 0.20023
0.523729 0.194169 0 0.23513
0.288433 0.48061 0 0.205241
0.523729 0.2049 0 0.234838
0.467897 0.313423 3.46945e-18 0.225213
0.075776 0.558091 0 0.196625
0.412065 0.385557 0 0.217686
0.523729 0.21602 -3.08149e-33 0.234518
0.151552 0.546332 0 0.197877
0 0.569849 0 0.195874
0.350249 0.450382 3.46945e-18 0.209948
0.523729 0.227544 -3.08149e-33 0.234168
0.467897 0.328483 0 0.2246
0.523729 0.231525 1.54074e-33 0.23404
0.574156 0.00184056 0 0.243241
0.574156 0.00558849 0 0.243258
0.574157 0.00947248 0 0.243283
0.574156 0.0134975 -3.46945e-18 0.243309
0.574156 0.0176687 -3.46945e-18 0.243325
0.574156 0.0219913 0 0.243331
0.574156 0.0264708 -3.46945e-18 0.243336
0.574156 0.031113 0 0.243343
0.574156 0.0359238 -3.46945e-18 0.243352
0.574157 0.0409092 0 0.243363
0.523729 0.239487 3.70071e-18 0.233784
0.574156 0.0460755 -3.46945e-18 0.243377
0.574156 0.0514295 0 0.243393
0.412065 0.403236 0 0.216844
0.574157 0.0569779 0 0.243413
0.574156 0.0627277 0 0.243435
0.574156 0.0686863 0 0.243454
0.219992 0.534986 0 0.199016
0.288433 0.501741 0 0.204114
0.574156 0.0748612 3.46945e-18 0.243447
0.574156 0.0812603 0 0.243391
0.467897 0.344091 0 0.223934
0.574156 0.0878917 3.46945e-18 0.243298
0.523729 0.251863 0 0.233366
0.574157 0.0947639 0 0.243192
0.574156 0.101886 0 0.243076
0.574156 0.109266 0 0.24295
0.574156 0.116914 0 0.24281
0.412065 0.416977 -6.16298e-33 0.216164
0.350249 0.470415 0 0.208907
0.523729 0.264688 0 0.23291
0.075776 0.582034 0 0.195121
0.574156 0.12484 0 0.242657
0.574156 0.133054 3.46945e-18 0.242488
0.412065 0.421557 -2.31298e-18 0.215937
0.151552 0.569849 0 0.196472
0.467897 0.360265 -3.46945e-18 0.223213
0.574157 0.141566 -3.46945e-18 0.242302
0.523729 0.27798 0 0.232413
0.574156 0.150386 3.46945e-18 0.242099
0 0.594219 0 0.194335
0.574156 0.159528 -3.46945e-18 0.241877
0.574156 0.16418 0 0.242398
0.288433 0.523639 1.2326e-32 0.202908
0.574157 0.169001 0 0.241633
0.523729 0.291753 0 0.231873
0.219993 0.558091 3.46945e-18 0.197718
0.467897 0.377026 0 0.222432
0.574156 0.178818 3.46945e-18 0.241367
0.412065 0.440544 -2.31298e-18 0.214961
0.350249 0.491175 0 0.207791
0.574156 0.188992 3.46945e-18 0.241077
0.523729 0.306027 -3.08149e-33 0.231287
0.574157 0.199535 0 0.24076
0.574157 0.21046 0 0.240416
0.075776 0.606847 0 0.193548
0.467897 0.394397 0 0.221589
0.151552 0.594219 0 0.194991
0.523729 0.320819 0 0.230653
0.574157 0.221782 -3.46945e-18 0.240041
0.412065 0.46022 3.08149e-33 0.213914
0.288433 0.546332 0 0.201618
0 0.619475 0 0.192726
0.574156 0.233515 3.46945e-18 0.239634
0.350249 0.51269 3.46945e-18 0.206595
0.219992 0.582034 3.46945e-18 0.196334
0.523729 0.336148 0 0.229966
0.467897 0.412396 0 0.220681
0.574156 0.245675 0 0.239192
0.624584 0 0 0.251008
0.624584 0.00368111 0 0.251015
0.624584 0.00749587 0 0.251035
0.624584 0.0114491 0 0.25106
0.624584 0.0155459 0 0.25108
0.624584 0.0197915 0 0.251086
0.624584 0.0241911 -2.31298e-18 0.251081
0.624584 0.0287506 0 0.251074
0.624584 0.0334755 0 0.251069
0.624584 0.038372 0 0.251064
0.624584 0.0434463 -2.31298e-18 0.251061
0.624584 0.0487048 0 0.251059
0.624584 0.0541543 0 0.251058
0.624584 0.0598016 0 0.251058
0.624584 0.0656539 0 0.251054
0.624584 0.0717187 0 0.25103
0.624584 0.0780037 0 0.250965
0.574157 0.258276 3.46945e-18 0.238713
0.624584 0.0845169 0 0.250861
0.523729 0.352034 0 0.229224
0.624584 0.0912666 0 0.250735
0.624584 0.0982613 0 0.250597
0.412065 0.48061 3.08149e-33 0.21279
0.624584 0.10551 0 0.250447
0.624584 0.113022 -2.31298e-18 0.250283
0.574156 0.271334 0 0.238195
0.624584 0.120806 0 0.250103
0.467897 0.431051 0 0.219704
0.075776 0.632561 -3.46945e-18 0.191901
0.624584 0.128874 0 0.249908
0.151552 0.619475 0 0.193428
0.288433 0.569849 0 0.200241
0.350249 0.534985 0 0.205317
0.624584 0.137234 -2.31298e-18 0.249695
0.523729 0.368496 0 0.228424
0.574156 0.284866 -3.46945e-18 0.237635
0.624584 0.145897 0 0.249463
0.467897 0.440544 0 0.219765
0.624584 0.154876 0 0.249212
0.219992 0.606847 -3.46945e-18 0.194861
0 0.645647 0 0.19104
0.624584 0.16418 -3.08149e-33 0.248939
0.574156 0.29889 -3.46945e-18 0.237031
0.624584 0.173822 0 0.248642
0.412065 0.501741 1.54074e-33 0.211587
0.467897 0.450382 -3.46945e-18 0.218655
0.523729 0.385557 0 0.227561
0.624584 0.183814 0 0.248321
0.624584 0.194169 0 0.247973
0.574156 0.313423 0 0.236378
0.624584 0.2049 0 0.247597
0.350249 0.558091 3.46945e-18 0.203952
0.288433 0.594219 0 0.198773
0.624584 0.21602 0 0.24719
0.523729 0.403236 0 0.226634
0.574156 0.328483 -3.46945e-18 0.235674
0.151552 0.645647 0 0.191779
0.467897 0.470415 3.46945e-18 0.21753
0.075776 0.659208 0 0.190175
0.624584 0.227544 0 0.246751
0.412065 0.523639 0 0.210301
0.523729 0.41545 3.08149e-33 0.22597
0.624584 0.239487 3.70071e-18 0.246276
0.574156 0.344091 0 0.234917
0.219992 0.632561 0 0.193295
0.67013 0.00184055 0 0.258299
0.67013 0.00558849 0 0.258314
0.67013 0.00947248 0 0.258337
0.67013 0.0134975 0 0.258364
0.67013 0.0176687 -3.46945e-18 0.258375
0.67013 0.0219913 0 0.258366
0.67013 0.0264708 3.46945e-18 0.258346
0.67013 0.0311131 0 0.258327
0.67013 0.0359237 0 0.258309
0.67013 0.0409092 -3.46945e-18 0.258291
0.67013 0.0460755 0 0.258273
0.67013 0.0514296 3.46945e-18 0.258255
0.523729 0.421557 -2.31298e-18 0.225638
0.67013 0.056978 0 0.258236
0 0.67277 0 0.189272
0.67013 0.0627277 0 0.258215
0.624584 0.251863 0 0.245765
0.67013 0.0686863 0 0.258182
0.67013 0.0748612 3.46945e-18 0.25811
0.67013 0.0812603 0 0.257992
0.67013 0.0878917 0 0.257847
0.67013 0.0947639 3.46945e-18 0.25769
0.574156 0.360265 0 0.234101
0.67013 0.101886 0 0.25752
0.523729 0.431051 0 0.225103
0.624584 0.264688 0 0.245215
0.467897 0.491175 0 0.216326
0.67013 0.109266 3.46945e-18 0.257335
0.350249 0.582034 0 0.202496
0.67013 0.116914 0 0.257133
0.67013 0.12484 0 0.256915
0.67013 0.133054 0 0.256679
0.288433 0.619475 0 0.197211
0.624584 0.27798 -3.08149e-33 0.244623
0.412065 0.546332 1.54074e-33 0.208927
0.523729 0.440544 -3.08149e-33 0.224569
0.67013 0.141566 3.46945e-18 0.256423
0.685312 0.0241911 -7.70372e-34 0.26154
0.685312 0.0434463 -7.70372e-34 0.261435
0.67013 0.150387 0 0.256146
0.574156 0.377026 -3.46945e-18 0.233225
0.67013 0.159528 0 0.255847
0.624584 0.291753 0 0.243985
0.151552 0.67277 0 0.19004
0.075776 0.686823 0 0.188366
0.67013 0.169001 0 0.255524
0.67013 0.178818 0 0.255176
0.467897 0.51269 0 0.215037
0.685312 0.113022 -7.70372e-34 0.260261
0.219992 0.659208 0 0.191633
0.624584 0.306027 0 0.243301
0.67013 0.188991 0 0.254801
0.574156 0.394397 3.46945e-18 0.232283
0.523729 0.46022 0 0.223424
0.685312 0.137234 -7.70372e-34 0.259532
0.67013 0.199535 -3.46945e-18 0.254397
0.350249 0.606847 0 0.200945
0 0.700877 0 0.187418
0.624584 0.320819 0 0.242565
0.67013 0.21046 0 0.253963
0.412065 0.569849 -2.31298e-18 0.20746
0.67013 0.221782 -3.46945e-18 0.253496
0.574157 0.412396 0 0.231273
0.288433 0.645647 0 0.195551
0.624584 0.336148 -3.08149e-33 0.241776
0.67013 0.233515 3.46945e-18 0.252994
0.467897 0.534986 0 0.213661
0.523729 0.48061 0 0.222198
0.624584 0.344091 0 0.241353
0.67013 0.245675 0 0.252455
0.715676 4.54095e-19 0 0.266732
0.715676 0.00368111 0 0.266739
0.715676 0.00749587 0 0.266758
0.715676 0.0114491 0 0.266783
0.715676 0.0155459 0 0.2668
0.715676 0.0197915 0 0.266796
0.715676 0.0241911 0 0.26677
0.715676 0.0287506 0 0.266735
0.715676 0.0334755 0 0.266698
0.715676 0.038372 0 0.266661
0.624584 0.352034 -2.31298e-18 0.240929
0.715676 0.0434463 0 0.266622
0.151552 0.700877 0 0.188207
0.715676 0.0487048 0 0.266582
0.715676 0.0541543 0 0.266542
0.574156 0.43105 0 0.230191
0.715676 0.0598016 0 0.266499
0.67013 0.258275 0 0.251876
0.715676 0.0656539 0 0.266445
0.715676 0.0717187 0 0.26636
0.075776 0.715441 0 0.186466
0.715676 0.0780037 0 0.266232
0.715676 0.0845169 0 0.266069
0.219992 0.686824 0 0.189871
0.715676 0.0912666 0 0.265887
0.715676 0.0982613 0 0.265691
0.67013 0.271334 -3.46945e-18 0.251256
0.350249 0.632561 -3.46945e-18 0.199294
0.412065 0.594219 3.08149e-33 0.205897
0.715676 0.10551 0 0.26548
0.715676 0.113022 0 0.265251
0.624584 0.368496 0 0.240022
0.523729 0.501741 0 0.220888
0.715676 0.120806 0 0.265004
0.715676 0.128874 0 0.264738
0.67013 0.284867 0 0.250592
0.467897 0.558091 3.46945e-18 0.212191
0.715676 0.137234 0 0.264451
0.574156 0.450382 0 0.229032
0 0.730005 0 0.185471
0.715676 0.145897 0 0.264142
0.288433 0.67277 0 0.193788
0.715676 0.154876 0 0.263811
0.67013 0.29889 0 0.24988
0.624584 0.385557 0 0.23905
0.715676 0.16418 -9.25187e-19 0.263455
0.715676 0.173822 0 0.263072
0.715676 0.183814 0 0.262663
0.67013 0.313423 0 0.249118
0.523729 0.523639 0 0.219488
0.715676 0.194169 0 0.262223
0.574156 0.470415 3.46945e-18 0.227792
0.624584 0.403236 0 0.23801
0.743101 0.0241911 -7.70372e-34 0.272394
0.412065 0.619475 3.08149e-33 0.204232
0.715676 0.2049 0 0.261753
0.151552 0.730005 0 0.186274
0.67013 0.328484 3.46945e-18 0.248302
0.350249 0.659208 0 0.197539
0.467897 0.582034 0 0.210625
0.715676 0.21602 0 0.261249
0.219992 0.715441 0 0.188005
0.075776 0.745097 -3.46945e-18 0.184472
0.715676 0.227544 0 0.260711
0.67013 0.344091 0 0.24743
0.624584 0.421557 0 0.236897
0.743101 0.128874 -7.70372e-34 0.269999
0.715676 0.239487 3.70071e-18 0.260135
0.574156 0.491175 0 0.226468
0.756814 0.00184055 0 0.274689
0.523729 0.546332 0 0.217994
0.756813 0.00558849 0 0.274703
0.756813 0.00947248 0 0.274727
0.756814 0.0134975 -3.46945e-18 0.274753
0.756814 0.0155459 0 0.275255
0.756814 0.0176687 0 0.274759
0.756814 0.0219913 0 0.274732
0.756814 0.0264709 0 0.274686
0.756814 0.031113 -3.46945e-18 0.274634
0.756813 0.0359238 -3.46945e-18 0.274579
0.288433 0.700877 0 0.191918
0.756814 0.0409092 -3.46945e-18 0.274522
0.756813 0.0460755 3.46945e-18 0.274462
0.756813 0.0514296 0 0.274401
0.715676 0.251863 0 0.259519
0.756813 0.0569779 0 0.274339
0.756814 0.0627277 -3.46945e-18 0.274272
0.756814 0.0686863 -3.46945e-18 0.274182
0 0.76019 0 0.183427
0.756814 0.0748612 0 0.274042
0.67013 0.360265 3.46945e-18 0.246497
0.756814 0.0812603 -3.46945e-18 0.273861
0.756814 0.0878917 -3.46945e-18 0.273658
0.756814 0.0947639 -3.46945e-18 0.27344
0.715676 0.264688 0 0.258862
0.756813 0.101886 0 0.273205
0.624584 0.440544 0 0.235708
0.756813 0.109266 3.46945e-18 0.272953
0.756813 0.116914 3.46945e-18 0.272681
0.412065 0.645647 0 0.202462
0.467897 0.606847 0 0.208955
0.756814 0.120806 0 0.272939
0.756813 0.12484 0 0.272389
0.715676 0.27798 0 0.25816
0.756814 0.133054 -3.46945e-18 0.272075
0.67013 0.377026 -3.46945e-18 0.2455
0.756814 0.137234 0 0.272298
0.574156 0.51269 0 0.225053
0.756813 0.141566 3.46945e-18 0.271739
0.685312 0.352034 -7.70372e-34 0.249565
0.743101 0.2049 -7.70372e-34 0.266751
0.350249 0.686824 0 0.195675
0.756814 0.150387 0 0.271379
0.756814 0.154876 0 0.271564
0.715676 0.291753 0 0.257411
0.756814 0.159528 -3.46945e-18 0.270994
0.523729 0.569849 0 0.216402
0.72743 0.264688 0 0.260923
0.756814 0.16418 0 0.271159
0.151552 0.76019 0 0.184237
0.756813 0.169001 3.46945e-18 0.270582
0.624584 0.46022 0 0.234438
0.219993 0.745097 0 0.186031
0.67013 0.394396 0 0.244436
0.756813 0.178818 -3.46945e-18 0.270142
0.715676 0.306027 0 0.256612
0.075776 0.775831 0 0.182377
0.756813 0.188991 0 0.269671
0.756814 0.199535 0 0.269169
0.715676 0.320819 0 0.25576
0.574156 0.534985 0 0.223544
0.288433 0.730005 0 0.189937
0.756813 0.21046 0 0.268634
0.467897 0.632561 0 0.207178
0.67013 0.412396 -3.46945e-18 0.2433
0.624584 0.48061 -3.08149e-33 0.233082
0.756814 0.221782 0 0.268063
0.412065 0.67277 3.08149e-33 0.200579
0.715676 0.336148 0 0.254851
0 0.791472 0 0.18128
0.756813 0.233516 3.46945e-18 0.267455
0.523729 0.594219 0 0.214704
0.624584 0.487654 1.54074e-33 0.2326
0.756814 0.245675 3.46945e-18 0.266807
0.350249 0.715441 3.46945e-18 0.193697
0.67013 0.43105 0 0.242087
0.715676 0.352034 -9.25187e-19 0.253883
0.797951 9.08189e-19 -3.08149e-33 0.283644
0.797951 0.00368111 2.31298e-18 0.283651
0.797951 0.00749587 2.31298e-18 0.28367
0.797951 0.0114491 2.31298e-18 0.283695
0.797951 0.0141803 7.70372e-34 0.283705
0.797951 0.0155459 0 0.28371
0.797951 0.0169611 7.70372e-34 0.283704
0.797951 0.0197915 2.31298e-18 0.283692
0.797951 0.0219913 0 0.283667
0.797951 0.0241911 3.08149e-33 0.283642
0.797951 0.0264709 0 0.283608
0.797951 0.0287506 -3.08149e-33 0.283574
0.797951 0.0334755 2.31298e-18 0.283496
0.797951 0.038372 2.31298e-18 0.283414
0.797951 0.0434463 2.31298e-18 0.283326
0.797951 0.0487048 0 0.283235
0.756813 0.258275 -3.46945e-18 0.266117
0.797951 0.0541543 2.31298e-18 0.283141
0.797951 0.0598016 2.31298e-18 0.283042
0.797951 0.0656539 2.31298e-18 0.282924
0.574156 0.55809 0 0.221934
0.624584 0.501741 0 0.231636
0.797951 0.0717187 2.31298e-18 0.282765
0.797951 0.0780037 -3.08149e-33 0.282562
0.797951 0.0845169 2.31298e-18 0.282328
0.797951 0.0912666 -3.08149e-33 0.282075
0.797951 0.0982613 2.31298e-18 0.281805
0.756813 0.271334 0 0.265383
0.797951 0.10551 2.31298e-18 0.281515
0.715676 0.368496 0 0.252851
0.151552 0.791472 0 0.182091
0.797951 0.113022 2.31298e-18 0.281205
0.219992 0.775831 3.46945e-18 0.183945
0.797951 0.118211 7.70372e-34 0.280985
0.770526 0.239487 1.54074e-33 0.269909
0.797951 0.120806 0 0.280875
0.67013 0.450382 3.46945e-18 0.240793
0.797951 0.128874 3.08149e-33 0.280522
0.467897 0.659208 0 0.205288
0.756813 0.284866 -3.46945e-18 0.264602
0.743101 0.320819 -7.70372e-34 0.260407
0.797951 0.137234 0 0.280145
0.797951 0.141566 0 0.279945
0.797951 0.145897 -9.25187e-19 0.279745
0.523729 0.619475 0 0.212898
0.075776 0.807681 0 0.180176
0.797951 0.150387 0 0.279531
0.797951 0.154876 0 0.279318
0.715676 0.385557 0 0.251751
0.412065 0.700877 3.08149e-33 0.198581
0.288433 0.76019 0 0.187841
0.756813 0.29889 0 0.263771
0.797951 0.16418 0 0.278864
0.624584 0.523639 0 0.230094
0.797951 0.167394 7.70372e-34 0.278704
0.797951 0.173822 2.31298e-18 0.278382
0.574156 0.582034 0 0.220219
0.67013 0.470415 0 0.239414
0.797951 0.183814 2.31298e-18 0.27787
0.756813 0.313423 -3.46945e-18 0.262887
0.797951 0.194169 -9.25187e-19 0.277326
0.715676 0.403236 0 0.250581
0.151552 0.807681 0 0.180961
0.797951 0.197746 -7.70372e-34 0.277133
0.350249 0.745097 0 0.191601
0.797951 0.2049 3.08149e-33 0.276748
0 0.823889 0 0.179024
0.756813 0.328483 -3.46945e-18 0.261948
0.797951 0.21046 0 0.276442
0.797951 0.21602 -3.08149e-33 0.276135
0.797951 0.223703 7.70372e-34 0.275702
0.797951 0.227544 9.25187e-19 0.275485
0.624584 0.546332 0 0.228451
0.715676 0.421557 0 0.249334
0.67013 0.491176 -3.46945e-18 0.237945
0.797951 0.231525 7.70372e-34 0.275256
0.467897 0.686824 -3.46945e-18 0.20328
0.523729 0.645647 0 0.210976
0.756813 0.344091 -3.46945e-18 0.260949
0.822721 0.120806 7.70372e-34 0.286343
0.797951 0.239487 -3.08149e-33 0.274796
0.822721 0.137234 7.70372e-34 0.285548
0.835106 0.00184056 0 0.292135
0.835106 0.00558849 0 0.29215
0.835106 0.00947248 0 0.292176
0.835106 0.0134975 0 0.292203
0.835107 0.0176687 0 0.2922
0.835106 0.0219913 -3.46945e-18 0.292154
0.574156 0.606847 3.46945e-18 0.218393
0.835106 0.0241911 0 0.292429
0.835106 0.0264709 -3.46945e-18 0.292076
0.822721 0.145897 -7.70372e-34 0.285113
0.835106 0.031113 3.46945e-18 0.29198
0.835106 0.0359238 3.46945e-18 0.291876
0.835106 0.0409092 -3.46945e-18 0.291764
0.835106 0.0460755 3.46945e-18 0.291647
0.835106 0.0514296 0 0.291524
0.797951 0.251863 -3.08149e-33 0.274065
0.835106 0.0541543 0 0.291763
0.835106 0.0569779 0 0.291397
0.219992 0.807681 3.46945e-18 0.181742
0.822721 0.154876 7.70372e-34 0.284651
0.835106 0.0627277 0 0.291259
0.151552 0.823889 0 0.179831
0.797951 0.255069 -1.54074e-33 0.273872
0.835106 0.0686863 3.46945e-18 0.291086
0.756814 0.360265 -3.46945e-18 0.259887
0.412065 0.730005 0 0.196461
0.835106 0.0748612 0 0.290861
0.822721 0.16418 7.70372e-34 0.284161
0.835106 0.0812603 0 0.290597
0.835106 0.0878917 -3.46945e-18 0.290313
0.715676 0.440544 0 0.248007
0.835106 0.094764 0 0.290011
0.797951 0.264688 -1.2326e-32 0.273291
0.835106 0.101886 -3.46945e-18 0.289689
0.835106 0.109266 3.46945e-18 0.289346
0.288433 0.791472 0 0.185625
0.835106 0.116914 0 0.28898
0.67013 0.51269 3.46945e-18 0.236379
0.797951 0.274657 6.16298e-33 0.272675
0.075776 0.840686 -3.46945e-18 0.177865
0.835106 0.12484 0 0.288592
0.797951 0.27798 -3.08149e-33 0.27247
0.624584 0.569849 0 0.226701
0.756813 0.377026 -3.46945e-18 0.258759
0.835106 0.133054 3.46945e-18 0.288179
0.835106 0.141565 3.46945e-18 0.287742
0.835106 0.150386 0 0.287278
0.797951 0.291753 0 0.2716
0.835106 0.159528 3.46945e-18 0.286787
0.715676 0.46022 0 0.246594
0.816529 0.239487 -1.54074e-33 0.278566