# pMean  POINT_DATA 63840
# x  y  z  pMean
0 0.5 3.39583e-17 0.200224
0 0.5 -0.00617931 0.200249
0 0.5 0.00617931 0.200203
0.0124865 0.5 -0.00617931 0.200249
0.0124865 0.5 0.00617931 0.200203
0 0.5 -0.0688207 0.200213
0 0.5 0.0688207 0.199708
0.0124865 0.5 -0.0688207 0.200213
0.0124865 0.5 0.0688207 0.199708
0 0.5 -0.075 0.200181
0 0.5 0.075 0.199632
0 0.5 -0.0811793 0.200153
0 0.5 0.0811793 0.199559
0.0124865 0.5 -0.0811793 0.200153
0.0124865 0.5 0.0811793 0.199559
0.075776 0.5 -0.0375 0.200374
0.075776 0.5 0.0375 0.200096
0.075776 0.5 -0.1125 0.200011
0.075776 0.5 0.1125 0.19919
0 0.5 -0.143821 0.199594
0 0.5 0.143821 0.198552
0.0124865 0.5 -0.143821 0.199594
0.0124865 0.5 0.143821 0.198552
0 0.5 -0.15 0.199511
0 0.5 0.15 0.198425
0.151149 0.5 -0.00137318 0.200556
0 0.5 -0.156179 0.199432
0 0.5 0.156179 0.198303
0.0124865 0.5 -0.156179 0.199432
0.0124865 0.5 0.156179 0.198303
0.151149 0.5 0.075 0.19997
0.151149 0.5 -0.075 0.200532
0.075776 0.5 -0.1875 0.199033
0.075776 0.5 0.1875 0.197683
0.151149 0.5 0.15 0.198745
0.151149 0.5 -0.15 0.199856
0 0.5 -0.218821 0.198363
0 0.5 0.218821 0.196795
0.0124865 0.5 -0.218821 0.198363
0.0124865 0.5 0.218821 0.196795
0.219992 0.5 0.0375 0.200752
0.219993 0.5 -0.0375 0.201043
0 0.5 -0.225 0.19823
0 0.5 0.225 0.196619
0 0.5 -0.231179 0.198101
0 0.5 0.231179 0.196446
0.0124865 0.5 -0.231179 0.198101
0.0124865 0.5 0.231179 0.196446
0.219992 0.5 0.1125 0.199834
0.219993 0.5 -0.1125 0.200691
0.151149 0.5 -0.225 0.198556
0.151149 0.5 0.225 0.196909
0.075776 0.5 -0.2625 0.197449
0.075776 0.5 0.2625 0.195576
0.288069 0.5 -0.00137318 0.204158
0.219992 0.5 0.1875 0.198269
0.219993 0.5 -0.1875 0.199678
0 0.5 0.293821 0.194455
0 0.5 -0.293821 0.196537
0.0124865 0.5 -0.293821 0.196537
0.0124865 0.5 0.293821 0.194455
0.288069 0.5 -0.075 0.204151
0.288069 0.5 0.075 0.203552
0 0.5 -0.3 0.196356
0 0.5 0.3 0.194233
0 0.5 0.306179 0.194015
0 0.5 -0.306179 0.196179
0.0124865 0.5 -0.306179 0.196179
0.0124865 0.5 0.306179 0.194015
0.288069 0.5 -0.15 0.203417
0.288069 0.5 0.15 0.202232
0.151149 0.5 -0.3 0.196657
0.151149 0.5 0.3 0.194489
0.219992 0.5 -0.2625 0.198056
0.219992 0.5 0.2625 0.196104
0.075776 0.5 0.3375 0.192912
0.075776 0.5 -0.3375 0.195284
0.350249 0.5 -0.0375 0.207457
0.350249 0.5 0.0375 0.207144
0.288069 0.5 -0.225 0.202007
0.288069 0.5 0.225 0.20025
0.350249 0.5 0.1125 0.206108
0.350249 0.5 -0.1125 0.207038
0 0.5 0.368821 0.191574
0 0.5 -0.368821 0.194146
0.0124865 0.5 -0.368821 0.194146
0.0124865 0.5 0.368821 0.191574
0 0.5 -0.375 0.19392
0 0.5 0.375 0.191309
0 0.5 -0.381179 0.193698
0 0.5 0.381179 0.191047
0.0124865 0.5 -0.381179 0.193698
0.0124865 0.5 0.381179 0.191047
0.350249 0.5 -0.1875 0.205891
0.350249 0.5 0.1875 0.204356
0.219992 0.5 -0.3375 0.195837
0.219992 0.5 0.3375 0.193368
0.151149 0.5 -0.375 0.19419
0.151149 0.5 0.375 0.191525
0.411736 0.5 -0.00137318 0.211625
0.288069 0.5 -0.3 0.199953
0.288069 0.5 0.3 0.197645
0.411736 0.5 -0.075 0.211605
0.411736 0.5 0.075 0.21095
0.075776 0.5 -0.4125 0.192577
0.075776 0.5 0.4125 0.189727
0.350249 0.5 -0.2625 0.204045
0.350249 0.5 0.2625 0.201925
0.411736 0.5 -0.15 0.21076
0.411736 0.5 0.15 0.209463
0 0.5 -0.443821 0.191228
0 0.5 0.443821 0.18819
0.0124865 0.5 -0.443821 0.191228
0.0124865 0.5 0.443821 0.18819
0 0.5 -0.45 0.190961
0 0.5 0.45 0.187886
0 0.5 -0.456179 0.190697
0 0.5 0.456179 0.187585
0.0124865 0.5 -0.456179 0.190697
0.0124865 0.5 0.456179 0.187585
0.219992 0.5 -0.4125 0.193062
0.219993 0.5 0.4125 0.190102
0.411736 0.5 -0.225 0.20915
0.411736 0.5 0.225 0.20723
0.467897 0.5 0.0375 0.215625
0.467897 0.5 -0.0375 0.215969
0.288069 0.5 -0.375 0.197289
0.288069 0.5 0.375 0.194457
0.151149 0.5 -0.45 0.191193
0.151149 0.5 0.45 0.188059
0.467897 0.5 -0.1125 0.215481
0.467897 0.5 0.1125 0.214454
0.350249 0.5 0.3375 0.198855
0.350249 0.5 -0.3375 0.201533
0.075776 0.5 -0.4875 0.189365
0.075776 0.5 0.4875 0.186065
0.467897 0.5 -0.1875 0.214163
0.467897 0.5 0.1875 0.212472
0.411736 0.5 -0.3 0.206809
0.411736 0.5 0.3 0.204294
0 0.5 -0.518821 0.187825
0 0.5 0.518821 0.184351
0.0124865 0.5 0.518821 0.184351
0.0124865 0.5 -0.518821 0.187825
0.523432 0.5 -0.00137318 0.220924
0 0.5 -0.525 0.18752
0 0.5 0.525 0.184012
0.523432 0.5 -0.075 0.220893
0.523432 0.5 0.075 0.220164
0 0.5 -0.531179 0.187218
0 0.5 0.531179 0.183675
0.0124865 0.5 -0.531179 0.187218
0.0124865 0.5 0.531179 0.183675
0.288069 0.5 -0.45 0.19406
0.288069 0.5 0.45 0.190736
0.219992 0.5 -0.4875 0.189773
0.219993 0.5 0.4875 0.186353
0.467897 0.5 -0.2625 0.212045
0.467897 0.5 0.2625 0.209723
0.350249 0.5 -0.4125 0.198403
0.350249 0.5 0.4125 0.195198
0.523432 0.5 -0.15 0.219918
0.523432 0.5 0.15 0.218475
0.151149 0.5 -0.525 0.18771
0.151149 0.5 0.525 0.184137
0.411736 0.5 -0.375 0.203783
0.411736 0.5 0.375 0.200704
0.075776 0.5 -0.5625 0.185695
0.075776 0.5 0.5625 0.181977
0.523432 0.5 -0.225 0.218068
0.523432 0.5 0.225 0.215938
0.574156 0.5 -0.0375 0.226081
0.574156 0.5 0.0375 0.225694
0.467897 0.5 0.3375 0.20625
0.467897 0.5 -0.3375 0.209177
0.574156 0.5 -0.1125 0.225512
0.574156 0.5 0.1125 0.22436
0 0.5 -0.593821 0.183985
0 0.5 0.593821 0.180105
0.0124865 0.5 -0.593821 0.183985
0.0124865 0.5 0.593821 0.180105
0.288069 0.5 -0.525 0.190316
0.288069 0.5 0.525 0.186537
0 0.5 -0.6 0.183646
0 0.5 0.6 0.179735
0.350249 0.5 -0.4875 0.194705
0.350249 0.5 0.4875 0.191012
0.523432 0.5 -0.3 0.215385
0.523432 0.5 0.3 0.212604
0.219992 0.5 -0.5625 0.186016
0.219992 0.5 0.5625 0.182171
0.574156 0.5 -0.1875 0.223996
0.574156 0.5 0.1875 0.222101
0 0.5 -0.606179 0.183311
0 0.5 0.606179 0.179367
0.0124865 0.5 -0.606179 0.183311
0.0124865 0.5 0.606179 0.179367
0.411736 0.5 -0.45 0.200126
0.411736 0.5 0.45 0.19652
0.151149 0.5 -0.6 0.183789
0.151149 0.5 0.6 0.179812
0.62168 0.5 2.64545e-17 0.231361
0.467897 0.5 0.4125 0.202114
0.467897 0.5 -0.4125 0.205608
0.624316 0.5 0.0729402 0.230809
0.624316 0.5 -0.075 0.231632
0.574156 0.5 -0.2625 0.221562
0.574157 0.5 0.2625 0.218964
0.075776 0.5 -0.6375 0.181617
0.075776 0.5 0.6375 0.177512
0.624316 0.5 -0.15 0.230504
0.624316 0.5 0.15 0.228878
0.523432 0.5 -0.375 0.211924
0.523432 0.5 0.375 0.20853
0.350249 0.5 -0.5625 0.190501
0.350249 0.5 0.5625 0.186359
0.624316 0.5 -0.225 0.228376
0.624316 0.5 0.225 0.225977
0.288069 0.5 0.6 0.181916
0.288069 0.5 -0.6 0.186113
0.574156 0.5 -0.3375 0.218267
0.574156 0.5 0.3375 0.215008
0.411736 0.5 -0.525 0.1959
0.411736 0.5 0.525 0.191812
0 0.5 -0.668821 0.179759
0 0.5 0.668821 0.175506
0.0124865 0.5 -0.668821 0.179759
0.0124865 0.5 0.668821 0.175506
0.67013 0.5 0.0375 0.237082
0.67013 0.5 -0.0375 0.237523
0.219993 0.5 -0.6375 0.181843
0.219993 0.5 0.6375 0.177608
0 0.5 -0.675 0.179391
0 0.5 0.675 0.175109
0.467897 0.5 0.4875 0.19739
0.467897 0.5 -0.4875 0.201403
0.67013 0.5 -0.1125 0.236859
0.67013 0.5 0.1125 0.235553
0 0.5 -0.681179 0.179026
0 0.5 0.681179 0.174715
0.0124865 0.5 -0.681179 0.179026
0.0124865 0.5 0.681179 0.174715
0.523432 0.5 -0.45 0.20775
0.523432 0.5 0.45 0.203792
0.151149 0.5 -0.675 0.179483
0.151149 0.5 0.675 0.175134
0.624316 0.5 -0.3 0.225293
0.624316 0.5 0.3 0.222167
0.67013 0.5 0.1875 0.232964
0.67013 0.5 -0.1875 0.235107
0.574156 0.5 -0.4125 0.214181
0.574157 0.5 0.4125 0.210307
0.708171 0.5 1.88651e-17 0.242541
0.075776 0.5 -0.7125 0.177184
0.075776 0.5 0.7125 0.172725
0.715434 0.5 0.0736268 0.242375
0.715434 0.5 -0.075 0.24348
0.67013 0.5 0.2625 0.229365
0.67013 0.5 -0.2625 0.232311
0.350249 0.5 -0.6375 0.185853
0.350249 0.5 0.6375 0.181305
0.411736 0.5 -0.6 0.191173
0.411736 0.5 0.6 0.186648
0.624316 0.5 -0.375 0.221322
0.624316 0.5 0.375 0.217525
0.715434 0.5 -0.15 0.242179
0.715434 0.5 0.15 0.240328
0.467897 0.5 -0.5625 0.196635
0.467897 0.5 0.5625 0.192151
0.288069 0.5 -0.675 0.18151
0.288069 0.5 0.675 0.176936
0.523432 0.5 -0.525 0.202941
0.523432 0.5 0.525 0.198472
0 0.5 -0.743821 0.175199
0 0.5 0.743821 0.170607
0.0124865 0.5 -0.743821 0.175199
0.0124865 0.5 0.743821 0.170607
0.219992 0.5 0.7125 0.17272
0.219992 0.5 -0.7125 0.177307
0.715434 0.5 -0.225 0.239731
0.715434 0.5 0.225 0.237005
0 0.5 -0.75 0.174807
0 0.5 0.75 0.170188
0.67013 0.5 0.3375 0.224844
0.67013 0.5 -0.3375 0.228526
0.574156 0.5 -0.4875 0.209379
0.574156 0.5 0.4875 0.204949
0 0.5 -0.756179 0.174417
0 0.5 0.756179 0.169772
0.0124865 0.5 -0.756179 0.174417
0.0124865 0.5 0.756179 0.169772
0.756813 0.5 -0.0375 0.249881
0.756813 0.5 0.0375 0.249377
0.151149 0.5 -0.75 0.174845
0.151149 0.5 0.75 0.170161
0.756813 0.5 -0.1125 0.249116
0.756813 0.5 0.1125 0.247621
0.624316 0.5 -0.45 0.216543
0.624316 0.5 0.45 0.212137
0.715434 0.5 -0.3 0.236189
0.715434 0.5 0.3 0.232645
0.756813 0.5 0.1875 0.244654
0.756813 0.5 -0.1875 0.247102
0.67013 0.5 -0.4125 0.223832
0.67013 0.5 0.4125 0.219486
0.411736 0.5 -0.675 0.186019
0.411736 0.5 0.675 0.181104
0.467897 0.5 0.6375 0.186479
0.467897 0.5 -0.6375 0.191383
0.075776 0.5 -0.7875 0.172448
0.075776 0.5 0.7875 0.167669
0.350249 0.5 -0.7125 0.180827
0.350249 0.5 0.7125 0.175917
0.523432 0.5 -0.6 0.197582
0.523432 0.5 0.6 0.192656
0.797732 0.5 2.68882e-17 0.256172
0.756813 0.5 -0.2625 0.243887
0.756814 0.5 0.2625 0.240535
0.797732 0.5 0.0736268 0.254847
0.797732 0.5 -0.075 0.256034
0.288069 0.5 -0.75 0.176568
0.288069 0.5 0.75 0.171655
0.574156 0.5 -0.5625 0.203952
0.574157 0.5 0.5625 0.199026
0.715434 0.5 -0.375 0.23163
0.715434 0.5 0.375 0.227347
0.797732 0.5 -0.15 0.254545
0.797732 0.5 0.15 0.252425
0.624316 0.5 -0.525 0.211054
0.624316 0.5 0.525 0.206103
0.219992 0.5 -0.7875 0.172465
0.219992 0.5 0.7875 0.167562
0 0.5 -0.818821 0.17036
0 0.5 0.818821 0.165462
0.0124865 0.5 0.818821 0.165462
0.0124865 0.5 -0.818821 0.17036
0 0.5 -0.825 0.169947
0 0.5 0.825 0.165025
0.756813 0.5 0.3375 0.235362
0.756814 0.5 -0.3375 0.239538
0.67013 0.5 -0.4875 0.218334
0.67013 0.5 0.4875 0.213386
0.797732 0.5 -0.225 0.251739
0.797732 0.5 0.225 0.248628
0 0.5 -0.831179 0.169536
0 0.5 0.831179 0.16459
0.0124865 0.5 -0.831179 0.169536
0.0124865 0.5 0.831179 0.16459
0.835106 0.5 0.0375 0.262173
0.835106 0.5 -0.0375 0.262752
0.151149 0.5 -0.825 0.169929
0.151149 0.5 0.825 0.164944
0.835106 0.5 0.1125 0.260163
0.835106 0.5 -0.1125 0.261882
0.715434 0.5 -0.45 0.226159
0.715434 0.5 0.45 0.221214
0.797732 0.5 -0.3 0.247686
0.797732 0.5 0.3 0.243654
0.467897 0.5 0.7125 0.180453
0.467897 0.5 -0.7125 0.185728
0.523432 0.5 -0.675 0.19176
0.523432 0.5 0.675 0.186435
0.411736 0.5 -0.75 0.180511
0.411736 0.5 0.75 0.175253
0.835106 0.5 -0.1875 0.259582
0.835106 0.5 0.1875 0.256775
0.574156 0.5 -0.6375 0.197997
0.574157 0.5 0.6375 0.192635
0.350249 0.5 -0.7875 0.175491
0.350249 0.5 0.7875 0.17026
0.756813 0.5 -0.4125 0.234158
0.756814 0.5 0.4125 0.229255
0.075776 0.5 -0.8625 0.167463
0.075776 0.5 0.8625 0.162398
0.624316 0.5 0.6 0.199531
0.624316 0.5 -0.6 0.204958
0.872064 0.5 5.91974e-17 0.269169
0.870122 0.5 0.075 0.26729
0.288069 0.5 -0.825 0.171347
0.288069 0.5 0.825 0.166135
0.67013 0.5 -0.5625 0.212141
0.67013 0.5 0.5625 0.206669
0.872064 0.5 -0.075 0.269017
0.835106 0.5 -0.2625 0.255905
0.835106 0.5 0.2625 0.252084
0.797732 0.5 -0.375 0.24248
0.797732 0.5 0.375 0.237623
0.872064 0.5 0.14794 0.264897
0.872064 0.5 -0.15 0.267325
0.715434 0.5 -0.525 0.219894
0.715434 0.5 0.525 0.214366
0.219992 0.5 0.8625 0.162187
0.219993 0.5 -0.8625 0.167372
0 0.5 -0.893821 0.165292
0 0.5 0.893821 0.160122
0.0124865 0.5 -0.893821 0.165292
0.0124865 0.5 0.893821 0.160122
0 0.5 -0.9 0.164863
0 0.5 0.9 0.159671
0.756813 0.5 -0.4875 0.227879
0.756813 0.5 0.4875 0.222325
0.872064 0.5 -0.225 0.264133
0.872064 0.5 0.225 0.26058
0.835106 0.5 -0.3375 0.250955
0.835106 0.5 0.3375 0.246198
0 0.5 0.906179 0.159223
0 0.5 -0.906179 0.164435
0.0124865 0.5 -0.906179 0.164435
0.0124865 0.5 0.906179 0.159223
0.90582 0.5 -0.0375 0.275979
0.90582 0.5 0.0375 0.275315
0.151149 0.5 -0.9 0.164789
0.151149 0.5 0.9 0.159538
0.90582 0.5 -0.1125 0.274996
0.905821 0.5 0.1125 0.273029
0.523432 0.5 -0.75 0.185569
0.523432 0.5 0.75 0.179896
0.574156 0.5 -0.7125 0.191613
0.574156 0.5 0.7125 0.185876
0.797732 0.5 -0.45 0.236244
0.797732 0.5 0.45 0.230664
0.467897 0.5 0.7875 0.174155
0.467897 0.5 -0.7875 0.179752
0.624316 0.5 -0.675 0.198365
0.624316 0.5 0.675 0.19253
0.411736 0.5 -0.825 0.174724
0.411736 0.5 0.825 0.169166
0.872064 0.5 0.3 0.254936
0.872064 0.5 -0.3 0.259524
0.67013 0.5 -0.6375 0.205371
0.67013 0.5 0.6375 0.199453
0.90582 0.5 0.1875 0.269181
0.905821 0.5 -0.1875 0.272388
0.350249 0.5 -0.8625 0.16991
0.350249 0.5 0.8625 0.1644
0.835106 0.5 -0.4125 0.244839
0.835106 0.5 0.4125 0.239269
0.715434 0.5 -0.6 0.212959
0.715434 0.5 0.6 0.206937
0.939201 0.5 2.75387e-17 0.282197
0.075776 0.5 0.9375 0.156961
0.075776 0.5 -0.9375 0.162279
0.939111 0.5 0.075 0.280416
0.939201 0.5 -0.075 0.28204
0.756813 0.5 0.5625 0.214717
0.756814 0.5 -0.5625 0.220825
0.90582 0.5 0.2625 0.263864
0.905821 0.5 -0.2625 0.26822
0.288069 0.5 -0.9 0.165907
0.288069 0.5 0.9 0.160434
0.872064 0.5 -0.375 0.253614
0.872064 0.5 0.375 0.248105
0.939201 0.5 0.148627 0.277249
0.939201 0.5 -0.15 0.280144
0.797732 0.5 -0.525 0.22912
0.797732 0.5 0.525 0.222918
0.219992 0.5 0.9375 0.156649
0.219992 0.5 -0.9375 0.16208
0.939201 0.5 -0.225 0.276556
0.939201 0.5 0.225 0.272484
0.905821 0.5 -0.3375 0.262602
0.90582 0.5 0.3375 0.257208
0.835106 0.5 -0.4875 0.2377
0.835106 0.5 0.4875 0.231436
0 0.5 0.968821 0.154636
0 0.5 -0.968821 0.160047
0.0124865 0.5 -0.968821 0.160047
0.0124865 0.5 0.968821 0.154636
0.969689 0.5 -0.0375 0.288937
0.969689 0.5 0.0375 0.288169
0.574156 0.5 -0.7875 0.184901
0.574156 0.5 0.7875 0.178847
0 0.5 -0.975 0.159605
0 0.5 0.975 0.154176
0.624316 0.5 -0.75 0.191385
0.624316 0.5 0.75 0.185208
0.969689 0.5 -0.1125 0.287858
0.96969 0.5 0.1125 0.285584
0.523432 0.5 -0.825 0.179096
0.523432 0.5 0.825 0.173129
0.67013 0.5 0.7125 0.191856
0.67013 0.5 -0.7125 0.198148
0 0.5 -0.981179 0.159165
0 0.5 0.981179 0.153719
0.467897 0.5 0.8625 0.16766
0.467897 0.5 -0.8625 0.173535
0.0124865 0.5 -0.981179 0.159165
0.0124865 0.5 0.981179 0.153719
0.872064 0.5 -0.45 0.246545
0.872064 0.5 0.45 0.240246
0.715434 0.5 -0.675 0.20549
0.715434 0.5 0.675 0.199058
0.939201 0.5 -0.3 0.271366
0.939201 0.5 0.3 0.266131
0.151149 0.5 0.975 0.153992
0.151149 0.5 -0.975 0.159477
0.969689 0.5 -0.1875 0.284951
0.969689 0.5 0.1875 0.281254
0.756813 0.5 -0.6375 0.213142
0.756813 0.5 0.6375 0.206582
0.411736 0.5 -0.9 0.168729
0.411736 0.5 0.9 0.162914
0.90582 0.5 -0.4125 0.255672
0.90582 0.5 0.4125 0.249385
0.995005 0.5 0.0749309 0.291778
0.797732 0.5 -0.6 0.221262
0.797732 0.5 0.6 0.21455
1.00005 0.5 -8.47123e-18 0.294878
0.350249 0.5 -0.9375 0.164146
0.350249 0.5 0.9375 0.158398
1.00005 0.5 -0.0749309 0.29471
0.969689 0.5 -0.2625 0.280295
0.969689 0.5 0.2625 0.275288
0.835106 0.5 -0.5625 0.229714
0.835106 0.5 0.5625 0.222864
1.00005 0.5 -0.149862 0.292586
0.939201 0.5 -0.375 0.264707
0.939201 0.5 0.375 0.258455
1.00029 0.5 0.148988 0.289238
0.075776 0.5 -1.0125 0.156947
0.075776 0.5 1.0125 0.151408
0.288069 0.5 0.975 0.154609
0.288069 0.5 -0.975 0.160307
0.872064 0.5 -0.525 0.238493
0.872064 0.5 0.525 0.231528
1.00005 0.5 0.224793 0.283964
1.00005 0.5 -0.224793 0.288562
0.969689 0.5 0.3375 0.267838
0.96969 0.5 -0.3375 0.273997
1.0271 0.5 -0.0368226 0.30174
1.0271 0.5 0.0368226 0.300885
0.90582 0.5 0.4875 0.240566
0.905821 0.5 -0.4875 0.247614
1.0271 0.5 -0.110468 0.300565
1.0271 0.5 0.110468 0.29787
0.67013 0.5 0.7875 0.183995
0.67013 0.5 -0.7875 0.190593
0.624316 0.5 0.825 0.177669
0.624316 0.5 -0.825 0.184129
0.219993 0.5 -1.0125 0.156645
0.219993 0.5 1.0125 0.151002
0.574156 0.5 -0.8625 0.177957
0.574156 0.5 0.8625 0.171638
0.715434 0.5 -0.75 0.197623
0.715434 0.5 0.75 0.190857
0.756813 0.5 0.7125 0.198056
0.756814 0.5 -0.7125 0.204984
0.523432 0.5 -0.9 0.172429
0.523432 0.5 0.9 0.166214
0.939201 0.5 -0.45 0.256764
0.939201 0.5 0.45 0.249644
1.04168 0.5 0 0.305117
1.0271 0.5 -0.184113 0.297373
1.0271 0.5 0.184113 0.293261
0 0.5 -1.04382 0.154674
0 0.5 1.04382 0.149057
0.0124865 0.5 -1.04382 0.154674
0.0124865 0.5 1.04382 0.149057
1.00005 0.5 -0.299723 0.282742
1.00005 0.5 0.299723 0.276847
1.04168 0.5 -0.0729162 0.304974
1.04168 0.5 0.0729162 0.303235
0.797732 0.5 -0.675 0.212833
0.797732 0.5 0.675 0.205716
0.467897 0.5 0.9375 0.161044
0.467897 0.5 -0.9375 0.167152
0 0.5 -1.05 0.154225
0 0.5 1.05 0.148592
0.835106 0.5 -0.6375 0.221045
0.835106 0.5 0.6375 0.213744
1.04168 0.5 -0.145832 0.302792
1.04168 0.5 0.145832 0.299383
0.969689 0.5 -0.4125 0.266229
0.96969 0.5 0.4125 0.25909
0 0.5 -1.05618 0.153777
0 0.5 1.05618 0.148129
0.0124865 0.5 -1.05618 0.153777
0.0124865 0.5 1.05618 0.148129
1.05695 0.5 -0.0360764 0.309291
1.05695 0.5 0.0360764 0.308405
0.411736 0.5 -0.975 0.162594
0.411736 0.5 0.975 0.156561
0.872064 0.5 -0.6 0.229634
0.872064 0.5 0.6 0.222152
1.0271 0.5 -0.257759 0.292262
1.0271 0.5 0.257759 0.286697
0.151149 0.5 -1.05 0.154046
0.151149 0.5 1.05 0.148361
1.05695 0.5 0.108229 0.306158
1.05695 0.5 -0.108229 0.308132
1.04168 0.5 -0.218749 0.298626
1.04168 0.5 0.218749 0.293663
0.90582 0.5 -0.5625 0.238623
0.905821 0.5 0.5625 0.230959
1.00005 0.5 -0.374654 0.275282
1.00005 0.5 0.374654 0.268264
0.350249 0.5 1.0125 0.152314
0.350249 0.5 -1.0125 0.158263
1.05695 0.5 -0.180382 0.304925
1.05695 0.5 0.180382 0.300658
1.07319 0.5 0.0709442 0.310718
0.939201 0.5 -0.525 0.247749
0.939201 0.5 0.525 0.23991
1.0271 0.5 -0.331404 0.285355
1.0271 0.5 0.331404 0.278513
1.08112 0.5 3.23815e-17 0.315277
1.04168 0.5 -0.291665 0.292586
1.04168 0.5 0.291665 0.286223
1.08112 0.5 -0.0709442 0.315179
0.969689 0.5 -0.4875 0.257244
0.96969 0.5 0.4875 0.249265
1.05695 0.5 0.252535 0.294001
1.05695 0.5 -0.252535 0.299779
0.288069 0.5 -1.05 0.154604
0.288069 0.5 1.05 0.148715
0.075776 0.5 -1.0875 0.151518
0.075776 0.5 1.0875 0.145791
1.08112 0.5 -0.141888 0.313013
1.08145 0.5 0.140165 0.309025
0.715434 0.5 0.825 0.182459
0.715434 0.5 -0.825 0.189488
0.756813 0.5 0.7875 0.18928
0.756814 0.5 -0.7875 0.196497
0.67013 0.5 -0.8625 0.182821
0.67013 0.5 0.8625 0.175979
0.797732 0.5 -0.75 0.203998
0.797732 0.5 0.75 0.196566
0.624316 0.5 -0.9 0.176698
0.624316 0.5 0.9 0.17001
1.00005 0.5 -0.449585 0.266404
1.00005 0.5 0.449585 0.258441
0.835106 0.5 -0.7125 0.21188
0.835106 0.5 0.7125 0.204229
0.574156 0.5 -0.9375 0.170872
0.574157 0.5 0.9375 0.164335
1.10076 0.5 -0.0349809 0.321047
1.10076 0.5 0.0349809 0.320079
1.08112 0.5 -0.212832 0.308828
1.08112 0.5 0.212832 0.30354
0.872064 0.5 -0.675 0.220168
0.872064 0.5 0.675 0.212298
1.04168 0.5 -0.364581 0.284832
1.04168 0.5 0.364581 0.277255
1.0271 0.5 0.405049 0.26892
1.0271 0.5 -0.405049 0.276858
1.05695 0.5 -0.324688 0.292806
1.05695 0.5 0.324688 0.285703
1.10076 0.5 -0.104943 0.319949
1.10076 0.5 0.104943 0.317057
0.523432 0.5 0.975 0.159227
0.523432 0.5 -0.975 0.165647
0.90582 0.5 0.6375 0.220791
0.905821 0.5 -0.6375 0.228873
0.219992 0.5 1.0875 0.1453
0.219992 0.5 -1.0875 0.151122
1.11376 0.5 3.81639e-17 0.324009
0.939201 0.5 0.6 0.229491
0.939201 0.5 -0.6 0.237862
1.10076 0.5 -0.174905 0.316754
1.10076 0.5 0.174905 0.312072
0.467897 0.5 -1.0125 0.160675
0.467897 0.5 1.0125 0.154373
1.11376 0.5 -0.0693118 0.32396
1.11376 0.5 0.0693118 0.321981
1.08112 0.5 0.283777 0.29595
1.08112 0.5 -0.283777 0.302732
0 0.5 -1.11882 0.149224
0 0.5 1.11882 0.143431
0.0124865 0.5 -1.11882 0.149224
0.0124865 0.5 1.11882 0.143431
0.969689 0.5 -0.5625 0.24725
0.969689 0.5 0.5625 0.238615
1.11376 0.5 0.138624 0.317519
1.11376 0.5 -0.138624 0.321813
0 0.5 -1.125 0.148771
0 0.5 1.125 0.142965
1.10076 0.5 0.244866 0.305236
1.10076 0.5 -0.244866 0.311579
0.411736 0.5 -1.05 0.156383
0.411736 0.5 1.05 0.15017
1.05695 0.5 -0.396841 0.284204
1.05695 0.5 0.396841 0.275969
1.00005 0.5 -0.524516 0.256337
1.00005 0.5 0.524516 0.24763
1.04168 0.5 -0.437497 0.275578
1.04168 0.5 0.437497 0.266995
0 0.5 -1.13118 0.148319
0 0.5 1.13118 0.1425
0.0124865 0.5 -1.13118 0.148319
0.0124865 0.5 1.13118 0.1425
1.11376 0.5 -0.207935 0.317605
1.11376 0.5 0.207935 0.31195
1.0271 0.5 -0.478694 0.267
1.0271 0.5 0.478694 0.258183
0.151149 0.5 -1.125 0.148543
0.151149 0.5 1.125 0.142689
1.08112 0.5 -0.354722 0.29487
1.08112 0.5 0.354722 0.286798
1.13882 0.5 -0.0340295 0.331305
1.13882 0.5 0.0340295 0.330273
0.350249 0.5 -1.0875 0.15232
0.350249 0.5 1.0875 0.146199
1.13882 0.5 -0.102088 0.330232
1.13882 0.5 0.102088 0.327343
1.10076 0.5 -0.314829 0.304516
1.10076 0.5 0.314829 0.296721
0.756813 0.5 -0.8625 0.187816
0.756814 0.5 0.8625 0.180382
0.797732 0.5 -0.825 0.194911
0.797732 0.5 0.825 0.187248
1.11376 0.5 -0.277247 0.311443
1.11376 0.5 0.277247 0.30419
0.835106 0.5 0.7875 0.194487
0.835106 0.5 -0.7875 0.202392
0.715434 0.5 -0.9 0.181207
0.715434 0.5 0.9 0.173977
0.872064 0.5 -0.75 0.210299
0.872064 0.5 0.75 0.202136
1.13882 0.5 0.170147 0.321989
1.13882 0.5 -0.170147 0.327003
0.67013 0.5 -0.9375 0.174939
0.67013 0.5 0.9375 0.167908
0.905821 0.5 -0.7125 0.21863
0.905821 0.5 0.7125 0.210215
1.05695 0.5 0.468994 0.265061
1.05695 0.5 -0.468994 0.27419
0.939201 0.5 -0.675 0.227328
0.939201 0.5 0.675 0.218596
0.624316 0.5 0.975 0.162317
0.624316 0.5 -0.975 0.169187
1.04168 0.5 -0.510414 0.265055
1.04168 0.5 0.510414 0.255702
0.969689 0.5 -0.6375 0.236469
0.96969 0.5 0.6375 0.227399
0.288069 0.5 -1.125 0.148846
0.288069 0.5 1.125 0.142798
1.16179 0.5 5.78241e-19 0.337568
1.08112 0.5 0.425666 0.276314
1.08112 0.5 -0.425666 0.285444
1.13882 0.5 -0.238206 0.321737
1.13882 0.5 0.238206 0.314943
1.16179 0.5 0.0669104 0.336323
1.16179 0.5 -0.0669104 0.337576
0.574156 0.5 -1.0125 0.163726
0.574156 0.5 1.0125 0.157015
0.075776 0.5 -1.1625 0.146039
0.075776 0.5 1.1625 0.140152
1.00005 0.5 -0.599447 0.245339
1.00005 0.5 0.599447 0.236097
1.10076 0.5 0.384791 0.286723
1.10076 0.5 -0.384791 0.295751
1.0271 0.5 -0.55234 0.256008
1.0271 0.5 0.55234 0.246557
1.11376 0.5 -0.346559 0.303462
1.11376 0.5 0.346559 0.294831
1.16179 0.5 -0.133821 0.335417
1.16179 0.5 0.133821 0.331262
0.523432 0.5 -1.05 0.158824
0.523432 0.5 1.05 0.152239
1.17463 0.5 -0.0331343 0.341601
1.17463 0.5 0.0331343 0.340505
1.17463 0.5 -0.0994029 0.340575
1.17463 0.5 0.0994029 0.337241
1.16179 0.5 -0.200731 0.33112
1.16179 0.5 0.200731 0.324977
1.13882 0.5 -0.306265 0.314519
1.13882 0.5 0.306265 0.306167
0.219992 0.5 -1.1625 0.145546
0.219992 0.5 1.1625 0.139572
0.467897 0.5 -1.0875 0.15417
0.467897 0.5 1.0875 0.14771
1.17463 0.5 0.165672 0.331925
1.17463 0.5 -0.165672 0.337305
1.05695 0.5 -0.541147 0.263012
1.05695 0.5 0.541147 0.25323
1.18772 0.5 -5.78241e-19 0.344973
1.11376 0.5 -0.41587 0.293858
1.11376 0.5 0.41587 0.284102
1.18772 0.5 -0.065614 0.345031
1.18772 0.5 0.065614 0.342543
1.08112 0.5 -0.49661 0.274698
1.08112 0.5 0.49661 0.264754
1.10076 0.5 -0.454752 0.285492
1.10076 0.5 0.454752 0.275501
1.18534 0.5 0.118202 0.338419
1.16179 0.5 -0.267642 0.324791
1.16179 0.5 0.267642 0.31691
0 0.5 -1.19382 0.143743
0 0.5 1.19382 0.137802
0.0124865 0.5 1.19382 0.137802
0.0124865 0.5 -1.19382 0.143743
1.04168 0.5 -0.58333 0.253531
1.04168 0.5 0.58333 0.243643
1.18772 0.5 -0.131228 0.34289
1.17463 0.5 -0.23194 0.33196
1.17463 0.5 0.23194 0.32466
0.411736 0.5 -1.125 0.150154
0.411736 0.5 1.125 0.143794
1.13882 0.5 -0.374324 0.305534
1.13882 0.5 0.374324 0.29586
0 0.5 -1.2 0.14329
0 0.5 1.2 0.137337
0.905821 0.5 0.7875 0.199439
0.905821 0.5 -0.7875 0.20809
0.872064 0.5 -0.825 0.200207
0.872064 0.5 0.825 0.191848
0.835106 0.5 0.8625 0.18467
0.835106 0.5 -0.8625 0.192742
0.939201 0.5 -0.75 0.216388
0.939201 0.5 0.75 0.207414
0.797732 0.5 -0.9 0.185716
0.797732 0.5 0.9 0.177893
1.0271 0.5 0.625985 0.234316
1.0271 0.5 -0.625985 0.244211
0.969689 0.5 0.7125 0.215813
0.96969 0.5 -0.7125 0.225139
1.18772 0.5 -0.196842 0.338567
1.18772 0.5 0.196842 0.332062
0.756814 0.5 -0.9375 0.179064
0.756814 0.5 0.9375 0.171479
0 0.5 1.20618 0.136874
0 0.5 -1.20618 0.142838
1.00005 0.5 -0.674378 0.233679
1.00005 0.5 0.674378 0.224091
0.0124865 0.5 1.20618 0.136874
0.0124865 0.5 -1.20618 0.142838
1.16179 0.5 -0.334552 0.316556
1.16179 0.5 0.334552 0.307177
0.715434 0.5 0.975 0.165513
0.715434 0.5 -0.975 0.172888
0.151149 0.5 -1.2 0.14301
0.151149 0.5 1.2 0.137013
1.20942 0.5 0.0322645 0.351141
1.20942 0.5 -0.0322645 0.352232
1.17463 0.5 -0.298209 0.32459
1.17463 0.5 0.298209 0.315616
1.20942 0.5 -0.0967935 0.351264
1.20942 0.5 0.0967935 0.347695
0.350249 0.5 -1.1625 0.146355
0.350249 0.5 1.1625 0.140097
0.67013 0.5 1.0125 0.15987
0.67013 0.5 -1.0125 0.167045
1.11376 0.5 0.485183 0.272259
1.11376 0.5 -0.485183 0.282886
1.18772 0.5 0.262456 0.323824
1.18772 0.5 -0.262456 0.332175
1.10076 0.5 -0.524714 0.274037
1.10076 0.5 0.524714 0.263307
1.20942 0.5 -0.161322 0.347972
1.20942 0.5 0.161322 0.342226
1.08112 0.5 -0.567554 0.262895
1.08112 0.5 0.567554 0.252386
0.624316 0.5 -1.05 0.161677
0.624316 0.5 1.05 0.154671
1.13882 0.5 -0.442383 0.294981
1.13882 0.5 0.442383 0.284278
1.05695 0.5 0.6133 0.240755
1.05695 0.5 -0.6133 0.250953
1.16179 0.5 -0.401463 0.30661
1.16179 0.5 0.401463 0.296005
0.574156 0.5 -1.0875 0.156595
0.574156 0.5 1.0875 0.149748
1.17463 0.5 0.364477 0.304989
1.17463 0.5 -0.364477 0.315391
1.20942 0.5 -0.225851 0.34257
1.20942 0.5 0.225851 0.334766
1.23036 0.5 -1.32995e-17 0.358505
1.2294 0.5 0.0634819 0.355565
1.04168 0.5 -0.656246 0.241316
1.04168 0.5 0.656246 0.231077
1.23036 0.5 -0.0634819 0.358621
1.18772 0.5 0.32807 0.313887
1.18772 0.5 -0.32807 0.323831
0.288069 0.5 -1.2 0.143073
0.288069 0.5 1.2 0.136894
1.23036 0.5 -0.126964 0.356486
1.23036 0.5 0.126964 0.35171
0.075776 0.5 -1.2375 0.140555
0.075776 0.5 1.2375 0.134535
0.523432 0.5 -1.125 0.152025
0.523432 0.5 1.125 0.145311
1.0271 0.5 -0.69963 0.231878
1.0271 0.5 0.69963 0.221709
1.24274 0.5 0.0314313 0.361753
1.24274 0.5 -0.0314313 0.362969
1.20942 0.5 0.29038 0.325481
1.20942 0.5 -0.29038 0.335078
1.11376 0.5 -0.554494 0.27082
1.11376 0.5 0.554494 0.259574
1.23036 0.5 -0.190445 0.352098
1.23036 0.5 0.190445 0.345155
1.24274 0.5 -0.0942942 0.362077
1.24274 0.5 0.0942942 0.35825
1.13882 0.5 0.510442 0.271682
1.13882 0.5 -0.510442 0.283173
0.969689 0.5 -0.7875 0.213526
0.969689 0.5 0.7875 0.204051
1.00005 0.5 -0.749309 0.221627
1.00005 0.5 0.749309 0.211834
0.939201 0.5 -0.825 0.20526
0.939201 0.5 0.825 0.196146
0.90582 0.5 0.8625 0.188657
0.90582 0.5 -0.8625 0.197437
1.17463 0.5 -0.430746 0.304551
1.17463 0.5 0.430746 0.293037
1.10076 0.5 -0.594676 0.261619
1.10076 0.5 0.594676 0.250429
1.18772 0.5 -0.393684 0.313727
1.18772 0.5 0.393684 0.302476
1.24274 0.5 -0.157157 0.358771
1.24274 0.5 0.157157 0.35263
1.16179 0.5 -0.468373 0.2952
1.16179 0.5 0.468373 0.283656
0.467897 0.5 -1.1625 0.147697
0.467897 0.5 1.1625 0.141115
0.872064 0.5 -0.9 0.190056
0.872064 0.5 0.9 0.181581
1.25401 0.5 2.08167e-17 0.365823
0.835106 0.5 0.9375 0.174905
0.835106 0.5 -0.9375 0.18308
1.25401 0.5 -0.0622994 0.365996
1.25401 0.5 0.0622994 0.363355
1.08112 0.5 -0.638498 0.250333
1.08112 0.5 0.638498 0.239479
1.23036 0.5 -0.253927 0.345578
1.23036 0.5 0.253927 0.336661
0.219992 0.5 1.2375 0.133858
0.219992 0.5 -1.2375 0.139961
1.25309 0.5 0.121964 0.358852
1.05695 0.5 0.685452 0.227879
1.05695 0.5 -0.685452 0.238345
0.797732 0.5 0.975 0.168618
0.797732 0.5 -0.975 0.176538
1.25401 0.5 -0.124599 0.363895
1.20942 0.5 -0.354909 0.32569
1.20942 0.5 0.354909 0.314562
1.24274 0.5 -0.220019 0.353327
1.24274 0.5 0.220019 0.344976
0.756814 0.5 -1.0125 0.170354
0.756813 0.5 1.0125 0.16267
1.25401 0.5 -0.186898 0.359502
1.25401 0.5 0.186898 0.352171
0.411736 0.5 -1.2 0.143953
0.411736 0.5 1.2 0.137479
0 0.5 -1.26882 0.138271
0 0.5 1.26882 0.132206
0.0124865 0.5 1.26882 0.132206
0.0124865 0.5 -1.26882 0.138271
0.715434 0.5 -1.05 0.164627
0.715434 0.5 1.05 0.157151
1.23036 0.5 -0.31741 0.337023
1.23036 0.5 0.31741 0.326403
1.04168 0.5 -0.729162 0.228708
1.04168 0.5 0.729162 0.218257
1.18772 0.5 -0.459298 0.302105
1.18772 0.5 0.459298 0.289855
1.24274 0.5 -0.282882 0.345723
1.24274 0.5 0.282882 0.33545
0 0.5 -1.275 0.13782
0 0.5 1.275 0.131746
1.27472 0.5 -0.0306319 0.37374
1.27472 0.5 0.0306319 0.372458
1.17463 0.5 0.497015 0.280028
1.17463 0.5 -0.497015 0.292375
1.11376 0.5 -0.623806 0.257939
1.11376 0.5 0.623806 0.24633
1.13882 0.5 -0.578501 0.270369
1.13882 0.5 0.578501 0.258364
0.67013 0.5 -1.0875 0.159214
0.67013 0.5 1.0875 0.151942
1.27472 0.5 -0.0918959 0.372906
1.27472 0.5 0.0918959 0.367271
1.25401 0.5 -0.249197 0.352943
1.25401 0.5 0.249197 0.343521
1.16179 0.5 -0.535284 0.282627
1.16179 0.5 0.535284 0.270409
1.20942 0.5 -0.419438 0.314598
1.20942 0.5 0.419438 0.302263
0 0.5 -1.28118 0.13737
0 0.5 1.28118 0.131287
0.0124865 0.5 1.28118 0.131287
0.0124865 0.5 -1.28118 0.13737
1.27472 0.5 0.15316 0.36308
1.27472 0.5 -0.15316 0.369603
0.151149 0.5 -1.275 0.13749
0.151149 0.5 1.275 0.131375
1.0271 0.5 0.773275 0.208979
1.0271 0.5 -0.773275 0.219304
1.10076 0.5 0.664638 0.237129
1.10076 0.5 -0.664638 0.248571
0.350249 0.5 -1.2375 0.140413
0.350249 0.5 1.2375 0.134046
0.624316 0.5 -1.125 0.154242
0.624316 0.5 1.125 0.147134
1.23036 0.5 0.380892 0.314601
1.23036 0.5 -0.380892 0.326624
1.24274 0.5 -0.345745 0.336156
1.24274 0.5 0.345745 0.32424
1.2906 0.5 0 0.378715
1.2906 0.5 -0.0604698 0.378984
1.2906 0.5 0.0604698 0.376217
1.25401 0.5 -0.311497 0.344301
1.25401 0.5 0.311497 0.333076
1.27472 0.5 -0.214423 0.364121
1.27472 0.5 0.214423 0.355247
1.08112 0.5 0.709442 0.226287
1.08112 0.5 -0.709442 0.23734
1.00005 0.5 -0.824239 0.209442
1.00005 0.5 0.824239 0.199555
1.2906 0.5 -0.12094 0.376942
1.2906 0.5 0.12094 0.371448
0.574156 0.5 -1.1625 0.149541
0.574156 0.5 1.1625 0.142592
0.969689 0.5 -0.8625 0.201853
0.96969 0.5 0.8625 0.192332
1.18772 0.5 0.524912 0.276304
1.18772 0.5 -0.524912 0.289267
1.05695 0.5 -0.757605 0.225484
1.05695 0.5 0.757605 0.214867
0.939201 0.5 -0.9 0.194134
0.939201 0.5 0.9 0.184967
1.30091 0.5 -0.0299772 0.382967
1.30091 0.5 0.0299772 0.381616
1.20942 0.5 -0.483967 0.302077
1.20942 0.5 0.483967 0.288862
1.17463 0.5 -0.563284 0.27916
1.17463 0.5 0.563284 0.266254
1.2906 0.5 -0.181409 0.372543
1.2906 0.5 0.181409 0.364557
0.90582 0.5 0.9375 0.17799
0.90582 0.5 -0.9375 0.186835
1.30091 0.5 -0.0899316 0.382189
1.30091 0.5 0.0899316 0.375874
1.27472 0.5 0.275687 0.345494
1.27472 0.5 -0.275687 0.356418
0.288069 0.5 -1.275 0.13733
0.288069 0.5 1.275 0.131044
0.872064 0.5 -0.975 0.179988
0.872064 0.5 0.975 0.171465
1.23036 0.5 -0.444373 0.314609