# UMean  POINT_DATA 63140
# x  y  z  UMean_x  UMean_y  UMean_z
0 0.1 0 0.984808 0 0.173648
0 0.1 -0.0179898 0.984808 0 0.173648
0 0.1 0.0179898 0.984808 0 0.173648
0.0363518 0.1 0.0179898 0.987751 0.0074287 0.173927
0.0363518 0.1 -0.0179898 0.98772 0.00741982 0.173524
0 0.1 -0.0570102 0.984808 0 0.173648
0 0.1 0.0570102 0.984808 0 0.173648
0.0363518 0.1 0.0570102 0.987751 0.0074287 0.173927
0.0363518 0.1 -0.0570102 0.98772 0.00741982 0.173524
0 0.1 -0.075 0.984808 0 0.173648
0 0.1 0.075 0.984808 0 0.173648
0.075776 0.1 -0.0375 0.990922 0.0155939 0.173387
0.075776 0.1 0.0375 0.990988 0.015612 0.174227
0 0.1 -0.0929898 0.984808 0 0.173648
0 0.1 0.0929898 0.984808 0 0.173648
0.0363518 0.1 -0.0929898 0.987653 0.00738695 0.173111
0.0363518 0.1 0.0929898 0.987731 0.00740915 0.174334
0 0.1 -0.13201 0.984808 0 0.173648
0 0.1 0.13201 0.984808 0 0.173648
0.075776 0.1 -0.1125 0.990783 0.0155273 0.172526
0.075776 0.1 0.1125 0.990947 0.015572 0.175076
0.0363518 0.1 -0.13201 0.987653 0.00738695 0.173111
0.0363518 0.1 0.13201 0.987731 0.00740915 0.174334
0 0.1 -0.15 0.984808 0 0.173648
0 0.1 0.15 0.984808 0 0.173648
0.150379 0.1 -2.22623e-17 0.993084 0.0150552 0.173755
0 0.1 -0.16799 0.984808 0 0.173648
0 0.1 0.16799 0.984808 0 0.173648
0.150379 0.1 -0.075 0.993157 0.0150155 0.172296
0.150379 0.1 0.075 0.993114 0.0150567 0.175207
0.0363518 0.1 -0.16799 0.987596 0.00735202 0.172713
0.0363518 0.1 0.16799 0.987682 0.0073725 0.174724
0.075776 0.1 -0.1875 0.990666 0.0154567 0.171696
0.075776 0.1 0.1875 0.990846 0.0154977 0.175889
0 0.1 -0.20701 0.984808 0 0.173648
0 0.1 0.20701 0.984808 0 0.173648
0.0363518 0.1 -0.20701 0.987596 0.00735202 0.172713
0.0363518 0.1 0.20701 0.987682 0.0073725 0.174724
0.150379 0.1 -0.15 0.993334 0.0149613 0.170831
0.150379 0.1 0.15 0.993249 0.0150189 0.176648
0.219993 0.1 -0.0375 0.995167 0.014521 0.172684
0.219993 0.1 0.0375 0.995071 0.014552 0.174728
0 0.1 -0.225 0.984808 0 0.173648
0 0.1 0.225 0.984808 0 0.173648
0 0.1 -0.24299 0.984808 0 0.173648
0 0.1 0.24299 0.984808 0 0.173648
0.0363518 0.1 0.24299 0.987627 0.00733566 0.175097
0.0363518 0.1 -0.24299 0.987554 0.00732155 0.172336
0.219993 0.1 -0.1125 0.99555 0.0144775 0.170645
0.219993 0.1 0.1125 0.995257 0.014548 0.176745
0.150379 0.1 -0.225 0.993553 0.0149082 0.169401
0.150379 0.1 0.225 0.993474 0.0149594 0.17807
0.075776 0.1 -0.2625 0.990581 0.0153945 0.17091
0.075776 0.1 0.2625 0.990732 0.0154231 0.176667
0 0.1 -0.28201 0.984808 0 0.173648
0 0.1 0.28201 0.984808 0 0.173648
0.0363518 0.1 -0.28201 0.987554 0.00732155 0.172336
0.0363518 0.1 0.28201 0.987627 0.00733566 0.175097
0.287374 0.1 -2.89121e-19 0.992094 0.0140701 0.173524
0.219992 0.1 0.1875 0.995736 0.0145131 0.178776
0.219992 0.1 -0.1875 0.996105 0.0144403 0.168572
0.287374 0.1 -0.075 0.992312 0.0140465 0.170871
0.287374 0.1 0.075 0.992137 0.0140826 0.17616
0 0.1 -0.3 0.984808 0 0.173648
0 0.1 0.3 0.984808 0 0.173648
0 0.1 0.31799 0.984808 0 0.173648
0 0.1 -0.31799 0.984808 0 0.173648
0.0363518 0.1 -0.31799 0.987529 0.00728979 0.17199
0.0363518 0.1 0.31799 0.987589 0.00730358 0.175441
0.287374 0.1 0.15 0.992447 0.0140751 0.178783
0.287374 0.1 -0.15 0.992765 0.0140144 0.168208
0.150379 0.1 -0.3 0.993757 0.0148523 0.168057
0.150379 0.1 0.3 0.993718 0.0148936 0.179435
0.219993 0.1 0.2625 0.996341 0.014458 0.180785
0.219993 0.1 -0.2625 0.9966 0.0143969 0.166599
0.075776 0.1 -0.3375 0.99053 0.0153294 0.17019
0.075776 0.1 0.3375 0.990655 0.0153575 0.177385
0.350249 0.1 -0.0375 0.989242 0.0136198 0.171733
0.350249 0.1 0.0375 0.989165 0.0136301 0.174965
0 0.1 -0.35701 0.984808 0 0.173648
0 0.1 0.35701 0.984808 0 0.173648
0.0363518 0.1 -0.35701 0.987529 0.00728979 0.17199
0.0363518 0.1 0.35701 0.987589 0.00730358 0.175441
0.287374 0.1 -0.225 0.993338 0.0139652 0.165592
0.287374 0.1 0.225 0.992991 0.0140382 0.18139
0.350249 0.1 -0.1125 0.989563 0.0136092 0.16849
0.350249 0.1 0.1125 0.989324 0.013643 0.178166
0 0.1 -0.375 0.984808 0 0.173648
0 0.1 0.375 0.984808 0 0.173648
0 0.1 -0.39299 0.984808 0 0.173648
0 0.1 0.39299 0.984808 0 0.173648
0.0363518 0.1 -0.39299 0.987519 0.00726033 0.171673
0.0363518 0.1 0.39299 0.987563 0.00727184 0.175748
0.350249 0.1 -0.1875 0.990119 0.0135717 0.165245
0.350249 0.1 0.1875 0.989745 0.0136382 0.181356
0.219992 0.1 -0.3375 0.997031 0.0143434 0.164753
0.219992 0.1 0.3375 0.996875 0.0143896 0.182684
0.150379 0.1 0.375 0.993952 0.0148247 0.180708
0.150379 0.1 -0.375 0.993962 0.0147922 0.166811
0.411108 0.1 4.33681e-19 0.984008 0.0138933 0.173022
0.287374 0.1 -0.3 0.993926 0.0138937 0.163111
0.287374 0.1 0.3 0.993645 0.0139684 0.183917
0.411108 0.1 -0.075 0.984241 0.0138801 0.16911
0.411108 0.1 0.075 0.984059 0.0139034 0.176918
0.075776 0.1 -0.4125 0.990511 0.0152695 0.169528
0.075776 0.1 0.4125 0.990603 0.0152926 0.178025
0 0.1 0.43201 0.984808 0 0.173648
0 0.1 -0.43201 0.984808 0 0.173648
0.0363518 0.1 0.43201 0.987563 0.00727184 0.175748
0.0363518 0.1 -0.43201 0.987519 0.00726033 0.171673
0.411108 0.1 -0.15 0.984756 0.0138502 0.165221
0.411108 0.1 0.15 0.984399 0.0139043 0.180778
0.350249 0.1 -0.2625 0.990802 0.0134938 0.162123
0.350249 0.1 0.2625 0.990417 0.0135849 0.184502
0 0.1 -0.45 0.984808 0 0.173648
0 0.1 0.45 0.984808 0 0.173648
0.219992 0.1 0.4125 0.997379 0.0143134 0.184466
0.219992 0.1 -0.4125 0.997468 0.0142817 0.16305
0 0.1 -0.46799 0.984808 0 0.173648
0 0.1 0.46799 0.984808 0 0.173648
0.411108 0.1 -0.225 0.985509 0.0137847 0.161427
0.411108 0.1 0.225 0.985041 0.0138714 0.184579
0.467897 0.1 -0.0375 0.97908 0.0141439 0.170425
0.467897 0.1 0.0375 0.978979 0.014154 0.174991
0.0363518 0.1 0.46799 0.987554 0.00724407 0.176025
0.0363518 0.1 -0.46799 0.987532 0.00723325 0.171374
0.287374 0.1 -0.375 0.994521 0.0138014 0.160806
0.287374 0.1 0.375 0.994321 0.0138719 0.186294
0.150379 0.1 0.45 0.99418 0.0147561 0.181863
0.150379 0.1 -0.45 0.994167 0.0147289 0.165675
0.467897 0.1 0.1125 0.979199 0.0141612 0.17952
0.467897 0.1 -0.1125 0.979509 0.0141227 0.165875
0.350249 0.1 -0.3375 0.991534 0.0133847 0.15919
0.350249 0.1 0.3375 0.991215 0.013483 0.187507
0.075776 0.1 -0.4875 0.99054 0.0152143 0.168905
0.075776 0.1 0.4875 0.990585 0.0152362 0.178602
0.467897 0.1 0.1875 0.979758 0.0141499 0.183985
0.467897 0.1 -0.1875 0.980259 0.0140731 0.161409
0 0.1 -0.50701 0.984808 0 0.173648
0 0.1 0.50701 0.984808 0 0.173648
0.0363518 0.1 -0.50701 0.987532 0.00723325 0.171374
0.0363518 0.1 0.50701 0.987554 0.00724407 0.176025
0.411108 0.1 0.3 0.985937 0.0137883 0.188254
0.411108 0.1 -0.3 0.986418 0.0136764 0.157822
0.522865 0.1 1.41031e-17 0.972412 0.0148034 0.172261
0 0.1 -0.525 0.984808 0 0.173648
0 0.1 0.525 0.984808 0 0.173648
0.522865 0.1 -0.075 0.972734 0.0147777 0.166994
0.522865 0.1 0.075 0.972481 0.014811 0.177527
0.287374 0.1 0.45 0.994994 0.0137555 0.188466
0.287374 0.1 -0.45 0.995105 0.0136882 0.158714
0.219992 0.1 0.4875 0.997833 0.0142373 0.186035
0.219992 0.1 -0.4875 0.997824 0.0142058 0.161539
0.467897 0.1 -0.2625 0.981272 0.0139767 0.157113
0.467897 0.1 0.2625 0.980667 0.0140884 0.188339
0.350249 0.1 -0.4125 0.9923 0.0132428 0.156498
0.350249 0.1 0.4125 0.99207 0.013346 0.190283
0 0.1 -0.54299 0.984808 0 0.173648
0 0.1 0.54299 0.984808 0 0.173648
0.522865 0.1 0.15 0.972946 0.0147977 0.18273
0.522865 0.1 -0.15 0.973445 0.014723 0.161802
0.0363518 0.1 0.54299 0.987566 0.0072166 0.176282
0.0363518 0.1 -0.54299 0.987554 0.00720539 0.171101
0.150379 0.1 -0.525 0.994362 0.0146594 0.164656
0.150379 0.1 0.525 0.994389 0.0146859 0.182874
0.411108 0.1 -0.375 0.987423 0.013527 0.154479
0.411108 0.1 0.375 0.986997 0.0136569 0.191709
0.075776 0.1 -0.5625 0.990585 0.0151572 0.168335
0.075776 0.1 0.5625 0.99061 0.0151801 0.179138
0.522865 0.1 -0.225 0.974512 0.0146238 0.15678
0.522865 0.1 0.225 0.973818 0.0147446 0.187815
0.574156 0.1 0.0375 0.965977 0.0154389 0.17482
0.574157 0.1 -0.0375 0.966124 0.0154201 0.168844
0.467897 0.1 -0.3375 0.982462 0.013828 0.153094
0.467897 0.1 0.3375 0.981857 0.0139729 0.192484
0 0.1 -0.58201 0.984808 0 0.173648
0 0.1 0.58201 0.984808 0 0.173648
0.0363518 0.1 -0.58201 0.987554 0.00720539 0.171101
0.0363518 0.1 0.58201 0.987566 0.0072166 0.176282
0.574157 0.1 -0.1125 0.966731 0.0153686 0.162919
0.574157 0.1 0.1125 0.966283 0.0154332 0.180758
0.287374 0.1 -0.525 0.995665 0.0135591 0.156855
0.287374 0.1 0.525 0.995624 0.0136233 0.190386
0 0.1 -0.6 0.984808 0 0.173648
0 0.1 0.6 0.984808 0 0.173648
0.350249 0.1 0.4875 0.992933 0.0131735 0.192803
0.350249 0.1 -0.4875 0.993059 0.0130738 0.154078
0.522865 0.1 -0.3 0.975867 0.0144687 0.152028
0.522865 0.1 0.3 0.975074 0.0146347 0.192702
0.219992 0.1 -0.5625 0.998162 0.0141173 0.160202
0.219992 0.1 0.5625 0.998188 0.0141466 0.187357
0.574156 0.1 -0.1875 0.967781 0.0152735 0.157147
0.574156 0.1 0.1875 0.967051 0.0153909 0.186582
0.411108 0.1 0.45 0.988146 0.0134808 0.194882
0.411108 0.1 -0.45 0.988487 0.0133419 0.151444
0 0.1 -0.61799 0.984808 0 0.173648
0 0.1 0.61799 0.984808 0 0.173648
0.150379 0.1 -0.6 0.994566 0.0145859 0.163751
0.150379 0.1 0.6 0.99459 0.0146097 0.183751
0.0363518 0.1 -0.61799 0.987575 0.0071798 0.170859
0.0363518 0.1 0.61799 0.987586 0.00718885 0.176513
0.467897 0.1 -0.4125 0.983775 0.0136322 0.149409
0.467897 0.1 0.4125 0.983234 0.0138029 0.196333
0.623803 0.1 2.34188e-17 0.958363 0.0164056 0.171287
0.623803 0.1 0.075 0.958451 0.0164123 0.178001
0.623803 0.1 -0.075 0.958819 0.0163562 0.16459
0.574156 0.1 0.2625 0.968295 0.0152948 0.192228
0.574156 0.1 -0.2625 0.969223 0.0151199 0.15164
0.623803 0.1 0.15 0.959084 0.0163752 0.184629
0.623803 0.1 -0.15 0.959812 0.0162559 0.158023
0.075776 0.1 0.6375 0.990652 0.0151235 0.179618
0.075776 0.1 -0.6375 0.990629 0.0151049 0.167832
0.522865 0.1 -0.375 0.977435 0.0142572 0.147634
0.522865 0.1 0.375 0.976632 0.0144644 0.197294
0 0.1 0.65701 0.984808 0 0.173648
0 0.1 -0.65701 0.984808 0 0.173648
0.0363518 0.1 0.65701 0.987586 0.00718885 0.176513
0.0363518 0.1 -0.65701 0.987575 0.0071798 0.170859
0.350249 0.1 0.5625 0.993757 0.012988 0.195029
0.350249 0.1 -0.5625 0.993828 0.0128946 0.151947
0.623803 0.1 0.225 0.960266 0.0162824 0.191081
0.623803 0.1 -0.225 0.961301 0.0160929 0.15171
0.287374 0.1 -0.6 0.996239 0.0134203 0.155225
0.287374 0.1 0.6 0.99622 0.0134797 0.192048
0.574157 0.1 -0.3375 0.970979 0.014901 0.146499
0.574157 0.1 0.3375 0.969958 0.0151303 0.19758
0.411108 0.1 0.525 0.989324 0.0132715 0.197729
0.411108 0.1 -0.525 0.989587 0.0131328 0.148748
0.67013 0.1 0.0375 0.950844 0.0173595 0.174494
0.67013 0.1 -0.0375 0.951061 0.0173252 0.167031
0.219992 0.1 -0.6375 0.998533 0.0140231 0.159028
0.219993 0.1 0.6375 0.998557 0.0140473 0.188494
0 0.1 -0.675 0.984808 0 0.173648
0 0.1 0.675 0.984808 0 0.173648
0.467897 0.1 -0.4875 0.985165 0.0134008 0.146106
0.467897 0.1 0.4875 0.984713 0.0135798 0.199833
0.67013 0.1 -0.1125 0.951909 0.0172334 0.159659
0.67013 0.1 0.1125 0.951255 0.0173391 0.181918
0.522865 0.1 0.45 0.9784 0.0142341 0.201514
0.522865 0.1 -0.45 0.979158 0.0139983 0.143662
0.150379 0.1 0.675 0.994807 0.01453 0.184507
0.150379 0.1 -0.675 0.994782 0.0145131 0.162965
0.623803 0.1 0.3 0.961975 0.01612 0.197259
0.623803 0.1 -0.3 0.963218 0.0158587 0.145766
0 0.1 -0.69299 0.984808 0 0.173648
0 0.1 0.69299 0.984808 0 0.173648
0.0363518 0.1 -0.69299 0.987592 0.00715803 0.170652
0.0363518 0.1 0.69299 0.987605 0.00716281 0.176712
0.67013 0.1 -0.1875 0.953361 0.0170726 0.152513
0.67013 0.1 0.1875 0.952292 0.0172599 0.18919
0.574156 0.1 0.4125 0.971941 0.0149013 0.202557
0.574157 0.1 -0.4125 0.97297 0.0146212 0.141812
0.714971 0.1 -2.8382e-17 0.94245 0.0186128 0.170135
0.075776 0.1 -0.7125 0.990665 0.0150605 0.167401
0.075776 0.1 0.7125 0.990693 0.0150703 0.180032
0.714971 0.1 -0.075 0.94308 0.0185298 0.161932
0.714971 0.1 0.075 0.942554 0.0186224 0.178376
0.67013 0.1 0.2625 0.953962 0.0171082 0.196204
0.67013 0.1 -0.2625 0.955358 0.0168331 0.145731
0.411108 0.1 -0.6 0.990726 0.012908 0.146404
0.411108 0.1 0.6 0.990506 0.0130442 0.200221
0.350249 0.1 0.6375 0.994575 0.0127934 0.196954
0.350249 0.1 -0.6375 0.994627 0.0127055 0.150102
0.623803 0.1 0.375 0.964131 0.0158826 0.203049
0.623803 0.1 -0.375 0.965481 0.0155549 0.140295
0.714971 0.1 -0.15 0.944427 0.0183677 0.153917
0.714971 0.1 0.15 0.943386 0.0185584 0.186511
0.467897 0.1 -0.5625 0.986619 0.0131468 0.143211
0.467897 0.1 0.5625 0.986231 0.0133261 0.202937
0 0.1 -0.73201 0.984808 0 0.173648
0 0.1 0.73201 0.984808 0 0.173648
0.0363518 0.1 0.73201 0.987605 0.00716281 0.176712
0.0363518 0.1 -0.73201 0.987592 0.00715803 0.170652
0.287374 0.1 -0.675 0.996841 0.0132745 0.153824
0.287374 0.1 0.675 0.99683 0.0133272 0.193469
0.522865 0.1 -0.525 0.980993 0.0137057 0.140153
0.522865 0.1 0.525 0.980294 0.013954 0.2053
0.219993 0.1 -0.7125 0.99893 0.0139251 0.158022
0.219992 0.1 0.7125 0.998956 0.0139395 0.189461
0.714971 0.1 -0.225 0.946443 0.018115 0.146244
0.714971 0.1 0.225 0.944943 0.0184141 0.194412
0 0.1 0.75 0.984808 0 0.173648
0 0.1 -0.75 0.984808 0 0.173648
0.67013 0.1 -0.3375 0.957811 0.0165119 0.139429
0.67013 0.1 0.3375 0.956203 0.0168734 0.202854
0.574156 0.1 -0.4875 0.975137 0.0142963 0.137635
0.574157 0.1 0.4875 0.974149 0.014605 0.207068
0.756813 0.1 0.0375 0.934076 0.0198642 0.174042
0.756814 0.1 -0.0375 0.934383 0.0198074 0.165013
0.150379 0.1 0.746002 0.994942 0.0144634 0.185027
0.150379 0.1 -0.75 0.995001 0.0144415 0.162304
0.756813 0.1 -0.1125 0.935522 0.01966 0.156117
0.756813 0.1 0.1125 0.934603 0.0198319 0.183037
0 0.1 0.76799 0.984808 0 0.173648
0 0.1 -0.76799 0.984808 0 0.173648
0.0363518 0.1 0.76799 0.987621 0.00713964 0.176875
0.0363518 0.1 -0.76799 0.987605 0.00713903 0.170481
0.623803 0.1 -0.45 0.968011 0.0151923 0.135379
0.623803 0.1 0.45 0.966631 0.0155725 0.208354
0.714971 0.1 -0.3 0.949044 0.0177721 0.139058
0.714971 0.1 0.3 0.947195 0.018179 0.201957
0.756814 0.1 -0.1875 0.937459 0.019414 0.147521
0.756814 0.1 0.1875 0.93595 0.0197085 0.191837
0.67013 0.1 -0.4125 0.960636 0.0161207 0.133717
0.67013 0.1 0.4125 0.958915 0.0165552 0.20899
0.411108 0.1 0.675 0.991698 0.0128041 0.202349
0.411108 0.1 -0.675 0.9919 0.0126714 0.144417
0.467897 0.1 0.6375 0.987767 0.0130539 0.205618
0.467897 0.1 -0.6375 0.988126 0.0128734 0.140736
0.075776 0.1 0.7875 0.990726 0.0150231 0.180373
0.075776 0.1 -0.7875 0.990692 0.0150218 0.167045
0.350249 0.1 -0.7125 0.995448 0.0125078 0.14855
0.350249 0.1 0.7125 0.995406 0.0125894 0.198579
0.522865 0.1 -0.6 0.982912 0.0133884 0.13713
0.522865 0.1 0.6 0.982253 0.013642 0.208609
0.797314 0.1 -3.59473e-17 0.925133 0.0214642 0.168837
0.287374 0.1 0.746002 0.997453 0.0131886 0.194517
0.797314 0.1 -0.075 0.925972 0.0213359 0.159052
0.797314 0.1 0.075 0.925246 0.0214818 0.178681
0.756814 0.1 -0.2625 0.940116 0.0190532 0.139399
0.756814 0.1 0.2625 0.938109 0.0194877 0.200303
0.287374 0.1 -0.75 0.997457 0.0131239 0.152657
0.574156 0.1 -0.5625 0.977434 0.0139402 0.134004
0.574156 0.1 0.5625 0.976488 0.0142609 0.211058
0 0.1 0.80701 0.984808 0 0.173648
0 0.1 -0.80701 0.984808 0 0.173648
0.714971 0.1 -0.375 0.952136 0.0173451 0.132478
0.714971 0.1 0.375 0.950055 0.0178485 0.209003
0.0363518 0.1 0.80701 0.987621 0.00713964 0.176875
0.0363518 0.1 -0.80701 0.987605 0.00713903 0.170481
0.797314 0.1 -0.15 0.927741 0.0210901 0.149515
0.797314 0.1 0.15 0.926303 0.021389 0.188402
0.623803 0.1 -0.525 0.970738 0.0147862 0.131071
0.623803 0.1 0.525 0.969368 0.0151991 0.2131
0.219992 0.1 0.7875 0.999367 0.0138283 0.190269
0.219992 0.1 -0.7875 0.99933 0.0138226 0.157193
0.149792 0.1 0.80701 0.995193 0.0143908 0.185544
0 0.1 0.825 0.984808 0 0.173648
0 0.1 -0.825 0.984808 0 0.173648
0.797314 0.1 -0.225 0.930377 0.0207175 0.14042
0.797314 0.1 0.225 0.928287 0.0211826 0.197829
0.756813 0.1 -0.3375 0.943391 0.0186074 0.131902
0.756813 0.1 0.3375 0.941028 0.0191577 0.208307
0.67013 0.1 0.4875 0.961983 0.0161618 0.214547
0.67013 0.1 -0.4875 0.963737 0.0156707 0.128664
0.835106 0.1 -0.0375 0.91652 0.0229924 0.162832
0.835106 0.1 0.0375 0.916101 0.0230816 0.1735
0.150379 0.1 -0.825 0.995214 0.0143717 0.161769
0.835106 0.1 -0.1125 0.918004 0.0227743 0.152336
0.835106 0.1 0.1125 0.91675 0.0230382 0.184137
0 0.1 -0.84299 0.984808 0 0.173648
0 0.1 0.84299 0.984808 0 0.173648
0.0363518 0.1 -0.84299 0.987613 0.00712253 0.170346
0.0363518 0.1 0.84299 0.987632 0.00711915 0.177002
0.714971 0.1 -0.45 0.955614 0.0168445 0.126604
0.714971 0.1 0.45 0.9534 0.0174303 0.215435
0.411108 0.1 0.746002 0.992893 0.012566 0.203947
0.797314 0.1 -0.3 0.933777 0.0202317 0.131945
0.797314 0.1 0.3 0.931161 0.0208532 0.206808
0.467897 0.1 -0.7125 0.989663 0.0125909 0.138684
0.467897 0.1 0.7125 0.989319 0.0127678 0.207871
0.522865 0.1 0.675 0.984247 0.0133098 0.211422
0.522865 0.1 -0.675 0.984884 0.0130542 0.134603
0.411108 0.1 -0.75 0.993089 0.0124282 0.142789
0.835106 0.1 -0.1875 0.920507 0.0224057 0.142224
0.835107 0.1 0.1875 0.918449 0.0228669 0.194538
0.286844 0.1 0.80701 0.997935 0.0130478 0.195402
0.574156 0.1 0.6375 0.978898 0.0138868 0.214489
0.574157 0.1 -0.6375 0.979818 0.0135588 0.130939
0.350249 0.1 -0.7875 0.996276 0.0123082 0.147291
0.350249 0.1 0.7875 0.996242 0.0123819 0.199902
0.756813 0.1 -0.4125 0.947175 0.0180623 0.125133
0.756814 0.1 0.4125 0.94457 0.0187225 0.215659
0.623803 0.1 -0.6 0.973602 0.0143488 0.127401
0.623803 0.1 0.6 0.972249 0.0147789 0.217231
0.075776 0.1 0.8625 0.990749 0.0149813 0.180638
0.075776 0.1 -0.8625 0.990711 0.0149882 0.166764
0.871687 0.1 -3.2767e-18 0.906882 0.0249398 0.16742
0.287374 0.1 -0.825 0.99807 0.0129721 0.151724
0.871687 0.1 -0.075 0.907955 0.0247491 0.155988
0.871687 0.1 0.075 0.906999 0.0249717 0.178935
0.67013 0.1 -0.5625 0.967045 0.0151822 0.124319
0.67013 0.1 0.5625 0.965284 0.0157059 0.219439
0.835106 0.1 0.2625 0.921167 0.0225589 0.204532
0.835106 0.1 -0.2625 0.92393 0.0218955 0.132717
0.797314 0.1 -0.375 0.937825 0.0196426 0.124225
0.797314 0.1 0.375 0.934822 0.0204002 0.215173
0 0.1 -0.88201 0.984808 0 0.173648
0 0.1 0.88201 0.984808 0 0.173648
0.0363518 0.1 0.88201 0.987632 0.00711915 0.177002
0.0363518 0.1 -0.88201 0.987613 0.00712253 0.170346
0.871687 0.1 0.15 0.908297 0.0248452 0.190307
0.871687 0.1 -0.15 0.910189 0.0243922 0.144869
0.714971 0.1 0.525 0.957104 0.0169352 0.22117
0.714971 0.1 -0.525 0.959382 0.0162917 0.121504
0.219993 0.1 0.8625 0.999773 0.0137169 0.190911
0.219992 0.1 -0.8625 0.99972 0.0137211 0.15654
0 0.1 0.9 0.984808 0 0.173648
0 0.1 -0.9 0.984808 0 0.173648
0.756813 0.1 0.4875 0.948601 0.0182007 0.222303
0.756814 0.1 -0.4875 0.951345 0.0174519 0.119202
0.871687 0.1 0.225 0.910744 0.0245611 0.201324
0.871687 0.1 -0.225 0.913503 0.0238682 0.134298
0.835106 0.1 -0.3375 0.928153 0.021274 0.123985
0.835106 0.1 0.3375 0.924846 0.0221036 0.213941
0.41063 0.1 0.80701 0.993819 0.0123636 0.20521
0.90582 0.1 -0.0375 0.897977 0.0267156 0.16051
0.905821 0.1 0.0375 0.897439 0.0268512 0.172877
0.522865 0.1 0.746002 0.986227 0.0129754 0.213547
0.150379 0.1 0.9 0.995467 0.0142953 0.186061
0.90582 0.1 0.1125 0.898214 0.0267969 0.185219
0.905821 0.1 -0.1125 0.899821 0.0263979 0.148359
0.522865 0.1 -0.75 0.986873 0.0127111 0.132573
0.574156 0.1 0.7125 0.98134 0.0134947 0.21735
0.574156 0.1 -0.7125 0.982243 0.0131638 0.128446
0.797314 0.1 -0.45 0.94239 0.0189632 0.117377
0.797314 0.1 0.45 0.939123 0.0198383 0.222776
0.467897 0.1 -0.7875 0.991205 0.0123018 0.137053
0.467897 0.1 0.7875 0.990875 0.0124745 0.209693
0.150379 0.1 -0.903998 0.9955 0.0142967 0.161278
0 0.1 0.91799 0.984808 0 0.173648
0 0.1 -0.91799 0.984808 0 0.173648
0.0363518 0.1 0.91799 0.987639 0.00710122 0.177094
0.0363518 0.1 -0.91799 0.987619 0.0071078 0.170246
0.623803 0.1 0.675 0.975204 0.0143295 0.220719
0.623803 0.1 -0.675 0.976544 0.013891 0.124383
0.411108 0.1 -0.825 0.994271 0.0121836 0.141515
0.871687 0.1 0.3 0.914285 0.0241132 0.211792
0.871687 0.1 -0.3 0.917783 0.023198 0.124483
0.67013 0.1 -0.6375 0.970477 0.0146637 0.120703
0.67013 0.1 0.6375 0.968719 0.015204 0.22362
0.90582 0.1 -0.1875 0.902913 0.0258784 0.136684
0.90582 0.1 0.1875 0.900275 0.0265611 0.197278
0.350249 0.1 0.8625 0.997073 0.0121707 0.200942
0.350249 0.1 -0.8625 0.997091 0.0121089 0.146317
0.835106 0.1 -0.4125 0.933029 0.0205358 0.116137
0.835106 0.1 0.4125 0.929324 0.0215166 0.222594
0.714971 0.1 -0.6 0.963346 0.0157031 0.117214
0.714971 0.1 0.6 0.961038 0.0163779 0.226132
0.93886 0.1 -1.15648e-17 0.888018 0.0293027 0.165912
0.075776 0.1 0.9375 0.990765 0.0149448 0.18083
0.075776 0.1 -0.9375 0.990724 0.0149583 0.166556
0.93886 0.1 0.075 0.888134 0.0293565 0.179194
0.93886 0.1 -0.075 0.88935 0.0290254 0.152741
0.756813 0.1 0.5625 0.952983 0.0175964 0.228117
0.756814 0.1 -0.5625 0.9558 0.0167951 0.114157
0.905821 0.1 -0.2625 0.907135 0.0251857 0.125739
0.905821 0.1 0.2625 0.903573 0.0261422 0.20885
0.287374 0.1 0.9 0.998691 0.0128463 0.196347
0.287374 0.1 -0.903998 0.998585 0.0128168 0.150963
0.871687 0.1 0.375 0.918806 0.0235067 0.221524
0.871687 0.1 -0.375 0.922881 0.0223976 0.115593
0.93886 0.1 -0.15 0.892093 0.0285216 0.139956
0.93886 0.1 0.15 0.889687 0.029187 0.192307
0.797314 0.1 0.525 0.943912 0.0191812 0.229514
0.797314 0.1 -0.525 0.947345 0.0182196 0.111492
0 0.1 0.95701 0.984808 0 0.173648
0 0.1 -0.95701 0.984808 0 0.173648
0.0363518 0.1 0.95701 0.987639 0.00710122 0.177094
0.0363518 0.1 -0.95701 0.987619 0.0071078 0.170246
0.522433 0.1 0.80701 0.987781 0.0126985 0.215166
0.219992 0.1 0.9375 1.00016 0.0136082 0.191384
0.219992 0.1 -0.9375 1.00009 0.0136184 0.156059
0.93886 0.1 0.225 0.892631 0.0288009 0.204996
0.93886 0.1 -0.225 0.89615 0.0278019 0.127834
0.90582 0.1 0.3375 0.908025 0.0255368 0.219706
0.905821 0.1 -0.3375 0.91236 0.024335 0.115699
0.835106 0.1 -0.4875 0.938425 0.0197184 0.109324
0.835107 0.1 0.4875 0.934445 0.0208183 0.230318
0.969689 0.1 -0.0375 0.8789 0.0316532 0.158052
0.969689 0.1 0.0375 0.87822 0.031852 0.172248
0.61613 0.1 0.75 0.978182 0.0138642 0.223557
0.574156 0.1 -0.7875 0.984659 0.0127626 0.126515
0.574156 0.1 0.7875 0.983781 0.0130925 0.219641
0 0.1 0.975 0.984808 0 0.173648
0 0.1 -0.975 0.984808 0 0.173648
0.623803 0.1 -0.75 0.979501 0.0134236 0.122012
0.969689 0.1 -0.1125 0.88116 0.0311985 0.144125
0.969689 0.1 0.1125 0.879128 0.0317865 0.186423
0.522865 0.1 -0.825 0.98884 0.0123651 0.131027
0.67013 0.1 0.7125 0.972215 0.0146793 0.227072
0.67013 0.1 -0.7125 0.973963 0.0141326 0.117822
0.871687 0.1 -0.45 0.928632 0.0214911 0.107771
0.871687 0.1 0.45 0.924142 0.0227612 0.230328
0.467897 0.1 0.8625 0.992414 0.012176 0.211104
0.467897 0.1 -0.8625 0.992719 0.0120152 0.135832
0.714971 0.1 -0.675 0.967412 0.015093 0.11375
0.714971 0.1 0.675 0.965094 0.0157808 0.230287
0.93886 0.1 -0.3 0.90139 0.0268903 0.116608
0.93886 0.1 0.3 0.896891 0.0282018 0.217024
0.150379 0.1 0.975 0.995664 0.0142239 0.186338
0.150379 0.1 -0.975 0.995605 0.014237 0.161072
0.969689 0.1 -0.1875 0.884923 0.0304796 0.130778
0.969689 0.1 0.1875 0.881587 0.0314653 0.200258
0.411108 0.1 0.9 0.995272 0.0120475 0.206573
0.756813 0.1 0.6375 0.957563 0.0169346 0.233049
0.756814 0.1 -0.6375 0.960423 0.0161107 0.110027
0.990306 0.1 -2.19732e-17 0.873083 0.0331513 0.164677
0 0.1 0.99299 0.984808 0 0.173648
0 0.1 -0.99299 0.984808 0 0.173648
0.411108 0.1 -0.903998 0.995272 0.0119607 0.14054
0.990306 0.1 -0.075 0.874625 0.0327966 0.150146
0.990306 0.1 0.075 0.8732 0.0332278 0.179338
0.0363518 0.1 0.99299 0.987643 0.00708618 0.177153
0.0363518 0.1 -0.99299 0.987623 0.00709474 0.170181
0.90582 0.1 -0.4125 0.918399 0.0233506 0.106791
0.905821 0.1 0.4125 0.913478 0.0247634 0.229678
0.797314 0.1 -0.6 0.952559 0.017435 0.106609
0.797314 0.1 0.6 0.949024 0.0184457 0.235309
0.350249 0.1 0.9375 0.99788 0.0119633 0.201701
0.350249 0.1 -0.9375 0.997879 0.011907 0.14562
0.990306 0.1 0.15 0.874961 0.0330259 0.193814
0.990306 0.1 -0.15 0.877785 0.0321652 0.136057
0.969689 0.1 -0.2625 0.890055 0.029538 0.118296
0.969689 0.1 0.2625 0.885534 0.0308998 0.213505
0.835106 0.1 -0.5625 0.944187 0.0188357 0.103593
0.835106 0.1 0.5625 0.940033 0.0200201 0.237057
0.93886 0.1 -0.375 0.907636 0.0258159 0.106491
0.93886 0.1 0.375 0.902343 0.0274002 0.228175
0.075776 0.1 1.0125 0.990773 0.0149141 0.180952
0.075776 0.1 -1.0125 0.990731 0.0149316 0.166419
0.990306 0.1 -0.225 0.882451 0.0312764 0.122715
0.990306 0.1 0.225 0.878312 0.0325568 0.207811
0.287374 0.1 0.975 0.999277 0.012689 0.196858
0.287374 0.1 -0.975 0.999236 0.0126652 0.150536
0.871687 0.1 -0.525 0.934868 0.0205077 0.101106
0.871687 0.1 0.525 0.930097 0.0218972 0.238083
1.02149 0.1 -0.0369628 0.862343 0.0360953 0.155956
1.02149 0.1 0.0369628 0.861562 0.0363506 0.171419
0.969689 0.1 -0.3375 0.896409 0.0283834 0.106894
0.969689 0.1 0.3375 0.89086 0.0300975 0.225902
1.02149 0.1 -0.110888 0.86489 0.0355325 0.14079
1.02149 0.1 0.110888 0.862559 0.0362919 0.186869
0.90582 0.1 0.4875 0.919741 0.0238457 0.238513
0.90582 0.1 -0.4875 0.925058 0.022272 0.0990977
0.623803 0.1 0.819003 0.980247 0.0135228 0.226093
0 0.1 1.03201 0.984808 0 0.173648
0 0.1 -1.03201 0.984808 0 0.173648
0.0363518 0.1 1.03201 0.987643 0.00708618 0.177153
0.0363518 0.1 -1.03201 0.987623 0.00709474 0.170181
0.67013 0.1 -0.7875 0.977427 0.0135959 0.115657
0.67013 0.1 0.7875 0.975711 0.0141423 0.2298
0.623803 0.1 -0.825 0.982415 0.0129535 0.120269
0.990306 0.1 -0.3 0.888477 0.0301564 0.110381
0.990306 0.1 0.3 0.883162 0.0318324 0.221064
0.219992 0.1 -1.0125 1.00044 0.0135136 0.155744
0.219993 0.1 1.0125 1.00052 0.0135019 0.191693
0.574156 0.1 0.8625 0.986184 0.0126832 0.221384
0.574157 0.1 -0.8625 0.987023 0.0123605 0.125125
0.714971 0.1 -0.75 0.971487 0.0144735 0.111101
0.714971 0.1 0.75 0.969188 0.0151639 0.233627
1.02149 0.1 0.184814 0.865288 0.0359255 0.201961
1.02149 0.1 -0.184814 0.869125 0.0346668 0.126254
0.756814 0.1 -0.7125 0.965103 0.0154102 0.106811
0.756814 0.1 0.7125 0.962237 0.0162407 0.23708
0.522865 0.1 0.9 0.990196 0.0122592 0.216903
0.93886 0.1 -0.45 0.914677 0.0246157 0.0976285
0.93886 0.1 0.45 0.908796 0.0264183 0.238237
1.04168 0.1 0 0.855052 0.03829 0.163135
1.04168 0.1 -0.0729162 0.856765 0.0378481 0.147362
1.04168 0.1 0.0729162 0.855148 0.0384022 0.179054
0.522865 0.1 -0.903998 0.990514 0.0120567 0.12991
0.797314 0.1 -0.675 0.957895 0.0166313 0.102743
0.797314 0.1 0.675 0.954311 0.0176597 0.240119
0.467897 0.1 0.9375 0.993909 0.0118793 0.212116
0.467897 0.1 -0.9375 0.994178 0.0117242 0.134997
0 0.1 1.05 0.984808 0 0.173648
0 0.1 -1.05 0.984808 0 0.173648
0.835106 0.1 -0.6375 0.95016 0.0179284 0.0989862
0.835106 0.1 0.6375 0.945894 0.0191491 0.242727
1.04168 0.1 -0.145832 0.860245 0.0370831 0.132062
1.04168 0.1 0.145832 0.857036 0.0381838 0.194788
1.02149 0.1 -0.25874 0.874906 0.0335388 0.112639
1.02149 0.1 0.25874 0.869678 0.0352694 0.216422
0.969689 0.1 -0.4125 0.903746 0.0270835 0.0968092
0.969689 0.1 0.4125 0.897411 0.029078 0.237247
0.411108 0.1 0.975 0.996403 0.0117972 0.2073
0.411108 0.1 -0.975 0.996526 0.0116901 0.139972
0.871687 0.1 -0.6 0.941423 0.0194786 0.0956535
0.871687 0.1 0.6 0.93646 0.0209378 0.244715
1.0579 0.1 -0.0360525 0.850075 0.0398127 0.154417
1.0579 0.1 0.0360525 0.849223 0.0401129 0.170675
0.990306 0.1 -0.375 0.895661 0.0288464 0.0992888
0.990306 0.1 0.375 0.889374 0.0308676 0.233331
0.150379 0.1 1.05 0.995844 0.0141561 0.1865
0.150379 0.1 -1.05 0.99578 0.0141714 0.1609
1.0579 0.1 0.108157 0.850205 0.0400663 0.186929
1.0579 0.1 -0.108157 0.85275 0.0391714 0.138469
1.04168 0.1 -0.218749 0.865384 0.0360201 0.117549
1.04168 0.1 0.218749 0.860659 0.0376479 0.210019
0.90582 0.1 -0.5625 0.932149 0.0211246 0.0926976
0.90582 0.1 0.5625 0.926557 0.0228106 0.246206
0 0.1 -1.06799 0.984808 0 0.173648
0 0.1 1.06799 0.984808 0 0.173648
0.0363518 0.1 -1.06799 0.987625 0.00708384 0.170148
0.0363518 0.1 1.06799 0.987644 0.00707375 0.177179
0.350249 0.1 1.0125 0.998649 0.0117608 0.202195
0.350249 0.1 -1.0125 0.998633 0.0117032 0.145186
1.0579 0.1 -0.180262 0.857176 0.0382007 0.123172
1.0579 0.1 0.180262 0.852978 0.0396774 0.202823
1.02149 0.1 -0.332665 0.882066 0.0321634 0.100204
1.02149 0.1 0.332665 0.875604 0.0343384 0.229973
0.93886 0.1 -0.525 0.922312 0.0233197 0.0901508
0.93886 0.1 0.525 0.916006 0.025286 0.247081
1.08012 0.1 5.49329e-18 0.841705 0.0426069 0.161891
1.04168 0.1 -0.291665 0.87203 0.0346859 0.104105
1.04168 0.1 0.291665 0.865918 0.0368127 0.224468
1.08012 0.1 0.0709941 0.84176 0.0427515 0.178658
1.08012 0.1 -0.0709941 0.843518 0.0420983 0.14528
0.969689 0.1 -0.4875 0.911846 0.025654 0.0880714
0.96969 0.1 0.4875 0.904929 0.0278679 0.247309
1.0579 0.1 0.252367 0.857473 0.038967 0.218074
1.0579 0.1 -0.252367 0.863215 0.0369402 0.108818
0.990306 0.1 -0.45 0.903771 0.0273894 0.0895995
0.990306 0.1 0.45 0.896732 0.0296852 0.244394
0.287374 0.1 -1.05 0.999774 0.0125113 0.150258
0.287374 0.1 1.05 0.999828 0.012534 0.197163
0.714971 0.1 0.821002 0.972887 0.0145964 0.236127
1.08012 0.1 -0.141988 0.847159 0.0412359 0.129155
1.08012 0.1 0.141988 0.843665 0.0425311 0.195246
0.075776 0.1 1.0875 0.990776 0.0148888 0.181007
0.075776 0.1 -1.0875 0.990737 0.0149094 0.16635
0.714971 0.1 -0.825 0.975486 0.013856 0.109235
0.756813 0.1 -0.7875 0.969736 0.0147067 0.104484
0.756814 0.1 0.7875 0.966907 0.0155345 0.240214
0.67013 0.1 -0.8625 0.980799 0.0130607 0.114178
0.67013 0.1 0.8625 0.979145 0.013601 0.231832
0.797314 0.1 -0.75 0.963223 0.0158253 0.0998732
0.797314 0.1 0.75 0.959653 0.0168489 0.243936
0.623803 0.1 0.9 0.984014 0.0129158 0.227351
0.835106 0.1 -0.7125 0.956189 0.0170129 0.0954871
0.835106 0.1 0.7125 0.951887 0.0182386 0.247313
0.623803 0.1 -0.903998 0.984904 0.0125412 0.119085
0.574156 0.1 0.9375 0.98851 0.0122758 0.222601
0.574156 0.1 -0.9375 0.989294 0.0119628 0.124243
1.02149 0.1 -0.406591 0.890353 0.0306104 0.0891807
1.02149 0.1 0.406591 0.882901 0.0331521 0.242387
1.08012 0.1 -0.212982 0.852526 0.0400468 0.113835
1.08012 0.1 0.212982 0.847366 0.0419584 0.211326
1.10076 0.1 -0.0349809 0.834409 0.0450621 0.152648
1.10076 0.1 0.0349809 0.833502 0.045416 0.16989
0.871687 0.1 -0.675 0.948122 0.0184378 0.0914308
0.871687 0.1 0.675 0.943052 0.0199157 0.250166
1.04168 0.1 -0.364581 0.879978 0.0331235 0.0919835
1.04168 0.1 0.364581 0.872672 0.0356966 0.237874
1.10076 0.1 -0.104943 0.837212 0.0443279 0.135719
1.10076 0.1 0.104943 0.834503 0.0453853 0.187138
0.522865 0.1 0.975 0.99207 0.0119095 0.217802
0.522865 0.1 -0.975 0.992574 0.0116764 0.129294