# UMean  POINT_DATA 63840
# x  y  z  UMean_x  UMean_y  UMean_z
0 0.5 3.39583e-17 0.984808 0 0.173648
0 0.5 -0.00617931 0.984808 0 0.173648
0 0.5 0.00617931 0.984808 0 0.173648
0.0124865 0.5 -0.00617931 0.984774 0.000929583 0.173615
0.0124865 0.5 0.00617931 0.984775 0.000929765 0.173735
0 0.5 -0.0688207 0.984808 0 0.173648
0 0.5 0.0688207 0.984808 0 0.173648
0.0124865 0.5 -0.0688207 0.984774 0.000929583 0.173615
0.0124865 0.5 0.0688207 0.984775 0.000929765 0.173735
0 0.5 -0.075 0.984808 0 0.173648
0 0.5 0.075 0.984808 0 0.173648
0 0.5 -0.0811793 0.984808 0 0.173648
0 0.5 0.0811793 0.984808 0 0.173648
0.0124865 0.5 -0.0811793 0.984773 0.000925946 0.17349
0.0124865 0.5 0.0811793 0.984774 0.000926491 0.173859
0.075776 0.5 -0.0375 0.984577 0.00563514 0.173449
0.075776 0.5 0.0375 0.984582 0.00563618 0.174176
0.075776 0.5 -0.1125 0.984567 0.00561296 0.172695
0.075776 0.5 0.1125 0.984575 0.00561617 0.174925
0 0.5 -0.143821 0.984808 0 0.173648
0 0.5 0.143821 0.984808 0 0.173648
0.0124865 0.5 -0.143821 0.984773 0.000925946 0.17349
0.0124865 0.5 0.143821 0.984774 0.000926491 0.173859
0 0.5 -0.15 0.984808 0 0.173648
0 0.5 0.15 0.984808 0 0.173648
0.151149 0.5 -0.00137318 0.983361 0.0094548 0.173873
0 0.5 -0.156179 0.984808 0 0.173648
0 0.5 0.156179 0.984808 0 0.173648
0.0124865 0.5 -0.156179 0.984775 0.000918384 0.173369
0.0124865 0.5 0.156179 0.984776 0.000919538 0.173979
0.151149 0.5 0.075 0.983361 0.00946898 0.175145
0.151149 0.5 -0.075 0.983349 0.00945928 0.172508
0.075776 0.5 -0.1875 0.984582 0.00556727 0.171965
0.075776 0.5 0.1875 0.984588 0.00557397 0.175647
0.151149 0.5 0.15 0.98339 0.0094207 0.176445
0.151149 0.5 -0.15 0.983373 0.00940135 0.171205
0 0.5 -0.218821 0.984808 0 0.173648
0 0.5 0.218821 0.984808 0 0.173648
0.0124865 0.5 -0.218821 0.984775 0.000918384 0.173369
0.0124865 0.5 0.218821 0.984776 0.000919538 0.173979
0.219992 0.5 0.0375 0.982211 0.0130803 0.174781
0.219993 0.5 -0.0375 0.982201 0.0130725 0.1729
0 0.5 -0.225 0.984808 0 0.173648
0 0.5 0.225 0.984808 0 0.173648
0 0.5 -0.231179 0.984808 0 0.173648
0 0.5 0.231179 0.984808 0 0.173648
0.0124865 0.5 -0.231179 0.984777 0.000907468 0.173253
0.0124865 0.5 0.231179 0.984779 0.000909036 0.174094
0.219992 0.5 0.1125 0.982238 0.0130399 0.176622
0.219993 0.5 -0.1125 0.982214 0.0130142 0.171062
0.151149 0.5 -0.225 0.983428 0.0093104 0.16994
0.151149 0.5 0.225 0.983447 0.00933768 0.177708
0.075776 0.5 -0.2625 0.984596 0.00550118 0.171265
0.075776 0.5 0.2625 0.984604 0.00551015 0.176344
0.288069 0.5 -0.00137318 0.979261 0.0166134 0.173798
0.219992 0.5 0.1875 0.982316 0.0129517 0.178438
0.219993 0.5 -0.1875 0.982289 0.0129117 0.169244
0 0.5 0.293821 0.984808 0 0.173648
0 0.5 -0.293821 0.984808 0 0.173648
0.0124865 0.5 -0.293821 0.984777 0.000907468 0.173253
0.0124865 0.5 0.293821 0.984779 0.000909036 0.174094
0.288069 0.5 -0.075 0.979259 0.0165913 0.171261
0.288069 0.5 0.075 0.979278 0.0166202 0.176166
0 0.5 -0.3 0.984808 0 0.173648
0 0.5 0.3 0.984808 0 0.173648
0 0.5 0.306179 0.984808 0 0.173648
0 0.5 -0.306179 0.984808 0 0.173648
0.0124865 0.5 -0.306179 0.984781 0.000893586 0.173144
0.0124865 0.5 0.306179 0.984783 0.000895426 0.174203
0.288069 0.5 -0.15 0.979358 0.0164824 0.168853
0.288069 0.5 0.15 0.979386 0.0165386 0.178581
0.151149 0.5 -0.3 0.983501 0.00918882 0.168735
0.151149 0.5 0.3 0.983527 0.00922217 0.178914
0.219992 0.5 -0.2625 0.982399 0.0127667 0.167504
0.219992 0.5 0.2625 0.982434 0.0128178 0.180183
0.075776 0.5 0.3375 0.984627 0.00542741 0.177
0.075776 0.5 -0.3375 0.984615 0.00541698 0.170602
0.350249 0.5 -0.0375 0.976452 0.0199646 0.172077
0.350249 0.5 0.0375 0.976464 0.0199849 0.175105
0.288069 0.5 -0.225 0.979538 0.016316 0.166517
0.288069 0.5 0.225 0.97957 0.0163955 0.180931
0.350249 0.5 0.1125 0.976569 0.0199256 0.1781
0.350249 0.5 -0.1125 0.97654 0.0198656 0.169093
0 0.5 0.368821 0.984808 0 0.173648
0 0.5 -0.368821 0.984808 0 0.173648
0.0124865 0.5 -0.368821 0.984781 0.000893586 0.173144
0.0124865 0.5 0.368821 0.984783 0.000895426 0.174203
0 0.5 -0.375 0.984808 0 0.173648
0 0.5 0.375 0.984808 0 0.173648
0 0.5 -0.381179 0.984808 0 0.173648
0 0.5 0.381179 0.984808 0 0.173648
0.0124865 0.5 -0.381179 0.984785 0.000877074 0.173042
0.0124865 0.5 0.381179 0.984787 0.000878933 0.174304
0.350249 0.5 -0.1875 0.976749 0.0196932 0.166173
0.350249 0.5 0.1875 0.976781 0.0197893 0.181037
0.219992 0.5 -0.3375 0.98254 0.0125818 0.165852
0.219992 0.5 0.3375 0.982586 0.0126417 0.181839
0.151149 0.5 -0.375 0.983592 0.00903927 0.167601
0.151149 0.5 0.375 0.983625 0.00907699 0.180047
0.411736 0.5 -0.00137318 0.972266 0.0234146 0.173463
0.288069 0.5 -0.3 0.979786 0.0160955 0.164291
0.288069 0.5 0.3 0.979824 0.0161944 0.183177
0.411736 0.5 -0.075 0.972305 0.0233593 0.169717
0.411736 0.5 0.075 0.972316 0.0234191 0.176965
0.075776 0.5 -0.4125 0.984639 0.00531682 0.169985
0.075776 0.5 0.4125 0.984655 0.00532722 0.17761
0.350249 0.5 -0.2625 0.977066 0.0194528 0.163374
0.350249 0.5 0.2625 0.977099 0.0195795 0.183867
0.411736 0.5 -0.15 0.972535 0.0231859 0.166167
0.411736 0.5 0.15 0.972545 0.0233025 0.180542
0 0.5 -0.443821 0.984808 0 0.173648
0 0.5 0.443821 0.984808 0 0.173648
0.0124865 0.5 -0.443821 0.984785 0.000877074 0.173042
0.0124865 0.5 0.443821 0.984787 0.000878933 0.174304
0 0.5 -0.45 0.984808 0 0.173648
0 0.5 0.45 0.984808 0 0.173648
0 0.5 -0.456179 0.984808 0 0.173648
0 0.5 0.456179 0.984808 0 0.173648
0.0124865 0.5 -0.456179 0.984789 0.000858254 0.172948
0.0124865 0.5 0.456179 0.984793 0.000859956 0.174396
0.219992 0.5 -0.4125 0.982713 0.0123604 0.164312
0.219993 0.5 0.4125 0.982768 0.012427 0.183383
0.411736 0.5 -0.225 0.972927 0.0229239 0.162735
0.411736 0.5 0.225 0.972927 0.0230922 0.184018
0.467897 0.5 0.0375 0.968263 0.0267111 0.175208
0.467897 0.5 -0.0375 0.96826 0.0266716 0.170984
0.288069 0.5 -0.375 0.980095 0.0158248 0.162201
0.288069 0.5 0.375 0.98014 0.0159399 0.185291
0.151149 0.5 -0.45 0.983702 0.00886409 0.166552
0.151149 0.5 0.45 0.983741 0.00890463 0.181094
0.467897 0.5 -0.1125 0.968461 0.0265173 0.166813
0.467897 0.5 0.1125 0.968462 0.0266341 0.179405
0.350249 0.5 0.3375 0.977513 0.0193005 0.186553
0.350249 0.5 -0.3375 0.977475 0.0191481 0.160727
0.075776 0.5 -0.4875 0.984668 0.00520247 0.169419
0.075776 0.5 0.4875 0.984688 0.00521186 0.178167
0.467897 0.5 -0.1875 0.968874 0.0262536 0.162759
0.467897 0.5 0.1875 0.968856 0.0264429 0.183513
0.411736 0.5 -0.3 0.973465 0.0225803 0.159474
0.411736 0.5 0.3 0.973454 0.0227932 0.187341
0 0.5 -0.518821 0.984808 0 0.173648
0 0.5 0.518821 0.984808 0 0.173648
0.0124865 0.5 0.518821 0.984793 0.000859956 0.174396
0.0124865 0.5 -0.518821 0.984789 0.000858254 0.172948
0.523432 0.5 -0.00137318 0.963101 0.0301079 0.172904
0 0.5 -0.525 0.984808 0 0.173648
0 0.5 0.525 0.984808 0 0.173648
0.523432 0.5 -0.075 0.963207 0.0300097 0.167902
0.523432 0.5 0.075 0.963185 0.0301149 0.177589
0 0.5 -0.531179 0.984808 0 0.173648
0 0.5 0.531179 0.984808 0 0.173648
0.0124865 0.5 -0.531179 0.984795 0.000837438 0.172864
0.0124865 0.5 0.531179 0.984799 0.000838796 0.174478
0.288069 0.5 -0.45 0.98046 0.0155077 0.160273
0.288069 0.5 0.45 0.980512 0.0156368 0.187246
0.219992 0.5 -0.4875 0.982914 0.0121045 0.162899
0.219993 0.5 0.4875 0.982976 0.0121764 0.1848
0.467897 0.5 -0.2625 0.969489 0.0258891 0.158872
0.467897 0.5 0.2625 0.969445 0.0261433 0.187475
0.350249 0.5 -0.4125 0.97797 0.0187848 0.158268
0.350249 0.5 0.4125 0.978013 0.0189598 0.189058
0.523432 0.5 -0.15 0.963622 0.0297568 0.16317
0.523432 0.5 0.15 0.963565 0.0299629 0.182378
0.151149 0.5 -0.525 0.983827 0.0086654 0.165598
0.151149 0.5 0.525 0.98387 0.00870747 0.182044
0.411736 0.5 -0.375 0.974133 0.0221611 0.156426
0.411736 0.5 0.375 0.974114 0.0224131 0.190464
0.075776 0.5 -0.5625 0.984702 0.00507579 0.168909
0.075776 0.5 0.5625 0.984726 0.00508296 0.178664
0.523432 0.5 -0.225 0.964302 0.0293797 0.158612
0.523432 0.5 0.225 0.9642 0.0296792 0.187029
0.574156 0.5 -0.0375 0.95816 0.0333376 0.169659
0.574156 0.5 0.0375 0.95814 0.0334037 0.175131
0.467897 0.5 0.3375 0.970215 0.0257424 0.191221
0.467897 0.5 -0.3375 0.970281 0.0254326 0.155221
0.574156 0.5 -0.1125 0.958512 0.0331169 0.16426
0.574156 0.5 0.1125 0.958443 0.0333123 0.180581
0 0.5 -0.593821 0.984808 0 0.173648
0 0.5 0.593821 0.984808 0 0.173648
0.0124865 0.5 -0.593821 0.984795 0.000837438 0.172864
0.0124865 0.5 0.593821 0.984799 0.000838796 0.174478
0.288069 0.5 -0.525 0.980873 0.0151482 0.158527
0.288069 0.5 0.525 0.980927 0.0152896 0.189022
0 0.5 -0.6 0.984808 0 0.173648
0 0.5 0.6 0.984808 0 0.173648
0.350249 0.5 -0.4875 0.97854 0.0183672 0.156024
0.350249 0.5 0.4875 0.978586 0.0185628 0.191354
0.523432 0.5 -0.3 0.965228 0.0288885 0.154294
0.523432 0.5 0.3 0.965077 0.0292714 0.19147
0.219992 0.5 -0.5625 0.983137 0.011817 0.161628
0.219992 0.5 0.5625 0.983203 0.0118926 0.186074
0.574156 0.5 -0.1875 0.959194 0.032749 0.159024
0.574156 0.5 0.1875 0.959059 0.0330662 0.185913
0 0.5 -0.606179 0.984808 0 0.173648
0 0.5 0.606179 0.984808 0 0.173648
0.0124865 0.5 -0.606179 0.984802 0.000815004 0.17279
0.0124865 0.5 0.606179 0.984806 0.000815808 0.17455
0.411736 0.5 -0.45 0.974917 0.0216729 0.15363
0.411736 0.5 0.45 0.974889 0.0219601 0.193351
0.151149 0.5 -0.6 0.983964 0.00844591 0.164749
0.151149 0.5 0.6 0.98401 0.00848817 0.182888
0.62168 0.5 2.64545e-17 0.952529 0.03662 0.17223
0.467897 0.5 0.4125 0.971145 0.0252511 0.194716
0.467897 0.5 -0.4125 0.971232 0.0248908 0.151846
0.624316 0.5 0.0729402 0.952329 0.0368141 0.178082
0.624316 0.5 -0.075 0.952413 0.036651 0.165851
0.574156 0.5 -0.2625 0.960188 0.0322439 0.154032
0.574157 0.5 0.2625 0.959983 0.0326727 0.19105
0.075776 0.5 -0.6375 0.984742 0.00493885 0.168461
0.075776 0.5 0.6375 0.984767 0.0049428 0.179099
0.624316 0.5 -0.15 0.953063 0.0363081 0.15989
0.624316 0.5 0.15 0.952884 0.0366283 0.184137
0.523432 0.5 -0.375 0.966372 0.028293 0.15028
0.523432 0.5 0.375 0.966175 0.0287496 0.195637
0.350249 0.5 -0.5625 0.979172 0.0179013 0.154018
0.350249 0.5 0.5625 0.979217 0.0181154 0.193419
0.624316 0.5 -0.225 0.954104 0.0358028 0.154165
0.624316 0.5 0.225 0.95382 0.0362694 0.190014
0.288069 0.5 0.6 0.981378 0.0149026 0.190602
0.288069 0.5 -0.6 0.981322 0.014751 0.15698
0.574156 0.5 -0.3375 0.961466 0.0316144 0.149349
0.574156 0.5 0.3375 0.961189 0.0321417 0.195902
0.411736 0.5 -0.525 0.975798 0.0211228 0.151114
0.411736 0.5 0.525 0.975759 0.0214416 0.195967
0 0.5 -0.668821 0.984808 0 0.173648
0 0.5 0.668821 0.984808 0 0.173648
0.0124865 0.5 -0.668821 0.984802 0.000815004 0.17279
0.0124865 0.5 0.668821 0.984806 0.000815808 0.17455
0.67013 0.5 0.0375 0.94646 0.0401325 0.174917
0.67013 0.5 -0.0375 0.946518 0.0400348 0.168139
0.219993 0.5 -0.6375 0.983376 0.0115017 0.16051
0.219993 0.5 0.6375 0.983444 0.0115794 0.187195
0 0.5 -0.675 0.984808 0 0.173648
0 0.5 0.675 0.984808 0 0.173648
0.467897 0.5 0.4875 0.972213 0.0246783 0.197909
0.467897 0.5 -0.4875 0.972321 0.0242725 0.148789
0.67013 0.5 -0.1125 0.94706 0.0397398 0.161458
0.67013 0.5 0.1125 0.946878 0.0400296 0.181676
0 0.5 -0.681179 0.984808 0 0.173648
0 0.5 0.681179 0.984808 0 0.173648
0.0124865 0.5 -0.681179 0.984809 0.00079127 0.172727
0.0124865 0.5 0.681179 0.984813 0.000791498 0.174611
0.523432 0.5 -0.45 0.967708 0.0276029 0.146621
0.523432 0.5 0.45 0.967465 0.0281259 0.199478
0.151149 0.5 -0.675 0.98411 0.00820877 0.164011
0.151149 0.5 0.675 0.984158 0.00824996 0.18362
0.624316 0.5 -0.3 0.95551 0.0351477 0.148765
0.624316 0.5 0.3 0.955118 0.0357473 0.195621
0.67013 0.5 0.1875 0.94775 0.0397287 0.18829
0.67013 0.5 -0.1875 0.948073 0.039257 0.154994
0.574156 0.5 -0.4125 0.962994 0.030871 0.145056
0.574157 0.5 0.4125 0.962645 0.0314866 0.200418
0.708171 0.5 1.88651e-17 0.94099 0.0430044 0.17166
0.075776 0.5 -0.7125 0.984785 0.00479385 0.168076
0.075776 0.5 0.7125 0.984811 0.00479432 0.179469
0.715434 0.5 0.0736268 0.940273 0.0434811 0.178667
0.715434 0.5 -0.075 0.9403 0.0433223 0.163597
0.67013 0.5 0.2625 0.949067 0.0392381 0.19465
0.67013 0.5 -0.2625 0.949529 0.038599 0.148846
0.350249 0.5 -0.6375 0.979848 0.0173935 0.152266
0.350249 0.5 0.6375 0.979892 0.0176233 0.195234
0.411736 0.5 -0.6 0.976753 0.0205189 0.148903
0.411736 0.5 0.6 0.976704 0.0208654 0.198289
0.624316 0.5 -0.375 0.957242 0.0343563 0.143772
0.624316 0.5 0.375 0.956741 0.0350751 0.200869
0.715434 0.5 -0.15 0.941234 0.0428807 0.156357
0.715434 0.5 0.15 0.940878 0.043334 0.185863
0.467897 0.5 -0.5625 0.97352 0.023587 0.14608
0.467897 0.5 0.5625 0.973392 0.0240333 0.20077
0.288069 0.5 -0.675 0.981797 0.0143218 0.155642
0.288069 0.5 0.675 0.981852 0.0144811 0.191975
0.523432 0.5 -0.525 0.969199 0.0268298 0.143358
0.523432 0.5 0.525 0.968915 0.0274118 0.202947
0 0.5 -0.743821 0.984808 0 0.173648
0 0.5 0.743821 0.984808 0 0.173648
0.0124865 0.5 -0.743821 0.984809 0.00079127 0.172727
0.0124865 0.5 0.743821 0.984813 0.000791498 0.174611
0.219992 0.5 0.7125 0.983694 0.0112408 0.188155
0.219992 0.5 -0.7125 0.983626 0.0111631 0.159551
0.715434 0.5 -0.225 0.942707 0.0422361 0.149422
0.715434 0.5 0.225 0.942159 0.0428983 0.193019
0 0.5 -0.75 0.984808 0 0.173648
0 0.5 0.75 0.984808 0 0.173648
0.67013 0.5 0.3375 0.950788 0.0385713 0.200667
0.67013 0.5 -0.3375 0.951396 0.0377802 0.143126
0.574156 0.5 -0.4875 0.964732 0.0300271 0.141196
0.574156 0.5 0.4875 0.96432 0.0307216 0.204528
0 0.5 -0.756179 0.984808 0 0.173648
0 0.5 0.756179 0.984808 0 0.173648
0.0124865 0.5 -0.756179 0.984817 0.000766646 0.172674
0.0124865 0.5 0.756179 0.984821 0.000766243 0.174661
0.756813 0.5 -0.0375 0.93373 0.0467688 0.166458
0.756813 0.5 0.0375 0.933621 0.0469026 0.174601
0.151149 0.5 -0.75 0.984263 0.00795754 0.163388
0.151149 0.5 0.75 0.98431 0.00799659 0.184237
0.756813 0.5 -0.1125 0.934494 0.0463927 0.158443
0.756813 0.5 0.1125 0.93416 0.0467897 0.182727
0.624316 0.5 -0.45 0.959251 0.0334432 0.139253
0.624316 0.5 0.45 0.958647 0.0342683 0.205689
0.715434 0.5 -0.3 0.944682 0.0414032 0.142913
0.715434 0.5 0.3 0.943941 0.0422575 0.199839
0.756813 0.5 0.1875 0.935321 0.0464335 0.190678
0.756813 0.5 -0.1875 0.935895 0.0457856 0.150703
0.67013 0.5 -0.4125 0.953618 0.0368177 0.137903
0.67013 0.5 0.4125 0.952865 0.0377439 0.20622
0.411736 0.5 -0.675 0.977759 0.0198701 0.14701
0.411736 0.5 0.675 0.9777 0.0202395 0.200298
0.467897 0.5 0.6375 0.974652 0.0233259 0.203272
0.467897 0.5 -0.6375 0.974798 0.0228448 0.14374
0.075776 0.5 -0.7875 0.984832 0.00464309 0.167755
0.075776 0.5 0.7875 0.984857 0.00463993 0.179774
0.350249 0.5 -0.7125 0.980554 0.0168514 0.150779
0.350249 0.5 0.7125 0.980594 0.0170932 0.196787
0.523432 0.5 -0.6 0.970808 0.0259857 0.140519
0.523432 0.5 0.6 0.970489 0.0266191 0.206011
0.797732 0.5 2.68882e-17 0.926684 0.0502984 0.16997
0.756813 0.5 -0.2625 0.937897 0.0449622 0.143373
0.756814 0.5 0.2625 0.937078 0.0458427 0.198316
0.797732 0.5 0.0736268 0.926988 0.0502877 0.17913
0.797732 0.5 -0.075 0.927203 0.0500114 0.161173
0.288069 0.5 -0.75 0.982287 0.013867 0.154519
0.288069 0.5 0.75 0.98234 0.0140308 0.193133
0.574156 0.5 -0.5625 0.966634 0.0290961 0.137809
0.574157 0.5 0.5625 0.966166 0.0298603 0.208192
0.715434 0.5 -0.375 0.947102 0.0403999 0.136924
0.715434 0.5 0.375 0.946171 0.0414278 0.206208
0.797732 0.5 -0.15 0.928464 0.0494641 0.152603
0.797732 0.5 0.15 0.927881 0.0500653 0.187586
0.624316 0.5 -0.525 0.961483 0.0324243 0.135257
0.624316 0.5 0.525 0.96079 0.0333435 0.210026
0.219992 0.5 -0.7875 0.983882 0.0108062 0.158756
0.219992 0.5 0.7875 0.983948 0.0108822 0.188951
0 0.5 -0.818821 0.984808 0 0.173648
0 0.5 0.818821 0.984808 0 0.173648
0.0124865 0.5 0.818821 0.984821 0.000766243 0.174661
0.0124865 0.5 -0.818821 0.984817 0.000766646 0.172674
0 0.5 -0.825 0.984808 0 0.173648
0 0.5 0.825 0.984808 0 0.173648
0.756813 0.5 0.3375 0.939386 0.045034 0.205522
0.756814 0.5 -0.3375 0.940441 0.0439404 0.136588
0.67013 0.5 -0.4875 0.956128 0.0357282 0.133246
0.67013 0.5 0.4875 0.95525 0.0367748 0.211271
0.797732 0.5 -0.225 0.930436 0.0486704 0.144417
0.797732 0.5 0.225 0.929545 0.049551 0.196074
0 0.5 -0.831179 0.984808 0 0.173648
0 0.5 0.831179 0.984808 0 0.173648
0.0124865 0.5 -0.831179 0.984824 0.000741447 0.172631
0.0124865 0.5 0.831179 0.984828 0.000740444 0.1747
0.835106 0.5 0.0375 0.919899 0.053682 0.174216
0.835106 0.5 -0.0375 0.920072 0.053509 0.164651
0.151149 0.5 -0.825 0.984418 0.00769609 0.162879
0.151149 0.5 0.825 0.984463 0.00773211 0.184738
0.835106 0.5 0.1125 0.920568 0.0535603 0.183764
0.835106 0.5 -0.1125 0.921093 0.0530467 0.155246
0.715434 0.5 -0.45 0.949897 0.0392458 0.131537
0.715434 0.5 0.45 0.948788 0.0404279 0.212033
0.797732 0.5 -0.3 0.933061 0.0476487 0.136759
0.797732 0.5 0.3 0.931867 0.0487873 0.204147
0.467897 0.5 0.7125 0.975964 0.022566 0.205403
0.467897 0.5 -0.7125 0.976125 0.0220571 0.141779
0.523432 0.5 -0.675 0.972495 0.0250838 0.13812
0.523432 0.5 0.675 0.972146 0.02576 0.208648
0.411736 0.5 -0.75 0.978793 0.0191864 0.145442
0.411736 0.5 0.75 0.978726 0.0195728 0.201987
0.835106 0.5 -0.1875 0.922937 0.052308 0.146182
0.835106 0.5 0.1875 0.922046 0.0531476 0.193103
0.574156 0.5 -0.6375 0.968651 0.0280932 0.134921
0.574157 0.5 0.6375 0.968136 0.0289167 0.211379
0.350249 0.5 -0.7875 0.981273 0.0162834 0.149559
0.350249 0.5 0.7875 0.98131 0.0165326 0.198075
0.756813 0.5 -0.4125 0.943454 0.0427417 0.130408
0.756814 0.5 0.4125 0.94217 0.0440263 0.21217
0.075776 0.5 -0.8625 0.984877 0.00448881 0.167498
0.075776 0.5 0.8625 0.984902 0.00448224 0.180014
0.624316 0.5 0.6 0.963111 0.032317 0.213834
0.624316 0.5 -0.6 0.963878 0.0313165 0.13182
0.872064 0.5 5.91974e-17 0.912804 0.0569843 0.168838
0.870122 0.5 0.075 0.913536 0.0568101 0.179553
0.288069 0.5 -0.825 0.982783 0.0133934 0.153611
0.288069 0.5 0.825 0.982832 0.0135586 0.194075
0.67013 0.5 -0.5625 0.958863 0.0345309 0.129203
0.67013 0.5 0.5625 0.957877 0.0356829 0.215746
0.872064 0.5 -0.075 0.913489 0.0566338 0.158619
0.835106 0.5 -0.2625 0.925556 0.0513098 0.137628
0.835106 0.5 0.2625 0.924291 0.0524542 0.202068
0.797732 0.5 -0.375 0.936262 0.0464203 0.129754
0.797732 0.5 0.375 0.934779 0.0477937 0.211674
0.872064 0.5 0.14794 0.914263 0.0567357 0.189315
0.872064 0.5 -0.15 0.915112 0.0559767 0.148675
0.715434 0.5 -0.525 0.952989 0.0379615 0.12682
0.715434 0.5 0.525 0.951725 0.0392795 0.217248
0.219992 0.5 0.8625 0.984203 0.0105093 0.189584
0.219993 0.5 -0.8625 0.98414 0.0104367 0.158122
0 0.5 -0.893821 0.984808 0 0.173648
0 0.5 0.893821 0.984808 0 0.173648
0.0124865 0.5 -0.893821 0.984824 0.000741447 0.172631
0.0124865 0.5 0.893821 0.984828 0.000740444 0.1747
0 0.5 -0.9 0.984808 0 0.173648
0 0.5 0.9 0.984808 0 0.173648
0.756813 0.5 -0.4875 0.94685 0.0413887 0.124959
0.756813 0.5 0.4875 0.945357 0.042841 0.21817
0.872064 0.5 -0.225 0.917632 0.0550291 0.139201
0.872064 0.5 0.225 0.916343 0.056143 0.199175
0.835106 0.5 -0.3375 0.928863 0.0500754 0.129714
0.835106 0.5 0.3375 0.927246 0.0514982 0.210498
0 0.5 0.906179 0.984808 0 0.173648
0 0.5 -0.906179 0.984808 0 0.173648
0.0124865 0.5 -0.906179 0.984831 0.000716102 0.172599
0.0124865 0.5 0.906179 0.984835 0.000714559 0.174729
0.90582 0.5 -0.0375 0.906012 0.0601159 0.162754
0.90582 0.5 0.0375 0.905769 0.0603297 0.173776
0.151149 0.5 -0.9 0.984572 0.00742845 0.162483
0.151149 0.5 0.9 0.984615 0.00746089 0.185124
0.90582 0.5 -0.1125 0.907307 0.0595656 0.151922
0.905821 0.5 0.1125 0.906574 0.0602012 0.184784
0.523432 0.5 -0.75 0.974218 0.0241379 0.136166
0.523432 0.5 0.75 0.97385 0.024847 0.210847
0.574156 0.5 -0.7125 0.970733 0.0270343 0.132541
0.574156 0.5 0.7125 0.970183 0.0279054 0.214071
0.797732 0.5 -0.45 0.939947 0.0450098 0.123503
0.797732 0.5 0.45 0.938194 0.0465923 0.218529
0.467897 0.5 0.7875 0.9773 0.0217647 0.207155
0.467897 0.5 -0.7875 0.977471 0.0212356 0.140199
0.624316 0.5 -0.675 0.966376 0.0301379 0.12896
0.624316 0.5 0.675 0.96555 0.0312059 0.217087
0.411736 0.5 -0.825 0.979833 0.0184775 0.144196
0.411736 0.5 0.825 0.979761 0.0188746 0.203354
0.872064 0.5 0.3 0.91925 0.0552557 0.208537
0.872064 0.5 -0.3 0.920974 0.0538125 0.130363
0.67013 0.5 -0.6375 0.961749 0.0332461 0.125803
0.67013 0.5 0.6375 0.960675 0.0344873 0.219612
0.90582 0.5 0.1875 0.908389 0.0597341 0.195546
0.905821 0.5 -0.1875 0.909626 0.0586934 0.141501
0.350249 0.5 -0.8625 0.981994 0.0156978 0.148601
0.350249 0.5 0.8625 0.982027 0.0159494 0.199097
0.835106 0.5 -0.4125 0.932767 0.0486277 0.122615
0.835106 0.5 0.4125 0.930816 0.0503041 0.218271
0.715434 0.5 -0.6 0.956292 0.0365694 0.122813
0.715434 0.5 0.6 0.9549 0.0380051 0.221799
0.939201 0.5 2.75387e-17 0.898321 0.0637384 0.167648
0.075776 0.5 0.9375 0.984943 0.0043235 0.180191
0.075776 0.5 -0.9375 0.98492 0.00433323 0.167304
0.939111 0.5 0.075 0.898692 0.0637771 0.180433
0.939201 0.5 -0.075 0.899194 0.0633194 0.155934
0.756813 0.5 0.5625 0.948864 0.0415057 0.223463
0.756814 0.5 -0.5625 0.950531 0.0399053 0.120276
0.90582 0.5 0.2625 0.911154 0.0589402 0.205868
0.905821 0.5 -0.2625 0.912902 0.0575185 0.131691
0.288069 0.5 -0.9 0.983277 0.0129079 0.152913
0.288069 0.5 0.9 0.983323 0.0130717 0.194804
0.872064 0.5 -0.375 0.925038 0.0523525 0.122329
0.872064 0.5 0.375 0.922902 0.0540963 0.217246
0.939201 0.5 0.148627 0.900135 0.0634421 0.191307
0.939201 0.5 -0.15 0.901219 0.0625434 0.144551
0.797732 0.5 -0.525 0.944007 0.0434442 0.118078
0.797732 0.5 0.525 0.942018 0.0452102 0.224628
0.219992 0.5 0.9375 0.984457 0.0101287 0.190058
0.219992 0.5 -0.9375 0.984398 0.0100605 0.157644
0.939201 0.5 -0.225 0.904343 0.0614286 0.13373
0.939201 0.5 0.225 0.902585 0.0627935 0.202421
0.905821 0.5 -0.3375 0.91704 0.056068 0.122663
0.90582 0.5 0.3375 0.914796 0.0578396 0.21555
0.835106 0.5 -0.4875 0.937152 0.0469972 0.116375
0.835106 0.5 0.4875 0.934899 0.0488955 0.225228
0 0.5 0.968821 0.984808 0 0.173648
0 0.5 -0.968821 0.984808 0 0.173648
0.0124865 0.5 -0.968821 0.984831 0.000716102 0.172599
0.0124865 0.5 0.968821 0.984835 0.000714559 0.174729
0.969689 0.5 -0.0375 0.891167 0.066982 0.160756
0.969689 0.5 0.0375 0.890836 0.0672406 0.173345
0.574156 0.5 -0.7875 0.972831 0.0259351 0.130666
0.574156 0.5 0.7875 0.972262 0.0268414 0.216263
0 0.5 -0.975 0.984808 0 0.173648
0 0.5 0.975 0.984808 0 0.173648
0.624316 0.5 -0.75 0.968915 0.0289069 0.126678
0.624316 0.5 0.75 0.968052 0.0300272 0.219773
0.969689 0.5 -0.1125 0.89278 0.0663314 0.148395
0.96969 0.5 0.1125 0.891784 0.0671008 0.185918
0.523432 0.5 -0.825 0.975942 0.0231614 0.13465
0.523432 0.5 0.825 0.975564 0.0238932 0.212608
0.67013 0.5 0.7125 0.963576 0.0332076 0.222848
0.67013 0.5 -0.7125 0.96471 0.0318945 0.123053
0 0.5 -0.981179 0.984808 0 0.173648
0 0.5 0.981179 0.984808 0 0.173648
0.467897 0.5 0.8625 0.978634 0.0209325 0.208534
0.467897 0.5 -0.8625 0.978808 0.0203916 0.13899
0.0124865 0.5 -0.981179 0.984836 0.000690896 0.172577
0.0124865 0.5 0.981179 0.98484 0.000688754 0.174749
0.872064 0.5 -0.45 0.929695 0.0506789 0.115217
0.872064 0.5 0.45 0.927187 0.0526911 0.225145
0.715434 0.5 -0.675 0.959719 0.0350935 0.119534
0.715434 0.5 0.675 0.958231 0.0366262 0.225656
0.939201 0.5 -0.3 0.908474 0.06 0.123675
0.939201 0.5 0.3 0.906128 0.0617721 0.213124
0.151149 0.5 0.975 0.984766 0.00718681 0.185402
0.151149 0.5 -0.975 0.984725 0.00715834 0.162194
0.969689 0.5 -0.1875 0.895639 0.0653052 0.136526
0.969689 0.5 0.1875 0.893965 0.0665669 0.198199
0.756813 0.5 -0.6375 0.954398 0.0383178 0.116398
0.756813 0.5 0.6375 0.95259 0.040044 0.227999
0.411736 0.5 -0.9 0.980859 0.0177529 0.143261
0.411736 0.5 0.9 0.980785 0.0181546 0.204404
0.90582 0.5 -0.4125 0.921911 0.0543707 0.114607
0.90582 0.5 0.4125 0.919207 0.0564601 0.224455
0.995005 0.5 0.0749309 0.885809 0.0692885 0.180731
0.797732 0.5 -0.6 0.948329 0.0417521 0.113527
0.797732 0.5 0.6 0.946142 0.0436764 0.229917
1.00005 0.5 -8.47123e-18 0.884176 0.0697241 0.166438
0.350249 0.5 -0.9375 0.982703 0.0151017 0.147896
0.350249 0.5 0.9375 0.982733 0.0153527 0.199862
1.00005 0.5 -0.0749309 0.88524 0.0692457 0.153317
0.969689 0.5 -0.2625 0.899658 0.0639262 0.125387
0.969689 0.5 0.2625 0.897305 0.0656527 0.209959
0.835106 0.5 -0.5625 0.941886 0.0452154 0.111075
0.835106 0.5 0.5625 0.939378 0.0473076 0.231336
1.00005 0.5 -0.149862 0.887678 0.0683702 0.140576
0.939201 0.5 -0.375 0.913484 0.0582883 0.114571
0.939201 0.5 0.375 0.910584 0.060433 0.223049
1.00029 0.5 0.148988 0.886362 0.0693903 0.192939
0.075776 0.5 -1.0125 0.984955 0.00417857 0.167169
0.075776 0.5 1.0125 0.984976 0.00416562 0.180308
0.288069 0.5 0.975 0.983804 0.012577 0.195329
0.288069 0.5 -0.975 0.983762 0.0124162 0.152414
0.872064 0.5 -0.525 0.934804 0.0488245 0.109093
0.872064 0.5 0.525 0.931973 0.0510725 0.232133
1.00005 0.5 0.224793 0.889178 0.0687128 0.205391
1.00005 0.5 -0.224793 0.891421 0.0671174 0.128478
0.969689 0.5 0.3375 0.901707 0.0643815 0.220961
0.96969 0.5 -0.3375 0.904724 0.0622251 0.115186
1.0271 0.5 -0.0368226 0.877044 0.0728118 0.158943
1.0271 0.5 0.0368226 0.876642 0.073101 0.172713
0.90582 0.5 0.4875 0.924249 0.0548302 0.232377
0.905821 0.5 -0.4875 0.927343 0.0524633 0.107585
1.0271 0.5 -0.110468 0.878918 0.0721085 0.145422
1.0271 0.5 0.110468 0.877287 0.0732408 0.189677
0.67013 0.5 0.7875 0.966512 0.0318634 0.225451
0.67013 0.5 -0.7875 0.967678 0.0304968 0.120944
0.624316 0.5 0.825 0.970561 0.0287984 0.221897
0.624316 0.5 -0.825 0.971439 0.0276414 0.124959
0.219993 0.5 -1.0125 0.984659 0.00968176 0.157314
0.219993 0.5 1.0125 0.984715 0.00974491 0.190383
0.574156 0.5 -0.8625 0.974903 0.0248107 0.129278
0.574156 0.5 0.8625 0.974328 0.0257395 0.217962
0.715434 0.5 -0.75 0.963185 0.0335576 0.116978
0.715434 0.5 0.75 0.961637 0.035165 0.228806
0.756813 0.5 0.7125 0.956444 0.0384797 0.23176
0.756814 0.5 -0.7125 0.958347 0.0366539 0.113329
0.523432 0.5 -0.9 0.977631 0.022167 0.133553
0.523432 0.5 0.9 0.977255 0.0229113 0.213942
0.939201 0.5 -0.45 0.919199 0.0563302 0.106539
0.939201 0.5 0.45 0.915814 0.058808 0.232025
1.04168 0.5 0 0.872685 0.074651 0.165486
1.0271 0.5 -0.184113 0.88223 0.0710068 0.132431
1.0271 0.5 0.184113 0.880197 0.0724226 0.199914
0 0.5 -1.04382 0.984808 0 0.173648
0 0.5 1.04382 0.984808 0 0.173648
0.0124865 0.5 -1.04382 0.984836 0.000690896 0.172577
0.0124865 0.5 1.04382 0.98484 0.000688754 0.174749
1.00005 0.5 -0.299723 0.896358 0.0655148 0.117262
1.00005 0.5 0.299723 0.893368 0.0675901 0.217366
1.04168 0.5 -0.0729162 0.873858 0.0741445 0.151537
1.04168 0.5 0.0729162 0.873015 0.0747353 0.179552
0.797732 0.5 -0.675 0.952792 0.0399626 0.10987
0.797732 0.5 0.675 0.95046 0.0420176 0.23436
0.467897 0.5 0.9375 0.97994 0.0200803 0.209552
0.467897 0.5 -0.9375 0.980111 0.019535 0.138135
0 0.5 -1.05 0.984808 0 0.173648
0 0.5 1.05 0.984808 0 0.173648
0.835106 0.5 -0.6375 0.946847 0.0433144 0.106754
0.835106 0.5 0.6375 0.944122 0.0455699 0.236527
1.04168 0.5 -0.145832 0.876522 0.073227 0.137984
1.04168 0.5 0.145832 0.874825 0.0743968 0.193457
0.969689 0.5 -0.4125 0.910654 0.0602377 0.106091
0.96969 0.5 0.4125 0.90705 0.0627844 0.231033
0 0.5 -1.05618 0.984808 0 0.173648
0 0.5 1.05618 0.984808 0 0.173648
0.0124865 0.5 -1.05618 0.98484 0.000666108 0.172564
0.0124865 0.5 1.05618 0.984844 0.000663608 0.174759
1.05695 0.5 -0.0360764 0.868789 0.0761577 0.157914
1.05695 0.5 0.0360764 0.86834 0.0764632 0.172262
0.411736 0.5 -0.975 0.981853 0.0170201 0.142621
0.411736 0.5 0.975 0.981781 0.017422 0.205152
0.872064 0.5 -0.6 0.940222 0.0468231 0.104022
0.872064 0.5 0.6 0.937118 0.0492756 0.238154
1.0271 0.5 -0.257759 0.886872 0.0695301 0.120225
1.0271 0.5 0.257759 0.88402 0.0714726 0.212801
0.151149 0.5 -1.05 0.984877 0.00688803 0.162007
0.151149 0.5 1.05 0.984915 0.00691229 0.185578
1.05695 0.5 0.108229 0.86863 0.0766791 0.186945
1.05695 0.5 -0.108229 0.870767 0.0754295 0.14382
1.04168 0.5 -0.218749 0.880605 0.0719176 0.125097
1.04168 0.5 0.218749 0.878045 0.0736441 0.206922
0.90582 0.5 -0.5625 0.933187 0.0503778 0.101676
0.905821 0.5 0.5625 0.929752 0.0529924 0.239308
1.00005 0.5 -0.374654 0.902326 0.0635969 0.107126
1.00005 0.5 0.374654 0.898639 0.0661127 0.228451
0.350249 0.5 1.0125 0.983413 0.0147492 0.200382
0.350249 0.5 -1.0125 0.983386 0.0145005 0.147425
1.05695 0.5 -0.180382 0.874252 0.0742947 0.130272
1.05695 0.5 0.180382 0.871995 0.075794 0.200624
1.07319 0.5 0.0709442 0.864109 0.0783666 0.182464
0.939201 0.5 -0.525 0.925449 0.0541642 0.0996982
0.939201 0.5 0.525 0.921642 0.0569348 0.239937
1.0271 0.5 -0.331404 0.892711 0.0677095 0.109043
1.0271 0.5 0.331404 0.889057 0.0701431 0.224878
1.08112 0.5 3.23815e-17 0.861256 0.0791827 0.164509
1.04168 0.5 -0.291665 0.885984 0.0702434 0.113131
1.04168 0.5 0.291665 0.882572 0.0724953 0.219694
1.08112 0.5 -0.0709442 0.862523 0.0786522 0.1498
0.969689 0.5 -0.4875 0.917244 0.0580093 0.0981694
0.96969 0.5 0.4875 0.91314 0.0608998 0.24
1.05695 0.5 0.252535 0.87596 0.074836 0.21408
1.05695 0.5 -0.252535 0.879126 0.0727754 0.117528
0.288069 0.5 -1.05 0.984232 0.0119214 0.152101
0.288069 0.5 1.05 0.984271 0.012078 0.195663
0.075776 0.5 -1.0875 0.984983 0.00402607 0.16709
0.075776 0.5 1.0875 0.985003 0.00401072 0.180371
1.08112 0.5 -0.141888 0.865362 0.0777018 0.135494
1.08145 0.5 0.140165 0.863774 0.0788394 0.194413
0.715434 0.5 0.825 0.965042 0.0336441 0.231257
0.715434 0.5 -0.825 0.966612 0.0319847 0.115122
0.756813 0.5 0.7875 0.960333 0.0368383 0.234741
0.756814 0.5 -0.7875 0.962287 0.0349398 0.111046
0.67013 0.5 -0.8625 0.970592 0.0290728 0.119448
0.67013 0.5 0.8625 0.969423 0.030474 0.227433
0.797732 0.5 -0.75 0.957279 0.0381051 0.107096
0.797732 0.5 0.75 0.954866 0.0402612 0.237945
0.624316 0.5 -0.9 0.973898 0.0263582 0.123776
0.624316 0.5 0.9 0.973027 0.0275366 0.223473
1.00005 0.5 -0.449585 0.909124 0.0614038 0.0982293
1.00005 0.5 0.449585 0.904819 0.0643162 0.238465
0.835106 0.5 -0.7125 0.951878 0.0413241 0.103412
0.835106 0.5 0.7125 0.949023 0.0437117 0.240785
0.574156 0.5 -0.9375 0.976908 0.0236748 0.128352
0.574157 0.5 0.9375 0.976345 0.0246143 0.219188
1.10076 0.5 -0.0349809 0.855471 0.0813583 0.156425
1.10076 0.5 0.0349809 0.854969 0.0816833 0.171648
1.08112 0.5 -0.212832 0.869704 0.07635 0.121875
1.08112 0.5 0.212832 0.866818 0.0781986 0.208237
0.872064 0.5 -0.675 0.945798 0.0447121 0.10003
0.872064 0.5 0.675 0.942488 0.0473317 0.243163
1.04168 0.5 -0.364581 0.892491 0.0682393 0.102297
1.04168 0.5 0.364581 0.888275 0.0709767 0.231539
1.0271 0.5 0.405049 0.895166 0.0684641 0.235941