0 	0.636565 	0 	0
0.00156631 	0.818244 	0.000177819 	-1.40168e-07
0.00313263 	0.995723 	0.000177819 	-1.40168e-07
0.00474706 	0.998738 	0.000287804 	-1.60318e-07
0.0063615 	0.998738 	0.000287804 	-1.60318e-07
0.00802554 	0.999796 	0.000320476 	-1.57685e-07
0.00968957 	0.999796 	0.000320476 	-1.57685e-07
0.0114047 	1.00011 	0.000321675 	-1.55932e-07
0.0131199 	1.00011 	0.000321675 	-1.55932e-07
0.0148878 	1.00019 	0.000317188 	-1.58015e-07
0.0166556 	1.00019 	0.000317188 	-1.58015e-07
0.0184778 	1.00021 	0.000310442 	-1.58705e-07
0.0202999 	1.00021 	0.000310442 	-1.58705e-07
0.0221781 	1.00022 	0.000302652 	-1.58815e-07
0.0240562 	1.00022 	0.000302652 	-1.58815e-07
0.0259921 	1.00021 	0.000294353 	-1.59138e-07
0.0279279 	1.00021 	0.000294353 	-1.59138e-07
0.0299233 	1.00021 	0.000285669 	-1.59596e-07
0.0319186 	1.00021 	0.000285669 	-1.59596e-07
0.0339752 	1.00021 	0.000276773 	-1.60119e-07
0.0360318 	1.00021 	0.000276773 	-1.60119e-07
0.0381516 	1.0002 	0.000267843 	-1.60669e-07
0.0402714 	1.0002 	0.000267843 	-1.60669e-07
0.0424564 	1.00019 	0.000258848 	-1.61213e-07
0.0446413 	1.00019 	0.000258848 	-1.61213e-07
0.0468934 	1.00019 	0.000249743 	-1.61726e-07
0.0491454 	1.00019 	0.000249743 	-1.61726e-07
0.0514667 	1.00018 	0.000240565 	-1.62193e-07
0.0537879 	1.00018 	0.000240565 	-1.62193e-07
0.0561804 	1.00018 	0.000231402 	-1.6261e-07
0.058573 	1.00018 	0.000231402 	-1.6261e-07
0.0610391 	1.00017 	0.000222176 	-1.63093e-07
0.0635052 	1.00017 	0.000222176 	-1.63093e-07
0.066047 	1.00016 	0.000212789 	-1.63859e-07
0.0685888 	1.00016 	0.000212789 	-1.63859e-07
0.0712088 	1.00015 	0.000203435 	-1.648e-07
0.0738287 	1.00015 	0.000203435 	-1.648e-07
0.0765291 	1.00014 	0.000194333 	-1.65618e-07
0.0792295 	1.00014 	0.000194333 	-1.65618e-07
0.0820129 	1.00013 	0.000185487 	-1.66249e-07
0.0847962 	1.00013 	0.000185487 	-1.66249e-07
0.0876651 	1.00012 	0.000176927 	-1.66746e-07
0.090534 	1.00012 	0.000176927 	-1.66746e-07
0.0934911 	1.00011 	0.000168739 	-1.67173e-07
0.0964481 	1.00011 	0.000168739 	-1.67173e-07
0.0994961 	1.0001 	0.000160936 	-1.67581e-07
0.102544 	1.0001 	0.000160936 	-1.67581e-07
0.105686 	1.0001 	0.000153491 	-1.67974e-07
0.108827 	1.0001 	0.000153491 	-1.67974e-07
0.112065 	1.00009 	0.000146371 	-1.68312e-07
0.115303 	1.00009 	0.000146371 	-1.68312e-07
0.118641 	1.00008 	0.000139552 	-1.68548e-07
0.121978 	1.00008 	0.000139552 	-1.68548e-07
0.125418 	1.00007 	0.000133038 	-1.68677e-07
0.128858 	1.00007 	0.000133038 	-1.68677e-07
0.132404 	1.00007 	0.000126831 	-1.68731e-07
0.135949 	1.00007 	0.000126831 	-1.68731e-07
0.139604 	1.00006 	0.000120921 	-1.68753e-07
0.143259 	1.00006 	0.000120921 	-1.68753e-07
0.147026 	1.00006 	0.000115298 	-1.68764e-07
0.150793 	1.00006 	0.000115298 	-1.68764e-07
0.154676 	1.00005 	0.000109953 	-1.68758e-07
0.158558 	1.00005 	0.000109953 	-1.68758e-07
0.16256 	1.00005 	0.000104879 	-1.68711e-07
0.166562 	1.00005 	0.000104879 	-1.68711e-07
0.170687 	1.00004 	0.000100072 	-1.6858e-07
0.174812 	1.00004 	0.000100072 	-1.6858e-07
0.179063 	1.00004 	9.55252e-05 	-1.68322e-07
0.183315 	1.00004 	9.55252e-05 	-1.68322e-07
0.187697 	1.00003 	9.1242e-05 	-1.67902e-07
0.192079 	1.00003 	9.1242e-05 	-1.67902e-07
0.196596 	1.00003 	8.72254e-05 	-1.67311e-07
0.201113 	1.00003 	8.72254e-05 	-1.67311e-07
0.205769 	1.00002 	8.34726e-05 	-1.6656e-07
0.210425 	1.00002 	8.34726e-05 	-1.6656e-07
0.215223 	1.00002 	7.99848e-05 	-1.65662e-07
0.220022 	1.00002 	7.99848e-05 	-1.65662e-07
0.224968 	1.00002 	7.67685e-05 	-1.64639e-07
0.229914 	1.00002 	7.67685e-05 	-1.64639e-07
0.235012 	1.00001 	7.38317e-05 	-1.63528e-07
0.24011 	1.00001 	7.38317e-05 	-1.63528e-07
0.245365 	1.00001 	7.11831e-05 	-1.62374e-07
0.25062 	1.00001 	7.11831e-05 	-1.62374e-07
0.256036 	1.00001 	6.88191e-05 	-1.61231e-07
0.261452 	1.00001 	6.88191e-05 	-1.61231e-07
0.261452 	1.00001 	6.88191e-05 	-1.61231e-07
0.267034 	1.00001 	6.67449e-05 	-1.60155e-07
0.272617 	1.00001 	6.67449e-05 	-1.60155e-07
0.278371 	1 	6.49627e-05 	-1.59174e-07
0.284125 	1 	6.49627e-05 	-1.59174e-07
0.290056 	1 	6.34637e-05 	-1.5827e-07
0.295987 	1 	6.34637e-05 	-1.5827e-07
0.3021 	1 	6.22364e-05 	-1.57422e-07
0.308213 	1 	6.22364e-05 	-1.57422e-07
0.314514 	0.999998 	6.12551e-05 	-1.56629e-07
0.320815 	0.999998 	6.12551e-05 	-1.56629e-07
0.327309 	0.999997 	6.04998e-05 	-1.5587e-07
0.333803 	0.999997 	6.04998e-05 	-1.5587e-07
0.333891 	0.999997 	6.02241e-05 	-1.55485e-07
0.333979 	0.999996 	5.99484e-05 	-1.551e-07
0.340585 	0.999996 	5.99484e-05 	-1.551e-07
0.347191 	0.999996 	5.99484e-05 	-1.551e-07
0.35409 	0.999996 	5.95729e-05 	-1.54317e-07
0.36099 	0.999996 	5.95729e-05 	-1.54317e-07
0.368102 	0.999995 	5.93537e-05 	-1.53555e-07
0.375214 	0.999995 	5.93537e-05 	-1.53555e-07
0.382544 	0.999995 	5.92721e-05 	-1.5283e-07
0.389874 	0.999995 	5.92721e-05 	-1.5283e-07
0.397429 	0.999994 	5.93103e-05 	-1.52148e-07
0.404984 	0.999994 	5.93103e-05 	-1.52148e-07
0.412771 	0.999994 	5.94542e-05 	-1.5151e-07
0.420559 	0.999994 	5.94542e-05 	-1.5151e-07
0.420664 	0.999994 	5.95738e-05 	-1.51212e-07
0.42077 	0.999994 	5.96933e-05 	-1.50913e-07
0.428691 	0.999994 	5.96933e-05 	-1.50913e-07
0.436612 	0.999994 	5.96933e-05 	-1.50913e-07
0.444885 	0.999994 	6.00192e-05 	-1.50355e-07
0.453158 	0.999994 	6.00192e-05 	-1.50355e-07
0.461685 	0.999994 	6.04256e-05 	-1.4983e-07
0.470213 	0.999994 	6.04256e-05 	-1.4983e-07
0.479002 	0.999994 	6.09071e-05 	-1.49333e-07
0.487792 	0.999994 	6.09071e-05 	-1.49333e-07
0.496851 	0.999993 	6.1459e-05 	-1.48856e-07
0.505911 	0.999993 	6.1459e-05 	-1.48856e-07
0.515248 	0.999993 	6.20767e-05 	-1.48393e-07
0.524586 	0.999993 	6.20767e-05 	-1.48393e-07
0.53421 	0.999993 	6.2756e-05 	-1.47939e-07
0.543835 	0.999993 	6.2756e-05 	-1.47939e-07
0.553755 	0.999993 	6.34924e-05 	-1.47486e-07
0.563676 	0.999993 	6.34924e-05 	-1.47486e-07
0.573901 	0.999993 	6.42814e-05 	-1.47029e-07
0.584126 	0.999993 	6.42814e-05 	-1.47029e-07
0.594665 	0.999993 	6.51184e-05 	-1.46563e-07
0.605204 	0.999993 	6.51184e-05 	-1.46563e-07
0.616067 	0.999993 	6.59987e-05 	-1.46083e-07
0.62693 	0.999993 	6.59987e-05 	-1.46083e-07
0.638127 	0.999993 	6.69172e-05 	-1.45583e-07
0.649324 	0.999993 	6.69172e-05 	-1.45583e-07
0.660864 	0.999993 	6.78688e-05 	-1.45058e-07
0.672405 	0.999993 	6.78688e-05 	-1.45058e-07
0.6843 	0.999993 	6.88476e-05 	-1.44504e-07
0.696196 	0.999993 	6.88476e-05 	-1.44504e-07
0.708456 	0.999993 	6.98476e-05 	-1.43915e-07
0.720717 	0.999993 	6.98476e-05 	-1.43915e-07
0.733354 	0.999993 	7.08624e-05 	-1.43288e-07
0.745992 	0.999993 	7.08624e-05 	-1.43288e-07
0.759017 	0.999994 	7.18855e-05 	-1.42615e-07
0.772043 	0.999994 	7.18855e-05 	-1.42615e-07
0.785469 	0.999994 	7.29102e-05 	-1.41894e-07
0.798895 	0.999994 	7.29102e-05 	-1.41894e-07
0.812733 	0.999994 	7.39294e-05 	-1.41118e-07
0.826571 	0.999994 	7.39294e-05 	-1.41118e-07
0.840834 	0.999994 	7.49355e-05 	-1.40284e-07
0.855098 	0.999994 	7.49355e-05 	-1.40284e-07
0.8698 	0.999994 	7.59207e-05 	-1.39387e-07
0.884502 	0.999994 	7.59207e-05 	-1.39387e-07
0.899655 	0.999994 	7.6877e-05 	-1.38423e-07
0.914808 	0.999994 	7.6877e-05 	-1.38423e-07
0.930427 	0.999994 	7.77957e-05 	-1.37387e-07
0.946046 	0.999994 	7.77957e-05 	-1.37387e-07
0.962144 	0.999995 	7.8668e-05 	-1.36275e-07
0.978243 	0.999995 	7.8668e-05 	-1.36275e-07
0.994836 	0.999995 	7.94846e-05 	-1.35084e-07
1.01143 	0.999995 	7.94846e-05 	-1.35084e-07
1.02853 	0.999995 	8.02359e-05 	-1.3381e-07
1.04564 	0.999995 	8.02359e-05 	-1.3381e-07
1.06326 	0.999995 	8.09118e-05 	-1.3245e-07
1.08089 	0.999995 	8.09118e-05 	-1.3245e-07
1.09906 	0.999995 	8.15025e-05 	-1.31e-07
1.11723 	0.999995 	8.15025e-05 	-1.31e-07
1.13596 	0.999996 	8.19974e-05 	-1.29458e-07
1.15469 	0.999996 	8.19974e-05 	-1.29458e-07
1.17399 	0.999996 	8.23861e-05 	-1.27822e-07
1.1933 	0.999996 	8.23861e-05 	-1.27822e-07
1.21319 	0.999996 	8.26581e-05 	-1.2609e-07
1.23309 	0.999996 	8.26581e-05 	-1.2609e-07
1.2536 	0.999996 	8.28032e-05 	-1.2426e-07
1.27411 	0.999996 	8.28032e-05 	-1.2426e-07
1.29524 	0.999997 	8.28112e-05 	-1.22333e-07
1.31638 	0.999997 	8.28112e-05 	-1.22333e-07
1.33817 	0.999997 	8.26726e-05 	-1.20307e-07
1.35996 	0.999997 	8.26726e-05 	-1.20307e-07
1.38241 	0.999997 	8.23784e-05 	-1.18185e-07
1.40487 	0.999997 	8.23784e-05 	-1.18185e-07
1.42802 	0.999997 	8.19203e-05 	-1.15966e-07
1.45117 	0.999997 	8.19203e-05 	-1.15966e-07
1.47502 	0.999998 	8.12914e-05 	-1.13653e-07
1.49888 	0.999998 	8.12914e-05 	-1.13653e-07
1.52347 	0.999998 	8.04854e-05 	-1.11247e-07
1.54806 	0.999998 	8.04854e-05 	-1.11247e-07
1.57341 	0.999998 	7.94978e-05 	-1.08748e-07
1.59876 	0.999998 	7.94978e-05 	-1.08748e-07
1.62488 	0.999999 	7.83256e-05 	-1.0616e-07
1.65101 	0.999999 	7.83256e-05 	-1.0616e-07
1.65101 	0.999999 	7.83256e-05 	-1.0616e-07
1.67794 	0.999999 	7.69678e-05 	-1.03493e-07
1.70486 	0.999999 	7.69678e-05 	-1.03493e-07
1.73262 	0.999999 	7.54248e-05 	-1.00756e-07
1.76037 	0.999999 	7.54248e-05 	-1.00756e-07
1.78898 	0.999999 	7.36987e-05 	-9.79563e-08
1.81759 	0.999999 	7.36987e-05 	-9.79563e-08
1.84708 	1 	7.17942e-05 	-9.50987e-08
1.87656 	1 	7.17942e-05 	-9.50987e-08
1.90696 	1 	6.9725e-05 	-9.21984e-08
1.93735 	1 	6.9725e-05 	-9.21984e-08
1.96868 	1 	6.76716e-05 	-8.9536e-08
2 	1 	6.76716e-05 	-8.9536e-08
