0 	6.96762e-05 	0 	0.0266358
0.00156631 	0.000103395 	2.10886e-07 	0.0266352
0.00313263 	0.000138051 	4.22897e-07 	0.0266346
0.00474706 	0.00041365 	3.64457e-06 	0.0266326
0.0063615 	0.000692034 	6.91385e-06 	0.0266304
0.00802553 	0.00131124 	2.18929e-05 	0.0266253
0.00968957 	0.00193597 	3.71656e-05 	0.02662
0.0114047 	0.00264678 	7.19816e-05 	0.0266093
0.0131199 	0.00336517 	0.000107536 	0.026598
0.0148877 	0.00396944 	0.000162636 	0.0265804
0.0166556 	0.00458072 	0.000218843 	0.0265618
0.0177385 	0.0048745 	0.000261512 	0.0265475
0.0188215 	0.00516827 	0.000304181 	0.0265333
0.0378457 	0.0086453 	0.00126513 	0.0262006
0.0378457 	0.0086453 	0.00126513 	0.0262006
0.0390585 	0.00880456 	0.00133285 	0.0261772
0.0402714 	0.00896702 	0.0014017 	0.0261524
0.0407487 	0.00902413 	0.00142872 	0.026143
0.0412261 	0.00908124 	0.00145573 	0.0261337
0.0418331 	0.00915388 	0.00149009 	0.0261218
0.0432372 	0.00932187 	0.00156957 	0.0260943
0.0446413 	0.00949285 	0.00165009 	0.0260653
0.0468934 	0.00974054 	0.00177825 	0.0260208
0.0491454 	0.00999106 	0.00190737 	0.0259749
0.0514667 	0.0102274 	0.00203927 	0.025929
0.0537879 	0.0104665 	0.00217202 	0.0258817
0.0561805 	0.0106933 	0.002307 	0.0258347
0.058573 	0.0109227 	0.00244272 	0.0257863
0.0610391 	0.0111415 	0.00258016 	0.0257384
0.0635052 	0.0113628 	0.00271822 	0.0256891
0.066047 	0.0115747 	0.00285745 	0.0256405
0.0685888 	0.011789 	0.00299718 	0.0255906
0.0712088 	0.0119949 	0.00313756 	0.0255416
0.0738287 	0.0122032 	0.00327829 	0.0254914
0.0765291 	0.0124039 	0.00341935 	0.0254421
0.0792295 	0.0126069 	0.00356059 	0.0253916
0.0820129 	0.012803 	0.00370194 	0.0253422
0.0847962 	0.0130014 	0.00384325 	0.0252915
0.0847962 	0.0130014 	0.00384325 	0.0252915
0.0849396 	0.0130109 	0.0038503 	0.0252891
0.0850831 	0.0130205 	0.00385734 	0.0252866
0.0878085 	0.0132028 	0.00399122 	0.0252395
0.090534 	0.0133873 	0.00412497 	0.0251914
0.0915169 	0.0134498 	0.00417144 	0.0251749
0.0924998 	0.0135123 	0.00421791 	0.0251585
0.0944739 	0.0136378 	0.00431124 	0.0251255
0.0964481 	0.0137656 	0.00440439 	0.0250914
0.0987791 	0.0139066 	0.00451007 	0.0250538
0.10111 	0.014048 	0.0046157 	0.025016
0.101827 	0.0140923 	0.00464807 	0.025004
0.102544 	0.0141366 	0.00468044 	0.024992
0.105686 	0.0143177 	0.00481652 	0.0249431
0.108827 	0.014501 	0.00495219 	0.0248934
0.111903 	0.01467 	0.00507905 	0.0248474
0.114979 	0.0148408 	0.00520546 	0.0248008
0.115141 	0.0148499 	0.00521208 	0.0247983
0.115303 	0.014859 	0.00521871 	0.0247958
0.118641 	0.0150339 	0.00534916 	0.0247481
0.121978 	0.0152111 	0.00547883 	0.0246995
0.124609 	0.0153427 	0.00557576 	0.0246635
0.12724 	0.0154746 	0.00567252 	0.0246274
0.128049 	0.015516 	0.00570195 	0.0246161
0.128858 	0.0155574 	0.00573137 	0.0246047
0.132226 	0.0157182 	0.00584786 	0.0245608
0.135594 	0.0158808 	0.00596349 	0.0245163
0.135772 	0.0158895 	0.00596953 	0.0245139
0.135949 	0.0158981 	0.00597557 	0.0245115
0.139604 	0.0160647 	0.00609381 	0.0244662
0.143259 	0.0162335 	0.0062109 	0.0244202
0.147026 	0.0163973 	0.00632446 	0.0243757
0.150793 	0.0165633 	0.00643679 	0.0243306
0.152655 	0.0166406 	0.00648885 	0.0243098
0.154517 	0.0167179 	0.00654092 	0.0242889
0.156343 	0.0167937 	0.006592 	0.0242684
0.15817 	0.0168713 	0.00664211 	0.0242476
0.158364 	0.0168795 	0.00664743 	0.0242454
0.158558 	0.0168878 	0.00665276 	0.0242431
0.16256 	0.0170462 	0.00675621 	0.0242006
0.166562 	0.0172068 	0.00685858 	0.0241578
0.170687 	0.0173624 	0.00695682 	0.0241164
0.174812 	0.0175202 	0.00705406 	0.0240747
0.179064 	0.0176729 	0.00714709 	0.0240344
0.183315 	0.0178278 	0.00723909 	0.0239939
0.187697 	0.0179776 	0.00732686 	0.0239547
0.192079 	0.0181296 	0.00741352 	0.0239153
0.196596 	0.0182764 	0.00749593 	0.0238771
0.201113 	0.0184253 	0.00757718 	0.0238387
0.205769 	0.0185689 	0.00765412 	0.0238016
0.210425 	0.0187146 	0.00772988 	0.0237643
0.215224 	0.0188549 	0.00780131 	0.0237281
0.220022 	0.0189973 	0.00787157 	0.0236918
0.224968 	0.0191341 	0.00793752 	0.0236566
0.229914 	0.019273 	0.00800231 	0.0236213
0.233813 	0.0193749 	0.00804861 	0.0235951
0.237712 	0.0194772 	0.0080947 	0.0235688
0.238911 	0.0195094 	0.00810847 	0.0235607
0.24011 	0.0195416 	0.00812223 	0.0235526
0.245102 	0.0196645 	0.00817468 	0.0235207
0.250095 	0.0197892 	0.0082262 	0.0234889
0.250357 	0.0197958 	0.00822886 	0.0234872
0.25062 	0.0198025 	0.00823152 	0.0234855
0.256036 	0.0199279 	0.00828152 	0.0234527
0.261452 	0.0200554 	0.00833042 	0.0234198
0.267035 	0.0201766 	0.00837536 	0.0233876
0.272617 	0.0202999 	0.00841924 	0.0233553
0.278371 	0.0204168 	0.00845927 	0.0233235
0.284125 	0.0205356 	0.0084983 	0.0232917
0.290056 	0.020648 	0.00853363 	0.0232602
0.295987 	0.0207622 	0.008568 	0.0232286
0.3021 	0.0208698 	0.00859879 	0.0231972
0.308213 	0.0209793 	0.00862867 	0.0231657
0.314514 	0.0210819 	0.0086551 	0.0231342
0.320815 	0.0211863 	0.00868067 	0.0231026
0.327309 	0.0212838 	0.008703 	0.0230707
0.333803 	0.0213831 	0.00872453 	0.0230387
0.340497 	0.0214753 	0.00874304 	0.0230062
0.347191 	0.0215692 	0.00876081 	0.0229736
0.354091 	0.021656 	0.00877576 	0.0229404
0.36099 	0.0217444 	0.00879002 	0.0229069
0.366429 	0.0218066 	0.00879893 	0.0228806
0.371868 	0.021869 	0.00880774 	0.0228543
0.373541 	0.0218888 	0.00881021 	0.0228461
0.375214 	0.0219085 	0.00881269 	0.0228379
0.382544 	0.0219841 	0.00882132 	0.0228021
0.389874 	0.0220613 	0.00882934 	0.0227659
0.394896 	0.0221078 	0.00883324 	0.0227409
0.399919 	0.0221543 	0.00883714 	0.0227159
0.402451 	0.0221783 	0.00883887 	0.0227031
0.404984 	0.0222026 	0.00884051 	0.0226901
0.412772 	0.0222669 	0.0088439 	0.0226502
0.420559 	0.0223325 	0.00884676 	0.0226096
0.428586 	0.0223912 	0.00884798 	0.0225671
0.436612 	0.0224511 	0.00884869 	0.0225236
0.436612 	0.0224511 	0.00884869 	0.0225236
0.444885 	0.0225042 	0.00884809 	0.0224779
0.453158 	0.0225586 	0.00884699 	0.022431
0.461685 	0.0226064 	0.00884485 	0.0223816
0.470213 	0.0226554 	0.00884224 	0.0223308
0.479002 	0.022698 	0.00883892 	0.0222772
0.487792 	0.0227419 	0.00883513 	0.0222219
0.496851 	0.0227797 	0.008831 	0.0221636
0.505911 	0.0228188 	0.0088264 	0.0221032
0.515248 	0.0228521 	0.00882184 	0.0220396
0.524586 	0.0228867 	0.00881681 	0.0219736
0.53421 	0.0229158 	0.00881222 	0.0219042
0.543835 	0.0229464 	0.00880717 	0.0218319
0.553755 	0.0229717 	0.00880293 	0.0217562
0.563676 	0.0229986 	0.00879825 	0.0216772
0.573901 	0.0230203 	0.00879475 	0.0215946
0.584126 	0.0230439 	0.00879082 	0.0215083
0.593611 	0.0230604 	0.00878859 	0.0214274
0.603096 	0.0230783 	0.00878609 	0.0213437
0.60415 	0.0230804 	0.00878577 	0.0213339
0.605204 	0.0230826 	0.00878545 	0.0213242
0.614055 	0.0230949 	0.00878437 	0.0212445
0.622906 	0.0231079 	0.00878314 	0.0211631
0.624918 	0.0231114 	0.00878277 	0.0211434
0.62693 	0.0231149 	0.00878239 	0.0211238
0.637007 	0.0231252 	0.00878228 	0.0210282
0.647085 	0.0231371 	0.00878194 	0.0209293
0.648204 	0.0231387 	0.00878186 	0.0209177
0.649324 	0.0231403 	0.00878178 	0.0209062
0.658727 	0.0231463 	0.00878284 	0.0208128
0.66813 	0.0231532 	0.00878378 	0.0207174
0.670267 	0.0231554 	0.00878391 	0.0206943
0.672405 	0.0231576 	0.00878404 	0.0206712
0.684301 	0.02316 	0.00878691 	0.020548
0.696196 	0.0231649 	0.00878949 	0.0204185
0.708457 	0.0231608 	0.00879392 	0.0202866
0.720717 	0.0231592 	0.00879814 	0.0201479
0.733355 	0.0231467 	0.00880404 	0.0200071
0.745992 	0.0231363 	0.00880985 	0.019859
0.759018 	0.0231127 	0.00881707 	0.0197094
0.772043 	0.0230906 	0.00882432 	0.0195522
0.785469 	0.0230529 	0.00883262 	0.0193942
0.798895 	0.0230155 	0.00884108 	0.0192281
0.812733 	0.0229605 	0.00885017 	0.0190613
0.826571 	0.0229044 	0.00885957 	0.0188858
0.840835 	0.0228289 	0.00886901 	0.0187094
0.855098 	0.0227507 	0.00887895 	0.0185236
0.86833 	0.022661 	0.00888718 	0.0183561
0.881562 	0.0225683 	0.00889586 	0.0181821
0.883032 	0.0225576 	0.0088969 	0.0181617
0.884502 	0.0225468 	0.00889793 	0.0181414
0.899655 	0.0224201 	0.00890592 	0.0179455
0.914808 	0.0222868 	0.00891484 	0.0177392
0.927534 	0.02216 	0.00891954 	0.0175715
0.94026 	0.0220304 	0.00892467 	0.0173999
0.943153 	0.0219989 	0.00892615 	0.0173582
0.946046 	0.0219675 	0.00892762 	0.0173165
0.962145 	0.0217825 	0.00892991 	0.0171005
0.978243 	0.0215885 	0.00893383 	0.0168727
0.994837 	0.0213753 	0.00893103 	0.0166463
1.01143 	0.0211527 	0.00893026 	0.0164073
1.02854 	0.0209132 	0.0089204 	0.0161703
1.04564 	0.020665 	0.00891294 	0.0159199
1.06327 	0.0204017 	0.00889372 	0.0156721
1.08089 	0.0201309 	0.00887719 	0.0154101
1.09906 	0.0198455 	0.00884579 	0.0151516
1.11723 	0.0195543 	0.00881721 	0.0148781
1.13596 	0.0192468 	0.00877042 	0.0146088
1.15469 	0.0189353 	0.00872639 	0.0143239
1.174 	0.0186037 	0.00866095 	0.0140444
1.1933 	0.0182693 	0.008598 	0.0137485
1.2132 	0.0179089 	0.00851091 	0.0134591
1.23309 	0.0175464 	0.00842583 	0.0131527
1.2536 	0.0171503 	0.00831462 	0.0128539
1.27411 	0.0167522 	0.00820481 	0.0125375
1.29525 	0.0163121 	0.0080681 	0.0122298
1.31638 	0.0158693 	0.00793208 	0.0119041
1.33817 	0.0153771 	0.00776996 	0.0115879
1.35996 	0.0148807 	0.00760777 	0.0112533
1.38017 	0.0143852 	0.00744113 	0.0109615
1.40038 	0.0138857 	0.00727394 	0.0106575
1.40262 	0.0138295 	0.00725528 	0.0106218
1.40487 	0.0137734 	0.00723662 	0.0105861
1.42802 	0.013164 	0.00703436 	0.0102542
1.45117 	0.012546 	0.00683049 	0.00990337
1.47282 	0.0119488 	0.00664188 	0.00959595
1.49446 	0.0113443 	0.00645171 	0.00927563
1.49667 	0.0112815 	0.00643208 	0.00924115
1.49888 	0.0112188 	0.00641245 	0.00920667
1.52347 	0.0105371 	0.00621935 	0.00886197
1.54806 	0.00984269 	0.00602332 	0.00849812
1.57341 	0.00917951 	0.00587745 	0.00814929
1.59876 	0.00850326 	0.00572832 	0.00778142
1.62489 	0.00791263 	0.00567385 	0.0074313
1.65101 	0.00731019 	0.00561631 	0.0070625
1.65101 	0.00731019 	0.00561631 	0.0070625
1.67794 	0.00683934 	0.00570027 	0.00671468
1.70486 	0.00635934 	0.00578212 	0.00634882
1.73262 	0.0060266 	0.00603669 	0.00600652
1.76037 	0.00568794 	0.00629093 	0.00564703
1.78898 	0.00547738 	0.00671695 	0.00531269
1.81759 	0.00526372 	0.00714483 	0.00496216
1.84708 	0.00514057 	0.00771425 	0.00463737
1.87656 	0.00501609 	0.00828736 	0.00429751
1.89829 	0.00496576 	0.00877714 	0.00407204
1.92001 	0.00491543 	0.00926692 	0.00384657
1.92868 	0.00489508 	0.0094646 	0.00374956
1.93735 	0.00487473 	0.00966227 	0.00365255
1.96867 	0.0048346 	0.0103948 	0.00336836
2 	0.00479419 	0.0111317 	0.00307176
