0 	0.000445096 	0 	-0.0230241
0 	0.000445096 	0 	-0.0230241
0.00156631 	0.00077276 	1.75419e-06 	-0.0230307
0.00156631 	0.00077276 	1.75419e-06 	-0.0230307
0.00313263 	0.00110042 	3.50838e-06 	-0.0230374
0.00313263 	0.00110042 	3.50838e-06 	-0.0230374
0.00474706 	0.00269178 	2.27792e-05 	-0.0230629
0.00474706 	0.00269178 	2.27792e-05 	-0.0230629
0.0063615 	0.00428314 	4.20499e-05 	-0.0230885
0.0063615 	0.00428314 	4.20499e-05 	-0.0230885
0.00802553 	0.00670198 	0.00010478 	-0.0231523
0.00802553 	0.00670198 	0.00010478 	-0.0231523
0.00968957 	0.00912082 	0.00016751 	-0.0232162
0.00968957 	0.00912082 	0.00016751 	-0.0232162
0.0114047 	0.0111475 	0.000279126 	-0.0233326
0.0114047 	0.0111475 	0.000279126 	-0.0233326
0.0131199 	0.0131741 	0.000390742 	-0.023449
0.0131199 	0.0131741 	0.000390742 	-0.023449
0.0148877 	0.014732 	0.000538778 	-0.0236114
0.0148877 	0.014732 	0.000538778 	-0.0236114
0.0166556 	0.0162899 	0.000686814 	-0.0237738
0.0166556 	0.0162899 	0.000686814 	-0.0237738
0.0184777 	0.0175469 	0.000861012 	-0.023969
0.0184777 	0.0175469 	0.000861012 	-0.023969
0.0202999 	0.018804 	0.00103521 	-0.0241642
0.0202999 	0.018804 	0.00103521 	-0.0241642
0.022178 	0.0198666 	0.00122967 	-0.0243837
0.022178 	0.0198666 	0.00122967 	-0.0243837
0.0240562 	0.0209293 	0.00142413 	-0.0246031
0.0240562 	0.0209293 	0.00142413 	-0.0246031
0.025992 	0.0218564 	0.00163519 	-0.0248418
0.025992 	0.0218564 	0.00163519 	-0.0248418
0.0279279 	0.0227836 	0.00184625 	-0.0250804
0.0279279 	0.0227836 	0.00184625 	-0.0250804
0.0299232 	0.0236106 	0.00207135 	-0.0253358
0.0319186 	0.0244375 	0.00229646 	-0.0255912
0.0339752 	0.025187 	0.00253365 	-0.025861
0.0360318 	0.0259364 	0.00277084 	-0.0261308
0.0381516 	0.0266236 	0.00301854 	-0.0264126
0.0402714 	0.0273108 	0.00326625 	-0.0266943
0.0424563 	0.0279465 	0.00352311 	-0.0269861
0.0446413 	0.0285823 	0.00377998 	-0.0272779
0.0468933 	0.0291744 	0.00404475 	-0.0275784
0.0491454 	0.0297666 	0.00430953 	-0.027879
0.0514666 	0.0303212 	0.004581 	-0.028187
0.0537879 	0.0308757 	0.00485247 	-0.028495
0.0561804 	0.0313973 	0.00512945 	-0.0288092
0.058573 	0.0319189 	0.00540643 	-0.0291233
0.0610391 	0.032411 	0.00568781 	-0.0294422
0.0635052 	0.0329032 	0.00596919 	-0.0297612
0.066047 	0.0333687 	0.00625407 	-0.0300839
0.0685888 	0.0338342 	0.00653896 	-0.0304067
0.0712087 	0.0342752 	0.00682652 	-0.0307324
0.0738287 	0.0347162 	0.00711408 	-0.0310581
0.0765291 	0.0351345 	0.00740333 	-0.0313856
0.0792295 	0.0355528 	0.00769258 	-0.0317131
0.0820128 	0.0359498 	0.00798225 	-0.0320413
0.0847962 	0.0363468 	0.00827192 	-0.0323695
0.0876651 	0.0367236 	0.00856093 	-0.0326972
0.090534 	0.0371005 	0.00884994 	-0.033025
0.093491 	0.0374582 	0.00913761 	-0.0333514
0.0964481 	0.037816 	0.00942529 	-0.0336779
0.0994961 	0.0381554 	0.00971092 	-0.0340024
0.102544 	0.0384948 	0.00999654 	-0.0343268
0.105686 	0.0388165 	0.0102793 	-0.0346484
0.108827 	0.0391382 	0.010562 	-0.0349701
0.112065 	0.0394428 	0.010841 	-0.0352882
0.115303 	0.0397474 	0.0111201 	-0.0356064
0.118641 	0.0400355 	0.0113946 	-0.0359207
0.121978 	0.0403235 	0.0116692 	-0.0362349
0.125418 	0.0405954 	0.0119385 	-0.036542
0.128858 	0.0408673 	0.0122078 	-0.036849
0.132404 	0.0411237 	0.0124611 	-0.0371384
0.135949 	0.0413801 	0.0127143 	-0.0374277
0.139604 	0.0416223 	0.0129201 	-0.0376892
0.143259 	0.0418645 	0.0131259 	-0.0379506
0.147026 	0.0420938 	0.0132847 	-0.038191
0.150793 	0.0423232 	0.0134434 	-0.0384314
0.150793 	0.0423232 	0.0134434 	-0.0384314
0.154675 	0.0425403 	0.0135855 	-0.0386703
0.154676 	0.0425403 	0.0135855 	-0.0386703
0.158558 	0.0427573 	0.0137275 	-0.0389093
0.158558 	0.0427573 	0.0137275 	-0.0389093
0.16256 	0.0429617 	0.0138641 	-0.0391605
0.166562 	0.0431662 	0.0140007 	-0.0394117
0.166562 	0.0431662 	0.0140007 	-0.0394117
0.170687 	0.0433572 	0.0141367 	-0.0396787
0.174812 	0.0435483 	0.0142728 	-0.0399456
0.174812 	0.0435483 	0.0142728 	-0.0399456
0.179063 	0.0437253 	0.0144121 	-0.0402279
0.183315 	0.0439023 	0.0145513 	-0.0405101
0.183315 	0.0439023 	0.0145513 	-0.0405101
0.192079 	0.0442272 	0.01484 	-0.0411016
0.196596 	0.0443747 	0.0149906 	-0.0414083
0.201113 	0.0445223 	0.0151412 	-0.041715
0.205769 	0.0446549 	0.015299 	-0.0420295
0.210425 	0.0447876 	0.0154569 	-0.042344
0.215223 	0.0449056 	0.0156229 	-0.0426628
0.220022 	0.0450237 	0.0157889 	-0.0429816
0.224968 	0.0451278 	0.0159645 	-0.043301
0.229914 	0.0452319 	0.0161401 	-0.0436204
0.235012 	0.045323 	0.0163281 	-0.0439364
0.24011 	0.0454141 	0.0165162 	-0.0442525
0.25062 	0.0455727 	0.0169252 	-0.0448697
0.261452 	0.0457106 	0.0173736 	-0.0454594
0.272617 	0.045831 	0.0178465 	-0.0459937
0.284125 	0.0459376 	0.018259 	-0.046432
0.295987 	0.0460345 	0.0185199 	-0.0467576
0.308213 	0.0461261 	0.0186486 	-0.0469998
0.320815 	0.0462162 	0.018721 	-0.0471949
0.320815 	0.0462162 	0.018721 	-0.0471949
0.327309 	0.0462622 	0.0187465 	-0.0472818
0.333803 	0.0463082 	0.0187719 	-0.0473687
0.333803 	0.0463082 	0.0187719 	-0.0473687
0.340497 	0.0463567 	0.0187883 	-0.0474514
0.347191 	0.0464052 	0.0188046 	-0.047534
0.347191 	0.0464052 	0.0188046 	-0.047534
0.354091 	0.0464575 	0.0188128 	-0.0476075
0.36099 	0.0465098 	0.018821 	-0.0476811
0.36099 	0.0465098 	0.018821 	-0.0476811
0.368102 	0.0465672 	0.0188221 	-0.0477428
0.375214 	0.0466246 	0.0188231 	-0.0478046
0.375214 	0.0466246 	0.0188231 	-0.0478046
0.382544 	0.0466881 	0.018818 	-0.0478541
0.389874 	0.0467516 	0.0188129 	-0.0479037
0.389874 	0.0467516 	0.0188129 	-0.0479037
0.397429 	0.046822 	0.0188025 	-0.0479398
0.404984 	0.0468925 	0.0187922 	-0.0479759
0.412772 	0.0469705 	0.0187775 	-0.0479994
0.420559 	0.0470485 	0.0187628 	-0.0480229
0.428586 	0.0471344 	0.0187445 	-0.0480334
0.436612 	0.0472204 	0.0187262 	-0.0480438
0.444885 	0.0473146 	0.0187051 	-0.0480408
0.453158 	0.0474088 	0.0186839 	-0.0480377
0.461686 	0.0475111 	0.0186604 	-0.0480217
0.470213 	0.0476135 	0.0186368 	-0.0480057
0.479003 	0.0477237 	0.0186112 	-0.0479714
0.487792 	0.047834 	0.0185856 	-0.0479371
0.496852 	0.0479517 	0.0185582 	-0.0478861
0.505911 	0.0480695 	0.0185308 	-0.0478351
0.515249 	0.0481942 	0.0185016 	-0.0477699
0.524586 	0.0483189 	0.0184724 	-0.0477047
0.534211 	0.0484499 	0.0184414 	-0.0476201
0.543835 	0.0485809 	0.0184104 	-0.0475355
0.543835 	0.0485809 	0.0184104 	-0.0475355
0.553755 	0.0487175 	0.0183775 	-0.0474365
0.553756 	0.0487175 	0.0183775 	-0.0474365
0.563676 	0.048854 	0.0183446 	-0.0473374
0.563676 	0.048854 	0.0183446 	-0.0473374
0.573901 	0.0489954 	0.0183096 	-0.047219
0.573901 	0.0489954 	0.0183096 	-0.047219
0.584126 	0.0491367 	0.0182746 	-0.0471005
0.584126 	0.0491367 	0.0182746 	-0.0471005
0.594665 	0.0492818 	0.0182373 	-0.046968
0.594665 	0.0492818 	0.0182373 	-0.046968
0.605204 	0.049427 	0.0181999 	-0.0468354
0.605204 	0.049427 	0.0181999 	-0.0468354
0.616067 	0.0495749 	0.0181599 	-0.0466887
0.616067 	0.0495749 	0.0181599 	-0.0466887
0.62693 	0.0497229 	0.0181198 	-0.046542
0.62693 	0.0497229 	0.0181198 	-0.046542
0.638127 	0.0498726 	0.0180767 	-0.0463769
0.638127 	0.0498726 	0.0180767 	-0.0463769
0.649324 	0.0500223 	0.0180337 	-0.0462118
0.649324 	0.0500223 	0.0180337 	-0.0462118
0.649324 	0.0500223 	0.0180337 	-0.0462118
0.660864 	0.0501723 	0.017987 	-0.0460369
0.660864 	0.0501723 	0.017987 	-0.0460369
0.672405 	0.0503223 	0.0179404 	-0.045862
0.672405 	0.0503223 	0.0179404 	-0.045862
0.6843 	0.0504711 	0.0178899 	-0.0456793
0.6843 	0.0504711 	0.0178899 	-0.0456793
0.696196 	0.0506199 	0.0178394 	-0.0454967
0.696196 	0.0506199 	0.0178394 	-0.0454967
0.708456 	0.0507654 	0.0177849 	-0.0453077
0.708457 	0.0507654 	0.0177849 	-0.0453077
0.720717 	0.0509109 	0.0177304 	-0.0451187
0.720717 	0.0509109 	0.0177304 	-0.0451187
0.733354 	0.0510508 	0.0176717 	-0.0449252
0.733355 	0.0510508 	0.0176717 	-0.0449252
0.745992 	0.0511907 	0.017613 	-0.0447316
0.745992 	0.0511907 	0.017613 	-0.0447316
0.759017 	0.0513223 	0.0175498 	-0.0445359
0.759017 	0.0513223 	0.0175498 	-0.0445359
0.772043 	0.051454 	0.0174866 	-0.0443402
0.772043 	0.051454 	0.0174866 	-0.0443402
0.785469 	0.0515743 	0.0174183 	-0.0441447
0.785469 	0.0515743 	0.0174183 	-0.0441447
0.798895 	0.0516947 	0.0173501 	-0.0439492
0.798895 	0.0516947 	0.0173501 	-0.0439492
0.812733 	0.0518007 	0.0172759 	-0.0437562
0.812733 	0.0518007 	0.0172759 	-0.0437562
0.826571 	0.0519068 	0.0172017 	-0.0435632
0.826571 	0.0519068 	0.0172017 	-0.0435632
0.840834 	0.0519955 	0.0171203 	-0.0433758
0.840834 	0.0519955 	0.0171203 	-0.0433758
0.855098 	0.0520843 	0.017039 	-0.0431884
0.855098 	0.0520843 	0.017039 	-0.0431884
0.8698 	0.0521533 	0.016949 	-0.0430118
0.8698 	0.0521533 	0.016949 	-0.0430118
0.884502 	0.0522223 	0.0168589 	-0.0428351
0.884502 	0.0522223 	0.0168589 	-0.0428351
0.899655 	0.0522697 	0.0167586 	-0.0426755
0.914808 	0.0523172 	0.0166583 	-0.0425159
0.930427 	0.0523418 	0.0165464 	-0.0423784
0.946046 	0.0523664 	0.0164344 	-0.0422409
0.962144 	0.052367 	0.0163096 	-0.0421308
0.978243 	0.0523676 	0.0161848 	-0.0420207
0.994836 	0.0523425 	0.0160456 	-0.0419425
1.01143 	0.0523175 	0.0159065 	-0.0418644
1.02853 	0.0522646 	0.0157517 	-0.0418189
1.04564 	0.0522118 	0.0155968 	-0.0417735
1.06326 	0.0521281 	0.0154253 	-0.0417667
1.08089 	0.0520445 	0.0152538 	-0.04176
1.09906 	0.0519264 	0.015065 	-0.0418015
1.11723 	0.0518083 	0.0148763 	-0.0418431
1.13596 	0.0516511 	0.0146699 	-0.0419423
1.15469 	0.0514939 	0.0144636 	-0.0420415
1.15469 	0.0514939 	0.0144636 	-0.0420415
1.174 	0.0512902 	0.0142389 	-0.042213
1.174 	0.0512902 	0.0142389 	-0.042213
1.1933 	0.0510865 	0.0140143 	-0.0423846
1.1933 	0.0510865 	0.0140143 	-0.0423846
1.2132 	0.0508234 	0.0137702 	-0.0426425
1.2132 	0.0508234 	0.0137702 	-0.0426425
1.23309 	0.0505603 	0.0135262 	-0.0429004
1.23309 	0.0505603 	0.0135262 	-0.0429004
1.2536 	0.0502162 	0.0132604 	-0.0432566
1.2536 	0.0502162 	0.0132604 	-0.0432566
1.27411 	0.049872 	0.0129946 	-0.0436129
1.27411 	0.049872 	0.0129946 	-0.0436129
1.29524 	0.0494134 	0.0127033 	-0.044082
1.29524 	0.0494134 	0.0127033 	-0.044082
1.31638 	0.0489547 	0.0124121 	-0.0445511
1.31638 	0.0489547 	0.0124121 	-0.0445511
1.33817 	0.0483332 	0.0120901 	-0.0451486
1.33817 	0.0483332 	0.0120901 	-0.0451486
1.35996 	0.0477117 	0.0117681 	-0.045746
1.35996 	0.0477117 	0.0117681 	-0.045746
1.38241 	0.0468605 	0.0114084 	-0.0464828
1.38241 	0.0468605 	0.0114084 	-0.0464828
1.40487 	0.0460093 	0.0110487 	-0.0472196
1.40487 	0.0460093 	0.0110487 	-0.0472196
1.42802 	0.0448415 	0.0106433 	-0.048081
1.42802 	0.0448415 	0.0106433 	-0.048081
1.45117 	0.0436737 	0.0102379 	-0.0489424
1.45117 	0.0436737 	0.0102379 	-0.0489424
1.47503 	0.0420814 	0.00977803 	-0.0499039
1.47503 	0.0420814 	0.00977803 	-0.0499039
1.49888 	0.040489 	0.00931818 	-0.0508655
1.49888 	0.040489 	0.00931818 	-0.0508655
1.52347 	0.0383539 	0.00879772 	-0.0518049
1.52347 	0.0383539 	0.00879772 	-0.0518049
1.54806 	0.0362189 	0.00827727 	-0.0527443
1.54806 	0.0362189 	0.00827727 	-0.0527443
1.57341 	0.0334598 	0.00769922 	-0.05342
1.57341 	0.0334598 	0.00769922 	-0.05342
1.59876 	0.0307007 	0.00712117 	-0.0540956
1.59876 	0.0307007 	0.00712117 	-0.0540956
1.62488 	0.0274049 	0.00651742 	-0.054414
1.62489 	0.0274049 	0.00651742 	-0.054414
1.65101 	0.0241091 	0.00591367 	-0.0547324
1.65101 	0.0241091 	0.00591367 	-0.0547324
1.67793 	0.0206961 	0.00537191 	-0.054686
1.67794 	0.0206961 	0.00537191 	-0.054686
1.70486 	0.0172831 	0.00483015 	-0.0546395
1.70486 	0.0172831 	0.00483015 	-0.0546395
1.70486 	0.0172831 	0.00483015 	-0.0546395
1.73261 	0.0144425 	0.00449699 	-0.0542537
1.73262 	0.0144425 	0.00449699 	-0.0542537
1.76037 	0.0116018 	0.00416383 	-0.0538679
1.76037 	0.0116018 	0.00416383 	-0.0538679
1.78898 	0.00983516 	0.00421142 	-0.0533882
1.78898 	0.00983516 	0.00421142 	-0.0533882
1.81759 	0.0080685 	0.004259 	-0.0529085
1.81759 	0.0080685 	0.004259 	-0.0529085
1.84707 	0.0072684 	0.00475652 	-0.0525879
1.84708 	0.0072684 	0.00475652 	-0.0525879
1.87656 	0.00646829 	0.00525403 	-0.0522672
1.87656 	0.00646829 	0.00525403 	-0.0522672
1.90695 	0.0061727 	0.00607186 	-0.0521233
1.90696 	0.0061727 	0.00607186 	-0.0521233
1.93735 	0.00587712 	0.00688968 	-0.0519794
1.93735 	0.00587712 	0.00688968 	-0.0519794
1.96867 	0.00576304 	0.00762366 	-0.0524732
1.96868 	0.00576304 	0.00762366 	-0.0524732
2 	0.00564895 	0.00835765 	-0.0529669
2 	0.00564895 	0.00835765 	-0.0529669
