0 	0.000237568 	0 	0.0585251
0.00117473 	0.000399608 	5.187e-07 	0.0585201
0.00234946 	0.000559871 	1.02374e-06 	0.058515
0.00356029 	0.00163994 	8.82945e-06 	0.0584942
0.00477112 	0.0027145 	1.6489e-05 	0.0584731
0.00601914 	0.00475377 	4.93421e-05 	0.0584175
0.00726717 	0.00679457 	8.18243e-05 	0.0583609
0.00855354 	0.00879771 	0.000151173 	0.0582464
0.0098399 	0.0108114 	0.000220079 	0.0581296
0.0111658 	0.0123747 	0.000321287 	0.0579517
0.0124917 	0.0139464 	0.000422126 	0.0577701
0.0138583 	0.0151795 	0.00054701 	0.0575442
0.0152249 	0.0164177 	0.000671594 	0.0573136
0.0166335 	0.017435 	0.000814633 	0.0570547
0.0180421 	0.0184554 	0.000957397 	0.0567903
0.019494 	0.0193258 	0.00111509 	0.0565048
0.0209459 	0.0201981 	0.00127251 	0.0562133
0.0224424 	0.0209624 	0.00144243 	0.0559043
0.0239389 	0.0217279 	0.00161205 	0.055589
0.0254813 	0.0224118 	0.00179237 	0.0552593
0.0270238 	0.0230966 	0.00197232 	0.054923
0.0286136 	0.0237171 	0.00216151 	0.0545751
0.0302035 	0.0243383 	0.00235027 	0.0542204
0.0318422 	0.0249073 	0.00254702 	0.0538562
0.0334809 	0.0254768 	0.00274325 	0.0534851
0.0351699 	0.0260029 	0.00294637 	0.0531064
0.036859 	0.0265293 	0.00314891 	0.0527206
0.0385999 	0.0270187 	0.00335733 	0.0523286
0.0403408 	0.0275084 	0.00356506 	0.0519295
0.0421353 	0.0279662 	0.00377763 	0.0515255
0.0439297 	0.028424 	0.00398942 	0.0511143
0.0457792 	0.0288543 	0.0042051 	0.0506992
0.0476288 	0.0292844 	0.00441989 	0.0502769
0.0495351 	0.0296904 	0.00463789 	0.049852
0.0514415 	0.030096 	0.00485491 	0.0494196
0.0534065 	0.0304801 	0.00507452 	0.0489854
0.0553714 	0.0308637 	0.00529303 	0.0485431
0.0573967 	0.0312277 	0.00551349 	0.0480982
0.059422 	0.0315911 	0.00573276 	0.047645
0.0615095 	0.0319363 	0.0059533 	0.0471916
0.0635971 	0.0322809 	0.00617258 	0.0467327
0.0657487 	0.0326084 	0.00638836 	0.0462974
0.0679004 	0.0329356 	0.00659571 	0.0458638
0.0701181 	0.0332486 	0.00674953 	0.0454949
0.0723359 	0.0335622 	0.00689096 	0.0451314
0.0746218 	0.033866 	0.00696752 	0.0448382
0.0769077 	0.0341708 	0.00703967 	0.0445454
0.0792639 	0.034468 	0.0070968 	0.0442823
0.08162 	0.034766 	0.00715574 	0.0440124
0.08162 	0.034766 	0.00715574 	0.0440124
0.0840485 	0.0350554 	0.00721481 	0.0437396
0.086477 	0.0353452 	0.00727652 	0.0434569
0.0889801 	0.0356249 	0.00733828 	0.0431655
0.0914833 	0.0359047 	0.00740202 	0.0428643
0.0940633 	0.0361732 	0.00746706 	0.0425557
0.0966433 	0.0364413 	0.00753386 	0.0422375
0.0993028 	0.0366968 	0.00760335 	0.0419121
0.101962 	0.0369517 	0.00767453 	0.0415768
0.104703 	0.0371929 	0.00774906 	0.041234
0.107444 	0.0374333 	0.00782526 	0.0408812
0.110269 	0.0376589 	0.0079053 	0.0405206
0.113094 	0.0378838 	0.00798681 	0.0401499
0.116006 	0.0380932 	0.00807295 	0.0397713
0.118919 	0.0383019 	0.00816026 	0.0393826
0.12192 	0.0384946 	0.00825311 	0.0389859
0.124921 	0.0386866 	0.00834699 	0.0385791
0.128015 	0.0388624 	0.00844697 	0.0381642
0.131108 	0.0390377 	0.00854783 	0.0377391
0.134297 	0.0391967 	0.0086554 	0.0373063
0.137486 	0.0393554 	0.00876373 	0.0368631
0.140772 	0.0394976 	0.00887967 	0.0364126
0.144059 	0.03964 	0.00899624 	0.0359516
0.147447 	0.039766 	0.00912115 	0.0354836
0.150835 	0.0398925 	0.00924661 	0.0350048
0.154327 	0.0400029 	0.00938116 	0.0345197
0.157818 	0.0401141 	0.00951619 	0.0340237
0.161417 	0.0402096 	0.00966134 	0.0335217
0.165016 	0.0403063 	0.00980683 	0.0330088
0.168726 	0.040388 	0.00996388 	0.0324905
0.172436 	0.040471 	0.0101212 	0.0319608
0.176259 	0.0405398 	0.0102915 	0.0314266
0.180083 	0.0406103 	0.0104619 	0.0308808
0.184024 	0.0406674 	0.0106462 	0.0303312
0.187965 	0.0407264 	0.0108307 	0.0297698
0.192027 	0.0407731 	0.0110303 	0.0292049
0.196089 	0.0408218 	0.0112299 	0.0286285
0.200276 	0.0408592 	0.0114465 	0.0280485
0.204463 	0.0408988 	0.0116628 	0.0274575
0.208778 	0.0409282 	0.0118986 	0.0268631
0.213093 	0.0409599 	0.0121336 	0.0262582
0.217542 	0.0409826 	0.0123905 	0.0256506
0.22199 	0.0410077 	0.0126464 	0.0250325
0.226574 	0.0410249 	0.0129264 	0.0244132
0.231159 	0.0410444 	0.0132051 	0.0237831
0.235885 	0.0410566 	0.0135098 	0.0231542
0.240611 	0.0410714 	0.0138129 	0.0225137
0.245481 	0.041079 	0.0141438 	0.0218756
0.250352 	0.0410896 	0.0144728 	0.0212252
0.255373 	0.0410931 	0.0148354 	0.0205776
0.260393 	0.0410999 	0.0151956 	0.0199169
0.265568 	0.0411007 	0.0155835 	0.0192848
0.270742 	0.0411046 	0.0159701 	0.0186366
0.276076 	0.0411044 	0.0162536 	0.0180831
0.281409 	0.0411067 	0.0165476 	0.0175084
0.286907 	0.0411077 	0.0166524 	0.0170648
0.292405 	0.0411109 	0.0167699 	0.0165985
0.298071 	0.0411156 	0.0168048 	0.0162226
0.303737 	0.0411225 	0.0168435 	0.0158276
0.309578 	0.0411329 	0.0168717 	0.0154745
0.315419 	0.0411454 	0.0169033 	0.0151051
0.315419 	0.0411454 	0.0169033 	0.0151051
0.321439 	0.0411628 	0.0169266 	0.0147675
0.327459 	0.041182 	0.016953 	0.014414
0.333663 	0.041207 	0.0169719 	0.014097
0.339868 	0.0412333 	0.0169935 	0.0137646
0.346264 	0.0412665 	0.0170083 	0.0134719
0.352659 	0.0413008 	0.0170255 	0.0131645
0.359251 	0.0413434 	0.0170369 	0.0128981
0.365843 	0.0413871 	0.0170508 	0.0126175
0.372638 	0.0414403 	0.0170597 	0.012377
0.379432 	0.0414945 	0.0170711 	0.0121235
0.386436 	0.0415594 	0.0170777 	0.0119051
0.393439 	0.0416251 	0.0170868 	0.0116759
0.400657 	0.0417023 	0.0170915 	0.0114937
0.407875 	0.0417805 	0.0170985 	0.0112973
0.415316 	0.0418708 	0.0171019 	0.0111626
0.422756 	0.041962 	0.0171073 	0.011015
0.430425 	0.0420658 	0.0171098 	0.0109212
0.438094 	0.0421706 	0.017114 	0.010816
0.445998 	0.042288 	0.0171156 	0.0107724
0.453903 	0.0424065 	0.0171191 	0.0107167
0.46205 	0.0425375 	0.0171197 	0.0107258
0.470197 	0.0426695 	0.0171225 	0.0107254
0.478594 	0.0428137 	0.0171219 	0.0107791
0.486992 	0.0429591 	0.0171237 	0.0108246
0.495647 	0.0431158 	0.0171215 	0.0109227
0.504303 	0.0432739 	0.017122 	0.011015
0.513224 	0.0434423 	0.0171177 	0.0111641
0.522146 	0.0436123 	0.0171164 	0.0113076
0.531341 	0.0437912 	0.0171098 	0.0115092
0.540537 	0.043972 	0.0171065 	0.0117064
0.550015 	0.0441603 	0.0170974 	0.0119586
0.559493 	0.0443508 	0.0170915 	0.012208
0.569262 	0.044547 	0.0170798 	0.012511
0.579032 	0.0447458 	0.017071 	0.0128133
0.589101 	0.0449485 	0.0170562 	0.0131663
0.59917 	0.0451541 	0.0170442 	0.0135205
0.609549 	0.0453617 	0.017026 	0.0139189
0.619928 	0.0455725 	0.0170105 	0.0143212
0.630625 	0.0457832 	0.0169885 	0.0147653
0.641323 	0.0459976 	0.0169691 	0.0152159
0.652349 	0.0462096 	0.0169431 	0.0157031
0.663375 	0.0464258 	0.0169196 	0.0161991
0.67474 	0.046637 	0.0168891 	0.0167175
0.686105 	0.046853 	0.0168611 	0.017248
0.697819 	0.0470615 	0.0168257 	0.0177859
0.709533 	0.0472752 	0.0167926 	0.0183392
0.721607 	0.0474786 	0.0167519 	0.0188861
0.733681 	0.0476877 	0.0167133 	0.0194507
0.746126 	0.0478834 	0.0166667 	0.0199952
0.758571 	0.0480854 	0.0166221 	0.0205602
0.758571 	0.0480854 	0.0166221 	0.0205602
0.771399 	0.0482706 	0.016569 	0.021085
0.784226 	0.0484626 	0.0165177 	0.0216345
0.797447 	0.0486342 	0.0164573 	0.0221187
0.810669 	0.0488131 	0.0163986 	0.0226321
0.824296 	0.0489674 	0.0163296 	0.0230606
0.837924 	0.0491299 	0.0162626 	0.023524
0.85197 	0.0492627 	0.0161839 	0.0238714
0.866016 	0.0494046 	0.0161074 	0.0242616
0.880494 	0.0495111 	0.0160181 	0.0244914
0.894972 	0.0496275 	0.0159311 	0.0247689
0.909894 	0.0497024 	0.0158299 	0.0248598
0.924817 	0.0497878 	0.0157313 	0.0249942
0.940198 	0.0498249 	0.0156168 	0.024951
0.955579 	0.0498732 	0.015505 	0.0249343
0.971433 	0.0498647 	0.0153754 	0.0247773
0.987287 	0.0498673 	0.0152484 	0.0246279
1.00363 	0.0498078 	0.0151027 	0.0242773
1.01997 	0.0497576 	0.014959 	0.0239247
1.03681 	0.0496471 	0.0147982 	0.0234278
1.05365 	0.0495437 	0.0146387 	0.0229157
1.07101 	0.0493813 	0.0144637 	0.0222372
1.08837 	0.0492248 	0.0142897 	0.0215337
1.10627 	0.0490041 	0.0140997 	0.020757
1.12416 	0.0487899 	0.013911 	0.0199482
1.1426 	0.0485023 	0.0137042 	0.0190117
1.16105 	0.0482233 	0.0134989 	0.0180391
1.18006 	0.0478567 	0.0132689 	0.017052
1.19907 	0.0475013 	0.013042 	0.0160291
1.21866 	0.0470384 	0.0127713 	0.0149006
1.23825 	0.0465907 	0.0125073 	0.0137422
1.25845 	0.0460075 	0.0122042 	0.0125976
1.27864 	0.0454447 	0.0119106 	0.0114229
1.29946 	0.0447094 	0.0115339 	0.0101077
1.32028 	0.0440022 	0.0111657 	0.00875971
1.34174 	0.0430714 	0.010813 	0.00773457
1.36319 	0.0421779 	0.0104641 	0.00668858
1.3853 	0.0409894 	0.00988793 	0.00450762
1.40741 	0.0398492 	0.00930782 	0.00229904
1.43021 	0.0382081 	0.0089554 	0.00316539
1.45301 	0.0366362 	0.00860676 	0.00402839
1.4765 	0.0352407 	0.00814818 	0.00186055
1.5 	0.0339066 	0.00767998 	-0.000363989
1.50286 	0.0336496 	0.00760848 	-0.0012029
1.50572 	0.0333926 	0.00753699 	-0.0020418
1.51427 	0.032565 	0.00734526 	-0.00450362
1.52282 	0.0317436 	0.0071476 	-0.00698404
1.52865 	0.0311417 	0.00704274 	-0.00861754
1.53448 	0.0305397 	0.00693788 	-0.010251
1.53747 	0.0302551 	0.0069356 	-0.010221
1.54045 	0.0299704 	0.00693333 	-0.0101909
1.54954 	0.0290583 	0.00693338 	-0.0101471
1.55862 	0.0281473 	0.0069363 	-0.010065
1.56503 	0.0274787 	0.00691453 	-0.0100579
1.57144 	0.0268101 	0.00689276 	-0.0100507
1.57439 	0.0265079 	0.00684601 	-0.0102029
1.57735 	0.0262057 	0.00679926 	-0.0103551
1.587 	0.0251908 	0.00663523 	-0.0108227
1.59665 	0.0241741 	0.00645537 	-0.0112912
1.60388 	0.0233957 	0.00631338 	-0.0116172
1.61112 	0.0226174 	0.00617138 	-0.0119431
1.61383 	0.0223279 	0.00612082 	-0.0121418
1.61655 	0.0220384 	0.00607026 	-0.0123406
1.6268 	0.0209347 	0.0058626 	-0.0130577
1.63705 	0.0198275 	0.00565347 	-0.0137806
1.64544 	0.0189332 	0.00549044 	-0.0143385
1.65384 	0.0180388 	0.00532742 	-0.0148964
1.65601 	0.0178094 	0.00528555 	-0.0150325
1.65819 	0.01758 	0.00524368 	-0.0151686
1.66909 	0.0164767 	0.00505372 	-0.0158349
1.67998 	0.01537 	0.00486318 	-0.0164991
1.68999 	0.0144346 	0.00471606 	-0.0170919
1.7 	0.0134991 	0.00456895 	-0.0176846
1.70122 	0.0133866 	0.00455129 	-0.0177538
1.70244 	0.0132742 	0.00453363 	-0.0178229
1.71401 	0.0123287 	0.0044086 	-0.0184508
1.72558 	0.011381 	0.00428305 	-0.0190774
1.73751 	0.0105676 	0.0042128 	-0.0196964
1.74944 	0.00975364 	0.00414239 	-0.0203151
1.74972 	0.00973836 	0.00414235 	-0.0203288
1.75 	0.00972309 	0.0041423 	-0.0203425
1.76202 	0.00908276 	0.00414447 	-0.0209643
1.77403 	0.00844242 	0.00414664 	-0.0215861
1.78671 	0.00794877 	0.00423577 	-0.0221904
1.79938 	0.00745179 	0.00432341 	-0.0227947
1.80186 	0.00738445 	0.00435714 	-0.0229032
1.80435 	0.00731711 	0.00439086 	-0.0230116
1.81492 	0.00703669 	0.00453689 	-0.0235054
1.8255 	0.00675627 	0.00468292 	-0.0239992
1.83897 	0.00652801 	0.00494793 	-0.0245718
1.85243 	0.00629631 	0.00521158 	-0.0251451
1.85803 	0.00623667 	0.0053456 	-0.0253629
1.86364 	0.00617703 	0.00547962 	-0.0255807
1.87191 	0.00609043 	0.0056774 	-0.025922
1.88019 	0.00600382 	0.00587518 	-0.0262633
1.89449 	0.00591103 	0.00625425 	-0.0267983
1.90879 	0.00581707 	0.00663408 	-0.027334
1.91868 	0.00577468 	0.00691275 	-0.0276734
1.92856 	0.00573229 	0.00719142 	-0.0280128
1.93342 	0.0057116 	0.0073278 	-0.0281895
1.93828 	0.0056909 	0.00746418 	-0.0283663
1.95348 	0.00564431 	0.00791293 	-0.0289364
1.96867 	0.00559763 	0.00836201 	-0.0295087
1.98433 	0.00555654 	0.00888746 	-0.0299626
2 	0.00551544 	0.00941291 	-0.0304165
2 	0.00551544 	0.00941291 	-0.0304165
2.02188 	0.00547111 	0.010086 	-0.0310015
2.04376 	0.00542679 	0.0107592 	-0.0315865
