# kMean  POINT_DATA 37934
# x  y  z  kMean
0 0.1 0 0.00375
0 0.1 -0.0333777 0.00375
0 0.1 0.0333777 0.00375
0 0.1 -0.0666223 0.00375
0 0.1 0.0666223 0.00375
0.075776 0.1 -0.05 0.00374673
0.075776 0.1 0.05 0.00374672
0 0.1 -0.1 0.00375
0 0.1 0.1 0.00375
0 0.1 -0.133378 0.00375
0 0.1 0.133378 0.00375
0.151552 0.1 0 0.00374197
0 0.1 -0.166622 0.00375
0 0.1 0.166622 0.00375
0.075776 0.1 -0.15 0.0037471
0.075776 0.1 0.15 0.00374709
0.151552 0.1 -0.1 0.00374237
0.151552 0.1 0.1 0.00374237
0 0.1 -0.2 0.00375
0 0.1 0.2 0.00375
0.219992 0.1 -0.05 0.00373729
0.219992 0.1 0.05 0.00373729
0 0.1 0.233378 0.00375
0 0.1 -0.233378 0.00375
0.151552 0.1 -0.2 0.00374326
0.151552 0.1 0.2 0.00374325
0.075776 0.1 -0.25 0.00374771
0.075776 0.1 0.25 0.00374771
0.219992 0.1 -0.15 0.00373838
0.219992 0.1 0.15 0.00373837
0 0.1 0.266622 0.00375
0 0.1 -0.266622 0.00375
0.288433 0.1 0 0.00373078
0 0.1 -0.3 0.00375
0 0.1 0.3 0.00375
0.288433 0.1 -0.1 0.0037314
0.288433 0.1 0.1 0.00373139
0.219992 0.1 -0.25 0.0037396
0.219992 0.1 0.25 0.0037396
0 0.1 -0.333378 0.00375
0 0.1 0.333378 0.00375
0.151552 0.1 -0.3 0.00374428
0.151552 0.1 0.3 0.00374428
0.288433 0.1 -0.2 0.00373275
0.288433 0.1 0.2 0.00373274
0.350249 0.1 0.05 0.00372509
0.350249 0.1 -0.05 0.00372509
0.075776 0.1 0.35 0.00374838
0.075776 0.1 -0.35 0.00374838
0 0.1 -0.366622 0.00375
0 0.1 0.366622 0.00375
0.350249 0.1 -0.15 0.00372629
0.350249 0.1 0.15 0.00372628
0 0.1 -0.4 0.00375
0 0.1 0.4 0.00375
0.412065 0.1 1.85037e-17 0.00371915
0.219992 0.1 -0.35 0.00374093
0.219992 0.1 0.35 0.00374093
0.288433 0.1 -0.3 0.00373425
0.288433 0.1 0.3 0.00373424
0.412065 0.1 -0.1 0.00371977
0.412065 0.1 0.1 0.00371976
0.151552 0.1 -0.4 0.00374534
0.151552 0.1 0.4 0.00374533
0.350249 0.1 -0.25 0.00372788
0.350249 0.1 0.25 0.00372787
0 0.1 0.433378 0.00375
0 0.1 -0.433378 0.00375
0.075776 0.1 -0.45 0.00374908
0.075776 0.1 0.45 0.00374907
0.412065 0.1 -0.2 0.00372121
0.412065 0.1 0.2 0.0037212
0 0.1 -0.466622 0.00375
0 0.1 0.466622 0.00375
0.467897 0.1 0.05 0.00371465
0.467897 0.1 -0.05 0.00371466
0.467897 0.1 -0.15 0.00371579
0.467897 0.1 0.15 0.00371578
0.288433 0.1 -0.4 0.00373574
0.288433 0.1 0.4 0.00373573
0.350249 0.1 -0.35 0.00372951
0.350249 0.1 0.35 0.0037295
0 0.1 -0.5 0.00375
0 0.1 0.5 0.00375
0.219992 0.1 -0.45 0.00374219
0.219992 0.1 0.45 0.00374218
0.412065 0.1 -0.3 0.00372284
0.412065 0.1 0.3 0.00372283
0.151552 0.1 -0.5 0.0037463
0.151552 0.1 0.5 0.0037463
0.523729 0.1 -1.23276e-17 0.00371066
0.467897 0.1 -0.25 0.00371736
0.467897 0.1 0.25 0.00371735
0.523729 0.1 -0.1 0.0037112
0.523729 0.1 0.1 0.00371119
0 0.1 -0.533378 0.00375
0 0.1 0.533378 0.00375
0.075776 0.1 -0.55 0.00374974
0.075776 0.1 0.55 0.00374973
0.523729 0.1 -0.2 0.00371244
0.523729 0.1 0.2 0.00371243
0 0.1 0.566622 0.00375
0 0.1 -0.566622 0.00375
0.350249 0.1 0.45 0.00373103
0.350249 0.1 -0.45 0.00373104
0.412065 0.1 -0.4 0.00372438
0.412065 0.1 0.4 0.00372437
0.574156 0.1 -0.05 0.00370834
0.574156 0.1 0.05 0.00370834
0.288433 0.1 -0.5 0.00373706
0.288433 0.1 0.5 0.00373706
0.467897 0.1 -0.35 0.00371887
0.467897 0.1 0.35 0.00371885
0.219992 0.1 -0.55 0.00374325
0.219992 0.1 0.55 0.00374324
0.574156 0.1 -0.15 0.00370923
0.574156 0.1 0.15 0.00370922
0 0.1 -0.6 0.00375
0 0.1 0.6 0.00375
0.523729 0.1 -0.3 0.0037138
0.523729 0.1 0.3 0.00371379
0.151552 0.1 -0.6 0.0037472
0.151552 0.1 0.6 0.0037472
0.624584 0.1 -1.23276e-17 0.00370672
0.574156 0.1 0.25 0.00371036
0.574156 0.1 -0.25 0.00371038
0.624584 0.1 -0.1 0.0037071
0.624584 0.1 0.1 0.00370709
0 0.1 0.633378 0.00375
0 0.1 -0.633378 0.00375
0.412065 0.1 -0.5 0.00372572
0.412065 0.1 0.5 0.0037257
0.467897 0.1 -0.45 0.00372017
0.467897 0.1 0.45 0.00372016
0.350249 0.1 0.55 0.00373235
0.350249 0.1 -0.55 0.00373236
0.075776 0.1 0.65 0.00375036
0.075776 0.1 -0.65 0.00375036
0.624584 0.1 -0.2 0.00370792
0.624584 0.1 0.2 0.00370791
0.523729 0.1 -0.4 0.00371497
0.523729 0.1 0.4 0.00371495
0.288433 0.1 -0.6 0.00373826
0.288433 0.1 0.6 0.00373825
0 0.1 -0.666622 0.00375
0 0.1 0.666622 0.00375
0.67013 0.1 0.05 0.00370678
0.67013 0.1 -0.05 0.00370678
0.574156 0.1 -0.35 0.00371137
0.574156 0.1 0.35 0.00371136
0.219992 0.1 0.65 0.00374431
0.219992 0.1 -0.65 0.00374432
0.67013 0.1 -0.15 0.00370732
0.67013 0.1 0.15 0.00370731
0.624584 0.1 -0.3 0.00370867
0.624584 0.1 0.3 0.00370865
0 0.1 -0.7 0.00375
0 0.1 0.7 0.00375
0.67013 0.1 -0.25 0.00370784
0.67013 0.1 0.25 0.00370782
0.715676 0.1 -9.25186e-18 0.00370731
0.151552 0.1 -0.7 0.00374805
0.151552 0.1 0.7 0.00374805
0.467897 0.1 -0.55 0.00372118
0.467897 0.1 0.55 0.00372117
0.715676 0.1 -0.1 0.0037075
0.715676 0.1 0.1 0.00370749
0.523729 0.1 -0.5 0.00371584
0.523729 0.1 0.5 0.00371582
0.412065 0.1 -0.6 0.00372684
0.412065 0.1 0.6 0.00372683
0.574156 0.1 0.45 0.00371205
0.574157 0.1 -0.45 0.00371207
0 0.1 -0.733378 0.00375
0 0.1 0.733378 0.00375
0.350249 0.1 -0.65 0.00373359
0.350249 0.1 0.65 0.00373358
0.624584 0.1 -0.4 0.00370909
0.624584 0.1 0.4 0.00370907
0.715676 0.1 -0.2 0.00370778
0.715676 0.1 0.2 0.00370776
0.075776 0.1 0.75 0.00375088
0.075776 0.1 -0.75 0.00375089
0.67013 0.1 -0.35 0.003708
0.67013 0.1 0.35 0.00370798
0.288433 0.1 -0.7 0.00373939
0.288433 0.1 0.7 0.00373938
0.756813 0.1 -0.05 0.00370944
0.756813 0.1 0.05 0.00370944
0 0.1 -0.766622 0.00375
0 0.1 0.766622 0.00375
0.756813 0.1 -0.15 0.00370956
0.756813 0.1 0.15 0.00370955
0.715676 0.1 -0.3 0.0037077
0.715676 0.1 0.3 0.00370767
0.219992 0.1 0.75 0.00374529
0.219992 0.1 -0.75 0.0037453
0.574156 0.1 -0.55 0.00371239
0.574157 0.1 0.55 0.00371238
0.523729 0.1 -0.6 0.00371642
0.523729 0.1 0.6 0.00371641
0.756814 0.1 -0.25 0.00370934
0.756814 0.1 0.25 0.00370932
0.797951 0.1 -1.23399e-17 0.00371194
0 0.1 0.8 0.00375
0 0.1 -0.8 0.00375
0.624584 0.1 -0.5 0.00370907
0.624584 0.1 0.5 0.00370905
0.467897 0.1 -0.65 0.00372199
0.467897 0.1 0.65 0.00372198
0.797951 0.1 -0.1 0.0037119
0.797951 0.1 0.1 0.0037119
0.67013 0.1 -0.45 0.0037077
0.67013 0.1 0.45 0.00370767
0.412065 0.1 -0.7 0.00372783
0.412065 0.1 0.7 0.00372783
0.151552 0.1 -0.8 0.00374875
0.151552 0.1 0.8 0.00374874
0.715676 0.1 -0.4 0.00370713
0.715676 0.1 0.4 0.0037071
0.797951 0.1 -0.2 0.00371156
0.797951 0.1 0.2 0.00371154
0.350249 0.1 -0.75 0.00373466
0.350249 0.1 0.75 0.00373466
0 0.1 0.833378 0.00375
0 0.1 -0.833378 0.00375
0.756813 0.1 -0.35 0.00370847
0.756813 0.1 0.35 0.00370844
0.835106 0.1 0.05 0.00371586
0.835106 0.1 -0.05 0.00371586
0.835106 0.1 -0.15 0.00371553
0.835106 0.1 0.15 0.00371552
0.288433 0.1 -0.8 0.00374033
0.288433 0.1 0.8 0.00374032
0.797951 0.1 -0.3 0.00371054
0.797951 0.1 0.3 0.00371051
0.075776 0.1 -0.85 0.00375127
0.075776 0.1 0.85 0.00375113
0.624584 0.1 -0.6 0.00370867
0.624584 0.1 0.6 0.00370866
0 0.1 0.866622 0.00375
0 0.1 -0.866622 0.00375
0.67013 0.1 -0.55 0.00370683
0.67013 0.1 0.55 0.00370681
0.574156 0.1 0.65 0.00371246
0.574157 0.1 -0.65 0.00371246
0.835106 0.1 -0.25 0.00371447
0.835106 0.1 0.25 0.00371445
0.872262 0.1 -1.54156e-17 0.00371986
0.715676 0.1 -0.5 0.00370593
0.715676 0.1 0.5 0.0037059
0.523729 0.1 -0.7 0.0037168
0.523729 0.1 0.7 0.00371679
0.872262 0.1 -0.1 0.00371959
0.872262 0.1 0.1 0.00371959
0.219992 0.1 0.85 0.00374614
0.219993 0.1 -0.85 0.00374606
0.756814 0.1 -0.45 0.00370709
0.756814 0.1 0.45 0.00370706
0.467897 0.1 -0.75 0.0037227
0.467897 0.1 0.75 0.0037227
0.797951 0.1 -0.4 0.00370882
0.797951 0.1 0.4 0.00370879
0.872262 0.1 -0.2 0.00371859
0.872262 0.1 0.2 0.00371858
0.412065 0.1 0.8 0.00372863
0.412065 0.1 -0.8 0.00372864
0 0.1 0.9 0.00375
0 0.1 -0.9 0.00375
0.835106 0.1 -0.35 0.00371249
0.835106 0.1 0.35 0.00371246
0.90582 0.1 -0.05 0.00372519
0.90582 0.1 0.05 0.00372518
0.151552 0.1 0.9 0.00374926
0.151552 0.1 -0.9 0.00374926
0.90582 0.1 -0.15 0.0037244
0.90582 0.1 0.15 0.0037244
0.350249 0.1 0.85 0.0037357
0.350249 0.1 -0.85 0.00373549
0.872262 0.1 -0.3 0.00371657
0.872262 0.1 0.3 0.00371655
0 0.1 0.933378 0.00375
0 0.1 -0.933378 0.00375
0.67013 0.1 -0.65 0.00370562
0.67013 0.1 0.65 0.00370561
0.715676 0.1 -0.6 0.00370412
0.715676 0.1 0.6 0.0037041
0.756813 0.1 0.55 0.00370476
0.756813 0.1 -0.55 0.00370479
0.624584 0.1 -0.7 0.003708
0.624584 0.1 0.7 0.003708
0.939379 0.1 0 0.00373139
0.90582 0.1 -0.25 0.00372251
0.90582 0.1 0.25 0.00372248
0.797951 0.1 -0.5 0.00370632
0.797951 0.1 0.5 0.00370629
0.574156 0.1 0.75 0.00371224
0.574156 0.1 -0.75 0.00371224
0.939379 0.1 -0.1 0.00373089
0.939379 0.1 0.1 0.00373089
0.288433 0.1 0.9 0.00374102
0.288433 0.1 -0.9 0.00374102
0.835106 0.1 -0.45 0.00370978
0.835106 0.1 0.45 0.00370975
0.075776 0.1 0.95 0.00375153
0.075776 0.1 -0.95 0.00375154
0.523729 0.1 0.8 0.00371695
0.523729 0.1 -0.8 0.00371696
0.872262 0.1 -0.4 0.00371356
0.872262 0.1 0.4 0.00371353
0.939379 0.1 -0.2 0.00372924
0.939379 0.1 0.2 0.00372923
0 0.1 0.966622 0.00375
0 0.1 -0.966622 0.00375
0.467897 0.1 0.85 0.00372249
0.467897 0.1 -0.85 0.00372321
0.969689 0.1 0.05 0.00373786
0.96969 0.1 -0.05 0.00373786
0.90582 0.1 -0.35 0.00371936
0.90582 0.1 0.35 0.00371933
0.219992 0.1 0.95 0.0037466
0.219992 0.1 -0.95 0.00374661
0.969689 0.1 -0.15 0.00373663
0.969689 0.1 0.15 0.00373663
0.939379 0.1 -0.3 0.00372622
0.939379 0.1 0.3 0.00372619
0.412065 0.1 0.9 0.00372922
0.412065 0.1 -0.9 0.00372923
0.756813 0.1 -0.65 0.00370193
0.756813 0.1 0.65 0.00370192
0.797951 0.1 -0.6 0.00370294
0.797951 0.1 0.6 0.00370291
0.835106 0.1 -0.55 0.00370607
0.835106 0.1 0.55 0.00370603
0 0.1 1 0.00375
0 0.1 -1 0.00375
1 0.1 0 0.00374086
0.715676 0.1 -0.7 0.003702
0.715676 0.1 0.7 0.00370199
0.96969 0.1 -0.25 0.00373391
0.96969 0.1 0.25 0.00373389
1 0.1 -0.1 0.00374016
1 0.1 0.1 0.00374016
0.872262 0.1 -0.5 0.00370965
0.872262 0.1 0.5 0.00370961
0.67013 0.1 0.75 0.00370417
0.67013 0.1 -0.75 0.00370417
0.151552 0.1 1 0.00374957
0.151552 0.1 -1 0.00374958
0.90582 0.1 -0.45 0.00371516
0.90582 0.1 0.45 0.00371512
0.350249 0.1 0.95 0.00373606
0.350249 0.1 -0.95 0.00373607
0.624584 0.1 -0.8 0.00370711
0.624584 0.1 0.8 0.00370711
1.01772 0.1 -0.0494093 0.00374549
1.01772 0.1 0.0494093 0.00374549
1 0.1 -0.2 0.00373792
1 0.1 0.2 0.00373791
0.939379 0.1 -0.4 0.00372185
0.939379 0.1 0.4 0.00372182
0.574157 0.1 0.85 0.00371183
0.574157 0.1 -0.85 0.00371183
1.01772 0.1 -0.148228 0.00374398
1.01772 0.1 0.148228 0.00374399
0.969689 0.1 -0.35 0.00372963
0.969689 0.1 0.35 0.00372959
0 0.1 -1.03338 0.00375
0 0.1 1.03338 0.00375
0.288433 0.1 1 0.00374149
0.288433 0.1 -1 0.0037415
0.523729 0.1 0.9 0.00371698
0.523729 0.1 -0.9 0.00371698
1 0.1 -0.3 0.00373399
1 0.1 0.3 0.00373396
1.01772 0.1 0.247046 0.00374074
1.01772 0.1 -0.247046 0.00374076
1.05262 0.1 4.04769e-19 0.00375652
0.075776 0.1 -1.05 0.00375168
0.075776 0.1 1.05 0.00375168
1.05262 0.1 -0.0964922 0.00375569
1.05262 0.1 0.0964922 0.0037557
0.835106 0.1 -0.65 0.00370149
0.835106 0.1 0.65 0.00370146
0.872262 0.1 -0.6 0.00370469
0.872262 0.1 0.6 0.00370465
0.467897 0.1 0.95 0.00372356
0.467897 0.1 -0.95 0.00372357
0.90582 0.1 -0.55 0.00371005
0.90582 0.1 0.55 0.00371
0.797951 0.1 -0.7 0.00369908
0.797951 0.1 0.7 0.00369907
0.939379 0.1 -0.5 0.00371639
0.939379 0.1 0.5 0.00371635
0.756814 0.1 -0.75 0.00369892
0.756813 0.1 0.75 0.00369892
0 0.1 1.06662 0.00375
0 0.1 -1.06662 0.00375
0.969689 0.1 0.45 0.00372388
0.96969 0.1 -0.45 0.00372392
1.05262 0.1 -0.192985 0.00375313
1.05262 0.1 0.192985 0.00375313
0.219992 0.1 -1.05 0.00374688
0.219992 0.1 1.05 0.00374688
0.715676 0.1 -0.8 0.00369974
0.715676 0.1 0.8 0.00369974
1.01772 0.1 0.345865 0.00373572
1.01772 0.1 -0.345865 0.00373576
1 0.1 -0.4 0.00372836
1 0.1 0.4 0.00372832
1.07643 0.1 -0.0474523 0.00376293
1.07643 0.1 0.0474523 0.00376293
0.412065 0.1 1 0.00372964
0.412065 0.1 -1 0.00372964
0.67013 0.1 0.85 0.0037026
0.67013 0.1 -0.85 0.0037026
1.07643 0.1 -0.142357 0.0037612
1.07643 0.1 0.142357 0.00376121
1.05262 0.1 -0.289476 0.00374868
1.05262 0.1 0.289476 0.00374865
0.624584 0.1 0.9 0.00370613
0.624584 0.1 -0.9 0.00370613
1.09647 0.1 9.8301e-18 0.00376939
0 0.1 1.1 0.00375
0 0.1 -1.1 0.00375
1.09647 0.1 -0.0935685 0.00376848
1.09647 0.1 0.0935685 0.00376851
1.07643 0.1 0.237261 0.00375755
1.07643 0.1 -0.237261 0.00375758
0.350249 0.1 1.05 0.00373648
0.350249 0.1 -1.05 0.00373649
0.574156 0.1 0.95 0.0037119
0.574156 0.1 -0.95 0.00371148
0.151552 0.1 1.1 0.00374972
0.151552 0.1 -1.1 0.00374972
1.01772 0.1 -0.444684 0.00372904
1.01772 0.1 0.444684 0.003729
1.09647 0.1 -0.187137 0.00376569
1.09647 0.1 0.187137 0.00376575
0.939379 0.1 -0.6 0.00370973
0.939379 0.1 0.6 0.00370969
0.96969 0.1 0.55 0.00371707
0.96969 0.1 -0.55 0.00371712
0.90582 0.1 0.65 0.00370361
0.90582 0.1 -0.65 0.00370364
1 0.1 -0.5 0.00372133
1 0.1 0.5 0.00372128
0.872262 0.1 -0.7 0.00369894
0.872262 0.1 0.7 0.00369892
1.05262 0.1 -0.385969 0.0037423
1.05262 0.1 0.385969 0.00374227
0.835106 0.1 -0.75 0.00369656
0.835106 0.1 0.75 0.00369656
1.12316 0.1 -0.0458947 0.00377796
1.12316 0.1 0.0458947 0.00377797
1.07643 0.1 -0.332166 0.00375196
1.07643 0.1 0.332166 0.0037519
0.523729 0.1 1 0.00371692
0.523729 0.1 -1 0.00371693
0.797951 0.1 -0.8 0.0036951
0.797951 0.1 0.8 0.0036951
1.12316 0.1 -0.137684 0.00377607
1.12316 0.1 0.137684 0.0037761
1.09647 0.1 -0.280706 0.00376091
1.09647 0.1 0.280706 0.00376097
0 0.1 -1.13338 0.00375
0 0.1 1.13338 0.00375
0.288433 0.1 1.1 0.00374178
0.288433 0.1 -1.1 0.00374179
0.756813 0.1 0.85 0.0036958
0.756813 0.1 -0.85 0.0036958
1.12316 0.1 -0.229473 0.00377218
1.12316 0.1 0.229473 0.00377221
1.14834 0.1 0 0.00378741
0.467897 0.1 1.05 0.00372378
0.467897 0.1 -1.05 0.00372379
0.715676 0.1 0.9 0.00369741
0.715676 0.1 -0.9 0.00369741
1.14834 0.1 -0.0901106 0.00378643
1.14834 0.1 0.0901106 0.00378644
0.075776 0.1 1.15 0.00375174
0.075776 0.1 -1.15 0.00375162
1.01772 0.1 -0.543502 0.00372102
1.01772 0.1 0.543502 0.00372097
1.05262 0.1 -0.482461 0.0037342
1.05262 0.1 0.482461 0.00373417
1.07643 0.1 -0.427071 0.00374431
1.07643 0.1 0.427071 0.00374425
1.09647 0.1 -0.374274 0.00375407
1.09647 0.1 0.374274 0.00375414
1.14834 0.1 -0.180221 0.00378344
1.14834 0.1 0.180221 0.00378343
0.67013 0.1 0.95 0.00370159
0.67013 0.1 -0.95 0.00370103
1 0.1 -0.6 0.00371308
1 0.1 0.6 0.00371303
0 0.1 1.16662 0.00375
0 0.1 -1.16662 0.00375
0.969689 0.1 -0.65 0.0037089
0.969689 0.1 0.65 0.00370887
1.12316 0.1 0.321263 0.00376622
1.12316 0.1 -0.321263 0.00376621
1.16984 0.1 -0.0443387 0.00379452
1.16984 0.1 0.0443387 0.00379452
0.219992 0.1 1.15 0.00374702
0.219992 0.1 -1.15 0.00374723
0.939379 0.1 -0.7 0.00370201
0.939379 0.1 0.7 0.00370199
0.412065 0.1 1.1 0.00372989
0.412065 0.1 -1.1 0.0037299
0.90582 0.1 -0.75 0.00369668
0.90582 0.1 0.75 0.00369667
1.16984 0.1 -0.133016 0.00379253
1.16984 0.1 0.133016 0.00379255
0.624584 0.1 1 0.00370515
0.624584 0.1 -1 0.00370515
1.14834 0.1 -0.270332 0.00377833
1.14834 0.1 0.270332 0.00377829
0.872262 0.1 -0.8 0.00369297
0.872262 0.1 0.8 0.00369297
1.16984 0.1 -0.221694 0.00378846
1.16984 0.1 0.221694 0.00378846
0.835106 0.1 -0.85 0.00369165
0.835106 0.1 0.85 0.00369165
1.09647 0.1 -0.467843 0.00374527
1.09647 0.1 0.467843 0.00374537
1.07643 0.1 -0.521975 0.00373497
1.07643 0.1 0.521975 0.0037349
1.12316 0.1 -0.413052 0.00375812
1.12316 0.1 0.413052 0.00375815
0.574156 0.1 -1.05 0.00371105
0.574156 0.1 1.05 0.00371104
1.19994 0.1 -3.3538e-17 0.00380776
0 0.1 1.2 0.00375
0 0.1 -1.2 0.00375
1.05262 0.1 -0.578953 0.003725
1.05262 0.1 0.578953 0.00372496
0.350249 0.1 1.15 0.00373677
0.350249 0.1 -1.15 0.00373715
0.797951 0.1 0.9 0.00369113
0.797951 0.1 -0.9 0.00369112
1.19994 0.1 -0.0866707 0.00380672
1.19994 0.1 0.0866707 0.00380672
1.01772 0.1 -0.642321 0.00371194
1.01772 0.1 0.642321 0.00371189
1.14834 0.1 -0.360442 0.00377106
1.14834 0.1 0.360442 0.00377099
0.151552 0.1 1.2 0.00374984
0.151552 0.1 -1.2 0.00374984
1.16984 0.1 -0.310371 0.00378224
1.16984 0.1 0.310371 0.0037822
1.19994 0.1 0.173341 0.00380355
1.19994 0.1 -0.173341 0.00380356
0.756813 0.1 -0.95 0.0036927
0.756813 0.1 0.95 0.00369267
1.21398 0.1 -0.0428671 0.00381255
1.21398 0.1 0.0428671 0.00381255
0.523729 0.1 1.1 0.00371673
0.523729 0.1 -1.1 0.00371674
1 0.1 -0.7 0.00370363
1 0.1 0.7 0.0037036
1.21398 0.1 -0.128601 0.00381046
1.21398 0.1 0.128601 0.00381045
0.96969 0.1 -0.75 0.00369988
0.96969 0.1 0.75 0.00369986
1.19994 0.1 -0.260012 0.00379821
1.19994 0.1 0.260012 0.00379817
0.715676 0.1 1 0.00369514
0.715676 0.1 -1 0.00369514
1.12316 0.1 -0.504842 0.00374812
1.12316 0.1 0.504842 0.00374816
1.09647 0.1 -0.561411 0.0037353
1.09647 0.1 0.561411 0.00373541
1.21398 0.1 -0.214335 0.0038062
1.21398 0.1 0.214335 0.00380617
0 0.1 1.23338 0.00375
0 0.1 -1.23338 0.00375
1.14834 0.1 -0.450553 0.00376162
1.14834 0.1 0.450553 0.00376154
0.939379 0.1 -0.8 0.00369391
0.939379 0.1 0.8 0.0036939
0.288433 0.1 1.2 0.00374205
0.288433 0.1 -1.2 0.00374206
1.23589 0.1 -8.70253e-18 0.00382369
1.16984 0.1 -0.399048 0.00377384
1.16984 0.1 0.399048 0.00377378
1.23589 0.1 0.084274 0.00382261
1.23589 0.1 -0.084274 0.00382261
1.07643 0.1 -0.61688 0.0037251
1.07643 0.1 0.61688 0.00372504
0.467897 0.1 1.15 0.0037238
0.467897 0.1 -1.15 0.00372421
0.90582 0.1 0.85 0.00368967
0.90582 0.1 -0.85 0.00368967
0.67013 0.1 1.05 0.00369957
0.67013 0.1 -1.05 0.00369958
1.23589 0.1 -0.168548 0.00381933
1.23589 0.1 0.168548 0.00381932
1.19994 0.1 -0.346683 0.00379063
1.19994 0.1 0.346683 0.00379056
1.21398 0.1 -0.30007 0.00379969
1.21398 0.1 0.30007 0.00379964
1.05262 0.1 -0.675446 0.00371456
1.05262 0.1 0.675446 0.00371455
0.075776 0.1 1.25 0.00375172
0.075776 0.1 -1.25 0.00375172
0.872262 0.1 -0.9 0.00368706
0.872262 0.1 0.9 0.00368707
1.25537 0.1 -0.0414875 0.00383194
1.25537 0.1 0.0414875 0.00383194
1.01772 0.1 -0.741139 0.00370162
1.01772 0.1 0.741139 0.00370159
1.23589 0.1 -0.252822 0.00381376
1.23589 0.1 0.252822 0.00381373
1.25537 0.1 -0.124462 0.00382974
1.25537 0.1 0.124462 0.00382972
0.835106 0.1 0.95 0.00368676
0.835106 0.1 -0.95 0.00368676
0.624584 0.1 1.1 0.00370417
0.624584 0.1 -1.1 0.00370418
0 0.1 1.26662 0.00375
0 0.1 -1.26662 0.00375
1.16984 0.1 -0.487726 0.0037632
1.16984 0.1 0.487726 0.00376315
0.412065 0.1 1.2 0.00373006
0.412065 0.1 -1.2 0.00373008
0.219992 0.1 -1.25 0.00374732
0.219992 0.1 1.25 0.00374731
1.14834 0.1 -0.540664 0.00375067
1.14834 0.1 0.540664 0.00375059
1.12316 0.1 -0.596631 0.00373737
1.12316 0.1 0.596631 0.00373741
1.25537 0.1 -0.207437 0.00382525
1.25537 0.1 0.207437 0.00382521
1.21398 0.1 0.385804 0.00379087
1.21398 0.1 -0.385804 0.00379096
1.19994 0.1 -0.433353 0.00378076
1.19994 0.1 0.433353 0.00378067
1.27678 0.1 2.18286e-17 0.00384439
1.09647 0.1 -0.654979 0.00372419
1.09647 0.1 0.654979 0.00372434
0.797951 0.1 1 0.00368725
0.797951 0.1 -1 0.00368725
1.27678 0.1 -0.0815477 0.00384324
1.27678 0.1 0.0815477 0.00384325
1 0.1 -0.8 0.00369349
1 0.1 0.8 0.00369348
1.23589 0.1 0.337096 0.00380586
1.23589 0.1 -0.337096 0.00380592
0.574156 0.1 1.15 0.00371054
0.574156 0.1 -1.15 0.00371086
1.27678 0.1 -0.163095 0.00383975
1.27678 0.1 0.163095 0.00383975
1.25537 0.1 -0.290413 0.00381843
1.25537 0.1 0.290413 0.00381836
0.96969 0.1 -0.85 0.00369068
0.96969 0.1 0.85 0.00369068
1.07643 0.1 0.711784 0.00371332
1.07643 0.1 -0.711784 0.00371336
0.756813 0.1 -1.05 0.00368989
0.756814 0.1 1.05 0.00368988
0.350249 0.1 1.25 0.00373706
0.350249 0.1 -1.25 0.00373707
1.29889 0.1 -0.040037 0.00385681
1.29889 0.1 0.040037 0.00385684
0 0.1 1.3 0.00375
0 0.1 -1.3 0.00375
1.27678 0.1 0.244643 0.00383384
1.27678 0.1 -0.244643 0.00383384
0.939379 0.1 -0.9 0.00368589
0.939379 0.1 0.9 0.00368589
1.21398 0.1 -0.471538 0.00377982
1.21398 0.1 0.471538 0.00377973
1.16984 0.1 0.576403 0.00375145
1.16984 0.1 -0.576403 0.0037515
1.29889 0.1 -0.120111 0.0038544
1.29889 0.1 0.120111 0.00385445
1.05262 0.1 0.771937 0.00370291
1.05262 0.1 -0.771937 0.00370289
1.23589 0.1 -0.42137 0.00379567
1.23589 0.1 0.42137 0.0037956
1.19994 0.1 -0.520024 0.00376894
1.19994 0.1 0.520024 0.00376885
0.151552 0.1 1.3 0.00374998
0.151552 0.1 -1.3 0.00374998
0.523729 0.1 1.2 0.00371649
0.523729 0.1 -1.2 0.00371651
1.25537 0.1 -0.373388 0.00380932
1.25537 0.1 0.373388 0.00380922
1.14834 0.1 -0.630774 0.0037388
1.14834 0.1 0.630774 0.00373873
0.715676 0.1 1.1 0.00369304
0.715676 0.1 -1.1 0.00369305
0.90582 0.1 -0.95 0.0036828
0.90582 0.1 0.95 0.0036828
1.31405 0.1 0 0.00386856
1.29889 0.1 -0.200185 0.00384949
1.29889 0.1 0.200185 0.00384957
1.31405 0.1 -0.0790633 0.0038673
1.31405 0.1 0.0790633 0.00386728
1.12316 0.1 -0.68842 0.0037251
1.12316 0.1 0.68842 0.00372518
1.27678 0.1 -0.326191 0.00382556
1.27678 0.1 0.326191 0.00382555
1.01772 0.1 -0.839958 0.00369086
1.01772 0.1 0.839958 0.00369086
1.31405 0.1 -0.158127 0.00386345
1.31405 0.1 0.158127 0.00386339
0.872262 0.1 1 0.00368132
0.872262 0.1 -1 0.00368132
1.09647 0.1 -0.748548 0.00371148
1.09647 0.1 0.748548 0.00371167
1.29889 0.1 0.280259 0.00384218
1.29889 0.1 -0.280259 0.00384208
0.67013 0.1 -1.15 0.00369839
0.67013 0.1 1.15 0.00369824
0.288433 0.1 1.3 0.0037424
0.288433 0.1 -1.3 0.00374241
1.33178 0.1 -0.0389408 0.00387546
1.33178 0.1 0.0389408 0.00387548
0 0.1 1.33338 0.00375
0 0.1 -1.33338 0.00375
0.467897 0.1 -1.25 0.00372391
0.467897 0.1 1.25 0.00372389
1.31405 0.1 -0.23719 0.00385697
1.31405 0.1 0.23719 0.00385689
1.23589 0.1 -0.505644 0.00378327
1.23589 0.1 0.505644 0.00378321
1.25537 0.1 -0.456363 0.00379758
1.25537 0.1 0.456363 0.00379748
1.21398 0.1 -0.557272 0.00376702
1.21398 0.1 0.557272 0.00376693
1.33178 0.1 -0.116822 0.00387302
1.33178 0.1 0.116822 0.00387297
1.27678 0.1 -0.407738 0.00381473
1.27678 0.1 0.407738 0.00381473
0.835106 0.1 -1.05 0.00368221
0.835106 0.1 1.05 0.00368315
1.19994 0.1 -0.606695 0.00375631
1.19994 0.1 0.606695 0.00375622
1.07643 0.1 0.806689 0.00370052
1.07643 0.1 -0.806689 0.00370054
1 0.1 -0.9 0.00368342
1 0.1 0.9 0.00368341
1.16984 0.1 -0.665081 0.00373901
1.16984 0.1 0.665081 0.00373897
1.33178 0.1 -0.194704 0.00386794
1.33178 0.1 0.194704 0.00386785
1.29889 0.1 0.360333 0.00383238
1.29889 0.1 -0.360333 0.00383226
1.35048 0.1 0 0.00389674
1.31405 0.1 -0.316253 0.00384796
1.31405 0.1 0.316253 0.00384784
0.075776 0.1 1.35 0.00375162
0.075776 0.1 -1.35 0.00375162
1.35048 0.1 -0.0766347 0.00389531
1.35048 0.1 0.0766347 0.00389529
0.624584 0.1 1.2 0.00370322
0.624584 0.1 -1.2 0.00370324
1.14834 0.1 -0.720885 0.00372528
1.14834 0.1 0.720885 0.00372523
0.969689 0.1 0.95 0.00368176
0.969689 0.1 -0.95 0.00368177
0.797951 0.1 1.1 0.00368375
0.797951 0.1 -1.1 0.00368376
1.35048 0.1 -0.153269 0.00389097
1.35048 0.1 0.153269 0.00389088
1.33178 0.1 -0.272585 0.00386029
1.33178 0.1 0.272585 0.0038602
1.36263 0.1 -0.0379125 0.00390113
1.36263 0.1 0.0379125 0.00390115
0.412065 0.1 1.3 0.00373025
0.412065 0.1 -1.3 0.00373026
1.05262 0.1 0.86843 0.00369097
1.05262 0.1 -0.86843 0.00369095
1.25537 0.1 -0.539338 0.00378398
1.25537 0.1 0.539338 0.00378388
0 0.1 1.36662 0.00375
0 0.1 -1.36662 0.00375
1.27678 0.1 -0.489286 0.0038016
1.27678 0.1 0.489286 0.00380161
1.36263 0.1 0.113737 0.00389833
1.36263 0.1 -0.113737 0.00389839
1.12316 0.1 -0.78021 0.0037112
1.12316 0.1 0.78021 0.00371132
0.219992 0.1 -1.35 0.00374767
0.219992 0.1 1.35 0.00374767
1.23589 0.1 0.589918 0.00377008
1.23589 0.1 -0.589918 0.00377014
1.35048 0.1 -0.229904 0.00388368
1.35048 0.1 0.229904 0.00388355
1.29889 0.1 -0.440407 0.00381964
1.29889 0.1 0.440407 0.00381981
0.939379 0.1 -1 0.0036781
0.939379 0.1 1 0.00367809
1.31405 0.1 -0.395317 0.0038362
1.31405 0.1 0.395317 0.00383607
1.21398 0.1 0.643007 0.00375417
1.21398 0.1 -0.643007 0.00375425
0.574156 0.1 -1.25 0.00371008
0.574156 0.1 1.25 0.00371006
1.36263 0.1 -0.189562 0.0038927
1.36263 0.1 0.189562 0.00389257
0.756813 0.1 -1.15 0.00368734
0.756813 0.1 1.15 0.00368742
1.33178 0.1 -0.350467 0.00385019
1.33178 0.1 0.350467 0.00385006
1.09647 0.1 0.842117 0.00369825
1.09647 0.1 -0.842117 0.00369804
1.01772 0.1 0.938777 0.00368044
1.01772 0.1 -0.938777 0.00368045
1.35048 0.1 -0.306539 0.00387367
1.35048 0.1 0.306539 0.00387353
1.19994 0.1 -0.693366 0.00374239
1.19994 0.1 0.693366 0.00374232
1.38601 0.1 -1.73472e-19 0.00392977
0.90582 0.1 -1.05 0.00367625
0.90582 0.1 1.05 0.00367744
1.38601 0.1 -0.0742663 0.00392806
1.38601 0.1 0.0742663 0.00392804
1.36263 0.1 -0.265388 0.00388418
1.36263 0.1 0.265388 0.00388405
1.16984 0.1 0.753758 0.00372429
1.16984 0.1 -0.753758 0.0037243
1.38601 0.1 -0.148532 0.00392282
1.38601 0.1 0.148532 0.0039227
0.350249 0.1 1.35 0.00373738
0.350249 0.1 -1.35 0.00373739
1.31405 0.1 -0.47438 0.00382197
1.31405 0.1 0.47438 0.00382184
0.715676 0.1 1.2 0.00369111
0.715676 0.1 -1.2 0.00369114
1.27678 0.1 -0.570834 0.0037878
1.27678 0.1 0.570834 0.00378781
1.33178 0.1 -0.428349 0.00383692
1.33178 0.1 0.428349 0.0038368
1.29889 0.1 -0.520481 0.00380523
1.29889 0.1 0.520481 0.00380541
0 0.1 1.4 0.00375
0 0.1 -1.4 0.00375
1.25537 0.1 -0.622313 0.00377083
1.25537 0.1 0.622313 0.00377074
0.523729 0.1 1.3 0.00371624
0.523729 0.1 -1.3 0.00371626
1.40143 0.1 0.0366192 0.00394376
1.40143 0.1 -0.0366192 0.00394372
1.35048 0.1 -0.383173 0.00386073
1.35048 0.1 0.383173 0.00386057
1.38601 0.1 0.222799 0.00391403
1.38601 0.1 -0.222799 0.00391417
0.872262 0.1 1.1 0.00367616
0.872262 0.1 -1.1 0.00367618
1.07643 0.1 0.901594 0.00368781
1.07643 0.1 -0.901594 0.00368782
1.36263 0.1 -0.341212 0.00387299
1.36263 0.1 0.341212 0.00387284
1.40143 0.1 0.109857 0.00393994
1.40143 0.1 -0.109857 0.00394007
1.14834 0.1 -0.810995 0.00371031
1.14834 0.1 0.810995 0.00371028
1.23589 0.1 -0.674192 0.00375597
1.23589 0.1 0.674192 0.00375593
0.151552 0.1 1.4 0.00375006
0.151552 0.1 -1.4 0.00375006
1.40143 0.1 0.183096 0.00393213
1.40143 0.1 -0.183096 0.00393239
1 0.1 1 0.00367362
1 0.1 -1 0.00367363
1.21398 0.1 -0.728741 0.0037391
1.21398 0.1 0.728741 0.00373903
1.38601 0.1 -0.297065 0.00390281
1.38601 0.1 0.297065 0.00390271
0.67013 0.1 1.25 0.00369692
0.67013 0.1 -1.25 0.00369695
1.41851 0.1 1.23599e-17 0.00397645
1.41851 0.1 -0.0720991 0.00397409
1.41851 0.1 0.0720991 0.00397399
0.835106 0.1 1.15 0.00367838
0.835106 0.1 -1.15 0.00367803
1.12316 0.1 0.871999 0.00369694
1.12316 0.1 -0.871999 0.00369681
1.40143 0.1 -0.256334 0.00392152
1.40143 0.1 0.256334 0.00392132
1.33178 0.1 -0.50623 0.00382175
1.33178 0.1 0.50623 0.00382163
1.36263 0.1 -0.417037 0.00385862
1.36263 0.1 0.417037 0.00385845
1.41851 0.1 -0.144198 0.00396683
1.41851 0.1 0.144198 0.00396653
1.31405 0.1 -0.553443 0.00380694
1.31405 0.1 0.553443 0.00380681
1.05262 0.1 0.962057 0.00367925
1.35048 0.1 -0.459808 0.00384521
1.35048 0.1 0.459808 0.00384505
1.05262 0.1 -0.964922 0.00367927
0.467897 0.1 -1.35 0.00372387
0.467897 0.1 1.35 0.00372386
0.969689 0.1 -1.05 0.00367313
0.969689 0.1 1.05 0.00367361
0.288433 0.1 1.4 0.00374264
0.288433 0.1 -1.4 0.00374264
1.29889 0.1 -0.600555 0.00379112
1.29889 0.1 0.600555 0.00379131
1.19994 0.1 0.780036 0.00372643
1.19994 0.1 -0.780036 0.00372648
0 0.1 1.43338 0.00375
0 0.1 -1.43338 0.00375
1.27678 0.1 -0.652382 0.00377328
1.27678 0.1 0.652382 0.00377333
1.38601 0.1 -0.371331 0.00388853
1.38601 0.1 0.371331 0.00388843
1.41851 0.1 0.216297 0.00395468
1.41851 0.1 -0.216297 0.00395499
1.43833 0.1 -0.0353889 0.00402529
1.43833 0.1 0.0353889 0.00402524
1.40143 0.1 0.329573 0.00390847
1.40143 0.1 -0.329573 0.00390868
1.25537 0.1 -0.705288 0.00375543
1.25537 0.1 0.705288 0.00375535
0.797951 0.1 1.2 0.00368062
0.797951 0.1 -1.2 0.00368065
1.09647 0.1 0.935217 0.00368493
1.09647 0.1 -0.935685 0.00368466
1.16984 0.1 -0.842436 0.00370845
1.16984 0.1 0.842436 0.00370846
1.43833 0.1 -0.106166 0.00401883
1.43833 0.1 0.106166 0.00401844
0.624584 0.1 1.3 0.00370227
0.624584 0.1 -1.3 0.00370229
0.939379 0.1 1.1 0.00367103
0.939379 0.1 -1.1 0.00367105
1.23217 0.1 0.758466 0.0037396
1.41851 0.1 -0.288396 0.00394009
1.41851 0.1 0.288396 0.00393987
1.36263 0.1 -0.492862 0.00384233
1.36263 0.1 0.492862 0.00384216
1.43833 0.1 -0.176944 0.00400565
1.43833 0.1 0.176944 0.00400506
1.4493 0.1 0 0.0040701
1.23589 0.1 -0.758466 0.00373961
1.4493 0.1 -0.0700466 0.00406608
1.4493 0.1 0.0700466 0.00406582
0.075776 0.1 -1.45 0.00375145
0.075776 0.1 1.45 0.0037514
1.35048 0.1 -0.536443 0.0038286
1.35048 0.1 0.536443 0.00382845
1.01772 0.1 1.03759 0.00366801
1.01772 0.1 -1.03759 0.00367036
1.33178 0.1 0.584112 0.00380658
1.33178 0.1 -0.584112 0.0038067
1.38601 0.1 0.445597 0.00387134
1.38601 0.1 -0.445597 0.00387143
1.4493 0.1 -0.140093 0.00405366
1.4493 0.1 0.140093 0.00405294
1.40143 0.1 -0.402811 0.00389205
1.40143 0.1 0.402811 0.00389185
1.31405 0.1 -0.632507 0.00379165
1.31405 0.1 0.632507 0.00379153
0.412065 0.1 1.4 0.00373018
0.412065 0.1 -1.4 0.00373019
1.43833 0.1 -0.247722 0.00398727
1.43833 0.1 0.247722 0.0039868
1.14834 0.1 -0.901106 0.00369492
1.14834 0.1 0.901106 0.00369489
0.756813 0.1 1.25 0.00368509
0.756813 0.1 -1.25 0.00368512
1.21398 0.1 0.814475 0.00372211
1.21398 0.1 -0.814475 0.00372215
1.41851 0.1 0.360495 0.00392236
1.41851 0.1 -0.360495 0.00392253
0.90582 0.1 1.15 0.00367089
0.90582 0.1 -1.15 0.00367091
1.4493 0.1 -0.21014 0.00403346
1.4493 0.1 0.21014 0.00403272
1.46461 0.1 -0.034513 0.0040943
1.46461 0.1 0.034513 0.00409429
1.29889 0.1 -0.680629 0.00377546
1.29889 0.1 0.680629 0.00377569
0.219992 0.1 1.45 0.00374754
0.219993 0.1 -1.45 0.00374785
0 0.1 1.46662 0.00375
0 0.1 -1.46662 0.00375
1.07643 0.1 0.996497 0.00367539
1.07643 0.1 -0.996497 0.00367541
0.574156 0.1 -1.35 0.0037095
0.574156 0.1 1.35 0.00370948
1.46461 0.1 0.103539 0.00408465
1.46461 0.1 -0.103539 0.00408526
1.27678 0.1 -0.733929 0.00375658
1.27678 0.1 0.733929 0.00375666
1.43833 0.1 -0.318499 0.00396625
1.43833 0.1 0.318499 0.00396588
1.46461 0.1 -0.172565 0.00406639
1.46461 0.1 0.172565 0.00406559
1.4493 0.1 -0.280186 0.00400834
1.4493 0.1 0.280186 0.00400783
1.36263 0.1 0.568687 0.00382533
1.36263 0.1 -0.568687 0.00382549
1.19994 0.1 0.864385 0.00370944
1.47904 0.1 0 0.00423683
1.12316 0.1 -0.963788 0.00368255
1.12316 0.1 0.963788 0.00367954
1.40143 0.1 -0.47605 0.00387316
1.40143 0.1 0.47605 0.00387297
1.19994 0.1 -0.866707 0.00370948
1.38601 0.1 -0.519864 0.00385297
1.38601 0.1 0.519864 0.00385289
1.47904 0.1 -0.0680643 0.00422911
1.47904 0.1 0.0680643 0.00422856
1.25537 0.1 -0.788263 0.00373781
1.25537 0.1 0.788263 0.00373775
1.41851 0.1 -0.432595 0.00390226
1.41851 0.1 0.432595 0.00390212
1.35048 0.1 -0.613077 0.00381209
1.35048 0.1 0.613077 0.00381194
0.872262 0.1 1.2 0.00367169
0.872262 0.1 -1.2 0.00367171