# kMean  POINT_DATA 38414
# x  y  z  kMean
0 0.5 0 0.00375
0 0.5 -0.0316815 0.00375
0 0.5 0.0316815 0.00375
0 0.5 -0.0683185 0.00375
0 0.5 0.0683185 0.00375
0.075776 0.5 0.05 0.00375204
0.075776 0.5 -0.05 0.00375204
0 0.5 0.1 0.00375
0 0.5 -0.1 0.00375
0 0.5 -0.131682 0.00375
0 0.5 0.131682 0.00375
0.151552 0.5 0 0.00375445
0.075776 0.5 0.15 0.00375213
0.075776 0.5 -0.15 0.00375234
0 0.5 -0.168318 0.00375
0 0.5 0.168318 0.00375
0.151552 0.5 0.1 0.00375453
0.151552 0.5 -0.1 0.00375453
0 0.5 0.2 0.00375
0 0.5 -0.2 0.00375
0.219992 0.5 0.05 0.00375716
0.219992 0.5 -0.05 0.00375716
0 0.5 0.231682 0.00375
0 0.5 -0.231682 0.00375
0.151552 0.5 0.2 0.00375479
0.151552 0.5 -0.2 0.0037548
0.075776 0.5 0.25 0.00375232
0.075776 0.5 -0.25 0.00375232
0.219992 0.5 0.15 0.0037574
0.219992 0.5 -0.15 0.00375778
0 0.5 0.268318 0.00375
0 0.5 -0.268318 0.00375
0.288433 0.5 0 0.00376142
0 0.5 0.3 0.00375
0 0.5 -0.3 0.00375
0.288433 0.5 0.1 0.00376155
0.288433 0.5 -0.1 0.00376155
0 0.5 0.331682 0.00375
0 0.5 -0.331682 0.00375
0.219992 0.5 0.25 0.0037579
0.219992 0.5 -0.25 0.0037579
0.151552 0.5 0.3 0.00375522
0.151552 0.5 -0.3 0.00375523
0.288433 0.5 0.2 0.00376196
0.288433 0.5 -0.2 0.00376197
0.350249 0.5 0.05 0.00376626
0.350249 0.5 -0.05 0.00376626
0.075776 0.5 -0.35 0.00375257
0.075776 0.5 0.35 0.00375257
0 0.5 0.368318 0.00375
0 0.5 -0.368318 0.00375
0.350249 0.5 0.15 0.00376652
0.350249 0.5 -0.15 0.00376708
0 0.5 0.4 0.00375
0 0.5 -0.4 0.00375
0.412065 0.5 1.85037e-17 0.00377291
0.219992 0.5 0.35 0.00375856
0.219992 0.5 -0.35 0.00375857
0.288433 0.5 0.3 0.00376262
0.288433 0.5 -0.3 0.00376263
0.412065 0.5 0.1 0.00377302
0.412065 0.5 -0.1 0.00377302
0.151552 0.5 0.4 0.00375574
0.151552 0.5 -0.4 0.00375575
0.350249 0.5 0.25 0.0037671
0.350249 0.5 -0.25 0.00376711
0 0.5 0.431682 0.00375
0 0.5 -0.431682 0.00375
0.075776 0.5 0.45 0.00375285
0.075776 0.5 -0.45 0.00375286
0.412065 0.5 -0.2 0.0037734
0.412065 0.5 0.2 0.00377339
0 0.5 -0.468318 0.00375
0 0.5 0.468318 0.00375
0.467897 0.5 0.05 0.00378009
0.467897 0.5 -0.05 0.0037801
0.467897 0.5 0.15 0.00378026
0.467897 0.5 -0.15 0.00378097
0.288433 0.5 0.4 0.0037634
0.288433 0.5 -0.4 0.00376341
0.350249 0.5 -0.35 0.00376785
0.350249 0.5 0.35 0.00376784
0 0.5 0.5 0.00375
0 0.5 -0.5 0.00375
0.219992 0.5 -0.45 0.00375932
0.219992 0.5 0.45 0.00375932
0.412065 0.5 0.3 0.00377398
0.412065 0.5 -0.3 0.00377399
0.151552 0.5 0.5 0.00375629
0.151552 0.5 -0.5 0.00375629
0.523729 0.5 0 0.00378908
0.467897 0.5 0.25 0.00378067
0.467897 0.5 -0.25 0.00378068
0 0.5 -0.531682 0.00375
0 0.5 0.531682 0.00375
0.523729 0.5 0.1 0.00378911
0.523729 0.5 -0.1 0.00378911
0.075776 0.5 0.55 0.00375313
0.075776 0.5 -0.55 0.00375314
0.523729 0.5 0.2 0.00378927
0.523729 0.5 -0.2 0.00378928
0 0.5 0.568318 0.00375
0 0.5 -0.568318 0.00375
0.350249 0.5 0.45 0.00376867
0.350249 0.5 -0.45 0.00376868
0.412065 0.5 0.4 0.00377466
0.412065 0.5 -0.4 0.00377468
0.574156 0.5 0.05 0.00379846
0.574156 0.5 -0.05 0.00379846
0.288433 0.5 0.5 0.00376422
0.288433 0.5 -0.5 0.00376424
0.467897 0.5 0.35 0.00378119
0.467897 0.5 -0.35 0.00378121
0.219992 0.5 0.55 0.00376006
0.219992 0.5 -0.55 0.00376007
0.574156 0.5 0.15 0.00379843
0.574156 0.5 -0.15 0.00379923
0 0.5 0.6 0.00375
0 0.5 -0.6 0.00375
0.523729 0.5 0.3 0.00378954
0.523729 0.5 -0.3 0.00378955
0.151552 0.5 0.6 0.00375681
0.151552 0.5 -0.6 0.00375681
0.624584 0.5 0 0.00380954
0.574156 0.5 0.25 0.00379848
0.574156 0.5 -0.25 0.00379849
0 0.5 0.631682 0.00375
0 0.5 -0.631682 0.00375
0.624584 0.5 0.1 0.00380946
0.624584 0.5 -0.1 0.00380946
0.412065 0.5 0.5 0.00377534
0.412065 0.5 -0.5 0.00377536
0.467897 0.5 0.45 0.00378172
0.467897 0.5 -0.45 0.00378173
0.350249 0.5 0.55 0.00376947
0.350249 0.5 -0.55 0.00376948
0.075776 0.5 0.65 0.00375339
0.075776 0.5 -0.65 0.00375339
0.624584 0.5 0.2 0.00380927
0.624584 0.5 -0.2 0.00380928
0.523729 0.5 0.4 0.00378981
0.523729 0.5 -0.4 0.00378983
0.288433 0.5 0.6 0.003765
0.288433 0.5 -0.6 0.00376501
0 0.5 -0.668318 0.00375
0 0.5 0.668318 0.00375
0.67013 0.5 0.05 0.00382088
0.67013 0.5 -0.05 0.00382088
0.574156 0.5 0.35 0.00379849
0.574156 0.5 -0.35 0.00379851
0.219992 0.5 0.65 0.00376074
0.219992 0.5 -0.65 0.00376075
0.67013 0.5 0.15 0.00382058
0.67013 0.5 -0.15 0.00382143
0.624584 0.5 0.3 0.003809
0.624584 0.5 -0.3 0.00380901
0 0.5 0.7 0.00375
0 0.5 -0.7 0.00375
0.67013 0.5 0.25 0.0038201
0.67013 0.5 -0.25 0.00382011
0.715676 0.5 -9.25186e-18 0.00383377
0.151552 0.5 0.7 0.00375725
0.151552 0.5 -0.7 0.00375726
0.467897 0.5 -0.55 0.00378217
0.467897 0.5 0.55 0.00378215
0.715676 0.5 0.1 0.00383353
0.715676 0.5 -0.1 0.00383353
0.523729 0.5 0.5 0.00379
0.523729 0.5 -0.5 0.00379001
0.412065 0.5 0.6 0.00377593
0.412065 0.5 -0.6 0.00377595
0.574156 0.5 0.45 0.00379843
0.574156 0.5 -0.45 0.00379845
0 0.5 0.731682 0.00375
0 0.5 -0.731682 0.00375
0.350249 0.5 0.65 0.00377017
0.350249 0.5 -0.65 0.00377018
0.624584 0.5 0.4 0.00380861
0.624584 0.5 -0.4 0.00380862
0.715676 0.5 -0.2 0.00383291
0.715676 0.5 0.2 0.0038329
0.075776 0.5 0.75 0.00375359
0.075776 0.5 -0.75 0.0037536
0.67013 0.5 0.35 0.00381938
0.67013 0.5 -0.35 0.00381939
0.288433 0.5 0.7 0.00376564
0.288433 0.5 -0.7 0.00376566
0.756813 0.5 0.05 0.00384679
0.756813 0.5 -0.05 0.00384679
0 0.5 0.768318 0.00375
0 0.5 -0.768318 0.00375
0.756813 0.5 0.15 0.00384615
0.756813 0.5 -0.15 0.00384702
0.715676 0.5 0.3 0.00383192
0.715676 0.5 -0.3 0.00383193
0.219992 0.5 -0.75 0.0037613
0.219992 0.5 0.75 0.00376129
0.574156 0.5 0.55 0.00379816
0.574157 0.5 -0.55 0.00379818
0.523729 0.5 0.6 0.00379
0.523729 0.5 -0.6 0.00379002
0.756813 0.5 0.25 0.00384503
0.756814 0.5 -0.25 0.00384504
0.797951 0.5 -6.77919e-18 0.00386131
0 0.5 0.8 0.00375
0 0.5 -0.8 0.00375
0.624584 0.5 0.5 0.00380801
0.624584 0.5 -0.5 0.00380802
0.467897 0.5 0.65 0.00378243
0.467897 0.5 -0.65 0.00378245
0.797951 0.5 0.1 0.00386087
0.797951 0.5 -0.1 0.00386088
0.67013 0.5 0.45 0.0038185
0.67013 0.5 -0.45 0.00381851
0.412065 0.5 0.7 0.00377635
0.412065 0.5 -0.7 0.00377637
0.151552 0.5 0.8 0.0037576
0.151552 0.5 -0.8 0.0037576
0.715676 0.5 0.4 0.00383066
0.715676 0.5 -0.4 0.00383067
0.797951 0.5 -0.2 0.00385968
0.797951 0.5 0.2 0.00385968
0.350249 0.5 0.75 0.00377069
0.350249 0.5 -0.75 0.0037707
0 0.5 0.831682 0.00375
0 0.5 -0.831682 0.00375
0.756813 0.5 0.35 0.0038434
0.756814 0.5 -0.35 0.00384341
0.835106 0.5 -0.05 0.00387573
0.835106 0.5 0.05 0.00387573
0.835106 0.5 -0.15 0.0038755
0.835106 0.5 0.15 0.00387467
0.288433 0.5 0.8 0.00376612
0.288433 0.5 -0.8 0.00376613
0.797951 0.5 0.3 0.00385779
0.797951 0.5 -0.3 0.0038578
0.075776 0.5 0.85 0.00375348
0.075776 0.5 -0.85 0.00375374
0.624584 0.5 0.6 0.0038071
0.624584 0.5 -0.6 0.00380712
0.67013 0.5 0.55 0.00381723
0.67013 0.5 -0.55 0.00381724
0.574156 0.5 0.65 0.00379765
0.574156 0.5 -0.65 0.00379767
0 0.5 0.868318 0.00375
0 0.5 -0.868318 0.00375
0.835106 0.5 0.25 0.00387275
0.835106 0.5 -0.25 0.00387276
0.872262 0.5 -1.85037e-17 0.00389104
0.715676 0.5 0.5 0.00382904
0.715676 0.5 -0.5 0.00382905
0.523729 0.5 0.7 0.00378979
0.523729 0.5 -0.7 0.00378981
0.872262 0.5 0.1 0.00389044
0.872262 0.5 -0.1 0.00389044
0.219992 0.5 0.85 0.00376143
0.219992 0.5 -0.85 0.00376168
0.756813 0.5 -0.45 0.00384152
0.756814 0.5 0.45 0.0038415
0.467897 0.5 0.75 0.00378249
0.467897 0.5 -0.75 0.00378251
0.797951 0.5 0.4 0.00385541
0.797951 0.5 -0.4 0.00385542
0.872262 0.5 0.2 0.00388877
0.872262 0.5 -0.2 0.00388878
0.412065 0.5 0.8 0.00377656
0.412065 0.5 -0.8 0.00377657
0 0.5 0.9 0.00375
0 0.5 -0.9 0.00375
0.835106 0.5 0.35 0.00386998
0.835106 0.5 -0.35 0.00386999
0.90582 0.5 0.05 0.00390595
0.90582 0.5 -0.05 0.00390595
0.151552 0.5 0.9 0.00375782
0.151552 0.5 -0.9 0.00375783
0.90582 0.5 -0.15 0.00390543
0.905821 0.5 0.15 0.00390467
0.350249 0.5 0.85 0.00377067
0.350249 0.5 -0.85 0.003771
0.872262 0.5 0.3 0.00388614
0.872262 0.5 -0.3 0.00388615
0 0.5 0.931682 0.00375
0 0.5 -0.931682 0.00375
0.67013 0.5 0.65 0.0038156
0.67013 0.5 -0.65 0.00381562
0.715676 0.5 0.6 0.00382693
0.715676 0.5 -0.6 0.00382695
0.756813 0.5 0.55 0.00383898
0.756814 0.5 -0.55 0.00383899
0.624584 0.5 0.7 0.00380591
0.624584 0.5 -0.7 0.00380593
0.939379 0.5 0 0.0039212
0.90582 0.5 0.25 0.00390234
0.90582 0.5 -0.25 0.00390235
0.797951 0.5 0.5 0.00385255
0.797951 0.5 -0.5 0.00385257
0.574156 0.5 0.75 0.00379618
0.574156 0.5 -0.75 0.00379689
0.939379 0.5 0.1 0.0039205
0.939379 0.5 -0.1 0.0039205
0.288433 0.5 0.9 0.00376638
0.288433 0.5 -0.9 0.0037664
0.835106 0.5 0.45 0.00386677
0.835106 0.5 -0.45 0.00386679
0.075776 0.5 0.95 0.00375382
0.075776 0.5 -0.95 0.00375382
0.523729 0.5 0.8 0.00378933
0.523729 0.5 -0.8 0.00378934
0.872262 0.5 0.4 0.00388257
0.872262 0.5 -0.4 0.00388258
0.939379 0.5 0.2 0.00391855
0.939379 0.5 -0.2 0.00391856
0 0.5 -0.968318 0.00375
0 0.5 0.968318 0.00375
0.467897 0.5 0.85 0.00378321
0.467897 0.5 -0.85 0.00378232
0.969689 0.5 0.05 0.00393567
0.969689 0.5 -0.05 0.00393567
0.90582 0.5 -0.35 0.00389894
0.905821 0.5 0.35 0.00389892
0.219992 0.5 -0.95 0.00376189
0.219993 0.5 0.95 0.00376188
0.969689 0.5 0.15 0.00393423
0.969689 0.5 -0.15 0.00393506
0.939379 0.5 0.3 0.00391546
0.939379 0.5 -0.3 0.00391547
0.412065 0.5 0.9 0.00377651
0.412065 0.5 -0.9 0.00377653
0.756814 0.5 0.65 0.00383721
0.756814 0.5 -0.65 0.00383599
0.797951 0.5 0.6 0.00384904
0.797951 0.5 -0.6 0.00384906
0.835106 0.5 -0.55 0.0038629
0.835106 0.5 0.55 0.00386124
1 0.5 0 0.00395045
0 0.5 -1 0.00375
0 0.5 1 0.00375
0.715676 0.5 0.7 0.00382445
0.715676 0.5 -0.7 0.00382447
0.969689 0.5 0.25 0.00393156
0.969689 0.5 -0.25 0.00393153
1 0.5 0.1 0.00394968
1 0.5 -0.1 0.00394968
0.872262 0.5 0.5 0.00387826
0.872262 0.5 -0.5 0.00387827
0.67013 0.5 0.75 0.00381478
0.67013 0.5 -0.75 0.00381369
0.151552 0.5 -1 0.00375792
0.151552 0.5 1 0.00375791
0.90582 0.5 0.45 0.0038942
0.90582 0.5 -0.45 0.00389421
0.350249 0.5 0.95 0.00377104
0.350249 0.5 -0.95 0.00377106
0.624584 0.5 -0.8 0.00380444
0.624584 0.5 0.8 0.00380442
1 0.5 0.2 0.00394751
1 0.5 -0.2 0.00394751
0.939379 0.5 0.4 0.00391099
0.939379 0.5 -0.4 0.00391101
0.574157 0.5 0.85 0.00379583
0.574156 0.5 -0.85 0.00379584
1.02554 0.5 0.0491395 0.00396404
1.02554 0.5 -0.0491395 0.0039646
0.969689 0.5 0.35 0.00392762
0.969689 0.5 -0.35 0.00392758
0 0.5 -1.03168 0.00375
0 0.5 1.03168 0.00375
1.02554 0.5 0.147419 0.00396246
1.02554 0.5 -0.147419 0.00396298
0.288433 0.5 -1 0.00376644
0.288433 0.5 1 0.00376643
0.523729 0.5 0.9 0.00378859
0.523729 0.5 -0.9 0.00378861
1 0.5 0.3 0.00394407
1 0.5 -0.3 0.00394408
0.075776 0.5 1.05 0.00375384
0.075776 0.5 -1.05 0.00375384
1.02554 0.5 0.245697 0.00395959
1.02554 0.5 -0.245697 0.00395959
1.05773 0.5 -0.0167307 0.00398316
0.835106 0.5 0.65 0.00385829
0.835107 0.5 -0.65 0.00385831
0.872262 0.5 0.6 0.0038732
0.872262 0.5 -0.6 0.00387321
0.467897 0.5 0.95 0.00378184
0.467897 0.5 -0.95 0.00378186
0.90582 0.5 0.55 0.00389012
0.90582 0.5 -0.55 0.00388885
0.797951 0.5 0.7 0.00384502
0.797951 0.5 -0.7 0.00384504
1.05773 0.5 0.0961516 0.00398124
1.05773 0.5 -0.0961516 0.00398234
0.939379 0.5 0.5 0.00390537
0.939379 0.5 -0.5 0.00390538
0.756813 0.5 -0.75 0.0038326
0.756814 0.5 0.75 0.00383258
0 0.5 -1.06832 0.00375
0 0.5 1.06832 0.00375
0.969689 0.5 0.45 0.00392008
0.969689 0.5 -0.45 0.003922
0.219992 0.5 1.05 0.00376191
0.219992 0.5 -1.05 0.00376192
0.715676 0.5 0.8 0.00382164
0.715676 0.5 -0.8 0.00382166
1.05773 0.5 0.192304 0.00397894
1.05773 0.5 -0.192304 0.0039789
1 0.5 0.4 0.0039391
1 0.5 -0.4 0.00393912
1.07643 0.5 0.0474523 0.00399189
1.07643 0.5 -0.0474523 0.00399189
0.412065 0.5 -1 0.00377622
0.412065 0.5 1 0.00377621
1.02554 0.5 0.343976 0.00395597
1.02554 0.5 -0.343976 0.00395543
0.67013 0.5 -0.85 0.00381146
0.67013 0.5 0.85 0.00381144
1.07643 0.5 0.142357 0.00399023
1.07643 0.5 -0.142357 0.00399023
1.08646 0.5 -0.0942357 0.00400074
1.09383 0.5 -1.96602e-17 0.00400224
0.624584 0.5 -0.9 0.00380269
0.624584 0.5 0.9 0.00380267
1.05773 0.5 0.288455 0.0039756
1.05773 0.5 -0.288455 0.00397523
1.09383 0.5 0.0894942 0.00400363
0 0.5 1.1 0.00375
0 0.5 -1.1 0.00375
1.08549 0.5 -0.187488 0.00399803
1.07643 0.5 0.237261 0.00398718
1.07643 0.5 -0.237261 0.00398719
0.350249 0.5 1.05 0.00377086
0.350249 0.5 -1.05 0.00377088
1.09383 0.5 0.186809 0.00400092
0.574156 0.5 0.95 0.0037945
0.574156 0.5 -0.95 0.00379452
0.151552 0.5 1.1 0.00375789
0.151552 0.5 -1.1 0.00375789
0.939379 0.5 0.6 0.00389863
0.939379 0.5 -0.6 0.00389865
0.969689 0.5 0.55 0.0039154
0.969689 0.5 -0.55 0.00391532
0.90582 0.5 -0.65 0.00388247
0.905821 0.5 0.65 0.00388245
1.02554 0.5 -0.442255 0.00394951
1.02554 0.5 0.442255 0.00395033
1 0.5 0.5 0.00393274
1 0.5 -0.5 0.00393275
0.872262 0.5 -0.7 0.00386742
0.872262 0.5 0.7 0.0038674
0.835106 0.5 -0.75 0.00385322
0.835106 0.5 0.75 0.0038532
1.05773 0.5 0.384606 0.00397022
1.05773 0.5 -0.384606 0.00397003
1.12467 0.5 -0.0458442 0.00402034
1.12467 0.5 0.0458442 0.00401762
1.07643 0.5 0.332166 0.00398281
1.07643 0.5 -0.332166 0.00398282
0.523729 0.5 -1 0.00378761
0.523729 0.5 1 0.00378759
1.09383 0.5 0.281233 0.00399515
1.09383 0.5 -0.281233 0.00399424
0.797951 0.5 -0.8 0.00384065
0.797951 0.5 0.8 0.00384063
0 0.5 1.13168 0.00375
0 0.5 -1.13168 0.00375
1.12467 0.5 -0.137533 0.00401859
1.12467 0.5 0.137533 0.0040186
0.288433 0.5 1.1 0.00376628
0.288433 0.5 -1.1 0.00376629
0.756814 0.5 0.85 0.00382888
0.756814 0.5 -0.85 0.0038289
1.12467 0.5 0.229221 0.00401537
1.12467 0.5 -0.229221 0.00401535
1.08549 0.5 0.37332 0.00398894
1.14834 0.5 0 0.00403512
0.467897 0.5 1.05 0.00378113
0.467897 0.5 -1.05 0.00378115
0.715676 0.5 -0.9 0.00381857
0.715676 0.5 0.9 0.00381856
1.14834 0.5 -0.0901106 0.00403421
1.14834 0.5 0.0901106 0.00403421
0.075776 0.5 1.15 0.0037541
0.075776 0.5 -1.15 0.0037538
1.09383 0.5 -0.374977 0.00398889
1.05485 0.5 0.476139 0.00396349
1.07643 0.5 -0.427071 0.00397669
1.07643 0.5 0.427071 0.00397668
1.02554 0.5 -0.540535 0.00394242
1.02554 0.5 0.540535 0.00394242
1.05773 0.5 -0.480758 0.00396336
1.14834 0.5 -0.180221 0.00403163
1.14834 0.5 0.180221 0.00403163
0.67013 0.5 0.95 0.00380895
0.67013 0.5 -0.95 0.00380897
1.16437 0.5 0.044521 0.00404315
1.16437 0.5 -0.044521 0.00404537
1 0.5 -0.6 0.00392487
1 0.5 0.6 0.00392485
0.969689 0.5 0.65 0.0039071
0.969689 0.5 -0.65 0.003907
0 0.5 1.16832 0.00375
0 0.5 -1.16832 0.00375
1.12467 0.5 0.32091 0.00401073
1.12467 0.5 -0.32091 0.00401071
0.219992 0.5 1.15 0.00376213
0.219992 0.5 -1.15 0.00376177
0.939379 0.5 -0.7 0.00389085
0.939379 0.5 0.7 0.00389084
1.16437 0.5 0.133563 0.00404353
1.16437 0.5 -0.133563 0.00404354
0.412065 0.5 1.1 0.00377568
0.412065 0.5 -1.1 0.00377569
0.90582 0.5 -0.75 0.0038754
0.90582 0.5 0.75 0.00387538
0.624584 0.5 -1 0.00380067
0.624584 0.5 1 0.00380065
1.14834 0.5 -0.270332 0.00402757
1.14834 0.5 0.270332 0.00402757
0.872262 0.5 -0.8 0.00386116
0.872262 0.5 0.8 0.00386114
1.16437 0.5 -0.222605 0.00404012
1.16437 0.5 0.222605 0.00404011
1.09383 0.5 -0.468722 0.00398205
1.09383 0.5 0.468722 0.00398211
0.835106 0.5 0.85 0.00384778
0.835106 0.5 -0.85 0.0038478
1.19294 0.5 0 0.00406487
1.19293 0.5 0.0870952 0.0040639
1.19294 0.5 -0.0871367 0.0040639
1.07643 0.5 -0.521975 0.00396934
1.07643 0.5 0.521975 0.00396932
0.574156 0.5 -1.05 0.00379295
0.574157 0.5 1.05 0.00379294
1.12467 0.5 0.412598 0.00400439
1.12467 0.5 -0.412598 0.00400437
0 0.5 1.2 0.00375
0 0.5 -1.2 0.00375
0.350249 0.5 -1.15 0.00377048
0.350249 0.5 1.15 0.00377153
0.797951 0.5 -0.9 0.00383597
0.797951 0.5 0.9 0.00383595
1.14834 0.5 -0.360442 0.00402193
1.14834 0.5 0.360442 0.00402192
1.05773 0.5 -0.57691 0.00395517
1.05773 0.5 0.57691 0.00395535
1.16437 0.5 -0.311647 0.00403523
1.16437 0.5 0.311647 0.00403522
1.19294 0.5 -0.174273 0.00406114
1.19297 0.5 0.174199 0.00406115
1.02554 0.5 -0.638814 0.00393343
1.02554 0.5 0.638814 0.00393343
0.151552 0.5 1.2 0.00375774
0.151552 0.5 -1.2 0.00375774
0.756813 0.5 0.95 0.00382491
0.756814 0.5 -0.95 0.00382493
0.523729 0.5 -1.1 0.00378639
0.523729 0.5 1.1 0.00378638
1 0.5 -0.7 0.00391537
1 0.5 0.7 0.00391536
1.22029 0.5 -0.0426571 0.00408482
1.22029 0.5 0.0426571 0.00408485
1.19297 0.5 0.261114 0.00405686
1.19294 0.5 -0.26141 0.0040568
0.969689 0.5 -0.75 0.0038979
0.969689 0.5 0.75 0.00389801
1.22029 0.5 0.127971 0.00408288
1.22029 0.5 -0.127971 0.00408281
0.715676 0.5 -1 0.00381524
0.715676 0.5 1 0.00381522
1.09383 0.5 -0.562466 0.00397374
1.09383 0.5 0.562466 0.00397382
1.16437 0.5 0.400689 0.00402863
1.16437 0.5 -0.400689 0.00402864
0 0.5 1.23168 0.00375
0 0.5 -1.23168 0.00375
1.12467 0.5 0.504287 0.00399671
1.12467 0.5 -0.504287 0.00399668
1.14834 0.5 -0.450553 0.00401475
1.14834 0.5 0.450553 0.00401473
0.939379 0.5 -0.8 0.00388256
0.939379 0.5 0.8 0.00388255
0.288433 0.5 1.2 0.00376591
0.288433 0.5 -1.2 0.00376592
1.2354 0.5 0 0.00409559
1.2354 0.5 -0.0843067 0.00409456
1.2354 0.5 0.0843067 0.00409456
1.22029 0.5 -0.213285 0.00407904
1.22029 0.5 0.213285 0.00407851
1.07643 0.5 -0.61688 0.00396022
1.07643 0.5 0.61688 0.00396021
0.467897 0.5 1.15 0.00378022
0.467897 0.5 -1.15 0.00378023
0.90582 0.5 -0.85 0.00386797
0.90582 0.5 0.85 0.00386795
1.19294 0.5 -0.348547 0.00405083
1.19297 0.5 0.348541 0.00405077
0.67013 0.5 1.05 0.00380622
0.67013 0.5 -1.05 0.00380623
1.2354 0.5 0.168613 0.0040916
1.2354 0.5 -0.168613 0.0040916
0.075776 0.5 -1.25 0.0037537
0.075776 0.5 1.25 0.0037537
0.872262 0.5 -0.9 0.00385459
0.872262 0.5 0.9 0.00385457
1.05773 0.5 -0.673062 0.00394505
1.05773 0.5 0.673062 0.00394527
1.25536 0.5 -0.0414881 0.00411094
1.25536 0.5 0.0414881 0.00411094
1.22029 0.5 0.2986 0.00407383
1.22029 0.5 -0.2986 0.00407368
1.2354 0.5 0.25292 0.00408693
1.2354 0.5 -0.25292 0.00408693
1.25536 0.5 0.124464 0.00410882
1.25536 0.5 -0.124464 0.00410881
1.02554 0.5 0.737092 0.00392259
1.02554 0.5 -0.737092 0.0039226
1.16437 0.5 -0.489731 0.00402065
1.16437 0.5 0.489731 0.00402063
0.835106 0.5 -0.95 0.00384214
0.835106 0.5 0.95 0.00384212
0.624584 0.5 -1.1 0.00379846
0.624584 0.5 1.1 0.00379845
0 0.5 -1.26832 0.00375
0 0.5 1.26832 0.00375
0.412065 0.5 1.2 0.0037749
0.412065 0.5 -1.2 0.00377491
0.219992 0.5 1.25 0.00376145
0.219992 0.5 -1.25 0.00376145
1.14834 0.5 -0.540664 0.00400616
1.14834 0.5 0.540664 0.00400615
1.19294 0.5 -0.435684 0.00404327
1.19297 0.5 0.435676 0.00404321
1.25536 0.5 -0.20744 0.00410482
1.25536 0.5 0.20744 0.00410771
1.12467 0.5 0.595975 0.00398746
1.12467 0.5 -0.595975 0.00398743
1.09383 0.5 -0.65621 0.00396354
1.09383 0.5 0.65621 0.00396364
1.22029 0.5 0.383914 0.00406677
1.22029 0.5 -0.383914 0.00406658
0.797951 0.5 -1 0.00383107
0.797951 0.5 1 0.00383106
1.27974 0.5 -2.42861e-17 0.00413157
1.2354 0.5 0.337227 0.00408056
1.2354 0.5 -0.337227 0.00408056
1 0.5 -0.8 0.00390505
1 0.5 0.8 0.00390504
1.27974 0.5 -0.0813505 0.00413043
1.27974 0.5 0.0813505 0.00413047
0.574156 0.5 1.15 0.00379119
0.574156 0.5 -1.15 0.00379121
1.25536 0.5 0.290417 0.00410377
1.25536 0.5 -0.290417 0.00409914
1.27874 0.5 0.162701 0.00412727
0.969689 0.5 -0.85 0.00388848
0.969689 0.5 0.85 0.00388859
1.27974 0.5 -0.162701 0.00412719
1.07643 0.5 0.711784 0.003949
1.07643 0.5 -0.711784 0.00394901
0.756814 0.5 -1.05 0.00382077
0.756814 0.5 1.05 0.00382075
1.29471 0.5 0.0401762 0.00414372
1.29471 0.5 -0.0401762 0.00414372
0.350249 0.5 1.25 0.00377138
0.350249 0.5 -1.25 0.00376981
0 0.5 1.3 0.00375
0 0.5 -1.3 0.00375
1.16437 0.5 0.578773 0.0040112
1.16437 0.5 -0.578773 0.00401121
1.29471 0.5 0.120529 0.00414142
1.29471 0.5 -0.120529 0.00414142
0.939379 0.5 -0.9 0.00387399
0.939379 0.5 0.9 0.00387398
1.27917 0.5 0.244051 0.00412244
1.19294 0.5 -0.52282 0.00403432
1.19297 0.5 0.522811 0.00403426
1.27974 0.5 -0.244051 0.00412208
1.2354 0.5 0.421534 0.00407253
1.2354 0.5 -0.421534 0.00407255
1.22029 0.5 -0.469228 0.00405798
1.22029 0.5 0.469228 0.00405822
1.05773 0.5 -0.769213 0.00393346
1.05773 0.5 0.769213 0.0039337
1.30828 0.5 1.61908e-17 0.00415514
0.151552 0.5 1.3 0.00375749
0.151552 0.5 -1.3 0.00375749
0.523729 0.5 -1.2 0.00378492
0.523729 0.5 1.2 0.00378491
1.25536 0.5 0.373393 0.00409168
1.25536 0.5 -0.373393 0.00409167
1.14834 0.5 -0.630774 0.00399583
1.14834 0.5 0.630774 0.00399582
1.29471 0.5 -0.200881 0.0041371
1.29471 0.5 0.200881 0.0041371
1.30828 0.5 0.0794482 0.00415397
1.30828 0.5 -0.0794482 0.00415394
0.715676 0.5 -1.1 0.00381177
0.715676 0.5 1.1 0.00381175
0.90582 0.5 -0.95 0.00386026
0.90582 0.5 0.95 0.00386025
1.30828 0.5 0.158897 0.00415057
1.30828 0.5 -0.158897 0.00415052
1.12467 0.5 -0.687663 0.00397617
1.12467 0.5 0.687663 0.00397622
1.27974 0.5 0.325402 0.00411607
1.27974 0.5 -0.325402 0.00411516
1.02554 0.5 -0.835371 0.00391118
1.02554 0.5 0.835371 0.00391117
1.29471 0.5 0.281233 0.00413096
1.29471 0.5 -0.281233 0.00413096
1.09383 0.5 -0.749954 0.00395169
1.09383 0.5 0.749954 0.00395181
0.872262 0.5 -1 0.00384786
0.872262 0.5 1 0.00384785
1.30726 0.5 0.238345 0.00414487
1.30828 0.5 -0.238345 0.00414512
0.67013 0.5 1.15 0.00380337
0.67013 0.5 -1.15 0.00380339
0.288433 0.5 1.3 0.00376534
0.288433 0.5 -1.3 0.00376535
0 0.5 1.33168 0.00375
0 0.5 -1.33168 0.00375
1.33249 0.5 0.038917 0.00417889
1.33249 0.5 -0.038917 0.00417888
0.467897 0.5 1.25 0.00377899
0.467897 0.5 -1.25 0.003779
1.2354 0.5 0.50584 0.0040631
1.2354 0.5 -0.50584 0.00406311
1.25536 0.5 0.456369 0.00408266
1.25536 0.5 -0.456369 0.00408264
1.33249 0.5 -0.116751 0.0041764
1.33249 0.5 0.116751 0.00417643
1.19294 0.5 -0.609957 0.00402377
1.19297 0.5 0.609947 0.00402372
1.22029 0.5 0.554542 0.0040483
1.22029 0.5 -0.554542 0.00404803
0.835106 0.5 -1.05 0.00383636
0.835106 0.5 1.05 0.00383635
1.16437 0.5 -0.667815 0.00399989
1.16437 0.5 0.667815 0.00399988
1.27974 0.5 0.406752 0.00410668
1.27974 0.5 -0.406752 0.00410651
1.29471 0.5 0.361586 0.00412293
1.29471 0.5 -0.361586 0.00412294
1.30701 0.5 0.31501 0.00413804
1.07643 0.5 -0.806689 0.00393667
1.07643 0.5 0.806689 0.00393665
1 0.5 -0.9 0.00389455
1 0.5 0.9 0.00389453
1.30828 0.5 -0.317793 0.00413783
1.33249 0.5 -0.194585 0.0041717
1.33249 0.5 0.194585 0.00417174
1.35048 0.5 0 0.00419654
0.075776 0.5 1.35 0.00375327
0.075776 0.5 -1.35 0.00375356
1.35048 0.5 -0.0766347 0.00419524
1.35048 0.5 0.0766347 0.00419524
0.624584 0.5 -1.2 0.00379605
0.624584 0.5 1.2 0.00379603
1.14834 0.5 -0.720885 0.00398376
1.14834 0.5 0.720885 0.00398375
0.969689 0.5 -0.95 0.00387887
0.969689 0.5 0.95 0.00387898
0.797951 0.5 -1.1 0.00382614
0.797951 0.5 1.1 0.00382612
1.35048 0.5 -0.153269 0.00419149
1.35048 0.5 0.153269 0.00419149
1.33249 0.5 0.272419 0.00416505
1.33249 0.5 -0.272419 0.004165
0.412065 0.5 1.3 0.00377385
0.412065 0.5 -1.3 0.00377386
1.3642 0.5 -0.0378601 0.00421006
1.3642 0.5 0.0378601 0.00421008
1.25536 0.5 -0.539346 0.00407227
1.25536 0.5 0.539346 0.0040723
1.05773 0.5 -0.865364 0.00392115
1.05773 0.5 0.865364 0.0039214
1.30828 0.5 0.397241 0.00412882
1.30828 0.5 -0.397241 0.00412873
0.219992 0.5 1.35 0.00376063
0.219992 0.5 -1.35 0.003761
1.29471 0.5 -0.441939 0.00411326
1.29471 0.5 0.441939 0.00411325
1.12467 0.5 -0.779352 0.00396351
1.12467 0.5 0.779352 0.00396356
0 0.5 1.36832 0.00375
0 0.5 -1.36832 0.00375
1.3642 0.5 -0.11358 0.00420738
1.3642 0.5 0.11358 0.00420745
1.2354 0.5 0.590147 0.0040522
1.2354 0.5 -0.590147 0.00405221
1.27974 0.5 0.488103 0.00409658
1.27974 0.5 -0.488103 0.00409638
1.35048 0.5 -0.229904 0.00418554
1.35048 0.5 0.229904 0.00418554
0.939379 0.5 -1 0.00386526
0.939379 0.5 1 0.00386525
0.574156 0.5 1.25 0.00378916
0.574156 0.5 -1.25 0.00378917
0.756813 0.5 1.15 0.00381658
0.756814 0.5 -1.15 0.0038166
1.3642 0.5 -0.189301 0.00420231
1.3642 0.5 0.189301 0.00420243
1.33249 0.5 0.350253 0.00416293
1.33249 0.5 -0.350253 0.00415632
1.22029 0.5 0.639857 0.00403672
1.22029 0.5 -0.639857 0.0040364
1.09383 0.5 -0.843699 0.00393875
1.09383 0.5 0.843699 0.00393887
1.19294 0.5 -0.697094 0.00401152
1.19297 0.5 0.697082 0.00401147
1.35048 0.5 0.306539 0.00417752
1.35048 0.5 -0.306539 0.00417752
1.38524 0.5 6.93889e-18 0.00423438
0.90582 0.5 -1.05 0.00385256
0.90582 0.5 1.05 0.00385254
1.02554 0.5 -0.93365 0.00389989
1.02554 0.5 0.93365 0.00389988
1.38524 0.5 -0.0743173 0.00423296
1.38524 0.5 0.0743173 0.00423298
1.16437 0.5 0.756856 0.00398701
1.16437 0.5 -0.756856 0.00398703
1.3642 0.5 -0.265021 0.00419508
1.3642 0.5 0.265021 0.00419523
1.30828 0.5 0.476689 0.00411819
1.30828 0.5 -0.476689 0.00411808
1.38524 0.5 0.148634 0.0042289
1.38524 0.5 -0.148634 0.00422887
0.350249 0.5 -1.35 0.00376894
0.350249 0.5 1.35 0.00376848
1.29471 0.5 0.522291 0.00410222
1.29471 0.5 -0.522291 0.00410223
0.715676 0.5 -1.2 0.00380818
0.715676 0.5 1.2 0.00380817
1.33249 0.5 0.428087 0.00415552
1.33249 0.5 -0.428087 0.00414587
0 0.5 1.4 0.00375
0 0.5 -1.4 0.00375
1.27974 0.5 0.569453 0.0040851
1.27974 0.5 -0.569453 0.00408488
1.25536 0.5 0.622322 0.00406041
1.25536 0.5 -0.622322 0.00406037
0.523729 0.5 -1.3 0.00378319
0.523729 0.5 1.3 0.00378318
1.40143 0.5 -0.0366192 0.00425272
1.40143 0.5 0.0366192 0.00425272
1.38524 0.5 -0.222952 0.00422236
1.38524 0.5 0.222952 0.0042224
1.35048 0.5 0.383173 0.00416754
1.35048 0.5 -0.383173 0.00416754
0.872262 0.5 -1.1 0.00384124
0.872262 0.5 1.1 0.00384122
1.07643 0.5 0.901593 0.00392348
1.07643 0.5 -0.901593 0.0039235
1.40143 0.5 -0.109857 0.00424979
1.40143 0.5 0.109857 0.0042498
1.14834 0.5 -0.810995 0.00397028
1.14834 0.5 0.810995 0.00397027
1.3642 0.5 0.340741 0.00418594
1.3642 0.5 -0.340741 0.00418576
1.2354 0.5 0.674454 0.00403969
1.2354 0.5 -0.674454 0.00403969
0.151552 0.5 1.4 0.00375715
0.151552 0.5 -1.4 0.00375715
1.40143 0.5 0.183096 0.00424422
1.40143 0.5 -0.183096 0.00424422
1.41413 0.5 1.15648e-18 0.00426795
1 0.5 -1 0.00388398
1 0.5 1 0.00388396
1.41413 0.5 -0.0723911 0.00426641
1.41413 0.5 0.0723911 0.00426647
1.38524 0.5 -0.297269 0.00421361
1.38524 0.5 0.297269 0.00421366
0.67013 0.5 -1.25 0.00380031
0.67013 0.5 1.25 0.0038003
1.22029 0.5 0.725171 0.00402357
1.22029 0.5 -0.725171 0.00402321
0.835106 0.5 -1.15 0.00383068
0.835106 0.5 1.15 0.00383067
1.41413 0.5 -0.144782 0.00426198
1.41413 0.5 0.144782 0.0042621
1.30828 0.5 0.556137 0.00410622
1.30828 0.5 -0.556137 0.0041061
1.12467 0.5 0.87104 0.00394958
1.12467 0.5 -0.87104 0.00394953
1.40143 0.5 0.256334 0.00423627
1.40143 0.5 -0.256334 0.00423626
1.33249 0.5 0.50592 0.00414335
1.33249 0.5 -0.50592 0.00413396
1.3642 0.5 -0.416461 0.00417454
1.3642 0.5 0.416461 0.00417475
1.35048 0.5 0.459808 0.0041559
1.35048 0.5 -0.459808 0.0041559
1.19294 0.5 -0.78423 0.00399782
1.19297 0.5 0.784217 0.00399777
1.29471 0.5 0.602643 0.00408983
1.29471 0.5 -0.602643 0.00408983
0.467897 0.5 -1.35 0.00377754
0.467897 0.5 1.35 0.00377693
0.969689 0.5 1.05 0.00386929
0.969689 0.5 -1.05 0.00386919
0.288433 0.5 1.4 0.00376462
0.288433 0.5 -1.4 0.00376462
1.05773 0.5 -0.961516 0.00390863
1.05773 0.5 0.961516 0.00390889
1.41413 0.5 -0.217173 0.00425494
1.41413 0.5 0.217173 0.00425511
0 0.5 -1.43168 0.00375
0 0.5 1.43168 0.00375
1.38524 0.5 0.371586 0.0042028
1.38524 0.5 -0.371586 0.00420274
1.43384 0.5 0.0355385 0.00429452
1.43384 0.5 -0.0355385 0.00429451
1.27974 0.5 0.650804 0.00407215
1.27974 0.5 -0.650804 0.00407189
1.43384 0.5 -0.106616 0.00429131
1.43384 0.5 0.106616 0.00429134
1.16437 0.5 -0.845898 0.00397278
1.16437 0.5 0.845898 0.00397276
1.40143 0.5 0.329573 0.00422603
1.40143 0.5 -0.329573 0.00422602
1.25536 0.5 0.705298 0.00404696
1.25536 0.5 -0.705298 0.00404692
1.09383 0.5 -0.937443 0.00392511
1.09383 0.5 0.937443 0.00392524
0.797951 0.5 -1.2 0.00382118
0.797951 0.5 1.2 0.00382117
0.624584 0.5 -1.3 0.0037934
0.624584 0.5 1.3 0.00379339
1.41413 0.5 0.289564 0.00424571
1.41413 0.5 -0.289564 0.00424549
1.43384 0.5 0.177693 0.00428525
1.43384 0.5 -0.177693 0.00428521
0.939379 0.5 -1.1 0.00385676
0.939379 0.5 1.1 0.00385674
1.4493 0.5 0 0.00431595
1.3791 0.5 0.445903 0.00419013
1.2354 0.5 0.758761 0.00402573
1.2354 0.5 -0.758761 0.00402574
1.3642 0.5 0.492182 0.00416203
1.3642 0.5 -0.492182 0.0041618
1.4493 0.5 -0.0700466 0.00431427
1.4493 0.5 0.0700466 0.00431428
0.075776 0.5 1.45 0.00375338
0.075776 0.5 -1.45 0.00375338
1.35048 0.5 0.536443 0.00414293
1.35048 0.5 -0.536443 0.00414293
1.30828 0.5 -0.635586 0.00409272
1.30828 0.5 0.635586 0.00409286
1.33249 0.5 0.583754 0.00412091
1.33249 0.5 -0.583754 0.00412082
1.02554 0.5 -1.03193 0.00388855
1.02554 0.5 1.03193 0.00388854
1.38524 0.5 -0.445903 0.00419006
1.43384 0.5 -0.24877 0.00427646
1.43384 0.5 0.24877 0.00427652
1.4493 0.5 -0.140093 0.0043094
1.4493 0.5 0.140093 0.00430941
1.40143 0.5 0.402811 0.00421368
1.40143 0.5 -0.402811 0.00421367
0.412065 0.5 1.4 0.0037726
0.412065 0.5 -1.4 0.0037726
1.14834 0.5 -0.901106 0.00395542
1.14834 0.5 0.901106 0.0039554
1.41413 0.5 -0.361955 0.00423376
1.41413 0.5 0.361955 0.00423403
1.4605 0.5 -0.0346501 0.00433127
1.4605 0.5 0.0346501 0.00433131
0.756813 0.5 -1.25 0.0038123
0.756813 0.5 1.25 0.00381229
1.29471 0.5 0.682996 0.00407594
1.29471 0.5 -0.682996 0.00407594
0.90582 0.5 -1.15 0.00384521
0.90582 0.5 1.15 0.00384519
1.4605 0.5 0.10395 0.00432792
1.4605 0.5 -0.10395 0.00432781
1.4493 0.5 -0.21014 0.00430161
1.4493 0.5 0.21014 0.00430162
1.22029 0.5 0.810485 0.00400905
1.22029 0.5 -0.810485 0.00400866
0.219992 0.5 1.45 0.00376044
0.219993 0.5 -1.45 0.00376044
1.07643 0.5 -0.996497 0.00391034
1.07643 0.5 0.996497 0.00391032
0.574156 0.5 1.35 0.00378613
0.574156 0.5 -1.35 0.00378691
0 0.5 1.46832 0.00375
0 0.5 -1.46832 0.00375
1.43384 0.5 -0.319846 0.00426524
1.43384 0.5 0.319846 0.00426531
1.4605 0.5 -0.173251 0.0043212
1.4605 0.5 0.173251 0.00432138
1.27974 0.5 0.732154 0.00405779
1.27974 0.5 -0.732154 0.00405751
1.4493 0.5 -0.280186 0.00429114
1.4493 0.5 0.280186 0.00429116
1.38255 0.5 0.520221 0.0041766
1.19294 0.5 -0.871367 0.00398262
1.19297 0.5 0.871352 0.00398256
1.3642 0.5 -0.567902 0.0041479
1.3642 0.5 0.567902 0.00414905
1.47924 0.5 3.46945e-19 0.00436236
1.41413 0.5 -0.434347 0.00422008
1.41413 0.5 0.434347 0.00422038
1.38524 0.5 -0.520221 0.00417603
1.40143 0.5 -0.47605 0.00419965
1.40143 0.5 0.47605 0.00419965
1.12467 0.5 0.962728 0.00393468
1.12467 0.5 -0.962728 0.00393462
1.4605 0.5 -0.242551 0.00431171
1.4605 0.5 0.242551 0.00431195
1.47924 0.5 -0.0680509 0.00436052
1.47924 0.5 0.0680509 0.00436054
1.25536 0.5 0.788274 0.00403219
1.25536 0.5 -0.788274 0.00403215
1.35048 0.5 0.613077 0.00412872
1.35048 0.5 -0.613077 0.00412872
0.872262 0.5 -1.2 0.00383476
0.872262 0.5 1.2 0.00383475
0.715676 0.5 -1.3 0.00380445