# kMean  POINT_DATA 52309
# x  y  z  kMean
0 0 0 0.007125
0 0.00519778 0 0.00375
0 0.0106663 0 0.00375
0 0.0164197 0 0.00375
0 0.0224727 0 0.00375
0 0.028841 0 0.00375
0 0.035541 0 0.00375
0 0.04259 0 0.00375
0 0.0500061 0 0.00375
0 0.0578085 0 0.00375
0 0.0660173 0 0.00375
0 0.0746537 0 0.00375
0.075776 0.00259889 0 0.0132447
0.075776 0.00793204 0 0.00437032
0.075776 0.013543 0 0.00364704
0.075776 0.0194462 0 0.00367075
0.075776 0.0256568 0 0.00370315
0.075776 0.032191 3.46945e-18 0.00371931
0 0.0837399 0 0.00375
0.075776 0.0390655 3.46945e-18 0.00372835
0.075776 0.046298 -3.46945e-18 0.003734
0.075776 0.0539073 0 0.00373782
0 0.0932994 0 0.00375
0.075776 0.0619129 0 0.00374058
0 0.103357 0 0.00375
0.075776 0.0703355 0 0.00374265
0.075776 0.0791968 0 0.00374428
0 0.113938 0 0.00375
0.075776 0.0885197 3.46945e-18 0.00374564
0.075776 0.0983282 0 0.0037468
0 0.12507 0 0.00375
0.075776 0.108648 0 0.00374779
0 0.136783 0 0.00375
0.075776 0.119504 0 0.00374866
0 0.149105 0 0.00375
0.075776 0.130926 0 0.00374942
0.151552 0 0 0.0104649
0.151552 0.00519778 0 0.00712801
0.151552 0.0106663 0 0.00356643
0.151552 0.0164197 0 0.00342174
0.151552 0.0224727 0 0.00355525
0.151552 0.028841 0 0.00363526
0.151552 0.035541 0 0.00367583
0.151552 0.04259 0 0.00369864
0.151552 0.0500061 0 0.00371278
0.075776 0.142944 0 0.00375009
0 0.162069 0 0.00375
0.151552 0.0578085 0 0.00372222
0.151552 0.0660173 0 0.00372888
0.151552 0.0746537 0 0.00373376
0.075776 0.155587 3.46945e-18 0.00375068
0.151552 0.0837399 0 0.00373747
0 0.175708 0 0.00375
0.151552 0.0932994 0 0.0037404
0.151552 0.103357 0 0.00374276
0.075776 0.168888 0 0.00375118
0.151552 0.113938 0 0.00374469
0 0.190058 0 0.00375
0.151552 0.12507 0 0.00374628
0.075776 0.182883 0 0.0037516
0.151552 0.136783 0 0.00374761
0 0.205155 0 0.00375
0.075776 0.197606 0 0.00375197
0.151552 0.149105 0 0.00374873
0.219992 0.00259889 0 0.00786949
0.219993 0.00793204 0 0.00324997
0.219993 0.013543 0 0.00305701
0.219992 0.0194462 -3.46945e-18 0.0033436
0 0.221039 0 0.00375
0.219993 0.0256568 0 0.00352096
0.151552 0.162069 0 0.00374968
0.219993 0.032191 0 0.00360768
0.219993 0.0390655 0 0.00365434
0.219993 0.0462981 3.46945e-18 0.00368218
0.075776 0.213097 6.93889e-18 0.00375226
0.219992 0.0539073 0 0.00370017
0.219992 0.0619129 0 0.00371255
0.219992 0.0703355 0 0.00372142
0.151552 0.175708 0 0.0037505
0.219992 0.0791968 0 0.00372798
0.219992 0.0885196 3.46945e-18 0.00373299
0 0.23775 0 0.00375
0.219992 0.0983282 0 0.00373694
0.075776 0.229395 -3.46945e-18 0.00375242
0.151552 0.190058 0 0.00375118
0.219992 0.108647 0 0.00374011
0.219992 0.119504 -3.46945e-18 0.00374267
0.151552 0.205155 0 0.00375175
0 0.255331 0 0.00375
0.219992 0.130926 3.46945e-18 0.00374476
0.075776 0.24654 0 0.0037524
0.219993 0.142944 3.46945e-18 0.00374647
0.151552 0.221039 0 0.00375222
0.219992 0.155587 0 0.00374791
0 0.273828 0 0.00375
0.075776 0.264579 -3.46945e-18 0.00375225
0.219992 0.168888 3.46945e-18 0.00374914
0.151552 0.23775 0 0.00375256
0.219992 0.182883 0 0.00375018
0.288433 0 0 0.00538255
0.288433 0.00519778 0 0.00413261
0.288433 0.0106663 0 0.00291633
0.288433 0.0164197 0 0.00309856
0.288433 0.0224727 0 0.00334287
0.288433 0.028841 0 0.00349095
0.288433 0.035541 0 0.00357475
0.288433 0.04259 3.70071e-18 0.00362657
0.288433 0.0500061 0 0.00366031
0 0.293289 0 0.00375
0.075776 0.283558 0 0.00375204
0.288433 0.0578085 0 0.0036833
0.219992 0.197607 3.46945e-18 0.00375105
0.288433 0.0660173 0 0.00369959
0.151552 0.255331 0 0.00375277
0.288433 0.0746537 0 0.00371148
0.288433 0.0837399 0 0.00372037
0.288433 0.0932994 0 0.00372718
0.219992 0.213097 3.46945e-18 0.00375179
0.288433 0.103357 0 0.00373259
0.288433 0.113938 0 0.00373707
0.075776 0.303526 0 0.00375184
0.151552 0.273828 0 0.00375288
0 0.313763 0 0.00375
0.288433 0.12507 0 0.00374083
0.219992 0.229394 0 0.00375242
0.288433 0.136783 0 0.00374398
0.288433 0.149105 0 0.00374659
0.151552 0.293289 0 0.00375294
0.219992 0.24654 0 0.00375297
0.288433 0.162069 0 0.00374877
0.075776 0.324533 6.93889e-18 0.00375176
0 0.335303 0 0.00375
0.288433 0.175708 0 0.00375058
0.219992 0.264579 0 0.00375341
0.288433 0.190058 0 0.00375205
0.151552 0.313763 0 0.00375302
0.350249 0.00259889 3.46945e-18 0.00304975
0.350249 0.00793204 -3.46945e-18 0.0025378
0.350249 0.013543 3.46945e-18 0.00284991
0.350249 0.0194462 3.46945e-18 0.00315632
0.350249 0.0256568 -3.46945e-18 0.00336167
0.350249 0.032191 -6.93889e-18 0.00348258
0.350249 0.0390655 6.93889e-18 0.00356135
0.350249 0.0462981 -3.46945e-18 0.00361356
0.288433 0.205155 -6.16298e-33 0.00375323
0.350249 0.0539073 0 0.00364914
0.075776 0.346634 0 0.00375179
0.350249 0.0619129 3.46945e-18 0.0036742
0.350249 0.0703355 3.46945e-18 0.00369236
0 0.357966 0 0.00375
0.219993 0.283558 3.46945e-18 0.00375374
0.350249 0.0791968 3.46945e-18 0.00370582
0.350249 0.0885196 0 0.00371596
0.288433 0.221039 0 0.00375419
0.350249 0.0983282 6.93889e-18 0.0037238
0.350249 0.108647 3.46945e-18 0.00373025
0.151552 0.335303 0 0.00375318
0.350249 0.119504 -3.46945e-18 0.00373578
0.288433 0.23775 0 0.00375501
0.350249 0.130927 0 0.00374048
0.219992 0.303526 -3.46945e-18 0.00375402
0.075776 0.369888 0 0.00375184
0.350249 0.142944 3.46945e-18 0.00374441
0 0.381809 0 0.00375
0.350249 0.155587 0 0.00374766
0.288433 0.255331 0 0.00375573
0.151552 0.357966 0 0.00375339
0.350249 0.168888 0 0.00375034
0.219992 0.324533 0 0.00375431
0.350249 0.182883 3.46945e-18 0.00375253
0.288433 0.273828 0 0.00375636
0.075776 0.394351 3.46945e-18 0.00375187
0.350249 0.197607 3.46945e-18 0.00375424
0 0.406893 0 0.00375
0.350249 0.213097 -3.46945e-18 0.0037556
0.219992 0.346635 0 0.00375466
0.151552 0.381809 0 0.00375361
0.288433 0.293289 -6.16298e-33 0.00375693
0.412065 9.61782e-19 3.08149e-33 0.0022906
0.412065 0.00259889 0 0.00233661
0.412065 0.00519778 -3.08149e-33 0.00238262
0.412065 0.00793204 0 0.00253808
0.412065 0.0106663 -3.70076e-18 0.00269354
0.412065 0.0164197 -3.70076e-18 0.0030334
0.412065 0.0224727 0 0.00324653
0.412065 0.028841 0 0.00339131
0.412065 0.035541 -3.70076e-18 0.00348373
0.412065 0.04259 -3.70076e-18 0.00355282
0.412065 0.0500061 0 0.00360318
0.412065 0.0578085 -3.70076e-18 0.00363966
0.412065 0.0660173 -3.70076e-18 0.00366633
0.350249 0.229395 0 0.0037567
0.412065 0.0746537 -3.70076e-18 0.00368607
0.412065 0.0837399 -3.70076e-18 0.00370097
0.412065 0.0932994 -3.70076e-18 0.0037127
0.412065 0.103357 -3.70076e-18 0.00372238
0.288433 0.313763 0 0.00375746
0.075776 0.420089 0 0.00375188
0.412065 0.113938 -3.70076e-18 0.00373058
0.350249 0.24654 -3.46945e-18 0.00375765
0.219992 0.369887 0 0.00375505
0.412065 0.12507 -3.70076e-18 0.00373756
5.60855e-17 0.433285 6.16298e-33 0.00375
0.412065 0.136783 -3.70076e-18 0.00374342
0.151552 0.406893 0 0.00375381
0.412065 0.149105 0 0.00374828
0.350249 0.264579 3.46945e-18 0.00375856
0.288433 0.335303 0 0.00375799
0.412065 0.162069 0 0.00375226
0.412065 0.175708 3.08149e-33 0.00375547
0.350249 0.283558 3.46945e-18 0.00375941
0.219993 0.394351 0 0.00375544
0.075776 0.447168 -3.46945e-18 0.00375189
0.412065 0.190058 3.08149e-33 0.00375804
0.151552 0.433285 -3.70071e-18 0.003754
0.288433 0.357966 0 0.00375855
0.412065 0.205155 3.08149e-33 0.00376009
0 0.461051 0 0.00375
0.350249 0.303526 6.93889e-18 0.0037602
0.412065 0.213097 0 0.0037609
0.412065 0.221039 -3.08149e-33 0.00376171
0.467897 0.00259889 0 0.00157497
0.467897 0.00793204 -3.46945e-18 0.00241507
0.467897 0.013543 3.46945e-18 0.00297146
0.467897 0.0194462 3.46945e-18 0.00315245
0.467897 0.0256568 -3.46945e-18 0.00331711
0.467897 0.032191 3.46945e-18 0.0034074
0.467897 0.0390655 3.46945e-18 0.00348795
0.467897 0.046298 3.46945e-18 0.00355238
0.467897 0.0539073 3.46945e-18 0.00360088
0.412065 0.229395 0 0.00376237
0.467897 0.0619129 3.46945e-18 0.00363693
0.467897 0.0703355 0 0.00366378
0.219992 0.420089 -3.46945e-18 0.00375581
0.467897 0.0791968 3.46945e-18 0.0036838
0.412065 0.23775 3.08149e-33 0.00376303
0.467897 0.0885197 0 0.00369942
0.350249 0.324533 3.46945e-18 0.00376092
0.467897 0.0983282 0 0.00371244
0.288433 0.381809 0 0.00375912
0.467897 0.103357 0 0.00371899
0.467897 0.108647 0 0.00372355
0.075776 0.475657 0 0.00375192
0.467897 0.119504 -3.46945e-18 0.00373303
0.412065 0.255331 3.08149e-33 0.00376417
0.151552 0.461051 0 0.00375419
0.467897 0.130927 3.46945e-18 0.00374103
0.467897 0.142944 -3.46945e-18 0.00374768
0 0.490263 0 0.00375
0.350249 0.346634 0 0.00376164
0.467897 0.155587 -6.93889e-18 0.00375313
0.412065 0.273828 3.08149e-33 0.00376519
0.467897 0.168888 0 0.00375753
0.219992 0.447168 0 0.00375615
0.288433 0.406893 0 0.00375969
0.467897 0.182883 0 0.00376102
0.412065 0.293289 3.08149e-33 0.00376612
0.467897 0.197606 -3.46945e-18 0.00376385
0.350249 0.369887 3.46945e-18 0.00376239
0.075776 0.50563 0 0.00375197
0.151552 0.490263 0 0.00375438
0.467897 0.213097 0 0.00376608
0.467897 0.221039 0 0.00376867
0.412065 0.313763 3.08149e-33 0.00376698
0.288433 0.433285 0 0.00376024
0 0.520997 0 0.00375
0.467897 0.229395 0 0.00376784
0.523729 0 0 0.00131648
0.523729 0.00519778 0 0.00188521
0.523729 0.0106663 -3.70076e-18 0.0027963
0.523729 0.0164197 0 0.00318274
0.219992 0.475657 0 0.00375649
0.523729 0.0224727 0 0.00327977
0.523729 0.028841 0 0.00336445
0.523729 0.035541 0 0.00343096
0.523729 0.04259 0 0.0034977
0.523729 0.0500061 0 0.00355549
0.523729 0.0578085 0 0.00360121
0.350249 0.394351 3.46945e-18 0.00376314
0.523729 0.0660173 0 0.00363625
0.467897 0.24654 0 0.00376927
0.523729 0.0746537 -3.70076e-18 0.00366287
0.523729 0.0837399 -3.70076e-18 0.0036836
0.412065 0.335303 3.08149e-33 0.0037678
0.523729 0.0932994 0 0.0037008
0.523729 0.103357 -3.08149e-33 0.0037156
0.523729 0.113938 0 0.00372829
0.467897 0.264579 0 0.00377049
0.523729 0.12507 0 0.00373905
0.523729 0.136783 0 0.00374807
0.075776 0.537164 0 0.00375203
0.151552 0.520997 0 0.00375458
0.288433 0.461051 0 0.00376076
0.523729 0.149105 0 0.00375551
0.412065 0.357966 3.08149e-33 0.00376863
0.350249 0.420089 0 0.00376388
0.467897 0.283558 0 0.00377158
0.523729 0.162069 0 0.00376155
0.219992 0.50563 0 0.00375683
0.523729 0.175708 0 0.00376638
5.0477e-17 0.553331 3.70071e-18 0.00375
0.523729 0.190058 0 0.00377022
0.467897 0.303526 3.46945e-18 0.00377257
0.412065 0.381809 3.08149e-33 0.00376947
0.523729 0.205155 3.08149e-33 0.00377326
0.350249 0.447168 3.46945e-18 0.00376459
0.523729 0.221039 3.08149e-33 0.00377564
0.288433 0.490263 0 0.00376126
0.467897 0.324533 3.46945e-18 0.0037735
0.151552 0.553331 0 0.00375479
0.574156 0.00259889 3.46945e-18 0.00107156
0.574156 0.00793204 0 0.00249083
0.574156 0.013543 0 0.00329708
0.574156 0.0194462 0 0.00329731
0.574156 0.0256568 0 0.00334749
0.574157 0.032191 0 0.00338557
0.523729 0.23775 0 0.0037775
0.075776 0.57034 6.93889e-18 0.0037521
0.574156 0.0390655 0 0.00344466
0.574156 0.0462981 0 0.00350818
0.574157 0.0539073 0 0.00356275
0.574156 0.0619129 0 0.00360614
0.574157 0.0703355 0 0.00363962
0.412065 0.406893 0 0.00377031
0.574156 0.0791968 0 0.00366541
0.219993 0.537164 0 0.00375718
0.574156 0.0885196 3.46945e-18 0.00368663
0.467897 0.346635 0 0.00377441
0.574157 0.0983282 0 0.00370526
0.523729 0.255331 0 0.00377901
0.574156 0.108648 -3.46945e-18 0.0037214
0.574157 0.119504 3.46945e-18 0.00373518
0 0.58735 0 0.00375
0.574156 0.130927 3.46945e-18 0.00374678
0.350249 0.475657 0 0.00376526
0.523729 0.273828 0 0.00378027
0.574156 0.142944 3.46945e-18 0.00375641
0.574156 0.155587 0 0.00376427
0.288433 0.520997 0 0.00376176
0.467897 0.369887 0 0.00377533
0.412065 0.433285 0 0.00377114
0.574157 0.168888 3.46945e-18 0.00377061
0.523729 0.293289 3.08149e-33 0.00378136
0.574156 0.182883 0 0.00377563
0.151552 0.58735 0 0.00375501
0.574157 0.197607 0 0.00377959
0.574156 0.205155 0 0.00378261
0.075776 0.605245 -3.46945e-18 0.00375218
0.523729 0.313763 0 0.00378236
0.219992 0.570341 -3.46945e-18 0.00375752
0.467897 0.394351 -3.46945e-18 0.00377627
0.574156 0.213097 0 0.00378267
0.350249 0.50563 3.46945e-18 0.00376591
0.574156 0.229395 0 0.00378506
0.412065 0.461051 3.08149e-33 0.00377193
0.523729 0.335303 0 0.0037833
0 0.623141 0 0.00375
0.288433 0.553331 0 0.00376223
0.624584 0 0 0.000924902
0.624584 0.00519778 0 0.00171938
0.624584 0.0106663 -3.70076e-18 0.0030219
0.624584 0.0164197 0 0.00348431
0.574157 0.24654 0 0.00378692
0.624584 0.0224727 0 0.00341755
0.624584 0.028841 0 0.0033984
0.624584 0.035541 0 0.00341954
0.624584 0.04259 0 0.00346693
0.624584 0.0500061 0 0.00352221
0.624584 0.0578085 0 0.00357184
0.624584 0.0660173 0 0.00361233
0.467897 0.420089 -3.46945e-18 0.0037772
0.624584 0.0746537 -3.70076e-18 0.00364445
0.624584 0.0837399 0 0.00367072
0.624584 0.0932994 0 0.00369343
0.574156 0.264579 3.46945e-18 0.00378841
0.624584 0.103357 -3.08149e-33 0.00371337
0.523729 0.357966 0 0.00378422
0.624584 0.113938 0 0.00373062
0.624584 0.12507 -3.08149e-33 0.00374531
0.624584 0.136783 0 0.00375764
0.574156 0.283559 -3.46945e-18 0.00378964
0.412065 0.490263 3.08149e-33 0.00377268
0.350249 0.537164 -3.46945e-18 0.00376653
0.151552 0.623141 6.16298e-33 0.00375522
0.624584 0.149105 0 0.00376782
0.219992 0.605245 -3.46945e-18 0.00375786
0.624584 0.162069 0 0.00377608
0.075776 0.641968 0 0.00375227
0.467897 0.447168 -3.46945e-18 0.00377811
0.523729 0.381809 0 0.00378516
0.624584 0.175708 0 0.00378269
0.574156 0.303526 3.46945e-18 0.00379071
0.624584 0.190058 0 0.0037879
0.288433 0.58735 0 0.0037627
0.624584 0.205155 -3.08149e-33 0.00379195
0.574156 0.324533 0 0.00379169
0 0.660796 0 0.00375
0.624584 0.221039 0 0.00379508
0.523729 0.406893 0 0.00378612
0.412065 0.520997 -3.70076e-18 0.0037734
0.467897 0.475657 0 0.00377898
0.624584 0.23775 3.08149e-33 0.00379747
0.350249 0.57034 0 0.00376712
0.67013 0.00259889 0 0.000785226
0.67013 0.00793204 0 0.00253591
0.67013 0.013543 -3.46945e-18 0.0037517
0.67013 0.0194462 -3.46945e-18 0.00357336
0.67013 0.0256568 3.46945e-18 0.00344302
0.574156 0.346635 3.46945e-18 0.00379263
0.67013 0.032191 0 0.00341451
0.67013 0.0390655 3.46945e-18 0.00343299
0.67013 0.0462981 0 0.00348281
0.67013 0.0539073 3.46945e-18 0.00353638
0.67013 0.0619129 0 0.00358329
0.67013 0.0703355 -3.46945e-18 0.00362128
0.624584 0.255331 0 0.00379932
0.67013 0.0791968 -3.46945e-18 0.00365226
0.67013 0.0885196 3.46945e-18 0.00367911
0.67013 0.0983282 -3.46945e-18 0.00370298
0.151552 0.660796 0 0.00375544
0.219992 0.641968 -3.46945e-18 0.0037582
0.67013 0.108648 -3.46945e-18 0.00372385
0.523729 0.433285 6.16298e-33 0.00378706
0.67013 0.119504 3.46945e-18 0.00374183
0.624584 0.273828 0 0.00380077
0.67013 0.130926 0 0.00375706
0.574156 0.369887 0 0.00379357
0.075776 0.680604 0 0.00375236
0.67013 0.142944 0 0.00376975
0.685312 0.0106663 -7.70372e-34 0.0031786
0.288433 0.623141 0 0.00376314
0.67013 0.155587 3.46945e-18 0.00378014
0.467897 0.50563 3.46945e-18 0.0037798
0.412065 0.553331 3.08149e-33 0.00377407
0.624584 0.293289 0 0.00380196
0.67013 0.168888 0 0.0037885
0.67013 0.182883 0 0.00379512
0.574157 0.394351 0 0.00379453
0.523729 0.461051 0 0.00378797
0.67013 0.197606 0 0.00380028
0.624584 0.313763 0 0.00380298
0.350249 0.605245 0 0.00376768
0 0.700412 0 0.00375
0.67013 0.213097 -3.46945e-18 0.00380425
0.67013 0.229395 -3.46945e-18 0.00380727
0.624584 0.335303 0 0.00380392
0.574156 0.420089 -3.46945e-18 0.00379551
0.467897 0.537164 3.46945e-18 0.00378056
0.67013 0.24654 -3.46945e-18 0.00380955
0.219993 0.680604 3.46945e-18 0.00375853
0.715676 4.80891e-19 0 0.000671791
0.715676 0.00519778 0 0.00158738
0.715676 0.0106663 1.54074e-33 0.00325695
0.715676 0.0164197 1.54074e-33 0.00389284
0.715676 0.0224727 -3.08149e-33 0.00365059
0.715676 0.028841 0 0.00348859
0.715676 0.035541 0 0.00344664
0.151552 0.700412 0 0.00375565
0.715676 0.04259 0 0.0034611
0.523729 0.490263 0 0.00378883
0.715676 0.0500061 1.54074e-33 0.00350456
0.412065 0.58735 -3.70076e-18 0.00377469
0.715676 0.0578085 0 0.00355285
0.715676 0.0660173 1.54074e-33 0.00359587
0.715676 0.0746537 0 0.00363193
0.624584 0.357966 0 0.00380482
0.67013 0.264579 0 0.00381129
0.715676 0.0837399 0 0.00366304
0.288433 0.660796 0 0.00376356
0.715676 0.0932994 0 0.00369084
0.715676 0.103357 1.54074e-33 0.00371556
0.715676 0.113938 1.54074e-33 0.00373715
0.075776 0.721251 0 0.00375246
0.685312 0.23775 -7.70372e-34 0.00381377
0.715676 0.12507 0 0.0037557
0.67013 0.283558 -3.46945e-18 0.00381264
0.574156 0.447168 -3.46945e-18 0.00379646
0.715676 0.136783 0 0.00377136
0.715676 0.149105 0 0.00378433
0.350249 0.641968 -3.46945e-18 0.00376821
0.624584 0.381809 0 0.00380573
0.715676 0.162069 0 0.0037949
0.67013 0.303526 0 0.00381374
0.715676 0.175708 1.54074e-33 0.00380334
0.467897 0.57034 3.46945e-18 0.00378126
0.523729 0.520997 0 0.00378962
0.715676 0.190058 0 0.00380998
0 0.742091 0 0.00375
0.715676 0.205155 -3.70074e-18 0.00381511
0.67013 0.324533 -6.93889e-18 0.00381469
0.624584 0.406893 0 0.00380666
0.574156 0.475657 0 0.00379737
0.412065 0.623141 -3.70076e-18 0.00377527
0.715676 0.221039 1.54074e-33 0.003819
0.219993 0.721251 0 0.00375885
0.715676 0.23775 1.54074e-33 0.00382192
0.67013 0.346634 0 0.00381557
0.756813 0.00259889 -3.46945e-18 0.000563196
0.756813 0.00793204 0 0.00247159
0.756813 0.013543 -3.46945e-18 0.00425908
0.756814 0.0164197 0 0.00413531
0.756813 0.0194462 -3.46945e-18 0.00396759
0.756813 0.0256568 -3.46945e-18 0.00360623
0.151552 0.742091 0 0.00375587
0.288433 0.700412 0 0.00376396
0.756813 0.032191 -3.46945e-18 0.00348551
0.756814 0.0390655 -3.46945e-18 0.00345161
0.756814 0.046298 -3.46945e-18 0.00347671
0.756814 0.0539073 3.46945e-18 0.00352279
0.756814 0.0619129 0 0.00356955
0.715676 0.255331 1.54074e-33 0.0038241
0.756813 0.0703355 -6.93889e-18 0.00360994
0.624584 0.433285 -3.70071e-18 0.00380758
0.756814 0.0791968 -3.46945e-18 0.00364468
0.523729 0.553331 -6.16298e-33 0.00379035
0.756813 0.0885197 0 0.00367636
0.756813 0.0983282 -6.93889e-18 0.00370495
0.756813 0.108647 3.46945e-18 0.00373027
0.467897 0.605246 3.46945e-18 0.00378191
0.574156 0.50563 0 0.00379821
0.67013 0.369887 0 0.00381643
0.350249 0.680604 -3.46945e-18 0.0037687
0.756813 0.119504 -3.46945e-18 0.00375229
0.715676 0.273828 0 0.00382573
0.075776 0.764016 0 0.00375256
0.756813 0.130927 -3.46945e-18 0.0037711
0.756813 0.142944 -3.46945e-18 0.00378685
0.756813 0.155587 -6.93889e-18 0.00379981
0.715676 0.293289 0 0.00382697
0.743101 0.221039 -7.70372e-34 0.00382817
0.756813 0.168888 3.46945e-18 0.00381026
0.624584 0.461051 0 0.00380847
0.67013 0.394351 -3.46945e-18 0.00381731
0.756813 0.182883 -6.93889e-18 0.00381853
0.412065 0.660796 -3.70076e-18 0.00377579
0.715676 0.313763 0 0.00382797
0.756813 0.197606 -3.46945e-18 0.00382495
0 0.785942 0 0.00375
0.756813 0.213097 -3.46945e-18 0.00382985
0.574156 0.537164 3.46945e-18 0.00379898
0.523729 0.58735 0 0.003791
0.715676 0.335303 0 0.00382884
0.756813 0.229394 0 0.00383352
0.67013 0.420089 -3.46945e-18 0.0038182
0.624584 0.490263 0 0.0038093
0.467897 0.641969 3.46945e-18 0.00378249
0.219992 0.764017 -3.46945e-18 0.00375916
0.756813 0.24654 0 0.00383622
0.288433 0.742091 0 0.00376433
0.797951 9.61782e-19 -3.08149e-33 0.000473618
0.797951 0.00519778 -3.08149e-33 0.00143853
0.797951 0.0106663 -3.08149e-33 0.00346449
0.797951 0.0145019 7.70372e-34 0.00407335
0.797951 0.0164197 0 0.00437777
0.797951 0.0184374 7.70372e-34 0.00424731
0.797951 0.0224727 -3.08149e-33 0.00398638
0.797951 0.028841 0 0.00364435
0.797951 0.035541 -3.08149e-33 0.00351162
0.797951 0.04259 0 0.00348054
0.797951 0.0500061 0 0.00350307
0.797951 0.0578085 -3.08149e-33 0.00354464
0.715676 0.357966 0 0.00382965
0.151552 0.785942 0 0.00375607
0.797951 0.0660173 0 0.00358723
0.797951 0.0746537 -3.08149e-33 0.00362561
0.756814 0.264579 -3.46945e-18 0.00383819
0.350249 0.721251 0 0.00376914
0.797951 0.0837399 0 0.00366047
0.797951 0.0932994 -3.08149e-33 0.0036926
0.797951 0.103357 0 0.00372162
0.67013 0.447168 -3.46945e-18 0.00381908
0.797951 0.113938 -3.08149e-33 0.0037473
0.797951 0.12507 -3.08149e-33 0.00376956
0.756813 0.283558 -3.46945e-18 0.00383964
0.574156 0.57034 3.46945e-18 0.00379966
0.797951 0.136783 -3.08149e-33 0.00378849
0.715676 0.381809 0 0.00383045
0.797951 0.149105 -3.08149e-33 0.00380426
0.075776 0.809009 0 0.00375266
0.412065 0.700412 -3.70076e-18 0.00377626
0.624584 0.520997 0 0.00381006
0.523729 0.623141 0 0.00379158
0.797951 0.162069 -3.08149e-33 0.00381715
0.756813 0.303526 -3.46945e-18 0.00384073
0.797951 0.175708 3.70076e-18 0.00382748
0.797951 0.190058 3.70076e-18 0.00383558
0.67013 0.475657 -3.46945e-18 0.00381992
0.715676 0.406893 0 0.00383126
0.756813 0.324533 3.46945e-18 0.0038416
0.797951 0.205155 -3.70074e-18 0.00384181
0.797951 0.21045 -7.70372e-34 0.00384337
0.467897 0.680604 3.46945e-18 0.00378299
0.797951 0.221039 3.08149e-33 0.0038465
0.797951 0.229395 0 0.00384823
0 0.832077 0 0.00375
0.756813 0.346634 -3.46945e-18 0.00384237
0.797951 0.23775 3.70076e-18 0.00384997
0.574156 0.605245 0 0.00380025
0.624584 0.553331 -6.16298e-33 0.00381072
0.835106 0.00259889 3.46945e-18 0.000387434
0.835106 0.00793204 -3.46945e-18 0.00233803
0.835106 0.013543 3.46945e-18 0.00478198
0.835106 0.0164197 0 0.00464514
0.835106 0.0194462 3.46945e-18 0.00448242
0.835106 0.0256568 0 0.00387415
0.835106 0.032191 0 0.00360406
0.835106 0.0390655 3.46945e-18 0.00350203
0.835106 0.046298 -3.46945e-18 0.00349059
0.715676 0.433285 -3.70074e-18 0.00383207
0.835106 0.0539073 0 0.00352196
0.835106 0.0578085 0 0.0035462
0.288433 0.785942 0 0.00376468
0.835106 0.0619129 -3.46945e-18 0.00356438
0.797951 0.255331 -3.70074e-18 0.00385249
0.835106 0.0703355 3.46945e-18 0.00360523
0.219992 0.80901 0 0.00375946
0.835106 0.0791968 -3.46945e-18 0.00364272
0.67013 0.50563 0 0.00382068
0.835106 0.0885196 0 0.00367815
0.350249 0.764016 6.93889e-18 0.00376955
0.835106 0.0983282 3.46945e-18 0.00371081
0.835106 0.108647 -3.46945e-18 0.00374018
0.756814 0.369887 3.46945e-18 0.0038431
0.523729 0.660796 0 0.00379207
0.835106 0.119504 -6.93889e-18 0.00376601
0.797951 0.273828 3.70076e-18 0.00385431
0.835106 0.130926 0 0.00378826
0.151552 0.832077 0 0.00375627
0.835106 0.142944 -6.93889e-18 0.00380704
0.822721 0.205155 -7.70372e-34 0.00385161
0.412065 0.742091 -3.70076e-18 0.00377667
0.835106 0.155587 3.46945e-18 0.00382255
0.797951 0.293289 3.70076e-18 0.00385565
0.715676 0.461051 0 0.00383285
0.835106 0.168888 -3.46945e-18 0.0038351
0.756813 0.394351 -3.46945e-18 0.00384383
0.835106 0.182883 -3.46945e-18 0.00384505
0.624584 0.58735 -3.70076e-18 0.00381129
0.797951 0.313763 3.70076e-18 0.00385664
0.835106 0.197606 -3.46945e-18 0.00385276
0.67013 0.537164 3.46945e-18 0.00382134
0.075776 0.856345 0 0.00375276
0.467897 0.721251 3.46945e-18 0.00378343
0.574156 0.641968 0 0.00380075
0.835106 0.213097 0 0.0038586
0.835106 0.221039 0 0.00386163
0.797951 0.335303 3.70076e-18 0.00385743
0.756814 0.420089 -3.46945e-18 0.00384457
0.835106 0.229395 -3.46945e-18 0.00386294
0.715676 0.490263 0 0.00383357
0.835106 0.24654 -6.93889e-18 0.00386608
0.872262 9.61782e-19 -3.08149e-33 0.000314604
0.872262 0.00519778 -3.08149e-33 0.0012832
0.872262 0.0106663 -3.08149e-33 0.00363991
0.872262 0.0164197 0 0.0049125
0.872262 0.0224727 -3.08149e-33 0.00443607
0.872262 0.028841 1.54074e-33 0.00388827
0.872262 0.035541 0 0.0036244
0.872262 0.04259 1.54074e-33 0.00352884
0.872262 0.0500061 -3.08149e-33 0.00351963
0.872262 0.0539073 0 0.0035337
0.872262 0.0578085 3.08149e-33 0.00354777
0.872262 0.0619129 0 0.00356702
0.797951 0.357966 3.70076e-18 0.00385812
0.523729 0.700412 0 0.00379248
0.872262 0.0660173 -3.08149e-33 0.00358628
0.872262 0.0746537 -3.08149e-33 0.00362509
0.835106 0.264579 3.46945e-18 0.00386833
0.872262 0.0837399 -3.08149e-33 0.00366249
0.872262 0.0932994 0 0.00369803
0.872262 0.103357 -3.08149e-33 0.00373079
0.756813 0.447168 -6.93889e-18 0.00384531
0.872262 0.113938 -3.08149e-33 0.00376021
0.67013 0.57034 0 0.00382189
0 0.880614 0 0.00375
0.288433 0.832077 0 0.00376499
0.872262 0.12507 -3.08149e-33 0.00378601
0.350249 0.809009 0 0.00376992
0.835106 0.283559 0 0.00386996
0.624584 0.623141 -3.70076e-18 0.00381174
0.872262 0.136783 -3.08149e-33 0.00380814
0.219992 0.856345 -3.46945e-18 0.00375974
0.797951 0.381809 3.70076e-18 0.00385876
0.872262 0.149105 -3.08149e-33 0.0038267
0.872262 0.162069 3.70076e-18 0.00384195
0.412065 0.785942 -3.70076e-18 0.00377702
0.835107 0.303526 -3.46945e-18 0.00387112
0.872262 0.175708 3.70076e-18 0.0038542
0.574157 0.680604 0 0.00380115
0.872262 0.190058 3.70076e-18 0.00386383
0.151552 0.880614 0 0.00375645
0.723512 0.524461 4.40213e-34 0.00383654
0.756813 0.475657 3.46945e-18 0.003846
0.872262 0.197607 0 0.00386752
0.797951 0.406893 -3.08149e-33 0.0038594
0.467897 0.764016 0 0.00378379
0.835106 0.324533 -6.93889e-18 0.00387198
0.872262 0.205155 3.08149e-33 0.00387122
0.872262 0.213097 0 0.00387399
0.872262 0.221039 -3.08149e-33 0.00387676
0.685312 0.58735 -7.70372e-34 0.00382717
0.67013 0.605246 -3.46945e-18 0.00382233
0.872262 0.23775 3.70076e-18 0.00388082
0.835106 0.346634 -3.46945e-18 0.00387265
0.715676 0.553331 -3.08149e-33 0.00383472
0.905821 0.00259889 0 0.000244201
0.90582 0.00793204 -3.46945e-18 0.0021686
0.90582 0.013543 -3.46945e-18 0.00526602
0.90582 0.0194462 -3.46945e-18 0.00510092
0.90582 0.0256568 -3.46945e-18 0.00426956
0.90582 0.032191 0 0.00379535
0.90582 0.0390655 -6.93889e-18 0.00359139
0.90582 0.0462981 0 0.00352918
0.90582 0.0539073 0 0.00353589
0.90582 0.0619129 0 0.00356855
0.797951 0.433285 -3.70074e-18 0.00386003
0.523729 0.742091 0 0.00379278
0.90582 0.0703355 0 0.00360686
0.872262 0.255331 3.70076e-18 0.00388369
0.624584 0.660796 0 0.00381208
0.90582 0.0791968 0 0.00364549
0.075776 0.906147 0 0.00375286
0.905821 0.0885197 3.46945e-18 0.00368348
0.756813 0.50563 -3.46945e-18 0.00384661
0.90582 0.0983282 3.46945e-18 0.00371944
0.90582 0.108647 -3.46945e-18 0.0037524
0.835106 0.369887 0 0.00387322
0.90582 0.119504 0 0.00378181
0.872262 0.273828 -3.70074e-18 0.00388557
0.90582 0.130927 -3.46945e-18 0.0038074
0.90582 0.142944 0 0.00382917
0.90582 0.155587 0 0.00384728
0.872262 0.293289 3.70076e-18 0.00388677
0.715676 0.578845 1.54074e-33 0.00383501
0.90582 0.168888 -3.46945e-18 0.00386201
0.797951 0.461051 3.70076e-18 0.00386064
0.574156 0.721251 0 0.00380143
0.835106 0.394351 -3.46945e-18 0.00387377
0.90582 0.182883 0 0.00387371
0.350249 0.856345 3.46945e-18 0.00377023
0.715676 0.58735 0 0.00383511
0.925956 0.0164197 7.70372e-34 0.00537027
0.685312 0.623141 -7.70372e-34 0.00382749
0.925956 0.035541 7.70372e-34 0.00375275
0.288433 0.880614 0 0.00376527
0.872262 0.313763 3.70076e-18 0.00388759
0.90582 0.197606 -3.46945e-18 0.00388281
0.67013 0.641968 -3.46945e-18 0.00382264
0.756813 0.537164 6.93889e-18 0.00384711
0.412065 0.832077 -3.70076e-18 0.00377731
0.905821 0.213097 0 0.00388969
0 0.93168 0 0.00375
0.219992 0.906147 0 0.00376
0.931922 0.0578085 0 0.00356142
0.90582 0.229395 0 0.00389478
0.872262 0.335303 3.70076e-18 0.0038882
0.467897 0.809009 3.46945e-18 0.00378407
0.835106 0.420089 -6.93889e-18 0.00387431
0.931922 0.0837399 -1.92593e-33 0.00366867
0.797951 0.490263 3.70076e-18 0.00386118
0.624584 0.700412 0 0.0038123
0.905821 0.24654 -3.46945e-18 0.00389843
0.939379 0 0 0.000204861
0.939379 0.00519778 0 0.00117034
0.939379 0.0106663 0 0.00383555
0.939379 0.013543 0 0.00466013
0.939379 0.0164197 0 0.00548472
0.939379 0.0194462 0 0.00523052
0.939379 0.0224727 0 0.00497632
0.939379 0.028841 0 0.00421847
0.939379 0.035541 2.31296e-18 0.00378483
0.939379 0.04259 0 0.00360481
0.939379 0.0500061 0 0.00355428
0.939379 0.0578085 0 0.00356313
0.939379 0.0660173 0 0.00359384
0.939379 0.0746537 0 0.00363086
0.872262 0.357966 3.70076e-18 0.00388871
0.939379 0.0837399 2.31296e-18 0.00366944
0.90582 0.264579 -6.93889e-18 0.00390083
0.151552 0.93168 0 0.00375662
0.939379 0.0932994 0 0.00370747
0.523729 0.785942 -3.70076e-18 0.00379299
0.797951 0.50563 0 0.00386139
0.939379 0.103357 0 0.00374337
0.931922 0.162069 0 0.00386606
0.939379 0.113938 0 0.00377613
0.835106 0.447168 0 0.00387484
0.756813 0.57034 0 0.00384747
0.939379 0.12507 0 0.0038052
0.715676 0.623141 0 0.00383536
0.90582 0.283559 0 0.0039021
0.939379 0.136783 0 0.00383034
0.939379 0.149105 0 0.00385156
0.872262 0.381809 3.70076e-18 0.00388918
0.797951 0.520997 -3.70076e-18 0.00386161
0.939379 0.162069 0 0.00386908
0.67013 0.680604 0 0.00382281
0.90582 0.303526 0 0.00390285
0.939379 0.175708 0 0.00388319
0.574156 0.764016 3.46945e-18 0.0038016
0.939379 0.190058 0 0.00389429
0.835106 0.475657 0 0.00387532
0.939379 0.205155 0 0.00390281
0.075776 0.958542 0 0.00375295
0.905821 0.324533 -3.46945e-18 0.00390337
0.872262 0.406893 3.70076e-18 0.00388965
0.939379 0.221039 0 0.00390915
0.939379 0.23775 0 0.00391365
0.756813 0.605245 -3.46945e-18 0.00384769
0.969689 0.00259889 -3.46945e-18 0.000166662
0.96969 0.00793204 0 0.00210416
0.969689 0.013543 0 0.00579695
0.90582 0.346634 -3.46945e-18 0.00390378
0.96969 0.0194462 0 0.00575753
0.624584 0.742091 0 0.00381238
0.969689 0.0256568 0 0.0047603
0.96969 0.032191 0 0.0040378
0.96969 0.0390655 3.46945e-18 0.00370945
0.969689 0.046298 0 0.00358662
0.797951 0.553331 0 0.0038619
0.969689 0.0539073 0 0.00356419
0.350249 0.906147 -3.46945e-18 0.0037705
0.969689 0.0619129 0 0.00358326
0.969689 0.0703355 0 0.00361633
0.412065 0.880614 -3.70076e-18 0.00377752
0.96969 0.0791968 0 0.00365449
0.939379 0.255331 0 0.00391649
0.96969 0.0885196 0 0.00369402
0.872262 0.433285 3.70076e-18 0.00389012
0.715676 0.660796 0 0.00383545
0.96969 0.0983282 0 0.00373259
0.288433 0.93168 0 0.00376551
0.969689 0.108647 0 0.00376863
0.467897 0.856345 6.93889e-18 0.00378426
0.835106 0.50563 -3.46945e-18 0.0038757
0.969689 0.119504 0 0.0038012
0.905821 0.369887 0 0.00390416
0.939379 0.273828 -2.31296e-18 0.00391796
0.969689 0.130926 0 0.0038298
0.969689 0.142944 0 0.0038543
0.969689 0.155587 0 0.00387476
0.523729 0.832077 0 0.0037931
0.219992 0.958542 0 0.00376023
0.939379 0.293289 0 0.00391863
0.96969 0.168888 0 0.00389144
0.67013 0.721251 3.46945e-18 0.00382283
0 0.985405 0 0.00375
0.797951 0.578845 -1.54074e-33 0.00386201
0.872262 0.461051 3.70076e-18 0.00389057
0.969689 0.182883 0 0.00390472
0.905821 0.394351 -3.46945e-18 0.00390455
0.969689 0.197607 0 0.00391502
0.939379 0.313763 -2.31296e-18 0.00391899
0.797951 0.58735 -3.08149e-33 0.00386205