# nutMean  POINT_DATA 37934
# x  y  z  nutMean
0 0.1 0 0.00624079
0 0.1 -0.0333777 0.0062366
0 0.1 0.0333777 0.00623658
0 0.1 -0.0666223 0.00624364
0 0.1 0.0666223 0.00624361
0.075776 0.1 -0.05 0.0195549
0.075776 0.1 0.05 0.0195602
0 0.1 -0.1 0.00626112
0 0.1 0.1 0.0062611
0 0.1 -0.133378 0.00627024
0 0.1 0.133378 0.00627021
0.151552 0.1 0 0.0195895
0 0.1 -0.166622 0.00628248
0 0.1 0.166622 0.00628248
0.075776 0.1 -0.15 0.0183907
0.075776 0.1 0.15 0.0184014
0.151552 0.1 -0.1 0.0192239
0.151552 0.1 0.1 0.0192293
0 0.1 -0.2 0.00629638
0 0.1 0.2 0.0062964
0.219992 0.1 -0.05 0.0169313
0.219992 0.1 0.05 0.016932
0 0.1 0.233378 0.00630251
0 0.1 -0.233378 0.00630245
0.151552 0.1 -0.2 0.0179533
0.151552 0.1 0.2 0.0179612
0.075776 0.1 -0.25 0.0163395
0.075776 0.1 0.25 0.0163492
0.219992 0.1 -0.15 0.0167346
0.219992 0.1 0.15 0.0167365
0 0.1 0.266622 0.00630839
0 0.1 -0.266622 0.00630826
0.288433 0.1 0 0.0140832
0 0.1 -0.3 0.00631263
0 0.1 0.3 0.00631287
0.288433 0.1 -0.1 0.0140364
0.288433 0.1 0.1 0.0140373
0.219992 0.1 -0.25 0.0161529
0.219992 0.1 0.25 0.0161589
0 0.1 -0.333378 0.00630999
0 0.1 0.333378 0.00631034
0.151552 0.1 -0.3 0.0163552
0.151552 0.1 0.3 0.0163631
0.288433 0.1 -0.2 0.0136479
0.288433 0.1 0.2 0.0136502
0.350249 0.1 0.05 0.0115418
0.350249 0.1 -0.05 0.0115411
0.075776 0.1 0.35 0.0147689
0.075776 0.1 -0.35 0.0147623
0 0.1 -0.366622 0.00630186
0 0.1 0.366622 0.00630227
0.350249 0.1 -0.15 0.0113808
0.350249 0.1 0.15 0.0113822
0 0.1 -0.4 0.00628918
0 0.1 0.4 0.00628961
0.412065 0.1 1.85037e-17 0.00899433
0.219992 0.1 -0.35 0.0151319
0.219992 0.1 0.35 0.0151387
0.288433 0.1 -0.3 0.0130784
0.288433 0.1 0.3 0.013082
0.412065 0.1 -0.1 0.00896472
0.412065 0.1 0.1 0.00896567
0.151552 0.1 -0.4 0.0151517
0.151552 0.1 0.4 0.0151578
0.350249 0.1 -0.25 0.011066
0.350249 0.1 0.25 0.0110678
0 0.1 0.433378 0.00627076
0 0.1 -0.433378 0.00627033
0.075776 0.1 -0.45 0.0137669
0.075776 0.1 0.45 0.0137725
0.412065 0.1 -0.2 0.00887657
0.412065 0.1 0.2 0.00887782
0 0.1 -0.466622 0.00624819
0 0.1 0.466622 0.00624867
0.467897 0.1 0.05 0.00707217
0.467897 0.1 -0.05 0.00707172
0.467897 0.1 -0.15 0.00707783
0.467897 0.1 0.15 0.00707921
0.288433 0.1 -0.4 0.0126393
0.288433 0.1 0.4 0.0126427
0.350249 0.1 -0.35 0.0109424
0.350249 0.1 0.35 0.0109446
0 0.1 -0.5 0.0062257
0 0.1 0.5 0.00622626
0.219992 0.1 -0.45 0.0142537
0.219992 0.1 0.45 0.0142578
0.412065 0.1 -0.3 0.00882713
0.412065 0.1 0.3 0.00882834
0.151552 0.1 -0.5 0.0144895
0.151552 0.1 0.5 0.0144944
0.523729 0.1 -1.23276e-17 0.0058632
0.467897 0.1 -0.25 0.00709784
0.467897 0.1 0.25 0.00709902
0.523729 0.1 -0.1 0.00587869
0.523729 0.1 0.1 0.00587921
0 0.1 -0.533378 0.00619797
0 0.1 0.533378 0.00619859
0.075776 0.1 -0.55 0.0129746
0.075776 0.1 0.55 0.0129803
0.523729 0.1 -0.2 0.00592564
0.523729 0.1 0.2 0.00592633
0 0.1 0.566622 0.0061705
0 0.1 -0.566622 0.00616984
0.350249 0.1 0.45 0.0109042
0.350249 0.1 -0.45 0.0109016
0.412065 0.1 -0.4 0.00887466
0.412065 0.1 0.4 0.00887606
0.574156 0.1 -0.05 0.00495812
0.574156 0.1 0.05 0.0049582
0.288433 0.1 -0.5 0.0125263
0.288433 0.1 0.5 0.0125289
0.467897 0.1 -0.35 0.00716894
0.467897 0.1 0.35 0.00717017
0.219992 0.1 -0.55 0.014472
0.219992 0.1 0.55 0.0144757
0.574156 0.1 -0.15 0.00499914
0.574156 0.1 0.15 0.00499946
0 0.1 -0.6 0.00614374
0 0.1 0.6 0.00614442
0.523729 0.1 -0.3 0.00601229
0.523729 0.1 0.3 0.00601307
0.151552 0.1 -0.6 0.0141417
0.151552 0.1 0.6 0.0141464
0.624584 0.1 -1.23276e-17 0.00433508
0.574156 0.1 0.25 0.00508224
0.574156 0.1 -0.25 0.00508196
0.624584 0.1 -0.1 0.00435624
0.624584 0.1 0.1 0.00435644
0 0.1 0.633378 0.00611439
0 0.1 -0.633378 0.0061137
0.412065 0.1 -0.5 0.00897859
0.412065 0.1 0.5 0.00897995
0.467897 0.1 -0.45 0.00730366
0.467897 0.1 0.45 0.00730469
0.350249 0.1 0.55 0.0109599
0.350249 0.1 -0.55 0.010958
0.075776 0.1 0.65 0.0123627
0.075776 0.1 -0.65 0.0123577
0.624584 0.1 -0.2 0.00441943
0.624584 0.1 0.2 0.00441979
0.523729 0.1 -0.4 0.00615079
0.523729 0.1 0.4 0.00615172
0.288433 0.1 -0.6 0.012627
0.288433 0.1 0.6 0.0126295
0 0.1 -0.666622 0.00608422
0 0.1 0.666622 0.00608493
0.67013 0.1 0.05 0.00383494
0.67013 0.1 -0.05 0.00383486
0.574156 0.1 -0.35 0.00520833
0.574156 0.1 0.35 0.0052093
0.219992 0.1 0.65 0.0142896
0.219992 0.1 -0.65 0.0142847
0.67013 0.1 -0.15 0.00387604
0.67013 0.1 0.15 0.00387638
0.624584 0.1 -0.3 0.00452513
0.624584 0.1 0.3 0.00452567
0 0.1 -0.7 0.00605709
0 0.1 0.7 0.00605781
0.67013 0.1 -0.25 0.00395731
0.67013 0.1 0.25 0.00395784
0.715676 0.1 -9.25186e-18 0.00345303
0.151552 0.1 -0.7 0.0137112
0.151552 0.1 0.7 0.0137171
0.467897 0.1 -0.55 0.0075115
0.467897 0.1 0.55 0.00751237
0.715676 0.1 -0.1 0.00347273
0.715676 0.1 0.1 0.00347281
0.523729 0.1 -0.5 0.00634587
0.523729 0.1 0.5 0.00634674
0.412065 0.1 -0.6 0.00912685
0.412065 0.1 0.6 0.00912785
0.574156 0.1 0.45 0.00538776
0.574157 0.1 -0.45 0.00538703
0 0.1 -0.733378 0.00602697
0 0.1 0.733378 0.0060277
0.350249 0.1 -0.65 0.0110199
0.350249 0.1 0.65 0.0110223
0.624584 0.1 -0.4 0.00467129
0.624584 0.1 0.4 0.00467201
0.715676 0.1 -0.2 0.00353089
0.715676 0.1 0.2 0.00353114
0.075776 0.1 0.75 0.0118744
0.075776 0.1 -0.75 0.0118696
0.67013 0.1 -0.35 0.0040804
0.67013 0.1 0.35 0.00408086
0.288433 0.1 -0.7 0.0125574
0.288433 0.1 0.7 0.0125614
0.756813 0.1 -0.05 0.00313647
0.756813 0.1 0.05 0.00313647
0 0.1 -0.766622 0.00599932
0 0.1 0.766622 0.00600006
0.756813 0.1 -0.15 0.00317349
0.756813 0.1 0.15 0.00317342
0.715676 0.1 -0.3 0.00362895
0.715676 0.1 0.3 0.00362932
0.219992 0.1 0.75 0.013898
0.219992 0.1 -0.75 0.0138901
0.574156 0.1 -0.55 0.00562489
0.574157 0.1 0.55 0.00562587
0.523729 0.1 -0.6 0.00659121
0.523729 0.1 0.6 0.00659178
0.756814 0.1 -0.25 0.00324593
0.756814 0.1 0.25 0.00324612
0.797951 0.1 -1.23399e-17 0.00287294
0 0.1 0.8 0.00597669
0 0.1 -0.8 0.00597596
0.624584 0.1 -0.5 0.00486545
0.624584 0.1 0.5 0.00486623
0.467897 0.1 -0.65 0.00778267
0.467897 0.1 0.65 0.00778255
0.797951 0.1 -0.1 0.00289023
0.797951 0.1 0.1 0.00289014
0.67013 0.1 -0.45 0.00423423
0.67013 0.1 0.45 0.00423492
0.412065 0.1 -0.7 0.00929462
0.412065 0.1 0.7 0.00929556
0.151552 0.1 -0.8 0.013269
0.151552 0.1 0.8 0.0132753
0.715676 0.1 -0.4 0.00375768
0.715676 0.1 0.4 0.00375812
0.797951 0.1 -0.2 0.0029412
0.797951 0.1 0.2 0.00294118
0.350249 0.1 -0.75 0.0110754
0.350249 0.1 0.75 0.011078
0 0.1 0.833378 0.00595038
0 0.1 -0.833378 0.00594966
0.756813 0.1 -0.35 0.00335753
0.756813 0.1 0.35 0.00335781
0.835106 0.1 0.05 0.00265126
0.835106 0.1 -0.05 0.00265126
0.835106 0.1 -0.15 0.00268314
0.835106 0.1 0.15 0.00268297
0.288433 0.1 -0.8 0.0124088
0.288433 0.1 0.8 0.0124138
0.797951 0.1 -0.3 0.00302709
0.797951 0.1 0.3 0.00302727
0.075776 0.1 -0.85 0.0115057
0.075776 0.1 0.85 0.0111901
0.624584 0.1 -0.6 0.00510733
0.624584 0.1 0.6 0.00510806
0 0.1 0.866622 0.00592771
0 0.1 -0.866622 0.00592697
0.67013 0.1 -0.55 0.00444372
0.67013 0.1 0.55 0.00444441
0.574156 0.1 0.65 0.0058743
0.574157 0.1 -0.65 0.00587378
0.835106 0.1 -0.25 0.00274605
0.835106 0.1 0.25 0.00274612
0.872262 0.1 -1.54156e-17 0.0024591
0.715676 0.1 -0.5 0.00392654
0.715676 0.1 0.5 0.00392718
0.523729 0.1 -0.7 0.00686714
0.523729 0.1 0.7 0.00686737
0.872262 0.1 -0.1 0.00247372
0.872262 0.1 0.1 0.00247362
0.219992 0.1 0.85 0.0135555
0.219993 0.1 -0.85 0.01352
0.756814 0.1 -0.45 0.00348702
0.756814 0.1 0.45 0.00348742
0.467897 0.1 -0.75 0.00808706
0.467897 0.1 0.75 0.00808728
0.797951 0.1 -0.4 0.00314388
0.797951 0.1 0.4 0.00314416
0.872262 0.1 -0.2 0.00251726
0.872262 0.1 0.2 0.00251721
0.412065 0.1 0.8 0.00948194
0.412065 0.1 -0.8 0.00948058
0 0.1 0.9 0.00591036
0 0.1 -0.9 0.00590959
0.835106 0.1 -0.35 0.00284172
0.835106 0.1 0.35 0.00284193
0.90582 0.1 -0.05 0.00229884
0.90582 0.1 0.05 0.00229885
0.151552 0.1 0.9 0.0128931
0.151552 0.1 -0.9 0.012888
0.90582 0.1 -0.15 0.00232562
0.90582 0.1 0.15 0.00232544
0.350249 0.1 0.85 0.011254
0.350249 0.1 -0.85 0.0111529
0.872262 0.1 -0.3 0.00259027
0.872262 0.1 0.3 0.00259044
0 0.1 0.933378 0.00589011
0 0.1 -0.933378 0.0058893
0.67013 0.1 -0.65 0.00470616
0.67013 0.1 0.65 0.00470682
0.715676 0.1 -0.6 0.00414996
0.715676 0.1 0.6 0.00415073
0.756813 0.1 0.55 0.00367489
0.756813 0.1 -0.55 0.00367412
0.624584 0.1 -0.7 0.00538856
0.624584 0.1 0.7 0.0053891
0.939379 0.1 0 0.00216385
0.90582 0.1 -0.25 0.00237916
0.90582 0.1 0.25 0.0023793
0.797951 0.1 -0.5 0.00329208
0.797951 0.1 0.5 0.00329261
0.574156 0.1 0.75 0.0061651
0.574156 0.1 -0.75 0.00616484
0.939379 0.1 -0.1 0.00217637
0.939379 0.1 0.1 0.00217628
0.288433 0.1 0.9 0.0121987
0.288433 0.1 -0.9 0.0121941
0.835106 0.1 -0.45 0.00297251
0.835106 0.1 0.45 0.00297283
0.075776 0.1 0.95 0.0112635
0.075776 0.1 -0.95 0.0112602
0.523729 0.1 0.8 0.00717245
0.523729 0.1 -0.8 0.00717225
0.872262 0.1 -0.4 0.00269816
0.872262 0.1 0.4 0.00269846
0.939379 0.1 -0.2 0.00221385
0.939379 0.1 0.2 0.00221385
0 0.1 0.966622 0.00587417
0 0.1 -0.966622 0.00587337
0.467897 0.1 0.85 0.0082439
0.467897 0.1 -0.85 0.00841388
0.969689 0.1 0.05 0.00205169
0.96969 0.1 -0.05 0.00205168
0.90582 0.1 -0.35 0.00246124
0.90582 0.1 0.35 0.00246151
0.219992 0.1 0.95 0.0131126
0.219992 0.1 -0.95 0.0131074
0.969689 0.1 -0.15 0.00207528
0.969689 0.1 0.15 0.00207516
0.939379 0.1 -0.3 0.00227672
0.939379 0.1 0.3 0.00227698
0.412065 0.1 0.9 0.00962544
0.412065 0.1 -0.9 0.00962353
0.756813 0.1 -0.65 0.00390504
0.756813 0.1 0.65 0.00390598
0.797951 0.1 -0.6 0.00348366
0.797951 0.1 0.6 0.00348449
0.835106 0.1 -0.55 0.00312216
0.835106 0.1 0.55 0.00312281
0 0.1 1 0.0058637
0 0.1 -1 0.00586296
1 0.1 0 0.00193942
0.715676 0.1 -0.7 0.00442206
0.715676 0.1 0.7 0.00442286
0.96969 0.1 -0.25 0.00212234
0.96969 0.1 0.25 0.00212256
1 0.1 -0.1 0.00195063
1 0.1 0.1 0.00195062
0.872262 0.1 -0.5 0.00282995
0.872262 0.1 0.5 0.00283043
0.67013 0.1 0.75 0.0050184
0.67013 0.1 -0.75 0.00501775
0.151552 0.1 1 0.0125946
0.151552 0.1 -1 0.0125904
0.90582 0.1 -0.45 0.0025812
0.90582 0.1 0.45 0.00258162
0.350249 0.1 0.95 0.0110605
0.350249 0.1 -0.95 0.0110564
0.624584 0.1 -0.8 0.00571166
0.624584 0.1 0.8 0.00571201
1.01772 0.1 -0.0494093 0.00188781
1.01772 0.1 0.0494093 0.00188781
1 0.1 -0.2 0.00198424
1 0.1 0.2 0.00198436
0.939379 0.1 -0.4 0.00237009
0.939379 0.1 0.4 0.00237049
0.574157 0.1 0.85 0.00653274
0.574157 0.1 -0.85 0.00653264
1.01772 0.1 -0.148228 0.00190942
1.01772 0.1 0.148228 0.0019095
0.969689 0.1 -0.35 0.00219432
0.969689 0.1 0.35 0.0021947
0 0.1 -1.03338 0.00584961
0 0.1 1.03338 0.00585031
0.288433 0.1 1 0.0119257
0.288433 0.1 -1 0.0119212
0.523729 0.1 0.9 0.0075005
0.523729 0.1 -0.9 0.00750018
1 0.1 -0.3 0.00204141
1 0.1 0.3 0.00204175
1.01772 0.1 0.247046 0.00195319
1.01772 0.1 -0.247046 0.00195291
1.05262 0.1 4.04769e-19 0.00176919
0.075776 0.1 -1.05 0.0111163
0.075776 0.1 1.05 0.0111184
1.05262 0.1 -0.0964922 0.00177795
1.05262 0.1 0.0964922 0.00177798
0.835106 0.1 -0.65 0.00332345
0.835106 0.1 0.65 0.00332432
0.872262 0.1 -0.6 0.00299486
0.872262 0.1 0.6 0.00299559
0.467897 0.1 0.95 0.00874467
0.467897 0.1 -0.95 0.00874355
0.90582 0.1 -0.55 0.00271229
0.90582 0.1 0.55 0.00271284
0.797951 0.1 -0.7 0.00372386
0.797951 0.1 0.7 0.00372475
0.939379 0.1 -0.5 0.00249121
0.939379 0.1 0.5 0.00249175
0.756814 0.1 -0.75 0.00418604
0.756813 0.1 0.75 0.00418695
0 0.1 1.06662 0.00584243
0 0.1 -1.06662 0.00584177
0.969689 0.1 0.45 0.00229599
0.96969 0.1 -0.45 0.00229544
1.05262 0.1 -0.192985 0.00180422
1.05262 0.1 0.192985 0.00180435
0.219992 0.1 -1.05 0.0127017
0.219992 0.1 1.05 0.0127073
0.715676 0.1 -0.8 0.0047381
0.715676 0.1 0.8 0.00473877
1.01772 0.1 0.345865 0.00202202
1.01772 0.1 -0.345865 0.00202159
1 0.1 -0.4 0.00212682
1 0.1 0.4 0.00212734
1.07643 0.1 -0.0474523 0.00169383
1.07643 0.1 0.0474523 0.00169382
0.412065 0.1 1 0.00970966
0.412065 0.1 -1 0.00970758
0.67013 0.1 0.85 0.00535599
0.67013 0.1 -0.85 0.00535556
1.07643 0.1 -0.142357 0.00170803
1.07643 0.1 0.142357 0.00170822
1.05262 0.1 -0.289476 0.00184965
1.05262 0.1 0.289476 0.00184987
0.624584 0.1 0.9 0.0060621
0.624584 0.1 -0.9 0.006062
1.09647 0.1 9.8301e-18 0.00164686
0 0.1 1.1 0.00584029
0 0.1 -1.1 0.00583966
1.09647 0.1 -0.0935685 0.00165376
1.09647 0.1 0.0935685 0.00165359
1.07643 0.1 0.237261 0.00173682
1.07643 0.1 -0.237261 0.00173657
0.350249 0.1 1.05 0.0108928
0.350249 0.1 -1.05 0.010889
0.574156 0.1 0.95 0.00693226
0.574156 0.1 -0.95 0.00694629
0.151552 0.1 1.1 0.0123791
0.151552 0.1 -1.1 0.012376
1.01772 0.1 -0.444684 0.00212233
1.01772 0.1 0.444684 0.00212297
1.09647 0.1 -0.187137 0.00167431
1.09647 0.1 0.187137 0.00167399
0.939379 0.1 -0.6 0.00264213
0.939379 0.1 0.6 0.00264282
0.96969 0.1 0.55 0.00243094
0.96969 0.1 -0.55 0.00243026
0.90582 0.1 0.65 0.00289785
0.90582 0.1 -0.65 0.00289704
1 0.1 -0.5 0.00224434
1 0.1 0.5 0.00224505
0.872262 0.1 -0.7 0.00321018
0.872262 0.1 0.7 0.00321104
1.05262 0.1 -0.385969 0.00191846
1.05262 0.1 0.385969 0.00191881
0.835106 0.1 -0.75 0.00357326
0.835106 0.1 0.75 0.00357404
1.12316 0.1 -0.0458947 0.00158426
1.12316 0.1 0.0458947 0.00158418
1.07643 0.1 -0.332166 0.00178222
1.07643 0.1 0.332166 0.00178265
0.523729 0.1 1 0.00785148
0.523729 0.1 -1 0.00785105
0.797951 0.1 -0.8 0.00401506
0.797951 0.1 0.8 0.00401573
1.12316 0.1 -0.137684 0.00159693
1.12316 0.1 0.137684 0.00159695
1.09647 0.1 -0.280706 0.00170977
1.09647 0.1 0.280706 0.00170927
0 0.1 -1.13338 0.0058345
0 0.1 1.13338 0.0058351
0.288433 0.1 1.1 0.0117114
0.288433 0.1 -1.1 0.011708
0.756813 0.1 0.85 0.00451868
0.756813 0.1 -0.85 0.00451809
1.12316 0.1 -0.229473 0.0016227
1.12316 0.1 0.229473 0.00162255
1.14834 0.1 0 0.00152243
0.467897 0.1 1.05 0.00910914
0.467897 0.1 -1.05 0.00910788
0.715676 0.1 0.9 0.00508811
0.715676 0.1 -0.9 0.00508778
1.14834 0.1 -0.0901106 0.00152808
1.14834 0.1 0.0901106 0.00152818
0.075776 0.1 1.15 0.0110378
0.075776 0.1 -1.15 0.0106917
1.01772 0.1 -0.543502 0.00225074
1.01772 0.1 0.543502 0.00225157
1.05262 0.1 -0.482461 0.00201565
1.05262 0.1 0.482461 0.00201609
1.07643 0.1 -0.427071 0.00184797
1.07643 0.1 0.427071 0.00184864
1.09647 0.1 -0.374274 0.0017624
1.09647 0.1 0.374274 0.00176179
1.14834 0.1 -0.180221 0.00154526
1.14834 0.1 0.180221 0.00154545
0.67013 0.1 0.95 0.0057092
0.67013 0.1 -0.95 0.00574278
1 0.1 -0.6 0.00237973
1 0.1 0.6 0.0023805
0 0.1 1.16662 0.00583726
0 0.1 -1.16662 0.00583672
0.969689 0.1 -0.65 0.00258714
0.969689 0.1 0.65 0.00258789
1.12316 0.1 0.321263 0.00166306
1.12316 0.1 -0.321263 0.0016631
1.16984 0.1 -0.0443387 0.00148232
1.16984 0.1 0.0443387 0.00148225
0.219992 0.1 1.15 0.0123797
0.219992 0.1 -1.15 0.0123245
0.939379 0.1 -0.7 0.00283281
0.939379 0.1 0.7 0.00283367
0.412065 0.1 1.1 0.00980988
0.412065 0.1 -1.1 0.00980814
0.90582 0.1 -0.75 0.00312176
0.90582 0.1 0.75 0.00312268
1.16984 0.1 -0.133016 0.0014924
1.16984 0.1 0.133016 0.00149265
0.624584 0.1 1 0.00643954
0.624584 0.1 -1 0.00643952
1.14834 0.1 -0.270332 0.00157497
1.14834 0.1 0.270332 0.0015752
0.872262 0.1 -0.8 0.00347456
0.872262 0.1 0.8 0.00347525
1.16984 0.1 -0.221694 0.00151338
1.16984 0.1 0.221694 0.00151348
0.835106 0.1 -0.85 0.00387851
0.835106 0.1 0.85 0.0038789
1.09647 0.1 -0.467843 0.00183848
1.09647 0.1 0.467843 0.00183749
1.07643 0.1 -0.521975 0.00194483
1.07643 0.1 0.521975 0.00194556
1.12316 0.1 -0.413052 0.00172009
1.12316 0.1 0.413052 0.00172018
0.574156 0.1 -1.05 0.00740563
0.574156 0.1 1.05 0.00740589
1.19994 0.1 -3.3538e-17 0.00141773
0 0.1 1.2 0.00584585
0 0.1 -1.2 0.0058454
1.05262 0.1 -0.578953 0.00212369
1.05262 0.1 0.578953 0.00212424
0.350249 0.1 1.15 0.0108388
0.350249 0.1 -1.15 0.010893
0.797951 0.1 0.9 0.0043573
0.797951 0.1 -0.9 0.00435687
1.19994 0.1 -0.0866707 0.00142193
1.19994 0.1 0.0866707 0.00142212
1.01772 0.1 -0.642321 0.00238451
1.01772 0.1 0.642321 0.00238531
1.14834 0.1 -0.360442 0.00161842
1.14834 0.1 0.360442 0.00161897
0.151552 0.1 1.2 0.0121323
0.151552 0.1 -1.2 0.0121303
1.16984 0.1 -0.310371 0.00154642
1.16984 0.1 0.310371 0.00154663
1.19994 0.1 0.173341 0.00143543
1.19994 0.1 -0.173341 0.001435
0.756813 0.1 -0.95 0.00489419
0.756813 0.1 0.95 0.00480661
1.21398 0.1 -0.0428671 0.00139341
1.21398 0.1 0.0428671 0.00139335
0.523729 0.1 1.1 0.00820427
0.523729 0.1 -1.1 0.00820359
1 0.1 -0.7 0.00254948
1 0.1 0.7 0.00255033
1.21398 0.1 -0.128601 0.00140104
1.21398 0.1 0.128601 0.00140153
0.96969 0.1 -0.75 0.00278596
0.96969 0.1 0.75 0.00278687
1.19994 0.1 -0.260012 0.00145811
1.19994 0.1 0.260012 0.00145849
0.715676 0.1 1 0.00546871
0.715676 0.1 -1 0.00546862
1.12316 0.1 -0.504842 0.00180003
1.12316 0.1 0.504842 0.00179997
1.09647 0.1 -0.561411 0.00192873
1.09647 0.1 0.561411 0.00192799
1.21398 0.1 -0.214335 0.00141744
1.21398 0.1 0.214335 0.00141797
0 0.1 1.23338 0.00585116
0 0.1 -1.23338 0.00585081
1.14834 0.1 -0.450553 0.00167945
1.14834 0.1 0.450553 0.00168022
0.939379 0.1 -0.8 0.00306709
0.939379 0.1 0.8 0.00306791
0.288433 0.1 1.2 0.011548
0.288433 0.1 -1.2 0.0115457
1.23589 0.1 -8.70253e-18 0.00135427
1.16984 0.1 -0.399048 0.00159274
1.16984 0.1 0.399048 0.00159332
1.23589 0.1 0.084274 0.00135792
1.23589 0.1 -0.084274 0.00135772
1.07643 0.1 -0.61688 0.00203141
1.07643 0.1 0.61688 0.00203218
0.467897 0.1 1.15 0.00937606
0.467897 0.1 -1.15 0.0094632
0.90582 0.1 0.85 0.00340115
0.90582 0.1 -0.85 0.00340047
0.67013 0.1 1.05 0.00620236
0.67013 0.1 -1.05 0.00620228
1.23589 0.1 -0.168548 0.00136863
1.23589 0.1 0.168548 0.00136916
1.19994 0.1 -0.346683 0.0014923
1.19994 0.1 0.346683 0.00149287
1.21398 0.1 -0.30007 0.0014439
1.21398 0.1 0.30007 0.00144428
1.05262 0.1 -0.675446 0.00225881
1.05262 0.1 0.675446 0.00225922
0.075776 0.1 1.25 0.0109848
0.075776 0.1 -1.25 0.0109841
0.872262 0.1 -0.9 0.00379497
0.872262 0.1 0.9 0.00379545
1.25537 0.1 -0.0414875 0.00131975
1.25537 0.1 0.0414875 0.00131968
1.01772 0.1 -0.741139 0.00257695
1.01772 0.1 0.741139 0.00257784
1.23589 0.1 -0.252822 0.00138836
1.23589 0.1 0.252822 0.00138886
1.25537 0.1 -0.124462 0.00132578
1.25537 0.1 0.124462 0.00132627
0.835106 0.1 0.95 0.00423909
0.835106 0.1 -0.95 0.00423875
0.624584 0.1 1.1 0.00684936
0.624584 0.1 -1.1 0.00684916
0 0.1 1.26662 0.00586011
0 0.1 -1.26662 0.00585986
1.16984 0.1 -0.487726 0.00165723
1.16984 0.1 0.487726 0.00165785
0.412065 0.1 1.2 0.00996457
0.412065 0.1 -1.2 0.00996326
0.219992 0.1 -1.25 0.0119329
0.219992 0.1 1.25 0.0119347
1.14834 0.1 -0.540664 0.00176358
1.14834 0.1 0.540664 0.00176445
1.12316 0.1 -0.596631 0.00189257
1.12316 0.1 0.596631 0.0018927
1.25537 0.1 -0.207437 0.00133939
1.25537 0.1 0.207437 0.00134014
1.21398 0.1 0.385804 0.00148208
1.21398 0.1 -0.385804 0.00148128
1.19994 0.1 -0.433353 0.00154171
1.19994 0.1 0.433353 0.00154248
1.27678 0.1 2.18286e-17 0.00128104
1.09647 0.1 -0.654979 0.00203554
1.09647 0.1 0.654979 0.00203385
0.797951 0.1 1 0.00473616
0.797951 0.1 -1 0.00473591
1.27678 0.1 -0.0815477 0.00128392
1.27678 0.1 0.0815477 0.00128403
1 0.1 -0.8 0.00276762
1 0.1 0.8 0.00276846
1.23589 0.1 0.337096 0.0014186
1.23589 0.1 -0.337096 0.00141801
0.574156 0.1 1.15 0.00785401
0.574156 0.1 -1.15 0.00796115
1.27678 0.1 -0.163095 0.00129318
1.27678 0.1 0.163095 0.00129372
1.25537 0.1 -0.290413 0.00136196
1.25537 0.1 0.290413 0.00136251
0.96969 0.1 -0.85 0.00302427
0.96969 0.1 0.85 0.00302503
1.07643 0.1 0.711784 0.00217708
1.07643 0.1 -0.711784 0.00217623
0.756813 0.1 -1.05 0.00534501
0.756814 0.1 1.05 0.00534512
0.350249 0.1 1.25 0.0110494
0.350249 0.1 -1.25 0.011047
1.29889 0.1 -0.040037 0.00124258
1.29889 0.1 0.040037 0.00124245
0 0.1 1.3 0.00587142
0 0.1 -1.3 0.00587129
1.27678 0.1 0.244643 0.00131102
1.27678 0.1 -0.244643 0.00131047
0.939379 0.1 -0.9 0.00334601
0.939379 0.1 0.9 0.0033467
1.21398 0.1 -0.471538 0.00153841
1.21398 0.1 0.471538 0.00153914
1.16984 0.1 0.576403 0.0017527
1.16984 0.1 -0.576403 0.00175204
1.29889 0.1 -0.120111 0.00124774
1.29889 0.1 0.120111 0.00124802
1.05262 0.1 0.771937 0.00244744
1.05262 0.1 -0.771937 0.00244715
1.23589 0.1 -0.42137 0.00146356
1.23589 0.1 0.42137 0.00146432
1.19994 0.1 -0.520024 0.0016119
1.19994 0.1 0.520024 0.00161274
0.151552 0.1 1.3 0.0118338
0.151552 0.1 -1.3 0.0118319
0.523729 0.1 1.2 0.00846464
0.523729 0.1 -1.2 0.0084641
1.25537 0.1 -0.373388 0.00139439
1.25537 0.1 0.373388 0.00139533
1.14834 0.1 -0.630774 0.00185075
1.14834 0.1 0.630774 0.00185167
0.715676 0.1 1.1 0.00587993
0.715676 0.1 -1.1 0.00587991
0.90582 0.1 -0.95 0.00373876
0.90582 0.1 0.95 0.00373927
1.31405 0.1 0 0.00121319
1.29889 0.1 -0.200185 0.00125963
1.29889 0.1 0.200185 0.00126028
1.31405 0.1 -0.0790633 0.0012154
1.31405 0.1 0.0790633 0.00121558
1.12316 0.1 -0.68842 0.00199861
1.12316 0.1 0.68842 0.00199835
1.27678 0.1 -0.326191 0.00133688
1.27678 0.1 0.326191 0.00133741
1.01772 0.1 -0.839958 0.00281279
1.01772 0.1 0.839958 0.00281361
1.31405 0.1 -0.158127 0.00122279
1.31405 0.1 0.158127 0.00122362
0.872262 0.1 1 0.0041686
0.872262 0.1 -1 0.00416824
1.09647 0.1 -0.748548 0.00218792
1.09647 0.1 0.748548 0.00218545
1.29889 0.1 0.280259 0.00128017
1.29889 0.1 -0.280259 0.00127983
0.67013 0.1 -1.15 0.00679981
0.67013 0.1 1.15 0.00669426
0.288433 0.1 1.3 0.0113805
0.288433 0.1 -1.3 0.0113777
1.33178 0.1 -0.0389408 0.0011987
1.33178 0.1 0.0389408 0.00119847
0 0.1 1.33338 0.00587884
0 0.1 -1.33338 0.00587882
0.467897 0.1 -1.25 0.00949199
0.467897 0.1 1.25 0.00949245
1.31405 0.1 -0.23719 0.00123704
1.31405 0.1 0.23719 0.001238
1.23589 0.1 -0.505644 0.00152363
1.23589 0.1 0.505644 0.00152441
1.25537 0.1 -0.456363 0.00144892
1.25537 0.1 0.456363 0.00145
1.21398 0.1 -0.557272 0.00161376
1.21398 0.1 0.557272 0.00161465
1.33178 0.1 -0.116822 0.00120139
1.33178 0.1 0.116822 0.001202
1.27678 0.1 -0.407738 0.00137877
1.27678 0.1 0.407738 0.00137932
0.835106 0.1 -1.05 0.00465028
0.835106 0.1 1.05 0.00459919
1.19994 0.1 -0.606695 0.0016814
1.19994 0.1 0.606695 0.0016823
1.07643 0.1 0.806689 0.00236474
1.07643 0.1 -0.806689 0.00236397
1 0.1 -0.9 0.00302238
1 0.1 0.9 0.00302317
1.16984 0.1 -0.665081 0.00182188
1.16984 0.1 0.665081 0.00182247
1.33178 0.1 -0.194704 0.00120952
1.33178 0.1 0.194704 0.00121079
1.29889 0.1 0.360333 0.00131046
1.29889 0.1 -0.360333 0.00131014
1.35048 0.1 0 0.00114741
1.31405 0.1 -0.316253 0.00126038
1.31405 0.1 0.316253 0.00126141
0.075776 0.1 1.35 0.0109891
0.075776 0.1 -1.35 0.0109885
1.35048 0.1 -0.0766347 0.00114924
1.35048 0.1 0.0766347 0.00114952
0.624584 0.1 1.2 0.007188
0.624584 0.1 -1.2 0.00718786
1.14834 0.1 -0.720885 0.00196378
1.14834 0.1 0.720885 0.00196465
0.969689 0.1 0.95 0.00329716
0.969689 0.1 -0.95 0.00329641
0.797951 0.1 1.1 0.00513331
0.797951 0.1 -1.1 0.00513325
1.35048 0.1 -0.153269 0.00115596
1.35048 0.1 0.153269 0.00115705
1.33178 0.1 -0.272585 0.00122371
1.33178 0.1 0.272585 0.00122455
1.36263 0.1 -0.0379125 0.00113813
1.36263 0.1 0.0379125 0.00113802
0.412065 0.1 1.3 0.0101731
0.412065 0.1 -1.3 0.0101717
1.05262 0.1 0.86843 0.00267557
1.05262 0.1 -0.86843 0.00267548
1.25537 0.1 -0.539338 0.00150499
1.25537 0.1 0.539338 0.00150596
0 0.1 1.36662 0.00589026
0 0.1 -1.36662 0.00589031
1.27678 0.1 -0.489286 0.00143028
1.27678 0.1 0.489286 0.00143078
1.36263 0.1 0.113737 0.00114175
1.36263 0.1 -0.113737 0.00114102
1.12316 0.1 -0.78021 0.00215647
1.12316 0.1 0.78021 0.00215576
0.219992 0.1 -1.35 0.0114929
0.219992 0.1 1.35 0.0114964
1.23589 0.1 0.589918 0.00157954
1.23589 0.1 -0.589918 0.00157872
1.35048 0.1 -0.229904 0.00116976
1.35048 0.1 0.229904 0.00117086
1.29889 0.1 -0.440407 0.00135897
1.29889 0.1 0.440407 0.00135917
0.939379 0.1 -1 0.00368374
0.939379 0.1 1 0.00368433
1.31405 0.1 -0.395317 0.00129952
1.31405 0.1 0.395317 0.00130074
1.21398 0.1 0.643007 0.00166642
1.21398 0.1 -0.643007 0.00166552
0.574156 0.1 -1.25 0.00801593
0.574156 0.1 1.25 0.00801604
1.36263 0.1 -0.189562 0.00115025
1.36263 0.1 0.189562 0.00115174
0.756813 0.1 -1.15 0.00592105
0.756813 0.1 1.15 0.00581874
1.33178 0.1 -0.350467 0.00125059
1.33178 0.1 0.350467 0.00125183
1.09647 0.1 0.842117 0.0023778
1.09647 0.1 -0.842117 0.00238097
1.01772 0.1 0.938777 0.00309051
1.01772 0.1 -0.938777 0.00308973
1.35048 0.1 -0.306539 0.00119133
1.35048 0.1 0.306539 0.00119215
1.19994 0.1 -0.693366 0.00176528
1.19994 0.1 0.693366 0.00176623
1.38601 0.1 -1.73472e-19 0.00105453
0.90582 0.1 -1.05 0.00414695
0.90582 0.1 1.05 0.00409481
1.38601 0.1 -0.0742663 0.00105743
1.38601 0.1 0.0742663 0.00105799
1.36263 0.1 -0.265388 0.00116781
1.36263 0.1 0.265388 0.00116863
1.16984 0.1 0.753758 0.00195166
1.16984 0.1 -0.753758 0.00195117
1.38601 0.1 -0.148532 0.00106828
1.38601 0.1 0.148532 0.0010697
0.350249 0.1 1.35 0.01127
0.350249 0.1 -1.35 0.0112672
1.31405 0.1 -0.47438 0.00134653
1.31405 0.1 0.47438 0.0013476
0.715676 0.1 1.2 0.00625235
0.715676 0.1 -1.2 0.00625239
1.27678 0.1 -0.570834 0.00147589
1.27678 0.1 0.570834 0.0014765
1.33178 0.1 -0.428349 0.00129713
1.33178 0.1 0.428349 0.0012983
1.29889 0.1 -0.520481 0.00140566
1.29889 0.1 0.520481 0.00140571
0 0.1 1.4 0.00590456
0 0.1 -1.4 0.00590464
1.25537 0.1 -0.622313 0.00154302
1.25537 0.1 0.622313 0.00154394
0.523729 0.1 1.3 0.00867445
0.523729 0.1 -1.3 0.00867393
1.40143 0.1 0.0366192 0.00100782
1.40143 0.1 -0.0366192 0.00100772
1.35048 0.1 -0.383173 0.00122614
1.35048 0.1 0.383173 0.00122731
1.38601 0.1 0.222799 0.00108938
1.38601 0.1 -0.222799 0.0010884
0.872262 0.1 1.1 0.00455889
0.872262 0.1 -1.1 0.00455872
1.07643 0.1 0.901594 0.00258829
1.07643 0.1 -0.901594 0.00258763
1.36263 0.1 -0.341212 0.00119172
1.36263 0.1 0.341212 0.00119233
1.40143 0.1 0.109857 0.00101723
1.40143 0.1 -0.109857 0.00101547
1.14834 0.1 -0.810995 0.00212221
1.14834 0.1 0.810995 0.0021231
1.23589 0.1 -0.674192 0.00164874
1.23589 0.1 0.674192 0.0016495
0.151552 0.1 1.4 0.0116159
0.151552 0.1 -1.4 0.0116132
1.40143 0.1 0.183096 0.00103775
1.40143 0.1 -0.183096 0.00103564
1 0.1 1 0.00333335
1 0.1 -1 0.00333256
1.21398 0.1 -0.728741 0.00177047
1.21398 0.1 0.728741 0.00177149
1.38601 0.1 -0.297065 0.00111408
1.38601 0.1 0.297065 0.00111427
0.67013 0.1 1.25 0.00694922
0.67013 0.1 -1.25 0.0069493
1.41851 0.1 1.23599e-17 0.000916697
1.41851 0.1 -0.0720991 0.000921385
1.41851 0.1 0.0720991 0.000922306
0.835106 0.1 1.15 0.00510289
0.835106 0.1 -1.15 0.0052031
1.12316 0.1 0.871999 0.00234758
1.12316 0.1 -0.871999 0.00234866
1.40143 0.1 -0.256334 0.0010631
1.40143 0.1 0.256334 0.00106362
1.33178 0.1 -0.50623 0.00133817
1.33178 0.1 0.50623 0.001339
1.36263 0.1 -0.417037 0.00123114
1.36263 0.1 0.417037 0.00123253
1.41851 0.1 -0.144198 0.000938131
1.41851 0.1 0.144198 0.000939876
1.31405 0.1 -0.553443 0.00139473
1.31405 0.1 0.553443 0.00139579
1.05262 0.1 0.962057 0.00295271
1.35048 0.1 -0.459808 0.00126775
1.35048 0.1 0.459808 0.00126891
1.05262 0.1 -0.964922 0.00295023
0.467897 0.1 -1.35 0.00964662
0.467897 0.1 1.35 0.00964726
0.969689 0.1 -1.05 0.00364487
0.969689 0.1 1.05 0.00358657
0.288433 0.1 1.4 0.0114094
0.288433 0.1 -1.4 0.011407
1.29889 0.1 -0.600555 0.00144854
1.29889 0.1 0.600555 0.00144861
1.19994 0.1 0.780036 0.00189303
1.19994 0.1 -0.780036 0.001892
0 0.1 1.43338 0.0059138
0 0.1 -1.43338 0.0059139
1.27678 0.1 -0.652382 0.00153205
1.27678 0.1 0.652382 0.00153219
1.38601 0.1 -0.371331 0.00115094
1.38601 0.1 0.371331 0.00115111
1.41851 0.1 0.216297 0.000968814
1.41851 0.1 -0.216297 0.000967856
1.43833 0.1 -0.0353889 0.000809129
1.43833 0.1 0.0353889 0.000809427
1.40143 0.1 0.329573 0.00109125
1.40143 0.1 -0.329573 0.00109112
1.25537 0.1 -0.705288 0.00163067
1.25537 0.1 0.705288 0.00163174
0.797951 0.1 1.2 0.00552734
0.797951 0.1 -1.2 0.00552738
1.09647 0.1 0.935217 0.00260931
1.09647 0.1 -0.935685 0.00261498
1.16984 0.1 -0.842436 0.00211199
1.16984 0.1 0.842436 0.00211243
1.43833 0.1 -0.106166 0.000820923
1.43833 0.1 0.106166 0.000822528
0.624584 0.1 1.3 0.00744518
0.624584 0.1 -1.3 0.00744485
0.939379 0.1 1.1 0.00405992
0.939379 0.1 -1.1 0.00405956
1.23217 0.1 0.758466 0.00175829
1.41851 0.1 -0.288396 0.00100497
1.41851 0.1 0.288396 0.00100472
1.36263 0.1 -0.492862 0.00126956
1.36263 0.1 0.492862 0.00127056
1.43833 0.1 -0.176944 0.000848895
1.43833 0.1 0.176944 0.000850421
1.4493 0.1 0 0.000740624
1.23589 0.1 -0.758466 0.00175751
1.4493 0.1 -0.0700466 0.000745815
1.4493 0.1 0.0700466 0.00074678
0.075776 0.1 -1.45 0.0110598
0.075776 0.1 1.45 0.0111012
1.35048 0.1 -0.536443 0.00131668
1.35048 0.1 0.536443 0.00131768
1.01772 0.1 1.03759 0.00353708
1.01772 0.1 -1.03759 0.00343231
1.33178 0.1 0.584112 0.00139552
1.33178 0.1 -0.584112 0.00139432
1.38601 0.1 0.445597 0.00119523
1.38601 0.1 -0.445597 0.00119475
1.4493 0.1 -0.140093 0.000764306
1.4493 0.1 0.140093 0.000766052
1.40143 0.1 -0.402811 0.00114156
1.40143 0.1 0.402811 0.00114175
1.31405 0.1 -0.632507 0.00144265
1.31405 0.1 0.632507 0.0014437
0.412065 0.1 1.4 0.0105495
0.412065 0.1 -1.4 0.0105491
1.43833 0.1 -0.247722 0.000892763
1.43833 0.1 0.247722 0.000892608
1.14834 0.1 -0.901106 0.00231544
1.14834 0.1 0.901106 0.00231627
0.756813 0.1 1.25 0.00615873
0.756813 0.1 -1.25 0.00615884
1.21398 0.1 0.814475 0.00190521
1.21398 0.1 -0.814475 0.00190413
1.41851 0.1 0.360495 0.00105175
1.41851 0.1 -0.360495 0.00105252
0.90582 0.1 1.15 0.00457881
0.90582 0.1 -1.15 0.00457868
1.4493 0.1 -0.21014 0.000797878
1.4493 0.1 0.21014 0.000798674
1.46461 0.1 -0.034513 0.000654051
1.46461 0.1 0.034513 0.000654257
1.29889 0.1 -0.680629 0.00151019
1.29889 0.1 0.680629 0.00150988
0.219992 0.1 1.45 0.0112523
0.219993 0.1 -1.45 0.0112178
0 0.1 1.46662 0.00592662
0 0.1 -1.46662 0.00592672
1.07643 0.1 0.996497 0.00286162
1.07643 0.1 -0.996497 0.0028609
0.574156 0.1 -1.35 0.0081775
0.574156 0.1 1.35 0.00817783
1.46461 0.1 0.103539 0.000667132
1.46461 0.1 -0.103539 0.000665644
1.27678 0.1 -0.733929 0.00162038
1.27678 0.1 0.733929 0.00162034
1.43833 0.1 -0.318499 0.000940411
1.43833 0.1 0.318499 0.00093936
1.46461 0.1 -0.172565 0.000692184
1.46461 0.1 0.172565 0.000693904
1.4493 0.1 -0.280186 0.000843777
1.4493 0.1 0.280186 0.0008432
1.36263 0.1 0.568687 0.001324
1.36263 0.1 -0.568687 0.00132308
1.19994 0.1 0.864385 0.00204934
1.47904 0.1 0 0.00058956
1.12316 0.1 -0.963788 0.00258344
1.12316 0.1 0.963788 0.00264892
1.40143 0.1 -0.47605 0.00118621
1.40143 0.1 0.47605 0.00118669
1.19994 0.1 -0.866707 0.00204843
1.38601 0.1 -0.519864 0.00124261
1.38601 0.1 0.519864 0.00124312
1.47904 0.1 -0.0680643 0.000593854
1.47904 0.1 0.0680643 0.000594618
1.25537 0.1 -0.788263 0.00174298
1.25537 0.1 0.788263 0.00174406
1.41851 0.1 -0.432595 0.00110925
1.41851 0.1 0.432595 0.00110887