# nutMean  POINT_DATA 52309
# x  y  z  nutMean
0 0 0 8.63736e-06
0 0.00519778 0 4.46059e-05
0 0.0106663 0 0.00024415
0 0.0164197 0 0.000924124
0 0.0224727 0 0.00219635
0 0.028841 0 0.00341422
0 0.035541 0 0.0041567
0 0.04259 0 0.00460149
0 0.0500061 0 0.0048726
0 0.0578085 0 0.00508391
0 0.0660173 0 0.00529221
0 0.0746537 0 0.00552151
0.075776 0.00259889 0 2.31005e-05
0.075776 0.00793204 0 3.59166e-05
0.075776 0.013543 0 0.000193558
0.075776 0.0194462 0 0.000815179
0.075776 0.0256568 0 0.00215459
0.075776 0.032191 3.46945e-18 0.00412534
0 0.0837399 0 0.00577272
0.075776 0.0390655 3.46945e-18 0.00662315
0.075776 0.046298 -3.46945e-18 0.00947871
0.075776 0.0539073 0 0.0125021
0 0.0932994 0 0.00604431
0.075776 0.0619129 0 0.0155177
0 0.103357 0 0.00633923
0.075776 0.0703355 0 0.0183804
0.075776 0.0791968 0 0.0205125
0 0.113938 0 0.00666095
0.075776 0.0885197 3.46945e-18 0.0214375
0.075776 0.0983282 0 0.0221758
0 0.12507 0 0.00701216
0.075776 0.108648 0 0.0227054
0 0.136783 0 0.00739429
0.075776 0.119504 0 0.0229971
0 0.149105 0 0.00780622
0.075776 0.130926 0 0.0230507
0.151552 0 0 0
0.151552 0.00519778 0 2.29108e-05
0.151552 0.0106663 0 7.89451e-05
0.151552 0.0164197 0 0.000327569
0.151552 0.0224727 0 0.000960814
0.151552 0.028841 0 0.00206457
0.151552 0.035541 0 0.00360704
0.151552 0.04259 0 0.00552369
0.151552 0.0500061 0 0.00772426
0.075776 0.142944 0 0.0229147
0 0.162069 0 0.00824354
0.151552 0.0578085 0 0.0101081
0.151552 0.0660173 0 0.0125778
0.151552 0.0746537 0 0.0149331
0.075776 0.155587 3.46945e-18 0.0226559
0.151552 0.0837399 0 0.0168904
0 0.175708 0 0.00869684
0.151552 0.0932994 0 0.0185482
0.151552 0.103357 0 0.0201111
0.075776 0.168888 0 0.0223081
0.151552 0.113938 0 0.0215259
0 0.190058 0 0.00914312
0.151552 0.12507 0 0.0227501
0.075776 0.182883 0 0.0218671
0.151552 0.136783 0 0.0236381
0 0.205155 0 0.00955014
0.075776 0.197606 0 0.021206
0.151552 0.149105 0 0.0240983
0.219992 0.00259889 0 1.40672e-05
0.219993 0.00793204 0 1.94344e-05
0.219993 0.013543 0 7.16235e-05
0.219992 0.0194462 -3.46945e-18 0.000253383
0 0.221039 0 0.0100588
0.219993 0.0256568 0 0.000689646
0.151552 0.162069 0 0.024316
0.219993 0.032191 0 0.00143138
0.219993 0.0390655 0 0.00248269
0.219993 0.0462981 3.46945e-18 0.00384535
0.075776 0.213097 6.93889e-18 0.020244
0.219992 0.0539073 0 0.00550391
0.219992 0.0619129 0 0.00742586
0.219992 0.0703355 0 0.00956641
0.151552 0.175708 0 0.0244227
0.219992 0.0791968 0 0.0118713
0.219992 0.0885196 3.46945e-18 0.0142814
0 0.23775 0 0.0107752
0.219992 0.0983282 0 0.0167297
0.075776 0.229395 -3.46945e-18 0.0201061
0.151552 0.190058 0 0.0243499
0.219992 0.108647 0 0.019142
0.219992 0.119504 -3.46945e-18 0.0214346
0.151552 0.205155 0 0.0240073
0 0.255331 0 0.0116325
0.219992 0.130926 3.46945e-18 0.0235546
0.075776 0.24654 0 0.0204299
0.219993 0.142944 3.46945e-18 0.0249457
0.151552 0.221039 0 0.0236261
0.219992 0.155587 0 0.0257034
0 0.273828 0 0.0127351
0.075776 0.264579 -3.46945e-18 0.0209735
0.219992 0.168888 3.46945e-18 0.0263547
0.151552 0.23775 0 0.0234051
0.219992 0.182883 0 0.0268527
0.288433 0 0 0
0.288433 0.00519778 0 1.3301e-05
0.288433 0.0106663 0 3.83805e-05
0.288433 0.0164197 0 0.000130925
0.288433 0.0224727 0 0.000371575
0.288433 0.028841 0 0.000835386
0.288433 0.035541 0 0.00155467
0.288433 0.04259 3.70071e-18 0.00253907
0.288433 0.0500061 0 0.00378948
0 0.293289 0 0.0142904
0.075776 0.283558 0 0.0223518
0.288433 0.0578085 0 0.00529373
0.219992 0.197607 3.46945e-18 0.0271028
0.288433 0.0660173 0 0.00702639
0.151552 0.255331 0 0.0232443
0.288433 0.0746537 0 0.00894934
0.288433 0.0837399 0 0.0110113
0.288433 0.0932994 0 0.0130264
0.219992 0.213097 3.46945e-18 0.0270436
0.288433 0.103357 0 0.0146126
0.288433 0.113938 0 0.0158336
0.075776 0.303526 0 0.0249539
0.151552 0.273828 0 0.0233699
0 0.313763 0 0.0155246
0.288433 0.12507 0 0.0169736
0.219992 0.229394 0 0.026656
0.288433 0.136783 0 0.0178921
0.288433 0.149105 0 0.0184785
0.151552 0.293289 0 0.0239765
0.219992 0.24654 0 0.0260156
0.288433 0.162069 0 0.0188852
0.075776 0.324533 6.93889e-18 0.0249204
0 0.335303 0 0.0155933
0.288433 0.175708 0 0.0192272
0.219992 0.264579 0 0.0252241
0.288433 0.190058 0 0.019467
0.151552 0.313763 0 0.0241011
0.350249 0.00259889 3.46945e-18 5.57915e-06
0.350249 0.00793204 -3.46945e-18 1.45508e-05
0.350249 0.013543 3.46945e-18 4.88008e-05
0.350249 0.0194462 3.46945e-18 0.000153812
0.350249 0.0256568 -3.46945e-18 0.000401854
0.350249 0.032191 -6.93889e-18 0.00084657
0.350249 0.0390655 6.93889e-18 0.0015079
0.350249 0.0462981 -3.46945e-18 0.00239777
0.288433 0.205155 -6.16298e-33 0.019563
0.350249 0.0539073 0 0.00352054
0.075776 0.346634 0 0.0229414
0.350249 0.0619129 3.46945e-18 0.00486961
0.350249 0.0703355 3.46945e-18 0.00642564
0 0.357966 0 0.0151921
0.219993 0.283558 3.46945e-18 0.0247062
0.350249 0.0791968 3.46945e-18 0.00815302
0.350249 0.0885196 0 0.00999478
0.288433 0.221039 0 0.0194902
0.350249 0.0983282 6.93889e-18 0.0114062
0.350249 0.108647 3.46945e-18 0.011583
0.151552 0.335303 0 0.0230117
0.350249 0.119504 -3.46945e-18 0.0117249
0.288433 0.23775 0 0.0192569
0.350249 0.130927 0 0.0118617
0.219992 0.303526 -3.46945e-18 0.0238519
0.075776 0.369888 0 0.0218363
0.350249 0.142944 3.46945e-18 0.0119907
0 0.381809 0 0.0150897
0.350249 0.155587 0 0.012118
0.288433 0.255331 0 0.018901
0.151552 0.357966 0 0.0216061
0.350249 0.168888 0 0.0122446
0.219992 0.324533 0 0.0227873
0.350249 0.182883 3.46945e-18 0.0123649
0.288433 0.273828 0 0.0185466
0.075776 0.394351 3.46945e-18 0.0216893
0.350249 0.197607 3.46945e-18 0.0124717
0 0.406893 0 0.0152346
0.350249 0.213097 -3.46945e-18 0.0125568
0.219992 0.346635 0 0.0215165
0.151552 0.381809 0 0.0206885
0.288433 0.293289 -6.16298e-33 0.0181536
0.412065 9.61782e-19 3.08149e-33 1.02501e-21
0.412065 0.00259889 0 4.59605e-06
0.412065 0.00519778 -3.08149e-33 9.1921e-06
0.412065 0.00793204 0 1.90915e-05
0.412065 0.0106663 -3.70076e-18 2.89909e-05
0.412065 0.0164197 -3.70076e-18 8.87016e-05
0.412065 0.0224727 0 0.000236997
0.412065 0.028841 0 0.000528995
0.412065 0.035541 -3.70076e-18 0.00100175
0.412065 0.04259 -3.70076e-18 0.00167214
0.412065 0.0500061 0 0.00254899
0.412065 0.0578085 -3.70076e-18 0.00363153
0.412065 0.0660173 -3.70076e-18 0.00490643
0.350249 0.229395 0 0.012608
0.412065 0.0746537 -3.70076e-18 0.00634327
0.412065 0.0837399 -3.70076e-18 0.00769343
0.412065 0.0932994 -3.70076e-18 0.00868431
0.412065 0.103357 -3.70076e-18 0.00914965
0.288433 0.313763 0 0.0176101
0.075776 0.420089 0 0.0218164
0.412065 0.113938 -3.70076e-18 0.00927086
0.350249 0.24654 -3.46945e-18 0.012616
0.219992 0.369887 0 0.0202314
0.412065 0.12507 -3.70076e-18 0.00937267
5.60855e-17 0.433285 6.16298e-33 0.0154212
0.412065 0.136783 -3.70076e-18 0.00947449
0.151552 0.406893 0 0.020172
0.412065 0.149105 0 0.00957553
0.350249 0.264579 3.46945e-18 0.0125711
0.288433 0.335303 0 0.0169446
0.412065 0.162069 0 0.00967639
0.412065 0.175708 3.08149e-33 0.00977487
0.350249 0.283558 3.46945e-18 0.0124702
0.219993 0.394351 0 0.0191363
0.075776 0.447168 -3.46945e-18 0.0219333
0.412065 0.190058 3.08149e-33 0.00986699
0.151552 0.433285 -3.70071e-18 0.0198075
0.288433 0.357966 0 0.0162023
0.412065 0.205155 3.08149e-33 0.00994809
0 0.461051 0 0.015532
0.350249 0.303526 6.93889e-18 0.0123344
0.412065 0.213097 0 0.00998009
0.412065 0.221039 -3.08149e-33 0.0100121
0.467897 0.00259889 0 2.90229e-06
0.467897 0.00793204 -3.46945e-18 1.38367e-05
0.467897 0.013543 3.46945e-18 3.90846e-05
0.467897 0.0194462 3.46945e-18 0.000114558
0.467897 0.0256568 -3.46945e-18 0.000282453
0.467897 0.032191 3.46945e-18 0.000596034
0.467897 0.0390655 3.46945e-18 0.00107665
0.467897 0.046298 3.46945e-18 0.00173844
0.467897 0.0539073 3.46945e-18 0.00258626
0.412065 0.229395 0 0.0100326
0.467897 0.0619129 3.46945e-18 0.00361433
0.467897 0.0703355 0 0.00480106
0.219992 0.420089 -3.46945e-18 0.0182513
0.467897 0.0791968 3.46945e-18 0.00610171
0.412065 0.23775 3.08149e-33 0.0100531
0.467897 0.0885197 0 0.00668214
0.350249 0.324533 3.46945e-18 0.012163
0.467897 0.0983282 0 0.00688448
0.288433 0.381809 0 0.0154878
0.467897 0.103357 0 0.00752637
0.467897 0.108647 0 0.00699266
0.075776 0.475657 0 0.0218685
0.467897 0.119504 -3.46945e-18 0.00705485
0.412065 0.255331 3.08149e-33 0.0100664
0.151552 0.461051 0 0.0194522
0.467897 0.130927 3.46945e-18 0.00712533
0.467897 0.142944 -3.46945e-18 0.00719972
0 0.490263 0 0.0155289
0.350249 0.346634 0 0.0119451
0.467897 0.155587 -6.93889e-18 0.00727606
0.412065 0.273828 3.08149e-33 0.0100501
0.467897 0.168888 0 0.00735204
0.219992 0.447168 0 0.0174969
0.288433 0.406893 0 0.0148721
0.467897 0.182883 0 0.00742577
0.412065 0.293289 3.08149e-33 0.0100079
0.467897 0.197606 -3.46945e-18 0.00749568
0.350249 0.369887 3.46945e-18 0.0116833
0.075776 0.50563 0 0.0216759
0.151552 0.490263 0 0.0190644
0.467897 0.213097 0 0.00755961
0.467897 0.221039 0 0.00825939
0.412065 0.313763 3.08149e-33 0.00994215
0.288433 0.433285 0 0.014353
0 0.520997 0 0.0154406
0.467897 0.229395 0 0.00761558
0.523729 0 0 0
0.523729 0.00519778 0 8.30208e-06
0.523729 0.0106663 -3.70076e-18 2.61283e-05
0.523729 0.0164197 0 6.99785e-05
0.219992 0.475657 0 0.0168266
0.523729 0.0224727 0 0.000173093
0.523729 0.028841 0 0.000385283
0.523729 0.035541 0 0.000739503
0.523729 0.04259 0 0.00124884
0.523729 0.0500061 0 0.0019259
0.523729 0.0578085 0 0.00276922
0.350249 0.394351 3.46945e-18 0.0114085
0.523729 0.0660173 0 0.00376362
0.467897 0.24654 0 0.0076626
0.523729 0.0746537 -3.70076e-18 0.0048342
0.523729 0.0837399 -3.70076e-18 0.00554234
0.412065 0.335303 3.08149e-33 0.00984851
0.523729 0.0932994 0 0.00578358
0.523729 0.103357 -3.08149e-33 0.00590309
0.523729 0.113938 0 0.00598523
0.467897 0.264579 0 0.00770169
0.523729 0.12507 0 0.0060545
0.523729 0.136783 0 0.00612433
0.075776 0.537164 0 0.0214054
0.151552 0.520997 0 0.0186684
0.288433 0.461051 0 0.0139018
0.523729 0.149105 0 0.00619374
0.412065 0.357966 3.08149e-33 0.00972422
0.350249 0.420089 0 0.0111544
0.467897 0.283558 0 0.00773658
0.523729 0.162069 0 0.00626201
0.219992 0.50563 0 0.0162357
0.523729 0.175708 0 0.00632829
5.0477e-17 0.553331 3.70071e-18 0.0152911
0.523729 0.190058 0 0.00639178
0.467897 0.303526 3.46945e-18 0.00776068
0.412065 0.381809 3.08149e-33 0.00957788
0.523729 0.205155 3.08149e-33 0.00645159
0.350249 0.447168 3.46945e-18 0.0109342
0.523729 0.221039 3.08149e-33 0.00650669
0.288433 0.490263 0 0.0135033
0.467897 0.324533 3.46945e-18 0.00777023
0.151552 0.553331 0 0.0182823
0.574156 0.00259889 3.46945e-18 1.97957e-06
0.574156 0.00793204 0 1.44976e-05
0.574156 0.013543 0 3.7131e-05
0.574156 0.0194462 0 8.98627e-05
0.574156 0.0256568 0 0.000208175
0.574157 0.032191 0 0.000460151
0.523729 0.23775 0 0.0065564
0.075776 0.57034 6.93889e-18 0.0210882
0.574156 0.0390655 0 0.000835371
0.574156 0.0462981 0 0.0013616
0.574157 0.0539073 0 0.00204216
0.574156 0.0619129 0 0.00286893
0.574157 0.0703355 0 0.00381679
0.412065 0.406893 0 0.00942814
0.574156 0.0791968 0 0.004682
0.219993 0.537164 0 0.0157257
0.574156 0.0885196 3.46945e-18 0.00479242
0.467897 0.346635 0 0.00776349
0.574157 0.0983282 0 0.00487983
0.523729 0.255331 0 0.00660091
0.574156 0.108648 -3.46945e-18 0.00496361
0.574157 0.119504 3.46945e-18 0.00503829
0 0.58735 0 0.0150978
0.574156 0.130927 3.46945e-18 0.00510764
0.350249 0.475657 0 0.0107415
0.523729 0.273828 0 0.00664157
0.574156 0.142944 3.46945e-18 0.00517294
0.574156 0.155587 0 0.00523508
0.288433 0.520997 0 0.0131554
0.467897 0.369887 0 0.00773926
0.412065 0.433285 0 0.00929071
0.574157 0.168888 3.46945e-18 0.00529447
0.523729 0.293289 3.08149e-33 0.00667725
0.574156 0.182883 0 0.00535127
0.151552 0.58735 0 0.0179137
0.574157 0.197607 0 0.00540557
0.574156 0.205155 0 0.00564921
0.075776 0.605245 -3.46945e-18 0.0207424
0.523729 0.313763 0 0.00670445
0.219992 0.570341 -3.46945e-18 0.0152896
0.467897 0.394351 -3.46945e-18 0.00770061
0.574156 0.213097 0 0.00545729
0.350249 0.50563 3.46945e-18 0.0105724
0.574156 0.229395 0 0.00550643
0.412065 0.461051 3.08149e-33 0.00917048
0.523729 0.335303 0 0.00672105
0 0.623141 0 0.0148731
0.288433 0.553331 0 0.0128565
0.624584 0 0 0
0.624584 0.00519778 0 8.272e-06
0.624584 0.0106663 -3.70076e-18 2.64891e-05
0.624584 0.0164197 0 6.12351e-05
0.574157 0.24654 0 0.00555319
0.624584 0.0224727 0 0.000136976
0.624584 0.028841 0 0.00030252
0.624584 0.035541 0 0.000584964
0.624584 0.04259 0 0.00099427
0.624584 0.0500061 0 0.00154536
0.624584 0.0578085 0 0.00223493
0.624584 0.0660173 0 0.00304496
0.467897 0.420089 -3.46945e-18 0.00765586
0.624584 0.0746537 -3.70076e-18 0.00379465
0.624584 0.0837399 0 0.00417028
0.624584 0.0932994 0 0.00427521
0.574156 0.264579 3.46945e-18 0.00559807
0.624584 0.103357 -3.08149e-33 0.00436508
0.523729 0.357966 0 0.00672583
0.624584 0.113938 0 0.00444468
0.624584 0.12507 -3.08149e-33 0.00451504
0.624584 0.136783 0 0.00457932
0.574156 0.283559 -3.46945e-18 0.00564128
0.412065 0.490263 3.08149e-33 0.00906631
0.350249 0.537164 -3.46945e-18 0.0104254
0.151552 0.623141 6.16298e-33 0.0175644
0.624584 0.149105 0 0.00463908
0.219992 0.605245 -3.46945e-18 0.0149175
0.624584 0.162069 0 0.00469524
0.075776 0.641968 0 0.0203793
0.467897 0.447168 -3.46945e-18 0.0076135
0.523729 0.381809 0 0.00671916
0.624584 0.175708 0 0.00474835
0.574156 0.303526 3.46945e-18 0.00568094
0.624584 0.190058 0 0.00479879
0.288433 0.58735 0 0.0126027
0.624584 0.205155 -3.08149e-33 0.00484683
0.574156 0.324533 0 0.00571517
0 0.660796 0 0.0146267
0.624584 0.221039 0 0.00489266
0.523729 0.406893 0 0.00670448
0.412065 0.520997 -3.70076e-18 0.00897728
0.467897 0.475657 0 0.00757765
0.624584 0.23775 3.08149e-33 0.00493651
0.350249 0.57034 0 0.010301
0.67013 0.00259889 0 1.45268e-06
0.67013 0.00793204 0 1.51559e-05
0.67013 0.013543 -3.46945e-18 3.91096e-05
0.67013 0.0194462 -3.46945e-18 7.90559e-05
0.67013 0.0256568 3.46945e-18 0.000171964
0.574156 0.346635 3.46945e-18 0.00574272
0.67013 0.032191 0 0.00037282
0.67013 0.0390655 3.46945e-18 0.000677518
0.67013 0.0462981 0 0.00111255
0.67013 0.0539073 3.46945e-18 0.00168009
0.67013 0.0619129 0 0.00236961
0.67013 0.0703355 -3.46945e-18 0.00315291
0.624584 0.255331 0 0.00497873
0.67013 0.0791968 -3.46945e-18 0.00357011
0.67013 0.0885196 3.46945e-18 0.00369033
0.67013 0.0983282 -3.46945e-18 0.00379142
0.151552 0.660796 0 0.0172345
0.219992 0.641968 -3.46945e-18 0.0145994
0.67013 0.108648 -3.46945e-18 0.00387816
0.523729 0.433285 6.16298e-33 0.0066873
0.67013 0.119504 3.46945e-18 0.00395132
0.624584 0.273828 0 0.00501953
0.67013 0.130926 0 0.0040157
0.574156 0.369887 0 0.00576292
0.075776 0.680604 0 0.0200072
0.67013 0.142944 0 0.00407402
0.685312 0.0106663 -7.70372e-34 2.75738e-05
0.288433 0.623141 0 0.0123891
0.67013 0.155587 3.46945e-18 0.00412764
0.467897 0.50563 3.46945e-18 0.0075495
0.412065 0.553331 3.08149e-33 0.00890339
0.624584 0.293289 0 0.0050584
0.67013 0.168888 0 0.00417751
0.67013 0.182883 0 0.00422432
0.574157 0.394351 0 0.00577613
0.523729 0.461051 0 0.00667247
0.67013 0.197606 0 0.00426861
0.624584 0.313763 0 0.00509409
0.350249 0.605245 0 0.0101992
0 0.700412 0 0.0143669
0.67013 0.213097 -3.46945e-18 0.00431084
0.67013 0.229395 -3.46945e-18 0.00435141
0.624584 0.335303 0 0.00512552
0.574156 0.420089 -3.46945e-18 0.00578453
0.467897 0.537164 3.46945e-18 0.00752933
0.67013 0.24654 -3.46945e-18 0.00439067
0.219993 0.680604 3.46945e-18 0.0143267
0.715676 4.80891e-19 0 1.41463e-22
0.715676 0.00519778 0 8.21997e-06
0.715676 0.0106663 1.54074e-33 2.81162e-05
0.715676 0.0164197 1.54074e-33 5.91818e-05
0.715676 0.0224727 -3.08149e-33 0.000118854
0.715676 0.028841 0 0.000243612
0.715676 0.035541 0 0.000474172
0.151552 0.700412 0 0.0169238
0.715676 0.04259 0 0.000821731
0.523729 0.490263 0 0.00666263
0.715676 0.0500061 1.54074e-33 0.00128451
0.412065 0.58735 -3.70076e-18 0.00884524
0.715676 0.0578085 0 0.0018666
0.715676 0.0660173 1.54074e-33 0.00254798
0.715676 0.0746537 0 0.00306502
0.624584 0.357966 0 0.00515195
0.67013 0.264579 0 0.00442889
0.715676 0.0837399 0 0.00328033
0.288433 0.660796 0 0.0122108
0.715676 0.0932994 0 0.00339106
0.715676 0.103357 1.54074e-33 0.00348408
0.715676 0.113938 1.54074e-33 0.00356217
0.075776 0.721251 0 0.0196334
0.685312 0.23775 -7.70372e-34 0.00430896
0.715676 0.12507 0 0.00362908
0.67013 0.283558 -3.46945e-18 0.00446602
0.574156 0.447168 -3.46945e-18 0.00579154
0.715676 0.136783 0 0.00368838
0.715676 0.149105 0 0.00374199
0.350249 0.641968 -3.46945e-18 0.0101198
0.624584 0.381809 0 0.00517319
0.715676 0.162069 0 0.00379113
0.67013 0.303526 0 0.0045016
0.715676 0.175708 1.54074e-33 0.0038367
0.467897 0.57034 3.46945e-18 0.00751787
0.523729 0.520997 0 0.00665886
0.715676 0.190058 0 0.00387939
0 0.742091 0 0.0141012
0.715676 0.205155 -3.70074e-18 0.00391974
0.67013 0.324533 -6.93889e-18 0.00453492
0.624584 0.406893 0 0.00519003
0.574156 0.475657 0 0.0058006
0.412065 0.623141 -3.70076e-18 0.00880335
0.715676 0.221039 1.54074e-33 0.00395821
0.219993 0.721251 0 0.0140928
0.715676 0.23775 1.54074e-33 0.00399518
0.67013 0.346634 0 0.00456536
0.756813 0.00259889 -3.46945e-18 1.04306e-06
0.756813 0.00793204 0 1.52365e-05
0.756813 0.013543 -3.46945e-18 4.28814e-05
0.756814 0.0164197 0 5.98755e-05
0.756813 0.0194462 -3.46945e-18 7.56754e-05
0.756813 0.0256568 -3.46945e-18 0.000149295
0.151552 0.742091 0 0.0166328
0.288433 0.700412 0 0.0120636
0.756813 0.032191 -3.46945e-18 0.000282841
0.756814 0.0390655 -3.46945e-18 0.00056789
0.756814 0.046298 -3.46945e-18 0.00093527
0.756814 0.0539073 3.46945e-18 0.00141975
0.756814 0.0619129 0 0.00201054
0.715676 0.255331 1.54074e-33 0.00403095
0.756813 0.0703355 -6.93889e-18 0.00267714
0.624584 0.433285 -3.70071e-18 0.00520443
0.756814 0.0791968 -3.46945e-18 0.00288518
0.523729 0.553331 -6.16298e-33 0.00666176
0.756813 0.0885197 0 0.00300545
0.756813 0.0983282 -6.93889e-18 0.00310677
0.756813 0.108647 3.46945e-18 0.00318974
0.467897 0.605246 3.46945e-18 0.00751624
0.574156 0.50563 0 0.00581362
0.67013 0.369887 0 0.00459249
0.350249 0.680604 -3.46945e-18 0.0100617
0.756813 0.119504 -3.46945e-18 0.00325937
0.715676 0.273828 0 0.00406565
0.075776 0.764016 0 0.0192647
0.756813 0.130927 -3.46945e-18 0.00332001
0.756813 0.142944 -3.46945e-18 0.00337399
0.756813 0.155587 -6.93889e-18 0.0034227
0.715676 0.293289 0 0.00409916
0.743101 0.221039 -7.70372e-34 0.00375429
0.756813 0.168888 3.46945e-18 0.00346726
0.624584 0.461051 0 0.00521894
0.67013 0.394351 -3.46945e-18 0.00461631
0.756813 0.182883 -6.93889e-18 0.00350851
0.412065 0.660796 -3.70076e-18 0.00877782
0.715676 0.313763 0 0.00413112
0.756813 0.197606 -3.46945e-18 0.00354712
0 0.785942 0 0.0138364
0.756813 0.213097 -3.46945e-18 0.0035836
0.574156 0.537164 3.46945e-18 0.00583142
0.523729 0.58735 0 0.00667216
0.715676 0.335303 0 0.00416107
0.756813 0.229394 0 0.00361838
0.67013 0.420089 -3.46945e-18 0.00463752
0.624584 0.490263 0 0.00523579
0.467897 0.641969 3.46945e-18 0.00752542
0.219992 0.764017 -3.46945e-18 0.0138931
0.756813 0.24654 0 0.00365184
0.288433 0.742091 0 0.0119445
0.797951 9.61782e-19 -3.08149e-33 2.19235e-22
0.797951 0.00519778 -3.08149e-33 7.97403e-06
0.797951 0.0106663 -3.08149e-33 3.01756e-05
0.797951 0.0145019 7.70372e-34 5.04381e-05
0.797951 0.0164197 0 6.05693e-05
0.797951 0.0184374 7.70372e-34 7.6196e-05
0.797951 0.0224727 -3.08149e-33 0.000107449
0.797951 0.028841 0 0.000198205
0.797951 0.035541 -3.08149e-33 0.000391033
0.797951 0.04259 0 0.000695601
0.797951 0.0500061 0 0.00109253
0.797951 0.0578085 -3.08149e-33 0.00159442
0.715676 0.357966 0 0.00418865
0.151552 0.785942 0 0.0163626
0.797951 0.0660173 0 0.00215957
0.797951 0.0746537 -3.08149e-33 0.0025447
0.756814 0.264579 -3.46945e-18 0.00368419
0.350249 0.721251 0 0.0100239
0.797951 0.0837399 0 0.00270105
0.797951 0.0932994 -3.08149e-33 0.00281196
0.797951 0.103357 0 0.00290349
0.67013 0.447168 -3.46945e-18 0.0046577
0.797951 0.113938 -3.08149e-33 0.00297926
0.797951 0.12507 -3.08149e-33 0.00304392
0.756813 0.283558 -3.46945e-18 0.00371549
0.574156 0.57034 3.46945e-18 0.0058546
0.797951 0.136783 -3.08149e-33 0.00310059
0.715676 0.381809 0 0.00421369
0.797951 0.149105 -3.08149e-33 0.00315108
0.075776 0.809009 0 0.0189075
0.412065 0.700412 -3.70076e-18 0.00876856
0.624584 0.520997 0 0.00525635
0.523729 0.623141 0 0.00669103
0.797951 0.162069 -3.08149e-33 0.00319665
0.756813 0.303526 -3.46945e-18 0.0037457
0.797951 0.175708 3.70076e-18 0.00323829
0.797951 0.190058 3.70076e-18 0.00327675
0.67013 0.475657 -3.46945e-18 0.00467871
0.715676 0.406893 0 0.00423646
0.756813 0.324533 3.46945e-18 0.00377456
0.797951 0.205155 -3.70074e-18 0.00331264
0.797951 0.21045 -7.70372e-34 0.00332391
0.467897 0.680604 3.46945e-18 0.00754621
0.797951 0.221039 3.08149e-33 0.00334644
0.797951 0.229395 0 0.00336251
0 0.832077 0 0.0135787
0.756813 0.346634 -3.46945e-18 0.00380183
0.797951 0.23775 3.70076e-18 0.00337857
0.574156 0.605245 0 0.005884
0.624584 0.553331 -6.16298e-33 0.00528137
0.835106 0.00259889 3.46945e-18 7.18161e-07
0.835106 0.00793204 -3.46945e-18 1.49122e-05
0.835106 0.013543 3.46945e-18 4.75907e-05
0.835106 0.0164197 0 6.21159e-05
0.835106 0.0194462 3.46945e-18 7.60354e-05
0.835106 0.0256568 0 0.00012918
0.835106 0.032191 0 0.000232872
0.835106 0.0390655 3.46945e-18 0.000483162
0.835106 0.046298 -3.46945e-18 0.000800367
0.715676 0.433285 -3.70074e-18 0.0042578
0.835106 0.0539073 0 0.00122123
0.835106 0.0578085 0 0.00148637
0.288433 0.785942 0 0.0118516
0.835106 0.0619129 -3.46945e-18 0.00173536
0.797951 0.255331 -3.70074e-18 0.00340933
0.835106 0.0703355 3.46945e-18 0.00222928
0.219992 0.80901 0 0.0137244
0.835106 0.0791968 -3.46945e-18 0.00240508
0.67013 0.50563 0 0.00470228
0.835106 0.0885196 0 0.00252695
0.350249 0.764016 6.93889e-18 0.0100062
0.835106 0.0983282 3.46945e-18 0.00262709
0.835106 0.108647 -3.46945e-18 0.00270882
0.756814 0.369887 3.46945e-18 0.0038273
0.523729 0.660796 0 0.00671933
0.835106 0.119504 -6.93889e-18 0.00277761
0.797951 0.273828 3.70076e-18 0.00343891
0.835106 0.130926 0 0.00283721
0.151552 0.832077 0 0.0161151
0.835106 0.142944 -6.93889e-18 0.00288971
0.822721 0.205155 -7.70372e-34 0.00317042
0.412065 0.742091 -3.70076e-18 0.00877571
0.835106 0.155587 3.46945e-18 0.00293652
0.797951 0.293289 3.70076e-18 0.00346737
0.715676 0.461051 0 0.00427911
0.835106 0.168888 -3.46945e-18 0.00297877
0.756813 0.394351 -3.46945e-18 0.00385098
0.835106 0.182883 -3.46945e-18 0.00301733
0.624584 0.58735 -3.70076e-18 0.00531152
0.797951 0.313763 3.70076e-18 0.00349462
0.835106 0.197606 -3.46945e-18 0.00305285
0.67013 0.537164 3.46945e-18 0.00472942
0.075776 0.856345 0 0.0185681
0.467897 0.721251 3.46945e-18 0.00757932
0.574156 0.641968 0 0.00592061
0.835106 0.213097 0 0.00308589
0.835106 0.221039 0 0.00313146
0.797951 0.335303 3.70076e-18 0.00352051
0.756814 0.420089 -3.46945e-18 0.0038732
0.835106 0.229395 -3.46945e-18 0.00311691
0.715676 0.490263 0 0.00430192
0.835106 0.24654 -6.93889e-18 0.00314628
0.872262 9.61782e-19 -3.08149e-33 1.43142e-22
0.872262 0.00519778 -3.08149e-33 7.59676e-06
0.872262 0.0106663 -3.08149e-33 3.22833e-05
0.872262 0.0164197 0 6.36624e-05
0.872262 0.0224727 -3.08149e-33 0.000100457
0.872262 0.028841 1.54074e-33 0.000169793
0.872262 0.035541 0 0.00032185
0.872262 0.04259 1.54074e-33 0.000585967
0.872262 0.0500061 -3.08149e-33 0.000940858
0.872262 0.0539073 0 0.00115959
0.872262 0.0578085 3.08149e-33 0.00137832
0.872262 0.0619129 0 0.00160582
0.797951 0.357966 3.70076e-18 0.003545
0.523729 0.700412 0 0.00675793
0.872262 0.0660173 -3.08149e-33 0.00183331
0.872262 0.0746537 -3.08149e-33 0.00213603
0.835106 0.264579 3.46945e-18 0.00317428
0.872262 0.0837399 -3.08149e-33 0.00228659
0.872262 0.0932994 0 0.00239856
0.872262 0.103357 -3.08149e-33 0.00248943
0.756813 0.447168 -6.93889e-18 0.00389478
0.872262 0.113938 -3.08149e-33 0.00256466
0.67013 0.57034 0 0.00476071
0 0.880614 0 0.0133338
0.288433 0.832077 0 0.0117838
0.872262 0.12507 -3.08149e-33 0.00262876
0.350249 0.809009 0 0.0100086
0.835106 0.283559 0 0.00320108
0.624584 0.623141 -3.70076e-18 0.00534765
0.872262 0.136783 -3.08149e-33 0.00268453
0.219992 0.856345 -3.46945e-18 0.0135849
0.797951 0.381809 3.70076e-18 0.00356809
0.872262 0.149105 -3.08149e-33 0.00273372
0.872262 0.162069 3.70076e-18 0.00277758
0.412065 0.785942 -3.70076e-18 0.00879971
0.835107 0.303526 -3.46945e-18 0.00322672
0.872262 0.175708 3.70076e-18 0.0028171
0.574157 0.680604 0 0.00596542
0.872262 0.190058 3.70076e-18 0.00285303
0.151552 0.880614 0 0.0158926
0.723512 0.524461 4.40213e-34 0.00427621
0.756813 0.475657 3.46945e-18 0.00391709
0.872262 0.197607 0 0.00286951
0.797951 0.406893 -3.08149e-33 0.00358988
0.467897 0.764016 0 0.00762567
0.835106 0.324533 -6.93889e-18 0.00325114
0.872262 0.205155 3.08149e-33 0.00288599
0.872262 0.213097 0 0.00290123
0.872262 0.221039 -3.08149e-33 0.00291648
0.685312 0.58735 -7.70372e-34 0.00469659
0.67013 0.605246 -3.46945e-18 0.00479684
0.872262 0.23775 3.70076e-18 0.00294492
0.835106 0.346634 -3.46945e-18 0.00327427
0.715676 0.553331 -3.08149e-33 0.0043562
0.905821 0.00259889 0 4.52963e-07
0.90582 0.00793204 -3.46945e-18 1.43196e-05
0.90582 0.013543 -3.46945e-18 5.22459e-05
0.90582 0.0194462 -3.46945e-18 7.86578e-05
0.90582 0.0256568 -3.46945e-18 0.000118102
0.90582 0.032191 0 0.000199778
0.90582 0.0390655 -6.93889e-18 0.000374024
0.90582 0.0462981 0 0.000690075
0.90582 0.0539073 0 0.00105648
0.90582 0.0619129 0 0.00150696
0.797951 0.433285 -3.70074e-18 0.00361079
0.523729 0.742091 0 0.00680782
0.90582 0.0703355 0 0.00187164
0.872262 0.255331 3.70076e-18 0.00297161
0.624584 0.660796 0 0.0053907
0.90582 0.0791968 0 0.0020502
0.075776 0.906147 0 0.0182527
0.905821 0.0885197 3.46945e-18 0.00217605
0.756813 0.50563 -3.46945e-18 0.00394124
0.90582 0.0983282 3.46945e-18 0.00227603
0.90582 0.108647 -3.46945e-18 0.00235766
0.835106 0.369887 0 0.00329642
0.90582 0.119504 0 0.0024264
0.872262 0.273828 -3.70074e-18 0.00299675
0.90582 0.130927 -3.46945e-18 0.00248564
0.90582 0.142944 0 0.00253741
0.90582 0.155587 0 0.0025831
0.872262 0.293289 3.70076e-18 0.00302052
0.715676 0.578845 1.54074e-33 0.0043809
0.90582 0.168888 -3.46945e-18 0.00262382
0.797951 0.461051 3.70076e-18 0.00363171
0.574156 0.721251 0 0.0060195
0.835106 0.394351 -3.46945e-18 0.00331752
0.90582 0.182883 0 0.00266041
0.350249 0.856345 3.46945e-18 0.0100316
0.715676 0.58735 0 0.00438913
0.925956 0.0164197 7.70372e-34 6.70718e-05
0.685312 0.623141 -7.70372e-34 0.00473381
0.925956 0.035541 7.70372e-34 0.00027661
0.288433 0.880614 0 0.0117408
0.872262 0.313763 3.70076e-18 0.00304305
0.90582 0.197606 -3.46945e-18 0.00269353
0.67013 0.641968 -3.46945e-18 0.00483867
0.756813 0.537164 6.93889e-18 0.00396799
0.412065 0.832077 -3.70076e-18 0.00884147
0.905821 0.213097 0 0.00272374
0 0.93168 0 0.0131072
0.219992 0.906147 0 0.0134739
0.931922 0.0578085 0 0.00122871
0.90582 0.229395 0 0.0027515
0.872262 0.335303 3.70076e-18 0.00306437
0.467897 0.809009 3.46945e-18 0.00768648
0.835106 0.420089 -6.93889e-18 0.00333768
0.931922 0.0837399 -1.92593e-33 0.00202106
0.797951 0.490263 3.70076e-18 0.00365367
0.624584 0.700412 0 0.00544171
0.905821 0.24654 -3.46945e-18 0.0027772
0.939379 0 0 0
0.939379 0.00519778 0 7.43367e-06
0.939379 0.0106663 0 3.48378e-05
0.939379 0.013543 0 5.13809e-05
0.939379 0.0164197 0 6.79241e-05
0.939379 0.0194462 0 8.30726e-05
0.939379 0.0224727 0 9.82212e-05
0.939379 0.028841 0 0.000153462
0.939379 0.035541 2.31296e-18 0.000265301
0.939379 0.04259 0 0.000487397
0.939379 0.0500061 0 0.000816857
0.939379 0.0578085 0 0.00121001
0.939379 0.0660173 0 0.00158251
0.939379 0.0746537 0 0.00183346
0.872262 0.357966 3.70076e-18 0.00308454
0.939379 0.0837399 2.31296e-18 0.00198787
0.90582 0.264579 -6.93889e-18 0.00280104
0.151552 0.93168 0 0.015698
0.939379 0.0932994 0 0.00210276
0.523729 0.785942 -3.70076e-18 0.00687018
0.797951 0.50563 0 0.00366559
0.939379 0.103357 0 0.00219446
0.931922 0.162069 0 0.00251459
0.939379 0.113938 0 0.0022702
0.835106 0.447168 0 0.00335739
0.756813 0.57034 0 0.00399806
0.939379 0.12507 0 0.00233451
0.715676 0.623141 0 0.00442689
0.90582 0.283559 0 0.00282309
0.939379 0.136783 0 0.00239011
0.939379 0.149105 0 0.00243875
0.872262 0.381809 3.70076e-18 0.00310365
0.797951 0.520997 -3.70076e-18 0.00367752
0.939379 0.162069 0 0.00248171
0.67013 0.680604 0 0.00488715
0.90582 0.303526 0 0.00284379
0.939379 0.175708 0 0.00251997
0.574156 0.764016 3.46945e-18 0.00608401
0.939379 0.190058 0 0.00255428
0.835106 0.475657 0 0.00337746
0.939379 0.205155 0 0.00258527
0.075776 0.958542 0 0.0179675
0.905821 0.324533 -3.46945e-18 0.0028633
0.872262 0.406893 3.70076e-18 0.00312179
0.939379 0.221039 0 0.00261343
0.939379 0.23775 0 0.00263912
0.756813 0.605245 -3.46945e-18 0.00403215
0.969689 0.00259889 -3.46945e-18 3.09242e-07
0.96969 0.00793204 0 1.46516e-05
0.969689 0.013543 0 5.80485e-05
0.90582 0.346634 -3.46945e-18 0.00288163
0.96969 0.0194462 0 8.26042e-05
0.624584 0.742091 0 0.00550181
0.969689 0.0256568 0 0.000113535
0.96969 0.032191 0 0.00018276
0.96969 0.0390655 3.46945e-18 0.000305915
0.969689 0.046298 0 0.000582211
0.797951 0.553331 0 0.00370404
0.969689 0.0539073 0 0.000942
0.350249 0.906147 -3.46945e-18 0.0100764
0.969689 0.0619129 0 0.00133883
0.969689 0.0703355 0 0.00161885
0.412065 0.880614 -3.70076e-18 0.00890228
0.96969 0.0791968 0 0.00180055
0.939379 0.255331 0 0.00266257
0.96969 0.0885196 0 0.00193197
0.872262 0.433285 3.70076e-18 0.0031393
0.715676 0.660796 0 0.00447035
0.96969 0.0983282 0 0.00203413
0.288433 0.93168 0 0.0117234
0.969689 0.108647 0 0.00211711
0.467897 0.856345 6.93889e-18 0.00776331
0.835106 0.50563 -3.46945e-18 0.00339873
0.969689 0.119504 0 0.0021867
0.905821 0.369887 0 0.00289882
0.939379 0.273828 -2.31296e-18 0.00268402
0.969689 0.130926 0 0.00224632
0.969689 0.142944 0 0.00229808
0.969689 0.155587 0 0.00234343
0.523729 0.832077 0 0.00694652
0.219992 0.958542 0 0.0133918
0.939379 0.293289 0 0.00270383
0.96969 0.168888 0 0.00238351
0.67013 0.721251 3.46945e-18 0.00494336
0 0.985405 0 0.012904
0.797951 0.578845 -1.54074e-33 0.00372644
0.872262 0.461051 3.70076e-18 0.00315677
0.969689 0.182883 0 0.00241917
0.905821 0.394351 -3.46945e-18 0.00291492
0.969689 0.197607 0 0.00245108
0.939379 0.313763 -2.31296e-18 0.00272233