# nutMean  POINT_DATA 38414
# x  y  z  nutMean
0 0.5 0 0.015501
0 0.5 -0.0316815 0.0155118
0 0.5 0.0316815 0.0155126
0 0.5 -0.0683185 0.0154572
0 0.5 0.0683185 0.0154588
0.075776 0.5 0.05 0.0202568
0.075776 0.5 -0.05 0.0202544
0 0.5 0.1 0.0153562
0 0.5 -0.1 0.0153537
0 0.5 -0.131682 0.0152716
0 0.5 0.131682 0.0152749
0.151552 0.5 0 0.0189389
0.075776 0.5 0.15 0.0199933
0.075776 0.5 -0.15 0.0198288
0 0.5 -0.168318 0.0151021
0 0.5 0.168318 0.0151062
0.151552 0.5 0.1 0.0188304
0.151552 0.5 -0.1 0.0188274
0 0.5 0.2 0.0149022
0 0.5 -0.2 0.0148976
0.219992 0.5 0.05 0.0162533
0.219992 0.5 -0.05 0.0162525
0 0.5 0.231682 0.0147171
0 0.5 -0.231682 0.0147121
0.151552 0.5 0.2 0.0184126
0.151552 0.5 -0.2 0.0184074
0.075776 0.5 0.25 0.0192184
0.075776 0.5 -0.25 0.0192115
0.219992 0.5 0.15 0.0160722
0.219992 0.5 -0.15 0.0158149
0 0.5 0.268318 0.0144656
0 0.5 -0.268318 0.0144602
0.288433 0.5 0 0.0133931
0 0.5 0.3 0.0142255
0 0.5 -0.3 0.0142198
0.288433 0.5 0.1 0.0133576
0.288433 0.5 -0.1 0.0133564
0 0.5 0.331682 0.0140011
0 0.5 -0.331682 0.0139951
0.219992 0.5 0.25 0.0157113
0.219992 0.5 -0.25 0.0157068
0.151552 0.5 0.3 0.0177384
0.151552 0.5 -0.3 0.0177318
0.288433 0.5 0.2 0.0132335
0.288433 0.5 -0.2 0.0132313
0.350249 0.5 0.05 0.0108037
0.350249 0.5 -0.05 0.0108035
0.075776 0.5 -0.35 0.0182708
0.075776 0.5 0.35 0.0182788
0 0.5 0.368318 0.0137297
0 0.5 -0.368318 0.0137236
0.350249 0.5 0.15 0.0108221
0.350249 0.5 -0.15 0.0106862
0 0.5 0.4 0.013494
0 0.5 -0.4 0.0134879
0.412065 0.5 1.85037e-17 0.00903811
0.219992 0.5 0.35 0.0152789
0.219992 0.5 -0.35 0.0152735
0.288433 0.5 0.3 0.0130574
0.288433 0.5 -0.3 0.0130544
0.412065 0.5 0.1 0.00906261
0.412065 0.5 -0.1 0.00906233
0.151552 0.5 0.4 0.0170025
0.151552 0.5 -0.4 0.0169953
0.350249 0.5 0.25 0.0108126
0.350249 0.5 -0.25 0.0108119
0 0.5 0.431682 0.0132709
0 0.5 -0.431682 0.0132648
0.075776 0.5 0.45 0.017346
0.075776 0.5 -0.45 0.017338
0.412065 0.5 -0.2 0.00911565
0.412065 0.5 0.2 0.00911606
0 0.5 -0.468318 0.0130114
0 0.5 0.468318 0.0130174
0.467897 0.5 0.05 0.00765545
0.467897 0.5 -0.05 0.00765543
0.467897 0.5 0.15 0.00771113
0.467897 0.5 -0.15 0.00765038
0.288433 0.5 0.4 0.0128772
0.288433 0.5 -0.4 0.0128734
0.350249 0.5 -0.35 0.0108422
0.350249 0.5 0.35 0.010844
0 0.5 0.5 0.0128099
0 0.5 -0.5 0.0128039
0.219992 0.5 -0.45 0.0148186
0.219992 0.5 0.45 0.0148244
0.412065 0.5 0.3 0.00919575
0.412065 0.5 -0.3 0.00919506
0.151552 0.5 0.5 0.0162999
0.151552 0.5 -0.5 0.0162926
0.523729 0.5 0 0.00666143
0.467897 0.5 0.25 0.00781081
0.467897 0.5 -0.25 0.00781044
0 0.5 -0.531682 0.0126065
0 0.5 0.531682 0.0126125
0.523729 0.5 0.1 0.0066907
0.523729 0.5 -0.1 0.00669065
0.075776 0.5 0.55 0.0165185
0.075776 0.5 -0.55 0.0165107
0.523729 0.5 0.2 0.00677317
0.523729 0.5 -0.2 0.00677302
0 0.5 0.568318 0.0123975
0 0.5 -0.568318 0.0123916
0.350249 0.5 0.45 0.0108894
0.350249 0.5 -0.45 0.0108872
0.412065 0.5 0.4 0.00931394
0.412065 0.5 -0.4 0.00931273
0.574156 0.5 0.05 0.00586132
0.574156 0.5 -0.05 0.00586132
0.288433 0.5 0.5 0.0127068
0.288433 0.5 -0.5 0.0127028
0.467897 0.5 0.35 0.00794112
0.467897 0.5 -0.35 0.00794054
0.219992 0.5 0.55 0.0144052
0.219992 0.5 -0.55 0.0143993
0.574156 0.5 0.15 0.00591784
0.574156 0.5 -0.15 0.00588704
0 0.5 0.6 0.0122293
0 0.5 -0.6 0.0122236
0.523729 0.5 0.3 0.00690064
0.523729 0.5 -0.3 0.00690032
0.151552 0.5 0.6 0.0156942
0.151552 0.5 -0.6 0.0156871
0.624584 0.5 0 0.00524231
0.574156 0.5 0.25 0.00602368
0.574156 0.5 -0.25 0.00602357
0 0.5 0.631682 0.012069
0 0.5 -0.631682 0.0120634
0.624584 0.5 0.1 0.00526962
0.624584 0.5 -0.1 0.00526962
0.412065 0.5 0.5 0.0094681
0.412065 0.5 -0.5 0.00946662
0.467897 0.5 0.45 0.00812169
0.467897 0.5 -0.45 0.00812091
0.350249 0.5 0.55 0.0109627
0.350249 0.5 -0.55 0.0109602
0.075776 0.5 0.65 0.0158448
0.075776 0.5 -0.65 0.0158375
0.624584 0.5 0.2 0.00534787
0.624584 0.5 -0.2 0.00534784
0.523729 0.5 0.4 0.00706764
0.523729 0.5 -0.4 0.00706717
0.288433 0.5 0.6 0.0125749
0.288433 0.5 -0.6 0.0125706
0 0.5 -0.668318 0.0118952
0 0.5 0.668318 0.0119006
0.67013 0.5 0.05 0.00472722
0.67013 0.5 -0.05 0.00472723
0.574156 0.5 0.35 0.00618121
0.574156 0.5 -0.35 0.00618092
0.219992 0.5 0.65 0.0140571
0.219992 0.5 -0.65 0.0140513
0.67013 0.5 0.15 0.00477859
0.67013 0.5 -0.15 0.00476175
0.624584 0.5 0.3 0.00547715
0.624584 0.5 -0.3 0.00547702
0 0.5 0.7 0.0117744
0 0.5 -0.7 0.0117692
0.67013 0.5 0.25 0.00487654
0.67013 0.5 -0.25 0.00487652
0.715676 0.5 -9.25186e-18 0.00430998
0.151552 0.5 0.7 0.0152157
0.151552 0.5 -0.7 0.0152091
0.467897 0.5 -0.55 0.00834888
0.467897 0.5 0.55 0.00834982
0.715676 0.5 0.1 0.00433445
0.715676 0.5 -0.1 0.00433448
0.523729 0.5 0.5 0.007282
0.523729 0.5 -0.5 0.00728145
0.412065 0.5 0.6 0.0096598
0.412065 0.5 -0.6 0.00965808
0.574156 0.5 0.45 0.00636541
0.574156 0.5 -0.45 0.0063651
0 0.5 0.731682 0.0116546
0 0.5 -0.731682 0.0116496
0.350249 0.5 0.65 0.0110693
0.350249 0.5 -0.65 0.0110666
0.624584 0.5 0.4 0.00564277
0.624584 0.5 -0.4 0.00564267
0.715676 0.5 -0.2 0.00440509
0.715676 0.5 0.2 0.00440507
0.075776 0.5 0.75 0.015339
0.075776 0.5 -0.75 0.0153324
0.67013 0.5 0.35 0.00502468
0.67013 0.5 -0.35 0.00502458
0.288433 0.5 0.7 0.012497
0.288433 0.5 -0.7 0.0124927
0.756813 0.5 0.05 0.00395608
0.756813 0.5 -0.05 0.0039561
0 0.5 0.768318 0.0115349
0 0.5 -0.768318 0.0115301
0.756813 0.5 0.15 0.00400187
0.756813 0.5 -0.15 0.00399274
0.715676 0.5 0.3 0.00452307
0.715676 0.5 -0.3 0.00452308
0.219992 0.5 -0.75 0.013795
0.219992 0.5 0.75 0.0138006
0.574156 0.5 0.55 0.00661021
0.574157 0.5 -0.55 0.00660985
0.523729 0.5 0.6 0.00754933
0.523729 0.5 -0.6 0.00754865
0.756813 0.5 0.25 0.00408981
0.756814 0.5 -0.25 0.00408984
0.797951 0.5 -6.77919e-18 0.00366122
0 0.5 0.8 0.0114507
0 0.5 -0.8 0.0114461
0.624584 0.5 0.5 0.00585046
0.624584 0.5 -0.5 0.00585036
0.467897 0.5 0.65 0.00862174
0.467897 0.5 -0.65 0.00862059
0.797951 0.5 0.1 0.00368295
0.797951 0.5 -0.1 0.00368298
0.67013 0.5 0.45 0.00519576
0.67013 0.5 -0.45 0.00519596
0.412065 0.5 0.7 0.00988844
0.412065 0.5 -0.7 0.0098865
0.151552 0.5 0.8 0.0148765
0.151552 0.5 -0.8 0.0148705
0.715676 0.5 0.4 0.00467508
0.715676 0.5 -0.4 0.00467505
0.797951 0.5 -0.2 0.00374618
0.797951 0.5 0.2 0.00374613
0.350249 0.5 0.75 0.0112134
0.350249 0.5 -0.75 0.0112104
0 0.5 0.831682 0.0113706
0 0.5 -0.831682 0.0113661
0.756813 0.5 0.35 0.00422404
0.756814 0.5 -0.35 0.00422414
0.835106 0.5 -0.05 0.00340649
0.835106 0.5 0.05 0.00340647
0.835106 0.5 -0.15 0.00344174
0.835106 0.5 0.15 0.00344707
0.288433 0.5 0.8 0.0124826
0.288433 0.5 -0.8 0.0124784
0.797951 0.5 0.3 0.00385119
0.797951 0.5 -0.3 0.00385127
0.075776 0.5 0.85 0.0147087
0.075776 0.5 -0.85 0.0149954
0.624584 0.5 0.6 0.00611694
0.624584 0.5 -0.6 0.00611668
0.67013 0.5 0.55 0.00542824
0.67013 0.5 -0.55 0.00542812
0.574156 0.5 0.65 0.00690718
0.574156 0.5 -0.65 0.00690671
0 0.5 0.868318 0.0112988
0 0.5 -0.868318 0.0112946
0.835106 0.5 0.25 0.00352583
0.835106 0.5 -0.25 0.00352589
0.872262 0.5 -1.85037e-17 0.00318112
0.715676 0.5 0.5 0.00486659
0.715676 0.5 -0.5 0.0048665
0.523729 0.5 0.7 0.00786326
0.523729 0.5 -0.7 0.00786246
0.872262 0.5 0.1 0.00320012
0.872262 0.5 -0.1 0.00320016
0.219992 0.5 0.85 0.0137067
0.219992 0.5 -0.85 0.0136393
0.756813 0.5 -0.45 0.00438121
0.756814 0.5 0.45 0.00438154
0.467897 0.5 0.75 0.00893545
0.467897 0.5 -0.75 0.00893418
0.797951 0.5 0.4 0.00399493
0.797951 0.5 -0.4 0.0039949
0.872262 0.5 0.2 0.00325605
0.872262 0.5 -0.2 0.00325611
0.412065 0.5 0.8 0.0101545
0.412065 0.5 -0.8 0.0101524
0 0.5 0.9 0.0112558
0 0.5 -0.9 0.0112518
0.835106 0.5 0.35 0.00364443
0.835106 0.5 -0.35 0.00364453
0.90582 0.5 0.05 0.00298653
0.90582 0.5 -0.05 0.00298654
0.151552 0.5 0.9 0.0146792
0.151552 0.5 -0.9 0.0146738
0.90582 0.5 -0.15 0.00302065
0.905821 0.5 0.15 0.00302197
0.350249 0.5 0.85 0.0115085
0.350249 0.5 -0.85 0.0113958
0.872262 0.5 0.3 0.00334824
0.872262 0.5 -0.3 0.00334832
0 0.5 0.931682 0.0112129
0 0.5 -0.931682 0.0112092
0.67013 0.5 0.65 0.0057121
0.67013 0.5 -0.65 0.00571191
0.715676 0.5 0.6 0.00511443
0.715676 0.5 -0.6 0.00511431
0.756813 0.5 0.55 0.00459209
0.756814 0.5 -0.55 0.00459199
0.624584 0.5 0.7 0.00643328
0.624584 0.5 -0.7 0.00643293
0.939379 0.5 0 0.00282947
0.90582 0.5 0.25 0.00309168
0.90582 0.5 -0.25 0.00309176
0.797951 0.5 0.5 0.0041703
0.797951 0.5 -0.5 0.00417019
0.574156 0.5 0.75 0.00737591
0.574156 0.5 -0.75 0.00725134
0.939379 0.5 0.1 0.0028468
0.939379 0.5 -0.1 0.00284684
0.288433 0.5 0.9 0.0125415
0.288433 0.5 -0.9 0.0125375
0.835106 0.5 0.45 0.00380672
0.835106 0.5 -0.45 0.00380678
0.075776 0.5 0.95 0.014826
0.075776 0.5 -0.95 0.014821
0.523729 0.5 0.8 0.0082216
0.523729 0.5 -0.8 0.00822068
0.872262 0.5 0.4 0.00348361
0.872262 0.5 -0.4 0.00348372
0.939379 0.5 0.2 0.00289798
0.939379 0.5 -0.2 0.00289805
0 0.5 -0.968318 0.0111825
0 0.5 0.968318 0.0111861
0.467897 0.5 0.85 0.0091946
0.467897 0.5 -0.85 0.00928852
0.969689 0.5 0.05 0.00269475
0.969689 0.5 -0.05 0.00269497
0.90582 0.5 -0.35 0.00319651
0.905821 0.5 0.35 0.0031964
0.219992 0.5 -0.95 0.0135877
0.219993 0.5 0.95 0.0135924
0.969689 0.5 0.15 0.00272864
0.969689 0.5 -0.15 0.00272744
0.939379 0.5 0.3 0.00298171
0.939379 0.5 -0.3 0.00298181
0.412065 0.5 0.9 0.0104642
0.412065 0.5 -0.9 0.0104619
0.756814 0.5 0.65 0.00483328
0.756814 0.5 -0.65 0.00485299
0.797951 0.5 0.6 0.00438951
0.797951 0.5 -0.6 0.00438946
0.835106 0.5 -0.55 0.0039819
0.835106 0.5 0.55 0.00404155
1 0.5 0 0.00255995
0 0.5 -1 0.0111792
0 0.5 1 0.0111826
0.715676 0.5 0.7 0.00541185
0.715676 0.5 -0.7 0.00541169
0.969689 0.5 0.25 0.00279491
0.969689 0.5 -0.25 0.002796
1 0.5 0.1 0.00257667
1 0.5 -0.1 0.00257672
0.872262 0.5 0.5 0.00364117
0.872262 0.5 -0.5 0.00364125
0.67013 0.5 0.75 0.00601224
0.67013 0.5 -0.75 0.00604482
0.151552 0.5 -1 0.0146174
0.151552 0.5 1 0.0146221
0.90582 0.5 0.45 0.0033464
0.90582 0.5 -0.45 0.00334654
0.350249 0.5 0.95 0.0116423
0.350249 0.5 -0.95 0.0116393
0.624584 0.5 -0.8 0.00679759
0.624584 0.5 0.8 0.00679804
1 0.5 0.2 0.00262703
1 0.5 -0.2 0.00262712
0.939379 0.5 0.4 0.00310387
0.939379 0.5 -0.4 0.00310401
0.574157 0.5 0.85 0.00764371
0.574156 0.5 -0.85 0.00764302
1.02554 0.5 0.0491395 0.00244112
1.02554 0.5 -0.0491395 0.00243615
0.969689 0.5 0.35 0.0028932
0.969689 0.5 -0.35 0.00289475
0 0.5 -1.03168 0.0111743
0 0.5 1.03168 0.0111774
1.02554 0.5 0.147419 0.00247303
1.02554 0.5 -0.147419 0.00246872
0.288433 0.5 -1 0.0126703
0.288433 0.5 1 0.012674
0.523729 0.5 0.9 0.00862397
0.523729 0.5 -0.9 0.00862292
1 0.5 0.3 0.00271092
1 0.5 -0.3 0.00271106
0.075776 0.5 1.05 0.0148107
0.075776 0.5 -1.05 0.0148066
1.02554 0.5 0.245697 0.00253986
1.02554 0.5 -0.245697 0.00254008
1.05773 0.5 -0.0167307 0.0022772
0.835106 0.5 0.65 0.00421661
0.835107 0.5 -0.65 0.00421659
0.872262 0.5 0.6 0.0038321
0.872262 0.5 -0.6 0.00383213
0.467897 0.5 0.95 0.00968853
0.467897 0.5 -0.95 0.00968699
0.90582 0.5 0.55 0.00349102
0.90582 0.5 -0.55 0.00349626
0.797951 0.5 0.7 0.00466359
0.797951 0.5 -0.7 0.00466354
1.05773 0.5 0.0961516 0.00229988
1.05773 0.5 -0.0961516 0.00229039
0.939379 0.5 0.5 0.00325564
0.939379 0.5 -0.5 0.00325578
0.756813 0.5 -0.75 0.00516373
0.756814 0.5 0.75 0.00516382
0 0.5 -1.06832 0.0111837
0 0.5 1.06832 0.0111866
0.969689 0.5 0.45 0.00306727
0.969689 0.5 -0.45 0.00303098
0.219992 0.5 1.05 0.0136503
0.219992 0.5 -1.05 0.0136462
0.715676 0.5 0.8 0.00575877
0.715676 0.5 -0.8 0.00575863
1.05773 0.5 0.192304 0.00233998
1.05773 0.5 -0.192304 0.00234139
1 0.5 0.4 0.00283062
1 0.5 -0.4 0.0028308
1.07643 0.5 0.0474523 0.00220071
1.07643 0.5 -0.0474523 0.00220073
0.412065 0.5 -1 0.0108139
0.412065 0.5 1 0.0108162
1.02554 0.5 0.343976 0.00263665
1.02554 0.5 -0.343976 0.00264165
0.67013 0.5 -0.85 0.00642721
0.67013 0.5 0.85 0.00642756
1.07643 0.5 0.142357 0.00222425
1.07643 0.5 -0.142357 0.0022243
1.08646 0.5 -0.0942357 0.00215658
1.09383 0.5 -1.96602e-17 0.00214008
0.624584 0.5 -0.9 0.00721014
0.624584 0.5 0.9 0.00721066
1.05773 0.5 0.288455 0.00241074
1.05773 0.5 -0.288455 0.00241009
1.09383 0.5 0.0894942 0.00213581
0 0.5 1.1 0.0112104
0 0.5 -1.1 0.0112076
1.08549 0.5 -0.187488 0.00219356
1.07643 0.5 0.237261 0.0022712
1.07643 0.5 -0.237261 0.0022713
0.350249 0.5 1.05 0.0119183
0.350249 0.5 -1.05 0.0119152
1.09383 0.5 0.186809 0.00216983
0.574156 0.5 0.95 0.00808161
0.574156 0.5 -0.95 0.00808085
0.151552 0.5 1.1 0.0146866
0.151552 0.5 -1.1 0.0146826
0.939379 0.5 0.6 0.00343558
0.939379 0.5 -0.6 0.00343566
0.969689 0.5 0.55 0.0032023
0.969689 0.5 -0.55 0.00320447
0.90582 0.5 -0.65 0.00371361
0.905821 0.5 0.65 0.00371354
1.02554 0.5 -0.442255 0.00278
1.02554 0.5 0.442255 0.0027721
1 0.5 0.5 0.0029862
1 0.5 -0.5 0.0029864
0.872262 0.5 -0.7 0.0040869
0.872262 0.5 0.7 0.00408687
0.835106 0.5 -0.75 0.00450708
0.835106 0.5 0.75 0.00450708
1.05773 0.5 0.384606 0.00250697
1.05773 0.5 -0.384606 0.00250896
1.12467 0.5 -0.0458442 0.00202886
1.12467 0.5 0.0458442 0.00204527
1.07643 0.5 0.332166 0.00234452
1.07643 0.5 -0.332166 0.00234467
0.523729 0.5 -1 0.00907157
0.523729 0.5 1 0.00907276
1.09383 0.5 0.281233 0.00224419
1.09383 0.5 -0.281233 0.00225241
0.797951 0.5 -0.8 0.0049898
0.797951 0.5 0.8 0.00498979
0 0.5 1.13168 0.0112337
0 0.5 -1.13168 0.011231
1.12467 0.5 -0.137533 0.00205001
1.12467 0.5 0.137533 0.00204982
0.288433 0.5 1.1 0.0128622
0.288433 0.5 -1.1 0.0128586
0.756814 0.5 0.85 0.00552616
0.756814 0.5 -0.85 0.00552624
1.12467 0.5 0.229221 0.0020912
1.12467 0.5 -0.229221 0.00209153
1.08549 0.5 0.37332 0.00233577
1.14834 0.5 0 0.00195118
0.467897 0.5 1.05 0.0101256
0.467897 0.5 -1.05 0.0101239
0.715676 0.5 -0.9 0.00616002
0.715676 0.5 0.9 0.00616019
1.14834 0.5 -0.0901106 0.00196131
1.14834 0.5 0.0901106 0.00196127
0.075776 0.5 1.15 0.0148844
0.075776 0.5 -1.15 0.014906
1.09383 0.5 -0.374977 0.00233702
1.05485 0.5 0.476139 0.00263753
1.07643 0.5 -0.427071 0.00244478
1.07643 0.5 0.427071 0.00244459
1.02554 0.5 -0.540535 0.00294451
1.02554 0.5 0.540535 0.00294409
1.05773 0.5 -0.480758 0.0026405
1.14834 0.5 -0.180221 0.00199103
1.14834 0.5 0.180221 0.00199096
0.67013 0.5 0.95 0.00686123
0.67013 0.5 -0.95 0.00686086
1.16437 0.5 0.044521 0.00191263
1.16437 0.5 -0.044521 0.00189982
1 0.5 -0.6 0.00315868
1 0.5 0.6 0.00315855
0.969689 0.5 0.65 0.00338914
0.969689 0.5 -0.65 0.00339161
0 0.5 1.16832 0.0112756
0 0.5 -1.16832 0.011273
1.12467 0.5 0.32091 0.00215609
1.12467 0.5 -0.32091 0.00215658
0.219992 0.5 1.15 0.0136942
0.219992 0.5 -1.15 0.0137936
0.939379 0.5 -0.7 0.0036624
0.939379 0.5 0.7 0.00366235
1.16437 0.5 0.133563 0.00191929
1.16437 0.5 -0.133563 0.00191935
0.412065 0.5 1.1 0.0111809
0.412065 0.5 -1.1 0.0111784
0.90582 0.5 -0.75 0.00398578
0.90582 0.5 0.75 0.00398573
0.624584 0.5 -1 0.00767778
0.624584 0.5 1 0.00767839
1.14834 0.5 -0.270332 0.00204159
1.14834 0.5 0.270332 0.00204147
0.872262 0.5 -0.8 0.00439501
0.872262 0.5 0.8 0.00439498
1.16437 0.5 -0.222605 0.00195755
1.16437 0.5 0.222605 0.00195746
1.09383 0.5 -0.468722 0.00245395
1.09383 0.5 0.468722 0.00245231
0.835106 0.5 0.85 0.00485112
0.835106 0.5 -0.85 0.00485112
1.19294 0.5 0 0.00180643
1.19293 0.5 0.0870952 0.00181542
1.19294 0.5 -0.0871367 0.00181546
1.07643 0.5 -0.521975 0.00258376
1.07643 0.5 0.521975 0.00258382
0.574156 0.5 -1.05 0.00856977
0.574157 0.5 1.05 0.00857068
1.12467 0.5 0.412598 0.00224472
1.12467 0.5 -0.412598 0.00224537
0 0.5 1.2 0.0113292
0 0.5 -1.2 0.011327
0.350249 0.5 -1.15 0.0122069
0.350249 0.5 1.15 0.0120065
0.797951 0.5 -0.9 0.00537237
0.797951 0.5 0.9 0.00537236
1.14834 0.5 -0.360442 0.00211447
1.14834 0.5 0.360442 0.00211431
1.05773 0.5 -0.57691 0.0027824
1.05773 0.5 0.57691 0.00277976
1.16437 0.5 -0.311647 0.0020174
1.16437 0.5 0.311647 0.00201725
1.19294 0.5 -0.174273 0.00184193
1.19297 0.5 0.174199 0.00184179
1.02554 0.5 -0.638814 0.00310826
1.02554 0.5 0.638814 0.00310791
0.151552 0.5 1.2 0.0148748
0.151552 0.5 -1.2 0.0148715
0.756813 0.5 0.95 0.00595295
0.756814 0.5 -0.95 0.00595284
0.523729 0.5 -1.1 0.00954889
0.523729 0.5 1.1 0.00955028
1 0.5 -0.7 0.00336344
1 0.5 0.7 0.00336335
1.22029 0.5 -0.0426571 0.00171694
1.22029 0.5 0.0426571 0.00171672
1.19297 0.5 0.261114 0.0018865
1.19294 0.5 -0.26141 0.001887
0.969689 0.5 -0.75 0.00362582
0.969689 0.5 0.75 0.00362277
1.22029 0.5 0.127971 0.00173269
1.22029 0.5 -0.127971 0.00173333
0.715676 0.5 -1 0.00662194
0.715676 0.5 1 0.00662222
1.09383 0.5 -0.562466 0.00258528
1.09383 0.5 0.562466 0.00258395
1.16437 0.5 0.400689 0.00209921
1.16437 0.5 -0.400689 0.0020994
0 0.5 1.23168 0.0113841
0 0.5 -1.23168 0.011382
1.12467 0.5 0.504287 0.00236903
1.12467 0.5 -0.504287 0.00236982
1.14834 0.5 -0.450553 0.00221462
1.14834 0.5 0.450553 0.00221436
0.939379 0.5 -0.8 0.00393584
0.939379 0.5 0.8 0.00393584
0.288433 0.5 1.2 0.0131442
0.288433 0.5 -1.2 0.013141
1.2354 0.5 0 0.0016725
1.2354 0.5 -0.0843067 0.00168013
1.2354 0.5 0.0843067 0.00168009
1.22029 0.5 -0.213285 0.00176534
1.22029 0.5 0.213285 0.00176612
1.07643 0.5 -0.61688 0.00270615
1.07643 0.5 0.61688 0.00270603
0.467897 0.5 1.15 0.0105656
0.467897 0.5 -1.15 0.0105636
0.90582 0.5 -0.85 0.00430754
0.90582 0.5 0.85 0.0043075
1.19294 0.5 -0.348547 0.00195243
1.19297 0.5 0.348541 0.00195254
0.67013 0.5 1.05 0.00735989
0.67013 0.5 -1.05 0.0073594
1.2354 0.5 0.168613 0.00170249
1.2354 0.5 -0.168613 0.00170257
0.075776 0.5 -1.25 0.0151324
0.075776 0.5 1.25 0.0151352
0.872262 0.5 -0.9 0.00476226
0.872262 0.5 0.9 0.00476216
1.05773 0.5 -0.673062 0.00295496
1.05773 0.5 0.673062 0.00295082
1.25536 0.5 -0.0414881 0.0016107
1.25536 0.5 0.0414881 0.00161065
1.22029 0.5 0.2986 0.0018143
1.22029 0.5 -0.2986 0.00181592
1.2354 0.5 0.25292 0.00174077
1.2354 0.5 -0.25292 0.00174089
1.25536 0.5 0.124464 0.00162443
1.25536 0.5 -0.124464 0.00162456
1.02554 0.5 0.737092 0.00333659
1.02554 0.5 -0.737092 0.00333701
1.16437 0.5 -0.489731 0.00220813
1.16437 0.5 0.489731 0.00220775
0.835106 0.5 -0.95 0.00525111
0.835106 0.5 0.95 0.0052511
0.624584 0.5 -1.1 0.00819192
0.624584 0.5 1.1 0.00819267
0 0.5 -1.26832 0.0114592
0 0.5 1.26832 0.011461
0.412065 0.5 1.2 0.0116002
0.412065 0.5 -1.2 0.0115977
0.219992 0.5 1.25 0.0140894
0.219992 0.5 -1.25 0.0140865
1.14834 0.5 -0.540664 0.00234048
1.14834 0.5 0.540664 0.00234047
1.19294 0.5 -0.435684 0.00203984
1.19297 0.5 0.435676 0.00203982
1.25536 0.5 -0.20744 0.00165163
1.25536 0.5 0.20744 0.00163913
1.12467 0.5 0.595975 0.00249858
1.12467 0.5 -0.595975 0.00249908
1.09383 0.5 -0.65621 0.00273853
1.09383 0.5 0.65621 0.00273632
1.22029 0.5 0.383914 0.00188416
1.22029 0.5 -0.383914 0.00188642
0.797951 0.5 -1 0.00581222
0.797951 0.5 1 0.00581232
1.27974 0.5 -2.42861e-17 0.00153857
1.2354 0.5 0.337227 0.00179763
1.2354 0.5 -0.337227 0.0017978
1 0.5 -0.8 0.00361906
1 0.5 0.8 0.00361905
1.27974 0.5 -0.0813505 0.00154487
1.27974 0.5 0.0813505 0.00154461
0.574156 0.5 1.15 0.00909328
0.574156 0.5 -1.15 0.00909221
1.25536 0.5 0.290417 0.00167434
1.25536 0.5 -0.290417 0.00169465
1.27874 0.5 0.162701 0.00156271
0.969689 0.5 -0.85 0.00389644
0.969689 0.5 0.85 0.00389321
1.27974 0.5 -0.162701 0.00156321
1.07643 0.5 0.711784 0.00289947
1.07643 0.5 -0.711784 0.0028997
0.756814 0.5 -1.05 0.00643299
0.756814 0.5 1.05 0.00643321
1.29471 0.5 0.0401762 0.0014964
1.29471 0.5 -0.0401762 0.00149642
0.350249 0.5 1.25 0.0123635
0.350249 0.5 -1.25 0.0126176
0 0.5 1.3 0.0115426
0 0.5 -1.3 0.011541
1.16437 0.5 0.578773 0.0023446
1.16437 0.5 -0.578773 0.00234431
1.29471 0.5 0.120529 0.00150787
1.29471 0.5 -0.120529 0.00150793
0.939379 0.5 -0.9 0.00425298
0.939379 0.5 0.9 0.00425299
1.27917 0.5 0.244051 0.00159281
1.19294 0.5 -0.52282 0.00215766
1.19297 0.5 0.522811 0.00215778
1.27974 0.5 -0.244051 0.00159452
1.2354 0.5 0.421534 0.00187582
1.2354 0.5 -0.421534 0.00187617
1.22029 0.5 -0.469228 0.0019783
1.22029 0.5 0.469228 0.00197513
1.05773 0.5 -0.769213 0.00318978
1.05773 0.5 0.769213 0.00318444
1.30828 0.5 1.61908e-17 0.00146433
0.151552 0.5 1.3 0.01519
0.151552 0.5 -1.3 0.0151874
0.523729 0.5 -1.2 0.0100701
0.523729 0.5 1.2 0.0100717
1.25536 0.5 0.373393 0.00175686
1.25536 0.5 -0.373393 0.00175732
1.14834 0.5 -0.630774 0.00247449
1.14834 0.5 0.630774 0.00247453
1.29471 0.5 -0.200881 0.0015305
1.29471 0.5 0.200881 0.00153039
1.30828 0.5 0.0794482 0.00146963
1.30828 0.5 -0.0794482 0.00146979
0.715676 0.5 -1.1 0.00713012
0.715676 0.5 1.1 0.00713055
0.90582 0.5 -0.95 0.0047025
0.90582 0.5 0.95 0.00470224
1.30828 0.5 0.158897 0.00148555
1.30828 0.5 -0.158897 0.00148586
1.12467 0.5 -0.687663 0.00265849
1.12467 0.5 0.687663 0.00265751
1.27974 0.5 0.325402 0.00163665
1.27974 0.5 -0.325402 0.00164227
1.02554 0.5 -0.835371 0.00361817
1.02554 0.5 0.835371 0.00361786
1.29471 0.5 0.281233 0.00156607
1.29471 0.5 -0.281233 0.0015662
1.09383 0.5 -0.749954 0.00295043
1.09383 0.5 0.749954 0.00294753
0.872262 0.5 -1 0.00519523
0.872262 0.5 1 0.0051951
1.30726 0.5 0.238345 0.00151404
1.30828 0.5 -0.238345 0.00151337
0.67013 0.5 1.15 0.00789326
0.67013 0.5 -1.15 0.00789262
0.288433 0.5 1.3 0.0135345
0.288433 0.5 -1.3 0.0135319
0 0.5 1.33168 0.0116262
0 0.5 -1.33168 0.0116247
1.33249 0.5 0.038917 0.0013959
1.33249 0.5 -0.038917 0.00139594
0.467897 0.5 1.25 0.0110943
0.467897 0.5 -1.25 0.0110923
1.2354 0.5 0.50584 0.00198146
1.2354 0.5 -0.50584 0.00198181
1.25536 0.5 0.456369 0.00184399
1.25536 0.5 -0.456369 0.00184488
1.33249 0.5 -0.116751 0.00140523
1.33249 0.5 0.116751 0.0014051
1.19294 0.5 -0.609957 0.00227818
1.19297 0.5 0.609947 0.00227849
1.22029 0.5 0.554542 0.00210001
1.22029 0.5 -0.554542 0.00210288
0.835106 0.5 -1.05 0.00570391
0.835106 0.5 1.05 0.005704
1.16437 0.5 -0.667815 0.00247455
1.16437 0.5 0.667815 0.0024744
1.27974 0.5 0.406752 0.00171132
1.27974 0.5 -0.406752 0.00171318
1.29471 0.5 0.361586 0.00161973
1.29471 0.5 -0.361586 0.00161991
1.30701 0.5 0.31501 0.00155337
1.07643 0.5 -0.806689 0.00315025
1.07643 0.5 0.806689 0.00315004
1 0.5 -0.9 0.00390153
1 0.5 0.9 0.00390173
1.30828 0.5 -0.317793 0.00155572
1.33249 0.5 -0.194585 0.00142392
1.33249 0.5 0.194585 0.00142369
1.35048 0.5 0 0.00135071
0.075776 0.5 1.35 0.0152793
0.075776 0.5 -1.35 0.0154791
1.35048 0.5 -0.0766347 0.00135491
1.35048 0.5 0.0766347 0.00135488
0.624584 0.5 -1.2 0.00874889
0.624584 0.5 1.2 0.0087498
1.14834 0.5 -0.720885 0.00264812
1.14834 0.5 0.720885 0.00264794
0.969689 0.5 -0.95 0.00419065
0.969689 0.5 0.95 0.00418698
0.797951 0.5 -1.1 0.00629515
0.797951 0.5 1.1 0.00629541
1.35048 0.5 -0.153269 0.00136752
1.35048 0.5 0.153269 0.00136745
1.33249 0.5 0.272419 0.00145332
1.33249 0.5 -0.272419 0.00145366
0.412065 0.5 1.3 0.0121038
0.412065 0.5 -1.3 0.0121016
1.3642 0.5 -0.0378601 0.00131695
1.3642 0.5 0.0378601 0.00131686
1.25536 0.5 -0.539346 0.00195526
1.25536 0.5 0.539346 0.00195465
1.05773 0.5 -0.865364 0.00346848
1.05773 0.5 0.865364 0.00346237
1.30828 0.5 0.397241 0.0016201
1.30828 0.5 -0.397241 0.00162115
0.219992 0.5 1.35 0.014623
0.219992 0.5 -1.35 0.014474
1.29471 0.5 -0.441939 0.00170246
1.29471 0.5 0.441939 0.00170209
1.12467 0.5 -0.779352 0.00287843
1.12467 0.5 0.779352 0.00287719
0 0.5 1.36832 0.0117367
0 0.5 -1.36832 0.0117355
1.3642 0.5 -0.11358 0.00132474
1.3642 0.5 0.11358 0.00132447
1.2354 0.5 0.590147 0.00208669
1.2354 0.5 -0.590147 0.00208688
1.27974 0.5 0.488103 0.00180348
1.27974 0.5 -0.488103 0.00180555
1.35048 0.5 -0.229904 0.00138922
1.35048 0.5 0.229904 0.00138912
0.939379 0.5 -1 0.0046351
0.939379 0.5 1 0.004635
0.574156 0.5 1.25 0.0096701
0.574156 0.5 -1.25 0.00966884
0.756813 0.5 1.15 0.00694827
0.756814 0.5 -1.15 0.00694783
1.3642 0.5 -0.189301 0.00134049
1.3642 0.5 0.189301 0.00134001
1.33249 0.5 0.350253 0.00147547
1.33249 0.5 -0.350253 0.00149995
1.22029 0.5 0.639857 0.00220068
1.22029 0.5 -0.639857 0.00220414
1.09383 0.5 -0.843699 0.0032113
1.09383 0.5 0.843699 0.00320797
1.19294 0.5 -0.697094 0.00242406
1.19297 0.5 0.697082 0.00242424
1.35048 0.5 0.306539 0.00142301
1.35048 0.5 -0.306539 0.00142312
1.38524 0.5 6.93889e-18 0.00126357
0.90582 0.5 -1.05 0.00516606
0.90582 0.5 1.05 0.00516588
1.02554 0.5 -0.93365 0.00391402
1.02554 0.5 0.93365 0.00391396
1.38524 0.5 -0.0743173 0.00126694
1.38524 0.5 0.0743173 0.00126689
1.16437 0.5 0.756856 0.00266955
1.16437 0.5 -0.756856 0.00266973
1.3642 0.5 -0.265021 0.00136534
1.3642 0.5 0.265021 0.00136463
1.30828 0.5 0.476689 0.00170463
1.30828 0.5 -0.476689 0.0017059
1.38524 0.5 0.148634 0.00127702
1.38524 0.5 -0.148634 0.00127713
0.350249 0.5 -1.35 0.0130974
0.350249 0.5 1.35 0.0132443
1.29471 0.5 0.522291 0.00179625
1.29471 0.5 -0.522291 0.00179652
0.715676 0.5 -1.2 0.00768089
0.715676 0.5 1.2 0.0076815
1.33249 0.5 0.428087 0.00153777
1.33249 0.5 -0.428087 0.00157337
0 0.5 1.4 0.0118473
0 0.5 -1.4 0.0118462
1.27974 0.5 0.569453 0.00189112
1.27974 0.5 -0.569453 0.00189261
1.25536 0.5 0.622322 0.00203911
1.25536 0.5 -0.622322 0.00203971
0.523729 0.5 -1.3 0.0106521
0.523729 0.5 1.3 0.0106537
1.40143 0.5 -0.0366192 0.00122404
1.40143 0.5 0.0366192 0.00122403
1.38524 0.5 -0.222952 0.00129479
1.38524 0.5 0.222952 0.00129462
1.35048 0.5 0.383173 0.00147916
1.35048 0.5 -0.383173 0.0014793
0.872262 0.5 -1.1 0.00566716
0.872262 0.5 1.1 0.00566728
1.07643 0.5 0.901593 0.00344108
1.07643 0.5 -0.901593 0.0034413
1.40143 0.5 -0.109857 0.00123004
1.40143 0.5 0.109857 0.00123001
1.14834 0.5 -0.810995 0.0028733
1.14834 0.5 0.810995 0.00287312
1.3642 0.5 0.340741 0.00140347
1.3642 0.5 -0.340741 0.00140459
1.2354 0.5 0.674454 0.00221276
1.2354 0.5 -0.674454 0.00221296
0.151552 0.5 1.4 0.0156145
0.151552 0.5 -1.4 0.0156126
1.40143 0.5 0.183096 0.00124228
1.40143 0.5 -0.183096 0.00124234
1.41413 0.5 1.15648e-18 0.00119644
1 0.5 -1 0.00423155
1 0.5 1 0.00423168
1.41413 0.5 -0.0723911 0.00119923
1.41413 0.5 0.0723911 0.00119909
1.38524 0.5 -0.297269 0.00132247
1.38524 0.5 0.297269 0.00132225
0.67013 0.5 -1.25 0.00847633
0.67013 0.5 1.25 0.00847712
1.22029 0.5 0.725171 0.0023667
1.22029 0.5 -0.725171 0.00237156
0.835106 0.5 -1.15 0.00619375
0.835106 0.5 1.15 0.00619407
1.41413 0.5 -0.144782 0.00120763
1.41413 0.5 0.144782 0.00120733
1.30828 0.5 0.556137 0.00178268
1.30828 0.5 -0.556137 0.00178361
1.12467 0.5 0.87104 0.00313846
1.12467 0.5 -0.87104 0.00313991
1.40143 0.5 0.256334 0.00126186
1.40143 0.5 -0.256334 0.00126193
1.33249 0.5 0.50592 0.00161295
1.33249 0.5 -0.50592 0.0016513
1.3642 0.5 -0.416461 0.0014716
1.3642 0.5 0.416461 0.0014702
1.35048 0.5 0.459808 0.00155085
1.35048 0.5 -0.459808 0.00155106
1.19294 0.5 -0.78423 0.00262323
1.19297 0.5 0.784217 0.00262346
1.29471 0.5 0.602643 0.00186514
1.29471 0.5 -0.602643 0.00186534
0.467897 0.5 -1.35 0.0116759
0.467897 0.5 1.35 0.0118439
0.969689 0.5 1.05 0.0045635
0.969689 0.5 -1.05 0.00456842
0.288433 0.5 1.4 0.0140148
0.288433 0.5 -1.4 0.0140125
1.05773 0.5 -0.961516 0.00378394
1.05773 0.5 0.961516 0.00377708
1.41413 0.5 -0.217173 0.00122232
1.41413 0.5 0.217173 0.00122187
0 0.5 -1.43168 0.0119589
0 0.5 1.43168 0.0119598
1.38524 0.5 0.371586 0.00137098
1.38524 0.5 -0.371586 0.00137133
1.43384 0.5 0.0355385 0.00114913
1.43384 0.5 -0.0355385 0.00114915
1.27974 0.5 0.650804 0.00200071
1.27974 0.5 -0.650804 0.00200356
1.43384 0.5 -0.106616 0.00115368
1.43384 0.5 0.106616 0.00115364
1.16437 0.5 -0.845898 0.00290164
1.16437 0.5 0.845898 0.00290149
1.40143 0.5 0.329573 0.00129217
1.40143 0.5 -0.329573 0.00129224
1.25536 0.5 0.705298 0.00219511
1.25536 0.5 -0.705298 0.00219592
1.09383 0.5 -0.937443 0.00351175
1.09383 0.5 0.937443 0.00350803
0.797951 0.5 -1.2 0.00682525
0.797951 0.5 1.2 0.00682573
0.624584 0.5 -1.3 0.00935263
0.624584 0.5 1.3 0.0093537
1.41413 0.5 0.289564 0.00124481
1.41413 0.5 -0.289564 0.00124549
1.43384 0.5 0.177693 0.00116307
1.43384 0.5 -0.177693 0.00116314
0.939379 0.5 -1.1 0.00507252
0.939379 0.5 1.1 0.00507246
1.4493 0.5 0 0.00111632
1.3791 0.5 0.445903 0.00143247
1.2354 0.5 0.758761 0.00239311
1.2354 0.5 -0.758761 0.00239331
1.3642 0.5 0.492182 0.00153668
1.3642 0.5 -0.492182 0.00153814
1.4493 0.5 -0.0700466 0.00111824
1.4493 0.5 0.0700466 0.00111823
0.075776 0.5 1.45 0.0159455
0.075776 0.5 -1.45 0.0159442
1.35048 0.5 0.536443 0.0016176
1.35048 0.5 -0.536443 0.00161776
1.30828 0.5 -0.635586 0.00188485
1.30828 0.5 0.635586 0.00188323
1.33249 0.5 0.583754 0.0017155
1.33249 0.5 -0.583754 0.00171617
1.02554 0.5 -1.03193 0.00426978
1.02554 0.5 1.03193 0.00426939
1.38524 0.5 -0.445903 0.00143286
1.43384 0.5 -0.24877 0.00117865
1.43384 0.5 0.24877 0.00117855
1.4493 0.5 -0.140093 0.00112419
1.4493 0.5 0.140093 0.00112418
1.40143 0.5 0.402811 0.00135257
1.40143 0.5 -0.402811 0.00135262
0.412065 0.5 1.4 0.0126923
0.412065 0.5 -1.4 0.0126902
1.14834 0.5 -0.901106 0.00313625
1.14834 0.5 0.901106 0.00313609
1.41413 0.5 -0.361955 0.00128869
1.41413 0.5 0.361955 0.0012874
1.4605 0.5 -0.0346501 0.00109288
1.4605 0.5 0.0346501 0.00109283
0.756813 0.5 -1.25 0.00751356
0.756813 0.5 1.25 0.00751422
1.29471 0.5 0.682996 0.00200692
1.29471 0.5 -0.682996 0.00200714
0.90582 0.5 -1.15 0.00563948
0.90582 0.5 1.15 0.00563981
1.4605 0.5 0.10395 0.00109616
1.4605 0.5 -0.10395 0.0010963
1.4493 0.5 -0.21014 0.00113501
1.4493 0.5 0.21014 0.00113499
1.22029 0.5 0.810485 0.00256722
1.22029 0.5 -0.810485 0.00257279
0.219992 0.5 1.45 0.0149498
0.219993 0.5 -1.45 0.0149478
1.07643 0.5 -0.996497 0.00377128
1.07643 0.5 0.996497 0.00377111
0.574156 0.5 1.35 0.0104758
0.574156 0.5 -1.35 0.0102988
0 0.5 1.46832 0.0121
0 0.5 -1.46832 0.0120992
1.43384 0.5 -0.319846 0.0012039
1.43384 0.5 0.319846 0.00120372
1.4605 0.5 -0.173251 0.0011036
1.4605 0.5 0.173251 0.00110336
1.27974 0.5 0.732154 0.00216311
1.27974 0.5 -0.732154 0.00216651
1.4493 0.5 -0.280186 0.00115265
1.4493 0.5 0.280186 0.00115262
1.38255 0.5 0.520221 0.0014928
1.19294 0.5 -0.871367 0.00285545
1.19297 0.5 0.871352 0.00285574
1.3642 0.5 -0.567902 0.00160205
1.3642 0.5 0.567902 0.00159376
1.47924 0.5 3.46945e-19 0.0010526
1.41413 0.5 -0.434347 0.00134267
1.41413 0.5 0.434347 0.00134147
1.38524 0.5 -0.520221 0.00149496
1.40143 0.5 -0.47605 0.00140638
1.40143 0.5 0.47605 0.00140619
1.12467 0.5 0.962728 0.00343826
1.12467 0.5 -0.962728 0.00343977
1.4605 0.5 -0.242551 0.00111605
1.4605 0.5 0.242551 0.00111566
1.47924 0.5 -0.0680509 0.00105388
1.47924 0.5 0.0680509 0.00105387
1.25536 0.5 0.788274 0.0023819
1.25536 0.5 -0.788274 0.00238278
1.35048 0.5 0.613077 0.00170323
1.35048 0.5 -0.613077 0.00170334
0.872262 0.5 -1.2 0.00617904
0.872262 0.5 1.2 0.00617954
0.715676 0.5 -1.3 0.00827265