# pMean  POINT_DATA 52309
# x  y  z  pMean
0 0 0 0.23423
0 0.00519778 0 0.23387
0 0.0106663 0 0.23306
0 0.0164197 0 0.232199
0 0.0224727 0 0.231346
0 0.028841 0 0.230397
0 0.035541 0 0.229332
0 0.04259 0 0.228197
0 0.0500061 0 0.227032
0 0.0578085 0 0.225859
0 0.0660173 0 0.224698
0 0.0746537 0 0.223574
0.075776 0.00259889 0 0.23423
0.075776 0.00793204 0 0.233511
0.075776 0.013543 0 0.23261
0.075776 0.0194462 0 0.231787
0.075776 0.0256568 0 0.230905
0.075776 0.032191 3.46945e-18 0.229888
0 0.0837399 0 0.222509
0.075776 0.0390655 3.46945e-18 0.228775
0.075776 0.046298 -3.46945e-18 0.227619
0.075776 0.0539073 0 0.226445
0 0.0932994 0 0.221489
0.075776 0.0619129 0 0.225273
0 0.103357 0 0.22048
0.075776 0.0703355 0 0.224122
0.075776 0.0791968 0 0.223025
0 0.113938 0 0.219471
0.075776 0.0885197 3.46945e-18 0.221993
0.075776 0.0983282 0 0.220985
0 0.12507 0 0.218464
0.075776 0.108648 0 0.219975
0 0.136783 0 0.217459
0.075776 0.119504 0 0.218967
0 0.149105 0 0.216452
0.075776 0.130926 0 0.217961
0.151552 0 0 0.221874
0.151552 0.00519778 0 0.221725
0.151552 0.0106663 0 0.221401
0.151552 0.0164197 0 0.221065
0.151552 0.0224727 0 0.22072
0.151552 0.028841 0 0.220306
0.151552 0.035541 0 0.219813
0.151552 0.04259 0 0.219269
0.151552 0.0500061 0 0.218693
0.075776 0.142944 0 0.216957
0 0.162069 0 0.21544
0.151552 0.0578085 0 0.218094
0.151552 0.0660173 0 0.217486
0.151552 0.0746537 0 0.216891
0.075776 0.155587 3.46945e-18 0.215948
0.151552 0.0837399 0 0.216321
0 0.175708 0 0.214423
0.151552 0.0932994 0 0.21576
0.151552 0.103357 0 0.215185
0.075776 0.168888 0 0.214933
0.151552 0.113938 0 0.214593
0 0.190058 0 0.213403
0.151552 0.12507 0 0.21399
0.075776 0.182883 0 0.213913
0.151552 0.136783 0 0.213379
0 0.205155 0 0.212366
0.075776 0.197606 0 0.212891
0.151552 0.149105 0 0.212756
0.219992 0.00259889 0 0.210339
0.219993 0.00793204 0 0.210433
0.219993 0.013543 0 0.210595
0.219992 0.0194462 -3.46945e-18 0.210745
0 0.221039 0 0.211281
0.219993 0.0256568 0 0.210853
0.151552 0.162069 0 0.212113
0.219993 0.032191 0 0.210914
0.219993 0.0390655 0 0.210938
0.219993 0.0462981 3.46945e-18 0.210929
0.075776 0.213097 6.93889e-18 0.21184
0.219992 0.0539073 0 0.210884
0.219992 0.0619129 0 0.210803
0.219992 0.0703355 0 0.210702
0.151552 0.175708 0 0.211445
0.219992 0.0791968 0 0.210599
0.219992 0.0885196 3.46945e-18 0.210485
0 0.23775 0 0.210134
0.219992 0.0983282 0 0.210334
0.075776 0.229395 -3.46945e-18 0.210723
0.151552 0.190058 0 0.210749
0.219992 0.108647 0 0.210145
0.219992 0.119504 -3.46945e-18 0.209929
0.151552 0.205155 0 0.210019
0 0.255331 0 0.208933
0.219992 0.130926 3.46945e-18 0.209694
0.075776 0.24654 0 0.209544
0.219993 0.142944 3.46945e-18 0.209443
0.151552 0.221039 0 0.209238
0.219992 0.155587 0 0.209165
0 0.273828 0 0.207688
0.075776 0.264579 -3.46945e-18 0.208321
0.219992 0.168888 3.46945e-18 0.208847
0.151552 0.23775 0 0.208394
0.219992 0.182883 0 0.208479
0.288433 0 0 0.211765
0.288433 0.00519778 0 0.211802
0.288433 0.0106663 0 0.211914
0.288433 0.0164197 0 0.212068
0.288433 0.0224727 0 0.212216
0.288433 0.028841 0 0.212344
0.288433 0.035541 0 0.212451
0.288433 0.04259 3.70071e-18 0.212538
0.288433 0.0500061 0 0.212604
0 0.293289 0 0.206409
0.075776 0.283558 0 0.207053
0.288433 0.0578085 0 0.212646
0.219992 0.197607 3.46945e-18 0.208062
0.288433 0.0660173 0 0.212664
0.151552 0.255331 0 0.207495
0.288433 0.0746537 0 0.212668
0.288433 0.0837399 0 0.212654
0.288433 0.0932994 0 0.21261
0.219992 0.213097 3.46945e-18 0.207592
0.288433 0.103357 0 0.212526
0.288433 0.113938 0 0.212408
0.075776 0.303526 0 0.205764
0.151552 0.273828 0 0.206546
0 0.313763 0 0.205123
0.288433 0.12507 0 0.212266
0.219992 0.229394 0 0.207064
0.288433 0.136783 0 0.212101
0.288433 0.149105 0 0.211907
0.151552 0.293289 0 0.205549
0.219992 0.24654 0 0.206474
0.288433 0.162069 0 0.211676
0.075776 0.324533 6.93889e-18 0.20448
0 0.335303 0 0.203816
0.288433 0.175708 0 0.211399
0.219992 0.264579 0 0.205829
0.288433 0.190058 0 0.211072
0.151552 0.313763 0 0.204505
0.350249 0.00259889 3.46945e-18 0.213104
0.350249 0.00793204 -3.46945e-18 0.213157
0.350249 0.013543 3.46945e-18 0.213298
0.350249 0.0194462 3.46945e-18 0.21346
0.350249 0.0256568 -3.46945e-18 0.213629
0.350249 0.032191 -6.93889e-18 0.213799
0.350249 0.0390655 6.93889e-18 0.213964
0.350249 0.0462981 -3.46945e-18 0.214123
0.288433 0.205155 -6.16298e-33 0.210691
0.350249 0.0539073 0 0.214271
0.075776 0.346634 0 0.20315
0.350249 0.0619129 3.46945e-18 0.214402
0.350249 0.0703355 3.46945e-18 0.214514
0 0.357966 0 0.202434
0.219993 0.283558 3.46945e-18 0.205131
0.350249 0.0791968 3.46945e-18 0.214606
0.350249 0.0885196 0 0.214666
0.288433 0.221039 0 0.210251
0.350249 0.0983282 6.93889e-18 0.214683
0.350249 0.108647 3.46945e-18 0.214659
0.151552 0.335303 0 0.203405
0.350249 0.119504 -3.46945e-18 0.214608
0.288433 0.23775 0 0.209746
0.350249 0.130927 0 0.214531
0.219992 0.303526 -3.46945e-18 0.204359
0.075776 0.369888 0 0.201716
0.350249 0.142944 3.46945e-18 0.214423
0 0.381809 0 0.200952
0.350249 0.155587 0 0.214276
0.288433 0.255331 0 0.209175
0.151552 0.357966 0 0.20222
0.350249 0.168888 0 0.214087
0.219992 0.324533 0 0.203497
0.350249 0.182883 3.46945e-18 0.213848
0.288433 0.273828 0 0.20854
0.075776 0.394351 3.46945e-18 0.200185
0.350249 0.197607 3.46945e-18 0.213555
0 0.406893 0 0.19938
0.350249 0.213097 -3.46945e-18 0.213203
0.219992 0.346635 0 0.202545
0.151552 0.381809 0 0.200934
0.288433 0.293289 -6.16298e-33 0.207834
0.412065 9.61782e-19 3.08149e-33 0.218126
0.412065 0.00259889 0 0.21814
0.412065 0.00519778 -3.08149e-33 0.218154
0.412065 0.00793204 0 0.218199
0.412065 0.0106663 -3.70076e-18 0.218243
0.412065 0.0164197 -3.70076e-18 0.218371
0.412065 0.0224727 0 0.218506
0.412065 0.028841 0 0.218643
0.412065 0.035541 -3.70076e-18 0.21878
0.412065 0.04259 -3.70076e-18 0.218915
0.412065 0.0500061 0 0.219049
0.412065 0.0578085 -3.70076e-18 0.219177
0.412065 0.0660173 -3.70076e-18 0.219295
0.350249 0.229395 0 0.212784
0.412065 0.0746537 -3.70076e-18 0.219395
0.412065 0.0837399 -3.70076e-18 0.219461
0.412065 0.0932994 -3.70076e-18 0.219481
0.412065 0.103357 -3.70076e-18 0.219461
0.288433 0.313763 0 0.207043
0.075776 0.420089 0 0.198573
0.412065 0.113938 -3.70076e-18 0.219414
0.350249 0.24654 -3.46945e-18 0.212295
0.219992 0.369887 0 0.201496
0.412065 0.12507 -3.70076e-18 0.219342
5.60855e-17 0.433285 6.16298e-33 0.197729
0.412065 0.136783 -3.70076e-18 0.219241
0.151552 0.406893 0 0.19955
0.412065 0.149105 0 0.219105
0.350249 0.264579 3.46945e-18 0.211732
0.288433 0.335303 0 0.20616
0.412065 0.162069 0 0.218929
0.412065 0.175708 3.08149e-33 0.218709
0.350249 0.283558 3.46945e-18 0.211094
0.219993 0.394351 0 0.200341
0.075776 0.447168 -3.46945e-18 0.196882
0.412065 0.190058 3.08149e-33 0.218439
0.151552 0.433285 -3.70071e-18 0.198068
0.288433 0.357966 0 0.205178
0.412065 0.205155 3.08149e-33 0.218114
0 0.461051 0 0.195994
0.350249 0.303526 6.93889e-18 0.210374
0.412065 0.213097 0 0.217921
0.412065 0.221039 -3.08149e-33 0.217728
0.467897 0.00259889 0 0.22286
0.467897 0.00793204 -3.46945e-18 0.22292
0.467897 0.013543 3.46945e-18 0.223023
0.467897 0.0194462 3.46945e-18 0.223129
0.467897 0.0256568 -3.46945e-18 0.223236
0.467897 0.032191 3.46945e-18 0.223343
0.467897 0.0390655 3.46945e-18 0.223452
0.467897 0.046298 3.46945e-18 0.223564
0.467897 0.0539073 3.46945e-18 0.223682
0.412065 0.229395 0 0.217501
0.467897 0.0619129 3.46945e-18 0.223799
0.467897 0.0703355 0 0.223911
0.219992 0.420089 -3.46945e-18 0.199076
0.467897 0.0791968 3.46945e-18 0.223996
0.412065 0.23775 3.08149e-33 0.217274
0.467897 0.0885197 0 0.224024
0.350249 0.324533 3.46945e-18 0.209563
0.467897 0.0983282 0 0.224002
0.288433 0.381809 0 0.204089
0.467897 0.103357 0 0.225025
0.467897 0.108647 0 0.223955
0.075776 0.475657 0 0.195102
0.467897 0.119504 -3.46945e-18 0.223889
0.412065 0.255331 3.08149e-33 0.216747
0.151552 0.461051 0 0.19648
0.467897 0.130927 3.46945e-18 0.223796
0.467897 0.142944 -3.46945e-18 0.22367
0 0.490263 0 0.194164
0.350249 0.346634 0 0.208652
0.467897 0.155587 -6.93889e-18 0.223508
0.412065 0.273828 3.08149e-33 0.216142
0.467897 0.168888 0 0.223305
0.219992 0.447168 0 0.197693
0.288433 0.406893 0 0.202886
0.467897 0.182883 0 0.223057
0.412065 0.293289 3.08149e-33 0.215454
0.467897 0.197606 -3.46945e-18 0.222758
0.350249 0.369887 3.46945e-18 0.207634
0.075776 0.50563 0 0.193222
0.151552 0.490263 0 0.194773
0.467897 0.213097 0 0.222403
0.467897 0.221039 0 0.223006
0.412065 0.313763 3.08149e-33 0.214674
0.288433 0.433285 0 0.201561
0 0.520997 0 0.192227
0.467897 0.229395 0 0.221984
0.523729 0 0 0.229964
0.523729 0.00519778 0 0.229989
0.523729 0.0106663 -3.70076e-18 0.230053
0.523729 0.0164197 0 0.230127
0.219992 0.475657 0 0.196177
0.523729 0.0224727 0 0.230196
0.523729 0.028841 0 0.230265
0.523729 0.035541 0 0.23034
0.523729 0.04259 0 0.230418
0.523729 0.0500061 0 0.230499
0.523729 0.0578085 0 0.230581
0.350249 0.394351 3.46945e-18 0.2065
0.523729 0.0660173 0 0.230658
0.467897 0.24654 0 0.221496
0.523729 0.0746537 -3.70076e-18 0.230715
0.523729 0.0837399 -3.70076e-18 0.230723
0.412065 0.335303 3.08149e-33 0.213794
0.523729 0.0932994 0 0.230675
0.523729 0.103357 -3.08149e-33 0.230589
0.523729 0.113938 0 0.230479
0.467897 0.264579 0 0.22093
0.523729 0.12507 0 0.230343
0.523729 0.136783 0 0.230177
0.075776 0.537164 0 0.191228
0.151552 0.520997 0 0.192937
0.288433 0.461051 0 0.200103
0.523729 0.149105 0 0.229975
0.412065 0.357966 3.08149e-33 0.212805
0.350249 0.420089 0 0.205241
0.467897 0.283558 0 0.220279
0.523729 0.162069 0 0.229734
0.219992 0.50563 0 0.194512
0.523729 0.175708 0 0.22945
5.0477e-17 0.553331 3.70071e-18 0.19017
0.523729 0.190058 0 0.229117
0.467897 0.303526 3.46945e-18 0.219535
0.412065 0.381809 3.08149e-33 0.211701
0.523729 0.205155 3.08149e-33 0.22873
0.350249 0.447168 3.46945e-18 0.203848
0.523729 0.221039 3.08149e-33 0.228283
0.288433 0.490263 0 0.198498
0.467897 0.324533 3.46945e-18 0.218692
0.151552 0.553331 0 0.190959
0.574156 0.00259889 3.46945e-18 0.236696
0.574156 0.00793204 0 0.236738
0.574156 0.013543 0 0.23679
0.574156 0.0194462 0 0.236826
0.574156 0.0256568 0 0.236856
0.574157 0.032191 0 0.236895
0.523729 0.23775 0 0.22777
0.075776 0.57034 6.93889e-18 0.189107
0.574156 0.0390655 0 0.236942
0.574156 0.0462981 0 0.236991
0.574157 0.0539073 0 0.23704
0.574156 0.0619129 0 0.237087
0.574157 0.0703355 0 0.237124
0.412065 0.406893 0 0.210471
0.574156 0.0791968 0 0.23712
0.219993 0.537164 0 0.19269
0.574156 0.0885196 3.46945e-18 0.237049
0.467897 0.346635 0 0.21774
0.574157 0.0983282 0 0.236929
0.523729 0.255331 0 0.227184
0.574156 0.108648 -3.46945e-18 0.236781
0.574157 0.119504 3.46945e-18 0.236606
0 0.58735 0 0.187979
0.574156 0.130927 3.46945e-18 0.236403
0.350249 0.475657 0 0.202309
0.523729 0.273828 0 0.226517
0.574156 0.142944 3.46945e-18 0.236165
0.574156 0.155587 0 0.23589
0.288433 0.520997 0 0.196737
0.467897 0.369887 0 0.216672
0.412065 0.433285 0 0.209106
0.574157 0.168888 3.46945e-18 0.235574
0.523729 0.293289 3.08149e-33 0.225762
0.574156 0.182883 0 0.235211
0.151552 0.58735 0 0.188828
0.574157 0.197607 0 0.234796
0.574156 0.205155 0 0.23516
0.075776 0.605245 -3.46945e-18 0.186845
0.523729 0.313763 0 0.224911
0.219992 0.570341 -3.46945e-18 0.190704
0.467897 0.394351 -3.46945e-18 0.215478
0.574156 0.213097 0 0.234324
0.350249 0.50563 3.46945e-18 0.200615
0.574156 0.229395 0 0.23379
0.412065 0.461051 3.08149e-33 0.207596
0.523729 0.335303 0 0.223955
0 0.623141 0 0.185639
0.288433 0.553331 0 0.19481
0.624584 0 0 0.244648
0.624584 0.00519778 0 0.244666
0.624584 0.0106663 -3.70076e-18 0.244706
0.624584 0.0164197 0 0.244739
0.574157 0.24654 0 0.233186
0.624584 0.0224727 0 0.244753
0.624584 0.028841 0 0.244759
0.624584 0.035541 0 0.244767
0.624584 0.04259 0 0.244777
0.624584 0.0500061 0 0.24479
0.624584 0.0578085 0 0.244803
0.624584 0.0660173 0 0.244807
0.467897 0.420089 -3.46945e-18 0.214149
0.624584 0.0746537 -3.70076e-18 0.244775
0.624584 0.0837399 0 0.244681
0.624584 0.0932994 0 0.244531
0.574156 0.264579 3.46945e-18 0.232506
0.624584 0.103357 -3.08149e-33 0.244346
0.523729 0.357966 0 0.222885
0.624584 0.113938 0 0.244133
0.624584 0.12507 -3.08149e-33 0.243891
0.624584 0.136783 0 0.243616
0.574156 0.283559 -3.46945e-18 0.231743
0.412065 0.490263 3.08149e-33 0.20593
0.350249 0.537164 -3.46945e-18 0.198754
0.151552 0.623141 6.16298e-33 0.186533
0.624584 0.149105 0 0.243302
0.219992 0.605245 -3.46945e-18 0.188544
0.624584 0.162069 0 0.242948
0.075776 0.641968 0 0.184426
0.467897 0.447168 -3.46945e-18 0.212676
0.523729 0.381809 0 0.221692
0.624584 0.175708 0 0.242547
0.574156 0.303526 3.46945e-18 0.230888
0.624584 0.190058 0 0.242096
0.288433 0.58735 0 0.192704
0.624584 0.205155 -3.08149e-33 0.241589
0.574156 0.324533 0 0.229932
0 0.660796 0 0.183136
0.624584 0.221039 0 0.24102
0.523729 0.406893 0 0.220366
0.412065 0.520997 -3.70076e-18 0.204096
0.467897 0.475657 0 0.211047
0.624584 0.23775 3.08149e-33 0.240384
0.350249 0.57034 0 0.196715
0.67013 0.00259889 0 0.252223
0.67013 0.00793204 0 0.252254
0.67013 0.013543 -3.46945e-18 0.252289
0.67013 0.0194462 -3.46945e-18 0.252297
0.67013 0.0256568 3.46945e-18 0.252281
0.574156 0.346635 3.46945e-18 0.228866
0.67013 0.032191 0 0.252255
0.67013 0.0390655 3.46945e-18 0.252229
0.67013 0.0462981 0 0.252205
0.67013 0.0539073 3.46945e-18 0.252186
0.67013 0.0619129 0 0.252166
0.67013 0.0703355 -3.46945e-18 0.252121
0.624584 0.255331 0 0.239673
0.67013 0.0791968 -3.46945e-18 0.252008
0.67013 0.0885196 3.46945e-18 0.251826
0.67013 0.0983282 -3.46945e-18 0.251605
0.151552 0.660796 0 0.18406
0.219992 0.641968 -3.46945e-18 0.186199
0.67013 0.108648 -3.46945e-18 0.251359
0.523729 0.433285 6.16298e-33 0.218896
0.67013 0.119504 3.46945e-18 0.251083
0.624584 0.273828 0 0.238881
0.67013 0.130926 0 0.250774
0.574156 0.369887 0 0.22768
0.075776 0.680604 0 0.181837
0.67013 0.142944 0 0.250427
0.685312 0.0106663 -7.70372e-34 0.255379
0.288433 0.623141 0 0.19041
0.67013 0.155587 3.46945e-18 0.25004
0.467897 0.50563 3.46945e-18 0.20925
0.412065 0.553331 3.08149e-33 0.202082
0.624584 0.293289 0 0.237999
0.67013 0.168888 0 0.249607
0.67013 0.182883 0 0.249124
0.574157 0.394351 0 0.226363
0.523729 0.461051 0 0.217272
0.67013 0.197606 0 0.248586
0.624584 0.313763 0 0.237019
0.350249 0.605245 0 0.194484
0 0.700412 0 0.180454
0.67013 0.213097 -3.46945e-18 0.247988
0.67013 0.229395 -3.46945e-18 0.247324
0.624584 0.335303 0 0.235932
0.574156 0.420089 -3.46945e-18 0.224906
0.467897 0.537164 3.46945e-18 0.207274
0.67013 0.24654 -3.46945e-18 0.246588
0.219993 0.680604 3.46945e-18 0.183656
0.715676 4.80891e-19 0 0.26067
0.715676 0.00519778 0 0.260684
0.715676 0.0106663 1.54074e-33 0.260715
0.715676 0.0164197 1.54074e-33 0.260733
0.715676 0.0224727 -3.08149e-33 0.260715
0.715676 0.028841 0 0.260669
0.715676 0.035541 0 0.260614
0.151552 0.700412 0 0.181396
0.715676 0.04259 0 0.260559
0.523729 0.490263 0 0.215481
0.715676 0.0500061 1.54074e-33 0.260504
0.412065 0.58735 -3.70076e-18 0.199875
0.715676 0.0578085 0 0.260447
0.715676 0.0660173 1.54074e-33 0.260372
0.715676 0.0746537 0 0.260246
0.624584 0.357966 0 0.234728
0.67013 0.264579 0 0.245772
0.715676 0.0837399 0 0.260051
0.288433 0.660796 0 0.187913
0.715676 0.0932994 0 0.259803
0.715676 0.103357 1.54074e-33 0.259524
0.715676 0.113938 1.54074e-33 0.259214
0.075776 0.721251 0 0.179061
0.685312 0.23775 -7.70372e-34 0.249723
0.715676 0.12507 0 0.25887
0.67013 0.283558 -3.46945e-18 0.244869
0.574156 0.447168 -3.46945e-18 0.223295
0.715676 0.136783 0 0.258487
0.715676 0.149105 0 0.258063
0.350249 0.641968 -3.46945e-18 0.192048
0.624584 0.381809 0 0.233396
0.715676 0.162069 0 0.257593
0.67013 0.303526 0 0.243871
0.715676 0.175708 1.54074e-33 0.257073
0.467897 0.57034 3.46945e-18 0.205104
0.523729 0.520997 0 0.213509
0.715676 0.190058 0 0.256498
0 0.742091 0 0.177577
0.715676 0.205155 -3.70074e-18 0.255864
0.67013 0.324533 -6.93889e-18 0.242769
0.624584 0.406893 0 0.231926
0.574156 0.475657 0 0.221519
0.412065 0.623141 -3.70076e-18 0.19746
0.715676 0.221039 1.54074e-33 0.255164
0.219993 0.721251 0 0.180903
0.715676 0.23775 1.54074e-33 0.254393
0.67013 0.346634 0 0.241554
0.756813 0.00259889 -3.46945e-18 0.268758
0.756813 0.00793204 0 0.268783
0.756813 0.013543 -3.46945e-18 0.268815
0.756814 0.0164197 0 0.269202
0.756813 0.0194462 -3.46945e-18 0.26881
0.756813 0.0256568 -3.46945e-18 0.268753
0.151552 0.742091 0 0.178525
0.288433 0.700412 0 0.185201
0.756813 0.032191 -3.46945e-18 0.26867
0.756814 0.0390655 -3.46945e-18 0.268587
0.756814 0.046298 -3.46945e-18 0.268504
0.756814 0.0539073 3.46945e-18 0.268414
0.756814 0.0619129 0 0.268318
0.715676 0.255331 1.54074e-33 0.253544
0.756813 0.0703355 -6.93889e-18 0.268185
0.624584 0.433285 -3.70071e-18 0.230305
0.756814 0.0791968 -3.46945e-18 0.267975
0.523729 0.553331 -6.16298e-33 0.211344
0.756813 0.0885197 0 0.267702
0.756813 0.0983282 -6.93889e-18 0.267394
0.756813 0.108647 3.46945e-18 0.267055
0.467897 0.605246 3.46945e-18 0.202725
0.574156 0.50563 0 0.219565
0.67013 0.369887 0 0.240214
0.350249 0.680604 -3.46945e-18 0.189393
0.756813 0.119504 -3.46945e-18 0.266681
0.715676 0.273828 0 0.25261
0.075776 0.764016 0 0.176082
0.756813 0.130927 -3.46945e-18 0.266267
0.756813 0.142944 -3.46945e-18 0.265811
0.756813 0.155587 -6.93889e-18 0.265309
0.715676 0.293289 0 0.251583
0.743101 0.221039 -7.70372e-34 0.26016
0.756813 0.168888 3.46945e-18 0.264758
0.624584 0.461051 0 0.22852
0.67013 0.394351 -3.46945e-18 0.238738
0.756813 0.182883 -6.93889e-18 0.264151
0.412065 0.660796 -3.70076e-18 0.194824
0.715676 0.313763 0 0.250454
0.756813 0.197606 -3.46945e-18 0.263486
0 0.785942 0 0.17449
0.756813 0.213097 -3.46945e-18 0.262756
0.574156 0.537164 3.46945e-18 0.217417
0.523729 0.58735 0 0.208969
0.715676 0.335303 0 0.249214
0.756813 0.229394 0 0.261956
0.67013 0.420089 -3.46945e-18 0.237115
0.624584 0.490263 0 0.226557
0.467897 0.641969 3.46945e-18 0.200123
0.219992 0.764017 -3.46945e-18 0.177926
0.756813 0.24654 0 0.261079
0.288433 0.742091 0 0.182261
0.797951 9.61782e-19 -3.08149e-33 0.277618
0.797951 0.00519778 -3.08149e-33 0.277631
0.797951 0.0106663 -3.08149e-33 0.27766
0.797951 0.0145019 7.70372e-34 0.277668
0.797951 0.0164197 0 0.277671
0.797951 0.0184374 7.70372e-34 0.277657
0.797951 0.0224727 -3.08149e-33 0.277629
0.797951 0.028841 0 0.277536
0.797951 0.035541 -3.08149e-33 0.277423
0.797951 0.04259 0 0.277303
0.797951 0.0500061 0 0.277175
0.797951 0.0578085 -3.08149e-33 0.277038
0.715676 0.357966 0 0.247852
0.151552 0.785942 0 0.175433
0.797951 0.0660173 0 0.276873
0.797951 0.0746537 -3.08149e-33 0.276648
0.756814 0.264579 -3.46945e-18 0.26012
0.350249 0.721251 0 0.186504
0.797951 0.0837399 0 0.276352
0.797951 0.0932994 -3.08149e-33 0.276007
0.797951 0.103357 0 0.275628
0.67013 0.447168 -3.46945e-18 0.235331
0.797951 0.113938 -3.08149e-33 0.275212
0.797951 0.12507 -3.08149e-33 0.274756
0.756813 0.283558 -3.46945e-18 0.259069
0.574156 0.57034 3.46945e-18 0.21506
0.797951 0.136783 -3.08149e-33 0.274258
0.715676 0.381809 0 0.246358
0.797951 0.149105 -3.08149e-33 0.273713
0.075776 0.809009 0 0.172885
0.412065 0.700412 -3.70076e-18 0.19195
0.624584 0.520997 0 0.224402
0.523729 0.623141 0 0.206368
0.797951 0.162069 -3.08149e-33 0.273118
0.756813 0.303526 -3.46945e-18 0.257919
0.797951 0.175708 3.70076e-18 0.272469
0.797951 0.190058 3.70076e-18 0.271762
0.67013 0.475657 -3.46945e-18 0.233372
0.715676 0.406893 0 0.244719
0.756813 0.324533 3.46945e-18 0.25666
0.797951 0.205155 -3.70074e-18 0.270992
0.797951 0.21045 -7.70372e-34 0.270712
0.467897 0.680604 3.46945e-18 0.197281
0.797951 0.221039 3.08149e-33 0.270153
0.797951 0.229395 0 0.269696
0 0.832077 0 0.171178
0.756813 0.346634 -3.46945e-18 0.255284
0.797951 0.23775 3.70076e-18 0.269239
0.574156 0.605245 0 0.212477
0.624584 0.553331 -6.16298e-33 0.222039
0.835106 0.00259889 3.46945e-18 0.286143
0.835106 0.00793204 -3.46945e-18 0.286169
0.835106 0.013543 3.46945e-18 0.286202
0.835106 0.0164197 0 0.286387
0.835106 0.0194462 3.46945e-18 0.286189
0.835106 0.0256568 0 0.286095
0.835106 0.032191 0 0.28596
0.835106 0.0390655 3.46945e-18 0.285809
0.835106 0.046298 -3.46945e-18 0.285648
0.715676 0.433285 -3.70074e-18 0.242921
0.835106 0.0539073 0 0.285477
0.835106 0.0578085 0 0.285573
0.288433 0.785942 0 0.179076
0.835106 0.0619129 -3.46945e-18 0.285288
0.797951 0.255331 -3.70074e-18 0.268244
0.835106 0.0703355 3.46945e-18 0.28505
0.219992 0.80901 0 0.174712
0.835106 0.0791968 -3.46945e-18 0.284733
0.67013 0.50563 0 0.231222
0.835106 0.0885196 0 0.284356
0.350249 0.764016 6.93889e-18 0.183368
0.835106 0.0983282 3.46945e-18 0.283941
0.835106 0.108647 -3.46945e-18 0.283489
0.756814 0.369887 3.46945e-18 0.253778
0.523729 0.660796 0 0.203525
0.835106 0.119504 -6.93889e-18 0.282996
0.797951 0.273828 3.70076e-18 0.267161
0.835106 0.130926 0 0.282459
0.151552 0.832077 0 0.172106
0.835106 0.142944 -6.93889e-18 0.281876
0.822721 0.205155 -7.70372e-34 0.276169
0.412065 0.742091 -3.70076e-18 0.188823
0.835106 0.155587 3.46945e-18 0.281243
0.797951 0.293289 3.70076e-18 0.265982
0.715676 0.461051 0 0.240951
0.835106 0.168888 -3.46945e-18 0.280556
0.756813 0.394351 -3.46945e-18 0.252131
0.835106 0.182883 -3.46945e-18 0.279812
0.624584 0.58735 -3.70076e-18 0.219448
0.797951 0.313763 3.70076e-18 0.264698
0.835106 0.197606 -3.46945e-18 0.279005
0.67013 0.537164 3.46945e-18 0.228865
0.075776 0.856345 0 0.169454
0.467897 0.721251 3.46945e-18 0.194183
0.574156 0.641968 0 0.209651
0.835106 0.213097 0 0.278131
0.835106 0.221039 0 0.277847
0.797951 0.335303 3.70076e-18 0.263299
0.756814 0.420089 -3.46945e-18 0.250329
0.835106 0.229395 -3.46945e-18 0.277185
0.715676 0.490263 0 0.238793
0.835106 0.24654 -6.93889e-18 0.27616
0.872262 9.61782e-19 -3.08149e-33 0.295042
0.872262 0.00519778 -3.08149e-33 0.295055
0.872262 0.0106663 -3.08149e-33 0.295088
0.872262 0.0164197 0 0.295103
0.872262 0.0224727 -3.08149e-33 0.295045
0.872262 0.028841 1.54074e-33 0.294912
0.872262 0.035541 0 0.294736
0.872262 0.04259 1.54074e-33 0.29454
0.872262 0.0500061 -3.08149e-33 0.294333
0.872262 0.0539073 0 0.29422
0.872262 0.0578085 3.08149e-33 0.294108
0.872262 0.0619129 0 0.293976
0.797951 0.357966 3.70076e-18 0.261774
0.523729 0.700412 0 0.200422
0.872262 0.0660173 -3.08149e-33 0.293844
0.872262 0.0746537 -3.08149e-33 0.293514
0.835106 0.264579 3.46945e-18 0.275049
0.872262 0.0837399 -3.08149e-33 0.293116
0.872262 0.0932994 0 0.292669
0.872262 0.103357 -3.08149e-33 0.292182
0.756813 0.447168 -6.93889e-18 0.248358
0.872262 0.113938 -3.08149e-33 0.291652
0.67013 0.57034 0 0.226283
0 0.880614 0 0.167623
0.288433 0.832077 0 0.175635
0.872262 0.12507 -3.08149e-33 0.291078
0.350249 0.809009 0 0.17997
0.835106 0.283559 0 0.273845
0.624584 0.623141 -3.70076e-18 0.216613
0.872262 0.136783 -3.08149e-33 0.290457
0.219992 0.856345 -3.46945e-18 0.171246
0.797951 0.381809 3.70076e-18 0.260112
0.872262 0.149105 -3.08149e-33 0.289785
0.872262 0.162069 3.70076e-18 0.289059
0.412065 0.785942 -3.70076e-18 0.185428
0.835107 0.303526 -3.46945e-18 0.27254
0.872262 0.175708 3.70076e-18 0.288277
0.574157 0.680604 0 0.206563
0.872262 0.190058 3.70076e-18 0.287432
0.151552 0.880614 0 0.168529
0.723512 0.524461 4.40213e-34 0.237226
0.756813 0.475657 3.46945e-18 0.246202
0.872262 0.197607 0 0.286977
0.797951 0.406893 -3.08149e-33 0.2583
0.467897 0.764016 0 0.190811
0.835106 0.324533 -6.93889e-18 0.271123
0.872262 0.205155 3.08149e-33 0.286522
0.872262 0.213097 0 0.286031
0.872262 0.221039 -3.08149e-33 0.285541
0.685312 0.58735 -7.70372e-34 0.227155
0.67013 0.605246 -3.46945e-18 0.223457
0.872262 0.23775 3.70076e-18 0.284483
0.835106 0.346634 -3.46945e-18 0.269586
0.715676 0.553331 -3.08149e-33 0.233841
0.905821 0.00259889 0 0.303644
0.90582 0.00793204 -3.46945e-18 0.303673
0.90582 0.013543 -3.46945e-18 0.303717
0.90582 0.0194462 -3.46945e-18 0.303711
0.90582 0.0256568 -3.46945e-18 0.303595
0.90582 0.032191 0 0.303407
0.90582 0.0390655 -6.93889e-18 0.303178
0.90582 0.0462981 0 0.302938
0.90582 0.0539073 0 0.302685
0.90582 0.0619129 0 0.302403
0.797951 0.433285 -3.70074e-18 0.256322
0.523729 0.742091 0 0.197041
0.90582 0.0703355 0 0.30206
0.872262 0.255331 3.70076e-18 0.283342
0.624584 0.660796 0 0.213514
0.90582 0.0791968 0 0.301642
0.075776 0.906147 0 0.165774
0.905821 0.0885197 3.46945e-18 0.301167
0.756813 0.50563 -3.46945e-18 0.243844
0.90582 0.0983282 3.46945e-18 0.300648
0.90582 0.108647 -3.46945e-18 0.300087
0.835106 0.369887 0 0.267915
0.90582 0.119504 0 0.29948
0.872262 0.273828 -3.70074e-18 0.282111
0.90582 0.130927 -3.46945e-18 0.298825
0.90582 0.142944 0 0.298119
0.90582 0.155587 0 0.297359
0.872262 0.293289 3.70076e-18 0.280782
0.715676 0.578845 1.54074e-33 0.231716
0.90582 0.168888 -3.46945e-18 0.296542
0.797951 0.461051 3.70076e-18 0.254162
0.574156 0.721251 0 0.203194
0.835106 0.394351 -3.46945e-18 0.266098
0.90582 0.182883 0 0.295664
0.350249 0.856345 3.46945e-18 0.176295
0.715676 0.58735 0 0.231008
0.925956 0.0164197 7.70372e-34 0.309399
0.685312 0.623141 -7.70372e-34 0.224143
0.925956 0.035541 7.70372e-34 0.308897
0.288433 0.880614 0 0.171922
0.872262 0.313763 3.70076e-18 0.279347
0.90582 0.197606 -3.46945e-18 0.294721
0.67013 0.641968 -3.46945e-18 0.220365
0.756813 0.537164 6.93889e-18 0.241263
0.412065 0.832077 -3.70076e-18 0.181748
0.905821 0.213097 0 0.293708
0 0.93168 0 0.163814
0.219992 0.906147 0 0.167514
0.931922 0.0578085 0 0.309504
0.90582 0.229395 0 0.292621
0.872262 0.335303 3.70076e-18 0.277794
0.467897 0.809009 3.46945e-18 0.18715
0.835106 0.420089 -6.93889e-18 0.264121
0.931922 0.0837399 -1.92593e-33 0.308126
0.797951 0.490263 3.70076e-18 0.251804
0.624584 0.700412 0 0.210129
0.905821 0.24654 -3.46945e-18 0.291454
0.939379 0 0 0.312888
0.939379 0.00519778 0 0.312907
0.939379 0.0106663 0 0.312952
0.939379 0.013543 0 0.312963
0.939379 0.0164197 0 0.312973
0.939379 0.0194462 0 0.312935
0.939379 0.0224727 0 0.312897
0.939379 0.028841 0 0.312706
0.939379 0.035541 2.31296e-18 0.312437
0.939379 0.04259 0 0.312125
0.939379 0.0500061 0 0.31179
0.939379 0.0578085 0 0.311428
0.939379 0.0660173 0 0.311018
0.939379 0.0746537 0 0.310541
0.872262 0.357966 3.70076e-18 0.276113
0.939379 0.0837399 2.31296e-18 0.310002
0.90582 0.264579 -6.93889e-18 0.290199
0.151552 0.93168 0 0.164687
0.939379 0.0932994 0 0.309415
0.523729 0.785942 -3.70076e-18 0.193364
0.797951 0.50563 0 0.250515
0.939379 0.103357 0 0.308787
0.931922 0.162069 0 0.303183
0.939379 0.113938 0 0.308115
0.835106 0.447168 0 0.261968
0.756813 0.57034 0 0.23844
0.939379 0.12507 0 0.307397
0.715676 0.623141 0 0.227908
0.90582 0.283559 0 0.28885
0.939379 0.136783 0 0.306632
0.939379 0.149105 0 0.305817
0.872262 0.381809 3.70076e-18 0.274291
0.797951 0.520997 -3.70076e-18 0.249225
0.939379 0.162069 0 0.304949
0.67013 0.680604 0 0.216986
0.90582 0.303526 0 0.287399
0.939379 0.175708 0 0.304024
0.574156 0.764016 3.46945e-18 0.199524
0.939379 0.190058 0 0.303038
0.835106 0.475657 0 0.259619
0.939379 0.205155 0 0.301987
0.075776 0.958542 0 0.161832
0.905821 0.324533 -3.46945e-18 0.285836
0.872262 0.406893 3.70076e-18 0.272314
0.939379 0.221039 0 0.300866
0.939379 0.23775 0 0.29967
0.756813 0.605245 -3.46945e-18 0.235351
0.969689 0.00259889 -3.46945e-18 0.321864
0.96969 0.00793204 0 0.321912
0.969689 0.013543 0 0.321972
0.90582 0.346634 -3.46945e-18 0.284149
0.96969 0.0194462 0 0.321958
0.624584 0.742091 0 0.206439
0.969689 0.0256568 0 0.32179
0.96969 0.032191 0 0.321501
0.96969 0.0390655 3.46945e-18 0.321133
0.969689 0.046298 0 0.320725
0.797951 0.553331 0 0.246406
0.969689 0.0539073 0 0.320292
0.350249 0.906147 -3.46945e-18 0.172329
0.969689 0.0619129 0 0.31982
0.969689 0.0703355 0 0.319283
0.412065 0.880614 -3.70076e-18 0.17777
0.96969 0.0791968 0 0.318679
0.939379 0.255331 0 0.298392
0.96969 0.0885196 0 0.318025
0.872262 0.433285 3.70076e-18 0.270164
0.715676 0.660796 0 0.22452
0.96969 0.0983282 0 0.317331
0.288433 0.93168 0 0.167926
0.969689 0.108647 0 0.316595
0.467897 0.856345 6.93889e-18 0.183183
0.835106 0.50563 -3.46945e-18 0.257056
0.969689 0.119504 0 0.315816
0.905821 0.369887 0 0.282327
0.939379 0.273828 -2.31296e-18 0.297025
0.969689 0.130926 0 0.314993
0.969689 0.142944 0 0.314123
0.969689 0.155587 0 0.313204
0.523729 0.832077 0 0.189373
0.219992 0.958542 0 0.163505
0.939379 0.293289 0 0.295561
0.96969 0.168888 0 0.312232
0.67013 0.721251 3.46945e-18 0.213298
0 0.985405 0 0.159735
0.797951 0.578845 -1.54074e-33 0.244093
0.872262 0.461051 3.70076e-18 0.267823
0.969689 0.182883 0 0.311203
0.905821 0.394351 -3.46945e-18 0.280355
0.969689 0.197607 0 0.310114
0.939379 0.313763 -2.31296e-18 0.29399
0.797951 0.58735 -3.08149e-33 0.243321
0.574156 0.809009 0 0.195534
0.756813 0.641968 3.46945e-18 0.231973
0.969689 0.213097 0 0.30896
0.835106 0.537164 6.93889e-18 0.254254
0.969689 0.229394 0 0.307736
0.151552 0.985405 0 0.16057
0.939379 0.335303 0 0.292303
0.90582 0.420089 3.46945e-18 0.278216
1 0 0 0.329876
1 0.00519778 0 0.329902
1 0.0106663 0 0.329943
1 0.0164197 0 0.329939
1 0.0224727 0 0.329822
1 0.028841 0 0.329578
0.969689 0.24654 0 0.306435
0.872262 0.490263 3.70076e-18 0.265272
1 0.035541 0 0.32924
1 0.04259 0 0.328845
1 0.0500061 0 0.328416
0.715676 0.700412 0 0.220818
1 0.0578085 0 0.327954
1 0.0660173 0 0.327438
1 0.0746537 0 0.326855
1 0.0837399 0 0.326211
0.624584 0.785942 0 0.202421
1 0.0932994 0 0.325517
0.969689 0.264579 -3.46945e-18 0.30505
0.939379 0.357966 0 0.290486
1 0.103357 0 0.324777
1 0.113938 0 0.323991
1 0.12507 0 0.323158
1 0.136783 0 0.322276
0.90582 0.447168 -3.46945e-18 0.275892
0.96969 0.283559 3.46945e-18 0.303574
0.861646 0.527926 -8.80425e-34 0.260041
1 0.149105 0 0.321344
0.835106 0.57034 0 0.251191
0.797951 0.623141 -3.08149e-33 0.239947
1 0.162069 0 0.320358
0.939379 0.381809 0 0.288526
1 0.175708 0 0.319316
0.969689 0.303526 -3.46945e-18 0.301998
0.67013 0.764016 3.46945e-18 0.209279
0.075776 1.01367 3.46945e-18 0.157614
0.756814 0.680604 -3.46945e-18 0.22828
1 0.190058 0 0.318214
0.412065 0.93168 -3.70076e-18 0.17348
0.467897 0.906147 3.46945e-18 0.178895
0.350249 0.958542 0 0.168062
1 0.205155 0 0.317049
0.969689 0.324533 -3.46945e-18 0.300311
0.90582 0.475657 0 0.273363
0.939379 0.406893 0 0.286405
1 0.221039 0 0.315816