# pMean  POINT_DATA 38414
# x  y  z  pMean
0 0.5 0 0.19355
0 0.5 -0.0316815 0.193566
0 0.5 0.0316815 0.193568
0 0.5 -0.0683185 0.193348
0 0.5 0.0683185 0.193353
0.075776 0.5 0.05 0.193573
0.075776 0.5 -0.05 0.193569
0 0.5 0.1 0.192966
0 0.5 -0.1 0.192959
0 0.5 -0.131682 0.192603
0 0.5 0.131682 0.192613
0.151552 0.5 0 0.194191
0.075776 0.5 0.15 0.192406
0.075776 0.5 -0.15 0.192098
0 0.5 -0.168318 0.191968
0 0.5 0.168318 0.19198
0.151552 0.5 0.1 0.193608
0.151552 0.5 -0.1 0.193601
0 0.5 0.2 0.191247
0 0.5 -0.2 0.191233
0.219992 0.5 0.05 0.195136
0.219992 0.5 -0.05 0.195132
0 0.5 0.231682 0.190546
0 0.5 -0.231682 0.19053
0.151552 0.5 0.2 0.191866
0.151552 0.5 -0.2 0.191852
0.075776 0.5 0.25 0.190135
0.075776 0.5 -0.25 0.190117
0.219992 0.5 0.15 0.193954
0.219992 0.5 -0.15 0.193782
0 0.5 0.268318 0.189516
0 0.5 -0.268318 0.189497
0.288433 0.5 0 0.197941
0 0.5 0.3 0.188445
0 0.5 -0.3 0.188424
0.288433 0.5 0.1 0.197316
0.288433 0.5 -0.1 0.197309
0 0.5 0.331682 0.187407
0 0.5 -0.331682 0.187384
0.219992 0.5 0.25 0.191587
0.219992 0.5 -0.25 0.191569
0.151552 0.5 0.3 0.189016
0.151552 0.5 -0.3 0.188995
0.288433 0.5 0.2 0.195437
0.288433 0.5 -0.2 0.195422
0.350249 0.5 0.05 0.201061
0.350249 0.5 -0.05 0.201057
0.075776 0.5 -0.35 0.186775
0.075776 0.5 0.35 0.186799
0 0.5 0.368318 0.186003
0 0.5 -0.368318 0.185977
0.350249 0.5 0.15 0.199728
0.350249 0.5 -0.15 0.199624
0 0.5 0.4 0.184626
0 0.5 -0.4 0.184598
0.412065 0.5 1.85037e-17 0.205349
0.219992 0.5 0.35 0.18813
0.219992 0.5 -0.35 0.188105
0.288433 0.5 0.3 0.192358
0.288433 0.5 -0.3 0.192336
0.412065 0.5 0.1 0.204635
0.412065 0.5 -0.1 0.204628
0.151552 0.5 0.4 0.185137
0.151552 0.5 -0.4 0.185109
0.350249 0.5 0.25 0.197083
0.350249 0.5 -0.25 0.197064
0 0.5 0.431682 0.18328
0 0.5 -0.431682 0.18325
0.075776 0.5 0.45 0.182491
0.075776 0.5 -0.45 0.182461
0.412065 0.5 -0.2 0.20249
0.412065 0.5 0.2 0.202505
0 0.5 -0.468318 0.181506
0 0.5 0.468318 0.181538
0.467897 0.5 0.05 0.209637
0.467897 0.5 -0.05 0.209633
0.467897 0.5 0.15 0.208113
0.467897 0.5 -0.15 0.208022
0.288433 0.5 0.4 0.188182
0.288433 0.5 -0.4 0.188154
0.350249 0.5 -0.35 0.193201
0.350249 0.5 0.35 0.193227
0 0.5 0.5 0.179888
0 0.5 -0.5 0.179854
0.219992 0.5 -0.45 0.183642
0.219992 0.5 0.45 0.183673
0.412065 0.5 0.3 0.199031
0.412065 0.5 -0.3 0.199008
0.151552 0.5 0.5 0.180329
0.151552 0.5 -0.5 0.180295
0.523729 0.5 0 0.214856
0.467897 0.5 0.25 0.205112
0.467897 0.5 -0.25 0.205092
0 0.5 -0.531682 0.178232
0 0.5 0.531682 0.178268
0.523729 0.5 0.1 0.214039
0.523729 0.5 -0.1 0.214031
0.075776 0.5 0.55 0.177318
0.075776 0.5 -0.55 0.177281
0.523729 0.5 0.2 0.211608
0.523729 0.5 -0.2 0.211592
0 0.5 0.568318 0.17623
0 0.5 -0.568318 0.176192
0.350249 0.5 0.45 0.188272
0.350249 0.5 -0.45 0.188239
0.412065 0.5 0.4 0.194325
0.412065 0.5 -0.4 0.194295
0.574156 0.5 0.05 0.219937
0.574156 0.5 -0.05 0.219933
0.288433 0.5 0.5 0.183021
0.288433 0.5 -0.5 0.182986
0.467897 0.5 0.35 0.20074
0.467897 0.5 -0.35 0.200713
0.219992 0.5 0.55 0.178329
0.219992 0.5 -0.55 0.178292
0.574156 0.5 0.15 0.218193
0.574156 0.5 -0.15 0.218087
0 0.5 0.6 0.174345
0 0.5 -0.6 0.174306
0.523729 0.5 0.3 0.207652
0.523729 0.5 -0.3 0.207627
0.151552 0.5 0.6 0.174708
0.151552 0.5 -0.6 0.174668
0.624584 0.5 0 0.225875
0.574156 0.5 0.25 0.214758
0.574156 0.5 -0.25 0.214737
0 0.5 0.631682 0.172489
0 0.5 -0.631682 0.172447
0.624584 0.5 0.1 0.224938
0.624584 0.5 -0.1 0.224929
0.412065 0.5 0.5 0.188525
0.412065 0.5 -0.5 0.188488
0.467897 0.5 0.45 0.195126
0.467897 0.5 -0.45 0.195091
0.350249 0.5 0.55 0.182356
0.350249 0.5 -0.55 0.182316
0.075776 0.5 0.65 0.1714
0.075776 0.5 -0.65 0.171358
0.624584 0.5 0.2 0.222151
0.624584 0.5 -0.2 0.222134
0.523729 0.5 0.4 0.202301
0.523729 0.5 -0.4 0.202269
0.288433 0.5 0.6 0.177008
0.288433 0.5 -0.6 0.176967
0 0.5 -0.668318 0.170158
0 0.5 0.668318 0.170202
0.67013 0.5 0.05 0.231578
0.67013 0.5 -0.05 0.231573
0.574156 0.5 0.35 0.209769
0.574156 0.5 -0.35 0.20974
0.219992 0.5 0.65 0.172225
0.219992 0.5 -0.65 0.172182
0.67013 0.5 0.15 0.229576
0.67013 0.5 -0.15 0.229431
0.624584 0.5 0.3 0.217622
0.624584 0.5 -0.3 0.217596
0 0.5 0.7 0.168123
0 0.5 -0.7 0.168078
0.67013 0.5 0.25 0.225637
0.67013 0.5 -0.25 0.225615
0.715676 0.5 -9.25186e-18 0.238044
0.151552 0.5 0.7 0.168403
0.151552 0.5 -0.7 0.168357
0.467897 0.5 -0.55 0.188404
0.467897 0.5 0.55 0.188446
0.715676 0.5 0.1 0.236969
0.715676 0.5 -0.1 0.23696
0.523729 0.5 0.5 0.195723
0.523729 0.5 -0.5 0.195684
0.412065 0.5 0.6 0.181798
0.412065 0.5 -0.6 0.181755
0.574156 0.5 0.45 0.203382
0.574156 0.5 -0.45 0.203345
0 0.5 0.731682 0.166071
0 0.5 -0.731682 0.166024
0.350249 0.5 0.65 0.175634
0.350249 0.5 -0.65 0.175589
0.624584 0.5 0.4 0.211514
0.624584 0.5 -0.4 0.211479
0.715676 0.5 -0.2 0.233755
0.715676 0.5 0.2 0.233774
0.075776 0.5 0.75 0.164867
0.075776 0.5 -0.75 0.164819
0.67013 0.5 0.35 0.219923
0.67013 0.5 -0.35 0.219891
0.288433 0.5 0.7 0.170289
0.288433 0.5 -0.7 0.170242
0.756813 0.5 0.05 0.244181
0.756813 0.5 -0.05 0.244177
0 0.5 0.768318 0.163583
0 0.5 -0.768318 0.163534
0.756813 0.5 0.15 0.241886
0.756813 0.5 -0.15 0.241678
0.715676 0.5 0.3 0.228584
0.715676 0.5 -0.3 0.228556
0.219992 0.5 -0.75 0.16545
0.219992 0.5 0.75 0.165498
0.574156 0.5 0.55 0.195802
0.574157 0.5 -0.55 0.195757
0.523729 0.5 0.6 0.188123
0.523729 0.5 -0.6 0.188076
0.756813 0.5 0.25 0.237376
0.756814 0.5 -0.25 0.237351
0.797951 0.5 -6.77919e-18 0.250987
0 0.5 0.8 0.161353
0 0.5 -0.8 0.161303
0.624584 0.5 0.5 0.204029
0.624584 0.5 -0.5 0.203987
0.467897 0.5 0.65 0.180891
0.467897 0.5 -0.65 0.180843
0.797951 0.5 0.1 0.249757
0.797951 0.5 -0.1 0.249747
0.67013 0.5 0.45 0.212633
0.67013 0.5 -0.45 0.212593
0.412065 0.5 0.7 0.174322
0.412065 0.5 -0.7 0.174273
0.151552 0.5 0.8 0.161546
0.151552 0.5 -0.8 0.161495
0.715676 0.5 0.4 0.221604
0.715676 0.5 -0.4 0.221567
0.797951 0.5 -0.2 0.246084
0.797951 0.5 0.2 0.246105
0.350249 0.5 0.75 0.16827
0.350249 0.5 -0.75 0.168219
0 0.5 0.831682 0.159147
0 0.5 -0.831682 0.159095
0.756813 0.5 0.35 0.230838
0.756814 0.5 -0.35 0.230804
0.835106 0.5 -0.05 0.257376
0.835106 0.5 0.05 0.257381
0.835106 0.5 -0.15 0.254473
0.835106 0.5 0.15 0.254761
0.288433 0.5 0.8 0.163012
0.288433 0.5 -0.8 0.16296
0.797951 0.5 0.3 0.240177
0.797951 0.5 -0.3 0.240147
0.075776 0.5 0.85 0.156518
0.075776 0.5 -0.85 0.157798
0.624584 0.5 0.6 0.195417
0.624584 0.5 -0.6 0.195367
0.67013 0.5 0.55 0.204017
0.67013 0.5 -0.55 0.203969
0.574156 0.5 0.65 0.187271
0.574156 0.5 -0.65 0.187219
0 0.5 0.868318 0.156506
0 0.5 -0.868318 0.156452
0.835106 0.5 0.25 0.249623
0.835106 0.5 -0.25 0.249596
0.872262 0.5 -1.85037e-17 0.264389
0.715676 0.5 0.5 0.213085
0.715676 0.5 -0.5 0.213039
0.523729 0.5 0.7 0.17972
0.523729 0.5 -0.7 0.179667
0.872262 0.5 0.1 0.262991
0.872262 0.5 -0.1 0.262979
0.219992 0.5 0.85 0.156892
0.219992 0.5 -0.85 0.158232
0.756813 0.5 -0.45 0.222487
0.756814 0.5 0.45 0.22253
0.467897 0.5 0.75 0.172661
0.467897 0.5 -0.75 0.172606
0.797951 0.5 0.4 0.232226
0.797951 0.5 -0.4 0.232185
0.872262 0.5 0.2 0.258841
0.872262 0.5 -0.2 0.258819
0.412065 0.5 0.8 0.166278
0.412065 0.5 -0.8 0.166223
0 0.5 0.9 0.154166
0 0.5 -0.9 0.15411
0.835106 0.5 0.35 0.242176
0.835106 0.5 -0.35 0.242139
0.90582 0.5 0.05 0.270905
0.90582 0.5 -0.05 0.270899
0.151552 0.5 0.9 0.154271
0.151552 0.5 -0.9 0.154215
0.90582 0.5 -0.15 0.267548
0.905821 0.5 0.15 0.267937
0.350249 0.5 0.85 0.158866
0.350249 0.5 -0.85 0.160369
0.872262 0.5 0.3 0.252113
0.872262 0.5 -0.3 0.25208
0 0.5 0.931682 0.151848
0 0.5 -0.931682 0.151791
0.67013 0.5 0.65 0.194367
0.67013 0.5 -0.65 0.194311
0.715676 0.5 0.6 0.203325
0.715676 0.5 -0.6 0.203271
0.756813 0.5 0.55 0.212754
0.756814 0.5 -0.55 0.212702
0.624584 0.5 0.7 0.185946
0.624584 0.5 -0.7 0.185889
0.939379 0.5 0 0.277944
0.90582 0.5 0.25 0.262121
0.90582 0.5 -0.25 0.262092
0.797951 0.5 0.5 0.222565
0.797951 0.5 -0.5 0.222515
0.574156 0.5 0.75 0.176093
0.574156 0.5 -0.75 0.177973
0.939379 0.5 0.1 0.276367
0.939379 0.5 -0.1 0.276355
0.288433 0.5 0.9 0.155326
0.288433 0.5 -0.9 0.155269
0.835106 0.5 0.45 0.232756
0.835106 0.5 -0.45 0.232709
0.075776 0.5 0.95 0.150483
0.075776 0.5 -0.95 0.150425
0.523729 0.5 0.8 0.170734
0.523729 0.5 -0.8 0.170675
0.872262 0.5 0.4 0.243105
0.872262 0.5 -0.4 0.243061
0.939379 0.5 0.2 0.271691
0.939379 0.5 -0.2 0.271667
0 0.5 -0.968318 0.149041
0 0.5 0.968318 0.149099
0.467897 0.5 0.85 0.163275
0.467897 0.5 -0.85 0.163894
0.969689 0.5 0.05 0.284369
0.969689 0.5 -0.05 0.284341
0.90582 0.5 -0.35 0.253665
0.905821 0.5 0.35 0.253705
0.219992 0.5 -0.95 0.150666
0.219993 0.5 0.95 0.150724
0.969689 0.5 0.15 0.281055
0.969689 0.5 -0.15 0.280598
0.939379 0.5 0.3 0.26412
0.939379 0.5 -0.3 0.264084
0.412065 0.5 0.9 0.157844
0.412065 0.5 -0.9 0.157783
0.756814 0.5 0.65 0.201152
0.756814 0.5 -0.65 0.201792
0.797951 0.5 0.6 0.211539
0.797951 0.5 -0.6 0.211481
0.835106 0.5 -0.55 0.221663
0.835106 0.5 0.55 0.219249
1 0.5 0 0.291519
0 0.5 -1 0.146627
0 0.5 1 0.146686
0.715676 0.5 0.7 0.19265
0.715676 0.5 -0.7 0.192588
0.969689 0.5 0.25 0.274546
0.969689 0.5 -0.25 0.274413
1 0.5 0.1 0.28974
1 0.5 -0.1 0.289727
0.872262 0.5 0.5 0.232201
0.872262 0.5 -0.5 0.232147
0.67013 0.5 0.75 0.183251
0.67013 0.5 -0.75 0.183915
0.151552 0.5 -1 0.146648
0.151552 0.5 1 0.146707
0.90582 0.5 0.45 0.243075
0.90582 0.5 -0.45 0.243024
0.350249 0.5 0.95 0.152259
0.350249 0.5 -0.95 0.152199
0.624584 0.5 -0.8 0.17582
0.624584 0.5 0.8 0.175883
1 0.5 0.2 0.284467
1 0.5 -0.2 0.28444
0.939379 0.5 0.4 0.25399
0.939379 0.5 -0.4 0.253942
0.574157 0.5 0.85 0.168321
0.574156 0.5 -0.85 0.168258
1.02554 0.5 0.0491395 0.297401
1.02554 0.5 -0.0491395 0.297649
0.969689 0.5 0.35 0.265134
0.969689 0.5 -0.35 0.264954
0 0.5 -1.03168 0.144234
0 0.5 1.03168 0.144295
1.02554 0.5 0.147419 0.293729
1.02554 0.5 -0.147419 0.293892
0.288433 0.5 -1 0.147313
0.288433 0.5 1 0.147374
0.523729 0.5 0.9 0.161379
0.523729 0.5 -0.9 0.161315
1 0.5 0.3 0.27594
1 0.5 -0.3 0.2759
0.075776 0.5 1.05 0.142884
0.075776 0.5 -1.05 0.142823
1.02554 0.5 0.245697 0.286528
1.02554 0.5 -0.245697 0.286484
1.05773 0.5 -0.0167307 0.306583
0.835106 0.5 0.65 0.209452
0.835107 0.5 -0.65 0.209387
0.872262 0.5 0.6 0.219811
0.872262 0.5 -0.6 0.219748
0.467897 0.5 0.95 0.154958
0.467897 0.5 -0.95 0.154894
0.90582 0.5 0.55 0.229864
0.90582 0.5 -0.55 0.230613
0.797951 0.5 0.7 0.199541
0.797951 0.5 -0.7 0.199475
1.05773 0.5 0.0961516 0.304217
1.05773 0.5 -0.0961516 0.304709
0.939379 0.5 0.5 0.24176
0.939379 0.5 -0.5 0.241701
0.756813 0.5 -0.75 0.190122
0.756814 0.5 0.75 0.190189
0 0.5 -1.06832 0.141422
0 0.5 1.06832 0.141484
0.969689 0.5 0.45 0.250463
0.969689 0.5 -0.45 0.253015
0.219992 0.5 1.05 0.142945
0.219992 0.5 -1.05 0.142883
0.715676 0.5 0.8 0.181383
0.715676 0.5 -0.8 0.181315
1.05773 0.5 0.192304 0.298732
1.05773 0.5 -0.192304 0.298394
1 0.5 0.4 0.264545
1 0.5 -0.4 0.264492
1.07643 0.5 0.0474523 0.310819
1.07643 0.5 -0.0474523 0.310811
0.412065 0.5 -1 0.14912
0.412065 0.5 1 0.149184
1.02554 0.5 0.343976 0.276348
1.02554 0.5 -0.343976 0.276082
0.67013 0.5 -0.85 0.173068
0.67013 0.5 0.85 0.173136
1.07643 0.5 0.142357 0.30707
1.07643 0.5 -0.142357 0.307048
1.08646 0.5 -0.0942357 0.313535
1.09383 0.5 -1.96602e-17 0.31576
0.624584 0.5 -0.9 0.165414
0.624584 0.5 0.9 0.165483
1.05773 0.5 0.288455 0.288357
1.05773 0.5 -0.288455 0.289557
1.09383 0.5 0.0894942 0.314776
0 0.5 1.1 0.139036
0 0.5 -1.1 0.138973
1.08549 0.5 -0.187488 0.307764
1.07643 0.5 0.237261 0.299698
1.07643 0.5 -0.237261 0.299662
0.350249 0.5 1.05 0.143919
0.350249 0.5 -1.05 0.143854
1.09383 0.5 0.186809 0.309305
0.574156 0.5 0.95 0.158365
0.574156 0.5 -0.95 0.158296
0.151552 0.5 1.1 0.138977
0.151552 0.5 -1.1 0.138913
0.939379 0.5 0.6 0.227943
0.939379 0.5 -0.6 0.227874
0.969689 0.5 0.55 0.239417
0.969689 0.5 -0.55 0.239168
0.90582 0.5 -0.65 0.2169
0.905821 0.5 0.65 0.216971
1.02554 0.5 -0.442255 0.262948
1.02554 0.5 0.442255 0.26325
1 0.5 0.5 0.250838
1 0.5 -0.5 0.250774
0.872262 0.5 -0.7 0.206328
0.872262 0.5 0.7 0.2064
0.835106 0.5 -0.75 0.196343
0.835106 0.5 0.75 0.196416
1.05773 0.5 0.384606 0.277489
1.05773 0.5 -0.384606 0.277539
1.12467 0.5 -0.0458442 0.32433
1.12467 0.5 0.0458442 0.322739
1.07643 0.5 0.332166 0.289044
1.07643 0.5 -0.332166 0.288994
0.523729 0.5 -1 0.151781
0.523729 0.5 1 0.151849
1.09383 0.5 0.281233 0.299134
1.09383 0.5 -0.281233 0.298662
0.797951 0.5 -0.8 0.186892
0.797951 0.5 0.8 0.186966
0 0.5 1.13168 0.136607
0 0.5 -1.13168 0.136543
1.12467 0.5 -0.137533 0.3205
1.12467 0.5 0.137533 0.32055
0.288433 0.5 1.1 0.139285
0.288433 0.5 -1.1 0.13922
0.756814 0.5 0.85 0.178107
0.756814 0.5 -0.85 0.178033
1.12467 0.5 0.229221 0.313067
1.12467 0.5 -0.229221 0.312985
1.08549 0.5 0.37332 0.286665
1.14834 0.5 0 0.331376
0.467897 0.5 1.05 0.145844
0.467897 0.5 -1.05 0.145775
0.715676 0.5 -0.9 0.16975
0.715676 0.5 0.9 0.169825
1.14834 0.5 -0.0901106 0.329432
1.14834 0.5 0.0901106 0.329448
0.075776 0.5 1.15 0.136589
0.075776 0.5 -1.15 0.135107
1.09383 0.5 -0.374977 0.286464
1.05485 0.5 0.476139 0.263469
1.07643 0.5 -0.427071 0.275482
1.07643 0.5 0.427071 0.275545
1.02554 0.5 -0.540535 0.247788
1.02554 0.5 0.540535 0.247877
1.05773 0.5 -0.480758 0.263075
1.14834 0.5 -0.180221 0.323676
1.14834 0.5 0.180221 0.323707
0.67013 0.5 0.95 0.162107
0.67013 0.5 -0.95 0.162033
1.16437 0.5 0.044521 0.334569
1.16437 0.5 -0.044521 0.336013
1 0.5 -0.6 0.235366
1 0.5 0.6 0.235441
0.969689 0.5 0.65 0.224243
0.969689 0.5 -0.65 0.22397
0 0.5 1.16832 0.133774
0 0.5 -1.16832 0.133709
1.12467 0.5 0.32091 0.302214
1.12467 0.5 -0.32091 0.302103
0.219992 0.5 1.15 0.136539
0.219992 0.5 -1.15 0.134996
0.939379 0.5 -0.7 0.212985
0.939379 0.5 0.7 0.213063
1.16437 0.5 0.133563 0.332127
1.16437 0.5 -0.133563 0.332103
0.412065 0.5 1.1 0.140448
0.412065 0.5 -1.1 0.14038
0.90582 0.5 -0.75 0.20241
0.90582 0.5 0.75 0.202489
0.624584 0.5 -1 0.154898
0.624584 0.5 1 0.154971
1.14834 0.5 -0.270332 0.314325
1.14834 0.5 0.270332 0.314372
0.872262 0.5 -0.8 0.192357
0.872262 0.5 0.8 0.192437
1.16437 0.5 -0.222605 0.324415
1.16437 0.5 0.222605 0.324454
1.09383 0.5 -0.468722 0.271722
1.09383 0.5 0.468722 0.271958
0.835106 0.5 0.85 0.183008
0.835106 0.5 -0.85 0.182927
1.19294 0.5 0 0.345167
1.19293 0.5 0.0870952 0.343185
1.19294 0.5 -0.0871367 0.343168
1.07643 0.5 -0.521975 0.259829
1.07643 0.5 0.521975 0.259905
0.574156 0.5 -1.05 0.148285
0.574157 0.5 1.05 0.148358
1.12467 0.5 0.412598 0.288413
1.12467 0.5 -0.412598 0.288274
0 0.5 1.2 0.131326
0 0.5 -1.2 0.13126
0.350249 0.5 -1.15 0.135459
0.350249 0.5 1.15 0.136249
0.797951 0.5 -0.9 0.17408
0.797951 0.5 0.9 0.17416
1.14834 0.5 -0.360442 0.301745
1.14834 0.5 0.360442 0.301806
1.05773 0.5 -0.57691 0.246809
1.05773 0.5 0.57691 0.247248
1.16437 0.5 -0.311647 0.31325
1.16437 0.5 0.311647 0.313305
1.19294 0.5 -0.174273 0.337245
1.19297 0.5 0.174199 0.337288
1.02554 0.5 -0.638814 0.231188
1.02554 0.5 0.638814 0.231289
0.151552 0.5 1.2 0.131189
0.151552 0.5 -1.2 0.131122
0.756813 0.5 0.95 0.165909
0.756814 0.5 -0.95 0.16583
0.523729 0.5 -1.1 0.142244
0.523729 0.5 1.1 0.142317
1 0.5 -0.7 0.218862
1 0.5 0.7 0.218948
1.22029 0.5 -0.0426571 0.354026
1.22029 0.5 0.0426571 0.354087
1.19297 0.5 0.261114 0.327707
1.19294 0.5 -0.26141 0.327603
0.969689 0.5 -0.75 0.207974
0.969689 0.5 0.75 0.208261
1.22029 0.5 0.127971 0.350111
1.22029 0.5 -0.127971 0.349928
0.715676 0.5 -1 0.15816
0.715676 0.5 1 0.158239
1.09383 0.5 -0.562466 0.255095
1.09383 0.5 0.562466 0.25536
1.16437 0.5 0.400689 0.299101
1.16437 0.5 -0.400689 0.299032
0 0.5 1.23168 0.128893
0 0.5 -1.23168 0.128827
1.12467 0.5 0.504287 0.272271
1.12467 0.5 -0.504287 0.27211
1.14834 0.5 -0.450553 0.286435
1.14834 0.5 0.450553 0.28651
0.939379 0.5 -0.8 0.197577
0.939379 0.5 0.8 0.197664
0.288433 0.5 1.2 0.131168
0.288433 0.5 -1.2 0.1311
1.2354 0.5 0 0.35912
1.2354 0.5 -0.0843067 0.357074
1.2354 0.5 0.0843067 0.357091
1.22029 0.5 -0.213285 0.341907
1.22029 0.5 0.213285 0.34233
1.07643 0.5 -0.61688 0.242623
1.07643 0.5 0.61688 0.24271
0.467897 0.5 1.15 0.13676
0.467897 0.5 -1.15 0.136688
0.90582 0.5 -0.85 0.187614
0.90582 0.5 0.85 0.187701
1.19294 0.5 -0.348547 0.3146
1.19297 0.5 0.348541 0.314644
0.67013 0.5 1.05 0.151113
0.67013 0.5 -1.05 0.151035
1.2354 0.5 0.168613 0.351039
1.2354 0.5 -0.168613 0.351004
0.075776 0.5 -1.25 0.127384
0.075776 0.5 1.25 0.127452
0.872262 0.5 -0.9 0.178239
0.872262 0.5 0.9 0.178326
1.05773 0.5 -0.673062 0.229368
1.05773 0.5 0.673062 0.229836
1.25536 0.5 -0.0414881 0.365994
1.25536 0.5 0.0414881 0.36601
1.22029 0.5 0.2986 0.330653
1.22029 0.5 -0.2986 0.330246
1.2354 0.5 0.25292 0.341149
1.2354 0.5 -0.25292 0.341098
1.25536 0.5 0.124464 0.361912
1.25536 0.5 -0.124464 0.361867
1.02554 0.5 0.737092 0.2139
1.02554 0.5 -0.737092 0.213789
1.16437 0.5 -0.489731 0.28233
1.16437 0.5 0.489731 0.282413
0.835106 0.5 -0.95 0.169494
0.835106 0.5 0.95 0.16958
0.624584 0.5 -1.1 0.144466
0.624584 0.5 1.1 0.144544
0 0.5 -1.26832 0.126006
0 0.5 1.26832 0.126074
0.412065 0.5 1.2 0.131754
0.412065 0.5 -1.2 0.131683
0.219992 0.5 1.25 0.127178
0.219992 0.5 -1.25 0.12711
1.14834 0.5 -0.540664 0.269083
1.14834 0.5 0.540664 0.269171
1.19294 0.5 -0.435684 0.298726
1.19297 0.5 0.435676 0.298785
1.25536 0.5 -0.20744 0.353726
1.25536 0.5 0.20744 0.355468
1.12467 0.5 0.595975 0.254515
1.12467 0.5 -0.595975 0.254335
1.09383 0.5 -0.65621 0.237227
1.09383 0.5 0.65621 0.237513
1.22029 0.5 0.383914 0.315868
1.22029 0.5 -0.383914 0.315367
0.797951 0.5 -1 0.161353
0.797951 0.5 1 0.161438
1.27974 0.5 -2.42861e-17 0.375137
1.2354 0.5 0.337227 0.327769
1.2354 0.5 -0.337227 0.327702
1 0.5 -0.8 0.201917
1 0.5 0.8 0.202011
1.27974 0.5 -0.0813505 0.373008
1.27974 0.5 0.0813505 0.373104
0.574156 0.5 1.15 0.138468
0.574156 0.5 -1.15 0.138391
1.25536 0.5 0.290417 0.344153
1.25536 0.5 -0.290417 0.341832
1.27874 0.5 0.162701 0.366952
0.969689 0.5 -0.85 0.191778
0.969689 0.5 0.85 0.192071
1.27974 0.5 -0.162701 0.366761
1.07643 0.5 0.711784 0.224633
1.07643 0.5 -0.711784 0.224535
0.756814 0.5 -1.05 0.153779
0.756814 0.5 1.05 0.153863
1.29471 0.5 0.0401762 0.380532
1.29471 0.5 -0.0401762 0.380523
0.350249 0.5 1.25 0.126939
0.350249 0.5 -1.25 0.127116
0 0.5 1.3 0.123651
0 0.5 -1.3 0.123583
1.16437 0.5 0.578773 0.264028
1.16437 0.5 -0.578773 0.263932
1.29471 0.5 0.120529 0.376352
1.29471 0.5 -0.120529 0.376324
0.939379 0.5 -0.9 0.182124
0.939379 0.5 0.9 0.182217
1.27917 0.5 0.244051 0.356956
1.19294 0.5 -0.52282 0.280669
1.19297 0.5 0.522811 0.280743
1.27974 0.5 -0.244051 0.356562
1.2354 0.5 0.421534 0.311377
1.2354 0.5 -0.421534 0.311294
1.22029 0.5 -0.469228 0.297833
1.22029 0.5 0.469228 0.29841
1.05773 0.5 -0.769213 0.211459
1.05773 0.5 0.769213 0.211938
1.30828 0.5 1.61908e-17 0.385263
0.151552 0.5 1.3 0.123442
0.151552 0.5 -1.3 0.123373
0.523729 0.5 -1.2 0.132841
0.523729 0.5 1.2 0.132916
1.25536 0.5 0.373393 0.326729
1.25536 0.5 -0.373393 0.326599
1.14834 0.5 -0.630774 0.250396
1.14834 0.5 0.630774 0.250495
1.29471 0.5 -0.200881 0.368022
1.29471 0.5 0.200881 0.368068
1.30828 0.5 0.0794482 0.38319
1.30828 0.5 -0.0794482 0.383129
0.715676 0.5 -1.1 0.146766
0.715676 0.5 1.1 0.146849
0.90582 0.5 -0.95 0.172915
0.90582 0.5 0.95 0.173008
1.30828 0.5 0.158897 0.376949
1.30828 0.5 -0.158897 0.376828
1.12467 0.5 -0.687663 0.235586
1.12467 0.5 0.687663 0.235779
1.27974 0.5 0.325402 0.344198
1.27974 0.5 -0.325402 0.342732
1.02554 0.5 -0.835371 0.19632
1.02554 0.5 0.835371 0.196438
1.29471 0.5 0.281233 0.355904
1.29471 0.5 -0.281233 0.355841
1.09383 0.5 -0.749954 0.218824
1.09383 0.5 0.749954 0.21912
0.872262 0.5 -1 0.164337
0.872262 0.5 1 0.164428
1.30726 0.5 0.238345 0.366558
1.30828 0.5 -0.238345 0.366502
0.67013 0.5 1.15 0.140343
0.67013 0.5 -1.15 0.140261
0.288433 0.5 1.3 0.123125
0.288433 0.5 -1.3 0.123055
0 0.5 1.33168 0.121243
0 0.5 -1.33168 0.121174
1.33249 0.5 0.038917 0.395109
1.33249 0.5 -0.038917 0.395086
0.467897 0.5 1.25 0.127813
0.467897 0.5 -1.25 0.127738
1.2354 0.5 0.50584 0.292655
1.2354 0.5 -0.50584 0.292558
1.25536 0.5 0.456369 0.308712
1.25536 0.5 -0.456369 0.308559
1.33249 0.5 -0.116751 0.390823
1.33249 0.5 0.116751 0.390892
1.19294 0.5 -0.609957 0.261176
1.19297 0.5 0.609947 0.261264
1.22029 0.5 0.554542 0.279065
1.22029 0.5 -0.554542 0.278434
0.835106 0.5 -1.05 0.156364
0.835106 0.5 1.05 0.156455
1.16437 0.5 -0.667815 0.244497
1.16437 0.5 0.667815 0.244604
1.27974 0.5 0.406752 0.326163
1.27974 0.5 -0.406752 0.325727
1.29471 0.5 0.361586 0.340257
1.29471 0.5 -0.361586 0.340177
1.30701 0.5 0.31501 0.353382
1.07643 0.5 -0.806689 0.206326
1.07643 0.5 0.806689 0.206431
1 0.5 -0.9 0.185067
1 0.5 0.9 0.185168
1.30828 0.5 -0.317793 0.35245
1.33249 0.5 -0.194585 0.382388
1.33249 0.5 0.194585 0.382502
1.35048 0.5 0 0.402366
0.075776 0.5 1.35 0.118421
0.075776 0.5 -1.35 0.119741
1.35048 0.5 -0.0766347 0.400222
1.35048 0.5 0.0766347 0.400242
0.624584 0.5 -1.2 0.13427
0.624584 0.5 1.2 0.13435
1.14834 0.5 -0.720885 0.231058
1.14834 0.5 0.720885 0.231168
0.969689 0.5 -0.95 0.175789
0.969689 0.5 0.95 0.176084
0.797951 0.5 -1.1 0.148966
0.797951 0.5 1.1 0.149055
1.35048 0.5 -0.153269 0.39384
1.35048 0.5 0.153269 0.393879
1.33249 0.5 0.272419 0.370112
1.33249 0.5 -0.272419 0.369955
0.412065 0.5 1.3 0.123207
0.412065 0.5 -1.3 0.123133
1.3642 0.5 -0.0378601 0.407686
1.3642 0.5 0.0378601 0.407734
1.25536 0.5 -0.539346 0.28853
1.25536 0.5 0.539346 0.288702
1.05773 0.5 -0.865364 0.193727
1.05773 0.5 0.865364 0.194204
1.30828 0.5 0.397241 0.33539
1.30828 0.5 -0.397241 0.335112
0.219992 0.5 1.35 0.11799
0.219992 0.5 -1.35 0.11932
1.29471 0.5 -0.441939 0.321524
1.29471 0.5 0.441939 0.321621
1.12467 0.5 -0.779352 0.216602
1.12467 0.5 0.779352 0.216803
0 0.5 1.36832 0.118465
0 0.5 -1.36832 0.118396
1.3642 0.5 -0.11358 0.403359
1.3642 0.5 0.11358 0.403501
1.2354 0.5 0.590147 0.272368
1.2354 0.5 -0.590147 0.272258
1.27974 0.5 0.488103 0.306716
1.27974 0.5 -0.488103 0.306224
1.35048 0.5 -0.229904 0.383334
1.35048 0.5 0.229904 0.383392
0.939379 0.5 -1 0.167041
0.939379 0.5 1 0.16714
0.574156 0.5 1.25 0.128815
0.574156 0.5 -1.25 0.128736
0.756813 0.5 1.15 0.142174
0.756814 0.5 -1.15 0.142086
1.3642 0.5 -0.189301 0.394809
1.3642 0.5 0.189301 0.395044
1.33249 0.5 0.350253 0.357586
1.33249 0.5 -0.350253 0.353914
1.22029 0.5 0.639857 0.258548
1.22029 0.5 -0.639857 0.257884
1.09383 0.5 -0.843699 0.200578
1.09383 0.5 0.843699 0.200876
1.19294 0.5 -0.697094 0.24096
1.19297 0.5 0.697082 0.24106
1.35048 0.5 0.306539 0.36903
1.35048 0.5 -0.306539 0.368953
1.38524 0.5 6.93889e-18 0.417156
0.90582 0.5 -1.05 0.158675
0.90582 0.5 1.05 0.158772
1.02554 0.5 -0.93365 0.179184
1.02554 0.5 0.93365 0.179309
1.38524 0.5 -0.0743173 0.414985
1.38524 0.5 0.0743173 0.415025
1.16437 0.5 0.756856 0.224868
1.16437 0.5 -0.756856 0.224753
1.3642 0.5 -0.265021 0.382201
1.3642 0.5 0.265021 0.382524
1.30828 0.5 0.476689 0.315468
1.30828 0.5 -0.476689 0.315152
1.38524 0.5 0.148634 0.408613
1.38524 0.5 -0.148634 0.408535
0.350249 0.5 -1.35 0.118927
0.350249 0.5 1.35 0.117535
1.29471 0.5 0.522291 0.30084
1.29471 0.5 -0.522291 0.300729
0.715676 0.5 -1.2 0.135727
0.715676 0.5 1.2 0.135813
1.33249 0.5 0.428087 0.338867
1.33249 0.5 -0.428087 0.334725
0 0.5 1.4 0.116091
0 0.5 -1.4 0.116021
1.27974 0.5 0.569453 0.285538
1.27974 0.5 -0.569453 0.285006
1.25536 0.5 0.622322 0.267417
1.25536 0.5 -0.622322 0.26723
0.523729 0.5 -1.3 0.123679
0.523729 0.5 1.3 0.123757
1.40143 0.5 -0.0366192 0.424188
1.40143 0.5 0.0366192 0.424199
1.38524 0.5 -0.222952 0.397893
1.38524 0.5 0.222952 0.398009
1.35048 0.5 0.383173 0.351182
1.35048 0.5 -0.383173 0.351087
0.872262 0.5 -1.1 0.150937
0.872262 0.5 1.1 0.151032
1.07643 0.5 0.901593 0.188705
1.07643 0.5 -0.901593 0.188594
1.40143 0.5 -0.109857 0.419863
1.40143 0.5 0.109857 0.419894
1.14834 0.5 -0.810995 0.211806
1.14834 0.5 0.810995 0.211923
1.3642 0.5 0.340741 0.366247
1.3642 0.5 -0.340741 0.365844
1.2354 0.5 0.674454 0.251271
1.2354 0.5 -0.674454 0.25115
0.151552 0.5 1.4 0.115816
0.151552 0.5 -1.4 0.115745
1.40143 0.5 0.183096 0.411305
1.40143 0.5 -0.183096 0.411255
1.41413 0.5 1.15648e-18 0.429575
1 0.5 -1 0.168585
1 0.5 1 0.168693
1.41413 0.5 -0.0723911 0.42736
1.41413 0.5 0.0723911 0.427469
1.38524 0.5 -0.297269 0.383264
1.38524 0.5 0.297269 0.383417
0.67013 0.5 -1.25 0.12984
0.67013 0.5 1.25 0.129925
1.22029 0.5 0.725171 0.237637
1.22029 0.5 -0.725171 0.236964
0.835106 0.5 -1.15 0.143747
0.835106 0.5 1.15 0.143841
1.41413 0.5 -0.144782 0.420837
1.41413 0.5 0.144782 0.421055
1.30828 0.5 0.556137 0.293715
1.30828 0.5 -0.556137 0.293371
1.12467 0.5 0.87104 0.198265
1.12467 0.5 -0.87104 0.19806
1.40143 0.5 0.256334 0.398557
1.40143 0.5 -0.256334 0.398486
1.33249 0.5 0.50592 0.317117
1.33249 0.5 -0.50592 0.313204
1.3642 0.5 -0.416461 0.346163
1.3642 0.5 0.416461 0.346633
1.35048 0.5 0.459808 0.33048
1.35048 0.5 -0.459808 0.330368
1.19294 0.5 -0.78423 0.220792
1.19297 0.5 0.784217 0.220902
1.29471 0.5 0.602643 0.27865
1.29471 0.5 -0.602643 0.278526
0.467897 0.5 -1.35 0.119029
0.467897 0.5 1.35 0.117537
0.969689 0.5 1.05 0.160753
0.969689 0.5 -1.05 0.160463
0.288433 0.5 1.4 0.115242
0.288433 0.5 -1.4 0.11517
1.05773 0.5 -0.961516 0.176542
1.05773 0.5 0.961516 0.177008
1.41413 0.5 -0.217173 0.410075
1.41413 0.5 0.217173 0.410398
0 0.5 -1.43168 0.113658
0 0.5 1.43168 0.113728
1.38524 0.5 0.371586 0.365181
1.38524 0.5 -0.371586 0.364994
1.43384 0.5 0.0355385 0.438929
1.43384 0.5 -0.0355385 0.438911
1.27974 0.5 0.650804 0.263417
1.27974 0.5 -0.650804 0.262863
1.43384 0.5 -0.106616 0.434565
1.43384 0.5 0.106616 0.434621
1.16437 0.5 -0.845898 0.205419
1.16437 0.5 0.845898 0.205542
1.40143 0.5 0.329573 0.3819
1.40143 0.5 -0.329573 0.38181
1.25536 0.5 0.705298 0.245691
1.25536 0.5 -0.705298 0.245494
1.09383 0.5 -0.937443 0.182981
1.09383 0.5 0.937443 0.183276
0.797951 0.5 -1.2 0.137067
0.797951 0.5 1.2 0.137159
0.624584 0.5 -1.3 0.124428
0.624584 0.5 1.3 0.124511
1.41413 0.5 0.289564 0.395667
1.41413 0.5 -0.289564 0.395243
1.43384 0.5 0.177693 0.425998
1.43384 0.5 -0.177693 0.425905
0.939379 0.5 -1.1 0.15266
0.939379 0.5 1.1 0.152761
1.4493 0.5 0 0.446094
1.3791 0.5 0.445903 0.343868
1.2354 0.5 0.758761 0.230193
1.2354 0.5 -0.758761 0.230063
1.3642 0.5 0.492182 0.324497
1.3642 0.5 -0.492182 0.323975
1.4493 0.5 -0.0700466 0.44392
1.4493 0.5 0.0700466 0.443941
0.075776 0.5 1.45 0.112349
0.075776 0.5 -1.45 0.112278
1.35048 0.5 0.536443 0.307765
1.35048 0.5 -0.536443 0.307639
1.30828 0.5 -0.635586 0.270567
1.30828 0.5 0.635586 0.270928
1.33249 0.5 0.583754 0.290438
1.33249 0.5 -0.583754 0.290156
1.02554 0.5 -1.03193 0.16233
1.02554 0.5 1.03193 0.162464
1.38524 0.5 -0.445903 0.343651
1.43384 0.5 -0.24877 0.413023
1.43384 0.5 0.24877 0.413152
1.4493 0.5 -0.140093 0.437421
1.4493 0.5 0.140093 0.437463
1.40143 0.5 0.402811 0.361746
1.40143 0.5 -0.402811 0.361637
0.412065 0.5 1.4 0.114892
0.412065 0.5 -1.4 0.114817
1.14834 0.5 -0.901106 0.193198
1.14834 0.5 0.901106 0.193321
1.41413 0.5 -0.361955 0.376658
1.41413 0.5 0.361955 0.377174
1.4605 0.5 -0.0346501 0.451024
1.4605 0.5 0.0346501 0.451081
0.756813 0.5 -1.25 0.130871
0.756813 0.5 1.25 0.130961
1.29471 0.5 0.682996 0.255908
1.29471 0.5 -0.682996 0.255772
0.90582 0.5 -1.15 0.145127
0.90582 0.5 1.15 0.145227
1.4605 0.5 0.10395 0.446813
1.4605 0.5 -0.10395 0.446645
1.4493 0.5 -0.21014 0.42663
1.4493 0.5 0.21014 0.426692
1.22029 0.5 0.810485 0.217123
1.22029 0.5 -0.810485 0.216459
0.219992 0.5 1.45 0.111824
0.219993 0.5 -1.45 0.111752
1.07643 0.5 -0.996497 0.171691
1.07643 0.5 0.996497 0.171807
0.574156 0.5 1.35 0.11783
0.574156 0.5 -1.35 0.119426
0 0.5 1.46832 0.111035
0 0.5 -1.46832 0.110964
1.43384 0.5 -0.319846 0.396113
1.43384 0.5 0.319846 0.396276
1.4605 0.5 -0.173251 0.43794
1.4605 0.5 0.173251 0.43822
1.27974 0.5 0.732154 0.241247
1.27974 0.5 -0.732154 0.240691
1.4493 0.5 -0.280186 0.411658
1.4493 0.5 0.280186 0.411741
1.38255 0.5 0.520221 0.32071
1.19294 0.5 -0.871367 0.201258
1.19297 0.5 0.871352 0.201376
1.3642 0.5 -0.567902 0.300161
1.3642 0.5 0.567902 0.303669
1.47924 0.5 3.46945e-19 0.46086
1.41413 0.5 -0.434347 0.354829
1.41413 0.5 0.434347 0.355423
1.38524 0.5 -0.520221 0.320098
1.40143 0.5 -0.47605 0.338598
1.40143 0.5 0.47605 0.338724
1.12467 0.5 0.962728 0.180596
1.12467 0.5 -0.962728 0.180392
1.4605 0.5 -0.242551 0.424966
1.4605 0.5 0.242551 0.425354
1.47924 0.5 -0.0680509 0.458687
1.47924 0.5 0.0680509 0.458723
1.25536 0.5 0.788274 0.224386
1.25536 0.5 -0.788274 0.224183
1.35048 0.5 0.613077 0.283853
1.35048 0.5 -0.613077 0.283713
0.872262 0.5 -1.2 0.138175
0.872262 0.5 1.2 0.138273
0.715676 0.5 -1.3 0.125171
0.715676 0.5 1.3 0.125259
1.47924 0.5 -0.136102 0.452191
1.47924 0.5 0.136102 0.452265
1.43384 0.5 -0.390924 0.375556
1.43384 0.5 0.390924 0.37575
1 0.5 -1.1 0.152906
1 0.5 1.1 0.153018
1.33249 0.5 -0.661588 0.266412
1.33249 0.5 0.661588 0.266707
1.30828 0.5 0.715034 0.248038
1.30828 0.5 -0.715034 0.24767
1.4493 0.5 -0.350233 0.392771
1.4493 0.5 0.350233 0.392874
0.350249 0.5 1.45 0.111092
0.350249 0.5 -1.45 0.111018
1.47924 0.5 -0.204153 0.441376
1.47924 0.5 0.204153 0.441486
1.16437 0.5 0.934941 0.187038
1.16437 0.5 -0.934941 0.18691
1.4605 0.5 0.311851 0.408357
1.4605 0.5 -0.311851 0.407865
1.49306 0.5 -0.0335648 0.467776
1.49306 0.5 0.0335648 0.467787
0.523729 0.5 1.4 0.114923
0.523729 0.5 -1.4 0.114843
1.2354 0.5 0.843067 0.20977
1.2354 0.5 -0.843067 0.209633
1.05773 0.5 -1.05767 0.160185
1.05773 0.5 1.05767 0.160633
1.49306 0.5 -0.100694 0.463464
1.49306 0.5 0.100694 0.463496
0 0.5 -1.5 0.108689
0 0.5 1.5 0.10876
1.41413 0.5 -0.506738 0.33059
1.41413 0.5 0.506738 0.331237
1.49306 0.5 -0.167824 0.454819
1.49306 0.5 0.167824 0.454872
1.29471 0.5 0.763348 0.233582
1.29471 0.5 -0.763348 0.233437
1.09383 0.5 -1.03118 0.166336
1.09383 0.5 1.03118 0.166624
0.835106 0.5 -1.25 0.131732
0.835106 0.5 1.25 0.131829
1.504 0.5 -2.08167e-17 0.47305
1.47924 0.5 -0.272204 0.426299
1.47924 0.5 0.272204 0.426445
0.969689 0.5 1.15 0.146317
0.969689 0.5 -1.15 0.146038
1.38303 0.5 0.593987 0.296037
1.40143 0.5 -0.549288 0.313779
1.40143 0.5 0.549288 0.31392
1.504 0.5 -0.0663999 0.470853
1.504 0.5 0.0663999 0.470962
1.43384 0.5 -0.462001 0.351929
1.43384 0.5 0.462001 0.352153
0.67013 0.5 -1.35 0.119887
0.67013 0.5 1.35 0.118186
1.38524 0.5 -0.594539 0.295198
0.151552 0.5 -1.5 0.108644
0.151552 0.5 1.5 0.108715
1.3642 0.5 -0.643622 0.275507
1.3642 0.5 0.643622 0.276082