# pMean  POINT_DATA 37934
# x  y  z  pMean
0 0.1 0 0.220817
0 0.1 -0.0333777 0.220816
0 0.1 0.0333777 0.220818
0 0.1 -0.0666223 0.220634
0 0.1 0.0666223 0.220638
0.075776 0.1 -0.05 0.21996
0.075776 0.1 0.05 0.219963
0 0.1 -0.1 0.220271
0 0.1 0.1 0.220277
0 0.1 -0.133378 0.219909
0 0.1 0.133378 0.219918
0.151552 0.1 0 0.215377
0 0.1 -0.166622 0.219364
0 0.1 0.166622 0.219374
0.075776 0.1 -0.15 0.218844
0.075776 0.1 0.15 0.218854
0.151552 0.1 -0.1 0.214728
0.151552 0.1 0.1 0.214735
0 0.1 -0.2 0.218633
0 0.1 0.2 0.218646
0.219992 0.1 -0.05 0.211252
0.219992 0.1 0.05 0.211256
0 0.1 0.233378 0.217922
0 0.1 -0.233378 0.217907
0.151552 0.1 -0.2 0.212816
0.151552 0.1 0.2 0.21283
0.075776 0.1 -0.25 0.216609
0.075776 0.1 0.25 0.216626
0.219992 0.1 -0.15 0.209801
0.219992 0.1 0.15 0.209812
0 0.1 0.266622 0.216999
0 0.1 -0.266622 0.216981
0.288433 0.1 0 0.212554
0 0.1 -0.3 0.215848
0 0.1 0.3 0.215868
0.288433 0.1 -0.1 0.211816
0.288433 0.1 0.1 0.211823
0.219992 0.1 -0.25 0.206986
0.219992 0.1 0.25 0.207005
0 0.1 -0.333378 0.214722
0 0.1 0.333378 0.214744
0.151552 0.1 -0.3 0.209692
0.151552 0.1 0.3 0.209714
0.288433 0.1 -0.2 0.209638
0.288433 0.1 0.2 0.209654
0.350249 0.1 0.05 0.214954
0.350249 0.1 -0.05 0.21495
0.075776 0.1 0.35 0.213209
0.075776 0.1 -0.35 0.213186
0 0.1 -0.366622 0.213414
0 0.1 0.366622 0.213438
0.350249 0.1 -0.15 0.21347
0.350249 0.1 0.15 0.213482
0 0.1 -0.4 0.211912
0 0.1 0.4 0.211939
0.412065 0.1 1.85037e-17 0.219468
0.219992 0.1 -0.35 0.203
0.219992 0.1 0.35 0.203025
0.288433 0.1 -0.3 0.206131
0.288433 0.1 0.3 0.206153
0.412065 0.1 -0.1 0.218667
0.412065 0.1 0.1 0.218675
0.151552 0.1 -0.4 0.205448
0.151552 0.1 0.4 0.205476
0.350249 0.1 -0.25 0.210542
0.350249 0.1 0.25 0.210562
0 0.1 0.433378 0.210447
0 0.1 -0.433378 0.210417
0.075776 0.1 -0.45 0.208665
0.075776 0.1 0.45 0.208696
0.412065 0.1 -0.2 0.216294
0.412065 0.1 0.2 0.216311
0 0.1 -0.466622 0.208762
0 0.1 0.466622 0.208793
0.467897 0.1 0.05 0.224176
0.467897 0.1 -0.05 0.224171
0.467897 0.1 -0.15 0.222449
0.467897 0.1 0.15 0.222463
0.288433 0.1 -0.4 0.20144
0.288433 0.1 0.4 0.201469
0.350249 0.1 -0.35 0.206285
0.350249 0.1 0.35 0.206311
0 0.1 -0.5 0.20693
0 0.1 0.5 0.206963
0.219992 0.1 -0.45 0.197976
0.219992 0.1 0.45 0.198008
0.412065 0.1 -0.3 0.212433
0.412065 0.1 0.3 0.212458
0.151552 0.1 -0.5 0.200197
0.151552 0.1 0.5 0.200231
0.523729 0.1 -1.23276e-17 0.230618
0.467897 0.1 -0.25 0.219081
0.467897 0.1 0.25 0.219103
0.523729 0.1 -0.1 0.229687
0.523729 0.1 0.1 0.229696
0 0.1 -0.533378 0.205105
0 0.1 0.533378 0.20514
0.075776 0.1 -0.55 0.203162
0.075776 0.1 0.55 0.203199
0.523729 0.1 -0.2 0.226939
0.523729 0.1 0.2 0.226957
0 0.1 0.566622 0.20318
0 0.1 -0.566622 0.203143
0.350249 0.1 0.45 0.200852
0.350249 0.1 -0.45 0.200818
0.412065 0.1 -0.4 0.20721
0.412065 0.1 0.4 0.207241
0.574156 0.1 -0.05 0.236935
0.574156 0.1 0.05 0.23694
0.288433 0.1 -0.5 0.195698
0.288433 0.1 0.5 0.195734
0.467897 0.1 -0.35 0.214187
0.467897 0.1 0.35 0.214217
0.219992 0.1 -0.55 0.192016
0.219992 0.1 0.55 0.192054
0.574156 0.1 -0.15 0.234953
0.574156 0.1 0.15 0.234967
0 0.1 -0.6 0.201024
0 0.1 0.6 0.201063
0.523729 0.1 -0.3 0.222479
0.523729 0.1 0.3 0.222505
0.151552 0.1 -0.6 0.194068
0.151552 0.1 0.6 0.194108
0.624584 0.1 -1.23276e-17 0.244407
0.574156 0.1 0.25 0.231087
0.574156 0.1 -0.25 0.231065
0.624584 0.1 -0.1 0.243336
0.624584 0.1 0.1 0.243343
0 0.1 0.633378 0.198954
0 0.1 -0.633378 0.198912
0.412065 0.1 -0.5 0.200782
0.412065 0.1 0.5 0.200821
0.467897 0.1 -0.45 0.207916
0.467897 0.1 0.45 0.207952
0.350249 0.1 0.55 0.194351
0.350249 0.1 -0.55 0.194311
0.075776 0.1 0.65 0.196853
0.075776 0.1 -0.65 0.196809
0.624584 0.1 -0.2 0.240167
0.624584 0.1 0.2 0.240183
0.523729 0.1 -0.4 0.216461
0.523729 0.1 0.4 0.216494
0.288433 0.1 -0.6 0.189064
0.288433 0.1 0.6 0.189106
0 0.1 -0.666622 0.19669
0 0.1 0.666622 0.196734
0.67013 0.1 0.05 0.251531
0.67013 0.1 -0.05 0.251527
0.574156 0.1 -0.35 0.225424
0.574156 0.1 0.35 0.225452
0.219992 0.1 0.65 0.185343
0.219992 0.1 -0.65 0.185299
0.67013 0.1 -0.15 0.249241
0.67013 0.1 0.15 0.24925
0.624584 0.1 -0.3 0.235025
0.624584 0.1 0.3 0.235049
0 0.1 -0.7 0.194335
0 0.1 0.7 0.19438
0.67013 0.1 -0.25 0.244755
0.67013 0.1 0.25 0.244773
0.715676 0.1 -9.25186e-18 0.259617
0.151552 0.1 -0.7 0.187214
0.151552 0.1 0.7 0.18726
0.467897 0.1 -0.55 0.20047
0.467897 0.1 0.55 0.200514
0.715676 0.1 -0.1 0.258382
0.715676 0.1 0.1 0.258389
0.523729 0.1 -0.5 0.209082
0.523729 0.1 0.5 0.209122
0.412065 0.1 -0.6 0.193345
0.412065 0.1 0.6 0.19339
0.574156 0.1 0.45 0.218253
0.574157 0.1 -0.45 0.218217
0 0.1 -0.733378 0.191987
0 0.1 0.733378 0.192035
0.350249 0.1 -0.65 0.18695
0.350249 0.1 0.65 0.186996
0.624584 0.1 -0.4 0.228101
0.624584 0.1 0.4 0.228133
0.715676 0.1 -0.2 0.25473
0.715676 0.1 0.2 0.254744
0.075776 0.1 0.75 0.189806
0.075776 0.1 -0.75 0.189758
0.67013 0.1 -0.35 0.238255
0.67013 0.1 0.35 0.238283
0.288433 0.1 -0.7 0.181709
0.288433 0.1 0.7 0.181757
0.756813 0.1 -0.05 0.267246
0.756813 0.1 0.05 0.26725
0 0.1 -0.766622 0.189555
0 0.1 0.766622 0.189605
0.756813 0.1 -0.15 0.264614
0.756813 0.1 0.15 0.264624
0.715676 0.1 -0.3 0.248809
0.715676 0.1 0.3 0.248833
0.219992 0.1 0.75 0.178016
0.219992 0.1 -0.75 0.177967
0.574156 0.1 -0.55 0.209693
0.574157 0.1 0.55 0.209738
0.523729 0.1 -0.6 0.200576
0.523729 0.1 0.6 0.200624
0.756814 0.1 -0.25 0.259453
0.756814 0.1 0.25 0.259472
0.797951 0.1 -1.23399e-17 0.275755
0 0.1 0.8 0.187068
0 0.1 -0.8 0.187016
0.624584 0.1 -0.5 0.219636
0.624584 0.1 0.5 0.219677
0.467897 0.1 -0.65 0.192065
0.467897 0.1 0.65 0.192114
0.797951 0.1 -0.1 0.274339
0.797951 0.1 0.1 0.274347
0.67013 0.1 -0.45 0.229976
0.67013 0.1 0.45 0.230011
0.412065 0.1 -0.7 0.1851
0.412065 0.1 0.7 0.185149
0.151552 0.1 -0.8 0.17978
0.151552 0.1 0.8 0.179832
0.715676 0.1 -0.4 0.240852
0.715676 0.1 0.4 0.240884
0.797951 0.1 -0.2 0.270154
0.797951 0.1 0.2 0.27017
0.350249 0.1 -0.75 0.178907
0.350249 0.1 0.75 0.178959
0 0.1 0.833378 0.184538
0 0.1 -0.833378 0.184484
0.756813 0.1 -0.35 0.251985
0.756813 0.1 0.35 0.252014
0.835106 0.1 0.05 0.283704
0.835106 0.1 -0.05 0.2837
0.835106 0.1 -0.15 0.280694
0.835106 0.1 0.15 0.280708
0.288433 0.1 -0.8 0.17379
0.288433 0.1 0.8 0.173844
0.797951 0.1 -0.3 0.263369
0.797951 0.1 0.3 0.263394
0.075776 0.1 -0.85 0.182159
0.075776 0.1 0.85 0.183598
0.624584 0.1 -0.6 0.209919
0.624584 0.1 0.6 0.209968
0 0.1 0.866622 0.18195
0 0.1 -0.866622 0.181894
0.67013 0.1 -0.55 0.220206
0.67013 0.1 0.55 0.220253
0.574156 0.1 0.65 0.200173
0.574157 0.1 -0.65 0.200121
0.835106 0.1 -0.25 0.274806
0.835106 0.1 0.25 0.274826
0.872262 0.1 -1.54156e-17 0.292344
0.715676 0.1 -0.5 0.231148
0.715676 0.1 0.5 0.231189
0.523729 0.1 -0.7 0.191191
0.523729 0.1 0.7 0.191244
0.872262 0.1 -0.1 0.290734
0.872262 0.1 0.1 0.290744
0.219992 0.1 0.85 0.171902
0.219993 0.1 -0.85 0.170161
0.756814 0.1 -0.45 0.242491
0.756814 0.1 0.45 0.242527
0.467897 0.1 -0.75 0.182925
0.467897 0.1 0.75 0.182978
0.797951 0.1 -0.4 0.254271
0.797951 0.1 0.4 0.254304
0.872262 0.1 -0.2 0.285977
0.872262 0.1 0.2 0.285996
0.412065 0.1 0.8 0.176301
0.412065 0.1 -0.8 0.176246
0 0.1 0.9 0.179281
0 0.1 -0.9 0.179223
0.835106 0.1 -0.35 0.266272
0.835106 0.1 0.35 0.266301
0.90582 0.1 -0.05 0.300339
0.90582 0.1 0.05 0.300345
0.151552 0.1 0.9 0.171967
0.151552 0.1 -0.9 0.17191
0.90582 0.1 -0.15 0.296937
0.90582 0.1 0.15 0.296953
0.350249 0.1 0.85 0.171814
0.350249 0.1 -0.85 0.170363
0.872262 0.1 -0.3 0.278266
0.872262 0.1 0.3 0.278291
0 0.1 0.933378 0.176619
0 0.1 -0.933378 0.17656
0.67013 0.1 -0.65 0.209291
0.67013 0.1 0.65 0.209345
0.715676 0.1 -0.6 0.220055
0.715676 0.1 0.6 0.220105
0.756813 0.1 0.55 0.231376
0.756813 0.1 -0.55 0.231332
0.624584 0.1 -0.7 0.199256
0.624584 0.1 0.7 0.199313
0.939379 0.1 0 0.308997
0.90582 0.1 -0.25 0.290274
0.90582 0.1 0.25 0.290296
0.797951 0.1 -0.5 0.243222
0.797951 0.1 0.5 0.243262
0.574156 0.1 0.75 0.189839
0.574156 0.1 -0.75 0.189779
0.939379 0.1 -0.1 0.307191
0.939379 0.1 0.1 0.307202
0.288433 0.1 0.9 0.165525
0.288433 0.1 -0.9 0.165466
0.835106 0.1 -0.45 0.255488
0.835106 0.1 0.45 0.255524
0.075776 0.1 0.95 0.174231
0.075776 0.1 -0.95 0.174171
0.523729 0.1 0.8 0.181236
0.523729 0.1 -0.8 0.181178
0.872262 0.1 -0.4 0.267939
0.872262 0.1 0.4 0.267972
0.939379 0.1 -0.2 0.301857
0.939379 0.1 0.2 0.301876
0 0.1 0.966622 0.173925
0 0.1 -0.966622 0.173864
0.467897 0.1 0.85 0.174635
0.467897 0.1 -0.85 0.173278
0.969689 0.1 0.05 0.316881
0.96969 0.1 -0.05 0.316877
0.90582 0.1 -0.35 0.280628
0.90582 0.1 0.35 0.280658
0.219992 0.1 0.95 0.162073
0.219992 0.1 -0.95 0.162013
0.969689 0.1 -0.15 0.313085
0.969689 0.1 0.15 0.313103
0.939379 0.1 -0.3 0.293211
0.939379 0.1 0.3 0.293236
0.412065 0.1 0.9 0.167051
0.412065 0.1 -0.9 0.16699
0.756813 0.1 -0.65 0.218922
0.756813 0.1 0.65 0.218975
0.797951 0.1 -0.6 0.230625
0.797951 0.1 0.6 0.230675
0.835106 0.1 -0.55 0.242852
0.835106 0.1 0.55 0.242897
0 0.1 1 0.171175
0 0.1 -1 0.171112
1 0.1 0 0.325024
0.715676 0.1 -0.7 0.20795
0.715676 0.1 0.7 0.208007
0.96969 0.1 -0.25 0.305657
0.96969 0.1 0.25 0.305678
1 0.1 -0.1 0.323001
1 0.1 0.1 0.323013
0.872262 0.1 -0.5 0.255437
0.872262 0.1 0.5 0.255478
0.67013 0.1 0.75 0.197625
0.67013 0.1 -0.75 0.197563
0.151552 0.1 1 0.163807
0.151552 0.1 -1 0.163744
0.90582 0.1 -0.45 0.268434
0.90582 0.1 0.45 0.268472
0.350249 0.1 0.95 0.161566
0.350249 0.1 -0.95 0.161505
0.624584 0.1 -0.8 0.187955
0.624584 0.1 0.8 0.18802
1.01772 0.1 -0.0494093 0.329335
1.01772 0.1 0.0494093 0.32934
1 0.1 -0.2 0.317019
1 0.1 0.2 0.317038
0.939379 0.1 -0.4 0.281627
0.939379 0.1 0.4 0.281661
0.574157 0.1 0.85 0.179002
0.574157 0.1 -0.85 0.178937
1.01772 0.1 -0.148228 0.325225
1.01772 0.1 0.148228 0.325243
0.969689 0.1 -0.35 0.294903
0.969689 0.1 0.35 0.294934
0 0.1 -1.03338 0.168366
0 0.1 1.03338 0.168431
0.288433 0.1 1 0.156945
0.288433 0.1 -1 0.156881
0.523729 0.1 0.9 0.170843
0.523729 0.1 -0.9 0.170779
1 0.1 -0.3 0.307321
1 0.1 0.3 0.307346
1.01772 0.1 0.247046 0.317185
1.01772 0.1 -0.247046 0.317166
1.05262 0.1 4.04769e-19 0.34035
0.075776 0.1 -1.05 0.165941
0.075776 0.1 1.05 0.166007
1.05262 0.1 -0.0964922 0.338265
1.05262 0.1 0.0964922 0.338287
0.835106 0.1 -0.65 0.228814
0.835106 0.1 0.65 0.22887
0.872262 0.1 -0.6 0.241226
0.872262 0.1 0.6 0.241277
0.467897 0.1 0.95 0.163407
0.467897 0.1 -0.95 0.163341
0.90582 0.1 -0.55 0.254198
0.90582 0.1 0.55 0.254244
0.797951 0.1 -0.7 0.216939
0.797951 0.1 0.7 0.216999
0.939379 0.1 -0.5 0.267621
0.939379 0.1 0.5 0.267663
0.756814 0.1 -0.75 0.20567
0.756813 0.1 0.75 0.205733
0 0.1 1.06662 0.165683
0 0.1 -1.06662 0.165616
0.969689 0.1 0.45 0.281331
0.96969 0.1 -0.45 0.281293
1.05262 0.1 -0.192985 0.332099
1.05262 0.1 0.192985 0.33214
0.219992 0.1 -1.05 0.153657
0.219992 0.1 1.05 0.153724
0.715676 0.1 -0.8 0.195201
0.715676 0.1 0.8 0.195267
1.01772 0.1 0.345865 0.305522
1.01772 0.1 -0.345865 0.305493
1 0.1 -0.4 0.294326
1 0.1 0.4 0.29436
1.07643 0.1 -0.0474523 0.347278
1.07643 0.1 0.0474523 0.347281
0.412065 0.1 1 0.157583
0.412065 0.1 -1 0.157517
0.67013 0.1 0.85 0.185432
0.67013 0.1 -0.85 0.185363
1.07643 0.1 -0.142357 0.34314
1.07643 0.1 0.142357 0.343155
1.05262 0.1 -0.289476 0.322086
1.05262 0.1 0.289476 0.322144
0.624584 0.1 0.9 0.17638
0.624584 0.1 -0.9 0.176311
1.09647 0.1 9.8301e-18 0.353027
0 0.1 1.1 0.162904
0 0.1 -1.1 0.162837
1.09647 0.1 -0.0935685 0.350917
1.09647 0.1 0.0935685 0.350998
1.07643 0.1 0.237261 0.335016
1.07643 0.1 -0.237261 0.335001
0.350249 0.1 1.05 0.15253
0.350249 0.1 -1.05 0.152461
0.574156 0.1 0.95 0.169594
0.574156 0.1 -0.95 0.167851
0.151552 0.1 1.1 0.155487
0.151552 0.1 -1.1 0.15542
1.01772 0.1 -0.444684 0.290721
1.01772 0.1 0.444684 0.290758
1.09647 0.1 -0.187137 0.344731
1.09647 0.1 0.187137 0.344887
0.939379 0.1 -0.6 0.251765
0.939379 0.1 0.6 0.251818
0.96969 0.1 0.55 0.265504
0.96969 0.1 -0.55 0.265455
0.90582 0.1 0.65 0.238509
0.90582 0.1 -0.65 0.238451
1 0.1 -0.5 0.278642
1 0.1 0.5 0.278685
0.872262 0.1 -0.7 0.22585
0.872262 0.1 0.7 0.225913
1.05262 0.1 -0.385969 0.308634
1.05262 0.1 0.385969 0.308711
0.835106 0.1 -0.75 0.213916
0.835106 0.1 0.75 0.213984
1.12316 0.1 -0.0458947 0.36074
1.12316 0.1 0.0458947 0.360765
1.07643 0.1 -0.332166 0.323167
1.07643 0.1 0.332166 0.323195
0.523729 0.1 1 0.160292
0.523729 0.1 -1 0.160223
0.797951 0.1 -0.8 0.202622
0.797951 0.1 0.8 0.202692
1.12316 0.1 -0.137684 0.356576
1.12316 0.1 0.137684 0.356652
1.09647 0.1 -0.280706 0.334683
1.09647 0.1 0.280706 0.334909
0 0.1 -1.13338 0.160065
0 0.1 1.13338 0.160132
0.288433 0.1 1.1 0.148223
0.288433 0.1 -1.1 0.148154
0.756813 0.1 0.85 0.192047
0.756813 0.1 -0.85 0.191975
1.12316 0.1 -0.229473 0.348397
1.12316 0.1 0.229473 0.348513
1.14834 0.1 0 0.36893
0.467897 0.1 1.05 0.153385
0.467897 0.1 -1.05 0.153316
0.715676 0.1 0.9 0.182237
0.715676 0.1 -0.9 0.182163
1.14834 0.1 -0.0901106 0.366839
1.14834 0.1 0.0901106 0.366848
0.075776 0.1 1.15 0.157694
0.075776 0.1 -1.15 0.156334
1.01772 0.1 -0.543502 0.273556
1.01772 0.1 0.543502 0.273605
1.05262 0.1 -0.482461 0.292343
1.05262 0.1 0.482461 0.292437
1.07643 0.1 -0.427071 0.308117
1.07643 0.1 0.427071 0.308151
1.09647 0.1 -0.374274 0.321159
1.09647 0.1 0.374274 0.32145
1.14834 0.1 -0.180221 0.360628
1.14834 0.1 0.180221 0.360644
0.67013 0.1 0.95 0.174935
0.67013 0.1 -0.95 0.172996
1 0.1 -0.6 0.260953
1 0.1 0.6 0.261009
0 0.1 1.16662 0.15738
0 0.1 -1.16662 0.157311
0.969689 0.1 -0.65 0.248008
0.969689 0.1 0.65 0.24807
1.12316 0.1 0.321263 0.336651
1.12316 0.1 -0.321263 0.336491
1.16984 0.1 -0.0443387 0.375303
1.16984 0.1 0.0443387 0.375312
0.219992 0.1 1.15 0.145266
0.219992 0.1 -1.15 0.144151
0.939379 0.1 -0.7 0.234672
0.939379 0.1 0.7 0.234738
0.412065 0.1 1.1 0.148049
0.412065 0.1 -1.1 0.147979
0.90582 0.1 -0.75 0.221825
0.90582 0.1 0.75 0.221895
1.16984 0.1 -0.133016 0.371103
1.16984 0.1 0.133016 0.371131
0.624584 0.1 1 0.164659
0.624584 0.1 -1 0.164584
1.14834 0.1 -0.270332 0.350493
1.14834 0.1 0.270332 0.350515
0.872262 0.1 -0.8 0.209866
0.872262 0.1 0.8 0.209941
1.16984 0.1 -0.221694 0.362811
1.16984 0.1 0.221694 0.362858
0.835106 0.1 -0.85 0.198632
0.835106 0.1 0.85 0.19871
1.09647 0.1 -0.467843 0.304707
1.09647 0.1 0.467843 0.305052
1.07643 0.1 -0.521975 0.290528
1.07643 0.1 0.521975 0.290575
1.12316 0.1 -0.413052 0.321312
1.12316 0.1 0.413052 0.321508
0.574156 0.1 -1.05 0.156748
0.574156 0.1 1.05 0.156823
1.19994 0.1 -3.3538e-17 0.385104
0 0.1 1.2 0.154623
0 0.1 -1.2 0.154552
1.05262 0.1 -0.578953 0.273907
1.05262 0.1 0.578953 0.274021
0.350249 0.1 1.15 0.143426
0.350249 0.1 -1.15 0.141875
0.797951 0.1 0.9 0.188163
0.797951 0.1 -0.9 0.188085
1.19994 0.1 -0.0866707 0.382997
1.19994 0.1 0.0866707 0.383004
1.01772 0.1 -0.642321 0.254688
1.01772 0.1 0.642321 0.254752
1.14834 0.1 -0.360442 0.336799
1.14834 0.1 0.360442 0.336828
0.151552 0.1 1.2 0.147115
0.151552 0.1 -1.2 0.147044
1.16984 0.1 -0.310371 0.350714
1.16984 0.1 0.310371 0.350776
1.19994 0.1 0.173341 0.376738
1.19994 0.1 -0.173341 0.376723
0.756813 0.1 -0.95 0.178195
0.756813 0.1 0.95 0.179991
1.21398 0.1 -0.0428671 0.389119
1.21398 0.1 0.0428671 0.389125
0.523729 0.1 1.1 0.149784
0.523729 0.1 -1.1 0.14971
1 0.1 -0.7 0.241955
1 0.1 0.7 0.242025
1.21398 0.1 -0.128601 0.384905
1.21398 0.1 0.128601 0.384915
0.96969 0.1 -0.75 0.229626
0.96969 0.1 0.75 0.229699
1.19994 0.1 -0.260012 0.36646
1.19994 0.1 0.260012 0.366483
0.715676 0.1 1 0.169223
0.715676 0.1 -1 0.169143
1.12316 0.1 -0.504842 0.303433
1.12316 0.1 0.504842 0.303667
1.09647 0.1 -0.561411 0.286001
1.09647 0.1 0.561411 0.286393
1.21398 0.1 -0.214335 0.376552
1.21398 0.1 0.214335 0.376571
0 0.1 1.23338 0.151872
0 0.1 -1.23338 0.1518
1.14834 0.1 -0.450553 0.320037
1.14834 0.1 0.450553 0.320076
0.939379 0.1 -0.8 0.216984
0.939379 0.1 0.8 0.217062
0.288433 0.1 1.2 0.139441
0.288433 0.1 -1.2 0.139369
1.23589 0.1 -8.70253e-18 0.395839
1.16984 0.1 -0.399048 0.335242
1.16984 0.1 0.399048 0.335318
1.23589 0.1 0.084274 0.39374
1.23589 0.1 -0.084274 0.393725
1.07643 0.1 -0.61688 0.271074
1.07643 0.1 0.61688 0.271137
0.467897 0.1 1.15 0.143437
0.467897 0.1 -1.15 0.141723
0.90582 0.1 0.85 0.20495
0.90582 0.1 -0.85 0.204868
0.67013 0.1 1.05 0.160802
0.67013 0.1 -1.05 0.160723
1.23589 0.1 -0.168548 0.38743
1.23589 0.1 0.168548 0.387461
1.19994 0.1 -0.346683 0.352556
1.19994 0.1 0.346683 0.352584
1.21398 0.1 -0.30007 0.364332
1.21398 0.1 0.30007 0.364358
1.05262 0.1 -0.675446 0.254038
1.05262 0.1 0.675446 0.25417
0.075776 0.1 1.25 0.14943
0.075776 0.1 -1.25 0.149358
0.872262 0.1 -0.9 0.19375
0.872262 0.1 0.9 0.193833
1.25537 0.1 -0.0414875 0.401753
1.25537 0.1 0.0414875 0.401757
1.01772 0.1 -0.741139 0.234862
1.01772 0.1 0.741139 0.234939
1.23589 0.1 -0.252822 0.377112
1.23589 0.1 0.252822 0.377164
1.25537 0.1 -0.124462 0.397542
1.25537 0.1 0.124462 0.397543
0.835106 0.1 0.95 0.183456
0.835106 0.1 -0.95 0.183371
0.624584 0.1 1.1 0.153082
0.624584 0.1 -1.1 0.153004
0 0.1 1.26662 0.149145
0 0.1 -1.26662 0.149072
1.16984 0.1 -0.487726 0.31692
1.16984 0.1 0.487726 0.317019
0.412065 0.1 1.2 0.138581
0.412065 0.1 -1.2 0.138507
0.219992 0.1 -1.25 0.136684
0.219992 0.1 1.25 0.136758
1.14834 0.1 -0.540664 0.300863
1.14834 0.1 0.540664 0.300917
1.12316 0.1 -0.596631 0.283588
1.12316 0.1 0.596631 0.283855
1.25537 0.1 -0.207437 0.389168
1.25537 0.1 0.207437 0.389182
1.21398 0.1 0.385804 0.348692
1.21398 0.1 -0.385804 0.348661
1.19994 0.1 -0.433353 0.33547
1.19994 0.1 0.433353 0.335509
1.27678 0.1 2.18286e-17 0.408324
1.09647 0.1 -0.654979 0.265751
1.09647 0.1 0.654979 0.266178
0.797951 0.1 1 0.173772
0.797951 0.1 -1 0.173687
1.27678 0.1 -0.0815477 0.406195
1.27678 0.1 0.0815477 0.406238
1 0.1 -0.8 0.222413
1 0.1 0.8 0.222496
1.23589 0.1 0.337096 0.363175
1.23589 0.1 -0.337096 0.363107
0.574156 0.1 1.15 0.14591
0.574156 0.1 -1.15 0.143971
1.27678 0.1 -0.163095 0.399875
1.27678 0.1 0.163095 0.39996
1.25537 0.1 -0.290413 0.376879
1.25537 0.1 0.290413 0.376907
0.96969 0.1 -0.85 0.210993
0.96969 0.1 0.85 0.21108
1.07643 0.1 0.711784 0.250561
1.07643 0.1 -0.711784 0.250483
0.756813 0.1 -1.05 0.164635
0.756814 0.1 1.05 0.164719
0.350249 0.1 1.25 0.134353
0.350249 0.1 -1.25 0.134277
1.29889 0.1 -0.040037 0.414743
1.29889 0.1 0.040037 0.414788
0 0.1 1.3 0.146419
0 0.1 -1.3 0.146346
1.27678 0.1 0.244643 0.389631
1.27678 0.1 -0.244643 0.389495
0.939379 0.1 -0.9 0.199261
0.939379 0.1 0.9 0.199349
1.21398 0.1 -0.471538 0.330029
1.21398 0.1 0.471538 0.330077
1.16984 0.1 0.576403 0.296642
1.16984 0.1 -0.576403 0.296521
1.29889 0.1 -0.120111 0.410494
1.29889 0.1 0.120111 0.410614
1.05262 0.1 0.771937 0.233676
1.05262 0.1 -0.771937 0.233529
1.23589 0.1 -0.42137 0.345855
1.23589 0.1 0.42137 0.345943
1.19994 0.1 -0.520024 0.315838
1.19994 0.1 0.520024 0.315895
0.151552 0.1 1.3 0.138789
0.151552 0.1 -1.3 0.138715
0.523729 0.1 1.2 0.139477
0.523729 0.1 -1.2 0.1394
1.25537 0.1 -0.373388 0.361086
1.25537 0.1 0.373388 0.361118
1.14834 0.1 -0.630774 0.280016
1.14834 0.1 0.630774 0.280087
0.715676 0.1 1.1 0.156487
0.715676 0.1 -1.1 0.156404
0.90582 0.1 -0.95 0.188062
0.90582 0.1 0.95 0.188152
1.31405 0.1 0 0.419273
1.29889 0.1 -0.200185 0.402069
1.29889 0.1 0.200185 0.402275
1.31405 0.1 -0.0790633 0.417169
1.31405 0.1 0.0790633 0.417171
1.12316 0.1 -0.68842 0.262496
1.12316 0.1 0.68842 0.262787
1.27678 0.1 -0.326191 0.375378
1.27678 0.1 0.326191 0.375559
1.01772 0.1 -0.839958 0.214872
1.01772 0.1 0.839958 0.214963
1.31405 0.1 -0.158127 0.41087
1.31405 0.1 0.158127 0.410871
0.872262 0.1 1 0.178005
0.872262 0.1 -1 0.177914
1.09647 0.1 -0.748548 0.24473
1.09647 0.1 0.748548 0.245177
1.29889 0.1 0.280259 0.389985
1.29889 0.1 -0.280259 0.389686
0.67013 0.1 -1.15 0.146721
0.67013 0.1 1.15 0.148835
0.288433 0.1 1.3 0.130727
0.288433 0.1 -1.3 0.130651
1.33178 0.1 -0.0389408 0.424461
1.33178 0.1 0.0389408 0.424472
0 0.1 1.33338 0.143699
0 0.1 -1.33338 0.143626
0.467897 0.1 -1.25 0.133637
0.467897 0.1 1.25 0.133713
1.31405 0.1 -0.23719 0.400473
1.31405 0.1 0.23719 0.400492
1.23589 0.1 -0.505644 0.325982
1.23589 0.1 0.505644 0.326095
1.25537 0.1 -0.456363 0.342237
1.25537 0.1 0.456363 0.342289
1.21398 0.1 -0.557272 0.309204
1.21398 0.1 0.557272 0.309271
1.33178 0.1 -0.116822 0.420268
1.33178 0.1 0.116822 0.420274
1.27678 0.1 -0.407738 0.357953
1.27678 0.1 0.407738 0.358177
0.835106 0.1 -1.05 0.168498
0.835106 0.1 1.05 0.17087
1.19994 0.1 -0.606695 0.294406
1.19994 0.1 0.606695 0.294479
1.07643 0.1 0.806689 0.229694
1.07643 0.1 -0.806689 0.229601
1 0.1 -0.9 0.202985
1 0.1 0.9 0.203079
1.16984 0.1 -0.665081 0.274762
1.16984 0.1 0.665081 0.2749
1.33178 0.1 -0.194704 0.411875
1.33178 0.1 0.194704 0.411894
1.29889 0.1 0.360333 0.374116
1.29889 0.1 -0.360333 0.373744
1.35048 0.1 0 0.429955
1.31405 0.1 -0.316253 0.386278
1.31405 0.1 0.316253 0.386312
0.075776 0.1 1.35 0.141262
0.075776 0.1 -1.35 0.141189
1.35048 0.1 -0.0766347 0.427857
1.35048 0.1 0.0766347 0.427857
0.624584 0.1 1.2 0.141809
0.624584 0.1 -1.2 0.141727
1.14834 0.1 -0.720885 0.258236
1.14834 0.1 0.720885 0.258322
0.969689 0.1 0.95 0.192726
0.969689 0.1 -0.95 0.192631
0.797951 0.1 1.1 0.159827
0.797951 0.1 -1.1 0.159737
1.35048 0.1 -0.153269 0.421565
1.35048 0.1 0.153269 0.421559
1.33178 0.1 -0.272585 0.399462
1.33178 0.1 0.272585 0.399518
1.36263 0.1 -0.0379125 0.432918
1.36263 0.1 0.0379125 0.432924
0.412065 0.1 1.3 0.129313
0.412065 0.1 -1.3 0.129237
1.05262 0.1 0.86843 0.213296
1.05262 0.1 -0.86843 0.213138
1.25537 0.1 -0.539338 0.32112
1.25537 0.1 0.539338 0.321192
0 0.1 1.36662 0.141017
0 0.1 -1.36662 0.140944
1.27678 0.1 -0.489286 0.337823
1.27678 0.1 0.489286 0.338089
1.36263 0.1 0.113737 0.428718
1.36263 0.1 -0.113737 0.428729
1.12316 0.1 -0.78021 0.24094
1.12316 0.1 0.78021 0.241248
0.219992 0.1 -1.35 0.128283
0.219992 0.1 1.35 0.128356
1.23589 0.1 0.589918 0.304365
1.23589 0.1 -0.589918 0.304232
1.35048 0.1 -0.229904 0.411148
1.35048 0.1 0.229904 0.411167
1.29889 0.1 -0.440407 0.354703
1.29889 0.1 0.440407 0.355151
0.939379 0.1 -1 0.18199
0.939379 0.1 1 0.182086
1.31405 0.1 -0.395317 0.368712
1.31405 0.1 0.395317 0.368764
1.21398 0.1 0.643007 0.286989
1.21398 0.1 -0.643007 0.286908
0.574156 0.1 -1.25 0.135219
0.574156 0.1 1.25 0.135301
1.36263 0.1 -0.189562 0.420348
1.36263 0.1 0.189562 0.420346
0.756813 0.1 -1.15 0.149353
0.756813 0.1 1.15 0.15164
1.33178 0.1 -0.350467 0.38341
1.33178 0.1 0.350467 0.383478
1.09647 0.1 0.842117 0.224182
1.09647 0.1 -0.842117 0.223731
1.01772 0.1 0.938777 0.195377
1.01772 0.1 -0.938777 0.195278
1.35048 0.1 -0.306539 0.396873
1.35048 0.1 0.306539 0.396915
1.19994 0.1 -0.693366 0.271918
1.19994 0.1 0.693366 0.272006
1.38601 0.1 -1.73472e-19 0.440452
0.90582 0.1 -1.05 0.171807
0.90582 0.1 1.05 0.174407
1.38601 0.1 -0.0742663 0.438342
1.38601 0.1 0.0742663 0.438356
1.36263 0.1 -0.265388 0.407937
1.36263 0.1 0.265388 0.407977
1.16984 0.1 0.753758 0.252554
1.16984 0.1 -0.753758 0.252401
1.38601 0.1 -0.148532 0.432005
1.38601 0.1 0.148532 0.432034
0.350249 0.1 1.35 0.125489
0.350249 0.1 -1.35 0.125413
1.31405 0.1 -0.47438 0.348355
1.31405 0.1 0.47438 0.348431
0.715676 0.1 1.2 0.144193
0.715676 0.1 -1.2 0.144106
1.27678 0.1 -0.570834 0.315751
1.27678 0.1 0.570834 0.316048
1.33178 0.1 -0.428349 0.364196
1.33178 0.1 0.428349 0.364301
1.29889 0.1 -0.520481 0.33329
1.29889 0.1 0.520481 0.333796
0 0.1 1.4 0.138348
0 0.1 -1.4 0.138275
1.25537 0.1 -0.622313 0.298438
1.25537 0.1 0.622313 0.298523
0.523729 0.1 1.3 0.129495
0.523729 0.1 -1.3 0.129415
1.40143 0.1 0.0366192 0.444747
1.40143 0.1 -0.0366192 0.444741
1.35048 0.1 -0.383173 0.379165
1.35048 0.1 0.383173 0.379229
1.38601 0.1 0.222799 0.421608
1.38601 0.1 -0.222799 0.42152
0.872262 0.1 1.1 0.162812
0.872262 0.1 -1.1 0.162716
1.07643 0.1 0.901594 0.209262
1.07643 0.1 -0.901594 0.209161
1.36263 0.1 -0.341212 0.391837
1.36263 0.1 0.341212 0.391887
1.40143 0.1 0.109857 0.440523
1.40143 0.1 -0.109857 0.440546
1.14834 0.1 -0.810995 0.236327
1.14834 0.1 0.810995 0.236426
1.23589 0.1 -0.674192 0.281339
1.23589 0.1 0.674192 0.281488
0.151552 0.1 1.4 0.130609
0.151552 0.1 -1.4 0.130535
1.40143 0.1 0.183096 0.432042
1.40143 0.1 -0.183096 0.432044
1 0.1 1 0.184168
1 0.1 -1 0.184064
1.21398 0.1 -0.728741 0.263912
1.21398 0.1 0.728741 0.264009
1.38601 0.1 -0.297065 0.407153
1.38601 0.1 0.297065 0.407289
0.67013 0.1 1.25 0.137288
0.67013 0.1 -1.25 0.137202
1.41851 0.1 1.23599e-17 0.449673
1.41851 0.1 -0.0720991 0.447538
1.41851 0.1 0.0720991 0.447546
0.835106 0.1 1.15 0.154382
0.835106 0.1 -1.15 0.151919
1.12316 0.1 0.871999 0.220001
1.12316 0.1 -0.871999 0.219689
1.40143 0.1 -0.256334 0.419521
1.40143 0.1 0.256334 0.41959
1.33178 0.1 -0.50623 0.342495
1.33178 0.1 0.50623 0.34262
1.36263 0.1 -0.417037 0.372545
1.36263 0.1 0.417037 0.372631
1.41851 0.1 -0.144198 0.441118
1.41851 0.1 0.144198 0.441149
1.31405 0.1 -0.553443 0.326001
1.31405 0.1 0.553443 0.326093
1.05262 0.1 0.962057 0.193428
1.35048 0.1 -0.459808 0.358578
1.35048 0.1 0.459808 0.358669
1.05262 0.1 -0.964922 0.193341
0.467897 0.1 -1.35 0.12423
0.467897 0.1 1.35 0.124308
0.969689 0.1 -1.05 0.175067
0.969689 0.1 1.05 0.176932
0.288433 0.1 1.4 0.122223
0.288433 0.1 -1.4 0.122147
1.29889 0.1 -0.600555 0.310299
1.29889 0.1 0.600555 0.310843
1.19994 0.1 0.780036 0.249286
1.19994 0.1 -0.780036 0.249185
0 0.1 1.43338 0.135686
0 0.1 -1.43338 0.135612
1.27678 0.1 -0.652382 0.292453
1.27678 0.1 0.652382 0.292772
1.38601 0.1 -0.371331 0.389297
1.38601 0.1 0.371331 0.389474
1.41851 0.1 0.216297 0.430643
1.41851 0.1 -0.216297 0.430531
1.43833 0.1 -0.0353889 0.455336
1.43833 0.1 0.0353889 0.455324
1.40143 0.1 0.329573 0.403305
1.40143 0.1 -0.329573 0.403244
1.25537 0.1 -0.705288 0.274934
1.25537 0.1 0.705288 0.275033
0.797951 0.1 1.2 0.146481
0.797951 0.1 -1.2 0.146387
1.09647 0.1 0.935217 0.203906
1.09647 0.1 -0.935685 0.203367
1.16984 0.1 -0.842436 0.230278
1.16984 0.1 0.842436 0.23044
1.43833 0.1 -0.106166 0.451016
1.43833 0.1 0.106166 0.450979
0.624584 0.1 1.3 0.130978
0.624584 0.1 -1.3 0.130894
0.939379 0.1 1.1 0.165679
0.939379 0.1 -1.1 0.165577
1.23217 0.1 0.758466 0.258283
1.41851 0.1 -0.288396 0.416064
1.41851 0.1 0.288396 0.416239
1.36263 0.1 -0.492862 0.350677
1.36263 0.1 0.492862 0.350782
1.43833 0.1 -0.176944 0.442379
1.43833 0.1 0.176944 0.442375
1.4493 0.1 0 0.458882
1.23589 0.1 -0.758466 0.25812
1.4493 0.1 -0.0700466 0.456703
1.4493 0.1 0.0700466 0.456668
0.075776 0.1 -1.45 0.133219
0.075776 0.1 1.45 0.131612
1.35048 0.1 -0.536443 0.335903
1.35048 0.1 0.536443 0.336009
1.01772 0.1 1.03759 0.172035
1.01772 0.1 -1.03759 0.176276
1.33178 0.1 0.584112 0.319367
1.33178 0.1 -0.584112 0.319225
1.38601 0.1 0.445597 0.368707
1.38601 0.1 -0.445597 0.368487
1.4493 0.1 -0.140093 0.45014
1.4493 0.1 0.140093 0.450114
1.40143 0.1 -0.402811 0.383709
1.40143 0.1 0.402811 0.383827
1.31405 0.1 -0.632507 0.302388
1.31405 0.1 0.632507 0.302494
0.412065 0.1 1.4 0.120343
0.412065 0.1 -1.4 0.120265
1.43833 0.1 -0.247722 0.429718
1.43833 0.1 0.247722 0.429799
1.14834 0.1 -0.901106 0.214934
1.14834 0.1 0.901106 0.215044
0.756813 0.1 1.25 0.139126
0.756813 0.1 -1.25 0.139034
1.21398 0.1 0.814475 0.24118
1.21398 0.1 -0.814475 0.241073
1.41851 0.1 0.360495 0.39828
1.41851 0.1 -0.360495 0.398057
0.90582 0.1 1.15 0.156538
0.90582 0.1 -1.15 0.156437
1.4493 0.1 -0.21014 0.439377
1.4493 0.1 0.21014 0.439423
1.46461 0.1 -0.034513 0.46397
1.46461 0.1 0.034513 0.463944
1.29889 0.1 -0.680629 0.286397
1.29889 0.1 0.680629 0.286965
0.219992 0.1 1.45 0.118788
0.219993 0.1 -1.45 0.120148
0 0.1 1.46662 0.133075
0 0.1 -1.46662 0.133
1.07643 0.1 0.996497 0.189732
1.07643 0.1 -0.996497 0.189622
0.574156 0.1 -1.35 0.125037
0.574156 0.1 1.35 0.12512
1.46461 0.1 0.103539 0.459462
1.46461 0.1 -0.103539 0.459493
1.27678 0.1 -0.733929 0.268726
1.27678 0.1 0.733929 0.269058
1.43833 0.1 -0.318499 0.41331
1.43833 0.1 0.318499 0.413403
1.46461 0.1 -0.172565 0.450623
1.46461 0.1 0.172565 0.450654
1.4493 0.1 -0.280186 0.424711
1.4493 0.1 0.280186 0.424805
1.36263 0.1 0.568687 0.327256
1.36263 0.1 -0.568687 0.327135
1.19994 0.1 0.864385 0.226985
1.47904 0.1 0 0.468901
1.12316 0.1 -0.963788 0.199259
1.12316 0.1 0.963788 0.194947
1.40143 0.1 -0.47605 0.361475
1.40143 0.1 0.47605 0.3616
1.19994 0.1 -0.866707 0.226871
1.38601 0.1 -0.519864 0.345472
1.38601 0.1 0.519864 0.345718
1.47904 0.1 -0.0680643 0.466642
1.47904 0.1 0.0680643 0.466599
1.25537 0.1 -0.788263 0.251502
1.25537 0.1 0.788263 0.251615
1.41851 0.1 -0.432595 0.376999
1.41851 0.1 0.432595 0.377272
1.35048 0.1 -0.613077 0.311943
1.35048 0.1 0.613077 0.312064
0.872262 0.1 1.2 0.148402
0.872262 0.1 -1.2 0.148302
0.715676 0.1 1.3 0.132505
0.715676 0.1 -1.3 0.132415
1.46461 0.1 -0.241591 0.437678
1.46461 0.1 0.241591 0.437831
1.47904 0.1 -0.136129 0.459866
1.47904 0.1 0.136129 0.459848
1 0.1 1.1 0.166301
1 0.1 -1.1 0.166191
1.33178 0.1 0.661993 0.295151
1.33178 0.1 -0.661993 0.294291
1.43833 0.1 -0.389277 0.393512
1.43833 0.1 0.389277 0.39366
1.4493 0.1 -0.350233 0.406446
1.4493 0.1 0.350233 0.406571
0.350249 0.1 -1.45 0.116894
0.350249 0.1 1.45 0.115571
1.23217 0.1 0.84274 0.235437
1.05296 0.1 1.05826 0.174058
1.47904 0.1 -0.204193 0.448813
1.47904 0.1 0.204193 0.448887
1.49375 0.1 -0.0335418 0.474118
1.49375 0.1 0.0335418 0.474106
1.31405 0.1 -0.71157 0.278263
1.31405 0.1 0.71157 0.278381
0.523729 0.1 1.4 0.119897
0.523729 0.1 -1.4 0.119815
1.05262 0.1 -1.06141 0.174529
1.16984 0.1 -0.931113 0.208865
1.16984 0.1 0.931113 0.208062
1.23589 0.1 -0.84274 0.235262
1.49375 0.1 -0.100625 0.469488
1.49375 0.1 0.100625 0.469502
1.46461 0.1 -0.310617 0.420945
1.46461 0.1 0.310617 0.421091
1.09647 0.1 1.02135 0.182697
0 0.1 1.5 0.130491
0 0.1 -1.5 0.130416
1.49375 0.1 -0.167709 0.460371
1.49375 0.1 0.167709 0.460495
0.835106 0.1 1.25 0.140877
0.835106 0.1 -1.25 0.140779
1.09647 0.1 -1.02925 0.184081
1.47904 0.1 -0.272257 0.433774
1.47904 0.1 0.272257 0.433894
0.969689 0.1 1.15 0.15924
0.969689 0.1 -1.15 0.158609
1.41851 0.1 0.502763 0.354538
1.40143 0.1 0.549288 0.337594
1.40143 0.1 -0.549288 0.337445
1.29889 0.1 -0.760703 0.263041
1.29889 0.1 0.760703 0.263019
1.41851 0.1 -0.506991 0.352314
1.38601 0.1 0.591312 0.321275
0.67013 0.1 1.35 0.126336
0.67013 0.1 -1.35 0.126248
1.36263 0.1 0.644512 0.302784
1.36263 0.1 -0.644512 0.296845
0.151552 0.1 1.5 0.122998
0.151552 0.1 -1.5 0.122923
1.38601 0.1 -0.594131 0.322433
1.4493 0.1 -0.420279 0.38503
1.4493 0.1 0.420279 0.385195