# UMean  POINT_DATA 38414
# x  y  z  UMean_x  UMean_y  UMean_z
0 0.5 0 1 0 0
0 0.5 -0.0316815 1 0 0
0 0.5 0.0316815 1 0 0
0 0.5 -0.0683185 1 0 0
0 0.5 0.0683185 1 0 0
0.075776 0.5 0.05 0.999466 0.00533556 0.000461343
0.075776 0.5 -0.05 0.999466 0.00533552 -0.000466944
0 0.5 0.1 1 0 0
0 0.5 -0.1 1 0 0
0 0.5 -0.131682 1 0 0
0 0.5 0.131682 1 0 0
0.151552 0.5 0 0.99832 0.00960096 -5.35872e-06
0.075776 0.5 0.15 0.999459 0.00530097 0.00143876
0.075776 0.5 -0.15 0.999385 0.00560154 -0.00172619
0 0.5 -0.168318 1 0 0
0 0.5 0.168318 1 0 0
0.151552 0.5 0.1 0.998323 0.00957134 0.00177087
0.151552 0.5 -0.1 0.998323 0.00957123 -0.00178154
0 0.5 0.2 1 0 0
0 0.5 -0.2 1 0 0
0.219992 0.5 0.05 0.99683 0.0133135 0.00126814
0.219992 0.5 -0.05 0.99683 0.0133135 -0.00128349
0 0.5 0.231682 1 0 0
0 0.5 -0.231682 1 0 0
0.151552 0.5 0.2 0.998369 0.00948258 0.00351293
0.151552 0.5 -0.2 0.998369 0.00948234 -0.00352349
0.075776 0.5 0.25 0.999488 0.00523147 0.0023615
0.075776 0.5 -0.25 0.999488 0.00523126 -0.00236717
0.219992 0.5 0.15 0.99687 0.0132326 0.00375892
0.219992 0.5 -0.15 0.996709 0.0134715 -0.00434392
0 0.5 0.268318 1 0 0
0 0.5 -0.268318 1 0 0
0.288433 0.5 0 0.994178 0.0170016 -9.97232e-06
0 0.5 0.3 1 0 0
0 0.5 -0.3 1 0 0
0.288433 0.5 0.1 0.994226 0.0169477 0.00331159
0.288433 0.5 -0.1 0.994226 0.0169475 -0.00333135
0 0.5 0.331682 1 0 0
0 0.5 -0.331682 1 0 0
0.219992 0.5 0.25 0.99702 0.0130726 0.00617442
0.219992 0.5 -0.25 0.99702 0.0130722 -0.00618923
0.151552 0.5 0.3 0.998471 0.00933811 0.00516681
0.151552 0.5 -0.3 0.998472 0.00933777 -0.00517716
0.288433 0.5 0.2 0.994407 0.0167874 0.00653881
0.288433 0.5 -0.2 0.994407 0.0167871 -0.00655832
0.350249 0.5 0.05 0.991188 0.0204348 0.0020503
0.350249 0.5 -0.05 0.991188 0.0204347 -0.00207454
0.075776 0.5 -0.35 0.999527 0.00513084 -0.00323245
0.075776 0.5 0.35 0.999527 0.0051311 0.00322691
0 0.5 0.368318 1 0 0
0 0.5 -0.368318 1 0 0
0.350249 0.5 0.15 0.991358 0.0203001 0.00609171
0.350249 0.5 -0.15 0.991136 0.0205089 -0.00696766
0 0.5 0.4 1 0 0
0 0.5 -0.4 1 0 0
0.412065 0.5 1.85037e-17 0.987187 0.0239368 -1.43467e-05
0.219992 0.5 0.35 0.997237 0.0128407 0.00843449
0.219992 0.5 -0.35 0.997237 0.0128402 -0.00844895
0.288433 0.5 0.3 0.994731 0.0165272 0.00961102
0.288433 0.5 -0.3 0.994732 0.0165267 -0.00963014
0.412065 0.5 0.1 0.987315 0.0238532 0.00490013
0.412065 0.5 -0.1 0.987315 0.0238529 -0.00492862
0.151552 0.5 0.4 0.998606 0.00914306 0.00669355
0.151552 0.5 -0.4 0.998607 0.00914258 -0.0067036
0.350249 0.5 0.25 0.991744 0.0200355 0.00998806
0.350249 0.5 -0.25 0.991745 0.0200349 -0.0100118
0 0.5 0.431682 1 0 0
0 0.5 -0.431682 1 0 0
0.075776 0.5 0.45 0.999578 0.00500372 0.00401227
0.075776 0.5 -0.45 0.999578 0.00500336 -0.0040176
0.412065 0.5 -0.2 0.987721 0.0236052 -0.00970314
0.412065 0.5 0.2 0.98772 0.0236057 0.00967504
0 0.5 -0.468318 1 0 0
0 0.5 0.468318 1 0 0
0.467897 0.5 0.05 0.983003 0.0272364 0.00286123
0.467897 0.5 -0.05 0.983003 0.0272362 -0.00289411
0.467897 0.5 0.15 0.983354 0.0270376 0.00851383
0.467897 0.5 -0.15 0.983109 0.0272223 -0.00969163
0.288433 0.5 0.4 0.995169 0.0161755 0.0124439
0.288433 0.5 -0.4 0.995171 0.0161747 -0.0124623
0.350249 0.5 -0.35 0.992313 0.0196511 -0.0136541
0.350249 0.5 0.35 0.992312 0.0196518 0.0136313
0 0.5 0.5 1 0 0
0 0.5 -0.5 1 0 0
0.219992 0.5 -0.45 0.997515 0.0125402 -0.0105059
0.219992 0.5 0.45 0.997514 0.0125409 0.010492
0.412065 0.5 0.3 0.988403 0.0232048 0.0141996
0.412065 0.5 -0.3 0.988405 0.023204 -0.0142271
0.151552 0.5 0.5 0.998773 0.0089017 0.00806158
0.151552 0.5 -0.5 0.998773 0.0089011 -0.0080712
0.523729 0.5 0 0.97795 0.030662 -1.856e-05
0.467897 0.5 0.25 0.98408 0.0266494 0.0139482
0.467897 0.5 -0.25 0.984082 0.0266486 -0.01398
0 0.5 -0.531682 1 0 0
0 0.5 0.531682 1 0 0
0.523729 0.5 0.1 0.97818 0.0305446 0.0065526
0.523729 0.5 -0.1 0.978181 0.0305443 -0.0065895
0.075776 0.5 0.55 0.999639 0.00485249 0.00470356
0.075776 0.5 -0.55 0.999639 0.00485209 -0.00470862
0.523729 0.5 0.2 0.978881 0.030198 0.012933
0.523729 0.5 -0.2 0.978883 0.0301974 -0.0129693
0 0.5 0.568318 1 0 0
0 0.5 -0.568318 1 0 0
0.350249 0.5 0.45 0.993038 0.0191604 0.0169345
0.350249 0.5 -0.45 0.99304 0.0191594 -0.0169565
0.412065 0.5 0.4 0.989325 0.0226644 0.0183557
0.412065 0.5 -0.4 0.989328 0.0226633 -0.0183822
0.574156 0.5 0.05 0.972839 0.0339125 0.00370656
0.574156 0.5 -0.05 0.972839 0.0339123 -0.00374767
0.288433 0.5 0.5 0.995705 0.01574 0.0149777
0.288433 0.5 -0.5 0.995706 0.015739 -0.0149954
0.467897 0.5 0.35 0.98514 0.0260866 0.018995
0.467897 0.5 -0.35 0.985143 0.0260857 -0.019026
0.219992 0.5 0.55 0.997842 0.0121796 0.0123054
0.219992 0.5 -0.55 0.997843 0.0121788 -0.0123187
0.574156 0.5 0.15 0.973414 0.033644 0.0110354
0.574156 0.5 -0.15 0.973174 0.0338075 -0.012526
0 0.5 0.6 1 0 0
0 0.5 -0.6 1 0 0
0.523729 0.5 0.3 0.980037 0.0296371 0.0189573
0.523729 0.5 -0.3 0.98004 0.0296362 -0.0189927
0.151552 0.5 0.6 0.998964 0.00862 0.00924596
0.151552 0.5 -0.6 0.998965 0.00861928 -0.00925508
0.624584 0.5 0 0.966947 0.0373221 -2.26018e-05
0.574156 0.5 0.25 0.97457 0.0331192 0.0180551
0.574156 0.5 -0.25 0.974574 0.0331184 -0.0180949
0 0.5 0.631682 1 0 0
0 0.5 -0.631682 1 0 0
0.624584 0.5 0.1 0.9673 0.0371686 0.00827557
0.624584 0.5 -0.1 0.967302 0.0371683 -0.00832056
0.412065 0.5 0.5 0.99045 0.0219999 0.0220563
0.412065 0.5 -0.5 0.990453 0.0219986 -0.0220816
0.467897 0.5 0.45 0.986491 0.0253678 0.0235571
0.467897 0.5 -0.45 0.986495 0.0253663 -0.0235868
0.350249 0.5 0.55 0.99389 0.0185724 0.0198334
0.350249 0.5 -0.55 0.993893 0.0185712 -0.0198543
0.075776 0.5 0.65 0.999709 0.00468218 0.00528946
0.075776 0.5 -0.65 0.999709 0.00468169 -0.00529423
0.624584 0.5 0.2 0.968361 0.0367149 0.0163226
0.624584 0.5 -0.2 0.968364 0.0367142 -0.0163669
0.523729 0.5 0.4 0.981592 0.0288819 0.0244616
0.523729 0.5 -0.4 0.981597 0.0288806 -0.0244958
0.288433 0.5 0.6 0.996314 0.015231 0.0171661
0.288433 0.5 -0.6 0.996316 0.0152298 -0.0171828
0 0.5 -0.668318 1 0 0
0 0.5 0.668318 1 0 0
0.67013 0.5 0.05 0.961098 0.0405653 0.00458931
0.67013 0.5 -0.05 0.961099 0.0405652 -0.00463841
0.574156 0.5 0.35 0.97625 0.0323599 0.0245651
0.574156 0.5 -0.35 0.976255 0.0323588 -0.0246037
0.219992 0.5 0.65 0.998206 0.0117659 0.0138444
0.219992 0.5 -0.65 0.998207 0.0117648 -0.0138569
0.67013 0.5 0.15 0.961939 0.0402225 0.0136646
0.67013 0.5 -0.15 0.96173 0.0403647 -0.0154798
0.624584 0.5 0.3 0.970097 0.0359807 0.0238981
0.624584 0.5 -0.3 0.970102 0.0359797 -0.0239413
0 0.5 0.7 1 0 0
0 0.5 -0.7 1 0 0
0.67013 0.5 0.25 0.963609 0.039552 0.0223313
0.67013 0.5 -0.25 0.963614 0.0395512 -0.022379
0.715676 0.5 -9.25186e-18 0.954553 0.0439728 -2.65318e-05
0.151552 0.5 0.7 0.999171 0.0083056 0.0102301
0.151552 0.5 -0.7 0.999172 0.0083047 -0.0102386
0.467897 0.5 -0.55 0.988077 0.0245122 -0.0275579
0.467897 0.5 0.55 0.988072 0.0245138 0.0275297
0.715676 0.5 0.1 0.955049 0.0437811 0.010073
0.715676 0.5 -0.1 0.955052 0.0437808 -0.0101258
0.523729 0.5 0.5 0.983479 0.0279566 0.0293286
0.523729 0.5 -0.5 0.983485 0.0279549 -0.0293612
0.412065 0.5 0.6 0.991724 0.021229 0.0252298
0.412065 0.5 -0.6 0.991728 0.0212274 -0.0252538
0.574156 0.5 0.45 0.978378 0.0313907 0.0303915
0.574156 0.5 -0.45 0.978385 0.0313891 -0.0304286
0 0.5 0.731682 1 0 0
0 0.5 -0.731682 1 0 0
0.350249 0.5 0.65 0.994831 0.0179031 0.0222794
0.350249 0.5 -0.65 0.994834 0.0179016 -0.0222991
0.624584 0.5 0.4 0.972421 0.034993 0.0307837
0.624584 0.5 -0.4 0.972428 0.0349916 -0.0308256
0.715676 0.5 -0.2 0.956536 0.0432136 -0.019907
0.715676 0.5 0.2 0.956531 0.0432142 0.019855
0.075776 0.5 0.75 0.999783 0.00449764 0.00576421
0.075776 0.5 -0.75 0.999783 0.00449706 -0.00576863
0.67013 0.5 0.35 0.96603 0.0385815 0.0303387
0.67013 0.5 -0.35 0.966037 0.0385804 -0.030385
0.288433 0.5 0.7 0.99697 0.0146616 0.0189783
0.288433 0.5 -0.7 0.996972 0.0146601 -0.018994
0.756813 0.5 0.05 0.948143 0.047211 0.0055108
0.756813 0.5 -0.05 0.948144 0.0472108 -0.00556765
0 0.5 0.768318 1 0 0
0 0.5 -0.768318 1 0 0
0.756813 0.5 0.15 0.949288 0.0467901 0.016405
0.756813 0.5 -0.15 0.949134 0.0469096 -0.0185573
0.715676 0.5 0.3 0.958945 0.0422964 0.0290328
0.715676 0.5 -0.3 0.958952 0.0422955 -0.0290836
0.219992 0.5 -0.75 0.998592 0.0113093 -0.0151033
0.219992 0.5 0.75 0.99859 0.0113106 0.0150917
0.574156 0.5 0.55 0.980858 0.0302438 0.0354341
0.574157 0.5 -0.55 0.980866 0.0302419 -0.0354694
0.523729 0.5 0.6 0.985609 0.0268889 0.0334676
0.523729 0.5 -0.6 0.985616 0.0268868 -0.0334985
0.756813 0.5 0.25 0.951549 0.0459666 0.0267838
0.756814 0.5 -0.25 0.951555 0.0459659 -0.026839
0.797951 0.5 -6.77919e-18 0.941105 0.0506113 -3.03676e-05
0 0.5 0.8 1 0 0
0 0.5 -0.8 1 0 0
0.624584 0.5 0.5 0.975226 0.0337856 0.036826
0.624584 0.5 -0.5 0.975234 0.0337838 -0.0368659
0.467897 0.5 0.65 0.989809 0.023548 0.0308505
0.467897 0.5 -0.65 0.989815 0.0235458 -0.030877
0.797951 0.5 0.1 0.941763 0.0503795 0.0119459
0.797951 0.5 -0.1 0.941766 0.0503793 -0.0120064
0.67013 0.5 0.45 0.96908 0.0373447 0.0374593
0.67013 0.5 -0.45 0.969089 0.037343 -0.0375041
0.412065 0.5 0.7 0.993092 0.0203719 0.0278345
0.412065 0.5 -0.7 0.993097 0.0203698 -0.0278568
0.151552 0.5 0.8 0.999387 0.00796672 0.0110069
0.151552 0.5 -0.8 0.999388 0.00796561 -0.0110148
0.715676 0.5 0.4 0.962167 0.0410623 0.0373337
0.715676 0.5 -0.4 0.962176 0.041061 -0.0373827
0.797951 0.5 -0.2 0.943727 0.0496937 -0.0235924
0.797951 0.5 0.2 0.943721 0.0496942 0.0235328
0.350249 0.5 0.75 0.995819 0.0171696 0.0242476
0.350249 0.5 -0.75 0.995823 0.0171677 -0.0242659
0 0.5 0.831682 1 0 0
0 0.5 -0.831682 1 0 0
0.756813 0.5 0.35 0.954823 0.0447744 0.0363335
0.756814 0.5 -0.35 0.954833 0.0447734 -0.0363871
0.835106 0.5 -0.05 0.934293 0.0538249 -0.00653432
0.835106 0.5 0.05 0.934291 0.053825 0.00646988
0.835106 0.5 -0.15 0.9357 0.0534149 -0.0217523
0.835106 0.5 0.15 0.935777 0.0533229 0.0192533
0.288433 0.5 0.8 0.997647 0.0140463 0.0204017
0.288433 0.5 -0.8 0.997649 0.0140444 -0.0204161
0.797951 0.5 0.3 0.946903 0.048584 0.0343677
0.797951 0.5 -0.3 0.946912 0.0485832 -0.0344258
0.075776 0.5 0.85 0.999886 0.003964 0.00572096
0.075776 0.5 -0.85 0.999861 0.00430215 -0.00613073
0.624584 0.5 0.6 0.978379 0.0323967 0.0419173
0.624584 0.5 -0.6 0.978389 0.0323943 -0.0419549
0.67013 0.5 0.55 0.972615 0.0358847 0.0435747
0.67013 0.5 -0.55 0.972626 0.0358825 -0.0436167
0.574156 0.5 0.65 0.983571 0.0289526 0.0396004
0.574156 0.5 -0.65 0.98358 0.0289501 -0.0396335
0 0.5 0.868318 1 0 0
0 0.5 -0.868318 1 0 0
0.835106 0.5 0.25 0.938697 0.0523403 0.031408
0.835106 0.5 -0.25 0.938705 0.0523398 -0.0314706
0.872262 0.5 -1.85037e-17 0.926936 0.0571572 -3.41077e-05
0.715676 0.5 0.5 0.966032 0.0395552 0.0445668
0.715676 0.5 -0.5 0.966044 0.0395533 -0.0446134
0.523729 0.5 0.7 0.987886 0.0257079 0.0368225
0.523729 0.5 -0.7 0.987894 0.0257053 -0.0368513
0.872262 0.5 0.1 0.927772 0.0568848 0.0138789
0.872262 0.5 -0.1 0.927776 0.0568847 -0.0139468
0.219992 0.5 0.85 0.999092 0.0105189 0.0158335
0.219992 0.5 -0.85 0.998982 0.0108235 -0.0160544
0.756813 0.5 -0.45 0.958936 0.0432546 -0.044827
0.756814 0.5 0.45 0.958924 0.043256 0.0447763
0.467897 0.5 0.75 0.991628 0.0224959 0.0334876
0.467897 0.5 -0.75 0.991635 0.0224932 -0.0335121
0.797951 0.5 0.4 0.951137 0.0470921 0.0441325
0.797951 0.5 -0.4 0.95115 0.0470911 -0.0441884
0.872262 0.5 0.2 0.930252 0.0560794 0.0273261
0.872262 0.5 -0.2 0.93026 0.0560792 -0.027393
0.412065 0.5 0.8 0.994496 0.0194507 0.0298548
0.412065 0.5 -0.8 0.994502 0.019448 -0.0298753
0 0.5 0.9 1 0 0
0 0.5 -0.9 1 0 0
0.835106 0.5 0.35 0.94292 0.0509168 0.0425418
0.835106 0.5 -0.35 0.942933 0.0509161 -0.0426026
0.90582 0.5 0.05 0.91986 0.0603114 0.00745763
0.90582 0.5 -0.05 0.919862 0.0603114 -0.00752944
0.151552 0.5 0.9 0.999604 0.00761128 0.0115778
0.151552 0.5 -0.9 0.999605 0.00760993 -0.0115849
0.90582 0.5 -0.15 0.921723 0.0597991 -0.0250474
0.905821 0.5 0.15 0.921713 0.0597278 0.0221839
0.350249 0.5 0.85 0.997079 0.0160573 0.0256009
0.350249 0.5 -0.85 0.996821 0.0163875 -0.0257505
0.872262 0.5 0.3 0.934273 0.0547737 0.0398631
0.872262 0.5 -0.3 0.934285 0.0547733 -0.0399284
0 0.5 0.931682 1 0 0
0 0.5 -0.931682 1 0 0
0.67013 0.5 0.65 0.97647 0.0342449 0.0485612
0.67013 0.5 -0.65 0.976482 0.034242 -0.0486006
0.715676 0.5 0.6 0.970363 0.0378249 0.0505981
0.715676 0.5 -0.6 0.970377 0.0378224 -0.0506421
0.756813 0.5 0.55 0.963656 0.0414639 0.0519604
0.756814 0.5 -0.55 0.96367 0.0414618 -0.0520091
0.624584 0.5 0.7 0.981735 0.0308661 0.0459838
0.624584 0.5 -0.7 0.981747 0.0308631 -0.0460187
0.939379 0.5 0 0.912169 0.0637026 -3.77968e-05
0.90582 0.5 0.25 0.925347 0.0585854 0.0361621
0.90582 0.5 -0.25 0.925359 0.0585852 -0.0362319
0.797951 0.5 0.5 0.956196 0.0452706 0.0525663
0.797951 0.5 -0.5 0.956212 0.0452691 -0.0526195
0.574156 0.5 0.75 0.987103 0.0271189 0.0430107
0.574156 0.5 -0.75 0.98641 0.0275491 -0.0428858
0.939379 0.5 0.1 0.913197 0.0633861 0.0159108
0.939379 0.5 -0.1 0.913202 0.0633861 -0.015986
0.288433 0.5 0.9 0.99832 0.0133991 0.0214411
0.288433 0.5 -0.9 0.998323 0.0133968 -0.021454
0.835106 0.5 0.45 0.948194 0.049107 0.0523687
0.835106 0.5 -0.45 0.94821 0.0491059 -0.0524268
0.075776 0.5 0.95 0.999939 0.00410257 0.00637987
0.075776 0.5 -0.95 0.99994 0.00410176 -0.00638342
0.523729 0.5 0.8 0.990215 0.0244452 0.0393787
0.523729 0.5 -0.8 0.990224 0.0244419 -0.039405
0.872262 0.5 0.4 0.93962 0.0530195 0.0511217
0.872262 0.5 -0.4 0.939636 0.0530188 -0.0511847
0.939379 0.5 0.2 0.916242 0.0624502 0.0313058
0.939379 0.5 -0.2 0.916252 0.0624502 -0.0313799
0 0.5 -0.968318 1 0 0
0 0.5 0.968318 1 0 0
0.467897 0.5 0.85 0.993366 0.0216086 0.0363294
0.467897 0.5 -0.85 0.993464 0.0213813 -0.0354629
0.969689 0.5 0.05 0.904959 0.0667708 0.00839066
0.969689 0.5 -0.05 0.904976 0.0667668 -0.00868257
0.90582 0.5 -0.35 0.930607 0.0569284 -0.0489849
0.905821 0.5 0.35 0.930591 0.0569288 0.0489171
0.219992 0.5 -0.95 0.999366 0.0103178 -0.0167175
0.219993 0.5 0.95 0.999364 0.0103198 0.0167081
0.969689 0.5 0.15 0.907191 0.0661011 0.0251604
0.969689 0.5 -0.15 0.907263 0.0661378 -0.0284942
0.939379 0.5 0.3 0.921168 0.0609331 0.045616
0.939379 0.5 -0.3 0.921183 0.0609329 -0.0456884
0.412065 0.5 0.9 0.995886 0.0184873 0.0313014
0.412065 0.5 -0.9 0.995892 0.0184841 -0.0313199
0.756814 0.5 0.65 0.968806 0.0396032 0.0589657
0.756814 0.5 -0.65 0.968823 0.0394543 -0.0577859
0.797951 0.5 0.6 0.961845 0.0431817 0.0595058
0.797951 0.5 -0.6 0.961863 0.0431794 -0.0595561
0.835106 0.5 -0.55 0.954276 0.0469682 -0.0606282
0.835106 0.5 0.55 0.955752 0.0463675 0.0615817
1 0.5 0 0.897308 0.0696026 -4.1292e-05
0 0.5 -1 1 0 0
0 0.5 1 1 0 0
0.715676 0.5 0.7 0.974957 0.0359238 0.0553383
0.715676 0.5 -0.7 0.974973 0.0359205 -0.0553792
0.969689 0.5 0.25 0.91158 0.0647859 0.0410465
0.969689 0.5 -0.25 0.911663 0.0647663 -0.0413138
1 0.5 0.1 0.89854 0.06925 0.0179015
1 0.5 -0.1 0.898546 0.0692503 -0.0179836
0.872262 0.5 0.5 0.945993 0.0508799 0.0607528
0.872262 0.5 -0.5 0.946013 0.0508788 -0.0608128
0.67013 0.5 0.75 0.980452 0.0326272 0.0534384
0.67013 0.5 -0.75 0.980483 0.0324694 -0.052421
0.151552 0.5 -1 0.99982 0.00724592 -0.0119573
0.151552 0.5 1 0.999819 0.00724749 0.0119511
0.90582 0.5 0.45 0.937148 0.0548234 0.0601115
0.90582 0.5 -0.45 0.937168 0.0548228 -0.0601764
0.350249 0.5 0.95 0.99779 0.0155806 0.0267569
0.350249 0.5 -0.95 0.997794 0.0155776 -0.0267717
0.624584 0.5 -0.8 0.985165 0.0292322 -0.049048
0.624584 0.5 0.8 0.985152 0.0292361 0.0490162
1 0.5 0.2 0.902191 0.0682072 0.0352071
1 0.5 -0.2 0.902203 0.0682076 -0.0352881
0.939379 0.5 0.4 0.927721 0.0588948 0.0583939
0.939379 0.5 -0.4 0.927741 0.0588945 -0.0584637
0.574157 0.5 0.85 0.989229 0.0260803 0.0452062
0.574156 0.5 -0.85 0.98924 0.0260762 -0.0452338
1.02554 0.5 0.0491395 0.890542 0.0725403 0.00931099
1.02554 0.5 -0.0491395 0.890263 0.0726532 -0.00942288
0.969689 0.5 0.35 0.917906 0.0628784 0.0554896
0.969689 0.5 -0.35 0.918018 0.0628518 -0.0557337
0 0.5 -1.03168 1 0 0
0 0.5 1.03168 1 0 0
1.02554 0.5 0.147419 0.893144 0.0718236 0.0277031
1.02554 0.5 -0.147419 0.892927 0.0719206 -0.028019
0.288433 0.5 -1 0.998975 0.0127293 -0.0221253
0.288433 0.5 1 0.998972 0.0127321 0.022114
0.523729 0.5 0.9 0.992508 0.0231327 0.0411555
0.523729 0.5 -0.9 0.992517 0.0231287 -0.0411791
1 0.5 0.3 0.908083 0.0665163 0.0512669
1 0.5 -0.3 0.908101 0.0665167 -0.0513461
0.075776 0.5 1.05 1.00001 0.00390371 0.00652928
0.075776 0.5 -1.05 1.00002 0.00390281 -0.00653233
1.02554 0.5 0.245697 0.898238 0.070418 0.0451369
1.02554 0.5 -0.245697 0.898261 0.0704166 -0.0452375
1.05773 0.5 -0.0167307 0.880288 0.0765109 -0.0036085
0.835106 0.5 0.65 0.960829 0.0445815 0.0671153
0.835107 0.5 -0.65 0.960851 0.0445788 -0.0671669
0.872262 0.5 0.6 0.953078 0.0484293 0.0685811
0.872262 0.5 -0.6 0.953101 0.0484273 -0.0686376
0.467897 0.5 0.95 0.995231 0.02024 0.0367374
0.467897 0.5 -0.95 0.995239 0.0202361 -0.0367571
0.90582 0.5 0.55 0.944805 0.0524413 0.0708992
0.90582 0.5 -0.55 0.944677 0.0523418 -0.0694032
0.797951 0.5 0.7 0.967812 0.0408924 0.0648783
0.797951 0.5 -0.7 0.967833 0.0408891 -0.064925
1.05773 0.5 0.0961516 0.882233 0.0759249 0.0192121
1.05773 0.5 -0.0961516 0.881666 0.0761444 -0.0195628
0.939379 0.5 0.5 0.935512 0.0564127 0.0692585
0.939379 0.5 -0.5 0.935536 0.0564119 -0.0693249
0.756813 0.5 -0.75 0.974139 0.0372911 -0.0621228
0.756814 0.5 0.75 0.97412 0.0372948 0.0620809
0 0.5 -1.06832 1 0 0
0 0.5 1.06832 1 0 0
0.969689 0.5 0.45 0.927792 0.0597939 0.0699573
0.969689 0.5 -0.45 0.925969 0.0604198 -0.0682837
0.219992 0.5 1.05 0.999742 0.00980475 0.0171015
0.219992 0.5 -1.05 0.999744 0.00980239 -0.0171095
0.715676 0.5 0.8 0.979609 0.0339056 0.0587869
0.715676 0.5 -0.8 0.979626 0.0339014 -0.0588241
1.05773 0.5 0.192304 0.886262 0.074847 0.0380228
1.05773 0.5 -0.192304 0.886491 0.074799 -0.0390293
1 0.5 0.4 0.915911 0.0642433 0.0655485
1 0.5 -0.4 0.915935 0.0642435 -0.0656248
1.07643 0.5 0.0474523 0.875589 0.0783367 0.010011
1.07643 0.5 -0.0474523 0.875593 0.078337 -0.0101036
0.412065 0.5 -1 0.997221 0.017497 -0.0322227
0.412065 0.5 1 0.997215 0.0175008 0.0322066
1.02554 0.5 0.343976 0.905325 0.0684843 0.0611179
1.02554 0.5 -0.343976 0.905592 0.0683756 -0.0610988
0.67013 0.5 -0.85 0.984465 0.0306123 -0.0550973
0.67013 0.5 0.85 0.98445 0.0306168 0.0550646
1.07643 0.5 0.142357 0.878396 0.0775966 0.029779
1.07643 0.5 -0.142357 0.878407 0.077597 -0.0298707
1.08646 0.5 -0.0942357 0.871721 0.079855 -0.0205519
1.09383 0.5 -1.96602e-17 0.869918 0.0803623 -0.000456667
0.624584 0.5 -0.9 0.988515 0.0275444 -0.0510771
0.624584 0.5 0.9 0.988501 0.0275491 0.0510487
1.05773 0.5 0.288455 0.893713 0.0729246 0.058921
1.05773 0.5 -0.288455 0.892981 0.0730467 -0.0559881
1.09383 0.5 0.0894942 0.870256 0.0804238 0.0216955
0 0.5 1.1 1 0 0
0 0.5 -1.1 1 0 0
1.08549 0.5 -0.187488 0.87616 0.0786865 -0.0402322
1.07643 0.5 0.237261 0.883914 0.0761429 0.0485525
1.07643 0.5 -0.237261 0.883932 0.0761436 -0.0486426
0.350249 0.5 1.05 0.998712 0.0147551 0.027344
0.350249 0.5 -1.05 0.998716 0.0147515 -0.0273566
1.09383 0.5 0.186809 0.874524 0.0792973 0.0400231
0.574156 0.5 0.95 0.991962 0.0245724 0.0466963
0.574156 0.5 -0.95 0.991973 0.0245677 -0.0467206
0.151552 0.5 1.1 1.00003 0.00688551 0.0121417
0.151552 0.5 -1.1 1.00003 0.0068838 -0.0121469
0.939379 0.5 0.6 0.944124 0.0535734 0.0779742
0.939379 0.5 -0.6 0.944153 0.0535716 -0.0780367
0.969689 0.5 0.55 0.934853 0.0575995 0.0784452
0.969689 0.5 -0.55 0.935004 0.0575614 -0.0786266
0.90582 0.5 -0.65 0.952772 0.0495719 -0.0766993
0.905821 0.5 0.65 0.952745 0.0495743 0.0766419
1.02554 0.5 -0.442255 0.914776 0.0657752 -0.0748972
1.02554 0.5 0.442255 0.914443 0.0659299 0.0750902
1 0.5 0.5 0.925221 0.061473 0.0776651
1 0.5 -0.5 0.925251 0.0614727 -0.0777376
0.872262 0.5 -0.7 0.960554 0.045745 -0.0746073
0.872262 0.5 0.7 0.960527 0.0457482 0.0745549
0.835106 0.5 -0.75 0.9676 0.0420098 -0.0719652
0.835106 0.5 0.75 0.967575 0.0420137 0.0719178
1.05773 0.5 0.384606 0.901742 0.0706733 0.07185
1.05773 0.5 -0.384606 0.901738 0.07066 -0.0715869
1.12467 0.5 -0.0458442 0.860075 0.0838838 -0.0108024
1.12467 0.5 0.0458442 0.861769 0.0833294 0.013861
1.07643 0.5 0.332166 0.891865 0.0740261 0.0656978
1.07643 0.5 -0.332166 0.891891 0.0740268 -0.0657857
0.523729 0.5 -1 0.994702 0.0217943 -0.0422251
0.523729 0.5 1 0.994692 0.021799 0.0422045
1.09383 0.5 0.281233 0.882577 0.077074 0.0586754
1.09383 0.5 -0.281233 0.883071 0.0768874 -0.0586086
0.797951 0.5 -0.8 0.973844 0.0384647 -0.0687225
0.797951 0.5 0.8 0.97382 0.0384691 0.0686801
0 0.5 1.13168 1 0 0
0 0.5 -1.13168 1 0 0
1.12467 0.5 -0.137533 0.863076 0.0831313 -0.0318527
1.12467 0.5 0.137533 0.863042 0.083136 0.031654
0.288433 0.5 1.1 0.999596 0.012059 0.0224478
0.288433 0.5 -1.1 0.9996 0.0120559 -0.0224573
0.756814 0.5 0.85 0.979382 0.035037 0.0650204
0.756814 0.5 -0.85 0.979403 0.0350321 -0.065058
1.12467 0.5 0.229221 0.86891 0.0816613 0.0516974
1.12467 0.5 -0.229221 0.868966 0.0816538 -0.0518881
1.08549 0.5 0.37332 0.892145 0.0744861 0.0748056
1.14834 0.5 0 0.85188 0.086715 -5.16433e-05
0.467897 0.5 1.05 0.996899 0.0190836 0.0374311
0.467897 0.5 -1.05 0.996907 0.0190789 -0.037448
0.715676 0.5 -0.9 0.98416 0.0318191 -0.0610334
0.715676 0.5 0.9 0.984141 0.0318244 0.0610003
1.14834 0.5 -0.0901106 0.853433 0.0863364 -0.0219808
1.14834 0.5 0.0901106 0.853424 0.0863361 0.0218779
0.075776 0.5 1.15 1.00006 0.00396925 0.00699467
0.075776 0.5 -1.15 1.00008 0.00370944 -0.00658772
1.09383 0.5 -0.374977 0.892282 0.0744573 -0.0750525
1.05485 0.5 0.476139 0.91192 0.0678035 0.0845514
1.07643 0.5 -0.427071 0.901892 0.0713222 -0.0807346
1.07643 0.5 0.427071 0.901859 0.0713217 0.0806505
1.02554 0.5 -0.540535 0.92529 0.0627047 -0.0863384
1.02554 0.5 0.540535 0.925244 0.0627086 0.0862545
1.05773 0.5 -0.480758 0.912194 0.0677382 -0.0848912
1.14834 0.5 -0.180221 0.858033 0.0852131 -0.0432228
1.14834 0.5 0.180221 0.858015 0.0852125 0.0431212
0.67013 0.5 0.95 0.988274 0.0287242 0.0566687
0.67013 0.5 -0.95 0.988291 0.0287188 -0.0566974
1.16437 0.5 0.044521 0.84785 0.0880796 0.0156505
1.16437 0.5 -0.044521 0.84635 0.0885563 -0.0113124
1 0.5 -0.6 0.935519 0.0583009 -0.0873339
1 0.5 0.6 0.935484 0.0583022 0.0872657
0.969689 0.5 0.65 0.944543 0.0544125 0.0863834
0.969689 0.5 -0.65 0.944704 0.0543696 -0.0865292
0 0.5 1.16832 1 0 0
0 0.5 -1.16832 1 0 0
1.12467 0.5 0.32091 0.877402 0.0795087 0.0700849
1.12467 0.5 -0.32091 0.877478 0.0794983 -0.070264
0.219992 0.5 1.15 1.00001 0.00956979 0.0176268
0.219992 0.5 -1.15 1.0001 0.00929347 -0.0172555
0.939379 0.5 -0.7 0.953184 0.0504681 -0.084514
0.939379 0.5 0.7 0.953151 0.0504713 0.0844563
1.16437 0.5 0.133563 0.849499 0.0877979 0.0333745
1.16437 0.5 -0.133563 0.849513 0.0877983 -0.0334796
0.412065 0.5 1.1 0.998463 0.0165072 0.0326161
0.412065 0.5 -1.1 0.998469 0.0165029 -0.0326297
0.90582 0.5 -0.75 0.961054 0.0465992 -0.0819029
0.90582 0.5 0.75 0.961023 0.046603 0.0818504
0.624584 0.5 -1 0.991687 0.0258384 -0.052182
0.624584 0.5 1 0.991673 0.0258439 0.0521574
1.14834 0.5 -0.270332 0.865501 0.0833805 -0.0631183
1.14834 0.5 0.270332 0.865474 0.0833797 0.0630187
0.872262 0.5 -0.8 0.968022 0.0429116 -0.0786969
0.872262 0.5 0.8 0.967993 0.0429162 0.0786495
1.16437 0.5 -0.222605 0.855732 0.0863077 -0.0546236
1.16437 0.5 0.222605 0.855709 0.086307 0.0545203
1.09383 0.5 -0.468722 0.903325 0.0714747 -0.0891257
1.09383 0.5 0.468722 0.903165 0.0715094 0.0889091
0.835106 0.5 0.85 0.974215 0.0393407 0.0750456
0.835106 0.5 -0.85 0.974242 0.0393355 -0.0750879
1.19294 0.5 0 0.835476 0.0920718 -5.67006e-05
1.19293 0.5 0.0870952 0.837117 0.0916907 0.023186
1.19294 0.5 -0.0871367 0.837127 0.0916909 -0.023299
1.07643 0.5 -0.521975 0.913379 0.0681124 -0.0932101
1.07643 0.5 0.521975 0.913339 0.0681125 0.09313
0.574156 0.5 -1.05 0.994532 0.023054 -0.0474265
0.574157 0.5 1.05 0.994519 0.0230596 0.0474057
1.12467 0.5 0.412598 0.888119 0.07675 0.0862204
1.12467 0.5 -0.412598 0.888213 0.0767365 -0.0863837
0 0.5 1.2 1 0 0
0 0.5 -1.2 1 0 0
0.350249 0.5 -1.15 0.999589 0.013923 -0.0275465
0.350249 0.5 1.15 0.99942 0.0144473 0.0286535
0.797951 0.5 -0.9 0.979667 0.0359723 -0.0710335
0.797951 0.5 0.9 0.979642 0.035978 0.0709961
1.14834 0.5 -0.360442 0.875502 0.0808977 -0.0810295
1.14834 0.5 0.360442 0.875467 0.080897 0.0809331
1.05773 0.5 -0.57691 0.923793 0.0643771 -0.0955078
1.05773 0.5 0.57691 0.923493 0.0644516 0.0952348
1.16437 0.5 -0.311647 0.864753 0.0841288 -0.0740895
1.16437 0.5 0.311647 0.86472 0.0841281 0.0739885
1.19294 0.5 -0.174273 0.842023 0.0905604 -0.0458501
1.19297 0.5 0.174199 0.841994 0.0905625 0.0457219
1.02554 0.5 -0.638814 0.936539 0.059269 -0.0949734
1.02554 0.5 0.638814 0.936488 0.0592747 0.0948971
0.151552 0.5 1.2 1.00021 0.00653255 0.0121692
0.151552 0.5 -1.2 1.00021 0.00653074 -0.0121734
0.756813 0.5 0.95 0.984399 0.0327419 0.0666567
0.756814 0.5 -0.95 0.984421 0.0327358 -0.0666896
0.523729 0.5 -1.1 0.996728 0.0204631 -0.042617
0.523729 0.5 1.1 0.996717 0.0204684 0.0425997
1 0.5 -0.7 0.946232 0.0548367 -0.0943236
1 0.5 0.7 0.946193 0.0548396 0.0942608
1.22029 0.5 -0.0426571 0.824668 0.0954121 -0.0124881
1.22029 0.5 0.0426571 0.824617 0.0954216 0.0117328
1.19297 0.5 0.261114 0.849909 0.0887282 0.0668732
1.19294 0.5 -0.26141 0.849992 0.0887142 -0.0670405
0.969689 0.5 -0.75 0.954602 0.0509541 -0.0920067
0.969689 0.5 0.75 0.954438 0.0510007 0.0918961
1.22029 0.5 0.127971 0.827975 0.0946709 0.0356115
1.22029 0.5 -0.127971 0.828126 0.0946423 -0.0363483
0.715676 0.5 -1 0.988426 0.0297224 -0.0621134
0.715676 0.5 1 0.988406 0.0297287 0.0620849
1.09383 0.5 -0.562466 0.915633 0.0680301 -0.100438
1.09383 0.5 0.562466 0.915457 0.0680702 0.100258
1.16437 0.5 0.400689 0.876122 0.081332 0.0911641
1.16437 0.5 -0.400689 0.876163 0.0813324 -0.0912609
0 0.5 1.23168 1 0 0
0 0.5 -1.23168 1 0 0
1.12467 0.5 0.504287 0.900541 0.073466 0.0997462
1.12467 0.5 -0.504287 0.900648 0.0734498 -0.099892
1.14834 0.5 -0.450553 0.88758 0.0778388 -0.0964535
1.14834 0.5 0.450553 0.887537 0.0778387 0.0963614
0.939379 0.5 -0.8 0.96219 0.0471985 -0.0887809
0.939379 0.5 0.8 0.962154 0.0472034 0.088729
0.288433 0.5 1.2 1.00017 0.0113947 0.0224778
0.288433 0.5 -1.2 1.00017 0.0113914 -0.0224855
1.2354 0.5 0 0.818546 0.0972472 -5.91266e-05
1.2354 0.5 -0.0843067 0.82029 0.0968655 -0.0246067
1.2354 0.5 0.0843067 0.820279 0.0968654 0.0244887
1.22029 0.5 -0.213285 0.83489 0.0931364 -0.0591707
1.22029 0.5 0.213285 0.834683 0.0931338 0.057334
1.07643 0.5 -0.61688 0.925796 0.0645034 -0.102699
1.07643 0.5 0.61688 0.92575 0.0645049 0.102625
0.467897 0.5 1.15 0.998442 0.0179332 0.0375838
0.467897 0.5 -1.15 0.99845 0.0179282 -0.0375978
0.90582 0.5 -0.85 0.969161 0.0435099 -0.0851372
0.90582 0.5 0.85 0.969127 0.0435154 0.0850905
1.19294 0.5 -0.348547 0.860699 0.0862072 -0.0862178
1.19297 0.5 0.348541 0.860684 0.0861981 0.0861036
0.67013 0.5 1.05 0.991826 0.0268345 0.0573074
0.67013 0.5 -1.05 0.991844 0.0268281 -0.0573319
1.2354 0.5 0.168613 0.825441 0.0957326 0.0483475
1.2354 0.5 -0.168613 0.825463 0.0957327 -0.0484642
0.075776 0.5 -1.25 1.00014 0.00352195 -0.00656156
0.075776 0.5 1.25 1.00014 0.00352296 0.00655956
0.872262 0.5 -0.9 0.975222 0.0400046 -0.0810386
0.872262 0.5 0.9 0.97519 0.0400108 0.0809971
1.05773 0.5 -0.673062 0.935933 0.0606923 -0.103322
1.05773 0.5 0.673062 0.935623 0.0607739 0.103111
1.25536 0.5 -0.0414881 0.810093 0.0996442 -0.0127682
1.25536 0.5 0.0414881 0.810082 0.0996454 0.012567
1.22029 0.5 0.2986 0.844387 0.0910001 0.0796401
1.22029 0.5 -0.2986 0.84472 0.0909364 -0.080284
1.2354 0.5 0.25292 0.833872 0.0938803 0.07084
1.2354 0.5 -0.25292 0.833905 0.0938803 -0.0709545
1.25536 0.5 0.124464 0.813629 0.0988845 0.0375524
1.25536 0.5 -0.124464 0.813663 0.0988806 -0.0377509
1.02554 0.5 0.737092 0.947942 0.0555927 0.100963
1.02554 0.5 -0.737092 0.947998 0.0555851 -0.10103
1.16437 0.5 -0.489731 0.889462 0.0779929 -0.105711
1.16437 0.5 0.489731 0.889414 0.0779933 0.105618
0.835106 0.5 -0.95 0.980549 0.0366248 -0.0766642
0.835106 0.5 0.95 0.98052 0.0366315 0.0766276
0.624584 0.5 -1.1 0.994605 0.0241482 -0.05247
0.624584 0.5 1.1 0.99459 0.0241545 0.0524493
0 0.5 -1.26832 1 0 0
0 0.5 1.26832 1 0 0
0.412065 0.5 1.2 0.999606 0.0155238 0.0325848
0.412065 0.5 -1.2 0.999612 0.0155191 -0.0325959
0.219992 0.5 1.25 1.00041 0.00880136 0.0171788
0.219992 0.5 -1.25 1.00042 0.00879872 -0.0171841
1.14834 0.5 -0.540664 0.901147 0.0742869 -0.109022
1.14834 0.5 0.540664 0.901096 0.0742877 0.108936
1.19294 0.5 -0.435684 0.873679 0.0831069 -0.102821
1.19297 0.5 0.435676 0.873654 0.0830986 0.102709
1.25536 0.5 -0.20744 0.820696 0.097379 -0.0617083
1.25536 0.5 0.20744 0.818777 0.0979034 0.0603875
1.12467 0.5 0.595975 0.914033 0.0697478 0.110258
1.12467 0.5 -0.595975 0.914152 0.0697285 -0.110383
1.09383 0.5 -0.65621 0.928577 0.0642396 -0.108824
1.09383 0.5 0.65621 0.928392 0.0642841 0.108679
1.22029 0.5 0.383914 0.856786 0.0881839 0.0984739
1.22029 0.5 -0.383914 0.857193 0.0881041 -0.0990447
0.797951 0.5 -1 0.985115 0.03347 -0.0719981
0.797951 0.5 1 0.985089 0.033477 0.0719661
1.27974 0.5 -2.42861e-17 0.798734 0.102751 -0.000313638
1.2354 0.5 0.337227 0.84525 0.0913623 0.0913034
1.2354 0.5 -0.337227 0.845293 0.091362 -0.0914147
1 0.5 -0.8 0.956855 0.0511934 -0.098818
1 0.5 0.8 0.956812 0.0511982 0.0987615
1.27974 0.5 -0.0813505 0.800606 0.102363 -0.0263162
1.27974 0.5 0.0813505 0.800524 0.102377 0.0256958
0.574156 0.5 1.15 0.996851 0.021569 0.0474299
0.574156 0.5 -1.15 0.996863 0.0215631 -0.0474472
1.25536 0.5 0.290417 0.82829 0.0959612 0.0837761
1.25536 0.5 -0.290417 0.830975 0.0951774 -0.0839535
1.27874 0.5 0.162701 0.805934 0.101254 0.05103
0.969689 0.5 -0.85 0.964208 0.0474187 -0.0951963
0.969689 0.5 0.85 0.964047 0.0474681 0.0951196
1.27974 0.5 -0.162701 0.806096 0.101227 -0.0516303
1.07643 0.5 0.711784 0.938426 0.0606271 0.109382
1.07643 0.5 -0.711784 0.938476 0.0606237 -0.109451
0.756814 0.5 -1.05 0.989055 0.0304512 -0.0671645
0.756814 0.5 1.05 0.989032 0.0304584 0.0671367
1.29471 0.5 0.0401762 0.792028 0.104547 0.0132638
1.29471 0.5 -0.0401762 0.792034 0.104547 -0.0133939
0.350249 0.5 1.25 1.00034 0.0137957 0.029205
0.350249 0.5 -1.25 1.00037 0.0131117 -0.0273886
0 0.5 1.3 1 0 0
0 0.5 -1.3 1 0 0
1.16437 0.5 0.578773 0.903922 0.0742019 0.117044
1.16437 0.5 -0.578773 0.903978 0.0742003 -0.11713
1.29471 0.5 0.120529 0.795741 0.103787 0.0395737
1.29471 0.5 -0.120529 0.79576 0.103787 -0.0397033