# UMean  POINT_DATA 52309
# x  y  z  UMean_x  UMean_y  UMean_z
0 0 0 0.644541 0 0
0 0.00519778 0 1 0 0
0 0.0106663 0 1 0 0
0 0.0164197 0 1 0 0
0 0.0224727 0 1 0 0
0 0.028841 0 1 0 0
0 0.035541 0 1 0 0
0 0.04259 0 1 0 0
0 0.0500061 0 1 0 0
0 0.0578085 0 1 0 0
0 0.0660173 0 1 0 0
0 0.0746537 0 1 0 0
0.075776 0.00259889 0 0.743297 0.00750496 -2.4556e-06
0.075776 0.00793204 0 0.949351 0.0153789 -2.83301e-06
0.075776 0.013543 0 0.993502 0.0182215 -2.78897e-06
0.075776 0.0194462 0 1.00205 0.0180493 -2.76528e-06
0.075776 0.0256568 0 1.00416 0.0176906 -2.76972e-06
0.075776 0.032191 3.46945e-18 1.00481 0.0173034 -2.73918e-06
0 0.0837399 0 1 0 0
0.075776 0.0390655 3.46945e-18 1.00505 0.0168673 -2.72365e-06
0.075776 0.046298 -3.46945e-18 1.00515 0.0163945 -2.72437e-06
0.075776 0.0539073 0 1.00518 0.0159012 -2.73654e-06
0 0.0932994 0 1 0 0
0.075776 0.0619129 0 1.00518 0.0153914 -2.75378e-06
0 0.103357 0 1 0 0
0.075776 0.0703355 0 1.00515 0.0148692 -2.77202e-06
0.075776 0.0791968 0 1.00508 0.0143403 -2.79187e-06
0 0.113938 0 1 0 0
0.075776 0.0885197 3.46945e-18 1.00497 0.0137999 -2.8173e-06
0.075776 0.0983282 0 1.00483 0.0132488 -2.85015e-06
0 0.12507 0 1 0 0
0.075776 0.108648 0 1.00465 0.0126941 -2.88959e-06
0 0.136783 0 1 0 0
0.075776 0.119504 0 1.00443 0.012137 -2.93523e-06
0 0.149105 0 1 0 0
0.075776 0.130926 0 1.00417 0.0115792 -2.98548e-06
0.151552 0 0 0 0 0
0.151552 0.00519778 0 0.744946 0.0102638 -5.05398e-06
0.151552 0.0106663 0 0.93283 0.0153895 -5.53954e-06
0.151552 0.0164197 0 0.98816 0.0168936 -5.30187e-06
0.151552 0.0224727 0 1.0024 0.0170456 -5.07998e-06
0.151552 0.028841 0 1.00631 0.016932 -4.9422e-06
0.151552 0.035541 0 1.00752 0.0167117 -4.87867e-06
0.151552 0.04259 0 1.00785 0.0164292 -4.84355e-06
0.151552 0.0500061 0 1.00785 0.0161119 -4.82455e-06
0.075776 0.142944 0 1.00389 0.0110239 -3.038e-06
0 0.162069 0 1 0 0
0.151552 0.0578085 0 1.0077 0.0157763 -4.81377e-06
0.151552 0.0660173 0 1.00748 0.0154308 -4.80438e-06
0.151552 0.0746537 0 1.00722 0.0150795 -4.79519e-06
0.075776 0.155587 3.46945e-18 1.00359 0.010475 -3.0905e-06
0.151552 0.0837399 0 1.00692 0.0147217 -4.79006e-06
0 0.175708 0 1 0 0
0.151552 0.0932994 0 1.0066 0.0143565 -4.7896e-06
0.151552 0.103357 0 1.00626 0.0139875 -4.79238e-06
0.075776 0.168888 0 1.00327 0.00993667 -3.1403e-06
0.151552 0.113938 0 1.00589 0.0136175 -4.79914e-06
0 0.190058 0 1 0 0
0.151552 0.12507 0 1.0055 0.013247 -4.81479e-06
0.075776 0.182883 0 1.00294 0.00941446 -3.18481e-06
0.151552 0.136783 0 1.00509 0.012878 -4.84263e-06
0 0.205155 0 1 0 0
0.075776 0.197606 0 1.00261 0.00891447 -3.22102e-06
0.151552 0.149105 0 1.00465 0.0125123 -4.88269e-06
0.219992 0.00259889 0 0.468416 0.00549912 -6.32299e-06
0.219993 0.00793204 0 0.83218 0.0128288 -8.28475e-06
0.219993 0.013543 0 0.961412 0.0153159 -7.88955e-06
0.219992 0.0194462 -3.46945e-18 0.996948 0.0161522 -7.42885e-06
0 0.221039 0 1 0 0
0.219993 0.0256568 0 1.00653 0.0163994 -7.04941e-06
0.151552 0.162069 0 1.00419 0.012152 -4.93336e-06
0.219993 0.032191 0 1.00949 0.0164096 -6.92041e-06
0.219993 0.0390655 0 1.01037 0.0163158 -6.84679e-06
0.219993 0.0462981 3.46945e-18 1.01048 0.0161659 -6.79846e-06
0.075776 0.213097 6.93889e-18 1.0023 0.00843255 -3.2453e-06
0.219992 0.0539073 0 1.01025 0.0159905 -6.76131e-06
0.219992 0.0619129 0 1.00988 0.0158049 -6.72937e-06
0.219992 0.0703355 0 1.00943 0.0156177 -6.69192e-06
0.151552 0.175708 0 1.00371 0.0118007 -4.99102e-06
0.219992 0.0791968 0 1.00894 0.0154279 -6.65831e-06
0.219992 0.0885196 3.46945e-18 1.00844 0.0152325 -6.62988e-06
0 0.23775 0 1 0 0
0.219992 0.0983282 0 1.00794 0.0150345 -6.60217e-06
0.075776 0.229395 -3.46945e-18 1.00201 0.00797537 -3.25413e-06
0.151552 0.190058 0 1.00322 0.0114621 -5.05177e-06
0.219992 0.108647 0 1.00743 0.0148382 -6.57322e-06
0.219992 0.119504 -3.46945e-18 1.0069 0.0146418 -6.54896e-06
0.151552 0.205155 0 1.00274 0.0111377 -5.11161e-06
0 0.255331 0 1 0 0
0.219992 0.130926 3.46945e-18 1.00635 0.0144465 -6.54429e-06
0.075776 0.24654 0 1.00172 0.00755698 -3.247e-06
0.219993 0.142944 3.46945e-18 1.00579 0.0142539 -6.5608e-06
0.151552 0.221039 0 1.00226 0.0108296 -5.16635e-06
0.219992 0.155587 0 1.0052 0.0140633 -6.60125e-06
0 0.273828 0 1 0 0
0.075776 0.264579 -3.46945e-18 1.00143 0.00717176 -3.22494e-06
0.219992 0.168888 3.46945e-18 1.00459 0.0138762 -6.66138e-06
0.151552 0.23775 0 1.00179 0.0105441 -5.21281e-06
0.219992 0.182883 0 1.00396 0.0136949 -6.73634e-06
0.288433 0 0 0 0 0
0.288433 0.00519778 0 0.57059 0.007078 -9.39139e-06
0.288433 0.0106663 0 0.849977 0.0119758 -1.06486e-05
0.288433 0.0164197 0 0.958371 0.013914 -1.00704e-05
0.288433 0.0224727 0 0.992367 0.0147396 -9.50031e-06
0.288433 0.028841 0 1.00273 0.0150834 -9.12827e-06
0.288433 0.035541 0 1.00611 0.0152297 -8.92257e-06
0.288433 0.04259 3.70071e-18 1.00721 0.0152933 -8.78838e-06
0.288433 0.0500061 0 1.00743 0.0153131 -8.69538e-06
0 0.293289 0 1 0 0
0.075776 0.283558 0 1.00115 0.00681982 -3.18898e-06
0.288433 0.0578085 0 1.00729 0.0153114 -8.62703e-06
0.219992 0.197607 3.46945e-18 1.00332 0.0135214 -6.82111e-06
0.288433 0.0660173 0 1.00699 0.015301 -8.57131e-06
0.151552 0.255331 0 1.00134 0.0102858 -5.24942e-06
0.288433 0.0746537 0 1.0066 0.0152856 -8.525e-06
0.288433 0.0837399 0 1.00618 0.015264 -8.48882e-06
0.288433 0.0932994 0 1.00574 0.015237 -8.45944e-06
0.219992 0.213097 3.46945e-18 1.00268 0.0133578 -6.91153e-06
0.288433 0.103357 0 1.00529 0.0152085 -8.43499e-06
0.288433 0.113938 0 1.00481 0.0151803 -8.41903e-06
0.075776 0.303526 0 1.00085 0.00652118 -3.1448e-06
0.151552 0.273828 0 1.0009 0.0100553 -5.27551e-06
0 0.313763 0 1 0 0
0.288433 0.12507 0 1.00429 0.0151525 -8.41864e-06
0.219992 0.229394 0 1.00204 0.0132069 -7.00212e-06
0.288433 0.136783 0 1.00375 0.0151264 -8.43866e-06
0.288433 0.149105 0 1.00317 0.0151032 -8.48067e-06
0.151552 0.293289 0 1.00046 0.00985736 -5.2932e-06
0.219992 0.24654 0 1.00141 0.0130717 -7.08989e-06
0.288433 0.162069 0 1.00257 0.0150837 -8.54368e-06
0.075776 0.324533 6.93889e-18 1.00053 0.0062723 -3.10337e-06
0 0.335303 0 1 0 0
0.288433 0.175708 0 1.00194 0.015069 -8.62424e-06
0.219992 0.264579 0 1.00081 0.0129589 -7.17127e-06
0.288433 0.190058 0 1.0013 0.0150607 -8.71856e-06
0.151552 0.313763 0 1.00003 0.00969691 -5.30942e-06
0.350249 0.00259889 3.46945e-18 0.284357 0.00169541 -9.34066e-06
0.350249 0.00793204 -3.46945e-18 0.707296 0.00854738 -1.33588e-05
0.350249 0.013543 3.46945e-18 0.904827 0.011471 -1.27441e-05
0.350249 0.0194462 3.46945e-18 0.972877 0.0129423 -1.19205e-05
0.350249 0.0256568 -3.46945e-18 0.99427 0.0136546 -1.13225e-05
0.350249 0.032191 -6.93889e-18 1.00128 0.0140336 -1.09554e-05
0.350249 0.0390655 6.93889e-18 1.00377 0.0142998 -1.07153e-05
0.350249 0.0462981 -3.46945e-18 1.0046 0.0145087 -1.05497e-05
0.288433 0.205155 -6.16298e-33 1.00064 0.0150601 -8.82302e-06
0.350249 0.0539073 0 1.00477 0.014682 -1.04351e-05
0.075776 0.346634 0 1.00027 0.00606008 -3.0649e-06
0.350249 0.0619129 3.46945e-18 1.00462 0.0148405 -1.03496e-05
0.350249 0.0703355 3.46945e-18 1.00434 0.0149915 -1.02843e-05
0 0.357966 0 1 0 0
0.219993 0.283558 3.46945e-18 1.00024 0.0128691 -7.24531e-06
0.350249 0.0791968 3.46945e-18 1.004 0.0151347 -1.02368e-05
0.350249 0.0885196 0 1.00364 0.0152691 -1.02023e-05
0.288433 0.221039 0 0.999982 0.0150689 -8.93364e-06
0.350249 0.0983282 6.93889e-18 1.00325 0.015399 -1.01757e-05
0.350249 0.108647 3.46945e-18 1.00283 0.0155286 -1.01608e-05
0.151552 0.335303 0 0.99964 0.00957121 -5.32888e-06
0.350249 0.119504 -3.46945e-18 1.00236 0.0156584 -1.01638e-05
0.288433 0.23775 0 0.999325 0.0150895 -9.04671e-06
0.350249 0.130927 0 1.00184 0.0157884 -1.01865e-05
0.219992 0.303526 -3.46945e-18 0.999686 0.0128014 -7.31494e-06
0.075776 0.369888 0 1.00009 0.00589193 -3.02587e-06
0.350249 0.142944 3.46945e-18 1.00128 0.0159212 -1.02305e-05
0 0.381809 0 1 0 0
0.350249 0.155587 0 1.00069 0.0160581 -1.02961e-05
0.288433 0.255331 0 0.998676 0.0151254 -9.15894e-06
0.151552 0.357966 0 0.99931 0.00947996 -5.3489e-06
0.350249 0.168888 0 1.00007 0.0161999 -1.03805e-05
0.219992 0.324533 0 0.999163 0.0127605 -7.38843e-06
0.350249 0.182883 3.46945e-18 0.999426 0.0163472 -1.04818e-05
0.288433 0.273828 0 0.998038 0.0151808 -9.26791e-06
0.075776 0.394351 3.46945e-18 0.999955 0.00576846 -2.98331e-06
0.350249 0.197607 3.46945e-18 0.998764 0.0165007 -1.05965e-05
0 0.406893 0 1 0 0
0.350249 0.213097 -3.46945e-18 0.99809 0.0166613 -1.07226e-05
0.219992 0.346635 0 0.998694 0.0127466 -7.46532e-06
0.151552 0.381809 0 0.999047 0.0094272 -5.36386e-06
0.288433 0.293289 -6.16298e-33 0.997416 0.015257 -9.37329e-06
0.412065 9.61782e-19 3.08149e-33 5.89252e-17 2.53726e-19 -5.22498e-19
0.412065 0.00259889 0 0.225059 0.00193379 -7.24905e-06
0.412065 0.00519778 -3.08149e-33 0.450118 0.00386757 -1.44981e-05
0.412065 0.00793204 0 0.606824 0.00608547 -1.55208e-05
0.412065 0.0106663 -3.70076e-18 0.763531 0.00830336 -1.65436e-05
0.412065 0.0164197 -3.70076e-18 0.91377 0.0107614 -1.55433e-05
0.412065 0.0224727 0 0.969298 0.0121178 -1.46003e-05
0.412065 0.028841 0 0.988423 0.0128677 -1.39577e-05
0.412065 0.035541 -3.70076e-18 0.995236 0.0133528 -1.35226e-05
0.412065 0.04259 -3.70076e-18 0.997858 0.0137295 -1.32066e-05
0.412065 0.0500061 0 0.998877 0.0140498 -1.29662e-05
0.412065 0.0578085 -3.70076e-18 0.99921 0.0143402 -1.27789e-05
0.412065 0.0660173 -3.70076e-18 0.999227 0.0146173 -1.26333e-05
0.350249 0.229395 0 0.99741 0.0168304 -1.08557e-05
0.412065 0.0746537 -3.70076e-18 0.99909 0.0148853 -1.25234e-05
0.412065 0.0837399 -3.70076e-18 0.998878 0.0151443 -1.24426e-05
0.412065 0.0932994 -3.70076e-18 0.998617 0.015402 -1.23871e-05
0.412065 0.103357 -3.70076e-18 0.998305 0.0156632 -1.23565e-05
0.288433 0.313763 0 0.996819 0.0153559 -9.47754e-06
0.075776 0.420089 0 0.999841 0.00567996 -2.9416e-06
0.412065 0.113938 -3.70076e-18 0.997935 0.0159263 -1.23473e-05
0.350249 0.24654 -3.46945e-18 0.99673 0.0170098 -1.09938e-05
0.219992 0.369887 0 0.998299 0.0127637 -7.5388e-06
0.412065 0.12507 -3.70076e-18 0.997506 0.0161917 -1.23569e-05
5.60855e-17 0.433285 6.16298e-33 1 2.67588e-18 2.3246e-19
0.412065 0.136783 -3.70076e-18 0.997024 0.016462 -1.2386e-05
0.151552 0.406893 0 0.998829 0.00941222 -5.37145e-06
0.412065 0.149105 0 0.996497 0.0167389 -1.24352e-05
0.350249 0.264579 3.46945e-18 0.996048 0.0172027 -1.11324e-05
0.288433 0.335303 0 0.996264 0.0154801 -9.58193e-06
0.412065 0.162069 0 0.995931 0.0170233 -1.25035e-05
0.412065 0.175708 3.08149e-33 0.995333 0.017316 -1.25893e-05
0.350249 0.283558 3.46945e-18 0.995361 0.017415 -1.12707e-05
0.219993 0.394351 0 0.99797 0.0128159 -7.60004e-06
0.075776 0.447168 -3.46945e-18 0.999747 0.0056224 -2.90552e-06
0.412065 0.190058 3.08149e-33 0.994708 0.017618 -1.26907e-05
0.151552 0.433285 -3.70071e-18 0.998643 0.00943156 -5.37301e-06
0.288433 0.357966 0 0.995768 0.015632 -9.68314e-06
0.412065 0.205155 3.08149e-33 0.994063 0.01793 -1.28057e-05
0 0.461051 0 1 0 0
0.350249 0.303526 6.93889e-18 0.99469 0.0176467 -1.14065e-05
0.412065 0.213097 0 0.993734 0.0180916 -1.28685e-05
0.412065 0.221039 -3.08149e-33 0.993405 0.0182532 -1.29314e-05
0.467897 0.00259889 0 0.209088 0.000353517 -1.45216e-05
0.467897 0.00793204 -3.46945e-18 0.60499 0.00501791 -2.04111e-05
0.467897 0.013543 3.46945e-18 0.841895 0.00837268 -1.92603e-05
0.467897 0.0194462 3.46945e-18 0.938359 0.0104252 -1.78806e-05
0.467897 0.0256568 -3.46945e-18 0.973324 0.0115843 -1.69366e-05
0.467897 0.032191 3.46945e-18 0.985894 0.0123102 -1.62936e-05
0.467897 0.0390655 3.46945e-18 0.990843 0.0128609 -1.58183e-05
0.467897 0.046298 3.46945e-18 0.992945 0.013326 -1.54485e-05
0.467897 0.0539073 3.46945e-18 0.993856 0.013745 -1.51484e-05
0.412065 0.229395 0 0.993071 0.0184211 -1.29984e-05
0.467897 0.0619129 3.46945e-18 0.994221 0.0141414 -1.49096e-05
0.467897 0.0703355 0 0.994318 0.0145301 -1.4725e-05
0.219992 0.420089 -3.46945e-18 0.997689 0.0129049 -7.64757e-06
0.467897 0.0791968 3.46945e-18 0.994278 0.0149051 -1.45887e-05
0.412065 0.23775 3.08149e-33 0.992738 0.0185891 -1.30654e-05
0.467897 0.0885197 0 0.994159 0.0152749 -1.44886e-05
0.350249 0.324533 3.46945e-18 0.994054 0.017901 -1.1541e-05
0.467897 0.0983282 0 0.993969 0.0156571 -1.44307e-05
0.288433 0.381809 0 0.995342 0.0158155 -9.77461e-06
0.467897 0.103357 0 0.992811 0.0160298 -1.4546e-05
0.467897 0.108647 0 0.993707 0.0160454 -1.44091e-05
0.075776 0.475657 0 0.999666 0.0055971 -2.87909e-06
0.467897 0.119504 -3.46945e-18 0.993373 0.0164351 -1.44062e-05
0.412065 0.255331 3.08149e-33 0.992065 0.0189394 -1.32046e-05
0.151552 0.461051 0 0.998485 0.00948285 -5.36934e-06
0.467897 0.130927 3.46945e-18 0.992973 0.0168317 -1.44222e-05
0.467897 0.142944 -3.46945e-18 0.992515 0.0172376 -1.44565e-05
0 0.490263 0 1 0 0
0.350249 0.346634 0 0.993467 0.0181802 -1.16705e-05
0.467897 0.155587 -6.93889e-18 0.992008 0.0176534 -1.45104e-05
0.412065 0.273828 3.08149e-33 0.991388 0.0193071 -1.33466e-05
0.467897 0.168888 0 0.991459 0.01808 -1.45808e-05
0.219992 0.447168 0 0.997445 0.0130284 -7.6795e-06
0.288433 0.406893 0 0.994983 0.0160335 -9.85077e-06
0.467897 0.182883 0 0.990876 0.0185185 -1.46688e-05
0.412065 0.293289 3.08149e-33 0.990716 0.019694 -1.34893e-05
0.467897 0.197606 -3.46945e-18 0.990264 0.0189699 -1.47715e-05
0.350249 0.369887 3.46945e-18 0.992944 0.0184878 -1.17928e-05
0.075776 0.50563 0 0.9996 0.00559998 -2.85857e-06
0.151552 0.490263 0 0.998353 0.00956534 -5.36199e-06
0.467897 0.213097 0 0.989631 0.019435 -1.48885e-05
0.467897 0.221039 0 0.988427 0.0197757 -1.49825e-05
0.412065 0.313763 3.08149e-33 0.990068 0.0201013 -1.36314e-05
0.288433 0.433285 0 0.994679 0.0162865 -9.90943e-06
0 0.520997 0 1 0 0
0.467897 0.229395 0 0.988982 0.0199152 -1.5016e-05
0.523729 0 0 0 0 0
0.523729 0.00519778 0 0.375611 0.00220034 -2.10687e-05
0.523729 0.0106663 -3.70076e-18 0.686176 0.00583389 -2.42627e-05
0.523729 0.0164197 0 0.863295 0.00867189 -2.26173e-05
0.219992 0.475657 0 0.997239 0.0131822 -7.69258e-06
0.523729 0.0224727 0 0.938715 0.0104818 -2.10133e-05
0.523729 0.028841 0 0.967639 0.011595 -1.98983e-05
0.523729 0.035541 0 0.978805 0.012358 -1.90983e-05
0.523729 0.04259 0 0.983488 0.0129649 -1.84905e-05
0.523729 0.0500061 0 0.985633 0.0135012 -1.80124e-05
0.523729 0.0578085 0 0.986665 0.0140017 -1.76342e-05
0.350249 0.394351 3.46945e-18 0.992495 0.0188275 -1.18993e-05
0.523729 0.0660173 0 0.987162 0.0144872 -1.73407e-05
0.467897 0.24654 0 0.98832 0.0204118 -1.51536e-05
0.523729 0.0746537 -3.70076e-18 0.987387 0.0149616 -1.71208e-05
0.523729 0.0837399 -3.70076e-18 0.987461 0.0154299 -1.69549e-05
0.412065 0.335303 3.08149e-33 0.989459 0.0205315 -1.37712e-05
0.523729 0.0932994 0 0.987433 0.0159074 -1.68271e-05
0.523729 0.103357 -3.08149e-33 0.987316 0.0163963 -1.67356e-05
0.523729 0.113938 0 0.987116 0.0168914 -1.66749e-05
0.467897 0.264579 0 0.987651 0.0209262 -1.52964e-05
0.523729 0.12507 0 0.98684 0.0173948 -1.66403e-05
0.523729 0.136783 0 0.986495 0.0179094 -1.66305e-05
0.075776 0.537164 0 0.999548 0.00562845 -2.84007e-06
0.151552 0.520997 0 0.998249 0.00967777 -5.35168e-06
0.288433 0.461051 0 0.994427 0.0165724 -9.94831e-06
0.523729 0.149105 0 0.98609 0.0184367 -1.66448e-05
0.412065 0.357966 3.08149e-33 0.988904 0.0209873 -1.39059e-05
0.350249 0.420089 0 0.99212 0.0192018 -1.19867e-05
0.467897 0.283558 0 0.986979 0.0214592 -1.54446e-05
0.523729 0.162069 0 0.985634 0.0189776 -1.66825e-05
0.219992 0.50563 0 0.997073 0.0133701 -7.69579e-06
0.523729 0.175708 0 0.985134 0.0195331 -1.67422e-05
5.0477e-17 0.553331 3.70071e-18 1 2.58694e-18 -2.12478e-19
0.523729 0.190058 0 0.984599 0.0201044 -1.68221e-05
0.467897 0.303526 3.46945e-18 0.986321 0.0220113 -1.55927e-05
0.412065 0.381809 3.08149e-33 0.988418 0.0214718 -1.40308e-05
0.523729 0.205155 3.08149e-33 0.984036 0.0206924 -1.69201e-05
0.350249 0.447168 3.46945e-18 0.991811 0.0196103 -1.20528e-05
0.523729 0.221039 3.08149e-33 0.98345 0.0212982 -1.70337e-05
0.288433 0.490263 0 0.994226 0.0168907 -9.96978e-06
0.467897 0.324533 3.46945e-18 0.985691 0.0225844 -1.57424e-05
0.151552 0.553331 0 0.99817 0.00981741 -5.33856e-06
0.574156 0.00259889 3.46945e-18 0.167508 0.000193844 -1.96929e-05
0.574156 0.00793204 0 0.524178 0.00328723 -2.92718e-05
0.574156 0.013543 0 0.777568 0.00674831 -2.76435e-05
0.574156 0.0194462 0 0.89818 0.00921782 -2.52603e-05
0.574156 0.0256568 0 0.946796 0.0107547 -2.35977e-05
0.574157 0.032191 0 0.965797 0.0117679 -2.24212e-05
0.523729 0.23775 0 0.982847 0.0219228 -1.71604e-05
0.075776 0.57034 6.93889e-18 0.999509 0.00567949 -2.82271e-06
0.574156 0.0390655 0 0.97369 0.0125171 -2.15413e-05
0.574156 0.0462981 0 0.977353 0.0131692 -2.08546e-05
0.574157 0.0539073 0 0.979191 0.0137685 -2.03138e-05
0.574156 0.0619129 0 0.980163 0.014346 -1.98921e-05
0.574157 0.0703355 0 0.980692 0.0149153 -1.95719e-05
0.412065 0.406893 0 0.988007 0.0219879 -1.41405e-05
0.574156 0.0791968 0 0.980983 0.0154705 -1.93397e-05
0.219993 0.537164 0 0.996945 0.0135896 -7.69012e-06
0.574156 0.0885196 3.46945e-18 0.981131 0.0160338 -1.91497e-05
0.467897 0.346635 0 0.985106 0.0231809 -1.58876e-05
0.574157 0.0983282 0 0.981167 0.016618 -1.89919e-05
0.523729 0.255331 0 0.982232 0.0225673 -1.72976e-05
0.574156 0.108648 -3.46945e-18 0.981104 0.0172081 -1.88686e-05
0.574157 0.119504 3.46945e-18 0.980952 0.0178093 -1.87792e-05
0 0.58735 0 1 0 0
0.574156 0.130927 3.46945e-18 0.980722 0.0184238 -1.87213e-05
0.350249 0.475657 0 0.991565 0.0200517 -1.20959e-05
0.523729 0.273828 0 0.981612 0.0232325 -1.74424e-05
0.574156 0.142944 3.46945e-18 0.98042 0.0190534 -1.86933e-05
0.574156 0.155587 0 0.980058 0.0196991 -1.86938e-05
0.288433 0.520997 0 0.994075 0.0172409 -9.97779e-06
0.467897 0.369887 0 0.984582 0.0238033 -1.6029e-05
0.412065 0.433285 0 0.987673 0.022537 -1.42316e-05
0.574157 0.168888 3.46945e-18 0.979644 0.0203622 -1.87225e-05
0.523729 0.293289 3.08149e-33 0.980998 0.0239189 -1.7592e-05
0.574156 0.182883 0 0.979186 0.0210436 -1.87765e-05
0.151552 0.58735 0 0.998115 0.0099814 -5.32216e-06
0.574157 0.197607 0 0.978692 0.0217445 -1.88532e-05
0.574156 0.205155 0 0.977736 0.0222471 -1.87949e-05
0.075776 0.605245 -3.46945e-18 0.99948 0.00575003 -2.80432e-06
0.523729 0.313763 0 0.980402 0.0246273 -1.77439e-05
0.219992 0.570341 -3.46945e-18 0.996853 0.0138381 -7.67961e-06
0.467897 0.394351 -3.46945e-18 0.984131 0.0244544 -1.61576e-05
0.574156 0.213097 0 0.978169 0.0224659 -1.895e-05
0.350249 0.50563 3.46945e-18 0.991379 0.0205252 -1.21216e-05
0.574156 0.229395 0 0.977624 0.0232086 -1.90643e-05
0.412065 0.461051 3.08149e-33 0.987413 0.0231189 -1.42984e-05
0.523729 0.335303 0 0.979842 0.0253594 -1.7895e-05
0 0.623141 0 1 0 0
0.288433 0.553331 0 0.993972 0.0176209 -9.97508e-06
0.624584 0 0 0 0 0
0.624584 0.00519778 0 0.32128 0.00157505 -2.23635e-05
0.624584 0.0106663 -3.70076e-18 0.617754 0.00468282 -2.84435e-05
0.624584 0.0164197 0 0.810228 0.00774831 -2.73231e-05
0.574157 0.24654 0 0.977062 0.0239737 -1.91929e-05
0.624584 0.0224727 0 0.903308 0.00995228 -2.53914e-05
0.624584 0.028841 0 0.942515 0.0114054 -2.39145e-05
0.624584 0.035541 0 0.958681 0.0124101 -2.28719e-05
0.624584 0.04259 0 0.965804 0.013206 -2.2108e-05
0.624584 0.0500061 0 0.969286 0.0139153 -2.15293e-05
0.624584 0.0578085 0 0.971128 0.0145823 -2.10958e-05
0.624584 0.0660173 0 0.972159 0.01523 -2.07831e-05
0.467897 0.420089 -3.46945e-18 0.983762 0.0251368 -1.62733e-05
0.624584 0.0746537 -3.70076e-18 0.972766 0.0158651 -2.05693e-05
0.624584 0.0837399 0 0.973141 0.0165046 -2.04253e-05
0.624584 0.0932994 0 0.973364 0.0171626 -2.03249e-05
0.574156 0.264579 3.46945e-18 0.97649 0.0247617 -1.93332e-05
0.624584 0.103357 -3.08149e-33 0.973466 0.0178337 -2.02585e-05
0.523729 0.357966 0 0.979333 0.0261173 -1.80421e-05
0.624584 0.113938 0 0.973462 0.0185153 -2.02235e-05
0.624584 0.12507 -3.08149e-33 0.973366 0.0192121 -2.0218e-05
0.624584 0.136783 0 0.97319 0.0199263 -2.02393e-05
0.574156 0.283559 -3.46945e-18 0.975917 0.025573 -1.94817e-05
0.412065 0.490263 3.08149e-33 0.987225 0.0237326 -1.43405e-05
0.350249 0.537164 -3.46945e-18 0.991253 0.0210293 -1.21302e-05
0.151552 0.623141 6.16298e-33 0.998081 0.0101667 -5.30129e-06
0.624584 0.149105 0 0.972942 0.0206593 -2.02845e-05
0.219992 0.605245 -3.46945e-18 0.996794 0.0141128 -7.66122e-06
0.624584 0.162069 0 0.972634 0.0214123 -2.03518e-05
0.075776 0.641968 0 0.99946 0.00583709 -2.78478e-06
0.467897 0.447168 -3.46945e-18 0.983477 0.0258515 -1.63675e-05
0.523729 0.381809 0 0.97889 0.0269031 -1.81809e-05
0.624584 0.175708 0 0.972275 0.0221863 -2.04397e-05
0.574156 0.303526 3.46945e-18 0.975355 0.0264077 -1.96356e-05
0.624584 0.190058 0 0.971873 0.0229825 -2.05462e-05
0.288433 0.58735 0 0.993914 0.0180278 -9.96285e-06
0.624584 0.205155 -3.08149e-33 0.971436 0.0238018 -2.06697e-05
0.574156 0.324533 0 0.974819 0.0272669 -1.97912e-05
0 0.660796 0 1 0 0
0.624584 0.221039 0 0.970972 0.0246452 -2.08082e-05
0.523729 0.406893 0 0.978525 0.0277194 -1.83067e-05
0.412065 0.520997 -3.70076e-18 0.987106 0.024377 -1.43601e-05
0.467897 0.475657 0 0.983274 0.0265981 -1.64306e-05
0.624584 0.23775 3.08149e-33 0.970487 0.0255135 -2.09596e-05
0.350249 0.57034 0 0.991184 0.0215614 -1.21273e-05
0.67013 0.00259889 0 0.137376 0.000212442 -1.29233e-05
0.67013 0.00793204 0 0.458416 0.00262259 -2.77682e-05
0.67013 0.013543 -3.46945e-18 0.71402 0.00610526 -2.90919e-05
0.67013 0.0194462 -3.46945e-18 0.853782 0.00894439 -2.72136e-05
0.67013 0.0256568 3.46945e-18 0.916301 0.0108956 -2.54025e-05
0.574156 0.346635 3.46945e-18 0.974324 0.028152 -1.99453e-05
0.67013 0.032191 0 0.942477 0.01219 -2.41505e-05
0.67013 0.0390655 3.46945e-18 0.953811 0.0131401 -2.32901e-05
0.67013 0.0462981 0 0.959284 0.0139634 -2.26593e-05
0.67013 0.0539073 3.46945e-18 0.962169 0.0147178 -2.21996e-05
0.67013 0.0619129 0 0.963799 0.0154472 -2.18834e-05
0.67013 0.0703355 -3.46945e-18 0.964765 0.0161546 -2.16851e-05
0.624584 0.255331 0 0.969989 0.0264074 -2.11215e-05
0.67013 0.0791968 -3.46945e-18 0.965389 0.0168566 -2.15747e-05
0.67013 0.0885196 3.46945e-18 0.96581 0.0175864 -2.1525e-05
0.67013 0.0983282 -3.46945e-18 0.966084 0.0183332 -2.15143e-05
0.151552 0.660796 0 0.998065 0.0103702 -5.27463e-06
0.219992 0.641968 -3.46945e-18 0.996765 0.0144105 -7.63553e-06
0.67013 0.108648 -3.46945e-18 0.966233 0.0190885 -2.15334e-05
0.523729 0.433285 6.16298e-33 0.978246 0.0285678 -1.84144e-05
0.67013 0.119504 3.46945e-18 0.966275 0.0198601 -2.15806e-05
0.624584 0.273828 0 0.969486 0.0273273 -2.12915e-05
0.67013 0.130926 0 0.966223 0.0206517 -2.16523e-05
0.574156 0.369887 0 0.973885 0.0290648 -2.00933e-05
0.075776 0.680604 0 0.999447 0.00593781 -2.76212e-06
0.67013 0.142944 0 0.966091 0.0214645 -2.17454e-05
0.685312 0.0106663 -7.70372e-34 0.576256 0.00442351 -2.78972e-05
0.288433 0.623141 0 0.9939 0.0184584 -9.93977e-06
0.67013 0.155587 3.46945e-18 0.965889 0.0222996 -2.18554e-05
0.467897 0.50563 3.46945e-18 0.983151 0.0273757 -1.64671e-05
0.412065 0.553331 3.08149e-33 0.987056 0.0250501 -1.43604e-05
0.624584 0.293289 0 0.968989 0.0282736 -2.14667e-05
0.67013 0.168888 0 0.965627 0.0231583 -2.19805e-05
0.67013 0.182883 0 0.965315 0.0240418 -2.21199e-05
0.574157 0.394351 0 0.97352 0.0300075 -2.02307e-05
0.523729 0.461051 0 0.978056 0.0294491 -1.84968e-05
0.67013 0.197606 0 0.964963 0.024951 -2.22723e-05
0.624584 0.313763 0 0.96851 0.0292468 -2.1644e-05
0.350249 0.605245 0 0.991171 0.0221186 -1.2111e-05
0 0.700412 0 1 0 0
0.67013 0.213097 -3.46945e-18 0.964577 0.0258869 -2.24371e-05
0.67013 0.229395 -3.46945e-18 0.964166 0.0268503 -2.26125e-05
0.624584 0.335303 0 0.968064 0.0302479 -2.18199e-05
0.574156 0.420089 -3.46945e-18 0.97324 0.0309821 -2.03522e-05
0.467897 0.537164 3.46945e-18 0.983105 0.0281826 -1.64754e-05
0.67013 0.24654 -3.46945e-18 0.963738 0.0278418 -2.27971e-05
0.219993 0.680604 3.46945e-18 0.996764 0.0147276 -7.59883e-06
0.715676 4.80891e-19 0 1.4002e-17 2.59523e-20 4.97769e-19
0.715676 0.00519778 0 0.276186 0.00138846 -1.92756e-05
0.715676 0.0106663 1.54074e-33 0.555508 0.00429385 -2.7624e-05
0.715676 0.0164197 1.54074e-33 0.755512 0.00756263 -2.81785e-05
0.715676 0.0224727 -3.08149e-33 0.863703 0.0101794 -2.67463e-05
0.715676 0.028841 0 0.913804 0.0120118 -2.53505e-05
0.715676 0.035541 0 0.935885 0.0132858 -2.43481e-05
0.151552 0.700412 0 0.998067 0.0105884 -5.24344e-06
0.715676 0.04259 0 0.945854 0.0142726 -2.36682e-05
0.523729 0.490263 0 0.977955 0.0303627 -1.85515e-05
0.715676 0.0500061 1.54074e-33 0.950841 0.0151384 -2.32052e-05
0.412065 0.58735 -3.70076e-18 0.987073 0.025749 -1.43433e-05
0.715676 0.0578085 0 0.953577 0.0159576 -2.28987e-05
0.715676 0.0660173 1.54074e-33 0.955175 0.016747 -2.27137e-05
0.715676 0.0746537 0 0.956176 0.0175202 -2.26243e-05
0.624584 0.357966 0 0.967667 0.0312785 -2.19905e-05
0.67013 0.264579 0 0.963301 0.0288621 -2.29891e-05
0.715676 0.0837399 0 0.956864 0.0183093 -2.26082e-05
0.288433 0.660796 0 0.993927 0.0189088 -9.90408e-06
0.715676 0.0932994 0 0.957354 0.0191211 -2.26441e-05
0.715676 0.103357 1.54074e-33 0.95769 0.0199446 -2.2716e-05
0.715676 0.113938 1.54074e-33 0.957897 0.0207829 -2.28169e-05
0.075776 0.721251 0 0.999442 0.00604932 -2.73805e-06
0.685312 0.23775 -7.70372e-34 0.961077 0.028126 -2.32784e-05
0.715676 0.12507 0 0.957994 0.0216415 -2.29423e-05
0.67013 0.283558 -3.46945e-18 0.962864 0.0299114 -2.31861e-05
0.574156 0.447168 -3.46945e-18 0.973052 0.03199 -2.0452e-05
0.715676 0.136783 0 0.957998 0.0225228 -2.30894e-05
0.715676 0.149105 0 0.957921 0.0234281 -2.32524e-05
0.350249 0.641968 -3.46945e-18 0.991211 0.0226968 -1.20804e-05
0.624584 0.381809 0 0.967335 0.0323402 -2.21513e-05
0.715676 0.162069 0 0.957776 0.0243587 -2.34261e-05
0.67013 0.303526 0 0.962439 0.0309902 -2.33857e-05
0.715676 0.175708 1.54074e-33 0.957573 0.025316 -2.36098e-05
0.467897 0.57034 3.46945e-18 0.983137 0.0290166 -1.64638e-05
0.523729 0.520997 0 0.977941 0.0313074 -1.85782e-05
0.715676 0.190058 0 0.957322 0.026301 -2.38037e-05
0 0.742091 0 1 0 0
0.715676 0.205155 -3.70074e-18 0.957033 0.0273148 -2.4007e-05
0.67013 0.324533 -6.93889e-18 0.962039 0.032099 -2.35839e-05
0.624584 0.406893 0 0.967083 0.0334349 -2.22972e-05
0.574156 0.475657 0 0.97296 0.0330318 -2.05251e-05
0.412065 0.623141 -3.70076e-18 0.987155 0.0264699 -1.43077e-05
0.715676 0.221039 1.54074e-33 0.956713 0.0283583 -2.42189e-05
0.219993 0.721251 0 0.996788 0.0150596 -7.56e-06
0.715676 0.23775 1.54074e-33 0.956372 0.0294322 -2.44378e-05
0.67013 0.346634 0 0.96168 0.0332392 -2.37782e-05
0.756813 0.00259889 -3.46945e-18 0.110066 0.000248898 -1.13449e-05
0.756813 0.00793204 0 0.400761 0.00247258 -2.51586e-05
0.756813 0.013543 -3.46945e-18 0.651473 0.00598126 -2.85463e-05
0.756814 0.0164197 0 0.72737 0.00769416 -2.9551e-05
0.756813 0.0194462 -3.46945e-18 0.805206 0.0092167 -2.78601e-05
0.756813 0.0256568 -3.46945e-18 0.88135 0.0116392 -2.64715e-05
0.151552 0.742091 0 0.998084 0.0108175 -5.20676e-06
0.288433 0.700412 0 0.993992 0.0193744 -9.85788e-06
0.756813 0.032191 -3.46945e-18 0.916421 0.0132828 -2.53283e-05
0.756814 0.0390655 -3.46945e-18 0.931877 0.0144775 -2.45699e-05
0.756814 0.046298 -3.46945e-18 0.939355 0.0154483 -2.40942e-05
0.756814 0.0539073 3.46945e-18 0.943398 0.0163564 -2.38018e-05
0.756814 0.0619129 0 0.945742 0.0172345 -2.36372e-05
0.715676 0.255331 1.54074e-33 0.956017 0.0305373 -2.46621e-05
0.756813 0.0703355 -6.93889e-18 0.947168 0.0180716 -2.35699e-05
0.624584 0.433285 -3.70071e-18 0.966923 0.0345645 -2.24235e-05
0.756814 0.0791968 -3.46945e-18 0.948139 0.0189119 -2.35829e-05
0.523729 0.553331 -6.16298e-33 0.978014 0.032281 -1.85788e-05
0.756813 0.0885197 0 0.948861 0.0197899 -2.36602e-05
0.756813 0.0983282 -6.93889e-18 0.949392 0.0206764 -2.37813e-05
0.756813 0.108647 3.46945e-18 0.949769 0.0215758 -2.39339e-05
0.467897 0.605246 3.46945e-18 0.983246 0.0298742 -1.64281e-05
0.574156 0.50563 0 0.972964 0.0341066 -2.05713e-05
0.67013 0.369887 0 0.961377 0.034412 -2.39628e-05
0.350249 0.680604 -3.46945e-18 0.991301 0.0232912 -1.20324e-05
0.756813 0.119504 -3.46945e-18 0.950018 0.0224963 -2.41128e-05
0.715676 0.273828 0 0.955659 0.031674 -2.48895e-05
0.075776 0.764016 0 0.999442 0.00616865 -2.70991e-06
0.756813 0.130927 -3.46945e-18 0.950159 0.0234408 -2.43113e-05
0.756813 0.142944 -3.46945e-18 0.950208 0.0244106 -2.45311e-05
0.756813 0.155587 -6.93889e-18 0.950178 0.0254073 -2.47551e-05
0.715676 0.293289 0 0.955307 0.032843 -2.5118e-05
0.743101 0.221039 -7.70372e-34 0.951553 0.0297154 -2.53074e-05
0.756813 0.168888 3.46945e-18 0.950083 0.0264324 -2.49858e-05
0.624584 0.461051 0 0.966861 0.0357298 -2.25222e-05
0.67013 0.394351 -3.46945e-18 0.961147 0.0356191 -2.41348e-05
0.756813 0.182883 -6.93889e-18 0.949932 0.0274872 -2.52213e-05
0.412065 0.660796 -3.70076e-18 0.987301 0.0272079 -1.42521e-05
0.715676 0.313763 0 0.954974 0.0340449 -2.53442e-05
0.756813 0.197606 -3.46945e-18 0.949737 0.0285727 -2.54659e-05
0 0.785942 0 1 0 0
0.756813 0.213097 -3.46945e-18 0.949505 0.0296899 -2.57138e-05
0.574156 0.537164 3.46945e-18 0.973064 0.0352125 -2.05876e-05
0.523729 0.58735 0 0.978175 0.0332802 -1.85548e-05
0.715676 0.335303 0 0.954675 0.0352808 -2.55647e-05
0.756813 0.229394 0 0.949247 0.0308397 -2.597e-05
0.67013 0.420089 -3.46945e-18 0.961005 0.0368623 -2.42865e-05
0.624584 0.490263 0 0.966901 0.0369307 -2.25905e-05
0.467897 0.641969 3.46945e-18 0.983431 0.0307506 -1.63706e-05
0.219992 0.764017 -3.46945e-18 0.996836 0.0154018 -7.50728e-06
0.756813 0.24654 0 0.948972 0.0320228 -2.6226e-05
0.288433 0.742091 0 0.994095 0.0198495 -9.79852e-06
0.797951 9.61782e-19 -3.08149e-33 2.41932e-17 6.08898e-20 1.3086e-18
0.797951 0.00519778 -3.08149e-33 0.235304 0.00137602 -2.2521e-05
0.797951 0.0106663 -3.08149e-33 0.496874 0.00429967 -3.02062e-05
0.797951 0.0145019 7.70372e-34 0.631776 0.00665035 -3.06844e-05
0.797951 0.0164197 0 0.699227 0.0078257 -3.09235e-05
0.797951 0.0184374 7.70372e-34 0.739519 0.00885644 -3.04956e-05
0.797951 0.0224727 -3.08149e-33 0.820102 0.0109179 -2.96396e-05
0.797951 0.028841 0 0.881812 0.0132172 -2.81706e-05
0.797951 0.035541 -3.08149e-33 0.910787 0.0148232 -2.70478e-05
0.797951 0.04259 0 0.924106 0.0160238 -2.62993e-05
0.797951 0.0500061 0 0.93081 0.0170544 -2.58123e-05
0.797951 0.0578085 -3.08149e-33 0.934542 0.0180233 -2.55006e-05
0.715676 0.357966 0 0.954424 0.0365519 -2.57751e-05