# UMean  POINT_DATA 37934
# x  y  z  UMean_x  UMean_y  UMean_z
0 0.1 0 1 0 0
0 0.1 -0.0333777 1 0 0
0 0.1 0.0333777 1 0 0
0 0.1 -0.0666223 1 0 0
0 0.1 0.0666223 1 0 0
0.075776 0.1 -0.05 1.00433 0.011416 -0.000544967
0.075776 0.1 0.05 1.00433 0.011416 0.000539515
0 0.1 -0.1 1 0 0
0 0.1 0.1 1 0 0
0 0.1 -0.133378 1 0 0
0 0.1 0.133378 1 0 0
0.151552 0.1 0 1.00638 0.0141107 -4.79145e-06
0 0.1 -0.166622 1 0 0
0 0.1 0.166622 1 0 0
0.075776 0.1 -0.15 1.00428 0.0113574 -0.00165744
0.075776 0.1 0.15 1.00428 0.0113575 0.00165176
0.151552 0.1 -0.1 1.00642 0.0140834 -0.0019867
0.151552 0.1 0.1 1.00642 0.014083 0.00197692
0 0.1 -0.2 1 0 0
0 0.1 0.2 1 0 0
0.219992 0.1 -0.05 1.00732 0.0149005 -0.00140487
0.219992 0.1 0.05 1.00731 0.0149 0.00139163
0 0.1 0.233378 1 0 0
0 0.1 -0.233378 1 0 0
0.151552 0.1 -0.2 1.00658 0.0140152 -0.0039237
0.151552 0.1 0.2 1.00658 0.0140149 0.00391382
0.075776 0.1 -0.25 1.00425 0.0112702 -0.00270023
0.075776 0.1 0.25 1.00425 0.0112704 0.0026947
0.219992 0.1 -0.15 1.00755 0.0148623 -0.00414509
0.219992 0.1 0.15 1.00755 0.0148612 0.00413145
0 0.1 0.266622 1 0 0
0 0.1 -0.266622 1 0 0
0.288433 0.1 0 1.00544 0.015218 -8.44315e-06
0 0.1 -0.3 1 0 0
0 0.1 0.3 1 0 0
0.288433 0.1 -0.1 1.00559 0.0152022 -0.0036216
0.288433 0.1 0.1 1.00559 0.0152012 0.0036044
0.219992 0.1 -0.25 1.00806 0.014802 -0.0068093
0.219992 0.1 0.25 1.00806 0.0148013 0.00679579
0 0.1 -0.333378 1 0 0
0 0.1 0.333378 1 0 0
0.151552 0.1 -0.3 1.00683 0.0139259 -0.00576381
0.151552 0.1 0.3 1.00683 0.0139256 0.00575409
0.288433 0.1 -0.2 1.00605 0.0151547 -0.00715223
0.288433 0.1 0.2 1.00605 0.0151535 0.00713486
0.350249 0.1 0.05 1.00285 0.0154095 0.00221753
0.350249 0.1 -0.05 1.00285 0.0154102 -0.00223804
0.075776 0.1 0.35 1.00424 0.0111709 0.00366179
0.075776 0.1 -0.35 1.00424 0.0111707 -0.00366716
0 0.1 -0.366622 1 0 0
0 0.1 0.366622 1 0 0
0.350249 0.1 -0.15 1.00319 0.0153809 -0.00662545
0.350249 0.1 0.15 1.00319 0.0153793 0.00660435
0 0.1 -0.4 1 0 0
0 0.1 0.4 1 0 0
0.412065 0.1 1.85037e-17 0.998409 0.015576 -1.23667e-05
0.219992 0.1 -0.35 1.00861 0.014722 -0.00931861
0.219992 0.1 0.35 1.0086 0.014721 0.00930526
0.288433 0.1 -0.3 1.00674 0.0150737 -0.0105362
0.288433 0.1 0.3 1.00673 0.0150725 0.010519
0.412065 0.1 -0.1 0.998621 0.0155594 -0.00533854
0.412065 0.1 0.1 0.998619 0.0155588 0.00531362
0.151552 0.1 -0.4 1.00711 0.0138243 -0.0074557
0.151552 0.1 0.4 1.00711 0.0138242 0.00744644
0.350249 0.1 -0.25 1.0039 0.0153098 -0.0108852
0.350249 0.1 0.25 1.00389 0.0153088 0.0108644
0 0.1 0.433378 1 0 0
0 0.1 -0.433378 1 0 0
0.075776 0.1 -0.45 1.00428 0.0110667 -0.0045199
0.075776 0.1 0.45 1.00428 0.011067 0.00451493
0.412065 0.1 -0.2 0.999271 0.0155003 -0.0105404
0.412065 0.1 0.2 0.999267 0.0154997 0.0105154
0 0.1 -0.466622 1 0 0
0 0.1 0.466622 1 0 0
0.467897 0.1 0.05 0.993664 0.01577 0.00310514
0.467897 0.1 -0.05 0.993665 0.0157701 -0.00313407
0.467897 0.1 -0.15 0.994184 0.0157274 -0.0092787
0.467897 0.1 0.15 0.99418 0.0157277 0.00924985
0.288433 0.1 -0.4 1.00752 0.0149564 -0.013662
0.288433 0.1 0.4 1.00752 0.0149557 0.0136454
0.350249 0.1 -0.35 1.00483 0.0151859 -0.0148946
0.350249 0.1 0.35 1.00482 0.0151843 0.0148739
0 0.1 -0.5 1 0 0
0 0.1 0.5 1 0 0
0.219992 0.1 -0.45 1.00918 0.0146267 -0.0115978
0.219992 0.1 0.45 1.00918 0.0146264 0.0115854
0.412065 0.1 -0.3 1.00031 0.0153809 -0.0154971
0.412065 0.1 0.3 1.00031 0.0153804 0.0154726
0.151552 0.1 -0.5 1.00742 0.0137176 -0.00895087
0.151552 0.1 0.5 1.00741 0.0137171 0.0089422
0.523729 0.1 -1.23276e-17 0.987355 0.0162331 -1.67661e-05
0.467897 0.1 -0.25 0.99523 0.0156238 -0.0152144
0.467897 0.1 0.25 0.995226 0.0156239 0.0151858
0.523729 0.1 -0.1 0.987674 0.0162053 -0.00717049
0.523729 0.1 0.1 0.987672 0.0162063 0.00713719
0 0.1 -0.533378 1 0 0
0 0.1 0.533378 1 0 0
0.075776 0.1 -0.55 1.00435 0.0109756 -0.00525992
0.075776 0.1 0.55 1.00435 0.0109755 0.00525512
0.523729 0.1 -0.2 0.988637 0.0161127 -0.014138
0.523729 0.1 0.2 0.988633 0.0161144 0.0141058
0 0.1 0.566622 1 0 0
0 0.1 -0.566622 1 0 0
0.350249 0.1 0.45 1.0059 0.0150064 0.0184878
0.350249 0.1 -0.45 1.0059 0.0150063 -0.0185072
0.412065 0.1 -0.4 1.00163 0.0151912 -0.0200487
0.412065 0.1 0.4 1.00162 0.0151912 0.0200251
0.574156 0.1 -0.05 0.980996 0.0167688 -0.0040838
0.574156 0.1 0.05 0.980996 0.0167693 0.00404614
0.288433 0.1 -0.5 1.00837 0.0148067 -0.0164319
0.288433 0.1 0.5 1.00837 0.0148056 0.0164164
0.467897 0.1 -0.35 0.996702 0.0154368 -0.0207424
0.467897 0.1 0.35 0.996697 0.0154377 0.0207149
0.219992 0.1 -0.55 1.00976 0.0145103 -0.0135722
0.219992 0.1 0.55 1.00976 0.0145086 0.0135604
0.574156 0.1 -0.15 0.981759 0.0166965 -0.0120884
0.574156 0.1 0.15 0.981757 0.0166992 0.0120516
0 0.1 -0.6 1 0 0
0 0.1 0.6 1 0 0
0.523729 0.1 -0.3 0.990193 0.0159329 -0.0207308
0.523729 0.1 0.3 0.990189 0.015934 0.0207
0.151552 0.1 -0.6 1.00773 0.0136095 -0.0102223
0.151552 0.1 0.6 1.00773 0.0136087 0.0102138
0.624584 0.1 -1.23276e-17 0.973432 0.0176097 -2.02807e-05
0.574156 0.1 0.25 0.983279 0.0165379 0.0197426
0.574156 0.1 -0.25 0.983282 0.0165353 -0.0197769
0.624584 0.1 -0.1 0.973888 0.0175637 -0.00910439
0.624584 0.1 0.1 0.973888 0.0175645 0.00906398
0 0.1 0.633378 1 0 0
0 0.1 -0.633378 1 0 0
0.412065 0.1 -0.5 1.00312 0.0149401 -0.0240698
0.412065 0.1 0.5 1.00312 0.0149397 0.0240476
0.467897 0.1 -0.45 0.998489 0.0151684 -0.0257136
0.467897 0.1 0.45 0.998485 0.0151687 0.0256875
0.350249 0.1 0.55 1.00705 0.0147867 0.0216234
0.350249 0.1 -0.55 1.00705 0.0147888 -0.0216417
0.075776 0.1 0.65 1.00443 0.0109001 0.00588326
0.075776 0.1 -0.65 1.00443 0.0109 -0.00588796
0.624584 0.1 -0.2 0.975258 0.0174179 -0.0179288
0.624584 0.1 0.2 0.975256 0.0174196 0.0178897
0.523729 0.1 -0.4 0.992227 0.0156543 -0.0267472
0.523729 0.1 0.4 0.992222 0.015655 0.0267172
0.288433 0.1 -0.6 1.00924 0.0146291 -0.0187847
0.288433 0.1 0.6 1.00923 0.0146273 0.0187695
0 0.1 -0.666622 1 0 0
0 0.1 0.666622 1 0 0
0.67013 0.1 0.05 0.966018 0.0185015 0.00504035
0.67013 0.1 -0.05 0.966018 0.0185018 -0.00508338
0.574156 0.1 -0.35 0.985455 0.0162599 -0.0268966
0.574156 0.1 0.35 0.985451 0.0162603 0.0268636
0.219992 0.1 0.65 1.01034 0.014374 0.0151937
0.219992 0.1 -0.65 1.01034 0.0143752 -0.0152055
0.67013 0.1 -0.15 0.967084 0.0183876 -0.0150466
0.67013 0.1 0.15 0.967085 0.0183873 0.0150035
0.624584 0.1 -0.3 0.977475 0.0171511 -0.0262392
0.624584 0.1 0.3 0.977471 0.0171519 0.0262021
0 0.1 -0.7 1 0 0
0 0.1 0.7 1 0 0
0.67013 0.1 -0.25 0.9692 0.0181443 -0.0245754
0.67013 0.1 0.25 0.969198 0.018145 0.0245337
0.715676 0.1 -9.25186e-18 0.957578 0.0196697 -2.2692e-05
0.151552 0.1 -0.7 1.00805 0.0135024 -0.0112651
0.151552 0.1 0.7 1.00805 0.0135019 0.0112567
0.467897 0.1 -0.55 1.00047 0.0148344 -0.0300071
0.467897 0.1 0.55 1.00046 0.0148346 0.0299828
0.715676 0.1 -0.1 0.9582 0.0196003 -0.0111376
0.715676 0.1 0.1 0.9582 0.0195988 0.0110918
0.523729 0.1 -0.5 0.994601 0.0152915 -0.0320359
0.523729 0.1 0.5 0.994595 0.0152921 0.0320073
0.412065 0.1 -0.6 1.00471 0.0146445 -0.0274789
0.412065 0.1 0.6 1.0047 0.0146433 0.0274581
0.574156 0.1 0.45 0.988132 0.0158766 0.0332252
0.574157 0.1 -0.45 0.988137 0.0158758 -0.0332582
0 0.1 -0.733378 1 0 0
0 0.1 0.733378 1 0 0
0.350249 0.1 -0.65 1.00822 0.0145407 -0.024247
0.350249 0.1 0.65 1.00821 0.0145393 0.0242287
0.624584 0.1 -0.4 0.980394 0.0167549 -0.0337781
0.624584 0.1 0.4 0.98039 0.0167546 0.0337414
0.715676 0.1 -0.2 0.960056 0.0193835 -0.0219116
0.715676 0.1 0.2 0.960056 0.0193822 0.0218657
0.075776 0.1 0.75 1.0045 0.0108387 0.00639546
0.075776 0.1 -0.75 1.0045 0.0108387 -0.00640003
0.67013 0.1 -0.35 0.972226 0.0177518 -0.0333671
0.67013 0.1 0.35 0.972222 0.017751 0.0333272
0.288433 0.1 -0.7 1.0101 0.0144299 -0.0206974
0.288433 0.1 0.7 1.01009 0.0144286 0.0206822
0.756813 0.1 -0.05 0.94943 0.0208678 -0.006133
0.756813 0.1 0.05 0.949429 0.020867 0.00608521
0 0.1 -0.766622 1 0 0
0 0.1 0.766622 1 0 0
0.756813 0.1 -0.15 0.950849 0.0207007 -0.0181519
0.756813 0.1 0.15 0.950848 0.0206969 0.0181031
0.715676 0.1 -0.3 0.96306 0.0190041 -0.0320199
0.715676 0.1 0.3 0.963057 0.0190032 0.0319756
0.219992 0.1 0.75 1.01091 0.0142276 0.0165009
0.219992 0.1 -0.75 1.01091 0.0142287 -0.0165127
0.574156 0.1 -0.55 0.991163 0.0154129 -0.0387127
0.574157 0.1 0.55 0.991156 0.0154137 0.0386819
0.523729 0.1 -0.6 0.99718 0.0148665 -0.0364871
0.523729 0.1 0.6 0.997173 0.0148663 0.0364607
0.756814 0.1 -0.25 0.953651 0.0203527 -0.0296067
0.756814 0.1 0.25 0.953649 0.0203513 0.0295578
0.797951 0.1 -1.23399e-17 0.94039 0.0223635 -2.5357e-05
0 0.1 0.8 1 0 0
0 0.1 -0.8 1 0 0
0.624584 0.1 -0.5 0.983841 0.0162521 -0.0403549
0.624584 0.1 0.5 0.983835 0.0162528 0.0403191
0.467897 0.1 -0.65 1.00255 0.0144579 -0.0335501
0.467897 0.1 0.65 1.00254 0.0144565 0.0335277
0.797951 0.1 -0.1 0.941201 0.022265 -0.013267
0.797951 0.1 0.1 0.941199 0.0222627 0.0132158
0.67013 0.1 -0.45 0.975985 0.0172215 -0.0411556
0.67013 0.1 0.45 0.97598 0.0172204 0.0411153
0.412065 0.1 -0.7 1.00633 0.0143199 -0.0302329
0.412065 0.1 0.7 1.00633 0.0143178 0.0302125
0.151552 0.1 -0.8 1.00835 0.0133992 -0.012082
0.151552 0.1 0.8 1.00835 0.013399 0.0120737
0.715676 0.1 -0.4 0.967023 0.0184605 -0.0411312
0.715676 0.1 0.4 0.967019 0.0184588 0.0410878
0.797951 0.1 -0.2 0.94361 0.0219613 -0.0260819
0.797951 0.1 0.2 0.943607 0.0219584 0.0260302
0.350249 0.1 -0.75 1.00939 0.0142724 -0.0263043
0.350249 0.1 0.75 1.00938 0.014271 0.0262861
0 0.1 0.833378 1 0 0
0 0.1 -0.833378 1 0 0
0.756813 0.1 -0.35 0.957672 0.0198162 -0.0401348
0.756813 0.1 0.35 0.957667 0.0198141 0.0400883
0.835106 0.1 0.05 0.931756 0.0238634 0.00717553
0.835106 0.1 -0.05 0.931757 0.0238641 -0.00722924
0.835106 0.1 -0.15 0.933571 0.0236335 -0.0213916
0.835106 0.1 0.15 0.933568 0.0236302 0.0213376
0.288433 0.1 -0.8 1.01095 0.0142172 -0.022174
0.288433 0.1 0.8 1.01095 0.0142169 0.0221591
0.797951 0.1 -0.3 0.947508 0.021445 -0.0380606
0.797951 0.1 0.3 0.947505 0.0214427 0.0380101
0.075776 0.1 -0.85 1.00457 0.0107904 -0.00678917
0.075776 0.1 0.85 1.00425 0.0101247 0.00629932
0.624584 0.1 -0.6 0.987625 0.0156729 -0.0458403
0.624584 0.1 0.6 0.987617 0.0156735 0.0458073
0 0.1 0.866622 1 0 0
0 0.1 -0.866622 1 0 0
0.67013 0.1 -0.55 0.98026 0.0165904 -0.0477837
0.67013 0.1 0.55 0.980252 0.016592 0.0477454
0.574156 0.1 0.65 0.994374 0.0148875 0.0431394
0.574157 0.1 -0.65 0.994382 0.0148884 -0.0431679
0.835106 0.1 -0.25 0.937138 0.0231609 -0.0348596
0.835106 0.1 0.25 0.937135 0.0231582 0.0348054
0.872262 0.1 -1.54156e-17 0.922314 0.025613 -2.84327e-05
0.715676 0.1 -0.5 0.971718 0.0177828 -0.0490238
0.715676 0.1 0.5 0.971712 0.0177822 0.0489812
0.523729 0.1 -0.7 0.999856 0.0144011 -0.0400445
0.523729 0.1 0.7 0.999848 0.0143988 0.0400192
0.872262 0.1 -0.1 0.923327 0.0254797 -0.01547
0.872262 0.1 0.1 0.923324 0.0254776 0.0154134
0.219992 0.1 0.85 1.0112 0.0140513 0.0170144
0.219993 0.1 -0.85 1.01147 0.0140758 -0.0174953
0.756814 0.1 -0.45 0.96266 0.0191059 -0.0493757
0.756814 0.1 0.45 0.962656 0.0191036 0.0493294
0.467897 0.1 -0.75 1.00466 0.0140571 -0.0363142
0.467897 0.1 0.75 1.00465 0.0140536 0.0362914
0.797951 0.1 -0.4 0.952657 0.0207216 -0.0488175
0.797951 0.1 0.4 0.952653 0.0207181 0.0487685
0.872262 0.1 -0.2 0.926333 0.025072 -0.0303975
0.872262 0.1 0.2 0.92633 0.0250683 0.030341
0.412065 0.1 0.8 1.00795 0.0139743 0.0323066
0.412065 0.1 -0.8 1.00795 0.013976 -0.0323273
0 0.1 0.9 1 0 0
0 0.1 -0.9 1 0 0
0.835106 0.1 -0.35 0.942267 0.0224517 -0.0471773
0.835106 0.1 0.35 0.942263 0.0224482 0.0471255
0.90582 0.1 -0.05 0.913392 0.0273749 -0.00835903
0.90582 0.1 0.05 0.913391 0.0273742 0.00829921
0.151552 0.1 0.9 1.00864 0.0133032 0.0126629
0.151552 0.1 -0.9 1.00864 0.0133027 -0.0126709
0.90582 0.1 -0.15 0.915619 0.0270686 -0.0247295
0.90582 0.1 0.15 0.915614 0.027065 0.0246709
0.350249 0.1 0.85 1.0104 0.0140412 0.0272653
0.350249 0.1 -0.85 1.01054 0.0139895 -0.0278262
0.872262 0.1 -0.3 0.931196 0.024391 -0.0443067
0.872262 0.1 0.3 0.931192 0.0243868 0.0442514
0 0.1 0.933378 1 0 0
0 0.1 -0.933378 1 0 0
0.67013 0.1 -0.65 0.984831 0.0158921 -0.0531311
0.67013 0.1 0.65 0.984822 0.015892 0.0530967
0.715676 0.1 -0.6 0.976896 0.0170132 -0.0555474
0.715676 0.1 0.6 0.976887 0.0170129 0.0555079
0.756813 0.1 0.55 0.96834 0.018272 0.0571667
0.756813 0.1 -0.55 0.968347 0.0182729 -0.0572111
0.624584 0.1 -0.7 0.991573 0.0150422 -0.0501643
0.624584 0.1 0.7 0.991563 0.0150408 0.0501332
0.939379 0.1 0 0.903801 0.0295593 -3.15131e-05
0.90582 0.1 -0.25 0.919992 0.0264451 -0.0402707
0.90582 0.1 0.25 0.919989 0.0264403 0.0402123
0.797951 0.1 -0.5 0.958757 0.0198268 -0.0580539
0.797951 0.1 0.5 0.958751 0.0198234 0.0580055
0.574156 0.1 0.75 0.997661 0.0143279 0.0465647
0.574156 0.1 -0.75 0.997672 0.0143306 -0.0465928
0.939379 0.1 -0.1 0.905028 0.0293847 -0.0177869
0.939379 0.1 0.1 0.905024 0.0293834 0.017725
0.288433 0.1 0.9 1.01179 0.0139973 0.023213
0.288433 0.1 -0.9 1.0118 0.0139964 -0.0232273
0.835106 0.1 -0.45 0.94863 0.0215201 -0.0579985
0.835106 0.1 0.45 0.948626 0.0215142 0.057947
0.075776 0.1 0.95 1.00462 0.0107579 0.00704933
0.075776 0.1 -0.95 1.00462 0.0107576 -0.0070535
0.523729 0.1 0.8 1.00253 0.0139101 0.042677
0.523729 0.1 -0.8 1.00254 0.0139129 -0.0427027
0.872262 0.1 -0.4 0.937628 0.0234516 -0.0567632
0.872262 0.1 0.4 0.937623 0.0234455 0.0567092
0.939379 0.1 -0.2 0.908667 0.0288529 -0.0349317
0.939379 0.1 0.2 0.908663 0.0288485 0.0348713
0 0.1 0.966622 1 0 0
0 0.1 -0.966622 1 0 0
0.467897 0.1 0.85 1.00618 0.0136798 0.0388303
0.467897 0.1 -0.85 1.00674 0.0136381 -0.0383159
0.969689 0.1 0.05 0.894861 0.0316864 0.00948791
0.96969 0.1 -0.05 0.894862 0.0316865 -0.0095537
0.90582 0.1 -0.35 0.926282 0.0255257 -0.054431
0.90582 0.1 0.35 0.926278 0.0255197 0.0543745
0.219992 0.1 0.95 1.01199 0.0139224 0.018147
0.219992 0.1 -0.95 1.01199 0.0139212 -0.018158
0.969689 0.1 -0.15 0.897528 0.0312936 -0.0282587
0.969689 0.1 0.15 0.89752 0.0312925 0.0281958
0.939379 0.1 -0.3 0.914554 0.0279698 -0.0508619
0.939379 0.1 0.3 0.91455 0.0279629 0.0508024
0.412065 0.1 0.9 1.00955 0.0136186 0.0337699
0.412065 0.1 -0.9 1.00955 0.0136181 -0.0337903
0.756813 0.1 -0.65 0.974455 0.0173589 -0.0634286
0.756813 0.1 0.65 0.974445 0.017356 0.0633876
0.797951 0.1 -0.6 0.9655 0.0188198 -0.0655886
0.797951 0.1 0.6 0.965491 0.0188165 0.0655424
0.835106 0.1 -0.55 0.95589 0.0204275 -0.0669618
0.835106 0.1 0.55 0.955883 0.0204227 0.066911
0 0.1 1 1 0 0
0 0.1 -1 1 0 0
1 0.1 0 0.885409 0.0338239 -3.46594e-05
0.715676 0.1 -0.7 0.982313 0.0161843 -0.0606016
0.715676 0.1 0.7 0.982302 0.016182 0.0605644
0.96969 0.1 -0.25 0.902763 0.0304961 -0.045982
0.96969 0.1 0.25 0.902761 0.0304886 0.0459204
1 0.1 -0.1 0.886858 0.0336114 -0.0200369
1 0.1 0.1 0.886853 0.0336121 0.0199701
0.872262 0.1 -0.5 0.945253 0.0222945 -0.067361
0.872262 0.1 0.5 0.945247 0.0222868 0.067307
0.67013 0.1 0.75 0.989495 0.0151483 0.0571296
0.67013 0.1 -0.75 0.989507 0.0151502 -0.0571632
0.151552 0.1 1 1.0089 0.0132113 0.0130267
0.151552 0.1 -1 1.0089 0.0132098 -0.0130339
0.90582 0.1 -0.45 0.93411 0.0243337 -0.0668144
0.90582 0.1 0.45 0.934105 0.0243246 0.0667584
0.350249 0.1 0.95 1.0117 0.013701 0.028827
0.350249 0.1 -0.95 1.01171 0.0136998 -0.0288438
0.624584 0.1 -0.8 0.995536 0.014386 -0.0533241
0.624584 0.1 0.8 0.995525 0.0143839 0.0532935
1.01772 0.1 -0.0494093 0.88025 0.0351444 -0.0103246
1.01772 0.1 0.0494093 0.880249 0.0351443 0.0102538
1 0.1 -0.2 0.891155 0.0329651 -0.0393426
1 0.1 0.2 0.891151 0.032961 0.0392793
0.939379 0.1 -0.4 0.922361 0.0267663 -0.0650546
0.939379 0.1 0.4 0.922356 0.026757 0.0649961
0.574157 0.1 0.85 1.00091 0.013757 0.0489795
0.574157 0.1 -0.85 1.00092 0.0137586 -0.0490073
1.01772 0.1 -0.148228 0.883227 0.0347043 -0.0305446
1.01772 0.1 0.148228 0.88322 0.0347061 0.0304791
0.969689 0.1 -0.35 0.910302 0.0293198 -0.0620716
0.969689 0.1 0.35 0.910298 0.0293107 0.0620104
0 0.1 -1.03338 1 0 0
0 0.1 1.03338 1 0 0
0.288433 0.1 1 1.01261 0.0137745 0.023868
0.288433 0.1 -1 1.01262 0.0137716 -0.023881
0.523729 0.1 0.9 1.00515 0.0134134 0.0444746
0.523729 0.1 -0.9 1.00516 0.0134139 -0.0445001
1 0.1 -0.3 0.898108 0.0318858 -0.0572596
1 0.1 0.3 0.898106 0.0318755 0.0571967
1.01772 0.1 0.247046 0.889073 0.0338019 0.0496581
1.01772 0.1 -0.247046 0.889074 0.0338116 -0.049721
1.05262 0.1 4.04769e-19 0.867493 0.0385001 -7.07122e-05
0.075776 0.1 -1.05 1.00466 0.0107312 -0.00719071
0.075776 0.1 1.05 1.00466 0.0107319 0.00718722
1.05262 0.1 -0.0964922 0.869056 0.0382657 -0.0216127
1.05262 0.1 0.0964922 0.869044 0.0382686 0.021476
0.835106 0.1 -0.65 0.9637 0.019246 -0.0740292
0.835106 0.1 0.65 0.963689 0.0192409 0.0739807
0.872262 0.1 -0.6 0.953683 0.0209991 -0.0758904
0.872262 0.1 0.6 0.953673 0.0209916 0.0758371
0.467897 0.1 0.95 1.00875 0.0132094 0.0395806
0.467897 0.1 -0.95 1.00876 0.0132076 -0.039603
0.90582 0.1 -0.55 0.943038 0.0229369 -0.0769563
0.90582 0.1 0.55 0.94303 0.0229264 0.076899
0.797951 0.1 -0.7 0.97256 0.0177471 -0.0713359
0.797951 0.1 0.7 0.972547 0.0177428 0.0712917
0.939379 0.1 -0.5 0.931623 0.0252964 -0.0770673
0.939379 0.1 0.5 0.931617 0.025284 0.0770081
0.756814 0.1 -0.75 0.980701 0.0163973 -0.0680173
0.756813 0.1 0.75 0.980686 0.0163932 0.0679771
0 0.1 1.06662 1 0 0
0 0.1 -1.06662 1 0 0
0.969689 0.1 0.45 0.919715 0.0278028 0.0759785
0.96969 0.1 -0.45 0.919719 0.0278163 -0.0760391
1.05262 0.1 -0.192985 0.873689 0.0375536 -0.0424422
1.05262 0.1 0.192985 0.873667 0.0375513 0.0423142
0.219992 0.1 -1.05 1.01249 0.0137582 -0.0185149
0.219992 0.1 1.05 1.01248 0.0137615 0.0185058
0.715676 0.1 -0.8 0.987744 0.015328 -0.064198
0.715676 0.1 0.8 0.98773 0.0153253 0.0641618
1.01772 0.1 0.345865 0.897495 0.0324668 0.0670936
1.01772 0.1 -0.345865 0.897497 0.0324796 -0.0671582
1 0.1 -0.4 0.907338 0.0304184 -0.0731677
1 0.1 0.4 0.907335 0.0304045 0.0731049
1.07643 0.1 -0.0474523 0.859382 0.0406559 -0.0112474
1.07643 0.1 0.0474523 0.859382 0.0406548 0.0111708
0.412065 0.1 1 1.01109 0.0132656 0.0346522
0.412065 0.1 -1 1.01109 0.0132625 -0.0346703
0.67013 0.1 0.85 0.994098 0.0143959 0.0598793
0.67013 0.1 -0.85 0.994111 0.0143977 -0.0599118
1.07643 0.1 -0.142357 0.862564 0.04017 -0.0332933
1.07643 0.1 0.142357 0.862558 0.0401737 0.0332248
1.05262 0.1 -0.289476 0.8812 0.0363509 -0.0618505
1.05262 0.1 0.289476 0.881172 0.0363403 0.0617276
0.624584 0.1 0.9 0.99937 0.0137276 0.055344
0.624584 0.1 -0.9 0.999381 0.0137285 -0.0553736
1.09647 0.1 9.8301e-18 0.852373 0.0426808 -0.000233501
0 0.1 1.1 1 0 0
0 0.1 -1.1 1 0 0
1.09647 0.1 -0.0935685 0.854019 0.0424282 -0.0230353
1.09647 0.1 0.0935685 0.853962 0.0424378 0.0225792
1.07643 0.1 0.237261 0.868838 0.039163 0.0542118
1.07643 0.1 -0.237261 0.868836 0.0391795 -0.0542764
0.350249 0.1 1.05 1.01281 0.0134209 0.0293873
0.350249 0.1 -1.05 1.01281 0.0134161 -0.0294017
0.574156 0.1 0.95 1.00369 0.0132807 0.0499177
0.574156 0.1 -0.95 1.00403 0.0131911 -0.0504777
0.151552 0.1 1.1 1.00914 0.0131151 0.0131768
0.151552 0.1 -1.1 1.00914 0.013113 -0.0131826
1.01772 0.1 -0.444684 0.908025 0.0307816 -0.0822977
1.01772 0.1 0.444684 0.908021 0.0307634 0.0822336
1.09647 0.1 -0.187137 0.858858 0.0416674 -0.045113
1.09647 0.1 0.187137 0.858748 0.0416771 0.0446821
0.939379 0.1 -0.6 0.941849 0.0236504 -0.0866161
0.939379 0.1 0.6 0.941838 0.0236378 0.086556
0.96969 0.1 0.55 0.930425 0.0260451 0.0874229
0.96969 0.1 -0.55 0.930434 0.0260606 -0.0874859
0.90582 0.1 0.65 0.952611 0.0214263 0.0848074
0.90582 0.1 -0.65 0.952625 0.0214359 -0.0848635
1 0.1 -0.5 0.918305 0.0286307 -0.0866125
1 0.1 0.5 0.918298 0.0286126 0.0865478
0.872262 0.1 -0.7 0.962509 0.0196308 -0.0823003
0.872262 0.1 0.7 0.962494 0.019624 0.0822487
1.05262 0.1 -0.385969 0.891216 0.0347023 -0.0791664
1.05262 0.1 0.385969 0.891179 0.0346883 0.0790497
0.835106 0.1 -0.75 0.971668 0.0180155 -0.0791178
0.835106 0.1 0.75 0.97165 0.0180107 0.0790707
1.12316 0.1 -0.0458947 0.842848 0.0454919 -0.0120166
1.12316 0.1 0.0458947 0.842831 0.0454933 0.0116977
1.07643 0.1 -0.332166 0.877924 0.0376632 -0.0734557
1.07643 0.1 0.332166 0.877923 0.0376444 0.0733861
0.523729 0.1 1 1.00762 0.0129234 0.0454818
0.523729 0.1 -1 1.00763 0.012921 -0.0455045
0.797951 0.1 -0.8 0.97962 0.0166492 -0.0753024
0.797951 0.1 0.8 0.979603 0.0166454 0.0752601
1.12316 0.1 -0.137684 0.846168 0.0449753 -0.0353578
1.12316 0.1 0.137684 0.846116 0.0449841 0.0350549
1.09647 0.1 -0.280706 0.866711 0.0403737 -0.0657481
1.09647 0.1 0.280706 0.866554 0.0403796 0.0653476
0 0.1 -1.13338 1 0 0
0 0.1 1.13338 1 0 0
0.288433 0.1 1.1 1.01335 0.0135557 0.0241636
0.288433 0.1 -1.1 1.01335 0.0135517 -0.0241744
0.756813 0.1 0.85 0.986818 0.0154253 0.0709867
0.756813 0.1 -0.85 0.986834 0.0154279 -0.0710248
1.12316 0.1 -0.229473 0.852703 0.0439249 -0.057628
1.12316 0.1 0.229473 0.852622 0.0439181 0.0573434
1.14834 0.1 0 0.83269 0.0484779 -4.13328e-05
0.467897 0.1 1.05 1.01063 0.0128017 0.0402246
0.467897 0.1 -1.05 1.01063 0.0127981 -0.0402429
0.715676 0.1 0.9 0.992979 0.0144772 0.0663805
0.715676 0.1 -0.9 0.992994 0.0144785 -0.0664146
1.14834 0.1 -0.0901106 0.834385 0.0482191 -0.0244167
1.14834 0.1 0.0901106 0.834384 0.0482195 0.0243394
0.075776 0.1 1.15 1.00471 0.0106949 0.00720345
0.075776 0.1 -1.15 1.00441 0.0100211 -0.00672995
1.01772 0.1 -0.543502 0.92007 0.028783 -0.0947594
1.01772 0.1 0.543502 0.920061 0.0287621 0.094691
1.05262 0.1 -0.482461 0.903203 0.0326777 -0.0939101
1.05262 0.1 0.482461 0.903158 0.0326595 0.0937991
1.07643 0.1 -0.427071 0.889379 0.0357268 -0.0901875
1.07643 0.1 0.427071 0.889378 0.0357005 0.0901198
1.09647 0.1 -0.374274 0.877221 0.0385862 -0.0842363
1.09647 0.1 0.374274 0.877023 0.0385941 0.0838763
1.14834 0.1 -0.180221 0.839434 0.0474288 -0.0480769
1.14834 0.1 0.180221 0.839433 0.0474185 0.0480075
0.67013 0.1 0.95 0.997982 0.0137628 0.0609028
0.67013 0.1 -0.95 0.998503 0.0136611 -0.0614715
1 0.1 -0.6 0.93044 0.026612 -0.0971931
1 0.1 0.6 0.930427 0.026594 0.0971262
0 0.1 1.16662 1 0 0
0 0.1 -1.16662 1 0 0
0.969689 0.1 -0.65 0.941949 0.0241588 -0.0961402
0.969689 0.1 0.65 0.941933 0.0241447 0.096077
1.12316 0.1 0.321263 0.86208 0.0423045 0.0778163
1.12316 0.1 -0.321263 0.862188 0.0423121 -0.0780847
1.16984 0.1 -0.0443387 0.824732 0.0509539 -0.0126614
1.16984 0.1 0.0443387 0.824727 0.0509524 0.0125117
0.219992 0.1 1.15 1.01291 0.0135998 0.0185925
0.219992 0.1 -1.15 1.01275 0.0135352 -0.0182336
0.939379 0.1 -0.7 0.952552 0.0219165 -0.0936052
0.939379 0.1 0.7 0.952534 0.0219058 0.0935464
0.412065 0.1 1.1 1.0125 0.0129297 0.0350178
0.412065 0.1 -1.1 1.0125 0.0129255 -0.0350329
0.90582 0.1 -0.75 0.962426 0.01988 -0.0904007
0.90582 0.1 0.75 0.962406 0.0198723 0.0903465
1.16984 0.1 -0.133016 0.828184 0.0504299 -0.0374635
1.16984 0.1 0.133016 0.828169 0.0504336 0.0373258
0.624584 0.1 1 1.00299 0.0130863 0.0563794
0.624584 0.1 -1 1.003 0.0130848 -0.056406
1.14834 0.1 -0.270332 0.847672 0.0460708 -0.0702979
1.14834 0.1 0.270332 0.847672 0.0460438 0.0702278
0.872262 0.1 -0.8 0.971322 0.0182426 -0.0865763
0.872262 0.1 0.8 0.971302 0.0182374 0.0865275
1.16984 0.1 -0.221694 0.835016 0.0493577 -0.0612099
1.16984 0.1 0.221694 0.834992 0.0493373 0.0610819
0.835106 0.1 -0.85 0.979469 0.0167871 -0.0823053
0.835106 0.1 0.85 0.979448 0.0167836 0.0822617
1.09647 0.1 -0.467843 0.889881 0.0363775 -0.100066
1.09647 0.1 0.467843 0.889649 0.0363856 0.0997515
1.07643 0.1 -0.521975 0.902595 0.0334076 -0.104121
1.07643 0.1 0.521975 0.902588 0.033377 0.104045
1.12316 0.1 -0.413052 0.874202 0.0402251 -0.0960656
1.12316 0.1 0.413052 0.874071 0.0402137 0.0958241
0.574156 0.1 -1.05 1.00691 0.0126351 -0.0510938
0.574156 0.1 1.05 1.0069 0.0126386 0.0510713
1.19994 0.1 -3.3538e-17 0.811986 0.0549111 -4.31585e-05
0 0.1 1.2 1 0 0
0 0.1 -1.2 1 0 0
1.05262 0.1 -0.578953 0.916575 0.0303523 -0.105634
1.05262 0.1 0.578953 0.916519 0.0303347 0.105529
0.350249 0.1 1.15 1.01377 0.0131594 0.0295485
0.350249 0.1 -1.15 1.01392 0.0131317 -0.0291927
0.797951 0.1 0.9 0.986401 0.015568 0.0775591
0.797951 0.1 -0.9 0.98642 0.0155702 -0.0775981
1.19994 0.1 -0.0866707 0.813752 0.0546565 -0.0260294
1.19994 0.1 0.0866707 0.813753 0.0546558 0.0259484
1.01772 0.1 -0.642321 0.933072 0.026589 -0.104129
1.01772 0.1 0.642321 0.933055 0.0265705 0.10406
1.14834 0.1 -0.360442 0.858759 0.044168 -0.0903514
1.14834 0.1 0.360442 0.858761 0.0441323 0.0902784
0.151552 0.1 1.2 1.00933 0.0130041 0.0131466
0.151552 0.1 -1.2 1.00934 0.0130014 -0.0131509
1.16984 0.1 -0.310371 0.844971 0.0476848 -0.0831365
1.16984 0.1 0.310371 0.844942 0.047656 0.0830084
1.19994 0.1 0.173341 0.819024 0.0538581 0.0512406
1.19994 0.1 -0.173341 0.819023 0.0538691 -0.051313
0.756813 0.1 -0.95 0.992654 0.0144874 -0.0725833
0.756813 0.1 0.95 0.991683 0.0146522 0.073189
1.21398 0.1 -0.0428671 0.806806 0.0565329 -0.0133252
1.21398 0.1 0.0428671 0.806805 0.0565299 0.013238
0.523729 0.1 1.1 1.00989 0.0124505 0.0457896
0.523729 0.1 -1.1 1.0099 0.0124466 -0.0458085
1 0.1 -0.7 0.943128 0.0244829 -0.104784
1 0.1 0.7 0.943107 0.0244676 0.104718
1.21398 0.1 -0.128601 0.810367 0.0560257 -0.0395254
1.21398 0.1 0.128601 0.810372 0.0560266 0.0394487
0.96969 0.1 -0.75 0.953687 0.022205 -0.102006
0.96969 0.1 0.75 0.953665 0.0221941 0.101945
1.19994 0.1 -0.260012 0.827651 0.052504 -0.0751682
1.19994 0.1 0.260012 0.827651 0.0524723 0.0750965
0.715676 0.1 1 0.997892 0.0136608 0.0673488
0.715676 0.1 -1 0.997907 0.0136603 -0.0673789
1.12316 0.1 -0.504842 0.888204 0.03771 -0.111145
1.12316 0.1 0.504842 0.888048 0.037698 0.110926
1.09647 0.1 -0.561411 0.904085 0.0338051 -0.112786
1.09647 0.1 0.561411 0.903825 0.0338176 0.112525
1.21398 0.1 -0.214335 0.817446 0.0549676 -0.0646913
1.21398 0.1 0.214335 0.817445 0.0549444 0.0646215
0 0.1 1.23338 1 0 0
0 0.1 -1.23338 1 0 0
1.14834 0.1 -0.450553 0.872229 0.0417902 -0.107674
1.14834 0.1 0.450553 0.872227 0.0417461 0.107596
0.939379 0.1 -0.8 0.963216 0.0201704 -0.0980728
0.939379 0.1 0.8 0.963192 0.0201631 0.0980176
0.288433 0.1 1.2 1.01399 0.0133619 0.0241444
0.288433 0.1 -1.2 1.01399 0.0133568 -0.0241523
1.23589 0.1 -8.70253e-18 0.797687 0.0593763 -7.8287e-05
1.16984 0.1 -0.399048 0.857639 0.0454945 -0.102547
1.16984 0.1 0.399048 0.857605 0.0454548 0.102426
1.23589 0.1 0.084274 0.799493 0.0591339 0.0270068
1.23589 0.1 -0.084274 0.799498 0.059136 -0.0271575
1.07643 0.1 -0.61688 0.916996 0.0308072 -0.114683
1.07643 0.1 0.61688 0.916979 0.0307801 0.114606
0.467897 0.1 1.15 1.01236 0.012414 0.0403023
0.467897 0.1 -1.15 1.01269 0.0123717 -0.0399326
0.90582 0.1 0.85 0.971964 0.0183392 0.0936456
0.90582 0.1 -0.85 0.971988 0.0183441 -0.0936952
0.67013 0.1 1.05 1.00255 0.012954 0.0619391
0.67013 0.1 -1.05 1.00256 0.0129519 -0.0619649
1.23589 0.1 -0.168548 0.804905 0.0583831 -0.0535489
1.23589 0.1 0.168548 0.804893 0.0583711 0.053408
1.19994 0.1 -0.346683 0.839313 0.0505618 -0.0968551
1.19994 0.1 0.346683 0.839314 0.0505138 0.09678
1.21398 0.1 -0.30007 0.8278 0.0533043 -0.0880427
1.21398 0.1 0.30007 0.8278 0.0532624 0.0879684
1.05262 0.1 -0.675446 0.930666 0.0278649 -0.114167
1.05262 0.1 0.675446 0.930601 0.0278509 0.114072
0.075776 0.1 1.25 1.00477 0.010617 0.00713224
0.075776 0.1 -1.25 1.00477 0.0106159 -0.00713407
0.872262 0.1 -0.9 0.979784 0.0168909 -0.0888761
0.872262 0.1 0.9 0.97976 0.0168878 0.0888319
1.25537 0.1 -0.0414875 0.789717 0.0618428 -0.0139672
1.25537 0.1 0.0414875 0.789715 0.0618395 0.0138797
1.01772 0.1 -0.741139 0.946309 0.0243389 -0.110522
1.01772 0.1 0.741139 0.946285 0.0243236 0.110456
1.23589 0.1 -0.252822 0.813777 0.0570634 -0.0785268
1.23589 0.1 0.252822 0.813752 0.0570313 0.0783914
1.25537 0.1 -0.124462 0.79337 0.0613796 -0.0414644
1.25537 0.1 0.124462 0.793381 0.0613728 0.0413861
0.835106 0.1 0.95 0.986813 0.0156064 0.0837223
0.835106 0.1 -0.95 0.986836 0.0156082 -0.0837615
0.624584 0.1 1.1 1.00629 0.0124684 0.0565304
0.624584 0.1 -1.1 1.0063 0.0124651 -0.0565527
0 0.1 1.26662 1 0 0
0 0.1 -1.26662 1 0 0
1.16984 0.1 -0.487726 0.872516 0.0428281 -0.118976
1.16984 0.1 0.487726 0.872468 0.042783 0.118852
0.412065 0.1 1.2 1.0138 0.0126321 0.0349203
0.412065 0.1 -1.2 1.01381 0.0126267 -0.0349316
0.219992 0.1 -1.25 1.01321 0.0134423 -0.0184645
0.219992 0.1 1.25 1.01321 0.0134474 0.01846
1.14834 0.1 -0.540664 0.88747 0.0389657 -0.121853
1.14834 0.1 0.540664 0.887458 0.0389207 0.121767
1.12316 0.1 -0.596631 0.903524 0.0348292 -0.122879
1.12316 0.1 0.596631 0.903347 0.0348238 0.122692
1.25537 0.1 -0.207437 0.800653 0.0603877 -0.0679568
1.25537 0.1 0.207437 0.80066 0.0603595 0.0678819
1.21398 0.1 0.385804 0.841033 0.0510213 0.108799
1.21398 0.1 -0.385804 0.84103 0.0510814 -0.108876
1.19994 0.1 -0.433353 0.853557 0.0480988 -0.115761
1.19994 0.1 0.433353 0.853556 0.0480388 0.115678
1.27678 0.1 2.18286e-17 0.780465 0.0645785 -0.000175592
1.09647 0.1 -0.654979 0.919162 0.03101 -0.12215
1.09647 0.1 0.654979 0.918885 0.0310281 0.121942
0.797951 0.1 1 0.992734 0.0145475 0.0783573
0.797951 0.1 -1 0.992754 0.0145478 -0.0783913
1.27678 0.1 -0.0815477 0.782332 0.0643651 -0.0285396
1.27678 0.1 0.0815477 0.782303 0.0643618 0.0281964
1 0.1 -0.8 0.955718 0.0223461 -0.109499
1 0.1 0.8 0.95569 0.0223353 0.109437
1.23589 0.1 0.337096 0.825768 0.0551089 0.101216
1.23589 0.1 -0.337096 0.825801 0.0551606 -0.101348
0.574156 0.1 1.15 1.00952 0.0121066 0.0509609
0.574156 0.1 -1.15 1.01003 0.0120254 -0.0505544
1.27678 0.1 -0.163095 0.787891 0.0636833 -0.0562393
1.27678 0.1 0.163095 0.787835 0.0636701 0.0559103
1.25537 0.1 -0.290413 0.811349 0.0588088 -0.0926501
1.25537 0.1 0.290413 0.811349 0.058759 0.0925736
0.96969 0.1 -0.85 0.965091 0.0202845 -0.105251
0.96969 0.1 0.85 0.965063 0.0202782 0.105196
1.07643 0.1 0.711784 0.931789 0.0280884 0.122001
1.07643 0.1 -0.711784 0.931815 0.0281118 -0.122077
0.756813 0.1 -1.05 0.997992 0.0136035 -0.0728544
0.756814 0.1 1.05 0.997974 0.0136043 0.0728252
0.350249 0.1 1.25 1.01468 0.0129575 0.0293411
0.350249 0.1 -1.25 1.01468 0.0129508 -0.0293484
1.29889 0.1 -0.040037 0.77117 0.0673187 -0.0149201
1.29889 0.1 0.040037 0.771132 0.067318 0.0142701
0 0.1 1.3 1 0 0
0 0.1 -1.3 1 0 0
1.27678 0.1 0.244643 0.796942 0.0624346 0.0822368
1.27678 0.1 -0.244643 0.797038 0.0624639 -0.0825492
0.939379 0.1 -0.9 0.973417 0.0184819 -0.100217
0.939379 0.1 0.9 0.973389 0.0184776 0.100168
1.21398 0.1 -0.471538 0.856639 0.0483579 -0.126648
1.21398 0.1 0.471538 0.856633 0.0482897 0.126555
1.16984 0.1 0.576403 0.888829 0.0396477 0.131947
1.16984 0.1 -0.576403 0.888891 0.0396879 -0.132068