0 	0 	0 	0 	0 	0 	0
0.00128482 	0.064042 	0.000584825 	0.0465769 	0.0647406 	0.000583384 	0.0462536
0.00256965 	0.136416 	0.00122205 	0.0964083 	0.137737 	0.00121921 	0.0958216
0.00387803 	0.163083 	0.00184793 	0.113849 	0.164563 	0.00184197 	0.113176
0.00518642 	0.191301 	0.00250883 	0.13166 	0.192913 	0.00250018 	0.130919
0.00651881 	0.219455 	0.00334789 	0.148895 	0.221188 	0.00333459 	0.148112
0.00785119 	0.248959 	0.00423551 	0.166563 	0.250792 	0.00421826 	0.165748
0.00920802 	0.278148 	0.00516075 	0.183545 	0.280066 	0.00513779 	0.182722
0.0105648 	0.30846 	0.00612532 	0.200984 	0.31045 	0.00609753 	0.200156
0.0119465 	0.338197 	0.00714669 	0.217661 	0.340241 	0.00711243 	0.216849
0.0133283 	0.368805 	0.00820158 	0.234778 	0.370895 	0.00816186 	0.233979
0.0147353 	0.398635 	0.009307 	0.251104 	0.400755 	0.00926023 	0.250335
0.0161424 	0.429064 	0.0104388 	0.267811 	0.431207 	0.0103861 	0.267066
0.0175752 	0.458543 	0.0116069 	0.283711 	0.460693 	0.0115467 	0.283003
0.0190081 	0.488326 	0.0127915 	0.299896 	0.49048 	0.012725 	0.299217
0.0204672 	0.516996 	0.0139973 	0.315252 	0.519138 	0.0139229 	0.31461
0.0219263 	0.545657 	0.015207 	0.330761 	0.547786 	0.0151259 	0.330149
0.0234122 	0.573045 	0.0164225 	0.345409 	0.575147 	0.0163333 	0.34483
0.0248981 	0.600096 	0.0176265 	0.360048 	0.60217 	0.0175305 	0.359495
0.0264113 	0.625719 	0.0188207 	0.373781 	0.627752 	0.0187163 	0.373255
0.0279244 	0.650667 	0.0199857 	0.387323 	0.652661 	0.0198743 	0.386817
0.0294653 	0.674048 	0.0211252 	0.399911 	0.675992 	0.0210053 	0.399424
0.0310063 	0.696429 	0.0222167 	0.412118 	0.698325 	0.0220898 	0.411644
0.0325754 	0.71714 	0.0232683 	0.423334 	0.718977 	0.0231331 	0.42287
0.0341446 	0.73657 	0.0242542 	0.433992 	0.738355 	0.0241121 	0.433533
0.0357425 	0.754287 	0.0251891 	0.443648 	0.75601 	0.0250389 	0.443193
0.0373405 	0.770533 	0.0260445 	0.452613 	0.772201 	0.0258878 	0.452158
0.0389677 	0.785104 	0.0268427 	0.460608 	0.786711 	0.0266785 	0.460149
0.040595 	0.798141 	0.0275545 	0.467847 	0.799697 	0.0273845 	0.467384
0.0422521 	0.809635 	0.028209 	0.474192 	0.811135 	0.0280322 	0.473723
0.0439092 	0.819669 	0.0287783 	0.479798 	0.821124 	0.0285965 	0.479322
0.0455967 	0.828367 	0.0292957 	0.484629 	0.829773 	0.0291081 	0.484145
0.0472842 	0.835792 	0.0297364 	0.4888 	0.837161 	0.0295445 	0.48831
0.0490026 	0.842128 	0.0301342 	0.492336 	0.843459 	0.0299375 	0.49184
0.0507211 	0.847435 	0.0304675 	0.495333 	0.848737 	0.0302673 	0.494831
0.052471 	0.851905 	0.0307687 	0.497835 	0.853177 	0.0305647 	0.497328
0.054221 	0.855592 	0.0310182 	0.499923 	0.856843 	0.0308115 	0.499412
0.056003 	0.858665 	0.031246 	0.501643 	0.859896 	0.0310361 	0.501129
0.0577851 	0.861172 	0.0314336 	0.503062 	0.862388 	0.0312215 	0.502544
0.0595998 	0.863245 	0.0316082 	0.504216 	0.864447 	0.0313936 	0.503696
0.0614146 	0.864923 	0.0317518 	0.505158 	0.866114 	0.0315353 	0.504636
0.0632626 	0.866303 	0.0318893 	0.505915 	0.867484 	0.0316707 	0.505393
0.0651106 	0.867413 	0.0320023 	0.506529 	0.868586 	0.0317822 	0.506006
0.0669925 	0.868322 	0.0321145 	0.507016 	0.869486 	0.0318925 	0.506493
0.0688745 	0.86905 	0.0322071 	0.507408 	0.870205 	0.0319837 	0.506884
0.0707909 	0.869645 	0.0323023 	0.507716 	0.87079 	0.032077 	0.507193
0.0727073 	0.870116 	0.0323814 	0.507961 	0.871252 	0.0321545 	0.507439
0.0746589 	0.870501 	0.0324651 	0.508152 	0.871626 	0.0322362 	0.50763
0.0766105 	0.870802 	0.0325347 	0.508303 	0.871916 	0.0323041 	0.507782
0.0785979 	0.871049 	0.0326108 	0.508419 	0.872151 	0.0323779 	0.507898
0.0805853 	0.871235 	0.0326741 	0.508511 	0.872326 	0.0324393 	0.507989
0.0826091 	0.87139 	0.0327447 	0.50858 	0.872471 	0.0325082 	0.50806
0.0846329 	0.8715 	0.0328035 	0.508634 	0.872572 	0.0325654 	0.508114
0.0866939 	0.871594 	0.0328703 	0.508675 	0.87266 	0.0326304 	0.508157
0.0887548 	0.871654 	0.0329257 	0.508707 	0.872714 	0.0326843 	0.50819
0.0908536 	0.87171 	0.0329895 	0.50873 	0.872765 	0.0327464 	0.508215
0.0929523 	0.871737 	0.0330424 	0.508748 	0.87279 	0.0327978 	0.508234
0.0929523 	0.871737 	0.0330424 	0.508748 	0.87279 	0.0327978 	0.508234
0.0950896 	0.871771 	0.0331041 	0.508761 	0.872819 	0.0328579 	0.50825
0.0972268 	0.871781 	0.0331551 	0.508771 	0.872827 	0.0329076 	0.508261
0.0994033 	0.871803 	0.0332152 	0.508778 	0.872845 	0.0329663 	0.508271
0.10158 	0.871807 	0.033265 	0.508783 	0.872846 	0.0330147 	0.508278
0.103796 	0.871824 	0.033324 	0.508787 	0.872858 	0.0330724 	0.508284
0.106012 	0.871825 	0.0333728 	0.508789 	0.872856 	0.03312 	0.508288
0.108269 	0.871841 	0.0334311 	0.508791 	0.872867 	0.0331768 	0.508292
0.110526 	0.871844 	0.0334792 	0.508792 	0.872865 	0.0332237 	0.508295
0.112825 	0.87186 	0.0335367 	0.508793 	0.872876 	0.0332799 	0.508298
0.115123 	0.871863 	0.0335844 	0.508794 	0.872874 	0.0333263 	0.5083
0.117464 	0.871879 	0.0336412 	0.508794 	0.872883 	0.0333818 	0.508302
0.119804 	0.871882 	0.0336882 	0.508794 	0.872881 	0.0334276 	0.508304
0.122188 	0.871897 	0.0337442 	0.508794 	0.872889 	0.0334825 	0.508307
0.124571 	0.871898 	0.0337906 	0.508795 	0.872884 	0.0335275 	0.508308
0.126999 	0.871911 	0.0338458 	0.508795 	0.87289 	0.0335817 	0.508311
0.129426 	0.87191 	0.0338914 	0.508795 	0.872883 	0.033626 	0.508312
0.131897 	0.87192 	0.0339456 	0.508795 	0.872886 	0.0336794 	0.508315
0.134369 	0.871916 	0.0339902 	0.508795 	0.872876 	0.0337229 	0.508317
0.136886 	0.871923 	0.0340434 	0.508795 	0.872875 	0.0337754 	0.508319
0.139403 	0.871915 	0.034087 	0.508796 	0.872862 	0.033818 	0.508321
0.139693 	0.871916 	0.0340934 	0.508796 	0.872862 	0.0338244 	0.508322
0.139982 	0.871917 	0.0340998 	0.508796 	0.872862 	0.0338307 	0.508322
0.142256 	0.871917 	0.0341438 	0.508796 	0.872855 	0.0338743 	0.508324
0.14453 	0.871907 	0.0341815 	0.508796 	0.872839 	0.0339113 	0.508326
0.146565 	0.871909 	0.0342232 	0.508797 	0.872835 	0.0339529 	0.508329
0.1486 	0.871896 	0.0342553 	0.508797 	0.872817 	0.0339846 	0.50833
0.149175 	0.871893 	0.0342644 	0.508797 	0.872812 	0.0339936 	0.508331
0.14975 	0.871889 	0.0342735 	0.508797 	0.872807 	0.0340026 	0.508331
0.152408 	0.871881 	0.034323 	0.508798 	0.872789 	0.0340521 	0.508334
0.155066 	0.871857 	0.0343629 	0.508799 	0.872758 	0.0340916 	0.508337
0.157773 	0.871838 	0.034411 	0.5088 	0.872728 	0.0341401 	0.50834
0.16048 	0.871804 	0.0344495 	0.5088 	0.872684 	0.0341785 	0.508343
0.163237 	0.871766 	0.0344962 	0.508801 	0.872634 	0.0342254 	0.508346
0.165993 	0.871712 	0.034533 	0.508803 	0.872569 	0.0342622 	0.508348
0.1688 	0.871646 	0.0345778 	0.508804 	0.872489 	0.0343071 	0.508351
0.171607 	0.871562 	0.0346126 	0.508805 	0.872392 	0.0343418 	0.508353
0.174466 	0.871457 	0.034655 	0.508806 	0.872277 	0.034385 	0.508356
0.177324 	0.871334 	0.0346873 	0.508808 	0.872144 	0.0344179 	0.508358
0.180235 	0.871188 	0.034727 	0.508809 	0.87199 	0.0344583 	0.508362
0.183146 	0.871023 	0.0347566 	0.508811 	0.871817 	0.0344884 	0.508366
0.186111 	0.870835 	0.0347937 	0.508813 	0.871622 	0.0345257 	0.50837
0.189075 	0.870629 	0.0348206 	0.508815 	0.871408 	0.0345527 	0.508374
0.192094 	0.870403 	0.0348552 	0.508816 	0.871175 	0.0345874 	0.508378
0.195113 	0.87016 	0.0348796 	0.508819 	0.870925 	0.0346118 	0.508382
0.198187 	0.869901 	0.0349119 	0.50882 	0.870663 	0.0346439 	0.508386
0.201261 	0.869628 	0.0349341 	0.508823 	0.870384 	0.0346658 	0.50839
0.204391 	0.869345 	0.0349646 	0.508824 	0.870101 	0.0346958 	0.508394
0.207522 	0.869052 	0.034985 	0.508827 	0.869804 	0.0347157 	0.508398
0.21071 	0.868754 	0.0350142 	0.508828 	0.869508 	0.0347441 	0.508401
0.213898 	0.868448 	0.0350333 	0.508831 	0.869202 	0.0347625 	0.508405
0.217144 	0.868143 	0.0350616 	0.508832 	0.8689 	0.0347897 	0.508409
0.22039 	0.86783 	0.0350799 	0.508834 	0.86859 	0.034807 	0.508413
0.223696 	0.867521 	0.0351076 	0.508835 	0.868285 	0.0348333 	0.508417
0.227002 	0.867206 	0.0351254 	0.508837 	0.867974 	0.0348498 	0.50842
0.230369 	0.866896 	0.0351526 	0.508838 	0.867668 	0.0348755 	0.508424
0.233735 	0.86658 	0.03517 	0.50884 	0.867357 	0.0348913 	0.508428
0.237164 	0.86627 	0.0351967 	0.508841 	0.86705 	0.0349165 	0.508431
0.240592 	0.865954 	0.0352138 	0.508843 	0.866738 	0.0349318 	0.508435
0.244083 	0.865645 	0.0352399 	0.508843 	0.866429 	0.0349565 	0.508439
0.247574 	0.865329 	0.0352565 	0.508845 	0.866114 	0.0349714 	0.508442
0.248778 	0.865225 	0.0352666 	0.508845 	0.866009 	0.0349811 	0.508443
0.249983 	0.865122 	0.0352767 	0.508845 	0.865904 	0.0349909 	0.508445
0.252334 	0.864912 	0.0352873 	0.508846 	0.865694 	0.0350003 	0.508447
0.254685 	0.864703 	0.0352978 	0.508847 	0.865484 	0.0350098 	0.508449
0.258305 	0.864392 	0.0353222 	0.508847 	0.865168 	0.0350332 	0.508453
0.261925 	0.864073 	0.0353372 	0.508849 	0.864847 	0.0350469 	0.508456
0.265612 	0.863759 	0.0353605 	0.508849 	0.864528 	0.0350696 	0.508459
0.269299 	0.863437 	0.0353744 	0.50885 	0.864204 	0.0350825 	0.508462
0.273053 	0.863122 	0.0353967 	0.508851 	0.863886 	0.0351045 	0.508466
0.276808 	0.8628 	0.0354096 	0.508851 	0.863561 	0.0351167 	0.508469
0.280631 	0.86249 	0.035431 	0.508852 	0.863247 	0.035138 	0.508472
0.284454 	0.862173 	0.0354431 	0.508852 	0.862929 	0.0351496 	0.508475
0.288348 	0.861875 	0.0354642 	0.508853 	0.862625 	0.0351706 	0.508479
0.292241 	0.861572 	0.035476 	0.508853 	0.862319 	0.0351819 	0.508482
0.292241 	0.861572 	0.035476 	0.508853 	0.862319 	0.0351819 	0.508482
0.296206 	0.861292 	0.0354972 	0.508854 	0.862033 	0.0352031 	0.508486
0.300171 	0.861009 	0.0355092 	0.508854 	0.861744 	0.0352146 	0.50849
0.304208 	0.860752 	0.035531 	0.508854 	0.861478 	0.0352364 	0.508495
0.308246 	0.860493 	0.0355438 	0.508855 	0.861211 	0.0352485 	0.508498
0.312358 	0.860256 	0.0355664 	0.508855 	0.860965 	0.035271 	0.508502
0.316469 	0.860016 	0.0355801 	0.508855 	0.860717 	0.0352839 	0.508506
0.320656 	0.859788 	0.0356031 	0.508855 	0.860484 	0.0353071 	0.508509
0.324843 	0.859556 	0.035617 	0.508855 	0.860249 	0.0353207 	0.508512
0.329107 	0.859329 	0.0356398 	0.508855 	0.860021 	0.0353441 	0.508515
0.333371 	0.859096 	0.0356532 	0.508855 	0.85979 	0.0353578 	0.508517
0.337713 	0.85887 	0.0356755 	0.508855 	0.859565 	0.0353812 	0.508519
0.342055 	0.858638 	0.0356884 	0.508854 	0.859335 	0.0353947 	0.508521
0.346476 	0.858416 	0.0357104 	0.508854 	0.859113 	0.0354179 	0.508524
0.350898 	0.858189 	0.0357232 	0.508854 	0.858887 	0.0354315 	0.508526
0.355401 	0.857976 	0.0357455 	0.508853 	0.858672 	0.035455 	0.508528
0.359903 	0.85776 	0.0357587 	0.508853 	0.858454 	0.0354688 	0.50853
0.364489 	0.857559 	0.0357816 	0.508852 	0.858249 	0.0354929 	0.508532
0.369074 	0.857355 	0.0357954 	0.508851 	0.858042 	0.0355074 	0.508533
0.373744 	0.857165 	0.035819 	0.508851 	0.857849 	0.0355323 	0.508535
0.378413 	0.856973 	0.0358335 	0.50885 	0.857653 	0.0355475 	0.508537
0.383168 	0.856794 	0.0358579 	0.508849 	0.85747 	0.0355733 	0.508539
0.387923 	0.856612 	0.0358733 	0.508848 	0.857286 	0.0355894 	0.50854
0.392765 	0.856444 	0.0358985 	0.508847 	0.857113 	0.0356162 	0.508541
0.397608 	0.856272 	0.0359147 	0.508846 	0.856939 	0.0356332 	0.508542
0.402539 	0.856113 	0.035941 	0.508845 	0.856776 	0.0356609 	0.508544
0.40747 	0.855952 	0.0359581 	0.508844 	0.856612 	0.035679 	0.508545
0.412491 	0.855803 	0.0359854 	0.508843 	0.856458 	0.0357079 	0.508546
0.417513 	0.855651 	0.0360036 	0.508841 	0.856304 	0.0357271 	0.508547
0.422626 	0.855511 	0.0360321 	0.50884 	0.856159 	0.035757 	0.508548
0.42774 	0.85537 	0.0360514 	0.508838 	0.856014 	0.0357773 	0.508548
0.432948 	0.855238 	0.0360812 	0.508836 	0.855879 	0.0358087 	0.50855
0.438155 	0.855105 	0.0361017 	0.508834 	0.855742 	0.0358304 	0.50855
0.443458 	0.854982 	0.0361328 	0.508833 	0.855615 	0.0358632 	0.50855
0.448761 	0.854856 	0.0361547 	0.508831 	0.855486 	0.0358861 	0.50855
0.454161 	0.854741 	0.0361872 	0.508829 	0.855364 	0.0359201 	0.50855
0.459561 	0.854623 	0.0362104 	0.508827 	0.855241 	0.0359442 	0.508549
0.46506 	0.854515 	0.0362444 	0.508825 	0.855128 	0.0359805 	0.508549
0.47056 	0.854406 	0.0362691 	0.508822 	0.855014 	0.0360068 	0.508549
0.47616 	0.854306 	0.0363048 	0.50882 	0.854909 	0.0360444 	0.50855
0.48176 	0.854204 	0.0363311 	0.508817 	0.854804 	0.0360721 	0.50855
0.482102 	0.854198 	0.0363336 	0.508817 	0.854798 	0.0360747 	0.50855
0.482444 	0.854193 	0.0363362 	0.508817 	0.854792 	0.0360774 	0.50855
0.487805 	0.854105 	0.0363702 	0.508815 	0.8547 	0.0361127 	0.50855
0.493165 	0.854016 	0.0363965 	0.508812 	0.854607 	0.0361399 	0.50855
0.494784 	0.853992 	0.0364086 	0.508811 	0.854582 	0.0361526 	0.50855
0.496403 	0.853968 	0.0364208 	0.508811 	0.854557 	0.0361654 	0.50855
0.500591 	0.853905 	0.0364439 	0.508809 	0.85449 	0.0361894 	0.50855
0.50478 	0.853841 	0.0364652 	0.508806 	0.854423 	0.0362117 	0.508549
0.510694 	0.853762 	0.0365062 	0.508804 	0.854339 	0.0362543 	0.508549
0.516608 	0.853681 	0.0365377 	0.5088 	0.854254 	0.0362868 	0.508547
0.516969 	0.853677 	0.0365405 	0.5088 	0.854249 	0.0362898 	0.508547
0.517331 	0.853672 	0.0365434 	0.5088 	0.854244 	0.0362927 	0.508547
0.522992 	0.853604 	0.0365826 	0.508797 	0.854172 	0.0363334 	0.508547
0.528653 	0.853534 	0.0366139 	0.508794 	0.854098 	0.0363657 	0.508545
0.530362 	0.853516 	0.0366277 	0.508793 	0.854078 	0.03638 	0.508545
0.532071 	0.853498 	0.0366415 	0.508792 	0.854059 	0.0363943 	0.508545
0.532807 	0.853491 	0.0366475 	0.508792 	0.854051 	0.0364004 	0.508545
0.533543 	0.853483 	0.0366517 	0.508792 	0.854042 	0.0364048 	0.508545
0.537231 	0.853442 	0.0366728 	0.508789 	0.853999 	0.0364266 	0.508544
0.540918 	0.853401 	0.036694 	0.508787 	0.853956 	0.0364484 	0.508542
0.547164 	0.853342 	0.036741 	0.508784 	0.853893 	0.0364968 	0.508541
0.553409 	0.853281 	0.0367781 	0.50878 	0.853827 	0.036535 	0.508539
0.559769 	0.853229 	0.0368272 	0.508776 	0.853771 	0.0365854 	0.508538
0.566129 	0.853174 	0.0368664 	0.508772 	0.853712 	0.0366256 	0.508535
0.572217 	0.85313 	0.0369151 	0.508768 	0.853665 	0.0366755 	0.508534
0.578305 	0.853085 	0.0369538 	0.508764 	0.853616 	0.0367151 	0.508531
0.578693 	0.853082 	0.0369563 	0.508763 	0.853613 	0.0367176 	0.508531
0.579082 	0.853079 	0.0369587 	0.508763 	0.853609 	0.0367201 	0.508531
0.585677 	0.853039 	0.0370121 	0.508759 	0.853566 	0.0367747 	0.508529
0.592272 	0.852996 	0.0370553 	0.508754 	0.85352 	0.0368187 	0.508526
0.598989 	0.852963 	0.0371108 	0.50875 	0.853483 	0.0368753 	0.508524
0.605705 	0.852926 	0.037156 	0.508745 	0.853443 	0.0369213 	0.508521
0.612544 	0.852899 	0.0372136 	0.50874 	0.853413 	0.03698 	0.508518
0.619384 	0.852868 	0.0372609 	0.508734 	0.853379 	0.0370279 	0.508515
0.626349 	0.852847 	0.0373206 	0.508729 	0.853356 	0.0370886 	0.508512
0.633314 	0.852822 	0.03737 	0.508724 	0.853328 	0.0371384 	0.508508
0.640406 	0.852808 	0.0374317 	0.508718 	0.853311 	0.037201 	0.508505
0.647499 	0.852789 	0.0374831 	0.508712 	0.85329 	0.0372526 	0.508501
0.654722 	0.85278 	0.0375468 	0.508707 	0.853278 	0.0373171 	0.508497
0.661944 	0.852767 	0.0376001 	0.5087 	0.853263 	0.0373704 	0.508492
0.661944 	0.852767 	0.0376001 	0.5087 	0.853263 	0.0373704 	0.508492
0.669299 	0.852765 	0.0376658 	0.508694 	0.853256 	0.0374365 	0.508487
0.676655 	0.852758 	0.0377209 	0.508687 	0.853244 	0.0374914 	0.508481
0.684145 	0.852762 	0.0377885 	0.508681 	0.853242 	0.0375589 	0.508474
0.691635 	0.852761 	0.0378454 	0.508674 	0.853236 	0.0376159 	0.508468
0.699262 	0.852771 	0.0379147 	0.508667 	0.85324 	0.0376849 	0.50846
0.70689 	0.852776 	0.0379733 	0.50866 	0.85324 	0.0377434 	0.508453
0.714657 	0.852793 	0.0380441 	0.508653 	0.853251 	0.0378138 	0.508444
0.722424 	0.852803 	0.0381042 	0.508645 	0.853256 	0.0378735 	0.508435
0.725104 	0.852812 	0.0381305 	0.508642 	0.853264 	0.0378995 	0.508433
0.727783 	0.852821 	0.0381567 	0.50864 	0.853273 	0.0379255 	0.508431
0.733013 	0.852832 	0.0381974 	0.508634 	0.853282 	0.0379656 	0.508426
0.738244 	0.852843 	0.0382381 	0.508629 	0.853291 	0.0380057 	0.508421
0.746299 	0.852873 	0.0383116 	0.508621 	0.853325 	0.0380787 	0.508418
0.754354 	0.852895 	0.0383743 	0.508612 	0.85335 	0.038141 	0.508413
0.757132 	0.852909 	0.0384013 	0.50861 	0.853366 	0.0381681 	0.508412
0.759911 	0.852922 	0.0384283 	0.508607 	0.853381 	0.0381953 	0.508411
0.770759 	0.85296 	0.0385126 	0.508595 	0.853425 	0.0382811 	0.508404
0.770759 	0.85296 	0.0385126 	0.508595 	0.853425 	0.0382811 	0.508404
0.779112 	0.853003 	0.0385879 	0.508586 	0.853471 	0.0383573 	0.508399
0.779112 	0.853003 	0.0385879 	0.508586 	0.853471 	0.0383573 	0.508399
0.787465 	0.853037 	0.0386525 	0.508577 	0.853508 	0.0384222 	0.508393
0.787465 	0.853037 	0.0386525 	0.508577 	0.853508 	0.0384222 	0.508393
0.795971 	0.853086 	0.0387283 	0.508567 	0.853558 	0.0384975 	0.508385
0.804478 	0.853127 	0.0387934 	0.508557 	0.853599 	0.0385619 	0.508376
0.81314 	0.853183 	0.0388695 	0.508548 	0.853654 	0.0386375 	0.508368
0.821802 	0.853229 	0.0389349 	0.508537 	0.8537 	0.0387024 	0.508359
0.82479 	0.853252 	0.0389623 	0.508534 	0.853723 	0.0387296 	0.508357
0.827778 	0.853275 	0.0389898 	0.508531 	0.853746 	0.0387568 	0.508354
0.833611 	0.85331 	0.0390331 	0.508524 	0.85378 	0.0387995 	0.508348
0.839445 	0.853345 	0.0390764 	0.508517 	0.853815 	0.0388421 	0.508342
0.848428 	0.853415 	0.039152 	0.508506 	0.853885 	0.0389154 	0.508334
0.857411 	0.853473 	0.0392172 	0.508495 	0.853943 	0.0389785 	0.508325
0.866558 	0.85355 	0.0392919 	0.508484 	0.854019 	0.0390511 	0.508316
0.875706 	0.853614 	0.0393565 	0.508472 	0.854082 	0.0391135 	0.508305
0.881866 	0.853674 	0.0394083 	0.508465 	0.854141 	0.0391638 	0.508299
0.888026 	0.853721 	0.0394506 	0.508457 	0.854188 	0.0392048 	0.508292
0.891182 	0.853745 	0.0394721 	0.508452 	0.854211 	0.0392257 	0.508288
0.894337 	0.853769 	0.0394937 	0.508448 	0.854235 	0.0392465 	0.508285
0.89755 	0.853801 	0.0395195 	0.508444 	0.854268 	0.0392715 	0.508281
0.900763 	0.853834 	0.0395454 	0.508441 	0.8543 	0.0392964 	0.508278
0.907037 	0.853885 	0.0395866 	0.508432 	0.854351 	0.0393357 	0.50827
0.91331 	0.853936 	0.0396277 	0.508423 	0.854401 	0.0393751 	0.508263
0.92297 	0.854033 	0.0396974 	0.508411 	0.854498 	0.0394417 	0.508252
0.93263 	0.854116 	0.0397578 	0.508398 	0.854581 	0.0394992 	0.50824
0.942468 	0.85422 	0.0398249 	0.508385 	0.854684 	0.039563 	0.508228
0.952305 	0.854309 	0.0398831 	0.508371 	0.854773 	0.039618 	0.508215
0.962323 	0.85442 	0.039947 	0.508357 	0.854884 	0.0396783 	0.508203
0.972341 	0.854515 	0.0400025 	0.508343 	0.854978 	0.0397303 	0.50819
0.982543 	0.854633 	0.0400628 	0.508329 	0.855096 	0.0397866 	0.508177
0.992745 	0.854734 	0.040115 	0.508314 	0.855197 	0.0398352 	0.508164
1.00313 	0.854859 	0.040171 	0.508299 	0.855321 	0.0398869 	0.50815
1.01352 	0.854966 	0.0402195 	0.508283 	0.855428 	0.0399314 	0.508136
1.0241 	0.855097 	0.0402707 	0.508268 	0.855559 	0.0399781 	0.508122
1.03468 	0.855209 	0.0403149 	0.508252 	0.855671 	0.040018 	0.508107
1.04545 	0.855347 	0.0403606 	0.508236 	0.855809 	0.0400589 	0.508092
1.05623 	0.855466 	0.0404 	0.508219 	0.855927 	0.0400937 	0.508077
1.0672 	0.85561 	0.0404398 	0.508203 	0.856071 	0.0401281 	0.508061
1.07817 	0.855734 	0.0404738 	0.508185 	0.856195 	0.0401573 	0.508045
1.08934 	0.855884 	0.0405069 	0.508168 	0.856345 	0.0401847 	0.508029
1.10051 	0.856014 	0.040535 	0.50815 	0.856474 	0.0402076 	0.508012
1.11189 	0.85617 	0.0405607 	0.508133 	0.85663 	0.0402274 	0.507996
1.12327 	0.856305 	0.0405822 	0.508114 	0.856764 	0.0402433 	0.507978
1.13485 	0.856467 	0.0406 	0.508096 	0.856926 	0.0402548 	0.507961
1.14644 	0.856607 	0.0406144 	0.508076 	0.857065 	0.0402633 	0.507943
1.15824 	0.856774 	0.0406235 	0.508058 	0.857233 	0.0402658 	0.507925
1.17004 	0.856919 	0.04063 	0.508038 	0.857377 	0.0402662 	0.507906
1.18205 	0.857092 	0.0406298 	0.508018 	0.857549 	0.0402591 	0.507888
1.19407 	0.857241 	0.040628 	0.507997 	0.857697 	0.0402509 	0.507868
1.2063 	0.857418 	0.0406178 	0.507977 	0.857874 	0.0402333 	0.507849
1.21854 	0.857572 	0.040607 	0.507956 	0.858027 	0.0402158 	0.507828
1.23099 	0.857754 	0.0405862 	0.507935 	0.858208 	0.0401874 	0.507808
1.24345 	0.857911 	0.0405658 	0.507913 	0.858365 	0.0401601 	0.507787
1.25614 	0.858098 	0.0405337 	0.507891 	0.85855 	0.04012 	0.507767
1.26883 	0.858259 	0.0405032 	0.507868 	0.85871 	0.0400821 	0.507745
1.28175 	0.858449 	0.0404593 	0.507846 	0.858898 	0.0400301 	0.507723
1.29467 	0.858613 	0.040418 	0.507822 	0.859061 	0.0399813 	0.507701
1.30783 	0.858806 	0.0403616 	0.507799 	0.859252 	0.0399166 	0.507678
1.32099 	0.858973 	0.0403091 	0.507775 	0.859418 	0.0398562 	0.507655
1.33439 	0.859169 	0.0402397 	0.507751 	0.85961 	0.0397778 	0.507631
1.34778 	0.859338 	0.0401753 	0.507726 	0.859777 	0.0397051 	0.507607
1.36143 	0.859536 	0.0400923 	0.507702 	0.859972 	0.039614 	0.507583
1.37507 	0.859708 	0.0400156 	0.507676 	0.860141 	0.0395299 	0.507557
1.38897 	0.859907 	0.0399187 	0.507651 	0.860338 	0.039424 	0.507533
1.40286 	0.86008 	0.0398292 	0.507624 	0.86051 	0.0393263 	0.507508
1.41701 	0.860281 	0.0397178 	0.507598 	0.860708 	0.0392053 	0.507482
1.43116 	0.860455 	0.0396151 	0.507571 	0.86088 	0.0390939 	0.507456
1.44557 	0.860656 	0.0394889 	0.507544 	0.861078 	0.0389584 	0.507429
1.45998 	0.86083 	0.0393727 	0.507516 	0.86125 	0.0388336 	0.507402
1.47466 	0.861031 	0.0392313 	0.507488 	0.861448 	0.0386826 	0.507375
1.48933 	0.861205 	0.0391012 	0.507459 	0.86162 	0.0385437 	0.507346
1.50427 	0.861405 	0.0389444 	0.507431 	0.861817 	0.0383774 	0.507318
1.51921 	0.861579 	0.0388001 	0.507401 	0.861988 	0.0382244 	0.507289
1.53443 	0.861778 	0.0386277 	0.507372 	0.862183 	0.0380423 	0.50726
1.54965 	0.861951 	0.0384691 	0.507341 	0.862353 	0.037875 	0.50723
1.56514 	0.862148 	0.0382809 	0.507311 	0.862545 	0.0376773 	0.5072
1.58064 	0.862319 	0.0381079 	0.50728 	0.862713 	0.0374955 	0.507169
1.59642 	0.862513 	0.0379038 	0.507249 	0.862903 	0.037282 	0.507138
1.6122 	0.862682 	0.0377162 	0.507217 	0.863069 	0.0370857 	0.507106
1.62827 	0.862873 	0.0374964 	0.507185 	0.863255 	0.0368566 	0.507074
1.64434 	0.863039 	0.0372942 	0.507152 	0.863418 	0.0366459 	0.507041
1.6607 	0.863226 	0.0370587 	0.507119 	0.8636 	0.0364012 	0.507008
1.67707 	0.863389 	0.036842 	0.507085 	0.863759 	0.0361762 	0.506975
1.69373 	0.863572 	0.036591 	0.507052 	0.863937 	0.0359162 	0.506941
1.7104 	0.863732 	0.0363599 	0.507017 	0.864092 	0.035677 	0.506907
1.72737 	0.86391 	0.0360935 	0.506982 	0.864264 	0.035402 	0.506872
1.74434 	0.864065 	0.0358483 	0.506947 	0.864415 	0.0351489 	0.506837
1.76162 	0.864238 	0.0355669 	0.506912 	0.864582 	0.0348592 	0.506801
1.7789 	0.864389 	0.0353077 	0.506875 	0.864728 	0.0345924 	0.506765
1.7965 	0.864555 	0.0350118 	0.506839 	0.864888 	0.0342886 	0.506728
1.81409 	0.864701 	0.0347391 	0.506802 	0.865029 	0.0340085 	0.506691
1.83202 	0.864862 	0.034429 	0.506765 	0.865183 	0.0336909 	0.506653
1.84994 	0.865003 	0.034143 	0.506727 	0.865317 	0.0333979 	0.506615
1.86819 	0.865157 	0.0338195 	0.506689 	0.865464 	0.0330671 	0.506576
1.88644 	0.865292 	0.0335208 	0.50665 	0.865593 	0.0327618 	0.506537
1.90502 	0.865437 	0.0331842 	0.506611 	0.865731 	0.0324182 	0.506497
1.9236 	0.865565 	0.0328733 	0.506572 	0.865852 	0.032101 	0.506458
1.94253 	0.865689 	0.0325242 	0.506532 	0.86597 	0.0317454 	0.506417
1.96146 	0.865796 	0.0322016 	0.506492 	0.866072 	0.0314169 	0.506377
1.98073 	0.865904 	0.0318638 	0.506454 	0.866177 	0.0310734 	0.506339
2 	0.865998 	0.0315521 	0.506416 	0.866268 	0.0307565 	0.506301
