0 1e-10
0.000963618 0.00248209
0.00192724 0.00631254
0.00290853 0.0073331
0.00388982 0.00843449
0.00488911 0.00926036
0.0058884 0.00998724
0.00690601 0.0104651
0.00792363 0.0106662
0.00895991 0.0106798
0.00999619 0.0102857
0.0110515 0.00980503
0.0121068 0.00891831
0.0131814 0.00807686
0.0142561 0.00693591
0.0153504 0.005991
0.0164448 0.00487205
0.0175592 0.00404271
0.0186736 0.00317268
0.0198085 0.00258514
0.0209433 0.00206568
0.022099 0.00173634
0.0232547 0.00149899
0.0244316 0.00135839
0.0256084 0.00128082
0.0268069 0.0012437
0.0280054 0.00123672
0.0292258 0.00124644
0.0304462 0.00126711
0.0316891 0.00129603
0.0329319 0.00132946
0.0341975 0.00136565
0.0354631 0.00140254
0.036752 0.00143994
0.0380408 0.00147585
0.0393533 0.00151608
0.0406657 0.00155051
0.0420023 0.00159524
0.0433388 0.00162831
0.0446999 0.0016762
0.0460609 0.00170669
0.047447 0.00175664
0.048833 0.00178472
0.0502444 0.00182879
0.0516559 0.001859
0.0530932 0.00188675
0.0545305 0.0019276
0.0559942 0.00197797
0.0574579 0.00203742
0.0589484 0.00222228
0.060439 0.00229214
0.0619568 0.00263874
0.0634747 0.00271135
0.0650204 0.00300811
0.0665661 0.00310607
0.0681402 0.00318607
0.0697143 0.00331904
0.0713172 0.00321821
0.0729201 0.00335197
0.0745524 0.00315165
0.0761848 0.0032491
0.077847 0.0030153
0.0795093 0.00303128
0.0812021 0.00278772
0.0828948 0.00270239
0.0846186 0.00245413
0.0863424 0.00227246
0.0880979 0.00206747
0.0898533 0.00181825
0.0916409 0.00168486
0.0934285 0.00142614
0.0952489 0.00132752
0.0970693 0.00110517
0.0989231 0.00102497
0.100777 0.000876285
0.102665 0.000812113
0.104552 0.000720705
0.106475 0.00066589
0.108397 0.000599695
0.110355 0.000553911
0.112313 0.000504533
0.114306 0.000468055
0.1163 0.000429249
0.11833 0.000401125
0.12036 0.000370373
0.122428 0.000350606
0.124495 0.000327781
0.1266 0.00031479
0.128705 0.000299133
0.130849 0.000290954
0.132993 0.000280577
0.135177 0.000275479
0.13736 0.000268823
0.139583 0.000265523
0.141806 0.000261348
0.14407 0.000259208
0.146334 0.000256532
0.14864 0.000255171
0.150946 0.000253493
0.153293 0.000252682
0.155641 0.000251697
0.158032 0.0002513
0.160423 0.000250816
0.162858 0.000250748
0.165293 0.000250634
0.167772 0.000250825
0.170252 0.000250996
0.172776 0.000251399
0.175301 0.000251797
0.177873 0.000252376
0.180444 0.00025295
0.183062 0.00025366
0.185681 0.00025437
0.188347 0.000255175
0.191013 0.000255987
0.193729 0.000256862
0.196444 0.000257749
0.199209 0.000258677
0.201974 0.000259617
0.20479 0.000260584
0.207606 0.00026156
0.210473 0.000262553
0.213341 0.000263551
0.216261 0.000264564
0.219181 0.000265573
0.222155 0.000266596
0.225128 0.00026761
0.228156 0.000268637
0.231184 0.000269652
0.234268 0.000270683
0.237352 0.000271699
0.240492 0.000272732
0.243632 0.000273748
0.24683 0.000274781
0.250028 0.000275795
0.253285 0.000276827
0.256541 0.000277836
0.259857 0.000278871
0.263174 0.000279877
0.266551 0.000280918
0.269928 0.000281924
0.273367 0.000282977
0.276806 0.000283989
0.280308 0.000285054
0.28381 0.000286078
0.287376 0.000287157
0.290942 0.000288196
0.294574 0.000289291
0.298206 0.000290345
0.301904 0.000291459
0.305602 0.000292529
0.309368 0.000293651
0.313135 0.000294727
0.31697 0.000295859
0.320805 0.000296941
0.324711 0.0002981
0.328616 0.000299207
0.332593 0.000300398
0.336571 0.000301539
0.340621 0.000302747
0.344671 0.000303902
0.348795 0.000305109
0.35292 0.000306262
0.35712 0.000307486
0.36132 0.000308657
0.365597 0.000309914
0.369874 0.000311114
0.37423 0.000312401
0.378585 0.000313629
0.383021 0.000314947
0.387456 0.000316204
0.391973 0.000317555
0.39649 0.000318844
0.401089 0.000320229
0.405689 0.00032155
0.410373 0.000322973
0.415057 0.00032433
0.419827 0.000325789
0.424597 0.000327183
0.429454 0.000328679
0.434311 0.000330109
0.439258 0.000331641
0.444204 0.000333107
0.449241 0.000334674
0.454279 0.000336175
0.459408 0.000337779
0.464538 0.000339315
0.469761 0.000340957
0.474985 0.00034253
0.480305 0.000344211
0.485624 0.000345822
0.491041 0.000347542
0.496458 0.000349191
0.501975 0.000350953
0.507491 0.000352643
0.513109 0.000354447
0.518726 0.000356179
0.524447 0.000358027
0.530167 0.000359802
0.535993 0.000361694
0.541818 0.000363512
0.547751 0.00036545
0.553683 0.000367313
0.559724 0.0003693
0.565765 0.00037121
0.571917 0.000373245
0.578069 0.000375203
0.584334 0.000377289
0.590599 0.000379297
0.596979 0.000381435
0.603358 0.000383494
0.609855 0.000385686
0.616352 0.000387797
0.622968 0.000390047
0.629583 0.000392214
0.636321 0.000394524
0.643058 0.00039675
0.649919 0.000399121
0.656779 0.000401408
0.663766 0.00040384
0.670753 0.000406188
0.677867 0.000408685
0.684982 0.000411095
0.692227 0.000413661
0.699473 0.000416137
0.706851 0.000418776
0.714229 0.000421324
0.721742 0.000424038
0.729256 0.00042666
0.736907 0.000429452
0.744558 0.000432151
0.75235 0.000435024
0.760142 0.000437802
0.768076 0.000440759
0.776011 0.000443621
0.784091 0.000446665
0.792171 0.000449612
0.800399 0.000452748
0.808627 0.000455785
0.817006 0.000459015
0.825385 0.000462146
0.833918 0.000465475
0.842451 0.000468701
0.85114 0.000472131
0.85983 0.00047546
0.868678 0.000478997
0.877527 0.000482429
0.886538 0.000486073
0.895549 0.000489614
0.904725 0.000493373
0.913901 0.000497027
0.923246 0.000500898
0.93259 0.000504659
0.942106 0.000508659
0.951622 0.00051256
0.961313 0.000516655
0.971003 0.000520632
0.980872 0.000524909
0.99074 0.000529096
1.00079 0.000533392
1.01084 0.000537558
1.02107 0.00054216
1.03131 0.000546674
1.04173 0.000551148
1.05215 0.000555509
1.06276 0.000560427
1.07337 0.000565226
1.08418 0.000569956
1.09499 0.000574614
1.10599 0.000579719
1.117 0.000584673
1.1282 0.000589791
1.13941 0.000594844
1.15082 0.000600065
1.16224 0.000605175
1.17386 0.000610608
1.18548 0.000615917
1.19731 0.000621417
1.20915 0.000626849
1.2212 0.000632417
1.23325 0.000637878
1.24553 0.000643666
1.2578 0.000649343
1.2703 0.00065515
1.2828 0.000660884
1.29552 0.000666808
1.30825 0.000672637
1.32121 0.000678662
1.33417 0.000684582
1.34737 0.000690719
1.36057 0.000696772
1.37401 0.000702929
1.38745 0.000709004
1.40114 0.000715277
1.41483 0.000721457
1.42877 0.000727772
1.4427 0.000733997
1.4569 0.000745002
1.47109 0.000755741
1.48555 0.000758232
1.5 0.000760731
1.50339 0.000761623
1.50679 0.000762516
1.5136 0.000764037
1.52041 0.000765559
1.52046 0.000765574
1.5205 0.00076559
1.52751 0.000767866
1.53451 0.000770148
1.53809 0.000771215
1.54167 0.000772283
1.54524 0.000773524
1.54882 0.000774766
1.55612 0.000777111
1.56343 0.000779479
1.56363 0.000779543
1.56383 0.000779608
1.57109 0.000782306
1.57835 0.000785005
1.58265 0.000786494
1.58696 0.000787984
1.59027 0.000789281
1.59359 0.000790578
1.60137 0.000793435
1.60915 0.000796397
1.61013 0.000796763
1.61111 0.000797129
1.61807 0.000800031
1.62504 0.000802932
1.6307 0.000805157
1.63636 0.000807381
1.63881 0.000808446
1.64127 0.00080951
1.64955 0.000812919
1.65784 0.000816584
1.66031 0.00081762
1.66279 0.000818655
1.66878 0.000821403
1.67476 0.000824151
1.68262 0.000827574
1.69048 0.000830998
1.69126 0.00083137
1.69205 0.000831742
1.70087 0.000835929
1.7097 0.000840195
1.7146 0.000842452
1.71951 0.00084471
1.72362 0.000846753
1.72772 0.000848796
1.73693 0.000853174
1.74613 0.000857744
1.74806 0.000858685
1.75 0.000859626
1.75746 0.000863531
1.76493 0.000867437
1.77349 0.000871738
1.78205 0.000876039
1.78309 0.000876596
1.78412 0.000877152
1.79393 0.000882459
1.80373 0.000887867
1.80976 0.000891067
1.81579 0.000894268
1.81977 0.000896517
1.82375 0.000898765
1.83397 0.000904325
1.8442 0.000910223
1.84777 0.000912206
1.85135 0.000914189
1.85821 0.000918227
1.86508 0.000922266
1.87574 0.000928274
1.8864 0.000934396
1.88764 0.000935089
1.88889 0.000935782
1.89853 0.000941479
1.90818 0.000947175
1.91837 0.000953399
1.92857 0.000959623
1.92949 0.000960219
1.93041 0.000960815
1.94177 0.000965839
1.95312 0.000970938
1.96186 0.000978151
1.97059 0.000985365
1.97345 0.000987783
1.97632 0.000990201
1.98816 0.000997352
2 0.00100455
