0 	0 	0 	0 	0 	0 	0
0.00123105 	0.0612405 	-0.00223995 	-0.0534337 	0.0600287 	0.000247918 	0.0154076
0.0024621 	0.105332 	-0.00433573 	-0.105076 	0.119748 	0.000472341 	0.0313096
0.00251587 	0.106549 	-0.00442133 	-0.107258 	0.122344 	0.000481174 	0.0320246
0.00256965 	0.107767 	-0.00450692 	-0.109439 	0.12494 	0.000490007 	0.0327397
0.00355588 	0.130314 	-0.00660837 	-0.108747 	0.14355 	0.000661071 	0.039397
0.00454212 	0.152285 	-0.0087159 	-0.107642 	0.162147 	0.00082746 	0.0460946
0.00486427 	0.157952 	-0.00942025 	-0.106205 	0.168184 	0.000869588 	0.0483878
0.00518642 	0.163619 	-0.0101246 	-0.104768 	0.17422 	0.000911715 	0.0506809
0.00646304 	0.192295 	-0.0137915 	-0.0874201 	0.199558 	0.00116602 	0.0614071
0.00773966 	0.219001 	-0.0174927 	-0.066659 	0.224827 	0.00137536 	0.0724591
0.00779543 	0.220087 	-0.0176558 	-0.0656111 	0.225928 	0.00138265 	0.0729553
0.00785119 	0.221172 	-0.0178189 	-0.0645632 	0.227029 	0.00138993 	0.0734516
0.00887394 	0.242601 	-0.0209907 	-0.0407886 	0.247355 	0.00153478 	0.0835334
0.00989668 	0.263963 	-0.0241755 	-0.0164766 	0.267667 	0.00167069 	0.0936791
0.0102308 	0.270765 	-0.0252496 	-0.00712981 	0.274267 	0.00169172 	0.0971604
0.0105648 	0.277567 	-0.0263237 	0.00221703 	0.280866 	0.00171275 	0.100642
0.0119465 	0.305121 	-0.0307148 	0.0415904 	0.307438 	0.0018041 	0.115626
0.0133283 	0.334076 	-0.0351781 	0.0838937 	0.333903 	0.00182707 	0.131047
0.0146764 	0.360959 	-0.0392622 	0.124054 	0.358612 	0.00182177 	0.146182
0.0160246 	0.39035 	-0.0433919 	0.16608 	0.383242 	0.00175639 	0.161653
0.0160835 	0.391737 	-0.0435742 	0.167993 	0.384315 	0.00175105 	0.162343
0.0161424 	0.393125 	-0.0437565 	0.169906 	0.385388 	0.00174571 	0.163032
0.0172224 	0.41524 	-0.0466364 	0.200383 	0.404165 	0.00167335 	0.174954
0.0183025 	0.437934 	-0.0495235 	0.231086 	0.422936 	0.00159113 	0.186923
0.0186553 	0.44686 	-0.0504858 	0.241707 	0.429048 	0.00153849 	0.190958
0.0190081 	0.455785 	-0.051448 	0.252328 	0.435159 	0.00148585 	0.194993
0.0204672 	0.486071 	-0.0545577 	0.288541 	0.459127 	0.00131222 	0.210181
0.0219263 	0.520913 	-0.0577331 	0.325797 	0.483096 	0.00107621 	0.225633
0.0233501 	0.549599 	-0.059839 	0.354841 	0.505001 	0.00085196 	0.239144
0.0247738 	0.582325 	-0.0620271 	0.3844 	0.526947 	0.000579735 	0.25283
0.024836 	0.583922 	-0.062126 	0.385712 	0.527908 	0.000565861 	0.253435
0.0248981 	0.585518 	-0.062225 	0.387024 	0.528868 	0.000551988 	0.25404
0.0260387 	0.6065 	-0.0631033 	0.404825 	0.54506 	0.000340123 	0.263641
0.0271793 	0.628143 	-0.0640009 	0.422652 	0.561265 	0.000121036 	0.273263
0.0275519 	0.63694 	-0.0643448 	0.428541 	0.566589 	3.05859e-05 	0.276463
0.0279244 	0.645737 	-0.0646887 	0.434431 	0.571913 	-5.9864e-05 	0.279664
0.0294653 	0.669805 	-0.0647968 	0.451303 	0.591673 	-0.00037741 	0.290915
0.0310063 	0.697926 	-0.0650758 	0.4679 	0.611526 	-0.000737251 	0.302272
0.0325754 	0.717142 	-0.0642275 	0.478629 	0.629225 	-0.00108686 	0.312047
0.0341446 	0.739671 	-0.0635846 	0.488573 	0.647012 	-0.0014702 	0.321889
0.0357425 	0.753862 	-0.0620024 	0.494399 	0.662399 	-0.00184795 	0.330284
0.0373405 	0.770512 	-0.0606525 	0.499021 	0.677865 	-0.00224939 	0.338705
0.0389677 	0.780362 	-0.0586066 	0.501664 	0.690844 	-0.00264919 	0.345868
0.040595 	0.791914 	-0.0568012 	0.50295 	0.7039 	-0.00306181 	0.35301
0.0422521 	0.798495 	-0.0545208 	0.503902 	0.714584 	-0.00347355 	0.359117
0.0439092 	0.806288 	-0.052461 	0.503568 	0.725355 	-0.00388716 	0.365148
0.0455261 	0.810347 	-0.050197 	0.503702 	0.73369 	-0.00427824 	0.370171
0.0471429 	0.815248 	-0.0480894 	0.502972 	0.742104 	-0.00466135 	0.37508
0.0472135 	0.815496 	-0.0480038 	0.502904 	0.742474 	-0.00467776 	0.37529
0.0472842 	0.815745 	-0.0479182 	0.502837 	0.742845 	-0.00469416 	0.3755
0.0485795 	0.817586 	-0.0461452 	0.502705 	0.748222 	-0.004988 	0.378943
0.0498748 	0.819558 	-0.0443935 	0.502484 	0.753611 	-0.00527877 	0.38236
0.0502979 	0.820542 	-0.0438769 	0.502177 	0.755402 	-0.00536574 	0.383407
0.0507211 	0.821526 	-0.0433603 	0.50187 	0.757194 	-0.00545272 	0.384453
0.052471 	0.822415 	-0.0410791 	0.501536 	0.763153 	-0.00580832 	0.388511
0.054221 	0.824138 	-0.0389147 	0.501023 	0.769174 	-0.00613171 	0.392355
0.056003 	0.823626 	-0.0367345 	0.50041 	0.774245 	-0.00644277 	0.396012
0.0577851 	0.823845 	-0.0346475 	0.50008 	0.779353 	-0.00671173 	0.399441
0.0595998 	0.822134 	-0.0325745 	0.498943 	0.783726 	-0.00697362 	0.402749
0.0614146 	0.82102 	-0.0305829 	0.498442 	0.788107 	-0.00718464 	0.405827
0.0629577 	0.818784 	-0.0289361 	0.496951 	0.791276 	-0.00735891 	0.408313
0.0645009 	0.816748 	-0.0273237 	0.49579 	0.794436 	-0.00750896 	0.410703
0.0648058 	0.816441 	-0.0270214 	0.495716 	0.795056 	-0.00752715 	0.41113
0.0651106 	0.816133 	-0.0267192 	0.495642 	0.795676 	-0.00754534 	0.411557
0.0667609 	0.813135 	-0.0250657 	0.493607 	0.798571 	-0.00767984 	0.413893
0.0684111 	0.810344 	-0.0234575 	0.491972 	0.801439 	-0.00778087 	0.416105
0.0686428 	0.810001 	-0.0232422 	0.491835 	0.801835 	-0.00778727 	0.416387
0.0688745 	0.809658 	-0.023027 	0.491699 	0.802231 	-0.00779366 	0.416668
0.0707107 	0.805874 	-0.0212887 	0.489168 	0.804981 	-0.00789175 	0.418945
0.0725469 	0.802336 	-0.0196091 	0.487093 	0.807679 	-0.00794127 	0.421049
0.0726271 	0.802191 	-0.0195381 	0.487022 	0.807794 	-0.00794143 	0.421134
0.0727073 	0.802047 	-0.0194672 	0.48695 	0.80791 	-0.00794159 	0.421219
0.0741784 	0.798821 	-0.0181413 	0.484854 	0.809784 	-0.00798662 	0.422818
0.0756495 	0.79563 	-0.0168228 	0.482815 	0.81165 	-0.00802395 	0.424391
0.07613 	0.794677 	-0.0164114 	0.4823 	0.812236 	-0.00801598 	0.424836
0.0766105 	0.793725 	-0.0159999 	0.481785 	0.812822 	-0.00800802 	0.425281
0.0785979 	0.789286 	-0.0142751 	0.478958 	0.814966 	-0.00803427 	0.427188
0.0805853 	0.785072 	-0.0125782 	0.476444 	0.817062 	-0.00801291 	0.428941
0.0825244 	0.780797 	-0.0109355 	0.473781 	0.818832 	-0.00801496 	0.430605
0.0844635 	0.776726 	-0.00929346 	0.471341 	0.820577 	-0.00798159 	0.432161
0.0845482 	0.776557 	-0.00922176 	0.471243 	0.820652 	-0.00797867 	0.432224
0.0846329 	0.776387 	-0.00915006 	0.471146 	0.820727 	-0.00797575 	0.432287
0.0861864 	0.773091 	-0.00784755 	0.469167 	0.821948 	-0.00796538 	0.433506
0.0877399 	0.769833 	-0.00654045 	0.46722 	0.823166 	-0.00794989 	0.434709
0.0882474 	0.768867 	-0.0061015 	0.466666 	0.823556 	-0.00793144 	0.435063
0.0887548 	0.767901 	-0.00566254 	0.466111 	0.823946 	-0.007913 	0.435417
0.0908536 	0.763731 	-0.00389764 	0.463733 	0.825402 	-0.00789093 	0.436955
0.0929523 	0.759827 	-0.00206406 	0.461527 	0.826831 	-0.00783991 	0.438412
0.0950896 	0.755988 	-0.000240277 	0.459482 	0.828159 	-0.00781746 	0.439901
0.0972268 	0.752402 	0.001692 	0.457561 	0.829437 	-0.0077714 	0.44133
0.0994033 	0.74905 	0.00359558 	0.455929 	0.83063 	-0.0077568 	0.442787
0.10158 	0.745913 	0.00564716 	0.454363 	0.831745 	-0.00772234 	0.444202
0.103796 	0.743229 	0.00765069 	0.453218 	0.832759 	-0.0077239 	0.445623
0.106012 	0.740703 	0.00983788 	0.45207 	0.833677 	-0.00770747 	0.447016
0.108269 	0.738877 	0.0119591 	0.451473 	0.834456 	-0.00773175 	0.448373
0.110526 	0.737137 	0.0142914 	0.450793 	0.835141 	-0.00773769 	0.449719
0.112825 	0.736351 	0.0165449 	0.450792 	0.835644 	-0.00778886 	0.450981
0.115123 	0.735566 	0.0190238 	0.450614 	0.836075 	-0.00781966 	0.452249
0.1157 	0.735664 	0.0196128 	0.450766 	0.836129 	-0.00783915 	0.45253
0.116276 	0.735761 	0.0202018 	0.450919 	0.836183 	-0.00785865 	0.452811
0.11804 	0.736058 	0.0220049 	0.451385 	0.836348 	-0.00791832 	0.453672
0.119804 	0.736264 	0.0240311 	0.451573 	0.836475 	-0.00795375 	0.454558
0.121894 	0.737716 	0.0262452 	0.452651 	0.836448 	-0.00804735 	0.455457
0.123984 	0.739058 	0.0285746 	0.45351 	0.836417 	-0.00812405 	0.456379
0.124278 	0.739222 	0.0289285 	0.45358 	0.836412 	-0.00813089 	0.456514
0.124571 	0.739385 	0.0292824 	0.45365 	0.836407 	-0.00813772 	0.456648
0.126999 	0.742298 	0.0319204 	0.45544 	0.836192 	-0.00827332 	0.457589
0.129426 	0.744924 	0.0347179 	0.456752 	0.83599 	-0.00837308 	0.458573
0.131897 	0.748997 	0.0374322 	0.459011 	0.835678 	-0.00853964 	0.459478
0.134369 	0.75269 	0.0402454 	0.460711 	0.835384 	-0.0086633 	0.460417
0.136886 	0.757718 	0.0429878 	0.463302 	0.835063 	-0.0088612 	0.461334
0.139403 	0.762287 	0.0457513 	0.465286 	0.834752 	-0.00900829 	0.462268
0.141544 	0.767027 	0.0480143 	0.467587 	0.834529 	-0.00919661 	0.463069
0.143684 	0.771547 	0.0502492 	0.469625 	0.834306 	-0.0093592 	0.463867
0.144107 	0.772335 	0.0506775 	0.469903 	0.834262 	-0.00937916 	0.464023
0.14453 	0.773124 	0.0511058 	0.470182 	0.834218 	-0.00939912 	0.46418
0.14453 	0.773124 	0.0511058 	0.470182 	0.834218 	-0.00939912 	0.46418
0.146662 	0.77797 	0.053246 	0.472416 	0.834069 	-0.00959735 	0.464995
0.148794 	0.782619 	0.0553292 	0.474441 	0.833914 	-0.00976975 	0.465797
0.149272 	0.783533 	0.0557591 	0.47476 	0.833876 	-0.00979166 	0.465968
0.14975 	0.784448 	0.056189 	0.475078 	0.833838 	-0.00981356 	0.466139
0.152408 	0.790187 	0.0586735 	0.47761 	0.833734 	-0.0100553 	0.467136
0.155066 	0.795415 	0.0609119 	0.479667 	0.833598 	-0.0102158 	0.46806
0.157773 	0.800515 	0.0632264 	0.481841 	0.83354 	-0.0104387 	0.46898
0.16048 	0.805191 	0.0652181 	0.48369 	0.833424 	-0.0105718 	0.469797
0.163237 	0.809252 	0.0673509 	0.485386 	0.833361 	-0.0107603 	0.470547
0.165993 	0.813042 	0.0691022 	0.486947 	0.833212 	-0.0108531 	0.471177
0.1688 	0.815762 	0.0710704 	0.488081 	0.833094 	-0.0109929 	0.471695
0.171607 	0.818422 	0.0726172 	0.489291 	0.832865 	-0.0110346 	0.472082
0.174466 	0.819618 	0.0744684 	0.489799 	0.832644 	-0.0111238 	0.472356
0.177324 	0.820997 	0.0758716 	0.490598 	0.832293 	-0.0111136 	0.472489
0.180235 	0.820592 	0.0776598 	0.490432 	0.831909 	-0.0111604 	0.472545
0.183146 	0.820621 	0.0789838 	0.490754 	0.831384 	-0.0111052 	0.472447
0.183146 	0.820621 	0.0789838 	0.490754 	0.831384 	-0.0111052 	0.472447
0.186111 	0.818616 	0.0807561 	0.489878 	0.830779 	-0.0111156 	0.472328
0.189075 	0.817283 	0.0820671 	0.48965 	0.830037 	-0.0110174 	0.472047
0.192094 	0.813746 	0.0838837 	0.488047 	0.829198 	-0.0109936 	0.471798
0.195113 	0.811088 	0.0852435 	0.487206 	0.828252 	-0.010851 	0.471385
0.198187 	0.806149 	0.0871391 	0.484894 	0.827238 	-0.0107832 	0.471043
0.201261 	0.802237 	0.0885969 	0.483404 	0.82615 	-0.0105879 	0.470542
0.204335 	0.796189 	0.0905308 	0.480515 	0.825081 	-0.0104626 	0.470148
0.207409 	0.791169 	0.0921016 	0.478383 	0.823959 	-0.0102145 	0.469619
0.207465 	0.791092 	0.092125 	0.478355 	0.823938 	-0.010208 	0.469608
0.207522 	0.791015 	0.0921485 	0.478327 	0.823917 	-0.0102016 	0.469596
0.209849 	0.785782 	0.0936229 	0.475818 	0.823125 	-0.0100561 	0.469285
0.212176 	0.780617 	0.0950771 	0.473353 	0.822331 	-0.00990247 	0.468968
0.213037 	0.779188 	0.0954711 	0.472754 	0.822012 	-0.00978835 	0.468799
0.213898 	0.777758 	0.095865 	0.472155 	0.821693 	-0.00967423 	0.46863
0.217144 	0.769796 	0.0978899 	0.468405 	0.820647 	-0.00939411 	0.4682
0.22039 	0.762816 	0.0996658 	0.465168 	0.819533 	-0.00899436 	0.467691
0.223696 	0.754275 	0.101636 	0.461331 	0.81852 	-0.00863359 	0.467249
0.227002 	0.746553 	0.103432 	0.457754 	0.817427 	-0.00816646 	0.466763
0.230308 	0.737813 	0.105249 	0.454171 	0.816456 	-0.00773242 	0.466318
0.233614 	0.72964 	0.106971 	0.450541 	0.81541 	-0.00721441 	0.465854
0.233674 	0.729498 	0.107001 	0.450474 	0.815389 	-0.00720361 	0.465845
0.233735 	0.729356 	0.107031 	0.450406 	0.815369 	-0.00719281 	0.465836
0.236238 	0.722756 	0.108253 	0.448122 	0.814661 	-0.0068073 	0.465508
0.238741 	0.716178 	0.109471 	0.445812 	0.813948 	-0.00641755 	0.465179
0.239666 	0.713903 	0.109899 	0.444766 	0.813657 	-0.0062432 	0.465053
0.240592 	0.711628 	0.110326 	0.44372 	0.813366 	-0.00606886 	0.464927
0.244083 	0.702654 	0.111788 	0.441492 	0.81245 	-0.00545202 	0.464493
0.247574 	0.693758 	0.113196 	0.438376 	0.811495 	-0.0047856 	0.464045
0.247574 	0.693758 	0.113196 	0.438376 	0.811495 	-0.0047856 	0.464045
0.251129 	0.685056 	0.114435 	0.43735 	0.810723 	-0.00407386 	0.463629
0.254685 	0.676142 	0.11557 	0.43499 	0.809928 	-0.00332744 	0.463187
0.258305 	0.667889 	0.116564 	0.435414 	0.809356 	-0.0025097 	0.462788
0.261925 	0.659143 	0.117355 	0.43414 	0.808782 	-0.001673 	0.462351
0.265612 	0.651446 	0.118066 	0.436282 	0.808378 	-0.000736792 	0.461975
0.269299 	0.643016 	0.118429 	0.436437 	0.807999 	0.000200966 	0.461551
0.273053 	0.63593 	0.118846 	0.440502 	0.807679 	0.00126215 	0.46122
0.276808 	0.627918 	0.118762 	0.442381 	0.807402 	0.00230772 	0.460825
0.280631 	0.621486 	0.118888 	0.448486 	0.807104 	0.0034893 	0.460563
0.284454 	0.613965 	0.118367 	0.452308 	0.806844 	0.00464613 	0.460209
0.288348 	0.608209 	0.118203 	0.460503 	0.806555 	0.00593987 	0.46002
0.292241 	0.601225 	0.117234 	0.466423 	0.806275 	0.00720731 	0.459711
0.296206 	0.596135 	0.116792 	0.476678 	0.806002 	0.008607 	0.459581
0.300171 	0.589696 	0.115401 	0.48477 	0.805698 	0.00997772 	0.459308
0.304208 	0.585215 	0.114695 	0.496973 	0.805425 	0.0114724 	0.459229
0.308246 	0.579287 	0.112911 	0.507221 	0.805088 	0.0129291 	0.459004
0.312358 	0.575328 	0.11198 	0.521121 	0.804779 	0.014505 	0.45901
0.316469 	0.569845 	0.109891 	0.533348 	0.804385 	0.0160277 	0.458883
0.320656 	0.566333 	0.108793 	0.548558 	0.804003 	0.0176674 	0.459026
0.324843 	0.561239 	0.10653 	0.562406 	0.803524 	0.0192356 	0.459054
0.329107 	0.558146 	0.105292 	0.578442 	0.803039 	0.020915 	0.45936
0.333371 	0.55345 	0.102961 	0.593406 	0.802452 	0.0225095 	0.45957
0.337713 	0.550827 	0.101601 	0.609692 	0.80187 	0.0242038 	0.460023
0.342055 	0.546683 	0.0993102 	0.625147 	0.801185 	0.0258074 	0.460394
0.346476 	0.544901 	0.0979278 	0.640958 	0.800576 	0.0274961 	0.460969
0.350898 	0.541827 	0.0959192 	0.656102 	0.799863 	0.0290945 	0.461474
0.355401 	0.541563 	0.094599 	0.670547 	0.799326 	0.0307614 	0.462164
0.359903 	0.540345 	0.0931162 	0.684414 	0.798687 	0.0323443 	0.462796
0.364489 	0.542437 	0.0918635 	0.696556 	0.798297 	0.0339695 	0.463603
0.369074 	0.544139 	0.0910334 	0.708211 	0.797806 	0.0355194 	0.464368
0.373744 	0.550268 	0.0898383 	0.717162 	0.797586 	0.0370784 	0.465286
0.378413 	0.556754 	0.0898037 	0.725884 	0.797267 	0.0385727 	0.466193
0.378413 	0.556754 	0.0898037 	0.725884 	0.797267 	0.0385727 	0.466193
0.383168 	0.569596 	0.0886423 	0.731305 	0.797225 	0.0400307 	0.467211
0.387923 	0.583165 	0.0893378 	0.736908 	0.797108 	0.041436 	0.468261
0.392765 	0.604878 	0.0881247 	0.739233 	0.797261 	0.042758 	0.469373
0.397608 	0.62671 	0.0890364 	0.742227 	0.797374 	0.044038 	0.470546
0.402539 	0.656415 	0.0874888 	0.742217 	0.797704 	0.0452054 	0.471735
0.40747 	0.684487 	0.0878432 	0.743542 	0.79801 	0.0463386 	0.472988
0.41225 	0.714593 	0.0856273 	0.741684 	0.798449 	0.0472982 	0.474138
0.41703 	0.741839 	0.0846136 	0.741617 	0.798861 	0.0482346 	0.475323
0.417271 	0.743073 	0.0846221 	0.741703 	0.798881 	0.0482807 	0.475384
0.417513 	0.744307 	0.0846305 	0.741788 	0.7989 	0.0483269 	0.475446
0.422626 	0.768635 	0.0814685 	0.738112 	0.799441 	0.0491939 	0.476584
0.42774 	0.789642 	0.0793757 	0.737074 	0.799929 	0.0500377 	0.47774
0.431698 	0.798877 	0.0768041 	0.73387 	0.800366 	0.0506029 	0.478493
0.435655 	0.807877 	0.0743724 	0.731054 	0.800791 	0.0511644 	0.479246
0.436905 	0.810204 	0.0739093 	0.731014 	0.8009 	0.0513336 	0.479483
0.438155 	0.812531 	0.0734462 	0.730974 	0.801008 	0.0515028 	0.479719
0.443458 	0.815727 	0.0702383 	0.72764 	0.80162 	0.0521119 	0.480529
0.448761 	0.818943 	0.067601 	0.725898 	0.80216 	0.0526969 	0.481317
0.453901 	0.819168 	0.0645397 	0.723945 	0.802851 	0.0531027 	0.481944
0.459042 	0.819544 	0.0616872 	0.722792 	0.803496 	0.0534851 	0.482547
0.459302 	0.81957 	0.0615535 	0.722773 	0.803526 	0.0535033 	0.482576
0.459561 	0.819596 	0.0614198 	0.722755 	0.803556 	0.0535215 	0.482605
0.463741 	0.81983 	0.0588404 	0.721855 	0.804231 	0.0536819 	0.483021
0.46792 	0.820054 	0.0562574 	0.721035 	0.804901 	0.0538374 	0.483435
0.46924 	0.820107 	0.0554336 	0.720949 	0.8051 	0.0538757 	0.483559
0.47056 	0.820159 	0.0546098 	0.720862 	0.805299 	0.0539141 	0.483683
0.47616 	0.82063 	0.0510882 	0.71983 	0.806277 	0.0539665 	0.484114
0.48176 	0.820978 	0.0473726 	0.718945 	0.807242 	0.053987 	0.484559
0.487463 	0.821191 	0.043838 	0.717581 	0.808236 	0.0539609 	0.484871
0.493165 	0.821419 	0.0400114 	0.716195 	0.80923 	0.0538974 	0.485238
0.498973 	0.821369 	0.03655 	0.714357 	0.810205 	0.0538388 	0.485478
0.50478 	0.821617 	0.0327489 	0.712468 	0.811177 	0.0537443 	0.485834
0.510694 	0.821462 	0.0294248 	0.710233 	0.812066 	0.0536786 	0.486081
0.516608 	0.821938 	0.0257389 	0.708049 	0.812957 	0.0535736 	0.486479
0.522341 	0.821786 	0.0228038 	0.705646 	0.813648 	0.0535168 	0.48677
0.528074 	0.822399 	0.0195699 	0.703369 	0.814352 	0.0534113 	0.487155
0.528363 	0.822468 	0.0193918 	0.70326 	0.814388 	0.0534035 	0.487179
0.528653 	0.822537 	0.0192136 	0.703151 	0.814424 	0.0533958 	0.487203
0.534786 	0.822453 	0.0165146 	0.700257 	0.814942 	0.053384 	0.487573
0.540918 	0.823476 	0.0135111 	0.697489 	0.81549 	0.0532921 	0.487956
0.545665 	0.823493 	0.0118741 	0.694998 	0.815792 	0.0533704 	0.488307
0.550411 	0.823707 	0.0102036 	0.692494 	0.816104 	0.0534359 	0.488643
0.55191 	0.824202 	0.00960335 	0.691677 	0.816225 	0.0534289 	0.488718
0.553409 	0.824697 	0.00900306 	0.690859 	0.816346 	0.0534219 	0.488792
0.559463 	0.8248 	0.00755115 	0.687659 	0.816828 	0.0536431 	0.489413
0.565517 	0.825812 	0.00605893 	0.684224 	0.817379 	0.0538378 	0.489919
0.565823 	0.825909 	0.00598157 	0.684039 	0.81741 	0.0538464 	0.489939
0.566129 	0.826005 	0.00590421 	0.683854 	0.817442 	0.0538549 	0.489959
0.572605 	0.826247 	0.00491973 	0.680732 	0.818271 	0.0541537 	0.490887
0.579082 	0.827321 	0.00414148 	0.677297 	0.819193 	0.0544696 	0.491704
0.584094 	0.827693 	0.00364573 	0.67502 	0.820092 	0.0546886 	0.492648
0.589107 	0.828139 	0.00322441 	0.672699 	0.821009 	0.0549137 	0.493587
0.59069 	0.828443 	0.00325364 	0.671866 	0.821338 	0.054998 	0.493872
0.592272 	0.828746 	0.00328287 	0.671034 	0.821666 	0.0550824 	0.494157
0.598989 	0.829619 	0.00288009 	0.667992 	0.823081 	0.0553563 	0.49572
0.605705 	0.830554 	0.00303121 	0.664513 	0.824612 	0.0556418 	0.497306
0.612216 	0.831812 	0.00289379 	0.661813 	0.826086 	0.0559025 	0.499017
0.618726 	0.832935 	0.00328241 	0.658479 	0.827656 	0.0561354 	0.500758
0.619055 	0.832985 	0.00332815 	0.658279 	0.827741 	0.0561458 	0.500848
0.619384 	0.833035 	0.0033739 	0.658079 	0.827825 	0.0561562 	0.500937
0.619719 	0.833114 	0.00337606 	0.657967 	0.827905 	0.0561702 	0.501028
0.620053 	0.833192 	0.00337822 	0.657855 	0.827984 	0.0561843 	0.501119
0.626684 	0.834742 	0.00342106 	0.65564 	0.829566 	0.0564629 	0.502919
0.633314 	0.836147 	0.00413689 	0.65254 	0.831262 	0.0566795 	0.504774
0.638022 	0.837227 	0.00425655 	0.651286 	0.83245 	0.0569146 	0.506035
0.64273 	0.838307 	0.00437621 	0.650032 	0.833638 	0.0571496 	0.507295
0.643412 	0.838463 	0.00439354 	0.64985 	0.83381 	0.0571836 	0.507478
0.644094 	0.838623 	0.00451751 	0.649556 	0.834003 	0.0572059 	0.507672
0.645797 	0.839022 	0.00482694 	0.648822 	0.834482 	0.0572613 	0.508155
0.647499 	0.839422 	0.00513638 	0.648088 	0.834962 	0.0573168 	0.508638
0.654722 	0.840773 	0.00543228 	0.646376 	0.836907 	0.0577455 	0.510431
0.661944 	0.842269 	0.00629269 	0.644293 	0.838988 	0.0581188 	0.512279
0.669299 	0.843256 	0.00668271 	0.642612 	0.841103 	0.0586343 	0.513851
0.676655 	0.844369 	0.00756511 	0.64074 	0.843349 	0.0591348 	0.515476
0.683785 	0.845006 	0.00798383 	0.639137 	0.845433 	0.059712 	0.5168
0.690915 	0.845657 	0.00876971 	0.637446 	0.847627 	0.0603116 	0.518181
0.691275 	0.84569 	0.00882763 	0.637356 	0.847743 	0.060343 	0.518254
0.691635 	0.845724 	0.00888555 	0.637266 	0.847859 	0.0603744 	0.518326
0.699262 	0.846165 	0.00933159 	0.635584 	0.849985 	0.0610257 	0.519659
0.70689 	0.846502 	0.0101734 	0.633827 	0.852287 	0.0617223 	0.521064
0.713725 	0.846756 	0.0105449 	0.632373 	0.854075 	0.0622639 	0.522264
0.72056 	0.846898 	0.0111203 	0.630874 	0.855988 	0.062832 	0.52351
0.721492 	0.846893 	0.0112437 	0.63066 	0.856276 	0.0629153 	0.52369
0.722424 	0.846888 	0.0113672 	0.630445 	0.856565 	0.0629987 	0.52387
0.730334 	0.847074 	0.0117429 	0.628865 	0.858543 	0.0635193 	0.525357
0.738244 	0.847024 	0.0124187 	0.627186 	0.860734 	0.0640751 	0.526957
0.744945 	0.847115 	0.0126796 	0.625963 	0.862409 	0.0644055 	0.528338
0.751646 	0.847106 	0.0130426 	0.624692 	0.864166 	0.0647406 	0.52979
0.753 	0.847054 	0.0131668 	0.624411 	0.864562 	0.0648107 	0.530118
0.754354 	0.847002 	0.013291 	0.62413 	0.864958 	0.0648807 	0.530447
0.761572 	0.847033 	0.0135078 	0.622944 	0.866875 	0.0651022 	0.532036
0.76879 	0.84694 	0.013832 	0.621696 	0.868895 	0.0653168 	0.533749
0.769775 	0.8469 	0.0138998 	0.621512 	0.869192 	0.0653446 	0.53401
0.770759 	0.84686 	0.0139677 	0.621327 	0.86949 	0.0653723 	0.534271
0.779112 	0.846807 	0.0141523 	0.620091 	0.871886 	0.0654896 	0.536205
0.787465 	0.846584 	0.0144594 	0.618772 	0.874451 	0.0656006 	0.538353
0.795971 	0.846439 	0.0145871 	0.617629 	0.877021 	0.0656688 	0.540455
0.804478 	0.846154 	0.0147881 	0.61643 	0.879794 	0.0657599 	0.542721
0.812724 	0.845945 	0.0148513 	0.615416 	0.882345 	0.0658646 	0.544933
0.820969 	0.845625 	0.0149488 	0.614371 	0.885089 	0.0660018 	0.54722
0.821386 	0.845603 	0.0149555 	0.614317 	0.885237 	0.0660104 	0.547339
0.821802 	0.845582 	0.0149621 	0.614262 	0.885385 	0.0660189 	0.547458
0.828506 	0.845382 	0.0149572 	0.613505 	0.887357 	0.0661299 	0.549345
0.83521 	0.845159 	0.0149558 	0.612744 	0.889363 	0.0662468 	0.551241
0.837328 	0.845039 	0.0149629 	0.612493 	0.89007 	0.0662966 	0.551862
0.839445 	0.844918 	0.01497 	0.612242 	0.890778 	0.0663463 	0.552484
0.846918 	0.844684 	0.0148965 	0.611463 	0.892689 	0.066399 	0.55452
0.854391 	0.844392 	0.0148246 	0.610673 	0.894657 	0.0664672 	0.556599
0.855901 	0.844305 	0.0148108 	0.610509 	0.895084 	0.0664888 	0.55704
0.857411 	0.844217 	0.0147971 	0.610344 	0.89551 	0.0665104 	0.557482
0.866558 	0.843933 	0.0146248 	0.609455 	0.897419 	0.0663812 	0.559715
0.875706 	0.843518 	0.0144397 	0.608544 	0.899417 	0.0662808 	0.562095
0.885021 	0.843245 	0.0141875 	0.607692 	0.900872 	0.0659113 	0.564013
0.894337 	0.84285 	0.0139066 	0.606821 	0.902394 	0.0655299 	0.566092
0.901547 	0.84266 	0.0136596 	0.606199 	0.903169 	0.0650341 	0.567307
0.908756 	0.842452 	0.0134053 	0.605573 	0.903953 	0.0645275 	0.568549
0.911033 	0.842346 	0.0133092 	0.605369 	0.90422 	0.0643441 	0.569
0.91331 	0.842241 	0.0132131 	0.605164 	0.904486 	0.0641607 	0.569452
0.92297 	0.842027 	0.0128234 	0.604375 	0.905119 	0.06321 	0.570783
0.93263 	0.841717 	0.0123766 	0.603566 	0.905783 	0.0621591 	0.572271
0.940814 	0.841579 	0.0120059 	0.602933 	0.905938 	0.0611633 	0.573208
0.948998 	0.841408 	0.0116066 	0.602291 	0.906095 	0.0601223 	0.5742
0.950652 	0.841356 	0.0115117 	0.602156 	0.906129 	0.0598896 	0.574428
0.952305 	0.841305 	0.0114167 	0.602022 	0.906162 	0.0596568 	0.574655
0.961121 	0.841212 	0.0109837 	0.601376 	0.905947 	0.0584763 	0.57553
0.969937 	0.841082 	0.010505 	0.600715 	0.905731 	0.0572368 	0.576449
0.971139 	0.841056 	0.0104297 	0.600622 	0.905702 	0.0570548 	0.576585
0.972341 	0.84103 	0.0103544 	0.600528 	0.905672 	0.0568728 	0.57672
0.980828 	0.841 	0.00991395 	0.599939 	0.905277 	0.0557061 	0.577462
0.989315 	0.840951 	0.00943807 	0.599337 	0.904891 	0.0545053 	0.578206
0.99103 	0.840932 	0.00932428 	0.59921 	0.904818 	0.0542458 	0.578358
0.992745 	0.840913 	0.00921048 	0.599083 	0.904744 	0.0539862 	0.578509
1.00189 	0.84095 	0.00871949 	0.598479 	0.904305 	0.0527686 	0.579166
1.01103 	0.840971 	0.00817611 	0.597857 	0.903898 	0.0515226 	0.579789
1.01228 	0.840971 	0.00809045 	0.597769 	0.90385 	0.0513465 	0.579866
1.01352 	0.840971 	0.0080048 	0.59768 	0.903802 	0.0511703 	0.579944
1.0241 	0.841097 	0.00742655 	0.597014 	0.903365 	0.0499009 	0.580523
1.03468 	0.841216 	0.00675575 	0.596313 	0.902994 	0.0486143 	0.581012
1.04545 	0.84143 	0.00616494 	0.595664 	0.90261 	0.0475091 	0.581514
1.05623 	0.841655 	0.00548094 	0.594974 	0.902272 	0.0463999 	0.581929
1.0672 	0.841961 	0.00488524 	0.594338 	0.901902 	0.045426 	0.582469
1.07817 	0.842296 	0.00419781 	0.593656 	0.90156 	0.0444503 	0.582948
1.08934 	0.842695 	0.00360518 	0.593029 	0.901176 	0.0435395 	0.583496
1.10051 	0.843139 	0.00292428 	0.59235 	0.900828 	0.0426347 	0.584011
1.10051 	0.843139 	0.00292428 	0.59235 	0.900828 	0.0426347 	0.584011
1.11189 	0.843633 	0.00234318 	0.59173 	0.900448 	0.0417301 	0.584427
1.12327 	0.844188 	0.00167925 	0.591051 	0.900127 	0.0408401 	0.584838
1.13485 	0.844776 	0.00111829 	0.590436 	0.899789 	0.0398843 	0.585018
1.14644 	0.845439 	0.000482012 	0.589755 	0.899516 	0.0389417 	0.58522
1.15824 	0.846118 	-5.09468e-05 	0.589143 	0.89924 	0.0378953 	0.585163
1.17004 	0.846885 	-0.000649557 	0.588459 	0.899012 	0.0368501 	0.585137
1.18205 	0.847649 	-0.00114833 	0.587846 	0.898803 	0.0357228 	0.584925
1.19407 	0.848511 	-0.00170136 	0.587157 	0.89862 	0.0345799 	0.584734
1.2063 	0.849352 	-0.00216133 	0.58654 	0.898473 	0.0334183 	0.584478
1.21854 	0.850299 	-0.00266319 	0.585843 	0.898339 	0.0322287 	0.584229
1.22974 	0.851115 	-0.00303882 	0.585278 	0.898233 	0.0311937 	0.584023
1.24095 	0.852003 	-0.00343351 	0.584659 	0.898134 	0.0301376 	0.583814
1.2422 	0.852114 	-0.00348063 	0.584581 	0.898124 	0.0300162 	0.58379
1.24345 	0.852224 	-0.00352775 	0.584503 	0.898114 	0.0298948 	0.583766
1.25376 	0.853007 	-0.00383063 	0.583981 	0.897999 	0.0289959 	0.583582
1.26407 	0.853829 	-0.00413943 	0.583428 	0.897886 	0.0280868 	0.583392
1.26645 	0.854046 	-0.00421484 	0.583278 	0.897862 	0.0278699 	0.583343
1.26883 	0.854263 	-0.00429026 	0.583128 	0.897838 	0.0276529 	0.583294
1.28045 	0.855169 	-0.00458449 	0.582535 	0.897668 	0.026706 	0.583032
1.29207 	0.856146 	-0.0048821 	0.58188 	0.897495 	0.0257437 	0.582753
1.29337 	0.856267 	-0.00491591 	0.581797 	0.897476 	0.0256336 	0.582719
1.29467 	0.856387 	-0.00494971 	0.581714 	0.897456 	0.0255236 	0.582685
1.30536 	0.85723 	-0.00517989 	0.581164 	0.897277 	0.0246943 	0.58236
1.31605 	0.85811 	-0.00540806 	0.580579 	0.897092 	0.0238572 	0.582027
1.31852 	0.858338 	-0.00545931 	0.580419 	0.897045 	0.0236585 	0.581945
1.32099 	0.858566 	-0.00551056 	0.580259 	0.896999 	0.0234599 	0.581863
1.33439 	0.859619 	-0.00575443 	0.579566 	0.896757 	0.0224542 	0.581346
1.34778 	0.860768 	-0.00598251 	0.578768 	0.896497 	0.0214251 	0.580812
1.35878 	0.861617 	-0.00615128 	0.578196 	0.89628 	0.0206269 	0.580306
1.36977 	0.862494 	-0.00631186 	0.57759 	0.896058 	0.0198214 	0.579793
1.37242 	0.862729 	-0.00634406 	0.577416 	0.896001 	0.0196213 	0.579665
1.37507 	0.862963 	-0.00637627 	0.577242 	0.895944 	0.0194212 	0.579536
1.38767 	0.863908 	-0.00653791 	0.576581 	0.895674 	0.0185425 	0.578881
1.40026 	0.864907 	-0.00667639 	0.575847 	0.895398 	0.0176508 	0.578212
1.40156 	0.865018 	-0.00668753 	0.575761 	0.895369 	0.0175567 	0.578141
1.40286 	0.865128 	-0.00669867 	0.575675 	0.89534 	0.0174626 	0.578069
1.41701 	0.866153 	-0.00684469 	0.574919 	0.895032 	0.0165251 	0.57728
1.43116 	0.867249 	-0.00694785 	0.574053 	0.894719 	0.0155728 	0.576467
1.44412 	0.86815 	-0.00704727 	0.573343 	0.894441 	0.0147651 	0.575707
1.45708 	0.869091 	-0.0071141 	0.572559 	0.894161 	0.0139515 	0.574931
1.45853 	0.869202 	-0.00711648 	0.572461 	0.89413 	0.0138595 	0.574841
1.45998 	0.869314 	-0.00711886 	0.572362 	0.894098 	0.0137676 	0.574751
1.4719 	0.870104 	-0.00717735 	0.571688 	0.893847 	0.0130709 	0.574011
1.48383 	0.870913 	-0.00721668 	0.570976 	0.893593 	0.0123725 	0.573261
1.48658 	0.871112 	-0.00721232 	0.570785 	0.893534 	0.0122101 	0.573081
1.48933 	0.871311 	-0.00720795 	0.570593 	0.893474 	0.0120478 	0.572901
1.50427 	0.872247 	-0.0072451 	0.569728 	0.893176 	0.011236 	0.571918
1.51921 	0.873225 	-0.00722517 	0.568757 	0.892868 	0.0104197 	0.570905
1.53443 	0.874114 	-0.00723316 	0.567864 	0.892603 	0.00967186 	0.569873
1.54965 	0.875035 	-0.00718389 	0.566872 	0.892325 	0.00891829 	0.568808
1.56359 	0.875784 	-0.00717474 	0.566053 	0.892124 	0.00830904 	0.567864
1.57752 	0.876548 	-0.00712874 	0.565174 	0.891914 	0.00769671 	0.566899
1.57908 	0.876635 	-0.00711784 	0.565066 	0.89189 	0.00762776 	0.566787
1.58064 	0.876723 	-0.00710693 	0.564958 	0.891865 	0.0075588 	0.566676
1.59346 	0.87735 	-0.00708597 	0.56421 	0.891709 	0.00706343 	0.565821
1.60628 	0.877981 	-0.00704553 	0.563432 	0.891549 	0.00656741 	0.564955
1.60924 	0.87813 	-0.00702254 	0.563231 	0.891509 	0.00645249 	0.564748
1.6122 	0.878279 	-0.00699955 	0.563029 	0.891469 	0.00633757 	0.564541
1.62827 	0.878986 	-0.00696462 	0.562101 	0.891297 	0.0057845 	0.563487
1.64434 	0.879699 	-0.00687502 	0.56109 	0.891114 	0.00523202 	0.562405
1.6607 	0.880342 	-0.00682524 	0.560154 	0.890955 	0.00473869 	0.561349
1.67707 	0.880986 	-0.00672242 	0.559141 	0.890784 	0.00424747 	0.560266
1.69373 	0.881566 	-0.00666504 	0.558199 	0.890633 	0.00380566 	0.559209
1.7104 	0.882144 	-0.00655721 	0.557186 	0.890469 	0.00336658 	0.558127
1.72737 	0.882666 	-0.006485 	0.556241 	0.890325 	0.00298072 	0.557072
1.74434 	0.883182 	-0.00636523 	0.555229 	0.890168 	0.00259819 	0.555993
1.76162 	0.883648 	-0.00628932 	0.554286 	0.890029 	0.00225558 	0.554947
1.7789 	0.884105 	-0.00616938 	0.553282 	0.889877 	0.00191636 	0.553878
1.7965 	0.88452 	-0.00608058 	0.552343 	0.889745 	0.00162336 	0.552845
1.81409 	0.884924 	-0.00595093 	0.551348 	0.889601 	0.00133423 	0.551791
1.83202 	0.885285 	-0.00586075 	0.550418 	0.889467 	0.0010767 	0.550776
1.84994 	0.885632 	-0.00573345 	0.549437 	0.889322 	0.000823036 	0.549741
1.86819 	0.885942 	-0.00563221 	0.548516 	0.889187 	0.00060786 	0.548745
1.88644 	0.886238 	-0.0054968 	0.54755 	0.88904 	0.000396971 	0.547731
1.90502 	0.886488 	-0.00539449 	0.546643 	0.88889 	0.00021071 	0.546758
1.9236 	0.886723 	-0.0052614 	0.545695 	0.888728 	2.84485e-05 	0.545767