1 1e-10
1.00148 0.0184368
1.00296 0.0368737
1.00447 0.0312633
1.00598 0.0194425
1.00753 0.0176252
1.00907 0.0150174
1.00964 0.0145266
1.0102 0.0140359
1.01121 0.012449
1.01222 0.010862
1.01383 0.0100299
1.01544 0.0084798
1.01709 0.00829803
1.01873 0.00767887
1.01978 0.00753497
1.02083 0.00739107
1.02146 0.00713796
1.02209 0.00688486
1.02381 0.00646941
1.02552 0.00586272
1.02727 0.00576249
1.02902 0.00539884
1.03047 0.00530685
1.03191 0.00521487
1.03226 0.00515033
1.0326 0.00508579
1.03443 0.00479819
1.03625 0.00445599
1.03812 0.00437316
1.03998 0.00410403
1.04173 0.00398657
1.04348 0.0038691
1.04363 0.00384753
1.04379 0.00382596
1.04574 0.00358246
1.04768 0.00332401
1.04967 0.00321061
1.05165 0.00301072
1.0536 0.00284922
1.05556 0.00268772
1.05563 0.0026788
1.05571 0.00266988
1.05778 0.00247405
1.05985 0.00227511
1.06197 0.00210134
1.06409 0.00197461
1.06613 0.00178496
1.06818 0.00159531
1.06829 0.00158535
1.06841 0.0015754
1.07061 0.00145279
1.07282 0.00133422
1.07507 0.00113415
1.07733 0.00106722
1.07936 0.00094234
1.0814 0.000817465
1.08166 0.000805546
1.08193 0.000793627
1.08428 0.000730375
1.08663 0.000683368
1.08903 0.000572533
1.09143 0.000533932
1.09333 0.000490089
1.09524 0.000446246
1.09578 0.000437244
1.09633 0.000428243
1.09883 0.000394304
1.10133 0.000374456
1.10389 0.000334722
1.10644 0.000315905
1.1081 0.000303737
1.10976 0.000291569
1.11071 0.000286267
1.11166 0.000280966
1.11433 0.000266338
1.11699 0.000259418
1.11972 0.000246922
1.12244 0.000239158
1.12372 0.000236479
1.125 0.0002338
1.1265 0.000231263
1.128 0.000228726
1.13084 0.00022328
1.13368 0.000221059
1.13657 0.000217449
1.13947 0.000214573
1.14025 0.00021411
1.14103 0.000213647
1.14321 0.00021251
1.14539 0.000211373
1.14842 0.000209435
1.15144 0.000208651
1.15453 0.000207539
1.15762 0.00020646
1.15776 0.00020643
1.15789 0.0002064
1.16091 0.000205803
1.16392 0.000205206
1.16714 0.000204412
1.17036 0.000203975
1.17302 0.000203596
1.17568 0.000203216
1.17631 0.00020313
1.17694 0.000203043
1.1803 0.000202748
1.18366 0.000202514
1.18709 0.00020216
1.19052 0.000202036
1.19248 0.000201998
1.19444 0.000201959
1.19598 0.000201941
1.19752 0.000201922
1.2011 0.000202061
1.20467 0.000202428
1.20833 0.000202718
1.21198 0.000203219
1.21313 0.000203463
1.21429 0.000203708
1.21686 0.000204289
1.21944 0.000204871
1.22325 0.000205717
1.22706 0.000206806
1.23095 0.000207875
1.23484 0.000208927
1.23507 0.000208974
1.23529 0.000209022
1.23904 0.000209823
1.24278 0.000210624
1.24684 0.000211492
1.2509 0.000212448
1.25424 0.000213219
1.25758 0.00021399
1.25838 0.000214182
1.25918 0.000214373
1.26341 0.000215497
1.26764 0.000216664
1.27197 0.000217828
1.27629 0.00021903
1.27877 0.000219736
1.28125 0.000220441
1.28318 0.000220997
1.28511 0.000221553
1.28962 0.000222866
1.29412 0.000224192
1.29873 0.000225547
1.30333 0.000226934
1.30489 0.000227406
1.30645 0.000227879
1.30959 0.000228852
1.31273 0.000229824
1.31753 0.000231326
1.32233 0.000232899
1.32723 0.000234464
1.33213 0.000236044
1.33273 0.000236243
1.33333 0.000236441
1.33774 0.000237933
1.34214 0.000239425
1.34725 0.000241103
1.35236 0.000242863
1.35722 0.000244484
1.36207 0.000246106
1.36244 0.000246232
1.3628 0.000246357
1.36813 0.000248203
1.37346 0.000250054
1.37891 0.000251894
1.38435 0.000253791
1.3886 0.000255252
1.39286 0.000256714
1.39416 0.000257171
1.39547 0.000257629
1.40115 0.000259628
1.40682 0.000261642
1.41262 0.000263654
1.41842 0.000265711
1.42217 0.000267035
1.42593 0.00026836
1.42809 0.000269138
1.43026 0.000269917
1.43631 0.000272087
1.44236 0.000274281
1.44853 0.000276477
1.45471 0.00027871
1.45812 0.000279943
1.46154 0.000281177
1.46443 0.000282239
1.46732 0.000283301
1.47376 0.000285659
1.4802 0.000288048
1.48678 0.000290439
1.49335 0.000292864
1.49668 0.000294088
1.5 0.000295312
1.50339 0.000296581
1.50679 0.00029785
1.51364 0.000300406
1.5205 0.000302997
1.52751 0.000305594
1.53451 0.000308227
1.53809 0.00030957
1.54167 0.000310913
1.54524 0.000312275
1.54882 0.000313637
1.55612 0.000316411
1.56343 0.000319221
1.57089 0.000322043
1.57835 0.000324908
1.58265 0.000326557
1.58696 0.000328206
1.59027 0.000329494
1.59359 0.000330783
1.60137 0.000333803
1.60915 0.000336857
1.61709 0.000339925
1.62504 0.00034305
1.6307 0.000345265
1.63636 0.00034748
1.63881 0.000348452
1.64127 0.000349424
1.64955 0.00035272
1.65784 0.000356041
1.6663 0.00035938
1.67476 0.000362796
1.68262 0.000365938
1.69048 0.00036908
1.69126 0.000369397
1.69205 0.000369715
1.70087 0.000373327
1.7097 0.000376947
1.71871 0.000380595
1.72772 0.000384343
1.73693 0.000388117
1.74613 0.000391911
1.74806 0.000392715
1.75 0.00039352
1.75746 0.000396661
1.76493 0.000399803
1.77453 0.000403819
1.78412 0.000407912
1.79393 0.00041204
1.80373 0.000416228
1.80976 0.000418789
1.81579 0.00042135
1.81977 0.00042306
1.82375 0.00042477
1.83397 0.000429267
1.8442 0.000433804
1.85464 0.000438182
1.86508 0.00044269
1.87574 0.000447648
1.8864 0.000452619
1.88764 0.000453136
1.88889 0.000453653
1.89853 0.000457713
1.90818 0.000461773
1.91929 0.000467035
1.93041 0.000472431
1.94177 0.000477686
1.95312 0.000483008
1.96186 0.000486691
1.97059 0.000490373
1.97345 0.000491595
1.97632 0.000492817
1.98816 0.000499086
2 0.000505402
