0 	-0.147518
0 	-0.147518
0.000963618 	-0.147525
0.000963618 	-0.147525
0.00192724 	-0.147535
0.00192724 	-0.147535
0.00290853 	-0.147546
0.00290853 	-0.147546
0.00388982 	-0.147563
0.00388982 	-0.147563
0.00488911 	-0.147573
0.00488911 	-0.147573
0.0058884 	-0.147593
0.0058884 	-0.147593
0.00690601 	-0.147607
0.00690601 	-0.147607
0.00792363 	-0.147634
0.00792363 	-0.147634
0.00895991 	-0.147655
0.00999619 	-0.147691
0.0110515 	-0.147717
0.0121068 	-0.147759
0.0131814 	-0.147785
0.0142561 	-0.147824
0.0153504 	-0.147847
0.0164448 	-0.147874
0.0175592 	-0.147892
0.0186736 	-0.147902
0.0198085 	-0.147913
0.0209433 	-0.147909
0.022099 	-0.14791
0.0232547 	-0.147891
0.0244316 	-0.147887
0.0256084 	-0.147849
0.0268069 	-0.147849
0.0280054 	-0.147805
0.0292258 	-0.147819
0.0304462 	-0.147799
0.0316891 	-0.147838
0.0329319 	-0.147854
0.0341975 	-0.147927
0.0354631 	-0.147998
0.036752 	-0.148116
0.0380408 	-0.148262
0.0393533 	-0.148427
0.0406657 	-0.148643
0.0420023 	-0.148856
0.0433388 	-0.149133
0.0446999 	-0.14939
0.0460609 	-0.149716
0.047447 	-0.150011
0.048833 	-0.15038
0.0502444 	-0.150703
0.0516559 	-0.151104
0.0530932 	-0.151446
0.0545305 	-0.151856
0.0559942 	-0.152206
0.0574579 	-0.152606
0.0589484 	-0.152955
0.060439 	-0.153336
0.0619568 	-0.153681
0.0634747 	-0.154041
0.0650204 	-0.154381
0.0665661 	-0.154723
0.0681402 	-0.155055
0.0697143 	-0.155381
0.0713172 	-0.155701
0.0729201 	-0.15602
0.0745524 	-0.156325
0.0761848 	-0.156646
0.077847 	-0.15694
0.0795093 	-0.157273
0.0812021 	-0.157561
0.0828948 	-0.157908
0.0846186 	-0.158193
0.0863424 	-0.15855
0.0880979 	-0.15884
0.0898533 	-0.159203
0.0916409 	-0.159501
0.0934285 	-0.159872
0.0952489 	-0.160182
0.0970693 	-0.160569
0.0989231 	-0.160895
0.100777 	-0.161298
0.102665 	-0.161651
0.104552 	-0.16207
0.106475 	-0.162456
0.108397 	-0.162892
0.110355 	-0.163315
0.112313 	-0.163766
0.114306 	-0.164217
0.1163 	-0.164673
0.11833 	-0.165126
0.12036 	-0.165576
0.122428 	-0.166005
0.124495 	-0.166441
0.1266 	-0.166842
0.128705 	-0.167254
0.128705 	-0.167254
0.130849 	-0.16763
0.132993 	-0.168006
0.135177 	-0.168361
0.13736 	-0.168689
0.139583 	-0.169012
0.141806 	-0.169285
0.14407 	-0.169561
0.146334 	-0.169779
0.14864 	-0.170006
0.150946 	-0.170178
0.153293 	-0.170365
0.155641 	-0.170515
0.158032 	-0.170678
0.160423 	-0.170833
0.162858 	-0.170952
0.165293 	-0.171161
0.167772 	-0.171228
0.170252 	-0.171523
0.172776 	-0.171587
0.175301 	-0.171945
0.177873 	-0.172082
0.180444 	-0.172509
0.183062 	-0.172811
0.185681 	-0.173352
0.188347 	-0.173853
0.191013 	-0.174495
0.193729 	-0.175155
0.196444 	-0.175817
0.199209 	-0.176542
0.201974 	-0.177134
0.20479 	-0.177813
0.207606 	-0.178316
0.210473 	-0.178911
0.213341 	-0.179399
0.216261 	-0.17995
0.219181 	-0.18047
0.222155 	-0.181042
0.225128 	-0.181619
0.228156 	-0.182239
0.231184 	-0.182918
0.234268 	-0.18357
0.237352 	-0.184345
0.240492 	-0.185014
0.243632 	-0.18584
0.24683 	-0.186516
0.250028 	-0.187375
0.253285 	-0.188069
0.256541 	-0.188976
0.259857 	-0.189694
0.263174 	-0.190674
0.266551 	-0.191424
0.269928 	-0.1925
0.273367 	-0.193314
0.276806 	-0.194515
0.280308 	-0.195437
0.28381 	-0.196802
0.287376 	-0.197864
0.290942 	-0.199418
0.294574 	-0.200626
0.298206 	-0.202367
0.301904 	-0.203704
0.305602 	-0.205597
0.309368 	-0.207033
0.313135 	-0.209022
0.31697 	-0.21052
0.320805 	-0.212546
0.324711 	-0.21406
0.328616 	-0.216052
0.332593 	-0.217535
0.336571 	-0.219433
0.340621 	-0.220859
0.344671 	-0.222643
0.348795 	-0.224005
0.35292 	-0.225651
0.35712 	-0.22694
0.36132 	-0.228407
0.365597 	-0.229633
0.369874 	-0.230896
0.37423 	-0.232052
0.378585 	-0.233006
0.383021 	-0.234065
0.387456 	-0.234643
0.387456 	-0.234643
0.391973 	-0.23555
0.39649 	-0.235803
0.401089 	-0.236494
0.405689 	-0.236379
0.410373 	-0.23683
0.415057 	-0.236276
0.419827 	-0.236481
0.424597 	-0.235607
0.429454 	-0.235526
0.434311 	-0.23446
0.439258 	-0.23411
0.444204 	-0.232922
0.449241 	-0.232486
0.454279 	-0.231362
0.459408 	-0.230976
0.464538 	-0.23011
0.469761 	-0.229859
0.474985 	-0.229492
0.480305 	-0.229563
0.485624 	-0.229792
0.491041 	-0.230217
0.496458 	-0.230948
0.501975 	-0.23155
0.507491 	-0.232789
0.513109 	-0.233562
0.518726 	-0.235385
0.524447 	-0.236505
0.530167 	-0.238642
0.535993 	-0.240002
0.541818 	-0.241787
0.547751 	-0.243013
0.553683 	-0.243995
0.559724 	-0.244706
0.565765 	-0.244858
0.571917 	-0.24482
0.578069 	-0.244316
0.584334 	-0.243656
0.590599 	-0.242563
0.596979 	-0.241498
0.603358 	-0.240021
0.609855 	-0.238911
0.616352 	-0.237585
0.622968 	-0.236869
0.629583 	-0.236384
0.636321 	-0.236622
0.643058 	-0.237484
0.649919 	-0.238551
0.656779 	-0.240173
0.663766 	-0.241009
0.670753 	-0.242045
0.677867 	-0.241992
0.684982 	-0.24151
0.692227 	-0.24075
0.699473 	-0.239314
0.706851 	-0.238723
0.714229 	-0.237848
0.721742 	-0.23803
0.729256 	-0.238129
0.736907 	-0.238702
0.744558 	-0.23913
0.75235 	-0.239736
0.760142 	-0.240107
0.760142 	-0.240107
0.768076 	-0.240663
0.776011 	-0.240831
0.784091 	-0.24089
0.792171 	-0.240168
0.800399 	-0.238979
0.808627 	-0.237133
0.817006 	-0.235048
0.825385 	-0.233424
0.833918 	-0.232049
0.842451 	-0.231816
0.85114 	-0.23202
0.85983 	-0.233139
0.868678 	-0.234221
0.877527 	-0.235388
0.886538 	-0.236053
0.895549 	-0.236436
0.904725 	-0.236641
0.913901 	-0.236617
0.923246 	-0.236728
0.93259 	-0.236453
0.942106 	-0.235908
0.951622 	-0.234941
0.961313 	-0.233324
0.971003 	-0.231842
0.980872 	-0.230168
0.99074 	-0.228872
1.00079 	-0.227829
1.01084 	-0.226862
1.02107 	-0.226194
1.03131 	-0.225307
1.04173 	-0.224477
1.05215 	-0.223308
1.06276 	-0.222151
1.07337 	-0.220824
1.08418 	-0.219766
1.09499 	-0.218699
1.10599 	-0.218145
1.117 	-0.217777
1.1282 	-0.21805
1.13941 	-0.218743
1.15082 	-0.220238
1.16224 	-0.222431
1.17386 	-0.225108
1.18548 	-0.228617
1.19731 	-0.231301
1.20915 	-0.234654
1.2212 	-0.236149
1.23325 	-0.238255
1.24553 	-0.237603
1.2578 	-0.237936
1.2703 	-0.233081
1.2828 	-0.229826
1.29552 	-0.218192
1.30825 	-0.208141
1.32121 	-0.196563
1.33417 	-0.185805
1.34737 	-0.181802
1.36057 	-0.176904
1.37401 	-0.175382
1.38745 	-0.171842
1.40114 	-0.169793
1.41483 	-0.166125
1.41483 	-0.166125
1.42557 	-0.163518
1.42877 	-0.165265
1.43631 	-0.160911
1.4427 	-0.163485
1.45044 	-0.161562
1.46457 	-0.162213
1.47896 	-0.160231
1.49335 	-0.158249
1.50007 	-0.15737
1.50679 	-0.156473
1.51021 	-0.155904
1.51363 	-0.155352
1.51706 	-0.155328
1.5205 	-0.155274
1.52751 	-0.15498
1.53451 	-0.154668
1.53463 	-0.15466
1.53474 	-0.154652
1.54178 	-0.154168
1.54882 	-0.153684
1.55279 	-0.15331
1.55676 	-0.152967
1.56009 	-0.15276
1.56343 	-0.152546
1.57089 	-0.151889
1.57835 	-0.151272
1.57904 	-0.151196
1.57973 	-0.151126
1.58666 	-0.150481
1.59359 	-0.149865
1.59866 	-0.14931
1.60373 	-0.14879
1.60644 	-0.148535
1.60915 	-0.14889
1.60915 	-0.148287
1.61013 	-0.148769
1.61111 	-0.14866
1.61709 	-0.14744
1.62504 	-0.147215
1.62504 	-0.146654
1.6307 	-0.146559
1.63636 	-0.14595
1.63881 	-0.145695
1.64127 	-0.145448
1.64955 	-0.144484
1.65784 	-0.14358
1.66031 	-0.143274
1.66279 	-0.142988
1.66878 	-0.142304
1.67476 	-0.141654
1.68262 	-0.14072
1.69048 	-0.139843
1.69126 	-0.139756
1.69205 	-0.139672
1.70087 	-0.138639
1.7097 	-0.137652
1.7146 	-0.13706
1.71951 	-0.136489
1.72362 	-0.13601
1.72772 	-0.135544
1.73693 	-0.134417
1.74613 	-0.133348
1.74806 	-0.133106
1.75 	-0.132881
1.75746 	-0.132015
1.76493 	-0.131218
1.77349 	-0.130274
1.78205 	-0.129402
1.78309 	-0.129291
1.78412 	-0.129179
1.79393 	-0.128103
1.80373 	-0.126994
1.80976 	-0.126295
1.81579 	-0.125571
1.81977 	-0.125075
1.82375 	-0.124579
1.83397 	-0.123269
1.8442 	-0.121986
1.84777 	-0.121527
1.85135 	-0.121083
1.85821 	-0.120273
1.86508 	-0.119523
1.87574 	-0.118354
1.8864 	-0.117287
1.88764 	-0.117159
1.88889 	-0.11704
1.89853 	-0.116151
1.90818 	-0.115268
1.91837 	-0.114334
1.92857 	-0.113381
1.92949 	-0.113289
1.93041 	-0.113194
1.94177 	-0.112001
1.95312 	-0.110781
1.96186 	-0.109861
1.97059 	-0.108941
1.97345 	-0.108623
1.97632 	-0.108319
1.98816 	-0.10703
2 	-0.105819
2 	-0.105819
2.00444 	-0.105381
2.00888 	-0.104943
