0 	-0.273072
0.00128482 	-0.273087
0.00256965 	-0.273102
0.00387803 	-0.273106
0.00518642 	-0.27311
0.00651881 	-0.273094
0.00785119 	-0.273077
0.00920802 	-0.27306
0.0105648 	-0.273043
0.0119465 	-0.272991
0.0133283 	-0.272939
0.0147353 	-0.272808
0.0161424 	-0.272676
0.0175752 	-0.272427
0.0190081 	-0.272178
0.0204672 	-0.271797
0.0219263 	-0.271417
0.0234122 	-0.270924
0.0248981 	-0.270431
0.0264113 	-0.269861
0.0279244 	-0.269291
0.0294653 	-0.268681
0.0310063 	-0.268071
0.0325754 	-0.267455
0.0341446 	-0.26684
0.0357425 	-0.266252
0.0373405 	-0.265663
0.0389677 	-0.265127
0.040595 	-0.26459
0.0422521 	-0.264121
0.0439092 	-0.263652
0.0455967 	-0.263273
0.0472842 	-0.262894
0.0490026 	-0.262609
0.0507211 	-0.262323
0.052471 	-0.262114
0.054221 	-0.261906
0.056003 	-0.261778
0.0577851 	-0.26165
0.0595998 	-0.26161
0.0614146 	-0.261571
0.0632626 	-0.261624
0.0651106 	-0.261676
0.0669925 	-0.261818
0.0688745 	-0.26196
0.0707909 	-0.26219
0.0727073 	-0.26242
0.0746589 	-0.262741
0.0766105 	-0.263063
0.0785979 	-0.263479
0.0805853 	-0.263894
0.0826091 	-0.26441
0.0846329 	-0.264926
0.0866939 	-0.265549
0.0887548 	-0.266173
0.0908536 	-0.266913
0.0929523 	-0.267654
0.0950896 	-0.268522
0.0972268 	-0.26939
0.0994033 	-0.270394
0.10158 	-0.271399
0.134369 	-0.293221
0.136886 	-0.295372
0.139403 	-0.297523
0.141967 	-0.299812
0.14453 	-0.302102
0.14714 	-0.304493
0.14975 	-0.306885
0.152408 	-0.309403
0.155066 	-0.31192
0.157773 	-0.314508
0.16048 	-0.317096
0.163237 	-0.319636
0.165993 	-0.322176
0.1688 	-0.324568
0.171607 	-0.32696
0.174466 	-0.329136
0.177324 	-0.331312
0.180235 	-0.333301
0.183146 	-0.335289
0.186111 	-0.337182
0.189075 	-0.339075
0.192094 	-0.340885
0.195113 	-0.342695
0.198187 	-0.344339
0.201261 	-0.345984
0.204391 	-0.347365
0.207522 	-0.348746
0.21071 	-0.349807
0.213898 	-0.350869
0.217144 	-0.351613
0.22039 	-0.352357
0.223696 	-0.352842
0.227002 	-0.353326
0.230369 	-0.353623
0.233735 	-0.353919
0.237164 	-0.354086
0.240592 	-0.354253
0.244083 	-0.354414
0.247574 	-0.354574
0.251129 	-0.354872
0.254685 	-0.355169
0.258305 	-0.355746
0.261925 	-0.356323
0.265612 	-0.357218
0.269299 	-0.358113
0.273053 	-0.359287
0.276808 	-0.360462
0.280631 	-0.362187
0.284454 	-0.363912
0.288348 	-0.366565
0.292241 	-0.369219
0.296206 	-0.372671
0.300171 	-0.376124
0.304208 	-0.379695
0.308246 	-0.383265
0.312358 	-0.386263
0.316469 	-0.389261
0.320656 	-0.391185
0.324843 	-0.393109
0.329107 	-0.393486
0.333371 	-0.393863
0.337713 	-0.392271
0.342055 	-0.390679
0.346476 	-0.386958
0.350898 	-0.383236
0.355401 	-0.377949
0.359903 	-0.372661
0.364489 	-0.366926
0.369074 	-0.36119
0.373744 	-0.355824
0.378413 	-0.350457
0.383168 	-0.345898
0.387923 	-0.341338
0.392765 	-0.33787
0.397608 	-0.334402
0.402539 	-0.332071
0.40747 	-0.32974
0.412491 	-0.32852
0.417513 	-0.327299
0.417513 	-0.327299
0.422626 	-0.326985
0.422626 	-0.326985
0.42774 	-0.326671
0.42774 	-0.326671
0.432948 	-0.326859
0.432948 	-0.326859
0.438155 	-0.327046
0.438155 	-0.327046
0.443458 	-0.327184
0.448761 	-0.327321
0.454161 	-0.326995
0.459561 	-0.32667
0.46506 	-0.325849
0.47056 	-0.325027
0.47616 	-0.323486
0.48176 	-0.321944
0.487463 	-0.319526
0.493165 	-0.317108
0.498973 	-0.314055
0.50478 	-0.311003
0.50478 	-0.311003
0.510694 	-0.307389
0.510694 	-0.307389
0.516608 	-0.303776
0.516608 	-0.303776
0.52263 	-0.299737
0.528653 	-0.295699
0.534786 	-0.291684
0.540918 	-0.28767
0.547164 	-0.284021
0.553409 	-0.280372
0.559769 	-0.277313
0.566129 	-0.274255
0.572605 	-0.271988
0.579082 	-0.26972
0.585677 	-0.26818
0.592272 	-0.26664
0.598989 	-0.265342
0.605705 	-0.264044
0.612544 	-0.262228
0.619384 	-0.260411
0.626349 	-0.256959
0.633314 	-0.253506
0.640406 	-0.248558
0.647499 	-0.243611
0.654722 	-0.240558
0.661944 	-0.237506
0.669299 	-0.241394
0.676655 	-0.245282
0.684145 	-0.261883
0.691635 	-0.278484
0.699262 	-0.31318
0.70689 	-0.347876
0.714657 	-0.390909
0.722424 	-0.433943
0.730334 	-0.452108
0.738244 	-0.470272
0.746299 	-0.448276
0.754354 	-0.42628
0.762556 	-0.390761
0.770759 	-0.355241
0.779112 	-0.331054
0.787465 	-0.306867
0.795971 	-0.291983
0.804478 	-0.2771
0.81314 	-0.265321
0.821802 	-0.253542
0.830623 	-0.247113
0.839445 	-0.240685
0.848428 	-0.242663
0.857411 	-0.244641
0.866558 	-0.256176
0.875706 	-0.267711
0.885021 	-0.287219
0.894337 	-0.306728
0.903823 	-0.327834
0.91331 	-0.348941
0.92297 	-0.363026
0.93263 	-0.377112
0.942468 	-0.379338
0.952305 	-0.381564
0.962323 	-0.37269
0.972341 	-0.363816
0.982543 	-0.348796
0.992745 	-0.333777
1.00313 	-0.318597
1.01352 	-0.303418
1.0241 	-0.292102
1.03468 	-0.280786
1.04545 	-0.273945
1.05623 	-0.267104
1.0672 	-0.263042
1.07817 	-0.25898
1.08934 	-0.256429
1.10051 	-0.253877
1.11189 	-0.252114
1.12327 	-0.25035
1.13485 	-0.248931
1.14644 	-0.247511
1.15824 	-0.246232
1.17004 	-0.244953
1.18205 	-0.243681
1.19407 	-0.24241
1.2063 	-0.240865
1.21854 	-0.23932
1.23099 	-0.237257
1.24345 	-0.235194
1.25614 	-0.232529
1.26883 	-0.229863
1.28175 	-0.226708
1.29467 	-0.223554
1.30783 	-0.220134
1.32099 	-0.216715
1.33439 	-0.213087
1.34778 	-0.209459
1.34778 	-0.209459
1.36143 	-0.205693
1.37507 	-0.201927
1.38897 	-0.198113
1.40286 	-0.194299
1.41701 	-0.190473
1.43116 	-0.186646
1.44557 	-0.182861
1.45998 	-0.179076
1.47466 	-0.175372
1.48933 	-0.171669
1.50427 	-0.168084
1.51921 	-0.164498
1.53443 	-0.161051
1.54965 	-0.157605
1.56514 	-0.154309
1.58064 	-0.151012
1.59642 	-0.147871
1.6122 	-0.14473
1.62827 	-0.141743
1.64434 	-0.138756
1.6607 	-0.135919
1.67707 	-0.133081
1.69373 	-0.130389
1.7104 	-0.127696
1.72737 	-0.125139
1.74434 	-0.122582
1.76162 	-0.120156
1.7789 	-0.11773
1.7965 	-0.115425
1.81409 	-0.113119
1.83202 	-0.11093
1.84994 	-0.10874
1.86819 	-0.106658
1.88644 	-0.104576
1.90502 	-0.102595
1.9236 	-0.100614
1.94253 	-0.0987315
1.96146 	-0.096849
1.98073 	-0.095113
2 	-0.0933769
