0 1e-10
0.00128482 0.00556081
0.00256965 0.0111216
0.00387803 0.010723
0.00518642 0.0103244
0.00651881 0.00971605
0.00785119 0.00910768
0.00920802 0.0083421
0.0105648 0.00757651
0.0119465 0.00679721
0.0133283 0.00601791
0.0147353 0.00535387
0.0161424 0.00468983
0.0175752 0.00419048
0.0190081 0.00369113
0.0204672 0.00334519
0.0219263 0.00299925
0.0234122 0.00275948
0.0248981 0.00251971
0.0264113 0.00235452
0.0279244 0.00218932
0.0294653 0.00208466
0.0310063 0.00198
0.0325754 0.0019178
0.0341446 0.00185559
0.0357425 0.00181952
0.0373405 0.00178346
0.0389677 0.0017613
0.040595 0.00173914
0.0422521 0.00171579
0.0439092 0.00169243
0.0455967 0.00165413
0.0472842 0.00161582
0.0490026 0.00155937
0.0507211 0.00150292
0.052471 0.00143532
0.054221 0.00136772
0.056003 0.00130065
0.0577851 0.00123359
0.0595998 0.00117449
0.0614146 0.00111539
0.0632626 0.00106941
0.0651106 0.00102344
0.0669925 0.000995445
0.0688745 0.000967452
0.0707909 0.000960515
0.0727073 0.000953579
0.0746589 0.000978112
0.0766105 0.00100265
0.0785979 0.00107112
0.0805853 0.0011396
0.0826091 0.00126286
0.0846329 0.00138612
0.0866939 0.00154391
0.0887548 0.00170171
0.0908536 0.0018403
0.0929523 0.0019789
0.0950896 0.00207403
0.0972268 0.00216917
0.0994033 0.00220123
0.10158 0.0022333
0.103796 0.00219459
0.106012 0.00215589
0.108269 0.00208105
0.110526 0.0020062
0.112825 0.00191448
0.115123 0.00182276
0.117464 0.00171299
0.119804 0.00160322
0.122188 0.00148484
0.124571 0.00136647
0.126999 0.00125265
0.129426 0.00113884
0.131897 0.00103539
0.134369 0.000931943
0.136886 0.000841162
0.139403 0.000750381
0.141967 0.000672441
0.14453 0.0005945
0.14714 0.000529104
0.14975 0.000463707
0.152408 0.00041016
0.155066 0.000356614
0.157773 0.000314073
0.16048 0.000271532
0.163237 0.000239172
0.165993 0.000206813
0.1688 0.000183649
0.171607 0.000160485
0.174466 0.000144681
0.177324 0.000128877
0.180235 0.000118147
0.183146 0.000107417
0.186111 9.99188e-05
0.189075 9.24205e-05
0.192094 8.68126e-05
0.195113 8.12047e-05
0.198187 7.67516e-05
0.201261 7.22984e-05
0.204391 6.86789e-05
0.207522 6.50593e-05
0.21071 6.20675e-05
0.213898 5.90756e-05
0.217144 5.65682e-05
0.22039 5.40607e-05
0.223696 5.19678e-05
0.227002 4.9875e-05
0.230369 4.81473e-05
0.233735 4.64197e-05
0.237164 4.50101e-05
0.240592 4.36006e-05
0.244083 4.24649e-05
0.247574 4.13292e-05
0.251129 4.04292e-05
0.254685 3.95291e-05
0.258305 3.883e-05
0.261925 3.81308e-05
0.265612 3.75988e-05
0.269299 3.70668e-05
0.273053 3.66682e-05
0.276808 3.62696e-05
0.280631 3.59719e-05
0.284454 3.56742e-05
0.288348 3.5452e-05
0.292241 3.52299e-05
0.296206 3.5066e-05
0.300171 3.49022e-05
0.304208 3.47797e-05
0.308246 3.46572e-05
0.312358 3.45688e-05
0.316469 3.44804e-05
0.320656 3.44286e-05
0.324843 3.43769e-05
0.329107 3.43597e-05
0.333371 3.43426e-05
0.337713 3.43535e-05
0.342055 3.43643e-05
0.346476 3.43968e-05
0.350898 3.44292e-05
0.355401 3.44797e-05
0.359903 3.45302e-05
0.364489 3.45946e-05
0.369074 3.46589e-05
0.373744 3.4732e-05
0.378413 3.4805e-05
0.383168 3.48861e-05
0.387923 3.49671e-05
0.392765 3.50594e-05
0.397608 3.51518e-05
0.402539 3.52584e-05
0.40747 3.53649e-05
0.417513 3.56059e-05
0.42774 3.58681e-05
0.438155 3.61471e-05
0.448761 3.64433e-05
0.459561 3.67589e-05
0.46506 3.69262e-05
0.47056 3.70934e-05
0.47616 3.72683e-05
0.48176 3.74433e-05
0.487463 3.76236e-05
0.493165 3.78039e-05
0.498973 3.79874e-05
0.50478 3.81709e-05
0.510694 3.83563e-05
0.516608 3.85416e-05
0.52263 3.87295e-05
0.528653 3.89173e-05
0.534786 3.911e-05
0.540918 3.93027e-05
0.547164 3.95017e-05
0.553409 3.97007e-05
0.559769 3.9906e-05
0.566129 4.01114e-05
0.572605 4.0322e-05
0.579082 4.05325e-05
0.585677 4.07472e-05
0.592272 4.09619e-05
0.598989 4.11801e-05
0.605705 4.13982e-05
0.612544 4.1619e-05
0.619384 4.18398e-05
0.626349 4.20622e-05
0.633314 4.22847e-05
0.640406 4.25083e-05
0.647499 4.2732e-05
0.654722 4.29576e-05
0.661944 4.31832e-05
0.669299 4.34116e-05
0.676655 4.364e-05
0.684145 4.38728e-05
0.691635 4.41056e-05
0.699262 4.43442e-05
0.70689 4.45828e-05
0.722424 4.50729e-05
0.738244 4.55773e-05
0.754354 4.60934e-05
0.770759 4.66176e-05
0.787465 4.7147e-05
0.804478 4.76772e-05
0.821802 4.82105e-05
0.830623 4.84815e-05
0.839445 4.87525e-05
0.848428 4.90276e-05
0.857411 4.93027e-05
0.866558 4.95813e-05
0.875706 4.986e-05
0.885021 5.01426e-05
0.894337 5.04253e-05
0.903823 5.07111e-05
0.91331 5.09968e-05
0.92297 5.12849e-05
0.93263 5.15731e-05
0.952305 5.21576e-05
0.972341 5.2749e-05
0.992745 5.33422e-05
1.01352 5.39422e-05
1.03468 5.45559e-05
1.05623 5.51813e-05
1.07817 5.58154e-05
1.10051 5.64591e-05
1.12327 5.71179e-05
1.14644 5.77965e-05
1.17004 5.84931e-05
1.19407 5.92049e-05
1.21854 5.99254e-05
1.24345 6.06456e-05
1.26883 6.13639e-05
1.29467 6.20832e-05
1.32099 6.27966e-05
1.34778 6.35017e-05
1.37507 6.42227e-05
1.40286 6.49895e-05
1.43116 6.57863e-05
1.45998 6.65741e-05
1.48933 6.73499e-05
1.51921 6.81508e-05
1.54965 6.8969e-05
1.58064 6.97938e-05
1.6122 7.06297e-05
1.64434 7.14755e-05
1.67707 7.23273e-05
1.7104 7.31903e-05
1.74434 7.40987e-05
1.7789 7.50571e-05
1.81409 7.5961e-05
1.84994 7.66774e-05
1.88644 7.72216e-05
1.9236 7.76373e-05
1.96146 7.81398e-05
2 7.72465e-05
