0 1e-10
0.000963618 0.00164307
0.00192724 0.00351132
0.00290853 0.00315612
0.00388982 0.00302366
0.00488911 0.0026176
0.0058884 0.00226033
0.00690601 0.00201811
0.00792363 0.00168229
0.00895991 0.00158465
0.00999619 0.00133674
0.0110515 0.00129766
0.0121068 0.00114319
0.0131814 0.00112384
0.0142561 0.00103937
0.0153504 0.00102284
0.0164448 0.000973066
0.0175592 0.000955572
0.0186736 0.000916782
0.0198085 0.000899837
0.0209433 0.000870848
0.022099 0.000858623
0.0232547 0.000840949
0.0244316 0.000834283
0.0256084 0.000825463
0.0268069 0.000822402
0.0280054 0.00081885
0.0292258 0.000817553
0.0304462 0.000815439
0.0316891 0.000813775
0.0329319 0.000810544
0.0341975 0.000807652
0.0354631 0.000802964
0.036752 0.000799492
0.0380408 0.000794349
0.0393533 0.000792037
0.0406657 0.000788445
0.0420023 0.00078899
0.0433388 0.000788586
0.0446999 0.000793353
0.0460609 0.000797104
0.047447 0.000805682
0.048833 0.000812865
0.0502444 0.000823316
0.0516559 0.000831881
0.0530932 0.000843425
0.0545305 0.000852874
0.0559942 0.000865438
0.0574579 0.000876233
0.0589484 0.000889826
0.060439 0.000902156
0.0619568 0.000916502
0.0634747 0.00093062
0.0650204 0.000944768
0.0665661 0.000960626
0.0681402 0.000973767
0.0697143 0.000990546
0.0713172 0.0010021
0.0729201 0.00101673
0.0745524 0.00102613
0.0761848 0.00103622
0.077847 0.0010437
0.0795093 0.00105002
0.0812021 0.00105579
0.0828948 0.00105965
0.0846186 0.00106329
0.0863424 0.00106584
0.0880979 0.00106642
0.0898533 0.00106809
0.0916409 0.00106486
0.0934285 0.00106556
0.0952489 0.00105853
0.0970693 0.00105751
0.0989231 0.00104763
0.100777 0.00104438
0.102665 0.00103372
0.104552 0.00102959
0.106475 0.00102037
0.108397 0.0010193
0.110355 0.00101295
0.112313 0.0010184
0.114306 0.00101495
0.1163 0.00102423
0.11833 0.00102489
0.12036 0.00103578
0.122428 0.00104242
0.124495 0.00104855
0.1266 0.00106365
0.128705 0.00105194
0.130849 0.00108323
0.132993 0.00106374
0.135177 0.00111352
0.13736 0.00110882
0.139583 0.00117208
0.141806 0.00119735
0.14407 0.00127325
0.146334 0.00134303
0.14864 0.00141035
0.150946 0.00152266
0.153293 0.00153729
0.155641 0.00164207
0.158032 0.00160123
0.160423 0.00163144
0.162858 0.00155606
0.165293 0.00149672
0.167772 0.00141466
0.170252 0.0013008
0.172776 0.00125799
0.175301 0.0011656
0.177873 0.0011765
0.180444 0.00114983
0.183062 0.00120007
0.185681 0.00122476
0.188347 0.00128516
0.191013 0.00134398
0.193729 0.00138234
0.196444 0.00143223
0.199209 0.00144718
0.201974 0.00146049
0.20479 0.00147339
0.207606 0.00147316
0.210473 0.00148825
0.213341 0.00149936
0.216261 0.00150927
0.219181 0.00153612
0.222155 0.00152793
0.225128 0.00155206
0.228156 0.00152016
0.231184 0.00152199
0.234268 0.00147492
0.237352 0.00144863
0.240492 0.00140417
0.243632 0.00135061
0.24683 0.00132407
0.250028 0.0012676
0.253285 0.00125977
0.256541 0.00122964
0.259857 0.00123526
0.263174 0.00123419
0.266551 0.00125012
0.269928 0.00127091
0.273367 0.00129222
0.276806 0.00135099
0.280308 0.00131999
0.28381 0.0014022
0.287376 0.00129167
0.290942 0.00131181
0.294574 0.00115036
0.298206 0.00105113
0.301904 0.000901372
0.305602 0.00070341
0.309368 0.000612456
0.313135 0.000405265
0.31697 0.000359986
0.320805 0.000222845
0.324711 0.000200693
0.328616 0.000137364
0.332593 0.000126451
0.336571 9.82653e-05
0.340621 9.212e-05
0.344671 7.94664e-05
0.348795 7.52857e-05
0.35292 6.88851e-05
0.35712 6.56353e-05
0.36132 6.15384e-05
0.365597 5.88602e-05
0.369874 5.57459e-05
0.37423 5.35194e-05
0.378585 5.09245e-05
0.383021 4.91104e-05
0.387456 4.69587e-05
0.391973 4.5474e-05
0.39649 4.38169e-05
0.401089 4.24721e-05
0.405689 4.11867e-05
0.410373 3.99707e-05
0.415057 3.86215e-05
0.419827 3.76578e-05
0.424597 3.6039e-05
0.429454 3.53313e-05
0.434311 3.38878e-05
0.439258 3.33917e-05
0.444204 3.2393e-05
0.449241 3.20603e-05
0.454279 3.14103e-05
0.459408 3.11876e-05
0.464538 3.07898e-05
0.469761 3.06386e-05
0.474985 3.03939e-05
0.480305 3.02951e-05
0.485624 3.01454e-05
0.491041 3.00967e-05
0.496458 3.001e-05
0.501975 3.0009e-05
0.507491 2.99714e-05
0.513109 3.00155e-05
0.518726 3.00184e-05
0.524447 3.01265e-05
0.530167 3.01698e-05
0.535993 3.03536e-05
0.541818 3.04601e-05
0.547751 3.06883e-05
0.553683 3.08722e-05
0.559724 3.11059e-05
0.565765 3.1339e-05
0.571917 3.156e-05
0.578069 3.18056e-05
0.584334 3.20114e-05
0.590599 3.22473e-05
0.596979 3.24472e-05
0.603358 3.26696e-05
0.609855 3.28679e-05
0.616352 3.30835e-05
0.622968 3.32844e-05
0.629583 3.34939e-05
0.636321 3.37057e-05
0.643058 3.3914e-05
0.649919 3.41409e-05
0.656779 3.43588e-05
0.663766 3.45942e-05
0.670753 3.48251e-05
0.677867 3.50658e-05
0.684982 3.5304e-05
0.692227 3.5546e-05
0.699473 3.57894e-05
0.706851 3.60295e-05
0.714229 3.62742e-05
0.721742 3.65135e-05
0.729256 3.67574e-05
0.736907 3.69976e-05
0.744558 3.72401e-05
0.75235 3.74828e-05
0.760142 3.77266e-05
0.768076 3.79727e-05
0.776011 3.8219e-05
0.784091 3.84676e-05
0.792171 3.87162e-05
0.800399 3.89678e-05
0.808627 3.9219e-05
0.817006 3.94727e-05
0.825385 3.97269e-05
0.833918 3.99801e-05
0.842451 4.02356e-05
0.85114 4.04899e-05
0.85983 4.07461e-05
0.868678 4.10039e-05
0.877527 4.12624e-05
0.886538 4.15246e-05
0.895549 4.17868e-05
0.904725 4.20508e-05
0.913901 4.23149e-05
0.923246 4.2581e-05
0.93259 4.2848e-05
0.942106 4.31141e-05
0.951622 4.3381e-05
0.961313 4.36477e-05
0.971003 4.39141e-05
0.980872 4.41823e-05
0.99074 4.44503e-05
1.00079 4.47177e-05
1.01084 4.49828e-05
1.02107 4.52604e-05
1.03131 4.55411e-05
1.04173 4.58045e-05
1.05215 4.60652e-05
1.06276 4.63567e-05
1.07337 4.66485e-05
1.08418 4.69129e-05
1.09499 4.7181e-05
1.10599 4.74732e-05
1.117 4.77587e-05
1.1282 4.80457e-05
1.13941 4.83373e-05
1.15082 4.86223e-05
1.16224 4.89088e-05
1.17386 4.92024e-05
1.18548 4.94916e-05
1.19731 4.97915e-05
1.20915 5.00894e-05
1.2212 5.03874e-05
1.23325 5.06852e-05
1.24553 5.09866e-05
1.2578 5.12857e-05
1.2703 5.15921e-05
1.2828 5.18957e-05
1.29552 5.22076e-05
1.30825 5.25169e-05
1.32121 5.28327e-05
1.33417 5.31467e-05
1.34737 5.34662e-05
1.36057 5.37842e-05
1.37401 5.41091e-05
1.38745 5.44318e-05
1.40114 5.47639e-05
1.41483 5.50934e-05
1.42877 5.5431e-05
1.4427 5.57668e-05
1.4569 5.61673e-05
1.47109 5.65667e-05
1.48555 5.68243e-05
1.5 5.70806e-05
1.50339 5.71596e-05
1.50679 5.72387e-05
1.5136 5.73985e-05
1.52041 5.75583e-05
1.52046 5.75593e-05
1.5205 5.75603e-05
1.52751 5.77137e-05
1.53451 5.78671e-05
1.53809 5.79456e-05
1.54167 5.80241e-05
1.54524 5.81012e-05
1.54882 5.81782e-05
1.55612 5.8337e-05
1.56343 5.84957e-05
1.56363 5.85001e-05
1.56383 5.85045e-05
1.57109 5.86665e-05
1.57835 5.88285e-05
1.58265 5.89254e-05
1.58696 5.90222e-05
1.59027 5.90982e-05
1.59359 5.91741e-05
1.60137 5.93531e-05
1.60915 5.95319e-05
1.61013 5.95545e-05
1.61111 5.95771e-05
1.61807 5.974e-05
1.62504 5.99029e-05
1.6307 6.00367e-05
1.63636 6.01706e-05
1.63881 6.02293e-05
1.64127 6.02881e-05
1.64955 6.04887e-05
1.65784 6.06887e-05
1.66031 6.0749e-05
1.66279 6.08093e-05
1.66878 6.0957e-05
1.67476 6.11048e-05
1.68262 6.13006e-05
1.69048 6.14964e-05
1.69126 6.15162e-05
1.69205 6.1536e-05
1.70087 6.1759e-05
1.7097 6.19817e-05
1.7146 6.21058e-05
1.71951 6.223e-05
1.72362 6.23352e-05
1.72772 6.24403e-05
1.73693 6.26763e-05
1.74613 6.29117e-05
1.74806 6.29614e-05
1.75 6.30111e-05
1.75746 6.32049e-05
1.76493 6.33987e-05
1.77349 6.36232e-05
1.78205 6.38476e-05
1.78309 6.3875e-05
1.78412 6.39025e-05
1.79393 6.41639e-05
1.80373 6.44251e-05
1.80976 6.45879e-05
1.81579 6.47507e-05
1.81977 6.48591e-05
1.82375 6.49675e-05
1.83397 6.52472e-05
1.8442 6.55255e-05
1.84777 6.56217e-05
1.85135 6.57178e-05
1.85821 6.59049e-05
1.86508 6.60919e-05
1.87574 6.63782e-05
1.8864 6.66641e-05
1.88764 6.66978e-05
1.88889 6.67314e-05
1.89853 6.69937e-05
1.90818 6.7256e-05
1.91837 6.75387e-05
1.92857 6.78213e-05
1.92949 6.7847e-05
1.93041 6.78727e-05
1.94177 6.81866e-05
1.95312 6.85014e-05
1.96186 6.88163e-05
1.97059 6.91312e-05
1.97345 6.92354e-05
1.97632 6.93395e-05
1.98816 6.96468e-05
2 6.99427e-05
