0 1e-10
0.000963618 0.000119527
0.00192724 0.000221003
0.00290853 0.000267991
0.00388982 0.000306551
0.00488911 0.000320015
0.0058884 0.000328214
0.00690601 0.000323841
0.00792363 0.000317713
0.00895991 0.000304903
0.00999619 0.000294273
0.0110515 0.000278989
0.0121068 0.00026899
0.0131814 0.000255659
0.0142561 0.000248332
0.0153504 0.000239501
0.0164448 0.00023531
0.0175592 0.000231522
0.0186736 0.000230804
0.0198085 0.000231981
0.0209433 0.000235303
0.022099 0.000241874
0.0232547 0.000250097
0.0244316 0.000262844
0.0256084 0.000276576
0.0268069 0.000294202
0.0280054 0.00031173
0.0292258 0.000329083
0.0304462 0.000346311
0.0316891 0.000358476
0.0329319 0.000371638
0.0341975 0.000376512
0.0354631 0.000383262
0.036752 0.000381606
0.0380408 0.000382099
0.0393533 0.000376732
0.0406657 0.000373799
0.0420023 0.000366577
0.0433388 0.000362436
0.0446999 0.000354427
0.0460609 0.000349791
0.047447 0.000342026
0.048833 0.000337148
0.0502444 0.000330294
0.0516559 0.000325423
0.0530932 0.000319714
0.0545305 0.000315133
0.0559942 0.000310667
0.0574579 0.000306501
0.0589484 0.000303145
0.060439 0.000299352
0.0619568 0.000296864
0.0634747 0.000293295
0.0650204 0.000291649
0.0665661 0.000288253
0.0681402 0.000287439
0.0697143 0.000284295
0.0713172 0.000284105
0.0729201 0.000281382
0.0745524 0.000281767
0.0761848 0.000279658
0.077847 0.000280675
0.0795093 0.000279369
0.0812021 0.000280895
0.0828948 0.000280512
0.0846186 0.00028245
0.0863424 0.000283052
0.0880979 0.000285442
0.0898533 0.000287323
0.0916409 0.000290377
0.0934285 0.000293989
0.0952489 0.000297907
0.0970693 0.000303653
0.0989231 0.000308535
0.100777 0.000316972
0.102665 0.000323087
0.104552 0.000336145
0.106475 0.000344164
0.108397 0.000363175
0.110355 0.000373422
0.112313 0.00039568
0.114306 0.000407847
0.1163 0.000429357
0.11833 0.000442294
0.12036 0.000459963
0.122428 0.000473093
0.124495 0.000485375
0.1266 0.000497485
0.128705 0.000502806
0.130849 0.000510314
0.132993 0.000507418
0.135177 0.000509109
0.13736 0.000499564
0.139583 0.000496161
0.141806 0.000481702
0.14407 0.000473867
0.146334 0.00045748
0.14864 0.000446849
0.150946 0.00043267
0.153293 0.000421667
0.155641 0.000413312
0.158032 0.000404255
0.160423 0.00040454
0.162858 0.000399199
0.165293 0.000411601
0.167772 0.000411661
0.170252 0.000437969
0.172776 0.00044371
0.175301 0.000480052
0.177873 0.000490822
0.180444 0.000530972
0.183062 0.000546852
0.185681 0.000588112
0.188347 0.000609488
0.191013 0.00065363
0.193729 0.000682942
0.196444 0.000730877
0.199209 0.00077019
0.201974 0.000818075
0.20479 0.000863461
0.207606 0.000902896
0.210473 0.000948592
0.213341 0.00097421
0.216261 0.00101602
0.219181 0.00102958
0.222155 0.00106304
0.225128 0.00106829
0.228156 0.00109146
0.231184 0.00109009
0.234268 0.00110542
0.237352 0.00109839
0.240492 0.00110954
0.243632 0.00109871
0.24683 0.00110791
0.250028 0.00109562
0.253285 0.00110395
0.256541 0.00109176
0.259857 0.00109923
0.263174 0.00108659
0.266551 0.00109084
0.269928 0.00107391
0.273367 0.00106778
0.276806 0.00103923
0.280308 0.0010121
0.28381 0.000969726
0.287376 0.000917107
0.290942 0.000866544
0.294574 0.000797479
0.298206 0.000747929
0.301904 0.000680711
0.305602 0.00063929
0.309368 0.000589625
0.313135 0.00056058
0.31697 0.000532274
0.320805 0.000516
0.324711 0.000509103
0.328616 0.000506859
0.332593 0.000518272
0.336571 0.000530127
0.340621 0.000554553
0.344671 0.000577335
0.348795 0.000613246
0.35292 0.00064797
0.35712 0.000693114
0.36132 0.000740134
0.365597 0.00079257
0.369874 0.000846848
0.37423 0.000898645
0.378585 0.000949215
0.383021 0.000987195
0.387456 0.00102364
0.391973 0.00104109
0.39649 0.00106062
0.401089 0.00105915
0.405689 0.00106459
0.410373 0.00104175
0.415057 0.00103201
0.419827 0.000983023
0.424597 0.000950032
0.429454 0.000877239
0.434311 0.000810995
0.439258 0.000728833
0.444204 0.000641692
0.449241 0.000580154
0.454279 0.000513694
0.459408 0.000491062
0.464538 0.00046469
0.469761 0.000468992
0.474985 0.000469249
0.480305 0.000476889
0.485624 0.000486524
0.491041 0.000477432
0.496458 0.000475594
0.501975 0.000449877
0.507491 0.000423213
0.513109 0.000406796
0.518726 0.00038078
0.524447 0.000390347
0.530167 0.000396855
0.535993 0.000444691
0.541818 0.000505559
0.547751 0.000603495
0.553683 0.000712482
0.559724 0.000804456
0.565765 0.000887875
0.571917 0.00089604
0.578069 0.00091922
0.584334 0.000880769
0.590599 0.000884367
0.596979 0.000863859
0.603358 0.000878971
0.609855 0.000866
0.616352 0.000886068
0.622968 0.000846397
0.629583 0.000828986
0.636321 0.000762665
0.643058 0.000671809
0.649919 0.000621578
0.656779 0.000509573
0.663766 0.000488167
0.670753 0.000419481
0.677867 0.000403495
0.684982 0.000370109
0.692227 0.00036913
0.699473 0.000373328
0.706851 0.000409683
0.714229 0.000471971
0.721742 0.000560854
0.729256 0.000701352
0.736907 0.000880116
0.744558 0.00106776
0.75235 0.00129133
0.760142 0.00143944
0.768076 0.00158511
0.776011 0.00166985
0.784091 0.00166111
0.792171 0.00162805
0.800399 0.00148353
0.808627 0.00131049
0.817006 0.0011438
0.825385 0.000978799
0.833918 0.000884319
0.842451 0.00081338
0.85114 0.000773558
0.85983 0.000744018
0.868678 0.000734565
0.877527 0.000724808
0.886538 0.000766384
0.895549 0.000826806
0.904725 0.00093541
0.913901 0.00107037
0.923246 0.00116067
0.93259 0.00124656
0.942106 0.00121069
0.951622 0.00116407
0.961313 0.00104697
0.971003 0.000927209
0.980872 0.000864541
0.99074 0.000810664
1.00079 0.000840171
1.01084 0.000891148
1.02107 0.000999533
1.03131 0.00116793
1.04173 0.00133492
1.05215 0.00153916
1.06276 0.00174641
1.07337 0.00199573
1.08418 0.00232293
1.09499 0.00255743
1.10599 0.00268135
1.117 0.00265676
1.1282 0.00254099
1.13941 0.00247354
1.15082 0.00241183
1.16224 0.00243594
1.17386 0.0024272
1.18548 0.00240074
1.19731 0.00230491
1.20915 0.00211596
1.2212 0.00191314
1.23325 0.00167297
1.24553 0.00149386
1.2578 0.00132886
1.2703 0.00121249
1.2828 0.00106927
1.29552 0.000879952
1.30825 0.000666412
1.32121 0.00044091
1.33417 0.000275941
1.34737 0.00016796
1.36057 0.000106629
1.37401 7.31587e-05
1.38745 5.36066e-05
1.40114 4.32937e-05
1.41483 3.71857e-05
1.42877 3.40543e-05
1.4427 3.21878e-05
1.4569 3.12659e-05
1.47109 3.07166e-05
1.48555 3.04649e-05
1.5 3.03239e-05
1.50339 3.03108e-05
1.50679 3.0319e-05
1.5136 3.03405e-05
1.52041 3.03924e-05
1.52046 3.03927e-05
1.5205 3.03932e-05
1.52751 3.04685e-05
1.53451 3.05436e-05
1.53809 3.05879e-05
1.54167 3.06288e-05
1.54524 3.06758e-05
1.54882 3.07274e-05
1.55612 3.08381e-05
1.56343 3.09568e-05
1.56363 3.09601e-05
1.56383 3.09636e-05
1.57109 3.10842e-05
1.57835 3.12099e-05
1.58265 3.12872e-05
1.58696 3.13671e-05
1.59027 3.14272e-05
1.59359 3.14893e-05
1.60137 3.16394e-05
1.60915 3.17938e-05
1.61013 3.18138e-05
1.61111 3.18342e-05
1.61807 3.19771e-05
1.62504 3.21231e-05
1.6307 3.22453e-05
1.63636 3.23701e-05
1.63881 3.24235e-05
1.64127 3.24779e-05
1.64955 3.26655e-05
1.65784 3.28571e-05
1.66031 3.29153e-05
1.66279 3.29744e-05
1.66878 3.31161e-05
1.67476 3.32594e-05
1.68262 3.34512e-05
1.69048 3.36447e-05
1.69126 3.3664e-05
1.69205 3.36833e-05
1.70087 3.39042e-05
1.7097 3.41268e-05
1.7146 3.42524e-05
1.71951 3.43787e-05
1.72362 3.44839e-05
1.72772 3.45895e-05
1.73693 3.48293e-05
1.74613 3.50706e-05
1.74806 3.51222e-05
1.75 3.5174e-05
1.75746 3.53737e-05
1.76493 3.55744e-05
1.77349 3.58069e-05
1.78205 3.60405e-05
1.78309 3.60689e-05
1.78412 3.60974e-05
1.79393 3.63734e-05
1.80373 3.66511e-05
1.80976 3.682e-05
1.81579 3.69896e-05
1.81977 3.7103e-05
1.82375 3.7217e-05
1.83397 3.75221e-05
1.8442 3.78294e-05
1.84777 3.79322e-05
1.85135 3.80357e-05
1.85821 3.82369e-05
1.86508 3.84391e-05
1.87574 3.87675e-05
1.8864 3.90973e-05
1.88764 3.91365e-05
1.88889 3.9176e-05
1.89853 3.94867e-05
1.90818 3.97991e-05
1.91837 4.01102e-05
1.92857 4.04216e-05
1.92949 4.04501e-05
1.93041 4.04787e-05
1.94177 4.0876e-05
1.95312 4.12749e-05
1.96186 4.1558e-05
1.97059 4.1842e-05
1.97345 4.19362e-05
1.97632 4.20306e-05
1.98816 4.2443e-05
2 4.28561e-05
