0 1e-10
0.00128482 0.000729848
0.00256965 0.0014597
0.00387803 0.00158452
0.00518642 0.00170935
0.00651881 0.00183875
0.00785119 0.00196815
0.00920802 0.00207026
0.0105648 0.00217237
0.0119465 0.00223385
0.0133283 0.00229533
0.0147353 0.00234196
0.0161424 0.00238859
0.0175752 0.00244653
0.0190081 0.00250447
0.0204672 0.00258003
0.0219263 0.0026556
0.0234122 0.00274122
0.0248981 0.00282683
0.0264113 0.00290221
0.0279244 0.00297758
0.0294653 0.0030218
0.0310063 0.00306603
0.0325754 0.00306339
0.0341446 0.00306076
0.0357425 0.00299115
0.0373405 0.00292154
0.0389677 0.00277979
0.040595 0.00263804
0.0422521 0.00244704
0.0439092 0.00225604
0.0455967 0.0020676
0.0472842 0.00187916
0.0490026 0.00176353
0.0507211 0.0016479
0.052471 0.00163571
0.054221 0.00162352
0.056003 0.00171179
0.0577851 0.00180005
0.0595998 0.00195422
0.0614146 0.00210839
0.0632626 0.00222555
0.0651106 0.00234272
0.0669925 0.00235363
0.0688745 0.00236453
0.0707909 0.00225666
0.0727073 0.00214878
0.0746589 0.00195319
0.0766105 0.00175761
0.0785979 0.00156914
0.0805853 0.00138066
0.0846329 0.0011283
0.0887548 0.000991461
0.0929523 0.000935359
0.0972268 0.000924689
0.10158 0.000945589
0.103796 0.000969767
0.106012 0.000993944
0.108269 0.00103091
0.110526 0.00106787
0.112825 0.00111594
0.115123 0.00116402
0.117464 0.00122622
0.119804 0.00128843
0.124571 0.00144448
0.129426 0.00162551
0.134369 0.00182828
0.139403 0.002052
0.14453 0.0022889
0.14975 0.00250194
0.155066 0.00263142
0.16048 0.00263176
0.163237 0.00257335
0.165993 0.00251494
0.1688 0.0024177
0.171607 0.00232047
0.174466 0.00221908
0.177324 0.00211769
0.180235 0.00203998
0.183146 0.00196228
0.186111 0.00193352
0.189075 0.00190476
0.192094 0.00193753
0.195113 0.0019703
0.198187 0.0020497
0.201261 0.0021291
0.204391 0.00223795
0.207522 0.0023468
0.21071 0.00244997
0.213898 0.00255314
0.22039 0.00266498
0.220757 0.00266587
0.227002 0.00268107
0.233362 0.00272046
0.233735 0.00272278
0.240592 0.00293506
0.247574 0.003371
0.254685 0.00388068
0.261925 0.00426787
0.269299 0.00465679
0.276808 0.00509524
0.284454 0.00521461
0.292241 0.00466063
0.300171 0.00354587
0.308246 0.00259668
0.316469 0.00224086
0.324843 0.00231081
0.329107 0.0024362
0.333371 0.00256159
0.337713 0.00266371
0.342055 0.00276584
0.346476 0.00279231
0.350898 0.00281877
0.355401 0.00279379
0.359903 0.00276882
0.364489 0.00271383
0.369074 0.00265884
0.373744 0.00258797
0.378413 0.0025171
0.387923 0.00236467
0.397608 0.00217662
0.40747 0.00194465
0.417513 0.00171569
0.42774 0.0015853
0.438155 0.00155151
0.443458 0.00154649
0.448761 0.00154148
0.454161 0.00153859
0.459561 0.0015357
0.46506 0.00155329
0.47056 0.00157089
0.47616 0.00163305
0.48176 0.00169521
0.487463 0.00176863
0.493165 0.00184205
0.498973 0.00187953
0.50478 0.00191701
0.510694 0.00191856
0.516608 0.00192011
0.528653 0.00188939
0.540918 0.00183969
0.553409 0.00174726
0.559769 0.00168594
0.566129 0.00162462
0.572605 0.00157266
0.579082 0.00152069
0.585677 0.00149919
0.592272 0.0014777
0.605705 0.00152089
0.619384 0.00172741
0.626349 0.00186967
0.633314 0.00201193
0.640406 0.00206139
0.647499 0.00211086
0.654722 0.00202259
0.661944 0.00193433
0.669299 0.00176003
0.676655 0.00158572
0.691635 0.00129467
0.699262 0.00123887
0.70689 0.00118307
0.714657 0.00118897
0.722424 0.00119486
0.730334 0.00124877
0.738244 0.00130267
0.746299 0.00147903
0.754354 0.00165539
0.770759 0.00214684
0.779112 0.00234703
0.787465 0.00254723
0.795971 0.0027709
0.804478 0.00299457
0.81314 0.00334227
0.821802 0.00368996
0.830623 0.00400726
0.839445 0.00432456
0.848428 0.00426952
0.857411 0.00421448
0.866558 0.0039178
0.875706 0.00362112
0.885021 0.00333197
0.894337 0.00304281
0.903823 0.00293766
0.91331 0.00283252
0.92297 0.00294411
0.93263 0.00305571
0.942468 0.00317131
0.952305 0.00328691
0.962323 0.00336796
0.972341 0.00344901
0.982543 0.00346943
0.992745 0.00348985
1.00313 0.0033147
1.01352 0.00313954
1.0241 0.00279749
1.03468 0.00245544
1.05623 0.00182462
1.0672 0.00164127
1.07817 0.00145792
1.08934 0.00139292
1.10051 0.00132792
1.11189 0.00136644
1.12327 0.00140497
1.13485 0.00159313
1.14644 0.0017813
1.15824 0.00220136
1.17004 0.00262142
1.18205 0.00285902
1.19407 0.00309662
1.2063 0.00282072
1.21854 0.00254481
1.23099 0.00218639
1.24345 0.00182796
1.25614 0.0016433
1.26883 0.00145863
1.28175 0.00137333
1.29467 0.00128804
1.30783 0.00123715
1.32099 0.00118627
1.33439 0.00111561
1.34778 0.00104496
1.37507 0.000764425
1.38897 0.000591018
1.40286 0.00041761
1.41701 0.00029807
1.43116 0.000178531
1.44557 0.00012961
1.45998 8.06894e-05
1.47466 6.5577e-05
1.48933 5.04646e-05
1.50427 4.54355e-05
1.51921 4.04064e-05
1.53443 3.8254e-05
1.54965 3.61016e-05
1.58064 3.40356e-05
1.6122 3.31434e-05
1.64434 3.28318e-05
1.67707 3.28744e-05
1.69373 3.30944e-05
1.7104 3.33144e-05
1.72737 3.36695e-05
1.74434 3.40247e-05
1.76162 3.4372e-05
1.7789 3.47193e-05
1.7965 3.51005e-05
1.81409 3.54817e-05
1.83202 3.59641e-05
1.84994 3.64466e-05
1.88644 3.73803e-05
1.9236 3.82805e-05
1.96146 3.92886e-05
2 4.03664e-05
