0 1e-10
0.00128482 0.00106397
0.00256965 0.00208313
0.00387803 0.00200858
0.00518642 0.00194237
0.00651881 0.00198572
0.00785119 0.00204415
0.00920802 0.00230764
0.0105648 0.00260203
0.0119465 0.00325206
0.0133283 0.00396115
0.0147353 0.00509598
0.0161424 0.0063129
0.0175752 0.00777502
0.0190081 0.00930847
0.0204672 0.0106483
0.0219263 0.0120016
0.0234122 0.012811
0.0248981 0.0135612
0.0264113 0.0136172
0.0279244 0.0135679
0.0294653 0.0129586
0.0310063 0.0122415
0.0325754 0.0113551
0.0341446 0.0104095
0.0357425 0.00954642
0.0373405 0.00868208
0.0389677 0.00802365
0.040595 0.00739693
0.0422521 0.00695418
0.0439092 0.00655406
0.0455967 0.0062131
0.0472842 0.0059022
0.0490026 0.00557232
0.0507211 0.00525218
0.052471 0.00488038
0.054221 0.00450562
0.056003 0.00409235
0.0577851 0.00367067
0.0595998 0.003246
0.0614146 0.00281201
0.0632626 0.00241883
0.0651106 0.002019
0.0669925 0.00169768
0.0688745 0.00137451
0.0707909 0.00114865
0.0727073 0.000925358
0.0746589 0.000792057
0.0766105 0.000663379
0.0785979 0.000592774
0.0805853 0.000525809
0.0826091 0.00048693
0.0846329 0.000450231
0.0866939 0.000431095
0.0887548 0.00041392
0.0908536 0.000408341
0.0929523 0.000404645
0.0950896 0.000407509
0.0972268 0.000412057
0.0994033 0.000420259
0.10158 0.000429975
0.103796 0.000441989
0.106012 0.000455394
0.108269 0.000470224
0.110526 0.000486366
0.112825 0.000503083
0.115123 0.000521035
0.117464 0.000538871
0.119804 0.000557837
0.122188 0.000575959
0.124571 0.000595069
0.126999 0.00061275
0.129426 0.000631249
0.131897 0.000647768
0.134369 0.00066493
0.136886 0.00067972
0.139403 0.000694961
0.141967 0.000707388
0.14453 0.000720035
0.14714 0.000729806
0.14975 0.000739559
0.152408 0.00074667
0.155066 0.000753539
0.157773 0.000758064
0.16048 0.000762183
0.163237 0.00076434
0.165993 0.000765969
0.1688 0.000765674
0.171607 0.000764738
0.174466 0.000762147
0.177324 0.000758844
0.180235 0.000754252
0.183146 0.000748897
0.186111 0.000742448
0.189075 0.000735217
0.192094 0.000727329
0.195113 0.000718685
0.198187 0.000709963
0.201261 0.000700544
0.204391 0.000691327
0.207522 0.000681496
0.21071 0.000672215
0.213898 0.000662441
0.217144 0.000653884
0.22039 0.000644979
0.223696 0.000637705
0.227002 0.000630258
0.230369 0.00062408
0.233735 0.000617894
0.237164 0.000612109
0.240592 0.000606392
0.240786 0.000606048
0.240981 0.000605704
0.244277 0.00060009
0.247574 0.000594475
0.251129 0.00058891
0.254685 0.000583252
0.258305 0.000580365
0.261925 0.000577259
0.265612 0.000580989
0.269299 0.000584595
0.273053 0.000604729
0.276808 0.000625554
0.280631 0.000692338
0.284454 0.000763056
0.288348 0.000956325
0.292241 0.00116376
0.296206 0.00160535
0.300171 0.00208192
0.304208 0.00268302
0.308246 0.00332009
0.312358 0.00391164
0.316469 0.00450916
0.320656 0.00495513
0.324843 0.00537
0.329107 0.00552436
0.333371 0.00563128
0.337713 0.005401
0.342055 0.00512963
0.346476 0.00449293
0.350898 0.00383036
0.355401 0.00315827
0.359903 0.0024892
0.364489 0.00209974
0.369074 0.0017249
0.373744 0.00155395
0.378413 0.00139005
0.383168 0.00136022
0.387923 0.00133546
0.392765 0.0014292
0.397608 0.00152958
0.402539 0.00163557
0.40747 0.0017472
0.412491 0.00174017
0.417513 0.0017334
0.422626 0.00165148
0.42774 0.00156579
0.432948 0.00150045
0.438155 0.00143148
0.443458 0.00141879
0.448761 0.00140475
0.454161 0.00142564
0.459561 0.00144708
0.46506 0.00147494
0.47056 0.00150419
0.47616 0.00151754
0.48176 0.00153169
0.487463 0.00152501
0.493165 0.00151841
0.498973 0.00150501
0.50478 0.0014927
0.510694 0.00148909
0.516608 0.00148827
0.52263 0.00149885
0.528653 0.00151224
0.534786 0.0015398
0.540918 0.00157019
0.541266 0.00157139
0.541614 0.00157259
0.547512 0.00162783
0.553409 0.00168306
0.559769 0.00177215
0.566129 0.00186656
0.572605 0.00200489
0.579082 0.00215045
0.579449 0.00215713
0.579817 0.00216381
0.586045 0.00234852
0.592272 0.00253322
0.598989 0.00273987
0.605705 0.00295331
0.612544 0.00315149
0.619384 0.00335347
0.626349 0.00351212
0.633314 0.00367073
0.640406 0.00374909
0.647499 0.00382542
0.654722 0.00383067
0.661944 0.00383546
0.669299 0.00381279
0.676655 0.00379215
0.684145 0.00376817
0.691635 0.00374861
0.699262 0.00372751
0.70689 0.00371186
0.714657 0.00368443
0.722424 0.00366125
0.730334 0.00362502
0.738244 0.00359094
0.746299 0.00354413
0.754354 0.00349657
0.762556 0.00343659
0.770759 0.00337296
0.779112 0.00328765
0.787465 0.00319584
0.795971 0.00304333
0.804478 0.00287942
0.81314 0.00267918
0.821802 0.00246656
0.830623 0.00231642
0.839445 0.00216115
0.839945 0.00215664
0.840446 0.00215213
0.848928 0.00208021
0.857411 0.0020083
0.866558 0.0019533
0.875706 0.0018972
0.885021 0.00184946
0.894337 0.00179943
0.903823 0.00178052
0.91331 0.00176112
0.92297 0.0017631
0.93263 0.00176438
0.942468 0.00178276
0.952305 0.00180027
0.962323 0.00185002
0.972341 0.00190078
0.982543 0.00197092
0.992745 0.00204286
1.00313 0.00213094
1.01352 0.0022198
1.0241 0.00232211
1.03468 0.00242252
1.04545 0.00249001
1.05623 0.00255244
1.05684 0.00255535
1.05745 0.00255826
1.06781 0.00255767
1.07817 0.00255707
1.08934 0.00251825
1.10051 0.00247399
1.10115 0.00247188
1.10178 0.00246977
1.11252 0.00240147
1.12327 0.00233317
1.13485 0.00225107
1.14644 0.00216793
1.15824 0.00210397
1.17004 0.00204242
1.18205 0.00199756
1.19407 0.00195763
1.2063 0.00188327
1.21854 0.00181379
1.21923 0.00180466
1.21992 0.00179552
1.23169 0.0016751
1.24345 0.00155467
1.25614 0.00140057
1.26883 0.00124904
1.28175 0.0011168
1.29467 0.000986387
1.30783 0.00086823
1.32099 0.000750626
1.33439 0.000652465
1.34778 0.000552298
1.36143 0.000495635
1.37507 0.000437011
1.38897 0.000394535
1.40286 0.000351008
1.41701 0.000295366
1.43116 0.000237438
1.44557 0.000184108
1.45998 0.000127729
1.47466 9.90023e-05
1.48933 6.84898e-05
1.50427 5.84525e-05
1.51921 4.78443e-05
1.53443 4.44345e-05
1.54965 4.0892e-05
1.55051 4.08191e-05
1.55137 4.07461e-05
1.56601 3.92081e-05
1.58064 3.76701e-05
1.59642 3.67799e-05
1.6122 3.58718e-05
1.62827 3.5386e-05
1.64434 3.48902e-05
1.6607 3.46686e-05
1.67707 3.44419e-05
1.69373 3.43958e-05
1.7104 3.43467e-05
1.72737 3.44358e-05
1.74434 3.45231e-05
1.76162 3.47023e-05
1.7789 3.48815e-05
1.7965 3.51137e-05
1.81409 3.53461e-05
1.83202 3.56285e-05
1.84994 3.59111e-05
1.86819 3.62335e-05
1.88644 3.65564e-05
1.90502 3.69019e-05
1.9236 3.72479e-05
1.94253 3.76044e-05
1.96146 3.79617e-05
1.98073 3.81871e-05
2 3.84142e-05
