# kMean  POINT_DATA 63140
# x  y  z  kMean
0 0.1 0 0.00375
0 0.1 -0.0179898 0.00375
0 0.1 0.0179898 0.00375
0.0363518 0.1 0.0179898 0.00374751
0.0363518 0.1 -0.0179898 0.00374744
0 0.1 -0.0570102 0.00375
0 0.1 0.0570102 0.00375
0.0363518 0.1 0.0570102 0.00374751
0.0363518 0.1 -0.0570102 0.00374744
0 0.1 -0.075 0.00375
0 0.1 0.075 0.00375
0.075776 0.1 -0.0375 0.00374441
0.075776 0.1 0.0375 0.00374454
0 0.1 -0.0929898 0.00375
0 0.1 0.0929898 0.00375
0.0363518 0.1 -0.0929898 0.00374753
0.0363518 0.1 0.0929898 0.00374771
0 0.1 -0.13201 0.00375
0 0.1 0.13201 0.00375
0.075776 0.1 -0.1125 0.00374459
0.075776 0.1 0.1125 0.00374495
0.0363518 0.1 -0.13201 0.00374753
0.0363518 0.1 0.13201 0.00374771
0 0.1 -0.15 0.00375
0 0.1 0.15 0.00375
0.150379 0.1 -2.22623e-17 0.00373762
0 0.1 -0.16799 0.00375
0 0.1 0.16799 0.00375
0.150379 0.1 -0.075 0.003738
0.150379 0.1 0.075 0.0037379
0.0363518 0.1 -0.16799 0.00374779
0.0363518 0.1 0.16799 0.00374804
0.075776 0.1 -0.1875 0.00374512
0.075776 0.1 0.1875 0.00374564
0 0.1 -0.20701 0.00375
0 0.1 0.20701 0.00375
0.0363518 0.1 -0.20701 0.00374779
0.0363518 0.1 0.20701 0.00374804
0.150379 0.1 -0.15 0.00373882
0.150379 0.1 0.15 0.00373873
0.219993 0.1 -0.0375 0.00373119
0.219993 0.1 0.0375 0.00373096
0 0.1 -0.225 0.00375
0 0.1 0.225 0.00375
0 0.1 -0.24299 0.00375
0 0.1 0.24299 0.00375
0.0363518 0.1 0.24299 0.00374845
0.0363518 0.1 -0.24299 0.00374808
0.219993 0.1 -0.1125 0.00373241
0.219993 0.1 0.1125 0.00373178
0.150379 0.1 -0.225 0.0037397
0.150379 0.1 0.225 0.00373986
0.075776 0.1 -0.2625 0.00374571
0.075776 0.1 0.2625 0.00374649
0 0.1 -0.28201 0.00375
0 0.1 0.28201 0.00375
0.0363518 0.1 -0.28201 0.00374808
0.0363518 0.1 0.28201 0.00374845
0.287374 0.1 -2.89121e-19 0.00372405
0.219992 0.1 0.1875 0.00373313
0.219992 0.1 -0.1875 0.00373372
0.287374 0.1 -0.075 0.00372502
0.287374 0.1 0.075 0.00372404
0 0.1 -0.3 0.00375
0 0.1 0.3 0.00375
0 0.1 0.31799 0.00375
0 0.1 -0.31799 0.00375
0.0363518 0.1 -0.31799 0.00374835
0.0363518 0.1 0.31799 0.00374887
0.287374 0.1 0.15 0.00372492
0.287374 0.1 -0.15 0.00372647
0.150379 0.1 -0.3 0.00374049
0.150379 0.1 0.3 0.00374112
0.219993 0.1 0.2625 0.00373473
0.219993 0.1 -0.2625 0.00373474
0.075776 0.1 -0.3375 0.00374627
0.075776 0.1 0.3375 0.00374735
0.350249 0.1 -0.0375 0.00371774
0.350249 0.1 0.0375 0.00371691
0 0.1 -0.35701 0.00375
0 0.1 0.35701 0.00375
0.0363518 0.1 -0.35701 0.00374835
0.0363518 0.1 0.35701 0.00374887
0.287374 0.1 -0.225 0.00372781
0.287374 0.1 0.225 0.00372639
0.350249 0.1 -0.1125 0.00371932
0.350249 0.1 0.1125 0.00371712
0 0.1 -0.375 0.00375
0 0.1 0.375 0.00375
0 0.1 -0.39299 0.00375
0 0.1 0.39299 0.00375
0.0363518 0.1 -0.39299 0.00374858
0.0363518 0.1 0.39299 0.00374921
0.350249 0.1 -0.1875 0.00372099
0.350249 0.1 0.1875 0.00371828
0.219992 0.1 -0.3375 0.00373574
0.219992 0.1 0.3375 0.00373642
0.150379 0.1 0.375 0.00374233
0.150379 0.1 -0.375 0.00374123
0.411108 0.1 4.33681e-19 0.0037119
0.287374 0.1 -0.3 0.00372892
0.287374 0.1 0.3 0.00372813
0.411108 0.1 -0.075 0.00371325
0.411108 0.1 0.075 0.0037113
0.075776 0.1 -0.4125 0.00374675
0.075776 0.1 0.4125 0.00374806
0 0.1 0.43201 0.00375
0 0.1 -0.43201 0.00375
0.0363518 0.1 0.43201 0.00374921
0.0363518 0.1 -0.43201 0.00374858
0.411108 0.1 -0.15 0.00371489
0.411108 0.1 0.15 0.00371164
0.350249 0.1 -0.2625 0.0037223
0.350249 0.1 0.2625 0.00372002
0 0.1 -0.45 0.00375
0 0.1 0.45 0.00375
0.219992 0.1 0.4125 0.00373799
0.219992 0.1 -0.4125 0.00373665
0 0.1 -0.46799 0.00375
0 0.1 0.46799 0.00375
0.411108 0.1 -0.225 0.00371635
0.411108 0.1 0.225 0.00371281
0.467897 0.1 -0.0375 0.00370731
0.467897 0.1 0.0375 0.00370603
0.0363518 0.1 0.46799 0.0037495
0.0363518 0.1 -0.46799 0.00374881
0.287374 0.1 -0.375 0.00372989
0.287374 0.1 0.375 0.00372991
0.150379 0.1 0.45 0.00374325
0.150379 0.1 -0.45 0.00374182
0.467897 0.1 0.1125 0.00370555
0.467897 0.1 -0.1125 0.00370899
0.350249 0.1 -0.3375 0.00372341
0.350249 0.1 0.3375 0.00372195
0.075776 0.1 -0.4875 0.00374723
0.075776 0.1 0.4875 0.00374865
0.467897 0.1 0.1875 0.00370603
0.467897 0.1 -0.1875 0.0037106
0 0.1 -0.50701 0.00375
0 0.1 0.50701 0.00375
0.0363518 0.1 -0.50701 0.00374881
0.0363518 0.1 0.50701 0.0037495
0.411108 0.1 0.3 0.00371449
0.411108 0.1 -0.3 0.00371752
0.522865 0.1 1.41031e-17 0.00370351
0 0.1 -0.525 0.00375
0 0.1 0.525 0.00375
0.522865 0.1 -0.075 0.00370501
0.522865 0.1 0.075 0.00370243
0.287374 0.1 0.45 0.00373134
0.287374 0.1 -0.45 0.00373061
0.219992 0.1 0.4875 0.00373876
0.219992 0.1 -0.4875 0.00373712
0.467897 0.1 -0.2625 0.00371187
0.467897 0.1 0.2625 0.00370734
0.350249 0.1 -0.4125 0.00372428
0.350249 0.1 0.4125 0.00372386
0 0.1 -0.54299 0.00375
0 0.1 0.54299 0.00375
0.522865 0.1 0.15 0.00370207
0.522865 0.1 -0.15 0.00370653
0.0363518 0.1 0.54299 0.00374977
0.0363518 0.1 -0.54299 0.00374905
0.150379 0.1 -0.525 0.00374232
0.150379 0.1 0.525 0.0037439
0.411108 0.1 -0.375 0.00371843
0.411108 0.1 0.375 0.00371634
0.075776 0.1 -0.5625 0.00374771
0.075776 0.1 0.5625 0.00374919
0.522865 0.1 -0.225 0.00370779
0.522865 0.1 0.225 0.00370255
0.574156 0.1 0.0375 0.00369968
0.574157 0.1 -0.0375 0.00370116
0.467897 0.1 -0.3375 0.00371287
0.467897 0.1 0.3375 0.00370909
0 0.1 -0.58201 0.00375
0 0.1 0.58201 0.00375
0.0363518 0.1 -0.58201 0.00374905
0.0363518 0.1 0.58201 0.00374977
0.574157 0.1 -0.1125 0.00370269
0.574157 0.1 0.1125 0.00369861
0.287374 0.1 -0.525 0.00373116
0.287374 0.1 0.525 0.00373232
0 0.1 -0.6 0.00375
0 0.1 0.6 0.00375
0.350249 0.1 0.4875 0.00372531
0.350249 0.1 -0.4875 0.00372488
0.522865 0.1 -0.3 0.00370872
0.522865 0.1 0.3 0.00370371
0.219992 0.1 -0.5625 0.00373766
0.219992 0.1 0.5625 0.00373944
0.574156 0.1 -0.1875 0.00370396
0.574156 0.1 0.1875 0.00369827
0.411108 0.1 0.45 0.00371805
0.411108 0.1 -0.45 0.00371906
0 0.1 -0.61799 0.00375
0 0.1 0.61799 0.00375
0.150379 0.1 -0.6 0.00374288
0.150379 0.1 0.6 0.00374451
0.0363518 0.1 -0.61799 0.00374928
0.0363518 0.1 0.61799 0.00375002
0.467897 0.1 -0.4125 0.00371351
0.467897 0.1 0.4125 0.00371093
0.623803 0.1 2.34188e-17 0.00369943
0.623803 0.1 0.075 0.00369806
0.623803 0.1 -0.075 0.00370085
0.574156 0.1 0.2625 0.00369876
0.574156 0.1 -0.2625 0.00370487
0.623803 0.1 0.15 0.00369708
0.623803 0.1 -0.15 0.00370205
0.075776 0.1 0.6375 0.00374971
0.075776 0.1 -0.6375 0.0037482
0.522865 0.1 -0.375 0.0037093
0.522865 0.1 0.375 0.00370524
0 0.1 0.65701 0.00375
0 0.1 -0.65701 0.00375
0.0363518 0.1 0.65701 0.00375002
0.0363518 0.1 -0.65701 0.00374928
0.350249 0.1 0.5625 0.00372631
0.350249 0.1 -0.5625 0.00372546
0.623803 0.1 0.225 0.00369673
0.623803 0.1 -0.225 0.00370288
0.287374 0.1 -0.6 0.00373179
0.287374 0.1 0.6 0.00373312
0.574157 0.1 -0.3375 0.00370543
0.574157 0.1 0.3375 0.00369989
0.411108 0.1 0.525 0.00371935
0.411108 0.1 -0.525 0.00371954
0.67013 0.1 0.0375 0.00369766
0.67013 0.1 -0.0375 0.00369913
0.219992 0.1 -0.6375 0.0037384
0.219993 0.1 0.6375 0.00374015
0 0.1 -0.675 0.00375
0 0.1 0.675 0.00375
0.467897 0.1 -0.4875 0.00371392
0.467897 0.1 0.4875 0.00371253
0.67013 0.1 -0.1125 0.00370034
0.67013 0.1 0.1125 0.00369622
0.522865 0.1 0.45 0.0037068
0.522865 0.1 -0.45 0.00370955
0.150379 0.1 0.675 0.00374512
0.150379 0.1 -0.675 0.00374348
0.623803 0.1 0.3 0.00369707
0.623803 0.1 -0.3 0.00370327
0 0.1 -0.69299 0.00375
0 0.1 0.69299 0.00375
0.0363518 0.1 -0.69299 0.00374951
0.0363518 0.1 0.69299 0.00375026
0.67013 0.1 -0.1875 0.00370114
0.67013 0.1 0.1875 0.00369514
0.574156 0.1 0.4125 0.00370132
0.574157 0.1 -0.4125 0.00370555
0.714971 0.1 -2.8382e-17 0.00369935
0.075776 0.1 -0.7125 0.00374868
0.075776 0.1 0.7125 0.00375021
0.714971 0.1 -0.075 0.00370052
0.714971 0.1 0.075 0.0036979
0.67013 0.1 0.2625 0.00369471
0.67013 0.1 -0.2625 0.00370149
0.411108 0.1 -0.6 0.00372004
0.411108 0.1 0.6 0.00372031
0.350249 0.1 0.6375 0.00372713
0.350249 0.1 -0.6375 0.00372614
0.623803 0.1 0.375 0.00369793
0.623803 0.1 -0.375 0.0037032
0.714971 0.1 -0.15 0.00370125
0.714971 0.1 0.15 0.00369645
0.467897 0.1 -0.5625 0.00371429
0.467897 0.1 0.5625 0.0037137
0 0.1 -0.73201 0.00375
0 0.1 0.73201 0.00375
0.0363518 0.1 0.73201 0.00375026
0.0363518 0.1 -0.73201 0.00374951
0.287374 0.1 -0.675 0.00373247
0.287374 0.1 0.675 0.00373387
0.522865 0.1 -0.525 0.00370962
0.522865 0.1 0.525 0.00370806
0.219993 0.1 -0.7125 0.00373908
0.219992 0.1 0.7125 0.00374087
0.714971 0.1 -0.225 0.00370145
0.714971 0.1 0.225 0.00369533
0 0.1 0.75 0.00375
0 0.1 -0.75 0.00375
0.67013 0.1 -0.3375 0.00370125
0.67013 0.1 0.3375 0.00369492
0.574156 0.1 -0.4875 0.0037054
0.574157 0.1 0.4875 0.00370267
0.756813 0.1 0.0375 0.00369953
0.756814 0.1 -0.0375 0.00370079
0.150379 0.1 0.746002 0.00374576
0.150379 0.1 -0.75 0.00374404
0.756813 0.1 -0.1125 0.00370154
0.756813 0.1 0.1125 0.00369792
0 0.1 0.76799 0.00375
0 0.1 -0.76799 0.00375
0.0363518 0.1 0.76799 0.00375047
0.0363518 0.1 -0.76799 0.00374974
0.623803 0.1 -0.45 0.00370278
0.623803 0.1 0.45 0.00369897
0.714971 0.1 -0.3 0.00370106
0.714971 0.1 0.3 0.00369474
0.756814 0.1 -0.1875 0.00370171
0.756814 0.1 0.1875 0.00369626
0.67013 0.1 -0.4125 0.00370059
0.67013 0.1 0.4125 0.00369561
0.411108 0.1 0.675 0.00372107
0.411108 0.1 -0.675 0.00372053
0.467897 0.1 0.6375 0.00371452
0.467897 0.1 -0.6375 0.00371466
0.075776 0.1 0.7875 0.00375064
0.075776 0.1 -0.7875 0.00374914
0.350249 0.1 -0.7125 0.00372677
0.350249 0.1 0.7125 0.00372788
0.522865 0.1 -0.6 0.00370963
0.522865 0.1 0.6 0.00370891
0.797314 0.1 -3.59473e-17 0.00370283
0.287374 0.1 0.746002 0.00373468
0.797314 0.1 -0.075 0.00370361
0.797314 0.1 0.075 0.00370148
0.756814 0.1 -0.2625 0.00370123
0.756814 0.1 0.2625 0.00369495
0.287374 0.1 -0.75 0.00373309
0.574156 0.1 -0.5625 0.0037051
0.574156 0.1 0.5625 0.00370361
0 0.1 0.80701 0.00375
0 0.1 -0.80701 0.00375
0.714971 0.1 -0.375 0.00370014
0.714971 0.1 0.375 0.00369466
0.0363518 0.1 0.80701 0.00375047
0.0363518 0.1 -0.80701 0.00374974
0.797314 0.1 -0.15 0.00370375
0.797314 0.1 0.15 0.00369976
0.623803 0.1 -0.525 0.00370211
0.623803 0.1 0.525 0.00369984
0.219992 0.1 0.7875 0.00374155
0.219992 0.1 -0.7875 0.00373968
0.149792 0.1 0.80701 0.00374613
0 0.1 0.825 0.00375
0 0.1 -0.825 0.00375
0.797314 0.1 -0.225 0.00370316
0.797314 0.1 0.225 0.00369797
0.756813 0.1 -0.3375 0.0037001
0.756813 0.1 0.3375 0.00369414
0.67013 0.1 0.4875 0.00369634
0.67013 0.1 -0.4875 0.00369959
0.835106 0.1 -0.0375 0.00370576
0.835106 0.1 0.0375 0.00370483
0.150379 0.1 -0.825 0.00374453
0.835106 0.1 -0.1125 0.00370595
0.835106 0.1 0.1125 0.00370322
0 0.1 -0.84299 0.00375
0 0.1 0.84299 0.00375
0.0363518 0.1 -0.84299 0.00374993
0.0363518 0.1 0.84299 0.00375064
0.714971 0.1 -0.45 0.00369879
0.714971 0.1 0.45 0.0036949
0.411108 0.1 0.746002 0.00372184
0.797314 0.1 -0.3 0.00370186
0.797314 0.1 0.3 0.00369646
0.467897 0.1 -0.7125 0.00371497
0.467897 0.1 0.7125 0.00371519
0.522865 0.1 0.675 0.00370944
0.522865 0.1 -0.675 0.0037096
0.411108 0.1 -0.75 0.00372095
0.835106 0.1 -0.1875 0.00370538
0.835107 0.1 0.1875 0.00370118
0.286844 0.1 0.80701 0.00373515
0.574156 0.1 0.6375 0.00370408
0.574157 0.1 -0.6375 0.00370472
0.350249 0.1 -0.7875 0.00372734
0.350249 0.1 0.7875 0.00372863
0.756813 0.1 -0.4125 0.00369846
0.756814 0.1 0.4125 0.0036938
0.623803 0.1 -0.6 0.00370131
0.623803 0.1 0.6 0.00370029
0.075776 0.1 0.8625 0.003751
0.075776 0.1 -0.8625 0.00374954
0.871687 0.1 -3.2767e-18 0.00370937
0.287374 0.1 -0.825 0.00373363
0.871687 0.1 -0.075 0.00370966
0.871687 0.1 0.075 0.00370825
0.67013 0.1 -0.5625 0.00369841
0.67013 0.1 0.5625 0.00369678
0.835106 0.1 0.2625 0.00369908
0.835106 0.1 -0.2625 0.00370394
0.797314 0.1 -0.375 0.00369995
0.797314 0.1 0.375 0.00369533
0 0.1 -0.88201 0.00375
0 0.1 0.88201 0.00375
0.0363518 0.1 0.88201 0.00375064
0.0363518 0.1 -0.88201 0.00374993
0.871687 0.1 0.15 0.00370641
0.871687 0.1 -0.15 0.0037091
0.714971 0.1 0.525 0.00369509
0.714971 0.1 -0.525 0.00369715
0.219993 0.1 0.8625 0.00374216
0.219992 0.1 -0.8625 0.0037402
0 0.1 0.9 0.00375
0 0.1 -0.9 0.00375
0.756813 0.1 0.4875 0.0036937
0.756814 0.1 -0.4875 0.0036964
0.871687 0.1 0.225 0.00370413
0.871687 0.1 -0.225 0.00370764
0.835106 0.1 -0.3375 0.00370184
0.835106 0.1 0.3375 0.00369726
0.41063 0.1 0.80701 0.00372228
0.90582 0.1 -0.0375 0.00371342
0.905821 0.1 0.0375 0.00371292
0.522865 0.1 0.746002 0.0037099
0.150379 0.1 0.9 0.00374667
0.90582 0.1 0.1125 0.00371147
0.905821 0.1 -0.1125 0.00371296
0.522865 0.1 -0.75 0.00370951
0.574156 0.1 0.7125 0.00370426
0.574156 0.1 -0.7125 0.00370434
0.797314 0.1 -0.45 0.00369752
0.797314 0.1 0.45 0.00369456
0.467897 0.1 -0.7875 0.00371515
0.467897 0.1 0.7875 0.0037158
0.150379 0.1 -0.903998 0.00374482
0 0.1 0.91799 0.00375
0 0.1 -0.91799 0.00375
0.0363518 0.1 0.91799 0.00375078
0.0363518 0.1 -0.91799 0.0037501
0.623803 0.1 0.675 0.00370031
0.623803 0.1 -0.675 0.00370043
0.411108 0.1 -0.825 0.00372126
0.871687 0.1 0.3 0.00370177
0.871687 0.1 -0.3 0.00370536
0.67013 0.1 -0.6375 0.00369709
0.67013 0.1 0.6375 0.00369675
0.90582 0.1 -0.1875 0.00371158
0.90582 0.1 0.1875 0.00370922
0.350249 0.1 0.8625 0.00372933
0.350249 0.1 -0.8625 0.0037278
0.835106 0.1 -0.4125 0.00369909
0.835106 0.1 0.4125 0.00369577
0.714971 0.1 -0.6 0.00369532
0.714971 0.1 0.6 0.00369492
0.93886 0.1 -1.15648e-17 0.00371861
0.075776 0.1 0.9375 0.00375129
0.075776 0.1 -0.9375 0.00374988
0.93886 0.1 0.075 0.00371781
0.93886 0.1 -0.075 0.00371836
0.756813 0.1 0.5625 0.0036934
0.756814 0.1 -0.5625 0.00369409
0.905821 0.1 -0.2625 0.00370916
0.905821 0.1 0.2625 0.0037065
0.287374 0.1 0.9 0.00373589
0.287374 0.1 -0.903998 0.0037339
0.871687 0.1 0.375 0.00369959
0.871687 0.1 -0.375 0.00370232
0.93886 0.1 -0.15 0.0037171
0.93886 0.1 0.15 0.00371599
0.797314 0.1 0.525 0.00369387
0.797314 0.1 -0.525 0.00369471
0 0.1 0.95701 0.00375
0 0.1 -0.95701 0.00375
0.0363518 0.1 0.95701 0.00375078
0.0363518 0.1 -0.95701 0.0037501
0.522433 0.1 0.80701 0.00371009
0.219992 0.1 0.9375 0.00374264
0.219992 0.1 -0.9375 0.00374062
0.93886 0.1 0.225 0.00371337
0.93886 0.1 -0.225 0.00371477
0.90582 0.1 0.3375 0.00370372
0.905821 0.1 -0.3375 0.00370602
0.835106 0.1 -0.4875 0.00369585
0.835107 0.1 0.4875 0.00369465
0.969689 0.1 -0.0375 0.00372375
0.969689 0.1 0.0375 0.00372371
0.61613 0.1 0.75 0.00370007
0.574156 0.1 -0.7875 0.00370391
0.574156 0.1 0.7875 0.00370434
0 0.1 0.975 0.00375
0 0.1 -0.975 0.00375
0.623803 0.1 -0.75 0.00369952
0.969689 0.1 -0.1125 0.00372267
0.969689 0.1 0.1125 0.00372246
0.522865 0.1 -0.825 0.00370933
0.67013 0.1 0.7125 0.00369627
0.67013 0.1 -0.7125 0.0036957
0.871687 0.1 -0.45 0.00369864
0.871687 0.1 0.45 0.00369768
0.467897 0.1 0.8625 0.00371634
0.467897 0.1 -0.8625 0.0037152
0.714971 0.1 -0.675 0.00369337
0.714971 0.1 0.675 0.00369428
0.93886 0.1 -0.3 0.00371143
0.93886 0.1 0.3 0.00371031
0.150379 0.1 0.975 0.00374701
0.150379 0.1 -0.975 0.00374529
0.969689 0.1 -0.1875 0.00372058
0.969689 0.1 0.1875 0.00372013
0.411108 0.1 0.9 0.00372299
0.756813 0.1 0.6375 0.00369264
0.756814 0.1 -0.6375 0.00369164
0.990306 0.1 -2.19732e-17 0.00372451
0 0.1 0.99299 0.00375
0 0.1 -0.99299 0.00375
0.411108 0.1 -0.903998 0.00372131
0.990306 0.1 -0.075 0.00372388
0.990306 0.1 0.075 0.00372394
0.0363518 0.1 0.99299 0.00375088
0.0363518 0.1 -0.99299 0.00375023
0.90582 0.1 -0.4125 0.00370192
0.905821 0.1 0.4125 0.0037011
0.797314 0.1 -0.6 0.00369167
0.797314 0.1 0.6 0.00369288
0.350249 0.1 0.9375 0.00372995
0.350249 0.1 -0.9375 0.00372814
0.990306 0.1 0.15 0.00372218
0.990306 0.1 -0.15 0.00372216
0.969689 0.1 -0.2625 0.00371718
0.969689 0.1 0.2625 0.00371697
0.835106 0.1 -0.5625 0.00369227
0.835106 0.1 0.5625 0.00369344
0.93886 0.1 -0.375 0.0037071
0.93886 0.1 0.375 0.00370716
0.075776 0.1 1.0125 0.0037515
0.075776 0.1 -1.0125 0.00375016
0.990306 0.1 -0.225 0.00371922
0.990306 0.1 0.225 0.00371939
0.287374 0.1 0.975 0.00373637
0.287374 0.1 -0.975 0.00373439
0.871687 0.1 -0.525 0.00369451
0.871687 0.1 0.525 0.00369591
1.02149 0.1 -0.0369628 0.00373053
1.02149 0.1 0.0369628 0.00373083
0.969689 0.1 -0.3375 0.0037128
0.969689 0.1 0.3375 0.0037134
1.02149 0.1 -0.110888 0.00372907
1.02149 0.1 0.110888 0.00372982
0.90582 0.1 0.4875 0.00369872
0.90582 0.1 -0.4875 0.00369732
0.623803 0.1 0.819003 0.0036993
0 0.1 1.03201 0.00375
0 0.1 -1.03201 0.00375
0.0363518 0.1 1.03201 0.00375088
0.0363518 0.1 -1.03201 0.00375023
0.67013 0.1 -0.7875 0.00369432
0.67013 0.1 0.7875 0.00369555
0.623803 0.1 -0.825 0.00369857
0.990306 0.1 -0.3 0.00371507
0.990306 0.1 0.3 0.0037159
0.219992 0.1 -1.0125 0.00374093
0.219993 0.1 1.0125 0.00374299
0.574156 0.1 0.8625 0.00370439
0.574157 0.1 -0.8625 0.00370338
0.714971 0.1 -0.75 0.00369137
0.714971 0.1 0.75 0.00369327
1.02149 0.1 0.184814 0.00372756
1.02149 0.1 -0.184814 0.00372648
0.756814 0.1 -0.7125 0.00368906
0.756814 0.1 0.7125 0.0036914
0.522865 0.1 0.9 0.00371041
0.93886 0.1 -0.45 0.003702
0.93886 0.1 0.45 0.00370412
1.04168 0.1 0 0.00373527
1.04168 0.1 -0.0729162 0.00373427
1.04168 0.1 0.0729162 0.00373504
0.522865 0.1 -0.903998 0.00370894
0.797314 0.1 -0.675 0.00368848
0.797314 0.1 0.675 0.00369143
0.467897 0.1 0.9375 0.00371681
0.467897 0.1 -0.9375 0.00371517
0 0.1 1.05 0.00375
0 0.1 -1.05 0.00375
0.835106 0.1 -0.6375 0.00368848
0.835106 0.1 0.6375 0.0036918
1.04168 0.1 -0.145832 0.00373209
1.04168 0.1 0.145832 0.00373349
1.02149 0.1 -0.25874 0.00372244
1.02149 0.1 0.25874 0.00372426
0.969689 0.1 -0.4125 0.00370713
0.969689 0.1 0.4125 0.00370979
0.411108 0.1 0.975 0.00372348
0.411108 0.1 -0.975 0.00372156
0.871687 0.1 -0.6 0.00369007
0.871687 0.1 0.6 0.00369396
1.0579 0.1 -0.0360525 0.0037389
1.0579 0.1 0.0360525 0.00373943
0.990306 0.1 -0.375 0.00370971
0.990306 0.1 0.375 0.00371208
0.150379 0.1 1.05 0.00374723
0.150379 0.1 -1.05 0.00374554
1.0579 0.1 0.108157 0.00373863
1.0579 0.1 -0.108157 0.0037372
1.04168 0.1 -0.218749 0.00372856
1.04168 0.1 0.218749 0.00373073
0.90582 0.1 -0.5625 0.00369229
0.90582 0.1 0.5625 0.0036964
0 0.1 -1.06799 0.00375
0 0.1 1.06799 0.00375
0.0363518 0.1 -1.06799 0.00375033
0.0363518 0.1 1.06799 0.00375095
0.350249 0.1 1.0125 0.00373043
0.350249 0.1 -1.0125 0.00372836
1.0579 0.1 -0.180262 0.00373426
1.0579 0.1 0.180262 0.00373652
1.02149 0.1 -0.332665 0.00371716
1.02149 0.1 0.332665 0.00372024
0.93886 0.1 -0.525 0.00369647
0.93886 0.1 0.525 0.00370123
1.08012 0.1 5.49329e-18 0.00374505
1.04168 0.1 -0.291665 0.00372362
1.04168 0.1 0.291665 0.003727
1.08012 0.1 0.0709941 0.00374504
1.08012 0.1 -0.0709941 0.00374381
0.969689 0.1 -0.4875 0.00370114
0.96969 0.1 0.4875 0.00370628
1.0579 0.1 0.252367 0.00373325
1.0579 0.1 -0.252367 0.00372981
0.990306 0.1 -0.45 0.00370357
0.990306 0.1 0.45 0.00370823
0.287374 0.1 -1.05 0.0037346
0.287374 0.1 1.05 0.00373672
0.714971 0.1 0.821002 0.00369208
1.08012 0.1 -0.141988 0.00374135
1.08012 0.1 0.141988 0.00374369
0.075776 0.1 1.0875 0.00375163
0.075776 0.1 -1.0875 0.00375037
0.714971 0.1 -0.825 0.00368936
0.756813 0.1 -0.7875 0.00368643
0.756814 0.1 0.7875 0.00368979
0.67013 0.1 -0.8625 0.00369288
0.67013 0.1 0.8625 0.00369482
0.797314 0.1 -0.75 0.00368519
0.797314 0.1 0.75 0.00368953
0.623803 0.1 0.9 0.00369941
0.835106 0.1 -0.7125 0.00368458
0.835106 0.1 0.7125 0.00368964
0.623803 0.1 -0.903998 0.00369753
0.574156 0.1 0.9375 0.00370447
0.574156 0.1 -0.9375 0.00370275
1.02149 0.1 -0.406591 0.00371058
1.02149 0.1 0.406591 0.0037159
1.08012 0.1 -0.212982 0.00373744
1.08012 0.1 0.212982 0.00374105
1.10076 0.1 -0.0349809 0.00375017
1.10076 0.1 0.0349809 0.00375095
0.871687 0.1 -0.675 0.00368543
0.871687 0.1 0.675 0.00369155
1.04168 0.1 -0.364581 0.00371736
1.04168 0.1 0.364581 0.00372264
1.10076 0.1 -0.104943 0.00374826
1.10076 0.1 0.104943 0.00375037
0.522865 0.1 0.975 0.00371067
0.522865 0.1 -0.975 0.00370866
1.0579 0.1 -0.324472 0.00372396
1.0579 0.1 0.324472 0.00372908
0 0.1 -1.10701 0.00375
0 0.1 1.10701 0.00375
0.0363518 0.1 1.10701 0.00375095
0.0363518 0.1 -1.10701 0.00375033
0.90582 0.1 0.6375 0.0036938
0.905821 0.1 -0.6375 0.00368694
0.219992 0.1 1.0875 0.0037432
0.219992 0.1 -1.0875 0.00374113
0.93886 0.1 0.6 0.00369818
0.93886 0.1 -0.6 0.00369057
1.10076 0.1 -0.174905 0.00374496
1.10076 0.1 0.174905 0.00374843
0.467897 0.1 1.0125 0.00371719
0.467897 0.1 -1.0125 0.00371505
1.08012 0.1 -0.283976 0.00373202
1.08012 0.1 0.283976 0.00373731
1.11928 0.1 3.93204e-18 0.00375593
0.990306 0.1 -0.525 0.00369704
0.990306 0.1 0.525 0.00370449
0.96969 0.1 -0.5625 0.00369469
0.969689 0.1 0.5625 0.00370295
1.11928 0.1 -0.0690357 0.0037545
1.11928 0.1 0.0690357 0.00375612
0 0.1 1.125 0.00375
0 0.1 -1.125 0.00375
0.411108 0.1 -1.05 0.00372156
0.411108 0.1 1.05 0.00372383
1.10076 0.1 0.244866 0.00374523
1.10076 0.1 -0.244866 0.00374007
1.11928 0.1 -0.138072 0.00375178
1.11928 0.1 0.138072 0.00375495
1.02149 0.1 0.480517 0.00371148
1.02149 0.1 -0.480517 0.00370364
1.0579 0.1 -0.396577 0.00371685
1.0579 0.1 0.396577 0.00372439
1.04168 0.1 -0.437497 0.00371025
1.04168 0.1 0.437497 0.00371799
0.150379 0.1 1.125 0.00374736
0.150379 0.1 -1.125 0.00374572
0.714971 0.1 0.88201 0.00368971
1.08012 0.1 0.354971 0.00373275
1.08012 0.1 -0.354971 0.00372522
1.11928 0.1 -0.207107 0.00374753
1.11928 0.1 0.207107 0.00375246
0.350249 0.1 -1.0875 0.00372848
0.350249 0.1 1.0875 0.00373076
0 0.1 1.14299 0.00375
0 0.1 -1.14299 0.00375
0.0363518 0.1 1.14299 0.00375098
0.0363518 0.1 -1.14299 0.00375041
1.14316 0.1 -0.0339211 0.00376271
1.14316 0.1 0.0339211 0.00376369
0.797314 0.1 0.821002 0.00368745
1.10076 0.1 -0.314829 0.00373362
1.10076 0.1 0.314829 0.00374096
0.797314 0.1 -0.825 0.00368192
0.756814 0.1 -0.8625 0.0036839
0.756814 0.1 0.8625 0.003688
1.14316 0.1 -0.101763 0.00376056
1.14316 0.1 0.101763 0.00376334
0.835106 0.1 -0.7875 0.0036806
0.835106 0.1 0.7875 0.00368707
0.871687 0.1 -0.75 0.00368073
0.871687 0.1 0.75 0.00368862
0.67013 0.1 0.9375 0.00369414
0.67013 0.1 -0.9375 0.0036914
0.90582 0.1 -0.7125 0.00368147
0.905821 0.1 0.7125 0.00369059
0.714971 0.1 -0.903998 0.00368747
1.11928 0.1 0.276143 0.00374877
1.11928 0.1 -0.276143 0.00374168
1.14316 0.1 0.169605 0.00376161
1.14316 0.1 -0.169605 0.00375692
0.93886 0.1 -0.675 0.00368447
0.93886 0.1 0.675 0.00369467
1.15704 0.1 0 0.00376757
1.0579 0.1 0.468682 0.00371945
1.0579 0.1 -0.468682 0.0037093
0.623803 0.1 0.975 0.00369912
0.623803 0.1 -0.975 0.00369649
0.990306 0.1 0.6 0.00370054
0.990306 0.1 -0.6 0.00369012
1.15704 0.1 -0.0671479 0.00376597
1.15704 0.1 0.0671479 0.00376794
1.04168 0.1 -0.510414 0.00370283
1.04168 0.1 0.510414 0.00371327
0.969689 0.1 -0.6375 0.00368796
0.969689 0.1 0.6375 0.00369903
1.08012 0.1 0.425965 0.00372771
1.08012 0.1 -0.425965 0.00371754
0.287374 0.1 -1.125 0.00373472
0.287374 0.1 1.125 0.00373692
1.02149 0.1 -0.554443 0.00369633
1.02149 0.1 0.554443 0.00370714
0.574156 0.1 1.0125 0.00370457
0.574156 0.1 -1.0125 0.00370205
1.15704 0.1 -0.134296 0.00376302
1.15704 0.1 0.134296 0.00376695
0.075776 0.1 1.1625 0.0037517
0.075776 0.1 -1.1625 0.00375053
1.10076 0.1 -0.384791 0.00372593
1.10076 0.1 0.384791 0.00373595
1.14316 0.1 -0.237448 0.00375163
1.14316 0.1 0.237448 0.0037586
1.11928 0.1 -0.345179 0.00373441
1.11928 0.1 0.345179 0.00374411
0.522865 0.1 1.05 0.00371085
0.522865 0.1 -1.05 0.00370821
1.15704 0.1 -0.201444 0.00375846
1.15704 0.1 0.201444 0.00376462
1.1744 0.1 -0.0331401 0.00377217
1.1744 0.1 0.0331401 0.00377324
1.1744 0.1 -0.0994202 0.00376995
1.1744 0.1 0.0994202 0.00377301
0 0.1 1.18201 0.00375
0 0.1 -1.18201 0.00375
0.0363518 0.1 1.18201 0.00375098
0.0363518 0.1 -1.18201 0.00375041
0.219992 0.1 1.1625 0.00374329
0.219993 0.1 -1.1625 0.00374126
1.14316 0.1 0.30529 0.00375441
1.14316 0.1 -0.30529 0.00374473
0.467897 0.1 1.0875 0.00371743
0.467897 0.1 -1.0875 0.00371485
1.1744 0.1 -0.1657 0.00376614
1.1744 0.1 0.1657 0.00377141
1.15704 0.1 -0.268592 0.00375224
1.15704 0.1 0.268592 0.00376103
1.0579 0.1 0.540787 0.00371447
1.0579 0.1 -0.540787 0.00370152
0.796996 0.1 0.88201 0.00368559
1.08012 0.1 -0.496959 0.00370958
1.08012 0.1 0.496959 0.00372244
1.10076 0.1 0.454752 0.0037305
1.10076 0.1 -0.454752 0.0037177
1.11928 0.1 -0.414214 0.00372624
1.11928 0.1 0.414214 0.00373877
1.04168 0.1 -0.58333 0.00369493
1.04168 0.1 0.58333 0.0037084
1.1744 0.1 -0.231981 0.00376067
1.1744 0.1 0.231981 0.00376851
0.871687 0.1 0.821002 0.00368545
0.411108 0.1 1.125 0.00372404
0.411108 0.1 -1.125 0.00372147
1.19808 0.1 1.73472e-17 0.00378153
0.990306 0.1 0.675 0.00369617
0.990306 0.1 -0.675 0.003683
1.02149 0.1 0.628368 0.00370236
1.02149 0.1 -0.628368 0.00368856
1.19808 0.1 -0.0650961 0.00377975
1.19808 0.1 0.0650961 0.00378208
0 0.1 1.2 0.00375
0 0.1 -1.2 0.00375
0.871687 0.1 -0.825 0.00367611
0.905821 0.1 -0.7875 0.00367608
0.90582 0.1 0.7875 0.00368684
0.835106 0.1 -0.8625 0.0036767
0.835106 0.1 0.8625 0.0036842
0.93886 0.1 -0.75 0.00367835
0.93886 0.1 0.75 0.00369068
1.14316 0.1 -0.373132 0.00373664
1.14316 0.1 0.373132 0.00374929
0.969689 0.1 0.7125 0.00369479
0.969689 0.1 -0.7125 0.00368117
1.15704 0.1 -0.33574 0.0037446
1.15704 0.1 0.33574 0.00375635
0.756813 0.1 0.9375 0.00368634
0.756814 0.1 -0.9375 0.00368141
1.19808 0.1 0.130192 0.00378128
1.19808 0.1 -0.130192 0.00377656
0.797314 0.1 -0.903998 0.003679
0.714971 0.1 0.975 0.00368968
0.714971 0.1 -0.975 0.00368544
0.150379 0.1 1.2 0.0037474
0.150379 0.1 -1.2 0.00374582
1.20938 0.1 -0.0322656 0.00378425
1.20938 0.1 0.0322656 0.00378548
1.1744 0.1 -0.298261 0.00375354
1.1744 0.1 0.298261 0.00376441
1.20938 0.1 -0.0967968 0.00378185
1.20938 0.1 0.0967968 0.00378541
1.19808 0.1 -0.195288 0.00377172
1.19808 0.1 0.195288 0.00377915
0.350249 0.1 1.1625 0.00373091
0.350249 0.1 -1.1625 0.00372852
0.67013 0.1 1.0125 0.00369352
0.67013 0.1 -1.0125 0.00369003
0 0.1 1.21799 0.00375
0 0.1 -1.21799 0.00375
0.0363518 0.1 -1.21799 0.00375046
0.0363518 0.1 1.21799 0.00375098
1.11928 0.1 -0.48325 0.0037178
1.11928 0.1 0.48325 0.00373302
1.10076 0.1 -0.524714 0.00370944
1.10076 0.1 0.524714 0.00372484
1.20938 0.1 0.161328 0.00378398
1.20938 0.1 -0.161328 0.00377779
1.08012 0.1 0.567953 0.00371698
1.08012 0.1 -0.567953 0.00370106
0.623803 0.1 1.05 0.00369885
0.623803 0.1 -1.05 0.00369543
1.0579 0.1 -0.612892 0.00369301
1.0579 0.1 0.612892 0.00370918
1.15704 0.1 -0.402888 0.00373603
1.15704 0.1 0.402888 0.00375082
1.14316 0.1 0.440974 0.00374353
1.14316 0.1 -0.440974 0.00372792
1.19808 0.1 -0.260384 0.00376522
1.19808 0.1 0.260384 0.00377573
1.2267 0.1 3.57064e-18 0.00379204
1.2267 0.1 -0.0636649 0.00379009
1.2267 0.1 0.0636649 0.00379274
1.1744 0.1 -0.364541 0.00374524
1.1744 0.1 0.364541 0.00375926
0.574156 0.1 1.0875 0.00370457
0.574156 0.1 -1.0875 0.00370133
1.20938 0.1 0.225859 0.00378123
1.20938 0.1 -0.225859 0.00377207
1.04168 0.1 -0.656246 0.00368663
1.04168 0.1 0.656246 0.00370316
1.2267 0.1 -0.12733 0.00378669
1.2267 0.1 0.12733 0.00379209
0.287374 0.1 1.2 0.00373696
0.287374 0.1 -1.2 0.00373475
1.02149 0.1 -0.702294 0.00368063
1.02149 0.1 0.702294 0.0036973
0.075776 0.1 -1.2375 0.00375063
0.075776 0.1 1.2375 0.0037517
0.871399 0.1 0.88201 0.00368263
0.522865 0.1 1.125 0.00371089
0.522865 0.1 -1.125 0.00370769
1.2267 0.1 -0.190994 0.00378164
1.2267 0.1 0.190994 0.0037901
1.19808 0.1 -0.32548 0.00375731
1.19808 0.1 0.32548 0.00377114
0.990306 0.1 -0.75 0.00367583
0.990306 0.1 0.75 0.00369143
1.24274 0.1 -0.0314313 0.00379712
1.24274 0.1 0.0314313 0.00379855
1.20938 0.1 -0.29039 0.0037647
1.20938 0.1 0.29039 0.00377724
1.24274 0.1 -0.0942942 0.00379446
1.24274 0.1 0.0942942 0.00379866
0.93886 0.1 0.821002 0.00368643
1.11928 0.1 -0.552285 0.00370867
1.11928 0.1 0.552285 0.00372701
1.15704 0.1 -0.470036 0.00372719
1.15704 0.1 0.470036 0.00374471
0.969689 0.1 -0.7875 0.00367438
0.96969 0.1 0.7875 0.00369005
0.93886 0.1 -0.825 0.00367235
0.90582 0.1 0.8625 0.00368268
0.905821 0.1 -0.8625 0.0036709
1.1744 0.1 -0.430821 0.00373624
1.1744 0.1 0.430821 0.00375335
1.10076 0.1 -0.594676 0.00370001
1.10076 0.1 0.594676 0.00371896
1.14316 0.1 -0.508816 0.00371914
1.14316 0.1 0.508816 0.00373734
1.24274 0.1 -0.157157 0.00379011
1.24274 0.1 0.157157 0.00379741
1.2267 0.1 -0.254659 0.00377494
1.2267 0.1 0.254659 0.0037868
0.467897 0.1 1.1625 0.00371753
0.467897 0.1 -1.1625 0.00371453
1.08012 0.1 0.638947 0.00371117
1.08012 0.1 -0.638947 0.00369193
1.25511 0.1 -5.78241e-19 0.00380366
0.835106 0.1 -0.9375 0.00367308
0.835106 0.1 0.9375 0.00368128
0.871687 0.1 -0.903998 0.00367205
1.25511 0.1 0.0622446 0.00380458
1.25511 0.1 -0.0622446 0.00380142
0.219992 0.1 1.2375 0.00374327
0.219992 0.1 -1.2375 0.0037413
0 0.1 -1.25701 0.00375
0 0.1 1.25701 0.00375
0.0363518 0.1 -1.25701 0.00375046
0.0363518 0.1 1.25701 0.00375098
0.797314 0.1 0.975 0.00368277
0.797314 0.1 -0.975 0.0036758
1.19808 0.1 -0.390576 0.00374847
1.19808 0.1 0.390576 0.00376555
1.0579 0.1 -0.684997 0.00368427
1.0579 0.1 0.684997 0.00370353
1.20938 0.1 -0.354921 0.00375619
1.20938 0.1 0.354921 0.00377211
1.25511 0.1 0.124489 0.00380414
1.25511 0.1 -0.124489 0.0037977
1.24274 0.1 -0.220019 0.00378413
1.24274 0.1 0.220019 0.00379482
0.756813 0.1 1.0125 0.00368479
0.756814 0.1 -1.0125 0.0036791
1.2267 0.1 -0.318324 0.00376688
1.2267 0.1 0.318324 0.00378228
0.411108 0.1 1.2 0.00372406
0.411108 0.1 -1.2 0.00372129
1.25511 0.1 -0.186734 0.00379233
1.25511 0.1 0.186734 0.00380232
0.714971 0.1 1.05 0.00368864
0.714971 0.1 -1.05 0.00368363
1.04168 0.1 -0.729162 0.00367818
1.04168 0.1 0.729162 0.00369763
1.24274 0.1 0.282882 0.00379095
1.24274 0.1 -0.282882 0.00377655
0 0.1 1.275 0.00375
0 0.1 -1.275 0.00375
1.1744 0.1 0.497102 0.00374691
1.1744 0.1 -0.497102 0.00372732
1.15704 0.1 -0.537184 0.00371753
1.15704 0.1 0.537184 0.00373822
1.2756 0.1 -0.03061 0.00381194
1.2756 0.1 0.03061 0.00381373
0.67013 0.1 1.0875 0.00369297
0.67013 0.1 -1.0875 0.00368864
1.2756 0.1 -0.09183 0.00380881
1.2756 0.1 0.09183 0.00381412
1.25511 0.1 -0.248978 0.00378536
1.25511 0.1 0.248978 0.00379915
1.20938 0.1 0.419453 0.00376609
1.20938 0.1 -0.419453 0.00374693
1.11928 0.1 -0.621322 0.00369867
1.11928 0.1 0.621322 0.00372064
1.14316 0.1 -0.576659 0.00370892
1.14316 0.1 0.576659 0.00373088
1.19808 0.1 -0.455673 0.00373927
1.19808 0.1 0.455673 0.00375922
1.02149 0.1 0.776219 0.00369187
1.02149 0.1 -0.776219 0.00367267
0.150379 0.1 1.275 0.00374735
0.150379 0.1 -1.275 0.00374587
1.2756 0.1 -0.15305 0.00380405
1.2756 0.1 0.15305 0.00381313
1.2267 0.1 -0.381989 0.00375787
1.2267 0.1 0.381989 0.00377667
1.10076 0.1 -0.664638 0.00369026
1.10076 0.1 0.664638 0.0037126