# kMean  POINT_DATA 91129
# x  y  z  kMean
0 0 0 0.00548397
0 0.00368111 0 0.00375
0 0.00749587 0 0.00375
0 0.0114491 0 0.00375
0 0.0155459 0 0.00375
0 0.0197915 0 0.00375
0 0.0241911 0 0.00375
0 0.0287506 0 0.00375
0 0.0334755 0 0.00375
0 0.038372 0 0.00375
0 0.0434463 0 0.00375
0 0.0487048 0 0.00375
0 0.0541543 0 0.00375
0 0.0598016 0 0.00375
0 0.0656539 0 0.00375
0 0.0717187 0 0.00375
0.075776 0.00184055 0 0.00938866
0.075776 0.00558849 0 0.00331626
0.075776 0.00947248 -3.46945e-18 0.00302705
0.075776 0.0134975 -3.46945e-18 0.00340897
0.075776 0.0176687 3.46945e-18 0.00357801
0 0.0780037 0 0.00375
0.075776 0.0219913 3.46945e-18 0.00364464
0.075776 0.0264709 3.46945e-18 0.00367854
0.075776 0.031113 -3.46945e-18 0.00369803
0.075776 0.0359237 -3.46945e-18 0.00371038
0 0.0845169 0 0.00375
0.075776 0.0409092 0 0.00371879
0.075776 0.0460755 -3.46945e-18 0.00372482
0 0.0912666 0 0.00375
0.075776 0.0514296 -3.46945e-18 0.00372932
0.075776 0.0569779 0 0.00373278
0 0.0982613 0 0.00375
0.075776 0.0627278 0 0.00373549
0.075776 0.0686863 0 0.00373771
0 0.10551 0 0.00375
0.075776 0.0748612 3.46945e-18 0.00373958
0.075776 0.0812603 -3.46945e-18 0.0037412
0 0.113022 0 0.00375
0.075776 0.0878918 3.46945e-18 0.00374258
0 0.120806 0 0.00375
0.075776 0.0947639 3.46945e-18 0.00374374
0.075776 0.101886 -3.46945e-18 0.00374473
0 0.128874 0 0.00375
0.075776 0.109266 3.46945e-18 0.00374557
0 0.137234 0 0.00375
0.075776 0.116914 3.46945e-18 0.00374627
0 0.145897 0 0.00375
0.075776 0.12484 0 0.00374686
0.151552 0 0 0.00581176
0.151552 0.00368111 0 0.00411163
0.151552 0.00749587 0 0.0025555
0.151552 0.0114491 0 0.00294624
0.151552 0.0155459 0 0.00330677
0.151552 0.0197915 0 0.00347445
0.075776 0.133054 0 0.00374737
0.151552 0.0241911 0 0.00356006
0.151552 0.0287506 0 0.00361223
0 0.154876 0 0.00375
0.151552 0.0334755 0 0.00364622
0.151552 0.038372 0 0.00366946
0.151552 0.0434463 0 0.00368598
0.151552 0.0487048 0 0.00369815
0.075776 0.141566 0 0.0037478
0.151552 0.0541543 0 0.00370739
0.151552 0.0598016 0 0.00371457
0 0.16418 0 0.00375
0.151552 0.0656539 0 0.00372029
0.151552 0.0717187 0 0.00372495
0.075776 0.150387 0 0.0037482
0.151552 0.0780037 0 0.0037288
0.151552 0.0845169 0 0.00373202
0 0.173822 0 0.00375
0.075776 0.159528 0 0.00374858
0.151552 0.0912666 0 0.00373473
0.151552 0.0982613 0 0.00373701
0 0.183814 0 0.00375
0.151552 0.10551 0 0.00373895
0.075776 0.169001 3.46945e-18 0.00374895
0.151552 0.113022 0 0.0037406
0.151552 0.120806 0 0.00374201
0 0.194169 0 0.00375
0.075776 0.178818 3.46945e-18 0.00374931
0.151552 0.128874 0 0.00374323
0.075776 0.188992 3.46945e-18 0.00374967
0.151552 0.137234 0 0.00374429
0 0.2049 0 0.00375
0.151552 0.145897 0 0.00374522
0.075776 0.199535 0 0.00375003
0 0.21602 0 0.00375
0.151552 0.154876 0 0.00374606
0.219992 0.00184055 0 0.00251013
0.219992 0.00558849 0 0.00157615
0.219992 0.00947248 -3.46945e-18 0.00239735
0.219992 0.0134975 3.46945e-18 0.0029934
0.219992 0.0176687 0 0.00327544
0.219992 0.0219913 0 0.00342076
0.219993 0.0264709 -3.46945e-18 0.00351192
0.219992 0.031113 -3.46945e-18 0.00357212
0.219992 0.0359238 3.46945e-18 0.00361327
0.151552 0.16418 0 0.00374682
0.075776 0.21046 0 0.00375038
0.219992 0.0409092 3.46945e-18 0.00364232
0.219992 0.0460755 0 0.0036635
0.219993 0.0514296 -3.46945e-18 0.00367941
0.219992 0.0569779 0 0.00369168
0 0.227544 0 0.00375
0.219992 0.0627277 3.46945e-18 0.00370135
0.219992 0.0686863 0 0.00370913
0.151552 0.173822 0 0.00374751
0.219992 0.0748612 3.46945e-18 0.00371548
0.075776 0.221782 0 0.00375072
0.219992 0.0812603 3.46945e-18 0.00372073
0.219992 0.0878917 -3.46945e-18 0.0037251
0.151552 0.183814 0 0.00374815
7.47806e-17 0.239487 0 0.00375
0.219992 0.0947639 3.46945e-18 0.00372878
0.219993 0.101886 3.46945e-18 0.0037319
0.075776 0.233516 0 0.00375103
0.219993 0.109266 0 0.00373455
0.151552 0.194169 0 0.00374875
0.219993 0.116914 0 0.00373683
0 0.251863 0 0.00375
0.219993 0.12484 0 0.0037388
0.151552 0.2049 0 0.00374932
0.075776 0.245675 0 0.0037513
0.219992 0.133054 3.46945e-18 0.00374051
0.219992 0.141565 0 0.003742
0.151552 0.21602 0 0.00374985
0 0.264688 0 0.00375
0.219992 0.150387 3.46945e-18 0.00374332
0.075776 0.258275 3.46945e-18 0.00375152
0.219992 0.159528 -3.46945e-18 0.00374449
0.151552 0.227544 0 0.00375036
0.219992 0.169001 3.46945e-18 0.00374554
0 0.27798 0 0.00375
0.075776 0.271334 3.46945e-18 0.00375167
0.151552 0.239487 3.70071e-18 0.00375082
0.219992 0.178818 3.46945e-18 0.00374648
0.288433 0 0 0.00169848
0.288433 0.00368111 0 0.00148156
0.288433 0.00749587 0 0.00180079
0.288433 0.0114491 0 0.00264957
0.288433 0.0155459 3.70071e-18 0.00310231
0.288433 0.0197915 0 0.00330528
0.288433 0.0241911 3.70071e-18 0.00341038
0.288433 0.0287506 0 0.00348494
0.219992 0.188991 0 0.00374734
0.288433 0.0334755 0 0.00354154
0.288433 0.038372 0 0.00358416
0.288433 0.0434463 0 0.00361636
7.47806e-17 0.291753 0 0.00375
0.288433 0.0487048 0 0.00364101
0.288433 0.0541543 0 0.0036602
0.151552 0.251863 0 0.00375123
0.288433 0.0598016 3.70071e-18 0.00367538
0.075776 0.284866 0 0.00375175
0.288433 0.0656539 3.70071e-18 0.00368757
0.219992 0.199534 0 0.00374813
0.288433 0.0717187 0 0.00369749
0.288433 0.0780037 0 0.00370565
0.288433 0.0845169 0 0.00371241
0.288433 0.0912666 0 0.00371805
0.219992 0.21046 -3.46945e-18 0.00374887
0.288433 0.0982613 0 0.00372288
0.151552 0.264688 3.70071e-18 0.00375158
0 0.306027 0 0.00375
0.288433 0.10551 0 0.00372713
0.075776 0.29889 3.46945e-18 0.00375176
0.288433 0.113022 0 0.00373088
0.219993 0.221782 0 0.00374956
0.288433 0.120806 0 0.00373417
0.288433 0.128874 0 0.00373705
0.151552 0.27798 0 0.00375188
0.288433 0.137234 0 0.00373958
0 0.320819 0 0.00375
0.219992 0.233515 -3.46945e-18 0.0037502
0.075776 0.313423 -3.46945e-18 0.00375171
0.288433 0.145897 0 0.00374181
0.288433 0.154876 0 0.00374378
0.151552 0.291753 0 0.00375212
0.219993 0.245675 0 0.00375079
0.288433 0.16418 0 0.00374551
0 0.336148 0 0.00375
0.288433 0.173822 0 0.00374702
0.075776 0.328484 -3.46945e-18 0.00375163
0.219993 0.258275 -3.46945e-18 0.00375132
0.151552 0.306027 0 0.0037523
0.288433 0.183814 0 0.00374834
0.288433 0.194169 0 0.00374949
0.219992 0.271334 3.46945e-18 0.00375182
0.350249 0.00184056 -3.46945e-18 0.000946527
0.350249 0.00558849 0 0.00097598
0.350249 0.00947248 3.46945e-18 0.00228103
0.350249 0.0134975 0 0.00293325
0.350249 0.0176687 0 0.00321189
0.350249 0.0219913 0 0.00331931
0.350249 0.0264708 3.46945e-18 0.00339776
0.350249 0.031113 0 0.00346635
0 0.352034 0 0.00375
0.350249 0.0359238 0 0.00352194
0.075776 0.344091 0 0.00375155
0.350249 0.0409091 0 0.0035655
0.350249 0.0460756 3.46945e-18 0.00359947
0.288433 0.2049 0 0.0037505
0.350249 0.0514296 0 0.00362614
0.151552 0.320819 0 0.00375243
0.350249 0.0569779 0 0.00364731
0.350249 0.0627277 3.46945e-18 0.0036643
0.350249 0.0686863 3.46945e-18 0.00367811
0.350249 0.0748612 3.46945e-18 0.00368944
0.350249 0.0812603 0 0.0036988
0.219992 0.284867 0 0.00375226
0.288433 0.21602 0 0.00375141
0.350249 0.0878917 0 0.00370655
0.350249 0.094764 0 0.00371308
0.350249 0.101886 0 0.00371885
0.350249 0.109266 0 0.0037241
0.288433 0.227544 0 0.00375221
0.075776 0.360265 3.46945e-18 0.00375153
0 0.368496 0 0.00375
0.151552 0.336148 0 0.00375254
0.350249 0.116914 3.46945e-18 0.00372875
0.219992 0.29889 0 0.00375265
0.370854 0.0241911 1.54074e-33 0.00337208
0.350249 0.12484 0 0.00373283
0.350249 0.133054 0 0.00373643
0.288433 0.239487 -9.25154e-19 0.00375293
0.350249 0.141566 3.46945e-18 0.00373963
0.350249 0.150387 3.46945e-18 0.00374244
0.288433 0.251863 0 0.00375358
0.219992 0.313423 0 0.00375299
0.151552 0.352034 0 0.00375266
0.075776 0.377027 0 0.00375158
0.350249 0.159528 0 0.0037449
0 0.385557 0 0.00375
0.350249 0.169001 0 0.00374704
0.288433 0.264688 0 0.00375418
0.350249 0.178818 0 0.00374888
0.219992 0.328484 0 0.00375328
0.350249 0.188992 0 0.00375044
0.151552 0.368496 0 0.00375282
0.288433 0.27798 3.70071e-18 0.00375474
0.075776 0.394397 0 0.00375168
0.350249 0.199535 0 0.00375179
7.47806e-17 0.403236 0 0.00375
0.219992 0.344091 0 0.00375355
0.350249 0.21046 -3.46945e-18 0.00375294
0.288433 0.291753 0 0.00375527
0.412065 9.08189e-19 3.08149e-33 0.000792236
0.412065 0.00368111 -2.31298e-18 0.000864843
0.412065 0.00749587 -2.31298e-18 0.00166054
0.412065 0.0114491 -2.31298e-18 0.00271272
0.412065 0.0155459 -2.31298e-18 0.00314969
0.412065 0.0197915 0 0.00329356
0.412065 0.0241911 -3.08149e-33 0.00335293
0.412065 0.0264709 0 0.00337859
0.412065 0.0287506 -2.31298e-18 0.00340425
0.412065 0.0334755 -2.31298e-18 0.00345913
0.412065 0.038372 -2.31298e-18 0.00350924
0.151552 0.385557 0 0.00375303
0.412065 0.0434463 0 0.00355143
0.350249 0.221782 0 0.00375394
0.412065 0.0487048 0 0.00358589
0.412065 0.0541543 -3.08149e-33 0.00361385
0.412065 0.0569779 0 0.0036252
0.412065 0.0598016 -2.31298e-18 0.00363655
0.412065 0.0656539 -2.31298e-18 0.00365508
0.412065 0.0717187 -2.31298e-18 0.00367028
0.075776 0.412396 -3.46945e-18 0.00375177
0.412065 0.0780037 -2.31298e-18 0.00368281
0.288433 0.306027 0 0.00375577
0.412065 0.0845169 -2.31298e-18 0.00369323
0.350249 0.233516 3.46945e-18 0.00375481
0 0.421557 0 0.00375
0.412065 0.0912666 -2.31298e-18 0.00370214
0.219992 0.360265 3.46945e-18 0.00375384
0.412065 0.0982613 0 0.00371004
0.412065 0.10551 0 0.00371721
0.412065 0.113022 -2.31298e-18 0.00372368
0.350249 0.245675 0 0.00375557
0.412065 0.120806 0 0.00372945
0.151552 0.403236 0 0.00375327
0.288433 0.320819 0 0.00375626
0.412065 0.128874 -2.31298e-18 0.00373458
0.412065 0.137234 0 0.00373912
0.350249 0.258275 -3.46945e-18 0.00375627
0.219992 0.377026 0 0.00375415
0.412065 0.145897 -2.31298e-18 0.00374311
0.075776 0.431051 0 0.00375184
0.412065 0.154876 -2.31298e-18 0.00374659
0 0.440544 0 0.00375
0.288433 0.336148 0 0.00375672
0.350249 0.271334 0 0.00375692
0.412065 0.16418 -2.31298e-18 0.00374961
0.412065 0.173822 -2.31298e-18 0.00375221
0.151552 0.421557 0 0.0037535
0.412065 0.183814 -2.31298e-18 0.00375443
0.350249 0.284867 3.46945e-18 0.00375755
0.219992 0.394397 0 0.00375451
0.288433 0.352034 3.70071e-18 0.00375718
0.412065 0.194169 0 0.00375634
0.075776 0.450382 0 0.00375188
0.412065 0.2049 -2.31298e-18 0.00375795
0 0.46022 0 0.00375
0.350249 0.29889 3.46945e-18 0.00375819
0.412065 0.21602 0 0.00375932
0.151552 0.440544 0 0.00375372
0.219993 0.412396 3.46945e-18 0.00375488
0.467897 0.00184056 -3.46945e-18 0.000648711
0.467897 0.00558849 0 0.000901603
0.288433 0.368496 0 0.00375765
0.467897 0.00947248 0 0.00247913
0.467897 0.0134975 0 0.00314278
0.467897 0.0176687 3.46945e-18 0.00330011
0.467897 0.0219913 -3.46945e-18 0.00333902
0.467897 0.0264709 3.46945e-18 0.00335641
0.467897 0.0311131 3.46945e-18 0.00340037
0.467897 0.0359238 -3.46945e-18 0.00345272
0.467897 0.038372 0 0.00348185
0.467897 0.0409092 3.46945e-18 0.0035016
0.350249 0.313423 0 0.00375884
0.467897 0.0460755 0 0.00354347
0.467897 0.0514296 3.46945e-18 0.00357825
0.412065 0.227544 -2.31298e-18 0.00376048
0.467897 0.0569779 0 0.00360687
0.467897 0.0627277 -3.46945e-18 0.0036304
0.467897 0.0686863 3.46945e-18 0.00364975
0.467897 0.0748612 0 0.00366571
0.467897 0.0812603 0 0.00367887
0.467897 0.0878918 3.46945e-18 0.00369002
0.075776 0.470415 3.46945e-18 0.0037519
0.412065 0.239487 -2.31298e-18 0.00376148
0.467897 0.0947639 -3.46945e-18 0.00369997
0.467897 0.101886 3.46945e-18 0.00370908
0.350249 0.328483 0 0.00375947
0.467897 0.109266 0 0.00371738
0 0.48061 0 0.00375
0.288433 0.385557 0 0.00375813
0.467897 0.116914 0 0.00372487
0.412065 0.251863 -2.31298e-18 0.00376235
0.219992 0.431051 0 0.00375526
0.467897 0.12484 0 0.00373156
0.151552 0.46022 0 0.00375391
0.467897 0.133054 3.46945e-18 0.00373751
0.467897 0.141566 3.46945e-18 0.00374275
0.412065 0.264688 -2.31298e-18 0.00376312
0.350249 0.344091 -3.46945e-18 0.0037601
0.467897 0.150387 3.46945e-18 0.00374733
0.467897 0.154876 0 0.00375085
0.467897 0.159528 3.46945e-18 0.0037513
0.288433 0.403236 0 0.00375863
0.075776 0.491175 0 0.00375193
0.412065 0.27798 -2.31298e-18 0.00376384
0.467897 0.169001 0 0.0037547
0.467897 0.178818 3.46945e-18 0.00375762
0.219992 0.450382 0 0.00375562
6.73026e-17 0.501741 3.70071e-18 0.00375
0.350249 0.360265 0 0.00376072
0.151552 0.48061 0 0.00375409
0.467897 0.188991 0 0.00376013
0.412065 0.291753 0 0.00376453
0.467897 0.199535 0 0.00376226
0.288433 0.421557 0 0.00375914
0.467897 0.21046 0 0.00376405
0.412065 0.306027 0 0.00376521
0.350249 0.377027 0 0.00376134
0.467897 0.221782 3.46945e-18 0.00376554
0.075776 0.51269 0 0.00375196
0.219993 0.470415 3.46945e-18 0.00375594
0.467897 0.227544 0 0.003768
0.412065 0.320819 -2.31298e-18 0.00376588
0.467897 0.233515 0 0.0037668
6.73026e-17 0.523639 3.70071e-18 0.00375
0.523729 0 0 0.000567586
0.523729 0.00368111 0 0.000722881
0.523729 0.00749587 -2.31298e-18 0.00174859
0.523729 0.0114491 0 0.0029804
0.523729 0.0155459 0 0.00338369
0.523729 0.0197915 -2.31298e-18 0.00341291
0.151552 0.501741 0 0.00375426
0.523729 0.0241911 0 0.00338735
0.523729 0.0287506 0 0.00338264
0.523729 0.0334755 0 0.00341115
0.523729 0.038372 -3.08149e-33 0.00345447
0.523729 0.0434463 0 0.00349882
0.523729 0.0487048 0 0.00353876
0.523729 0.0541543 0 0.00357303
0.288433 0.440544 0 0.00375965
0.523729 0.0598016 0 0.00360189
0.350249 0.394397 -3.46945e-18 0.00376196
0.523729 0.0656539 0 0.00362598
0.467897 0.245675 0 0.00376787
0.523729 0.0717187 0 0.003646
0.523729 0.0780037 0 0.00366266
0.523729 0.0845169 0 0.00367681
0.523729 0.0912666 0 0.00368938
0.412065 0.336148 0 0.00376654
0.523729 0.0982613 0 0.00370086
0.523729 0.10551 -2.31298e-18 0.00371135
0.467897 0.258275 -3.46945e-18 0.00376879
0.523729 0.113022 0 0.00372086
0.523729 0.120806 -3.08149e-33 0.00372944
0.219993 0.491176 0 0.00375625
0.523729 0.12484 0 0.00373327
0.523729 0.128874 -2.31298e-18 0.0037371
0.075776 0.534986 0 0.00375199
0.467897 0.271334 3.46945e-18 0.00376961
0.350249 0.412396 -3.46945e-18 0.0037626
0.523729 0.137234 0 0.0037439
0.412065 0.352034 -2.31298e-18 0.0037672
0.288433 0.46022 0 0.00376013
0.523729 0.145897 0 0.00374989
0.151552 0.523639 0 0.00375442
0.523729 0.154876 -3.08149e-33 0.00375511
0 0.546332 0 0.00375
0.523729 0.159528 0 0.00375736
0.467897 0.284867 -3.46945e-18 0.00377037
0.523729 0.16418 -2.31298e-18 0.00375962
0.523729 0.173822 0 0.00376348
0.412065 0.368496 0 0.00376787
0.523729 0.183814 0 0.00376679
0.467897 0.29889 0 0.00377109
0.350249 0.431051 -3.46945e-18 0.00376324
0.219992 0.51269 0 0.00375654
0.523729 0.194169 0 0.00376959
0.288433 0.48061 0 0.00376059
0.523729 0.2049 0 0.00377194
0.467897 0.313423 3.46945e-18 0.00377179
0.075776 0.558091 0 0.00375204
0.412065 0.385557 0 0.00376853
0.523729 0.21602 -3.08149e-33 0.0037739
0.151552 0.546332 0 0.00375459
0 0.569849 0 0.00375
0.350249 0.450382 3.46945e-18 0.00376387
0.523729 0.227544 -3.08149e-33 0.00377552
0.467897 0.328483 0 0.00377249
0.523729 0.231525 1.54074e-33 0.00377597
0.574156 0.00184056 0 0.000491786
0.574156 0.00558849 0 0.000856291
0.574157 0.00947248 0 0.00274977
0.574156 0.0134975 -3.46945e-18 0.00352772
0.574156 0.0176687 -3.46945e-18 0.00354287
0.574156 0.0219913 0 0.0034574
0.574156 0.0264708 -3.46945e-18 0.00339136
0.574156 0.031113 0 0.00338187
0.574156 0.0359238 -3.46945e-18 0.00341166
0.574157 0.0409092 0 0.00345488
0.523729 0.239487 3.70071e-18 0.00377688
0.574156 0.0460755 -3.46945e-18 0.00349845
0.574156 0.0514295 0 0.00353778
0.412065 0.403236 0 0.00376921
0.574157 0.0569779 0 0.0035718
0.574156 0.0627277 0 0.00360067
0.574156 0.0686863 0 0.00362493
0.219992 0.534986 0 0.00375683
0.288433 0.501741 0 0.00376103
0.574156 0.0748612 3.46945e-18 0.00364516
0.574156 0.0812603 0 0.00366216
0.467897 0.344091 0 0.00377318
0.574156 0.0878917 3.46945e-18 0.00367719
0.523729 0.251863 0 0.00377801
0.574157 0.0947639 0 0.00369107
0.574156 0.101886 0 0.00370379
0.574156 0.109266 0 0.00371537
0.574156 0.116914 0 0.00372586
0.412065 0.416977 -6.16298e-33 0.00376973
0.350249 0.470415 0 0.00376448
0.523729 0.264688 0 0.00377898
0.075776 0.582034 0 0.00375209
0.574156 0.12484 0 0.00373529
0.574156 0.133054 3.46945e-18 0.00374371
0.412065 0.421557 -2.31298e-18 0.0037699
0.151552 0.569849 0 0.00375475
0.467897 0.360265 -3.46945e-18 0.00377388
0.574157 0.141566 -3.46945e-18 0.00375115
0.523729 0.27798 0 0.00377982
0.574156 0.150386 3.46945e-18 0.00375768
0 0.594219 0 0.00375
0.574156 0.159528 -3.46945e-18 0.00376336
0.574156 0.16418 0 0.00376723
0.288433 0.523639 1.2326e-32 0.00376144
0.574157 0.169001 0 0.00376824
0.523729 0.291753 0 0.00378058
0.219993 0.558091 3.46945e-18 0.0037571
0.467897 0.377026 0 0.00377458
0.574156 0.178818 3.46945e-18 0.00377242
0.412065 0.440544 -2.31298e-18 0.0037706
0.350249 0.491175 0 0.00376505
0.574156 0.188992 3.46945e-18 0.00377595
0.523729 0.306027 -3.08149e-33 0.00378129
0.574157 0.199535 0 0.00377892
0.574157 0.21046 0 0.00378139
0.075776 0.606847 0 0.00375215
0.467897 0.394397 0 0.0037753
0.151552 0.594219 0 0.00375492
0.523729 0.320819 0 0.00378197
0.574157 0.221782 -3.46945e-18 0.00378343
0.412065 0.46022 3.08149e-33 0.00377128
0.288433 0.546332 0 0.00376183
0 0.619475 0 0.00375
0.574156 0.233515 3.46945e-18 0.00378511
0.350249 0.51269 3.46945e-18 0.0037656
0.219992 0.582034 3.46945e-18 0.00375738
0.523729 0.336148 0 0.00378264
0.467897 0.412396 0 0.00377604
0.574156 0.245675 0 0.00378649
0.624584 0 0 0.000435522
0.624584 0.00368111 0 0.00064051
0.624584 0.00749587 0 0.00186557
0.624584 0.0114491 0 0.00332852
0.624584 0.0155459 0 0.00375902
0.624584 0.0197915 0 0.00365902
0.624584 0.0241911 -2.31298e-18 0.00351
0.624584 0.0287506 0 0.00342444
0.624584 0.0334755 0 0.00340433
0.624584 0.038372 0 0.00342515
0.624584 0.0434463 -2.31298e-18 0.0034622
0.624584 0.0487048 0 0.00350227
0.624584 0.0541543 0 0.00353979
0.624584 0.0598016 0 0.00357298
0.624584 0.0656539 0 0.00360154
0.624584 0.0717187 0 0.00362573
0.624584 0.0780037 0 0.00364624
0.574157 0.258276 3.46945e-18 0.00378763
0.624584 0.0845169 0 0.00366426
0.523729 0.352034 0 0.00378331
0.624584 0.0912666 0 0.00368073
0.624584 0.0982613 0 0.00369595
0.412065 0.48061 3.08149e-33 0.00377194
0.624584 0.10551 0 0.00370989
0.624584 0.113022 -2.31298e-18 0.00372257
0.574156 0.271334 0 0.0037886
0.624584 0.120806 0 0.00373404
0.467897 0.431051 0 0.00377679
0.075776 0.632561 -3.46945e-18 0.00375221
0.624584 0.128874 0 0.00374435
0.151552 0.619475 0 0.00375509
0.288433 0.569849 0 0.00376221
0.350249 0.534985 0 0.00376611
0.624584 0.137234 -2.31298e-18 0.00375352
0.523729 0.368496 0 0.00378398
0.574156 0.284866 -3.46945e-18 0.00378942
0.624584 0.145897 0 0.00376162
0.467897 0.440544 0 0.00377872
0.624584 0.154876 0 0.0037687
0.219992 0.606847 -3.46945e-18 0.00375765
0 0.645647 0 0.00375
0.624584 0.16418 -3.08149e-33 0.00377484
0.574156 0.29889 -3.46945e-18 0.00379016
0.624584 0.173822 0 0.00378011
0.412065 0.501741 1.54074e-33 0.00377257
0.467897 0.450382 -3.46945e-18 0.00377754
0.523729 0.385557 0 0.00378467
0.624584 0.183814 0 0.0037846
0.624584 0.194169 0 0.00378837
0.574156 0.313423 0 0.00379084
0.624584 0.2049 0 0.00379152
0.350249 0.558091 3.46945e-18 0.00376659
0.288433 0.594219 0 0.00376257
0.624584 0.21602 0 0.00379411
0.523729 0.403236 0 0.00378538
0.574156 0.328483 -3.46945e-18 0.00379149
0.151552 0.645647 0 0.00375525
0.467897 0.470415 3.46945e-18 0.00377828
0.075776 0.659208 0 0.00375228
0.624584 0.227544 0 0.00379624
0.412065 0.523639 0 0.00377316
0.523729 0.41545 3.08149e-33 0.00378586
0.624584 0.239487 3.70071e-18 0.00379796
0.574156 0.344091 0 0.00379213
0.219992 0.632561 0 0.00375791
0.67013 0.00184055 0 0.000382701
0.67013 0.00558849 0 0.000835374
0.67013 0.00947248 0 0.00301326
0.67013 0.0134975 0 0.00400016
0.67013 0.0176687 -3.46945e-18 0.00393798
0.67013 0.0219913 0 0.0036784
0.67013 0.0264708 3.46945e-18 0.00350237
0.67013 0.0311131 0 0.00341752
0.67013 0.0359237 0 0.00340536
0.67013 0.0409092 -3.46945e-18 0.0034297
0.67013 0.0460755 0 0.00346756
0.67013 0.0514296 3.46945e-18 0.00350724
0.523729 0.421557 -2.31298e-18 0.0037861
0.67013 0.056978 0 0.00354418
0 0.67277 0 0.00375
0.67013 0.0627277 0 0.00357688
0.624584 0.251863 0 0.00379937
0.67013 0.0686863 0 0.00360506
0.67013 0.0748612 3.46945e-18 0.00362891
0.67013 0.0812603 0 0.00364965
0.67013 0.0878917 0 0.00366869
0.67013 0.0947639 3.46945e-18 0.0036864
0.574156 0.360265 0 0.00379277
0.67013 0.101886 0 0.00370272
0.523729 0.431051 0 0.00378647
0.624584 0.264688 0 0.00380051
0.467897 0.491175 0 0.00377899
0.67013 0.109266 3.46945e-18 0.00371763
0.350249 0.582034 0 0.00376705
0.67013 0.116914 0 0.00373118
0.67013 0.12484 0 0.00374342
0.67013 0.133054 0 0.00375437
0.288433 0.619475 0 0.00376292
0.624584 0.27798 -3.08149e-33 0.00380145
0.412065 0.546332 1.54074e-33 0.00377371
0.523729 0.440544 -3.08149e-33 0.00378684
0.67013 0.141566 3.46945e-18 0.0037641
0.685312 0.0241911 -7.70372e-34 0.00365585
0.685312 0.0434463 -7.70372e-34 0.00345158
0.67013 0.150387 0 0.00377266
0.574156 0.377026 -3.46945e-18 0.00379343
0.67013 0.159528 0 0.00378012
0.624584 0.291753 0 0.00380225
0.151552 0.67277 0 0.00375542
0.075776 0.686823 0 0.00375235
0.67013 0.169001 0 0.00378656
0.67013 0.178818 0 0.00379206
0.467897 0.51269 0 0.00377965
0.685312 0.113022 -7.70372e-34 0.00372635
0.219992 0.659208 0 0.00375817
0.624584 0.306027 0 0.00380294
0.67013 0.188991 0 0.0037967
0.574156 0.394397 3.46945e-18 0.00379411
0.523729 0.46022 0 0.00378758
0.685312 0.137234 -7.70372e-34 0.00376264
0.67013 0.199535 -3.46945e-18 0.00380058
0.350249 0.606847 0 0.00376749
0 0.700877 0 0.00375
0.624584 0.320819 0 0.00380357
0.67013 0.21046 0 0.00380379
0.412065 0.569849 -2.31298e-18 0.00377423
0.67013 0.221782 -3.46945e-18 0.00380642
0.574157 0.412396 0 0.00379481
0.288433 0.645647 0 0.00376325
0.624584 0.336148 -3.08149e-33 0.00380416
0.67013 0.233515 3.46945e-18 0.00380854
0.467897 0.534986 0 0.00378028
0.523729 0.48061 0 0.00378831
0.624584 0.344091 0 0.00380445
0.67013 0.245675 0 0.00381025
0.715676 4.54095e-19 0 0.000340272
0.715676 0.00368111 0 0.000585637
0.715676 0.00749587 0 0.00198329
0.715676 0.0114491 0 0.00369151
0.715676 0.0155459 0 0.00422012
0.715676 0.0197915 0 0.00402231
0.715676 0.0241911 0 0.00372877
0.715676 0.0287506 0 0.00353788
0.715676 0.0334755 0 0.00344687
0.715676 0.038372 0 0.00342755
0.624584 0.352034 -2.31298e-18 0.00380474
0.715676 0.0434463 0 0.00344626
0.151552 0.700877 0 0.00375558
0.715676 0.0487048 0 0.00347958
0.715676 0.0541543 0 0.00351634
0.574156 0.43105 0 0.00379553
0.715676 0.0598016 0 0.00355147
0.67013 0.258275 0 0.00381161
0.715676 0.0656539 0 0.00358302
0.715676 0.0717187 0 0.00361044
0.075776 0.715441 0 0.00375242
0.715676 0.0780037 0 0.00363431
0.715676 0.0845169 0 0.00365598
0.219992 0.686824 0 0.00375842
0.715676 0.0912666 0 0.00367622
0.715676 0.0982613 0 0.00369505
0.67013 0.271334 -3.46945e-18 0.0038127
0.350249 0.632561 -3.46945e-18 0.0037679
0.412065 0.594219 3.08149e-33 0.00377471
0.715676 0.10551 0 0.00371239
0.715676 0.113022 0 0.00372824
0.624584 0.368496 0 0.00380532
0.523729 0.501741 0 0.003789
0.715676 0.120806 0 0.00374264
0.715676 0.128874 0 0.00375561
0.67013 0.284867 0 0.00381358
0.467897 0.558091 3.46945e-18 0.00378086
0.715676 0.137234 0 0.0037672
0.574156 0.450382 0 0.00379627
0 0.730005 0 0.00375
0.715676 0.145897 0 0.00377747
0.288433 0.67277 0 0.00376357
0.715676 0.154876 0 0.00378649
0.67013 0.29889 0 0.00381431
0.624584 0.385557 0 0.00380592
0.715676 0.16418 -9.25187e-19 0.00379432
0.715676 0.173822 0 0.00380105
0.715676 0.183814 0 0.00380678
0.67013 0.313423 0 0.00381494
0.523729 0.523639 0 0.00378965
0.715676 0.194169 0 0.00381159
0.574156 0.470415 3.46945e-18 0.00379701
0.624584 0.403236 0 0.00380655
0.743101 0.0241911 -7.70372e-34 0.00383549
0.412065 0.619475 3.08149e-33 0.00377516
0.715676 0.2049 0 0.00381559
0.151552 0.730005 0 0.00375574
0.67013 0.328484 3.46945e-18 0.0038155
0.350249 0.659208 0 0.00376829
0.467897 0.582034 0 0.00378139
0.715676 0.21602 0 0.00381887
0.219992 0.715441 0 0.00375867
0.075776 0.745097 -3.46945e-18 0.00375249
0.715676 0.227544 0 0.00382152
0.67013 0.344091 0 0.00381602
0.624584 0.421557 0 0.0038072
0.743101 0.128874 -7.70372e-34 0.00376045
0.715676 0.239487 3.70071e-18 0.00382365
0.574156 0.491175 0 0.00379772
0.756814 0.00184055 0 0.00030024
0.523729 0.546332 0 0.00379024
0.756813 0.00558849 0 0.000826894
0.756813 0.00947248 0 0.00325106
0.756814 0.0134975 -3.46945e-18 0.00448073
0.756814 0.0155459 0 0.00446003
0.756814 0.0176687 0 0.00443326
0.756814 0.0219913 0 0.00401541
0.756814 0.0264709 0 0.0037033
0.756814 0.031113 -3.46945e-18 0.00351952
0.756813 0.0359238 -3.46945e-18 0.00344106
0.288433 0.700877 0 0.00376388
0.756814 0.0409092 -3.46945e-18 0.00343295
0.756813 0.0460755 3.46945e-18 0.0034551
0.756813 0.0514296 0 0.0034893
0.715676 0.251863 0 0.00382533
0.756813 0.0569779 0 0.00352571
0.756814 0.0627277 -3.46945e-18 0.00356014
0.756814 0.0686863 -3.46945e-18 0.00359091
0 0.76019 0 0.00375
0.756814 0.0748612 0 0.00361763
0.67013 0.360265 3.46945e-18 0.00381654
0.756814 0.0812603 -3.46945e-18 0.00364162
0.756814 0.0878917 -3.46945e-18 0.00366432
0.756814 0.0947639 -3.46945e-18 0.00368562
0.715676 0.264688 0 0.00382665
0.756813 0.101886 0 0.00370539
0.624584 0.440544 0 0.00380787
0.756813 0.109266 3.46945e-18 0.00372357
0.756813 0.116914 3.46945e-18 0.00374016
0.412065 0.645647 0 0.00377557
0.467897 0.606847 0 0.00378189
0.756814 0.120806 0 0.00374858
0.756813 0.12484 0 0.00375519
0.715676 0.27798 0 0.00382768
0.756814 0.133054 -3.46945e-18 0.0037687
0.67013 0.377026 -3.46945e-18 0.00381707
0.756814 0.137234 0 0.00377567
0.574156 0.51269 0 0.0037984
0.756813 0.141566 3.46945e-18 0.00378074
0.685312 0.352034 -7.70372e-34 0.00382199
0.743101 0.2049 -7.70372e-34 0.00382477
0.350249 0.686824 0 0.00376866
0.756814 0.150387 0 0.00379137
0.756814 0.154876 0 0.00379703
0.715676 0.291753 0 0.00382849
0.756814 0.159528 -3.46945e-18 0.00380067
0.523729 0.569849 0 0.00379079
0.72743 0.264688 0 0.00383089
0.756814 0.16418 0 0.00380572
0.151552 0.76019 0 0.0037559
0.756813 0.169001 3.46945e-18 0.0038087
0.624584 0.46022 0 0.00380855
0.219993 0.745097 0 0.00375891
0.67013 0.394396 0 0.00381762
0.756813 0.178818 -3.46945e-18 0.00381558
0.715676 0.306027 0 0.00382915
0.075776 0.775831 0 0.00375257
0.756813 0.188991 0 0.00382139
0.756814 0.199535 0 0.00382624
0.715676 0.320819 0 0.00382969
0.574156 0.534985 0 0.00379902
0.288433 0.730005 0 0.00376416
0.756813 0.21046 0 0.00383024
0.467897 0.632561 0 0.00378234
0.67013 0.412396 -3.46945e-18 0.0038182
0.624584 0.48061 -3.08149e-33 0.00380922
0.756814 0.221782 0 0.00383348
0.412065 0.67277 3.08149e-33 0.00377595
0.715676 0.336148 0 0.00383017
0 0.791472 0 0.00375
0.756813 0.233516 3.46945e-18 0.00383608
0.523729 0.594219 0 0.00379128
0.624584 0.487654 1.54074e-33 0.00380944
0.756814 0.245675 3.46945e-18 0.00383813
0.350249 0.715441 3.46945e-18 0.003769
0.67013 0.43105 0 0.0038188
0.715676 0.352034 -9.25187e-19 0.00383061
0.797951 9.08189e-19 -3.08149e-33 0.000267721
0.797951 0.00368111 2.31298e-18 0.000543886
0.797951 0.00749587 2.31298e-18 0.00208192
0.797951 0.0114491 2.31298e-18 0.00401912
0.797951 0.0141803 7.70372e-34 0.004473
0.797951 0.0155459 0 0.00469994
0.797951 0.0169611 7.70372e-34 0.00462495
0.797951 0.0197915 2.31298e-18 0.00447496
0.797951 0.0219913 0 0.00426194
0.797951 0.0241911 3.08149e-33 0.00404892
0.797951 0.0264709 0 0.00388897
0.797951 0.0287506 -3.08149e-33 0.00372902
0.797951 0.0334755 2.31298e-18 0.00354418
0.797951 0.038372 2.31298e-18 0.00346644
0.797951 0.0434463 2.31298e-18 0.00345412
0.797951 0.0487048 0 0.00347312
0.756813 0.258275 -3.46945e-18 0.00383972
0.797951 0.0541543 2.31298e-18 0.00350423
0.797951 0.0598016 2.31298e-18 0.0035383
0.797951 0.0656539 2.31298e-18 0.00357094
0.574156 0.55809 0 0.00379958
0.624584 0.501741 0 0.00380987
0.797951 0.0717187 2.31298e-18 0.00360045
0.797951 0.0780037 -3.08149e-33 0.00362709
0.797951 0.0845169 2.31298e-18 0.00365197
0.797951 0.0912666 -3.08149e-33 0.00367559
0.797951 0.0982613 2.31298e-18 0.00369776
0.756813 0.271334 0 0.00384094
0.797951 0.10551 2.31298e-18 0.00371834
0.715676 0.368496 0 0.00383105
0.151552 0.791472 0 0.00375605
0.797951 0.113022 2.31298e-18 0.00373726
0.219992 0.775831 3.46945e-18 0.00375914
0.797951 0.118211 7.70372e-34 0.00374876
0.770526 0.239487 1.54074e-33 0.00384314
0.797951 0.120806 0 0.00375452
0.67013 0.450382 3.46945e-18 0.00381943
0.797951 0.128874 3.08149e-33 0.00377014
0.467897 0.659208 0 0.00378274
0.756813 0.284866 -3.46945e-18 0.00384188
0.743101 0.320819 -7.70372e-34 0.00383959
0.797951 0.137234 0 0.00378415
0.797951 0.141566 0 0.00379037
0.797951 0.145897 -9.25187e-19 0.0037966
0.523729 0.619475 0 0.00379172
0.075776 0.807681 0 0.00375264
0.797951 0.150387 0 0.00380208
0.797951 0.154876 0 0.00380757
0.715676 0.385557 0 0.0038315
0.412065 0.700877 3.08149e-33 0.0037763
0.288433 0.76019 0 0.00376443
0.756813 0.29889 0 0.00384259
0.797951 0.16418 0 0.00381712
0.624584 0.523639 0 0.00381047
0.797951 0.167394 7.70372e-34 0.00381986
0.797951 0.173822 2.31298e-18 0.00382535
0.574156 0.582034 0 0.00380009
0.67013 0.470415 0 0.00382006
0.797951 0.183814 2.31298e-18 0.00383236
0.756813 0.313423 -3.46945e-18 0.00384314
0.797951 0.194169 -9.25187e-19 0.00383825
0.715676 0.403236 0 0.00383197
0.151552 0.807681 0 0.00375613
0.797951 0.197746 -7.70372e-34 0.00383988
0.350249 0.745097 0 0.00376931
0.797951 0.2049 3.08149e-33 0.00384314
0 0.823889 0 0.00375
0.756813 0.328483 -3.46945e-18 0.00384359
0.797951 0.21046 0 0.00384513
0.797951 0.21602 -3.08149e-33 0.00384713
0.797951 0.223703 7.70372e-34 0.00384927
0.797951 0.227544 9.25187e-19 0.00385034
0.624584 0.546332 0 0.00381102
0.715676 0.421557 0 0.00383247
0.67013 0.491176 -3.46945e-18 0.00382068
0.797951 0.231525 7.70372e-34 0.00385119
0.467897 0.686824 -3.46945e-18 0.00378311
0.523729 0.645647 0 0.00379211
0.756813 0.344091 -3.46945e-18 0.00384397
0.822721 0.120806 7.70372e-34 0.00375934
0.797951 0.239487 -3.08149e-33 0.00385289
0.822721 0.137234 7.70372e-34 0.00379062
0.835106 0.00184056 0 0.000236882
0.835106 0.00558849 0 0.00081358
0.835106 0.00947248 0 0.00343183
0.835106 0.0134975 0 0.0048971
0.835107 0.0176687 0 0.00496362
0.835106 0.0219913 -3.46945e-18 0.00446169