# kMean  POINT_DATA 63840
# x  y  z  kMean
0 0.5 3.39583e-17 0.00375
0 0.5 -0.00617931 0.00375
0 0.5 0.00617931 0.00375
0.0124865 0.5 -0.00617931 0.00375031
0.0124865 0.5 0.00617931 0.00375033
0 0.5 -0.0688207 0.00375
0 0.5 0.0688207 0.00375
0.0124865 0.5 -0.0688207 0.00375031
0.0124865 0.5 0.0688207 0.00375033
0 0.5 -0.075 0.00375
0 0.5 0.075 0.00375
0 0.5 -0.0811793 0.00375
0 0.5 0.0811793 0.00375
0.0124865 0.5 -0.0811793 0.0037503
0.0124865 0.5 0.0811793 0.00375035
0.075776 0.5 -0.0375 0.00375189
0.075776 0.5 0.0375 0.00375199
0.075776 0.5 -0.1125 0.00375186
0.075776 0.5 0.1125 0.00375215
0 0.5 -0.143821 0.00375
0 0.5 0.143821 0.00375
0.0124865 0.5 -0.143821 0.0037503
0.0124865 0.5 0.143821 0.00375035
0 0.5 -0.15 0.00375
0 0.5 0.15 0.00375
0.151149 0.5 -0.00137318 0.00375422
0 0.5 -0.156179 0.00375
0 0.5 0.156179 0.00375
0.0124865 0.5 -0.156179 0.0037503
0.0124865 0.5 0.156179 0.00375039
0.151149 0.5 0.075 0.00375442
0.151149 0.5 -0.075 0.00375414
0.075776 0.5 -0.1875 0.00375186
0.075776 0.5 0.1875 0.00375236
0.151149 0.5 0.15 0.00375471
0.151149 0.5 -0.15 0.00375415
0 0.5 -0.218821 0.00375
0 0.5 0.218821 0.00375
0.0124865 0.5 -0.218821 0.0037503
0.0124865 0.5 0.218821 0.00375039
0.219992 0.5 0.0375 0.00375646
0.219993 0.5 -0.0375 0.00375628
0 0.5 -0.225 0.00375
0 0.5 0.225 0.00375
0 0.5 -0.231179 0.00375
0 0.5 0.231179 0.00375
0.0124865 0.5 -0.231179 0.00375031
0.0124865 0.5 0.231179 0.00375043
0.219992 0.5 0.1125 0.00375677
0.219993 0.5 -0.1125 0.00375625
0.151149 0.5 -0.225 0.00375423
0.151149 0.5 0.225 0.0037551
0.075776 0.5 -0.2625 0.00375192
0.075776 0.5 0.2625 0.00375259
0.288069 0.5 -0.00137318 0.00376094
0.219992 0.5 0.1875 0.00375725
0.219993 0.5 -0.1875 0.00375633
0 0.5 0.293821 0.00375
0 0.5 -0.293821 0.00375
0.0124865 0.5 -0.293821 0.00375031
0.0124865 0.5 0.293821 0.00375043
0.288069 0.5 -0.075 0.00376088
0.288069 0.5 0.075 0.00376119
0 0.5 -0.3 0.00375
0 0.5 0.3 0.00375
0 0.5 0.306179 0.00375
0 0.5 -0.306179 0.00375
0.0124865 0.5 -0.306179 0.00375033
0.0124865 0.5 0.306179 0.00375047
0.288069 0.5 -0.15 0.00376092
0.288069 0.5 0.15 0.00376156
0.151149 0.5 -0.3 0.00375442
0.151149 0.5 0.3 0.00375556
0.219992 0.5 -0.2625 0.00375652
0.219992 0.5 0.2625 0.00375786
0.075776 0.5 0.3375 0.00375285
0.075776 0.5 -0.3375 0.00375204
0.350249 0.5 -0.0375 0.00376521
0.350249 0.5 0.0375 0.00376534
0.288069 0.5 -0.225 0.00376107
0.288069 0.5 0.225 0.00376208
0.350249 0.5 0.1125 0.00376561
0.350249 0.5 -0.1125 0.00376521
0 0.5 0.368821 0.00375
0 0.5 -0.368821 0.00375
0.0124865 0.5 -0.368821 0.00375033
0.0124865 0.5 0.368821 0.00375047
0 0.5 -0.375 0.00375
0 0.5 0.375 0.00375
0 0.5 -0.381179 0.00375
0 0.5 0.381179 0.00375
0.0124865 0.5 -0.381179 0.00375036
0.0124865 0.5 0.381179 0.00375051
0.350249 0.5 -0.1875 0.00376532
0.350249 0.5 0.1875 0.00376602
0.219992 0.5 -0.3375 0.00375689
0.219992 0.5 0.3375 0.00375855
0.151149 0.5 -0.375 0.0037547
0.151149 0.5 0.375 0.00375604
0.411736 0.5 -0.00137318 0.00377244
0.288069 0.5 -0.3 0.00376138
0.288069 0.5 0.3 0.00376275
0.411736 0.5 -0.075 0.00377243
0.411736 0.5 0.075 0.00377263
0.075776 0.5 -0.4125 0.00375219
0.075776 0.5 0.4125 0.0037531
0.350249 0.5 -0.2625 0.00376554
0.350249 0.5 0.2625 0.00376663
0.411736 0.5 -0.15 0.00377245
0.411736 0.5 0.15 0.00377289
0 0.5 -0.443821 0.00375
0 0.5 0.443821 0.00375
0.0124865 0.5 -0.443821 0.00375036
0.0124865 0.5 0.443821 0.00375051
0 0.5 -0.45 0.00375
0 0.5 0.45 0.00375
0 0.5 -0.456179 0.00375
0 0.5 0.456179 0.00375
0.0124865 0.5 -0.456179 0.00375039
0.0124865 0.5 0.456179 0.00375055
0.219992 0.5 -0.4125 0.00375733
0.219993 0.5 0.4125 0.00375927
0.411736 0.5 -0.225 0.00377256
0.411736 0.5 0.225 0.00377328
0.467897 0.5 0.0375 0.00377929
0.467897 0.5 -0.0375 0.00377923
0.288069 0.5 -0.375 0.0037618
0.288069 0.5 0.375 0.00376349
0.151149 0.5 -0.45 0.00375501
0.151149 0.5 0.45 0.00375654
0.467897 0.5 -0.1125 0.0037792
0.467897 0.5 0.1125 0.00377942
0.350249 0.5 0.3375 0.00376738
0.350249 0.5 -0.3375 0.00376597
0.075776 0.5 -0.4875 0.00375236
0.075776 0.5 0.4875 0.00375335
0.467897 0.5 -0.1875 0.00377922
0.467897 0.5 0.1875 0.00377964
0.411736 0.5 -0.3 0.0037728
0.411736 0.5 0.3 0.00377383
0 0.5 -0.518821 0.00375
0 0.5 0.518821 0.00375
0.0124865 0.5 0.518821 0.00375055
0.0124865 0.5 -0.518821 0.00375039
0.523432 0.5 -0.00137318 0.00378883
0 0.5 -0.525 0.00375
0 0.5 0.525 0.00375
0.523432 0.5 -0.075 0.00378882
0.523432 0.5 0.075 0.00378896
0 0.5 -0.531179 0.00375
0 0.5 0.531179 0.00375
0.0124865 0.5 -0.531179 0.00375042
0.0124865 0.5 0.531179 0.00375059
0.288069 0.5 -0.45 0.00376226
0.288069 0.5 0.45 0.00376427
0.219992 0.5 -0.4875 0.00375781
0.219993 0.5 0.4875 0.00375999
0.467897 0.5 -0.2625 0.00377932
0.467897 0.5 0.2625 0.00377999
0.350249 0.5 -0.4125 0.00376643
0.350249 0.5 0.4125 0.0037682
0.523432 0.5 -0.15 0.00378874
0.523432 0.5 0.15 0.00378903
0.151149 0.5 -0.525 0.00375534
0.151149 0.5 0.525 0.00375701
0.411736 0.5 -0.375 0.00377312
0.411736 0.5 0.375 0.00377449
0.075776 0.5 -0.5625 0.00375254
0.075776 0.5 0.5625 0.00375357
0.523432 0.5 -0.225 0.00378867
0.523432 0.5 0.225 0.00378916
0.574156 0.5 -0.0375 0.00379796
0.574156 0.5 0.0375 0.00379803
0.467897 0.5 0.3375 0.0037805
0.467897 0.5 -0.3375 0.00377955
0.574156 0.5 -0.1125 0.00379782
0.574156 0.5 0.1125 0.00379802
0 0.5 -0.593821 0.00375
0 0.5 0.593821 0.00375
0.0124865 0.5 -0.593821 0.00375042
0.0124865 0.5 0.593821 0.00375059
0.288069 0.5 -0.525 0.00376272
0.288069 0.5 0.525 0.00376504
0 0.5 -0.6 0.00375
0 0.5 0.6 0.00375
0.350249 0.5 -0.4875 0.00376688
0.350249 0.5 0.4875 0.00376904
0.523432 0.5 -0.3 0.00378863
0.523432 0.5 0.3 0.00378938
0.219992 0.5 -0.5625 0.00375829
0.219992 0.5 0.5625 0.00376067
0.574156 0.5 -0.1875 0.00379764
0.574156 0.5 0.1875 0.00379799
0 0.5 -0.606179 0.00375
0 0.5 0.606179 0.00375
0.0124865 0.5 -0.606179 0.00375045
0.0124865 0.5 0.606179 0.00375062
0.411736 0.5 -0.45 0.00377341
0.411736 0.5 0.45 0.00377521
0.151149 0.5 -0.6 0.00375567
0.151149 0.5 0.6 0.00375745
0.62168 0.5 2.64545e-17 0.00380906
0.467897 0.5 0.4125 0.00378109
0.467897 0.5 -0.4125 0.00377972
0.624316 0.5 0.0729402 0.0038098
0.624316 0.5 -0.075 0.00380958
0.574156 0.5 -0.2625 0.00379746
0.574157 0.5 0.2625 0.00379797
0.075776 0.5 -0.6375 0.00375271
0.075776 0.5 0.6375 0.00375376
0.624316 0.5 -0.15 0.00380926
0.624316 0.5 0.15 0.00380969
0.523432 0.5 -0.375 0.00378854
0.523432 0.5 0.375 0.0037897
0.350249 0.5 -0.5625 0.0037673
0.350249 0.5 0.5625 0.00376985
0.624316 0.5 -0.225 0.00380884
0.624316 0.5 0.225 0.00380949
0.288069 0.5 0.6 0.00376576
0.288069 0.5 -0.6 0.00376314
0.574156 0.5 -0.3375 0.00379716
0.574156 0.5 0.3375 0.00379805
0.411736 0.5 -0.525 0.00377365
0.411736 0.5 0.525 0.00377592
0 0.5 -0.668821 0.00375
0 0.5 0.668821 0.00375
0.0124865 0.5 -0.668821 0.00375045
0.0124865 0.5 0.668821 0.00375062
0.67013 0.5 0.0375 0.00382101
0.67013 0.5 -0.0375 0.00382084
0.219993 0.5 -0.6375 0.00375873
0.219993 0.5 0.6375 0.0037613
0 0.5 -0.675 0.00375
0 0.5 0.675 0.00375
0.467897 0.5 0.4875 0.00378172
0.467897 0.5 -0.4875 0.00377982
0.67013 0.5 -0.1125 0.00382047
0.67013 0.5 0.1125 0.00382092
0 0.5 -0.681179 0.00375
0 0.5 0.681179 0.00375
0.0124865 0.5 -0.681179 0.00375047
0.0124865 0.5 0.681179 0.00375065
0.523432 0.5 -0.45 0.00378836
0.523432 0.5 0.45 0.00379007
0.151149 0.5 -0.675 0.00375596
0.151149 0.5 0.675 0.00375783
0.624316 0.5 -0.3 0.00380827
0.624316 0.5 0.3 0.00380927
0.67013 0.5 0.1875 0.00382062
0.67013 0.5 -0.1875 0.00381993
0.574156 0.5 -0.4125 0.00379676
0.574157 0.5 0.4125 0.00379818
0.708171 0.5 1.88651e-17 0.00383232
0.075776 0.5 -0.7125 0.00375286
0.075776 0.5 0.7125 0.00375392
0.715434 0.5 0.0736268 0.00383432
0.715434 0.5 -0.075 0.00383409
0.67013 0.5 0.2625 0.00382019
0.67013 0.5 -0.2625 0.00381917
0.350249 0.5 -0.6375 0.00376765
0.350249 0.5 0.6375 0.0037706
0.411736 0.5 -0.6 0.00377381
0.411736 0.5 0.6 0.0037766
0.624316 0.5 -0.375 0.00380753
0.624316 0.5 0.375 0.00380908
0.715434 0.5 -0.15 0.0038334
0.715434 0.5 0.15 0.00383434
0.467897 0.5 -0.5625 0.00377982
0.467897 0.5 0.5625 0.00378232
0.288069 0.5 -0.675 0.0037635
0.288069 0.5 0.675 0.0037664
0.523432 0.5 -0.525 0.00378805
0.523432 0.5 0.525 0.00379044
0 0.5 -0.743821 0.00375
0 0.5 0.743821 0.00375
0.0124865 0.5 -0.743821 0.00375047
0.0124865 0.5 0.743821 0.00375065
0.219992 0.5 0.7125 0.00376183
0.219992 0.5 -0.7125 0.00375913
0.715434 0.5 -0.225 0.0038324
0.715434 0.5 0.225 0.00383381
0 0.5 -0.75 0.00375
0 0.5 0.75 0.00375
0.67013 0.5 0.3375 0.0038197
0.67013 0.5 -0.3375 0.00381816
0.574156 0.5 -0.4875 0.0037962
0.574156 0.5 0.4875 0.00379833
0 0.5 -0.756179 0.00375
0 0.5 0.756179 0.00375
0.0124865 0.5 -0.756179 0.00375049
0.0124865 0.5 0.756179 0.00375066
0.756813 0.5 -0.0375 0.00384727
0.756813 0.5 0.0375 0.00384763
0.151149 0.5 -0.75 0.00375622
0.151149 0.5 0.75 0.00375815
0.756813 0.5 -0.1125 0.00384653
0.756813 0.5 0.1125 0.00384754
0.624316 0.5 -0.45 0.0038066
0.624316 0.5 0.45 0.00380889
0.715434 0.5 -0.3 0.00383109
0.715434 0.5 0.3 0.00383309
0.756813 0.5 0.1875 0.00384702
0.756813 0.5 -0.1875 0.00384541
0.67013 0.5 -0.4125 0.00381694
0.67013 0.5 0.4125 0.00381924
0.411736 0.5 -0.675 0.00377386
0.411736 0.5 0.675 0.0037772
0.467897 0.5 0.6375 0.00378286
0.467897 0.5 -0.6375 0.0037797
0.075776 0.5 -0.7875 0.00375298
0.075776 0.5 0.7875 0.00375403
0.350249 0.5 -0.7125 0.00376792
0.350249 0.5 0.7125 0.00377126
0.523432 0.5 -0.6 0.0037876
0.523432 0.5 0.6 0.00379075
0.797732 0.5 2.68882e-17 0.00386241
0.756813 0.5 -0.2625 0.00384388
0.756814 0.5 0.2625 0.00384616
0.797732 0.5 0.0736268 0.00386254
0.797732 0.5 -0.075 0.00386165
0.288069 0.5 -0.75 0.00376379
0.288069 0.5 0.75 0.00376694
0.574156 0.5 -0.5625 0.00379546
0.574157 0.5 0.5625 0.00379844
0.715434 0.5 -0.375 0.00382947
0.715434 0.5 0.375 0.00383226
0.797732 0.5 -0.15 0.00386041
0.797732 0.5 0.15 0.00386232
0.624316 0.5 -0.525 0.00380545
0.624316 0.5 0.525 0.00380867
0.219992 0.5 -0.7875 0.00375946
0.219992 0.5 0.7875 0.00376226
0 0.5 -0.818821 0.00375
0 0.5 0.818821 0.00375
0.0124865 0.5 0.818821 0.00375066
0.0124865 0.5 -0.818821 0.00375049
0 0.5 -0.825 0.00375
0 0.5 0.825 0.00375
0.756813 0.5 0.3375 0.00384506
0.756814 0.5 -0.3375 0.00384199
0.67013 0.5 -0.4875 0.00381544
0.67013 0.5 0.4875 0.00381873
0.797732 0.5 -0.225 0.00385867
0.797732 0.5 0.225 0.00386148
0 0.5 -0.831179 0.00375
0 0.5 0.831179 0.00375
0.0124865 0.5 -0.831179 0.00375051
0.0124865 0.5 0.831179 0.00375068
0.835106 0.5 0.0375 0.00387707
0.835106 0.5 -0.0375 0.0038764
0.151149 0.5 -0.825 0.00375642
0.151149 0.5 0.825 0.00375839
0.835106 0.5 0.1125 0.00387706
0.835106 0.5 -0.1125 0.00387515
0.715434 0.5 -0.45 0.00382754
0.715434 0.5 0.45 0.00383137
0.797732 0.5 -0.3 0.00385645
0.797732 0.5 0.3 0.00386024
0.467897 0.5 0.7125 0.00378331
0.467897 0.5 -0.7125 0.00377946
0.523432 0.5 -0.675 0.00378701
0.523432 0.5 0.675 0.003791
0.411736 0.5 -0.75 0.00377381
0.411736 0.5 0.75 0.00377769
0.835106 0.5 -0.1875 0.00387331
0.835106 0.5 0.1875 0.00387637
0.574156 0.5 -0.6375 0.00379456
0.574157 0.5 0.6375 0.00379849
0.350249 0.5 -0.7875 0.00376807
0.350249 0.5 0.7875 0.0037718
0.756813 0.5 -0.4125 0.00383968
0.756814 0.5 0.4125 0.00384382
0.075776 0.5 -0.8625 0.00375308
0.075776 0.5 0.8625 0.00375411
0.624316 0.5 0.6 0.00380838
0.624316 0.5 -0.6 0.0038041
0.872064 0.5 5.91974e-17 0.00389311
0.870122 0.5 0.075 0.00389258
0.288069 0.5 -0.825 0.00376398
0.288069 0.5 0.825 0.00376737
0.67013 0.5 -0.5625 0.0038137
0.67013 0.5 0.5625 0.00381813
0.872064 0.5 -0.075 0.00389187
0.835106 0.5 -0.2625 0.00387087
0.835106 0.5 0.2625 0.00387511
0.797732 0.5 -0.375 0.00385374
0.797732 0.5 0.375 0.0038587
0.872064 0.5 0.14794 0.00389325
0.872064 0.5 -0.15 0.00388993
0.715434 0.5 -0.525 0.0038253
0.715434 0.5 0.525 0.00383039
0.219992 0.5 0.8625 0.00376259
0.219993 0.5 -0.8625 0.00375971
0 0.5 -0.893821 0.00375
0 0.5 0.893821 0.00375
0.0124865 0.5 -0.893821 0.00375051
0.0124865 0.5 0.893821 0.00375068
0 0.5 -0.9 0.00375
0 0.5 0.9 0.00375
0.756813 0.5 -0.4875 0.00383702
0.756813 0.5 0.4875 0.00384252
0.872064 0.5 -0.225 0.00388728
0.872064 0.5 0.225 0.00389213
0.835106 0.5 -0.3375 0.00386791
0.835106 0.5 0.3375 0.00387339
0 0.5 0.906179 0.00375
0 0.5 -0.906179 0.00375
0.0124865 0.5 -0.906179 0.00375052
0.0124865 0.5 0.906179 0.00375069
0.90582 0.5 -0.0375 0.0039083
0.90582 0.5 0.0375 0.0039094
0.151149 0.5 -0.9 0.00375656
0.151149 0.5 0.9 0.00375855
0.90582 0.5 -0.1125 0.00390638
0.905821 0.5 0.1125 0.00390955
0.523432 0.5 -0.75 0.00378628
0.523432 0.5 0.75 0.00379114
0.574156 0.5 -0.7125 0.0037935
0.574156 0.5 0.7125 0.00379844
0.797732 0.5 -0.45 0.00385057
0.797732 0.5 0.45 0.00385698
0.467897 0.5 0.7875 0.00378365
0.467897 0.5 -0.7875 0.00377909
0.624316 0.5 -0.675 0.00380257
0.624316 0.5 0.675 0.003808
0.411736 0.5 -0.825 0.00377363
0.411736 0.5 0.825 0.00377805
0.872064 0.5 0.3 0.00389036
0.872064 0.5 -0.3 0.00388395
0.67013 0.5 -0.6375 0.00381174
0.67013 0.5 0.6375 0.00381744
0.90582 0.5 0.1875 0.00390873
0.905821 0.5 -0.1875 0.00390368
0.350249 0.5 -0.8625 0.00376812
0.350249 0.5 0.8625 0.0037722
0.835106 0.5 -0.4125 0.00386429
0.835106 0.5 0.4125 0.0038713
0.715434 0.5 -0.6 0.0038228
0.715434 0.5 0.6 0.00382929
0.939201 0.5 2.75387e-17 0.00392519
0.075776 0.5 0.9375 0.00375415
0.075776 0.5 -0.9375 0.00375315
0.939111 0.5 0.075 0.00392605
0.939201 0.5 -0.075 0.0039234
0.756813 0.5 0.5625 0.00384106
0.756814 0.5 -0.5625 0.00383403
0.90582 0.5 0.2625 0.00390703
0.905821 0.5 -0.2625 0.00390007
0.288069 0.5 -0.9 0.00376407
0.288069 0.5 0.9 0.00376766
0.872064 0.5 -0.375 0.00387999
0.872064 0.5 0.375 0.00388807
0.939201 0.5 0.148627 0.00392573
0.939201 0.5 -0.15 0.00392074
0.797732 0.5 -0.525 0.00384704
0.797732 0.5 0.525 0.00385512
0.219992 0.5 0.9375 0.00376279
0.219992 0.5 -0.9375 0.00375987
0.939201 0.5 -0.225 0.00391714
0.939201 0.5 0.225 0.00392463
0.905821 0.5 -0.3375 0.00389581
0.90582 0.5 0.3375 0.00390466
0.835106 0.5 -0.4875 0.00386026
0.835106 0.5 0.4875 0.00386911
0 0.5 0.968821 0.00375
0 0.5 -0.968821 0.00375
0.0124865 0.5 -0.968821 0.00375052
0.0124865 0.5 0.968821 0.00375069
0.969689 0.5 -0.0375 0.00394018
0.969689 0.5 0.0375 0.00394176
0.574156 0.5 -0.7875 0.00379229
0.574156 0.5 0.7875 0.00379828
0 0.5 -0.975 0.00375
0 0.5 0.975 0.00375
0.624316 0.5 -0.75 0.00380088
0.624316 0.5 0.75 0.00380751
0.969689 0.5 -0.1125 0.00393765
0.96969 0.5 0.1125 0.00394229
0.523432 0.5 -0.825 0.00378541
0.523432 0.5 0.825 0.00379115
0.67013 0.5 0.7125 0.00381664
0.67013 0.5 -0.7125 0.0038096
0 0.5 -0.981179 0.00375
0 0.5 0.981179 0.00375
0.467897 0.5 0.8625 0.00378385
0.467897 0.5 -0.8625 0.00377859
0.0124865 0.5 -0.981179 0.00375053
0.0124865 0.5 0.981179 0.00375069
0.872064 0.5 -0.45 0.00387547
0.872064 0.5 0.45 0.00388544
0.715434 0.5 -0.675 0.00382009
0.715434 0.5 0.675 0.00382807
0.939201 0.5 -0.3 0.00391258
0.939201 0.5 0.3 0.00392241
0.151149 0.5 0.975 0.00375865
0.151149 0.5 -0.975 0.00375665
0.969689 0.5 -0.1875 0.00393419
0.969689 0.5 0.1875 0.00394169
0.756813 0.5 -0.6375 0.00383079
0.756813 0.5 0.6375 0.00383945
0.411736 0.5 -0.9 0.00377334
0.411736 0.5 0.9 0.00377827
0.90582 0.5 -0.4125 0.00389089
0.90582 0.5 0.4125 0.00390173
0.995005 0.5 0.0749309 0.00395434
0.797732 0.5 -0.6 0.00384319
0.797732 0.5 0.6 0.00385306
1.00005 0.5 -8.47123e-18 0.00395575
0.350249 0.5 -0.9375 0.00376805
0.350249 0.5 0.9375 0.00377245
1.00005 0.5 -0.0749309 0.00395348
0.969689 0.5 -0.2625 0.00392958
0.969689 0.5 0.2625 0.00393991
0.835106 0.5 -0.5625 0.00385586
0.835106 0.5 0.5625 0.00386666
1.00005 0.5 -0.149862 0.00395022
0.939201 0.5 -0.375 0.00390717
0.939201 0.5 0.375 0.00391935
1.00029 0.5 0.148988 0.00395683
0.075776 0.5 -1.0125 0.00375319
0.075776 0.5 1.0125 0.00375416
0.288069 0.5 0.975 0.00376782
0.288069 0.5 -0.975 0.00376406
0.872064 0.5 -0.525 0.00387046
0.872064 0.5 0.525 0.00388257
1.00005 0.5 0.224793 0.0039561
1.00005 0.5 -0.224793 0.00394587
0.969689 0.5 0.3375 0.0039369
0.96969 0.5 -0.3375 0.00392385
1.0271 0.5 -0.0368226 0.00397093
1.0271 0.5 0.0368226 0.00397291
0.90582 0.5 0.4875 0.00389845
0.905821 0.5 -0.4875 0.00388541
1.0271 0.5 -0.110468 0.00396792
1.0271 0.5 0.110468 0.00397573
0.67013 0.5 0.7875 0.00381573
0.67013 0.5 -0.7875 0.00380732
0.624316 0.5 0.825 0.0038069
0.624316 0.5 -0.825 0.00379906
0.219993 0.5 -1.0125 0.00375994
0.219993 0.5 1.0125 0.00376289
0.574156 0.5 -0.8625 0.00379096
0.574156 0.5 0.8625 0.00379799
0.715434 0.5 -0.75 0.00381721
0.715434 0.5 0.75 0.00382671
0.756813 0.5 0.7125 0.00383769
0.756814 0.5 -0.7125 0.00382735
0.523432 0.5 -0.9 0.00378442
0.523432 0.5 0.9 0.00379102
0.939201 0.5 -0.45 0.003901
0.939201 0.5 0.45 0.00391568
1.04168 0.5 0 0.00398024
1.0271 0.5 -0.184113 0.00396387
1.0271 0.5 0.184113 0.00397359
0 0.5 -1.04382 0.00375
0 0.5 1.04382 0.00375
0.0124865 0.5 -1.04382 0.00375053
0.0124865 0.5 1.04382 0.00375069
1.00005 0.5 -0.299723 0.00394034
1.00005 0.5 0.299723 0.0039538
1.04168 0.5 -0.0729162 0.00397763
1.04168 0.5 0.0729162 0.00398179
0.797732 0.5 -0.675 0.00383909
0.797732 0.5 0.675 0.0038508
0.467897 0.5 0.9375 0.00378388
0.467897 0.5 -0.9375 0.00377796
0 0.5 -1.05 0.00375
0 0.5 1.05 0.00375
0.835106 0.5 -0.6375 0.00385115
0.835106 0.5 0.6375 0.00386396
1.04168 0.5 -0.145832 0.00397396
1.04168 0.5 0.145832 0.00398225
0.969689 0.5 -0.4125 0.00391718
0.96969 0.5 0.4125 0.003933
0 0.5 -1.05618 0.00375
0 0.5 1.05618 0.00375
0.0124865 0.5 -1.05618 0.00375053
0.0124865 0.5 1.05618 0.00375068
1.05695 0.5 -0.0360764 0.00398752
1.05695 0.5 0.0360764 0.00398973
0.411736 0.5 -0.975 0.00377292
0.411736 0.5 0.975 0.00377833
0.872064 0.5 -0.6 0.00386503
0.872064 0.5 0.6 0.00387943
1.0271 0.5 -0.257759 0.00395862
1.0271 0.5 0.257759 0.00397212
0.151149 0.5 -1.05 0.00375668
0.151149 0.5 1.05 0.00375866
1.05695 0.5 0.108229 0.00399259
1.05695 0.5 -0.108229 0.00398425
1.04168 0.5 -0.218749 0.00396916
1.04168 0.5 0.218749 0.00398153
0.90582 0.5 -0.5625 0.00387936
0.905821 0.5 0.5625 0.00389491
1.00005 0.5 -0.374654 0.00393373
1.00005 0.5 0.374654 0.00395034
0.350249 0.5 1.0125 0.00377254
0.350249 0.5 -1.0125 0.00376787
1.05695 0.5 -0.180382 0.0039799
1.05695 0.5 0.180382 0.00399086
1.07319 0.5 0.0709442 0.00400074
0.939201 0.5 -0.525 0.00389426
0.939201 0.5 0.525 0.00391164
1.0271 0.5 -0.331404 0.00395217
1.0271 0.5 0.331404 0.0039693
1.08112 0.5 3.23815e-17 0.00400336
1.04168 0.5 -0.291665 0.00396315
1.04168 0.5 0.291665 0.00397949
1.08112 0.5 -0.0709442 0.0040004
0.969689 0.5 -0.4875 0.00390963
0.96969 0.5 0.4875 0.00392848
1.05695 0.5 0.252535 0.00398963
1.05695 0.5 -0.252535 0.00397433
0.288069 0.5 -1.05 0.00376395
0.288069 0.5 1.05 0.00376785
0.075776 0.5 -1.0875 0.0037532
0.075776 0.5 1.0875 0.00375412
1.08112 0.5 -0.141888 0.00399634
1.08145 0.5 0.140165 0.00400545
0.715434 0.5 0.825 0.00382524
0.715434 0.5 -0.825 0.00381419
0.756813 0.5 0.7875 0.0038358
0.756814 0.5 -0.7875 0.00382375
0.67013 0.5 -0.8625 0.00380491
0.67013 0.5 0.8625 0.0038147
0.797732 0.5 -0.75 0.0038348
0.797732 0.5 0.75 0.0038484
0.624316 0.5 -0.9 0.00379712
0.624316 0.5 0.9 0.00380616
1.00005 0.5 -0.449585 0.00392616
1.00005 0.5 0.449585 0.003946
0.835106 0.5 -0.7125 0.0038462
0.835106 0.5 0.7125 0.00386106
0.574156 0.5 -0.9375 0.0037895
0.574157 0.5 0.9375 0.00379756
1.10076 0.5 -0.0349809 0.00401422
1.10076 0.5 0.0349809 0.00401681
1.08112 0.5 -0.212832 0.00399111
1.08112 0.5 0.212832 0.00400557
0.872064 0.5 -0.675 0.00385931
0.872064 0.5 0.675 0.00387604
1.04168 0.5 -0.364581 0.00395603
1.04168 0.5 0.364581 0.00397617
1.0271 0.5 0.405049 0.00396535
1.0271 0.5 -0.405049 0.0039447
1.05695 0.5 -0.324688 0.00396756
1.05695 0.5 0.324688 0.00398702
1.10076 0.5 -0.104943 0.00401053
1.10076 0.5 0.104943 0.00401824
0.523432 0.5 0.975 0.00379073
0.523432 0.5 -0.975 0.00378331
0.90582 0.5 0.6375 0.0038911
0.905821 0.5 -0.6375 0.00387286
0.219992 0.5 1.0875 0.00376286
0.219992 0.5 -1.0875 0.00375993
1.11376 0.5 3.81639e-17 0.00402381
0.939201 0.5 0.6 0.00390724
0.939201 0.5 -0.6 0.00388717
1.10076 0.5 -0.174905 0.00400571
1.10076 0.5 0.174905 0.00401862
0.467897 0.5 -1.0125 0.00377721
0.467897 0.5 1.0125 0.00378375
1.11376 0.5 -0.0693118 0.00402053
1.11376 0.5 0.0693118 0.00402593
1.08112 0.5 0.283777 0.00400385
1.08112 0.5 -0.283777 0.00398467
0 0.5 -1.11882 0.00375
0 0.5 1.11882 0.00375
0.0124865 0.5 -1.11882 0.00375053
0.0124865 0.5 1.11882 0.00375068
0.969689 0.5 -0.5625 0.00390184
0.969689 0.5 0.5625 0.0039237
1.11376 0.5 0.138624 0.00402697
1.11376 0.5 -0.138624 0.00401613
0 0.5 -1.125 0.00375
0 0.5 1.125 0.00375
1.10076 0.5 0.244866 0.00401777
1.10076 0.5 -0.244866 0.00399963
0.411736 0.5 -1.05 0.00377238
0.411736 0.5 1.05 0.00377822
1.05695 0.5 -0.396841 0.00395977
1.05695 0.5 0.396841 0.00398318
1.00005 0.5 -0.524516 0.0039179
1.00005 0.5 0.524516 0.003941
1.04168 0.5 -0.437497 0.0039479
1.04168 0.5 0.437497 0.00397179
0 0.5 -1.13118 0.00375
0 0.5 1.13118 0.00375
0.0124865 0.5 -1.13118 0.00375053
0.0124865 0.5 1.13118 0.00375067
1.11376 0.5 -0.207935 0.00401052
1.11376 0.5 0.207935 0.00402681
1.0271 0.5 -0.478694 0.00393627
1.0271 0.5 0.478694 0.0039605
0.151149 0.5 -1.125 0.00375665
0.151149 0.5 1.125 0.00375858
1.08112 0.5 -0.354722 0.00397712
1.08112 0.5 0.354722 0.00400079
1.13882 0.5 -0.0340295 0.00403867
1.13882 0.5 0.0340295 0.00404163
0.350249 0.5 -1.0875 0.00376756
0.350249 0.5 1.0875 0.00377249
1.13882 0.5 -0.102088 0.00403456
1.13882 0.5 0.102088 0.0040444
1.10076 0.5 -0.314829 0.00399238
1.10076 0.5 0.314829 0.00401553
0.756813 0.5 -0.8625 0.00382005
0.756814 0.5 0.8625 0.00383378
0.797732 0.5 -0.825 0.00383041
0.797732 0.5 0.825 0.00384586
1.11376 0.5 -0.277247 0.00400369
1.11376 0.5 0.277247 0.00402538
0.835106 0.5 0.7875 0.00385803
0.835106 0.5 -0.7875 0.00384113
0.715434 0.5 -0.9 0.00381108
0.715434 0.5 0.9 0.00382364
0.872064 0.5 -0.75 0.00385343
0.872064 0.5 0.75 0.00387241
1.13882 0.5 0.170147 0.00404404
1.13882 0.5 -0.170147 0.00402926
0.67013 0.5 -0.9375 0.00380239
0.67013 0.5 0.9375 0.00381354
0.905821 0.5 -0.7125 0.0038662
0.905821 0.5 0.7125 0.00388698
1.05695 0.5 0.468994 0.00397835
1.05695 0.5 -0.468994 0.003951
0.939201 0.5 -0.675 0.00387979
0.939201 0.5 0.675 0.00390252
0.624316 0.5 0.975 0.00380527
0.624316 0.5 -0.975 0.00379506
1.04168 0.5 -0.510414 0.00393897
1.04168 0.5 0.510414 0.00396651
0.969689 0.5 -0.6375 0.00389386
0.96969 0.5 0.6375 0.00391829
0.288069 0.5 -1.125 0.00376374
0.288069 0.5 1.125 0.00376774
1.16179 0.5 5.78241e-19 0.00405625
1.08112 0.5 0.425666 0.00399655
1.08112 0.5 -0.425666 0.00396857
1.13882 0.5 -0.238206 0.00402271
1.13882 0.5 0.238206 0.00404352
1.16179 0.5 0.0669104 0.00406154
1.16179 0.5 -0.0669104 0.00405244
0.574156 0.5 -1.0125 0.00378793
0.574156 0.5 1.0125 0.00379695
0.075776 0.5 -1.1625 0.00375319
0.075776 0.5 1.1625 0.00375405
1.00005 0.5 -0.599447 0.00390927
1.00005 0.5 0.599447 0.00393532
1.10076 0.5 0.384791 0.00401195
1.10076 0.5 -0.384791 0.00398411
1.0271 0.5 -0.55234 0.0039272
1.0271 0.5 0.55234 0.00395482
1.11376 0.5 -0.346559 0.00399578
1.11376 0.5 0.346559 0.00402257
1.16179 0.5 -0.133821 0.00404744
1.16179 0.5 0.133821 0.00406065
0.523432 0.5 -1.05 0.00378208
0.523432 0.5 1.05 0.00379027
1.17463 0.5 -0.0331343 0.00406288
1.17463 0.5 0.0331343 0.00406623
1.17463 0.5 -0.0994029 0.00405835
1.17463 0.5 0.0994029 0.00406828
1.16179 0.5 -0.200731 0.00404119
1.16179 0.5 0.200731 0.00406051
1.13882 0.5 -0.306265 0.004015
1.13882 0.5 0.306265 0.00404163
0.219992 0.5 -1.1625 0.00375984
0.219992 0.5 1.1625 0.0037627
0.467897 0.5 -1.0875 0.00377633
0.467897 0.5 1.0875 0.00378345
1.17463 0.5 0.165672 0.00406922
1.17463 0.5 -0.165672 0.00405259
1.05695 0.5 -0.541147 0.0039416
1.05695 0.5 0.541147 0.00397262
1.18772 0.5 -5.78241e-19 0.00407402
1.11376 0.5 -0.41587 0.00398687
1.11376 0.5 0.41587 0.00401849
1.18772 0.5 -0.065614 0.00406991
1.18772 0.5 0.065614 0.004077
1.08112 0.5 -0.49661 0.00395924
1.08112 0.5 0.49661 0.0039913
1.10076 0.5 -0.454752 0.00397488
1.10076 0.5 0.454752 0.00400723
1.18534 0.5 0.118202 0.00407848
1.16179 0.5 -0.267642 0.00403372
1.16179 0.5 0.267642 0.00405952
0 0.5 -1.19382 0.00375
0 0.5 1.19382 0.00375
0.0124865 0.5 1.19382 0.00375067
0.0124865 0.5 -1.19382 0.00375053
1.04168 0.5 -0.58333 0.00392951
1.04168 0.5 0.58333 0.00396031
1.18772 0.5 -0.131228 0.00406458
1.17463 0.5 -0.23194 0.00404555
1.17463 0.5 0.23194 0.00406901
0.411736 0.5 -1.125 0.00377173
0.411736 0.5 1.125 0.00377799
1.13882 0.5 -0.374324 0.00400627
1.13882 0.5 0.374324 0.00403833
0 0.5 -1.2 0.00375
0 0.5 1.2 0.00375
0.905821 0.5 0.7875 0.00388257
0.905821 0.5 -0.7875 0.00385946
0.872064 0.5 -0.825 0.00384748
0.872064 0.5 0.825 0.00386858
0.835106 0.5 0.8625 0.00385487
0.835106 0.5 -0.8625 0.00383599
0.939201 0.5 -0.75 0.00387224
0.939201 0.5 0.75 0.00389764
0.797732 0.5 -0.9 0.00382595
0.797732 0.5 0.9 0.00384321
1.0271 0.5 0.625985 0.00394823
1.0271 0.5 -0.625985 0.0039177
0.969689 0.5 0.7125 0.0039128
0.96969 0.5 -0.7125 0.00388554
1.18772 0.5 -0.196842 0.00405798
1.18772 0.5 0.196842 0.00407895
0.756814 0.5 -0.9375 0.00381629
0.756814 0.5 0.9375 0.00383166
0 0.5 1.20618 0.00375
0 0.5 -1.20618 0.00375
1.00005 0.5 -0.674378 0.0039003
1.00005 0.5 0.674378 0.00392922
0.0124865 0.5 1.20618 0.00375065
0.0124865 0.5 -1.20618 0.00375052
1.16179 0.5 -0.334552 0.00402517
1.16179 0.5 0.334552 0.00405713
0.715434 0.5 0.975 0.00382193
0.715434 0.5 -0.975 0.0038079
0.151149 0.5 -1.2 0.00375657
0.151149 0.5 1.2 0.00375843
1.20942 0.5 0.0322645 0.00409223
1.20942 0.5 -0.0322645 0.00408808
1.17463 0.5 -0.298209 0.00403735
1.17463 0.5 0.298209 0.00406744
1.20942 0.5 -0.0967935 0.00408308
1.20942 0.5 0.0967935 0.00409425
0.350249 0.5 -1.1625 0.00376715
0.350249 0.5 1.1625 0.0037723
0.67013 0.5 1.0125 0.00381223
0.67013 0.5 -1.0125 0.00379979
1.11376 0.5 0.485183 0.00401333
1.11376 0.5 -0.485183 0.00397721
1.18772 0.5 0.262456 0.00407816
1.18772 0.5 -0.262456 0.00405016
1.10076 0.5 -0.524714 0.00396505
1.10076 0.5 0.524714 0.00400155
1.20942 0.5 -0.161322 0.00407681
1.20942 0.5 0.161322 0.00409547
1.08112 0.5 -0.567554 0.00394937
1.08112 0.5 0.567554 0.00398509
0.624316 0.5 -1.05 0.00379292
0.624316 0.5 1.05 0.00380423
1.13882 0.5 -0.442383 0.00399663
1.13882 0.5 0.442383 0.00403379
1.05695 0.5 0.6133 0.00396591
1.05695 0.5 -0.6133 0.00393174
1.16179 0.5 -0.401463 0.00401566
1.16179 0.5 0.401463 0.00405335
0.574156 0.5 -1.0875 0.00378626
0.574156 0.5 1.0875 0.00379618
1.17463 0.5 0.364477 0.00406441
1.17463 0.5 -0.364477 0.00402814
1.20942 0.5 -0.225851 0.00406925
1.20942 0.5 0.225851 0.00409555
1.23036 0.5 -1.32995e-17 0.00410659
1.2294 0.5 0.0634819 0.00410986
1.04168 0.5 -0.656246 0.00391956
1.04168 0.5 0.656246 0.00395344
1.23036 0.5 -0.0634819 0.00410188
1.18772 0.5 0.32807 0.00407597
1.18772 0.5 -0.32807 0.00404125
0.288069 0.5 -1.2 0.00376343
0.288069 0.5 1.2 0.00376748
1.23036 0.5 -0.126964 0.0040959
1.23036 0.5 0.126964 0.00411199
0.075776 0.5 -1.2375 0.00375316
0.075776 0.5 1.2375 0.00375395
0.523432 0.5 -1.125 0.00378075
0.523432 0.5 1.125 0.0037897
1.0271 0.5 -0.69963 0.0039078
1.0271 0.5 0.69963 0.00394146
1.24274 0.5 0.0314313 0.00411806
1.24274 0.5 -0.0314313 0.00411383
1.20942 0.5 0.29038 0.00409427
1.20942 0.5 -0.29038 0.0040605
1.11376 0.5 -0.554494 0.00396704
1.11376 0.5 0.554494 0.00400717
1.23036 0.5 -0.190445 0.00408861
1.23036 0.5 0.190445 0.00411283
1.24274 0.5 -0.0942942 0.00410835
1.24274 0.5 0.0942942 0.00412084
1.13882 0.5 0.510442 0.00402819
1.13882 0.5 -0.510442 0.00398644
0.969689 0.5 -0.7875 0.00387712
0.969689 0.5 0.7875 0.00390733
1.00005 0.5 -0.749309 0.00389113
1.00005 0.5 0.749309 0.00392312
0.939201 0.5 -0.825 0.00386464
0.939201 0.5 0.825 0.00389251
0.90582 0.5 0.8625 0.00387791
0.90582 0.5 -0.8625 0.00385268
1.17463 0.5 -0.430746 0.00401803
1.17463 0.5 0.430746 0.00406004
1.10076 0.5 -0.594676 0.00395479
1.10076 0.5 0.594676 0.00399486
1.18772 0.5 -0.393684 0.00403139
1.18772 0.5 0.393684 0.00407236
1.24274 0.5 -0.157157 0.00410154
1.24274 0.5 0.157157 0.00412234
1.16179 0.5 -0.468373 0.00400546
1.16179 0.5 0.468373 0.00404836
0.467897 0.5 -1.1625 0.00377535
0.467897 0.5 1.1625 0.00378307
0.872064 0.5 -0.9 0.0038415
0.872064 0.5 0.9 0.00386463
1.25401 0.5 2.08167e-17 0.00412458
0.835106 0.5 0.9375 0.00385162
0.835106 0.5 -0.9375 0.00383081
1.25401 0.5 -0.0622994 0.00411955
1.25401 0.5 0.0622994 0.00412853
1.08112 0.5 -0.638498 0.00393893
1.08112 0.5 0.638498 0.00397801
1.23036 0.5 -0.253927 0.00408008
1.23036 0.5 0.253927 0.00411242
0.219992 0.5 1.2375 0.00376242
0.219992 0.5 -1.2375 0.00375966
1.25309 0.5 0.121964 0.00413051
1.05695 0.5 0.685452 0.00395868
1.05695 0.5 -0.685452 0.00392127
0.797732 0.5 0.975 0.00384047
0.797732 0.5 -0.975 0.00382147
1.25401 0.5 -0.124599 0.00411321
1.20942 0.5 -0.354909 0.00405075
1.20942 0.5 0.354909 0.00409153
1.24274 0.5 -0.220019 0.00409341
1.24274 0.5 0.220019 0.00412269
0.756814 0.5 -1.0125 0.00381248
0.756813 0.5 1.0125 0.00382945
1.25401 0.5 -0.186898 0.00410554
1.25401 0.5 0.186898 0.00413153
0.411736 0.5 -1.2 0.00377098
0.411736 0.5 1.2 0.0037776
0 0.5 -1.26882 0.00375
0 0.5 1.26882 0.00375
0.0124865 0.5 1.26882 0.00375065
0.0124865 0.5 -1.26882 0.00375052
0.715434 0.5 -1.05 0.00380466
0.715434 0.5 1.05 0.00382009
1.23036 0.5 -0.31741 0.00407044
1.23036 0.5 0.31741 0.00411061
1.04168 0.5 -0.729162 0.0039092
1.04168 0.5 0.729162 0.00394638
1.18772 0.5 -0.459298 0.00402088
1.18772 0.5 0.459298 0.00406746
1.24274 0.5 -0.282882 0.00408408
1.24274 0.5 0.282882 0.0041217
0 0.5 -1.275 0.00375
0 0.5 1.275 0.00375
1.27472 0.5 -0.0306319 0.00414033
1.27472 0.5 0.0306319 0.00414504
1.17463 0.5 0.497015 0.0040545
1.17463 0.5 -0.497015 0.00400746
1.11376 0.5 -0.623806 0.00395629
1.11376 0.5 0.623806 0.00400006
1.13882 0.5 -0.578501 0.00397578
1.13882 0.5 0.578501 0.00402157
0.67013 0.5 -1.0875 0.00379713
0.67013 0.5 1.0875 0.00381078
1.27472 0.5 -0.0918959 0.00413431
1.27472 0.5 0.0918959 0.00414502
1.25401 0.5 -0.249197 0.0040966
1.25401 0.5 0.249197 0.0041313
1.16179 0.5 -0.535284 0.00399478
1.16179 0.5 0.535284 0.00404228
1.20942 0.5 -0.419438 0.00404015
1.20942 0.5 0.419438 0.00408736
0 0.5 -1.28118 0.00375
0 0.5 1.28118 0.00375
0.0124865 0.5 1.28118 0.00375063
0.0124865 0.5 -1.28118 0.00375051
1.27472 0.5 0.15316 0.00415007