# nutMean  POINT_DATA 63140
# x  y  z  nutMean
0 0.1 0 0.00531627
0 0.1 -0.0179898 0.00532097
0 0.1 0.0179898 0.00531107
0.0363518 0.1 0.0179898 0.0125988
0.0363518 0.1 -0.0179898 0.0130063
0 0.1 -0.0570102 0.00533855
0 0.1 0.0570102 0.00530655
0.0363518 0.1 0.0570102 0.0125943
0.0363518 0.1 -0.0570102 0.0130239
0 0.1 -0.075 0.00535045
0 0.1 0.075 0.00530767
0.075776 0.1 -0.0375 0.0210886
0.075776 0.1 0.0375 0.0202824
0 0.1 -0.0929898 0.00536197
0 0.1 0.0929898 0.00530825
0.0363518 0.1 -0.0929898 0.0126313
0.0363518 0.1 0.0929898 0.0117823
0 0.1 -0.13201 0.00539936
0 0.1 0.13201 0.00531729
0.075776 0.1 -0.1125 0.0202816
0.075776 0.1 0.1125 0.0186415
0.0363518 0.1 -0.13201 0.0126687
0.0363518 0.1 0.13201 0.0117913
0 0.1 -0.15 0.00542314
0 0.1 0.15 0.00532523
0.150379 0.1 -2.22623e-17 0.0187039
0 0.1 -0.16799 0.00544737
0 0.1 0.16799 0.00533315
0.150379 0.1 -0.075 0.0187111
0.150379 0.1 0.075 0.0180911
0.0363518 0.1 -0.16799 0.0118656
0.0363518 0.1 0.16799 0.0107998
0.075776 0.1 -0.1875 0.0186391
0.075776 0.1 0.1875 0.0166143
0 0.1 -0.20701 0.00549473
0 0.1 0.20701 0.00535114
0.0363518 0.1 -0.20701 0.0119129
0.0363518 0.1 0.20701 0.0108178
0.150379 0.1 -0.15 0.0175142
0.150379 0.1 0.15 0.0166379
0.219993 0.1 -0.0375 0.0168133
0.219993 0.1 0.0375 0.0167881
0 0.1 -0.225 0.00551603
0 0.1 0.225 0.00536021
0 0.1 -0.24299 0.0055388
0 0.1 0.24299 0.00537007
0.0363518 0.1 0.24299 0.00992558
0.0363518 0.1 -0.24299 0.0110003
0.219993 0.1 -0.1125 0.0168153
0.219993 0.1 0.1125 0.0167579
0.150379 0.1 -0.225 0.0157933
0.150379 0.1 0.225 0.0146881
0.075776 0.1 -0.2625 0.0168001
0.075776 0.1 0.2625 0.0147899
0 0.1 -0.28201 0.00557302
0 0.1 0.28201 0.00538522
0.0363518 0.1 -0.28201 0.0110345
0.0363518 0.1 0.28201 0.00994073
0.287374 0.1 -2.89121e-19 0.0135794
0.219992 0.1 0.1875 0.0146054
0.219992 0.1 -0.1875 0.0144637
0.287374 0.1 -0.075 0.0135689
0.287374 0.1 0.075 0.0135325
0 0.1 -0.3 0.00558467
0 0.1 0.3 0.0053904
0 0.1 0.31799 0.00539667
0 0.1 -0.31799 0.00559787
0.0363518 0.1 -0.31799 0.0103401
0.0363518 0.1 0.31799 0.00928382
0.287374 0.1 0.15 0.0129106
0.287374 0.1 -0.15 0.012889
0.150379 0.1 -0.3 0.0147489
0.150379 0.1 0.3 0.0133664
0.219993 0.1 0.2625 0.0128105
0.219993 0.1 -0.2625 0.0134119
0.075776 0.1 -0.3375 0.0154054
0.075776 0.1 0.3375 0.0134521
0.350249 0.1 -0.0375 0.0104944
0.350249 0.1 0.0375 0.0104669
0 0.1 -0.35701 0.00560952
0 0.1 0.35701 0.00539798
0.0363518 0.1 -0.35701 0.0103517
0.0363518 0.1 0.35701 0.00928512
0.287374 0.1 -0.225 0.011955
0.287374 0.1 0.225 0.0118113
0.350249 0.1 -0.1125 0.0103997
0.350249 0.1 0.1125 0.0103642
0 0.1 -0.375 0.00560935
0 0.1 0.375 0.00539419
0 0.1 -0.39299 0.00560993
0 0.1 0.39299 0.00539105
0.0363518 0.1 -0.39299 0.0100443
0.0363518 0.1 0.39299 0.0089817
0.350249 0.1 -0.1875 0.0100876
0.350249 0.1 0.1875 0.0101271
0.219992 0.1 -0.3375 0.0134845
0.219992 0.1 0.3375 0.0124648
0.150379 0.1 0.375 0.0126897
0.150379 0.1 -0.375 0.0141601
0.411108 0.1 4.33681e-19 0.00866645
0.287374 0.1 -0.3 0.0117039
0.287374 0.1 0.3 0.0111969
0.411108 0.1 -0.075 0.00865119
0.411108 0.1 0.075 0.00863707
0.075776 0.1 -0.4125 0.0147854
0.075776 0.1 0.4125 0.0128357
0 0.1 0.43201 0.00537965
0 0.1 -0.43201 0.00560453
0.0363518 0.1 0.43201 0.00897031
0.0363518 0.1 -0.43201 0.0100389
0.411108 0.1 -0.15 0.00855611
0.411108 0.1 0.15 0.00855784
0.350249 0.1 -0.2625 0.0100165
0.350249 0.1 0.2625 0.00985109
0 0.1 -0.45 0.00560009
0 0.1 0.45 0.00537312
0.219992 0.1 0.4125 0.0120351
0.219992 0.1 -0.4125 0.0130371
0 0.1 -0.46799 0.00559574
0 0.1 0.46799 0.00536669
0.411108 0.1 -0.225 0.008482
0.411108 0.1 0.225 0.00843519
0.467897 0.1 -0.0375 0.00692397
0.467897 0.1 0.0375 0.0069238
0.0363518 0.1 0.46799 0.00873861
0.0363518 0.1 -0.46799 0.00976749
0.287374 0.1 -0.375 0.011663
0.287374 0.1 0.375 0.0110077
0.150379 0.1 0.45 0.0126253
0.150379 0.1 -0.45 0.0138575
0.467897 0.1 0.1125 0.00693378
0.467897 0.1 -0.1125 0.00692848
0.350249 0.1 -0.3375 0.0100539
0.350249 0.1 0.3375 0.00977898
0.075776 0.1 -0.4875 0.0142327
0.075776 0.1 0.4875 0.0123637
0.467897 0.1 0.1875 0.00693908
0.467897 0.1 -0.1875 0.00694124
0 0.1 -0.50701 0.00557962
0 0.1 0.50701 0.00534702
0.0363518 0.1 -0.50701 0.00975136
0.0363518 0.1 0.50701 0.00871894
0.411108 0.1 0.3 0.00836118
0.411108 0.1 -0.3 0.00850935
0.522865 0.1 1.41031e-17 0.0059733
0 0.1 -0.525 0.00556962
0 0.1 0.525 0.00533551
0.522865 0.1 -0.075 0.00598327
0.522865 0.1 0.075 0.00597875
0.287374 0.1 0.45 0.0112648
0.287374 0.1 -0.45 0.0117396
0.219992 0.1 0.4875 0.0132595
0.219992 0.1 -0.4875 0.0134207
0.467897 0.1 -0.2625 0.00700598
0.467897 0.1 0.2625 0.00694522
0.350249 0.1 -0.4125 0.0102135
0.350249 0.1 0.4125 0.00985438
0 0.1 -0.54299 0.0055594
0 0.1 0.54299 0.00532368
0.522865 0.1 0.15 0.00599663
0.522865 0.1 -0.15 0.00600802
0.0363518 0.1 0.54299 0.0085252
0.0363518 0.1 -0.54299 0.00949324
0.150379 0.1 -0.525 0.0140388
0.150379 0.1 0.525 0.0129019
0.411108 0.1 -0.375 0.00861503
0.411108 0.1 0.375 0.00839837
0.075776 0.1 -0.5625 0.0137085
0.075776 0.1 0.5625 0.0119683
0.522865 0.1 -0.225 0.0060578
0.522865 0.1 0.225 0.00602221
0.574156 0.1 0.0375 0.0050557
0.574157 0.1 -0.0375 0.00506177
0.467897 0.1 -0.3375 0.00708218
0.467897 0.1 0.3375 0.00698369
0 0.1 -0.58201 0.00553422
0 0.1 0.58201 0.00529922
0.0363518 0.1 -0.58201 0.00946807
0.0363518 0.1 0.58201 0.00850073
0.574157 0.1 -0.1125 0.0050903
0.574157 0.1 0.1125 0.00507371
0.287374 0.1 -0.525 0.0122807
0.287374 0.1 0.525 0.0118402
0 0.1 -0.6 0.00552121
0 0.1 0.6 0.00528821
0.350249 0.1 0.4875 0.0100309
0.350249 0.1 -0.4875 0.0104176
0.522865 0.1 -0.3 0.00613752
0.522865 0.1 0.3 0.00606352
0.219992 0.1 -0.5625 0.0147844
0.219992 0.1 0.5625 0.0139517
0.574156 0.1 -0.1875 0.00514216
0.574156 0.1 0.1875 0.00511111
0.411108 0.1 0.45 0.00853165
0.411108 0.1 -0.45 0.00879153
0 0.1 -0.61799 0.00550734
0 0.1 0.61799 0.00527652
0.150379 0.1 -0.6 0.014163
0.150379 0.1 0.6 0.0128424
0.0363518 0.1 -0.61799 0.00924018
0.0363518 0.1 0.61799 0.00833266
0.467897 0.1 -0.4125 0.00723228
0.467897 0.1 0.4125 0.00708879
0.623803 0.1 2.34188e-17 0.00450771
0.623803 0.1 0.075 0.00451209
0.623803 0.1 -0.075 0.00452693
0.574156 0.1 0.2625 0.00516294
0.574156 0.1 -0.2625 0.00521101
0.623803 0.1 0.15 0.00453909
0.623803 0.1 -0.15 0.00456828
0.075776 0.1 0.6375 0.0116226
0.075776 0.1 -0.6375 0.0132421
0.522865 0.1 -0.375 0.00625547
0.522865 0.1 0.375 0.00614109
0 0.1 0.65701 0.00525482
0 0.1 -0.65701 0.00548084
0.0363518 0.1 0.65701 0.00831097
0.0363518 0.1 -0.65701 0.00921369
0.350249 0.1 0.5625 0.0102763
0.350249 0.1 -0.5625 0.0106699
0.623803 0.1 0.225 0.00458418
0.623803 0.1 -0.225 0.00462819
0.287374 0.1 -0.6 0.012741
0.287374 0.1 0.6 0.0120665
0.574157 0.1 -0.3375 0.00531946
0.574157 0.1 0.3375 0.00523019
0.411108 0.1 0.525 0.00874463
0.411108 0.1 -0.525 0.00901225
0.67013 0.1 0.0375 0.00397111
0.67013 0.1 -0.0375 0.00398087
0.219992 0.1 -0.6375 0.0148572
0.219993 0.1 0.6375 0.013734
0 0.1 -0.675 0.00546975
0 0.1 0.675 0.00524609
0.467897 0.1 -0.4875 0.00742657
0.467897 0.1 0.4875 0.00726523
0.67013 0.1 -0.1125 0.00401328
0.67013 0.1 0.1125 0.00398659
0.522865 0.1 0.45 0.00627209
0.522865 0.1 -0.45 0.00641913
0.150379 0.1 0.675 0.0125425
0.150379 0.1 -0.675 0.0139141
0.623803 0.1 0.3 0.0046463
0.623803 0.1 -0.3 0.00471715
0 0.1 -0.69299 0.00545747
0 0.1 0.69299 0.00523659
0.0363518 0.1 -0.69299 0.00900728
0.0363518 0.1 0.69299 0.0081689
0.67013 0.1 -0.1875 0.00406577
0.67013 0.1 0.1875 0.00402374
0.574156 0.1 0.4125 0.0053293
0.574157 0.1 -0.4125 0.00545627
0.714971 0.1 -2.8382e-17 0.00361424
0.075776 0.1 -0.7125 0.0128177
0.075776 0.1 0.7125 0.0113291
0.714971 0.1 -0.075 0.00363585
0.714971 0.1 0.075 0.00361524
0.67013 0.1 0.2625 0.00407767
0.67013 0.1 -0.2625 0.00413224
0.411108 0.1 -0.6 0.00924131
0.411108 0.1 0.6 0.00898778
0.350249 0.1 0.6375 0.010461
0.350249 0.1 -0.6375 0.0108462
0.623803 0.1 0.375 0.00472799
0.623803 0.1 -0.375 0.00483797
0.714971 0.1 -0.15 0.0036772
0.714971 0.1 0.15 0.00363886
0.467897 0.1 -0.5625 0.00766265
0.467897 0.1 0.5625 0.00751952
0 0.1 -0.73201 0.00543476
0 0.1 0.73201 0.00521958
0.0363518 0.1 0.73201 0.00815188
0.0363518 0.1 -0.73201 0.00898456
0.287374 0.1 -0.675 0.0127876
0.287374 0.1 0.675 0.0120022
0.522865 0.1 -0.525 0.00662334
0.522865 0.1 0.525 0.00646441
0.219993 0.1 -0.7125 0.014659
0.219992 0.1 0.7125 0.0133875
0.714971 0.1 -0.225 0.0037382
0.714971 0.1 0.225 0.0036816
0 0.1 0.75 0.00521298
0 0.1 -0.75 0.00542547
0.67013 0.1 -0.3375 0.00424425
0.67013 0.1 0.3375 0.0041529
0.574156 0.1 -0.4875 0.00563058
0.574157 0.1 0.4875 0.00547354
0.756813 0.1 0.0375 0.00325778
0.756814 0.1 -0.0375 0.00327032
0.150379 0.1 0.746002 0.0122384
0.150379 0.1 -0.75 0.0136151
0.756813 0.1 -0.1125 0.00330201
0.756813 0.1 0.1125 0.00326872
0 0.1 0.76799 0.00520561
0 0.1 -0.76799 0.00541503
0.0363518 0.1 0.76799 0.00803666
0.0363518 0.1 -0.76799 0.00880519
0.623803 0.1 -0.45 0.00498644
0.623803 0.1 0.45 0.00484095
0.714971 0.1 -0.3 0.00382498
0.714971 0.1 0.3 0.00374256
0.756814 0.1 -0.1875 0.00335088
0.756814 0.1 0.1875 0.00329984
0.67013 0.1 -0.4125 0.00437037
0.67013 0.1 0.4125 0.00423811
0.411108 0.1 0.675 0.00919812
0.411108 0.1 -0.675 0.00943432
0.467897 0.1 0.6375 0.00780726
0.467897 0.1 -0.6375 0.00791663
0.075776 0.1 0.7875 0.0110909
0.075776 0.1 -0.7875 0.012448
0.350249 0.1 -0.7125 0.01097
0.350249 0.1 0.7125 0.0105642
0.522865 0.1 -0.6 0.00686136
0.522865 0.1 0.6 0.00670894
0.797314 0.1 -3.59473e-17 0.00300843
0.287374 0.1 0.746002 0.0119129
0.797314 0.1 -0.075 0.00302999
0.797314 0.1 0.075 0.00300674
0.756814 0.1 -0.2625 0.00342693
0.756814 0.1 0.2625 0.00334875
0.287374 0.1 -0.75 0.012747
0.574156 0.1 -0.5625 0.00584402
0.574156 0.1 0.5625 0.00566985
0 0.1 0.80701 0.00519311
0 0.1 -0.80701 0.00539589
0.714971 0.1 -0.375 0.00393682
0.714971 0.1 0.375 0.00382144
0.0363518 0.1 0.80701 0.00802417
0.0363518 0.1 -0.80701 0.00878605
0.797314 0.1 -0.15 0.00306844
0.797314 0.1 0.15 0.00302536
0.623803 0.1 -0.525 0.00517
0.623803 0.1 0.525 0.0049971
0.219992 0.1 0.7875 0.0130714
0.219992 0.1 -0.7875 0.0144447
0.149792 0.1 0.80701 0.0120486
0 0.1 0.825 0.00518873
0 0.1 -0.825 0.00538809
0.797314 0.1 -0.225 0.00312794
0.797314 0.1 0.225 0.00306222
0.756813 0.1 -0.3375 0.00351967
0.756813 0.1 0.3375 0.00341471
0.67013 0.1 0.4875 0.00436202
0.67013 0.1 -0.4875 0.00452752
0.835106 0.1 -0.0375 0.00276638
0.835106 0.1 0.0375 0.00275389
0.150379 0.1 -0.825 0.0133441
0.835106 0.1 -0.1125 0.00279596
0.835106 0.1 0.1125 0.00276131
0 0.1 -0.84299 0.00537916
0 0.1 0.84299 0.00518353
0.0363518 0.1 -0.84299 0.00863797
0.0363518 0.1 0.84299 0.00793609
0.714971 0.1 -0.45 0.00407287
0.714971 0.1 0.45 0.00392095
0.411108 0.1 0.746002 0.00937489
0.797314 0.1 -0.3 0.00320625
0.797314 0.1 0.3 0.0031156
0.467897 0.1 -0.7125 0.00813161
0.467897 0.1 0.7125 0.00807045
0.522865 0.1 0.675 0.00697486
0.522865 0.1 -0.675 0.00711345
0.411108 0.1 -0.75 0.00960782
0.835106 0.1 -0.1875 0.00283971
0.835107 0.1 0.1875 0.00278644
0.286844 0.1 0.80701 0.0118087
0.574156 0.1 0.6375 0.00591206
0.574157 0.1 -0.6375 0.00609382
0.350249 0.1 -0.7875 0.0110819
0.350249 0.1 0.7875 0.0106332
0.756813 0.1 -0.4125 0.00363663
0.756814 0.1 0.4125 0.00350391
0.623803 0.1 -0.6 0.00538894
0.623803 0.1 0.6 0.00519664
0.075776 0.1 0.8625 0.0109088
0.075776 0.1 -0.8625 0.0121427
0.871687 0.1 -3.2767e-18 0.00257039
0.287374 0.1 -0.825 0.0127041
0.871687 0.1 -0.075 0.00259136
0.871687 0.1 0.075 0.00256699
0.67013 0.1 -0.5625 0.00471753
0.67013 0.1 0.5625 0.00452321
0.835106 0.1 0.2625 0.0028289
0.835106 0.1 -0.2625 0.00290921
0.797314 0.1 -0.375 0.00330482
0.797314 0.1 0.375 0.00318762
0 0.1 -0.88201 0.00536333
0 0.1 0.88201 0.00517565
0.0363518 0.1 0.88201 0.00792821
0.0363518 0.1 -0.88201 0.00862214
0.871687 0.1 0.15 0.00258125
0.871687 0.1 -0.15 0.0026261
0.714971 0.1 0.525 0.00405103
0.714971 0.1 -0.525 0.00423859
0.219993 0.1 0.8625 0.0128296
0.219992 0.1 -0.8625 0.0142421
0 0.1 0.9 0.00517351
0 0.1 -0.9 0.00535717
0.756813 0.1 0.4875 0.00360392
0.756814 0.1 -0.4875 0.00378098
0.871687 0.1 0.225 0.00261204
0.871687 0.1 -0.225 0.00267939
0.835106 0.1 -0.3375 0.00298451
0.835106 0.1 0.3375 0.00288532
0.41063 0.1 0.80701 0.0094685
0.90582 0.1 -0.0375 0.00239194
0.905821 0.1 0.0375 0.00237894
0.522865 0.1 0.746002 0.00723842
0.150379 0.1 0.9 0.011816
0.90582 0.1 0.1125 0.00238346
0.905821 0.1 -0.1125 0.00242076
0.522865 0.1 -0.75 0.00737971
0.574156 0.1 0.7125 0.0061839
0.574156 0.1 -0.7125 0.0063813
0.797314 0.1 -0.45 0.00342988
0.797314 0.1 0.45 0.00327546
0.467897 0.1 -0.7875 0.00836828
0.467897 0.1 0.7875 0.00827701
0.150379 0.1 -0.903998 0.0131541
0 0.1 0.91799 0.00517054
0 0.1 -0.91799 0.00534991
0.0363518 0.1 0.91799 0.00786671
0.0363518 0.1 -0.91799 0.00850282
0.623803 0.1 0.675 0.00543296
0.623803 0.1 -0.675 0.00564243
0.411108 0.1 -0.825 0.00979812
0.871687 0.1 0.3 0.00265799
0.871687 0.1 -0.3 0.00274792
0.67013 0.1 -0.6375 0.00494084
0.67013 0.1 0.6375 0.00472304
0.90582 0.1 -0.1875 0.00245764
0.90582 0.1 0.1875 0.00240353
0.350249 0.1 0.8625 0.0107059
0.350249 0.1 -0.8625 0.011202
0.835106 0.1 -0.4125 0.00309414
0.835106 0.1 0.4125 0.00296213
0.714971 0.1 -0.6 0.00443547
0.714971 0.1 0.6 0.0042172
0.93886 0.1 -1.15648e-17 0.00228217
0.075776 0.1 0.9375 0.0107813
0.075776 0.1 -0.9375 0.0118966
0.93886 0.1 0.075 0.00227844
0.93886 0.1 -0.075 0.0023019
0.756813 0.1 0.5625 0.00373995
0.756814 0.1 -0.5625 0.00395285
0.905821 0.1 -0.2625 0.00252086
0.905821 0.1 0.2625 0.00243919
0.287374 0.1 0.9 0.0117229
0.287374 0.1 -0.903998 0.0126443
0.871687 0.1 0.375 0.00271953
0.871687 0.1 -0.375 0.00283746
0.93886 0.1 -0.15 0.00233207
0.93886 0.1 0.15 0.00229035
0.797314 0.1 0.525 0.00338517
0.797314 0.1 -0.525 0.00357986
0 0.1 0.95701 0.00516745
0 0.1 -0.95701 0.00533773
0.0363518 0.1 0.95701 0.00786362
0.0363518 0.1 -0.95701 0.00849064
0.522433 0.1 0.80701 0.00742553
0.219992 0.1 0.9375 0.0126528
0.219992 0.1 -0.9375 0.0140531
0.93886 0.1 0.225 0.00231672
0.93886 0.1 -0.225 0.00237782
0.90582 0.1 0.3375 0.00248862
0.905821 0.1 -0.3375 0.00258715
0.835106 0.1 -0.4875 0.00322379
0.835107 0.1 0.4875 0.00304785
0.969689 0.1 -0.0375 0.00218666
0.969689 0.1 0.0375 0.00217539
0.61613 0.1 0.75 0.00569539
0.574156 0.1 -0.7875 0.00670249
0.574156 0.1 0.7875 0.00647269
0 0.1 0.975 0.00516769
0 0.1 -0.975 0.00533343
0.623803 0.1 -0.75 0.0059305
0.969689 0.1 -0.1125 0.00221254
0.969689 0.1 0.1125 0.00218023
0.522865 0.1 -0.825 0.00767109
0.67013 0.1 0.7125 0.00495591
0.67013 0.1 -0.7125 0.00519523
0.871687 0.1 -0.45 0.00295482
0.871687 0.1 0.45 0.00279709
0.467897 0.1 0.8625 0.00847201
0.467897 0.1 -0.8625 0.00865648
0.714971 0.1 -0.675 0.00466559
0.714971 0.1 0.675 0.00441725
0.93886 0.1 -0.3 0.0024407
0.93886 0.1 0.3 0.00235702
0.150379 0.1 0.975 0.0116882
0.150379 0.1 -0.975 0.0129202
0.969689 0.1 -0.1875 0.0022418
0.969689 0.1 0.1875 0.00219841
0.411108 0.1 0.9 0.00963527
0.756813 0.1 0.6375 0.00390854
0.756814 0.1 -0.6375 0.00415569
0.990306 0.1 -2.19732e-17 0.00209769
0 0.1 0.99299 0.00516705
0 0.1 -0.99299 0.00532802
0.411108 0.1 -0.903998 0.00994742
0.990306 0.1 -0.075 0.00211522
0.990306 0.1 0.075 0.00209444
0.0363518 0.1 0.99299 0.00782608
0.0363518 0.1 -0.99299 0.00839831
0.90582 0.1 -0.4125 0.00269426
0.905821 0.1 0.4125 0.00255236
0.797314 0.1 -0.6 0.00375754
0.797314 0.1 0.6 0.00352631
0.350249 0.1 0.9375 0.0107933
0.350249 0.1 -0.9375 0.0113337
0.990306 0.1 0.15 0.00210545
0.990306 0.1 -0.15 0.00214203
0.969689 0.1 -0.2625 0.00229561
0.969689 0.1 0.2625 0.00223006
0.835106 0.1 -0.5625 0.00337834
0.835106 0.1 0.5625 0.00316541
0.93886 0.1 -0.375 0.00252864
0.93886 0.1 0.375 0.00241019
0.075776 0.1 1.0125 0.0107034
0.075776 0.1 -1.0125 0.011706
0.990306 0.1 -0.225 0.0021828
0.990306 0.1 0.225 0.00212945
0.287374 0.1 0.975 0.0116982
0.287374 0.1 -0.975 0.0126649
0.871687 0.1 -0.525 0.00309366
0.871687 0.1 0.525 0.00289315
1.02149 0.1 -0.0369628 0.00194581
1.02149 0.1 0.0369628 0.00193555
0.969689 0.1 -0.3375 0.0023639
0.969689 0.1 0.3375 0.00227463
1.02149 0.1 -0.110888 0.00196541
1.02149 0.1 0.110888 0.00193909
0.90582 0.1 0.4875 0.00263652
0.90582 0.1 -0.4875 0.00281742
0.623803 0.1 0.819003 0.00585786
0 0.1 1.03201 0.00516845
0 0.1 -1.03201 0.00531942
0.0363518 0.1 1.03201 0.00782748
0.0363518 0.1 -1.03201 0.00838971
0.67013 0.1 -0.7875 0.00548573
0.67013 0.1 0.7875 0.00521341
0.623803 0.1 -0.825 0.0062454
0.990306 0.1 -0.3 0.00224312
0.990306 0.1 0.3 0.00216644
0.219992 0.1 -1.0125 0.013918
0.219993 0.1 1.0125 0.0125254
0.574156 0.1 0.8625 0.00677703
0.574157 0.1 -0.8625 0.00702121
0.714971 0.1 -0.75 0.00492981
0.714971 0.1 0.75 0.00464671
1.02149 0.1 0.184814 0.00195449
1.02149 0.1 -0.184814 0.00199553
0.756814 0.1 -0.7125 0.00439604
0.756814 0.1 0.7125 0.00410843
0.522865 0.1 0.9 0.00773188
0.93886 0.1 -0.45 0.00264304
0.93886 0.1 0.45 0.00247868
1.04168 0.1 0 0.00186525
1.04168 0.1 -0.0729162 0.00187879
1.04168 0.1 0.0729162 0.00186158
0.522865 0.1 -0.903998 0.0079034
0.797314 0.1 -0.675 0.00396709
0.797314 0.1 0.675 0.00369624
0.467897 0.1 0.9375 0.00866486
0.467897 0.1 -0.9375 0.00892586
0 0.1 1.05 0.00517068
0 0.1 -1.05 0.00531672
0.835106 0.1 -0.6375 0.00356031
0.835106 0.1 0.6375 0.00330847
1.04168 0.1 -0.145832 0.00190113
1.04168 0.1 0.145832 0.00186942
1.02149 0.1 -0.25874 0.00204191
1.02149 0.1 0.25874 0.0019817
0.969689 0.1 -0.4125 0.00247393
0.969689 0.1 0.4125 0.0023297
0.411108 0.1 0.975 0.00978601
0.411108 0.1 -0.975 0.0102098
0.871687 0.1 -0.6 0.00325875
0.871687 0.1 0.6 0.0030133
1.0579 0.1 -0.0360525 0.00181583
1.0579 0.1 0.0360525 0.0018059
0.990306 0.1 -0.375 0.00232907
0.990306 0.1 0.375 0.00221525
0.150379 0.1 1.05 0.0116084
0.150379 0.1 -1.05 0.012786
1.0579 0.1 0.108157 0.00180805
1.0579 0.1 -0.108157 0.00183071
1.04168 0.1 -0.218749 0.00193543
1.04168 0.1 0.218749 0.00188733
0.90582 0.1 -0.5625 0.00296558
0.90582 0.1 0.5625 0.00273361
0 0.1 -1.06799 0.0053129
0 0.1 1.06799 0.00517194
0.0363518 0.1 -1.06799 0.00832091
0.0363518 0.1 1.06799 0.00781077
0.350249 0.1 1.0125 0.0109004
0.350249 0.1 -1.0125 0.0114875
1.0579 0.1 -0.180262 0.00185704
1.0579 0.1 0.180262 0.00181839
1.02149 0.1 -0.332665 0.00210928
1.02149 0.1 0.332665 0.00202131
0.93886 0.1 -0.525 0.00277374
0.93886 0.1 0.525 0.00256213
1.08012 0.1 5.49329e-18 0.00174825
1.04168 0.1 -0.291665 0.00198632
1.04168 0.1 0.291665 0.00191598
1.08012 0.1 0.0709941 0.00174466
1.08012 0.1 -0.0709941 0.0017596
0.969689 0.1 -0.4875 0.00259123
0.96969 0.1 0.4875 0.00240091
1.0579 0.1 0.252367 0.00183781
1.0579 0.1 -0.252367 0.00189385
0.990306 0.1 -0.45 0.00243812
0.990306 0.1 0.45 0.00227748
0.287374 0.1 -1.05 0.0126909
0.287374 0.1 1.05 0.011708
0.714971 0.1 0.821002 0.00487351
1.08012 0.1 -0.141988 0.00177813
1.08012 0.1 0.141988 0.00175091
0.075776 0.1 1.0875 0.0106684
0.075776 0.1 -1.0875 0.011564
0.714971 0.1 -0.825 0.00522985
0.756813 0.1 -0.7875 0.00466811
0.756814 0.1 0.7875 0.00433694
0.67013 0.1 -0.8625 0.0058156
0.67013 0.1 0.8625 0.0054929
0.797314 0.1 -0.75 0.00420939
0.797314 0.1 0.75 0.00389482
0.623803 0.1 0.9 0.0062736
0.835106 0.1 -0.7125 0.00377399
0.835106 0.1 0.7125 0.00347746
0.623803 0.1 -0.903998 0.00651507
0.574156 0.1 0.9375 0.00707851
0.574156 0.1 -0.9375 0.00728326
1.02149 0.1 -0.406591 0.00219625
1.02149 0.1 0.406591 0.00207201
1.08012 0.1 -0.212982 0.00180714
1.08012 0.1 0.212982 0.00176493
1.10076 0.1 -0.0349809 0.00169555
1.10076 0.1 0.0349809 0.00168644
0.871687 0.1 -0.675 0.00345367
0.871687 0.1 0.675 0.00316093
1.04168 0.1 -0.364581 0.00205494
1.04168 0.1 0.364581 0.00195519
1.10076 0.1 -0.104943 0.00170736
1.10076 0.1 0.104943 0.00168956
0.522865 0.1 0.975 0.0079688
0.522865 0.1 -0.975 0.00823093
1.0579 0.1 -0.324472 0.00194911
1.0579 0.1 0.324472 0.00186709
0 0.1 -1.10701 0.00530776
0 0.1 1.10701 0.00517727
0.0363518 0.1 1.10701 0.00781609
0.0363518 0.1 -1.10701 0.00831577
0.90582 0.1 0.6375 0.00285706
0.905821 0.1 -0.6375 0.0031414
0.219992 0.1 1.0875 0.0124488
0.219992 0.1 -1.0875 0.013846
0.93886 0.1 0.6 0.00267373
0.93886 0.1 -0.6 0.00292586
1.10076 0.1 -0.174905 0.00172936
1.10076 0.1 0.174905 0.00169972
0.467897 0.1 1.0125 0.0088821
0.467897 0.1 -1.0125 0.0092154
1.08012 0.1 -0.283976 0.00184976
1.08012 0.1 0.283976 0.00178768
1.11928 0.1 3.93204e-18 0.00164811
0.990306 0.1 -0.525 0.00255721
0.990306 0.1 0.525 0.00235392
0.96969 0.1 -0.5625 0.00272564
0.969689 0.1 0.5625 0.00248261
1.11928 0.1 -0.0690357 0.00165773
1.11928 0.1 0.0690357 0.0016452
0 0.1 1.125 0.00518134
0 0.1 -1.125 0.00530684
0.411108 0.1 -1.05 0.0104246
0.411108 0.1 1.05 0.00995801
1.10076 0.1 0.244866 0.00171753
1.10076 0.1 -0.244866 0.00176187
1.11928 0.1 -0.138072 0.00167311
1.11928 0.1 0.138072 0.00165127
1.02149 0.1 0.480517 0.00213754
1.02149 0.1 -0.480517 0.0023029
1.0579 0.1 -0.396577 0.00201762
1.0579 0.1 0.396577 0.00190573
1.04168 0.1 -0.437497 0.0021417
1.04168 0.1 0.437497 0.0020059
0.150379 0.1 1.125 0.0115725
0.150379 0.1 -1.125 0.0126984
0.714971 0.1 0.88201 0.0048933
1.08012 0.1 0.354971 0.00181936
1.08012 0.1 -0.354971 0.00190654
1.11928 0.1 -0.207107 0.00169814
1.11928 0.1 0.207107 0.00166398
0.350249 0.1 -1.0875 0.0116381
0.350249 0.1 1.0875 0.0110284
0 0.1 1.14299 0.00518435
0 0.1 -1.14299 0.00530477
0.0363518 0.1 1.14299 0.00781465
0.0363518 0.1 -1.14299 0.00826727
1.14316 0.1 -0.0339211 0.00159109
1.14316 0.1 0.0339211 0.00158364
0.797314 0.1 0.821002 0.00411625
1.10076 0.1 -0.314829 0.00181006
1.10076 0.1 0.314829 0.0017441
0.797314 0.1 -0.825 0.0044846
0.756814 0.1 -0.8625 0.00497657
0.756814 0.1 0.8625 0.00459008
1.14316 0.1 -0.101763 0.0016007
1.14316 0.1 0.101763 0.00158592
0.835106 0.1 -0.7875 0.00401774
0.835106 0.1 0.7875 0.00367528
0.871687 0.1 -0.75 0.00367609
0.871687 0.1 0.75 0.00333693
0.67013 0.1 0.9375 0.00579275
0.67013 0.1 -0.9375 0.00616524
0.90582 0.1 -0.7125 0.00334973
0.905821 0.1 0.7125 0.0030125
0.714971 0.1 -0.903998 0.00551915
1.11928 0.1 0.276143 0.00168414
1.11928 0.1 -0.276143 0.00173527
1.14316 0.1 0.169605 0.00159421
1.14316 0.1 -0.169605 0.00161846
0.93886 0.1 -0.675 0.00309723
0.93886 0.1 0.675 0.002812
1.15704 0.1 0 0.00155664
1.0579 0.1 0.468682 0.00195589
1.0579 0.1 -0.468682 0.00210394
0.623803 0.1 0.975 0.00656039
0.623803 0.1 -0.975 0.00686251
0.990306 0.1 0.6 0.00246273
0.990306 0.1 -0.6 0.00269522
1.15704 0.1 -0.0671479 0.00156477
1.15704 0.1 0.0671479 0.00155407
1.04168 0.1 -0.510414 0.002234
1.04168 0.1 0.510414 0.002071
0.969689 0.1 -0.6375 0.0028762
0.969689 0.1 0.6375 0.00262666
1.08012 0.1 0.425965 0.00186031
1.08012 0.1 -0.425965 0.00197804
0.287374 0.1 -1.125 0.0127386
0.287374 0.1 1.125 0.0117534
1.02149 0.1 -0.554443 0.00240586
1.02149 0.1 0.554443 0.00221979
0.574156 0.1 1.0125 0.00731941
0.574156 0.1 -1.0125 0.0075796
1.15704 0.1 -0.134296 0.00157728
1.15704 0.1 0.134296 0.00155933
0.075776 0.1 1.1625 0.0106652
0.075776 0.1 -1.1625 0.0114637
1.10076 0.1 -0.384791 0.00186803
1.10076 0.1 0.384791 0.00177897
1.14316 0.1 -0.237448 0.00164523
1.14316 0.1 0.237448 0.00160841
1.11928 0.1 -0.345179 0.00178443
1.11928 0.1 0.345179 0.00171229
0.522865 0.1 1.05 0.00819485
0.522865 0.1 -1.05 0.00852178
1.15704 0.1 -0.201444 0.00159798
1.15704 0.1 0.201444 0.00156994
1.1744 0.1 -0.0331401 0.00152461
1.1744 0.1 0.0331401 0.0015174
1.1744 0.1 -0.0994202 0.00153246
1.1744 0.1 0.0994202 0.0015199
0 0.1 1.18201 0.00519314
0 0.1 -1.18201 0.00530315
0.0363518 0.1 1.18201 0.00782345
0.0363518 0.1 -1.18201 0.00826566
0.219992 0.1 1.1625 0.0124213
0.219993 0.1 -1.1625 0.0138069
1.14316 0.1 0.30529 0.00162967
1.14316 0.1 -0.30529 0.00168437
0.467897 0.1 1.0875 0.00912175
0.467897 0.1 -1.0875 0.0094856
1.1744 0.1 -0.1657 0.00154749
1.1744 0.1 0.1657 0.00152731
1.15704 0.1 -0.268592 0.0016287
1.15704 0.1 0.268592 0.00158653
1.0579 0.1 0.540787 0.00202108
1.0579 0.1 -0.540787 0.00218413
0.796996 0.1 0.88201 0.00430924
1.08012 0.1 -0.496959 0.00205348
1.08012 0.1 0.496959 0.00191316
1.10076 0.1 0.454752 0.0018224
1.10076 0.1 -0.454752 0.00194312
1.11928 0.1 -0.414214 0.00184636
1.11928 0.1 0.414214 0.0017483
1.04168 0.1 -0.58333 0.00234311
1.04168 0.1 0.58333 0.00215418
1.1744 0.1 -0.231981 0.00157027
1.1744 0.1 0.231981 0.00153957
0.871687 0.1 0.821002 0.00353782
0.411108 0.1 1.125 0.0101517
0.411108 0.1 -1.125 0.0105814
1.19808 0.1 1.73472e-17 0.00146909
0.990306 0.1 0.675 0.00259261
0.990306 0.1 -0.675 0.00285118
1.02149 0.1 0.628368 0.00232971
1.02149 0.1 -0.628368 0.0025503
1.19808 0.1 -0.0650961 0.00147622
1.19808 0.1 0.0650961 0.00146683
0 0.1 1.2 0.00519884
0 0.1 -1.2 0.0053039
0.871687 0.1 -0.825 0.00392275
0.905821 0.1 -0.7875 0.00357388
0.90582 0.1 0.7875 0.00319464
0.835106 0.1 -0.8625 0.0042951
0.835106 0.1 0.8625 0.00390075
0.93886 0.1 -0.75 0.00329359
0.93886 0.1 0.75 0.00296534
1.14316 0.1 -0.373132 0.00173295
1.14316 0.1 0.373132 0.00165821
0.969689 0.1 0.7125 0.00275688
0.969689 0.1 -0.7125 0.00302797
1.15704 0.1 -0.33574 0.00166948
1.15704 0.1 0.33574 0.00160997
0.756813 0.1 0.9375 0.00486511
0.756814 0.1 -0.9375 0.0053241
1.19808 0.1 0.130192 0.00147143
1.19808 0.1 -0.130192 0.00148659
0.797314 0.1 -0.903998 0.00475552
0.714971 0.1 0.975 0.00547211
0.714971 0.1 -0.975 0.00589432
0.150379 0.1 1.2 0.0115765
0.150379 0.1 -1.2 0.0126458
1.20938 0.1 -0.0322656 0.00145167
1.20938 0.1 0.0322656 0.001445
1.1744 0.1 -0.298261 0.00160349
1.1744 0.1 0.298261 0.00155765
1.20938 0.1 -0.0967968 0.00145876
1.20938 0.1 0.0967968 0.00144737
1.19808 0.1 -0.195288 0.00150357
1.19808 0.1 0.195288 0.00148045
0.350249 0.1 1.1625 0.0111808
0.350249 0.1 -1.1625 0.0117841
0.67013 0.1 1.0125 0.00609918
0.67013 0.1 -1.0125 0.00647159
0 0.1 1.21799 0.00520336
0 0.1 -1.21799 0.00530343
0.0363518 0.1 -1.21799 0.00823454
0.0363518 0.1 1.21799 0.00783591
1.11928 0.1 -0.48325 0.00191224
1.11928 0.1 0.48325 0.00179434
1.10076 0.1 -0.524714 0.00200819
1.10076 0.1 0.524714 0.00187861
1.20938 0.1 0.161328 0.00145399
1.20938 0.1 -0.161328 0.00147145
1.08012 0.1 0.567953 0.00197893
1.08012 0.1 -0.567953 0.00214393
0.623803 0.1 1.05 0.00681703
0.623803 0.1 -1.05 0.00716666
1.0579 0.1 -0.612892 0.00230155
1.0579 0.1 0.612892 0.00210135
1.15704 0.1 -0.402888 0.00172103
1.15704 0.1 0.402888 0.00164006
1.14316 0.1 0.440974 0.00169377
1.14316 0.1 -0.440974 0.00179439
1.19808 0.1 -0.260384 0.00152856
1.19808 0.1 0.260384 0.00149417
1.2267 0.1 3.57064e-18 0.00141523
1.2267 0.1 -0.0636649 0.00142207
1.2267 0.1 0.0636649 0.00141299
1.1744 0.1 -0.364541 0.00164435
1.1744 0.1 0.364541 0.00158257
0.574156 0.1 1.0875 0.00753557
0.574156 0.1 -1.0875 0.00789903
1.20938 0.1 0.225859 0.00146485
1.20938 0.1 -0.225859 0.00149101
1.04168 0.1 -0.656246 0.00248725
1.04168 0.1 0.656246 0.00225597
1.2267 0.1 -0.12733 0.00143153
1.2267 0.1 0.12733 0.00141707
0.287374 0.1 1.2 0.0118321
0.287374 0.1 -1.2 0.0128115
1.02149 0.1 -0.702294 0.00272352
1.02149 0.1 0.702294 0.00244565
0.075776 0.1 -1.2375 0.0113992
0.075776 0.1 1.2375 0.0106906
0.871399 0.1 0.88201 0.00371608
0.522865 0.1 1.125 0.0084335
0.522865 0.1 -1.125 0.00870537
1.2267 0.1 -0.190994 0.00144661
1.2267 0.1 0.190994 0.00142525
1.19808 0.1 -0.32548 0.00156143
1.19808 0.1 0.32548 0.00151357
0.990306 0.1 -0.75 0.00303517
0.990306 0.1 0.75 0.00272854
1.24274 0.1 -0.0314313 0.00138742
1.24274 0.1 0.0314313 0.00138115
1.20938 0.1 -0.29039 0.00151888
1.20938 0.1 0.29039 0.0014803
1.24274 0.1 -0.0942942 0.00139457
1.24274 0.1 0.0942942 0.00138299
0.93886 0.1 0.821002 0.00313492
1.11928 0.1 -0.552285 0.00199146
1.11928 0.1 0.552285 0.00185113
1.15704 0.1 -0.470036 0.00177782
1.15704 0.1 0.470036 0.00167824
0.969689 0.1 -0.7875 0.00323007
0.96969 0.1 0.7875 0.00290315
0.93886 0.1 -0.825 0.00351805
0.90582 0.1 0.8625 0.00341618
0.905821 0.1 -0.8625 0.00381581
1.1744 0.1 -0.430821 0.00169706
1.1744 0.1 0.430821 0.00161301
1.10076 0.1 -0.594676 0.0021136
1.10076 0.1 0.594676 0.00194436
1.14316 0.1 -0.508816 0.00185392
1.14316 0.1 0.508816 0.00174011
1.24274 0.1 -0.157157 0.00140542
1.24274 0.1 0.157157 0.00138869
1.2267 0.1 -0.254659 0.00146869
1.2267 0.1 0.254659 0.00143763
0.467897 0.1 1.1625 0.00938106
0.467897 0.1 -1.1625 0.00954452
1.08012 0.1 0.638947 0.00206179
1.08012 0.1 -0.638947 0.00226518
1.25511 0.1 -5.78241e-19 0.00136136
0.835106 0.1 -0.9375 0.00460823
0.835106 0.1 0.9375 0.00415156
0.871687 0.1 -0.903998 0.00417313
1.25511 0.1 0.0622446 0.00135874
1.25511 0.1 -0.0622446 0.00136839
0.219992 0.1 1.2375 0.0124432
0.219992 0.1 -1.2375 0.0137976
0 0.1 -1.25701 0.00530487
0 0.1 1.25701 0.00521517
0.0363518 0.1 -1.25701 0.00823598
0.0363518 0.1 1.25701 0.00784772
0.797314 0.1 0.975 0.00464803
0.797314 0.1 -0.975 0.00512914
1.19808 0.1 -0.390576 0.00160237
1.19808 0.1 0.390576 0.0015387
1.0579 0.1 -0.684997 0.00244568
1.0579 0.1 0.684997 0.00220168
1.20938 0.1 -0.354921 0.00155323
1.20938 0.1 0.354921 0.00150196
1.25511 0.1 0.124489 0.001362
1.25511 0.1 -0.124489 0.00137754
1.24274 0.1 -0.220019 0.00142263
1.24274 0.1 0.220019 0.00139842
0.756813 0.1 1.0125 0.00516232
0.756814 0.1 -1.0125 0.00564934
1.2267 0.1 -0.318324 0.00149751
1.2267 0.1 0.318324 0.00145502
0.411108 0.1 1.2 0.0103237
0.411108 0.1 -1.2 0.0106944
1.25511 0.1 -0.186734 0.00139137
1.25511 0.1 0.186734 0.00136919
0.714971 0.1 1.05 0.00576281
0.714971 0.1 -1.05 0.00620916
1.04168 0.1 -0.729162 0.00266011
1.04168 0.1 0.729162 0.00236726
1.24274 0.1 0.282882 0.00141209
1.24274 0.1 -0.282882 0.00144646
0 0.1 1.275 0.00522233
0 0.1 -1.275 0.00530697
1.1744 0.1 0.497102 0.00165221
1.1744 0.1 -0.497102 0.00174925
1.15704 0.1 -0.537184 0.00184483
1.15704 0.1 0.537184 0.00172585
1.2756 0.1 -0.03061 0.00132478
1.2756 0.1 0.03061 0.0013186
0.67013 0.1 1.0875 0.006367
0.67013 0.1 -1.0875 0.00677952
1.2756 0.1 -0.09183 0.00133304
1.2756 0.1 0.09183 0.00131913
1.25511 0.1 -0.248978 0.00141133
1.25511 0.1 0.248978 0.00138035
1.20938 0.1 0.419453 0.00152849
1.20938 0.1 -0.419453 0.00159598
1.11928 0.1 -0.621322 0.00209771
1.11928 0.1 0.621322 0.00192189
1.14316 0.1 -0.576659 0.00193907
1.14316 0.1 0.576659 0.00179536
1.19808 0.1 -0.455673 0.00165188
1.19808 0.1 0.455673 0.00156984
1.02149 0.1 0.776219 0.00258303
1.02149 0.1 -0.776219 0.00292943
0.150379 0.1 1.275 0.0116198
0.150379 0.1 -1.275 0.0126245
1.2756 0.1 -0.15305 0.00134311
1.2756 0.1 0.15305 0.0013236