# nutMean  POINT_DATA 91129
# x  y  z  nutMean
0 0 0 4.98888e-06
0 0.00368111 0 1.77571e-05
0 0.00749587 0 6.74543e-05
0 0.0114491 0 0.000251289
0 0.0155459 0 0.000659974
0 0.0197915 0 0.00164616
0 0.0241911 0 0.002538
0 0.0287506 0 0.00297762
0 0.0334755 0 0.00344097
0 0.038372 0 0.0037645
0 0.0434463 0 0.00399047
0 0.0487048 0 0.00416357
0 0.0541543 0 0.00430896
0 0.0598016 0 0.00444109
0 0.0656539 0 0.00457004
0 0.0717187 0 0.00470316
0.075776 0.00184055 0 8.54519e-06
0.075776 0.00558849 0 1.27445e-05
0.075776 0.00947248 -3.46945e-18 6.01521e-05
0.075776 0.0134975 -3.46945e-18 0.000279266
0.075776 0.0176687 3.46945e-18 0.00079115
0 0.0780037 0 0.00484217
0.075776 0.0219913 3.46945e-18 0.00159615
0.075776 0.0264709 3.46945e-18 0.00270724
0.075776 0.031113 -3.46945e-18 0.00410532
0.075776 0.0359237 -3.46945e-18 0.00574603
0 0.0845169 0 0.0049851
0.075776 0.0409092 0 0.00757371
0.075776 0.0460755 -3.46945e-18 0.00952782
0 0.0912666 0 0.00513104
0.075776 0.0514296 -3.46945e-18 0.0115477
0.075776 0.0569779 0 0.0135739
0 0.0982613 0 0.00527996
0.075776 0.0627278 0 0.0155488
0.075776 0.0686863 0 0.0167504
0 0.10551 0 0.00543136
0.075776 0.0748612 3.46945e-18 0.0174238
0.075776 0.0812603 -3.46945e-18 0.0181683
0 0.113022 0 0.00558444
0.075776 0.0878918 3.46945e-18 0.0189963
0 0.120806 0 0.00573829
0.075776 0.0947639 3.46945e-18 0.0199206
0.075776 0.101886 -3.46945e-18 0.020961
0 0.128874 0 0.00589344
0.075776 0.109266 3.46945e-18 0.022153
0 0.137234 0 0.00606014
0.075776 0.116914 3.46945e-18 0.0235463
0 0.145897 0 0.00625731
0.075776 0.12484 0 0.0252048
0.151552 0 0 0
0.151552 0.00368111 0 7.06903e-06
0.151552 0.00749587 0 2.44566e-05
0.151552 0.0114491 0 0.000106186
0.151552 0.0155459 0 0.000329486
0.151552 0.0197915 0 0.000745858
0.075776 0.133054 0 0.0272172
0.151552 0.0241911 0 0.0013734
0.151552 0.0287506 0 0.00221633
0 0.154876 0 0.00649092
0.151552 0.0334755 0 0.00326182
0.151552 0.038372 0 0.00448663
0.151552 0.0434463 0 0.00586178
0.151552 0.0487048 0 0.00735556
0.075776 0.141566 0 0.0294808
0.151552 0.0541543 0 0.00893496
0.151552 0.0598016 0 0.0105667
0 0.16418 0 0.00674949
0.151552 0.0656539 0 0.0120582
0.151552 0.0717187 0 0.0132885
0.075776 0.150387 0 0.0307557
0.151552 0.0780037 0 0.014452
0.151552 0.0845169 0 0.0156857
0 0.173822 0 0.00702491
0.075776 0.159528 0 0.0315027
0.151552 0.0912666 0 0.0169836
0.151552 0.0982613 0 0.0183399
0 0.183814 0 0.00731626
0.151552 0.10551 0 0.0197539
0.075776 0.169001 3.46945e-18 0.031777
0.151552 0.113022 0 0.021232
0.151552 0.120806 0 0.0227877
0 0.194169 0 0.00762169
0.075776 0.178818 3.46945e-18 0.0315249
0.151552 0.128874 0 0.024447
0.075776 0.188992 3.46945e-18 0.0305306
0.151552 0.137234 0 0.0261773
0 0.2049 0 0.00793775
0.151552 0.145897 0 0.0276462
0.075776 0.199535 0 0.0284892
0 0.21602 0 0.00826324
0.151552 0.154876 0 0.0286832
0.219992 0.00184055 0 2.3237e-06
0.219992 0.00558849 0 5.21293e-06
0.219992 0.00947248 -3.46945e-18 2.15622e-05
0.219992 0.0134975 3.46945e-18 7.35378e-05
0.219992 0.0176687 0 0.00020564
0.219992 0.0219913 0 0.000459377
0.219993 0.0264709 -3.46945e-18 0.000850571
0.219992 0.031113 -3.46945e-18 0.00138523
0.219992 0.0359238 3.46945e-18 0.00206663
0.151552 0.16418 0 0.0294168
0.075776 0.21046 0 0.0264373
0.219992 0.0409092 3.46945e-18 0.00289439
0.219992 0.0460755 0 0.00386471
0.219993 0.0514296 -3.46945e-18 0.00497135
0.219992 0.0569779 0 0.00620441
0 0.227544 0 0.00865606
0.219992 0.0627277 3.46945e-18 0.00755384
0.219992 0.0686863 0 0.00900859
0.151552 0.173822 0 0.0298468
0.219992 0.0748612 3.46945e-18 0.0105549
0.075776 0.221782 0 0.0245722
0.219992 0.0812603 3.46945e-18 0.0121749
0.219992 0.0878917 -3.46945e-18 0.0138484
0.151552 0.183814 0 0.0298871
7.47806e-17 0.239487 0 0.0091422
0.219992 0.0947639 3.46945e-18 0.0155495
0.219993 0.101886 3.46945e-18 0.0172513
0.075776 0.233516 0 0.0235932
0.219993 0.109266 0 0.0189273
0.151552 0.194169 0 0.0293769
0.219993 0.116914 0 0.0205502
0 0.251863 0 0.00967965
0.219993 0.12484 0 0.0220936
0.151552 0.2049 0 0.0284986
0.075776 0.245675 0 0.0230342
0.219992 0.133054 3.46945e-18 0.0235432
0.219992 0.141565 0 0.0248017
0.151552 0.21602 0 0.0275751
0 0.264688 0 0.0102582
0.219992 0.150387 3.46945e-18 0.0259263
0.075776 0.258275 3.46945e-18 0.0226701
0.219992 0.159528 -3.46945e-18 0.0269238
0.151552 0.227544 0 0.0268244
0.219992 0.169001 3.46945e-18 0.0278048
0 0.27798 0 0.0108795
0.075776 0.271334 3.46945e-18 0.0224879
0.151552 0.239487 3.70071e-18 0.026304
0.219992 0.178818 3.46945e-18 0.0285574
0.288433 0 0 0
0.288433 0.00368111 0 2.94953e-06
0.288433 0.00749587 0 1.14012e-05
0.288433 0.0114491 0 3.82121e-05
0.288433 0.0155459 3.70071e-18 0.000106169
0.288433 0.0197915 0 0.000251518
0.288433 0.0241911 3.70071e-18 0.00050023
0.288433 0.0287506 0 0.000863935
0.219992 0.188991 0 0.0291103
0.288433 0.0334755 0 0.00135078
0.288433 0.038372 0 0.00196345
0.288433 0.0434463 0 0.00270196
7.47806e-17 0.291753 0 0.0115442
0.288433 0.0487048 0 0.00356404
0.288433 0.0541543 0 0.00454505
0.151552 0.251863 0 0.0258549
0.288433 0.0598016 3.70071e-18 0.0056383
0.075776 0.284866 0 0.022471
0.288433 0.0656539 3.70071e-18 0.00683538
0.219992 0.199534 0 0.0293977
0.288433 0.0717187 0 0.00812544
0.288433 0.0780037 0 0.00949358
0.288433 0.0845169 0 0.0109206
0.288433 0.0912666 0 0.0122814
0.219992 0.21046 -3.46945e-18 0.0295114
0.288433 0.0982613 0 0.0133272
0.151552 0.264688 3.70071e-18 0.0254273
0 0.306027 0 0.0122659
0.288433 0.10551 0 0.0141866
0.075776 0.29889 3.46945e-18 0.0225932
0.288433 0.113022 0 0.0151126
0.219993 0.221782 0 0.0294623
0.288433 0.120806 0 0.0160335
0.288433 0.128874 0 0.0168633
0.151552 0.27798 0 0.0251177
0.288433 0.137234 0 0.0175696
0 0.320819 0 0.0131682
0.219992 0.233515 -3.46945e-18 0.0292498
0.075776 0.313423 -3.46945e-18 0.0229003
0.288433 0.145897 0 0.0181877
0.288433 0.154876 0 0.0187592
0.151552 0.291753 0 0.0249193
0.219993 0.245675 0 0.0288808
0.288433 0.16418 0 0.019281
0 0.336148 0 0.0146063
0.288433 0.173822 0 0.0197462
0.075776 0.328484 -3.46945e-18 0.0240069
0.219993 0.258275 -3.46945e-18 0.028375
0.151552 0.306027 0 0.0247173
0.288433 0.183814 0 0.0201307
0.288433 0.194169 0 0.0204
0.219992 0.271334 3.46945e-18 0.0277406
0.350249 0.00184056 -3.46945e-18 8.79672e-07
0.350249 0.00558849 0 3.50224e-06
0.350249 0.00947248 3.46945e-18 1.56198e-05
0.350249 0.0134975 0 4.35022e-05
0.350249 0.0176687 0 0.000106911
0.350249 0.0219913 0 0.000246052
0.350249 0.0264708 3.46945e-18 0.000467671
0.350249 0.031113 0 0.000789603
0 0.352034 0 0.0159472
0.350249 0.0359238 0 0.0012168
0.075776 0.344091 0 0.0272393
0.350249 0.0409091 0 0.00175199
0.350249 0.0460756 3.46945e-18 0.00239633
0.288433 0.2049 0 0.0205599
0.350249 0.0514296 0 0.00314925
0.151552 0.320819 0 0.0246694
0.350249 0.0569779 0 0.00400843
0.350249 0.0627277 3.46945e-18 0.00496881
0.350249 0.0686863 3.46945e-18 0.0060227
0.350249 0.0748612 3.46945e-18 0.00715891
0.350249 0.0812603 0 0.00836054
0.219992 0.284867 0 0.0273678
0.288433 0.21602 0 0.0206342
0.350249 0.0878917 0 0.00960568
0.350249 0.094764 0 0.0104769
0.350249 0.101886 0 0.010482
0.350249 0.109266 0 0.0106586
0.288433 0.227544 0 0.0206242
0.075776 0.360265 3.46945e-18 0.0275399
0 0.368496 0 0.0162688
0.151552 0.336148 0 0.0252888
0.350249 0.116914 3.46945e-18 0.0109932
0.219992 0.29889 0 0.0268803
0.370854 0.0241911 1.54074e-33 0.000364062
0.350249 0.12484 0 0.011273
0.350249 0.133054 0 0.0114168
0.288433 0.239487 -9.25154e-19 0.0205296
0.350249 0.141566 3.46945e-18 0.011485
0.350249 0.150387 3.46945e-18 0.0115902
0.288433 0.251863 0 0.0203551
0.219992 0.313423 0 0.0261944
0.151552 0.352034 0 0.0257026
0.075776 0.377027 0 0.0256735
0.350249 0.159528 0 0.0117201
0 0.385557 0 0.0157418
0.350249 0.169001 0 0.0118597
0.288433 0.264688 0 0.0201043
0.350249 0.178818 0 0.0119984
0.219992 0.328484 0 0.0253904
0.350249 0.188992 0 0.0121313
0.151552 0.368496 0 0.0248522
0.288433 0.27798 3.70071e-18 0.0198704
0.075776 0.394397 0 0.0231125
0.350249 0.199535 0 0.012257
7.47806e-17 0.403236 0 0.0152207
0.219992 0.344091 0 0.0245699
0.350249 0.21046 -3.46945e-18 0.012375
0.288433 0.291753 0 0.0196569
0.412065 9.08189e-19 3.08149e-33 2.39507e-22
0.412065 0.00368111 -2.31298e-18 2.10286e-06
0.412065 0.00749587 -2.31298e-18 9.59929e-06
0.412065 0.0114491 -2.31298e-18 2.78722e-05
0.412065 0.0155459 -2.31298e-18 6.61047e-05
0.412065 0.0197915 0 0.00014768
0.412065 0.0241911 -3.08149e-33 0.000295978
0.412065 0.0264709 0 0.000409992
0.412065 0.0287506 -2.31298e-18 0.000524005
0.412065 0.0334755 -2.31298e-18 0.000841455
0.412065 0.038372 -2.31298e-18 0.00125445
0.151552 0.385557 0 0.023256
0.412065 0.0434463 0 0.00176514
0.350249 0.221782 0 0.0124832
0.412065 0.0487048 0 0.00237405
0.412065 0.0541543 -3.08149e-33 0.00307993
0.412065 0.0569779 0 0.00347961
0.412065 0.0598016 -2.31298e-18 0.00387929
0.412065 0.0656539 -2.31298e-18 0.00476569
0.412065 0.0717187 -2.31298e-18 0.0057293
0.075776 0.412396 -3.46945e-18 0.0223053
0.412065 0.0780037 -2.31298e-18 0.00675553
0.288433 0.306027 0 0.0193546
0.412065 0.0845169 -2.31298e-18 0.00772189
0.350249 0.233516 3.46945e-18 0.0125783
0 0.421557 0 0.015176
0.412065 0.0912666 -2.31298e-18 0.00838864
0.219992 0.360265 3.46945e-18 0.0237185
0.412065 0.0982613 0 0.00863094
0.412065 0.10551 0 0.00870627
0.412065 0.113022 -2.31298e-18 0.00886507
0.350249 0.245675 0 0.0126572
0.412065 0.120806 0 0.00904899
0.151552 0.403236 0 0.0218953
0.288433 0.320819 0 0.0189644
0.412065 0.128874 -2.31298e-18 0.00918523
0.412065 0.137234 0 0.00926937
0.350249 0.258275 -3.46945e-18 0.0127158
0.219992 0.377026 0 0.0227439
0.412065 0.145897 -2.31298e-18 0.00934492
0.075776 0.431051 0 0.0222301
0.412065 0.154876 -2.31298e-18 0.00943571
0 0.440544 0 0.0152982
0.288433 0.336148 0 0.0185324
0.350249 0.271334 0 0.0127472
0.412065 0.16418 -2.31298e-18 0.00953426
0.412065 0.173822 -2.31298e-18 0.00963433
0.151552 0.421557 0 0.0211774
0.412065 0.183814 -2.31298e-18 0.0097321
0.350249 0.284867 3.46945e-18 0.0127476
0.219992 0.394397 0 0.0216667
0.288433 0.352034 3.70071e-18 0.0180809
0.412065 0.194169 0 0.00982599
0.075776 0.450382 0 0.0222643
0.412065 0.2049 -2.31298e-18 0.00991537
0 0.46022 0 0.0154361
0.350249 0.29889 3.46945e-18 0.0127209
0.412065 0.21602 0 0.00999949
0.151552 0.440544 0 0.0207406
0.219993 0.412396 3.46945e-18 0.0206202
0.467897 0.00184056 -3.46945e-18 6.03342e-07
0.467897 0.00558849 0 3.43854e-06
0.288433 0.368496 0 0.0175822
0.467897 0.00947248 0 1.58316e-05
0.467897 0.0134975 0 3.67713e-05
0.467897 0.0176687 3.46945e-18 7.85048e-05
0.467897 0.0219913 -3.46945e-18 0.000163273
0.467897 0.0264709 3.46945e-18 0.000315409
0.467897 0.0311131 3.46945e-18 0.000537932
0.467897 0.0359238 -3.46945e-18 0.000844045
0.467897 0.038372 0 0.0010829
0.467897 0.0409092 3.46945e-18 0.00123702
0.350249 0.313423 0 0.0126697
0.467897 0.0460755 0 0.00171832
0.467897 0.0514296 3.46945e-18 0.00228788
0.412065 0.227544 -2.31298e-18 0.0100769
0.467897 0.0569779 0 0.00294372
0.467897 0.0627277 -3.46945e-18 0.00368114
0.467897 0.0686863 3.46945e-18 0.00449186
0.467897 0.0748612 0 0.00536379
0.467897 0.0812603 0 0.00627878
0.467897 0.0878918 3.46945e-18 0.00681824
0.075776 0.470415 3.46945e-18 0.0223428
0.412065 0.239487 -2.31298e-18 0.0101457
0.467897 0.0947639 -3.46945e-18 0.00688381
0.467897 0.101886 3.46945e-18 0.00693832
0.350249 0.328483 0 0.0125979
0.467897 0.109266 0 0.00700557
0 0.48061 0 0.0155684
0.288433 0.385557 0 0.0170148
0.467897 0.116914 0 0.00707575
0.412065 0.251863 -2.31298e-18 0.0102042
0.219992 0.431051 0 0.0197193
0.467897 0.12484 0 0.00714396
0.151552 0.46022 0 0.0204151
0.467897 0.133054 3.46945e-18 0.00720754
0.467897 0.141566 3.46945e-18 0.00727152
0.412065 0.264688 -2.31298e-18 0.0102497
0.350249 0.344091 -3.46945e-18 0.0125101
0.467897 0.150387 3.46945e-18 0.00733781
0.467897 0.154876 0 0.00790086
0.467897 0.159528 3.46945e-18 0.00740314
0.288433 0.403236 0 0.0164144
0.075776 0.491175 0 0.0224178
0.412065 0.27798 -2.31298e-18 0.0102799
0.467897 0.169001 0 0.00746741
0.467897 0.178818 3.46945e-18 0.00753046
0.219992 0.450382 0 0.0189771
6.73026e-17 0.501741 3.70071e-18 0.0156576
0.350249 0.360265 0 0.012407
0.151552 0.48061 0 0.0201533
0.467897 0.188991 0 0.00759211
0.412065 0.291753 0 0.0102949
0.467897 0.199535 0 0.00765216
0.288433 0.421557 0 0.0158463
0.467897 0.21046 0 0.00771035
0.412065 0.306027 0 0.0102954
0.350249 0.377027 0 0.0122803
0.467897 0.221782 3.46945e-18 0.00776634
0.075776 0.51269 0 0.0223841
0.219993 0.470415 3.46945e-18 0.0183625
0.467897 0.227544 0 0.00839846
0.412065 0.320819 -2.31298e-18 0.0102819
0.467897 0.233515 0 0.00781973
6.73026e-17 0.523639 3.70071e-18 0.0156781
0.523729 0 0 0
0.523729 0.00368111 0 1.97625e-06
0.523729 0.00749587 -2.31298e-18 1.01056e-05
0.523729 0.0114491 0 2.69427e-05
0.523729 0.0155459 0 5.52195e-05
0.523729 0.0197915 -2.31298e-18 0.000108017
0.151552 0.501741 0 0.0198989
0.523729 0.0241911 0 0.000209341
0.523729 0.0287506 0 0.000372185
0.523729 0.0334755 0 0.000602705
0.523729 0.038372 -3.08149e-33 0.000911357
0.523729 0.0434463 0 0.00130073
0.523729 0.0487048 0 0.00177143
0.523729 0.0541543 0 0.00232223
0.288433 0.440544 0 0.0153507
0.523729 0.0598016 0 0.00294956
0.350249 0.394397 -3.46945e-18 0.0121216
0.523729 0.0656539 0 0.00364663
0.467897 0.245675 0 0.00787014
0.523729 0.0717187 0 0.0044027
0.523729 0.0780037 0 0.00516641
0.523729 0.0845169 0 0.00569114
0.523729 0.0912666 0 0.005878
0.412065 0.336148 0 0.0102558
0.523729 0.0982613 0 0.00594469
0.523729 0.10551 -2.31298e-18 0.00601
0.467897 0.258275 -3.46945e-18 0.0079174
0.523729 0.113022 0 0.00607561
0.523729 0.120806 -3.08149e-33 0.00613868
0.219993 0.491176 0 0.0178277
0.523729 0.12484 0 0.00616835
0.523729 0.128874 -2.31298e-18 0.00619803
0.075776 0.534986 0 0.0222649
0.467897 0.271334 3.46945e-18 0.00796176
0.350249 0.412396 -3.46945e-18 0.0119349
0.523729 0.137234 0 0.00625465
0.412065 0.352034 -2.31298e-18 0.0102178
0.288433 0.46022 0 0.0149311
0.523729 0.145897 0 0.00631064
0.151552 0.523639 0 0.0196227
0.523729 0.154876 -3.08149e-33 0.00636602
0 0.546332 0 0.0156432
0.523729 0.159528 0 0.0063931
0.467897 0.284867 -3.46945e-18 0.00800436
0.523729 0.16418 -2.31298e-18 0.00642018
0.523729 0.173822 0 0.00647319
0.412065 0.368496 0 0.010166
0.523729 0.183814 0 0.00652505
0.467897 0.29889 0 0.00804398
0.350249 0.431051 -3.46945e-18 0.0117373
0.219992 0.51269 0 0.0173446
0.523729 0.194169 0 0.00657575
0.288433 0.48061 0 0.0145728
0.523729 0.2049 0 0.00662522
0.467897 0.313423 3.46945e-18 0.00807846
0.075776 0.558091 0 0.0220877
0.412065 0.385557 0 0.0100959
0.523729 0.21602 -3.08149e-33 0.00667336
0.151552 0.546332 0 0.0193345
0 0.569849 0 0.0155665
0.350249 0.450382 3.46945e-18 0.0115474
0.523729 0.227544 -3.08149e-33 0.00672004
0.467897 0.328483 0 0.00810619
0.523729 0.231525 1.54074e-33 0.00673506
0.574156 0.00184056 0 4.57571e-07
0.574156 0.00558849 0 3.4115e-06
0.574157 0.00947248 0 1.76795e-05
0.574156 0.0134975 -3.46945e-18 3.74051e-05
0.574156 0.0176687 -3.46945e-18 6.85151e-05
0.574156 0.0219913 0 0.000123465
0.574156 0.0264708 -3.46945e-18 0.000239156
0.574156 0.031113 0 0.000403395
0.574156 0.0359238 -3.46945e-18 0.000637034
0.574157 0.0409092 0 0.000944277
0.523729 0.239487 3.70071e-18 0.00676511
0.574156 0.0460755 -3.46945e-18 0.00132652
0.574156 0.0514295 0 0.00178339
0.412065 0.403236 0 0.0100064
0.574157 0.0569779 0 0.00231243
0.574156 0.0627277 0 0.00290855
0.574156 0.0686863 0 0.00356263
0.219992 0.534986 0 0.0169052
0.288433 0.501741 0 0.0142577
0.574156 0.0748612 3.46945e-18 0.00426135
0.574156 0.0812603 0 0.00484753
0.467897 0.344091 0 0.00812588
0.574156 0.0878917 3.46945e-18 0.0049323
0.523729 0.251863 0 0.0068085
0.574157 0.0947639 0 0.00500502
0.574156 0.101886 0 0.00507808
0.574156 0.109266 0 0.0051439
0.574156 0.116914 0 0.00520348
0.412065 0.416977 -6.16298e-33 0.00992838
0.350249 0.470415 0 0.0113777
0.523729 0.264688 0 0.00685031
0.075776 0.582034 0 0.0218723
0.574156 0.12484 0 0.00525855
0.574156 0.133054 3.46945e-18 0.00530991
0.412065 0.421557 -2.31298e-18 0.00990239
0.151552 0.569849 0 0.0190458
0.467897 0.360265 -3.46945e-18 0.00813696
0.574157 0.141566 -3.46945e-18 0.00535836
0.523729 0.27798 0 0.00689092
0.574156 0.150386 3.46945e-18 0.00540477
0 0.594219 0 0.0154583
0.574156 0.159528 -3.46945e-18 0.0054496
0.574156 0.16418 0 0.0056546
0.288433 0.523639 1.2326e-32 0.0139748
0.574157 0.169001 0 0.00549315
0.523729 0.291753 0 0.00693019
0.219993 0.558091 3.46945e-18 0.0165091
0.467897 0.377026 0 0.00813921
0.574156 0.178818 3.46945e-18 0.00553564
0.412065 0.440544 -2.31298e-18 0.00979389
0.350249 0.491175 0 0.011232
0.574156 0.188992 3.46945e-18 0.00557722
0.523729 0.306027 -3.08149e-33 0.00696702
0.574157 0.199535 0 0.005618
0.574157 0.21046 0 0.00565806
0.075776 0.606847 0 0.0216327
0.467897 0.394397 0 0.00813198
0.151552 0.594219 0 0.0187639
0.523729 0.320819 0 0.00700007
0.574157 0.221782 -3.46945e-18 0.00569748
0.412065 0.46022 3.08149e-33 0.00969062
0.288433 0.546332 0 0.0137205
0 0.619475 0 0.0153265
0.574156 0.233515 3.46945e-18 0.00573636
0.350249 0.51269 3.46945e-18 0.0111063
0.219992 0.582034 3.46945e-18 0.0161563
0.523729 0.336148 0 0.00702821
0.467897 0.412396 0 0.00811456
0.574156 0.245675 0 0.00577478
0.624584 0 0 0
0.624584 0.00368111 0 1.91735e-06
0.624584 0.00749587 0 1.11697e-05
0.624584 0.0114491 0 2.90661e-05
0.624584 0.0155459 0 5.32755e-05
0.624584 0.0197915 0 9.10785e-05
0.624584 0.0241911 -2.31298e-18 0.000163322
0.624584 0.0287506 0 0.000286905
0.624584 0.0334755 0 0.000466193
0.624584 0.038372 0 0.000708906
0.624584 0.0434463 -2.31298e-18 0.00102111
0.624584 0.0487048 0 0.0014034
0.624584 0.0541543 0 0.00185421
0.624584 0.0598016 0 0.00236955
0.624584 0.0656539 0 0.00294214
0.624584 0.0717187 0 0.00356051
0.624584 0.0780037 0 0.00408548
0.574157 0.258276 3.46945e-18 0.00581288
0.624584 0.0845169 0 0.00433327
0.523729 0.352034 0 0.00705067
0.624584 0.0912666 0 0.00441186
0.624584 0.0982613 0 0.00448383
0.412065 0.48061 3.08149e-33 0.0095989
0.624584 0.10551 0 0.00455026
0.624584 0.113022 -2.31298e-18 0.00460997
0.574156 0.271334 0 0.00585082
0.624584 0.120806 0 0.00466446
0.467897 0.431051 0 0.008088
0.075776 0.632561 -3.46945e-18 0.021378
0.624584 0.128874 0 0.00471482
0.151552 0.619475 0 0.0184928
0.288433 0.569849 0 0.0134935
0.350249 0.534985 0 0.0109967
0.624584 0.137234 -2.31298e-18 0.00476182
0.523729 0.368496 0 0.0070671
0.574156 0.284866 -3.46945e-18 0.00588861
0.624584 0.145897 0 0.00480616
0.467897 0.440544 0 0.00843111
0.624584 0.154876 0 0.00484842
0.219992 0.606847 -3.46945e-18 0.0158441
0 0.645647 0 0.0151772
0.624584 0.16418 -3.08149e-33 0.00488901
0.574156 0.29889 -3.46945e-18 0.00592584
0.624584 0.173822 0 0.00492823
0.412065 0.501741 1.54074e-33 0.00952042
0.467897 0.450382 -3.46945e-18 0.00805604
0.523729 0.385557 0 0.00707721
0.624584 0.183814 0 0.00496633
0.624584 0.194169 0 0.00500349
0.574156 0.313423 0 0.00596173
0.624584 0.2049 0 0.00503987
0.350249 0.558091 3.46945e-18 0.0109002
0.288433 0.594219 0 0.0132928
0.624584 0.21602 0 0.00507559
0.523729 0.403236 0 0.00708055
0.574156 0.328483 -3.46945e-18 0.00599543
0.151552 0.645647 0 0.0182341
0.467897 0.470415 3.46945e-18 0.0080237
0.075776 0.659208 0 0.0211141
0.624584 0.227544 0 0.00511079
0.412065 0.523639 0 0.00945399
0.523729 0.41545 3.08149e-33 0.00707829
0.624584 0.239487 3.70071e-18 0.00514558
0.574156 0.344091 0 0.00602616
0.219992 0.632561 0 0.015569
0.67013 0.00184055 0 3.56171e-07
0.67013 0.00558849 0 3.44636e-06
0.67013 0.00947248 0 2.00656e-05
0.67013 0.0134975 0 4.09288e-05
0.67013 0.0176687 -3.46945e-18 6.62156e-05
0.67013 0.0219913 0 0.00010672
0.67013 0.0264708 3.46945e-18 0.000186149
0.67013 0.0311131 0 0.000323128
0.67013 0.0359237 0 0.000507825
0.67013 0.0409092 -3.46945e-18 0.000756493
0.67013 0.0460755 0 0.00107112
0.67013 0.0514296 3.46945e-18 0.0014511
0.523729 0.421557 -2.31298e-18 0.00707715
0.67013 0.056978 0 0.00189361
0 0.67277 0 0.0150149
0.67013 0.0627277 0 0.00239307
0.624584 0.251863 0 0.00518011
0.67013 0.0686863 0 0.0029402
0.67013 0.0748612 3.46945e-18 0.00352081
0.67013 0.0812603 0 0.00376951
0.67013 0.0878917 0 0.00385167
0.67013 0.0947639 3.46945e-18 0.00392638
0.574156 0.360265 0 0.00605346
0.67013 0.101886 0 0.00399386
0.523729 0.431051 0 0.00707274
0.624584 0.264688 0 0.00521449
0.467897 0.491175 0 0.00799526
0.67013 0.109266 3.46945e-18 0.00405359
0.350249 0.582034 0 0.0108157
0.67013 0.116914 0 0.00410765
0.67013 0.12484 0 0.00415721
0.67013 0.133054 0 0.00420301
0.288433 0.619475 0 0.013117
0.624584 0.27798 -3.08149e-33 0.00524878
0.412065 0.546332 1.54074e-33 0.00939803
0.523729 0.440544 -3.08149e-33 0.00706833
0.67013 0.141566 3.46945e-18 0.00424572
0.685312 0.0241911 -7.70372e-34 0.000144746
0.685312 0.0434463 -7.70372e-34 0.000896138
0.67013 0.150387 0 0.00428587
0.574156 0.377026 -3.46945e-18 0.00607715
0.67013 0.159528 0 0.00432391
0.624584 0.291753 0 0.00528284
0.151552 0.67277 0 0.0179881
0.075776 0.686823 0 0.0208454
0.67013 0.169001 0 0.00436024
0.67013 0.178818 0 0.00439519
0.467897 0.51269 0 0.00797298
0.685312 0.113022 -7.70372e-34 0.00401115
0.219992 0.659208 0 0.0153268
0.624584 0.306027 0 0.0053163
0.67013 0.188991 0 0.00442902
0.574156 0.394397 3.46945e-18 0.00609707
0.523729 0.46022 0 0.00705679
0.685312 0.137234 -7.70372e-34 0.00415475
0.67013 0.199535 -3.46945e-18 0.00446193
0.350249 0.606847 0 0.010743
0 0.700877 0 0.0148436
0.624584 0.320819 0 0.00534861
0.67013 0.21046 0 0.00449413
0.412065 0.569849 -2.31298e-18 0.00935136
0.67013 0.221782 -3.46945e-18 0.00452578
0.574157 0.412396 0 0.00611298
0.288433 0.645647 0 0.0129644
0.624584 0.336148 -3.08149e-33 0.0053792
0.67013 0.233515 3.46945e-18 0.00455705
0.467897 0.534986 0 0.00795749
0.523729 0.48061 0 0.0070457
0.624584 0.344091 0 0.00539341
0.67013 0.245675 0 0.0045881
0.715676 4.54095e-19 0 5.24159e-23
0.715676 0.00368111 0 1.89957e-06
0.715676 0.00749587 0 1.24448e-05
0.715676 0.0114491 0 3.2365e-05
0.715676 0.0155459 0 5.52403e-05
0.715676 0.0197915 0 8.48428e-05
0.715676 0.0241911 0 0.000135458
0.715676 0.0287506 0 0.000231726
0.715676 0.0334755 0 0.000378918
0.715676 0.038372 0 0.000576
0.624584 0.352034 -2.31298e-18 0.00540762
0.715676 0.0434463 0 0.000833654
0.151552 0.700877 0 0.0177548
0.715676 0.0487048 0 0.00115352
0.715676 0.0541543 0 0.00153396
0.574156 0.43105 0 0.00612487
0.715676 0.0598016 0 0.00197067
0.67013 0.258275 0 0.00461904
0.715676 0.0656539 0 0.00245609
0.715676 0.0717187 0 0.00297018
0.075776 0.715441 0 0.0205755
0.715676 0.0780037 0 0.0033183
0.715676 0.0845169 0 0.0034466
0.219992 0.686824 0 0.0151137
0.715676 0.0912666 0 0.00352426
0.715676 0.0982613 0 0.00359424
0.67013 0.271334 -3.46945e-18 0.00464995
0.350249 0.632561 -3.46945e-18 0.0106823
0.412065 0.594219 3.08149e-33 0.00931349
0.715676 0.10551 0 0.00365626
0.715676 0.113022 0 0.00371174
0.624584 0.368496 0 0.00543358
0.523729 0.501741 0 0.00703766
0.715676 0.120806 0 0.00376218
0.715676 0.128874 0 0.00380843
0.67013 0.284867 0 0.00468082
0.467897 0.558091 3.46945e-18 0.00794847
0.715676 0.137234 0 0.00385122
0.574156 0.450382 0 0.00613341
0 0.730005 0 0.0146667
0.715676 0.145897 0 0.00389113
0.288433 0.67277 0 0.0128329
0.715676 0.154876 0 0.00392866
0.67013 0.29889 0 0.00471154
0.624584 0.385557 0 0.00545692
0.715676 0.16418 -9.25187e-19 0.00396421
0.715676 0.173822 0 0.00399812
0.715676 0.183814 0 0.0040307
0.67013 0.313423 0 0.00474185
0.523729 0.523639 0 0.00703418
0.715676 0.194169 0 0.00406217
0.574156 0.470415 3.46945e-18 0.00614015
0.624584 0.403236 0 0.00547748
0.743101 0.0241911 -7.70372e-34 0.000130284
0.412065 0.619475 3.08149e-33 0.00928449
0.715676 0.2049 0 0.00409274
0.151552 0.730005 0 0.0175343
0.67013 0.328484 3.46945e-18 0.00477142
0.350249 0.659208 0 0.0106339
0.467897 0.582034 0 0.00794544
0.715676 0.21602 0 0.00412261
0.219992 0.715441 0 0.0149262
0.075776 0.745097 -3.46945e-18 0.0203075
0.715676 0.227544 0 0.00415194
0.67013 0.344091 0 0.0047999
0.624584 0.421557 0 0.00549518
0.743101 0.128874 -7.70372e-34 0.0036052
0.715676 0.239487 3.70071e-18 0.00418089
0.574156 0.491175 0 0.00614715
0.756814 0.00184055 0 2.79482e-07
0.523729 0.546332 0 0.00703583
0.756813 0.00558849 0 3.51657e-06
0.756813 0.00947248 0 2.26736e-05
0.756814 0.0134975 -3.46945e-18 4.5582e-05
0.756814 0.0155459 0 5.70684e-05
0.756814 0.0176687 0 6.80477e-05
0.756814 0.0219913 0 9.85725e-05
0.756814 0.0264709 0 0.000151632
0.756814 0.031113 -3.46945e-18 0.000268585
0.756813 0.0359238 -3.46945e-18 0.000420267
0.288433 0.700877 0 0.0127208
0.756814 0.0409092 -3.46945e-18 0.000625763
0.756813 0.0460755 3.46945e-18 0.000890294
0.756813 0.0514296 0 0.00121373
0.715676 0.251863 0 0.0042096
0.756813 0.0569779 0 0.00159305
0.756814 0.0627277 -3.46945e-18 0.00202245
0.756814 0.0686863 -3.46945e-18 0.00249242
0 0.76019 0 0.0144874
0.756814 0.0748612 0 0.00295667
0.67013 0.360265 3.46945e-18 0.00482703
0.756814 0.0812603 -3.46945e-18 0.00306304
0.756814 0.0878917 -3.46945e-18 0.00314318
0.756814 0.0947639 -3.46945e-18 0.00321687
0.715676 0.264688 0 0.00423815
0.756813 0.101886 0 0.00328104
0.624584 0.440544 0 0.0055102
0.756813 0.109266 3.46945e-18 0.0033379
0.756813 0.116914 3.46945e-18 0.00338934
0.412065 0.645647 0 0.00926459
0.467897 0.606847 0 0.0079483
0.756814 0.120806 0 0.00345807
0.756813 0.12484 0 0.00343617
0.715676 0.27798 0 0.00426659
0.756814 0.133054 -3.46945e-18 0.00347914
0.67013 0.377026 -3.46945e-18 0.0048526
0.756814 0.137234 0 0.00354558
0.574156 0.51269 0 0.00615628
0.756813 0.141566 3.46945e-18 0.00351894
0.685312 0.352034 -7.70372e-34 0.0047383
0.743101 0.2049 -7.70372e-34 0.0038838
0.350249 0.686824 0 0.0105974
0.756814 0.150387 0 0.0035561
0.756814 0.154876 0 0.00362125
0.715676 0.291753 0 0.00429489
0.756814 0.159528 -3.46945e-18 0.00359102
0.523729 0.569849 0 0.0070426
0.72743 0.264688 0 0.00414614
0.756814 0.16418 0 0.0036558
0.151552 0.76019 0 0.0173267
0.756813 0.169001 3.46945e-18 0.00362408
0.624584 0.46022 0 0.00552326
0.219993 0.745097 0 0.0147615
0.67013 0.394396 0 0.00487649
0.756813 0.178818 -3.46945e-18 0.00365558
0.715676 0.306027 0 0.00432296
0.075776 0.775831 0 0.020044
0.756813 0.188991 0 0.00368578
0.756814 0.199535 0 0.0037149
0.715676 0.320819 0 0.0043506
0.574156 0.534985 0 0.00616881
0.288433 0.730005 0 0.0126263
0.756813 0.21046 0 0.00374316
0.467897 0.632561 0 0.00795727
0.67013 0.412396 -3.46945e-18 0.0048986
0.624584 0.48061 -3.08149e-33 0.00553563
0.756814 0.221782 0 0.00377073
0.412065 0.67277 3.08149e-33 0.00925399
0.715676 0.336148 0 0.00437757
0 0.791472 0 0.0143084
0.756813 0.233516 3.46945e-18 0.00379777
0.523729 0.594219 0 0.00705444
0.624584 0.487654 1.54074e-33 0.00554002
0.756814 0.245675 3.46945e-18 0.00382444
0.350249 0.715441 3.46945e-18 0.0105726
0.67013 0.43105 0 0.0049189
0.715676 0.352034 -9.25187e-19 0.00440364
0.797951 9.08189e-19 -3.08149e-33 8.40465e-23
0.797951 0.00368111 2.31298e-18 1.89461e-06
0.797951 0.00749587 2.31298e-18 1.37598e-05
0.797951 0.0114491 2.31298e-18 3.59777e-05
0.797951 0.0141803 7.70372e-34 5.12568e-05
0.797951 0.0155459 0 5.88964e-05
0.797951 0.0169611 7.70372e-34 6.70376e-05
0.797951 0.0197915 2.31298e-18 8.33199e-05
0.797951 0.0219913 0 0.000101628
0.797951 0.0241911 3.08149e-33 0.000119936
0.797951 0.0264709 0 0.000156063
0.797951 0.0287506 -3.08149e-33 0.000192189
0.797951 0.0334755 2.31298e-18 0.000314998
0.797951 0.038372 2.31298e-18 0.000482652
0.797951 0.0434463 2.31298e-18 0.000698895
0.797951 0.0487048 0 0.000971573
0.756813 0.258275 -3.46945e-18 0.00385083
0.797951 0.0541543 2.31298e-18 0.00129914
0.797951 0.0598016 2.31298e-18 0.00167714
0.797951 0.0656539 2.31298e-18 0.00209761
0.574156 0.55809 0 0.00618535
0.624584 0.501741 0 0.00554878
0.797951 0.0717187 2.31298e-18 0.00250784
0.797951 0.0780037 -3.08149e-33 0.00275095
0.797951 0.0845169 2.31298e-18 0.00284423
0.797951 0.0912666 -3.08149e-33 0.00292171
0.797951 0.0982613 2.31298e-18 0.00299039
0.756813 0.271334 0 0.00387701
0.797951 0.10551 2.31298e-18 0.00305079
0.715676 0.368496 0 0.00442862
0.151552 0.791472 0 0.0171322
0.797951 0.113022 2.31298e-18 0.0031049
0.219992 0.775831 3.46945e-18 0.0146175
0.797951 0.118211 7.70372e-34 0.00313761
0.770526 0.239487 1.54074e-33 0.00375655
0.797951 0.120806 0 0.00315396
0.67013 0.450382 3.46945e-18 0.00493755
0.797951 0.128874 3.08149e-33 0.00319874
0.467897 0.659208 0 0.00797272
0.756813 0.284866 -3.46945e-18 0.00390303
0.743101 0.320819 -7.70372e-34 0.00413037
0.797951 0.137234 0 0.00323994
0.797951 0.141566 0 0.00325905
0.797951 0.145897 -9.25187e-19 0.00327815
0.523729 0.619475 0 0.00707142
0.075776 0.807681 0 0.0197878
0.797951 0.150387 0 0.003296
0.797951 0.154876 0 0.00331385
0.715676 0.385557 0 0.00445239
0.412065 0.700877 3.08149e-33 0.00925273
0.288433 0.76019 0 0.0125482
0.756813 0.29889 0 0.00392889
0.797951 0.16418 0 0.0033474
0.624584 0.523639 0 0.005564
0.797951 0.167394 7.70372e-34 0.00335797
0.797951 0.173822 2.31298e-18 0.00337912
0.574156 0.582034 0 0.00620609
0.67013 0.470415 0 0.00495511
0.797951 0.183814 2.31298e-18 0.00340929
0.756813 0.313423 -3.46945e-18 0.00395451
0.797951 0.194169 -9.25187e-19 0.00343815
0.715676 0.403236 0 0.00447485
0.151552 0.807681 0 0.0170419
0.797951 0.197746 -7.70372e-34 0.00344741
0.350249 0.745097 0 0.0105593
0.797951 0.2049 3.08149e-33 0.00346591
0 0.823889 0 0.0141325
0.756813 0.328483 -3.46945e-18 0.00397977
0.797951 0.21046 0 0.00347934
0.797951 0.21602 -3.08149e-33 0.00349276
0.797951 0.223703 7.70372e-34 0.00351016
0.797951 0.227544 9.25187e-19 0.00351886
0.624584 0.546332 0 0.00558222
0.715676 0.421557 0 0.00449598
0.67013 0.491176 -3.46945e-18 0.0049725
0.797951 0.231525 7.70372e-34 0.00352737
0.467897 0.686824 -3.46945e-18 0.00799502
0.523729 0.645647 0 0.00709382
0.756813 0.344091 -3.46945e-18 0.0040045
0.822721 0.120806 7.70372e-34 0.00300831
0.797951 0.239487 -3.08149e-33 0.00354438
0.822721 0.137234 7.70372e-34 0.00309421
0.835106 0.00184056 0 2.20538e-07
0.835106 0.00558849 0 3.56235e-06
0.835106 0.00947248 0 2.52191e-05
0.835106 0.0134975 0 5.02464e-05
0.835107 0.0176687 0 7.1496e-05
0.835106 0.0219913 -3.46945e-18 9.5164e-05