# nutMean  POINT_DATA 63840
# x  y  z  nutMean
0 0.5 3.39583e-17 0.0156502
0 0.5 -0.00617931 0.0156899
0 0.5 0.00617931 0.0156167
0.0124865 0.5 -0.00617931 0.0168255
0.0124865 0.5 0.00617931 0.0167176
0 0.5 -0.0688207 0.0159511
0 0.5 0.0688207 0.015206
0.0124865 0.5 -0.0688207 0.0170867
0.0124865 0.5 0.0688207 0.0163069
0 0.5 -0.075 0.0159634
0 0.5 0.075 0.015158
0 0.5 -0.0811793 0.0159821
0 0.5 0.0811793 0.0151157
0.0124865 0.5 -0.0811793 0.0171022
0.0124865 0.5 0.0811793 0.0161763
0.075776 0.5 -0.0375 0.0227244
0.075776 0.5 0.0375 0.0220835
0.075776 0.5 -0.1125 0.0228236
0.075776 0.5 0.1125 0.0212977
0 0.5 -0.143821 0.0161137
0 0.5 0.143821 0.0146377
0.0124865 0.5 -0.143821 0.0172338
0.0124865 0.5 0.143821 0.0156983
0 0.5 -0.15 0.0161208
0 0.5 0.15 0.0145854
0.151149 0.5 -0.00137318 0.019937
0 0.5 -0.156179 0.0161348
0 0.5 0.156179 0.0145385
0.0124865 0.5 -0.156179 0.0172667
0.0124865 0.5 0.156179 0.0155533
0.151149 0.5 0.075 0.0195062
0.151149 0.5 -0.075 0.0201869
0.075776 0.5 -0.1875 0.0230186
0.075776 0.5 0.1875 0.0204254
0.151149 0.5 0.15 0.0189617
0.151149 0.5 -0.15 0.0202765
0 0.5 -0.218821 0.0161428
0 0.5 0.218821 0.0140348
0.0124865 0.5 -0.218821 0.0172746
0.0124865 0.5 0.218821 0.0150496
0.219992 0.5 0.0375 0.0175257
0.219993 0.5 -0.0375 0.0177334
0 0.5 -0.225 0.01613
0 0.5 0.225 0.0139826
0 0.5 -0.231179 0.0161242
0 0.5 0.231179 0.0139344
0.0124865 0.5 -0.231179 0.0172641
0.0124865 0.5 0.231179 0.0149014
0.219992 0.5 0.1125 0.0174118
0.219993 0.5 -0.1125 0.0178137
0.151149 0.5 -0.225 0.020342
0.151149 0.5 0.225 0.0182979
0.075776 0.5 -0.2625 0.0229608
0.075776 0.5 0.2625 0.0195333
0.288069 0.5 -0.00137318 0.0143213
0.219992 0.5 0.1875 0.0169683
0.219993 0.5 -0.1875 0.0178052
0 0.5 0.293821 0.0134409
0 0.5 -0.293821 0.0159486
0.0124865 0.5 -0.293821 0.0170885
0.0124865 0.5 0.293821 0.0144079
0.288069 0.5 -0.075 0.0143786
0.288069 0.5 0.075 0.014222
0 0.5 -0.3 0.0159192
0 0.5 0.3 0.0133925
0 0.5 0.306179 0.0133457
0 0.5 -0.306179 0.0158963
0.0124865 0.5 -0.306179 0.0170048
0.0124865 0.5 0.306179 0.0142666
0.288069 0.5 -0.15 0.0144221
0.288069 0.5 0.15 0.0141059
0.151149 0.5 -0.3 0.0201725
0.151149 0.5 0.3 0.017629
0.219992 0.5 -0.2625 0.017939
0.219992 0.5 0.2625 0.0164913
0.075776 0.5 0.3375 0.0186837
0.075776 0.5 -0.3375 0.0224632
0.350249 0.5 -0.0375 0.0111821
0.350249 0.5 0.0375 0.0111788
0.288069 0.5 -0.225 0.0145139
0.288069 0.5 0.225 0.0139013
0.350249 0.5 0.1125 0.0111806
0.350249 0.5 -0.1125 0.0112128
0 0.5 0.368821 0.0128892
0 0.5 -0.368821 0.0155923
0.0124865 0.5 -0.368821 0.0167008
0.0124865 0.5 0.368821 0.01381
0 0.5 -0.375 0.0155553
0 0.5 0.375 0.0128467
0 0.5 -0.381179 0.015523
0 0.5 0.381179 0.0128036
0.0124865 0.5 -0.381179 0.0165942
0.0124865 0.5 0.381179 0.0136825
0.350249 0.5 -0.1875 0.0112833
0.350249 0.5 0.1875 0.0112513
0.219992 0.5 -0.3375 0.0176679
0.219992 0.5 0.3375 0.0160063
0.151149 0.5 -0.375 0.0197551
0.151149 0.5 0.375 0.0169909
0.411736 0.5 -0.00137318 0.00954674
0.288069 0.5 -0.3 0.0145391
0.288069 0.5 0.3 0.013672
0.411736 0.5 -0.075 0.00955013
0.411736 0.5 0.075 0.00954683
0.075776 0.5 -0.4125 0.0218262
0.075776 0.5 0.4125 0.0179152
0.350249 0.5 -0.2625 0.0114512
0.350249 0.5 0.2625 0.0112509
0.411736 0.5 -0.15 0.00960311
0.411736 0.5 0.15 0.00959152
0 0.5 -0.443821 0.0151534
0 0.5 0.443821 0.0124031
0.0124865 0.5 -0.443821 0.0162246
0.0124865 0.5 0.443821 0.013282
0 0.5 -0.45 0.0151134
0 0.5 0.45 0.0123679
0 0.5 -0.456179 0.0150753
0 0.5 0.456179 0.0123316
0.0124865 0.5 -0.456179 0.0161065
0.0124865 0.5 0.456179 0.013176
0.219992 0.5 -0.4125 0.0173831
0.219993 0.5 0.4125 0.0155333
0.411736 0.5 -0.225 0.00971192
0.411736 0.5 0.225 0.00965062
0.467897 0.5 0.0375 0.00798903
0.467897 0.5 -0.0375 0.00798321
0.288069 0.5 -0.375 0.014446
0.288069 0.5 0.375 0.0134504
0.151149 0.5 -0.45 0.0192773
0.151149 0.5 0.45 0.0164122
0.467897 0.5 -0.1125 0.00801704
0.467897 0.5 0.1125 0.00803184
0.350249 0.5 0.3375 0.0112642
0.350249 0.5 -0.3375 0.0115097
0.075776 0.5 -0.4875 0.0211207
0.075776 0.5 0.4875 0.017264
0.467897 0.5 -0.1875 0.0080936
0.467897 0.5 0.1875 0.00809429
0.411736 0.5 -0.3 0.00983188
0.411736 0.5 0.3 0.00970696
0 0.5 -0.518821 0.0146812
0 0.5 0.518821 0.0119948
0.0124865 0.5 0.518821 0.0128392
0.0124865 0.5 -0.518821 0.0157124
0.523432 0.5 -0.00137318 0.00704952
0 0.5 -0.525 0.0146423
0 0.5 0.525 0.0119654
0.523432 0.5 -0.075 0.00705884
0.523432 0.5 0.075 0.00706434
0 0.5 -0.531179 0.0146021
0 0.5 0.531179 0.0119358
0.0124865 0.5 -0.531179 0.0155941
0.0124865 0.5 0.531179 0.0127515
0.288069 0.5 -0.45 0.0143603
0.288069 0.5 0.45 0.0132456
0.219992 0.5 -0.4875 0.0170722
0.219993 0.5 0.4875 0.015093
0.467897 0.5 -0.2625 0.00821514
0.467897 0.5 0.2625 0.00819514
0.350249 0.5 -0.4125 0.0116113
0.350249 0.5 0.4125 0.0112899
0.523432 0.5 -0.15 0.00711223
0.523432 0.5 0.15 0.0071171
0.151149 0.5 -0.525 0.018778
0.151149 0.5 0.525 0.0159094
0.411736 0.5 -0.375 0.00994666
0.411736 0.5 0.375 0.00977688
0.075776 0.5 -0.5625 0.0204146
0.075776 0.5 0.5625 0.0167225
0.523432 0.5 -0.225 0.00719855
0.523432 0.5 0.225 0.00719765
0.574156 0.5 -0.0375 0.00615139
0.574156 0.5 0.0375 0.00615041
0.467897 0.5 0.3375 0.00830089
0.467897 0.5 -0.3375 0.00834625
0.574156 0.5 -0.1125 0.00618719
0.574156 0.5 0.1125 0.0061901
0 0.5 -0.593821 0.0142238
0 0.5 0.593821 0.011665
0.0124865 0.5 -0.593821 0.0152158
0.0124865 0.5 0.593821 0.0124807
0.288069 0.5 -0.525 0.0142829
0.288069 0.5 0.525 0.0130669
0 0.5 -0.6 0.0141901
0 0.5 0.6 0.0116418
0.350249 0.5 -0.4875 0.0117355
0.350249 0.5 0.4875 0.0113268
0.523432 0.5 -0.3 0.00732116
0.523432 0.5 0.3 0.00730043
0.219992 0.5 -0.5625 0.0167685
0.219992 0.5 0.5625 0.0147021
0.574156 0.5 -0.1875 0.00625474
0.574156 0.5 0.1875 0.00625618
0 0.5 -0.606179 0.014154
0 0.5 0.606179 0.0116184
0.0124865 0.5 -0.606179 0.0151135
0.0124865 0.5 0.606179 0.0124114
0.411736 0.5 -0.45 0.0100947
0.411736 0.5 0.45 0.00986445
0.151149 0.5 -0.6 0.018305
0.151149 0.5 0.6 0.0154907
0.62168 0.5 2.64545e-17 0.0055864
0.467897 0.5 0.4125 0.00842986
0.467897 0.5 -0.4125 0.00851004
0.624316 0.5 0.0729402 0.00556598
0.624316 0.5 -0.075 0.00556928
0.574156 0.5 -0.2625 0.00633576
0.574157 0.5 0.2625 0.0063491
0.075776 0.5 -0.6375 0.0197861
0.075776 0.5 0.6375 0.0163022
0.624316 0.5 -0.15 0.00561856
0.624316 0.5 0.15 0.00561469
0.523432 0.5 -0.375 0.00747576
0.523432 0.5 0.375 0.00742209
0.350249 0.5 -0.5625 0.0118875
0.350249 0.5 0.5625 0.0113764
0.624316 0.5 -0.225 0.00569483
0.624316 0.5 0.225 0.00568962
0.288069 0.5 0.6 0.0129217
0.288069 0.5 -0.6 0.0142271
0.574156 0.5 -0.3375 0.00649293
0.574156 0.5 0.3375 0.0064608
0.411736 0.5 -0.525 0.0102736
0.411736 0.5 0.525 0.009969
0 0.5 -0.668821 0.0138154
0 0.5 0.668821 0.0114143
0.0124865 0.5 -0.668821 0.0147749
0.0124865 0.5 0.668821 0.0122073
0.67013 0.5 0.0375 0.00497713
0.67013 0.5 -0.0375 0.00498288
0.219993 0.5 -0.6375 0.0164885
0.219993 0.5 0.6375 0.0143716
0 0.5 -0.675 0.0137855
0 0.5 0.675 0.011398
0.467897 0.5 0.4875 0.00858196
0.467897 0.5 -0.4875 0.0087085
0.67013 0.5 -0.1125 0.00501646
0.67013 0.5 0.1125 0.00500753
0 0.5 -0.681179 0.0137545
0 0.5 0.681179 0.0113807
0.0124865 0.5 -0.681179 0.014687
0.0124865 0.5 0.681179 0.0121572
0.523432 0.5 -0.45 0.00765797
0.523432 0.5 0.45 0.00756848
0.151149 0.5 -0.675 0.0178874
0.151149 0.5 0.675 0.0151613
0.624316 0.5 -0.3 0.00580986
0.624316 0.5 0.3 0.00578912
0.67013 0.5 0.1875 0.00506662
0.67013 0.5 -0.1875 0.00507687
0.574156 0.5 -0.4125 0.00665849
0.574157 0.5 0.4125 0.00660054
0.708171 0.5 1.88651e-17 0.00463728
0.075776 0.5 -0.7125 0.019239
0.075776 0.5 0.7125 0.0159957
0.715434 0.5 0.0736268 0.00459039
0.715434 0.5 -0.075 0.00459161
0.67013 0.5 0.2625 0.00514873
0.67013 0.5 -0.2625 0.00517277
0.350249 0.5 -0.6375 0.0120663
0.350249 0.5 0.6375 0.0114402
0.411736 0.5 -0.6 0.0104846
0.411736 0.5 0.6 0.0100903
0.624316 0.5 -0.375 0.00596011
0.624316 0.5 0.375 0.00590907
0.715434 0.5 -0.15 0.00463727
0.715434 0.5 0.15 0.00462194
0.467897 0.5 -0.5625 0.00894463
0.467897 0.5 0.5625 0.00875442
0.288069 0.5 -0.675 0.0142012
0.288069 0.5 0.675 0.0128141
0.523432 0.5 -0.525 0.00787643
0.523432 0.5 0.525 0.00773819
0 0.5 -0.743821 0.0134668
0 0.5 0.743821 0.0112411
0.0124865 0.5 -0.743821 0.0143992
0.0124865 0.5 0.743821 0.0120176
0.219992 0.5 0.7125 0.0141061
0.219992 0.5 -0.7125 0.0162512
0.715434 0.5 -0.225 0.00471289
0.715434 0.5 0.225 0.00468782
0 0.5 -0.75 0.0134419
0 0.5 0.75 0.0112321
0.67013 0.5 0.3375 0.00526031
0.67013 0.5 -0.3375 0.0052992
0.574156 0.5 -0.4875 0.0068594
0.574156 0.5 0.4875 0.00676467
0 0.5 -0.756179 0.0134164
0 0.5 0.756179 0.0112209
0.0124865 0.5 -0.756179 0.0143272
0.0124865 0.5 0.756179 0.0119881
0.756813 0.5 -0.0375 0.00418638
0.756813 0.5 0.0375 0.00417832
0.151149 0.5 -0.75 0.0175398
0.151149 0.5 0.75 0.0149227
0.756813 0.5 -0.1125 0.00421845
0.756813 0.5 0.1125 0.00420111
0.624316 0.5 -0.45 0.00613701
0.624316 0.5 0.45 0.00605278
0.715434 0.5 -0.3 0.00481601
0.715434 0.5 0.3 0.00477823
0.756813 0.5 0.1875 0.00425093
0.756813 0.5 -0.1875 0.00427514
0.67013 0.5 -0.4125 0.0054522
0.67013 0.5 0.4125 0.00537769
0.411736 0.5 -0.675 0.0107269
0.411736 0.5 0.675 0.0102277
0.467897 0.5 0.6375 0.0089461
0.467897 0.5 -0.6375 0.00921668
0.075776 0.5 -0.7875 0.0187973
0.075776 0.5 0.7875 0.0158072
0.350249 0.5 -0.7125 0.012272
0.350249 0.5 0.7125 0.0115182
0.523432 0.5 -0.6 0.00813186
0.523432 0.5 0.6 0.00792986
0.797732 0.5 2.68882e-17 0.00389397
0.756813 0.5 -0.2625 0.00436485
0.756814 0.5 0.2625 0.00432388
0.797732 0.5 0.0736268 0.00390286
0.797732 0.5 -0.075 0.00391393
0.288069 0.5 -0.75 0.0142124
0.288069 0.5 0.75 0.0127471
0.574156 0.5 -0.5625 0.00709764
0.574157 0.5 0.5625 0.00695404
0.715434 0.5 -0.375 0.00494822
0.715434 0.5 0.375 0.00489036
0.797732 0.5 -0.15 0.00395623
0.797732 0.5 0.15 0.00393334
0.624316 0.5 -0.525 0.00634959
0.624316 0.5 0.525 0.00622441
0.219992 0.5 -0.7875 0.0160674
0.219992 0.5 0.7875 0.0139104
0 0.5 -0.818821 0.0131889
0 0.5 0.818821 0.0111468
0.0124865 0.5 0.818821 0.011914
0.0124865 0.5 -0.818821 0.0140997
0 0.5 -0.825 0.0131704
0 0.5 0.825 0.0111433
0.756813 0.5 0.3375 0.0044195
0.756814 0.5 -0.3375 0.00446607
0.67013 0.5 -0.4875 0.00564096
0.67013 0.5 0.4875 0.00553212
0.797732 0.5 -0.225 0.00402519
0.797732 0.5 0.225 0.00399077
0 0.5 -0.831179 0.0131503
0 0.5 0.831179 0.01114
0.0124865 0.5 -0.831179 0.0140457
0.0124865 0.5 0.831179 0.0119047
0.835106 0.5 0.0375 0.00361332
0.835106 0.5 -0.0375 0.00362197
0.151149 0.5 -0.825 0.0172735
0.151149 0.5 0.825 0.0147771
0.835106 0.5 0.1125 0.00363173
0.835106 0.5 -0.1125 0.00365303
0.715434 0.5 -0.45 0.00511407
0.715434 0.5 0.45 0.00502072
0.797732 0.5 -0.3 0.0041161
0.797732 0.5 0.3 0.00406997
0.467897 0.5 0.7125 0.00915467
0.467897 0.5 -0.7125 0.00952335
0.523432 0.5 -0.675 0.00842343
0.523432 0.5 0.675 0.00814152
0.411736 0.5 -0.75 0.0109996
0.411736 0.5 0.75 0.0103809
0.835106 0.5 -0.1875 0.00370257
0.835106 0.5 0.1875 0.00367406
0.574156 0.5 -0.6375 0.00737287
0.574157 0.5 0.6375 0.0071662
0.350249 0.5 -0.7875 0.0125044
0.350249 0.5 0.7875 0.0116125
0.756813 0.5 -0.4125 0.00461496
0.756814 0.5 0.4125 0.00454364
0.075776 0.5 -0.8625 0.0184677
0.075776 0.5 0.8625 0.0157392
0.624316 0.5 0.6 0.00642023
0.624316 0.5 -0.6 0.00659839
0.872064 0.5 5.91974e-17 0.00339232
0.870122 0.5 0.075 0.00341035
0.288069 0.5 -0.825 0.014264
0.288069 0.5 0.825 0.0127227
0.67013 0.5 -0.5625 0.00586408
0.67013 0.5 0.5625 0.00571123
0.872064 0.5 -0.075 0.00341273
0.835106 0.5 -0.2625 0.00378282
0.835106 0.5 0.2625 0.00373903
0.797732 0.5 -0.375 0.00423495
0.797732 0.5 0.375 0.0041735
0.872064 0.5 0.14794 0.00342371
0.872064 0.5 -0.15 0.00344985
0.715434 0.5 -0.525 0.00531135
0.715434 0.5 0.525 0.00517584
0.219992 0.5 0.8625 0.0137831
0.219993 0.5 -0.8625 0.0159413
0 0.5 -0.893821 0.012985
0 0.5 0.893821 0.0111137
0.0124865 0.5 -0.893821 0.0138804
0.0124865 0.5 0.893821 0.0118784
0 0.5 -0.9 0.0129741
0 0.5 0.9 0.0111089
0.756813 0.5 -0.4875 0.00478814
0.756813 0.5 0.4875 0.00466966
0.872064 0.5 -0.225 0.00350991
0.872064 0.5 0.225 0.00347344
0.835106 0.5 -0.3375 0.00387567
0.835106 0.5 0.3375 0.00382273
0 0.5 0.906179 0.0111075
0 0.5 -0.906179 0.0129596
0.0124865 0.5 -0.906179 0.0138469
0.0124865 0.5 0.906179 0.011865
0.90582 0.5 -0.0375 0.00318039
0.90582 0.5 0.0375 0.00317048
0.151149 0.5 -0.9 0.0170933
0.151149 0.5 0.9 0.0147012
0.90582 0.5 -0.1125 0.00321237
0.905821 0.5 0.1125 0.00318536
0.523432 0.5 -0.75 0.00875036
0.523432 0.5 0.75 0.00837148
0.574156 0.5 -0.7125 0.007685
0.574156 0.5 0.7125 0.0073992
0.797732 0.5 -0.45 0.00438768
0.797732 0.5 0.45 0.0042918
0.467897 0.5 0.7875 0.00937853
0.467897 0.5 -0.7875 0.00986321
0.624316 0.5 -0.675 0.00688386
0.624316 0.5 0.675 0.00663864
0.411736 0.5 -0.825 0.0113016
0.411736 0.5 0.825 0.0105506
0.872064 0.5 0.3 0.00354339
0.872064 0.5 -0.3 0.00359639
0.67013 0.5 -0.6375 0.00612354
0.67013 0.5 0.6375 0.0059144
0.90582 0.5 0.1875 0.00322088
0.905821 0.5 -0.1875 0.0032485
0.350249 0.5 -0.8625 0.0127621
0.350249 0.5 0.8625 0.0117266
0.835106 0.5 -0.4125 0.00400862
0.835106 0.5 0.4125 0.00393392
0.715434 0.5 -0.6 0.00554285
0.715434 0.5 0.6 0.00535854
0.939201 0.5 2.75387e-17 0.0030634
0.075776 0.5 0.9375 0.0156969
0.075776 0.5 -0.9375 0.0182536
0.939111 0.5 0.075 0.00306804
0.939201 0.5 -0.075 0.00308425
0.756813 0.5 0.5625 0.00483166
0.756814 0.5 -0.5625 0.00499302
0.90582 0.5 0.2625 0.0032773
0.905821 0.5 -0.2625 0.00332322
0.288069 0.5 -0.9 0.0143575
0.288069 0.5 0.9 0.0127402
0.872064 0.5 -0.375 0.00370441
0.872064 0.5 0.375 0.00363435
0.939201 0.5 0.148627 0.00309371
0.939201 0.5 -0.15 0.00311665
0.797732 0.5 -0.525 0.0045679
0.797732 0.5 0.525 0.00442896
0.219992 0.5 0.9375 0.0137198
0.219992 0.5 -0.9375 0.0158774
0.939201 0.5 -0.225 0.00316862
0.939201 0.5 0.225 0.00313823
0.905821 0.5 -0.3375 0.00342129
0.90582 0.5 0.3375 0.00335232
0.835106 0.5 -0.4875 0.00416524
0.835106 0.5 0.4875 0.00404635
0 0.5 0.968821 0.0111023
0 0.5 -0.968821 0.0128607
0.0124865 0.5 -0.968821 0.013748
0.0124865 0.5 0.968821 0.0118598
0.969689 0.5 -0.0375 0.00295939
0.969689 0.5 0.0375 0.00295065
0.574156 0.5 -0.7875 0.00803368
0.574156 0.5 0.7875 0.00765209
0 0.5 -0.975 0.0128561
0 0.5 0.975 0.0111012
0.624316 0.5 -0.75 0.00720588
0.624316 0.5 0.75 0.0068785
0.969689 0.5 -0.1125 0.00299218
0.96969 0.5 0.1125 0.00296751
0.523432 0.5 -0.825 0.00911159
0.523432 0.5 0.825 0.00861863
0.67013 0.5 0.7125 0.00614015
0.67013 0.5 -0.7125 0.00641944
0 0.5 -0.981179 0.0128506
0 0.5 0.981179 0.0111001
0.467897 0.5 0.8625 0.00961709
0.467897 0.5 -0.8625 0.0102346
0.0124865 0.5 -0.981179 0.0137387
0.0124865 0.5 0.981179 0.0118497
0.872064 0.5 -0.45 0.00383806
0.872064 0.5 0.45 0.00374392
0.715434 0.5 -0.675 0.00580978
0.715434 0.5 0.675 0.00556484
0.939201 0.5 -0.3 0.00325145
0.939201 0.5 0.3 0.00320341
0.151149 0.5 0.975 0.0146603
0.151149 0.5 -0.975 0.0170043
0.969689 0.5 -0.1875 0.00302099
0.969689 0.5 0.1875 0.00300333
0.756813 0.5 -0.6375 0.00523246
0.756813 0.5 0.6375 0.00501897
0.411736 0.5 -0.9 0.0116317
0.411736 0.5 0.9 0.010737
0.90582 0.5 -0.4125 0.00352984
0.90582 0.5 0.4125 0.00344675
0.995005 0.5 0.0749309 0.00282357
0.797732 0.5 -0.6 0.00478086
0.797732 0.5 0.6 0.00459591
1.00005 0.5 -8.47123e-18 0.00278915
0.350249 0.5 -0.9375 0.0130448
0.350249 0.5 0.9375 0.0118585
1.00005 0.5 -0.0749309 0.00280775
0.969689 0.5 -0.2625 0.00308947
0.969689 0.5 0.2625 0.00305867
0.835106 0.5 -0.5625 0.00435215
0.835106 0.5 0.5625 0.00419509
1.00005 0.5 -0.149862 0.00283786
0.939201 0.5 -0.375 0.00335305
0.939201 0.5 0.375 0.00328644
1.00029 0.5 0.148988 0.00282263
0.075776 0.5 -1.0125 0.018173
0.075776 0.5 1.0125 0.015657
0.288069 0.5 0.975 0.012793
0.288069 0.5 -0.975 0.0144932
0.872064 0.5 -0.525 0.00400035
0.872064 0.5 0.525 0.00387059
1.00005 0.5 0.224793 0.0028629
1.00005 0.5 -0.224793 0.00288585
0.969689 0.5 0.3375 0.00313266
0.96969 0.5 -0.3375 0.00317971
1.0271 0.5 -0.0368226 0.00261984
1.0271 0.5 0.0368226 0.00261074
0.90582 0.5 0.4875 0.00356717
0.905821 0.5 -0.4875 0.00366716
1.0271 0.5 -0.110468 0.00264212
1.0271 0.5 0.110468 0.00261423
0.67013 0.5 0.7875 0.00638825
0.67013 0.5 -0.7875 0.00675166
0.624316 0.5 0.825 0.00713897
0.624316 0.5 -0.825 0.00756445
0.219993 0.5 -1.0125 0.0158732
0.219993 0.5 1.0125 0.0136997
0.574156 0.5 -0.8625 0.00841812
0.574156 0.5 0.8625 0.00792359
0.715434 0.5 -0.75 0.00611345
0.715434 0.5 0.75 0.00579403
0.756813 0.5 0.7125 0.00522866
0.756814 0.5 -0.7125 0.0055064
0.523432 0.5 -0.9 0.00950599
0.523432 0.5 0.9 0.008882
0.939201 0.5 -0.45 0.00348694
0.939201 0.5 0.45 0.00339002
1.04168 0.5 0 0.00253588
1.0271 0.5 -0.184113 0.00267746
1.0271 0.5 0.184113 0.0026585
0 0.5 -1.04382 0.0128079
0 0.5 1.04382 0.0111535
0.0124865 0.5 -1.04382 0.013696
0.0124865 0.5 1.04382 0.011903
1.00005 0.5 -0.299723 0.00296194
1.00005 0.5 0.299723 0.00292577
1.04168 0.5 -0.0729162 0.0025506
1.04168 0.5 0.0729162 0.00253748
0.797732 0.5 -0.675 0.00502923
0.797732 0.5 0.675 0.00478517
0.467897 0.5 0.9375 0.00987076
0.467897 0.5 -0.9375 0.0106361
0 0.5 -1.05 0.0128014
0 0.5 1.05 0.0111658
0.835106 0.5 -0.6375 0.00457352
0.835106 0.5 0.6375 0.00436549
1.04168 0.5 -0.145832 0.00257712
1.04168 0.5 0.145832 0.00255908
0.969689 0.5 -0.4125 0.00328934
0.96969 0.5 0.4125 0.00322144
0 0.5 -1.05618 0.0128
0 0.5 1.05618 0.0111769
0.0124865 0.5 -1.05618 0.0136859
0.0124865 0.5 1.05618 0.0119354
1.05695 0.5 -0.0360764 0.00246188
1.05695 0.5 0.0360764 0.00245028
0.411736 0.5 -0.975 0.0119891
0.411736 0.5 0.975 0.0109417
0.872064 0.5 -0.6 0.00419813
0.872064 0.5 0.6 0.004019
1.0271 0.5 -0.257759 0.00273406
1.0271 0.5 0.257759 0.00270781
0.151149 0.5 -1.05 0.0169893
0.151149 0.5 1.05 0.0147042
1.05695 0.5 0.108229 0.00244625
1.05695 0.5 -0.108229 0.002477
1.04168 0.5 -0.218749 0.00261938
1.04168 0.5 0.218749 0.00259541
0.90582 0.5 -0.5625 0.00383621
0.905821 0.5 0.5625 0.00369253
1.00005 0.5 -0.374654 0.00306213
1.00005 0.5 0.374654 0.00300573
0.350249 0.5 1.0125 0.0120093
0.350249 0.5 -1.0125 0.0133519
1.05695 0.5 -0.180382 0.00251107
1.05695 0.5 0.180382 0.00248778
1.07319 0.5 0.0709442 0.00238861
0.939201 0.5 -0.525 0.00365095
0.939201 0.5 0.525 0.0035092
1.0271 0.5 -0.331404 0.0028176
1.0271 0.5 0.331404 0.00277529
1.08112 0.5 3.23815e-17 0.00235981
1.04168 0.5 -0.291665 0.00268304
1.04168 0.5 0.291665 0.00264807
1.08112 0.5 -0.0709442 0.00237235
0.969689 0.5 -0.4875 0.00346867
0.96969 0.5 0.4875 0.00333239
1.05695 0.5 0.252535 0.0025267
1.05695 0.5 -0.252535 0.00255593
0.288069 0.5 -1.05 0.0146731
0.288069 0.5 1.05 0.0128847
0.075776 0.5 -1.0875 0.0181465
0.075776 0.5 1.0875 0.0158314
1.08112 0.5 -0.141888 0.00239367
1.08145 0.5 0.140165 0.00238161
0.715434 0.5 0.825 0.00604622
0.715434 0.5 -0.825 0.00645616
0.756813 0.5 0.7875 0.00546261
0.756814 0.5 -0.7875 0.00581999
0.67013 0.5 -0.8625 0.00712143
0.67013 0.5 0.8625 0.0066578
0.797732 0.5 -0.75 0.00531475
0.797732 0.5 0.75 0.00499699
0.624316 0.5 -0.9 0.00795948
0.624316 0.5 0.9 0.00741819
1.00005 0.5 -0.449585 0.00320048
1.00005 0.5 0.449585 0.00310443
0.835106 0.5 -0.7125 0.00483296
0.835106 0.5 0.7125 0.00455589
0.574156 0.5 -0.9375 0.00883752
0.574157 0.5 0.9375 0.00821145
1.10076 0.5 -0.0349809 0.00229577
1.10076 0.5 0.0349809 0.0022834
1.08112 0.5 -0.212832 0.00242971
1.08112 0.5 0.212832 0.00240846
0.872064 0.5 -0.675 0.00443263
0.872064 0.5 0.675 0.00418942
1.04168 0.5 -0.364581 0.00277199
1.04168 0.5 0.364581 0.00271671
1.0271 0.5 0.405049 0.00285876
1.0271 0.5 -0.405049 0.00292704
1.05695 0.5 -0.324688 0.00262669
1.05695 0.5 0.324688 0.00258158
1.10076 0.5 -0.104943 0.0023076
1.10076 0.5 0.104943 0.00229626
0.523432 0.5 0.975 0.00916312
0.523432 0.5 -0.975 0.0099328
0.90582 0.5 0.6375 0.00384251
0.905821 0.5 -0.6375 0.00405044
0.219992 0.5 1.0875 0.0137638
0.219992 0.5 -1.0875 0.0159201
1.11376 0.5 3.81639e-17 0.00224584
0.939201 0.5 0.6 0.00366008
0.939201 0.5 -0.6 0.00382585
1.10076 0.5 -0.174905 0.00233342
1.10076 0.5 0.174905 0.00232052
0.467897 0.5 -1.0125 0.0110668
0.467897 0.5 1.0125 0.0101456
1.11376 0.5 -0.0693118 0.00225783
1.11376 0.5 0.0693118 0.00224624
1.08112 0.5 0.283777 0.00245284
1.08112 0.5 -0.283777 0.00248392
0 0.5 -1.11882 0.0127765
0 0.5 1.11882 0.0112929
0.0124865 0.5 -1.11882 0.0136625
0.0124865 0.5 1.11882 0.0120514
0.969689 0.5 -0.5625 0.00363823
0.969689 0.5 0.5625 0.00345264
1.11376 0.5 0.138624 0.0022667
1.11376 0.5 -0.138624 0.00227543
0 0.5 -1.125 0.0127683
0 0.5 1.125 0.0113043
1.10076 0.5 0.244866 0.00235691
1.10076 0.5 -0.244866 0.00237503
0.411736 0.5 -1.05 0.0123833
0.411736 0.5 1.05 0.0111633
1.05695 0.5 -0.396841 0.00271963
1.05695 0.5 0.396841 0.00265049
1.00005 0.5 -0.524516 0.00335443
1.00005 0.5 0.524516 0.00322154
1.04168 0.5 -0.437497 0.00288825
1.04168 0.5 0.437497 0.0028022
0 0.5 -1.13118 0.0127643
0 0.5 1.13118 0.0113165
0.0124865 0.5 -1.13118 0.0136392
0.0124865 0.5 1.13118 0.0120812
1.11376 0.5 -0.207935 0.00230759
1.11376 0.5 0.207935 0.00229466
1.0271 0.5 -0.478694 0.00306748
1.0271 0.5 0.478694 0.00296274
0.151149 0.5 -1.125 0.0170057
0.151149 0.5 1.125 0.0148476
1.08112 0.5 -0.354722 0.00256021
1.08112 0.5 0.354722 0.00251172
1.13882 0.5 -0.0340295 0.00216436
1.13882 0.5 0.0340295 0.00215388
0.350249 0.5 -1.0875 0.0137015
0.350249 0.5 1.0875 0.0121719
1.13882 0.5 -0.102088 0.00217653
1.13882 0.5 0.102088 0.00216184
1.10076 0.5 -0.314829 0.00243935
1.10076 0.5 0.314829 0.00240835
0.756813 0.5 -0.8625 0.00617597
0.756814 0.5 0.8625 0.00572036
0.797732 0.5 -0.825 0.00563654
0.797732 0.5 0.825 0.00523296
1.11376 0.5 -0.277247 0.00235944
1.11376 0.5 0.277247 0.00233782
0.835106 0.5 0.7875 0.00476995
0.835106 0.5 -0.7875 0.00512873
0.715434 0.5 -0.9 0.00683633
0.715434 0.5 0.9 0.00631848
0.872064 0.5 -0.75 0.00470036
0.872064 0.5 0.75 0.0043836
1.13882 0.5 0.170147 0.00218961
1.13882 0.5 -0.170147 0.00219594
0.67013 0.5 -0.9375 0.00752867
0.67013 0.5 0.9375 0.00694582
0.905821 0.5 -0.7125 0.00429384
0.905821 0.5 0.7125 0.00401414
1.05695 0.5 0.468994 0.0027369
1.05695 0.5 -0.468994 0.00283816
0.939201 0.5 -0.675 0.00402792
0.939201 0.5 0.675 0.00383043
0.624316 0.5 0.975 0.00771536
0.624316 0.5 -0.975 0.00839259
1.04168 0.5 -0.510414 0.00300886
1.04168 0.5 0.510414 0.00290742
0.969689 0.5 -0.6375 0.00378609
0.96969 0.5 0.6375 0.00365963
0.288069 0.5 -1.125 0.0149001
0.288069 0.5 1.125 0.0130071
1.16179 0.5 5.78241e-19 0.0020751
1.08112 0.5 0.425666 0.00258528
1.08112 0.5 -0.425666 0.00265839
1.13882 0.5 -0.238206 0.00223516
1.13882 0.5 0.238206 0.00222439
1.16179 0.5 0.0669104 0.0020639
1.16179 0.5 -0.0669104 0.00208623
0.574156 0.5 -1.0125 0.009292
0.574156 0.5 1.0125 0.00851765
0.075776 0.5 -1.1625 0.0180753
0.075776 0.5 1.1625 0.0160236
1.00005 0.5 -0.599447 0.00351319
1.00005 0.5 0.599447 0.00337795
1.10076 0.5 0.384791 0.0024735
1.10076 0.5 -0.384791 0.0025219
1.0271 0.5 -0.55234 0.0031941
1.0271 0.5 0.55234 0.00308733
1.11376 0.5 -0.346559 0.00243096
1.11376 0.5 0.346559 0.00239511
1.16179 0.5 -0.133821 0.00209959
1.16179 0.5 0.133821 0.00209144
0.523432 0.5 -1.05 0.0104007
0.523432 0.5 1.05 0.00946347
1.17463 0.5 -0.0331343 0.00203546
1.17463 0.5 0.0331343 0.00202522
1.17463 0.5 -0.0994029 0.00204685
1.17463 0.5 0.0994029 0.00203724
1.16179 0.5 -0.200731 0.00212522
1.16179 0.5 0.200731 0.00212016
1.13882 0.5 -0.306265 0.00229484
1.13882 0.5 0.306265 0.00227279
0.219992 0.5 -1.1625 0.0160264
0.219992 0.5 1.1625 0.0139122
0.467897 0.5 -1.0875 0.0115484
0.467897 0.5 1.0875 0.010436
1.17463 0.5 0.165672 0.00205848
1.17463 0.5 -0.165672 0.00206024
1.05695 0.5 -0.541147 0.00293797
1.05695 0.5 0.541147 0.0028436
1.18772 0.5 -5.78241e-19 0.00198611
1.11376 0.5 -0.41587 0.00252154
1.11376 0.5 0.41587 0.0024662
1.18772 0.5 -0.065614 0.00199644
1.18772 0.5 0.065614 0.00198794
1.08112 0.5 -0.49661 0.00275917
1.08112 0.5 0.49661 0.00267643
1.10076 0.5 -0.454752 0.00262656
1.10076 0.5 0.454752 0.00255323
1.18534 0.5 0.118202 0.00200322
1.16179 0.5 -0.267642 0.0021711
1.16179 0.5 0.267642 0.00215883
0 0.5 -1.19382 0.0127613
0 0.5 1.19382 0.0114661
0.0124865 0.5 1.19382 0.0122309
0.0124865 0.5 -1.19382 0.0136362
1.04168 0.5 -0.58333 0.00314747
1.04168 0.5 0.58333 0.00303761
1.18772 0.5 -0.131228 0.00200787
1.17463 0.5 -0.23194 0.00209427
1.17463 0.5 0.23194 0.00208974
0.411736 0.5 -1.125 0.0128189
0.411736 0.5 1.125 0.0113587
1.13882 0.5 -0.374324 0.00237047
1.13882 0.5 0.374324 0.00233452
0 0.5 -1.2 0.0127657
0 0.5 1.2 0.0114827
0.905821 0.5 0.7875 0.00421534
0.905821 0.5 -0.7875 0.00456684
0.872064 0.5 -0.825 0.00500181
0.872064 0.5 0.825 0.00460997
0.835106 0.5 0.8625 0.00500891
0.835106 0.5 -0.8625 0.00545162
0.939201 0.5 -0.75 0.00426958
0.939201 0.5 0.75 0.00399105
0.797732 0.5 -0.9 0.00600042
0.797732 0.5 0.9 0.00549096
1.0271 0.5 0.625985 0.00324565
1.0271 0.5 -0.625985 0.00337233
0.969689 0.5 0.7125 0.00381178
0.96969 0.5 -0.7125 0.00399069
1.18772 0.5 -0.196842 0.0020298
1.18772 0.5 0.196842 0.00202846
0.756814 0.5 -0.9375 0.00656443
0.756814 0.5 0.9375 0.0059947
0 0.5 1.20618 0.0114998
0 0.5 -1.20618 0.0127705
1.00005 0.5 -0.674378 0.00370561
1.00005 0.5 0.674378 0.00353962
0.0124865 0.5 1.20618 0.0122754
0.0124865 0.5 -1.20618 0.0136494
1.16179 0.5 -0.334552 0.00223406
1.16179 0.5 0.334552 0.00221024
0.715434 0.5 0.975 0.00660916
0.715434 0.5 -0.975 0.00725605
0.151149 0.5 -1.2 0.0170788
0.151149 0.5 1.2 0.0150663
1.20942 0.5 0.0322645 0.00190515
1.20942 0.5 -0.0322645 0.00191487
1.17463 0.5 -0.298209 0.00214784
1.17463 0.5 0.298209 0.00213291
1.20942 0.5 -0.0967935 0.00192529
1.20942 0.5 0.0967935 0.00191752
0.350249 0.5 -1.1625 0.0140877
0.350249 0.5 1.1625 0.0122843
0.67013 0.5 1.0125 0.00725241
0.67013 0.5 -1.0125 0.00798033
1.11376 0.5 0.485183 0.00255332
1.11376 0.5 -0.485183 0.00261543
1.18772 0.5 0.262456 0.00206417
1.18772 0.5 -0.262456 0.00207133
1.10076 0.5 -0.524714 0.00271496
1.10076 0.5 0.524714 0.00265152
1.20942 0.5 -0.161322 0.00193476
1.20942 0.5 0.161322 0.00193661
1.08112 0.5 -0.567554 0.00287605
1.08112 0.5 0.567554 0.00278638
0.624316 0.5 -1.05 0.00887026
0.624316 0.5 1.05 0.00803252
1.13882 0.5 -0.442383 0.00246348
1.13882 0.5 0.442383 0.00240946
1.05695 0.5 0.6133 0.00297366
1.05695 0.5 -0.6133 0.00309405
1.16179 0.5 -0.401463 0.00231093
1.16179 0.5 0.401463 0.00227428
0.574156 0.5 -1.0875 0.00979531
0.574156 0.5 1.0875 0.00884558
1.17463 0.5 0.364477 0.00218876
1.17463 0.5 -0.364477 0.00221508
1.20942 0.5 -0.225851 0.00196345
1.20942 0.5 0.225851 0.00196473
1.23036 0.5 -1.32995e-17 0.00184161
1.2294 0.5 0.0634819 0.00184641
1.04168 0.5 -0.656246 0.00333376
1.04168 0.5 0.656246 0.00317826
1.23036 0.5 -0.0634819 0.00185044
1.18772 0.5 0.32807 0.00211169
1.18772 0.5 -0.32807 0.00212893
0.288069 0.5 -1.2 0.0151816
0.288069 0.5 1.2 0.013203
1.23036 0.5 -0.126964 0.00185905
1.23036 0.5 0.126964 0.00185773
0.075776 0.5 -1.2375 0.0181045
0.075776 0.5 1.2375 0.0162973
0.523432 0.5 -1.125 0.0109118
0.523432 0.5 1.125 0.00974523
1.0271 0.5 -0.69963 0.00358953
1.0271 0.5 0.69963 0.00337804
1.24274 0.5 0.0314313 0.00179899
1.24274 0.5 -0.0314313 0.00180594
1.20942 0.5 0.29038 0.00200311
1.20942 0.5 -0.29038 0.00201024
1.11376 0.5 -0.554494 0.00272319
1.11376 0.5 0.554494 0.00265561
1.23036 0.5 -0.190445 0.00187588
1.23036 0.5 0.190445 0.00188016
1.24274 0.5 -0.0942942 0.00181578
1.24274 0.5 0.0942942 0.0018099
1.13882 0.5 0.510442 0.00250085
1.13882 0.5 -0.510442 0.00254834
0.969689 0.5 -0.7875 0.00423745
0.969689 0.5 0.7875 0.003931
1.00005 0.5 -0.749309 0.00394106
1.00005 0.5 0.749309 0.00368502
0.939201 0.5 -0.825 0.0045462
0.939201 0.5 0.825 0.00418238
0.90582 0.5 0.8625 0.00446656
0.90582 0.5 -0.8625 0.00488154
1.17463 0.5 -0.430746 0.00229324
1.17463 0.5 0.430746 0.0022566
1.10076 0.5 -0.594676 0.00284914
1.10076 0.5 0.594676 0.00276432
1.18772 0.5 -0.393684 0.00219797
1.18772 0.5 0.393684 0.00217125
1.24274 0.5 -0.157157 0.00182192
1.24274 0.5 0.157157 0.00182775
1.16179 0.5 -0.468373 0.00239645
1.16179 0.5 0.468373 0.0023525
0.467897 0.5 -1.1625 0.0120655
0.467897 0.5 1.1625 0.0106451
0.872064 0.5 -0.9 0.00534799
0.872064 0.5 0.9 0.00486143
1.25401 0.5 2.08167e-17 0.00177072
0.835106 0.5 0.9375 0.00527055
0.835106 0.5 -0.9375 0.00584051
1.25401 0.5 -0.0622994 0.00177884
1.25401 0.5 0.0622994 0.00177254
1.08112 0.5 -0.638498 0.00303625
1.08112 0.5 0.638498 0.00291499
1.23036 0.5 -0.253927 0.00191071
1.23036 0.5 0.253927 0.00191146
0.219992 0.5 1.2375 0.014174
0.219992 0.5 -1.2375 0.016241
1.25309 0.5 0.121964 0.00178671
1.05695 0.5 0.685452 0.00310672
1.05695 0.5 -0.685452 0.00328565
0.797732 0.5 0.975 0.00576942
0.797732 0.5 -0.975 0.00640582
1.25401 0.5 -0.124599 0.00178632
1.20942 0.5 -0.354909 0.00206931
1.20942 0.5 0.354909 0.00205319
1.24274 0.5 -0.220019 0.00184648
1.24274 0.5 0.220019 0.00185378
0.756814 0.5 -1.0125 0.00699683
0.756813 0.5 1.0125 0.00628908
1.25401 0.5 -0.186898 0.00180071
1.25401 0.5 0.186898 0.00180801
0.411736 0.5 -1.2 0.0132826
0.411736 0.5 1.2 0.0115807
0 0.5 -1.26882 0.0128389
0 0.5 1.26882 0.0116996
0.0124865 0.5 1.26882 0.0124752
0.0124865 0.5 -1.26882 0.0137178
0.715434 0.5 -1.05 0.00772514
0.715434 0.5 1.05 0.00692142
1.23036 0.5 -0.31741 0.00195976
1.23036 0.5 0.31741 0.00195283
1.04168 0.5 -0.729162 0.00355571
1.04168 0.5 0.729162 0.00331699
1.18772 0.5 -0.459298 0.00227984
1.18772 0.5 0.459298 0.00224424
1.24274 0.5 -0.282882 0.00188784
1.24274 0.5 0.282882 0.00188853
0 0.5 -1.275 0.0128493
0 0.5 1.275 0.0117215
1.27472 0.5 -0.0306319 0.00170501
1.27472 0.5 0.0306319 0.00170003
1.17463 0.5 0.497015 0.00234005
1.17463 0.5 -0.497015 0.00238081
1.11376 0.5 -0.623806 0.00286836
1.11376 0.5 0.623806 0.00277937
1.13882 0.5 -0.578501 0.00266776
1.13882 0.5 0.578501 0.00260274
0.67013 0.5 -1.0875 0.00848165
0.67013 0.5 1.0875 0.00758031
1.27472 0.5 -0.0918959 0.00171396
1.27472 0.5 0.0918959 0.00172227
1.25401 0.5 -0.249197 0.0018322
1.25401 0.5 0.249197 0.00183755
1.16179 0.5 -0.535284 0.00249193
1.16179 0.5 0.535284 0.00244272
1.20942 0.5 -0.419438 0.00213649
1.20942 0.5 0.419438 0.00211465
0 0.5 -1.28118 0.01286
0 0.5 1.28118 0.0117438
0.0124865 0.5 1.28118 0.0125353
0.0124865 0.5 -1.28118 0.0137479
1.27472 0.5 0.15316 0.0017262
1.27472 0.5 -0.15316 0.00171851
0.151149 0.5 -1.275 0.017264
0.151149 0.5 1.275 0.0153681