# pMean  POINT_DATA 91129
# x  y  z  pMean
0 0 0 0.219797
0 0.00368111 0 0.219492
0 0.00749587 0 0.218833
0 0.0114491 0 0.218188
0 0.0155459 0 0.217606
0 0.0197915 0 0.216988
0 0.0241911 0 0.216288
0 0.0287506 0 0.215517
0 0.0334755 0 0.214698
0 0.038372 0 0.213848
0 0.0434463 0 0.212978
0 0.0487048 0 0.212097
0 0.0541543 0 0.211213
0 0.0598016 0 0.210345
0 0.0656539 0 0.209524
0 0.0717187 0 0.208763
0.075776 0.00184055 0 0.219797
0.075776 0.00558849 0 0.219187
0.075776 0.00947248 -3.46945e-18 0.21848
0.075776 0.0134975 -3.46945e-18 0.217896
0.075776 0.0176687 3.46945e-18 0.217316
0 0.0780037 0 0.208031
0.075776 0.0219913 3.46945e-18 0.216659
0.075776 0.0264709 3.46945e-18 0.215918
0.075776 0.031113 -3.46945e-18 0.215117
0.075776 0.0359237 -3.46945e-18 0.21428
0 0.0845169 0 0.207294
0.075776 0.0409092 0 0.213417
0.075776 0.0460755 -3.46945e-18 0.212539
0 0.0912666 0 0.206543
0.075776 0.0514296 -3.46945e-18 0.211654
0.075776 0.0569779 0 0.210771
0 0.0982613 0 0.205779
0.075776 0.0627278 0 0.209918
0.075776 0.0686863 0 0.20913
0 0.10551 0 0.205004
0.075776 0.0748612 3.46945e-18 0.208395
0.075776 0.0812603 -3.46945e-18 0.207666
0 0.113022 0 0.204216
0.075776 0.0878918 3.46945e-18 0.206922
0 0.120806 0 0.203414
0.075776 0.0947639 3.46945e-18 0.206164
0.075776 0.101886 -3.46945e-18 0.205394
0 0.128874 0 0.202596
0.075776 0.109266 3.46945e-18 0.204613
0 0.137234 0 0.201775
0.075776 0.116914 3.46945e-18 0.203819
0 0.145897 0 0.200979
0.075776 0.12484 0 0.203008
0.151552 0 0 0.20354
0.151552 0.00368111 0 0.203422
0.151552 0.00749587 0 0.203199
0.151552 0.0114491 0 0.203026
0.151552 0.0155459 0 0.202886
0.151552 0.0197915 0 0.202722
0.075776 0.133054 0 0.202183
0.151552 0.0241911 0 0.202513
0.151552 0.0287506 0 0.202265
0 0.154876 0 0.200227
0.151552 0.0334755 0 0.201987
0.151552 0.038372 0 0.201688
0.151552 0.0434463 0 0.201376
0.151552 0.0487048 0 0.201052
0.075776 0.141566 0 0.201367
0.151552 0.0541543 0 0.200722
0.151552 0.0598016 0 0.200393
0 0.16418 0 0.199515
0.151552 0.0656539 0 0.200081
0.151552 0.0717187 0 0.199788
0.075776 0.150387 0 0.200592
0.151552 0.0780037 0 0.199502
0.151552 0.0845169 0 0.199203
0 0.173822 0 0.198838
0.075776 0.159528 0 0.199862
0.151552 0.0912666 0 0.198889
0.151552 0.0982613 0 0.198559
0 0.183814 0 0.198201
0.151552 0.10551 0 0.198216
0.075776 0.169001 3.46945e-18 0.199167
0.151552 0.113022 0 0.197857
0.151552 0.120806 0 0.197481
0 0.194169 0 0.197605
0.075776 0.178818 3.46945e-18 0.198508
0.151552 0.128874 0 0.197086
0.075776 0.188992 3.46945e-18 0.197894
0.151552 0.137234 0 0.196679
0 0.2049 0 0.197027
0.151552 0.145897 0 0.196276
0.075776 0.199535 0 0.197317
0 0.21602 0 0.196427
0.151552 0.154876 0 0.195884
0.219992 0.00184055 0 0.188535
0.219992 0.00558849 0 0.188643
0.219992 0.00947248 -3.46945e-18 0.188893
0.219992 0.0134975 3.46945e-18 0.189169
0.219992 0.0176687 0 0.189428
0.219992 0.0219913 0 0.189677
0.219993 0.0264709 -3.46945e-18 0.189917
0.219992 0.031113 -3.46945e-18 0.190144
0.219992 0.0359238 3.46945e-18 0.19036
0.151552 0.16418 0 0.195502
0.075776 0.21046 0 0.196738
0.219992 0.0409092 3.46945e-18 0.190567
0.219992 0.0460755 0 0.190764
0.219993 0.0514296 -3.46945e-18 0.19095
0.219992 0.0569779 0 0.191125
0 0.227544 0 0.195773
0.219992 0.0627277 3.46945e-18 0.191288
0.219992 0.0686863 0 0.191437
0.151552 0.173822 0 0.195125
0.219992 0.0748612 3.46945e-18 0.19157
0.075776 0.221782 0 0.196115
0.219992 0.0812603 3.46945e-18 0.191686
0.219992 0.0878917 -3.46945e-18 0.191783
0.151552 0.183814 0 0.194754
7.47806e-17 0.239487 0 0.195066
0.219992 0.0947639 3.46945e-18 0.191863
0.219993 0.101886 3.46945e-18 0.191925
0.075776 0.233516 0 0.19543
0.219993 0.109266 0 0.191972
0.151552 0.194169 0 0.194389
0.219993 0.116914 0 0.192
0 0.251863 0 0.194327
0.219993 0.12484 0 0.192006
0.151552 0.2049 0 0.194019
0.075776 0.245675 0 0.194702
0.219992 0.133054 3.46945e-18 0.191992
0.219992 0.141565 0 0.191958
0.151552 0.21602 0 0.193623
0 0.264688 0 0.193572
0.219992 0.150387 3.46945e-18 0.191908
0.075776 0.258275 3.46945e-18 0.193953
0.219992 0.159528 -3.46945e-18 0.191841
0.151552 0.227544 0 0.193186
0.219992 0.169001 3.46945e-18 0.191753
0 0.27798 0 0.192801
0.075776 0.271334 3.46945e-18 0.19319
0.151552 0.239487 3.70071e-18 0.192706
0.219992 0.178818 3.46945e-18 0.19164
0.288433 0 0 0.192503
0.288433 0.00368111 0 0.192541
0.288433 0.00749587 0 0.192662
0.288433 0.0114491 0 0.192836
0.288433 0.0155459 3.70071e-18 0.193017
0.288433 0.0197915 0 0.193196
0.288433 0.0241911 3.70071e-18 0.193373
0.288433 0.0287506 0 0.193546
0.219992 0.188991 0 0.191502
0.288433 0.0334755 0 0.193713
0.288433 0.038372 0 0.193875
0.288433 0.0434463 0 0.194032
7.47806e-17 0.291753 0 0.192012
0.288433 0.0487048 0 0.194182
0.288433 0.0541543 0 0.194325
0.151552 0.251863 0 0.192195
0.288433 0.0598016 3.70071e-18 0.194459
0.075776 0.284866 0 0.192411
0.288433 0.0656539 3.70071e-18 0.194586
0.219992 0.199534 0 0.191338
0.288433 0.0717187 0 0.194705
0.288433 0.0780037 0 0.194815
0.288433 0.0845169 0 0.194916
0.288433 0.0912666 0 0.195002
0.219992 0.21046 -3.46945e-18 0.191145
0.288433 0.0982613 0 0.195066
0.151552 0.264688 3.70071e-18 0.191659
0 0.306027 0 0.191198
0.288433 0.10551 0 0.195107
0.075776 0.29889 3.46945e-18 0.191612
0.288433 0.113022 0 0.195128
0.219993 0.221782 0 0.190923
0.288433 0.120806 0 0.195133
0.288433 0.128874 0 0.195124
0.151552 0.27798 0 0.191104
0.288433 0.137234 0 0.195104
0 0.320819 0 0.19035
0.219992 0.233515 -3.46945e-18 0.19067
0.075776 0.313423 -3.46945e-18 0.190784
0.288433 0.145897 0 0.195067
0.288433 0.154876 0 0.195011
0.151552 0.291753 0 0.190529
0.219993 0.245675 0 0.190384
0.288433 0.16418 0 0.194934
0 0.336148 0 0.189473
0.288433 0.173822 0 0.194834
0.075776 0.328484 -3.46945e-18 0.189915
0.219993 0.258275 -3.46945e-18 0.190066
0.151552 0.306027 0 0.189926
0.288433 0.183814 0 0.19471
0.288433 0.194169 0 0.194561
0.219992 0.271334 3.46945e-18 0.18972
0.350249 0.00184056 -3.46945e-18 0.19618
0.350249 0.00558849 0 0.196227
0.350249 0.00947248 3.46945e-18 0.196311
0.350249 0.0134975 0 0.19641
0.350249 0.0176687 0 0.196516
0.350249 0.0219913 0 0.196628
0.350249 0.0264708 3.46945e-18 0.196744
0.350249 0.031113 0 0.196861
0 0.352034 0 0.188606
0.350249 0.0359238 0 0.196978
0.075776 0.344091 0 0.189031
0.350249 0.0409091 0 0.197094
0.350249 0.0460756 3.46945e-18 0.197208
0.288433 0.2049 0 0.194386
0.350249 0.0514296 0 0.197318
0.151552 0.320819 0 0.189284
0.350249 0.0569779 0 0.197423
0.350249 0.0627277 3.46945e-18 0.197523
0.350249 0.0686863 3.46945e-18 0.197621
0.350249 0.0748612 3.46945e-18 0.19772
0.350249 0.0812603 0 0.197818
0.219992 0.284867 0 0.189354
0.288433 0.21602 0 0.194182
0.350249 0.0878917 0 0.197911
0.350249 0.094764 0 0.197984
0.350249 0.101886 0 0.198026
0.350249 0.109266 0 0.198042
0.288433 0.227544 0 0.193949
0.075776 0.360265 3.46945e-18 0.18818
0 0.368496 0 0.187758
0.151552 0.336148 0 0.188602
0.350249 0.116914 3.46945e-18 0.198039
0.219992 0.29889 0 0.188964
0.370854 0.0241911 1.54074e-33 0.199134
0.350249 0.12484 0 0.198027
0.350249 0.133054 0 0.198014
0.288433 0.239487 -9.25154e-19 0.193684
0.350249 0.141566 3.46945e-18 0.197992
0.350249 0.150387 3.46945e-18 0.19795
0.288433 0.251863 0 0.193386
0.219992 0.313423 0 0.188537
0.151552 0.352034 0 0.187899
0.075776 0.377027 0 0.187335
0.350249 0.159528 0 0.197884
0 0.385557 0 0.186886
0.350249 0.169001 0 0.197796
0.288433 0.264688 0 0.193056
0.350249 0.178818 0 0.197686
0.219992 0.328484 0 0.188062
0.350249 0.188992 0 0.197552
0.151552 0.368496 0 0.18718
0.288433 0.27798 3.70071e-18 0.192696
0.075776 0.394397 0 0.186435
0.350249 0.199535 0 0.197393
7.47806e-17 0.403236 0 0.185949
0.219992 0.344091 0 0.187535
0.350249 0.21046 -3.46945e-18 0.197207
0.288433 0.291753 0 0.192308
0.412065 9.08189e-19 3.08149e-33 0.201674
0.412065 0.00368111 -2.31298e-18 0.201691
0.412065 0.00749587 -2.31298e-18 0.201738
0.412065 0.0114491 -2.31298e-18 0.2018
0.412065 0.0155459 -2.31298e-18 0.201869
0.412065 0.0197915 0 0.201941
0.412065 0.0241911 -3.08149e-33 0.202014
0.412065 0.0264709 0 0.202052
0.412065 0.0287506 -2.31298e-18 0.20209
0.412065 0.0334755 -2.31298e-18 0.202168
0.412065 0.038372 -2.31298e-18 0.202248
0.151552 0.385557 0 0.186426
0.412065 0.0434463 0 0.202329
0.350249 0.221782 0 0.196993
0.412065 0.0487048 0 0.20241
0.412065 0.0541543 -3.08149e-33 0.202491
0.412065 0.0569779 0 0.202531
0.412065 0.0598016 -2.31298e-18 0.202571
0.412065 0.0656539 -2.31298e-18 0.202648
0.412065 0.0717187 -2.31298e-18 0.202723
0.075776 0.412396 -3.46945e-18 0.185463
0.412065 0.0780037 -2.31298e-18 0.20279
0.288433 0.306027 0 0.191886
0.412065 0.0845169 -2.31298e-18 0.202844
0.350249 0.233516 3.46945e-18 0.196749
0 0.421557 0 0.184952
0.412065 0.0912666 -2.31298e-18 0.202875
0.219992 0.360265 3.46945e-18 0.186957
0.412065 0.0982613 0 0.20288
0.412065 0.10551 0 0.202864
0.412065 0.113022 -2.31298e-18 0.202832
0.350249 0.245675 0 0.196472
0.412065 0.120806 0 0.202787
0.151552 0.403236 0 0.185617
0.288433 0.320819 0 0.191423
0.412065 0.128874 -2.31298e-18 0.202732
0.412065 0.137234 0 0.202668
0.350249 0.258275 -3.46945e-18 0.196162
0.219992 0.377026 0 0.186335
0.412065 0.145897 -2.31298e-18 0.20259
0.075776 0.431051 0 0.184439
0.412065 0.154876 -2.31298e-18 0.202496
0 0.440544 0 0.183909
0.288433 0.336148 0 0.190914
0.350249 0.271334 0 0.195816
0.412065 0.16418 -2.31298e-18 0.202383
0.412065 0.173822 -2.31298e-18 0.20225
0.151552 0.421557 0 0.184751
0.412065 0.183814 -2.31298e-18 0.202097
0.350249 0.284867 3.46945e-18 0.195435
0.219992 0.394397 0 0.185668
0.288433 0.352034 3.70071e-18 0.190357
0.412065 0.194169 0 0.201922
0.075776 0.450382 0 0.183378
0.412065 0.2049 -2.31298e-18 0.201723
0 0.46022 0 0.18283
0.350249 0.29889 3.46945e-18 0.195019
0.412065 0.21602 0 0.201498
0.151552 0.440544 0 0.183835
0.219993 0.412396 3.46945e-18 0.184952
0.467897 0.00184056 -3.46945e-18 0.206786
0.467897 0.00558849 0 0.206808
0.288433 0.368496 0 0.189751
0.467897 0.00947248 0 0.206842
0.467897 0.0134975 0 0.20688
0.467897 0.0176687 3.46945e-18 0.206917
0.467897 0.0219913 -3.46945e-18 0.206952
0.467897 0.0264709 3.46945e-18 0.206989
0.467897 0.0311131 3.46945e-18 0.207029
0.467897 0.0359238 -3.46945e-18 0.207073
0.467897 0.038372 0 0.207656
0.467897 0.0409092 3.46945e-18 0.20712
0.350249 0.313423 0 0.194566
0.467897 0.0460755 0 0.207172
0.467897 0.0514296 3.46945e-18 0.207227
0.412065 0.227544 -2.31298e-18 0.201246
0.467897 0.0569779 0 0.207284
0.467897 0.0627277 -3.46945e-18 0.207343
0.467897 0.0686863 3.46945e-18 0.207399
0.467897 0.0748612 0 0.207447
0.467897 0.0812603 0 0.207478
0.467897 0.0878918 3.46945e-18 0.207476
0.075776 0.470415 3.46945e-18 0.182281
0.412065 0.239487 -2.31298e-18 0.200964
0.467897 0.0947639 -3.46945e-18 0.207442
0.467897 0.101886 3.46945e-18 0.207389
0.350249 0.328483 0 0.194072
0.467897 0.109266 0 0.207327
0 0.48061 0 0.181712
0.288433 0.385557 0 0.189097
0.467897 0.116914 0 0.207254
0.412065 0.251863 -2.31298e-18 0.20065
0.219992 0.431051 0 0.18418
0.467897 0.12484 0 0.207168
0.151552 0.46022 0 0.18287
0.467897 0.133054 3.46945e-18 0.207066
0.467897 0.141566 3.46945e-18 0.206951
0.412065 0.264688 -2.31298e-18 0.200302
0.350249 0.344091 -3.46945e-18 0.193534
0.467897 0.150387 3.46945e-18 0.206826
0.467897 0.154876 0 0.207413
0.467897 0.159528 3.46945e-18 0.206687
0.288433 0.403236 0 0.188393
0.075776 0.491175 0 0.181142
0.412065 0.27798 -2.31298e-18 0.19992
0.467897 0.169001 0 0.206532
0.467897 0.178818 3.46945e-18 0.20636
0.219992 0.450382 0 0.183351
6.73026e-17 0.501741 3.70071e-18 0.18055
0.350249 0.360265 0 0.192949
0.151552 0.48061 0 0.181857
0.467897 0.188991 0 0.206168
0.412065 0.291753 0 0.1995
0.467897 0.199535 0 0.205956
0.288433 0.421557 0 0.187633
0.467897 0.21046 0 0.205721
0.412065 0.306027 0 0.199042
0.350249 0.377027 0 0.192312
0.467897 0.221782 3.46945e-18 0.205461
0.075776 0.51269 0 0.179956
0.219993 0.470415 3.46945e-18 0.182464
0.467897 0.227544 0 0.205953
0.412065 0.320819 -2.31298e-18 0.198543
0.467897 0.233515 0 0.205173
6.73026e-17 0.523639 3.70071e-18 0.17934
0.523729 0 0 0.21285
0.523729 0.00368111 0 0.212859
0.523729 0.00749587 -2.31298e-18 0.212883
0.523729 0.0114491 0 0.212913
0.523729 0.0155459 0 0.212944
0.523729 0.0197915 -2.31298e-18 0.212968
0.151552 0.501741 0 0.180792
0.523729 0.0241911 0 0.21299
0.523729 0.0287506 0 0.213012
0.523729 0.0334755 0 0.213036
0.523729 0.038372 -3.08149e-33 0.213064
0.523729 0.0434463 0 0.213094
0.523729 0.0487048 0 0.213128
0.523729 0.0541543 0 0.213164
0.288433 0.440544 0 0.186816
0.523729 0.0598016 0 0.213203
0.350249 0.394397 -3.46945e-18 0.191623
0.523729 0.0656539 0 0.213243
0.467897 0.245675 0 0.204857
0.523729 0.0717187 0 0.213277
0.523729 0.0780037 0 0.213295
0.523729 0.0845169 0 0.213281
0.523729 0.0912666 0 0.213232
0.412065 0.336148 0 0.198
0.523729 0.0982613 0 0.213161
0.523729 0.10551 -2.31298e-18 0.21308
0.467897 0.258275 -3.46945e-18 0.204509
0.523729 0.113022 0 0.212988
0.523729 0.120806 -3.08149e-33 0.212884
0.219993 0.491176 0 0.18152
0.523729 0.12484 0 0.212825
0.523729 0.128874 -2.31298e-18 0.212767
0.075776 0.534986 0 0.178721
0.467897 0.271334 3.46945e-18 0.204127
0.350249 0.412396 -3.46945e-18 0.190879
0.523729 0.137234 0 0.212635
0.412065 0.352034 -2.31298e-18 0.19741
0.288433 0.46022 0 0.185938
0.523729 0.145897 0 0.21249
0.151552 0.523639 0 0.179669
0.523729 0.154876 -3.08149e-33 0.21233
0 0.546332 0 0.178079
0.523729 0.159528 0 0.212242
0.467897 0.284867 -3.46945e-18 0.203708
0.523729 0.16418 -2.31298e-18 0.212154
0.523729 0.173822 0 0.21196
0.412065 0.368496 0 0.196769
0.523729 0.183814 0 0.211746
0.467897 0.29889 0 0.203249
0.350249 0.431051 -3.46945e-18 0.190077
0.219992 0.51269 0 0.180512
0.523729 0.194169 0 0.211512
0.288433 0.48061 0 0.184999
0.523729 0.2049 0 0.211254
0.467897 0.313423 3.46945e-18 0.202749
0.075776 0.558091 0 0.177434
0.412065 0.385557 0 0.196075
0.523729 0.21602 -3.08149e-33 0.210971
0.151552 0.546332 0 0.178483
0 0.569849 0 0.176764
0.350249 0.450382 3.46945e-18 0.189214
0.523729 0.227544 -3.08149e-33 0.210661
0.467897 0.328483 0 0.202204
0.523729 0.231525 1.54074e-33 0.210548
0.574156 0.00184056 0 0.218517
0.574156 0.00558849 0 0.218531
0.574157 0.00947248 0 0.218556
0.574156 0.0134975 -3.46945e-18 0.218583
0.574156 0.0176687 -3.46945e-18 0.218602
0.574156 0.0219913 0 0.218611
0.574156 0.0264708 -3.46945e-18 0.218617
0.574156 0.031113 0 0.218625
0.574156 0.0359238 -3.46945e-18 0.218634
0.574157 0.0409092 0 0.218646
0.523729 0.239487 3.70071e-18 0.210323
0.574156 0.0460755 -3.46945e-18 0.21866
0.574156 0.0514295 0 0.218676
0.412065 0.403236 0 0.195326
0.574157 0.0569779 0 0.218696
0.574156 0.0627277 0 0.218718
0.574156 0.0686863 0 0.218741
0.219992 0.534986 0 0.179434
0.288433 0.501741 0 0.183995
0.574156 0.0748612 3.46945e-18 0.218755
0.574156 0.0812603 0 0.218737
0.467897 0.344091 0 0.201612
0.574156 0.0878917 3.46945e-18 0.218673
0.523729 0.251863 0 0.209953
0.574157 0.0947639 0 0.218582
0.574156 0.101886 0 0.218481
0.574156 0.109266 0 0.218373
0.574156 0.116914 0 0.218253
0.412065 0.416977 -6.16298e-33 0.19472
0.350249 0.470415 0 0.188286
0.523729 0.264688 0 0.20955
0.075776 0.582034 0 0.176091
0.574156 0.12484 0 0.21812
0.574156 0.133054 3.46945e-18 0.217974
0.412065 0.421557 -2.31298e-18 0.194518
0.151552 0.569849 0 0.177231
0.467897 0.360265 -3.46945e-18 0.20097
0.574157 0.141566 -3.46945e-18 0.217813
0.523729 0.27798 0 0.20911
0.574156 0.150386 3.46945e-18 0.217636
0 0.594219 0 0.17539
0.574156 0.159528 -3.46945e-18 0.217443
0.574156 0.16418 0 0.217908
0.288433 0.523639 1.2326e-32 0.18292
0.574157 0.169001 0 0.21723
0.523729 0.291753 0 0.208633
0.219993 0.558091 3.46945e-18 0.17828
0.467897 0.377026 0 0.200275
0.574156 0.178818 3.46945e-18 0.216998
0.412065 0.440544 -2.31298e-18 0.193649
0.350249 0.491175 0 0.187291
0.574156 0.188992 3.46945e-18 0.216744
0.523729 0.306027 -3.08149e-33 0.208114
0.574157 0.199535 0 0.216467
0.574157 0.21046 0 0.216165
0.075776 0.606847 0 0.174687
0.467897 0.394397 0 0.199525
0.151552 0.594219 0 0.17591
0.523729 0.320819 0 0.207551
0.574157 0.221782 -3.46945e-18 0.215836
0.412065 0.46022 3.08149e-33 0.192715
0.288433 0.546332 0 0.181771
0 0.619475 0 0.173953
0.574156 0.233515 3.46945e-18 0.215479
0.350249 0.51269 3.46945e-18 0.186225
0.219992 0.582034 3.46945e-18 0.177048
0.523729 0.336148 0 0.206942
0.467897 0.412396 0 0.198716
0.574156 0.245675 0 0.21509
0.624584 0 0 0.225328
0.624584 0.00368111 0 0.225335
0.624584 0.00749587 0 0.225354
0.624584 0.0114491 0 0.225379
0.624584 0.0155459 0 0.225402
0.624584 0.0197915 0 0.225413
0.624584 0.0241911 -2.31298e-18 0.225413
0.624584 0.0287506 0 0.225409
0.624584 0.0334755 0 0.225406
0.624584 0.038372 0 0.225404
0.624584 0.0434463 -2.31298e-18 0.225404
0.624584 0.0487048 0 0.225406
0.624584 0.0541543 0 0.225409
0.624584 0.0598016 0 0.225413
0.624584 0.0656539 0 0.225416
0.624584 0.0717187 0 0.225413
0.624584 0.0780037 0 0.225384
0.574157 0.258276 3.46945e-18 0.214669
0.624584 0.0845169 0 0.225314
0.523729 0.352034 0 0.206284
0.624584 0.0912666 0 0.225212
0.624584 0.0982613 0 0.225093
0.412065 0.48061 3.08149e-33 0.191713
0.624584 0.10551 0 0.224965
0.624584 0.113022 -2.31298e-18 0.224824
0.574156 0.271334 0 0.214213
0.624584 0.120806 0 0.22467
0.467897 0.431051 0 0.197845
0.075776 0.632561 -3.46945e-18 0.173216
0.624584 0.128874 0 0.224502
0.151552 0.619475 0 0.174516
0.288433 0.569849 0 0.180544
0.350249 0.534985 0 0.185085
0.624584 0.137234 -2.31298e-18 0.224318
0.523729 0.368496 0 0.205573
0.574156 0.284866 -3.46945e-18 0.213719
0.624584 0.145897 0 0.224118
0.467897 0.440544 0 0.197896
0.624584 0.154876 0 0.2239
0.219992 0.606847 -3.46945e-18 0.175736
0 0.645647 0 0.172447
0.624584 0.16418 -3.08149e-33 0.223663
0.574156 0.29889 -3.46945e-18 0.213185
0.624584 0.173822 0 0.223405
0.412065 0.501741 1.54074e-33 0.19064
0.467897 0.450382 -3.46945e-18 0.19691
0.523729 0.385557 0 0.204807
0.624584 0.183814 0 0.223125
0.624584 0.194169 0 0.222822
0.574156 0.313423 0 0.212608
0.624584 0.2049 0 0.222493
0.350249 0.558091 3.46945e-18 0.183867
0.288433 0.594219 0 0.179236
0.624584 0.21602 0 0.222138
0.523729 0.403236 0 0.203982
0.574156 0.328483 -3.46945e-18 0.211986
0.151552 0.645647 0 0.173046
0.467897 0.470415 3.46945e-18 0.195907
0.075776 0.659208 0 0.171675
0.624584 0.227544 0 0.221753
0.412065 0.523639 0 0.189492
0.523729 0.41545 3.08149e-33 0.20339
0.624584 0.239487 3.70071e-18 0.221338
0.574156 0.344091 0 0.211315
0.219992 0.632561 0 0.174341
0.67013 0.00184055 0 0.231724
0.67013 0.00558849 0 0.231737
0.67013 0.00947248 0 0.231759
0.67013 0.0134975 0 0.231788
0.67013 0.0176687 -3.46945e-18 0.231804
0.67013 0.0219913 0 0.231802
0.67013 0.0264708 3.46945e-18 0.231789
0.67013 0.0311131 0 0.231775
0.67013 0.0359237 0 0.231762
0.67013 0.0409092 -3.46945e-18 0.231749
0.67013 0.0460755 0 0.231738
0.67013 0.0514296 3.46945e-18 0.231727
0.523729 0.421557 -2.31298e-18 0.203095
0.67013 0.056978 0 0.231715
0 0.67277 0 0.170869
0.67013 0.0627277 0 0.231702
0.624584 0.251863 0 0.22089
0.67013 0.0686863 0 0.231688
0.67013 0.0748612 3.46945e-18 0.231655
0.67013 0.0812603 0 0.231578
0.67013 0.0878917 0 0.231462
0.67013 0.0947639 3.46945e-18 0.231328
0.574156 0.360265 0 0.210592
0.67013 0.101886 0 0.231183
0.523729 0.431051 0 0.202619
0.624584 0.264688 0 0.220406
0.467897 0.491175 0 0.194832
0.67013 0.109266 3.46945e-18 0.231025
0.350249 0.582034 0 0.182567
0.67013 0.116914 0 0.230853
0.67013 0.12484 0 0.230665
0.67013 0.133054 0 0.230462
0.288433 0.619475 0 0.177843
0.624584 0.27798 -3.08149e-33 0.219885
0.412065 0.546332 1.54074e-33 0.188266
0.523729 0.440544 -3.08149e-33 0.202143
0.67013 0.141566 3.46945e-18 0.230241
0.685312 0.0241911 -7.70372e-34 0.234583
0.685312 0.0434463 -7.70372e-34 0.234505
0.67013 0.150387 0 0.230002
0.574156 0.377026 -3.46945e-18 0.209814
0.67013 0.159528 0 0.229744
0.624584 0.291753 0 0.219324
0.151552 0.67277 0 0.171495
0.075776 0.686823 0 0.170059
0.67013 0.169001 0 0.229464
0.67013 0.178818 0 0.229162
0.467897 0.51269 0 0.193683
0.685312 0.113022 -7.70372e-34 0.233594
0.219992 0.659208 0 0.172859
0.624584 0.306027 0 0.218721
0.67013 0.188991 0 0.228836
0.574156 0.394397 3.46945e-18 0.208978
0.523729 0.46022 0 0.201122
0.685312 0.137234 -7.70372e-34 0.232969
0.67013 0.199535 -3.46945e-18 0.228485
0.350249 0.606847 0 0.181182
0 0.700877 0 0.169213
0.624584 0.320819 0 0.218072
0.67013 0.21046 0 0.228106
0.412065 0.569849 -2.31298e-18 0.186957
0.67013 0.221782 -3.46945e-18 0.227699
0.574157 0.412396 0 0.208081
0.288433 0.645647 0 0.176361
0.624584 0.336148 -3.08149e-33 0.217375
0.67013 0.233515 3.46945e-18 0.22726
0.467897 0.534986 0 0.192454
0.523729 0.48061 0 0.200029
0.624584 0.344091 0 0.217
0.67013 0.245675 0 0.226789
0.715676 4.54095e-19 0 0.239113
0.715676 0.00368111 0 0.23912
0.715676 0.00749587 0 0.239137
0.715676 0.0114491 0 0.239162
0.715676 0.0155459 0 0.239183
0.715676 0.0197915 0 0.239185
0.715676 0.0241911 0 0.239169
0.715676 0.0287506 0 0.239143
0.715676 0.0334755 0 0.239115
0.715676 0.038372 0 0.239085
0.624584 0.352034 -2.31298e-18 0.216626
0.715676 0.0434463 0 0.239056
0.151552 0.700877 0 0.169858
0.715676 0.0487048 0 0.239026
0.715676 0.0541543 0 0.238995
0.574156 0.43105 0 0.207118
0.715676 0.0598016 0 0.238964
0.67013 0.258275 0 0.226282
0.715676 0.0656539 0 0.238929
0.715676 0.0717187 0 0.238881
0.075776 0.715441 0 0.168363
0.715676 0.0780037 0 0.238797
0.715676 0.0845169 0 0.238672
0.219992 0.686824 0 0.171288
0.715676 0.0912666 0 0.23852
0.715676 0.0982613 0 0.238353
0.67013 0.271334 -3.46945e-18 0.225739
0.350249 0.632561 -3.46945e-18 0.179708
0.412065 0.594219 3.08149e-33 0.185561
0.715676 0.10551 0 0.238173
0.715676 0.113022 0 0.237979
0.624584 0.368496 0 0.215822
0.523729 0.501741 0 0.19886
0.715676 0.120806 0 0.237768
0.715676 0.128874 0 0.23754
0.67013 0.284867 0 0.225155
0.467897 0.558091 3.46945e-18 0.191142
0.715676 0.137234 0 0.237294
0.574156 0.450382 0 0.206085
0 0.730005 0 0.167475
0.715676 0.145897 0 0.237029
0.288433 0.67277 0 0.174788
0.715676 0.154876 0 0.236744
0.67013 0.29889 0 0.224529
0.624584 0.385557 0 0.214961
0.715676 0.16418 -9.25187e-19 0.236437
0.715676 0.173822 0 0.236108
0.715676 0.183814 0 0.235753
0.67013 0.313423 0 0.223858
0.523729 0.523639 0 0.197611
0.715676 0.194169 0 0.235373
0.574156 0.470415 3.46945e-18 0.204981
0.624584 0.403236 0 0.214038
0.743101 0.0241911 -7.70372e-34 0.244091
0.412065 0.619475 3.08149e-33 0.184075
0.715676 0.2049 0 0.234965
0.151552 0.730005 0 0.168133
0.67013 0.328484 3.46945e-18 0.223139
0.350249 0.659208 0 0.178141
0.467897 0.582034 0 0.189743
0.715676 0.21602 0 0.234528
0.219992 0.715441 0 0.169624
0.075776 0.745097 -3.46945e-18 0.166582
0.715676 0.227544 0 0.234059
0.67013 0.344091 0 0.222369
0.624584 0.421557 0 0.213049
0.743101 0.128874 -7.70372e-34 0.242162
0.715676 0.239487 3.70071e-18 0.233557
0.574156 0.491175 0 0.203799
0.756814 0.00184055 0 0.246086
0.523729 0.546332 0 0.196277
0.756813 0.00558849 0 0.246098
0.756813 0.00947248 0 0.246121
0.756814 0.0134975 -3.46945e-18 0.246148
0.756814 0.0155459 0 0.246581
0.756814 0.0176687 0 0.246159
0.756814 0.0219913 0 0.246143
0.756814 0.0264709 0 0.24611
0.756814 0.031113 -3.46945e-18 0.246069
0.756813 0.0359238 -3.46945e-18 0.246025
0.288433 0.700877 0 0.17312
0.756814 0.0409092 -3.46945e-18 0.245979
0.756813 0.0460755 3.46945e-18 0.245932
0.756813 0.0514296 0 0.245884
0.715676 0.251863 0 0.23302
0.756813 0.0569779 0 0.245835
0.756814 0.0627277 -3.46945e-18 0.245784
0.756814 0.0686863 -3.46945e-18 0.245728
0 0.76019 0 0.165649
0.756814 0.0748612 0 0.245642
0.67013 0.360265 3.46945e-18 0.221544
0.756814 0.0812603 -3.46945e-18 0.245506
0.756814 0.0878917 -3.46945e-18 0.245335
0.756814 0.0947639 -3.46945e-18 0.24515
0.715676 0.264688 0 0.232446
0.756813 0.101886 0 0.244952
0.624584 0.440544 0 0.211991
0.756813 0.109266 3.46945e-18 0.244738
0.756813 0.116914 3.46945e-18 0.244507
0.412065 0.645647 0 0.182493
0.467897 0.606847 0 0.188252
0.756814 0.120806 0 0.244737
0.756813 0.12484 0 0.244258
0.715676 0.27798 0 0.231831
0.756814 0.133054 -3.46945e-18 0.243991
0.67013 0.377026 -3.46945e-18 0.220662
0.756814 0.137234 0 0.24419
0.574156 0.51269 0 0.202536
0.756813 0.141566 3.46945e-18 0.243703
0.685312 0.352034 -7.70372e-34 0.224255
0.743101 0.2049 -7.70372e-34 0.239367
0.350249 0.686824 0 0.176476
0.756814 0.150387 0 0.243395
0.756814 0.154876 0 0.243562
0.715676 0.291753 0 0.231175
0.756814 0.159528 -3.46945e-18 0.243065
0.523729 0.569849 0 0.194854
0.72743 0.264688 0 0.234264
0.756814 0.16418 0 0.243214
0.151552 0.76019 0 0.166315
0.756813 0.169001 3.46945e-18 0.24271
0.624584 0.46022 0 0.210861
0.219993 0.745097 0 0.167864
0.67013 0.394396 0 0.219719
0.756813 0.178818 -3.46945e-18 0.242331
0.715676 0.306027 0 0.230473
0.075776 0.775831 0 0.164711
0.756813 0.188991 0 0.241926
0.756814 0.199535 0 0.241492
0.715676 0.320819 0 0.229724
0.574156 0.534985 0 0.201188
0.288433 0.730005 0 0.171352
0.756813 0.21046 0 0.241029
0.467897 0.632561 0 0.186664
0.67013 0.412396 -3.46945e-18 0.218711
0.624584 0.48061 -3.08149e-33 0.209652
0.756814 0.221782 0 0.240535
0.412065 0.67277 3.08149e-33 0.180811
0.715676 0.336148 0 0.228923
0 0.791472 0 0.163731
0.756813 0.233516 3.46945e-18 0.240006
0.523729 0.594219 0 0.193337
0.624584 0.487654 1.54074e-33 0.209222
0.756814 0.245675 3.46945e-18 0.239443
0.350249 0.715441 3.46945e-18 0.174709
0.67013 0.43105 0 0.217634
0.715676 0.352034 -9.25187e-19 0.228069
0.797951 9.08189e-19 -3.08149e-33 0.253911
0.797951 0.00368111 2.31298e-18 0.253917
0.797951 0.00749587 2.31298e-18 0.253935
0.797951 0.0114491 2.31298e-18 0.25396
0.797951 0.0141803 7.70372e-34 0.253972
0.797951 0.0155459 0 0.253978
0.797951 0.0169611 7.70372e-34 0.253976
0.797951 0.0197915 2.31298e-18 0.253971
0.797951 0.0219913 0 0.253953
0.797951 0.0241911 3.08149e-33 0.253936
0.797951 0.0264709 0 0.25391
0.797951 0.0287506 -3.08149e-33 0.253884
0.797951 0.0334755 2.31298e-18 0.253822
0.797951 0.038372 2.31298e-18 0.253756
0.797951 0.0434463 2.31298e-18 0.253686
0.797951 0.0487048 0 0.253614
0.756813 0.258275 -3.46945e-18 0.238842
0.797951 0.0541543 2.31298e-18 0.253539
0.797951 0.0598016 2.31298e-18 0.253461
0.797951 0.0656539 2.31298e-18 0.253377
0.574156 0.55809 0 0.199751
0.624584 0.501741 0 0.208363
0.797951 0.0717187 2.31298e-18 0.25327
0.797951 0.0780037 -3.08149e-33 0.253121
0.797951 0.0845169 2.31298e-18 0.252933
0.797951 0.0912666 -3.08149e-33 0.25272
0.797951 0.0982613 2.31298e-18 0.252492
0.756813 0.271334 0 0.238201
0.797951 0.10551 2.31298e-18 0.252248
0.715676 0.368496 0 0.227158
0.151552 0.791472 0 0.1644
0.797951 0.113022 2.31298e-18 0.251986
0.219992 0.775831 3.46945e-18 0.166002
0.797951 0.118211 7.70372e-34 0.251799
0.770526 0.239487 1.54074e-33 0.242174
0.797951 0.120806 0 0.251706
0.67013 0.450382 3.46945e-18 0.216484
0.797951 0.128874 3.08149e-33 0.251406
0.467897 0.659208 0 0.184974
0.756813 0.284866 -3.46945e-18 0.237518
0.743101 0.320819 -7.70372e-34 0.233828
0.797951 0.137234 0 0.251086
0.797951 0.141566 0 0.250915
0.797951 0.145897 -9.25187e-19 0.250744
0.523729 0.619475 0 0.191722
0.075776 0.807681 0 0.162746
0.797951 0.150387 0 0.250562
0.797951 0.154876 0 0.25038
0.715676 0.385557 0 0.226185
0.412065 0.700877 3.08149e-33 0.179025
0.288433 0.76019 0 0.16948
0.756813 0.29889 0 0.236791
0.797951 0.16418 0 0.249992
0.624584 0.523639 0 0.206986
0.797951 0.167394 7.70372e-34 0.249854
0.797951 0.173822 2.31298e-18 0.249578
0.574156 0.582034 0 0.198218
0.67013 0.470415 0 0.215256
0.797951 0.183814 2.31298e-18 0.249138
0.756813 0.313423 -3.46945e-18 0.236016
0.797951 0.194169 -9.25187e-19 0.24867
0.715676 0.403236 0 0.225148
0.151552 0.807681 0 0.163391
0.797951 0.197746 -7.70372e-34 0.248504
0.350249 0.745097 0 0.172837
0.797951 0.2049 3.08149e-33 0.248172
0 0.823889 0 0.161716
0.756813 0.328483 -3.46945e-18 0.23519
0.797951 0.21046 0 0.247908
0.797951 0.21602 -3.08149e-33 0.247643
0.797951 0.223703 7.70372e-34 0.247268
0.797951 0.227544 9.25187e-19 0.247081
0.624584 0.546332 0 0.205519
0.715676 0.421557 0 0.224042
0.67013 0.491176 -3.46945e-18 0.213947
0.797951 0.231525 7.70372e-34 0.246881
0.467897 0.686824 -3.46945e-18 0.183179
0.523729 0.645647 0 0.190003
0.756813 0.344091 -3.46945e-18 0.234311
0.822721 0.120806 7.70372e-34 0.256505
0.797951 0.239487 -3.08149e-33 0.246483
0.822721 0.137234 7.70372e-34 0.255832
0.835106 0.00184056 0 0.261332
0.835106 0.00558849 0 0.261345
0.835106 0.00947248 0 0.261369
0.835106 0.0134975 0 0.261396
0.835107 0.0176687 0 0.261402
0.835106 0.0219913 -3.46945e-18 0.261372
0.574156 0.606847 3.46945e-18 0.196585
0.835106 0.0241911 0 0.261598
0.835106 0.0264709 -3.46945e-18 0.261315
0.822721 0.145897 -7.70372e-34 0.255462
0.835106 0.031113 3.46945e-18 0.261238
0.835106 0.0359238 3.46945e-18 0.261155
0.835106 0.0409092 -3.46945e-18 0.261066
0.835106 0.0460755 3.46945e-18 0.260972
0.835106 0.0514296 0 0.260873
0.797951 0.251863 -3.08149e-33 0.245849
0.835106 0.0541543 0 0.261072
0.835106 0.0569779 0 0.260772
0.219992 0.807681 3.46945e-18 0.164037
0.822721 0.154876 7.70372e-34 0.255069
0.835106 0.0627277 0 0.260665
0.151552 0.823889 0 0.162382
0.797951 0.255069 -1.54074e-33 0.24568
0.835106 0.0686863 3.46945e-18 0.260544
0.756814 0.360265 -3.46945e-18 0.233375
0.412065 0.730005 0 0.17713
0.835106 0.0748612 0 0.260384
0.822721 0.16418 7.70372e-34 0.254651
0.835106 0.0812603 0 0.260177
0.835106 0.0878917 -3.46945e-18 0.25994
0.715676 0.440544 0 0.222863
0.835106 0.094764 0 0.259686
0.797951 0.264688 -1.2326e-32 0.245175
0.835106 0.101886 -3.46945e-18 0.259415
0.835106 0.109266 3.46945e-18 0.259126
0.288433 0.791472 0 0.167501
0.835106 0.116914 0 0.258817
0.67013 0.51269 3.46945e-18 0.21255
0.797951 0.274657 6.16298e-33 0.244638
0.075776 0.840686 -3.46945e-18 0.160681
0.835106 0.12484 0 0.258489
0.797951 0.27798 -3.08149e-33 0.244459
0.624584 0.569849 0 0.203955
0.756813 0.377026 -3.46945e-18 0.232379
0.835106 0.133054 3.46945e-18 0.258139
0.835106 0.141565 3.46945e-18 0.257767
0.835106 0.150386 0 0.257373
0.797951 0.291753 0 0.2437
0.835106 0.159528 3.46945e-18 0.256954
0.715676 0.46022 0 0.221607
0.816529 0.239487 -1.54074e-33 0.24981