# pMean  POINT_DATA 63140
# x  y  z  pMean
0 0.1 0 0.205593
0 0.1 -0.0179898 0.205906
0 0.1 0.0179898 0.205283
0.0363518 0.1 0.0179898 0.205283
0.0363518 0.1 -0.0179898 0.205906
0 0.1 -0.0570102 0.206466
0 0.1 0.0570102 0.204459
0.0363518 0.1 0.0570102 0.204459
0.0363518 0.1 -0.0570102 0.206466
0 0.1 -0.075 0.206668
0 0.1 0.075 0.204012
0.075776 0.1 -0.0375 0.206249
0.075776 0.1 0.0375 0.204947
0 0.1 -0.0929898 0.206872
0 0.1 0.0929898 0.203568
0.0363518 0.1 -0.0929898 0.206872
0.0363518 0.1 0.0929898 0.203568
0 0.1 -0.13201 0.207184
0 0.1 0.13201 0.202464
0.075776 0.1 -0.1125 0.207096
0.075776 0.1 0.1125 0.203086
0.0363518 0.1 -0.13201 0.207184
0.0363518 0.1 0.13201 0.202464
0 0.1 -0.15 0.207267
0 0.1 0.15 0.201893
0.150379 0.1 -2.22623e-17 0.198591
0 0.1 -0.16799 0.207354
0 0.1 0.16799 0.201324
0.150379 0.1 -0.075 0.199694
0.150379 0.1 0.075 0.196882
0.0363518 0.1 -0.16799 0.207354
0.0363518 0.1 0.16799 0.201324
0.075776 0.1 -0.1875 0.207449
0.075776 0.1 0.1875 0.200709
0 0.1 -0.20701 0.20738
0 0.1 0.20701 0.199946
0.0363518 0.1 -0.20701 0.20738
0.0363518 0.1 0.20701 0.199946
0.150379 0.1 -0.15 0.2002
0.150379 0.1 0.15 0.194585
0.219993 0.1 -0.0375 0.19266
0.219993 0.1 0.0375 0.191157
0 0.1 -0.225 0.207318
0 0.1 0.225 0.199246
0 0.1 -0.24299 0.207261
0 0.1 0.24299 0.198547
0.0363518 0.1 0.24299 0.198547
0.0363518 0.1 -0.24299 0.207261
0.219993 0.1 -0.1125 0.193417
0.219993 0.1 0.1125 0.189
0.150379 0.1 -0.225 0.200071
0.150379 0.1 0.225 0.191712
0.075776 0.1 -0.2625 0.207199
0.075776 0.1 0.2625 0.197791
0 0.1 -0.28201 0.206976
0 0.1 0.28201 0.196894
0.0363518 0.1 -0.28201 0.206976
0.0363518 0.1 0.28201 0.196894
0.287374 0.1 -2.89121e-19 0.195029
0.219992 0.1 0.1875 0.186224
0.219992 0.1 -0.1875 0.193493
0.287374 0.1 -0.075 0.196186
0.287374 0.1 0.075 0.193188
0 0.1 -0.3 0.206773
0 0.1 0.3 0.19607
0 0.1 0.31799 0.195248
0 0.1 -0.31799 0.206574
0.0363518 0.1 -0.31799 0.206574
0.0363518 0.1 0.31799 0.195248
0.287374 0.1 0.15 0.190701
0.287374 0.1 -0.15 0.196649
0.150379 0.1 -0.3 0.199293
0.150379 0.1 0.3 0.188279
0.219993 0.1 0.2625 0.182821
0.219993 0.1 -0.2625 0.192815
0.075776 0.1 -0.3375 0.206357
0.075776 0.1 0.3375 0.194358
0.350249 0.1 -0.0375 0.198774
0.350249 0.1 0.0375 0.197256
0 0.1 -0.35701 0.205978
0 0.1 0.35701 0.19333
0.0363518 0.1 -0.35701 0.205978
0.0363518 0.1 0.35701 0.19333
0.287374 0.1 -0.225 0.196414
0.287374 0.1 0.225 0.187588
0.350249 0.1 -0.1125 0.199619
0.350249 0.1 0.1125 0.195071
0 0.1 -0.375 0.20563
0 0.1 0.375 0.192386
0 0.1 -0.39299 0.205285
0 0.1 0.39299 0.191443
0.0363518 0.1 -0.39299 0.205285
0.0363518 0.1 0.39299 0.191443
0.350249 0.1 -0.1875 0.199788
0.350249 0.1 0.1875 0.192241
0.219992 0.1 -0.3375 0.191493
0.219992 0.1 0.3375 0.178867
0.150379 0.1 0.375 0.18435
0.150379 0.1 -0.375 0.197925
0.411108 0.1 4.33681e-19 0.202807
0.287374 0.1 -0.3 0.195489
0.287374 0.1 0.3 0.183889
0.411108 0.1 -0.075 0.204021
0.411108 0.1 0.075 0.200841
0.075776 0.1 -0.4125 0.204913
0.075776 0.1 0.4125 0.190422
0 0.1 0.43201 0.189282
0 0.1 -0.43201 0.204394
0.0363518 0.1 0.43201 0.189282
0.0363518 0.1 -0.43201 0.204394
0.411108 0.1 -0.15 0.204478
0.411108 0.1 0.15 0.198146
0.350249 0.1 -0.2625 0.199279
0.350249 0.1 0.2625 0.188802
0 0.1 -0.45 0.203919
0 0.1 0.45 0.188233
0.219992 0.1 0.4125 0.174493
0.219992 0.1 -0.4125 0.189649
0 0.1 -0.46799 0.203445
0 0.1 0.46799 0.187185
0.411108 0.1 -0.225 0.204184
0.411108 0.1 0.225 0.194759
0.467897 0.1 -0.0375 0.208236
0.467897 0.1 0.0375 0.20657
0.0363518 0.1 0.46799 0.187185
0.0363518 0.1 -0.46799 0.203445
0.287374 0.1 -0.375 0.193937
0.287374 0.1 0.375 0.179677
0.150379 0.1 0.45 0.179991
0.150379 0.1 -0.45 0.196012
0.467897 0.1 0.1125 0.204086
0.467897 0.1 -0.1125 0.209058
0.350249 0.1 -0.3375 0.19808
0.350249 0.1 0.3375 0.184802
0.075776 0.1 -0.4875 0.202933
0.075776 0.1 0.4875 0.186051
0.467897 0.1 0.1875 0.200818
0.467897 0.1 -0.1875 0.209057
0 0.1 -0.50701 0.20228
0 0.1 0.50701 0.18481
0.0363518 0.1 -0.50701 0.20228
0.0363518 0.1 0.50701 0.18481
0.411108 0.1 0.3 0.190736
0.411108 0.1 -0.3 0.203142
0.522865 0.1 1.41031e-17 0.213064
0 0.1 -0.525 0.201682
0 0.1 0.525 0.183669
0.522865 0.1 -0.075 0.214356
0.522865 0.1 0.075 0.210882
0.287374 0.1 0.45 0.175015
0.287374 0.1 -0.45 0.191808
0.219992 0.1 0.4875 0.169759
0.219992 0.1 -0.4875 0.187284
0.467897 0.1 -0.2625 0.208231
0.467897 0.1 0.2625 0.196826
0.350249 0.1 -0.4125 0.196234
0.350249 0.1 0.4125 0.180287
0 0.1 -0.54299 0.201085
0 0.1 0.54299 0.182529
0.522865 0.1 0.15 0.207843
0.522865 0.1 -0.15 0.214753
0.0363518 0.1 0.54299 0.182529
0.0363518 0.1 -0.54299 0.201085
0.150379 0.1 -0.525 0.19359
0.150379 0.1 0.525 0.175276
0.411108 0.1 -0.375 0.201386
0.411108 0.1 0.375 0.186137
0.075776 0.1 -0.5625 0.200439
0.075776 0.1 0.5625 0.181294
0.522865 0.1 -0.225 0.214258
0.522865 0.1 0.225 0.203995
0.574156 0.1 0.0375 0.217599
0.574157 0.1 -0.0375 0.219417
0.467897 0.1 -0.3375 0.206612
0.467897 0.1 0.3375 0.192192
0 0.1 -0.58201 0.199664
0 0.1 0.58201 0.179969
0.0363518 0.1 -0.58201 0.199664
0.0363518 0.1 0.58201 0.179969
0.574157 0.1 -0.1125 0.220276
0.574157 0.1 0.1125 0.214849
0.287374 0.1 -0.525 0.189138
0.287374 0.1 0.525 0.169971
0 0.1 -0.6 0.198952
0 0.1 0.6 0.178751
0.350249 0.1 0.4875 0.175271
0.350249 0.1 -0.4875 0.193774
0.522865 0.1 -0.3 0.212892
0.522865 0.1 0.3 0.199406
0.219992 0.1 -0.5625 0.184451
0.219992 0.1 0.5625 0.164773
0.574156 0.1 -0.1875 0.220183
0.574156 0.1 0.1875 0.211207
0.411108 0.1 0.45 0.181009
0.411108 0.1 -0.45 0.198967
0 0.1 -0.61799 0.198242
0 0.1 0.61799 0.177534
0.150379 0.1 -0.6 0.190717
0.150379 0.1 0.6 0.170258
0.0363518 0.1 -0.61799 0.198242
0.0363518 0.1 0.61799 0.177534
0.467897 0.1 -0.4125 0.204274
0.467897 0.1 0.4125 0.186972
0.623803 0.1 2.34188e-17 0.22498
0.623803 0.1 0.075 0.222563
0.623803 0.1 -0.075 0.226374
0.574156 0.1 0.2625 0.206732
0.574156 0.1 -0.2625 0.219132
0.623803 0.1 0.15 0.219163
0.623803 0.1 -0.15 0.226734
0.075776 0.1 0.6375 0.176215
0.075776 0.1 -0.6375 0.197473
0.522865 0.1 -0.375 0.210711
0.522865 0.1 0.375 0.194155
0 0.1 0.65701 0.174823
0 0.1 -0.65701 0.196589
0.0363518 0.1 0.65701 0.174823
0.0363518 0.1 -0.65701 0.196589
0.350249 0.1 0.5625 0.169848
0.350249 0.1 -0.5625 0.190759
0.623803 0.1 0.225 0.214833
0.623803 0.1 -0.225 0.226061
0.287374 0.1 -0.6 0.185996
0.287374 0.1 0.6 0.164619
0.574157 0.1 -0.3375 0.217175
0.574157 0.1 0.3375 0.2015
0.411108 0.1 0.525 0.17542
0.411108 0.1 -0.525 0.195931
0.67013 0.1 0.0375 0.230219
0.67013 0.1 -0.0375 0.232224
0.219992 0.1 -0.6375 0.181263
0.219993 0.1 0.6375 0.159533
0 0.1 -0.675 0.195778
0 0.1 0.675 0.173542
0.467897 0.1 -0.4875 0.20126
0.467897 0.1 0.4875 0.181242
0.67013 0.1 -0.1125 0.233115
0.67013 0.1 0.1125 0.227134
0.522865 0.1 0.45 0.188319
0.522865 0.1 -0.45 0.207777
0.150379 0.1 0.675 0.164975
0.150379 0.1 -0.675 0.187442
0.623803 0.1 0.3 0.209649
0.623803 0.1 -0.3 0.224385
0 0.1 -0.69299 0.194967
0 0.1 0.69299 0.172261
0.0363518 0.1 -0.69299 0.194967
0.0363518 0.1 0.69299 0.172261
0.67013 0.1 -0.1875 0.232898
0.67013 0.1 0.1875 0.223026
0.574156 0.1 0.4125 0.195603
0.574157 0.1 -0.4125 0.214381
0.714971 0.1 -2.8382e-17 0.238228
0.075776 0.1 -0.7125 0.194089
0.075776 0.1 0.7125 0.170875
0.714971 0.1 -0.075 0.239734
0.714971 0.1 0.075 0.235535
0.67013 0.1 0.2625 0.21795
0.67013 0.1 -0.2625 0.231575
0.411108 0.1 -0.6 0.192341
0.411108 0.1 0.6 0.169457
0.350249 0.1 0.6375 0.164107
0.350249 0.1 -0.6375 0.18724
0.623803 0.1 0.375 0.203704
0.623803 0.1 -0.375 0.221768
0.714971 0.1 -0.15 0.240042
0.714971 0.1 0.15 0.231707
0.467897 0.1 -0.5625 0.197633
0.467897 0.1 0.5625 0.175086
0 0.1 -0.73201 0.193111
0 0.1 0.73201 0.169429
0.0363518 0.1 0.73201 0.169429
0.0363518 0.1 -0.73201 0.193111
0.287374 0.1 -0.675 0.182439
0.287374 0.1 0.675 0.159004
0.522865 0.1 -0.525 0.204153
0.522865 0.1 0.525 0.181988
0.219993 0.1 -0.7125 0.177711
0.219992 0.1 0.7125 0.154064
0.714971 0.1 -0.225 0.239154
0.714971 0.1 0.225 0.226808
0 0.1 0.75 0.1681
0 0.1 -0.75 0.192213
0.67013 0.1 -0.3375 0.229214
0.67013 0.1 0.3375 0.212019
0.574156 0.1 -0.4875 0.210809
0.574157 0.1 0.4875 0.189134
0.756813 0.1 0.0375 0.243899
0.756814 0.1 -0.0375 0.24611
0.150379 0.1 0.746002 0.159885
0.150379 0.1 -0.75 0.183799
0.756813 0.1 -0.1125 0.247023
0.756813 0.1 0.1125 0.240439
0 0.1 0.76799 0.16677
0 0.1 -0.76799 0.191314
0.0363518 0.1 0.76799 0.16677
0.0363518 0.1 -0.76799 0.191314
0.623803 0.1 -0.45 0.21828
0.623803 0.1 0.45 0.197097
0.714971 0.1 -0.3 0.237108
0.714971 0.1 0.3 0.220926
0.756814 0.1 -0.1875 0.246668
0.756814 0.1 0.1875 0.235796
0.67013 0.1 -0.4125 0.225873
0.67013 0.1 0.4125 0.205327
0.411108 0.1 0.675 0.163203
0.411108 0.1 -0.675 0.188263
0.467897 0.1 0.6375 0.168585
0.467897 0.1 -0.6375 0.193458
0.075776 0.1 0.7875 0.165331
0.075776 0.1 -0.7875 0.190343
0.350249 0.1 -0.7125 0.183286
0.350249 0.1 0.7125 0.158121
0.522865 0.1 -0.6 0.199916
0.522865 0.1 0.6 0.175256
0.797314 0.1 -3.59473e-17 0.252355
0.287374 0.1 0.746002 0.153423
0.797314 0.1 -0.075 0.253989
0.797314 0.1 0.075 0.249351
0.756814 0.1 -0.2625 0.245021
0.756814 0.1 0.2625 0.230047
0.287374 0.1 -0.75 0.178507
0.574156 0.1 -0.5625 0.20655
0.574156 0.1 0.5625 0.182196
0 0.1 0.80701 0.163846
0 0.1 -0.80701 0.189284
0.714971 0.1 -0.375 0.233971
0.714971 0.1 0.375 0.214179
0.0363518 0.1 0.80701 0.163846
0.0363518 0.1 -0.80701 0.189284
0.797314 0.1 -0.15 0.25425
0.797314 0.1 0.15 0.245043
0.623803 0.1 -0.525 0.214009
0.623803 0.1 0.525 0.189941
0.219992 0.1 0.7875 0.148409
0.219992 0.1 -0.7875 0.173828
0.149792 0.1 0.80701 0.155198
0 0.1 0.825 0.16248
0 0.1 -0.825 0.188311
0.797314 0.1 -0.225 0.253132
0.797314 0.1 0.225 0.239512
0.756813 0.1 -0.3375 0.24218
0.756813 0.1 0.3375 0.223299
0.67013 0.1 0.4875 0.197987
0.67013 0.1 -0.4875 0.221649
0.835106 0.1 -0.0375 0.260713
0.835106 0.1 0.0375 0.25826
0.150379 0.1 -0.825 0.179835
0.835106 0.1 -0.1125 0.261668
0.835106 0.1 0.1125 0.254378
0 0.1 -0.84299 0.187338
0 0.1 0.84299 0.161115
0.0363518 0.1 -0.84299 0.187338
0.0363518 0.1 0.84299 0.161115
0.714971 0.1 -0.45 0.229833
0.714971 0.1 0.45 0.20669
0.411108 0.1 0.746002 0.157012
0.797314 0.1 -0.3 0.250669
0.797314 0.1 0.3 0.232858
0.467897 0.1 -0.7125 0.18882
0.467897 0.1 0.7125 0.161826
0.522865 0.1 0.675 0.168216
0.522865 0.1 -0.675 0.19515
0.411108 0.1 -0.75 0.183769
0.835106 0.1 -0.1875 0.261198
0.835107 0.1 0.1875 0.249148
0.286844 0.1 0.80701 0.148656
0.574156 0.1 0.6375 0.174894
0.574157 0.1 -0.6375 0.20169
0.350249 0.1 -0.7875 0.178964
0.350249 0.1 0.7875 0.151969
0.756813 0.1 -0.4125 0.238195
0.756814 0.1 0.4125 0.215711
0.623803 0.1 -0.6 0.209054
0.623803 0.1 0.6 0.182351
0.075776 0.1 0.8625 0.159636
0.075776 0.1 -0.8625 0.186286
0.871687 0.1 -3.2767e-18 0.266963
0.287374 0.1 -0.825 0.174254
0.871687 0.1 -0.075 0.268729
0.871687 0.1 0.075 0.263619
0.67013 0.1 -0.5625 0.216648
0.67013 0.1 0.5625 0.19014
0.835106 0.1 0.2625 0.242663
0.835106 0.1 -0.2625 0.259205
0.797314 0.1 -0.375 0.246959
0.797314 0.1 0.375 0.225224
0 0.1 -0.88201 0.18516
0 0.1 0.88201 0.158129
0.0363518 0.1 0.88201 0.158129
0.0363518 0.1 -0.88201 0.18516
0.871687 0.1 0.15 0.258787
0.871687 0.1 -0.15 0.268941
0.714971 0.1 0.525 0.198587
0.714971 0.1 -0.525 0.224809
0.219993 0.1 0.8625 0.142632
0.219992 0.1 -0.8625 0.169665
0 0.1 0.9 0.156742
0 0.1 -0.9 0.184125
0.756813 0.1 0.4875 0.207406
0.756814 0.1 -0.4875 0.233215
0.871687 0.1 0.225 0.252564
0.871687 0.1 -0.225 0.267573
0.835106 0.1 -0.3375 0.25585
0.835106 0.1 0.3375 0.235053
0.41063 0.1 0.80701 0.151726
0.90582 0.1 -0.0375 0.27559
0.905821 0.1 0.0375 0.272889
0.522865 0.1 0.746002 0.161254
0.150379 0.1 0.9 0.148029
0.90582 0.1 0.1125 0.268557
0.905821 0.1 -0.1125 0.27654
0.522865 0.1 -0.75 0.189943
0.574156 0.1 0.7125 0.167327
0.574156 0.1 -0.7125 0.196326
0.797314 0.1 -0.45 0.242108
0.797314 0.1 0.45 0.216767
0.467897 0.1 -0.7875 0.183791
0.467897 0.1 0.7875 0.154894
0.150379 0.1 -0.903998 0.175847
0 0.1 0.91799 0.155355
0 0.1 -0.91799 0.183091
0.0363518 0.1 0.91799 0.155355
0.0363518 0.1 -0.91799 0.183091
0.623803 0.1 0.675 0.174442
0.623803 0.1 -0.675 0.203521
0.411108 0.1 -0.825 0.178933
0.871687 0.1 0.3 0.245075
0.871687 0.1 -0.3 0.264644
0.67013 0.1 -0.6375 0.210979
0.67013 0.1 0.6375 0.181904
0.90582 0.1 -0.1875 0.275956
0.90582 0.1 0.1875 0.26269
0.350249 0.1 0.8625 0.145705
0.350249 0.1 -0.8625 0.17434
0.835106 0.1 -0.4125 0.251207
0.835106 0.1 0.4125 0.226492
0.714971 0.1 -0.6 0.219019
0.714971 0.1 0.6 0.190014
0.93886 0.1 -1.15648e-17 0.28163
0.075776 0.1 0.9375 0.153854
0.075776 0.1 -0.9375 0.181972
0.93886 0.1 0.075 0.277901
0.93886 0.1 -0.075 0.283557
0.756813 0.1 0.5625 0.198519
0.756814 0.1 -0.5625 0.227351
0.905821 0.1 -0.2625 0.273537
0.905821 0.1 0.2625 0.2554
0.287374 0.1 0.9 0.141159
0.287374 0.1 -0.903998 0.170237
0.871687 0.1 0.375 0.236479
0.871687 0.1 -0.375 0.260301
0.93886 0.1 -0.15 0.283758
0.93886 0.1 0.15 0.272507
0.797314 0.1 0.525 0.207632
0.797314 0.1 -0.525 0.236255
0 0.1 0.95701 0.152337
0 0.1 -0.95701 0.180792
0.0363518 0.1 0.95701 0.152337
0.0363518 0.1 -0.95701 0.180792
0.522433 0.1 0.80701 0.155352
0.219992 0.1 0.9375 0.136795
0.219992 0.1 -0.9375 0.165266
0.93886 0.1 0.225 0.265559
0.93886 0.1 -0.225 0.282174
0.90582 0.1 0.3375 0.24685
0.905821 0.1 -0.3375 0.269601
0.835106 0.1 -0.4875 0.245434
0.835107 0.1 0.4875 0.217148
0.969689 0.1 -0.0375 0.290366
0.969689 0.1 0.0375 0.287324
0.61613 0.1 0.75 0.166323
0.574156 0.1 -0.7875 0.190557
0.574156 0.1 0.7875 0.159595
0 0.1 0.975 0.150941
0 0.1 -0.975 0.179708
0.623803 0.1 -0.75 0.197519
0.969689 0.1 -0.1125 0.291374
0.969689 0.1 0.1125 0.282491
0.522865 0.1 -0.825 0.184382
0.67013 0.1 0.7125 0.173406
0.67013 0.1 -0.7125 0.204768
0.871687 0.1 -0.45 0.254661
0.871687 0.1 0.45 0.226965
0.467897 0.1 0.8625 0.147866
0.467897 0.1 -0.8625 0.178453
0.714971 0.1 -0.675 0.212598
0.714971 0.1 0.675 0.181112
0.93886 0.1 -0.3 0.278791
0.93886 0.1 0.3 0.257206
0.150379 0.1 0.975 0.142205
0.150379 0.1 -0.975 0.171145
0.969689 0.1 -0.1875 0.290805
0.969689 0.1 0.1875 0.275964
0.411108 0.1 0.9 0.143459
0.756813 0.1 0.6375 0.189233
0.756814 0.1 -0.6375 0.220758
0.990306 0.1 -2.19732e-17 0.292966
0 0.1 0.99299 0.149545
0 0.1 -0.99299 0.178624
0.411108 0.1 -0.903998 0.174375
0.990306 0.1 -0.075 0.295021
0.990306 0.1 0.075 0.288895
0.0363518 0.1 0.99299 0.149545
0.0363518 0.1 -0.99299 0.178624
0.90582 0.1 -0.4125 0.264183
0.905821 0.1 0.4125 0.237214
0.797314 0.1 -0.6 0.229546
0.797314 0.1 0.6 0.197994
0.350249 0.1 0.9375 0.139379
0.350249 0.1 -0.9375 0.169477
0.990306 0.1 0.15 0.283015
0.990306 0.1 -0.15 0.295224
0.969689 0.1 -0.2625 0.288043
0.969689 0.1 0.2625 0.267874
0.835106 0.1 -0.5625 0.238663
0.835106 0.1 0.5625 0.207177
0.93886 0.1 -0.375 0.273826
0.93886 0.1 0.375 0.247632
0.075776 0.1 1.0125 0.148034
0.075776 0.1 -1.0125 0.177451
0.990306 0.1 -0.225 0.293465
0.990306 0.1 0.225 0.27544
0.287374 0.1 0.975 0.135067
0.287374 0.1 -0.975 0.165008
0.871687 0.1 -0.525 0.247891
0.871687 0.1 0.525 0.216721
1.02149 0.1 -0.0369628 0.303052
1.02149 0.1 0.0369628 0.299755
0.969689 0.1 -0.3375 0.283639
0.969689 0.1 0.3375 0.258412
1.02149 0.1 -0.110888 0.303996
1.02149 0.1 0.110888 0.294516
0.90582 0.1 0.4875 0.226731
0.90582 0.1 -0.4875 0.257481
0.623803 0.1 0.819003 0.159618
0 0.1 1.03201 0.14652
0 0.1 -1.03201 0.176232
0.0363518 0.1 1.03201 0.14652
0.0363518 0.1 -1.03201 0.176232
0.67013 0.1 -0.7875 0.198133
0.67013 0.1 0.7875 0.164762
0.623803 0.1 -0.825 0.191154
0.990306 0.1 -0.3 0.28969
0.990306 0.1 0.3 0.26634
0.219992 0.1 -1.0125 0.160679
0.219993 0.1 1.0125 0.130939
0.574156 0.1 0.8625 0.15179
0.574157 0.1 -0.8625 0.184477
0.714971 0.1 -0.75 0.205679
0.714971 0.1 0.75 0.17201
1.02149 0.1 0.184814 0.287421
1.02149 0.1 -0.184814 0.303435
0.756814 0.1 -0.7125 0.213576
0.756814 0.1 0.7125 0.179679
0.522865 0.1 0.9 0.146151
0.93886 0.1 -0.45 0.267389
0.93886 0.1 0.45 0.23705
1.04168 0.1 0 0.306686
1.04168 0.1 -0.0729162 0.308871
1.04168 0.1 0.0729162 0.302318
0.522865 0.1 -0.903998 0.179193
0.797314 0.1 -0.675 0.222149
0.797314 0.1 0.675 0.188027
0.467897 0.1 0.9375 0.140812
0.467897 0.1 -0.9375 0.172877
0 0.1 1.05 0.145126
0 0.1 -1.05 0.175111
0.835106 0.1 -0.6375 0.231084
0.835106 0.1 0.6375 0.196801
1.04168 0.1 -0.145832 0.309132
1.04168 0.1 0.145832 0.296074
1.02149 0.1 -0.25874 0.3003
1.02149 0.1 0.25874 0.278617
0.969689 0.1 -0.4125 0.277549
0.969689 0.1 0.4125 0.247784
0.411108 0.1 0.975 0.136771
0.411108 0.1 -0.975 0.168512
0.871687 0.1 -0.6 0.24017
0.871687 0.1 0.6 0.205937
1.0579 0.1 -0.0360525 0.312568
1.0579 0.1 0.0360525 0.30912
0.990306 0.1 -0.375 0.284189
0.990306 0.1 0.375 0.255923
0.150379 0.1 1.05 0.136373
0.150379 0.1 -1.05 0.166517
1.0579 0.1 0.108157 0.303775
1.0579 0.1 -0.108157 0.313606
1.04168 0.1 -0.218749 0.307369
1.04168 0.1 0.218749 0.288045
0.90582 0.1 -0.5625 0.249671
0.90582 0.1 0.5625 0.215583
0 0.1 -1.06799 0.17399
0 0.1 1.06799 0.143732
0.0363518 0.1 -1.06799 0.17399
0.0363518 0.1 1.06799 0.143732
0.350249 0.1 1.0125 0.133052
0.350249 0.1 -1.0125 0.164432
1.0579 0.1 -0.180262 0.313156
1.0579 0.1 0.180262 0.296588
1.02149 0.1 -0.332665 0.295413
1.02149 0.1 0.332665 0.268313
0.93886 0.1 -0.525 0.259686
0.93886 0.1 0.525 0.225675
1.08012 0.1 5.49329e-18 0.316716
1.04168 0.1 -0.291665 0.303402
1.04168 0.1 0.291665 0.278413
1.08012 0.1 0.0709941 0.312186
1.08012 0.1 -0.0709941 0.319047
0.969689 0.1 -0.4875 0.27003
0.96969 0.1 0.4875 0.236229
1.0579 0.1 0.252367 0.287702
1.0579 0.1 -0.252367 0.310178
0.990306 0.1 -0.45 0.277061
0.990306 0.1 0.45 0.244422
0.287374 0.1 -1.05 0.160121
0.287374 0.1 1.05 0.128988
0.714971 0.1 0.821002 0.16352
1.08012 0.1 -0.141988 0.319424
1.08012 0.1 0.141988 0.305805
0.075776 0.1 1.0875 0.142224
0.075776 0.1 -1.0875 0.172777
0.714971 0.1 -0.825 0.198396
0.756813 0.1 -0.7875 0.205961
0.756814 0.1 0.7875 0.170003
0.67013 0.1 -0.8625 0.19119
0.67013 0.1 0.8625 0.156084
0.797314 0.1 -0.75 0.214225
0.797314 0.1 0.75 0.177879
0.623803 0.1 0.9 0.149872
0.835106 0.1 -0.7125 0.222879
0.835106 0.1 0.7125 0.186182
0.623803 0.1 -0.903998 0.185255
0.574156 0.1 0.9375 0.144
0.574156 0.1 -0.9375 0.178184
1.02149 0.1 -0.406591 0.28864
1.02149 0.1 0.406591 0.256737
1.08012 0.1 -0.212982 0.317801
1.08012 0.1 0.212982 0.297645
1.10076 0.1 -0.0349809 0.324212
1.10076 0.1 0.0349809 0.32048
0.871687 0.1 -0.675 0.231702
0.871687 0.1 0.675 0.194817
1.04168 0.1 -0.364581 0.2976
1.04168 0.1 0.364581 0.267392
1.10076 0.1 -0.104943 0.325355
1.10076 0.1 0.104943 0.314912
0.522865 0.1 0.975 0.138753
0.522865 0.1 -0.975 0.172536
1.0579 0.1 -0.324472 0.305377
1.0579 0.1 0.324472 0.277324
0 0.1 -1.10701 0.17153
0 0.1 1.10701 0.140724
0.0363518 0.1 1.10701 0.140724
0.0363518 0.1 -1.10701 0.17153
0.90582 0.1 0.6375 0.203976
0.905821 0.1 -0.6375 0.240979
0.219992 0.1 1.0875 0.125102
0.219992 0.1 -1.0875 0.155951
0.93886 0.1 0.6 0.213742
0.93886 0.1 -0.6 0.250929
1.10076 0.1 -0.174905 0.325107
1.10076 0.1 0.174905 0.307483
0.467897 0.1 1.0125 0.133795
0.467897 0.1 -1.0125 0.167134
1.08012 0.1 -0.283976 0.313959
1.08012 0.1 0.283976 0.287883
1.11928 0.1 3.93204e-18 0.32704
0.990306 0.1 -0.525 0.268549
0.990306 0.1 0.525 0.232081
0.96969 0.1 -0.5625 0.261269
0.969689 0.1 0.5625 0.223943
1.11928 0.1 -0.0690357 0.329563
1.11928 0.1 0.0690357 0.32229
0 0.1 1.125 0.139344
0 0.1 -1.125 0.170383
0.411108 0.1 -1.05 0.163056
0.411108 0.1 1.05 0.130129
1.10076 0.1 0.244866 0.298342
1.10076 0.1 -0.244866 0.322267
1.11928 0.1 -0.138072 0.330071
1.11928 0.1 0.138072 0.315686
1.02149 0.1 0.480517 0.244154
1.02149 0.1 -0.480517 0.280296
1.0579 0.1 -0.396577 0.298661
1.0579 0.1 0.396577 0.265669
1.04168 0.1 -0.437497 0.290035
1.04168 0.1 0.437497 0.255224
0.150379 0.1 1.125 0.130577
0.150379 0.1 -1.125 0.161765
0.714971 0.1 0.88201 0.156895
1.08012 0.1 0.354971 0.27673
1.08012 0.1 -0.354971 0.308222
1.11928 0.1 -0.207107 0.328583
1.11928 0.1 0.207107 0.307287
0.350249 0.1 -1.0875 0.159266
0.350249 0.1 1.0875 0.126775
0 0.1 1.14299 0.137964
0 0.1 -1.14299 0.169236
0.0363518 0.1 1.14299 0.137964
0.0363518 0.1 -1.14299 0.169236
1.14316 0.1 -0.0339211 0.335583
1.14316 0.1 0.0339211 0.331682
0.797314 0.1 0.821002 0.168125
1.10076 0.1 -0.314829 0.317543
1.10076 0.1 0.314829 0.287698
0.797314 0.1 -0.825 0.205934
0.756814 0.1 -0.8625 0.198055
0.756814 0.1 0.8625 0.160336
1.14316 0.1 -0.101763 0.33698
1.14316 0.1 0.101763 0.325882
0.835106 0.1 -0.7875 0.214218
0.835106 0.1 0.7875 0.175472
0.871687 0.1 -0.75 0.222691
0.871687 0.1 0.75 0.183537
0.67013 0.1 0.9375 0.147472
0.67013 0.1 -0.9375 0.184052
0.90582 0.1 -0.7125 0.231612
0.905821 0.1 0.7125 0.192131
0.714971 0.1 -0.903998 0.191685
1.11928 0.1 0.276143 0.297272
1.11928 0.1 -0.276143 0.324839
1.14316 0.1 0.169605 0.318214
1.14316 0.1 -0.169605 0.336763
0.93886 0.1 -0.675 0.241361
0.93886 0.1 0.675 0.201499
1.15704 0.1 0 0.337238
1.0579 0.1 0.468682 0.252992
1.0579 0.1 -0.468682 0.290326
0.623803 0.1 0.975 0.141718
0.623803 0.1 -0.975 0.177748
0.990306 0.1 0.6 0.219172
0.990306 0.1 -0.6 0.258894
1.15704 0.1 -0.0671479 0.339978
1.15704 0.1 0.0671479 0.332257
1.04168 0.1 -0.510414 0.280971
1.04168 0.1 0.510414 0.24218
0.969689 0.1 -0.6375 0.251529
0.969689 0.1 0.6375 0.211279
1.08012 0.1 0.425965 0.264414
1.08012 0.1 -0.425965 0.300672
0.287374 0.1 -1.125 0.155125
0.287374 0.1 1.125 0.122963
1.02149 0.1 -0.554443 0.270594
1.02149 0.1 0.554443 0.230851
0.574156 0.1 1.0125 0.136295
0.574156 0.1 -1.0125 0.171755
1.15704 0.1 -0.134296 0.340644
1.15704 0.1 0.134296 0.32542
0.075776 0.1 1.1625 0.136471
0.075776 0.1 -1.1625 0.167995
1.10076 0.1 -0.384791 0.310828
1.10076 0.1 0.384791 0.275756
1.14316 0.1 -0.237448 0.334118
1.14316 0.1 0.237448 0.308821
1.11928 0.1 -0.345179 0.31912
1.11928 0.1 0.345179 0.285849
0.522865 0.1 1.05 0.131451
0.522865 0.1 -1.05 0.166405
1.15704 0.1 -0.201444 0.339324
1.15704 0.1 0.201444 0.316777
1.1744 0.1 -0.0331401 0.343926
1.1744 0.1 0.0331401 0.339768
1.1744 0.1 -0.0994202 0.345458
1.1744 0.1 0.0994202 0.333775
0 0.1 1.18201 0.134998
0 0.1 -1.18201 0.166731
0.0363518 0.1 1.18201 0.134998
0.0363518 0.1 -1.18201 0.166731
0.219992 0.1 1.1625 0.119318
0.219993 0.1 -1.1625 0.15113
1.14316 0.1 0.30529 0.297906
1.14316 0.1 -0.30529 0.32942
0.467897 0.1 1.0875 0.126878
0.467897 0.1 -1.0875 0.161295
1.1744 0.1 -0.1657 0.345418
1.1744 0.1 0.1657 0.325896
1.15704 0.1 -0.268592 0.335719
1.15704 0.1 0.268592 0.30651
1.0579 0.1 0.540787 0.239563
1.0579 0.1 -0.540787 0.280573
0.796996 0.1 0.88201 0.160013
1.08012 0.1 -0.496959 0.291562
1.08012 0.1 0.496959 0.251196
1.10076 0.1 0.454752 0.26276
1.10076 0.1 -0.454752 0.302408
1.11928 0.1 -0.414214 0.311521
1.11928 0.1 0.414214 0.273239
1.04168 0.1 -0.58333 0.270666
1.04168 0.1 0.58333 0.228523
1.1744 0.1 -0.231981 0.342971
1.1744 0.1 0.231981 0.316292
0.871687 0.1 0.821002 0.172748
0.411108 0.1 1.125 0.123587
0.411108 0.1 -1.125 0.157515
1.19808 0.1 1.73472e-17 0.348456
0.990306 0.1 0.675 0.205966
0.990306 0.1 -0.675 0.248386
1.02149 0.1 0.628368 0.217075
1.02149 0.1 -0.628368 0.259846
1.19808 0.1 -0.0650961 0.351472
1.19808 0.1 0.0650961 0.343217
0 0.1 1.2 0.133642
0 0.1 -1.2 0.165568
0.871687 0.1 -0.825 0.213333
0.905821 0.1 -0.7875 0.221833
0.90582 0.1 0.7875 0.180218
0.835106 0.1 -0.8625 0.205269
0.835106 0.1 0.8625 0.164833
0.93886 0.1 -0.75 0.23123
0.93886 0.1 0.75 0.189122
1.14316 0.1 -0.373132 0.322708
1.14316 0.1 0.373132 0.285675
0.969689 0.1 0.7125 0.198446
0.969689 0.1 -0.7125 0.241082
1.15704 0.1 -0.33574 0.33006
1.15704 0.1 0.33574 0.294823
0.756813 0.1 0.9375 0.150802
0.756814 0.1 -0.9375 0.189989
1.19808 0.1 0.130192 0.336121
1.19808 0.1 -0.130192 0.352348
0.797314 0.1 -0.903998 0.198341
0.714971 0.1 0.975 0.144713
0.714971 0.1 -0.975 0.183225
0.150379 0.1 1.2 0.124854
0.150379 0.1 -1.2 0.156932
1.20938 0.1 -0.0322656 0.353446
1.20938 0.1 0.0322656 0.349051
1.1744 0.1 -0.298261 0.338378
1.1744 0.1 0.298261 0.305164
1.20938 0.1 -0.0967968 0.355226
1.20938 0.1 0.0967968 0.342837
1.19808 0.1 -0.195288 0.351249
1.19808 0.1 0.195288 0.327219
0.350249 0.1 1.1625 0.120589
0.350249 0.1 -1.1625 0.154017
0.67013 0.1 1.0125 0.138995
0.67013 0.1 -1.0125 0.176806
0 0.1 1.21799 0.132286
0 0.1 -1.21799 0.164405
0.0363518 0.1 -1.21799 0.164405
0.0363518 0.1 1.21799 0.132286
1.11928 0.1 -0.48325 0.302279
1.11928 0.1 0.48325 0.2597
1.10076 0.1 -0.524714 0.292483
1.10076 0.1 0.524714 0.248982
1.20938 0.1 0.161328 0.33473
1.20938 0.1 -0.161328 0.355309
1.08012 0.1 0.567953 0.237333
1.08012 0.1 -0.567953 0.281138
0.623803 0.1 1.05 0.133716
0.623803 0.1 -1.05 0.170889
1.0579 0.1 -0.612892 0.269708
1.0579 0.1 0.612892 0.225628
1.15704 0.1 -0.402888 0.322461
1.15704 0.1 0.402888 0.281933
1.14316 0.1 0.440974 0.272364
1.14316 0.1 -0.440974 0.314186
1.19808 0.1 -0.260384 0.347873
1.19808 0.1 0.260384 0.316692
1.2267 0.1 3.57064e-18 0.355797
1.2267 0.1 -0.0636649 0.359016
1.2267 0.1 0.0636649 0.350378
1.1744 0.1 -0.364541 0.33175
1.1744 0.1 0.364541 0.292715
0.574156 0.1 1.0875 0.128751
0.574156 0.1 -1.0875 0.165269
1.20938 0.1 0.225859 0.324901
1.20938 0.1 -0.225859 0.353139
1.04168 0.1 -0.656246 0.259428
1.04168 0.1 0.656246 0.214506
1.2267 0.1 -0.12733 0.360053
1.2267 0.1 0.12733 0.343099
0.287374 0.1 1.2 0.117024
0.287374 0.1 -1.2 0.150064
1.02149 0.1 -0.702294 0.248374
1.02149 0.1 0.702294 0.203071
0.075776 0.1 -1.2375 0.163147
0.075776 0.1 1.2375 0.130819
0.871399 0.1 0.88201 0.163793
0.522865 0.1 1.125 0.124304
0.522865 0.1 -1.125 0.160224
1.2267 0.1 -0.190994 0.359118
1.2267 0.1 0.190994 0.334013
1.19808 0.1 -0.32548 0.34236
1.19808 0.1 0.32548 0.304742
0.990306 0.1 -0.75 0.2373
0.990306 0.1 0.75 0.192654
1.24274 0.1 -0.0314313 0.362338
1.24274 0.1 0.0314313 0.357726
1.20938 0.1 -0.29039 0.348685
1.20938 0.1 0.29039 0.313548
1.24274 0.1 -0.0942942 0.364407
1.24274 0.1 0.0942942 0.351286
0.93886 0.1 0.821002 0.177323
1.11928 0.1 -0.552285 0.291643
1.11928 0.1 0.552285 0.245489
1.15704 0.1 -0.470036 0.313129
1.15704 0.1 0.470036 0.268094
0.969689 0.1 -0.7875 0.230176
0.96969 0.1 0.7875 0.185553
0.93886 0.1 -0.825 0.220766
0.90582 0.1 0.8625 0.168422
0.905821 0.1 -0.8625 0.211818
1.1744 0.1 -0.430821 0.323231
1.1744 0.1 0.430821 0.279175
1.10076 0.1 -0.594676 0.281348
1.10076 0.1 0.594676 0.234666
1.14316 0.1 -0.508816 0.304084
1.14316 0.1 0.508816 0.258242
1.24274 0.1 -0.157157 0.364612
1.24274 0.1 0.157157 0.34295
1.2267 0.1 -0.254659 0.355921
1.2267 0.1 0.254659 0.323306
0.467897 0.1 1.1625 0.120113
0.467897 0.1 -1.1625 0.15541
1.08012 0.1 0.638947 0.223085
1.08012 0.1 -0.638947 0.269694
1.25511 0.1 -5.78241e-19 0.363089
0.835106 0.1 -0.9375 0.196218
0.835106 0.1 0.9375 0.154397
0.871687 0.1 -0.903998 0.204801
1.25511 0.1 0.0622446 0.357501
1.25511 0.1 -0.0622446 0.3665
0.219992 0.1 1.2375 0.113617
0.219992 0.1 -1.2375 0.146251
0 0.1 -1.25701 0.161877
0 0.1 1.25701 0.12938
0.0363518 0.1 -1.25701 0.161877
0.0363518 0.1 1.25701 0.12938
0.797314 0.1 0.975 0.147754
0.797314 0.1 -0.975 0.188856
1.19808 0.1 -0.390576 0.33485
1.19808 0.1 0.390576 0.291581
1.0579 0.1 -0.684997 0.258017
1.0579 0.1 0.684997 0.211458
1.20938 0.1 -0.354921 0.342198
1.20938 0.1 0.354921 0.30087
1.25511 0.1 0.124489 0.350049
1.25511 0.1 -0.124489 0.367699
1.24274 0.1 -0.220019 0.362731
1.24274 0.1 0.220019 0.3329
0.756813 0.1 1.0125 0.141486
0.756814 0.1 -1.0125 0.18187
1.2267 0.1 -0.318324 0.350537
1.2267 0.1 0.318324 0.311173
0.411108 0.1 1.2 0.117184
0.411108 0.1 -1.2 0.151938
1.25511 0.1 -0.186734 0.36692
1.25511 0.1 0.186734 0.340792
0.714971 0.1 1.05 0.135942
0.714971 0.1 -1.05 0.17555
1.04168 0.1 -0.729162 0.247568
1.04168 0.1 0.729162 0.200373
1.24274 0.1 0.282882 0.321323
1.24274 0.1 -0.282882 0.358444
0 0.1 1.275 0.128057
0 0.1 -1.275 0.160709
1.1744 0.1 0.497102 0.264811
1.1744 0.1 -0.497102 0.313064
1.15704 0.1 -0.537184 0.302325
1.15704 0.1 0.537184 0.253565
1.2756 0.1 -0.03061 0.370986
1.2756 0.1 0.03061 0.366182
0.67013 0.1 1.0875 0.13074
0.67013 0.1 -1.0875 0.169558
1.2756 0.1 -0.09183 0.373401
1.2756 0.1 0.09183 0.359502
1.25511 0.1 -0.248978 0.363898
1.25511 0.1 0.248978 0.329912
1.20938 0.1 0.419453 0.287092
1.20938 0.1 -0.419453 0.333727
1.11928 0.1 -0.621322 0.279901
1.11928 0.1 0.621322 0.230865
1.14316 0.1 -0.576659 0.292681
1.14316 0.1 0.576659 0.243555
1.19808 0.1 -0.455673 0.325514
1.19808 0.1 0.455673 0.277454
1.02149 0.1 0.776219 0.189077
1.02149 0.1 -0.776219 0.236452
0.150379 0.1 1.275 0.119238
0.150379 0.1 -1.275 0.152056
1.2756 0.1 -0.15305 0.373756
1.2756 0.1 0.15305 0.350939
1.2267 0.1 -0.381989 0.343121
1.2267 0.1 0.381989 0.297826
1.10076 0.1 -0.664638 0.269287
1.10076 0.1 0.664638 0.220092
0.350249 0.1 1.2375 0.114522
0.350249 0.1 -1.2375 0.148736
0.623803 0.1 1.125 0.125928
0.623803 0.1 -1.125 0.164027
0.9386 0.1 0.88201 0.167592
0.990306 0.1 0.825 0.179839
0.990306 0.1 -0.825 0.225893
1.24274 0.1 -0.345745 0.352129
1.24274 0.1 0.345745 0.30842
1.2906 0.1 0 0.372296
1.07933 0.1 0.709941 0.208702
1.2906 0.1 -0.0604698 0.376042
1.2906 0.1 0.0604698 0.366429
1.08012 0.1 -0.709941 0.257544
0 0.1 1.29299 0.126733
0 0.1 -1.29299 0.159541
1.25511 0.1 0.311223 0.317603
1.25511 0.1 -0.311223 0.358647
1.2756 0.1 -0.214269 0.372155
1.2756 0.1 0.214269 0.340667
0.0363518 0.1 1.29299 0.126733
0.0363518 0.1 -1.29299 0.159541
1.2906 0.1 -0.12094 0.37753
1.2906 0.1 0.12094 0.358691
0.574156 0.1 1.1625 0.121412
0.574157 0.1 -1.1625 0.158778
0.969689 0.1 0.8625 0.172892
0.969689 0.1 -0.8625 0.219049
1.0579 0.1 0.757102 0.197273
1.0579 0.1 -0.757102 0.245837
1.1744 0.1 -0.563382 0.301531
1.1744 0.1 0.563382 0.249874
1.20938 0.1 0.483984 0.272478
1.20938 0.1 -0.483984 0.323542
1.2906 0.1 -0.181409 0.377033
1.2906 0.1 0.181409 0.349154
0.93886 0.1 -0.903998 0.211279
0.90582 0.1 0.9375 0.156936
0.90582 0.1 -0.9375 0.201742
1.2756 0.1 0.275489 0.328867
1.2756 0.1 -0.275489 0.368091
1.2267 0.1 -0.445653 0.333825
1.2267 0.1 0.445653 0.283508
1.15704 0.1 -0.604332 0.290327
1.15704 0.1 0.604332 0.238595
1.19808 0.1 -0.520769 0.314616
1.19808 0.1 0.520769 0.262623
1.30646 0.1 0.0298385 0.373812
1.30646 0.1 -0.0298385 0.378832
0.287374 0.1 -1.275 0.144973
0.287374 0.1 1.275 0.111198
0.871687 0.1 0.975 0.150372
0.871687 0.1 -0.975 0.194255
1.24274 0.1 0.408607 0.294415
1.24274 0.1 -0.408607 0.343742
0.522865 0.1 1.2 0.117359
0.522865 0.1 -1.2 0.154052