# pMean  POINT_DATA 63840
# x  y  z  pMean
0 0.5 3.39583e-17 0.180646
0 0.5 -0.00617931 0.180756
0 0.5 0.00617931 0.180539
0.0124865 0.5 -0.00617931 0.180756
0.0124865 0.5 0.00617931 0.180539
0 0.5 -0.0688207 0.181625
0 0.5 0.0688207 0.179206
0.0124865 0.5 -0.0688207 0.181625
0.0124865 0.5 0.0688207 0.179206
0 0.5 -0.075 0.181687
0 0.5 0.075 0.179049
0 0.5 -0.0811793 0.181752
0 0.5 0.0811793 0.178896
0.0124865 0.5 -0.0811793 0.181752
0.0124865 0.5 0.0811793 0.178896
0.075776 0.5 -0.0375 0.181313
0.075776 0.5 0.0375 0.179999
0.075776 0.5 -0.1125 0.182081
0.075776 0.5 0.1125 0.178119
0 0.5 -0.143821 0.182169
0 0.5 0.143821 0.177112
0.0124865 0.5 -0.143821 0.182169
0.0124865 0.5 0.143821 0.177112
0 0.5 -0.15 0.182186
0 0.5 0.15 0.176912
0.151149 0.5 -0.00137318 0.180834
0 0.5 -0.156179 0.182207
0 0.5 0.156179 0.176716
0.0124865 0.5 -0.156179 0.182207
0.0124865 0.5 0.156179 0.176716
0.151149 0.5 0.075 0.179262
0.151149 0.5 -0.075 0.181942
0.075776 0.5 -0.1875 0.182311
0.075776 0.5 0.1875 0.175725
0.151149 0.5 0.15 0.177106
0.151149 0.5 -0.15 0.182448
0 0.5 -0.218821 0.182158
0 0.5 0.218821 0.174511
0.0124865 0.5 -0.218821 0.182158
0.0124865 0.5 0.218821 0.174511
0.219992 0.5 0.0375 0.180421
0.219993 0.5 -0.0375 0.181792
0 0.5 -0.225 0.182128
0 0.5 0.225 0.174271
0 0.5 -0.231179 0.182101
0 0.5 0.231179 0.174034
0.0124865 0.5 -0.231179 0.182101
0.0124865 0.5 0.231179 0.174034
0.219992 0.5 0.1125 0.178513
0.219993 0.5 -0.1125 0.182582
0.151149 0.5 -0.225 0.182392
0.151149 0.5 0.225 0.174436
0.075776 0.5 -0.2625 0.181965
0.075776 0.5 0.2625 0.172836
0.288069 0.5 -0.00137318 0.183995
0.219992 0.5 0.1875 0.176075
0.219993 0.5 -0.1875 0.182817
0 0.5 0.293821 0.171431
0 0.5 -0.293821 0.181591
0.0124865 0.5 -0.293821 0.181591
0.0124865 0.5 0.293821 0.171431
0.288069 0.5 -0.075 0.185175
0.288069 0.5 0.075 0.182352
0 0.5 -0.3 0.181517
0 0.5 0.3 0.171153
0 0.5 0.306179 0.170878
0 0.5 -0.306179 0.181446
0.0124865 0.5 -0.306179 0.181446
0.0124865 0.5 0.306179 0.170878
0.288069 0.5 -0.15 0.185681
0.288069 0.5 0.15 0.180061
0.151149 0.5 -0.3 0.181772
0.151149 0.5 0.3 0.171283
0.219992 0.5 -0.2625 0.182475
0.219992 0.5 0.2625 0.173118
0.075776 0.5 0.3375 0.169488
0.075776 0.5 -0.3375 0.181088
0.350249 0.5 -0.0375 0.187583
0.350249 0.5 0.0375 0.186124
0.288069 0.5 -0.225 0.185583
0.288069 0.5 0.225 0.177218
0.350249 0.5 0.1125 0.184023
0.350249 0.5 -0.1125 0.188402
0 0.5 0.368821 0.167909
0 0.5 -0.368821 0.180498
0.0124865 0.5 -0.368821 0.180498
0.0124865 0.5 0.368821 0.167909
0 0.5 -0.375 0.180381
0 0.5 0.375 0.167597
0 0.5 -0.381179 0.180267
0 0.5 0.381179 0.167287
0.0124865 0.5 -0.381179 0.180267
0.0124865 0.5 0.381179 0.167287
0.350249 0.5 -0.1875 0.188586
0.350249 0.5 0.1875 0.18132
0.219992 0.5 -0.3375 0.18156
0.219992 0.5 0.3375 0.169703
0.151149 0.5 -0.375 0.180616
0.151149 0.5 0.375 0.167689
0.411736 0.5 -0.00137318 0.190632
0.288069 0.5 -0.3 0.184873
0.288069 0.5 0.3 0.173859
0.411736 0.5 -0.075 0.191891
0.411736 0.5 0.075 0.188849
0.075776 0.5 -0.4125 0.179693
0.075776 0.5 0.4125 0.165723
0.350249 0.5 -0.2625 0.18812
0.350249 0.5 0.2625 0.178062
0.411736 0.5 -0.15 0.192384
0.411736 0.5 0.15 0.186322
0 0.5 -0.443821 0.1789
0 0.5 0.443821 0.163989
0.0124865 0.5 -0.443821 0.1789
0.0124865 0.5 0.443821 0.163989
0 0.5 -0.45 0.178743
0 0.5 0.45 0.163646
0 0.5 -0.456179 0.178589
0 0.5 0.456179 0.163305
0.0124865 0.5 -0.456179 0.178589
0.0124865 0.5 0.456179 0.163305
0.219992 0.5 -0.4125 0.180123
0.219993 0.5 0.4125 0.165861
0.411736 0.5 -0.225 0.192187
0.411736 0.5 0.225 0.18317
0.467897 0.5 0.0375 0.193568
0.467897 0.5 -0.0375 0.195153
0.288069 0.5 -0.375 0.183584
0.288069 0.5 0.375 0.170031
0.151149 0.5 -0.45 0.178953
0.151149 0.5 0.45 0.163697
0.467897 0.5 -0.1125 0.196003
0.467897 0.5 0.1125 0.19127
0.350249 0.5 0.3375 0.174279
0.350249 0.5 -0.3375 0.187015
0.075776 0.5 -0.4875 0.177812
0.075776 0.5 0.4875 0.161585
0.467897 0.5 -0.1875 0.196124
0.467897 0.5 0.1875 0.188279
0.411736 0.5 -0.3 0.191302
0.411736 0.5 0.3 0.179442
0 0.5 -0.518821 0.17683
0 0.5 0.518821 0.159714
0.0124865 0.5 0.518821 0.159714
0.0124865 0.5 -0.518821 0.17683
0.523432 0.5 -0.00137318 0.198848
0 0.5 -0.525 0.176636
0 0.5 0.525 0.159344
0.523432 0.5 -0.075 0.200206
0.523432 0.5 0.075 0.196891
0 0.5 -0.531179 0.176444
0 0.5 0.531179 0.158977
0.0124865 0.5 -0.531179 0.176444
0.0124865 0.5 0.531179 0.158977
0.288069 0.5 -0.45 0.181756
0.288069 0.5 0.45 0.165782
0.219992 0.5 -0.4875 0.178187
0.219993 0.5 0.4875 0.161642
0.467897 0.5 -0.2625 0.195503
0.467897 0.5 0.2625 0.184644
0.350249 0.5 -0.4125 0.185329
0.350249 0.5 0.4125 0.17003
0.523432 0.5 -0.15 0.200684
0.523432 0.5 0.15 0.194093
0.151149 0.5 -0.525 0.176815
0.151149 0.5 0.525 0.159353
0.411736 0.5 -0.375 0.189766
0.411736 0.5 0.375 0.175187
0.075776 0.5 -0.5625 0.175479
0.075776 0.5 0.5625 0.15712
0.523432 0.5 -0.225 0.200369
0.523432 0.5 0.225 0.190579
0.574156 0.5 -0.0375 0.20415
0.574156 0.5 0.0375 0.202412
0.467897 0.5 0.3375 0.180429
0.467897 0.5 -0.3375 0.194164
0.574156 0.5 -0.1125 0.205045
0.574156 0.5 0.1125 0.199859
0 0.5 -0.593821 0.174326
0 0.5 0.593821 0.155134
0.0124865 0.5 -0.593821 0.174326
0.0124865 0.5 0.593821 0.155134
0.288069 0.5 -0.525 0.179424
0.288069 0.5 0.525 0.161165
0 0.5 -0.6 0.174098
0 0.5 0.6 0.154741
0.350249 0.5 -0.4875 0.183092
0.350249 0.5 0.4875 0.16537
0.523432 0.5 -0.3 0.199275
0.523432 0.5 0.3 0.186409
0.219992 0.5 -0.5625 0.175792
0.219992 0.5 0.5625 0.157092
0.574156 0.5 -0.1875 0.205092
0.574156 0.5 0.1875 0.196523
0 0.5 -0.606179 0.173873
0 0.5 0.606179 0.15435
0.0124865 0.5 -0.606179 0.173873
0.0124865 0.5 0.606179 0.15435
0.411736 0.5 -0.45 0.187626
0.411736 0.5 0.45 0.170466
0.151149 0.5 -0.6 0.174243
0.151149 0.5 0.6 0.154705
0.62168 0.5 2.64545e-17 0.20806
0.467897 0.5 0.4125 0.175685
0.467897 0.5 -0.4125 0.192167
0.624316 0.5 0.0729402 0.20618
0.624316 0.5 -0.075 0.209824
0.574156 0.5 -0.2625 0.204293
0.574157 0.5 0.2625 0.192453
0.075776 0.5 -0.6375 0.172735
0.075776 0.5 0.6375 0.152378
0.624316 0.5 -0.15 0.210288
0.624316 0.5 0.15 0.203051
0.523432 0.5 -0.375 0.197445
0.523432 0.5 0.375 0.181647
0.350249 0.5 -0.5625 0.180351
0.350249 0.5 0.5625 0.160359
0.624316 0.5 -0.225 0.209843
0.624316 0.5 0.225 0.19911
0.288069 0.5 0.6 0.156234
0.288069 0.5 -0.6 0.176632
0.574156 0.5 -0.3375 0.202687
0.574156 0.5 0.3375 0.187718
0.411736 0.5 -0.525 0.184926
0.411736 0.5 0.525 0.165344
0 0.5 -0.668821 0.171429
0 0.5 0.668821 0.150297
0.0124865 0.5 -0.668821 0.171429
0.0124865 0.5 0.668821 0.150297
0.67013 0.5 0.0375 0.212415
0.67013 0.5 -0.0375 0.214332
0.219993 0.5 -0.6375 0.172977
0.219993 0.5 0.6375 0.152262
0 0.5 -0.675 0.17117
0 0.5 0.675 0.149885
0.467897 0.5 0.4875 0.170485
0.467897 0.5 -0.4875 0.189548
0.67013 0.5 -0.1125 0.215277
0.67013 0.5 0.1125 0.209558
0 0.5 -0.681179 0.170914
0 0.5 0.681179 0.149475
0.0124865 0.5 -0.681179 0.170914
0.0124865 0.5 0.681179 0.149475
0.523432 0.5 -0.45 0.194929
0.523432 0.5 0.45 0.176364
0.151149 0.5 -0.675 0.171276
0.151149 0.5 0.675 0.149803
0.624316 0.5 -0.3 0.208511
0.624316 0.5 0.3 0.19442
0.67013 0.5 0.1875 0.205808
0.67013 0.5 -0.1875 0.215246
0.574156 0.5 -0.4125 0.200325
0.574157 0.5 0.4125 0.182394
0.708171 0.5 1.88651e-17 0.217877
0.075776 0.5 -0.7125 0.169623
0.075776 0.5 0.7125 0.147408
0.715434 0.5 0.0736268 0.216227
0.715434 0.5 -0.075 0.22044
0.67013 0.5 0.2625 0.201219
0.67013 0.5 -0.2625 0.214256
0.350249 0.5 -0.6375 0.177157
0.350249 0.5 0.6375 0.155058
0.411736 0.5 -0.6 0.181722
0.411736 0.5 0.6 0.159888
0.624316 0.5 -0.375 0.206335
0.624316 0.5 0.375 0.189063
0.715434 0.5 -0.15 0.220893
0.715434 0.5 0.15 0.212898
0.467897 0.5 -0.5625 0.186369
0.467897 0.5 0.5625 0.1649
0.288069 0.5 -0.675 0.173428
0.288069 0.5 0.675 0.151048
0.523432 0.5 -0.525 0.191784
0.523432 0.5 0.525 0.17064
0 0.5 -0.743821 0.168181
0 0.5 0.743821 0.145252
0.0124865 0.5 -0.743821 0.168181
0.0124865 0.5 0.743821 0.145252
0.219992 0.5 0.7125 0.147203
0.219992 0.5 -0.7125 0.169786
0.715434 0.5 -0.225 0.220304
0.715434 0.5 0.225 0.208458
0 0.5 -0.75 0.167896
0 0.5 0.75 0.144825
0.67013 0.5 0.3375 0.195883
0.67013 0.5 -0.3375 0.212335
0.574156 0.5 -0.4875 0.197261
0.574156 0.5 0.4875 0.176564
0 0.5 -0.756179 0.167613
0 0.5 0.756179 0.144401
0.0124865 0.5 -0.756179 0.167613
0.0124865 0.5 0.756179 0.144401
0.756813 0.5 -0.0375 0.225329
0.756813 0.5 0.0375 0.223207
0.151149 0.5 -0.75 0.16796
0.151149 0.5 0.75 0.144698
0.756813 0.5 -0.1125 0.226335
0.756813 0.5 0.1125 0.220002
0.624316 0.5 -0.45 0.203376
0.624316 0.5 0.45 0.183125
0.715434 0.5 -0.3 0.218694
0.715434 0.5 0.3 0.203167
0.756813 0.5 0.1875 0.215777
0.756813 0.5 -0.1875 0.226229
0.67013 0.5 -0.4125 0.209537
0.67013 0.5 0.4125 0.189885
0.411736 0.5 -0.675 0.178072
0.411736 0.5 0.675 0.154166
0.467897 0.5 0.6375 0.159006
0.467897 0.5 -0.6375 0.182692
0.075776 0.5 -0.7875 0.166185
0.075776 0.5 0.7875 0.142258
0.350249 0.5 -0.7125 0.173564
0.350249 0.5 0.7125 0.149529
0.523432 0.5 -0.6 0.18808
0.523432 0.5 0.6 0.164555
0.797732 0.5 2.68882e-17 0.230051
0.756813 0.5 -0.2625 0.225006
0.756814 0.5 0.2625 0.210602
0.797732 0.5 0.0736268 0.227071
0.797732 0.5 -0.075 0.231693
0.288069 0.5 -0.75 0.169862
0.288069 0.5 0.75 0.14566
0.574156 0.5 -0.5625 0.19357
0.574157 0.5 0.5625 0.170316
0.715434 0.5 -0.375 0.216115
0.715434 0.5 0.375 0.197129
0.797732 0.5 -0.15 0.232144
0.797732 0.5 0.15 0.223279
0.624316 0.5 -0.525 0.199711
0.624316 0.5 0.525 0.176702
0.219992 0.5 -0.7875 0.166266
0.219992 0.5 0.7875 0.141964
0 0.5 -0.818821 0.164627
0 0.5 0.818821 0.140048
0.0124865 0.5 0.818821 0.140048
0.0124865 0.5 -0.818821 0.164627
0 0.5 -0.825 0.164319
0 0.5 0.825 0.13961
0.756813 0.5 0.3375 0.204572
0.756814 0.5 -0.3375 0.222715
0.67013 0.5 -0.4875 0.205951
0.67013 0.5 0.4875 0.18332
0.797732 0.5 -0.225 0.231397
0.797732 0.5 0.225 0.21828
0 0.5 -0.831179 0.164013
0 0.5 0.831179 0.139175
0.0124865 0.5 -0.831179 0.164013
0.0124865 0.5 0.831179 0.139175
0.835106 0.5 0.0375 0.234432
0.835106 0.5 -0.0375 0.236788
0.151149 0.5 -0.825 0.164339
0.151149 0.5 0.825 0.139437
0.835106 0.5 0.1125 0.230837
0.835106 0.5 -0.1125 0.237865
0.715434 0.5 -0.45 0.212648
0.715434 0.5 0.45 0.190446
0.797732 0.5 -0.3 0.229475
0.797732 0.5 0.3 0.21232
0.467897 0.5 0.7125 0.152877
0.467897 0.5 -0.7125 0.178584
0.523432 0.5 -0.675 0.183889
0.523432 0.5 0.675 0.158193
0.411736 0.5 -0.75 0.174038
0.411736 0.5 0.75 0.148246
0.835106 0.5 -0.1875 0.237692
0.835106 0.5 0.1875 0.226085
0.574156 0.5 -0.6375 0.189329
0.574157 0.5 0.6375 0.163741
0.350249 0.5 -0.7875 0.169629
0.350249 0.5 0.7875 0.143833
0.756813 0.5 -0.4125 0.219431
0.756814 0.5 0.4125 0.197815
0.075776 0.5 -0.8625 0.162468
0.075776 0.5 0.8625 0.136977
0.624316 0.5 0.6 0.169895
0.624316 0.5 -0.6 0.195423
0.872064 0.5 5.91974e-17 0.241547
0.870122 0.5 0.075 0.23789
0.288069 0.5 -0.825 0.165986
0.288069 0.5 0.825 0.140125
0.67013 0.5 -0.5625 0.20166
0.67013 0.5 0.5625 0.176307
0.872064 0.5 -0.075 0.24334
0.835106 0.5 -0.2625 0.236215
0.835106 0.5 0.2625 0.220264
0.797732 0.5 -0.375 0.226452
0.797732 0.5 0.375 0.205521
0.872064 0.5 0.14794 0.233972
0.872064 0.5 -0.15 0.243794
0.715434 0.5 -0.525 0.208384
0.715434 0.5 0.525 0.183231
0.219992 0.5 0.8625 0.136595
0.219993 0.5 -0.8625 0.162463
0 0.5 -0.893821 0.160812
0 0.5 0.893821 0.134732
0.0124865 0.5 -0.893821 0.160812
0.0124865 0.5 0.893821 0.134732
0 0.5 -0.9 0.160484
0 0.5 0.9 0.134287
0.756813 0.5 -0.4875 0.215253
0.756813 0.5 0.4875 0.190441
0.872064 0.5 -0.225 0.242884
0.872064 0.5 0.225 0.228362
0.835106 0.5 -0.3375 0.23353
0.835106 0.5 0.3375 0.213482
0 0.5 0.906179 0.133845
0 0.5 -0.906179 0.160158
0.0124865 0.5 -0.906179 0.160158
0.0124865 0.5 0.906179 0.133845
0.90582 0.5 -0.0375 0.248584
0.90582 0.5 0.0375 0.245978
0.151149 0.5 -0.9 0.16046
0.151149 0.5 0.9 0.134069
0.90582 0.5 -0.1125 0.249713
0.905821 0.5 0.1125 0.241957
0.523432 0.5 -0.75 0.179288
0.523432 0.5 0.75 0.151634
0.574156 0.5 -0.7125 0.184624
0.574156 0.5 0.7125 0.156928
0.797732 0.5 -0.45 0.222422
0.797732 0.5 0.45 0.198016
0.467897 0.5 0.7875 0.146584
0.467897 0.5 -0.7875 0.174114
0.624316 0.5 -0.675 0.190604
0.624316 0.5 0.675 0.162802
0.411736 0.5 -0.825 0.169683
0.411736 0.5 0.825 0.142192
0.872064 0.5 0.3 0.221674
0.872064 0.5 -0.3 0.240623
0.67013 0.5 -0.6375 0.196763
0.67013 0.5 0.6375 0.168953
0.90582 0.5 0.1875 0.236636
0.905821 0.5 -0.1875 0.249494
0.350249 0.5 -0.8625 0.165409
0.350249 0.5 0.8625 0.138027
0.835106 0.5 -0.4125 0.229719
0.835106 0.5 0.4125 0.205889
0.715434 0.5 -0.6 0.203427
0.715434 0.5 0.6 0.175607
0.939201 0.5 2.75387e-17 0.253075
0.075776 0.5 0.9375 0.131611
0.075776 0.5 -0.9375 0.158516
0.939111 0.5 0.075 0.24921
0.939201 0.5 -0.075 0.255029
0.756813 0.5 0.5625 0.182569
0.756814 0.5 -0.5625 0.210283
0.90582 0.5 0.2625 0.230111
0.905821 0.5 -0.2625 0.247731
0.288069 0.5 -0.9 0.16185
0.288069 0.5 0.9 0.134498
0.872064 0.5 -0.375 0.237118
0.872064 0.5 0.375 0.214047
0.939201 0.5 0.148627 0.244495
0.939201 0.5 -0.15 0.255507
0.797732 0.5 -0.525 0.217494
0.797732 0.5 0.525 0.189931
0.219992 0.5 0.9375 0.131146
0.219992 0.5 -0.9375 0.158423
0.939201 0.5 -0.225 0.254459
0.939201 0.5 0.225 0.238353
0.905821 0.5 -0.3375 0.244621
0.90582 0.5 0.3375 0.222517
0.835106 0.5 -0.4875 0.224894
0.835106 0.5 0.4875 0.197626
0 0.5 0.968821 0.129352
0 0.5 -0.968821 0.156779
0.0124865 0.5 -0.968821 0.156779
0.0124865 0.5 0.968821 0.129352
0.969689 0.5 -0.0375 0.260154
0.969689 0.5 0.0375 0.25724
0.574156 0.5 -0.7875 0.179538
0.574156 0.5 0.7875 0.149963
0 0.5 -0.975 0.156435
0 0.5 0.975 0.128905
0.624316 0.5 -0.75 0.185348
0.624316 0.5 0.75 0.15552
0.969689 0.5 -0.1125 0.261318
0.96969 0.5 0.1125 0.252748
0.523432 0.5 -0.825 0.174356
0.523432 0.5 0.825 0.144955
0.67013 0.5 0.7125 0.161364
0.67013 0.5 -0.7125 0.191363
0 0.5 -0.981179 0.156093
0 0.5 0.981179 0.12846
0.467897 0.5 0.8625 0.140197
0.467897 0.5 -0.8625 0.169352
0.0124865 0.5 -0.981179 0.156093
0.0124865 0.5 0.981179 0.12846
0.872064 0.5 -0.45 0.232471
0.872064 0.5 0.45 0.205644
0.715434 0.5 -0.675 0.197889
0.715434 0.5 0.675 0.167695
0.939201 0.5 -0.3 0.251842
0.939201 0.5 0.3 0.230891
0.151149 0.5 0.975 0.128646
0.151149 0.5 -0.975 0.156366
0.969689 0.5 -0.1875 0.261154
0.969689 0.5 0.1875 0.246821
0.756813 0.5 -0.6375 0.204643
0.756813 0.5 0.6375 0.174351
0.411736 0.5 -0.9 0.16507
0.411736 0.5 0.9 0.136066
0.90582 0.5 -0.4125 0.240227
0.90582 0.5 0.4125 0.214011
0.995005 0.5 0.0749309 0.259079
0.797732 0.5 -0.6 0.211795
0.797732 0.5 0.6 0.181417
1.00005 0.5 -8.47123e-18 0.264326
0.350249 0.5 -0.9375 0.160957
0.350249 0.5 0.9375 0.132166
1.00005 0.5 -0.0749309 0.266402
0.969689 0.5 -0.2625 0.259111
0.969689 0.5 0.2625 0.239554
0.835106 0.5 -0.5625 0.219185
0.835106 0.5 0.5625 0.188834
1.00005 0.5 -0.149862 0.266907
0.939201 0.5 -0.375 0.247828
0.939201 0.5 0.375 0.222392
1.00029 0.5 0.148988 0.254732
0.075776 0.5 -1.0125 0.15437
0.075776 0.5 1.0125 0.126212
0.288069 0.5 0.975 0.128829
0.288069 0.5 -0.975 0.157506
0.872064 0.5 -0.525 0.226818
0.872064 0.5 0.525 0.196626
1.00005 0.5 0.224793 0.247971
1.00005 0.5 -0.224793 0.265721
0.969689 0.5 0.3375 0.231116
0.96969 0.5 -0.3375 0.25557
1.0271 0.5 -0.0368226 0.27162
1.0271 0.5 0.0368226 0.268442
0.90582 0.5 0.4875 0.204795
0.905821 0.5 -0.4875 0.234693
1.0271 0.5 -0.110468 0.272732
1.0271 0.5 0.110468 0.262861
0.67013 0.5 0.7875 0.153641
0.67013 0.5 -0.7875 0.185565
0.624316 0.5 0.825 0.14814
0.624316 0.5 -0.825 0.17975
0.219993 0.5 -1.0125 0.154191
0.219993 0.5 1.0125 0.125672
0.574156 0.5 -0.8625 0.174157
0.574156 0.5 0.8625 0.142927
0.715434 0.5 -0.75 0.191888
0.715434 0.5 0.75 0.159608
0.756813 0.5 0.7125 0.165906
0.756814 0.5 -0.7125 0.198464
0.523432 0.5 -0.9 0.169165
0.523432 0.5 0.9 0.138228
0.939201 0.5 -0.45 0.242534
0.939201 0.5 0.45 0.213048
1.04168 0.5 0 0.273434
1.0271 0.5 -0.184113 0.272658
1.0271 0.5 0.184113 0.257074
0 0.5 -1.04382 0.15257
0 0.5 1.04382 0.123953
0.0124865 0.5 -1.04382 0.15257
0.0124865 0.5 1.04382 0.123953
1.00005 0.5 -0.299723 0.262685
1.00005 0.5 0.299723 0.239679
1.04168 0.5 -0.0729162 0.275598
1.04168 0.5 0.0729162 0.269308
0.797732 0.5 -0.675 0.205464
0.797732 0.5 0.675 0.172621
0.467897 0.5 0.9375 0.13378
0.467897 0.5 -0.9375 0.164365
0 0.5 -1.05 0.152213
0 0.5 1.05 0.123507
0.835106 0.5 -0.6375 0.21274
0.835106 0.5 0.6375 0.179696
1.04168 0.5 -0.145832 0.276138
1.04168 0.5 0.145832 0.263562
0.969689 0.5 -0.4125 0.250577
0.96969 0.5 0.4125 0.221689
0 0.5 -1.05618 0.151859
0 0.5 1.05618 0.123062
0.0124865 0.5 -1.05618 0.151859
0.0124865 0.5 1.05618 0.123062
1.05695 0.5 -0.0360764 0.278436
1.05695 0.5 0.0360764 0.275098
0.411736 0.5 -0.975 0.160257
0.411736 0.5 0.975 0.129924
0.872064 0.5 -0.6 0.220308
0.872064 0.5 0.6 0.187161
1.0271 0.5 -0.257759 0.270325
1.0271 0.5 0.257759 0.249134
0.151149 0.5 -1.05 0.152101
0.151149 0.5 1.05 0.123208
1.05695 0.5 0.108229 0.270616
1.05695 0.5 -0.108229 0.279518
1.04168 0.5 -0.218749 0.274991
1.04168 0.5 0.218749 0.256284
0.90582 0.5 -0.5625 0.228178
0.905821 0.5 0.5625 0.195029
1.00005 0.5 -0.374654 0.258111
1.00005 0.5 0.374654 0.23025
0.350249 0.5 1.0125 0.1263
0.350249 0.5 -1.0125 0.156327
1.05695 0.5 -0.180382 0.279532
1.05695 0.5 0.180382 0.263512
1.07319 0.5 0.0709442 0.275365
0.939201 0.5 -0.525 0.236126
0.939201 0.5 0.525 0.203048
1.0271 0.5 -0.331404 0.26638
1.0271 0.5 0.331404 0.239916
1.08112 0.5 3.23815e-17 0.282471
1.04168 0.5 -0.291665 0.271848
1.04168 0.5 0.291665 0.24762
1.08112 0.5 -0.0709442 0.284766
0.969689 0.5 -0.4875 0.244342
0.96969 0.5 0.4875 0.21149
1.05695 0.5 0.252535 0.255435
1.05695 0.5 -0.252535 0.277253
0.288069 0.5 -1.05 0.153
0.288069 0.5 1.05 0.123162
0.075776 0.5 -1.0875 0.150072
0.075776 0.5 1.0875 0.120814
1.08112 0.5 -0.141888 0.28536
1.08145 0.5 0.140165 0.271886
0.715434 0.5 0.825 0.151451
0.715434 0.5 -0.825 0.185538
0.756813 0.5 0.7875 0.157351
0.756814 0.5 -0.7875 0.191873
0.67013 0.5 -0.8625 0.179473
0.67013 0.5 0.8625 0.14588
0.797732 0.5 -0.75 0.198644
0.797732 0.5 0.75 0.16367
0.624316 0.5 -0.9 0.173901
0.624316 0.5 0.9 0.140745
1.00005 0.5 -0.449585 0.252109
1.00005 0.5 0.449585 0.2199
0.835106 0.5 -0.7125 0.205714
0.835106 0.5 0.7125 0.170352
0.574156 0.5 -0.9375 0.168561
0.574157 0.5 0.9375 0.135895
1.10076 0.5 -0.0349809 0.288937
1.10076 0.5 0.0349809 0.285362
1.08112 0.5 -0.212832 0.284289
1.08112 0.5 0.212832 0.2648
0.872064 0.5 -0.675 0.213111
0.872064 0.5 0.675 0.177422
1.04168 0.5 -0.364581 0.267099
1.04168 0.5 0.364581 0.237776
1.0271 0.5 0.405049 0.229628
1.0271 0.5 -0.405049 0.260853
1.05695 0.5 -0.324688 0.273313
1.05695 0.5 0.324688 0.24607
1.10076 0.5 -0.104943 0.290117
1.10076 0.5 0.104943 0.280154
0.523432 0.5 0.975 0.131519
0.523432 0.5 -0.975 0.16379
0.90582 0.5 0.6375 0.1849
0.905821 0.5 -0.6375 0.220837
0.219992 0.5 1.0875 0.120195
0.219992 0.5 -1.0875 0.149811
1.11376 0.5 3.81639e-17 0.290204
0.939201 0.5 0.6 0.192596
0.939201 0.5 -0.6 0.228773
1.10076 0.5 -0.174905 0.290198
1.10076 0.5 0.174905 0.273349
0.467897 0.5 -1.0125 0.159214
0.467897 0.5 1.0125 0.12739
1.11376 0.5 -0.0693118 0.292634
1.11376 0.5 0.0693118 0.285745
1.08112 0.5 0.283777 0.255929
1.08112 0.5 -0.283777 0.281218
0 0.5 -1.11882 0.148227
0 0.5 1.11882 0.118575
0.0124865 0.5 -1.11882 0.148227
0.0124865 0.5 1.11882 0.118575
0.969689 0.5 -0.5625 0.237017
0.969689 0.5 0.5625 0.200705
1.11376 0.5 0.138624 0.279103
1.11376 0.5 -0.138624 0.293291
0 0.5 -1.125 0.147862
0 0.5 1.125 0.118132
1.10076 0.5 0.244866 0.265016
1.10076 0.5 -0.244866 0.288064
0.411736 0.5 -1.05 0.155302
0.411736 0.5 1.05 0.123821
1.05695 0.5 -0.396841 0.267741
1.05695 0.5 0.396841 0.235619
1.00005 0.5 -0.524516 0.244866
1.00005 0.5 0.524516 0.208858
1.04168 0.5 -0.437497 0.260837
1.04168 0.5 0.437497 0.226971
0 0.5 -1.13118 0.147499
0 0.5 1.13118 0.117691
0.0124865 0.5 -1.13118 0.147499
0.0124865 0.5 1.13118 0.117691
1.11376 0.5 -0.207935 0.292282
1.11376 0.5 0.207935 0.271999
1.0271 0.5 -0.478694 0.253941
1.0271 0.5 0.478694 0.21851
0.151149 0.5 -1.125 0.14771
0.151149 0.5 1.125 0.117791
1.08112 0.5 -0.354722 0.276453
1.08112 0.5 0.354722 0.245855
1.13882 0.5 -0.0340295 0.298071
1.13882 0.5 0.0340295 0.294351
0.350249 0.5 -1.0875 0.15157
0.350249 0.5 1.0875 0.120472
1.13882 0.5 -0.102088 0.299428
1.13882 0.5 0.102088 0.289005
1.10076 0.5 -0.314829 0.284145
1.10076 0.5 0.314829 0.25537
0.756813 0.5 -0.8625 0.184989
0.756814 0.5 0.8625 0.148801
0.797732 0.5 -0.825 0.191472
0.797732 0.5 0.825 0.154691
1.11376 0.5 -0.277247 0.289258
1.11376 0.5 0.277247 0.262903
0.835106 0.5 0.7875 0.160929
0.835106 0.5 -0.7875 0.198263
0.715434 0.5 -0.9 0.178949
0.715434 0.5 0.9 0.143323
0.872064 0.5 -0.75 0.20541
0.872064 0.5 0.75 0.167554
1.13882 0.5 0.170147 0.281887
1.13882 0.5 -0.170147 0.299498
0.67013 0.5 -0.9375 0.173181
0.67013 0.5 0.9375 0.138165
0.905821 0.5 -0.7125 0.212896
0.905821 0.5 0.7125 0.174592
1.05695 0.5 0.468994 0.224316
1.05695 0.5 -0.468994 0.26074
0.939201 0.5 -0.675 0.220679
0.939201 0.5 0.675 0.181906
0.624316 0.5 0.975 0.133409
0.624316 0.5 -0.975 0.167884
1.04168 0.5 -0.510414 0.253256
1.04168 0.5 0.510414 0.21545
0.969689 0.5 -0.6375 0.228814
0.96969 0.5 0.6375 0.189611
0.288069 0.5 -1.125 0.148383
0.288069 0.5 1.125 0.117532
1.16179 0.5 5.78241e-19 0.302251
1.08112 0.5 0.425666 0.234794
1.08112 0.5 -0.425666 0.270117
1.13882 0.5 -0.238206 0.297442
1.13882 0.5 0.238206 0.273274
1.16179 0.5 0.0669104 0.298188
1.16179 0.5 -0.0669104 0.30487
0.574156 0.5 -1.0125 0.162824
0.574156 0.5 1.0125 0.12893
0.075776 0.5 -1.1625 0.145666
0.075776 0.5 1.1625 0.115462
1.00005 0.5 -0.599447 0.236601
1.00005 0.5 0.599447 0.197364
1.10076 0.5 0.384791 0.244607
1.10076 0.5 -0.384791 0.278536
1.0271 0.5 -0.55234 0.245822
1.0271 0.5 0.55234 0.206811
1.11376 0.5 -0.346559 0.284468
1.11376 0.5 0.346559 0.252579
1.16179 0.5 -0.133821 0.305629
1.16179 0.5 0.133821 0.291179
0.523432 0.5 -1.05 0.158294
0.523432 0.5 1.05 0.124889
1.17463 0.5 -0.0331343 0.307301
1.17463 0.5 0.0331343 0.303361
1.17463 0.5 -0.0994029 0.308726
1.17463 0.5 0.0994029 0.29774
1.16179 0.5 -0.200731 0.304691
1.16179 0.5 0.200731 0.283164
1.13882 0.5 -0.306265 0.293478
1.13882 0.5 0.306265 0.263308
0.219992 0.5 -1.1625 0.145332
0.219992 0.5 1.1625 0.114756
0.467897 0.5 -1.0875 0.15396
0.467897 0.5 1.0875 0.12109
1.17463 0.5 0.165672 0.290445
1.17463 0.5 -0.165672 0.308887
1.05695 0.5 -0.541147 0.252494
1.05695 0.5 0.541147 0.212414
1.18772 0.5 -5.78241e-19 0.308813
1.11376 0.5 -0.41587 0.278053
1.11376 0.5 0.41587 0.241241
1.18772 0.5 -0.065614 0.311559
1.18772 0.5 0.065614 0.303585
1.08112 0.5 -0.49661 0.262407
1.08112 0.5 0.49661 0.222989
1.10076 0.5 -0.454752 0.271415
1.10076 0.5 0.454752 0.232957
1.18534 0.5 0.118202 0.297417
1.16179 0.5 -0.267642 0.301678
1.16179 0.5 0.267642 0.273674
0 0.5 -1.19382 0.143793
0 0.5 1.19382 0.113252
0.0124865 0.5 1.19382 0.113252
0.0124865 0.5 -1.19382 0.143793
1.04168 0.5 -0.58333 0.244587
1.04168 0.5 0.58333 0.203456
1.18772 0.5 -0.131228 0.312389
1.17463 0.5 -0.23194 0.306913
1.17463 0.5 0.23194 0.281543
0.411736 0.5 -1.125 0.150258
0.411736 0.5 1.125 0.117802
1.13882 0.5 -0.374324 0.287775
1.13882 0.5 0.374324 0.25219
0 0.5 -1.2 0.143422
0 0.5 1.2 0.112816
0.905821 0.5 0.7875 0.16423
0.905821 0.5 -0.7875 0.204541
0.872064 0.5 -0.825 0.197368
0.872064 0.5 0.825 0.157701
0.835106 0.5 0.8625 0.151573
0.835106 0.5 -0.8625 0.190537
0.939201 0.5 -0.75 0.212058
0.939201 0.5 0.75 0.171129
0.797732 0.5 -0.9 0.184081
0.797732 0.5 0.9 0.145797
1.0271 0.5 0.625985 0.194767
1.0271 0.5 -0.625985 0.236791
0.969689 0.5 0.7125 0.17841
0.96969 0.5 -0.7125 0.219952
1.18772 0.5 -0.196842 0.311515
1.18772 0.5 0.196842 0.289223
0.756814 0.5 -0.9375 0.177937
0.756814 0.5 0.9375 0.14035
0 0.5 1.20618 0.11238
0 0.5 -1.20618 0.143054
1.00005 0.5 -0.674378 0.227561
1.00005 0.5 0.674378 0.185649
0.0124865 0.5 1.20618 0.11238
0.0124865 0.5 -1.20618 0.143054
1.16179 0.5 -0.334552 0.29679
1.16179 0.5 0.334552 0.262907
0.715434 0.5 0.975 0.135306
0.715434 0.5 -0.975 0.172221
0.151149 0.5 -1.2 0.143233
0.151149 0.5 1.2 0.112433
1.20942 0.5 0.0322645 0.312676
1.20942 0.5 -0.0322645 0.316804
1.17463 0.5 -0.298209 0.302897
1.17463 0.5 0.298209 0.271253
1.20942 0.5 -0.0967935 0.318389
1.20942 0.5 0.0967935 0.306858
0.350249 0.5 -1.1625 0.146737
0.350249 0.5 1.1625 0.114717
0.67013 0.5 1.0125 0.130567
0.67013 0.5 -1.0125 0.166775
1.11376 0.5 0.485183 0.229132
1.11376 0.5 -0.485183 0.270212
1.18772 0.5 0.262456 0.279518
1.18772 0.5 -0.262456 0.308539
1.10076 0.5 -0.524714 0.262999
1.10076 0.5 0.524714 0.220673
1.20942 0.5 -0.161322 0.318592
1.20942 0.5 0.161322 0.299325
1.08112 0.5 -0.567554 0.25355
1.08112 0.5 0.567554 0.210679
0.624316 0.5 -1.05 0.161779
0.624316 0.5 1.05 0.126197
1.13882 0.5 -0.442383 0.280478
1.13882 0.5 0.442383 0.240151
1.05695 0.5 0.6133 0.200138
1.05695 0.5 -0.6133 0.243277
1.16179 0.5 -0.401463 0.290191
1.16179 0.5 0.401463 0.251078
0.574156 0.5 -1.0875 0.157014
0.574156 0.5 1.0875 0.122092
1.17463 0.5 0.364477 0.259776
1.17463 0.5 -0.364477 0.297109
1.20942 0.5 -0.225851 0.316738
1.20942 0.5 0.225851 0.290156
1.23036 0.5 -1.32995e-17 0.320857
1.2294 0.5 0.0634819 0.31483
1.04168 0.5 -0.656246 0.235108
1.04168 0.5 0.656246 0.191213
1.23036 0.5 -0.0634819 0.323798
1.18772 0.5 0.32807 0.268513
1.18772 0.5 -0.32807 0.303623
0.288069 0.5 -1.2 0.143695
0.288069 0.5 1.2 0.111978
1.23036 0.5 -0.126964 0.324746
1.23036 0.5 0.126964 0.308964
0.075776 0.5 -1.2375 0.141192
0.075776 0.5 1.2375 0.110181
0.523432 0.5 -1.125 0.152739
0.523432 0.5 1.125 0.118391
1.0271 0.5 -0.69963 0.227088
1.0271 0.5 0.69963 0.182578
1.24274 0.5 0.0314313 0.322086
1.24274 0.5 -0.0314313 0.3264
1.20942 0.5 0.29038 0.279562
1.20942 0.5 -0.29038 0.312711
1.11376 0.5 -0.554494 0.261177
1.11376 0.5 0.554494 0.216496
1.23036 0.5 -0.190445 0.323963
1.23036 0.5 0.190445 0.300465
1.24274 0.5 -0.0942942 0.328149
1.24274 0.5 0.0942942 0.31605
1.13882 0.5 0.510442 0.227448
1.13882 0.5 -0.510442 0.271836
0.969689 0.5 -0.7875 0.210657
0.969689 0.5 0.7875 0.167202
1.00005 0.5 -0.749309 0.217981
1.00005 0.5 0.749309 0.173879
0.939201 0.5 -0.825 0.203108
0.939201 0.5 0.825 0.160428
0.90582 0.5 0.8625 0.153991
0.90582 0.5 -0.8625 0.195941
1.17463 0.5 -0.430746 0.289632
1.17463 0.5 0.430746 0.247341
1.10076 0.5 -0.594676 0.253527
1.10076 0.5 0.594676 0.207984
1.18772 0.5 -0.393684 0.296952
1.18772 0.5 0.393684 0.256421
1.24274 0.5 -0.157157 0.328408
1.24274 0.5 0.157157 0.308278
1.16179 0.5 -0.468373 0.282073
1.16179 0.5 0.468373 0.238434
0.467897 0.5 -1.1625 0.148656
0.467897 0.5 1.1625 0.114923
0.872064 0.5 -0.9 0.189136
0.872064 0.5 0.9 0.148002
1.25401 0.5 2.08167e-17 0.327332
0.835106 0.5 0.9375 0.142387
0.835106 0.5 -0.9375 0.182668
1.25401 0.5 -0.0622994 0.330411
1.25401 0.5 0.0622994 0.321886
1.08112 0.5 -0.638498 0.243814
1.08112 0.5 0.638498 0.198102
1.23036 0.5 -0.253927 0.321043
1.23036 0.5 0.253927 0.290411
0.219992 0.5 1.2375 0.109402
0.219992 0.5 -1.2375 0.140788
1.25309 0.5 0.121964 0.315133
1.05695 0.5 0.685452 0.187716
1.05695 0.5 -0.685452 0.233363
0.797732 0.5 0.975 0.137074
0.797732 0.5 -0.975 0.176589
1.25401 0.5 -0.124599 0.331446
1.20942 0.5 -0.354909 0.306866
1.20942 0.5 0.354909 0.267745
1.24274 0.5 -0.220019 0.326687
1.24274 0.5 0.220019 0.298837
0.756814 0.5 -1.0125 0.17081
0.756813 0.5 1.0125 0.132075
1.25401 0.5 -0.186898 0.330737
1.25401 0.5 0.186898 0.306452
0.411736 0.5 -1.2 0.145172
0.411736 0.5 1.2 0.111898
0 0.5 -1.26882 0.139304
0 0.5 1.26882 0.108016
0.0124865 0.5 1.26882 0.108016
0.0124865 0.5 -1.26882 0.139304
0.715434 0.5 -1.05 0.165442
0.715434 0.5 1.05 0.127469
1.23036 0.5 -0.31741 0.316077
1.23036 0.5 0.31741 0.279009
1.04168 0.5 -0.729162 0.225071
1.04168 0.5 0.729162 0.17892
1.18772 0.5 -0.459298 0.288706
1.18772 0.5 0.459298 0.24349
1.24274 0.5 -0.282882 0.322671
1.24274 0.5 0.282882 0.287938
0 0.5 -1.275 0.138931
0 0.5 1.275 0.107588
1.27472 0.5 -0.0306319 0.335994
1.27472 0.5 0.0306319 0.33153
1.17463 0.5 0.497015 0.234215
1.17463 0.5 -0.497015 0.280755
1.11376 0.5 -0.623806 0.251203
1.11376 0.5 0.623806 0.203581
1.13882 0.5 -0.578501 0.262083
1.13882 0.5 0.578501 0.214324
0.67013 0.5 -1.0875 0.160337
0.67013 0.5 1.0875 0.12315
1.27472 0.5 -0.0918959 0.33797
1.27472 0.5 0.0918959 0.323769
1.25401 0.5 -0.249197 0.327883
1.25401 0.5 0.249197 0.296196
1.16179 0.5 -0.535284 0.272691
1.16179 0.5 0.535284 0.225232
1.20942 0.5 -0.419438 0.29925
1.20942 0.5 0.419438 0.254933
0 0.5 -1.28118 0.138559
0 0.5 1.28118 0.107162
0.0124865 0.5 1.28118 0.107162
0.0124865 0.5 -1.28118 0.138559
1.27472 0.5 0.15316 0.317277
1.27472 0.5 -0.15316 0.338268
0.151149 0.5 -1.275 0.138704
0.151149 0.5 1.275 0.107167
1.0271 0.5 0.773275 0.170418
1.0271 0.5 -0.773275 0.216963
1.10076 0.5 0.664638 0.195154
1.10076 0.5 -0.664638 0.243276
0.350249 0.5 -1.2375 0.141862
0.350249 0.5 1.2375 0.109065
0.624316 0.5 -1.125 0.15565
0.624316 0.5 1.125 0.119166
1.23036 0.5 0.380892 0.266471
1.23036 0.5 -0.380892 0.309273
1.24274 0.5 -0.345745 0.316786
1.24274 0.5 0.345745 0.275779
1.2906 0.5 0 0.338742
1.2906 0.5 -0.0604698 0.342063
1.2906 0.5 0.0604698 0.333263
1.25401 0.5 -0.311497 0.322923
1.25401 0.5 0.311497 0.284567
1.27472 0.5 -0.214423 0.336661
1.27472 0.5 0.214423 0.307578
1.08112 0.5 0.709442 0.18548
1.08112 0.5 -0.709442 0.233474
1.00005 0.5 -0.824239 0.208094
1.00005 0.5 0.824239 0.162191
1.2906 0.5 -0.12094 0.343255
1.2906 0.5 0.12094 0.326017
0.574156 0.5 -1.1625 0.151189
0.574156 0.5 1.1625 0.115436
0.969689 0.5 -0.8625 0.201136
0.96969 0.5 0.8625 0.15623
1.18772 0.5 0.524912 0.229984
1.18772 0.5 -0.524912 0.279149
1.05695 0.5 -0.757605 0.223007
1.05695 0.5 0.757605 0.175345
0.939201 0.5 -0.9 0.194003
0.939201 0.5 0.9 0.149969
1.30091 0.5 -0.0299772 0.344202
1.30091 0.5 0.0299772 0.339596
1.20942 0.5 -0.483967 0.290154
1.20942 0.5 0.483967 0.241393
1.17463 0.5 -0.563284 0.270709
1.17463 0.5 0.563284 0.220649
1.2906 0.5 -0.181409 0.342674
1.2906 0.5 0.181409 0.317024
0.90582 0.5 0.9375 0.144005
0.90582 0.5 -0.9375 0.187236
1.30091 0.5 -0.0899316 0.346376
1.30091 0.5 0.0899316 0.330688
1.27472 0.5 0.275687 0.296384
1.27472 0.5 -0.275687 0.332699
0.288069 0.5 -1.275 0.138967
0.288069 0.5 1.275 0.106531
0.872064 0.5 -0.975 0.180847
0.872064 0.5 0.975 0.138551