# UMean  POINT_DATA 63140
# x  y  z  UMean_x  UMean_y  UMean_z
0 0.1 0 0.913545 0 0.406737
0 0.1 -0.0179898 0.913545 0 0.406737
0 0.1 0.0179898 0.913545 0 0.406737
0.0363518 0.1 0.0179898 0.91648 0.00722437 0.407613
0.0363518 0.1 -0.0179898 0.916459 0.00723424 0.407226
0 0.1 -0.0570102 0.913545 0 0.406737
0 0.1 0.0570102 0.913545 0 0.406737
0.0363518 0.1 0.0570102 0.91648 0.00722437 0.407613
0.0363518 0.1 -0.0570102 0.916459 0.00723424 0.407226
0 0.1 -0.075 0.913545 0 0.406737
0 0.1 0.075 0.913545 0 0.406737
0.075776 0.1 -0.0375 0.919663 0.0152015 0.407751
0.075776 0.1 0.0375 0.919708 0.0151813 0.408559
0 0.1 -0.0929898 0.913545 0 0.406737
0 0.1 0.0929898 0.913545 0 0.406737
0.0363518 0.1 -0.0929898 0.916415 0.00721829 0.406823
0.0363518 0.1 0.0929898 0.916473 0.00720461 0.407993
0 0.1 -0.13201 0.913545 0 0.406737
0 0.1 0.13201 0.913545 0 0.406737
0.075776 0.1 -0.1125 0.919571 0.0151688 0.40691
0.075776 0.1 0.1125 0.919693 0.0151411 0.409352
0.0363518 0.1 -0.13201 0.916415 0.00721829 0.406823
0.0363518 0.1 0.13201 0.916473 0.00720461 0.407993
0 0.1 -0.15 0.913545 0 0.406737
0 0.1 0.15 0.913545 0 0.406737
0.150379 0.1 -2.22623e-17 0.921495 0.0144969 0.408736
0 0.1 -0.16799 0.913545 0 0.406737
0 0.1 0.16799 0.913545 0 0.406737
0.150379 0.1 -0.075 0.921472 0.0144628 0.407337
0.150379 0.1 0.075 0.921591 0.0145007 0.410125
0.0363518 0.1 -0.16799 0.916352 0.00717695 0.406431
0.0363518 0.1 0.16799 0.916439 0.00716792 0.408357
0.075776 0.1 -0.1875 0.919441 0.0150849 0.406092
0.075776 0.1 0.1875 0.919625 0.0150666 0.410109
0 0.1 -0.20701 0.913545 0 0.406737
0 0.1 0.20701 0.913545 0 0.406737
0.0363518 0.1 -0.20701 0.916352 0.00717695 0.406431
0.0363518 0.1 0.20701 0.916439 0.00716792 0.408357
0.150379 0.1 -0.15 0.92157 0.0144027 0.405941
0.150379 0.1 0.15 0.921766 0.0144709 0.411481
0.219993 0.1 -0.0375 0.92318 0.0138101 0.408313
0.219993 0.1 0.0375 0.92327 0.013866 0.410269
0 0.1 -0.225 0.913545 0 0.406737
0 0.1 0.225 0.913545 0 0.406737
0 0.1 -0.24299 0.913545 0 0.406737
0 0.1 0.24299 0.913545 0 0.406737
0.0363518 0.1 0.24299 0.916395 0.00712499 0.408695
0.0363518 0.1 -0.24299 0.916296 0.00713882 0.406041
0.219993 0.1 -0.1125 0.923309 0.0137444 0.406374
0.219993 0.1 0.1125 0.923526 0.0138826 0.412213
0.150379 0.1 -0.225 0.921784 0.0143388 0.40455
0.150379 0.1 0.225 0.922023 0.0144106 0.412793
0.075776 0.1 -0.2625 0.919327 0.0150081 0.405278
0.075776 0.1 0.2625 0.919534 0.0149797 0.410814
0 0.1 -0.28201 0.913545 0 0.406737
0 0.1 0.28201 0.913545 0 0.406737
0.0363518 0.1 -0.28201 0.916296 0.00713882 0.406041
0.0363518 0.1 0.28201 0.916395 0.00712499 0.408695
0.287374 0.1 -2.89121e-19 0.920265 0.0133721 0.409541
0.219992 0.1 0.1875 0.924033 0.013859 0.414091
0.219992 0.1 -0.1875 0.923777 0.0136867 0.404438
0.287374 0.1 -0.075 0.920307 0.013326 0.407024
0.287374 0.1 0.075 0.920422 0.0134076 0.412051
0 0.1 -0.3 0.913545 0 0.406737
0 0.1 0.3 0.913545 0 0.406737
0 0.1 0.31799 0.913545 0 0.406737
0 0.1 -0.31799 0.913545 0 0.406737
0.0363518 0.1 -0.31799 0.916262 0.0071113 0.405675
0.0363518 0.1 0.31799 0.916356 0.0070874 0.409006
0.287374 0.1 0.15 0.920786 0.0134171 0.414524
0.287374 0.1 -0.15 0.920603 0.0132811 0.404514
0.150379 0.1 -0.3 0.922025 0.0142884 0.403197
0.150379 0.1 0.3 0.922305 0.0143323 0.414047
0.219993 0.1 0.2625 0.924683 0.0138012 0.415947
0.219993 0.1 -0.2625 0.924377 0.0136482 0.402493
0.075776 0.1 -0.3375 0.919259 0.0149522 0.404517
0.075776 0.1 0.3375 0.919457 0.0149033 0.411462
0.350249 0.1 -0.0375 0.917414 0.0129093 0.408245
0.350249 0.1 0.0375 0.91746 0.0129452 0.411312
0 0.1 -0.35701 0.913545 0 0.406737
0 0.1 0.35701 0.913545 0 0.406737
0.0363518 0.1 -0.35701 0.916262 0.0071113 0.405675
0.0363518 0.1 0.35701 0.916356 0.0070874 0.409006
0.287374 0.1 -0.225 0.921124 0.0132391 0.402017
0.287374 0.1 0.225 0.921358 0.0133889 0.416946
0.350249 0.1 -0.1125 0.917589 0.0128809 0.405189
0.350249 0.1 0.1125 0.9177 0.0129787 0.414341
0 0.1 -0.375 0.913545 0 0.406737
0 0.1 0.375 0.913545 0 0.406737
0 0.1 -0.39299 0.913545 0 0.406737
0 0.1 0.39299 0.913545 0 0.406737
0.0363518 0.1 -0.39299 0.916243 0.00708464 0.40534
0.0363518 0.1 0.39299 0.916331 0.00705244 0.409278
0.350249 0.1 -0.1875 0.918001 0.0128518 0.402133
0.350249 0.1 0.1875 0.918152 0.0129892 0.417332
0.219992 0.1 -0.3375 0.924894 0.0136166 0.400653
0.219992 0.1 0.3375 0.925296 0.0137088 0.417701
0.150379 0.1 0.375 0.92257 0.0142447 0.415213
0.150379 0.1 -0.375 0.922239 0.0142415 0.401935
0.411108 0.1 4.33681e-19 0.912477 0.0131925 0.409707
0.287374 0.1 -0.3 0.921733 0.0131916 0.399591
0.287374 0.1 0.3 0.922058 0.0133155 0.419286
0.411108 0.1 -0.075 0.912583 0.0131611 0.406005
0.411108 0.1 0.075 0.912626 0.0132241 0.413394
0.075776 0.1 -0.4125 0.919221 0.0148976 0.403818
0.075776 0.1 0.4125 0.919405 0.0148317 0.412029
0 0.1 0.43201 0.913545 0 0.406737
0 0.1 -0.43201 0.913545 0 0.406737
0.0363518 0.1 0.43201 0.916331 0.00705244 0.409278
0.0363518 0.1 -0.43201 0.916243 0.00708464 0.40534
0.411108 0.1 -0.15 0.912952 0.013128 0.402326
0.411108 0.1 0.15 0.913023 0.0132449 0.417029
0.350249 0.1 -0.2625 0.91861 0.0128092 0.399129
0.350249 0.1 0.2625 0.918833 0.0129464 0.420246
0 0.1 -0.45 0.913545 0 0.406737
0 0.1 0.45 0.913545 0 0.406737
0.219992 0.1 0.4125 0.925843 0.0136004 0.419348
0.219992 0.1 -0.4125 0.925314 0.01357 0.398953
0 0.1 -0.46799 0.913545 0 0.406737
0 0.1 0.46799 0.913545 0 0.406737
0.411108 0.1 -0.225 0.913571 0.0130831 0.398718
0.411108 0.1 0.225 0.913681 0.0132314 0.420579
0.467897 0.1 -0.0375 0.90772 0.01343 0.407475
0.467897 0.1 0.0375 0.907727 0.0134604 0.411799
0.0363518 0.1 0.46799 0.916312 0.00702448 0.409509
0.0363518 0.1 -0.46799 0.916236 0.00705914 0.405037
0.287374 0.1 -0.375 0.922323 0.0131249 0.397312
0.287374 0.1 0.375 0.922796 0.0132043 0.421487
0.150379 0.1 0.45 0.922819 0.0141597 0.416265
0.150379 0.1 -0.45 0.922439 0.0141892 0.400774
0.467897 0.1 0.1125 0.908029 0.0134872 0.416076
0.467897 0.1 -0.1125 0.908018 0.0133994 0.403169
0.350249 0.1 -0.3375 0.919313 0.0127329 0.396259
0.350249 0.1 0.3375 0.919685 0.0128458 0.423038
0.075776 0.1 -0.4875 0.919208 0.0148456 0.403187
0.075776 0.1 0.4875 0.919368 0.0147747 0.412512
0.467897 0.1 0.1875 0.90862 0.0135 0.420268
0.467897 0.1 -0.1875 0.908605 0.0133555 0.398923
0 0.1 -0.50701 0.913545 0 0.406737
0 0.1 0.50701 0.913545 0 0.406737
0.0363518 0.1 -0.50701 0.916236 0.00705914 0.405037
0.0363518 0.1 0.50701 0.916312 0.00702448 0.409509
0.411108 0.1 0.3 0.914594 0.0131625 0.423999
0.411108 0.1 -0.3 0.914382 0.0130108 0.395249
0.522865 0.1 1.41031e-17 0.901442 0.0140525 0.409267
0 0.1 -0.525 0.913545 0 0.406737
0 0.1 0.525 0.913545 0 0.406737
0.522865 0.1 -0.075 0.901646 0.014014 0.404284
0.522865 0.1 0.075 0.901601 0.0140788 0.414244
0.287374 0.1 0.45 0.923533 0.0130687 0.4235
0.287374 0.1 -0.45 0.922894 0.0130362 0.395213
0.219992 0.1 0.4875 0.926353 0.0134994 0.420809
0.219992 0.1 -0.4875 0.925727 0.0135143 0.397386
0.467897 0.1 -0.2625 0.909464 0.0132921 0.394842
0.467897 0.1 0.2625 0.909521 0.0134652 0.424325
0.350249 0.1 -0.4125 0.920023 0.0126232 0.393597
0.350249 0.1 0.4125 0.920609 0.0127037 0.425607
0 0.1 -0.54299 0.913545 0 0.406737
0 0.1 0.54299 0.913545 0 0.406737
0.522865 0.1 0.15 0.902114 0.0140887 0.419146
0.522865 0.1 -0.15 0.902205 0.0139586 0.399369
0.0363518 0.1 0.54299 0.916308 0.00700133 0.409716
0.0363518 0.1 -0.54299 0.916244 0.00703842 0.404758
0.150379 0.1 -0.525 0.922632 0.0141343 0.39972
0.150379 0.1 0.525 0.92304 0.0140822 0.417167
0.411108 0.1 -0.375 0.9153 0.0128988 0.391993
0.411108 0.1 0.375 0.915701 0.0130386 0.427217
0.075776 0.1 -0.5625 0.919224 0.0148033 0.402606
0.075776 0.1 0.5625 0.919358 0.0147276 0.412943
0.522865 0.1 -0.225 0.903097 0.0138778 0.39461
0.522865 0.1 0.225 0.902984 0.0140654 0.423912
0.574156 0.1 0.0375 0.895381 0.0146509 0.411735
0.574157 0.1 -0.0375 0.89543 0.0146161 0.406085
0.467897 0.1 -0.3375 0.910525 0.0131863 0.390965
0.467897 0.1 0.3375 0.910725 0.0133677 0.428196
0 0.1 -0.58201 0.913545 0 0.406737
0 0.1 0.58201 0.913545 0 0.406737
0.0363518 0.1 -0.58201 0.916244 0.00703842 0.404758
0.0363518 0.1 0.58201 0.916308 0.00700133 0.409716
0.574157 0.1 -0.1125 0.8959 0.0145587 0.400486
0.574157 0.1 0.1125 0.895754 0.0146642 0.417341
0.287374 0.1 -0.525 0.923443 0.012929 0.393317
0.287374 0.1 0.525 0.924228 0.0129175 0.42527
0 0.1 -0.6 0.913545 0 0.406737
0 0.1 0.6 0.913545 0 0.406737
0.350249 0.1 0.4875 0.921559 0.0125158 0.427941
0.350249 0.1 -0.4875 0.920748 0.0124838 0.39117
0.522865 0.1 -0.3 0.904275 0.0137585 0.390086
0.522865 0.1 0.3 0.904217 0.0139867 0.428484
0.219992 0.1 -0.5625 0.926064 0.0134456 0.39599
0.219992 0.1 0.5625 0.926755 0.0133968 0.422001
0.574156 0.1 -0.1875 0.896772 0.0144704 0.395026
0.574156 0.1 0.1875 0.896535 0.0146516 0.422823
0.411108 0.1 0.45 0.916924 0.0128628 0.43017
0.411108 0.1 -0.45 0.916274 0.0127496 0.389009
0 0.1 -0.61799 0.913545 0 0.406737
0 0.1 0.61799 0.913545 0 0.406737
0.150379 0.1 -0.6 0.92281 0.0140758 0.39878
0.150379 0.1 0.6 0.92324 0.014005 0.417918
0.0363518 0.1 -0.61799 0.91626 0.00701739 0.404504
0.0363518 0.1 0.61799 0.916315 0.0069767 0.4099
0.467897 0.1 -0.4125 0.911704 0.0130319 0.387391
0.467897 0.1 0.4125 0.912156 0.0132125 0.43179
0.623803 0.1 2.34188e-17 0.888118 0.0155273 0.408291
0.623803 0.1 0.075 0.888277 0.0155536 0.414627
0.623803 0.1 -0.075 0.888462 0.0154658 0.401974
0.574156 0.1 0.2625 0.897732 0.014594 0.428109
0.574156 0.1 -0.2625 0.89801 0.014345 0.389824
0.623803 0.1 0.15 0.888933 0.0155444 0.420877
0.623803 0.1 -0.15 0.889292 0.0153651 0.395787
0.075776 0.1 0.6375 0.919373 0.0146775 0.413325
0.075776 0.1 -0.6375 0.919257 0.0147603 0.402077
0.522865 0.1 -0.375 0.905666 0.0135879 0.38587
0.522865 0.1 0.375 0.905779 0.0138441 0.432788
0 0.1 0.65701 0.913545 0 0.406737
0 0.1 -0.65701 0.913545 0 0.406737
0.0363518 0.1 0.65701 0.916315 0.0069767 0.4099
0.0363518 0.1 -0.65701 0.91626 0.00701739 0.404504
0.350249 0.1 0.5625 0.922456 0.0123067 0.429995
0.350249 0.1 -0.5625 0.921455 0.0123226 0.389012
0.623803 0.1 0.225 0.890076 0.0154922 0.426945
0.623803 0.1 -0.225 0.890575 0.0152175 0.389842
0.287374 0.1 -0.6 0.923963 0.0128088 0.391643
0.287374 0.1 0.6 0.924864 0.01276 0.426767
0.574157 0.1 -0.3375 0.899545 0.0141653 0.384927
0.574157 0.1 0.3375 0.899348 0.0144703 0.433136
0.411108 0.1 0.525 0.918185 0.0126434 0.43282
0.411108 0.1 -0.525 0.917282 0.0125704 0.38633
0.67013 0.1 0.0375 0.881025 0.016411 0.41121
0.67013 0.1 -0.0375 0.881161 0.0163588 0.404176
0.219992 0.1 -0.6375 0.926376 0.0133671 0.394769
0.219993 0.1 0.6375 0.927127 0.0132905 0.422969
0 0.1 -0.675 0.913545 0 0.406737
0 0.1 0.675 0.913545 0 0.406737
0.467897 0.1 -0.4875 0.912966 0.0128404 0.384154
0.467897 0.1 0.4875 0.91372 0.0129956 0.435063
0.67013 0.1 -0.1125 0.881874 0.0162588 0.397243
0.67013 0.1 0.1125 0.881473 0.0164157 0.418216
0.522865 0.1 0.45 0.907592 0.0136356 0.436749
0.522865 0.1 -0.45 0.90721 0.01337 0.382036
0.150379 0.1 0.675 0.923442 0.0139259 0.418539
0.150379 0.1 -0.675 0.922993 0.014014 0.39795
0.623803 0.1 0.3 0.891706 0.0153799 0.43275
0.623803 0.1 -0.3 0.892251 0.0150144 0.384233
0 0.1 -0.69299 0.913545 0 0.406737
0 0.1 0.69299 0.913545 0 0.406737
0.0363518 0.1 -0.69299 0.916277 0.00699641 0.404279
0.0363518 0.1 0.69299 0.916327 0.0069524 0.410055
0.67013 0.1 -0.1875 0.883131 0.0161036 0.390535
0.67013 0.1 0.1875 0.882488 0.0163745 0.425072
0.574156 0.1 0.4125 0.901329 0.0142774 0.437813
0.574157 0.1 -0.4125 0.901315 0.0139257 0.380451
0.714971 0.1 -2.8382e-17 0.873052 0.0175374 0.406864
0.075776 0.1 -0.7125 0.919292 0.0147174 0.401609
0.075776 0.1 0.7125 0.919398 0.014628 0.413647
0.714971 0.1 -0.075 0.873583 0.0174361 0.399162
0.714971 0.1 0.075 0.873195 0.0175757 0.414624
0.67013 0.1 0.2625 0.884057 0.0162783 0.431668
0.67013 0.1 -0.2625 0.884878 0.0158851 0.384165
0.411108 0.1 -0.6 0.918307 0.012372 0.383976
0.411108 0.1 0.6 0.91943 0.0124023 0.435126
0.350249 0.1 0.6375 0.923306 0.0120993 0.431733
0.350249 0.1 -0.6375 0.922162 0.0121545 0.387123
0.623803 0.1 0.375 0.893796 0.0151947 0.438206
0.623803 0.1 -0.375 0.894255 0.0147502 0.379055
0.714971 0.1 -0.15 0.874761 0.0172681 0.391655
0.714971 0.1 0.15 0.874008 0.0175513 0.422298
0.467897 0.1 -0.5625 0.914278 0.0126183 0.381291
0.467897 0.1 0.5625 0.915326 0.0127335 0.437967
0 0.1 -0.73201 0.913545 0 0.406737
0 0.1 0.73201 0.913545 0 0.406737
0.0363518 0.1 0.73201 0.916327 0.0069524 0.410055
0.0363518 0.1 -0.73201 0.916277 0.00699641 0.404279
0.287374 0.1 -0.675 0.924487 0.0126823 0.390185
0.287374 0.1 0.675 0.925478 0.0126019 0.428005
0.522865 0.1 -0.525 0.90886 0.0131162 0.378622
0.522865 0.1 0.525 0.909557 0.0133662 0.440314
0.219993 0.1 -0.7125 0.926714 0.0132859 0.393699
0.219992 0.1 0.7125 0.927508 0.0131829 0.423756
0.714971 0.1 -0.225 0.876538 0.0170254 0.384477
0.714971 0.1 0.225 0.875472 0.0174635 0.429748
0 0.1 0.75 0.913545 0 0.406737
0 0.1 -0.75 0.913545 0 0.406737
0.67013 0.1 -0.3375 0.887043 0.0156 0.378239
0.67013 0.1 0.3375 0.886178 0.0161081 0.437935
0.574156 0.1 -0.4875 0.903254 0.0136433 0.376435
0.574157 0.1 0.4875 0.90358 0.0140104 0.442075
0.756813 0.1 0.0375 0.865149 0.0186904 0.410299
0.756814 0.1 -0.0375 0.865404 0.0186029 0.401823
0.150379 0.1 0.746002 0.923565 0.0138644 0.418922
0.150379 0.1 -0.75 0.923186 0.0139514 0.39723
0.756813 0.1 -0.1125 0.866417 0.0184394 0.393504
0.756813 0.1 0.1125 0.865665 0.0186983 0.418776
0 0.1 0.76799 0.913545 0 0.406737
0 0.1 -0.76799 0.913545 0 0.406737
0.0363518 0.1 0.76799 0.916339 0.00693151 0.410178
0.0363518 0.1 -0.76799 0.916293 0.00697779 0.404086
0.623803 0.1 -0.45 0.896514 0.0144316 0.374386
0.623803 0.1 0.45 0.896271 0.0149334 0.443228
0.714971 0.1 -0.3 0.878848 0.0167081 0.377762
0.714971 0.1 0.3 0.87757 0.017302 0.436866
0.756814 0.1 -0.1875 0.868132 0.018189 0.385484
0.756814 0.1 0.1875 0.866934 0.0186299 0.427083
0.67013 0.1 -0.4125 0.889563 0.0152518 0.372861
0.67013 0.1 0.4125 0.888799 0.015856 0.443744
0.411108 0.1 0.675 0.92065 0.0121544 0.437061
0.411108 0.1 -0.675 0.919351 0.0121629 0.381949
0.467897 0.1 0.6375 0.916922 0.0124504 0.440458
0.467897 0.1 -0.6375 0.915627 0.0123787 0.378811
0.075776 0.1 0.7875 0.919424 0.0145854 0.413904
0.075776 0.1 -0.7875 0.919325 0.0146795 0.401206
0.350249 0.1 -0.7125 0.922883 0.01198 0.3855
0.350249 0.1 0.7125 0.924138 0.0118927 0.433159
0.522865 0.1 -0.6 0.910582 0.0128364 0.375651
0.522865 0.1 0.6 0.911585 0.0130542 0.44343
0.797314 0.1 -3.59473e-17 0.856705 0.0201114 0.405069
0.287374 0.1 0.746002 0.926089 0.0124617 0.428868
0.797314 0.1 -0.075 0.857475 0.0199484 0.395929
0.797314 0.1 0.075 0.856806 0.0201779 0.414313
0.756814 0.1 -0.2625 0.870506 0.0178458 0.377911
0.756814 0.1 0.2625 0.868924 0.0184856 0.435078
0.287374 0.1 -0.75 0.925027 0.0125512 0.388939
0.574156 0.1 -0.5625 0.905314 0.0133276 0.37292
0.574156 0.1 0.5625 0.905989 0.0136813 0.445858
0 0.1 0.80701 0.913545 0 0.406737
0 0.1 -0.80701 0.913545 0 0.406737
0.714971 0.1 -0.375 0.88161 0.016321 0.371617
0.714971 0.1 0.375 0.88027 0.0170546 0.443547
0.0363518 0.1 0.80701 0.916339 0.00693151 0.410178
0.0363518 0.1 -0.80701 0.916293 0.00697779 0.404086
0.797314 0.1 -0.15 0.859069 0.019684 0.387052
0.797314 0.1 0.15 0.857778 0.0201469 0.423476
0.623803 0.1 -0.525 0.898958 0.0140723 0.370273
0.623803 0.1 0.525 0.899027 0.0145987 0.447748
0.219992 0.1 0.7875 0.927901 0.013072 0.424372
0.219992 0.1 -0.7875 0.927065 0.0131998 0.392786
0.149792 0.1 0.80701 0.923805 0.0137911 0.419333
0 0.1 0.825 0.913545 0 0.406737
0 0.1 -0.825 0.913545 0 0.406737
0.797314 0.1 -0.225 0.861443 0.0193136 0.378605
0.797314 0.1 0.225 0.859592 0.0200209 0.432382
0.756813 0.1 -0.3375 0.873437 0.0174279 0.370955
0.756813 0.1 0.3375 0.871619 0.0182525 0.442643
0.67013 0.1 0.4875 0.891821 0.0155254 0.449044
0.67013 0.1 -0.4875 0.89234 0.0148517 0.368087
0.835106 0.1 -0.0375 0.848601 0.0214536 0.399121
0.835106 0.1 0.0375 0.848181 0.0215979 0.409094
0.150379 0.1 -0.825 0.92338 0.0138895 0.396623
0.835106 0.1 -0.1125 0.849984 0.0211994 0.389369
0.835106 0.1 0.1125 0.848747 0.0216233 0.419095
0 0.1 -0.84299 0.913545 0 0.406737
0 0.1 0.84299 0.913545 0 0.406737
0.0363518 0.1 -0.84299 0.916305 0.0069617 0.403925
0.0363518 0.1 0.84299 0.916349 0.00691403 0.410267
0.714971 0.1 -0.45 0.88473 0.0158728 0.366124
0.714971 0.1 0.45 0.883492 0.0167185 0.449684
0.411108 0.1 0.746002 0.921843 0.0119129 0.438472
0.797314 0.1 -0.3 0.864517 0.0188501 0.370764
0.797314 0.1 0.3 0.862212 0.0197956 0.44088
0.467897 0.1 -0.7125 0.917 0.0121278 0.376718
0.467897 0.1 0.7125 0.918492 0.0121596 0.442516
0.522865 0.1 0.675 0.91362 0.0127193 0.446062
0.522865 0.1 -0.675 0.912348 0.0125406 0.373132
0.411108 0.1 -0.75 0.92041 0.0119466 0.380247
0.835106 0.1 -0.1875 0.852238 0.0208136 0.379996
0.835107 0.1 0.1875 0.85028 0.0215343 0.428914
0.286844 0.1 0.80701 0.926559 0.0123204 0.429598
0.574156 0.1 0.6375 0.908459 0.0133107 0.449113
0.574157 0.1 -0.6375 0.907451 0.0129897 0.369919
0.350249 0.1 -0.7875 0.923615 0.0118015 0.384143
0.350249 0.1 0.7875 0.924962 0.0116827 0.434286
0.756813 0.1 -0.4125 0.876838 0.0169355 0.364672
0.756814 0.1 0.4125 0.87496 0.0179206 0.449685
0.623803 0.1 -0.6 0.90153 0.0136843 0.366741
0.623803 0.1 0.6 0.90195 0.0142024 0.4517
0.075776 0.1 0.8625 0.919445 0.0145499 0.41409
0.075776 0.1 -0.8625 0.919351 0.0146467 0.40087
0.871687 0.1 -3.2767e-18 0.839516 0.0231996 0.402974
0.287374 0.1 -0.825 0.925573 0.0124166 0.387903
0.871687 0.1 -0.075 0.840562 0.0229477 0.392353
0.871687 0.1 0.075 0.839558 0.0233153 0.41375
0.67013 0.1 -0.5625 0.89531 0.0144173 0.363961
0.67013 0.1 0.5625 0.895133 0.0151159 0.453743
0.835106 0.1 0.2625 0.852733 0.021333 0.438375
0.835106 0.1 -0.2625 0.855371 0.020316 0.371214
0.797314 0.1 -0.375 0.868173 0.0183044 0.363642
0.797314 0.1 0.375 0.865595 0.0194632 0.448847
0 0.1 -0.88201 0.913545 0 0.406737
0 0.1 0.88201 0.913545 0 0.406737
0.0363518 0.1 0.88201 0.916349 0.00691403 0.410267
0.0363518 0.1 -0.88201 0.916305 0.0069617 0.403925
0.871687 0.1 0.15 0.840687 0.0232888 0.424453
0.871687 0.1 -0.15 0.842622 0.0225547 0.382073
0.714971 0.1 0.525 0.887126 0.0162969 0.455194
0.714971 0.1 -0.525 0.888117 0.0153799 0.361341
0.219993 0.1 0.8625 0.928291 0.0129585 0.424835
0.219992 0.1 -0.8625 0.927418 0.0131112 0.392029
0 0.1 0.9 0.913545 0 0.406737
0 0.1 -0.9 0.913545 0 0.406737
0.756813 0.1 0.4875 0.878839 0.017494 0.456044
0.756814 0.1 -0.4875 0.880591 0.0163885 0.35916
0.871687 0.1 0.225 0.842867 0.0231245 0.434872
0.871687 0.1 -0.225 0.845664 0.0220226 0.37233
0.835106 0.1 -0.3375 0.859202 0.0197259 0.363192
0.835106 0.1 0.3375 0.856058 0.0210129 0.447302
0.41063 0.1 0.80701 0.922761 0.0117105 0.439576
0.90582 0.1 -0.0375 0.831177 0.024706 0.396113
0.905821 0.1 0.0375 0.830585 0.0249358 0.407627
0.522865 0.1 0.746002 0.915606 0.0123838 0.44802
0.150379 0.1 0.9 0.924069 0.0136977 0.419693
0.90582 0.1 0.1125 0.831199 0.0249972 0.419198
0.905821 0.1 -0.1125 0.832956 0.0243294 0.384909
0.522865 0.1 -0.75 0.914132 0.0122354 0.371063
0.574156 0.1 0.7125 0.910927 0.0129195 0.45181
0.574156 0.1 -0.7125 0.909626 0.0126391 0.367437
0.797314 0.1 -0.45 0.872299 0.0176884 0.357331
0.797314 0.1 0.45 0.869651 0.0190233 0.45615
0.467897 0.1 -0.7875 0.91838 0.0118698 0.375003
0.467897 0.1 0.7875 0.920042 0.0118652 0.444146
0.150379 0.1 -0.903998 0.923643 0.0138179 0.39607
0 0.1 0.91799 0.913545 0 0.406737
0 0.1 -0.91799 0.913545 0 0.406737
0.0363518 0.1 0.91799 0.916356 0.00689945 0.410322
0.0363518 0.1 -0.91799 0.916315 0.00694693 0.403796
0.623803 0.1 0.675 0.904939 0.0137657 0.455039
0.623803 0.1 -0.675 0.904171 0.0132782 0.363802
0.411108 0.1 -0.825 0.921468 0.0117269 0.378865
0.871687 0.1 0.3 0.84604 0.0228233 0.444809
0.871687 0.1 -0.3 0.84959 0.0213734 0.363336
0.67013 0.1 -0.6375 0.898395 0.0139579 0.360499
0.67013 0.1 0.6375 0.898601 0.0146436 0.457782
0.90582 0.1 -0.1875 0.83577 0.0237783 0.374157
0.90582 0.1 0.1875 0.832997 0.0248932 0.430578
0.350249 0.1 0.8625 0.925772 0.011471 0.435118
0.350249 0.1 -0.8625 0.924345 0.0116206 0.383043
0.835106 0.1 -0.4125 0.863633 0.0190492 0.355999
0.835106 0.1 0.4125 0.860204 0.0205716 0.455597
0.714971 0.1 -0.6 0.891684 0.0148576 0.357298
0.714971 0.1 0.6 0.89104 0.0157979 0.460007
0.93886 0.1 -1.15648e-17 0.82179 0.0270451 0.400644
0.075776 0.1 0.9375 0.91946 0.0145203 0.414204
0.075776 0.1 -0.9375 0.919371 0.0146167 0.400601
0.93886 0.1 0.075 0.821747 0.0272345 0.413028
0.93886 0.1 -0.075 0.823163 0.0266695 0.388478
0.756813 0.1 0.5625 0.883133 0.016978 0.461691
0.756814 0.1 -0.5625 0.884606 0.0158039 0.354461
0.905821 0.1 -0.2625 0.839717 0.0230895 0.364129
0.905821 0.1 0.2625 0.835924 0.0246314 0.44155
0.287374 0.1 0.9 0.927294 0.0121167 0.430308
0.287374 0.1 -0.903998 0.92603 0.012277 0.387043
0.871687 0.1 0.375 0.850144 0.0223856 0.454104
0.871687 0.1 -0.375 0.85423 0.0206248 0.355223
0.93886 0.1 -0.15 0.825743 0.0261092 0.376737
0.93886 0.1 0.15 0.823024 0.0272232 0.425345
0.797314 0.1 0.525 0.874251 0.0184838 0.462681
0.797314 0.1 -0.525 0.876774 0.0170231 0.351905
0 0.1 0.95701 0.913545 0 0.406737
0 0.1 -0.95701 0.913545 0 0.406737
0.0363518 0.1 0.95701 0.916356 0.00689945 0.410322
0.0363518 0.1 -0.95701 0.916315 0.00694693 0.403796
0.522433 0.1 0.80701 0.917156 0.0121085 0.449498
0.219992 0.1 0.9375 0.928667 0.0128473 0.425139
0.219992 0.1 -0.9375 0.927759 0.0130213 0.391429
0.93886 0.1 0.225 0.825581 0.0270172 0.437346
0.93886 0.1 -0.225 0.829522 0.0253673 0.365626
0.90582 0.1 0.3375 0.839896 0.0242121 0.451899
0.905821 0.1 -0.3375 0.844486 0.0222753 0.355018
0.835106 0.1 -0.4875 0.868521 0.0183073 0.349765
0.835107 0.1 0.4875 0.865038 0.020016 0.463075
0.969689 0.1 -0.0375 0.813328 0.0290329 0.392864
0.969689 0.1 0.0375 0.812505 0.0293821 0.40603
0.61613 0.1 0.75 0.907925 0.0133081 0.457747
0.574156 0.1 -0.7875 0.9118 0.0122817 0.36546
0.574156 0.1 0.7875 0.913365 0.0125188 0.453945
0 0.1 0.975 0.913545 0 0.406737
0 0.1 -0.975 0.913545 0 0.406737
0.623803 0.1 -0.75 0.906829 0.0128632 0.361446
0.969689 0.1 -0.1125 0.815619 0.0284895 0.380121
0.969689 0.1 0.1125 0.813136 0.0294972 0.419271
0.522865 0.1 -0.825 0.915902 0.0119261 0.369429
0.67013 0.1 0.7125 0.902114 0.0141352 0.461123
0.67013 0.1 -0.7125 0.901528 0.0134863 0.3577
0.871687 0.1 -0.45 0.859461 0.0197985 0.348101
0.871687 0.1 0.45 0.855084 0.0218148 0.462619
0.467897 0.1 0.8625 0.921561 0.0115696 0.445358
0.467897 0.1 -0.8625 0.919744 0.0116118 0.373659
0.714971 0.1 -0.675 0.89534 0.014318 0.354003
0.714971 0.1 0.675 0.895095 0.015241 0.464067
0.93886 0.1 -0.3 0.834397 0.0244722 0.355406
0.93886 0.1 0.3 0.82934 0.0266238 0.44879
0.150379 0.1 0.975 0.92426 0.0136279 0.419847
0.150379 0.1 -0.975 0.923747 0.0137681 0.395744
0.969689 0.1 -0.1875 0.819039 0.0277243 0.367893
0.969689 0.1 0.1875 0.815198 0.0293788 0.432309
0.411108 0.1 0.9 0.924189 0.0113957 0.440691
0.756813 0.1 0.6375 0.887681 0.0163841 0.466531
0.756814 0.1 -0.6375 0.88877 0.0151983 0.350595
0.990306 0.1 -2.19732e-17 0.807768 0.0303987 0.398675
0 0.1 0.99299 0.913545 0 0.406737
0 0.1 -0.99299 0.913545 0 0.406737
0.411108 0.1 -0.903998 0.922364 0.0115268 0.377777
0.990306 0.1 -0.075 0.809415 0.0299111 0.385315
0.990306 0.1 0.075 0.807656 0.0306617 0.412311
0.0363518 0.1 0.99299 0.91636 0.0068865 0.410343
0.0363518 0.1 -0.99299 0.916321 0.00693339 0.403698
0.90582 0.1 -0.4125 0.84999 0.0213684 0.346918
0.905821 0.1 0.4125 0.844849 0.0236451 0.461472
0.797314 0.1 -0.6 0.881476 0.0163294 0.347395
0.797314 0.1 0.6 0.879243 0.0178522 0.468372
0.350249 0.1 0.9375 0.926558 0.0112612 0.435678
0.350249 0.1 -0.9375 0.92506 0.0114381 0.382195
0.990306 0.1 0.15 0.809053 0.0306747 0.425882
0.990306 0.1 -0.15 0.812418 0.0292074 0.372443
0.969689 0.1 -0.2625 0.823958 0.0267679 0.356494
0.969689 0.1 0.2625 0.818629 0.0290401 0.444881
0.835106 0.1 -0.5625 0.87373 0.0175262 0.344525
0.835106 0.1 0.5625 0.870398 0.0193605 0.469684
0.93886 0.1 -0.375 0.840126 0.0234578 0.346248
0.93886 0.1 0.375 0.834213 0.0260527 0.459472
0.075776 0.1 1.0125 0.919468 0.0144939 0.414248
0.075776 0.1 -1.0125 0.919386 0.0145891 0.400397
0.990306 0.1 -0.225 0.816806 0.0282815 0.36024
0.990306 0.1 0.225 0.811915 0.0304447 0.439112
0.287374 0.1 0.975 0.927865 0.0119562 0.430638
0.287374 0.1 -0.975 0.926632 0.012142 0.386445
0.871687 0.1 -0.525 0.865124 0.0189212 0.342056
0.871687 0.1 0.525 0.860708 0.0211214 0.470212
1.02149 0.1 -0.0369628 0.797787 0.0328 0.389957
1.02149 0.1 0.0369628 0.796817 0.0332622 0.404264
0.969689 0.1 -0.3375 0.829798 0.0256545 0.346181
0.969689 0.1 0.3375 0.823321 0.0284891 0.456728
1.02149 0.1 -0.110888 0.800406 0.0321259 0.376193
1.02149 0.1 0.110888 0.797471 0.0334479 0.418656
0.90582 0.1 0.4875 0.85065 0.02293 0.470152
0.90582 0.1 -0.4875 0.856058 0.0203954 0.339977
0.623803 0.1 0.819003 0.909995 0.0129765 0.460161
0 0.1 1.03201 0.913545 0 0.406737
0 0.1 -1.03201 0.913545 0 0.406737
0.0363518 0.1 1.03201 0.91636 0.0068865 0.410343
0.0363518 0.1 -1.03201 0.916321 0.00693339 0.403698
0.67013 0.1 -0.7875 0.904645 0.0130102 0.355543
0.67013 0.1 0.7875 0.905598 0.01361 0.463758
0.623803 0.1 -0.825 0.909453 0.0124453 0.359652
0.990306 0.1 -0.3 0.822465 0.0271704 0.349045
0.990306 0.1 0.3 0.816153 0.0299827 0.451734
0.219992 0.1 -1.0125 0.928082 0.0129303 0.390979
0.219993 0.1 1.0125 0.929018 0.0127391 0.425286
0.574156 0.1 0.8625 0.915747 0.0121158 0.455532
0.574157 0.1 -0.8625 0.913932 0.0119219 0.36397
0.714971 0.1 -0.75 0.899004 0.0137713 0.351439
0.714971 0.1 0.75 0.899177 0.0146504 0.467348
1.02149 0.1 0.184814 0.799721 0.0333561 0.432849
1.02149 0.1 -0.184814 0.804297 0.0312002 0.362917
0.756814 0.1 -0.7125 0.892975 0.0145817 0.347552
0.756814 0.1 0.7125 0.892333 0.0157358 0.470526
0.522865 0.1 0.9 0.919541 0.0116753 0.451016
0.93886 0.1 -0.45 0.846581 0.022359 0.338298
0.93886 0.1 0.45 0.840091 0.0253121 0.469244
1.04168 0.1 0 0.7908 0.034802 0.396173
1.04168 0.1 -0.0729162 0.792671 0.0341816 0.381748
1.04168 0.1 0.0729162 0.790606 0.0351666 0.41094
0.522865 0.1 -0.903998 0.917407 0.0116494 0.368204
0.797314 0.1 -0.675 0.88628 0.0156238 0.343804
0.797314 0.1 0.675 0.884462 0.017144 0.473156
0.467897 0.1 0.9375 0.923032 0.0112761 0.446175
0.467897 0.1 -0.9375 0.921068 0.011351 0.372664
0 0.1 1.05 0.913545 0 0.406737
0 0.1 -1.05 0.913545 0 0.406737
0.835106 0.1 -0.6375 0.879114 0.0167291 0.340304
0.835106 0.1 0.6375 0.876129 0.0186046 0.475326
1.04168 0.1 -0.145832 0.796041 0.0333232 0.367855
1.04168 0.1 0.145832 0.792052 0.0352361 0.425648
1.02149 0.1 -0.25874 0.809871 0.0300291 0.350469
1.02149 0.1 0.25874 0.8035 0.0329983 0.446563
0.969689 0.1 -0.4125 0.836571 0.0244388 0.3371
0.969689 0.1 0.4125 0.829175 0.027746 0.467651
0.411108 0.1 0.975 0.925299 0.0111439 0.441224
0.411108 0.1 -0.975 0.923511 0.0112821 0.377012
0.871687 0.1 -0.6 0.871059 0.0180192 0.337121
0.871687 0.1 0.6 0.866835 0.020319 0.476785
1.0579 0.1 -0.0360525 0.786249 0.0359597 0.387799
1.0579 0.1 0.0360525 0.785169 0.0365088 0.402816
0.990306 0.1 -0.375 0.829108 0.0259253 0.339083
0.990306 0.1 0.375 0.821654 0.0293044 0.463506
0.150379 0.1 1.05 0.924435 0.0135609 0.419891
0.150379 0.1 -1.05 0.923913 0.0137088 0.395465
1.0579 0.1 0.108157 0.78576 0.0367535 0.417921
1.0579 0.1 -0.108157 0.789028 0.0351815 0.373394
1.04168 0.1 -0.218749 0.800924 0.0321943 0.354591
1.04168 0.1 0.218749 0.795095 0.0350173 0.44002
0.90582 0.1 -0.5625 0.862514 0.0193889 0.334232
0.90582 0.1 0.5625 0.857124 0.0220876 0.477727
0 0.1 -1.06799 0.913545 0 0.406737
0 0.1 1.06799 0.913545 0 0.406737
0.0363518 0.1 -1.06799 0.916327 0.00692278 0.403629
0.0363518 0.1 1.06799 0.916361 0.00687438 0.410333
0.350249 0.1 1.0125 0.92731 0.0110529 0.43598
0.350249 0.1 -1.0125 0.925748 0.0112536 0.381587
1.0579 0.1 -0.180262 0.793194 0.0341388 0.359455
1.0579 0.1 0.180262 0.787997 0.0366929 0.43284
1.02149 0.1 -0.332665 0.816514 0.028692 0.339329
1.02149 0.1 0.332665 0.808688 0.0323851 0.459524
0.93886 0.1 -0.525 0.853554 0.0212078 0.331657
0.93886 0.1 0.525 0.846811 0.0244162 0.477936
1.08012 0.1 5.49329e-18 0.778208 0.0385 0.394178
1.04168 0.1 -0.291665 0.807226 0.0308436 0.342437
1.04168 0.1 0.291665 0.799643 0.0345198 0.453777
1.08012 0.1 0.0709941 0.777929 0.0389455 0.409701
1.08012 0.1 -0.0709941 0.780215 0.0377734 0.379032
0.969689 0.1 -0.4875 0.844015 0.0231475 0.329441
0.96969 0.1 0.4875 0.836057 0.0268137 0.477531
1.0579 0.1 0.252367 0.791819 0.0363357 0.447287
1.0579 0.1 -0.252367 0.799028 0.0328 0.346327
0.990306 0.1 -0.45 0.836599 0.0245868 0.330498
0.990306 0.1 0.45 0.828294 0.0284227 0.474259
0.287374 0.1 -1.05 0.927126 0.012003 0.386005
0.287374 0.1 1.05 0.928403 0.011798 0.430769
0.714971 0.1 0.821002 0.902851 0.0141029 0.469806
1.08012 0.1 -0.141988 0.783813 0.0367915 0.364442
1.08012 0.1 0.141988 0.779341 0.0390686 0.425169
0.075776 0.1 1.0875 0.919471 0.0144693 0.414228
0.075776 0.1 -1.0875 0.919398 0.0145675 0.400255
0.714971 0.1 -0.825 0.902604 0.0132271 0.349573
0.756813 0.1 -0.7875 0.897139 0.0139644 0.345301
0.756814 0.1 0.7875 0.896973 0.0150606 0.473657
0.67013 0.1 -0.8625 0.907684 0.0125363 0.353998
0.67013 0.1 0.8625 0.909006 0.0130821 0.465706
0.797314 0.1 -0.75 0.891069 0.01492 0.341105
0.797314 0.1 0.75 0.889754 0.0163879 0.477004
0.623803 0.1 0.9 0.913713 0.0123781 0.461302
0.835106 0.1 -0.7125 0.884539 0.0159319 0.337079
0.835106 0.1 0.7125 0.882038 0.0177753 0.479962
0.623803 0.1 -0.903998 0.911693 0.0120773 0.358378
0.574156 0.1 0.9375 0.918042 0.0117155 0.456595
0.574156 0.1 -0.9375 0.915989 0.0115651 0.362934
1.02149 0.1 -0.406591 0.824249 0.0272322 0.329575
1.02149 0.1 0.406591 0.815154 0.0315405 0.471495
1.08012 0.1 -0.212982 0.788975 0.035505 0.350458
1.08012 0.1 0.212982 0.782404 0.0388741 0.440315
1.10076 0.1 -0.0349809 0.771475 0.0404278 0.385132
1.10076 0.1 0.0349809 0.770298 0.0410869 0.401047
0.871687 0.1 -0.675 0.877101 0.017116 0.333295
0.871687 0.1 0.675 0.873262 0.0194245 0.482289
1.04168 0.1 -0.364581 0.814653 0.0293431 0.331681
1.04168 0.1 0.364581 0.805568 0.0337617 0.466652
1.10076 0.1 -0.104943 0.774434 0.0395125 0.369928
1.10076 0.1 0.104943 0.770852 0.041409 0.417027
0.522865 0.1 0.975 0.92139 0.011329 0.451743
0.522865 0.1 -0.975 0.919286 0.0113072 0.367384
1.0579 0.1 -0.324472 0.806042 0.0312903 0.334641