# UMean  POINT_DATA 63840
# x  y  z  UMean_x  UMean_y  UMean_z
0 0.5 3.39583e-17 0.913545 0 0.406737
0 0.5 -0.00617931 0.913545 0 0.406737
0 0.5 0.00617931 0.913545 0 0.406737
0.0124865 0.5 -0.00617931 0.913515 0.000897855 0.406897
0.0124865 0.5 0.00617931 0.913517 0.000896633 0.407013
0 0.5 -0.0688207 0.913545 0 0.406737
0 0.5 0.0688207 0.913545 0 0.406737
0.0124865 0.5 -0.0688207 0.913515 0.000897855 0.406897
0.0124865 0.5 0.0688207 0.913517 0.000896633 0.407013
0 0.5 -0.075 0.913545 0 0.406737
0 0.5 0.075 0.913545 0 0.406737
0 0.5 -0.0811793 0.913545 0 0.406737
0 0.5 0.0811793 0.913545 0 0.406737
0.0124865 0.5 -0.0811793 0.913516 0.000896103 0.406777
0.0124865 0.5 0.0811793 0.913518 0.000890875 0.407129
0.075776 0.5 -0.0375 0.913341 0.00544213 0.407704
0.075776 0.5 0.0375 0.913348 0.00543436 0.408406
0.075776 0.5 -0.1125 0.913342 0.00543185 0.406982
0.075776 0.5 0.1125 0.913354 0.00539968 0.409106
0 0.5 -0.143821 0.913545 0 0.406737
0 0.5 0.143821 0.913545 0 0.406737
0.0124865 0.5 -0.143821 0.913516 0.000896103 0.406777
0.0124865 0.5 0.143821 0.913518 0.000890875 0.407129
0 0.5 -0.15 0.913545 0 0.406737
0 0.5 0.15 0.913545 0 0.406737
0.151149 0.5 -0.00137318 0.91218 0.00910169 0.408829
0 0.5 -0.156179 0.913545 0 0.406737
0 0.5 0.156179 0.913545 0 0.406737
0.0124865 0.5 -0.156179 0.913515 0.000891752 0.406661
0.0124865 0.5 0.156179 0.913519 0.000881513 0.40724
0.151149 0.5 0.075 0.912199 0.00910018 0.410045
0.151149 0.5 -0.075 0.912161 0.00912267 0.407527
0.075776 0.5 -0.1875 0.913336 0.00540552 0.406283
0.075776 0.5 0.1875 0.913365 0.0053431 0.409777
0.151149 0.5 0.15 0.912245 0.00903712 0.41127
0.151149 0.5 -0.15 0.912166 0.00908497 0.406269
0 0.5 -0.218821 0.913545 0 0.406737
0 0.5 0.218821 0.913545 0 0.406737
0.0124865 0.5 -0.218821 0.913515 0.000891752 0.406661
0.0124865 0.5 0.218821 0.913519 0.000881513 0.40724
0.219992 0.5 0.0375 0.911092 0.0125702 0.410367
0.219993 0.5 -0.0375 0.911059 0.012583 0.40859
0 0.5 -0.225 0.913545 0 0.406737
0 0.5 0.225 0.913545 0 0.406737
0 0.5 -0.231179 0.913545 0 0.406737
0 0.5 0.231179 0.913545 0 0.406737
0.0124865 0.5 -0.231179 0.913516 0.000883931 0.406544
0.0124865 0.5 0.231179 0.913523 0.000868829 0.407345
0.219992 0.5 0.1125 0.911154 0.012514 0.412132
0.219993 0.5 -0.1125 0.911059 0.0125509 0.406809
0.151149 0.5 -0.225 0.912191 0.00901536 0.405037
0.151149 0.5 0.225 0.912315 0.00893946 0.412445
0.075776 0.5 -0.2625 0.913341 0.00535824 0.405576
0.075776 0.5 0.2625 0.913386 0.00526617 0.410415
0.288069 0.5 -0.00137318 0.908249 0.0159684 0.409935
0.219992 0.5 0.1875 0.911257 0.0124116 0.413828
0.219993 0.5 -0.1875 0.911083 0.0124713 0.405049
0 0.5 0.293821 0.913545 0 0.406737
0 0.5 -0.293821 0.913545 0 0.406737
0.0124865 0.5 -0.293821 0.913516 0.000883931 0.406544
0.0124865 0.5 0.293821 0.913523 0.000868829 0.407345
0.288069 0.5 -0.075 0.908207 0.0159709 0.407517
0.288069 0.5 0.075 0.90831 0.0159553 0.412187
0 0.5 -0.3 0.913545 0 0.406737
0 0.5 0.3 0.913545 0 0.406737
0 0.5 0.306179 0.913545 0 0.406737
0 0.5 -0.306179 0.913545 0 0.406737
0.0124865 0.5 -0.306179 0.913519 0.000872394 0.406435
0.0124865 0.5 0.306179 0.913527 0.000853262 0.407444
0.288069 0.5 -0.15 0.908253 0.0158887 0.405197
0.288069 0.5 0.15 0.908462 0.0158589 0.41447
0.151149 0.5 -0.3 0.912248 0.00891469 0.403849
0.151149 0.5 0.3 0.912405 0.00880949 0.413557
0.219992 0.5 -0.2625 0.911155 0.0123503 0.403356
0.219992 0.5 0.2625 0.911392 0.0122609 0.415456
0.075776 0.5 0.3375 0.913412 0.0051716 0.411008
0.075776 0.5 -0.3375 0.913364 0.00528852 0.404914
0.350249 0.5 -0.0375 0.905521 0.0191948 0.408775
0.350249 0.5 0.0375 0.90559 0.0191913 0.411651
0.288069 0.5 -0.225 0.90837 0.0157488 0.402942
0.288069 0.5 0.225 0.908684 0.0157029 0.416674
0.350249 0.5 0.1125 0.905756 0.0191142 0.414481
0.350249 0.5 -0.1125 0.905547 0.0191243 0.405916
0 0.5 0.368821 0.913545 0 0.406737
0 0.5 -0.368821 0.913545 0 0.406737
0.0124865 0.5 -0.368821 0.913519 0.000872394 0.406435
0.0124865 0.5 0.368821 0.913527 0.000853262 0.407444
0 0.5 -0.375 0.913545 0 0.406737
0 0.5 0.375 0.913545 0 0.406737
0 0.5 -0.381179 0.913545 0 0.406737
0 0.5 0.381179 0.913545 0 0.406737
0.0124865 0.5 -0.381179 0.913523 0.000858346 0.406331
0.0124865 0.5 0.381179 0.913533 0.000835162 0.407533
0.350249 0.5 -0.1875 0.905674 0.0189809 0.403104
0.350249 0.5 0.1875 0.906026 0.0189664 0.417257
0.219992 0.5 -0.3375 0.911277 0.0121911 0.401729
0.219992 0.5 0.3375 0.911561 0.012069 0.41698
0.151149 0.5 -0.375 0.912326 0.00878623 0.402723
0.151149 0.5 0.375 0.912514 0.00865074 0.414589
0.411736 0.5 -0.00137318 0.901549 0.0224931 0.410391
0.288069 0.5 -0.3 0.908566 0.0155579 0.400779
0.288069 0.5 0.3 0.908969 0.0154895 0.418766
0.411736 0.5 -0.075 0.901507 0.022462 0.406829
0.411736 0.5 0.075 0.901672 0.0224787 0.413711
0.075776 0.5 -0.4125 0.913384 0.00520352 0.40429
0.075776 0.5 0.4125 0.913444 0.00506146 0.41155
0.350249 0.5 -0.2625 0.905914 0.0187706 0.400412
0.350249 0.5 0.2625 0.906392 0.0187473 0.419907
0.411736 0.5 -0.15 0.901646 0.0223172 0.403433
0.411736 0.5 0.15 0.901972 0.0223508 0.417089
0 0.5 -0.443821 0.913545 0 0.406737
0 0.5 0.443821 0.913545 0 0.406737
0.0124865 0.5 -0.443821 0.913523 0.000858346 0.406331
0.0124865 0.5 0.443821 0.913533 0.000835162 0.407533
0 0.5 -0.45 0.913545 0 0.406737
0 0.5 0.45 0.913545 0 0.406737
0 0.5 -0.456179 0.913545 0 0.406737
0 0.5 0.456179 0.913545 0 0.406737
0.0124865 0.5 -0.456179 0.913527 0.000842197 0.406236
0.0124865 0.5 0.456179 0.913539 0.000814853 0.407613
0.219992 0.5 -0.4125 0.911417 0.0119979 0.400201
0.219993 0.5 0.4125 0.911759 0.0118381 0.418387
0.411736 0.5 -0.225 0.90194 0.0220869 0.400145
0.411736 0.5 0.225 0.902415 0.0221348 0.420362
0.467897 0.5 0.0375 0.897765 0.0256474 0.412333
0.467897 0.5 -0.0375 0.897668 0.0256282 0.408327
0.288069 0.5 -0.375 0.908823 0.0153208 0.398728
0.288069 0.5 0.375 0.909312 0.0152233 0.420719
0.151149 0.5 -0.45 0.912416 0.00863436 0.40167
0.151149 0.5 0.45 0.912638 0.00846588 0.415529
0.467897 0.5 -0.1125 0.897765 0.0254994 0.404358
0.467897 0.5 0.1125 0.898048 0.0255581 0.416302
0.350249 0.5 0.3375 0.906845 0.0184608 0.422409
0.350249 0.5 -0.3375 0.906251 0.0185036 0.397834
0.075776 0.5 -0.4875 0.913407 0.00510553 0.403711
0.075776 0.5 0.4875 0.913482 0.00493759 0.412037
0.467897 0.5 -0.1875 0.898066 0.0252673 0.400479
0.467897 0.5 0.1875 0.898518 0.0253627 0.420173
0.411736 0.5 -0.3 0.902377 0.0217801 0.397005
0.411736 0.5 0.3 0.902994 0.0218336 0.423478
0 0.5 -0.518821 0.913545 0 0.406737
0 0.5 0.518821 0.913545 0 0.406737
0.0124865 0.5 0.518821 0.913539 0.000814853 0.407613
0.0124865 0.5 -0.518821 0.913527 0.000842197 0.406236
0.523432 0.5 -0.00137318 0.892784 0.0289107 0.410284
0 0.5 -0.525 0.913545 0 0.406737
0 0.5 0.525 0.913545 0 0.406737
0.523432 0.5 -0.075 0.892776 0.0288294 0.405543
0.523432 0.5 0.075 0.892968 0.0289078 0.414717
0 0.5 -0.531179 0.913545 0 0.406737
0 0.5 0.531179 0.913545 0 0.406737
0.0124865 0.5 -0.531179 0.913531 0.000824114 0.406148
0.0124865 0.5 0.531179 0.913546 0.000792655 0.407684
0.288069 0.5 -0.45 0.909128 0.0150418 0.396819
0.288069 0.5 0.45 0.909705 0.0149089 0.422507
0.219992 0.5 -0.4875 0.911584 0.0117746 0.39878
0.219993 0.5 0.4875 0.911979 0.0115725 0.419659
0.467897 0.5 -0.2625 0.89856 0.0249384 0.396772
0.467897 0.5 0.2625 0.899173 0.025065 0.423904
0.350249 0.5 -0.4125 0.906662 0.0181826 0.395424
0.350249 0.5 0.4125 0.907377 0.0181123 0.424725
0.523432 0.5 -0.15 0.893067 0.0286015 0.401047
0.523432 0.5 0.15 0.893436 0.0287557 0.41924
0.151149 0.5 -0.525 0.91252 0.00846131 0.4007
0.151149 0.5 0.525 0.912776 0.00825779 0.416369
0.411736 0.5 -0.375 0.902939 0.0214046 0.394046
0.411736 0.5 0.375 0.903695 0.0214528 0.426393
0.075776 0.5 -0.5625 0.913435 0.00499562 0.40318
0.075776 0.5 0.5625 0.913524 0.0048021 0.412462
0.523432 0.5 -0.225 0.89361 0.0282566 0.396709
0.523432 0.5 0.225 0.894144 0.02848 0.423626
0.574156 0.5 -0.0375 0.887996 0.0320078 0.407343
0.574156 0.5 0.0375 0.888097 0.032066 0.412518
0.467897 0.5 0.3375 0.899996 0.0246695 0.427423
0.467897 0.5 -0.3375 0.899222 0.0245255 0.393247
0.574156 0.5 -0.1125 0.888216 0.0318038 0.402232
0.574156 0.5 0.1125 0.888504 0.031977 0.417671
0 0.5 -0.593821 0.913545 0 0.406737
0 0.5 0.593821 0.913545 0 0.406737
0.0124865 0.5 -0.593821 0.913531 0.000824114 0.406148
0.0124865 0.5 0.593821 0.913546 0.000792655 0.407684
0.288069 0.5 -0.525 0.90948 0.0147245 0.395068
0.288069 0.5 0.525 0.910139 0.0145512 0.424112
0 0.5 -0.6 0.913545 0 0.406737
0 0.5 0.6 0.913545 0 0.406737
0.350249 0.5 -0.4875 0.907146 0.0178129 0.3932
0.350249 0.5 0.4875 0.907977 0.0177079 0.426829
0.523432 0.5 -0.3 0.894384 0.0278054 0.392584
0.523432 0.5 0.3 0.89508 0.028086 0.42781
0.219992 0.5 -0.5625 0.911773 0.0115227 0.397483
0.219992 0.5 0.5625 0.912216 0.0112754 0.420783
0.574156 0.5 -0.1875 0.888753 0.0314624 0.397267
0.574156 0.5 0.1875 0.889205 0.0317436 0.422703
0 0.5 -0.606179 0.913545 0 0.406737
0 0.5 0.606179 0.913545 0 0.406737
0.0124865 0.5 -0.606179 0.913537 0.00080442 0.406069
0.0124865 0.5 0.606179 0.913554 0.000768932 0.407743
0.411736 0.5 -0.45 0.903608 0.0209659 0.391312
0.411736 0.5 0.45 0.904503 0.0209994 0.42907
0.151149 0.5 -0.6 0.912637 0.00826879 0.39982
0.151149 0.5 0.6 0.912922 0.00802933 0.417099
0.62168 0.5 2.64545e-17 0.882678 0.0351416 0.409774
0.467897 0.5 0.4125 0.900967 0.0241843 0.430687
0.467897 0.5 -0.4125 0.900034 0.0240341 0.389979
0.624316 0.5 0.0729402 0.882606 0.0353342 0.4153
0.624316 0.5 -0.075 0.882439 0.0351666 0.403752
0.574156 0.5 -0.2625 0.88958 0.0309924 0.392524
0.574157 0.5 0.2625 0.890195 0.0313709 0.427551
0.075776 0.5 -0.6375 0.913468 0.00487549 0.402702
0.075776 0.5 0.6375 0.913569 0.00465709 0.412824
0.624316 0.5 -0.15 0.882937 0.0348387 0.398122
0.624316 0.5 0.15 0.883257 0.035168 0.42102
0.523432 0.5 -0.375 0.895366 0.0272587 0.388728
0.523432 0.5 0.375 0.896222 0.0275811 0.43173
0.350249 0.5 -0.5625 0.907692 0.0173988 0.391186
0.350249 0.5 0.5625 0.908631 0.0172543 0.428698
0.624316 0.5 -0.225 0.883803 0.0343602 0.392707
0.624316 0.5 0.225 0.884265 0.0348391 0.426571
0.288069 0.5 0.6 0.910603 0.0141556 0.425518
0.288069 0.5 -0.6 0.90987 0.0143724 0.393492
0.574156 0.5 -0.3375 0.890672 0.0304082 0.388055
0.574156 0.5 0.3375 0.891451 0.0308663 0.432132
0.411736 0.5 -0.525 0.904373 0.0204709 0.388826
0.411736 0.5 0.525 0.905399 0.0204812 0.431478
0 0.5 -0.668821 0.913545 0 0.406737
0 0.5 0.668821 0.913545 0 0.406737
0.0124865 0.5 -0.668821 0.913537 0.00080442 0.406069
0.0124865 0.5 0.668821 0.913554 0.000768932 0.407743
0.67013 0.5 0.0375 0.876937 0.0385046 0.412304
0.67013 0.5 -0.0375 0.876865 0.0383953 0.405914
0.219993 0.5 -0.6375 0.91198 0.0112448 0.396319
0.219993 0.5 0.6375 0.912464 0.0109508 0.42175
0 0.5 -0.675 0.913545 0 0.406737
0 0.5 0.675 0.913545 0 0.406737
0.467897 0.5 0.4875 0.902065 0.0236181 0.433657
0.467897 0.5 -0.4875 0.90098 0.0234729 0.386991
0.67013 0.5 -0.1125 0.877254 0.0381018 0.399622
0.67013 0.5 0.1125 0.877464 0.0384263 0.418687
0 0.5 -0.681179 0.913545 0 0.406737
0 0.5 0.681179 0.913545 0 0.406737
0.0124865 0.5 -0.681179 0.913543 0.000783316 0.405999
0.0124865 0.5 0.681179 0.913561 0.000743967 0.407792
0.523432 0.5 -0.45 0.896531 0.0266259 0.385196
0.523432 0.5 0.45 0.897544 0.0269751 0.435332
0.151149 0.5 -0.675 0.912764 0.0080591 0.399037
0.151149 0.5 0.675 0.913074 0.00778364 0.417716
0.624316 0.5 -0.3 0.88501 0.0337434 0.387591
0.624316 0.5 0.3 0.885613 0.0343546 0.431873
0.67013 0.5 0.1875 0.878422 0.0381627 0.424936
0.67013 0.5 -0.1875 0.878088 0.037635 0.393529
0.574156 0.5 -0.4125 0.892007 0.0297209 0.383944
0.574157 0.5 0.4125 0.892943 0.0302394 0.436387
0.708171 0.5 1.88651e-17 0.871661 0.041234 0.40914
0.075776 0.5 -0.7125 0.913504 0.00474662 0.40228
0.075776 0.5 0.7125 0.913614 0.00450464 0.41312
0.715434 0.5 0.0736268 0.871094 0.0417192 0.415726
0.715434 0.5 -0.075 0.870865 0.0415075 0.40154
0.67013 0.5 0.2625 0.87979 0.0377198 0.430952
0.67013 0.5 -0.2625 0.879337 0.0370066 0.387726
0.350249 0.5 -0.6375 0.908286 0.0169455 0.389398
0.350249 0.5 0.6375 0.909322 0.0167579 0.430317
0.411736 0.5 -0.6 0.905214 0.0199265 0.386611
0.411736 0.5 0.6 0.906362 0.0199067 0.433594
0.624316 0.5 -0.375 0.886527 0.0330029 0.38285
0.624316 0.5 0.375 0.887268 0.0337242 0.436839
0.715434 0.5 -0.15 0.871622 0.0410655 0.394738
0.715434 0.5 0.15 0.871794 0.0416141 0.422517
0.467897 0.5 -0.5625 0.902035 0.0228505 0.384316
0.467897 0.5 0.5625 0.903265 0.0229807 0.436298
0.288069 0.5 -0.675 0.910289 0.0139899 0.3921
0.288069 0.5 0.675 0.911087 0.0137275 0.426714
0.523432 0.5 -0.525 0.897847 0.0259174 0.382019
0.523432 0.5 0.525 0.899014 0.0262793 0.438574
0 0.5 -0.743821 0.913545 0 0.406737
0 0.5 0.743821 0.913545 0 0.406737
0.0124865 0.5 -0.743821 0.913543 0.000783316 0.405999
0.0124865 0.5 0.743821 0.913561 0.000743967 0.407792
0.219992 0.5 0.7125 0.912718 0.0106029 0.422554
0.219992 0.5 -0.7125 0.912201 0.0109441 0.395296
0.715434 0.5 -0.225 0.872887 0.0404371 0.388223
0.715434 0.5 0.225 0.873133 0.0412375 0.429287
0 0.5 -0.75 0.913545 0 0.406737
0 0.5 0.75 0.913545 0 0.406737
0.67013 0.5 0.3375 0.881544 0.0371072 0.436653
0.67013 0.5 -0.3375 0.880972 0.0362316 0.38233
0.574156 0.5 -0.4875 0.893541 0.0289417 0.380225
0.574156 0.5 0.4875 0.894637 0.0295031 0.440255
0 0.5 -0.756179 0.913545 0 0.406737
0 0.5 0.756179 0.913545 0 0.406737
0.0124865 0.5 -0.756179 0.913549 0.000761187 0.405939
0.0124865 0.5 0.756179 0.913569 0.000718267 0.40783
0.756813 0.5 -0.0375 0.864658 0.0447961 0.404125
0.756813 0.5 0.0375 0.864675 0.0449667 0.411774
0.151149 0.5 -0.75 0.912899 0.007835 0.398356
0.151149 0.5 0.75 0.913227 0.00752431 0.418216
0.756813 0.5 -0.1125 0.865258 0.0444009 0.396611
0.756813 0.5 0.1125 0.865314 0.0449071 0.419434
0.624316 0.5 -0.45 0.888307 0.0321524 0.378541
0.624316 0.5 0.45 0.88919 0.0329607 0.441401
0.715434 0.5 -0.3 0.874624 0.0396371 0.382109
0.715434 0.5 0.3 0.87494 0.040665 0.435753
0.756813 0.5 0.1875 0.866544 0.0446192 0.42695
0.756813 0.5 -0.1875 0.86645 0.0437946 0.389359
0.67013 0.5 -0.4125 0.882945 0.0353272 0.377386
0.67013 0.5 0.4125 0.883635 0.036337 0.441925
0.411736 0.5 -0.675 0.90611 0.0193402 0.384682
0.411736 0.5 0.675 0.907371 0.0192842 0.4354
0.467897 0.5 0.6375 0.90454 0.022282 0.438588
0.467897 0.5 -0.6375 0.903172 0.0221759 0.381972
0.075776 0.5 -0.7875 0.913543 0.00461121 0.401915
0.075776 0.5 0.7875 0.913659 0.0043476 0.41335
0.350249 0.5 -0.7125 0.908915 0.0164594 0.387844
0.350249 0.5 0.7125 0.910034 0.0162261 0.431673
0.523432 0.5 -0.6 0.89928 0.0251446 0.379225
0.523432 0.5 0.6 0.900598 0.0255052 0.441422
0.797732 0.5 2.68882e-17 0.857998 0.0481701 0.407224
0.756813 0.5 -0.2625 0.868214 0.0429903 0.382498
0.756814 0.5 0.2625 0.868327 0.0441096 0.43419
0.797732 0.5 0.0736268 0.858402 0.0482237 0.415833
0.797732 0.5 -0.075 0.858378 0.0478418 0.398989
0.288069 0.5 -0.75 0.910727 0.0135823 0.3909
0.288069 0.5 0.75 0.91158 0.0132728 0.427695
0.574156 0.5 -0.5625 0.895236 0.0280841 0.376937
0.574157 0.5 0.5625 0.896491 0.0286704 0.443695
0.715434 0.5 -0.375 0.87678 0.0386835 0.376482
0.715434 0.5 0.375 0.877174 0.0399088 0.441813
0.797732 0.5 -0.15 0.859447 0.047275 0.390983
0.797732 0.5 0.15 0.859362 0.0480762 0.423808
0.624316 0.5 -0.525 0.890301 0.0312066 0.374711
0.624316 0.5 0.525 0.891331 0.0320791 0.445505
0.219992 0.5 -0.7875 0.912431 0.0106248 0.394418
0.219992 0.5 0.7875 0.912974 0.0102368 0.423194
0 0.5 -0.818821 0.913545 0 0.406737
0 0.5 0.818821 0.913545 0 0.406737
0.0124865 0.5 0.818821 0.913569 0.000718267 0.40783
0.0124865 0.5 -0.818821 0.913549 0.000761187 0.405939
0 0.5 -0.825 0.913545 0 0.406737
0 0.5 0.825 0.913545 0 0.406737
0.756813 0.5 0.3375 0.87063 0.0433895 0.44104
0.756814 0.5 -0.3375 0.870487 0.0420076 0.376147
0.67013 0.5 -0.4875 0.885191 0.0343088 0.372964
0.67013 0.5 0.4875 0.88601 0.0354254 0.446729
0.797732 0.5 -0.225 0.861184 0.0464836 0.383345
0.797732 0.5 0.225 0.861054 0.0476558 0.431844
0 0.5 -0.831179 0.913545 0 0.406737
0 0.5 0.831179 0.913545 0 0.406737
0.0124865 0.5 -0.831179 0.913556 0.000738288 0.405889
0.0124865 0.5 0.831179 0.913575 0.000692347 0.407857
0.835106 0.5 0.0375 0.851574 0.05142 0.411006
0.835106 0.5 -0.0375 0.851643 0.0511818 0.402052
0.151149 0.5 -0.825 0.913037 0.00759965 0.397778
0.151149 0.5 0.825 0.913381 0.00725577 0.4186
0.835106 0.5 0.1125 0.852313 0.0513845 0.419987
0.835106 0.5 -0.1125 0.852504 0.0506768 0.393284
0.715434 0.5 -0.45 0.879289 0.0375948 0.371412
0.715434 0.5 0.45 0.879772 0.0389845 0.447371
0.797732 0.5 -0.3 0.863539 0.0454855 0.376213
0.797732 0.5 0.3 0.863362 0.0469973 0.439516
0.467897 0.5 0.7125 0.90586 0.0215322 0.440513
0.467897 0.5 -0.7125 0.904363 0.0214591 0.379969
0.523432 0.5 -0.675 0.900794 0.0243191 0.376828
0.523432 0.5 0.675 0.902259 0.024665 0.443854
0.411736 0.5 -0.75 0.90704 0.0187205 0.383042
0.411736 0.5 0.75 0.908403 0.0186225 0.436889
0.835106 0.5 -0.1875 0.854111 0.0499218 0.384843
0.835106 0.5 0.1875 0.853825 0.0510765 0.428812
0.574156 0.5 -0.6375 0.897046 0.0271616 0.3741
0.574157 0.5 0.6375 0.89846 0.0277551 0.446675
0.350249 0.5 -0.7875 0.909564 0.0159473 0.38653
0.350249 0.5 0.7875 0.910755 0.0156658 0.432764
0.756813 0.5 -0.4125 0.873198 0.0408669 0.370372
0.756814 0.5 0.4125 0.873388 0.0424746 0.447405
0.075776 0.5 -0.8625 0.913584 0.00447094 0.401609
0.075776 0.5 0.8625 0.9137 0.00418878 0.413516
0.624316 0.5 0.6 0.89364 0.0310949 0.449105
0.624316 0.5 -0.6 0.892455 0.0301814 0.371389
0.872064 0.5 5.91974e-17 0.844764 0.0545154 0.405701
0.870122 0.5 0.075 0.845549 0.0544477 0.415761
0.288069 0.5 -0.825 0.911176 0.0131551 0.389893
0.288069 0.5 0.825 0.912075 0.0127984 0.42846
0.67013 0.5 -0.5625 0.887653 0.0331945 0.369104
0.67013 0.5 0.5625 0.888616 0.03439 0.450989
0.872064 0.5 -0.075 0.845329 0.0540963 0.396178
0.835106 0.5 -0.2625 0.856474 0.0489295 0.376895
0.835106 0.5 0.2625 0.856054 0.0505028 0.43732
0.797732 0.5 -0.375 0.86643 0.0443028 0.369695
0.797732 0.5 0.375 0.86623 0.046115 0.446707
0.872064 0.5 0.14794 0.846324 0.0544738 0.424941
0.872064 0.5 -0.15 0.846748 0.0533978 0.386941
0.715434 0.5 -0.525 0.882078 0.0363904 0.36696
0.715434 0.5 0.525 0.882672 0.0379109 0.452359
0.219992 0.5 0.8625 0.913231 0.00985922 0.423671
0.219993 0.5 -0.8625 0.912664 0.0102913 0.393685
0 0.5 -0.893821 0.913545 0 0.406737
0 0.5 0.893821 0.913545 0 0.406737
0.0124865 0.5 -0.893821 0.913556 0.000738288 0.405889
0.0124865 0.5 0.893821 0.913575 0.000692347 0.407857
0 0.5 -0.9 0.913545 0 0.406737
0 0.5 0.9 0.913545 0 0.406737
0.756813 0.5 -0.4875 0.876267 0.0395882 0.365269
0.756813 0.5 0.4875 0.876525 0.0413823 0.453149
0.872064 0.5 -0.225 0.849008 0.0524351 0.378149
0.872064 0.5 0.225 0.848387 0.054014 0.434278
0.835106 0.5 -0.3375 0.859469 0.0477258 0.369569
0.835106 0.5 0.3375 0.858947 0.0496766 0.445357
0 0.5 0.906179 0.913545 0 0.406737
0 0.5 -0.906179 0.913545 0 0.406737
0.0124865 0.5 -0.906179 0.913563 0.000714979 0.405848
0.0124865 0.5 0.906179 0.91358 0.000666397 0.407874
0.90582 0.5 -0.0375 0.838257 0.0574319 0.39976
0.90582 0.5 0.0375 0.838091 0.0577414 0.410049
0.151149 0.5 -0.9 0.913178 0.00735642 0.397302
0.151149 0.5 0.9 0.913533 0.00698217 0.418872
0.90582 0.5 -0.1125 0.839415 0.0568116 0.389727
0.905821 0.5 0.1125 0.83893 0.0577344 0.420383
0.523432 0.5 -0.75 0.902352 0.0234533 0.374832
0.523432 0.5 0.75 0.90396 0.023771 0.445859
0.574156 0.5 -0.7125 0.898926 0.0261888 0.371721
0.574156 0.5 0.7125 0.9005 0.0267717 0.449175
0.797732 0.5 -0.45 0.869772 0.0429589 0.363879
0.797732 0.5 0.45 0.869579 0.0450271 0.453292
0.467897 0.5 0.7875 0.907198 0.0207415 0.442065
0.467897 0.5 -0.7875 0.905581 0.0207102 0.378307
0.624316 0.5 -0.675 0.894711 0.0290933 0.368589
0.624316 0.5 0.675 0.896063 0.0300247 0.452173
0.411736 0.5 -0.825 0.907984 0.0180761 0.381692
0.411736 0.5 0.825 0.909438 0.0179306 0.438059
0.872064 0.5 0.3 0.851226 0.0532733 0.443191
0.872064 0.5 -0.3 0.852054 0.05123 0.369977
0.67013 0.5 -0.6375 0.890261 0.0320028 0.365828
0.67013 0.5 0.6375 0.891386 0.0332489 0.45467
0.90582 0.5 0.1875 0.84073 0.0574114 0.430545
0.905821 0.5 -0.1875 0.841449 0.0559033 0.380069
0.350249 0.5 -0.8625 0.910219 0.0154165 0.385452
0.350249 0.5 0.8625 0.911472 0.0150852 0.433592
0.835106 0.5 -0.4125 0.86302 0.0463333 0.362984
0.835106 0.5 0.4125 0.862438 0.048615 0.452821
0.715434 0.5 -0.6 0.885068 0.0350918 0.363155
0.715434 0.5 0.6 0.8858 0.0367087 0.456726
0.939201 0.5 2.75387e-17 0.830976 0.0609159 0.404001
0.075776 0.5 0.9375 0.913734 0.00403021 0.41362
0.075776 0.5 -0.9375 0.913624 0.00432813 0.40136
0.939111 0.5 0.075 0.831369 0.0610936 0.415959
0.939201 0.5 -0.075 0.831781 0.0603978 0.393138
0.756813 0.5 0.5625 0.879966 0.0401373 0.458249
0.756814 0.5 -0.5625 0.879605 0.0381959 0.360873
0.90582 0.5 0.2625 0.843428 0.0567788 0.440347
0.905821 0.5 -0.2625 0.844465 0.0547157 0.370991
0.288069 0.5 -0.9 0.911626 0.0127143 0.389076
0.288069 0.5 0.9 0.912565 0.0123108 0.429015
0.872064 0.5 -0.375 0.855761 0.0498096 0.362572
0.872064 0.5 0.375 0.85477 0.0522677 0.451533
0.939201 0.5 0.148627 0.832782 0.0609047 0.426192
0.939201 0.5 -0.15 0.833586 0.0595556 0.382627
0.797732 0.5 -0.525 0.873463 0.0414796 0.358833
0.797732 0.5 0.525 0.873314 0.0437572 0.459181
0.219992 0.5 0.9375 0.913493 0.00947498 0.423992
0.219992 0.5 -0.9375 0.912898 0.00994839 0.393094
0.939201 0.5 -0.225 0.836422 0.0584058 0.372626
0.939201 0.5 0.225 0.835153 0.0604286 0.436709
0.905821 0.5 -0.3375 0.848248 0.0532878 0.362694
0.90582 0.5 0.3375 0.846942 0.0558524 0.449604
0.835106 0.5 -0.4875 0.867017 0.0447821 0.357218
0.835106 0.5 0.4875 0.866416 0.0473404 0.459544
0 0.5 0.968821 0.913545 0 0.406737
0 0.5 -0.968821 0.913545 0 0.406737
0.0124865 0.5 -0.968821 0.913563 0.000714979 0.405848
0.0124865 0.5 0.968821 0.91358 0.000666397 0.407874
0.969689 0.5 -0.0375 0.824173 0.0639153 0.397266
0.969689 0.5 0.0375 0.823858 0.0643027 0.40899
0.574156 0.5 -0.7875 0.90083 0.0251794 0.369795
0.574156 0.5 0.7875 0.902568 0.0257341 0.451189
0 0.5 -0.975 0.913545 0 0.406737
0 0.5 0.975 0.913545 0 0.406737
0.624316 0.5 -0.75 0.897012 0.0279589 0.36631
0.624316 0.5 0.75 0.898544 0.0288848 0.454696
0.969689 0.5 -0.1125 0.825744 0.0631641 0.385904
0.96969 0.5 0.1125 0.824774 0.0643242 0.420769
0.523432 0.5 -0.825 0.903918 0.022559 0.373228
0.523432 0.5 0.825 0.905667 0.0228356 0.447436
0.67013 0.5 0.7125 0.894254 0.0320209 0.457749
0.67013 0.5 -0.7125 0.892945 0.0307528 0.363141
0 0.5 -0.981179 0.913545 0 0.406737
0 0.5 0.981179 0.913545 0 0.406737
0.467897 0.5 0.8625 0.908526 0.0199206 0.443249
0.467897 0.5 -0.8625 0.906799 0.0199392 0.376979
0.0124865 0.5 -0.981179 0.913569 0.000691631 0.405816
0.0124865 0.5 0.981179 0.913584 0.000641125 0.407882
0.872064 0.5 -0.45 0.86002 0.0482018 0.35603
0.872064 0.5 0.45 0.858923 0.0510185 0.459173
0.715434 0.5 -0.675 0.888177 0.0337208 0.360012
0.715434 0.5 0.675 0.88908 0.0353986 0.460434
0.939201 0.5 -0.3 0.840254 0.0569752 0.363378
0.939201 0.5 0.3 0.838556 0.0595999 0.446911
0.151149 0.5 0.975 0.913684 0.00670641 0.419037
0.151149 0.5 -0.975 0.913317 0.0071089 0.396924
0.969689 0.5 -0.1875 0.828188 0.0620805 0.374956
0.969689 0.5 0.1875 0.826859 0.0639791 0.432348
0.756813 0.5 -0.6375 0.883116 0.0367145 0.35721
0.756813 0.5 0.6375 0.883622 0.038762 0.462639
0.411736 0.5 -0.9 0.908922 0.0174151 0.380623
0.411736 0.5 0.9 0.910455 0.0172175 0.438916
0.90582 0.5 -0.4125 0.852714 0.0516406 0.355315
0.90582 0.5 0.4125 0.851193 0.0546501 0.458171
0.995005 0.5 0.0749309 0.819062 0.0663312 0.415628
0.797732 0.5 -0.6 0.877395 0.0398914 0.354588
0.797732 0.5 0.6 0.877342 0.0423312 0.464322
1.00005 0.5 -8.47123e-18 0.81751 0.0665692 0.402214
0.350249 0.5 -0.9375 0.910869 0.0148738 0.384603
0.350249 0.5 0.9375 0.912168 0.0144911 0.434165
1.00005 0.5 -0.0749309 0.818564 0.0659637 0.39011
0.969689 0.5 -0.2625 0.832014 0.0606685 0.364675
0.969689 0.5 0.2625 0.830051 0.0632739 0.443516
0.835106 0.5 -0.5625 0.871337 0.0431003 0.352321
0.835106 0.5 0.5625 0.870764 0.045882 0.465494
1.00005 0.5 -0.149862 0.820761 0.064999 0.378426
0.939201 0.5 -0.375 0.844864 0.0552976 0.35506
0.939201 0.5 0.375 0.842821 0.0584627 0.456441
1.00029 0.5 0.148988 0.819575 0.0665901 0.427039
0.075776 0.5 -1.0125 0.913661 0.00418456 0.401166
0.075776 0.5 1.0125 0.913762 0.0038744 0.413667
0.288069 0.5 0.975 0.913043 0.0118144 0.429369
0.288069 0.5 -0.975 0.91207 0.0122657 0.388441
0.872064 0.5 -0.525 0.864695 0.0464384 0.350411
0.872064 0.5 0.525 0.863559 0.0495529 0.465984
1.00005 0.5 0.224793 0.822245 0.0661227 0.438807
1.00005 0.5 -0.224793 0.824188 0.0636913 0.367258
0.969689 0.5 0.3375 0.83424 0.0622273 0.454053
0.96969 0.5 -0.3375 0.836691 0.0589828 0.355379
1.0271 0.5 -0.0368226 0.810732 0.0694153 0.394885
1.0271 0.5 0.0368226 0.810315 0.0698574 0.407691
0.90582 0.5 0.4875 0.856054 0.0531989 0.465936
0.905821 0.5 -0.4875 0.8577 0.0498121 0.348901
1.0271 0.5 -0.110468 0.812581 0.0685876 0.382568
1.0271 0.5 0.110468 0.810886 0.0702185 0.423524
0.67013 0.5 0.7875 0.897159 0.0307246 0.460218
0.67013 0.5 -0.7875 0.895642 0.029463 0.361028
0.624316 0.5 0.825 0.901031 0.0276918 0.456671
0.624316 0.5 -0.825 0.899308 0.0267941 0.364536
0.219993 0.5 -1.0125 0.913131 0.00960142 0.39264
0.219993 0.5 1.0125 0.913759 0.00908621 0.424168
0.574156 0.5 -0.8625 0.902717 0.0241469 0.368307
0.574156 0.5 0.8625 0.90462 0.0246568 0.452721
0.715434 0.5 -0.75 0.891325 0.0322989 0.35752
0.715434 0.5 0.75 0.892437 0.0340013 0.463469
0.756813 0.5 0.7125 0.887406 0.0372788 0.466294
0.756814 0.5 -0.7125 0.886706 0.0351688 0.354277
0.523432 0.5 -0.9 0.905462 0.0216472 0.372001
0.523432 0.5 0.9 0.907344 0.021871 0.448591
0.939201 0.5 -0.45 0.850127 0.0534043 0.347759
0.939201 0.5 0.45 0.847833 0.0570416 0.465158
1.04168 0.5 0 0.806561 0.071241 0.40075
1.0271 0.5 -0.184113 0.815469 0.0674097 0.370634
1.0271 0.5 0.184113 0.813637 0.0695864 0.433214
0 0.5 -1.04382 0.913545 0 0.406737
0 0.5 1.04382 0.913545 0 0.406737
0.0124865 0.5 -1.04382 0.913569 0.000691631 0.405816
0.0124865 0.5 1.04382 0.913584 0.000641125 0.407882
1.00005 0.5 -0.299723 0.828826 0.0620724 0.356981
1.00005 0.5 0.299723 0.826219 0.065235 0.450225
1.04168 0.5 -0.0729162 0.80775 0.0705897 0.387935
1.04168 0.5 0.0729162 0.806835 0.0715023 0.413879
0.797732 0.5 -0.675 0.881454 0.0382215 0.351156
0.797732 0.5 0.675 0.881563 0.0407742 0.468668
0.467897 0.5 0.9375 0.909818 0.0190792 0.444074
0.467897 0.5 -0.9375 0.907994 0.019155 0.375969
0 0.5 -1.05 0.913545 0 0.406737
0 0.5 1.05 0.913545 0 0.406737
0.835106 0.5 -0.6375 0.875855 0.0413174 0.348317
0.835106 0.5 0.6375 0.875387 0.0442677 0.470588
1.04168 0.5 -0.145832 0.810203 0.0695662 0.375582
1.04168 0.5 0.145832 0.808508 0.0713751 0.426915
0.969689 0.5 -0.4125 0.842172 0.0570437 0.347108
0.96969 0.5 0.4125 0.839319 0.0608601 0.463771
0 0.5 -1.05618 0.913545 0 0.406737
0 0.5 1.05618 0.913545 0 0.406737
0.0124865 0.5 -1.05618 0.913574 0.000668376 0.405792
0.0124865 0.5 1.05618 0.913587 0.000616808 0.407881
1.05695 0.5 -0.0360764 0.802876 0.0725787 0.393499
1.05695 0.5 0.0360764 0.802396 0.0730481 0.406857
0.411736 0.5 -0.975 0.909837 0.0167449 0.37982
0.411736 0.5 0.975 0.911434 0.0164908 0.439472
0.872064 0.5 -0.6 0.869645 0.0445511 0.345763
0.872064 0.5 0.6 0.868549 0.0479032 0.471891
1.0271 0.5 -0.257759 0.819895 0.0658793 0.359343
1.0271 0.5 0.257759 0.817241 0.068878 0.445441
0.151149 0.5 -1.05 0.913454 0.00686027 0.396641
0.151149 0.5 1.05 0.913831 0.00643194 0.419102
1.05695 0.5 0.108229 0.802607 0.0734554 0.420534
1.05695 0.5 -0.108229 0.804855 0.071714 0.380751
1.04168 0.5 -0.218749 0.813966 0.0681851 0.363687
1.04168 0.5 0.218749 0.811518 0.0708605 0.439631
0.90582 0.5 -0.5625 0.863062 0.0478322 0.343524
0.905821 0.5 0.5625 0.861378 0.0515295 0.472709
1.00005 0.5 -0.374654 0.834358 0.0601811 0.347791
1.00005 0.5 0.374654 0.831211 0.0640048 0.460882
0.350249 0.5 1.0125 0.912827 0.0138865 0.434498
0.350249 0.5 -1.0125 0.911503 0.0143251 0.38397
1.05695 0.5 -0.180382 0.807965 0.070492 0.368342
1.05695 0.5 0.180382 0.80574 0.0728143 0.433434
1.07319 0.5 0.0709442 0.798314 0.0750003 0.416124
0.939201 0.5 -0.525 0.855875 0.0513329 0.341577
0.939201 0.5 0.525 0.853443 0.055367 0.472911
1.0271 0.5 -0.331404 0.825327 0.0640602 0.349222
1.0271 0.5 0.331404 0.821993 0.0678078 0.457004
1.08112 0.5 3.23815e-17 0.795689 0.0755349 0.399253
1.04168 0.5 -0.291665 0.819039 0.0664798 0.352731
1.04168 0.5 0.291665 0.815772 0.0699708 0.451799
1.08112 0.5 -0.0709442 0.79699 0.0748446 0.385777
0.969689 0.5 -0.4875 0.848254 0.0548973 0.339994
0.96969 0.5 0.4875 0.845149 0.0592039 0.472553
1.05695 0.5 0.252535 0.809443 0.0721136 0.44619
1.05695 0.5 -0.252535 0.812607 0.0689043 0.356505
0.288069 0.5 -1.05 0.912502 0.011814 0.387977
0.288069 0.5 1.05 0.913504 0.0113122 0.429534
0.075776 0.5 -1.0875 0.913694 0.00404177 0.401023
0.075776 0.5 1.0875 0.913779 0.00372492 0.413663
1.08112 0.5 -0.141888 0.799678 0.0737716 0.372803
1.08145 0.5 0.140165 0.797905 0.0756258 0.427204
0.715434 0.5 0.825 0.895799 0.0325379 0.46583
0.715434 0.5 -0.825 0.894441 0.0308465 0.355652
0.756813 0.5 0.7875 0.891235 0.0357108 0.469207
0.756814 0.5 -0.7875 0.890286 0.0335821 0.352049
0.67013 0.5 -0.8625 0.898296 0.028151 0.359463
0.67013 0.5 0.8625 0.90004 0.0293785 0.462083
0.797732 0.5 -0.75 0.885533 0.0364964 0.348516
0.797732 0.5 0.75 0.885882 0.0391117 0.472203
0.624316 0.5 -0.9 0.901551 0.0256134 0.363239
0.624316 0.5 0.9 0.903475 0.0264619 0.45811
1.00005 0.5 -0.449585 0.84066 0.0580489 0.339783
1.00005 0.5 0.449585 0.837083 0.062458 0.470617
0.835106 0.5 -0.7125 0.880432 0.0394621 0.345197
0.835106 0.5 0.7125 0.880169 0.0425247 0.474806
0.574156 0.5 -0.9375 0.904553 0.0231031 0.367232
0.574157 0.5 0.9375 0.906617 0.0235534 0.453786
1.10076 0.5 -0.0349809 0.790241 0.0774979 0.391412
1.10076 0.5 0.0349809 0.789672 0.0780043 0.405583
1.08112 0.5 -0.212832 0.803736 0.0723309 0.360252
1.08112 0.5 0.212832 0.800699 0.075231 0.440226
0.872064 0.5 -0.675 0.874725 0.0425744 0.342095
0.872064 0.5 0.675 0.873766 0.0460994 0.476862
1.04168 0.5 -0.364581 0.825104 0.0644911 0.342965
1.04168 0.5 0.364581 0.821133 0.068726 0.463187
1.0271 0.5 0.405049 0.827754 0.0663974 0.467691