0 	0.000423892 	0 	0.457544
0.00138042 	0.00069263 	1.34566e-06 	0.457433
0.00276083 	0.000961677 	2.69335e-06 	0.457321
0.00419136 	0.00196036 	1.51716e-05 	0.456954
0.0056219 	0.00295851 	2.76382e-05 	0.456582
0.00710437 	0.00425568 	5.96603e-05 	0.456
0.00858684 	0.00554923 	9.15291e-05 	0.45541
0.0101231 	0.00653313 	0.00012907 	0.45482
0.0116594 	0.00751104 	0.000166185 	0.454222
0.0132515 	0.00829068 	0.00019608 	0.453793
0.0148436 	0.00906376 	0.000225365 	0.453359
0.0164935 	0.00978755 	0.000250308 	0.453112
0.0181433 	0.010505 	0.000274733 	0.452865
0.0198531 	0.0112423 	0.000296999 	0.452776
0.0215629 	0.0119742 	0.000319048 	0.452692
0.0233347 	0.0127423 	0.000338173 	0.452759
0.0251066 	0.0135062 	0.000357373 	0.452834
0.0269428 	0.0142953 	0.000373825 	0.453079
0.0287789 	0.015082 	0.000390542 	0.453335
0.0306818 	0.0158708 	0.000405056 	0.453793
0.0325847 	0.0166597 	0.000419999 	0.454264
0.0345566 	0.0174166 	0.000431504 	0.454952
0.0365285 	0.0181773 	0.00044362 	0.455657
0.0385721 	0.0188521 	0.000448596 	0.456559
0.0406156 	0.019536 	0.000454127 	0.457478
0.0427334 	0.0200595 	0.000452372 	0.458552
0.0448511 	0.0205985 	0.0004509 	0.459644
0.0470457 	0.020896 	0.000447644 	0.460839
0.0492403 	0.021215 	0.000444579 	0.462054
0.0515146 	0.0212286 	0.000441143 	0.463316
0.053789 	0.0212666 	0.000437895 	0.4646
0.0561458 	0.0209807 	0.000433233 	0.465872
0.0585027 	0.0207185 	0.000428716 	0.467166
0.0609451 	0.0201667 	0.000423385 	0.468378
0.0633875 	0.0196356 	0.000418169 	0.469612
0.0659187 	0.0188909 	0.00041268 	0.470687
0.0684498 	0.0181629 	0.000407237 	0.471783
0.0710728 	0.01731 	0.000402648 	0.472627
0.0736958 	0.0164702 	0.000397936 	0.47349
0.0764141 	0.0155753 	0.000396572 	0.474014
0.0791323 	0.0146893 	0.000394811 	0.474553
0.0819493 	0.0137909 	0.000400514 	0.474724
0.0847663 	0.0128956 	0.000405572 	0.474902
0.0876855 	0.0120012 	0.000420866 	0.474752
0.0906046 	0.0111017 	0.000435338 	0.474601
0.0936299 	0.0102345 	0.000459928 	0.474203
0.0966551 	0.00935318 	0.000483642 	0.473797
0.0997904 	0.00856295 	0.000513856 	0.473236
0.102926 	0.00775137 	0.00054335 	0.472663
0.106174 	0.00708865 	0.000573604 	0.472027
0.109423 	0.00640115 	0.000603281 	0.471377
0.11279 	0.00590828 	0.000634183 	0.470738
0.116157 	0.00539229 	0.000664429 	0.470088
0.119646 	0.00507722 	0.000701938 	0.469488
0.123135 	0.00474457 	0.000738981 	0.468877
0.12675 	0.00457866 	0.000783087 	0.468365
0.130366 	0.00440202 	0.000827423 	0.467846
0.134113 	0.00433581 	0.00086801 	0.467449
0.13786 	0.00426443 	0.000909358 	0.467051
0.13786 	0.00426443 	0.000909358 	0.467051
0.141744 	0.00424989 	0.000937301 	0.466756
0.145627 	0.00423334 	0.000965691 	0.466464
0.14965 	0.00423979 	0.000983852 	0.466266
0.153674 	0.00424555 	0.00100195 	0.466072
0.157844 	0.00425937 	0.00101782 	0.465973
0.162015 	0.00427297 	0.00103359 	0.465881
0.166336 	0.0042889 	0.00104994 	0.465869
0.170658 	0.00430479 	0.00106623 	0.465866
0.175137 	0.00432054 	0.00108215 	0.465923
0.179615 	0.00433633 	0.00109803 	0.465991
0.184256 	0.00435105 	0.00111293 	0.466113
0.188897 	0.00436581 	0.00112785 	0.466247
0.193707 	0.0043792 	0.00114175 	0.466419
0.198516 	0.00439266 	0.00115569 	0.466604
0.2035 	0.00440457 	0.00116808 	0.466819
0.208485 	0.00441656 	0.00118055 	0.467047
0.208485 	0.00441656 	0.00118055 	0.467047
0.213649 	0.0044269 	0.00119118 	0.467302
0.218814 	0.00443733 	0.00120199 	0.467571
0.224167 	0.00444596 	0.00121002 	0.467862
0.22952 	0.0044547 	0.00121829 	0.468167
0.235067 	0.00446146 	0.00122262 	0.468478
0.240614 	0.00446833 	0.0012272 	0.468803
0.246363 	0.00447304 	0.00122817 	0.469122
0.252111 	0.00447785 	0.00122939 	0.469454
0.258068 	0.00448016 	0.00122735 	0.469771
0.264025 	0.0044826 	0.00122552 	0.470101
0.270198 	0.00448223 	0.00122064 	0.470399
0.276372 	0.00448196 	0.00121592 	0.47071
0.28277 	0.00447914 	0.00120877 	0.470981
0.289167 	0.00447637 	0.0012017 	0.471263
0.295797 	0.00447173 	0.00119395 	0.47151
0.302426 	0.00446711 	0.00118628 	0.471768
0.309297 	0.00446139 	0.0011772 	0.471939
0.316168 	0.00445565 	0.00116818 	0.472117
0.323288 	0.00444963 	0.00115856 	0.472395
0.330407 	0.00444356 	0.00114905 	0.472687
0.337786 	0.0044379 	0.00114085 	0.47278
0.345164 	0.00443218 	0.00113272 	0.472882
0.345164 	0.00443218 	0.00113272 	0.472882
0.352811 	0.00442723 	0.00112378 	0.472949
0.352811 	0.00442723 	0.00112378 	0.472949
0.360457 	0.00442221 	0.00111487 	0.473025
0.360457 	0.00442221 	0.00111487 	0.473025
0.368381 	0.0044181 	0.00110689 	0.473083
0.368381 	0.0044181 	0.00110689 	0.473083
0.376305 	0.00441392 	0.00109898 	0.473151
0.376305 	0.00441392 	0.00109898 	0.473151
0.384517 	0.00441071 	0.00109307 	0.472943
0.392728 	0.00440745 	0.00108721 	0.472738
0.401238 	0.00440513 	0.00107996 	0.472575
0.409748 	0.00440277 	0.00107271 	0.47242
0.418567 	0.00440121 	0.00106547 	0.47212
0.427386 	0.00439961 	0.00105822 	0.471826
0.436525 	0.00439859 	0.00105216 	0.471435
0.445664 	0.00439756 	0.00104615 	0.47105
0.455134 	0.00439689 	0.00103999 	0.470526
0.464605 	0.00439621 	0.00103382 	0.47001
0.47442 	0.00439575 	0.00102961 	0.46924
0.484235 	0.00439528 	0.0010254 	0.468473
0.494406 	0.00439491 	0.00102179 	0.467607
0.504577 	0.00439455 	0.00101823 	0.466747
0.515117 	0.00439421 	0.00101406 	0.465664
0.525657 	0.00439387 	0.00100989 	0.464588
0.53658 	0.00439348 	0.00100676 	0.463284
0.547503 	0.0043931 	0.00100365 	0.461984
0.558822 	0.0043926 	0.0010006 	0.460479
0.570142 	0.00439211 	0.000997565 	0.458979
0.581872 	0.00439144 	0.000994858 	0.457188
0.593603 	0.00439078 	0.000992144 	0.455401
0.593603 	0.00439078 	0.000992144 	0.455401
0.605759 	0.00438988 	0.000989927 	0.453357
0.605759 	0.00438988 	0.000989927 	0.453357
0.617916 	0.00438899 	0.000987704 	0.451315
0.617916 	0.00438899 	0.000987704 	0.451315
0.630514 	0.00438781 	0.000985689 	0.448951
0.630514 	0.00438781 	0.000985689 	0.448951
0.643111 	0.00438663 	0.000983669 	0.446589
0.643111 	0.00438663 	0.000983669 	0.446589
0.656166 	0.00438513 	0.000982163 	0.44388
0.656166 	0.00438513 	0.000982163 	0.44388
0.669222 	0.00438362 	0.000980634 	0.441173
0.669222 	0.00438362 	0.000980634 	0.441173
0.682751 	0.00438176 	0.000979761 	0.438093
0.69628 	0.00437989 	0.000978851 	0.435013
0.7103 	0.00437764 	0.000978676 	0.431535
0.72432 	0.00437538 	0.000978468 	0.428056
0.73885 	0.00437273 	0.000978874 	0.424144
0.753379 	0.00437007 	0.00097924 	0.42023
0.768436 	0.00436698 	0.000980371 	0.415844
0.783493 	0.00436388 	0.000981445 	0.411455
0.799097 	0.00436034 	0.000983632 	0.406559
0.8147 	0.00435678 	0.000985749 	0.401657
0.83087 	0.00435275 	0.00098924 	0.39622
0.847041 	0.0043487 	0.000992656 	0.390775
0.863798 	0.00434417 	0.000997515 	0.384772
0.880555 	0.00433961 	0.00100231 	0.378759
0.897921 	0.00433455 	0.00100843 	0.372175
0.915286 	0.00432947 	0.00101445 	0.365577
0.933282 	0.00432388 	0.00102249 	0.358408
0.951278 	0.00431826 	0.00103042 	0.351222
0.969927 	0.00431213 	0.00104088 	0.34349
0.988577 	0.00430597 	0.00105119 	0.335737
1.00791 	0.00429933 	0.00106547 	0.327488
1.02723 	0.00429265 	0.00107961 	0.319211
1.04726 	0.0042855 	0.00109717 	0.310521
1.06729 	0.00427832 	0.00111461 	0.3018
1.08804 	0.00427071 	0.00113516 	0.292763
1.1088 	0.00426306 	0.00115554 	0.283692
1.1088 	0.00426306 	0.00115554 	0.283692
1.13031 	0.00425503 	0.00118115 	0.274424
1.15181 	0.00424694 	0.00120655 	0.265119
1.1741 	0.00423855 	0.00123937 	0.255761
1.1964 	0.0042301 	0.00127195 	0.246363
1.21949 	0.00422141 	0.00131318 	0.237056
1.24259 	0.00421266 	0.0013542 	0.227709
1.26653 	0.00420378 	0.00140225 	0.21862
1.29047 	0.00419485 	0.00145005 	0.209491
1.31528 	0.00418566 	0.00150577 	0.200646
1.34008 	0.00417642 	0.00156125 	0.191761
1.36579 	0.00416749 	0.00162523 	0.183477
1.3915 	0.00415853 	0.00168908 	0.175157
1.41814 	0.00414719 	0.00179863 	0.166913
1.44478 	0.00413582 	0.00190789 	0.158634
1.47239 	0.00413268 	0.0019554 	0.1527
1.5 	0.00412955 	0.00200276 	0.146741
1.51094 	0.00412405 	0.00203582 	0.143573
1.52189 	0.00411856 	0.00206888 	0.140405
1.53371 	0.00411239 	0.00210522 	0.137276
1.54554 	0.00410646 	0.00214229 	0.1341
1.54909 	0.00410468 	0.00215393 	0.133215
1.55263 	0.00410291 	0.00216557 	0.132329
1.5614 	0.00409937 	0.00219893 	0.130155
1.57016 	0.00409582 	0.00223228 	0.127981
1.58298 	0.00409022 	0.00228359 	0.12509
1.5958 	0.00408514 	0.00233564 	0.122107
1.60346 	0.00408194 	0.00236859 	0.120478
1.61111 	0.00407873 	0.00240153 	0.118848
1.61681 	0.00407654 	0.00242563 	0.117643
1.6225 	0.00407435 	0.00244973 	0.116438
1.6364 	0.00406884 	0.00251028 	0.113752
1.6503 	0.00406372 	0.00257254 	0.110996
1.66339 	0.00405848 	0.00263236 	0.108649
1.67647 	0.00405324 	0.00269218 	0.106301
1.67786 	0.0040527 	0.00269836 	0.106039
1.67925 	0.00405216 	0.00270455 	0.105777
1.69433 	0.00404618 	0.0027749 	0.103136
1.7094 	0.00404029 	0.00284577 	0.100476
1.7251 	0.00403351 	0.00292008 	0.098007
1.74079 	0.00402707 	0.00299571 	0.0954885
1.7454 	0.00402522 	0.00301846 	0.0948083
1.75 	0.00402337 	0.00304121 	0.0941281
1.76174 	0.00401867 	0.00309674 	0.0922568
1.77348 	0.00401397 	0.00315227 	0.0903855
1.7905 	0.0040069 	0.00322792 	0.0879869
1.80751 	0.00400085 	0.00330895 	0.0854521
1.82042 	0.00399613 	0.00336791 	0.0837442
1.83333 	0.00399141 	0.00342688 	0.0820362
1.83815 	0.00398965 	0.0034501 	0.0813515
1.84296 	0.00398788 	0.00347332 	0.0806668
1.86142 	0.00398156 	0.00356996 	0.0782572
1.87987 	0.00397561 	0.00366882 	0.0757954
1.89908 	0.0039692 	0.0037696 	0.073554
1.9183 	0.00396312 	0.00387063 	0.0712654
1.92343 	0.00396154 	0.0038992 	0.0707008
1.92857 	0.00395995 	0.00392778 	0.0701362
1.94344 	0.00395532 	0.0040132 	0.0684296
1.95832 	0.00395069 	0.00409862 	0.0667229
1.95832 	0.00395069 	0.00409862 	0.0667229
1.97916 	0.00394429 	0.00425343 	0.0643675
2 	0.00393882 	0.00440674 	0.0618696
