0 	6.46915e-05 	0 	0.0310383
0.00184055 	0.000127487 	4.49953e-07 	0.031037
0.00368111 	0.000194174 	9.08435e-07 	0.0310356
0.00558849 	0.000602808 	7.69187e-06 	0.0310309
0.00749587 	0.00102292 	1.47502e-05 	0.0310255
0.00947248 	0.00181223 	4.28136e-05 	0.0310138
0.0114491 	0.00261764 	7.21777e-05 	0.0310005
0.0134975 	0.00341091 	0.000130672 	0.0309776
0.0155459 	0.00422205 	0.000191905 	0.0309517
0.0176687 	0.00485035 	0.000277056 	0.0309169
0.0197915 	0.005495 	0.000365764 	0.0308778
0.0219913 	0.00600634 	0.000471061 	0.0308336
0.0241911 	0.00653011 	0.000580032 	0.0307845
0.0264709 	0.0069654 	0.000700501 	0.0307338
0.0287506 	0.00741064 	0.00082449 	0.030678
0.031113 	0.00779423 	0.000956727 	0.0306225
0.0334755 	0.0081863 	0.00109223 	0.0305619
0.0359238 	0.00853293 	0.00123377 	0.0305027
0.038372 	0.00888711 	0.00137827 	0.0304386
0.038372 	0.00888711 	0.00137827 	0.0304386
0.0409091 	0.00920617 	0.0015272 	0.0303765
0.0409092 	0.00920617 	0.0015272 	0.0303765
0.0434463 	0.00953218 	0.00167872 	0.0303097
0.0434463 	0.00953218 	0.00167872 	0.0303097
0.0460755 	0.00983002 	0.00183333 	0.0302457
0.0460756 	0.00983002 	0.00183333 	0.0302457
0.0487048 	0.0101344 	0.00199009 	0.030177
0.0487048 	0.0101344 	0.00199009 	0.030177
0.0514295 	0.0104155 	0.00214891 	0.0301116
0.0514296 	0.0104155 	0.00214891 	0.0301116
0.0541543 	0.0107028 	0.00230947 	0.0300419
0.0541543 	0.0107028 	0.00230947 	0.0300419
0.0569779 	0.0109704 	0.00247139 	0.0299755
0.0598016 	0.011244 	0.00263467 	0.029905
0.0627277 	0.0115003 	0.00279867 	0.029838
0.0656539 	0.0117626 	0.0029636 	0.029767
0.0686863 	0.0120094 	0.00312866 	0.0296996
0.0717187 	0.0122622 	0.00329415 	0.0296286
0.0739617 	0.0124327 	0.00341199 	0.0295806
0.0762047 	0.0126048 	0.00352981 	0.0295317
0.0771042 	0.0126752 	0.00357703 	0.0295113
0.0780037 	0.0127457 	0.00362425 	0.0294909
0.0808939 	0.0129515 	0.00376994 	0.0294315
0.0837842 	0.0131614 	0.0039152 	0.0293702
0.0841505 	0.0131883 	0.00393358 	0.0293623
0.0845169 	0.0132153 	0.00395196 	0.0293544
0.0878917 	0.0134411 	0.00411423 	0.0292884
0.0912666 	0.0136727 	0.00427541 	0.0292201
0.0947639 	0.0138931 	0.00443489 	0.0291552
0.0982613 	0.0141194 	0.00459281 	0.0290884
0.101886 	0.014335 	0.00474867 	0.0290249
0.10551 	0.0145565 	0.00490247 	0.02896
0.108191 	0.0147072 	0.0050105 	0.0289158
0.110872 	0.0148597 	0.00511782 	0.0288713
0.111947 	0.0149222 	0.00516024 	0.0288533
0.113022 	0.0149848 	0.00520265 	0.0288353
0.116476 	0.0151687 	0.00533221 	0.028782
0.11993 	0.0153568 	0.00545966 	0.0287285
0.120368 	0.0153809 	0.00547567 	0.0287217
0.120806 	0.0154051 	0.00549168 	0.0287149
0.12484 	0.0156084 	0.00563156 	0.028657
0.128874 	0.0158177 	0.00576825 	0.0285992
0.133054 	0.0160174 	0.00590152 	0.0285435
0.137234 	0.016223 	0.00603159 	0.0284884
0.141565 	0.0164191 	0.00615798 	0.0284349
0.145897 	0.0166211 	0.00628124 	0.0283826
0.150386 	0.0168135 	0.00640065 	0.0283314
0.154876 	0.017012 	0.00651681 	0.0282818
0.159528 	0.0172008 	0.00662905 	0.028233
0.16418 	0.0173956 	0.00673786 	0.0281861
0.169001 	0.0175805 	0.00684267 	0.0281396
0.173822 	0.0177716 	0.00694392 	0.0280954
0.178818 	0.0179525 	0.00704112 	0.0280513
0.183814 	0.0181396 	0.0071347 	0.0280097
0.188991 	0.0183163 	0.0072242 	0.0279678
0.194169 	0.0184991 	0.00731009 	0.0279287
0.197999 	0.018622 	0.00736846 	0.0279003
0.201828 	0.0187467 	0.00742583 	0.0278728
0.203364 	0.0187982 	0.00744796 	0.0278626
0.2049 	0.0188497 	0.00747009 	0.0278523
0.209834 	0.0189982 	0.00753587 	0.0278188
0.214769 	0.0191512 	0.00759916 	0.0277876
0.215394 	0.0191709 	0.00760701 	0.0277838
0.21602 	0.0191906 	0.00761486 	0.0277801
0.221782 	0.0193529 	0.00768144 	0.0277441
0.227544 	0.0195213 	0.00774468 	0.0277116
0.231806 	0.0196332 	0.00778695 	0.027687
0.236068 	0.0197469 	0.00782832 	0.0276634
0.237778 	0.019794 	0.00784412 	0.0276549
0.239487 	0.019841 	0.00785992 	0.0276463
0.244979 	0.0199751 	0.00790615 	0.0276168
0.250471 	0.0201134 	0.00795022 	0.0275901
0.251167 	0.0201312 	0.00795565 	0.0275869
0.251863 	0.0201491 	0.00796109 	0.0275837
0.252584 	0.0201654 	0.00796618 	0.0275801
0.253306 	0.0201817 	0.00797127 	0.0275765
0.258997 	0.0203102 	0.00801144 	0.0275478
0.264688 	0.0204447 	0.00804883 	0.0275232
0.27096 	0.0205753 	0.00808541 	0.0274934
0.277232 	0.0207108 	0.0081198 	0.0274672
0.277606 	0.020719 	0.0081218 	0.0274657
0.27798 	0.0207272 	0.0081238 	0.0274643
0.284867 	0.0208588 	0.0081564 	0.027433
0.291753 	0.0209959 	0.00818667 	0.027406
0.29889 	0.0211204 	0.00821353 	0.0273747
0.306027 	0.0212503 	0.00823825 	0.0273477
0.311306 	0.0213339 	0.00825357 	0.027325
0.316585 	0.0214189 	0.00826834 	0.0273034
0.318702 	0.0214543 	0.00827378 	0.0272959
0.320819 	0.0214897 	0.00827923 	0.0272883
0.327621 	0.021587 	0.00829383 	0.0272592
0.334423 	0.0216877 	0.00830714 	0.0272331
0.335286 	0.0217007 	0.00830874 	0.02723
0.336148 	0.0217138 	0.00831033 	0.0272269
0.344091 	0.0218158 	0.00832221 	0.0271925
0.352034 	0.0219222 	0.0083324 	0.0271622
0.360265 	0.0220166 	0.00834009 	0.0271256
0.368496 	0.0221149 	0.0083462 	0.0270928
0.374585 	0.0221769 	0.008349 	0.0270647
0.380674 	0.0222398 	0.00835136 	0.0270375
0.383115 	0.0222659 	0.00835192 	0.0270275
0.385557 	0.022292 	0.00835249 	0.0270174
0.393402 	0.0223625 	0.00835302 	0.0269792
0.401247 	0.0224352 	0.00835242 	0.0269431
0.402242 	0.0224445 	0.00835226 	0.0269387
0.403236 	0.0224539 	0.0083521 	0.0269342
0.403236 	0.0224539 	0.0083521 	0.0269342
0.412396 	0.0225263 	0.00834984 	0.0268868
0.421557 	0.0226013 	0.00834591 	0.0268416
0.43105 	0.0226673 	0.00834121 	0.026789
0.440544 	0.0227353 	0.00833476 	0.0267376
0.450382 	0.0227956 	0.00832818 	0.0266788
0.46022 	0.0228575 	0.00831966 	0.0266202
0.470415 	0.0229131 	0.00831181 	0.0265542
0.48061 	0.0229701 	0.00830184 	0.0264873
0.491175 	0.0230222 	0.00829339 	0.026413
0.501741 	0.0230757 	0.00828263 	0.0263365
0.509556 	0.0231113 	0.00827673 	0.0262769
0.517371 	0.0231474 	0.00827013 	0.0262162
0.520505 	0.0231623 	0.00826686 	0.0261909
0.523639 	0.0231773 	0.0082636 	0.0261656
0.533709 	0.0232209 	0.00825711 	0.0260823
0.543779 	0.0232664 	0.00824869 	0.0259949
0.545056 	0.0232723 	0.00824749 	0.0259836
0.546332 	0.0232782 	0.00824629 	0.0259722
0.558091 	0.0233281 	0.00824068 	0.025867
0.569849 	0.0233818 	0.00823225 	0.0257541
0.582034 	0.0234336 	0.00822906 	0.0256365
0.594219 	0.023491 	0.00822293 	0.0255092
0.606847 	0.0235455 	0.00822272 	0.0253782
0.619475 	0.0236079 	0.00821956 	0.0252355
0.630287 	0.0236551 	0.00822225 	0.0251155
0.6411 	0.0237081 	0.00822335 	0.0249876
0.643373 	0.0237203 	0.0082233 	0.0249594
0.645647 	0.0237325 	0.00822325 	0.0249311
0.656157 	0.0237779 	0.00822884 	0.0248071
0.666667 	0.0238289 	0.00823329 	0.024676
0.669719 	0.0238457 	0.00823418 	0.0246354
0.67277 	0.0238625 	0.00823507 	0.0245949
0.686823 	0.0239197 	0.00824659 	0.0244195
0.700877 	0.0239914 	0.00825583 	0.0242256
0.715441 	0.0240425 	0.00827182 	0.0240345
0.730005 	0.024108 	0.00828599 	0.0238226
0.742475 	0.0241394 	0.00830289 	0.0236514
0.754946 	0.0241777 	0.00831905 	0.0234672
0.757568 	0.024187 	0.00832232 	0.0234262
0.76019 	0.0241963 	0.00832558 	0.0233852
0.772312 	0.0242087 	0.00834468 	0.0232119
0.784434 	0.0242243 	0.00836343 	0.0230276
0.787953 	0.02423 	0.00836875 	0.0229701
0.791472 	0.0242357 	0.00837407 	0.0229126
0.80768 	0.0242201 	0.00840233 	0.0226722
0.823889 	0.0242043 	0.00843034 	0.0224042
0.840686 	0.0241481 	0.00846144 	0.0221465
0.857483 	0.0240821 	0.00849304 	0.0218592
0.87489 	0.0239784 	0.00852607 	0.0215836
0.892297 	0.0238557 	0.00856094 	0.0212755
0.910336 	0.023702 	0.00859488 	0.0209808
0.928375 	0.0235219 	0.00863258 	0.0206503
0.947068 	0.0233198 	0.00866597 	0.0203354
0.965762 	0.0230876 	0.00870549 	0.0199815
0.985136 	0.0228427 	0.00873596 	0.019646
1.00451 	0.022569 	0.00877533 	0.019268
1.02458 	0.0222895 	0.00879922 	0.0189113
1.04466 	0.0219875 	0.00883464 	0.0185084
1.06546 	0.0216806 	0.0088468 	0.01813
1.08627 	0.0213602 	0.00887231 	0.0177018
1.10783 	0.0210291 	0.0088663 	0.0173019
1.12939 	0.0206931 	0.00887413 	0.0168491
1.15173 	0.0203345 	0.00884272 	0.0164286
1.17408 	0.0199773 	0.00882414 	0.0159528
1.19723 	0.0195817 	0.00876023 	0.0155134
1.22038 	0.0191898 	0.00870693 	0.0150169
1.24437 	0.0187422 	0.00860466 	0.0145604
1.26837 	0.0182968 	0.00851003 	0.0140456
1.29323 	0.0177793 	0.0083657 	0.0135738
1.3181 	0.0172591 	0.00822571 	0.0130431
1.34387 	0.0166543 	0.00803853 	0.0125575
1.36964 	0.0160391 	0.00785232 	0.0120128
1.36964 	0.0160391 	0.00785232 	0.0120128
1.39634 	0.0153363 	0.00762634 	0.0115151
1.39634 	0.0153363 	0.00762634 	0.0115151
1.42305 	0.0146136 	0.00739809 	0.0109586
1.42305 	0.0146136 	0.00739809 	0.0109586
1.45072 	0.0138176 	0.00714535 	0.0104504
1.4784 	0.0129918 	0.00688734 	0.00988423
1.50708 	0.0121327 	0.00663265 	0.00936812
1.53576 	0.0112363 	0.00637009 	0.00879515
1.56548 	0.0103769 	0.00615664 	0.00827469
1.5952 	0.00947719 	0.00593331 	0.00769936
1.5952 	0.00947719 	0.00593331 	0.00769936
1.626 	0.00870377 	0.0058243 	0.00718004
1.626 	0.00870377 	0.0058243 	0.00718004
1.65679 	0.00789252 	0.0057043 	0.00660896
1.65679 	0.00789252 	0.0057043 	0.00660896
1.68871 	0.00728289 	0.00577248 	0.00609793
1.68871 	0.00728289 	0.00577248 	0.00609793
1.72063 	0.00664288 	0.00583064 	0.00553944
1.72063 	0.00664288 	0.00583064 	0.00553944
1.75371 	0.0062285 	0.0061325 	0.00504413
1.75371 	0.0062285 	0.0061325 	0.00504413
1.78678 	0.00579397 	0.00642867 	0.00450657
1.78678 	0.00579397 	0.00642867 	0.00450657
1.82106 	0.00554874 	0.00697503 	0.0040324
1.85533 	0.00529283 	0.00752341 	0.00352185
1.89086 	0.00515993 	0.00827825 	0.00307009
1.92638 	0.00502246 	0.00904373 	0.0025877
1.96319 	0.00495049 	0.00995899 	0.00216148
2 	0.00487667 	0.0108903 	0.00170952
