0 	0 	0 	0
0.00184055 	0.0564972 	-1.94389e-05 	0.000201209
0.00368111 	0.111735 	-4.16925e-05 	0.000413433
0.00558849 	0.16316 	-0.000111001 	0.000565995
0.00749587 	0.213064 	-0.00019046 	0.000724217
0.00947248 	0.251075 	-0.000311517 	0.000812685
0.0114491 	0.287445 	-0.000448869 	0.000901888
0.0121669 	0.295701 	-0.000499757 	0.00091527
0.0128847 	0.303957 	-0.000550646 	0.000928652
0.0128847 	0.303957 	-0.000550646 	0.000928652
0.0142153 	0.317931 	-0.000661684 	0.000951782
0.0155459 	0.331905 	-0.000772721 	0.000974913
0.0176687 	0.345582 	-0.00094686 	0.000987081
0.0183037 	0.349356 	-0.00100448 	0.00099012
0.0190476 	0.353777 	-0.00107198 	0.00099368
0.0197915 	0.358197 	-0.00113948 	0.000997241
0.0197915 	0.358197 	-0.00113948 	0.000997241
0.0219913 	0.367145 	-0.00133425 	0.000998712
0.0241911 	0.375337 	-0.0015479 	0.000998505
0.0264709 	0.381745 	-0.0017609 	0.000995191
0.0287506 	0.387614 	-0.00199239 	0.000990491
0.0311131 	0.392538 	-0.00221972 	0.000984868
0.0334755 	0.397073 	-0.00246569 	0.000978066
0.0359238 	0.401071 	-0.0027058 	0.000971269
0.038372 	0.404779 	-0.0029651 	0.000963446
0.0405947 	0.407775 	-0.00318363 	0.000957058
0.0405947 	0.407775 	-0.00318363 	0.000957058
0.0420205 	0.409553 	-0.00333631 	0.000952383
0.0428174 	0.410546 	-0.00342165 	0.00094977
0.0434463 	0.41133 	-0.00348899 	0.000947708
0.0460755 	0.414298 	-0.00375258 	0.000939949
0.0464014 	0.414643 	-0.0037877 	0.000938889
0.0475531 	0.415864 	-0.00391182 	0.000935143
0.0487048 	0.417085 	-0.00403594 	0.000931398
0.0487048 	0.417085 	-0.00403594 	0.000931398
0.0514295 	0.419752 	-0.00431041 	0.000923448
0.0514296 	0.419752 	-0.00431041 	0.000923448
0.0541543 	0.422272 	-0.00460505 	0.000914807
0.0541543 	0.422272 	-0.00460505 	0.000914807
0.056978 	0.424718 	-0.00489005 	0.000906756
0.0598016 	0.427042 	-0.00519569 	0.00089812
0.0627278 	0.429325 	-0.00549097 	0.000890022
0.0656539 	0.431504 	-0.00580734 	0.000881456
0.0686863 	0.433664 	-0.0061127 	0.000873336
0.0717187 	0.435735 	-0.00643958 	0.000864861
0.0748612 	0.437803 	-0.00675482 	0.000856725
0.0780037 	0.439795 	-0.00709203 	0.000848328
0.0805714 	0.441386 	-0.00734351 	0.00084194
0.0831391 	0.442911 	-0.00761737 	0.000835356
0.083828 	0.443321 	-0.00769085 	0.00083359
0.0845169 	0.44373 	-0.00776432 	0.000831824
0.0870048 	0.445183 	-0.00800489 	0.000825837
0.0894926 	0.44658 	-0.00826823 	0.000819699
0.0903796 	0.447078 	-0.00836212 	0.00081751
0.0912666 	0.447576 	-0.008456 	0.000815322
0.094764 	0.449494 	-0.00879972 	0.00080712
0.0982613 	0.451362 	-0.00916653 	0.000798804
0.0993197 	0.451921 	-0.00926661 	0.000796408
0.100378 	0.452481 	-0.00936669 	0.000794013
0.102944 	0.4538 	-0.00962904 	0.00078814
0.10551 	0.455113 	-0.00989529 	0.000782255
0.107621 	0.456182 	-0.0100927 	0.000777611
0.109731 	0.457228 	-0.0103043 	0.000772944
0.111377 	0.458038 	-0.0104729 	0.000769301
0.113022 	0.458848 	-0.0106415 	0.000765657
0.116091 	0.460341 	-0.0109279 	0.000759082
0.119159 	0.461802 	-0.011238 	0.000752507
0.119983 	0.462194 	-0.0113212 	0.000750743
0.120806 	0.462586 	-0.0114044 	0.00074898
0.123073 	0.463656 	-0.0116108 	0.00074424
0.12534 	0.464709 	-0.0118315 	0.000739521
0.127107 	0.465526 	-0.0120073 	0.000735849
0.128874 	0.466343 	-0.012183 	0.000732177
0.132902 	0.468182 	-0.0125528 	0.000723965
0.13693 	0.469997 	-0.0129464 	0.000715815
0.137082 	0.470065 	-0.0129613 	0.000715508
0.137234 	0.470134 	-0.0129761 	0.000715201
0.139668 	0.471222 	-0.0131902 	0.000710326
0.142102 	0.472299 	-0.0134187 	0.000705497
0.144 	0.473135 	-0.0136005 	0.000701745
0.145897 	0.473972 	-0.0137823 	0.000697993
0.150387 	0.475929 	-0.0141793 	0.000689199
0.154876 	0.47787 	-0.0145999 	0.000680488
0.159528 	0.479861 	-0.015002 	0.00067151
0.16418 	0.48184 	-0.0154273 	0.000662609
0.169001 	0.483871 	-0.0158334 	0.000653409
0.173822 	0.485893 	-0.0162622 	0.000644262
0.178818 	0.487969 	-0.0166712 	0.000634794
0.183814 	0.490041 	-0.0171023 	0.00062534
0.187896 	0.491718 	-0.0174216 	0.000617637
0.191979 	0.493393 	-0.0177622 	0.000609883
0.193074 	0.493843 	-0.0178535 	0.000607803
0.194169 	0.494293 	-0.0179449 	0.000605723
0.197184 	0.495519 	-0.018171 	0.000600052
0.200199 	0.496746 	-0.0184093 	0.000594295
0.20255 	0.497702 	-0.0185981 	0.000589787
0.2049 	0.498659 	-0.018787 	0.000585278
0.21046 	0.500902 	-0.0191966 	0.000574698
0.21602 	0.503149 	-0.0196252 	0.000563859
0.221782 	0.505457 	-0.0200317 	0.000552783
0.227544 	0.507773 	-0.0204559 	0.000541314
0.22859 	0.508189 	-0.020525 	0.000539312
0.229637 	0.508605 	-0.0205941 	0.000537311
0.234562 	0.510569 	-0.0209305 	0.000527522
0.239487 	0.512539 	-0.0212749 	0.000517463
0.2403 	0.51286 	-0.0213259 	0.000515885
0.241113 	0.513182 	-0.0213769 	0.000514307
0.246488 	0.515314 	-0.0217229 	0.000503439
0.251863 	0.517455 	-0.0220778 	0.000492128
0.258275 	0.519984 	-0.0224626 	0.000479075
0.264688 	0.522529 	-0.0228597 	0.000465118
0.269928 	0.524584 	-0.0231515 	0.000454417
0.275168 	0.526657 	-0.0234535 	0.000442587
0.276574 	0.527213 	-0.0235345 	0.000439414
0.27798 	0.52777 	-0.0236155 	0.00043624
0.278708 	0.528054 	-0.023653 	0.000434737
0.279437 	0.528338 	-0.0236906 	0.000433234
0.285595 	0.530753 	-0.0240124 	0.000419739
0.291753 	0.533182 	-0.0243396 	0.00040529
0.29889 	0.535967 	-0.0246802 	0.000389489
0.306027 	0.538774 	-0.025026 	0.000372079
0.313423 	0.541651 	-0.0253461 	0.000355217
0.320819 	0.544551 	-0.0256686 	0.00033649
0.328484 	0.547522 	-0.025965 	0.00031853
0.336148 	0.550519 	-0.0262609 	0.000298438
0.342411 	0.552932 	-0.0264739 	0.000283891
0.348674 	0.555372 	-0.0266835 	0.000266941
0.350354 	0.556026 	-0.0267398 	0.000262393
0.352034 	0.556681 	-0.026796 	0.000257846
0.35666 	0.558454 	-0.0269318 	0.0002471
0.361285 	0.560244 	-0.0270637 	0.000234744
0.364891 	0.561643 	-0.0271656 	0.000224702
0.368496 	0.563043 	-0.0272675 	0.00021466
0.377027 	0.56631 	-0.0274727 	0.000193233
0.385557 	0.569608 	-0.0276688 	0.000168889
0.385557 	0.569608 	-0.0276688 	0.000168889
0.394396 	0.572977 	-0.0278372 	0.000146339
0.403236 	0.576379 	-0.0279936 	0.000120644
0.410717 	0.57921 	-0.0281013 	0.000101984
0.418198 	0.582075 	-0.0281944 	7.99901e-05
0.419878 	0.582718 	-0.0282153 	7.50528e-05
0.421557 	0.583361 	-0.0282362 	7.01155e-05
0.428442 	0.585947 	-0.0283035 	5.32326e-05
0.435327 	0.58857 	-0.0283537 	3.28938e-05
0.437935 	0.589564 	-0.0283727 	2.51873e-05
0.440544 	0.590557 	-0.0283917 	1.74809e-05
0.450382 	0.594245 	-0.0284336 	-8.07254e-06
0.46022 	0.597973 	-0.0284562 	-3.71139e-05
0.470415 	0.601769 	-0.0284522 	-6.3549e-05
0.48061 	0.605612 	-0.0284271 	-9.3393e-05
0.482062 	0.606146 	-0.0284214 	-9.69293e-05
0.483513 	0.60668 	-0.0284158 	-0.000100466
0.492627 	0.610066 	-0.0283663 	-0.000124666
0.501741 	0.613483 	-0.0283032 	-0.000150818
0.51269 	0.61751 	-0.028206 	-0.000178272
0.523639 	0.621597 	-0.0280853 	-0.000208617
0.531868 	0.624588 	-0.0279882 	-0.000227831
0.540096 	0.627648 	-0.0278673 	-0.000249505
0.543214 	0.628808 	-0.0278215 	-0.000257717
0.546332 	0.629967 	-0.0277757 	-0.000265929
0.558091 	0.634247 	-0.027589 	-0.000292906
0.569849 	0.63861 	-0.0273787 	-0.000321803
0.582034 	0.643029 	-0.0271511 	-0.00034785
0.594219 	0.647546 	-0.0269009 	-0.000375177
0.606847 	0.652115 	-0.026636 	-0.000399759
0.619475 	0.656802 	-0.0263503 	-0.000424901
0.632561 	0.661533 	-0.0260529 	-0.000447465
0.645647 	0.666405 	-0.0257372 	-0.000469814
0.648698 	0.667493 	-0.0256656 	-0.000474413
0.65175 	0.668582 	-0.0255941 	-0.000479012
0.66226 	0.672456 	-0.0253364 	-0.000494096
0.67277 	0.67639 	-0.0250733 	-0.000508818
0.67512 	0.677229 	-0.0250163 	-0.000511781
0.677471 	0.678069 	-0.0249594 	-0.000514743
0.689174 	0.682379 	-0.0246684 	-0.0005283
0.700877 	0.686794 	-0.0243718 	-0.000540917
0.715441 	0.69211 	-0.0240123 	-0.000554366
0.730005 	0.697656 	-0.0236467 	-0.000565303
0.745097 	0.703205 	-0.0232801 	-0.000574923
0.76019 	0.709019 	-0.0229124 	-0.000581423
0.770223 	0.712657 	-0.0226762 	-0.000586017
0.780256 	0.716547 	-0.0224433 	-0.000587621
0.785864 	0.718736 	-0.0223133 	-0.000588347
0.791472 	0.720924 	-0.0221833 	-0.000589073
0.80391 	0.725505 	-0.021905 	-0.000591245
0.816348 	0.730426 	-0.0216359 	-0.000589479
0.820119 	0.731918 	-0.0215543 	-0.000588943
0.823889 	0.73341 	-0.0214727 	-0.000588408
0.840686 	0.739771 	-0.0211259 	-0.000586231
0.857483 	0.746509 	-0.0207929 	-0.000579924
0.87489 	0.753173 	-0.0204649 	-0.000574259
0.892297 	0.760247 	-0.0201546 	-0.000564406
0.910336 	0.767225 	-0.0198504 	-0.000555731
0.928375 	0.774642 	-0.0195669 	-0.000542935
0.947069 	0.781941 	-0.0192899 	-0.000531868
0.965762 	0.789702 	-0.0190355 	-0.000516859
0.985136 	0.797324 	-0.0187877 	-0.00050408
1.00451 	0.805421 	-0.0185637 	-0.000487643
1.02459 	0.813362 	-0.0183472 	-0.000473801
1.04466 	0.821783 	-0.0181557 	-0.000456702
1.06547 	0.830038 	-0.0179719 	-0.000442353
1.08627 	0.838766 	-0.0178134 	-0.000425259
1.10783 	0.847325 	-0.0176616 	-0.00041089
1.12939 	0.856341 	-0.0175344 	-0.000394369
1.15174 	0.865189 	-0.017412 	-0.000380466
1.17408 	0.874475 	-0.0173133 	-0.00036504
1.19723 	0.883591 	-0.0172161 	-0.000352002
1.22038 	0.893129 	-0.0171416 	-0.000338079
1.24438 	0.902487 	-0.0170629 	-0.000326136
1.26837 	0.912256 	-0.0170061 	-0.000313925
1.29324 	0.921821 	-0.0169369 	-0.000303229
1.3181 	0.931789 	-0.0168884 	-0.000292787
1.34387 	0.9415 	-0.016817 	-0.000283416
1.36964 	0.951612 	-0.0167644 	-0.000274682
1.39635 	0.961365 	-0.016677 	-0.000266536
1.42305 	0.971521 	-0.0166057 	-0.000259287
1.42685 	0.97282 	-0.0165886 	-0.000258236
1.43065 	0.974119 	-0.0165716 	-0.000257184
1.43275 	0.974834 	-0.0165622 	-0.000256606
1.45557 	0.982903 	-0.016468 	-0.00025099
1.4784 	0.991173 	-0.0163797 	-0.000245887
1.48665 	0.993779 	-0.0163312 	-0.000243829
1.4949 	0.996385 	-0.0162827 	-0.00024177
1.52571 	1.00664 	-0.0161097 	-0.000235421
1.52571 	1.00664 	-0.0161097 	-0.000235421
1.53073 	1.00833 	-0.0160817 	-0.000234414
1.53073 	1.00833 	-0.0160817 	-0.000234414
1.53576 	1.01001 	-0.0160536 	-0.000233407
1.53576 	1.01001 	-0.0160536 	-0.000233407
1.56548 	1.01845 	-0.015828 	-0.000226591
1.56548 	1.01845 	-0.015828 	-0.000226591
1.5952 	1.02724 	-0.015601 	-0.000220556
1.5952 	1.02724 	-0.015601 	-0.000220556
1.60599 	1.0297 	-0.0155006 	-0.000217903
1.61678 	1.03217 	-0.0154003 	-0.000215251
1.62599 	1.0344 	-0.0153105 	-0.00021319
1.65679 	1.04186 	-0.0150105 	-0.000206302
