0 	0 	0 	0
0.00184056 	-0.122496 	-0.000198452 	-0.0008537
0.00368111 	-0.246414 	-0.000381628 	-0.00172728
0.00558849 	-0.321008 	-0.00100303 	-0.00231591
0.00749587 	-0.39743 	-0.00158973 	-0.00291367
0.00947248 	-0.426777 	-0.00239398 	-0.00320923
0.0114491 	-0.457408 	-0.00316249 	-0.00350754
0.0134975 	-0.467808 	-0.00399654 	-0.00365477
0.0155459 	-0.478815 	-0.00479776 	-0.0038013
0.0176687 	-0.483284 	-0.00567431 	-0.00389381
0.0197915 	-0.488068 	-0.00651736 	-0.0039844
0.0219913 	-0.490252 	-0.00743998 	-0.00405342
0.0241911 	-0.492627 	-0.00832668 	-0.00412003
0.0264709 	-0.493715 	-0.00928608 	-0.00417684
0.0287506 	-0.494935 	-0.0102088 	-0.00423099
0.031113 	-0.495406 	-0.011197 	-0.00428049
0.0334755 	-0.495977 	-0.0121477 	-0.00432716
0.0359238 	-0.496059 	-0.0131624 	-0.00437182
0.038372 	-0.496221 	-0.0141385 	-0.00441351
0.0409092 	-0.496037 	-0.0151789 	-0.0044547
0.0434463 	-0.495919 	-0.0161797 	-0.00449279
0.0460755 	-0.495539 	-0.0172452 	-0.00453132
0.0487048 	-0.495216 	-0.0182701 	-0.00456664
0.0514296 	-0.494685 	-0.0193601 	-0.00460296
0.0541543 	-0.494202 	-0.0204085 	-0.00463597
0.0569779 	-0.493548 	-0.0215226 	-0.00467036
0.0598016 	-0.492937 	-0.022594 	-0.00470135
0.0627277 	-0.492178 	-0.0237318 	-0.00473394
0.0656539 	-0.491459 	-0.0248258 	-0.00476306
0.0686863 	-0.49061 	-0.0259869 	-0.00479392
0.0717187 	-0.489797 	-0.0271031 	-0.00482122
0.0748612 	-0.488867 	-0.0282869 	-0.00485031
0.0780037 	-0.48797 	-0.0294249 	-0.00487576
0.0812603 	-0.486965 	-0.030631 	-0.00490294
0.0845169 	-0.485991 	-0.0317901 	-0.00492641
0.0878918 	-0.484914 	-0.033018 	-0.00495147
0.0912666 	-0.483865 	-0.0341978 	-0.00497278
0.0947639 	-0.482718 	-0.0354468 	-0.00499547
0.0982613 	-0.481597 	-0.0366467 	-0.00501437
0.101886 	-0.480379 	-0.0379161 	-0.0050344
0.10551 	-0.479186 	-0.0391354 	-0.00505061
0.109266 	-0.477898 	-0.0404245 	-0.00506765
0.113022 	-0.476633 	-0.0416625 	-0.00508085
0.116914 	-0.475273 	-0.0429704 	-0.00509456
0.120806 	-0.473934 	-0.0442261 	-0.00510445
0.12484 	-0.4725 	-0.0455519 	-0.00511446
0.128874 	-0.471087 	-0.0468246 	-0.00512068
0.130964 	-0.470332 	-0.0474958 	-0.00512367
0.133054 	-0.469577 	-0.0481671 	-0.00512665
0.135144 	-0.468831 	-0.0488113 	-0.00512775
0.137234 	-0.468086 	-0.0494556 	-0.00512885
0.137234 	-0.468086 	-0.0494556 	-0.00512885
0.141566 	-0.466498 	-0.0508137 	-0.00513035
0.145897 	-0.464928 	-0.0521169 	-0.00512813
0.150387 	-0.463258 	-0.0534894 	-0.00512471
0.154876 	-0.461606 	-0.0548062 	-0.00511763
0.159528 	-0.459851 	-0.0561917 	-0.00510884
0.16418 	-0.458113 	-0.0575207 	-0.00509647
0.169001 	-0.45627 	-0.0589177 	-0.00508182
0.173822 	-0.454442 	-0.0602575 	-0.00506369
0.178818 	-0.452505 	-0.0616644 	-0.00504268
0.183814 	-0.450583 	-0.0630134 	-0.00501833
0.188992 	-0.448549 	-0.0644284 	-0.00499045
0.194169 	-0.446528 	-0.065785 	-0.00495941
0.199535 	-0.444391 	-0.0672062 	-0.00492412
0.2049 	-0.442266 	-0.0685684 	-0.00488592
0.21046 	-0.44002 	-0.0699938 	-0.00484268
0.21602 	-0.437785 	-0.0713595 	-0.00479684
0.221782 	-0.435424 	-0.0727868 	-0.00474516
0.227544 	-0.433073 	-0.074154 	-0.00469124
0.227917 	-0.432918 	-0.0742431 	-0.00468746
0.22829 	-0.432762 	-0.0743323 	-0.00468367
0.233889 	-0.430436 	-0.0756661 	-0.0046268
0.239487 	-0.428116 	-0.0769471 	-0.00456833
0.245288 	-0.425668 	-0.0782818 	-0.00450297
0.251089 	-0.423226 	-0.0795636 	-0.00443641
0.251476 	-0.423063 	-0.0796488 	-0.00443196
0.251863 	-0.4229 	-0.079734 	-0.00442752
0.258276 	-0.420153 	-0.081152 	-0.00434836
0.264688 	-0.417409 	-0.0825095 	-0.00426836
0.271334 	-0.414517 	-0.0839189 	-0.00417959
0.27798 	-0.411627 	-0.0852681 	-0.00409057
0.284867 	-0.408581 	-0.086666 	-0.00399215
0.291753 	-0.405535 	-0.0880042 	-0.00389411
0.29889 	-0.402327 	-0.0893875 	-0.00378612
0.306027 	-0.399117 	-0.0907119 	-0.0036792
0.313423 	-0.395737 	-0.0920777 	-0.00356186
0.320819 	-0.392353 	-0.0933856 	-0.00344634
0.328484 	-0.388792 	-0.0947308 	-0.00332005
0.336148 	-0.385224 	-0.0960191 	-0.00319635
0.344091 	-0.381471 	-0.0973406 	-0.00306168
0.352034 	-0.377708 	-0.0986064 	-0.00293044
0.352034 	-0.377708 	-0.0986064 	-0.00293044
0.360265 	-0.373752 	-0.099901 	-0.0027881
0.368496 	-0.369783 	-0.101141 	-0.00265012
0.377026 	-0.365613 	-0.102406 	-0.00250098
0.385557 	-0.361425 	-0.103617 	-0.00235717
0.394396 	-0.357029 	-0.104848 	-0.00220235
0.403236 	-0.352611 	-0.106028 	-0.00205374
0.412396 	-0.347976 	-0.107222 	-0.00189454
0.421557 	-0.343313 	-0.108366 	-0.00174237
0.43105 	-0.338425 	-0.10952 	-0.00158025
0.440544 	-0.333505 	-0.110626 	-0.0014259
0.450382 	-0.32835 	-0.111735 	-0.0012625
0.46022 	-0.323158 	-0.112799 	-0.00110754
0.470415 	-0.31772 	-0.113861 	-0.000944682
0.48061 	-0.31224 	-0.114879 	-0.000790811
0.491175 	-0.306504 	-0.115889 	-0.000630595
0.501741 	-0.300719 	-0.116857 	-0.000479697
0.51269 	-0.294667 	-0.117812 	-0.000324512
0.523639 	-0.288561 	-0.118727 	-0.000178755
0.534985 	-0.282173 	-0.119623 	-3.10623e-05
0.546332 	-0.275727 	-0.120479 	0.000107191
0.55809 	-0.268985 	-0.121312 	0.000245274
0.569849 	-0.262179 	-0.122106 	0.000373843
0.582034 	-0.25506 	-0.12287 	0.000500371
0.594219 	-0.247874 	-0.123598 	0.000617368
0.606847 	-0.240354 	-0.12429 	0.000730207
0.619475 	-0.232764 	-0.124946 	0.00083374
0.632561 	-0.22482 	-0.125562 	0.000930636
0.645647 	-0.216801 	-0.126141 	0.00101875
0.659208 	-0.208404 	-0.126676 	0.0010977
0.67277 	-0.199931 	-0.127174 	0.00116858
0.686823 	-0.19105 	-0.127623 	0.00122826
0.700877 	-0.182094 	-0.128035 	0.00128063
0.715441 	-0.172698 	-0.128392 	0.00132061
0.730005 	-0.163227 	-0.128712 	0.0013541
0.745097 	-0.153278 	-0.128973 	0.00137475
0.76019 	-0.143259 	-0.129195 	0.00138977
0.775831 	-0.132717 	-0.129354 	0.00139218
0.791472 	-0.122111 	-0.129473 	0.00138989
0.80768 	-0.11093 	-0.129523 	0.00137587
0.823889 	-0.0996925 	-0.129533 	0.00135813
0.840686 	-0.0878197 	-0.12947 	0.00133028
0.857483 	-0.0759016 	-0.129365 	0.00129973
0.87489 	-0.0632744 	-0.129181 	0.00126146
0.892297 	-0.0506163 	-0.128956 	0.00122156
0.910336 	-0.0371602 	-0.128647 	0.00117691
0.928375 	-0.0236908 	-0.128295 	0.00113183
0.928375 	-0.0236908 	-0.128295 	0.00113183
0.947068 	-0.00931418 	-0.127857 	0.00108543
0.965762 	0.00505435 	-0.127375 	0.00103988
0.985136 	0.0204649 	-0.126805 	0.000996734
1.00451 	0.0358423 	-0.126192 	0.000955887
1.02458 	0.0524271 	-0.12549 	0.000920966
1.04466 	0.0689505 	-0.124746 	0.000890014
1.06546 	0.0868893 	-0.123919 	0.000867498
1.08627 	0.104736 	-0.123049 	0.000850957
1.10783 	0.124259 	-0.122112 	0.00084395
1.12939 	0.143659 	-0.121132 	0.000845151
1.15173 	0.165063 	-0.120108 	0.000855465
1.17408 	0.186316 	-0.119043 	0.000876225
1.19723 	0.209981 	-0.117967 	0.000903745
1.22038 	0.233476 	-0.116852 	0.000943873
1.24437 	0.259883 	-0.11577 	0.000985856
1.26837 	0.286127 	-0.114654 	0.00104247
1.29323 	0.315869 	-0.113617 	0.00109305
1.3181 	0.34549 	-0.112555 	0.00115975
1.34387 	0.379263 	-0.111613 	0.00120952
1.36964 	0.413018 	-0.11066 	0.00127571
1.39634 	0.451577 	-0.109846 	0.00131226
1.42305 	0.490304 	-0.109035 	0.0013639
1.45072 	0.534359 	-0.108338 	0.00137398
1.4784 	0.578861 	-0.107658 	0.00139588
1.50708 	0.628876 	-0.10701 	0.00136853
1.53576 	0.679695 	-0.106383 	0.001348
1.56548 	0.7355 	-0.105637 	0.00127836
1.5952 	0.792511 	-0.104901 	0.00120972
1.62599 	0.852224 	-0.103806 	0.00110268
1.65679 	0.913542 	-0.102704 	0.000991573
1.68871 	0.971905 	-0.100872 	0.000864924
1.72063 	1.03218 	-0.0990362 	0.000731162
1.7537 	1.07978 	-0.096072 	0.00061515
1.78678 	1.12923 	-0.0931601 	0.000491793
1.82105 	1.15739 	-0.0891255 	0.000415799
1.85533 	1.1867 	-0.0852495 	0.000334759
1.89085 	1.1968 	-0.0807512 	0.000300368
1.92638 	1.20722 	-0.0764739 	0.000263934
1.96319 	1.20757 	-0.0721594 	0.000248625
2 	1.20776 	-0.0680604 	0.000232874
2 	1.20776 	-0.0680604 	0.000232874
2.00182 	1.20757 	-0.0678667 	0.00023237
2.00364 	1.20738 	-0.067673 	0.000231866
