0 	0.000619022 	0 	-0.0219415
0.00184055 	0.0011157 	3.59524e-06 	-0.0219501
0.00368111 	0.00161239 	7.19047e-06 	-0.0219586
0.00558849 	0.00355343 	3.9451e-05 	-0.0219948
0.00749587 	0.00549447 	7.17115e-05 	-0.022031
0.00947248 	0.00810862 	0.000164385 	-0.0221185
0.0114491 	0.0107228 	0.000257059 	-0.022206
0.0134975 	0.0127617 	0.000408985 	-0.0223583
0.0155459 	0.0148006 	0.00056091 	-0.0225107
0.0176687 	0.0163589 	0.000754223 	-0.0227155
0.0197915 	0.0179171 	0.000947537 	-0.0229204
0.0219913 	0.0191828 	0.00117064 	-0.0231597
0.0241911 	0.0204486 	0.00139375 	-0.023399
0.0264708 	0.0215251 	0.00164017 	-0.0236626
0.0287506 	0.0226016 	0.0018866 	-0.0239262
0.031113 	0.0235454 	0.00215219 	-0.0242101
0.0334755 	0.0244892 	0.00241779 	-0.024494
0.0359237 	0.025334 	0.00269955 	-0.0247952
0.038372 	0.0261788 	0.00298131 	-0.0250964
0.0409091 	0.0269462 	0.0032767 	-0.0254118
0.0434463 	0.0277137 	0.0035721 	-0.0257273
0.0460755 	0.0284186 	0.00387906 	-0.0260544
0.0487048 	0.0291235 	0.00418602 	-0.0263815
0.0514295 	0.0297759 	0.00450283 	-0.0267182
0.0541543 	0.0304284 	0.00481964 	-0.0270549
0.0569779 	0.0310357 	0.00514468 	-0.0273996
0.0598016 	0.031643 	0.00546972 	-0.0277443
0.0627277 	0.0322106 	0.00580142 	-0.0280953
0.0656539 	0.0327782 	0.00613313 	-0.0284463
0.0686863 	0.0333103 	0.0064698 	-0.0288019
0.0717187 	0.0338425 	0.00680647 	-0.0291576
0.0748612 	0.0343427 	0.0071464 	-0.0295161
0.0780037 	0.0348428 	0.00748633 	-0.0298746
0.0812603 	0.0353137 	0.00782805 	-0.0302345
0.0845169 	0.0357846 	0.00816978 	-0.0305944
0.0878917 	0.0362284 	0.00851193 	-0.0309542
0.0912666 	0.0366723 	0.00885407 	-0.0313139
0.0947639 	0.0370908 	0.00919502 	-0.0316721
0.0982613 	0.0375093 	0.00953598 	-0.0320303
0.101886 	0.0379041 	0.00987422 	-0.0323853
0.10551 	0.0382989 	0.0102125 	-0.0327402
0.109266 	0.038671 	0.0105467 	-0.0330906
0.113022 	0.0390432 	0.0108809 	-0.0334409
0.116914 	0.0393939 	0.0112096 	-0.0337854
0.120806 	0.0397446 	0.0115384 	-0.03413
0.12484 	0.0400746 	0.0118603 	-0.0344669
0.128874 	0.0404046 	0.0121821 	-0.0348038
0.133054 	0.0407148 	0.0124937 	-0.035127
0.137234 	0.041025 	0.0128053 	-0.0354501
0.141565 	0.0413165 	0.0130858 	-0.0357491
0.145897 	0.0416079 	0.0133664 	-0.0360481
0.150386 	0.0418825 	0.0135867 	-0.0363219
0.154876 	0.0421571 	0.0138069 	-0.0365957
0.159528 	0.0424161 	0.0139826 	-0.0368617
0.16418 	0.0426752 	0.0141583 	-0.0371276
0.169001 	0.0429185 	0.0143248 	-0.0374068
0.173822 	0.0431619 	0.0144912 	-0.037686
0.178818 	0.0433885 	0.0146588 	-0.0379862
0.183814 	0.043615 	0.0148264 	-0.0382865
0.188991 	0.0438237 	0.0149974 	-0.0386045
0.194169 	0.0440324 	0.0151684 	-0.0389224
0.199534 	0.0442226 	0.0153455 	-0.0392529
0.2049 	0.0444127 	0.0155225 	-0.0395834
0.21046 	0.0445839 	0.0157123 	-0.0399235
0.21602 	0.0447551 	0.015902 	-0.0402635
0.221782 	0.0449075 	0.0161122 	-0.0406108
0.227544 	0.04506 	0.0163223 	-0.040958
0.233515 	0.0451944 	0.0165548 	-0.0413063
0.239487 	0.0453287 	0.0167873 	-0.0416546
0.245675 	0.0454466 	0.0170354 	-0.0419908
0.251863 	0.0455644 	0.0172835 	-0.0423271
0.258275 	0.0456681 	0.017536 	-0.042632
0.264688 	0.0457717 	0.0177885 	-0.042937
0.271334 	0.0458641 	0.0180159 	-0.0431911
0.27798 	0.0459565 	0.0182433 	-0.0434451
0.284866 	0.046041 	0.0184158 	-0.04364
0.291753 	0.0461256 	0.0185884 	-0.0438348
0.29889 	0.0462058 	0.0186946 	-0.0439809
0.306027 	0.0462861 	0.0188008 	-0.044127
0.313423 	0.0463653 	0.0188578 	-0.0442385
0.320819 	0.0464445 	0.0189149 	-0.04435
0.328483 	0.0465256 	0.0189512 	-0.0444402
0.336148 	0.0466066 	0.0189876 	-0.0445305
0.344091 	0.046692 	0.0190108 	-0.0446099
0.352034 	0.0467774 	0.019034 	-0.0446892
0.360265 	0.0468692 	0.019046 	-0.0447556
0.368496 	0.0469611 	0.019058 	-0.044822
0.377026 	0.0470612 	0.0190606 	-0.0448703
0.385557 	0.0471613 	0.0190632 	-0.0449186
0.394396 	0.0472712 	0.0190578 	-0.0449463
0.403236 	0.047381 	0.0190524 	-0.0449741
0.403236 	0.047381 	0.0190524 	-0.0449741
0.412396 	0.0475016 	0.0190405 	-0.0449862
0.421557 	0.0476221 	0.0190286 	-0.0449983
0.431051 	0.0477539 	0.0190114 	-0.0450026
0.440544 	0.0478857 	0.0189942 	-0.0450069
0.450382 	0.0480288 	0.0189728 	-0.0449817
0.46022 	0.0481719 	0.0189514 	-0.0449564
0.470415 	0.0483258 	0.0189266 	-0.0449106
0.48061 	0.0484798 	0.0189017 	-0.0448647
0.491175 	0.0486436 	0.0188739 	-0.044815
0.501741 	0.0488075 	0.0188461 	-0.0447652
0.51269 	0.04898 	0.0188155 	-0.044679
0.523639 	0.0491525 	0.0187849 	-0.0445927
0.534986 	0.049332 	0.0187515 	-0.0444897
0.546332 	0.0495115 	0.0187182 	-0.0443866
0.558091 	0.049696 	0.018682 	-0.0442586
0.569849 	0.0498804 	0.0186457 	-0.0441306
0.582034 	0.0500674 	0.0186062 	-0.043984
0.594219 	0.0502545 	0.0185667 	-0.0438373
0.606847 	0.0504414 	0.0185234 	-0.043685
0.619475 	0.0506284 	0.0184801 	-0.0435326
0.632561 	0.0508123 	0.0184324 	-0.04335
0.645647 	0.0509962 	0.0183847 	-0.0431673
0.659208 	0.0511738 	0.0183318 	-0.0429688
0.67277 	0.0513515 	0.018279 	-0.0427702
0.686824 	0.0515196 	0.0182205 	-0.0425629
0.700877 	0.0516877 	0.018162 	-0.0423556
0.715441 	0.0518433 	0.0180971 	-0.0421394
0.730005 	0.0519988 	0.0180323 	-0.0419232
0.745097 	0.0521388 	0.0179605 	-0.0417023
0.76019 	0.0522788 	0.0178888 	-0.0414814
0.775831 	0.0524007 	0.0178093 	-0.0412612
0.791472 	0.0525226 	0.0177299 	-0.0410411
0.807681 	0.0526245 	0.0176419 	-0.0408296
0.823889 	0.0527265 	0.0175539 	-0.0406182
0.840686 	0.0528068 	0.017456 	-0.0404243
0.857483 	0.052887 	0.017358 	-0.0402305
0.87489 	0.0529435 	0.0172482 	-0.0400587
0.892297 	0.0529999 	0.0171383 	-0.0398869
0.910336 	0.0530304 	0.0170141 	-0.0397392
0.928375 	0.0530608 	0.0168899 	-0.0395914
0.947068 	0.0530627 	0.0167491 	-0.0394718
0.965762 	0.0530646 	0.0166083 	-0.0393521
1.00451 	0.0530047 	0.0162891 	-0.039178
1.04466 	0.0528712 	0.0159274 	-0.0390738
1.08627 	0.0526495 	0.0155189 	-0.0390654
1.08627 	0.0526495 	0.0155189 	-0.0390654
1.10783 	0.0524844 	0.015289 	-0.03913
1.12939 	0.0523193 	0.015059 	-0.0391945
1.15174 	0.0520856 	0.0148002 	-0.0393496
1.17408 	0.0518519 	0.0145414 	-0.0395047
1.19723 	0.0515288 	0.0142531 	-0.0397684
1.22038 	0.0512057 	0.0139649 	-0.040032
1.24438 	0.0507615 	0.0136502 	-0.0404231
1.26837 	0.0503173 	0.0133355 	-0.0408141
1.29324 	0.0497004 	0.012984 	-0.0413532
1.3181 	0.0490834 	0.0126325 	-0.0418923
1.34387 	0.0482142 	0.0122314 	-0.0425822
1.36964 	0.0473449 	0.0118303 	-0.0432722
1.39635 	0.0461099 	0.0113707 	-0.044098
1.42305 	0.0448748 	0.0109111 	-0.0449239
1.45073 	0.0431279 	0.0103809 	-0.0458366
1.4784 	0.0413809 	0.00985074 	-0.0467494
1.50708 	0.0389618 	0.00924132 	-0.0476505
1.53576 	0.0365427 	0.0086319 	-0.0485516
1.5952 	0.0301955 	0.00727091 	-0.0499902
1.65679 	0.0227428 	0.00588128 	-0.0507562
1.65679 	0.0227428 	0.00588128 	-0.0507562
1.68871 	0.0191085 	0.00530898 	-0.0507729
1.72063 	0.0154742 	0.00473668 	-0.0507896
1.75371 	0.0127655 	0.00450079 	-0.0505706
1.78678 	0.0100569 	0.0042649 	-0.0503516
1.82105 	0.00861528 	0.00456259 	-0.0501429
1.85533 	0.00717366 	0.00486028 	-0.0499342
1.89085 	0.00661155 	0.00566372 	-0.0498021
1.92638 	0.00604944 	0.00646717 	-0.04967
1.96319 	0.00585348 	0.00738556 	-0.0502749
2 	0.00565752 	0.00830394 	-0.0508798
2 	0.00565752 	0.00830394 	-0.0508798
2.03636 	0.00553964 	0.00906318 	-0.0515606
2.07273 	0.00542177 	0.00982242 	-0.0522415
