0 	0 	0 	0
0.00138042 	-0.0768346 	-0.000248689 	-0.00035915
0.00276083 	-0.153634 	-0.000498004 	-0.000719438
0.00419136 	-0.202668 	-0.00128367 	-0.0010374
0.0056219 	-0.251697 	-0.0020715 	-0.00135653
0.00710437 	-0.272122 	-0.00317627 	-0.00154401
0.00858684 	-0.292565 	-0.00428459 	-0.0017322
0.0101231 	-0.298727 	-0.0054583 	-0.00182316
0.0116594 	-0.3049 	-0.00663579 	-0.00191436
0.0132515 	-0.306664 	-0.00786213 	-0.0019677
0.0148436 	-0.308435 	-0.00909224 	-0.00202109
0.0164935 	-0.308657 	-0.0103909 	-0.00205968
0.0181433 	-0.308884 	-0.0116935 	-0.00209825
0.0198531 	-0.308417 	-0.0130516 	-0.00213015
0.0215629 	-0.307955 	-0.0144138 	-0.002162
0.0233347 	-0.307117 	-0.0158197 	-0.0021906
0.0251066 	-0.306283 	-0.0172297 	-0.00221915
0.0269428 	-0.305214 	-0.0186801 	-0.00224616
0.0287789 	-0.304149 	-0.0201348 	-0.0022731
0.0306818 	-0.302922 	-0.0216292 	-0.00229946
0.0325847 	-0.301698 	-0.0231278 	-0.00232575
0.0345566 	-0.300353 	-0.0246665 	-0.00235207
0.0365285 	-0.299011 	-0.0262095 	-0.00237832
0.0385721 	-0.297571 	-0.0277932 	-0.002405
0.0406156 	-0.296135 	-0.0293813 	-0.00243161
0.0427334 	-0.294617 	-0.0310109 	-0.00245894
0.0448511 	-0.293101 	-0.0326449 	-0.0024862
0.0470457 	-0.291513 	-0.0343212 	-0.00251443
0.0492403 	-0.289928 	-0.0360019 	-0.00254258
0.0515146 	-0.288278 	-0.0377259 	-0.0025719
0.053789 	-0.28663 	-0.0394545 	-0.00260114
0.0561458 	-0.28492 	-0.0412282 	-0.00263173
0.0585027 	-0.283213 	-0.0430066 	-0.00266224
0.0609451 	-0.281444 	-0.0448324 	-0.00269428
0.0633875 	-0.279678 	-0.0466629 	-0.00272624
0.0659187 	-0.277847 	-0.0485333 	-0.00275991
0.0684498 	-0.276018 	-0.0504084 	-0.00279351
0.0710728 	-0.274097 	-0.0523238 	-0.00282943
0.0736958 	-0.272178 	-0.0542441 	-0.00286528
0.0764141 	-0.270115 	-0.0562244 	-0.00290464
0.0791323 	-0.268053 	-0.05821 	-0.00294395
0.0819493 	-0.265817 	-0.0602582 	-0.00298749
0.0847663 	-0.263581 	-0.0623117 	-0.00303098
0.0876855 	-0.26117 	-0.0644172 	-0.00307854
0.0906046 	-0.258761 	-0.0665279 	-0.00312604
0.0936299 	-0.256186 	-0.0686888 	-0.00317722
0.0966551 	-0.253613 	-0.070855 	-0.00322832
0.0997904 	-0.250884 	-0.0730706 	-0.00328274
0.102926 	-0.248157 	-0.0752915 	-0.00333709
0.102926 	-0.248157 	-0.0752915 	-0.00333709
0.106174 	-0.245284 	-0.0775587 	-0.00339437
0.109423 	-0.242412 	-0.0798311 	-0.00345158
0.11279 	-0.239406 	-0.0821459 	-0.00351133
0.116157 	-0.236402 	-0.0844658 	-0.00357101
0.119646 	-0.233274 	-0.0868242 	-0.00363281
0.123135 	-0.230149 	-0.0891877 	-0.00369453
0.12675 	-0.226912 	-0.0915852 	-0.00375796
0.130366 	-0.223678 	-0.0939878 	-0.00382131
0.134113 	-0.220344 	-0.0964196 	-0.00388591
0.13786 	-0.217013 	-0.0988566 	-0.00395045
0.141744 	-0.213594 	-0.101318 	-0.0040158
0.145627 	-0.210179 	-0.103784 	-0.00408108
0.14965 	-0.206688 	-0.106269 	-0.00414671
0.153674 	-0.2032 	-0.108758 	-0.0042123
0.157844 	-0.199648 	-0.111262 	-0.00427775
0.162015 	-0.196099 	-0.11377 	-0.00434317
0.166336 	-0.192498 	-0.116285 	-0.00440797
0.170658 	-0.188899 	-0.118806 	-0.00447274
0.175137 	-0.18526 	-0.121327 	-0.00453637
0.179615 	-0.181624 	-0.123853 	-0.0046
0.184256 	-0.177957 	-0.126374 	-0.00466196
0.188897 	-0.174292 	-0.1289 	-0.00472395
0.193707 	-0.170607 	-0.131414 	-0.00478373
0.198516 	-0.166924 	-0.133933 	-0.00484356
0.2035 	-0.16323 	-0.136434 	-0.00490062
0.208485 	-0.159538 	-0.138939 	-0.00495775
0.213649 	-0.155841 	-0.14142 	-0.00501155
0.218814 	-0.152147 	-0.143905 	-0.00506546
0.224167 	-0.148456 	-0.146358 	-0.00511549
0.22952 	-0.144766 	-0.148816 	-0.00516564
0.22952 	-0.144766 	-0.148816 	-0.00516564
0.235067 	-0.141083 	-0.151235 	-0.00521137
0.240614 	-0.137403 	-0.153658 	-0.00525724
0.246363 	-0.133734 	-0.156038 	-0.00529809
0.252111 	-0.130067 	-0.158423 	-0.00533913
0.258068 	-0.126415 	-0.160756 	-0.00537455
0.264025 	-0.122764 	-0.163093 	-0.00541019
0.270198 	-0.119115 	-0.165367 	-0.00543975
0.276372 	-0.115468 	-0.167645 	-0.00546955
0.28277 	-0.111777 	-0.16986 	-0.00549225
0.289167 	-0.108088 	-0.17208 	-0.00551523
0.295797 	-0.104303 	-0.174243 	-0.00552925
0.302426 	-0.100519 	-0.17641 	-0.0055436
0.309297 	-0.0966214 	-0.178506 	-0.00554737
0.316168 	-0.0927256 	-0.180607 	-0.0055515
0.323288 	-0.0887238 	-0.182617 	-0.00554392
0.330407 	-0.0847241 	-0.184632 	-0.00553674
0.337786 	-0.080628 	-0.186544 	-0.00551685
0.345164 	-0.0765339 	-0.188461 	-0.0054974
0.352811 	-0.0723503 	-0.190259 	-0.00546435
0.360457 	-0.0681687 	-0.192062 	-0.00543177
0.368381 	-0.0639033 	-0.193732 	-0.00538477
0.376305 	-0.05964 	-0.195406 	-0.00533826
0.384517 	-0.0552972 	-0.196935 	-0.00527667
0.392728 	-0.0509568 	-0.198468 	-0.00521558
0.401238 	-0.0465385 	-0.199842 	-0.00513899
0.409748 	-0.0421226 	-0.20122 	-0.00506292
0.418567 	-0.0376283 	-0.202418 	-0.00497104
0.427386 	-0.0331368 	-0.203621 	-0.00487967
0.436525 	-0.0285635 	-0.204619 	-0.00477257
0.445664 	-0.0239933 	-0.205621 	-0.00466597
0.455134 	-0.0193328 	-0.206398 	-0.00454418
0.464605 	-0.0146758 	-0.207179 	-0.00442286
0.47442 	-0.00991663 	-0.207714 	-0.00428697
0.484235 	-0.00516122 	-0.208252 	-0.0041515
0.494406 	-0.000288145 	-0.208531 	-0.00400244
0.504577 	0.00458077 	-0.208813 	-0.00385373
0.515117 	0.00958742 	-0.208829 	-0.00369283
0.525657 	0.0145895 	-0.208846 	-0.00353222
0.53658 	0.0197522 	-0.208588 	-0.00336116
0.547503 	0.0249098 	-0.20833 	-0.00319031
0.558822 	0.0302549 	-0.207787 	-0.00301099
0.570142 	0.0355944 	-0.207243 	-0.0028318
0.581872 	0.0411532 	-0.206408 	-0.00264618
0.593603 	0.0467058 	-0.205573 	-0.00246058
0.605759 	0.0525154 	-0.204441 	-0.00227115
0.617916 	0.0583183 	-0.203307 	-0.00208162
0.630514 	0.0644221 	-0.201871 	-0.00189124
0.643111 	0.0705187 	-0.200432 	-0.00170062
0.656166 	0.0769694 	-0.198685 	-0.00151226
0.669222 	0.0834123 	-0.196934 	-0.00132353
0.682751 	0.0902665 	-0.19488 	-0.00114018
0.69628 	0.0971123 	-0.19282 	-0.000956346
0.7103 	0.104432 	-0.19047 	-0.000780895
0.72432 	0.111744 	-0.188111 	-0.000604836
0.73885 	0.119611 	-0.185482 	-0.000440299
0.753379 	0.127469 	-0.182842 	-0.000275047
0.753379 	0.127469 	-0.182842 	-0.000275047
0.768436 	0.13597 	-0.179967 	-0.000124138
0.783493 	0.144461 	-0.177078 	2.75613e-05
0.799097 	0.153681 	-0.174005 	0.000163013
0.8147 	0.162891 	-0.170915 	0.000299307
0.83087 	0.172923 	-0.167692 	0.000417842
0.847041 	0.182945 	-0.164449 	0.000537254
0.863798 	0.193892 	-0.161121 	0.000637726
0.880555 	0.20483 	-0.157772 	0.000739071
0.897921 	0.216785 	-0.154415 	0.000821354
0.915286 	0.228734 	-0.151034 	0.000904463
0.933282 	0.241763 	-0.147746 	0.000968659
0.951278 	0.254789 	-0.144434 	0.00103361
0.969927 	0.268951 	-0.141271 	0.00108095
0.988577 	0.283111 	-0.138084 	0.00112895
1.00791 	0.298477 	-0.135132 	0.00116007
1.02723 	0.313838 	-0.13216 	0.00119177
1.04726 	0.330505 	-0.129525 	0.00120681
1.06729 	0.347166 	-0.126874 	0.00122236
1.08804 	0.36518 	-0.124607 	0.0012234
1.1088 	0.383184 	-0.122328 	0.00122488
1.13031 	0.40263 	-0.120411 	0.00121332
1.15181 	0.422063 	-0.118487 	0.00120215
1.1741 	0.443071 	-0.116905 	0.00117861
1.1964 	0.464058 	-0.115319 	0.00115541
1.21949 	0.486847 	-0.114037 	0.00112041
1.24259 	0.509607 	-0.112752 	0.00108571
1.26653 	0.534413 	-0.111802 	0.00103938
1.29047 	0.559183 	-0.110852 	0.000993326
1.31528 	0.586532 	-0.110117 	0.000937228
1.34008 	0.613838 	-0.109383 	0.000881353
1.36579 	0.643609 	-0.110076 	0.000816888
1.3915 	0.673335 	-0.11077 	0.000752547
1.41814 	0.709254 	-0.110828 	0.000674677
1.44478 	0.745117 	-0.110885 	0.000596905
1.47239 	0.772727 	-0.106579 	0.000535863
1.5 	0.800307 	-0.102263 	0.000474873
1.5 	0.800307 	-0.102263 	0.000474873
1.51094 	0.815148 	-0.101461 	0.000442879
1.51095 	0.815148 	-0.101461 	0.000442879
1.52189 	0.829989 	-0.100658 	0.000410885
1.52189 	0.829989 	-0.100658 	0.000410885
1.53371 	0.845735 	-0.0998404 	0.000378065
1.53372 	0.845735 	-0.0998404 	0.000378065
1.54554 	0.861557 	-0.0989823 	0.000345054
1.54554 	0.861557 	-0.0989823 	0.000345054
1.54909 	0.866164 	-0.098723 	0.000335796
1.54909 	0.866164 	-0.098723 	0.000335796
1.55263 	0.870772 	-0.0984636 	0.000326538
1.55263 	0.870772 	-0.0984636 	0.000326538
1.5614 	0.881159 	-0.0985888 	0.000305156
1.57016 	0.891547 	-0.0987139 	0.000283774
1.58298 	0.905999 	-0.0987836 	0.000255695
1.5958 	0.920598 	-0.0988355 	0.000227132
1.60346 	0.928823 	-0.0987899 	0.000212096
1.61111 	0.937048 	-0.0987443 	0.00019706
1.61681 	0.943227 	-0.0985803 	0.000185759
1.6225 	0.949407 	-0.0984164 	0.000174458
1.6364 	0.963476 	-0.0979269 	0.000150128
1.6503 	0.977683 	-0.0973976 	0.000125464
1.66339 	0.989853 	-0.0968365 	0.000105733
1.67647 	1.00202 	-0.0962754 	8.60022e-05
1.67786 	1.00331 	-0.0962066 	8.3963e-05
1.67925 	1.0046 	-0.0961378 	8.19238e-05
1.69433 	1.01714 	-0.095277 	6.39306e-05
1.7094 	1.0297 	-0.094407 	4.5853e-05
1.7251 	1.04089 	-0.0934569 	3.23586e-05
1.74079 	1.05214 	-0.0924792 	1.85941e-05
1.7454 	1.05488 	-0.0921695 	1.59755e-05
1.75 	1.05761 	-0.0918597 	1.3357e-05
1.76174 	1.0645 	-0.0910872 	7.12993e-06
1.77348 	1.07138 	-0.0903146 	9.02902e-07
1.7905 	1.07914 	-0.0891465 	-3.28287e-06
1.80751 	1.08706 	-0.0879132 	-8.12396e-06
1.82042 	1.09141 	-0.0869382 	-9.10701e-06
1.83333 	1.09577 	-0.0859632 	-1.00901e-05
1.83815 	1.09737 	-0.0856059 	-1.03454e-05
1.84296 	1.09896 	-0.0852486 	-1.06008e-05
1.86142 	1.10307 	-0.083772 	-9.83311e-06
1.87987 	1.10724 	-0.0822692 	-9.21108e-06
1.89909 	1.10977 	-0.0806872 	-7.74251e-06
1.9183 	1.11235 	-0.079078 	-6.39353e-06
1.92343 	1.1127 	-0.0786889 	-6.0739e-06
1.92857 	1.11304 	-0.0782997 	-5.75427e-06
1.94344 	1.11404 	-0.077193 	-4.62857e-06
1.95832 	1.11503 	-0.0760863 	-3.50287e-06
1.97916 	1.11539 	-0.0741808 	-2.02013e-06
2 	1.11579 	-0.0721738 	-9.49614e-07
2 	1.11579 	-0.0721738 	-9.49614e-07
2.03636 	1.11533 	-0.0696735 	1.85939e-06
2.07273 	1.11486 	-0.0670436 	4.13606e-06
