1 	0 	0 	0
1.00104 	0.102363 	-0.0146437 	-1.90886e-05
1.00208 	0.205513 	-0.0280737 	-3.73795e-05
1.00317 	0.247483 	-0.0309495 	-4.27487e-05
1.00425 	0.297265 	-0.0338079 	-4.88778e-05
1.00538 	0.319248 	-0.0369072 	-4.72477e-05
1.00651 	0.352125 	-0.0395327 	-4.76212e-05
1.00769 	0.370712 	-0.0403147 	-4.36492e-05
1.00887 	0.39648 	-0.0403488 	-4.14689e-05
1.0101 	0.414175 	-0.039873 	-3.8266e-05
1.01132 	0.433891 	-0.038414 	-3.53245e-05
1.01132 	0.433891 	-0.038414 	-3.53245e-05
1.01259 	0.450572 	-0.0375858 	-3.41089e-05
1.0126 	0.450572 	-0.0375858 	-3.41089e-05
1.01387 	0.465524 	-0.0352469 	-3.23663e-05
1.01387 	0.465524 	-0.0352469 	-3.23663e-05
1.01519 	0.480772 	-0.0338368 	-3.18551e-05
1.0152 	0.480772 	-0.0338368 	-3.18551e-05
1.01652 	0.492916 	-0.0312512 	-3.08683e-05
1.01652 	0.492916 	-0.0312512 	-3.08683e-05
1.0179 	0.506502 	-0.0293515 	-2.93983e-05
1.01791 	0.506502 	-0.0293515 	-2.93983e-05
1.01929 	0.51698 	-0.0269137 	-2.76162e-05
1.01929 	0.51698 	-0.0269137 	-2.76162e-05
1.02073 	0.528753 	-0.0245655 	-2.5418e-05
1.02073 	0.528753 	-0.0245655 	-2.5418e-05
1.02217 	0.538077 	-0.0219528 	-2.30158e-05
1.02217 	0.538077 	-0.0219528 	-2.30158e-05
1.02367 	0.548036 	-0.0192983 	-2.0951e-05
1.02367 	0.548036 	-0.0192983 	-2.0951e-05
1.02517 	0.556515 	-0.0165586 	-1.87733e-05
1.02517 	0.556515 	-0.0165586 	-1.87733e-05
1.02574 	0.559791 	-0.0155522 	-1.81238e-05
1.02632 	0.562665 	-0.0145525 	-1.74302e-05
1.0273 	0.56452 	-0.0136158 	-1.68477e-05
1.02829 	0.566437 	-0.01283 	-1.62766e-05
1.02992 	0.569243 	-0.0114191 	-1.61296e-05
1.03155 	0.572149 	-0.0103927 	-1.56577e-05
1.03324 	0.57486 	-0.00924844 	-1.59154e-05
1.03493 	0.577672 	-0.00857813 	-1.59731e-05
1.03669 	0.580316 	-0.00780911 	-1.67078e-05
1.03846 	0.583033 	-0.00747159 	-1.70315e-05
1.04029 	0.585647 	-0.00687489 	-1.83226e-05
1.04213 	0.588282 	-0.00668716 	-1.92287e-05
1.04404 	0.590865 	-0.00627895 	-2.09273e-05
1.04596 	0.593432 	-0.00608974 	-2.27151e-05
1.04795 	0.59597 	-0.00588074 	-2.43751e-05
1.04994 	0.598479 	-0.00575019 	-2.56469e-05
1.05201 	0.60097 	-0.00567417 	-2.74511e-05
1.05409 	0.603437 	-0.00560955 	-2.90408e-05
1.05482 	0.60427 	-0.00560133 	-2.98321e-05
1.05556 	0.605096 	-0.00558868 	-3.0607e-05
1.05698 	0.60685 	-0.00559572 	-3.22128e-05
1.05841 	0.608556 	-0.00561151 	-3.37943e-05
1.06065 	0.611167 	-0.00565951 	-3.61117e-05
1.0629 	0.61366 	-0.00572406 	-3.83882e-05
1.06524 	0.616229 	-0.00582692 	-4.08247e-05
1.06759 	0.61862 	-0.00594158 	-4.31486e-05
1.07002 	0.621151 	-0.00611019 	-4.57392e-05
1.07246 	0.623453 	-0.00626564 	-4.80523e-05
1.075 	0.625907 	-0.00649266 	-5.05474e-05
1.07754 	0.62818 	-0.00668068 	-5.27159e-05
1.08018 	0.630559 	-0.0069473 	-5.49478e-05
1.08283 	0.632831 	-0.00716876 	-5.69179e-05
1.08553 	0.635118 	-0.00745067 	-5.8707e-05
1.08824 	0.63736 	-0.00770089 	-6.03361e-05
1.08828 	0.637398 	-0.0077051 	-6.0368e-05
1.08833 	0.637436 	-0.00770921 	-6.03966e-05
1.0912 	0.639695 	-0.00800537 	-6.18402e-05
1.09407 	0.64193 	-0.00828812 	-6.30614e-05
1.09705 	0.644214 	-0.00863359 	-6.3978e-05
1.10004 	0.646454 	-0.00893907 	-6.43926e-05
1.10314 	0.648766 	-0.00933377 	-6.46987e-05
1.10625 	0.651022 	-0.00964937 	-6.4144e-05
1.10625 	0.651022 	-0.00964937 	-6.4144e-05
1.10949 	0.653357 	-0.0100745 	-6.35554e-05
1.10949 	0.653357 	-0.0100745 	-6.35554e-05
1.11273 	0.655652 	-0.0104066 	-6.20239e-05
1.11273 	0.655652 	-0.0104066 	-6.20239e-05
1.1161 	0.658016 	-0.0108356 	-6.02082e-05
1.11947 	0.660364 	-0.0111953 	-5.77274e-05
1.12224 	0.662261 	-0.0115332 	-5.52764e-05
1.125 	0.664156 	-0.0118368 	-5.25131e-05
1.12575 	0.664689 	-0.0119344 	-5.17719e-05
1.12649 	0.665221 	-0.0120273 	-5.09463e-05
1.13014 	0.667801 	-0.0125271 	-4.63564e-05
1.13379 	0.670377 	-0.0129949 	-4.12657e-05
1.1376 	0.673025 	-0.0135323 	-3.5548e-05
1.14141 	0.675675 	-0.0140031 	-2.88977e-05
1.14537 	0.678394 	-0.0145738 	-2.20531e-05
1.14933 	0.68113 	-0.0150401 	-1.38521e-05
1.15345 	0.683938 	-0.0156046 	-5.48858e-06
1.15758 	0.686771 	-0.0160933 	3.80487e-06
1.16188 	0.689691 	-0.0166469 	1.36734e-05
1.16618 	0.692632 	-0.0171594 	2.40143e-05
1.16643 	0.692798 	-0.017191 	2.46123e-05
1.16667 	0.692966 	-0.0172204 	2.52348e-05
1.1709 	0.695825 	-0.017774 	3.56554e-05
1.17513 	0.698701 	-0.0183027 	4.65019e-05
1.17979 	0.701842 	-0.0189133 	5.84033e-05
1.18445 	0.705027 	-0.0194713 	7.11546e-05
1.1893 	0.708292 	-0.0201061 	8.38632e-05
1.19415 	0.711638 	-0.0206585 	9.77631e-05
1.1992 	0.715068 	-0.0212812 	0.000111687
1.20426 	0.718564 	-0.0218514 	0.000126368
1.20928 	0.722013 	-0.0224287 	0.000140505
1.21429 	0.725498 	-0.0229819 	0.000154973
1.21454 	0.725669 	-0.0230117 	0.000155672
1.21478 	0.72584 	-0.0230404 	0.000156386
1.22026 	0.729681 	-0.023698 	0.000171771
1.22574 	0.73356 	-0.0243317 	0.000187476
1.23144 	0.737569 	-0.0249993 	0.000203127
1.23714 	0.741661 	-0.0256208 	0.000219277
1.24309 	0.745858 	-0.0262785 	0.000234672
1.24903 	0.750169 	-0.0268817 	0.000250574
1.25522 	0.754591 	-0.0275144 	0.000265561
1.2614 	0.759089 	-0.0281148 	0.000280748
1.26532 	0.761905 	-0.0284909 	0.000289395
1.26923 	0.764752 	-0.0288559 	0.000298083
1.27176 	0.766574 	-0.0291089 	0.000303698
1.27428 	0.768413 	-0.0293553 	0.000309323
1.28099 	0.773245 	-0.0299933 	0.000322076
1.2877 	0.778139 	-0.030611 	0.000334792
1.29469 	0.783158 	-0.03124 	0.000345627
1.30167 	0.788285 	-0.0318389 	0.000356183
1.30894 	0.793533 	-0.0324533 	0.000364568
1.31621 	0.798876 	-0.0330456 	0.000372546
1.32379 	0.804385 	-0.0336391 	0.0003778
1.33136 	0.809945 	-0.0342254 	0.000382762
1.33234 	0.810662 	-0.0342976 	0.000383005
1.33333 	0.811385 	-0.0343696 	0.000383205
1.33333 	0.811385 	-0.0343696 	0.000383205
1.34023 	0.816435 	-0.0349066 	0.000384781
1.34023 	0.816435 	-0.0349066 	0.000384781
1.34713 	0.821525 	-0.0354372 	0.000386025
1.34713 	0.821525 	-0.0354372 	0.000386025
1.35535 	0.827546 	-0.0360332 	0.000384243
1.35535 	0.827546 	-0.0360332 	0.000384243
1.36356 	0.83366 	-0.0366215 	0.000381622
1.36356 	0.83366 	-0.0366215 	0.000381622
1.37211 	0.839963 	-0.0371938 	0.000376019
1.37211 	0.839963 	-0.0371938 	0.000376019
1.38066 	0.846402 	-0.0377636 	0.000369168
1.38066 	0.846402 	-0.0377636 	0.000369168
1.38957 	0.853057 	-0.0383105 	0.000359291
1.38957 	0.853057 	-0.0383105 	0.000359291
1.39847 	0.8598 	-0.0388582 	0.000348611
1.39847 	0.8598 	-0.0388582 	0.000348611
1.40378 	0.863809 	-0.0391559 	0.000340692
1.40378 	0.863809 	-0.0391559 	0.000340692
1.40909 	0.867853 	-0.0394547 	0.000332472
1.40909 	0.867853 	-0.0394547 	0.000332472
1.41306 	0.870855 	-0.0396888 	0.000326429
1.41702 	0.873883 	-0.0399226 	0.000320149
1.42667 	0.881227 	-0.0404418 	0.000302634
1.43633 	0.888658 	-0.0409621 	0.000284338
1.44638 	0.896316 	-0.0414472 	0.000263902
1.45644 	0.904128 	-0.0419382 	0.000242199
1.45644 	0.904128 	-0.0419382 	0.000242199
1.46691 	0.912129 	-0.0423872 	0.000219095
1.47738 	0.920262 	-0.0428451 	0.000195027
1.48829 	0.9286 	-0.0432598 	0.000169965
1.49919 	0.937007 	-0.0436805 	0.000144467
1.4996 	0.937316 	-0.0436938 	0.000143536
1.50001 	0.937628 	-0.0437073 	0.000142592
1.51095 	0.94591 	-0.0440865 	0.000117479
1.52189 	0.954258 	-0.0444704 	9.20091e-05
1.53371 	0.963021 	-0.0448152 	6.61628e-05
1.54554 	0.971919 	-0.0451732 	3.97157e-05
1.55785 	0.980791 	-0.0454677 	1.50816e-05
1.57016 	0.989837 	-0.0457823 	-1.01785e-05
1.58298 	0.998768 	-0.0460204 	-3.29562e-05
1.5958 	1.00781 	-0.0462725 	-5.60723e-05
1.60346 	1.01287 	-0.0463719 	-6.75253e-05
1.61112 	1.01797 	-0.0464775 	-7.90862e-05
1.61681 	1.02174 	-0.0465617 	-8.76549e-05
1.6225 	1.02554 	-0.0466496 	-9.62894e-05
1.6364 	1.03403 	-0.0467696 	-0.000112622
1.6503 	1.04263 	-0.0469038 	-0.000129142
1.66477 	1.05052 	-0.0469338 	-0.000141244
1.67925 	1.05859 	-0.0469923 	-0.000153653
1.69432 	1.06562 	-0.0469317 	-0.000161288
1.7094 	1.07282 	-0.0469004 	-0.00016912
1.72509 	1.07874 	-0.046747 	-0.000172639
1.74079 	1.08475 	-0.0466106 	-0.000176216
1.7454 	1.08604 	-0.0465388 	-0.00017628
1.75001 	1.08735 	-0.0464709 	-0.000176356
1.76175 	1.09065 	-0.0463039 	-0.000176543
1.77348 	1.09399 	-0.0461456 	-0.000176753
1.79049 	1.09718 	-0.0458168 	-0.000174541
1.80751 	1.10047 	-0.0455092 	-0.000172367
1.80751 	1.10047 	-0.0455092 	-0.000172367
1.82523 	1.10241 	-0.0450955 	-0.0001687
1.82523 	1.10241 	-0.0450955 	-0.0001687
1.84296 	1.10447 	-0.0447158 	-0.000165035
1.84296 	1.10447 	-0.0447158 	-0.000165035
1.86141 	1.10544 	-0.0442418 	-0.000160733
1.86141 	1.10544 	-0.0442418 	-0.000160733
1.87987 	1.10647 	-0.043794 	-0.000156391
1.87987 	1.10647 	-0.043794 	-0.000156391
1.89908 	1.10671 	-0.0432758 	-0.000151754
1.9183 	1.10697 	-0.0427721 	-0.000147058
1.92343 	1.10689 	-0.0426293 	-0.000145818
1.92856 	1.10682 	-0.0424894 	-0.000144566
1.94344 	1.10658 	-0.0420884 	-0.000140949
1.95832 	1.10636 	-0.0416939 	-0.000137288
1.97916 	1.10555 	-0.0410359 	-0.000131555
2 	1.10476 	-0.0403955 	-0.000125775
