7.2625 	0 	0 	0
7.2875 	0 	0 	0
7.3125 	0 	0 	0
7.3375 	0 	0 	0
7.3625 	0 	0 	0
7.3875 	0 	0 	0
7.4125 	0 	0 	0
7.4375 	0 	0 	0
7.4625 	0 	0 	0
7.4875 	0 	0 	0
7.5125 	0 	0 	0
7.5375 	0 	0 	0
7.5625 	0 	0 	0
7.5875 	0 	0 	0
7.6125 	0 	0 	0
7.6375 	0 	0 	0
7.6625 	0 	0 	0
7.6875 	0 	0 	0
7.7125 	0 	0 	0
7.7375 	0 	0 	0
7.7625 	0 	0 	0
7.7875 	0 	0 	0
7.8125 	0 	0 	0
7.8375 	0 	0 	0
7.8625 	0 	0 	0
7.8875 	0 	0 	0
7.9125 	0 	0 	0
7.9625 	0 	0 	0
7.9875 	0 	0 	0
