# kMean  POINT_DATA 63840
# x  y  z  kMean
0 0.5 3.39583e-17 0.00375
0 0.5 -0.00617931 0.00375
0 0.5 0.00617931 0.00375
0.0124865 0.5 -0.00617931 0.00375041
0.0124865 0.5 0.00617931 0.00375046
0 0.5 -0.0688207 0.00375
0 0.5 0.0688207 0.00375
0.0124865 0.5 -0.0688207 0.00375041
0.0124865 0.5 0.0688207 0.00375046
0 0.5 -0.075 0.00375
0 0.5 0.075 0.00375
0 0.5 -0.0811793 0.00375
0 0.5 0.0811793 0.00375
0.0124865 0.5 -0.0811793 0.00375037
0.0124865 0.5 0.0811793 0.00375052
0.075776 0.5 -0.0375 0.0037525
0.075776 0.5 0.0375 0.0037528
0.075776 0.5 -0.1125 0.00375225
0.075776 0.5 0.1125 0.00375314
0 0.5 -0.143821 0.00375
0 0.5 0.143821 0.00375
0.0124865 0.5 -0.143821 0.00375037
0.0124865 0.5 0.143821 0.00375052
0 0.5 -0.15 0.00375
0 0.5 0.15 0.00375
0.151149 0.5 -0.00137318 0.0037553
0 0.5 -0.156179 0.00375
0 0.5 0.156179 0.00375
0.0124865 0.5 -0.156179 0.00375034
0.0124865 0.5 0.156179 0.00375058
0.151149 0.5 0.075 0.00375582
0.151149 0.5 -0.075 0.0037549
0.075776 0.5 -0.1875 0.00375207
0.075776 0.5 0.1875 0.0037535
0.151149 0.5 0.15 0.00375643
0.151149 0.5 -0.15 0.0037546
0 0.5 -0.218821 0.00375
0 0.5 0.218821 0.00375
0.0124865 0.5 -0.218821 0.00375034
0.0124865 0.5 0.218821 0.00375058
0.219992 0.5 0.0375 0.00375809
0.219993 0.5 -0.0375 0.00375747
0 0.5 -0.225 0.00375
0 0.5 0.225 0.00375
0 0.5 -0.231179 0.00375
0 0.5 0.231179 0.00375
0.0124865 0.5 -0.231179 0.00375032
0.0124865 0.5 0.231179 0.00375064
0.219992 0.5 0.1125 0.00375888
0.219993 0.5 -0.1125 0.00375704
0.151149 0.5 -0.225 0.0037544
0.151149 0.5 0.225 0.00375709
0.075776 0.5 -0.2625 0.00375196
0.075776 0.5 0.2625 0.00375385
0.288069 0.5 -0.00137318 0.00376269
0.219992 0.5 0.1875 0.00375979
0.219993 0.5 -0.1875 0.00375671
0 0.5 0.293821 0.00375
0 0.5 -0.293821 0.00375
0.0124865 0.5 -0.293821 0.00375032
0.0124865 0.5 0.293821 0.00375064
0.288069 0.5 -0.075 0.00376217
0.288069 0.5 0.075 0.00376339
0 0.5 -0.3 0.00375
0 0.5 0.3 0.00375
0 0.5 0.306179 0.00375
0 0.5 -0.306179 0.00375
0.0124865 0.5 -0.306179 0.00375031
0.0124865 0.5 0.306179 0.00375069
0.288069 0.5 -0.15 0.00376178
0.288069 0.5 0.15 0.00376423
0.151149 0.5 -0.3 0.0037543
0.151149 0.5 0.3 0.00375777
0.219992 0.5 -0.2625 0.00375653
0.219992 0.5 0.2625 0.00376077
0.075776 0.5 0.3375 0.00375419
0.075776 0.5 -0.3375 0.00375193
0.350249 0.5 -0.0375 0.00376701
0.350249 0.5 0.0375 0.00376761
0.288069 0.5 -0.225 0.00376151
0.288069 0.5 0.225 0.00376522
0.350249 0.5 0.1125 0.00376834
0.350249 0.5 -0.1125 0.00376655
0 0.5 0.368821 0.00375
0 0.5 -0.368821 0.00375
0.0124865 0.5 -0.368821 0.00375031
0.0124865 0.5 0.368821 0.00375069
0 0.5 -0.375 0.00375
0 0.5 0.375 0.00375
0 0.5 -0.381179 0.00375
0 0.5 0.381179 0.00375
0.0124865 0.5 -0.381179 0.00375031
0.0124865 0.5 0.381179 0.00375074
0.350249 0.5 -0.1875 0.0037662
0.350249 0.5 0.1875 0.00376929
0.219992 0.5 -0.3375 0.00375647
0.219992 0.5 0.3375 0.00376177
0.151149 0.5 -0.375 0.00375428
0.151149 0.5 0.375 0.00375844
0.411736 0.5 -0.00137318 0.00377494
0.288069 0.5 -0.3 0.00376136
0.288069 0.5 0.3 0.0037663
0.411736 0.5 -0.075 0.00377446
0.411736 0.5 0.075 0.00377559
0.075776 0.5 -0.4125 0.00375192
0.075776 0.5 0.4125 0.0037545
0.350249 0.5 -0.2625 0.00376598
0.350249 0.5 0.2625 0.0037704
0.411736 0.5 -0.15 0.00377403
0.411736 0.5 0.15 0.00377632
0 0.5 -0.443821 0.00375
0 0.5 0.443821 0.00375
0.0124865 0.5 -0.443821 0.00375031
0.0124865 0.5 0.443821 0.00375074
0 0.5 -0.45 0.00375
0 0.5 0.45 0.00375
0 0.5 -0.456179 0.00375
0 0.5 0.456179 0.00375
0.0124865 0.5 -0.456179 0.00375032
0.0124865 0.5 0.456179 0.00375079
0.219992 0.5 -0.4125 0.00375651
0.219993 0.5 0.4125 0.00376276
0.411736 0.5 -0.225 0.00377369
0.411736 0.5 0.225 0.00377721
0.467897 0.5 0.0375 0.00378244
0.467897 0.5 -0.0375 0.00378191
0.288069 0.5 -0.375 0.00376132
0.288069 0.5 0.375 0.00376741
0.151149 0.5 -0.45 0.00375436
0.151149 0.5 0.45 0.00375907
0.467897 0.5 -0.1125 0.00378144
0.467897 0.5 0.1125 0.00378304
0.350249 0.5 0.3375 0.00377161
0.350249 0.5 -0.3375 0.00376585
0.075776 0.5 -0.4875 0.00375197
0.075776 0.5 0.4875 0.00375477
0.467897 0.5 -0.1875 0.00378102
0.467897 0.5 0.1875 0.00378371
0.411736 0.5 -0.3 0.00377343
0.411736 0.5 0.3 0.00377825
0 0.5 -0.518821 0.00375
0 0.5 0.518821 0.00375
0.0124865 0.5 0.518821 0.00375079
0.0124865 0.5 -0.518821 0.00375032
0.523432 0.5 -0.00137318 0.0037924
0 0.5 -0.525 0.00375
0 0.5 0.525 0.00375
0.523432 0.5 -0.075 0.00379193
0.523432 0.5 0.075 0.00379298
0 0.5 -0.531179 0.00375
0 0.5 0.531179 0.00375
0.0124865 0.5 -0.531179 0.00375034
0.0124865 0.5 0.531179 0.00375082
0.288069 0.5 -0.45 0.00376144
0.288069 0.5 0.45 0.00376852
0.219992 0.5 -0.4875 0.00375674
0.219993 0.5 0.4875 0.00376369
0.467897 0.5 -0.2625 0.00378066
0.467897 0.5 0.2625 0.00378455
0.350249 0.5 -0.4125 0.00376584
0.350249 0.5 0.4125 0.00377287
0.523432 0.5 -0.15 0.0037914
0.523432 0.5 0.15 0.00379351
0.151149 0.5 -0.525 0.00375454
0.151149 0.5 0.525 0.00375966
0.411736 0.5 -0.375 0.00377326
0.411736 0.5 0.375 0.00377938
0.075776 0.5 -0.5625 0.00375207
0.075776 0.5 0.5625 0.00375499
0.523432 0.5 -0.225 0.00379088
0.523432 0.5 0.225 0.00379409
0.574156 0.5 -0.0375 0.0038019
0.574156 0.5 0.0375 0.00380241
0.467897 0.5 0.3375 0.00378555
0.467897 0.5 -0.3375 0.00378035
0.574156 0.5 -0.1125 0.00380132
0.574156 0.5 0.1125 0.00380287
0 0.5 -0.593821 0.00375
0 0.5 0.593821 0.00375
0.0124865 0.5 -0.593821 0.00375034
0.0124865 0.5 0.593821 0.00375082
0.288069 0.5 -0.525 0.00376171
0.288069 0.5 0.525 0.00376958
0 0.5 -0.6 0.00375
0 0.5 0.6 0.00375
0.350249 0.5 -0.4875 0.00376608
0.350249 0.5 0.4875 0.0037741
0.523432 0.5 -0.3 0.00379036
0.523432 0.5 0.3 0.00379478
0.219992 0.5 -0.5625 0.00375706
0.219992 0.5 0.5625 0.00376454
0.574156 0.5 -0.1875 0.00380069
0.574156 0.5 0.1875 0.00380328
0 0.5 -0.606179 0.00375
0 0.5 0.606179 0.00375
0.0124865 0.5 -0.606179 0.00375036
0.0124865 0.5 0.606179 0.00375085
0.411736 0.5 -0.45 0.00377323
0.411736 0.5 0.45 0.00378055
0.151149 0.5 -0.6 0.00375478
0.151149 0.5 0.6 0.00376016
0.62168 0.5 2.64545e-17 0.00381398
0.467897 0.5 0.4125 0.00378664
0.467897 0.5 -0.4125 0.00378011
0.624316 0.5 0.0729402 0.00381521
0.624316 0.5 -0.075 0.00381407
0.574156 0.5 -0.2625 0.00380002
0.574157 0.5 0.2625 0.00380372
0.075776 0.5 -0.6375 0.0037522
0.075776 0.5 0.6375 0.00375517
0.624316 0.5 -0.15 0.00381329
0.624316 0.5 0.15 0.00381557
0.523432 0.5 -0.375 0.00378985
0.523432 0.5 0.375 0.00379558
0.350249 0.5 -0.5625 0.00376636
0.350249 0.5 0.5625 0.00377528
0.624316 0.5 -0.225 0.00381239
0.624316 0.5 0.225 0.00381584
0.288069 0.5 0.6 0.00377054
0.288069 0.5 -0.6 0.00376202
0.574156 0.5 -0.3375 0.00379931
0.574156 0.5 0.3375 0.00380423
0.411736 0.5 -0.525 0.0037733
0.411736 0.5 0.525 0.00378171
0 0.5 -0.668821 0.00375
0 0.5 0.668821 0.00375
0.0124865 0.5 -0.668821 0.00375036
0.0124865 0.5 0.668821 0.00375085
0.67013 0.5 0.0375 0.00382693
0.67013 0.5 -0.0375 0.0038263
0.219993 0.5 -0.6375 0.00375743
0.219993 0.5 0.6375 0.00376528
0 0.5 -0.675 0.00375
0 0.5 0.675 0.00375
0.467897 0.5 0.4875 0.00378776
0.467897 0.5 -0.4875 0.00378004
0.67013 0.5 -0.1125 0.00382545
0.67013 0.5 0.1125 0.00382732
0 0.5 -0.681179 0.00375
0 0.5 0.681179 0.00375
0.0124865 0.5 -0.681179 0.00375038
0.0124865 0.5 0.681179 0.00375088
0.523432 0.5 -0.45 0.00378939
0.523432 0.5 0.45 0.00379644
0.151149 0.5 -0.675 0.00375504
0.151149 0.5 0.675 0.00376059
0.624316 0.5 -0.3 0.00381139
0.624316 0.5 0.3 0.00381607
0.67013 0.5 0.1875 0.00382752
0.67013 0.5 -0.1875 0.00382442
0.574156 0.5 -0.4125 0.00379855
0.574157 0.5 0.4125 0.00380483
0.708171 0.5 1.88651e-17 0.00383876
0.075776 0.5 -0.7125 0.00375234
0.075776 0.5 0.7125 0.00375531
0.715434 0.5 0.0736268 0.00384138
0.715434 0.5 -0.075 0.00384012
0.67013 0.5 0.2625 0.00382756
0.67013 0.5 -0.2625 0.0038232
0.350249 0.5 -0.6375 0.00376662
0.350249 0.5 0.6375 0.00377635
0.411736 0.5 -0.6 0.00377334
0.411736 0.5 0.6 0.00378281
0.624316 0.5 -0.375 0.00381027
0.624316 0.5 0.375 0.00381632
0.715434 0.5 -0.15 0.0038389
0.715434 0.5 0.15 0.00384194
0.467897 0.5 -0.5625 0.00377989
0.467897 0.5 0.5625 0.00378887
0.288069 0.5 -0.675 0.00376233
0.288069 0.5 0.675 0.00377138
0.523432 0.5 -0.525 0.00378891
0.523432 0.5 0.525 0.00379732
0 0.5 -0.743821 0.00375
0 0.5 0.743821 0.00375
0.0124865 0.5 -0.743821 0.00375038
0.0124865 0.5 0.743821 0.00375088
0.219992 0.5 0.7125 0.00376588
0.219992 0.5 -0.7125 0.00375781
0.715434 0.5 -0.225 0.00383741
0.715434 0.5 0.225 0.00384194
0 0.5 -0.75 0.00375
0 0.5 0.75 0.00375
0.67013 0.5 0.3375 0.00382752
0.67013 0.5 -0.3375 0.00382181
0.574156 0.5 -0.4875 0.00379781
0.574156 0.5 0.4875 0.00380549
0 0.5 -0.756179 0.00375
0 0.5 0.756179 0.00375
0.0124865 0.5 -0.756179 0.00375041
0.0124865 0.5 0.756179 0.00375089
0.756813 0.5 -0.0375 0.00385435
0.756813 0.5 0.0375 0.00385526
0.151149 0.5 -0.75 0.0037553
0.151149 0.5 0.75 0.00376092
0.756813 0.5 -0.1125 0.00385304
0.756813 0.5 0.1125 0.00385574
0.624316 0.5 -0.45 0.00380905
0.624316 0.5 0.45 0.0038166
0.715434 0.5 -0.3 0.00383565
0.715434 0.5 0.3 0.00384171
0.756813 0.5 0.1875 0.0038558
0.756813 0.5 -0.1875 0.00385137
0.67013 0.5 -0.4125 0.00382023
0.67013 0.5 0.4125 0.00382747
0.411736 0.5 -0.675 0.00377333
0.411736 0.5 0.675 0.00378379
0.467897 0.5 0.6375 0.0037899
0.467897 0.5 -0.6375 0.00377967
0.075776 0.5 -0.7875 0.00375248
0.075776 0.5 0.7875 0.0037554
0.350249 0.5 -0.7125 0.00376686
0.350249 0.5 0.7125 0.00377728
0.523432 0.5 -0.6 0.00378832
0.523432 0.5 0.6 0.00379818
0.797732 0.5 2.68882e-17 0.00387062
0.756813 0.5 -0.2625 0.00384935
0.756814 0.5 0.2625 0.00385551
0.797732 0.5 0.0736268 0.0038714
0.797732 0.5 -0.075 0.00386923
0.288069 0.5 -0.75 0.00376262
0.288069 0.5 0.75 0.00377207
0.574156 0.5 -0.5625 0.0037969
0.574157 0.5 0.5625 0.00380616
0.715434 0.5 -0.375 0.00383364
0.715434 0.5 0.375 0.00384135
0.797732 0.5 -0.15 0.00386734
0.797732 0.5 0.15 0.00387183
0.624316 0.5 -0.525 0.0038077
0.624316 0.5 0.525 0.0038169
0.219992 0.5 -0.7875 0.00375818
0.219992 0.5 0.7875 0.00376635
0 0.5 -0.818821 0.00375
0 0.5 0.818821 0.00375
0.0124865 0.5 0.818821 0.00375089
0.0124865 0.5 -0.818821 0.00375041
0 0.5 -0.825 0.00375
0 0.5 0.825 0.00375
0.756813 0.5 0.3375 0.00385492
0.756814 0.5 -0.3375 0.00384699
0.67013 0.5 -0.4875 0.0038185
0.67013 0.5 0.4875 0.00382742
0.797732 0.5 -0.225 0.00386501
0.797732 0.5 0.225 0.00387164
0 0.5 -0.831179 0.00375
0 0.5 0.831179 0.00375
0.0124865 0.5 -0.831179 0.00375043
0.0124865 0.5 0.831179 0.0037509
0.835106 0.5 0.0375 0.00388644
0.835106 0.5 -0.0375 0.00388508
0.151149 0.5 -0.825 0.00375554
0.151149 0.5 0.825 0.00376115
0.835106 0.5 0.1125 0.00388716
0.835106 0.5 -0.1125 0.00388311
0.715434 0.5 -0.45 0.00383138
0.715434 0.5 0.45 0.0038409
0.797732 0.5 -0.3 0.00386226
0.797732 0.5 0.3 0.00387102
0.467897 0.5 0.7125 0.00379082
0.467897 0.5 -0.7125 0.00377937
0.523432 0.5 -0.675 0.00378762
0.523432 0.5 0.675 0.00379896
0.411736 0.5 -0.75 0.00377326
0.411736 0.5 0.75 0.00378464
0.835106 0.5 -0.1875 0.00388056
0.835106 0.5 0.1875 0.00388722
0.574156 0.5 -0.6375 0.00379585
0.574157 0.5 0.6375 0.0038068
0.350249 0.5 -0.7875 0.00376705
0.350249 0.5 0.7875 0.00377804
0.756813 0.5 -0.4125 0.00384433
0.756814 0.5 0.4125 0.00385415
0.075776 0.5 -0.8625 0.00375261
0.075776 0.5 0.8625 0.00375545
0.624316 0.5 0.6 0.00381719
0.624316 0.5 -0.6 0.00380615
0.872064 0.5 5.91974e-17 0.00390289
0.870122 0.5 0.075 0.00390317
0.288069 0.5 -0.825 0.00376287
0.288069 0.5 0.825 0.00377261
0.67013 0.5 -0.5625 0.00381651
0.67013 0.5 0.5625 0.00382738
0.872064 0.5 -0.075 0.00390083
0.835106 0.5 -0.2625 0.0038775
0.835106 0.5 0.2625 0.00388667
0.797732 0.5 -0.375 0.00385911
0.797732 0.5 0.375 0.00387003
0.872064 0.5 0.14794 0.00390472
0.872064 0.5 -0.15 0.00389807
0.715434 0.5 -0.525 0.00382885
0.715434 0.5 0.525 0.00384042
0.219992 0.5 0.8625 0.00376667
0.219993 0.5 -0.8625 0.00375851
0 0.5 -0.893821 0.00375
0 0.5 0.893821 0.00375
0.0124865 0.5 -0.893821 0.00375043
0.0124865 0.5 0.893821 0.0037509
0 0.5 -0.9 0.00375
0 0.5 0.9 0.00375
0.756813 0.5 -0.4875 0.00384132
0.756813 0.5 0.4875 0.00385329
0.872064 0.5 -0.225 0.00389468
0.872064 0.5 0.225 0.00390448
0.835106 0.5 -0.3375 0.00387398
0.835106 0.5 0.3375 0.0038856
0 0.5 0.906179 0.00375
0 0.5 -0.906179 0.00375
0.0124865 0.5 -0.906179 0.00375045
0.0124865 0.5 0.906179 0.0037509
0.90582 0.5 -0.0375 0.00391835
0.90582 0.5 0.0375 0.00392036
0.151149 0.5 -0.9 0.00375576
0.151149 0.5 0.9 0.00376129
0.90582 0.5 -0.1125 0.0039155
0.905821 0.5 0.1125 0.00392147
0.523432 0.5 -0.75 0.00378682
0.523432 0.5 0.75 0.00379964
0.574156 0.5 -0.7125 0.00379468
0.574156 0.5 0.7125 0.00380736
0.797732 0.5 -0.45 0.00385555
0.797732 0.5 0.45 0.00386881
0.467897 0.5 0.7875 0.0037916
0.467897 0.5 -0.7875 0.00377899
0.624316 0.5 -0.675 0.00380445
0.624316 0.5 0.675 0.00381744
0.411736 0.5 -0.825 0.00377311
0.411736 0.5 0.825 0.00378532
0.872064 0.5 0.3 0.00390353
0.872064 0.5 -0.3 0.00389075
0.67013 0.5 -0.6375 0.00381434
0.67013 0.5 0.6375 0.00382731
0.90582 0.5 0.1875 0.00392168
0.905821 0.5 -0.1875 0.00391187
0.350249 0.5 -0.8625 0.00376718
0.350249 0.5 0.8625 0.00377863
0.835106 0.5 -0.4125 0.00386999
0.835106 0.5 0.4125 0.00388411
0.715434 0.5 -0.6 0.00382607
0.715434 0.5 0.6 0.00383989
0.939201 0.5 2.75387e-17 0.00393649
0.075776 0.5 0.9375 0.00375545
0.075776 0.5 -0.9375 0.00375273
0.939111 0.5 0.075 0.00393849
0.939201 0.5 -0.075 0.00393358
0.756813 0.5 0.5625 0.00385234
0.756814 0.5 -0.5625 0.00383799
0.90582 0.5 0.2625 0.003921
0.905821 0.5 -0.2625 0.00390759
0.288069 0.5 -0.9 0.00376307
0.288069 0.5 0.9 0.00377298
0.872064 0.5 -0.375 0.00388628
0.872064 0.5 0.375 0.00390198
0.939201 0.5 0.148627 0.00393913
0.939201 0.5 -0.15 0.00392973
0.797732 0.5 -0.525 0.00385161
0.797732 0.5 0.525 0.00386743
0.219992 0.5 0.9375 0.00376685
0.219992 0.5 -0.9375 0.0037588
0.939201 0.5 -0.225 0.0039251
0.939201 0.5 0.225 0.00393905
0.905821 0.5 -0.3375 0.00390277
0.90582 0.5 0.3375 0.00391952
0.835106 0.5 -0.4875 0.00386547
0.835106 0.5 0.4875 0.00388239
0 0.5 0.968821 0.00375
0 0.5 -0.968821 0.00375
0.0124865 0.5 -0.968821 0.00375045
0.0124865 0.5 0.968821 0.0037509
0.969689 0.5 -0.0375 0.00395162
0.969689 0.5 0.0375 0.00395444
0.574156 0.5 -0.7875 0.00379339
0.574156 0.5 0.7875 0.00380782
0 0.5 -0.975 0.00375
0 0.5 0.975 0.00375
0.624316 0.5 -0.75 0.00380263
0.624316 0.5 0.75 0.00381761
0.969689 0.5 -0.1125 0.00394769
0.96969 0.5 0.1125 0.00395607
0.523432 0.5 -0.825 0.00378592
0.523432 0.5 0.825 0.00380017
0.67013 0.5 0.7125 0.0038272
0.67013 0.5 -0.7125 0.003812
0 0.5 -0.981179 0.00375
0 0.5 0.981179 0.00375
0.467897 0.5 0.8625 0.0037922
0.467897 0.5 -0.8625 0.00377851
0.0124865 0.5 -0.981179 0.00375047
0.0124865 0.5 0.981179 0.00375089
0.872064 0.5 -0.45 0.00388121
0.872064 0.5 0.45 0.00389997
0.715434 0.5 -0.675 0.00382311
0.715434 0.5 0.675 0.00383932
0.939201 0.5 -0.3 0.00391982
0.939201 0.5 0.3 0.00393789
0.151149 0.5 0.975 0.00376133
0.151149 0.5 -0.975 0.00375595
0.969689 0.5 -0.1875 0.00394278
0.969689 0.5 0.1875 0.00395651
0.756813 0.5 -0.6375 0.00383444
0.756813 0.5 0.6375 0.00385133
0.411736 0.5 -0.9 0.00377289
0.411736 0.5 0.9 0.00378582
0.90582 0.5 -0.4125 0.00389729
0.90582 0.5 0.4125 0.00391737
0.995005 0.5 0.0749309 0.00396912
0.797732 0.5 -0.6 0.00384737
0.797732 0.5 0.6 0.00386592
1.00005 0.5 -8.47123e-18 0.00396941
0.350249 0.5 -0.9375 0.00376722
0.350249 0.5 0.9375 0.00377901
1.00005 0.5 -0.0749309 0.00396561
0.969689 0.5 -0.2625 0.00393712
0.969689 0.5 0.2625 0.0039558
0.835106 0.5 -0.5625 0.00386062
0.835106 0.5 0.5625 0.00388045
1.00005 0.5 -0.149862 0.00396076
0.939201 0.5 -0.375 0.00391383
0.939201 0.5 0.375 0.00393585
1.00029 0.5 0.148988 0.00397299
0.075776 0.5 -1.0125 0.00375283
0.075776 0.5 1.0125 0.00375539
0.288069 0.5 0.975 0.00377319
0.288069 0.5 -0.975 0.00376319
0.872064 0.5 -0.525 0.00387565
0.872064 0.5 0.525 0.00389763
1.00005 0.5 0.224793 0.00397333
1.00005 0.5 -0.224793 0.00395499
0.969689 0.5 0.3375 0.00395401
0.96969 0.5 -0.3375 0.0039308
1.0271 0.5 -0.0368226 0.00398551
1.0271 0.5 0.0368226 0.00398916
0.90582 0.5 0.4875 0.0039147
0.905821 0.5 -0.4875 0.00389107
1.0271 0.5 -0.110468 0.00398073
1.0271 0.5 0.110468 0.00399398
0.67013 0.5 0.7875 0.00382702
0.67013 0.5 -0.7875 0.00380955
0.624316 0.5 0.825 0.00381768
0.624316 0.5 -0.825 0.00380069
0.219993 0.5 -1.0125 0.00375902
0.219993 0.5 1.0125 0.00376687
0.574156 0.5 -0.8625 0.003792
0.574156 0.5 0.8625 0.00380813
0.715434 0.5 -0.75 0.00382001
0.715434 0.5 0.75 0.00383869
0.756813 0.5 0.7125 0.00385027
0.756814 0.5 -0.7125 0.00383072
0.523432 0.5 -0.9 0.00378494
0.523432 0.5 0.9 0.00380052
0.939201 0.5 -0.45 0.00390701
0.939201 0.5 0.45 0.00393308
1.04168 0.5 0 0.00399666
1.0271 0.5 -0.184113 0.00397495
1.0271 0.5 0.184113 0.00399245
0 0.5 -1.04382 0.00375
0 0.5 1.04382 0.00375
0.0124865 0.5 -1.04382 0.00375047
0.0124865 0.5 1.04382 0.00375089
1.00005 0.5 -0.299723 0.00394838
1.00005 0.5 0.299723 0.00397206
1.04168 0.5 -0.0729162 0.0039922
1.04168 0.5 0.0729162 0.00399989
0.797732 0.5 -0.675 0.00384293
0.797732 0.5 0.675 0.00386432
0.467897 0.5 0.9375 0.00379259
0.467897 0.5 -0.9375 0.00377795
0 0.5 -1.05 0.00375
0 0.5 1.05 0.00375
0.835106 0.5 -0.6375 0.00385549
0.835106 0.5 0.6375 0.00387834
1.04168 0.5 -0.145832 0.0039867
1.04168 0.5 0.145832 0.00400176
0.969689 0.5 -0.4125 0.00392351
0.96969 0.5 0.4125 0.00395129
0 0.5 -1.05618 0.00375
0 0.5 1.05618 0.00375
0.0124865 0.5 -1.05618 0.00375048
0.0124865 0.5 1.05618 0.00375087
1.05695 0.5 -0.0360764 0.00400396
1.05695 0.5 0.0360764 0.0040081
0.411736 0.5 -0.975 0.00377258
0.411736 0.5 0.975 0.00378612
0.872064 0.5 -0.6 0.00386975
0.872064 0.5 0.6 0.00389505
1.0271 0.5 -0.257759 0.00396827
1.0271 0.5 0.257759 0.00399196
0.151149 0.5 -1.05 0.00375609
0.151149 0.5 1.05 0.00376126
1.05695 0.5 0.108229 0.00401291
1.05695 0.5 -0.108229 0.00399873
1.04168 0.5 -0.218749 0.00398024
1.04168 0.5 0.218749 0.00400221
0.90582 0.5 -0.5625 0.00388446
0.905821 0.5 0.5625 0.00391172
1.00005 0.5 -0.374654 0.00394077
1.00005 0.5 0.374654 0.00396963
0.350249 0.5 1.0125 0.00377924
0.350249 0.5 -1.0125 0.00376719
1.05695 0.5 -0.180382 0.00399252
1.05695 0.5 0.180382 0.00401228
1.07319 0.5 0.0709442 0.00402166
0.939201 0.5 -0.525 0.00389958
0.939201 0.5 0.525 0.00392978
1.0271 0.5 -0.331404 0.00396052
1.0271 0.5 0.331404 0.00399009
1.08112 0.5 3.23815e-17 0.00402252
1.04168 0.5 -0.291665 0.00397276
1.04168 0.5 0.291665 0.00400123
1.08112 0.5 -0.0709442 0.00401744
0.969689 0.5 -0.4875 0.0039153
0.96969 0.5 0.4875 0.00394777
1.05695 0.5 0.252535 0.00401225
1.05695 0.5 -0.252535 0.00398535
0.288069 0.5 -1.05 0.00376325
0.288069 0.5 1.05 0.00377322
0.075776 0.5 -1.0875 0.00375291
0.075776 0.5 1.0875 0.00375529
1.08112 0.5 -0.141888 0.00401133
1.08145 0.5 0.140165 0.00402834
0.715434 0.5 0.825 0.00383799
0.715434 0.5 -0.825 0.00381681
0.756813 0.5 0.7875 0.00384916
0.756814 0.5 -0.7875 0.00382688
0.67013 0.5 -0.8625 0.00380701
0.67013 0.5 0.8625 0.00382674
0.797732 0.5 -0.75 0.00383836
0.797732 0.5 0.75 0.00386266
0.624316 0.5 -0.9 0.00379868
0.624316 0.5 0.9 0.00381761
1.00005 0.5 -0.449585 0.00393213
1.00005 0.5 0.449585 0.00396621
0.835106 0.5 -0.7125 0.0038502
0.835106 0.5 0.7125 0.00387615
0.574156 0.5 -0.9375 0.00379054
0.574157 0.5 0.9375 0.00380827
1.10076 0.5 -0.0349809 0.00403368
1.10076 0.5 0.0349809 0.00403855
1.08112 0.5 -0.212832 0.00400422
1.08112 0.5 0.212832 0.00402998
0.872064 0.5 -0.675 0.00386362
0.872064 0.5 0.675 0.00389228
1.04168 0.5 -0.364581 0.00396413
1.04168 0.5 0.364581 0.00399887
1.0271 0.5 0.405049 0.003987
1.0271 0.5 -0.405049 0.00395159
1.05695 0.5 -0.324688 0.00397702
1.05695 0.5 0.324688 0.00401072
1.10076 0.5 -0.104943 0.00402776
1.10076 0.5 0.104943 0.00404208
0.523432 0.5 0.975 0.00380069
0.523432 0.5 -0.975 0.00378387
0.90582 0.5 0.6375 0.00390848
0.905821 0.5 -0.6375 0.00387754
0.219992 0.5 1.0875 0.00376671
0.219992 0.5 -1.0875 0.00375918
1.11376 0.5 3.81639e-17 0.00404536
0.939201 0.5 0.6 0.00392604
0.939201 0.5 -0.6 0.00389183
1.10076 0.5 -0.174905 0.00402084
1.10076 0.5 0.174905 0.00404422
0.467897 0.5 -1.0125 0.00377731
0.467897 0.5 1.0125 0.0037928
1.11376 0.5 -0.0693118 0.00403974
1.11376 0.5 0.0693118 0.0040498
1.08112 0.5 0.283777 0.00402962
1.08112 0.5 -0.283777 0.003996
0 0.5 -1.11882 0.00375
0 0.5 1.11882 0.00375
0.0124865 0.5 -1.11882 0.00375048
0.0124865 0.5 1.11882 0.00375087
0.969689 0.5 -0.5625 0.00390669
0.969689 0.5 0.5625 0.00394379
1.11376 0.5 0.138624 0.00405304
1.11376 0.5 -0.138624 0.00403309
0 0.5 -1.125 0.00375
0 0.5 1.125 0.00375
1.10076 0.5 0.244866 0.00404496
1.10076 0.5 -0.244866 0.00401285
0.411736 0.5 -1.05 0.00377219
0.411736 0.5 1.05 0.00378624
1.05695 0.5 -0.396841 0.0039675
1.05695 0.5 0.396841 0.00400784
1.00005 0.5 -0.524516 0.00392285
1.00005 0.5 0.524516 0.00396206
1.04168 0.5 -0.437497 0.00395442
1.04168 0.5 0.437497 0.00399525
0 0.5 -1.13118 0.00375
0 0.5 1.13118 0.00375
0.0124865 0.5 -1.13118 0.00375049
0.0124865 0.5 1.13118 0.00375085
1.11376 0.5 -0.207935 0.00402538
1.11376 0.5 0.207935 0.00405454
1.0271 0.5 -0.478694 0.00394171
1.0271 0.5 0.478694 0.00398285
0.151149 0.5 -1.125 0.00375619
0.151149 0.5 1.125 0.00376108
1.08112 0.5 -0.354722 0.00398661
1.08112 0.5 0.354722 0.00402777
1.13882 0.5 -0.0340295 0.0040608
1.13882 0.5 0.0340295 0.00406632
0.350249 0.5 -1.0875 0.00376708
0.350249 0.5 1.0875 0.00377924
1.13882 0.5 -0.102088 0.00405421
1.13882 0.5 0.102088 0.0040718
1.10076 0.5 -0.314829 0.00400367
1.10076 0.5 0.314829 0.00404418
0.756813 0.5 -0.8625 0.00382298
0.756814 0.5 0.8625 0.003848
0.797732 0.5 -0.825 0.00383371
0.797732 0.5 0.825 0.00386095
1.11376 0.5 -0.277247 0.00401652
1.11376 0.5 0.277247 0.00405476
0.835106 0.5 0.7875 0.00387392
0.835106 0.5 -0.7875 0.00384481
0.715434 0.5 -0.9 0.00381355
0.715434 0.5 0.9 0.00383721
0.872064 0.5 -0.75 0.00385738
0.872064 0.5 0.75 0.00388938
1.13882 0.5 0.170147 0.00407338
1.13882 0.5 -0.170147 0.00404657
0.67013 0.5 -0.9375 0.00380441
0.67013 0.5 0.9375 0.00382633
0.905821 0.5 -0.7125 0.00387045
0.905821 0.5 0.7125 0.003905
1.05695 0.5 0.468994 0.00400359
1.05695 0.5 -0.468994 0.00395707
0.939201 0.5 -0.675 0.00388392
0.939201 0.5 0.675 0.00392197
0.624316 0.5 0.975 0.00381737
0.624316 0.5 -0.975 0.0037966
1.04168 0.5 -0.510414 0.003944
1.04168 0.5 0.510414 0.00399059
0.969689 0.5 -0.6375 0.00389789
0.96969 0.5 0.6375 0.00393907
0.288069 0.5 -1.125 0.00376323
0.288069 0.5 1.125 0.00377303
1.16179 0.5 5.78241e-19 0.00408142
1.08112 0.5 0.425666 0.00402441
1.08112 0.5 -0.425666 0.00397621
1.13882 0.5 -0.238206 0.00403779
1.13882 0.5 0.238206 0.0040748
1.16179 0.5 0.0669104 0.00408991
1.16179 0.5 -0.0669104 0.00407491
0.574156 0.5 -1.0125 0.003789
0.574156 0.5 1.0125 0.0038082
0.075776 0.5 -1.1625 0.00375296
0.075776 0.5 1.1625 0.00375515
1.00005 0.5 -0.599447 0.00391336
1.00005 0.5 0.599447 0.00395722
1.10076 0.5 0.384791 0.00404191
1.10076 0.5 -0.384791 0.00399334
1.0271 0.5 -0.55234 0.00393146
1.0271 0.5 0.55234 0.00397798
1.11376 0.5 -0.346559 0.00400651
1.11376 0.5 0.346559 0.00405348
1.16179 0.5 -0.133821 0.00406731
1.16179 0.5 0.133821 0.00409124
0.523432 0.5 -1.05 0.00378273
0.523432 0.5 1.05 0.0038007
1.17463 0.5 -0.0331343 0.00408756
1.17463 0.5 0.0331343 0.00409374
1.17463 0.5 -0.0994029 0.00408029
1.17463 0.5 0.0994029 0.00409866
1.16179 0.5 -0.200731 0.00405858
1.16179 0.5 0.200731 0.00409331
1.13882 0.5 -0.306265 0.00402783
1.13882 0.5 0.306265 0.00407476
0.219992 0.5 -1.1625 0.00375927
0.219992 0.5 1.1625 0.0037664
0.467897 0.5 -1.0875 0.00377658
0.467897 0.5 1.0875 0.00379288
1.17463 0.5 0.165672 0.00410215
1.17463 0.5 -0.165672 0.0040719
1.05695 0.5 -0.541147 0.00394609
1.05695 0.5 0.541147 0.00399833
1.18772 0.5 -5.78241e-19 0.00410111
1.11376 0.5 -0.41587 0.00399555
1.11376 0.5 0.41587 0.00405057
1.18772 0.5 -0.065614 0.00409411
1.18772 0.5 0.065614 0.00410726
1.08112 0.5 -0.49661 0.00396509
1.08112 0.5 0.49661 0.00401959
1.10076 0.5 -0.454752 0.00398219
1.10076 0.5 0.454752 0.0040379
1.18534 0.5 0.118202 0.0041114
1.16179 0.5 -0.267642 0.00404868
1.16179 0.5 0.267642 0.00409445
0 0.5 -1.19382 0.00375
0 0.5 1.19382 0.00375
0.0124865 0.5 1.19382 0.00375085
0.0124865 0.5 -1.19382 0.00375049
1.04168 0.5 -0.58333 0.00393339
1.04168 0.5 0.58333 0.00398509
1.18772 0.5 -0.131228 0.00408597
1.17463 0.5 -0.23194 0.00406233
1.17463 0.5 0.23194 0.00410423
0.411736 0.5 -1.125 0.00377171
0.411736 0.5 1.125 0.00378615
1.13882 0.5 -0.374324 0.00401682
1.13882 0.5 0.374324 0.00407318
0 0.5 -1.2 0.00375
0 0.5 1.2 0.00375
0.905821 0.5 0.7875 0.00390135
0.905821 0.5 -0.7875 0.0038633
0.872064 0.5 -0.825 0.00385111
0.872064 0.5 0.825 0.00388643
0.835106 0.5 0.8625 0.00387164
0.835106 0.5 -0.8625 0.00383939
0.939201 0.5 -0.75 0.00387599
0.939201 0.5 0.75 0.00391775
0.797732 0.5 -0.9 0.00382903
0.797732 0.5 0.9 0.00385919
1.0271 0.5 0.625985 0.00397229
1.0271 0.5 -0.625985 0.0039212
0.969689 0.5 0.7125 0.00393428
0.96969 0.5 -0.7125 0.00388912
1.18772 0.5 -0.196842 0.00407667
1.18772 0.5 0.196842 0.00411445
0.756814 0.5 -0.9375 0.00381906
0.756814 0.5 0.9375 0.00384677
0 0.5 1.20618 0.00375
0 0.5 -1.20618 0.00375
1.00005 0.5 -0.674378 0.00390381
1.00005 0.5 0.674378 0.0039519
0.0124865 0.5 1.20618 0.00375082
0.0124865 0.5 -1.20618 0.00375049
1.16179 0.5 -0.334552 0.0040377
1.16179 0.5 0.334552 0.0040941
0.715434 0.5 0.975 0.00383631
0.715434 0.5 -0.975 0.00381026
0.151149 0.5 -1.2 0.00375624
0.151149 0.5 1.2 0.0037608
1.20942 0.5 0.0322645 0.00412264
1.20942 0.5 -0.0322645 0.00411527
1.17463 0.5 -0.298209 0.00405159
1.17463 0.5 0.298209 0.00410487
1.20942 0.5 -0.0967935 0.00410723
1.20942 0.5 0.0967935 0.00412779
0.350249 0.5 -1.1625 0.00376687
0.350249 0.5 1.1625 0.00377897
0.67013 0.5 1.0125 0.00382574
0.67013 0.5 -1.0125 0.00380177
1.11376 0.5 0.485183 0.00404587
1.11376 0.5 -0.485183 0.00398395
1.18772 0.5 0.262456 0.00411605
1.18772 0.5 -0.262456 0.00406621
1.10076 0.5 -0.524714 0.00397051
1.10076 0.5 0.524714 0.00403228
1.20942 0.5 -0.161322 0.00409801
1.20942 0.5 0.161322 0.00413198
1.08112 0.5 -0.567554 0.00395365
1.08112 0.5 0.567554 0.00401362
0.624316 0.5 -1.05 0.00379447
0.624316 0.5 1.05 0.003817
1.13882 0.5 -0.442383 0.00400507
1.13882 0.5 0.442383 0.00406983
1.05695 0.5 0.6133 0.00399221
1.05695 0.5 -0.6133 0.00393515
1.16179 0.5 -0.401463 0.00402589
1.16179 0.5 0.401463 0.00409213
0.574156 0.5 -1.0875 0.0037874
0.574156 0.5 1.0875 0.00380806
1.17463 0.5 0.364477 0.00410397
1.17463 0.5 -0.364477 0.00403989
1.20942 0.5 -0.225851 0.00408758
1.20942 0.5 0.225851 0.00413473
1.23036 0.5 -1.32995e-17 0.00413697
1.2294 0.5 0.0634819 0.00414405
1.04168 0.5 -0.656246 0.00392269
1.04168 0.5 0.656246 0.00397889
1.23036 0.5 -0.0634819 0.00412898
1.18772 0.5 0.32807 0.00411618
1.18772 0.5 -0.32807 0.00405471
0.288069 0.5 -1.2 0.00376313
0.288069 0.5 1.2 0.00377264
1.23036 0.5 -0.126964 0.00411978
1.23036 0.5 0.126964 0.00414912
0.075776 0.5 -1.2375 0.00375299
0.075776 0.5 1.2375 0.00375496
0.523432 0.5 -1.125 0.00378152
0.523432 0.5 1.125 0.00380054
1.0271 0.5 -0.69963 0.00391086
1.0271 0.5 0.69963 0.00396621
1.24274 0.5 0.0314313 0.00415112
1.24274 0.5 -0.0314313 0.00414347
1.20942 0.5 0.29038 0.00413601
1.20942 0.5 -0.29038 0.00407605
1.11376 0.5 -0.554494 0.00397197
1.11376 0.5 0.554494 0.00403963
1.23036 0.5 -0.190445 0.00410937
1.23036 0.5 0.190445 0.00415305
1.24274 0.5 -0.0942942 0.0041346
1.24274 0.5 0.0942942 0.00415748
1.13882 0.5 0.510442 0.00406441
1.13882 0.5 -0.510442 0.0039929
0.969689 0.5 -0.7875 0.00388047
0.969689 0.5 0.7875 0.00392938
1.00005 0.5 -0.749309 0.00389432
1.00005 0.5 0.749309 0.00394644
0.939201 0.5 -0.825 0.00386811
0.939201 0.5 0.825 0.00391343
0.90582 0.5 0.8625 0.00389775
0.90582 0.5 -0.8625 0.00385623
1.17463 0.5 -0.430746 0.00402755
1.17463 0.5 0.430746 0.0041014
1.10076 0.5 -0.594676 0.00395863
1.10076 0.5 0.594676 0.00402555
1.18772 0.5 -0.393684 0.00404244
1.18772 0.5 0.393684 0.00411471
1.24274 0.5 -0.157157 0.00412448
1.24274 0.5 0.157157 0.00416237
1.16179 0.5 -0.468373 0.00401356
1.16179 0.5 0.468373 0.00408824
0.467897 0.5 -1.1625 0.00377576
0.467897 0.5 1.1625 0.00379267
0.872064 0.5 -0.9 0.00384489
0.872064 0.5 0.9 0.00388348
1.25401 0.5 2.08167e-17 0.00415671
0.835106 0.5 0.9375 0.00386934
0.835106 0.5 -0.9375 0.003834
1.25401 0.5 -0.0622994 0.00414816
1.25401 0.5 0.0622994 0.00416447
1.08112 0.5 -0.638498 0.00394191
1.08112 0.5 0.638498 0.00400673
1.23036 0.5 -0.253927 0.00409784
1.23036 0.5 0.253927 0.00415551
0.219992 0.5 1.2375 0.00376595
0.219992 0.5 -1.2375 0.0037593
1.25309 0.5 0.121964 0.00416988
1.05695 0.5 0.685452 0.00398544
1.05695 0.5 -0.685452 0.00392395
0.797732 0.5 0.975 0.00385737
0.797732 0.5 -0.975 0.00382439
1.25401 0.5 -0.124599 0.00413836
1.20942 0.5 -0.354909 0.00406365
1.20942 0.5 0.354909 0.0041358
1.24274 0.5 -0.220019 0.00411318
1.24274 0.5 0.220019 0.0041658
0.756814 0.5 -1.0125 0.00381514
0.756813 0.5 1.0125 0.00384544
1.25401 0.5 -0.186898 0.00412733
1.25401 0.5 0.186898 0.00417428
0.411736 0.5 -1.2 0.00377115
0.411736 0.5 1.2 0.00378576
0 0.5 -1.26882 0.00375
0 0.5 1.26882 0.00375
0.0124865 0.5 1.26882 0.00375082
0.0124865 0.5 -1.26882 0.00375049
0.715434 0.5 -1.05 0.00380697
0.715434 0.5 1.05 0.0038353
1.23036 0.5 -0.31741 0.00408537
1.23036 0.5 0.31741 0.00415648
1.04168 0.5 -0.729162 0.00391197
1.04168 0.5 0.729162 0.00397242
1.18772 0.5 -0.459298 0.00402969
1.18772 0.5 0.459298 0.00411137
1.24274 0.5 -0.282882 0.00410084
1.24274 0.5 0.282882 0.00416773
0 0.5 -1.275 0.00375
0 0.5 1.275 0.00375
1.27472 0.5 -0.0306319 0.00417227
1.27472 0.5 0.0306319 0.00418075
1.17463 0.5 0.497015 0.00409668
1.17463 0.5 -0.497015 0.00401486
1.11376 0.5 -0.623806 0.00395944
1.11376 0.5 0.623806 0.00403223
1.13882 0.5 -0.578501 0.00398034
1.13882 0.5 0.578501 0.00405737
0.67013 0.5 -1.0875 0.00379909
0.67013 0.5 1.0875 0.00382509
1.27472 0.5 -0.0918959 0.00416249
1.27472 0.5 0.0918959 0.0041845
1.25401 0.5 -0.249197 0.00411522
1.25401 0.5 0.249197 0.00417719
1.16179 0.5 -0.535284 0.00400082
1.16179 0.5 0.535284 0.00408224
1.20942 0.5 -0.419438 0.00405069
1.20942 0.5 0.419438 0.00413395
0 0.5 -1.28118 0.00375
0 0.5 1.28118 0.00375
0.0124865 0.5 1.28118 0.00375078
0.0124865 0.5 -1.28118 0.0037505
1.27472 0.5 0.15316 0.00419351
1.27472 0.5 -0.15316 0.00415144