# kMean  POINT_DATA 91129
# x  y  z  kMean
0 0 0 0.00520442
0 0.00368111 0 0.00375
0 0.00749587 0 0.00375
0 0.0114491 0 0.00375
0 0.0155459 0 0.00375
0 0.0197915 0 0.00375
0 0.0241911 0 0.00375
0 0.0287506 0 0.00375
0 0.0334755 0 0.00375
0 0.038372 0 0.00375
0 0.0434463 0 0.00375
0 0.0487048 0 0.00375
0 0.0541543 0 0.00375
0 0.0598016 0 0.00375
0 0.0656539 0 0.00375
0 0.0717187 0 0.00375
0.075776 0.00184055 0 0.00847961
0.075776 0.00558849 0 0.00309925
0.075776 0.00947248 -3.46945e-18 0.00297609
0.075776 0.0134975 -3.46945e-18 0.00337625
0.075776 0.0176687 3.46945e-18 0.00355711
0 0.0780037 0 0.00375
0.075776 0.0219913 3.46945e-18 0.00363138
0.075776 0.0264709 3.46945e-18 0.0036688
0.075776 0.031113 -3.46945e-18 0.00369049
0.075776 0.0359237 -3.46945e-18 0.00370436
0 0.0845169 0 0.00375
0.075776 0.0409092 0 0.00371384
0.075776 0.0460755 -3.46945e-18 0.00372066
0 0.0912666 0 0.00375
0.075776 0.0514296 -3.46945e-18 0.00372577
0.075776 0.0569779 0 0.00372971
0 0.0982613 0 0.00375
0.075776 0.0627278 0 0.00373284
0.075776 0.0686863 0 0.00373536
0 0.10551 0 0.00375
0.075776 0.0748612 3.46945e-18 0.00373744
0.075776 0.0812603 -3.46945e-18 0.00373919
0 0.113022 0 0.00375
0.075776 0.0878918 3.46945e-18 0.00374069
0 0.120806 0 0.00375
0.075776 0.0947639 3.46945e-18 0.003742
0.075776 0.101886 -3.46945e-18 0.00374314
0 0.128874 0 0.00375
0.075776 0.109266 3.46945e-18 0.00374413
0 0.137234 0 0.00375
0.075776 0.116914 3.46945e-18 0.003745
0 0.145897 0 0.00375
0.075776 0.12484 0 0.00374575
0.151552 0 0 0.00516085
0.151552 0.00368111 0 0.0036954
0.151552 0.00749587 0 0.00246045
0.151552 0.0114491 0 0.00294692
0.151552 0.0155459 0 0.00330879
0.151552 0.0197915 0 0.00346386
0.075776 0.133054 0 0.00374641
0.151552 0.0241911 0 0.00354441
0.151552 0.0287506 0 0.00359715
0 0.154876 0 0.00375
0.151552 0.0334755 0 0.00363302
0.151552 0.038372 0 0.003658
0.151552 0.0434463 0 0.00367598
0.151552 0.0487048 0 0.00368933
0.075776 0.141566 0 0.003747
0.151552 0.0541543 0 0.00369952
0.151552 0.0598016 0 0.00370749
0 0.16418 0 0.00375
0.151552 0.0656539 0 0.00371385
0.151552 0.0717187 0 0.00371903
0.075776 0.150387 0 0.00374755
0.151552 0.0780037 0 0.00372331
0.151552 0.0845169 0 0.00372691
0 0.173822 0 0.00375
0.075776 0.159528 0 0.00374806
0.151552 0.0912666 0 0.00372997
0.151552 0.0982613 0 0.0037326
0 0.183814 0 0.00375
0.151552 0.10551 0 0.00373488
0.075776 0.169001 3.46945e-18 0.00374855
0.151552 0.113022 0 0.00373686
0.151552 0.120806 0 0.00373859
0 0.194169 0 0.00375
0.075776 0.178818 3.46945e-18 0.00374904
0.151552 0.128874 0 0.00374013
0.075776 0.188992 3.46945e-18 0.00374952
0.151552 0.137234 0 0.0037415
0 0.2049 0 0.00375
0.151552 0.145897 0 0.00374272
0.075776 0.199535 0 0.00374999
0 0.21602 0 0.00375
0.151552 0.154876 0 0.00374383
0.219992 0.00184055 0 0.0020975
0.219992 0.00558849 0 0.00142732
0.219992 0.00947248 -3.46945e-18 0.00242793
0.219992 0.0134975 3.46945e-18 0.0030427
0.219992 0.0176687 0 0.00328338
0.219992 0.0219913 0 0.00340362
0.219993 0.0264709 -3.46945e-18 0.00349011
0.219992 0.031113 -3.46945e-18 0.00355188
0.219992 0.0359238 3.46945e-18 0.00359526
0.151552 0.16418 0 0.00374485
0.075776 0.21046 0 0.00375045
0.219992 0.0409092 3.46945e-18 0.0036264
0.219992 0.0460755 0 0.00364936
0.219993 0.0514296 -3.46945e-18 0.00366674
0.219992 0.0569779 0 0.00368021
0 0.227544 0 0.00375
0.219992 0.0627277 3.46945e-18 0.00369086
0.219992 0.0686863 0 0.00369946
0.151552 0.173822 0 0.00374579
0.219992 0.0748612 3.46945e-18 0.00370652
0.075776 0.221782 0 0.00375087
0.219992 0.0812603 3.46945e-18 0.00371241
0.219992 0.0878917 -3.46945e-18 0.00371736
0.151552 0.183814 0 0.00374667
7.47806e-17 0.239487 0 0.00375
0.219992 0.0947639 3.46945e-18 0.00372158
0.219993 0.101886 3.46945e-18 0.00372521
0.075776 0.233516 0 0.00375125
0.219993 0.109266 0 0.00372836
0.151552 0.194169 0 0.00374749
0.219993 0.116914 0 0.00373112
0 0.251863 0 0.00375
0.219993 0.12484 0 0.00373355
0.151552 0.2049 0 0.00374827
0.075776 0.245675 0 0.00375158
0.219992 0.133054 3.46945e-18 0.00373572
0.219992 0.141565 0 0.00373765
0.151552 0.21602 0 0.003749
0 0.264688 0 0.00375
0.219992 0.150387 3.46945e-18 0.00373939
0.075776 0.258275 3.46945e-18 0.00375185
0.219992 0.159528 -3.46945e-18 0.00374095
0.151552 0.227544 0 0.00374967
0.219992 0.169001 3.46945e-18 0.00374237
0 0.27798 0 0.00375
0.075776 0.271334 3.46945e-18 0.00375207
0.151552 0.239487 3.70071e-18 0.0037503
0.219992 0.178818 3.46945e-18 0.00374366
0.288433 0 0 0.00147039
0.288433 0.00368111 0 0.00132782
0.288433 0.00749587 0 0.00179764
0.288433 0.0114491 0 0.00273103
0.288433 0.0155459 3.70071e-18 0.00316449
0.288433 0.0197915 0 0.00332004
0.288433 0.0241911 3.70071e-18 0.00339774
0.288433 0.0287506 0 0.00346316
0.219992 0.188991 0 0.00374486
0.288433 0.0334755 0 0.00351863
0.288433 0.038372 0 0.00356241
0.288433 0.0434463 0 0.00359637
7.47806e-17 0.291753 0 0.00375
0.288433 0.0487048 0 0.00362286
0.288433 0.0541543 0 0.00364374
0.151552 0.251863 0 0.00375087
0.288433 0.0598016 3.70071e-18 0.00366042
0.075776 0.284866 0 0.00375223
0.288433 0.0656539 3.70071e-18 0.00367394
0.219992 0.199534 0 0.00374596
0.288433 0.0717187 0 0.00368503
0.288433 0.0780037 0 0.00369425
0.288433 0.0845169 0 0.00370198
0.288433 0.0912666 0 0.00370849
0.219992 0.21046 -3.46945e-18 0.00374698
0.288433 0.0982613 0 0.00371401
0.151552 0.264688 3.70071e-18 0.00375139
0 0.306027 0 0.00375
0.288433 0.10551 0 0.00371881
0.075776 0.29889 3.46945e-18 0.00375233
0.288433 0.113022 0 0.00372306
0.219993 0.221782 0 0.00374794
0.288433 0.120806 0 0.00372685
0.288433 0.128874 0 0.00373026
0.151552 0.27798 0 0.00375185
0.288433 0.137234 0 0.00373333
0 0.320819 0 0.00375
0.219992 0.233515 -3.46945e-18 0.00374884
0.075776 0.313423 -3.46945e-18 0.00375236
0.288433 0.145897 0 0.00373611
0.288433 0.154876 0 0.00373862
0.151552 0.291753 0 0.00375225
0.219993 0.245675 0 0.00374969
0.288433 0.16418 0 0.00374087
0 0.336148 0 0.00375
0.288433 0.173822 0 0.0037429
0.075776 0.328484 -3.46945e-18 0.00375232
0.219993 0.258275 -3.46945e-18 0.00375048
0.151552 0.306027 0 0.0037526
0.288433 0.183814 0 0.00374471
0.288433 0.194169 0 0.00374635
0.219992 0.271334 3.46945e-18 0.00375123
0.350249 0.00184056 -3.46945e-18 0.000889404
0.350249 0.00558849 0 0.000960952
0.350249 0.00947248 3.46945e-18 0.00239349
0.350249 0.0134975 0 0.00306067
0.350249 0.0176687 0 0.00327103
0.350249 0.0219913 0 0.0033256
0.350249 0.0264708 3.46945e-18 0.00337884
0.350249 0.031113 0 0.00344031
0 0.352034 0 0.00375
0.350249 0.0359238 0 0.00349513
0.075776 0.344091 0 0.00375228
0.350249 0.0409091 0 0.00353996
0.350249 0.0460756 3.46945e-18 0.00357588
0.288433 0.2049 0 0.00374782
0.350249 0.0514296 0 0.00360461
0.151552 0.320819 0 0.00375288
0.350249 0.0569779 0 0.00362775
0.350249 0.0627277 3.46945e-18 0.00364655
0.350249 0.0686863 3.46945e-18 0.00366198
0.350249 0.0748612 3.46945e-18 0.00367479
0.350249 0.0812603 0 0.00368551
0.219992 0.284867 0 0.00375192
0.288433 0.21602 0 0.00374914
0.350249 0.0878917 0 0.00369452
0.350249 0.094764 0 0.00370209
0.350249 0.101886 0 0.00370855
0.350249 0.109266 0 0.00371428
0.288433 0.227544 0 0.00375034
0.075776 0.360265 3.46945e-18 0.00375228
0 0.368496 0 0.00375
0.151552 0.336148 0 0.00375312
0.350249 0.116914 3.46945e-18 0.00371944
0.219992 0.29889 0 0.00375254
0.370854 0.0241911 1.54074e-33 0.00337873
0.350249 0.12484 0 0.00372409
0.350249 0.133054 0 0.00372831
0.288433 0.239487 -9.25154e-19 0.00375143
0.350249 0.141566 3.46945e-18 0.00373215
0.350249 0.150387 3.46945e-18 0.00373562
0.288433 0.251863 0 0.00375243
0.219992 0.313423 0 0.00375312
0.151552 0.352034 0 0.00375335
0.075776 0.377027 0 0.00375235
0.350249 0.159528 0 0.00373875
0 0.385557 0 0.00375
0.350249 0.169001 0 0.00374154
0.288433 0.264688 0 0.00375335
0.350249 0.178818 0 0.00374403
0.219992 0.328484 0 0.00375364
0.350249 0.188992 0 0.00374625
0.151552 0.368496 0 0.0037536
0.288433 0.27798 3.70071e-18 0.0037542
0.075776 0.394397 0 0.00375245
0.350249 0.199535 0 0.00374822
7.47806e-17 0.403236 0 0.00375
0.219992 0.344091 0 0.00375412
0.350249 0.21046 -3.46945e-18 0.00374994
0.288433 0.291753 0 0.00375499
0.412065 9.08189e-19 3.08149e-33 0.000770443
0.412065 0.00368111 -2.31298e-18 0.000853561
0.412065 0.00749587 -2.31298e-18 0.00173266
0.412065 0.0114491 -2.31298e-18 0.00287814
0.412065 0.0155459 -2.31298e-18 0.00329748
0.412065 0.0197915 0 0.0033667
0.412065 0.0241911 -3.08149e-33 0.00336923
0.412065 0.0264709 0 0.00338027
0.412065 0.0287506 -2.31298e-18 0.00339131
0.412065 0.0334755 -2.31298e-18 0.00343441
0.412065 0.038372 -2.31298e-18 0.00348131
0.151552 0.385557 0 0.00375388
0.412065 0.0434463 0 0.00352361
0.350249 0.221782 0 0.00375146
0.412065 0.0487048 0 0.00355958
0.412065 0.0541543 -3.08149e-33 0.00358952
0.412065 0.0569779 0 0.00360192
0.412065 0.0598016 -2.31298e-18 0.00361431
0.412065 0.0656539 -2.31298e-18 0.00363486
0.412065 0.0717187 -2.31298e-18 0.00365197
0.075776 0.412396 -3.46945e-18 0.00375253
0.412065 0.0780037 -2.31298e-18 0.0036663
0.288433 0.306027 0 0.00375573
0.412065 0.0845169 -2.31298e-18 0.00367834
0.350249 0.233516 3.46945e-18 0.00375282
0 0.421557 0 0.00375
0.412065 0.0912666 -2.31298e-18 0.00368853
0.219992 0.360265 3.46945e-18 0.00375457
0.412065 0.0982613 0 0.0036973
0.412065 0.10551 0 0.00370511
0.412065 0.113022 -2.31298e-18 0.00371221
0.350249 0.245675 0 0.00375405
0.412065 0.120806 0 0.00371866
0.151552 0.403236 0 0.00375417
0.288433 0.320819 0 0.00375645
0.412065 0.128874 -2.31298e-18 0.00372451
0.412065 0.137234 0 0.00372981
0.350249 0.258275 -3.46945e-18 0.00375516
0.219992 0.377026 0 0.00375502
0.412065 0.145897 -2.31298e-18 0.0037346
0.075776 0.431051 0 0.00375259
0.412065 0.154876 -2.31298e-18 0.00373889
0 0.440544 0 0.00375
0.288433 0.336148 0 0.00375714
0.350249 0.271334 0 0.00375617
0.412065 0.16418 -2.31298e-18 0.00374272
0.412065 0.173822 -2.31298e-18 0.00374611
0.151552 0.421557 0 0.00375444
0.412065 0.183814 -2.31298e-18 0.0037491
0.350249 0.284867 3.46945e-18 0.0037571
0.219992 0.394397 0 0.00375549
0.288433 0.352034 3.70071e-18 0.00375782
0.412065 0.194169 0 0.00375174
0.075776 0.450382 0 0.00375262
0.412065 0.2049 -2.31298e-18 0.00375406
0 0.46022 0 0.00375
0.350249 0.29889 3.46945e-18 0.00375798
0.412065 0.21602 0 0.0037561
0.151552 0.440544 0 0.0037547
0.219993 0.412396 3.46945e-18 0.00375596
0.467897 0.00184056 -3.46945e-18 0.000659782
0.467897 0.00558849 0 0.000914097
0.288433 0.368496 0 0.00375849
0.467897 0.00947248 0 0.0026544
0.467897 0.0134975 0 0.00338295
0.467897 0.0176687 3.46945e-18 0.00345695
0.467897 0.0219913 -3.46945e-18 0.0034037
0.467897 0.0264709 3.46945e-18 0.00336642
0.467897 0.0311131 3.46945e-18 0.00338221
0.467897 0.0359238 -3.46945e-18 0.00342463
0.467897 0.038372 0 0.00345518
0.467897 0.0409092 3.46945e-18 0.00347059
0.350249 0.313423 0 0.00375885
0.467897 0.0460755 0 0.00351281
0.467897 0.0514296 3.46945e-18 0.00354931
0.412065 0.227544 -2.31298e-18 0.00375791
0.467897 0.0569779 0 0.00358014
0.467897 0.0627277 -3.46945e-18 0.00360598
0.467897 0.0686863 3.46945e-18 0.00362762
0.467897 0.0748612 0 0.00364577
0.467897 0.0812603 0 0.00366105
0.467897 0.0878918 3.46945e-18 0.00367393
0.075776 0.470415 3.46945e-18 0.00375263
0.412065 0.239487 -2.31298e-18 0.0037595
0.467897 0.0947639 -3.46945e-18 0.00368493
0.467897 0.101886 3.46945e-18 0.00369474
0.350249 0.328483 0 0.00375973
0.467897 0.109266 0 0.00370376
0 0.48061 0 0.00375
0.288433 0.385557 0 0.00375914
0.467897 0.116914 0 0.00371202
0.412065 0.251863 -2.31298e-18 0.0037609
0.219992 0.431051 0 0.00375642
0.467897 0.12484 0 0.00371954
0.151552 0.46022 0 0.00375493
0.467897 0.133054 3.46945e-18 0.00372636
0.467897 0.141566 3.46945e-18 0.0037325
0.412065 0.264688 -2.31298e-18 0.00376215
0.350249 0.344091 -3.46945e-18 0.00376062
0.467897 0.150387 3.46945e-18 0.00373802
0.467897 0.154876 0 0.00374206
0.467897 0.159528 3.46945e-18 0.00374294
0.288433 0.403236 0 0.0037598
0.075776 0.491175 0 0.00375264
0.412065 0.27798 -2.31298e-18 0.00376328
0.467897 0.169001 0 0.00374729
0.467897 0.178818 3.46945e-18 0.00375112
0.219992 0.450382 0 0.00375685
6.73026e-17 0.501741 3.70071e-18 0.00375
0.350249 0.360265 0 0.00376149
0.151552 0.48061 0 0.00375514
0.467897 0.188991 0 0.00375447
0.412065 0.291753 0 0.00376431
0.467897 0.199535 0 0.00375739
0.288433 0.421557 0 0.00376044
0.467897 0.21046 0 0.00375999
0.412065 0.306027 0 0.00376529
0.350249 0.377027 0 0.00376233
0.467897 0.221782 3.46945e-18 0.00376228
0.075776 0.51269 0 0.00375267
0.219993 0.470415 3.46945e-18 0.00375726
0.467897 0.227544 0 0.00376526
0.412065 0.320819 -2.31298e-18 0.00376624
0.467897 0.233515 0 0.00376427
6.73026e-17 0.523639 3.70071e-18 0.00375
0.523729 0 0 0.000598282
0.523729 0.00368111 0 0.00075219
0.523729 0.00749587 -2.31298e-18 0.00185775
0.523729 0.0114491 0 0.00321716
0.523729 0.0155459 0 0.00363576
0.523729 0.0197915 -2.31298e-18 0.00357945
0.151552 0.501741 0 0.00375533
0.523729 0.0241911 0 0.00346205
0.523729 0.0287506 0 0.00339978
0.523729 0.0334755 0 0.00339889
0.523729 0.038372 -3.08149e-33 0.00342904
0.523729 0.0434463 0 0.00346831
0.523729 0.0487048 0 0.00350745
0.523729 0.0541543 0 0.00354289
0.288433 0.440544 0 0.00376107
0.523729 0.0598016 0 0.00357377
0.350249 0.394397 -3.46945e-18 0.00376317
0.523729 0.0656539 0 0.00360023
0.467897 0.245675 0 0.00376601
0.523729 0.0717187 0 0.00362273
0.523729 0.0780037 0 0.0036418
0.523729 0.0845169 0 0.00365793
0.523729 0.0912666 0 0.00367178
0.412065 0.336148 0 0.00376718
0.523729 0.0982613 0 0.00368413
0.523729 0.10551 -2.31298e-18 0.00369544
0.467897 0.258275 -3.46945e-18 0.00376753
0.523729 0.113022 0 0.00370583
0.523729 0.120806 -3.08149e-33 0.00371534
0.219993 0.491176 0 0.00375764
0.523729 0.12484 0 0.00371967
0.523729 0.128874 -2.31298e-18 0.00372401
0.075776 0.534986 0 0.0037527
0.467897 0.271334 3.46945e-18 0.00376886
0.350249 0.412396 -3.46945e-18 0.00376399
0.523729 0.137234 0 0.00373185
0.412065 0.352034 -2.31298e-18 0.00376811
0.288433 0.46022 0 0.00376167
0.523729 0.145897 0 0.00373892
0.151552 0.523639 0 0.00375552
0.523729 0.154876 -3.08149e-33 0.00374523
0 0.546332 0 0.00375
0.523729 0.159528 0 0.00374804
0.467897 0.284867 -3.46945e-18 0.00377006
0.523729 0.16418 -2.31298e-18 0.00375085
0.523729 0.173822 0 0.0037558
0.412065 0.368496 0 0.00376903
0.523729 0.183814 0 0.00376014
0.467897 0.29889 0 0.00377116
0.350249 0.431051 -3.46945e-18 0.00376479
0.219992 0.51269 0 0.00375798
0.523729 0.194169 0 0.00376392
0.288433 0.48061 0 0.00376224
0.523729 0.2049 0 0.00376723
0.467897 0.313423 3.46945e-18 0.0037722
0.075776 0.558091 0 0.00375274
0.412065 0.385557 0 0.00376994
0.523729 0.21602 -3.08149e-33 0.00377011
0.151552 0.546332 0 0.00375571
0 0.569849 0 0.00375
0.350249 0.450382 3.46945e-18 0.00376558
0.523729 0.227544 -3.08149e-33 0.00377261
0.467897 0.328483 0 0.00377321
0.523729 0.231525 1.54074e-33 0.00377332
0.574156 0.00184056 0 0.000540818
0.574156 0.00558849 0 0.00089863
0.574157 0.00947248 0 0.00295428
0.574156 0.0134975 -3.46945e-18 0.00385102
0.574156 0.0176687 -3.46945e-18 0.00382382
0.574156 0.0219913 0 0.00361375
0.574156 0.0264708 -3.46945e-18 0.00345423
0.574156 0.031113 0 0.00339291
0.574156 0.0359238 -3.46945e-18 0.00339642
0.574157 0.0409092 0 0.00342695
0.523729 0.239487 3.70071e-18 0.00377476
0.574156 0.0460755 -3.46945e-18 0.00346599
0.574156 0.0514295 0 0.00350479
0.412065 0.403236 0 0.00377084
0.574157 0.0569779 0 0.0035402
0.574156 0.0627277 0 0.00357131
0.574156 0.0686863 0 0.00359818
0.219992 0.534986 0 0.00375831
0.288433 0.501741 0 0.00376277
0.574156 0.0748612 3.46945e-18 0.00362117
0.574156 0.0812603 0 0.00364072
0.467897 0.344091 0 0.0037742
0.574156 0.0878917 3.46945e-18 0.0036573
0.523729 0.251863 0 0.00377662
0.574157 0.0947639 0 0.00367198
0.574156 0.101886 0 0.00368562
0.574156 0.109266 0 0.00369816
0.574156 0.116914 0 0.00370967
0.412065 0.416977 -6.16298e-33 0.00377151
0.350249 0.470415 0 0.00376633
0.523729 0.264688 0 0.00377822
0.075776 0.582034 0 0.00375279
0.574156 0.12484 0 0.0037202
0.574156 0.133054 3.46945e-18 0.00372979
0.412065 0.421557 -2.31298e-18 0.00377174
0.151552 0.569849 0 0.00375589
0.467897 0.360265 -3.46945e-18 0.00377518
0.574157 0.141566 -3.46945e-18 0.00373845
0.523729 0.27798 0 0.00377963
0.574156 0.150386 3.46945e-18 0.00374622
0 0.594219 0 0.00375
0.574156 0.159528 -3.46945e-18 0.00375314
0.574156 0.16418 0 0.0037577
0.288433 0.523639 1.2326e-32 0.00376326
0.574157 0.169001 0 0.00375927
0.523729 0.291753 0 0.00378087
0.219993 0.558091 3.46945e-18 0.00375863
0.467897 0.377026 0 0.00377616
0.574156 0.178818 3.46945e-18 0.00376465
0.412065 0.440544 -2.31298e-18 0.00377262
0.350249 0.491175 0 0.00376704
0.574156 0.188992 3.46945e-18 0.00376935
0.523729 0.306027 -3.08149e-33 0.003782
0.574157 0.199535 0 0.00377343
0.574157 0.21046 0 0.00377697
0.075776 0.606847 0 0.00375285
0.467897 0.394397 0 0.00377713
0.151552 0.594219 0 0.00375608
0.523729 0.320819 0 0.00378305
0.574157 0.221782 -3.46945e-18 0.00378002
0.412065 0.46022 3.08149e-33 0.00377347
0.288433 0.546332 0 0.00376372
0 0.619475 0 0.00375
0.574156 0.233515 3.46945e-18 0.00378264
0.350249 0.51269 3.46945e-18 0.0037677
0.219992 0.582034 3.46945e-18 0.00375894
0.523729 0.336148 0 0.00378406
0.467897 0.412396 0 0.0037781
0.574156 0.245675 0 0.00378487
0.624584 0 0 0.000499056
0.624584 0.00368111 0 0.000698572
0.624584 0.00749587 0 0.00199387
0.624584 0.0114491 0 0.0035952
0.624584 0.0155459 0 0.00408784
0.624584 0.0197915 0 0.00393063
0.624584 0.0241911 -2.31298e-18 0.00367055
0.624584 0.0287506 0 0.0034951
0.624584 0.0334755 0 0.00342133
0.624584 0.038372 0 0.00341409
0.624584 0.0434463 -2.31298e-18 0.00343678
0.624584 0.0487048 0 0.00347092
0.624584 0.0541543 0 0.00350707
0.624584 0.0598016 0 0.0035412
0.624584 0.0656539 0 0.00357186
0.624584 0.0717187 0 0.00359872
0.624584 0.0780037 0 0.00362189
0.574157 0.258276 3.46945e-18 0.00378678
0.624584 0.0845169 0 0.00364182
0.523729 0.352034 0 0.00378504
0.624584 0.0912666 0 0.00365939
0.624584 0.0982613 0 0.00367552
0.412065 0.48061 3.08149e-33 0.0037743
0.624584 0.10551 0 0.00369048
0.624584 0.113022 -2.31298e-18 0.00370426
0.574156 0.271334 0 0.00378842
0.624584 0.120806 0 0.00371691
0.467897 0.431051 0 0.00377906
0.075776 0.632561 -3.46945e-18 0.00375292
0.624584 0.128874 0 0.00372848
0.151552 0.619475 0 0.00375626
0.288433 0.569849 0 0.00376416
0.350249 0.534985 0 0.00376831
0.624584 0.137234 -2.31298e-18 0.003739
0.523729 0.368496 0 0.003786
0.574156 0.284866 -3.46945e-18 0.00378984
0.624584 0.145897 0 0.00374849
0.467897 0.440544 0 0.00378123
0.624584 0.154876 0 0.003757
0.219992 0.606847 -3.46945e-18 0.00375924
0 0.645647 0 0.00375
0.624584 0.16418 -3.08149e-33 0.00376455
0.574156 0.29889 -3.46945e-18 0.00379109
0.624584 0.173822 0 0.00377122
0.412065 0.501741 1.54074e-33 0.00377507
0.467897 0.450382 -3.46945e-18 0.00378002
0.523729 0.385557 0 0.00378696
0.624584 0.183814 0 0.00377706
0.624584 0.194169 0 0.00378214
0.574156 0.313423 0 0.00379221
0.624584 0.2049 0 0.00378653
0.350249 0.558091 3.46945e-18 0.00376889
0.288433 0.594219 0 0.00376458
0.624584 0.21602 0 0.0037903
0.523729 0.403236 0 0.00378792
0.574156 0.328483 -3.46945e-18 0.00379325
0.151552 0.645647 0 0.00375644
0.467897 0.470415 3.46945e-18 0.00378095
0.075776 0.659208 0 0.00375299
0.624584 0.227544 0 0.00379352
0.412065 0.523639 0 0.0037758
0.523729 0.41545 3.08149e-33 0.00378856
0.624584 0.239487 3.70071e-18 0.00379625
0.574156 0.344091 0 0.00379423
0.219992 0.632561 0 0.00375953
0.67013 0.00184055 0 0.000459849
0.67013 0.00558849 0 0.000897592
0.67013 0.00947248 0 0.00321681
0.67013 0.0134975 0 0.00433518
0.67013 0.0176687 -3.46945e-18 0.00431071
0.67013 0.0219913 0 0.00394833
0.67013 0.0264708 3.46945e-18 0.00364918
0.67013 0.0311131 0 0.00347533
0.67013 0.0359237 0 0.0034174
0.67013 0.0409092 -3.46945e-18 0.00341529
0.67013 0.0460755 0 0.00344007
0.67013 0.0514296 3.46945e-18 0.0034746
0.523729 0.421557 -2.31298e-18 0.00378888
0.67013 0.056978 0 0.00351059
0 0.67277 0 0.00375
0.67013 0.0627277 0 0.0035445
0.624584 0.251863 0 0.00379857
0.67013 0.0686863 0 0.00357503
0.67013 0.0748612 3.46945e-18 0.00360183
0.67013 0.0812603 0 0.00362494
0.67013 0.0878917 0 0.00364518
0.67013 0.0947639 3.46945e-18 0.00366374
0.574156 0.360265 0 0.00379519
0.67013 0.101886 0 0.00368113
0.523729 0.431051 0 0.00378936
0.624584 0.264688 0 0.00380052
0.467897 0.491175 0 0.00378183
0.67013 0.109266 3.46945e-18 0.00369721
0.350249 0.582034 0 0.00376942
0.67013 0.116914 0 0.00371198
0.67013 0.12484 0 0.00372556
0.67013 0.133054 0 0.00373796
0.288433 0.619475 0 0.00376497
0.624584 0.27798 -3.08149e-33 0.00380217
0.412065 0.546332 1.54074e-33 0.00377647
0.523729 0.440544 -3.08149e-33 0.00378983
0.67013 0.141566 3.46945e-18 0.00374921
0.685312 0.0241911 -7.70372e-34 0.00388278
0.685312 0.0434463 -7.70372e-34 0.00343595
0.67013 0.150387 0 0.00375934
0.574156 0.377026 -3.46945e-18 0.00379614
0.67013 0.159528 0 0.00376839
0.624584 0.291753 0 0.00380358
0.151552 0.67277 0 0.00375662
0.075776 0.686823 0 0.00375306
0.67013 0.169001 0 0.0037764
0.67013 0.178818 0 0.00378344
0.467897 0.51269 0 0.00378267
0.685312 0.113022 -7.70372e-34 0.00370599
0.219992 0.659208 0 0.00375982
0.624584 0.306027 0 0.00380481
0.67013 0.188991 0 0.00378958
0.574156 0.394397 3.46945e-18 0.00379708
0.523729 0.46022 0 0.00379078
0.685312 0.137234 -7.70372e-34 0.00374657
0.67013 0.199535 -3.46945e-18 0.00379489
0.350249 0.606847 0 0.00376993
0 0.700877 0 0.00375
0.624584 0.320819 0 0.00380589
0.67013 0.21046 0 0.00379944
0.412065 0.569849 -2.31298e-18 0.00377709
0.67013 0.221782 -3.46945e-18 0.00380333
0.574157 0.412396 0 0.00379803
0.288433 0.645647 0 0.00376535
0.624584 0.336148 -3.08149e-33 0.00380688
0.67013 0.233515 3.46945e-18 0.00380661
0.467897 0.534986 0 0.00378344
0.523729 0.48061 0 0.0037917
0.624584 0.344091 0 0.00380735
0.67013 0.245675 0 0.00380938
0.715676 4.54095e-19 0 0.000428081
0.715676 0.00368111 0 0.000661645
0.715676 0.00749587 0 0.00210463
0.715676 0.0114491 0 0.00392904
0.715676 0.0155459 0 0.00455827
0.715676 0.0197915 0 0.00437272
0.715676 0.0241911 0 0.00398889
0.715676 0.0287506 0 0.00368551
0.715676 0.0334755 0 0.00351296
0.715676 0.038372 0 0.00344501
0.624584 0.352034 -2.31298e-18 0.00380781
0.715676 0.0434463 0 0.00343553
0.151552 0.700877 0 0.0037568
0.715676 0.0487048 0 0.00345465
0.715676 0.0541543 0 0.0034852
0.574156 0.43105 0 0.00379899
0.715676 0.0598016 0 0.00351873
0.67013 0.258275 0 0.00381169
0.715676 0.0656539 0 0.0035512
0.715676 0.0717187 0 0.00358089
0.075776 0.715441 0 0.00375313
0.715676 0.0780037 0 0.00360718
0.715676 0.0845169 0 0.00363035
0.219992 0.686824 0 0.0037601
0.715676 0.0912666 0 0.00365144
0.715676 0.0982613 0 0.00367122
0.67013 0.271334 -3.46945e-18 0.00381362
0.350249 0.632561 -3.46945e-18 0.0037704
0.412065 0.594219 3.08149e-33 0.00377766
0.715676 0.10551 0 0.00368972
0.715676 0.113022 0 0.00370686
0.624584 0.368496 0 0.00380871
0.523729 0.501741 0 0.00379257
0.715676 0.120806 0 0.00372264
0.715676 0.128874 0 0.00373712
0.67013 0.284867 0 0.00381523
0.467897 0.558091 3.46945e-18 0.00378416
0.715676 0.137234 0 0.00375035
0.574156 0.450382 0 0.00379994
0 0.730005 0 0.00375
0.715676 0.145897 0 0.00376233
0.288433 0.67277 0 0.00376571
0.715676 0.154876 0 0.0037731
0.67013 0.29889 0 0.00381659
0.624584 0.385557 0 0.00380959
0.715676 0.16418 -9.25187e-19 0.00378269
0.715676 0.173822 0 0.00379116
0.715676 0.183814 0 0.00379859
0.67013 0.313423 0 0.00381775
0.523729 0.523639 0 0.00379339
0.715676 0.194169 0 0.00380503
0.574156 0.470415 3.46945e-18 0.00380089
0.624584 0.403236 0 0.00381046
0.743101 0.0241911 -7.70372e-34 0.0041247
0.412065 0.619475 3.08149e-33 0.00377819
0.715676 0.2049 0 0.00381058
0.151552 0.730005 0 0.00375697
0.67013 0.328484 3.46945e-18 0.00381877
0.350249 0.659208 0 0.00377085
0.467897 0.582034 0 0.00378481
0.715676 0.21602 0 0.00381532
0.219992 0.715441 0 0.00376037
0.075776 0.745097 -3.46945e-18 0.00375321
0.715676 0.227544 0 0.00381932
0.67013 0.344091 0 0.00381969
0.624584 0.421557 0 0.00381135
0.743101 0.128874 -7.70372e-34 0.00374105
0.715676 0.239487 3.70071e-18 0.00382268
0.574156 0.491175 0 0.0038018
0.756814 0.00184055 0 0.000398108
0.523729 0.546332 0 0.00379414
0.756813 0.00558849 0 0.000892975
0.756813 0.00947248 0 0.00340588
0.756814 0.0134975 -3.46945e-18 0.00474105
0.756814 0.0155459 0 0.00477546
0.756814 0.0176687 0 0.00481959
0.756814 0.0219913 0 0.00438478
0.756814 0.0264709 0 0.00395179
0.756814 0.031113 -3.46945e-18 0.0036518
0.756813 0.0359238 -3.46945e-18 0.00349979
0.288433 0.700877 0 0.00376605
0.756814 0.0409092 -3.46945e-18 0.00344434
0.756813 0.0460755 3.46945e-18 0.00344156
0.756813 0.0514296 0 0.00346269
0.715676 0.251863 0 0.00382548
0.756813 0.0569779 0 0.00349374
0.756814 0.0627277 -3.46945e-18 0.00352707
0.756814 0.0686863 -3.46945e-18 0.00355915
0 0.76019 0 0.00375
0.756814 0.0748612 0 0.00358841
0.67013 0.360265 3.46945e-18 0.00382055
0.756814 0.0812603 -3.46945e-18 0.00361424
0.756814 0.0878917 -3.46945e-18 0.00363755
0.756814 0.0947639 -3.46945e-18 0.00365963
0.715676 0.264688 0 0.00382779
0.756813 0.101886 0 0.00368051
0.624584 0.440544 0 0.00381224
0.756813 0.109266 3.46945e-18 0.00369999
0.756813 0.116914 3.46945e-18 0.00371799
0.412065 0.645647 0 0.00377867
0.467897 0.606847 0 0.0037854
0.756814 0.120806 0 0.0037271
0.756813 0.12484 0 0.00373458
0.715676 0.27798 0 0.00382969
0.756814 0.133054 -3.46945e-18 0.00374979
0.67013 0.377026 -3.46945e-18 0.00382138
0.756814 0.137234 0 0.00375758
0.574156 0.51269 0 0.00380266
0.756813 0.141566 3.46945e-18 0.00376366
0.685312 0.352034 -7.70372e-34 0.0038262
0.743101 0.2049 -7.70372e-34 0.00381974
0.350249 0.686824 0 0.00377126
0.756814 0.150387 0 0.0037762
0.756814 0.154876 0 0.00378272
0.715676 0.291753 0 0.00383125
0.756814 0.159528 -3.46945e-18 0.00378742
0.523729 0.569849 0 0.00379483
0.72743 0.264688 0 0.00383221
0.756814 0.16418 0 0.00379335
0.151552 0.76019 0 0.00375714
0.756813 0.169001 3.46945e-18 0.00379739
0.624584 0.46022 0 0.00381312
0.219993 0.745097 0 0.00376063
0.67013 0.394396 0 0.00382219
0.756813 0.178818 -3.46945e-18 0.00380617
0.715676 0.306027 0 0.00383255
0.075776 0.775831 0 0.00375328
0.756813 0.188991 0 0.00381382
0.756814 0.199535 0 0.00382042
0.715676 0.320819 0 0.00383363
0.574156 0.534985 0 0.00380346
0.288433 0.730005 0 0.00376637
0.756813 0.21046 0 0.00382608
0.467897 0.632561 0 0.00378594
0.67013 0.412396 -3.46945e-18 0.00382301
0.624584 0.48061 -3.08149e-33 0.003814
0.756814 0.221782 0 0.00383086
0.412065 0.67277 3.08149e-33 0.00377912
0.715676 0.336148 0 0.00383457
0 0.791472 0 0.00375
0.756813 0.233516 3.46945e-18 0.00383488
0.523729 0.594219 0 0.00379544
0.624584 0.487654 1.54074e-33 0.00381427
0.756814 0.245675 3.46945e-18 0.00383822
0.350249 0.715441 3.46945e-18 0.00377165
0.67013 0.43105 0 0.00382383
0.715676 0.352034 -9.25187e-19 0.0038354
0.797951 9.08189e-19 -3.08149e-33 0.000373459
0.797951 0.00368111 2.31298e-18 0.000629558
0.797951 0.00749587 2.31298e-18 0.00217816
0.797951 0.0114491 2.31298e-18 0.00419599
0.797951 0.0141803 7.70372e-34 0.0047271
0.797951 0.0155459 0 0.00499265
0.797951 0.0169611 7.70372e-34 0.00494579
0.797951 0.0197915 2.31298e-18 0.00485206
0.797951 0.0219913 0 0.00462419
0.797951 0.0241911 3.08149e-33 0.00439633
0.797951 0.0264709 0 0.00418224
0.797951 0.0287506 -3.08149e-33 0.00396816
0.797951 0.0334755 2.31298e-18 0.00368037
0.797951 0.038372 2.31298e-18 0.00353021
0.797951 0.0434463 2.31298e-18 0.00347062
0.797951 0.0487048 0 0.00346263
0.756813 0.258275 -3.46945e-18 0.00384096
0.797951 0.0541543 2.31298e-18 0.00348002
0.797951 0.0598016 2.31298e-18 0.00350806
0.797951 0.0656539 2.31298e-18 0.00353926
0.574156 0.55809 0 0.00380419
0.624584 0.501741 0 0.00381483
0.797951 0.0717187 2.31298e-18 0.00356983
0.797951 0.0780037 -3.08149e-33 0.00359798
0.797951 0.0845169 2.31298e-18 0.00362361
0.797951 0.0912666 -3.08149e-33 0.00364767
0.797951 0.0982613 2.31298e-18 0.00367068
0.756813 0.271334 0 0.0038432
0.797951 0.10551 2.31298e-18 0.00369243
0.715676 0.368496 0 0.00383616
0.151552 0.791472 0 0.00375731
0.797951 0.113022 2.31298e-18 0.00371275
0.219992 0.775831 3.46945e-18 0.00376088
0.797951 0.118211 7.70372e-34 0.00372529
0.770526 0.239487 1.54074e-33 0.0038427
0.797951 0.120806 0 0.00373156
0.67013 0.450382 3.46945e-18 0.00382466
0.797951 0.128874 3.08149e-33 0.00374891
0.467897 0.659208 0 0.00378642
0.756813 0.284866 -3.46945e-18 0.00384501
0.743101 0.320819 -7.70372e-34 0.00384412
0.797951 0.137234 0 0.00376481
0.797951 0.141566 0 0.00377205
0.797951 0.145897 -9.25187e-19 0.00377928
0.523729 0.619475 0 0.00379598
0.075776 0.807681 0 0.00375336
0.797951 0.150387 0 0.00378581
0.797951 0.154876 0 0.00379234
0.715676 0.385557 0 0.00383689
0.412065 0.700877 3.08149e-33 0.00377952
0.288433 0.76019 0 0.00376667
0.756813 0.29889 0 0.00384647
0.797951 0.16418 0 0.00380401
0.624584 0.523639 0 0.00381561
0.797951 0.167394 7.70372e-34 0.00380746
0.797951 0.173822 2.31298e-18 0.00381435
0.574156 0.582034 0 0.00380483
0.67013 0.470415 0 0.00382549
0.797951 0.183814 2.31298e-18 0.00382341
0.756813 0.313423 -3.46945e-18 0.00384766
0.797951 0.194169 -9.25187e-19 0.00383129
0.715676 0.403236 0 0.0038376
0.151552 0.807681 0 0.00375739
0.797951 0.197746 -7.70372e-34 0.00383355
0.350249 0.745097 0 0.00377201
0.797951 0.2049 3.08149e-33 0.00383806
0 0.823889 0 0.00375
0.756813 0.328483 -3.46945e-18 0.00384864
0.797951 0.21046 0 0.00384094
0.797951 0.21602 -3.08149e-33 0.00384383
0.797951 0.223703 7.70372e-34 0.00384706
0.797951 0.227544 9.25187e-19 0.00384868
0.624584 0.546332 0 0.00381633
0.715676 0.421557 0 0.00383832
0.67013 0.491176 -3.46945e-18 0.0038263
0.797951 0.231525 7.70372e-34 0.00385002
0.467897 0.686824 -3.46945e-18 0.00378685
0.523729 0.645647 0 0.00379646
0.756813 0.344091 -3.46945e-18 0.00384947
0.822721 0.120806 7.70372e-34 0.00373532
0.797951 0.239487 -3.08149e-33 0.00385271
0.822721 0.137234 7.70372e-34 0.00377035
0.835106 0.00184056 0 0.000350082
0.835106 0.00558849 0 0.000878735
0.835106 0.00947248 0 0.0035322
0.835106 0.0134975 0 0.00509225
0.835107 0.0176687 0 0.00529583
0.835106 0.0219913 -3.46945e-18 0.00488223