# kMean  POINT_DATA 63140
# x  y  z  kMean
0 0.1 0 0.00375
0 0.1 -0.0179898 0.00375
0 0.1 0.0179898 0.00375
0.0363518 0.1 0.0179898 0.00374687
0.0363518 0.1 -0.0179898 0.00374655
0 0.1 -0.0570102 0.00375
0 0.1 0.0570102 0.00375
0.0363518 0.1 0.0570102 0.00374687
0.0363518 0.1 -0.0570102 0.00374655
0 0.1 -0.075 0.00375
0 0.1 0.075 0.00375
0.075776 0.1 -0.0375 0.00374252
0.075776 0.1 0.0375 0.00374316
0 0.1 -0.0929898 0.00375
0 0.1 0.0929898 0.00375
0.0363518 0.1 -0.0929898 0.00374631
0.0363518 0.1 0.0929898 0.00374725
0 0.1 -0.13201 0.00375
0 0.1 0.13201 0.00375
0.075776 0.1 -0.1125 0.00374204
0.075776 0.1 0.1125 0.00374394
0.0363518 0.1 -0.13201 0.00374631
0.0363518 0.1 0.13201 0.00374725
0 0.1 -0.15 0.00375
0 0.1 0.15 0.00375
0.150379 0.1 -2.22623e-17 0.00373333
0 0.1 -0.16799 0.00375
0 0.1 0.16799 0.00375
0.150379 0.1 -0.075 0.00373271
0.150379 0.1 0.075 0.00373437
0.0363518 0.1 -0.16799 0.00374624
0.0363518 0.1 0.16799 0.00374769
0.075776 0.1 -0.1875 0.0037419
0.075776 0.1 0.1875 0.00374485
0 0.1 -0.20701 0.00375
0 0.1 0.20701 0.00375
0.0363518 0.1 -0.20701 0.00374624
0.0363518 0.1 0.20701 0.00374769
0.150379 0.1 -0.15 0.00373256
0.150379 0.1 0.15 0.00373576
0.219993 0.1 -0.0375 0.00372375
0.219993 0.1 0.0375 0.00372475
0 0.1 -0.225 0.00375
0 0.1 0.225 0.00375
0 0.1 -0.24299 0.00375
0 0.1 0.24299 0.00375
0.0363518 0.1 0.24299 0.00374818
0.0363518 0.1 -0.24299 0.00374634
0.219993 0.1 -0.1125 0.00372341
0.219993 0.1 0.1125 0.00372646
0.150379 0.1 -0.225 0.00373295
0.150379 0.1 0.225 0.0037373
0.075776 0.1 -0.2625 0.00374211
0.075776 0.1 0.2625 0.00374585
0 0.1 -0.28201 0.00375
0 0.1 0.28201 0.00375
0.0363518 0.1 -0.28201 0.00374634
0.0363518 0.1 0.28201 0.00374818
0.287374 0.1 -2.89121e-19 0.00371536
0.219992 0.1 0.1875 0.00372858
0.219992 0.1 -0.1875 0.00372373
0.287374 0.1 -0.075 0.00371507
0.287374 0.1 0.075 0.00371635
0 0.1 -0.3 0.00375
0 0.1 0.3 0.00375
0 0.1 0.31799 0.00375
0 0.1 -0.31799 0.00375
0.0363518 0.1 -0.31799 0.00374658
0.0363518 0.1 0.31799 0.00374868
0.287374 0.1 0.15 0.00371796
0.287374 0.1 -0.15 0.00371548
0.150379 0.1 -0.3 0.00373391
0.150379 0.1 0.3 0.00373886
0.219993 0.1 0.2625 0.00373063
0.219993 0.1 -0.2625 0.00372489
0.075776 0.1 -0.3375 0.00374259
0.075776 0.1 0.3375 0.00374689
0.350249 0.1 -0.0375 0.00370669
0.350249 0.1 0.0375 0.00370698
0 0.1 -0.35701 0.00375
0 0.1 0.35701 0.00375
0.0363518 0.1 -0.35701 0.00374658
0.0363518 0.1 0.35701 0.00374868
0.287374 0.1 -0.225 0.0037166
0.287374 0.1 0.225 0.00371992
0.350249 0.1 -0.1125 0.00370714
0.350249 0.1 0.1125 0.00370798
0 0.1 -0.375 0.00375
0 0.1 0.375 0.00375
0 0.1 -0.39299 0.00375
0 0.1 0.39299 0.00375
0.0363518 0.1 -0.39299 0.00374691
0.0363518 0.1 0.39299 0.00374916
0.350249 0.1 -0.1875 0.0037083
0.350249 0.1 0.1875 0.00370959
0.219992 0.1 -0.3375 0.0037268
0.219992 0.1 0.3375 0.00373277
0.150379 0.1 0.375 0.00374043
0.150379 0.1 -0.375 0.00373529
0.411108 0.1 4.33681e-19 0.00369936
0.287374 0.1 -0.3 0.00371837
0.287374 0.1 0.3 0.00372209
0.411108 0.1 -0.075 0.00369983
0.411108 0.1 0.075 0.00369956
0.075776 0.1 -0.4125 0.00374327
0.075776 0.1 0.4125 0.00374787
0 0.1 0.43201 0.00375
0 0.1 -0.43201 0.00375
0.0363518 0.1 0.43201 0.00374916
0.0363518 0.1 -0.43201 0.00374691
0.411108 0.1 -0.15 0.00370095
0.411108 0.1 0.15 0.00370042
0.350249 0.1 -0.2625 0.00371011
0.350249 0.1 0.2625 0.00371167
0 0.1 -0.45 0.00375
0 0.1 0.45 0.00375
0.219992 0.1 0.4125 0.00373483
0.219992 0.1 -0.4125 0.0037292
0 0.1 -0.46799 0.00375
0 0.1 0.46799 0.00375
0.411108 0.1 -0.225 0.0037026
0.411108 0.1 0.225 0.00370187
0.467897 0.1 -0.0375 0.00369242
0.467897 0.1 0.0375 0.00369187
0.0363518 0.1 0.46799 0.00374955
0.0363518 0.1 -0.46799 0.00374726
0.287374 0.1 -0.375 0.00372055
0.287374 0.1 0.375 0.00372439
0.150379 0.1 0.45 0.00374184
0.150379 0.1 -0.45 0.00373666
0.467897 0.1 0.1125 0.00369198
0.467897 0.1 -0.1125 0.00369359
0.350249 0.1 -0.3375 0.00371232
0.350249 0.1 0.3375 0.00371409
0.075776 0.1 -0.4875 0.00374398
0.075776 0.1 0.4875 0.00374866
0.467897 0.1 0.1875 0.00369275
0.467897 0.1 -0.1875 0.00369525
0 0.1 -0.50701 0.00375
0 0.1 0.50701 0.00375
0.0363518 0.1 -0.50701 0.00374726
0.0363518 0.1 0.50701 0.00374955
0.411108 0.1 0.3 0.00370382
0.411108 0.1 -0.3 0.00370457
0.522865 0.1 1.41031e-17 0.00368701
0 0.1 -0.525 0.00375
0 0.1 0.525 0.00375
0.522865 0.1 -0.075 0.00368814
0.522865 0.1 0.075 0.00368639
0.287374 0.1 0.45 0.00372658
0.287374 0.1 -0.45 0.00372247
0.219992 0.1 0.4875 0.00373657
0.219992 0.1 -0.4875 0.0037308
0.467897 0.1 -0.2625 0.0036972
0.467897 0.1 0.2625 0.00369411
0.350249 0.1 -0.4125 0.0037145
0.350249 0.1 0.4125 0.00371662
0 0.1 -0.54299 0.00375
0 0.1 0.54299 0.00375
0.522865 0.1 0.15 0.00368636
0.522865 0.1 -0.15 0.00368965
0.0363518 0.1 0.54299 0.00374985
0.0363518 0.1 -0.54299 0.00374758
0.150379 0.1 -0.525 0.00373766
0.150379 0.1 0.525 0.00374292
0.411108 0.1 -0.375 0.00370656
0.411108 0.1 0.375 0.00370613
0.075776 0.1 -0.5625 0.00374464
0.075776 0.1 0.5625 0.00374928
0.522865 0.1 -0.225 0.00369137
0.522865 0.1 0.225 0.00368693
0.574156 0.1 0.0375 0.0036814
0.574157 0.1 -0.0375 0.00368262
0.467897 0.1 -0.3375 0.00369912
0.467897 0.1 0.3375 0.00369605
0 0.1 -0.58201 0.00375
0 0.1 0.58201 0.00375
0.0363518 0.1 -0.58201 0.00374758
0.0363518 0.1 0.58201 0.00374985
0.574157 0.1 -0.1125 0.00368417
0.574157 0.1 0.1125 0.00368063
0.287374 0.1 -0.525 0.00372376
0.287374 0.1 0.525 0.00372841
0 0.1 -0.6 0.00375
0 0.1 0.6 0.00375
0.350249 0.1 0.4875 0.00371905
0.350249 0.1 -0.4875 0.00371602
0.522865 0.1 -0.3 0.00369306
0.522865 0.1 0.3 0.00368808
0.219992 0.1 -0.5625 0.00373183
0.219992 0.1 0.5625 0.00373771
0.574156 0.1 -0.1875 0.00368585
0.574156 0.1 0.1875 0.00368042
0.411108 0.1 0.45 0.00370858
0.411108 0.1 -0.45 0.00370819
0 0.1 -0.61799 0.00375
0 0.1 0.61799 0.00375
0.150379 0.1 -0.6 0.00373846
0.150379 0.1 0.6 0.0037437
0.0363518 0.1 -0.61799 0.00374787
0.0363518 0.1 0.61799 0.0037501
0.467897 0.1 -0.4125 0.00370079
0.467897 0.1 0.4125 0.0036984
0.623803 0.1 2.34188e-17 0.00367926
0.623803 0.1 0.075 0.00367802
0.623803 0.1 -0.075 0.00368073
0.574156 0.1 0.2625 0.0036808
0.574156 0.1 -0.2625 0.00368744
0.623803 0.1 0.15 0.00367713
0.623803 0.1 -0.15 0.00368223
0.075776 0.1 0.6375 0.0037498
0.075776 0.1 -0.6375 0.00374522
0.522865 0.1 -0.375 0.00369452
0.522865 0.1 0.375 0.00368977
0 0.1 0.65701 0.00375
0 0.1 -0.65701 0.00375
0.0363518 0.1 0.65701 0.0037501
0.0363518 0.1 -0.65701 0.00374787
0.350249 0.1 0.5625 0.00372104
0.350249 0.1 -0.5625 0.003717
0.623803 0.1 0.225 0.00367671
0.623803 0.1 -0.225 0.0036836
0.287374 0.1 -0.6 0.00372466
0.287374 0.1 0.6 0.00372979
0.574157 0.1 -0.3375 0.00368875
0.574157 0.1 0.3375 0.00368177
0.411108 0.1 0.525 0.00371091
0.411108 0.1 -0.525 0.00370927
0.67013 0.1 0.0375 0.00367574
0.67013 0.1 -0.0375 0.00367731
0.219992 0.1 -0.6375 0.00373273
0.219993 0.1 0.6375 0.00373853
0 0.1 -0.675 0.00375
0 0.1 0.675 0.00375
0.467897 0.1 -0.4875 0.00370195
0.467897 0.1 0.4875 0.00370091
0.67013 0.1 -0.1125 0.00367883
0.67013 0.1 0.1125 0.00367432
0.522865 0.1 0.45 0.00369185
0.522865 0.1 -0.45 0.00369557
0.150379 0.1 0.675 0.00374433
0.150379 0.1 -0.675 0.00373911
0.623803 0.1 0.3 0.00367682
0.623803 0.1 -0.3 0.00368465
0 0.1 -0.69299 0.00375
0 0.1 0.69299 0.00375
0.0363518 0.1 -0.69299 0.00374811
0.0363518 0.1 0.69299 0.00375032
0.67013 0.1 -0.1875 0.00368011
0.67013 0.1 0.1875 0.0036732
0.574156 0.1 0.4125 0.0036833
0.574157 0.1 -0.4125 0.0036897
0.714971 0.1 -2.8382e-17 0.0036758
0.075776 0.1 -0.7125 0.00374572
0.075776 0.1 0.7125 0.00375025
0.714971 0.1 -0.075 0.00367724
0.714971 0.1 0.075 0.00367423
0.67013 0.1 0.2625 0.00367251
0.67013 0.1 -0.2625 0.00368102
0.411108 0.1 -0.6 0.00370996
0.411108 0.1 0.6 0.00371289
0.350249 0.1 0.6375 0.00372254
0.350249 0.1 -0.6375 0.00371772
0.623803 0.1 0.375 0.00367747
0.623803 0.1 -0.375 0.00368531
0.714971 0.1 -0.15 0.00367837
0.714971 0.1 0.15 0.0036727
0.467897 0.1 -0.5625 0.00370264
0.467897 0.1 0.5625 0.0037033
0 0.1 -0.73201 0.00375
0 0.1 0.73201 0.00375
0.0363518 0.1 0.73201 0.00375032
0.0363518 0.1 -0.73201 0.00374811
0.287374 0.1 -0.675 0.00372533
0.287374 0.1 0.675 0.00373084
0.522865 0.1 -0.525 0.00369615
0.522865 0.1 0.525 0.0036941
0.219993 0.1 -0.7125 0.00373333
0.219992 0.1 0.7125 0.00373924
0.714971 0.1 -0.225 0.00367908
0.714971 0.1 0.225 0.00367139
0 0.1 0.75 0.00375
0 0.1 -0.75 0.00375
0.67013 0.1 -0.3375 0.00368146
0.67013 0.1 0.3375 0.00367231
0.574156 0.1 -0.4875 0.00369015
0.574157 0.1 0.4875 0.00368526
0.756813 0.1 0.0375 0.00367421
0.756814 0.1 -0.0375 0.00367575
0.150379 0.1 0.746002 0.00374495
0.150379 0.1 -0.75 0.00373959
0.756813 0.1 -0.1125 0.00367688
0.756813 0.1 0.1125 0.00367245
0 0.1 0.76799 0.00375
0 0.1 -0.76799 0.00375
0.0363518 0.1 0.76799 0.0037505
0.0363518 0.1 -0.76799 0.00374833
0.623803 0.1 -0.45 0.00368553
0.623803 0.1 0.45 0.00367865
0.714971 0.1 -0.3 0.00367929
0.714971 0.1 0.3 0.00367042
0.756814 0.1 -0.1875 0.00367749
0.756814 0.1 0.1875 0.00367065
0.67013 0.1 -0.4125 0.00368143
0.67013 0.1 0.4125 0.00367266
0.411108 0.1 0.675 0.00371446
0.411108 0.1 -0.675 0.00371041
0.467897 0.1 0.6375 0.00370532
0.467897 0.1 -0.6375 0.00370303
0.075776 0.1 0.7875 0.00375063
0.075776 0.1 -0.7875 0.00374617
0.350249 0.1 -0.7125 0.00371817
0.350249 0.1 0.7125 0.00372369
0.522865 0.1 -0.6 0.00369636
0.522865 0.1 0.6 0.00369623
0.797314 0.1 -3.59473e-17 0.00367602
0.287374 0.1 0.746002 0.0037318
0.797314 0.1 -0.075 0.00367711
0.797314 0.1 0.075 0.00367445
0.756814 0.1 -0.2625 0.00367755
0.756814 0.1 0.2625 0.00366903
0.287374 0.1 -0.75 0.00372577
0.574156 0.1 -0.5625 0.00369019
0.574156 0.1 0.5625 0.00368739
0 0.1 0.80701 0.00375
0 0.1 -0.80701 0.00375
0.714971 0.1 -0.375 0.00367897
0.714971 0.1 0.375 0.00366988
0.0363518 0.1 0.80701 0.0037505
0.0363518 0.1 -0.80701 0.00374833
0.797314 0.1 -0.15 0.00367761
0.797314 0.1 0.15 0.00367256
0.623803 0.1 -0.525 0.00368534
0.623803 0.1 0.525 0.00368022
0.219992 0.1 0.7875 0.0037399
0.219992 0.1 -0.7875 0.00373371
0.149792 0.1 0.80701 0.00374527
0 0.1 0.825 0.00375
0 0.1 -0.825 0.00375
0.797314 0.1 -0.225 0.00367749
0.797314 0.1 0.225 0.00367055
0.756813 0.1 -0.3375 0.00367701
0.756813 0.1 0.3375 0.0036677
0.67013 0.1 0.4875 0.00367357
0.67013 0.1 -0.4875 0.00368098
0.835106 0.1 -0.0375 0.00367748
0.835106 0.1 0.0375 0.00367627
0.150379 0.1 -0.825 0.00374004
0.835106 0.1 -0.1125 0.00367798
0.835106 0.1 0.1125 0.00367447
0 0.1 -0.84299 0.00375
0 0.1 0.84299 0.00375
0.0363518 0.1 -0.84299 0.00374854
0.0363518 0.1 0.84299 0.00375064
0.714971 0.1 -0.45 0.00367817
0.714971 0.1 0.45 0.00366986
0.411108 0.1 0.746002 0.00371579
0.797314 0.1 -0.3 0.00367673
0.797314 0.1 0.3 0.00366863
0.467897 0.1 -0.7125 0.00370325
0.467897 0.1 0.7125 0.00370692
0.522865 0.1 0.675 0.00369805
0.522865 0.1 -0.675 0.00369636
0.411108 0.1 -0.75 0.0037107
0.835106 0.1 -0.1875 0.00367776
0.835107 0.1 0.1875 0.00367227
0.286844 0.1 0.80701 0.00373231
0.574156 0.1 0.6375 0.00368938
0.574157 0.1 -0.6375 0.00368994
0.350249 0.1 -0.7875 0.00371851
0.350249 0.1 0.7875 0.00372462
0.756813 0.1 -0.4125 0.00367588
0.756814 0.1 0.4125 0.00366678
0.623803 0.1 -0.6 0.00368481
0.623803 0.1 0.6 0.00368195
0.075776 0.1 0.8625 0.00375092
0.075776 0.1 -0.8625 0.0037466
0.871687 0.1 -3.2767e-18 0.00367939
0.287374 0.1 -0.825 0.0037262
0.871687 0.1 -0.075 0.00367989
0.871687 0.1 0.075 0.00367809
0.67013 0.1 -0.5625 0.00368019
0.67013 0.1 0.5625 0.00367491
0.835106 0.1 0.2625 0.00366989
0.835106 0.1 -0.2625 0.00367684
0.797314 0.1 -0.375 0.00367534
0.797314 0.1 0.375 0.00366694
0 0.1 -0.88201 0.00375
0 0.1 0.88201 0.00375
0.0363518 0.1 0.88201 0.00375064
0.0363518 0.1 -0.88201 0.00374854
0.871687 0.1 0.15 0.00367612
0.871687 0.1 -0.15 0.00367955
0.714971 0.1 0.525 0.00367034
0.714971 0.1 -0.525 0.00367699
0.219993 0.1 0.8625 0.00374047
0.219992 0.1 -0.8625 0.00373427
0 0.1 0.9 0.00375
0 0.1 -0.9 0.00375
0.756813 0.1 0.4875 0.0036664
0.756814 0.1 -0.4875 0.00367433
0.871687 0.1 0.225 0.00367368
0.871687 0.1 -0.225 0.00367845
0.835106 0.1 -0.3375 0.00367525
0.835106 0.1 0.3375 0.00366755
0.41063 0.1 0.80701 0.00371652
0.90582 0.1 -0.0375 0.00368197
0.905821 0.1 0.0375 0.00368133
0.522865 0.1 0.746002 0.00369959
0.150379 0.1 0.9 0.00374574
0.90582 0.1 0.1125 0.00367977
0.905821 0.1 -0.1125 0.00368164
0.522865 0.1 -0.75 0.00369627
0.574156 0.1 0.7125 0.00369106
0.574156 0.1 -0.7125 0.00368961
0.797314 0.1 -0.45 0.00367342
0.797314 0.1 0.45 0.00366563
0.467897 0.1 -0.7875 0.00370341
0.467897 0.1 0.7875 0.00370817
0.150379 0.1 -0.903998 0.00374035
0 0.1 0.91799 0.00375
0 0.1 -0.91799 0.00375
0.0363518 0.1 0.91799 0.00375074
0.0363518 0.1 -0.91799 0.00374873
0.623803 0.1 0.675 0.00368358
0.623803 0.1 -0.675 0.0036841
0.411108 0.1 -0.825 0.00371096
0.871687 0.1 0.3 0.00367098
0.871687 0.1 -0.3 0.00367663
0.67013 0.1 -0.6375 0.00367913
0.67013 0.1 0.6375 0.0036764
0.90582 0.1 -0.1875 0.00368039
0.90582 0.1 0.1875 0.00367745
0.350249 0.1 0.8625 0.00372543
0.350249 0.1 -0.8625 0.00371895
0.835106 0.1 -0.4125 0.003673
0.835106 0.1 0.4125 0.00366542
0.714971 0.1 -0.6 0.00367553
0.714971 0.1 0.6 0.00367119
0.93886 0.1 -1.15648e-17 0.00368545
0.075776 0.1 0.9375 0.00375111
0.075776 0.1 -0.9375 0.003747
0.93886 0.1 0.075 0.00368463
0.93886 0.1 -0.075 0.00368522
0.756813 0.1 0.5625 0.00366649
0.756814 0.1 -0.5625 0.00367245
0.905821 0.1 -0.2625 0.00367838
0.905821 0.1 0.2625 0.00367458
0.287374 0.1 0.9 0.00373309
0.287374 0.1 -0.903998 0.00372648
0.871687 0.1 0.375 0.00366824
0.871687 0.1 -0.375 0.00367411
0.93886 0.1 -0.15 0.00368398
0.93886 0.1 0.15 0.00368282
0.797314 0.1 0.525 0.00366479
0.797314 0.1 -0.525 0.00367111
0 0.1 0.95701 0.00375
0 0.1 -0.95701 0.00375
0.0363518 0.1 0.95701 0.00375074
0.0363518 0.1 -0.95701 0.00374873
0.522433 0.1 0.80701 0.00370045
0.219992 0.1 0.9375 0.00374093
0.219992 0.1 -0.9375 0.00373481
0.93886 0.1 0.225 0.00368019
0.93886 0.1 -0.225 0.00368187
0.90582 0.1 0.3375 0.00367138
0.905821 0.1 -0.3375 0.00367566
0.835106 0.1 -0.4875 0.00367029
0.835107 0.1 0.4875 0.00366366
0.969689 0.1 -0.0375 0.00368894
0.969689 0.1 0.0375 0.00368896
0.61613 0.1 0.75 0.00368492
0.574156 0.1 -0.7875 0.00368925
0.574156 0.1 0.7875 0.00369238
0 0.1 0.975 0.00375
0 0.1 -0.975 0.00375
0.623803 0.1 -0.75 0.00368333
0.969689 0.1 -0.1125 0.00368776
0.969689 0.1 0.1125 0.00368781
0.522865 0.1 -0.825 0.00369615
0.67013 0.1 0.7125 0.00367774
0.67013 0.1 -0.7125 0.00367796
0.871687 0.1 -0.45 0.003671
0.871687 0.1 0.45 0.00366567
0.467897 0.1 0.8625 0.00370919
0.467897 0.1 -0.8625 0.00370354
0.714971 0.1 -0.675 0.00367391
0.714971 0.1 0.675 0.00367218
0.93886 0.1 -0.3 0.00367899
0.93886 0.1 0.3 0.00367697
0.150379 0.1 0.975 0.00374601
0.150379 0.1 -0.975 0.00374097
0.969689 0.1 -0.1875 0.00368557
0.969689 0.1 0.1875 0.00368559
0.411108 0.1 0.9 0.00371755
0.756813 0.1 0.6375 0.003667
0.756814 0.1 -0.6375 0.0036704
0.990306 0.1 -2.19732e-17 0.00368913
0 0.1 0.99299 0.00375
0 0.1 -0.99299 0.00375
0.411108 0.1 -0.903998 0.00371104
0.990306 0.1 -0.075 0.00368836
0.990306 0.1 0.075 0.00368871
0.0363518 0.1 0.99299 0.00375079
0.0363518 0.1 -0.99299 0.00374891
0.90582 0.1 -0.4125 0.0036722
0.905821 0.1 0.4125 0.00366813
0.797314 0.1 -0.6 0.00366852
0.797314 0.1 0.6 0.00366439
0.350249 0.1 0.9375 0.00372614
0.350249 0.1 -0.9375 0.00371939
0.990306 0.1 0.15 0.0036871
0.990306 0.1 -0.15 0.00368647
0.969689 0.1 -0.2625 0.00368261
0.969689 0.1 0.2625 0.0036825
0.835106 0.1 -0.5625 0.00366721
0.835106 0.1 0.5625 0.00366237
0.93886 0.1 -0.375 0.00367526
0.93886 0.1 0.375 0.00367339
0.075776 0.1 1.0125 0.00375123
0.075776 0.1 -1.0125 0.00374737
0.990306 0.1 -0.225 0.00368366
0.990306 0.1 0.225 0.00368446
0.287374 0.1 0.975 0.0037336
0.287374 0.1 -0.975 0.00372715
0.871687 0.1 -0.525 0.00366743
0.871687 0.1 0.525 0.00366343
1.02149 0.1 -0.0369628 0.00369343
1.02149 0.1 0.0369628 0.00369398
0.969689 0.1 -0.3375 0.00367879
0.969689 0.1 0.3375 0.00367876
1.02149 0.1 -0.110888 0.00369165
1.02149 0.1 0.110888 0.00369325
0.90582 0.1 0.4875 0.003665
0.90582 0.1 -0.4875 0.0036682
0.623803 0.1 0.819003 0.00368505
0 0.1 1.03201 0.00375
0 0.1 -1.03201 0.00375
0.0363518 0.1 1.03201 0.00375079
0.0363518 0.1 -1.03201 0.00374891
0.67013 0.1 -0.7875 0.00367676
0.67013 0.1 0.7875 0.0036788
0.623803 0.1 -0.825 0.00368254
0.990306 0.1 -0.3 0.00367997
0.990306 0.1 0.3 0.00368096
0.219992 0.1 -1.0125 0.00373528
0.219993 0.1 1.0125 0.00374122
0.574156 0.1 0.8625 0.00369337
0.574157 0.1 -0.8625 0.00368885
0.714971 0.1 -0.75 0.00367221
0.714971 0.1 0.75 0.00367306
1.02149 0.1 0.184814 0.00369129
1.02149 0.1 -0.184814 0.00368882
0.756814 0.1 -0.7125 0.00366822
0.756814 0.1 0.7125 0.00366764
0.522865 0.1 0.9 0.00370155
0.93886 0.1 -0.45 0.00367079
0.93886 0.1 0.45 0.00366971
1.04168 0.1 0 0.0036979
1.04168 0.1 -0.0729162 0.0036965
1.04168 0.1 0.0729162 0.00369802
0.522865 0.1 -0.903998 0.00369584
0.797314 0.1 -0.675 0.00366581
0.797314 0.1 0.675 0.00366434
0.467897 0.1 0.9375 0.00371003
0.467897 0.1 -0.9375 0.00370366
0 0.1 1.05 0.00375
0 0.1 -1.05 0.00375
0.835106 0.1 -0.6375 0.00366393
0.835106 0.1 0.6375 0.00366153
1.04168 0.1 -0.145832 0.00369392
1.04168 0.1 0.145832 0.00369685
1.02149 0.1 -0.25874 0.00368506
1.02149 0.1 0.25874 0.00368823
0.969689 0.1 -0.4125 0.00367394
0.969689 0.1 0.4125 0.00367465
0.411108 0.1 0.975 0.00371824
0.411108 0.1 -0.975 0.00371148
0.871687 0.1 -0.6 0.00366356
0.871687 0.1 0.6 0.00366163
1.0579 0.1 -0.0360525 0.00370052
1.0579 0.1 0.0360525 0.00370147
0.990306 0.1 -0.375 0.00367528
0.990306 0.1 0.375 0.00367687
0.150379 0.1 1.05 0.00374615
0.150379 0.1 -1.05 0.00374137
1.0579 0.1 0.108157 0.00370113
1.0579 0.1 -0.108157 0.00369831
1.04168 0.1 -0.218749 0.0036903
1.04168 0.1 0.218749 0.00369445
0.90582 0.1 -0.5625 0.00366376
0.90582 0.1 0.5625 0.00366229
0 0.1 -1.06799 0.00375
0 0.1 1.06799 0.00375
0.0363518 0.1 -1.06799 0.00374907
0.0363518 0.1 1.06799 0.0037508
0.350249 0.1 1.0125 0.0037267
0.350249 0.1 -1.0125 0.00371978
1.0579 0.1 -0.180262 0.00369498
1.0579 0.1 0.180262 0.00369947
1.02149 0.1 -0.332665 0.00368026
1.02149 0.1 0.332665 0.00368427
0.93886 0.1 -0.525 0.00366586
0.93886 0.1 0.525 0.00366619
1.08012 0.1 5.49329e-18 0.00370646
1.04168 0.1 -0.291665 0.00368562
1.04168 0.1 0.291665 0.00369096
1.08012 0.1 0.0709941 0.003707
1.08012 0.1 -0.0709941 0.00370462
0.969689 0.1 -0.4875 0.0036684
0.96969 0.1 0.4875 0.00367045
1.0579 0.1 0.252367 0.00369659
1.0579 0.1 -0.252367 0.00369059
0.990306 0.1 -0.45 0.00366976
0.990306 0.1 0.45 0.00367245
0.287374 0.1 -1.05 0.00372754
0.287374 0.1 1.05 0.00373394
0.714971 0.1 0.821002 0.00367356
1.08012 0.1 -0.141988 0.00370154
1.08012 0.1 0.141988 0.00370621
0.075776 0.1 1.0875 0.00375126
0.075776 0.1 -1.0875 0.0037477
0.714971 0.1 -0.825 0.00367053
0.756813 0.1 -0.7875 0.003666
0.756814 0.1 0.7875 0.00366815
0.67013 0.1 -0.8625 0.0036756
0.67013 0.1 0.8625 0.00367955
0.797314 0.1 -0.75 0.00366305
0.797314 0.1 0.75 0.00366441
0.623803 0.1 0.9 0.00368668
0.835106 0.1 -0.7125 0.00366063
0.835106 0.1 0.7125 0.00366105
0.623803 0.1 -0.903998 0.00368166
0.574156 0.1 0.9375 0.00369411
0.574156 0.1 -0.9375 0.00368839
1.02149 0.1 -0.406591 0.00367439
1.02149 0.1 0.406591 0.00367965
1.08012 0.1 -0.212982 0.0036973
1.08012 0.1 0.212982 0.0037041
1.10076 0.1 -0.0349809 0.00371081
1.10076 0.1 0.0349809 0.00371221
0.871687 0.1 -0.675 0.00365961
0.871687 0.1 0.675 0.00366022
1.04168 0.1 -0.364581 0.00367987
1.04168 0.1 0.364581 0.0036866
1.10076 0.1 -0.104943 0.00370807
1.10076 0.1 0.104943 0.00371231
0.522865 0.1 0.975 0.00370225
0.522865 0.1 -0.975 0.00369578
1.0579 0.1 -0.324472 0.00368504
1.0579 0.1 0.324472 0.00369266
0 0.1 -1.10701 0.00375
0 0.1 1.10701 0.00375
0.0363518 0.1 1.10701 0.0037508
0.0363518 0.1 -1.10701 0.00374907
0.90582 0.1 0.6375 0.00365996
0.905821 0.1 -0.6375 0.00365914
0.219992 0.1 1.0875 0.00374136
0.219992 0.1 -1.0875 0.00373568
0.93886 0.1 0.6 0.00366301
0.93886 0.1 -0.6 0.00366069
1.10076 0.1 -0.174905 0.00370409
1.10076 0.1 0.174905 0.00371103
0.467897 0.1 1.0125 0.00371069
0.467897 0.1 -1.0125 0.00370369
1.08012 0.1 -0.283976 0.00369189
1.08012 0.1 0.283976 0.00370078
1.11928 0.1 3.93204e-18 0.00371699
0.990306 0.1 -0.525 0.00366387
0.990306 0.1 0.525 0.003668
0.96969 0.1 -0.5625 0.00366269
0.969689 0.1 0.5625 0.00366647
1.11928 0.1 -0.0690357 0.00371468
1.11928 0.1 0.0690357 0.00371795
0 0.1 1.125 0.00375
0 0.1 -1.125 0.00375
0.411108 0.1 -1.05 0.00371163
0.411108 0.1 1.05 0.00371875
1.10076 0.1 0.244866 0.00370843
1.10076 0.1 -0.244866 0.00369886
1.11928 0.1 -0.138072 0.00371103
1.11928 0.1 0.138072 0.00371756
1.02149 0.1 0.480517 0.00367465
1.02149 0.1 -0.480517 0.00366801
1.0579 0.1 -0.396577 0.00367851
1.0579 0.1 0.396577 0.00368789
1.04168 0.1 -0.437497 0.00367338
1.04168 0.1 0.437497 0.0036816
0.150379 0.1 1.125 0.00374618
0.150379 0.1 -1.125 0.00374171
0.714971 0.1 0.88201 0.00367157
1.08012 0.1 0.354971 0.00369643
1.08012 0.1 -0.354971 0.00368543
1.11928 0.1 -0.207107 0.00370608
1.11928 0.1 0.207107 0.0037158
0.350249 0.1 -1.0875 0.00372007
0.350249 0.1 1.0875 0.00372707
0 0.1 1.14299 0.00375
0 0.1 -1.14299 0.00375
0.0363518 0.1 1.14299 0.00375079
0.0363518 0.1 -1.14299 0.00374921
1.14316 0.1 -0.0339211 0.00372337
1.14316 0.1 0.0339211 0.00372533
0.797314 0.1 0.821002 0.00366448
1.10076 0.1 -0.314829 0.00369244
1.10076 0.1 0.314829 0.00370462
0.797314 0.1 -0.825 0.00366032
0.756814 0.1 -0.8625 0.00366391
0.756814 0.1 0.8625 0.0036684
1.14316 0.1 -0.101763 0.00372
1.14316 0.1 0.101763 0.00372591
0.835106 0.1 -0.7875 0.00365731
0.835106 0.1 0.7875 0.00366072
0.871687 0.1 -0.75 0.00365567
0.871687 0.1 0.75 0.00365912
0.67013 0.1 0.9375 0.00368004
0.67013 0.1 -0.9375 0.00367442
0.90582 0.1 -0.7125 0.00365456
0.905821 0.1 0.7125 0.00365803
0.714971 0.1 -0.903998 0.00366892
1.11928 0.1 0.276143 0.00371272
1.11928 0.1 -0.276143 0.00369992
1.14316 0.1 0.169605 0.00372512
1.14316 0.1 -0.169605 0.00371525
0.93886 0.1 -0.675 0.00365546
0.93886 0.1 0.675 0.00366015
1.15704 0.1 0 0.00372937
1.0579 0.1 0.468682 0.00368253
1.0579 0.1 -0.468682 0.00367162
0.623803 0.1 0.975 0.00368719
0.623803 0.1 -0.975 0.00368087
0.990306 0.1 0.6 0.00366374
0.990306 0.1 -0.6 0.00365779
1.15704 0.1 -0.0671479 0.0037265
1.15704 0.1 0.0671479 0.00373081
1.04168 0.1 -0.510414 0.00366665
1.04168 0.1 0.510414 0.00367623
0.969689 0.1 -0.6375 0.00365682
0.969689 0.1 0.6375 0.00366279
1.08012 0.1 0.425965 0.00369125
1.08012 0.1 -0.425965 0.00367836
0.287374 0.1 -1.125 0.00372785
0.287374 0.1 1.125 0.0037341
1.02149 0.1 -0.554443 0.00366157
1.02149 0.1 0.554443 0.00366955
0.574156 0.1 1.0125 0.00369467
0.574156 0.1 -1.0125 0.00368788
1.15704 0.1 -0.134296 0.00372218
1.15704 0.1 0.134296 0.00373086
0.075776 0.1 1.1625 0.00375122
0.075776 0.1 -1.1625 0.00374798
1.10076 0.1 -0.384791 0.00368519
1.10076 0.1 0.384791 0.00369977
1.14316 0.1 -0.237448 0.00370919
1.14316 0.1 0.237448 0.00372292
1.11928 0.1 -0.345179 0.00369281
1.11928 0.1 0.345179 0.00370845
0.522865 0.1 1.05 0.00370277
0.522865 0.1 -1.05 0.00369549
1.15704 0.1 -0.201444 0.0037165
1.15704 0.1 0.201444 0.0037295
1.1744 0.1 -0.0331401 0.0037332
1.1744 0.1 0.0331401 0.00373554
1.1744 0.1 -0.0994202 0.00372937
1.1744 0.1 0.0994202 0.00373645
0 0.1 1.18201 0.00375
0 0.1 -1.18201 0.00375
0.0363518 0.1 1.18201 0.00375079
0.0363518 0.1 -1.18201 0.00374921
0.219992 0.1 1.1625 0.00374134
0.219993 0.1 -1.1625 0.00373603
1.14316 0.1 0.30529 0.00371939
1.14316 0.1 -0.30529 0.00370206
0.467897 0.1 1.0875 0.00371115
0.467897 0.1 -1.0875 0.0037036
1.1744 0.1 -0.1657 0.00372408
1.1744 0.1 0.1657 0.00373598
1.15704 0.1 -0.268592 0.00370964
1.15704 0.1 0.268592 0.00372672
1.0579 0.1 0.540787 0.00367682
1.0579 0.1 -0.540787 0.00366464
0.796996 0.1 0.88201 0.00366431
1.08012 0.1 -0.496959 0.00367107
1.08012 0.1 0.496959 0.00368548
1.10076 0.1 0.454752 0.0036941
1.10076 0.1 -0.454752 0.00367767
1.11928 0.1 -0.414214 0.00368516
1.11928 0.1 0.414214 0.00370317
1.04168 0.1 -0.58333 0.00365964
1.04168 0.1 0.58333 0.00367075
1.1744 0.1 -0.231981 0.00371749
1.1744 0.1 0.231981 0.00373408
0.871687 0.1 0.821002 0.00365823
0.411108 0.1 1.125 0.00371905
0.411108 0.1 -1.125 0.00371166
1.19808 0.1 1.73472e-17 0.00374509
0.990306 0.1 0.675 0.00365972
0.990306 0.1 -0.675 0.00365163
1.02149 0.1 0.628368 0.00366458
1.02149 0.1 -0.628368 0.00365473
1.19808 0.1 -0.0650961 0.00374146
1.19808 0.1 0.0650961 0.00374718
0 0.1 1.2 0.00375
0 0.1 -1.2 0.00375
0.871687 0.1 -0.825 0.0036518
0.905821 0.1 -0.7875 0.00365004
0.90582 0.1 0.7875 0.00365639
0.835106 0.1 -0.8625 0.00365409
0.835106 0.1 0.8625 0.00366026
0.93886 0.1 -0.75 0.00365033
0.93886 0.1 0.75 0.00365764
1.14316 0.1 -0.373132 0.00369424
1.14316 0.1 0.373132 0.00371464
0.969689 0.1 0.7125 0.00365932
0.969689 0.1 -0.7125 0.00365104
1.15704 0.1 -0.33574 0.00370195
1.15704 0.1 0.33574 0.00372262
0.756813 0.1 0.9375 0.00366844
0.756814 0.1 -0.9375 0.00366186
1.19808 0.1 0.130192 0.0037478
1.19808 0.1 -0.130192 0.00373632
0.797314 0.1 -0.903998 0.00365785
0.714971 0.1 0.975 0.00367422
0.714971 0.1 -0.975 0.00366724
0.150379 0.1 1.2 0.00374611
0.150379 0.1 -1.2 0.00374199
1.20938 0.1 -0.0322656 0.00374728
1.20938 0.1 0.0322656 0.0037503
1.1744 0.1 -0.298261 0.00370995
1.1744 0.1 0.298261 0.00373077
1.20938 0.1 -0.0967968 0.0037427
1.20938 0.1 0.0967968 0.00375176
1.19808 0.1 -0.195288 0.00372983
1.19808 0.1 0.195288 0.00374697
0.350249 0.1 1.1625 0.00372722
0.350249 0.1 -1.1625 0.00372027
0.67013 0.1 1.0125 0.0036803
0.67013 0.1 -1.0125 0.00367316
0 0.1 1.21799 0.00375
0 0.1 -1.21799 0.00375
0.0363518 0.1 -1.21799 0.00374932
0.0363518 0.1 1.21799 0.00375074
1.11928 0.1 -0.48325 0.00367721
1.11928 0.1 0.48325 0.00369708
1.10076 0.1 -0.524714 0.00366997
1.10076 0.1 0.524714 0.00368784
1.20938 0.1 0.161328 0.00375179
1.20938 0.1 -0.161328 0.00373663
1.08012 0.1 0.567953 0.00367934
1.08012 0.1 -0.567953 0.00366339
0.623803 0.1 1.05 0.00368752
0.623803 0.1 -1.05 0.00367997
1.0579 0.1 -0.612892 0.00365709
1.0579 0.1 0.612892 0.00367101
1.15704 0.1 -0.402888 0.00369372
1.15704 0.1 0.402888 0.00371732
1.14316 0.1 0.440974 0.00370885
1.14316 0.1 -0.440974 0.00368604
1.19808 0.1 -0.260384 0.0037223
1.19808 0.1 0.260384 0.00374466
1.2267 0.1 3.57064e-18 0.0037579
1.2267 0.1 -0.0636649 0.0037536
1.2267 0.1 0.0636649 0.00376061
1.1744 0.1 -0.364541 0.0037018
1.1744 0.1 0.364541 0.00372614
0.574156 0.1 1.0875 0.00369511
0.574156 0.1 -1.0875 0.00368734
1.20938 0.1 0.225859 0.00375035
1.20938 0.1 -0.225859 0.00372937
1.04168 0.1 -0.656246 0.00365239
1.04168 0.1 0.656246 0.00366533
1.2267 0.1 -0.12733 0.00374778
1.2267 0.1 0.12733 0.00376175
0.287374 0.1 1.2 0.0037341
0.287374 0.1 -1.2 0.00372807
1.02149 0.1 -0.702294 0.00364794
1.02149 0.1 0.702294 0.00365978
0.075776 0.1 -1.2375 0.00374821
0.075776 0.1 1.2375 0.00375112
0.871399 0.1 0.88201 0.0036574
0.522865 0.1 1.125 0.00370312
0.522865 0.1 -1.125 0.00369508
1.2267 0.1 -0.190994 0.00374068
1.2267 0.1 0.190994 0.00376138
1.19808 0.1 -0.32548 0.00371405
1.19808 0.1 0.32548 0.00374089
0.990306 0.1 -0.75 0.00364559
0.990306 0.1 0.75 0.00365607
1.24274 0.1 -0.0314313 0.00376322
1.24274 0.1 0.0314313 0.00376712
1.20938 0.1 -0.29039 0.0037213
1.20938 0.1 0.29039 0.0037474
1.24274 0.1 -0.0942942 0.00375774
1.24274 0.1 0.0942942 0.00376935
0.93886 0.1 0.821002 0.00365555
1.11928 0.1 -0.552285 0.00366876
1.11928 0.1 0.552285 0.00369041
1.15704 0.1 -0.470036 0.00368505
1.15704 0.1 0.470036 0.00371101
0.969689 0.1 -0.7875 0.0036454
0.96969 0.1 0.7875 0.00365638
0.93886 0.1 -0.825 0.00364532
0.90582 0.1 0.8625 0.00365491
0.905821 0.1 -0.8625 0.00364567
1.1744 0.1 -0.430821 0.00369317
1.1744 0.1 0.430821 0.00372034
1.10076 0.1 -0.594676 0.00366152
1.10076 0.1 0.594676 0.00368122
1.14316 0.1 -0.508816 0.00367741
1.14316 0.1 0.508816 0.00370223
1.24274 0.1 -0.157157 0.00375081
1.24274 0.1 0.157157 0.00377002
1.2267 0.1 -0.254659 0.00373266
1.2267 0.1 0.254659 0.00375948
0.467897 0.1 1.1625 0.00371136
0.467897 0.1 -1.1625 0.00370336
1.08012 0.1 0.638947 0.00367308
1.08012 0.1 -0.638947 0.00365534
1.25511 0.1 -5.78241e-19 0.00377309
0.835106 0.1 -0.9375 0.00365106
0.835106 0.1 0.9375 0.0036596
0.871687 0.1 -0.903998 0.00364837
1.25511 0.1 0.0622446 0.00377667
1.25511 0.1 -0.0622446 0.00376788
0.219992 0.1 1.2375 0.00374119
0.219992 0.1 -1.2375 0.00373629
0 0.1 -1.25701 0.00375
0 0.1 1.25701 0.00375
0.0363518 0.1 -1.25701 0.00374932
0.0363518 0.1 1.25701 0.00375074
0.797314 0.1 0.975 0.00366377
0.797314 0.1 -0.975 0.00365518
1.19808 0.1 -0.390576 0.0037052
1.19808 0.1 0.390576 0.00373574
1.0579 0.1 -0.684997 0.00364954
1.0579 0.1 0.684997 0.00366527
1.20938 0.1 -0.354921 0.00371265
1.20938 0.1 0.354921 0.00374299
1.25511 0.1 0.124489 0.00377857
1.25511 0.1 -0.124489 0.00376118
1.24274 0.1 -0.220019 0.00374287
1.24274 0.1 0.220019 0.00376916
0.756813 0.1 1.0125 0.00366827
0.756814 0.1 -1.0125 0.00365978
1.2267 0.1 -0.318324 0.00372396
1.2267 0.1 0.318324 0.00375602
0.411108 0.1 1.2 0.00371917
0.411108 0.1 -1.2 0.00371161
1.25511 0.1 -0.186734 0.00375331
1.25511 0.1 0.186734 0.00377886
0.714971 0.1 1.05 0.00367417
0.714971 0.1 -1.05 0.00366558
1.04168 0.1 -0.729162 0.0036452
1.04168 0.1 0.729162 0.00366014
1.24274 0.1 0.282882 0.00376669
1.24274 0.1 -0.282882 0.00373424
0 0.1 1.275 0.00375
0 0.1 -1.275 0.00375
1.1744 0.1 0.497102 0.00371356
1.1744 0.1 -0.497102 0.00368396
1.15704 0.1 -0.537184 0.00367581
1.15704 0.1 0.537184 0.0037039
1.2756 0.1 -0.03061 0.0037826
1.2756 0.1 0.03061 0.00378777
0.67013 0.1 1.0875 0.00368039
0.67013 0.1 -1.0875 0.00367192
1.2756 0.1 -0.09183 0.00377589
1.2756 0.1 0.09183 0.0037912
1.25511 0.1 -0.248978 0.00374466
1.25511 0.1 0.248978 0.00377751
1.20938 0.1 0.419453 0.00373722
1.20938 0.1 -0.419453 0.00370337
1.11928 0.1 -0.621322 0.00365984
1.11928 0.1 0.621322 0.00368339
1.14316 0.1 -0.576659 0.00366813
1.14316 0.1 0.576659 0.00369499
1.19808 0.1 -0.455673 0.00369574
1.19808 0.1 0.455673 0.00372937
1.02149 0.1 0.776219 0.00365544
1.02149 0.1 -0.776219 0.00364128
0.150379 0.1 1.275 0.00374594
0.150379 0.1 -1.275 0.00374221
1.2756 0.1 -0.15305 0.0037679
1.2756 0.1 0.15305 0.0037929
1.2267 0.1 -0.381989 0.00371461
1.2267 0.1 0.381989 0.00375104
1.10076 0.1 -0.664638 0.00365297
1.10076 0.1 0.664638 0.00367447