# nutMean  POINT_DATA 63140
# x  y  z  nutMean
0 0.1 0 0.00541135
0 0.1 -0.0179898 0.00541311
0 0.1 0.0179898 0.00540898
0.0363518 0.1 0.0179898 0.0124001
0.0363518 0.1 -0.0179898 0.0137732
0 0.1 -0.0570102 0.00542175
0 0.1 0.0570102 0.00540374
0.0363518 0.1 0.0570102 0.0123949
0.0363518 0.1 -0.0570102 0.0137818
0 0.1 -0.075 0.00542767
0 0.1 0.075 0.00540162
0.075776 0.1 -0.0375 0.0226097
0.075776 0.1 0.0375 0.0198332
0 0.1 -0.0929898 0.00543273
0 0.1 0.0929898 0.00539892
0.0363518 0.1 -0.0929898 0.0145685
0.0363518 0.1 0.0929898 0.0112927
0 0.1 -0.13201 0.00545358
0 0.1 0.13201 0.00539394
0.075776 0.1 -0.1125 0.0241471
0.075776 0.1 0.1125 0.0175872
0.0363518 0.1 -0.13201 0.0145893
0.0363518 0.1 0.13201 0.0112877
0 0.1 -0.15 0.00546834
0 0.1 0.15 0.00539235
0.150379 0.1 -2.22623e-17 0.0181255
0 0.1 -0.16799 0.00548187
0 0.1 0.16799 0.00539025
0.150379 0.1 -0.075 0.0191828
0.150379 0.1 0.075 0.0168957
0.0363518 0.1 -0.16799 0.0146099
0.0363518 0.1 0.16799 0.0103779
0.075776 0.1 -0.1875 0.0241878
0.075776 0.1 0.1875 0.015725
0 0.1 -0.20701 0.00551005
0 0.1 0.20701 0.00538881
0.0363518 0.1 -0.20701 0.014638
0.0363518 0.1 0.20701 0.0103765
0.150379 0.1 -0.15 0.0195725
0.150379 0.1 0.15 0.0158787
0.219993 0.1 -0.0375 0.0151634
0.219993 0.1 0.0375 0.0151581
0 0.1 -0.225 0.0055236
0 0.1 0.225 0.00538997
0 0.1 -0.24299 0.00553582
0 0.1 0.24299 0.00539097
0.0363518 0.1 0.24299 0.00961594
0.0363518 0.1 -0.24299 0.0146523
0.219993 0.1 -0.1125 0.0151696
0.219993 0.1 0.1125 0.015156
0.150379 0.1 -0.225 0.0195965
0.150379 0.1 0.225 0.0147462
0.075776 0.1 -0.2625 0.0242155
0.075776 0.1 0.2625 0.0141622
0 0.1 -0.28201 0.00556957
0 0.1 0.28201 0.0053944
0.0363518 0.1 -0.28201 0.014686
0.0363518 0.1 0.28201 0.00961937
0.287374 0.1 -2.89121e-19 0.0126884
0.219992 0.1 0.1875 0.0151101
0.219992 0.1 -0.1875 0.0151799
0.287374 0.1 -0.075 0.0127408
0.287374 0.1 0.075 0.0126527
0 0.1 -0.3 0.00558941
0 0.1 0.3 0.00539709
0 0.1 0.31799 0.0054001
0 0.1 -0.31799 0.00560831
0.0363518 0.1 -0.31799 0.0144152
0.0363518 0.1 0.31799 0.00901734
0.287374 0.1 0.15 0.0125974
0.287374 0.1 -0.15 0.0127891
0.150379 0.1 -0.3 0.0194719
0.150379 0.1 0.3 0.0134395
0.219993 0.1 0.2625 0.0140011
0.219993 0.1 -0.2625 0.015198
0.075776 0.1 -0.3375 0.0236332
0.075776 0.1 0.3375 0.0129202
0.350249 0.1 -0.0375 0.0103692
0.350249 0.1 0.0375 0.0102642
0 0.1 -0.35701 0.00565502
0 0.1 0.35701 0.00540357
0.0363518 0.1 -0.35701 0.0144619
0.0363518 0.1 0.35701 0.00902082
0.287374 0.1 -0.225 0.0128251
0.287374 0.1 0.225 0.0122314
0.350249 0.1 -0.1125 0.0104616
0.350249 0.1 0.1125 0.0102342
0 0.1 -0.375 0.00568098
0 0.1 0.375 0.00540453
0 0.1 -0.39299 0.00570664
0 0.1 0.39299 0.00540588
0.0363518 0.1 -0.39299 0.0135161
0.0363518 0.1 0.39299 0.00857604
0.350249 0.1 -0.1875 0.0105451
0.350249 0.1 0.1875 0.0100936
0.219992 0.1 -0.3375 0.0152174
0.219992 0.1 0.3375 0.0126775
0.150379 0.1 0.375 0.0124446
0.150379 0.1 -0.375 0.0188615
0.411108 0.1 4.33681e-19 0.00866933
0.287374 0.1 -0.3 0.0128445
0.287374 0.1 0.3 0.011552
0.411108 0.1 -0.075 0.00873358
0.411108 0.1 0.075 0.00863171
0.075776 0.1 -0.4125 0.0217224
0.075776 0.1 0.4125 0.0120024
0 0.1 0.43201 0.00540129
0 0.1 -0.43201 0.00575498
0.0363518 0.1 0.43201 0.00857144
0.0363518 0.1 -0.43201 0.0135644
0.411108 0.1 -0.15 0.00880279
0.411108 0.1 0.15 0.0085964
0.350249 0.1 -0.2625 0.0105767
0.350249 0.1 0.2625 0.00991335
0 0.1 -0.45 0.00577735
0 0.1 0.45 0.00539639
0.219992 0.1 0.4125 0.0121723
0.219992 0.1 -0.4125 0.0151882
0 0.1 -0.46799 0.00579981
0 0.1 0.46799 0.00539161
0.411108 0.1 -0.225 0.00886493
0.411108 0.1 0.225 0.00853918
0.467897 0.1 -0.0375 0.00710047
0.467897 0.1 0.0375 0.00707992
0.0363518 0.1 0.46799 0.0083629
0.0363518 0.1 -0.46799 0.0122223
0.287374 0.1 -0.375 0.0128493
0.287374 0.1 0.375 0.0110546
0.150379 0.1 0.45 0.0119218
0.150379 0.1 -0.45 0.0176713
0.467897 0.1 0.1125 0.00708157
0.467897 0.1 -0.1125 0.00714369
0.350249 0.1 -0.3375 0.0105852
0.350249 0.1 0.3375 0.00976873
0.075776 0.1 -0.4875 0.0190307
0.075776 0.1 0.4875 0.0115721
0.467897 0.1 0.1875 0.00710411
0.467897 0.1 -0.1875 0.00720385
0 0.1 -0.50701 0.00583496
0 0.1 0.50701 0.00537832
0.0363518 0.1 -0.50701 0.0122574
0.0363518 0.1 0.50701 0.0083496
0.411108 0.1 0.3 0.00848313
0.411108 0.1 -0.3 0.00892357
0.522865 0.1 1.41031e-17 0.006148
0 0.1 -0.525 0.00584897
0 0.1 0.525 0.00537112
0.522865 0.1 -0.075 0.00617266
0.522865 0.1 0.075 0.00614689
0.287374 0.1 0.45 0.010865
0.287374 0.1 -0.45 0.0127507
0.219992 0.1 0.4875 0.0119214
0.219992 0.1 -0.4875 0.0149831
0.467897 0.1 -0.2625 0.0072771
0.467897 0.1 0.2625 0.00716321
0.350249 0.1 -0.4125 0.0106051
0.350249 0.1 0.4125 0.00971687
0 0.1 -0.54299 0.00586303
0 0.1 0.54299 0.0053637
0.522865 0.1 0.15 0.00616787
0.522865 0.1 -0.15 0.00621905
0.0363518 0.1 0.54299 0.00820191
0.0363518 0.1 -0.54299 0.0112796
0.150379 0.1 -0.525 0.0163685
0.150379 0.1 0.525 0.0119305
0.411108 0.1 -0.375 0.00898715
0.411108 0.1 0.375 0.0084587
0.075776 0.1 -0.5625 0.0170629
0.075776 0.1 0.5625 0.0112694
0.522865 0.1 -0.225 0.00628357
0.522865 0.1 0.225 0.00621363
0.574156 0.1 0.0375 0.00523881
0.574157 0.1 -0.0375 0.00524374
0.467897 0.1 -0.3375 0.00739515
0.467897 0.1 0.3375 0.00719459
0 0.1 -0.58201 0.0058799
0 0.1 0.58201 0.00534671
0.0363518 0.1 -0.58201 0.0112965
0.0363518 0.1 0.58201 0.00818492
0.574157 0.1 -0.1125 0.00527424
0.574157 0.1 0.1125 0.00525755
0.287374 0.1 -0.525 0.01255
0.287374 0.1 0.525 0.011081
0 0.1 -0.6 0.00588441
0 0.1 0.6 0.00533834
0.350249 0.1 0.4875 0.00975398
0.350249 0.1 -0.4875 0.0104416
0.522865 0.1 -0.3 0.00637454
0.522865 0.1 0.3 0.00627258
0.219992 0.1 -0.5625 0.0145678
0.219992 0.1 0.5625 0.0129083
0.574156 0.1 -0.1875 0.00532631
0.574156 0.1 0.1875 0.00529781
0.411108 0.1 0.45 0.00849819
0.411108 0.1 -0.45 0.00899454
0 0.1 -0.61799 0.00588853
0 0.1 0.61799 0.00532948
0.150379 0.1 -0.6 0.0154276
0.150379 0.1 0.6 0.0120797
0.0363518 0.1 -0.61799 0.0106573
0.0363518 0.1 0.61799 0.00807168
0.467897 0.1 -0.4125 0.00749946
0.467897 0.1 0.4125 0.00725635
0.623803 0.1 2.34188e-17 0.00467885
0.623803 0.1 0.075 0.0046852
0.623803 0.1 -0.075 0.0046962
0.574156 0.1 0.2625 0.00535855
0.574156 0.1 -0.2625 0.0053991
0.623803 0.1 0.15 0.0047141
0.623803 0.1 -0.15 0.00473599
0.075776 0.1 0.6375 0.0110367
0.075776 0.1 -0.6375 0.0157672
0.522865 0.1 -0.375 0.00648503
0.522865 0.1 0.375 0.00633961
0 0.1 0.65701 0.00531359
0 0.1 -0.65701 0.00588861
0.0363518 0.1 0.65701 0.00805579
0.0363518 0.1 -0.65701 0.0106574
0.350249 0.1 0.5625 0.00986288
0.350249 0.1 -0.5625 0.0104349
0.623803 0.1 0.225 0.00476366
0.623803 0.1 -0.225 0.00479599
0.287374 0.1 -0.6 0.0124388
0.287374 0.1 0.6 0.0114048
0.574157 0.1 -0.3375 0.00549934
0.574157 0.1 0.3375 0.00544209
0.411108 0.1 0.525 0.00859889
0.411108 0.1 -0.525 0.00899451
0.67013 0.1 0.0375 0.00413298
0.67013 0.1 -0.0375 0.00413888
0.219992 0.1 -0.6375 0.0144186
0.219993 0.1 0.6375 0.013018
0 0.1 -0.675 0.00588601
0 0.1 0.675 0.00530754
0.467897 0.1 -0.4875 0.00756371
0.467897 0.1 0.4875 0.00736588
0.67013 0.1 -0.1125 0.00416696
0.67013 0.1 0.1125 0.00415052
0.522865 0.1 0.45 0.00643377
0.522865 0.1 -0.45 0.00659023
0.150379 0.1 0.675 0.011944
0.150379 0.1 -0.675 0.0148158
0.623803 0.1 0.3 0.00483347
0.623803 0.1 -0.3 0.00487598
0 0.1 -0.69299 0.0058826
0 0.1 0.69299 0.00530083
0.0363518 0.1 -0.69299 0.0102565
0.0363518 0.1 0.69299 0.00796508
0.67013 0.1 -0.1875 0.00421555
0.67013 0.1 0.1875 0.00418958
0.574156 0.1 0.4125 0.00553201
0.574157 0.1 -0.4125 0.00561893
0.714971 0.1 -2.8382e-17 0.00376861
0.075776 0.1 -0.7125 0.0149465
0.075776 0.1 0.7125 0.0108492
0.714971 0.1 -0.075 0.00378669
0.714971 0.1 0.075 0.00377195
0.67013 0.1 0.2625 0.00424778
0.67013 0.1 -0.2625 0.00428225
0.411108 0.1 -0.6 0.0090852
0.411108 0.1 0.6 0.00873814
0.350249 0.1 0.6375 0.00997545
0.350249 0.1 -0.6375 0.010549
0.623803 0.1 0.375 0.0049184
0.623803 0.1 -0.375 0.00498101
0.714971 0.1 -0.15 0.00382485
0.714971 0.1 0.15 0.00379663
0.467897 0.1 -0.5625 0.00766736
0.467897 0.1 0.5625 0.00751536
0 0.1 -0.73201 0.00586891
0 0.1 0.73201 0.00528979
0.0363518 0.1 0.73201 0.00795404
0.0363518 0.1 -0.73201 0.0102428
0.287374 0.1 -0.675 0.0123961
0.287374 0.1 0.675 0.0114196
0.522865 0.1 -0.525 0.006706
0.522865 0.1 0.525 0.00656544
0.219993 0.1 -0.7125 0.014192
0.219992 0.1 0.7125 0.0127799
0.714971 0.1 -0.225 0.00388139
0.714971 0.1 0.225 0.00384115
0 0.1 0.75 0.00528618
0 0.1 -0.75 0.00586011
0.67013 0.1 -0.3375 0.00436293
0.67013 0.1 0.3375 0.00432467
0.574156 0.1 -0.4875 0.00575056
0.574157 0.1 0.4875 0.005647
0.756813 0.1 0.0375 0.00340809
0.756814 0.1 -0.0375 0.00341779
0.150379 0.1 0.746002 0.0117285
0.150379 0.1 -0.75 0.014629
0.756813 0.1 -0.1125 0.00344634
0.756813 0.1 0.1125 0.00341962
0 0.1 0.76799 0.00528186
0 0.1 -0.76799 0.00585007
0.0363518 0.1 0.76799 0.00788512
0.0363518 0.1 -0.76799 0.0100005
0.623803 0.1 -0.45 0.005107
0.623803 0.1 0.45 0.00501931
0.714971 0.1 -0.3 0.00395254
0.714971 0.1 0.3 0.00390415
0.756814 0.1 -0.1875 0.00349374
0.756814 0.1 0.1875 0.00345045
0.67013 0.1 -0.4125 0.00448287
0.67013 0.1 0.4125 0.00441415
0.411108 0.1 0.675 0.00888413
0.411108 0.1 -0.675 0.00922057
0.467897 0.1 0.6375 0.00770581
0.467897 0.1 -0.6375 0.0078227
0.075776 0.1 0.7875 0.0107066
0.075776 0.1 -0.7875 0.0144524
0.350249 0.1 -0.7125 0.0106265
0.350249 0.1 0.7125 0.0100465
0.522865 0.1 -0.6 0.00686099
0.522865 0.1 0.6 0.00673896
0.797314 0.1 -3.59473e-17 0.00315207
0.287374 0.1 0.746002 0.0113593
0.797314 0.1 -0.075 0.00317106
0.797314 0.1 0.075 0.00315161
0.756814 0.1 -0.2625 0.0035572
0.756814 0.1 0.2625 0.00350066
0.287374 0.1 -0.75 0.0125574
0.574156 0.1 -0.5625 0.00591301
0.574156 0.1 0.5625 0.00580055
0 0.1 0.80701 0.00527606
0 0.1 -0.80701 0.00582793
0.714971 0.1 -0.375 0.00404922
0.714971 0.1 0.375 0.00398391
0.0363518 0.1 0.80701 0.00787932
0.0363518 0.1 -0.80701 0.00997835
0.797314 0.1 -0.15 0.00320787
0.797314 0.1 0.15 0.00316977
0.623803 0.1 -0.525 0.0052538
0.623803 0.1 0.525 0.00514686
0.219992 0.1 0.7875 0.0125197
0.219992 0.1 -0.7875 0.0149558
0.149792 0.1 0.80701 0.0115955
0 0.1 0.825 0.00527507
0 0.1 -0.825 0.00581722
0.797314 0.1 -0.225 0.00326156
0.797314 0.1 0.225 0.00320598
0.756813 0.1 -0.3375 0.00363108
0.756813 0.1 0.3375 0.0035676
0.67013 0.1 0.4875 0.00452349
0.67013 0.1 -0.4875 0.00461561
0.835106 0.1 -0.0375 0.00290403
0.835106 0.1 0.0375 0.00289325
0.150379 0.1 -0.825 0.01463
0.835106 0.1 -0.1125 0.00293094
0.835106 0.1 0.1125 0.00290041
0 0.1 -0.84299 0.00580486
0 0.1 0.84299 0.00527331
0.0363518 0.1 -0.84299 0.00977461
0.0363518 0.1 0.84299 0.00783311
0.714971 0.1 -0.45 0.00417185
0.714971 0.1 0.45 0.00407864
0.411108 0.1 0.746002 0.00903562
0.797314 0.1 -0.3 0.00332892
0.797314 0.1 0.3 0.00325949
0.467897 0.1 -0.7125 0.00801951
0.467897 0.1 0.7125 0.00791899
0.522865 0.1 0.675 0.00694221
0.522865 0.1 -0.675 0.00704677
0.411108 0.1 -0.75 0.00935731
0.835106 0.1 -0.1875 0.00297537
0.835107 0.1 0.1875 0.00292372
0.286844 0.1 0.80701 0.0112793
0.574156 0.1 0.6375 0.0060033
0.574157 0.1 -0.6375 0.00611171
0.350249 0.1 -0.7875 0.0106679
0.350249 0.1 0.7875 0.0101206
0.756813 0.1 -0.4125 0.00374346
0.756814 0.1 0.4125 0.00365345
0.623803 0.1 -0.6 0.00543169
0.623803 0.1 0.6 0.00531036
0.075776 0.1 0.8625 0.0106108
0.075776 0.1 -0.8625 0.0140345
0.871687 0.1 -3.2767e-18 0.00270519
0.287374 0.1 -0.825 0.0127974
0.871687 0.1 -0.075 0.00272456
0.871687 0.1 0.075 0.00270195
0.67013 0.1 -0.5625 0.00477609
0.67013 0.1 0.5625 0.0046564
0.835106 0.1 0.2625 0.00296444
0.835106 0.1 -0.2625 0.00303491
0.797314 0.1 -0.375 0.0034168
0.797314 0.1 0.375 0.00332985
0 0.1 -0.88201 0.0057814
0 0.1 0.88201 0.00527294
0.0363518 0.1 0.88201 0.00783274
0.0363518 0.1 -0.88201 0.00975114
0.871687 0.1 0.15 0.00271462
0.871687 0.1 -0.15 0.0027609
0.714971 0.1 0.525 0.00419231
0.714971 0.1 -0.525 0.00431426
0.219993 0.1 0.8625 0.0123267
0.219992 0.1 -0.8625 0.01507
0 0.1 0.9 0.00527458
0 0.1 -0.9 0.00577117
0.756813 0.1 0.4875 0.00374792
0.756814 0.1 -0.4875 0.00386908
0.871687 0.1 0.225 0.00274283
0.871687 0.1 -0.225 0.0028135
0.835106 0.1 -0.3375 0.00310751
0.835106 0.1 0.3375 0.00302088
0.41063 0.1 0.80701 0.00912889
0.90582 0.1 -0.0375 0.00252275
0.905821 0.1 0.0375 0.0025104
0.522865 0.1 0.746002 0.0071578
0.150379 0.1 0.9 0.0114454
0.90582 0.1 0.1125 0.0025135
0.905821 0.1 -0.1125 0.00255015
0.522865 0.1 -0.75 0.00725427
0.574156 0.1 0.7125 0.00621489
0.574156 0.1 -0.7125 0.00630807
0.797314 0.1 -0.45 0.00352823
0.797314 0.1 0.45 0.00341482
0.467897 0.1 -0.7875 0.0082474
0.467897 0.1 0.7875 0.0081282
0.150379 0.1 -0.903998 0.0145161
0 0.1 0.91799 0.0052754
0 0.1 -0.91799 0.00575916
0.0363518 0.1 0.91799 0.00781102
0.0363518 0.1 -0.91799 0.00957146
0.623803 0.1 0.675 0.00550605
0.623803 0.1 -0.675 0.00563278
0.411108 0.1 -0.825 0.00946146
0.871687 0.1 0.3 0.00278682
0.871687 0.1 -0.3 0.00287796
0.67013 0.1 -0.6375 0.0049664
0.67013 0.1 0.6375 0.00482248
0.90582 0.1 -0.1875 0.00259672
0.90582 0.1 0.1875 0.00253075
0.350249 0.1 0.8625 0.0101788
0.350249 0.1 -0.8625 0.0107144
0.835106 0.1 -0.4125 0.00320045
0.835106 0.1 0.4125 0.00309339
0.714971 0.1 -0.6 0.00448499
0.714971 0.1 0.6 0.004332
0.93886 0.1 -1.15648e-17 0.00241458
0.075776 0.1 0.9375 0.0105654
0.075776 0.1 -0.9375 0.0136653
0.93886 0.1 0.075 0.00241031
0.93886 0.1 -0.075 0.00243325
0.756813 0.1 0.5625 0.00386632
0.756814 0.1 -0.5625 0.0040201
0.905821 0.1 -0.2625 0.00265653
0.905821 0.1 0.2625 0.00256249
0.287374 0.1 0.9 0.0112063
0.287374 0.1 -0.903998 0.0128077
0.871687 0.1 0.375 0.00284587
0.871687 0.1 -0.375 0.00295791
0.93886 0.1 -0.15 0.00246836
0.93886 0.1 0.15 0.00241997
0.797314 0.1 0.525 0.00351517
0.797314 0.1 -0.525 0.00366097
0 0.1 0.95701 0.00528015
0 0.1 -0.95701 0.00573753
0.0363518 0.1 0.95701 0.00781577
0.0363518 0.1 -0.95701 0.00954983
0.522433 0.1 0.80701 0.00730587
0.219992 0.1 0.9375 0.0121987
0.219992 0.1 -0.9375 0.0151145
0.93886 0.1 0.225 0.00244281
0.93886 0.1 -0.225 0.00251816
0.90582 0.1 0.3375 0.00260976
0.905821 0.1 -0.3375 0.0027225
0.835106 0.1 -0.4875 0.0033156
0.835107 0.1 0.4875 0.00318067
0.969689 0.1 -0.0375 0.00231996
0.969689 0.1 0.0375 0.00230934
0.61613 0.1 0.75 0.00571935
0.574156 0.1 -0.7875 0.00652573
0.574156 0.1 0.7875 0.00643258
0 0.1 0.975 0.00528415
0 0.1 -0.975 0.0057286
0.623803 0.1 -0.75 0.00584518
0.969689 0.1 -0.1125 0.00234429
0.969689 0.1 0.1125 0.00231211
0.522865 0.1 -0.825 0.0074485
0.67013 0.1 0.7125 0.00502685
0.67013 0.1 -0.7125 0.00518638
0.871687 0.1 -0.45 0.00306089
0.871687 0.1 0.45 0.00292043
0.467897 0.1 0.8625 0.00827224
0.467897 0.1 -0.8625 0.00833882
0.714971 0.1 -0.675 0.00468657
0.714971 0.1 0.675 0.00450305
0.93886 0.1 -0.3 0.00257591
0.93886 0.1 0.3 0.00247921
0.150379 0.1 0.975 0.0113822
0.150379 0.1 -0.975 0.0143265
0.969689 0.1 -0.1875 0.00238654
0.969689 0.1 0.1875 0.00232762
0.411108 0.1 0.9 0.00922152
0.756813 0.1 0.6375 0.00400841
0.756814 0.1 -0.6375 0.0042016
0.990306 0.1 -2.19732e-17 0.00222432
0 0.1 0.99299 0.00528727
0 0.1 -0.99299 0.00571784
0.411108 0.1 -0.903998 0.0094888
0.990306 0.1 -0.075 0.00224101
0.990306 0.1 0.075 0.0022204
0.0363518 0.1 0.99299 0.00781201
0.0363518 0.1 -0.99299 0.00939192
0.90582 0.1 -0.4125 0.00281093
0.905821 0.1 0.4125 0.00267
0.797314 0.1 -0.6 0.0038201
0.797314 0.1 0.6 0.00363613
0.350249 0.1 0.9375 0.0102345
0.350249 0.1 -0.9375 0.0107514
0.990306 0.1 0.15 0.00222893
0.990306 0.1 -0.15 0.00227286
0.969689 0.1 -0.2625 0.00243728
0.969689 0.1 0.2625 0.00235454
0.835106 0.1 -0.5625 0.00345498
0.835106 0.1 0.5625 0.00328216
0.93886 0.1 -0.375 0.00264889
0.93886 0.1 0.375 0.00252892
0.075776 0.1 1.0125 0.0105571
0.075776 0.1 -1.0125 0.0133407
0.990306 0.1 -0.225 0.00231806
0.990306 0.1 0.225 0.00224937
0.287374 0.1 0.975 0.0111908
0.287374 0.1 -0.975 0.012895
0.871687 0.1 -0.525 0.00318837
0.871687 0.1 0.525 0.00300801
1.02149 0.1 -0.0369628 0.00206057
1.02149 0.1 0.0369628 0.00205157
0.969689 0.1 -0.3375 0.00249198
0.969689 0.1 0.3375 0.00239436
1.02149 0.1 -0.110888 0.00208149
1.02149 0.1 0.110888 0.00205252
0.90582 0.1 0.4875 0.00274845
0.90582 0.1 -0.4875 0.00292632
0.623803 0.1 0.819003 0.00581913
0 0.1 1.03201 0.00529661
0 0.1 -1.03201 0.00569866
0.0363518 0.1 1.03201 0.00782135
0.0363518 0.1 -1.03201 0.00937274
0.67013 0.1 -0.7875 0.00540587
0.67013 0.1 0.7875 0.00524995
0.623803 0.1 -0.825 0.00606974
0.990306 0.1 -0.3 0.0023716
0.990306 0.1 0.3 0.00228164
0.219992 0.1 -1.0125 0.0151316
0.219993 0.1 1.0125 0.0121299
0.574156 0.1 0.8625 0.00665685
0.574157 0.1 -0.8625 0.00676869
0.714971 0.1 -0.75 0.00490975
0.714971 0.1 0.75 0.00470438
1.02149 0.1 0.184814 0.00206524
1.02149 0.1 -0.184814 0.00211718
0.756814 0.1 -0.7125 0.00441654
0.756814 0.1 0.7125 0.00418119
0.522865 0.1 0.9 0.00749792
0.93886 0.1 -0.45 0.00275485
0.93886 0.1 0.45 0.00259239
1.04168 0.1 0 0.00197344
1.04168 0.1 -0.0729162 0.00198753
1.04168 0.1 0.0729162 0.00196899
0.522865 0.1 -0.903998 0.00755304
0.797314 0.1 -0.675 0.00400869
0.797314 0.1 0.675 0.00378119
0.467897 0.1 0.9375 0.00831433
0.467897 0.1 -0.9375 0.00838608
0 0.1 1.05 0.00530275
0 0.1 -1.05 0.00569106
0.835106 0.1 -0.6375 0.00361994
0.835106 0.1 0.6375 0.00340451
1.04168 0.1 -0.145832 0.00201358
1.04168 0.1 0.145832 0.00197392
1.02149 0.1 -0.25874 0.00216459
1.02149 0.1 0.25874 0.00208864
0.969689 0.1 -0.4125 0.00257499
0.969689 0.1 0.4125 0.00244602
0.411108 0.1 0.975 0.00927321
0.411108 0.1 -0.975 0.00956395
0.871687 0.1 -0.6 0.00333984
0.871687 0.1 0.6 0.00311186
1.0579 0.1 -0.0360525 0.00191942
1.0579 0.1 0.0360525 0.00191046
0.990306 0.1 -0.375 0.00244229
0.990306 0.1 0.375 0.0023262
0.150379 0.1 1.05 0.0113648
0.150379 0.1 -1.05 0.0141835
1.0579 0.1 0.108157 0.00190953
1.0579 0.1 -0.108157 0.00193801
1.04168 0.1 -0.218749 0.00205196
1.04168 0.1 0.218749 0.00198864
0.90582 0.1 -0.5625 0.0030662
0.90582 0.1 0.5625 0.00283186
0 0.1 -1.06799 0.00568148
0 0.1 1.06799 0.00530792
0.0363518 0.1 -1.06799 0.00923457
0.0363518 0.1 1.06799 0.00783527
0.350249 0.1 1.0125 0.0103075
0.350249 0.1 -1.0125 0.0107797
1.0579 0.1 -0.180262 0.00196822
1.0579 0.1 0.180262 0.00191688
1.02149 0.1 -0.332665 0.00222522
1.02149 0.1 0.332665 0.00212329
0.93886 0.1 -0.525 0.00288436
0.93886 0.1 0.525 0.00266771
1.08012 0.1 5.49329e-18 0.00184489
1.04168 0.1 -0.291665 0.00210274
1.04168 0.1 0.291665 0.00201298
1.08012 0.1 0.0709941 0.00184041
1.08012 0.1 -0.0709941 0.00185749
0.969689 0.1 -0.4875 0.00271178
0.96969 0.1 0.4875 0.00250981
1.0579 0.1 0.252367 0.00193287
1.0579 0.1 -0.252367 0.00200941
0.990306 0.1 -0.45 0.00254737
0.990306 0.1 0.45 0.00238291
0.287374 0.1 -1.05 0.0129152
0.287374 0.1 1.05 0.0112115
0.714971 0.1 0.821002 0.00489182
1.08012 0.1 -0.141988 0.00188051
1.08012 0.1 0.141988 0.00184346
0.075776 0.1 1.0875 0.0105853
0.075776 0.1 -1.0875 0.0130568
0.714971 0.1 -0.825 0.00513406
0.756813 0.1 -0.7875 0.00465576
0.756814 0.1 0.7875 0.00438773
0.67013 0.1 -0.8625 0.00563245
0.67013 0.1 0.8625 0.00546212
0.797314 0.1 -0.75 0.00422539
0.797314 0.1 0.75 0.00395429
0.623803 0.1 0.9 0.0061446
0.835106 0.1 -0.7125 0.00381359
0.835106 0.1 0.7125 0.00354829
0.623803 0.1 -0.903998 0.00624649
0.574156 0.1 0.9375 0.006836
0.574156 0.1 -0.9375 0.00691109
1.02149 0.1 -0.406591 0.00230889
1.02149 0.1 0.406591 0.00216998
1.08012 0.1 -0.212982 0.00191469
1.08012 0.1 0.212982 0.00185446
1.10076 0.1 -0.0349809 0.00178395
1.10076 0.1 0.0349809 0.00177684
0.871687 0.1 -0.675 0.00351659
0.871687 0.1 0.675 0.00323821
1.04168 0.1 -0.364581 0.0021695
1.04168 0.1 0.364581 0.00204776
1.10076 0.1 -0.104943 0.00179974
1.10076 0.1 0.104943 0.00177637
0.522865 0.1 0.975 0.00757757
0.522865 0.1 -0.975 0.00765805
1.0579 0.1 -0.324472 0.00206479
1.0579 0.1 0.324472 0.00195743
0 0.1 -1.10701 0.0056655
0 0.1 1.10701 0.00532153
0.0363518 0.1 1.10701 0.00784888
0.0363518 0.1 -1.10701 0.00921858
0.90582 0.1 0.6375 0.00294034
0.905821 0.1 -0.6375 0.00322779
0.219992 0.1 1.0875 0.0121114
0.219992 0.1 -1.0875 0.0151409
0.93886 0.1 0.6 0.00276108
0.93886 0.1 -0.6 0.00302822
1.10076 0.1 -0.174905 0.00182783
1.10076 0.1 0.174905 0.00178372
0.467897 0.1 1.0125 0.00834757
0.467897 0.1 -1.0125 0.00843033
1.08012 0.1 -0.283976 0.00196038
1.08012 0.1 0.283976 0.00187331
1.11928 0.1 3.93204e-18 0.00173108
0.990306 0.1 -0.525 0.00266843
0.990306 0.1 0.525 0.00245254
0.96969 0.1 -0.5625 0.0028376
0.969689 0.1 0.5625 0.00258562
1.11928 0.1 -0.0690357 0.00174197
1.11928 0.1 0.0690357 0.00172714
0 0.1 1.125 0.00532971
0 0.1 -1.125 0.00565994
0.411108 0.1 -1.05 0.00960129
0.411108 0.1 1.05 0.00933156
1.10076 0.1 0.244866 0.00179871
1.10076 0.1 -0.244866 0.00186637
1.11928 0.1 -0.138072 0.00176287
1.11928 0.1 0.138072 0.00172978
1.02149 0.1 0.480517 0.00222857
1.02149 0.1 -0.480517 0.00241073
1.0579 0.1 -0.396577 0.00213476
1.0579 0.1 0.396577 0.00199199
1.04168 0.1 -0.437497 0.00225286
1.04168 0.1 0.437497 0.00209353
0.150379 0.1 1.125 0.011391
0.150379 0.1 -1.125 0.0140587
0.714971 0.1 0.88201 0.00485282
1.08012 0.1 0.354971 0.00190067
1.08012 0.1 -0.354971 0.0020187
1.11928 0.1 -0.207107 0.00179478
1.11928 0.1 0.207107 0.00173955
0.350249 0.1 -1.0875 0.0108039
0.350249 0.1 1.0875 0.010401
0 0.1 1.14299 0.00533683
0 0.1 -1.14299 0.00565238
0.0363518 0.1 1.14299 0.00787732
0.0363518 0.1 -1.14299 0.0091021
1.14316 0.1 -0.0339211 0.00166477
1.14316 0.1 0.0339211 0.00165796
0.797314 0.1 0.821002 0.00415058
1.10076 0.1 -0.314829 0.00191552
1.10076 0.1 0.314829 0.00182092
0.797314 0.1 -0.825 0.00445154
0.756814 0.1 -0.8625 0.0048729
0.756814 0.1 0.8625 0.00460528
1.14316 0.1 -0.101763 0.00167877
1.14316 0.1 0.101763 0.00165658
0.835106 0.1 -0.7875 0.00403349
0.835106 0.1 0.7875 0.00371877
0.871687 0.1 -0.75 0.00372022
0.871687 0.1 0.75 0.00339098
0.67013 0.1 0.9375 0.00568504
0.67013 0.1 -0.9375 0.0058799
0.90582 0.1 -0.7125 0.00341474
0.905821 0.1 0.7125 0.00307142
0.714971 0.1 -0.903998 0.00532423
1.11928 0.1 0.276143 0.00175626
1.11928 0.1 -0.276143 0.0018361
1.14316 0.1 0.169605 0.00166157
1.14316 0.1 -0.169605 0.0017041
0.93886 0.1 -0.675 0.00319359
0.93886 0.1 0.675 0.00287976
1.15704 0.1 0 0.00162536
1.0579 0.1 0.468682 0.0020367
1.0579 0.1 -0.468682 0.00221525
0.623803 0.1 0.975 0.00630537
0.623803 0.1 -0.975 0.00642021
0.990306 0.1 0.6 0.00254164
0.990306 0.1 -0.6 0.00280057
1.15704 0.1 -0.0671479 0.00163538
1.15704 0.1 0.0671479 0.0016212
1.04168 0.1 -0.510414 0.00234368
1.04168 0.1 0.510414 0.0021519
0.969689 0.1 -0.6375 0.00298598
0.969689 0.1 0.6375 0.00269148
1.08012 0.1 0.425965 0.00193726
1.08012 0.1 -0.425965 0.00208878
0.287374 0.1 -1.125 0.0129303
0.287374 0.1 1.125 0.0112688
1.02149 0.1 -0.554443 0.0025114
1.02149 0.1 0.554443 0.00230292
0.574156 0.1 1.0125 0.00689161
0.574156 0.1 -1.0125 0.00696642
1.15704 0.1 -0.134296 0.00165442
1.15704 0.1 0.134296 0.00162267
0.075776 0.1 1.1625 0.0106437
0.075776 0.1 -1.1625 0.012817
1.10076 0.1 -0.384791 0.00197574
1.10076 0.1 0.384791 0.00185169
1.14316 0.1 -0.237448 0.00173849
1.14316 0.1 0.237448 0.00167288
1.11928 0.1 -0.345179 0.00188691
1.11928 0.1 0.345179 0.00178029
0.522865 0.1 1.05 0.0076225
0.522865 0.1 -1.05 0.00771043
1.15704 0.1 -0.201444 0.00168332
1.15704 0.1 0.201444 0.00163017
1.1744 0.1 -0.0331401 0.00158813
1.1744 0.1 0.0331401 0.00158149
1.1744 0.1 -0.0994202 0.00160111
1.1744 0.1 0.0994202 0.00157972
0 0.1 1.18201 0.00535403
0 0.1 -1.18201 0.00564025
0.0363518 0.1 1.18201 0.00789451
0.0363518 0.1 -1.18201 0.00908998
0.219992 0.1 1.1625 0.0121497
0.219993 0.1 -1.1625 0.0151484
1.14316 0.1 0.30529 0.00169034
1.14316 0.1 -0.30529 0.00177995
0.467897 0.1 1.0875 0.00837936
0.467897 0.1 -1.0875 0.0084699
1.1744 0.1 -0.1657 0.00162473
1.1744 0.1 0.1657 0.00158383
1.15704 0.1 -0.268592 0.00171933
1.15704 0.1 0.268592 0.00164351
1.0579 0.1 0.540787 0.00209418
1.0579 0.1 -0.540787 0.00230073
0.796996 0.1 0.88201 0.00430787
1.08012 0.1 -0.496959 0.00216774
1.08012 0.1 0.496959 0.0019841
1.10076 0.1 0.454752 0.00189097
1.10076 0.1 -0.454752 0.00204715
1.11928 0.1 -0.414214 0.00194866
1.11928 0.1 0.414214 0.0018124
1.04168 0.1 -0.58333 0.00244899
1.04168 0.1 0.58333 0.00222453
1.1744 0.1 -0.231981 0.00165595
1.1744 0.1 0.231981 0.00159311
0.871687 0.1 0.821002 0.00356881
0.411108 0.1 1.125 0.00939803
0.411108 0.1 -1.125 0.00963219
1.19808 0.1 1.73472e-17 0.0015236
0.990306 0.1 0.675 0.00265577
0.990306 0.1 -0.675 0.00295613
1.02149 0.1 0.628368 0.00239343
1.02149 0.1 -0.628368 0.00264719
1.19808 0.1 -0.0650961 0.00153355
1.19808 0.1 0.0650961 0.00151883
0 0.1 1.2 0.00536375
0 0.1 -1.2 0.00563639
0.871687 0.1 -0.825 0.00394413
0.905821 0.1 -0.7875 0.00362913
0.90582 0.1 0.7875 0.00323744
0.835106 0.1 -0.8625 0.00426422
0.835106 0.1 0.8625 0.00392541
0.93886 0.1 -0.75 0.00338197
0.93886 0.1 0.75 0.00301808
1.14316 0.1 -0.373132 0.00183004
1.14316 0.1 0.373132 0.00171479
0.969689 0.1 0.7125 0.00282072
0.969689 0.1 -0.7125 0.00315092
1.15704 0.1 -0.33574 0.00176207
1.15704 0.1 0.33574 0.00166308
0.756813 0.1 0.9375 0.00480865
0.756814 0.1 -0.9375 0.00511137
1.19808 0.1 0.130192 0.00151919
1.19808 0.1 -0.130192 0.00155135
0.797314 0.1 -0.903998 0.00464062
0.714971 0.1 0.975 0.00533567
0.714971 0.1 -0.975 0.00554784
0.150379 0.1 1.2 0.0114618
0.150379 0.1 -1.2 0.0139544
1.20938 0.1 -0.0322656 0.00150309
1.20938 0.1 0.0322656 0.00149588
1.1744 0.1 -0.298261 0.00169192
1.1744 0.1 0.298261 0.00160786
1.20938 0.1 -0.0967968 0.00151571
1.20938 0.1 0.0967968 0.00149333
1.19808 0.1 -0.195288 0.00157707
1.19808 0.1 0.195288 0.0015246
0.350249 0.1 1.1625 0.0105168
0.350249 0.1 -1.1625 0.0108241
0.67013 0.1 1.0125 0.0058696
0.67013 0.1 -1.0125 0.00597437
0 0.1 1.21799 0.00537228
0 0.1 -1.21799 0.00563053
0.0363518 0.1 -1.21799 0.00899699
0.0363518 0.1 1.21799 0.00793494
1.11928 0.1 -0.48325 0.00202267
1.11928 0.1 0.48325 0.00185324
1.10076 0.1 -0.524714 0.00212933
1.10076 0.1 0.524714 0.00194012
1.20938 0.1 0.161328 0.00149616
1.20938 0.1 -0.161328 0.00153808
1.08012 0.1 0.567953 0.00204288
1.08012 0.1 -0.567953 0.0022574
0.623803 0.1 1.05 0.00639548
0.623803 0.1 -1.05 0.00649057
1.0579 0.1 -0.612892 0.00240905
1.0579 0.1 0.612892 0.00216473
1.15704 0.1 -0.402888 0.00181463
1.15704 0.1 0.402888 0.00168957
1.14316 0.1 0.440974 0.00174684
1.14316 0.1 -0.440974 0.00189239
1.19808 0.1 -0.260384 0.00160759
1.19808 0.1 0.260384 0.00153479
1.2267 0.1 3.57064e-18 0.00146098
1.2267 0.1 -0.0636649 0.00147132
1.2267 0.1 0.0636649 0.00145524
1.1744 0.1 -0.364541 0.00173456
1.1744 0.1 0.364541 0.00162867
0.574156 0.1 1.0875 0.0069391
0.574156 0.1 -1.0875 0.00701988
1.20938 0.1 0.225859 0.00150333
1.20938 0.1 -0.225859 0.00156557
1.04168 0.1 -0.656246 0.00258283
1.04168 0.1 0.656246 0.00231363
1.2267 0.1 -0.12733 0.00148858
1.2267 0.1 0.12733 0.00145432
0.287374 0.1 1.2 0.0113467
0.287374 0.1 -1.2 0.0129417
1.02149 0.1 -0.702294 0.00280718
1.02149 0.1 0.702294 0.00250747
0.075776 0.1 -1.2375 0.0126255
0.075776 0.1 1.2375 0.0107269
0.871399 0.1 0.88201 0.00372227
0.522865 0.1 1.125 0.00766252
0.522865 0.1 -1.125 0.00775528
1.2267 0.1 -0.190994 0.00151237
1.2267 0.1 0.190994 0.0014581
1.19808 0.1 -0.32548 0.00164303
1.19808 0.1 0.32548 0.00155021
0.990306 0.1 -0.75 0.0031343
0.990306 0.1 0.75 0.00278107
1.24274 0.1 -0.0314313 0.00142934
1.24274 0.1 0.0314313 0.00142085
1.20938 0.1 -0.29039 0.00159641
1.20938 0.1 0.29039 0.00151522
1.24274 0.1 -0.0942942 0.00144205
1.24274 0.1 0.0942942 0.00141657
0.93886 0.1 0.821002 0.00317381
1.11928 0.1 -0.552285 0.00210339
1.11928 0.1 0.552285 0.00190465
1.15704 0.1 -0.470036 0.00188101
1.15704 0.1 0.470036 0.00172338
0.969689 0.1 -0.7875 0.0033389
0.96969 0.1 0.7875 0.00294817
0.93886 0.1 -0.825 0.00359016
0.90582 0.1 0.8625 0.00342391
0.905821 0.1 -0.8625 0.00386078
1.1744 0.1 -0.430821 0.00178876
1.1744 0.1 0.430821 0.00165617
1.10076 0.1 -0.594676 0.0022187
1.10076 0.1 0.594676 0.00200152
1.14316 0.1 -0.508816 0.00196817
1.14316 0.1 0.508816 0.00178733
1.24274 0.1 -0.157157 0.00146316
1.24274 0.1 0.157157 0.00141736
1.2267 0.1 -0.254659 0.00153964
1.2267 0.1 0.254659 0.00146621
0.467897 0.1 1.1625 0.0084037
0.467897 0.1 -1.1625 0.00850347
1.08012 0.1 0.638947 0.00211368
1.08012 0.1 -0.638947 0.00236934
1.25511 0.1 -5.78241e-19 0.00139868
0.835106 0.1 -0.9375 0.00448602
0.835106 0.1 0.9375 0.00414181
0.871687 0.1 -0.903998 0.00413594
1.25511 0.1 0.0622446 0.0013912
1.25511 0.1 -0.0622446 0.00141011
0.219992 0.1 1.2375 0.012253
0.219992 0.1 -1.2375 0.0151481
0 0.1 -1.25701 0.00562179
0 0.1 1.25701 0.00539227
0.0363518 0.1 -1.25701 0.00898825
0.0363518 0.1 1.25701 0.00795493
0.797314 0.1 0.975 0.00457415
0.797314 0.1 -0.975 0.00488983
1.19808 0.1 -0.390576 0.00168683
1.19808 0.1 0.390576 0.00157149
1.0579 0.1 -0.684997 0.0025429
1.0579 0.1 0.684997 0.00224928
1.20938 0.1 -0.354921 0.00163314
1.20938 0.1 0.354921 0.00153238
1.25511 0.1 0.124489 0.00138826
1.25511 0.1 -0.124489 0.00142742
1.24274 0.1 -0.220019 0.00148738
1.24274 0.1 0.220019 0.00142209
0.756813 0.1 1.0125 0.00502475
0.756814 0.1 -1.0125 0.00526665
1.2267 0.1 -0.318324 0.00157126
1.2267 0.1 0.318324 0.00147909
0.411108 0.1 1.2 0.00945176
0.411108 0.1 -1.2 0.00965958
1.25511 0.1 -0.186734 0.00144984
1.25511 0.1 0.186734 0.00138984
0.714971 0.1 1.05 0.00549119
0.714971 0.1 -1.05 0.00564495
1.04168 0.1 -0.729162 0.00274025
1.04168 0.1 0.729162 0.00241702
1.24274 0.1 0.282882 0.00143118
1.24274 0.1 -0.282882 0.00151405
0 0.1 1.275 0.00540336
0 0.1 -1.275 0.00561946
1.1744 0.1 0.497102 0.00169018
1.1744 0.1 -0.497102 0.00185885
1.15704 0.1 -0.537184 0.00195142
1.15704 0.1 0.537184 0.00176598
1.2756 0.1 -0.03061 0.00135902
1.2756 0.1 0.03061 0.00134812
0.67013 0.1 1.0875 0.00593196
0.67013 0.1 -1.0875 0.00603485
1.2756 0.1 -0.09183 0.00137331
1.2756 0.1 0.09183 0.00134095
1.25511 0.1 -0.248978 0.00147448
1.25511 0.1 0.248978 0.00139557
1.20938 0.1 0.419453 0.00155553
1.20938 0.1 -0.419453 0.00168009
1.11928 0.1 -0.621322 0.00220075
1.11928 0.1 0.621322 0.00196648
1.14316 0.1 -0.576659 0.00204257
1.14316 0.1 0.576659 0.00183862
1.19808 0.1 -0.455673 0.00174348
1.19808 0.1 0.455673 0.00159883
1.02149 0.1 0.776219 0.00262592
1.02149 0.1 -0.776219 0.00299743
0.150379 0.1 1.275 0.0115795
0.150379 0.1 -1.275 0.0138686
1.2756 0.1 -0.15305 0.00139377
1.2756 0.1 0.15305 0.00133861
1.2267 0.1 -0.381989 0.00161034