# nutMean  POINT_DATA 91129
# x  y  z  nutMean
0 0 0 4.92322e-06
0 0.00368111 0 1.66756e-05
0 0.00749587 0 5.88821e-05
0 0.0114491 0 0.000215873
0 0.0155459 0 0.00057253
0 0.0197915 0 0.00127787
0 0.0241911 0 0.0022221
0 0.0287506 0 0.00299544
0 0.0334755 0 0.00350636
0 0.038372 0 0.003863
0 0.0434463 0 0.00411798
0 0.0487048 0 0.00430834
0 0.0541543 0 0.00446209
0 0.0598016 0 0.00459681
0 0.0656539 0 0.0047227
0 0.0717187 0 0.0048463
0.075776 0.00184055 0 7.73487e-06
0.075776 0.00558849 0 1.19551e-05
0.075776 0.00947248 -3.46945e-18 5.5613e-05
0.075776 0.0134975 -3.46945e-18 0.000249569
0.075776 0.0176687 3.46945e-18 0.000688597
0 0.0780037 0 0.00497223
0.075776 0.0219913 3.46945e-18 0.00138198
0.075776 0.0264709 3.46945e-18 0.00235061
0.075776 0.031113 -3.46945e-18 0.00358553
0.075776 0.0359237 -3.46945e-18 0.00505533
0 0.0845169 0 0.00510281
0.075776 0.0409092 0 0.00671795
0.075776 0.0460755 -3.46945e-18 0.00852509
0 0.0912666 0 0.0052381
0.075776 0.0514296 -3.46945e-18 0.0104263
0.075776 0.0569779 0 0.0123723
0 0.0982613 0 0.00537725
0.075776 0.0627278 0 0.014313
0.075776 0.0686863 0 0.0162038
0 0.10551 0 0.00551942
0.075776 0.0748612 3.46945e-18 0.0177987
0.075776 0.0812603 -3.46945e-18 0.0189313
0 0.113022 0 0.00566382
0.075776 0.0878918 3.46945e-18 0.0197961
0 0.120806 0 0.00580993
0.075776 0.0947639 3.46945e-18 0.0205935
0.075776 0.101886 -3.46945e-18 0.0214476
0 0.128874 0 0.00595766
0.075776 0.109266 3.46945e-18 0.0223774
0 0.137234 0 0.00611131
0.075776 0.116914 3.46945e-18 0.0234073
0 0.145897 0 0.00628319
0.075776 0.12484 0 0.0245419
0.151552 0 0 0
0.151552 0.00368111 0 6.47676e-06
0.151552 0.00749587 0 2.2578e-05
0.151552 0.0114491 0 9.47547e-05
0.151552 0.0155459 0 0.000286749
0.151552 0.0197915 0 0.000641876
0.075776 0.133054 0 0.025749
0.151552 0.0241911 0 0.00118139
0.151552 0.0287506 0 0.00191577
0 0.154876 0 0.00648141
0.151552 0.0334755 0 0.0028382
0.151552 0.038372 0 0.00393237
0.151552 0.0434463 0 0.00517651
0.151552 0.0487048 0 0.00654543
0.075776 0.141566 0 0.0269243
0.151552 0.0541543 0 0.00801228
0.151552 0.0598016 0 0.00954912
0 0.16418 0 0.00670062
0.151552 0.0656539 0 0.0111282
0.151552 0.0717187 0 0.0126737
0.075776 0.150387 0 0.027807
0.151552 0.0780037 0 0.0140795
0.151552 0.0845169 0 0.0153446
0 0.173822 0 0.00693326
0.075776 0.159528 0 0.0282421
0.151552 0.0912666 0 0.016555
0.151552 0.0982613 0 0.0177781
0 0.183814 0 0.00717752
0.151552 0.10551 0 0.0190362
0.075776 0.169001 3.46945e-18 0.0281141
0.151552 0.113022 0 0.020329
0.151552 0.120806 0 0.0216531
0 0.194169 0 0.00743913
0.075776 0.178818 3.46945e-18 0.0269798
0.151552 0.128874 0 0.0229917
0.075776 0.188992 3.46945e-18 0.0254414
0.151552 0.137234 0 0.0243033
0 0.2049 0 0.00773614
0.151552 0.145897 0 0.0254922
0.075776 0.199535 0 0.0239244
0 0.21602 0 0.00808904
0.151552 0.154876 0 0.026452
0.219992 0.00184055 0 1.94372e-06
0.219992 0.00558849 0 4.79161e-06
0.219992 0.00947248 -3.46945e-18 1.96766e-05
0.219992 0.0134975 3.46945e-18 6.30596e-05
0.219992 0.0176687 0 0.000173822
0.219992 0.0219913 0 0.000383629
0.219993 0.0264709 -3.46945e-18 0.000714693
0.219992 0.031113 -3.46945e-18 0.00117412
0.219992 0.0359238 3.46945e-18 0.00176581
0.151552 0.16418 0 0.0270906
0.075776 0.21046 0 0.0227233
0.219992 0.0409092 3.46945e-18 0.00249094
0.219992 0.0460755 0 0.00334807
0.219993 0.0514296 -3.46945e-18 0.00433291
0.219992 0.0569779 0 0.00543844
0 0.227544 0 0.00849307
0.219992 0.0627277 3.46945e-18 0.00665598
0.219992 0.0686863 0 0.00797494
0.151552 0.173822 0 0.0272169
0.219992 0.0748612 3.46945e-18 0.00938245
0.075776 0.221782 0 0.0218935
0.219992 0.0812603 3.46945e-18 0.0108642
0.219992 0.0878917 -3.46945e-18 0.0124045
0.151552 0.183814 0 0.0268787
7.47806e-17 0.239487 0 0.00893201
0.219992 0.0947639 3.46945e-18 0.0139852
0.219993 0.101886 3.46945e-18 0.0155841
0.075776 0.233516 0 0.0213009
0.219993 0.109266 0 0.0171777
0.151552 0.194169 0 0.0263815
0.219993 0.116914 0 0.0187474
0 0.251863 0 0.00940187
0.219993 0.12484 0 0.0202722
0.151552 0.2049 0 0.0258858
0.075776 0.245675 0 0.0208867
0.219992 0.133054 3.46945e-18 0.0217344
0.219992 0.141565 0 0.0231177
0.151552 0.21602 0 0.0254125
0 0.264688 0 0.0099017
0.219992 0.150387 3.46945e-18 0.0244074
0.075776 0.258275 3.46945e-18 0.0206269
0.219992 0.159528 -3.46945e-18 0.025593
0.151552 0.227544 0 0.0249632
0.219992 0.169001 3.46945e-18 0.0265803
0 0.27798 0 0.0104306
0.075776 0.271334 3.46945e-18 0.0204991
0.151552 0.239487 3.70071e-18 0.0245567
0.219992 0.178818 3.46945e-18 0.0272441
0.288433 0 0 0
0.288433 0.00368111 0 2.75218e-06
0.288433 0.00749587 0 1.09573e-05
0.288433 0.0114491 0 3.46659e-05
0.288433 0.0155459 3.70071e-18 9.18145e-05
0.288433 0.0197915 0 0.000212102
0.288433 0.0241911 3.70071e-18 0.000419115
0.288433 0.0287506 0 0.000726823
0.219992 0.188991 0 0.0277471
0.288433 0.0334755 0 0.00114443
0.288433 0.038372 0 0.00167547
0.288433 0.0434463 0 0.00232125
7.47806e-17 0.291753 0 0.0109898
0.288433 0.0487048 0 0.00308096
0.288433 0.0541543 0 0.00395175
0.151552 0.251863 0 0.0241843
0.288433 0.0598016 3.70071e-18 0.00492897
0.075776 0.284866 0 0.0204918
0.288433 0.0656539 3.70071e-18 0.00600605
0.219992 0.199534 0 0.0281529
0.288433 0.0717187 0 0.00717406
0.288433 0.0780037 0 0.00842185
0.288433 0.0845169 0 0.00973562
0.288433 0.0912666 0 0.0110984
0.219992 0.21046 -3.46945e-18 0.02835
0.288433 0.0982613 0 0.0123724
0.151552 0.264688 3.70071e-18 0.023874
0 0.306027 0 0.0115948
0.288433 0.10551 0 0.0134046
0.075776 0.29889 3.46945e-18 0.0206052
0.288433 0.113022 0 0.014334
0.219993 0.221782 0 0.0282075
0.288433 0.120806 0 0.0152505
0.288433 0.128874 0 0.0160625
0.151552 0.27798 0 0.0236432
0.288433 0.137234 0 0.0167875
0 0.320819 0 0.0123151
0.219992 0.233515 -3.46945e-18 0.0279352
0.075776 0.313423 -3.46945e-18 0.0208965
0.288433 0.145897 0 0.0174743
0.288433 0.154876 0 0.0181297
0.151552 0.291753 0 0.023436
0.219993 0.245675 0 0.0275739
0.288433 0.16418 0 0.0187208
0 0.336148 0 0.0132671
0.288433 0.173822 0 0.0191889
0.075776 0.328484 -3.46945e-18 0.0216509
0.219993 0.258275 -3.46945e-18 0.027125
0.151552 0.306027 0 0.0232338
0.288433 0.183814 0 0.0195399
0.288433 0.194169 0 0.019827
0.219992 0.271334 3.46945e-18 0.0267384
0.350249 0.00184056 -3.46945e-18 8.26706e-07
0.350249 0.00558849 0 3.53721e-06
0.350249 0.00947248 3.46945e-18 1.60116e-05
0.350249 0.0134975 0 4.09018e-05
0.350249 0.0176687 0 9.33905e-05
0.350249 0.0219913 0 0.000207362
0.350249 0.0264708 3.46945e-18 0.000389897
0.350249 0.031113 0 0.000660566
0 0.352034 0 0.0140173
0.350249 0.0359238 0 0.00102506
0.075776 0.344091 0 0.0231545
0.350249 0.0409091 0 0.00148665
0.350249 0.0460756 3.46945e-18 0.00204726
0.288433 0.2049 0 0.0200371
0.350249 0.0514296 0 0.00270722
0.151552 0.320819 0 0.0231349
0.350249 0.0569779 0 0.00346566
0.350249 0.0627277 3.46945e-18 0.00432011
0.350249 0.0686863 3.46945e-18 0.00526553
0.350249 0.0748612 3.46945e-18 0.00629437
0.350249 0.0812603 0 0.00739628
0.219992 0.284867 0 0.026362
0.288433 0.21602 0 0.0201107
0.350249 0.0878917 0 0.00855632
0.350249 0.094764 0 0.00975561
0.350249 0.101886 0 0.0105188
0.350249 0.109266 0 0.0107746
0.288433 0.227544 0 0.0200662
0.075776 0.360265 3.46945e-18 0.0229431
0 0.368496 0 0.0141743
0.151552 0.336148 0 0.0232978
0.350249 0.116914 3.46945e-18 0.0111688
0.219992 0.29889 0 0.0258437
0.370854 0.0241911 1.54074e-33 0.000305869
0.350249 0.12484 0 0.0114382
0.350249 0.133054 0 0.0115298
0.288433 0.239487 -9.25154e-19 0.0199624
0.350249 0.141566 3.46945e-18 0.0115951
0.350249 0.150387 3.46945e-18 0.0116989
0.288433 0.251863 0 0.0198071
0.219992 0.313423 0 0.0252105
0.151552 0.352034 0 0.0232087
0.075776 0.377027 0 0.0219353
0.350249 0.159528 0 0.0118266
0 0.385557 0 0.0139389
0.350249 0.169001 0 0.0119629
0.288433 0.264688 0 0.0196338
0.350249 0.178818 0 0.0120996
0.219992 0.328484 0 0.0244977
0.350249 0.188992 0 0.012234
0.151552 0.368496 0 0.0224832
0.288433 0.27798 3.70071e-18 0.0194649
0.075776 0.394397 0 0.0206648
0.350249 0.199535 0 0.0123632
7.47806e-17 0.403236 0 0.013718
0.219992 0.344091 0 0.0237518
0.350249 0.21046 -3.46945e-18 0.0124843
0.288433 0.291753 0 0.0192515
0.412065 9.08189e-19 3.08149e-33 2.31996e-22
0.412065 0.00368111 -2.31298e-18 2.13681e-06
0.412065 0.00749587 -2.31298e-18 1.01025e-05
0.412065 0.0114491 -2.31298e-18 2.79543e-05
0.412065 0.0155459 -2.31298e-18 6.09932e-05
0.412065 0.0197915 0 0.000127862
0.412065 0.0241911 -3.08149e-33 0.000249246
0.412065 0.0264709 0 0.000343697
0.412065 0.0287506 -2.31298e-18 0.000438149
0.412065 0.0334755 -2.31298e-18 0.000705152
0.412065 0.038372 -2.31298e-18 0.00105736
0.151552 0.385557 0 0.0214677
0.412065 0.0434463 0 0.00149766
0.350249 0.221782 0 0.0125959
0.412065 0.0487048 0 0.00202743
0.412065 0.0541543 -3.08149e-33 0.00264667
0.412065 0.0569779 0 0.00300028
0.412065 0.0598016 -2.31298e-18 0.0033539
0.412065 0.0656539 -2.31298e-18 0.00414569
0.412065 0.0717187 -2.31298e-18 0.0050161
0.075776 0.412396 -3.46945e-18 0.0202358
0.412065 0.0780037 -2.31298e-18 0.00595609
0.288433 0.306027 0 0.0189639
0.412065 0.0845169 -2.31298e-18 0.00695258
0.350249 0.233516 3.46945e-18 0.0126967
0 0.421557 0 0.0137345
0.412065 0.0912666 -2.31298e-18 0.00790347
0.219992 0.360265 3.46945e-18 0.022961
0.412065 0.0982613 0 0.00854887
0.412065 0.10551 0 0.00883724
0.412065 0.113022 -2.31298e-18 0.00903845
0.350249 0.245675 0 0.0127828
0.412065 0.120806 0 0.00924163
0.151552 0.403236 0 0.0205846
0.288433 0.320819 0 0.0186177
0.412065 0.128874 -2.31298e-18 0.00936807
0.412065 0.137234 0 0.00944409
0.350249 0.258275 -3.46945e-18 0.0128486
0.219992 0.377026 0 0.0220864
0.412065 0.145897 -2.31298e-18 0.00952349
0.075776 0.431051 0 0.0201819
0.412065 0.154876 -2.31298e-18 0.00961778
0 0.440544 0 0.0138352
0.288433 0.336148 0 0.0182337
0.350249 0.271334 0 0.012889
0.412065 0.16418 -2.31298e-18 0.00971919
0.412065 0.173822 -2.31298e-18 0.009822
0.151552 0.421557 0 0.0200266
0.412065 0.183814 -2.31298e-18 0.00992351
0.350249 0.284867 3.46945e-18 0.0129043
0.219992 0.394397 0 0.0211583
0.288433 0.352034 3.70071e-18 0.0178203
0.412065 0.194169 0 0.0100223
0.075776 0.450382 0 0.0202047
0.412065 0.2049 -2.31298e-18 0.0101169
0 0.46022 0 0.0139403
0.350249 0.29889 3.46945e-18 0.0128954
0.412065 0.21602 0 0.0102063
0.151552 0.440544 0 0.0196324
0.219993 0.412396 3.46945e-18 0.0202587
0.467897 0.00184056 -3.46945e-18 6.13625e-07
0.467897 0.00558849 0 3.57608e-06
0.288433 0.368496 0 0.0173636
0.467897 0.00947248 0 1.72398e-05
0.467897 0.0134975 0 3.77347e-05
0.467897 0.0176687 3.46945e-18 7.2805e-05
0.467897 0.0219913 -3.46945e-18 0.000141032
0.467897 0.0264709 3.46945e-18 0.000265582
0.467897 0.0311131 3.46945e-18 0.000448698
0.467897 0.0359238 -3.46945e-18 0.000705485
0.467897 0.038372 0 0.000910178
0.467897 0.0409092 3.46945e-18 0.00103994
0.350249 0.313423 0 0.0128626
0.467897 0.0460755 0 0.00145433
0.467897 0.0514296 3.46945e-18 0.00194967
0.412065 0.227544 -2.31298e-18 0.0102897
0.467897 0.0569779 0 0.00252544
0.467897 0.0627277 -3.46945e-18 0.00317951
0.467897 0.0686863 3.46945e-18 0.00390781
0.467897 0.0748612 0 0.00470313
0.467897 0.0812603 0 0.00555449
0.467897 0.0878918 3.46945e-18 0.00644586
0.075776 0.470415 3.46945e-18 0.0202438
0.412065 0.239487 -2.31298e-18 0.0103657
0.467897 0.0947639 -3.46945e-18 0.00703053
0.467897 0.101886 3.46945e-18 0.00711168
0.350249 0.328483 0 0.0128084
0.467897 0.109266 0 0.00719575
0 0.48061 0 0.0140459
0.288433 0.385557 0 0.016859
0.467897 0.116914 0 0.00728361
0.412065 0.251863 -2.31298e-18 0.0104319
0.219992 0.431051 0 0.0194574
0.467897 0.12484 0 0.00736269
0.151552 0.46022 0 0.0193183
0.467897 0.133054 3.46945e-18 0.00743584
0.467897 0.141566 3.46945e-18 0.00751012
0.412065 0.264688 -2.31298e-18 0.0104858
0.350249 0.344091 -3.46945e-18 0.0127342
0.467897 0.150387 3.46945e-18 0.00758506
0.467897 0.154876 0 0.00811564
0.467897 0.159528 3.46945e-18 0.00765871
0.288433 0.403236 0 0.0163336
0.075776 0.491175 0 0.0203203
0.412065 0.27798 -2.31298e-18 0.0105263
0.467897 0.169001 0 0.00773087
0.467897 0.178818 3.46945e-18 0.00780148
0.219992 0.450382 0 0.0187708
6.73026e-17 0.501741 3.70071e-18 0.0141324
0.350249 0.360265 0 0.0126393
0.151552 0.48061 0 0.0190635
0.467897 0.188991 0 0.00787038
0.412065 0.291753 0 0.010553
0.467897 0.199535 0 0.00793746
0.288433 0.421557 0 0.0158289
0.467897 0.21046 0 0.00800273
0.412065 0.306027 0 0.0105653
0.350249 0.377027 0 0.0125176
0.467897 0.221782 3.46945e-18 0.008066
0.075776 0.51269 0 0.0203235
0.219993 0.470415 3.46945e-18 0.018191
0.467897 0.227544 0 0.0086524
0.412065 0.320819 -2.31298e-18 0.0105632
0.467897 0.233515 0 0.00812697
6.73026e-17 0.523639 3.70071e-18 0.0141715
0.523729 0 0 0
0.523729 0.00368111 0 2.08744e-06
0.523729 0.00749587 -2.31298e-18 1.11064e-05
0.523729 0.0114491 0 2.89386e-05
0.523729 0.0155459 0 5.48427e-05
0.523729 0.0197915 -2.31298e-18 9.83083e-05
0.151552 0.501741 0 0.0188319
0.523729 0.0241911 0 0.000180515
0.523729 0.0287506 0 0.000313381
0.523729 0.0334755 0 0.000503753
0.523729 0.038372 -3.08149e-33 0.000762993
0.523729 0.0434463 0 0.00109473
0.523729 0.0487048 0 0.0015007
0.523729 0.0541543 0 0.00198112
0.288433 0.440544 0 0.0153731
0.523729 0.0598016 0 0.00253455
0.350249 0.394397 -3.46945e-18 0.012365
0.523729 0.0656539 0 0.0031577
0.467897 0.245675 0 0.00818534
0.523729 0.0717187 0 0.00384485
0.523729 0.0780037 0 0.00458686
0.523729 0.0845169 0 0.00535838
0.523729 0.0912666 0 0.00591147
0.412065 0.336148 0 0.0105468
0.523729 0.0982613 0 0.00611587
0.523729 0.10551 -2.31298e-18 0.00619614
0.467897 0.258275 -3.46945e-18 0.00824104
0.523729 0.113022 0 0.00627641
0.523729 0.120806 -3.08149e-33 0.00635156
0.219993 0.491176 0 0.0176836
0.523729 0.12484 0 0.0063859
0.523729 0.128874 -2.31298e-18 0.00642023
0.075776 0.534986 0 0.0202656
0.467897 0.271334 3.46945e-18 0.00829448
0.350249 0.412396 -3.46945e-18 0.0121868
0.523729 0.137234 0 0.00648579
0.412065 0.352034 -2.31298e-18 0.0105159
0.288433 0.46022 0 0.0149755
0.523729 0.145897 0 0.0065503
0.151552 0.523639 0 0.0185926
0.523729 0.154876 -3.08149e-33 0.00661349
0 0.546332 0 0.014169
0.523729 0.159528 0 0.0066443
0.467897 0.284867 -3.46945e-18 0.00834518
0.523729 0.16418 -2.31298e-18 0.0066751
0.523729 0.173822 0 0.00673521
0.412065 0.368496 0 0.0104683
0.523729 0.183814 0 0.00679387
0.467897 0.29889 0 0.00839132
0.350249 0.431051 -3.46945e-18 0.0119964
0.219992 0.51269 0 0.0172258
0.523729 0.194169 0 0.00685113
0.288433 0.48061 0 0.0146306
0.523729 0.2049 0 0.00690707
0.467897 0.313423 3.46945e-18 0.00843136
0.075776 0.558091 0 0.0201636
0.412065 0.385557 0 0.0104013
0.523729 0.21602 -3.08149e-33 0.00696172
0.151552 0.546332 0 0.0183501
0 0.569849 0 0.0141344
0.350249 0.450382 3.46945e-18 0.0118092
0.523729 0.227544 -3.08149e-33 0.00701505
0.467897 0.328483 0 0.00846385
0.523729 0.231525 1.54074e-33 0.00703235
0.574156 0.00184056 0 5.03134e-07
0.574156 0.00558849 0 3.65797e-06
0.574157 0.00947248 0 1.98607e-05
0.574156 0.0134975 -3.46945e-18 4.07296e-05
0.574156 0.0176687 -3.46945e-18 6.81587e-05
0.574156 0.0219913 0 0.000112369
0.574156 0.0264708 -3.46945e-18 0.000206069
0.574156 0.031113 0 0.00033892
0.574156 0.0359238 -3.46945e-18 0.000531533
0.574157 0.0409092 0 0.000789409
0.523729 0.239487 3.70071e-18 0.00706695
0.574156 0.0460755 -3.46945e-18 0.00111525
0.574156 0.0514295 0 0.00150996
0.412065 0.403236 0 0.0103148
0.574157 0.0569779 0 0.00197303
0.574156 0.0627277 0 0.00250192
0.574156 0.0686863 0 0.00309215
0.219992 0.534986 0 0.0168127
0.288433 0.501741 0 0.0143258
0.574156 0.0748612 3.46945e-18 0.00373669
0.574156 0.0812603 0 0.00442418
0.467897 0.344091 0 0.00848751
0.574156 0.0878917 3.46945e-18 0.00509309
0.523729 0.251863 0 0.00711739
0.574157 0.0947639 0 0.00518465
0.574156 0.101886 0 0.00526167
0.574156 0.109266 0 0.00534076
0.574156 0.116914 0 0.00541155
0.412065 0.416977 -6.16298e-33 0.010239
0.350249 0.470415 0 0.0116375
0.523729 0.264688 0 0.00716646
0.075776 0.582034 0 0.0200309
0.574156 0.12484 0 0.00547548
0.574156 0.133054 3.46945e-18 0.00553495
0.412065 0.421557 -2.31298e-18 0.0102137
0.151552 0.569849 0 0.0181106
0.467897 0.360265 -3.46945e-18 0.00850151
0.574157 0.141566 -3.46945e-18 0.0055913
0.523729 0.27798 0 0.00721407
0.574156 0.150386 3.46945e-18 0.00564506
0 0.594219 0 0.0140754
0.574156 0.159528 -3.46945e-18 0.00569689
0.574156 0.16418 0 0.00590089
0.288433 0.523639 1.2326e-32 0.0140536
0.574157 0.169001 0 0.00574712
0.523729 0.291753 0 0.00725946
0.219993 0.558091 3.46945e-18 0.0164399
0.467897 0.377026 0 0.00850518
0.574156 0.178818 3.46945e-18 0.00579596
0.412065 0.440544 -2.31298e-18 0.010106
0.350249 0.491175 0 0.0114875
0.574156 0.188992 3.46945e-18 0.00584365
0.523729 0.306027 -3.08149e-33 0.0073015
0.574157 0.199535 0 0.00589037
0.574157 0.21046 0 0.00593632
0.075776 0.606847 0 0.0198771
0.467897 0.394397 0 0.0084978
0.151552 0.594219 0 0.0178788
0.523729 0.320819 0 0.0073391
0.574157 0.221782 -3.46945e-18 0.00598164
0.412065 0.46022 3.08149e-33 0.0100005
0.288433 0.546332 0 0.0138102
0 0.619475 0 0.0139976
0.574156 0.233515 3.46945e-18 0.00602645
0.350249 0.51269 3.46945e-18 0.0113576
0.219992 0.582034 3.46945e-18 0.0161072
0.523729 0.336148 0 0.00737123
0.467897 0.412396 0 0.00847903
0.574156 0.245675 0 0.00607084
0.624584 0 0 0
0.624584 0.00368111 0 2.09004e-06
0.624584 0.00749587 0 1.25381e-05
0.624584 0.0114491 0 3.22819e-05
0.624584 0.0155459 0 5.60029e-05
0.624584 0.0197915 0 8.79466e-05
0.624584 0.0241911 -2.31298e-18 0.000145722
0.624584 0.0287506 0 0.000245366
0.624584 0.0334755 0 0.000391584
0.624584 0.038372 0 0.000592225
0.624584 0.0434463 -2.31298e-18 0.000854921
0.624584 0.0487048 0 0.00118175
0.624584 0.0541543 0 0.0015729
0.624584 0.0598016 0 0.00202678
0.624584 0.0656539 0 0.00253968
0.624584 0.0717187 0 0.00310557
0.624584 0.0780037 0 0.0037151
0.574157 0.258276 3.46945e-18 0.0061149
0.624584 0.0845169 0 0.0042776
0.523729 0.352034 0 0.00739706
0.624584 0.0912666 0 0.00457021
0.624584 0.0982613 0 0.00465309
0.412065 0.48061 3.08149e-33 0.00990405
0.624584 0.10551 0 0.00472935
0.624584 0.113022 -2.31298e-18 0.00480075
0.574156 0.271334 0 0.0061586
0.624584 0.120806 0 0.00486492
0.467897 0.431051 0 0.00845014
0.075776 0.632561 -3.46945e-18 0.0197092
0.624584 0.128874 0 0.0049237
0.151552 0.619475 0 0.0176574
0.288433 0.569849 0 0.0135938
0.350249 0.534985 0 0.0112451
0.624584 0.137234 -2.31298e-18 0.00497857
0.523729 0.368496 0 0.007416
0.574156 0.284866 -3.46945e-18 0.00620168
0.624584 0.145897 0 0.00503033
0.467897 0.440544 0 0.00876116
0.624584 0.154876 0 0.00507953
0.219992 0.606847 -3.46945e-18 0.0158124
0 0.645647 0 0.0139056
0.624584 0.16418 -3.08149e-33 0.00512667
0.574156 0.29889 -3.46945e-18 0.00624359
0.624584 0.173822 0 0.00517211
0.412065 0.501741 1.54074e-33 0.00981971
0.467897 0.450382 -3.46945e-18 0.00841444
0.523729 0.385557 0 0.00742751
0.624584 0.183814 0 0.00521614
0.624584 0.194169 0 0.00525901
0.574156 0.313423 0 0.00628367
0.624584 0.2049 0 0.00530095
0.350249 0.558091 3.46945e-18 0.011148
0.288433 0.594219 0 0.013403
0.624584 0.21602 0 0.00534216
0.523729 0.403236 0 0.00743113
0.574156 0.328483 -3.46945e-18 0.00632116
0.151552 0.645647 0 0.017447
0.467897 0.470415 3.46945e-18 0.00837658
0.075776 0.659208 0 0.0195323
0.624584 0.227544 0 0.00538279
0.412065 0.523639 0 0.00974771
0.523729 0.41545 3.08149e-33 0.00742836
0.624584 0.239487 3.70071e-18 0.00542299
0.574156 0.344091 0 0.00635539
0.219992 0.632561 0 0.0155516
0.67013 0.00184055 0 4.27893e-07
0.67013 0.00558849 0 3.7701e-06
0.67013 0.00947248 0 2.2769e-05
0.67013 0.0134975 0 4.55261e-05
0.67013 0.0176687 -3.46945e-18 6.94077e-05
0.67013 0.0219913 0 0.000102136
0.67013 0.0264708 3.46945e-18 0.000163967
0.67013 0.0311131 0 0.000275829
0.67013 0.0359237 0 0.000425395
0.67013 0.0409092 -3.46945e-18 0.000630916
0.67013 0.0460755 0 0.000896023
0.67013 0.0514296 3.46945e-18 0.00122178
0.523729 0.421557 -2.31298e-18 0.00742698
0.67013 0.056978 0 0.00160745
0 0.67277 0 0.013803
0.67013 0.0627277 0 0.00205047
0.624584 0.251863 0 0.00546285
0.67013 0.0686863 0 0.00254564
0.67013 0.0748612 3.46945e-18 0.00308555
0.67013 0.0812603 0 0.00365862
0.67013 0.0878917 0 0.00399327
0.67013 0.0947639 3.46945e-18 0.00407921
0.574156 0.360265 0 0.0063858
0.67013 0.101886 0 0.00415636
0.523729 0.431051 0 0.00742164
0.624584 0.264688 0 0.00550243
0.467897 0.491175 0 0.00834112
0.67013 0.109266 3.46945e-18 0.00422836
0.350249 0.582034 0 0.0110647
0.67013 0.116914 0 0.00429248
0.67013 0.12484 0 0.0043507
0.67013 0.133054 0 0.00440454
0.288433 0.619475 0 0.0132361
0.624584 0.27798 -3.08149e-33 0.00554163
0.412065 0.546332 1.54074e-33 0.00968744
0.523729 0.440544 -3.08149e-33 0.00741629
0.67013 0.141566 3.46945e-18 0.00445472
0.685312 0.0241911 -7.70372e-34 0.000132846
0.685312 0.0434463 -7.70372e-34 0.000749153
0.67013 0.150387 0 0.00450182
0.574156 0.377026 -3.46945e-18 0.006412
0.67013 0.159528 0 0.00454635
0.624584 0.291753 0 0.00558023
0.151552 0.67277 0 0.0172479
0.075776 0.686823 0 0.0193497
0.67013 0.169001 0 0.00458878
0.67013 0.178818 0 0.0046295
0.467897 0.51269 0 0.00831121
0.685312 0.113022 -7.70372e-34 0.0041909
0.219992 0.659208 0 0.0153208
0.624584 0.306027 0 0.00561782
0.67013 0.188991 0 0.00466884
0.574156 0.394397 3.46945e-18 0.00643363
0.523729 0.46022 0 0.00740155
0.685312 0.137234 -7.70372e-34 0.00435975
0.67013 0.199535 -3.46945e-18 0.00470707
0.350249 0.606847 0 0.0109942
0 0.700877 0 0.0136929
0.624584 0.320819 0 0.00565394
0.67013 0.21046 0 0.00474443
0.412065 0.569849 -2.31298e-18 0.00963811
0.67013 0.221782 -3.46945e-18 0.00478112
0.574157 0.412396 0 0.00645032
0.288433 0.645647 0 0.0130909
0.624584 0.336148 -3.08149e-33 0.00568807
0.67013 0.233515 3.46945e-18 0.00481733
0.467897 0.534986 0 0.00828843
0.523729 0.48061 0 0.00738592
0.624584 0.344091 0 0.00570392
0.67013 0.245675 0 0.00485319
0.715676 4.54095e-19 0 6.59606e-23
0.715676 0.00368111 0 2.10468e-06
0.715676 0.00749587 0 1.39942e-05
0.715676 0.0114491 0 3.61286e-05
0.715676 0.0155459 0 5.97103e-05
0.715676 0.0197915 0 8.59725e-05
0.715676 0.0241911 0 0.000126409
0.715676 0.0287506 0 0.000202613
0.715676 0.0334755 0 0.000321397
0.715676 0.038372 0 0.000482563
0.624584 0.352034 -2.31298e-18 0.00571977
0.715676 0.0434463 0 0.000696269
0.151552 0.700877 0 0.01706
0.715676 0.0487048 0 0.000966862
0.715676 0.0541543 0 0.00129466
0.574156 0.43105 0 0.00646197
0.715676 0.0598016 0 0.00167807
0.67013 0.258275 0 0.0048888
0.715676 0.0656539 0 0.00211321
0.715676 0.0717187 0 0.00259373
0.075776 0.715441 0 0.0191646
0.715676 0.0780037 0 0.00311016
0.715676 0.0845169 0 0.00349902
0.219992 0.686824 0 0.0151169
0.715676 0.0912666 0 0.00366462
0.715676 0.0982613 0 0.00374579
0.67013 0.271334 -3.46945e-18 0.00492419
0.350249 0.632561 -3.46945e-18 0.0109361
0.412065 0.594219 3.08149e-33 0.00959905
0.715676 0.10551 0 0.00381957
0.715676 0.113022 0 0.00388598
0.624584 0.368496 0 0.00574864
0.523729 0.501741 0 0.00737237
0.715676 0.120806 0 0.00394558
0.715676 0.128874 0 0.00400002
0.67013 0.284867 0 0.00495929
0.467897 0.558091 3.46945e-18 0.0082733
0.715676 0.137234 0 0.00405034
0.574156 0.450382 0 0.00646919
0 0.730005 0 0.0135778
0.715676 0.145897 0 0.00409724
0.288433 0.67277 0 0.0129655
0.715676 0.154876 0 0.00414122
0.67013 0.29889 0 0.00499398
0.624584 0.385557 0 0.00577438
0.715676 0.16418 -9.25187e-19 0.00418275
0.715676 0.173822 0 0.00422229
0.715676 0.183814 0 0.00426017
0.67013 0.313423 0 0.00502802
0.523729 0.523639 0 0.00736306
0.715676 0.194169 0 0.0042967
0.574156 0.470415 3.46945e-18 0.00647353
0.624584 0.403236 0 0.00579669
0.743101 0.0241911 -7.70372e-34 0.000123605
0.412065 0.619475 3.08149e-33 0.00956977
0.715676 0.2049 0 0.00433214
0.151552 0.730005 0 0.0168832
0.67013 0.328484 3.46945e-18 0.00506112
0.350249 0.659208 0 0.0108898
0.467897 0.582034 0 0.00826569
0.715676 0.21602 0 0.00436672
0.219992 0.715441 0 0.0149369
0.075776 0.745097 -3.46945e-18 0.0189794
0.715676 0.227544 0 0.00440062
0.67013 0.344091 0 0.00509296
0.624584 0.421557 0 0.00581536
0.743101 0.128874 -7.70372e-34 0.00379326
0.715676 0.239487 3.70071e-18 0.00443402
0.574156 0.491175 0 0.00647709
0.756814 0.00184055 0 3.705e-07
0.523729 0.546332 0 0.00735927
0.756813 0.00558849 0 3.84969e-06
0.756813 0.00947248 0 2.55069e-05
0.756814 0.0134975 -3.46945e-18 5.049e-05
0.756814 0.0155459 0 6.20211e-05
0.756814 0.0176687 0 7.31653e-05
0.756814 0.0219913 0 9.91597e-05
0.756814 0.0264709 0 0.000141124
0.756814 0.031113 -3.46945e-18 0.000231488
0.756813 0.0359238 -3.46945e-18 0.000356179
0.288433 0.700877 0 0.0128582
0.756814 0.0409092 -3.46945e-18 0.000522917
0.756813 0.0460755 3.46945e-18 0.000742816
0.756813 0.0514296 0 0.00101722
0.715676 0.251863 0 0.00446703
0.756813 0.0569779 0 0.00134572
0.756814 0.0627277 -3.46945e-18 0.00172567
0.756814 0.0686863 -3.46945e-18 0.00215194
0 0.76019 0 0.0134601
0.756814 0.0748612 0 0.00261683
0.67013 0.360265 3.46945e-18 0.00512324
0.756814 0.0812603 -3.46945e-18 0.00310919
0.756814 0.0878917 -3.46945e-18 0.00327184
0.756814 0.0947639 -3.46945e-18 0.00335603
0.715676 0.264688 0 0.00449972
0.756813 0.101886 0 0.00343344
0.624584 0.440544 0 0.00583052
0.756813 0.109266 3.46945e-18 0.0035021
0.756813 0.116914 3.46945e-18 0.00356311
0.412065 0.645647 0 0.00955001
0.467897 0.606847 0 0.00826532
0.756814 0.120806 0 0.00363623
0.756813 0.12484 0 0.00361832
0.715676 0.27798 0 0.00453212
0.756814 0.133054 -3.46945e-18 0.00366897
0.67013 0.377026 -3.46945e-18 0.00515169
0.756814 0.137234 0 0.00373931
0.574156 0.51269 0 0.00648203
0.756813 0.141566 3.46945e-18 0.00371578
0.685312 0.352034 -7.70372e-34 0.00503067
0.743101 0.2049 -7.70372e-34 0.00411871
0.350249 0.686824 0 0.0108552
0.756814 0.150387 0 0.00375944
0.756814 0.154876 0 0.00382815
0.715676 0.291753 0 0.00456418
0.756814 0.159528 -3.46945e-18 0.00380027
0.523729 0.569849 0 0.00736156
0.72743 0.264688 0 0.00440536
0.756814 0.16418 0 0.00386851
0.151552 0.76019 0 0.0167177
0.756813 0.169001 3.46945e-18 0.00383882
0.624584 0.46022 0 0.00584283
0.219993 0.745097 0 0.0147783
0.67013 0.394396 0 0.00517805
0.756813 0.178818 -3.46945e-18 0.00387546
0.715676 0.306027 0 0.00459579
0.075776 0.775831 0 0.0187966
0.756813 0.188991 0 0.0039105
0.756814 0.199535 0 0.00394424
0.715676 0.320819 0 0.0046268
0.574156 0.534985 0 0.00649014
0.288433 0.730005 0 0.0127677
0.756813 0.21046 0 0.00397692
0.467897 0.632561 0 0.00827203
0.67013 0.412396 -3.46945e-18 0.00520211
0.624584 0.48061 -3.08149e-33 0.00585356
0.756814 0.221782 0 0.00400874
0.412065 0.67277 3.08149e-33 0.00953962
0.715676 0.336148 0 0.00465698
0 0.791472 0 0.013342
0.756813 0.233516 3.46945e-18 0.0040399
0.523729 0.594219 0 0.00737004
0.624584 0.487654 1.54074e-33 0.00585713
0.756814 0.245675 3.46945e-18 0.00407052
0.350249 0.715441 3.46945e-18 0.010832
0.67013 0.43105 0 0.00522375
0.715676 0.352034 -9.25187e-19 0.00468613
0.797951 9.08189e-19 -3.08149e-33 1.1702e-22
0.797951 0.00368111 2.31298e-18 2.10662e-06
0.797951 0.00749587 2.31298e-18 1.53454e-05
0.797951 0.0114491 2.31298e-18 3.99742e-05
0.797951 0.0141803 7.70372e-34 5.62126e-05
0.797951 0.0155459 0 6.43319e-05
0.797951 0.0169611 7.70372e-34 7.20683e-05
0.797951 0.0197915 2.31298e-18 8.75411e-05
0.797951 0.0219913 0 0.00010277
0.797951 0.0241911 3.08149e-33 0.000117999
0.797951 0.0264709 0 0.000146276
0.797951 0.0287506 -3.08149e-33 0.000174552
0.797951 0.0334755 2.31298e-18 0.0002716
0.797951 0.038372 2.31298e-18 0.00040677
0.797951 0.0434463 2.31298e-18 0.000583869
0.797951 0.0487048 0 0.000811755
0.756813 0.258275 -3.46945e-18 0.00410072
0.797951 0.0541543 2.31298e-18 0.00109164
0.797951 0.0598016 2.31298e-18 0.00142205
0.797951 0.0656539 2.31298e-18 0.00179918
0.574156 0.55809 0 0.00650261
0.624584 0.501741 0 0.00586427
0.797951 0.0717187 2.31298e-18 0.00221651
0.797951 0.0780037 -3.08149e-33 0.00265248
0.797951 0.0845169 2.31298e-18 0.0029387
0.797951 0.0912666 -3.08149e-33 0.00304921
0.797951 0.0982613 2.31298e-18 0.00313069
0.756813 0.271334 0 0.00413057
0.797951 0.10551 2.31298e-18 0.00320392
0.715676 0.368496 0 0.00471402
0.151552 0.791472 0 0.0165634
0.797951 0.113022 2.31298e-18 0.00326875
0.219992 0.775831 3.46945e-18 0.0146391
0.797951 0.118211 7.70372e-34 0.0033075
0.770526 0.239487 1.54074e-33 0.00399954
0.797951 0.120806 0 0.00332688
0.67013 0.450382 3.46945e-18 0.00524304
0.797951 0.128874 3.08149e-33 0.00337974
0.467897 0.659208 0 0.00828582
0.756813 0.284866 -3.46945e-18 0.00416009
0.743101 0.320819 -7.70372e-34 0.00440037
0.797951 0.137234 0 0.00342827
0.797951 0.141566 0 0.00345075
0.797951 0.145897 -9.25187e-19 0.00347322
0.523729 0.619475 0 0.00738471
0.075776 0.807681 0 0.0186183
0.797951 0.150387 0 0.00349415
0.797951 0.154876 0 0.00351509
0.715676 0.385557 0 0.00474047
0.412065 0.700877 3.08149e-33 0.00953855
0.288433 0.76019 0 0.0126926
0.756813 0.29889 0 0.00418929
0.797951 0.16418 0 0.00355427
0.624584 0.523639 0 0.00587655
0.797951 0.167394 7.70372e-34 0.00356659
0.797951 0.173822 2.31298e-18 0.00359121
0.574156 0.582034 0 0.00652004
0.67013 0.470415 0 0.00526052
0.797951 0.183814 2.31298e-18 0.00362626
0.756813 0.313423 -3.46945e-18 0.00421809
0.797951 0.194169 -9.25187e-19 0.00365972
0.715676 0.403236 0 0.00476528
0.151552 0.807681 0 0.0164923
0.797951 0.197746 -7.70372e-34 0.00367043
0.350249 0.745097 0 0.0108197
0.797951 0.2049 3.08149e-33 0.00369185
0 0.823889 0 0.0132256
0.756813 0.328483 -3.46945e-18 0.0042464
0.797951 0.21046 0 0.00370735
0.797951 0.21602 -3.08149e-33 0.00372286
0.797951 0.223703 7.70372e-34 0.00374293
0.797951 0.227544 9.25187e-19 0.00375296
0.624584 0.546332 0 0.0058917
0.715676 0.421557 0 0.00478835
0.67013 0.491176 -3.46945e-18 0.00527709
0.797951 0.231525 7.70372e-34 0.00376274
0.467897 0.686824 -3.46945e-18 0.0083068
0.523729 0.645647 0 0.00740559
0.756813 0.344091 -3.46945e-18 0.00427408
0.822721 0.120806 7.70372e-34 0.00317832
0.797951 0.239487 -3.08149e-33 0.0037823
0.822721 0.137234 7.70372e-34 0.00327967
0.835106 0.00184056 0 3.25843e-07
0.835106 0.00558849 0 3.88096e-06
0.835106 0.00947248 0 2.80762e-05
0.835106 0.0134975 0 5.56211e-05
0.835107 0.0176687 0 7.7794e-05
0.835106 0.0219913 -3.46945e-18 9.99044e-05