# nutMean  POINT_DATA 63840
# x  y  z  nutMean
0 0.5 3.39583e-17 0.0141253
0 0.5 -0.00617931 0.0141856
0 0.5 0.00617931 0.0140691
0.0124865 0.5 -0.00617931 0.0152376
0.0124865 0.5 0.00617931 0.0150666
0 0.5 -0.0688207 0.0147726
0 0.5 0.0688207 0.0134968
0.0124865 0.5 -0.0688207 0.0158247
0.0124865 0.5 0.0688207 0.0144943
0 0.5 -0.075 0.0148287
0 0.5 0.075 0.0134401
0 0.5 -0.0811793 0.0148893
0 0.5 0.0811793 0.0133866
0.0124865 0.5 -0.0811793 0.0159933
0.0124865 0.5 0.0811793 0.0143297
0.075776 0.5 -0.0375 0.0208363
0.075776 0.5 0.0375 0.0198068
0.075776 0.5 -0.1125 0.0218494
0.075776 0.5 0.1125 0.0188151
0 0.5 -0.143821 0.0154617
0 0.5 0.143821 0.0128545
0.0124865 0.5 -0.143821 0.0165656
0.0124865 0.5 0.143821 0.0137976
0 0.5 -0.15 0.0155149
0 0.5 0.15 0.0128035
0.151149 0.5 -0.00137318 0.0188415
0 0.5 -0.156179 0.0155731
0 0.5 0.156179 0.0127544
0.0124865 0.5 -0.156179 0.0167411
0.0124865 0.5 0.156179 0.0136469
0.151149 0.5 0.075 0.0180552
0.151149 0.5 -0.075 0.0195377
0.075776 0.5 -0.1875 0.0228918
0.075776 0.5 0.1875 0.0179065
0.151149 0.5 0.15 0.0172774
0.151149 0.5 -0.15 0.0201457
0 0.5 -0.218821 0.0160662
0 0.5 0.218821 0.0122769
0.0124865 0.5 -0.218821 0.0172341
0.0124865 0.5 0.218821 0.0131694
0.219992 0.5 0.0375 0.0171992
0.219993 0.5 -0.0375 0.0177924
0 0.5 -0.225 0.0161056
0 0.5 0.225 0.0122324
0 0.5 -0.231179 0.0161507
0 0.5 0.231179 0.0121883
0.0124865 0.5 -0.231179 0.0173464
0.0124865 0.5 0.231179 0.0130352
0.219992 0.5 0.1125 0.016571
0.219993 0.5 -0.1125 0.0179173
0.151149 0.5 -0.225 0.0207171
0.151149 0.5 0.225 0.0165523
0.075776 0.5 -0.2625 0.0235867
0.075776 0.5 0.2625 0.017098
0.288069 0.5 -0.00137318 0.0143791
0.219992 0.5 0.1875 0.0159642
0.219993 0.5 -0.1875 0.0182246
0 0.5 0.293821 0.0117742
0 0.5 -0.293821 0.0164749
0.0124865 0.5 -0.293821 0.0176707
0.0124865 0.5 0.293821 0.0126211
0.288069 0.5 -0.075 0.0145733
0.288069 0.5 0.075 0.01407
0 0.5 -0.3 0.0164937
0 0.5 0.3 0.0117373
0 0.5 0.306179 0.0117
0 0.5 -0.306179 0.0165187
0.0124865 0.5 -0.306179 0.0176931
0.0124865 0.5 0.306179 0.0125087
0.288069 0.5 -0.15 0.0147262
0.288069 0.5 0.15 0.0137637
0.151149 0.5 -0.3 0.0210394
0.151149 0.5 0.3 0.0158955
0.219992 0.5 -0.2625 0.0185048
0.219992 0.5 0.2625 0.0153691
0.075776 0.5 0.3375 0.016413
0.075776 0.5 -0.3375 0.0237157
0.350249 0.5 -0.0375 0.0114606
0.350249 0.5 0.0375 0.0114079
0.288069 0.5 -0.225 0.0149302
0.288069 0.5 0.225 0.0134364
0.350249 0.5 0.1125 0.0114568
0.350249 0.5 -0.1125 0.0115363
0 0.5 0.368821 0.0113519
0 0.5 -0.368821 0.0167337
0.0124865 0.5 -0.368821 0.017908
0.0124865 0.5 0.368821 0.0121607
0 0.5 -0.375 0.0167509
0 0.5 0.375 0.0113212
0 0.5 -0.381179 0.016775
0 0.5 0.381179 0.0112905
0.0124865 0.5 -0.381179 0.0179729
0.0124865 0.5 0.381179 0.0120675
0.350249 0.5 -0.1875 0.0116481
0.350249 0.5 0.1875 0.0113787
0.219992 0.5 -0.3375 0.0187017
0.219992 0.5 0.3375 0.0148177
0.151149 0.5 -0.375 0.0213411
0.151149 0.5 0.375 0.015321
0.411736 0.5 -0.00137318 0.00984508
0.288069 0.5 -0.3 0.0151176
0.288069 0.5 0.3 0.0131294
0.411736 0.5 -0.075 0.00987453
0.411736 0.5 0.075 0.00983817
0.075776 0.5 -0.4125 0.024104
0.075776 0.5 0.4125 0.0158409
0.350249 0.5 -0.2625 0.0117764
0.350249 0.5 0.2625 0.0113147
0.411736 0.5 -0.15 0.00994769
0.411736 0.5 0.15 0.0098614
0 0.5 -0.443821 0.0168732
0 0.5 0.443821 0.0110067
0.0124865 0.5 -0.443821 0.0180711
0.0124865 0.5 0.443821 0.0117837
0 0.5 -0.45 0.0168675
0 0.5 0.45 0.0109819
0 0.5 -0.456179 0.016869
0 0.5 0.456179 0.0109573
0.0124865 0.5 -0.456179 0.0180759
0.0124865 0.5 0.456179 0.0117086
0.219992 0.5 -0.4125 0.0191895
0.219993 0.5 0.4125 0.0143203
0.411736 0.5 -0.225 0.0100496
0.411736 0.5 0.225 0.00986874
0.467897 0.5 0.0375 0.00832975
0.467897 0.5 -0.0375 0.00832795
0.288069 0.5 -0.375 0.0154124
0.288069 0.5 0.375 0.0128515
0.151149 0.5 -0.45 0.021567
0.151149 0.5 0.45 0.0148319
0.467897 0.5 -0.1125 0.00836546
0.467897 0.5 0.1125 0.00834681
0.350249 0.5 0.3375 0.0112637
0.350249 0.5 -0.3375 0.0119268
0.075776 0.5 -0.4875 0.024149
0.075776 0.5 0.4875 0.015384
0.467897 0.5 -0.1875 0.00843555
0.467897 0.5 0.1875 0.00844734
0.411736 0.5 -0.3 0.0101753
0.411736 0.5 0.3 0.00987667
0 0.5 -0.518821 0.0167742
0 0.5 0.518821 0.0107368
0.0124865 0.5 0.518821 0.011488
0.0124865 0.5 -0.518821 0.017981
0.523432 0.5 -0.00137318 0.00738493
0 0.5 -0.525 0.0167534
0 0.5 0.525 0.0107182
0.523432 0.5 -0.075 0.00739172
0.523432 0.5 0.075 0.00739436
0 0.5 -0.531179 0.016738
0 0.5 0.531179 0.0106994
0.0124865 0.5 -0.531179 0.0179169
0.0124865 0.5 0.531179 0.0114308
0.288069 0.5 -0.45 0.0156518
0.288069 0.5 0.45 0.0126061
0.219992 0.5 -0.4875 0.0191706
0.219993 0.5 0.4875 0.0138865
0.467897 0.5 -0.2625 0.00853522
0.467897 0.5 0.2625 0.00850905
0.350249 0.5 -0.4125 0.0122773
0.350249 0.5 0.4125 0.0112206
0.523432 0.5 -0.15 0.00744113
0.523432 0.5 0.15 0.00744839
0.151149 0.5 -0.525 0.0214367
0.151149 0.5 0.525 0.0144313
0.411736 0.5 -0.375 0.0103905
0.411736 0.5 0.375 0.00989922
0.075776 0.5 -0.5625 0.0237742
0.075776 0.5 0.5625 0.0150364
0.523432 0.5 -0.225 0.00752075
0.523432 0.5 0.225 0.00752622
0.574156 0.5 -0.0375 0.00647457
0.574156 0.5 0.0375 0.00648366
0.467897 0.5 0.3375 0.00858629
0.467897 0.5 -0.3375 0.00866128
0.574156 0.5 -0.1125 0.00650405
0.574156 0.5 0.1125 0.00652113
0 0.5 -0.593821 0.0165179
0 0.5 0.593821 0.0105391
0.0124865 0.5 -0.593821 0.0176968
0.0124865 0.5 0.593821 0.0112705
0.288069 0.5 -0.525 0.0156838
0.288069 0.5 0.525 0.0123974
0 0.5 -0.6 0.0164903
0 0.5 0.6 0.0105269
0.350249 0.5 -0.4875 0.0124149
0.350249 0.5 0.4875 0.0111856
0.523432 0.5 -0.3 0.00762729
0.523432 0.5 0.3 0.00761217
0.219992 0.5 -0.5625 0.0189924
0.219992 0.5 0.5625 0.0135214
0.574156 0.5 -0.1875 0.00656508
0.574156 0.5 0.1875 0.00658272
0 0.5 -0.606179 0.0164645
0 0.5 0.606179 0.0105137
0.0124865 0.5 -0.606179 0.0176101
0.0124865 0.5 0.606179 0.0112312
0.411736 0.5 -0.45 0.0106144
0.411736 0.5 0.45 0.00993437
0.151149 0.5 -0.6 0.0211281
0.151149 0.5 0.6 0.014119
0.62168 0.5 2.64545e-17 0.00590334
0.467897 0.5 0.4125 0.00868516
0.467897 0.5 -0.4125 0.00889926
0.624316 0.5 0.0729402 0.00588676
0.624316 0.5 -0.075 0.0058777
0.574156 0.5 -0.2625 0.00665333
0.574157 0.5 0.2625 0.00667057
0.075776 0.5 -0.6375 0.0232632
0.075776 0.5 0.6375 0.0147948
0.624316 0.5 -0.15 0.0059217
0.624316 0.5 0.15 0.00593479
0.523432 0.5 -0.375 0.00779236
0.523432 0.5 0.375 0.00771698
0.350249 0.5 -0.5625 0.012586
0.350249 0.5 0.5625 0.0111609
0.624316 0.5 -0.225 0.00599379
0.624316 0.5 0.225 0.00600691
0.288069 0.5 0.6 0.0122286
0.288069 0.5 -0.6 0.0156909
0.574156 0.5 -0.3375 0.00676618
0.574156 0.5 0.3375 0.00678575
0.411736 0.5 -0.525 0.0107908
0.411736 0.5 0.525 0.00998011
0 0.5 -0.668821 0.0161763
0 0.5 0.668821 0.0104135
0.0124865 0.5 -0.668821 0.017322
0.0124865 0.5 0.668821 0.0111311
0.67013 0.5 0.0375 0.00528526
0.67013 0.5 -0.0375 0.00528277
0.219993 0.5 -0.6375 0.0188028
0.219993 0.5 0.6375 0.0132283
0 0.5 -0.675 0.0161458
0 0.5 0.675 0.0104076
0.467897 0.5 0.4875 0.00879626
0.467897 0.5 -0.4875 0.00907103
0.67013 0.5 -0.1125 0.00531146
0.67013 0.5 0.1125 0.00531951
0 0.5 -0.681179 0.0161135
0 0.5 0.681179 0.0104008
0.0124865 0.5 -0.681179 0.0172243
0.0124865 0.5 0.681179 0.0111112
0.523432 0.5 -0.45 0.00798484
0.523432 0.5 0.45 0.00783782
0.151149 0.5 -0.675 0.0207623
0.151149 0.5 0.675 0.0138962
0.624316 0.5 -0.3 0.00609241
0.624316 0.5 0.3 0.00610372
0.67013 0.5 0.1875 0.00537846
0.67013 0.5 -0.1875 0.00536837
0.574156 0.5 -0.4125 0.00695144
0.574157 0.5 0.4125 0.0069119
0.708171 0.5 1.88651e-17 0.00493444
0.075776 0.5 -0.7125 0.0226834
0.075776 0.5 0.7125 0.0146645
0.715434 0.5 0.0736268 0.00489066
0.715434 0.5 -0.075 0.00488121
0.67013 0.5 0.2625 0.00545882
0.67013 0.5 -0.2625 0.00545078
0.350249 0.5 -0.6375 0.0127867
0.350249 0.5 0.6375 0.0111485
0.411736 0.5 -0.6 0.011005
0.411736 0.5 0.6 0.0100366
0.624316 0.5 -0.375 0.00623219
0.624316 0.5 0.375 0.00622038
0.715434 0.5 -0.15 0.00492352
0.715434 0.5 0.15 0.00492376
0.467897 0.5 -0.5625 0.0092938
0.467897 0.5 0.5625 0.00891889
0.288069 0.5 -0.675 0.0157052
0.288069 0.5 0.675 0.0121017
0.523432 0.5 -0.525 0.0081827
0.523432 0.5 0.525 0.00797373
0 0.5 -0.743821 0.0157999
0 0.5 0.743821 0.0103571
0.0124865 0.5 -0.743821 0.0169107
0.0124865 0.5 0.743821 0.0110675
0.219992 0.5 0.7125 0.0130069
0.219992 0.5 -0.7125 0.0185946
0.715434 0.5 -0.225 0.0049918
0.715434 0.5 0.225 0.00498944
0 0.5 -0.75 0.0157709
0 0.5 0.75 0.0103543
0.67013 0.5 0.3375 0.00556317
0.67013 0.5 -0.3375 0.00556192
0.574156 0.5 -0.4875 0.00712775
0.574156 0.5 0.4875 0.00705739
0 0.5 -0.756179 0.0157391
0 0.5 0.756179 0.0103526
0.0124865 0.5 -0.756179 0.0168196
0.0124865 0.5 0.756179 0.0110584
0.756813 0.5 -0.0375 0.0044701
0.756813 0.5 0.0375 0.00446732
0.151149 0.5 -0.75 0.0203792
0.151149 0.5 0.75 0.0137571
0.756813 0.5 -0.1125 0.00449901
0.756813 0.5 0.1125 0.00449292
0.624316 0.5 -0.45 0.00640264
0.624316 0.5 0.45 0.00635462
0.715434 0.5 -0.3 0.00508623
0.715434 0.5 0.3 0.0050771
0.756813 0.5 0.1875 0.00454357
0.756813 0.5 -0.1875 0.00455377
0.67013 0.5 -0.4125 0.00571276
0.67013 0.5 0.4125 0.00568452
0.411736 0.5 -0.675 0.0112522
0.411736 0.5 0.675 0.0101042
0.467897 0.5 0.6375 0.00905059
0.467897 0.5 -0.6375 0.00955247
0.075776 0.5 -0.7875 0.0221213
0.075776 0.5 0.7875 0.0146193
0.350249 0.5 -0.7125 0.0130143
0.350249 0.5 0.7125 0.0111513
0.523432 0.5 -0.6 0.00842224
0.523432 0.5 0.6 0.00812245
0.797732 0.5 2.68882e-17 0.00417336
0.756813 0.5 -0.2625 0.00463291
0.756814 0.5 0.2625 0.00461671
0.797732 0.5 0.0736268 0.00418588
0.797732 0.5 -0.075 0.00418947
0.288069 0.5 -0.75 0.0157281
0.288069 0.5 0.75 0.0120179
0.574156 0.5 -0.5625 0.00734832
0.574157 0.5 0.5625 0.00721975
0.715434 0.5 -0.375 0.00520894
0.715434 0.5 0.375 0.00518522
0.797732 0.5 -0.15 0.00423077
0.797732 0.5 0.15 0.00421765
0.624316 0.5 -0.525 0.00659647
0.624316 0.5 0.525 0.00650861
0.219992 0.5 -0.7875 0.0183865
0.219992 0.5 0.7875 0.0128543
0 0.5 -0.818821 0.0154304
0 0.5 0.818821 0.0103462
0.0124865 0.5 0.818821 0.011052
0.0124865 0.5 -0.818821 0.0165108
0 0.5 -0.825 0.015402
0 0.5 0.825 0.0103446
0.756813 0.5 0.3375 0.00470996
0.756814 0.5 -0.3375 0.00473814
0.67013 0.5 -0.4875 0.0058832
0.67013 0.5 0.4875 0.00582867
0.797732 0.5 -0.225 0.00429678
0.797732 0.5 0.225 0.00427544
0 0.5 -0.831179 0.0153724
0 0.5 0.831179 0.0103445
0.0124865 0.5 -0.831179 0.0164257
0.0124865 0.5 0.831179 0.0110435
0.835106 0.5 0.0375 0.003888
0.835106 0.5 -0.0375 0.00389271
0.151149 0.5 -0.825 0.0200127
0.151149 0.5 0.825 0.013674
0.835106 0.5 0.1125 0.00390838
0.835106 0.5 -0.1125 0.00392071
0.715434 0.5 -0.45 0.00536098
0.715434 0.5 0.45 0.00531192
0.797732 0.5 -0.3 0.00438544
0.797732 0.5 0.3 0.00435406
0.467897 0.5 0.7125 0.00919017
0.467897 0.5 -0.7125 0.00985049
0.523432 0.5 -0.675 0.00869932
0.523432 0.5 0.675 0.00828166
0.411736 0.5 -0.75 0.0115308
0.411736 0.5 0.75 0.0101845
0.835106 0.5 -0.1875 0.00397427
0.835106 0.5 0.1875 0.0039509
0.574156 0.5 -0.6375 0.00760463
0.574157 0.5 0.6375 0.00739557
0.350249 0.5 -0.7875 0.0132657
0.350249 0.5 0.7875 0.0111743
0.756813 0.5 -0.4125 0.00486256
0.756814 0.5 0.4125 0.00482394
0.075776 0.5 -0.8625 0.0215905
0.075776 0.5 0.8625 0.0145939
0.624316 0.5 0.6 0.00667945
0.624316 0.5 -0.6 0.0068285
0.872064 0.5 5.91974e-17 0.00365908
0.870122 0.5 0.075 0.00368004
0.288069 0.5 -0.825 0.0157677
0.288069 0.5 0.825 0.0119709
0.67013 0.5 -0.5625 0.0060917
0.67013 0.5 0.5625 0.00599264
0.872064 0.5 -0.075 0.00367608
0.835106 0.5 -0.2625 0.00405091
0.835106 0.5 0.2625 0.00401611
0.797732 0.5 -0.375 0.00449211
0.797732 0.5 0.375 0.0044528
0.872064 0.5 0.14794 0.00369358
0.872064 0.5 -0.15 0.00371716
0.715434 0.5 -0.525 0.00554486
0.715434 0.5 0.525 0.00545907
0.219992 0.5 0.8625 0.0127502
0.219993 0.5 -0.8625 0.0181979
0 0.5 -0.893821 0.0150872
0 0.5 0.893821 0.0103736
0.0124865 0.5 -0.893821 0.0161405
0.0124865 0.5 0.893821 0.0110727
0 0.5 -0.9 0.0150614
0 0.5 0.9 0.0103795
0.756813 0.5 -0.4875 0.00502584
0.756813 0.5 0.4875 0.0049518
0.872064 0.5 -0.225 0.00378179
0.872064 0.5 0.225 0.00374312
0.835106 0.5 -0.3375 0.00414484
0.835106 0.5 0.3375 0.00409939
0 0.5 0.906179 0.0103856
0 0.5 -0.906179 0.015035
0.0124865 0.5 -0.906179 0.0160653
0.0124865 0.5 0.906179 0.0110854
0.90582 0.5 -0.0375 0.00343989
0.90582 0.5 0.0375 0.00343306
0.151149 0.5 -0.9 0.0196841
0.151149 0.5 0.9 0.0136411
0.90582 0.5 -0.1125 0.00346828
0.905821 0.5 0.1125 0.00344885
0.523432 0.5 -0.75 0.00901406
0.523432 0.5 0.75 0.00845035
0.574156 0.5 -0.7125 0.00790012
0.574156 0.5 0.7125 0.00758274
0.797732 0.5 -0.45 0.00462861
0.797732 0.5 0.45 0.00456734
0.467897 0.5 0.7875 0.00933808
0.467897 0.5 -0.7875 0.0101837
0.624316 0.5 -0.675 0.00709711
0.624316 0.5 0.675 0.00686419
0.411736 0.5 -0.825 0.0118385
0.411736 0.5 0.825 0.0102767
0.872064 0.5 0.3 0.00381295
0.872064 0.5 -0.3 0.00386226
0.67013 0.5 -0.6375 0.00633507
0.67013 0.5 0.6375 0.00617367
0.90582 0.5 0.1875 0.0034839
0.905821 0.5 -0.1875 0.00352264
0.350249 0.5 -0.8625 0.0135394
0.350249 0.5 0.8625 0.0112093
0.835106 0.5 -0.4125 0.00424863
0.835106 0.5 0.4125 0.00420425
0.715434 0.5 -0.6 0.0057629
0.715434 0.5 0.6 0.00562694
0.939201 0.5 2.75387e-17 0.00332947
0.075776 0.5 0.9375 0.0146582
0.075776 0.5 -0.9375 0.0211283
0.939111 0.5 0.075 0.0033364
0.939201 0.5 -0.075 0.00334548
0.756813 0.5 0.5625 0.00510509
0.756814 0.5 -0.5625 0.00521965
0.90582 0.5 0.2625 0.00353964
0.905821 0.5 -0.2625 0.00359661
0.288069 0.5 -0.9 0.0158313
0.288069 0.5 0.9 0.0119566
0.872064 0.5 -0.375 0.00395349
0.872064 0.5 0.375 0.00390175
0.939201 0.5 0.148627 0.00336225
0.939201 0.5 -0.15 0.00338502
0.797732 0.5 -0.525 0.00480127
0.797732 0.5 0.525 0.00470102
0.219992 0.5 0.9375 0.01269
0.219992 0.5 -0.9375 0.0180426
0.939201 0.5 -0.225 0.00344751
0.939201 0.5 0.225 0.00340623
0.905821 0.5 -0.3375 0.00367429
0.90582 0.5 0.3375 0.00361508
0.835106 0.5 -0.4875 0.00440377
0.835106 0.5 0.4875 0.00431626
0 0.5 0.968821 0.0104765
0 0.5 -0.968821 0.0147909
0.0124865 0.5 -0.968821 0.0158212
0.0124865 0.5 0.968821 0.0111763
0.969689 0.5 -0.0375 0.00322807
0.969689 0.5 0.0375 0.00322382
0.574156 0.5 -0.7875 0.0082325
0.574156 0.5 0.7875 0.00778005
0 0.5 -0.975 0.01477
0 0.5 0.975 0.0104888
0.624316 0.5 -0.75 0.00740288
0.624316 0.5 0.75 0.00706084
0.969689 0.5 -0.1125 0.00325275
0.96969 0.5 0.1125 0.0032411
0.523432 0.5 -0.825 0.00936442
0.523432 0.5 0.825 0.00862712
0.67013 0.5 0.7125 0.0063683
0.67013 0.5 -0.7125 0.00661512
0 0.5 -0.981179 0.0147474
0 0.5 0.981179 0.010501
0.467897 0.5 0.8625 0.00949327
0.467897 0.5 -0.8625 0.0105507
0.0124865 0.5 -0.981179 0.0157598
0.0124865 0.5 0.981179 0.0112073
0.872064 0.5 -0.45 0.00407652
0.872064 0.5 0.45 0.00400761
0.715434 0.5 -0.675 0.00601573
0.715434 0.5 0.675 0.00581185
0.939201 0.5 -0.3 0.00352059
0.939201 0.5 0.3 0.00347081
0.151149 0.5 0.975 0.0136979
0.151149 0.5 -0.975 0.0194124
0.969689 0.5 -0.1875 0.00330358
0.969689 0.5 0.1875 0.00327715
0.756813 0.5 -0.6375 0.00544686
0.756813 0.5 0.6375 0.00527871
0.411736 0.5 -0.9 0.0121734
0.411736 0.5 0.9 0.0103848
0.90582 0.5 -0.4125 0.00376441
0.90582 0.5 0.4125 0.0037071
0.995005 0.5 0.0749309 0.00308953
0.797732 0.5 -0.6 0.00500507
0.797732 0.5 0.6 0.00485833
1.00005 0.5 -8.47123e-18 0.00305028
0.350249 0.5 -0.9375 0.0138345
0.350249 0.5 0.9375 0.0112723
1.00005 0.5 -0.0749309 0.00306291
0.969689 0.5 -0.2625 0.00337451
0.969689 0.5 0.2625 0.00333114
0.835106 0.5 -0.5625 0.00458265
0.835106 0.5 0.5625 0.0044584
1.00005 0.5 -0.149862 0.00309804
0.939201 0.5 -0.375 0.00360446
0.939201 0.5 0.375 0.00355288
1.00029 0.5 0.148988 0.00308738
0.075776 0.5 -1.0125 0.0207549
0.075776 0.5 1.0125 0.0148541
0.288069 0.5 0.975 0.0119689
0.288069 0.5 -0.975 0.015923
0.872064 0.5 -0.525 0.00423844
0.872064 0.5 0.525 0.00412848
1.00005 0.5 0.224793 0.00312723
1.00005 0.5 -0.224793 0.00315561
0.969689 0.5 0.3375 0.00340435
0.96969 0.5 -0.3375 0.0034444
1.0271 0.5 -0.0368226 0.00286798
1.0271 0.5 0.0368226 0.00286599
0.90582 0.5 0.4875 0.00382183
0.905821 0.5 -0.4875 0.00390793
1.0271 0.5 -0.110468 0.0028881
1.0271 0.5 0.110468 0.00286851
0.67013 0.5 0.7875 0.00657533
0.67013 0.5 -0.7875 0.00693117
0.624316 0.5 0.825 0.00726764
0.624316 0.5 -0.825 0.00774513
0.219993 0.5 -1.0125 0.0179271
0.219993 0.5 1.0125 0.0127268
0.574156 0.5 -0.8625 0.00860141
0.574156 0.5 0.8625 0.00798394
0.715434 0.5 -0.75 0.0063049
0.715434 0.5 0.75 0.00601072
0.756813 0.5 0.7125 0.00546934
0.756814 0.5 -0.7125 0.00570837
0.523432 0.5 -0.9 0.00974908
0.523432 0.5 0.9 0.00881372
0.939201 0.5 -0.45 0.00372556
0.939201 0.5 0.45 0.00365288
1.04168 0.5 0 0.0027852
1.0271 0.5 -0.184113 0.00293118
1.0271 0.5 0.184113 0.00291389
0 0.5 -1.04382 0.014551
0 0.5 1.04382 0.0106412
0.0124865 0.5 -1.04382 0.0155634
0.0124865 0.5 1.04382 0.0113475
1.00005 0.5 -0.299723 0.00322559
1.00005 0.5 0.299723 0.00318907
1.04168 0.5 -0.0729162 0.00279583
1.04168 0.5 0.0729162 0.00279016
0.797732 0.5 -0.675 0.0052431
0.797732 0.5 0.675 0.0050329
0.467897 0.5 0.9375 0.00966559
0.467897 0.5 -0.9375 0.0109489
0 0.5 -1.05 0.0145363
0 0.5 1.05 0.0106558
0.835106 0.5 -0.6375 0.00479853
0.835106 0.5 0.6375 0.00461909
1.04168 0.5 -0.145832 0.00282534
1.04168 0.5 0.145832 0.00281062
0.969689 0.5 -0.4125 0.00354219
0.96969 0.5 0.4125 0.00349205
0 0.5 -1.05618 0.0145178
0 0.5 1.05618 0.0106707
0.0124865 0.5 -1.05618 0.0155182
0.0124865 0.5 1.05618 0.0113849
1.05695 0.5 -0.0360764 0.00270456
1.05695 0.5 0.0360764 0.00270118
0.411736 0.5 -0.975 0.0125336
0.411736 0.5 0.975 0.0104904
0.872064 0.5 -0.6 0.00443093
0.872064 0.5 0.6 0.00426886
1.0271 0.5 -0.257759 0.00299261
1.0271 0.5 0.257759 0.00296244
0.151149 0.5 -1.05 0.0192064
0.151149 0.5 1.05 0.0138464
1.05695 0.5 0.108229 0.00269389
1.05695 0.5 -0.108229 0.00272239
1.04168 0.5 -0.218749 0.00287396
1.04168 0.5 0.218749 0.00284622
0.90582 0.5 -0.5625 0.00407846
0.905821 0.5 0.5625 0.00393691
1.00005 0.5 -0.374654 0.00331219
1.00005 0.5 0.374654 0.00326814
0.350249 0.5 1.0125 0.0112788
0.350249 0.5 -1.0125 0.0141484
1.05695 0.5 -0.180382 0.00275972
1.05695 0.5 0.180382 0.00273507
1.07319 0.5 0.0709442 0.00263759
0.939201 0.5 -0.525 0.00388991
0.939201 0.5 0.525 0.00376418
1.0271 0.5 -0.331404 0.00306666
1.0271 0.5 0.331404 0.00302845
1.08112 0.5 3.23815e-17 0.00260621
1.04168 0.5 -0.291665 0.00293731
1.04168 0.5 0.291665 0.00289706
1.08112 0.5 -0.0709442 0.00261525
0.969689 0.5 -0.4875 0.00369484
0.96969 0.5 0.4875 0.00359785
1.05695 0.5 0.252535 0.00277237
1.05695 0.5 -0.252535 0.00281175
0.288069 0.5 -1.05 0.0160444
0.288069 0.5 1.05 0.0120317
0.075776 0.5 -1.0875 0.0204735
0.075776 0.5 1.0875 0.0150846
1.08112 0.5 -0.141888 0.00264153
1.08145 0.5 0.140165 0.00263009
0.715434 0.5 0.825 0.00622141
0.715434 0.5 -0.825 0.00663093
0.756813 0.5 0.7875 0.00567271
0.756814 0.5 -0.7875 0.00600828
0.67013 0.5 -0.8625 0.00728368
0.67013 0.5 0.8625 0.00679367
0.797732 0.5 -0.75 0.00551562
0.797732 0.5 0.75 0.00522146
0.624316 0.5 -0.9 0.00812353
0.624316 0.5 0.9 0.00748311
1.00005 0.5 -0.449585 0.00343573
1.00005 0.5 0.449585 0.00336427
0.835106 0.5 -0.7125 0.00504658
0.835106 0.5 0.7125 0.00479308
0.574156 0.5 -0.9375 0.00900578
0.574157 0.5 0.9375 0.0081964
1.10076 0.5 -0.0349809 0.00253711
1.10076 0.5 0.0349809 0.00253645
1.08112 0.5 -0.212832 0.00268479
1.08112 0.5 0.212832 0.00265649
0.872064 0.5 -0.675 0.00465668
0.872064 0.5 0.675 0.00443155
1.04168 0.5 -0.364581 0.00301816
1.04168 0.5 0.364581 0.00296392
1.0271 0.5 0.405049 0.00311103
1.0271 0.5 -0.405049 0.00316589
1.05695 0.5 -0.324688 0.00287812
1.05695 0.5 0.324688 0.00282415
1.10076 0.5 -0.104943 0.00255162
1.10076 0.5 0.104943 0.00254729
0.523432 0.5 0.975 0.00901058
0.523432 0.5 -0.975 0.0101663
0.90582 0.5 0.6375 0.00408133
0.905821 0.5 -0.6375 0.00428349
0.219992 0.5 1.0875 0.012866
0.219992 0.5 -1.0875 0.0178568
1.11376 0.5 3.81639e-17 0.00249189
0.939201 0.5 0.6 0.00390689
0.939201 0.5 -0.6 0.0040834
1.10076 0.5 -0.174905 0.00258843
1.10076 0.5 0.174905 0.00257176
0.467897 0.5 -1.0125 0.011376
0.467897 0.5 1.0125 0.00983737
1.11376 0.5 -0.0693118 0.00249875
1.11376 0.5 0.0693118 0.0024974
1.08112 0.5 0.283777 0.00269936
1.08112 0.5 -0.283777 0.00273974
0 0.5 -1.11882 0.0143736
0 0.5 1.11882 0.0108498
0.0124865 0.5 -1.11882 0.0153741
0.0124865 0.5 1.11882 0.0115639
0.969689 0.5 -0.5625 0.00388503
0.969689 0.5 0.5625 0.00370767
1.11376 0.5 0.138624 0.00251712
1.11376 0.5 -0.138624 0.00252389
0 0.5 -1.125 0.0143661
0 0.5 1.125 0.0108697
1.10076 0.5 0.244866 0.00260887
1.10076 0.5 -0.244866 0.00263795
0.411736 0.5 -1.05 0.0129168
0.411736 0.5 1.05 0.0105722
1.05695 0.5 -0.396841 0.00296466
1.05695 0.5 0.396841 0.00289123
1.00005 0.5 -0.524516 0.00359861
1.00005 0.5 0.524516 0.00347472
1.04168 0.5 -0.437497 0.00312683
1.04168 0.5 0.437497 0.00304709
0 0.5 -1.13118 0.0143526
0 0.5 1.13118 0.0108899
0.0124865 0.5 -1.13118 0.0153485
0.0124865 0.5 1.13118 0.0116168
1.11376 0.5 -0.207935 0.00256677
1.11376 0.5 0.207935 0.00254567
1.0271 0.5 -0.478694 0.00330025
1.0271 0.5 0.478694 0.00321152
0.151149 0.5 -1.125 0.0190721
0.151149 0.5 1.125 0.0140725
1.08112 0.5 -0.354722 0.00280996
1.08112 0.5 0.354722 0.00275632
1.13882 0.5 -0.0340295 0.00240228
1.13882 0.5 0.0340295 0.0024032
0.350249 0.5 -1.0875 0.0144794
0.350249 0.5 1.0875 0.0113502
1.13882 0.5 -0.102088 0.00241487
1.13882 0.5 0.102088 0.00241033
1.10076 0.5 -0.314829 0.00269337
1.10076 0.5 0.314829 0.00265898
0.756813 0.5 -0.8625 0.00634471
0.756814 0.5 0.8625 0.00588692
0.797732 0.5 -0.825 0.0058247
0.797732 0.5 0.825 0.00542512
1.11376 0.5 -0.277247 0.00261774
1.11376 0.5 0.277247 0.00258875
0.835106 0.5 0.7875 0.00498005
0.835106 0.5 -0.7875 0.00532786
0.715434 0.5 -0.9 0.00699309
0.715434 0.5 0.9 0.0064413
0.872064 0.5 -0.75 0.0049159
0.872064 0.5 0.75 0.00461349
1.13882 0.5 0.170147 0.00243871
1.13882 0.5 -0.170147 0.00245043
0.67013 0.5 -0.9375 0.00767236
0.67013 0.5 0.9375 0.00702011
0.905821 0.5 -0.7125 0.004518
0.905821 0.5 0.7125 0.00425331
1.05695 0.5 0.468994 0.00297408
1.05695 0.5 -0.468994 0.0030803
0.939201 0.5 -0.675 0.00430058
0.939201 0.5 0.675 0.00406799
0.624316 0.5 0.975 0.00770963
0.624316 0.5 -0.975 0.00853731
1.04168 0.5 -0.510414 0.00326383
1.04168 0.5 0.510414 0.00314762
0.969689 0.5 -0.6375 0.00409285
0.96969 0.5 0.6375 0.00390831
0.288069 0.5 -1.125 0.0161966
0.288069 0.5 1.125 0.0121797
1.16179 0.5 5.78241e-19 0.0023163
1.08112 0.5 0.425666 0.0028279
1.08112 0.5 -0.425666 0.00290435
1.13882 0.5 -0.238206 0.00249809
1.13882 0.5 0.238206 0.00247454
1.16179 0.5 0.0669104 0.00231036
1.16179 0.5 -0.0669104 0.00232077
0.574156 0.5 -1.0125 0.0094445
0.574156 0.5 1.0125 0.00842448
0.075776 0.5 -1.1625 0.0202995
0.075776 0.5 1.1625 0.0154089
1.00005 0.5 -0.599447 0.0037771
1.00005 0.5 0.599447 0.00361905
1.10076 0.5 0.384791 0.00272336
1.10076 0.5 -0.384791 0.00276963
1.0271 0.5 -0.55234 0.00345983
1.0271 0.5 0.55234 0.00332843
1.11376 0.5 -0.346559 0.00268079
1.11376 0.5 0.346559 0.00264517
1.16179 0.5 -0.133821 0.0023433
1.16179 0.5 0.133821 0.00233796
0.523432 0.5 -1.05 0.0106142
0.523432 0.5 1.05 0.00917058
1.17463 0.5 -0.0331343 0.00226917
1.17463 0.5 0.0331343 0.00227108
1.17463 0.5 -0.0994029 0.00227882
1.17463 0.5 0.0994029 0.00228199
1.16179 0.5 -0.200731 0.00238379
1.16179 0.5 0.200731 0.00236762
1.13882 0.5 -0.306265 0.00254713
1.13882 0.5 0.306265 0.00252247
0.219992 0.5 -1.1625 0.0178327
0.219992 0.5 1.1625 0.0130829
0.467897 0.5 -1.0875 0.0118297
0.467897 0.5 1.0875 0.0099098
1.17463 0.5 0.165672 0.00230398
1.17463 0.5 -0.165672 0.00231227
1.05695 0.5 -0.541147 0.00321491
1.05695 0.5 0.541147 0.00307554
1.18772 0.5 -5.78241e-19 0.00222512
1.11376 0.5 -0.41587 0.00276799
1.11376 0.5 0.41587 0.00271522
1.18772 0.5 -0.065614 0.00222846
1.18772 0.5 0.065614 0.00223228
1.08112 0.5 -0.49661 0.00302303
1.08112 0.5 0.49661 0.00291618
1.10076 0.5 -0.454752 0.00287426
1.10076 0.5 0.454752 0.00280149
1.18534 0.5 0.118202 0.00224759
1.16179 0.5 -0.267642 0.00242879
1.16179 0.5 0.267642 0.00240679
0 0.5 -1.19382 0.0142676
0 0.5 1.19382 0.0111236
0.0124865 0.5 1.19382 0.0118505
0.0124865 0.5 -1.19382 0.0152635
1.04168 0.5 -0.58333 0.00340565
1.04168 0.5 0.58333 0.00326609
1.18772 0.5 -0.131228 0.00224898
1.17463 0.5 -0.23194 0.00235786
1.17463 0.5 0.23194 0.00233634
0.411736 0.5 -1.125 0.0133219
0.411736 0.5 1.125 0.0106973
1.13882 0.5 -0.374324 0.00261471
1.13882 0.5 0.374324 0.00258369
0 0.5 -1.2 0.0142642
0 0.5 1.2 0.011149
0.905821 0.5 0.7875 0.00444803
0.905821 0.5 -0.7875 0.00479141
0.872064 0.5 -0.825 0.00520984
0.872064 0.5 0.825 0.00480591
0.835106 0.5 0.8625 0.00519055
0.835106 0.5 -0.8625 0.00564733
0.939201 0.5 -0.75 0.00453482
0.939201 0.5 0.75 0.00422752
0.797732 0.5 -0.9 0.00617278
0.797732 0.5 0.9 0.00564045
1.0271 0.5 0.625985 0.0034699
1.0271 0.5 -0.625985 0.00361493
0.969689 0.5 0.7125 0.00403548
0.96969 0.5 -0.7125 0.00431436
1.18772 0.5 -0.196842 0.00228723
1.18772 0.5 0.196842 0.00227387
0.756814 0.5 -0.9375 0.0067165
0.756814 0.5 0.9375 0.00610773
0 0.5 1.20618 0.0111747
0 0.5 -1.20618 0.01426
1.00005 0.5 -0.674378 0.00398003
1.00005 0.5 0.674378 0.00377643
0.0124865 0.5 1.20618 0.011919
0.0124865 0.5 -1.20618 0.0152602
1.16179 0.5 -0.334552 0.00248107
1.16179 0.5 0.334552 0.00245792
0.715434 0.5 0.975 0.00667174
0.715434 0.5 -0.975 0.00739256
0.151149 0.5 -1.2 0.0190167
0.151149 0.5 1.2 0.0143778
1.20942 0.5 0.0322645 0.0021482
1.20942 0.5 -0.0322645 0.00214687
1.17463 0.5 -0.298209 0.00239921
1.17463 0.5 0.298209 0.0023795
1.20942 0.5 -0.0967935 0.00215449
1.20942 0.5 0.0967935 0.00215989
0.350249 0.5 -1.1625 0.0148266
0.350249 0.5 1.1625 0.0115185
0.67013 0.5 1.0125 0.00725858
0.67013 0.5 -1.0125 0.00809652
1.11376 0.5 0.485183 0.00280095
1.11376 0.5 -0.485183 0.00288004
1.18772 0.5 0.262456 0.00231029
1.18772 0.5 -0.262456 0.00232885
1.10076 0.5 -0.524714 0.00300082
1.10076 0.5 0.524714 0.00289831
1.20942 0.5 -0.161322 0.00218454
1.20942 0.5 0.161322 0.00218011
1.08112 0.5 -0.567554 0.0031427
1.08112 0.5 0.567554 0.00301974
0.624316 0.5 -1.05 0.00898789
0.624316 0.5 1.05 0.00792255
1.13882 0.5 -0.442383 0.00270885
1.13882 0.5 0.442383 0.00265756
1.05695 0.5 0.6133 0.00319166
1.05695 0.5 -0.6133 0.00333764
1.16179 0.5 -0.401463 0.00255498
1.16179 0.5 0.401463 0.00252125
0.574156 0.5 -1.0875 0.00991596
0.574156 0.5 1.0875 0.00858782
1.17463 0.5 0.364477 0.00243497
1.17463 0.5 -0.364477 0.00245673
1.20942 0.5 -0.225851 0.00222656
1.20942 0.5 0.225851 0.0022095
1.23036 0.5 -1.32995e-17 0.00207684
1.2294 0.5 0.0634819 0.00208711
1.04168 0.5 -0.656246 0.00357299
1.04168 0.5 0.656246 0.00340569
1.23036 0.5 -0.0634819 0.00207861
1.18772 0.5 0.32807 0.00235787
1.18772 0.5 -0.32807 0.00237546
0.288069 0.5 -1.2 0.0163804
0.288069 0.5 1.2 0.0123989
1.23036 0.5 -0.126964 0.00209637
1.23036 0.5 0.126964 0.00209921
0.075776 0.5 -1.2375 0.0202491
0.075776 0.5 1.2375 0.0158285
0.523432 0.5 -1.125 0.0110943
0.523432 0.5 1.125 0.00933056
1.0271 0.5 -0.69963 0.00382699
1.0271 0.5 0.69963 0.00361994
1.24274 0.5 0.0314313 0.00203808
1.24274 0.5 -0.0314313 0.00203473
1.20942 0.5 0.29038 0.00224856
1.20942 0.5 -0.29038 0.00226184
1.11376 0.5 -0.554494 0.00299363
1.11376 0.5 0.554494 0.00290096
1.23036 0.5 -0.190445 0.00213105
1.23036 0.5 0.190445 0.00212332
1.24274 0.5 -0.0942942 0.00204057
1.24274 0.5 0.0942942 0.00204926
1.13882 0.5 0.510442 0.00274793
1.13882 0.5 -0.510442 0.00282267
0.969689 0.5 -0.7875 0.00452321
0.969689 0.5 0.7875 0.0041813
1.00005 0.5 -0.749309 0.00420859
1.00005 0.5 0.749309 0.00391991
0.939201 0.5 -0.825 0.00479555
0.939201 0.5 0.825 0.00440993
0.90582 0.5 0.8625 0.00462595
0.90582 0.5 -0.8625 0.00509347
1.17463 0.5 -0.430746 0.00253948
1.17463 0.5 0.430746 0.00250177
1.10076 0.5 -0.594676 0.00310751
1.10076 0.5 0.594676 0.00300579
1.18772 0.5 -0.393684 0.00244199
1.18772 0.5 0.393684 0.00241701
1.24274 0.5 -0.157157 0.00206838
1.24274 0.5 0.157157 0.00206947
1.16179 0.5 -0.468373 0.00265175
1.16179 0.5 0.468373 0.00259831
0.467897 0.5 -1.1625 0.0123101
0.467897 0.5 1.1625 0.0100971
0.872064 0.5 -0.9 0.00553585
0.872064 0.5 0.9 0.00500722
1.25401 0.5 2.08167e-17 0.00200392
0.835106 0.5 0.9375 0.00540654
0.835106 0.5 -0.9375 0.00601241
1.25401 0.5 -0.0622994 0.00200502
1.25401 0.5 0.0622994 0.00201062
1.08112 0.5 -0.638498 0.00328559
1.08112 0.5 0.638498 0.00314446
1.23036 0.5 -0.253927 0.00216733
1.23036 0.5 0.253927 0.00215585
0.219992 0.5 1.2375 0.0133517
0.219992 0.5 -1.2375 0.0178532
1.25309 0.5 0.121964 0.00202578
1.05695 0.5 0.685452 0.00333472
1.05695 0.5 -0.685452 0.00352209
0.797732 0.5 0.975 0.00586862
0.797732 0.5 -0.975 0.00655957
1.25401 0.5 -0.124599 0.00202119
1.20942 0.5 -0.354909 0.00231082
1.20942 0.5 0.354909 0.00229891
1.24274 0.5 -0.220019 0.00210801
1.24274 0.5 0.220019 0.0020971
0.756814 0.5 -1.0125 0.00713039
0.756813 0.5 1.0125 0.00634394
1.25401 0.5 -0.186898 0.00205374
1.25401 0.5 0.186898 0.00204875
0.411736 0.5 -1.2 0.0137547
0.411736 0.5 1.2 0.0109005
0 0.5 -1.26882 0.0142193
0 0.5 1.26882 0.0114629
0.0124865 0.5 1.26882 0.0122073
0.0124865 0.5 -1.26882 0.0152195
0.715434 0.5 -1.05 0.00783324
0.715434 0.5 1.05 0.00690569
1.23036 0.5 -0.31741 0.00220583
1.23036 0.5 0.31741 0.00219802
1.04168 0.5 -0.729162 0.00378838
1.04168 0.5 0.729162 0.00354412
1.18772 0.5 -0.459298 0.00253004
1.18772 0.5 0.459298 0.00248888
1.24274 0.5 -0.282882 0.00213876
1.24274 0.5 0.282882 0.00213304
0 0.5 -1.275 0.0142107
0 0.5 1.275 0.0114935
1.27472 0.5 -0.0306319 0.00193227
1.27472 0.5 0.0306319 0.00193548
1.17463 0.5 0.497015 0.00258383
1.17463 0.5 -0.497015 0.00264143
1.11376 0.5 -0.623806 0.00312818
1.11376 0.5 0.623806 0.00301739
1.13882 0.5 -0.578501 0.00292551
1.13882 0.5 0.578501 0.00284871
0.67013 0.5 -1.0875 0.00856494
0.67013 0.5 1.0875 0.00747852
1.27472 0.5 -0.0918959 0.00193721
1.27472 0.5 0.0918959 0.00195847
1.25401 0.5 -0.249197 0.0020873
1.25401 0.5 0.249197 0.00207967
1.16179 0.5 -0.535284 0.00275207
1.16179 0.5 0.535284 0.00268931
1.20942 0.5 -0.419438 0.00238313
1.20942 0.5 0.419438 0.00236013
0 0.5 -1.28118 0.0142096
0 0.5 1.28118 0.0115245
0.0124865 0.5 1.28118 0.0122912
0.0124865 0.5 -1.28118 0.0152072
1.27472 0.5 0.15316 0.00196338
1.27472 0.5 -0.15316 0.00196149
0.151149 0.5 -1.275 0.0190155