# pMean  POINT_DATA 63140
# x  y  z  pMean
0 0.1 0 0.170396
0 0.1 -0.0179898 0.171009
0 0.1 0.0179898 0.169784
0.0363518 0.1 0.0179898 0.169784
0.0363518 0.1 -0.0179898 0.171009
0 0.1 -0.0570102 0.172234
0 0.1 0.0570102 0.168328
0.0363518 0.1 0.0570102 0.168328
0.0363518 0.1 -0.0570102 0.172234
0 0.1 -0.075 0.172745
0 0.1 0.075 0.167601
0.075776 0.1 -0.0375 0.171678
0.075776 0.1 0.0375 0.16912
0 0.1 -0.0929898 0.173256
0 0.1 0.0929898 0.166874
0.0363518 0.1 -0.0929898 0.173256
0.0363518 0.1 0.0929898 0.166874
0 0.1 -0.13201 0.174259
0 0.1 0.13201 0.165187
0.075776 0.1 -0.1125 0.173817
0.075776 0.1 0.1125 0.166087
0.0363518 0.1 -0.13201 0.174259
0.0363518 0.1 0.13201 0.165187
0 0.1 -0.15 0.174671
0 0.1 0.15 0.16436
0.150379 0.1 -2.22623e-17 0.164438
0 0.1 -0.16799 0.175079
0 0.1 0.16799 0.163534
0.150379 0.1 -0.075 0.166941
0.150379 0.1 0.075 0.161465
0.0363518 0.1 -0.16799 0.175079
0.0363518 0.1 0.16799 0.163534
0.075776 0.1 -0.1875 0.175527
0.075776 0.1 0.1875 0.162639
0 0.1 -0.20701 0.175839
0 0.1 0.20701 0.161631
0.0363518 0.1 -0.20701 0.175839
0.0363518 0.1 0.20701 0.161631
0.150379 0.1 -0.15 0.168981
0.150379 0.1 0.15 0.158034
0.219993 0.1 -0.0375 0.1602
0.219993 0.1 0.0375 0.157306
0 0.1 -0.225 0.176131
0 0.1 0.225 0.160704
0 0.1 -0.24299 0.176419
0 0.1 0.24299 0.159777
0.0363518 0.1 0.24299 0.159777
0.0363518 0.1 -0.24299 0.176419
0.219993 0.1 -0.1125 0.162606
0.219993 0.1 0.1125 0.153914
0.150379 0.1 -0.225 0.170503
0.150379 0.1 0.225 0.154182
0.075776 0.1 -0.2625 0.176738
0.075776 0.1 0.2625 0.158774
0 0.1 -0.28201 0.17698
0 0.1 0.28201 0.15767
0.0363518 0.1 -0.28201 0.17698
0.0363518 0.1 0.28201 0.15767
0.287374 0.1 -2.89121e-19 0.161597
0.219992 0.1 0.1875 0.150078
0.219992 0.1 -0.1875 0.1645
0.287374 0.1 -0.075 0.164275
0.287374 0.1 0.075 0.158413
0 0.1 -0.3 0.177205
0 0.1 0.3 0.156655
0 0.1 0.31799 0.15564
0 0.1 -0.31799 0.17743
0.0363518 0.1 -0.31799 0.17743
0.0363518 0.1 0.31799 0.15564
0.287374 0.1 0.15 0.154758
0.287374 0.1 -0.15 0.166426
0.150379 0.1 -0.3 0.171534
0.150379 0.1 0.3 0.149943
0.219993 0.1 0.2625 0.145837
0.219993 0.1 -0.2625 0.16577
0.075776 0.1 -0.3375 0.177678
0.075776 0.1 0.3375 0.154542
0.350249 0.1 -0.0375 0.165811
0.350249 0.1 0.0375 0.162826
0 0.1 -0.35701 0.177811
0 0.1 0.35701 0.153353
0.0363518 0.1 -0.35701 0.177811
0.0363518 0.1 0.35701 0.153353
0.287374 0.1 -0.225 0.168014
0.287374 0.1 0.225 0.150657
0.350249 0.1 -0.1125 0.168237
0.350249 0.1 0.1125 0.159365
0 0.1 -0.375 0.177937
0 0.1 0.375 0.15226
0 0.1 -0.39299 0.178065
0 0.1 0.39299 0.151168
0.0363518 0.1 -0.39299 0.178065
0.0363518 0.1 0.39299 0.151168
0.350249 0.1 -0.1875 0.170114
0.350249 0.1 0.1875 0.155435
0.219992 0.1 -0.3375 0.166477
0.219992 0.1 0.3375 0.141239
0.150379 0.1 0.375 0.145361
0.150379 0.1 -0.375 0.172113
0.411108 0.1 4.33681e-19 0.168202
0.287374 0.1 -0.3 0.169033
0.287374 0.1 0.3 0.146158
0.411108 0.1 -0.075 0.171027
0.411108 0.1 0.075 0.164801
0.075776 0.1 -0.4125 0.178205
0.075776 0.1 0.4125 0.149985
0 0.1 0.43201 0.148721
0 0.1 -0.43201 0.178213
0.0363518 0.1 0.43201 0.148721
0.0363518 0.1 -0.43201 0.178213
0.411108 0.1 -0.15 0.173246
0.411108 0.1 0.15 0.160864
0.350249 0.1 -0.2625 0.171424
0.350249 0.1 0.2625 0.151046
0 0.1 -0.45 0.178225
0 0.1 0.45 0.147558
0.219992 0.1 0.4125 0.136313
0.219992 0.1 -0.4125 0.166634
0 0.1 -0.46799 0.17824
0 0.1 0.46799 0.146396
0.411108 0.1 -0.225 0.174847
0.411108 0.1 0.225 0.156428
0.467897 0.1 -0.0375 0.173558
0.467897 0.1 0.0375 0.170297
0.0363518 0.1 0.46799 0.146396
0.0363518 0.1 -0.46799 0.17824
0.287374 0.1 -0.375 0.169498
0.287374 0.1 0.375 0.141311
0.150379 0.1 0.45 0.140491
0.150379 0.1 -0.45 0.172183
0.467897 0.1 0.1125 0.166415
0.467897 0.1 -0.1125 0.176178
0.350249 0.1 -0.3375 0.172209
0.350249 0.1 0.3375 0.146283
0.075776 0.1 -0.4875 0.178255
0.075776 0.1 0.4875 0.145137
0.467897 0.1 0.1875 0.161958
0.467897 0.1 -0.1875 0.178125
0 0.1 -0.50701 0.17813
0 0.1 0.50701 0.143807
0.0363518 0.1 -0.50701 0.17813
0.0363518 0.1 0.50701 0.143807
0.411108 0.1 0.3 0.151549
0.411108 0.1 -0.3 0.175842
0.522865 0.1 1.41031e-17 0.17642
0 0.1 -0.525 0.178017
0 0.1 0.525 0.142584
0.522865 0.1 -0.075 0.179474
0.522865 0.1 0.075 0.172692
0.287374 0.1 0.45 0.136168
0.287374 0.1 -0.45 0.169391
0.219992 0.1 0.4875 0.13118
0.219992 0.1 -0.4875 0.1662
0.467897 0.1 -0.2625 0.179393
0.467897 0.1 0.2625 0.157012
0.350249 0.1 -0.4125 0.172417
0.350249 0.1 0.4125 0.141188
0 0.1 -0.54299 0.177908
0 0.1 0.54299 0.141361
0.522865 0.1 0.15 0.16833
0.522865 0.1 -0.15 0.181826
0.0363518 0.1 0.54299 0.141361
0.0363518 0.1 -0.54299 0.177908
0.150379 0.1 -0.525 0.171741
0.150379 0.1 0.525 0.1354
0.411108 0.1 -0.375 0.176226
0.411108 0.1 0.375 0.146288
0.075776 0.1 -0.5625 0.177788
0.075776 0.1 0.5625 0.140036
0.522865 0.1 -0.225 0.183456
0.522865 0.1 0.225 0.163392
0.574156 0.1 0.0375 0.178974
0.574157 0.1 -0.0375 0.182506
0.467897 0.1 -0.3375 0.180013
0.467897 0.1 0.3375 0.151621
0 0.1 -0.58201 0.177534
0 0.1 0.58201 0.138658
0.0363518 0.1 -0.58201 0.177534
0.0363518 0.1 0.58201 0.138658
0.574157 0.1 -0.1125 0.185303
0.574157 0.1 0.1125 0.174749
0.287374 0.1 -0.525 0.168755
0.287374 0.1 0.525 0.130796
0 0.1 -0.6 0.177302
0 0.1 0.6 0.137391
0.350249 0.1 0.4875 0.135782
0.350249 0.1 -0.4875 0.172056
0.522865 0.1 -0.3 0.184374
0.522865 0.1 0.3 0.157944
0.219992 0.1 -0.5625 0.165301
0.219992 0.1 0.5625 0.125906
0.574156 0.1 -0.1875 0.18734
0.574156 0.1 0.1875 0.16988
0.411108 0.1 0.45 0.140694
0.411108 0.1 -0.45 0.175991
0 0.1 -0.61799 0.177073
0 0.1 0.61799 0.136123
0.150379 0.1 -0.6 0.170823
0.150379 0.1 0.6 0.130141
0.0363518 0.1 -0.61799 0.177073
0.0363518 0.1 0.61799 0.136123
0.467897 0.1 -0.4125 0.179945
0.467897 0.1 0.4125 0.145852
0.623803 0.1 2.34188e-17 0.185913
0.623803 0.1 0.075 0.181837
0.623803 0.1 -0.075 0.189218
0.574156 0.1 0.2625 0.164419
0.574156 0.1 -0.2625 0.188607
0.623803 0.1 0.15 0.177043
0.623803 0.1 -0.15 0.191717
0.075776 0.1 0.6375 0.13475
0.075776 0.1 -0.6375 0.176824
0.522865 0.1 -0.375 0.184581
0.522865 0.1 0.375 0.152057
0 0.1 0.65701 0.13334
0 0.1 -0.65701 0.176458
0.0363518 0.1 0.65701 0.13334
0.0363518 0.1 -0.65701 0.176458
0.350249 0.1 0.5625 0.130118
0.350249 0.1 -0.5625 0.171205
0.623803 0.1 0.225 0.171586
0.623803 0.1 -0.225 0.19339
0.287374 0.1 -0.6 0.167649
0.287374 0.1 0.6 0.125255
0.574157 0.1 -0.3375 0.189127
0.574157 0.1 0.3375 0.158448
0.411108 0.1 0.525 0.134816
0.411108 0.1 -0.525 0.175189
0.67013 0.1 0.0375 0.188968
0.67013 0.1 -0.0375 0.192834
0.219992 0.1 -0.6375 0.163976
0.219993 0.1 0.6375 0.120539
0 0.1 -0.675 0.176123
0 0.1 0.675 0.132042
0.467897 0.1 -0.4875 0.179239
0.467897 0.1 0.4875 0.139772
0.67013 0.1 -0.1125 0.19585
0.67013 0.1 0.1125 0.184304
0.522865 0.1 0.45 0.145803
0.522865 0.1 -0.45 0.184086
0.150379 0.1 0.675 0.124756
0.150379 0.1 -0.675 0.169475
0.623803 0.1 0.3 0.165541
0.623803 0.1 -0.3 0.194246
0 0.1 -0.69299 0.175789
0 0.1 0.69299 0.130743
0.0363518 0.1 -0.69299 0.175789
0.0363518 0.1 0.69299 0.130743
0.67013 0.1 -0.1875 0.197989
0.67013 0.1 0.1875 0.178901
0.574156 0.1 0.4125 0.152054
0.574157 0.1 -0.4125 0.188886
0.714971 0.1 -2.8382e-17 0.196437
0.075776 0.1 -0.7125 0.175428
0.075776 0.1 0.7125 0.129338
0.714971 0.1 -0.075 0.200029
0.714971 0.1 0.075 0.191957
0.67013 0.1 0.2625 0.17283
0.67013 0.1 -0.2625 0.19924
0.411108 0.1 -0.6 0.173864
0.411108 0.1 0.6 0.128723
0.350249 0.1 0.6375 0.124277
0.350249 0.1 -0.6375 0.169854
0.623803 0.1 0.375 0.158995
0.623803 0.1 -0.375 0.194294
0.714971 0.1 -0.15 0.202689
0.714971 0.1 0.15 0.18665
0.467897 0.1 -0.5625 0.177967
0.467897 0.1 0.5625 0.133441
0 0.1 -0.73201 0.174959
0 0.1 0.73201 0.127908
0.0363518 0.1 0.73201 0.127908
0.0363518 0.1 -0.73201 0.174959
0.287374 0.1 -0.675 0.166106
0.287374 0.1 0.675 0.119593
0.522865 0.1 -0.525 0.182946
0.522865 0.1 0.525 0.139253
0.219993 0.1 -0.7125 0.162285
0.219992 0.1 0.7125 0.115067
0.714971 0.1 -0.225 0.204399
0.714971 0.1 0.225 0.180589
0 0.1 0.75 0.126591
0 0.1 -0.75 0.174529
0.67013 0.1 -0.3375 0.199628
0.67013 0.1 0.3375 0.166176
0.574156 0.1 -0.4875 0.187929
0.574157 0.1 0.4875 0.145306
0.756813 0.1 0.0375 0.199678
0.756814 0.1 -0.0375 0.203905
0.150379 0.1 0.746002 0.119662
0.150379 0.1 -0.75 0.167739
0.756813 0.1 -0.1125 0.207153
0.756813 0.1 0.1125 0.19453
0 0.1 0.76799 0.125275
0 0.1 -0.76799 0.1741
0.0363518 0.1 0.76799 0.125275
0.0363518 0.1 -0.76799 0.1741
0.623803 0.1 -0.45 0.193553
0.623803 0.1 0.45 0.152037
0.714971 0.1 -0.3 0.205169
0.714971 0.1 0.3 0.173857
0.756814 0.1 -0.1875 0.209387
0.756814 0.1 0.1875 0.188535
0.67013 0.1 -0.4125 0.199159
0.67013 0.1 0.4125 0.159036
0.411108 0.1 0.675 0.122489
0.411108 0.1 -0.675 0.172046
0.467897 0.1 0.6375 0.126932
0.467897 0.1 -0.6375 0.176159
0.075776 0.1 0.7875 0.12385
0.075776 0.1 -0.7875 0.173636
0.350249 0.1 -0.7125 0.168049
0.350249 0.1 0.7125 0.118334
0.522865 0.1 -0.6 0.181216
0.522865 0.1 0.6 0.132484
0.797314 0.1 -3.59473e-17 0.207572
0.287374 0.1 0.746002 0.114091
0.797314 0.1 -0.075 0.211485
0.797314 0.1 0.075 0.202643
0.756814 0.1 -0.2625 0.210601
0.756814 0.1 0.2625 0.181779
0.287374 0.1 -0.75 0.16416
0.574156 0.1 -0.5625 0.186318
0.574156 0.1 0.5625 0.138291
0 0.1 0.80701 0.122413
0 0.1 -0.80701 0.173073
0.714971 0.1 -0.375 0.205018
0.714971 0.1 0.375 0.166556
0.0363518 0.1 0.80701 0.122413
0.0363518 0.1 -0.80701 0.173073
0.797314 0.1 -0.15 0.214327
0.797314 0.1 0.15 0.19677
0.623803 0.1 -0.525 0.192078
0.623803 0.1 0.525 0.144755
0.219992 0.1 0.7875 0.10952
0.219992 0.1 -0.7875 0.160231
0.149792 0.1 0.80701 0.115092
0 0.1 0.825 0.121091
0 0.1 -0.825 0.172557
0.797314 0.1 -0.225 0.216077
0.797314 0.1 0.225 0.19004
0.756813 0.1 -0.3375 0.210834
0.756813 0.1 0.3375 0.174358
0.67013 0.1 0.4875 0.151511
0.67013 0.1 -0.4875 0.197871
0.835106 0.1 -0.0375 0.215501
0.835106 0.1 0.0375 0.21086
0.150379 0.1 -0.825 0.165654
0.835106 0.1 -0.1125 0.219025
0.835106 0.1 0.1125 0.205174
0 0.1 -0.84299 0.172041
0 0.1 0.84299 0.119769
0.0363518 0.1 -0.84299 0.172041
0.0363518 0.1 0.84299 0.119769
0.714971 0.1 -0.45 0.20397
0.714971 0.1 0.45 0.158795
0.411108 0.1 0.746002 0.11646
0.797314 0.1 -0.3 0.216763
0.797314 0.1 0.3 0.182555
0.467897 0.1 -0.7125 0.17387
0.467897 0.1 0.7125 0.120315
0.522865 0.1 0.675 0.125572
0.522865 0.1 -0.675 0.178945
0.411108 0.1 -0.75 0.16978
0.835106 0.1 -0.1875 0.22138
0.835107 0.1 0.1875 0.198528
0.286844 0.1 0.80701 0.109458
0.574156 0.1 0.6375 0.131096
0.574157 0.1 -0.6375 0.184103
0.350249 0.1 -0.7875 0.165822
0.350249 0.1 0.7875 0.112347
0.756813 0.1 -0.4125 0.210085
0.756814 0.1 0.4125 0.166397
0.623803 0.1 -0.6 0.189932
0.623803 0.1 0.6 0.137245
0.075776 0.1 0.8625 0.118337
0.075776 0.1 -0.8625 0.171484
0.871687 0.1 -3.2767e-18 0.218999
0.287374 0.1 -0.825 0.161857
0.871687 0.1 -0.075 0.223252
0.871687 0.1 0.075 0.213591
0.67013 0.1 -0.5625 0.19584
0.67013 0.1 0.5625 0.143702
0.835106 0.1 0.2625 0.191027
0.835106 0.1 -0.2625 0.222579
0.797314 0.1 -0.375 0.216401
0.797314 0.1 0.375 0.174432
0 0.1 -0.88201 0.170838
0 0.1 0.88201 0.116903
0.0363518 0.1 0.88201 0.116903
0.0363518 0.1 -0.88201 0.170838
0.871687 0.1 0.15 0.207114
0.871687 0.1 -0.15 0.226277
0.714971 0.1 0.525 0.150682
0.714971 0.1 -0.525 0.202085
0.219993 0.1 0.8625 0.103957
0.219992 0.1 -0.8625 0.157899
0 0.1 0.9 0.115583
0 0.1 -0.9 0.170244
0.756813 0.1 0.4875 0.158008
0.756814 0.1 -0.4875 0.208406
0.871687 0.1 0.225 0.199668
0.871687 0.1 -0.225 0.228053
0.835106 0.1 -0.3375 0.222678
0.835106 0.1 0.3375 0.182787
0.41063 0.1 0.80701 0.111372
0.90582 0.1 -0.0375 0.227186
0.905821 0.1 0.0375 0.222136
0.522865 0.1 0.746002 0.118889
0.150379 0.1 0.9 0.108219
0.90582 0.1 0.1125 0.215898
0.905821 0.1 -0.1125 0.230974
0.522865 0.1 -0.75 0.17619
0.574156 0.1 0.7125 0.123798
0.574156 0.1 -0.7125 0.181347
0.797314 0.1 -0.45 0.215018
0.797314 0.1 0.45 0.165803
0.467897 0.1 -0.7875 0.171145
0.467897 0.1 0.7875 0.11366
0.150379 0.1 -0.903998 0.16336
0 0.1 0.91799 0.114263
0 0.1 -0.91799 0.169652
0.0363518 0.1 0.91799 0.114263
0.0363518 0.1 -0.91799 0.169652
0.623803 0.1 0.675 0.129597
0.623803 0.1 -0.675 0.18718
0.411108 0.1 -0.825 0.167112
0.871687 0.1 0.3 0.191376
0.871687 0.1 -0.3 0.228642
0.67013 0.1 -0.6375 0.193129
0.67013 0.1 0.6375 0.13571
0.90582 0.1 -0.1875 0.233402
0.90582 0.1 0.1875 0.208573
0.350249 0.1 0.8625 0.10636
0.350249 0.1 -0.8625 0.163234
0.835106 0.1 -0.4125 0.221653
0.835106 0.1 0.4125 0.173944
0.714971 0.1 -0.6 0.199442
0.714971 0.1 0.6 0.142328
0.93886 0.1 -1.15648e-17 0.230415
0.075776 0.1 0.9375 0.112834
0.075776 0.1 -0.9375 0.169011
0.93886 0.1 0.075 0.224482
0.93886 0.1 -0.075 0.235061
0.756813 0.1 0.5625 0.149305
0.756814 0.1 -0.5625 0.20588
0.905821 0.1 -0.2625 0.234527
0.905821 0.1 0.2625 0.200282
0.287374 0.1 0.9 0.102315
0.287374 0.1 -0.903998 0.159571
0.871687 0.1 0.375 0.182373
0.871687 0.1 -0.375 0.228049
0.93886 0.1 -0.15 0.238316
0.93886 0.1 0.15 0.217356
0.797314 0.1 0.525 0.156794
0.797314 0.1 -0.525 0.212684
0 0.1 0.95701 0.111415
0 0.1 -0.95701 0.168292
0.0363518 0.1 0.95701 0.111415
0.0363518 0.1 -0.95701 0.168292
0.522433 0.1 0.80701 0.113283
0.219992 0.1 0.9375 0.0984242
0.219992 0.1 -0.9375 0.155289
0.93886 0.1 0.225 0.209158
0.93886 0.1 -0.225 0.240142
0.90582 0.1 0.3375 0.191168
0.905821 0.1 -0.3375 0.234463
0.835106 0.1 -0.4875 0.219581
0.835107 0.1 0.4875 0.16465
0.969689 0.1 -0.0375 0.238812
0.969689 0.1 0.0375 0.233252
0.61613 0.1 0.75 0.121898
0.574156 0.1 -0.7875 0.178117
0.574156 0.1 0.7875 0.116479
0 0.1 0.975 0.110109
0 0.1 -0.975 0.16763
0.623803 0.1 -0.75 0.183896
0.969689 0.1 -0.1125 0.242988
0.969689 0.1 0.1125 0.226382
0.522865 0.1 -0.825 0.17301
0.67013 0.1 0.7125 0.127631
0.67013 0.1 -0.7125 0.189824
0.871687 0.1 -0.45 0.226291
0.871687 0.1 0.45 0.172814
0.467897 0.1 0.8625 0.107029
0.467897 0.1 -0.8625 0.168034
0.714971 0.1 -0.675 0.196127
0.714971 0.1 0.675 0.133846
0.93886 0.1 -0.3 0.240662
0.93886 0.1 0.3 0.20003
0.150379 0.1 0.975 0.102731
0.150379 0.1 -0.975 0.160584
0.969689 0.1 -0.1875 0.245606
0.969689 0.1 0.1875 0.218326
0.411108 0.1 0.9 0.103577
0.756813 0.1 0.6375 0.140425
0.756814 0.1 -0.6375 0.202596
0.990306 0.1 -2.19732e-17 0.239194
0 0.1 0.99299 0.108803
0 0.1 -0.99299 0.16697
0.411108 0.1 -0.903998 0.164453
0.990306 0.1 -0.075 0.244183
0.990306 0.1 0.075 0.23281
0.0363518 0.1 0.99299 0.108803
0.0363518 0.1 -0.99299 0.16697
0.90582 0.1 -0.4125 0.233087
0.905821 0.1 0.4125 0.181378
0.797314 0.1 -0.6 0.209494
0.797314 0.1 0.6 0.147538
0.350249 0.1 0.9375 0.100418
0.350249 0.1 -0.9375 0.160326
0.990306 0.1 0.15 0.225127
0.990306 0.1 -0.15 0.247631
0.969689 0.1 -0.2625 0.246737
0.969689 0.1 0.2625 0.209226
0.835106 0.1 -0.5625 0.216539
0.835106 0.1 0.5625 0.155026
0.93886 0.1 -0.375 0.239869
0.93886 0.1 0.375 0.19013
0.075776 0.1 1.0125 0.10739
0.075776 0.1 -1.0125 0.166256
0.990306 0.1 -0.225 0.249474
0.990306 0.1 0.225 0.216284
0.287374 0.1 0.975 0.0966105
0.287374 0.1 -0.975 0.156352
0.871687 0.1 -0.525 0.223456
0.871687 0.1 0.525 0.162851
1.02149 0.1 -0.0369628 0.248655
1.02149 0.1 0.0369628 0.242736
0.969689 0.1 -0.3375 0.246626
0.969689 0.1 0.3375 0.199242
1.02149 0.1 -0.110888 0.253089
1.02149 0.1 0.110888 0.235383
0.90582 0.1 0.4875 0.171098
0.90582 0.1 -0.4875 0.230538
0.623803 0.1 0.819003 0.115534
0 0.1 1.03201 0.105997
0 0.1 -1.03201 0.165474
0.0363518 0.1 1.03201 0.105997
0.0363518 0.1 -1.03201 0.165474
0.67013 0.1 -0.7875 0.186001
0.67013 0.1 0.7875 0.119558
0.623803 0.1 -0.825 0.180155
0.990306 0.1 -0.3 0.249945
0.990306 0.1 0.3 0.20644
0.219992 0.1 -1.0125 0.152429
0.219993 0.1 1.0125 0.0929565
0.574156 0.1 0.8625 0.109211
0.574157 0.1 -0.8625 0.174482
0.714971 0.1 -0.75 0.19223
0.714971 0.1 0.75 0.125335
1.02149 0.1 0.184814 0.226734
1.02149 0.1 -0.184814 0.255749
0.756814 0.1 -0.7125 0.198654
0.756814 0.1 0.7125 0.131475
0.522865 0.1 0.9 0.104715
0.93886 0.1 -0.45 0.237754
0.93886 0.1 0.45 0.179631
1.04168 0.1 0 0.249768
1.04168 0.1 -0.0729162 0.255061
1.04168 0.1 0.0729162 0.243035
0.522865 0.1 -0.903998 0.169893
0.797314 0.1 -0.675 0.205555
0.797314 0.1 0.675 0.138172
0.467897 0.1 0.9375 0.100486
0.467897 0.1 -0.9375 0.164596
0 0.1 1.05 0.104715
0 0.1 -1.05 0.164756
0.835106 0.1 -0.6375 0.212647
0.835106 0.1 0.6375 0.145238
1.04168 0.1 -0.145832 0.258733
1.04168 0.1 0.145832 0.234941
1.02149 0.1 -0.25874 0.256756
1.02149 0.1 0.25874 0.216946
0.969689 0.1 -0.4125 0.245009
0.969689 0.1 0.4125 0.18855
0.411108 0.1 0.975 0.0973824
0.411108 0.1 -0.975 0.16078
0.871687 0.1 -0.6 0.219655
0.871687 0.1 0.6 0.152631
1.0579 0.1 -0.0360525 0.256072
1.0579 0.1 0.0360525 0.249998
0.990306 0.1 -0.375 0.248997
0.990306 0.1 0.375 0.19577
0.150379 0.1 1.05 0.0973228
0.150379 0.1 -1.05 0.157662
1.0579 0.1 0.108157 0.242509
1.0579 0.1 -0.108157 0.260702
1.04168 0.1 -0.218749 0.260636
1.04168 0.1 0.218749 0.225636
0.90582 0.1 -0.5625 0.226877
0.90582 0.1 0.5625 0.16047
0 0.1 -1.06799 0.164039
0 0.1 1.06799 0.103433
0.0363518 0.1 -1.06799 0.164039
0.0363518 0.1 1.06799 0.103433
0.350249 0.1 1.0125 0.0945619
0.350249 0.1 -1.0125 0.157148
1.0579 0.1 -0.180262 0.263575
1.0579 0.1 0.180262 0.233742
1.02149 0.1 -0.332665 0.256608
1.02149 0.1 0.332665 0.206192
0.93886 0.1 -0.525 0.234424
0.93886 0.1 0.525 0.168706
1.08012 0.1 5.49329e-18 0.257541
1.04168 0.1 -0.291665 0.261125
1.04168 0.1 0.291665 0.215282
1.08012 0.1 0.0709941 0.250623
1.08012 0.1 -0.0709941 0.263037
0.969689 0.1 -0.4875 0.2421
0.96969 0.1 0.4875 0.177338
1.0579 0.1 0.252367 0.223852
1.0579 0.1 -0.252367 0.264681
0.990306 0.1 -0.45 0.246574
0.990306 0.1 0.45 0.184465
0.287374 0.1 -1.05 0.15322
0.287374 0.1 1.05 0.0909982
0.714971 0.1 0.821002 0.117496
1.08012 0.1 -0.141988 0.266941
1.08012 0.1 0.141988 0.242354
0.075776 0.1 1.0875 0.102045
0.075776 0.1 -1.0875 0.163263
0.714971 0.1 -0.825 0.187844
0.756813 0.1 -0.7875 0.194159
0.756814 0.1 0.7875 0.122563
0.67013 0.1 -0.8625 0.181746
0.67013 0.1 0.8625 0.11157
0.797314 0.1 -0.75 0.200983
0.797314 0.1 0.75 0.128815
0.623803 0.1 0.9 0.106666
0.835106 0.1 -0.7125 0.20803
0.835106 0.1 0.7125 0.13542
0.623803 0.1 -0.903998 0.176526
0.574156 0.1 0.9375 0.102063
0.574156 0.1 -0.9375 0.170506
1.02149 0.1 -0.406591 0.254724
1.02149 0.1 0.406591 0.194665
1.08012 0.1 -0.212982 0.269022
1.08012 0.1 0.212982 0.232884
1.10076 0.1 -0.0349809 0.265037
1.10076 0.1 0.0349809 0.258696
0.871687 0.1 -0.675 0.215034
0.871687 0.1 0.675 0.142313
1.04168 0.1 -0.364581 0.260196
1.04168 0.1 0.364581 0.204061
1.10076 0.1 -0.104943 0.269954
1.10076 0.1 0.104943 0.250925
0.522865 0.1 0.975 0.0979393
0.522865 0.1 -0.975 0.165615
1.0579 0.1 -0.324472 0.264634
1.0579 0.1 0.324472 0.213005
0 0.1 -1.10701 0.162429
0 0.1 1.10701 0.100685
0.0363518 0.1 1.10701 0.100685
0.0363518 0.1 -1.10701 0.162429
0.90582 0.1 0.6375 0.149656
0.905821 0.1 -0.6375 0.222287
0.219992 0.1 1.0875 0.0875801
0.219992 0.1 -1.0875 0.149354
0.93886 0.1 0.6 0.157531
0.93886 0.1 -0.6 0.229998
1.10076 0.1 -0.174905 0.273126
1.10076 0.1 0.174905 0.241873
0.467897 0.1 1.0125 0.0940733
0.467897 0.1 -1.0125 0.160881
1.08012 0.1 -0.283976 0.269618
1.08012 0.1 0.283976 0.222374
1.11928 0.1 3.93204e-18 0.265513
0.990306 0.1 -0.525 0.242799
0.990306 0.1 0.525 0.17272
0.96969 0.1 -0.5625 0.237908
0.969689 0.1 0.5625 0.165783
1.11928 0.1 -0.0690357 0.271258
1.11928 0.1 0.0690357 0.258334
0 0.1 1.125 0.0994338
0 0.1 -1.125 0.161662
0.411108 0.1 -1.05 0.157216
0.411108 0.1 1.05 0.0913185
1.10076 0.1 0.244866 0.2317
1.10076 0.1 -0.244866 0.274342
1.11928 0.1 -0.138072 0.275421
1.11928 0.1 0.138072 0.249796
1.02149 0.1 0.480517 0.182572
1.02149 0.1 -0.480517 0.251396
1.0579 0.1 -0.396577 0.262927
1.0579 0.1 0.396577 0.20139
1.04168 0.1 -0.437497 0.257662
1.04168 0.1 0.437497 0.19217
0.150379 0.1 1.125 0.0920245
0.150379 0.1 -1.125 0.154531
0.714971 0.1 0.88201 0.111081
1.08012 0.1 0.354971 0.210999
1.08012 0.1 -0.354971 0.268823
1.11928 0.1 -0.207107 0.277712
1.11928 0.1 0.207107 0.240054
0.350249 0.1 -1.0875 0.153746
0.350249 0.1 1.0875 0.0888294
0 0.1 1.14299 0.0981824
0 0.1 -1.14299 0.160896
0.0363518 0.1 1.14299 0.0981824
0.0363518 0.1 -1.14299 0.160896
1.14316 0.1 -0.0339211 0.273988
1.14316 0.1 0.0339211 0.267365
0.797314 0.1 0.821002 0.119967
1.10076 0.1 -0.314829 0.274441
1.10076 0.1 0.314829 0.220561
0.797314 0.1 -0.825 0.195892
0.756814 0.1 -0.8625 0.189211
0.756814 0.1 0.8625 0.113776
1.14316 0.1 -0.101763 0.279149
1.14316 0.1 0.101763 0.259313
0.835106 0.1 -0.7875 0.202817
0.835106 0.1 0.7875 0.125697
0.871687 0.1 -0.75 0.209732
0.871687 0.1 0.75 0.132036
0.67013 0.1 0.9375 0.103748
0.67013 0.1 -0.9375 0.177145
0.90582 0.1 -0.7125 0.216921
0.905821 0.1 0.7125 0.138835
0.714971 0.1 -0.903998 0.183623
1.11928 0.1 0.276143 0.229266
1.11928 0.1 -0.276143 0.278428
1.14316 0.1 0.169605 0.249975
1.14316 0.1 -0.169605 0.282588
0.93886 0.1 -0.675 0.224669
0.93886 0.1 0.675 0.146299
1.15704 0.1 0 0.27341
1.0579 0.1 0.468682 0.189204
1.0579 0.1 -0.468682 0.259734
0.623803 0.1 0.975 0.0992739
0.623803 0.1 -0.975 0.171601
0.990306 0.1 0.6 0.160737
0.990306 0.1 -0.6 0.237821
1.15704 0.1 -0.0671479 0.279423
1.15704 0.1 0.0671479 0.265954
1.04168 0.1 -0.510414 0.253683
1.04168 0.1 0.510414 0.179817
0.969689 0.1 -0.6375 0.232662
0.969689 0.1 0.6375 0.1541
1.08012 0.1 0.425965 0.198949
1.08012 0.1 -0.425965 0.266429
0.287374 0.1 -1.125 0.149886
0.287374 0.1 1.125 0.0855076
1.02149 0.1 -0.554443 0.246637
1.02149 0.1 0.554443 0.170133
0.574156 0.1 1.0125 0.0950856
0.574156 0.1 -1.0125 0.166258
1.15704 0.1 -0.134296 0.283871
1.15704 0.1 0.134296 0.257137
0.075776 0.1 1.1625 0.0968278
0.075776 0.1 -1.1625 0.160068
1.10076 0.1 -0.384791 0.272881
1.10076 0.1 0.384791 0.208648
1.14316 0.1 -0.237448 0.284041
1.14316 0.1 0.237448 0.239509
1.11928 0.1 -0.345179 0.277754
1.11928 0.1 0.345179 0.217605
0.522865 0.1 1.05 0.0913424
0.522865 0.1 -1.05 0.161522
1.15704 0.1 -0.201444 0.286417
1.15704 0.1 0.201444 0.247117
1.1744 0.1 -0.0331401 0.280426
1.1744 0.1 0.0331401 0.273565
1.1744 0.1 -0.0994202 0.28583
1.1744 0.1 0.0994202 0.265266
0 0.1 1.18201 0.0955117
0 0.1 -1.18201 0.159192
0.0363518 0.1 1.18201 0.0955117
0.0363518 0.1 -1.18201 0.159192
0.219992 0.1 1.1625 0.0823268
0.219993 0.1 -1.1625 0.146096
1.14316 0.1 0.30529 0.228075
1.14316 0.1 -0.30529 0.284218
0.467897 0.1 1.0875 0.0878405
0.467897 0.1 -1.0875 0.156944
1.1744 0.1 -0.1657 0.289579
1.1744 0.1 0.1657 0.255689
1.15704 0.1 -0.268592 0.287291
1.15704 0.1 0.268592 0.236051
1.0579 0.1 0.540787 0.176659
1.0579 0.1 -0.540787 0.255128
0.796996 0.1 0.88201 0.112654
1.08012 0.1 -0.496959 0.262558
1.08012 0.1 0.496959 0.186428
1.10076 0.1 0.454752 0.196151
1.10076 0.1 -0.454752 0.26976
1.11928 0.1 -0.414214 0.275457
1.11928 0.1 0.414214 0.205261
1.04168 0.1 -0.58333 0.248384
1.04168 0.1 0.58333 0.167208
1.1744 0.1 -0.231981 0.291184
1.1744 0.1 0.231981 0.244992
0.871687 0.1 0.821002 0.122358
0.411108 0.1 1.125 0.0854203
0.411108 0.1 -1.125 0.153451
1.19808 0.1 1.73472e-17 0.282112
0.990306 0.1 0.675 0.148719
0.990306 0.1 -0.675 0.231877
1.02149 0.1 0.628368 0.157538
1.02149 0.1 -0.628368 0.240769
1.19808 0.1 -0.0650961 0.288441
1.19808 0.1 0.0650961 0.274331
0 0.1 1.2 0.0943008
0 0.1 -1.2 0.158386
0.871687 0.1 -0.825 0.203886
0.905821 0.1 -0.7875 0.210929
0.90582 0.1 0.7875 0.128113
0.835106 0.1 -0.8625 0.197131
0.835106 0.1 0.8625 0.116151
0.93886 0.1 -0.75 0.218606
0.93886 0.1 0.75 0.135175
1.14316 0.1 -0.373132 0.282814
1.14316 0.1 0.373132 0.215857
0.969689 0.1 0.7125 0.142507
0.969689 0.1 -0.7125 0.226563
1.15704 0.1 -0.33574 0.286777
1.15704 0.1 0.33574 0.224111
0.756813 0.1 0.9375 0.105214
0.756814 0.1 -0.9375 0.183917
1.19808 0.1 0.130192 0.265197
1.19808 0.1 -0.130192 0.293239
0.797314 0.1 -0.903998 0.19103
0.714971 0.1 0.975 0.100523
0.714971 0.1 -0.975 0.177976
0.150379 0.1 1.2 0.086865
0.150379 0.1 -1.2 0.151225
1.20938 0.1 -0.0322656 0.287849
1.20938 0.1 0.0322656 0.280703
1.1744 0.1 -0.298261 0.291508
1.1744 0.1 0.298261 0.233328
1.20938 0.1 -0.0967968 0.293522
1.20938 0.1 0.0967968 0.272122
1.19808 0.1 -0.195288 0.296133
1.19808 0.1 0.195288 0.254869
0.350249 0.1 1.1625 0.0832446
0.350249 0.1 -1.1625 0.15016
0.67013 0.1 1.0125 0.0961501
0.67013 0.1 -1.0125 0.172266
0 0.1 1.21799 0.0930897
0 0.1 -1.21799 0.157581
0.0363518 0.1 -1.21799 0.157581
0.0363518 0.1 1.21799 0.0930897
1.11928 0.1 -0.48325 0.271627
1.11928 0.1 0.48325 0.192434
1.10076 0.1 -0.524714 0.265179
1.10076 0.1 0.524714 0.183282
1.20938 0.1 0.161328 0.262272
1.20938 0.1 -0.161328 0.297623
1.08012 0.1 0.567953 0.173637
1.08012 0.1 -0.567953 0.25732
0.623803 0.1 1.05 0.0921119
0.623803 0.1 -1.05 0.166931
1.0579 0.1 -0.612892 0.249271
1.0579 0.1 0.612892 0.163946
1.15704 0.1 -0.402888 0.284627
1.15704 0.1 0.402888 0.211483
1.14316 0.1 0.440974 0.203046
1.14316 0.1 -0.440974 0.279769
1.19808 0.1 -0.260384 0.297244
1.19808 0.1 0.260384 0.243502
1.2267 0.1 3.57064e-18 0.287792
1.2267 0.1 -0.0636649 0.29435
1.2267 0.1 0.0636649 0.279778
1.1744 0.1 -0.364541 0.290312
1.1744 0.1 0.364541 0.220882
0.574156 0.1 1.0875 0.0883412
0.574156 0.1 -1.0875 0.161803
1.20938 0.1 0.225859 0.251311
1.20938 0.1 -0.225859 0.299496
1.04168 0.1 -0.656246 0.242046
1.04168 0.1 0.656246 0.154531
1.2267 0.1 -0.12733 0.299399
1.2267 0.1 0.12733 0.270417
0.287374 0.1 1.2 0.0801645
0.287374 0.1 -1.2 0.146386
1.02149 0.1 -0.702294 0.234016
1.02149 0.1 0.702294 0.144957
0.075776 0.1 -1.2375 0.156711
0.075776 0.1 1.2375 0.0917788
0.871399 0.1 0.88201 0.114377
0.522865 0.1 1.125 0.0849677
0.522865 0.1 -1.125 0.157238
1.2267 0.1 -0.190994 0.302566
1.2267 0.1 0.190994 0.259871
1.19808 0.1 -0.32548 0.296956
1.19808 0.1 0.32548 0.231265
0.990306 0.1 -0.75 0.225159
0.990306 0.1 0.75 0.136825
1.24274 0.1 -0.0314313 0.29478
1.24274 0.1 0.0314313 0.28734
1.20938 0.1 -0.29039 0.299977
1.20938 0.1 0.29039 0.239388
1.24274 0.1 -0.0942942 0.300728
1.24274 0.1 0.0942942 0.278475
0.93886 0.1 0.821002 0.124728
1.11928 0.1 -0.552285 0.266372
1.11928 0.1 0.552285 0.179325
1.15704 0.1 -0.470036 0.280889
1.15704 0.1 0.470036 0.198366
0.969689 0.1 -0.7875 0.219787
0.96969 0.1 0.7875 0.131167
0.93886 0.1 -0.825 0.211974
0.90582 0.1 0.8625 0.11763
0.905821 0.1 -0.8625 0.204458
1.1744 0.1 -0.430821 0.287379
1.1744 0.1 0.430821 0.207844
1.10076 0.1 -0.594676 0.259274
1.10076 0.1 0.594676 0.170229
1.14316 0.1 -0.508816 0.275232
1.14316 0.1 0.508816 0.189849
1.24274 0.1 -0.157157 0.305173
1.24274 0.1 0.157157 0.268353
1.2267 0.1 -0.254659 0.303876
1.2267 0.1 0.254659 0.248293
0.467897 0.1 1.1625 0.0818174
0.467897 0.1 -1.1625 0.152832
1.08012 0.1 0.638947 0.160768
1.08012 0.1 -0.638947 0.250955
1.25511 0.1 -5.78241e-19 0.293447
0.835106 0.1 -0.9375 0.191095
0.835106 0.1 0.9375 0.106864
0.871687 0.1 -0.903998 0.198332
1.25511 0.1 0.0622446 0.285202
1.25511 0.1 -0.0622446 0.300234
0.219992 0.1 1.2375 0.0772106
0.219992 0.1 -1.2375 0.142685
0 0.1 -1.25701 0.1558
0 0.1 1.25701 0.0905079
0.0363518 0.1 -1.25701 0.1558
0.0363518 0.1 1.25701 0.0905079
0.797314 0.1 0.975 0.101747
0.797314 0.1 -0.975 0.184597
1.19808 0.1 -0.390576 0.295041
1.19808 0.1 0.390576 0.218341
1.0579 0.1 -0.684997 0.24249
1.0579 0.1 0.684997 0.15126
1.20938 0.1 -0.354921 0.299039
1.20938 0.1 0.354921 0.226686
1.25511 0.1 0.124489 0.275619
1.25511 0.1 -0.124489 0.30553
1.24274 0.1 -0.220019 0.307394
1.24274 0.1 0.220019 0.257128
0.756813 0.1 1.0125 0.0969449
0.756814 0.1 -1.0125 0.178363
1.2267 0.1 -0.318324 0.303764
1.2267 0.1 0.318324 0.235847
0.411108 0.1 1.2 0.07972
0.411108 0.1 -1.2 0.149529
1.25511 0.1 -0.186734 0.308978
1.25511 0.1 0.186734 0.264859
0.714971 0.1 1.05 0.0927469
0.714971 0.1 -1.05 0.172663
1.04168 0.1 -0.729162 0.234885
1.04168 0.1 0.729162 0.141944
1.24274 0.1 0.282882 0.244949
1.24274 0.1 -0.282882 0.308048
0 0.1 1.275 0.0893388
0 0.1 -1.275 0.154963
1.1744 0.1 0.497102 0.194417
1.1744 0.1 -0.497102 0.282955
1.15704 0.1 -0.537184 0.275659
1.15704 0.1 0.537184 0.184961
1.2756 0.1 -0.03061 0.301503
1.2756 0.1 0.03061 0.293754
0.67013 0.1 1.0875 0.0888432
0.67013 0.1 -1.0875 0.167191
1.2756 0.1 -0.09183 0.30776
1.2756 0.1 0.09183 0.284599
1.25511 0.1 -0.248978 0.31051
1.25511 0.1 0.248978 0.253072
1.20938 0.1 0.419453 0.213394
1.20938 0.1 -0.419453 0.296276
1.11928 0.1 -0.621322 0.259919
1.11928 0.1 0.621322 0.166122
1.14316 0.1 -0.576659 0.269274
1.14316 0.1 0.576659 0.176458
1.19808 0.1 -0.455673 0.291473
1.19808 0.1 0.455673 0.204928
1.02149 0.1 0.776219 0.132463
1.02149 0.1 -0.776219 0.226559
0.150379 0.1 1.275 0.0818693
0.150379 0.1 -1.275 0.147777
1.2756 0.1 -0.15305 0.312517
1.2756 0.1 0.15305 0.274201
1.2267 0.1 -0.381989 0.302039
1.2267 0.1 0.381989 0.222719
1.10076 0.1 -0.664638 0.252371
1.10076 0.1 0.664638 0.157182
0.350249 0.1 1.2375 0.07784
0.350249 0.1 -1.2375 0.146429
0.623803 0.1 1.125 0.085226
0.623803 0.1 -1.125 0.162089
0.9386 0.1 0.88201 0.11613
0.990306 0.1 0.825 0.125563
0.990306 0.1 -0.825 0.217857
1.24274 0.1 -0.345745 0.307381
1.24274 0.1 0.345745 0.231996
1.2906 0.1 0 0.300427
1.07933 0.1 0.709941 0.148015
1.2906 0.1 -0.0604698 0.307578
1.2906 0.1 0.0604698 0.291826
1.08012 0.1 -0.709941 0.243709
0 0.1 1.29299 0.0881694
0 0.1 -1.29299 0.154127
1.25511 0.1 0.311223 0.240421
1.25511 0.1 -0.311223 0.310579
1.2756 0.1 -0.214269 0.315196
1.2756 0.1 0.214269 0.262708
0.0363518 0.1 1.29299 0.0881694
0.0363518 0.1 -1.29299 0.154127
1.2906 0.1 -0.12094 0.313252
1.2906 0.1 0.12094 0.281907
0.574156 0.1 1.1625 0.0818612
0.574157 0.1 -1.1625 0.157193
0.969689 0.1 0.8625 0.120034
0.969689 0.1 -0.8625 0.212518
1.0579 0.1 0.757102 0.138792
1.0579 0.1 -0.757102 0.234947
1.1744 0.1 -0.563382 0.276992
1.1744 0.1 0.563382 0.180797
1.20938 0.1 0.483984 0.199712
1.20938 0.1 -0.483984 0.292
1.2906 0.1 -0.181409 0.317164
1.2906 0.1 0.181409 0.270826
0.93886 0.1 -0.903998 0.205715
0.90582 0.1 0.9375 0.107557
0.90582 0.1 -0.9375 0.19765
1.2756 0.1 0.275489 0.250271
1.2756 0.1 -0.275489 0.316091
1.2267 0.1 -0.445653 0.298622
1.2267 0.1 0.445653 0.209105
1.15704 0.1 -0.604332 0.269147
1.15704 0.1 0.604332 0.171456
1.19808 0.1 -0.520769 0.286347
1.19808 0.1 0.520769 0.191224
1.30646 0.1 0.0298385 0.299472
1.30646 0.1 -0.0298385 0.307525
0.287374 0.1 -1.275 0.142754
0.287374 0.1 1.275 0.0749947
0.871687 0.1 0.975 0.102572
0.871687 0.1 -0.975 0.19109
1.24274 0.1 0.408607 0.218458
1.24274 0.1 -0.408607 0.304838
0.522865 0.1 1.2 0.0788519