# pMean  POINT_DATA 91129
# x  y  z  pMean
0 0 0 0.182228
0 0.00368111 0 0.181976
0 0.00749587 0 0.181436
0 0.0114491 0 0.180912
0 0.0155459 0 0.180441
0 0.0197915 0 0.179939
0 0.0241911 0 0.179375
0 0.0287506 0 0.178754
0 0.0334755 0 0.178087
0 0.038372 0 0.177389
0 0.0434463 0 0.176673
0 0.0487048 0 0.175946
0 0.0541543 0 0.175215
0 0.0598016 0 0.174484
0 0.0656539 0 0.173762
0 0.0717187 0 0.173063
0.075776 0.00184055 0 0.182228
0.075776 0.00558849 0 0.181724
0.075776 0.00947248 -3.46945e-18 0.181147
0.075776 0.0134975 -3.46945e-18 0.180676
0.075776 0.0176687 3.46945e-18 0.180205
0 0.0780037 0 0.1724
0.075776 0.0219913 3.46945e-18 0.179673
0.075776 0.0264709 3.46945e-18 0.179078
0.075776 0.031113 -3.46945e-18 0.17843
0.075776 0.0359237 -3.46945e-18 0.177744
0 0.0845169 0 0.17177
0.075776 0.0409092 0 0.177035
0.075776 0.0460755 -3.46945e-18 0.176312
0 0.0912666 0 0.171156
0.075776 0.0514296 -3.46945e-18 0.175581
0.075776 0.0569779 0 0.174848
0 0.0982613 0 0.170544
0.075776 0.0627278 0 0.17412
0.075776 0.0686863 0 0.173405
0 0.10551 0 0.169926
0.075776 0.0748612 3.46945e-18 0.172722
0.075776 0.0812603 -3.46945e-18 0.172078
0 0.113022 0 0.169303
0.075776 0.0878918 3.46945e-18 0.171461
0 0.120806 0 0.168677
0.075776 0.0947639 3.46945e-18 0.170851
0.075776 0.101886 -3.46945e-18 0.170237
0 0.128874 0 0.168051
0.075776 0.109266 3.46945e-18 0.169616
0 0.137234 0 0.167431
0.075776 0.116914 3.46945e-18 0.168991
0 0.145897 0 0.166824
0.075776 0.12484 0 0.168363
0.151552 0 0 0.16842
0.151552 0.00368111 0 0.168322
0.151552 0.00749587 0 0.16814
0.151552 0.0114491 0 0.168006
0.151552 0.0155459 0 0.167901
0.151552 0.0197915 0 0.167776
0.075776 0.133054 0 0.167738
0.151552 0.0241911 0 0.167617
0.151552 0.0287506 0 0.167427
0 0.154876 0 0.166233
0.151552 0.0334755 0 0.16721
0.151552 0.038372 0 0.166974
0.151552 0.0434463 0 0.166726
0.151552 0.0487048 0 0.166469
0.075776 0.141566 0 0.167124
0.151552 0.0541543 0 0.166206
0.151552 0.0598016 0 0.165937
0 0.16418 0 0.165668
0.151552 0.0656539 0 0.165668
0.151552 0.0717187 0 0.165403
0.075776 0.150387 0 0.166524
0.151552 0.0780037 0 0.165149
0.151552 0.0845169 0 0.164903
0 0.173822 0 0.165141
0.075776 0.159528 0 0.165942
0.151552 0.0912666 0 0.164658
0.151552 0.0982613 0 0.164404
0 0.183814 0 0.164641
0.151552 0.10551 0 0.164141
0.075776 0.169001 3.46945e-18 0.165395
0.151552 0.113022 0 0.163867
0.151552 0.120806 0 0.16358
0 0.194169 0 0.164141
0.075776 0.178818 3.46945e-18 0.164887
0.151552 0.128874 0 0.163283
0.075776 0.188992 3.46945e-18 0.164395
0.151552 0.137234 0 0.162979
0 0.2049 0 0.163615
0.151552 0.145897 0 0.162672
0.075776 0.199535 0 0.163886
0 0.21602 0 0.163055
0.151552 0.154876 0 0.162365
0.219992 0.00184055 0 0.155674
0.219992 0.00558849 0 0.155761
0.219992 0.00947248 -3.46945e-18 0.155973
0.219992 0.0134975 3.46945e-18 0.156213
0.219992 0.0176687 0 0.156439
0.219992 0.0219913 0 0.156657
0.219993 0.0264709 -3.46945e-18 0.15687
0.219992 0.031113 -3.46945e-18 0.157072
0.219992 0.0359238 3.46945e-18 0.157266
0.151552 0.16418 0 0.162064
0.075776 0.21046 0 0.163343
0.219992 0.0409092 3.46945e-18 0.157454
0.219992 0.0460755 0 0.157635
0.219993 0.0514296 -3.46945e-18 0.157807
0.219992 0.0569779 0 0.15797
0 0.227544 0 0.162467
0.219992 0.0627277 3.46945e-18 0.158124
0.219992 0.0686863 0 0.158267
0.151552 0.173822 0 0.161774
0.219992 0.0748612 3.46945e-18 0.158397
0.075776 0.221782 0 0.162766
0.219992 0.0812603 3.46945e-18 0.158514
0.219992 0.0878917 -3.46945e-18 0.158616
0.151552 0.183814 0 0.161489
7.47806e-17 0.239487 0 0.161864
0.219992 0.0947639 3.46945e-18 0.158701
0.219993 0.101886 3.46945e-18 0.158771
0.075776 0.233516 0 0.162169
0.219993 0.109266 0 0.158828
0.151552 0.194169 0 0.161191
0.219993 0.116914 0 0.158867
0 0.251863 0 0.161248
0.219993 0.12484 0 0.158883
0.151552 0.2049 0 0.160869
0.075776 0.245675 0 0.161558
0.219992 0.133054 3.46945e-18 0.158879
0.219992 0.141565 0 0.158858
0.151552 0.21602 0 0.160518
0 0.264688 0 0.16062
0.219992 0.150387 3.46945e-18 0.158819
0.075776 0.258275 3.46945e-18 0.160937
0.219992 0.159528 -3.46945e-18 0.158768
0.151552 0.227544 0 0.160142
0.219992 0.169001 3.46945e-18 0.158705
0 0.27798 0 0.15998
0.075776 0.271334 3.46945e-18 0.160304
0.151552 0.239487 3.70071e-18 0.159744
0.219992 0.178818 3.46945e-18 0.158627
0.288433 0 0 0.159399
0.288433 0.00368111 0 0.159429
0.288433 0.00749587 0 0.159528
0.288433 0.0114491 0 0.159674
0.288433 0.0155459 3.70071e-18 0.159827
0.288433 0.0197915 0 0.159977
0.288433 0.0241911 3.70071e-18 0.160126
0.288433 0.0287506 0 0.160271
0.219992 0.188991 0 0.158529
0.288433 0.0334755 0 0.160412
0.288433 0.038372 0 0.16055
0.288433 0.0434463 0 0.160683
7.47806e-17 0.291753 0 0.159325
0.288433 0.0487048 0 0.160812
0.288433 0.0541543 0 0.160936
0.151552 0.251863 0 0.159326
0.288433 0.0598016 3.70071e-18 0.161054
0.075776 0.284866 0 0.159656
0.288433 0.0656539 3.70071e-18 0.161168
0.219992 0.199534 0 0.158407
0.288433 0.0717187 0 0.161277
0.288433 0.0780037 0 0.16138
0.288433 0.0845169 0 0.161476
0.288433 0.0912666 0 0.161563
0.219992 0.21046 -3.46945e-18 0.158261
0.288433 0.0982613 0 0.161629
0.151552 0.264688 3.70071e-18 0.158892
0 0.306027 0 0.158651
0.288433 0.10551 0 0.16167
0.075776 0.29889 3.46945e-18 0.158993
0.288433 0.113022 0 0.161688
0.219993 0.221782 0 0.158092
0.288433 0.120806 0 0.161691
0.288433 0.128874 0 0.161682
0.151552 0.27798 0 0.158442
0.288433 0.137234 0 0.161661
0 0.320819 0 0.157955
0.219992 0.233515 -3.46945e-18 0.157897
0.075776 0.313423 -3.46945e-18 0.158308
0.288433 0.145897 0 0.161624
0.288433 0.154876 0 0.161571
0.151552 0.291753 0 0.157973
0.219993 0.245675 0 0.157675
0.288433 0.16418 0 0.161503
0 0.336148 0 0.157247
0.288433 0.173822 0 0.16142
0.075776 0.328484 -3.46945e-18 0.157602
0.219993 0.258275 -3.46945e-18 0.157428
0.151552 0.306027 0 0.157478
0.288433 0.183814 0 0.161319
0.288433 0.194169 0 0.161197
0.219992 0.271334 3.46945e-18 0.157163
0.350249 0.00184056 -3.46945e-18 0.16285
0.350249 0.00558849 0 0.162887
0.350249 0.00947248 3.46945e-18 0.162954
0.350249 0.0134975 0 0.163031
0.350249 0.0176687 0 0.163111
0.350249 0.0219913 0 0.163197
0.350249 0.0264708 3.46945e-18 0.163285
0.350249 0.031113 0 0.163373
0 0.352034 0 0.156542
0.350249 0.0359238 0 0.163461
0.075776 0.344091 0 0.156891
0.350249 0.0409091 0 0.163549
0.350249 0.0460756 3.46945e-18 0.163635
0.288433 0.2049 0 0.161052
0.350249 0.0514296 0 0.163718
0.151552 0.320819 0 0.156955
0.350249 0.0569779 0 0.163799
0.350249 0.0627277 3.46945e-18 0.163881
0.350249 0.0686863 3.46945e-18 0.163964
0.350249 0.0748612 3.46945e-18 0.164047
0.350249 0.0812603 0 0.164131
0.219992 0.284867 0 0.156879
0.288433 0.21602 0 0.160885
0.350249 0.0878917 0 0.164217
0.350249 0.094764 0 0.16429
0.350249 0.101886 0 0.164329
0.350249 0.109266 0 0.16433
0.288433 0.227544 0 0.160694
0.075776 0.360265 3.46945e-18 0.156193
0 0.368496 0 0.155839
0.151552 0.336148 0 0.156406
0.350249 0.116914 3.46945e-18 0.16431
0.219992 0.29889 0 0.156568
0.370854 0.0241911 1.54074e-33 0.16507
0.350249 0.12484 0 0.164288
0.350249 0.133054 0 0.164266
0.288433 0.239487 -9.25154e-19 0.160477
0.350249 0.141566 3.46945e-18 0.164232
0.350249 0.150387 3.46945e-18 0.16418
0.288433 0.251863 0 0.160234
0.219992 0.313423 0 0.156223
0.151552 0.352034 0 0.155838
0.075776 0.377027 0 0.155485
0.350249 0.159528 0 0.16411
0 0.385557 0 0.155108
0.350249 0.169001 0 0.164024
0.288433 0.264688 0 0.159967
0.350249 0.178818 0 0.16392
0.219992 0.328484 0 0.15584
0.350249 0.188992 0 0.163797
0.151552 0.368496 0 0.155251
0.288433 0.27798 3.70071e-18 0.159676
0.075776 0.394397 0 0.154731
0.350249 0.199535 0 0.163654
7.47806e-17 0.403236 0 0.15433
0.219992 0.344091 0 0.155418
0.350249 0.21046 -3.46945e-18 0.163489
0.288433 0.291753 0 0.15936
0.412065 9.08189e-19 3.08149e-33 0.167277
0.412065 0.00368111 -2.31298e-18 0.16729
0.412065 0.00749587 -2.31298e-18 0.167327
0.412065 0.0114491 -2.31298e-18 0.167377
0.412065 0.0155459 -2.31298e-18 0.167431
0.412065 0.0197915 0 0.167486
0.412065 0.0241911 -3.08149e-33 0.167542
0.412065 0.0264709 0 0.167571
0.412065 0.0287506 -2.31298e-18 0.1676
0.412065 0.0334755 -2.31298e-18 0.167658
0.412065 0.038372 -2.31298e-18 0.167718
0.151552 0.385557 0 0.15463
0.412065 0.0434463 0 0.16778
0.350249 0.221782 0 0.163302
0.412065 0.0487048 0 0.167842
0.412065 0.0541543 -3.08149e-33 0.167905
0.412065 0.0569779 0 0.167936
0.412065 0.0598016 -2.31298e-18 0.167968
0.412065 0.0656539 -2.31298e-18 0.168029
0.412065 0.0717187 -2.31298e-18 0.168088
0.075776 0.412396 -3.46945e-18 0.153928
0.412065 0.0780037 -2.31298e-18 0.168146
0.288433 0.306027 0 0.159014
0.412065 0.0845169 -2.31298e-18 0.168202
0.350249 0.233516 3.46945e-18 0.16309
0 0.421557 0 0.153509
0.412065 0.0912666 -2.31298e-18 0.168246
0.219992 0.360265 3.46945e-18 0.154957
0.412065 0.0982613 0 0.168261
0.412065 0.10551 0 0.168244
0.412065 0.113022 -2.31298e-18 0.168205
0.350249 0.245675 0 0.162853
0.412065 0.120806 0 0.168156
0.151552 0.403236 0 0.153964
0.288433 0.320819 0 0.158633
0.412065 0.128874 -2.31298e-18 0.1681
0.412065 0.137234 0 0.168036
0.350249 0.258275 -3.46945e-18 0.162589
0.219992 0.377026 0 0.154459
0.412065 0.145897 -2.31298e-18 0.167959
0.075776 0.431051 0 0.153088
0.412065 0.154876 -2.31298e-18 0.167869
0 0.440544 0 0.152653
0.288433 0.336148 0 0.158216
0.350249 0.271334 0 0.162297
0.412065 0.16418 -2.31298e-18 0.167763
0.412065 0.173822 -2.31298e-18 0.167643
0.151552 0.421557 0 0.153252
0.412065 0.183814 -2.31298e-18 0.167505
0.350249 0.284867 3.46945e-18 0.161978
0.219992 0.394397 0 0.153918
0.288433 0.352034 3.70071e-18 0.15776
0.412065 0.194169 0 0.167349
0.075776 0.450382 0 0.152216
0.412065 0.2049 -2.31298e-18 0.167174
0 0.46022 0 0.151766
0.350249 0.29889 3.46945e-18 0.16163
0.412065 0.21602 0 0.166977
0.151552 0.440544 0 0.152499
0.219993 0.412396 3.46945e-18 0.153333
0.467897 0.00184056 -3.46945e-18 0.171395
0.467897 0.00558849 0 0.171412
0.288433 0.368496 0 0.157266
0.467897 0.00947248 0 0.17144
0.467897 0.0134975 0 0.171472
0.467897 0.0176687 3.46945e-18 0.171503
0.467897 0.0219913 -3.46945e-18 0.17153
0.467897 0.0264709 3.46945e-18 0.171558
0.467897 0.0311131 3.46945e-18 0.171588
0.467897 0.0359238 -3.46945e-18 0.17162
0.467897 0.038372 0 0.172035
0.467897 0.0409092 3.46945e-18 0.171656
0.350249 0.313423 0 0.161252
0.467897 0.0460755 0 0.171696
0.467897 0.0514296 3.46945e-18 0.17174
0.412065 0.227544 -2.31298e-18 0.166759
0.467897 0.0569779 0 0.171786
0.467897 0.0627277 -3.46945e-18 0.17183
0.467897 0.0686863 3.46945e-18 0.171869
0.467897 0.0748612 0 0.171903
0.467897 0.0812603 0 0.171937
0.467897 0.0878918 3.46945e-18 0.171963
0.075776 0.470415 3.46945e-18 0.151315
0.412065 0.239487 -2.31298e-18 0.166516
0.467897 0.0947639 -3.46945e-18 0.171958
0.467897 0.101886 3.46945e-18 0.171916
0.350249 0.328483 0 0.160839
0.467897 0.109266 0 0.171855
0 0.48061 0 0.150848
0.288433 0.385557 0 0.156729
0.467897 0.116914 0 0.171786
0.412065 0.251863 -2.31298e-18 0.166247
0.219992 0.431051 0 0.152699
0.467897 0.12484 0 0.171704
0.151552 0.46022 0 0.151706
0.467897 0.133054 3.46945e-18 0.171611
0.467897 0.141566 3.46945e-18 0.171508
0.412065 0.264688 -2.31298e-18 0.165951
0.350249 0.344091 -3.46945e-18 0.16039
0.467897 0.150387 3.46945e-18 0.171396
0.467897 0.154876 0 0.171819
0.467897 0.159528 3.46945e-18 0.171271
0.288433 0.403236 0 0.156149
0.075776 0.491175 0 0.15038
0.412065 0.27798 -2.31298e-18 0.165627
0.467897 0.169001 0 0.171134
0.467897 0.178818 3.46945e-18 0.170982
0.219992 0.450382 0 0.152017
6.73026e-17 0.501741 3.70071e-18 0.149893
0.350249 0.360265 0 0.159902
0.151552 0.48061 0 0.150872
0.467897 0.188991 0 0.170814
0.412065 0.291753 0 0.165274
0.467897 0.199535 0 0.170628
0.288433 0.421557 0 0.155523
0.467897 0.21046 0 0.170424
0.412065 0.306027 0 0.164888
0.350249 0.377027 0 0.159372
0.467897 0.221782 3.46945e-18 0.170198
0.075776 0.51269 0 0.149404
0.219993 0.470415 3.46945e-18 0.151285
0.467897 0.227544 0 0.170548
0.412065 0.320819 -2.31298e-18 0.164469
0.467897 0.233515 0 0.16995
6.73026e-17 0.523639 3.70071e-18 0.148895
0.523729 0 0 0.176172
0.523729 0.00368111 0 0.176179
0.523729 0.00749587 -2.31298e-18 0.176199
0.523729 0.0114491 0 0.176226
0.523729 0.0155459 0 0.176255
0.523729 0.0197915 -2.31298e-18 0.176277
0.151552 0.501741 0 0.149994
0.523729 0.0241911 0 0.176295
0.523729 0.0287506 0 0.176313
0.523729 0.0334755 0 0.176331
0.523729 0.038372 -3.08149e-33 0.176352
0.523729 0.0434463 0 0.176375
0.523729 0.0487048 0 0.176402
0.523729 0.0541543 0 0.176432
0.288433 0.440544 0 0.154847
0.523729 0.0598016 0 0.176463
0.350249 0.394397 -3.46945e-18 0.158799
0.523729 0.0656539 0 0.176493
0.467897 0.245675 0 0.169678
0.523729 0.0717187 0 0.17652
0.523729 0.0780037 0 0.176545
0.523729 0.0845169 0 0.176559
0.523729 0.0912666 0 0.176546
0.412065 0.336148 0 0.164013
0.523729 0.0982613 0 0.176498
0.523729 0.10551 -2.31298e-18 0.176427
0.467897 0.258275 -3.46945e-18 0.16938
0.523729 0.113022 0 0.176344
0.523729 0.120806 -3.08149e-33 0.176253
0.219993 0.491176 0 0.150504
0.523729 0.12484 0 0.176201
0.523729 0.128874 -2.31298e-18 0.176149
0.075776 0.534986 0 0.148384
0.467897 0.271334 3.46945e-18 0.169054
0.350249 0.412396 -3.46945e-18 0.158181
0.523729 0.137234 0 0.176034
0.412065 0.352034 -2.31298e-18 0.163518
0.288433 0.46022 0 0.154121
0.523729 0.145897 0 0.175908
0.151552 0.523639 0 0.149068
0.523729 0.154876 -3.08149e-33 0.175769
0 0.546332 0 0.147852
0.523729 0.159528 0 0.175693
0.467897 0.284867 -3.46945e-18 0.168697
0.523729 0.16418 -2.31298e-18 0.175617
0.523729 0.173822 0 0.175449
0.412065 0.368496 0 0.162982
0.523729 0.183814 0 0.175265
0.467897 0.29889 0 0.168309
0.350249 0.431051 -3.46945e-18 0.157514
0.219992 0.51269 0 0.149672
0.523729 0.194169 0 0.175064
0.288433 0.48061 0 0.153342
0.523729 0.2049 0 0.174843
0.467897 0.313423 3.46945e-18 0.167886
0.075776 0.558091 0 0.147319
0.412065 0.385557 0 0.162402
0.523729 0.21602 -3.08149e-33 0.174601
0.151552 0.546332 0 0.148089
0 0.569849 0 0.146764
0.350249 0.450382 3.46945e-18 0.156797
0.523729 0.227544 -3.08149e-33 0.174337
0.467897 0.328483 0 0.167426
0.523729 0.231525 1.54074e-33 0.17424
0.574156 0.00184056 0 0.180636
0.574156 0.00558849 0 0.180648
0.574157 0.00947248 0 0.18067
0.574156 0.0134975 -3.46945e-18 0.180698
0.574156 0.0176687 -3.46945e-18 0.18072
0.574156 0.0219913 0 0.180731
0.574156 0.0264708 -3.46945e-18 0.180739
0.574156 0.031113 0 0.180746
0.574156 0.0359238 -3.46945e-18 0.180753
0.574157 0.0409092 0 0.180762
0.523729 0.239487 3.70071e-18 0.174048
0.574156 0.0460755 -3.46945e-18 0.180772
0.574156 0.0514295 0 0.180786
0.412065 0.403236 0 0.161777
0.574157 0.0569779 0 0.180804
0.574156 0.0627277 0 0.180823
0.574156 0.0686863 0 0.180842
0.219992 0.534986 0 0.148784
0.288433 0.501741 0 0.15251
0.574156 0.0748612 3.46945e-18 0.18086
0.574156 0.0812603 0 0.180873
0.467897 0.344091 0 0.166928
0.574156 0.0878917 3.46945e-18 0.18086
0.523729 0.251863 0 0.173734
0.574157 0.0947639 0 0.180802
0.574156 0.101886 0 0.180717
0.574156 0.109266 0 0.180623
0.574156 0.116914 0 0.180522
0.412065 0.416977 -6.16298e-33 0.161271
0.350249 0.470415 0 0.156026
0.523729 0.264688 0 0.173392
0.075776 0.582034 0 0.146207
0.574156 0.12484 0 0.180409
0.574156 0.133054 3.46945e-18 0.180285
0.412065 0.421557 -2.31298e-18 0.161102
0.151552 0.569849 0 0.147056
0.467897 0.360265 -3.46945e-18 0.166388
0.574157 0.141566 -3.46945e-18 0.180148
0.523729 0.27798 0 0.17302
0.574156 0.150386 3.46945e-18 0.179998
0 0.594219 0 0.145627
0.574156 0.159528 -3.46945e-18 0.179833
0.574156 0.16418 0 0.180203
0.288433 0.523639 1.2326e-32 0.15162
0.574157 0.169001 0 0.179653
0.523729 0.291753 0 0.172617
0.219993 0.558091 3.46945e-18 0.147834
0.467897 0.377026 0 0.165805
0.574156 0.178818 3.46945e-18 0.179455
0.412065 0.440544 -2.31298e-18 0.160377
0.350249 0.491175 0 0.155199
0.574156 0.188992 3.46945e-18 0.17924
0.523729 0.306027 -3.08149e-33 0.17218
0.574157 0.199535 0 0.179005
0.574157 0.21046 0 0.17875
0.075776 0.606847 0 0.145044
0.467897 0.394397 0 0.165176
0.151552 0.594219 0 0.145964
0.523729 0.320819 0 0.171706
0.574157 0.221782 -3.46945e-18 0.178472
0.412065 0.46022 3.08149e-33 0.159599
0.288433 0.546332 0 0.15067
0 0.619475 0 0.144436
0.574156 0.233515 3.46945e-18 0.17817
0.350249 0.51269 3.46945e-18 0.154314
0.219992 0.582034 3.46945e-18 0.146818
0.523729 0.336148 0 0.171194
0.467897 0.412396 0 0.164498
0.574156 0.245675 0 0.177843
0.624584 0 0 0.186096
0.624584 0.00368111 0 0.186102
0.624584 0.00749587 0 0.186118
0.624584 0.0114491 0 0.186142
0.624584 0.0155459 0 0.186166
0.624584 0.0197915 0 0.186179
0.624584 0.0241911 -2.31298e-18 0.186182
0.624584 0.0287506 0 0.186181
0.624584 0.0334755 0 0.186178
0.624584 0.038372 0 0.186175
0.624584 0.0434463 -2.31298e-18 0.186174
0.624584 0.0487048 0 0.186174
0.624584 0.0541543 0 0.186176
0.624584 0.0598016 0 0.186179
0.624584 0.0656539 0 0.186183
0.624584 0.0717187 0 0.186185
0.624584 0.0780037 0 0.186183
0.574157 0.258276 3.46945e-18 0.177488
0.624584 0.0845169 0 0.186159
0.523729 0.352034 0 0.170641
0.624584 0.0912666 0 0.186099
0.624584 0.0982613 0 0.186005
0.412065 0.48061 3.08149e-33 0.158764
0.624584 0.10551 0 0.185895
0.624584 0.113022 -2.31298e-18 0.185775
0.574156 0.271334 0 0.177104
0.624584 0.120806 0 0.185645
0.467897 0.431051 0 0.163769
0.075776 0.632561 -3.46945e-18 0.143826
0.624584 0.128874 0 0.185502
0.151552 0.619475 0 0.144811
0.288433 0.569849 0 0.149654
0.350249 0.534985 0 0.153366
0.624584 0.137234 -2.31298e-18 0.185346
0.523729 0.368496 0 0.170045
0.574156 0.284866 -3.46945e-18 0.176688
0.624584 0.145897 0 0.185176
0.467897 0.440544 0 0.163775
0.624584 0.154876 0 0.184991
0.219992 0.606847 -3.46945e-18 0.145735
0 0.645647 0 0.143189
0.624584 0.16418 -3.08149e-33 0.18479
0.574156 0.29889 -3.46945e-18 0.176239
0.624584 0.173822 0 0.184571
0.412065 0.501741 1.54074e-33 0.157871
0.467897 0.450382 -3.46945e-18 0.162987
0.523729 0.385557 0 0.169402
0.624584 0.183814 0 0.184334
0.624584 0.194169 0 0.184078
0.574156 0.313423 0 0.175755
0.624584 0.2049 0 0.1838
0.350249 0.558091 3.46945e-18 0.152354
0.288433 0.594219 0 0.14857
0.624584 0.21602 0 0.1835
0.523729 0.403236 0 0.168711
0.574156 0.328483 -3.46945e-18 0.175232
0.151552 0.645647 0 0.143594
0.467897 0.470415 3.46945e-18 0.162149
0.075776 0.659208 0 0.142549
0.624584 0.227544 0 0.183176
0.412065 0.523639 0 0.156915
0.523729 0.41545 3.08149e-33 0.168216
0.624584 0.239487 3.70071e-18 0.182826
0.574156 0.344091 0 0.174669
0.219992 0.632561 0 0.144582
0.67013 0.00184055 0 0.191222
0.67013 0.00558849 0 0.191233
0.67013 0.00947248 0 0.191254
0.67013 0.0134975 0 0.191281
0.67013 0.0176687 -3.46945e-18 0.191298
0.67013 0.0219913 0 0.191301
0.67013 0.0264708 3.46945e-18 0.191292
0.67013 0.0311131 0 0.191281
0.67013 0.0359237 0 0.191268
0.67013 0.0409092 -3.46945e-18 0.191256
0.67013 0.0460755 0 0.191245
0.67013 0.0514296 3.46945e-18 0.191234
0.523729 0.421557 -2.31298e-18 0.167969
0.67013 0.056978 0 0.191223
0 0.67277 0 0.14188
0.67013 0.0627277 0 0.191212
0.624584 0.251863 0 0.182448
0.67013 0.0686863 0 0.1912
0.67013 0.0748612 3.46945e-18 0.191187
0.67013 0.0812603 0 0.191161
0.67013 0.0878917 0 0.191097
0.67013 0.0947639 3.46945e-18 0.190993
0.574156 0.360265 0 0.174063
0.67013 0.101886 0 0.190868
0.523729 0.431051 0 0.16757
0.624584 0.264688 0 0.182041
0.467897 0.491175 0 0.161252
0.67013 0.109266 3.46945e-18 0.190734
0.350249 0.582034 0 0.151275
0.67013 0.116914 0 0.190588
0.67013 0.12484 0 0.190429
0.67013 0.133054 0 0.190257
0.288433 0.619475 0 0.147416
0.624584 0.27798 -3.08149e-33 0.181603
0.412065 0.546332 1.54074e-33 0.155894
0.523729 0.440544 -3.08149e-33 0.167172
0.67013 0.141566 3.46945e-18 0.190069
0.685312 0.0241911 -7.70372e-34 0.19348
0.685312 0.0434463 -7.70372e-34 0.193414
0.67013 0.150387 0 0.189867
0.574156 0.377026 -3.46945e-18 0.173411
0.67013 0.159528 0 0.189648
0.624584 0.291753 0 0.181132
0.151552 0.67277 0 0.14231
0.075776 0.686823 0 0.141209
0.67013 0.169001 0 0.189411
0.67013 0.178818 0 0.189156
0.467897 0.51269 0 0.160292
0.685312 0.113022 -7.70372e-34 0.19274
0.219992 0.659208 0 0.143358
0.624584 0.306027 0 0.180625
0.67013 0.188991 0 0.18888
0.574156 0.394397 3.46945e-18 0.172711
0.523729 0.46022 0 0.166319
0.685312 0.137234 -7.70372e-34 0.192214
0.67013 0.199535 -3.46945e-18 0.188583
0.350249 0.606847 0 0.150124
0 0.700877 0 0.140507
0.624584 0.320819 0 0.18008
0.67013 0.21046 0 0.188264
0.412065 0.569849 -2.31298e-18 0.154804
0.67013 0.221782 -3.46945e-18 0.18792
0.574157 0.412396 0 0.171959
0.288433 0.645647 0 0.146189
0.624584 0.336148 -3.08149e-33 0.179496
0.67013 0.233515 3.46945e-18 0.187551
0.467897 0.534986 0 0.159267
0.523729 0.48061 0 0.165405
0.624584 0.344091 0 0.179182
0.67013 0.245675 0 0.187154
0.715676 4.54095e-19 0 0.197065
0.715676 0.00368111 0 0.19707
0.715676 0.00749587 0 0.197086
0.715676 0.0114491 0 0.197109
0.715676 0.0155459 0 0.19713
0.715676 0.0197915 0 0.197137
0.715676 0.0241911 0 0.197128
0.715676 0.0287506 0 0.19711
0.715676 0.0334755 0 0.197087
0.715676 0.038372 0 0.197061
0.624584 0.352034 -2.31298e-18 0.178868
0.715676 0.0434463 0 0.197034
0.151552 0.700877 0 0.140955
0.715676 0.0487048 0 0.197008
0.715676 0.0541543 0 0.196981
0.574156 0.43105 0 0.171153
0.715676 0.0598016 0 0.196953
0.67013 0.258275 0 0.186728
0.715676 0.0656539 0 0.196925
0.715676 0.0717187 0 0.196895
0.075776 0.715441 0 0.139802
0.715676 0.0780037 0 0.196855
0.715676 0.0845169 0 0.196785
0.219992 0.686824 0 0.142059
0.715676 0.0912666 0 0.196676
0.715676 0.0982613 0 0.196538
0.67013 0.271334 -3.46945e-18 0.186271
0.350249 0.632561 -3.46945e-18 0.1489
0.412065 0.594219 3.08149e-33 0.153643
0.715676 0.10551 0 0.196386
0.715676 0.113022 0 0.196223
0.624584 0.368496 0 0.178194
0.523729 0.501741 0 0.164429
0.715676 0.120806 0 0.196046
0.715676 0.128874 0 0.195854
0.67013 0.284867 0 0.185781
0.467897 0.558091 3.46945e-18 0.158174
0.715676 0.137234 0 0.195648
0.574156 0.450382 0 0.17029
0 0.730005 0 0.139064
0.715676 0.145897 0 0.195425
0.288433 0.67277 0 0.144885
0.715676 0.154876 0 0.195185
0.67013 0.29889 0 0.185255
0.624584 0.385557 0 0.177473
0.715676 0.16418 -9.25187e-19 0.194927
0.715676 0.173822 0 0.19465
0.715676 0.183814 0 0.194352
0.67013 0.313423 0 0.184692
0.523729 0.523639 0 0.163386
0.715676 0.194169 0 0.194033
0.574156 0.470415 3.46945e-18 0.169366
0.624584 0.403236 0 0.1767
0.743101 0.0241911 -7.70372e-34 0.201011
0.412065 0.619475 3.08149e-33 0.152406
0.715676 0.2049 0 0.19369
0.151552 0.730005 0 0.139526
0.67013 0.328484 3.46945e-18 0.184089
0.350249 0.659208 0 0.147598
0.467897 0.582034 0 0.157008
0.715676 0.21602 0 0.193323
0.219992 0.715441 0 0.140682
0.075776 0.745097 -3.46945e-18 0.138324
0.715676 0.227544 0 0.19293
0.67013 0.344091 0 0.183444
0.624584 0.421557 0 0.175873
0.743101 0.128874 -7.70372e-34 0.199496
0.715676 0.239487 3.70071e-18 0.192509
0.574156 0.491175 0 0.168379
0.756814 0.00184055 0 0.202577
0.523729 0.546332 0 0.162273
0.756813 0.00558849 0 0.202588
0.756813 0.00947248 0 0.202608
0.756814 0.0134975 -3.46945e-18 0.202634
0.756814 0.0155459 0 0.202963
0.756814 0.0176687 0 0.202649
0.756814 0.0219913 0 0.202642
0.756814 0.0264709 0 0.20262
0.756814 0.031113 -3.46945e-18 0.202589
0.756813 0.0359238 -3.46945e-18 0.202552
0.288433 0.700877 0 0.143502
0.756814 0.0409092 -3.46945e-18 0.202512
0.756813 0.0460755 3.46945e-18 0.202472
0.756813 0.0514296 0 0.20243
0.715676 0.251863 0 0.192059
0.756813 0.0569779 0 0.202388
0.756814 0.0627277 -3.46945e-18 0.202344
0.756814 0.0686863 -3.46945e-18 0.2023
0 0.76019 0 0.137549
0.756814 0.0748612 0 0.202251
0.67013 0.360265 3.46945e-18 0.182753
0.756814 0.0812603 -3.46945e-18 0.202181
0.756814 0.0878917 -3.46945e-18 0.202066
0.756814 0.0947639 -3.46945e-18 0.201914
0.715676 0.264688 0 0.191578
0.756813 0.101886 0 0.201747
0.624584 0.440544 0 0.174988
0.756813 0.109266 3.46945e-18 0.201568
0.756813 0.116914 3.46945e-18 0.201375
0.412065 0.645647 0 0.151091
0.467897 0.606847 0 0.155765
0.756814 0.120806 0 0.201538
0.756813 0.12484 0 0.201168
0.715676 0.27798 0 0.191063
0.756814 0.133054 -3.46945e-18 0.200944
0.67013 0.377026 -3.46945e-18 0.182014
0.756814 0.137234 0 0.201081
0.574156 0.51269 0 0.167324
0.756813 0.141566 3.46945e-18 0.200704
0.685312 0.352034 -7.70372e-34 0.184899
0.743101 0.2049 -7.70372e-34 0.197156
0.350249 0.686824 0 0.146215
0.756814 0.150387 0 0.200446
0.756814 0.154876 0 0.200556
0.715676 0.291753 0 0.190513
0.756814 0.159528 -3.46945e-18 0.20017
0.523729 0.569849 0 0.161087
0.72743 0.264688 0 0.193008
0.756814 0.16418 0 0.200265
0.151552 0.76019 0 0.138019
0.756813 0.169001 3.46945e-18 0.199874
0.624584 0.46022 0 0.174043
0.219993 0.745097 0 0.139225
0.67013 0.394396 0 0.181225
0.756813 0.178818 -3.46945e-18 0.199557
0.715676 0.306027 0 0.189926
0.075776 0.775831 0 0.136771
0.756813 0.188991 0 0.199218
0.756814 0.199535 0 0.198855
0.715676 0.320819 0 0.189298
0.574156 0.534985 0 0.166199
0.288433 0.730005 0 0.142036
0.756813 0.21046 0 0.198468
0.467897 0.632561 0 0.154443
0.67013 0.412396 -3.46945e-18 0.180381
0.624584 0.48061 -3.08149e-33 0.173033
0.756814 0.221782 0 0.198055
0.412065 0.67277 3.08149e-33 0.149693
0.715676 0.336148 0 0.188629
0 0.791472 0 0.135957
0.756813 0.233516 3.46945e-18 0.197613
0.523729 0.594219 0 0.159823
0.624584 0.487654 1.54074e-33 0.172674
0.756814 0.245675 3.46945e-18 0.197142
0.350249 0.715441 3.46945e-18 0.144748
0.67013 0.43105 0 0.17948
0.715676 0.352034 -9.25187e-19 0.187914
0.797951 9.08189e-19 -3.08149e-33 0.208732
0.797951 0.00368111 2.31298e-18 0.208738
0.797951 0.00749587 2.31298e-18 0.208754
0.797951 0.0114491 2.31298e-18 0.208777
0.797951 0.0141803 7.70372e-34 0.208789
0.797951 0.0155459 0 0.208796
0.797951 0.0169611 7.70372e-34 0.208796
0.797951 0.0197915 2.31298e-18 0.208796
0.797951 0.0219913 0 0.208786
0.797951 0.0241911 3.08149e-33 0.208775
0.797951 0.0264709 0 0.208757
0.797951 0.0287506 -3.08149e-33 0.208738
0.797951 0.0334755 2.31298e-18 0.20869
0.797951 0.038372 2.31298e-18 0.208635
0.797951 0.0434463 2.31298e-18 0.208576
0.797951 0.0487048 0 0.208515
0.756813 0.258275 -3.46945e-18 0.19664
0.797951 0.0541543 2.31298e-18 0.208452
0.797951 0.0598016 2.31298e-18 0.208386
0.797951 0.0656539 2.31298e-18 0.208319
0.574156 0.55809 0 0.164999
0.624584 0.501741 0 0.171956
0.797951 0.0717187 2.31298e-18 0.208247
0.797951 0.0780037 -3.08149e-33 0.208159
0.797951 0.0845169 2.31298e-18 0.208035
0.797951 0.0912666 -3.08149e-33 0.207871
0.797951 0.0982613 2.31298e-18 0.207682
0.756813 0.271334 0 0.196105
0.797951 0.10551 2.31298e-18 0.207479
0.715676 0.368496 0 0.187151
0.151552 0.791472 0 0.136431
0.797951 0.113022 2.31298e-18 0.207262
0.219992 0.775831 3.46945e-18 0.137684
0.797951 0.118211 7.70372e-34 0.207107
0.770526 0.239487 1.54074e-33 0.19929
0.797951 0.120806 0 0.20703
0.67013 0.450382 3.46945e-18 0.178518
0.797951 0.128874 3.08149e-33 0.206781
0.467897 0.659208 0 0.153038
0.756813 0.284866 -3.46945e-18 0.195534
0.743101 0.320819 -7.70372e-34 0.192523
0.797951 0.137234 0 0.206514
0.797951 0.141566 0 0.206372
0.797951 0.145897 -9.25187e-19 0.20623
0.523729 0.619475 0 0.158478
0.075776 0.807681 0 0.135139
0.797951 0.150387 0 0.206079
0.797951 0.154876 0 0.205927
0.715676 0.385557 0 0.186338
0.412065 0.700877 3.08149e-33 0.148209
0.288433 0.76019 0 0.140484
0.756813 0.29889 0 0.194926
0.797951 0.16418 0 0.205604
0.624584 0.523639 0 0.170807
0.797951 0.167394 7.70372e-34 0.205489
0.797951 0.173822 2.31298e-18 0.20526
0.574156 0.582034 0 0.163721
0.67013 0.470415 0 0.177492
0.797951 0.183814 2.31298e-18 0.204893
0.756813 0.313423 -3.46945e-18 0.194278
0.797951 0.194169 -9.25187e-19 0.204503
0.715676 0.403236 0 0.185471
0.151552 0.807681 0 0.135594
0.797951 0.197746 -7.70372e-34 0.204365
0.350249 0.745097 0 0.143193
0.797951 0.2049 3.08149e-33 0.204089
0 0.823889 0 0.134284
0.756813 0.328483 -3.46945e-18 0.193588
0.797951 0.21046 0 0.203868
0.797951 0.21602 -3.08149e-33 0.203648
0.797951 0.223703 7.70372e-34 0.203335
0.797951 0.227544 9.25187e-19 0.203179
0.624584 0.546332 0 0.169582
0.715676 0.421557 0 0.184546
0.67013 0.491176 -3.46945e-18 0.176398
0.797951 0.231525 7.70372e-34 0.203013
0.467897 0.686824 -3.46945e-18 0.151544
0.523729 0.645647 0 0.157047
0.756813 0.344091 -3.46945e-18 0.192854
0.822721 0.120806 7.70372e-34 0.210785
0.797951 0.239487 -3.08149e-33 0.202681
0.822721 0.137234 7.70372e-34 0.210228
0.835106 0.00184056 0 0.214569
0.835106 0.00558849 0 0.214581
0.835106 0.00947248 0 0.214602
0.835106 0.0134975 0 0.214627
0.835107 0.0176687 0 0.214637
0.835106 0.0219913 -3.46945e-18 0.214621
0.574156 0.606847 3.46945e-18 0.16236
0.835106 0.0241911 0 0.214761
0.835106 0.0264709 -3.46945e-18 0.214583
0.822721 0.145897 -7.70372e-34 0.209923
0.835106 0.031113 3.46945e-18 0.214527
0.835106 0.0359238 3.46945e-18 0.21446
0.835106 0.0409092 -3.46945e-18 0.214386
0.835106 0.0460755 3.46945e-18 0.214307
0.835106 0.0514296 0 0.214226
0.797951 0.251863 -3.08149e-33 0.202152
0.835106 0.0541543 0 0.214342
0.835106 0.0569779 0 0.214141
0.219992 0.807681 3.46945e-18 0.136056
0.822721 0.154876 7.70372e-34 0.209597
0.835106 0.0627277 0 0.214053
0.151552 0.823889 0 0.134758
0.797951 0.255069 -1.54074e-33 0.202011
0.835106 0.0686863 3.46945e-18 0.213961
0.756814 0.360265 -3.46945e-18 0.192071
0.412065 0.730005 0 0.146634
0.835106 0.0748612 0 0.213861
0.822721 0.16418 7.70372e-34 0.209251
0.835106 0.0812603 0 0.213731
0.835106 0.0878917 -3.46945e-18 0.213554
0.715676 0.440544 0 0.183561
0.835106 0.094764 0 0.213345
0.797951 0.264688 -1.2326e-32 0.20159
0.835106 0.101886 -3.46945e-18 0.213121
0.835106 0.109266 3.46945e-18 0.212883
0.288433 0.791472 0 0.138844
0.835106 0.116914 0 0.212628
0.67013 0.51269 3.46945e-18 0.175232
0.797951 0.274657 6.16298e-33 0.201142
0.075776 0.840686 -3.46945e-18 0.133425
0.835106 0.12484 0 0.212356
0.797951 0.27798 -3.08149e-33 0.200993
0.624584 0.569849 0 0.168278
0.756813 0.377026 -3.46945e-18 0.191239
0.835106 0.133054 3.46945e-18 0.212067
0.835106 0.141565 3.46945e-18 0.211759
0.835106 0.150386 0 0.211432
0.797951 0.291753 0 0.20036
0.835106 0.159528 3.46945e-18 0.211084
0.715676 0.46022 0 0.182512
0.816529 0.239487 -1.54074e-33 0.205285