# pMean  POINT_DATA 63840
# x  y  z  pMean
0 0.5 3.39583e-17 0.149971
0 0.5 -0.00617931 0.150188
0 0.5 0.00617931 0.149758
0.0124865 0.5 -0.00617931 0.150188
0.0124865 0.5 0.00617931 0.149758
0 0.5 -0.0688207 0.152187
0 0.5 0.0688207 0.147406
0.0124865 0.5 -0.0688207 0.152187
0.0124865 0.5 0.0688207 0.147406
0 0.5 -0.075 0.152366
0 0.5 0.075 0.147155
0 0.5 -0.0811793 0.152547
0 0.5 0.0811793 0.146907
0.0124865 0.5 -0.0811793 0.152547
0.0124865 0.5 0.0811793 0.146907
0.075776 0.5 -0.0375 0.151284
0.075776 0.5 0.0375 0.148676
0.075776 0.5 -0.1125 0.153465
0.075776 0.5 0.1125 0.14565
0 0.5 -0.143821 0.154183
0 0.5 0.143821 0.14422
0.0124865 0.5 -0.143821 0.154183
0.0124865 0.5 0.143821 0.14422
0 0.5 -0.15 0.154325
0 0.5 0.15 0.143938
0.151149 0.5 -0.00137318 0.149978
0 0.5 -0.156179 0.15447
0 0.5 0.156179 0.143657
0.0124865 0.5 -0.156179 0.15447
0.0124865 0.5 0.156179 0.143657
0.151149 0.5 0.075 0.14723
0.151149 0.5 -0.075 0.15247
0.075776 0.5 -0.1875 0.155202
0.075776 0.5 0.1875 0.14224
0.151149 0.5 0.15 0.143984
0.151149 0.5 -0.15 0.154443
0 0.5 -0.218821 0.155712
0 0.5 0.218821 0.140662
0.0124865 0.5 -0.218821 0.155712
0.0124865 0.5 0.218821 0.140662
0.219992 0.5 0.0375 0.148847
0.219993 0.5 -0.0375 0.151478
0 0.5 -0.225 0.155812
0 0.5 0.225 0.14035
0 0.5 -0.231179 0.155916
0 0.5 0.231179 0.14004
0.0124865 0.5 -0.231179 0.155916
0.0124865 0.5 0.231179 0.14004
0.219992 0.5 0.1125 0.145763
0.219993 0.5 -0.1125 0.153667
0.151149 0.5 -0.225 0.155956
0.151149 0.5 0.225 0.140372
0.075776 0.5 -0.2625 0.156439
0.075776 0.5 0.2625 0.138475
0.288069 0.5 -0.00137318 0.152456
0.219992 0.5 0.1875 0.142303
0.219993 0.5 -0.1875 0.155449
0 0.5 0.293821 0.136766
0 0.5 -0.293821 0.156774
0.0124865 0.5 -0.293821 0.156774
0.0124865 0.5 0.293821 0.136766
0.288069 0.5 -0.075 0.155087
0.288069 0.5 0.075 0.149584
0 0.5 -0.3 0.15684
0 0.5 0.3 0.136428
0 0.5 0.306179 0.136092
0 0.5 -0.306179 0.156909
0.0124865 0.5 -0.306179 0.156909
0.0124865 0.5 0.306179 0.136092
0.288069 0.5 -0.15 0.157132
0.288069 0.5 0.15 0.146177
0.151149 0.5 -0.3 0.157007
0.151149 0.5 0.3 0.136424
0.219992 0.5 -0.2625 0.156744
0.219992 0.5 0.2625 0.138491
0.075776 0.5 0.3375 0.134395
0.075776 0.5 -0.3375 0.157257
0.350249 0.5 -0.0375 0.156277
0.350249 0.5 0.0375 0.153395
0.288069 0.5 -0.225 0.158684
0.288069 0.5 0.225 0.142375
0.350249 0.5 0.1125 0.150076
0.350249 0.5 -0.1125 0.158642
0 0.5 0.368821 0.13257
0 0.5 -0.368821 0.157413
0.0124865 0.5 -0.368821 0.157413
0.0124865 0.5 0.368821 0.13257
0 0.5 -0.375 0.157444
0 0.5 0.375 0.132209
0 0.5 -0.381179 0.157477
0 0.5 0.381179 0.13185
0.0124865 0.5 -0.381179 0.157477
0.0124865 0.5 0.381179 0.13185
0.350249 0.5 -0.1875 0.160475
0.350249 0.5 0.1875 0.146327
0.219992 0.5 -0.3375 0.157593
0.219992 0.5 0.3375 0.134359
0.151149 0.5 -0.375 0.15762
0.151149 0.5 0.375 0.132177
0.411736 0.5 -0.00137318 0.157808
0.288069 0.5 -0.3 0.159745
0.288069 0.5 0.3 0.138212
0.411736 0.5 -0.075 0.16064
0.411736 0.5 0.075 0.154705
0.075776 0.5 -0.4125 0.157647
0.075776 0.5 0.4125 0.130038
0.350249 0.5 -0.2625 0.161772
0.350249 0.5 0.2625 0.142156
0.411736 0.5 -0.15 0.162798
0.411736 0.5 0.15 0.150999
0 0.5 -0.443821 0.157599
0 0.5 0.443821 0.128114
0.0124865 0.5 -0.443821 0.157599
0.0124865 0.5 0.443821 0.128114
0 0.5 -0.45 0.157589
0 0.5 0.45 0.127734
0 0.5 -0.456179 0.157582
0 0.5 0.456179 0.127356
0.0124865 0.5 -0.456179 0.157582
0.0124865 0.5 0.456179 0.127356
0.219992 0.5 -0.4125 0.157987
0.219993 0.5 0.4125 0.129943
0.411736 0.5 -0.225 0.164389
0.411736 0.5 0.225 0.146847
0.467897 0.5 0.0375 0.159324
0.467897 0.5 -0.0375 0.162393
0.288069 0.5 -0.375 0.160326
0.288069 0.5 0.375 0.133738
0.151149 0.5 -0.45 0.157764
0.151149 0.5 0.45 0.12767
0.467897 0.5 -0.1125 0.164903
0.467897 0.5 0.1125 0.155703
0.350249 0.5 0.3375 0.137644
0.350249 0.5 -0.3375 0.162578
0.075776 0.5 -0.4875 0.157547
0.075776 0.5 0.4875 0.125444
0.467897 0.5 -0.1875 0.166821
0.467897 0.5 0.1875 0.151589
0.411736 0.5 -0.3 0.165429
0.411736 0.5 0.3 0.142292
0 0.5 -0.518821 0.157326
0 0.5 0.518821 0.12344
0.0124865 0.5 0.518821 0.12344
0.0124865 0.5 -0.518821 0.157326
0.523432 0.5 -0.00137318 0.164359
0 0.5 -0.525 0.157282
0 0.5 0.525 0.123043
0.523432 0.5 -0.075 0.167399
0.523432 0.5 0.075 0.160999
0 0.5 -0.531179 0.157241
0 0.5 0.531179 0.122649
0.0124865 0.5 -0.531179 0.157241
0.0124865 0.5 0.531179 0.122649
0.288069 0.5 -0.45 0.1604
0.288069 0.5 0.45 0.128993
0.219992 0.5 -0.4875 0.157881
0.219993 0.5 0.4875 0.125285
0.467897 0.5 -0.2625 0.168133
0.467897 0.5 0.2625 0.147036
0.350249 0.5 -0.4125 0.162857
0.350249 0.5 0.4125 0.132831
0.523432 0.5 -0.15 0.169687
0.523432 0.5 0.15 0.156945
0.151149 0.5 -0.525 0.157448
0.151149 0.5 0.525 0.122945
0.411736 0.5 -0.375 0.165923
0.411736 0.5 0.375 0.13739
0.075776 0.5 -0.5625 0.157034
0.075776 0.5 0.5625 0.120656
0.523432 0.5 -0.225 0.171333
0.523432 0.5 0.225 0.152385
0.574156 0.5 -0.0375 0.169613
0.574156 0.5 0.0375 0.166279
0.467897 0.5 0.3375 0.142075
0.467897 0.5 -0.3375 0.16888
0.574156 0.5 -0.1125 0.172307
0.574156 0.5 0.1125 0.162336
0 0.5 -0.593821 0.156642
0 0.5 0.593821 0.118589
0.0124865 0.5 -0.593821 0.156642
0.0124865 0.5 0.593821 0.118589
0.288069 0.5 -0.525 0.159984
0.288069 0.5 0.525 0.124023
0 0.5 -0.6 0.156564
0 0.5 0.6 0.11818
0.350249 0.5 -0.4875 0.162593
0.350249 0.5 0.4875 0.127762
0.523432 0.5 -0.3 0.17235
0.523432 0.5 0.3 0.147374
0.219992 0.5 -0.5625 0.157335
0.219992 0.5 0.5625 0.12043
0.574156 0.5 -0.1875 0.174326
0.574156 0.5 0.1875 0.15782
0 0.5 -0.606179 0.156489
0 0.5 0.606179 0.117773
0.0124865 0.5 -0.606179 0.156489
0.0124865 0.5 0.606179 0.117773
0.411736 0.5 -0.45 0.165848
0.411736 0.5 0.45 0.132194
0.151149 0.5 -0.6 0.156712
0.151149 0.5 0.6 0.118046
0.62168 0.5 2.64545e-17 0.171637
0.467897 0.5 0.4125 0.136781
0.467897 0.5 -0.4125 0.169028
0.624316 0.5 0.0729402 0.168207
0.624316 0.5 -0.075 0.175179
0.574156 0.5 -0.2625 0.175658
0.574157 0.5 0.2625 0.152787
0.075776 0.5 -0.6375 0.15611
0.075776 0.5 0.6375 0.115717
0.624316 0.5 -0.15 0.177621
0.624316 0.5 0.15 0.163756
0.523432 0.5 -0.375 0.172743
0.523432 0.5 0.375 0.141973
0.350249 0.5 -0.5625 0.161858
0.350249 0.5 0.5625 0.122492
0.624316 0.5 -0.225 0.179333
0.624316 0.5 0.225 0.158724
0.288069 0.5 0.6 0.118878
0.288069 0.5 -0.6 0.159125
0.574156 0.5 -0.3375 0.176337
0.574156 0.5 0.3375 0.147313
0.411736 0.5 -0.525 0.165239
0.411736 0.5 0.525 0.12676
0 0.5 -0.668821 0.155561
0 0.5 0.668821 0.113604
0.0124865 0.5 -0.668821 0.155561
0.0124865 0.5 0.668821 0.113604
0.67013 0.5 0.0375 0.174095
0.67013 0.5 -0.0375 0.177745
0.219993 0.5 -0.6375 0.156377
0.219993 0.5 0.6375 0.11542
0 0.5 -0.675 0.155452
0 0.5 0.675 0.113186
0.467897 0.5 0.4875 0.131204
0.467897 0.5 -0.4875 0.168577
0.67013 0.5 -0.1125 0.180654
0.67013 0.5 0.1125 0.169753
0 0.5 -0.681179 0.155346
0 0.5 0.681179 0.112769
0.0124865 0.5 -0.681179 0.155346
0.0124865 0.5 0.681179 0.112769
0.523432 0.5 -0.45 0.172502
0.523432 0.5 0.45 0.136247
0.151149 0.5 -0.675 0.15558
0.151149 0.5 0.675 0.113015
0.624316 0.5 -0.3 0.180325
0.624316 0.5 0.3 0.153182
0.67013 0.5 0.1875 0.164769
0.67013 0.5 -0.1875 0.182791
0.574156 0.5 -0.4125 0.176342
0.574157 0.5 0.4125 0.141467
0.708171 0.5 1.88651e-17 0.179275
0.075776 0.5 -0.7125 0.15481
0.075776 0.5 0.7125 0.110667
0.715434 0.5 0.0736268 0.17589
0.715434 0.5 -0.075 0.183718
0.67013 0.5 0.2625 0.159202
0.67013 0.5 -0.2625 0.184147
0.350249 0.5 -0.6375 0.160674
0.350249 0.5 0.6375 0.117072
0.411736 0.5 -0.6 0.164145
0.411736 0.5 0.6 0.121145
0.624316 0.5 -0.375 0.180604
0.624316 0.5 0.375 0.147205
0.715434 0.5 -0.15 0.186336
0.715434 0.5 0.15 0.171173
0.467897 0.5 -0.5625 0.167604
0.467897 0.5 0.5625 0.125411
0.288069 0.5 -0.675 0.157851
0.288069 0.5 0.675 0.113604
0.523432 0.5 -0.525 0.171666
0.523432 0.5 0.525 0.130261
0 0.5 -0.743821 0.154115
0 0.5 0.743821 0.108526
0.0124865 0.5 -0.743821 0.154115
0.0124865 0.5 0.743821 0.108526
0.219992 0.5 0.7125 0.110299
0.219992 0.5 -0.7125 0.155034
0.715434 0.5 -0.225 0.188122
0.715434 0.5 0.225 0.165606
0 0.5 -0.75 0.153978
0 0.5 0.75 0.108102
0.67013 0.5 0.3375 0.153134
0.67013 0.5 -0.3375 0.184748
0.574156 0.5 -0.4875 0.175684
0.574156 0.5 0.4875 0.135311
0 0.5 -0.756179 0.153842
0 0.5 0.756179 0.10768
0.0124865 0.5 -0.756179 0.153842
0.0124865 0.5 0.756179 0.10768
0.756813 0.5 -0.0375 0.186467
0.756813 0.5 0.0375 0.182467
0.151149 0.5 -0.75 0.154082
0.151149 0.5 0.75 0.107894
0.756813 0.5 -0.1125 0.189618
0.756813 0.5 0.1125 0.177676
0.624316 0.5 -0.45 0.180171
0.624316 0.5 0.45 0.14087
0.715434 0.5 -0.3 0.189084
0.715434 0.5 0.3 0.159464
0.756813 0.5 0.1875 0.172159
0.756813 0.5 -0.1875 0.191885
0.67013 0.5 -0.4125 0.184585
0.67013 0.5 0.4125 0.146647
0.411736 0.5 -0.675 0.162595
0.411736 0.5 0.675 0.115405
0.467897 0.5 0.6375 0.119464
0.467897 0.5 -0.6375 0.166131
0.075776 0.5 -0.7875 0.15316
0.075776 0.5 0.7875 0.105549
0.350249 0.5 -0.7125 0.159076
0.350249 0.5 0.7125 0.111553
0.523432 0.5 -0.6 0.170289
0.523432 0.5 0.6 0.124085
0.797732 0.5 2.68882e-17 0.188972
0.756813 0.5 -0.2625 0.193265
0.756814 0.5 0.2625 0.165989
0.797732 0.5 0.0736268 0.184148
0.797732 0.5 -0.075 0.192718
0.288069 0.5 -0.75 0.156193
0.288069 0.5 0.75 0.108249
0.574156 0.5 -0.5625 0.174437
0.574157 0.5 0.5625 0.128924
0.715434 0.5 -0.375 0.189231
0.715434 0.5 0.375 0.152836
0.797732 0.5 -0.15 0.195535
0.797732 0.5 0.15 0.178921
0.624316 0.5 -0.525 0.179073
0.624316 0.5 0.525 0.134255
0.219992 0.5 -0.7875 0.153336
0.219992 0.5 0.7875 0.105108
0 0.5 -0.818821 0.152333
0 0.5 0.818821 0.103396
0.0124865 0.5 0.818821 0.103396
0.0124865 0.5 -0.818821 0.152333
0 0.5 -0.825 0.15217
0 0.5 0.825 0.102971
0.756813 0.5 0.3375 0.159255
0.756814 0.5 -0.3375 0.193777
0.67013 0.5 -0.4875 0.183682
0.67013 0.5 0.4875 0.139827
0.797732 0.5 -0.225 0.197402
0.797732 0.5 0.225 0.172758
0 0.5 -0.831179 0.152008
0 0.5 0.831179 0.102547
0.0124865 0.5 -0.831179 0.152008
0.0124865 0.5 0.831179 0.102547
0.835106 0.5 0.0375 0.191109
0.835106 0.5 -0.0375 0.1955
0.151149 0.5 -0.825 0.152248
0.151149 0.5 0.825 0.102727
0.835106 0.5 0.1125 0.185824
0.835106 0.5 -0.1125 0.198927
0.715434 0.5 -0.45 0.188578
0.715434 0.5 0.45 0.145814
0.797732 0.5 -0.3 0.198332
0.797732 0.5 0.3 0.165953
0.467897 0.5 0.7125 0.113421
0.467897 0.5 -0.7125 0.164206
0.523432 0.5 -0.675 0.168409
0.523432 0.5 0.675 0.117787
0.411736 0.5 -0.75 0.160632
0.411736 0.5 0.75 0.109595
0.835106 0.5 -0.1875 0.20134
0.835106 0.5 0.1875 0.179719
0.574156 0.5 -0.6375 0.172635
0.574157 0.5 0.6375 0.122382
0.350249 0.5 -0.7875 0.157101
0.350249 0.5 0.7875 0.105985
0.756813 0.5 -0.4125 0.193422
0.756814 0.5 0.4125 0.152061
0.075776 0.5 -0.8625 0.151193
0.075776 0.5 0.8625 0.100404
0.624316 0.5 0.6 0.127445
0.624316 0.5 -0.6 0.177366
0.872064 0.5 5.91974e-17 0.197908
0.870122 0.5 0.075 0.192335
0.288069 0.5 -0.825 0.154187
0.288069 0.5 0.825 0.102858
0.67013 0.5 -0.5625 0.182111
0.67013 0.5 0.5625 0.132764
0.872064 0.5 -0.075 0.201997
0.835106 0.5 -0.2625 0.202745
0.835106 0.5 0.2625 0.172887
0.797732 0.5 -0.375 0.198339
0.797732 0.5 0.375 0.158609
0.872064 0.5 0.14794 0.186843
0.872064 0.5 -0.15 0.205027
0.715434 0.5 -0.525 0.187176
0.715434 0.5 0.525 0.138495
0.219992 0.5 0.8625 0.0998968
0.219993 0.5 -0.8625 0.151317
0 0.5 -0.893821 0.150248
0 0.5 0.893821 0.0982587
0.0124865 0.5 -0.893821 0.150248
0.0124865 0.5 0.893821 0.0982587
0 0.5 -0.9 0.15006
0 0.5 0.9 0.0978345
0.756813 0.5 -0.4875 0.192243
0.756813 0.5 0.4875 0.144509
0.872064 0.5 -0.225 0.20697
0.872064 0.5 0.225 0.180035
0.835106 0.5 -0.3375 0.203169
0.835106 0.5 0.3375 0.16543
0 0.5 0.906179 0.0974117
0 0.5 -0.906179 0.149875
0.0124865 0.5 -0.906179 0.149875
0.0124865 0.5 0.906179 0.0974117
0.90582 0.5 -0.0375 0.204758
0.90582 0.5 0.0375 0.199954
0.151149 0.5 -0.9 0.150111
0.151149 0.5 0.9 0.0975576
0.90582 0.5 -0.1125 0.208477
0.905821 0.5 0.1125 0.194144
0.523432 0.5 -0.75 0.166078
0.523432 0.5 0.75 0.111431
0.574156 0.5 -0.7125 0.170335
0.574156 0.5 0.7125 0.115754
0.797732 0.5 -0.45 0.197448
0.797732 0.5 0.45 0.15084
0.467897 0.5 0.7875 0.107343
0.467897 0.5 -0.7875 0.161872
0.624316 0.5 -0.675 0.175103
0.624316 0.5 0.675 0.120519
0.411736 0.5 -0.825 0.158299
0.411736 0.5 0.825 0.103768
0.872064 0.5 0.3 0.172513
0.872064 0.5 -0.3 0.207862
0.67013 0.5 -0.6375 0.179921
0.67013 0.5 0.6375 0.125549
0.90582 0.5 0.1875 0.187414
0.905821 0.5 -0.1875 0.21103
0.350249 0.5 -0.8625 0.154788
0.350249 0.5 0.8625 0.100414
0.835106 0.5 -0.4125 0.202622
0.835106 0.5 0.4125 0.157471
0.715434 0.5 -0.6 0.185088
0.715434 0.5 0.6 0.130977
0.939201 0.5 2.75387e-17 0.206801
0.075776 0.5 0.9375 0.0952757
0.075776 0.5 -0.9375 0.148941
0.939111 0.5 0.075 0.200722
0.939201 0.5 -0.075 0.211274
0.756813 0.5 0.5625 0.1367
0.756814 0.5 -0.5625 0.190302
0.90582 0.5 0.2625 0.179872
0.905821 0.5 -0.2625 0.21243
0.288069 0.5 -0.9 0.151871
0.288069 0.5 0.9 0.0974774
0.872064 0.5 -0.375 0.207728
0.872064 0.5 0.375 0.164399
0.939201 0.5 0.148627 0.194502
0.939201 0.5 -0.15 0.21455
0.797732 0.5 -0.525 0.195712
0.797732 0.5 0.525 0.142756
0.219992 0.5 0.9375 0.0947079
0.219992 0.5 -0.9375 0.14901
0.939201 0.5 -0.225 0.216571
0.939201 0.5 0.225 0.187142
0.905821 0.5 -0.3375 0.21277
0.90582 0.5 0.3375 0.171644
0.835106 0.5 -0.4875 0.20115
0.835106 0.5 0.4875 0.149133
0 0.5 0.968821 0.0931499
0 0.5 -0.968821 0.14789
0.0124865 0.5 -0.968821 0.14789
0.0124865 0.5 0.968821 0.0931499
0.969689 0.5 -0.0375 0.213754
0.969689 0.5 0.0375 0.20848
0.574156 0.5 -0.7875 0.167593
0.574156 0.5 0.7875 0.10911
0 0.5 -0.975 0.147682
0 0.5 0.975 0.0927297
0.624316 0.5 -0.75 0.172348
0.624316 0.5 0.75 0.113553
0.969689 0.5 -0.1125 0.217834
0.96969 0.5 0.1125 0.202091
0.523432 0.5 -0.825 0.163351
0.523432 0.5 0.825 0.105078
0.67013 0.5 0.7125 0.118265
0.67013 0.5 -0.7125 0.177182
0 0.5 -0.981179 0.147476
0 0.5 0.981179 0.0923106
0.467897 0.5 0.8625 0.101282
0.467897 0.5 -0.8625 0.159181
0.0124865 0.5 -0.981179 0.147476
0.0124865 0.5 0.981179 0.0923106
0.872064 0.5 -0.45 0.206585
0.872064 0.5 0.45 0.155827
0.715434 0.5 -0.675 0.182384
0.715434 0.5 0.675 0.123355
0.939201 0.5 -0.3 0.21743
0.939201 0.5 0.3 0.178863
0.151149 0.5 0.975 0.0924186
0.151149 0.5 -0.975 0.147704
0.969689 0.5 -0.1875 0.220576
0.969689 0.5 0.1875 0.194687
0.756813 0.5 -0.6375 0.187671
0.756813 0.5 0.6375 0.128748
0.411736 0.5 -0.9 0.155639
0.411736 0.5 0.9 0.0979738
0.90582 0.5 -0.4125 0.212023
0.90582 0.5 0.4125 0.162859
0.995005 0.5 0.0749309 0.20809
0.797732 0.5 -0.6 0.193201
0.797732 0.5 0.6 0.134476
1.00005 0.5 -8.47123e-18 0.215434
0.350249 0.5 -0.9375 0.152178
0.350249 0.5 0.9375 0.0948852
1.00005 0.5 -0.0749309 0.2203
0.969689 0.5 -0.2625 0.221964
0.969689 0.5 0.2625 0.186397
0.835106 0.5 -0.5625 0.198811
0.835106 0.5 0.5625 0.140528
1.00005 0.5 -0.149862 0.223818
0.939201 0.5 -0.375 0.217178
0.939201 0.5 0.375 0.16994
1.00029 0.5 0.148988 0.20194
0.075776 0.5 -1.0125 0.146437
0.075776 0.5 1.0125 0.0901936
0.288069 0.5 0.975 0.0921432
0.288069 0.5 -0.975 0.14928
0.872064 0.5 -0.525 0.204482
0.872064 0.5 0.525 0.14693
1.00005 0.5 0.224793 0.193917
1.00005 0.5 -0.224793 0.225858
0.969689 0.5 0.3375 0.177365
0.96969 0.5 -0.3375 0.22227
1.0271 0.5 -0.0368226 0.22262
1.0271 0.5 0.0368226 0.216969
0.90582 0.5 0.4875 0.153686
0.905821 0.5 -0.4875 0.210226
1.0271 0.5 -0.110468 0.226987
1.0271 0.5 0.110468 0.208856
0.67013 0.5 0.7875 0.110989
0.67013 0.5 -0.7875 0.173964
0.624316 0.5 0.825 0.106617
0.624316 0.5 -0.825 0.169166
0.219993 0.5 -1.0125 0.146449
0.219993 0.5 1.0125 0.0895547
0.574156 0.5 -0.8625 0.164471
0.574156 0.5 0.8625 0.102511
0.715434 0.5 -0.75 0.179142
0.715434 0.5 0.75 0.115717
0.756813 0.5 0.7125 0.120748
0.756814 0.5 -0.7125 0.184436
0.523432 0.5 -0.9 0.16028
0.523432 0.5 0.9 0.0987846
0.939201 0.5 -0.45 0.215788
0.939201 0.5 0.45 0.160531
1.04168 0.5 0 0.222382
1.0271 0.5 -0.184113 0.229843
1.0271 0.5 0.184113 0.202111
0 0.5 -1.04382 0.145295
0 0.5 1.04382 0.0881023
0.0124865 0.5 -1.04382 0.145295
0.0124865 0.5 1.04382 0.0881023
1.00005 0.5 -0.299723 0.226656
1.00005 0.5 0.299723 0.184837
1.04168 0.5 -0.0729162 0.22747
1.04168 0.5 0.0729162 0.21605
0.797732 0.5 -0.675 0.190007
0.797732 0.5 0.675 0.126115
0.467897 0.5 0.9375 0.0952918
0.467897 0.5 -0.9375 0.15618
0 0.5 -1.05 0.145068
0 0.5 1.05 0.0876889
0.835106 0.5 -0.6375 0.195697
0.835106 0.5 0.6375 0.131805
1.04168 0.5 -0.145832 0.231175
1.04168 0.5 0.145832 0.208545
0.969689 0.5 -0.4125 0.221366
0.96969 0.5 0.4125 0.167745
0 0.5 -1.05618 0.144844
0 0.5 1.05618 0.0872765
0.0124865 0.5 -1.05618 0.144844
0.0124865 0.5 1.05618 0.0872765
1.05695 0.5 -0.0360764 0.227846
1.05695 0.5 0.0360764 0.222072
0.411736 0.5 -0.975 0.152698
0.411736 0.5 0.975 0.0922607
0.872064 0.5 -0.6 0.201504
0.872064 0.5 0.6 0.13784
1.0271 0.5 -0.257759 0.231139
1.0271 0.5 0.257759 0.19316
0.151149 0.5 -1.05 0.14506
0.151149 0.5 1.05 0.0873409
1.05695 0.5 0.108229 0.215389
1.05695 0.5 -0.108229 0.232367
1.04168 0.5 -0.218749 0.233284
1.04168 0.5 0.218749 0.2
0.90582 0.5 -0.5625 0.207437
0.905821 0.5 0.5625 0.144244
1.00005 0.5 -0.374654 0.226297
1.00005 0.5 0.374654 0.175057
0.350249 0.5 1.0125 0.0894386
0.350249 0.5 -1.0125 0.149311
1.05695 0.5 -0.180382 0.235385
1.05695 0.5 0.180382 0.206948
1.07319 0.5 0.0709442 0.219953
0.939201 0.5 -0.525 0.213307
0.939201 0.5 0.525 0.150787
1.0271 0.5 -0.331404 0.231429
1.0271 0.5 0.331404 0.1834
1.08112 0.5 3.23815e-17 0.229273
1.04168 0.5 -0.291665 0.234084
1.04168 0.5 0.291665 0.190564
1.08112 0.5 -0.0709442 0.234553
0.969689 0.5 -0.4875 0.219262
0.96969 0.5 0.4875 0.157713
1.05695 0.5 0.252535 0.197861
1.05695 0.5 -0.252535 0.236703
0.288069 0.5 -1.05 0.146451
0.288069 0.5 1.05 0.0868854
0.075776 0.5 -1.0875 0.143713
0.075776 0.5 1.0875 0.0851937
1.08112 0.5 -0.141888 0.238469
1.08145 0.5 0.140165 0.214678
0.715434 0.5 0.825 0.108141
0.715434 0.5 -0.825 0.175443
0.756813 0.5 0.7875 0.112787
0.756814 0.5 -0.7875 0.180682
0.67013 0.5 -0.8625 0.170343
0.67013 0.5 0.8625 0.103793
0.797732 0.5 -0.75 0.186226
0.797732 0.5 0.75 0.117772
0.624316 0.5 -0.9 0.165625
0.624316 0.5 0.9 0.0997741
1.00005 0.5 -0.449585 0.224633
1.00005 0.5 0.449585 0.164756
0.835106 0.5 -0.7125 0.191921
0.835106 0.5 0.7125 0.123069
0.574156 0.5 -0.9375 0.161028
0.574157 0.5 0.9375 0.0960157
1.10076 0.5 -0.0349809 0.235812
1.10076 0.5 0.0349809 0.229809
1.08112 0.5 -0.212832 0.240736
1.08112 0.5 0.212832 0.206302
0.872064 0.5 -0.675 0.197773
0.872064 0.5 0.675 0.128696
1.04168 0.5 -0.364581 0.233763
1.04168 0.5 0.364581 0.180404
1.0271 0.5 0.405049 0.173006
1.0271 0.5 -0.405049 0.230405
1.05695 0.5 -0.324688 0.237034
1.05695 0.5 0.324688 0.187959
1.10076 0.5 -0.104943 0.240579
1.10076 0.5 0.104943 0.222556
0.523432 0.5 0.975 0.092606
0.523432 0.5 -0.975 0.156921
0.90582 0.5 0.6375 0.134685
0.905821 0.5 -0.6375 0.203785
0.219992 0.5 1.0875 0.084483
0.219992 0.5 -1.0875 0.143667
1.11376 0.5 3.81639e-17 0.235117
0.939201 0.5 0.6 0.140871
0.939201 0.5 -0.6 0.209835
1.10076 0.5 -0.174905 0.243872
1.10076 0.5 0.174905 0.214178
0.467897 0.5 -1.0125 0.152917
0.467897 0.5 1.0125 0.0894306
1.11376 0.5 -0.0693118 0.240575
1.11376 0.5 0.0693118 0.228407
1.08112 0.5 0.283777 0.196655
1.08112 0.5 -0.283777 0.241606
0 0.5 -1.11882 0.142492
0 0.5 1.11882 0.083147
0.0124865 0.5 -1.11882 0.142492
0.0124865 0.5 1.11882 0.083147
0.969689 0.5 -0.5625 0.216039
0.969689 0.5 0.5625 0.147412
1.11376 0.5 0.138624 0.219813
1.11376 0.5 -0.138624 0.244675
0 0.5 -1.125 0.142249
0 0.5 1.125 0.0827425
1.10076 0.5 0.244866 0.204824
1.10076 0.5 -0.244866 0.2453
0.411736 0.5 -1.05 0.14952
0.411736 0.5 1.05 0.086668
1.05695 0.5 -0.396841 0.236088
1.05695 0.5 0.396841 0.177417
1.00005 0.5 -0.524516 0.22172
1.00005 0.5 0.524516 0.154114
1.04168 0.5 -0.437497 0.232081
1.04168 0.5 0.437497 0.169702
0 0.5 -1.13118 0.14201
0 0.5 1.13118 0.0823388
0.0124865 0.5 -1.13118 0.14201
0.0124865 0.5 1.13118 0.0823388
1.11376 0.5 -0.207935 0.24709
1.11376 0.5 0.207935 0.211535
1.0271 0.5 -0.478694 0.228013
1.0271 0.5 0.478694 0.162171
0.151149 0.5 -1.125 0.142212
0.151149 0.5 1.125 0.0823597
1.08112 0.5 -0.354722 0.241356
1.08112 0.5 0.354722 0.186273
1.13882 0.5 -0.0340295 0.242788
1.13882 0.5 0.0340295 0.236559
0.350249 0.5 -1.0875 0.146226
0.350249 0.5 1.0875 0.0840959
1.13882 0.5 -0.102088 0.247747
1.13882 0.5 0.102088 0.22896
1.10076 0.5 -0.314829 0.2457
1.10076 0.5 0.314829 0.194639
0.756813 0.5 -0.8625 0.176504
0.756814 0.5 0.8625 0.104945
0.797732 0.5 -0.825 0.181958
0.797732 0.5 0.825 0.10953
1.11376 0.5 -0.277247 0.248031
1.11376 0.5 0.277247 0.201659
0.835106 0.5 0.7875 0.114422
0.835106 0.5 -0.7875 0.187586
0.715434 0.5 -0.9 0.171369
0.715434 0.5 0.9 0.100701
0.872064 0.5 -0.75 0.193407
0.872064 0.5 0.75 0.119603
1.13882 0.5 0.170147 0.220409
1.13882 0.5 -0.170147 0.251224
0.67013 0.5 -0.9375 0.16639
0.67013 0.5 0.9375 0.0967424
0.905821 0.5 -0.7125 0.199422
0.905821 0.5 0.7125 0.125154
1.05695 0.5 0.468994 0.166423
1.05695 0.5 -0.468994 0.233729
0.939201 0.5 -0.675 0.205533
0.939201 0.5 0.675 0.130964
0.624316 0.5 0.975 0.0930827
0.624316 0.5 -0.975 0.161789
1.04168 0.5 -0.510414 0.229098
1.04168 0.5 0.510414 0.158651
0.969689 0.5 -0.6375 0.211833
0.96969 0.5 0.6375 0.137077
0.288069 0.5 -1.125 0.14342
0.288069 0.5 1.125 0.0817351
1.16179 0.5 5.78241e-19 0.24423
1.08112 0.5 0.425666 0.175335
1.08112 0.5 -0.425666 0.239748
1.13882 0.5 -0.238206 0.252802
1.13882 0.5 0.238206 0.210763
1.16179 0.5 0.0669104 0.23751
1.16179 0.5 -0.0669104 0.249964
0.574156 0.5 -1.0125 0.157322
0.574156 0.5 1.0125 0.0896744
0.075776 0.5 -1.1625 0.1408
0.075776 0.5 1.1625 0.0803002
1.00005 0.5 -0.599447 0.217691
1.00005 0.5 0.599447 0.143312
1.10076 0.5 0.384791 0.1838
1.10076 0.5 -0.384791 0.244884
1.0271 0.5 -0.55234 0.224374
1.0271 0.5 0.55234 0.151086
1.11376 0.5 -0.346559 0.247847
1.11376 0.5 0.346559 0.191034
1.16179 0.5 -0.133821 0.254333
1.16179 0.5 0.133821 0.228912
0.523432 0.5 -1.05 0.153325
0.523432 0.5 1.05 0.0865919
1.17463 0.5 -0.0331343 0.249767
1.17463 0.5 0.0331343 0.243316
1.17463 0.5 -0.0994029 0.25494
1.17463 0.5 0.0994029 0.23556
1.16179 0.5 -0.200731 0.256955
1.16179 0.5 0.200731 0.219633
1.13882 0.5 -0.306265 0.253252
1.13882 0.5 0.306265 0.200266
0.219992 0.5 -1.1625 0.140696
0.219992 0.5 1.1625 0.0795268
0.467897 0.5 -1.0875 0.14944
0.467897 0.5 1.0875 0.0837321
1.17463 0.5 0.165672 0.22664
1.17463 0.5 -0.165672 0.258655
1.05695 0.5 -0.541147 0.230193
1.05695 0.5 0.541147 0.155173
1.18772 0.5 -5.78241e-19 0.249158
1.11376 0.5 -0.41587 0.24629
1.11376 0.5 0.41587 0.179838
1.18772 0.5 -0.065614 0.255053
1.18772 0.5 0.065614 0.241449
1.08112 0.5 -0.49661 0.236829
1.08112 0.5 0.49661 0.164033
1.10076 0.5 -0.454752 0.242566
1.10076 0.5 0.454752 0.172488
1.18534 0.5 0.118202 0.23353
1.16179 0.5 -0.267642 0.258008
1.16179 0.5 0.267642 0.209365
0 0.5 -1.19382 0.139512
0 0.5 1.19382 0.0783122
0.0124865 0.5 1.19382 0.0783122
0.0124865 0.5 -1.19382 0.139512
1.04168 0.5 -0.58333 0.224914
1.04168 0.5 0.58333 0.147429
1.18772 0.5 -0.131228 0.259582
1.17463 0.5 -0.23194 0.260317
1.17463 0.5 0.23194 0.216705
0.411736 0.5 -1.125 0.146144
0.411736 0.5 1.125 0.0812166
1.13882 0.5 -0.374324 0.252497
1.13882 0.5 0.374324 0.189094
0 0.5 -1.2 0.139257
0 0.5 1.2 0.0779193
0.905821 0.5 0.7875 0.115726
0.905821 0.5 -0.7875 0.194455
0.872064 0.5 -0.825 0.188527
0.872064 0.5 0.825 0.110654
0.835106 0.5 0.8625 0.105931
0.835106 0.5 -0.8625 0.182805
0.939201 0.5 -0.75 0.200556
0.939201 0.5 0.75 0.12118
0.797732 0.5 -0.9 0.177301
0.797732 0.5 0.9 0.101471
1.0271 0.5 0.625985 0.139905
1.0271 0.5 -0.625985 0.219655
0.969689 0.5 0.7125 0.126895
0.96969 0.5 -0.7125 0.206865
1.18772 0.5 -0.196842 0.262343
1.18772 0.5 0.196842 0.224001
0.756814 0.5 -0.9375 0.171987
0.756814 0.5 0.9375 0.0973017
0 0.5 1.20618 0.0775272
0 0.5 -1.20618 0.139004
1.00005 0.5 -0.674378 0.212765
1.00005 0.5 0.674378 0.132511
0.0124865 0.5 1.20618 0.0775272
0.0124865 0.5 -1.20618 0.139004
1.16179 0.5 -0.334552 0.257916
1.16179 0.5 0.334552 0.198318
0.715434 0.5 0.975 0.0934614
0.715434 0.5 -0.975 0.166999
0.151149 0.5 -1.2 0.13919
0.151149 0.5 1.2 0.077503
1.20942 0.5 0.0322645 0.250193
1.20942 0.5 -0.0322645 0.256962
1.17463 0.5 -0.298209 0.260834
1.17463 0.5 0.298209 0.205898
1.20942 0.5 -0.0967935 0.262347
1.20942 0.5 0.0967935 0.242278
0.350249 0.5 -1.1625 0.142959
0.350249 0.5 1.1625 0.0788815
0.67013 0.5 1.0125 0.0898902
0.67013 0.5 -1.0125 0.162174
1.11376 0.5 0.485183 0.168264
1.11376 0.5 -0.485183 0.243383
1.18772 0.5 0.262456 0.213522
1.18772 0.5 -0.262456 0.263474
1.10076 0.5 -0.524714 0.239086
1.10076 0.5 0.524714 0.160906
1.20942 0.5 -0.161322 0.266293
1.20942 0.5 0.161322 0.233096
1.08112 0.5 -0.567554 0.232677
1.08112 0.5 0.567554 0.152555
0.624316 0.5 -1.05 0.15772
0.624316 0.5 1.05 0.0865954
1.13882 0.5 -0.442383 0.250188
1.13882 0.5 0.442383 0.177428
1.05695 0.5 0.6133 0.143834
1.05695 0.5 -0.6133 0.225414
1.16179 0.5 -0.401463 0.256416
1.16179 0.5 0.401463 0.186672
0.574156 0.5 -1.0875 0.153407
0.574156 0.5 1.0875 0.0835435
1.17463 0.5 0.364477 0.194396
1.17463 0.5 -0.364477 0.260196
1.20942 0.5 -0.225851 0.268112
1.20942 0.5 0.225851 0.222885
1.23036 0.5 -1.32995e-17 0.258231
1.2294 0.5 0.0634819 0.24956
1.04168 0.5 -0.656246 0.219757
1.04168 0.5 0.656246 0.136194
1.23036 0.5 -0.0634819 0.264395
1.18772 0.5 0.32807 0.202251
1.18772 0.5 -0.32807 0.26345
0.288069 0.5 -1.2 0.140221
0.288069 0.5 1.2 0.0767223
1.23036 0.5 -0.126964 0.269199
1.23036 0.5 0.126964 0.241998
0.075776 0.5 -1.2375 0.137727
0.075776 0.5 1.2375 0.0755468
0.523432 0.5 -1.125 0.149541
0.523432 0.5 1.125 0.0807711
1.0271 0.5 -0.69963 0.214147
1.0271 0.5 0.69963 0.128732
1.24274 0.5 0.0314313 0.257271
1.24274 0.5 -0.0314313 0.264184
1.20942 0.5 0.29038 0.211782
1.20942 0.5 -0.29038 0.268703
1.11376 0.5 -0.554494 0.239223
1.11376 0.5 0.554494 0.156502
1.23036 0.5 -0.190445 0.272192
1.23036 0.5 0.190445 0.232136
1.24274 0.5 -0.0942942 0.269785
1.24274 0.5 0.0942942 0.249014
1.13882 0.5 0.510442 0.165476
1.13882 0.5 -0.510442 0.246661
0.969689 0.5 -0.7875 0.201273
0.969689 0.5 0.7875 0.11692
1.00005 0.5 -0.749309 0.207141
1.00005 0.5 0.749309 0.121835
0.939201 0.5 -0.825 0.195041
0.939201 0.5 0.825 0.111566
0.90582 0.5 0.8625 0.106523
0.90582 0.5 -0.8625 0.18904
1.17463 0.5 -0.430746 0.257891
1.17463 0.5 0.430746 0.18238
1.10076 0.5 -0.594676 0.234284
1.10076 0.5 0.594676 0.149228
1.18772 0.5 -0.393684 0.26201
1.18772 0.5 0.393684 0.190369
1.24274 0.5 -0.157157 0.273985
1.24274 0.5 0.157157 0.239568
1.16179 0.5 -0.468373 0.253491
1.16179 0.5 0.468373 0.174624
0.467897 0.5 -1.1625 0.145791
0.467897 0.5 1.1625 0.0782014
0.872064 0.5 -0.9 0.183253
0.872064 0.5 0.9 0.101956
1.25401 0.5 2.08167e-17 0.26305
0.835106 0.5 0.9375 0.097695
0.835106 0.5 -0.9375 0.177677
1.25401 0.5 -0.0622994 0.269374
1.25401 0.5 0.0622994 0.255061
1.08112 0.5 -0.638498 0.227465
1.08112 0.5 0.638498 0.141087
1.23036 0.5 -0.253927 0.273461
1.23036 0.5 0.253927 0.221301
0.219992 0.5 1.2375 0.0747067
0.219992 0.5 -1.2375 0.137567
1.25309 0.5 0.121964 0.246463
1.05695 0.5 0.685452 0.132599
1.05695 0.5 -0.685452 0.219843
0.797732 0.5 0.975 0.093667
0.797732 0.5 -0.975 0.17235
1.25401 0.5 -0.124599 0.274343
1.20942 0.5 -0.354909 0.268177
1.20942 0.5 0.354909 0.199963
1.24274 0.5 -0.220019 0.275969
1.24274 0.5 0.220019 0.229077
0.756814 0.5 -1.0125 0.167217
0.756813 0.5 1.0125 0.0899148
1.25401 0.5 -0.186898 0.277496
1.25401 0.5 0.186898 0.236411
0.411736 0.5 -1.2 0.142613
0.411736 0.5 1.2 0.0759344
0 0.5 -1.26882 0.136386
0 0.5 1.26882 0.073623
0.0124865 0.5 1.26882 0.073623
0.0124865 0.5 -1.26882 0.136386
0.715434 0.5 -1.05 0.162404
0.715434 0.5 1.05 0.0864752
1.23036 0.5 -0.31741 0.273551
1.23036 0.5 0.31741 0.209648
1.04168 0.5 -0.729162 0.213877
1.04168 0.5 0.729162 0.125096
1.18772 0.5 -0.459298 0.2591
1.18772 0.5 0.459298 0.17807
1.24274 0.5 -0.282882 0.276642
1.24274 0.5 0.282882 0.217675
0 0.5 -1.275 0.13612
0 0.5 1.275 0.0732429
1.27472 0.5 -0.0306319 0.271421
1.27472 0.5 0.0306319 0.264272
1.17463 0.5 0.497015 0.170062
1.17463 0.5 -0.497015 0.254361
1.11376 0.5 -0.623806 0.233958
1.11376 0.5 0.623806 0.144734
1.13882 0.5 -0.578501 0.241811
1.13882 0.5 0.578501 0.153412
0.67013 0.5 -1.0875 0.157761
0.67013 0.5 1.0875 0.0832896
1.27472 0.5 -0.0918959 0.277236
1.27472 0.5 0.0918959 0.254472
1.25401 0.5 -0.249197 0.278864
1.25401 0.5 0.249197 0.225376
1.16179 0.5 -0.535284 0.249272
1.16179 0.5 0.535284 0.162368
1.20942 0.5 -0.419438 0.265929
1.20942 0.5 0.419438 0.18761
0 0.5 -1.28118 0.135856
0 0.5 1.28118 0.0728633
0.0124865 0.5 1.28118 0.0728633
0.0124865 0.5 -1.28118 0.135856
1.27472 0.5 0.15316 0.246069
1.27472 0.5 -0.15316 0.281646
0.151149 0.5 -1.275 0.136024
0.151149 0.5 1.275 0.0727958
1.0271 0.5 0.773275 0.117737
1.0271 0.5 -0.773275 0.208002
1.10076 0.5 0.664638 0.137654
1.10076 0.5 -0.664638 0.228631
0.350249 0.5 -1.2375 0.139547
0.350249 0.5 1.2375 0.0738353
0.624316 0.5 -1.125 0.153477
0.624316 0.5 1.125 0.0803535
1.23036 0.5 0.380892 0.197352
1.23036 0.5 -0.380892 0.272209
1.24274 0.5 -0.345745 0.276243
1.24274 0.5 0.345745 0.205535
1.2906 0.5 0 0.271532
1.2906 0.5 -0.0604698 0.278134
1.2906 0.5 0.0604698 0.263576
1.25401 0.5 -0.311497 0.279031
1.25401 0.5 0.311497 0.213508
1.27472 0.5 -0.214423 0.283862
1.27472 0.5 0.214423 0.235307
1.08112 0.5 0.709442 0.129816
1.08112 0.5 -0.709442 0.221477
1.00005 0.5 -0.824239 0.200969
1.00005 0.5 0.824239 0.111497
1.2906 0.5 -0.12094 0.283391
1.2906 0.5 0.12094 0.254334
0.574156 0.5 -1.1625 0.149336
0.574156 0.5 1.1625 0.0776416
0.969689 0.5 -0.8625 0.195206
0.96969 0.5 0.8625 0.10709
1.18772 0.5 0.524912 0.165555
1.18772 0.5 -0.524912 0.254874
1.05695 0.5 -0.757605 0.213583
1.05695 0.5 0.757605 0.121634
0.939201 0.5 -0.9 0.189128
0.939201 0.5 0.9 0.102233
1.30091 0.5 -0.0299772 0.27758
1.30091 0.5 0.0299772 0.270225
1.20942 0.5 -0.483967 0.262391
1.20942 0.5 0.483967 0.174932
1.17463 0.5 -0.563284 0.249449
1.17463 0.5 0.563284 0.157624
1.2906 0.5 -0.181409 0.28683
1.2906 0.5 0.181409 0.243957
0.90582 0.5 0.9375 0.0976836
0.90582 0.5 -0.9375 0.183294
1.30091 0.5 -0.0899316 0.283586
1.30091 0.5 0.0899316 0.258787
1.27472 0.5 0.275687 0.223616
1.27472 0.5 -0.275687 0.28464
0.288069 0.5 -1.275 0.136887
0.288069 0.5 1.275 0.0718772