# UMean  POINT_DATA 63840
# x  y  z  UMean_x  UMean_y  UMean_z
0 0.5 3.39583e-17 0.788011 0 0.615661
0 0.5 -0.00617931 0.788011 0 0.615661
0 0.5 0.00617931 0.788011 0 0.615661
0.0124865 0.5 -0.00617931 0.787985 0.000872276 0.616147
0.0124865 0.5 0.00617931 0.787986 0.000865605 0.616256
0 0.5 -0.0688207 0.788011 0 0.615661
0 0.5 0.0688207 0.788011 0 0.615661
0.0124865 0.5 -0.0688207 0.787985 0.000872276 0.616147
0.0124865 0.5 0.0688207 0.787986 0.000865605 0.616256
0 0.5 -0.075 0.788011 0 0.615661
0 0.5 0.075 0.788011 0 0.615661
0 0.5 -0.0811793 0.788011 0 0.615661
0 0.5 0.0811793 0.788011 0 0.615661
0.0124865 0.5 -0.0811793 0.787985 0.000874797 0.616034
0.0124865 0.5 0.0811793 0.787989 0.000854922 0.61636
0.075776 0.5 -0.0375 0.787832 0.00528856 0.618598
0.075776 0.5 0.0375 0.787838 0.00524797 0.619257
0.075776 0.5 -0.1125 0.787831 0.00530416 0.61792
0.075776 0.5 0.1125 0.787855 0.00518345 0.619888
0 0.5 -0.143821 0.788011 0 0.615661
0 0.5 0.143821 0.788011 0 0.615661
0.0124865 0.5 -0.143821 0.787985 0.000874797 0.616034
0.0124865 0.5 0.143821 0.787989 0.000854922 0.61636
0 0.5 -0.15 0.788011 0 0.615661
0 0.5 0.15 0.788011 0 0.615661
0.151149 0.5 -0.00137318 0.786723 0.00880433 0.621006
0 0.5 -0.156179 0.788011 0 0.615661
0 0.5 0.156179 0.788011 0 0.615661
0.0124865 0.5 -0.156179 0.787984 0.000873031 0.615922
0.0124865 0.5 0.156179 0.787993 0.000840791 0.616458
0.151149 0.5 0.075 0.78677 0.00876585 0.622137
0.151149 0.5 -0.075 0.786679 0.00886367 0.619787
0.075776 0.5 -0.1875 0.787824 0.00529415 0.617243
0.075776 0.5 0.1875 0.787878 0.00509808 0.620481
0.151149 0.5 0.15 0.786845 0.00866607 0.623248
0.151149 0.5 -0.15 0.786661 0.00886477 0.618579
0 0.5 -0.218821 0.788011 0 0.615661
0 0.5 0.218821 0.788011 0 0.615661
0.0124865 0.5 -0.218821 0.787984 0.000873031 0.615922
0.0124865 0.5 0.218821 0.787993 0.000840791 0.616458
0.219992 0.5 0.0375 0.785708 0.0121336 0.623726
0.219993 0.5 -0.0375 0.785624 0.0121878 0.622071
0 0.5 -0.225 0.788011 0 0.615661
0 0.5 0.225 0.788011 0 0.615661
0 0.5 -0.231179 0.788011 0 0.615661
0 0.5 0.231179 0.788011 0 0.615661
0.0124865 0.5 -0.231179 0.787983 0.000870161 0.615811
0.0124865 0.5 0.231179 0.787998 0.000823763 0.616549
0.219992 0.5 0.1125 0.78582 0.0120331 0.625342
0.219993 0.5 -0.1125 0.785581 0.0122065 0.620362
0.151149 0.5 -0.225 0.786655 0.00883713 0.617381
0.151149 0.5 0.225 0.786939 0.0085335 0.624296
0.075776 0.5 -0.2625 0.787819 0.00527697 0.616572
0.075776 0.5 0.2625 0.787906 0.00499459 0.621029
0.288069 0.5 -0.00137318 0.782948 0.0154507 0.624367
0.219992 0.5 0.1875 0.785961 0.0118877 0.626883
0.219993 0.5 -0.1875 0.785564 0.0121868 0.618662
0 0.5 0.293821 0.788011 0 0.615661
0 0.5 -0.293821 0.788011 0 0.615661
0.0124865 0.5 -0.293821 0.787983 0.000870161 0.615811
0.0124865 0.5 0.293821 0.787998 0.000823763 0.616549
0.288069 0.5 -0.075 0.782818 0.0155129 0.622099
0.288069 0.5 0.075 0.783093 0.0153866 0.626467
0 0.5 -0.3 0.788011 0 0.615661
0 0.5 0.3 0.788011 0 0.615661
0 0.5 0.306179 0.788011 0 0.615661
0 0.5 -0.306179 0.788011 0 0.615661
0.0124865 0.5 -0.306179 0.787983 0.0008651 0.615697
0.0124865 0.5 0.306179 0.788004 0.000804187 0.616631
0.288069 0.5 -0.15 0.782779 0.0154985 0.619881
0.288069 0.5 0.15 0.783323 0.0152422 0.628561
0.151149 0.5 -0.3 0.786664 0.00878542 0.616194
0.151149 0.5 0.3 0.78705 0.00837016 0.625266
0.219992 0.5 -0.2625 0.785569 0.0121249 0.616985
0.219992 0.5 0.2625 0.786135 0.0116967 0.62833
0.075776 0.5 0.3375 0.787939 0.00487533 0.621526
0.075776 0.5 -0.3375 0.787815 0.00524638 0.615885
0.350249 0.5 -0.0375 0.780257 0.0186162 0.624278
0.350249 0.5 0.0375 0.780449 0.0185478 0.626959
0.288069 0.5 -0.225 0.782799 0.0154313 0.617686
0.288069 0.5 0.225 0.78361 0.0150426 0.630551
0.350249 0.5 0.1125 0.78073 0.018414 0.6296
0.350249 0.5 -0.1125 0.780161 0.0186213 0.621576
0 0.5 0.368821 0.788011 0 0.615661
0 0.5 -0.368821 0.788011 0 0.615661
0.0124865 0.5 -0.368821 0.787983 0.0008651 0.615697
0.0124865 0.5 0.368821 0.788004 0.000804187 0.616631
0 0.5 -0.375 0.788011 0 0.615661
0 0.5 0.375 0.788011 0 0.615661
0 0.5 -0.381179 0.788011 0 0.615661
0 0.5 0.381179 0.788011 0 0.615661
0.0124865 0.5 -0.381179 0.787983 0.000856334 0.615589
0.0124865 0.5 0.381179 0.78801 0.000782494 0.616703
0.350249 0.5 -0.1875 0.780162 0.0185615 0.618879
0.350249 0.5 0.1875 0.7811 0.0182189 0.632116
0.219992 0.5 -0.3375 0.785607 0.0120313 0.615336
0.219992 0.5 0.3375 0.786335 0.011464 0.629661
0.151149 0.5 -0.375 0.786693 0.00870572 0.615038
0.151149 0.5 0.375 0.787175 0.00817911 0.626146
0.411736 0.5 -0.00137318 0.776535 0.0218049 0.626606
0.288069 0.5 -0.3 0.782877 0.0153146 0.615535
0.288069 0.5 0.3 0.783953 0.014788 0.632417
0.411736 0.5 -0.075 0.776328 0.0218573 0.623275
0.411736 0.5 0.075 0.776803 0.0217225 0.629692
0.075776 0.5 -0.4125 0.787817 0.00519345 0.615232
0.075776 0.5 0.4125 0.787977 0.00474305 0.621966
0.350249 0.5 -0.2625 0.780248 0.0184373 0.616236
0.350249 0.5 0.2625 0.78155 0.0179562 0.634513
0.411736 0.5 -0.15 0.776295 0.021804 0.620051
0.411736 0.5 0.15 0.777239 0.0215361 0.632798
0 0.5 -0.443821 0.788011 0 0.615661
0 0.5 0.443821 0.788011 0 0.615661
0.0124865 0.5 -0.443821 0.787983 0.000856334 0.615589
0.0124865 0.5 0.443821 0.78801 0.000782494 0.616703
0 0.5 -0.45 0.788011 0 0.615661
0 0.5 0.45 0.788011 0 0.615661
0 0.5 -0.456179 0.788011 0 0.615661
0 0.5 0.456179 0.788011 0 0.615661
0.0124865 0.5 -0.456179 0.787986 0.000844741 0.615483
0.0124865 0.5 0.456179 0.788017 0.000759134 0.616766
0.219992 0.5 -0.4125 0.785684 0.0118947 0.613765
0.219993 0.5 0.4125 0.786555 0.0111927 0.630859
0.411736 0.5 -0.225 0.776393 0.0216708 0.616876
0.411736 0.5 0.225 0.777803 0.0212715 0.635775
0.467897 0.5 0.0375 0.773011 0.0248479 0.629199
0.467897 0.5 -0.0375 0.772731 0.0249137 0.625469
0.288069 0.5 -0.375 0.78302 0.0151487 0.613464
0.288069 0.5 0.375 0.784344 0.0144819 0.634128
0.151149 0.5 -0.45 0.78675 0.00859677 0.613934
0.151149 0.5 0.45 0.787313 0.00796353 0.626925
0.467897 0.5 -0.1125 0.772622 0.024884 0.621735
0.467897 0.5 0.1125 0.773466 0.0246865 0.632844
0.350249 0.5 0.3375 0.782079 0.0176297 0.636741
0.350249 0.5 -0.3375 0.780424 0.0182549 0.613661
0.075776 0.5 -0.4875 0.787837 0.00512333 0.614593
0.075776 0.5 0.4875 0.788019 0.00460031 0.622345
0.467897 0.5 -0.1875 0.772688 0.0247586 0.618036
0.467897 0.5 0.1875 0.774095 0.0244339 0.636407
0.411736 0.5 -0.3 0.776621 0.0214616 0.613787
0.411736 0.5 0.3 0.778483 0.0209285 0.638581
0 0.5 -0.518821 0.788011 0 0.615661
0 0.5 0.518821 0.788011 0 0.615661
0.0124865 0.5 0.518821 0.788017 0.000759134 0.616766
0.0124865 0.5 -0.518821 0.787986 0.000844741 0.615483
0.523432 0.5 -0.00137318 0.768194 0.0280801 0.627912
0 0.5 -0.525 0.788011 0 0.615661
0 0.5 0.525 0.788011 0 0.615661
0.523432 0.5 -0.075 0.76794 0.0281005 0.623494
0.523432 0.5 0.075 0.768581 0.0279959 0.632007
0 0.5 -0.531179 0.788011 0 0.615661
0 0.5 0.531179 0.788011 0 0.615661
0.0124865 0.5 -0.531179 0.787991 0.000830656 0.615386
0.0124865 0.5 0.531179 0.788025 0.000734352 0.616818
0.288069 0.5 -0.45 0.783228 0.0149367 0.611496
0.288069 0.5 0.45 0.784775 0.0141284 0.635663
0.219992 0.5 -0.4875 0.785807 0.0117248 0.612271
0.219993 0.5 0.4875 0.786792 0.010887 0.631911
0.467897 0.5 -0.2625 0.772924 0.0245397 0.614433
0.467897 0.5 0.2625 0.774881 0.0240902 0.639779
0.350249 0.5 -0.4125 0.780696 0.0180103 0.611226
0.350249 0.5 0.4125 0.782672 0.0172429 0.638772
0.523432 0.5 -0.15 0.767957 0.0279836 0.61925
0.523432 0.5 0.15 0.769237 0.027776 0.636154
0.151149 0.5 -0.525 0.78683 0.00846444 0.612887
0.151149 0.5 0.525 0.787459 0.00772684 0.627596
0.411736 0.5 -0.375 0.776976 0.0211799 0.610832
0.411736 0.5 0.375 0.779267 0.0205109 0.641179
0.075776 0.5 -0.5625 0.787865 0.00503808 0.614006
0.075776 0.5 0.5625 0.788064 0.00444885 0.622662
0.523432 0.5 -0.225 0.768197 0.0277562 0.615096
0.523432 0.5 0.225 0.770107 0.0274481 0.64015
0.574156 0.5 -0.0375 0.763505 0.0311615 0.625782
0.574156 0.5 0.0375 0.763865 0.0311218 0.630578
0.467897 0.5 0.3375 0.775814 0.0236571 0.642948
0.467897 0.5 -0.3375 0.773327 0.0242351 0.610952
0.574156 0.5 -0.1125 0.763421 0.0310713 0.621
0.574156 0.5 0.1125 0.764494 0.0309531 0.635302
0 0.5 -0.593821 0.788011 0 0.615661
0 0.5 0.593821 0.788011 0 0.615661
0.0124865 0.5 -0.593821 0.787991 0.000830656 0.615386
0.0124865 0.5 0.593821 0.788025 0.000734352 0.616818
0.288069 0.5 -0.525 0.783482 0.0146883 0.609637
0.288069 0.5 0.525 0.785236 0.013733 0.637007
0 0.5 -0.6 0.788011 0 0.615661
0 0.5 0.6 0.788011 0 0.615661
0.350249 0.5 -0.4875 0.781041 0.0177208 0.608907
0.350249 0.5 0.4875 0.783319 0.0168012 0.640583
0.523432 0.5 -0.3 0.768651 0.0274253 0.611081
0.523432 0.5 0.3 0.771176 0.0270147 0.643936
0.219992 0.5 -0.5625 0.785948 0.0115279 0.610862
0.219992 0.5 0.5625 0.78704 0.0105519 0.632806
0.574156 0.5 -0.1875 0.763613 0.0308533 0.616297
0.574156 0.5 0.1875 0.76539 0.0306581 0.639896
0 0.5 -0.606179 0.788011 0 0.615661
0 0.5 0.606179 0.788011 0 0.615661
0.0124865 0.5 -0.606179 0.787995 0.000814784 0.615296
0.0124865 0.5 0.606179 0.788032 0.000708452 0.616859
0.411736 0.5 -0.45 0.777441 0.0208343 0.608037
0.411736 0.5 0.45 0.780139 0.020024 0.643533
0.151149 0.5 -0.6 0.786918 0.00831203 0.611912
0.151149 0.5 0.6 0.787611 0.0074726 0.628154
0.62168 0.5 2.64545e-17 0.758618 0.0341681 0.628469
0.467897 0.5 0.4125 0.776871 0.023141 0.645856
0.467897 0.5 -0.4125 0.77388 0.0238482 0.607675
0.624316 0.5 0.0729402 0.758827 0.0342695 0.633576
0.624316 0.5 -0.075 0.758058 0.0343018 0.622913
0.574156 0.5 -0.2625 0.76407 0.0305124 0.611741
0.574157 0.5 0.2625 0.766542 0.0302415 0.644295
0.075776 0.5 -0.6375 0.787888 0.00494181 0.613459
0.075776 0.5 0.6375 0.78811 0.00429075 0.622913
0.624316 0.5 -0.15 0.75818 0.0340976 0.617639
0.624316 0.5 0.15 0.759707 0.0340329 0.638799
0.523432 0.5 -0.375 0.769302 0.0269985 0.607264
0.523432 0.5 0.375 0.772424 0.0264806 0.647463
0.350249 0.5 -0.5625 0.781433 0.0173917 0.606743
0.350249 0.5 0.5625 0.784006 0.0163116 0.642153
0.624316 0.5 -0.225 0.758628 0.0337524 0.612506
0.624316 0.5 0.225 0.760903 0.0336539 0.643847
0.288069 0.5 0.6 0.78572 0.0133019 0.638145
0.288069 0.5 -0.6 0.783767 0.0144066 0.607907
0.574156 0.5 -0.3375 0.764776 0.0300608 0.607372
0.574156 0.5 0.3375 0.767926 0.0297066 0.648445
0.411736 0.5 -0.525 0.777991 0.0204365 0.605416
0.411736 0.5 0.525 0.781083 0.0194742 0.645616
0 0.5 -0.668821 0.788011 0 0.615661
0 0.5 0.668821 0.788011 0 0.615661
0.0124865 0.5 -0.668821 0.787995 0.000814784 0.615296
0.0124865 0.5 0.668821 0.788032 0.000708452 0.616859
0.67013 0.5 0.0375 0.753344 0.0374042 0.631264
0.67013 0.5 -0.0375 0.752933 0.0373981 0.62538
0.219993 0.5 -0.6375 0.7861 0.0113047 0.609555
0.219993 0.5 0.6375 0.787296 0.0101927 0.633539
0 0.5 -0.675 0.788011 0 0.615661
0 0.5 0.675 0.788011 0 0.615661
0.467897 0.5 0.4875 0.778033 0.0225469 0.648471
0.467897 0.5 -0.4875 0.774551 0.023396 0.604575
0.67013 0.5 -0.1125 0.752923 0.0372266 0.619537
0.67013 0.5 0.1125 0.754148 0.0372446 0.637098
0 0.5 -0.681179 0.788011 0 0.615661
0 0.5 0.681179 0.788011 0 0.615661
0.0124865 0.5 -0.681179 0.787999 0.000797525 0.615213
0.0124865 0.5 0.681179 0.788039 0.000681948 0.61689
0.523432 0.5 -0.45 0.77012 0.0264871 0.603679
0.523432 0.5 0.45 0.773822 0.0258525 0.650678
0.151149 0.5 -0.675 0.787012 0.00814261 0.611011
0.151149 0.5 0.675 0.787767 0.00720473 0.628595
0.624316 0.5 -0.3 0.759384 0.0332766 0.607577
0.624316 0.5 0.3 0.762395 0.0331377 0.648651
0.67013 0.5 0.1875 0.755327 0.0369221 0.642782
0.67013 0.5 -0.1875 0.753303 0.0368946 0.613822
0.574156 0.5 -0.4125 0.765699 0.029506 0.603279
0.574157 0.5 0.4125 0.769514 0.0290612 0.652271
0.708171 0.5 1.88651e-17 0.748234 0.0400988 0.628629
0.075776 0.5 -0.7125 0.787912 0.00483686 0.612957
0.075776 0.5 0.7125 0.788154 0.00412858 0.623098
0.715434 0.5 0.0736268 0.748036 0.0404872 0.634693
0.715434 0.5 -0.075 0.747058 0.0404789 0.621684
0.67013 0.5 0.2625 0.756866 0.0364431 0.64824
0.67013 0.5 -0.2625 0.754053 0.0364114 0.608316
0.350249 0.5 -0.6375 0.781872 0.0170232 0.60475
0.350249 0.5 0.6375 0.784719 0.0157817 0.643468
0.411736 0.5 -0.6 0.778612 0.0199911 0.603003
0.411736 0.5 0.6 0.782078 0.0188697 0.647408
0.624316 0.5 -0.375 0.760417 0.0326817 0.602921
0.624316 0.5 0.375 0.764156 0.0324909 0.653141
0.715434 0.5 -0.15 0.747337 0.0401684 0.615369
0.715434 0.5 0.15 0.749002 0.0403161 0.640877
0.467897 0.5 -0.5625 0.775322 0.0228864 0.601719
0.467897 0.5 0.5625 0.779278 0.0218834 0.650764
0.288069 0.5 -0.675 0.784082 0.0140951 0.60632
0.288069 0.5 0.675 0.786216 0.0128417 0.63907
0.523432 0.5 -0.525 0.771079 0.0259044 0.600351
0.523432 0.5 0.525 0.775343 0.0251386 0.653544
0 0.5 -0.743821 0.788011 0 0.615661
0 0.5 0.743821 0.788011 0 0.615661
0.0124865 0.5 -0.743821 0.787999 0.000797525 0.615213
0.0124865 0.5 0.743821 0.788039 0.000681948 0.61689
0.219992 0.5 0.7125 0.787556 0.00981494 0.634106
0.219992 0.5 -0.7125 0.786266 0.0110605 0.608357
0.715434 0.5 -0.225 0.748058 0.0396865 0.609258
0.715434 0.5 0.225 0.750541 0.0398981 0.647017
0 0.5 -0.75 0.788011 0 0.615661
0 0.5 0.75 0.788011 0 0.615661
0.67013 0.5 0.3375 0.758739 0.0358137 0.653396
0.67013 0.5 -0.3375 0.755146 0.0357925 0.603077
0.574156 0.5 -0.4875 0.766802 0.0288646 0.599449
0.574156 0.5 0.4875 0.77127 0.0283132 0.655732
0 0.5 -0.756179 0.788011 0 0.615661
0 0.5 0.756179 0.788011 0 0.615661
0.0124865 0.5 -0.756179 0.788004 0.000779006 0.615137
0.0124865 0.5 0.756179 0.788046 0.000655314 0.61691
0.756813 0.5 -0.0375 0.741407 0.0436171 0.624405
0.756813 0.5 0.0375 0.741835 0.0436861 0.631401
0.151149 0.5 -0.75 0.787114 0.00795874 0.61019
0.151149 0.5 0.75 0.787922 0.00692779 0.628919
0.756813 0.5 -0.1125 0.741515 0.043347 0.617485
0.756813 0.5 0.1125 0.742796 0.0435512 0.638365
0.624316 0.5 -0.45 0.761688 0.0319808 0.598583
0.624316 0.5 0.45 0.766148 0.0317224 0.657254
0.715434 0.5 -0.3 0.74919 0.0390469 0.603427
0.715434 0.5 0.3 0.752485 0.0393077 0.652871
0.756813 0.5 0.1875 0.744268 0.0432143 0.645177
0.756813 0.5 -0.1875 0.742142 0.0428842 0.610754
0.67013 0.5 -0.4125 0.756535 0.0350477 0.598197
0.67013 0.5 0.4125 0.76091 0.0350426 0.658175
0.411736 0.5 -0.675 0.779297 0.0195041 0.600811
0.411736 0.5 0.675 0.783107 0.0182193 0.648893
0.467897 0.5 0.6375 0.78058 0.02116 0.652713
0.467897 0.5 -0.6375 0.776183 0.0223239 0.599117
0.075776 0.5 -0.7875 0.78794 0.00472389 0.612501
0.075776 0.5 0.7875 0.788195 0.00396552 0.623218
0.350249 0.5 -0.7125 0.782353 0.0166231 0.60294
0.350249 0.5 0.7125 0.785446 0.0152195 0.64452
0.523432 0.5 -0.6 0.772159 0.0252591 0.597322
0.523432 0.5 0.6 0.776957 0.0243487 0.656032
0.797732 0.5 2.68882e-17 0.73538 0.0468287 0.627469
0.756813 0.5 -0.2625 0.743254 0.0422417 0.604305
0.756814 0.5 0.2625 0.746218 0.0426826 0.651731
0.797732 0.5 0.0736268 0.736183 0.0467962 0.635287
0.797732 0.5 -0.075 0.735267 0.0466135 0.619945
0.288069 0.5 -0.75 0.784422 0.0137585 0.604883
0.288069 0.5 0.75 0.786718 0.0123595 0.639779
0.574156 0.5 -0.5625 0.768066 0.0281488 0.595962
0.574157 0.5 0.5625 0.773158 0.0274731 0.658785
0.715434 0.5 -0.375 0.75069 0.0382633 0.597954
0.715434 0.5 0.375 0.7548 0.0385535 0.658356
0.797732 0.5 -0.15 0.735758 0.0461841 0.612581
0.797732 0.5 0.15 0.737425 0.0465947 0.642505
0.624316 0.5 -0.525 0.763165 0.03119 0.594601
0.624316 0.5 0.525 0.768324 0.030843 0.660938
0.219992 0.5 -0.7875 0.786444 0.010797 0.607273
0.219992 0.5 0.7875 0.78782 0.00942527 0.634508
0 0.5 -0.818821 0.788011 0 0.615661
0 0.5 0.818821 0.788011 0 0.615661
0.0124865 0.5 0.818821 0.788046 0.000655314 0.61691
0.0124865 0.5 -0.818821 0.788004 0.000779006 0.615137
0 0.5 -0.825 0.788011 0 0.615661
0 0.5 0.825 0.788011 0 0.615661
0.756813 0.5 0.3375 0.748612 0.0419651 0.657928
0.756814 0.5 -0.3375 0.744808 0.0414365 0.598217
0.67013 0.5 -0.4875 0.758179 0.0341962 0.593683
0.67013 0.5 0.4875 0.763328 0.034141 0.662513
0.797732 0.5 -0.225 0.736817 0.0455525 0.605494
0.797732 0.5 0.225 0.739317 0.0461479 0.649768
0 0.5 -0.831179 0.788011 0 0.615661
0 0.5 0.831179 0.788011 0 0.615661
0.0124865 0.5 -0.831179 0.788009 0.000759461 0.61507
0.0124865 0.5 0.831179 0.788051 0.000628664 0.616919
0.835106 0.5 0.0375 0.729603 0.0499235 0.631117
0.835106 0.5 -0.0375 0.729195 0.0497825 0.622991
0.151149 0.5 -0.825 0.787222 0.00776218 0.609451
0.151149 0.5 0.825 0.788079 0.00664472 0.629129
0.835106 0.5 0.1125 0.730695 0.0498232 0.639229
0.835106 0.5 -0.1125 0.729471 0.0494056 0.614982
0.715434 0.5 -0.45 0.75251 0.0373521 0.592895
0.715434 0.5 0.45 0.757436 0.0376468 0.663396
0.797732 0.5 -0.3 0.738396 0.0447343 0.598776
0.797732 0.5 0.3 0.741736 0.0454912 0.656703
0.467897 0.5 0.7125 0.781915 0.0203868 0.654304
0.467897 0.5 -0.7125 0.777114 0.0217194 0.596787
0.523432 0.5 -0.675 0.773336 0.0245607 0.594606
0.523432 0.5 0.675 0.778631 0.0234939 0.658119
0.411736 0.5 -0.75 0.780031 0.0189828 0.59885
0.411736 0.5 0.75 0.784148 0.0175325 0.650065
0.835106 0.5 -0.1875 0.73041 0.0488033 0.607231
0.835106 0.5 0.1875 0.73245 0.049482 0.647189
0.574156 0.5 -0.6375 0.769461 0.0273678 0.592825
0.574157 0.5 0.6375 0.77514 0.026552 0.661401
0.350249 0.5 -0.7875 0.782866 0.0161952 0.601321
0.350249 0.5 0.7875 0.786173 0.0146333 0.645308
0.756813 0.5 -0.4125 0.746749 0.0404812 0.592569
0.756814 0.5 0.4125 0.751406 0.0410724 0.663692
0.075776 0.5 -0.8625 0.78797 0.0046045 0.612092
0.075776 0.5 0.8625 0.788232 0.00380247 0.623277
0.624316 0.5 0.6 0.770641 0.0298651 0.664151
0.624316 0.5 -0.6 0.764813 0.0303221 0.591019
0.872064 0.5 5.91974e-17 0.723026 0.0529468 0.626452
0.870122 0.5 0.075 0.724235 0.052808 0.635516
0.288069 0.5 -0.825 0.784781 0.0134003 0.603601
0.288069 0.5 0.825 0.787217 0.011861 0.640274
0.67013 0.5 -0.5625 0.760046 0.0332537 0.589617
0.67013 0.5 0.5625 0.765938 0.0331225 0.666354
0.872064 0.5 -0.075 0.723015 0.0526391 0.617816
0.835106 0.5 -0.2625 0.731956 0.0479913 0.599853
0.835106 0.5 0.2625 0.734825 0.0489064 0.654867
0.797732 0.5 -0.375 0.74044 0.0437462 0.592503
0.797732 0.5 0.375 0.744639 0.0446355 0.66321
0.872064 0.5 0.14794 0.725328 0.052789 0.643781
0.872064 0.5 -0.15 0.72376 0.0520837 0.609399
0.715434 0.5 -0.525 0.754606 0.036333 0.588303
0.715434 0.5 0.525 0.760333 0.0366014 0.667921
0.219992 0.5 0.8625 0.78809 0.00902463 0.634751
0.219993 0.5 -0.8625 0.786633 0.0105172 0.606307
0 0.5 -0.893821 0.788011 0 0.615661
0 0.5 0.893821 0.788011 0 0.615661
0.0124865 0.5 -0.893821 0.788009 0.000759461 0.61507
0.0124865 0.5 0.893821 0.788051 0.000628664 0.616919
0 0.5 -0.9 0.788011 0 0.615661
0 0.5 0.9 0.788011 0 0.615661
0.756813 0.5 -0.4875 0.749026 0.0393994 0.587408
0.756813 0.5 0.4875 0.754536 0.0400181 0.668925
0.872064 0.5 -0.225 0.725213 0.0512945 0.601347
0.872064 0.5 0.225 0.727575 0.052323 0.652183
0.835106 0.5 -0.3375 0.734039 0.046987 0.592934
0.835106 0.5 0.3375 0.737765 0.048108 0.66213
0 0.5 0.906179 0.788011 0 0.615661
0 0.5 -0.906179 0.788011 0 0.615661
0.0124865 0.5 -0.906179 0.788014 0.000739122 0.61501
0.0124865 0.5 0.906179 0.788055 0.000602921 0.616919
0.90582 0.5 -0.0375 0.716701 0.0557924 0.62124
0.90582 0.5 0.0375 0.71708 0.056012 0.630503
0.151149 0.5 -0.9 0.787336 0.00755511 0.608796
0.151149 0.5 0.9 0.788234 0.00635877 0.629229
0.90582 0.5 -0.1125 0.717164 0.0553027 0.612136
0.905821 0.5 0.1125 0.718299 0.0559541 0.639774
0.523432 0.5 -0.75 0.774583 0.0238199 0.592212
0.523432 0.5 0.75 0.780332 0.0225861 0.659795
0.574156 0.5 -0.7125 0.770953 0.0265355 0.590056
0.574156 0.5 0.7125 0.777178 0.0255628 0.66356
0.797732 0.5 -0.45 0.742893 0.0426091 0.586748
0.797732 0.5 0.45 0.747963 0.043594 0.669196
0.467897 0.5 0.7875 0.783255 0.0195749 0.655531
0.467897 0.5 -0.7875 0.778095 0.0210799 0.594732
0.624316 0.5 -0.675 0.766591 0.0293908 0.587852
0.624316 0.5 0.675 0.773051 0.0288021 0.666867
0.411736 0.5 -0.825 0.780798 0.0184333 0.597125
0.411736 0.5 0.825 0.785179 0.0168182 0.650922
0.872064 0.5 0.3 0.730486 0.051609 0.660219
0.872064 0.5 -0.3 0.727292 0.0502891 0.593761
0.67013 0.5 -0.6375 0.762083 0.0322344 0.586009
0.67013 0.5 0.6375 0.768686 0.0320013 0.66966
0.90582 0.5 0.1875 0.720335 0.0556176 0.648889
0.905821 0.5 -0.1875 0.718453 0.0545551 0.603373
0.350249 0.5 -0.8625 0.783401 0.0157446 0.599895
0.350249 0.5 0.8625 0.786879 0.0140288 0.645834
0.835106 0.5 -0.4125 0.736609 0.0458091 0.586532
0.835106 0.5 0.4125 0.74122 0.047099 0.668894
0.715434 0.5 -0.6 0.756923 0.0352231 0.584224
0.715434 0.5 0.6 0.763425 0.0354332 0.671883
0.939201 0.5 2.75387e-17 0.710245 0.059083 0.625146
0.075776 0.5 0.9375 0.788258 0.00364361 0.623277
0.075776 0.5 -0.9375 0.788002 0.00448001 0.61173
0.939111 0.5 0.075 0.711143 0.0591926 0.635841
0.939201 0.5 -0.075 0.710384 0.058675 0.615367
0.756813 0.5 0.5625 0.75793 0.0388198 0.673575
0.756814 0.5 -0.5625 0.75159 0.0382107 0.582809
0.90582 0.5 0.2625 0.723142 0.0550081 0.657701
0.905821 0.5 -0.2625 0.720479 0.053567 0.595094
0.288069 0.5 -0.9 0.785152 0.0130244 0.602476
0.288069 0.5 0.9 0.787705 0.0113496 0.640562
0.872064 0.5 -0.375 0.729931 0.0490874 0.5867
0.872064 0.5 0.375 0.733999 0.0506599 0.667763
0.939201 0.5 0.148627 0.712824 0.0589855 0.644986
0.939201 0.5 -0.15 0.711451 0.057983 0.605872
0.797732 0.5 -0.525 0.745699 0.0413467 0.581584
0.797732 0.5 0.525 0.751631 0.042384 0.674579
0.219992 0.5 0.9375 0.788361 0.00861987 0.634841
0.219992 0.5 -0.9375 0.786826 0.0102239 0.60546
0.939201 0.5 -0.225 0.713378 0.0570228 0.596844
0.939201 0.5 0.225 0.715341 0.0585273 0.654401
0.905821 0.5 -0.3375 0.723118 0.0523581 0.587355
0.90582 0.5 0.3375 0.726646 0.0541386 0.666052
0.835106 0.5 -0.4875 0.739608 0.0444866 0.580753
0.835106 0.5 0.4875 0.745109 0.0458957 0.675038
0 0.5 0.968821 0.788011 0 0.615661
0 0.5 -0.968821 0.788011 0 0.615661
0.0124865 0.5 -0.968821 0.788014 0.000739122 0.61501
0.0124865 0.5 0.968821 0.788055 0.000602921 0.616919
0.969689 0.5 -0.0375 0.70368 0.0619808 0.619216
0.969689 0.5 0.0375 0.703957 0.0622856 0.629671
0.574156 0.5 -0.7875 0.772506 0.0256624 0.587657
0.574156 0.5 0.7875 0.779232 0.0245193 0.665256
0 0.5 -0.975 0.788011 0 0.615661
0 0.5 0.975 0.788011 0 0.615661
0.624316 0.5 -0.75 0.768454 0.0284102 0.585106
0.624316 0.5 0.75 0.775506 0.0276689 0.669069
0.969689 0.5 -0.1125 0.704421 0.0613664 0.608963
0.96969 0.5 0.1125 0.705251 0.0622712 0.640156
0.523432 0.5 -0.825 0.775872 0.023046 0.590141
0.523432 0.5 0.825 0.782027 0.0216379 0.661054
0.67013 0.5 0.7125 0.771516 0.030793 0.672407
0.67013 0.5 -0.7125 0.764237 0.0311554 0.582875
0 0.5 -0.981179 0.788011 0 0.615661
0 0.5 0.981179 0.788011 0 0.615661
0.467897 0.5 0.8625 0.784571 0.0187349 0.656394
0.467897 0.5 -0.8625 0.779105 0.0204134 0.592954
0.0124865 0.5 -0.981179 0.78802 0.000718213 0.614959
0.0124865 0.5 0.981179 0.788058 0.000577743 0.61691
0.872064 0.5 -0.45 0.733083 0.0477156 0.580266
0.872064 0.5 0.45 0.738041 0.0494911 0.674713
0.715434 0.5 -0.675 0.759397 0.0340406 0.58067
0.715434 0.5 0.675 0.766646 0.0341587 0.675243
0.939201 0.5 -0.3 0.716008 0.0558151 0.58838
0.939201 0.5 0.3 0.718754 0.0577558 0.663567
0.151149 0.5 0.975 0.788384 0.00607364 0.629226
0.151149 0.5 -0.975 0.787453 0.00733982 0.608226
0.969689 0.5 -0.1875 0.706181 0.0604553 0.599137
0.969689 0.5 0.1875 0.707539 0.0619361 0.650479
0.756813 0.5 -0.6375 0.754359 0.0369348 0.578787
0.756813 0.5 0.6375 0.761508 0.0374953 0.677587
0.411736 0.5 -0.9 0.781583 0.0178619 0.595634
0.411736 0.5 0.9 0.786182 0.0160829 0.65147
0.90582 0.5 -0.4125 0.726359 0.0509512 0.580203
0.90582 0.5 0.4125 0.730775 0.0530236 0.673813
0.995005 0.5 0.0749309 0.699818 0.0642016 0.635591
0.797732 0.5 -0.6 0.748773 0.0399802 0.577054
0.797732 0.5 0.6 0.755556 0.0410253 0.679298
1.00005 0.5 -8.47123e-18 0.697825 0.0644758 0.623693
0.350249 0.5 -0.9375 0.783948 0.0152762 0.598662
0.350249 0.5 0.9375 0.787558 0.0134073 0.646112
1.00005 0.5 -0.0749309 0.698117 0.0639786 0.612854
0.969689 0.5 -0.2625 0.708799 0.059268 0.589928
0.969689 0.5 0.2625 0.71077 0.0612855 0.660466
0.835106 0.5 -0.5625 0.742958 0.0430415 0.575656
0.835106 0.5 0.5625 0.749333 0.0445197 0.680504
1.00005 0.5 -0.149862 0.69951 0.0631691 0.602348
0.939201 0.5 -0.375 0.719285 0.054383 0.580516
0.939201 0.5 0.375 0.722903 0.056711 0.672173
1.00029 0.5 0.148988 0.70068 0.0644387 0.645722
0.075776 0.5 -1.0125 0.788035 0.00435185 0.611417
0.075776 0.5 1.0125 0.788276 0.00348871 0.623223
0.288069 0.5 0.975 0.788181 0.01083 0.640653
0.288069 0.5 -0.975 0.785529 0.0126349 0.601507
0.872064 0.5 -0.525 0.736666 0.0462017 0.574555
0.872064 0.5 0.525 0.742519 0.0481218 0.68096
1.00005 0.5 0.224793 0.70346 0.0640106 0.656199
1.00005 0.5 -0.224793 0.701917 0.0620656 0.592429
0.969689 0.5 0.3375 0.71486 0.0603325 0.669941
0.96969 0.5 -0.3375 0.712018 0.0578298 0.581328
1.0271 0.5 -0.0368226 0.691277 0.0672248 0.617253
1.0271 0.5 0.0368226 0.691507 0.0675914 0.628577
0.90582 0.5 0.4875 0.735442 0.0516816 0.680905
0.905821 0.5 -0.4875 0.730131 0.0493816 0.573823
1.0271 0.5 -0.110468 0.692204 0.0665334 0.606142
1.0271 0.5 0.110468 0.692601 0.0679144 0.642559
0.67013 0.5 0.7875 0.774375 0.029514 0.674585
0.67013 0.5 -0.7875 0.766456 0.0300312 0.580211
0.624316 0.5 0.825 0.777961 0.0264813 0.670751
0.624316 0.5 -0.825 0.77036 0.027393 0.582777
0.219993 0.5 -1.0125 0.787023 0.00992046 0.60473
0.219993 0.5 1.0125 0.788627 0.00821484 0.634788
0.574156 0.5 -0.8625 0.774086 0.0247599 0.585622
0.574156 0.5 0.8625 0.781261 0.0234363 0.666485
0.715434 0.5 -0.75 0.761963 0.0328031 0.577645
0.715434 0.5 0.75 0.769931 0.0327957 0.677984
0.756813 0.5 0.7125 0.765195 0.0360628 0.680933
0.756814 0.5 -0.7125 0.757259 0.0355922 0.575353
0.523432 0.5 -0.9 0.777177 0.0222481 0.588387
0.523432 0.5 0.9 0.783687 0.0206605 0.661902
0.939201 0.5 -0.45 0.723205 0.0527578 0.573389
0.939201 0.5 0.45 0.727698 0.0554111 0.6801
1.04168 0.5 0 0.687777 0.0689306 0.622465
1.0271 0.5 -0.184113 0.694283 0.0655298 0.595514
1.0271 0.5 0.184113 0.695411 0.0673204 0.651162
0 0.5 -1.04382 0.788011 0 0.615661
0 0.5 1.04382 0.788011 0 0.615661
0.0124865 0.5 -1.04382 0.78802 0.000718213 0.614959
0.0124865 0.5 1.04382 0.788058 0.000577743 0.61691
1.00005 0.5 -0.299723 0.705101 0.0606924 0.583177
1.00005 0.5 0.299723 0.707367 0.063209 0.66641
1.04168 0.5 -0.0729162 0.688164 0.0683843 0.611031
1.04168 0.5 0.0729162 0.688565 0.0691445 0.634025
0.797732 0.5 -0.675 0.752023 0.0385325 0.573171
0.797732 0.5 0.675 0.759652 0.0395383 0.683305
0.467897 0.5 0.9375 0.785847 0.0178747 0.656902
0.467897 0.5 -0.9375 0.780125 0.0197271 0.591446
0 0.5 -1.05 0.788011 0 0.615661
0 0.5 1.05 0.788011 0 0.615661
0.835106 0.5 -0.6375 0.746538 0.0414981 0.571271
0.835106 0.5 0.6375 0.753803 0.0429932 0.685219
1.04168 0.5 -0.145832 0.689723 0.067517 0.599941
1.04168 0.5 0.145832 0.690521 0.0690205 0.645538
0.969689 0.5 -0.4125 0.716004 0.0561648 0.573388
0.96969 0.5 0.4125 0.719711 0.0590953 0.67874
0 0.5 -1.05618 0.788011 0 0.615661
0 0.5 1.05618 0.788011 0 0.615661
0.0124865 0.5 -1.05618 0.788025 0.000696971 0.614915
0.0124865 0.5 1.05618 0.788063 0.00055368 0.616894
1.05695 0.5 -0.0360764 0.684094 0.070228 0.616105
1.05695 0.5 0.0360764 0.684258 0.0706268 0.627833
0.411736 0.5 -0.975 0.782371 0.0172748 0.594371
0.411736 0.5 0.975 0.787148 0.0153337 0.651721
0.872064 0.5 -0.6 0.740564 0.0445719 0.569614
0.872064 0.5 0.6 0.747318 0.0465771 0.686429
1.0271 0.5 -0.257759 0.697336 0.0642396 0.585643
1.0271 0.5 0.257759 0.698997 0.0666864 0.662033
0.151149 0.5 -1.05 0.78757 0.00711874 0.607738
0.151149 0.5 1.05 0.788526 0.00579267 0.629127
1.05695 0.5 0.108229 0.684928 0.0709986 0.63986
1.05695 0.5 -0.108229 0.685116 0.0695002 0.604581
1.04168 0.5 -0.218749 0.692375 0.0663471 0.589512
1.04168 0.5 0.218749 0.693599 0.0685604 0.656805
0.90582 0.5 -0.5625 0.734311 0.0476745 0.568258
0.905821 0.5 0.5625 0.740541 0.0501328 0.687161
1.00005 0.5 -0.374654 0.709033 0.0590682 0.57456
1.00005 0.5 0.374654 0.712147 0.0621044 0.67601
0.350249 0.5 1.0125 0.788223 0.0127746 0.646151
0.350249 0.5 -1.0125 0.784497 0.0147951 0.597618
1.05695 0.5 -0.180382 0.687316 0.0684565 0.593553
1.05695 0.5 0.180382 0.688154 0.0704054 0.65126
1.07319 0.5 0.0709442 0.680878 0.0724717 0.635951
0.939201 0.5 -0.525 0.727648 0.0509726 0.567139
0.939201 0.5 0.525 0.733031 0.053877 0.687225
1.0271 0.5 -0.331404 0.701101 0.0626847 0.57642
1.0271 0.5 0.331404 0.703566 0.0657333 0.672383
1.08112 0.5 3.23815e-17 0.677858 0.0730094 0.62116
1.04168 0.5 -0.291665 0.695897 0.0648987 0.579825
1.04168 0.5 0.291665 0.697728 0.0677724 0.667638
1.08112 0.5 -0.0709442 0.678349 0.0724207 0.609195
0.969689 0.5 -0.4875 0.720657 0.0543157 0.566376
0.96969 0.5 0.4875 0.725218 0.0575961 0.686765
1.05695 0.5 0.252535 0.691802 0.069789 0.66256
1.05695 0.5 -0.252535 0.690552 0.0671187 0.583381
0.288069 0.5 -1.05 0.785906 0.0122359 0.600689
0.288069 0.5 1.05 0.788643 0.0103064 0.640558
0.075776 0.5 -1.0875 0.788069 0.00422161 0.611151
0.075776 0.5 1.0875 0.788302 0.00334006 0.623123
1.08112 0.5 -0.141888 0.680046 0.0715077 0.597578
1.08145 0.5 0.140165 0.680834 0.0730754 0.645669
0.715434 0.5 0.825 0.773221 0.0313632 0.680099
0.715434 0.5 -0.825 0.764563 0.0315272 0.575135
0.756813 0.5 0.7875 0.768919 0.0345428 0.683601
0.756814 0.5 -0.7875 0.760217 0.0342017 0.572496
0.67013 0.5 -0.8625 0.768691 0.0288761 0.578003
0.67013 0.5 0.8625 0.77721 0.0281828 0.676192
0.797732 0.5 -0.75 0.755364 0.0370255 0.569931
0.797732 0.5 0.75 0.763835 0.0379442 0.686583
0.624316 0.5 -0.9 0.772269 0.0263512 0.580849
0.624316 0.5 0.9 0.780374 0.0252543 0.67192
1.00005 0.5 -0.449585 0.713756 0.0572298 0.566777
1.00005 0.5 0.449585 0.717685 0.0607173 0.684854
0.835106 0.5 -0.7125 0.750252 0.0398822 0.567596
0.835106 0.5 0.7125 0.758412 0.0413391 0.689147
0.574156 0.5 -0.9375 0.775665 0.0238378 0.583937
0.574157 0.5 0.9375 0.783239 0.0223247 0.667258
1.10076 0.5 -0.0349809 0.672608 0.0748905 0.614325
1.10076 0.5 0.0349809 0.672686 0.075333 0.62666
1.08112 0.5 -0.212832 0.68289 0.0702854 0.58667
1.08112 0.5 0.212832 0.683677 0.0727402 0.657149
0.872064 0.5 -0.675 0.744652 0.0428533 0.565455
0.872064 0.5 0.675 0.752319 0.0448813 0.691078
1.04168 0.5 -0.364581 0.700232 0.0631846 0.570767
1.04168 0.5 0.364581 0.702805 0.0666709 0.677861
1.0271 0.5 0.405049 0.709 0.0644793 0.682033