# UMean  POINT_DATA 63140
# x  y  z  UMean_x  UMean_y  UMean_z
0 0.1 0 0.788011 0 0.615661
0 0.1 -0.0179898 0.788011 0 0.615661
0 0.1 0.0179898 0.788011 0 0.615661
0.0363518 0.1 0.0179898 0.790874 0.00682277 0.617541
0.0363518 0.1 -0.0179898 0.790881 0.00683894 0.617193
0 0.1 -0.0570102 0.788011 0 0.615661
0 0.1 0.0570102 0.788011 0 0.615661
0.0363518 0.1 0.0570102 0.790874 0.00682277 0.617541
0.0363518 0.1 -0.0570102 0.790881 0.00683894 0.617193
0 0.1 -0.075 0.788011 0 0.615661
0 0.1 0.075 0.788011 0 0.615661
0.075776 0.1 -0.0375 0.794034 0.0143684 0.618846
0.075776 0.1 0.0375 0.79402 0.0143355 0.619571
0 0.1 -0.0929898 0.788011 0 0.615661
0 0.1 0.0929898 0.788011 0 0.615661
0.0363518 0.1 -0.0929898 0.790869 0.00685169 0.616826
0.0363518 0.1 0.0929898 0.79086 0.00679727 0.617879
0 0.1 -0.13201 0.788011 0 0.615661
0 0.1 0.13201 0.788011 0 0.615661
0.075776 0.1 -0.1125 0.794007 0.0143946 0.618081
0.075776 0.1 0.1125 0.793992 0.0142838 0.620275
0.0363518 0.1 -0.13201 0.790869 0.00685169 0.616826
0.0363518 0.1 0.13201 0.79086 0.00679727 0.617879
0 0.1 -0.15 0.788011 0 0.615661
0 0.1 0.15 0.788011 0 0.615661
0.150379 0.1 -2.22623e-17 0.795432 0.0135549 0.62101
0 0.1 -0.16799 0.788011 0 0.615661
0 0.1 0.16799 0.788011 0 0.615661
0.150379 0.1 -0.075 0.79532 0.0135567 0.619684
0.150379 0.1 0.075 0.795585 0.0135349 0.622291
0.0363518 0.1 -0.16799 0.790827 0.00685985 0.61644
0.0363518 0.1 0.16799 0.790844 0.00676135 0.618196
0.075776 0.1 -0.1875 0.793919 0.014412 0.617274
0.075776 0.1 0.1875 0.793961 0.0142106 0.620936
0 0.1 -0.20701 0.788011 0 0.615661
0 0.1 0.20701 0.788011 0 0.615661
0.0363518 0.1 -0.20701 0.790827 0.00685985 0.61644
0.0363518 0.1 0.20701 0.790844 0.00676135 0.618196
0.150379 0.1 -0.15 0.795241 0.0135399 0.618335
0.150379 0.1 0.15 0.795782 0.0134917 0.623516
0.219993 0.1 -0.0375 0.796639 0.0127932 0.621801
0.219993 0.1 0.0375 0.796911 0.0128024 0.623657
0 0.1 -0.225 0.788011 0 0.615661
0 0.1 0.225 0.788011 0 0.615661
0 0.1 -0.24299 0.788011 0 0.615661
0 0.1 0.24299 0.788011 0 0.615661
0.0363518 0.1 0.24299 0.790822 0.00671786 0.618485
0.0363518 0.1 -0.24299 0.790787 0.00685194 0.616027
0.219993 0.1 -0.1125 0.796484 0.0127529 0.619898
0.219993 0.1 0.1125 0.797277 0.0127957 0.625447
0.150379 0.1 -0.225 0.795213 0.0135044 0.616981
0.150379 0.1 0.225 0.796033 0.0134215 0.624666
0.075776 0.1 -0.2625 0.793835 0.0143954 0.616415
0.075776 0.1 0.2625 0.793917 0.0141219 0.621538
0 0.1 -0.28201 0.788011 0 0.615661
0 0.1 0.28201 0.788011 0 0.615661
0.0363518 0.1 -0.28201 0.790787 0.00685194 0.616027
0.0363518 0.1 0.28201 0.790822 0.00671786 0.618485
0.287374 0.1 -2.89121e-19 0.793725 0.0124168 0.623894
0.219992 0.1 0.1875 0.797739 0.0127529 0.627143
0.219992 0.1 -0.1875 0.79644 0.0126857 0.618027
0.287374 0.1 -0.075 0.793525 0.0123862 0.621492
0.287374 0.1 0.075 0.794054 0.0124266 0.626253
0 0.1 -0.3 0.788011 0 0.615661
0 0.1 0.3 0.788011 0 0.615661
0 0.1 0.31799 0.788011 0 0.615661
0 0.1 -0.31799 0.788011 0 0.615661
0.0363518 0.1 -0.31799 0.790744 0.0068147 0.61565
0.0363518 0.1 0.31799 0.790793 0.0066734 0.618737
0.287374 0.1 0.15 0.794501 0.0124093 0.628529
0.287374 0.1 -0.15 0.793463 0.0123346 0.619086
0.150379 0.1 -0.3 0.79526 0.0134408 0.615655
0.150379 0.1 0.3 0.796323 0.0133304 0.625732
0.219993 0.1 0.2625 0.798328 0.0126759 0.628736
0.219993 0.1 -0.2625 0.796539 0.0126136 0.616196
0.075776 0.1 -0.3375 0.793746 0.014318 0.615629
0.075776 0.1 0.3375 0.793859 0.0140314 0.622062
0.350249 0.1 -0.0375 0.790676 0.0120381 0.623564
0.350249 0.1 0.0375 0.790946 0.0120676 0.626453
0 0.1 -0.35701 0.788011 0 0.615661
0 0.1 0.35701 0.788011 0 0.615661
0.0363518 0.1 -0.35701 0.790744 0.0068147 0.61565
0.0363518 0.1 0.35701 0.790793 0.0066734 0.618737
0.287374 0.1 -0.225 0.793543 0.0122709 0.616719
0.287374 0.1 0.225 0.795075 0.0123586 0.630691
0.350249 0.1 -0.1125 0.790571 0.0119952 0.62065
0.350249 0.1 0.1125 0.791352 0.012074 0.629307
0 0.1 -0.375 0.788011 0 0.615661
0 0.1 0.375 0.788011 0 0.615661
0 0.1 -0.39299 0.788011 0 0.615661
0 0.1 0.39299 0.788011 0 0.615661
0.0363518 0.1 -0.39299 0.790698 0.00676776 0.615286
0.0363518 0.1 0.39299 0.790767 0.00663546 0.618953
0.350249 0.1 -0.1875 0.790623 0.0119388 0.617759
0.350249 0.1 0.1875 0.791903 0.0120473 0.632026
0.219992 0.1 -0.3375 0.796791 0.0125267 0.614411
0.219992 0.1 0.3375 0.798972 0.0125682 0.630237
0.150379 0.1 0.375 0.796615 0.0132292 0.626703
0.150379 0.1 -0.375 0.795383 0.0133557 0.614387
0.411108 0.1 4.33681e-19 0.785986 0.0123691 0.625693
0.287374 0.1 -0.3 0.793776 0.0121989 0.614408
0.287374 0.1 0.3 0.795769 0.0122719 0.632736
0.411108 0.1 -0.075 0.785808 0.0123286 0.622211
0.411108 0.1 0.075 0.786365 0.0123916 0.629142
0.075776 0.1 -0.4125 0.793653 0.0142214 0.61487
0.075776 0.1 0.4125 0.793805 0.013954 0.622513
0 0.1 0.43201 0.788011 0 0.615661
0 0.1 -0.43201 0.788011 0 0.615661
0.0363518 0.1 0.43201 0.790767 0.00663546 0.618953
0.0363518 0.1 -0.43201 0.790698 0.00676776 0.615286
0.411108 0.1 -0.15 0.785835 0.0122744 0.618738
0.411108 0.1 0.15 0.786936 0.0123882 0.632499
0.350249 0.1 -0.2625 0.790833 0.0118796 0.614929
0.350249 0.1 0.2625 0.792595 0.0119904 0.634623
0 0.1 -0.45 0.788011 0 0.615661
0 0.1 0.45 0.788011 0 0.615661
0.219992 0.1 0.4125 0.799576 0.0124404 0.6316
0.219992 0.1 -0.4125 0.797193 0.0124471 0.612715
0 0.1 -0.46799 0.788011 0 0.615661
0 0.1 0.46799 0.788011 0 0.615661
0.411108 0.1 -0.225 0.786063 0.0122126 0.615323
0.411108 0.1 0.225 0.787693 0.0123505 0.635719
0.467897 0.1 -0.0375 0.781215 0.0126528 0.624331
0.467897 0.1 0.0375 0.78151 0.0126883 0.628369
0.0363518 0.1 0.46799 0.790748 0.00660415 0.619128
0.0363518 0.1 -0.46799 0.790667 0.00672198 0.614934
0.287374 0.1 -0.375 0.794162 0.0121265 0.61218
0.287374 0.1 0.375 0.796535 0.0121476 0.634634
0.150379 0.1 0.45 0.796888 0.0131273 0.627565
0.150379 0.1 -0.45 0.795601 0.013277 0.61316
0.467897 0.1 0.1125 0.78205 0.0127067 0.632335
0.467897 0.1 -0.1125 0.781169 0.0125993 0.620288
0.350249 0.1 -0.3375 0.7912 0.011809 0.612172
0.350249 0.1 0.3375 0.793437 0.0118849 0.637068
0.075776 0.1 -0.4875 0.79359 0.0141287 0.614135
0.075776 0.1 0.4875 0.793768 0.0138902 0.622879
0.467897 0.1 0.1875 0.782828 0.0126945 0.636178
0.467897 0.1 -0.1875 0.781372 0.0125357 0.616291
0 0.1 -0.50701 0.788011 0 0.615661
0 0.1 0.50701 0.788011 0 0.615661
0.0363518 0.1 -0.50701 0.790667 0.00672198 0.614934
0.0363518 0.1 0.50701 0.790748 0.00660415 0.619128
0.411108 0.1 0.3 0.788635 0.0122712 0.638769
0.411108 0.1 -0.3 0.786486 0.0121424 0.612003
0.522865 0.1 1.41031e-17 0.775342 0.0132784 0.626548
0 0.1 -0.525 0.788011 0 0.615661
0 0.1 0.525 0.788011 0 0.615661
0.522865 0.1 -0.075 0.775198 0.0132297 0.621907
0.522865 0.1 0.075 0.775792 0.0133036 0.631158
0.287374 0.1 0.45 0.797323 0.0119938 0.636349
0.287374 0.1 -0.45 0.794714 0.0120684 0.610033
0.219992 0.1 0.4875 0.800127 0.012305 0.632828
0.219992 0.1 -0.4875 0.797792 0.0123997 0.611043
0.467897 0.1 -0.2625 0.781812 0.0124679 0.612395
0.467897 0.1 0.2625 0.783825 0.0126388 0.639853
0.350249 0.1 -0.4125 0.791718 0.0117559 0.609539
0.350249 0.1 0.4125 0.794399 0.0117292 0.63931
0 0.1 -0.54299 0.788011 0 0.615661
0 0.1 0.54299 0.788011 0 0.615661
0.522865 0.1 0.15 0.77654 0.0133003 0.635667
0.522865 0.1 -0.15 0.775357 0.0131616 0.617304
0.0363518 0.1 0.54299 0.790734 0.00658318 0.619269
0.0363518 0.1 -0.54299 0.790644 0.00669096 0.614605
0.150379 0.1 -0.525 0.795875 0.0132202 0.611981
0.150379 0.1 0.525 0.797134 0.013033 0.628296
0.411108 0.1 -0.375 0.787091 0.0120722 0.608818
0.411108 0.1 0.375 0.789755 0.0121423 0.641604
0.075776 0.1 -0.5625 0.793544 0.0140663 0.613448
0.075776 0.1 0.5625 0.79374 0.0138478 0.623174
0.522865 0.1 -0.225 0.775808 0.0130804 0.612801
0.522865 0.1 0.225 0.777572 0.0132588 0.640012
0.574156 0.1 0.0375 0.769706 0.0138793 0.629353
0.574157 0.1 -0.0375 0.769405 0.0138405 0.624124
0.467897 0.1 -0.3375 0.782476 0.0123854 0.608643
0.467897 0.1 0.3375 0.785047 0.0125396 0.643292
0 0.1 -0.58201 0.788011 0 0.615661
0 0.1 0.58201 0.788011 0 0.615661
0.0363518 0.1 -0.58201 0.790644 0.00669096 0.614605
0.0363518 0.1 0.58201 0.790734 0.00658318 0.619269
0.574157 0.1 -0.1125 0.769466 0.0137736 0.618915
0.574157 0.1 0.1125 0.770365 0.0138875 0.634513
0.287374 0.1 -0.525 0.795364 0.0120148 0.60798
0.287374 0.1 0.525 0.798091 0.0118189 0.637847
0 0.1 -0.6 0.788011 0 0.615661
0 0.1 0.6 0.788011 0 0.615661
0.350249 0.1 0.4875 0.795418 0.0115355 0.641301
0.350249 0.1 -0.4875 0.792401 0.0117032 0.606994
0.522865 0.1 -0.3 0.776533 0.0129827 0.608459
0.522865 0.1 0.3 0.77888 0.0131717 0.644131
0.219992 0.1 -0.5625 0.798369 0.0123735 0.609462
0.219992 0.1 0.5625 0.800602 0.0121731 0.633826
0.574156 0.1 -0.1875 0.769877 0.0136861 0.613795
0.574156 0.1 0.1875 0.771372 0.0138602 0.639533
0.411108 0.1 0.45 0.791013 0.0119635 0.64418
0.411108 0.1 -0.45 0.787864 0.0120049 0.605782
0 0.1 -0.61799 0.788011 0 0.615661
0 0.1 0.61799 0.788011 0 0.615661
0.150379 0.1 -0.6 0.79612 0.0131794 0.610887
0.150379 0.1 0.6 0.797347 0.0129471 0.628872
0.0363518 0.1 -0.61799 0.790634 0.00667153 0.614304
0.0363518 0.1 0.61799 0.790727 0.00656465 0.619385
0.467897 0.1 -0.4125 0.783335 0.0123115 0.605082
0.467897 0.1 0.4125 0.786482 0.0123845 0.646467
0.623803 0.1 2.34188e-17 0.762613 0.0147414 0.626533
0.623803 0.1 0.075 0.763115 0.0147674 0.632358
0.623803 0.1 -0.075 0.76254 0.0146778 0.620698
0.574156 0.1 0.2625 0.772711 0.0137899 0.644329
0.574156 0.1 -0.2625 0.770619 0.0135816 0.608842
0.623803 0.1 0.15 0.764042 0.0147519 0.638079
0.623803 0.1 -0.15 0.76289 0.0145816 0.614941
0.075776 0.1 0.6375 0.793724 0.0138102 0.623413
0.075776 0.1 -0.6375 0.793526 0.014027 0.61282
0.522865 0.1 -0.375 0.7775 0.0128724 0.604324
0.522865 0.1 0.375 0.780453 0.0130321 0.647969
0 0.1 0.65701 0.788011 0 0.615661
0 0.1 -0.65701 0.788011 0 0.615661
0.0363518 0.1 0.65701 0.790727 0.00656465 0.619385
0.0363518 0.1 -0.65701 0.790634 0.00667153 0.614304
0.350249 0.1 0.5625 0.796423 0.0113006 0.643042
0.350249 0.1 -0.5625 0.793137 0.0116166 0.604616
0.623803 0.1 0.225 0.765377 0.0146908 0.643606
0.623803 0.1 -0.225 0.763639 0.0144574 0.609349
0.287374 0.1 -0.6 0.795985 0.011947 0.606077
0.287374 0.1 0.6 0.7988 0.0116335 0.639087
0.574157 0.1 -0.3375 0.771661 0.0134473 0.604111
0.574157 0.1 0.3375 0.774368 0.0136676 0.648851
0.411108 0.1 0.525 0.792348 0.0117371 0.646465
0.411108 0.1 -0.525 0.788757 0.0119133 0.602929
0.67013 0.1 0.0375 0.756056 0.0156134 0.629562
0.67013 0.1 -0.0375 0.755781 0.015561 0.623105
0.219992 0.1 -0.6375 0.798812 0.0123376 0.608019
0.219993 0.1 0.6375 0.800998 0.0120458 0.634571
0 0.1 -0.675 0.788011 0 0.615661
0 0.1 0.675 0.788011 0 0.615661
0.467897 0.1 -0.4875 0.784351 0.0122232 0.601715
0.467897 0.1 0.4875 0.78808 0.0121743 0.649322
0.67013 0.1 -0.1125 0.756003 0.0154656 0.616703
0.67013 0.1 0.1125 0.75683 0.0156178 0.63597
0.522865 0.1 0.45 0.782262 0.0128349 0.651476
0.522865 0.1 -0.45 0.778669 0.0127493 0.600434
0.150379 0.1 0.675 0.797539 0.0128665 0.629303
0.150379 0.1 -0.675 0.796328 0.0131375 0.609894
0.623803 0.1 0.3 0.7671 0.0145776 0.648859
0.623803 0.1 -0.3 0.764753 0.0143002 0.60399
0 0.1 -0.69299 0.788011 0 0.615661
0 0.1 0.69299 0.788011 0 0.615661
0.0363518 0.1 -0.69299 0.790633 0.00665231 0.614035
0.0363518 0.1 0.69299 0.790726 0.00654641 0.619473
0.67013 0.1 -0.1875 0.7567 0.0153319 0.610452
0.67013 0.1 0.1875 0.758091 0.0155713 0.642223
0.574156 0.1 0.4125 0.776328 0.0134867 0.653027
0.574157 0.1 -0.4125 0.77295 0.0132994 0.599651
0.714971 0.1 -2.8382e-17 0.748313 0.016707 0.625785
0.075776 0.1 -0.7125 0.793526 0.0139878 0.61226
0.075776 0.1 0.7125 0.793722 0.0137732 0.623597
0.714971 0.1 -0.075 0.748355 0.0166118 0.618726
0.714971 0.1 0.075 0.748847 0.0167455 0.632866
0.67013 0.1 0.2625 0.759813 0.0154716 0.648218
0.67013 0.1 -0.2625 0.757835 0.0151632 0.604444
0.411108 0.1 -0.6 0.789699 0.0117839 0.600311
0.411108 0.1 0.6 0.793688 0.0114747 0.648435
0.350249 0.1 0.6375 0.797358 0.0110577 0.644487
0.350249 0.1 -0.6375 0.793854 0.0114977 0.602441
0.623803 0.1 0.375 0.76919 0.0144053 0.653766
0.623803 0.1 -0.375 0.766185 0.0141108 0.598929
0.714971 0.1 -0.15 0.748957 0.0164646 0.611801
0.714971 0.1 0.15 0.749954 0.0167229 0.639852
0.467897 0.1 -0.5625 0.785474 0.0120865 0.598623
0.467897 0.1 0.5625 0.78977 0.0119083 0.651841
0 0.1 -0.73201 0.788011 0 0.615661
0 0.1 0.73201 0.788011 0 0.615661
0.0363518 0.1 0.73201 0.790726 0.00654641 0.619473
0.0363518 0.1 -0.73201 0.790633 0.00665231 0.614035
0.287374 0.1 -0.675 0.796547 0.0118584 0.604352
0.287374 0.1 0.675 0.799449 0.0114513 0.640058
0.522865 0.1 -0.525 0.779996 0.0125898 0.596841
0.522865 0.1 0.525 0.78425 0.0125785 0.654609
0.219993 0.1 -0.7125 0.7992 0.0122847 0.606716
0.219992 0.1 0.7125 0.801369 0.0119294 0.635106
0.714971 0.1 -0.225 0.750081 0.0162689 0.605115
0.714971 0.1 0.225 0.751614 0.0166374 0.646624
0 0.1 0.75 0.788011 0 0.615661
0 0.1 -0.75 0.788011 0 0.615661
0.67013 0.1 -0.3375 0.759357 0.0149447 0.59874
0.67013 0.1 0.3375 0.761971 0.0153123 0.653873
0.574156 0.1 -0.4875 0.774444 0.0131206 0.595514
0.574157 0.1 0.4875 0.778548 0.0132453 0.656809
0.756813 0.1 0.0375 0.741065 0.0178265 0.629113
0.756814 0.1 -0.0375 0.740851 0.017743 0.621395
0.150379 0.1 0.746002 0.797645 0.0128117 0.629486
0.150379 0.1 -0.75 0.796512 0.0130911 0.609005
0.756813 0.1 -0.1125 0.741283 0.0175949 0.613778
0.756813 0.1 0.1125 0.741937 0.0178393 0.63681
0 0.1 0.76799 0.788011 0 0.615661
0 0.1 -0.76799 0.788011 0 0.615661
0.0363518 0.1 0.76799 0.790729 0.00653077 0.619534
0.0363518 0.1 -0.76799 0.79064 0.00663725 0.613796
0.623803 0.1 -0.45 0.767883 0.0138909 0.594227
0.623803 0.1 0.45 0.771612 0.0141704 0.658263
0.714971 0.1 -0.3 0.751674 0.0160202 0.598747
0.714971 0.1 0.3 0.753796 0.0164865 0.653073
0.756814 0.1 -0.1875 0.742331 0.0173859 0.606386
0.756814 0.1 0.1875 0.743454 0.0177785 0.644351
0.67013 0.1 -0.4125 0.761211 0.0146915 0.593421
0.67013 0.1 0.4125 0.764535 0.0150873 0.65911
0.411108 0.1 0.675 0.794987 0.0111982 0.650055
0.411108 0.1 -0.675 0.790648 0.0116239 0.597956
0.467897 0.1 0.6375 0.79147 0.0116048 0.653986
0.467897 0.1 -0.6375 0.78665 0.0119133 0.595827
0.075776 0.1 0.7875 0.793728 0.0137414 0.623722
0.075776 0.1 -0.7875 0.793539 0.0139571 0.611763
0.350249 0.1 -0.7125 0.794544 0.0113548 0.600493
0.350249 0.1 0.7125 0.798229 0.0108209 0.645615
0.522865 0.1 -0.6 0.781429 0.0123877 0.593591
0.522865 0.1 0.6 0.786341 0.0122681 0.657338
0.797314 0.1 -3.59473e-17 0.732922 0.0191866 0.624444
0.287374 0.1 0.746002 0.800059 0.0112945 0.640643
0.797314 0.1 -0.075 0.733133 0.0190346 0.616136
0.797314 0.1 0.075 0.73345 0.0192557 0.632812
0.756814 0.1 -0.2625 0.743934 0.0171174 0.599327
0.756814 0.1 0.2625 0.745583 0.0176444 0.651609
0.287374 0.1 -0.75 0.797063 0.0117523 0.602812
0.574156 0.1 -0.5625 0.776098 0.01289 0.591766
0.574156 0.1 0.5625 0.780965 0.012939 0.660154
0 0.1 0.80701 0.788011 0 0.615661
0 0.1 -0.80701 0.788011 0 0.615661
0.714971 0.1 -0.375 0.75368 0.0157203 0.592784
0.714971 0.1 0.375 0.756463 0.016266 0.65911
0.0363518 0.1 0.80701 0.790729 0.00653077 0.619534
0.0363518 0.1 -0.80701 0.79064 0.00663725 0.613796
0.797314 0.1 -0.15 0.734057 0.0188044 0.608027
0.797314 0.1 0.15 0.734718 0.0192372 0.641099
0.623803 0.1 -0.525 0.769797 0.013627 0.589946
0.623803 0.1 0.525 0.774311 0.0138707 0.662295
0.219992 0.1 0.7875 0.801734 0.0118173 0.635463
0.219992 0.1 -0.7875 0.799518 0.0122231 0.605552
0.149792 0.1 0.80701 0.797864 0.0127385 0.629749
0 0.1 0.825 0.788011 0 0.615661
0 0.1 -0.825 0.788011 0 0.615661
0.797314 0.1 -0.225 0.735637 0.0185009 0.600244
0.797314 0.1 0.225 0.736705 0.0191296 0.649162
0.756813 0.1 -0.3375 0.746028 0.0167822 0.592662
0.756813 0.1 0.3375 0.748283 0.0174355 0.658458
0.67013 0.1 0.4875 0.767455 0.0147967 0.663864
0.67013 0.1 -0.4875 0.763345 0.0143958 0.588558
0.835106 0.1 -0.0375 0.725079 0.0204705 0.619154
0.835106 0.1 0.0375 0.725177 0.02061 0.628158
0.150379 0.1 -0.825 0.796669 0.013043 0.608219
0.835106 0.1 -0.1125 0.725795 0.0202357 0.610302
0.835106 0.1 0.1125 0.726104 0.0206491 0.637171
0 0.1 -0.84299 0.788011 0 0.615661
0 0.1 0.84299 0.788011 0 0.615661
0.0363518 0.1 -0.84299 0.790648 0.00662409 0.613584
0.0363518 0.1 0.84299 0.790734 0.00651624 0.619562
0.714971 0.1 -0.45 0.756039 0.0153753 0.587309
0.714971 0.1 0.45 0.759568 0.0159736 0.664651
0.411108 0.1 0.746002 0.796214 0.0109289 0.65116
0.797314 0.1 -0.3 0.7378 0.018125 0.592879
0.797314 0.1 0.3 0.739367 0.0189329 0.65686
0.467897 0.1 -0.7125 0.78784 0.0117107 0.593351
0.467897 0.1 0.7125 0.793125 0.0112851 0.655722
0.522865 0.1 0.675 0.788457 0.0119203 0.659625
0.522865 0.1 -0.675 0.78292 0.0121543 0.590705
0.411108 0.1 -0.75 0.791581 0.0114408 0.595877
0.835106 0.1 -0.1875 0.727283 0.0199102 0.601761
0.835107 0.1 0.1875 0.727855 0.0205838 0.646029
0.286844 0.1 0.80701 0.800516 0.0111468 0.64115
0.574156 0.1 0.6375 0.783492 0.0125752 0.663028
0.574157 0.1 -0.6375 0.777857 0.0126258 0.588425
0.350249 0.1 -0.7875 0.795195 0.0111923 0.598775
0.350249 0.1 0.7875 0.799052 0.0105895 0.646428
0.756813 0.1 -0.4125 0.74856 0.0163938 0.586525
0.756814 0.1 0.4125 0.75151 0.0171486 0.664825
0.623803 0.1 -0.6 0.77187 0.0133218 0.586127
0.623803 0.1 0.6 0.777215 0.0135058 0.66582
0.075776 0.1 0.8625 0.793739 0.0137119 0.62378
0.075776 0.1 -0.8625 0.793556 0.0139301 0.611321
0.871687 0.1 -3.2767e-18 0.716848 0.0220972 0.622615
0.287374 0.1 -0.825 0.79753 0.0116351 0.601462
0.871687 0.1 -0.075 0.717261 0.0218544 0.613042
0.871687 0.1 0.075 0.717344 0.0222231 0.632291
0.67013 0.1 -0.5625 0.765697 0.0140497 0.584208
0.67013 0.1 0.5625 0.77067 0.0144383 0.668079
0.835106 0.1 0.2625 0.730394 0.0204141 0.654585
0.835106 0.1 -0.2625 0.729449 0.0195034 0.593653
0.797314 0.1 -0.375 0.740491 0.0176808 0.58604
0.797314 0.1 0.375 0.742653 0.0186474 0.664076
0 0.1 -0.88201 0.788011 0 0.615661
0 0.1 0.88201 0.788011 0 0.615661
0.0363518 0.1 0.88201 0.790734 0.00651624 0.619562
0.0363518 0.1 -0.88201 0.790648 0.00662409 0.613584
0.871687 0.1 0.15 0.718754 0.0222274 0.641904
0.871687 0.1 -0.15 0.718552 0.0215018 0.603742
0.714971 0.1 0.525 0.763048 0.0156095 0.669625
0.714971 0.1 -0.525 0.758685 0.0149828 0.582386
0.219993 0.1 0.8625 0.802095 0.0117051 0.635666
0.219992 0.1 -0.8625 0.799784 0.0121516 0.604541
0 0.1 0.9 0.788011 0 0.615661
0 0.1 -0.9 0.788011 0 0.615661
0.756813 0.1 0.4875 0.755196 0.0167838 0.670592
0.756814 0.1 -0.4875 0.751454 0.0159559 0.580971
0.871687 0.1 0.225 0.721059 0.0221079 0.651285
0.871687 0.1 -0.225 0.720643 0.0210537 0.594874
0.835106 0.1 -0.3375 0.732223 0.0190147 0.586058
0.835106 0.1 0.3375 0.733659 0.0201418 0.662676
0.41063 0.1 0.80701 0.797144 0.0107102 0.652014
0.90582 0.1 -0.0375 0.708803 0.0234898 0.616447
0.905821 0.1 0.0375 0.70878 0.0237202 0.626753
0.522865 0.1 0.746002 0.790502 0.0115635 0.661275
0.150379 0.1 0.9 0.798103 0.0126479 0.629871
0.90582 0.1 0.1125 0.709761 0.0238128 0.637099
0.905821 0.1 -0.1125 0.709808 0.0231265 0.606352
0.522865 0.1 -0.75 0.784432 0.011899 0.588192
0.574156 0.1 0.7125 0.78604 0.0121742 0.665395
0.574156 0.1 -0.7125 0.779672 0.0123359 0.585512
0.797314 0.1 -0.45 0.743635 0.0171783 0.579824
0.797314 0.1 0.45 0.7465 0.0182738 0.670708
0.467897 0.1 -0.7875 0.789021 0.0114889 0.591196
0.467897 0.1 0.7875 0.794714 0.0109628 0.657031
0.150379 0.1 -0.903998 0.796872 0.012978 0.607516
0 0.1 0.91799 0.788011 0 0.615661
0 0.1 -0.91799 0.788011 0 0.615661
0.0363518 0.1 0.91799 0.790737 0.00650277 0.619556
0.0363518 0.1 -0.91799 0.790656 0.00661039 0.613398
0.623803 0.1 0.675 0.780231 0.0130848 0.6688
0.623803 0.1 -0.675 0.774042 0.0129888 0.582785
0.411108 0.1 -0.825 0.792491 0.0112445 0.594075
0.871687 0.1 0.3 0.724204 0.0218657 0.660267
0.871687 0.1 -0.3 0.723441 0.0205176 0.586537
0.67013 0.1 -0.6375 0.768198 0.0136741 0.580389
0.67013 0.1 0.6375 0.774096 0.0140096 0.671715
0.90582 0.1 -0.1875 0.711751 0.0226439 0.596674
0.90582 0.1 0.1875 0.71174 0.0237627 0.647296
0.350249 0.1 0.8625 0.799839 0.0103664 0.646942
0.350249 0.1 -0.8625 0.795812 0.0110234 0.597292
0.835106 0.1 -0.4125 0.735562 0.0184556 0.579124
0.835106 0.1 0.4125 0.737593 0.0197702 0.670194
0.714971 0.1 -0.6 0.761539 0.0145525 0.578054
0.714971 0.1 0.6 0.766824 0.0151734 0.673984
0.93886 0.1 -1.15648e-17 0.700392 0.0256518 0.620412
0.075776 0.1 0.9375 0.793746 0.0136845 0.623769
0.075776 0.1 -0.9375 0.793572 0.0139021 0.610935
0.93886 0.1 0.075 0.700817 0.0258676 0.631436
0.93886 0.1 -0.075 0.70106 0.025275 0.609537
0.756813 0.1 0.5625 0.759266 0.0163444 0.675721
0.756814 0.1 -0.5625 0.754629 0.0154705 0.576067
0.905821 0.1 -0.2625 0.714507 0.0220708 0.587557
0.905821 0.1 0.2625 0.714679 0.0235697 0.657172
0.287374 0.1 0.9 0.801219 0.0109374 0.641504
0.287374 0.1 -0.903998 0.797892 0.011513 0.60032
0.871687 0.1 0.375 0.728122 0.0215065 0.668694
0.871687 0.1 -0.375 0.726888 0.019897 0.578838
0.93886 0.1 -0.15 0.702791 0.0247504 0.59902
0.93886 0.1 0.15 0.702343 0.0259167 0.642415
0.797314 0.1 0.525 0.750826 0.0178167 0.676664
0.797314 0.1 -0.525 0.747139 0.0166259 0.574294
0 0.1 0.95701 0.788011 0 0.615661
0 0.1 -0.95701 0.788011 0 0.615661
0.0363518 0.1 0.95701 0.790737 0.00650277 0.619556
0.0363518 0.1 -0.95701 0.790656 0.00661039 0.613398
0.522433 0.1 0.80701 0.792087 0.0112713 0.662508
0.219992 0.1 0.9375 0.802442 0.011594 0.635715
0.219992 0.1 -0.9375 0.80006 0.012076 0.603663
0.93886 0.1 0.225 0.704948 0.0257959 0.653152
0.93886 0.1 -0.225 0.705481 0.0241125 0.589056
0.90582 0.1 0.3375 0.718504 0.0232372 0.666542
0.905821 0.1 -0.3375 0.717986 0.0214002 0.579054
0.835106 0.1 -0.4875 0.739348 0.0178364 0.572906
0.835107 0.1 0.4875 0.742112 0.0193023 0.677037
0.969689 0.1 -0.0375 0.692308 0.0274595 0.613416
0.969689 0.1 0.0375 0.692079 0.0278229 0.625084
0.61613 0.1 0.75 0.783267 0.0126255 0.671204
0.574156 0.1 -0.7875 0.781507 0.0120323 0.58302
0.574156 0.1 0.7875 0.788541 0.0117549 0.66723
0 0.1 0.975 0.788011 0 0.615661
0 0.1 -0.975 0.788011 0 0.615661
0.623803 0.1 -0.75 0.776262 0.012638 0.579925
0.969689 0.1 -0.1125 0.693714 0.0269135 0.602019
0.969689 0.1 0.1125 0.693053 0.0279974 0.636826
0.522865 0.1 -0.825 0.785941 0.0116317 0.586048
0.67013 0.1 0.7125 0.777625 0.0135218 0.674732
0.67013 0.1 -0.7125 0.770782 0.0132758 0.57711
0.871687 0.1 -0.45 0.730896 0.019205 0.571896
0.871687 0.1 0.45 0.732734 0.0210348 0.676453
0.467897 0.1 0.8625 0.796229 0.0106458 0.657922
0.467897 0.1 -0.8625 0.790189 0.0112594 0.58936
0.714971 0.1 -0.675 0.764523 0.014099 0.574325
0.714971 0.1 0.675 0.7708 0.0146685 0.677684
0.93886 0.1 -0.3 0.708976 0.0233765 0.579734
0.93886 0.1 0.3 0.708574 0.0255074 0.663455
0.150379 0.1 0.975 0.798278 0.0125782 0.629838
0.150379 0.1 -0.975 0.796966 0.012939 0.606942
0.969689 0.1 -0.1875 0.696274 0.0262121 0.591151
0.969689 0.1 0.1875 0.695221 0.0279753 0.648423
0.411108 0.1 0.9 0.798552 0.0103767 0.652734
0.756813 0.1 0.6375 0.763632 0.0158293 0.68015
0.756814 0.1 -0.6375 0.75799 0.0149612 0.571829
0.990306 0.1 -2.19732e-17 0.687438 0.028689 0.618461
0 0.1 0.99299 0.788011 0 0.615661
0 0.1 -0.99299 0.788011 0 0.615661
0.411108 0.1 -0.903998 0.79324 0.0110668 0.59259
0.990306 0.1 -0.075 0.688318 0.0281843 0.606587
0.990306 0.1 0.075 0.687801 0.0289977 0.630516
0.0363518 0.1 0.99299 0.79074 0.0064894 0.619523
0.0363518 0.1 -0.99299 0.790663 0.00659609 0.613239
0.90582 0.1 -0.4125 0.72216 0.0206416 0.571315
0.905821 0.1 0.4125 0.723133 0.0227789 0.675238
0.797314 0.1 -0.6 0.750901 0.0160408 0.569498
0.797314 0.1 0.6 0.755537 0.0172781 0.681881
0.350249 0.1 0.9375 0.800599 0.0101481 0.647187
0.350249 0.1 -0.9375 0.796418 0.0108579 0.596027
0.990306 0.1 0.15 0.689415 0.0291028 0.64254
0.990306 0.1 -0.15 0.69042 0.0275002 0.595134
0.969689 0.1 -0.2625 0.699757 0.0254233 0.580986
0.969689 0.1 0.2625 0.698545 0.0277572 0.659666
0.835106 0.1 -0.5625 0.743481 0.0171751 0.567482
0.835106 0.1 0.5625 0.747113 0.0187494 0.683093
0.93886 0.1 -0.375 0.713248 0.0225328 0.571142
0.93886 0.1 0.375 0.713137 0.0250615 0.673136
0.075776 0.1 1.0125 0.793752 0.0136573 0.623699
0.075776 0.1 -1.0125 0.793586 0.0138729 0.610604
0.990306 0.1 -0.225 0.69361 0.0266989 0.584343
0.990306 0.1 0.225 0.692255 0.0289995 0.654314
0.287374 0.1 0.975 0.801762 0.0107722 0.641551
0.287374 0.1 -0.975 0.79842 0.0113922 0.599308
0.871687 0.1 -0.525 0.735344 0.0184623 0.565793
0.871687 0.1 0.525 0.737944 0.0204572 0.683423
1.02149 0.1 -0.0369628 0.677942 0.0307668 0.610612
1.02149 0.1 0.0369628 0.677604 0.031264 0.623188
0.969689 0.1 -0.3375 0.704003 0.0245174 0.571509
0.969689 0.1 0.3375 0.70295 0.0273481 0.670358
1.02149 0.1 -0.110888 0.679592 0.030059 0.598328
1.02149 0.1 0.110888 0.678599 0.031545 0.635858
0.90582 0.1 0.4875 0.728481 0.0221929 0.683184
0.90582 0.1 -0.4875 0.726868 0.0198163 0.564457
0.623803 0.1 0.819003 0.785398 0.0122935 0.673397
0 0.1 1.03201 0.788011 0 0.615661
0 0.1 -1.03201 0.788011 0 0.615661
0.0363518 0.1 1.03201 0.79074 0.0064894 0.619523
0.0363518 0.1 -1.03201 0.790663 0.00659609 0.613239
0.67013 0.1 -0.7875 0.773398 0.0128685 0.574364
0.67013 0.1 0.7875 0.781154 0.0129967 0.677106
0.623803 0.1 -0.825 0.778488 0.0122789 0.577537
0.990306 0.1 -0.3 0.69768 0.0257988 0.574269
0.990306 0.1 0.3 0.696261 0.0286899 0.66563
0.219992 0.1 -1.0125 0.800344 0.0119994 0.602912
0.219993 0.1 1.0125 0.802768 0.0114847 0.635614
0.574156 0.1 0.8625 0.790948 0.0113331 0.668531
0.574157 0.1 -0.8625 0.783333 0.0117213 0.580942
0.714971 0.1 -0.75 0.767567 0.0136321 0.571196
0.714971 0.1 0.75 0.774861 0.0141081 0.680693
1.02149 0.1 0.184814 0.680916 0.0315969 0.648401
1.02149 0.1 -0.184814 0.682525 0.0291713 0.586656
0.756814 0.1 -0.7125 0.76145 0.0144349 0.568261
0.756814 0.1 0.7125 0.768181 0.0152446 0.683843
0.522865 0.1 0.9 0.794478 0.0108144 0.663652
0.93886 0.1 -0.45 0.71822 0.0215994 0.563451
0.93886 0.1 0.45 0.718543 0.0244672 0.682051
1.04168 0.1 0 0.671779 0.0325672 0.615932
1.04168 0.1 -0.0729162 0.672839 0.0319017 0.603186
1.04168 0.1 0.0729162 0.672062 0.0330093 0.628874
0.522865 0.1 -0.903998 0.78722 0.0113909 0.584328
0.797314 0.1 -0.675 0.754815 0.0154398 0.565444
0.797314 0.1 0.675 0.760528 0.0166606 0.686312
0.467897 0.1 0.9375 0.797682 0.0103343 0.658418
0.467897 0.1 -0.9375 0.791338 0.0110278 0.587829
0 0.1 1.05 0.788011 0 0.615661
0 0.1 -1.05 0.788011 0 0.615661
0.835106 0.1 -0.6375 0.747828 0.0164966 0.562876
0.835106 0.1 0.6375 0.752493 0.0181064 0.68832
1.04168 0.1 -0.145832 0.675218 0.0310258 0.590901
1.04168 0.1 0.145832 0.673696 0.0332177 0.641809
1.02149 0.1 -0.25874 0.686512 0.028234 0.575824
1.02149 0.1 0.25874 0.684508 0.0314183 0.66059
0.969689 0.1 -0.4125 0.70917 0.0234845 0.56288
0.969689 0.1 0.4125 0.708328 0.0267671 0.680292
0.411108 0.1 0.975 0.799639 0.0101122 0.652949
0.411108 0.1 -0.975 0.794257 0.0108454 0.591269
0.871687 0.1 -0.6 0.740103 0.0176938 0.560581
0.871687 0.1 0.6 0.743629 0.0197839 0.689516
1.0579 0.1 -0.0360525 0.667296 0.0335185 0.6085
1.0579 0.1 0.0360525 0.666842 0.0341216 0.621619
0.990306 0.1 -0.375 0.702643 0.0247627 0.564973
0.990306 0.1 0.375 0.701338 0.0281857 0.676282
0.150379 0.1 1.05 0.798443 0.0125106 0.629704
0.150379 0.1 -1.05 0.797119 0.012886 0.606441
1.0579 0.1 0.108157 0.667756 0.0344916 0.634847
1.0579 0.1 -0.108157 0.669091 0.032687 0.595683
1.04168 0.1 -0.218749 0.678805 0.0300378 0.579387
1.04168 0.1 0.218749 0.676652 0.0331832 0.654511
0.90582 0.1 -0.5625 0.732006 0.0189573 0.55856
0.90582 0.1 0.5625 0.734428 0.0214932 0.690192
0 0.1 -1.06799 0.788011 0 0.615661
0 0.1 1.06799 0.788011 0 0.615661
0.0363518 0.1 -1.06799 0.790671 0.00658371 0.613105
0.0363518 0.1 1.06799 0.790743 0.00647569 0.619462
0.350249 0.1 1.0125 0.801321 0.00993113 0.647178
0.350249 0.1 -1.0125 0.797017 0.0106935 0.594975
1.0579 0.1 -0.180262 0.672184 0.0316547 0.583508
1.0579 0.1 0.180262 0.670027 0.0346112 0.647966
1.02149 0.1 -0.332665 0.691367 0.0271585 0.565665
1.02149 0.1 0.332665 0.6893 0.0310125 0.672221
0.93886 0.1 -0.525 0.723723 0.0206134 0.556795
0.93886 0.1 0.525 0.724678 0.0237361 0.690069
1.08012 0.1 5.49329e-18 0.660159 0.0357876 0.613875
1.04168 0.1 -0.291665 0.683397 0.028963 0.568657
1.04168 0.1 0.291665 0.680871 0.0329055 0.666762
1.08012 0.1 0.0709941 0.660347 0.0363413 0.627393
1.08012 0.1 -0.0709941 0.66135 0.0349942 0.600563
0.969689 0.1 -0.4875 0.714984 0.0223748 0.555362
0.96969 0.1 0.4875 0.714577 0.0260188 0.689347
1.0579 0.1 0.252367 0.67361 0.0344766 0.660746
1.0579 0.1 -0.252367 0.676432 0.0305894 0.572252
0.990306 0.1 -0.45 0.708436 0.0236193 0.556719
0.990306 0.1 0.45 0.707375 0.0274989 0.686097
0.287374 0.1 -1.05 0.798861 0.0112701 0.598486
0.287374 0.1 1.05 0.802275 0.0106115 0.641408
0.714971 0.1 0.821002 0.778547 0.0135717 0.68296
1.08012 0.1 -0.141988 0.663885 0.0339703 0.587725
1.08012 0.1 0.141988 0.661925 0.0366434 0.640922
0.075776 0.1 1.0875 0.793758 0.0136293 0.623571
0.075776 0.1 -1.0875 0.793604 0.0138478 0.610323
0.714971 0.1 -0.825 0.770615 0.013162 0.56865
0.756813 0.1 -0.7875 0.764939 0.0139035 0.565345
0.756814 0.1 0.7875 0.772784 0.0146044 0.686773
0.67013 0.1 -0.8625 0.775999 0.0124581 0.572136
0.67013 0.1 0.8625 0.784598 0.0124587 0.678835
0.797314 0.1 -0.75 0.758789 0.0148325 0.562119
0.797314 0.1 0.75 0.765677 0.0159753 0.689927
0.623803 0.1 0.9 0.789119 0.0116683 0.674247
0.835106 0.1 -0.7125 0.752285 0.0158117 0.559082
0.835106 0.1 0.7125 0.75813 0.0173836 0.692672
0.623803 0.1 -0.903998 0.780401 0.0119602 0.575673
0.574156 0.1 0.9375 0.793247 0.010915 0.669315
0.574156 0.1 -0.9375 0.785127 0.0114082 0.579257
1.02149 0.1 -0.406591 0.697272 0.0259107 0.55641
1.02149 0.1 0.406591 0.695176 0.0303948 0.683089
1.08012 0.1 -0.212982 0.667694 0.0328275 0.57571
1.08012 0.1 0.212982 0.664863 0.0366802 0.654237
1.10076 0.1 -0.0349809 0.653681 0.037373 0.605825
1.10076 0.1 0.0349809 0.653126 0.0381169 0.619604
0.871687 0.1 -0.675 0.745033 0.0169183 0.556264
0.871687 0.1 0.675 0.749657 0.0190227 0.694692
1.04168 0.1 -0.364581 0.688971 0.0277166 0.558707
1.04168 0.1 0.364581 0.686262 0.0323926 0.678358
1.10076 0.1 -0.104943 0.655628 0.0363826 0.592346
1.10076 0.1 0.104943 0.653989 0.0386122 0.633507
0.522865 0.1 0.975 0.796316 0.0104516 0.664078
0.522865 0.1 -0.975 0.78889 0.0110853 0.582821