# wallShearStress  POINT_DATA 52309
# x  y  z  wallShearStress_x  wallShearStress_y  wallShearStress_z
0 0 0 -0.00462144 -7.733e-05 2.28166e-07
0 0.00519778 0 0 0 0
0 0.0106663 0 0 0 0
0 0.0164197 0 0 0 0
0 0.0224727 0 0 0 0
0 0.028841 0 0 0 0
0 0.035541 0 0 0 0
0 0.04259 0 0 0 0
0 0.0500061 0 0 0 0
0 0.0578085 0 0 0 0
0 0.0660173 0 0 0 0
0 0.0746537 0 0 0 0
0.075776 0.00259889 0 0 0 0
0.075776 0.00793204 0 0 0 0
0.075776 0.013543 0 0 0 0
0.075776 0.0194462 0 0 0 0
0.075776 0.0256568 0 0 0 0
0.075776 0.032191 3.46945e-18 0 0 0
0 0.0837399 0 0 0 0
0.075776 0.0390655 3.46945e-18 0 0 0
0.075776 0.046298 -3.46945e-18 0 0 0
0.075776 0.0539073 0 0 0 0
0 0.0932994 0 0 0 0
0.075776 0.0619129 0 0 0 0
0 0.103357 0 0 0 0
0.075776 0.0703355 0 0 0 0
0.075776 0.0791968 0 0 0 0
0 0.113938 0 0 0 0
0.075776 0.0885197 3.46945e-18 0 0 0
0.075776 0.0983282 0 0 0 0
0 0.12507 0 0 0 0
0.075776 0.108648 0 0 0 0
0 0.136783 0 0 0 0
0.075776 0.119504 0 0 0 0
0 0.149105 0 0 0 0
0.075776 0.130926 0 0 0 0
0.151552 0 0 -0.010513 -0.00019181 1.19227e-06
0.151552 0.00519778 0 0 0 0
0.151552 0.0106663 0 0 0 0
0.151552 0.0164197 0 0 0 0
0.151552 0.0224727 0 0 0 0
0.151552 0.028841 0 0 0 0
0.151552 0.035541 0 0 0 0
0.151552 0.04259 0 0 0 0
0.151552 0.0500061 0 0 0 0
0.075776 0.142944 0 0 0 0
0 0.162069 0 0 0 0
0.151552 0.0578085 0 0 0 0
0.151552 0.0660173 0 0 0 0
0.151552 0.0746537 0 0 0 0
0.075776 0.155587 3.46945e-18 0 0 0
0.151552 0.0837399 0 0 0 0
0 0.175708 0 0 0 0
0.151552 0.0932994 0 0 0 0
0.151552 0.103357 0 0 0 0
0.075776 0.168888 0 0 0 0
0.151552 0.113938 0 0 0 0
0 0.190058 0 0 0 0
0.151552 0.12507 0 0 0 0
0.075776 0.182883 0 0 0 0
0.151552 0.136783 0 0 0 0
0 0.205155 0 0 0 0
0.075776 0.197606 0 0 0 0
0.151552 0.149105 0 0 0 0
0.219992 0.00259889 0 0 0 0
0.219993 0.00793204 0 0 0 0
0.219993 0.013543 0 0 0 0
0.219992 0.0194462 -3.46945e-18 0 0 0
0 0.221039 0 0 0 0
0.219993 0.0256568 0 0 0 0
0.151552 0.162069 0 0 0 0
0.219993 0.032191 0 0 0 0
0.219993 0.0390655 0 0 0 0
0.219993 0.0462981 3.46945e-18 0 0 0
0.075776 0.213097 6.93889e-18 0 0 0
0.219992 0.0539073 0 0 0 0
0.219992 0.0619129 0 0 0 0
0.219992 0.0703355 0 0 0 0
0.151552 0.175708 0 0 0 0
0.219992 0.0791968 0 0 0 0
0.219992 0.0885196 3.46945e-18 0 0 0
0 0.23775 0 0 0 0
0.219992 0.0983282 0 0 0 0
0.075776 0.229395 -3.46945e-18 0 0 0
0.151552 0.190058 0 0 0 0
0.219992 0.108647 0 0 0 0
0.219992 0.119504 -3.46945e-18 0 0 0
0.151552 0.205155 0 0 0 0
0 0.255331 0 0 0 0
0.219992 0.130926 3.46945e-18 0 0 0
0.075776 0.24654 0 0 0 0
0.219993 0.142944 3.46945e-18 0 0 0
0.151552 0.221039 0 0 0 0
0.219992 0.155587 0 0 0 0
0 0.273828 0 0 0 0
0.075776 0.264579 -3.46945e-18 0 0 0
0.219992 0.168888 3.46945e-18 0 0 0
0.151552 0.23775 0 0 0 0
0.219992 0.182883 0 0 0 0
0.288433 0 0 -0.00652831 -0.000114046 2.14372e-06
0.288433 0.00519778 0 0 0 0
0.288433 0.0106663 0 0 0 0
0.288433 0.0164197 0 0 0 0
0.288433 0.0224727 0 0 0 0
0.288433 0.028841 0 0 0 0
0.288433 0.035541 0 0 0 0
0.288433 0.04259 3.70071e-18 0 0 0
0.288433 0.0500061 0 0 0 0
0 0.293289 0 0 0 0
0.075776 0.283558 0 0 0 0
0.288433 0.0578085 0 0 0 0
0.219992 0.197607 3.46945e-18 0 0 0
0.288433 0.0660173 0 0 0 0
0.151552 0.255331 0 0 0 0
0.288433 0.0746537 0 0 0 0
0.288433 0.0837399 0 0 0 0
0.288433 0.0932994 0 0 0 0
0.219992 0.213097 3.46945e-18 0 0 0
0.288433 0.103357 0 0 0 0
0.288433 0.113938 0 0 0 0
0.075776 0.303526 0 0 0 0
0.151552 0.273828 0 0 0 0
0 0.313763 0 0 0 0
0.288433 0.12507 0 0 0 0
0.219992 0.229394 0 0 0 0
0.288433 0.136783 0 0 0 0
0.288433 0.149105 0 0 0 0
0.151552 0.293289 0 0 0 0
0.219992 0.24654 0 0 0 0
0.288433 0.162069 0 0 0 0
0.075776 0.324533 6.93889e-18 0 0 0
0 0.335303 0 0 0 0
0.288433 0.175708 0 0 0 0
0.219992 0.264579 0 0 0 0
0.288433 0.190058 0 0 0 0
0.151552 0.313763 0 0 0 0
0.350249 0.00259889 3.46945e-18 0 0 0
0.350249 0.00793204 -3.46945e-18 0 0 0
0.350249 0.013543 3.46945e-18 0 0 0
0.350249 0.0194462 3.46945e-18 0 0 0
0.350249 0.0256568 -3.46945e-18 0 0 0
0.350249 0.032191 -6.93889e-18 0 0 0
0.350249 0.0390655 6.93889e-18 0 0 0
0.350249 0.0462981 -3.46945e-18 0 0 0
0.288433 0.205155 -6.16298e-33 0 0 0
0.350249 0.0539073 0 0 0 0
0.075776 0.346634 0 0 0 0
0.350249 0.0619129 3.46945e-18 0 0 0
0.350249 0.0703355 3.46945e-18 0 0 0
0 0.357966 0 0 0 0
0.219993 0.283558 3.46945e-18 0 0 0
0.350249 0.0791968 3.46945e-18 0 0 0
0.350249 0.0885196 0 0 0 0
0.288433 0.221039 0 0 0 0
0.350249 0.0983282 6.93889e-18 0 0 0
0.350249 0.108647 3.46945e-18 0 0 0
0.151552 0.335303 0 0 0 0
0.350249 0.119504 -3.46945e-18 0 0 0
0.288433 0.23775 0 0 0 0
0.350249 0.130927 0 0 0 0
0.219992 0.303526 -3.46945e-18 0 0 0
0.075776 0.369888 0 0 0 0
0.350249 0.142944 3.46945e-18 0 0 0
0 0.381809 0 0 0 0
0.350249 0.155587 0 0 0 0
0.288433 0.255331 0 0 0 0
0.151552 0.357966 0 0 0 0
0.350249 0.168888 0 0 0 0
0.219992 0.324533 0 0 0 0
0.350249 0.182883 3.46945e-18 0 0 0
0.288433 0.273828 0 0 0 0
0.075776 0.394351 3.46945e-18 0 0 0
0.350249 0.197607 3.46945e-18 0 0 0
0 0.406893 0 0 0 0
0.350249 0.213097 -3.46945e-18 0 0 0
0.219992 0.346635 0 0 0 0
0.151552 0.381809 0 0 0 0
0.288433 0.293289 -6.16298e-33 0 0 0
0.412065 9.61782e-19 3.08149e-33 -0.00429213 -4.04723e-05 2.95747e-06
0.412065 0.00259889 0 -0.00214607 -2.02362e-05 1.47873e-06
0.412065 0.00519778 -3.08149e-33 0 0 0
0.412065 0.00793204 0 0 0 0
0.412065 0.0106663 -3.70076e-18 0 0 0
0.412065 0.0164197 -3.70076e-18 0 0 0
0.412065 0.0224727 0 0 0 0
0.412065 0.028841 0 0 0 0
0.412065 0.035541 -3.70076e-18 0 0 0
0.412065 0.04259 -3.70076e-18 0 0 0
0.412065 0.0500061 0 0 0 0
0.412065 0.0578085 -3.70076e-18 0 0 0
0.412065 0.0660173 -3.70076e-18 0 0 0
0.350249 0.229395 0 0 0 0
0.412065 0.0746537 -3.70076e-18 0 0 0
0.412065 0.0837399 -3.70076e-18 0 0 0
0.412065 0.0932994 -3.70076e-18 0 0 0
0.412065 0.103357 -3.70076e-18 0 0 0
0.288433 0.313763 0 0 0 0
0.075776 0.420089 0 0 0 0
0.412065 0.113938 -3.70076e-18 0 0 0
0.350249 0.24654 -3.46945e-18 0 0 0
0.219992 0.369887 0 0 0 0
0.412065 0.12507 -3.70076e-18 0 0 0
5.60855e-17 0.433285 6.16298e-33 0 0 0
0.412065 0.136783 -3.70076e-18 0 0 0
0.151552 0.406893 0 0 0 0
0.412065 0.149105 0 0 0 0
0.350249 0.264579 3.46945e-18 0 0 0
0.288433 0.335303 0 0 0 0
0.412065 0.162069 0 0 0 0
0.412065 0.175708 3.08149e-33 0 0 0
0.350249 0.283558 3.46945e-18 0 0 0
0.219993 0.394351 0 0 0 0
0.075776 0.447168 -3.46945e-18 0 0 0
0.412065 0.190058 3.08149e-33 0 0 0
0.151552 0.433285 -3.70071e-18 0 0 0
0.288433 0.357966 0 0 0 0
0.412065 0.205155 3.08149e-33 0 0 0
0 0.461051 0 0 0 0
0.350249 0.303526 6.93889e-18 0 0 0
0.412065 0.213097 0 0 0 0
0.412065 0.221039 -3.08149e-33 0 0 0
0.467897 0.00259889 0 0 0 0
0.467897 0.00793204 -3.46945e-18 0 0 0
0.467897 0.013543 3.46945e-18 0 0 0
0.467897 0.0194462 3.46945e-18 0 0 0
0.467897 0.0256568 -3.46945e-18 0 0 0
0.467897 0.032191 3.46945e-18 0 0 0
0.467897 0.0390655 3.46945e-18 0 0 0
0.467897 0.046298 3.46945e-18 0 0 0
0.467897 0.0539073 3.46945e-18 0 0 0
0.412065 0.229395 0 0 0 0
0.467897 0.0619129 3.46945e-18 0 0 0
0.467897 0.0703355 0 0 0 0
0.219992 0.420089 -3.46945e-18 0 0 0
0.467897 0.0791968 3.46945e-18 0 0 0
0.412065 0.23775 3.08149e-33 0 0 0
0.467897 0.0885197 0 0 0 0
0.350249 0.324533 3.46945e-18 0 0 0
0.467897 0.0983282 0 0 0 0
0.288433 0.381809 0 0 0 0
0.467897 0.103357 0 0 0 0
0.467897 0.108647 0 0 0 0
0.075776 0.475657 0 0 0 0
0.467897 0.119504 -3.46945e-18 0 0 0
0.412065 0.255331 3.08149e-33 0 0 0
0.151552 0.461051 0 0 0 0
0.467897 0.130927 3.46945e-18 0 0 0
0.467897 0.142944 -3.46945e-18 0 0 0
0 0.490263 0 0 0 0
0.350249 0.346634 0 0 0 0
0.467897 0.155587 -6.93889e-18 0 0 0
0.412065 0.273828 3.08149e-33 0 0 0
0.467897 0.168888 0 0 0 0
0.219992 0.447168 0 0 0 0
0.288433 0.406893 0 0 0 0
0.467897 0.182883 0 0 0 0
0.412065 0.293289 3.08149e-33 0 0 0
0.467897 0.197606 -3.46945e-18 0 0 0
0.350249 0.369887 3.46945e-18 0 0 0
0.075776 0.50563 0 0 0 0
0.151552 0.490263 0 0 0 0
0.467897 0.213097 0 0 0 0
0.467897 0.221039 0 0 0 0
0.412065 0.313763 3.08149e-33 0 0 0
0.288433 0.433285 0 0 0 0
0 0.520997 0 0 0 0
0.467897 0.229395 0 0 0 0
0.523729 0 0 -0.00328011 -1.44152e-05 3.76086e-06
0.523729 0.00519778 0 0 0 0
0.523729 0.0106663 -3.70076e-18 0 0 0
0.523729 0.0164197 0 0 0 0
0.219992 0.475657 0 0 0 0
0.523729 0.0224727 0 0 0 0
0.523729 0.028841 0 0 0 0
0.523729 0.035541 0 0 0 0
0.523729 0.04259 0 0 0 0
0.523729 0.0500061 0 0 0 0
0.523729 0.0578085 0 0 0 0
0.350249 0.394351 3.46945e-18 0 0 0
0.523729 0.0660173 0 0 0 0
0.467897 0.24654 0 0 0 0
0.523729 0.0746537 -3.70076e-18 0 0 0
0.523729 0.0837399 -3.70076e-18 0 0 0
0.412065 0.335303 3.08149e-33 0 0 0
0.523729 0.0932994 0 0 0 0
0.523729 0.103357 -3.08149e-33 0 0 0
0.523729 0.113938 0 0 0 0
0.467897 0.264579 0 0 0 0
0.523729 0.12507 0 0 0 0
0.523729 0.136783 0 0 0 0
0.075776 0.537164 0 0 0 0
0.151552 0.520997 0 0 0 0
0.288433 0.461051 0 0 0 0
0.523729 0.149105 0 0 0 0
0.412065 0.357966 3.08149e-33 0 0 0
0.350249 0.420089 0 0 0 0
0.467897 0.283558 0 0 0 0
0.523729 0.162069 0 0 0 0
0.219992 0.50563 0 0 0 0
0.523729 0.175708 0 0 0 0
5.0477e-17 0.553331 3.70071e-18 0 0 0
0.523729 0.190058 0 0 0 0
0.467897 0.303526 3.46945e-18 0 0 0
0.412065 0.381809 3.08149e-33 0 0 0
0.523729 0.205155 3.08149e-33 0 0 0
0.350249 0.447168 3.46945e-18 0 0 0
0.523729 0.221039 3.08149e-33 0 0 0
0.288433 0.490263 0 0 0 0
0.467897 0.324533 3.46945e-18 0 0 0
0.151552 0.553331 0 0 0 0
0.574156 0.00259889 3.46945e-18 0 0 0
0.574156 0.00793204 0 0 0 0
0.574156 0.013543 0 0 0 0
0.574156 0.0194462 0 0 0 0
0.574156 0.0256568 0 0 0 0
0.574157 0.032191 0 0 0 0
0.523729 0.23775 0 0 0 0
0.075776 0.57034 6.93889e-18 0 0 0
0.574156 0.0390655 0 0 0 0
0.574156 0.0462981 0 0 0 0
0.574157 0.0539073 0 0 0 0
0.574156 0.0619129 0 0 0 0
0.574157 0.0703355 0 0 0 0
0.412065 0.406893 0 0 0 0
0.574156 0.0791968 0 0 0 0
0.219993 0.537164 0 0 0 0
0.574156 0.0885196 3.46945e-18 0 0 0
0.467897 0.346635 0 0 0 0
0.574157 0.0983282 0 0 0 0
0.523729 0.255331 0 0 0 0
0.574156 0.108648 -3.46945e-18 0 0 0
0.574157 0.119504 3.46945e-18 0 0 0
0 0.58735 0 0 0 0
0.574156 0.130927 3.46945e-18 0 0 0
0.350249 0.475657 0 0 0 0
0.523729 0.273828 0 0 0 0
0.574156 0.142944 3.46945e-18 0 0 0
0.574156 0.155587 0 0 0 0
0.288433 0.520997 0 0 0 0
0.467897 0.369887 0 0 0 0
0.412065 0.433285 0 0 0 0
0.574157 0.168888 3.46945e-18 0 0 0
0.523729 0.293289 3.08149e-33 0 0 0
0.574156 0.182883 0 0 0 0
0.151552 0.58735 0 0 0 0
0.574157 0.197607 0 0 0 0
0.574156 0.205155 0 0 0 0
0.075776 0.605245 -3.46945e-18 0 0 0
0.523729 0.313763 0 0 0 0
0.219992 0.570341 -3.46945e-18 0 0 0
0.467897 0.394351 -3.46945e-18 0 0 0
0.574156 0.213097 0 0 0 0
0.350249 0.50563 3.46945e-18 0 0 0
0.574156 0.229395 0 0 0 0
0.412065 0.461051 3.08149e-33 0 0 0
0.523729 0.335303 0 0 0 0
0 0.623141 0 0 0 0
0.288433 0.553331 0 0 0 0
0.624584 0 0 -0.00265672 -9.86699e-06 4.31492e-06
0.624584 0.00519778 0 0 0 0
0.624584 0.0106663 -3.70076e-18 0 0 0
0.624584 0.0164197 0 0 0 0
0.574157 0.24654 0 0 0 0
0.624584 0.0224727 0 0 0 0
0.624584 0.028841 0 0 0 0
0.624584 0.035541 0 0 0 0
0.624584 0.04259 0 0 0 0
0.624584 0.0500061 0 0 0 0
0.624584 0.0578085 0 0 0 0
0.624584 0.0660173 0 0 0 0
0.467897 0.420089 -3.46945e-18 0 0 0
0.624584 0.0746537 -3.70076e-18 0 0 0
0.624584 0.0837399 0 0 0 0
0.624584 0.0932994 0 0 0 0
0.574156 0.264579 3.46945e-18 0 0 0
0.624584 0.103357 -3.08149e-33 0 0 0
0.523729 0.357966 0 0 0 0
0.624584 0.113938 0 0 0 0
0.624584 0.12507 -3.08149e-33 0 0 0
0.624584 0.136783 0 0 0 0
0.574156 0.283559 -3.46945e-18 0 0 0
0.412065 0.490263 3.08149e-33 0 0 0
0.350249 0.537164 -3.46945e-18 0 0 0
0.151552 0.623141 6.16298e-33 0 0 0
0.624584 0.149105 0 0 0 0
0.219992 0.605245 -3.46945e-18 0 0 0
0.624584 0.162069 0 0 0 0
0.075776 0.641968 0 0 0 0
0.467897 0.447168 -3.46945e-18 0 0 0
0.523729 0.381809 0 0 0 0
0.624584 0.175708 0 0 0 0
0.574156 0.303526 3.46945e-18 0 0 0
0.624584 0.190058 0 0 0 0
0.288433 0.58735 0 0 0 0
0.624584 0.205155 -3.08149e-33 0 0 0
0.574156 0.324533 0 0 0 0
0 0.660796 0 0 0 0
0.624584 0.221039 0 0 0 0
0.523729 0.406893 0 0 0 0
0.412065 0.520997 -3.70076e-18 0 0 0
0.467897 0.475657 0 0 0 0
0.624584 0.23775 3.08149e-33 0 0 0
0.350249 0.57034 0 0 0 0
0.67013 0.00259889 0 0 0 0
0.67013 0.00793204 0 0 0 0
0.67013 0.013543 -3.46945e-18 0 0 0
0.67013 0.0194462 -3.46945e-18 0 0 0
0.67013 0.0256568 3.46945e-18 0 0 0
0.574156 0.346635 3.46945e-18 0 0 0
0.67013 0.032191 0 0 0 0
0.67013 0.0390655 3.46945e-18 0 0 0
0.67013 0.0462981 0 0 0 0
0.67013 0.0539073 3.46945e-18 0 0 0
0.67013 0.0619129 0 0 0 0
0.67013 0.0703355 -3.46945e-18 0 0 0
0.624584 0.255331 0 0 0 0
0.67013 0.0791968 -3.46945e-18 0 0 0
0.67013 0.0885196 3.46945e-18 0 0 0
0.67013 0.0983282 -3.46945e-18 0 0 0
0.151552 0.660796 0 0 0 0
0.219992 0.641968 -3.46945e-18 0 0 0
0.67013 0.108648 -3.46945e-18 0 0 0
0.523729 0.433285 6.16298e-33 0 0 0
0.67013 0.119504 3.46945e-18 0 0 0
0.624584 0.273828 0 0 0 0
0.67013 0.130926 0 0 0 0
0.574156 0.369887 0 0 0 0
0.075776 0.680604 0 0 0 0
0.67013 0.142944 0 0 0 0
0.685312 0.0106663 -7.70372e-34 0 0 0
0.288433 0.623141 0 0 0 0
0.67013 0.155587 3.46945e-18 0 0 0
0.467897 0.50563 3.46945e-18 0 0 0
0.412065 0.553331 3.08149e-33 0 0 0
0.624584 0.293289 0 0 0 0
0.67013 0.168888 0 0 0 0
0.67013 0.182883 0 0 0 0
0.574157 0.394351 0 0 0 0
0.523729 0.461051 0 0 0 0
0.67013 0.197606 0 0 0 0
0.624584 0.313763 0 0 0 0
0.350249 0.605245 0 0 0 0
0 0.700412 0 0 0 0
0.67013 0.213097 -3.46945e-18 0 0 0
0.67013 0.229395 -3.46945e-18 0 0 0
0.624584 0.335303 0 0 0 0
0.574156 0.420089 -3.46945e-18 0 0 0
0.467897 0.537164 3.46945e-18 0 0 0
0.67013 0.24654 -3.46945e-18 0 0 0
0.219993 0.680604 3.46945e-18 0 0 0
0.715676 4.80891e-19 0 -0.00215621 -9.47443e-06 4.66332e-06
0.715676 0.00519778 0 0 0 0
0.715676 0.0106663 1.54074e-33 0 0 0
0.715676 0.0164197 1.54074e-33 0 0 0
0.715676 0.0224727 -3.08149e-33 0 0 0
0.715676 0.028841 0 0 0 0
0.715676 0.035541 0 0 0 0
0.151552 0.700412 0 0 0 0
0.715676 0.04259 0 0 0 0
0.523729 0.490263 0 0 0 0
0.715676 0.0500061 1.54074e-33 0 0 0
0.412065 0.58735 -3.70076e-18 0 0 0
0.715676 0.0578085 0 0 0 0
0.715676 0.0660173 1.54074e-33 0 0 0
0.715676 0.0746537 0 0 0 0
0.624584 0.357966 0 0 0 0
0.67013 0.264579 0 0 0 0
0.715676 0.0837399 0 0 0 0
0.288433 0.660796 0 0 0 0
0.715676 0.0932994 0 0 0 0
0.715676 0.103357 1.54074e-33 0 0 0
0.715676 0.113938 1.54074e-33 0 0 0
0.075776 0.721251 0 0 0 0
0.685312 0.23775 -7.70372e-34 0 0 0
0.715676 0.12507 0 0 0 0
0.67013 0.283558 -3.46945e-18 0 0 0
0.574156 0.447168 -3.46945e-18 0 0 0
0.715676 0.136783 0 0 0 0
0.715676 0.149105 0 0 0 0
0.350249 0.641968 -3.46945e-18 0 0 0
0.624584 0.381809 0 0 0 0
0.715676 0.162069 0 0 0 0
0.67013 0.303526 0 0 0 0
0.715676 0.175708 1.54074e-33 0 0 0
0.467897 0.57034 3.46945e-18 0 0 0
0.523729 0.520997 0 0 0 0
0.715676 0.190058 0 0 0 0
0 0.742091 0 0 0 0
0.715676 0.205155 -3.70074e-18 0 0 0
0.67013 0.324533 -6.93889e-18 0 0 0
0.624584 0.406893 0 0 0 0
0.574156 0.475657 0 0 0 0
0.412065 0.623141 -3.70076e-18 0 0 0
0.715676 0.221039 1.54074e-33 0 0 0
0.219993 0.721251 0 0 0 0
0.715676 0.23775 1.54074e-33 0 0 0
0.67013 0.346634 0 0 0 0
0.756813 0.00259889 -3.46945e-18 0 0 0
0.756813 0.00793204 0 0 0 0
0.756813 0.013543 -3.46945e-18 0 0 0
0.756814 0.0164197 0 0 0 0
0.756813 0.0194462 -3.46945e-18 0 0 0
0.756813 0.0256568 -3.46945e-18 0 0 0
0.151552 0.742091 0 0 0 0
0.288433 0.700412 0 0 0 0
0.756813 0.032191 -3.46945e-18 0 0 0
0.756814 0.0390655 -3.46945e-18 0 0 0
0.756814 0.046298 -3.46945e-18 0 0 0
0.756814 0.0539073 3.46945e-18 0 0 0
0.756814 0.0619129 0 0 0 0
0.715676 0.255331 1.54074e-33 0 0 0
0.756813 0.0703355 -6.93889e-18 0 0 0
0.624584 0.433285 -3.70071e-18 0 0 0
0.756814 0.0791968 -3.46945e-18 0 0 0
0.523729 0.553331 -6.16298e-33 0 0 0
0.756813 0.0885197 0 0 0 0
0.756813 0.0983282 -6.93889e-18 0 0 0
0.756813 0.108647 3.46945e-18 0 0 0
0.467897 0.605246 3.46945e-18 0 0 0
0.574156 0.50563 0 0 0 0
0.67013 0.369887 0 0 0 0
0.350249 0.680604 -3.46945e-18 0 0 0
0.756813 0.119504 -3.46945e-18 0 0 0
0.715676 0.273828 0 0 0 0
0.075776 0.764016 0 0 0 0
0.756813 0.130927 -3.46945e-18 0 0 0
0.756813 0.142944 -3.46945e-18 0 0 0
0.756813 0.155587 -6.93889e-18 0 0 0
0.715676 0.293289 0 0 0 0
0.743101 0.221039 -7.70372e-34 0 0 0
0.756813 0.168888 3.46945e-18 0 0 0
0.624584 0.461051 0 0 0 0
0.67013 0.394351 -3.46945e-18 0 0 0
0.756813 0.182883 -6.93889e-18 0 0 0
0.412065 0.660796 -3.70076e-18 0 0 0
0.715676 0.313763 0 0 0 0
0.756813 0.197606 -3.46945e-18 0 0 0
0 0.785942 0 0 0 0
0.756813 0.213097 -3.46945e-18 0 0 0
0.574156 0.537164 3.46945e-18 0 0 0
0.523729 0.58735 0 0 0 0
0.715676 0.335303 0 0 0 0
0.756813 0.229394 0 0 0 0
0.67013 0.420089 -3.46945e-18 0 0 0
0.624584 0.490263 0 0 0 0
0.467897 0.641969 3.46945e-18 0 0 0
0.219992 0.764017 -3.46945e-18 0 0 0
0.756813 0.24654 0 0 0 0
0.288433 0.742091 0 0 0 0
0.797951 9.61782e-19 -3.08149e-33 -0.00169345 -9.39599e-06 5.2175e-06
0.797951 0.00519778 -3.08149e-33 0 0 0
0.797951 0.0106663 -3.08149e-33 0 0 0
0.797951 0.0145019 7.70372e-34 0 0 0
0.797951 0.0164197 0 0 0 0
0.797951 0.0184374 7.70372e-34 0 0 0
0.797951 0.0224727 -3.08149e-33 0 0 0
0.797951 0.028841 0 0 0 0
0.797951 0.035541 -3.08149e-33 0 0 0
0.797951 0.04259 0 0 0 0
0.797951 0.0500061 0 0 0 0
0.797951 0.0578085 -3.08149e-33 0 0 0
0.715676 0.357966 0 0 0 0
0.151552 0.785942 0 0 0 0
0.797951 0.0660173 0 0 0 0
0.797951 0.0746537 -3.08149e-33 0 0 0
0.756814 0.264579 -3.46945e-18 0 0 0
0.350249 0.721251 0 0 0 0
0.797951 0.0837399 0 0 0 0
0.797951 0.0932994 -3.08149e-33 0 0 0
0.797951 0.103357 0 0 0 0
0.67013 0.447168 -3.46945e-18 0 0 0
0.797951 0.113938 -3.08149e-33 0 0 0
0.797951 0.12507 -3.08149e-33 0 0 0
0.756813 0.283558 -3.46945e-18 0 0 0
0.574156 0.57034 3.46945e-18 0 0 0
0.797951 0.136783 -3.08149e-33 0 0 0
0.715676 0.381809 0 0 0 0
0.797951 0.149105 -3.08149e-33 0 0 0
0.075776 0.809009 0 0 0 0
0.412065 0.700412 -3.70076e-18 0 0 0
0.624584 0.520997 0 0 0 0
0.523729 0.623141 0 0 0 0
0.797951 0.162069 -3.08149e-33 0 0 0
0.756813 0.303526 -3.46945e-18 0 0 0
0.797951 0.175708 3.70076e-18 0 0 0
0.797951 0.190058 3.70076e-18 0 0 0
0.67013 0.475657 -3.46945e-18 0 0 0
0.715676 0.406893 0 0 0 0
0.756813 0.324533 3.46945e-18 0 0 0
0.797951 0.205155 -3.70074e-18 0 0 0
0.797951 0.21045 -7.70372e-34 0 0 0
0.467897 0.680604 3.46945e-18 0 0 0
0.797951 0.221039 3.08149e-33 0 0 0
0.797951 0.229395 0 0 0 0
0 0.832077 0 0 0 0
0.756813 0.346634 -3.46945e-18 0 0 0
0.797951 0.23775 3.70076e-18 0 0 0
0.574156 0.605245 0 0 0 0
0.624584 0.553331 -6.16298e-33 0 0 0
0.835106 0.00259889 3.46945e-18 0 0 0
0.835106 0.00793204 -3.46945e-18 0 0 0
0.835106 0.013543 3.46945e-18 0 0 0
0.835106 0.0164197 0 0 0 0
0.835106 0.0194462 3.46945e-18 0 0 0
0.835106 0.0256568 0 0 0 0
0.835106 0.032191 0 0 0 0
0.835106 0.0390655 3.46945e-18 0 0 0
0.835106 0.046298 -3.46945e-18 0 0 0
0.715676 0.433285 -3.70074e-18 0 0 0
0.835106 0.0539073 0 0 0 0
0.835106 0.0578085 0 0 0 0
0.288433 0.785942 0 0 0 0
0.835106 0.0619129 -3.46945e-18 0 0 0
0.797951 0.255331 -3.70074e-18 0 0 0
0.835106 0.0703355 3.46945e-18 0 0 0
0.219992 0.80901 0 0 0 0
0.835106 0.0791968 -3.46945e-18 0 0 0
0.67013 0.50563 0 0 0 0
0.835106 0.0885196 0 0 0 0
0.350249 0.764016 6.93889e-18 0 0 0
0.835106 0.0983282 3.46945e-18 0 0 0
0.835106 0.108647 -3.46945e-18 0 0 0
0.756814 0.369887 3.46945e-18 0 0 0
0.523729 0.660796 0 0 0 0
0.835106 0.119504 -6.93889e-18 0 0 0
0.797951 0.273828 3.70076e-18 0 0 0
0.835106 0.130926 0 0 0 0
0.151552 0.832077 0 0 0 0
0.835106 0.142944 -6.93889e-18 0 0 0
0.822721 0.205155 -7.70372e-34 0 0 0
0.412065 0.742091 -3.70076e-18 0 0 0
0.835106 0.155587 3.46945e-18 0 0 0
0.797951 0.293289 3.70076e-18 0 0 0
0.715676 0.461051 0 0 0 0
0.835106 0.168888 -3.46945e-18 0 0 0
0.756813 0.394351 -3.46945e-18 0 0 0
0.835106 0.182883 -3.46945e-18 0 0 0
0.624584 0.58735 -3.70076e-18 0 0 0
0.797951 0.313763 3.70076e-18 0 0 0
0.835106 0.197606 -3.46945e-18 0 0 0
0.67013 0.537164 3.46945e-18 0 0 0
0.075776 0.856345 0 0 0 0
0.467897 0.721251 3.46945e-18 0 0 0
0.574156 0.641968 0 0 0 0
0.835106 0.213097 0 0 0 0
0.835106 0.221039 0 0 0 0
0.797951 0.335303 3.70076e-18 0 0 0
0.756814 0.420089 -3.46945e-18 0 0 0
0.835106 0.229395 -3.46945e-18 0 0 0
0.715676 0.490263 0 0 0 0
0.835106 0.24654 -6.93889e-18 0 0 0
0.872262 9.61782e-19 -3.08149e-33 -0.00123283 -8.83092e-06 5.79447e-06
0.872262 0.00519778 -3.08149e-33 0 0 0
0.872262 0.0106663 -3.08149e-33 0 0 0
0.872262 0.0164197 0 0 0 0
0.872262 0.0224727 -3.08149e-33 0 0 0
0.872262 0.028841 1.54074e-33 0 0 0
0.872262 0.035541 0 0 0 0
0.872262 0.04259 1.54074e-33 0 0 0
0.872262 0.0500061 -3.08149e-33 0 0 0
0.872262 0.0539073 0 0 0 0
0.872262 0.0578085 3.08149e-33 0 0 0
0.872262 0.0619129 0 0 0 0
0.797951 0.357966 3.70076e-18 0 0 0
0.523729 0.700412 0 0 0 0
0.872262 0.0660173 -3.08149e-33 0 0 0
0.872262 0.0746537 -3.08149e-33 0 0 0
0.835106 0.264579 3.46945e-18 0 0 0
0.872262 0.0837399 -3.08149e-33 0 0 0
0.872262 0.0932994 0 0 0 0
0.872262 0.103357 -3.08149e-33 0 0 0
0.756813 0.447168 -6.93889e-18 0 0 0
0.872262 0.113938 -3.08149e-33 0 0 0
0.67013 0.57034 0 0 0 0
0 0.880614 0 0 0 0
0.288433 0.832077 0 0 0 0
0.872262 0.12507 -3.08149e-33 0 0 0
0.350249 0.809009 0 0 0 0
0.835106 0.283559 0 0 0 0
0.624584 0.623141 -3.70076e-18 0 0 0
0.872262 0.136783 -3.08149e-33 0 0 0
0.219992 0.856345 -3.46945e-18 0 0 0
0.797951 0.381809 3.70076e-18 0 0 0
0.872262 0.149105 -3.08149e-33 0 0 0
0.872262 0.162069 3.70076e-18 0 0 0
0.412065 0.785942 -3.70076e-18 0 0 0
0.835107 0.303526 -3.46945e-18 0 0 0
0.872262 0.175708 3.70076e-18 0 0 0
0.574157 0.680604 0 0 0 0
0.872262 0.190058 3.70076e-18 0 0 0
0.151552 0.880614 0 0 0 0
0.723512 0.524461 4.40213e-34 0 0 0
0.756813 0.475657 3.46945e-18 0 0 0
0.872262 0.197607 0 0 0 0
0.797951 0.406893 -3.08149e-33 0 0 0
0.467897 0.764016 0 0 0 0
0.835106 0.324533 -6.93889e-18 0 0 0
0.872262 0.205155 3.08149e-33 0 0 0
0.872262 0.213097 0 0 0 0
0.872262 0.221039 -3.08149e-33 0 0 0
0.685312 0.58735 -7.70372e-34 0 0 0
0.67013 0.605246 -3.46945e-18 0 0 0
0.872262 0.23775 3.70076e-18 0 0 0
0.835106 0.346634 -3.46945e-18 0 0 0
0.715676 0.553331 -3.08149e-33 0 0 0
0.905821 0.00259889 0 0 0 0
0.90582 0.00793204 -3.46945e-18 0 0 0
0.90582 0.013543 -3.46945e-18 0 0 0
0.90582 0.0194462 -3.46945e-18 0 0 0
0.90582 0.0256568 -3.46945e-18 0 0 0
0.90582 0.032191 0 0 0 0
0.90582 0.0390655 -6.93889e-18 0 0 0
0.90582 0.0462981 0 0 0 0
0.90582 0.0539073 0 0 0 0
0.90582 0.0619129 0 0 0 0
0.797951 0.433285 -3.70074e-18 0 0 0
0.523729 0.742091 0 0 0 0
0.90582 0.0703355 0 0 0 0
0.872262 0.255331 3.70076e-18 0 0 0
0.624584 0.660796 0 0 0 0
0.90582 0.0791968 0 0 0 0
0.075776 0.906147 0 0 0 0
0.905821 0.0885197 3.46945e-18 0 0 0
0.756813 0.50563 -3.46945e-18 0 0 0
0.90582 0.0983282 3.46945e-18 0 0 0
0.90582 0.108647 -3.46945e-18 0 0 0
0.835106 0.369887 0 0 0 0
0.90582 0.119504 0 0 0 0
0.872262 0.273828 -3.70074e-18 0 0 0
0.90582 0.130927 -3.46945e-18 0 0 0
0.90582 0.142944 0 0 0 0
0.90582 0.155587 0 0 0 0
0.872262 0.293289 3.70076e-18 0 0 0
0.715676 0.578845 1.54074e-33 0 0 0
0.90582 0.168888 -3.46945e-18 0 0 0
0.797951 0.461051 3.70076e-18 0 0 0
0.574156 0.721251 0 0 0 0
0.835106 0.394351 -3.46945e-18 0 0 0
0.90582 0.182883 0 0 0 0
0.350249 0.856345 3.46945e-18 0 0 0
0.715676 0.58735 0 0 0 0
0.925956 0.0164197 7.70372e-34 0 0 0
0.685312 0.623141 -7.70372e-34 0 0 0
0.925956 0.035541 7.70372e-34 0 0 0
0.288433 0.880614 0 0 0 0
0.872262 0.313763 3.70076e-18 0 0 0
0.90582 0.197606 -3.46945e-18 0 0 0
0.67013 0.641968 -3.46945e-18 0 0 0
0.756813 0.537164 6.93889e-18 0 0 0
0.412065 0.832077 -3.70076e-18 0 0 0
0.905821 0.213097 0 0 0 0
0 0.93168 0 0 0 0
0.219992 0.906147 0 0 0 0
0.931922 0.0578085 0 0 0 0
0.90582 0.229395 0 0 0 0
0.872262 0.335303 3.70076e-18 0 0 0
0.467897 0.809009 3.46945e-18 0 0 0
0.835106 0.420089 -6.93889e-18 0 0 0
0.931922 0.0837399 -1.92593e-33 0 0 0
0.797951 0.490263 3.70076e-18 0 0 0
0.624584 0.700412 0 0 0 0
0.905821 0.24654 -3.46945e-18 0 0 0
0.939379 0 0 -0.000818617 -6.74132e-06 6.40984e-06
0.939379 0.00519778 0 0 0 0
0.939379 0.0106663 0 0 0 0
0.939379 0.013543 0 0 0 0
0.939379 0.0164197 0 0 0 0
0.939379 0.0194462 0 0 0 0
0.939379 0.0224727 0 0 0 0
0.939379 0.028841 0 0 0 0
0.939379 0.035541 2.31296e-18 0 0 0
0.939379 0.04259 0 0 0 0
0.939379 0.0500061 0 0 0 0
0.939379 0.0578085 0 0 0 0
0.939379 0.0660173 0 0 0 0
0.939379 0.0746537 0 0 0 0
0.872262 0.357966 3.70076e-18 0 0 0
0.939379 0.0837399 2.31296e-18 0 0 0
0.90582 0.264579 -6.93889e-18 0 0 0
0.151552 0.93168 0 0 0 0
0.939379 0.0932994 0 0 0 0
0.523729 0.785942 -3.70076e-18 0 0 0
0.797951 0.50563 0 0 0 0
0.939379 0.103357 0 0 0 0
0.931922 0.162069 0 0 0 0
0.939379 0.113938 0 0 0 0
0.835106 0.447168 0 0 0 0
0.756813 0.57034 0 0 0 0
0.939379 0.12507 0 0 0 0
0.715676 0.623141 0 0 0 0
0.90582 0.283559 0 0 0 0
0.939379 0.136783 0 0 0 0
0.939379 0.149105 0 0 0 0
0.872262 0.381809 3.70076e-18 0 0 0
0.797951 0.520997 -3.70076e-18 0 0 0
0.939379 0.162069 0 0 0 0
0.67013 0.680604 0 0 0 0
0.90582 0.303526 0 0 0 0
0.939379 0.175708 0 0 0 0
0.574156 0.764016 3.46945e-18 0 0 0
0.939379 0.190058 0 0 0 0
0.835106 0.475657 0 0 0 0
0.939379 0.205155 0 0 0 0
0.075776 0.958542 0 0 0 0
0.905821 0.324533 -3.46945e-18 0 0 0
0.872262 0.406893 3.70076e-18 0 0 0
0.939379 0.221039 0 0 0 0
0.939379 0.23775 0 0 0 0
0.756813 0.605245 -3.46945e-18 0 0 0
0.969689 0.00259889 -3.46945e-18 0 0 0
0.96969 0.00793204 0 0 0 0
0.969689 0.013543 0 0 0 0
0.90582 0.346634 -3.46945e-18 0 0 0
0.96969 0.0194462 0 0 0 0
0.624584 0.742091 0 0 0 0
0.969689 0.0256568 0 0 0 0
0.96969 0.032191 0 0 0 0
0.96969 0.0390655 3.46945e-18 0 0 0
0.969689 0.046298 0 0 0 0
0.797951 0.553331 0 0 0 0
0.969689 0.0539073 0 0 0 0
0.350249 0.906147 -3.46945e-18 0 0 0
0.969689 0.0619129 0 0 0 0
0.969689 0.0703355 0 0 0 0
0.412065 0.880614 -3.70076e-18 0 0 0
0.96969 0.0791968 0 0 0 0
0.939379 0.255331 0 0 0 0
0.96969 0.0885196 0 0 0 0
0.872262 0.433285 3.70076e-18 0 0 0
0.715676 0.660796 0 0 0 0
0.96969 0.0983282 0 0 0 0
0.288433 0.93168 0 0 0 0
0.969689 0.108647 0 0 0 0
0.467897 0.856345 6.93889e-18 0 0 0
0.835106 0.50563 -3.46945e-18 0 0 0
0.969689 0.119504 0 0 0 0
0.905821 0.369887 0 0 0 0
0.939379 0.273828 -2.31296e-18 0 0 0
0.969689 0.130926 0 0 0 0
0.969689 0.142944 0 0 0 0
0.969689 0.155587 0 0 0 0
0.523729 0.832077 0 0 0 0
0.219992 0.958542 0 0 0 0
0.939379 0.293289 0 0 0 0
0.96969 0.168888 0 0 0 0
0.67013 0.721251 3.46945e-18 0 0 0
0 0.985405 0 0 0 0
0.797951 0.578845 -1.54074e-33 0 0 0
0.872262 0.461051 3.70076e-18 0 0 0
0.969689 0.182883 0 0 0 0
0.905821 0.394351 -3.46945e-18 0 0 0
0.969689 0.197607 0 0 0 0
0.939379 0.313763 -2.31296e-18 0 0 0
0.797951 0.58735 -3.08149e-33 0 0 0
0.574156 0.809009 0 0 0 0
0.756813 0.641968 3.46945e-18 0 0 0
0.969689 0.213097 0 0 0 0
0.835106 0.537164 6.93889e-18 0 0 0
0.969689 0.229394 0 0 0 0
0.151552 0.985405 0 0 0 0
0.939379 0.335303 0 0 0 0
0.90582 0.420089 3.46945e-18 0 0 0
1 0 0 -0.000421984 -1.21926e-05 6.97464e-06
1 0.00519778 0 0 0 0
1 0.0106663 0 0 0 0
1 0.0164197 0 0 0 0
1 0.0224727 0 0 0 0
1 0.028841 0 0 0 0
0.969689 0.24654 0 0 0 0
0.872262 0.490263 3.70076e-18 0 0 0
1 0.035541 0 0 0 0
1 0.04259 0 0 0 0
1 0.0500061 0 0 0 0
0.715676 0.700412 0 0 0 0
1 0.0578085 0 0 0 0
1 0.0660173 0 0 0 0
1 0.0746537 0 0 0 0
1 0.0837399 0 0 0 0
0.624584 0.785942 0 0 0 0
1 0.0932994 0 0 0 0
0.969689 0.264579 -3.46945e-18 0 0 0
0.939379 0.357966 0 0 0 0
1 0.103357 0 0 0 0
1 0.113938 0 0 0 0
1 0.12507 0 0 0 0
1 0.136783 0 0 0 0
0.90582 0.447168 -3.46945e-18 0 0 0
0.96969 0.283559 3.46945e-18 0 0 0
0.861646 0.527926 -8.80425e-34 0 0 0
1 0.149105 0 0 0 0
0.835106 0.57034 0 0 0 0
0.797951 0.623141 -3.08149e-33 0 0 0
1 0.162069 0 0 0 0
0.939379 0.381809 0 0 0 0
1 0.175708 0 0 0 0
0.969689 0.303526 -3.46945e-18 0 0 0
0.67013 0.764016 3.46945e-18 0 0 0
0.075776 1.01367 3.46945e-18 0 0 0
0.756814 0.680604 -3.46945e-18 0 0 0
1 0.190058 0 0 0 0
0.412065 0.93168 -3.70076e-18 0 0 0
0.467897 0.906147 3.46945e-18 0 0 0
0.350249 0.958542 0 0 0 0
1 0.205155 0 0 0 0
0.969689 0.324533 -3.46945e-18 0 0 0
0.90582 0.475657 0 0 0 0
0.939379 0.406893 0 0 0 0
1 0.221039 0 0 0 0
0.523729 0.880614 0 0 0 0
1.02572 0.00256547 0 0 0 0
1.02572 0.00783003 -3.46945e-18 0 0 0
1.02572 0.0133688 0 0 0 0
1.02572 0.0191961 -3.46945e-18 0 0 0
1.02572 0.0253268 3.46945e-18 0 0 0
1.02572 0.031777 3.46945e-18 0 0 0
1.02572 0.0385631 -3.46945e-18 0 0 0
1.02572 0.0457026 0 0 0 0
0.288433 0.985405 0 0 0 0
1.02572 0.053214 0 0 0 0
1.02572 0.0611166 -3.46945e-18 0 0 0
0.872262 0.543631 1.2326e-33 0 0 0
1 0.23775 0 0 0 0
1.02572 0.0694309 0 0 0 0
1.02572 0.0781782 0 0 0 0
1.02572 0.0873812 -3.46945e-18 0 0 0
0.969689 0.346635 3.46945e-18 0 0 0
1.02572 0.0970636 0 0 0 0
0.715676 0.742091 0 0 0 0
0.574156 0.856345 0 0 0 0
1.02572 0.10725 0 0 0 0
0.835106 0.605245 -6.93889e-18 0 0 0
1 0.255331 0 0 0 0
1.02572 0.117967 0 0 0 0
1.02572 0.129243 0 0 0 0
0.939379 0.433285 -3.70071e-18 0 0 0
1.02572 0.141106 0 0 0 0
0.797951 0.660796 -3.08149e-33 0 0 0
1 0.273828 0 0 0 0
1.02572 0.153586 0 0 0 0
0.219992 1.01367 -3.46945e-18 0 0 0
0.90582 0.50563 0 0 0 0
0.969689 0.369888 3.46945e-18 0 0 0
0.715676 0.753054 1.54074e-33 0 0 0
1.02572 0.166717 0 0 0 0
0.624584 0.832077 0 0 0 0
1.02572 0.180531 3.46945e-18 0 0 0
0 1.04193 0 0 0 0
1 0.293289 0 0 0 0
1.02572 0.195065 0 0 0 0
0.756813 0.721251 -3.46945e-18 0 0 0
0.939379 0.461051 0 0 0 0
0.969689 0.394351 0 0 0 0
1.02572 0.210356 0 0 0 0
1 0.313763 0 0 0 0
1.02572 0.226444 0 0 0 0
0.67013 0.809009 3.46945e-18 0 0 0
0.872262 0.58735 -3.08149e-33 0 0 0
1.05198 0 0 1.30774e-05 -1.37092e-05 7.27325e-06
1.05198 0.0050627 0 0 0 0
1.05198 0.0103891 0 0 0 0
1.05198 0.0159929 0 0 0 0
1.05198 0.0218886 0 0 0 0
1.05198 0.0280914 0 0 0 0
1.05198 0.0346173 0 0 0 0
1.05198 0.0414831 0 0 0 0
0.151552 1.04193 6.16298e-33 0 0 0
1.05198 0.0487065 0 0 0 0
0.90582 0.537164 0 0 0 0
0.835106 0.641968 3.46945e-18 0 0 0
1.05198 0.0563061 0 0 0 0
1.05198 0.0643016 0 0 0 0
1.02572 0.24337 -3.46945e-18 0 0 0
1.05198 0.0727135 0 0 0 0
1 0.335303 0 0 0 0
1.05198 0.0815636 0 0 0 0
1.05198 0.0908747 0 0 0 0
0.969689 0.420089 0 0 0 0
1.05198 0.100671 0 0 0 0
1.05198 0.110977 0 0 0 0
1.02572 0.261177 0 0 0 0
1.05198 0.12182 0 0 0 0
0.939379 0.490263 0 0 0 0
1.05198 0.133228 0 0 0 0
0.797951 0.700412 -3.08149e-33 0 0 0
1.05198 0.14523 0 0 0 0
1 0.357966 0 0 0 0