# wallShearStress  FACE_DATA 34470
# x  y  z  wallShearStress_x  wallShearStress_y  wallShearStress_z
8 0.428173 -0.15 7.17935e-05 -0.00149649 0.00114789
8 0.453074 -0.15 7.36674e-05 -0.00156186 0.00111404
8 0.479272 -0.15 7.582e-05 -0.00162435 0.00107677
8 0.506834 -0.15 7.82739e-05 -0.00168253 0.00103667
8 0.535832 -0.15 8.04677e-05 -0.00173565 0.00099361
8 0.428173 -0.116667 6.63934e-05 -0.00154808 0.000944002
8 0.453074 -0.116667 6.91078e-05 -0.00161407 0.000915143
8 0.479271 -0.116666 7.13611e-05 -0.00167745 0.000883965
8 0.506834 -0.116667 7.39383e-05 -0.00173617 0.000849159
8 0.535832 -0.116666 7.63754e-05 -0.00178948 0.000811567
8 0.56634 -0.116666 7.81612e-05 -0.00183285 0.000769809
8 0.598437 -0.116667 7.96409e-05 -0.00186556 0.000725415
8 0.632206 -0.116666 7.86696e-05 -0.00187676 0.00067648
8 0.428172 -0.0833334 6.1968e-05 -0.00158789 0.000701715
8 0.453074 -0.0833334 6.47843e-05 -0.00165447 0.000680256
8 0.479272 -0.0833334 6.77219e-05 -0.00171915 0.000657138
8 0.506834 -0.0833334 7.05298e-05 -0.0017792 0.000631416
8 0.535832 -0.0833334 7.3541e-05 -0.00183414 0.000603367
8 0.56634 -0.0833334 7.55169e-05 -0.00187825 0.000572104
8 0.598437 -0.0833334 7.75883e-05 -0.00191146 0.000537971
8 0.632207 -0.0833334 7.75377e-05 -0.00192332 0.000500611
8 0.667735 -0.0833334 7.60006e-05 -0.00191596 0.000459176
8 0.404505 -0.05 5.63603e-05 -0.00154693 0.000448655
8 0.428172 -0.05 5.94906e-05 -0.00161467 0.000436147
8 0.453074 -0.05 6.27592e-05 -0.0016819 0.000422645
8 0.479271 -0.05 6.59131e-05 -0.0017474 0.000407909
8 0.506834 -0.05 6.89212e-05 -0.00180861 0.000391801
8 0.535832 -0.05 7.22317e-05 -0.00186458 0.000373779
8 0.56634 -0.05 7.48674e-05 -0.00190963 0.000354433
8 0.598437 -0.05 7.72716e-05 -0.00194443 0.000332776
8 0.632206 -0.05 7.74391e-05 -0.00195644 0.000309154
8 0.667735 -0.05 7.68333e-05 -0.00195047 0.000283573
8 0.705113 -0.05 6.81212e-05 -0.00188818 0.000253909
8 0.360626 -0.0166667 4.84341e-05 -0.00142439 0.000165028
8 0.382009 -0.0166667 5.13888e-05 -0.00149042 0.000161854
8 0.404505 -0.0166667 5.4514e-05 -0.00155824 0.000158147
8 0.428173 -0.0166666 5.78556e-05 -0.0016267 0.000153838
8 0.453073 -0.0166666 6.12885e-05 -0.00169428 0.000148832
8 0.479272 -0.0166667 6.47364e-05 -0.00176029 0.000143335
8 0.506834 -0.0166667 6.7673e-05 -0.0018223 0.000137296
8 0.535832 -0.0166667 7.13281e-05 -0.00187864 0.000130454
8 0.56634 -0.0166667 7.4334e-05 -0.00192375 0.000123202
8 0.598437 -0.0166667 7.6834e-05 -0.00195949 0.000115325
8 0.632206 -0.0166667 7.71245e-05 -0.00197143 0.000106911
8 0.667735 -0.0166667 7.71503e-05 -0.00196586 9.78715e-05
8 0.705113 -0.0166667 6.89292e-05 -0.00190509 8.81253e-05
8 0.744439 -0.0166667 5.41304e-05 -0.00177153 7.63614e-05
8 0.785813 -0.0166667 2.46273e-05 -0.00153002 6.43546e-05
8 0.829342 -0.0166667 2.50961e-05 -0.00126311 4.99952e-05
8 0.875139 -0.0166667 -0.00018589 -9.00426e-05 4.23239e-05
8 0.92332 -0.0166667 0.000974332 -0.00501995 5.96399e-05
8 0.360626 0.0166667 4.78847e-05 -0.00142222 -0.00014195
8 0.382009 0.0166667 5.12082e-05 -0.00148846 -0.000138604
8 0.404505 0.0166667 5.44696e-05 -0.00155685 -0.000135098
8 0.428173 0.0166667 5.78042e-05 -0.00162598 -0.000131509
8 0.453073 0.0166666 6.12084e-05 -0.00169411 -0.00012773
8 0.479272 0.0166667 6.46489e-05 -0.00176035 -0.000124048
8 0.506834 0.0166667 6.76854e-05 -0.00182252 -0.000119986
8 0.535832 0.0166667 7.1249e-05 -0.00187901 -0.000115331
8 0.56634 0.0166667 7.42636e-05 -0.00192396 -0.000110114
8 0.598437 0.0166667 7.69562e-05 -0.00195958 -0.00010404
8 0.632206 0.0166667 7.72602e-05 -0.0019713 -9.7127e-05
8 0.667735 0.0166667 7.70673e-05 -0.00196545 -8.90802e-05
8 0.705113 0.0166667 6.8758e-05 -0.0019039 -7.95864e-05
8 0.744439 0.0166667 5.39257e-05 -0.00176952 -6.6131e-05
8 0.785813 0.0166667 2.42456e-05 -0.00152756 -5.19231e-05
8 0.829342 0.0166667 2.19489e-05 -0.00126185 -3.3646e-05
8 0.875139 0.0166667 -0.000185371 -9.11749e-05 -2.5018e-05
8 0.92332 0.0166667 0.000975501 -0.00502276 -5.28533e-05
8 0.974011 0.0166667 -0.00197572 0.000850826 -1.37528e-05
8 0.340302 0.05 4.71345e-05 -0.00134462 -0.00045498
8 0.360626 0.05 5.0078e-05 -0.00140871 -0.00044563
8 0.382009 0.05 5.297e-05 -0.00147584 -0.000435702
8 0.404505 0.05 5.5971e-05 -0.00154434 -0.00042506
8 0.428173 0.05 5.91487e-05 -0.00161343 -0.00041357
8 0.453073 0.05 6.25179e-05 -0.001682 -0.000401452
8 0.479271 0.05 6.56935e-05 -0.00174841 -0.000388276
8 0.506834 0.05 6.87746e-05 -0.00181011 -0.000374019
8 0.535832 0.05 7.23086e-05 -0.00186609 -0.000358323
8 0.56634 0.05 7.50266e-05 -0.00191094 -0.000340752
8 0.598437 0.05 7.7393e-05 -0.00194546 -0.000321311
8 0.632207 0.05 7.75957e-05 -0.00195661 -0.000299726
8 0.667735 0.05 7.67593e-05 -0.00194933 -0.000274731
8 0.705114 0.05 6.80009e-05 -0.00188485 -0.000245286
8 0.744439 0.05 5.28398e-05 -0.00174945 -0.000206283
8 0.785813 0.05 2.30133e-05 -0.00150776 -0.000165447
8 0.829342 0.05 2.07843e-05 -0.00124657 -0.000115828
8 0.875139 0.05 -0.000185845 -8.20276e-05 -9.09621e-05
8 0.92332 0.05 0.000983887 -0.00505537 -0.000170261
8 0.974011 0.05 -0.00198733 0.000850526 -4.68688e-05
8 0.340302 0.0833334 5.09505e-05 -0.00131766 -0.000745138
8 0.360626 0.0833334 5.33922e-05 -0.00138131 -0.000730933
8 0.382008 0.0833334 5.60397e-05 -0.001448 -0.000715138
8 0.404504 0.0833334 5.87873e-05 -0.00151654 -0.000697935
8 0.428172 0.0833334 6.18066e-05 -0.00158617 -0.000679648
8 0.453074 0.0833334 6.46403e-05 -0.00165445 -0.000659743
8 0.479272 0.0833334 6.78084e-05 -0.00172035 -0.000638197
8 0.506834 0.0833334 7.09706e-05 -0.00178166 -0.000614326
8 0.535832 0.0833334 7.3994e-05 -0.00183662 -0.00058831
8 0.56634 0.0833334 7.63147e-05 -0.00188064 -0.000559099
8 0.598437 0.0833334 7.82109e-05 -0.00191372 -0.000526809
8 0.632207 0.0833334 7.77991e-05 -0.00192348 -0.000491091
8 0.667735 0.0833334 7.62327e-05 -0.00191424 -0.000450516
8 0.705113 0.0833334 6.61328e-05 -0.00184422 -0.000401426
8 0.744439 0.0833334 5.03288e-05 -0.00170704 -0.00033857
8 0.785813 0.0833334 2.01598e-05 -0.00146736 -0.000272541
8 0.829342 0.0833333 1.78189e-05 -0.00121488 -0.000192969
8 0.875138 0.0833334 -0.000185835 -6.63545e-05 -0.000152152
8 0.92332 0.0833333 0.000998361 -0.00511067 -0.000289053
8 0.974011 0.0833334 -0.0020078 0.000847872 -7.46087e-05
8 0.340302 0.116667 5.67099e-05 -0.00127989 -0.00100568
8 0.360626 0.116667 5.88323e-05 -0.00134211 -0.000987786
8 0.382008 0.116666 6.11198e-05 -0.00140828 -0.000968232
8 0.404504 0.116666 6.36372e-05 -0.00147705 -0.000946305
8 0.428173 0.116667 6.62876e-05 -0.00154634 -0.000921667
8 0.453074 0.116667 6.92843e-05 -0.00161449 -0.000894683
8 0.479271 0.116667 7.20872e-05 -0.00167949 -0.000864969
8 0.506834 0.116667 7.47582e-05 -0.00173966 -0.000832307
8 0.535832 0.116666 7.73731e-05 -0.00179356 -0.000796744
8 0.56634 0.116666 7.92933e-05 -0.00183697 -0.000757938
8 0.598437 0.116667 8.0685e-05 -0.00186921 -0.000715872
8 0.632206 0.116666 7.93655e-05 -0.00187809 -0.000668464
8 0.667735 0.116667 7.62433e-05 -0.00186449 -0.000613222
8 0.705114 0.116667 6.4e-05 -0.00178581 -0.000543792
8 0.744439 0.116667 4.71622e-05 -0.0016465 -0.000458229
8 0.785813 0.116667 1.64298e-05 -0.00140908 -0.000368097
8 0.829342 0.116667 1.2367e-05 -0.00116779 -0.000262028
8 0.875138 0.116666 -0.000186127 -4.54487e-05 -0.000208488
8 0.92332 0.116666 0.00101853 -0.00518427 -0.000400587
8 0.974011 0.116667 -0.00203387 0.000842996 -0.000100203
8 0.320984 0.15 6.05903e-05 -0.00117537 -0.00123986
8 0.340302 0.15 6.22499e-05 -0.0012341 -0.00121983
8 0.360626 0.15 6.4233e-05 -0.00129553 -0.00119935
8 0.382008 0.15 6.65023e-05 -0.00135995 -0.00117747
8 0.404505 0.15 6.88949e-05 -0.00142662 -0.00115311
8 0.428173 0.15 7.17783e-05 -0.00149536 -0.00112583
8 0.453074 0.15 7.44437e-05 -0.00156319 -0.00109483
8 0.479271 0.15 7.70927e-05 -0.0016282 -0.00106072
8 0.506834 0.15 7.96639e-05 -0.0016888 -0.00102382
8 0.535832 0.15 8.20149e-05 -0.00174326 -0.000983605
8 0.56634 0.15 8.34361e-05 -0.00178699 -0.000939062
8 0.598437 0.15 8.34512e-05 -0.00181674 -0.000888737
8 0.632206 0.15 8.02722e-05 -0.00181964 -0.000828823
8 0.667735 0.15 7.51151e-05 -0.00179721 -0.00075711
8 0.705113 0.15 6.06993e-05 -0.00170803 -0.000667396
8 0.744439 0.15 4.28457e-05 -0.0015668 -0.000561322
8 0.785813 0.15 1.53034e-05 -0.00133514 -0.000450809
8 0.829342 0.15 6.13305e-06 -0.00110716 -0.000321723
8 0.875139 0.15 -0.000185731 -1.87965e-05 -0.000259537
8 0.92332 0.15 0.00104339 -0.00528013 -0.000500721
8 0.974011 0.15 -0.00207354 0.000839873 -0.00012321
8 0.320984 0.183333 6.8471e-05 -0.00112581 -0.00141812
8 0.340302 0.183334 7.01979e-05 -0.0011853 -0.00139789
8 0.360626 0.183334 7.21814e-05 -0.00124682 -0.00137693
8 0.382008 0.183333 7.43557e-05 -0.00131027 -0.00135473
8 0.404504 0.183333 7.68163e-05 -0.00137608 -0.00133068
8 0.428173 0.183334 7.92154e-05 -0.00144323 -0.00130392
8 0.453074 0.183334 8.1674e-05 -0.00151034 -0.00127329
8 0.479271 0.183334 8.40673e-05 -0.00157545 -0.00123828
8 0.506834 0.183334 8.58834e-05 -0.00163515 -0.00119837
8 0.535832 0.183334 8.70489e-05 -0.00168691 -0.00115301
8 0.56634 0.183334 8.68786e-05 -0.00172576 -0.0011006
8 0.598437 0.183334 8.48229e-05 -0.00174773 -0.00103883
8 0.632206 0.183333 7.96568e-05 -0.00174162 -0.000964485
8 0.667735 0.183334 7.22549e-05 -0.00171009 -0.000875537
8 0.705114 0.183334 5.56755e-05 -0.00161194 -0.000765977
8 0.744439 0.183334 3.73727e-05 -0.00147139 -0.000642547
8 0.785813 0.183334 1.48613e-05 -0.00124533 -0.000515958
8 0.829342 0.183334 -1.00452e-06 -0.00103428 -0.00036813
8 0.875138 0.183334 -0.000184918 8.92459e-06 -0.000303888
8 0.92332 0.183334 0.00107316 -0.00539715 -0.000588644
8 0.974011 0.183334 -0.00212382 0.000836077 -0.000144243
8 0.302623 0.216667 7.24655e-05 -0.00101566 -0.00156464
8 0.320984 0.216666 7.38916e-05 -0.00107394 -0.00154559
8 0.340302 0.216667 7.55276e-05 -0.00113344 -0.00152605
8 0.360626 0.216667 7.72498e-05 -0.00119426 -0.00150539
8 0.382008 0.216667 7.90895e-05 -0.00125646 -0.0014833
8 0.404505 0.216667 8.10459e-05 -0.00132011 -0.00145939
8 0.428172 0.216666 8.29926e-05 -0.00138468 -0.00143246
8 0.453074 0.216667 8.48679e-05 -0.00144826 -0.00140147
8 0.479271 0.216667 8.64581e-05 -0.0015091 -0.00136489
8 0.506834 0.216667 8.73532e-05 -0.00156429 -0.00132125
8 0.535832 0.216667 8.73682e-05 -0.0016111 -0.00126956
8 0.56634 0.216667 8.59573e-05 -0.00164375 -0.00120862
8 0.598437 0.216666 8.22114e-05 -0.00165823 -0.00113607
8 0.632206 0.216667 7.56912e-05 -0.00164351 -0.00105014
8 0.667735 0.216667 6.70036e-05 -0.00160415 -0.000950597
8 0.705113 0.216666 4.90969e-05 -0.00150124 -0.00083068
8 0.744439 0.216667 3.12129e-05 -0.00136476 -0.000699987
8 0.785813 0.216666 8.20807e-06 -0.00114696 -0.000562374
8 0.829342 0.216667 -4.81436e-06 -0.000954271 -0.000403546
8 0.875138 0.216667 -0.000183757 3.51274e-05 -0.0003439
8 0.92332 0.216667 0.00110763 -0.00553277 -0.000666133
8 0.974011 0.216667 -0.00218105 0.000829197 -0.000162015
8 0.302623 0.25 7.15823e-05 -0.000957863 -0.00160954
8 0.320984 0.25 7.32048e-05 -0.00101525 -0.0015923
8 0.340302 0.25 7.46735e-05 -0.00107378 -0.00157412
8 0.360626 0.25 7.62398e-05 -0.00113337 -0.00155469
8 0.382009 0.25 7.79623e-05 -0.00119403 -0.00153362
8 0.404505 0.25 7.97699e-05 -0.0012555 -0.00151037
8 0.428173 0.25 8.15127e-05 -0.00131705 -0.00148394
8 0.453074 0.25 8.30363e-05 -0.00137673 -0.001453
8 0.479271 0.25 8.41787e-05 -0.00143266 -0.00141625
8 0.506834 0.25 8.46028e-05 -0.00148237 -0.00137232
8 0.535832 0.25 8.41905e-05 -0.00152408 -0.0013195
8 0.56634 0.25 8.18832e-05 -0.00155025 -0.00125591
8 0.598437 0.25 7.74816e-05 -0.00155785 -0.00118021
8 0.632207 0.25 7.06169e-05 -0.00153696 -0.00109018
8 0.667735 0.25 6.09242e-05 -0.00149134 -0.000986375
8 0.705113 0.25 4.14067e-05 -0.00138376 -0.000861847
8 0.744439 0.25 2.37086e-05 -0.00124834 -0.000727269
8 0.785813 0.25 -4.3357e-06 -0.0010401 -0.000586466
8 0.829342 0.25 -8.13772e-06 -0.000867465 -0.000428047
8 0.875138 0.25 -0.000183157 6.31085e-05 -0.000379633
8 0.92332 0.25 0.00114531 -0.00568579 -0.000731531
8 0.974011 0.25 -0.00224736 0.000823209 -0.000181574
8 0.285171 0.283334 6.07982e-05 -0.000848297 -0.00156175
8 0.302623 0.283334 6.21746e-05 -0.000903073 -0.00154682
8 0.320984 0.283334 6.33475e-05 -0.000958282 -0.00153106
8 0.340302 0.283334 6.46872e-05 -0.00101479 -0.00151449
8 0.360626 0.283333 6.63049e-05 -0.00107233 -0.00149631
8 0.382008 0.283333 6.80125e-05 -0.00113028 -0.00147632
8 0.404505 0.283334 6.97794e-05 -0.00118834 -0.0014542
8 0.428172 0.283333 7.14536e-05 -0.00124571 -0.00142909
8 0.453074 0.283334 7.28868e-05 -0.00130029 -0.00139985
8 0.479271 0.283333 7.40478e-05 -0.00135037 -0.00136552
8 0.506834 0.283333 7.44418e-05 -0.0013934 -0.00132464
8 0.535832 0.283333 7.42566e-05 -0.00142789 -0.00127577
8 0.56634 0.283333 7.15657e-05 -0.00144665 -0.00121584
8 0.598437 0.283334 6.68617e-05 -0.0014469 -0.0011448
8 0.632207 0.283334 5.95043e-05 -0.00141908 -0.00106
8 0.667735 0.283334 5.01926e-05 -0.00136815 -0.000962881
8 0.705113 0.283333 3.10955e-05 -0.00125791 -0.000846859
8 0.744439 0.283334 2.42459e-05 -0.00113064 -0.000725727
8 0.785813 0.283334 -7.49122e-06 -0.000940525 -0.000596409
8 0.829342 0.283333 -1.09502e-05 -0.000783018 -0.000444254
8 0.875138 0.283334 -0.00018466 9.2712e-05 -0.000405193
8 0.92332 0.283334 0.00118667 -0.00585777 -0.000782716
8 0.974011 0.283334 -0.00231618 0.000812661 -0.000200359
8 0.285171 0.316667 3.89128e-05 -0.000788617 -0.00137385
8 0.302623 0.316667 4.09958e-05 -0.000841271 -0.00136547
8 0.320984 0.316666 4.3292e-05 -0.000894983 -0.00135637
8 0.340302 0.316667 4.60133e-05 -0.00094977 -0.0013468
8 0.360626 0.316666 4.88715e-05 -0.00100546 -0.00133591
8 0.382008 0.316666 5.16241e-05 -0.00106177 -0.00132317
8 0.404505 0.316667 5.41682e-05 -0.001118 -0.0013079
8 0.428172 0.316666 5.64466e-05 -0.00117316 -0.00128932
8 0.453074 0.316667 5.85045e-05 -0.00122502 -0.0012665
8 0.479271 0.316666 6.03804e-05 -0.00127142 -0.00123898
8 0.506834 0.316666 6.16789e-05 -0.00130989 -0.00120576
8 0.535832 0.316666 6.23784e-05 -0.00133872 -0.00116618
8 0.56634 0.316666 6.07914e-05 -0.00135249 -0.00111761
8 0.598437 0.316666 5.78997e-05 -0.00134832 -0.00105951
8 0.632206 0.316666 5.24629e-05 -0.001317 -0.000989543
8 0.667735 0.316666 4.40726e-05 -0.00126287 -0.000908259
8 0.705113 0.316666 3.12472e-05 -0.00115086 -0.000806155
8 0.744439 0.316666 1.35998e-05 -0.00102642 -0.000706513
8 0.785813 0.316666 -1.26767e-05 -0.000842889 -0.0005834
8 0.829342 0.316666 -1.58798e-05 -0.000694089 -0.000448732
8 0.875138 0.316667 -0.000183817 0.000119374 -0.000433178
8 0.92332 0.316666 0.00123429 -0.0060565 -0.000826283
8 0.974011 0.316666 -0.00239977 0.000798524 -0.000227307
8 0.285171 0.35 2.05973e-05 -0.000738215 -0.00105897
8 0.302622 0.35 2.44657e-05 -0.000788187 -0.00105549
8 0.320984 0.35 2.96625e-05 -0.000838706 -0.00105126
8 0.340302 0.35 3.48713e-05 -0.00088991 -0.0010461
8 0.360626 0.35 3.69781e-05 -0.00094118 -0.00103985
8 0.382008 0.35 3.77653e-05 -0.000992174 -0.00103252
8 0.404504 0.35 3.92822e-05 -0.0010426 -0.00102397
8 0.428172 0.35 4.1758e-05 -0.0010921 -0.00101433
8 0.453074 0.35 4.56578e-05 -0.00113939 -0.00100349
8 0.479272 0.35 4.9985e-05 -0.00118196 -0.000990124
8 0.506834 0.35 5.20696e-05 -0.00121687 -0.000972401
8 0.535832 0.35 5.2047e-05 -0.0012422 -0.000950712
8 0.56634 0.35 5.12926e-05 -0.00125217 -0.000924105
8 0.598437 0.35 4.95472e-05 -0.00124409 -0.000889228
8 0.632207 0.35 4.41813e-05 -0.00120756 -0.000841836
8 0.667735 0.35 3.69472e-05 -0.00114699 -0.000785019
8 0.705113 0.35 2.04409e-05 -0.00103717 -0.000711905
8 0.744439 0.35 4.63702e-06 -0.000911961 -0.000644533
8 0.785813 0.35 -1.27511e-05 -0.000750391 -0.000563543
8 0.829342 0.35 -1.4887e-05 -0.000620652 -0.000472334
8 0.875139 0.35 -0.000183419 0.000161098 -0.000499283
8 0.92332 0.35 0.00128654 -0.00626208 -0.000899658
8 0.974011 0.35 -0.00244987 0.000772941 -0.000304111
8 0.285171 0.383334 -4.48858e-05 -0.000659433 -0.000591623
8 0.302623 0.383334 -4.2422e-05 -0.000703833 -0.000591519
8 0.320984 0.383333 -3.90327e-05 -0.000749492 -0.000592508
8 0.340302 0.383333 -3.52785e-05 -0.000796776 -0.000594288
8 0.360626 0.383334 -3.09239e-05 -0.000845273 -0.00059649
8 0.382008 0.383333 -2.56262e-05 -0.000894645 -0.000599921
8 0.404505 0.383334 -1.95558e-05 -0.000944879 -0.000604177
8 0.428172 0.383333 -1.10386e-05 -0.000995379 -0.000609331
8 0.453074 0.383334 3.48751e-06 -0.00104312 -0.000615427
8 0.479271 0.383333 1.43581e-05 -0.00108348 -0.000624337
8 0.506834 0.383333 1.50398e-05 -0.00111684 -0.000633869
8 0.535832 0.383333 1.99445e-05 -0.00114208 -0.000641843
8 0.56634 0.383333 2.71867e-05 -0.00114922 -0.000646143
8 0.598437 0.383333 2.98357e-05 -0.00113457 -0.000643736
8 0.632206 0.383333 2.67902e-05 -0.0010949 -0.000629338
8 0.667735 0.383333 2.45229e-05 -0.00103521 -0.000609477
8 0.705113 0.383333 1.50654e-05 -0.000934828 -0.000585103
8 0.744439 0.383334 7.37854e-06 -0.000824682 -0.000564264
8 0.785813 0.383333 -1.11043e-05 -0.00067561 -0.000530833
8 0.829342 0.383334 -2.03984e-05 -0.000539954 -0.000473298
8 0.875138 0.383333 -0.000236534 0.000193057 -0.000423745
8 0.92332 0.383333 0.00134482 -0.00654947 -0.000836366
8 0.974011 0.383333 -0.00251571 0.00073227 -0.000433102
8 0.285171 0.416667 -0.000150852 -0.000720507 0.000251006
8 0.302623 0.416667 -0.000146692 -0.000779572 0.0002316
8 0.320984 0.416667 -0.000140578 -0.000841419 0.000209074
8 0.340302 0.416667 -0.000132935 -0.000905404 0.000182579
8 0.360626 0.416666 -0.000124021 -0.000972616 0.000151738
8 0.382008 0.416666 -0.000115288 -0.00104133 0.000116599
8 0.404505 0.416667 -0.000108344 -0.00111171 7.6102e-05
8 0.428172 0.416666 -0.00010126 -0.00118472 3.05901e-05
8 0.453074 0.416667 -9.65287e-05 -0.00125989 -1.73325e-05
8 0.479271 0.416666 -0.000100295 -0.00132857 -6.30942e-05
8 0.506834 0.416667 -0.000102621 -0.00138745 -0.000108096
8 0.535832 0.416667 -9.46321e-05 -0.00143469 -0.000150874
8 0.56634 0.416667 -8.08809e-05 -0.00145647 -0.000188193
8 0.598437 0.416666 -6.71151e-05 -0.00145418 -0.000224009
8 0.632207 0.416667 -5.87698e-05 -0.00143021 -0.00026008
8 0.667735 0.416667 -5.44196e-05 -0.00138833 -0.000295345
8 0.705113 0.416667 -6.17899e-05 -0.00130203 -0.00032993
8 0.744439 0.416667 -7.04881e-05 -0.00118536 -0.000365348
8 0.785813 0.416667 -9.10398e-05 -0.00103268 -0.000387863
8 0.829342 0.416667 -0.000161579 -0.000813678 -0.000356023
8 0.875138 0.416666 -0.000279506 -0.000192779 -0.00061647
8 0.92332 0.416667 0.00149782 -0.00709191 -0.000785699
8 0.974011 0.416667 -0.00277069 0.000676836 -0.000509626
8 0.28517 0.45 0.000735062 -0.00122992 -0.00303669
8 0.302623 0.45 0.000777116 -0.0013354 -0.00319682
8 0.320984 0.45 0.000821505 -0.0014446 -0.00336368
8 0.340302 0.45 0.000867577 -0.00155696 -0.0035374
8 0.360626 0.45 0.000915705 -0.00167189 -0.00371786
8 0.382009 0.45 0.000965884 -0.00178925 -0.00390307
8 0.404505 0.45 0.00101974 -0.00190799 -0.00409292
8 0.428173 0.45 0.00107334 -0.0020255 -0.00428777
8 0.453074 0.45 0.00112449 -0.00213558 -0.00448605
8 0.479271 0.45 0.00117483 -0.00223741 -0.00467507
8 0.506834 0.45 0.00122752 -0.00233166 -0.00486884
8 0.535832 0.45 0.00128335 -0.00241249 -0.00506585
8 0.56634 0.45 0.00133841 -0.00247077 -0.00526188
8 0.598437 0.45 0.00139049 -0.00250136 -0.00545771
8 0.632207 0.45 0.00143927 -0.00249709 -0.00565229
8 0.667735 0.45 0.00148883 -0.00246678 -0.00584963
8 0.705113 0.45 0.00153583 -0.00238703 -0.00604342
8 0.744439 0.45 0.00158587 -0.0022737 -0.00624766
8 0.785813 0.45 0.00163691 -0.00207896 -0.00645947
8 0.829342 0.45 0.00170469 -0.00189324 -0.00665905
8 0.875138 0.45 0.00188139 -0.000688159 -0.00730858
8 0.92332 0.45 0.00291227 -0.00756556 -0.00730555
8 0.974011 0.45 -0.000204748 0.000237772 -0.0054311
8 0.302623 0.483334 -0.00133766 9.68574e-05 0.000365348
8 0.320984 0.483333 -0.00143802 9.36763e-05 0.000380392
8 0.340302 0.483333 -0.00154558 8.81467e-05 0.000397059
8 0.360626 0.483334 -0.00165963 8.06029e-05 0.000414678
8 0.382008 0.483333 -0.00179314 7.38211e-05 0.000436156
8 0.404505 0.483334 -0.00193693 6.57528e-05 0.000459809
8 0.428172 0.483333 -0.00208566 5.7328e-05 0.000483964
8 0.453074 0.483334 -0.00224119 4.9755e-05 0.00050876
8 0.479271 0.483333 -0.00240112 4.26053e-05 0.000536145
8 0.506834 0.483333 -0.00256224 3.55215e-05 0.000562035
8 0.535832 0.483333 -0.00272071 3.01303e-05 0.00058482
8 0.56634 0.483333 -0.00287814 2.80521e-05 0.000603186
8 0.598437 0.483333 -0.0030325 3.10532e-05 0.000618489
8 0.632206 0.483333 -0.00318294 3.82551e-05 0.000629678
8 0.667735 0.483333 -0.00331867 4.76668e-05 0.000630663
8 0.705113 0.483333 -0.00345209 6.32135e-05 0.000627096
8 0.744439 0.483334 -0.00356608 7.66601e-05 0.000605135
8 0.785813 0.483333 -0.00369457 0.00010066 0.000584579
8 0.829342 0.483333 -0.00373221 -1.15614e-05 0.000509995
8 0.875138 0.483333 -0.00418398 0.000274382 0.000344868
8 0.92332 0.483334 -0.00226686 -0.00362822 -4.06751e-05
8 0.974011 0.483333 -0.0113253 0.00277907 0.00239058
7.55 0.875139 0.5 -0.00397268 0.000655016 -8.16226e-06
7.55 0.92332 0.5 -0.00421751 0.000294489 9.73287e-05
7.55 0.974011 0.5 -0.0040775 0.000899893 -0.000166896
7.58334 0.744439 0.5 -0.00354319 0.000855862 -6.37986e-07
7.58333 0.785813 0.5 -0.00368099 0.000770534 7.12215e-06
7.58334 0.829342 0.5 -0.0037812 0.000684772 9.94677e-06
7.58334 0.875139 0.5 -0.00400001 0.000632048 -2.47928e-06
7.58334 0.92332 0.5 -0.00424432 0.000277757 9.85583e-05
7.58333 0.974011 0.5 -0.00409268 0.000867883 -0.000157113
7.61667 0.360626 0.5 -0.00253476 0.00149782 -1.78342e-05
7.61666 0.382008 0.5 -0.00262569 0.00150171 -1.88575e-05
7.61666 0.404505 0.5 -0.00271424 0.0014915 -1.93206e-05
7.61667 0.428173 0.5 -0.00279994 0.00146807 -1.92384e-05
7.61666 0.453074 0.5 -0.00288291 0.00143339 -1.889e-05
7.61666 0.479271 0.5 -0.00296349 0.00138853 -1.90454e-05
7.61666 0.506834 0.5 -0.00304084 0.00133408 -1.84787e-05
7.61666 0.535832 0.5 -0.00311567 0.00127162 -2.05463e-05
7.61667 0.56634 0.5 -0.00318864 0.00120272 -2.16505e-05
7.61667 0.598437 0.5 -0.00326019 0.00112924 -2.14833e-05
7.61666 0.632206 0.5 -0.00333254 0.00105279 -1.69359e-05
7.61667 0.667735 0.5 -0.00340532 0.000976977 -8.73147e-06
7.61667 0.705113 0.5 -0.00348889 0.000898838 -3.94803e-07
7.61666 0.744439 0.5 -0.00357402 0.00082922 8.2534e-07
7.61667 0.785813 0.5 -0.00370823 0.000746137 8.83267e-06
7.61667 0.829342 0.5 -0.00381196 0.000659496 1.31722e-05
7.61666 0.875139 0.5 -0.00401797 0.000610663 -3.54132e-07
7.61667 0.92332 0.5 -0.00426385 0.000263359 9.88021e-05
7.61666 0.974011 0.5 -0.00410315 0.00083886 -0.000148517
7.65 0.360626 0.5 -0.00258574 0.00146256 -1.42114e-05
7.65 0.382008 0.5 -0.00267616 0.00146616 -1.50882e-05
7.65 0.404504 0.5 -0.00276385 0.00145593 -1.51983e-05
7.65 0.428173 0.5 -0.00284861 0.00143287 -1.51296e-05
7.65 0.453073 0.5 -0.00293147 0.0013988 -1.67421e-05
7.65 0.479272 0.5 -0.00301141 0.00135458 -1.37614e-05
7.65 0.506834 0.5 -0.00308889 0.00130133 -1.23201e-05
7.65 0.535832 0.5 -0.00316421 0.00123994 -1.52654e-05
7.65 0.56634 0.5 -0.00323771 0.00117251 -1.55204e-05
7.65 0.598437 0.5 -0.00330984 0.00110056 -1.39104e-05
7.65 0.632207 0.5 -0.00338088 0.00102547 -4.65455e-06
7.65 0.667735 0.5 -0.00345256 0.000950855 1.35944e-06
7.65 0.705113 0.5 -0.00353537 0.000873275 5.06297e-06
7.65 0.744439 0.5 -0.00361931 0.000804682 6.58929e-06
7.65 0.785813 0.5 -0.00375167 0.000722954 1.53439e-05
7.65 0.829342 0.5 -0.0038535 0.000634822 1.9579e-05
7.65 0.875139 0.5 -0.00404669 0.000591447 5.20021e-06
7.65 0.92332 0.5 -0.00429216 0.000249656 0.000101058
7.65 0.974011 0.5 -0.00412077 0.000812529 -0.00013915
7.68333 0.360626 0.5 -0.0026087 0.00142013 -1.66447e-05
7.68333 0.382008 0.5 -0.00269698 0.00142394 -1.81345e-05
7.68333 0.404505 0.5 -0.00278336 0.00141419 -2.12004e-05
7.68333 0.428173 0.5 -0.00286719 0.00139168 -2.34682e-05
7.68333 0.453074 0.5 -0.00294889 0.00135844 -2.27858e-05
7.68333 0.479271 0.5 -0.00302814 0.00131561 -2.00177e-05
7.68333 0.506834 0.5 -0.00310547 0.0012639 -2.03095e-05
7.68334 0.535832 0.5 -0.00318152 0.00120472 -2.06935e-05
7.68334 0.56634 0.5 -0.0032554 0.00113971 -1.71248e-05
7.68334 0.598437 0.5 -0.00332699 0.00107026 -9.69216e-06
7.68333 0.632207 0.5 -0.00339876 0.000997565 -2.40858e-06
7.68333 0.667735 0.5 -0.0034722 0.000924388 1.90807e-07
7.68333 0.705113 0.5 -0.00355628 0.000848178 4.87085e-06
7.68333 0.744439 0.5 -0.00364195 0.000780714 7.65384e-06
7.68333 0.785813 0.5 -0.00377322 0.000701209 1.59141e-05
7.68333 0.829342 0.5 -0.00387661 0.000613441 2.1008e-05
7.68333 0.875138 0.5 -0.00406187 0.000574111 6.90936e-06
7.68333 0.92332 0.5 -0.00430826 0.000238083 0.000100519
7.68333 0.974011 0.5 -0.00413058 0.000788235 -0.000133034
7.71667 0.360626 0.5 -0.00266424 0.00139308 -1.11582e-05
7.71666 0.382008 0.5 -0.00275441 0.00139604 -1.18113e-05
7.71666 0.404505 0.5 -0.00284287 0.00138576 -1.28049e-05
7.71666 0.428172 0.5 -0.00292917 0.00136322 -1.34173e-05
7.71667 0.453074 0.5 -0.0030133 0.00133003 -1.34488e-05
7.71667 0.479272 0.5 -0.0030951 0.00128731 -1.23201e-05
7.71666 0.506834 0.5 -0.00317557 0.00123619 -1.08568e-05
7.71666 0.535832 0.5 -0.00325324 0.0011777 -4.56117e-06
7.71667 0.56634 0.5 -0.00332841 0.00111349 1.28315e-06
7.71666 0.598437 0.5 -0.00340073 0.0010444 5.93239e-06
7.71667 0.632207 0.5 -0.00347335 0.000971961 9.28687e-06
7.71666 0.667735 0.5 -0.0035465 0.000899537 1.20532e-05
7.71667 0.705113 0.5 -0.00362935 0.000823645 1.74202e-05
7.71666 0.744439 0.5 -0.0037139 0.000756946 2.01703e-05
7.71666 0.785813 0.5 -0.00384092 0.000679413 2.68757e-05
7.71667 0.829342 0.5 -0.00394224 0.000590859 3.1716e-05
7.71667 0.875139 0.5 -0.0041141 0.000555309 1.69551e-05
7.71667 0.92332 0.5 -0.00435793 0.000225588 0.00010511
7.71666 0.974011 0.5 -0.0041713 0.000767248 -0.000121675
7.75 0.340302 0.5 -0.00258202 0.00133338 -1.82288e-05
7.75 0.360626 0.5 -0.00267078 0.00134834 -2.03003e-05
7.75 0.382008 0.5 -0.00275891 0.00135058 -2.18267e-05
7.75 0.404505 0.5 -0.00284528 0.00133984 -2.30979e-05
7.75 0.428172 0.5 -0.00292866 0.00131745 -2.23741e-05
7.75 0.453073 0.5 -0.00300944 0.00128537 -2.01978e-05
7.75 0.479272 0.5 -0.00308887 0.00124459 -1.78703e-05
7.75 0.506834 0.5 -0.00316616 0.00119564 -1.29387e-05
7.75 0.535832 0.5 -0.00324144 0.00113982 -8.16088e-06
7.75 0.56634 0.5 -0.00331581 0.00107848 -4.71446e-06
7.75 0.598437 0.5 -0.00338919 0.00101236 -1.81628e-06
7.75 0.632206 0.5 -0.00346302 0.000942814 1.81991e-06
7.75 0.667735 0.5 -0.00353778 0.000873134 5.59181e-06
7.75 0.705113 0.5 -0.00362145 0.000799904 1.18716e-05
7.75 0.744439 0.5 -0.00370695 0.000735721 1.47282e-05
7.75 0.785813 0.5 -0.00383429 0.000661321 2.18362e-05
7.75 0.829342 0.5 -0.00394043 0.00057348 2.82943e-05
7.75 0.875138 0.5 -0.00410939 0.00054112 1.36395e-05
7.75 0.92332 0.5 -0.00435534 0.000217107 0.000101816
7.75 0.974011 0.5 -0.00417046 0.000747495 -0.000119763
7.78334 0.340302 0.5 -0.00264892 0.00131427 -3.9237e-06
7.78334 0.360626 0.5 -0.00274217 0.00132762 -4.1146e-06
7.78333 0.382008 0.5 -0.00283375 0.00132866 -4.24148e-06
7.78333 0.404505 0.5 -0.00292398 0.00131799 -4.43773e-06
7.78334 0.428172 0.5 -0.00301248 0.00129564 -3.23655e-06
7.78334 0.453074 0.5 -0.00309967 0.00126253 1.79371e-06
7.78334 0.479272 0.5 -0.00318616 0.00122078 6.95529e-06
7.78333 0.506834 0.5 -0.00327159 0.00117155 1.09337e-05
7.78334 0.535832 0.5 -0.0033553 0.00111516 1.47418e-05
7.78333 0.56634 0.5 -0.0034355 0.00105289 1.7864e-05
7.78334 0.598437 0.5 -0.003513 0.000987006 2.1029e-05
7.78334 0.632207 0.5 -0.00358842 0.000918282 2.46736e-05
7.78333 0.667735 0.5 -0.00366472 0.000849793 2.97077e-05
7.78334 0.705113 0.5 -0.00374759 0.000777319 3.77393e-05
7.78334 0.744439 0.5 -0.00383149 0.000714712 3.93301e-05
7.78333 0.785813 0.5 -0.0039562 0.000641334 4.43637e-05
7.78334 0.829342 0.5 -0.00405565 0.000550385 4.93737e-05
7.78334 0.875139 0.5 -0.00421167 0.000521306 3.52653e-05
7.78333 0.92332 0.5 -0.00445417 0.000205089 0.00011469
7.78333 0.974011 0.5 -0.00427272 0.000735096 -9.8972e-05
7.81667 0.340302 0.5 -0.00262436 0.00126268 -1.78658e-05
7.81667 0.360626 0.5 -0.00271499 0.00127454 -1.75225e-05
7.81666 0.382008 0.5 -0.00280305 0.00127438 -1.86082e-05
7.81666 0.404505 0.5 -0.00289005 0.00126283 -1.69022e-05
7.81667 0.428173 0.5 -0.0029747 0.00123973 -1.53463e-05
7.81667 0.453074 0.5 -0.0030552 0.0012066 -1.24868e-05
7.81666 0.479271 0.5 -0.00313616 0.00116679 -1.25125e-05
7.81667 0.506834 0.5 -0.00321602 0.00112064 -1.14722e-05
7.81667 0.535832 0.5 -0.00329427 0.0010687 -1.03676e-05
7.81667 0.56634 0.5 -0.00337019 0.00101189 -8.83946e-06
7.81666 0.598437 0.5 -0.00344534 0.000950642 -5.29819e-06
7.81667 0.632207 0.5 -0.00352197 0.000885285 2.68267e-06
7.81667 0.667735 0.5 -0.00359942 0.000818894 1.14785e-05
7.81667 0.705113 0.5 -0.00368217 0.00075202 1.58678e-05
7.81666 0.744439 0.5 -0.00376876 0.000694121 1.71573e-05
7.81666 0.785813 0.5 -0.00389304 0.000623325 2.39881e-05
7.81667 0.829342 0.5 -0.0039989 0.000533231 3.2877e-05
7.81667 0.875138 0.5 -0.00415726 0.000505697 1.83539e-05
7.81667 0.92332 0.5 -0.00441184 0.000192124 0.000105877
7.81666 0.974011 0.5 -0.00423516 0.000714831 -0.000106385
7.85 0.320984 0.5 -0.00264908 0.00122768 2.50315e-05
7.85 0.340302 0.5 -0.00275033 0.00125062 2.63558e-05
7.85 0.360626 0.5 -0.00284761 0.00126188 3.1837e-05
7.85 0.382008 0.5 -0.0029492 0.00126405 3.22722e-05
7.85 0.404504 0.5 -0.00304739 0.00125245 3.77114e-05
7.85 0.428173 0.5 -0.00314375 0.00123186 4.19911e-05
7.85 0.453073 0.5 -0.00324149 0.00120247 3.18214e-05
7.85 0.479272 0.5 -0.00333639 0.00116392 4.00822e-05
7.85 0.506834 0.5 -0.00342884 0.00111841 5.25341e-05
7.85 0.535832 0.5 -0.0035196 0.00106654 5.94302e-05
7.85 0.56634 0.5 -0.00360795 0.00100703 6.43429e-05
7.85 0.598437 0.5 -0.00369149 0.000940517 6.57787e-05
7.85 0.632207 0.5 -0.00377078 0.000872564 6.91458e-05
7.85 0.667735 0.5 -0.00384691 0.000808921 7.17848e-05
7.85 0.705113 0.5 -0.00393156 0.000742717 7.42076e-05
7.85 0.744439 0.5 -0.00401399 0.000682189 7.54882e-05
7.85 0.785813 0.5 -0.00414704 0.000613882 8.13387e-05
7.85 0.829342 0.5 -0.00424403 0.000518754 8.8116e-05
7.85 0.875139 0.5 -0.00439826 0.000493288 7.9114e-05