# wallShearStress  FACE_DATA 60650
# x  y  z  wallShearStress_x  wallShearStress_y  wallShearStress_z
8.75721 0 0.345731 0.0012744 -7.33668e-06 0.000874696
8.72516 0 0.336919 0.00112702 -6.86735e-06 0.000776259
8.69439 0 0.328456 0.000972782 -8.32911e-06 0.000660229
8.66483 0 0.320329 0.000814193 -8.33609e-06 0.000537644
8.63646 0 0.312526 0.000657893 -7.90473e-06 0.000415985
8.6092 0 0.305031 0.00049476 -7.64967e-06 0.000292773
8.58303 0 0.297833 0.000325733 -8.34967e-06 0.000168092
8.82531 0 0.430728 0.00168264 -5.64105e-06 0.00113103
8.79057 0 0.419435 0.0015686 -5.62136e-06 0.00104829
8.75721 0 0.408591 0.00144126 -6.60681e-06 0.000954427
8.72516 0 0.398176 0.00130734 -6.10874e-06 0.00085424
8.69439 0 0.388175 0.00116674 -7.03422e-06 0.000746413
8.66483 0 0.378571 0.00102179 -6.86289e-06 0.000632639
8.63646 0 0.369348 0.000872702 -7.7783e-06 0.000512239
8.6092 0 0.360491 0.000715101 -7.63114e-06 0.000389797
8.58303 0 0.351985 0.000546729 -7.77908e-06 0.000263288
8.5579 0 0.343817 0.000372048 -8.02022e-06 0.0001375
8.53376 0 0.335973 0.000204671 -1.02188e-05 1.28983e-05
8.51058 0 0.32844 4.80313e-05 -9.46042e-06 -0.000104753
8.9384 0 0.539403 0.00204585 -5.78426e-06 0.00142366
8.89917 0 0.52469 0.00196725 -4.34721e-06 0.00135442
8.8615 0 0.510562 0.00188129 -5.91524e-06 0.00127731
8.82531 0 0.496994 0.00178076 -4.63168e-06 0.00119477
8.79057 0 0.483964 0.00167959 -4.63429e-06 0.0011097
8.75721 0 0.471451 0.00157205 -5.74438e-06 0.00102091
8.72516 0 0.459434 0.00145645 -5.49818e-06 0.000924899
8.69439 0 0.447895 0.00133126 -6.13689e-06 0.000819916
8.66483 0 0.436813 0.00120004 -6.07075e-06 0.000709392
8.63646 0 0.426171 0.00106051 -7.04556e-06 0.000593399
8.6092 0 0.415951 0.00091245 -7.30105e-06 0.000474164
8.58303 0 0.406136 0.000754842 -7.74162e-06 0.000350023
8.5579 0 0.396712 0.000589003 -7.08957e-06 0.000222011
8.53376 0 0.387661 0.000418466 -8.66007e-06 9.11619e-05
8.51058 0 0.378969 0.000249143 -8.83048e-06 -3.63946e-05
8.48833 0 0.370622 8.69687e-05 -9.11565e-06 -0.000158058
8.46695 0 0.362605 -5.66231e-05 -6.87112e-06 -0.000269503
8.9384 0 0.611323 0.00208377 -6.56362e-06 0.00150828
8.89917 0 0.594649 0.00201901 -3.84308e-06 0.0014311
8.8615 0 0.578636 0.00194878 -4.6057e-06 0.00134831
8.82531 0 0.563259 0.00186041 -5.83564e-06 0.00125875
8.79057 0 0.548492 0.00177229 -3.41157e-06 0.00117069
8.75721 0 0.534311 0.00167545 -4.48739e-06 0.00107575
8.72516 0 0.520692 0.00157851 -4.94413e-06 0.000981997
8.69439 0 0.507614 0.00147019 -5.78758e-06 0.000880732
8.66483 0 0.495055 0.00135225 -5.67548e-06 0.000772545
8.63646 0 0.482994 0.00122587 -6.21845e-06 0.000658812
8.6092 0 0.471411 0.00109256 -6.45572e-06 0.000541936
8.58303 0 0.460288 0.000949043 -7.42742e-06 0.000420395
8.5579 0 0.449607 0.000794881 -7.40804e-06 0.000294346
8.53376 0 0.439349 0.0006316 -7.85708e-06 0.000163883
8.51058 0 0.429498 0.000462358 -8.87683e-06 3.16161e-05
8.48833 0 0.420038 0.000293066 -7.75336e-06 -9.93599e-05
8.46695 0 0.410953 0.000132556 -8.91157e-06 -0.000224744
8.44642 0 0.402229 -1.06583e-05 -6.69982e-06 -0.000342259
8.42671 0 0.393851 -0.00011797 -4.54821e-07 -0.000444455
8.9384 0 0.683243 0.00211595 -7.08009e-06 0.00160066
8.89917 0 0.664607 0.00205629 -4.70343e-06 0.00151124
8.8615 0 0.646711 0.00199352 -5.90314e-06 0.00142386
8.82531 0 0.629525 0.00192108 -4.85733e-06 0.00133398
8.79057 0 0.613021 0.00184464 -5.33579e-06 0.00123738
8.75721 0 0.597171 0.00175932 -4.09223e-06 0.00113854
8.72516 0 0.58195 0.00166857 -4.35383e-06 0.001037
8.69439 0 0.567333 0.00157969 -5.22378e-06 0.000938183
8.66483 0 0.553296 0.00148125 -5.74383e-06 0.000834321
8.63646 0 0.539816 0.00136848 -6.22311e-06 0.000722601
8.6092 0 0.526871 0.00124695 -6.18432e-06 0.000606506
8.58303 0 0.51444 0.00111756 -6.80398e-06 0.000487115
8.5579 0 0.502501 0.00097951 -7.23868e-06 0.000364128
8.53376 0 0.491037 0.000830704 -7.46976e-06 0.000236099
8.51058 0 0.480027 0.000671901 -8.69119e-06 0.000103796
8.48833 0 0.469454 0.000505753 -8.97793e-06 -3.11851e-05
8.46695 0 0.4593 0.000338742 -6.27045e-06 -0.000165739
8.44642 0 0.44955 0.000179698 -9.34935e-06 -0.000294312
8.42671 0 0.440186 3.81666e-05 -6.96809e-06 -0.000415496
8.40778 0 0.431194 -7.18926e-05 -9.09404e-07 -0.000523103
8.38959 0 0.422558 -0.00014394 -5.12373e-07 -0.000622774
8.9384 0 0.755163 0.00214004 -5.76694e-06 0.00170467
8.89917 0 0.734566 0.00208625 -3.49095e-06 0.00160909
8.8615 0 0.714786 0.00202935 -4.61917e-06 0.00151359
8.82531 0 0.69579 0.00197155 -5.05272e-06 0.00141729
8.79057 0 0.677549 0.00190762 -5.08872e-06 0.00131963
8.75721 0 0.660031 0.00183365 -6.01931e-06 0.00121623
8.72516 0 0.643208 0.00175305 -4.21963e-06 0.00111025
8.69439 0 0.627053 0.00166458 -4.63961e-06 0.0010011
8.66483 0 0.611538 0.00158285 -5.24218e-06 0.000894692
8.63646 0 0.596639 0.00149112 -5.96986e-06 0.000785769
8.6092 0 0.582331 0.00138648 -6.16039e-06 0.000671064
8.58303 0 0.568591 0.00127082 -6.36779e-06 0.000551076
8.5579 0 0.555397 0.00114762 -6.60065e-06 0.000428483
8.53376 0 0.542725 0.00101567 -7.20809e-06 0.000302815
8.51058 0 0.530556 0.000873427 -7.60038e-06 0.000173068
8.48833 0 0.518871 0.000720399 -9.34235e-06 3.92573e-05
8.46695 0 0.507648 0.000558934 -8.1981e-06 -9.83163e-05
8.44642 0 0.496871 0.000394818 -6.93717e-06 -0.000235661
8.42671 0 0.486522 0.000237525 -7.98314e-06 -0.000368864
8.40778 0 0.476583 9.9412e-05 -5.37498e-06 -0.000493724
8.38959 0 0.467038 -7.84993e-06 -1.72254e-06 -0.000609265
8.9384 0 0.827083 0.00215053 -7.30607e-06 0.00181023
8.89917 0 0.804525 0.00210659 -3.29182e-06 0.00171512
8.8615 0 0.782861 0.00205182 -5.57491e-06 0.00161295
8.82531 0 0.762056 0.00199421 -5.58541e-06 0.00151171
8.79057 0 0.742077 0.00194213 -6.17653e-06 0.00141088
8.75721 0 0.722891 0.00188424 -6.30232e-06 0.00130896
8.72516 0 0.704466 0.00181907 -6.21908e-06 0.00120513
8.69439 0 0.686772 0.00174309 -6.23253e-06 0.00109261
8.66483 0 0.66978 0.00165871 -5.56161e-06 0.000980029
8.63646 0 0.653462 0.001575 -6.53912e-06 0.000864192
8.6092 0 0.637792 0.00148565 -7.07559e-06 0.000751098
8.58303 0 0.622743 0.00138512 -7.41562e-06 0.000632314
8.5579 0 0.608291 0.00127432 -7.31801e-06 0.000507776
8.53376 0 0.594413 0.00115547 -7.48806e-06 0.000379691
8.51058 0 0.581085 0.00102983 -7.71434e-06 0.000249421
8.48833 0 0.568287 0.000894732 -8.99171e-06 0.000116076
8.46695 0 0.555995 0.000749889 -1.01222e-05 -2.09696e-05
8.44642 0 0.544192 0.000596118 -8.32673e-06 -0.000162849
8.42671 0 0.532857 0.000438845 -8.30969e-06 -0.000303739
8.40778 0 0.521972 0.000287444 -6.25639e-06 -0.000441991
8.38959 0 0.511518 0.000154507 -4.19425e-06 -0.000571253
8.9384 0 0.899004 0.00212997 -9.31058e-06 0.00187154
8.89917 0 0.874483 0.00209352 -2.67556e-06 0.00179358
8.8615 0 0.850935 0.00205332 -4.90819e-06 0.00169566
8.82531 0 0.828322 0.00201201 -4.01389e-06 0.00159718
8.79057 0 0.806606 0.00196994 -5.17345e-06 0.00148949
8.75721 0 0.785751 0.0019206 -5.07122e-06 0.0013843
8.72516 0 0.765724 0.00186649 -5.49688e-06 0.00127961
8.69439 0 0.746491 0.00180518 -5.79397e-06 0.00117622
8.66483 0 0.728022 0.00174665 -5.52362e-06 0.00106639
8.63646 0 0.710285 0.00167365 -4.44501e-06 0.000954826
8.6092 0 0.693252 0.00159376 -5.1894e-06 0.000838385
8.58303 0 0.676895 0.00151394 -6.31086e-06 0.000722786
8.5579 0 0.661186 0.00142224 -6.74803e-06 0.000601998
8.53376 0 0.646101 0.00131705 -6.97574e-06 0.000474209
8.51058 0 0.631614 0.0012037 -7.00517e-06 0.000342438
8.48833 0 0.617703 0.00108441 -7.28063e-06 0.0002086
8.46695 0 0.604343 0.000958215 -9.35807e-06 7.25636e-05
8.44642 0 0.591513 0.000821734 -9.70873e-06 -6.7395e-05
8.42671 0 0.579192 0.000675654 -8.29404e-06 -0.000212088
8.40778 0 0.56736 0.000524909 -9.5431e-06 -0.000356397
8.38959 0 0.555998 0.00037579 -6.49892e-06 -0.000499752
8.37214 0 0.545086 0.000245155 -3.22961e-06 -0.0006362
8.9384 0 0.970925 0.00204754 -1.36166e-05 0.00187615
8.89917 0 0.944442 0.00201173 -8.99142e-07 0.00183952
8.8615 0 0.91901 0.00199684 -5.72761e-06 0.00175473
8.82531 0 0.894588 0.00197818 -3.05075e-06 0.00167997
8.79057 0 0.871135 0.00195179 -5.5028e-06 0.00158387
8.75721 0 0.848612 0.00190061 -6.00667e-06 0.00148158
8.72516 0 0.826982 0.00184508 -7.07078e-06 0.00137476
8.69439 0 0.806211 0.00179125 -7.46181e-06 0.00126467
8.66483 0 0.786263 0.00173606 -7.80913e-06 0.00115418
8.63646 0 0.767108 0.00167831 -8.10785e-06 0.00104133
8.6092 0 0.748712 0.00161284 -6.54666e-06 0.000929354
8.58303 0 0.731046 0.0015383 -6.76377e-06 0.000814187
8.5579 0 0.714081 0.00146699 -7.79638e-06 0.000698787
8.53376 0 0.697789 0.00138699 -7.91409e-06 0.000577075
8.51058 0 0.682144 0.00129236 -8.23331e-06 0.000447776
8.48833 0 0.667119 0.00118697 -8.14225e-06 0.000313123
8.46695 0 0.65269 0.00107622 -8.92584e-06 0.000174518
8.44642 0 0.638834 0.00095891 -1.1076e-05 3.3865e-05
8.42671 0 0.625528 0.000833811 -1.07692e-05 -0.000111175
8.40778 0 0.612749 0.000700229 -9.89263e-06 -0.000260244
8.38959 0 0.600478 0.000561187 -1.05212e-05 -0.00040981
8.37214 0 0.588693 0.000426168 -7.33691e-06 -0.000556549
8.97926 0 1.07246 0.00169646 3.17921e-05 0.0019562
8.9384 0 1.04284 0.00191868 -2.04543e-05 0.00178283
8.89917 0 1.0144 0.00187434 3.53405e-06 0.00180898
8.8615 0 0.987085 0.00189135 -4.67046e-06 0.00173225
8.82531 0 0.960854 0.00189682 1.27452e-07 0.00168371
8.79057 0 0.935663 0.00189798 -4.28517e-06 0.00160363
8.75721 0 0.911471 0.00187962 -3.04493e-06 0.0015238
8.72516 0 0.88824 0.00185768 -4.13081e-06 0.00142899
8.69439 0 0.86593 0.00182943 -4.02318e-06 0.0013292
8.66483 0 0.844505 0.00179716 -4.45653e-06 0.00122842
8.63646 0 0.823931 0.0017454 -5.40972e-06 0.00112459
8.6092 0 0.804172 0.0016886 -5.84042e-06 0.00101895
8.58303 0 0.785198 0.00163177 -4.54302e-06 0.000906974
8.5579 0 0.766976 0.00156795 -5.03226e-06 0.00079271
8.53376 0 0.749477 0.00150626 -5.64635e-06 0.000677049
8.51058 0 0.732673 0.00143106 -6.55177e-06 0.000558351
8.48833 0 0.716535 0.00134355 -6.69774e-06 0.000433323
8.46695 0 0.701038 0.00124629 -7.11603e-06 0.000301755
8.44642 0 0.686155 0.00114058 -8.26317e-06 0.000164174
8.42671 0 0.671863 0.00102864 -1.06464e-05 2.28399e-05
8.40778 0 0.658138 0.000909452 -1.01195e-05 -0.000124772
8.38959 0 0.644957 0.000782693 -1.02639e-05 -0.000276747
8.37214 0 0.6323 0.000653091 -9.78465e-06 -0.000429758
8.97926 0 1.14643 0.00144783 3.64948e-05 0.0017888
8.9384 0 1.11476 0.00169671 -2.81892e-05 0.00163867
8.89917 0 1.08436 0.00166142 8.80596e-06 0.00173637
8.8615 0 1.05516 0.00172742 -9.34002e-06 0.001671
8.82531 0 1.02712 0.00174036 4.35838e-07 0.00166416
8.79057 0 1.00019 0.00176251 -5.41612e-06 0.00160793
8.75721 0 0.974331 0.00176204 -2.27462e-06 0.00155368
8.72516 0 0.949498 0.00175733 -4.0163e-06 0.00148305
8.69439 0 0.925649 0.00173452 -3.92148e-06 0.00140248
8.66483 0 0.902747 0.00169595 -5.71262e-06 0.00131296
8.63646 0 0.880753 0.00165465 -6.79591e-06 0.00121606
8.6092 0 0.859632 0.00161185 -8.69416e-06 0.00110799
8.58303 0 0.839349 0.00156637 -8.98714e-06 0.000997247
8.5579 0 0.819871 0.00152484 -7.85331e-06 0.00088363
8.53376 0 0.801165 0.0014703 -8.28623e-06 0.000773483
8.51058 0 0.783202 0.00141346 -8.33828e-06 0.000656669
8.48833 0 0.765951 0.00135116 -8.51741e-06 0.000537466
8.46695 0 0.749385 0.00128222 -8.33845e-06 0.000416228
8.44642 0 0.733476 0.00120474 -8.29055e-06 0.000287777
8.42671 0 0.718198 0.001115 -1.01696e-05 0.000154455
8.40778 0 0.703526 0.00101778 -1.22958e-05 1.55692e-05
8.38959 0 0.689437 0.000913601 -1.17329e-05 -0.000132022
8.37214 0 0.675907 0.000801038 -1.22585e-05 -0.000285235
8.97926 0 1.22039 0.00113305 4.27136e-05 0.00153146
8.9384 0 1.18669 0.00143942 -3.15233e-05 0.00140746
8.89917 0 1.15432 0.0014437 1.94107e-05 0.00157382
8.8615 0 1.12324 0.00156649 -1.21268e-05 0.00151301
8.82531 0 1.09339 0.00159453 6.69165e-06 0.00155602
8.79057 0 1.06472 0.00165418 -3.14669e-06 0.00152574
8.75721 0 1.03719 0.00167939 5.54519e-08 0.0014971
8.72516 0 1.01076 0.00169775 -1.2683e-06 0.00145282
8.69439 0 0.985369 0.00170161 -1.47215e-06 0.001398
8.66483 0 0.960988 0.00169837 -2.40743e-06 0.0013287
8.63646 0 0.937576 0.00168847 -2.95493e-06 0.00124679
8.6092 0 0.915092 0.00167649 -2.57147e-06 0.00116126
8.58303 0 0.893501 0.00165039 -3.84449e-06 0.0010691
8.5579 0 0.872766 0.00159701 -5.06117e-06 0.000972312
8.53376 0 0.852853 0.00155363 -5.10274e-06 0.000870603
8.51058 0 0.833731 0.00150973 -4.67977e-06 0.000764463
8.48833 0 0.815368 0.00144866 -5.20496e-06 0.000650228
8.46695 0 0.797732 0.00138828 -5.29086e-06 0.000533114
8.44642 0 0.780797 0.00132441 -5.19192e-06 0.000410969
8.42671 0 0.764534 0.00125094 -5.29034e-06 0.000287982
8.40778 0 0.748915 0.00117501 -7.00087e-06 0.000160923
8.38959 0 0.733917 0.00109145 -9.42779e-06 2.75055e-05
8.37214 0 0.719513 0.000998886 -9.2274e-06 -0.000115705
8.97926 0 1.29435 0.000793524 3.67987e-05 0.0012404
8.9384 0 1.25861 0.00113807 -3.48231e-05 0.00120102
8.89917 0 1.22428 0.00115127 2.0057e-05 0.00139772
8.8615 0 1.19131 0.00131796 -1.85775e-05 0.00137312
8.82531 0 1.15965 0.00134189 6.41956e-06 0.00143764
8.79057 0 1.12925 0.00142762 -7.23417e-06 0.00143202
8.75721 0 1.10005 0.00146266 -1.75196e-06 0.00142785
8.72516 0 1.07202 0.00149517 -3.21999e-06 0.00140447
8.69439 0 1.04509 0.00151627 -2.30312e-06 0.00137077
8.66483 0 1.01923 0.00152941 -3.07643e-06 0.00132386
8.63646 0 0.994399 0.00153141 -3.37626e-06 0.00126559
8.6092 0 0.970553 0.00151656 -5.08748e-06 0.00119732
8.58303 0 0.947652 0.00148862 -6.48869e-06 0.00112369
8.5579 0 0.925661 0.00146465 -7.73915e-06 0.00104153
8.53376 0 0.904541 0.00143558 -9.2408e-06 0.000943178
8.51058 0 0.88426 0.00140514 -9.51052e-06 0.000846227
8.48833 0 0.864784 0.00137041 -1.05945e-05 0.000745002
8.46695 0 0.84608 0.00132763 -1.03806e-05 0.000641588
8.44642 0 0.828118 0.00127761 -1.02918e-05 0.000527936
8.42671 0 0.810869 0.00121554 -1.03058e-05 0.000411316
8.40778 0 0.794304 0.00115891 -9.68879e-06 0.000292373
8.38959 0 0.778397 0.00109741 -1.19171e-05 0.000173145
8.37214 0 0.76312 0.0010291 -1.40148e-05 4.86948e-05
8.97926 0 1.36832 0.000495557 3.11218e-05 0.000807247
8.9384 0 1.33053 0.000875611 -2.79577e-05 0.000943293
8.89917 0 1.29423 0.000917562 2.66447e-05 0.00108543
8.8615 0 1.25938 0.00110728 -1.28827e-05 0.00117393
8.82531 0 1.22592 0.00117371 8.12391e-06 0.00124673
8.79057 0 1.19378 0.0012708 -2.80996e-06 0.00129898
8.75721 0 1.16291 0.00133111 1.0218e-06 0.00133181
8.72516 0 1.13327 0.001381 9.0059e-07 0.00134932
8.69439 0 1.10481 0.00142322 2.55662e-07 0.0013469
8.66484 0 1.07747 0.00145751 -5.1862e-08 0.00133031
8.63646 0 1.05122 0.00148134 -4.49631e-07 0.00129699
8.6092 0 1.02601 0.00149473 -5.07528e-07 0.00124904
8.58303 0 1.0018 0.00150273 -2.08696e-07 0.00118394
8.5579 0 0.978555 0.00150941 -5.67036e-07 0.00110688
8.53376 0 0.956229 0.00150841 -2.66754e-07 0.00102637
8.51058 0 0.934789 0.00148857 -1.82568e-08 0.000938907
8.48833 0 0.9142 0.00145116 -1.32476e-06 0.000849009
8.46695 0 0.894427 0.001431 -7.82709e-07 0.000753963
8.44642 0 0.875439 0.00140491 -1.11613e-06 0.000652574
8.42671 0 0.857205 0.00135775 -9.95213e-07 0.00054076
8.40778 0 0.839693 0.0013083 -1.06089e-06 0.000418781
8.38959 0 0.822877 0.00125432 -8.96622e-07 0.000297052
8.37214 0 0.806727 0.00120427 -1.87188e-06 0.000173214
8.97926 0 1.44228 0.000212881 4.10156e-05 0.000333638
8.9384 0 1.40245 0.000664702 -2.33748e-05 0.000602751
8.89917 0 1.36419 0.000722737 -1.8442e-06 0.000672299
8.8615 0 1.32746 0.000890428 -1.72007e-05 0.000816405
8.82531 0 1.29218 0.000986652 -8.02125e-06 0.000893335
8.79057 0 1.2583 0.00108387 -8.75155e-06 0.000964256
8.75721 0 1.22577 0.00116372 -9.30807e-06 0.00101246
8.72516 0 1.19453 0.00122669 -9.36941e-06 0.00104643
8.69439 0 1.16453 0.00127404 -8.77573e-06 0.00106554
8.66483 0 1.13571 0.00130875 -8.29518e-06 0.00107159
8.63646 0 1.10804 0.00133235 -9.0518e-06 0.00106539
8.6092 0 1.08147 0.00134842 -9.95629e-06 0.00104769
8.58303 0 1.05595 0.00135549 -1.15333e-05 0.00101898
8.5579 0 1.03145 0.00134651 -1.23105e-05 0.000980496
8.53376 0 1.00792 0.00132403 -1.34325e-05 0.000934832
8.51058 0 0.985317 0.00130019 -1.50529e-05 0.000883376
8.48833 0 0.963616 0.00127585 -1.67551e-05 0.000820212
8.46695 0 0.942775 0.00125158 -1.62256e-05 0.000749516
8.44642 0 0.92276 0.00121696 -1.8055e-05 0.00067847
8.42671 0 0.90354 0.00118453 -1.79818e-05 0.000602051
8.40778 0 0.885082 0.00113828 -1.80262e-05 0.000522004
8.38959 0 0.867357 0.00108407 -1.84431e-05 0.000431615
8.37214 0 0.850334 0.00103525 -1.89836e-05 0.000336876
7.66922 0 0.966948 -0.00115655 4.04038e-06 -0.000645604
7.67296 0 0.988324 -0.00131658 4.52139e-07 -0.000794153
7.67685 0 1.01058 -0.00147436 -4.72894e-06 -0.000885063
7.68091 0 1.03376 -0.00165048 -8.69657e-06 -0.000922036
7.68513 0 1.0579 -0.0018724 -1.13793e-05 -0.000935709
7.68953 0 1.08303 -0.00216742 -1.36473e-05 -0.000947695
7.69411 0 1.1092 -0.00254179 -1.7904e-05 -0.000970406
7.69888 0 1.13646 -0.00301212 -1.99564e-05 -0.00100963
7.70385 0 1.16483 -0.00352921 -2.15018e-05 -0.00105709
7.70902 0 1.19439 -0.00405554 -2.13121e-05 -0.00111804
7.7144 0 1.22516 -0.00457235 -2.01689e-05 -0.00120396
7.72001 0 1.25721 -0.0050701 -1.90752e-05 -0.00132298
7.72585 0 1.29057 -0.00554149 -1.62315e-05 -0.00149227
7.73193 0 1.32531 -0.00596716 -1.16479e-05 -0.00171958
7.70425 0 0.907776 -0.000312414 4.88789e-06 -5.0318e-05
7.70851 0 0.926707 -0.000461243 3.63029e-06 -0.000209883
7.71295 0 0.946421 -0.000618053 -7.05846e-07 -0.000358802
7.71757 0 0.966948 -0.000778741 -3.73232e-06 -0.000489683
7.72238 0 0.988324 -0.000940997 -6.15831e-06 -0.000599461
7.72738 0 1.01058 -0.00109687 -9.03464e-06 -0.000676923
7.7326 0 1.03376 -0.00125191 -1.08063e-05 -0.000719849
7.73803 0 1.0579 -0.00142659 -1.18068e-05 -0.000744824
7.74368 0 1.08303 -0.0016491 -1.23629e-05 -0.00075705
7.74957 0 1.1092 -0.00193271 -1.35059e-05 -0.000785385
7.7557 0 1.13646 -0.00229364 -1.74894e-05 -0.000818753
7.76209 0 1.16484 -0.00274967 -1.77317e-05 -0.00085423
7.76874 0 1.19439 -0.00325008 -1.94095e-05 -0.000902669
7.77566 0 1.22516 -0.00376498 -1.95829e-05 -0.000958255
7.78287 0 1.25721 -0.00427087 -1.97407e-05 -0.00102811
7.79038 0 1.29057 -0.00476132 -1.77057e-05 -0.00112722
7.7982 0 1.32531 -0.00522086 -1.6638e-05 -0.00125293
7.73984 0 0.872138 0.000182317 -2.55256e-06 -4.26143e-05
7.74464 0 0.889597 9.92251e-05 -3.92837e-06 -9.57654e-05
7.74964 0 0.907777 6.33144e-06 -5.81226e-06 -0.000155103
7.75484 0 0.926707 -8.7934e-05 -6.74102e-06 -0.000235996
7.76026 0 0.94642 -0.000177705 -6.04742e-06 -0.000296926
7.76591 0 0.966948 -0.000278005 -7.43498e-06 -0.000352622
7.77179 0 0.988324 -0.000399787 -9.53742e-06 -0.000400503
7.77791 0 1.01058 -0.000540799 -1.13931e-05 -0.000434775
7.78428 0 1.03376 -0.000705113 -1.2304e-05 -0.000463451
7.79092 0 1.0579 -0.000894791 -1.24119e-05 -0.000497934
7.79783 0 1.08303 -0.00111689 -1.15719e-05 -0.000531028
7.80503 0 1.1092 -0.00137992 -1.17437e-05 -0.000576839
7.81252 0 1.13646 -0.00168269 -1.26952e-05 -0.000631639
7.82033 0 1.16483 -0.00206381 -1.55461e-05 -0.000667504
7.82845 0 1.19439 -0.00251654 -1.54228e-05 -0.000712554
7.83692 0 1.22516 -0.00301068 -1.69951e-05 -0.000767139
7.84573 0 1.25721 -0.00351218 -1.8209e-05 -0.000816926
7.85491 0 1.29057 -0.00400945 -1.77157e-05 -0.00087716
7.86446 0 1.32531 -0.0044802 -1.72838e-05 -0.000944862
7.87441 0 1.3615 -0.00495224 -1.51827e-05 -0.00106386
7.778 0 0.855372 0.000510972 -1.23801e-06 -0.000231301
7.78345 0 0.872138 0.000453145 -5.7242e-06 -0.000266847
7.78912 0 0.889597 0.000375671 -9.54895e-06 -0.000266201
7.79503 0 0.907776 0.000285216 -1.03059e-05 -0.00027342
7.80118 0 0.926708 0.000202798 -9.64287e-06 -0.000295533
7.80759 0 0.94642 0.000114816 -8.89735e-06 -0.000293661
7.81425 0 0.966948 1.95458e-05 -8.54479e-06 -0.000272246
7.82121 0 0.988324 -6.77138e-05 -7.73945e-06 -0.000245421
7.82844 0 1.01058 -0.00014353 -7.16192e-06 -0.000227348
7.83597 0 1.03376 -0.000240901 -7.35831e-06 -0.000231064
7.84382 0 1.0579 -0.000385886 -8.44752e-06 -0.00025956
7.85199 0 1.08303 -0.000589143 -9.08017e-06 -0.000304835
7.86049 0 1.1092 -0.000848775 -9.62524e-06 -0.000363827
7.86935 0 1.13646 -0.00113548 -1.08056e-05 -0.000431556
7.87857 0 1.16484 -0.00146947 -1.21496e-05 -0.000479803
7.88818 0 1.19439 -0.00187354 -1.23691e-05 -0.000530114
7.89818 0 1.22516 -0.00232271 -1.41815e-05 -0.000591423
7.90859 0 1.25721 -0.00280482 -1.5092e-05 -0.000643367
7.91943 0 1.29057 -0.00329742 -1.62473e-05 -0.000692117
7.93073 0 1.32531 -0.0037723 -1.71276e-05 -0.000730137
7.94249 0 1.3615 -0.00425377 -1.55822e-05 -0.000803451
7.81473 0 0.839271 0.000757659 -3.07231e-06 -0.000370956
7.82076 0 0.855372 0.000718321 -5.48729e-06 -0.000402932
7.82705 0 0.872138 0.000652324 -7.58095e-06 -0.000392909
7.8336 0 0.889597 0.000574333 -8.20463e-06 -0.000364669
7.84042 0 0.907777 0.000482496 -8.33415e-06 -0.000341527
7.84752 0 0.926707 0.000382952 -7.69966e-06 -0.000326337
7.85491 0 0.946421 0.000266373 -6.61405e-06 -0.000292816
7.8626 0 0.966948 0.0001504 -6.39674e-06 -0.000238631
7.87062 0 0.988324 6.86866e-05 -6.7417e-06 -0.000184178
7.87897 0 1.01058 1.91043e-05 -6.87434e-06 -0.00013818
7.88766 0 1.03376 -2.09581e-05 -5.84976e-06 -0.000102443
7.89671 0 1.0579 -8.14049e-05 -5.05648e-06 -8.79559e-05
7.90614 0 1.08303 -0.000206643 -5.85966e-06 -0.000108545
7.91595 0 1.1092 -0.000410297 -6.35842e-06 -0.000157873
7.92617 0 1.13646 -0.000664713 -8.02662e-06 -0.000229327
7.93681 0 1.16483 -0.000956859 -9.74524e-06 -0.000296674
7.9479 0 1.19439 -0.00130685 -1.15934e-05 -0.000345392
7.95943 0 1.22516 -0.0017134 -1.13107e-05 -0.000410395
7.97145 0 1.25721 -0.00216198 -1.32559e-05 -0.000474495
7.98397 0 1.29057 -0.00263599 -1.38932e-05 -0.000528938
7.99699 0 1.32531 -0.00310626 -1.5698e-05 -0.000560983
8.01056 0 1.3615 -0.00359212 -1.51711e-05 -0.000613178
8.02469 0 1.39917 -0.00400979 -1.72572e-05 -0.000622035
7.85669 0 0.839271 0.000921999 -3.36888e-06 -0.000504699
7.86353 0 0.855372 0.000857629 -6.94318e-06 -0.000502881
7.87066 0 0.872138 0.000783094 -7.86583e-06 -0.000467127
7.87808 0 0.889596 0.000696617 -6.16125e-06 -0.000433521
7.88581 0 0.907777 0.000581586 -5.75497e-06 -0.000401494
7.89385 0 0.926708 0.000448163 -4.83588e-06 -0.000359046
7.90223 0 0.94642 0.000315469 -5.41621e-06 -0.000294444
7.91095 0 0.966948 0.000222059 -5.89008e-06 -0.000226179
7.92003 0 0.988324 0.000173117 -6.60259e-06 -0.000165805
7.9295 0 1.01058 0.000143895 -6.79332e-06 -0.000111063
7.93935 0 1.03376 0.000114195 -6.62072e-06 -5.75848e-05
7.94961 0 1.0579 7.68844e-05 -6.51281e-06 -1.17406e-05
7.96029 0 1.08303 2.15473e-05 -5.30719e-06 2.0979e-05
7.97141 0 1.1092 -9.05518e-05 -5.13162e-06 2.01307e-05
7.98299 0 1.13646 -0.000284282 -5.49989e-06 -2.60326e-05
7.99505 0 1.16484 -0.000530131 -6.3201e-06 -9.75652e-05
8.00761 0 1.19439 -0.000825059 -8.36209e-06 -0.000168023
8.02069 0 1.22516 -0.00118007 -1.08478e-05 -0.000237786
8.03431 0 1.25721 -0.00158361 -1.31476e-05 -0.000300778
8.04849 0 1.29057 -0.00203231 -1.32088e-05 -0.000358589
8.06326 0 1.32531 -0.00249001 -1.42981e-05 -0.000398441
8.07864 0 1.3615 -0.00297504 -1.46445e-05 -0.000447762
8.09465 0 1.39917 -0.00338725 -1.72898e-05 -0.000437625
7.89865 0 0.839271 0.00102282 -5.799e-06 -0.000598766
7.9063 0 0.855372 0.000944166 -6.95759e-06 -0.000564141
7.91427 0 0.872138 0.000851641 -5.17053e-06 -0.000524895
7.92256 0 0.889597 0.0007381 -3.73956e-06 -0.000493829
7.93119 0 0.907776 0.000596269 -3.94691e-06 -0.000448896
7.94019 0 0.926708 0.000448729 -5.59886e-06 -0.000368364
7.94955 0 0.94642 0.0003489 -6.36819e-06 -0.00028496
7.9593 0 0.966948 0.000300519 -6.86819e-06 -0.000210488
7.96945 0 0.988324 0.000280326 -7.08346e-06 -0.00014086
7.98003 0 1.01058 0.000263926 -6.91102e-06 -7.46316e-05
7.99104 0 1.03376 0.000240895 -6.81443e-06 -1.03353e-05
8.0025 0 1.0579 0.000208804 -6.49818e-06 4.24032e-05
8.01444 0 1.08303 0.000166126 -5.8889e-06 8.18872e-05
8.02687 0 1.1092 0.000106532 -4.77402e-06 0.000119361
8.03981 0 1.13646 1.33347e-05 -3.49198e-06 0.000128466
8.05329 0 1.16483 -0.000159227 -4.4035e-06 8.4099e-05
8.06733 0 1.19439 -0.000411311 -4.72228e-06 6.77342e-06
8.08195 0 1.22516 -0.000719973 -6.50121e-06 -8.6573e-05
8.09717 0 1.25721 -0.00106102 -1.02991e-05 -0.000151161
8.11302 0 1.29057 -0.00146299 -1.36776e-05 -0.000194381
8.12952 0 1.32531 -0.00191184 -1.42053e-05 -0.00022736
8.14671 0 1.3615 -0.00239822 -1.43851e-05 -0.00028119
8.16461 0 1.39917 -0.00281077 -1.64389e-05 -0.000270887
8.18324 0 1.4384 -0.00333508 -1.3388e-05 -0.000360675
7.94062 0 0.839271 0.00107731 -6.27914e-06 -0.000668544
7.94907 0 0.855372 0.000976738 -4.41696e-06 -0.000630377
7.95787 0 0.872138 0.000852049 -4.22998e-06 -0.000591604
7.96704 0 0.889597 0.000700335 -3.55898e-06 -0.000535
7.97658 0 0.907777 0.000552195 -5.65101e-06 -0.000449716
7.98652 0 0.926707 0.000458098 -7.13571e-06 -0.000361233
7.99687 0 0.946421 0.000412354 -8.00905e-06 -0.000274306
8.00765 0 0.966948 0.000398036 -8.396e-06 -0.000190407
8.01887 0 0.988324 0.000392926 -8.23105e-06 -0.000108768
8.03055 0 1.01058 0.000383706 -8.0184e-06 -3.09185e-05
8.04273 0 1.03376 0.000366303 -7.12632e-06 3.82452e-05
8.0554 0 1.0579 0.000339585 -6.26925e-06 9.29182e-05
8.06859 0 1.08303 0.00030657 -5.4249e-06 0.000132306
8.08233 0 1.1092 0.000267697 -5.24934e-06 0.000162499
8.09664 0 1.13646 0.000211795 -4.23339e-06 0.000189442
8.11154 0 1.16484 0.000132231 -2.77387e-06 0.000194604
8.12705 0 1.19439 -2.21777e-05 -3.56581e-06 0.00016352
8.14321 0 1.22516 -0.000275117 -4.65927e-06 7.0182e-05
8.16003 0 1.25721 -0.000567518 -7.34957e-06 -1.51735e-05
8.17755 0 1.29057 -0.000913189 -7.63598e-06 -9.49866e-05
8.19579 0 1.32531 -0.00131037 -1.32893e-05 -0.000126515
8.21479 0 1.3615 -0.00179024 -1.36871e-05 -0.000156508
8.23457 0 1.39917 -0.00222626 -1.46103e-05 -0.000138653
8.25516 0 1.4384 -0.00276016 -1.23654e-05 -0.000209434
8.27661 0 1.47926 -0.0029646 -1.90728e-05 -9.50568e-05
7.99184 0 0.855371 0.000929469 -2.35128e-06 -0.000702176
8.00148 0 0.872138 0.000771644 -3.38383e-06 -0.000630747
8.01152 0 0.889596 0.000625582 -5.68517e-06 -0.000525293
8.02197 0 0.907777 0.000538929 -7.10507e-06 -0.000422608
8.03286 0 0.926708 0.000500179 -8.65827e-06 -0.000322599
8.04419 0 0.94642 0.000492472 -8.74021e-06 -0.000226435
8.05599 0 0.966948 0.000495567 -9.20894e-06 -0.000133767
8.06829 0 0.988324 0.000496764 -9.40246e-06 -4.42285e-05
8.08108 0 1.01058 0.000490593 -8.1288e-06 3.68275e-05
8.09441 0 1.03376 0.000475976 -6.58768e-06 0.000106443
8.10829 0 1.0579 0.000451458 -4.58365e-06 0.000166861
8.12274 0 1.08303 0.000424561 -3.52103e-06 0.000212072
8.13779 0 1.1092 0.00039202 -2.80674e-06 0.000242349
8.15346 0 1.13646 0.000352513 -2.64856e-06 0.000262058
8.16978 0 1.16483 0.000300478 -2.69995e-06 0.000270834
8.18677 0 1.19439 0.000224192 -1.76268e-06 0.000265385
8.20447 0 1.22516 8.88903e-05 -5.12532e-07 0.000220278
8.22289 0 1.25721 -0.000131335 -5.64447e-06 0.000154885
8.24208 0 1.29057 -0.000437866 -5.92429e-06 4.97358e-05
8.26206 0 1.32531 -0.000756571 -1.13235e-05 8.54626e-06
8.28286 0 1.3615 -0.00120585 -9.59846e-06 -3.64392e-05
8.30453 0 1.39917 -0.00164832 -1.35204e-05 -2.45734e-05
8.32708 0 1.4384 -0.00220221 -1.0753e-05 -7.60863e-05
8.35057 0 1.47926 -0.00244551 -1.35599e-05 9.27052e-06
8.03461 0 0.855372 0.000810698 -3.63932e-06 -0.000724594
8.04508 0 0.872138 0.000675707 -6.19214e-06 -0.000603383
8.056 0 0.889597 0.000600035 -7.63524e-06 -0.000486961
8.06736 0 0.907776 0.000569578 -9.33213e-06 -0.000369342
8.07919 0 0.926707 0.000567569 -9.43309e-06 -0.000256531
8.09151 0 0.946421 0.000575609 -1.00212e-05 -0.000151914
8.10434 0 0.966948 0.000584991 -9.92134e-06 -5.31648e-05
8.1177 0 0.988324 0.000590872 -9.22833e-06 3.29872e-05
8.13161 0 1.01058 0.000591618 -8.18419e-06 0.000105405
8.1461 0 1.03376 0.000582389 -6.55106e-06 0.00016795
8.16118 0 1.0579 0.00057275 -5.66413e-06 0.000227801
8.17689 0 1.08303 0.000552932 -5.05846e-06 0.000278246
8.19325 0 1.1092 0.000527664 -4.2629e-06 0.000306631
8.21028 0 1.13646 0.000495814 -3.97823e-06 0.000325332
8.22802 0 1.16484 0.000456974 -3.33779e-06 0.000331639
8.24649 0 1.19439 0.000405552 -3.58136e-06 0.000328357
8.26572 0 1.22516 0.000333048 -2.27992e-06 0.000310566
8.28575 0 1.25721 0.000218347 -2.2818e-06 0.000278608
8.30661 0 1.29057 3.36672e-06 -3.43815e-06 0.000197546
8.32832 0 1.32531 -0.000277856 -1.19718e-05 0.000159742
8.35093 0 1.3615 -0.000703449 -9.83122e-06 7.96145e-05
8.37448 0 1.39917 -0.00108753 -1.68664e-05 8.72764e-05
8.399 0 1.4384 -0.00165312 -1.25581e-05 5.39778e-05
8.42454 0 1.47926 -0.00195469 -1.63405e-05 0.00012359
8.07738 0 0.855372 0.000704232 -5.86042e-06 -0.000676456
8.08869 0 0.872138 0.000645328 -7.20918e-06 -0.000545863
8.10048 0 0.889597 0.00062862 -8.46951e-06 -0.000416682
8.11275 0 0.907777 0.000635973 -9.13719e-06 -0.000291093
8.12553 0 0.926708 0.000651191 -9.77495e-06 -0.00017151
8.13883 0 0.94642 0.000666377 -9.63872e-06 -5.57607e-05
8.15269 0 0.966948 0.000678356 -8.92034e-06 5.29614e-05
8.16712 0 0.988324 0.000685023 -6.99202e-06 0.000153498
8.18214 0 1.01058 0.000687161 -4.69449e-06 0.000230768
8.19779 0 1.03376 0.00068011 -3.55439e-06 0.000303065
8.21408 0 1.0579 0.000668468 -2.29842e-06 0.000364664
8.23104 0 1.08303 0.000646289 -2.00841e-06 0.000404704
8.24871 0 1.1092 0.000618265 -8.50317e-07 0.000430852
8.26711 0 1.13646 0.000583661 -3.49232e-07 0.000443448
8.28626 0 1.16483 0.000545385 6.55131e-07 0.000441518
8.30621 0 1.19439 0.000502037 8.52643e-07 0.000426873
8.32698 0 1.22516 0.000451818 1.45978e-06 0.000400606
8.34861 0 1.25721 0.00038603 1.05322e-08 0.000367974
8.37113 0 1.29057 0.000273153 1.35703e-06 0.000315098
8.39459 0 1.32531 9.84616e-05 -7.10531e-06 0.000284189
8.41901 0 1.3615 -0.000252023 -6.35683e-06 0.000189779
8.44444 0 1.39917 -0.000564363 -1.63503e-05 0.000203283
8.47093 0 1.4384 -0.00112594 -9.61844e-06 0.000154606
8.4985 0 1.47926 -0.00142585 -2.20597e-05 0.000196088
8.12014 0 0.855372 0.0006809 -8.71305e-06 -0.000587019
8.1323 0 0.872138 0.000682075 -9.67485e-06 -0.000448856
8.14496 0 0.889596 0.000700101 -1.05332e-05 -0.000315312
8.15814 0 0.907777 0.000724105 -1.19312e-05 -0.000186754
8.17186 0 0.926708 0.000749303 -1.08737e-05 -6.69992e-05
8.18616 0 0.94642 0.000771297 -1.11544e-05 3.74838e-05