# wallShearStress  FACE_DATA 15800
# x  y  z  wallShearStress_x  wallShearStress_y  wallShearStress_z
1.59048 0 -0.957396 -0.00252789 4.56015e-05 0.00372459
1.62602 0 -0.919983 -0.00251288 4.13693e-05 0.00386625
1.65893 0 -0.885336 -0.00222837 -3.19026e-06 0.00431425
1.68941 0 -0.853252 -0.00158426 -8.03939e-05 0.00538131
1.71764 0 -0.82354 -0.000965854 -0.000124957 0.00691837
1.74378 0 -0.796025 -0.000683127 -9.31773e-05 0.00844451
1.76798 0 -0.770546 -0.000803396 -2.20871e-05 0.00979646
1.7904 0 -0.74695 -0.00128951 6.39309e-05 0.0107504
1.81116 0 -0.725099 -0.00207109 0.000127095 0.0111976
1.83038 0 -0.704863 -0.00323539 0.000160667 0.011445
1.84818 0 -0.686124 -0.00435735 0.00016449 0.0115259
1.86466 0 -0.668771 -0.00534761 0.000156796 0.0112929
1.87993 0 -0.652701 -0.00607804 0.000130685 0.0108768
1.68621 0 -0.957396 -0.0028227 -1.66221e-05 0.00389541
1.71801 0 -0.919982 -0.00256273 -7.07484e-05 0.00493271
1.74746 0 -0.885336 -0.00219017 -9.88196e-05 0.00646755
1.77474 0 -0.853252 -0.00199845 -8.0128e-05 0.00800739
1.79999 0 -0.82354 -0.00228547 -8.28556e-06 0.00923492
1.82338 0 -0.796025 -0.00297092 7.60656e-05 0.0101279
1.84504 0 -0.770545 -0.0038988 0.000137389 0.0105815
1.86509 0 -0.74695 -0.00496043 0.000165037 0.0107338
1.88366 0 -0.725099 -0.00596515 0.000161487 0.0104329
1.90087 0 -0.704863 -0.00677231 0.000122899 0.0098649
1.9168 0 -0.686124 -0.007276 3.55312e-05 0.00944694
1.93154 0 -0.668771 -0.00755684 -5.71971e-05 0.00929884
1.9452 0 -0.652701 -0.00763923 -0.000136982 0.00944361
1.75165 0 -0.997798 -0.00315277 -3.96057e-05 0.00383143
1.78195 0 -0.957396 -0.00305807 -0.000105066 0.00515427
1.81001 0 -0.919983 -0.00310841 -0.000122885 0.0067934
1.836 0 -0.885337 -0.00343989 -8.66867e-05 0.00829792
1.86006 0 -0.853252 -0.00414223 8.03461e-06 0.00934454
1.88235 0 -0.82354 -0.0050192 8.54734e-05 0.00974942
1.90298 0 -0.796025 -0.00594387 0.000139269 0.00976092
1.92209 0 -0.770545 -0.00679815 0.000172595 0.00939125
1.93979 0 -0.74695 -0.00747631 0.000160898 0.00876676
1.95617 0 -0.725098 -0.00795509 0.000110062 0.00809462
1.97135 0 -0.704863 -0.00815055 1.72303e-05 0.00743388
1.98541 0 -0.686124 -0.00810503 -9.89222e-05 0.00706825
1.99842 0 -0.668771 -0.00796581 -0.00020616 0.00712838
2.01047 0 -0.652701 -0.0078459 -0.00028325 0.00749054
1.85143 0 -0.997798 -0.00368954 -8.74583e-05 0.00523549
1.87769 0 -0.957396 -0.0039914 -9.65008e-05 0.00666414
1.90201 0 -0.919982 -0.00457909 -6.73713e-05 0.0078254
1.92453 0 -0.885336 -0.00538061 -7.74785e-06 0.0084969
1.94538 0 -0.853252 -0.00628811 6.13392e-05 0.00868401
1.9647 0 -0.82354 -0.00713355 0.000125551 0.00843991
1.98258 0 -0.796025 -0.00784443 0.000165312 0.00785941
1.99915 0 -0.770545 -0.00831117 0.00015976 0.00704709
2.01448 0 -0.74695 -0.0084422 0.000109576 0.00615527
2.02868 0 -0.725099 -0.0082885 2.0623e-05 0.00537597
2.04184 0 -0.704863 -0.00795276 -7.82308e-05 0.00487863
2.05402 0 -0.686124 -0.00758758 -0.00016777 0.00475992
2.0653 0 -0.668771 -0.00731892 -0.000227485 0.00487345
2.07574 0 -0.652701 -0.00719762 -0.000259589 0.00503724
1.95121 0 -0.997798 -0.00484698 -6.29398e-05 0.00637396
1.97343 0 -0.957396 -0.00553858 -2.71641e-05 0.00714948
1.99401 0 -0.919983 -0.00633054 1.46994e-05 0.00745869
2.01307 0 -0.885336 -0.00712576 5.90031e-05 0.00738082
2.03071 0 -0.853252 -0.00781204 0.000106779 0.0069404
2.04705 0 -0.82354 -0.00827682 0.000137617 0.00622704
2.06218 0 -0.796025 -0.00846962 0.00013681 0.00536047
2.0762 0 -0.770546 -0.00833737 0.000100536 0.00444471
2.08918 0 -0.74695 -0.00791048 3.01352e-05 0.00364431
2.10119 0 -0.725098 -0.00731645 -5.35162e-05 0.00314463
2.11232 0 -0.704863 -0.00675068 -0.000119606 0.00294966
2.12263 0 -0.686124 -0.00636854 -0.000157339 0.00295165
2.13217 0 -0.668771 -0.00620685 -0.000155353 0.0029647
2.14101 0 -0.652701 -0.00619315 -0.000133015 0.0028317
2.05099 0 -0.997798 -0.0062796 -3.71592e-06 0.00642357
2.06917 0 -0.957396 -0.007015 3.74395e-05 0.0065047
2.08601 0 -0.919982 -0.00763324 6.74835e-05 0.00619017
2.1016 0 -0.885336 -0.00809077 8.91139e-05 0.00559369
2.11604 0 -0.853252 -0.00832092 0.000104152 0.0047991
2.12941 0 -0.82354 -0.00827001 0.000104837 0.00392067
2.14179 0 -0.796025 -0.00790985 7.63068e-05 0.00307418
2.15326 0 -0.770545 -0.00728 2.46932e-05 0.00235716
2.16387 0 -0.74695 -0.00654513 -3.17562e-05 0.00193663
2.1737 0 -0.725099 -0.00589156 -6.5926e-05 0.00174996
2.18281 0 -0.704863 -0.00549912 -8.03651e-05 0.00169088
2.19124 0 -0.686124 -0.00536066 -7.25197e-05 0.00160992
2.19905 0 -0.668771 -0.00535802 -5.04699e-05 0.00139273
2.20628 0 -0.652701 -0.0053844 -2.30371e-05 0.0010598
2.1355 0 -1.04142 -0.00668771 -7.03868e-07 0.00559244
2.15077 0 -0.997798 -0.00735559 4.06758e-05 0.0055864
2.16491 0 -0.957396 -0.0078498 6.58394e-05 0.00519188
2.17801 0 -0.919983 -0.00813764 7.62412e-05 0.00450863
2.19013 0 -0.885336 -0.00817942 7.71246e-05 0.00370272
2.20136 0 -0.853252 -0.00794597 6.87897e-05 0.00287351
2.21176 0 -0.82354 -0.00743379 4.68991e-05 0.0021039
2.22139 0 -0.796025 -0.00668902 1.38061e-05 0.0014817
2.23031 0 -0.770545 -0.00590972 -1.37935e-05 0.00111974
2.23857 0 -0.74695 -0.00528383 -2.33737e-05 0.000941853
2.24621 0 -0.725098 -0.00494998 -2.48835e-05 0.000844265
2.2533 0 -0.704863 -0.00484499 -1.7193e-05 0.000725353
2.25986 0 -0.686124 -0.00485798 -5.81965e-06 0.000543208
2.26593 0 -0.668771 -0.00486041 4.79642e-06 0.000272472
2.27155 0 -0.652701 -0.00474881 4.80429e-06 -5.08097e-05
2.22787 0 -1.08853 -0.00678494 -1.62234e-05 0.00471149
2.23964 0 -1.04142 -0.00742716 2.91832e-05 0.00472783
2.25055 0 -0.997798 -0.00785423 5.47002e-05 0.0043438
2.26065 0 -0.957396 -0.00803153 6.35973e-05 0.00367437
2.27 0 -0.919982 -0.00796319 6.08802e-05 0.0029111
2.27866 0 -0.885337 -0.00762862 4.84812e-05 0.002144
2.28669 0 -0.853252 -0.00704472 2.86808e-05 0.00145128
2.29411 0 -0.82354 -0.00627099 8.50298e-06 0.00088996
2.30099 0 -0.796025 -0.00551147 1.02282e-06 0.000553161
2.30736 0 -0.770545 -0.00495115 1.49742e-06 0.000373547
2.31326 0 -0.74695 -0.00469021 -2.20484e-06 0.00027699
2.31872 0 -0.725099 -0.00458847 -4.54886e-06 0.000161282
2.32378 0 -0.704863 -0.00456528 -3.49934e-06 1.774e-05
2.32847 0 -0.686125 -0.00452135 -8.00731e-07 -0.000175458
2.33281 0 -0.668771 -0.00437536 -6.86957e-06 -0.00040685
2.33682 0 -0.652701 -0.00410312 -1.15091e-05 -0.000622144
2.33672 0 -1.08853 -0.0073017 8.12778e-06 0.003918
2.34379 0 -1.04142 -0.00770257 3.58801e-05 0.00362377
2.35033 0 -0.997798 -0.00783574 4.89211e-05 0.00301708
2.35639 0 -0.957396 -0.00771394 4.75333e-05 0.00232325
2.362 0 -0.919983 -0.00735197 3.89978e-05 0.00163137
2.3672 0 -0.885336 -0.00675353 2.68849e-05 0.000997182
2.37201 0 -0.853252 -0.00602716 2.12733e-05 0.000496149
2.37647 0 -0.82354 -0.00531148 1.46648e-05 0.000153092
2.38059 0 -0.796025 -0.00479057 1.13686e-05 -4.47203e-05
2.38442 0 -0.770545 -0.00451782 2.05728e-06 -0.000154832
2.38796 0 -0.74695 -0.0044031 -1.01862e-05 -0.00024073
2.39123 0 -0.725098 -0.00432703 -1.64424e-05 -0.000342407
2.39427 0 -0.704863 -0.00422722 -2.02302e-05 -0.00046432
2.39708 0 -0.686124 -0.00405396 -1.86342e-05 -0.000605352
2.39968 0 -0.668771 -0.00376727 -2.25325e-05 -0.000742156
2.4021 0 -0.652701 -0.00338631 -3.69057e-05 -0.000796959
2.44557 0 -1.08853 -0.00744308 1.72226e-05 0.00299522
2.44793 0 -1.04142 -0.00758675 3.15822e-05 0.00250906
2.45011 0 -0.997798 -0.0074604 3.50877e-05 0.00188587
2.45213 0 -0.957396 -0.00710776 3.07242e-05 0.00126511
2.454 0 -0.919982 -0.00655967 3.02728e-05 0.000688857
2.45573 0 -0.885336 -0.00588948 3.3766e-05 0.000220335
2.45734 0 -0.853252 -0.00522756 3.03587e-05 -0.000135198
2.45882 0 -0.82354 -0.00471307 2.11197e-05 -0.000355255
2.4602 0 -0.796025 -0.00438161 3.51248e-06 -0.00048601
2.46147 0 -0.770545 -0.00420063 -1.67931e-05 -0.000561604
2.46265 0 -0.74695 -0.00406903 -3.16003e-05 -0.000617433
2.46374 0 -0.725099 -0.00391687 -3.47126e-05 -0.000680771
2.46476 0 -0.704863 -0.00370757 -3.22213e-05 -0.000753893
2.46569 0 -0.686124 -0.00340852 -3.9485e-05 -0.000803888
2.46656 0 -0.668771 -0.00304079 -5.35384e-05 -0.000790463
2.55697 0 -1.1394 -0.0070957 3.02698e-06 0.00245305
2.55443 0 -1.08853 -0.00730147 1.75504e-05 0.00210846
2.55207 0 -1.04142 -0.00721825 2.33887e-05 0.00158031
2.54989 0 -0.997798 -0.00690255 2.46249e-05 0.0010192
2.54787 0 -0.957396 -0.00641381 2.86475e-05 0.000496367
2.546 0 -0.919982 -0.00580282 3.79857e-05 4.69292e-05
2.54427 0 -0.885336 -0.00518756 3.81963e-05 -0.000317011
2.54266 0 -0.853252 -0.00467388 2.75491e-05 -0.000579038
2.54118 0 -0.82354 -0.00428363 5.84175e-06 -0.000755678
2.5398 0 -0.796025 -0.00399157 -1.68146e-05 -0.000847147
2.53853 0 -0.770545 -0.00376846 -3.41905e-05 -0.00087394
2.53735 0 -0.74695 -0.00354053 -4.25594e-05 -0.000883456
2.53626 0 -0.725099 -0.00327978 -5.21428e-05 -0.000883931
2.53524 0 -0.704863 -0.00297937 -6.03093e-05 -0.000853543
2.53431 0 -0.686124 -0.00261989 -7.19347e-05 -0.000791701
2.53344 0 -0.668771 -0.00221295 -8.97315e-05 -0.000684421
2.67091 0 -1.1394 -0.0069695 7.75948e-06 0.00178433
2.66328 0 -1.08853 -0.00697748 1.38292e-05 0.00138152
2.65621 0 -1.04142 -0.00671735 1.73957e-05 0.00088178
2.64967 0 -0.997798 -0.00626839 2.29539e-05 0.000389442
2.64361 0 -0.957396 -0.00570116 3.36262e-05 -5.3624e-05
2.638 0 -0.919983 -0.00512684 3.59572e-05 -0.000412991
2.6328 0 -0.885336 -0.00462373 2.79413e-05 -0.000686916
2.62799 0 -0.853252 -0.0041985 1.48116e-05 -0.000880987
2.62353 0 -0.82354 -0.00381597 -5.37015e-06 -0.00100102
2.61941 0 -0.796025 -0.00346997 -3.21674e-05 -0.00104213
2.61558 0 -0.770545 -0.00313989 -5.33894e-05 -0.00103075
2.61204 0 -0.74695 -0.00279929 -6.48963e-05 -0.00098828
2.60877 0 -0.725098 -0.00245546 -7.2876e-05 -0.00092167
2.60573 0 -0.704863 -0.00209582 -8.94547e-05 -0.000825933
2.60292 0 -0.686124 -0.00171498 -0.000105727 -0.000687223
2.60032 0 -0.668771 -0.00132007 -0.000100548 -0.000516526
2.78485 0 -1.1394 -0.00672617 7.68286e-06 0.00123079
2.77213 0 -1.08853 -0.00657493 1.24652e-05 0.000832834
2.76036 0 -1.04142 -0.00619006 2.02629e-05 0.000395192
2.74945 0 -0.997798 -0.00565944 3.42553e-05 -1.85333e-06
2.73935 0 -0.957396 -0.00509909 3.77087e-05 -0.000331627
2.73 0 -0.919982 -0.00456444 2.93519e-05 -0.000608294
2.72134 0 -0.885337 -0.00404688 1.59599e-05 -0.00082906
2.71331 0 -0.853252 -0.00357286 -3.60503e-06 -0.000960671
2.70589 0 -0.82354 -0.00312935 -3.00302e-05 -0.00102524
2.69901 0 -0.796025 -0.00269113 -5.48274e-05 -0.00104008
2.69264 0 -0.770545 -0.00224033 -7.57068e-05 -0.00101612
2.68674 0 -0.74695 -0.00178869 -9.5871e-05 -0.000954208
2.68128 0 -0.725099 -0.00137057 -0.000110288 -0.000854022
2.67622 0 -0.704863 -0.000971312 -0.000110445 -0.000734986
2.67153 0 -0.686125 -0.000581596 -9.97815e-05 -0.000621487
2.93878 0 -1.25366 -0.00609915 -1.08175e-05 0.00115381
2.91802 0 -1.19434 -0.00644769 1.67305e-06 0.00107365
2.89879 0 -1.1394 -0.00645899 5.0929e-06 0.000823989
2.88099 0 -1.08853 -0.00620064 1.40056e-05 0.000497055
2.8645 0 -1.04142 -0.00573196 2.64478e-05 0.000167447
2.84923 0 -0.997798 -0.00517459 3.22543e-05 -0.000126265
2.83509 0 -0.957396 -0.00461277 2.55355e-05 -0.000372424
2.82199 0 -0.919983 -0.00404144 1.19978e-05 -0.00057535
2.80987 0 -0.885336 -0.00346258 -6.7811e-06 -0.000715533
2.79864 0 -0.853252 -0.00288199 -3.31588e-05 -0.000799116
2.78824 0 -0.82354 -0.0022906 -5.83436e-05 -0.000828383
2.77861 0 -0.796025 -0.00165784 -8.27549e-05 -0.00080981
2.76969 0 -0.770545 -0.00101862 -0.000104505 -0.000770907
2.76143 0 -0.74695 -0.000424378 -0.000114134 -0.0007298
2.75379 0 -0.725098 0.000103245 -0.000106631 -0.00073189
2.7467 0 -0.704863 0.000522503 -8.18434e-05 -0.000793278
2.74014 0 -0.686124 0.000914552 -6.24544e-05 -0.000913711
3.1241 0 -1.38688 -0.00418117 -5.47721e-05 0.000240219
3.09297 0 -1.31771 -0.0053422 -3.19922e-05 0.000690469
3.06415 0 -1.25366 -0.00605585 -6.6813e-06 0.000816887
3.03745 0 -1.19434 -0.00629395 3.72182e-07 0.000729234
3.01273 0 -1.1394 -0.00623358 5.98781e-06 0.00053937
2.98984 0 -1.08853 -0.00589861 1.81798e-05 0.000301788
2.96864 0 -1.04142 -0.00534228 2.32839e-05 7.67978e-05
2.94901 0 -0.997798 -0.00474692 1.96943e-05 -9.00919e-05
2.93083 0 -0.957396 -0.00415781 7.01918e-06 -0.000219871
2.91399 0 -0.919982 -0.00349885 -1.46526e-05 -0.000315064
2.8984 0 -0.885336 -0.00277107 -4.12989e-05 -0.000363387
2.88396 0 -0.853252 -0.00198059 -6.99504e-05 -0.000346719
2.87059 0 -0.82354 -0.0010952 -9.68049e-05 -0.000241383
2.85821 0 -0.796025 -8.99548e-05 -0.000112353 -0.000130521
2.84674 0 -0.770545 0.000751238 -9.43795e-05 -0.000207984
2.83613 0 -0.74695 0.00144399 -5.8802e-05 -0.000440992
2.8263 0 -0.725099 0.00199235 -3.06844e-05 -0.00065456
2.81719 0 -0.704863 0.00236811 -1.87599e-05 -0.000840797
2.80876 0 -0.686124 0.00261779 -2.12158e-05 -0.00103334
3.26279 0 -1.38688 -0.00415429 -4.98573e-05 4.46976e-05
3.22474 0 -1.31772 -0.00531795 -2.85748e-05 0.000409458
3.18951 0 -1.25366 -0.00598346 -4.64404e-06 0.000497051
3.15688 0 -1.19434 -0.00618211 1.96211e-06 0.000439335
3.12667 0 -1.1394 -0.00612875 1.14577e-05 0.00032577
3.09869 0 -1.08853 -0.00581791 2.03299e-05 0.000194991
3.07278 0 -1.04142 -0.00531838 2.26754e-05 9.39191e-05
3.04879 0 -0.997798 -0.00470455 1.53376e-05 3.12488e-05
3.02657 0 -0.957396 -0.00398489 -9.06747e-06 2.91135e-05
3.00599 0 -0.919983 -0.003077 -4.61762e-05 0.000106535
2.98693 0 -0.885336 -0.00220374 -6.94712e-05 0.000236782
2.96929 0 -0.853252 -0.00120516 -8.37835e-05 0.000427186
2.95295 0 -0.82354 5.00195e-06 -7.46823e-05 0.00063362
2.93782 0 -0.796025 0.00104464 -3.9449e-05 0.000637708
2.9238 0 -0.770546 0.00171542 1.71342e-05 0.000395857
2.91082 0 -0.74695 0.00222213 6.68631e-05 5.79212e-05
2.89881 0 -0.725098 0.00255817 0.000107293 -0.000270653
2.88768 0 -0.704863 0.00280802 0.000122335 -0.000640878
2.87737 0 -0.686124 0.00297328 0.000116237 -0.00103598
3.40147 0 -1.38689 -0.00407397 -4.27548e-05 -0.000201585
3.35651 0 -1.31771 -0.00521405 -2.50718e-05 0.000119708
3.31487 0 -1.25366 -0.00590228 -1.36631e-06 0.000193804
3.27632 0 -1.19434 -0.00610325 3.77477e-06 0.000163566
3.24061 0 -1.1394 -0.0060619 1.1451e-05 0.000103213
3.20755 0 -1.08853 -0.00571853 1.30124e-05 4.52376e-05
3.17692 0 -1.04142 -0.00514482 5.39317e-06 6.13038e-05
3.14857 0 -0.997798 -0.00447154 -1.3751e-05 0.000116291
3.12231 0 -0.957396 -0.00369022 -4.51534e-05 0.000281196
3.09799 0 -0.919982 -0.00253353 -8.26622e-05 0.000615469
3.07547 0 -0.885336 -0.00126911 -8.08148e-05 0.00104104
3.05462 0 -0.853252 -0.000271373 -2.7505e-05 0.00131109
3.0353 0 -0.82354 0.00030093 4.99736e-05 0.00130594
3.01742 0 -0.796025 0.00069667 0.000102393 0.00120902
3.00085 0 -0.770545 0.00102549 0.000157454 0.0010104
2.98552 0 -0.74695 0.00136466 0.000215112 0.000538483
2.97132 0 -0.725099 0.00171474 0.000289475 -4.43236e-05
2.95816 0 -0.704863 0.00192292 0.000311495 -0.000636112
2.94598 0 -0.686124 0.00202922 0.000286998 -0.00122178
3.54016 0 -1.38688 -0.00394535 -3.47839e-05 -0.000467363
3.48828 0 -1.31771 -0.00505219 -2.18153e-05 -0.000193314
3.44024 0 -1.25366 -0.00582405 2.93116e-08 -0.000110449
3.39575 0 -1.19434 -0.00611163 7.19829e-06 -0.000109238
3.35455 0 -1.1394 -0.00614577 1.65119e-05 -0.000113465
3.3164 0 -1.08853 -0.00590811 2.28991e-05 -0.000108223
3.28107 0 -1.04142 -0.00547061 2.21694e-05 -0.000139066
3.24835 0 -0.997798 -0.00495155 -1.19461e-06 -0.000195032
3.21805 0 -0.957396 -0.00417179 -3.48187e-05 3.75086e-05
3.18999 0 -0.919983 -0.00292264 -5.62763e-05 0.000607741
3.164 0 -0.885337 -0.0020809 1.10756e-06 0.00121584
3.13994 0 -0.853252 -0.00162448 0.000131639 0.00145964
3.11765 0 -0.82354 -0.00112891 0.000237499 0.00146108
3.09702 0 -0.796025 -0.000683958 0.000303539 0.00122652
3.07791 0 -0.770545 -0.000434009 0.000341381 0.000771195
3.06021 0 -0.74695 -0.000278702 0.000369493 0.000150427
3.04383 0 -0.725098 -9.56482e-05 0.0003247 -0.000481842
3.02865 0 -0.704863 9.47323e-05 0.000256936 -0.000975989
3.01459 0 -0.686124 0.000243735 0.000197246 -0.00130008
3.67885 0 -1.38688 -0.00390435 -2.43936e-05 -0.000817671
3.62006 0 -1.31771 -0.00491537 -1.7781e-05 -0.000575183
3.56561 0 -1.25366 -0.00571514 -7.86747e-07 -0.000491957
3.51519 0 -1.19434 -0.00607724 1.0685e-05 -0.000500733
3.46849 0 -1.1394 -0.00614251 1.96168e-05 -0.000546441
3.42525 0 -1.08853 -0.00591924 2.014e-05 -0.000571796
3.38521 0 -1.04142 -0.00544746 6.49847e-06 -0.000518126
3.34813 0 -0.997798 -0.00472438 -2.42602e-05 -0.000460798
3.31379 0 -0.957396 -0.00370703 -5.73474e-05 -0.000254721
3.28199 0 -0.919982 -0.00244689 -6.41841e-05 0.000653328
3.25254 0 -0.885336 -0.00221716 2.50151e-05 0.00148748
3.22526 0 -0.853252 -0.00228047 0.000113049 0.00164808
3.20001 0 -0.82354 -0.0022325 0.000175992 0.00151953
3.17662 0 -0.796025 -0.00206008 0.00020181 0.00100065
3.15496 0 -0.770545 -0.00179651 0.000170399 0.00038007
3.13491 0 -0.74695 -0.00150153 0.000147377 -1.94713e-05
3.11634 0 -0.725099 -0.00115606 0.000125609 -8.83157e-05
3.09913 0 -0.704863 -0.000819032 9.85413e-05 -0.000129517
3.0832 0 -0.686124 -0.000523201 6.90405e-05 -0.000199915
3.75183 0 -1.31771 -0.00433592 -1.83309e-05 -0.000988948
3.69097 0 -1.25366 -0.0054404 2.28923e-06 -0.00091407
3.63462 0 -1.19434 -0.00623716 2.81947e-05 -0.000936122
3.58243 0 -1.1394 -0.00666699 5.37173e-05 -0.00102362
3.53411 0 -1.08853 -0.00682079 8.06505e-05 -0.00114784
3.48935 0 -1.04142 -0.00670786 9.63814e-05 -0.00130999
3.44791 0 -0.997798 -0.00625841 7.72132e-05 -0.00155533
3.40952 0 -0.957396 -0.00535456 4.69721e-05 -0.00139717
3.37398 0 -0.919983 -0.00437152 0.000114634 -0.000527267
3.34107 0 -0.885336 -0.00401648 0.000256927 0.000313666
3.31059 0 -0.853252 -0.00383158 0.000290141 0.000763257
3.28236 0 -0.82354 -0.00374547 0.000284314 0.000749209
3.25622 0 -0.796025 -0.00347555 0.000220976 0.000399185
3.23202 0 -0.770546 -0.00307664 0.000155212 0.000138124
3.2096 0 -0.74695 -0.00264325 0.000110327 5.78105e-05
3.18884 0 -0.725099 -0.00227713 7.92693e-05 0.000118149
3.16962 0 -0.704863 -0.00194834 7.24341e-05 0.000105039
3.15182 0 -0.686124 -0.00162279 6.95603e-05 0.000141381
1.89407 0 -0.63782 -0.00640094 3.20154e-05 0.0105922
1.90716 0 -0.624039 -0.00630166 -0.000110129 0.0106908
1.91929 0 -0.611277 -0.00569485 -0.000311256 0.0116446
1.93052 0 -0.599458 -0.0047656 -0.000389353 0.0130648
1.94091 0 -0.588514 -0.0039254 -0.000415383 0.0144628
1.95054 0 -0.578379 -0.00347449 -0.000284139 0.0158591
1.95946 0 -0.568993 -0.00347935 -3.2996e-05 0.0169646
1.96772 0 -0.560301 -0.00387502 0.000180699 0.0172138
1.97536 0 -0.552253 -0.00488819 0.000434734 0.0168135
1.95785 0 -0.63782 -0.00755426 -0.000243107 0.0099557
1.96957 0 -0.624039 -0.0074166 -0.000313822 0.0106492
1.98042 0 -0.611277 -0.00733067 -0.000329615 0.0113629
1.99046 0 -0.599458 -0.00745615 -0.000287047 0.0118305
1.99976 0 -0.588514 -0.00783983 -0.000226626 0.0119864
2.00838 0 -0.578379 -0.00840315 -0.000113141 0.0117318
2.01636 0 -0.568993 -0.00900553 -2.89636e-05 0.0111696
2.02374 0 -0.560301 -0.00954292 9.36218e-05 0.0102322
2.03058 0 -0.552252 -0.0100004 0.00024904 0.00898569
2.03692 0 -0.544799 -0.0102373 0.000368719 0.00743596
2.04279 0 -0.537896 -0.0101474 0.000401267 0.00574078
2.04822 0 -0.531504 -0.00976964 0.000333426 0.00421889
2.05325 0 -0.525585 -0.00939808 0.000282262 0.00299127
2.05791 0 -0.520103 -0.00877609 0.000225864 0.00184724
2.06223 0 -0.515026 -0.00758428 8.15616e-05 0.000883265
2.06622 0 -0.510325 -0.00557577 -9.53801e-05 0.0001951
2.06992 0 -0.505972 0.00111834 6.22806e-05 -0.000548756
2.07335 0 -0.501941 0.00526073 -3.28772e-05 -0.00214644
2.02163 0 -0.63782 -0.0078022 -0.000327941 0.00792086
2.03197 0 -0.624039 -0.00786325 -0.000339095 0.00818532
2.04154 0 -0.611276 -0.00802299 -0.000303491 0.00823002
2.05041 0 -0.599458 -0.00826484 -0.000221814 0.00779916
2.05861 0 -0.588514 -0.00852772 -0.00012473 0.0071451
2.06621 0 -0.578379 -0.00870927 -3.67248e-05 0.00619139
2.07325 0 -0.568993 -0.00873921 1.18449e-05 0.00497578
2.07977 0 -0.560301 -0.00863454 2.98592e-05 0.0037552
2.08581 0 -0.552252 -0.00839309 2.36662e-05 0.00267202
2.0914 0 -0.544799 -0.00794833 2.41999e-05 0.00171025
2.09657 0 -0.537896 -0.0072573 -3.23657e-05 0.000803803
2.10137 0 -0.531504 -0.00630221 -0.000167018 9.95705e-05
2.10581 0 -0.525585 -0.00525963 -0.000194651 -0.000287981
2.10992 0 -0.520103 -0.00375447 -0.000205632 -0.000720395
2.11373 0 -0.515026 -0.0016578 -0.000215686 -0.000830538
2.11726 0 -0.510325 0.000405314 -0.000248477 -0.000588523
2.12052 0 -0.505972 0.00165357 -0.000113968 -0.00033271
2.12355 0 -0.501941 0.00123221 -1.62498e-05 -0.000286649
2.08542 0 -0.63782 -0.00721979 -0.000260614 0.00510375
2.09438 0 -0.624039 -0.00729206 -0.000227008 0.00490318
2.10267 0 -0.611277 -0.00739208 -0.000160937 0.0043885
2.11035 0 -0.599458 -0.00742837 -0.000102591 0.0036018
2.11746 0 -0.588513 -0.00733212 -8.48104e-05 0.00272636
2.12405 0 -0.578379 -0.00706949 -0.000109082 0.00181039
2.13015 0 -0.568993 -0.0066843 -0.000149797 0.00109122
2.1358 0 -0.560301 -0.00621119 -0.000174685 0.000497813
2.14104 0 -0.552252 -0.00561987 -0.000195191 3.66734e-05
2.14588 0 -0.544799 -0.00483449 -0.000215112 -0.000357936
2.15037 0 -0.537896 -0.00381174 -0.000239744 -0.000523694
2.15452 0 -0.531504 -0.00269428 -0.000187725 -0.00059522
2.15837 0 -0.525585 -0.00157217 -0.000189812 -0.000659162
2.16193 0 -0.520103 -0.000628406 -0.000189228 -0.000503267
2.16523 0 -0.515026 0.000205141 -0.000136703 -0.000270755
2.16829 0 -0.510325 0.000772995 -6.39738e-05 -0.000132896
2.17112 0 -0.505972 0.000912869 -1.05e-05 -5.52453e-05
2.17374 0 -0.50194 0.00059177 -1.34002e-05 -9.58622e-05
2.1492 0 -0.63782 -0.00621703 -0.000102729 0.00247275
2.15678 0 -0.624039 -0.00622043 -7.37124e-05 0.00195918
2.1638 0 -0.611276 -0.00610876 -6.42111e-05 0.00132849
2.1703 0 -0.599458 -0.0058293 -8.88203e-05 0.000679326
2.17632 0 -0.588514 -0.00543011 -0.000130663 0.000177209
2.18189 0 -0.578379 -0.00493092 -0.000169476 -0.00020825
2.18705 0 -0.568993 -0.00431405 -0.000193788 -0.000439904
2.19183 0 -0.560301 -0.00363669 -0.000195501 -0.000518877
2.19626 0 -0.552253 -0.00293381 -0.000195811 -0.0004955
2.20036 0 -0.544799 -0.00225243 -0.000177661 -0.000436909
2.20416 0 -0.537896 -0.00156383 -0.000166651 -0.00034412
2.20767 0 -0.531504 -0.000981189 -0.000110622 -0.000211917
2.21093 0 -0.525585 -0.000421302 -5.85168e-05 -0.000100245
2.21394 0 -0.520103 5.01589e-05 -3.04403e-05 -4.60447e-05
2.21674 0 -0.515026 0.000386646 -6.53616e-06 -3.4847e-05
2.21932 0 -0.510325 0.000545306 7.37158e-06 -2.55563e-05
2.22171 0 -0.505972 0.000518881 1.33683e-05 -1.59816e-05
2.22393 0 -0.501941 0.000290979 4.07953e-06 -3.61737e-05
2.21298 0 -0.63782 -0.00531223 -9.70061e-06 0.000619731
2.21918 0 -0.624039 -0.00508932 -2.48867e-05 0.000161516
2.22492 0 -0.611277 -0.0047289 -5.95004e-05 -0.000234998
2.23024 0 -0.599458 -0.00428887 -8.99376e-05 -0.000486604
2.23517 0 -0.588514 -0.00374883 -0.000114293 -0.000614299
2.23973 0 -0.578379 -0.00317211 -0.000135315 -0.000602146
2.24395 0 -0.568993 -0.00263522 -0.000147767 -0.000501014
2.24786 0 -0.560301 -0.00215249 -0.000147241 -0.000363003
2.25148 0 -0.552252 -0.00167502 -0.000126678 -0.000214917
2.25484 0 -0.544799 -0.00118947 -9.71902e-05 -7.19271e-05
2.25795 0 -0.537896 -0.00076173 -6.64952e-05 3.82309e-05
2.26082 0 -0.531504 -0.000415084 -2.85685e-05 7.35687e-05
2.26349 0 -0.525585 -5.77616e-05 -5.32542e-06 4.81083e-05
2.26595 0 -0.520103 0.000247274 9.82927e-06 1.34336e-06
2.26824 0 -0.515026 0.000395661 6.31642e-06 -3.03322e-05
2.27036 0 -0.510325 0.000394948 1.18247e-06 -3.21471e-05
2.27231 0 -0.505972 0.000294411 -3.90162e-07 -1.51355e-05
2.27413 0 -0.501941 0.000125901 1.36454e-06 -7.11046e-06
2.27676 0 -0.63782 -0.00447507 -1.39817e-05 -0.000385912
2.28158 0 -0.624039 -0.00411074 -3.1258e-05 -0.00060736
2.28605 0 -0.611277 -0.00365129 -5.41203e-05 -0.000720295
2.29019 0 -0.599458 -0.00315488 -8.19433e-05 -0.000694914
2.29402 0 -0.588514 -0.00266995 -0.000100732 -0.000579799
2.29757 0 -0.578379 -0.00221162 -0.000110006 -0.000425504
2.30085 0 -0.568993 -0.00176974 -0.000111971 -0.000242869
2.30389 0 -0.560301 -0.00135918 -9.1321e-05 -6.90168e-05
2.30671 0 -0.552253 -0.00098344 -6.92972e-05 6.48926e-05
2.30932 0 -0.544799 -0.000667302 -3.68202e-05 0.000126758
2.31174 0 -0.537896 -0.000327558 -1.17868e-05 0.000118176
2.31397 0 -0.531504 4.98167e-05 2.86356e-06 5.10298e-05
2.31605 0 -0.525585 0.00035826 -3.54925e-06 -1.12416e-05
2.31796 0 -0.520103 0.000512227 -1.21666e-05 -4.18338e-05
2.31974 0 -0.515026 0.000518367 -1.85788e-05 -4.52556e-05
2.32139 0 -0.510325 0.000417642 -2.0016e-05 -3.24248e-05
2.32291 0 -0.505972 0.000250802 -1.71598e-05 -1.30279e-05
2.32432 0 -0.501941 7.70858e-05 -4.19078e-06 3.22586e-06
2.34055 0 -0.63782 -0.00371465 -2.72991e-05 -0.000767489
2.34399 0 -0.624039 -0.00327249 -5.02162e-05 -0.000780784
2.34718 0 -0.611276 -0.00282356 -7.23556e-05 -0.000706196
2.35014 0 -0.599458 -0.00237228 -9.0234e-05 -0.000576498
2.35287 0 -0.588514 -0.0019317 -0.000100763 -0.000394703
2.3554 0 -0.578379 -0.00151612 -9.23635e-05 -0.000204057
2.35775 0 -0.568993 -0.00113587 -7.56973e-05 -4.82148e-05
2.35993 0 -0.560301 -0.000810632 -5.34825e-05 5.50155e-05
2.36194 0 -0.552252 -0.00050501 -3.23522e-05 9.08006e-05
2.3638 0 -0.544799 -0.000149527 -2.22814e-05 6.71813e-05
2.36553 0 -0.537896 0.000244502 -1.63161e-05 1.28099e-05
2.36712 0 -0.531504 0.000553999 -1.85161e-05 -1.93677e-05
2.3686 0 -0.525585 0.000760343 -2.40749e-05 -2.19989e-05
2.36997 0 -0.520103 0.000872311 -2.66901e-05 -1.42218e-05
2.37124 0 -0.515026 0.00086094 -2.39971e-05 -8.78252e-06
2.37242 0 -0.510325 0.000710143 -2.25611e-05 -7.2434e-06
2.37351 0 -0.505972 0.000453331 -1.98576e-05 -3.39859e-06
2.37451 0 -0.50194 0.000160045 -9.38931e-06 9.6813e-07
2.40433 0 -0.63782 -0.00296867 -5.85604e-05 -0.00076689
2.40639 0 -0.624039 -0.00252948 -8.22035e-05 -0.000681443
2.40831 0 -0.611277 -0.00209409 -9.22942e-05 -0.000527381
2.41008 0 -0.599458 -0.00165528 -9.04854e-05 -0.00034534
2.41172 0 -0.588513 -0.00124861 -7.81825e-05 -0.000180049
2.41324 0 -0.578379 -0.000873008 -6.23689e-05 -5.46994e-05
2.41465 0 -0.568993 -0.000552458 -4.58992e-05 6.75067e-06
2.41596 0 -0.560301 -0.000244522 -3.8481e-05 7.23215e-06
2.41716 0 -0.552253 0.000141912 -3.10841e-05 -3.181e-05
2.41828 0 -0.544799 0.000522393 -3.10196e-05 -5.88265e-05
2.41932 0 -0.537896 0.000801743 -3.318e-05 -5.00965e-05
2.42027 0 -0.531504 0.00101199 -3.44412e-05 -1.97693e-05
2.42116 0 -0.525585 0.00118909 -3.2442e-05 1.23381e-05
2.42198 0 -0.520103 0.00130738 -2.69442e-05 3.17624e-05
2.42274 0 -0.515026 0.0013 -1.90016e-05 3.6845e-05
2.42345 0 -0.510325 0.00112258 -1.07058e-05 2.27837e-05
2.4241 0 -0.505972 0.000774667 -9.02927e-06 1.33439e-06
2.42471 0 -0.501941 0.00031073 -8.0579e-06 -5.96922e-06
2.46737 0 -0.652701 -0.00262546 -7.40226e-05 -0.000730531
2.46811 0 -0.63782 -0.00218555 -9.32207e-05 -0.000604818
2.4688 0 -0.624039 -0.00174893 -9.29635e-05 -0.000431433
2.46944 0 -0.611277 -0.00131198 -8.57543e-05 -0.000254922
2.47003 0 -0.599458 -0.000885508 -7.4014e-05 -0.000105878
2.47057 0 -0.588514 -0.000510402 -5.69152e-05 -2.28979e-05
2.47108 0 -0.578379 -0.000175689 -4.45563e-05 -1.43679e-05
2.47155 0 -0.568993 0.000201866 -3.13092e-05 -6.05732e-05
2.47198 0 -0.560301 0.000594687 -3.10824e-05 -0.00010725
2.47239 0 -0.552252 0.000895357 -3.51753e-05 -0.0001091
2.47276 0 -0.544799 0.00110426 -3.78571e-05 -7.19839e-05
2.4731 0 -0.537896 0.00127227 -3.59351e-05 -2.24902e-05
2.47342 0 -0.531504 0.00142729 -3.50217e-05 2.62903e-05
2.47372 0 -0.525585 0.0015859 -3.21147e-05 6.70926e-05
2.47399 0 -0.520103 0.00168387 -2.27254e-05 9.18638e-05
2.47425 0 -0.515026 0.0016877 -8.95226e-06 9.31479e-05
2.47448 0 -0.510325 0.00149921 3.67713e-06 6.11644e-05
2.4747 0 -0.505972 0.00107378 4.07024e-06 2.09823e-05
2.4749 0 -0.501941 0.000456951 -2.21215e-06 -1.07136e-06
2.53263 0 -0.652701 -0.00178427 -9.63638e-05 -0.000523261
2.53189 0 -0.63782 -0.00134614 -9.23561e-05 -0.000339113
2.5312 0 -0.624039 -0.000902543 -8.28962e-05 -0.000169836
2.53056 0 -0.611277 -0.000476178 -6.67269e-05 -5.39175e-05
2.52997 0 -0.599458 -9.24599e-05 -4.82117e-05 -1.60715e-05
2.52943 0 -0.588514 0.00029223 -2.99974e-05 -5.47768e-05
2.52892 0 -0.578379 0.000699142 -2.44046e-05 -0.000109857
2.52845 0 -0.568993 0.0010345 -2.94708e-05 -0.00013555
2.52802 0 -0.560301 0.00124854 -3.9838e-05 -0.000112006
2.52761 0 -0.552252 0.00137965 -4.22469e-05 -5.19083e-05
2.52724 0 -0.544799 0.00150188 -3.56704e-05 1.94281e-05
2.5269 0 -0.537896 0.00164396 -3.5298e-05 8.38421e-05
2.52658 0 -0.531504 0.0017778 -3.34684e-05 0.00014044
2.52628 0 -0.525585 0.00192631 -2.59058e-05 0.000179799
2.52601 0 -0.520103 0.00202253 -1.07836e-05 0.000189636
2.52575 0 -0.515026 0.00202934 7.76456e-06 0.000171578
2.52552 0 -0.510325 0.00184085 2.30543e-05 0.000114915
2.5253 0 -0.505972 0.00135563 1.85111e-05 4.39499e-05
2.5251 0 -0.501941 0.000592405 1.73719e-06 6.89854e-06
2.5979 0 -0.652701 -0.000909618 -8.63782e-05 -0.000350856
2.59567 0 -0.63782 -0.000490948 -7.45751e-05 -0.000221288
2.59361 0 -0.624039 -0.000108164 -5.51662e-05 -0.000152348
2.59169 0 -0.611277 0.000272455 -3.4618e-05 -0.000158703
2.58992 0 -0.599458 0.000668456 -2.84918e-05 -0.000192529
2.58828 0 -0.588513 0.00105075 -3.60046e-05 -0.00020519
2.58676 0 -0.578379 0.00132976 -4.99783e-05 -0.00016615
2.58535 0 -0.568993 0.00150778 -5.86011e-05 -7.54186e-05
2.58404 0 -0.560301 0.00163073 -5.21637e-05 2.88975e-05
2.58284 0 -0.552253 0.00173 -4.50128e-05 0.000113198
2.58172 0 -0.544799 0.00184077 -4.35932e-05 0.000187134
2.58068 0 -0.537896 0.00196246 -4.11286e-05 0.000248448
2.57973 0 -0.531504 0.00210127 -3.01375e-05 0.000293396
2.57884 0 -0.525585 0.00223462 -1.34075e-05 0.000313564
2.57802 0 -0.520103 0.00232734 4.76332e-06 0.000307639
2.57726 0 -0.515026 0.00234619 2.41743e-05 0.000279149
2.57655 0 -0.510325 0.00216466 4.43135e-05 0.000201193
2.5759 0 -0.505972 0.00165925 4.22546e-05 8.42408e-05
2.57529 0 -0.501941 0.00075027 1.33541e-05 2.30485e-05
2.66719 0 -0.668771 -0.000212294 -8.23384e-05 -0.000543874
2.66318 0 -0.652701 0.000133206 -6.42139e-05 -0.000508495
2.65945 0 -0.63782 0.000484646 -4.90478e-05 -0.000526256