# wallShearStress  POINT_DATA 24593
# x  y  z  wallShearStress_x  wallShearStress_y  wallShearStress_z
0 0 0 -0.00416597 -4.39542e-05 1.60273e-06
0 0.00775273 0 0 0 0
0 0.0161245 0 0 0 0
0 0.0251646 0 0 0 0
0 0.0349265 0 0 0 0
0 0.0454678 0 0 0 0
0 0.0568507 0 0 0 0
0 0.0691424 0 0 0 0
0.075776 0.00387637 6.93889e-18 0 0 0
0.075776 0.0119386 0 0 0 0
0.075776 0.0206445 0 0 0 0
0.075776 0.0300455 0 0 0 0
0 0.0824156 0 0 0 0
0.075776 0.0401972 0 0 0 0
0.075776 0.0511593 0 0 0 0
0 0.0967484 0 0 0 0
0.075776 0.0629965 0 0 0 0
0.075776 0.075779 0 0 0 0
0 0.112226 0 0 0 0
0.075776 0.089582 0 0 0 0
0 0.128939 0 0 0 0
0.075776 0.104487 0 0 0 0
0.075776 0.120582 0 0 0 0
0 0.146986 0 0 0 0
0.151552 0 0 -0.00921771 -0.000115147 6.94539e-06
0.151552 0.00775273 0 0 0 0
0.151552 0.0161245 0 0 0 0
0.151552 0.0251646 0 0 0 0
0.151552 0.0349265 0 0 0 0
0.075776 0.137962 -6.93889e-18 0 0 0
0.151552 0.0454678 0 0 0 0
0.151552 0.0568507 0 0 0 0
0 0.166474 0 0 0 0
0.151552 0.0691424 0 0 0 0
0.151552 0.0824156 0 0 0 0
0.075776 0.15673 0 0 0 0
0.151552 0.0967484 0 0 0 0
0 0.187518 0 0 0 0
0.151552 0.112226 0 0 0 0
0.075776 0.176996 0 0 0 0
0.151552 0.128939 0 0 0 0
0 0.210243 0 0 0 0
0.151552 0.146986 0 0 0 0
0.075776 0.198881 0 0 0 0
0.219992 0.00387637 0 0 0 0
0.219993 0.0119386 0 0 0 0
0.219992 0.0206446 0 0 0 0
0.219993 0.0300455 6.93889e-18 0 0 0
0.219992 0.0401971 6.93889e-18 0 0 0
0.151552 0.166474 0 0 0 0
0.219992 0.0511592 0 0 0 0
0.219992 0.0629965 0 0 0 0
0.219992 0.075779 0 0 0 0
0 0.234781 0 0 0 0
0.075776 0.222512 6.93889e-18 0 0 0
0.219992 0.089582 0 0 0 0
0.151552 0.187518 0 0 0 0
0.219992 0.104487 0 0 0 0
0.219992 0.120582 0 0 0 0
0.151552 0.210243 0 0 0 0
0.075776 0.24803 6.93889e-18 0 0 0
0.219992 0.137962 6.93889e-18 0 0 0
0 0.261279 0 0 0 0
0.219992 0.15673 0 0 0 0
0.151552 0.234781 0 0 0 0
0.219992 0.176996 0 0 0 0
0.075776 0.275586 6.93889e-18 0 0 0
0.288433 0 0 -0.00763473 -0.000115334 1.33654e-05
0.288433 0.00775273 0 0 0 0
0.288433 0.0161245 0 0 0 0
0.288433 0.0251646 0 0 0 0
0 0.289893 0 0 0 0
0.288433 0.0349265 0 0 0 0
0.288433 0.0454678 0 0 0 0
0.288433 0.0568507 0 0 0 0
0.219992 0.19888 0 0 0 0
0.288433 0.0691424 0 0 0 0
0.288433 0.0824156 0 0 0 0
0.151552 0.261279 0 0 0 0
0.288433 0.0967484 0 0 0 0
0.288433 0.112226 0 0 0 0
0.219992 0.222512 0 0 0 0
0.075776 0.305342 6.93889e-18 0 0 0
0.288433 0.128939 0 0 0 0
0 0.320791 0 0 0 0
0.288433 0.146986 0 0 0 0
0.151552 0.289893 0 0 0 0
0.219992 0.24803 -6.93889e-18 0 0 0
0.288433 0.166474 0 0 0 0
0.288433 0.187518 0 0 0 0
0.075776 0.337473 -6.93889e-18 0 0 0
0.350249 0.00387636 0 0 0 0
0.350249 0.0119386 0 0 0 0
0.350249 0.0206445 0 0 0 0
0.350249 0.0300455 0 0 0 0
0.350249 0.0401972 0 0 0 0
0.219992 0.275586 0 0 0 0
0.350249 0.0511592 6.93889e-18 0 0 0
0 0.354155 0 0 0 0
0.151552 0.320791 0 0 0 0
0.350249 0.0629966 0 0 0 0
0.288433 0.210243 0 0 0 0
0.350249 0.075779 0 0 0 0
0.350249 0.089582 0 0 0 0
0.350249 0.104487 6.93889e-18 0 0 0
0.350249 0.120582 6.93889e-18 0 0 0
0.288433 0.234781 0 0 0 0
0.219993 0.305342 0 0 0 0
0.350249 0.137962 0 0 0 0
0.075776 0.37217 0 0 0 0
0.350249 0.15673 0 0 0 0
0.151552 0.354155 0 0 0 0
0.288433 0.261279 0 0 0 0
3.73903e-17 0.390184 6.16298e-33 0 0 0
0.350249 0.176996 0 0 0 0
0.350249 0.198881 -6.93889e-18 0 0 0
0.219992 0.337473 0 0 0 0
0.288433 0.289893 0 0 0 0
0.412065 9.56361e-19 0 -0.00622284 -0.000100031 1.99392e-05
0.412065 0.00775273 0 0 0 0
0.412065 0.0161245 1.85035e-18 0 0 0
0.412065 0.0251646 1.85035e-18 0 0 0
0.412065 0.0349265 1.85035e-18 0 0 0
0.412065 0.0454678 1.85035e-18 0 0 0
0.350249 0.222512 0 0 0 0
0.412065 0.0568507 1.85035e-18 0 0 0
0.075776 0.409637 0 0 0 0
0.412065 0.0691424 0 0 0 0
0.151552 0.390184 -4.62596e-18 0 0 0
0.412065 0.0824156 0 0 0 0
0.412065 0.0967484 1.85035e-18 0 0 0
0.412065 0.112226 1.85035e-18 0 0 0
0 0.42909 0 0 0 0
0.350249 0.24803 0 0 0 0
0.288433 0.320791 0 0 0 0
0.412065 0.128939 0 0 0 0
0.219992 0.372169 6.93889e-18 0 0 0
0.412065 0.146986 1.85035e-18 0 0 0
0.412065 0.166474 1.85035e-18 0 0 0
0.350249 0.275586 0 0 0 0
0.412065 0.187518 1.85035e-18 0 0 0
0.151552 0.42909 0 0 0 0
0.075776 0.450095 0 0 0 0
0.288433 0.354155 0 0 0 0
0.412065 0.210243 0 0 0 0
0.350249 0.305342 0 0 0 0
0.219992 0.409637 -6.93889e-18 0 0 0
0.467897 0.00387636 6.93889e-18 0 0 0
0.467897 0.0119386 -6.93889e-18 0 0 0
0.467897 0.0206445 6.93889e-18 0 0 0
0.467897 0.0300455 0 0 0 0
0.467897 0.0401972 0 0 0 0
0.467897 0.0511592 0 0 0 0
0 0.471101 0 0 0 0
0.467897 0.0568507 0 0 0 0
0.467897 0.0629965 0 0 0 0
0.467897 0.075779 0 0 0 0
0.412065 0.234781 0 0 0 0
0.467897 0.089582 0 0 0 0
0.467897 0.104487 0 0 0 0
0.467897 0.120582 0 0 0 0
0.288433 0.390184 7.40152e-18 0 0 0
0.350249 0.337473 0 0 0 0
0.467897 0.137962 0 0 0 0
0.412065 0.261279 0 0 0 0
0.467897 0.15673 0 0 0 0
0.151552 0.471101 -4.62596e-18 0 0 0
0.075776 0.493784 0 0 0 0
0.467897 0.176996 0 0 0 0
0.219992 0.450095 0 0 0 0
0.412065 0.289893 0 0 0 0
0.467897 0.19888 0 0 0 0
0.350249 0.372169 -6.93889e-18 0 0 0
3.73903e-17 0.516467 -6.16298e-33 0 0 0
0.288433 0.42909 0 0 0 0
0.467897 0.222512 0 0 0 0
0.412065 0.320791 1.85035e-18 0 0 0
0.523729 0 0 -0.00495286 -8.62511e-05 2.60015e-05
0.523729 0.00775273 1.85035e-18 0 0 0
0.523729 0.0161245 0 0 0 0
0.523729 0.0251646 0 0 0 0
0.523729 0.0349265 0 0 0 0
0.523729 0.0454678 0 0 0 0
0.523729 0.0511593 0 0 0 0
0.523729 0.0568507 0 0 0 0
0.523729 0.0691424 0 0 0 0
0.467897 0.24803 0 0 0 0
0.523729 0.0824156 0 0 0 0
0.523729 0.0967484 0 0 0 0
0.523729 0.112226 0 0 0 0
0.151552 0.516467 0 0 0 0
0.350249 0.409637 0 0 0 0
0.523729 0.128939 0 0 0 0
0.219992 0.493784 -6.93889e-18 0 0 0
0.467897 0.275586 6.93889e-18 0 0 0
0.412065 0.354155 0 0 0 0
0.523729 0.146986 0 0 0 0
0.075776 0.540961 -6.93889e-18 0 0 0
0.523729 0.166474 0 0 0 0
0.288433 0.471101 0 0 0 0
0.523729 0.187518 0 0 0 0
0.467897 0.305342 0 0 0 0
0.523729 0.210243 0 0 0 0
0 0.565455 0 0 0 0
0.467897 0.320791 0 0 0 0
0.412065 0.390184 1.85035e-18 0 0 0
0.350249 0.450095 0 0 0 0
0.523729 0.234781 0 0 0 0
0.574157 0.00387636 0 0 0 0
0.574156 0.0119386 6.93889e-18 0 0 0
0.574156 0.0206445 0 0 0 0
0.574156 0.0300455 0 0 0 0
0.574156 0.0401971 -6.93889e-18 0 0 0
0.574156 0.0511592 0 0 0 0
0.467897 0.337473 0 0 0 0
0.574156 0.0629965 0 0 0 0
0.574157 0.075779 -6.93889e-18 0 0 0
0.574156 0.0824156 0 0 0 0
0.574156 0.089582 0 0 0 0
0.574156 0.104487 0 0 0 0
0.219993 0.540961 0 0 0 0
0.523729 0.261279 0 0 0 0
0.151552 0.565455 0 0 0 0
0.574156 0.120582 0 0 0 0
0.574156 0.137962 0 0 0 0
0.288433 0.516467 -6.16298e-33 0 0 0
0.412065 0.42909 1.85035e-18 0 0 0
0.574156 0.15673 6.93889e-18 0 0 0
0.075776 0.591904 -6.93889e-18 0 0 0
0.467897 0.372169 -6.93889e-18 0 0 0
0.523729 0.289893 0 0 0 0
0.574156 0.176996 0 0 0 0
0.350249 0.493784 0 0 0 0
0.574157 0.198881 0 0 0 0
0.523729 0.320791 0 0 0 0
0.574156 0.222512 0 0 0 0
3.73903e-17 0.618354 -6.16298e-33 0 0 0
0.467897 0.409637 6.93889e-18 0 0 0
0.624584 0 0 -0.00378578 -6.97949e-05 3.13355e-05
0.624584 0.00775273 0 0 0 0
0.624584 0.0161245 0 0 0 0
0.624584 0.0251646 0 0 0 0
0.574156 0.24803 6.93889e-18 0 0 0
0.624584 0.0349265 0 0 0 0
0.412065 0.471101 0 0 0 0
0.624584 0.0454678 0 0 0 0
0.624584 0.0568507 0 0 0 0
0.624584 0.0691424 0 0 0 0
0.624584 0.075779 0 0 0 0
0.624584 0.0824156 1.85035e-18 0 0 0
0.219992 0.591905 0 0 0 0
0.624584 0.0967484 0 0 0 0
0.523729 0.354155 0 0 0 0
0.412065 0.482442 -6.16298e-33 0 0 0
0.624584 0.112226 1.85035e-18 0 0 0
0.288433 0.565455 0 0 0 0
0.151552 0.618354 -6.16298e-33 0 0 0
0.574156 0.275586 0 0 0 0
0.624584 0.128939 0 0 0 0
0.624584 0.146986 0 0 0 0
0.350249 0.540961 6.93889e-18 0 0 0
0.624584 0.166474 0 0 0 0
0.467897 0.450095 0 0 0 0
0.574156 0.305342 -6.93889e-18 0 0 0
0.075776 0.646915 0 0 0 0
0.624584 0.187518 0 0 0 0
0.523729 0.390184 -4.62596e-18 0 0 0
0.624584 0.210243 0 0 0 0
0.412065 0.516467 1.2326e-32 0 0 0
0.574156 0.337473 -6.93889e-18 0 0 0
0.624584 0.234781 0 0 0 0
0.67013 0.00387637 0 0 0 0
0.67013 0.0119386 -6.93889e-18 0 0 0
0.67013 0.0206445 -6.93889e-18 0 0 0
0.67013 0.0300455 0 0 0 0
0.67013 0.0401972 0 0 0 0
0.67013 0.0511593 6.93889e-18 0 0 0
0.67013 0.0629966 0 0 0 0
0.67013 0.075779 -6.93889e-18 0 0 0
0.67013 0.0824156 0 0 0 0
0 0.675477 0 0 0 0
0.67013 0.089582 0 0 0 0
0.624584 0.261279 0 0 0 0
0.523729 0.42909 0 0 0 0
0.67013 0.104487 -6.93889e-18 0 0 0
0.467897 0.493784 6.93889e-18 0 0 0
0.67013 0.120582 0 0 0 0
0.288433 0.618354 0 0 0 0
0.219993 0.646915 -6.93889e-18 0 0 0
0.67013 0.137962 0 0 0 0
0.574156 0.372169 6.93889e-18 0 0 0
0.350249 0.591905 0 0 0 0
0.67013 0.15673 6.93889e-18 0 0 0
0.624584 0.289893 0 0 0 0
0.151552 0.675477 0 0 0 0
0.67013 0.176996 0 0 0 0
0.685312 0.112226 -7.70372e-34 0 0 0
0.67013 0.19888 -6.93889e-18 0 0 0
0.412065 0.565455 0 0 0 0
0.624584 0.320791 0 0 0 0
0.523729 0.471101 0 0 0 0
0.574156 0.409637 6.93889e-18 0 0 0
0.67013 0.222512 -6.93889e-18 0 0 0
0.075776 0.706318 0 0 0 0
0.67013 0.24803 0 0 0 0
0.467897 0.540961 0 0 0 0
0.715676 4.78181e-19 0 -0.00277663 -5.11845e-05 3.6392e-05
0.715676 0.00775273 0 0 0 0
0.715676 0.0161245 0 0 0 0
0.715676 0.0251646 0 0 0 0
0.715676 0.0349265 0 0 0 0
0.715676 0.0454678 0 0 0 0
0.715676 0.0568507 0 0 0 0
0.624584 0.354155 0 0 0 0
0.715676 0.0691424 0 0 0 0
0.715676 0.0824156 0 0 0 0
0.715676 0.0967484 0 0 0 0
0.715676 0.112226 0 0 0 0
0.67013 0.275586 0 0 0 0
0.715676 0.128939 0 0 0 0
0.574156 0.450095 0 0 0 0
0.715676 0.146986 0 0 0 0
0.288433 0.675477 0 0 0 0
0.715676 0.166474 0 0 0 0
0.523729 0.516467 -6.16298e-33 0 0 0
0.350249 0.646916 0 0 0 0
0.67013 0.305342 0 0 0 0
0.624584 0.390184 -4.62596e-18 0 0 0
0 0.73716 0 0 0 0
0.219992 0.706318 0 0 0 0
0.715676 0.187518 0 0 0 0
0.412065 0.618354 1.85035e-18 0 0 0
0.743101 0.0251646 -7.70372e-34 0 0 0
0.715676 0.210243 0 0 0 0
0.67013 0.337473 6.93889e-18 0 0 0
0.151552 0.73716 -6.16298e-33 0 0 0
0.715676 0.234781 0 0 0 0
0.467897 0.591904 6.93889e-18 0 0 0
0.756814 0.00387637 6.93889e-18 0 0 0
0.756814 0.0119386 0 0 0 0
0.756814 0.0206446 -6.93889e-18 0 0 0
0.574156 0.493784 0 0 0 0
0.756814 0.0300455 0 0 0 0
0.624584 0.42909 0 0 0 0
0.756813 0.0401972 6.93889e-18 0 0 0
0.756814 0.0511593 -6.93889e-18 0 0 0
0.756814 0.0629965 6.93889e-18 0 0 0
0.756814 0.075779 -6.93889e-18 0 0 0
0.715676 0.261279 0 0 0 0
0.756814 0.089582 -6.93889e-18 0 0 0
0.756814 0.104487 -6.93889e-18 0 0 0
0.449286 0.618354 3.08149e-33 0 0 0
0.756814 0.120582 -6.93889e-18 0 0 0
0.67013 0.37217 6.93889e-18 0 0 0
0.756813 0.137962 0 0 0 0
0.523729 0.565455 0 0 0 0
0.715676 0.289893 0 0 0 0
0.770526 0.0568507 7.70372e-34 0 0 0
0.756814 0.15673 0 0 0 0
0.075776 0.770464 0 0 0 0
0.756814 0.176996 -6.93889e-18 0 0 0
0.624584 0.471101 0 0 0 0
0.756814 0.198881 -6.93889e-18 0 0 0
0.715676 0.320791 0 0 0 0
0.67013 0.409637 0 0 0 0
0.350249 0.706318 0 0 0 0
0.756813 0.222512 0 0 0 0
0.574156 0.540961 0 0 0 0
0.412065 0.675477 1.85035e-18 0 0 0
0.288433 0.73716 0 0 0 0
0.756814 0.24803 -6.93889e-18 0 0 0
0.797951 9.56361e-19 0 -0.00198236 -3.70116e-05 4.19756e-05
0.797951 0.00775273 0 0 0 0
0.797951 0.0161245 0 0 0 0
0.797951 0.0206445 0 0 0 0
0.797951 0.0251646 0 0 0 0
0.467897 0.646915 -6.93889e-18 0 0 0
0.715676 0.354155 0 0 0 0
0.797951 0.0300455 0 0 0 0
0.797951 0.0349265 0 0 0 0
0.797951 0.0454678 0 0 0 0
0.797951 0.0530564 7.70372e-34 0 0 0
0.797951 0.0568507 0 0 0 0
0.797951 0.0609479 7.70372e-34 0 0 0
0.797951 0.0691424 0 0 0 0
0.219992 0.770464 -6.93889e-18 0 0 0
0.797951 0.0824156 0 0 0 0
0.715676 0.363162 1.54074e-33 0 0 0
0 0.803768 0 0 0 0
0.797951 0.0967484 0 0 0 0
0.756814 0.275586 0 0 0 0
0.797951 0.112226 0 0 0 0
0.67013 0.450095 -6.93889e-18 0 0 0
0.797951 0.128939 0 0 0 0
0.523729 0.618354 -6.16298e-33 0 0 0
0.624584 0.516467 -6.16298e-33 0 0 0
0.797951 0.146986 0 0 0 0
0.715676 0.390184 0 0 0 0
0.797951 0.166474 0 0 0 0
0.756814 0.305342 6.93889e-18 0 0 0
0.151552 0.803768 0 0 0 0
0.797951 0.187518 0 0 0 0
0.574156 0.591904 0 0 0 0
0.822721 0.0568507 7.70372e-34 0 0 0
0.797951 0.210243 0 0 0 0
0.756814 0.337473 0 0 0 0
0.715676 0.419364 1.54074e-33 0 0 0
0.797951 0.234781 0 0 0 0
0.67013 0.493784 -6.93889e-18 0 0 0
0.822721 0.128939 -7.70372e-34 0 0 0
0.715676 0.42909 0 0 0 0
0.835106 0.00387637 -6.93889e-18 0 0 0
0.835106 0.0119386 6.93889e-18 0 0 0
0.835106 0.0206445 6.93889e-18 0 0 0
0.835106 0.0300455 -6.93889e-18 0 0 0
0.835106 0.0401972 0 0 0 0
0.835106 0.0511593 0 0 0 0
0.835106 0.0629965 0 0 0 0
0.835106 0.075779 -6.93889e-18 0 0 0
0.797951 0.261279 0 0 0 0
0.835106 0.089582 0 0 0 0
0.835106 0.104487 0 0 0 0
0.624584 0.565455 0 0 0 0
0.075776 0.839731 0 0 0 0
0.756813 0.372169 -6.93889e-18 0 0 0
0.835106 0.120582 0 0 0 0
0.412065 0.73716 1.85035e-18 0 0 0
0.797951 0.280355 7.70372e-34 0 0 0
0.350249 0.770464 0 0 0 0
0.835106 0.137962 0 0 0 0
0.467897 0.706318 0 0 0 0
0.847492 0.0251646 -7.70372e-34 0 0 0
0.797951 0.289893 0 0 0 0
0.835106 0.15673 0 0 0 0
0.797951 0.300192 7.70372e-34 0 0 0
0.835106 0.176996 -6.93889e-18 0 0 0
0.288433 0.803768 0 0 0 0
0.523729 0.675477 0 0 0 0
0.715676 0.471101 0 0 0 0
0.835106 0.19888 0 0 0 0
0.797951 0.320791 0 0 0 0
0.756814 0.409637 0 0 0 0
0.67013 0.540961 6.93889e-18 0 0 0
0.835106 0.222512 0 0 0 0
0.574156 0.646915 0 0 0 0
0.219992 0.839732 0 0 0 0
0.835106 0.24803 6.93889e-18 0 0 0
0.872262 9.56361e-19 0 -0.00132238 -2.9445e-05 4.78635e-05
0.872262 0.00775273 0 0 0 0
0.872262 0.0161245 0 0 0 0
0.872262 0.0251646 0 0 0 0
0.872262 0.0349265 0 0 0 0
0.797951 0.354155 0 0 0 0
0.467897 0.73716 0 0 0 0
0.872262 0.0454678 0 0 0 0
0.872262 0.0568507 0 0 0 0
0.872262 0.0691424 0 0 0 0
0 0.875695 0 0 0 0
0.872262 0.0824156 0 0 0 0
0.797951 0.363162 -1.54074e-33 0 0 0
0.872262 0.0967484 0 0 0 0
0.624584 0.618354 -6.16298e-33 0 0 0
0.835106 0.275586 0 0 0 0
0.872262 0.112226 0 0 0 0
0.756814 0.450096 0 0 0 0
0.872262 0.120583 0 0 0 0
0.872262 0.128939 0 0 0 0
0.715676 0.516467 6.16298e-33 0 0 0
0.872262 0.137962 0 0 0 0
0.835106 0.289893 0 0 0 0
0.872262 0.146986 0 0 0 0
0.872262 0.166474 0 0 0 0
0.797951 0.390184 -1.2326e-32 0 0 0
0.151552 0.875695 0 0 0 0
0.835106 0.305342 0 0 0 0
0.872262 0.187518 0 0 0 0
0.67013 0.591905 0 0 0 0
0.872262 0.210243 0 0 0 0
0.835106 0.337473 6.93889e-18 0 0 0
0.467897 0.770464 0 0 0 0
0.797951 0.419364 -1.54074e-33 0 0 0
0.412065 0.803768 1.85035e-18 0 0 0
0.872262 0.234781 0 0 0 0
0.756814 0.493784 0 0 0 0
0.523729 0.73716 0 0 0 0
0.90582 0.00387636 0 0 0 0
0.90582 0.0119386 0 0 0 0
0.797951 0.42909 0 0 0 0
0.90582 0.0206446 0 0 0 0
0.90582 0.0300455 6.93889e-18 0 0 0
0.90582 0.0401971 6.93889e-18 0 0 0
0.905821 0.0511593 0 0 0 0
0.90582 0.0629966 -6.93889e-18 0 0 0
0.905821 0.075779 0 0 0 0
0.350249 0.839732 0 0 0 0
0.90582 0.089582 0 0 0 0
0.574156 0.706318 0 0 0 0
0.872262 0.261279 0 0 0 0
0.90582 0.104487 -6.93889e-18 0 0 0
0.715676 0.565455 0 0 0 0
0.90582 0.120582 6.93889e-18 0 0 0
0.835106 0.372169 0 0 0 0
0.90582 0.137962 -6.93889e-18 0 0 0
0.075776 0.914529 6.93889e-18 0 0 0
0.872262 0.289893 0 0 0 0
0.90582 0.15673 6.93889e-18 0 0 0
0.624584 0.675477 0 0 0 0
0.288433 0.875695 0 0 0 0
0.90582 0.176996 -6.93889e-18 0 0 0
0.797951 0.471101 0 0 0 0
0.90582 0.198881 0 0 0 0
0.872262 0.320791 0 0 0 0
0.835106 0.409637 6.93889e-18 0 0 0
0.756813 0.540961 -6.93889e-18 0 0 0
0.67013 0.646915 0 0 0 0
0.931922 0.00775273 -1.92593e-33 0 0 0
0.931922 0.0161245 -1.92593e-33 0 0 0
0.905821 0.222512 6.93889e-18 0 0 0
0.931922 0.112226 -1.92593e-33 0 0 0
0.90582 0.24803 -6.93889e-18 0 0 0
0.939379 0 0 -0.000785075 -2.54468e-05 5.42079e-05
0.939379 0.00775273 2.31296e-18 0 0 0
0.939379 0.0161245 2.31296e-18 0 0 0
0.939379 0.0251646 0 0 0 0
0.939379 0.0349265 0 0 0 0
0.939379 0.0454678 0 0 0 0
0.219992 0.914529 0 0 0 0
0.939379 0.0568507 0 0 0 0
0.872262 0.354155 0 0 0 0
0.939379 0.0691424 0 0 0 0
0.939379 0.0824156 0 0 0 0
0.939379 0.0967484 0 0 0 0
0.715676 0.618354 0 0 0 0
0.939379 0.112226 2.31296e-18 0 0 0
0.90582 0.275586 0 0 0 0
0.939379 0.128939 0 0 0 0
0.872262 0.372169 0 0 0 0
0.835106 0.450095 6.93889e-18 0 0 0
0.797951 0.516467 0 0 0 0
0.939379 0.146986 0 0 0 0
0 0.953363 0 0 0 0
0.939379 0.166474 0 0 0 0
0.872262 0.390184 0 0 0 0
0.905821 0.305342 0 0 0 0
0.939379 0.187518 0 0 0 0
0.523729 0.803768 0 0 0 0
0.756814 0.591905 6.93889e-18 0 0 0
0.574156 0.770464 6.93889e-18 0 0 0
0.467897 0.839732 0 0 0 0
0.925956 0.261279 7.70372e-34 0 0 0
0.939379 0.210243 0 0 0 0
0.872262 0.409637 0 0 0 0
0.151552 0.953363 0 0 0 0
0.624584 0.73716 0 0 0 0
0.90582 0.337473 -6.93889e-18 0 0 0
0.412065 0.875695 1.85035e-18 0 0 0
0.939379 0.234781 0 0 0 0
0.715676 0.654056 -3.08149e-33 0 0 0
0.969689 0.00387637 -6.93889e-18 0 0 0
0.969689 0.0119386 6.93889e-18 0 0 0
0.96969 0.0206445 6.93889e-18 0 0 0
0.969689 0.0300456 0 0 0 0
0.835106 0.493784 6.93889e-18 0 0 0
0.969689 0.0401972 0 0 0 0
0.969689 0.0511592 6.93889e-18 0 0 0
0.969689 0.0629965 0 0 0 0
0.872262 0.42909 0 0 0 0
0.969689 0.075779 0 0 0 0
0.67013 0.706319 0 0 0 0
0.96969 0.089582 6.93889e-18 0 0 0
0.939379 0.261279 2.31296e-18 0 0 0
0.969689 0.104487 0 0 0 0
0.969689 0.120582 0 0 0 0
0.797951 0.565455 0 0 0 0
0.90582 0.372169 -6.93889e-18 0 0 0
0.350249 0.914529 0 0 0 0
0.96969 0.137962 0 0 0 0
0.969689 0.15673 0 0 0 0
0.939379 0.289893 0 0 0 0
0.715676 0.675477 0 0 0 0
0.969689 0.176996 -6.93889e-18 0 0 0
0.969689 0.198881 0 0 0 0
0.872262 0.471101 0 0 0 0
0.939379 0.320791 0 0 0 0
0.90582 0.409637 0 0 0 0
0.96969 0.222512 0 0 0 0
0.835106 0.540961 -6.93889e-18 0 0 0
0.756813 0.646915 0 0 0 0
0.288433 0.953363 0 0 0 0
0.075776 0.995296 0 0 0 0
1 0 0 -0.00024738 -3.1711e-05 6.00118e-05
1 0.00775273 0 0 0 0
1 0.0161245 0 0 0 0
1 0.0251646 0 0 0 0
1 0.0349265 0 0 0 0
0.969689 0.24803 0 0 0 0
1 0.0454678 0 0 0 0
1 0.0568507 0 0 0 0
1 0.0691424 0 0 0 0
1 0.0824156 0 0 0 0
0.939379 0.354155 0 0 0 0
1 0.0967484 0 0 0 0
1 0.112226 0 0 0 0
0.969689 0.275586 -6.93889e-18 0 0 0
1 0.128939 0 0 0 0
0.797951 0.618354 0 0 0 0
1 0.146986 0 0 0 0
0.90582 0.450095 0 0 0 0
0.872262 0.516467 6.16298e-33 0 0 0
1 0.166474 0 0 0 0
0.715676 0.721739 1.54074e-33 0 0 0
0.969689 0.305342 0 0 0 0
0.939379 0.390184 -4.62596e-18 0 0 0
0.574156 0.839731 0 0 0 0
1 0.187518 0 0 0 0
0.624584 0.803768 0 0 0 0
0.219993 0.995296 0 0 0 0
0.523729 0.875695 0 0 0 0
0.67013 0.770464 -6.93889e-18 0 0 0
1 0.210243 0 0 0 0
0.835106 0.591905 0 0 0 0
0.969689 0.337473 6.93889e-18 0 0 0
1 0.234781 0 0 0 0
0.797951 0.646915 0 0 0 0
0.467897 0.914529 0 0 0 0
0.715676 0.73716 0 0 0 0
0.90582 0.493784 -6.93889e-18 0 0 0
0.939379 0.42909 0 0 0 0
1 0.261279 0 0 0 0
0.756814 0.706318 0 0 0 0
0 1.03723 0 0 0 0
1.03817 0.00380239 6.93889e-18 0 0 0
1.03817 0.0117108 0 0 0 0
1.03817 0.0202506 6.93889e-18 0 0 0
1.03817 0.0294722 0 0 0 0
0.412065 0.953363 1.85035e-18 0 0 0
0.969689 0.372169 -6.93889e-18 0 0 0
1.03817 0.0394301 0 0 0 0
1.03817 0.050183 0 0 0 0
0.872262 0.565455 0 0 0 0
1.03817 0.0617944 0 0 0 0
1.03817 0.0743329 0 0 0 0
1 0.289893 0 0 0 0
1.03817 0.0878725 0 0 0 0
1.03817 0.102493 6.93889e-18 0 0 0
1.03817 0.118281 0 0 0 0
0.797951 0.675477 0 0 0 0
1.03817 0.135329 0 0 0 0
0.151552 1.03723 0 0 0 0
1.03817 0.153739 0 0 0 0
1 0.320791 0 0 0 0
0.939379 0.471101 0 0 0 0
1.03817 0.173618 0 0 0 0
0.969689 0.409637 6.93889e-18 0 0 0
0.90582 0.540961 -6.93889e-18 0 0 0
0.350249 0.995296 6.93889e-18 0 0 0
1.03817 0.195085 -6.93889e-18 0 0 0
0.835106 0.646915 -6.93889e-18 0 0 0
1 0.354155 0 0 0 0
1.03817 0.218266 0 0 0 0
1.03817 0.243297 -6.93889e-18 0 0 0
0.969689 0.450095 0 0 0 0
0.872262 0.618354 0 0 0 0
0.939379 0.516467 0 0 0 0
0.797951 0.716599 -7.70372e-34 0 0 0
1.03817 0.270327 0 0 0 0
1 0.390184 0 0 0 0
0.67013 0.839732 6.93889e-18 0 0 0
0.624584 0.875695 0 0 0 0
0.715676 0.803768 0 0 0 0
0.288433 1.03723 0 0 0 0
1.07753 0 0 0.000418557 -2.68486e-05 6.85805e-05
1.07753 0.00745221 0 0 0 0
1.07753 0.0154994 0 0 0 0
1.07753 0.0241891 0 0 0 0
1.07753 0.0335726 0 0 0 0
1.07753 0.0437053 0 0 0 0
1.07753 0.0546469 0 0 0 0
1.07753 0.0664622 0 0 0 0
0.574156 0.914529 0 0 0 0
0.756814 0.770464 0 0 0 0
1.07753 0.0792208 0 0 0 0
1.03817 0.299515 0 0 0 0
1.07753 0.0929981 0 0 0 0
0.90582 0.591904 0 0 0 0
1.07753 0.107875 0 0 0 0
1.07753 0.12394 0 0 0 0
0.075776 1.08251 0 0 0 0
0.872262 0.646915 0 0 0 0
0.797951 0.73716 0 0 0 0
1.07753 0.141288 0 0 0 0
0.523729 0.953363 0 0 0 0
1 0.42909 0 0 0 0
0.969689 0.493784 0 0 0 0
1.07753 0.160021 0 0 0 0
1.03817 0.331033 -6.93889e-18 0 0 0
0.715676 0.82175 1.54074e-33 0 0 0
1.07753 0.180249 0 0 0 0
0.835106 0.706319 6.93889e-18 0 0 0
1.07753 0.202093 0 0 0 0
0.939379 0.565455 0 0 0 0
0.467897 0.995296 6.93889e-18 0 0 0
1.03817 0.365068 -6.93889e-18 0 0 0
1.07753 0.22568 0 0 0 0
0.872262 0.675477 0 0 0 0
0.219992 1.08252 0 0 0 0
1 0.471101 0 0 0 0
1.07753 0.251151 0 0 0 0
0.969689 0.540961 -6.93889e-18 0 0 0
1.11289 0.00365757 0 0 0 0
1.11289 0.0112647 -6.93889e-18 0 0 0
1.07753 0.278655 0 0 0 0
1.11289 0.0194793 0 0 0 0
0.905821 0.646915 -6.93889e-18 0 0 0
1.03817 0.40182 0 0 0 0
1.11289 0.0283496 -6.93889e-18 0 0 0
1.11289 0.0379283 0 0 0 0
1.11289 0.0482716 0 0 0 0
1.11289 0.0594408 0 0 0 0
1.11289 0.0715017 0 0 0 0
0.412065 1.03723 1.85035e-18 0 0 0
1.11289 0.0845256 0 0 0 0
1.11289 0.0985894 0 0 0 0
1.11289 0.113776 6.93889e-18 0 0 0
1.11289 0.130175 0 0 0 0
1.07753 0.308356 0 0 0 0
0.872262 0.706319 0 0 0 0
1.11289 0.147884 -6.93889e-18 0 0 0
0.939379 0.618354 -6.16298e-33 0 0 0
1.11289 0.167006 -6.93889e-18 0 0 0
1 0.516467 0 0 0 0
0 1.1278 0 0 0 0
1.03817 0.441507 0 0 0 0
1.11289 0.187655 0 0 0 0
1.07753 0.340427 0 0 0 0
0.756814 0.839732 0 0 0 0
0.715676 0.875695 0 0 0 0
1.11289 0.209953 -6.93889e-18 0 0 0
0.797951 0.803768 0 0 0 0
0.67013 0.914529 0 0 0 0
0.969689 0.591904 0 0 0 0
0.835106 0.770464 0 0 0 0
1.11289 0.23403 0 0 0 0
0.350249 1.08251 0 0 0 0
0.151552 1.1278 0 0 0 0
0.624584 0.953363 0 0 0 0
1.07753 0.375059 0 0 0 0
0.872262 0.73716 0 0 0 0
1.11289 0.260031 0 0 0 0
1.03817 0.484361 6.93889e-18 0 0 0
0.90582 0.706319 0 0 0 0
1 0.565455 0 0 0 0
0.574156 0.995296 0 0 0 0
1.14932 0 0 0.000973065 -2.55386e-06 8.23805e-05
1.14932 0.00717391 0 0 0 0
1.14932 0.0149206 0 0 0 0
1.14932 0.0232858 0 0 0 0
1.11289 0.288107 0 0 0 0
1.14932 0.0323188 0 0 0 0
1.14932 0.0420731 0 0 0 0
1.14932 0.0526061 0 0 0 0
1.14932 0.0639802 0 0 0 0
1.14932 0.0762623 0 0 0 0
1.14932 0.0895251 0 0 0 0
1.07753 0.412457 0 0 0 0
1.14932 0.103847 0 0 0 0
0.939379 0.672117 2.6963e-33 0 0 0
1.14932 0.119312 0 0 0 0
0.939379 0.675477 2.31296e-18 0 0 0
1.14932 0.136012 0 0 0 0
1.11289 0.318425 6.93889e-18 0 0 0
0.797951 0.839732 0 0 0 0
1.14932 0.154045 0 0 0 0
0.523729 1.03723 0 0 0 0
1.14932 0.173518 0 0 0 0
0.288433 1.1278 0 0 0 0
1.14932 0.194546 0 0 0 0
0.96969 0.646915 0 0 0 0
1.03817 0.530638 0 0 0 0
1.11289 0.351163 0 0 0 0
1.07753 0.45284 0 0 0 0
1.14932 0.217252 0 0 0 0
1.14932 0.241772 0 0 0 0
1 0.618354 0 0 0 0
0.715676 0.933946 1.54074e-33 0 0 0
1.11289 0.386516 0 0 0 0
0.075776 1.1767 0 0 0 0
0.467897 1.08252 6.93889e-18 0 0 0
1.14932 0.268249 0 0 0 0
1.18208 0.00352346 0 0 0 0
1.18208 0.0108517 0 0 0 0
1.18208 0.018765 -6.93889e-18 0 0 0
1.18208 0.0273101 6.93889e-18 0 0 0
1.18208 0.0365375 -6.93889e-18 0 0 0
1.18208 0.0465016 6.93889e-18 0 0 0
1.18208 0.0572612 0 0 0 0
1.18208 0.0688799 0 0 0 0
0.835106 0.839732 6.93889e-18 0 0 0
0.797951 0.875695 0 0 0 0
1.18208 0.0814263 0 0 0 0
1.18208 0.0949744 0 0 0 0
0.872262 0.803768 0 0 0 0
1.07753 0.496447 0 0 0 0
1.14932 0.29684 0 0 0 0
0.756814 0.914529 6.93889e-18 0 0 0
1.18208 0.109604 0 0 0 0
1.18208 0.125402 -6.93889e-18 0 0 0
0.905821 0.770464 0 0 0 0
1.03817 0.580609 6.93889e-18 0 0 0
1.18208 0.142461 -6.93889e-18 0 0 0
1.11289 0.42469 0 0 0 0
0.715676 0.953363 0 0 0 0
1.18208 0.160882 0 0 0 0
0.939379 0.73716 0 0 0 0
1.14932 0.327714 0 0 0 0
1.18208 0.180774 -6.93889e-18 0 0 0
0.219992 1.1767 -6.93889e-18 0 0 0
1.18208 0.202254 6.93889e-18 0 0 0
0.969689 0.706318 0 0 0 0
0.67013 0.995296 0 0 0 0
0.412065 1.1278 1.85035e-18 0 0 0
1.18208 0.225449 0 0 0 0
1.14932 0.361053 0 0 0 0
1.11289 0.465913 -6.93889e-18 0 0 0
1 0.675477 0 0 0 0
1.07753 0.543536 0 0 0 0
1.18208 0.250496 0 0 0 0
0.624584 1.03723 0 0 0 0
0.872262 0.839732 0 0 0 0
0.797951 0.914529 0 0 0 0
1.18208 0.277543 0 0 0 0
1.21581 0 0 0.00133463 1.94949e-05 9.63921e-05
1.21581 0.00691618 0 0 0 0
1.21581 0.0143846 0 0 0 0
1.14932 0.397053 0 0 0 0
1.21581 0.0224492 0 0 0 0
1.21581 0.0311577 0 0 0 0
1.21581 0.0405616 0 0 0 0
1.03817 0.63457 6.93889e-18 0 0 0
1.21581 0.0507162 0 0 0 0
1.21581 0.0616816 0 0 0 0
1.21581 0.0735225 0 0 0 0
1.21581 0.0863088 0 0 0 0
1.21581 0.100116 0 0 0 0
1.18208 0.306749 0 0 0 0
1.21581 0.115025 0 0 0 0
1.21581 0.131125 0 0 0 0
1.11289 0.510427 6.93889e-18 0 0 0
1.21581 0.148511 0 0 0 0
0.574156 1.08251 0 0 0 0
0 1.2256 0 0 0 0
1.21581 0.167284 0 0 0 0
0.350249 1.1767 0 0 0 0
1.14932 0.435928 0 0 0 0
1.18208 0.338287 0 0 0 0
1.21581 0.187556 0 0 0 0
1.07753 0.594384 0 0 0 0
1.21581 0.209447 0 0 0 0
0.151552 1.2256 -6.16298e-33 0 0 0
0.905821 0.839731 -6.93889e-18 0 0 0
0.872262 0.875695 0 0 0 0
0.939379 0.803768 0 0 0 0
1.21581 0.233086 0 0 0 0
0.835106 0.914529 0 0 0 0
0.969689 0.770464 0 0 0 0
1.18208 0.372343 -6.93889e-18 0 0 0
1 0.73716 0 0 0 0
1.21581 0.258612 0 0 0 0
0.797951 0.953363 0 0 0 0
0.523729 1.1278 0 0 0 0
1.14932 0.477907 0 0 0 0
1.11289 0.558495 0 0 0 0
1.24616 0.00339926 0 0 0 0
1.24616 0.0104692 -6.93889e-18 0 0 0
1.24616 0.0181036 0 0 0 0
1.24616 0.0263475 0 0 0 0
1.24616 0.0352496 0 0 0 0
1.24616 0.0448625 0 0 0 0
1.24616 0.0552429 -6.93889e-18 0 0 0
1.24616 0.066452 0 0 0 0
1.03817 0.69284 0 0 0 0
1.24616 0.0785561 0 0 0 0
1.21581 0.286176 0 0 0 0
1.24616 0.0916266 -6.93889e-18 0 0 0
0.756813 0.995296 0 0 0 0
1.24616 0.105741 -6.93889e-18 0 0 0
1.18208 0.409118 0 0 0 0
1.24616 0.120981 0 0 0 0
1.24616 0.137439 6.93889e-18 0 0 0
1.24616 0.155211 0 0 0 0
1.21581 0.31594 0 0 0 0
1.07753 0.649293 0 0 0 0
1.24616 0.174402 -6.93889e-18 0 0 0
0.288433 1.2256 0 0 0 0
0.715676 1.03723 0 0 0 0
1.24616 0.195125 0 0 0 0
1.14932 0.523237 0 0 0 0
0.872262 0.914529 0 0 0 0
1.18208 0.448829 0 0 0 0
1.21581 0.348082 0 0 0 0
1.24616 0.217502 6.93889e-18 0 0 0
0.467897 1.1767 -6.93889e-18 0 0 0
1.11289 0.610401 6.93889e-18 0 0 0
1.24616 0.241666 0 0 0 0
0.67013 1.08251 6.93889e-18 0 0 0
1.24616 0.26776 0 0 0 0
1.21581 0.382789 0 0 0 0
1.27738 0 0 0.001566 3.90925e-05 0.000106409
1.27738 0.00667751 0 0 0 0
1.27738 0.0138882 0 0 0 0
1.27738 0.0216745 0 0 0 0
1.27738 0.0300825 0 0 0 0
1.27738 0.0391618 0 0 0 0
1.27738 0.0489661 0 0 0 0
1.27738 0.0595531 0 0 0 0
1.27738 0.0709853 0 0 0 0
1.27738 0.0833304 0 0 0 0
1.18208 0.491711 -6.93889e-18 0 0 0
0.075776 1.2784 0 0 0 0
1.24616 0.295936 0 0 0 0
1.27738 0.096661 0 0 0 0
1.27738 0.111056 0 0 0 0
0.96969 0.839732 0 0 0 0
1 0.803768 0 0 0 0
1.27738 0.1266 0 0 0 0
1.14932 0.572187 0 0 0 0
1.03817 0.755761 6.93889e-18 0 0 0
0.939379 0.875695 2.31296e-18 0 0 0
1.27738 0.143386 0 0 0 0
1.21581 0.420267 0 0 0 0
0.905821 0.914529 -6.93889e-18 0 0 0
1.27738 0.161511 0 0 0 0
1.24616 0.326363 6.93889e-18 0 0 0
0.624584 1.1278 0 0 0 0
1.07753 0.708585 0 0 0 0
1.27738 0.181084 0 0 0 0
0.872262 0.953363 0 0 0 0
0.412065 1.2256 0 0 0 0
1.27738 0.202219 0 0 0 0
1.24616 0.359219 0 0 0 0
1.27738 0.225042 0 0 0 0
1.11289 0.666451 -6.93889e-18 0 0 0
0.219992 1.2784 -6.93889e-18 0 0 0
1.18208 0.538016 0 0 0 0
0.835106 0.995296 6.93889e-18 0 0 0
1.21581 0.460738 0 0 0 0
1.27738 0.249687 0 0 0 0
1.3055 0.00328425 0 0 0 0
1.3055 0.010115 -3.46945e-18 0 0 0
1.3055 0.0174911 0 0 0 0
1.3055 0.025456 -3.46945e-18 0 0 0
1.3055 0.0340569 -3.46945e-18 0 0 0
1.3055 0.0433446 0 0 0 0
1.3055 0.0533738 0 0 0 0
1.27738 0.2763 0 0 0 0
1.3055 0.0642037 3.46945e-18 0 0 0
1.24616 0.394697 0 0 0 0
1.3055 0.0758982 0 0 0 0
1.14932 0.625045 0 0 0 0
1.3055 0.0885265 0 0 0 0
0.797951 1.03723 0 0 0 0
0.574156 1.1767 6.93889e-18 0 0 0
1.3055 0.102163 0 0 0 0
1.3055 0.116888 -3.46945e-18 0 0 0
1.3055 0.132789 0 0 0 0
1.27738 0.305038 0 0 0 0
1.3055 0.14996 3.46945e-18 0 0 0
1.21581 0.50444 0 0 0 0
1.3055 0.168501 0 0 0 0
1.3055 0.188523 0 0 0 0
1.24616 0.433008 6.93889e-18 0 0 0
1.18208 0.588019 6.93889e-18 0 0 0
0.756813 1.08251 0 0 0 0
1.27738 0.33607 0 0 0 0
1.3055 0.210143 0 0 0 0
1.03817 0.823707 0 0 0 0
0.350249 1.2784 0 0 0 0
1.07753 0.772611 0 0 0 0
1.3055 0.23349 3.46945e-18 0 0 0
1 0.875695 0 0 0 0
1.11289 0.726976 6.93889e-18 0 0 0
1.27738 0.369579 0 0 0 0
1.3055 0.2587 6.93889e-18 0 0 0
0 1.3312 0 0 0 0
0.523729 1.2256 0 0 0 0
0.96969 0.914529 6.93889e-18 0 0 0
1.24616 0.474379 -6.93889e-18 0 0 0
1.3344 0 0 0.00178317 3.49524e-05 0.000111278
1.3344 0.00645648 0 0 0 0
1.3344 0.0134285 0 0 0 0
1.3344 0.0209571 0 0 0 0
1.3344 0.0290868 0 0 0 0
1.3344 0.0378656 0 0 0 0
1.21581 0.551631 0 0 0 0
1.3344 0.0473453 0 0 0 0
1.3344 0.0575819 0 0 0 0
0.715676 1.1278 0 0 0 0
1.3344 0.0686357 0 0 0 0
1.3055 0.285924 0 0 0 0
1.14932 0.682123 0 0 0 0
1.3344 0.0805721 0 0 0 0
1.3344 0.0934616 0 0 0 0
0.939379 0.953363 0 0 0 0
1.3344 0.10738 0 0 0 0
0.151552 1.3312 0 0 0 0
1.3344 0.12241 0 0 0 0
1.27738 0.405764 0 0 0 0
1.3344 0.13864 0 0 0 0
1.3055 0.315321 0 0 0 0
1.3344 0.156165 0 0 0 0
1.18208 0.642014 6.93889e-18 0 0 0
0.90582 0.995296 0 0 0 0
1.3344 0.17509 0 0 0 0
1.3344 0.195526 0 0 0 0
1.24616 0.519052 6.93889e-18 0 0 0
1.3055 0.347064 0 0 0 0
1.3344 0.217593 0 0 0 0
1.27738 0.444838 0 0 0 0
0.67013 1.1767 -6.93889e-18 0 0 0
0.872262 1.03723 0 0 0 0
1.3344 0.241423 0 0 0 0
1.21581 0.60259 0 0 0 0
1.3055 0.381343 3.46945e-18 0 0 0
1.36045 0.00317774 3.46945e-18 0 0 0
1.36045 0.00978693 0 0 0 0
1.36045 0.0169238 -6.93889e-18 0 0 0
1.36045 0.0246305 -3.46945e-18 0 0 0
1.36045 0.0329525 0 0 0 0
1.3344 0.267155 0 0 0 0
1.36045 0.041939 0 0 0 0
0.467897 1.2784 0 0 0 0
1.36045 0.0516429 3.46945e-18 0 0 0
1.36045 0.0621215 3.46945e-18 0 0 0
0.288433 1.3312 0 0 0 0
1.36045 0.0734368 3.46945e-18 0 0 0
1.36045 0.0856556 0 0 0 0
1.36045 0.0988499 0 0 0 0
1.36045 0.113098 0 0 0 0
1.11289 0.792334 6.93889e-18 0 0 0
1.36045 0.128483 -3.46945e-18 0 0 0
1.3344 0.294941 0 0 0 0
1.27738 0.487032 0 0 0 0
0.835106 1.08251 -6.93889e-18 0 0 0
1.07753 0.841749 0 0 0 0
1.36045 0.145097 3.46945e-18 0 0 0
1.14932 0.743758 0 0 0 0
1.24616 0.567292 6.93889e-18 0 0 0
1.36045 0.163037 0 0 0 0
1.3055 0.418358 3.46945e-18 0 0 0