0 	0 	0 	0
0.00184056 	-0.017214 	-2.36231e-06 	0.0732726
0.00368111 	-0.0313354 	6.79631e-06 	0.149461
0.00558849 	-0.0130635 	0.000130919 	0.205158
0.00749587 	0.00825947 	0.00029896 	0.262198
0.00947249 	0.0404507 	0.000612234 	0.296811
0.0114491 	0.0747698 	0.0009918 	0.331656
0.0134975 	0.105682 	0.00144197 	0.351574
0.0155459 	0.138116 	0.00196773 	0.371521
0.0155459 	0.138116 	0.00196773 	0.371521
0.0176687 	0.166631 	0.00253691 	0.38472
0.0197915 	0.196571 	0.00319557 	0.397987
0.0219913 	0.224033 	0.00388961 	0.407899
0.0241911 	0.252953 	0.00468603 	0.417922
0.0264709 	0.280028 	0.00550497 	0.425882
0.0287506 	0.308619 	0.0064373 	0.434006
0.031113 	0.335626 	0.00738409 	0.440697
0.0334755 	0.364181 	0.00845143 	0.447598
0.0359238 	0.391247 	0.00953149 	0.453438
0.038372 	0.419817 	0.0107303 	0.459516
0.0394714 	0.431577 	0.0112569 	0.461802
0.0405709 	0.443336 	0.0117835 	0.464087
0.0420086 	0.458713 	0.0124721 	0.467077
0.0434463 	0.475394 	0.0132611 	0.470304
0.0438407 	0.479454 	0.013462 	0.471041
0.0442351 	0.483514 	0.0136629 	0.471778
0.0464699 	0.506522 	0.0148013 	0.475956
0.0487048 	0.530378 	0.0159974 	0.480329
0.0514296 	0.556939 	0.0174232 	0.485007
0.0541543 	0.583609 	0.0188378 	0.489793
0.056978 	0.608838 	0.0202784 	0.494276
0.0598016 	0.6333 	0.0216236 	0.498752
0.0627278 	0.656151 	0.0229833 	0.503018
0.0656539 	0.677492 	0.0241694 	0.507171
0.0686863 	0.697071 	0.0253562 	0.511174
0.0717187 	0.714751 	0.0263158 	0.514998
0.0748612 	0.730663 	0.0272699 	0.518721
0.0780037 	0.744672 	0.0279747 	0.522244
0.0812603 	0.757096 	0.0286794 	0.525722
0.0845169 	0.767858 	0.0291383 	0.529014
0.0878918 	0.777334 	0.0296107 	0.532318
0.0912666 	0.78546 	0.0298552 	0.535462
0.094764 	0.792615 	0.0301291 	0.538675
0.0982613 	0.798707 	0.0301993 	0.541746
0.0982613 	0.798707 	0.0301993 	0.541746
0.101886 	0.804098 	0.0303118 	0.544934
0.10551 	0.808667 	0.030247 	0.547994
0.109266 	0.812752 	0.0302335 	0.551209
0.113022 	0.81621 	0.0300692 	0.554304
0.116914 	0.81936 	0.0299614 	0.557585
0.120806 	0.822035 	0.0297286 	0.560748
0.123159 	0.823503 	0.0296266 	0.562711
0.125512 	0.824971 	0.0295247 	0.564674
0.127193 	0.825959 	0.0294352 	0.566056
0.128874 	0.826706 	0.0292785 	0.567356
0.129919 	0.827238 	0.0292239 	0.568216
0.130964 	0.827769 	0.0291693 	0.569076
0.134099 	0.829363 	0.0290056 	0.571657
0.137234 	0.830676 	0.0287638 	0.574101
0.141565 	0.832613 	0.0285211 	0.577583
0.145897 	0.834318 	0.0282208 	0.58091
0.150386 	0.836223 	0.0279683 	0.584375
0.154876 	0.837922 	0.0276759 	0.587666
0.159528 	0.839904 	0.0274232 	0.591042
0.16418 	0.841682 	0.0271453 	0.594225
0.169001 	0.843787 	0.0268962 	0.597429
0.173822 	0.845677 	0.0266332 	0.600427
0.178818 	0.847892 	0.0263859 	0.603378
0.183814 	0.849875 	0.026133 	0.606119
0.188992 	0.852139 	0.025881 	0.608749
0.194169 	0.854158 	0.0256295 	0.611176
0.199535 	0.856389 	0.0253635 	0.613446
0.2049 	0.858369 	0.0251027 	0.615528
0.21046 	0.860491 	0.0248129 	0.617431
0.21602 	0.86237 	0.0245323 	0.619167
0.221782 	0.864333 	0.0242104 	0.620721
0.227544 	0.866069 	0.0239015 	0.622135
0.233515 	0.867852 	0.0235418 	0.623376
0.239487 	0.86943 	0.0231988 	0.624503
0.245675 	0.871034 	0.0227985 	0.625472
0.251863 	0.872459 	0.0224179 	0.62635
0.258275 	0.873898 	0.0219764 	0.627084
0.264688 	0.875184 	0.021557 	0.627748
0.271334 	0.876476 	0.0210757 	0.628279
0.27798 	0.877638 	0.0206177 	0.628756
0.279917 	0.877965 	0.0204718 	0.628855
0.281854 	0.878292 	0.0203259 	0.628955
0.286803 	0.879127 	0.019953 	0.62921
0.291753 	0.879854 	0.0196037 	0.629424
0.29889 	0.880905 	0.0190504 	0.629623
0.306027 	0.881865 	0.0185198 	0.629792
0.313423 	0.882818 	0.0179351 	0.629853
0.320819 	0.883697 	0.0173719 	0.629892
0.328483 	0.884567 	0.0167593 	0.629827
0.336148 	0.885378 	0.016166 	0.629748
0.336148 	0.885378 	0.016166 	0.629748
0.344091 	0.886178 	0.0155292 	0.629569
0.352034 	0.886931 	0.014909 	0.629381
0.352034 	0.886931 	0.014909 	0.629381
0.360265 	0.887673 	0.0142514 	0.629097
0.368496 	0.888377 	0.0136074 	0.628806
0.377026 	0.88907 	0.0129325 	0.628424
0.385557 	0.889733 	0.0122681 	0.628038
0.388043 	0.889917 	0.0120745 	0.627904
0.390529 	0.890101 	0.0118809 	0.62777
0.396883 	0.890571 	0.0113861 	0.627429
0.403236 	0.891017 	0.0108983 	0.627084
0.409248 	0.891425 	0.0104403 	0.626714
0.415259 	0.891832 	0.00998224 	0.626344
0.418408 	0.89204 	0.00974339 	0.62615
0.421557 	0.892242 	0.00950583 	0.625954
0.431051 	0.892837 	0.00880237 	0.625305
0.440544 	0.89342 	0.00809885 	0.624653
0.450382 	0.893996 	0.0073941 	0.623921
0.46022 	0.894563 	0.00668585 	0.623186
0.470415 	0.895124 	0.00598424 	0.622372
0.48061 	0.895681 	0.00527571 	0.621556
0.491175 	0.896233 	0.00458169 	0.620662
0.501741 	0.896784 	0.00387757 	0.619765
0.51269 	0.897332 	0.00319561 	0.618793
0.523639 	0.89788 	0.00250075 	0.617816
0.534986 	0.898427 	0.00183548 	0.616766
0.546332 	0.898976 	0.00115477 	0.61571
0.558091 	0.899525 	0.000510786 	0.614582
0.569849 	0.900078 	-0.000150755 	0.613448
0.582034 	0.900631 	-0.000769064 	0.612243
0.594219 	0.901188 	-0.00140654 	0.61103
0.606847 	0.901746 	-0.00199504 	0.609748
0.619475 	0.902308 	-0.00260374 	0.608457
0.632561 	0.902871 	-0.00315869 	0.607098
0.645647 	0.903436 	-0.00373417 	0.605729
0.659208 	0.904005 	-0.00425249 	0.604293
0.67277 	0.904573 	-0.00479101 	0.602846
0.686823 	0.905149 	-0.00527054 	0.601336
0.700877 	0.905718 	-0.00576953 	0.599812
0.715441 	0.9063 	-0.00620924 	0.598229
0.730005 	0.906871 	-0.00666755 	0.59663
0.736797 	0.907136 	-0.00684749 	0.595884
0.743588 	0.907401 	-0.00702744 	0.595139
0.751889 	0.907724 	-0.00724737 	0.594229
0.76019 	0.908029 	-0.00748521 	0.593301
0.76801 	0.908326 	-0.00766566 	0.592437
0.775831 	0.908622 	-0.0078461 	0.591573
0.783651 	0.908919 	-0.00802654 	0.590709
0.791472 	0.909189 	-0.00822456 	0.589827
0.800589 	0.909524 	-0.00840675 	0.588814
0.809707 	0.909859 	-0.00858893 	0.587802
0.816798 	0.910115 	-0.00873283 	0.587012
0.823889 	0.910343 	-0.00888988 	0.586206
0.831238 	0.910603 	-0.00901709 	0.585387
0.838586 	0.910863 	-0.00914429 	0.584568
0.848035 	0.911198 	-0.00930785 	0.583515
0.857483 	0.911484 	-0.00948913 	0.582438
0.87489 	0.912073 	-0.00975265 	0.58049
0.892297 	0.912603 	-0.0100345 	0.578517
0.910336 	0.913184 	-0.0102781 	0.576487
0.928375 	0.913693 	-0.0105413 	0.574431
0.947069 	0.914263 	-0.0107726 	0.572309
0.965762 	0.914752 	-0.0110256 	0.57016
0.985136 	0.91531 	-0.0112511 	0.567935
1.00451 	0.915778 	-0.0115014 	0.565678
1.00451 	0.915778 	-0.0115014 	0.565678
1.02459 	0.916327 	-0.011725 	0.563338
1.04466 	0.916778 	-0.0119766 	0.560959
1.06547 	0.917331 	-0.0121971 	0.558499
1.08627 	0.917775 	-0.0124489 	0.555986
1.10783 	0.918353 	-0.0126581 	0.55341
1.12939 	0.91881 	-0.0129013 	0.550764
1.15173 	0.919444 	-0.0130841 	0.548094
1.17408 	0.919944 	-0.013301 	0.545332
1.19723 	0.920669 	-0.0134367 	0.542598
1.22038 	0.921251 	-0.0136022 	0.539753
1.24437 	0.922098 	-0.0136689 	0.536986
1.26837 	0.922798 	-0.0137563 	0.534096
1.29323 	0.92378 	-0.0137363 	0.531317
1.3181 	0.92462 	-0.0137229 	0.528412
1.3181 	0.92462 	-0.0137229 	0.528412
1.34258 	0.925674 	-0.013611 	0.525776
1.36706 	0.926622 	-0.0134905 	0.523042
1.36835 	0.926664 	-0.0134836 	0.522891
1.36964 	0.926706 	-0.0134766 	0.522739
1.37098 	0.926767 	-0.0134657 	0.522602
1.37231 	0.926828 	-0.0134548 	0.522464
1.39768 	0.927981 	-0.0132481 	0.519845
1.42305 	0.929012 	-0.0130131 	0.517108
1.45072 	0.930302 	-0.0127017 	0.51438
1.4784 	0.931476 	-0.0123468 	0.511543
1.50708 	0.932812 	-0.0119534 	0.508858
1.53576 	0.934036 	-0.0115042 	0.506072
1.56548 	0.935391 	-0.0110442 	0.503446
1.5952 	0.936635 	-0.0105193 	0.500727
1.62599 	0.937985 	-0.0100101 	0.498176
1.65679 	0.939225 	-0.00942961 	0.495541
1.68871 	0.940552 	-0.00888908 	0.493082
1.72063 	0.941769 	-0.00827278 	0.490546
1.7537 	0.943054 	-0.00771722 	0.488193
1.78678 	0.944231 	-0.00708298 	0.485771
1.81934 	0.945383 	-0.00655278 	0.483641
1.8519 	0.946451 	-0.00595815 	0.481463
1.85362 	0.946502 	-0.0059222 	0.481344
1.85533 	0.946552 	-0.00588624 	0.481226
1.89085 	0.947648 	-0.0053359 	0.479098
1.92638 	0.948644 	-0.00470387 	0.476915
1.92822 	0.948691 	-0.00467754 	0.476815
1.93006 	0.948737 	-0.00465121 	0.476715
1.96503 	0.949627 	-0.00415095 	0.474812
2 	0.950418 	-0.00356922 	0.47286
