# kMean  POINT_DATA 18630
# x  y  z  kMean
0 0.1 0 0.00375
0 0.1 -0.0315126 0.00375
0 0.1 0.0315126 0.00375
0.0318387 0.1 -0.0315126 0.00374964
0.0318387 0.1 0.0315126 0.00374963
0.075776 0.1 -0.075 0.00374895
0.075776 0.1 0.075 0.00374893
0 0.1 -0.118487 0.00375
0 0.1 0.118487 0.00375
0.0318387 0.1 0.118487 0.00374963
0.0318387 0.1 -0.118487 0.00374964
0 0.1 -0.15 0.00375
0 0.1 0.15 0.00375
0.150525 0.1 8.67362e-18 0.00374499
0 0.1 -0.181513 0.00375
0 0.1 0.181513 0.00375
0.0318387 0.1 -0.181513 0.00374992
0.0318387 0.1 0.181513 0.0037499
0.150525 0.1 0.15 0.0037455
0.150525 0.1 -0.15 0.00374555
0.219992 0.1 -0.075 0.00374116
0.219992 0.1 0.075 0.00374112
0.075776 0.1 -0.225 0.00374962
0.075776 0.1 0.225 0.00374957
0 0.1 -0.268487 0.00375
0 0.1 0.268487 0.00375
0.0318387 0.1 -0.268487 0.00374992
0.0318387 0.1 0.268487 0.0037499
0.287505 0.1 -2.60209e-17 0.00373628
0 0.1 -0.3 0.00375
0 0.1 0.3 0.00375
0.219992 0.1 0.225 0.00374256
0.219992 0.1 -0.225 0.00374266
0.287505 0.1 0.15 0.00373704
0.287505 0.1 -0.15 0.00373712
0 0.1 -0.331513 0.00375
0 0.1 0.331513 0.00375
0.0318387 0.1 -0.331513 0.00375039
0.0318387 0.1 0.331513 0.00375036
0.150525 0.1 -0.3 0.00374703
0.150525 0.1 0.3 0.00374694
0.350249 0.1 -0.075 0.00373149
0.350249 0.1 0.075 0.00373144
0.075776 0.1 -0.375 0.00375075
0.075776 0.1 0.375 0.00375069
0.411227 0.1 1.73472e-17 0.00372693
0.287505 0.1 -0.3 0.00373932
0.287505 0.1 0.3 0.00373918
0.350249 0.1 -0.225 0.00373327
0.350249 0.1 0.225 0.00373314
0 0.1 -0.418487 0.00375
0 0.1 0.418487 0.00375
0.0318387 0.1 -0.418487 0.00375039
0.0318387 0.1 0.418487 0.00375036
0.219992 0.1 -0.375 0.00374523
0.219992 0.1 0.375 0.00374508
0.411227 0.1 -0.15 0.00372778
0.411227 0.1 0.15 0.00372769
0 0.1 -0.45 0.00375
0 0.1 0.45 0.00375
0.467897 0.1 -0.075 0.00372235
0.467897 0.1 0.075 0.0037223
0.150525 0.1 -0.45 0.00374896
0.150525 0.1 0.45 0.00374885
0 0.1 -0.481513 0.00375
0 0.1 0.481513 0.00375
0.0318387 0.1 -0.481513 0.00375088
0.0318387 0.1 0.481513 0.00375086
0.411227 0.1 -0.3 0.00372998
0.411227 0.1 0.3 0.00372982
0.350249 0.1 0.375 0.00373605
0.350249 0.1 -0.375 0.00373623
0.467897 0.1 -0.225 0.00372386
0.467897 0.1 0.225 0.00372373
0.522972 0.1 3.72966e-17 0.00371874
0.075776 0.1 0.525 0.00375188
0.075776 0.1 -0.525 0.00375194
0.287505 0.1 0.45 0.00374201
0.287505 0.1 -0.45 0.00374217
0.522972 0.1 0.15 0.00371929
0.522972 0.1 -0.15 0.00371937
0 0.1 0.568487 0.00375
0 0.1 -0.568487 0.00375
0.219992 0.1 0.525 0.00374785
0.219992 0.1 -0.525 0.00374801
0.0318387 0.1 -0.568487 0.00375088
0.0318387 0.1 0.568487 0.00375086
0.574156 0.1 -0.075 0.00371494
0.574156 0.1 0.075 0.00371489
0.467897 0.1 0.375 0.00372625
0.467897 0.1 -0.375 0.00372644
0 0.1 -0.6 0.00375
0 0.1 0.6 0.00375
0.522972 0.1 0.3 0.00372088
0.522972 0.1 -0.3 0.00372103
0.411227 0.1 0.45 0.00373259
0.411227 0.1 -0.45 0.00373278
0.574157 0.1 -0.225 0.00371589
0.574157 0.1 0.225 0.00371577
0.150525 0.1 0.6 0.00375063
0.150525 0.1 -0.6 0.00375073
0.6239 0.1 2.86229e-17 0.00371287
0.350249 0.1 -0.525 0.00373931
0.350249 0.1 0.525 0.00373912
0 0.1 -0.631513 0.00375
0 0.1 0.631513 0.00375
0.0318387 0.1 -0.631513 0.0037513
0.0318387 0.1 0.631513 0.00375127
0.6239 0.1 0.15 0.00371309
0.6239 0.1 -0.15 0.00371317
0.287505 0.1 0.6 0.00374458
0.287505 0.1 -0.6 0.00374474
0.67013 0.1 0.075 0.00371039
0.67013 0.1 -0.075 0.00371042
0.075776 0.1 0.675 0.00375287
0.075776 0.1 -0.675 0.00375292
0.574157 0.1 0.375 0.00371732
0.574157 0.1 -0.375 0.0037175
0.522972 0.1 0.45 0.00372291
0.522972 0.1 -0.45 0.0037231
0.6239 0.1 -0.3 0.00371391
0.6239 0.1 0.3 0.00371377
0.467897 0.1 0.525 0.0037288
0.467897 0.1 -0.525 0.00372901
0.67013 0.1 -0.225 0.00371061
0.67013 0.1 0.225 0.00371051
0.219992 0.1 -0.675 0.0037501
0.219992 0.1 0.675 0.00374997
0.715059 0.1 2.42861e-17 0.00371043
0 0.1 -0.718487 0.00375
0 0.1 0.718487 0.00375
0.0318387 0.1 -0.718487 0.0037513
0.0318387 0.1 0.718487 0.00375127
0.411227 0.1 0.6 0.003735
0.411227 0.1 -0.6 0.00373519
0.715059 0.1 -0.15 0.00371029
0.715059 0.1 0.15 0.00371023
0 0.1 -0.75 0.00375
0 0.1 0.75 0.00375
0.150525 0.1 0.742997 0.00375203
0.350249 0.1 -0.675 0.0037416
0.350249 0.1 0.675 0.00374143
0.756813 0.1 0.075 0.00370986
0.756814 0.1 -0.075 0.00370988
0.150525 0.1 -0.75 0.00375204
0.67013 0.1 -0.375 0.00371087
0.67013 0.1 0.375 0.00371071
0.6239 0.1 -0.45 0.00371479
0.6239 0.1 0.45 0.00371461
0.715059 0.1 -0.3 0.00370984
0.715059 0.1 0.3 0.00370973
0.574156 0.1 -0.525 0.00371903
0.574157 0.1 0.525 0.00371883
0 0.1 -0.781513 0.00375
0 0.1 0.781513 0.00375
0.0318387 0.1 0.781513 0.00375157
0.0318387 0.1 -0.781513 0.00375158
0.756814 0.1 -0.225 0.00370909
0.756814 0.1 0.225 0.00370901
0.522972 0.1 0.6 0.00372447
0.522972 0.1 -0.6 0.00372466
0.287505 0.1 0.742997 0.00374651
0.797393 0.1 -2.68882e-17 0.00371234
0.287505 0.1 -0.75 0.00374658
0.797393 0.1 -0.15 0.00371167
0.797393 0.1 0.15 0.00371163
0.467897 0.1 0.675 0.00373054
0.467897 0.1 -0.675 0.00373071
0.075776 0.1 0.825 0.00375357
0.075776 0.1 -0.825 0.00375361
0.835106 0.1 -0.075 0.00371408
0.835106 0.1 0.075 0.00371406
0.756813 0.1 0.375 0.00370755
0.756814 0.1 -0.375 0.00370767
0.715059 0.1 -0.45 0.00370916
0.715059 0.1 0.45 0.003709
0.411227 0.1 0.742997 0.00373663
0.67013 0.1 0.525 0.00371084
0.67013 0.1 -0.525 0.00371102
0.797393 0.1 -0.3 0.00370978
0.797393 0.1 0.3 0.00370971
0.219993 0.1 0.825 0.00375145
0.219992 0.1 -0.825 0.00375156
0.411227 0.1 -0.75 0.00373678
0.835106 0.1 -0.225 0.00371216
0.835106 0.1 0.225 0.00371212
0.6239 0.1 -0.6 0.00371497
0.6239 0.1 0.6 0.0037148
0 0.1 -0.868487 0.00375
0 0.1 0.868487 0.00375
0.0318387 0.1 -0.868487 0.00375158
0.0318387 0.1 0.868487 0.00375157
0.871758 0.1 -4.33681e-17 0.00371832
0.871758 0.1 -0.15 0.00371712
0.871758 0.1 0.15 0.0037171
0.574156 0.1 -0.675 0.0037195
0.574157 0.1 0.675 0.00371932
0.350249 0.1 0.825 0.00374297
0.350249 0.1 -0.825 0.00374312
0 0.1 -0.9 0.00375
0 0.1 0.9 0.00375
0.522972 0.1 0.742997 0.00372508
0.90582 0.1 -0.075 0.0037217
0.90582 0.1 0.075 0.0037217
0.150525 0.1 0.9 0.00375276
0.150525 0.1 -0.9 0.00375283
0.522972 0.1 -0.75 0.00372532
0.835106 0.1 0.375 0.00370868
0.835106 0.1 -0.375 0.00370875
0.797393 0.1 -0.45 0.00370709
0.797393 0.1 0.45 0.00370696
0.756813 0.1 -0.525 0.00370596
0.756814 0.1 0.525 0.00370579
0.871758 0.1 -0.3 0.00371373
0.871758 0.1 0.3 0.0037137
0 0.1 -0.931513 0.00375
0 0.1 0.931513 0.00375
0.0318387 0.1 -0.931513 0.00375176
0.0318387 0.1 0.931513 0.00375174
0.90582 0.1 -0.225 0.00371879
0.90582 0.1 0.225 0.00371877
0.715059 0.1 0.6 0.00370742
0.715059 0.1 -0.6 0.00370757
0.938924 0.1 -1.73472e-18 0.00372869
0.287505 0.1 0.9 0.00374751
0.287505 0.1 -0.9 0.00374762
0.467897 0.1 -0.825 0.00373158
0.467897 0.1 0.825 0.00373142
0.938924 0.1 -0.15 0.003727
0.938924 0.1 0.15 0.003727
0.67013 0.1 -0.675 0.00370963
0.67013 0.1 0.675 0.00370948
0.6239 0.1 0.742997 0.00371377
0.969689 0.1 -0.075 0.00373469
0.969689 0.1 0.075 0.0037347
0.6239 0.1 -0.75 0.00371411
0.075776 0.1 -0.975 0.00375402
0.075776 0.1 0.975 0.00375399
0.90582 0.1 -0.375 0.00371351
0.90582 0.1 0.375 0.00371349
0.871758 0.1 -0.45 0.00370875
0.871758 0.1 0.45 0.00370866
0.938924 0.1 -0.3 0.00372223
0.938924 0.1 0.3 0.00372223
0.835106 0.1 -0.525 0.00370458
0.835106 0.1 0.525 0.00370441
0.411227 0.1 -0.9 0.00373756
0.411227 0.1 0.9 0.00373741
0.99151 0.1 0 0.00373729
0.969689 0.1 -0.225 0.00373084
0.96969 0.1 0.225 0.00373085
0.797393 0.1 -0.6 0.00370338
0.797393 0.1 0.6 0.00370324
0.219992 0.1 0.975 0.00375204
0.219992 0.1 -0.975 0.00375212
0.99151 0.1 -0.15 0.00373514
0.99151 0.1 0.15 0.00373516
0.574156 0.1 -0.825 0.00371913
0.574156 0.1 0.825 0.00371897
0.756813 0.1 0.675 0.00370249
0.756814 0.1 -0.675 0.00370262
0 0.1 -1.01849 0.00375
0 0.1 1.01849 0.00375
0.0318387 0.1 -1.01849 0.00375176
0.0318387 0.1 1.01849 0.00375174
0.715059 0.1 0.742997 0.00370421
0.99151 0.1 -0.3 0.00372912
0.99151 0.1 0.3 0.00372914
0.350249 0.1 -0.975 0.00374375
0.350249 0.1 0.975 0.00374362
0.715059 0.1 -0.75 0.00370469
1.03609 0.1 -0.0731955 0.003746
1.03609 0.1 0.0731955 0.00374604
0.969689 0.1 -0.375 0.00372383
0.969689 0.1 0.375 0.00372384
0.522972 0.1 -0.9 0.00372524
0.522972 0.1 0.9 0.00372509
0.938924 0.1 -0.45 0.00371482
0.938924 0.1 0.45 0.00371479
0.905821 0.1 -0.525 0.00370646
0.905821 0.1 0.525 0.00370635
0 0.1 -1.05 0.00375
0 0.1 1.05 0.00375
0.871758 0.1 0.6 0.0037025
0.871758 0.1 -0.6 0.0037026
1.03609 0.1 -0.219587 0.00374135
1.03609 0.1 0.219587 0.00374145
0.150525 0.1 -1.05 0.00375311
0.150525 0.1 1.05 0.00375306
0.67013 0.1 -0.825 0.00370752
0.67013 0.1 0.825 0.00370738
0.835106 0.1 0.675 0.00369889
0.835106 0.1 -0.675 0.00369898
1.07753 0.1 0 0.00375931
0.467897 0.1 -0.975 0.00373171
0.467897 0.1 0.975 0.00373156
0 0.1 -1.08151 0.00375
0 0.1 1.08151 0.00375
0.0318387 0.1 -1.08151 0.00375181
0.0318387 0.1 1.08151 0.0037518
1.07753 0.1 -0.142247 0.00375663
1.07753 0.1 0.142247 0.00375667
0.287505 0.1 -1.05 0.00374789
0.287505 0.1 1.05 0.0037478
0.99151 0.1 -0.45 0.00371978
0.99151 0.1 0.45 0.00371981
0.797393 0.1 0.742997 0.00369742
0.797393 0.1 -0.75 0.00369807
0.6239 0.1 -0.9 0.00371261
0.6239 0.1 0.9 0.00371247
1.03609 0.1 -0.365978 0.00373288
1.03609 0.1 0.365978 0.00373302
0.969689 0.1 -0.525 0.00371353
0.969689 0.1 0.525 0.00371353
1.11155 0.1 -0.0694227 0.00376734
1.11155 0.1 0.0694227 0.00376737
0.938924 0.1 -0.6 0.00370605
0.938924 0.1 0.6 0.00370602
1.07753 0.1 -0.284495 0.00374916
1.07753 0.1 0.284495 0.00374922
0.756813 0.1 0.825 0.00369787
0.756813 0.1 -0.825 0.00369797
0.075776 0.1 -1.125 0.00375414
0.075776 0.1 1.125 0.00375412
0.411227 0.1 -1.05 0.00373751
0.411227 0.1 1.05 0.00373739
0.90582 0.1 0.675 0.00369869
0.905821 0.1 -0.675 0.00369872
1.11155 0.1 -0.208268 0.00376196
1.11155 0.1 0.208268 0.00376203
0.574156 0.1 -0.975 0.00371823
0.574157 0.1 0.975 0.00371808
0.871758 0.1 0.742997 0.00369376
0.219992 0.1 -1.125 0.00375215
0.219992 0.1 1.125 0.00375209
0.715059 0.1 -0.9 0.00370111
0.715059 0.1 0.9 0.003701
0.871758 0.1 -0.75 0.00369459
1.03609 0.1 -0.512369 0.0037216
1.03609 0.1 0.512369 0.0037247
1.15879 0.1 0 0.00378883
0.99151 0.1 -0.6 0.00370884
0.99151 0.1 0.6 0.00370888
1.07753 0.1 -0.426742 0.00373805
1.07753 0.1 0.426742 0.00373812
1.11155 0.1 -0.347114 0.00375223
1.11155 0.1 0.347114 0.00375285
1.15879 0.1 0.133647 0.00378572
1.15879 0.1 -0.134121 0.00378566
0 0.1 -1.16849 0.00375
0 0.1 1.16849 0.00375
0.0318387 0.1 -1.16849 0.00375181
0.0318387 0.1 1.16849 0.0037518
0.522972 0.1 -1.05 0.00372437
0.522972 0.1 1.05 0.00372424
0.835106 0.1 -0.825 0.00369138
0.835106 0.1 0.825 0.00369135
0.350249 0.1 -1.125 0.00374361
0.350249 0.1 1.125 0.00374352
0.969689 0.1 -0.675 0.0037036
0.969689 0.1 0.675 0.00370361
0.67013 0.1 -0.975 0.00370495
0.67013 0.1 0.975 0.00370482
1.18208 0.1 0.0658959 0.00379527
1.18208 0.1 -0.0658959 0.00379523
1.15879 0.1 0.267294 0.003777
1.15879 0.1 -0.268241 0.00377691
0.938924 0.1 0.742997 0.00369423
1.18208 0.1 -0.197687 0.00378868
1.18208 0.1 0.197687 0.00378876
0 0.1 -1.2 0.00375
0 0.1 1.2 0.00375
0.938924 0.1 -0.75 0.00369523
0.797393 0.1 -0.9 0.00369179
0.797393 0.1 0.9 0.00369172
0.150525 0.1 -1.2 0.00375303
0.150525 0.1 1.2 0.00375299
1.11155 0.1 -0.485959 0.00373955
1.11155 0.1 0.485959 0.00373968
1.21556 0.1 -4.06576e-19 0.00381648
1.15879 0.1 0.37237 0.00376762
0.467897 0.1 -1.125 0.00373092
0.467897 0.1 1.125 0.0037308
1.07753 0.1 -0.568989 0.00372496
1.07753 0.1 0.568989 0.00372507
0.6239 0.1 -1.05 0.00371045
0.6239 0.1 1.05 0.00371033
1.21556 0.1 0.128394 0.00381267
1.21556 0.1 -0.128444 0.0038126
0.90582 0.1 -0.825 0.00368769
0.905821 0.1 0.825 0.00368773
1.15879 0.1 -0.402362 0.00376415
1.18208 0.1 -0.329479 0.0037771
1.18208 0.1 0.329479 0.00377721
1.03609 0.1 -0.65876 0.00370908
1.03609 0.1 0.65876 0.00370908
0 0.1 -1.23151 0.00375
0 0.1 1.23151 0.00375
0.0318387 0.1 -1.23151 0.00375177
0.0318387 0.1 1.23151 0.00375176
0.287505 0.1 1.2 0.00374755
0.287505 0.1 -1.2 0.00374762
0.756813 0.1 -0.975 0.00369307
0.756813 0.1 0.975 0.00369298
1.21556 0.1 0.256787 0.00380214
1.21556 0.1 -0.256887 0.00380202
0.99151 0.1 0.75 0.00369358
1.24616 0.1 -0.0626919 0.00383238
1.24616 0.1 0.0626919 0.00383243
0.99151 0.1 -0.760504 0.00369533
0.871758 0.1 -0.9 0.00368505
0.871758 0.1 0.9 0.00368505
1.24616 0.1 -0.188076 0.00382386
1.24616 0.1 0.188076 0.00382397
0.574156 0.1 1.125 0.00371623
0.574156 0.1 -1.125 0.00371635
0.411227 0.1 -1.2 0.00373678
0.411227 0.1 1.2 0.00373669
1.18208 0.1 -0.461271 0.00376238
1.18208 0.1 0.461271 0.00376251
1.26973 0.1 -3.46945e-17 0.00386103
0.715059 0.1 -1.05 0.00369718
0.715059 0.1 1.05 0.00369707
0.969689 0.1 -0.825 0.00368906
0.96969 0.1 0.825 0.00368918
1.2155 0.1 0.384884 0.00378728
1.11155 0.1 -0.624804 0.00372558
1.11155 0.1 0.624804 0.00372579
1.21556 0.1 -0.385405 0.00378709
1.26973 0.1 -0.123027 0.00385523
1.26973 0.1 0.123027 0.00385549
1.15879 0.1 -0.536483 0.00375291
1.15879 0.1 0.536483 0.00374854
0.075776 0.1 -1.275 0.00375404
0.075776 0.1 1.275 0.00375402
0.835106 0.1 -0.975 0.00368349
0.835106 0.1 0.975 0.00368344
1.24616 0.1 0.313459 0.00380926
1.24616 0.1 -0.313459 0.00380909
1.07753 0.1 -0.711236 0.00370886
1.07753 0.1 0.711236 0.00370903
1.26973 0.1 -0.246055 0.00384006
1.26973 0.1 0.246055 0.00384053
0.219993 0.1 1.275 0.00375176
0.219993 0.1 -1.275 0.0037518
0.938924 0.1 -0.9 0.00368207
0.938924 0.1 0.9 0.00368215
1.30421 0.1 -0.0597894 0.00389476
1.30421 0.1 0.0597894 0.00389497
0.522972 0.1 -1.2 0.00372279
0.522972 0.1 1.2 0.00372268
0.67013 0.1 -1.125 0.00370172
0.67013 0.1 1.125 0.00370161
1.03609 0.1 0.805151 0.00369246
1.03609 0.1 -0.805151 0.00369228
1.30421 0.1 -0.179368 0.00388064
1.30421 0.1 0.179368 0.00388116
0.797393 0.1 -1.05 0.00368556
0.797393 0.1 1.05 0.00368549
0 0.1 -1.31849 0.00375
0 0.1 1.31849 0.00375
0.0318387 0.1 -1.31849 0.00375177
0.0318387 0.1 1.31849 0.00375176
1.2155 0.1 -0.513636 0.00377014
1.21591 0.1 0.513636 0.00376982
1.24616 0.1 0.438843 0.0037912
1.24616 0.1 -0.438843 0.00379104
0.350249 0.1 -1.275 0.00374298
0.350249 0.1 1.275 0.0037429
1.26973 0.1 0.369082 0.00382135
1.18208 0.1 -0.593062 0.00374641
1.18208 0.1 0.593062 0.00374652
1.2659 0.1 -0.393285 0.00381959
0.905821 0.1 -0.975 0.00367612
0.90582 0.1 0.975 0.00367615
1.3344 0.1 0 0.00398895
1.15406 0.1 -0.670604 0.00373204
1.30421 0.1 0.298947 0.00385828
1.30421 0.1 -0.298947 0.00385756
1.15879 0.1 0.670604 0.00373096
0.99151 0.1 -0.9 0.00367902
0.99151 0.1 0.9 0.00367916
1.3344 0.1 -0.11656 0.00397539
1.3344 0.1 0.11656 0.00397556
1.11155 0.1 -0.76365 0.00371042
1.11155 0.1 0.76365 0.00370704
0 0.1 -1.35 0.00375
0 0.1 1.35 0.00375
0.6239 0.1 -1.2 0.00370772
0.6239 0.1 1.2 0.00370761
1.3344 0.1 -0.23312 0.00394151
1.3344 0.1 0.23312 0.00394188
0.756814 0.1 1.125 0.00368803
0.756814 0.1 -1.125 0.00368813
0.467897 0.1 -1.275 0.00372959
0.467897 0.1 1.275 0.00372949
0.150525 0.1 1.35 0.00375274
0.150525 0.1 -1.35 0.00375277
1.35938 0.1 -0.0570311 0.00400817
1.35938 0.1 0.0570311 0.00400825
1.26973 0.1 -0.492109 0.00379887
1.26973 0.1 0.492109 0.00379775
0.871758 0.1 -1.05 0.00367598
0.871758 0.1 1.05 0.00367594
1.24616 0.1 -0.564227 0.00377181
1.24616 0.1 0.564227 0.00377186
1.30421 0.1 -0.418526 0.00383115
1.30421 0.1 0.418526 0.00384195
1.35938 0.1 -0.171093 0.0039801
1.35938 0.1 0.171093 0.0039804
1.07753 0.1 -0.853484 0.00368883
1.07753 0.1 0.853484 0.00368907
1.21591 0.1 -0.642045 0.00375078
1.21591 0.1 0.642045 0.00375094
0.969689 0.1 -0.975 0.00367363
0.969689 0.1 0.975 0.00367373
1.3344 0.1 0.34968 0.00389983
1.3344 0.1 -0.34968 0.00389945
0.287505 0.1 1.35 0.00374704
0.287505 0.1 -1.35 0.00374711
0 0.1 -1.38151 0.00375
0 0.1 1.38151 0.00375
0.0318387 0.1 1.38151 0.00375163
0.0318387 0.1 -1.38151 0.00375163
1.18208 0.1 -0.724854 0.0037265
1.18208 0.1 0.724854 0.00372676
1.35938 0.1 -0.285156 0.00393693
1.35938 0.1 0.285156 0.00393746
1.39501 0.1 -1.73472e-17 0.00434567
0.715059 0.1 1.2 0.00369294
0.715059 0.1 -1.2 0.00369305
0.574156 0.1 1.275 0.00371396
0.574156 0.1 -1.275 0.00371407
1.39501 0.1 -0.110499 0.00430289
1.39501 0.1 0.110499 0.00430277
0.835106 0.1 -1.125 0.00367641
0.835106 0.1 1.125 0.00367634
1.03609 0.1 -0.951542 0.00367144
1.03609 0.1 0.951542 0.00367371
0.938924 0.1 1.05 0.00366964
1.15879 0.1 -0.804724 0.00370873
1.15879 0.1 0.804724 0.00370903
1.30421 0.1 0.538105 0.00380489
1.30421 0.1 -0.538105 0.00380864
1.26973 0.1 -0.615137 0.00377498
1.26973 0.1 0.615137 0.00377545
0.411227 0.1 1.35 0.00373562
0.411227 0.1 -1.35 0.00373571
1.39389 0.1 -0.221221 0.00419482
1.41134 0.1 -0.0544329 0.00441888
1.41134 0.1 0.0544329 0.0044187
1.39501 0.1 0.220998 0.00419892
1.3344 0.1 0.46624 0.00385797
1.3344 0.1 -0.46624 0.00385781
0.938924 0.1 -1.0605 0.00366984
1.35938 0.1 -0.399218 0.00389109
1.35938 0.1 0.399218 0.00389128
1.41134 0.1 -0.163299 0.00432176
1.41134 0.1 0.163299 0.00432149
1.24616 0.1 -0.68961 0.00375129
1.24616 0.1 0.68961 0.0037515
0.075776 0.1 -1.425 0.00375372
0.075776 0.1 1.425 0.00375372
1.11155 0.1 -0.902495 0.00368461
1.11155 0.1 0.902495 0.00368498
1.39389 0.1 -0.331832 0.00407698
1.39501 0.1 0.331497 0.00408092
1.43681 0.1 -1.56125e-18 0.00535487
1.41134 0.1 -0.272165 0.00418312
1.41134 0.1 0.272165 0.00418382
1.21591 0.1 -0.770454 0.00372795
1.21591 0.1 0.770454 0.00372825
0.67013 0.1 -1.275 0.00369823
0.67013 0.1 1.275 0.00369812
1.43681 0.1 0.106319 0.00524517
0.797393 0.1 -1.2 0.0036798
0.797393 0.1 1.2 0.00367971
1.43713 0.1 -0.107481 0.00526137
0.219992 0.1 1.425 0.00375148
0.219993 0.1 -1.425 0.00375153
0.99151 0.1 1.05 0.00366309
0.99151 0.1 -1.05 0.00366452
0.90582 0.1 -1.125 0.00366646
0.90582 0.1 1.125 0.00366642
0.522972 0.1 1.35 0.00372081
0.522972 0.1 -1.35 0.00372091
1.43681 0.1 0.212638 0.0049588
1.43681 0.1 -0.212638 0.00509418
1.35938 0.1 -0.51328 0.00385281
1.35938 0.1 0.51328 0.00385171
1.3344 0.1 0.582801 0.0038218
1.3344 0.1 -0.582801 0.0038218
1.45847 0.1 -0.0520767 0.00592333
1.45847 0.1 0.0520767 0.00592613
1.18208 0.1 -0.856645 0.00370193
1.18208 0.1 0.856645 0.00370229
1.30421 0.1 0.657684 0.00378056
1.30421 0.1 -0.657684 0.00378018
1.41134 0.1 0.38103 0.00405633
1.41134 0.1 -0.38103 0.00405581
1.39423 0.1 -0.441996 0.00398466
1.39501 0.1 0.441996 0.00398181
1.45847 0.1 -0.15623 0.00561177
1.45847 0.1 0.15623 0.00561726
1.07753 0.1 -0.995731 0.00366772
1.07753 0.1 0.995731 0.00366796
0.350249 0.1 -1.425 0.00374219
0.350249 0.1 1.425 0.00374211
0 0.1 1.46849 0.00375
0 0.1 -1.46849 0.00375
1.26973 0.1 -0.738164 0.00375062
1.26973 0.1 0.738164 0.00375135
0.0318387 0.1 1.46849 0.00375163
0.0318387 0.1 -1.46849 0.00375163
1.43681 0.1 -0.318958 0.00470775
1.43681 0.1 0.318958 0.00460484
1.45847 0.1 -0.260383 0.00512209
1.45847 0.1 0.260383 0.00512683
1.48215 0.1 -7.80626e-18 0.00769251
0.756814 0.1 -1.275 0.00368333
0.756814 0.1 1.275 0.00368322
0.871758 0.1 1.2 0.00366826
0.969689 0.1 1.125 0.00366056
0.969689 0.1 -1.125 0.00366056
1.48215 0.1 0.101785 0.00748787
1.48215 0.1 -0.117861 0.00747197
0.6239 0.1 1.35 0.00370469
0.6239 0.1 -1.35 0.0037048
1.24616 0.1 -0.814994 0.00372553
1.24616 0.1 0.814994 0.00372588
1.15879 0.1 -0.938845 0.00368363
1.15879 0.1 0.938845 0.003684
0.871758 0.1 -1.2105 0.00366857
1.41134 0.1 0.489896 0.00395295
1.41134 0.1 -0.489896 0.00395283
1.48215 0.1 0.203569 0.00690801
1.48215 0.1 -0.203569 0.00687954
1.43447 0.1 -0.4286 0.00435646
1.35938 0.1 0.627342 0.00381667
1.35938 0.1 -0.627342 0.00381505
1.43713 0.1 0.423956 0.00430327
1.39501 0.1 0.550542 0.00390035
0.467897 0.1 1.425 0.00372798
0.467897 0.1 -1.425 0.00372808
0 0.1 -1.5 0.00375
0 0.1 1.5 0.00375
1.39501 0.1 -0.552495 0.00392097
1.45847 0.1 0.364537 0.00463111
1.45847 0.1 -0.364537 0.00462904
0.150525 0.1 -1.49579 0.00375242
0.150525 0.1 1.49579 0.0037524
1.3344 0.1 0.699361 0.00379007
1.3344 0.1 -0.699361 0.00379002
1.5079 0.1 -0.0496053 0.00962069
1.5079 0.1 0.0496053 0.00963131
1.03609 0.1 -1.09793 0.00365628
1.03609 0.1 1.09793 0.00365653
1.21591 0.1 -0.898862 0.00370088
1.21591 0.1 0.898862 0.00370131
1.48215 0.1 -0.305354 0.00606326
1.48215 0.1 0.305354 0.00609274
1.5079 0.1 -0.148816 0.00910941
1.5079 0.1 0.148816 0.00914597
1.30421 0.1 0.777263 0.00375348
1.30421 0.1 -0.777263 0.00375294
0 0.1 -1.51887 0.00375
0 0.1 1.51887 0.00375
0.0318387 0.1 -1.51887 0.00375149
0.0318387 0.1 1.51887 0.00375149
0.934451 0.1 -1.2 0.00366119
1.11155 0.1 -1.04134 0.00366223
1.11155 0.1 1.04134 0.00366257
0.287505 0.1 -1.49579 0.00374651
0.287505 0.1 1.49579 0.00374645
1.52332 0.1 0 0.0111356
0.938924 0.1 1.2 0.00365963
0.835106 0.1 -1.275 0.00367028
0.835106 0.1 1.275 0.00367018
1.52332 0.1 -0.0976682 0.0108834
1.52332 0.1 0.0976682 0.0109096
0.715059 0.1 -1.35 0.00368886
0.715059 0.1 1.35 0.00368875
1.5079 0.1 -0.248026 0.00817948
1.5079 0.1 0.248026 0.00823202
1.43482 0.1 -0.532589 0.00412125
1.43681 0.1 0.529458 0.00410458
1.45847 0.1 0.46869 0.00426191
1.45847 0.1 -0.46869 0.00426172
1.39501 0.1 0.634239 0.00385841
1.41134 0.1 0.598762 0.00388087
1.41134 0.1 -0.598762 0.003881
1.26973 0.1 -0.861191 0.0037218
1.26973 0.1 0.861191 0.00372282
1.52332 0.1 -0.195336 0.0101593
1.52332 0.1 0.195336 0.0102147
0.574156 0.1 -1.425 0.00371169
0.574156 0.1 1.425 0.00371159
1.48215 0.1 0.407138 0.00525033
1.48215 0.1 -0.407138 0.0052316
1.18208 0.1 -0.988436 0.00367495
1.18208 0.1 0.988436 0.00367537
1.54306 0.1 -0.0478469 0.0126094
1.54306 0.1 0.0478469 0.012622
1.39501 0.1 -0.662994 0.00384315
0.075776 0.1 1.5449 0.00375338
0.075776 0.1 -1.5449 0.00375337
1.5079 0.1 0.347237 0.00705145
1.5079 0.1 -0.347237 0.0070002
1.35938 0.1 0.741404 0.00378195
1.35938 0.1 -0.741404 0.00378373
1.54306 0.1 0.143541 0.0121572
1.54306 0.1 -0.143541 0.0121056
1.52332 0.1 -0.293005 0.00901228
1.52332 0.1 0.293005 0.00908796
0.411227 0.1 -1.49579 0.00373459
0.411227 0.1 1.49579 0.00373451
0.99151 0.1 1.2 0.00365045
0.99151 0.1 -1.2 0.00365081
0.219992 0.1 -1.5449 0.00375114
0.219992 0.1 1.54491 0.00375111
1.24616 0.1 0.940377 0.00369616
1.24616 0.1 -0.940377 0.00369566
1.54306 0.1 -0.239234 0.0110952
1.54306 0.1 0.239234 0.0111823
1.56215 0.1 0 0.0138511
0.905821 0.1 -1.275 0.00365888
0.90582 0.1 1.275 0.0036588
1.3344 0.1 0.815921 0.00375761
1.3344 0.1 -0.815921 0.00375734
1.56215 0.1 -0.0937847 0.0136783
1.56215 0.1 0.0937847 0.0137022
1.45847 0.1 0.572843 0.00404185
1.45847 0.1 -0.572843 0.00404123
1.48215 0.1 0.50873 0.00458487
1.48215 0.1 -0.508922 0.00457787
1.07753 0.1 -1.13798 0.00364991
1.07753 0.1 1.13798 0.00365004
0.797393 0.1 -1.35 0.0036741
0.797393 0.1 1.35 0.003674
1.43681 0.1 0.631185 0.00395711
1.43482 0.1 -0.639106 0.00396837
0 0.1 -1.57094 0.00375
0 0.1 1.57094 0.00375
0.0318387 0.1 1.57094 0.00375149
0.0318387 0.1 -1.57094 0.00375149
1.5079 0.1 -0.446447 0.00583369
1.5079 0.1 0.446447 0.00586621
1.52332 0.1 -0.390673 0.0075853
1.52332 0.1 0.390673 0.00766122
1.56215 0.1 -0.187569 0.0131468
1.56215 0.1 0.187569 0.0132025
0.67013 0.1 -1.425 0.00369473
0.67013 0.1 1.425 0.00369463
1.41134 0.1 -0.707628 0.00382937
1.41134 0.1 0.707628 0.00382915
1.54306 0.1 -0.334929 0.0095859
1.54306 0.1 0.334929 0.00970575
1.15879 0.1 -1.07296 0.00366027
1.15879 0.1 1.07296 0.00366058
1.58081 0.1 -0.0459594 0.0147834
1.58081 0.1 0.0459594 0.0147909
1.30421 0.1 0.896841 0.00372265
1.30421 0.1 -0.896841 0.0037219
0.350249 0.1 -1.5449 0.00374143
0.350249 0.1 1.5449 0.00374137
0.522972 0.1 -1.49579 0.00371914
0.522972 0.1 1.49579 0.00371905
1.58081 0.1 0.137878 0.0145837
1.58081 0.1 -0.137878 0.01455
1.56215 0.1 -0.281354 0.0121804
1.56215 0.1 0.281354 0.012273
0 0.1 -1.58981 0.00375
0 0.1 1.58981 0.00375
1.21591 0.1 -1.02727 0.00367424
1.21591 0.1 1.02727 0.00367467
1.39501 0.1 -0.773493 0.00379896
1.39501 0.1 0.773493 0.0037966
1.58081 0.1 -0.229797 0.0139981
1.58081 0.1 0.229797 0.0140652
0.150525 0.1 -1.59139 0.00375207
0.150525 0.1 1.59139 0.00375206
1.47987 0.1 0.607126 0.00418942
1.52332 0.1 -0.488341 0.00615357
1.52332 0.1 0.488341 0.0062047
0.96969 0.1 -1.275 0.00365129
0.96969 0.1 1.275 0.00365119
1.54306 0.1 -0.430622 0.00777225
1.54306 0.1 0.430622 0.00788215
1.60258 0.1 -2.31296e-18 0.0149189
1.48215 0.1 -0.610707 0.00417383
1.5079 0.1 -0.545658 0.00491927
1.5079 0.1 0.545658 0.0049357
1.60258 0.1 -0.0897424 0.0148933
1.60258 0.1 0.0897424 0.0148987
0.868457 0.1 -1.35 0.00366193
1.35938 0.1 0.855467 0.0037512
1.35938 0.1 -0.855467 0.00375078
1.26973 0.1 0.984219 0.00369342
1.26973 0.1 -0.984219 0.00369235
1.56215 0.1 -0.375139 0.0107223
1.56215 0.1 0.375139 0.0108469
0.871758 0.1 1.35 0.00366081
1.45847 0.1 0.676997 0.0039161
1.45847 0.1 -0.676997 0.00391605
1.60258 0.1 -0.179485 0.0147712
1.60258 0.1 0.179485 0.0147899
1.58081 0.1 -0.321716 0.0129766
1.58081 0.1 0.321716 0.0130953
0 0.1 -1.61341 0.00375
0 0.1 1.61341 0.00375
0.756814 0.1 1.425 0.00367831
0.756814 0.1 -1.425 0.00367841
0.0318387 0.1 -1.61341 0.00375136
0.0318387 0.1 1.61341 0.00375136
0.467897 0.1 -1.5449 0.00372695
0.467897 0.1 1.5449 0.00372688
1.6146 0.1 0.0442702 0.0150949
1.6146 0.1 -0.0442702 0.0150966
1.43447 0.1 0.744235 0.00384876
0.287505 0.1 -1.59139 0.00374596
0.287505 0.1 1.59139 0.00374592
1.43681 0.1 -0.744235 0.00386692
1.03609 0.1 -1.24433 0.00364353
1.03609 0.1 1.24433 0.00364365
1.6146 0.1 -0.132811 0.0151254
1.6146 0.1 0.132811 0.0151255
0.6239 0.1 -1.49579 0.00370221
0.6239 0.1 1.49579 0.00370212
1.11155 0.1 1.18019 0.00364539
1.11155 0.1 -1.18019 0.00364522
1.60258 0.1 -0.269227 0.0144271
1.60258 0.1 0.269227 0.0144744
1.3344 0.1 -0.932481 0.00372467
1.3344 0.1 0.932481 0.00372517
1.18208 0.1 -1.12023 0.00365278
1.18208 0.1 1.12023 0.00365306
1.6146 0.1 0.221351 0.0150941
1.6146 0.1 -0.221351 0.0150824
1.54306 0.1 -0.526316 0.00605818
1.54306 0.1 0.526316 0.00611889
1.41134 0.1 -0.816493 0.00378717
1.41134 0.1 0.816493 0.00378728
1.56215 0.1 -0.468924 0.00886023
1.56215 0.1 0.468924 0.00898836
1.63192 0.1 -2.60209e-19 0.0143135
1.52332 0.1 0.586009 0.00504633
1.52332 0.1 -0.586009 0.00502506
1.58081 0.1 0.413635 0.0115023
1.58081 0.1 -0.413635 0.0113353
1.63192 0.1 -0.0868082 0.014366
1.63192 0.1 0.0868082 0.0143587
1.24616 0.1 1.06576 0.00366966
1.24616 0.1 -1.06576 0.00366922
1.5079 0.1 0.644868 0.00459267
1.5079 0.1 -0.644868 0.00433983
1.63192 0.1 -0.173616 0.0144809
1.63192 0.1 0.173616 0.0144714
1.60258 0.1 -0.35897 0.0136665
1.60258 0.1 0.35897 0.0137623
1.48063 0.1 0.711426 0.00395668
0.411227 0.1 -1.59139 0.0037337
0.411227 0.1 1.59139 0.00373365
1.6146 0.1 0.309891 0.0148503
1.6146 0.1 -0.309891 0.0148023
0.938924 0.1 -1.35 0.00365003
0.938924 0.1 1.35 0.00364995
1.47568 0.1 -0.729962 0.00396264
1.64669 0.1 -0.0426655 0.0138968
1.64669 0.1 0.0426655 0.0138901
0.075776 0.1 -1.64598 0.00375307
0.075776 0.1 1.64598 0.00375308
0.574156 0.1 1.5449 0.00370997
0.574156 0.1 -1.54491 0.00371004
1.39501 0.1 -0.883992 0.00376184
1.39501 0.1 0.883992 0.00376214
1.64669 0.1 -0.127997 0.0140638
1.64669 0.1 0.127997 0.0140452
0.835106 0.1 -1.425 0.0036634
0.835106 0.1 1.425 0.0036633
1.63192 0.1 -0.260425 0.0145663
1.63192 0.1 0.260425 0.0145673
1.30421 0.1 1.01642 0.00369252
1.30421 0.1 -1.01642 0.00369166
1.45847 0.1 0.78115 0.00383864
1.45847 0.1 -0.78115 0.0038387
0.715059 0.1 -1.49579 0.00368531
0.715059 0.1 1.49579 0.00368522
1.58081 0.1 0.505554 0.00933127
1.58081 0.1 -0.505554 0.00915244
1.56215 0.1 0.562708 0.00702051
1.56215 0.1 -0.562708 0.00692743
1.64669 0.1 -0.213328 0.0143417
1.64669 0.1 0.213328 0.0143173
0.219992 0.1 -1.64598 0.00375073
0.219992 0.1 1.64598 0.00375071
1.66173 0.1 -6.07153e-18 0.0130234
1.6146 0.1 0.398432 0.0141231
1.6146 0.1 -0.398432 0.0140125
1.54306 0.1 0.62201 0.00488963
1.54306 0.1 -0.62201 0.00485183
1.66173 0.1 0.0836532 0.0131003
1.66173 0.1 -0.0838266 0.0131121
1.60258 0.1 -0.448712 0.0122773
1.60258 0.1 0.448712 0.0124276
1.43482 0.1 0.849874 0.00379638
1.63192 0.1 -0.347233 0.0144515
1.63192 0.1 0.347233 0.014486
1.43681 0.1 -0.850554 0.00380604
1.35938 0.1 -0.969529 0.00371922
1.35938 0.1 0.969529 0.00371987
1.52332 0.1 0.683677 0.00434281
1.52332 0.1 -0.683677 0.00433801
1.66173 0.1 0.167307 0.0133344
1.66173 0.1 -0.167654 0.0133567
1.15879 0.1 -1.20709 0.0036385
1.15879 0.1 1.20709 0.00363869
1.07753 0.1 -1.28023 0.00363347
1.07753 0.1 1.28023 0.00363351
1.64669 0.1 -0.298659 0.0146483
1.64669 0.1 0.298659 0.0146306
0.99151 0.1 1.35 0.00363782
0.99151 0.1 -1.35 0.00363831
0.522972 0.1 -1.59139 0.00371783
0.522972 0.1 1.59139 0.00371777
1.21591 0.1 -1.15568 0.00364774
1.21591 0.1 1.15568 0.0036481
0 0.1 1.67855 0.00375
0 0.1 -1.67855 0.00375
0.0318387 0.1 -1.67855 0.00375136
0.0318387 0.1 1.67855 0.00375136
1.66173 0.1 0.25096 0.0136944
1.66173 0.1 -0.25148 0.0137219
1.5079 0.1 0.744078 0.00402917
1.5079 0.1 -0.744078 0.0040277
1.68117 0.1 0.0409413 0.0119261
1.68117 0.1 -0.0409413 0.0119327
0.350249 0.1 1.64598 0.0037407
0.350249 0.1 -1.64598 0.00374074
0.67013 0.1 1.5449 0.00369241
0.67013 0.1 -1.5449 0.00369249
1.26973 0.1 -1.10725 0.00366099
1.26973 0.1 1.10725 0.00366218
1.68117 0.1 0.122824 0.0120893
1.68117 0.1 -0.122824 0.0121095
1.6146 0.1 -0.486972 0.0124155
1.6146 0.1 0.486972 0.0125965
1.41134 0.1 -0.92536 0.00375318
1.41134 0.1 0.92536 0.00375355
1.47568 0.1 -0.81945 0.00385683
0.90582 0.1 -1.425 0.00364981
0.905821 0.1 1.425 0.00364972
1.63192 0.1 -0.434041 0.013858
1.63192 0.1 0.434041 0.0139523
1.48063 0.1 0.813058 0.00385367
1.58081 0.1 0.597472 0.00721663
1.58081 0.1 -0.597472 0.00690441
1.60258 0.1 0.538454 0.0105567
1.60258 0.1 -0.538454 0.0102076
1.69082 0.1 0 0.0115077
1.64669 0.1 -0.38399 0.0147823
1.64669 0.1 0.38399 0.0148002
1.69082 0.1 0.0809177 0.0115812
1.69082 0.1 -0.0809177 0.0115931
1.68117 0.1 -0.204707 0.012468
1.68117 0.1 0.204707 0.0124309
1.56215 0.1 0.656493 0.00541093
1.56215 0.1 -0.656493 0.00537052
0.797393 0.1 -1.49579 0.00366938
0.797393 0.1 1.49579 0.0036693
1.66173 0.1 0.334613 0.0141025
1.66173 0.1 -0.335306 0.0141194
1.3344 0.1 -1.04904 0.00368738
1.3344 0.1 1.04904 0.00368807
1.69082 0.1 0.161835 0.01182
1.69082 0.1 -0.161835 0.0118459
1.54306 0.1 0.717704 0.00422386
1.54306 0.1 -0.717704 0.00421882
0 0.1 -1.70215 0.00375
0 0.1 1.70215 0.00375
1.7036 0.1 -0.0398197 0.0108674
1.7036 0.1 0.0398197 0.0108625
1.68117 0.1 0.286589 0.0129442
1.68117 0.1 -0.286589 0.0129953
1.45847 0.1 0.885303 0.0037918