# kMean  POINT_DATA 18174
# x  y  z  kMean
0 0.5 -2.35744e-17 0.00375
0 0.5 -0.0544472 0.00375
0 0.5 0.0544472 0.00375
0 0.5 0.0955528 0.00375
0 0.5 -0.0955528 0.00375
0.075776 0.5 -0.075 0.00375205
0.075776 0.5 0.075 0.00375204
0 0.5 -0.15 0.00375
0 0.5 0.15 0.00375
0.151552 0.5 1.3433e-17 0.00375458
0 0.5 -0.204447 0.00375
0 0.5 0.204447 0.00375
0.151552 0.5 -0.15 0.00375477
0.151552 0.5 0.15 0.00375475
0.219992 0.5 -0.075 0.00375738
0.219992 0.5 0.075 0.00375737
0.075776 0.5 -0.225 0.00375224
0.075776 0.5 0.225 0.00375222
0 0.5 -0.245553 0.00375
0 0.5 0.245553 0.00375
0.288433 0.5 -2.35744e-17 0.00376185
0 0.5 -0.3 0.00375
0 0.5 0.3 0.00375
0.219992 0.5 -0.225 0.00375791
0.219992 0.5 0.225 0.00375786
0.288433 0.5 -0.15 0.00376213
0.288433 0.5 0.15 0.00376209
0.151552 0.5 -0.3 0.00375529
0.151552 0.5 0.3 0.00375525
0 0.5 -0.354447 0.00375
0 0.5 0.354447 0.00375
0.350249 0.5 0.075 0.00376674
0.350249 0.5 -0.075 0.00376676
0.075776 0.5 -0.375 0.00375259
0.075776 0.5 0.375 0.00375257
0 0.5 -0.395553 0.00375
0 0.5 0.395553 0.00375
0.412065 0.5 -2.86452e-17 0.00377347
0.288433 0.5 -0.3 0.00376292
0.288433 0.5 0.3 0.00376284
0.350249 0.5 0.225 0.00376724
0.350249 0.5 -0.225 0.0037673
0.219992 0.5 -0.375 0.00375881
0.219992 0.5 0.375 0.00375874
0.412065 0.5 -0.15 0.0037737
0.412065 0.5 0.15 0.00377365
0 0.5 -0.45 0.00375
0 0.5 0.45 0.00375
0.467897 0.5 -0.075 0.00378058
0.467897 0.5 0.075 0.00378056
0.151552 0.5 -0.45 0.00375599
0.151552 0.5 0.45 0.00375594
0 0.5 -0.504447 0.00375
0 0.5 0.504447 0.00375
0.412065 0.5 -0.3 0.00377435
0.412065 0.5 0.3 0.00377426
0.350249 0.5 -0.375 0.00376832
0.350249 0.5 0.375 0.00376822
0.467897 0.5 0.225 0.00378081
0.467897 0.5 -0.225 0.00378089
0.523729 0.5 -2.35744e-17 0.00378937
0.075776 0.5 -0.525 0.00375298
0.075776 0.5 0.525 0.00375295
0.288433 0.5 -0.45 0.00376396
0.288433 0.5 0.45 0.00376386
0.523729 0.5 -0.15 0.00378943
0.523729 0.5 0.15 0.00378938
0 0.5 -0.545553 0.00375
0 0.5 0.545553 0.00375
0.219992 0.5 -0.525 0.00375982
0.219992 0.5 0.525 0.00375974
0.574156 0.5 -0.075 0.00379847
0.574156 0.5 0.075 0.00379844
0.467897 0.5 -0.375 0.00378151
0.467897 0.5 0.375 0.0037814
0 0.5 -0.6 0.00375
0 0.5 0.6 0.00375
0.523729 0.5 -0.3 0.0037896
0.523729 0.5 0.3 0.0037895
0.412065 0.5 -0.45 0.0037752
0.412065 0.5 0.45 0.00377508
0.574156 0.5 -0.225 0.00379833
0.574156 0.5 0.225 0.00379826
0.151552 0.5 -0.6 0.00375667
0.151552 0.5 0.6 0.00375662
0.624584 0.5 -2.35744e-17 0.00380911
0.350249 0.5 -0.525 0.00376935
0.350249 0.5 0.525 0.00376924
0.624584 0.5 -0.15 0.0038089
0.624584 0.5 0.15 0.00380886
0 0.5 -0.654447 0.00375
0 0.5 0.654447 0.00375
0.288433 0.5 -0.6 0.00376492
0.288433 0.5 0.6 0.00376482
0.67013 0.5 -0.075 0.00381995
0.67013 0.5 0.075 0.00381993
0.075776 0.5 0.675 0.00375328
0.075776 0.5 -0.675 0.00375331
0.574156 0.5 -0.375 0.00379814
0.574156 0.5 0.375 0.00379802
0.523729 0.5 -0.45 0.00378979
0.523729 0.5 0.45 0.00378966
0.624584 0.5 -0.3 0.00380831
0.624584 0.5 0.3 0.00380821
0 0.5 -0.695553 0.00375
0 0.5 0.695553 0.00375
0.467897 0.5 -0.525 0.00378204
0.467897 0.5 0.525 0.00378191
0.67013 0.5 0.225 0.00381915
0.67013 0.5 -0.225 0.00381922
0.219992 0.5 -0.675 0.00376068
0.219992 0.5 0.675 0.0037606
0.715676 0.5 -3.28263e-17 0.00383223
0.412065 0.5 -0.6 0.00377585
0.412065 0.5 0.6 0.00377573
0.715676 0.5 -0.15 0.00383169
0.715676 0.5 0.15 0.00383164
0 0.5 -0.75 0.00375
0 0.5 0.75 0.00375
0.350249 0.5 0.675 0.00377002
0.350249 0.5 -0.675 0.00377014
0.756813 0.5 0.075 0.00384456
0.756814 0.5 -0.075 0.00384458
0.151552 0.5 -0.75 0.00375719
0.151552 0.5 0.75 0.00375713
0.67013 0.5 -0.375 0.00381789
0.67013 0.5 0.375 0.00381778
0.624584 0.5 -0.45 0.00380748
0.624584 0.5 0.45 0.00380735
0.715676 0.5 -0.3 0.00383012
0.715676 0.5 0.3 0.00383003
0.574156 0.5 0.525 0.00379766
0.574156 0.5 -0.525 0.0037978
0.756813 0.5 -0.225 0.00384313
0.756813 0.5 0.225 0.00384307
0.523729 0.5 -0.6 0.00378963
0.523729 0.5 0.6 0.0037895
0.797951 0.5 -2.43973e-17 0.00385825
0.288433 0.5 -0.75 0.0037656
0.288433 0.5 0.75 0.0037655
0 0.5 -0.804447 0.00375
0 0.5 0.804447 0.00375
0.797951 0.5 -0.15 0.0038573
0.797951 0.5 0.15 0.00385726
0.467897 0.5 -0.675 0.00378216
0.467897 0.5 0.675 0.00378203
0.075776 0.5 -0.825 0.00375353
0.075776 0.5 0.825 0.0037535
0.835106 0.5 -0.075 0.00387188
0.835106 0.5 0.075 0.00387186
0.756813 0.5 -0.375 0.00384042
0.756813 0.5 0.375 0.00384033
0.715676 0.5 -0.45 0.00382792
0.715676 0.5 0.45 0.00382779
0 0.5 -0.845553 0.00375
0 0.5 0.845553 0.00375
0.67013 0.5 -0.525 0.00381631
0.67013 0.5 0.525 0.00381617
0.797951 0.5 -0.3 0.00385457
0.797951 0.5 0.3 0.0038545
0.219992 0.5 0.825 0.00376114
0.219992 0.5 -0.825 0.00376122
0.412065 0.5 -0.75 0.00377609
0.412065 0.5 0.75 0.00377597
0.835106 0.5 -0.225 0.00386953
0.835106 0.5 0.225 0.00386947
0.624584 0.5 -0.6 0.00380611
0.624584 0.5 0.6 0.00380597
0.872262 0.5 -3.61845e-17 0.00388672
0.872262 0.5 -0.15 0.00388537
0.872262 0.5 0.15 0.00388534
0.574156 0.5 -0.675 0.00379674
0.574156 0.5 0.675 0.0037966
0.350249 0.5 -0.825 0.00377048
0.350249 0.5 0.825 0.00377038
0 0.5 -0.9 0.00375
0 0.5 0.9 0.00375
0.90582 0.5 -0.075 0.0039013
0.90582 0.5 0.075 0.00390128
0.151552 0.5 -0.9 0.00375745
0.151552 0.5 0.9 0.0037574
0.523729 0.5 -0.75 0.00378888
0.523729 0.5 0.75 0.00378875
0.835106 0.5 -0.375 0.00386526
0.835106 0.5 0.375 0.00386518
0.797951 0.5 -0.45 0.00385066
0.797951 0.5 0.45 0.00385055
0.756813 0.5 -0.525 0.00383716
0.756814 0.5 0.525 0.00383701
0.872262 0.5 -0.3 0.0038814
0.872262 0.5 0.3 0.00388134
0.90582 0.5 -0.225 0.00390203
0.90582 0.5 0.225 0.00389822
0.715676 0.5 -0.6 0.00382498
0.715676 0.5 0.6 0.00382484
0.939379 0.5 -2.35744e-17 0.00391616
0.288433 0.5 -0.9 0.00376583
0.288433 0.5 0.9 0.00376575
0.467897 0.5 -0.825 0.00378173
0.467897 0.5 0.825 0.0037816
0.67013 0.5 -0.675 0.0038137
0.67013 0.5 0.675 0.00381356
0.939379 0.5 -0.15 0.00391453
0.939379 0.5 0.15 0.0039145
0 0.5 -0.954447 0.00375
0 0.5 0.954447 0.00375
0.969689 0.5 0.075 0.00393523
0.969689 0.5 -0.075 0.00393246
0.624584 0.5 -0.75 0.00380391
0.624584 0.5 0.75 0.00380377
0.075776 0.5 -0.975 0.00375381
0.075776 0.5 0.975 0.00375358
0.90582 0.5 -0.375 0.0038957
0.90582 0.5 0.375 0.00389216
0.872262 0.5 -0.45 0.00387542
0.872262 0.5 0.45 0.00387532
0.939379 0.5 -0.3 0.00390956
0.939379 0.5 0.3 0.00390951
0.835106 0.5 0.525 0.00385974
0.835106 0.5 -0.525 0.00385988
0.412065 0.5 -0.9 0.0037758
0.412065 0.5 0.9 0.00377568
0.969689 0.5 0.225 0.00393175
0.969689 0.5 -0.225 0.00392736
0 0.5 -0.995553 0.00375
0 0.5 0.995553 0.00375
0.797951 0.5 -0.6 0.00384584
0.797951 0.5 0.6 0.0038457
0.219992 0.5 -0.975 0.00376162
0.219992 0.5 0.975 0.0037613
1 0.5 0 0.00394775
0.574156 0.5 -0.825 0.00379502
0.574156 0.5 0.825 0.00379489
1 0.5 0.15 0.00394591
1 0.5 -0.15 0.00394594
0.756813 0.5 -0.675 0.00383275
0.756813 0.5 0.675 0.00383262
1.02577 0.5 0.0737114 0.00395903
1.02577 0.5 -0.0737114 0.00395909
0.350249 0.5 -0.975 0.00377066
0.350249 0.5 0.975 0.0037702
0.715676 0.5 -0.75 0.00382096
0.715676 0.5 0.75 0.00382083
0.969689 0.5 0.375 0.0039246
0.969689 0.5 -0.375 0.00392024
0.523729 0.5 -0.9 0.00378753
0.523729 0.5 0.9 0.00378741
0.939379 0.5 -0.45 0.00390154
0.939379 0.5 0.45 0.00390145
1 0.5 0.3 0.00394035
1 0.5 -0.3 0.0039404
0.905821 0.5 0.525 0.00388414
0.905821 0.5 -0.525 0.00388741
1.02577 0.5 0.221134 0.00395526
1.02577 0.5 -0.221134 0.00395544
0 0.5 -1.05 0.00375
0 0.5 1.05 0.00375
0.872262 0.5 -0.6 0.00386841
0.872262 0.5 0.6 0.00386829
0.151552 0.5 -1.05 0.00375744
0.151552 0.5 1.05 0.0037574
0.67013 0.5 0.825 0.0038101
0.67013 0.5 -0.825 0.00381023
0.835106 0.5 -0.675 0.00385349
0.835106 0.5 0.675 0.00385337
1.07737 0.5 -2.32453e-17 0.00398642
0.467897 0.5 -0.975 0.00378125
0.467897 0.5 0.975 0.0037806
1.07737 0.5 -0.142263 0.00398451
1.07737 0.5 0.142263 0.00398449
0.288433 0.5 -1.05 0.0037656
0.288433 0.5 1.05 0.00376554
1.02577 0.5 0.368557 0.00394772
1.02577 0.5 -0.368557 0.00394801
0.797951 0.5 -0.75 0.00383973
0.797951 0.5 0.75 0.00383961
0.624584 0.5 -0.9 0.00380102
0.624584 0.5 0.9 0.00380089
1 0.5 0.45 0.00393099
1 0.5 -0.45 0.00393106
0.969689 0.5 0.525 0.00391403
0.969689 0.5 -0.525 0.00390984
0 0.5 -1.10445 0.00375
0 0.5 1.10445 0.00375
1.07737 0.5 -0.284526 0.00397874
1.07737 0.5 0.284526 0.00397872
0.939379 0.5 -0.6 0.00389219
0.939379 0.5 0.6 0.00389209
0.756813 0.5 0.825 0.00382702
0.756813 0.5 -0.825 0.00382714
1.12068 0.5 -0.0689662 0.00401146
1.12068 0.5 0.0689662 0.00401149
0.075776 0.5 -1.125 0.00375354
0.075776 0.5 1.125 0.00375352
0.412065 0.5 -1.05 0.00377494
0.412065 0.5 1.05 0.00377484
0.90582 0.5 -0.675 0.0038786
0.90582 0.5 0.675 0.00387573
0.574156 0.5 -0.975 0.00379344
0.574156 0.5 0.975 0.00379256
1.12068 0.5 0.206899 0.00400754
1.12068 0.5 -0.206899 0.00400745
0 0.5 -1.14555 0.00375
0 0.5 1.14555 0.00375
0.219992 0.5 -1.125 0.00376111
0.219993 0.5 1.125 0.00376107
1.02577 0.5 0.51598 0.00393656
1.02577 0.5 -0.51598 0.00393693
1.14932 0.5 0 0.00402826
0.715676 0.5 -0.9 0.00381609
0.715676 0.5 0.9 0.00381597
0.872262 0.5 -0.75 0.00385998
0.872262 0.5 0.75 0.00385988
1.14932 0.5 -0.135068 0.00402621
1.14932 0.5 0.135068 0.00402619
1.07737 0.5 -0.426789 0.00396896
1.07737 0.5 0.426789 0.00396894
1 0.5 0.6 0.00391978
1 0.5 -0.6 0.00391987
1.12068 0.5 -0.344831 0.00399948
1.12068 0.5 0.344831 0.00399964
1.17123 0.5 0.0664384 0.00404081
1.17123 0.5 -0.0664384 0.00404079
0.523729 0.5 -1.05 0.00378557
0.523729 0.5 1.05 0.00378547
0.835106 0.5 -0.825 0.00384544
0.835106 0.5 0.825 0.00384534
0.350249 0.5 -1.125 0.00376958
0.350249 0.5 1.125 0.00376951
1.14932 0.5 -0.270135 0.00402012
1.14932 0.5 0.270135 0.00402009
0.969689 0.5 0.675 0.00390319
0.969689 0.5 -0.675 0.00389929
0.67013 0.5 -0.975 0.00380717
0.67013 0.5 0.975 0.00380601
1.17123 0.5 -0.199315 0.0040366
1.17123 0.5 0.199315 0.00403665
0 0.5 -1.2 0.00375
0 0.5 1.2 0.00375
0.939379 0.5 -0.75 0.0038813
0.939379 0.5 0.75 0.00388121
0.797951 0.5 -0.9 0.00383254
0.797951 0.5 0.9 0.00383243
0.151552 0.5 -1.2 0.00375717
0.151552 0.5 1.2 0.00375714
1.21551 0.5 -1.04083e-18 0.0040719
1.07693 0.5 0.567129 0.00395655
1.17123 0.5 -0.332191 0.00402836
1.17123 0.5 0.332191 0.00402845
1.07737 0.5 -0.569052 0.00395671
0.467897 0.5 -1.125 0.0037791
0.467897 0.5 1.125 0.00377901
1.14932 0.5 -0.405203 0.00400984
1.14932 0.5 0.405203 0.00400979
1.12068 0.5 0.482763 0.00398763
1.12068 0.5 -0.482763 0.00398744
1.02577 0.5 0.663403 0.00392436
1.02577 0.5 -0.663403 0.0039248
0.624584 0.5 -1.05 0.00379753
0.624584 0.5 1.05 0.00379742
1.21551 0.5 -0.128449 0.00406968
1.21551 0.5 0.128449 0.00406969
0.90582 0.5 0.825 0.00386486
0.90582 0.5 -0.825 0.00386728
0.288433 0.5 -1.2 0.00376492
0.288433 0.5 1.2 0.00376487
0.756813 0.5 -0.975 0.00382222
0.756813 0.5 0.975 0.00382076
1.21551 0.5 0.256897 0.00406316
1.21551 0.5 -0.256897 0.00406315
1.24616 0.5 -0.0626919 0.00409355
1.24616 0.5 0.0626919 0.00409355
1 0.5 0.75 0.00390627
1 0.5 -0.75 0.00390636
0.872262 0.5 -0.9 0.00385008
0.872262 0.5 0.9 0.00384999
0 0.5 -1.25445 0.00375
0 0.5 1.25445 0.00375
1.17123 0.5 0.465068 0.0040159
1.17123 0.5 -0.465068 0.0040158
1.24616 0.5 -0.188076 0.00408894
1.24616 0.5 0.188076 0.00408893
0.574156 0.5 -1.125 0.00378976
0.574156 0.5 1.125 0.00378966
0.412065 0.5 -1.2 0.00377352
0.412065 0.5 1.2 0.00377345
1.26895 0.5 2.31296e-18 0.00411032
1.14932 0.5 0.540271 0.00399667
1.14932 0.5 -0.540271 0.00399673
0.715676 0.5 -1.05 0.0038107
0.715676 0.5 1.05 0.00381059
0.969689 0.5 0.825 0.00388661
0.969689 0.5 -0.825 0.00388548
1.26895 0.5 -0.123105 0.00410787
1.26895 0.5 0.123105 0.00410798
1.21551 0.5 -0.385346 0.0040522
1.21551 0.5 0.385346 0.00405223
0.075776 0.5 -1.275 0.00375335
0.075776 0.5 1.275 0.00375334
1.12068 0.5 0.620696 0.00397391
1.12068 0.5 -0.620696 0.00397398
0.835106 0.5 -0.975 0.00383843
0.835106 0.5 0.975 0.00383662
1.07187 0.5 0.707758 0.00394075
1.24616 0.5 -0.313459 0.00408005
1.24616 0.5 0.313459 0.00408003
1.07737 0.5 -0.711315 0.0039419
1.26895 0.5 -0.24621 0.00410083
1.26895 0.5 0.24621 0.00410103
0.219992 0.5 1.275 0.00376048
0.219993 0.5 -1.275 0.0037605
0 0.5 -1.29555 0.00375
0 0.5 1.29555 0.00375
0.939379 0.5 -0.9 0.00386839
0.939379 0.5 0.9 0.00386832
1.30563 0.5 -0.0597185 0.00414099
1.30563 0.5 0.0597185 0.004141
1.02577 0.5 -0.810825 0.00390874
1.02577 0.5 0.810825 0.00391003
0.523729 0.5 -1.2 0.00378306
0.523729 0.5 1.2 0.00378298
0.67013 0.5 -1.125 0.00380153
0.67013 0.5 1.125 0.00380144
1.17123 0.5 -0.597945 0.00400171
1.17123 0.5 0.597945 0.00400609
1.30563 0.5 -0.179156 0.0041359
1.30563 0.5 0.179156 0.00413591
0.797951 0.5 -1.05 0.00382493
0.797951 0.5 1.05 0.00382483
1.21605 0.5 0.510895 0.00403899
1.21551 0.5 -0.513795 0.00403814
1.24616 0.5 -0.438843 0.0040664
1.24616 0.5 0.438843 0.00406638
1.26895 0.5 0.369315 0.00408945
1.26895 0.5 -0.369315 0.00408914
0.350249 0.5 -1.275 0.00376833
0.350249 0.5 1.275 0.00376829
0.90582 0.5 -0.975 0.00385534
0.90582 0.5 0.975 0.00385582
1.14932 0.5 0.675339 0.00398118
1.14932 0.5 -0.675339 0.00398124
1.3344 0.5 0 0.00416668
1.30563 0.5 -0.298593 0.00412619
1.30563 0.5 0.298593 0.0041262
1.3344 0.5 -0.11656 0.00416397
1.3344 0.5 0.11656 0.00416398
1 0.5 -0.9 0.00389036
1 0.5 0.9 0.0038903
0 0.5 -1.35 0.00375
0 0.5 1.35 0.00375
0.624584 0.5 -1.2 0.0037936
0.624584 0.5 1.2 0.00379351
1.35183 0.5 -0.0574087 0.00418604
1.35183 0.5 0.0574087 0.00418605
1.12068 0.5 -0.758628 0.00395664
1.12068 0.5 0.758628 0.00395697
1.3344 0.5 -0.23312 0.00415615
1.3344 0.5 0.23312 0.00415615
0.756813 0.5 1.125 0.00381419
0.756814 0.5 -1.125 0.00381429
0.467897 0.5 -1.275 0.00377693
0.467897 0.5 1.275 0.00377687
0.151552 0.5 -1.35 0.00375667
0.151552 0.5 1.35 0.00375666
1.26895 0.5 0.492419 0.00407567
1.26895 0.5 -0.492419 0.00407406
1.35183 0.5 0.172226 0.00418045
1.35183 0.5 -0.172226 0.00418045
0.872262 0.5 -1.05 0.0038399
0.872262 0.5 1.05 0.0038398
1.24616 0.5 0.564227 0.00405092
1.24616 0.5 -0.564227 0.00405096
1.30563 0.5 -0.41803 0.00411143
1.30563 0.5 0.41803 0.00411145
1.07737 0.5 0.853578 0.00392349
1.07737 0.5 -0.853578 0.00392348
1.21551 0.5 0.642243 0.00402188
1.21551 0.5 -0.642243 0.00402185
0.969689 0.5 -0.975 0.00387321
0.969689 0.5 0.975 0.00387062
1.3344 0.5 -0.34968 0.00414326
1.3344 0.5 0.34968 0.00414326
0.288433 0.5 -1.35 0.00376381
0.288433 0.5 1.35 0.00376378
1.17123 0.5 -0.730821 0.00398427
1.17123 0.5 0.730821 0.00398446
1.35183 0.5 -0.287044 0.00416981
1.35183 0.5 0.287044 0.00416981
1.3856 0.5 -5.08026e-18 0.00421913
1.3856 0.5 0.111298 0.0042161
1.3856 0.5 -0.11144 0.00421609
0.715676 0.5 -1.2 0.00380506
0.715676 0.5 1.2 0.00380497
0.574156 0.5 -1.275 0.00378636
0.574156 0.5 1.275 0.00378629
0.835106 0.5 -1.125 0.00382789
0.835106 0.5 1.125 0.0038278
1.3856 0.5 0.222595 0.00420738
1.3856 0.5 -0.222879 0.00420736
1.02577 0.5 -0.958248 0.00389144
1.02577 0.5 0.958248 0.00389097
0 0.5 -1.40445 0.00375
0 0.5 1.40445 0.00375
1.14932 0.5 0.810406 0.0039618
1.14932 0.5 -0.810406 0.00396182
0.939379 0.5 -1.05 0.00385532
0.939379 0.5 1.05 0.00385523
1.35183 0.5 0.401861 0.0041539
1.35183 0.5 -0.401861 0.00415388
1.26895 0.5 -0.615524 0.00405683
1.26895 0.5 0.615524 0.00405723
0.412065 0.5 -1.35 0.00377157
0.412065 0.5 1.35 0.00377153
1.30563 0.5 0.537467 0.00409456
1.30563 0.5 -0.537467 0.00409438
1.3344 0.5 0.46624 0.00412642
1.3344 0.5 -0.46624 0.00412642
1.41888 0.5 -0.0540558 0.00425594
1.41888 0.5 0.0540558 0.00425604
1.24616 0.5 0.68961 0.00403295
1.24616 0.5 -0.68961 0.00403297
1.3856 0.5 0.333893 0.00419313
1.3856 0.5 -0.334319 0.00419309
0.075776 0.5 1.425 0.00375306
0.075776 0.5 -1.425 0.00375307
1.41888 0.5 0.162168 0.00424965
1.41888 0.5 -0.162168 0.00424937
1.12068 0.5 0.896561 0.00393588
1.12068 0.5 -0.896561 0.00393547
1.4361 0.5 0 0.00427656
1.21551 0.5 0.770692 0.0040022
1.21551 0.5 -0.770692 0.00400211
1.4361 0.5 0.10639 0.00427314
1.4361 0.5 -0.10639 0.00427312
0.67013 0.5 -1.275 0.00379664
0.67013 0.5 1.275 0.00379657
0.797951 0.5 -1.2 0.00381735
0.797951 0.5 1.2 0.00381726
0.219992 0.5 1.425 0.0037596
0.219992 0.5 -1.425 0.00375961
0.90582 0.5 -1.125 0.00384187
0.90582 0.5 1.125 0.00384406
1.41888 0.5 -0.270279 0.00423696
1.41888 0.5 0.270279 0.00423741
0 0.5 -1.44555 0.00375
0 0.5 1.44555 0.00375
1.35183 0.5 -0.516678 0.00413506
1.35183 0.5 0.516678 0.00413305
0.523729 0.5 -1.35 0.00377997
0.523729 0.5 1.35 0.00377993
1 0.5 -1.05 0.00387408
1 0.5 1.05 0.00387401
1.4361 0.5 0.21278 0.00426329
1.4361 0.5 -0.21278 0.00426327
1.38525 0.5 0.444071 0.00417467
1.17123 0.5 -0.863698 0.0039627
1.17123 0.5 0.863698 0.00396297
1.3856 0.5 -0.445758 0.00417433
1.3344 0.5 0.582801 0.00410736
1.3344 0.5 -0.582801 0.00410737
1.45835 0.5 0.0520823 0.00430551
1.45835 0.5 -0.0520823 0.00430549
1.30563 0.5 -0.656904 0.00407523
1.30563 0.5 0.656904 0.00407525
1.45835 0.5 0.156247 0.00429828
1.45835 0.5 -0.156247 0.00429824
1.07737 0.5 0.995841 0.00390362
1.07737 0.5 -0.995841 0.00390359
0.350249 0.5 1.425 0.00376666
0.350249 0.5 -1.425 0.00376668
1.26895 0.5 0.738629 0.00403717
1.26895 0.5 -0.738629 0.00403664
1.41888 0.5 0.378391 0.00421934
1.41888 0.5 -0.378391 0.00421872
1.4361 0.5 0.31917 0.00424732
1.4361 0.5 -0.31917 0.00424727
1.45835 0.5 -0.260411 0.00428466
1.45835 0.5 0.260411 0.0042847
0.756813 0.5 1.275 0.0038076
0.756814 0.5 -1.275 0.00380768
0.872262 0.5 -1.2 0.00383019
0.872262 0.5 1.2 0.00383009
0.969689 0.5 -1.125 0.00385855
0.969689 0.5 1.125 0.00385639
0.624584 0.5 -1.35 0.00378908
0.624584 0.5 1.35 0.00378903
1.48766 0.5 4.39463e-17 0.00435117
1.14932 0.5 0.945474 0.00393894
1.14932 0.5 -0.945474 0.00393894
1.24616 0.5 -0.814994 0.00401121
1.24616 0.5 0.814994 0.00401123
1.48766 0.5 0.101234 0.0043473
1.48766 0.5 -0.101234 0.00434705
1.35183 0.5 0.631496 0.00411145
1.35183 0.5 -0.631496 0.00411437
1.3856 0.5 -0.557198 0.00415314
1.38702 0.5 0.556488 0.00415307
1.4361 0.5 0.42556 0.00422617
1.4361 0.5 -0.42556 0.00422611
0.467897 0.5 -1.425 0.00377423
0.467897 0.5 1.425 0.00377421
1.41888 0.5 0.486502 0.00420231
1.41888 0.5 -0.486502 0.00419678
0 0.5 1.5 0.00375
0 0.5 -1.5 0.00375
1.48766 0.5 0.202468 0.00433594
1.48766 0.5 -0.202468 0.00433549
1.50211 0.5 -0.0498948 0.00437238
1.50211 0.5 0.0498948 0.00437239
1.45835 0.5 0.364576 0.0042646
1.45835 0.5 -0.364576 0.0042645
1.3344 0.5 0.699361 0.00408605
1.3344 0.5 -0.699361 0.00408604
0.151552 0.5 1.5 0.00375607
0.151552 0.5 -1.5 0.00375607
1.02577 0.5 -1.10567 0.00387443
1.02577 0.5 1.10567 0.003874
1.50211 0.5 0.149684 0.00436411
1.50211 0.5 -0.149684 0.00436407
1.21551 0.5 0.899141 0.00397833
1.21551 0.5 -0.899141 0.00397818
1.48766 0.5 -0.303703 0.00431687
1.48766 0.5 0.303703 0.00431754
1.30563 0.5 -0.776341 0.00405304
1.30563 0.5 0.776341 0.0040531
1.50211 0.5 0.249473 0.00434856
1.50211 0.5 -0.249473 0.00434853
1.52312 0.5 -1.56125e-18 0.0044105
0.939379 0.5 -1.2 0.00384332
0.939379 0.5 1.2 0.00384322
0.835106 0.5 1.275 0.00381931
0.835107 0.5 -1.275 0.0038194
1.12068 0.5 1.03449 0.00391367
1.12068 0.5 -1.03449 0.00391326
1.52312 0.5 0.0976882 0.00440604
1.52312 0.5 -0.0976882 0.004406
0.288433 0.5 1.5 0.00376252
0.288433 0.5 -1.5 0.00376252
0.715676 0.5 -1.35 0.00379883
0.715676 0.5 1.35 0.00379878
1.4361 0.5 0.53195 0.00420219
1.4361 0.5 -0.53195 0.00420215
1.45835 0.5 -0.46874 0.00423994
1.45835 0.5 0.46874 0.00424004
0 0.5 1.5326 0.00375
0 0.5 -1.5326 0.00375
1.26895 0.5 0.861734 0.00401309
1.26895 0.5 -0.861734 0.0040124
1.52312 0.5 0.195376 0.00439317
1.52312 0.5 -0.195376 0.00439311
0.574156 0.5 1.425 0.0037823
0.574156 0.5 -1.425 0.00378233
1.17123 0.5 -0.996574 0.00393796
1.17123 0.5 0.996574 0.00393823
1.41888 0.5 0.594614 0.00417375
1.41888 0.5 -0.594614 0.00417304
1.3856 0.5 -0.668637 0.00413006
1.38702 0.5 0.667785 0.00413002
1.48766 0.5 0.404937 0.00429298
1.48766 0.5 -0.404937 0.00429213
1.50211 0.5 -0.349263 0.00432557
1.50211 0.5 0.349263 0.00432567
1.54252 0.5 0.0478741 0.00444782
1.54252 0.5 -0.0478741 0.00444779
1.35183 0.5 0.746313 0.00408834
1.35183 0.5 -0.746313 0.00409121
0.075776 0.5 1.5449 0.00375267
0.075776 0.5 -1.5449 0.00375279
1.54252 0.5 0.143622 0.00443827
1.54252 0.5 -0.143622 0.00443822
1.52312 0.5 0.293065 0.0043724
1.52312 0.5 -0.293065 0.00437231
0.412065 0.5 1.5 0.00376943
0.412065 0.5 -1.5 0.00376944
1.55568 0.5 -1.15648e-18 0.0044751
0 0.5 1.55721 0.00375
0 0.5 -1.55721 0.00375
1.55568 0.5 0.0944315 0.00447009
1.55568 0.5 -0.0944315 0.00447005
0.219992 0.5 -1.5449 0.00375875
0.219993 0.5 1.5449 0.00375869
1.54252 0.5 0.23937 0.0044203
1.54252 0.5 -0.23937 0.00442026
1.24616 0.5 -0.940377 0.00398482
1.24616 0.5 0.940377 0.0039849
1 0.5 -1.2 0.00385956
1 0.5 1.2 0.00385945
0.90582 0.5 -1.275 0.00383138
0.90582 0.5 1.275 0.00383324
1.3344 0.5 0.815921 0.00406135
1.3344 0.5 -0.815921 0.00406127
1.45835 0.5 -0.572904 0.00421372
1.45835 0.5 0.572904 0.004216
1.55568 0.5 0.188863 0.00445559
1.55568 0.5 -0.188863 0.00445554
1.07737 0.5 1.13811 0.00388545
1.07737 0.5 -1.13811 0.00388548
1.50211 0.5 0.449052 0.00429732
1.50211 0.5 -0.449052 0.0042972
0.797951 0.5 -1.35 0.00380911
0.797951 0.5 1.35 0.00380905
1.48452 0.5 0.506171 0.00426494
1.48766 0.5 -0.506171 0.00426405
1.4361 0.5 0.63834 0.00417664
1.4361 0.5 -0.63834 0.0041766
1.52312 0.5 0.390753 0.00434466
1.52312 0.5 -0.390753 0.0043445
0.67013 0.5 1.425 0.00379096
0.67013 0.5 -1.425 0.00379099
1.14932 0.5 1.08054 0.00391691
1.14932 0.5 -1.08054 0.00391695
1.54252 0.5 0.335119 0.00439391
1.54252 0.5 -0.335119 0.00439379
1.58017 0.5 0.0459917 0.00453568
1.58017 0.5 -0.0459917 0.00453564
1.55568 0.5 0.283295 0.0044322
1.55568 0.5 -0.283295 0.00443211
1.41888 0.5 -0.702726 0.00414743
1.41888 0.5 0.702726 0.00414822
1.30563 0.5 0.895778 0.00402665
1.30563 0.5 -0.895778 0.0040265
0.350249 0.5 -1.5449 0.00376516
0.350249 0.5 1.5449 0.00376516
1.58017 0.5 0.137975 0.00452459
1.58017 0.5 -0.137975 0.0045245
0.523729 0.5 1.5 0.00377678
0.523729 0.5 -1.5 0.00377679
0 0.5 1.58981 0.00375
0 0.5 -1.58981 0.00375
1.3856 0.5 -0.780077 0.00410417
1.38702 0.5 0.779083 0.00410418
1.21551 0.5 1.02759 0.0039533
1.21551 0.5 -1.02759 0.0039532
1.58017 0.5 0.229958 0.00450359
1.58017 0.5 -0.229958 0.00450349
0.151552 0.5 1.58981 0.00375558
0.151552 0.5 -1.58981 0.00375557
1.59812 0.5 0 0.0045863
1.50211 0.5 -0.548842 0.00426708
1.50211 0.5 0.548842 0.00426717
1.52312 0.5 0.488441 0.00431292
1.52312 0.5 -0.488441 0.00431276
1.59812 0.5 0.0901884 0.00458027
1.59812 0.5 -0.0901884 0.00458022
1.55568 0.5 0.377726 0.00440086
1.55568 0.5 -0.377726 0.0044007
1.54252 0.5 0.430867 0.00436092
1.54252 0.5 -0.430867 0.00436076
0.969689 0.5 1.275 0.00384381
0.969689 0.5 -1.275 0.00384539
1.35183 0.5 0.861131 0.0040618
1.35183 0.5 -0.861131 0.0040644
1.26895 0.5 0.984839 0.00398689
1.26895 0.5 -0.984839 0.00398625
1.48766 0.5 0.607405 0.00423886
1.48766 0.5 -0.607405 0.00423455
0.872262 0.5 -1.35 0.00381968
0.872262 0.5 1.35 0.00381963
1.45835 0.5 0.677069 0.00418617
1.45835 0.5 -0.677069 0.00418609
1.59812 0.5 0.180377 0.00456277
1.59812 0.5 -0.180377 0.0045627
1.6103 0.5 0.044485 0.00461983
1.6103 0.5 -0.044485 0.00461966
1.58017 0.5 -0.321942 0.00447254
1.58017 0.5 0.321942 0.00447274
0.756813 0.5 1.425 0.00380004
0.756814 0.5 -1.425 0.00380006
0.467897 0.5 -1.5449 0.00377199
0.467897 0.5 1.5449 0.00377206
0.288433 0.5 1.58981 0.00376151
0.288433 0.5 -1.58981 0.0037615
1.6103 0.5 0.133455 0.00460736
1.6103 0.5 -0.133455 0.00460688
1.4361 0.5 0.74473 0.00414886
1.4361 0.5 -0.74473 0.00414878
1.02577 0.5 -1.25309 0.00385951
1.02577 0.5 1.25309 0.00385896
1.59812 0.5 0.270565 0.00453445
1.59812 0.5 -0.270565 0.00453433
1.12068 0.5 1.17243 0.00389433
1.12068 0.5 -1.17243 0.00389394
0.624584 0.5 1.5 0.00378461
0.624584 0.5 -1.5 0.00378462
1.6103 0.5 0.222425 0.00458341
1.6103 0.5 -0.222425 0.00458268
1.55568 0.5 0.472158 0.00436483
1.55568 0.5 -0.472158 0.00436467
1.17123 0.5 1.12945 0.00391654
1.17123 0.5 -1.12945 0.00391633
1.3344 0.5 0.932481 0.00403478
1.3344 0.5 -0.932481 0.0040347
1.54252 0.5 0.526615 0.0043258
1.54252 0.5 -0.526615 0.00432567
0 0.5 1.63059 0.00375
0 0.5 -1.63059 0.00375
1.52302 0.5 0.5857 0.00428012
1.63193 0.5 -1.29526e-17 0.00470231
1.52312 0.5 -0.586129 0.00427963
1.58017 0.5 0.413925 0.00443394
1.58017 0.5 -0.413925 0.00443367
1.41888 0.5 0.810837 0.00412017
1.41888 0.5 -0.810837 0.00411931
1.63193 0.5 0.0868068 0.00469518
1.63193 0.5 -0.0868068 0.00469504
1.50211 0.5 0.648631 0.00423596
1.50211 0.5 -0.648631 0.00423589
1.59812 0.5 0.360754 0.00449629
1.59812 0.5 -0.360754 0.00449608
1.24616 0.5 1.06576 0.00395933
1.24616 0.5 -1.06576 0.00395937
1.6103 0.5 -0.311395 0.00454703
1.6103 0.5 0.311395 0.00454809
1.63193 0.5 0.173614 0.00467437
1.63193 0.5 -0.173614 0.00467415
0.412065 0.5 1.58981 0.00376786
0.412065 0.5 -1.58981 0.00376785
0.939379 0.5 -1.35 0.0038302
0.939379 0.5 1.35 0.00383015
1.64669 0.5 0.0426655 0.00475641
1.64669 0.5 -0.0426655 0.00475637
1.3856 0.5 -0.891517 0.00407723
0.075776 0.5 1.64598 0.00375254
0.075776 0.5 -1.64598 0.00375253
1.48766 0.5 0.708639 0.00420428
1.48766 0.5 -0.708639 0.0042033
0.574156 0.5 1.5449 0.00377939
0.574156 0.5 -1.5449 0.00377925
1.38702 0.5 0.890381 0.00407728
1.64669 0.5 -0.127997 0.00474079
1.64669 0.5 0.127997 0.00474091
0.835106 0.5 1.425 0.00380935
0.835106 0.5 -1.425 0.00380937
1.63193 0.5 0.26042 0.00464055
1.63193 0.5 -0.26042 0.00464019
1.30563 0.5 1.01522 0.00399992
1.30563 0.5 -1.01522 0.00399988
1.45835 0.5 -0.781233 0.00415586
1.45835 0.5 0.781233 0.00415602
1.55568 0.5 0.566589 0.00432886
1.55568 0.5 -0.566589 0.00432719
1.58017 0.5 0.505908 0.00439231
1.58017 0.5 -0.505908 0.00439207
1.6103 0.5 -0.400365 0.00450233
1.6103 0.5 0.400365 0.0045036
1.64669 0.5 0.213328 0.00471147
1.64669 0.5 -0.213328 0.00471135
1.59812 0.5 0.450942 0.00445203
1.59812 0.5 -0.450942 0.00445181
0.219992 0.5 1.64598 0.00375798
0.219992 0.5 -1.64598 0.00375796
0 0.5 1.66137 0.00375
0 0.5 -1.66137 0.00375
0.715676 0.5 1.5 0.00379284
0.715676 0.5 -1.5 0.00379284
1.66293 0.5 1.82146e-17 0.00483604
1.54252 0.5 0.622363 0.00428988
1.54252 0.5 -0.622363 0.00428978
1.66293 0.5 -0.0837068 0.00482759
1.66293 0.5 0.0837068 0.00482775
1.35183 0.5 0.975948 0.00403378
1.35183 0.5 -0.975948 0.00403711
1.63193 0.5 -0.347227 0.00459424
1.63193 0.5 0.347227 0.00459475
1.4361 0.5 0.85112 0.00412102
1.4361 0.5 -0.85112 0.00412089
1.52312 0.5 -0.683817 0.00424505
1.52312 0.5 0.683817 0.00424519
1.66293 0.5 0.167414 0.00480335
1.66293 0.5 -0.167414 0.00480306
1.14932 0.5 1.21561 0.00389191
1.14932 0.5 -1.21561 0.00389199
1.07737 0.5 1.28037 0.00386482
1.07737 0.5 -1.28037 0.00386484
1.64669 0.5 0.298659 0.004668
1.64669 0.5 -0.298659 0.00466776
0.523729 0.5 1.58981 0.00377461
0.523729 0.5 -1.58981 0.00377459
1.21551 0.5 1.15604 0.00392377
1.21551 0.5 -1.15604 0.00392367
1.50211 0.5 -0.74842 0.00420253
1.50211 0.5 0.74842 0.00420265
1 0.5 1.35 0.00384235
1 0.5 -1.35 0.0038424
1.67988 0.5 -0.0410058 0.0049234
1.67988 0.5 0.0410058 0.00492359
1.66293 0.5 0.251121 0.00476291
1.66293 0.5 -0.251121 0.0047624
0.350249 0.5 1.64598 0.00376385
0.350249 0.5 -1.64598 0.00376383
1.6103 0.5 0.489335 0.00445521
1.6103 0.5 -0.489335 0.00445392
0.67013 0.5 1.5449 0.00378715
0.67013 0.5 -1.5449 0.00378691
1.67988 0.5 -0.123017 0.0049056
1.67988 0.5 0.123017 0.00490616
1.26895 0.5 1.10795 0.00395393
1.26895 0.5 -1.10795 0.00395307
1.55568 0.5 0.650871 0.00429678
1.59812 0.5 0.54113 0.00440609
1.59812 0.5 -0.54113 0.0044059
0.90582 0.5 -1.425 0.00381868
0.90582 0.5 1.425 0.00382032
1.63193 0.5 0.434034 0.0045412
1.63193 0.5 -0.434034 0.00454063
1.58017 0.5 0.597891 0.00435022
1.58017 0.5 -0.597891 0.00435003
1.55568 0.5 -0.661021 0.00428855
1.41888 0.5 0.918949 0.00409159
1.41888 0.5 -0.918949 0.00409043
1.69082 0.5 0 0.00498557
1.64669 0.5 0.38399 0.0046128
1.64669 0.5 -0.38399 0.00461247
1.67988 0.5 -0.205029 0.00487054
1.67988 0.5 0.205029 0.00487151
1.69082 0.5 0.0809177 0.00497675
1.69082 0.5 -0.0809177 0.00497675
1.48766 0.5 0.809873 0.00417413
1.48766 0.5 -0.809873 0.00417323
1.66293 0.5 0.334827 0.00470755
1.66293 0.5 -0.334827 0.00470677
1.3344 0.5 1.04904 0.00399848
1.3344 0.5 -1.04904 0.00399848
1.69082 0.5 0.161835 0.0049506
1.69082 0.5 -0.161835 0.00495062
0.797951 0.5 1.5 0.00380133
0.797951 0.5 -1.5 0.00380133
1.54252 0.5 0.718111 0.00425226
1.54252 0.5 -0.718111 0.00425214
0 0.5 1.70215 0.00375
0 0.5 -1.70215 0.00375
1.67988 0.5 -0.287041 0.00481633
1.67988 0.5 0.287041 0.00481803
1.70382 0.5 0.0398088 0.00506443
1.70382 0.5 -0.0398088 0.00506443
1.45835 0.5 0.885398 0.00412877
1.45835 0.5 -0.885398 0.00412856
1.70382 0.5 0.119426 0.00504685
1.70382 0.5 -0.119426 0.00504688
0.624584 0.5 1.58981 0.00378175
0.624584 0.5 -1.58981 0.00378174
1.69082 0.5 0.242753 0.004905
1.69082 0.5 -0.242753 0.0049049
0.151552 0.5 1.70215 0.00375498
0.151552 0.5 -1.70215 0.00375497
1.3856 0.5 -1.00296 0.0040396
1.38702 0.5 1.00168 0.00403961
1.6103 0.5 0.578305 0.00440651
1.6103 0.5 -0.578305 0.00440526
0.467897 0.5 -1.64598 0.00377007
0.467897 0.5 1.64598 0.00377009
1.52312 0.5 -0.781505 0.00421243
1.52312 0.5 0.781505 0.00421261
1.64669 0.5 -0.469321 0.00455193
1.64669 0.5 0.469321 0.00455224
1.63193 0.5 0.520841 0.00448551
1.63193 0.5 -0.520841 0.00448499
1.66293 0.5 0.418534 0.00464239
1.66293 0.5 -0.418534 0.00464153
1.70382 0.5 0.199044 0.0050122
1.70382 0.5 -0.199044 0.00501227
1.71727 0.5 0 0.00515701
1.59812 0.5 0.631319 0.00435948
1.59812 0.5 -0.631319 0.00435933
1.71727 0.5 0.0782727 0.00514838
1.71727 0.5 -0.0782727 0.00514842
1.67988 0.5 0.369053 0.00474916
1.67988 0.5 -0.369053 0.00474703
0.756813 0.5 1.5449 0.00379523
0.756813 0.5 -1.5449 0.00379489
1.69082 0.5 0.323671 0.00483912
1.69082 0.5 -0.323671 0.00483876
1.17123 0.5 1.26233 0.00388713
1.17123 0.5 -1.26233 0.00388707
0.969689 0.5 1.425 0.00382783
0.969689 0.5 -1.425 0.00382952
1.24616 0.5 1.19115 0.00392157
1.24616 0.5 -1.19115 0.00392162
1.58017 0.5 0.689875 0.00430985
1.58017 0.5 -0.689875 0.00430672
1.12068 0.5 1.31036 0.00386957
1.12068 0.5 -1.31036 0.00386944
1.71727 0.5 0.156545 0.00512273
1.71727 0.5 -0.156545 0.00512282
1.50211 0.5 -0.84821 0.00417408
1.50211 0.5 0.84821 0.00417425
1.4361 0.5 0.95751 0.0040823
1.4361 0.5 -0.95751 0.00408218
0.288433 0.5 1.70215 0.00376032
0.288433 0.5 -1.70215 0.0037603