# kMean  POINT_DATA 24593
# x  y  z  kMean
0 0 0 0.0075362
0 0.00775273 0 0.00375
0 0.0161245 0 0.00375
0 0.0251646 0 0.00375
0 0.0349265 0 0.00375
0 0.0454678 0 0.00375
0 0.0568507 0 0.00375
0 0.0691424 0 0.00375
0.075776 0.00387637 6.93889e-18 0.0129113
0.075776 0.0119386 0 0.00452878
0.075776 0.0206445 0 0.00381817
0.075776 0.0300455 0 0.00375825
0 0.0824156 0 0.00375
0.075776 0.0401972 0 0.00374933
0.075776 0.0511593 0 0.00374745
0 0.0967484 0 0.00375
0.075776 0.0629965 0 0.00374739
0.075776 0.075779 0 0.00374786
0 0.112226 0 0.00375
0.075776 0.089582 0 0.00374849
0 0.128939 0 0.00375
0.075776 0.104487 0 0.00374914
0.075776 0.120582 0 0.00374975
0 0.146986 0 0.00375
0.151552 0 0 0.0128422
0.151552 0.00775273 0 0.00864736
0.151552 0.0161245 0 0.00409323
0.151552 0.0251646 0 0.0037198
0.151552 0.0349265 0 0.00371307
0.075776 0.137962 -6.93889e-18 0.00375029
0.151552 0.0454678 0 0.00372603
0.151552 0.0568507 0 0.00373402
0 0.166474 0 0.00375
0.151552 0.0691424 0 0.00373886
0.151552 0.0824156 0 0.00374213
0.075776 0.15673 0 0.00375072
0.151552 0.0967484 0 0.00374453
0 0.187518 0 0.00375
0.151552 0.112226 0 0.00374638
0.075776 0.176996 0 0.00375099
0.151552 0.128939 0 0.00374786
0 0.210243 0 0.00375
0.151552 0.146986 0 0.00374904
0.075776 0.198881 0 0.00375113
0.219992 0.00387637 0 0.0127765
0.219993 0.0119386 0 0.00437886
0.219992 0.0206446 0 0.00365467
0.219993 0.0300455 6.93889e-18 0.00365463
0.219992 0.0401971 6.93889e-18 0.00369396
0.151552 0.166474 0 0.00374998
0.219992 0.0511592 0 0.00371551
0.219992 0.0629965 0 0.00372702
0.219992 0.075779 0 0.00373402
0 0.234781 0 0.00375
0.075776 0.222512 6.93889e-18 0.00375118
0.219992 0.089582 0 0.00373874
0.151552 0.187518 0 0.00375074
0.219992 0.104487 0 0.00374217
0.219992 0.120582 0 0.00374477
0.151552 0.210243 0 0.00375135
0.075776 0.24803 6.93889e-18 0.00375128
0.219992 0.137962 6.93889e-18 0.00374682
0 0.261279 0 0.00375
0.219992 0.15673 0 0.00374847
0.151552 0.234781 0 0.00375188
0.219992 0.176996 0 0.00374984
0.075776 0.275586 6.93889e-18 0.00375145
0.288433 0 0 0.0116042
0.288433 0.00775273 0 0.00789908
0.288433 0.0161245 0 0.00387054
0.288433 0.0251646 0 0.00356804
0 0.289893 0 0.00375
0.288433 0.0349265 0 0.00361992
0.288433 0.0454678 0 0.00366995
0.288433 0.0568507 0 0.00369927
0.219992 0.19888 0 0.00375102
0.288433 0.0691424 0 0.00371658
0.288433 0.0824156 0 0.00372756
0.151552 0.261279 0 0.00375237
0.288433 0.0967484 0 0.00373498
0.288433 0.112226 0 0.00374034
0.219992 0.222512 0 0.00375207
0.075776 0.305342 6.93889e-18 0.0037516
0.288433 0.128939 0 0.00374446
0 0.320791 0 0.00375
0.288433 0.146986 0 0.00374772
0.151552 0.289893 0 0.00375284
0.219992 0.24803 -6.93889e-18 0.00375295
0.288433 0.166474 0 0.00375029
0.288433 0.187518 0 0.00375235
0.075776 0.337473 -6.93889e-18 0.00375169
0.350249 0.00387636 0 0.010482
0.350249 0.0119386 0 0.00401596
0.350249 0.0206445 0 0.00344507
0.350249 0.0300455 0 0.0035252
0.350249 0.0401972 0 0.00361052
0.219992 0.275586 0 0.00375372
0.350249 0.0511592 6.93889e-18 0.00366278
0 0.354155 0 0.00375
0.151552 0.320791 0 0.00375324
0.350249 0.0629966 0 0.00369364
0.288433 0.210243 0 0.00375401
0.350249 0.075779 0 0.00371285
0.350249 0.089582 0 0.0037254
0.350249 0.104487 6.93889e-18 0.00373408
0.350249 0.120582 6.93889e-18 0.0037406
0.288433 0.234781 0 0.00375539
0.219993 0.305342 0 0.00375445
0.350249 0.137962 0 0.00374577
0.075776 0.37217 0 0.00375173
0.350249 0.15673 0 0.00374981
0.151552 0.354155 0 0.00375357
0.288433 0.261279 0 0.0037566
3.73903e-17 0.390184 6.16298e-33 0.00375
0.350249 0.176996 0 0.00375296
0.350249 0.198881 -6.93889e-18 0.00375541
0.219992 0.337473 0 0.00375509
0.288433 0.289893 0 0.00375768
0.412065 9.56361e-19 0 0.00892388
0.412065 0.00775273 0 0.00641604
0.412065 0.0161245 1.85035e-18 0.00363365
0.412065 0.0251646 1.85035e-18 0.00341735
0.412065 0.0349265 1.85035e-18 0.00352331
0.412065 0.0454678 1.85035e-18 0.00360329
0.350249 0.222512 0 0.00375732
0.412065 0.0568507 1.85035e-18 0.00365533
0.075776 0.409637 0 0.00375178
0.412065 0.0691424 0 0.00368837
0.151552 0.390184 -4.62596e-18 0.00375386
0.412065 0.0824156 0 0.00370981
0.412065 0.0967484 1.85035e-18 0.0037244
0.412065 0.112226 1.85035e-18 0.00373518
0 0.42909 0 0.00375
0.350249 0.24803 0 0.00375898
0.288433 0.320791 0 0.00375864
0.412065 0.128939 0 0.00374359
0.219992 0.372169 6.93889e-18 0.00375562
0.412065 0.146986 1.85035e-18 0.00375013
0.412065 0.166474 1.85035e-18 0.00375513
0.350249 0.275586 0 0.00376047
0.412065 0.187518 1.85035e-18 0.00375892
0.151552 0.42909 0 0.00375413
0.075776 0.450095 0 0.00375185
0.288433 0.354155 0 0.00375947
0.412065 0.210243 0 0.00376179
0.350249 0.305342 0 0.00376177
0.219992 0.409637 -6.93889e-18 0.0037561
0.467897 0.00387636 6.93889e-18 0.0074249
0.467897 0.0119386 -6.93889e-18 0.00380377
0.467897 0.0206445 6.93889e-18 0.00327705
0.467897 0.0300455 0 0.00342722
0.467897 0.0401972 0 0.00353371
0.467897 0.0511592 0 0.00360868
0 0.471101 0 0.00375
0.467897 0.0568507 0 0.00363434
0.467897 0.0629965 0 0.00365796
0.467897 0.075779 0 0.00369016
0.412065 0.234781 0 0.00376404
0.467897 0.089582 0 0.00371154
0.467897 0.104487 0 0.00372697
0.467897 0.120582 0 0.00373922
0.288433 0.390184 7.40152e-18 0.0037602
0.350249 0.337473 0 0.00376292
0.467897 0.137962 0 0.00374874
0.412065 0.261279 0 0.00376592
0.467897 0.15673 0 0.00375601
0.151552 0.471101 -4.62596e-18 0.0037544
0.075776 0.493784 0 0.00375194
0.467897 0.176996 0 0.00376145
0.219992 0.450095 0 0.00375656
0.412065 0.289893 0 0.00376753
0.467897 0.19888 0 0.0037655
0.350249 0.372169 -6.93889e-18 0.00376391
3.73903e-17 0.516467 -6.16298e-33 0.00375
0.288433 0.42909 0 0.00376085
0.467897 0.222512 0 0.00376853
0.412065 0.320791 1.85035e-18 0.00376892
0.523729 0 0 0.00612587
0.523729 0.00775273 1.85035e-18 0.00494368
0.523729 0.0161245 0 0.00352846
0.523729 0.0251646 0 0.00335153
0.523729 0.0349265 0 0.00345736
0.523729 0.0454678 0 0.00354638
0.523729 0.0511593 0 0.00357987
0.523729 0.0568507 0 0.00361335
0.523729 0.0691424 0 0.00366011
0.467897 0.24803 0 0.0037709
0.523729 0.0824156 0 0.00369204
0.523729 0.0967484 0 0.00371471
0.523729 0.112226 0 0.00373212
0.151552 0.516467 0 0.00375468
0.350249 0.409637 0 0.00376479
0.523729 0.128939 0 0.0037459
0.219992 0.493784 -6.93889e-18 0.00375702
0.467897 0.275586 6.93889e-18 0.00377286
0.412065 0.354155 0 0.00377013
0.523729 0.146986 0 0.00375655
0.075776 0.540961 -6.93889e-18 0.00375204
0.523729 0.166474 0 0.00376458
0.288433 0.471101 0 0.00376147
0.523729 0.187518 0 0.00377052
0.467897 0.305342 0 0.00377453
0.523729 0.210243 0 0.00377486
0 0.565455 0 0.00375
0.467897 0.320791 0 0.00377657
0.412065 0.390184 1.85035e-18 0.00377119
0.350249 0.450095 0 0.00376559
0.523729 0.234781 0 0.00377808
0.574157 0.00387636 0 0.00487024
0.574156 0.0119386 6.93889e-18 0.0037202
0.574156 0.0206445 0 0.00331351
0.574156 0.0300455 0 0.00338839
0.574156 0.0401971 -6.93889e-18 0.00348169
0.574156 0.0511592 0 0.00356313
0.467897 0.337473 0 0.00377598
0.574156 0.0629965 0 0.003625
0.574157 0.075779 -6.93889e-18 0.00366829
0.574156 0.0824156 0 0.00368427
0.574156 0.089582 0 0.00369876
0.574156 0.104487 0 0.00372187
0.219993 0.540961 0 0.00375747
0.523729 0.261279 0 0.00378055
0.151552 0.565455 0 0.00375496
0.574156 0.120582 0 0.00374048
0.574156 0.137962 0 0.00375505
0.288433 0.516467 -6.16298e-33 0.00376206
0.412065 0.42909 1.85035e-18 0.00377213
0.574156 0.15673 6.93889e-18 0.00376614
0.075776 0.591904 -6.93889e-18 0.00375216
0.467897 0.372169 -6.93889e-18 0.00377724
0.523729 0.289893 0 0.00378255
0.574156 0.176996 0 0.00377435
0.350249 0.493784 0 0.00376633
0.574157 0.198881 0 0.0037803
0.523729 0.320791 0 0.00378422
0.574156 0.222512 0 0.0037846
3.73903e-17 0.618354 -6.16298e-33 0.00375
0.467897 0.409637 6.93889e-18 0.00377834
0.624584 0 0 0.00386549
0.624584 0.00775273 0 0.00378431
0.624584 0.0161245 0 0.0035411
0.624584 0.0251646 0 0.00338914
0.574156 0.24803 6.93889e-18 0.00378774
0.624584 0.0349265 0 0.00343667
0.412065 0.471101 0 0.00377298
0.624584 0.0454678 0 0.00351134
0.624584 0.0568507 0 0.00358034
0.624584 0.0691424 0 0.00363571
0.624584 0.075779 0 0.00365611
0.624584 0.0824156 1.85035e-18 0.00367651
0.219992 0.591905 0 0.00375791
0.624584 0.0967484 0 0.00370725
0.523729 0.354155 0 0.00378565
0.412065 0.482442 -6.16298e-33 0.00377317
0.624584 0.112226 1.85035e-18 0.00373171
0.288433 0.565455 0 0.00376262
0.151552 0.618354 -6.16298e-33 0.00375524
0.574156 0.275586 0 0.00379015
0.624584 0.128939 0 0.0037513
0.624584 0.146986 0 0.00376652
0.350249 0.540961 6.93889e-18 0.00376703
0.624584 0.166474 0 0.00377798
0.467897 0.450095 0 0.00377931
0.574156 0.305342 -6.93889e-18 0.00379209
0.075776 0.646915 0 0.00375229
0.624584 0.187518 0 0.00378637
0.523729 0.390184 -4.62596e-18 0.00378688
0.624584 0.210243 0 0.00379238
0.412065 0.516467 1.2326e-32 0.00377375
0.574156 0.337473 -6.93889e-18 0.00379371
0.624584 0.234781 0 0.00379665
0.67013 0.00387637 0 0.00288997
0.67013 0.0119386 -6.93889e-18 0.00368648
0.67013 0.0206445 -6.93889e-18 0.00344276
0.67013 0.0300455 0 0.00340967
0.67013 0.0401972 0 0.00346685
0.67013 0.0511593 6.93889e-18 0.00353434
0.67013 0.0629966 0 0.0035997
0.67013 0.075779 -6.93889e-18 0.00365052
0.67013 0.0824156 0 0.00367107
0 0.675477 0 0.00375
0.67013 0.089582 0 0.00368888
0.624584 0.261279 0 0.00379975
0.523729 0.42909 0 0.00378794
0.67013 0.104487 -6.93889e-18 0.00371968
0.467897 0.493784 6.93889e-18 0.00378018
0.67013 0.120582 0 0.00374481
0.288433 0.618354 0 0.00376315
0.219993 0.646915 -6.93889e-18 0.00375834
0.67013 0.137962 0 0.00376468
0.574156 0.372169 6.93889e-18 0.00379509
0.350249 0.591905 0 0.00376768
0.67013 0.15673 6.93889e-18 0.00377988
0.624584 0.289893 0 0.00380209
0.151552 0.675477 0 0.00375552
0.67013 0.176996 0 0.00379112
0.685312 0.112226 -7.70372e-34 0.00373361
0.67013 0.19888 -6.93889e-18 0.00379919
0.412065 0.565455 0 0.00377445
0.624584 0.320791 0 0.00380394
0.523729 0.471101 0 0.00378886
0.574156 0.409637 6.93889e-18 0.00379627
0.67013 0.222512 -6.93889e-18 0.00380486
0.075776 0.706318 0 0.00375243
0.67013 0.24803 0 0.00380883
0.467897 0.540961 0 0.00378096
0.715676 4.78181e-19 0 0.0022457
0.715676 0.00775273 0 0.00298844
0.715676 0.0161245 0 0.00364078
0.715676 0.0251646 0 0.00349807
0.715676 0.0349265 0 0.00346212
0.715676 0.0454678 0 0.00350486
0.715676 0.0568507 0 0.00356213
0.624584 0.354155 0 0.00380546
0.715676 0.0691424 0 0.00361899
0.715676 0.0824156 0 0.00366563
0.715676 0.0967484 0 0.00370332
0.715676 0.112226 0 0.00373456
0.67013 0.275586 0 0.00381168
0.715676 0.128939 0 0.00375995
0.574156 0.450095 0 0.00379727
0.715676 0.146986 0 0.00377988
0.288433 0.675477 0 0.00376364
0.715676 0.166474 0 0.00379495
0.523729 0.516467 -6.16298e-33 0.00378967
0.350249 0.646916 0 0.00376827
0.67013 0.305342 0 0.00381382
0.624584 0.390184 -4.62596e-18 0.00380674
0 0.73716 0 0.00375
0.219992 0.706318 0 0.00375875
0.715676 0.187518 0 0.00380595
0.412065 0.618354 1.85035e-18 0.00377507
0.743101 0.0251646 -7.70372e-34 0.00355775
0.715676 0.210243 0 0.00381374
0.67013 0.337473 6.93889e-18 0.00381552
0.151552 0.73716 -6.16298e-33 0.00375579
0.715676 0.234781 0 0.00381914
0.467897 0.591904 6.93889e-18 0.00378164
0.756814 0.00387637 6.93889e-18 0.00161763
0.756814 0.0119386 0 0.00377497
0.756814 0.0206446 -6.93889e-18 0.00365507
0.574156 0.493784 0 0.00379812
0.756814 0.0300455 0 0.00348116
0.624584 0.42909 0 0.00380779
0.756813 0.0401972 6.93889e-18 0.00348961
0.756814 0.0511593 -6.93889e-18 0.00352844
0.756814 0.0629965 6.93889e-18 0.00358632
0.756814 0.075779 -6.93889e-18 0.00363974
0.715676 0.261279 0 0.00382287
0.756814 0.089582 -6.93889e-18 0.00368361
0.756814 0.104487 -6.93889e-18 0.00372118
0.449286 0.618354 3.08149e-33 0.00378035
0.756814 0.120582 -6.93889e-18 0.00375249
0.67013 0.37217 6.93889e-18 0.00381692
0.756813 0.137962 0 0.0037776
0.523729 0.565455 0 0.00379035
0.715676 0.289893 0 0.00382552
0.770526 0.0568507 7.70372e-34 0.00356196
0.756814 0.15673 0 0.00379698
0.075776 0.770464 0 0.00375256
0.756814 0.176996 -6.93889e-18 0.00381135
0.624584 0.471101 0 0.00380866
0.756814 0.198881 -6.93889e-18 0.00382161
0.715676 0.320791 0 0.00382749
0.67013 0.409637 0 0.00381805
0.350249 0.706318 0 0.00376881
0.756813 0.222512 0 0.00382872
0.574156 0.540961 0 0.00379883
0.412065 0.675477 1.85035e-18 0.00377561
0.288433 0.73716 0 0.00376409
0.756814 0.24803 -6.93889e-18 0.00383354
0.797951 9.56361e-19 0 0.00125682
0.797951 0.00775273 0 0.00255353
0.797951 0.0161245 0 0.00382696
0.797951 0.0206445 0 0.00375203
0.797951 0.0251646 0 0.0036771
0.467897 0.646915 -6.93889e-18 0.00378221
0.715676 0.354155 0 0.00382901
0.797951 0.0300455 0 0.0036053
0.797951 0.0349265 0 0.00353351
0.797951 0.0454678 0 0.00352674
0.797951 0.0530564 7.70372e-34 0.00355016
0.797951 0.0568507 0 0.00356187
0.797951 0.0609479 7.70372e-34 0.00357874
0.797951 0.0691424 0 0.00361248
0.219992 0.770464 -6.93889e-18 0.00375914
0.797951 0.0824156 0 0.00366114
0.715676 0.363162 1.54074e-33 0.00382932
0 0.803768 0 0.00375
0.797951 0.0967484 0 0.00370399
0.756814 0.275586 0 0.00383683
0.797951 0.112226 0 0.0037411
0.67013 0.450095 -6.93889e-18 0.00381897
0.797951 0.128939 0 0.00377191
0.523729 0.618354 -6.16298e-33 0.0037909
0.624584 0.516467 -6.16298e-33 0.00380936
0.797951 0.146986 0 0.00379641
0.715676 0.390184 0 0.00383023
0.797951 0.166474 0 0.00381509
0.756814 0.305342 6.93889e-18 0.00383914
0.151552 0.803768 0 0.00375605
0.797951 0.187518 0 0.00382875
0.574156 0.591904 0 0.0037994
0.822721 0.0568507 7.70372e-34 0.00356786
0.797951 0.210243 0 0.00383836
0.756814 0.337473 0 0.00384084
0.715676 0.419364 1.54074e-33 0.00383094
0.797951 0.234781 0 0.0038449
0.67013 0.493784 -6.93889e-18 0.00381969
0.822721 0.128939 -7.70372e-34 0.00377671
0.715676 0.42909 0 0.00383118
0.835106 0.00387637 -6.93889e-18 0.000903792
0.835106 0.0119386 6.93889e-18 0.0039243
0.835106 0.0206445 6.93889e-18 0.00394866
0.835106 0.0300455 -6.93889e-18 0.00361875
0.835106 0.0401972 0 0.00354243
0.835106 0.0511593 0 0.00354572
0.835106 0.0629965 0 0.00358684
0.835106 0.075779 -6.93889e-18 0.00363706
0.797951 0.261279 0 0.00384927
0.835106 0.089582 0 0.00368421
0.835106 0.104487 0 0.00372693
0.624584 0.565455 0 0.00380989
0.075776 0.839731 0 0.00375269
0.756813 0.372169 -6.93889e-18 0.00384216
0.835106 0.120582 0 0.00376363
0.412065 0.73716 1.85035e-18 0.00377605
0.797951 0.280355 7.70372e-34 0.00385122
0.350249 0.770464 0 0.00376927
0.835106 0.137962 0 0.00379364
0.467897 0.706318 0 0.00378266
0.847492 0.0251646 -7.70372e-34 0.00386023
0.797951 0.289893 0 0.0038522
0.835106 0.15673 0 0.00381706
0.797951 0.300192 7.70372e-34 0.00385288
0.835106 0.176996 -6.93889e-18 0.00383454
0.288433 0.803768 0 0.00376449
0.523729 0.675477 0 0.0037913
0.715676 0.471101 0 0.0038319
0.835106 0.19888 0 0.00384701
0.797951 0.320791 0 0.00385423
0.756814 0.409637 0 0.00384317
0.67013 0.540961 6.93889e-18 0.00382022
0.835106 0.222512 0 0.00385556
0.574156 0.646915 0 0.0037998
0.219992 0.839732 0 0.0037595
0.835106 0.24803 6.93889e-18 0.00386122
0.872262 9.56361e-19 0 0.000709585
0.872262 0.00775273 0 0.00234193
0.872262 0.0161245 0 0.0040702
0.872262 0.0251646 0 0.00395179
0.872262 0.0349265 0 0.00366404
0.797951 0.354155 0 0.00385571
0.467897 0.73716 0 0.0037838
0.872262 0.0454678 0 0.003578
0.872262 0.0568507 0 0.00357984
0.872262 0.0691424 0 0.00361694
0 0.875695 0 0.00375
0.872262 0.0824156 0 0.00366335
0.797951 0.363162 -1.54074e-33 0.00385598
0.872262 0.0967484 0 0.00370909
0.624584 0.618354 -6.16298e-33 0.00381024
0.835106 0.275586 0 0.00386491
0.872262 0.112226 0 0.00375073
0.756814 0.450096 0 0.00384392
0.872262 0.120583 0 0.00376853
0.872262 0.128939 0 0.00378633
0.715676 0.516467 6.16298e-33 0.00383241
0.872262 0.137962 0 0.00380076
0.835106 0.289893 0 0.00386683
0.872262 0.146986 0 0.00381518
0.872262 0.166474 0 0.00383744
0.797951 0.390184 -1.2326e-32 0.0038568
0.151552 0.875695 0 0.00375628
0.835106 0.305342 0 0.00386733
0.872262 0.187518 0 0.00385382
0.67013 0.591905 0 0.00382055
0.872262 0.210243 0 0.00386533
0.835106 0.337473 6.93889e-18 0.00386902
0.467897 0.770464 0 0.00378299
0.797951 0.419364 -1.54074e-33 0.00385739
0.412065 0.803768 1.85035e-18 0.00377638
0.872262 0.234781 0 0.00387309
0.756814 0.493784 0 0.00384444
0.523729 0.73716 0 0.00379156
0.90582 0.00387636 0 0.000518935
0.90582 0.0119386 0 0.00402389
0.797951 0.42909 0 0.00385758
0.90582 0.0206446 0 0.00437911
0.90582 0.0300455 6.93889e-18 0.0038544
0.90582 0.0401971 6.93889e-18 0.0036375
0.905821 0.0511593 0 0.00358509
0.90582 0.0629966 -6.93889e-18 0.0036012
0.905821 0.075779 0 0.00364249
0.350249 0.839732 0 0.00376965
0.90582 0.089582 0 0.00368959
0.574156 0.706318 0 0.00380001
0.872262 0.261279 0 0.00387817
0.90582 0.104487 -6.93889e-18 0.00373553
0.715676 0.565455 0 0.0038327
0.90582 0.120582 6.93889e-18 0.00377665
0.835106 0.372169 0 0.00387023
0.90582 0.137962 -6.93889e-18 0.00381115
0.075776 0.914529 6.93889e-18 0.00375282
0.872262 0.289893 0 0.00388146
0.90582 0.15673 6.93889e-18 0.00383854
0.624584 0.675477 0 0.00381038
0.288433 0.875695 0 0.00376482
0.90582 0.176996 -6.93889e-18 0.00385921
0.797951 0.471101 0 0.00385809
0.90582 0.198881 0 0.00387405
0.872262 0.320791 0 0.00388354
0.835106 0.409637 6.93889e-18 0.00387107
0.756813 0.540961 -6.93889e-18 0.00384472
0.67013 0.646915 0 0.00382066
0.931922 0.00775273 -1.92593e-33 0.00227329
0.931922 0.0161245 -1.92593e-33 0.00436226
0.905821 0.222512 6.93889e-18 0.0038842
0.931922 0.112226 -1.92593e-33 0.00376238
0.90582 0.24803 -6.93889e-18 0.00389086
0.939379 0 0 0.000427415
0.939379 0.00775273 2.31296e-18 0.00226471
0.939379 0.0161245 2.31296e-18 0.00439876
0.939379 0.0251646 0 0.00435672
0.939379 0.0349265 0 0.00385722
0.939379 0.0454678 0 0.00365479
0.219992 0.914529 0 0.00375982
0.939379 0.0568507 0 0.00361383
0.872262 0.354155 0 0.00388486
0.939379 0.0691424 0 0.00363201
0.939379 0.0824156 0 0.00367256
0.939379 0.0967484 0 0.00371891
0.715676 0.618354 0 0.00383275
0.939379 0.112226 2.31296e-18 0.00376383
0.90582 0.275586 0 0.00389515
0.939379 0.128939 0 0.00380356
0.872262 0.372169 0 0.00388532
0.835106 0.450095 6.93889e-18 0.0038716
0.797951 0.516467 0 0.00385834
0.939379 0.146986 0 0.0038364
0 0.953363 0 0.00375
0.939379 0.166474 0 0.00386204
0.872262 0.390184 0 0.00388577
0.905821 0.305342 0 0.0038979
0.939379 0.187518 0 0.00388102
0.523729 0.803768 0 0.00379163
0.756814 0.591905 6.93889e-18 0.00384474
0.574156 0.770464 6.93889e-18 0.00380003
0.467897 0.839732 0 0.00378317
0.925956 0.261279 7.70372e-34 0.00390278
0.939379 0.210243 0 0.00389438
0.872262 0.409637 0 0.00388608
0.151552 0.953363 0 0.00375648
0.624584 0.73716 0 0.00381029
0.90582 0.337473 -6.93889e-18 0.00389936
0.412065 0.875695 1.85035e-18 0.00377659
0.939379 0.234781 0 0.00390332
0.715676 0.654056 -3.08149e-33 0.0038326
0.969689 0.00387637 -6.93889e-18 0.000337313
0.969689 0.0119386 6.93889e-18 0.00417958
0.96969 0.0206445 6.93889e-18 0.00500651
0.969689 0.0300456 0 0.00417928
0.835106 0.493784 6.93889e-18 0.00387184
0.969689 0.0401972 0 0.00375415
0.969689 0.0511592 6.93889e-18 0.00364104
0.969689 0.0629965 0 0.00362735
0.872262 0.42909 0 0.00388638
0.969689 0.075779 0 0.00365671
0.67013 0.706319 0 0.00382051
0.96969 0.089582 6.93889e-18 0.00370128
0.939379 0.261279 2.31296e-18 0.00390894
0.969689 0.104487 0 0.00374909
0.969689 0.120582 0 0.00379386
0.797951 0.565455 0 0.00385831
0.90582 0.372169 -6.93889e-18 0.0039003
0.350249 0.914529 0 0.00376992
0.96969 0.137962 0 0.00383232
0.969689 0.15673 0 0.00386325
0.939379 0.289893 0 0.0039122
0.715676 0.675477 0 0.00383252
0.969689 0.176996 -6.93889e-18 0.00388676
0.969689 0.198881 0 0.00390366
0.872262 0.471101 0 0.0038867
0.939379 0.320791 0 0.00391394
0.90582 0.409637 0 0.00390096
0.96969 0.222512 0 0.00391517
0.835106 0.540961 -6.93889e-18 0.0038718
0.756813 0.646915 0 0.00384448
0.288433 0.953363 0 0.00376506
0.075776 0.995296 0 0.00375292
1 0 0 0.000283985
1 0.00775273 0 0.00207207
1 0.0161245 0 0.00465667
1 0.0251646 0 0.00502858
1 0.0349265 0 0.00426958
0.969689 0.24803 0 0.00392257
1 0.0454678 0 0.00381839
1 0.0568507 0 0.00367632
1 0.0691424 0 0.00365844
1 0.0824156 0 0.00368561
0.939379 0.354155 0 0.00391491
1 0.0967484 0 0.00372836
1 0.112226 0 0.00377459
0.969689 0.275586 -6.93889e-18 0.00392669
1 0.128939 0 0.00381812
0.797951 0.618354 0 0.00385799
1 0.146986 0 0.0038556
0.90582 0.450095 0 0.00390137
0.872262 0.516467 6.16298e-33 0.00388673
1 0.166474 0 0.0038857
0.715676 0.721739 1.54074e-33 0.00383211
0.969689 0.305342 0 0.00392858
0.939379 0.390184 -4.62596e-18 0.00391557
0.574156 0.839731 0 0.00379982
1 0.187518 0 0.00390847
0.624584 0.803768 0 0.00380994
0.219993 0.995296 0 0.00376007
0.523729 0.875695 0 0.00379149
0.67013 0.770464 -6.93889e-18 0.00382009
1 0.210243 0 0.00392473
0.835106 0.591905 0 0.00387146
0.969689 0.337473 6.93889e-18 0.00392947
1 0.234781 0 0.00393569
0.797951 0.646915 0 0.00385766
0.467897 0.914529 0 0.00378316
0.715676 0.73716 0 0.00383198
0.90582 0.493784 -6.93889e-18 0.00390149
0.939379 0.42909 0 0.00391602
1 0.261279 0 0.00394242
0.756814 0.706318 0 0.00384389
0 1.03723 0 0.00375
1.03817 0.00380239 6.93889e-18 0.000229555
1.03817 0.0117108 0 0.00353504
1.03817 0.0202506 6.93889e-18 0.00590786
1.03817 0.0294722 0 0.00503748
0.412065 0.953363 1.85035e-18 0.00377663
0.969689 0.372169 -6.93889e-18 0.00393006
1.03817 0.0394301 0 0.0041193
1.03817 0.050183 0 0.00376388
0.872262 0.565455 0 0.00388644
1.03817 0.0617944 0 0.00367467
1.03817 0.0743329 0 0.00367566
1 0.289893 0 0.0039457
1.03817 0.0878725 0 0.00370901
1.03817 0.102493 6.93889e-18 0.00375411
1.03817 0.118281 0 0.00380135
0.797951 0.675477 0 0.00385732
1.03817 0.135329 0 0.00384503
0.151552 1.03723 0 0.00375663
1.03817 0.153739 0 0.00388199
1 0.320791 0 0.00394685
0.939379 0.471101 0 0.00391622
1.03817 0.173618 0 0.00391113
0.969689 0.409637 6.93889e-18 0.00393052
0.90582 0.540961 -6.93889e-18 0.00390129
0.350249 0.995296 6.93889e-18 0.00377007
1.03817 0.195085 -6.93889e-18 0.00393274
0.835106 0.646915 -6.93889e-18 0.00387076
1 0.354155 0 0.00394728
1.03817 0.218266 0 0.00394785
1.03817 0.243297 -6.93889e-18 0.00395776
0.969689 0.450095 0 0.0039308
0.872262 0.618354 0 0.00388577
0.939379 0.516467 0 0.00391612
0.797951 0.716599 -7.70372e-34 0.00385661
1.03817 0.270327 0 0.00396332
1 0.390184 0 0.00394756
0.67013 0.839732 6.93889e-18 0.00381933
0.624584 0.875695 0 0.00380929
0.715676 0.803768 0 0.00383108
0.288433 1.03723 0 0.00376519
1.07753 0 0 0.000285668
1.07753 0.00745221 0 0.00164479
1.07753 0.0154994 0 0.00473548
1.07753 0.0241891 0 0.00618016
1.07753 0.0335726 0 0.00526804
1.07753 0.0437053 0 0.00430668
1.07753 0.0546469 0 0.00385628
1.07753 0.0664622 0 0.00372072
0.574156 0.914529 0 0.00379933
0.756814 0.770464 0 0.00384291
1.07753 0.0792208 0 0.00370917
1.03817 0.299515 0 0.00396491
1.07753 0.0929981 0 0.00373895
0.90582 0.591904 0 0.00390071
1.07753 0.107875 0 0.0037822
1.07753 0.12394 0 0.00382822
0.075776 1.08251 0 0.003753
0.872262 0.646915 0 0.00388521
0.797951 0.73716 0 0.00385625
1.07753 0.141288 0 0.00387124
0.523729 0.953363 0 0.00379111
1 0.42909 0 0.00394778
0.969689 0.493784 0 0.00393081
1.07753 0.160021 0 0.00390799
1.03817 0.331033 -6.93889e-18 0.00396516
0.715676 0.82175 1.54074e-33 0.00383075
1.07753 0.180249 0 0.00393713
0.835106 0.706319 6.93889e-18 0.00386965
1.07753 0.202093 0 0.00395878
0.939379 0.565455 0 0.00391566
0.467897 0.995296 6.93889e-18 0.00378295
1.03817 0.365068 -6.93889e-18 0.00396514
1.07753 0.22568 0 0.00397388
0.872262 0.675477 0 0.00388465
0.219992 1.08252 0 0.00376023
1 0.471101 0 0.00394787
1.07753 0.251151 0 0.0039833
0.969689 0.540961 -6.93889e-18 0.00393048
1.11289 0.00365757 0 0.000338434
1.11289 0.0112647 -6.93889e-18 0.00250624
1.07753 0.278655 0 0.00398744
1.11289 0.0194793 0 0.0069913
0.905821 0.646915 -6.93889e-18 0.00389968
1.03817 0.40182 0 0.0039652
1.11289 0.0283496 -6.93889e-18 0.00669567
1.11289 0.0379283 0 0.00513389
1.11289 0.0482716 0 0.00416444
1.11289 0.0594408 0 0.00380524
1.11289 0.0715017 0 0.00372173
0.412065 1.03723 1.85035e-18 0.00377649
1.11289 0.0845256 0 0.00372824
1.11289 0.0985894 0 0.00376357
1.11289 0.113776 6.93889e-18 0.00380923
1.11289 0.130175 0 0.00385665
1.07753 0.308356 0 0.00398806
0.872262 0.706319 0 0.00388383
1.11289 0.147884 -6.93889e-18 0.00390034
0.939379 0.618354 -6.16298e-33 0.00391476
1.11289 0.167006 -6.93889e-18 0.00393706
1 0.516467 0 0.00394769
0 1.1278 0 0.00375
1.03817 0.441507 0 0.0039653
1.11289 0.187655 0 0.00396567
1.07753 0.340427 0 0.00398757
0.756814 0.839732 0 0.00384149
0.715676 0.875695 0 0.00382977
1.11289 0.209953 -6.93889e-18 0.00398654
0.797951 0.803768 0 0.00385471
0.67013 0.914529 0 0.0038182
0.969689 0.591904 0 0.00392974
0.835106 0.770464 0 0.00386806
1.11289 0.23403 0 0.00400073
0.350249 1.08251 0 0.00377005
0.151552 1.1278 0 0.00375671
0.624584 0.953363 0 0.00380829
1.07753 0.375059 0 0.00398706
0.872262 0.73716 0 0.003883
1.11289 0.260031 0 0.00400855
1.03817 0.484361 6.93889e-18 0.00396525
0.90582 0.706319 0 0.00389805
1 0.565455 0 0.00394715
0.574156 0.995296 0 0.00379853
1.14932 0 0 0.000455585
1.14932 0.00717391 0 0.00145752
1.14932 0.0149206 0 0.00513185
1.14932 0.0232858 0 0.00791624
1.11289 0.288107 0 0.00401008
1.14932 0.0323188 0 0.00710172
1.14932 0.0420731 0 0.0054334
1.14932 0.0526061 0 0.00434479
1.14932 0.0639802 0 0.00389019
1.14932 0.0762623 0 0.00376562
1.14932 0.0895251 0 0.00376113
1.07753 0.412457 0 0.0039868
1.14932 0.103847 0 0.00379406
0.939379 0.672117 2.6963e-33 0.00391338
1.14932 0.119312 0 0.00383874
0.939379 0.675477 2.31296e-18 0.00391329
1.14932 0.136012 0 0.00388541
1.11289 0.318425 6.93889e-18 0.00400924
0.797951 0.839732 0 0.00385367
1.14932 0.154045 0 0.00392863
0.523729 1.03723 0 0.00379044
1.14932 0.173518 0 0.00396518
0.288433 1.1278 0 0.00376518
1.14932 0.194546 0 0.0039938
0.96969 0.646915 0 0.00392848
1.03817 0.530638 0 0.00396492
1.11289 0.351163 0 0.00400798
1.07753 0.45284 0 0.00398666
1.14932 0.217252 0 0.00401467
1.14932 0.241772 0 0.00402821
1 0.618354 0 0.00394613
0.715676 0.933946 1.54074e-33 0.00382842
1.11289 0.386516 0 0.00400718
0.075776 1.1767 0 0.00375304
0.467897 1.08252 6.93889e-18 0.00378247
1.14932 0.268249 0 0.00403421
1.18208 0.00352346 0 0.000565916
1.18208 0.0108517 0 0.0024156
1.18208 0.018765 -6.93889e-18 0.0085686
1.18208 0.0273101 6.93889e-18 0.00927911
1.18208 0.0365375 -6.93889e-18 0.00715414
1.18208 0.0465016 6.93889e-18 0.00518632
1.18208 0.0572612 0 0.00417989
1.18208 0.0688799 0 0.00383876
0.835106 0.839732 6.93889e-18 0.0038659
0.797951 0.875695 0 0.00385262
1.18208 0.0814263 0 0.00376892
1.18208 0.0949744 0 0.00378199
0.872262 0.803768 0 0.00388072
1.07753 0.496447 0 0.00398642
1.14932 0.29684 0 0.00403453
0.756814 0.914529 6.93889e-18 0.00383956
1.18208 0.109604 0 0.00382058
1.18208 0.125402 -6.93889e-18 0.00386783
0.905821 0.770464 0 0.00389576
1.03817 0.580609 6.93889e-18 0.00396417
1.18208 0.142461 -6.93889e-18 0.00391601
1.11289 0.42469 0 0.00400682
0.715676 0.953363 0 0.00382797
1.18208 0.160882 0 0.00395991
0.939379 0.73716 0 0.00391116
1.14932 0.327714 0 0.00403268
1.18208 0.180774 -6.93889e-18 0.00399639
0.219992 1.1767 -6.93889e-18 0.00376027
1.18208 0.202254 6.93889e-18 0.00402443
0.969689 0.706318 0 0.00392655
0.67013 0.995296 0 0.00381662
0.412065 1.1278 1.85035e-18 0.0037761
1.18208 0.225449 0 0.00404441
1.14932 0.361053 0 0.00403078
1.11289 0.465913 -6.93889e-18 0.0040066
1 0.675477 0 0.00394452
1.07753 0.543536 0 0.00398588
1.18208 0.250496 0 0.00405628
0.624584 1.03723 0 0.00380688
0.872262 0.839732 0 0.00387923
0.797951 0.914529 0 0.00385126
1.18208 0.277543 0 0.00405889
1.21581 0 0 0.000701281
1.21581 0.00691618 0 0.00176846
1.21581 0.0143846 0 0.00606776
1.14932 0.397053 0 0.00402958
1.21581 0.0224492 0 0.0101249
1.21581 0.0311577 0 0.00993978
1.21581 0.0405616 0 0.00763773
1.03817 0.63457 6.93889e-18 0.0039629
1.21581 0.0507162 0 0.00552356
1.21581 0.0616816 0 0.00435756
1.21581 0.0735225 0 0.00391827
1.21581 0.0863088 0 0.00381258
1.21581 0.100116 0 0.00381635
1.18208 0.306749 0 0.00405688
1.21581 0.115025 0 0.00385315
1.21581 0.131125 0 0.00389982
1.11289 0.510427 6.93889e-18 0.00400624
1.21581 0.148511 0 0.00394738
0.574156 1.08251 0 0.00379736
0 1.2256 0 0.00375
1.21581 0.167284 0 0.00399073
0.350249 1.1767 0 0.00376982
1.14932 0.435928 0 0.00402896
1.18208 0.338287 0 0.00405373
1.21581 0.187556 0 0.00402687
1.07753 0.594384 0 0.00398488
1.21581 0.209447 0 0.00405471
0.151552 1.2256 -6.16298e-33 0.0037567
0.905821 0.839731 -6.93889e-18 0.00389271
0.872262 0.875695 0 0.00387773
0.939379 0.803768 0 0.00390826
1.21581 0.233086 0 0.00407398
0.835106 0.914529 0 0.00386308
0.969689 0.770464 0 0.00392385
1.18208 0.372343 -6.93889e-18 0.00405141
1 0.73716 0 0.00394217
1.21581 0.258612 0 0.00408362
0.797951 0.953363 0 0.00384991
0.523729 1.1278 0 0.00378942
1.14932 0.477907 0 0.00402853
1.11289 0.558495 0 0.00400551
1.24616 0.00339926 0 0.000828954
1.24616 0.0104692 -6.93889e-18 0.00323095
1.24616 0.0181036 0 0.00998919
1.24616 0.0263475 0 0.0125206
1.24616 0.0352496 0 0.0106012
1.24616 0.0448625 0 0.00743598
1.24616 0.0552429 -6.93889e-18 0.00519335
1.24616 0.066452 0 0.00417765
1.03817 0.69284 0 0.00396094
1.24616 0.0785561 0 0.0038745
1.21581 0.286176 0 0.00408477
1.24616 0.0916266 -6.93889e-18 0.00382063
0.756813 0.995296 0 0.00383704
1.24616 0.105741 -6.93889e-18 0.00384048
1.18208 0.409118 0 0.00405016
1.24616 0.120981 0 0.00388271
1.24616 0.137439 6.93889e-18 0.00393183
1.24616 0.155211 0 0.00398069
1.21581 0.31594 0 0.00408161
1.07753 0.649293 0 0.00398327
1.24616 0.174402 -6.93889e-18 0.00402444
0.288433 1.2256 0 0.00376498
0.715676 1.03723 0 0.00382563
1.24616 0.195125 0 0.00406027
1.14932 0.523237 0 0.00402796
0.872262 0.914529 0 0.00387583
1.18208 0.448829 0 0.00404954
1.21581 0.348082 0 0.00407771
1.24616 0.217502 6.93889e-18 0.0040873
0.467897 1.1767 -6.93889e-18 0.00378168
1.11289 0.610401 6.93889e-18 0.00400425
1.24616 0.241666 0 0.00410508
0.67013 1.08251 6.93889e-18 0.00381454
1.24616 0.26776 0 0.00411111
1.21581 0.382789 0 0.00407489
1.27738 0 0 0.000939734
1.27738 0.00667751 0 0.00230399