# nutMean  POINT_DATA 24593
# x  y  z  nutMean
0 0 0 1.94702e-05
0 0.00775273 0 0.000162094
0 0.0161245 0 0.000921706
0 0.0251646 0 0.00294254
0 0.0349265 0 0.00537971
0 0.0454678 0 0.00660283
0 0.0568507 0 0.00694396
0 0.0691424 0 0.00726767
0.075776 0.00387637 6.93889e-18 4.69575e-05
0.075776 0.0119386 0 0.000104607
0.075776 0.0206445 0 0.000617176
0.075776 0.0300455 0 0.00236356
0 0.0824156 0 0.00764515
0.075776 0.0401972 0 0.00561725
0.075776 0.0511593 0 0.00987918
0 0.0967484 0 0.00814615
0.075776 0.0629965 0 0.0145243
0.075776 0.075779 0 0.0189818
0 0.112226 0 0.00876568
0.075776 0.089582 0 0.022866
0 0.128939 0 0.00949466
0.075776 0.104487 0 0.0259921
0.075776 0.120582 0 0.0259422
0 0.146986 0 0.0103376
0.151552 0 0 0
0.151552 0.00775273 0 6.52395e-05
0.151552 0.0161245 0 0.000259197
0.151552 0.0251646 0 0.00101405
0.151552 0.0349265 0 0.0027124
0.075776 0.137962 -6.93889e-18 0.0248723
0.151552 0.0454678 0 0.00538412
0.151552 0.0568507 0 0.00875604
0 0.166474 0 0.0113181
0.151552 0.0691424 0 0.0124893
0.151552 0.0824156 0 0.0162674
0.075776 0.15673 0 0.0243488
0.151552 0.0967484 0 0.0198371
0 0.187518 0 0.0125397
0.151552 0.112226 0 0.0224374
0.075776 0.176996 0 0.0243418
0.151552 0.128939 0 0.0238871
0 0.210243 0 0.0141419
0.151552 0.146986 0 0.0249249
0.075776 0.198881 0 0.0252905
0.219992 0.00387637 0 4.6522e-05
0.219993 0.0119386 0 6.38796e-05
0.219992 0.0206446 0 0.000260848
0.219993 0.0300455 6.93889e-18 0.000860114
0.219992 0.0401971 6.93889e-18 0.00213061
0.151552 0.166474 0 0.0252809
0.219992 0.0511592 0 0.00413485
0.219992 0.0629965 0 0.00681416
0.219992 0.075779 0 0.0100431
0 0.234781 0 0.0154426
0.075776 0.222512 6.93889e-18 0.0273521
0.219992 0.089582 0 0.013622
0.151552 0.187518 0 0.0251758
0.219992 0.104487 0 0.0173052
0.219992 0.120582 0 0.0208453
0.151552 0.210243 0 0.0254484
0.075776 0.24803 6.93889e-18 0.0262883
0.219992 0.137962 6.93889e-18 0.0240331
0 0.261279 0 0.0157879
0.219992 0.15673 0 0.0264162
0.151552 0.234781 0 0.0251352
0.219992 0.176996 0 0.0259283
0.075776 0.275586 6.93889e-18 0.0238636
0.288433 0 0 0
0.288433 0.00775273 0 5.01864e-05
0.288433 0.0161245 0 0.000138322
0.288433 0.0251646 0 0.000461969
0 0.289893 0 0.0156458
0.288433 0.0349265 0 0.00121872
0.288433 0.0454678 0 0.00255656
0.288433 0.0568507 0 0.00450361
0.219992 0.19888 0 0.0251085
0.288433 0.0691424 0 0.00700782
0.288433 0.0824156 0 0.0099482
0.151552 0.261279 0 0.0236146
0.288433 0.0967484 0 0.0128971
0.288433 0.112226 0 0.015203
0.219992 0.222512 0 0.0241251
0.075776 0.305342 6.93889e-18 0.0227192
0.288433 0.128939 0 0.0169365
0 0.320791 0 0.0156075
0.288433 0.146986 0 0.0183628
0.151552 0.289893 0 0.022012
0.219992 0.24803 -6.93889e-18 0.0229325
0.288433 0.166474 0 0.0188649
0.288433 0.187518 0 0.0185581
0.075776 0.337473 -6.93889e-18 0.0224961
0.350249 0.00387636 0 3.89574e-05
0.350249 0.0119386 0 5.18164e-05
0.350249 0.0206445 0 0.000178819
0.350249 0.0300455 0 0.000556582
0.350249 0.0401972 0 0.00135138
0.219992 0.275586 0 0.0215087
0.350249 0.0511592 6.93889e-18 0.00265891
0 0.354155 0 0.0157956
0.151552 0.320791 0 0.0210037
0.350249 0.0629966 0 0.00448984
0.288433 0.210243 0 0.0181075
0.350249 0.075779 0 0.00680609
0.350249 0.089582 0 0.00948315
0.350249 0.104487 6.93889e-18 0.0113975
0.350249 0.120582 6.93889e-18 0.0115941
0.288433 0.234781 0 0.0175432
0.219993 0.305342 0 0.0200741
0.350249 0.137962 0 0.0117416
0.075776 0.37217 0 0.0226291
0.350249 0.15673 0 0.0118428
0.151552 0.354155 0 0.0204263
0.288433 0.261279 0 0.0168431
3.73903e-17 0.390184 6.16298e-33 0.0159788
0.350249 0.176996 0 0.0118907
0.350249 0.198881 -6.93889e-18 0.0118927
0.219992 0.337473 0 0.0188737
0.288433 0.289893 0 0.0160507
0.412065 9.56361e-19 0 5.13656e-21
0.412065 0.00775273 0 4.10299e-05
0.412065 0.0161245 1.85035e-18 0.000103418
0.412065 0.0251646 1.85035e-18 0.000322012
0.412065 0.0349265 1.85035e-18 0.00082904
0.412065 0.0454678 1.85035e-18 0.00174076
0.350249 0.222512 0 0.0118523
0.412065 0.0568507 1.85035e-18 0.00311043
0.075776 0.409637 0 0.0225635
0.412065 0.0691424 0 0.00492896
0.151552 0.390184 -4.62596e-18 0.0199823
0.412065 0.0824156 0 0.00707205
0.412065 0.0967484 1.85035e-18 0.00871647
0.412065 0.112226 1.85035e-18 0.00931982
0 0.42909 0 0.0159945
0.350249 0.24803 0 0.0117662
0.288433 0.320791 0 0.0152912
0.412065 0.128939 0 0.00947271
0.219992 0.372169 6.93889e-18 0.0179037
0.412065 0.146986 1.85035e-18 0.00959074
0.412065 0.166474 1.85035e-18 0.00967324
0.350249 0.275586 0 0.0116153
0.412065 0.187518 1.85035e-18 0.00972334
0.151552 0.42909 0 0.0194974
0.075776 0.450095 0 0.0222738
0.288433 0.354155 0 0.0146465
0.412065 0.210243 0 0.00974406
0.350249 0.305342 0 0.0114003
0.219992 0.409637 -6.93889e-18 0.0170731
0.467897 0.00387636 6.93889e-18 2.83978e-05
0.467897 0.0119386 -6.93889e-18 4.52802e-05
0.467897 0.0206445 6.93889e-18 0.000138676
0.467897 0.0300455 0 0.000417495
0.467897 0.0401972 0 0.00100032
0.467897 0.0511592 0 0.00197274
0 0.471101 0 0.015856
0.467897 0.0568507 0 0.00274879
0.467897 0.0629965 0 0.00335579
0.467897 0.075779 0 0.00511918
0.412065 0.234781 0 0.00973469
0.467897 0.089582 0 0.00696171
0.467897 0.104487 0 0.00715419
0.467897 0.120582 0 0.00729781
0.288433 0.390184 7.40152e-18 0.0141066
0.350249 0.337473 0 0.0111643
0.467897 0.137962 0 0.00742284
0.412065 0.261279 0 0.00968827
0.467897 0.15673 0 0.0075214
0.151552 0.471101 -4.62596e-18 0.0189823
0.075776 0.493784 0 0.0218558
0.467897 0.176996 0 0.00760291
0.219992 0.450095 0 0.0163464
0.412065 0.289893 0 0.00959851
0.467897 0.19888 0 0.0076697
0.350249 0.372169 -6.93889e-18 0.010954
3.73903e-17 0.516467 -6.16298e-33 0.0156134
0.288433 0.42909 0 0.0136392
0.467897 0.222512 0 0.00772084
0.412065 0.320791 1.85035e-18 0.00947704
0.523729 0 0 0
0.523729 0.00775273 1.85035e-18 3.33568e-05
0.523729 0.0161245 0 8.51103e-05
0.523729 0.0251646 0 0.000250798
0.523729 0.0349265 0 0.0006343
0.523729 0.0454678 0 0.00132993
0.523729 0.0511593 0 0.00185854
0.523729 0.0568507 0 0.00238716
0.523729 0.0691424 0 0.0037997
0.467897 0.24803 0 0.00775433
0.523729 0.0824156 0 0.00531242
0.523729 0.0967484 0 0.00612505
0.523729 0.112226 0 0.00628288
0.151552 0.516467 0 0.018477
0.350249 0.409637 0 0.0107737
0.523729 0.128939 0 0.0064065
0.219992 0.493784 -6.93889e-18 0.0157332
0.467897 0.275586 6.93889e-18 0.00776628
0.412065 0.354155 0 0.00935148
0.523729 0.146986 0 0.00650781
0.075776 0.540961 -6.93889e-18 0.0213723
0.523729 0.166474 0 0.00658967
0.288433 0.471101 0 0.0132362
0.523729 0.187518 0 0.00665832
0.467897 0.305342 0 0.00775365
0.523729 0.210243 0 0.00671533
0 0.565455 0 0.0153025
0.467897 0.320791 0 0.00814115
0.412065 0.390184 1.85035e-18 0.00924075
0.350249 0.450095 0 0.0106145
0.523729 0.234781 0 0.00676012
0.574157 0.00387636 0 1.91039e-05
0.574156 0.0119386 6.93889e-18 4.08803e-05
0.574156 0.0206445 0 0.000116077
0.574156 0.0300455 0 0.000332813
0.574156 0.0401971 -6.93889e-18 0.000791663
0.574156 0.0511592 0 0.00156566
0.467897 0.337473 0 0.00772309
0.574156 0.0629965 0 0.00267327
0.574157 0.075779 -6.93889e-18 0.00408026
0.574156 0.0824156 0 0.00472215
0.574156 0.089582 0 0.00513751
0.574156 0.104487 0 0.00530881
0.219993 0.540961 0 0.0152296
0.523729 0.261279 0 0.00679096
0.151552 0.565455 0 0.0179993
0.574156 0.120582 0 0.00543332
0.574156 0.137962 0 0.00553529
0.288433 0.516467 -6.16298e-33 0.0129005
0.412065 0.42909 1.85035e-18 0.00914684
0.574156 0.15673 6.93889e-18 0.00561553
0.075776 0.591904 -6.93889e-18 0.0208561
0.467897 0.372169 -6.93889e-18 0.0076899
0.523729 0.289893 0 0.00680569
0.574156 0.176996 0 0.00568311
0.350249 0.493784 0 0.0104782
0.574157 0.198881 0 0.00574205
0.523729 0.320791 0 0.00680526
0.574156 0.222512 0 0.00579319
3.73903e-17 0.618354 -6.16298e-33 0.0149492
0.467897 0.409637 6.93889e-18 0.00766393
0.624584 0 0 0
0.624584 0.00775273 0 2.72708e-05
0.624584 0.0161245 0 7.31898e-05
0.624584 0.0251646 0 0.000205449
0.574156 0.24803 6.93889e-18 0.00583624
0.624584 0.0349265 0 0.000512203
0.412065 0.471101 0 0.00906887
0.624584 0.0454678 0 0.00107321
0.624584 0.0568507 0 0.00193237
0.624584 0.0691424 0 0.00308145
0.624584 0.075779 0 0.00360666
0.624584 0.0824156 1.85035e-18 0.00413187
0.219992 0.591905 0 0.0148178
0.624584 0.0967484 0 0.00462636
0.523729 0.354155 0 0.00679672
0.412065 0.482442 -6.16298e-33 0.00905395
0.624584 0.112226 1.85035e-18 0.00477584
0.288433 0.565455 0 0.0126288
0.151552 0.618354 -6.16298e-33 0.017553
0.574156 0.275586 0 0.00587038
0.624584 0.128939 0 0.00488877
0.624584 0.146986 0 0.00497824
0.350249 0.540961 6.93889e-18 0.010369
0.624584 0.166474 0 0.00505099
0.467897 0.450095 0 0.00764755
0.574156 0.305342 -6.93889e-18 0.0058946
0.075776 0.646915 0 0.0203267
0.624584 0.187518 0 0.00511344
0.523729 0.390184 -4.62596e-18 0.00678907
0.624584 0.210243 0 0.00516828
0.412065 0.516467 1.2326e-32 0.00900919
0.574156 0.337473 -6.93889e-18 0.00591019
0.624584 0.234781 0 0.00521624
0.67013 0.00387637 0 1.15708e-05
0.67013 0.0119386 -6.93889e-18 3.76898e-05
0.67013 0.0206445 -6.93889e-18 9.84312e-05
0.67013 0.0300455 0 0.00027562
0.67013 0.0401972 0 0.000651722
0.67013 0.0511593 6.93889e-18 0.00129011
0.67013 0.0629966 0 0.00221162
0.67013 0.075779 -6.93889e-18 0.00337825
0.67013 0.0824156 0 0.0037267
0 0.675477 0 0.0145741
0.67013 0.089582 0 0.00395944
0.624584 0.261279 0 0.00525728
0.523729 0.42909 0 0.00678766
0.67013 0.104487 -6.93889e-18 0.00413428
0.467897 0.493784 6.93889e-18 0.00764173
0.67013 0.120582 0 0.0042614
0.288433 0.618354 0 0.0124133
0.219993 0.646915 -6.93889e-18 0.0144802
0.67013 0.137962 0 0.00435949
0.574156 0.372169 6.93889e-18 0.0059224
0.350249 0.591905 0 0.01029
0.67013 0.15673 6.93889e-18 0.00443709
0.624584 0.289893 0 0.00529096
0.151552 0.675477 0 0.0171389
0.67013 0.176996 0 0.00450267
0.685312 0.112226 -7.70372e-34 0.00411908
0.67013 0.19888 -6.93889e-18 0.00456036
0.412065 0.565455 0 0.00897103
0.624584 0.320791 0 0.00531746
0.523729 0.471101 0 0.00679461
0.574156 0.409637 6.93889e-18 0.00593702
0.67013 0.222512 -6.93889e-18 0.00461187
0.075776 0.706318 0 0.0198006
0.67013 0.24803 0 0.00465787
0.467897 0.540961 0 0.00764895
0.715676 4.78181e-19 0 8.61443e-22
0.715676 0.00775273 0 2.29509e-05
0.715676 0.0161245 0 6.42644e-05
0.715676 0.0251646 0 0.000170855
0.715676 0.0349265 0 0.000412768
0.715676 0.0454678 0 0.000884225
0.715676 0.0568507 0 0.0016184
0.624584 0.354155 0 0.00533904
0.715676 0.0691424 0 0.00256992
0.715676 0.0824156 0 0.00332152
0.715676 0.0967484 0 0.00363612
0.715676 0.112226 0 0.0037907
0.67013 0.275586 0 0.00469856
0.715676 0.128939 0 0.00390615
0.574156 0.450095 0 0.00595752
0.715676 0.146986 0 0.00399594
0.288433 0.675477 0 0.0122469
0.715676 0.166474 0 0.00406931
0.523729 0.516467 -6.16298e-33 0.00681162
0.350249 0.646916 0 0.0102419
0.67013 0.305342 0 0.00473385
0.624584 0.390184 -4.62596e-18 0.00535988
0 0.73716 0 0.0141951
0.219992 0.706318 0 0.0142042
0.715676 0.187518 0 0.00413228
0.412065 0.618354 1.85035e-18 0.00895689
0.743101 0.0251646 -7.70372e-34 0.000161296
0.715676 0.210243 0 0.00418781
0.67013 0.337473 6.93889e-18 0.00476423
0.151552 0.73716 -6.16298e-33 0.01676
0.715676 0.234781 0 0.00423732
0.467897 0.591904 6.93889e-18 0.00767246
0.756814 0.00387637 6.93889e-18 6.5651e-06
0.756814 0.0119386 0 3.60665e-05
0.756814 0.0206446 -6.93889e-18 8.50708e-05
0.574156 0.493784 0 0.00598549
0.756814 0.0300455 0 0.000225144
0.624584 0.42909 0 0.00538386
0.756813 0.0401972 6.93889e-18 0.00050122
0.756814 0.0511593 -6.93889e-18 0.00109837
0.756814 0.0629965 6.93889e-18 0.00188042
0.756814 0.075779 -6.93889e-18 0.00282107
0.715676 0.261279 0 0.00428147
0.756814 0.089582 -6.93889e-18 0.00314487
0.756814 0.104487 -6.93889e-18 0.00332648
0.449286 0.618354 3.08149e-33 0.00826671
0.756814 0.120582 -6.93889e-18 0.00346102
0.67013 0.37217 6.93889e-18 0.00479179
0.756813 0.137962 0 0.0035629
0.523729 0.565455 0 0.00684123
0.715676 0.289893 0 0.00432057
0.770526 0.0568507 7.70372e-34 0.00146243
0.756814 0.15673 0 0.00364436
0.075776 0.770464 0 0.0192939
0.756814 0.176996 -6.93889e-18 0.00371306
0.624584 0.471101 0 0.00541334
0.756814 0.198881 -6.93889e-18 0.00377287
0.715676 0.320791 0 0.00435496
0.67013 0.409637 0 0.00482015
0.350249 0.706318 0 0.0102253
0.756813 0.222512 0 0.00382588
0.574156 0.540961 0 0.00602274
0.412065 0.675477 1.85035e-18 0.00896858
0.288433 0.73716 0 0.0121254
0.756814 0.24803 -6.93889e-18 0.00387329
0.797951 9.56361e-19 0 7.81897e-22
0.797951 0.00775273 0 2.05662e-05
0.797951 0.0161245 0 5.87526e-05
0.797951 0.0206445 0 0.000100465
0.797951 0.0251646 0 0.000142178
0.467897 0.646915 -6.93889e-18 0.00771517
0.715676 0.354155 0 0.00438574
0.797951 0.0300455 0 0.000233844
0.797951 0.0349265 0 0.00032551
0.797951 0.0454678 0 0.000731332
0.797951 0.0530564 7.70372e-34 0.00116674
0.797951 0.0568507 0 0.00138445
0.797951 0.0609479 7.70372e-34 0.00163891
0.797951 0.0691424 0 0.00214783
0.219992 0.770464 -6.93889e-18 0.0139822
0.797951 0.0824156 0 0.00269886
0.715676 0.363162 1.54074e-33 0.00439311
0 0.803768 0 0.0138292
0.797951 0.0967484 0 0.00294995
0.756814 0.275586 0 0.0039157
0.797951 0.112226 0 0.00311242
0.67013 0.450095 -6.93889e-18 0.00485204
0.797951 0.128939 0 0.00323378
0.523729 0.618354 -6.16298e-33 0.00688635
0.624584 0.516467 -6.16298e-33 0.00544998
0.797951 0.146986 0 0.00332823
0.715676 0.390184 0 0.00441524
0.797951 0.166474 0 0.0034054
0.756814 0.305342 6.93889e-18 0.00395356
0.151552 0.803768 0 0.0164218
0.797951 0.187518 0 0.00347086
0.574156 0.591904 0 0.00607187
0.822721 0.0568507 7.70372e-34 0.00130722
0.797951 0.210243 0 0.00352765
0.756814 0.337473 0 0.00398743
0.715676 0.419364 1.54074e-33 0.00443841
0.797951 0.234781 0 0.00357759
0.67013 0.493784 -6.93889e-18 0.00488911
0.822721 0.128939 -7.70372e-34 0.00308111
0.715676 0.42909 0 0.00444614
0.835106 0.00387637 -6.93889e-18 3.69644e-06
0.835106 0.0119386 6.93889e-18 3.59742e-05
0.835106 0.0206445 6.93889e-18 7.79862e-05
0.835106 0.0300455 -6.93889e-18 0.000181095
0.835106 0.0401972 0 0.000396263
0.835106 0.0511593 0 0.000932589
0.835106 0.0629965 0 0.00163118
0.835106 0.075779 -6.93889e-18 0.00226767
0.797951 0.261279 0 0.00362182
0.835106 0.089582 0 0.00257414
0.835106 0.104487 0 0.00276662
0.624584 0.565455 0 0.00549583
0.075776 0.839731 0 0.0188236
0.756813 0.372169 -6.93889e-18 0.00401856
0.835106 0.120582 0 0.00290765
0.412065 0.73716 1.85035e-18 0.00900832
0.797951 0.280355 7.70372e-34 0.003648
0.350249 0.770464 0 0.010242
0.835106 0.137962 0 0.00301549
0.467897 0.706318 0 0.00777989
0.847492 0.0251646 -7.70372e-34 0.000128362
0.797951 0.289893 0 0.00366109
0.835106 0.15673 0 0.00310196
0.797951 0.300192 7.70372e-34 0.00367275
0.835106 0.176996 -6.93889e-18 0.00317392
0.288433 0.803768 0 0.0120476
0.523729 0.675477 0 0.00694995
0.715676 0.471101 0 0.00448044
0.835106 0.19888 0 0.00323519
0.797951 0.320791 0 0.00369608
0.756814 0.409637 0 0.00404934
0.67013 0.540961 6.93889e-18 0.00493295
0.835106 0.222512 0 0.00328822
0.574156 0.646915 0 0.00613581
0.219992 0.839732 0 0.0138118
0.835106 0.24803 6.93889e-18 0.00333452
0.872262 9.56361e-19 0 4.42404e-22
0.872262 0.00775273 0 1.95488e-05
0.872262 0.0161245 0 5.63831e-05
0.872262 0.0251646 0 0.000121454
0.872262 0.0349265 0 0.000262836
0.797951 0.354155 0 0.00372769
0.467897 0.73716 0 0.00802192
0.872262 0.0454678 0 0.000587117
0.872262 0.0568507 0 0.00115278
0.872262 0.0691424 0 0.00178142
0 0.875695 0 0.0134925
0.872262 0.0824156 0 0.00222638
0.797951 0.363162 -1.54074e-33 0.00373511
0.872262 0.0967484 0 0.00247893
0.624584 0.618354 -6.16298e-33 0.00555354
0.835106 0.275586 0 0.0033753
0.872262 0.112226 0 0.00264911
0.756814 0.450096 0 0.00408173
0.872262 0.120583 0 0.00271245
0.872262 0.128939 0 0.00277578
0.715676 0.516467 6.16298e-33 0.00451979
0.872262 0.137962 0 0.00282503
0.835106 0.289893 0 0.00342966
0.872262 0.146986 0 0.00287429
0.872262 0.166474 0 0.00295369
0.797951 0.390184 -1.2326e-32 0.00375738
0.151552 0.875695 0 0.0161324
0.835106 0.305342 0 0.0034113
0.872262 0.187518 0 0.0030194
0.67013 0.591905 0 0.00498578
0.872262 0.210243 0 0.00307478
0.835106 0.337473 6.93889e-18 0.00344351
0.467897 0.770464 0 0.00787037
0.797951 0.419364 -1.54074e-33 0.00377962
0.412065 0.803768 1.85035e-18 0.00907974
0.872262 0.234781 0 0.00312206
0.756814 0.493784 0 0.00411747
0.523729 0.73716 0 0.00703552
0.90582 0.00387636 0 2.1312e-06
0.90582 0.0119386 0 3.64097e-05
0.797951 0.42909 0 0.00378703
0.90582 0.0206446 0 7.51924e-05
0.90582 0.0300455 6.93889e-18 0.00015186
0.90582 0.0401971 6.93889e-18 0.000323124
0.905821 0.0511593 0 0.000699462
0.90582 0.0629966 -6.93889e-18 0.00135284
0.905821 0.075779 0 0.00188038
0.350249 0.839732 0 0.0102955
0.90582 0.089582 0 0.00219056
0.574156 0.706318 0 0.0062178
0.872262 0.261279 0 0.00316281
0.90582 0.104487 -6.93889e-18 0.00239149
0.715676 0.565455 0 0.00456608
0.90582 0.120582 6.93889e-18 0.00253761
0.835106 0.372169 0 0.00347273
0.90582 0.137962 -6.93889e-18 0.0026492
0.075776 0.914529 6.93889e-18 0.0184076
0.872262 0.289893 0 0.00319822
0.90582 0.15673 6.93889e-18 0.00273725
0.624584 0.675477 0 0.00562618
0.288433 0.875695 0 0.0120156
0.90582 0.176996 -6.93889e-18 0.00280836
0.797951 0.471101 0 0.00381851
0.90582 0.198881 0 0.00286687
0.872262 0.320791 0 0.00322918
0.835106 0.409637 6.93889e-18 0.00350034
0.756813 0.540961 -6.93889e-18 0.00415818
0.67013 0.646915 0 0.0050504
0.931922 0.00775273 -1.92593e-33 1.95875e-05
0.931922 0.0161245 -1.92593e-33 5.66356e-05
0.905821 0.222512 6.93889e-18 0.00291564
0.931922 0.112226 -1.92593e-33 0.00236767
0.90582 0.24803 -6.93889e-18 0.00295672
0.939379 0 0 0
0.939379 0.00775273 2.31296e-18 1.95923e-05
0.939379 0.0161245 2.31296e-18 5.66672e-05
0.939379 0.0251646 0 0.000109751
0.939379 0.0349265 0 0.000223821
0.939379 0.0454678 0 0.00046517
0.219992 0.914529 0 0.0136945
0.939379 0.0568507 0 0.000923829
0.872262 0.354155 0 0.00325643
0.939379 0.0691424 0 0.00148097
0.939379 0.0824156 0 0.0018984
0.939379 0.0967484 0 0.00215773
0.715676 0.618354 0 0.00462173
0.939379 0.112226 2.31296e-18 0.00233249
0.90582 0.275586 0 0.00299162
0.939379 0.128939 0 0.00246137
0.872262 0.372169 0 0.00326876
0.835106 0.450095 6.93889e-18 0.0035282
0.797951 0.516467 0 0.00385351
0.939379 0.146986 0 0.00256045
0 0.953363 0 0.0132007
0.939379 0.166474 0 0.00263853
0.872262 0.390184 0 0.00328108
0.905821 0.305342 0 0.00302168
0.939379 0.187518 0 0.00270114
0.523729 0.803768 0 0.00714771
0.756814 0.591905 6.93889e-18 0.00420591
0.574156 0.770464 6.93889e-18 0.00632195
0.467897 0.839732 0 0.0079919
0.925956 0.261279 7.70372e-34 0.00289528
0.939379 0.210243 0 0.00275205
0.872262 0.409637 0 0.00329289
0.151552 0.953363 0 0.015903
0.624584 0.73716 0 0.00571749
0.90582 0.337473 -6.93889e-18 0.0030473
0.412065 0.875695 1.85035e-18 0.00918818
0.939379 0.234781 0 0.00279386
0.715676 0.654056 -3.08149e-33 0.00466429
0.969689 0.00387637 -6.93889e-18 1.38796e-06
0.969689 0.0119386 6.93889e-18 3.84371e-05
0.96969 0.0206445 6.93889e-18 7.66113e-05
0.969689 0.0300456 0 0.000135474
0.835106 0.493784 6.93889e-18 0.00355813
0.969689 0.0401972 0 0.000285295
0.969689 0.0511592 6.93889e-18 0.000554333
0.969689 0.0629965 0 0.00109207
0.872262 0.42909 0 0.0033047
0.969689 0.075779 0 0.001603
0.67013 0.706319 0 0.0051302
0.96969 0.089582 6.93889e-18 0.00192406
0.939379 0.261279 2.31296e-18 0.00282839
0.969689 0.104487 0 0.00212905
0.969689 0.120582 0 0.00227595
0.797951 0.565455 0 0.00389389
0.90582 0.372169 -6.93889e-18 0.00306934
0.350249 0.914529 0 0.0103913
0.96969 0.137962 0 0.00238685
0.969689 0.15673 0 0.00247264
0.939379 0.289893 0 0.00285699
0.715676 0.675477 0 0.00468982
0.969689 0.176996 -6.93889e-18 0.00254002
0.969689 0.198881 0 0.00259354
0.872262 0.471101 0 0.00332899
0.939379 0.320791 0 0.0028807
0.90582 0.409637 0 0.00308919
0.96969 0.222512 0 0.00263644
0.835106 0.540961 -6.93889e-18 0.00359183
0.756813 0.646915 0 0.00426337
0.288433 0.953363 0 0.0120347
0.075776 0.995296 0 0.0180655
1 0 0 0
1 0.00775273 0 1.88579e-05
1 0.0161245 0 5.68775e-05
1 0.0251646 0 0.000102861
1 0.0349265 0 0.000187697
0.969689 0.24803 0 0.00267103
1 0.0454678 0 0.00036428
1 0.0568507 0 0.000719629
1 0.0691424 0 0.00121658
1 0.0824156 0 0.0016541
0.939379 0.354155 0 0.00290045
1 0.0967484 0 0.00194408
1 0.112226 0 0.00213205
0.969689 0.275586 -6.93889e-18 0.00269866
1 0.128939 0 0.00226478
0.797951 0.618354 0 0.00394198
1 0.146986 0 0.00236365
0.90582 0.450095 0 0.00310842
0.872262 0.516467 6.16298e-33 0.00335568
1 0.166474 0 0.00243911
0.715676 0.721739 1.54074e-33 0.00475306
0.969689 0.305342 0 0.00272054
0.939379 0.390184 -4.62596e-18 0.0029174
0.574156 0.839731 0 0.00645376
1 0.187518 0 0.00249745
0.624584 0.803768 0 0.00583229
0.219993 0.995296 0 0.0136364
0.523729 0.875695 0 0.00729281
0.67013 0.770464 -6.93889e-18 0.00522939
1 0.210243 0 0.0025429
0.835106 0.591905 0 0.0036313
0.969689 0.337473 6.93889e-18 0.00273792
1 0.234781 0 0.00257846
0.797951 0.646915 0 0.00397138
0.467897 0.914529 0 0.00815159
0.715676 0.73716 0 0.00477414
0.90582 0.493784 -6.93889e-18 0.00312868
0.939379 0.42909 0 0.00293291
1 0.261279 0 0.00260617
0.756814 0.706318 0 0.00433394
0 1.03723 0 0.0129703
1.03817 0.00380239 6.93889e-18 9.10126e-07
1.03817 0.0117108 0 3.46596e-05
1.03817 0.0202506 6.93889e-18 7.77775e-05
1.03817 0.0294722 0 0.000121456
0.412065 0.953363 1.85035e-18 0.00934104
0.969689 0.372169 -6.93889e-18 0.00275199
1.03817 0.0394301 0 0.000207685
1.03817 0.050183 0 0.000407622
0.872262 0.565455 0 0.00338666
1.03817 0.0617944 0 0.000820332
1.03817 0.0743329 0 0.00134552
1 0.289893 0 0.00262736
1.03817 0.0878725 0 0.0017392
1.03817 0.102493 6.93889e-18 0.00198049
1.03817 0.118281 0 0.0021397
0.797951 0.675477 0 0.00400078
1.03817 0.135329 0 0.00225381
0.151552 1.03723 0 0.0157481
1.03817 0.153739 0 0.00233852
1 0.320791 0 0.00264339
0.939379 0.471101 0 0.00294855
1.03817 0.173618 0 0.00240242
0.969689 0.409637 6.93889e-18 0.00276389
0.90582 0.540961 -6.93889e-18 0.00315168
0.350249 0.995296 6.93889e-18 0.0105372
1.03817 0.195085 -6.93889e-18 0.00245092
0.835106 0.646915 -6.93889e-18 0.00367914
1 0.354155 0 0.00265577
1.03817 0.218266 0 0.00248771
1.03817 0.243297 -6.93889e-18 0.00251554
0.969689 0.450095 0 0.00277504
0.872262 0.618354 0 0.00342429
0.939379 0.516467 0 0.00296599
0.797951 0.716599 -7.70372e-34 0.00404961
1.03817 0.270327 0 0.00253623
1 0.390184 0 0.00266573
0.67013 0.839732 6.93889e-18 0.00535349
0.624584 0.875695 0 0.00597695
0.715676 0.803768 0 0.00487953
0.288433 1.03723 0 0.0121137
1.07753 0 0 0
1.07753 0.00745221 0 1.63297e-05
1.07753 0.0154994 0 5.53402e-05
1.07753 0.0241891 0 9.96472e-05
1.07753 0.0335726 0 0.000153049
1.07753 0.0437053 0 0.000259278
1.07753 0.0546469 0 0.000497536
1.07753 0.0664622 0 0.000901473
0.574156 0.914529 0 0.0066205
0.756814 0.770464 0 0.00442185
1.07753 0.0792208 0 0.00135007
1.03817 0.299515 0 0.00255064
1.07753 0.0929981 0 0.00169375
0.90582 0.591904 0 0.00317959
1.07753 0.107875 0 0.00191226
1.07753 0.12394 0 0.00205436
0.075776 1.08251 0 0.0178191
0.872262 0.646915 0 0.00344789
0.797951 0.73716 0 0.00407402
1.07753 0.141288 0 0.00215367
0.523729 0.953363 0 0.00747901
1 0.42909 0 0.00267456
0.969689 0.493784 0 0.00278705
1.07753 0.160021 0 0.00222578
1.03817 0.331033 -6.93889e-18 0.00256096
0.715676 0.82175 1.54074e-33 0.00491271
1.07753 0.180249 0 0.00227886
0.835106 0.706319 6.93889e-18 0.00373866
1.07753 0.202093 0 0.00231789
0.939379 0.565455 0 0.00298713
0.467897 0.995296 6.93889e-18 0.00835863
1.03817 0.365068 -6.93889e-18 0.00256856
1.07753 0.22568 0 0.00234618
0.872262 0.675477 0 0.0034715
0.219992 1.08252 0 0.0136486
1 0.471101 0 0.00268381
1.07753 0.251151 0 0.00236585
0.969689 0.540961 -6.93889e-18 0.00280164
1.11289 0.00365757 0 1.24044e-06
1.11289 0.0112647 -6.93889e-18 2.86952e-05
1.07753 0.278655 0 0.00237818
1.11289 0.0194793 0 8.03454e-05
0.905821 0.646915 -6.93889e-18 0.00321505
1.03817 0.40182 0 0.00257467
1.11289 0.0283496 -6.93889e-18 0.000119017
1.11289 0.0379283 0 0.000165507
1.11289 0.0482716 0 0.000262428
1.11289 0.0594408 0 0.000514501
1.11289 0.0715017 0 0.000948404
0.412065 1.03723 1.85035e-18 0.00954811
1.11289 0.0845256 0 0.0013912
1.11289 0.0985894 0 0.00168481
1.11289 0.113776 6.93889e-18 0.00186249
1.11289 0.130175 0 0.00197925
1.07753 0.308356 0 0.00238475
0.872262 0.706319 0 0.00350176
1.11289 0.147884 -6.93889e-18 0.00206093
0.939379 0.618354 -6.16298e-33 0.00301425
1.11289 0.167006 -6.93889e-18 0.00211935
1 0.516467 0 0.00269527
0 1.1278 0 0.0128191
1.03817 0.441507 0 0.00258068
1.11289 0.187655 0 0.00216124
1.07753 0.340427 0 0.00238746
0.756814 0.839732 0 0.0045325
0.715676 0.875695 0 0.00501227
1.11289 0.209953 -6.93889e-18 0.00219067
0.797951 0.803768 0 0.00416639
0.67013 0.914529 0 0.00550967
0.969689 0.591904 0 0.0028208
0.835106 0.770464 0 0.00381387
1.11289 0.23403 0 0.00221027
0.350249 1.08251 0 0.0107439
0.151552 1.1278 0 0.015686
0.624584 0.953363 0 0.00615974
1.07753 0.375059 0 0.0023877
0.872262 0.73716 0 0.00353201
1.11289 0.260031 0 0.00222145
1.03817 0.484361 6.93889e-18 0.00258831
0.90582 0.706319 0 0.00326133
1 0.565455 0 0.00271102
0.574156 0.995296 0 0.00683145
1.14932 0 0 0
1.14932 0.00717391 0 1.66986e-05
1.14932 0.0149206 0 6.10302e-05
1.14932 0.0232858 0 0.000107574
1.11289 0.288107 0 0.00222516
1.14932 0.0323188 0 0.000144573
1.14932 0.0420731 0 0.00019875
1.14932 0.0526061 0 0.000327351
1.14932 0.0639802 0 0.000602573
1.14932 0.0762623 0 0.00100082
1.14932 0.0895251 0 0.00138043
1.07753 0.412457 0 0.00238672
1.14932 0.103847 0 0.00164221
0.939379 0.672117 2.6963e-33 0.00304801
1.14932 0.119312 0 0.00180443
0.939379 0.675477 2.31296e-18 0.00305012
1.14932 0.136012 0 0.00191027
1.11289 0.318425 6.93889e-18 0.00222376
0.797951 0.839732 0 0.00422518
1.14932 0.154045 0 0.00198347
0.523729 1.03723 0 0.00771681
1.14932 0.173518 0 0.00203517
0.288433 1.1278 0 0.0122656
1.14932 0.194546 0 0.00207119
0.96969 0.646915 0 0.00284689
1.03817 0.530638 0 0.00259969
1.11289 0.351163 0 0.00221894
1.07753 0.45284 0 0.00238585
1.14932 0.217252 0 0.00209495
1.14932 0.241772 0 0.00210859
1 0.618354 0 0.00273344
0.715676 0.933946 1.54074e-33 0.00513844
1.11289 0.386516 0 0.00221189
0.075776 1.1767 0 0.0176938
0.467897 1.08252 6.93889e-18 0.00862462
1.14932 0.268249 0 0.0021131
1.18208 0.00352346 0 1.92131e-06
1.18208 0.0108517 0 3.47324e-05
1.18208 0.018765 -6.93889e-18 9.95681e-05
1.18208 0.0273101 6.93889e-18 0.000130419
1.18208 0.0365375 -6.93889e-18 0.000163084
1.18208 0.0465016 6.93889e-18 0.000205882
1.18208 0.0572612 0 0.000334174
1.18208 0.0688799 0 0.000629141
0.835106 0.839732 6.93889e-18 0.00390997
0.797951 0.875695 0 0.00428396
1.18208 0.0814263 0 0.00105524
1.18208 0.0949744 0 0.00140961
0.872262 0.803768 0 0.00361038
1.07753 0.496447 0 0.00238687
1.14932 0.29684 0 0.0021102
0.756814 0.914529 6.93889e-18 0.00467299
1.18208 0.109604 0 0.00162788
1.18208 0.125402 -6.93889e-18 0.00176228
0.905821 0.770464 0 0.00332265
1.03817 0.580609 6.93889e-18 0.00261727
1.18208 0.142461 -6.93889e-18 0.001852
1.11289 0.42469 0 0.00220386
0.715676 0.953363 0 0.00518049
1.18208 0.160882 0 0.00191458
0.939379 0.73716 0 0.00309817
1.14932 0.327714 0 0.00210216
1.18208 0.180774 -6.93889e-18 0.00195832
0.219992 1.1767 -6.93889e-18 0.0137471
1.18208 0.202254 6.93889e-18 0.00198728
0.969689 0.706318 0 0.00288273
0.67013 0.995296 0 0.00570737
0.412065 1.1278 1.85035e-18 0.00982231
1.18208 0.225449 0 0.00200446
1.14932 0.361053 0 0.00209079
1.11289 0.465913 -6.93889e-18 0.00219584
1 0.675477 0 0.00276527
1.07753 0.543536 0 0.00239193
1.18208 0.250496 0 0.00201127
0.624584 1.03723 0 0.00639115
0.872262 0.839732 0 0.00366137
0.797951 0.914529 0 0.00435919
1.18208 0.277543 0 0.00200802
1.21581 0 0 0
1.21581 0.00691618 0 2.22601e-05
1.21581 0.0143846 0 8.35428e-05
1.14932 0.397053 0 0.00207783
1.21581 0.0224492 0 0.000137471
1.21581 0.0311577 0 0.000161671
1.21581 0.0405616 0 0.000189386
1.03817 0.63457 6.93889e-18 0.0026437
1.21581 0.0507162 0 0.000248662
1.21581 0.0616816 0 0.000403935
1.21581 0.0735225 0 0.00070174
1.21581 0.0863088 0 0.00106735
1.21581 0.100116 0 0.00136942
1.18208 0.306749 0 0.00199785
1.21581 0.115025 0 0.0015685
1.21581 0.131125 0 0.00169617
1.11289 0.510427 6.93889e-18 0.00219014
1.21581 0.148511 0 0.0017826
0.574156 1.08251 0 0.00709863
0 1.2256 0 0.0127671
1.21581 0.167284 0 0.00184371
0.350249 1.1767 0 0.0110258
1.14932 0.435928 0 0.00206438
1.18208 0.338287 0 0.00198275
1.21581 0.187556 0 0.0018862
1.07753 0.594384 0 0.00240331
1.21581 0.209447 0 0.00191312
0.151552 1.2256 -6.16298e-33 0.0157405
0.905821 0.839731 -6.93889e-18 0.00340389
0.872262 0.875695 0 0.00371237
0.939379 0.803768 0 0.00316253
1.21581 0.233086 0 0.00192676
0.835106 0.914529 0 0.00403355
0.969689 0.770464 0 0.00293173
1.18208 0.372343 -6.93889e-18 0.00196492
1 0.73716 0 0.00280977
1.21581 0.258612 0 0.00192851
0.797951 0.953363 0 0.00443442
0.523729 1.1278 0 0.0080196
1.14932 0.477907 0 0.00205217
1.11289 0.558495 0 0.00218852
1.24616 0.00339926 0 2.61439e-06
1.24616 0.0104692 -6.93889e-18 4.9314e-05
1.24616 0.0181036 0 0.000148633
1.24616 0.0263475 0 0.00016862
1.24616 0.0352496 0 0.000182815
1.24616 0.0448625 0 0.000205206
1.24616 0.0552429 -6.93889e-18 0.000252012
1.24616 0.066452 0 0.000409843
1.03817 0.69284 0 0.00268206
1.24616 0.0785561 0 0.000729654
1.21581 0.286176 0 0.00191975
1.24616 0.0916266 -6.93889e-18 0.00109455
0.756813 0.995296 0 0.00485221
1.24616 0.105741 -6.93889e-18 0.00136332
1.18208 0.409118 0 0.0019467
1.24616 0.120981 0 0.00153548
1.24616 0.137439 6.93889e-18 0.00164802
1.24616 0.155211 0 0.00172769
1.21581 0.31594 0 0.00190348
1.07753 0.649293 0 0.00242347
1.24616 0.174402 -6.93889e-18 0.00178519
0.288433 1.2256 0 0.0125089
0.715676 1.03723 0 0.00539432
1.24616 0.195125 0 0.00182423
1.14932 0.523237 0 0.00204328
0.872262 0.914529 0 0.00377885
1.18208 0.448829 0 0.00192788
1.21581 0.348082 0 0.0018829
1.24616 0.217502 6.93889e-18 0.0018463
0.467897 1.1767 -6.93889e-18 0.00896464
1.11289 0.610401 6.93889e-18 0.00219321
1.24616 0.241666 0 0.00185461
0.67013 1.08251 6.93889e-18 0.00595798
1.24616 0.26776 0 0.00184975
1.21581 0.382789 0 0.00186106
1.27738 0 0 0
1.27738 0.00667751 0 2.94888e-05