# nutMean  POINT_DATA 18174
# x  y  z  nutMean
0 0.5 -2.35744e-17 0.0157014
0 0.5 -0.0544472 0.0157107
0 0.5 0.0544472 0.0157217
0 0.5 0.0955528 0.0156347
0 0.5 -0.0955528 0.0156147
0.075776 0.5 -0.075 0.0206492
0.075776 0.5 0.075 0.0206678
0 0.5 -0.15 0.0153387
0 0.5 0.15 0.0153726
0.151552 0.5 1.3433e-17 0.0186604
0 0.5 -0.204447 0.0150896
0 0.5 0.204447 0.0151375
0.151552 0.5 -0.15 0.0183647
0.151552 0.5 0.15 0.0184003
0.219992 0.5 -0.075 0.015689
0.219992 0.5 0.075 0.0157018
0.075776 0.5 -0.225 0.0198757
0.075776 0.5 0.225 0.0199443
0 0.5 -0.245553 0.0148542
0 0.5 0.245553 0.0149088
0.288433 0.5 -2.35744e-17 0.0130224
0 0.5 -0.3 0.0144511
0 0.5 0.3 0.0145096
0.219992 0.5 -0.225 0.0153552
0.219992 0.5 0.225 0.0153916
0.288433 0.5 -0.15 0.0129581
0.288433 0.5 0.15 0.0129729
0.151552 0.5 -0.3 0.0175793
0.151552 0.5 0.3 0.0176418
0 0.5 -0.354447 0.0140688
0 0.5 0.354447 0.0141316
0.350249 0.5 0.075 0.0105924
0.350249 0.5 -0.075 0.0105895
0.075776 0.5 -0.375 0.0185239
0.075776 0.5 0.375 0.0186083
0 0.5 -0.395553 0.0137939
0 0.5 0.395553 0.0138579
0.412065 0.5 -2.86452e-17 0.00903085
0.288433 0.5 -0.3 0.012782
0.288433 0.5 0.3 0.0128085
0.350249 0.5 0.225 0.0106607
0.350249 0.5 -0.225 0.0106521
0.219992 0.5 -0.375 0.0148233
0.219992 0.5 0.375 0.0148724
0.412065 0.5 -0.15 0.00908583
0.412065 0.5 0.15 0.00908832
0 0.5 -0.45 0.0134176
0 0.5 0.45 0.0134805
0.467897 0.5 -0.075 0.00771346
0.467897 0.5 0.075 0.00771375
0.151552 0.5 -0.45 0.0166104
0.151552 0.5 0.45 0.0166802
0 0.5 -0.504447 0.0130561
0 0.5 0.504447 0.0131181
0.412065 0.5 -0.3 0.0092181
0.412065 0.5 0.3 0.00922493
0.350249 0.5 -0.375 0.0106954
0.350249 0.5 0.375 0.0107101
0.467897 0.5 0.225 0.00784481
0.467897 0.5 -0.225 0.00784422
0.523729 0.5 -2.35744e-17 0.00680545
0.075776 0.5 -0.525 0.017239
0.075776 0.5 0.525 0.0173208
0.288433 0.5 -0.45 0.0125858
0.288433 0.5 0.45 0.0126187
0.523729 0.5 -0.15 0.00687236
0.523729 0.5 0.15 0.00687208
0 0.5 -0.545553 0.0128236
0 0.5 0.545553 0.0128842
0.219992 0.5 -0.525 0.0143091
0.219992 0.5 0.525 0.0143619
0.574156 0.5 -0.075 0.00602884
0.574156 0.5 0.075 0.00602849
0.467897 0.5 -0.375 0.00807807
0.467897 0.5 0.375 0.00808438
0 0.5 -0.6 0.0125464
0 0.5 0.6 0.0126038
0.523729 0.5 -0.3 0.00706838
0.523729 0.5 0.3 0.00706951
0.412065 0.5 -0.45 0.00941461
0.412065 0.5 0.45 0.00942481
0.574156 0.5 -0.225 0.00615952
0.574156 0.5 0.225 0.00615876
0.151552 0.5 -0.6 0.0157901
0.151552 0.5 0.6 0.0158566
0.624584 0.5 -2.35744e-17 0.00543668
0.350249 0.5 -0.525 0.0108429
0.350249 0.5 0.525 0.0108609
0.624584 0.5 -0.15 0.00549945
0.624584 0.5 0.15 0.00549874
0 0.5 -0.654447 0.012279
0 0.5 0.654447 0.0123335
0.288433 0.5 -0.6 0.0124756
0.288433 0.5 0.6 0.0125104
0.67013 0.5 -0.075 0.00492016
0.67013 0.5 0.075 0.00491967
0.075776 0.5 0.675 0.0163561
0.075776 0.5 -0.675 0.0162847
0.574156 0.5 -0.375 0.00642263
0.574156 0.5 0.375 0.00642181
0.523729 0.5 -0.45 0.00734557
0.523729 0.5 0.45 0.00734747
0.624584 0.5 -0.3 0.00569215
0.624584 0.5 0.3 0.00569058
0 0.5 -0.695553 0.0121221
0 0.5 0.695553 0.0121742
0.467897 0.5 -0.525 0.0083747
0.467897 0.5 0.525 0.00837932
0.67013 0.5 0.225 0.00503881
0.67013 0.5 -0.225 0.00503991
0.219992 0.5 -0.675 0.0139313
0.219992 0.5 0.675 0.013982
0.715676 0.5 -3.28263e-17 0.00450551
0.412065 0.5 -0.6 0.00970795
0.412065 0.5 0.6 0.00971887
0.715676 0.5 -0.15 0.00456229
0.715676 0.5 0.15 0.00456153
0 0.5 -0.75 0.0119587
0 0.5 0.75 0.0120071
0.350249 0.5 0.675 0.0110907
0.350249 0.5 -0.675 0.0110709
0.756813 0.5 0.075 0.00414093
0.756814 0.5 -0.075 0.0041414
0.151552 0.5 -0.75 0.0152466
0.151552 0.5 0.75 0.0153051
0.67013 0.5 -0.375 0.00528393
0.67013 0.5 0.375 0.00528128
0.624584 0.5 -0.45 0.00596931
0.624584 0.5 0.45 0.00596871
0.715676 0.5 -0.3 0.00473553
0.715676 0.5 0.3 0.00473352
0.574156 0.5 0.525 0.00672091
0.574156 0.5 -0.525 0.00672225
0.756813 0.5 -0.225 0.00424876
0.756813 0.5 0.225 0.00424772
0.523729 0.5 -0.6 0.00772014
0.523729 0.5 0.6 0.00772152
0.797951 0.5 -2.43973e-17 0.0038408
0.288433 0.5 -0.75 0.0124888
0.288433 0.5 0.75 0.0125227
0 0.5 -0.804447 0.0118012
0 0.5 0.804447 0.0118463
0.797951 0.5 -0.15 0.00389187
0.797951 0.5 0.15 0.00389122
0.467897 0.5 -0.675 0.00880347
0.467897 0.5 0.675 0.00880828
0.075776 0.5 -0.825 0.0157243
0.075776 0.5 0.825 0.0157832
0.835106 0.5 -0.075 0.00357576
0.835106 0.5 0.075 0.00357539
0.756813 0.5 -0.375 0.00446575
0.756813 0.5 0.375 0.00446321
0.715676 0.5 -0.45 0.0050041
0.715676 0.5 0.45 0.00500406
0 0.5 -0.845553 0.011725
0 0.5 0.845553 0.0117675
0.67013 0.5 -0.525 0.00558402
0.67013 0.5 0.525 0.00558691
0.797951 0.5 -0.3 0.00404487
0.797951 0.5 0.3 0.00404321
0.219992 0.5 0.825 0.0138033
0.219992 0.5 -0.825 0.0137578
0.412065 0.5 -0.75 0.0101071
0.412065 0.5 0.75 0.0101192
0.835106 0.5 -0.225 0.00367207
0.835106 0.5 0.225 0.00367126
0.624584 0.5 -0.6 0.0063373
0.624584 0.5 0.6 0.00633743
0.872262 0.5 -3.61845e-17 0.00334599
0.872262 0.5 -0.15 0.00339106
0.872262 0.5 0.15 0.00339058
0.574156 0.5 -0.675 0.00718254
0.574156 0.5 0.675 0.00718205
0.350249 0.5 -0.825 0.0113984
0.350249 0.5 0.825 0.011419
0 0.5 -0.9 0.0116708
0 0.5 0.9 0.0117096
0.90582 0.5 -0.075 0.00314205
0.90582 0.5 0.075 0.00314181
0.151552 0.5 -0.9 0.0150174
0.151552 0.5 0.9 0.0150663
0.523729 0.5 -0.75 0.00823171
0.523729 0.5 0.75 0.00823391
0.835106 0.5 -0.375 0.00386451
0.835106 0.5 0.375 0.0038626
0.797951 0.5 -0.45 0.00430415
0.797951 0.5 0.45 0.0043026
0.756813 0.5 -0.525 0.0047737
0.756814 0.5 0.525 0.00477526
0.872262 0.5 -0.3 0.00352445
0.872262 0.5 0.3 0.00352344
0.90582 0.5 -0.225 0.00317539
0.90582 0.5 0.225 0.00322508
0.715676 0.5 -0.6 0.00534851
0.715676 0.5 0.6 0.00534945
0.939379 0.5 -2.35744e-17 0.00295966
0.288433 0.5 -0.9 0.0126577
0.288433 0.5 0.9 0.0126894
0.467897 0.5 -0.825 0.00934763
0.467897 0.5 0.825 0.00935361
0.67013 0.5 -0.675 0.00600358
0.67013 0.5 0.675 0.00600298
0.939379 0.5 -0.15 0.00300072
0.939379 0.5 0.15 0.00300042
0 0.5 -0.954447 0.0116197
0 0.5 0.954447 0.011655
0.969689 0.5 0.075 0.00276639
0.969689 0.5 -0.075 0.00279332
0.624584 0.5 -0.75 0.00684837
0.624584 0.5 0.75 0.00684715
0.075776 0.5 -0.975 0.0155335
0.075776 0.5 0.975 0.0155936
0.90582 0.5 -0.375 0.00334485
0.90582 0.5 0.375 0.00339247
0.872262 0.5 -0.45 0.0037699
0.872262 0.5 0.45 0.00376783
0.939379 0.5 -0.3 0.00311948
0.939379 0.5 0.3 0.00311899
0.835106 0.5 0.525 0.00416924
0.835106 0.5 -0.525 0.00417225
0.412065 0.5 -0.9 0.0106044
0.412065 0.5 0.9 0.0106183
0.969689 0.5 0.225 0.00284405
0.969689 0.5 -0.225 0.00288293
0 0.5 -0.995553 0.0116179
0 0.5 0.995553 0.0116508
0.797951 0.5 -0.6 0.00462343
0.797951 0.5 0.6 0.00462239
0.219992 0.5 -0.975 0.0137279
0.219992 0.5 0.975 0.0138553
1 0.5 0 0.00269111
0.574156 0.5 -0.825 0.00776437
0.574156 0.5 0.825 0.00776457
1 0.5 0.15 0.00273248
1 0.5 -0.15 0.00273268
0.756813 0.5 -0.675 0.00513547
0.756813 0.5 0.675 0.00513399
1.02577 0.5 0.0737114 0.00263258
1.02577 0.5 -0.0737114 0.00263163
0.350249 0.5 -0.975 0.0117148
0.350249 0.5 0.975 0.0118564
0.715676 0.5 -0.75 0.00582099
0.715676 0.5 0.75 0.00581854
0.969689 0.5 0.375 0.00299123
0.969689 0.5 -0.375 0.00303479
0.523729 0.5 -0.9 0.00885412
0.523729 0.5 0.9 0.00885789
0.939379 0.5 -0.45 0.00335013
0.939379 0.5 0.45 0.00334882
1 0.5 0.3 0.0028453
1 0.5 -0.3 0.0028446
0.905821 0.5 0.525 0.00368895
0.905821 0.5 -0.525 0.00363807
1.02577 0.5 0.221134 0.00271432
1.02577 0.5 -0.221134 0.00271146
0 0.5 -1.05 0.0116576
0 0.5 1.05 0.0116872
0.872262 0.5 -0.6 0.00405865
0.872262 0.5 0.6 0.00405646
0.151552 0.5 -1.05 0.0150892
0.151552 0.5 1.05 0.0151281
0.67013 0.5 0.825 0.00657339
0.67013 0.5 -0.825 0.00657648
0.835106 0.5 -0.675 0.00448221
0.835106 0.5 0.675 0.00448066
1.07737 0.5 -2.32453e-17 0.00238464
0.467897 0.5 -0.975 0.0098436
0.467897 0.5 0.975 0.00998865
1.07737 0.5 -0.142263 0.00241891
1.07737 0.5 0.142263 0.0024186
0.288433 0.5 -1.05 0.0129881
0.288433 0.5 1.05 0.0130157
1.02577 0.5 0.368557 0.002856
1.02577 0.5 -0.368557 0.00284863
0.797951 0.5 -0.75 0.00504778
0.797951 0.5 0.75 0.00504506
0.624584 0.5 -0.9 0.00749354
0.624584 0.5 0.9 0.00749253
1 0.5 0.45 0.0030384
1 0.5 -0.45 0.00303854
0.969689 0.5 0.525 0.00326485
0.969689 0.5 -0.525 0.00331786
0 0.5 -1.10445 0.0116977
0 0.5 1.10445 0.0117241
1.07737 0.5 -0.284526 0.00251153
1.07737 0.5 0.284526 0.00251201
0.939379 0.5 -0.6 0.0036072
0.939379 0.5 0.6 0.00360584
0.756813 0.5 0.825 0.005672
0.756813 0.5 -0.825 0.00567589
1.12068 0.5 -0.0689662 0.00215997
1.12068 0.5 0.0689662 0.00215947
0.075776 0.5 -1.125 0.0157064
0.075776 0.5 1.125 0.0157409
0.412065 0.5 -1.05 0.0112068
0.412065 0.5 1.05 0.0112206
0.90582 0.5 -0.675 0.00388663
0.90582 0.5 0.675 0.00393935
0.574156 0.5 -0.975 0.00833455
0.574156 0.5 0.975 0.00847274
1.12068 0.5 0.206899 0.00221345
1.12068 0.5 -0.206899 0.00221474
0 0.5 -1.14555 0.0117643
0 0.5 1.14555 0.011788
0.219992 0.5 -1.125 0.0140919
0.219993 0.5 1.125 0.0141228
1.02577 0.5 0.51598 0.00304741
1.02577 0.5 -0.51598 0.00304246
1.14932 0.5 0 0.00204784
0.715676 0.5 -0.9 0.00644883
0.715676 0.5 0.9 0.00644606
0.872262 0.5 -0.75 0.00443915
0.872262 0.5 0.75 0.00443604
1.14932 0.5 -0.135068 0.00207325
1.14932 0.5 0.135068 0.0020733
1.07737 0.5 -0.426789 0.00265856
1.07737 0.5 0.426789 0.00265867
1 0.5 0.6 0.00326272
1 0.5 -0.6 0.00326331
1.12068 0.5 -0.344831 0.00231805
1.12068 0.5 0.344831 0.00231617
1.17123 0.5 0.0664384 0.00196524
1.17123 0.5 -0.0664384 0.00196551
0.523729 0.5 -1.05 0.00959188
0.523729 0.5 1.05 0.00959669
0.835106 0.5 -0.825 0.00498405
0.835106 0.5 0.825 0.00498041
0.350249 0.5 -1.125 0.0123828
0.350249 0.5 1.125 0.0124004
1.14932 0.5 -0.270135 0.00214648
1.14932 0.5 0.270135 0.00214676
0.969689 0.5 0.675 0.00347177
0.969689 0.5 -0.675 0.00352536
0.67013 0.5 -0.975 0.00715305
0.67013 0.5 0.975 0.00728146
1.17123 0.5 -0.199315 0.00201362
1.17123 0.5 0.199315 0.00201294
0 0.5 -1.2 0.0118934
0 0.5 1.2 0.0119134
0.939379 0.5 -0.75 0.00392687
0.939379 0.5 0.75 0.00392514
0.797951 0.5 -0.9 0.00563946
0.797951 0.5 0.9 0.00563656
0.151552 0.5 -1.2 0.0154578
0.151552 0.5 1.2 0.0154857
1.21551 0.5 -1.04083e-18 0.00180208
1.07693 0.5 0.567129 0.00284378
1.17123 0.5 -0.332191 0.00210596
1.17123 0.5 0.332191 0.00210482
1.07737 0.5 -0.569052 0.00284357
0.467897 0.5 -1.125 0.0107405
0.467897 0.5 1.125 0.0107482
1.14932 0.5 -0.405203 0.00227471
1.14932 0.5 0.405203 0.00227478
1.12068 0.5 0.482763 0.00247578
1.12068 0.5 -0.482763 0.00247903
1.02577 0.5 0.663403 0.00328282
1.02577 0.5 -0.663403 0.00327487
0.624584 0.5 -1.05 0.00826173
0.624584 0.5 1.05 0.00826224
1.21551 0.5 -0.128449 0.00182302
1.21551 0.5 0.128449 0.00182301
0.90582 0.5 0.825 0.00441564
0.90582 0.5 -0.825 0.0043608
0.288433 0.5 -1.2 0.0135125
0.288433 0.5 1.2 0.0135341
0.756813 0.5 -0.975 0.00623552
0.756813 0.5 0.975 0.00635393
1.21551 0.5 0.256897 0.00188457
1.21551 0.5 -0.256897 0.0018845
1.24616 0.5 -0.0626919 0.00169777
1.24616 0.5 0.0626919 0.00169784
1 0.5 0.75 0.00356758
1 0.5 -0.75 0.00356674
0.872262 0.5 -0.9 0.00501444
0.872262 0.5 0.9 0.0050105
0 0.5 -1.25445 0.0120231
0 0.5 1.25445 0.0120395
1.17123 0.5 0.465068 0.00225911
1.17123 0.5 -0.465068 0.0022611
1.24616 0.5 -0.188076 0.00173548
1.24616 0.5 0.188076 0.00173578
0.574156 0.5 -1.125 0.00929437
0.574156 0.5 1.125 0.0092969
0.412065 0.5 -1.2 0.0119343
0.412065 0.5 1.2 0.0119466
1.26895 0.5 2.31296e-18 0.00163377
1.14932 0.5 0.540271 0.00243726
1.14932 0.5 -0.540271 0.00243618
0.715676 0.5 -1.05 0.00719949
0.715676 0.5 1.05 0.00719851
0.969689 0.5 0.825 0.00389945
0.969689 0.5 -0.825 0.00390275
1.26895 0.5 -0.123105 0.00165128
1.26895 0.5 0.123105 0.00165059
1.21551 0.5 -0.385346 0.00199671
1.21551 0.5 0.385346 0.00199589
0.075776 0.5 -1.275 0.0161955
0.075776 0.5 1.275 0.0162164
1.12068 0.5 0.620696 0.00265364
1.12068 0.5 -0.620696 0.0026588
0.835106 0.5 -0.975 0.00551004
0.835106 0.5 0.975 0.00562008
1.07187 0.5 0.707758 0.00312825
1.24616 0.5 -0.313459 0.0018095
1.24616 0.5 0.313459 0.00181015
1.07737 0.5 -0.711315 0.00312047
1.26895 0.5 -0.24621 0.00170291
1.26895 0.5 0.24621 0.00170165
0.219992 0.5 1.275 0.0146699
0.219993 0.5 -1.275 0.0146484
0 0.5 -1.29555 0.0121551
0 0.5 1.29555 0.0121685
0.939379 0.5 -0.9 0.00443535
0.939379 0.5 0.9 0.00443144
1.30563 0.5 -0.0597185 0.00151556
1.30563 0.5 0.0597185 0.00151567
1.02577 0.5 -0.810825 0.00366411
1.02577 0.5 0.810825 0.00359059
0.523729 0.5 -1.2 0.010429
0.523729 0.5 1.2 0.0104349
0.67013 0.5 -1.125 0.0080996
0.67013 0.5 1.125 0.00810007
1.17123 0.5 -0.597945 0.00242331
1.17123 0.5 0.597945 0.00237809
1.30563 0.5 -0.179156 0.00154394
1.30563 0.5 0.179156 0.00154428
0.797951 0.5 -1.05 0.00635331
0.797951 0.5 1.05 0.00635223
1.21605 0.5 0.510895 0.00213576
1.21551 0.5 -0.513795 0.00214219
1.24616 0.5 -0.438843 0.00194197
1.24616 0.5 0.438843 0.0019404
1.26895 0.5 0.369315 0.00179494
1.26895 0.5 -0.369315 0.00179846
0.350249 0.5 -1.275 0.0131146
0.350249 0.5 1.275 0.0131298
0.90582 0.5 -0.975 0.0049662
0.90582 0.5 0.975 0.00496932
1.14932 0.5 0.675339 0.00266457
1.14932 0.5 -0.675339 0.00266317
1.3344 0.5 0 0.00143394
1.30563 0.5 -0.298593 0.00160233
1.30563 0.5 0.298593 0.00160302
1.3344 0.5 -0.11656 0.001446
1.3344 0.5 0.11656 0.00144628
1 0.5 -0.9 0.00400598
1 0.5 0.9 0.00400422
0 0.5 -1.35 0.0123665
0 0.5 1.35 0.0123758
0.624584 0.5 -1.2 0.00911201
0.624584 0.5 1.2 0.00911501
1.35183 0.5 -0.0574087 0.00137135
1.35183 0.5 0.0574087 0.00137151
1.12068 0.5 -0.758628 0.00297562
1.12068 0.5 0.758628 0.00296969
1.3344 0.5 -0.23312 0.00148385
1.3344 0.5 0.23312 0.00148448
0.756813 0.5 1.125 0.00713791
0.756814 0.5 -1.125 0.00713841
0.467897 0.5 -1.275 0.0116038
0.467897 0.5 1.275 0.0116129
0.151552 0.5 -1.35 0.0161325
0.151552 0.5 1.35 0.0161472
1.26895 0.5 0.492419 0.00191815
1.26895 0.5 -0.492419 0.00193065
1.35183 0.5 0.172226 0.00139329
1.35183 0.5 -0.172226 0.00139282
0.872262 0.5 -1.05 0.00571744
0.872262 0.5 1.05 0.0057166
1.24616 0.5 0.564227 0.00208982
1.24616 0.5 -0.564227 0.00208244
1.30563 0.5 -0.41803 0.00170395
1.30563 0.5 0.41803 0.00170219
1.07737 0.5 0.853578 0.00351972
1.07737 0.5 -0.853578 0.00352113
1.21551 0.5 0.642243 0.00233195
1.21551 0.5 -0.642243 0.00232915
0.969689 0.5 -0.975 0.00434935
0.969689 0.5 0.975 0.0044112
1.3344 0.5 -0.34968 0.00155539
1.3344 0.5 0.34968 0.00155535
0.288433 0.5 -1.35 0.0142815
0.288433 0.5 1.35 0.0142967
1.17123 0.5 -0.730821 0.00269877
1.17123 0.5 0.730821 0.00269576
1.35183 0.5 -0.287044 0.00144006
1.35183 0.5 0.287044 0.00144076
1.3856 0.5 -5.08026e-18 0.00128225
1.3856 0.5 0.111298 0.00129128
1.3856 0.5 -0.11144 0.00129099
0.715676 0.5 -1.2 0.00801615
0.715676 0.5 1.2 0.0080181
0.574156 0.5 -1.275 0.0102027
0.574156 0.5 1.275 0.0102073
0.835106 0.5 -1.125 0.00636546
0.835106 0.5 1.125 0.00636577
1.3856 0.5 0.222595 0.0013205
1.3856 0.5 -0.222879 0.00131994
1.02577 0.5 -0.958248 0.00414159
1.02577 0.5 0.958248 0.00415401
0 0.5 -1.40445 0.0125801
0 0.5 1.40445 0.0125854
1.14932 0.5 0.810406 0.00300617
1.14932 0.5 -0.810406 0.0030054
0.939379 0.5 -1.05 0.00508273
0.939379 0.5 1.05 0.00508075
1.35183 0.5 0.401861 0.00152446
1.35183 0.5 -0.401861 0.00152462
1.26895 0.5 -0.615524 0.00208782
1.26895 0.5 0.615524 0.00208792
0.412065 0.5 -1.35 0.0128718
0.412065 0.5 1.35 0.0128825
1.30563 0.5 0.537467 0.00184727
1.30563 0.5 -0.537467 0.00184465
1.3344 0.5 0.46624 0.00167076
1.3344 0.5 -0.46624 0.00166952
1.41888 0.5 -0.0540558 0.00119287
1.41888 0.5 0.0540558 0.00119285
1.24616 0.5 0.68961 0.00228289
1.24616 0.5 -0.68961 0.0022802
1.3856 0.5 0.333893 0.00137806
1.3856 0.5 -0.334319 0.00137781
0.075776 0.5 1.425 0.0169916
0.075776 0.5 -1.425 0.0169858
1.41888 0.5 0.162168 0.00120736
1.41888 0.5 -0.162168 0.0012075
1.12068 0.5 0.896561 0.00337652
1.12068 0.5 -0.896561 0.00338475
1.4361 0.5 0 0.00115343
1.21551 0.5 0.770692 0.00261419
1.21551 0.5 -0.770692 0.00261293
1.4361 0.5 0.10639 0.00115976
1.4361 0.5 -0.10639 0.00115944
0.67013 0.5 -1.275 0.00898415
0.67013 0.5 1.275 0.00898804
0.797951 0.5 -1.2 0.00711723
0.797951 0.5 1.2 0.00711932
0.219992 0.5 1.425 0.0154777
0.219992 0.5 -1.425 0.0154683
0.90582 0.5 -1.125 0.00581337
0.90582 0.5 1.125 0.00570208
1.41888 0.5 -0.270279 0.0012428
1.41888 0.5 0.270279 0.00124222
0 0.5 -1.44555 0.012767
0 0.5 1.44555 0.012769
1.35183 0.5 -0.516678 0.00165306
1.35183 0.5 0.516678 0.00165266
0.523729 0.5 -1.35 0.0114875
0.523729 0.5 1.35 0.0114921
1 0.5 -1.05 0.00460404
1 0.5 1.05 0.00459922
1.4361 0.5 0.21278 0.00118119
1.4361 0.5 -0.21278 0.00118063
1.38525 0.5 0.444071 0.00147353
1.17123 0.5 -0.863698 0.0030727
1.17123 0.5 0.863698 0.00306921
1.3856 0.5 -0.445758 0.00147454
1.3344 0.5 0.582801 0.00179511
1.3344 0.5 -0.582801 0.00179151
1.45835 0.5 0.0520823 0.00109409
1.45835 0.5 -0.0520823 0.00109397
1.30563 0.5 -0.656904 0.00198259
1.30563 0.5 0.656904 0.00198568
1.45835 0.5 0.156247 0.0011043
1.45835 0.5 -0.156247 0.0011039
1.07737 0.5 0.995841 0.00403442
1.07737 0.5 -0.995841 0.00404018
0.350249 0.5 1.425 0.0140848
0.350249 0.5 -1.425 0.0140722
1.26895 0.5 0.738629 0.00232353
1.26895 0.5 -0.738629 0.00232753
1.41888 0.5 0.378391 0.0013075
1.41888 0.5 -0.378391 0.00130942
1.4361 0.5 0.31917 0.00122723
1.4361 0.5 -0.31917 0.00122672
1.45835 0.5 -0.260411 0.00112978
1.45835 0.5 0.260411 0.0011304
0.756813 0.5 1.275 0.00797938
0.756814 0.5 -1.275 0.00797642
0.872262 0.5 -1.2 0.00643545
0.872262 0.5 1.2 0.00643893
0.969689 0.5 -1.125 0.00502791
0.969689 0.5 1.125 0.00507017
0.624584 0.5 -1.35 0.0102117
0.624584 0.5 1.35 0.0102133
1.48766 0.5 4.39463e-17 0.00102695
1.14932 0.5 0.945474 0.00342893
1.14932 0.5 -0.945474 0.00342909
1.24616 0.5 -0.814994 0.002588
1.24616 0.5 0.814994 0.0025921
1.48766 0.5 0.101234 0.00103051
1.48766 0.5 -0.101234 0.00103039
1.35183 0.5 0.631496 0.00177936
1.35183 0.5 -0.631496 0.00175457
1.3856 0.5 -0.557198 0.00157113
1.38702 0.5 0.556488 0.00157385
1.4361 0.5 0.42556 0.00130609
1.4361 0.5 -0.42556 0.00130531
0.467897 0.5 -1.425 0.0127552
0.467897 0.5 1.425 0.0127598
1.41888 0.5 0.486502 0.00138898
1.41888 0.5 -0.486502 0.00140663
0 0.5 1.5 0.0130378
0 0.5 -1.5 0.0130403
1.48766 0.5 0.202468 0.00104376
1.48766 0.5 -0.202468 0.00104372
1.50211 0.5 -0.0498948 0.000995568
1.50211 0.5 0.0498948 0.000995694
1.45835 0.5 0.364576 0.00118645
1.45835 0.5 -0.364576 0.00118635
1.3344 0.5 0.699361 0.00198382
1.3344 0.5 -0.699361 0.0019803
0.151552 0.5 1.5 0.0170118
0.151552 0.5 -1.5 0.0170113
1.02577 0.5 -1.10567 0.00481293
1.02577 0.5 1.10567 0.00482384
1.50211 0.5 0.149684 0.0010015
1.50211 0.5 -0.149684 0.00100112
1.21551 0.5 0.899141 0.0029639
1.21551 0.5 -0.899141 0.00296269
1.48766 0.5 -0.303703 0.00107752
1.48766 0.5 0.303703 0.00107678
1.30563 0.5 -0.776341 0.00226165
1.30563 0.5 0.776341 0.00226531
1.50211 0.5 0.249473 0.00101847
1.50211 0.5 -0.249473 0.00101789
1.52312 0.5 -1.56125e-18 0.000954642
0.939379 0.5 -1.2 0.00571807
0.939379 0.5 1.2 0.00572347
0.835106 0.5 1.275 0.00714648
0.835107 0.5 -1.275 0.00714229
1.12068 0.5 1.03449 0.00388888
1.12068 0.5 -1.03449 0.00390073
1.52312 0.5 0.0976882 0.000956674
1.52312 0.5 -0.0976882 0.000956436
0.288433 0.5 1.5 0.015209
0.288433 0.5 -1.5 0.0152035
0.715676 0.5 -1.35 0.00913735
0.715676 0.5 1.35 0.00913668
1.4361 0.5 0.53195 0.00138242
1.4361 0.5 -0.53195 0.00138051
1.45835 0.5 -0.46874 0.00127071
1.45835 0.5 0.46874 0.00127174
0 0.5 1.5326 0.0132124
0 0.5 -1.5326 0.0132178
1.26895 0.5 0.861734 0.00262874
1.26895 0.5 -0.861734 0.00263309
1.52312 0.5 0.195376 0.000965092
1.52312 0.5 -0.195376 0.000964632
0.574156 0.5 1.425 0.011455
0.574156 0.5 -1.425 0.0114552
1.17123 0.5 -0.996574 0.00350034
1.17123 0.5 0.996574 0.00349512
1.41888 0.5 0.594614 0.00148118
1.41888 0.5 -0.594614 0.00148174
1.3856 0.5 -0.668637 0.00172321
1.38702 0.5 0.667785 0.00172668
1.48766 0.5 0.404937 0.00113613
1.48766 0.5 -0.404937 0.00113717
1.50211 0.5 -0.349263 0.00106152
1.50211 0.5 0.349263 0.00106191
1.54252 0.5 0.0478741 0.000914437
1.54252 0.5 -0.0478741 0.000914323
1.35183 0.5 0.746313 0.00202288
1.35183 0.5 -0.746313 0.00200007
0.075776 0.5 1.5449 0.0175071
0.075776 0.5 -1.5449 0.0178258
1.54252 0.5 0.143622 0.000916654
1.54252 0.5 -0.143622 0.000916307
1.52312 0.5 0.293065 0.000990151
1.52312 0.5 -0.293065 0.000989765
0.412065 0.5 1.5 0.013896
0.412065 0.5 -1.5 0.0138915
1.55568 0.5 -1.15648e-18 0.000893581
0 0.5 1.55721 0.0133567
0 0.5 -1.55721 0.0133644
1.55568 0.5 0.0944315 0.00089426
1.55568 0.5 -0.0944315 0.000894033
0.219992 0.5 -1.5449 0.0163166
0.219993 0.5 1.5449 0.0162667
1.54252 0.5 0.23937 0.000925798
1.54252 0.5 -0.23937 0.000925211
1.24616 0.5 -0.940377 0.00291508
1.24616 0.5 0.940377 0.00291796
1 0.5 -1.2 0.00525092
1 0.5 1.2 0.00525452
0.90582 0.5 -1.275 0.00653473
0.90582 0.5 1.275 0.00641939
1.3344 0.5 0.815921 0.00225118
1.3344 0.5 -0.815921 0.00224721
1.45835 0.5 -0.572904 0.00131976
1.45835 0.5 0.572904 0.00131521
1.55568 0.5 0.188863 0.000898352
1.55568 0.5 -0.188863 0.000897891
1.07737 0.5 1.13811 0.00464662
1.07737 0.5 -1.13811 0.00464953
1.50211 0.5 0.449052 0.00112804
1.50211 0.5 -0.449052 0.00112713
0.797951 0.5 -1.35 0.00827657
0.797951 0.5 1.35 0.00827502
1.48452 0.5 0.506171 0.00119441
1.48766 0.5 -0.506171 0.00119334
1.4361 0.5 0.63834 0.00150388
1.4361 0.5 -0.63834 0.00150092
1.52312 0.5 0.390753 0.00103716
1.52312 0.5 -0.390753 0.00103667
0.67013 0.5 1.425 0.0102852
0.67013 0.5 -1.425 0.0102882
1.14932 0.5 1.08054 0.00391929
1.14932 0.5 -1.08054 0.00391742
1.54252 0.5 0.335119 0.000957515
1.54252 0.5 -0.335119 0.000957318
1.58017 0.5 0.0459917 0.000847089
1.58017 0.5 -0.0459917 0.000846985
1.55568 0.5 0.283295 0.000915837
1.55568 0.5 -0.283295 0.000915501
1.41888 0.5 -0.702726 0.001677
1.41888 0.5 0.702726 0.0016748
1.30563 0.5 0.895778 0.0025541
1.30563 0.5 -0.895778 0.00255107
0.350249 0.5 -1.5449 0.0149444
0.350249 0.5 1.5449 0.0148785
1.58017 0.5 0.137975 0.000846435
1.58017 0.5 -0.137975 0.000846137
0.523729 0.5 1.5 0.012591
0.523729 0.5 -1.5 0.0125916
0 0.5 1.58981 0.0135575
0 0.5 -1.58981 0.0135684
1.3856 0.5 -0.780077 0.00195984
1.38702 0.5 0.779083 0.00196424
1.21551 0.5 1.02759 0.00339026
1.21551 0.5 -1.02759 0.00338837
1.58017 0.5 0.229958 0.000849175
1.58017 0.5 -0.229958 0.000848691
0.151552 0.5 1.58981 0.0177908
0.151552 0.5 -1.58981 0.0178019
1.59812 0.5 0 0.000823004
1.50211 0.5 -0.548842 0.00116479
1.50211 0.5 0.548842 0.00116822
1.52312 0.5 0.488441 0.00108855
1.52312 0.5 -0.488441 0.00108614
1.59812 0.5 0.0901884 0.000822015
1.59812 0.5 -0.0901884 0.000821816
1.55568 0.5 0.377726 0.00095178
1.55568 0.5 -0.377726 0.000951307
1.54252 0.5 0.430867 0.00100596
1.54252 0.5 -0.430867 0.00100523
0.969689 0.5 1.275 0.00568979
0.969689 0.5 -1.275 0.00569266
1.35183 0.5 0.861131 0.00229006
1.35183 0.5 -0.861131 0.00226112
1.26895 0.5 0.984839 0.00300939
1.26895 0.5 -0.984839 0.00301659
1.48766 0.5 0.607405 0.00127032
1.48766 0.5 -0.607405 0.00128382
0.872262 0.5 -1.35 0.00763302
0.872262 0.5 1.35 0.00763146
1.45835 0.5 0.677069 0.00149088
1.45835 0.5 -0.677069 0.00148786
1.59812 0.5 0.180377 0.000820688
1.59812 0.5 -0.180377 0.000820288
1.6103 0.5 0.044485 0.000804069
1.6103 0.5 -0.044485 0.000803957
1.58017 0.5 -0.321942 0.000870054
1.58017 0.5 0.321942 0.000870058
0.756813 0.5 1.425 0.00937552
0.756814 0.5 -1.425 0.00938307
0.467897 0.5 -1.5449 0.0136231
0.467897 0.5 1.5449 0.0135545
0.288433 0.5 1.58981 0.0159609
0.288433 0.5 -1.58981 0.0159647
1.6103 0.5 0.133455 0.000801532
1.6103 0.5 -0.133455 0.000801234
1.4361 0.5 0.74473 0.00171133
1.4361 0.5 -0.74473 0.00170734
1.02577 0.5 -1.25309 0.00564037
1.02577 0.5 1.25309 0.00568488
1.59812 0.5 0.270565 0.000828183
1.59812 0.5 -0.270565 0.000827891
1.12068 0.5 1.17243 0.00443812
1.12068 0.5 -1.17243 0.00444918
0.624584 0.5 1.5 0.0113718
0.624584 0.5 -1.5 0.0113759
1.6103 0.5 0.222425 0.000800161
1.6103 0.5 -0.222425 0.000799888
1.55568 0.5 0.472158 0.000998329
1.55568 0.5 -0.472158 0.000996159
1.17123 0.5 1.12945 0.00400004
1.17123 0.5 -1.12945 0.00400307
1.3344 0.5 0.932481 0.00257503
1.3344 0.5 -0.932481 0.00256933
1.54252 0.5 0.526615 0.00105296
1.54252 0.5 -0.526615 0.0010484
0 0.5 1.63059 0.0138025
0 0.5 -1.63059 0.0138172
1.52302 0.5 0.5857 0.00115779
1.63193 0.5 -1.29526e-17 0.000776486
1.52312 0.5 -0.586129 0.00115538
1.58017 0.5 0.413925 0.000903914
1.58017 0.5 -0.413925 0.00090309
1.41888 0.5 0.810837 0.00190652
1.41888 0.5 -0.810837 0.00190834
1.63193 0.5 0.0868068 0.00077433
1.63193 0.5 -0.0868068 0.000774112
1.50211 0.5 0.648631 0.00129451
1.50211 0.5 -0.648631 0.00129111
1.59812 0.5 0.360754 0.000850279
1.59812 0.5 -0.360754 0.000849733
1.24616 0.5 1.06576 0.00340087
1.24616 0.5 -1.06576 0.00339578
1.6103 0.5 -0.311395 0.000813043
1.6103 0.5 0.311395 0.000812772
1.63193 0.5 0.173614 0.000769153
1.63193 0.5 -0.173614 0.00076873
0.412065 0.5 1.58981 0.0146421
0.412065 0.5 -1.58981 0.0146434
0.939379 0.5 -1.35 0.00701614
0.939379 0.5 1.35 0.0070149
1.64669 0.5 0.0426655 0.000758885
1.64669 0.5 -0.0426655 0.000758792
1.3856 0.5 -0.891517 0.0022435
0.075776 0.5 1.64598 0.0186568
0.075776 0.5 -1.64598 0.0186778
1.48766 0.5 0.708639 0.00145271
1.48766 0.5 -0.708639 0.00145377
0.574156 0.5 1.5449 0.0122688
0.574156 0.5 -1.5449 0.0123406
1.38702 0.5 0.890381 0.00225034
1.64669 0.5 -0.127997 0.000753148
1.64669 0.5 0.127997 0.000753463
0.835106 0.5 1.425 0.00867847
0.835106 0.5 -1.425 0.00868565
1.63193 0.5 0.26042 0.000769022
1.63193 0.5 -0.26042 0.000768657
1.30563 0.5 1.01522 0.00296263
1.30563 0.5 -1.01522 0.00295717
1.45835 0.5 -0.781233 0.00170043
1.45835 0.5 0.781233 0.0017049
1.55568 0.5 0.566589 0.00105023
1.55568 0.5 -0.566589 0.0010501
1.58017 0.5 0.505908 0.000955688
1.58017 0.5 -0.505908 0.000953883
1.6103 0.5 -0.400365 0.000837434
1.6103 0.5 0.400365 0.000837551
1.64669 0.5 0.213328 0.000745262
1.64669 0.5 -0.213328 0.000744771
1.59812 0.5 0.450942 0.000887099
1.59812 0.5 -0.450942 0.0008858
0.219992 0.5 1.64598 0.0171214
0.219992 0.5 -1.64598 0.0171343
0 0.5 1.66137 0.0140091
0 0.5 -1.66137 0.0140269
0.715676 0.5 1.5 0.0103353
0.715676 0.5 -1.5 0.0103436
1.66293 0.5 1.82146e-17 0.000743365
1.54252 0.5 0.622363 0.00113022
1.54252 0.5 -0.622363 0.00112706
1.66293 0.5 -0.0837068 0.000739978
1.66293 0.5 0.0837068 0.000740235
1.35183 0.5 0.975948 0.0026667
1.35183 0.5 -0.975948 0.00262578
1.63193 0.5 -0.347227 0.000780835
1.63193 0.5 0.347227 0.000781409
1.4361 0.5 0.85112 0.0019647
1.4361 0.5 -0.85112 0.00195831
1.52312 0.5 -0.683817 0.00129638
1.52312 0.5 0.683817 0.00129993
1.66293 0.5 0.167414 0.000731794
1.66293 0.5 -0.167414 0.000731311
1.14932 0.5 1.21561 0.00465541
1.14932 0.5 -1.21561 0.00465772
1.07737 0.5 1.28037 0.0057352
1.07737 0.5 -1.28037 0.00574017
1.64669 0.5 0.298659 0.000746782
1.64669 0.5 -0.298659 0.000746418
0.523729 0.5 1.58981 0.0133308
0.523729 0.5 -1.58981 0.0133343
1.21551 0.5 1.15604 0.00400911
1.21551 0.5 -1.15604 0.00401119
1.50211 0.5 -0.74842 0.00148138
1.50211 0.5 0.74842 0.00148603
1 0.5 1.35 0.00677071
1 0.5 -1.35 0.00676395
1.67988 0.5 -0.0410058 0.000727286
1.67988 0.5 0.0410058 0.00072747
1.66293 0.5 0.251121 0.00072455
1.66293 0.5 -0.251121 0.000724076
0.350249 0.5 1.64598 0.0157343
0.350249 0.5 -1.64598 0.015739
1.6103 0.5 0.489335 0.000875623
1.6103 0.5 -0.489335 0.000875089
0.67013 0.5 1.5449 0.0111281
0.67013 0.5 -1.5449 0.0112048
1.67988 0.5 -0.123017 0.000719776
1.67988 0.5 0.123017 0.000720332
1.26895 0.5 1.10795 0.00358349
1.26895 0.5 -1.10795 0.00359833
1.55568 0.5 0.650871 0.00113372
1.59812 0.5 0.54113 0.000922675
1.59812 0.5 -0.54113 0.000920662
0.90582 0.5 -1.425 0.00820057
0.90582 0.5 1.425 0.00806424
1.63193 0.5 0.434034 0.000805743
1.63193 0.5 -0.434034 0.000804798
1.58017 0.5 0.597891 0.000992424
1.58017 0.5 -0.597891 0.000990139
1.55568 0.5 -0.661021 0.00116187
1.41888 0.5 0.918949 0.00222745
1.41888 0.5 -0.918949 0.00223196
1.69082 0.5 0 0.000720538
1.64669 0.5 0.38399 0.000762014
1.64669 0.5 -0.38399 0.000761019
1.67988 0.5 -0.205029 0.000707462
1.67988 0.5 0.205029 0.000708211
1.69082 0.5 0.0809177 0.00071676
1.69082 0.5 -0.0809177 0.000716551
1.48766 0.5 0.809873 0.00167135
1.48766 0.5 -0.809873 0.00167164
1.66293 0.5 0.334827 0.00072836
1.66293 0.5 -0.334827 0.000727792
1.3344 0.5 1.04904 0.00308924
1.3344 0.5 -1.04904 0.00308534
1.69082 0.5 0.161835 0.000706025
1.69082 0.5 -0.161835 0.000705614
0.797951 0.5 1.5 0.00951484
0.797951 0.5 -1.5 0.00952701
1.54252 0.5 0.718111 0.00129714
1.54252 0.5 -0.718111 0.00129313
0 0.5 1.70215 0.0143023
0 0.5 -1.70215 0.0143246
1.67988 0.5 -0.287041 0.000699153
1.67988 0.5 0.287041 0.000699748
1.70382 0.5 0.0398088 0.000711017
1.70382 0.5 -0.0398088 0.000710927
1.45835 0.5 0.885398 0.00197425
1.45835 0.5 -0.885398 0.00196733
1.70382 0.5 0.119426 0.0007029
1.70382 0.5 -0.119426 0.000702591
0.624584 0.5 1.58981 0.0121009
0.624584 0.5 -1.58981 0.0121072
1.69082 0.5 0.242753 0.00069316
1.69082 0.5 -0.242753 0.000692632
0.151552 0.5 1.70215 0.0187979
0.151552 0.5 -1.70215 0.018823
1.3856 0.5 -1.00296 0.0027255
1.38702 0.5 1.00168 0.00272937
1.6103 0.5 0.578305 0.00090388
1.6103 0.5 -0.578305 0.00090352
0.467897 0.5 -1.64598 0.0144176
0.467897 0.5 1.64598 0.0144139
1.52312 0.5 -0.781505 0.00149075
1.52312 0.5 0.781505 0.00149588
1.64669 0.5 -0.469321 0.000783925
1.64669 0.5 0.469321 0.000784925
1.63193 0.5 0.520841 0.000827415
1.63193 0.5 -0.520841 0.00082596
1.66293 0.5 0.418534 0.000741682
1.66293 0.5 -0.418534 0.000740925
1.70382 0.5 0.199044 0.000687821
1.70382 0.5 -0.199044 0.00068734
1.71727 0.5 0 0.00070451
1.59812 0.5 0.631319 0.000997747
1.59812 0.5 -0.631319 0.000995007
1.71727 0.5 0.0782727 0.000700315
1.71727 0.5 -0.0782727 0.000700113
1.67988 0.5 0.369053 0.000706009
1.67988 0.5 -0.369053 0.000705189
0.756813 0.5 1.5449 0.0101708
0.756813 0.5 -1.5449 0.0102489
1.69082 0.5 0.323671 0.000689893
1.69082 0.5 -0.323671 0.000689147
1.17123 0.5 1.26233 0.00484087
1.17123 0.5 -1.26233 0.00485484
0.969689 0.5 1.425 0.00770038
0.969689 0.5 -1.425 0.00763845
1.24616 0.5 1.19115 0.0041186
1.24616 0.5 -1.19115 0.00412174
1.58017 0.5 0.689875 0.0011229
1.58017 0.5 -0.689875 0.00112821
1.12068 0.5 1.31036 0.00552013
1.12068 0.5 -1.31036 0.00554169
1.71727 0.5 0.156545 0.000687826
1.71727 0.5 -0.156545 0.000687427
1.50211 0.5 -0.84821 0.00170832
1.50211 0.5 0.84821 0.00171509