# nutMean  POINT_DATA 18630
# x  y  z  nutMean
0 0.1 0 0.0082763
0 0.1 -0.0315126 0.00826437
0 0.1 0.0315126 0.00826511
0.0318387 0.1 -0.0315126 0.015644
0.0318387 0.1 0.0315126 0.0156449
0.075776 0.1 -0.075 0.0250501
0.075776 0.1 0.075 0.025052
0 0.1 -0.118487 0.00825135
0 0.1 0.118487 0.00825435
0.0318387 0.1 0.118487 0.0156342
0.0318387 0.1 -0.118487 0.015631
0 0.1 -0.15 0.00824257
0 0.1 0.15 0.0082476
0.150525 0.1 8.67362e-18 0.0205714
0 0.1 -0.181513 0.00820459
0 0.1 0.181513 0.00821382
0.0318387 0.1 -0.181513 0.0150006
0.0318387 0.1 0.181513 0.0151078
0.150525 0.1 0.15 0.0203401
0.150525 0.1 -0.15 0.0202949
0.219992 0.1 -0.075 0.0161959
0.219992 0.1 0.075 0.0161969
0.075776 0.1 -0.225 0.023979
0.075776 0.1 0.225 0.0241563
0 0.1 -0.268487 0.00822432
0 0.1 0.268487 0.00823424
0.0318387 0.1 -0.268487 0.0150203
0.0318387 0.1 0.268487 0.0151282
0.287505 0.1 -2.60209e-17 0.0134923
0 0.1 -0.3 0.0082559
0 0.1 0.3 0.00826198
0.219992 0.1 0.225 0.0161671
0.219992 0.1 -0.225 0.0161643
0.287505 0.1 0.15 0.0134666
0.287505 0.1 -0.15 0.0134602
0 0.1 -0.331513 0.00826895
0 0.1 0.331513 0.00827359
0.0318387 0.1 -0.331513 0.0136347
0.0318387 0.1 0.331513 0.0137232
0.150525 0.1 -0.3 0.0193404
0.150525 0.1 0.3 0.0194348
0.350249 0.1 -0.075 0.0108182
0.350249 0.1 0.075 0.0108241
0.075776 0.1 -0.375 0.0213106
0.075776 0.1 0.375 0.0215066
0.411227 0.1 1.73472e-17 0.00893796
0.287505 0.1 -0.3 0.0133662
0.287505 0.1 0.3 0.0133777
0.350249 0.1 -0.225 0.0107283
0.350249 0.1 0.225 0.0107441
0 0.1 -0.418487 0.00827548
0 0.1 0.418487 0.00828228
0.0318387 0.1 -0.418487 0.0136412
0.0318387 0.1 0.418487 0.0137319
0.219992 0.1 -0.375 0.0160816
0.219992 0.1 0.375 0.0160881
0.411227 0.1 -0.15 0.00894549
0.411227 0.1 0.15 0.0089512
0 0.1 -0.45 0.00825858
0 0.1 0.45 0.00826756
0.467897 0.1 -0.075 0.00709597
0.467897 0.1 0.075 0.00709652
0.150525 0.1 -0.45 0.0176442
0.150525 0.1 0.45 0.0177522
0 0.1 -0.481513 0.00823875
0 0.1 0.481513 0.00824997
0.0318387 0.1 -0.481513 0.0121794
0.0318387 0.1 0.481513 0.0122501
0.411227 0.1 -0.3 0.00896113
0.411227 0.1 0.3 0.00897115
0.350249 0.1 0.375 0.0105856
0.350249 0.1 -0.375 0.0105663
0.467897 0.1 -0.225 0.00721961
0.467897 0.1 0.225 0.00722048
0.522972 0.1 3.72966e-17 0.00616833
0.075776 0.1 0.525 0.0178859
0.075776 0.1 -0.525 0.0177265
0.287505 0.1 0.45 0.013192
0.287505 0.1 -0.45 0.0131614
0.522972 0.1 0.15 0.00623164
0.522972 0.1 -0.15 0.00623199
0 0.1 0.568487 0.00816579
0 0.1 -0.568487 0.00815023
0.219992 0.1 0.525 0.0156418
0.219992 0.1 -0.525 0.015569
0.0318387 0.1 -0.568487 0.0120908
0.0318387 0.1 0.568487 0.0121659
0.574156 0.1 -0.075 0.00525766
0.574156 0.1 0.075 0.00525683
0.467897 0.1 0.375 0.00740867
0.467897 0.1 -0.375 0.00740412
0 0.1 -0.6 0.00810567
0 0.1 0.6 0.00812236
0.522972 0.1 0.3 0.00640606
0.522972 0.1 -0.3 0.00640583
0.411227 0.1 0.45 0.00902633
0.411227 0.1 -0.45 0.00901416
0.574157 0.1 -0.225 0.00538833
0.574157 0.1 0.225 0.0053864
0.150525 0.1 0.6 0.0159095
0.150525 0.1 -0.6 0.0158084
0.6239 0.1 2.86229e-17 0.00466528
0.350249 0.1 -0.525 0.0105385
0.350249 0.1 0.525 0.0105604
0 0.1 -0.631513 0.00805759
0 0.1 0.631513 0.00807534
0.0318387 0.1 -0.631513 0.0112012
0.0318387 0.1 0.631513 0.0112506
0.6239 0.1 0.15 0.00472491
0.6239 0.1 -0.15 0.0047264
0.287505 0.1 0.6 0.0128126
0.287505 0.1 -0.6 0.0127642
0.67013 0.1 0.075 0.00408115
0.67013 0.1 -0.075 0.00408213
0.075776 0.1 0.675 0.0156766
0.075776 0.1 -0.675 0.0155815
0.574157 0.1 0.375 0.00564162
0.574157 0.1 -0.375 0.00564408
0.522972 0.1 0.45 0.00663823
0.522972 0.1 -0.45 0.00663758
0.6239 0.1 -0.3 0.00490735
0.6239 0.1 0.3 0.00490463
0.467897 0.1 0.525 0.00762017
0.467897 0.1 -0.525 0.00761685
0.67013 0.1 -0.225 0.00419433
0.67013 0.1 0.225 0.00419212
0.219992 0.1 -0.675 0.0144198
0.219992 0.1 0.675 0.0144986
0.715059 0.1 2.42861e-17 0.00367483
0 0.1 -0.718487 0.00792437
0 0.1 0.718487 0.00794337
0.0318387 0.1 -0.718487 0.011068
0.0318387 0.1 0.718487 0.0111186
0.411227 0.1 0.6 0.00918357
0.411227 0.1 -0.6 0.00917166
0.715059 0.1 -0.15 0.00372662
0.715059 0.1 0.15 0.00372507
0 0.1 -0.75 0.00787255
0 0.1 0.75 0.00789141
0.150525 0.1 0.742997 0.0145171
0.350249 0.1 -0.675 0.0106524
0.350249 0.1 0.675 0.0106728
0.756813 0.1 0.075 0.00327136
0.756814 0.1 -0.075 0.00327225
0.150525 0.1 -0.75 0.0145408
0.67013 0.1 -0.375 0.00441999
0.67013 0.1 0.375 0.00441571
0.6239 0.1 -0.45 0.00516135
0.6239 0.1 0.45 0.00515861
0.715059 0.1 -0.3 0.00388108
0.715059 0.1 0.3 0.00387782
0.574156 0.1 -0.525 0.00591697
0.574157 0.1 0.525 0.00591428
0 0.1 -0.781513 0.00781849
0 0.1 0.781513 0.00783712
0.0318387 0.1 0.781513 0.0106656
0.0318387 0.1 -0.781513 0.010626
0.756814 0.1 -0.225 0.00336548
0.756814 0.1 0.225 0.00336337
0.522972 0.1 0.6 0.00693082
0.522972 0.1 -0.6 0.00693069
0.287505 0.1 0.742997 0.0123529
0.797393 0.1 -2.68882e-17 0.00298973
0.287505 0.1 -0.75 0.0123785
0.797393 0.1 -0.15 0.00303262
0.797393 0.1 0.15 0.00303122
0.467897 0.1 0.675 0.00794912
0.467897 0.1 -0.675 0.00794671
0.075776 0.1 0.825 0.0145944
0.075776 0.1 -0.825 0.0145258
0.835106 0.1 -0.075 0.00270904
0.835106 0.1 0.075 0.00270831
0.756813 0.1 0.375 0.00354825
0.756814 0.1 -0.375 0.00355268
0.715059 0.1 -0.45 0.00411485
0.715059 0.1 0.45 0.00411208
0.411227 0.1 0.742997 0.0094637
0.67013 0.1 0.525 0.00468059
0.67013 0.1 -0.525 0.00468216
0.797393 0.1 -0.3 0.00315954
0.797393 0.1 0.3 0.00315654
0.219993 0.1 0.825 0.013733
0.219992 0.1 -0.825 0.0136718
0.411227 0.1 -0.75 0.00944399
0.835106 0.1 -0.225 0.00278584
0.835106 0.1 0.225 0.00278398
0.6239 0.1 -0.6 0.00548486
0.6239 0.1 0.6 0.00548198
0 0.1 -0.868487 0.00770118
0 0.1 0.868487 0.00771895
0.0318387 0.1 -0.868487 0.0105087
0.0318387 0.1 0.868487 0.0105474
0.871758 0.1 -4.33681e-17 0.00252021
0.871758 0.1 -0.15 0.00255394
0.871758 0.1 0.15 0.00255285
0.574156 0.1 -0.675 0.00627493
0.574157 0.1 0.675 0.00627248
0.350249 0.1 0.825 0.0108921
0.350249 0.1 -0.825 0.0108717
0 0.1 -0.9 0.00766701
0 0.1 0.9 0.00768439
0.522972 0.1 0.742997 0.00734838
0.90582 0.1 -0.075 0.00233122
0.90582 0.1 0.075 0.00233078
0.150525 0.1 0.9 0.0140095
0.150525 0.1 -0.9 0.0139549
0.522972 0.1 -0.75 0.00731627
0.835106 0.1 0.375 0.00293292
0.835106 0.1 -0.375 0.00293655
0.797393 0.1 -0.45 0.00336854
0.797393 0.1 0.45 0.0033662
0.756813 0.1 -0.525 0.00381308
0.756814 0.1 0.525 0.00381226
0.871758 0.1 -0.3 0.00265391
0.871758 0.1 0.3 0.00265157
0 0.1 -0.931513 0.00763117
0 0.1 0.931513 0.00764807
0.0318387 0.1 -0.931513 0.010281
0.0318387 0.1 0.931513 0.0103125
0.90582 0.1 -0.225 0.00238823
0.90582 0.1 0.225 0.00238692
0.715059 0.1 0.6 0.00442139
0.715059 0.1 -0.6 0.00442436
0.938924 0.1 -1.73472e-18 0.00220002
0.287505 0.1 0.9 0.0123095
0.287505 0.1 -0.9 0.0122721
0.467897 0.1 -0.825 0.00837339
0.467897 0.1 0.825 0.00837676
0.938924 0.1 -0.15 0.00222636
0.938924 0.1 0.15 0.00222559
0.67013 0.1 -0.675 0.00508331
0.67013 0.1 0.675 0.00507848
0.6239 0.1 0.742997 0.00591549
0.969689 0.1 -0.075 0.00206748
0.969689 0.1 0.075 0.00206719
0.6239 0.1 -0.75 0.00588487
0.075776 0.1 -0.975 0.0139847
0.075776 0.1 0.975 0.014036
0.90582 0.1 -0.375 0.00250376
0.90582 0.1 0.375 0.00250122
0.871758 0.1 -0.45 0.00283656
0.871758 0.1 0.45 0.00283343
0.938924 0.1 -0.3 0.00230468
0.938924 0.1 0.3 0.00230305
0.835106 0.1 -0.525 0.00317453
0.835106 0.1 0.525 0.00317403
0.411227 0.1 -0.9 0.0097418
0.411227 0.1 0.9 0.00975741
0.99151 0.1 0 0.0020133
0.969689 0.1 -0.225 0.0021151
0.96969 0.1 0.225 0.00211405
0.797393 0.1 -0.6 0.00363842
0.797393 0.1 0.6 0.00363546
0.219992 0.1 0.975 0.0136954
0.219992 0.1 -0.975 0.0136575
0.99151 0.1 -0.15 0.00203711
0.99151 0.1 0.15 0.0020365
0.574156 0.1 -0.825 0.0067066
0.574156 0.1 0.825 0.00670492
0.756813 0.1 0.675 0.0041235
0.756814 0.1 -0.675 0.00412822
0 0.1 -1.01849 0.00756644
0 0.1 1.01849 0.00758162
0.0318387 0.1 -1.01849 0.0102163
0.0318387 0.1 1.01849 0.0102461
0.715059 0.1 0.742997 0.00485466
0.99151 0.1 -0.3 0.00210642
0.99151 0.1 0.3 0.00210529
0.350249 0.1 -0.975 0.0109804
0.350249 0.1 0.975 0.011011
0.715059 0.1 -0.75 0.00482663
1.03609 0.1 -0.0731955 0.00193993
1.03609 0.1 0.0731955 0.00193954
0.969689 0.1 -0.375 0.00220819
0.969689 0.1 0.375 0.00220654
0.522972 0.1 -0.9 0.00776754
0.522972 0.1 0.9 0.00776985
0.938924 0.1 -0.45 0.0024621
0.938924 0.1 0.45 0.00245779
0.905821 0.1 -0.525 0.00273017
0.905821 0.1 0.525 0.00272432
0 0.1 -1.05 0.00755399
0 0.1 1.05 0.00756837
0.871758 0.1 0.6 0.00306072
0.871758 0.1 -0.6 0.00306508
1.03609 0.1 -0.219587 0.0019846
1.03609 0.1 0.219587 0.00198347
0.150525 0.1 -1.05 0.0138274
0.150525 0.1 1.05 0.0138667
0.67013 0.1 -0.825 0.00549451
0.67013 0.1 0.825 0.00548802
0.835106 0.1 0.675 0.00343517
0.835106 0.1 -0.675 0.00344096
1.07753 0.1 0 0.00179659
0.467897 0.1 -0.975 0.00881011
0.467897 0.1 0.975 0.00881868
0 0.1 -1.08151 0.00753975
0 0.1 1.08151 0.00755329
0.0318387 0.1 -1.08151 0.0101485
0.0318387 0.1 1.08151 0.0101717
1.07753 0.1 -0.142247 0.00181533
1.07753 0.1 0.142247 0.00181493
0.287505 0.1 -1.05 0.0124221
0.287505 0.1 1.05 0.0124531
0.99151 0.1 -0.45 0.00223168
0.99151 0.1 0.45 0.00222812
0.797393 0.1 0.742997 0.00404283
0.797393 0.1 -0.75 0.00401644
0.6239 0.1 -0.9 0.00635406
0.6239 0.1 0.9 0.00635024
1.03609 0.1 -0.365978 0.00206831
1.03609 0.1 0.365978 0.00206704
0.969689 0.1 -0.525 0.00240271
0.969689 0.1 0.525 0.00239549
1.11155 0.1 -0.0694227 0.00171321
1.11155 0.1 0.0694227 0.00171297
0.938924 0.1 -0.6 0.00265025
0.938924 0.1 0.6 0.0026447
1.07753 0.1 -0.284495 0.00186755
1.07753 0.1 0.284495 0.001867
0.756813 0.1 0.825 0.00460139
0.756813 0.1 -0.825 0.00461053
0.075776 0.1 -1.125 0.0138256
0.075776 0.1 1.125 0.0138614
0.411227 0.1 -1.05 0.0100376
0.411227 0.1 1.05 0.010053
0.90582 0.1 0.675 0.00290852
0.905821 0.1 -0.675 0.00291379
1.11155 0.1 -0.208268 0.00174377
1.11155 0.1 0.208268 0.00174312
0.574156 0.1 -0.975 0.00722132
0.574157 0.1 0.975 0.00722048
0.871758 0.1 0.742997 0.00341417
0.219992 0.1 -1.125 0.0138505
0.219992 0.1 1.125 0.0138836
0.715059 0.1 -0.9 0.00530513
0.715059 0.1 0.9 0.00529757
0.871758 0.1 -0.75 0.00339081
1.03609 0.1 -0.512369 0.00216792
1.03609 0.1 0.512369 0.00211911
1.15879 0.1 0 0.00154136
0.99151 0.1 -0.6 0.00238975
0.99151 0.1 0.6 0.00238473
1.07753 0.1 -0.426742 0.00194564
1.07753 0.1 0.426742 0.00194424
1.11155 0.1 -0.347114 0.00179771
1.11155 0.1 0.347114 0.00178306
1.15879 0.1 0.133647 0.0015585
1.15879 0.1 -0.134121 0.00155909
0 0.1 -1.16849 0.00753146
0 0.1 1.16849 0.00754244
0.0318387 0.1 -1.16849 0.0101402
0.0318387 0.1 1.16849 0.0101609
0.522972 0.1 -1.05 0.00818595
0.522972 0.1 1.05 0.00818756
0.835106 0.1 -0.825 0.00388989
0.835106 0.1 0.825 0.00387956
0.350249 0.1 -1.125 0.0112933
0.350249 0.1 1.125 0.0113163
0.969689 0.1 -0.675 0.00255084
0.969689 0.1 0.675 0.00254697
0.67013 0.1 -0.975 0.00601824
0.67013 0.1 0.975 0.00601198
1.18208 0.1 0.0658959 0.0014844
1.18208 0.1 -0.0658959 0.00148478
1.15879 0.1 0.267294 0.00160419
1.15879 0.1 -0.268241 0.00160517
0.938924 0.1 0.742997 0.00293052
1.18208 0.1 -0.197687 0.00152187
1.18208 0.1 0.197687 0.00152086
0 0.1 -1.2 0.00754054
0 0.1 1.2 0.00755041
0.938924 0.1 -0.75 0.00291044
0.797393 0.1 -0.9 0.00450274
0.797393 0.1 0.9 0.00449363
0.150525 0.1 -1.2 0.013929
0.150525 0.1 1.2 0.0139609
1.11155 0.1 -0.485959 0.00188086
1.11155 0.1 0.485959 0.00187846
1.21556 0.1 -4.06576e-19 0.00136597
1.15879 0.1 0.37237 0.00165582
0.467897 0.1 -1.125 0.0091321
0.467897 0.1 1.125 0.00913199
1.07753 0.1 -0.568989 0.00205233
1.07753 0.1 0.568989 0.00204982
0.6239 0.1 -1.05 0.00685036
0.6239 0.1 1.05 0.0068466
1.21556 0.1 0.128394 0.00138444
1.21556 0.1 -0.128444 0.00138538
0.90582 0.1 -0.825 0.00331858
0.905821 0.1 0.825 0.00330783
1.15879 0.1 -0.402362 0.00167364
1.18208 0.1 -0.329479 0.00158104
1.18208 0.1 0.329479 0.00157977
1.03609 0.1 -0.65876 0.00233235
1.03609 0.1 0.65876 0.00232622
0 0.1 -1.23151 0.00754739
0 0.1 1.23151 0.00755609
0.0318387 0.1 -1.23151 0.0101819
0.0318387 0.1 1.23151 0.0101988
0.287505 0.1 1.2 0.0127059
0.287505 0.1 -1.2 0.0126832
0.756813 0.1 -0.975 0.00510979
0.756813 0.1 0.975 0.00510141
1.21556 0.1 0.256787 0.00143512
1.21556 0.1 -0.256887 0.00143683
0.99151 0.1 0.75 0.00263042
1.24616 0.1 -0.0626919 0.00125427
1.24616 0.1 0.0626919 0.00125373
0.99151 0.1 -0.760504 0.00261986
0.871758 0.1 -0.9 0.00387284
0.871758 0.1 0.9 0.00386219
1.24616 0.1 -0.188076 0.00129365
1.24616 0.1 0.188076 0.00129185
0.574156 0.1 1.125 0.0076163
0.574156 0.1 -1.125 0.00761754
0.411227 0.1 -1.2 0.0102837
0.411227 0.1 1.2 0.0102904
1.18208 0.1 -0.461271 0.00166097
1.18208 0.1 0.461271 0.0016588
1.26973 0.1 -3.46945e-17 0.00117165
0.715059 0.1 -1.05 0.00584421
0.715059 0.1 1.05 0.00583704
0.969689 0.1 -0.825 0.00285576
0.96969 0.1 0.825 0.00284838
1.2155 0.1 0.384884 0.0015103
1.11155 0.1 -0.624804 0.00198713
1.11155 0.1 0.624804 0.00198538
1.21556 0.1 -0.385405 0.00151315
1.26973 0.1 -0.123027 0.00119126
1.26973 0.1 0.123027 0.0011892
1.15879 0.1 -0.536483 0.00174247
1.15879 0.1 0.536483 0.00177189
0.075776 0.1 -1.275 0.0139249
0.075776 0.1 1.275 0.013952
0.835106 0.1 -0.975 0.00440619
0.835106 0.1 0.975 0.00439751
1.24616 0.1 0.313459 0.00136018
1.24616 0.1 -0.313459 0.00136278
1.07753 0.1 -0.711236 0.0022309
1.07753 0.1 0.711236 0.0022271
1.26973 0.1 -0.246055 0.00124471
1.26973 0.1 0.246055 0.00124073
0.219993 0.1 1.275 0.0141516
0.219993 0.1 -1.275 0.0141198
0.938924 0.1 -0.9 0.00333759
0.938924 0.1 0.9 0.00332686
1.30421 0.1 -0.0597894 0.00104886
1.30421 0.1 0.0597894 0.00104814
0.522972 0.1 -1.2 0.00841124
0.522972 0.1 1.2 0.00841086
0.67013 0.1 -1.125 0.00656836
0.67013 0.1 1.125 0.00656162
1.03609 0.1 0.805151 0.00260825
1.03609 0.1 -0.805151 0.00262889
1.30421 0.1 -0.179368 0.0010852
1.30421 0.1 0.179368 0.0010829
0.797393 0.1 -1.05 0.00503973
0.797393 0.1 1.05 0.00503137
0 0.1 -1.31849 0.00758927
0 0.1 1.31849 0.00759558
0.0318387 0.1 -1.31849 0.0102238
0.0318387 0.1 1.31849 0.0102383
1.2155 0.1 -0.513636 0.0016164
1.21591 0.1 0.513636 0.00161728
1.24616 0.1 0.438843 0.00145566
1.24616 0.1 -0.438843 0.00145968
0.350249 0.1 -1.275 0.0115636
0.350249 0.1 1.275 0.0115665
1.26973 0.1 0.369082 0.00131452
1.18208 0.1 -0.593062 0.0017662
1.18208 0.1 0.593062 0.00176775
1.2659 0.1 -0.393285 0.00132748
0.905821 0.1 -0.975 0.00387716
0.90582 0.1 0.975 0.00386428
1.3344 0.1 0 0.000924037
1.15406 0.1 -0.670604 0.00188368
1.30421 0.1 0.298947 0.00114944
1.30421 0.1 -0.298947 0.00115377
1.15879 0.1 0.670604 0.00188338
0.99151 0.1 -0.9 0.00298896
0.99151 0.1 0.9 0.00295596
1.3344 0.1 -0.11656 0.000940483
1.3344 0.1 0.11656 0.000939456
1.11155 0.1 -0.76365 0.00211516
1.11155 0.1 0.76365 0.00216713
0 0.1 -1.35 0.00761669
0 0.1 1.35 0.0076223
0.6239 0.1 -1.2 0.00714366
0.6239 0.1 1.2 0.00714101
1.3344 0.1 -0.23312 0.000988368
1.3344 0.1 0.23312 0.000985677
0.756814 0.1 1.125 0.0056899
0.756814 0.1 -1.125 0.00569734
0.467897 0.1 -1.275 0.00920096
0.467897 0.1 1.275 0.00920119
0.150525 0.1 1.35 0.0141162
0.150525 0.1 -1.35 0.0140847
1.35938 0.1 -0.0570311 0.000838665
1.35938 0.1 0.0570311 0.000838032
1.26973 0.1 -0.492109 0.00143235
1.26973 0.1 0.492109 0.00143801
0.871758 0.1 -1.05 0.00441595
0.871758 0.1 1.05 0.00440587
1.24616 0.1 -0.564227 0.00159283
1.24616 0.1 0.564227 0.00159122
1.30421 0.1 -0.418526 0.00125283
1.30421 0.1 0.418526 0.00122016
1.35938 0.1 -0.171093 0.00087091
1.35938 0.1 0.171093 0.000868916
1.07753 0.1 -0.853484 0.0025098
1.07753 0.1 0.853484 0.00250361
1.21591 0.1 -0.642045 0.00171811
1.21591 0.1 0.642045 0.00171698
0.969689 0.1 -0.975 0.00329722
0.969689 0.1 0.975 0.00328521
1.3344 0.1 0.34968 0.00106112
1.3344 0.1 -0.34968 0.00106439
0.287505 0.1 1.35 0.0128462
0.287505 0.1 -1.35 0.0128233
0 0.1 -1.38151 0.00764117
0 0.1 1.38151 0.00764602
0.0318387 0.1 1.38151 0.010365
0.0318387 0.1 -1.38151 0.0103568
1.18208 0.1 -0.724854 0.00186524
1.18208 0.1 0.724854 0.00186222
1.35938 0.1 -0.285156 0.000933981
1.35938 0.1 0.285156 0.000929585
1.39501 0.1 -1.73472e-17 0.000719801
0.715059 0.1 1.2 0.00621686
0.715059 0.1 -1.2 0.00622156
0.574156 0.1 1.275 0.00770622
0.574156 0.1 -1.275 0.00770707
1.39501 0.1 -0.110499 0.000732704
1.39501 0.1 0.110499 0.000731712
0.835106 0.1 -1.125 0.00495515
0.835106 0.1 1.125 0.00494611
1.03609 0.1 -0.951542 0.00309991
1.03609 0.1 0.951542 0.00299346
0.938924 0.1 1.05 0.00385841
1.15879 0.1 -0.804724 0.00205704
1.15879 0.1 0.804724 0.00205285
1.30421 0.1 0.538105 0.00138661
1.30421 0.1 -0.538105 0.00137922
1.26973 0.1 -0.615137 0.00155213
1.26973 0.1 0.615137 0.00154805
0.411227 0.1 1.35 0.010415
0.411227 0.1 -1.35 0.0104131
1.39389 0.1 -0.221221 0.000771079
1.41134 0.1 -0.0544329 0.000668449
1.41134 0.1 0.0544329 0.000667903
1.39501 0.1 0.220998 0.000766116
1.3344 0.1 0.46624 0.00117261
1.3344 0.1 -0.46624 0.0011772
0.938924 0.1 -1.0605 0.00386957
1.35938 0.1 -0.399218 0.001025
1.35938 0.1 0.399218 0.00102231
1.41134 0.1 -0.163299 0.000691592
1.41134 0.1 0.163299 0.000690151
1.24616 0.1 -0.68961 0.0016609
1.24616 0.1 0.68961 0.00165881
0.075776 0.1 -1.425 0.0142355
0.075776 0.1 1.425 0.0142479
1.11155 0.1 -0.902495 0.00245191
1.11155 0.1 0.902495 0.00244324
1.39389 0.1 -0.331832 0.000831136
1.39501 0.1 0.331497 0.000824633
1.43681 0.1 -1.56125e-18 0.000623248
1.41134 0.1 -0.272165 0.000731899
1.41134 0.1 0.272165 0.000727085
1.21591 0.1 -0.770454 0.00184208
1.21591 0.1 0.770454 0.00183942
0.67013 0.1 -1.275 0.006684
0.67013 0.1 1.275 0.00668212
1.43681 0.1 0.106319 0.000630129
0.797393 0.1 -1.2 0.00549164
0.797393 0.1 1.2 0.00548595
1.43713 0.1 -0.107481 0.000630218
0.219992 0.1 1.425 0.0141243
0.219993 0.1 -1.425 0.01407
0.99151 0.1 1.05 0.00343953
0.99151 0.1 -1.05 0.00342198
0.90582 0.1 -1.125 0.00442819
0.90582 0.1 1.125 0.00441836
0.522972 0.1 1.35 0.00851134
0.522972 0.1 -1.35 0.00851148
1.43681 0.1 0.212638 0.000650312
1.43681 0.1 -0.212638 0.000647482
1.35938 0.1 -0.51328 0.00114551
1.35938 0.1 0.51328 0.00114085
1.3344 0.1 0.582801 0.00129741
1.3344 0.1 -0.582801 0.00130372
1.45847 0.1 -0.0520767 0.000563304
1.45847 0.1 0.0520767 0.000563038
1.18208 0.1 -0.856645 0.0020577
1.18208 0.1 0.856645 0.00205349
1.30421 0.1 0.657684 0.00148931
1.30421 0.1 -0.657684 0.00149446
1.41134 0.1 0.38103 0.000794483
1.41134 0.1 -0.38103 0.000798389
1.39423 0.1 -0.441996 0.000918242
1.39501 0.1 0.441996 0.000914045
1.45847 0.1 -0.15623 0.000571801
1.45847 0.1 0.15623 0.000571208
1.07753 0.1 -0.995731 0.00290416
1.07753 0.1 0.995731 0.00289334
0.350249 0.1 -1.425 0.011625
0.350249 0.1 1.425 0.0116278
0 0.1 1.46849 0.00771666
0 0.1 -1.46849 0.0077135
1.26973 0.1 -0.738164 0.0016621
1.26973 0.1 0.738164 0.00165688
0.0318387 0.1 1.46849 0.0104357
0.0318387 0.1 -1.46849 0.0104291
1.43681 0.1 -0.318958 0.000686435
1.43681 0.1 0.318958 0.000689208
1.45847 0.1 -0.260383 0.00059362
1.45847 0.1 0.260383 0.000591933
1.48215 0.1 -7.80626e-18 0.000561823
0.756814 0.1 -1.275 0.0059397
0.756814 0.1 1.275 0.00593694
0.871758 0.1 1.2 0.00490991
0.969689 0.1 1.125 0.00386569
0.969689 0.1 -1.125 0.00387658
1.48215 0.1 0.101785 0.00056293
1.48215 0.1 -0.117861 0.000563096
0.6239 0.1 1.35 0.00726551
0.6239 0.1 -1.35 0.00726679
1.24616 0.1 -0.814994 0.0018022
1.24616 0.1 0.814994 0.00180071
1.15879 0.1 -0.938845 0.00232336
1.15879 0.1 0.938845 0.00231584
0.871758 0.1 -1.2105 0.00491498
1.41134 0.1 0.489896 0.000905424
1.41134 0.1 -0.489896 0.000910915
1.48215 0.1 0.203569 0.000568296
1.48215 0.1 -0.203569 0.00056874
1.43447 0.1 -0.4286 0.000754703
1.35938 0.1 0.627342 0.00127632
1.35938 0.1 -0.627342 0.00129621
1.43713 0.1 0.423956 0.000756827
1.39501 0.1 0.550542 0.00103546
0.467897 0.1 1.425 0.00928695
0.467897 0.1 -1.425 0.00928631
0 0.1 -1.5 0.00774734
0 0.1 1.5 0.00774991
1.39501 0.1 -0.552495 0.00100773
1.45847 0.1 0.364537 0.000633428
1.45847 0.1 -0.364537 0.000638196
0.150525 0.1 -1.49579 0.0142748
0.150525 0.1 1.49579 0.0143031
1.3344 0.1 0.699361 0.00143364
1.3344 0.1 -0.699361 0.00143925
1.5079 0.1 -0.0496053 0.000559383
1.5079 0.1 0.0496053 0.000559467
1.03609 0.1 -1.09793 0.00355641
1.03609 0.1 1.09793 0.0035386
1.21591 0.1 -0.898862 0.00203952
1.21591 0.1 0.898862 0.00203477
1.48215 0.1 -0.305354 0.000584792
1.48215 0.1 0.305354 0.000582781
1.5079 0.1 -0.148816 0.000555473
1.5079 0.1 0.148816 0.000555984
1.30421 0.1 0.777263 0.00162939
1.30421 0.1 -0.777263 0.00163282
0 0.1 -1.51887 0.00776479
0 0.1 1.51887 0.00776697
0.0318387 0.1 -1.51887 0.0106047
0.0318387 0.1 1.51887 0.0106076
0.934451 0.1 -1.2 0.00436638
1.11155 0.1 -1.04134 0.00286457
1.11155 0.1 1.04134 0.00284923
0.287505 0.1 -1.49579 0.0128536
0.287505 0.1 1.49579 0.0128788
1.52332 0.1 0 0.000572951
0.938924 0.1 1.2 0.0043655
0.835106 0.1 -1.275 0.00537901
0.835106 0.1 1.275 0.0053755
1.52332 0.1 -0.0976682 0.000571113
1.52332 0.1 0.0976682 0.000571443
0.715059 0.1 -1.35 0.00639028
0.715059 0.1 1.35 0.00638802
1.5079 0.1 -0.248026 0.000551398
1.5079 0.1 0.248026 0.000552051
1.43482 0.1 -0.532589 0.000852771
1.43681 0.1 0.529458 0.000854859
1.45847 0.1 0.46869 0.000706725
1.45847 0.1 -0.46869 0.000710759
1.39501 0.1 0.634239 0.00115044
1.41134 0.1 0.598762 0.00104772
1.41134 0.1 -0.598762 0.00105718
1.26973 0.1 -0.861191 0.00181739
1.26973 0.1 0.861191 0.00181074
1.52332 0.1 -0.195336 0.000566441
1.52332 0.1 0.195336 0.000567372
0.574156 0.1 -1.425 0.00781748
0.574156 0.1 1.425 0.00781657
1.48215 0.1 0.407138 0.000616884
1.48215 0.1 -0.407138 0.000620418
1.18208 0.1 -0.988436 0.00233569
1.18208 0.1 0.988436 0.00232704
1.54306 0.1 -0.0478469 0.000585064
1.54306 0.1 0.0478469 0.000584807
1.39501 0.1 -0.662994 0.00121306
0.075776 0.1 1.5449 0.0146532
0.075776 0.1 -1.5449 0.0146496
1.5079 0.1 0.347237 0.000553335
1.5079 0.1 -0.347237 0.000554122
1.35938 0.1 0.741404 0.00146802
1.35938 0.1 -0.741404 0.00146575
1.54306 0.1 0.143541 0.000581051
1.54306 0.1 -0.143541 0.000580639
1.52332 0.1 -0.293005 0.000561969
1.52332 0.1 0.293005 0.000562763
0.411227 0.1 -1.49579 0.0104785
0.411227 0.1 1.49579 0.0104802
0.99151 0.1 1.2 0.00393126
0.99151 0.1 -1.2 0.00396686
0.219992 0.1 -1.5449 0.0141436
0.219992 0.1 1.54491 0.0141868
1.24616 0.1 0.940377 0.00198736
1.24616 0.1 -0.940377 0.00199218
1.54306 0.1 -0.239234 0.00057081
1.54306 0.1 0.239234 0.000571834
1.56215 0.1 0 0.000601986
0.905821 0.1 -1.275 0.00491024
0.90582 0.1 1.275 0.00490382
1.3344 0.1 0.815921 0.00158264
1.3344 0.1 -0.815921 0.00158598
1.56215 0.1 -0.0937847 0.000599557
1.56215 0.1 0.0937847 0.000599924
1.45847 0.1 0.572843 0.000820435
1.45847 0.1 -0.572843 0.000828077
1.48215 0.1 0.50873 0.000681782
1.48215 0.1 -0.508922 0.00068831
1.07753 0.1 -1.13798 0.00336182
1.07753 0.1 1.13798 0.00335102
0.797393 0.1 -1.35 0.00574284
0.797393 0.1 1.35 0.00573958
1.43681 0.1 0.631185 0.000995739
1.43482 0.1 -0.639106 0.000996843
0 0.1 -1.57094 0.00781564
0 0.1 1.57094 0.00781681
0.0318387 0.1 1.57094 0.0106574
0.0318387 0.1 -1.57094 0.0106556
1.5079 0.1 -0.446447 0.000578594
1.5079 0.1 0.446447 0.000576054
1.52332 0.1 -0.390673 0.000565453
1.52332 0.1 0.390673 0.000565622
1.56215 0.1 -0.187569 0.00059235
1.56215 0.1 0.187569 0.000593449
0.67013 0.1 -1.425 0.00681241
0.67013 0.1 1.425 0.0068108
1.41134 0.1 -0.707628 0.00124173
1.41134 0.1 0.707628 0.00123136
1.54306 0.1 -0.334929 0.000554579
1.54306 0.1 0.334929 0.000555782
1.15879 0.1 -1.07296 0.00266245
1.15879 0.1 1.07296 0.00265256
1.58081 0.1 -0.0459594 0.000616031
1.58081 0.1 0.0459594 0.000615961
1.30421 0.1 0.896841 0.00177068
1.30421 0.1 -0.896841 0.00177417
0.350249 0.1 -1.5449 0.0116614
0.350249 0.1 1.5449 0.0116632
0.522972 0.1 -1.49579 0.00859575
0.522972 0.1 1.49579 0.00859564
1.58081 0.1 0.137878 0.00061259
1.58081 0.1 -0.137878 0.000612099
1.56215 0.1 -0.281354 0.00058023
1.56215 0.1 0.281354 0.000581684
0 0.1 -1.58981 0.00783904
0 0.1 1.58981 0.00783981
1.21591 0.1 -1.02727 0.00229705
1.21591 0.1 1.02727 0.00228934
1.39501 0.1 -0.773493 0.00139103
1.39501 0.1 0.773493 0.00139221
1.58081 0.1 -0.229797 0.00060372
1.58081 0.1 0.229797 0.000604755
0.150525 0.1 -1.59139 0.0145109
0.150525 0.1 1.59139 0.0145306
1.47987 0.1 0.607126 0.000790568
1.52332 0.1 -0.488341 0.000587558
1.52332 0.1 0.488341 0.000585993
0.96969 0.1 -1.275 0.00427876
0.96969 0.1 1.275 0.00427693
1.54306 0.1 -0.430622 0.000542364
1.54306 0.1 0.430622 0.000543145
1.60258 0.1 -2.31296e-18 0.00062945
1.48215 0.1 -0.610707 0.000811737
1.5079 0.1 -0.545658 0.000640485
1.5079 0.1 0.545658 0.000631745
1.60258 0.1 -0.0897424 0.000627933
1.60258 0.1 0.0897424 0.000628104
0.868457 0.1 -1.35 0.00527657
1.35938 0.1 0.855467 0.00159971
1.35938 0.1 -0.855467 0.00160262
1.26973 0.1 0.984219 0.00200136
1.26973 0.1 -0.984219 0.00201217
1.56215 0.1 -0.375139 0.000566522
1.56215 0.1 0.375139 0.000567972
0.871758 0.1 1.35 0.00523217
1.45847 0.1 0.676997 0.000998318
1.45847 0.1 -0.676997 0.0010091
1.60258 0.1 -0.179485 0.00062359
1.60258 0.1 0.179485 0.000623947
1.58081 0.1 -0.321716 0.000589217
1.58081 0.1 0.321716 0.000590532
0 0.1 -1.61341 0.00786312
0 0.1 1.61341 0.00786338
0.756814 0.1 1.425 0.00607924
0.756814 0.1 -1.425 0.00608195
0.0318387 0.1 -1.61341 0.0108241
0.0318387 0.1 1.61341 0.0108233
0.467897 0.1 -1.5449 0.00933893
0.467897 0.1 1.5449 0.00933947
1.6146 0.1 0.0442702 0.000634046
1.6146 0.1 -0.0442702 0.00063383
1.43447 0.1 0.744235 0.00121235
0.287505 0.1 -1.59139 0.012915
0.287505 0.1 1.59139 0.0129347
1.43681 0.1 -0.744235 0.00118729
1.03609 0.1 -1.24433 0.00412228
1.03609 0.1 1.24433 0.00411707
1.6146 0.1 -0.132811 0.000631312
1.6146 0.1 0.132811 0.000631379
0.6239 0.1 -1.49579 0.00736295
0.6239 0.1 1.49579 0.00736165
1.11155 0.1 1.18019 0.00332818
1.11155 0.1 -1.18019 0.00334431
1.60258 0.1 -0.269227 0.000614522
1.60258 0.1 0.269227 0.000615474
1.3344 0.1 -0.932481 0.00173098
1.3344 0.1 0.932481 0.0017285
1.18208 0.1 -1.12023 0.00266067
1.18208 0.1 1.12023 0.00265236
1.6146 0.1 0.221351 0.000626589
1.6146 0.1 -0.221351 0.000626334
1.54306 0.1 -0.526316 0.000544985
1.54306 0.1 0.526316 0.000542906
1.41134 0.1 -0.816493 0.00143035
1.41134 0.1 0.816493 0.00142092
1.56215 0.1 -0.468924 0.000556622
1.56215 0.1 0.468924 0.000557864
1.63192 0.1 -2.60209e-19 0.000623105
1.52332 0.1 0.586009 0.000647812
1.52332 0.1 -0.586009 0.00065295
1.58081 0.1 0.413635 0.000573132
1.58081 0.1 -0.413635 0.000571518
1.63192 0.1 -0.0868082 0.00062258
1.63192 0.1 0.0868082 0.00062239
1.24616 0.1 1.06576 0.00222726
1.24616 0.1 -1.06576 0.00223526
1.5079 0.1 0.644868 0.00073908
1.5079 0.1 -0.644868 0.000773431
1.63192 0.1 -0.173616 0.000621228
1.63192 0.1 0.173616 0.000620731
1.60258 0.1 -0.35897 0.000600778
1.60258 0.1 0.35897 0.000602002
1.48063 0.1 0.711426 0.000997014
0.411227 0.1 -1.59139 0.0105181
0.411227 0.1 1.59139 0.0105191
1.6146 0.1 0.309891 0.000616369
1.6146 0.1 -0.309891 0.000615062
0.938924 0.1 -1.35 0.00478131
0.938924 0.1 1.35 0.00477651
1.47568 0.1 -0.729962 0.000993351
1.64669 0.1 -0.0426655 0.000618675
1.64669 0.1 0.0426655 0.0006186
0.075776 0.1 -1.64598 0.0150474
0.075776 0.1 1.64598 0.0150448
0.574156 0.1 1.5449 0.00787008
0.574156 0.1 -1.54491 0.00787095
1.39501 0.1 -0.883992 0.00154294
1.39501 0.1 0.883992 0.0015388
1.64669 0.1 -0.127997 0.00061856
1.64669 0.1 0.127997 0.000617747
0.835106 0.1 -1.425 0.00553531
0.835106 0.1 1.425 0.00553164
1.63192 0.1 -0.260425 0.000618238
1.63192 0.1 0.260425 0.000617996
1.30421 0.1 1.01642 0.00196445
1.30421 0.1 -1.01642 0.00197284
1.45847 0.1 0.78115 0.00120774
1.45847 0.1 -0.78115 0.00122129
0.715059 0.1 -1.49579 0.0064983
0.715059 0.1 1.49579 0.0064961
1.58081 0.1 0.505554 0.000551866
1.58081 0.1 -0.505554 0.000550424
1.56215 0.1 0.562708 0.000569175
1.56215 0.1 -0.562708 0.000570292
1.64669 0.1 -0.213328 0.000618777
1.64669 0.1 0.213328 0.000617618
0.219992 0.1 -1.64598 0.0142571
0.219992 0.1 1.64598 0.0142902
1.66173 0.1 -6.07153e-18 0.000595656
1.6146 0.1 0.398432 0.000601725
1.6146 0.1 -0.398432 0.000601027
1.54306 0.1 0.62201 0.000602479
1.54306 0.1 -0.62201 0.000613544
1.66173 0.1 0.0836532 0.000595616
1.66173 0.1 -0.0838266 0.000596447
1.60258 0.1 -0.448712 0.000581447
1.60258 0.1 0.448712 0.000583376
1.43482 0.1 0.849874 0.00139378
1.63192 0.1 -0.347233 0.000613022
1.63192 0.1 0.347233 0.000612845
1.43681 0.1 -0.850554 0.00137067
1.35938 0.1 -0.969529 0.00174906
1.35938 0.1 0.969529 0.00174593
1.52332 0.1 0.683677 0.000775413
1.52332 0.1 -0.683677 0.000783858
1.66173 0.1 0.167307 0.000597231
1.66173 0.1 -0.167654 0.000598785
1.15879 0.1 -1.20709 0.00323434
1.15879 0.1 1.20709 0.00321829
1.07753 0.1 -1.28023 0.00391813
1.07753 0.1 1.28023 0.00391014
1.64669 0.1 -0.298659 0.000618834
1.64669 0.1 0.298659 0.000618098
0.99151 0.1 1.35 0.00437707
0.99151 0.1 -1.35 0.00441531
0.522972 0.1 -1.59139 0.00863836
0.522972 0.1 1.59139 0.00863804
1.21591 0.1 -1.15568 0.00278858
1.21591 0.1 1.15568 0.00277009
0 0.1 1.67855 0.00793187
0 0.1 -1.67855 0.00793283
0.0318387 0.1 -1.67855 0.0108938
0.0318387 0.1 1.67855 0.0108918
1.66173 0.1 0.25096 0.000601002
1.66173 0.1 -0.25148 0.000602602
1.5079 0.1 0.744078 0.000943393
1.5079 0.1 -0.744078 0.000955957
1.68117 0.1 0.0409413 0.000563832
1.68117 0.1 -0.0409413 0.000564441
0.350249 0.1 1.64598 0.0116936
0.350249 0.1 -1.64598 0.0116924
0.67013 0.1 1.5449 0.00686648
0.67013 0.1 -1.5449 0.00686827
1.26973 0.1 -1.10725 0.00242231
1.26973 0.1 1.10725 0.00239114
1.68117 0.1 0.122824 0.000564958
1.68117 0.1 -0.122824 0.000566911
1.6146 0.1 -0.486972 0.000576428
1.6146 0.1 0.486972 0.00057919
1.41134 0.1 -0.92536 0.00156707
1.41134 0.1 0.92536 0.00156538
1.47568 0.1 -0.81945 0.00119307
0.90582 0.1 -1.425 0.00509316
0.905821 0.1 1.425 0.0050887
1.63192 0.1 -0.434041 0.000601471
1.63192 0.1 0.434041 0.000602552
1.48063 0.1 0.813058 0.00119437
1.58081 0.1 0.597472 0.000546979
1.58081 0.1 -0.597472 0.000554345
1.60258 0.1 0.538454 0.000566116
1.60258 0.1 -0.538454 0.00056185
1.69082 0.1 0 0.000550484
1.64669 0.1 -0.38399 0.000617873
1.64669 0.1 0.38399 0.00061656
1.69082 0.1 0.0809177 0.000550589
1.69082 0.1 -0.0809177 0.000551803
1.68117 0.1 -0.204707 0.000573762
1.68117 0.1 0.204707 0.000570994
1.56215 0.1 0.656493 0.000634117
1.56215 0.1 -0.656493 0.000639961
0.797393 0.1 -1.49579 0.00586315
0.797393 0.1 1.49579 0.00586003
1.66173 0.1 0.334613 0.0006056
1.66173 0.1 -0.335306 0.000607555
1.3344 0.1 -1.04904 0.00203478
1.3344 0.1 1.04904 0.00202166