# pMean  POINT_DATA 18174
# x  y  z  pMean
0 0.5 -2.35744e-17 0.191634
0 0.5 -0.0544472 0.191655
0 0.5 0.0544472 0.191702
0 0.5 0.0955528 0.191372
0 0.5 -0.0955528 0.19129
0.075776 0.5 -0.075 0.191602
0.075776 0.5 0.075 0.191667
0 0.5 -0.15 0.190294
0 0.5 0.15 0.190423
0.151552 0.5 1.3433e-17 0.192494
0 0.5 -0.204447 0.189387
0 0.5 0.204447 0.189562
0.151552 0.5 -0.15 0.191139
0.151552 0.5 0.15 0.191269
0.219992 0.5 -0.075 0.193438
0.219992 0.5 0.075 0.193503
0.075776 0.5 -0.225 0.188995
0.075776 0.5 0.225 0.189187
0 0.5 -0.245553 0.188356
0 0.5 0.245553 0.188565
0.288433 0.5 -2.35744e-17 0.196295
0 0.5 -0.3 0.186509
0 0.5 0.3 0.186762
0.219992 0.5 -0.225 0.190755
0.219992 0.5 0.225 0.19095
0.288433 0.5 -0.15 0.194839
0.288433 0.5 0.15 0.194973
0.151552 0.5 -0.3 0.187289
0.151552 0.5 0.3 0.187544
0 0.5 -0.354447 0.184748
0 0.5 0.354447 0.185045
0.350249 0.5 0.075 0.199235
0.350249 0.5 -0.075 0.199165
0.075776 0.5 -0.375 0.184042
0.075776 0.5 0.375 0.184355
0 0.5 -0.395553 0.183116
0 0.5 0.395553 0.183445
0.412065 0.5 -2.86452e-17 0.203382
0.288433 0.5 -0.3 0.190686
0.288433 0.5 0.3 0.190951
0.350249 0.5 0.225 0.196365
0.350249 0.5 -0.225 0.196159
0.219992 0.5 -0.375 0.185598
0.219992 0.5 0.375 0.185916
0.412065 0.5 -0.15 0.20173
0.412065 0.5 0.15 0.201873
0 0.5 -0.45 0.180516
0 0.5 0.45 0.180886
0.467897 0.5 -0.075 0.207393
0.467897 0.5 0.075 0.207468
0.151552 0.5 -0.45 0.181182
0.151552 0.5 0.45 0.181555
0 0.5 -0.504447 0.177998
0 0.5 0.504447 0.178409
0.412065 0.5 -0.3 0.197037
0.412065 0.5 0.3 0.197319
0.350249 0.5 -0.375 0.190414
0.350249 0.5 0.375 0.190751
0.467897 0.5 0.225 0.204177
0.467897 0.5 -0.225 0.203956
0.523729 0.5 -2.35744e-17 0.212421
0.075776 0.5 -0.525 0.177018
0.075776 0.5 0.525 0.177444
0.288433 0.5 -0.45 0.184111
0.288433 0.5 0.45 0.184498
0.523729 0.5 -0.15 0.210532
0.523729 0.5 0.15 0.210686
0 0.5 -0.545553 0.175856
0 0.5 0.545553 0.176296
0.219992 0.5 -0.525 0.178307
0.219992 0.5 0.525 0.17874
0.574156 0.5 -0.075 0.217112
0.574156 0.5 0.075 0.217192
0.467897 0.5 -0.375 0.197433
0.467897 0.5 0.375 0.197795
0 0.5 -0.6 0.17265
0 0.5 0.6 0.173126
0.523729 0.5 -0.3 0.205174
0.523729 0.5 0.3 0.205478
0.412065 0.5 -0.45 0.189645
0.412065 0.5 0.45 0.190058
0.574156 0.5 -0.225 0.213178
0.574156 0.5 0.225 0.213417
0.151552 0.5 -0.6 0.173177
0.151552 0.5 0.6 0.173658
0.624584 0.5 -2.35744e-17 0.222754
0.350249 0.5 -0.525 0.182337
0.350249 0.5 0.525 0.182795
0.624584 0.5 -0.15 0.220594
0.624584 0.5 0.15 0.22076
0 0.5 -0.654447 0.16952
0 0.5 0.654447 0.170033
0.288433 0.5 -0.6 0.175533
0.288433 0.5 0.6 0.176031
0.67013 0.5 -0.075 0.227971
0.67013 0.5 0.075 0.228058
0.075776 0.5 0.675 0.168847
0.075776 0.5 -0.675 0.16832
0.574156 0.5 -0.375 0.205724
0.574156 0.5 0.375 0.206113
0.523729 0.5 -0.45 0.19677
0.523729 0.5 0.45 0.197213
0.624584 0.5 -0.3 0.214459
0.624584 0.5 0.3 0.214785
0 0.5 -0.695553 0.166982
0 0.5 0.695553 0.167521
0.467897 0.5 -0.525 0.188299
0.467897 0.5 0.525 0.18879
0.67013 0.5 0.225 0.223725
0.67013 0.5 -0.225 0.223468
0.219992 0.5 -0.675 0.169299
0.219992 0.5 0.675 0.169835
0.715676 0.5 -3.28263e-17 0.234102
0.412065 0.5 -0.6 0.180051
0.412065 0.5 0.6 0.180581
0.715676 0.5 -0.15 0.231634
0.715676 0.5 0.15 0.231813
0 0.5 -0.75 0.163332
0 0.5 0.75 0.163903
0.350249 0.5 0.675 0.172992
0.350249 0.5 -0.675 0.172427
0.756813 0.5 0.075 0.239809
0.756814 0.5 -0.075 0.239715
0.151552 0.5 -0.75 0.163708
0.151552 0.5 0.75 0.164283
0.67013 0.5 -0.375 0.214922
0.67013 0.5 0.375 0.215342
0.624584 0.5 -0.45 0.204866
0.624584 0.5 0.45 0.205343
0.715676 0.5 -0.3 0.224608
0.715676 0.5 0.3 0.22496
0.574156 0.5 0.525 0.195861
0.574156 0.5 -0.525 0.195333
0.756813 0.5 -0.225 0.23457
0.756813 0.5 0.225 0.234847
0.523729 0.5 -0.6 0.185909
0.523729 0.5 0.6 0.186479
0.797951 0.5 -2.43973e-17 0.246187
0.288433 0.5 -0.75 0.165441
0.288433 0.5 0.75 0.166037
0 0.5 -0.804447 0.159752
0 0.5 0.804447 0.160355
0.797951 0.5 -0.15 0.243378
0.797951 0.5 0.15 0.24357
0.467897 0.5 -0.675 0.177142
0.467897 0.5 0.675 0.177748
0.075776 0.5 -0.825 0.158393
0.075776 0.5 0.825 0.159008
0.835106 0.5 -0.075 0.252044
0.835106 0.5 0.075 0.252144
0.756813 0.5 -0.375 0.224794
0.756813 0.5 0.375 0.225247
0.715676 0.5 -0.45 0.21366
0.715676 0.5 0.45 0.214174
0 0.5 -0.845553 0.15694
0 0.5 0.845553 0.157565
0.67013 0.5 -0.525 0.203089
0.67013 0.5 0.525 0.203659
0.797951 0.5 -0.3 0.235364
0.797951 0.5 0.3 0.235744
0.219992 0.5 0.825 0.159676
0.219992 0.5 -0.825 0.15905
0.412065 0.5 -0.75 0.168847
0.412065 0.5 0.75 0.169481
0.835106 0.5 -0.225 0.246193
0.835106 0.5 0.225 0.246491
0.624584 0.5 -0.6 0.192543
0.624584 0.5 0.6 0.193157
0.872262 0.5 -3.61845e-17 0.258724
0.872262 0.5 -0.15 0.255544
0.872262 0.5 0.15 0.25575
0.574156 0.5 -0.675 0.182714
0.574156 0.5 0.675 0.183366
0.350249 0.5 -0.825 0.161251
0.350249 0.5 0.825 0.161909
0 0.5 -0.9 0.153012
0 0.5 0.9 0.153663
0.90582 0.5 -0.075 0.264692
0.90582 0.5 0.075 0.264799
0.151552 0.5 -0.9 0.153237
0.151552 0.5 0.9 0.153894
0.523729 0.5 -0.75 0.173317
0.523729 0.5 0.75 0.173997
0.835106 0.5 -0.375 0.235078
0.835106 0.5 0.375 0.235567
0.797951 0.5 -0.45 0.222913
0.797951 0.5 0.45 0.223469
0.756813 0.5 -0.525 0.211344
0.756814 0.5 0.525 0.211958
0.872262 0.5 -0.3 0.246465
0.872262 0.5 0.3 0.246873
0.90582 0.5 -0.225 0.25936
0.90582 0.5 0.225 0.258402
0.715676 0.5 -0.6 0.199688
0.715676 0.5 0.6 0.20035
0.939379 0.5 -2.35744e-17 0.271466
0.288433 0.5 -0.9 0.154356
0.288433 0.5 0.9 0.155035
0.467897 0.5 -0.825 0.164676
0.467897 0.5 0.825 0.165379
0.67013 0.5 -0.675 0.188816
0.67013 0.5 0.675 0.18952
0.939379 0.5 -0.15 0.267891
0.939379 0.5 0.15 0.268111
0 0.5 -0.954447 0.149147
0 0.5 0.954447 0.149825
0.969689 0.5 0.075 0.279618
0.969689 0.5 -0.075 0.277964
0.624584 0.5 -0.75 0.178356
0.624584 0.5 0.75 0.179089
0.075776 0.5 -0.975 0.149188
0.075776 0.5 0.975 0.148377
0.90582 0.5 -0.375 0.246478
0.90582 0.5 0.375 0.246063
0.872262 0.5 -0.45 0.232382
0.872262 0.5 0.45 0.232979
0.939379 0.5 -0.3 0.25769
0.939379 0.5 0.3 0.258125
0.835106 0.5 0.525 0.220511
0.835106 0.5 -0.525 0.219849
0.412065 0.5 -0.9 0.156669
0.412065 0.5 0.9 0.157388
0.969689 0.5 0.225 0.272503
0.969689 0.5 -0.225 0.27015
0 0.5 -0.995553 0.146181
0 0.5 0.995553 0.146876
0.797951 0.5 -0.6 0.207112
0.797951 0.5 0.6 0.207825
0.219992 0.5 -0.975 0.149617
0.219992 0.5 0.975 0.148739
1 0.5 0 0.285428
0.574156 0.5 -0.825 0.16874
0.574156 0.5 0.825 0.169496
1 0.5 0.15 0.281595
1 0.5 -0.15 0.281361
0.756813 0.5 -0.675 0.195225
0.756813 0.5 0.675 0.195982
1.02577 0.5 0.0737114 0.289471
1.02577 0.5 -0.0737114 0.289453
0.350249 0.5 -0.975 0.151081
0.350249 0.5 0.975 0.150099
0.715676 0.5 -0.75 0.183713
0.715676 0.5 0.75 0.184502
0.969689 0.5 0.375 0.258608
0.969689 0.5 -0.375 0.256093
0.523729 0.5 -0.9 0.159771
0.523729 0.5 0.9 0.16054
0.939379 0.5 -0.45 0.241866
0.939379 0.5 0.45 0.242503
1 0.5 0.3 0.270237
1 0.5 -0.3 0.269774
0.905821 0.5 0.525 0.229088
0.905821 0.5 -0.525 0.228955
1.02577 0.5 0.221134 0.281473
1.02577 0.5 -0.221134 0.281413
0 0.5 -1.05 0.142128
0 0.5 1.05 0.142845
0.872262 0.5 -0.6 0.214594
0.872262 0.5 0.6 0.21536
0.151552 0.5 -1.05 0.142214
0.151552 0.5 1.05 0.142936
0.67013 0.5 0.825 0.173943
0.67013 0.5 -0.825 0.17313
0.835106 0.5 -0.675 0.2017
0.835106 0.5 0.675 0.202514
1.07737 0.5 -2.32453e-17 0.302117
0.467897 0.5 -0.975 0.153463
0.467897 0.5 0.975 0.152358
1.07737 0.5 -0.142263 0.297825
1.07737 0.5 0.142263 0.298087
0.288433 0.5 -1.05 0.142771
0.288433 0.5 1.05 0.143517
1.02577 0.5 0.368557 0.266257
1.02577 0.5 -0.368557 0.266133
0.797951 0.5 -0.75 0.189172
0.797951 0.5 0.75 0.190021
0.624584 0.5 -0.9 0.163248
0.624584 0.5 0.9 0.164075
1 0.5 0.45 0.252531
1 0.5 -0.45 0.25185
0.969689 0.5 0.525 0.239372
0.969689 0.5 -0.525 0.236838
0 0.5 -1.10445 0.138131
0 0.5 1.10445 0.138868
1.07737 0.5 -0.284526 0.285595
1.07737 0.5 0.284526 0.286111
0.939379 0.5 -0.6 0.221974
0.939379 0.5 0.6 0.222793
0.756813 0.5 0.825 0.178519
0.756813 0.5 -0.825 0.177643
1.12068 0.5 -0.0689662 0.313269
1.12068 0.5 0.0689662 0.313472
0.075776 0.5 -1.125 0.136631
0.075776 0.5 1.125 0.137376
0.412065 0.5 -1.05 0.144083
0.412065 0.5 1.05 0.14487
0.90582 0.5 -0.675 0.208322
0.90582 0.5 0.675 0.20896
0.574156 0.5 -0.975 0.156298
0.574156 0.5 0.975 0.155061
1.12068 0.5 0.206899 0.305219
1.12068 0.5 -0.206899 0.304617
0 0.5 -1.14555 0.135118
0 0.5 1.14555 0.135868
0.219992 0.5 -1.125 0.136707
0.219993 0.5 1.125 0.137465
1.02577 0.5 0.51598 0.245437
1.02577 0.5 -0.51598 0.245214
1.14932 0.5 0 0.321835
0.715676 0.5 -0.9 0.166874
0.715676 0.5 0.9 0.167762
0.872262 0.5 -0.75 0.19456
0.872262 0.5 0.75 0.195472
1.14932 0.5 -0.135068 0.317415
1.14932 0.5 0.135068 0.317659
1.07737 0.5 -0.426789 0.266655
1.07737 0.5 0.426789 0.267412
1 0.5 0.6 0.230305
1 0.5 -0.6 0.229426
1.12068 0.5 -0.344831 0.288252
1.12068 0.5 0.344831 0.289223
1.17123 0.5 0.0664384 0.327942
1.17123 0.5 -0.0664384 0.327771
0.523729 0.5 -1.05 0.145939
0.523729 0.5 1.05 0.146779
0.835106 0.5 -0.825 0.182091
0.835106 0.5 0.825 0.183034
0.350249 0.5 -1.125 0.137261
0.350249 0.5 1.125 0.138053
1.14932 0.5 -0.270135 0.304718
1.14932 0.5 0.270135 0.305203
0.969689 0.5 0.675 0.216724
0.969689 0.5 -0.675 0.214285
0.67013 0.5 -0.975 0.159312
0.67013 0.5 0.975 0.157934
1.17123 0.5 -0.199315 0.318952
1.17123 0.5 0.199315 0.319462
0 0.5 -1.2 0.131075
0 0.5 1.2 0.13184
0.939379 0.5 -0.75 0.199761
0.939379 0.5 0.75 0.200738
0.797951 0.5 -0.9 0.170476
0.797951 0.5 0.9 0.17143
0.151552 0.5 -1.2 0.131036
0.151552 0.5 1.2 0.131808
1.21551 0.5 -1.04083e-18 0.342801
1.07693 0.5 0.567129 0.244092
1.17123 0.5 -0.332191 0.302099
1.17123 0.5 0.332191 0.302934
1.07737 0.5 -0.569052 0.242828
0.467897 0.5 -1.125 0.138392
0.467897 0.5 1.125 0.139233
1.14932 0.5 -0.405203 0.28488
1.14932 0.5 0.405203 0.285598
1.12068 0.5 0.482763 0.267146
1.12068 0.5 -0.482763 0.26585
1.02577 0.5 0.663403 0.221046
1.02577 0.5 -0.663403 0.220694
0.624584 0.5 -1.05 0.148018
0.624584 0.5 1.05 0.148918
1.21551 0.5 -0.128449 0.338194
1.21551 0.5 0.128449 0.338478
0.90582 0.5 0.825 0.187375
0.90582 0.5 -0.825 0.186317
0.288433 0.5 -1.2 0.131107
0.288433 0.5 1.2 0.131903
0.756813 0.5 -0.975 0.162341
0.756813 0.5 0.975 0.160818
1.21551 0.5 0.256897 0.325495
1.21551 0.5 -0.256897 0.324927
1.24616 0.5 -0.0626919 0.353084
1.24616 0.5 0.0626919 0.353208
1 0.5 0.75 0.205658
1 0.5 -0.75 0.204606
0.872262 0.5 -0.9 0.173916
0.872262 0.5 0.9 0.174937
0 0.5 -1.25445 0.127079
0 0.5 1.25445 0.12786
1.17123 0.5 0.465068 0.279905
1.17123 0.5 -0.465068 0.278785
1.24616 0.5 -0.188076 0.343841
1.24616 0.5 0.188076 0.344215
0.574156 0.5 -1.125 0.139801
0.574156 0.5 1.125 0.140699
0.412065 0.5 -1.2 0.131562
0.412065 0.5 1.2 0.1324
1.26895 0.5 2.31296e-18 0.360634
1.14932 0.5 0.540271 0.260703
1.14932 0.5 -0.540271 0.259765
0.715676 0.5 -1.05 0.150135
0.715676 0.5 1.05 0.151099
0.969689 0.5 0.825 0.19041
0.969689 0.5 -0.825 0.190328
1.26895 0.5 -0.123105 0.355777
1.26895 0.5 0.123105 0.356244
1.21551 0.5 -0.385346 0.303987
1.21551 0.5 0.385346 0.304826
0.075776 0.5 -1.275 0.125584
0.075776 0.5 1.275 0.12637
1.12068 0.5 0.620696 0.241524
1.12068 0.5 -0.620696 0.239333
0.835106 0.5 -0.975 0.165237
0.835106 0.5 0.975 0.163564
1.07187 0.5 0.707758 0.218195
1.24616 0.5 -0.313459 0.326003
1.24616 0.5 0.313459 0.326633
1.07737 0.5 -0.711315 0.216347
1.26895 0.5 -0.24621 0.341933
1.26895 0.5 0.24621 0.342858
0.219992 0.5 1.275 0.126219
0.219993 0.5 -1.275 0.125419
0 0.5 -1.29555 0.124106
0 0.5 1.29555 0.124896
0.939379 0.5 -0.9 0.177114
0.939379 0.5 0.9 0.178202
1.30563 0.5 -0.0597185 0.374568
1.30563 0.5 0.0597185 0.374702
1.02577 0.5 -0.810825 0.194773
1.02577 0.5 0.810825 0.201111
0.523729 0.5 -1.2 0.132361
0.523729 0.5 1.2 0.133252
0.67013 0.5 -1.125 0.141274
0.67013 0.5 1.125 0.142235
1.17123 0.5 -0.597945 0.251176
1.17123 0.5 0.597945 0.256984
1.30563 0.5 -0.179156 0.364965
1.30563 0.5 0.179156 0.365368
0.797951 0.5 -1.05 0.152161
0.797951 0.5 1.05 0.153192
1.21605 0.5 0.510895 0.279805
1.21551 0.5 -0.513795 0.277313
1.24616 0.5 -0.438843 0.300885
1.24616 0.5 0.438843 0.30175
1.26895 0.5 0.369315 0.321326
1.26895 0.5 -0.369315 0.319979
0.350249 0.5 -1.275 0.125326
0.350249 0.5 1.275 0.12616
0.90582 0.5 -0.975 0.167888
0.90582 0.5 0.975 0.166991
1.14932 0.5 0.675339 0.232777
1.14932 0.5 -0.675339 0.231643
1.3344 0.5 0 0.38556
1.30563 0.5 -0.298593 0.346377
1.30563 0.5 0.298593 0.347044
1.3344 0.5 -0.11656 0.380646
1.3344 0.5 0.11656 0.3809
1 0.5 -0.9 0.17938
1 0.5 0.9 0.180578
0 0.5 -1.35 0.120171
0 0.5 1.35 0.120971
0.624584 0.5 -1.2 0.133275
0.624584 0.5 1.2 0.134227
1.35183 0.5 -0.0574087 0.393736
1.35183 0.5 0.0574087 0.393865
1.12068 0.5 -0.758628 0.211301
1.12068 0.5 0.758628 0.213036
1.3344 0.5 -0.23312 0.366372
1.3344 0.5 0.23312 0.366883
0.756813 0.5 1.125 0.143715
0.756814 0.5 -1.125 0.142686
0.467897 0.5 -1.275 0.125575
0.467897 0.5 1.275 0.126457
0.151552 0.5 -1.35 0.120026
0.151552 0.5 1.35 0.120831
1.26895 0.5 0.492419 0.295753
1.26895 0.5 -0.492419 0.291872
1.35183 0.5 0.172226 0.384363
1.35183 0.5 -0.172226 0.383978
0.872262 0.5 -1.05 0.153979
0.872262 0.5 1.05 0.155078
1.24616 0.5 0.564227 0.272174
1.24616 0.5 -0.564227 0.271081
1.30563 0.5 -0.41803 0.319898
1.30563 0.5 0.41803 0.320826
1.07737 0.5 0.853578 0.190844
1.07737 0.5 -0.853578 0.189527
1.21551 0.5 0.642243 0.248558
1.21551 0.5 -0.642243 0.247252
0.969689 0.5 -0.975 0.168337
0.969689 0.5 0.975 0.168181
1.3344 0.5 -0.34968 0.343411
1.3344 0.5 0.34968 0.344182
0.288433 0.5 -1.35 0.119689
0.288433 0.5 1.35 0.120519
1.17123 0.5 -0.730821 0.221723
1.17123 0.5 0.730821 0.22328
1.35183 0.5 -0.287044 0.364986
1.35183 0.5 0.287044 0.365627
1.3856 0.5 -5.08026e-18 0.407674
1.3856 0.5 0.111298 0.402931
1.3856 0.5 -0.11144 0.402664
0.715676 0.5 -1.2 0.134162
0.715676 0.5 1.2 0.135178
0.574156 0.5 -1.275 0.125981
0.574156 0.5 1.275 0.12692
0.835106 0.5 -1.125 0.14394
0.835106 0.5 1.125 0.145039
1.3856 0.5 0.222595 0.388598
1.3856 0.5 -0.222879 0.388061
1.02577 0.5 -0.958248 0.169119
1.02577 0.5 0.958248 0.169811
0 0.5 -1.40445 0.116276
0 0.5 1.40445 0.117085
1.14932 0.5 0.810406 0.20448
1.14932 0.5 -0.810406 0.203198
0.939379 0.5 -1.05 0.155563
0.939379 0.5 1.05 0.156729
1.35183 0.5 0.401861 0.338528
1.35183 0.5 -0.401861 0.337617
1.26895 0.5 -0.615524 0.260017
1.26895 0.5 0.615524 0.261992
0.412065 0.5 -1.35 0.119446
0.412065 0.5 1.35 0.120317
1.30563 0.5 0.537467 0.290344
1.30563 0.5 -0.537467 0.288232
1.3344 0.5 0.46624 0.314565
1.3344 0.5 -0.46624 0.313548
1.41888 0.5 -0.0540558 0.421671
1.41888 0.5 0.0540558 0.421931
1.24616 0.5 0.68961 0.24009
1.24616 0.5 -0.68961 0.238786
1.3856 0.5 0.333893 0.365175
1.3856 0.5 -0.334319 0.364362
0.075776 0.5 1.425 0.115682
0.075776 0.5 -1.425 0.11487
1.41888 0.5 0.162168 0.412368
1.41888 0.5 -0.162168 0.411585
1.12068 0.5 0.896561 0.186072
1.12068 0.5 -0.896561 0.184244
1.4361 0.5 0 0.429942
1.21551 0.5 0.770692 0.218014
1.21551 0.5 -0.770692 0.216541
1.4361 0.5 0.10639 0.425141
1.4361 0.5 -0.10639 0.424885
0.67013 0.5 -1.275 0.126378
0.67013 0.5 1.275 0.12738
0.797951 0.5 -1.2 0.134929
0.797951 0.5 1.2 0.136015
0.219992 0.5 1.425 0.11536
0.219992 0.5 -1.425 0.114534
0.90582 0.5 -1.125 0.144932
0.90582 0.5 1.125 0.146789
1.41888 0.5 -0.270279 0.391926
1.41888 0.5 0.270279 0.393226
0 0.5 -1.44555 0.113453
0 0.5 1.44555 0.114268
1.35183 0.5 -0.516678 0.304362
1.35183 0.5 0.516678 0.310992
0.523729 0.5 -1.35 0.119395
0.523729 0.5 1.35 0.120317
1 0.5 -1.05 0.155417
1 0.5 1.05 0.156682
1.4361 0.5 0.21278 0.410574
1.4361 0.5 -0.21278 0.410058
1.38525 0.5 0.444071 0.33463
1.17123 0.5 -0.863698 0.193273
1.17123 0.5 0.863698 0.194937
1.3856 0.5 -0.445758 0.333095
1.3344 0.5 0.582801 0.280513
1.3344 0.5 -0.582801 0.279265
1.45835 0.5 0.0520823 0.441168
1.45835 0.5 -0.0520823 0.441034
1.30563 0.5 -0.656904 0.253579
1.30563 0.5 0.656904 0.254972
1.45835 0.5 0.156247 0.431399
1.45835 0.5 -0.156247 0.430994
1.07737 0.5 0.995841 0.165439
1.07737 0.5 -0.995841 0.16403
0.350249 0.5 1.425 0.11477
0.350249 0.5 -1.425 0.11391
1.26895 0.5 0.738629 0.229372
1.26895 0.5 -0.738629 0.227224
1.41888 0.5 0.378391 0.365151
1.41888 0.5 -0.378391 0.363356
1.4361 0.5 0.31917 0.386565
1.4361 0.5 -0.31917 0.385782
1.45835 0.5 -0.260411 0.411168
1.45835 0.5 0.260411 0.411843
0.756813 0.5 1.275 0.127752
0.756814 0.5 -1.275 0.126682
0.872262 0.5 -1.2 0.135489
0.872262 0.5 1.2 0.136646
0.969689 0.5 -1.125 0.144868
0.969689 0.5 1.125 0.146814
0.624584 0.5 -1.35 0.119367
0.624584 0.5 1.35 0.120348
1.48766 0.5 4.39463e-17 0.456333
1.14932 0.5 0.945474 0.177802
1.14932 0.5 -0.945474 0.176414
1.24616 0.5 -0.814994 0.207249
1.24616 0.5 0.814994 0.208709
1.48766 0.5 0.101234 0.451654
1.48766 0.5 -0.101234 0.451133
1.35183 0.5 0.631496 0.268045
1.35183 0.5 -0.631496 0.267712
1.3856 0.5 -0.557198 0.296698
1.38702 0.5 0.556488 0.297981
1.4361 0.5 0.42556 0.354354
1.4361 0.5 -0.42556 0.353304
0.467897 0.5 -1.425 0.11346
0.467897 0.5 1.425 0.114366
1.41888 0.5 0.486502 0.334339
1.41888 0.5 -0.486502 0.327959
0 0.5 1.5 0.110633
0 0.5 -1.5 0.109815
1.48766 0.5 0.202468 0.437098
1.48766 0.5 -0.202468 0.43605
1.50211 0.5 -0.0498948 0.463485
1.50211 0.5 0.0498948 0.46361
1.45835 0.5 0.364576 0.382847
1.45835 0.5 -0.364576 0.381881
1.3344 0.5 0.699361 0.244994
1.3344 0.5 -0.699361 0.243535
0.151552 0.5 1.5 0.110914
0.151552 0.5 -1.5 0.11009
1.02577 0.5 -1.10567 0.145347
1.02577 0.5 1.10567 0.146113
1.50211 0.5 0.149684 0.45387
1.50211 0.5 -0.149684 0.453486
1.21551 0.5 0.899141 0.188988
1.21551 0.5 -0.899141 0.187385
1.48766 0.5 -0.303703 0.411153
1.48766 0.5 0.303703 0.412739
1.30563 0.5 -0.776341 0.219491
1.30563 0.5 0.776341 0.221059
1.50211 0.5 0.249473 0.434212
1.50211 0.5 -0.249473 0.433564
1.52312 0.5 -1.56125e-18 0.474505
0.939379 0.5 -1.2 0.135844
0.939379 0.5 1.2 0.137072
0.835106 0.5 1.275 0.127964
0.835107 0.5 -1.275 0.126824
1.12068 0.5 1.03449 0.161267
1.12068 0.5 -1.03449 0.159423
1.52312 0.5 0.0976882 0.46974
1.52312 0.5 -0.0976882 0.469477
0.288433 0.5 1.5 0.11026
0.288433 0.5 -1.5 0.109413
0.715676 0.5 -1.35 0.119254
0.715676 0.5 1.35 0.120301
1.4361 0.5 0.53195 0.316219
1.4361 0.5 -0.53195 0.314908
1.45835 0.5 -0.46874 0.345113
1.45835 0.5 0.46874 0.346353
0 0.5 1.5326 0.108324
0 0.5 -1.5326 0.107502
1.26895 0.5 0.861734 0.198227
1.26895 0.5 -0.861734 0.19597
1.52312 0.5 0.195376 0.455114
1.52312 0.5 -0.195376 0.45458
0.574156 0.5 1.425 0.114023
0.574156 0.5 -1.425 0.113063
1.17123 0.5 -0.996574 0.167176
1.17123 0.5 0.996574 0.168893
1.41888 0.5 0.594614 0.290859
1.41888 0.5 -0.594614 0.288328
1.3856 0.5 -0.668637 0.258288
1.38702 0.5 0.667785 0.259802
1.48766 0.5 0.404937 0.379436
1.48766 0.5 -0.404937 0.37735
1.50211 0.5 -0.349263 0.403776
1.50211 0.5 0.349263 0.404707
1.54252 0.5 0.0478741 0.485532
1.54252 0.5 -0.0478741 0.485409
1.35183 0.5 0.746313 0.232016
1.35183 0.5 -0.746313 0.231225
0.075776 0.5 1.5449 0.108357
0.075776 0.5 -1.5449 0.106643
1.54252 0.5 0.143622 0.475933
1.54252 0.5 -0.143622 0.475558
1.52312 0.5 0.293065 0.430527
1.52312 0.5 -0.293065 0.429706
0.412065 0.5 1.5 0.109506
0.412065 0.5 -1.5 0.10862
1.55568 0.5 -1.15648e-18 0.492132
0 0.5 1.55721 0.106627
0 0.5 -1.55721 0.105804
1.55568 0.5 0.0944315 0.487429
1.55568 0.5 -0.0944315 0.487181
0.219992 0.5 -1.5449 0.106197
0.219993 0.5 1.5449 0.108004
1.54252 0.5 0.23937 0.456391
1.54252 0.5 -0.23937 0.455747
1.24616 0.5 -0.940377 0.177745
1.24616 0.5 0.940377 0.179366
1 0.5 -1.2 0.13428
1 0.5 1.2 0.135569
0.90582 0.5 -1.275 0.126734
0.90582 0.5 1.275 0.128428
1.3344 0.5 0.815921 0.21109
1.3344 0.5 -0.815921 0.209457
1.45835 0.5 -0.572904 0.303314
1.45835 0.5 0.572904 0.306266
1.55568 0.5 0.188863 0.472939
1.55568 0.5 -0.188863 0.472431
1.07737 0.5 1.13811 0.1429
1.07737 0.5 -1.13811 0.141482
1.50211 0.5 0.449052 0.366844
1.50211 0.5 -0.449052 0.365638
0.797951 0.5 -1.35 0.118991
0.797951 0.5 1.35 0.120107
1.48452 0.5 0.506171 0.339206
1.48766 0.5 -0.506171 0.336689
1.4361 0.5 0.63834 0.275317
1.4361 0.5 -0.63834 0.273768
1.52312 0.5 0.390753 0.396525
1.52312 0.5 -0.390753 0.395411
0.67013 0.5 1.425 0.113609
0.67013 0.5 -1.425 0.112587
1.14932 0.5 1.08054 0.154346
1.14932 0.5 -1.08054 0.152896
1.54252 0.5 0.335119 0.426727
1.54252 0.5 -0.335119 0.425796
1.58017 0.5 0.0459917 0.507131
1.58017 0.5 -0.0459917 0.507006
1.55568 0.5 0.283295 0.448391
1.55568 0.5 -0.283295 0.447607
1.41888 0.5 -0.702726 0.248166
1.41888 0.5 0.702726 0.250879
1.30563 0.5 0.895778 0.18985
1.30563 0.5 -0.895778 0.188141
0.350249 0.5 -1.5449 0.105269
0.350249 0.5 1.5449 0.107137
1.58017 0.5 0.137975 0.497778
1.58017 0.5 -0.137975 0.497395
0.523729 0.5 1.5 0.108859
0.523729 0.5 -1.5 0.107924
0 0.5 1.58981 0.104422
0 0.5 -1.58981 0.103598
1.3856 0.5 -0.780077 0.22132
1.38702 0.5 0.779083 0.223015
1.21551 0.5 1.02759 0.163564
1.21551 0.5 -1.02759 0.1619
1.58017 0.5 0.229958 0.478556
1.58017 0.5 -0.229958 0.477893
0.151552 0.5 1.58981 0.103975
0.151552 0.5 -1.58981 0.103146
1.59812 0.5 0 0.517363
1.50211 0.5 -0.548842 0.321529
1.50211 0.5 0.548842 0.323014
1.52312 0.5 0.488441 0.354861
1.52312 0.5 -0.488441 0.353455
1.59812 0.5 0.0901884 0.512806
1.59812 0.5 -0.0901884 0.51256
1.55568 0.5 0.377726 0.414004
1.55568 0.5 -0.377726 0.412932
1.54252 0.5 0.430867 0.387827
1.54252 0.5 -0.430867 0.386612
0.969689 0.5 1.275 0.127547
0.969689 0.5 -1.275 0.125436
1.35183 0.5 0.861131 0.198986
1.35183 0.5 -0.861131 0.197754
1.26895 0.5 0.984839 0.170952
1.26895 0.5 -0.984839 0.168724
1.48766 0.5 0.607405 0.299549
1.48766 0.5 -0.607405 0.292389
0.872262 0.5 -1.35 0.118519
0.872262 0.5 1.35 0.119707
1.45835 0.5 0.677069 0.262043
1.45835 0.5 -0.677069 0.260316
1.59812 0.5 0.180377 0.49867
1.59812 0.5 -0.180377 0.498166
1.6103 0.5 0.044485 0.524067
1.6103 0.5 -0.044485 0.523841
1.58017 0.5 -0.321942 0.448079
1.58017 0.5 0.321942 0.449046
0.756813 0.5 1.425 0.113068
0.756814 0.5 -1.425 0.111979
0.467897 0.5 -1.5449 0.104427
0.467897 0.5 1.5449 0.106367
0.288433 0.5 1.58981 0.10322
0.288433 0.5 -1.58981 0.10237
1.6103 0.5 0.133455 0.515023
1.6103 0.5 -0.133455 0.514333
1.4361 0.5 0.74473 0.235396
1.4361 0.5 -0.74473 0.233667
1.02577 0.5 -1.25309 0.125405
1.02577 0.5 1.25309 0.126223
1.59812 0.5 0.270565 0.474419
1.59812 0.5 -0.270565 0.47364
1.12068 0.5 1.17243 0.139624
1.12068 0.5 -1.17243 0.137744
0.624584 0.5 1.5 0.108203
0.624584 0.5 -1.5 0.107213
1.6103 0.5 0.222425 0.496222
1.6103 0.5 -0.222425 0.495038
1.55568 0.5 0.472158 0.371197
1.55568 0.5 -0.472158 0.369827
1.17123 0.5 1.12945 0.146947
1.17123 0.5 -1.12945 0.14519
1.3344 0.5 0.932481 0.181718
1.3344 0.5 -0.932481 0.179977
1.54252 0.5 0.526615 0.341942
1.54252 0.5 -0.526615 0.340424
0 0.5 1.63059 0.101794
0 0.5 -1.63059 0.10097
1.52302 0.5 0.5857 0.309287
1.63193 0.5 -1.29526e-17 0.538327
1.52312 0.5 -0.586129 0.307075
1.58017 0.5 0.413925 0.409548
1.58017 0.5 -0.413925 0.408266
1.41888 0.5 0.810837 0.21382
1.41888 0.5 -0.810837 0.211102
1.63193 0.5 0.0868068 0.533964
1.63193 0.5 -0.0868068 0.533682
1.50211 0.5 0.648631 0.277178
1.50211 0.5 -0.648631 0.27546
1.59812 0.5 0.360754 0.439782
1.59812 0.5 -0.360754 0.43871
1.24616 0.5 1.06576 0.155237
1.24616 0.5 -1.06576 0.15357
1.6103 0.5 -0.311395 0.46533
1.6103 0.5 0.311395 0.467045
1.63193 0.5 0.173614 0.520306
1.63193 0.5 -0.173614 0.519729
0.412065 0.5 1.58981 0.102254
0.412065 0.5 -1.58981 0.101367
0.939379 0.5 -1.35 0.117805
0.939379 0.5 1.35 0.119069
1.64669 0.5 0.0426655 0.547423
1.64669 0.5 -0.0426655 0.547304
1.3856 0.5 -0.891517 0.189307
0.075776 0.5 1.64598 0.100761
0.075776 0.5 -1.64598 0.0999359
1.48766 0.5 0.708639 0.25135
1.48766 0.5 -0.708639 0.248367
0.574156 0.5 1.5449 0.105644
0.574156 0.5 -1.5449 0.103621
1.38702 0.5 0.890381 0.191138
1.64669 0.5 -0.127997 0.538323
1.64669 0.5 0.127997 0.538687
0.835106 0.5 1.425 0.112341
0.835106 0.5 -1.425 0.111181
1.63193 0.5 0.26042 0.496617
1.63193 0.5 -0.26042 0.495718
1.30563 0.5 1.01522 0.164528
1.30563 0.5 -1.01522 0.162793
1.45835 0.5 -0.781233 0.220113
1.45835 0.5 0.781233 0.221988
1.55568 0.5 0.566589 0.32477
1.55568 0.5 -0.566589 0.3215
1.58017 0.5 0.505908 0.36191
1.58017 0.5 -0.505908 0.360279
1.6103 0.5 -0.400365 0.425198
1.6103 0.5 0.400365 0.427438
1.64669 0.5 0.213328 0.520471
1.64669 0.5 -0.213328 0.519848
1.59812 0.5 0.450942 0.395633
1.59812 0.5 -0.450942 0.394254
0.219992 0.5 1.64598 0.100216
0.219992 0.5 -1.64598 0.0993803
0 0.5 1.66137 0.0998333
0 0.5 -1.66137 0.0990086
0.715676 0.5 1.5 0.107477
0.715676 0.5 -1.5 0.106427
1.66293 0.5 1.82146e-17 0.557351
1.54252 0.5 0.622363 0.293243
1.54252 0.5 -0.622363 0.291481
1.66293 0.5 -0.0837068 0.552882
1.66293 0.5 0.0837068 0.553191
1.35183 0.5 0.975948 0.171328
1.35183 0.5 -0.975948 0.170145
1.63193 0.5 -0.347227 0.460976
1.63193 0.5 0.347227 0.46222
1.4361 0.5 0.85112 0.200786
1.4361 0.5 -0.85112 0.198912
1.52312 0.5 -0.683817 0.260119
1.52312 0.5 0.683817 0.262018
1.66293 0.5 0.167414 0.540077
1.66293 0.5 -0.167414 0.539445
1.14932 0.5 1.21561 0.131369
1.14932 0.5 -1.21561 0.129858
1.07737 0.5 1.28037 0.121961
1.07737 0.5 -1.28037 0.120513
1.64669 0.5 0.298659 0.491758
1.64669 0.5 -0.298659 0.490849
0.523729 0.5 1.58981 0.10136
0.523729 0.5 -1.58981 0.100428
1.21551 0.5 1.15604 0.139599
1.21551 0.5 -1.15604 0.137871
1.50211 0.5 -0.74842 0.23131
1.50211 0.5 0.74842 0.233233
1 0.5 1.35 0.116503
1 0.5 -1.35 0.115184
1.67988 0.5 -0.0410058 0.56739
1.67988 0.5 0.0410058 0.567595
1.66293 0.5 0.251121 0.517104
1.66293 0.5 -0.251121 0.516124
0.350249 0.5 1.64598 0.09911
0.350249 0.5 -1.64598 0.0982444
1.6103 0.5 0.489335 0.37885
1.6103 0.5 -0.489335 0.376107
0.67013 0.5 1.5449 0.104882
0.67013 0.5 -1.5449 0.10277
1.67988 0.5 -0.123017 0.558741
1.67988 0.5 0.123017 0.559372
1.26895 0.5 1.10795 0.145686
1.26895 0.5 -1.10795 0.14338
1.55568 0.5 0.650871 0.281352
1.59812 0.5 0.54113 0.344924
1.59812 0.5 -0.54113 0.343252
0.90582 0.5 -1.425 0.11017
0.90582 0.5 1.425 0.111721
1.63193 0.5 0.434034 0.417397
1.63193 0.5 -0.434034 0.415794
1.58017 0.5 0.597891 0.310346
1.58017 0.5 -0.597891 0.308476
1.55568 0.5 -0.661021 0.271726
1.41888 0.5 0.918949 0.182975
1.41888 0.5 -0.918949 0.18021
1.69082 0.5 0 0.574004
1.64669 0.5 0.38399 0.451868
1.64669 0.5 -0.38399 0.450662
1.67988 0.5 -0.205029 0.540958
1.67988 0.5 0.205029 0.542046
1.69082 0.5 0.0809177 0.570014
1.69082 0.5 -0.0809177 0.56978
1.48766 0.5 0.809873 0.212932
1.48766 0.5 -0.809873 0.210022
1.66293 0.5 0.334827 0.483207
1.66293 0.5 -0.334827 0.481851
1.3344 0.5 1.04904 0.15446
1.3344 0.5 -1.04904 0.152648
1.69082 0.5 0.161835 0.557449
1.69082 0.5 -0.161835 0.556969
0.797951 0.5 1.5 0.106665
0.797951 0.5 -1.5 0.105551
1.54252 0.5 0.718111 0.24517
1.54252 0.5 -0.718111 0.243178
0 0.5 1.70215 0.0972331
0 0.5 -1.70215 0.09641
1.67988 0.5 -0.287041 0.512784
1.67988 0.5 0.287041 0.514375
1.70382 0.5 0.0398088 0.582502
1.70382 0.5 -0.0398088 0.582385
1.45835 0.5 0.885398 0.189905
1.45835 0.5 -0.885398 0.187885
1.70382 0.5 0.119426 0.574617
1.70382 0.5 -0.119426 0.574259
0.624584 0.5 1.58981 0.100462
0.624584 0.5 -1.58981 0.0994783
1.69082 0.5 0.242753 0.535272
1.69082 0.5 -0.242753 0.53453
0.151552 0.5 1.70215 0.0967406
0.151552 0.5 -1.70215 0.0959129
1.3856 0.5 -1.00296 0.160089
1.38702 0.5 1.00168 0.162039
1.6103 0.5 0.578305 0.325217
1.6103 0.5 -0.578305 0.322145
0.467897 0.5 -1.64598 0.0971306
0.467897 0.5 1.64598 0.0980366
1.52312 0.5 -0.781505 0.218728
1.52312 0.5 0.781505 0.220808
1.64669 0.5 -0.469321 0.400076
1.64669 0.5 0.469321 0.401587
1.63193 0.5 0.520841 0.364664
1.63193 0.5 -0.520841 0.362716
1.66293 0.5 0.418534 0.4381
1.66293 0.5 -0.418534 0.436363
1.70382 0.5 0.199044 0.558018
1.70382 0.5 -0.199044 0.557405
1.71727 0.5 0 0.590166
1.59812 0.5 0.631319 0.291306
1.59812 0.5 -0.631319 0.28934
1.71727 0.5 0.0782727 0.586399
1.71727 0.5 -0.0782727 0.58617
1.67988 0.5 0.369053 0.475149
1.67988 0.5 -0.369053 0.473006
0.756813 0.5 1.5449 0.104074
0.756813 0.5 -1.5449 0.101877
1.69082 0.5 0.323671 0.502108
1.69082 0.5 -0.323671 0.501074
1.17123 0.5 1.26233 0.122731
1.17123 0.5 -1.26233 0.120979
0.969689 0.5 1.425 0.110111
0.969689 0.5 -1.425 0.108296
1.24616 0.5 1.19115 0.13024
1.24616 0.5 -1.19115 0.128505
1.58017 0.5 0.689875 0.259226
1.58017 0.5 -0.689875 0.256
1.12068 0.5 1.31036 0.11755
1.12068 0.5 -1.31036 0.115758
1.71727 0.5 0.156545 0.574487
1.71727 0.5 -0.156545 0.574018
1.50211 0.5 -0.84821 0.196312
1.50211 0.5 0.84821 0.198399
1.4361 0.5 0.95751 0.169611
1.4361 0.5 -0.95751 0.167597
0.288433 0.5 1.70215 0.0958492
0.288433 0.5 -1.70215 0.0950022
1.70382 0.5 -0.278662 0.530408
1.70382 0.5 0.278662 0.531286
1.72614 0.5 0.0386929 0.594982
1.72614 0.5 -0.0386929 0.59487
1.55568 0.5 -0.755453 0.227253
1.55568 0.5 0.755453 0.229356
1.30563 0.5 -1.13465 0.135511
1.30563 0.5 1.13465 0.137319
1.72614 0.5 0.116079 0.587429
1.72614 0.5 -0.116079 0.587086
1.71727 0.5 0.234818 0.553305
1.71727 0.5 -0.234818 0.552578
0.872262 0.5 1.5 0.105772
0.872262 0.5 -1.5 0.104595
1.02577 0.5 -1.40052 0.107562
1.02577 0.5 1.40052 0.10858
1.72614 0.5 -0.193464 0.570876
1.72614 0.5 0.193464 0.571465
1.35183 0.5 1.09077 0.144316
1.35183 0.5 -1.09077 0.142226
1.66293 0.5 0.502241 0.383743
1.66293 0.5 -0.502241 0.381634
1.64669 0.5 0.554652 0.344772
1.64669 0.5 -0.554652 0.342934
1.69082 0.5 0.404589 0.457102
1.69082 0.5 -0.404589 0.455751
1.67988 0.5 0.451064 0.424514
1.67988 0.5 -0.451064 0.421851
1.70382 0.5 0.35828 0.492689
1.70382 0.5 -0.35828 0.49149
1.74117 0.5 -1.48174e-17 0.604495
1.63193 0.5 0.607648 0.307699
1.63193 0.5 -0.607648 0.305425
1.74117 0.5 0.0758834 0.600971
1.74117 0.5 -0.0794098 0.60061
1.6103 0.5 0.667275 0.270333
1.6103 0.5 -0.667275 0.26705
0.574156 0.5 1.64598 0.0969892
0.574156 0.5 -1.64598 0.0960364
0.715676 0.5 1.58981 0.0995232
0.715676 0.5 -1.58981 0.0984842
1.54252 0.5 -0.81386 0.204981
1.54252 0.5 0.81386 0.207147
1.48766 0.5 0.911108 0.179057
1.48766 0.5 -0.911108 0.176018
1.71727 0.5 0.313091 0.521192
1.71727 0.5 -0.313091 0.52017
1.74041 0.5 -0.151919 0.588361
1.72614 0.5 -0.27085 0.544758
1.72614 0.5 0.27085 0.545607
1.74117 0.5 0.151767 0.589749
0.412065 0.5 1.70215 0.0946399
0.412065 0.5 -1.70215 0.093759
1.41888 0.5 -1.02706 0.147871
1.41888 0.5 1.02706 0.153975
0 0.5 1.75316 0.0940894
0 0.5 -1.75316 0.0932679
1.75302 0.5 0.0373492 0.611972
1.75302 0.5 -0.0373492 0.611863