# pMean  POINT_DATA 24593
# x  y  z  pMean
0 0 0 0.225834
0 0.00775273 0 0.225463
0 0.0161245 0 0.224623
0 0.0251646 0 0.223681
0 0.0349265 0 0.222684
0 0.0454678 0 0.221571
0 0.0568507 0 0.22036
0 0.0691424 0 0.219105
0.075776 0.00387637 6.93889e-18 0.225834
0.075776 0.0119386 0 0.225092
0.075776 0.0206445 0 0.224155
0.075776 0.0300455 0 0.223208
0 0.0824156 0 0.217834
0.075776 0.0401972 0 0.22216
0.075776 0.0511593 0 0.220982
0 0.0967484 0 0.216573
0.075776 0.0629965 0 0.219737
0.075776 0.075779 0 0.218472
0 0.112226 0 0.215363
0.075776 0.089582 0 0.217195
0 0.128939 0 0.214201
0.075776 0.104487 0 0.215949
0.075776 0.120582 0 0.214777
0 0.146986 0 0.213019
0.151552 0 0 0.218227
0.151552 0.00775273 0 0.21809
0.151552 0.0161245 0 0.217754
0.151552 0.0251646 0 0.217333
0.151552 0.0349265 0 0.216845
0.075776 0.137962 -6.93889e-18 0.213624
0.151552 0.0454678 0 0.216268
0.151552 0.0568507 0 0.215616
0 0.166474 0 0.211764
0.151552 0.0691424 0 0.214911
0.151552 0.0824156 0 0.214162
0.075776 0.15673 0 0.212414
0.151552 0.0967484 0 0.213382
0 0.187518 0 0.21042
0.151552 0.112226 0 0.212591
0.075776 0.176996 0 0.211114
0.151552 0.128939 0 0.211789
0 0.210243 0 0.209005
0.151552 0.146986 0 0.210948
0.075776 0.198881 0 0.209725
0.219992 0.00387637 0 0.210983
0.219993 0.0119386 0 0.211155
0.219992 0.0206446 0 0.211269
0.219993 0.0300455 6.93889e-18 0.211302
0.219992 0.0401971 6.93889e-18 0.211264
0.151552 0.166474 0 0.210044
0.219992 0.0511592 0 0.211171
0.219992 0.0629965 0 0.211023
0.219992 0.075779 0 0.210808
0 0.234781 0 0.207547
0.075776 0.222512 6.93889e-18 0.208284
0.219992 0.089582 0 0.210522
0.151552 0.187518 0 0.20906
0.219992 0.104487 0 0.210163
0.219992 0.120582 0 0.209736
0.151552 0.210243 0 0.207988
0.075776 0.24803 6.93889e-18 0.206809
0.219992 0.137962 6.93889e-18 0.209245
0 0.261279 0 0.206018
0.219992 0.15673 0 0.208704
0.151552 0.234781 0 0.20683
0.219992 0.176996 0 0.208108
0.075776 0.275586 6.93889e-18 0.205226
0.288433 0 0 0.214154
0.288433 0.00775273 0 0.214213
0.288433 0.0161245 0 0.21429
0.288433 0.0251646 0 0.214303
0 0.289893 0 0.204348
0.288433 0.0349265 0 0.214274
0.288433 0.0454678 0 0.21421
0.288433 0.0568507 0 0.21411
0.219992 0.19888 0 0.207422
0.288433 0.0691424 0 0.213966
0.288433 0.0824156 0 0.213768
0.151552 0.261279 0 0.205565
0.288433 0.0967484 0 0.213501
0.288433 0.112226 0 0.213154
0.219992 0.222512 0 0.206615
0.075776 0.305342 6.93889e-18 0.203468
0.288433 0.128939 0 0.212729
0 0.320791 0 0.202506
0.288433 0.146986 0 0.212234
0.151552 0.289893 0 0.204151
0.219992 0.24803 -6.93889e-18 0.205677
0.288433 0.166474 0 0.21167
0.288433 0.187518 0 0.211021
0.075776 0.337473 -6.93889e-18 0.20154
0.350249 0.00387636 0 0.21719
0.350249 0.0119386 0 0.217255
0.350249 0.0206445 0 0.217221
0.350249 0.0300455 0 0.217164
0.350249 0.0401972 0 0.21711
0.219992 0.275586 0 0.204591
0.350249 0.0511592 6.93889e-18 0.217041
0 0.354155 0 0.200499
0.151552 0.320791 0 0.202561
0.350249 0.0629966 0 0.216949
0.288433 0.210243 0 0.210262
0.350249 0.075779 0 0.216825
0.350249 0.089582 0 0.216652
0.350249 0.104487 6.93889e-18 0.216397
0.350249 0.120582 6.93889e-18 0.216046
0.288433 0.234781 0 0.209376
0.219993 0.305342 0 0.203336
0.350249 0.137962 0 0.215612
0.075776 0.37217 0 0.199454
0.350249 0.15673 0 0.215098
0.151552 0.354155 0 0.20079
0.288433 0.261279 0 0.208346
3.73903e-17 0.390184 6.16298e-33 0.198329
0.350249 0.176996 0 0.214494
0.350249 0.198881 -6.93889e-18 0.213784
0.219992 0.337473 0 0.201891
0.288433 0.289893 0 0.207155
0.412065 9.56361e-19 0 0.222758
0.412065 0.00775273 0 0.222768
0.412065 0.0161245 1.85035e-18 0.222743
0.412065 0.0251646 1.85035e-18 0.222662
0.412065 0.0349265 1.85035e-18 0.222568
0.412065 0.0454678 1.85035e-18 0.222461
0.350249 0.222512 0 0.212954
0.412065 0.0568507 1.85035e-18 0.222334
0.075776 0.409637 0 0.197199
0.412065 0.0691424 0 0.222181
0.151552 0.390184 -4.62596e-18 0.198828
0.412065 0.0824156 0 0.221986
0.412065 0.0967484 1.85035e-18 0.221713
0.412065 0.112226 1.85035e-18 0.221344
0 0.42909 0 0.195978
0.350249 0.24803 0 0.211985
0.288433 0.320791 0 0.205781
0.412065 0.128939 0 0.22089
0.219992 0.372169 6.93889e-18 0.200244
0.412065 0.146986 1.85035e-18 0.22036
0.412065 0.166474 1.85035e-18 0.219746
0.350249 0.275586 0 0.210861
0.412065 0.187518 1.85035e-18 0.219033
0.151552 0.42909 0 0.196649
0.075776 0.450095 0 0.194751
0.288433 0.354155 0 0.204205
0.412065 0.210243 0 0.218207
0.350249 0.305342 0 0.209562
0.219992 0.409637 -6.93889e-18 0.198365
0.467897 0.00387636 6.93889e-18 0.228113
0.467897 0.0119386 -6.93889e-18 0.228093
0.467897 0.0206445 6.93889e-18 0.227985
0.467897 0.0300455 0 0.227864
0.467897 0.0401972 0 0.227725
0.467897 0.0511592 0 0.227561
0 0.471101 0 0.193419
0.467897 0.0568507 0 0.227807
0.467897 0.0629965 0 0.227379
0.467897 0.075779 0 0.227172
0.412065 0.234781 0 0.217252
0.467897 0.089582 0 0.226898
0.467897 0.104487 0 0.226512
0.467897 0.120582 0 0.226034
0.288433 0.390184 7.40152e-18 0.202405
0.350249 0.337473 0 0.208068
0.467897 0.137962 0 0.225488
0.412065 0.261279 0 0.216149
0.467897 0.15673 0 0.224866
0.151552 0.471101 -4.62596e-18 0.194221
0.075776 0.493784 0 0.192079
0.467897 0.176996 0 0.224152
0.219992 0.450095 0 0.196213
0.412065 0.289893 0 0.214878
0.467897 0.19888 0 0.223334
0.350249 0.372169 -6.93889e-18 0.206354
3.73903e-17 0.516467 -6.16298e-33 0.190617
0.288433 0.42909 0 0.200347
0.467897 0.222512 0 0.222395
0.412065 0.320791 1.85035e-18 0.213419
0.523729 0 0 0.233968
0.523729 0.00775273 1.85035e-18 0.233947
0.523729 0.0161245 0 0.233871
0.523729 0.0251646 0 0.233755
0.523729 0.0349265 0 0.233619
0.523729 0.0454678 0 0.23346
0.523729 0.0511593 0 0.23337
0.523729 0.0568507 0 0.233281
0.523729 0.0691424 0 0.233075
0.467897 0.24803 0 0.221317
0.523729 0.0824156 0 0.232815
0.523729 0.0967484 0 0.232458
0.523729 0.112226 0 0.231999
0.151552 0.516467 0 0.191511
0.350249 0.409637 0 0.204394
0.523729 0.128939 0 0.231461
0.219992 0.493784 -6.93889e-18 0.193757
0.467897 0.275586 6.93889e-18 0.22008
0.412065 0.354155 0 0.211748
0.523729 0.146986 0 0.230849
0.075776 0.540961 -6.93889e-18 0.189144
0.523729 0.166474 0 0.230149
0.288433 0.471101 0 0.197997
0.523729 0.187518 0 0.229348
0.467897 0.305342 0 0.218662
0.523729 0.210243 0 0.22843
0 0.565455 0 0.187531
0.467897 0.320791 0 0.218315
0.412065 0.390184 1.85035e-18 0.209837
0.350249 0.450095 0 0.202156
0.523729 0.234781 0 0.227378
0.574157 0.00387636 0 0.239627
0.574156 0.0119386 6.93889e-18 0.239564
0.574156 0.0206445 0 0.239455
0.574156 0.0300455 0 0.239326
0.574156 0.0401971 -6.93889e-18 0.239172
0.574156 0.0511592 0 0.238996
0.467897 0.337473 0 0.217041
0.574156 0.0629965 0 0.238799
0.574157 0.075779 -6.93889e-18 0.238564
0.574156 0.0824156 0 0.238873
0.574156 0.089582 0 0.23824
0.574156 0.104487 0 0.2378
0.219993 0.540961 0 0.190971
0.523729 0.261279 0 0.226172
0.151552 0.565455 0 0.188486
0.574156 0.120582 0 0.237272
0.574156 0.137962 0 0.236674
0.288433 0.516467 -6.16298e-33 0.195325
0.412065 0.42909 1.85035e-18 0.207658
0.574156 0.15673 6.93889e-18 0.235993
0.075776 0.591904 -6.93889e-18 0.185905
0.467897 0.372169 -6.93889e-18 0.21519
0.523729 0.289893 0 0.224791
0.574156 0.176996 0 0.235214
0.350249 0.493784 0 0.199608
0.574157 0.198881 0 0.234322
0.523729 0.320791 0 0.223212
0.574156 0.222512 0 0.233302
3.73903e-17 0.618354 -6.16298e-33 0.18412
0.467897 0.409637 6.93889e-18 0.213079
0.624584 0 0 0.246095
0.624584 0.00775273 0 0.246069
0.624584 0.0161245 0 0.246002
0.624584 0.0251646 0 0.245904
0.574156 0.24803 6.93889e-18 0.232134
0.624584 0.0349265 0 0.245773
0.412065 0.471101 0 0.205178
0.624584 0.0454678 0 0.245615
0.624584 0.0568507 0 0.245436
0.624584 0.0691424 0 0.245221
0.624584 0.075779 0 0.245076
0.624584 0.0824156 1.85035e-18 0.244931
0.219992 0.591905 0 0.187823
0.624584 0.0967484 0 0.24453
0.523729 0.354155 0 0.221408
0.412065 0.482442 -6.16298e-33 0.204473
0.624584 0.112226 1.85035e-18 0.244024
0.288433 0.565455 0 0.192297
0.151552 0.618354 -6.16298e-33 0.185108
0.574156 0.275586 0 0.230797
0.624584 0.128939 0 0.243435
0.624584 0.146986 0 0.242763
0.350249 0.540961 6.93889e-18 0.196714
0.624584 0.166474 0 0.241993
0.467897 0.450095 0 0.210678
0.574156 0.305342 -6.93889e-18 0.229269
0.075776 0.646915 0 0.182319
0.624584 0.187518 0 0.241111
0.523729 0.390184 -4.62596e-18 0.219352
0.624584 0.210243 0 0.240101
0.412065 0.516467 1.2326e-32 0.202359
0.574156 0.337473 -6.93889e-18 0.227523
0.624584 0.234781 0 0.238946
0.67013 0.00387637 0 0.252374
0.67013 0.0119386 -6.93889e-18 0.252334
0.67013 0.0206445 -6.93889e-18 0.252278
0.67013 0.0300455 0 0.252177
0.67013 0.0401972 0 0.252037
0.67013 0.0511593 6.93889e-18 0.251876
0.67013 0.0629966 0 0.251691
0.67013 0.075779 -6.93889e-18 0.25145
0.67013 0.0824156 0 0.251756
0 0.675477 0 0.18034
0.67013 0.089582 0 0.251093
0.624584 0.261279 0 0.237628
0.523729 0.42909 0 0.21701
0.67013 0.104487 -6.93889e-18 0.250611
0.467897 0.493784 6.93889e-18 0.207949
0.67013 0.120582 0 0.250039
0.288433 0.618354 0 0.188877
0.219993 0.646915 -6.93889e-18 0.184279
0.67013 0.137962 0 0.249384
0.574156 0.372169 6.93889e-18 0.225532
0.350249 0.591905 0 0.193434
0.67013 0.15673 6.93889e-18 0.248631
0.624584 0.289893 0 0.236122
0.151552 0.675477 0 0.181337
0.67013 0.176996 0 0.247766
0.685312 0.112226 -7.70372e-34 0.253032
0.67013 0.19888 -6.93889e-18 0.246775
0.412065 0.565455 0 0.199162
0.624584 0.320791 0 0.234407
0.523729 0.471101 0 0.214348
0.574156 0.409637 6.93889e-18 0.223265
0.67013 0.222512 -6.93889e-18 0.245643
0.075776 0.706318 0 0.17834
0.67013 0.24803 0 0.24435
0.467897 0.540961 0 0.204852
0.715676 4.78181e-19 0 0.259765
0.715676 0.00775273 0 0.25976
0.715676 0.0161245 0 0.259737
0.715676 0.0251646 0 0.259663
0.715676 0.0349265 0 0.259527
0.715676 0.0454678 0 0.259356
0.715676 0.0568507 0 0.259163
0.624584 0.354155 0 0.232453
0.715676 0.0691424 0 0.258923
0.715676 0.0824156 0 0.258582
0.715676 0.0967484 0 0.258113
0.715676 0.112226 0 0.257536
0.67013 0.275586 0 0.242877
0.715676 0.128939 0 0.256868
0.574156 0.450095 0 0.220684
0.715676 0.146986 0 0.256101
0.288433 0.675477 0 0.185022
0.715676 0.166474 0 0.255224
0.523729 0.516467 -6.16298e-33 0.211323
0.350249 0.646916 0 0.189725
0.67013 0.305342 0 0.241199
0.624584 0.390184 -4.62596e-18 0.23023
0 0.73716 0 0.176143
0.219992 0.706318 0 0.180299
0.715676 0.187518 0 0.254222
0.412065 0.618354 1.85035e-18 0.195542
0.743101 0.0251646 -7.70372e-34 0.264875
0.715676 0.210243 0 0.253081
0.67013 0.337473 6.93889e-18 0.239292
0.151552 0.73716 -6.16298e-33 0.177128
0.715676 0.234781 0 0.251784
0.467897 0.591904 6.93889e-18 0.201342
0.756814 0.00387637 6.93889e-18 0.26697
0.756814 0.0119386 0 0.266989
0.756814 0.0206446 -6.93889e-18 0.266974
0.574156 0.493784 0 0.217751
0.756814 0.0300455 0 0.266852
0.624584 0.42909 0 0.227703
0.756813 0.0401972 6.93889e-18 0.266669
0.756814 0.0511593 -6.93889e-18 0.266471
0.756814 0.0629965 6.93889e-18 0.266246
0.756814 0.075779 -6.93889e-18 0.265935
0.715676 0.261279 0 0.250312
0.756814 0.089582 -6.93889e-18 0.265483
0.756814 0.104487 -6.93889e-18 0.264904
0.449286 0.618354 3.08149e-33 0.198362
0.756814 0.120582 -6.93889e-18 0.264231
0.67013 0.37217 6.93889e-18 0.237125
0.756813 0.137962 0 0.26346
0.523729 0.565455 0 0.207891
0.715676 0.289893 0 0.248644
0.770526 0.0568507 7.70372e-34 0.269397
0.756814 0.15673 0 0.262578
0.075776 0.770464 0 0.173919
0.756814 0.176996 -6.93889e-18 0.261572
0.624584 0.471101 0 0.224832
0.756814 0.198881 -6.93889e-18 0.260429
0.715676 0.320791 0 0.246754
0.67013 0.409637 0 0.234664
0.350249 0.706318 0 0.185543
0.756813 0.222512 0 0.259135
0.574156 0.540961 0 0.214418
0.412065 0.675477 1.85035e-18 0.191452
0.288433 0.73716 0 0.180689
0.756814 0.24803 -6.93889e-18 0.257671
0.797951 9.56361e-19 0 0.275377
0.797951 0.00775273 0 0.275395
0.797951 0.0161245 0 0.275399
0.797951 0.0206445 0 0.275348
0.797951 0.0251646 0 0.275297
0.467897 0.646915 -6.93889e-18 0.197368
0.715676 0.354155 0 0.244615
0.797951 0.0300455 0 0.27519
0.797951 0.0349265 0 0.275083
0.797951 0.0454678 0 0.274815
0.797951 0.0530564 7.70372e-34 0.274615
0.797951 0.0568507 0 0.274515
0.797951 0.0609479 7.70372e-34 0.274392
0.797951 0.0691424 0 0.274147
0.219992 0.770464 -6.93889e-18 0.175839
0.797951 0.0824156 0 0.273661
0.715676 0.363162 1.54074e-33 0.24401
0 0.803768 0 0.171481
0.797951 0.0967484 0 0.273042
0.756814 0.275586 0 0.256018
0.797951 0.112226 0 0.272313
0.67013 0.450095 -6.93889e-18 0.231871
0.797951 0.128939 0 0.271485
0.523729 0.618354 -6.16298e-33 0.204001
0.624584 0.516467 -6.16298e-33 0.22157
0.797951 0.146986 0 0.270551
0.715676 0.390184 0 0.242194
0.797951 0.166474 0 0.269498
0.756814 0.305342 6.93889e-18 0.254153
0.151552 0.803768 0 0.172436
0.797951 0.187518 0 0.268315
0.574156 0.591904 0 0.210636
0.822721 0.0568507 7.70372e-34 0.279941
0.797951 0.210243 0 0.266988
0.756814 0.337473 0 0.25205
0.715676 0.419364 1.54074e-33 0.240138
0.797951 0.234781 0 0.265502
0.67013 0.493784 -6.93889e-18 0.228699
0.822721 0.128939 -7.70372e-34 0.276545
0.715676 0.42909 0 0.239453
0.835106 0.00387637 -6.93889e-18 0.283602
0.835106 0.0119386 6.93889e-18 0.283656
0.835106 0.0206445 6.93889e-18 0.283616
0.835106 0.0300455 -6.93889e-18 0.283388
0.835106 0.0401972 0 0.283065
0.835106 0.0511593 0 0.282701
0.835106 0.0629965 0 0.282291
0.835106 0.075779 -6.93889e-18 0.281772
0.797951 0.261279 0 0.263838
0.835106 0.089582 0 0.281112
0.835106 0.104487 0 0.280332
0.624584 0.565455 0 0.217867
0.075776 0.839731 0 0.169009
0.756813 0.372169 -6.93889e-18 0.249678
0.835106 0.120582 0 0.279453
0.412065 0.73716 1.85035e-18 0.186841
0.797951 0.280355 7.70372e-34 0.262596
0.350249 0.770464 0 0.180839
0.835106 0.137962 0 0.27847
0.467897 0.706318 0 0.192879
0.847492 0.0251646 -7.70372e-34 0.286486
0.797951 0.289893 0 0.261975
0.835106 0.15673 0 0.277373
0.797951 0.300192 7.70372e-34 0.261279
0.835106 0.176996 -6.93889e-18 0.276152
0.288433 0.803768 0 0.175832
0.523729 0.675477 0 0.199597
0.715676 0.471101 0 0.236347
0.835106 0.19888 0 0.274794
0.797951 0.320791 0 0.259887
0.756814 0.409637 0 0.247
0.67013 0.540961 6.93889e-18 0.225097
0.835106 0.222512 0 0.273287
0.574156 0.646915 0 0.206347
0.219992 0.839732 0 0.170856
0.835106 0.24803 6.93889e-18 0.271613
0.872262 9.56361e-19 0 0.292203
0.872262 0.00775273 0 0.292235
0.872262 0.0161245 0 0.292243
0.872262 0.0251646 0 0.292081
0.872262 0.0349265 0 0.29174
0.797951 0.354155 0 0.257546
0.467897 0.73716 0 0.190731
0.872262 0.0454678 0 0.291299
0.872262 0.0568507 0 0.290794
0.872262 0.0691424 0 0.290206
0 0.875695 0 0.166306
0.872262 0.0824156 0 0.289495
0.797951 0.363162 -1.54074e-33 0.256888
0.872262 0.0967484 0 0.288657
0.624584 0.618354 -6.16298e-33 0.213664
0.835106 0.275586 0 0.269752
0.872262 0.112226 0 0.287712
0.756814 0.450096 0 0.243972
0.872262 0.120583 0 0.287188
0.872262 0.128939 0 0.286664
0.715676 0.516467 6.16298e-33 0.232823
0.872262 0.137962 0 0.286086
0.835106 0.289893 0 0.268825
0.872262 0.146986 0 0.285508
0.872262 0.166474 0 0.284235
0.797951 0.390184 -1.2326e-32 0.254914
0.151552 0.875695 0 0.167214
0.835106 0.305342 0 0.267682
0.872262 0.187518 0 0.282834
0.67013 0.591905 0 0.221007
0.872262 0.210243 0 0.281295
0.835106 0.337473 6.93889e-18 0.265375
0.467897 0.770464 0 0.187817
0.797951 0.419364 -1.54074e-33 0.252691
0.412065 0.803768 1.85035e-18 0.181657
0.872262 0.234781 0 0.279601
0.756814 0.493784 0 0.240543
0.523729 0.73716 0 0.194621
0.90582 0.00387636 0 0.300646
0.90582 0.0119386 0 0.300721
0.797951 0.42909 0 0.25195
0.90582 0.0206446 0 0.300665
0.90582 0.0300455 6.93889e-18 0.300341
0.90582 0.0401971 6.93889e-18 0.299855
0.905821 0.0511593 0 0.299269
0.90582 0.0629966 -6.93889e-18 0.298613
0.905821 0.075779 0 0.297849
0.350249 0.839732 0 0.175565
0.90582 0.089582 0 0.296953
0.574156 0.706318 0 0.201489
0.872262 0.261279 0 0.277735
0.90582 0.104487 -6.93889e-18 0.295944
0.715676 0.565455 0 0.228821
0.90582 0.120582 6.93889e-18 0.294833
0.835106 0.372169 0 0.262796
0.90582 0.137962 -6.93889e-18 0.293619
0.075776 0.914529 6.93889e-18 0.163562
0.872262 0.289893 0 0.275676
0.90582 0.15673 6.93889e-18 0.292294
0.624584 0.675477 0 0.208896
0.288433 0.875695 0 0.170407
0.90582 0.176996 -6.93889e-18 0.290849
0.797951 0.471101 0 0.248602
0.90582 0.198881 0 0.289276
0.872262 0.320791 0 0.273395
0.835106 0.409637 6.93889e-18 0.259904
0.756813 0.540961 -6.93889e-18 0.236654
0.67013 0.646915 0 0.216361
0.931922 0.00775273 -1.92593e-33 0.307543
0.931922 0.0161245 -1.92593e-33 0.307582
0.905821 0.222512 6.93889e-18 0.28756
0.931922 0.112226 -1.92593e-33 0.301373
0.90582 0.24803 -6.93889e-18 0.285686
0.939379 0 0 0.309403
0.939379 0.00775273 2.31296e-18 0.309457
0.939379 0.0161245 2.31296e-18 0.3095
0.939379 0.0251646 0 0.309308
0.939379 0.0349265 0 0.30882
0.939379 0.0454678 0 0.308132
0.219992 0.914529 0 0.165305
0.939379 0.0568507 0 0.307327
0.872262 0.354155 0 0.270862
0.939379 0.0691424 0 0.306427
0.939379 0.0824156 0 0.305416
0.939379 0.0967484 0 0.304296
0.715676 0.618354 0 0.224275
0.939379 0.112226 2.31296e-18 0.303081
0.90582 0.275586 0 0.283635
0.939379 0.128939 0 0.301775
0.872262 0.372169 0 0.269449
0.835106 0.450095 6.93889e-18 0.256649
0.797951 0.516467 0 0.244811
0.939379 0.146986 0 0.300374
0 0.953363 0 0.160575
0.939379 0.166474 0 0.298869
0.872262 0.390184 0 0.268036
0.905821 0.305342 0 0.281381
0.939379 0.187518 0 0.297252
0.523729 0.803768 0 0.189013
0.756814 0.591905 6.93889e-18 0.232235
0.574156 0.770464 6.93889e-18 0.196
0.467897 0.839732 0 0.182128
0.925956 0.261279 7.70372e-34 0.288815
0.939379 0.210243 0 0.29551
0.872262 0.409637 0 0.266452
0.151552 0.953363 0 0.161422
0.624584 0.73716 0 0.203496
0.90582 0.337473 -6.93889e-18 0.278894
0.412065 0.875695 1.85035e-18 0.175851
0.939379 0.234781 0 0.293627
0.715676 0.654056 -3.08149e-33 0.221045
0.969689 0.00387637 -6.93889e-18 0.318024
0.969689 0.0119386 6.93889e-18 0.318166
0.96969 0.0206445 6.93889e-18 0.318176
0.969689 0.0300456 0 0.317777
0.835106 0.493784 6.93889e-18 0.252972
0.969689 0.0401972 0 0.317038
0.969689 0.0511592 6.93889e-18 0.316104
0.969689 0.0629965 0 0.315065
0.872262 0.42909 0 0.264868
0.969689 0.075779 0 0.313927
0.67013 0.706319 0 0.211088
0.96969 0.089582 6.93889e-18 0.312687
0.939379 0.261279 2.31296e-18 0.291585
0.969689 0.104487 0 0.311359
0.969689 0.120582 0 0.309952
0.797951 0.565455 0 0.240504
0.90582 0.372169 -6.93889e-18 0.276137
0.350249 0.914529 0 0.169676
0.96969 0.137962 0 0.308465
0.969689 0.15673 0 0.30689
0.939379 0.289893 0 0.28936
0.715676 0.675477 0 0.219107
0.969689 0.176996 -6.93889e-18 0.30522
0.969689 0.198881 0 0.303443
0.872262 0.471101 0 0.261299
0.939379 0.320791 0 0.286922
0.90582 0.409637 0 0.273063
0.96969 0.222512 0 0.301543
0.835106 0.540961 -6.93889e-18 0.248803
0.756813 0.646915 0 0.227207
0.288433 0.953363 0 0.164372
0.075776 0.995296 0 0.157537
1 0 0 0.326302
1 0.00775273 0 0.326365
1 0.0161245 0 0.326406
1 0.0251646 0 0.326175
1 0.0349265 0 0.325577
0.969689 0.24803 0 0.299504
1 0.0454678 0 0.324722
1 0.0568507 0 0.323722
1 0.0691424 0 0.322619
1 0.0824156 0 0.321416
0.939379 0.354155 0 0.284236
1 0.0967484 0 0.320114
1 0.112226 0 0.318721
0.969689 0.275586 -6.93889e-18 0.297302
1 0.128939 0 0.317243
0.797951 0.618354 0 0.235604
1 0.146986 0 0.315678
0.90582 0.450095 0 0.269613
0.872262 0.516467 6.16298e-33 0.257258
1 0.166474 0 0.314019
0.715676 0.721739 1.54074e-33 0.214705
0.969689 0.305342 0 0.294911
0.939379 0.390184 -4.62596e-18 0.281255
0.574156 0.839731 0 0.189813
1 0.187518 0 0.312258
0.624584 0.803768 0 0.197394
0.219993 0.995296 0 0.159149
0.523729 0.875695 0 0.182715
0.67013 0.770464 -6.93889e-18 0.205112
1 0.210243 0 0.310384
0.835106 0.591905 0 0.244059
0.969689 0.337473 6.93889e-18 0.292294
1 0.234781 0 0.308382
0.797951 0.646915 0 0.232811
0.467897 0.914529 0 0.17576
0.715676 0.73716 0 0.213238
0.90582 0.493784 -6.93889e-18 0.265719
0.939379 0.42909 0 0.277924
1 0.261279 0 0.306231
0.756814 0.706318 0 0.221487
0 1.03723 0 0.154251
1.03817 0.00380239 6.93889e-18 0.33475
1.03817 0.0117108 0 0.334836
1.03817 0.0202506 6.93889e-18 0.334764
1.03817 0.0294722 0 0.334298
0.412065 0.953363 1.85035e-18 0.169377
0.969689 0.372169 -6.93889e-18 0.289409
1.03817 0.0394301 0 0.333509
1.03817 0.050183 0 0.33255
0.872262 0.565455 0 0.252662
1.03817 0.0617944 0 0.331481
1.03817 0.0743329 0 0.330315
1 0.289893 0 0.303908
1.03817 0.0878725 0 0.329046
1.03817 0.102493 6.93889e-18 0.327675
1.03817 0.118281 0 0.32621
0.797951 0.675477 0 0.230019
1.03817 0.135329 0 0.324657
0.151552 1.03723 0 0.155022
1.03817 0.153739 0 0.323011
1 0.320791 0 0.30138
0.939379 0.471101 0 0.274174
1.03817 0.173618 0 0.321267
0.969689 0.409637 6.93889e-18 0.286203
0.90582 0.540961 -6.93889e-18 0.261297
0.350249 0.995296 6.93889e-18 0.163132
1.03817 0.195085 -6.93889e-18 0.319418
0.835106 0.646915 -6.93889e-18 0.238647
1 0.354155 0 0.298606
1.03817 0.218266 0 0.317451
1.03817 0.243297 -6.93889e-18 0.315349
0.969689 0.450095 0 0.28261
0.872262 0.618354 0 0.247417
0.939379 0.516467 0 0.269923
0.797951 0.716599 -7.70372e-34 0.225774
1.03817 0.270327 0 0.313093
1 0.390184 0 0.295537
0.67013 0.839732 6.93889e-18 0.198357
0.624584 0.875695 0 0.190521
0.715676 0.803768 0 0.206584
0.288433 1.03723 0 0.157692
1.07753 0 0 0.343899
1.07753 0.00745221 0 0.343959
1.07753 0.0154994 0 0.344022
1.07753 0.0241891 0 0.343896
1.07753 0.0335726 0 0.343437
1.07753 0.0437053 0 0.342685
1.07753 0.0546469 0 0.341744
1.07753 0.0664622 0 0.340678
0.574156 0.914529 0 0.18287
0.756814 0.770464 0 0.214982
1.07753 0.0792208 0 0.339501
1.03817 0.299515 0 0.310655
1.07753 0.0929981 0 0.338211
0.90582 0.591904 0 0.25625
1.07753 0.107875 0 0.336819
1.07753 0.12394 0 0.335334
0.075776 1.08251 0 0.150901
0.872262 0.646915 0 0.244415
0.797951 0.73716 0 0.223652
1.07753 0.141288 0 0.333758
0.523729 0.953363 0 0.175676
1 0.42909 0 0.292107
0.969689 0.493784 0 0.278547
1.07753 0.160021 0 0.332089
1.03817 0.331033 -6.93889e-18 0.307997
0.715676 0.82175 1.54074e-33 0.204705
1.07753 0.180249 0 0.330322
0.835106 0.706319 6.93889e-18 0.232466
1.07753 0.202093 0 0.328449
0.939379 0.565455 0 0.265072
0.467897 0.995296 6.93889e-18 0.168668
1.03817 0.365068 -6.93889e-18 0.305073
1.07753 0.22568 0 0.326457
0.872262 0.675477 0 0.241414
0.219992 1.08252 0 0.152358
1 0.471101 0 0.288236
1.07753 0.251151 0 0.32433
0.969689 0.540961 -6.93889e-18 0.273918
1.11289 0.00365757 0 0.352502
1.11289 0.0112647 -6.93889e-18 0.352608
1.07753 0.278655 0 0.322045
1.11289 0.0194793 0 0.352734
0.905821 0.646915 -6.93889e-18 0.250468
1.03817 0.40182 0 0.301822
1.11289 0.0283496 -6.93889e-18 0.352622
1.11289 0.0379283 0 0.352135
1.11289 0.0482716 0 0.351346
1.11289 0.0594408 0 0.350388
1.11289 0.0715017 0 0.349311
0.412065 1.03723 1.85035e-18 0.1622
1.11289 0.0845256 0 0.348108
1.11289 0.0985894 0 0.34679
1.11289 0.113776 6.93889e-18 0.345372
1.11289 0.130175 0 0.343863
1.07753 0.308356 0 0.319572
0.872262 0.706319 0 0.237976
1.11289 0.147884 -6.93889e-18 0.342264
0.939379 0.618354 -6.16298e-33 0.259507
1.11289 0.167006 -6.93889e-18 0.340573
1 0.516467 0 0.283827
0 1.1278 0 0.147309
1.03817 0.441507 0 0.29817
1.11289 0.187655 0 0.338785
1.07753 0.340427 0 0.316869
0.756814 0.839732 0 0.207602
0.715676 0.875695 0 0.199067
1.11289 0.209953 -6.93889e-18 0.336891
0.797951 0.803768 0 0.216407
0.67013 0.914529 0 0.190754
0.969689 0.591904 0 0.268608
0.835106 0.770464 0 0.225407
1.11289 0.23403 0 0.334879
0.350249 1.08251 0 0.155906
0.151552 1.1278 0 0.147991
0.624584 0.953363 0 0.18282
1.07753 0.375059 0 0.313883
0.872262 0.73716 0 0.234539
1.11289 0.260031 0 0.332732
1.03817 0.484361 6.93889e-18 0.29402
0.90582 0.706319 0 0.243828
1 0.565455 0 0.278764
0.574156 0.995296 0 0.17512
1.14932 0 0 0.360781
1.14932 0.00717391 0 0.360843
1.14932 0.0149206 0 0.360985
1.14932 0.0232858 0 0.361132
1.11289 0.288107 0 0.330424
1.14932 0.0323188 0 0.361082
1.14932 0.0420731 0 0.360705
1.14932 0.0526061 0 0.360043
1.14932 0.0639802 0 0.359183
1.14932 0.0762623 0 0.358177
1.14932 0.0895251 0 0.357043
1.07753 0.412457 0 0.310544
1.14932 0.103847 0 0.355791
0.939379 0.672117 2.6963e-33 0.25348
1.14932 0.119312 0 0.354432
0.939379 0.675477 2.31296e-18 0.253103
1.14932 0.136012 0 0.352976
1.11289 0.318425 6.93889e-18 0.327924
0.797951 0.839732 0 0.212297
1.14932 0.154045 0 0.351427
0.523729 1.03723 0 0.167859
1.14932 0.173518 0 0.349782
0.288433 1.1278 0 0.150348
1.14932 0.194546 0 0.348039
0.96969 0.646915 0 0.262485
1.03817 0.530638 0 0.289257
1.11289 0.351163 0 0.325182
1.07753 0.45284 0 0.30676
1.14932 0.217252 0 0.346191
1.14932 0.241772 0 0.344225
1 0.618354 0 0.27291
0.715676 0.933946 1.54074e-33 0.19273
1.11289 0.386516 0 0.322138
0.075776 1.1767 0 0.143637
0.467897 1.08252 6.93889e-18 0.160826
1.14932 0.268249 0 0.342125
1.18208 0.00352346 0 0.368578
1.18208 0.0108517 0 0.36868
1.18208 0.018765 -6.93889e-18 0.368913
1.18208 0.0273101 6.93889e-18 0.369235
1.18208 0.0365375 -6.93889e-18 0.369283
1.18208 0.0465016 6.93889e-18 0.368969
1.18208 0.0572612 0 0.368356
1.18208 0.0688799 0 0.367546
0.835106 0.839732 6.93889e-18 0.217363
0.797951 0.875695 0 0.208188
1.18208 0.0814263 0 0.366595
1.18208 0.0949744 0 0.365514
0.872262 0.803768 0 0.226675
1.07753 0.496447 0 0.302421
1.14932 0.29684 0 0.339863
0.756814 0.914529 6.93889e-18 0.199267
1.18208 0.109604 0 0.364308
1.18208 0.125402 -6.93889e-18 0.362994
0.905821 0.770464 0 0.236204
1.03817 0.580609 6.93889e-18 0.283745
1.18208 0.142461 -6.93889e-18 0.361581
1.11289 0.42469 0 0.318708
0.715676 0.953363 0 0.190618
1.18208 0.160882 0 0.360073
0.939379 0.73716 0 0.245724
1.14932 0.327714 0 0.337403
1.18208 0.180774 -6.93889e-18 0.358469
0.219992 1.1767 -6.93889e-18 0.144915
1.18208 0.202254 6.93889e-18 0.35677
0.969689 0.706318 0 0.255407
0.67013 0.995296 0 0.182247
0.412065 1.1278 1.85035e-18 0.154304
1.18208 0.225449 0 0.354967
1.14932 0.361053 0 0.334687
1.11289 0.465913 -6.93889e-18 0.314787
1 0.675477 0 0.266117
1.07753 0.543536 0 0.297392
1.18208 0.250496 0 0.353051
0.624584 1.03723 0 0.174251
0.872262 0.839732 0 0.222194
0.797951 0.914529 0 0.203553
1.18208 0.277543 0 0.351002
1.21581 0 0 0.377047
1.21581 0.00691618 0 0.377091
1.21581 0.0143846 0 0.377251
1.14932 0.397053 0 0.331641
1.21581 0.0224492 0 0.377593
1.21581 0.0311577 0 0.377931
1.21581 0.0405616 0 0.377996
1.03817 0.63457 6.93889e-18 0.277331
1.21581 0.0507162 0 0.377718
1.21581 0.0616816 0 0.377157
1.21581 0.0735225 0 0.376389
1.21581 0.0863088 0 0.375446
1.21581 0.100116 0 0.374351
1.18208 0.306749 0 0.348793
1.21581 0.115025 0 0.373139
1.21581 0.131125 0 0.371832
1.11289 0.510427 6.93889e-18 0.310244
1.21581 0.148511 0 0.370445
0.574156 1.08251 0 0.166536
0 1.2256 0 0.139739
1.21581 0.167284 0 0.368974
0.350249 1.1767 0 0.147987
1.14932 0.435928 0 0.328169
1.18208 0.338287 0 0.346378
1.21581 0.187556 0 0.367419
1.07753 0.594384 0 0.291515
1.21581 0.209447 0 0.365786
0.151552 1.2256 -6.16298e-33 0.140323
0.905821 0.839731 -6.93889e-18 0.227468
0.872262 0.875695 0 0.217714
0.939379 0.803768 0 0.237232
1.21581 0.233086 0 0.36407
0.835106 0.914529 0 0.208238
0.969689 0.770464 0 0.247222
1.18208 0.372343 -6.93889e-18 0.343691
1 0.73716 0 0.258221
1.21581 0.258612 0 0.362251
0.797951 0.953363 0 0.198919
0.523729 1.1278 0 0.15925
1.14932 0.477907 0 0.324143
1.11289 0.558495 0 0.304922
1.24616 0.00339926 0 0.385034
1.24616 0.0104692 -6.93889e-18 0.385073
1.24616 0.0181036 0 0.38534
1.24616 0.0263475 0 0.385878
1.24616 0.0352496 0 0.386306
1.24616 0.0448625 0 0.386378
1.24616 0.0552429 -6.93889e-18 0.386099
1.24616 0.066452 0 0.38554
1.03817 0.69284 0 0.269843
1.24616 0.0785561 0 0.384774
1.21581 0.286176 0 0.360307
1.24616 0.0916266 -6.93889e-18 0.383791
0.756813 0.995296 0 0.189914
1.24616 0.105741 -6.93889e-18 0.382675
1.18208 0.409118 0 0.340642
1.24616 0.120981 0 0.381456
1.24616 0.137439 6.93889e-18 0.380169
1.24616 0.155211 0 0.378818
1.21581 0.31594 0 0.358203
1.07753 0.649293 0 0.284615
1.24616 0.174402 -6.93889e-18 0.377384
0.288433 1.2256 0 0.142339
0.715676 1.03723 0 0.181196
1.24616 0.195125 0 0.375889
1.14932 0.523237 0 0.319408
0.872262 0.914529 0 0.21264
1.18208 0.448829 0 0.337121
1.21581 0.348082 0 0.355884
1.24616 0.217502 6.93889e-18 0.374342
0.467897 1.1767 -6.93889e-18 0.15223
1.11289 0.610401 6.93889e-18 0.298644
1.24616 0.241666 0 0.372725
0.67013 1.08251 6.93889e-18 0.172808
1.24616 0.26776 0 0.371009
1.21581 0.382789 0 0.353261
1.27738 0 0 0.394168
1.27738 0.00667751 0 0.394179
1.27738 0.0138882 0 0.394296
1.27738 0.0216745 0 0.394668
1.27738 0.0300825 0 0.39518
1.27738 0.0391618 0 0.395544
1.27738 0.0489661 0 0.395595
1.27738 0.0595531 0 0.39531
1.27738 0.0709853 0 0.394712
1.27738 0.0833304 0 0.39384
1.18208 0.491711 -6.93889e-18 0.33297
0.075776 1.2784 0 0.135746
1.24616 0.295936 0 0.369178
1.27738 0.096661 0 0.392763
1.27738 0.111056 0 0.391547
0.96969 0.839732 0 0.237786
1 0.803768 0 0.249062
1.27738 0.1266 0 0.390235
1.14932 0.572187 0 0.313786
1.03817 0.755761 6.93889e-18 0.261104
0.939379 0.875695 2.31296e-18 0.227502
1.27738 0.143386 0 0.388868
1.21581 0.420267 0 0.350239
0.905821 0.914529 -6.93889e-18 0.217512
1.27738 0.161511 0 0.387474
1.24616 0.326363 6.93889e-18 0.367192
0.624584 1.1278 0 0.164805
1.07753 0.708585 0 0.276502
1.27738 0.181084 0 0.386068
0.872262 0.953363 0 0.207566
0.412065 1.2256 0 0.145698
1.27738 0.202219 0 0.384654
1.24616 0.359219 0 0.364972
1.27738 0.225042 0 0.383224
1.11289 0.666451 -6.93889e-18 0.291212
0.219992 1.2784 -6.93889e-18 0.13683
1.18208 0.538016 0 0.328015
0.835106 0.995296 6.93889e-18 0.197965
1.21581 0.460738 0 0.346662
1.27738 0.249687 0 0.381744
1.3055 0.00328425 0 0.402796
1.3055 0.010115 -3.46945e-18 0.402766
1.3055 0.0174911 0 0.402961
1.3055 0.025456 -3.46945e-18 0.403455
1.3055 0.0340569 -3.46945e-18 0.40404
1.3055 0.0433446 0 0.404398
1.3055 0.0533738 0 0.404433
1.27738 0.2763 0 0.380182
1.3055 0.0642037 3.46945e-18 0.404081
1.24616 0.394697 0 0.362402
1.3055 0.0758982 0 0.403357
1.14932 0.625045 0 0.307075
1.3055 0.0885265 0 0.402343
0.797951 1.03723 0 0.188555
0.574156 1.1767 6.93889e-18 0.157122
1.3055 0.102163 0 0.401148
1.3055 0.116888 -3.46945e-18 0.399822
1.3055 0.132789 0 0.398409
1.27738 0.305038 0 0.378518