# pMean  POINT_DATA 18630
# x  y  z  pMean
0 0.1 0 0.216319
0 0.1 -0.0315126 0.216297
0 0.1 0.0315126 0.216325
0.0318387 0.1 -0.0315126 0.216297
0.0318387 0.1 0.0315126 0.216325
0.075776 0.1 -0.075 0.216291
0.075776 0.1 0.075 0.216358
0 0.1 -0.118487 0.215482
0 0.1 0.118487 0.215588
0.0318387 0.1 0.118487 0.215588
0.0318387 0.1 -0.118487 0.215482
0 0.1 -0.15 0.214919
0 0.1 0.15 0.215052
0.150525 0.1 8.67362e-18 0.213241
0 0.1 -0.181513 0.214344
0 0.1 0.181513 0.214504
0.0318387 0.1 -0.181513 0.214344
0.0318387 0.1 0.181513 0.214504
0.150525 0.1 0.15 0.211884
0.150525 0.1 -0.15 0.211743
0.219992 0.1 -0.075 0.210234
0.219992 0.1 0.075 0.210309
0.075776 0.1 -0.225 0.213562
0.075776 0.1 0.225 0.21376
0 0.1 -0.268487 0.212006
0 0.1 0.268487 0.212242
0.0318387 0.1 -0.268487 0.212006
0.0318387 0.1 0.268487 0.212242
0.287505 0.1 -2.60209e-17 0.213411
0 0.1 -0.3 0.210896
0 0.1 0.3 0.211161
0.219992 0.1 0.225 0.20734
0.219992 0.1 -0.225 0.207116
0.287505 0.1 0.15 0.211898
0.287505 0.1 -0.15 0.211745
0 0.1 -0.331513 0.209781
0 0.1 0.331513 0.210075
0.0318387 0.1 -0.331513 0.209781
0.0318387 0.1 0.331513 0.210075
0.150525 0.1 -0.3 0.207469
0.150525 0.1 0.3 0.207748
0.350249 0.1 -0.075 0.216434
0.350249 0.1 0.075 0.216513
0.075776 0.1 -0.375 0.20825
0.075776 0.1 0.375 0.208582
0.411227 0.1 1.73472e-17 0.221608
0.287505 0.1 -0.3 0.207022
0.287505 0.1 0.3 0.207321
0.350249 0.1 -0.225 0.213047
0.350249 0.1 0.225 0.213281
0 0.1 -0.418487 0.206063
0 0.1 0.418487 0.20643
0.0318387 0.1 -0.418487 0.206063
0.0318387 0.1 0.418487 0.20643
0.219992 0.1 -0.375 0.201193
0.219992 0.1 0.375 0.201553
0.411227 0.1 -0.15 0.219718
0.411227 0.1 0.15 0.219882
0 0.1 -0.45 0.204485
0 0.1 0.45 0.204878
0.467897 0.1 -0.075 0.226584
0.467897 0.1 0.075 0.226672
0.150525 0.1 -0.45 0.200715
0.150525 0.1 0.45 0.201122
0 0.1 -0.481513 0.202911
0 0.1 0.481513 0.203329
0.0318387 0.1 -0.481513 0.202911
0.0318387 0.1 0.481513 0.203329
0.411227 0.1 -0.3 0.214372
0.411227 0.1 0.3 0.214693
0.350249 0.1 0.375 0.206971
0.350249 0.1 -0.375 0.206592
0.467897 0.1 -0.225 0.222586
0.467897 0.1 0.225 0.222842
0.522972 0.1 3.72966e-17 0.232335
0.075776 0.1 0.525 0.201202
0.075776 0.1 -0.525 0.200749
0.287505 0.1 0.45 0.200031
0.287505 0.1 -0.45 0.199597
0.522972 0.1 0.15 0.230319
0.522972 0.1 -0.15 0.230139
0 0.1 0.568487 0.198506
0 0.1 -0.568487 0.19802
0.219992 0.1 0.525 0.193416
0.219992 0.1 -0.525 0.192932
0.0318387 0.1 -0.568487 0.19802
0.0318387 0.1 0.568487 0.198506
0.574156 0.1 -0.075 0.237884
0.574156 0.1 0.075 0.23798
0.467897 0.1 0.375 0.215476
0.467897 0.1 -0.375 0.215061
0 0.1 -0.6 0.196044
0 0.1 0.6 0.196554
0.522972 0.1 0.3 0.224294
0.522972 0.1 -0.3 0.223942
0.411227 0.1 0.45 0.206459
0.411227 0.1 -0.45 0.205992
0.574157 0.1 -0.225 0.233288
0.574157 0.1 0.225 0.233569
0.150525 0.1 0.6 0.192433
0.150525 0.1 -0.6 0.19191
0.6239 0.1 2.86229e-17 0.244397
0.350249 0.1 -0.525 0.197547
0.350249 0.1 0.525 0.198058
0 0.1 -0.631513 0.19408
0 0.1 0.631513 0.194613
0.0318387 0.1 -0.631513 0.19408
0.0318387 0.1 0.631513 0.194613
0.6239 0.1 0.15 0.242077
0.6239 0.1 -0.15 0.241879
0.287505 0.1 0.6 0.190529
0.287505 0.1 -0.6 0.189975
0.67013 0.1 0.075 0.250808
0.67013 0.1 -0.075 0.250704
0.075776 0.1 0.675 0.191941
0.075776 0.1 -0.675 0.191376
0.574157 0.1 0.375 0.225094
0.574157 0.1 -0.375 0.224638
0.522972 0.1 0.45 0.214784
0.522972 0.1 -0.45 0.214273
0.6239 0.1 -0.3 0.234763
0.6239 0.1 0.3 0.235149
0.467897 0.1 0.525 0.205157
0.467897 0.1 -0.525 0.204596
0.67013 0.1 -0.225 0.245434
0.67013 0.1 0.225 0.245742
0.219992 0.1 -0.675 0.182869
0.219992 0.1 0.675 0.18346
0.715059 0.1 2.42861e-17 0.257967
0 0.1 -0.718487 0.188241
0 0.1 0.718487 0.188834
0.0318387 0.1 -0.718487 0.188241
0.0318387 0.1 0.718487 0.188834
0.411227 0.1 0.6 0.195756
0.411227 0.1 -0.6 0.195159
0.715059 0.1 -0.15 0.255085
0.715059 0.1 0.15 0.255301
0 0.1 -0.75 0.185973
0 0.1 0.75 0.186586
0.150525 0.1 0.742997 0.181134
0.350249 0.1 -0.675 0.18645
0.350249 0.1 0.675 0.187081
0.756813 0.1 0.075 0.265135
0.756814 0.1 -0.075 0.265021
0.150525 0.1 -0.75 0.181527
0.67013 0.1 -0.375 0.235502
0.67013 0.1 0.375 0.235999
0.6239 0.1 -0.45 0.223675
0.6239 0.1 0.45 0.224235
0.715059 0.1 -0.3 0.246927
0.715059 0.1 0.3 0.247349
0.574156 0.1 -0.525 0.212627
0.574157 0.1 0.525 0.21324
0 0.1 -0.781513 0.183716
0 0.1 0.781513 0.18435
0.0318387 0.1 0.781513 0.18435
0.0318387 0.1 -0.781513 0.183716
0.756814 0.1 -0.225 0.258988
0.756814 0.1 0.225 0.259323
0.522972 0.1 0.6 0.202497
0.522972 0.1 -0.6 0.201844
0.287505 0.1 0.742997 0.178414
0.797393 0.1 -2.68882e-17 0.272867
0.287505 0.1 -0.75 0.178733
0.797393 0.1 -0.15 0.269585
0.797393 0.1 0.15 0.269821
0.467897 0.1 0.675 0.192591
0.467897 0.1 -0.675 0.191906
0.075776 0.1 0.825 0.181267
0.075776 0.1 -0.825 0.180606
0.835106 0.1 -0.075 0.280504
0.835106 0.1 0.075 0.280629
0.756813 0.1 0.375 0.248152
0.756814 0.1 -0.375 0.247606
0.715059 0.1 -0.45 0.234244
0.715059 0.1 0.45 0.234857
0.411227 0.1 0.742997 0.182191
0.67013 0.1 0.525 0.222439
0.67013 0.1 -0.525 0.221767
0.797393 0.1 -0.3 0.260281
0.797393 0.1 0.3 0.260743
0.219993 0.1 0.825 0.172246
0.219992 0.1 -0.825 0.171562
0.411227 0.1 -0.75 0.182561
0.835106 0.1 -0.225 0.273655
0.835106 0.1 0.225 0.274023
0.6239 0.1 -0.6 0.209474
0.6239 0.1 0.6 0.21019
0 0.1 -0.868487 0.17721
0 0.1 0.868487 0.177895
0.0318387 0.1 -0.868487 0.17721
0.0318387 0.1 0.868487 0.177895
0.871758 0.1 -4.33681e-17 0.288441
0.871758 0.1 -0.15 0.284749
0.871758 0.1 0.15 0.285005
0.574156 0.1 -0.675 0.198112
0.574157 0.1 0.675 0.198865
0.350249 0.1 0.825 0.174707
0.350249 0.1 -0.825 0.173979
0 0.1 -0.9 0.174755
0 0.1 0.9 0.175457
0.522972 0.1 0.742997 0.187066
0.90582 0.1 -0.075 0.29618
0.90582 0.1 0.075 0.296315
0.150525 0.1 0.9 0.170798
0.150525 0.1 -0.9 0.170087
0.522972 0.1 -0.75 0.187514
0.835106 0.1 0.375 0.261315
0.835106 0.1 -0.375 0.260716
0.797393 0.1 -0.45 0.245841
0.797393 0.1 0.45 0.246514
0.756813 0.1 -0.525 0.231943
0.756814 0.1 0.525 0.232682
0.871758 0.1 -0.3 0.274257
0.871758 0.1 0.3 0.274762
0 0.1 -0.931513 0.172311
0 0.1 0.931513 0.17303
0.0318387 0.1 -0.931513 0.172311
0.0318387 0.1 0.931513 0.17303
0.90582 0.1 -0.225 0.288521
0.90582 0.1 0.225 0.288919
0.715059 0.1 0.6 0.218864
0.715059 0.1 -0.6 0.218078
0.938924 0.1 -1.73472e-18 0.304027
0.287505 0.1 0.9 0.167241
0.287505 0.1 -0.9 0.166497
0.467897 0.1 -0.825 0.177809
0.467897 0.1 0.825 0.1786
0.938924 0.1 -0.15 0.299943
0.938924 0.1 0.15 0.300218
0.67013 0.1 -0.675 0.205256
0.67013 0.1 0.675 0.206082
0.6239 0.1 0.742997 0.192669
0.969689 0.1 -0.075 0.311687
0.969689 0.1 0.075 0.31183
0.6239 0.1 -0.75 0.193203
0.075776 0.1 -0.975 0.16894
0.075776 0.1 0.975 0.169682
0.90582 0.1 -0.375 0.274014
0.90582 0.1 0.375 0.274667
0.871758 0.1 -0.45 0.257957
0.871758 0.1 0.45 0.258693
0.938924 0.1 -0.3 0.288311
0.938924 0.1 0.3 0.288856
0.835106 0.1 -0.525 0.242959
0.835106 0.1 0.525 0.243767
0.411227 0.1 -0.9 0.168948
0.411227 0.1 0.9 0.169747
0.99151 0.1 0 0.317188
0.969689 0.1 -0.225 0.30329
0.96969 0.1 0.225 0.303716
0.797393 0.1 -0.6 0.227505
0.797393 0.1 0.6 0.228367
0.219992 0.1 0.975 0.160315
0.219992 0.1 -0.975 0.15956
0.99151 0.1 -0.15 0.312738
0.99151 0.1 0.15 0.313031
0.574156 0.1 -0.825 0.182129
0.574156 0.1 0.825 0.182993
0.756813 0.1 0.675 0.214124
0.756814 0.1 -0.675 0.213218
0 0.1 -1.01849 0.165431
0 0.1 1.01849 0.16619
0.0318387 0.1 -1.01849 0.165431
0.0318387 0.1 1.01849 0.16619
0.715059 0.1 0.742997 0.199034
0.99151 0.1 -0.3 0.300033
0.99151 0.1 0.3 0.300613
0.350249 0.1 -0.975 0.160847
0.350249 0.1 0.975 0.161651
0.715059 0.1 -0.75 0.199665
1.03609 0.1 -0.0731955 0.326614
1.03609 0.1 0.0731955 0.326801
0.969689 0.1 -0.375 0.287331
0.969689 0.1 0.375 0.288034
0.522972 0.1 -0.9 0.172178
0.522972 0.1 0.9 0.173047
0.938924 0.1 -0.45 0.270165
0.938924 0.1 0.45 0.270965
0.905821 0.1 -0.525 0.254034
0.905821 0.1 0.525 0.254917
0 0.1 -1.05 0.162893
0 0.1 1.05 0.163665
0.871758 0.1 0.6 0.238246
0.871758 0.1 -0.6 0.237304
1.03609 0.1 -0.219587 0.317557
1.03609 0.1 0.219587 0.318117
0.150525 0.1 -1.05 0.158094
0.150525 0.1 1.05 0.158873
0.67013 0.1 -0.825 0.187214
0.67013 0.1 0.825 0.188159
0.835106 0.1 0.675 0.222782
0.835106 0.1 -0.675 0.221789
1.07753 0.1 0 0.337556
0.467897 0.1 -0.975 0.163092
0.467897 0.1 0.975 0.163964
0 0.1 -1.08151 0.160367
0 0.1 1.08151 0.161152
0.0318387 0.1 -1.08151 0.160367
0.0318387 0.1 1.08151 0.161152
1.07753 0.1 -0.142247 0.332962
1.07753 0.1 0.142247 0.333264
0.287505 0.1 -1.05 0.153823
0.287505 0.1 1.05 0.154633
0.99151 0.1 -0.45 0.280172
0.99151 0.1 0.45 0.281027
0.797393 0.1 0.742997 0.205989
0.797393 0.1 -0.75 0.206729
0.6239 0.1 -0.9 0.175951
0.6239 0.1 0.9 0.176899
1.03609 0.1 -0.365978 0.300319
1.03609 0.1 0.365978 0.301236
0.969689 0.1 -0.525 0.265208
0.969689 0.1 0.525 0.266166
1.11155 0.1 -0.0694227 0.345609
1.11155 0.1 0.0694227 0.345778
0.938924 0.1 -0.6 0.247172
0.938924 0.1 0.6 0.248197
1.07753 0.1 -0.284495 0.319788
1.07753 0.1 0.284495 0.320391
0.756813 0.1 0.825 0.193914
0.756813 0.1 -0.825 0.192877
0.075776 0.1 -1.125 0.156882
0.075776 0.1 1.125 0.157684
0.411227 0.1 -1.05 0.154963
0.411227 0.1 1.05 0.155832
0.90582 0.1 0.675 0.231432
0.905821 0.1 -0.675 0.23035
1.11155 0.1 -0.208268 0.336636
1.11155 0.1 0.208268 0.337146
0.574156 0.1 -0.975 0.16562
0.574157 0.1 0.975 0.166569
0.871758 0.1 0.742997 0.213168
0.219992 0.1 -1.125 0.14732
0.219992 0.1 1.125 0.148135
0.715059 0.1 -0.9 0.18032
0.715059 0.1 0.9 0.181355
0.871758 0.1 -0.75 0.214029
1.03609 0.1 -0.512369 0.276457
1.03609 0.1 0.512369 0.280491
1.15879 0.1 0 0.360006
0.99151 0.1 -0.6 0.254982
0.99151 0.1 0.6 0.256084
1.07753 0.1 -0.426742 0.299091
1.07753 0.1 0.426742 0.299988
1.11155 0.1 -0.347114 0.319449
1.11155 0.1 0.347114 0.319482
1.15879 0.1 0.133647 0.355738
1.15879 0.1 -0.134121 0.355428
0 0.1 -1.16849 0.153397
0 0.1 1.16849 0.15421
0.0318387 0.1 -1.16849 0.153397
0.0318387 0.1 1.16849 0.15421
0.522972 0.1 -1.05 0.156604
0.522972 0.1 1.05 0.157545
0.835106 0.1 -0.825 0.19895
0.835106 0.1 0.825 0.200085
0.350249 0.1 -1.125 0.147552
0.350249 0.1 1.125 0.148417
0.969689 0.1 -0.675 0.23904
0.969689 0.1 0.675 0.240214
0.67013 0.1 -0.975 0.168775
0.67013 0.1 0.975 0.169808
1.18208 0.1 0.0658959 0.365177
1.18208 0.1 -0.0658959 0.365023
1.15879 0.1 0.267294 0.342911
1.15879 0.1 -0.268241 0.342289
0.938924 0.1 0.742997 0.2204
1.18208 0.1 -0.197687 0.356007
1.18208 0.1 0.197687 0.356477
0 0.1 -1.2 0.150877
0 0.1 1.2 0.151699
0.938924 0.1 -0.75 0.221378
0.797393 0.1 -0.9 0.18511
0.797393 0.1 0.9 0.18624
0.150525 0.1 -1.2 0.145998
0.150525 0.1 1.2 0.146826
1.11155 0.1 -0.485959 0.29547
1.11155 0.1 0.485959 0.296631
1.21556 0.1 -4.06576e-19 0.374468
1.15879 0.1 0.37237 0.327656
0.467897 0.1 -1.125 0.148333
0.467897 0.1 1.125 0.149266
1.07753 0.1 -0.568989 0.272592
1.07753 0.1 0.568989 0.273768
0.6239 0.1 -1.05 0.158656
0.6239 0.1 1.05 0.159678
1.21556 0.1 0.128394 0.370082
1.21556 0.1 -0.128444 0.36976
0.90582 0.1 -0.825 0.204966
0.905821 0.1 0.825 0.206205
1.15879 0.1 -0.402362 0.32152
1.18208 0.1 -0.329479 0.338708
1.18208 0.1 0.329479 0.339491
1.03609 0.1 -0.65876 0.248065
1.03609 0.1 0.65876 0.248671
0 0.1 -1.23151 0.148367
0 0.1 1.23151 0.149197
0.0318387 0.1 -1.23151 0.148367
0.0318387 0.1 1.23151 0.149197
0.287505 0.1 1.2 0.142012
0.287505 0.1 -1.2 0.141152
0.756813 0.1 -0.975 0.172351
0.756813 0.1 0.975 0.173476
1.21556 0.1 0.256787 0.356926
1.21556 0.1 -0.256887 0.35628
0.99151 0.1 0.75 0.225492
1.24616 0.1 -0.0626919 0.383047
1.24616 0.1 0.0626919 0.383211
0.99151 0.1 -0.760504 0.226793
0.871758 0.1 -0.9 0.190017
0.871758 0.1 0.9 0.191247
1.24616 0.1 -0.188076 0.373596
1.24616 0.1 0.188076 0.374101
0.574156 0.1 1.125 0.150351
0.574156 0.1 -1.125 0.149343
0.411227 0.1 -1.2 0.141134
0.411227 0.1 1.2 0.142052
1.18208 0.1 -0.461271 0.314356
1.18208 0.1 0.461271 0.315442
1.26973 0.1 -3.46945e-17 0.389858
0.715059 0.1 -1.05 0.161174
0.715059 0.1 1.05 0.162283
0.969689 0.1 -0.825 0.211115
0.96969 0.1 0.825 0.212463
1.2155 0.1 0.384884 0.336078
1.11155 0.1 -0.624804 0.266546
1.11155 0.1 0.624804 0.268001
1.21556 0.1 -0.385405 0.335051
1.26973 0.1 -0.123027 0.384864
1.26973 0.1 0.123027 0.38541
1.15879 0.1 -0.536483 0.30115
1.15879 0.1 0.536483 0.295195
0.075776 0.1 -1.275 0.144906
0.075776 0.1 1.275 0.145748
0.835106 0.1 -0.975 0.176209
0.835106 0.1 0.975 0.177429
1.24616 0.1 0.313459 0.356404
1.24616 0.1 -0.313459 0.35557
1.07753 0.1 -0.711236 0.242565
1.07753 0.1 0.711236 0.243971
1.26973 0.1 -0.246055 0.370762
1.26973 0.1 0.246055 0.371838
0.219993 0.1 1.275 0.136066
0.219993 0.1 -1.275 0.135211
0.938924 0.1 -0.9 0.194943
0.938924 0.1 0.9 0.196278
1.30421 0.1 -0.0597894 0.399905
1.30421 0.1 0.0597894 0.400123
0.522972 0.1 -1.2 0.141427
0.522972 0.1 1.2 0.142416
0.67013 0.1 -1.125 0.150852
0.67013 0.1 1.125 0.151944
1.03609 0.1 0.805151 0.219477
1.03609 0.1 -0.805151 0.218704
1.30421 0.1 -0.179368 0.390066
1.30421 0.1 0.179368 0.390724
0.797393 0.1 -1.05 0.164011
0.797393 0.1 1.05 0.165213
0 0.1 -1.31849 0.141536
0 0.1 1.31849 0.142384
0.0318387 0.1 -1.31849 0.141536
0.0318387 0.1 1.31849 0.142384
1.2155 0.1 -0.513636 0.307975
1.21591 0.1 0.513636 0.308955
1.24616 0.1 0.438843 0.33139
1.24616 0.1 -0.438843 0.330236
0.350249 0.1 -1.275 0.134538
0.350249 0.1 1.275 0.135444
1.26973 0.1 0.369082 0.351822
1.18208 0.1 -0.593062 0.285127
1.18208 0.1 0.593062 0.286517
1.2659 0.1 -0.393285 0.348562
0.905821 0.1 -0.975 0.179902
0.90582 0.1 0.975 0.181229
1.3344 0.1 0 0.410187
1.15406 0.1 -0.670604 0.265848
1.30421 0.1 0.298947 0.372293
1.30421 0.1 -0.298947 0.371214
1.15879 0.1 0.670604 0.264871
0.99151 0.1 -0.9 0.197996
0.99151 0.1 0.9 0.200239
1.3344 0.1 -0.11656 0.405103
1.3344 0.1 0.11656 0.405477
1.11155 0.1 -0.76365 0.240237
1.11155 0.1 0.76365 0.236836
0 0.1 -1.35 0.139099
0 0.1 1.35 0.139952
0.6239 0.1 -1.2 0.142057
0.6239 0.1 1.2 0.143125
1.3344 0.1 -0.23312 0.390499
1.3344 0.1 0.23312 0.391251
0.756814 0.1 1.125 0.153868
0.756814 0.1 -1.125 0.152684
0.467897 0.1 -1.275 0.134115
0.467897 0.1 1.275 0.135086
0.150525 0.1 1.35 0.134978
0.150525 0.1 -1.35 0.134116
1.35938 0.1 -0.0570311 0.417409
1.35938 0.1 0.0570311 0.417613
1.26973 0.1 -0.492109 0.322739
1.26973 0.1 0.492109 0.322287
0.871758 0.1 -1.05 0.166862
0.871758 0.1 1.05 0.168164
1.24616 0.1 -0.564227 0.30023
1.24616 0.1 0.564227 0.301684
1.30421 0.1 -0.418526 0.344777
1.30421 0.1 0.418526 0.349973
1.35938 0.1 -0.171093 0.407358
1.35938 0.1 0.171093 0.40799
1.07753 0.1 -0.853484 0.211662
1.07753 0.1 0.853484 0.21324
1.21591 0.1 -0.642045 0.276543
1.21591 0.1 0.642045 0.278102
0.969689 0.1 -0.975 0.183762
0.969689 0.1 0.975 0.185188
1.3344 0.1 0.34968 0.368406
1.3344 0.1 -0.34968 0.36729
0.287505 0.1 1.35 0.129656
0.287505 0.1 -1.35 0.12876
0 0.1 -1.38151 0.136672
0 0.1 1.38151 0.13753
0.0318387 0.1 1.38151 0.13753
0.0318387 0.1 -1.38151 0.136672
1.18208 0.1 -0.724854 0.252923
1.18208 0.1 0.724854 0.25455
1.35938 0.1 -0.285156 0.38799
1.35938 0.1 0.285156 0.389045
1.39501 0.1 -1.73472e-17 0.428479
0.715059 0.1 1.2 0.144217
0.715059 0.1 -1.2 0.143062
0.574156 0.1 1.275 0.134958
0.574156 0.1 -1.275 0.133916
1.39501 0.1 -0.110499 0.42344
1.39501 0.1 0.110499 0.423813
0.835106 0.1 -1.125 0.154768
0.835106 0.1 1.125 0.156047
1.03609 0.1 -0.951542 0.184917
1.03609 0.1 0.951542 0.189684
0.938924 0.1 1.05 0.171146
1.15879 0.1 -0.804724 0.231371
1.15879 0.1 0.804724 0.233047
1.30421 0.1 0.538105 0.315286
1.30421 0.1 -0.538105 0.318604
1.26973 0.1 -0.615137 0.288291
1.26973 0.1 0.615137 0.290617
0.411227 0.1 1.35 0.128776
0.411227 0.1 -1.35 0.127827
1.39389 0.1 -0.221221 0.40837
1.41134 0.1 -0.0544329 0.432691
1.41134 0.1 0.0544329 0.432869
1.39501 0.1 0.220998 0.409631
1.3344 0.1 0.46624 0.338915
1.3344 0.1 -0.46624 0.337462
0.938924 0.1 -1.0605 0.17005
1.35938 0.1 -0.399218 0.360485
1.35938 0.1 0.399218 0.361926
1.41134 0.1 -0.163299 0.422863
1.41134 0.1 0.163299 0.423421
1.24616 0.1 -0.68961 0.267267
1.24616 0.1 0.68961 0.268976
0.075776 0.1 -1.425 0.133325
0.075776 0.1 1.425 0.13419
1.11155 0.1 -0.902495 0.204139
1.11155 0.1 0.902495 0.205933
1.39389 0.1 -0.331832 0.384683
1.39501 0.1 0.331497 0.386537
1.43681 0.1 -1.56125e-18 0.436917
1.41134 0.1 -0.272165 0.403666
1.41134 0.1 0.272165 0.404653
1.21591 0.1 -0.770454 0.243753
1.21591 0.1 0.770454 0.245526
0.67013 0.1 -1.275 0.134106
0.67013 0.1 1.275 0.135232
1.43681 0.1 0.106319 0.432511
0.797393 0.1 -1.2 0.144336
0.797393 0.1 1.2 0.145584
1.43713 0.1 -0.107481 0.432268
0.219992 0.1 1.425 0.124241
0.219993 0.1 -1.425 0.123355
0.99151 0.1 1.05 0.172687
0.99151 0.1 -1.05 0.172971
0.90582 0.1 -1.125 0.156548
0.90582 0.1 1.125 0.157931
0.522972 0.1 1.35 0.128067
0.522972 0.1 -1.35 0.127052
1.43681 0.1 0.212638 0.419005
1.43681 0.1 -0.212638 0.418634
1.35938 0.1 -0.51328 0.32922
1.35938 0.1 0.51328 0.330649
1.3344 0.1 0.582801 0.30539
1.3344 0.1 -0.582801 0.303647
1.45847 0.1 -0.0520767 0.440806
1.45847 0.1 0.0520767 0.440952
1.18208 0.1 -0.856645 0.220511
1.18208 0.1 0.856645 0.222298
1.30421 0.1 0.657684 0.281588
1.30421 0.1 -0.657684 0.279516
1.41134 0.1 0.38103 0.377316
1.41134 0.1 -0.38103 0.375887
1.39423 0.1 -0.441996 0.356378
1.39501 0.1 0.441996 0.357148
1.45847 0.1 -0.15623 0.431845
1.45847 0.1 0.15623 0.432294
1.07753 0.1 -0.995731 0.181842
1.07753 0.1 0.995731 0.183528
0.350249 0.1 -1.425 0.121972
0.350249 0.1 1.425 0.122905
0 0.1 1.46849 0.131019
0 0.1 -1.46849 0.130152
1.26973 0.1 -0.738164 0.254774
1.26973 0.1 0.738164 0.257336
0.0318387 0.1 1.46849 0.131019
0.0318387 0.1 -1.46849 0.130152
1.43681 0.1 -0.318958 0.395931
1.43681 0.1 0.318958 0.396635
1.45847 0.1 -0.260383 0.413923
1.45847 0.1 0.260383 0.414784
1.48215 0.1 -7.80626e-18 0.440372
0.756814 0.1 -1.275 0.134591
0.756814 0.1 1.275 0.135806
0.871758 0.1 1.2 0.146939
0.969689 0.1 1.125 0.160223
0.969689 0.1 -1.125 0.158745
1.48215 0.1 0.101785 0.436387
1.48215 0.1 -0.117861 0.436089
0.6239 0.1 1.35 0.127606
0.6239 0.1 -1.35 0.126515
1.24616 0.1 -0.814994 0.233847
1.24616 0.1 0.814994 0.235751
1.15879 0.1 -0.938845 0.200119
1.15879 0.1 0.938845 0.201918
0.871758 0.1 -1.2105 0.145868
1.41134 0.1 0.489896 0.343222
1.41134 0.1 -0.489896 0.341401
1.48215 0.1 0.203569 0.424146
1.48215 0.1 -0.203569 0.423499
1.43447 0.1 -0.4286 0.365191
1.35938 0.1 0.627342 0.294036
1.35938 0.1 -0.627342 0.291411
1.43713 0.1 0.423956 0.366748
1.39501 0.1 0.550542 0.321048
0.467897 0.1 1.425 0.121696
0.467897 0.1 -1.425 0.12071
0 0.1 -1.5 0.127857
0 0.1 1.5 0.128726
1.39501 0.1 -0.552495 0.328402
1.45847 0.1 0.364537 0.388477
1.45847 0.1 -0.364537 0.387121
0.150525 0.1 -1.49579 0.123539
0.150525 0.1 1.49579 0.124417
1.3344 0.1 0.699361 0.270637
1.3344 0.1 -0.699361 0.268693
1.5079 0.1 -0.0496053 0.438285
1.5079 0.1 0.0496053 0.438384
1.03609 0.1 -1.09793 0.159665
1.03609 0.1 1.09793 0.161536
1.21591 0.1 -0.898862 0.211287
1.21591 0.1 0.898862 0.213223
1.48215 0.1 -0.305354 0.40247
1.48215 0.1 0.305354 0.403625
1.5079 0.1 -0.148816 0.430413
1.5079 0.1 0.148816 0.430623
1.30421 0.1 0.777263 0.24775
1.30421 0.1 -0.777263 0.245474
0 0.1 -1.51887 0.126477
0 0.1 1.51887 0.127348
0.0318387 0.1 -1.51887 0.126477
0.0318387 0.1 1.51887 0.127348
0.934451 0.1 -1.2 0.149319
1.11155 0.1 -1.04134 0.174984
1.11155 0.1 1.04134 0.176838
0.287505 0.1 -1.49579 0.117774
0.287505 0.1 1.49579 0.118686
1.52332 0.1 0 0.437218
0.938924 0.1 1.2 0.148339
0.835106 0.1 -1.275 0.135287
0.835106 0.1 1.275 0.136599
1.52332 0.1 -0.0976682 0.433248
1.52332 0.1 0.0976682 0.433362
0.715059 0.1 -1.35 0.126286
0.715059 0.1 1.35 0.127461
1.5079 0.1 -0.248026 0.414712
1.5079 0.1 0.248026 0.415208
1.43482 0.1 -0.532589 0.329278
1.43681 0.1 0.529458 0.33044
1.45847 0.1 0.46869 0.35441
1.45847 0.1 -0.46869 0.352577
1.39501 0.1 0.634239 0.292841
1.41134 0.1 0.598762 0.305255
1.41134 0.1 -0.598762 0.3031
1.26973 0.1 -0.861191 0.22147
1.26973 0.1 0.861191 0.224205
1.52332 0.1 -0.195336 0.421576
1.52332 0.1 0.195336 0.421824
0.574156 0.1 -1.425 0.119487
0.574156 0.1 1.425 0.120544
1.48215 0.1 0.407138 0.374992
1.48215 0.1 -0.407138 0.373235
1.18208 0.1 -0.988436 0.189481
1.18208 0.1 0.988436 0.191373
1.54306 0.1 -0.0478469 0.434681
1.54306 0.1 0.0478469 0.434763
1.39501 0.1 -0.662994 0.280856
0.075776 0.1 1.5449 0.125451
0.075776 0.1 -1.5449 0.124579
1.5079 0.1 0.347237 0.392028
1.5079 0.1 -0.347237 0.391043
1.35938 0.1 0.741404 0.257168
1.35938 0.1 -0.741404 0.256015
1.54306 0.1 0.143541 0.426889
1.54306 0.1 -0.143541 0.426803
1.52332 0.1 -0.293005 0.402299
1.52332 0.1 0.293005 0.402864
0.411227 0.1 -1.49579 0.116191
0.411227 0.1 1.49579 0.117151
0.99151 0.1 1.2 0.148259
0.99151 0.1 -1.2 0.14627
0.219992 0.1 -1.5449 0.114447
0.219992 0.1 1.54491 0.115338
1.24616 0.1 0.940377 0.203237
1.24616 0.1 -0.940377 0.201153
1.54306 0.1 -0.239234 0.411437
1.54306 0.1 0.239234 0.411701
1.56215 0.1 0 0.434422
0.905821 0.1 -1.275 0.135765
0.90582 0.1 1.275 0.137172
1.3344 0.1 0.815921 0.236599
1.3344 0.1 -0.815921 0.234458
1.56215 0.1 -0.0937847 0.430196
1.56215 0.1 0.0937847 0.430298
1.45847 0.1 0.572843 0.315101
1.45847 0.1 -0.572843 0.312729
1.48215 0.1 0.50873 0.339288
1.48215 0.1 -0.508922 0.336923
1.07753 0.1 -1.13798 0.155266
1.07753 0.1 1.13798 0.156958
0.797393 0.1 -1.35 0.126277
0.797393 0.1 1.35 0.127544
1.43681 0.1 0.631185 0.29324
1.43482 0.1 -0.639106 0.289917
0 0.1 -1.57094 0.122733
0 0.1 1.57094 0.123605
0.0318387 0.1 1.57094 0.123605
0.0318387 0.1 -1.57094 0.122733
1.5079 0.1 -0.446447 0.359641
1.5079 0.1 0.446447 0.361254
1.52332 0.1 -0.390673 0.375616
1.52332 0.1 0.390673 0.376706
1.56215 0.1 -0.187569 0.417886
1.56215 0.1 0.187569 0.418082
0.67013 0.1 -1.425 0.11856
0.67013 0.1 1.425 0.119697
1.41134 0.1 -0.707628 0.264801
1.41134 0.1 0.707628 0.267265
1.54306 0.1 -0.334929 0.389024
1.54306 0.1 0.334929 0.389582
1.15879 0.1 -1.07296 0.172112
1.15879 0.1 1.07296 0.173952
1.58081 0.1 -0.0459594 0.434446
1.58081 0.1 0.0459594 0.434552
1.30421 0.1 0.896841 0.214849
1.30421 0.1 -0.896841 0.212425
0.350249 0.1 -1.5449 0.112688
0.350249 0.1 1.5449 0.113621
0.522972 0.1 -1.49579 0.114642
0.522972 0.1 1.49579 0.11566
1.58081 0.1 0.137878 0.425827
1.58081 0.1 -0.137878 0.425499
1.56215 0.1 -0.281354 0.398124
1.56215 0.1 0.281354 0.398462
0 0.1 -1.58981 0.121398
0 0.1 1.58981 0.122271
1.21591 0.1 -1.02727 0.181879
1.21591 0.1 1.02727 0.1839
1.39501 0.1 -0.773493 0.244503
1.39501 0.1 0.773493 0.245054
1.58081 0.1 -0.229797 0.408282
1.58081 0.1 0.229797 0.408801
0.150525 0.1 -1.59139 0.1159
0.150525 0.1 1.59139 0.116782
1.47987 0.1 0.607126 0.302548
1.52332 0.1 -0.488341 0.341911
1.52332 0.1 0.488341 0.343688
0.96969 0.1 -1.275 0.136508
0.96969 0.1 1.275 0.138025
1.54306 0.1 -0.430622 0.360077
1.54306 0.1 0.430622 0.361247
1.60258 0.1 -2.31296e-18 0.441272
1.48215 0.1 -0.610707 0.296861
1.5079 0.1 -0.545658 0.321614
1.5079 0.1 0.545658 0.323853
1.60258 0.1 -0.0897424 0.436292
1.60258 0.1 0.0897424 0.436576
0.868457 0.1 -1.35 0.12644
1.35938 0.1 0.855467 0.224487
1.35938 0.1 -0.855467 0.222076
1.26973 0.1 0.984219 0.193826
1.26973 0.1 -0.984219 0.191069
1.56215 0.1 -0.375139 0.371954
1.56215 0.1 0.375139 0.372573
0.871758 0.1 1.35 0.127606
1.45847 0.1 0.676997 0.275717
1.45847 0.1 -0.676997 0.273054
1.60258 0.1 -0.179485 0.421809
1.60258 0.1 0.179485 0.422379
1.58081 0.1 -0.321716 0.383884
1.58081 0.1 0.321716 0.384526
0 0.1 -1.61341 0.119749
0 0.1 1.61341 0.120622
0.756814 0.1 1.425 0.119112
0.756814 0.1 -1.425 0.117889
0.0318387 0.1 -1.61341 0.119749
0.0318387 0.1 1.61341 0.120622
0.467897 0.1 -1.5449 0.110962
0.467897 0.1 1.5449 0.111945
1.6146 0.1 0.0442702 0.444816
1.6146 0.1 -0.0442702 0.444688
1.43447 0.1 0.744235 0.252787
0.287505 0.1 -1.59139 0.109965
0.287505 0.1 1.59139 0.110876
1.43681 0.1 -0.744235 0.251577
1.03609 0.1 -1.24433 0.136264
1.03609 0.1 1.24433 0.138048
1.6146 0.1 -0.132811 0.43443
1.6146 0.1 0.132811 0.435003
0.6239 0.1 -1.49579 0.113253
0.6239 0.1 1.49579 0.114342
1.11155 0.1 1.18019 0.151794
1.11155 0.1 -1.18019 0.14995
1.60258 0.1 -0.269227 0.398613
1.60258 0.1 0.269227 0.39933
1.3344 0.1 -0.932481 0.203416
1.3344 0.1 0.932481 0.20572
1.18208 0.1 -1.12023 0.163513
1.18208 0.1 1.12023 0.16539
1.6146 0.1 0.221351 0.4153
1.6146 0.1 -0.221351 0.414448
1.54306 0.1 -0.526316 0.324701
1.54306 0.1 0.526316 0.326707
1.41134 0.1 -0.816493 0.228933
1.41134 0.1 0.816493 0.231473
1.56215 0.1 -0.468924 0.340297
1.56215 0.1 0.468924 0.341492
1.63192 0.1 -2.60209e-19 0.457454
1.52332 0.1 0.586009 0.305539
1.52332 0.1 -0.586009 0.303062
1.58081 0.1 0.413635 0.355083
1.58081 0.1 -0.413635 0.354167
1.63192 0.1 -0.0868082 0.451889
1.63192 0.1 0.0868082 0.452405
1.24616 0.1 1.06576 0.175547
1.24616 0.1 -1.06576 0.173395
1.5079 0.1 0.644868 0.292035
1.5079 0.1 -0.644868 0.280859
1.63192 0.1 -0.173616 0.435735
1.63192 0.1 0.173616 0.436776
1.60258 0.1 -0.35897 0.36849
1.60258 0.1 0.35897 0.369247
1.48063 0.1 0.711426 0.259497
0.411227 0.1 -1.59139 0.108081
0.411227 0.1 1.59139 0.109037
1.6146 0.1 0.309891 0.386757
1.6146 0.1 -0.309891 0.385822
0.938924 0.1 -1.35 0.12618
0.938924 0.1 1.35 0.127647
1.47568 0.1 -0.729962 0.257059
1.64669 0.1 -0.0426655 0.467115
1.64669 0.1 0.0426655 0.467363
0.075776 0.1 -1.64598 0.117476
0.075776 0.1 1.64598 0.118349
0.574156 0.1 1.5449 0.110248
0.574156 0.1 -1.54491 0.109202
1.39501 0.1 -0.883992 0.212914
1.39501 0.1 0.883992 0.215409
1.64669 0.1 -0.127997 0.455681
1.64669 0.1 0.127997 0.45665
0.835106 0.1 -1.425 0.117341
0.835106 0.1 1.425 0.118659
1.63192 0.1 -0.260425 0.409447
1.63192 0.1 0.260425 0.410833
1.30421 0.1 1.01642 0.18604
1.30421 0.1 -1.01642 0.183532
1.45847 0.1 0.78115 0.237862
1.45847 0.1 -0.78115 0.235122
0.715059 0.1 -1.49579 0.112181
0.715059 0.1 1.49579 0.113347
1.58081 0.1 0.505554 0.322007
1.58081 0.1 -0.505554 0.320468
1.56215 0.1 0.562708 0.306302
1.56215 0.1 -0.562708 0.304228
1.64669 0.1 -0.213328 0.43322
1.64669 0.1 0.213328 0.434694
0.219992 0.1 -1.64598 0.107239
0.219992 0.1 1.64598 0.108128
1.66173 0.1 -6.07153e-18 0.481677
1.6146 0.1 0.398432 0.352082
1.6146 0.1 -0.398432 0.351222
1.54306 0.1 0.62201 0.289649
1.54306 0.1 -0.62201 0.285236
1.66173 0.1 0.0836532 0.476414
1.66173 0.1 -0.0838266 0.475782
1.60258 0.1 -0.448712 0.334077
1.60258 0.1 0.448712 0.334899
1.43482 0.1 0.849874 0.220547
1.63192 0.1 -0.347233 0.374531
1.63192 0.1 0.347233 0.376042
1.43681 0.1 -0.850554 0.218639
1.35938 0.1 -0.969529 0.193275
1.35938 0.1 0.969529 0.195821
1.52332 0.1 0.683677 0.265445
1.52332 0.1 -0.683677 0.262496
1.66173 0.1 0.167307 0.459792
1.66173 0.1 -0.167654 0.458522
1.15879 0.1 -1.20709 0.144799
1.15879 0.1 1.20709 0.146678
1.07753 0.1 -1.28023 0.130597
1.07753 0.1 1.28023 0.132272
1.64669 0.1 -0.298659 0.400084
1.64669 0.1 0.298659 0.401915
0.99151 0.1 1.35 0.126197
0.99151 0.1 -1.35 0.124296
0.522972 0.1 -1.59139 0.106171
0.522972 0.1 1.59139 0.107182
1.21591 0.1 -1.15568 0.153467
1.21591 0.1 1.15568 0.155518
0 0.1 1.67855 0.116166
0 0.1 -1.67855 0.115294
0.0318387 0.1 -1.67855 0.115294
0.0318387 0.1 1.67855 0.116166
1.66173 0.1 0.25096 0.431576
1.66173 0.1 -0.25148 0.429809
1.5079 0.1 0.744078 0.244565
1.5079 0.1 -0.744078 0.241472
1.68117 0.1 0.0409413 0.50207
1.68117 0.1 -0.0409413 0.501722
0.350249 0.1 1.64598 0.106109
0.350249 0.1 -1.64598 0.105179
0.67013 0.1 1.5449 0.108904
0.67013 0.1 -1.5449 0.107787
1.26973 0.1 -1.10725 0.161404
1.26973 0.1 1.10725 0.164277
1.68117 0.1 0.122824 0.491243
1.68117 0.1 -0.122824 0.490039
1.6146 0.1 -0.486972 0.314107
1.6146 0.1 0.486972 0.31488
1.41134 0.1 -0.92536 0.201066
1.41134 0.1 0.92536 0.203633
1.47568 0.1 -0.81945 0.222616
0.90582 0.1 -1.425 0.116586
0.905821 0.1 1.425 0.117999
1.63192 0.1 -0.434041 0.334246
1.63192 0.1 0.434041 0.335641
1.48063 0.1 0.813058 0.225235
1.58081 0.1 0.597472 0.292522
1.58081 0.1 -0.597472 0.284066
1.60258 0.1 0.538454 0.30151
1.60258 0.1 -0.538454 0.298046
1.69082 0.1 0 0.512886
1.64669 0.1 -0.38399 0.358404
1.64669 0.1 0.38399 0.36025
1.69082 0.1 0.0809177 0.507731
1.69082 0.1 -0.0809177 0.506951
1.68117 0.1 -0.204707 0.466498
1.68117 0.1 0.204707 0.468433
1.56215 0.1 0.656493 0.268324
1.56215 0.1 -0.656493 0.265439
0.797393 0.1 -1.49579 0.111363
0.797393 0.1 1.49579 0.112611
1.66173 0.1 0.334613 0.392394
1.66173 0.1 -0.335306 0.39034
1.3344 0.1 -1.04904 0.172826
1.3344 0.1 1.04904 0.175213
1.69082 0.1 0.161835 0.491097
1.69082 0.1 -0.161835 0.489508
1.54306 0.1 0.717704 0.247802
1.54306 0.1 -0.717704 0.244603
0 0.1 -1.70215 0.113717
0 0.1 1.70215 0.114587
1.7036 0.1 -0.0398197 0.525614
1.7036 0.1 0.0398197 0.526006
1.68117 0.1 0.286589 0.43333
1.68117 0.1 -0.286589 0.430669
1.45847 0.1 0.885303 0.208857
1.45847 0.1 -0.885303 0.206173
1.7036 0.1 0.119459 0.515619
1.7036 0.1 -0.119459 0.514264
1.69082 0.1 0.242753 0.462221
1.69082 0.1 -0.242753 0.459855
0.6239 0.1 -1.59139 0.104401
0.6239 0.1 1.59139 0.105476
0.150525 0.1 -1.70412 0.108159
0.150525 0.1 1.70412 0.109036
0.467897 0.1 1.64598 0.10409
0.467897 0.1 -1.64598 0.103113
1.52332 0.1 0.781345 0.229388
1.52332 0.1 -0.781345 0.226178
1.64669 0.1 -0.469321 0.312776
1.64669 0.1 0.469321 0.314296
1.6321 0.1 0.520025 0.295153
1.63192 0.1 -0.520849 0.293144
1.39501 0.1 -0.994492 0.182614
1.39501 0.1 0.994492 0.185229
1.66173 0.1 0.418266 0.344925
1.66173 0.1 -0.419133 0.34296
1.6146 0.1 -0.575512 0.277713
1.6146 0.1 0.575512 0.279118
1.7036 0.1 0.199098 0.493247
1.7036 0.1 -0.199098 0.491032
1.71727 0.1 0 0.541739
1.71727 0.1 0.0782727 0.536844
1.71727 0.1 -0.0782727 0.536081
0.756813 0.1 1.5449 0.107931
0.756813 0.1 -1.54491 0.10674
1.68117 0.1 -0.368472 0.383209
1.68117 0.1 0.368472 0.386333
1.60258 0.1 0.628197 0.264043
1.60258 0.1 -0.628197 0.261773
1.69082 0.1 0.323671 0.42069
1.69082 0.1 -0.323671 0.417584
1.18208 0.1 -1.25202 0.133886
1.18208 0.1 1.25202 0.135862
0.969689 0.1 1.425 0.117398
0.969689 0.1 -1.425 0.115868
1.24616 0.1 1.19115 0.145147
1.24616 0.1 -1.19115 0.142981
1.43482 0.1 0.956108 0.190589
1.71727 0.1 0.156545 0.520941
1.71727 0.1 -0.156545 0.519389
1.58081 0.1 0.689392 0.249624
1.58081 0.1 -0.689392 0.246214
1.11155 0.1 -1.31903 0.123969
1.11155 0.1 1.31903 0.125805
1.7036 0.1 0.278738 0.458185
1.7036 0.1 -0.278738 0.454964
1.43681 0.1 -0.956873 0.188594
1.5079 0.1 0.843289 0.206678
1.5079 0.1 -0.843289 0.20975
0.287505 0.1 -1.70412 0.102018
0.287505 0.1 1.70412 0.102922