# UMean  POINT_DATA 18630
# x  y  z  UMean_x  UMean_y  UMean_z
0 0.1 0 1 0 0
0 0.1 -0.0315126 1 0 0
0 0.1 0.0315126 1 0 0
0.0318387 0.1 -0.0315126 1.00141 0.00392725 -0.000392874
0.0318387 0.1 0.0315126 1.00141 0.00392875 0.000356205
0.075776 0.1 -0.075 1.00344 0.00950378 -0.000934317
0.075776 0.1 0.075 1.00344 0.00950748 0.00084719
0 0.1 -0.118487 1 0 0
0 0.1 0.118487 1 0 0
0.0318387 0.1 0.118487 1.00141 0.00392875 0.000356205
0.0318387 0.1 -0.118487 1.00141 0.00392725 -0.000392874
0 0.1 -0.15 1 0 0
0 0.1 0.15 1 0 0
0.150525 0.1 8.67362e-18 1.00332 0.0108825 -7.1284e-05
0 0.1 -0.181513 1 0 0
0 0.1 0.181513 1 0 0
0.0318387 0.1 -0.181513 1.00137 0.0038768 -0.00111187
0.0318387 0.1 0.181513 1.00137 0.00387939 0.00107839
0.150525 0.1 0.15 1.0034 0.0108388 0.00283958
0.150525 0.1 -0.15 1.00341 0.0108353 -0.00297915
0.219992 0.1 -0.075 1.00321 0.0122248 -0.00215013
0.219992 0.1 0.075 1.0032 0.0122254 0.0019538
0.075776 0.1 -0.225 1.00335 0.00938455 -0.00264019
0.075776 0.1 0.225 1.00336 0.00939059 0.00256079
0 0.1 -0.268487 1 0 0
0 0.1 0.268487 1 0 0
0.0318387 0.1 -0.268487 1.00137 0.0038768 -0.00111187
0.0318387 0.1 0.268487 1.00137 0.00387939 0.00107839
0.287505 0.1 -2.60209e-17 1.00041 0.0134255 -0.000126947
0 0.1 -0.3 1 0 0
0 0.1 0.3 1 0 0
0.219992 0.1 0.225 1.00363 0.0121625 0.00592791
0.219992 0.1 -0.225 1.00365 0.0121587 -0.00611992
0.287505 0.1 0.15 1.00066 0.013389 0.0051632
0.287505 0.1 -0.15 1.00067 0.0133863 -0.00541431
0 0.1 -0.331513 1 0 0
0 0.1 0.331513 1 0 0
0.0318387 0.1 -0.331513 1.00131 0.00381482 -0.0017201
0.0318387 0.1 0.331513 1.00131 0.00381819 0.0016895
0.150525 0.1 -0.3 1.00365 0.0107172 -0.00568149
0.150525 0.1 0.3 1.00364 0.0107233 0.00554926
0.350249 0.1 -0.075 0.997707 0.0145914 -0.00345814
0.350249 0.1 0.075 0.997698 0.0145924 0.00314823
0.075776 0.1 -0.375 1.00319 0.00923996 -0.00408377
0.075776 0.1 0.375 1.0032 0.00924753 0.00401117
0.411227 0.1 1.73472e-17 0.993006 0.0160564 -0.000184447
0.287505 0.1 -0.3 1.00143 0.0132592 -0.010381
0.287505 0.1 0.3 1.0014 0.013266 0.010139
0.350249 0.1 -0.225 0.998304 0.0145026 -0.00986077
0.350249 0.1 0.225 0.998278 0.0145079 0.00955765
0 0.1 -0.418487 1 0 0
0 0.1 0.418487 1 0 0
0.0318387 0.1 -0.418487 1.00131 0.00381482 -0.0017201
0.0318387 0.1 0.418487 1.00131 0.00381819 0.0016895
0.219992 0.1 -0.375 1.00442 0.0120162 -0.00974156
0.219992 0.1 0.375 1.00439 0.0120229 0.00956007
0.411227 0.1 -0.15 0.993429 0.0159869 -0.0080398
0.411227 0.1 0.15 0.993406 0.015992 0.00767539
0 0.1 -0.45 1 0 0
0 0.1 0.45 1 0 0
0.467897 0.1 -0.075 0.988437 0.0174762 -0.00488063
0.467897 0.1 0.075 0.988423 0.0174794 0.00445414
0.150525 0.1 -0.45 1.00399 0.010558 -0.00802041
0.150525 0.1 0.45 1.00398 0.010566 0.00789858
0 0.1 -0.481513 1 0 0
0 0.1 0.481513 1 0 0
0.0318387 0.1 -0.481513 1.00124 0.00375664 -0.00221211
0.0318387 0.1 0.481513 1.00124 0.00375961 0.00218533
0.411227 0.1 -0.3 0.994666 0.0157742 -0.0153923
0.411227 0.1 0.3 0.994619 0.0157857 0.0150433
0.350249 0.1 0.375 0.999461 0.0143046 0.015382
0.350249 0.1 -0.375 0.999506 0.0142935 -0.0156704
0.467897 0.1 -0.225 0.989505 0.0172925 -0.0138951
0.467897 0.1 0.225 0.989462 0.0173033 0.0134797
0.522972 0.1 3.72966e-17 0.982609 0.0190287 -0.000242911
0.075776 0.1 0.525 1.00303 0.00911585 0.0051889
0.075776 0.1 -0.525 1.00302 0.00910904 -0.00525259
0.287505 0.1 0.45 1.00251 0.0130422 0.0145253
0.287505 0.1 -0.45 1.00256 0.0130305 -0.014751
0.522972 0.1 0.15 0.983266 0.0189078 0.0103641
0.522972 0.1 -0.15 0.983302 0.0188984 -0.010843
0 0.1 0.568487 1 0 0
0 0.1 -0.568487 1 0 0
0.219992 0.1 0.525 1.00528 0.0118101 0.0126342
0.219992 0.1 -0.525 1.00531 0.0117993 -0.0128004
0.0318387 0.1 -0.568487 1.00124 0.00375664 -0.00221211
0.0318387 0.1 0.568487 1.00124 0.00375961 0.00218533
0.574156 0.1 -0.075 0.976926 0.0205309 -0.00638482
0.574156 0.1 0.075 0.976905 0.0205368 0.00584088
0.467897 0.1 0.375 0.991497 0.0169452 0.0216329
0.467897 0.1 -0.375 0.99157 0.0169266 -0.0220195
0 0.1 -0.6 1 0 0
0 0.1 0.6 1 0 0
0.522972 0.1 0.3 0.985222 0.0185446 0.0202643
0.522972 0.1 -0.3 0.985294 0.0185255 -0.0207212
0.411227 0.1 0.45 0.996539 0.0154253 0.0214898
0.411227 0.1 -0.45 0.996607 0.0154066 -0.0218143
0.574157 0.1 -0.225 0.978586 0.0202044 -0.0181523
0.574157 0.1 0.225 0.978521 0.0202219 0.017625
0.150525 0.1 0.6 1.00437 0.0103932 0.00979256
0.150525 0.1 -0.6 1.00438 0.0103846 -0.00990106
0.6239 0.1 2.86229e-17 0.970111 0.0220525 -0.000301607
0.350249 0.1 -0.525 1.00114 0.0139508 -0.0206046
0.350249 0.1 0.525 1.00108 0.0139685 0.0203408
0 0.1 -0.631513 1 0 0
0 0.1 0.631513 1 0 0
0.0318387 0.1 -0.631513 1.00122 0.00370805 -0.00258015
0.0318387 0.1 0.631513 1.00122 0.00371073 0.00255723
0.6239 0.1 0.15 0.971077 0.0218579 0.0131953
0.6239 0.1 -0.15 0.97113 0.0218433 -0.0137887
0.287505 0.1 0.6 1.00382 0.0127395 0.0180964
0.287505 0.1 -0.6 1.00387 0.0127242 -0.018299
0.67013 0.1 0.075 0.963416 0.0235302 0.00729592
0.67013 0.1 -0.075 0.963447 0.023521 -0.00795737
0.075776 0.1 0.675 1.00299 0.00900319 0.00607581
0.075776 0.1 -0.675 1.00299 0.00899703 -0.00613055
0.574157 0.1 0.375 0.981639 0.0196228 0.0282091
0.574157 0.1 -0.375 0.981746 0.0195936 -0.0287051
0.522972 0.1 0.45 0.988292 0.0179559 0.0288267
0.522972 0.1 -0.45 0.988399 0.017927 -0.0292501
0.6239 0.1 -0.3 0.974044 0.0212633 -0.0263051
0.6239 0.1 0.3 0.973941 0.0212917 0.0257389
0.467897 0.1 0.525 0.994313 0.0164065 0.0284322
0.467897 0.1 -0.525 0.994411 0.0163792 -0.0287891
0.67013 0.1 -0.225 0.965802 0.0230277 -0.0226071
0.67013 0.1 0.225 0.965711 0.0230533 0.0219683
0.219992 0.1 -0.675 1.00615 0.0115695 -0.0151655
0.219992 0.1 0.675 1.00612 0.0115801 0.0150192
0.715059 0.1 2.42861e-17 0.955703 0.025103 -0.000360175
0 0.1 -0.718487 1 0 0
0 0.1 0.718487 1 0 0
0.0318387 0.1 -0.718487 1.00122 0.00370805 -0.00258015
0.0318387 0.1 0.718487 1.00122 0.00371073 0.00255723
0.411227 0.1 0.6 0.998943 0.0149312 0.0266887
0.411227 0.1 -0.6 0.999029 0.0149062 -0.0269801
0.715059 0.1 -0.15 0.957098 0.0248021 -0.0168658
0.715059 0.1 0.15 0.957027 0.0248228 0.0161581
0 0.1 -0.75 1 0 0
0 0.1 0.75 1 0 0
0.150525 0.1 0.742997 1.00485 0.0102358 0.0113635
0.350249 0.1 -0.675 1.003 0.0135206 -0.0243927
0.350249 0.1 0.675 1.00294 0.0135426 0.0241613
0.756813 0.1 0.075 0.948071 0.0266394 0.00881793
0.756814 0.1 -0.075 0.948112 0.0266262 -0.0095963
0.150525 0.1 -0.75 1.0048 0.0102159 -0.0112745
0.67013 0.1 -0.375 0.970269 0.0221433 -0.0356549
0.67013 0.1 0.375 0.97012 0.0221842 0.0350544
0.6239 0.1 -0.45 0.978556 0.0203652 -0.0370091
0.6239 0.1 0.45 0.978405 0.0204067 0.0364875
0.715059 0.1 -0.3 0.961084 0.0239891 -0.032122
0.715059 0.1 0.3 0.960945 0.0240279 0.0314481
0.574156 0.1 -0.525 0.986074 0.0187313 -0.0373284
0.574157 0.1 0.525 0.985927 0.0187713 0.0368766
0 0.1 -0.781513 1 0 0
0 0.1 0.781513 1 0 0
0.0318387 0.1 0.781513 1.00126 0.00367187 0.0028096
0.0318387 0.1 -0.781513 1.00126 0.00367007 -0.00282921
0.756814 0.1 -0.225 0.951257 0.0259402 -0.0272556
0.756814 0.1 0.225 0.951137 0.0259747 0.0265054
0.522972 0.1 0.6 0.992156 0.017186 0.0356266
0.522972 0.1 -0.6 0.992291 0.0171488 -0.0360046
0.287505 0.1 0.742997 1.00523 0.012388 0.0209735
0.797393 0.1 -2.68882e-17 0.939702 0.0285147 -0.000418445
0.287505 0.1 -0.75 1.0052 0.0123817 -0.0208786
0.797393 0.1 -0.15 0.941511 0.0281046 -0.0200717
0.797393 0.1 0.15 0.941421 0.0281324 0.0192501
0.467897 0.1 0.675 0.997607 0.0157377 0.0336096
0.467897 0.1 -0.675 0.997725 0.015705 -0.0339211
0.075776 0.1 0.825 1.00307 0.00891509 0.00668215
0.075776 0.1 -0.825 1.00307 0.00891113 -0.00672922
0.835106 0.1 -0.075 0.931438 0.0303348 -0.0113002
0.835106 0.1 0.075 0.931387 0.0303527 0.0104056
0.756813 0.1 0.375 0.957022 0.0248106 0.0421774
0.756814 0.1 -0.375 0.95722 0.0247567 -0.0428819
0.715059 0.1 -0.45 0.967229 0.0227549 -0.0450893
0.715059 0.1 0.45 0.967024 0.0228104 0.0444735
0.411227 0.1 0.742997 1.00172 0.0143274 0.0307723
0.67013 0.1 0.525 0.976135 0.0209712 0.0456706
0.67013 0.1 -0.525 0.976338 0.0209157 -0.0462069
0.797393 0.1 -0.3 0.946686 0.0270166 -0.0381735
0.797393 0.1 0.3 0.946507 0.0270674 0.0373923
0.219993 0.1 0.825 1.00686 0.0113403 0.0166571
0.219992 0.1 -0.825 1.00689 0.0113275 -0.0167795
0.411227 0.1 -0.75 1.00164 0.0143291 -0.0306752
0.835106 0.1 -0.225 0.935435 0.0294134 -0.0320943
0.835106 0.1 0.225 0.935284 0.0294588 0.0312327
0.6239 0.1 -0.6 0.98419 0.0192308 -0.0453651
0.6239 0.1 0.6 0.983995 0.0192828 0.0449034
0 0.1 -0.868487 1 0 0
0 0.1 0.868487 1 0 0
0.0318387 0.1 -0.868487 1.00126 0.00367007 -0.00282921
0.0318387 0.1 0.868487 1.00126 0.00367187 0.0028096
0.871758 0.1 -4.33681e-17 0.922595 0.0325724 -0.000476198
0.871758 0.1 -0.15 0.924839 0.0320349 -0.0233648
0.871758 0.1 0.15 0.924728 0.0320709 0.0224298
0.574156 0.1 -0.675 0.991129 0.0177114 -0.0437877
0.574157 0.1 0.675 0.99095 0.0177596 0.0433978
0.350249 0.1 0.825 1.00479 0.0130833 0.0267193
0.350249 0.1 -0.825 1.00486 0.01306 -0.0269114
0 0.1 -0.9 1 0 0
0 0.1 0.9 1 0 0
0.522972 0.1 0.742997 0.996683 0.0162484 0.0408357
0.90582 0.1 -0.075 0.913888 0.0347334 -0.0130255
0.90582 0.1 0.075 0.913826 0.0347562 0.0120159
0.150525 0.1 0.9 1.0052 0.0100704 0.0120605
0.150525 0.1 -0.9 1.00521 0.0100623 -0.0121375
0.522972 0.1 -0.75 0.996536 0.0162651 -0.0407414
0.835106 0.1 0.375 0.942766 0.0279262 0.0495786
0.835106 0.1 -0.375 0.943016 0.0278574 -0.0503856
0.797393 0.1 -0.45 0.954663 0.0253851 -0.0534985
0.797393 0.1 0.45 0.954399 0.0254565 0.0527858
0.756813 0.1 -0.525 0.965275 0.0231225 -0.0554892
0.756814 0.1 0.525 0.965008 0.0231939 0.0548686
0.871758 0.1 -0.3 0.931262 0.0306186 -0.0443946
0.871758 0.1 0.3 0.93104 0.0306833 0.0435064
0 0.1 -0.931513 1 0 0
0 0.1 0.931513 1 0 0
0.0318387 0.1 -0.931513 1.00129 0.00364899 -0.00297458
0.0318387 0.1 0.931513 1.00129 0.00365004 0.0029581
0.90582 0.1 -0.225 0.918751 0.0335469 -0.0370063
0.90582 0.1 0.225 0.918569 0.0336047 0.0360332
0.715059 0.1 0.6 0.974611 0.0212797 0.0545234
0.715059 0.1 -0.6 0.974873 0.021211 -0.0550654
0.938924 0.1 -1.73472e-18 0.905276 0.0375033 -0.000532595
0.287505 0.1 0.9 1.00643 0.0120485 0.0223145
0.287505 0.1 -0.9 1.00648 0.0120297 -0.0224557
0.467897 0.1 -0.825 1.0011 0.0149699 -0.0372359
0.467897 0.1 0.825 1.00097 0.0150073 0.0369778
0.938924 0.1 -0.15 0.90794 0.0368322 -0.026789
0.938924 0.1 0.15 0.907809 0.0368772 0.0257428
0.67013 0.1 -0.675 0.983387 0.0194972 -0.0539665
0.67013 0.1 0.675 0.983139 0.0195611 0.0534995
0.6239 0.1 0.742997 0.99058 0.0179339 0.0511768
0.969689 0.1 -0.075 0.896781 0.0401899 -0.0148613
0.969689 0.1 0.075 0.896712 0.0402176 0.0137409
0.6239 0.1 -0.75 0.990345 0.0179695 -0.0510903
0.075776 0.1 -0.975 1.00315 0.00886536 -0.0070782
0.075776 0.1 0.975 1.00315 0.00886762 0.00703888
0.90582 0.1 -0.375 0.927989 0.0315499 -0.0580291
0.90582 0.1 0.375 0.927685 0.0316365 0.0571192
0.871758 0.1 -0.45 0.941178 0.0284987 -0.0621355
0.871758 0.1 0.45 0.940854 0.0285898 0.0613213
0.938924 0.1 -0.3 0.915587 0.0350533 -0.0508713
0.938924 0.1 0.3 0.915325 0.0351342 0.0498775
0.835106 0.1 -0.525 0.953303 0.0257124 -0.0651299
0.835106 0.1 0.525 0.952962 0.0258034 0.0644126
0.411227 0.1 -0.9 1.00418 0.0137259 -0.0328625
0.411227 0.1 0.9 1.00408 0.013757 0.032661
0.99151 0.1 0 0.889912 0.0424404 -0.000582411
0.969689 0.1 -0.225 0.902438 0.0387432 -0.0422351
0.96969 0.1 0.225 0.902229 0.038815 0.041154
0.797393 0.1 -0.6 0.964572 0.023356 -0.0651069
0.797393 0.1 0.6 0.964235 0.0234445 0.0644816
0.219992 0.1 0.975 1.0076 0.0111063 0.0175495
0.219992 0.1 -0.975 1.00763 0.0110931 -0.0176464
0.99151 0.1 -0.15 0.892948 0.0416836 -0.0298109
0.99151 0.1 0.15 0.892802 0.0417358 0.028666
0.574156 0.1 -0.825 0.996328 0.0166157 -0.0478063
0.574156 0.1 0.825 0.99613 0.0166688 0.0474861
0.756813 0.1 0.675 0.97432 0.0213199 0.0639063
0.756814 0.1 -0.675 0.974647 0.0212363 -0.0644492
0 0.1 -1.01849 1 0 0
0 0.1 1.01849 1 0 0
0.0318387 0.1 -1.01849 1.00129 0.00364899 -0.00297458
0.0318387 0.1 1.01849 1.00129 0.00365004 0.0029581
0.715059 0.1 0.742997 0.983539 0.0194685 0.0617812
0.99151 0.1 -0.3 0.901682 0.0396467 -0.0566176
0.99151 0.1 0.3 0.901386 0.0397417 0.0555281
0.350249 0.1 -0.975 1.00662 0.0125965 -0.0282017
0.350249 0.1 0.975 1.00654 0.012622 0.02805
0.715059 0.1 -0.75 0.983205 0.0195228 -0.0617074
1.03609 0.1 -0.0731955 0.877952 0.0466517 -0.0164857
1.03609 0.1 0.0731955 0.877846 0.0466873 0.0149625
0.969689 0.1 -0.375 0.913261 0.0362609 -0.0661615
0.969689 0.1 0.375 0.912908 0.0363678 0.0651511
0.522972 0.1 -0.9 1.00068 0.0153462 -0.0434266
0.522972 0.1 0.9 1.00052 0.015392 0.0431687
0.938924 0.1 -0.45 0.927443 0.0323838 -0.0710781
0.938924 0.1 0.45 0.92706 0.032498 0.0701642
0.905821 0.1 -0.525 0.940532 0.0287754 -0.0749086
0.905821 0.1 0.525 0.940129 0.028893 0.0740873
0 0.1 -1.05 1 0 0
0 0.1 1.05 1 0 0
0.871758 0.1 0.6 0.953115 0.0259888 0.0746777
0.871758 0.1 -0.6 0.953529 0.0258758 -0.0753917
1.03609 0.1 -0.219587 0.884352 0.0451677 -0.046656
1.03609 0.1 0.219587 0.884033 0.0452656 0.045192
0.150525 0.1 -1.05 1.00561 0.00992624 -0.0125173
0.150525 0.1 1.05 1.00559 0.00993409 0.012458
0.67013 0.1 -0.825 0.990672 0.0179964 -0.0586116
0.67013 0.1 0.825 0.990399 0.0180674 0.0582319
0.835106 0.1 0.675 0.964785 0.0233788 0.0746108
0.835106 0.1 -0.675 0.965196 0.0232712 -0.0752301
1.07753 0.1 0 0.864739 0.0510825 -0.000665811
0.467897 0.1 -0.975 1.00425 0.0142252 -0.0388468
0.467897 0.1 0.975 1.00412 0.0142628 0.038644
0 0.1 -1.08151 1 0 0
0 0.1 1.08151 1 0 0
0.0318387 0.1 -1.08151 1.00131 0.00363593 -0.00301272
0.0318387 0.1 1.08151 1.00131 0.00363649 0.00300072
1.07753 0.1 -0.142247 0.868122 0.0503451 -0.033383
1.07753 0.1 0.142247 0.867957 0.0504015 0.0320701
0.287505 0.1 -1.05 1.00766 0.0116861 -0.023105
0.287505 0.1 1.05 1.00761 0.0117061 0.0229967
0.99151 0.1 -0.45 0.915351 0.0365335 -0.0790755
0.99151 0.1 0.45 0.914911 0.0366688 0.0780716
0.797393 0.1 0.742997 0.975781 0.0210999 0.0726338
0.797393 0.1 -0.75 0.975333 0.0211719 -0.0725787
0.6239 0.1 -0.9 0.996369 0.0166816 -0.0541598
0.6239 0.1 0.9 0.996131 0.0167445 0.053849
1.03609 0.1 -0.365978 0.896554 0.0424611 -0.0732429
1.03609 0.1 0.365978 0.896024 0.0426164 0.0718865
0.969689 0.1 -0.525 0.928068 0.032842 -0.0851388
0.969689 0.1 0.525 0.927597 0.0329872 0.0842257
1.11155 0.1 -0.0694227 0.85501 0.0545147 -0.0180708
1.11155 0.1 0.0694227 0.854912 0.0545472 0.0165382
0.938924 0.1 -0.6 0.942268 0.0290527 -0.0859629
0.938924 0.1 0.6 0.941776 0.0291943 0.0851639
1.07753 0.1 -0.284495 0.877849 0.0482803 -0.0636295
1.07753 0.1 0.284495 0.877514 0.0483893 0.0623694
0.756813 0.1 0.825 0.983874 0.0193899 0.0692014
0.756813 0.1 -0.825 0.984235 0.0192996 -0.069638
0.075776 0.1 -1.125 1.0032 0.00883814 -0.00716859
0.075776 0.1 1.125 1.0032 0.00883925 0.00714002
0.411227 0.1 -1.05 1.00648 0.0131416 -0.0336809
0.411227 0.1 1.05 1.00637 0.0131737 0.0335268
0.90582 0.1 0.675 0.954688 0.0257895 0.0854944
0.905821 0.1 -0.675 0.95519 0.0256543 -0.0861913
1.11155 0.1 -0.208268 0.86186 0.0531306 -0.0514034
1.11155 0.1 0.208268 0.861562 0.0532218 0.0499168
0.574156 0.1 -0.975 1.00116 0.0155257 -0.0495927
0.574157 0.1 0.975 1.00096 0.0155803 0.049343
0.871758 0.1 0.742997 0.967511 0.0230007 0.0836791
0.219992 0.1 -1.125 1.00834 0.0108631 -0.0178499
0.219992 0.1 1.125 1.00831 0.0108776 0.0177788
0.715059 0.1 -0.9 0.991336 0.0178347 -0.0650509
0.715059 0.1 0.9 0.991015 0.0179162 0.0646908
0.871758 0.1 -0.75 0.966936 0.0230941 -0.0836497
1.03609 0.1 -0.512369 0.91365 0.0385749 -0.0945628
1.03609 0.1 0.512369 0.909729 0.0400186 0.0952168
1.15879 0.1 0 0.836538 0.0597214 -0.000756741
0.99151 0.1 -0.6 0.932492 0.0325523 -0.0954911
0.99151 0.1 0.6 0.931923 0.0327219 0.0946133
1.07753 0.1 -0.426742 0.89316 0.0448998 -0.0893975
1.07753 0.1 0.426742 0.892653 0.0450622 0.0882219
1.11155 0.1 -0.347114 0.874924 0.0504863 -0.0810837
1.11155 0.1 0.347114 0.874431 0.0509354 0.0833834
1.15879 0.1 0.133647 0.840041 0.0591872 0.0355243
1.15879 0.1 -0.134121 0.84023 0.0591361 -0.0370218
0 0.1 -1.16849 1 0 0
0 0.1 1.16849 1 0 0
0.0318387 0.1 -1.16849 1.00131 0.00363593 -0.00301272
0.0318387 0.1 1.16849 1.00131 0.00363649 0.00300072
0.522972 0.1 -1.05 1.00442 0.0144673 -0.0442811
0.522972 0.1 1.05 1.00425 0.0145137 0.0440855
0.835106 0.1 -0.825 0.977355 0.0208094 -0.0808573
0.835106 0.1 0.825 0.976899 0.0209227 0.0803676
0.350249 0.1 -1.125 1.00811 0.0121572 -0.0284312
0.350249 0.1 1.125 1.00804 0.0121836 0.0283192
0.969689 0.1 -0.675 0.945345 0.0288406 -0.0975246
0.969689 0.1 0.675 0.944754 0.0290082 0.0967607
0.67013 0.1 -0.975 0.997416 0.0165417 -0.0604323
0.67013 0.1 0.975 0.997135 0.016614 0.0601398
1.18208 0.1 0.0658959 0.830021 0.0615601 0.0180495
1.18208 0.1 -0.0658959 0.830116 0.0615349 -0.019604
1.15879 0.1 0.267294 0.850425 0.0575318 0.0693807
1.15879 0.1 -0.268241 0.850803 0.0574273 -0.0708298
0.938924 0.1 0.742997 0.959102 0.0254019 0.0949064
1.18208 0.1 -0.197687 0.837546 0.0604724 -0.0559989
1.18208 0.1 0.197687 0.837253 0.060546 0.0544749
0 0.1 -1.2 1 0 0
0 0.1 1.2 1 0 0
0.938924 0.1 -0.75 0.958391 0.0255195 -0.09491
0.797393 0.1 -0.9 0.985797 0.0190256 -0.0760748
0.797393 0.1 0.9 0.985385 0.0191278 0.075669
0.150525 0.1 -1.2 1.00597 0.00979389 -0.0124751
0.150525 0.1 1.2 1.00595 0.00980258 0.0124341
1.11155 0.1 -0.485959 0.893109 0.0463579 -0.105411
1.11155 0.1 0.485959 0.892416 0.0465767 0.104137
1.21556 0.1 -4.06576e-19 0.816841 0.064445 -0.000812495
1.15879 0.1 0.37237 0.862562 0.0553448 0.0927745
0.467897 0.1 -1.125 1.00699 0.0135435 -0.0389862
0.467897 0.1 1.125 1.00685 0.013582 0.0388372
1.07753 0.1 -0.568989 0.912685 0.0402675 -0.108808
1.07753 0.1 0.568989 0.912014 0.0404798 0.107766
0.6239 0.1 -1.05 1.00178 0.015468 -0.054898
0.6239 0.1 1.05 1.00153 0.0155312 0.0546654
1.21556 0.1 0.128394 0.820628 0.0640034 0.037733
1.21556 0.1 -0.128444 0.820838 0.0639563 -0.0393442
0.90582 0.1 -0.825 0.970084 0.0225625 -0.0922038
0.905821 0.1 0.825 0.969523 0.0227027 0.0916614
1.15879 0.1 -0.402362 0.867356 0.0544078 -0.100098
1.18208 0.1 -0.329479 0.851648 0.0583273 -0.0887578
1.18208 0.1 0.329479 0.851163 0.0584578 0.087298
1.03609 0.1 -0.65876 0.933497 0.033826 -0.108821
1.03609 0.1 0.65876 0.933065 0.0340552 0.108795
0 0.1 -1.23151 1 0 0
0 0.1 1.23151 1 0 0
0.0318387 0.1 -1.23151 1.00133 0.00361407 -0.00295462
0.0318387 0.1 1.23151 1.00133 0.00361628 0.00294721
0.287505 0.1 1.2 1.00862 0.0113846 0.0229188
0.287505 0.1 -1.2 1.00867 0.0113654 -0.0229948
0.756813 0.1 -0.975 0.993112 0.0174501 -0.0713532
0.756813 0.1 0.975 0.992744 0.0175418 0.0710221
1.21556 0.1 0.256787 0.83184 0.0626334 0.0738632
1.21556 0.1 -0.256887 0.832259 0.062535 -0.075429
0.99151 0.1 0.75 0.951721 0.0282607 0.105945
1.24616 0.1 -0.0626919 0.804836 0.0670906 -0.0210969
1.24616 0.1 0.0626919 0.804724 0.0671134 0.0193888
0.99151 0.1 -0.760504 0.951099 0.0282496 -0.105199
0.871758 0.1 -0.9 0.97992 0.0203993 -0.0872028
0.871758 0.1 0.9 0.979409 0.0205249 0.0867536
1.24616 0.1 -0.188076 0.813098 0.0662232 -0.0603
1.24616 0.1 0.188076 0.812756 0.0662919 0.0586185
0.574156 0.1 1.125 1.00515 0.0145907 0.0492938
0.574156 0.1 -1.125 1.00536 0.0145362 -0.0494739
0.411227 0.1 -1.2 1.00841 0.0126089 -0.0333951
0.411227 0.1 1.2 1.0083 0.0126398 0.0332873
1.18208 0.1 -0.461271 0.871241 0.0546984 -0.116061
1.18208 0.1 0.461271 0.870557 0.0548982 0.114688
1.26973 0.1 -3.46945e-17 0.794299 0.069013 -0.00132029
0.715059 0.1 -1.05 0.998602 0.0162691 -0.0655244
0.715059 0.1 1.05 0.998277 0.0163501 0.0652586
0.969689 0.1 -0.825 0.962993 0.024933 -0.103626
0.96969 0.1 0.825 0.962326 0.0251066 0.103043
1.2155 0.1 0.384884 0.849321 0.0602349 0.105301
1.11155 0.1 -0.624804 0.914894 0.0409687 -0.122298
1.11155 0.1 0.624804 0.91402 0.041243 0.121225
1.21556 0.1 -0.385405 0.850006 0.0600695 -0.106865
1.26973 0.1 -0.123027 0.798778 0.0685767 -0.0422716
1.26973 0.1 0.123027 0.798361 0.0686482 0.039671
1.15879 0.1 -0.536483 0.883414 0.0509884 -0.118639
1.15879 0.1 0.536483 0.8887 0.0496692 0.121253
0.075776 0.1 -1.275 1.00324 0.00878986 -0.00702931
0.075776 0.1 1.275 1.00324 0.00879482 0.00701167
0.835106 0.1 -0.975 0.988561 0.0184837 -0.0823085
0.835106 0.1 0.975 0.988096 0.0185964 0.0819433
1.24616 0.1 0.313459 0.82817 0.0646741 0.094285
1.24616 0.1 -0.313459 0.828729 0.0645498 -0.0959027
1.07753 0.1 -0.711236 0.93424 0.0349195 -0.12085
1.07753 0.1 0.711236 0.933441 0.0351656 0.119986
1.26973 0.1 -0.246055 0.811374 0.0673556 -0.0807444
1.26973 0.1 0.246055 0.81056 0.0675002 0.078266
0.219993 0.1 1.275 1.00891 0.0106595 0.0174817
0.219993 0.1 -1.275 1.00894 0.0106457 -0.0175275
0.938924 0.1 -0.9 0.974017 0.0221426 -0.098316
0.938924 0.1 0.9 0.973396 0.0222962 0.097831
1.30421 0.1 -0.0597894 0.779147 0.0722291 -0.0226818
1.30421 0.1 0.0597894 0.778975 0.0722624 0.0204643
0.522972 0.1 -1.2 1.00759 0.0136761 -0.0436695
0.522972 0.1 1.2 1.00742 0.0137215 0.0435353
0.67013 0.1 -1.125 1.00324 0.0152315 -0.0598996
0.67013 0.1 1.125 1.00296 0.0153025 0.0596919
1.03609 0.1 0.805151 0.952925 0.0291984 0.115543
1.03609 0.1 -0.805151 0.95374 0.0287535 -0.114409
1.30421 0.1 -0.179368 0.788294 0.071442 -0.0645364
1.30421 0.1 0.179368 0.787777 0.0715513 0.0623645
0.797393 0.1 -1.05 0.995103 0.0170718 -0.0761271
0.797393 0.1 1.05 0.994687 0.0171721 0.0758319
0 0.1 -1.31849 1 0 0
0 0.1 1.31849 1 0 0
0.0318387 0.1 -1.31849 1.00133 0.00361407 -0.00295462
0.0318387 0.1 1.31849 1.00133 0.00361628 0.00294721
1.2155 0.1 -0.513636 0.872503 0.0561272 -0.132005
1.21591 0.1 0.513636 0.871983 0.0562689 0.130636
1.24616 0.1 0.438843 0.84954 0.0620959 0.124271
1.24616 0.1 -0.438843 0.850326 0.0619216 -0.125811
0.350249 0.1 -1.275 1.00932 0.0117673 -0.0278824
0.350249 0.1 1.275 1.00925 0.0117891 0.0278082
1.26973 0.1 0.369082 0.828282 0.0657551 0.110237
1.18208 0.1 -0.593062 0.894778 0.0493132 -0.136122
1.18208 0.1 0.593062 0.893891 0.0495969 0.134948
1.2659 0.1 -0.393285 0.830918 0.0653488 -0.114464
0.905821 0.1 -0.975 0.983734 0.019674 -0.0933239
0.90582 0.1 0.975 0.983174 0.0198097 0.0929253
1.3344 0.1 0 0.76112 0.0751799 -0.000974631
1.15406 0.1 -0.670604 0.911549 0.0437909 -0.135291
1.30421 0.1 0.298947 0.80471 0.0700815 0.100697
1.30421 0.1 -0.298947 0.805546 0.0699105 -0.102767
1.15879 0.1 0.670604 0.912306 0.0438462 0.136299
0.99151 0.1 -0.9 0.969245 0.0240983 -0.108488
0.99151 0.1 0.9 0.96784 0.0245044 0.10854
1.3344 0.1 -0.11656 0.76611 0.074747 -0.045374
1.3344 0.1 0.11656 0.765822 0.0748305 0.0434349
1.11155 0.1 -0.76365 0.933722 0.0363415 -0.132039
1.11155 0.1 0.76365 0.936759 0.03539 0.130707
0 0.1 -1.35 1 0 0
0 0.1 1.35 1 0 0
0.6239 0.1 -1.2 1.00634 0.014386 -0.0538178
0.6239 0.1 1.2 1.0061 0.0144473 0.0536613
1.3344 0.1 -0.23312 0.780287 0.0735474 -0.0872909
1.3344 0.1 0.23312 0.779713 0.0737152 0.0853953
0.756814 0.1 1.125 1.00033 0.0159007 0.0700168
0.756814 0.1 -1.125 1.0007 0.0158125 -0.070248
0.467897 0.1 -1.275 1.00924 0.0129311 -0.0380287
0.467897 0.1 1.275 1.00911 0.0129677 0.0379334
0.150525 0.1 1.35 1.00622 0.00966386 0.0120695
0.150525 0.1 -1.35 1.00623 0.00965447 -0.0120934
1.35938 0.1 -0.0570311 0.750288 0.0780981 -0.024201
1.35938 0.1 0.0570311 0.750127 0.078146 0.022022
1.26973 0.1 -0.492109 0.853567 0.0624809 -0.140012
1.26973 0.1 0.492109 0.854199 0.0624075 0.139698
0.871758 0.1 -1.05 0.991371 0.0180008 -0.0867069
0.871758 0.1 1.05 0.99086 0.0181225 0.0863853
1.24616 0.1 -0.564227 0.875996 0.0574316 -0.148718
1.24616 0.1 0.564227 0.875007 0.057714 0.147352
1.30421 0.1 -0.418526 0.829377 0.0677099 -0.135036
1.30421 0.1 0.418526 0.823856 0.0686557 0.131658
1.35938 0.1 -0.171093 0.76035 0.077177 -0.0690966
1.35938 0.1 0.171093 0.759855 0.0773395 0.0669444
1.07753 0.1 -0.853484 0.955584 0.0295023 -0.12587
1.07753 0.1 0.853484 0.954706 0.029756 0.12521
1.21591 0.1 -0.642045 0.89831 0.0504263 -0.149008
1.21591 0.1 0.642045 0.897294 0.0507413 0.147833
0.969689 0.1 -0.975 0.979286 0.0213248 -0.104018
0.969689 0.1 0.975 0.97859 0.0214888 0.103602
1.3344 0.1 0.34968 0.801445 0.071925 0.122462
1.3344 0.1 -0.34968 0.802308 0.0717047 -0.124284
0.287505 0.1 1.35 1.00943 0.011106 0.0222351
0.287505 0.1 -1.35 1.00948 0.0110875 -0.0222801
0 0.1 -1.38151 1 0 0
0 0.1 1.38151 1 0 0
0.0318387 0.1 1.38151 1.00137 0.00357997 0.002821
0.0318387 0.1 -1.38151 1.00137 0.00357849 -0.00282459
1.18208 0.1 -0.724854 0.919866 0.0428397 -0.147451
1.18208 0.1 0.724854 0.918851 0.0431698 0.146466
1.35938 0.1 -0.285156 0.779318 0.0754706 -0.110371
1.35938 0.1 0.285156 0.778501 0.0757277 0.108302
1.39501 0.1 -1.73472e-17 0.72453 0.0825761 -0.00105998
0.715059 0.1 1.2 1.00436 0.0149622 0.0636658
0.715059 0.1 -1.2 1.00469 0.0148842 -0.0638411
0.574156 0.1 1.275 1.0086 0.0137155 0.0478605
0.574156 0.1 -1.275 1.0088 0.0136638 -0.0479724
1.39501 0.1 -0.110499 0.730111 0.0820405 -0.0490944
1.39501 0.1 0.110499 0.729807 0.0821862 0.0469783
0.835106 0.1 -1.125 0.998087 0.0164925 -0.0804617
0.835106 0.1 1.125 0.997624 0.0166005 0.0802089
1.03609 0.1 -0.951542 0.97536 0.0235395 -0.114527
1.03609 0.1 0.951542 0.972002 0.0246081 0.116863
0.938924 0.1 1.05 0.987205 0.0193488 0.0967203
1.15879 0.1 -0.804724 0.937301 0.0370646 -0.144316
1.15879 0.1 0.804724 0.936284 0.0373872 0.143497
1.30421 0.1 0.538105 0.856308 0.0644295 0.158325
1.30421 0.1 -0.538105 0.853273 0.0646365 -0.156078
1.26973 0.1 -0.615137 0.883337 0.0572127 -0.160679
1.26973 0.1 0.615137 0.881639 0.0576576 0.159061
0.411227 0.1 1.35 1.00992 0.0121882 0.0321738
0.411227 0.1 -1.35 1.01002 0.0121595 -0.0322359
1.39389 0.1 -0.221221 0.746588 0.0804791 -0.0954782
1.41134 0.1 -0.0544329 0.715844 0.0845964 -0.0258867
1.41134 0.1 0.0544329 0.715697 0.0846659 0.0237266
1.39501 0.1 0.220998 0.745352 0.0808576 0.0925282
1.3344 0.1 0.46624 0.829246 0.069318 0.15272
1.3344 0.1 -0.46624 0.830377 0.0690506 -0.15441
0.938924 0.1 -1.0605 0.987678 0.0192229 -0.0969738
1.35938 0.1 -0.399218 0.805562 0.0732283 -0.145419
1.35938 0.1 0.399218 0.804387 0.0735245 0.143459
1.41134 0.1 -0.163299 0.727071 0.0835403 -0.0740899
1.41134 0.1 0.163299 0.726615 0.0837973 0.0719331
1.24616 0.1 -0.68961 0.903284 0.0513522 -0.162281
1.24616 0.1 0.68961 0.902158 0.0517027 0.161131
0.075776 0.1 -1.425 1.00332 0.00870732 -0.00671942
0.075776 0.1 1.425 1.00331 0.00871075 0.00671085
1.11155 0.1 -0.902495 0.959527 0.0292474 -0.133761
1.11155 0.1 0.902495 0.958493 0.0295472 0.133158
1.39389 0.1 -0.331832 0.771413 0.0782241 -0.13576
1.39501 0.1 0.331497 0.769685 0.0787076 0.133034
1.43681 0.1 -1.56125e-18 0.694269 0.086513 -0.00120165
1.41134 0.1 -0.272165 0.74823 0.0814908 -0.118668
1.41134 0.1 0.272165 0.747428 0.0818806 0.116568
1.21591 0.1 -0.770454 0.924277 0.0436938 -0.157691
1.21591 0.1 0.770454 0.923143 0.044056 0.156738
0.67013 0.1 -1.275 1.00799 0.0140845 -0.0577408
0.67013 0.1 1.275 1.00772 0.0141519 0.0576151
1.43681 0.1 0.106319 0.700055 0.0862909 0.0496272
0.797393 0.1 -1.2 1.00281 0.0153636 -0.0737107
0.797393 0.1 1.2 1.0024 0.0154601 0.0735193
1.43713 0.1 -0.107481 0.699986 0.0861146 -0.0515434
0.219992 0.1 1.425 1.00924 0.0104564 0.0167584
0.219993 0.1 -1.425 1.00926 0.0104414 -0.0167816
0.99151 0.1 1.05 0.984128 0.0208825 0.106908
0.99151 0.1 -1.05 0.984024 0.0208273 -0.106979
0.90582 0.1 -1.125 0.995136 0.0172972 -0.0906209
0.90582 0.1 1.125 0.994581 0.017427 0.0903514
0.522972 0.1 1.35 1.01004 0.0130471 0.0418414
0.522972 0.1 -1.35 1.0102 0.0130053 -0.041915
1.43681 0.1 0.212638 0.717098 0.0853177 0.0979546
1.43681 0.1 -0.212638 0.715067 0.0850314 -0.100726
1.35938 0.1 -0.51328 0.83499 0.0705687 -0.172817
1.35938 0.1 0.51328 0.83398 0.0708382 0.171098
1.3344 0.1 0.582801 0.860503 0.0656287 0.174473
1.3344 0.1 -0.582801 0.861817 0.0653073 -0.175974
1.45847 0.1 -0.0520767 0.677985 0.0886091 -0.0276709
1.45847 0.1 0.0520767 0.677821 0.0886769 0.0253456
1.18208 0.1 -0.856645 0.944323 0.0359081 -0.151278
1.18208 0.1 0.856645 0.943227 0.0362583 0.150531
1.30421 0.1 0.657684 0.886083 0.0595449 0.174338
1.30421 0.1 -0.657684 0.887609 0.0591539 -0.175765
1.41134 0.1 0.38103 0.776326 0.0792492 0.154673
1.41134 0.1 -0.38103 0.777469 0.0787726 -0.156699
1.39423 0.1 -0.441996 0.800289 0.0755928 -0.166304
1.39501 0.1 0.441996 0.799785 0.0760141 0.165398
1.45847 0.1 -0.15623 0.690589 0.0880842 -0.0792502
1.45847 0.1 0.15623 0.690161 0.0883827 0.0769178
1.07753 0.1 -0.995731 0.975049 0.0245712 -0.124489
1.07753 0.1 0.995731 0.974149 0.0248104 0.12404
0.350249 0.1 -1.425 1.0104 0.0114723 -0.0266501
0.350249 0.1 1.425 1.01033 0.0114954 0.0266139
0 0.1 1.46849 1 0 0
0 0.1 -1.46849 1 0 0
1.26973 0.1 -0.738164 0.911348 0.050865 -0.171084
1.26973 0.1 0.738164 0.909547 0.0513954 0.16986
0.0318387 0.1 1.46849 1.00137 0.00357997 0.002821
0.0318387 0.1 -1.46849 1.00137 0.00357849 -0.00282459
1.43681 0.1 -0.318958 0.74227 0.0831133 -0.144078
1.43681 0.1 0.318958 0.743703 0.0834593 0.141152
1.45847 0.1 -0.260383 0.71432 0.0866983 -0.127209
1.45847 0.1 0.260383 0.713512 0.0872168 0.124915
1.48215 0.1 -7.80626e-18 0.653255 0.0855327 -0.00140079
0.756814 0.1 -1.275 1.00684 0.0143768 -0.0673213
0.756814 0.1 1.275 1.00648 0.0144617 0.0671851
0.871758 0.1 1.2 1.00027 0.0160561 0.0832391
0.969689 0.1 1.125 0.992487 0.0186055 0.099917
0.969689 0.1 -1.125 0.993164 0.0184472 -0.1002
1.48215 0.1 0.101785 0.659751 0.0858222 0.0527502
1.48215 0.1 -0.117861 0.660169 0.0856991 -0.0555484
0.6239 0.1 1.35 1.00984 0.0135379 0.0512626
0.6239 0.1 -1.35 1.01008 0.0134816 -0.0513437
1.24616 0.1 -0.814994 0.930017 0.0440571 -0.168145
1.24616 0.1 0.814994 0.928775 0.0444553 0.167235
1.15879 0.1 -0.938845 0.959817 0.0306629 -0.143952
1.15879 0.1 0.938845 0.958748 0.0309883 0.143377
0.871758 0.1 -1.2105 1.00068 0.0159598 -0.0833748
1.41134 0.1 0.489896 0.811701 0.0759675 0.184713
1.41134 0.1 -0.489896 0.81323 0.0754521 -0.186523
1.48215 0.1 0.203569 0.678866 0.0863181 0.104459
1.48215 0.1 -0.203569 0.679691 0.0859984 -0.107241
1.43447 0.1 -0.4286 0.777297 0.0802582 -0.179752
1.35938 0.1 0.627342 0.868353 0.0669001 0.189724
1.35938 0.1 -0.627342 0.87077 0.0661703 -0.190432
1.43713 0.1 0.423956 0.777228 0.0807093 0.176558
1.39501 0.1 0.550542 0.83592 0.0727832 0.191394
0.467897 0.1 1.425 1.011 0.0124709 0.0361004
0.467897 0.1 -1.425 1.01113 0.012438 -0.0361429
0 0.1 -1.5 1 0 0
0 0.1 1.5 1 0 0
1.39501 0.1 -0.552495 0.827964 0.0731547 -0.188233
1.45847 0.1 0.364537 0.745711 0.0850932 0.16613