# UMean  POINT_DATA 24593
# x  y  z  UMean_x  UMean_y  UMean_z
0 0 0 0.586718 0 0
0 0.00775273 0 1 0 0
0 0.0161245 0 1 0 0
0 0.0251646 0 1 0 0
0 0.0349265 0 1 0 0
0 0.0454678 0 1 0 0
0 0.0568507 0 1 0 0
0 0.0691424 0 1 0 0
0.075776 0.00387637 6.93889e-18 0.859505 0.0060075 -3.69519e-05
0.075776 0.0119386 0 0.982573 0.011677 -3.93432e-05
0.075776 0.0206445 0 1.0001 0.0126919 -3.99501e-05
0.075776 0.0300455 0 1.00305 0.012308 -4.12868e-05
0 0.0824156 0 1 0 0
0.075776 0.0401972 0 1.0038 0.0118597 -4.13691e-05
0.075776 0.0511593 0 1.00401 0.0113994 -4.19533e-05
0 0.0967484 0 1 0 0
0.075776 0.0629965 0 1.00402 0.0109124 -4.25436e-05
0.075776 0.075779 0 1.00389 0.0103979 -4.30472e-05
0 0.112226 0 1 0 0
0.075776 0.089582 0 1.00366 0.00987014 -4.3396e-05
0 0.128939 0 1 0 0
0.075776 0.104487 0 1.00335 0.00934863 -4.36357e-05
0.075776 0.120582 0 1.00298 0.00883173 -4.38058e-05
0 0.146986 0 1 0 0
0.151552 0 0 0 0 0
0.151552 0.00775273 0 0.874141 0.00875989 -7.36741e-05
0.151552 0.0161245 0 0.97927 0.0115862 -7.64166e-05
0.151552 0.0251646 0 0.999424 0.0122042 -7.46554e-05
0.151552 0.0349265 0 1.00329 0.0121629 -7.35133e-05
0.075776 0.137962 -6.93889e-18 1.00258 0.00831523 -4.3966e-05
0.151552 0.0454678 0 1.00413 0.0119919 -7.29587e-05
0.151552 0.0568507 0 1.00423 0.0117649 -7.24433e-05
0 0.166474 0 1 0 0
0.151552 0.0691424 0 1.00406 0.0115077 -7.20712e-05
0.151552 0.0824156 0 1.00377 0.0112338 -7.17921e-05
0.075776 0.15673 0 1.00218 0.0078163 -4.40143e-05
0.151552 0.0967484 0 1.0034 0.0109541 -7.15678e-05
0 0.187518 0 1 0 0
0.151552 0.112226 0 1.00299 0.0106735 -7.13931e-05
0.075776 0.176996 0 1.00178 0.00734394 -4.38556e-05
0.151552 0.128939 0 1.00254 0.0103912 -7.12552e-05
0 0.210243 0 1 0 0
0.151552 0.146986 0 1.00207 0.0101129 -7.11157e-05
0.075776 0.198881 0 1.00139 0.00690431 -4.34783e-05
0.219992 0.00387637 0 0.715996 0.0070199 -0.000101584
0.219993 0.0119386 0 0.942973 0.0103435 -0.000113436
0.219992 0.0206446 0 0.992585 0.0116895 -0.000109437
0.219993 0.0300455 6.93889e-18 1.00216 0.0121554 -0.000104709
0.219992 0.0401971 6.93889e-18 1.00417 0.0123209 -0.000103627
0.151552 0.166474 0 1.0016 0.00984771 -7.09484e-05
0.219992 0.0511592 0 1.00452 0.012353 -0.000101909
0.219992 0.0629965 0 1.00434 0.0123369 -0.000100498
0.219992 0.075779 0 1.00398 0.0123027 -9.94154e-05
0 0.234781 0 1 0 0
0.075776 0.222512 6.93889e-18 1.001 0.0065217 -4.29463e-05
0.219992 0.089582 0 1.00354 0.0122599 -9.85973e-05
0.151552 0.187518 0 1.00111 0.00960118 -7.07468e-05
0.219992 0.104487 0 1.00306 0.0122101 -9.79811e-05
0.219992 0.120582 0 1.00257 0.0121533 -9.75267e-05
0.151552 0.210243 0 1.00062 0.00938511 -7.05134e-05
0.075776 0.24803 6.93889e-18 1.00062 0.00619587 -4.23748e-05
0.219992 0.137962 6.93889e-18 1.00205 0.0120921 -9.71305e-05
0 0.261279 0 1 0 0
0.219992 0.15673 0 1.00151 0.0120342 -9.67863e-05
0.151552 0.234781 0 1.00012 0.00920956 -7.02883e-05
0.219992 0.176996 0 1.00095 0.0119821 -9.65854e-05
0.075776 0.275586 6.93889e-18 1.0003 0.00591494 -4.17387e-05
0.288433 0 0 0 0 0
0.288433 0.00775273 0 0.782194 0.00815432 -0.000140415
0.288433 0.0161245 0 0.947419 0.0108598 -0.000146618
0.288433 0.0251646 0 0.989018 0.0121361 -0.000140654
0 0.289893 0 1 0 0
0.288433 0.0349265 0 0.998461 0.0126521 -0.000136357
0.288433 0.0454678 0 1.00071 0.0128998 -0.000133783
0.288433 0.0568507 0 1.00119 0.0130617 -0.000131549
0.219992 0.19888 0 1.00036 0.0119406 -9.65135e-05
0.288433 0.0691424 0 1.00111 0.0131914 -0.000129793
0.288433 0.0824156 0 1.00084 0.0133069 -0.000128425
0.151552 0.261279 0 0.999663 0.00907384 -7.00851e-05
0.288433 0.0967484 0 1.00047 0.0134137 -0.000127363
0.288433 0.112226 0 1.00006 0.0135171 -0.00012657
0.219992 0.222512 0 0.999766 0.0119221 -9.65447e-05
0.075776 0.305342 6.93889e-18 1.00007 0.00569655 -4.09507e-05
0.288433 0.128939 0 0.9996 0.0136231 -0.000125989
0 0.320791 0 1 0 0
0.288433 0.146986 0 0.999098 0.0137344 -0.000125569
0.151552 0.289893 0 0.99927 0.00898254 -6.98347e-05
0.219992 0.24803 -6.93889e-18 0.999175 0.0119306 -9.66911e-05
0.288433 0.166474 0 0.998551 0.0138545 -0.000125334
0.288433 0.187518 0 0.997967 0.0139878 -0.000125291
0.075776 0.337473 -6.93889e-18 0.999887 0.0055448 -4.0044e-05
0.350249 0.00387636 0 0.58867 0.00573679 -0.00015959
0.350249 0.0119386 0 0.885206 0.00956262 -0.000184243
0.350249 0.0206445 0 0.970658 0.0118574 -0.000176352
0.350249 0.0300455 0 0.991383 0.0128239 -0.000169252
0.350249 0.0401972 0 0.996536 0.013273 -0.000165092
0.219992 0.275586 0 0.99863 0.0119709 -9.69084e-05
0.350249 0.0511592 6.93889e-18 0.997923 0.0136044 -0.000161859
0 0.354155 0 1 0 0
0.151552 0.320791 0 0.998956 0.00894515 -6.94508e-05
0.350249 0.0629966 0 0.998232 0.0138915 -0.000159344
0.288433 0.210243 0 0.997358 0.0141401 -0.000125398
0.350249 0.075779 0 0.998159 0.0141604 -0.000157372
0.350249 0.089582 0 0.997923 0.0144173 -0.000155809
0.350249 0.104487 6.93889e-18 0.997608 0.0146671 -0.000154593
0.350249 0.120582 6.93889e-18 0.997226 0.0149246 -0.000153728
0.288433 0.234781 0 0.996742 0.0143174 -0.000125615
0.219993 0.305342 0 0.99817 0.0120507 -9.70777e-05
0.350249 0.137962 0 0.99678 0.0151949 -0.000153136
0.075776 0.37217 0 0.999748 0.00544397 -3.90912e-05
0.350249 0.15673 0 0.996271 0.0154747 -0.000152799
0.151552 0.354155 0 0.9987 0.00896254 -6.89061e-05
0.288433 0.261279 0 0.996146 0.0145235 -0.0001259
3.73903e-17 0.390184 6.16298e-33 1 1.76235e-18 -2.51562e-19
0.350249 0.176996 0 0.9957 0.0157708 -0.000152739
0.350249 0.198881 -6.93889e-18 0.995085 0.0160864 -0.000152898
0.219992 0.337473 0 0.997794 0.0121788 -9.70323e-05
0.288433 0.289893 0 0.995609 0.0147644 -0.000126166
0.412065 9.56361e-19 0 8.10341e-17 7.89615e-19 -6.26832e-19
0.412065 0.00775273 0 0.690768 0.00743376 -0.000203949
0.412065 0.0161245 1.85035e-18 0.903142 0.0110738 -0.000215657
0.412065 0.0251646 1.85035e-18 0.9687 0.0130336 -0.000206419
0.412065 0.0349265 1.85035e-18 0.986235 0.0139226 -0.000199366
0.412065 0.0454678 1.85035e-18 0.991144 0.0144537 -0.000194674
0.350249 0.222512 0 0.994446 0.0164253 -0.0001532
0.412065 0.0568507 1.85035e-18 0.992662 0.0148806 -0.000191172
0.075776 0.409637 0 0.999636 0.00539631 -3.82974e-05
0.412065 0.0691424 0 0.993113 0.0152664 -0.000188484
0.151552 0.390184 -4.62596e-18 0.998489 0.00903008 -6.82295e-05
0.412065 0.0824156 0 0.993156 0.0156322 -0.00018643
0.412065 0.0967484 1.85035e-18 0.993017 0.0159908 -0.000184916
0.412065 0.112226 1.85035e-18 0.992771 0.0163622 -0.000183833
0 0.42909 0 1 0 0
0.350249 0.24803 0 0.993809 0.0167905 -0.000153583
0.288433 0.320791 0 0.995152 0.0150479 -0.000126273
0.412065 0.128939 0 0.992438 0.0167508 -0.000183082
0.219992 0.372169 6.93889e-18 0.997475 0.0123608 -9.67324e-05
0.412065 0.146986 1.85035e-18 0.992024 0.0171537 -0.000182601
0.412065 0.166474 1.85035e-18 0.991538 0.0175756 -0.000182378
0.350249 0.275586 0 0.993203 0.0171864 -0.000153974
0.412065 0.187518 1.85035e-18 0.990992 0.0180215 -0.000182384
0.151552 0.42909 0 0.998319 0.00914616 -6.74613e-05
0.075776 0.450095 0 0.999549 0.00539913 -3.75968e-05
0.288433 0.354155 0 0.994774 0.0153811 -0.0001261
0.412065 0.210243 0 0.990405 0.0184944 -0.000182561
0.350249 0.305342 0 0.992664 0.0176197 -0.000154261
0.219992 0.409637 -6.93889e-18 0.997207 0.0125858 -9.60658e-05
0.467897 0.00387636 6.93889e-18 0.473934 0.00461918 -0.000214072
0.467897 0.0119386 -6.93889e-18 0.818809 0.00983344 -0.000255467
0.467897 0.0206445 6.93889e-18 0.939791 0.0130147 -0.000243883
0.467897 0.0300455 0 0.973905 0.014386 -0.000233639
0.467897 0.0401972 0 0.983701 0.0151413 -0.00022704
0.467897 0.0511592 0 0.986878 0.0157192 -0.000222342
0 0.471101 0 1 0 0
0.467897 0.0568507 0 0.986732 0.0160525 -0.00022117
0.467897 0.0629965 0 0.988025 0.0162216 -0.000218828
0.467897 0.075779 0 0.988421 0.0166984 -0.000216112
0.412065 0.234781 0 0.989803 0.0189971 -0.000182837
0.467897 0.089582 0 0.988491 0.0171515 -0.000214171
0.467897 0.104487 0 0.988404 0.0176183 -0.000212845
0.467897 0.120582 0 0.988198 0.0181207 -0.000211927
0.288433 0.390184 7.40152e-18 0.994467 0.0157641 -0.000125555
0.350249 0.337473 0 0.992214 0.0180984 -0.000154283
0.467897 0.137962 0 0.987891 0.0186359 -0.000211301
0.412065 0.261279 0 0.989212 0.0195332 -0.000183134
0.467897 0.15673 0 0.987494 0.0191726 -0.000210939
0.151552 0.471101 -4.62596e-18 0.998193 0.00931074 -6.66229e-05
0.075776 0.493784 0 0.999486 0.00544605 -3.69254e-05
0.467897 0.176996 0 0.987021 0.0197379 -0.00021081
0.219992 0.450095 0 0.997 0.0128591 -9.51695e-05
0.412065 0.289893 0 0.988664 0.0201075 -0.000183351
0.467897 0.19888 0 0.986491 0.0203344 -0.000210873
0.350249 0.372169 -6.93889e-18 0.991851 0.0186287 -0.000153923
3.73903e-17 0.516467 -6.16298e-33 1 1.71088e-18 2.02811e-19
0.288433 0.42909 0 0.994231 0.0161956 -0.000124629
0.467897 0.222512 0 0.985926 0.0209644 -0.000211063
0.412065 0.320791 1.85035e-18 0.988191 0.0207266 -0.000183354
0.523729 0 0 0 0 0
0.523729 0.00775273 1.85035e-18 0.601887 0.00714122 -0.000266545
0.523729 0.0161245 0 0.851796 0.0119152 -0.000285746
0.523729 0.0251646 0 0.941839 0.0144812 -0.000272734
0.523729 0.0349265 0 0.969155 0.0157603 -0.000262582
0.523729 0.0454678 0 0.977773 0.0165767 -0.000255901
0.523729 0.0511593 0 0.979288 0.0169006 -0.000253534
0.523729 0.0568507 0 0.980802 0.0172245 -0.000251167
0.523729 0.0691424 0 0.98198 0.0178093 -0.00024767
0.467897 0.24803 0 0.985353 0.0216306 -0.000211303
0.523729 0.0824156 0 0.982436 0.0183644 -0.000245123
0.523729 0.0967484 0 0.98257 0.018919 -0.000243379
0.523729 0.112226 0 0.982526 0.0195036 -0.000242211
0.151552 0.516467 0 0.998109 0.00952038 -6.57076e-05
0.350249 0.409637 0 0.991572 0.01921 -0.000153086
0.523729 0.128939 0 0.982351 0.0201156 -0.000241411
0.219992 0.493784 -6.93889e-18 0.996856 0.0131839 -9.41135e-05
0.467897 0.275586 6.93889e-18 0.984801 0.0223367 -0.000211491
0.412065 0.354155 0 0.987809 0.0213971 -0.000183001
0.523729 0.146986 0 0.982068 0.0207504 -0.000240884
0.075776 0.540961 -6.93889e-18 0.999444 0.00553163 -3.62413e-05
0.523729 0.166474 0 0.981695 0.0214171 -0.000240591
0.288433 0.471101 0 0.994069 0.016678 -0.000123398
0.523729 0.187518 0 0.981251 0.0221208 -0.000240486
0.467897 0.305342 0 0.984305 0.0230877 -0.000211508
0.523729 0.210243 0 0.980758 0.0228639 -0.000240512
0 0.565455 0 1 0 0
0.467897 0.320791 0 0.983523 0.0235075 -0.000211754
0.412065 0.390184 1.85035e-18 0.987522 0.0221222 -0.000182179
0.350249 0.450095 0 0.991379 0.0198434 -0.000151808
0.523729 0.234781 0 0.980242 0.0236489 -0.000240593
0.574157 0.00387636 0 0.37014 0.00364622 -0.000266129
0.574156 0.0119386 6.93889e-18 0.747686 0.0104726 -0.000328402
0.574156 0.0206445 0 0.902755 0.0143079 -0.000312825
0.574156 0.0300455 0 0.951914 0.0161643 -0.000298322
0.574156 0.0401971 -6.93889e-18 0.967744 0.0172835 -0.000289178
0.574156 0.0511592 0 0.973272 0.0180866 -0.000282965
0.467897 0.337473 0 0.983894 0.0238902 -0.000211212
0.574156 0.0629965 0 0.975476 0.0187872 -0.000278499
0.574157 0.075779 -6.93889e-18 0.976414 0.0194406 -0.000275233
0.574156 0.0824156 0 0.976003 0.0197502 -0.000274607
0.574156 0.089582 0 0.97682 0.0200718 -0.000272983
0.574156 0.104487 0 0.976957 0.0207329 -0.000271533
0.219993 0.540961 0 0.996772 0.0135548 -9.29028e-05
0.523729 0.261279 0 0.979732 0.0244787 -0.000240639
0.151552 0.565455 0 0.998063 0.00976933 -6.46947e-05
0.574156 0.120582 0 0.976927 0.0214343 -0.000270561
0.574156 0.137962 0 0.976764 0.0221569 -0.000269882
0.288433 0.516467 -6.16298e-33 0.993983 0.0172097 -0.000121905
0.412065 0.42909 1.85035e-18 0.987332 0.0229028 -0.00018084
0.574156 0.15673 6.93889e-18 0.976493 0.0229145 -0.000269447
0.075776 0.591904 -6.93889e-18 0.999419 0.00564931 -3.55182e-05
0.467897 0.372169 -6.93889e-18 0.983586 0.0247497 -0.000210457
0.523729 0.289893 0 0.979259 0.0253568 -0.000240537
0.574156 0.176996 0 0.976137 0.0237145 -0.000269206
0.350249 0.493784 0 0.991274 0.0205289 -0.00015015
0.574157 0.198881 0 0.975717 0.0245598 -0.000269103
0.523729 0.320791 0 0.978856 0.0262884 -0.000240155
0.574156 0.222512 0 0.975257 0.0254525 -0.000269066
3.73903e-17 0.618354 -6.16298e-33 1 1.87225e-18 2.03016e-19
0.467897 0.409637 6.93889e-18 0.983385 0.0256683 -0.000209146
0.624584 0 0 0 0 0
0.624584 0.00775273 0 0.515119 0.0068384 -0.000328983
0.624584 0.0161245 0 0.795307 0.0126367 -0.000358496
0.624584 0.0251646 0 0.909808 0.0158067 -0.000340489
0.574156 0.24803 6.93889e-18 0.974787 0.0263952 -0.000269013
0.624584 0.0349265 0 0.948381 0.0175656 -0.000326339
0.412065 0.471101 0 0.987242 0.0237388 -0.000179009
0.624584 0.0454678 0 0.961621 0.0187029 -0.000317385
0.624584 0.0568507 0 0.966558 0.0195892 -0.000311341
0.624584 0.0691424 0 0.968627 0.0203836 -0.000307076
0.624584 0.075779 0 0.969098 0.0207598 -0.000305584
0.624584 0.0824156 1.85035e-18 0.969569 0.021136 -0.000304091
0.219992 0.591905 0 0.996741 0.0139663 -9.15168e-05
0.624584 0.0967484 0 0.970018 0.0218966 -0.00030209
0.523729 0.354155 0 0.978549 0.0272789 -0.000239348
0.412065 0.482442 -6.16298e-33 0.987245 0.0239612 -0.000178438
0.624584 0.112226 1.85035e-18 0.970201 0.0226927 -0.000300777
0.288433 0.565455 0 0.993969 0.0177852 -0.000120154
0.151552 0.618354 -6.16298e-33 0.998051 0.010051 -6.35617e-05
0.574156 0.275586 0 0.974336 0.0273904 -0.000268837
0.624584 0.128939 0 0.970205 0.0235178 -0.00029988
0.624584 0.146986 0 0.970073 0.0243738 -0.000299253
0.350249 0.540961 6.93889e-18 0.991258 0.0212622 -0.000148146
0.624584 0.166474 0 0.969836 0.0252723 -0.000298827
0.467897 0.450095 0 0.983294 0.0266464 -0.000207249
0.574156 0.305342 -6.93889e-18 0.973937 0.0284419 -0.000268419
0.075776 0.646915 0 0.999409 0.00579232 -3.4739e-05
0.624584 0.187518 0 0.969521 0.0262185 -0.000298542
0.523729 0.390184 -4.62596e-18 0.978355 0.0283321 -0.000237991
0.624584 0.210243 0 0.969154 0.0272152 -0.000298327
0.412065 0.516467 1.2326e-32 0.987255 0.0246282 -0.000176725
0.574156 0.337473 -6.93889e-18 0.973625 0.0295544 -0.000267611
0.624584 0.234781 0 0.968761 0.0282649 -0.000298101
0.67013 0.00387637 0 0.272524 0.00260016 -0.000313608
0.67013 0.0119386 -6.93889e-18 0.672729 0.0106486 -0.000405964
0.67013 0.0206445 -6.93889e-18 0.859827 0.0151042 -0.00038459
0.67013 0.0300455 0 0.925763 0.0176176 -0.000364189
0.67013 0.0401972 0 0.948773 0.0191486 -0.000351773
0.67013 0.0511593 6.93889e-18 0.957213 0.0202343 -0.000343808
0.67013 0.0629966 0 0.960726 0.0211824 -0.000338315
0.67013 0.075779 -6.93889e-18 0.962317 0.0220508 -0.000334507
0.67013 0.0824156 0 0.962122 0.0225145 -0.000333561
0 0.675477 0 1 0 0
0.67013 0.089582 0 0.963132 0.0229011 -0.000331906
0.624584 0.261279 0 0.968373 0.0293705 -0.000297766
0.523729 0.42909 0 0.978281 0.0294497 -0.00023601
0.67013 0.104487 -6.93889e-18 0.96356 0.0237946 -0.000330211
0.467897 0.493784 6.93889e-18 0.983317 0.0276833 -0.000204797
0.67013 0.120582 0 0.963749 0.0247167 -0.000329085
0.288433 0.618354 0 0.994025 0.0183973 -0.000118127
0.219993 0.646915 -6.93889e-18 0.996758 0.0144111 -8.99292e-05
0.67013 0.137962 0 0.963764 0.0256644 -0.000328279
0.574156 0.372169 6.93889e-18 0.973425 0.0307329 -0.000266268
0.350249 0.591905 0 0.99133 0.0220369 -0.000145795
0.67013 0.15673 6.93889e-18 0.963649 0.0266544 -0.000327698
0.624584 0.289893 0 0.968022 0.0305351 -0.000297205
0.151552 0.675477 0 0.99807 0.0103577 -6.2288e-05
0.67013 0.176996 0 0.963438 0.0276941 -0.000327263
0.685312 0.112226 -7.70372e-34 0.960754 0.0248495 -0.000339677
0.67013 0.19888 -6.93889e-18 0.96316 0.0287872 -0.000326909
0.412065 0.565455 0 0.987373 0.0255655 -0.000174006
0.624584 0.320791 0 0.967741 0.0317628 -0.00029629
0.523729 0.471101 0 0.978332 0.0306315 -0.000233391
0.574156 0.409637 6.93889e-18 0.973352 0.0319805 -0.000264278
0.67013 0.222512 -6.93889e-18 0.962842 0.0299362 -0.000326557
0.075776 0.706318 0 0.999411 0.00595363 -3.38907e-05
0.67013 0.24803 0 0.962514 0.031144 -0.000326112
0.467897 0.540961 0 0.98346 0.0287751 -0.00020182
0.715676 4.78181e-19 0 2.23383e-17 2.11059e-19 7.59509e-19
0.715676 0.00775273 0 0.432907 0.00629024 -0.000393471
0.715676 0.0161245 0 0.733669 0.0128359 -0.000434179
0.715676 0.0251646 0 0.872478 0.0167632 -0.000410046
0.715676 0.0349265 0 0.923865 0.0191377 -0.000390718
0.715676 0.0454678 0 0.942712 0.020679 -0.000378998
0.715676 0.0568507 0 0.949963 0.0218599 -0.000371529
0.624584 0.354155 0 0.967563 0.0330587 -0.000294873
0.715676 0.0691424 0 0.953121 0.0229041 -0.000366473
0.715676 0.0824156 0 0.954674 0.0238929 -0.000363031
0.715676 0.0967484 0 0.955538 0.024895 -0.000360697
0.715676 0.112226 0 0.956031 0.0259279 -0.000359127
0.67013 0.275586 0 0.962207 0.0324136 -0.000325461
0.715676 0.128939 0 0.956278 0.0269824 -0.000358032
0.574156 0.450095 0 0.973414 0.0332978 -0.000261585
0.715676 0.146986 0 0.956352 0.0280704 -0.000357218
0.288433 0.675477 0 0.994147 0.019036 -0.000115802
0.715676 0.166474 0 0.9563 0.029204 -0.000356584
0.523729 0.516467 -6.16298e-33 0.978517 0.031875 -0.000230152
0.350249 0.646916 0 0.991487 0.0228435 -0.000143076
0.67013 0.305342 0 0.961954 0.0337485 -0.000324486
0.624584 0.390184 -4.62596e-18 0.967511 0.0344273 -0.000292822
0 0.73716 0 1 0 0
0.219992 0.706318 0 0.996821 0.0148796 -8.81151e-05
0.715676 0.187518 0 0.95616 0.0303889 -0.000356043
0.412065 0.618354 1.85035e-18 0.987598 0.0265415 -0.000170845
0.743101 0.0251646 -7.70372e-34 0.858238 0.0171045 -0.000434055
0.715676 0.210243 0 0.955962 0.0316289 -0.000355514
0.67013 0.337473 6.93889e-18 0.96179 0.0351535 -0.000323046
0.151552 0.73716 -6.16298e-33 0.998117 0.01068 -6.08561e-05
0.715676 0.234781 0 0.955737 0.0329274 -0.000354902
0.467897 0.591904 6.93889e-18 0.983726 0.0299144 -0.000198327
0.756814 0.00387637 6.93889e-18 0.195122 0.00181704 -0.000367125
0.756814 0.0119386 0 0.59331 0.0101132 -0.000485515
0.756814 0.0206446 -6.93889e-18 0.810484 0.0154805 -0.000458693
0.574156 0.493784 0 0.97362 0.034684 -0.000258187
0.756814 0.0300455 0 0.894872 0.018831 -0.00043092
0.624584 0.42909 0 0.967599 0.0358717 -0.000290044
0.756813 0.0401972 6.93889e-18 0.926732 0.0209165 -0.000414346
0.756814 0.0511593 -6.93889e-18 0.938649 0.0223675 -0.000404501
0.756814 0.0629965 6.93889e-18 0.943714 0.0235981 -0.000397965
0.756814 0.075779 -6.93889e-18 0.946146 0.0247213 -0.000393599
0.715676 0.261279 0 0.955515 0.0342881 -0.000354102
0.756814 0.089582 -6.93889e-18 0.947504 0.0258282 -0.000390623
0.756814 0.104487 -6.93889e-18 0.948344 0.0269794 -0.000388569
0.449286 0.618354 3.08149e-33 0.984837 0.0292006 -0.000187853
0.756814 0.120582 -6.93889e-18 0.948849 0.0281383 -0.000387171
0.67013 0.37217 6.93889e-18 0.961747 0.036634 -0.000320995
0.756813 0.137962 0 0.949124 0.0293218 -0.000386131
0.523729 0.565455 0 0.978842 0.0331744 -0.000226312
0.715676 0.289893 0 0.955331 0.0357153 -0.000352996
0.770526 0.0568507 7.70372e-34 0.93747 0.0236148 -0.000411683
0.756814 0.15673 0 0.949237 0.030547 -0.000385313
0.075776 0.770464 0 0.999424 0.00612564 -3.29633e-05
0.756814 0.176996 -6.93889e-18 0.949236 0.0318211 -0.000384617
0.624584 0.471101 0 0.96784 0.0373922 -0.000286498
0.756814 0.198881 -6.93889e-18 0.949158 0.0331485 -0.00038395
0.715676 0.320791 0 0.955217 0.0372142 -0.00035145
0.67013 0.409637 0 0.961847 0.0381953 -0.000318205
0.350249 0.706318 0 0.991731 0.0236684 -0.000139966
0.756813 0.222512 0 0.949035 0.0345336 -0.000383217
0.574156 0.540961 0 0.973978 0.036135 -0.000254104
0.412065 0.675477 1.85035e-18 0.987931 0.0275429 -0.000167224
0.288433 0.73716 0 0.994335 0.0196875 -0.000113155
0.756814 0.24803 -6.93889e-18 0.948897 0.0359805 -0.000382316
0.797951 9.56361e-19 0 2.51139e-17 2.40904e-19 1.47571e-18
0.797951 0.00775273 0 0.358345 0.00569501 -0.000463849
0.797951 0.0161245 0 0.667316 0.0128243 -0.000513317
0.797951 0.0206445 0 0.748536 0.0153057 -0.000497695
0.797951 0.0251646 0 0.829757 0.0177871 -0.000482073
0.467897 0.646915 -6.93889e-18 0.984119 0.0310888 -0.000194307
0.715676 0.354155 0 0.95521 0.0387909 -0.000349319
0.797951 0.0300455 0 0.862712 0.0193702 -0.000469138
0.797951 0.0349265 0 0.895667 0.0209533 -0.000456203
0.797951 0.0454678 0 0.921192 0.0229897 -0.000440962
0.797951 0.0530564 7.70372e-34 0.927879 0.0239914 -0.000434827
0.797951 0.0568507 0 0.931223 0.0244922 -0.00043176
0.797951 0.0609479 7.70372e-34 0.932715 0.0249251 -0.000429739
0.797951 0.0691424 0 0.935698 0.0257908 -0.000425697
0.219992 0.770464 -6.93889e-18 0.996926 0.0153587 -8.60526e-05
0.797951 0.0824156 0 0.938038 0.0270221 -0.000421696
0.715676 0.363162 1.54074e-33 0.955242 0.0392063 -0.000348606
0 0.803768 0 1 0 0
0.797951 0.0967484 0 0.939443 0.0282592 -0.000419014
0.756814 0.275586 0 0.948779 0.0374941 -0.000381131
0.797951 0.112226 0 0.940347 0.0295114 -0.000417124
0.67013 0.450095 -6.93889e-18 0.962105 0.0398396 -0.000314597
0.797951 0.128939 0 0.940925 0.0307754 -0.000415724
0.523729 0.618354 -6.16298e-33 0.979314 0.0345188 -0.00022187
0.624584 0.516467 -6.16298e-33 0.968245 0.0389867 -0.000282183
0.797951 0.146986 0 0.941279 0.0320699 -0.000414619
0.715676 0.390184 0 0.955337 0.0404524 -0.000346466
0.797951 0.166474 0 0.941477 0.0334071 -0.000413678
0.756814 0.305342 6.93889e-18 0.948713 0.0390797 -0.000379536
0.151552 0.803768 0 0.99819 0.0110064 -5.92515e-05
0.797951 0.187518 0 0.941568 0.0347941 -0.000412794
0.574156 0.591904 0 0.9745 0.0376424 -0.000249344
0.822721 0.0568507 7.70372e-34 0.924377 0.0256352 -0.000451741
0.797951 0.210243 0 0.941589 0.0362367 -0.000411867
0.756814 0.337473 0 0.948736 0.0407445 -0.000377383
0.715676 0.419364 1.54074e-33 0.955552 0.0417661 -0.000343702
0.797951 0.234781 0 0.941575 0.0377405 -0.00041079
0.67013 0.493784 -6.93889e-18 0.962534 0.0415671 -0.000310144
0.822721 0.128939 -7.70372e-34 0.935498 0.0322165 -0.000434728
0.715676 0.42909 0 0.955623 0.042204 -0.00034278
0.835106 0.00387637 -6.93889e-18 0.134353 0.00133886 -0.000430849
0.835106 0.0119386 6.93889e-18 0.512205 0.00952392 -0.000570316
0.835106 0.0206445 6.93889e-18 0.754796 0.0161795 -0.000536967
0.835106 0.0300455 -6.93889e-18 0.859881 0.0206315 -0.000500106
0.835106 0.0401972 0 0.901844 0.0233887 -0.000477993
0.835106 0.0511593 0 0.91804 0.0252286 -0.00046565
0.835106 0.0629965 0 0.924918 0.0267106 -0.000457614
0.835106 0.075779 -6.93889e-18 0.928409 0.028064 -0.000452326
0.797951 0.261279 0 0.941557 0.0393117 -0.000409447
0.835106 0.089582 0 0.930467 0.0294008 -0.000448969
0.835106 0.104487 0 0.931819 0.0307499 -0.000446636
0.624584 0.565455 0 0.968827 0.0406491 -0.000277109
0.075776 0.839731 0 0.999447 0.00629982 -3.19494e-05
0.756813 0.372169 -6.93889e-18 0.948883 0.0424964 -0.000374526
0.835106 0.120582 0 0.932729 0.0320953 -0.00044487
0.412065 0.73716 1.85035e-18 0.988376 0.0285508 -0.000163121
0.797951 0.280355 7.70372e-34 0.941566 0.0404086 -0.000408293
0.350249 0.770464 0 0.992061 0.0244935 -0.000136442
0.835106 0.137962 0 0.933342 0.0334601 -0.000443483
0.467897 0.706318 0 0.984645 0.0322802 -0.000189738
0.847492 0.0251646 -7.70372e-34 0.796939 0.0188013 -0.000532584
0.797951 0.289893 0 0.94157 0.0409571 -0.000407717
0.835106 0.15673 0 0.93375 0.0348609 -0.000442318
0.797951 0.300192 7.70372e-34 0.941597 0.041533 -0.000406966
0.835106 0.176996 -6.93889e-18 0.934016 0.0363065 -0.000441244
0.288433 0.803768 0 0.994588 0.0203338 -0.000110166
0.523729 0.675477 0 0.979942 0.0358912 -0.000216812
0.715676 0.471101 0 0.956086 0.0440483 -0.000338202
0.835106 0.19888 0 0.934186 0.0378043 -0.000440157
0.797951 0.320791 0 0.941651 0.0426847 -0.000405463
0.756814 0.409637 0 0.949184 0.0443439 -0.000370834
0.67013 0.540961 6.93889e-18 0.963151 0.0433742 -0.000304854
0.835106 0.222512 0 0.934296 0.0393612 -0.000438948
0.574156 0.646915 0 0.975197 0.0391914 -0.000243902
0.219992 0.839732 0 0.997073 0.0158317 -8.37228e-05
0.835106 0.24803 6.93889e-18 0.934381 0.0409846 -0.000437498
0.872262 9.56361e-19 0 1.63147e-17 2.07207e-19 1.74764e-18
0.872262 0.00775273 0 0.287573 0.00541191 -0.000539794
0.872262 0.0161245 0 0.594973 0.0131035 -0.000597438
0.872262 0.0251646 0 0.780531 0.0193085 -0.000557839
0.872262 0.0349265 0 0.86313 0.0234275 -0.000523598
0.797951 0.354155 0 0.941837 0.0445039 -0.000402535
0.467897 0.73716 0 0.984556 0.0329089 -0.000187121
0.872262 0.0454678 0 0.896942 0.0260625 -0.000503341
0.872262 0.0568507 0 0.910685 0.0279211 -0.000491701
0.872262 0.0691424 0 0.916819 0.0294479 -0.000484527
0 0.875695 0 1 0 0
0.872262 0.0824156 0 0.920133 0.0308733 -0.000479935
0.797951 0.363162 -1.54074e-33 0.941919 0.044984 -0.000401598
0.872262 0.0967484 0 0.92222 0.0322838 -0.000476831
0.624584 0.618354 -6.16298e-33 0.969603 0.042367 -0.000271279
0.835106 0.275586 0 0.934476 0.0426827 -0.000435678
0.872262 0.112226 0 0.923644 0.0336895 -0.000474538
0.756814 0.450096 0 0.949662 0.0462923 -0.000366211
0.872262 0.120583 0 0.924144 0.0343941 -0.000473637
0.872262 0.128939 0 0.924644 0.0350987 -0.000472736
0.715676 0.516467 6.16298e-33 0.956743 0.0459848 -0.000332714
0.872262 0.137962 0 0.924999 0.035815 -0.000471988
0.835106 0.289893 0 0.934363 0.0435991 -0.000434449
0.872262 0.146986 0 0.925355 0.0365313 -0.00047124
0.872262 0.166474 0 0.925865 0.0380009 -0.000469897
0.797951 0.390184 -1.2326e-32 0.942163 0.0464244 -0.000398788
0.151552 0.875695 0 0.99829 0.0113227 -5.74629e-05
0.835106 0.305342 0 0.934615 0.0444641 -0.000433373
0.872262 0.187518 0 0.926235 0.0395173 -0.000468578
0.67013 0.591905 0 0.963974 0.045252 -0.000298734
0.872262 0.210243 0 0.926511 0.0410899 -0.000467167
0.835106 0.337473 6.93889e-18 0.934837 0.04634 -0.000430431
0.467897 0.770464 0 0.985312 0.0334633 -0.000184602
0.797951 0.419364 -1.54074e-33 0.942536 0.0479473 -0.000395276
0.412065 0.803768 1.85035e-18 0.988937 0.0295398 -0.000158518
0.872262 0.234781 0 0.926733 0.0427279 -0.000465549
0.756814 0.493784 0 0.950338 0.0483446 -0.000360612
0.523729 0.73716 0 0.980737 0.037267 -0.00021112
0.90582 0.00387636 0 0.0807091 0.00144018 -0.000496144
0.90582 0.0119386 0 0.424396 0.00934683 -0.00066046
0.797951 0.42909 0 0.94266 0.048455 -0.000394105
0.90582 0.0206446 0 0.689958 0.0173562 -0.000620403
0.90582 0.0300455 6.93889e-18 0.818495 0.0230349 -0.000572433
0.90582 0.0401971 6.93889e-18 0.872959 0.0266042 -0.00054259
0.905821 0.0511593 0 0.895406 0.0289652 -0.000525976
0.90582 0.0629966 -6.93889e-18 0.904772 0.0307094 -0.000516464
0.905821 0.075779 0 0.909537 0.0322331 -0.000510626
0.350249 0.839732 0 0.99248 0.0252943 -0.000132486
0.90582 0.089582 0 0.912461 0.0337182 -0.00050675
0.574156 0.706318 0 0.976081 0.0407595 -0.00023776
0.872262 0.261279 0 0.926935 0.0444414 -0.000463597
0.90582 0.104487 -6.93889e-18 0.914458 0.035187 -0.00050391
0.715676 0.565455 0 0.957617 0.0480076 -0.000326318
0.90582 0.120582 6.93889e-18 0.915884 0.0366443 -0.000501688
0.835106 0.372169 0 0.935183 0.0483213 -0.000426692
0.90582 0.137962 -6.93889e-18 0.916925 0.0381122 -0.000499865
0.075776 0.914529 6.93889e-18 0.99948 0.00646644 -3.08444e-05
0.872262 0.289893 0 0.927155 0.0462411 -0.000461182
0.90582 0.15673 6.93889e-18 0.917699 0.0396076 -0.000498267
0.624584 0.675477 0 0.970588 0.0441201 -0.000264682
0.288433 0.875695 0 0.994907 0.0209512 -0.000106819
0.90582 0.176996 -6.93889e-18 0.918284 0.0411428 -0.000496743
0.797951 0.471101 0 0.943355 0.0506022 -0.000388409
0.90582 0.198881 0 0.918737 0.0427289 -0.000495163
0.872262 0.320791 0 0.927432 0.0481394 -0.000458159
0.835106 0.409637 6.93889e-18 0.935688 0.0504194 -0.000422014
0.756813 0.540961 -6.93889e-18 0.951237 0.0504989 -0.000354033
0.67013 0.646915 0 0.965024 0.0471837 -0.000291781
0.931922 0.00775273 -1.92593e-33 0.229901 0.0050915 -0.000611088
0.931922 0.0161245 -1.92593e-33 0.528784 0.0132909 -0.000675874
0.905821 0.222512 6.93889e-18 0.919104 0.0443774 -0.000493407
0.931922 0.112226 -1.92593e-33 0.908621 0.0380853 -0.000524315
0.90582 0.24803 -6.93889e-18 0.919422 0.0461 -0.000491361
0.939379 0 0 0 0 0
0.939379 0.00775273 2.31296e-18 0.222692 0.00505145 -0.00062
0.939379 0.0161245 2.31296e-18 0.52051 0.0133143 -0.000685679
0.939379 0.0251646 0 0.726707 0.0212652 -0.000636093
0.939379 0.0349265 0 0.827267 0.0268192 -0.000591668
0.939379 0.0454678 0 0.870842 0.0303028 -0.000565185
0.219992 0.914529 0 0.99726 0.0162774 -8.11119e-05
0.939379 0.0568507 0 0.889389 0.0325827 -0.000550496
0.872262 0.354155 0 0.927808 0.0501496 -0.00045437
0.939379 0.0691424 0 0.897602 0.0342773 -0.00054214
0.939379 0.0824156 0 0.901988 0.0357706 -0.000536939
0.939379 0.0967484 0 0.904782 0.0372111 -0.000533315
0.715676 0.618354 0 0.958733 0.0501036 -0.000319015
0.939379 0.112226 2.31296e-18 0.906743 0.0386348 -0.000530537
0.90582 0.275586 0 0.919729 0.0479088 -0.000488885
0.939379 0.128939 0 0.908178 0.0400618 -0.000528276
0.872262 0.372169 0 0.928066 0.0512176 -0.000452019
0.835106 0.450095 6.93889e-18 0.936385 0.052645 -0.000416297
0.797951 0.516467 0 0.944275 0.0528681 -0.000381668
0.939379 0.146986 0 0.909252 0.0415131 -0.000526329
0 0.953363 0 1 0 0
0.939379 0.166474 0 0.910072 0.0430047 -0.000524527
0.872262 0.390184 0 0.928325 0.0522855 -0.000449668
0.905821 0.305342 0 0.920064 0.0498185 -0.000485839
0.939379 0.187518 0 0.910712 0.0445499 -0.000522722
0.523729 0.803768 0 0.981711 0.0386119 -0.000204779
0.756814 0.591905 6.93889e-18 0.952386 0.0527468 -0.000346474
0.574156 0.770464 6.93889e-18 0.97717 0.0423141 -0.000230901
0.467897 0.839732 0 0.986127 0.034604 -0.000178882
0.925956 0.261279 7.70372e-34 0.915032 0.0485967 -0.000505489
0.939379 0.210243 0 0.911227 0.0461615 -0.000520777
0.872262 0.409637 0 0.928673 0.0534232 -0.000446797
0.151552 0.953363 0 0.998414 0.0116118 -5.54836e-05
0.624584 0.73716 0 0.971805 0.0458773 -0.000257304
0.90582 0.337473 -6.93889e-18 0.920471 0.0518438 -0.000482056
0.412065 0.875695 1.85035e-18 0.98962 0.0304758 -0.000153403
0.939379 0.234781 0 0.911662 0.0478523 -0.000518568
0.715676 0.654056 -3.08149e-33 0.959601 0.0514442 -0.00031388
0.969689 0.00387637 -6.93889e-18 0.0416689 0.00119583 -0.000567605
0.969689 0.0119386 6.93889e-18 0.344978 0.00823491 -0.000754537
0.96969 0.0206445 6.93889e-18 0.6239 0.0183225 -0.000705909
0.969689 0.0300456 0 0.775361 0.0263158 -0.000644389
0.835106 0.493784 6.93889e-18 0.937306 0.0550048 -0.000409476
0.969689 0.0401972 0 0.842839 0.0312613 -0.000606196
0.969689 0.0511592 6.93889e-18 0.872583 0.0343039 -0.00058502