# UMean  POINT_DATA 18174
# x  y  z  UMean_x  UMean_y  UMean_z
0 0.5 -2.35744e-17 1 0 0
0 0.5 -0.0544472 1 0 0
0 0.5 0.0544472 1 0 0
0 0.5 0.0955528 1 0 0
0 0.5 -0.0955528 1 0 0
0.075776 0.5 -0.075 0.999384 0.00527793 -0.000716327
0.075776 0.5 0.075 0.999384 0.00527994 0.000644533
0 0.5 -0.15 1 0 0
0 0.5 0.15 1 0 0
0.151552 0.5 1.3433e-17 0.998139 0.00944428 -6.60399e-05
0 0.5 -0.204447 1 0 0
0 0.5 0.204447 1 0 0
0.151552 0.5 -0.15 0.998171 0.00937427 -0.00262746
0.151552 0.5 0.15 0.998169 0.00938068 0.00249676
0.219992 0.5 -0.075 0.996671 0.0132196 -0.00194816
0.219992 0.5 0.075 0.99667 0.0132241 0.00176037
0.075776 0.5 -0.225 0.999395 0.00519525 -0.00213097
0.075776 0.5 0.225 0.999394 0.00520091 0.00206038
0 0.5 -0.245553 1 0 0
0 0.5 0.245553 1 0 0
0.288433 0.5 -2.35744e-17 0.994014 0.0170167 -0.000122447
0 0.5 -0.3 1 0 0
0 0.5 0.3 1 0 0
0.219992 0.5 -0.225 0.996805 0.013034 -0.00552687
0.219992 0.5 0.225 0.996799 0.013047 0.00534341
0.288433 0.5 -0.15 0.994149 0.0168882 -0.00493232
0.288433 0.5 0.15 0.994142 0.0168999 0.00469018
0.151552 0.5 -0.3 0.998299 0.0091728 -0.00505953
0.151552 0.5 0.3 0.998295 0.00918531 0.00493343
0 0.5 -0.354447 1 0 0
0 0.5 0.354447 1 0 0
0.350249 0.5 0.075 0.99114 0.0206189 0.00286267
0.350249 0.5 -0.075 0.991145 0.0206114 -0.00316209
0.075776 0.5 -0.375 0.999461 0.00503836 -0.00339495
0.075776 0.5 0.375 0.999459 0.00504743 0.00332812
0 0.5 -0.395553 1 0 0
0 0.5 0.395553 1 0 0
0.412065 0.5 -2.86452e-17 0.98725 0.0243054 -0.000177554
0.288433 0.5 -0.3 0.994581 0.016518 -0.00944981
0.288433 0.5 0.3 0.994567 0.0165411 0.00921651
0.350249 0.5 0.225 0.991549 0.0203171 0.00868039
0.350249 0.5 -0.225 0.991564 0.0202952 -0.00897293
0.219992 0.5 -0.375 0.997142 0.0126691 -0.00881346
0.219992 0.5 0.375 0.997132 0.0126906 0.0086389
0.412065 0.5 -0.15 0.987563 0.0241026 -0.00731031
0.412065 0.5 0.15 0.987548 0.0241208 0.00695938
0 0.5 -0.45 1 0 0
0 0.5 0.45 1 0 0
0.467897 0.5 -0.075 0.983271 0.0278035 -0.00441898
0.467897 0.5 0.075 0.983261 0.0278146 0.00401074
0.151552 0.5 -0.45 0.99853 0.00884959 -0.00720668
0.151552 0.5 0.45 0.998523 0.00886797 0.00708864
0 0.5 -0.504447 1 0 0
0 0.5 0.504447 1 0 0
0.412065 0.5 -0.3 0.988492 0.0235252 -0.0139936
0.412065 0.5 0.3 0.988461 0.0235607 0.013657
0.350249 0.5 -0.375 0.992429 0.0196838 -0.0142661
0.350249 0.5 0.375 0.992402 0.0197196 0.0139889
0.467897 0.5 0.225 0.984066 0.0273627 0.0121467
0.467897 0.5 -0.225 0.984096 0.0273306 -0.0125447
0.523729 0.5 -2.35744e-17 0.97845 0.0314237 -0.000231328
0.075776 0.5 -0.525 0.999552 0.00481888 -0.00447284
0.075776 0.5 0.525 0.999549 0.00483099 0.00441143
0.288433 0.5 -0.45 0.99529 0.015923 -0.0134441
0.288433 0.5 0.45 0.995268 0.0159569 0.0132259
0.523729 0.5 -0.15 0.978993 0.0311368 -0.00977919
0.523729 0.5 0.15 0.978968 0.0311623 0.0093225
0 0.5 -0.545553 1 0 0
0 0.5 0.545553 1 0 0
0.219992 0.5 -0.525 0.997609 0.0121434 -0.0116154
0.219992 0.5 0.525 0.997595 0.0121729 0.0114545
0.574156 0.5 -0.075 0.973655 0.034841 -0.00572515
0.574156 0.5 0.075 0.97364 0.0348559 0.0052107
0.467897 0.5 -0.375 0.985705 0.0264308 -0.0199244
0.467897 0.5 0.375 0.985655 0.0264829 0.0195506
0 0.5 -0.6 1 0 0
0 0.5 0.6 1 0 0
0.523729 0.5 -0.3 0.980574 0.0303253 -0.0187065
0.523729 0.5 0.3 0.980523 0.0303748 0.0182686
0.412065 0.5 -0.45 0.989963 0.022608 -0.0198556
0.412065 0.5 0.45 0.989918 0.0226597 0.0195416
0.574156 0.5 -0.225 0.974979 0.0341993 -0.0162569
0.574156 0.5 0.225 0.974932 0.0342428 0.0157563
0.151552 0.5 -0.6 0.998823 0.00842327 -0.00896617
0.151552 0.5 0.6 0.998814 0.00844685 0.00885938
0.624584 0.5 -2.35744e-17 0.968098 0.0384079 -0.000283749
0.350249 0.5 -0.525 0.993623 0.0188129 -0.018765
0.350249 0.5 0.525 0.993585 0.0188613 0.0185099
0.624584 0.5 -0.15 0.968916 0.038032 -0.012348
0.624584 0.5 0.15 0.968879 0.0380653 0.0117884
0 0.5 -0.654447 1 0 0
0 0.5 0.654447 1 0 0
0.288433 0.5 -0.6 0.996189 0.0151369 -0.0167067
0.288433 0.5 0.6 0.99616 0.0151803 0.0165093
0.67013 0.5 -0.075 0.962659 0.0417585 -0.00708268
0.67013 0.5 0.075 0.962638 0.0417775 0.0064649
0.075776 0.5 0.675 0.999658 0.00456575 0.00525976
0.075776 0.5 -0.675 0.999662 0.00455118 -0.00531415
0.574156 0.5 -0.375 0.977523 0.0329847 -0.0257738
0.574156 0.5 0.375 0.977446 0.0330546 0.0252997
0.523729 0.5 -0.45 0.983043 0.029046 -0.0264639
0.523729 0.5 0.45 0.982967 0.0291176 0.0260556
0.624584 0.5 -0.3 0.971286 0.03697 -0.0235918
0.624584 0.5 0.3 0.971212 0.0370347 0.0230544
0 0.5 -0.695553 1 0 0
0 0.5 0.695553 1 0 0
0.467897 0.5 -0.525 0.987918 0.0251599 -0.0260916
0.467897 0.5 0.525 0.987849 0.0252298 0.0257462
0.67013 0.5 0.225 0.964501 0.0409954 0.0195201
0.67013 0.5 -0.225 0.964567 0.0409399 -0.0201205
0.219992 0.5 -0.675 0.998166 0.0114855 -0.0138051
0.219992 0.5 0.675 0.998148 0.0115218 0.0136622
0.715676 0.5 -3.28263e-17 0.956504 0.0452819 -0.000334706
0.412065 0.5 -0.6 0.991824 0.0214089 -0.0245948
0.412065 0.5 0.6 0.991765 0.0214747 0.0243108
0.715676 0.5 -0.15 0.95764 0.0448134 -0.0150207
0.715676 0.5 0.15 0.95759 0.0448551 0.0143609
0 0.5 -0.75 1 0 0
0 0.5 0.75 1 0 0
0.350249 0.5 0.675 0.994994 0.0177946 0.0220209
0.350249 0.5 -0.675 0.995041 0.0177355 -0.022247
0.756813 0.5 0.075 0.950533 0.0485912 0.00777361
0.756814 0.5 -0.075 0.950561 0.0485678 -0.00849176
0.151552 0.5 -0.75 0.999153 0.00792012 -0.0102724
0.151552 0.5 0.75 0.999141 0.00794783 0.0101795
0.67013 0.5 -0.375 0.968224 0.0393916 -0.0318241
0.67013 0.5 0.375 0.968116 0.0394807 0.0312556
0.624584 0.5 -0.45 0.974958 0.035303 -0.0332889
0.624584 0.5 0.45 0.974848 0.0353962 0.0327907
0.715676 0.5 -0.3 0.960923 0.0434901 -0.02866
0.715676 0.5 0.3 0.960823 0.0435709 0.0280269
0.574156 0.5 0.525 0.980888 0.0313727 0.0331856
0.574156 0.5 -0.525 0.980993 0.031279 -0.0336201
0.756813 0.5 -0.225 0.953133 0.0475671 -0.024138
0.756813 0.5 0.225 0.953048 0.0476352 0.0234403
0.523729 0.5 -0.6 0.986145 0.0273854 -0.0326562
0.523729 0.5 0.6 0.986047 0.0274761 0.0322884
0.797951 0.5 -2.43973e-17 0.943941 0.0520456 -0.000384115
0.288433 0.5 -0.75 0.997194 0.0142082 -0.0191117
0.288433 0.5 0.75 0.997159 0.0142595 0.01894
0 0.5 -0.804447 1 0 0
0 0.5 0.804447 1 0 0
0.797951 0.5 -0.15 0.945432 0.0514823 -0.0177966
0.797951 0.5 0.15 0.945369 0.0515327 0.0170392
0.467897 0.5 -0.675 0.990531 0.0236042 -0.0308218
0.467897 0.5 0.675 0.990445 0.0236891 0.0305166
0.075776 0.5 -0.825 0.99978 0.00425217 -0.0058989
0.075776 0.5 0.825 0.999776 0.00426858 0.00585263
0.835106 0.5 -0.075 0.937632 0.0552521 -0.00995071
0.835106 0.5 0.075 0.937597 0.0552799 0.00913535
0.756813 0.5 -0.375 0.958056 0.0456738 -0.0380921
0.756813 0.5 0.375 0.957914 0.0457832 0.0374326
0.715676 0.5 -0.45 0.965986 0.0414183 -0.0403598
0.715676 0.5 0.45 0.965838 0.0415345 0.0397757
0 0.5 -0.845553 1 0 0
0 0.5 0.845553 1 0 0
0.67013 0.5 -0.525 0.973165 0.0372281 -0.0414103
0.67013 0.5 0.525 0.973018 0.0373473 0.0408994
0.797951 0.5 -0.3 0.94974 0.0498901 -0.0339147
0.797951 0.5 0.3 0.949612 0.0499879 0.0331886
0.219992 0.5 0.825 0.998735 0.01078 0.015202
0.219992 0.5 -0.825 0.998757 0.0107384 -0.0153238
0.412065 0.5 -0.75 0.993892 0.0200059 -0.0280425
0.412065 0.5 0.75 0.993821 0.020083 0.0277962
0.835106 0.5 -0.225 0.940942 0.0540658 -0.028302
0.835106 0.5 0.225 0.940836 0.0541473 0.0275094
0.624584 0.5 -0.6 0.979538 0.033148 -0.0409317
0.624584 0.5 0.6 0.979395 0.0332658 0.0404857
0.872262 0.5 -3.61845e-17 0.930681 0.0586315 -0.00043193
0.872262 0.5 -0.15 0.932563 0.0579749 -0.02065
0.872262 0.5 0.15 0.932486 0.0580343 0.019798
0.574156 0.5 -0.675 0.98506 0.0292028 -0.0395704
0.574156 0.5 0.675 0.984929 0.0293159 0.0391893
0.350249 0.5 -0.825 0.996534 0.0165204 -0.0246273
0.350249 0.5 0.825 0.996481 0.0165878 0.0244351
0 0.5 -0.9 1 0 0
0 0.5 0.9 1 0 0
0.90582 0.5 -0.075 0.924134 0.0617113 -0.011442
0.90582 0.5 0.075 0.924093 0.0617438 0.0105327
0.151552 0.5 -0.9 0.99949 0.0073703 -0.0111097
0.151552 0.5 0.9 0.999477 0.00740099 0.0110324
0.523729 0.5 -0.75 0.989575 0.0254564 -0.0370837
0.523729 0.5 0.75 0.989458 0.0255621 0.0367667
0.835106 0.5 -0.375 0.94726 0.0518201 -0.0445704
0.835106 0.5 0.375 0.947082 0.0519512 0.0438221
0.797951 0.5 -0.45 0.956364 0.0474016 -0.0476719
0.797951 0.5 0.45 0.956176 0.0475422 0.0470003
0.756813 0.5 -0.525 0.964671 0.0430375 -0.0494801
0.756814 0.5 0.525 0.964478 0.0431835 0.0488867
0.872262 0.5 -0.3 0.937986 0.0561189 -0.039314
0.872262 0.5 0.3 0.93783 0.0562344 0.0384973
0.90582 0.5 -0.225 0.92671 0.0611427 -0.0337111
0.90582 0.5 0.225 0.928117 0.0604429 0.0316777
0.715676 0.5 -0.6 0.972264 0.0387465 -0.0494513
0.715676 0.5 0.6 0.972073 0.0388931 0.0489299
0.939379 0.5 -2.35744e-17 0.916907 0.0650554 -0.000477545
0.288433 0.5 -0.9 0.998209 0.0131917 -0.0206352
0.288433 0.5 0.9 0.99817 0.0132487 0.0204924
0.467897 0.5 -0.825 0.993268 0.0218644 -0.0339743
0.467897 0.5 0.825 0.99317 0.0219605 0.0337162
0.67013 0.5 -0.675 0.978924 0.0345993 -0.0485191
0.67013 0.5 0.675 0.978741 0.034743 0.0480653
0.939379 0.5 -0.15 0.919201 0.0643021 -0.0236343
0.939379 0.5 0.15 0.919111 0.0643709 0.022692
0 0.5 -0.954447 1 0 0
0 0.5 0.954447 1 0 0
0.969689 0.5 0.075 0.907843 0.0689878 0.0115274
0.969689 0.5 -0.075 0.909419 0.0683381 -0.0151456
0.624584 0.5 -0.75 0.984576 0.0306558 -0.0462719
0.624584 0.5 0.75 0.984408 0.0307924 0.0458875
0.075776 0.5 -0.975 0.99986 0.00416304 -0.00648116
0.075776 0.5 0.975 0.999895 0.00395567 0.00619399
0.90582 0.5 -0.375 0.934813 0.058479 -0.0525669
0.90582 0.5 0.375 0.935845 0.0579187 0.0503596
0.872262 0.5 -0.45 0.946316 0.0532196 -0.0551526
0.872262 0.5 0.45 0.946087 0.0533858 0.0543945
0.939379 0.5 -0.3 0.925801 0.0621715 -0.0449524
0.939379 0.5 0.3 0.92562 0.0623057 0.0440491
0.835106 0.5 0.525 0.955501 0.0488756 0.0570978
0.835106 0.5 -0.525 0.955738 0.048701 -0.0577779
0.412065 0.5 -0.9 0.995967 0.0184835 -0.0301677
0.412065 0.5 0.9 0.995888 0.0185687 0.0299636
0.969689 0.5 0.225 0.912682 0.0675265 0.036095
0.969689 0.5 -0.225 0.914975 0.0665103 -0.037123
0 0.5 -0.995553 1 0 0
0 0.5 0.995553 1 0 0
0.797951 0.5 -0.6 0.964542 0.0441972 -0.0582022
0.797951 0.5 0.6 0.964302 0.0443745 0.0576032
0.219992 0.5 -0.975 0.999205 0.0102146 -0.0163663
0.219992 0.5 0.975 0.999311 0.00998821 0.0160848
1 0.5 0 0.901449 0.0713565 -0.000526931
0.574156 0.5 -0.825 0.989309 0.026895 -0.0434061
0.574156 0.5 0.825 0.98916 0.0270224 0.0430859
1 0.5 0.15 0.904132 0.0705989 0.0258364
1 0.5 -0.15 0.904236 0.0705202 -0.0268766
0.756813 0.5 -0.675 0.972342 0.0398368 -0.0576739
0.756813 0.5 0.675 0.972105 0.0400129 0.0571492
1.02577 0.5 0.0737114 0.896277 0.0737377 0.0135265
1.02577 0.5 -0.0737114 0.896261 0.0737173 -0.0139415
0.350249 0.5 -0.975 0.997712 0.0155603 -0.0260824
0.350249 0.5 0.975 0.997918 0.0153053 0.0257833
0.715676 0.5 -0.75 0.979133 0.0356643 -0.055623
0.715676 0.5 0.75 0.978909 0.0358342 0.055174
0.969689 0.5 0.375 0.922106 0.0646403 0.0577428
0.969689 0.5 -0.375 0.924374 0.0635572 -0.0582594
0.523729 0.5 -0.9 0.992993 0.0233818 -0.0397045
0.523729 0.5 0.9 0.992866 0.0234977 0.0394433
0.939379 0.5 -0.45 0.93592 0.0588427 -0.0628947
0.939379 0.5 0.45 0.935651 0.0590359 0.0620557
1 0.5 0.3 0.912042 0.0683082 0.0500962
1 0.5 -0.3 0.912255 0.0681542 -0.0510942
0.905821 0.5 0.525 0.946261 0.0543836 0.0654305
0.905821 0.5 -0.525 0.945632 0.0547992 -0.0676662
1.02577 0.5 0.221134 0.901961 0.072161 0.0399117
1.02577 0.5 -0.221134 0.901921 0.0721008 -0.0403529
0 0.5 -1.05 1 0 0
0 0.5 1.05 1 0 0
0.872262 0.5 -0.6 0.956588 0.0494868 -0.0671097
0.872262 0.5 0.6 0.956295 0.0496961 0.0664337
0.151552 0.5 -1.05 0.999811 0.00680743 -0.0115052
0.151552 0.5 1.05 0.999797 0.00683964 0.0114445
0.67013 0.5 0.825 0.984698 0.0318537 0.0525731
0.67013 0.5 -0.825 0.984905 0.0316928 -0.0529521
0.835106 0.5 -0.675 0.965513 0.0449142 -0.0670096
0.835106 0.5 0.675 0.965221 0.0451247 0.0664161
1.07737 0.5 -2.32453e-17 0.882138 0.0794353 -0.000623059
0.467897 0.5 -0.975 0.99546 0.0204354 -0.0357399
0.467897 0.5 0.975 0.995787 0.0201459 0.0354117
1.07737 0.5 -0.142263 0.885304 0.0785663 -0.0296717
1.07737 0.5 0.142263 0.885172 0.0786588 0.0284428
0.288433 0.5 -1.05 0.999164 0.0121437 -0.0213343
0.288433 0.5 1.05 0.999123 0.0122042 0.0212221
1.02577 0.5 0.368557 0.912772 0.06911 0.0631418
1.02577 0.5 -0.368557 0.912738 0.0690094 -0.0636271
0.797951 0.5 -0.75 0.973438 0.0405074 -0.0651243
0.797951 0.5 0.75 0.973154 0.0407126 0.0646135
0.624584 0.5 -0.9 0.989562 0.0279909 -0.0492839
0.624584 0.5 0.9 0.989378 0.0281401 0.0489693
1 0.5 0.45 0.924275 0.06467 0.0704592
1 0.5 -0.45 0.924589 0.0644481 -0.0713873
0.969689 0.5 0.525 0.934852 0.0605726 0.0749993
0.969689 0.5 -0.525 0.936957 0.0594571 -0.0750284
0 0.5 -1.10445 1 0 0
0 0.5 1.10445 1 0 0
1.07737 0.5 -0.284526 0.894379 0.0761134 -0.0564832
1.07737 0.5 0.284526 0.894114 0.0762945 0.0553048
0.939379 0.5 -0.6 0.948385 0.0545618 -0.0762277
0.939379 0.5 0.6 0.94804 0.0548047 0.075481
0.756813 0.5 0.825 0.979991 0.0365042 0.0621782
0.756813 0.5 -0.825 0.980259 0.0363074 -0.062613
1.12068 0.5 -0.0689662 0.869444 0.0842222 -0.0165654
1.12068 0.5 0.0689662 0.869318 0.0842847 0.0147164
0.075776 0.5 -1.125 1.00001 0.00363178 -0.00633631
0.075776 0.5 1.125 1 0.00364945 0.00630803
0.412065 0.5 -1.05 0.997894 0.0169211 -0.0310756
0.412065 0.5 1.05 0.997811 0.0170113 0.0309158
0.90582 0.5 -0.675 0.958043 0.050345 -0.0779293
0.90582 0.5 0.675 0.958287 0.0500675 0.0758014
0.574156 0.5 -0.975 0.992712 0.0249634 -0.0453817
0.574156 0.5 0.975 0.993175 0.0246352 0.0450105
1.12068 0.5 0.206899 0.875761 0.082683 0.0448898
1.12068 0.5 -0.206899 0.876134 0.082499 -0.0466663
0 0.5 -1.14555 1 0 0
0 0.5 1.14555 1 0 0
0.219992 0.5 -1.125 0.999868 0.0091496 -0.0164495
0.219993 0.5 1.125 0.999844 0.00919598 0.0163748
1.02577 0.5 0.51598 0.927467 0.0648132 0.0816809
1.02577 0.5 -0.51598 0.927457 0.0646752 -0.0822194
1.14932 0.5 0 0.859922 0.0874348 -0.000644281
0.715676 0.5 -0.9 0.985878 0.0323798 -0.0589186
0.715676 0.5 0.9 0.985633 0.0325646 0.0585537
0.872262 0.5 -0.75 0.967691 0.0451882 -0.0747307
0.872262 0.5 0.75 0.967344 0.0454306 0.0741597
1.14932 0.5 -0.135068 0.863415 0.0865499 -0.0326373
1.14932 0.5 0.135068 0.863289 0.0866471 0.0313627
1.07737 0.5 -0.426789 0.908423 0.0722452 -0.0791932
1.07737 0.5 0.426789 0.90803 0.0725065 0.0780959
1 0.5 0.6 0.93931 0.0599518 0.0854553
1 0.5 -0.6 0.939714 0.0596708 -0.0862841
1.12068 0.5 -0.344831 0.888746 0.0792318 -0.0733428
1.12068 0.5 0.344831 0.888145 0.0795299 0.0717019
1.17123 0.5 0.0664384 0.853032 0.0895727 0.0158285
1.17123 0.5 -0.0664384 0.853135 0.0895121 -0.0175152
0.523729 0.5 -1.05 0.996139 0.0212693 -0.0406967
0.523729 0.5 1.05 0.996004 0.0213914 0.0404934
0.835106 0.5 -0.825 0.975529 0.0407515 -0.0723553
0.835106 0.5 0.825 0.975195 0.0409868 0.0718679
0.350249 0.5 -1.125 0.999283 0.0139392 -0.0262969
0.350249 0.5 1.125 0.999223 0.0140154 0.0261794
1.14932 0.5 -0.270135 0.873455 0.0840532 -0.062304
1.14932 0.5 0.270135 0.873202 0.0842439 0.0610708
0.969689 0.5 0.675 0.949572 0.0556079 0.0866686
0.969689 0.5 -0.675 0.951426 0.0544934 -0.0862547
0.67013 0.5 -0.975 0.989692 0.0292291 -0.0550321
0.67013 0.5 0.975 0.990301 0.0288584 0.0546035
1.17123 0.5 -0.199315 0.860255 0.0877902 -0.0496802
1.17123 0.5 0.199315 0.859947 0.0879683 0.048047
0 0.5 -1.2 1 0 0
0 0.5 1.2 1 0 0
0.939379 0.5 -0.75 0.9618 0.049643 -0.0844264
0.939379 0.5 0.75 0.96139 0.0499242 0.0838015
0.797951 0.5 -0.9 0.982103 0.0365837 -0.0685873
0.797951 0.5 0.9 0.981794 0.0368063 0.0681753
0.151552 0.5 -1.2 1.00009 0.00625941 -0.0115218
0.151552 0.5 1.2 1.00008 0.00629211 0.0114777
1.21551 0.5 -1.04083e-18 0.835665 0.0947316 -0.000778176
1.07693 0.5 0.567129 0.925181 0.067575 0.0948964
1.17123 0.5 -0.332191 0.873763 0.084523 -0.0783427
1.17123 0.5 0.332191 0.873262 0.0848121 0.0768134
1.07737 0.5 -0.569052 0.925862 0.0672215 -0.0961895
0.467897 0.5 -1.125 0.998235 0.0182214 -0.03595
0.467897 0.5 1.125 0.998126 0.0183288 0.0357938
1.14932 0.5 -0.405203 0.88907 0.0800919 -0.0876709
1.14932 0.5 0.405203 0.88869 0.0803693 0.0865039
1.12068 0.5 0.482763 0.905164 0.0750185 0.0935413
1.12068 0.5 -0.482763 0.905966 0.0746209 -0.0949869
1.02577 0.5 0.663403 0.944115 0.0595674 0.0941683
1.02577 0.5 -0.663403 0.94417 0.0593885 -0.094744
0.624584 0.5 -1.05 0.994107 0.0252955 -0.0502321
0.624584 0.5 1.05 0.993914 0.0254516 0.0499889
1.21551 0.5 -0.128449 0.839503 0.0938469 -0.0356872
1.21551 0.5 0.128449 0.839336 0.0939595 0.034148
0.90582 0.5 0.825 0.970488 0.0452998 0.0815917
0.90582 0.5 -0.825 0.970578 0.0454519 -0.0834961
0.288433 0.5 -1.2 1 0.0111176 -0.0213293
0.288433 0.5 1.2 0.999958 0.0111793 0.0212482
0.756813 0.5 -0.975 0.986565 0.0332894 -0.0646852
0.756813 0.5 0.975 0.987332 0.0328756 0.064185
1.21551 0.5 0.256897 0.850212 0.0915871 0.0667588
1.21551 0.5 -0.256897 0.850545 0.0913656 -0.0682439
1.24616 0.5 -0.0626919 0.823551 0.0981282 -0.0191813
1.24616 0.5 0.0626919 0.823482 0.0981839 0.0177154
1 0.5 0.75 0.955344 0.0545138 0.0945982
1 0.5 -0.75 0.955828 0.054188 -0.0952941
0.872262 0.5 -0.9 0.978391 0.040621 -0.0782588
0.872262 0.5 0.9 0.978017 0.0408832 0.0778023
0 0.5 -1.25445 1 0 0
0 0.5 1.25445 1 0 0
1.17123 0.5 0.465068 0.891675 0.0802676 0.100429
1.17123 0.5 -0.465068 0.892353 0.0798782 -0.101812
1.24616 0.5 -0.188076 0.831448 0.0964257 -0.0549174
1.24616 0.5 0.188076 0.831238 0.0965911 0.0534751
0.574156 0.5 -1.125 0.996904 0.0221198 -0.0454373
0.574156 0.5 1.125 0.996739 0.0222604 0.0452463
0.412065 0.5 -1.2 0.999577 0.0153931 -0.0309576
0.412065 0.5 1.2 0.999493 0.0154854 0.0308428
1.26895 0.5 2.31296e-18 0.814275 0.100412 -0.00119044
1.14932 0.5 0.540271 0.90824 0.0752582 0.105955
1.14932 0.5 -0.540271 0.908744 0.0749054 -0.107016
0.715676 0.5 -1.05 0.991961 0.0290737 -0.0596912
0.715676 0.5 1.05 0.991705 0.0292658 0.0594112
0.969689 0.5 0.825 0.965921 0.0494342 0.0925058
0.969689 0.5 -0.825 0.96602 0.0490583 -0.0920232
1.26895 0.5 -0.123105 0.818464 0.0995218 -0.0385526
1.26895 0.5 0.123105 0.818135 0.0996763 0.0362099
1.21551 0.5 -0.385346 0.867843 0.0874159 -0.0963382
1.21551 0.5 0.385346 0.86735 0.087741 0.0949395
0.075776 0.5 -1.275 1.00009 0.0033377 -0.00625577
0.075776 0.5 1.275 1.00009 0.00335557 0.00623631
1.12068 0.5 0.620696 0.924701 0.0695067 0.108103
1.12068 0.5 -0.620696 0.926036 0.0689772 -0.109908
0.835106 0.5 -0.975 0.983472 0.0371672 -0.0743007
0.835106 0.5 0.975 0.984398 0.036709 0.0737157
1.07187 0.5 0.707758 0.943672 0.0616963 0.104937
1.24616 0.5 -0.313459 0.846562 0.0931969 -0.0871232
1.24616 0.5 0.313459 0.846208 0.0934686 0.0857353
1.07737 0.5 -0.711315 0.944582 0.0614078 -0.106789
1.26895 0.5 -0.24621 0.830394 0.0970621 -0.0735601
1.26895 0.5 0.24621 0.829749 0.097366 0.0713381
0.219992 0.5 1.275 1.00028 0.00843537 0.0161808
0.219993 0.5 -1.275 1.00031 0.00838857 -0.0162318
0 0.5 -1.29555 1 0 0
0 0.5 1.29555 1 0 0
0.939379 0.5 -0.9 0.974687 0.0444146 -0.0878159
0.939379 0.5 0.9 0.974237 0.0447179 0.0873214
1.30563 0.5 -0.0597185 0.797172 0.10448 -0.0207326
1.30563 0.5 0.0597185 0.797092 0.104541 0.0190949
1.02577 0.5 -0.810825 0.961022 0.0535679 -0.10151
1.02577 0.5 0.810825 0.95748 0.0547552 0.0989929
0.523729 0.5 -1.2 0.998866 0.0192161 -0.0403431
0.523729 0.5 1.2 0.998729 0.0193404 0.0401984
0.67013 0.5 -1.125 0.995452 0.0257259 -0.0547825
0.67013 0.5 1.125 0.995224 0.0259016 0.0545598
1.17123 0.5 -0.597945 0.914283 0.0741486 -0.118321
1.17123 0.5 0.597945 0.909799 0.0758315 0.116123
1.30563 0.5 -0.179156 0.805678 0.102833 -0.0594098
1.30563 0.5 0.179156 0.805438 0.103012 0.0577953
0.797951 0.5 -1.05 0.989833 0.0326516 -0.0690519
0.797951 0.5 1.05 0.989511 0.0328813 0.0687378
1.21605 0.5 0.510895 0.888073 0.0829132 0.116105
1.21551 0.5 -0.513795 0.889888 0.0822082 -0.118178
1.24616 0.5 -0.438843 0.867646 0.0885711 -0.113819
1.24616 0.5 0.438843 0.867155 0.0889442 0.112503
1.26895 0.5 0.369315 0.848222 0.0935897 0.101955
1.26895 0.5 -0.369315 0.849154 0.0931432 -0.103984
0.350249 0.5 -1.275 1.00039 0.0126994 -0.0258812
0.350249 0.5 1.275 1.00033 0.0127761 0.0258017
0.90582 0.5 -0.975 0.980503 0.0408746 -0.0838575
0.90582 0.5 0.975 0.980911 0.0410116 0.084411
1.14932 0.5 0.675339 0.929616 0.0692655 0.118434
1.14932 0.5 -0.675339 0.930226 0.06885 -0.11936
1.3344 0.5 0 0.783211 0.107623 -0.000820408
1.30563 0.5 -0.298593 0.822029 0.0996907 -0.0946395
1.30563 0.5 0.298593 0.821633 0.0999935 0.0930819
1.3344 0.5 -0.11656 0.787629 0.106775 -0.041584
1.3344 0.5 0.11656 0.787479 0.106899 0.0399524
1 0.5 -0.9 0.971317 0.0483721 -0.0987695
1 0.5 0.9 0.970772 0.0487241 0.0982238
0 0.5 -1.35 1 0 0
0 0.5 1.35 1 0 0
0.624584 0.5 -1.2 0.998013 0.0226942 -0.0495187
0.624584 0.5 1.2 0.997816 0.0228526 0.0493477
1.35183 0.5 -0.0574087 0.772736 0.109565 -0.0220124
1.35183 0.5 0.0574087 0.77266 0.109628 0.0203267
1.12068 0.5 -0.758628 0.946389 0.0627139 -0.118175
1.12068 0.5 0.758628 0.945367 0.0632565 0.117259
1.3344 0.5 -0.23312 0.800468 0.104407 -0.0801043
1.3344 0.5 0.23312 0.800166 0.104652 0.0785044
0.756813 0.5 1.125 0.993698 0.0293127 0.0637293
0.756814 0.5 -1.125 0.993991 0.0291013 -0.0639809
0.467897 0.5 -1.275 1.00022 0.0164847 -0.0352264
0.467897 0.5 1.275 1.00012 0.0165926 0.0351219
0.151552 0.5 -1.35 1.00032 0.00573846 -0.0112319
0.151552 0.5 1.35 1.0003 0.00577107 0.0112041
1.26895 0.5 0.492419 0.870198 0.0889879 0.12487
1.26895 0.5 -0.492419 0.873256 0.0879697 -0.127994
1.35183 0.5 0.172226 0.781428 0.108145 0.0615579
1.35183 0.5 -0.172226 0.781658 0.107956 -0.063225
0.872262 0.5 -1.05 0.987802 0.0360596 -0.0782989
0.872262 0.5 1.05 0.987415 0.0363287 0.077953
1.24616 0.5 0.564227 0.892302 0.0832682 0.132162
1.24616 0.5 -0.564227 0.892941 0.0828129 -0.133318
1.30563 0.5 -0.41803 0.845086 0.0951184 -0.124097
1.30563 0.5 0.41803 0.844524 0.0955341 0.122619
1.07737 0.5 0.853578 0.961969 0.0556233 0.110721
1.07737 0.5 -0.853578 0.962628 0.0551981 -0.111378
1.21551 0.5 0.642243 0.913554 0.0765496 0.131401
1.21551 0.5 -0.642243 0.914331 0.0760605 -0.132488
0.969689 0.5 -0.975 0.978564 0.0440552 -0.0938498
0.969689 0.5 0.975 0.978921 0.0437632 0.0924873
1.3344 0.5 -0.34968 0.820922 0.100598 -0.114012
1.3344 0.5 0.34968 0.82046 0.100966 0.112472
0.288433 0.5 -1.35 1.00069 0.0101417 -0.0207515
0.288433 0.5 1.35 1.00065 0.0102034 0.020701
1.17123 0.5 -0.730821 0.936772 0.0677292 -0.1276
1.17123 0.5 0.730821 0.935859 0.0682636 0.126645
1.35183 0.5 -0.287044 0.79893 0.104907 -0.101136
1.35183 0.5 0.287044 0.798545 0.105221 0.0995107
1.3856 0.5 -5.08026e-18 0.754701 0.112863 -0.000902064
1.3856 0.5 0.111298 0.759186 0.112168 0.042733
1.3856 0.5 -0.11144 0.759351 0.112034 -0.0445278
0.715676 0.5 -1.2 0.997133 0.0259081 -0.0585
0.715676 0.5 1.2 0.996872 0.0261016 0.0583052
0.574156 0.5 -1.275 0.999911 0.019869 -0.0442855
0.574156 0.5 1.275 0.999745 0.0200093 0.0441599
0.835106 0.5 -1.125 0.992643 0.0322933 -0.0730052
0.835106 0.5 1.125 0.992281 0.0325434 0.0727263
1.3856 0.5 0.222595 0.772601 0.110007 0.0842599
1.3856 0.5 -0.222879 0.772933 0.109741 -0.0860246
1.02577 0.5 -0.958248 0.97664 0.0475654 -0.10284
1.02577 0.5 0.958248 0.976392 0.0477923 0.10231
0 0.5 -1.40445 1 0 0
0 0.5 1.40445 1 0 0
1.14932 0.5 0.810406 0.950401 0.0627807 0.124248
1.14932 0.5 -0.810406 0.951085 0.0623188 -0.125013
0.939379 0.5 -1.05 0.985998 0.0392063 -0.0872441
0.939379 0.5 1.05 0.985535 0.0395148 0.0868701
1.35183 0.5 0.401861 0.822953 0.10093 0.131641
1.35183 0.5 -0.401861 0.82351 0.100486 -0.13319
1.26895 0.5 -0.615524 0.90031 0.0818231 -0.144049
1.26895 0.5 0.615524 0.898967 0.0824895 0.142637
0.412065 0.5 -1.35 1.00098 0.0139475 -0.0300074
0.412065 0.5 1.35 1.0009 0.0140394 0.0299373
1.30563 0.5 0.537467 0.871636 0.0901166 0.144268
1.30563 0.5 -0.537467 0.873121 0.089473 -0.146366
1.3344 0.5 0.46624 0.847008 0.0960156 0.139957
1.3344 0.5 -0.46624 0.847626 0.0955393 -0.141402
1.41888 0.5 -0.0540558 0.735824 0.115767 -0.0244631
1.41888 0.5 0.0540558 0.735618 0.115854 0.0213836
1.24616 0.5 0.68961 0.918677 0.0767706 0.143501
1.24616 0.5 -0.68961 0.919436 0.076249 -0.144539
1.3856 0.5 0.333893 0.794246 0.106474 0.12128
1.3856 0.5 -0.334319 0.794756 0.106074 -0.122983
0.075776 0.5 1.425 1.00016 0.00308245 0.00602167
0.075776 0.5 -1.425 1.00017 0.00306502 -0.00603265
1.41888 0.5 0.162168 0.744782 0.11446 0.0662202
1.41888 0.5 -0.162168 0.745399 0.114201 -0.0692322
1.12068 0.5 0.896561 0.964112 0.056752 0.119703
1.12068 0.5 -0.896561 0.965142 0.0561709 -0.120329
1.4361 0.5 0 0.724882 0.117565 -0.000931066
1.21551 0.5 0.770692 0.937581 0.0698964 0.138491
1.21551 0.5 -0.770692 0.938445 0.0693523 -0.139395
1.4361 0.5 0.10639 0.72955 0.116897 0.0454779
1.4361 0.5 -0.10639 0.729706 0.116759 -0.0473336
0.67013 0.5 -1.275 0.999563 0.022941 -0.0530925
0.67013 0.5 1.275 0.999335 0.0231165 0.0529488
0.797951 0.5 -1.2 0.996326 0.028914 -0.0672772
0.797951 0.5 1.2 0.995997 0.0291441 0.0670607
0.219992 0.5 1.425 1.00064 0.00772266 0.0156066
0.219992 0.5 -1.425 1.00067 0.00767642 -0.0156349
0.90582 0.5 -1.125 0.991387 0.0353096 -0.0818402
0.90582 0.5 1.125 0.990537 0.0361413 0.0827596
1.41888 0.5 -0.270279 0.763999 0.111261 -0.11088
1.41888 0.5 0.270279 0.762982 0.111687 0.108018
0 0.5 -1.44555 1 0 0
0 0.5 1.44555 1 0 0
1.35183 0.5 -0.516678 0.853772 0.0949625 -0.157995
1.35183 0.5 0.516678 0.848899 0.0960552 0.14923
0.523729 0.5 -1.35 1.00113 0.0172879 -0.0389112
0.523729 0.5 1.35 1.001 0.0174109 0.0388252
1 0.5 -1.05 0.984941 0.0425479 -0.0976062
1 0.5 1.05 0.984391 0.0429056 0.0972036
1.4361 0.5 0.21278 0.743586 0.114811 0.0899286
1.4361 0.5 -0.21278 0.743902 0.114535 -0.0917634
1.38525 0.5 0.444071 0.822478 0.101793 0.151373
1.17123 0.5 -0.863698 0.95764 0.060987 -0.130338
1.17123 0.5 0.863698 0.956695 0.0615621 0.129634
1.3856 0.5 -0.445758 0.823592 0.101193 -0.15334
1.3344 0.5 0.582801 0.877534 0.0900438 0.159001
1.3344 0.5 -0.582801 0.878299 0.0894806 -0.16031
1.45835 0.5 0.0520823 0.709692 0.119526 0.0231256
1.45835 0.5 -0.0520823 0.709776 0.119453 -0.0250995
1.30563 0.5 -0.656904 0.903122 0.0829455 -0.1594
1.30563 0.5 0.656904 0.902269 0.0835276 0.158218
1.45835 0.5 0.156247 0.719256 0.118137 0.0703463
1.45835 0.5 -0.156247 0.719513 0.117919 -0.0723043
1.07737 0.5 0.995841 0.977934 0.0492849 0.110131
1.07737 0.5 -0.995841 0.978604 0.048845 -0.110606
0.350249 0.5 1.425 1.00123 0.0116168 0.0248064
0.350249 0.5 -1.425 1.00129 0.011541 -0.024849
1.26895 0.5 0.738629 0.92594 0.0757896 0.15098
1.26895 0.5 -0.738629 0.927359 0.0750546 -0.152074
1.41888 0.5 0.378391 0.789328 0.107642 0.144127
1.41888 0.5 -0.378391 0.790736 0.107047 -0.146741
1.4361 0.5 0.31917 0.766452 0.111408 0.130053
1.4361 0.5 -0.31917 0.766945 0.110992 -0.131839
1.45835 0.5 -0.260411 0.738731 0.115032 -0.116729
1.45835 0.5 0.260411 0.738302 0.115394 0.114801
0.756813 0.5 1.275 0.998967 0.0259942 0.0614941
0.756814 0.5 -1.275 0.999263 0.025784 -0.0616538
0.872262 0.5 -1.2 0.995627 0.0317471 -0.0758504
0.872262 0.5 1.2 0.995228 0.0320155 0.0756136
0.969689 0.5 -1.125 0.990972 0.0383299 -0.0916091
0.969689 0.5 1.125 0.990227 0.0383688 0.0900232
0.624584 0.5 -1.35 1.00124 0.0202623 -0.0474908
0.624584 0.5 1.35 1.00105 0.0204184 0.0473922
1.48766 0.5 4.39463e-17 0.688057 0.122066 -0.00167403
1.14932 0.5 0.945474 0.968952 0.0560108 0.124041
1.14932 0.5 -0.945474 0.969677 0.0555268 -0.12462
1.24616 0.5 -0.814994 0.944473 0.0692843 -0.148531
1.24616 0.5 0.814994 0.943628 0.069852 0.147667
1.48766 0.5 0.101234 0.692738 0.121442 0.0478665
1.48766 0.5 -0.101234 0.69316 0.12126 -0.0511846
1.35183 0.5 0.631496 0.887211 0.0887165 0.1704
1.35183 0.5 -0.631496 0.886889 0.0885214 -0.172943
1.3856 0.5 -0.557198 0.857329 0.0952813 -0.174877
1.38702 0.5 0.556488 0.856531 0.0958907 0.173373
1.4361 0.5 0.42556 0.797093 0.106851 0.163579
1.4361 0.5 -0.42556 0.797764 0.106301 -0.165291
0.467897 0.5 -1.425 1.00184 0.014875 -0.0336662
0.467897 0.5 1.425 1.00173 0.0149809 0.0336128
1.41888 0.5 0.486502 0.8181 0.103167 0.171146
1.41888 0.5 -0.486502 0.824175 0.101764 -0.175049
0 0.5 1.5 1 0 0
0 0.5 -1.5 1 0 0
1.48766 0.5 0.202468 0.707192 0.119439 0.0956943
1.48766 0.5 -0.202468 0.708041 0.119075 -0.0989327
1.50211 0.5 -0.0498948 0.677854 0.123223 -0.0264161
1.50211 0.5 0.0498948 0.677777 0.123299 0.0243984
1.45835 0.5 0.364576 0.766095 0.111418 0.153581
1.45835 0.5 -0.364576 0.766733 0.110912 -0.155436
1.3344 0.5 0.699361 0.908784 0.0833661 0.169071
1.3344 0.5 -0.699361 0.909681 0.0827344 -0.170224
0.151552 0.5 1.5 1.00048 0.00533146 0.0107707
0.151552 0.5 -1.5 1.00049 0.00529971 -0.010784
1.02577 0.5 -1.10567 0.989801 0.0416498 -0.0999209
1.02577 0.5 1.10567 0.989514 0.0418849 0.099467
1.50211 0.5 0.149684 0.687543 0.121957 0.0742919
1.50211 0.5 -0.149684 0.687781 0.121732 -0.0763006
1.21551 0.5 0.899141 0.959269 0.0628608 0.138821
1.21551 0.5 -0.899141 0.960189 0.0622816 -0.139504
1.48766 0.5 -0.303703 0.732433 0.115625 -0.142626
1.48766 0.5 0.303703 0.731143 0.116167 0.139572
1.30563 0.5 -0.776341 0.931862 0.0759547 -0.164535
1.30563 0.5 0.776341 0.930903 0.0765926 0.163536
1.50211 0.5 0.249473 0.707195 0.119297 0.121768
1.50211 0.5 -0.249473 0.707599 0.118919 -0.12376
1.52312 0.5 -1.56125e-18 0.661264 0.125044 -0.00106089
0.939379 0.5 -1.2 0.995219 0.0343161 -0.0840053
0.939379 0.5 1.2 0.994755 0.0346226 0.0837516
0.835106 0.5 1.275 0.998727 0.0286787 0.0697876
0.835107 0.5 -1.275 0.999091 0.0284313 -0.0699615
1.12068 0.5 1.03449 0.980138 0.0501058 0.117028
1.12068 0.5 -1.03449 0.981115 0.0495225 -0.117412
1.52312 0.5 0.0976882 0.666122 0.124421 0.0505284
1.52312 0.5 -0.0976882 0.666289 0.124266 -0.0526462
0.288433 0.5 1.5 1.00116 0.00936071 0.0198297
0.288433 0.5 -1.5 1.0012 0.00930057 -0.0198526
0.715676 0.5 -1.35 1.0014 0.0229703 -0.0557628
0.715676 0.5 1.35 1.00114 0.0231601 0.0556547
1.4361 0.5 0.53195 0.83356 0.101264 0.188099
1.4361 0.5 -0.53195 0.834403 0.100598 -0.189695
1.45835 0.5 -0.46874 0.802211 0.105809 -0.186617
1.45835 0.5 0.46874 0.8014 0.106451 0.184853
0 0.5 1.5326 1 0 0
0 0.5 -1.5326 1 0 0
1.26895 0.5 0.861734 0.950434 0.0686394 0.151905
1.26895 0.5 -0.861734 0.951862 0.0678518 -0.152636
1.52312 0.5 0.195376 0.680935 0.122443 0.10058
1.52312 0.5 -0.195376 0.681278 0.122131 -0.102685
0.574156 0.5 1.425 1.00217 0.0179321 0.042028
0.574156 0.5 -1.425 1.00233 0.0177951 -0.0420887