# wallShearStress  FACE_DATA 60650
# x  y  z  wallShearStress_x  wallShearStress_y  wallShearStress_z
8.75721 0 0.345731 0.00136703 -4.01213e-07 6.50006e-05
8.72516 0 0.336919 0.00125523 -1.69354e-06 0.00010493
8.69439 0 0.328456 0.00113533 -3.88653e-06 0.0001195
8.66483 0 0.320329 0.00101271 -4.99128e-06 0.000119148
8.63646 0 0.312526 0.000899555 -5.41179e-06 0.00010837
8.6092 0 0.305031 0.000798216 -4.88914e-06 9.26701e-05
8.58303 0 0.297833 0.00068624 -4.83686e-06 6.25948e-05
8.82531 0 0.430728 0.00136049 2.41815e-06 -6.80165e-05
8.79057 0 0.419435 0.00129028 7.51905e-07 -2.54695e-05
8.75721 0 0.408591 0.00120831 -8.19152e-07 9.43557e-06
8.72516 0 0.398176 0.00111862 -1.53366e-06 3.59788e-05
8.69439 0 0.388175 0.00101745 -3.14925e-06 5.00217e-05
8.66483 0 0.378571 0.000923505 -3.46716e-06 5.38849e-05
8.63646 0 0.369348 0.00083192 -5.68363e-06 3.97702e-05
8.6092 0 0.360491 0.000734164 -5.04721e-06 3.19351e-05
8.58303 0 0.351985 0.000625679 -5.22242e-06 1.67163e-05
8.5579 0 0.343817 0.000520287 -4.30873e-06 -5.20313e-06
8.53376 0 0.335973 0.000450806 -3.99529e-06 -3.56422e-05
8.51058 0 0.32844 0.000383644 -4.56274e-06 -7.67263e-05
8.9384 0 0.539403 0.00129669 -1.23873e-05 0.000242286
8.89917 0 0.52469 0.00127162 -1.03649e-05 0.000217658
8.8615 0 0.510562 0.00124079 -8.96158e-06 0.00020204
8.82531 0 0.496994 0.00120247 -7.25453e-06 0.000192708
8.79057 0 0.483964 0.0011578 -5.68189e-06 0.000187095
8.75721 0 0.471451 0.00109769 -5.52003e-06 0.00017762
8.72516 0 0.459434 0.00103462 -3.99519e-06 0.000170295
8.69439 0 0.447895 0.000959772 -4.56627e-06 0.000151262
8.66483 0 0.436813 0.000889439 -3.42426e-06 0.000136156
8.63646 0 0.426171 0.000795276 -4.323e-06 0.000115848
8.6092 0 0.415951 0.000690715 -4.01164e-06 9.61894e-05
8.58303 0 0.406136 0.000605692 -5.03535e-06 6.898e-05
8.5579 0 0.396712 0.0005199 -6.27585e-06 2.91393e-05
8.53376 0 0.387661 0.000442367 -7.2224e-06 -1.80892e-05
8.51058 0 0.378969 0.000364071 -6.67413e-06 -6.51773e-05
8.48833 0 0.370622 0.000290093 -6.94785e-06 -0.000114388
8.46695 0 0.362605 0.000222798 -6.00385e-06 -0.000165518
8.9384 0 0.611323 0.00123613 -1.58728e-05 0.000740372
8.89917 0 0.594649 0.00120618 -1.16372e-05 0.000670108
8.8615 0 0.578636 0.00118283 -1.04854e-05 0.000602383
8.82531 0 0.563259 0.00114725 -9.87468e-06 0.000542306
8.79057 0 0.548492 0.00111232 -7.69139e-06 0.000493322
8.75721 0 0.534311 0.00106086 -7.40634e-06 0.000441596
8.72516 0 0.520692 0.00101024 -5.44219e-06 0.000401348
8.69439 0 0.507614 0.000941485 -5.10588e-06 0.000357738
8.66483 0 0.495055 0.000863808 -4.31182e-06 0.000317207
8.63646 0 0.482994 0.000785912 -4.1311e-06 0.000275783
8.6092 0 0.471411 0.000699051 -4.0524e-06 0.00022407
8.58303 0 0.460288 0.000616835 -4.9629e-06 0.000169174
8.5579 0 0.449607 0.000529751 -5.70719e-06 0.000110223
8.53376 0 0.439349 0.000446329 -7.55418e-06 4.99736e-05
8.51058 0 0.429498 0.000361947 -7.42668e-06 -1.0194e-05
8.48833 0 0.420038 0.000283388 -6.95578e-06 -7.10298e-05
8.46695 0 0.410953 0.000212905 -7.15215e-06 -0.000131913
8.44642 0 0.402229 0.0001539 -5.49613e-06 -0.000194368
8.42671 0 0.393851 0.000108998 -3.14325e-06 -0.000256493
8.9384 0 0.683243 0.00120682 -1.19649e-05 0.00114417
8.89917 0 0.664607 0.00117829 -8.50757e-06 0.00104296
8.8615 0 0.646711 0.00115058 -9.00274e-06 0.000947218
8.82531 0 0.629525 0.00112198 -7.798e-06 0.000865929
8.79057 0 0.613021 0.00109529 -7.1953e-06 0.000790834
8.75721 0 0.597171 0.00104556 -6.84545e-06 0.000720152
8.72516 0 0.58195 0.000994143 -6.22991e-06 0.000651521
8.69439 0 0.567333 0.000935962 -5.90476e-06 0.000587329
8.66483 0 0.553296 0.000871143 -5.38482e-06 0.000519071
8.63646 0 0.539816 0.00080184 -5.12782e-06 0.000451971
8.6092 0 0.526871 0.000720206 -4.66293e-06 0.00038073
8.58303 0 0.51444 0.000643866 -5.0112e-06 0.000307563
8.5579 0 0.502501 0.000561073 -4.83716e-06 0.000229595
8.53376 0 0.491037 0.000473274 -6.11744e-06 0.000151086
8.51058 0 0.480027 0.00038472 -6.77001e-06 7.41082e-05
8.48833 0 0.469454 0.000300977 -7.50053e-06 -2.57727e-06
8.46695 0 0.4593 0.00022397 -6.41139e-06 -7.81287e-05
8.44642 0 0.44955 0.000158688 -7.07151e-06 -0.000152441
8.42671 0 0.440186 0.000104223 -4.90172e-06 -0.000225988
8.40778 0 0.431194 6.55635e-05 -2.95447e-06 -0.000297143
8.38959 0 0.422558 3.98165e-05 -3.10137e-06 -0.000365496
8.9384 0 0.755163 0.00121063 -5.92404e-06 0.00145746
8.89917 0 0.734566 0.0011839 -6.55437e-06 0.00134367
8.8615 0 0.714786 0.00115521 -6.58488e-06 0.00123235
8.82531 0 0.69579 0.00112327 -5.87865e-06 0.00113505
8.79057 0 0.677549 0.001093 -5.83088e-06 0.00104661
8.75721 0 0.660031 0.00105181 -5.94793e-06 0.000966771
8.72516 0 0.643208 0.00100868 -5.70218e-06 0.000882046
8.69439 0 0.627053 0.000954448 -5.5694e-06 0.000800718
8.66483 0 0.611538 0.000896562 -5.20393e-06 0.000715927
8.63646 0 0.596639 0.00083445 -5.14226e-06 0.000633963
8.6092 0 0.582331 0.000762734 -4.93303e-06 0.000548931
8.58303 0 0.568591 0.000692152 -5.47695e-06 0.000460703
8.5579 0 0.555397 0.00061328 -5.05026e-06 0.00037079
8.53376 0 0.542725 0.000527148 -5.33201e-06 0.000277747
8.51058 0 0.530556 0.000437268 -5.27118e-06 0.000184063
8.48833 0 0.518871 0.000348404 -6.59215e-06 9.0685e-05
8.46695 0 0.507648 0.000263378 -6.94566e-06 -7.6234e-07
8.44642 0 0.496871 0.000187673 -6.35736e-06 -9.04176e-05
8.42671 0 0.486522 0.000123169 -6.52955e-06 -0.000176972
8.40778 0 0.476583 7.37561e-05 -4.64377e-06 -0.000262059
8.38959 0 0.467038 3.86458e-05 -3.20616e-06 -0.000342531
8.9384 0 0.827083 0.0012318 -1.05993e-05 0.00170652
8.89917 0 0.804525 0.00119783 -5.92129e-06 0.00160165
8.8615 0 0.782861 0.00117648 -7.9728e-06 0.00148022
8.82531 0 0.762056 0.00114214 -5.99955e-06 0.00137231
8.79057 0 0.742077 0.00110942 -4.88121e-06 0.0012716
8.75721 0 0.722891 0.00106909 -4.78327e-06 0.00117669
8.72516 0 0.704466 0.00103366 -4.98215e-06 0.00108512
8.69439 0 0.686772 0.000988654 -5.14299e-06 0.000997074
8.66483 0 0.66978 0.000938787 -4.93324e-06 0.000903509
8.63646 0 0.653462 0.000881734 -4.85115e-06 0.00081077
8.6092 0 0.637792 0.000818074 -4.68043e-06 0.000716217
8.58303 0 0.622743 0.000754423 -5.19602e-06 0.000619566
8.5579 0 0.608291 0.000682858 -5.11748e-06 0.00052199
8.53376 0 0.594413 0.000603942 -5.48625e-06 0.000420541
8.51058 0 0.581085 0.000518372 -4.81389e-06 0.000316257
8.48833 0 0.568287 0.000428011 -5.21108e-06 0.000209043
8.46695 0 0.555995 0.00033684 -6.11611e-06 0.000102555
8.44642 0 0.544192 0.000250642 -6.94757e-06 -2.25807e-06
8.42671 0 0.532857 0.000173401 -6.07523e-06 -0.000103801
8.40778 0 0.521972 0.00011019 -6.35243e-06 -0.000201805
8.38959 0 0.511518 6.23975e-05 -4.09645e-06 -0.000296875
8.9384 0 0.899004 0.00127495 -1.24929e-05 0.00194281
8.89917 0 0.874483 0.00123347 -6.2242e-06 0.00183727
8.8615 0 0.850935 0.00120938 -8.6456e-06 0.00171239
8.82531 0 0.828322 0.00117735 -6.6089e-06 0.00159828
8.79057 0 0.806606 0.00114664 -6.76557e-06 0.00148573
8.75721 0 0.785751 0.00110471 -4.71338e-06 0.00137896
8.72516 0 0.765724 0.00106438 -4.34859e-06 0.00127368
8.69439 0 0.746491 0.00102602 -4.52982e-06 0.0011765
8.66483 0 0.728022 0.000986941 -4.79947e-06 0.00108003
8.63646 0 0.710285 0.000937637 -4.90525e-06 0.000983962
8.6092 0 0.693252 0.000881944 -4.72903e-06 0.000883658
8.58303 0 0.676895 0.000823678 -4.96406e-06 0.00078183
8.5579 0 0.661186 0.000759221 -5.01585e-06 0.000679141
8.53376 0 0.646101 0.000690041 -5.57031e-06 0.000573311
8.51058 0 0.631614 0.00061347 -5.2791e-06 0.000464261
8.48833 0 0.617703 0.000529124 -5.30391e-06 0.000350434
8.46695 0 0.604343 0.000439287 -4.82192e-06 0.000233356
8.44642 0 0.591513 0.000347755 -6.3832e-06 0.000115276
8.42671 0 0.579192 0.000259197 -6.63127e-06 -9.13361e-07
8.40778 0 0.56736 0.000180702 -6.32544e-06 -0.000114157
8.38959 0 0.555998 0.000114267 -6.17438e-06 -0.000223062
8.37214 0 0.545086 6.91274e-05 -4.07422e-06 -0.000328739
8.9384 0 0.970925 0.00132302 -9.69842e-06 0.0021553
8.89917 0 0.944442 0.00128216 -4.66506e-06 0.00204674
8.8615 0 0.91901 0.00126397 -9.31204e-06 0.00192087
8.82531 0 0.894588 0.00122415 -6.82029e-06 0.00180917
8.79057 0 0.871135 0.00118973 -7.0631e-06 0.00169201
8.75721 0 0.848612 0.00115837 -6.11025e-06 0.00157571
8.72516 0 0.826982 0.00111973 -5.43171e-06 0.00146102
8.69439 0 0.806211 0.00107147 -3.93029e-06 0.00135452
8.66483 0 0.786263 0.0010334 -3.878e-06 0.0012461
8.63646 0 0.767108 0.000993972 -4.09783e-06 0.00114649
8.6092 0 0.748712 0.000951052 -4.22033e-06 0.00104605
8.58303 0 0.731046 0.00090017 -4.41116e-06 0.000944363
8.5579 0 0.714081 0.000843803 -4.40722e-06 0.000839484
8.53376 0 0.697789 0.000783781 -5.00424e-06 0.000731346
8.51058 0 0.682144 0.000717851 -5.11772e-06 0.000620841
8.48833 0 0.667119 0.000644168 -5.59279e-06 0.000505005
8.46695 0 0.65269 0.000562733 -5.14343e-06 0.000384379
8.44642 0 0.638834 0.000473935 -5.16727e-06 0.000258852
8.42671 0 0.625528 0.000382038 -6.09541e-06 0.000131835
8.40778 0 0.612749 0.000292306 -6.94299e-06 4.99517e-06
8.38959 0 0.600478 0.000210063 -6.13458e-06 -0.000118772
8.37214 0 0.588693 0.000144349 -5.87421e-06 -0.000239079
8.97926 0 1.07246 0.00138673 -3.48273e-06 0.00254139
8.9384 0 1.04284 0.00137808 -1.17796e-05 0.00236868
8.89917 0 1.0144 0.00132223 -2.30701e-06 0.00226336
8.8615 0 0.987085 0.00129644 -8.28434e-06 0.00212762
8.82531 0 0.960854 0.00126344 -6.93929e-06 0.00200711
8.79057 0 0.935663 0.00123765 -8.88465e-06 0.00188222
8.75721 0 0.911471 0.0011989 -7.78951e-06 0.00176608
8.72516 0 0.88824 0.00116021 -7.13353e-06 0.00165392
8.69439 0 0.86593 0.00112784 -6.84477e-06 0.00154153
8.66483 0 0.844505 0.00108758 -5.77669e-06 0.00142931
8.63646 0 0.823931 0.00103814 -5.18366e-06 0.00131876
8.6092 0 0.804172 0.00100033 -4.80614e-06 0.00121215
8.58303 0 0.785198 0.000961172 -4.86352e-06 0.00111053
8.5579 0 0.766976 0.000917322 -4.87257e-06 0.0010072
8.53376 0 0.749477 0.000866192 -5.01493e-06 0.000900272
8.51058 0 0.732673 0.000809678 -5.31888e-06 0.000789946
8.48833 0 0.716535 0.000749473 -5.82534e-06 0.000673728
8.46695 0 0.701038 0.000680823 -5.77258e-06 0.000552694
8.44642 0 0.686155 0.000602842 -5.84871e-06 0.000426321
8.42671 0 0.671863 0.000518549 -5.24828e-06 0.00029437
8.40778 0 0.658138 0.000429342 -6.55476e-06 0.000158321
8.38959 0 0.644957 0.000339394 -7.0474e-06 2.18722e-05
8.37214 0 0.6323 0.000258386 -6.20979e-06 -0.000112773
8.97926 0 1.14643 0.00140154 -3.23283e-08 0.00275151
8.9384 0 1.11476 0.00142287 -1.14681e-05 0.00257534
8.89917 0 1.08436 0.00137507 -1.02042e-06 0.00246943
8.8615 0 1.05516 0.00135311 -6.73759e-06 0.00232713
8.82531 0 1.02712 0.00131796 -3.63667e-06 0.00219583
8.79057 0 1.00019 0.00128956 -5.18107e-06 0.00206345
8.75721 0 0.974331 0.00125923 -4.35378e-06 0.00194371
8.72516 0 0.949498 0.00122466 -4.37512e-06 0.00182436
8.69439 0 0.925649 0.00118821 -4.06182e-06 0.00170842
8.66483 0 0.902747 0.0011613 -4.16411e-06 0.00160056
8.63646 0 0.880753 0.00112629 -4.69731e-06 0.00148767
8.6092 0 0.859632 0.00108202 -3.06803e-06 0.00137888
8.58303 0 0.839349 0.00103952 -3.0996e-06 0.00126957
8.5579 0 0.819871 0.00100368 -3.0862e-06 0.00116445
8.53376 0 0.801165 0.000963293 -3.43009e-06 0.00106025
8.51058 0 0.783202 0.000916379 -3.96179e-06 0.00095449
8.48833 0 0.765951 0.000865789 -4.4757e-06 0.000843919
8.46695 0 0.749385 0.000807938 -4.85758e-06 0.000724029
8.44642 0 0.733476 0.000739961 -5.51745e-06 0.000600857
8.42671 0 0.718198 0.000667363 -5.549e-06 0.000472117
8.40778 0 0.703526 0.000587444 -5.487e-06 0.000335997
8.38959 0 0.689437 0.00050094 -6.60794e-06 0.000194198
8.37214 0 0.675907 0.000411448 -7.81704e-06 5.02007e-05
8.97926 0 1.22039 0.00141783 -3.17631e-07 0.00291898
8.9384 0 1.18669 0.00145867 -1.43918e-05 0.00274948
8.89917 0 1.15432 0.00140887 -4.27997e-06 0.00265575
8.8615 0 1.12324 0.00137791 -1.14053e-05 0.00252943
8.82531 0 1.09339 0.00133875 -8.97402e-06 0.00241156
8.79057 0 1.06472 0.0012972 -1.01721e-05 0.00228462
8.75721 0 1.03719 0.00125469 -9.48919e-06 0.002159
8.72516 0 1.01076 0.00122374 -1.05026e-05 0.0020295
8.69439 0 0.985369 0.00119283 -9.58707e-06 0.00190093
8.66483 0 0.960988 0.00116167 -8.92546e-06 0.00177902
8.63646 0 0.937576 0.00113483 -8.59027e-06 0.00166796
8.6092 0 0.915092 0.00111145 -8.81641e-06 0.00155816
8.58303 0 0.893501 0.0010798 -6.96293e-06 0.00144939
8.5579 0 0.872766 0.00103806 -6.10917e-06 0.0013366
8.53376 0 0.852853 0.00100406 -4.73551e-06 0.00121969
8.51058 0 0.833731 0.000966785 -4.78671e-06 0.00111395
8.48833 0 0.815368 0.000935568 -5.44049e-06 0.00101066
8.46695 0 0.797732 0.000895348 -5.11647e-06 0.000896504
8.44642 0 0.780797 0.000838332 -5.24736e-06 0.000778259
8.42671 0 0.764534 0.000781872 -5.59736e-06 0.000655043
8.40778 0 0.748915 0.000719852 -5.95304e-06 0.000524288
8.38959 0 0.733917 0.000649234 -5.59578e-06 0.000385162
8.37214 0 0.719513 0.000569737 -6.83411e-06 0.000239296
8.97926 0 1.29435 0.00140934 4.61986e-06 0.00304053
8.9384 0 1.25861 0.00148675 -8.04045e-06 0.00289044
8.89917 0 1.22428 0.00144469 4.52955e-06 0.0027957
8.8615 0 1.19131 0.00142176 -1.35569e-06 0.00268144
8.82531 0 1.15965 0.00140805 5.95649e-07 0.00256819
8.79057 0 1.12925 0.00139028 -1.99099e-06 0.0024454
8.75721 0 1.10005 0.00137163 -1.77101e-06 0.00232226
8.72516 0 1.07202 0.00135317 -2.86085e-06 0.00219976
8.69439 0 1.04509 0.00132787 -2.31148e-06 0.00208255
8.66483 0 1.01923 0.00129445 -2.20322e-06 0.00196396
8.63646 0 0.994399 0.00124879 -1.46617e-06 0.00184645
8.6092 0 0.970553 0.00121032 -2.02594e-06 0.00173158
8.58303 0 0.947652 0.00118055 -3.01745e-06 0.00162164
8.5579 0 0.925661 0.00116335 -3.71467e-06 0.00150901
8.53376 0 0.904541 0.00112007 -4.36054e-06 0.00138806
8.51058 0 0.88426 0.00105969 -2.79932e-06 0.00127582
8.48833 0 0.864784 0.00103253 -3.57116e-06 0.00117132
8.46695 0 0.84608 0.00100509 -4.34082e-06 0.00106429
8.44642 0 0.828118 0.000954975 -4.62013e-06 0.000952765
8.42671 0 0.810869 0.000902036 -5.3695e-06 0.000840817
8.40778 0 0.794304 0.000849531 -6.01107e-06 0.000722435
8.38959 0 0.778397 0.000790861 -6.85176e-06 0.000593106
8.37214 0 0.76312 0.000718016 -7.83214e-06 0.000457856
8.97926 0 1.36832 0.00137923 -4.13259e-06 0.00306114
8.9384 0 1.33053 0.00143912 -2.50889e-05 0.00297846
8.89917 0 1.29423 0.00137629 -1.70489e-05 0.00291964
8.8615 0 1.25938 0.00134102 -1.88205e-05 0.00284094
8.82531 0 1.22592 0.00131978 -1.66172e-05 0.00274819
8.79057 0 1.19378 0.00129791 -1.63679e-05 0.0026401
8.75721 0 1.16291 0.00127675 -1.43302e-05 0.00252764
8.72516 0 1.13327 0.00125465 -1.39673e-05 0.00240662
8.69439 0 1.10481 0.00123307 -1.28886e-05 0.00228201
8.66484 0 1.07747 0.0012132 -1.24388e-05 0.0021529
8.63646 0 1.05122 0.00119437 -1.10635e-05 0.00202282
8.6092 0 1.02601 0.00117485 -9.98165e-06 0.00189135
8.58303 0 1.0018 0.00115025 -8.32103e-06 0.00177012
8.5579 0 0.978555 0.00114163 -8.07479e-06 0.00165399
8.53376 0 0.956229 0.00112339 -8.59681e-06 0.00154615
8.51058 0 0.934789 0.00109361 -5.88084e-06 0.00143916
8.48833 0 0.9142 0.00106866 -4.5707e-06 0.00132547
8.46695 0 0.894427 0.00104939 -3.74424e-06 0.00121226
8.44642 0 0.875439 0.00102294 -1.84009e-06 0.00109307
8.42671 0 0.857205 0.000990685 -1.59766e-06 0.000982735
8.40778 0 0.839693 0.000969746 -1.67565e-06 0.000870154
8.38959 0 0.822877 0.000938162 -1.29371e-06 0.000747658
8.37214 0 0.806727 0.000887687 -1.12204e-06 0.000622276
8.97926 0 1.44228 0.00142126 2.56434e-05 0.00285568
8.9384 0 1.40245 0.00156887 7.28559e-06 0.00287319
8.89917 0 1.36419 0.00160784 8.90628e-06 0.00290732
8.8615 0 1.32746 0.00160353 6.89394e-06 0.00290534
8.82531 0 1.29218 0.00158794 5.48891e-06 0.00286969
8.79057 0 1.2583 0.00155738 2.38305e-06 0.00280045
8.75721 0 1.22577 0.00152341 1.00637e-06 0.00271339
8.72516 0 1.19453 0.00148751 -1.27606e-06 0.00260716
8.69439 0 1.16453 0.0014497 -3.01209e-06 0.00248971
8.66483 0 1.13571 0.00140882 -5.31507e-06 0.00236547
8.63646 0 1.10804 0.00136622 -6.45398e-06 0.00224062
8.6092 0 1.08147 0.00132459 -7.67043e-06 0.00211689
8.58303 0 1.05595 0.00128484 -8.37292e-06 0.00199331
8.5579 0 1.03145 0.00124533 -8.41187e-06 0.00187559
8.53376 0 1.00792 0.00119886 -9.00874e-06 0.00176284
8.51058 0 0.985317 0.00116327 -9.87588e-06 0.0016531
8.48833 0 0.963616 0.00113522 -1.12798e-05 0.00153981
8.46695 0 0.942775 0.00110624 -1.3332e-05 0.00142517
8.44642 0 0.92276 0.00105128 -1.31443e-05 0.00131434
8.42671 0 0.90354 0.000984412 -1.20064e-05 0.00120332
8.40778 0 0.885082 0.00095156 -1.26733e-05 0.00109111
8.38959 0 0.867357 0.000903784 -1.41989e-05 0.000979768
8.37214 0 0.850334 0.000838153 -1.51991e-05 0.000863416
7.66922 0 0.966948 0.000413925 -6.71099e-06 -8.74667e-05
7.67296 0 0.988324 0.00039723 -6.59118e-06 -4.49397e-05
7.67685 0 1.01058 0.000378282 -6.55113e-06 -7.67031e-06
7.68091 0 1.03376 0.000354822 -6.74381e-06 2.27797e-05
7.68513 0 1.0579 0.000325 -6.18247e-06 4.55956e-05
7.68953 0 1.08303 0.000286884 -5.58036e-06 6.1439e-05
7.69411 0 1.1092 0.00024556 -5.35908e-06 7.23866e-05
7.69888 0 1.13646 0.000192116 -4.3851e-06 6.06797e-05
7.70385 0 1.16483 9.76706e-05 -5.69036e-06 1.15133e-05
7.70902 0 1.19439 -7.50211e-05 -8.35156e-06 -6.96423e-05
7.7144 0 1.22516 -0.00029922 -8.88981e-06 -0.000159876
7.72001 0 1.25721 -0.000592339 -1.01525e-05 -0.000271241
7.72585 0 1.29057 -0.000937731 -1.59021e-05 -0.000380081
7.73193 0 1.32531 -0.00137099 -1.79927e-05 -0.000481898
7.70425 0 0.907776 0.000570243 -4.28572e-06 -0.000213917
7.70851 0 0.926707 0.000539184 -5.04999e-06 -0.000167535
7.71295 0 0.946421 0.000524917 -6.40183e-06 -0.000112763
7.71757 0 0.966948 0.000514635 -7.35423e-06 -5.45989e-05
7.72238 0 0.988324 0.000504804 -7.63215e-06 6.6448e-07
7.72738 0 1.01058 0.000493876 -7.27706e-06 4.89475e-05
7.7326 0 1.03376 0.000479527 -5.91669e-06 8.88121e-05
7.73803 0 1.0579 0.000461549 -5.27484e-06 0.000118859
7.74368 0 1.08303 0.000438118 -4.67502e-06 0.000139145
7.74957 0 1.1092 0.000410475 -4.40148e-06 0.000151299
7.7557 0 1.13646 0.00037243 -5.48469e-06 0.000160114
7.76209 0 1.16484 0.000327385 -4.23529e-06 0.000162914
7.76874 0 1.19439 0.000261964 -3.27891e-06 0.000143941
7.77566 0 1.22516 0.000147939 -5.17023e-06 8.65836e-05
7.78287 0 1.25721 -5.8706e-05 -9.56474e-06 2.97918e-06
7.79038 0 1.29057 -0.000310521 -1.02549e-05 -9.12481e-05
7.7982 0 1.32531 -0.000644234 -1.17652e-05 -0.000178994
7.73984 0 0.872138 0.000813579 -2.37398e-06 -0.000292566
7.74464 0 0.889597 0.000699852 -3.40466e-06 -0.000258645
7.74964 0 0.907777 0.000644233 -3.7843e-06 -0.000213796
7.75484 0 0.926707 0.000621819 -5.77805e-06 -0.000155104
7.76026 0 0.94642 0.000613206 -8.41047e-06 -8.67214e-05
7.76591 0 0.966948 0.000608601 -8.458e-06 -1.51101e-05
7.77179 0 0.988324 0.000604697 -8.54701e-06 5.25479e-05
7.77791 0 1.01058 0.000599094 -6.86896e-06 0.000109996
7.78428 0 1.03376 0.000589264 -5.90935e-06 0.000157688
7.79092 0 1.0579 0.000577755 -4.68128e-06 0.000196097
7.79783 0 1.08303 0.000564685 -4.43542e-06 0.00022876
7.80503 0 1.1092 0.000554158 -4.39736e-06 0.000255116
7.81252 0 1.13646 0.000535742 -4.38804e-06 0.000269719
7.82033 0 1.16483 0.000506774 -3.77611e-06 0.000272525
7.82845 0 1.19439 0.00046553 -3.95531e-06 0.000270342
7.83692 0 1.22516 0.000407737 -4.23076e-06 0.000261987
7.84573 0 1.25721 0.000323444 -3.4501e-06 0.000233585
7.85491 0 1.29057 0.000169194 -4.09269e-06 0.000153366
7.86446 0 1.32531 -8.03264e-05 -1.20671e-05 8.18568e-05
7.87441 0 1.3615 -0.000383742 -1.03174e-05 -4.58948e-05
7.778 0 0.855372 0.00100933 -1.02177e-06 -0.000338349
7.78345 0 0.872138 0.000850576 -2.75858e-06 -0.000306544
7.78912 0 0.889597 0.000756585 -3.53005e-06 -0.000269086
7.79503 0 0.907776 0.000713718 -5.17138e-06 -0.000211836
7.80118 0 0.926708 0.000698738 -6.94761e-06 -0.000138163
7.80759 0 0.94642 0.000695544 -8.91503e-06 -5.33486e-05
7.81425 0 0.966948 0.000696047 -9.88012e-06 3.16562e-05
7.82121 0 0.988324 0.000695747 -8.92796e-06 0.000109189
7.82844 0 1.01058 0.000692541 -6.67927e-06 0.00017404
7.83597 0 1.03376 0.000685642 -5.69329e-06 0.000231359
7.84382 0 1.0579 0.000682404 -4.67573e-06 0.000283785
7.85199 0 1.08303 0.000681923 -5.27964e-06 0.000335266
7.86049 0 1.1092 0.000680007 -4.55221e-06 0.000371677
7.86935 0 1.13646 0.000670852 -3.84968e-06 0.000387855
7.87857 0 1.16484 0.000658024 -3.03253e-06 0.000406202
7.88818 0 1.19439 0.000640354 -2.81024e-06 0.000416515
7.89818 0 1.22516 0.000607793 -2.68421e-06 0.000412806
7.90859 0 1.25721 0.000554726 -3.23395e-06 0.00040048
7.91943 0 1.29057 0.000473307 -2.49776e-06 0.000370292
7.93073 0 1.32531 0.000349627 -5.10472e-06 0.0003332
7.94249 0 1.3615 0.000119883 -2.13289e-06 0.000205856
7.81473 0 0.839271 0.00119542 -1.5771e-06 -0.000409461
7.82076 0 0.855372 0.00102409 -1.1651e-06 -0.000371364
7.82705 0 0.872138 0.00088159 -2.90137e-06 -0.000326114
7.8336 0 0.889597 0.000807393 -2.90527e-06 -0.000278402
7.84042 0 0.907777 0.000776887 -5.66834e-06 -0.000204574
7.84752 0 0.926707 0.000769012 -9.93933e-06 -0.000112026
7.85491 0 0.946421 0.000771553 -1.06502e-05 -1.10938e-05
7.8626 0 0.966948 0.000775909 -1.06585e-05 8.46535e-05
7.87062 0 0.988324 0.00077695 -8.05056e-06 0.000169979
7.87897 0 1.01058 0.000775355 -6.15466e-06 0.000243089
7.88766 0 1.03376 0.000773001 -6.03918e-06 0.000317208
7.89671 0 1.0579 0.00078317 -5.58775e-06 0.000390337
7.90614 0 1.08303 0.000789248 -5.62564e-06 0.000446976
7.91595 0 1.1092 0.000790145 -4.57203e-06 0.000487321
7.92617 0 1.13646 0.000790064 -3.3337e-06 0.000522014
7.93681 0 1.16483 0.000791343 -2.68416e-06 0.000554116
7.9479 0 1.19439 0.000785117 -2.57354e-06 0.00057399
7.95943 0 1.22516 0.000772285 -2.21216e-06 0.000580626
7.97145 0 1.25721 0.000747165 -1.949e-06 0.000577475
7.98397 0 1.29057 0.000701077 -1.26418e-06 0.000556456
7.99699 0 1.32531 0.000624711 -3.6391e-06 0.00052444
8.01056 0 1.3615 0.000492992 -1.57399e-07 0.000453251
8.02469 0 1.39917 0.000315227 -1.15794e-05 0.000409876
7.85669 0 0.839271 0.00119444 -1.14004e-06 -0.000463464
7.86353 0 0.855372 0.00102372 -2.01646e-06 -0.000407021
7.87066 0 0.872138 0.000904673 -3.33526e-06 -0.000346961
7.87808 0 0.889596 0.000850601 -4.79316e-06 -0.000281271
7.88581 0 0.907777 0.000832654 -7.31985e-06 -0.000187672
7.89385 0 0.926708 0.000832845 -1.08306e-05 -7.43172e-05
7.90223 0 0.94642 0.000840746 -1.19938e-05 4.00135e-05
7.91095 0 0.966948 0.000846836 -1.06574e-05 0.000143038
7.92003 0 0.988324 0.000848447 -7.69298e-06 0.00023614
7.9295 0 1.01058 0.000851424 -5.99275e-06 0.000322708
7.93935 0 1.03376 0.00085867 -7.34141e-06 0.000422231
7.94961 0 1.0579 0.000875695 -6.30139e-06 0.0005057
7.96029 0 1.08303 0.000884623 -5.69163e-06 0.000560013
7.97141 0 1.1092 0.000890899 -4.59412e-06 0.00061308
7.98299 0 1.13646 0.000900319 -3.15139e-06 0.000667071
7.99505 0 1.16484 0.000910066 -2.83101e-06 0.000712993
8.00761 0 1.19439 0.000915691 -2.54803e-06 0.000743319
8.02069 0 1.22516 0.000917322 -2.13017e-06 0.000762235
8.03431 0 1.25721 0.000911093 -1.6754e-06 0.000769779
8.04849 0 1.29057 0.000893429 -1.00867e-06 0.000763211
8.06326 0 1.32531 0.000857702 -1.53934e-06 0.000742579
8.07864 0 1.3615 0.000792807 9.27772e-08 0.000695267
8.09465 0 1.39917 0.00069263 -4.95682e-06 0.000635945
7.89865 0 0.839271 0.00115695 -8.67713e-07 -0.000508785
7.9063 0 0.855372 0.00100567 -2.05991e-06 -0.000434072
7.91427 0 0.872138 0.000917108 -2.4838e-06 -0.000359168
7.92256 0 0.889597 0.000883863 -5.40489e-06 -0.000268803
7.93119 0 0.907776 0.000878856 -1.12929e-05 -0.000151106
7.94019 0 0.926708 0.000887349 -1.22648e-05 -1.93841e-05
7.94955 0 0.94642 0.000899539 -1.20515e-05 0.000103796
7.9593 0 0.966948 0.000905472 -9.03345e-06 0.0002108
7.96945 0 0.988324 0.000907884 -7.54691e-06 0.000316965
7.98003 0 1.01058 0.000920634 -6.41392e-06 0.000425122
7.99104 0 1.03376 0.000939471 -7.80885e-06 0.000534315
8.0025 0 1.0579 0.000956098 -6.14954e-06 0.000624431
8.01444 0 1.08303 0.000968808 -5.49203e-06 0.000684792
8.02687 0 1.1092 0.000981146 -4.15421e-06 0.000753168
8.03981 0 1.13646 0.000997744 -2.89686e-06 0.000823666
8.05329 0 1.16483 0.00101205 -2.94147e-06 0.000881928
8.06733 0 1.19439 0.00102644 -2.3646e-06 0.000925771
8.08195 0 1.22516 0.00103836 -1.95242e-06 0.000960245
8.09717 0 1.25721 0.00104435 -1.45621e-06 0.000982559
8.11302 0 1.29057 0.00104133 -7.88312e-07 0.000991818
8.12952 0 1.32531 0.00102616 -7.07041e-07 0.000989722
8.14671 0 1.3615 0.000990914 1.08378e-06 0.00096541
8.16461 0 1.39917 0.000923527 -1.17152e-06 0.000925933
8.18324 0 1.4384 0.000811188 1.58906e-06 0.000861814
7.94062 0 0.839271 0.00109645 -2.00524e-06 -0.000537533
7.94907 0 0.855372 0.000979715 -2.70578e-06 -0.000445134
7.95787 0 0.872138 0.000923665 -5.04e-06 -0.000352228
7.96704 0 0.889597 0.000909878 -8.03226e-06 -0.000233859
7.97658 0 0.907777 0.000916926 -1.20556e-05 -9.29281e-05
7.98652 0 0.926707 0.000933551 -1.31631e-05 5.14201e-05
7.99687 0 0.946421 0.000948241 -1.12829e-05 0.000178086
8.00765 0 0.966948 0.000954372 -8.21893e-06 0.000288673
8.01887 0 0.988324 0.000960796 -8.56613e-06 0.000414366
8.03055 0 1.01058 0.000988052 -7.40111e-06 0.000543724
8.04273 0 1.03376 0.00100986 -8.00557e-06 0.000653459
8.0554 0 1.0579 0.00102759 -6.71893e-06 0.000741304
8.06859 0 1.08303 0.00104403 -5.50622e-06 0.000817259
8.08233 0 1.1092 0.00106237 -4.04206e-06 0.000901553
8.09664 0 1.13646 0.00108284 -3.32761e-06 0.000983436
8.11154 0 1.16484 0.00110024 -3.42201e-06 0.00105257
8.12705 0 1.19439 0.00111925 -2.72924e-06 0.00111141
8.14321 0 1.22516 0.00113605 -2.29974e-06 0.00116023
8.16003 0 1.25721 0.00114801 -1.69086e-06 0.00119599
8.17755 0 1.29057 0.00115183 -1.00674e-06 0.00121699
8.19579 0 1.32531 0.00114455 -1.14873e-06 0.0012247
8.21479 0 1.3615 0.00112142 6.48865e-07 0.00121149
8.23457 0 1.39917 0.00107217 -8.54591e-07 0.00117705
8.25516 0 1.4384 0.000993764 3.34467e-06 0.00110429
8.27661 0 1.47926 0.000854554 -3.03917e-06 0.000964758
7.99184 0 0.855371 0.000945297 -2.43387e-06 -0.000432699
8.00148 0 0.872138 0.000920802 -5.50946e-06 -0.000313434
8.01152 0 0.889596 0.000924703 -1.1894e-05 -0.000166318
8.02197 0 0.907777 0.000943063 -1.33172e-05 -6.83063e-06
8.03286 0 0.926708 0.000965959 -1.22935e-05 0.000144746
8.04419 0 0.94642 0.000983055 -7.93467e-06 0.000272797
8.05599 0 0.966948 0.000992783 -7.18433e-06 0.000391477
8.06829 0 0.988324 0.00100764 -9.51466e-06 0.000543151
8.08108 0 1.01058 0.00104324 -6.81981e-06 0.000679552
8.09441 0 1.03376 0.00106452 -7.1664e-06 0.000779086
8.10829 0 1.0579 0.0010848 -6.0118e-06 0.000873547
8.12274 0 1.08303 0.00110482 -4.404e-06 0.000963788
8.13779 0 1.1092 0.00112701 -3.21571e-06 0.0010631
8.15346 0 1.13646 0.00114917 -3.11111e-06 0.00115331
8.16978 0 1.16483 0.00117032 -3.01431e-06 0.00123102
8.18677 0 1.19439 0.00119179 -2.31243e-06 0.00130233
8.20447 0 1.22516 0.00121111 -1.88106e-06 0.00136361
8.22289 0 1.25721 0.00122623 -1.35339e-06 0.00141152
8.24208 0 1.29057 0.00123379 -7.94578e-07 0.00144298
8.26206 0 1.32531 0.00123037 -7.52419e-07 0.00145775
8.28286 0 1.3615 0.00121456 9.92516e-07 0.00145106
8.30453 0 1.39917 0.00117478 2.85582e-07 0.00141936
8.32708 0 1.4384 0.00111172 4.62477e-06 0.00135068
8.35057 0 1.47926 0.0010106 -4.36007e-06 0.0012199
8.03461 0 0.855372 0.000915224 -5.08946e-06 -0.000390521
8.04508 0 0.872138 0.000916288 -1.10124e-05 -0.000240247
8.056 0 0.889597 0.000937027 -1.25054e-05 -7.18154e-05
8.06736 0 0.907776 0.000966558 -1.39645e-05 9.52848e-05
8.07919 0 0.926707 0.000993602 -1.13579e-05 0.00024502
8.09151 0 0.946421 0.00101378 -8.07507e-06 0.00037417
8.10434 0 0.966948 0.00103057 -8.51145e-06 0.000507053
8.1177 0 0.988324 0.00105846 -1.09469e-05 0.000668191
8.13161 0 1.01058 0.00109296 -7.30696e-06 0.000806694
8.1461 0 1.03376 0.00111581 -7.87893e-06 0.000898355
8.16118 0 1.0579 0.00113769 -6.6164e-06 0.0010004
8.17689 0 1.08303 0.00116111 -4.92294e-06 0.00110311
8.19325 0 1.1092 0.00118601 -4.13102e-06 0.00121259
8.21028 0 1.13646 0.0012077 -4.33995e-06 0.00131207
8.22802 0 1.16484 0.00123034 -4.05117e-06 0.00139956
8.24649 0 1.19439 0.00125184 -3.32981e-06 0.00148194
8.26572 0 1.22516 0.00127073 -2.88721e-06 0.0015549
8.28575 0 1.25721 0.00128543 -2.06042e-06 0.00161468
8.30661 0 1.29057 0.00129315 -1.50992e-06 0.00165756
8.32832 0 1.32531 0.00129173 -1.19146e-06 0.00168117
8.35093 0 1.3615 0.00127871 1.73552e-07 0.0016823
8.37448 0 1.39917 0.0012462 -3.35437e-07 0.00165907
8.399 0 1.4384 0.00119477 3.6286e-06 0.00160414
8.42454 0 1.47926 0.00111592 -2.90267e-06 0.00148305
8.07738 0 0.855372 0.000887839 -7.45208e-06 -0.000292416
8.08869 0 0.872138 0.000911202 -1.03538e-05 -0.0001144
8.10048 0 0.889597 0.000945051 -1.22314e-05 6.79361e-05
8.11275 0 0.907777 0.00097951 -1.04553e-05 0.000236672
8.12553 0 0.926708 0.00100745 -7.1437e-06 0.000383606
8.13883 0 0.94642 0.00103019 -5.85093e-06 0.00051675
8.15269 0 0.966948 0.00105559 -7.92154e-06 0.00066691
8.16712 0 0.988324 0.00109444 -8.70782e-06 0.00082748
8.18214 0 1.01058 0.00112538 -5.65153e-06 0.000957035
8.19779 0 1.03376 0.00114897 -5.6165e-06 0.00105032
8.21408 0 1.0579 0.00117093 -4.32297e-06 0.00115917
8.23104 0 1.08303 0.00119568 -2.84616e-06 0.00127507
8.24871 0 1.1092 0.00122149 -2.8015e-06 0.00138865
8.26711 0 1.13646 0.00124389 -2.76045e-06 0.00149217
8.28626 0 1.16483 0.0012668 -2.60504e-06 0.00158731
8.30621 0 1.19439 0.00128807 -2.18574e-06 0.0016762
8.32698 0 1.22516 0.00130664 -1.952e-06 0.00175549
8.34861 0 1.25721 0.00132121 -1.26292e-06 0.001822
8.37113 0 1.29057 0.00132961 -9.26922e-07 0.00187208
8.39459 0 1.32531 0.00133069 -4.33651e-07 0.0019029
8.41901 0 1.3615 0.00132102 1.61027e-07 0.00191006
8.44444 0 1.39917 0.00129512 1.99319e-07 0.00189455
8.47093 0 1.4384 0.00125096 3.16731e-06 0.00185133
8.4985 0 1.47926 0.00118614 -2.0147e-06 0.00174696
8.12014 0 0.855372 0.000878391 -1.22391e-05 -0.00016167
8.1323 0 0.872138 0.000916828 -1.47267e-05 2.10701e-05
8.14496 0 0.889596 0.000958081 -1.37461e-05 0.000193183
8.15814 0 0.907777 0.000994268 -9.41148e-06 0.000345903
8.17186 0 0.926708 0.00102315 -8.98666e-06 0.000485326
8.18616 0 0.94642 0.0010519 -8.19237e-06 0.000625176
8.20104 0 0.966948 0.00108727 -1.13633e-05 0.000785832
8.21654 0 0.988324 0.00112771 -1.03002e-05 0.000939549
8.23267 0 1.01058 0.00115718 -7.92065e-06 0.00105065
8.24948 0 1.03376 0.00118092 -7.2396e-06 0.00114981