0 1e-10
0.00128482 0.00780852
0.00256965 0.0166753
0.00387803 0.0160678
0.00518642 0.0152774
0.00651881 0.0149375
0.00785119 0.0144537
0.00831078 0.0143868
0.00877037 0.0143199
0.0096676 0.0140669
0.0105648 0.0138139
0.0119465 0.0135361
0.0133283 0.0131416
0.0138049 0.0130418
0.0142815 0.012942
0.0152119 0.0126397
0.0161424 0.0123375
0.0175752 0.0119063
0.0190081 0.011375
0.0204672 0.0108683
0.0219263 0.0102776
0.0224297 0.010099
0.022933 0.00992046
0.0239156 0.00951292
0.0248981 0.00910538
0.0264113 0.00853933
0.0279244 0.00794238
0.0284464 0.00776246
0.0289683 0.00758254
0.0299873 0.00723119
0.0310063 0.00687984
0.0325754 0.00642432
0.0341446 0.0059944
0.0346858 0.00586821
0.0352271 0.00574201
0.0362838 0.00553522
0.0373405 0.00532843
0.0378917 0.00523839
0.0384429 0.00514835
0.0395189 0.00501505
0.040595 0.00488174
0.0422521 0.00473193
0.0439092 0.00461994
0.0455967 0.00454233
0.0472842 0.00449304
0.0490026 0.00446321
0.0507211 0.00445213
0.052471 0.00445009
0.054221 0.00446006
0.056003 0.00447299
0.0577851 0.00449443
0.0595998 0.00451517
0.0614146 0.0045417
0.0620405 0.00454914
0.0626665 0.00455657
0.0638886 0.00457498
0.0651106 0.00459338
0.0669925 0.00461787
0.0688745 0.00464589
0.0707909 0.00467042
0.0727073 0.00469826
0.0733684 0.004706
0.0740294 0.00471374
0.07532 0.00473201
0.0766105 0.00475028
0.0785979 0.00477455
0.0805853 0.00480204
0.0826091 0.00482627
0.0846329 0.00485373
0.0866939 0.00487801
0.0887548 0.00490555
0.0908536 0.00492994
0.0929523 0.00495764
0.0950896 0.0049822
0.0972268 0.0050101
0.0994033 0.00503485
0.10158 0.00506299
0.103796 0.00508794
0.106012 0.00511633
0.108269 0.0051415
0.110526 0.00517014
0.112825 0.00519553
0.115123 0.0052244
0.117464 0.00525001
0.119804 0.00527912
0.122188 0.00530494
0.124571 0.00533428
0.126999 0.00536031
0.129426 0.00538988
0.131897 0.0054161
0.134369 0.00544588
0.136886 0.00547229
0.139403 0.00550228
0.139693 0.00550508
0.139982 0.00550789
0.142256 0.00553224
0.14453 0.005559
0.146565 0.005579
0.1486 0.00560261
0.149175 0.00560929
0.14975 0.00561596
0.152408 0.0056427
0.155066 0.00567305
0.157773 0.00569979
0.16048 0.00573013
0.163237 0.00575684
0.165993 0.00578713
0.1688 0.0058138
0.171607 0.00584404
0.174466 0.0058707
0.177324 0.00590094
0.180235 0.00592764
0.183146 0.00595793
0.186111 0.00598473
0.189075 0.00601515
0.192094 0.0060421
0.195113 0.0060727
0.198187 0.00609983
0.201261 0.00613065
0.204391 0.00615799
0.207522 0.00618906
0.21071 0.00621664
0.213898 0.00624799
0.217144 0.00627583
0.22039 0.00630748
0.223696 0.00633559
0.227002 0.00636754
0.230369 0.00639591
0.233735 0.00642815
0.237164 0.00645678
0.240592 0.0064893
0.244083 0.00651818
0.247574 0.00655098
0.251129 0.0065801
0.254685 0.00661319
0.258305 0.00664257
0.261925 0.00667595
0.265612 0.00670561
0.269299 0.00673931
0.273053 0.00676928
0.276808 0.00680333
0.280631 0.00683366
0.284454 0.00686813
0.288348 0.00689887
0.292241 0.00693381
0.296206 0.00696503
0.300171 0.0070005
0.304208 0.0070322
0.308246 0.00706823
0.312358 0.0071004
0.316469 0.00713695
0.320656 0.00716954
0.324843 0.00720654
0.329107 0.0072395
0.333371 0.0072769
0.337713 0.00731022
0.342055 0.00734804
0.346476 0.00738176
0.350898 0.00742004
0.355401 0.00745418
0.359903 0.00749293
0.364489 0.00752752
0.369074 0.00756676
0.373744 0.00760178
0.378413 0.00764151
0.383168 0.00767697
0.387923 0.00771719
0.392765 0.00775309
0.397608 0.0077938
0.402539 0.00783014
0.40747 0.00787134
0.412491 0.00790812
0.417513 0.00794981
0.422626 0.00798703
0.42774 0.00802922
0.432948 0.00806688
0.438155 0.00810956
0.443458 0.00814766
0.448761 0.00819083
0.454161 0.00822939
0.459561 0.00827306
0.46506 0.00831207
0.47056 0.00835624
0.47616 0.00839569
0.48176 0.00844035
0.487463 0.00848026
0.493165 0.00852543
0.498973 0.00856579
0.50478 0.00861147
0.510694 0.00865228
0.516608 0.00869847
0.52263 0.00873975
0.528653 0.00878645
0.534786 0.00882819
0.540918 0.00887541
0.547164 0.00891762
0.553409 0.00896535
0.559769 0.00900803
0.566129 0.00905629
0.572605 0.00909944
0.579082 0.00914822
0.585677 0.00919185
0.592272 0.00924117
0.598989 0.00928528
0.605705 0.00933513
0.612544 0.00937973
0.619384 0.00943012
0.626349 0.00947521
0.633314 0.00952614
0.640406 0.00957173
0.647499 0.00962321
0.654722 0.0096693
0.661944 0.00972134
0.669299 0.00976793
0.676655 0.00982052
0.684145 0.00986763
0.691635 0.00992079
0.699262 0.00996841
0.70689 0.0100221
0.714657 0.0100703
0.722424 0.0101246
0.725104 0.0101401
0.727783 0.0101555
0.733013 0.0101918
0.738244 0.0102281
0.746299 0.0102773
0.754354 0.0103328
0.757132 0.0103486
0.759911 0.0103644
0.765335 0.0104015
0.770759 0.0104386
0.779112 0.0104889
0.787465 0.0105455
0.795971 0.0105964
0.804478 0.0106536
0.81314 0.010705
0.821802 0.0107629
0.830623 0.0108148
0.839445 0.0108733
0.848428 0.0109258
0.857411 0.0109849
0.860509 0.0110019
0.863608 0.0110188
0.869657 0.0110583
0.875706 0.0110978
0.881866 0.0111312
0.888026 0.0111709
0.891182 0.0111914
0.894337 0.0112118
0.903823 0.0112661
0.91331 0.0113271
0.92297 0.011382
0.93263 0.0114436
0.942468 0.0114991
0.952305 0.0115614
0.962323 0.0116175
0.972341 0.0116804
0.975797 0.0116985
0.979252 0.0117166
0.985998 0.0117587
0.992745 0.0118008
1.00313 0.011858
1.01352 0.0119224
1.0241 0.0119803
1.03468 0.0120453
1.04545 0.0121038
1.05623 0.0121695
1.0672 0.0122287
1.07817 0.0122951
1.08934 0.0123549
1.10051 0.012422
1.11189 0.0124825
1.12327 0.0125503
1.13485 0.0126114
1.14644 0.0126799
1.15824 0.0127417
1.17004 0.0128109
1.18205 0.0128733
1.19407 0.0129433
1.2063 0.0130064
1.21854 0.0130771
1.23099 0.0131408
1.24345 0.0132122
1.25614 0.0132767
1.26883 0.0133488
1.28175 0.0134139
1.29467 0.0134868
1.30783 0.0135526
1.32099 0.0136262
1.33439 0.0136927
1.34778 0.0137671
1.36143 0.0138342
1.37507 0.0139093
1.38897 0.0139772
1.40286 0.0140531
1.41701 0.0141216
1.43116 0.0141982
1.44557 0.0142674
1.45998 0.0143448
1.47466 0.0144147
1.48933 0.0144929
1.50427 0.0145635
1.51921 0.0146423
1.53443 0.0147136
1.54965 0.0147933
1.56514 0.0148653
1.58064 0.0149457
1.59642 0.0150183
1.6122 0.0150995
1.62827 0.0151729
1.64434 0.0152548
1.6607 0.0153289
1.67707 0.0154116
1.69373 0.0154863
1.7104 0.0155698
1.72737 0.0156452
1.74434 0.0157294
1.76162 0.0158055
1.7789 0.0158905
1.7965 0.0159673
1.81409 0.0160531
1.83202 0.0161306
1.84994 0.0162171
1.86819 0.0162952
1.88644 0.0163824
1.90502 0.0164592
1.9236 0.0165446
1.94253 0.0165717
1.96146 0.0166007
1.98073 0.0160735
2 0.015471
