0 1e-10
0.00128482 0.000118275
0.00256965 0.00023655
0.00387803 0.000289187
0.00518642 0.000341825
0.00651881 0.000404809
0.00785119 0.000467792
0.00920802 0.000572767
0.0105648 0.000677741
0.0119465 0.000837897
0.0133283 0.000998053
0.0147353 0.00120809
0.0161424 0.00141814
0.0175752 0.00166129
0.0190081 0.00190444
0.0204672 0.00215962
0.0219263 0.0024148
0.0234122 0.00266158
0.0248981 0.00290836
0.0264113 0.00312943
0.0279244 0.00335051
0.0294653 0.00353223
0.0310063 0.00371396
0.0325754 0.0038468
0.0341446 0.00397963
0.0357425 0.00405641
0.0373405 0.00413318
0.0389677 0.00415062
0.040595 0.00416806
0.0422521 0.00412787
0.0439092 0.00408769
0.0455967 0.00397945
0.0472842 0.00387121
0.0490026 0.00369776
0.0507211 0.00352431
0.052471 0.00330878
0.054221 0.00309325
0.056003 0.00285428
0.0577851 0.0026153
0.0595998 0.00237557
0.0614146 0.00213584
0.0632626 0.00191975
0.0651106 0.00170365
0.0669925 0.00153048
0.0688745 0.0013573
0.0707909 0.00123585
0.0727073 0.00111441
0.0746589 0.0010382
0.0766105 0.000962002
0.0785979 0.000917167
0.0805853 0.000872332
0.0826091 0.000849739
0.0846329 0.000827146
0.0866939 0.000819496
0.0887548 0.000811847
0.0908536 0.00081122
0.0929523 0.000810594
0.0950896 0.000812975
0.0972268 0.000815356
0.0994033 0.000819922
0.10158 0.000824487
0.103796 0.00082985
0.106012 0.000835212
0.108269 0.000840565
0.110526 0.000845918
0.112825 0.000851321
0.115123 0.000856725
0.117464 0.000862156
0.119804 0.000867588
0.122188 0.000873047
0.124571 0.000878506
0.126999 0.000884004
0.129426 0.000889502
0.131897 0.000895047
0.134369 0.000900593
0.136886 0.000906194
0.139403 0.000911795
0.141967 0.000917452
0.14453 0.00092311
0.14714 0.000928816
0.14975 0.000934523
0.152408 0.000940268
0.155066 0.000946012
0.157773 0.000951786
0.16048 0.00095756
0.163237 0.000963359
0.165993 0.000969158
0.1688 0.000974977
0.171607 0.000980796
0.174466 0.000986626
0.177324 0.000992456
0.180235 0.000998281
0.183146 0.00100411
0.186111 0.00100992
0.189075 0.00101573
0.192094 0.00102152
0.195113 0.00102731
0.198187 0.00103309
0.201261 0.00103886
0.204391 0.00104464
0.207522 0.00105042
0.21071 0.00105621
0.213898 0.00106201
0.217144 0.00106783
0.22039 0.00107365
0.223696 0.00107951
0.227002 0.00108537
0.230369 0.00109128
0.233735 0.00109718
0.237164 0.00110313
0.240592 0.00110909
0.244083 0.00111509
0.247574 0.00112109
0.251129 0.00112714
0.254685 0.00113319
0.258305 0.00113929
0.261925 0.00114539
0.265612 0.00115153
0.269299 0.00115767
0.273053 0.00116386
0.276808 0.00117005
0.280631 0.00117629
0.284454 0.00118252
0.288348 0.00118882
0.292241 0.00119511
0.296206 0.00120146
0.300171 0.00120782
0.304208 0.00121425
0.308246 0.00122067
0.312358 0.00122719
0.316469 0.0012337
0.320656 0.00124031
0.324843 0.00124692
0.329107 0.00125363
0.333371 0.00126034
0.337713 0.00126716
0.342055 0.00127397
0.346476 0.00128088
0.350898 0.0012878
0.355401 0.0012948
0.359903 0.00130181
0.364489 0.0013089
0.369074 0.001316
0.373744 0.00132318
0.378413 0.00133037
0.383168 0.00133765
0.387923 0.00134493
0.392765 0.00135231
0.397608 0.00135969
0.402539 0.00136717
0.40747 0.00137465
0.412491 0.00138224
0.417513 0.00138983
0.422626 0.00139752
0.42774 0.00140521
0.432948 0.001413
0.438155 0.0014208
0.443458 0.0014287
0.448761 0.0014366
0.454161 0.00144462
0.459561 0.00145263
0.46506 0.00146075
0.47056 0.00146887
0.47616 0.0014771
0.48176 0.00148533
0.487463 0.00149367
0.493165 0.00150202
0.498973 0.00151047
0.50478 0.00151893
0.510694 0.00152751
0.516608 0.00153608
0.52263 0.00154477
0.528653 0.00155346
0.534786 0.00156227
0.540918 0.00157109
0.547164 0.00158002
0.553409 0.00158895
0.559769 0.00159801
0.566129 0.00160707
0.572605 0.00161626
0.579082 0.00162544
0.585677 0.00163476
0.592272 0.00164407
0.598989 0.00165352
0.605705 0.00166297
0.612544 0.00167255
0.619384 0.00168214
0.626349 0.00169186
0.633314 0.00170158
0.640406 0.00171144
0.647499 0.0017213
0.654722 0.00173131
0.661944 0.00174132
0.669299 0.00175147
0.676655 0.00176163
0.684145 0.00177193
0.691635 0.00178224
0.699262 0.0017927
0.70689 0.00180316
0.714657 0.00181378
0.722424 0.0018244
0.730334 0.00183518
0.738244 0.00184596
0.746299 0.00185691
0.754354 0.00186786
0.762556 0.00187897
0.770759 0.00189009
0.779112 0.00190138
0.787465 0.00191267
0.795971 0.00192414
0.804478 0.00193561
0.81314 0.00194726
0.821802 0.00195891
0.830623 0.00197074
0.839445 0.00198258
0.848428 0.0019946
0.857411 0.00200663
0.866558 0.00201885
0.875706 0.00203107
0.885021 0.00204348
0.894337 0.0020559
0.903823 0.00206852
0.91331 0.00208114
0.92297 0.00209396
0.93263 0.00210678
0.942468 0.00211982
0.952305 0.00213285
0.962323 0.0021461
0.972341 0.00215934
0.982543 0.00217281
0.992745 0.00218627
1.00313 0.00219995
1.01352 0.00221364
1.0241 0.00222754
1.03468 0.00224145
1.04545 0.00225558
1.05623 0.00226971
1.07817 0.00229843
1.10051 0.00232761
1.11189 0.00234243
1.12327 0.00235725
1.13485 0.00237231
1.14644 0.00238736
1.15824 0.00240265
1.17004 0.00241794
1.18205 0.00243347
1.19407 0.00244899
1.2063 0.00246475
1.21854 0.00248051
1.24345 0.0025125
1.26883 0.00254496
1.29467 0.00257788
1.30783 0.00259457
1.32099 0.00261126
1.33439 0.00262818
1.34778 0.0026451
1.36143 0.00266224
1.37507 0.00267938
1.40286 0.00271411
1.43116 0.00274928
1.45998 0.00278487
1.48933 0.00282088
1.51921 0.00285728
1.53443 0.00287567
1.54965 0.00289407
1.56514 0.00291265
1.58064 0.00293124
1.59642 0.00295001
1.6122 0.00296878
1.62827 0.00298773
1.64434 0.00300667
1.6607 0.0030258
1.67707 0.00304493
1.69373 0.00306422
1.7104 0.00308352
1.72737 0.00310299
1.74434 0.00312245
1.76162 0.00314207
1.7789 0.00316169
1.7965 0.00318147
1.81409 0.00320124
1.83202 0.0032212
1.84994 0.00324116
1.86819 0.0032611
1.88644 0.00328103
1.90502 0.00330171
1.9236 0.00332239
1.94253 0.00334104
1.96146 0.0033597
1.98073 0.00327155
2 0.00318341
