0 	-0.017667
0.00128482 	-0.0176593
0.00256965 	-0.0176518
0.00387803 	-0.0176494
0.00518642 	-0.0176465
0.00651881 	-0.0176717
0.00785119 	-0.0176946
0.00920802 	-0.0177505
0.0105648 	-0.0178014
0.0119465 	-0.0178913
0.0133283 	-0.0179715
0.0147353 	-0.0180994
0.0161424 	-0.018211
0.0175752 	-0.018382
0.0190081 	-0.0185265
0.0204672 	-0.0187467
0.0219263 	-0.018924
0.0234122 	-0.0192006
0.0248981 	-0.0194113
0.0264113 	-0.019754
0.0279244 	-0.0200006
0.0294653 	-0.0204202
0.0310063 	-0.0207075
0.0325754 	-0.0212123
0.0341446 	-0.0215453
0.0357425 	-0.0221394
0.0373405 	-0.0225225
0.0389677 	-0.023207
0.040595 	-0.0236431
0.0422521 	-0.0244159
0.0439092 	-0.024906
0.0455967 	-0.0257558
0.0472842 	-0.0262999
0.0490026 	-0.0272015
0.0507211 	-0.027796
0.052471 	-0.0287077
0.054221 	-0.029342
0.056003 	-0.0302214
0.0577851 	-0.030885
0.0595998 	-0.0317036
0.0614146 	-0.0323863
0.0632626 	-0.0331074
0.0651106 	-0.0337938
0.0669925 	-0.0343891
0.0688745 	-0.0350613
0.0707909 	-0.0355339
0.0727073 	-0.0361728
0.0746589 	-0.0365235
0.0766105 	-0.0371119
0.0785979 	-0.0373352
0.0805853 	-0.0378621
0.0826091 	-0.0379603
0.0846329 	-0.038416
0.0866939 	-0.0383989
0.0887548 	-0.0387734
0.0908536 	-0.0386618
0.0929523 	-0.0389522
0.0950896 	-0.0387673
0.0972268 	-0.0389783
0.0994033 	-0.0387527
0.10158 	-0.0389119
0.103796 	-0.0386712
0.106012 	-0.0388057
0.108269 	-0.0385339
0.110526 	-0.0386309
0.112825 	-0.0382857
0.115123 	-0.0382981
0.115264 	-0.0382351
0.115404 	-0.038172
0.117604 	-0.0378124
0.119804 	-0.037673
0.120095 	-0.0375343
0.120386 	-0.0373956
0.124571 	-0.0366023
0.126999 	-0.0357048
0.129426 	-0.0349793
0.131897 	-0.0338874
0.134369 	-0.0328575
0.136886 	-0.0316761
0.139403 	-0.0304479
0.141967 	-0.0292606
0.14453 	-0.0279167
0.14714 	-0.0267827
0.14975 	-0.0254012
0.152408 	-0.0243723
0.155066 	-0.0230489
0.157773 	-0.0221623
0.16048 	-0.0209841
0.163237 	-0.0202845
0.165993 	-0.0193365
0.1688 	-0.0188348
0.171607 	-0.0181372
0.174466 	-0.0177992
0.177324 	-0.0173153
0.180235 	-0.0170943
0.183146 	-0.0167811
0.186111 	-0.0166212
0.189075 	-0.01642
0.192094 	-0.016245
0.195113 	-0.0160671
0.198187 	-0.015792
0.201261 	-0.0155307
0.204391 	-0.0150681
0.207522 	-0.0146064
0.21071 	-0.0138801
0.213898 	-0.0131171
0.217144 	-0.0120834
0.22039 	-0.0109659
0.223696 	-0.00961062
0.227002 	-0.00812884
0.227615 	-0.00787682
0.228228 	-0.00762481
0.230982 	-0.00613247
0.233735 	-0.00464013
0.237164 	-0.00270291
0.240592 	-0.000579735
0.241227 	-0.000249893
0.241863 	7.99496e-05
0.244719 	0.00201154
0.247574 	0.00394313
0.251129 	0.00627228
0.254685 	0.00879894
0.258305 	0.0112322
0.261925 	0.0138388
0.265612 	0.0163016
0.269299 	0.0188939
0.273053 	0.0213033
0.276808 	0.0237858
0.280631 	0.0260629
0.284454 	0.0283529
0.288348 	0.030434
0.292241 	0.0324729
0.296206 	0.0343098
0.300171 	0.0360603
0.304208 	0.0376193
0.308246 	0.0390607
0.312358 	0.0403258
0.316469 	0.0414557
0.320656 	0.0424206
0.324843 	0.0432434
0.329107 	0.0439176
0.333371 	0.0444566
0.337713 	0.0448615
0.342055 	0.0451488
0.346476 	0.0453012
0.350898 	0.0453505
0.355401 	0.0452685
0.359903 	0.0450955
0.364489 	0.0447967
0.369074 	0.0444217
0.373744 	0.0439205
0.378413 	0.0433575
0.383168 	0.0426773
0.387923 	0.0419439
0.392765 	0.0410874
0.397608 	0.040169
0.402539 	0.0390779
0.40747 	0.0379036
0.412491 	0.036513
0.417513 	0.0350256
0.422626 	0.0333145
0.42774 	0.0314932
0.432948 	0.0294978
0.438155 	0.0273759
0.443458 	0.0251721
0.448761 	0.0228352
0.454161 	0.0204631
0.459561 	0.0179584
0.46506 	0.0153808
0.47056 	0.0126705
0.47616 	0.00981236
0.48176 	0.00683196
0.487463 	0.00346765
0.493165 	-3.97237e-05
0.498973 	-0.00379097
0.50478 	-0.00762036
0.510694 	-0.0107678
0.516608 	-0.0137712
0.516608 	-0.0137712
0.52263 	-0.0154736
0.52263 	-0.0154736
0.528653 	-0.016912
0.528653 	-0.016912
0.534786 	-0.0175698
0.540918 	-0.018063
0.547164 	-0.0191775
0.553409 	-0.0202703
0.559769 	-0.0232496
0.566129 	-0.0262235
0.572605 	-0.0314258
0.579082 	-0.0365763
0.585677 	-0.0426075
0.592272 	-0.0484633
0.598989 	-0.0531669
0.605705 	-0.0577747
0.612544 	-0.06017
0.619384 	-0.0627614
0.626349 	-0.0627565
0.633314 	-0.0631378
0.640406 	-0.0617572
0.647499 	-0.0609345
0.654722 	-0.0600193
0.661944 	-0.0597194
0.669299 	-0.0601314
0.676655 	-0.0611015
0.684145 	-0.0626468
0.691635 	-0.0647031
0.699262 	-0.0670285
0.70689 	-0.069862
0.714657 	-0.072788
0.722424 	-0.0762695
0.730334 	-0.0797681
0.738244 	-0.0839113
0.746299 	-0.0880294
0.754354 	-0.0929175
0.762556 	-0.0976432
0.770759 	-0.10326
0.770759 	-0.10326
0.779112 	-0.108553
0.787465 	-0.114833
0.795971 	-0.120447
0.804478 	-0.127047
0.81314 	-0.132469
0.821802 	-0.138634
0.830623 	-0.143216
0.839445 	-0.148005
0.848428 	-0.150956
0.857411 	-0.153504
0.866558 	-0.15434
0.875706 	-0.15429
0.885021 	-0.152976
0.894337 	-0.150381
0.903823 	-0.147211
0.91331 	-0.142515
0.92297 	-0.138163
0.93263 	-0.132289
0.942468 	-0.127459
0.952305 	-0.121331
0.962323 	-0.116551
0.972341 	-0.110804
0.982543 	-0.106419
0.992745 	-0.101391
1.00313 	-0.0975406
1.01352 	-0.0932927
1.0241 	-0.0900297
1.03468 	-0.0865471
1.04545 	-0.0838698
1.05623 	-0.081099
1.0672 	-0.0789297
1.07817 	-0.0767296
1.08934 	-0.074927
1.10051 	-0.0731037
1.11189 	-0.0715133
1.12327 	-0.0698931
1.13485 	-0.068356
1.14644 	-0.0667605
1.15824 	-0.0651239
1.17004 	-0.0633845
1.18205 	-0.0615654
1.19407 	-0.0596101
1.2063 	-0.0576308
1.21854 	-0.0555166
1.23099 	-0.0534685
1.24345 	-0.0513224
1.25614 	-0.0493146
1.26883 	-0.0472639
1.28175 	-0.0453948
1.29467 	-0.0435366
1.30783 	-0.0418787
1.32099 	-0.0402684
1.33439 	-0.0388465
1.34778 	-0.0374914
1.36143 	-0.0362732
1.37507 	-0.0351293
1.38897 	-0.0340708
1.40286 	-0.0330836
1.41701 	-0.0321485
1.43116 	-0.0312764
1.44557 	-0.0304364
1.45998 	-0.0296494
1.47466 	-0.0288889
1.48933 	-0.0281714
1.50427 	-0.027479
1.51921 	-0.0268208
1.53443 	-0.0261894
1.54965 	-0.0255849
1.56514 	-0.025009
1.58064 	-0.0244539
1.59642 	-0.0239288
1.6122 	-0.0234193
1.62827 	-0.0229407
1.64434 	-0.0224735
1.64434 	-0.0224735
1.6607 	-0.022037
1.6607 	-0.022037
1.67707 	-0.0216086
1.67707 	-0.0216086
1.69373 	-0.0212106
1.7104 	-0.0208179
1.72737 	-0.0204545
1.74434 	-0.020094
1.76162 	-0.0197621
1.7789 	-0.0194312
1.7965 	-0.0191275
1.81409 	-0.0188234
1.83202 	-0.0185454
1.84994 	-0.0182658
1.86819 	-0.018011
1.88644 	-0.0177536
1.90502 	-0.0175195
1.9236 	-0.0172822
1.94253 	-0.0170673
1.96146 	-0.0168487
1.98073 	-0.0166612
2 	-0.0164697
