0 1e-10
0.00128482 0.0052334
0.00256965 0.0107287
0.00387803 0.00994783
0.00518642 0.00891957
0.00651881 0.00819937
0.00785119 0.00722692
0.00920802 0.00654166
0.0105648 0.00563841
0.0119465 0.00498499
0.0133283 0.004207
0.0147353 0.0036134
0.0161424 0.0030224
0.0175752 0.00252972
0.0190081 0.00213623
0.0204672 0.00176656
0.0219263 0.00153005
0.0234122 0.00127852
0.0248981 0.00114568
0.0264113 0.000987526
0.0279244 0.000914199
0.0294653 0.000814882
0.0310063 0.000772208
0.0325754 0.000708622
0.0341446 0.000684059
0.0357425 0.000644437
0.0373405 0.000631492
0.0389677 0.00060808
0.040595 0.000603509
0.0422521 0.000591733
0.0439092 0.000594267
0.0455967 0.000590434
0.0472842 0.000598634
0.0490026 0.000600113
0.0507211 0.000612753
0.052471 0.000618046
0.054221 0.000634259
0.056003 0.000642863
0.0577851 0.00066176
0.0595998 0.000673403
0.0614146 0.00069404
0.0632626 0.000707753
0.0651106 0.00072933
0.0669925 0.000744007
0.0688745 0.000766057
0.0707909 0.000780776
0.0727073 0.000802643
0.0746589 0.000817511
0.0766105 0.000838239
0.0776921 0.000847161
0.0787737 0.000856084
0.0796795 0.00086476
0.0805853 0.000873436
0.0816867 0.000882509
0.0827881 0.000891582
0.0837105 0.00089882
0.0846329 0.000906059
0.0866939 0.000921081
0.0887548 0.000934668
0.0908536 0.000948978
0.0929523 0.000961313
0.0950896 0.000975747
0.0972268 0.000986385
0.0994033 0.00100122
0.10158 0.00100982
0.103796 0.00102515
0.106012 0.00103171
0.108269 0.00104703
0.110526 0.0010506
0.112825 0.00106523
0.115123 0.00106612
0.116397 0.00107356
0.117671 0.00108099
0.118738 0.00107999
0.119804 0.00107899
0.122188 0.00109152
0.124571 0.00108842
0.126999 0.00109936
0.129426 0.00109302
0.131897 0.00110207
0.134369 0.00109249
0.136886 0.00109967
0.139403 0.00108721
0.140798 0.00109002
0.142193 0.00109284
0.143362 0.00108501
0.14453 0.00107718
0.14714 0.00107978
0.14975 0.00106186
0.152408 0.00106132
0.155066 0.00104088
0.157773 0.00103746
0.16048 0.00101518
0.163237 0.0010093
0.165993 0.000985976
0.1688 0.000977566
0.171607 0.000953854
0.173163 0.000947941
0.174719 0.000942028
0.176022 0.00093079
0.177324 0.000919551
0.180235 0.000906349
0.183146 0.000883749
0.186111 0.000868767
0.189075 0.000847371
0.192094 0.000831252
0.195113 0.000811311
0.198187 0.000794271
0.201261 0.000775691
0.204391 0.000758948
0.207522 0.000741912
0.21071 0.000726139
0.213898 0.000710296
0.217144 0.000695661
0.22039 0.000681008
0.221492 0.00067648
0.222594 0.000671953
0.224798 0.000662974
0.227002 0.000654125
0.230369 0.000640919
0.233735 0.000629379
0.237164 0.000616211
0.240592 0.000608253
0.244083 0.000596718
0.247574 0.000592488
0.249509 0.000587539
0.251444 0.000582591
0.253064 0.000582344
0.254685 0.000582098
0.258305 0.000576941
0.261925 0.000577757
0.265612 0.000572764
0.269299 0.000573192
0.273053 0.000559792
0.276808 0.000557106
0.280631 0.000531485
0.284454 0.000524099
0.288348 0.000483038
0.292241 0.000470574
0.296206 0.000422575
0.300171 0.000408283
0.304208 0.000369513
0.308246 0.000358073
0.310484 0.000344949
0.312721 0.000331825
0.314595 0.000328652
0.316469 0.000325478
0.320656 0.000311617
0.324843 0.000303331
0.329107 0.000293849
0.333371 0.000284293
0.337713 0.000276156
0.342055 0.000265495
0.346476 0.000257297
0.350898 0.000246668
0.355401 0.000238495
0.359903 0.000229189
0.364489 0.000221819
0.369074 0.000214604
0.373744 0.000208721
0.378413 0.000203779
0.383168 0.000199773
0.387923 0.000196894
0.390558 0.000195722
0.393194 0.000194549
0.395401 0.000194112
0.397608 0.000193674
0.402539 0.000193267
0.40747 0.000193786
0.412491 0.000195216
0.417513 0.00019719
0.422626 0.000201055
0.42774 0.000204313
0.432948 0.000210378
0.438155 0.000213558
0.443458 0.00021735
0.448761 0.000217705
0.454161 0.00021624
0.459561 0.000212534
0.46506 0.000204573
0.47056 0.000196124
0.473607 0.000187259
0.476655 0.000178394
0.479207 0.000172634
0.48176 0.000166873
0.487463 0.000147229
0.493165 0.000133415
0.498973 0.000116831
0.50478 0.000105162
0.510694 9.31759e-05
0.516608 8.41618e-05
0.52263 7.6035e-05
0.528653 6.95105e-05
0.53199 6.65414e-05
0.535328 6.35723e-05
0.538123 6.17004e-05
0.540918 5.98286e-05
0.547164 5.60955e-05
0.553409 5.38377e-05
0.55687 5.2454e-05
0.560331 5.10704e-05
0.56323 5.09132e-05
0.566129 5.07561e-05
0.572605 4.90214e-05
0.579082 4.97174e-05
0.585677 4.86566e-05
0.592272 5.01704e-05
0.598989 4.98001e-05
0.605705 5.1786e-05
0.612544 5.18414e-05
0.619384 5.36209e-05
0.626349 5.41428e-05
0.633314 5.58103e-05
0.640406 5.6646e-05
0.647499 5.79372e-05
0.654722 5.8635e-05
0.661944 5.86848e-05
0.669299 5.86996e-05
0.676655 5.68292e-05
0.684145 5.55244e-05
0.691635 5.11139e-05
0.697187 4.92608e-05
0.702739 4.60177e-05
0.704814 4.42952e-05
0.70689 4.25727e-05
0.711117 4.10006e-05
0.715344 3.94286e-05
0.718884 3.68725e-05
0.722424 3.43163e-05
0.730334 3.18742e-05
0.738244 2.81522e-05
0.746299 2.64912e-05
0.754354 2.42791e-05
0.762556 2.34395e-05
0.770759 2.2418e-05
0.779112 2.21565e-05
0.787465 2.18903e-05
0.795971 2.20188e-05
0.804478 2.22473e-05
0.81314 2.27105e-05
0.821802 2.33871e-05
0.830623 2.40349e-05
0.839445 2.50723e-05
0.848428 2.57831e-05
0.857411 2.71138e-05
0.866558 2.78356e-05
0.875706 2.93339e-05
0.885021 2.998e-05
0.894337 3.13368e-05
0.903823 3.18414e-05
0.91331 3.28191e-05
0.92297 3.30956e-05
0.93263 3.34671e-05
0.942468 3.34191e-05
0.952305 3.29691e-05
0.962323 3.25923e-05
0.972341 3.14353e-05
0.982543 3.08652e-05
0.992745 2.93965e-05
1.00313 2.88773e-05
1.01352 2.76403e-05
1.0241 2.74803e-05
1.03468 2.6993e-05
1.04545 2.78558e-05
1.05623 2.90364e-05
1.0672 3.20351e-05
1.07817 3.63789e-05
1.08934 3.95878e-05
1.10051 4.37359e-05
1.11189 4.50769e-05
1.12327 4.60923e-05
1.13485 4.59667e-05
1.14644 4.4802e-05
1.15824 4.24505e-05
1.17004 3.88937e-05
1.18205 3.5054e-05
1.19407 3.07193e-05
1.2063 2.80967e-05
1.21854 2.54242e-05
1.23099 2.45511e-05
1.24345 2.36511e-05
1.25614 2.34973e-05
1.26883 2.33256e-05
1.28175 2.34394e-05
1.29467 2.35632e-05
1.30783 2.3685e-05
1.32099 2.38504e-05
1.33439 2.39067e-05
1.34778 2.40002e-05
1.36143 2.40467e-05
1.37507 2.41126e-05
1.38897 2.41409e-05
1.40286 2.4182e-05
1.41701 2.41746e-05
1.43116 2.41797e-05
1.44557 2.41437e-05
1.45998 2.41231e-05
1.47466 2.40915e-05
1.48933 2.40738e-05
1.50427 2.40709e-05
1.51921 2.40836e-05
1.53443 2.4118e-05
1.54965 2.41702e-05
1.56514 2.42327e-05
1.58064 2.43068e-05
1.59642 2.43791e-05
1.6122 2.44587e-05
1.62827 2.45439e-05
1.64434 2.46371e-05
1.6607 2.47402e-05
1.67707 2.48515e-05
1.69373 2.49735e-05
1.7104 2.51038e-05
1.72737 2.52424e-05
1.74434 2.53897e-05
1.76162 2.55384e-05
1.7789 2.56956e-05
1.7965 2.58574e-05
1.81409 2.60252e-05
1.83202 2.62029e-05
1.84994 2.63875e-05
1.86819 2.65911e-05
1.88644 2.68058e-05
1.90502 2.70177e-05
1.9236 2.72452e-05
1.94253 2.73675e-05
1.96146 2.7505e-05
1.98073 2.74785e-05
2 2.7464e-05
