0 1e-10
0.000204505 0.000742709
0.00040901 0.00148542
0.00148933 0.00553258
0.00256965 0.00957973
0.00387803 0.00929336
0.00518642 0.00902146
0.00651881 0.00885078
0.00785119 0.00872008
0.00920802 0.00864072
0.0105648 0.0086268
0.0119465 0.00863062
0.0133283 0.00872486
0.0147353 0.00880718
0.0161424 0.00900132
0.0175752 0.00915158
0.0190081 0.00942633
0.0204672 0.00960141
0.0219263 0.00988895
0.0234122 0.0100108
0.0248981 0.0101895
0.0264113 0.0101792
0.0279244 0.0101487
0.0294653 0.00994846
0.0310063 0.00966485
0.0325754 0.00924215
0.0341446 0.00868426
0.0343989 0.00864364
0.0346533 0.00860301
0.0359969 0.00795931
0.0373405 0.00731561
0.0389677 0.00662111
0.040595 0.00576935
0.0408587 0.00570129
0.0411225 0.00563324
0.0425158 0.00494448
0.0439092 0.00425573
0.0455967 0.00365921
0.0472842 0.00299533
0.0490026 0.00254156
0.0507211 0.00207228
0.052471 0.00175147
0.054221 0.00144335
0.0545046 0.00140233
0.0547883 0.00136131
0.0562867 0.0011989
0.0577851 0.00103649
0.0595998 0.000901503
0.0614146 0.000785127
0.0632626 0.000702676
0.0651106 0.000634522
0.0657097 0.000611706
0.0663088 0.000599391
0.0675916 0.000573021
0.0688745 0.000546651
0.0699852 0.000526436
0.0710959 0.000513712
0.0719016 0.000504482
0.0727073 0.000495252
0.0746589 0.000476763
0.0766105 0.00046334
0.0785979 0.000450892
0.0805853 0.000441726
0.0809074 0.000439647
0.0812295 0.000437568
0.0829312 0.000431985
0.0846329 0.000426402
0.0866939 0.000420334
0.0887548 0.000415632
0.0908536 0.000411289
0.0929523 0.000407935
0.0950896 0.000404914
0.0972268 0.000402725
0.0994033 0.00040085
0.10158 0.000399828
0.103796 0.000398938
0.106012 0.000398901
0.108269 0.000398854
0.110526 0.000399598
0.112825 0.000400198
0.115123 0.000401529
0.116346 0.000401774
0.117569 0.000402753
0.118687 0.000403648
0.119804 0.000404543
0.122188 0.000406185
0.124571 0.000408619
0.126999 0.000410847
0.129426 0.000413929
0.131897 0.000416825
0.134369 0.000420592
0.136886 0.000423994
0.139403 0.000428192
0.139539 0.000428326
0.139675 0.000428459
0.142103 0.000432228
0.14453 0.000436398
0.146043 0.000438735
0.147555 0.000441391
0.148653 0.000443317
0.14975 0.000445244
0.152408 0.000450157
0.155066 0.000455065
0.157773 0.000460928
0.16048 0.000466443
0.163237 0.000473681
0.165993 0.000480175
0.1688 0.000489097
0.171607 0.000496992
0.174466 0.000507112
0.177324 0.000516158
0.177788 0.000518214
0.178251 0.000520269
0.180699 0.000528275
0.183146 0.000536281
0.186111 0.00054739
0.189075 0.000557427
0.192094 0.000569375
0.195113 0.000580343
0.198187 0.000593292
0.201261 0.000605632
0.201759 0.000607797
0.202257 0.000609963
0.20489 0.000621172
0.207522 0.000632382
0.21071 0.000645308
0.213898 0.000658459
0.217144 0.000670198
0.22039 0.000682279
0.223696 0.000692214
0.227002 0.000702378
0.230369 0.000710699
0.233735 0.000718989
0.234281 0.000720335
0.234827 0.000721682
0.237709 0.000728269
0.240592 0.000734856
0.244083 0.000744142
0.247574 0.000753454
0.250563 0.000764396
0.253553 0.000776441
0.254119 0.000778721
0.254685 0.000781002
0.255261 0.000783735
0.255837 0.000786468
0.258881 0.0008091
0.261925 0.000831733
0.265612 0.000877767
0.269299 0.000928828
0.273053 0.0010082
0.276808 0.00109297
0.280631 0.00120512
0.284454 0.00131937
0.288348 0.00144157
0.292241 0.00155636
0.296206 0.00164736
0.300171 0.00171717
0.300814 0.00172632
0.301456 0.00173548
0.304851 0.00170958
0.308246 0.00168368
0.312358 0.00154503
0.316469 0.00138875
0.320656 0.00116447
0.324843 0.000946492
0.329107 0.000747141
0.333371 0.000568357
0.337713 0.000446951
0.342055 0.00034372
0.346476 0.000280413
0.350898 0.000228296
0.355401 0.000194045
0.359903 0.000164341
0.364489 0.000140549
0.369074 0.00011783
0.373744 9.97962e-05
0.378413 8.17012e-05
0.383168 6.94333e-05
0.387923 5.69365e-05
0.391995 5.05465e-05
0.396066 4.40178e-05
0.396837 4.27819e-05
0.397608 4.1546e-05
0.398393 4.08484e-05
0.399177 4.01509e-05
0.403324 3.63004e-05
0.40747 3.245e-05
0.412491 2.97796e-05
0.417513 2.70819e-05
0.422626 2.55434e-05
0.42774 2.4004e-05
0.432948 2.31692e-05
0.438155 2.23413e-05
0.443458 2.19624e-05
0.448761 2.15745e-05
0.454161 2.14818e-05
0.459561 2.13478e-05
0.46506 2.1373e-05
0.47056 2.13124e-05
0.47616 2.12425e-05
0.48176 2.10708e-05
0.487463 2.08212e-05
0.493165 2.05058e-05
0.49409 2.04524e-05
0.495014 2.0399e-05
0.499897 2.0073e-05
0.50478 1.97469e-05
0.510694 1.93487e-05
0.516608 1.89691e-05
0.52263 1.86009e-05
0.528653 1.82841e-05
0.534786 1.7978e-05
0.540918 1.7734e-05
0.547164 1.75403e-05
0.553409 1.73799e-05
0.559769 1.73135e-05
0.566129 1.72421e-05
0.56716 1.72593e-05
0.568191 1.72765e-05
0.573636 1.72711e-05
0.579082 1.72657e-05
0.585677 1.73577e-05
0.592272 1.73917e-05
0.598989 1.75068e-05
0.605705 1.75596e-05
0.612544 1.76565e-05
0.619384 1.77015e-05
0.626349 1.77537e-05
0.633314 1.77745e-05
0.640406 1.77664e-05
0.647499 1.77531e-05
0.654722 1.76645e-05
0.661944 1.76049e-05
0.669299 1.74135e-05
0.676655 1.73011e-05
0.684145 1.707e-05
0.691635 1.69433e-05
0.699262 1.6768e-05
0.70689 1.66781e-05
0.714657 1.65789e-05
0.722424 1.65364e-05
0.730334 1.64944e-05
0.738244 1.64839e-05
0.746299 1.64676e-05
0.754354 1.64661e-05
0.762556 1.64609e-05
0.770759 1.64633e-05
0.779112 1.64679e-05
0.787465 1.64783e-05
0.795971 1.64974e-05
0.804478 1.65223e-05
0.81314 1.65622e-05
0.821802 1.6606e-05
0.830623 1.66566e-05
0.839445 1.67102e-05
0.848428 1.67661e-05
0.857411 1.68252e-05
0.858867 1.68344e-05
0.860323 1.68436e-05
0.868014 1.69003e-05
0.875706 1.69571e-05
0.885021 1.70302e-05
0.894337 1.71058e-05
0.895847 1.71184e-05
0.897357 1.71309e-05
0.905333 1.72008e-05
0.91331 1.72707e-05
0.92297 1.73603e-05
0.93263 1.7451e-05
0.942468 1.7549e-05
0.952305 1.76488e-05
0.962323 1.77545e-05
0.972341 1.78616e-05
0.982543 1.79724e-05
0.992745 1.8084e-05
0.994398 1.81019e-05
0.996052 1.81198e-05
1.00479 1.82162e-05
1.01352 1.83125e-05
1.0241 1.84286e-05
1.03468 1.85451e-05
1.04545 1.8667e-05
1.05623 1.87887e-05
1.0672 1.89183e-05
1.07817 1.90473e-05
1.08934 1.91814e-05
1.10051 1.93157e-05
1.11189 1.94486e-05
1.12327 1.95821e-05
1.13485 1.97134e-05
1.14644 1.98448e-05
1.15824 1.99762e-05
1.17004 2.01073e-05
1.18205 2.02386e-05
1.19407 2.03693e-05
1.2063 2.05013e-05
1.21854 2.06324e-05
1.23099 2.07657e-05
1.24345 2.08981e-05
1.25614 2.10314e-05
1.26883 2.11641e-05
1.28175 2.12984e-05
1.29467 2.14321e-05
1.30783 2.15677e-05
1.32099 2.17027e-05
1.33439 2.18384e-05
1.34778 2.19731e-05
1.36143 2.21085e-05
1.37507 2.2243e-05
1.38897 2.2378e-05
1.40286 2.25123e-05
1.41701 2.26479e-05
1.43116 2.27827e-05
1.44557 2.29191e-05
1.45998 2.30546e-05
1.47466 2.31906e-05
1.48933 2.33256e-05
1.50427 2.34569e-05
1.51921 2.35862e-05
1.53443 2.37035e-05
1.54965 2.38171e-05
1.56514 2.39098e-05
1.58064 2.39977e-05
1.59642 2.40656e-05
1.6122 2.41295e-05
1.62827 2.41865e-05
1.64434 2.42419e-05
1.6607 2.43052e-05
1.67707 2.43691e-05
1.69373 2.44492e-05
1.7104 2.45314e-05
1.72737 2.4631e-05
1.74434 2.47327e-05
1.76162 2.48481e-05
1.7789 2.49647e-05
1.7965 2.50884e-05
1.81409 2.52128e-05
1.83202 2.53458e-05
1.84994 2.54799e-05
1.86819 2.56303e-05
1.88644 2.57821e-05
1.90502 2.59003e-05
1.9236 2.60191e-05
1.94253 2.6016e-05
1.96146 2.60132e-05
1.98073 2.5782e-05
2 2.55546e-05
