0 1e-10
0.00128482 0.00398971
0.00256965 0.0083458
0.00275177 0.00833667
0.0029339 0.00832754
0.00406016 0.00826391
0.00518642 0.00819847
0.0053027 0.0081999
0.00541897 0.00820132
0.00616084 0.00821777
0.0069027 0.0082416
0.00737695 0.00825683
0.00785119 0.00827206
0.00864142 0.00829814
0.00943164 0.00832517
0.00999824 0.00834454
0.0105648 0.00836392
0.0119465 0.0083567
0.0133283 0.0083207
0.0135241 0.00831582
0.01372 0.00831093
0.0149312 0.00818281
0.0161424 0.00802978
0.0162674 0.00801783
0.0163924 0.00800589
0.0177003 0.00774305
0.0190081 0.00741971
0.0199478 0.0072021
0.0208876 0.00686092
0.021407 0.00667237
0.0219263 0.00648381
0.0234122 0.005951
0.0248981 0.00529031
0.0250828 0.00523161
0.0252676 0.00517292
0.026596 0.0046018
0.0279244 0.00398421
0.0294653 0.00339829
0.0310063 0.0027715
0.0325754 0.00228373
0.0341446 0.00182331
0.0357425 0.00147664
0.0373405 0.00119548
0.0384939 0.00102924
0.0396473 0.000929638
0.0401211 0.000888716
0.040595 0.000847795
0.0415601 0.000769273
0.0425252 0.000739502
0.0432172 0.000718157
0.0439092 0.000696811
0.0455967 0.000663313
0.0472842 0.000659051
0.0490026 0.000658811
0.0507211 0.000674162
0.052471 0.000688019
0.054221 0.000708342
0.0553687 0.000719947
0.0565165 0.000733245
0.0571508 0.000740594
0.0577851 0.000747943
0.0595998 0.000767809
0.0614146 0.000787493
0.0616565 0.000790248
0.0618984 0.000793003
0.0635045 0.000809352
0.0651106 0.000825154
0.0668694 0.000842921
0.0686281 0.000858001
0.0687513 0.000859057
0.0688745 0.000860114
0.0690417 0.000862181
0.069209 0.000864248
0.0709581 0.000879976
0.0727073 0.000893119
0.0746589 0.000912437
0.0766105 0.000926447
0.0785979 0.000947249
0.0805853 0.000961894
0.0826091 0.000984288
0.0846329 0.00099992
0.0866939 0.00102332
0.0887548 0.00104011
0.0889739 0.00104321
0.089193 0.00104632
0.0910727 0.00106463
0.0929523 0.00107979
0.0932132 0.00108303
0.0934741 0.00108627
0.0945897 0.00109635
0.0957054 0.00110392
0.0964661 0.00110908
0.0972268 0.00111424
0.0984944 0.00112595
0.099762 0.00113194
0.100671 0.00113624
0.10158 0.00114053
0.103796 0.00114996
0.106012 0.00115308
0.108269 0.00115409
0.110526 0.00114757
0.112007 0.00114649
0.113487 0.00113684
0.114305 0.0011315
0.115123 0.00112617
0.11582 0.00112543
0.116517 0.00112199
0.11816 0.00110695
0.119804 0.00109192
0.12191 0.00107712
0.124016 0.00105499
0.124294 0.00105207
0.124571 0.00104915
0.125985 0.0010395
0.127399 0.00102501
0.128412 0.00101463
0.129426 0.00100424
0.131897 0.0009843
0.134369 0.000962153
0.13542 0.000954703
0.136471 0.000946963
0.137937 0.000936132
0.139403 0.000925301
0.140136 0.00092079
0.140868 0.000916473
0.142699 0.000906367
0.14453 0.000896262
0.146985 0.00088629
0.149441 0.000877171
0.149595 0.000876596
0.14975 0.000876021
0.151298 0.000871829
0.152846 0.000868146
0.153956 0.000865506
0.155066 0.000862865
0.157773 0.000859846
0.16048 0.00085677
0.163237 0.000858254
0.165993 0.000858785
0.166384 0.000860125
0.166775 0.000861464
0.167755 0.000864025
0.168734 0.000865788
0.170171 0.000868372
0.171607 0.000870956
0.174466 0.000884521
0.177324 0.000894529
0.180235 0.000913981
0.183146 0.000928356
0.186111 0.000953227
0.189075 0.000971154
0.192094 0.00100052
0.195113 0.00102089
0.198187 0.00105284
0.201261 0.00107476
0.203277 0.0011003
0.205293 0.00111625
0.206407 0.00112506
0.207522 0.00113388
0.209378 0.00115668
0.211235 0.00117525
0.212566 0.00118856
0.213898 0.00120188
0.217144 0.00123422
0.22039 0.00127569
0.220563 0.00127505
0.220735 0.0012744
0.223869 0.00129555
0.227002 0.00133581
0.230017 0.00132539
0.233032 0.0013552
0.233384 0.00135868
0.233735 0.00136216
0.237164 0.0013209
0.240592 0.00133279
0.244083 0.00125631
0.247574 0.00122765
0.250199 0.00115378
0.252823 0.00110351
0.253754 0.00108568
0.254685 0.00106785
0.255 0.00106006
0.255316 0.00105228
0.258621 0.000964012
0.261925 0.000872747
0.2643 0.000822792
0.266674 0.00074613
0.267987 0.000703763
0.269299 0.000661396
0.271486 0.000630881
0.273672 0.000566941
0.27524 0.000521095
0.276808 0.000475249
0.280631 0.000423938
0.284454 0.000347603
0.286962 0.000334217
0.28947 0.000308265
0.290855 0.000293923
0.292241 0.000279581
0.296206 0.000265138
0.300171 0.000245196
0.304208 0.000237366
0.308246 0.000226909
0.310641 0.000225216
0.313035 0.000221694
0.314752 0.000219168
0.316469 0.000216643
0.320656 0.000214997
0.324843 0.000211637
0.325288 0.000211855
0.325733 0.000212073
0.329552 0.000211714
0.333371 0.000210519
0.335127 0.000211645
0.336883 0.000211761
0.339469 0.00021173
0.342055 0.0002117
0.346476 0.000213439
0.350898 0.000214344
0.355401 0.000216106
0.359903 0.000217597
0.364489 0.00021874
0.369074 0.000220004
0.373744 0.000220282
0.378413 0.000220731
0.383168 0.000220124
0.387923 0.000219694
0.392765 0.000218253
0.397608 0.000217014
0.402539 0.000214939
0.40747 0.000212999
0.412491 0.000210552
0.417513 0.000208182
0.422626 0.000205559
0.42774 0.000202933
0.428465 0.000202568
0.42919 0.000202203
0.433672 0.000199781
0.438155 0.000197316
0.438618 0.000197092
0.43908 0.000196869
0.443921 0.000194281
0.448761 0.000191584
0.454161 0.000188774
0.459561 0.000185671
0.463103 0.000184049
0.466645 0.000182014
0.468602 0.000180889
0.47056 0.000179764
0.473821 0.00017853
0.477083 0.000176773
0.479421 0.000175513
0.48176 0.000174253
0.483647 0.000173762
0.485534 0.000173057
0.489349 0.000171377
0.493165 0.000169698
0.498367 0.000168451
0.503568 0.000166791
0.504174 0.000166598
0.50478 0.000166404
0.510694 0.000165706
0.516608 0.000164485
0.519123 0.000164793
0.521638 0.000164651
0.525145 0.000164394
0.528653 0.000164138
0.532225 0.00016493
0.535796 0.000165251
0.538357 0.000165482
0.540918 0.000165712
0.547164 0.000167605
0.553409 0.000169218
0.559769 0.000171866
0.566129 0.000174414
0.572605 0.000177922
0.579082 0.000181228
0.585677 0.000185184
0.592272 0.00018851
0.598989 0.000192615
0.605705 0.000195432
0.612544 0.000199743
0.619384 0.000202017
0.626349 0.000206372
0.633314 0.0002078
0.640406 0.000212174
0.647499 0.000212844
0.654722 0.000217285
0.661944 0.000217578
0.669299 0.000222068
0.676655 0.000221877
0.677437 0.000223015
0.678218 0.000224153
0.684927 0.000225981
0.691635 0.000224837
0.696077 0.000229233
0.700519 0.000226887
0.703704 0.000225206
0.70689 0.000223524
0.707701 0.000224563
0.708511 0.000225601
0.710724 0.000227714
0.712936 0.000225499
0.71768 0.00022075
0.722424 0.000216001
0.730334 0.000212334
0.738244 0.000202196
0.746299 0.000191516
0.754354 0.000181135
0.762556 0.000162205
0.770759 0.000151905
0.779112 0.000127808
0.787465 0.00011669
0.795971 9.2345e-05
0.804478 8.11348e-05
0.805382 7.74888e-05
0.806286 7.38428e-05
0.814044 5.96342e-05
0.821802 5.18225e-05
0.822879 4.87837e-05
0.823956 4.57448e-05
0.8317 3.72149e-05
0.839445 3.28433e-05
0.848428 2.58442e-05
0.857411 2.36168e-05
0.866558 2.10791e-05
0.875706 2.0277e-05
0.885021 1.95266e-05
0.894337 1.92945e-05
0.903823 1.90601e-05
0.91331 1.89768e-05
0.92297 1.88157e-05
0.93263 1.87637e-05
0.942468 1.86291e-05
0.952305 1.86077e-05
0.962323 1.85156e-05
0.972341 1.85163e-05
0.982543 1.8465e-05
0.992745 1.84847e-05
1.00313 1.84662e-05
1.01352 1.8502e-05
1.0241 1.85077e-05
1.03468 1.85554e-05
1.04545 1.85813e-05
1.05623 1.86396e-05
1.0672 1.86827e-05
1.07817 1.87512e-05
1.08934 1.88077e-05
1.10051 1.88843e-05
1.11189 1.89521e-05
1.12327 1.9036e-05
1.13485 1.91142e-05
1.14644 1.92049e-05
1.15824 1.92927e-05
1.17004 1.93904e-05
1.18205 1.94865e-05
1.19407 1.95904e-05
1.2063 1.96927e-05
1.21854 1.98009e-05
1.23099 1.99082e-05
1.24345 2.00202e-05
1.25614 2.01322e-05
1.26883 2.02481e-05
1.28175 2.03645e-05
1.29467 2.0484e-05
1.30783 2.06039e-05
1.32099 2.07263e-05
1.33439 2.08489e-05
1.34778 2.09734e-05
1.36143 2.10985e-05
1.37507 2.12251e-05
1.37652 2.12383e-05
1.37797 2.12514e-05
1.39042 2.13659e-05
1.40286 2.14811e-05
1.40459 2.14968e-05
1.40632 2.15124e-05
1.41874 2.16265e-05
1.43116 2.1741e-05
1.44557 2.18721e-05
1.45998 2.20041e-05
1.46151 2.20178e-05
1.46305 2.20315e-05
1.47619 2.21504e-05
1.48933 2.22696e-05
1.49115 2.22859e-05
1.49298 2.23021e-05
1.5061 2.24197e-05
1.51921 2.25375e-05
1.53443 2.26722e-05
1.54965 2.28073e-05
1.55127 2.28214e-05
1.55288 2.28356e-05
1.56676 2.29572e-05
1.58064 2.3079e-05
1.58257 2.30956e-05
1.58449 2.31123e-05
1.59835 2.32325e-05
1.6122 2.33527e-05
1.62827 2.3491e-05
1.64434 2.36297e-05
1.64605 2.36444e-05
1.64776 2.3659e-05
1.66241 2.3786e-05
1.67707 2.39135e-05
1.6791 2.39312e-05
1.68114 2.39488e-05
1.69577 2.40751e-05
1.7104 2.42012e-05
1.71217 2.42158e-05
1.71394 2.42304e-05
1.72914 2.43478e-05
1.74434 2.4462e-05
1.76162 2.45674e-05
1.7789 2.46649e-05
1.78105 2.46752e-05
1.78319 2.46855e-05
1.79864 2.47533e-05
1.81409 2.48191e-05
1.81597 2.48265e-05
1.81784 2.4834e-05
1.83389 2.48971e-05
1.84994 2.49601e-05
1.85216 2.4969e-05
1.85439 2.4978e-05
1.87041 2.50457e-05
1.88644 2.51143e-05
1.90502 2.51947e-05
1.9236 2.52772e-05
1.92558 2.52783e-05
1.92756 2.52794e-05
1.94451 2.52885e-05
1.96146 2.52972e-05
1.96381 2.52516e-05
1.96616 2.52059e-05
1.98308 2.48767e-05
2 2.45472e-05
