1 	-0.159384
1.00148 	-0.193991
1.00296 	-0.228598
1.00447 	-0.245612
1.00598 	-0.262225
1.00753 	-0.272682
1.00907 	-0.284629
1.00964 	-0.292805
1.0102 	-0.300982
1.01121 	-0.294251
1.01222 	-0.28752
1.01383 	-0.284765
1.01544 	-0.277899
1.01709 	-0.277395
1.01873 	-0.27097
1.01978 	-0.271086
1.02083 	-0.271202
1.02146 	-0.268665
1.02209 	-0.266128
1.02381 	-0.261151
1.02552 	-0.253927
1.02727 	-0.253635
1.02902 	-0.248858
1.03047 	-0.248311
1.03191 	-0.247764
1.03226 	-0.246703
1.0326 	-0.245643
1.03443 	-0.240627
1.03625 	-0.234708
1.03812 	-0.233525
1.03998 	-0.228788
1.04173 	-0.226926
1.04348 	-0.225064
1.04363 	-0.22461
1.04379 	-0.224156
1.04574 	-0.219058
1.04768 	-0.213655
1.04967 	-0.211433
1.05165 	-0.20698
1.0536 	-0.204091
1.05556 	-0.201203
1.05563 	-0.200997
1.05571 	-0.200792
1.05778 	-0.19597
1.05985 	-0.191057
1.06197 	-0.187692
1.06409 	-0.183674
1.06613 	-0.18015
1.06818 	-0.176626
1.06829 	-0.176361
1.06841 	-0.176097
1.07061 	-0.171842
1.07282 	-0.167559
1.07507 	-0.163541
1.07733 	-0.159925
1.07936 	-0.156715
1.0814 	-0.153505
1.08166 	-0.153
1.08193 	-0.152496
1.08428 	-0.148658
1.08663 	-0.144867
1.08903 	-0.1412
1.09143 	-0.137706
1.09333 	-0.135163
1.09524 	-0.132621
1.09578 	-0.131742
1.09633 	-0.130863
1.09883 	-0.12712
1.10133 	-0.123383
1.10389 	-0.120068
1.10644 	-0.116824
1.1081 	-0.114811
1.10976 	-0.112798
1.11071 	-0.111434
1.11166 	-0.110069
1.11433 	-0.106726
1.11699 	-0.103481
1.11972 	-0.1002
1.12244 	-0.0972476
1.12372 	-0.095901
1.125 	-0.0945544
1.1265 	-0.0928167
1.128 	-0.091079
1.13084 	-0.0880903
1.13368 	-0.0854828
1.13657 	-0.0826409
1.13947 	-0.0800203
1.14025 	-0.0793915
1.14103 	-0.0787628
1.14321 	-0.0768219
1.14539 	-0.074881
1.14842 	-0.0721858
1.15144 	-0.0700278
1.15453 	-0.0676755
1.15762 	-0.0653538
1.15776 	-0.0652666
1.15789 	-0.0651793
1.15789 	-0.0651793
1.16091 	-0.0631135
1.16392 	-0.0610476
1.16714 	-0.0587035
1.17036 	-0.0568529
1.17302 	-0.0552409
1.17568 	-0.0536288
1.17631 	-0.0532109
1.17694 	-0.052793
1.1803 	-0.0508732
1.18366 	-0.0490582
1.18709 	-0.0470902
1.19052 	-0.0454361
1.19248 	-0.0445032
1.19444 	-0.0435703
1.19598 	-0.0427767
1.19752 	-0.0419831
1.2011 	-0.0402532
1.20467 	-0.0387471
1.20833 	-0.037077
1.21198 	-0.0355642
1.21313 	-0.0351292
1.21429 	-0.0346941
1.21686 	-0.0336415
1.21944 	-0.032589
1.22325 	-0.031013
1.22706 	-0.029745
1.23095 	-0.0283379
1.23484 	-0.026956
1.23507 	-0.0268891
1.23529 	-0.0268221
1.23904 	-0.0256207
1.24278 	-0.0244194
1.24684 	-0.0230293
1.2509 	-0.0219703
1.25424 	-0.0210404
1.25758 	-0.0201105
1.25838 	-0.0198653
1.25918 	-0.0196201
1.26341 	-0.0185145
1.26764 	-0.0174821
1.27197 	-0.0163329
1.27629 	-0.0153956
1.27877 	-0.0148625
1.28125 	-0.0143293
1.28318 	-0.013874
1.28511 	-0.0134187
1.28962 	-0.0124279
1.29412 	-0.0115814
1.29873 	-0.010636
1.30333 	-0.00979749
1.30489 	-0.00954688
1.30645 	-0.00929627
1.30959 	-0.00873334
1.31273 	-0.0081704
1.31753 	-0.00731057
1.32233 	-0.0066523
1.32723 	-0.00589638
1.33213 	-0.00517539
1.33273 	-0.00510336
1.33333 	-0.00503132
1.33774 	-0.00443981
1.34214 	-0.00384829
1.34725 	-0.00310479
1.35236 	-0.00258223
1.35722 	-0.0020365
1.36207 	-0.00149076
1.36244 	-0.00144402
1.3628 	-0.00139727
1.36813 	-0.000874501
1.37346 	-0.000368767
1.37891 	0.000208486
1.38435 	0.000598887
1.3886 	0.000935225
1.39286 	0.00127156
1.39416 	0.00139073
1.39547 	0.00150989
1.40115 	0.00194602
1.40682 	0.00233349
1.41262 	0.00278886
1.41842 	0.00312798
1.42217 	0.00333681
1.42593 	0.00354564
1.42809 	0.00369034
1.43026 	0.00383504
1.43631 	0.00417256
1.44236 	0.00444508
1.44853 	0.00475824
1.45471 	0.00497248
1.45812 	0.00508133
1.46154 	0.00519017
1.46443 	0.00531238
1.46732 	0.00543459
1.47376 	0.0056827
1.4802 	0.00585987
1.48678 	0.00609184
1.49335 	0.0062571
1.49668 	0.00632507
1.5 	0.00639305
1.50339 	0.00649223
1.50679 	0.00659142
1.51364 	0.0067572
1.5205 	0.0068557
1.52751 	0.00699523
1.53451 	0.00706699
1.53809 	0.0070957
1.54167 	0.0071244
1.54524 	0.00717994
1.54882 	0.00723548
1.55612 	0.00732353
1.56343 	0.00735088
1.57089 	0.00743198
1.57835 	0.00744742
1.58265 	0.00745382
1.58696 	0.00746022
1.59027 	0.00748493
1.59359 	0.00750965
1.60137 	0.00753963
1.60915 	0.00752342
1.61709 	0.00754793
1.62504 	0.00749513
1.6307 	0.00746656
1.63636 	0.00743798
1.63881 	0.00743826
1.64127 	0.00743854
1.64955 	0.00741391
1.65784 	0.00736081
1.6663 	0.00735078
1.67476 	0.0072528
1.67476 	0.0072528
1.68262 	0.00719394
1.69048 	0.00713509
1.69126 	0.00713246
1.69205 	0.00712983
1.70087 	0.00705001
1.7097 	0.0069622
1.71871 	0.00691921
1.72772 	0.00677922
1.73693 	0.00669646
1.74613 	0.00659553
1.74806 	0.00656844
1.75 	0.00654135
1.75746 	0.00645831
1.76493 	0.00637527
1.77453 	0.00628956
1.78412 	0.00613998
1.79393 	0.00604794
1.80373 	0.00590889
1.80976 	0.00582498
1.81579 	0.00574106
1.81977 	0.00569523
1.82375 	0.0056494
1.83397 	0.00553469
1.8442 	0.00539208
1.85464 	0.00528881
1.86508 	0.00510835
1.87574 	0.00498568
1.8864 	0.00485552
1.88764 	0.00483584
1.88889 	0.00481617
1.89853 	0.00468238
1.90818 	0.00454858
1.91929 	0.00444544
1.93041 	0.00428955
1.94177 	0.00415518
1.95312 	0.00397618
1.96186 	0.00388814
1.97059 	0.00380009
1.97345 	0.00377507
1.97632 	0.00375005
1.97632 	0.00375005
1.98816 	0.0036174
2 	0.00347138
