0 	0 	0 	0 	0 	0 	0
0.00128482 	-0.0171347 	0.00304396 	-0.0220645 	-0.0302757 	0.000385177 	-0.0146006
0.00256965 	-0.0342694 	0.00608791 	-0.0441289 	-0.0605514 	0.000770354 	-0.0292012
0.00387803 	-0.0436611 	0.0104781 	-0.0602215 	-0.0752065 	0.00131674 	-0.0343384
0.00518642 	-0.0530528 	0.0148683 	-0.076314 	-0.0898616 	0.00186312 	-0.0394756
0.00651881 	-0.0618274 	0.0204037 	-0.0911277 	-0.103483 	0.00266295 	-0.0437534
0.00785119 	-0.070602 	0.0259392 	-0.105942 	-0.117103 	0.00346277 	-0.0480312
0.00920802 	-0.0780343 	0.0322584 	-0.118145 	-0.129031 	0.00443639 	-0.0516805
0.0105648 	-0.0854666 	0.0385776 	-0.130349 	-0.140959 	0.00541001 	-0.0553298
0.0119465 	-0.0901617 	0.0453901 	-0.13854 	-0.150897 	0.00652307 	-0.0584825
0.0133283 	-0.0948569 	0.0522026 	-0.14673 	-0.160835 	0.00763614 	-0.0616353
0.0147353 	-0.0958999 	0.0593018 	-0.149849 	-0.168887 	0.0088518 	-0.0643671
0.0161424 	-0.096943 	0.066401 	-0.152967 	-0.176939 	0.0100675 	-0.067099
0.0175752 	-0.0943381 	0.0737188 	-0.150892 	-0.183405 	0.0113435 	-0.0694474
0.0190081 	-0.0917332 	0.0810365 	-0.148816 	-0.18987 	0.0126195 	-0.0717959
0.0204672 	-0.0861918 	0.0885918 	-0.142208 	-0.195072 	0.0139188 	-0.0737726
0.0219263 	-0.0806503 	0.0961471 	-0.1356 	-0.200273 	0.015218 	-0.0757492
0.0234122 	-0.0731954 	0.104005 	-0.125362 	-0.204471 	0.0165077 	-0.0773517
0.0248981 	-0.0657405 	0.111863 	-0.115123 	-0.208669 	0.0177974 	-0.0789541
0.0264113 	-0.057412 	0.120051 	-0.102028 	-0.212051 	0.0190439 	-0.080182
0.0279244 	-0.0490836 	0.128239 	-0.0889317 	-0.215432 	0.0202905 	-0.0814099
0.0294653 	-0.0408393 	0.136687 	-0.073467 	-0.218119 	0.0214611 	-0.0822687
0.0310063 	-0.032595 	0.145136 	-0.0580022 	-0.220806 	0.0226318 	-0.0831276
0.0325754 	-0.0253174 	0.15365 	-0.0406767 	-0.22288 	0.0236987 	-0.0836321
0.0341446 	-0.0180398 	0.162164 	-0.0233511 	-0.224954 	0.0247657 	-0.0841365
0.0357425 	-0.0125031 	0.170443 	-0.00493453 	-0.226485 	0.0257081 	-0.0843257
0.0373405 	-0.00696635 	0.178722 	0.0134821 	-0.228017 	0.0266506 	-0.084515
0.0389677 	-0.0037034 	0.186449 	0.0320445 	-0.229086 	0.027458 	-0.0844655
0.040595 	-0.000440463 	0.194177 	0.0506069 	-0.230156 	0.0282654 	-0.0844161
0.0422521 	-0.000189122 	0.201066 	0.0681916 	-0.230864 	0.028936 	-0.0842319
0.0439092 	6.2219e-05 	0.207956 	0.0857763 	-0.231572 	0.0296065 	-0.0840477
0.0455967 	-0.00273188 	0.213861 	0.101408 	-0.232036 	0.0301485 	-0.0838385
0.0472842 	-0.00552597 	0.219766 	0.117039 	-0.2325 	0.0306905 	-0.0836294
0.0490026 	-0.0103261 	0.224781 	0.130373 	-0.232832 	0.0311256 	-0.0834871
0.0507211 	-0.0151261 	0.229795 	0.143708 	-0.233163 	0.0315608 	-0.0833449
0.052471 	-0.0215124 	0.234165 	0.155127 	-0.23343 	0.0319194 	-0.0833306
0.054221 	-0.0278986 	0.238535 	0.166546 	-0.233697 	0.032278 	-0.0833163
0.056003 	-0.0358188 	0.242541 	0.176478 	-0.233917 	0.0325922 	-0.0834609
0.0577851 	-0.0437389 	0.246546 	0.186411 	-0.234138 	0.0329063 	-0.0836056
0.0595998 	-0.0525162 	0.250421 	0.194992 	-0.234302 	0.0332032 	-0.0839111
0.0614146 	-0.0612934 	0.254297 	0.203574 	-0.234467 	0.0335 	-0.0842165
0.0632626 	-0.0695699 	0.258275 	0.211196 	-0.234563 	0.0337989 	-0.0846642
0.0651106 	-0.0778464 	0.262254 	0.218817 	-0.234659 	0.0340978 	-0.0851119
0.0669925 	-0.0848591 	0.266514 	0.225744 	-0.234701 	0.0344093 	-0.0856807
0.0688745 	-0.0918718 	0.270773 	0.23267 	-0.234743 	0.0347208 	-0.0862495
0.0707909 	-0.0977845 	0.275359 	0.238659 	-0.234787 	0.035053 	-0.0869243
0.0727073 	-0.103697 	0.279945 	0.244648 	-0.234831 	0.0353851 	-0.0875991
0.0746589 	-0.108894 	0.284801 	0.249794 	-0.234939 	0.0357429 	-0.0883651
0.0766105 	-0.11409 	0.289656 	0.25494 	-0.235047 	0.0361008 	-0.0891312
0.0785979 	-0.119098 	0.294642 	0.259586 	-0.23523 	0.0364819 	-0.0899584
0.0805853 	-0.124107 	0.299628 	0.264231 	-0.235413 	0.0368631 	-0.0907856
0.0826091 	-0.129317 	0.304612 	0.26838 	-0.235657 	0.0372638 	-0.091629
0.0846329 	-0.134527 	0.309595 	0.27253 	-0.235901 	0.0376645 	-0.0924724
0.0866939 	-0.140087 	0.314459 	0.275997 	-0.236195 	0.0380797 	-0.0932924
0.0887548 	-0.145646 	0.319323 	0.279464 	-0.236489 	0.0384949 	-0.0941125
0.0887548 	-0.145646 	0.319323 	0.279464 	-0.236489 	0.0384949 	-0.0941125
0.0908536 	-0.151543 	0.323902 	0.281974 	-0.236803 	0.0389164 	-0.0948912
0.0929523 	-0.157441 	0.328481 	0.284484 	-0.237117 	0.0393379 	-0.09567
0.0950896 	-0.163621 	0.33254 	0.285726 	-0.237423 	0.0397542 	-0.0964092
0.0972268 	-0.169802 	0.3366 	0.286968 	-0.23773 	0.0401706 	-0.0971485
0.0972268 	-0.169802 	0.3366 	0.286968 	-0.23773 	0.0401706 	-0.0971485
0.0994033 	-0.176259 	0.339943 	0.286704 	-0.238018 	0.0405722 	-0.0978258
0.0994033 	-0.176259 	0.339943 	0.286704 	-0.238018 	0.0405722 	-0.0978258
0.10158 	-0.182715 	0.343285 	0.28644 	-0.238306 	0.0409737 	-0.0985032
0.10158 	-0.182715 	0.343285 	0.28644 	-0.238306 	0.0409737 	-0.0985032
0.103796 	-0.189244 	0.345824 	0.28457 	-0.238566 	0.0413468 	-0.0990655
0.106012 	-0.195773 	0.348363 	0.2827 	-0.238827 	0.0417198 	-0.0996278
0.108269 	-0.202052 	0.350008 	0.279268 	-0.239046 	0.042044 	-0.10006
0.110526 	-0.208332 	0.351653 	0.275837 	-0.239266 	0.0423681 	-0.100493
0.112825 	-0.214144 	0.352376 	0.270913 	-0.239445 	0.0426321 	-0.10084
0.115123 	-0.219956 	0.353099 	0.265989 	-0.239623 	0.042896 	-0.101187
0.117464 	-0.225051 	0.352902 	0.2595 	-0.239826 	0.0430984 	-0.1015
0.119804 	-0.230147 	0.352706 	0.253011 	-0.240028 	0.0433008 	-0.101812
0.122188 	-0.234247 	0.351483 	0.244929 	-0.240368 	0.0434347 	-0.102115
0.124571 	-0.238347 	0.350259 	0.236848 	-0.240708 	0.0435687 	-0.102418
0.126999 	-0.241221 	0.347919 	0.226978 	-0.241246 	0.0436238 	-0.102712
0.129426 	-0.244095 	0.345579 	0.217108 	-0.241785 	0.0436789 	-0.103006
0.131897 	-0.245834 	0.342148 	0.20494 	-0.242511 	0.0436488 	-0.103272
0.134369 	-0.247574 	0.338717 	0.192772 	-0.243238 	0.0436187 	-0.103538
0.136886 	-0.248138 	0.334291 	0.177851 	-0.244101 	0.0434994 	-0.103762
0.139403 	-0.248702 	0.329864 	0.162931 	-0.244965 	0.0433801 	-0.103986
0.141967 	-0.24773 	0.324645 	0.145066 	-0.245915 	0.0431765 	-0.104167
0.14453 	-0.246758 	0.319426 	0.127201 	-0.246866 	0.0429728 	-0.104347
0.147044 	-0.243986 	0.314034 	0.10741 	-0.247845 	0.0427031 	-0.104481
0.149557 	-0.241215 	0.308642 	0.0876181 	-0.248825 	0.0424334 	-0.104614
0.149654 	-0.241108 	0.308436 	0.0868593 	-0.248862 	0.0424231 	-0.104619
0.14975 	-0.241002 	0.308229 	0.0861004 	-0.2489 	0.0424127 	-0.104624
0.152408 	-0.235839 	0.302904 	0.0635128 	-0.249932 	0.0420554 	-0.104703
0.155066 	-0.230676 	0.297579 	0.0409251 	-0.250965 	0.0416982 	-0.104782
0.157773 	-0.223196 	0.293307 	0.0171634 	-0.251868 	0.0412787 	-0.104804
0.16048 	-0.215716 	0.289034 	-0.00659833 	-0.252771 	0.0408593 	-0.104826
0.163237 	-0.206453 	0.286452 	-0.0307887 	-0.253418 	0.0404084 	-0.104853
0.165993 	-0.19719 	0.28387 	-0.0549791 	-0.254065 	0.0399575 	-0.104879
0.1688 	-0.187271 	0.283195 	-0.0794151 	-0.254454 	0.0395215 	-0.104979
0.171607 	-0.177351 	0.282519 	-0.103851 	-0.254843 	0.0390855 	-0.105079
0.174466 	-0.168031 	0.283392 	-0.128775 	-0.255033 	0.0387326 	-0.10528
0.177324 	-0.15871 	0.284265 	-0.153699 	-0.255224 	0.0383797 	-0.10548
0.180235 	-0.150558 	0.28581 	-0.179056 	-0.255253 	0.0381844 	-0.105799
0.183146 	-0.142406 	0.287356 	-0.204412 	-0.255281 	0.0379892 	-0.106117
0.186111 	-0.136505 	0.288378 	-0.229223 	-0.255168 	0.0380002 	-0.106569
0.189075 	-0.130604 	0.2894 	-0.254035 	-0.255054 	0.0380111 	-0.107022
0.192094 	-0.12953 	0.288537 	-0.276422 	-0.254866 	0.0382278 	-0.107533
0.195113 	-0.128456 	0.287674 	-0.298809 	-0.254679 	0.0384445 	-0.108045
0.198187 	-0.134771 	0.283702 	-0.316545 	-0.254506 	0.0388185 	-0.108446
0.201261 	-0.141086 	0.27973 	-0.334282 	-0.254332 	0.0391926 	-0.108847
0.204391 	-0.155798 	0.271974 	-0.345959 	-0.254195 	0.0396378 	-0.108948
0.207522 	-0.17051 	0.264218 	-0.357637 	-0.254057 	0.040083 	-0.109049
0.21071 	-0.192387 	0.252952 	-0.36207 	-0.253936 	0.040526 	-0.108694
0.213898 	-0.214265 	0.241687 	-0.366503 	-0.253815 	0.040969 	-0.10834
0.217144 	-0.240647 	0.228162 	-0.364491 	-0.253719 	0.0413837 	-0.107567
0.22039 	-0.26703 	0.214637 	-0.362479 	-0.253622 	0.0417983 	-0.106794
0.223696 	-0.295374 	0.200672 	-0.357065 	-0.253492 	0.0421902 	-0.105876
0.227002 	-0.323718 	0.186706 	-0.35165 	-0.253363 	0.0425822 	-0.104958
0.230369 	-0.351943 	0.174233 	-0.345779 	-0.253018 	0.0429532 	-0.104174
0.233735 	-0.380169 	0.16176 	-0.339907 	-0.252673 	0.0433242 	-0.103389
0.237164 	-0.405986 	0.152381 	-0.336161 	-0.251943 	0.0436776 	-0.102836
0.240592 	-0.431803 	0.143002 	-0.332416 	-0.251213 	0.044031 	-0.102283
0.244083 	-0.451986 	0.137764 	-0.33229 	-0.250082 	0.0443789 	-0.101894
0.247574 	-0.472169 	0.132527 	-0.332164 	-0.248951 	0.0447268 	-0.101506
0.251129 	-0.482965 	0.13168 	-0.336148 	-0.247603 	0.045072 	-0.101259
0.254685 	-0.493761 	0.130833 	-0.340133 	-0.246254 	0.0454171 	-0.101012
0.258305 	-0.493023 	0.133798 	-0.348011 	-0.244977 	0.0457445 	-0.100991
0.261925 	-0.492284 	0.136764 	-0.355889 	-0.2437 	0.0460719 	-0.100969
0.265612 	-0.481338 	0.142414 	-0.366652 	-0.242683 	0.0463527 	-0.101178
0.269299 	-0.470392 	0.148064 	-0.377416 	-0.241665 	0.0466334 	-0.101387
0.273053 	-0.454408 	0.154861 	-0.387917 	-0.240866 	0.0468121 	-0.101653
0.276808 	-0.438425 	0.161657 	-0.398419 	-0.240067 	0.0469907 	-0.101918
0.280631 	-0.425038 	0.167872 	-0.403494 	-0.239288 	0.0470366 	-0.102063
0.284454 	-0.411651 	0.174086 	-0.408569 	-0.238509 	0.0470825 	-0.102208
0.288348 	-0.407196 	0.178396 	-0.404898 	-0.237602 	0.0469922 	-0.102189
0.292241 	-0.402742 	0.182705 	-0.401228 	-0.236696 	0.0469019 	-0.10217
0.296206 	-0.408719 	0.184747 	-0.388383 	-0.235737 	0.0466934 	-0.101989
0.300171 	-0.414696 	0.186788 	-0.375539 	-0.234779 	0.0464849 	-0.101808
0.304208 	-0.427627 	0.187265 	-0.35682 	-0.233999 	0.046162 	-0.101486
0.308246 	-0.440557 	0.187741 	-0.338101 	-0.233219 	0.0458391 	-0.101163
0.312358 	-0.454769 	0.188268 	-0.31985 	-0.232603 	0.0453877 	-0.100746
0.316469 	-0.468981 	0.188794 	-0.301599 	-0.231988 	0.0449362 	-0.100328
0.320656 	-0.480346 	0.191276 	-0.288582 	-0.231257 	0.0443917 	-0.0998098
0.324843 	-0.49171 	0.193758 	-0.275566 	-0.230526 	0.0438472 	-0.099292
0.329107 	-0.498592 	0.199295 	-0.268717 	-0.229528 	0.0432917 	-0.0986489
0.333371 	-0.505473 	0.204833 	-0.261868 	-0.22853 	0.0427361 	-0.0980059
0.337713 	-0.507845 	0.213081 	-0.259218 	-0.227273 	0.042308 	-0.0971929
0.342055 	-0.510217 	0.221329 	-0.256568 	-0.226016 	0.0418799 	-0.0963799
0.346476 	-0.50934 	0.230923 	-0.255247 	-0.224462 	0.0417034 	-0.0952972
0.350898 	-0.508463 	0.240517 	-0.253925 	-0.222908 	0.0415268 	-0.0942145
0.350898 	-0.508463 	0.240517 	-0.253925 	-0.222908 	0.0415268 	-0.0942145
0.355401 	-0.505922 	0.250094 	-0.251401 	-0.221059 	0.0416121 	-0.0927012
0.355401 	-0.505922 	0.250094 	-0.251401 	-0.221059 	0.0416121 	-0.0927012
0.359903 	-0.50338 	0.259671 	-0.248877 	-0.219209 	0.0416973 	-0.091188
0.359903 	-0.50338 	0.259671 	-0.248877 	-0.219209 	0.0416973 	-0.091188
0.364489 	-0.49985 	0.268197 	-0.243721 	-0.217277 	0.0419202 	-0.0890303
0.364489 	-0.49985 	0.268197 	-0.243721 	-0.217277 	0.0419202 	-0.0890303
0.369074 	-0.496321 	0.276724 	-0.238565 	-0.215346 	0.042143 	-0.0868726
0.369074 	-0.496321 	0.276724 	-0.238565 	-0.215346 	0.042143 	-0.0868726
0.373744 	-0.491423 	0.28294 	-0.231012 	-0.213456 	0.0423363 	-0.0841309
0.373744 	-0.491423 	0.28294 	-0.231012 	-0.213456 	0.0423363 	-0.0841309
0.378413 	-0.486525 	0.289156 	-0.22346 	-0.211567 	0.0425295 	-0.0813893
0.378413 	-0.486525 	0.289156 	-0.22346 	-0.211567 	0.0425295 	-0.0813893
0.383168 	-0.479838 	0.290951 	-0.215415 	-0.209575 	0.0425523 	-0.0785595
0.383168 	-0.479838 	0.290951 	-0.215415 	-0.209575 	0.0425523 	-0.0785595
0.387923 	-0.47315 	0.292745 	-0.20737 	-0.207582 	0.042575 	-0.0757297
0.387923 	-0.47315 	0.292745 	-0.20737 	-0.207582 	0.042575 	-0.0757297
0.392765 	-0.4642 	0.286349 	-0.199115 	-0.205314 	0.0422993 	-0.073335
0.392765 	-0.4642 	0.286349 	-0.199115 	-0.205314 	0.0422993 	-0.073335
0.397608 	-0.455249 	0.279952 	-0.190861 	-0.203045 	0.0420236 	-0.0709403
0.397608 	-0.455249 	0.279952 	-0.190861 	-0.203045 	0.0420236 	-0.0709403
0.402539 	-0.436425 	0.26153 	-0.18219 	-0.200455 	0.0413701 	-0.0692528
0.402539 	-0.436425 	0.26153 	-0.18219 	-0.200455 	0.0413701 	-0.0692528
0.40747 	-0.417602 	0.243108 	-0.173519 	-0.197864 	0.0407166 	-0.0675654
0.40747 	-0.417602 	0.243108 	-0.173519 	-0.197864 	0.0407166 	-0.0675654
0.412491 	-0.38172 	0.216141 	-0.167463 	-0.19503 	0.0396686 	-0.0665403
0.412491 	-0.38172 	0.216141 	-0.167463 	-0.19503 	0.0396686 	-0.0665403
0.417513 	-0.345838 	0.189173 	-0.161407 	-0.192197 	0.0386205 	-0.0655152
0.417513 	-0.345838 	0.189173 	-0.161407 	-0.192197 	0.0386205 	-0.0655152
0.422626 	-0.305944 	0.162152 	-0.155421 	-0.189254 	0.0372561 	-0.064841
0.422626 	-0.305944 	0.162152 	-0.155421 	-0.189254 	0.0372561 	-0.064841
0.42774 	-0.26605 	0.135131 	-0.149436 	-0.186312 	0.0358917 	-0.0641668
0.42774 	-0.26605 	0.135131 	-0.149436 	-0.186312 	0.0358917 	-0.0641668
0.432948 	-0.236759 	0.112659 	-0.137008 	-0.183081 	0.0343113 	-0.0636877
0.432948 	-0.236759 	0.112659 	-0.137008 	-0.183081 	0.0343113 	-0.0636877
0.438155 	-0.207467 	0.0901864 	-0.12458 	-0.179851 	0.032731 	-0.0632086
0.438155 	-0.207467 	0.0901864 	-0.12458 	-0.179851 	0.032731 	-0.0632086
0.443458 	-0.183253 	0.0745353 	-0.106223 	-0.175848 	0.0309719 	-0.0630825
0.443458 	-0.183253 	0.0745353 	-0.106223 	-0.175848 	0.0309719 	-0.0630825
0.448761 	-0.159038 	0.0588842 	-0.0878657 	-0.171845 	0.0292128 	-0.0629564
0.448761 	-0.159038 	0.0588842 	-0.0878657 	-0.171845 	0.0292128 	-0.0629564
0.454161 	-0.132398 	0.0506125 	-0.0648072 	-0.167249 	0.0272804 	-0.0633138
0.454161 	-0.132398 	0.0506125 	-0.0648072 	-0.167249 	0.0272804 	-0.0633138
0.459561 	-0.105758 	0.0423408 	-0.0417488 	-0.162653 	0.025348 	-0.0636713
0.459561 	-0.105758 	0.0423408 	-0.0417488 	-0.162653 	0.025348 	-0.0636713
0.46506 	-0.0788507 	0.0388295 	-0.0138613 	-0.158091 	0.0232693 	-0.0643464
0.46506 	-0.0788507 	0.0388295 	-0.0138613 	-0.158091 	0.0232693 	-0.0643464
0.47056 	-0.0519433 	0.0353182 	0.0140262 	-0.153529 	0.0211906 	-0.0650216
0.47056 	-0.0519433 	0.0353182 	0.0140262 	-0.153529 	0.0211906 	-0.0650216
0.47616 	-0.0290969 	0.0351928 	0.0449744 	-0.149183 	0.019132 	-0.0654571
0.47616 	-0.0290969 	0.0351928 	0.0449744 	-0.149183 	0.019132 	-0.0654571
0.48176 	-0.00625049 	0.0350674 	0.0759227 	-0.144837 	0.0170734 	-0.0658926
0.48176 	-0.00625049 	0.0350674 	0.0759227 	-0.144837 	0.0170734 	-0.0658926
0.48176 	-0.00625049 	0.0350674 	0.0759227 	-0.144837 	0.0170734 	-0.0658926
0.487463 	0.01054 	0.0381936 	0.10926 	-0.140885 	0.0153648 	-0.0656161
0.487463 	0.01054 	0.0381936 	0.10926 	-0.140885 	0.0153648 	-0.0656161
0.487463 	0.01054 	0.0381936 	0.10926 	-0.140885 	0.0153648 	-0.0656161
0.493165 	0.0273304 	0.0413198 	0.142597 	-0.136933 	0.0136562 	-0.0653397
0.493165 	0.0273304 	0.0413198 	0.142597 	-0.136933 	0.0136562 	-0.0653397
0.493165 	0.0273304 	0.0413198 	0.142597 	-0.136933 	0.0136562 	-0.0653397
0.498973 	0.0356687 	0.0469789 	0.176661 	-0.133662 	0.0124747 	-0.0641603
0.50478 	0.044007 	0.0526379 	0.210724 	-0.130391 	0.0112933 	-0.0629809
0.510694 	0.0390003 	0.0590585 	0.245112 	-0.12745 	0.0106544 	-0.0609843
0.516608 	0.0339936 	0.0654792 	0.279499 	-0.124509 	0.0100155 	-0.0589877
0.52263 	0.012862 	0.0672235 	0.31904 	-0.121316 	0.00990065 	-0.0565815
0.528653 	-0.00826969 	0.0689678 	0.358581 	-0.118124 	0.00978577 	-0.0541754
0.534786 	-0.0466862 	0.0640661 	0.402606 	-0.114639 	0.0100987 	-0.0516622
0.540918 	-0.0851028 	0.0591645 	0.44663 	-0.111154 	0.0104117 	-0.049149
0.547164 	-0.140523 	0.0501255 	0.48373 	-0.107597 	0.0110967 	-0.0467126
0.553409 	-0.195943 	0.0410865 	0.520829 	-0.10404 	0.0117817 	-0.0442762
0.559769 	-0.240415 	0.0309532 	0.544309 	-0.100596 	0.0127662 	-0.0419314
0.566129 	-0.284886 	0.0208199 	0.567789 	-0.097152 	0.0137508 	-0.0395866
0.572605 	-0.280232 	0.0156384 	0.575935 	-0.0938195 	0.0148804 	-0.0370993
0.579082 	-0.275577 	0.0104569 	0.584082 	-0.0904869 	0.01601 	-0.0346119
0.585677 	-0.227005 	0.0110225 	0.571549 	-0.0871343 	0.0172677 	-0.0318476
0.592272 	-0.178433 	0.011588 	0.559017 	-0.0837816 	0.0185254 	-0.0290832
0.592272 	-0.178433 	0.011588 	0.559017 	-0.0837816 	0.0185254 	-0.0290832
0.598989 	-0.126913 	0.0152474 	0.532561 	-0.0801416 	0.0201314 	-0.0258474
0.598989 	-0.126913 	0.0152474 	0.532561 	-0.0801416 	0.0201314 	-0.0258474
0.605705 	-0.0753936 	0.0189067 	0.506104 	-0.0765016 	0.0217374 	-0.0226115
0.605705 	-0.0753936 	0.0189067 	0.506104 	-0.0765016 	0.0217374 	-0.0226115
0.612544 	-0.0461672 	0.0257955 	0.479998 	-0.0721461 	0.0236257 	-0.018691
0.612544 	-0.0461672 	0.0257955 	0.479998 	-0.0721461 	0.0236257 	-0.018691
0.619384 	-0.0169408 	0.0326843 	0.453892 	-0.0677906 	0.025514 	-0.0147705
0.619384 	-0.0169408 	0.0326843 	0.453892 	-0.0677906 	0.025514 	-0.0147705
0.626349 	-0.00447403 	0.0415146 	0.432519 	-0.0623308 	0.0274043 	-0.0104413
0.633314 	0.00799273 	0.0503449 	0.411146 	-0.056871 	0.0292946 	-0.00611215
0.640406 	0.0140996 	0.059451 	0.393632 	-0.0502359 	0.0310759 	-0.00179691
0.647499 	0.0202064 	0.0685572 	0.376118 	-0.0436008 	0.0328572 	0.00251834
0.654722 	0.0250982 	0.0771439 	0.361266 	-0.0359364 	0.0343504 	0.00625387
0.661944 	0.0299899 	0.0857307 	0.346414 	-0.028272 	0.0358436 	0.00998939
0.669299 	0.0357946 	0.0940186 	0.332946 	-0.019868 	0.0370252 	0.0127268
0.676655 	0.0415992 	0.102306 	0.319478 	-0.0114641 	0.0382067 	0.0154642
0.684145 	0.0489876 	0.111403 	0.305523 	-0.00268389 	0.0392153 	0.0183693
0.691635 	0.056376 	0.120499 	0.291568 	0.00609628 	0.0402239 	0.0212744
0.699262 	0.0633751 	0.130585 	0.275216 	0.0148045 	0.0410156 	0.0262333
0.70689 	0.0703742 	0.14067 	0.258864 	0.0235128 	0.0418073 	0.0311923
0.714657 	0.0708091 	0.150544 	0.240199 	0.031929 	0.0421269 	0.0380054
0.722424 	0.0712439 	0.160418 	0.221535 	0.0403453 	0.0424466 	0.0448186
0.730334 	0.0600108 	0.168015 	0.203944 	0.049028 	0.0421706 	0.051536
0.738244 	0.0487776 	0.175613 	0.186353 	0.0577107 	0.0418945 	0.0582534
0.738244 	0.0487776 	0.175613 	0.186353 	0.0577107 	0.0418945 	0.0582534
0.746299 	0.0353114 	0.17768 	0.174838 	0.0664765 	0.0412033 	0.0637023
0.746299 	0.0353114 	0.17768 	0.174838 	0.0664765 	0.0412033 	0.0637023
0.754354 	0.0218452 	0.179747 	0.163322 	0.0752422 	0.0405121 	0.0691512
0.754354 	0.0218452 	0.179747 	0.163322 	0.0752422 	0.0405121 	0.0691512
0.762556 	0.025087 	0.173855 	0.163857 	0.0826801 	0.0398763 	0.0738545
0.762556 	0.025087 	0.173855 	0.163857 	0.0826801 	0.0398763 	0.0738545
0.770759 	0.0283288 	0.167963 	0.164392 	0.0901179 	0.0392405 	0.0785579
0.770759 	0.0283288 	0.167963 	0.164392 	0.0901179 	0.0392405 	0.0785579
0.779112 	0.0531035 	0.153816 	0.180883 	0.0954936 	0.0390892 	0.0834685
0.779112 	0.0531035 	0.153816 	0.180883 	0.0954936 	0.0390892 	0.0834685
0.787465 	0.0778782 	0.139669 	0.197374 	0.100869 	0.0389379 	0.0883791
0.787465 	0.0778782 	0.139669 	0.197374 	0.100869 	0.0389379 	0.0883791
0.795971 	0.110717 	0.115766 	0.228131 	0.105923 	0.0392552 	0.0938239
0.795971 	0.110717 	0.115766 	0.228131 	0.105923 	0.0392552 	0.0938239
0.804478 	0.143556 	0.0918622 	0.258888 	0.110976 	0.0395724 	0.0992687
0.804478 	0.143556 	0.0918622 	0.258888 	0.110976 	0.0395724 	0.0992687
0.81314 	0.157641 	0.0557446 	0.29941 	0.118527 	0.0396603 	0.105694
0.81314 	0.157641 	0.0557446 	0.29941 	0.118527 	0.0396603 	0.105694
0.821802 	0.171726 	0.0196271 	0.339932 	0.126077 	0.0397481 	0.112119
0.821802 	0.171726 	0.0196271 	0.339932 	0.126077 	0.0397481 	0.112119
0.830623 	0.133351 	-0.0259026 	0.373316 	0.136123 	0.0387296 	0.119504
0.830623 	0.133351 	-0.0259026 	0.373316 	0.136123 	0.0387296 	0.119504
0.839445 	0.0949773 	-0.0714322 	0.406699 	0.146168 	0.0377111 	0.126888
0.839445 	0.0949773 	-0.0714322 	0.406699 	0.146168 	0.0377111 	0.126888
0.848428 	0.00015485 	-0.0883929 	0.365229 	0.156831 	0.0357878 	0.134242
0.848428 	0.00015485 	-0.0883929 	0.365229 	0.156831 	0.0357878 	0.134242
0.857411 	-0.0946676 	-0.105354 	0.323758 	0.167493 	0.0338644 	0.141596
0.857411 	-0.0946676 	-0.105354 	0.323758 	0.167493 	0.0338644 	0.141596
0.866558 	-0.171962 	-0.0795061 	0.220457 	0.177492 	0.0309874 	0.148869
0.866558 	-0.171962 	-0.0795061 	0.220457 	0.177492 	0.0309874 	0.148869
0.875706 	-0.249256 	-0.0536587 	0.117157 	0.187491 	0.0281104 	0.156143
0.875706 	-0.249256 	-0.0536587 	0.117157 	0.187491 	0.0281104 	0.156143
0.885021 	-0.214074 	-0.0548172 	0.0912881 	0.197254 	0.0237502 	0.164191
0.885021 	-0.214074 	-0.0548172 	0.0912881 	0.197254 	0.0237502 	0.164191
0.894337 	-0.178891 	-0.0559757 	0.0654195 	0.207018 	0.0193899 	0.172239
0.894337 	-0.178891 	-0.0559757 	0.0654195 	0.207018 	0.0193899 	0.172239
0.903823 	-0.0530321 	-0.0906249 	0.105001 	0.218067 	0.0141413 	0.18111
0.903823 	-0.0530321 	-0.0906249 	0.105001 	0.218067 	0.0141413 	0.18111
0.91331 	0.0728272 	-0.125274 	0.144581 	0.229116 	0.00889264 	0.189981
0.91331 	0.0728272 	-0.125274 	0.144581 	0.229116 	0.00889264 	0.189981
0.92297 	0.185662 	-0.168286 	0.155716 	0.24282 	0.00367031 	0.199416
0.92297 	0.185662 	-0.168286 	0.155716 	0.24282 	0.00367031 	0.199416
0.93263 	0.298497 	-0.211297 	0.166851 	0.256524 	-0.00155203 	0.208852
0.93263 	0.298497 	-0.211297 	0.166851 	0.256524 	-0.00155203 	0.208852
0.942468 	0.341427 	-0.246531 	0.167332 	0.273603 	-0.00664589 	0.218486
0.942468 	0.341427 	-0.246531 	0.167332 	0.273603 	-0.00664589 	0.218486
0.952305 	0.384356 	-0.281764 	0.167813 	0.290683 	-0.0117397 	0.22812
0.952305 	0.384356 	-0.281764 	0.167813 	0.290683 	-0.0117397 	0.22812
0.962323 	0.370249 	-0.292391 	0.184889 	0.310479 	-0.0173408 	0.237565
0.972341 	0.356142 	-0.303017 	0.201965 	0.330275 	-0.0229418 	0.247011
0.972341 	0.356142 	-0.303017 	0.201965 	0.330275 	-0.0229418 	0.247011
0.982543 	0.325545 	-0.297789 	0.223545 	0.350724 	-0.0293641 	0.257176
0.992745 	0.294948 	-0.292561 	0.245126 	0.371173 	-0.0357863 	0.267342
0.992745 	0.294948 	-0.292561 	0.245126 	0.371173 	-0.0357863 	0.267342
1.00313 	0.271946 	-0.279863 	0.260527 	0.391466 	-0.0427914 	0.279175
1.01352 	0.248945 	-0.267166 	0.275928 	0.411759 	-0.0497965 	0.291008
1.01352 	0.248945 	-0.267166 	0.275928 	0.411759 	-0.0497965 	0.291008
1.0241 	0.235213 	-0.25068 	0.284782 	0.43238 	-0.057534 	0.303171
1.03468 	0.221481 	-0.234195 	0.293637 	0.453001 	-0.0652716 	0.315335
1.03468 	0.221481 	-0.234195 	0.293637 	0.453001 	-0.0652716 	0.315335
1.04545 	0.214942 	-0.218142 	0.299342 	0.473881 	-0.0735133 	0.325669
1.04545 	0.214942 	-0.218142 	0.299342 	0.473881 	-0.0735133 	0.325669
1.05623 	0.208404 	-0.20209 	0.305046 	0.494761 	-0.0817551 	0.336004
1.05623 	0.208404 	-0.20209 	0.305046 	0.494761 	-0.0817551 	0.336004
1.0672 	0.215297 	-0.188156 	0.308182 	0.516578 	-0.089689 	0.34443
1.0672 	0.215297 	-0.188156 	0.308182 	0.516578 	-0.089689 	0.34443
1.07817 	0.222189 	-0.174222 	0.311317 	0.538394 	-0.0976228 	0.352856
1.07817 	0.222189 	-0.174222 	0.311317 	0.538394 	-0.0976228 	0.352856
1.08934 	0.254968 	-0.156215 	0.310863 	0.56256 	-0.104519 	0.360753
1.08934 	0.254968 	-0.156215 	0.310863 	0.56256 	-0.104519 	0.360753
1.10051 	0.287748 	-0.138207 	0.310409 	0.586726 	-0.111416 	0.368651
1.10051 	0.287748 	-0.138207 	0.310409 	0.586726 	-0.111416 	0.368651
1.11189 	0.35967 	-0.113732 	0.311695 	0.613795 	-0.116272 	0.376913
1.11189 	0.35967 	-0.113732 	0.311695 	0.613795 	-0.116272 	0.376913
1.12327 	0.431593 	-0.0892559 	0.312982 	0.640863 	-0.121127 	0.385175
1.12327 	0.431593 	-0.0892559 	0.312982 	0.640863 	-0.121127 	0.385175
1.13485 	0.52878 	-0.0787088 	0.332001 	0.669618 	-0.123619 	0.393126
1.13485 	0.52878 	-0.0787088 	0.332001 	0.669618 	-0.123619 	0.393126
1.14644 	0.625967 	-0.0681617 	0.35102 	0.698373 	-0.12611 	0.401077
1.14644 	0.625967 	-0.0681617 	0.35102 	0.698373 	-0.12611 	0.401077
1.14644 	0.625967 	-0.0681617 	0.35102 	0.698373 	-0.12611 	0.401077
1.15824 	0.704475 	-0.0798434 	0.394858 	0.726149 	-0.127363 	0.406824
1.15824 	0.704475 	-0.0798434 	0.394858 	0.726149 	-0.127363 	0.406824
1.17004 	0.782982 	-0.091525 	0.438696 	0.753926 	-0.128615 	0.412572
1.17004 	0.782982 	-0.091525 	0.438696 	0.753926 	-0.128615 	0.412572
1.18205 	0.831064 	-0.10317 	0.49052 	0.778411 	-0.130179 	0.414556
1.18205 	0.831064 	-0.10317 	0.49052 	0.778411 	-0.130179 	0.414556
1.19407 	0.879146 	-0.114816 	0.542343 	0.802896 	-0.131743 	0.416541
1.19407 	0.879146 	-0.114816 	0.542343 	0.802896 	-0.131743 	0.416541
1.2063 	0.916675 	-0.114143 	0.578972 	0.823744 	-0.134211 	0.415343
1.2063 	0.916675 	-0.114143 	0.578972 	0.823744 	-0.134211 	0.415343
1.21854 	0.954205 	-0.113471 	0.615602 	0.844592 	-0.136678 	0.414145
1.21854 	0.954205 	-0.113471 	0.615602 	0.844592 	-0.136678 	0.414145
1.23099 	0.983907 	-0.108226 	0.630193 	0.862696 	-0.13995 	0.41105
1.23099 	0.983907 	-0.108226 	0.630193 	0.862696 	-0.13995 	0.41105
1.24345 	1.01361 	-0.102982 	0.644783 	0.8808 	-0.143221 	0.407956
1.24345 	1.01361 	-0.102982 	0.644783 	0.8808 	-0.143221 	0.407956
1.25614 	1.02415 	-0.10177 	0.638087 	0.896757 	-0.146744 	0.403249
1.25614 	1.02415 	-0.10177 	0.638087 	0.896757 	-0.146744 	0.403249
1.26883 	1.0347 	-0.100559 	0.631391 	0.912714 	-0.150267 	0.398541
1.26883 	1.0347 	-0.100559 	0.631391 	0.912714 	-0.150267 	0.398541
1.26883 	1.0347 	-0.100559 	0.631391 	0.912714 	-0.150267 	0.398541
1.28175 	1.0198 	-0.103424 	0.588275 	0.926548 	-0.153112 	0.392835
1.28175 	1.0198 	-0.103424 	0.588275 	0.926548 	-0.153112 	0.392835
1.29467 	1.0049 	-0.106289 	0.54516 	0.940382 	-0.155958 	0.387128
1.29467 	1.0049 	-0.106289 	0.54516 	0.940382 	-0.155958 	0.387128
1.30783 	0.971766 	-0.107684 	0.456755 	0.952607 	-0.157784 	0.381301
1.32099 	0.938629 	-0.10908 	0.368349 	0.964832 	-0.15961 	0.375473
1.33439 	0.899687 	-0.111118 	0.25534 	0.976401 	-0.160438 	0.369609
1.34778 	0.860745 	-0.113156 	0.14233 	0.98797 	-0.161266 	0.363745
1.36143 	0.820831 	-0.126484 	0.0431386 	0.999532 	-0.16109 	0.357581
1.37507 	0.780917 	-0.139812 	-0.0560527 	1.01109 	-0.160914 	0.351417
1.38897 	0.747822 	-0.157577 	-0.111181 	1.02338 	-0.159832 	0.34536
1.40286 	0.714727 	-0.175342 	-0.166309 	1.03567 	-0.15875 	0.339302
1.41701 	0.71113 	-0.180681 	-0.167812 	1.04892 	-0.15682 	0.334438
1.43116 	0.707532 	-0.18602 	-0.169314 	1.06217 	-0.15489 	0.329574
1.44557 	0.742564 	-0.176647 	-0.12607 	1.07561 	-0.152088 	0.326495
1.45998 	0.777596 	-0.167273 	-0.0828267 	1.08904 	-0.149285 	0.323417
1.47466 	0.835952 	-0.146853 	-0.0222892 	1.1015 	-0.145687 	0.321682
1.48933 	0.894308 	-0.126433 	0.0382482 	1.11395 	-0.14209 	0.319948
1.50427 	0.954806 	-0.102275 	0.0896729 	1.12434 	-0.137966 	0.318668
1.51921 	1.0153 	-0.0781163 	0.141098 	1.13472 	-0.133842 	0.317389
1.53443 	1.05933 	-0.062581 	0.173969 	1.1425 	-0.129508 	0.316
1.54965 	1.10336 	-0.0470456 	0.206841 	1.15027 	-0.125173 	0.314611
1.56514 	1.12425 	-0.0422577 	0.222358 	1.15553 	-0.120801 	0.313113
1.58064 	1.14514 	-0.0374699 	0.237874 	1.16078 	-0.116429 	0.311615
1.59642 	1.1508 	-0.0380729 	0.243046 	1.16383 	-0.11207 	0.310158
1.6122 	1.15646 	-0.0386758 	0.248218 	1.16688 	-0.107711 	0.308701
1.62827 	1.15676 	-0.0403666 	0.249569 	1.16803 	-0.103394 	0.307292
1.64434 	1.15706 	-0.0420574 	0.250919 	1.16919 	-0.0990763 	0.305882
1.6607 	1.15662 	-0.042388 	0.251899 	1.1688 	-0.0948553 	0.304493
1.67707 	1.15617 	-0.0427187 	0.252878 	1.16842 	-0.0906343 	0.303103
1.69373 	1.15601 	-0.0416443 	0.254505 	1.16689 	-0.0865838 	0.301761
1.7104 	1.15584 	-0.04057 	0.256133 	1.16537 	-0.0825334 	0.300418
1.72737 	1.15558 	-0.038961 	0.257981 	1.16311 	-0.0787092 	0.299153
1.74434 	1.15531 	-0.037352 	0.259829 	1.16086 	-0.074885 	0.297888
1.76162 	1.15457 	-0.0357476 	0.261486 	1.15823 	-0.0713205 	0.296703
1.7789 	1.15384 	-0.0341432 	0.263144 	1.15559 	-0.0677559 	0.295517
1.7965 	1.15261 	-0.0326334 	0.26451 	1.15282 	-0.0644861 	0.29441
1.81409 	1.15137 	-0.0311237 	0.265876 	1.15004 	-0.0612162 	0.293304
1.83202 	1.14975 	-0.0296655 	0.266959 	1.14723 	-0.0582742 	0.292274
1.84994 	1.14813 	-0.0282072 	0.268041 	1.14441 	-0.0553321 	0.291244
1.86819 	1.14623 	-0.0267517 	0.268859 	1.14159 	-0.0526718 	0.290274
1.88644 	1.14433 	-0.0252961 	0.269677 	1.13878 	-0.0500115 	0.289305
1.90502 	1.14218 	-0.0238106 	0.270251 	1.13595 	-0.0475109 	0.288396
1.9236 	1.14004 	-0.0223252 	0.270824 	1.13312 	-0.0450103 	0.287487
1.94253 	1.13767 	-0.0209277 	0.271172 	1.13027 	-0.0426526 	0.28667
1.96146 	1.13531 	-0.0195302 	0.27152 	1.12743 	-0.0402949 	0.285852
1.98073 	1.133 	-0.0189534 	0.271731 	1.12484 	-0.0390108 	0.285029
2 	1.13069 	-0.0183766 	0.271942 	1.12224 	-0.0377266 	0.284205
