0 1e-10
0.000963618 0.00220516
0.00192724 0.00568871
0.00290853 0.00591497
0.00388982 0.00560997
0.00488911 0.00542449
0.0058884 0.00473182
0.00690601 0.00424264
0.00792363 0.00336071
0.00895991 0.00277187
0.00999619 0.00202843
0.0110515 0.00155318
0.0121068 0.00113836
0.0131814 0.000882431
0.0142561 0.000723815
0.0153504 0.000633688
0.0164448 0.00059089
0.0175592 0.000565014
0.0186736 0.000561127
0.0198085 0.000552187
0.0209433 0.000559057
0.022099 0.000554569
0.0232547 0.000565532
0.0244316 0.000561956
0.0256084 0.000574731
0.0268069 0.000572793
0.0280054 0.000586361
0.0292258 0.000586782
0.0304462 0.000600337
0.0316891 0.000601711
0.0329319 0.000613601
0.0341975 0.000614725
0.0354631 0.000623162
0.036752 0.000625306
0.0380408 0.000630033
0.0393533 0.000634491
0.0406657 0.000635869
0.0420023 0.000641598
0.0433388 0.000639137
0.0446999 0.000643682
0.0460609 0.000637001
0.047447 0.000638928
0.048833 0.000629013
0.0502444 0.000628961
0.0516559 0.000617925
0.0530932 0.000618034
0.0545305 0.000608799
0.0559942 0.000609779
0.0574579 0.000603811
0.0589484 0.000604259
0.060439 0.000601935
0.0619568 0.000600061
0.0634747 0.000602995
0.0650204 0.000597319
0.0665661 0.00060724
0.0681402 0.000598676
0.0697143 0.000617043
0.0713172 0.00061004
0.0729201 0.000635518
0.0745524 0.000636465
0.0761848 0.000665173
0.077847 0.000675118
0.0795093 0.000702127
0.0812021 0.000713318
0.0828948 0.000732042
0.0846186 0.000737686
0.0863424 0.000742881
0.0880979 0.000743493
0.0898533 0.000737492
0.0916409 0.000733371
0.0934285 0.000721854
0.0952489 0.000713999
0.0970693 0.000702141
0.0989231 0.000695004
0.100777 0.000687779
0.102665 0.000684253
0.104552 0.000683004
0.106475 0.000684036
0.108397 0.000688023
0.110355 0.00069454
0.112313 0.000704816
0.114306 0.000719448
0.1163 0.000740931
0.11833 0.000769209
0.12036 0.000813075
0.122428 0.000871138
0.124495 0.000963064
0.1266 0.0010927
0.128705 0.00124933
0.130849 0.00146657
0.132993 0.00163026
0.135177 0.00181134
0.13736 0.00187912
0.139583 0.00190937
0.141806 0.00183366
0.14407 0.00171039
0.146334 0.00151615
0.14864 0.00128026
0.150946 0.00106728
0.153293 0.000847174
0.155641 0.000703602
0.158032 0.000577564
0.160423 0.000498069
0.162858 0.000437523
0.165293 0.000399779
0.167772 0.000376686
0.170252 0.000364689
0.172776 0.00035889
0.175301 0.000357108
0.177873 0.000359055
0.180444 0.000362326
0.183062 0.000370151
0.185681 0.000377921
0.188347 0.000390005
0.191013 0.000400902
0.193729 0.000412955
0.196444 0.000425331
0.199209 0.000435119
0.201974 0.000447496
0.20479 0.000453874
0.207606 0.000463801
0.210473 0.000465841
0.213341 0.00047146
0.216261 0.000469995
0.219181 0.000470723
0.222155 0.000466965
0.225128 0.000463127
0.228156 0.000457477
0.231184 0.000449075
0.234268 0.000442266
0.237352 0.00043072
0.240492 0.000424574
0.243632 0.000412719
0.24683 0.000410159
0.250028 0.000400042
0.253285 0.00040421
0.256541 0.000397706
0.259857 0.000410796
0.263174 0.000409024
0.266551 0.000429097
0.269928 0.000434524
0.273367 0.000456566
0.276806 0.000472416
0.280308 0.000490843
0.28381 0.000515191
0.287376 0.000524721
0.290942 0.000551639
0.294574 0.000551627
0.298206 0.00057273
0.301904 0.000563008
0.305602 0.000573585
0.309368 0.000548334
0.313135 0.000549088
0.31697 0.000506338
0.320805 0.000493753
0.324711 0.000441549
0.328616 0.000406579
0.332593 0.000359648
0.336571 0.000302207
0.340621 0.000269411
0.344671 0.000206745
0.348795 0.00018538
0.35292 0.000140108
0.35712 0.000125516
0.36132 0.000101153
0.365597 9.20228e-05
0.369874 7.91591e-05
0.37423 7.43776e-05
0.378585 6.83529e-05
0.383021 6.62819e-05
0.387456 6.4008e-05
0.391973 6.28222e-05
0.39649 6.18342e-05
0.401089 6.00219e-05
0.405689 5.8721e-05
0.410373 5.54926e-05
0.415057 5.27767e-05
0.419827 4.89608e-05
0.424597 4.50685e-05
0.429454 4.20279e-05
0.434311 3.83941e-05
0.439258 3.65822e-05
0.444204 3.39788e-05
0.449241 3.31128e-05
0.454279 3.15879e-05
0.459408 3.12339e-05
0.464538 3.04607e-05
0.469761 3.03496e-05
0.474985 2.99968e-05
0.480305 3.00011e-05
0.485624 2.98684e-05
0.491041 2.99302e-05
0.496458 2.99231e-05
0.501975 3.00051e-05
0.507491 3.00555e-05
0.513109 3.0165e-05
0.518726 3.02429e-05
0.524447 3.03941e-05
0.530167 3.05174e-05
0.535993 3.06997e-05
0.541818 3.0871e-05
0.547751 3.10762e-05
0.553683 3.1275e-05
0.559724 3.15007e-05
0.565765 3.17155e-05
0.571917 3.19663e-05
0.578069 3.22034e-05
0.584334 3.24893e-05
0.590599 3.27682e-05
0.596979 3.3072e-05
0.603358 3.33831e-05
0.609855 3.36806e-05
0.616352 3.39868e-05
0.622968 3.42688e-05
0.629583 3.45532e-05
0.636321 3.48113e-05
0.643058 3.50736e-05
0.649919 3.53045e-05
0.656779 3.55446e-05
0.663766 3.57584e-05
0.670753 3.59853e-05
0.677867 3.62016e-05
0.684982 3.64319e-05
0.692227 3.66555e-05
0.699473 3.68905e-05
0.706851 3.71167e-05
0.714229 3.73472e-05
0.721742 3.75871e-05
0.729256 3.78221e-05
0.736907 3.80867e-05
0.744558 3.83389e-05
0.75235 3.86299e-05
0.760142 3.89021e-05
0.768076 3.9207e-05
0.776011 3.9497e-05
0.784091 3.97987e-05
0.792171 4.0096e-05
0.800399 4.03913e-05
0.808627 4.06891e-05
0.817006 4.09763e-05
0.825385 4.12653e-05
0.833918 4.15347e-05
0.842451 4.18033e-05
0.85114 4.20579e-05
0.85983 4.23154e-05
0.868678 4.25641e-05
0.877527 4.28246e-05
0.886538 4.30489e-05
0.895549 4.32955e-05
0.904725 4.34854e-05
0.913901 4.36908e-05
0.923246 4.38572e-05
0.93259 4.40306e-05
0.942106 4.41908e-05
0.951622 4.43527e-05
0.961313 4.45186e-05
0.971003 4.46819e-05
0.980872 4.48479e-05
0.99074 4.50145e-05
1.00079 4.51671e-05
1.01084 4.53265e-05
1.02107 4.54628e-05
1.03131 4.56067e-05
1.04173 4.57339e-05
1.05215 4.58643e-05
1.06276 4.59895e-05
1.07337 4.61108e-05
1.08418 4.62283e-05
1.09499 4.6346e-05
1.10599 4.64579e-05
1.117 4.65705e-05
1.1282 4.66992e-05
1.13941 4.68145e-05
1.15082 4.69657e-05
1.16224 4.71006e-05
1.17386 4.72576e-05
1.18548 4.74077e-05
1.19731 4.75482e-05
1.20915 4.76929e-05
1.2212 4.78149e-05
1.23325 4.79394e-05
1.24553 4.80674e-05
1.2578 4.81837e-05
1.2703 4.83458e-05
1.2828 4.84838e-05
1.29552 4.86823e-05
1.30825 4.886e-05
1.32121 4.90499e-05
1.33417 4.92518e-05
1.34737 4.93857e-05
1.36057 4.95547e-05
1.37401 4.9611e-05
1.38745 4.97106e-05
1.40114 4.97191e-05
1.41483 4.97513e-05
1.42877 4.97354e-05
1.4427 4.97296e-05
1.4569 4.97312e-05
1.47109 4.97401e-05
1.48555 4.96959e-05
1.5 4.96528e-05
1.50339 4.96367e-05
1.50679 4.96206e-05
1.5136 4.9588e-05
1.52041 4.95555e-05
1.52046 4.95553e-05
1.5205 4.95551e-05
1.52751 4.95237e-05
1.53451 4.94923e-05
1.53809 4.9478e-05
1.54167 4.94638e-05
1.54524 4.945e-05
1.54882 4.94362e-05
1.55612 4.94145e-05
1.56343 4.93927e-05
1.56363 4.93923e-05
1.56383 4.93919e-05
1.57109 4.93791e-05
1.57835 4.93663e-05
1.58265 4.9362e-05
1.58696 4.93576e-05
1.59027 4.93551e-05
1.59359 4.93525e-05
1.60137 4.93542e-05
1.60915 4.93563e-05
1.61013 4.9358e-05
1.61111 4.93597e-05
1.61807 4.93724e-05
1.62504 4.93851e-05
1.6307 4.94061e-05
1.63636 4.94271e-05
1.63881 4.94361e-05
1.64127 4.94451e-05
1.64955 4.94979e-05
1.65784 4.95535e-05
1.66031 4.95792e-05
1.66279 4.96049e-05
1.66878 4.9665e-05
1.67476 4.97252e-05
1.68262 4.98354e-05
1.69048 4.99455e-05
1.69126 4.99563e-05
1.69205 4.9967e-05
1.70087 5.01177e-05
1.7097 5.02692e-05
1.7146 5.03592e-05
1.71951 5.04491e-05
1.72362 5.05247e-05
1.72772 5.06003e-05
1.73693 5.07717e-05
1.74613 5.09431e-05
1.74806 5.0978e-05
1.75 5.10128e-05
1.75746 5.11495e-05
1.76493 5.12861e-05
1.77349 5.14391e-05
1.78205 5.15921e-05
1.78309 5.16108e-05
1.78412 5.16296e-05
1.79393 5.1812e-05
1.80373 5.1995e-05
1.80976 5.21189e-05
1.81579 5.22429e-05
1.81977 5.23242e-05
1.82375 5.24054e-05
1.83397 5.26407e-05
1.8442 5.2881e-05
1.84777 5.29776e-05
1.85135 5.30741e-05
1.85821 5.32562e-05
1.86508 5.34383e-05
1.87574 5.37629e-05
1.8864 5.40903e-05
1.88764 5.413e-05
1.88889 5.41697e-05
1.89853 5.44756e-05
1.90818 5.47814e-05
1.91837 5.5053e-05
1.92857 5.53245e-05
1.92949 5.53491e-05
1.93041 5.53737e-05
1.94177 5.56079e-05
1.95312 5.58425e-05
1.96186 5.5938e-05
1.97059 5.60335e-05
1.97345 5.60664e-05
1.97632 5.60993e-05
1.98816 5.59465e-05
2 5.57911e-05
