1 1e-10
1.00148 0.0300984
1.00296 0.0601968
1.00447 0.0512081
1.00598 0.0318054
1.00753 0.0289145
1.00907 0.0248987
1.00964 0.0241322
1.0102 0.0233657
1.01121 0.0208287
1.01222 0.0182917
1.01383 0.0165313
1.01544 0.0135982
1.01709 0.0128898
1.01873 0.0115494
1.01978 0.0111786
1.02083 0.0108078
1.02146 0.0103709
1.02209 0.00993394
1.02381 0.0092607
1.02552 0.00834915
1.02727 0.008107
1.02902 0.0075412
1.03047 0.00730345
1.03191 0.00706569
1.03226 0.00695299
1.0326 0.00684029
1.03443 0.00633773
1.03625 0.00577229
1.03812 0.00551847
1.03998 0.00509179
1.04173 0.00478383
1.04348 0.00447587
1.04363 0.00443742
1.04379 0.00439897
1.04574 0.00401066
1.04768 0.00360942
1.04967 0.00328936
1.05165 0.00302502
1.0536 0.00269259
1.05556 0.00236016
1.05563 0.00234652
1.05571 0.00233288
1.05778 0.00210167
1.05985 0.00187458
1.06197 0.00154294
1.06409 0.00141506
1.06613 0.00120041
1.06818 0.000985757
1.06829 0.00097582
1.06841 0.000965882
1.07061 0.000865752
1.07282 0.000775369
1.07507 0.000614487
1.07733 0.000559789
1.07936 0.00048818
1.0814 0.000416571
1.08166 0.000408729
1.08193 0.000400888
1.08428 0.000358446
1.08663 0.000324503
1.08903 0.000271942
1.09143 0.000248744
1.09333 0.000228336
1.09524 0.000207928
1.09578 0.000202737
1.09633 0.000197546
1.09883 0.000180764
1.10133 0.000168745
1.10389 0.000152396
1.10644 0.000142962
1.1081 0.000137655
1.10976 0.000132348
1.11071 0.000129476
1.11166 0.000126604
1.11433 0.000120365
1.11699 0.000116354
1.11972 0.00011156
1.12244 0.000108111
1.12372 0.000106918
1.125 0.000105725
1.1265 0.000104367
1.128 0.000103009
1.13084 0.000100394
1.13368 9.81988e-05
1.13657 9.57045e-05
1.13947 9.32279e-05
1.14025 9.25576e-05
1.14103 9.18874e-05
1.14321 8.99775e-05
1.14539 8.80676e-05
1.14842 8.54478e-05
1.15144 8.32182e-05
1.15453 8.09813e-05
1.15762 7.87748e-05
1.15776 7.87012e-05
1.15789 7.86277e-05
1.16091 7.69853e-05
1.16392 7.53428e-05
1.16714 7.36218e-05
1.17036 7.21713e-05
1.17302 7.09994e-05
1.17568 6.98276e-05
1.17631 6.95412e-05
1.17694 6.92547e-05
1.1803 6.79008e-05
1.18366 6.65801e-05
1.18709 6.52388e-05
1.19052 6.40717e-05
1.19248 6.34532e-05
1.19444 6.28347e-05
1.19598 6.2347e-05
1.19752 6.18593e-05
1.2011 6.08487e-05
1.20467 5.99678e-05
1.20833 5.90754e-05
1.21198 5.82256e-05
1.21313 5.80008e-05
1.21429 5.77759e-05
1.21686 5.7247e-05
1.21944 5.67182e-05
1.22325 5.5979e-05
1.22706 5.52881e-05
1.23095 5.46621e-05
1.23484 5.4039e-05
1.23507 5.40083e-05
1.23529 5.39776e-05
1.23904 5.34178e-05
1.24278 5.2858e-05
1.24684 5.23123e-05
1.2509 5.17958e-05
1.25424 5.14216e-05
1.25758 5.10474e-05
1.25838 5.09543e-05
1.25918 5.08612e-05
1.26341 5.04344e-05
1.26764 5.00164e-05
1.27197 4.96369e-05
1.27629 4.92676e-05
1.27877 4.90817e-05
1.28125 4.88958e-05
1.28318 4.87373e-05
1.28511 4.85787e-05
1.28962 4.82632e-05
1.29412 4.79543e-05
1.29873 4.76778e-05
1.30333 4.74077e-05
1.30489 4.73259e-05
1.30645 4.7244e-05
1.30959 4.70643e-05
1.31273 4.68846e-05
1.31753 4.66497e-05
1.32233 4.64229e-05
1.32723 4.62156e-05
1.33213 4.60117e-05
1.33273 4.59907e-05
1.33333 4.59698e-05
1.33774 4.58038e-05
1.34214 4.56377e-05
1.34725 4.5469e-05
1.35236 4.53166e-05
1.35722 4.51889e-05
1.36207 4.50613e-05
1.36244 4.50513e-05
1.3628 4.50413e-05
1.36813 4.49208e-05
1.37346 4.48016e-05
1.37891 4.46944e-05
1.38435 4.45959e-05
1.3886 4.45329e-05
1.39286 4.44698e-05
1.39416 4.44505e-05
1.39547 4.44312e-05
1.40115 4.43616e-05
1.40682 4.42953e-05
1.41262 4.42348e-05
1.41842 4.41815e-05
1.42217 4.41566e-05
1.42593 4.41317e-05
1.42809 4.41162e-05
1.43026 4.41007e-05
1.43631 4.40755e-05
1.44236 4.40537e-05
1.44853 4.40423e-05
1.45471 4.40357e-05
1.45812 4.40418e-05
1.46154 4.40479e-05
1.46443 4.40516e-05
1.46732 4.40554e-05
1.47376 4.40868e-05
1.4802 4.41233e-05
1.48678 4.41711e-05
1.49335 4.42211e-05
1.49668 4.42478e-05
1.5 4.42745e-05
1.50339 4.43016e-05
1.50679 4.43287e-05
1.51364 4.43825e-05
1.5205 4.44371e-05
1.52751 4.4489e-05
1.53451 4.45408e-05
1.53809 4.45644e-05
1.54167 4.45879e-05
1.54524 4.46119e-05
1.54882 4.46358e-05
1.55612 4.46776e-05
1.56343 4.47183e-05
1.57089 4.47532e-05
1.57835 4.47867e-05
1.58265 4.48009e-05
1.58696 4.48151e-05
1.59027 4.48265e-05
1.59359 4.48378e-05
1.60137 4.48579e-05
1.60915 4.48774e-05
1.61709 4.48953e-05
1.62504 4.49128e-05
1.6307 4.49248e-05
1.63636 4.49369e-05
1.63881 4.49422e-05
1.64127 4.49476e-05
1.64955 4.49691e-05
1.65784 4.49907e-05
1.6663 4.50166e-05
1.67476 4.5043e-05
1.68262 4.50721e-05
1.69048 4.51012e-05
1.69126 4.5104e-05
1.69205 4.51069e-05
1.70087 4.51493e-05
1.7097 4.51917e-05
1.71871 4.52448e-05
1.72772 4.53001e-05
1.73693 4.53711e-05
1.74613 4.54429e-05
1.74806 4.54632e-05
1.75 4.54834e-05
1.75746 4.55604e-05
1.76493 4.56374e-05
1.77453 4.57605e-05
1.78412 4.58877e-05
1.79393 4.60362e-05
1.80373 4.61873e-05
1.80976 4.62902e-05
1.81579 4.63931e-05
1.81977 4.64607e-05
1.82375 4.65283e-05
1.83397 4.6713e-05
1.8442 4.68985e-05
1.85464 4.70962e-05
1.86508 4.72969e-05
1.87574 4.75307e-05
1.8864 4.77649e-05
1.88764 4.77954e-05
1.88889 4.78258e-05
1.89853 4.8061e-05
1.90818 4.82963e-05
1.91929 4.85586e-05
1.93041 4.88204e-05
1.94177 4.90588e-05
1.95312 4.92959e-05
1.96186 4.94548e-05
1.97059 4.96136e-05
1.97345 4.96663e-05
1.97632 4.97189e-05
1.98816 4.97767e-05
2 4.98321e-05
