1 1e-10
1.00148 0.0118323
1.00296 0.0248617
1.00447 0.0190499
1.00598 0.0115832
1.00753 0.00865622
1.00907 0.0049957
1.00964 0.00450722
1.0102 0.00395094
1.01121 0.00320252
1.01222 0.00234082
1.01383 0.00206682
1.01544 0.00160117
1.01709 0.00150843
1.01873 0.00135001
1.01978 0.00132123
1.02083 0.00129436
1.02146 0.00127342
1.02209 0.00125209
1.02381 0.00122334
1.02552 0.00121487
1.02727 0.00120264
1.02902 0.00121517
1.03047 0.0012096
1.03191 0.00120668
1.03226 0.00120273
1.0326 0.0012043
1.03443 0.00118521
1.03625 0.00118151
1.03812 0.00117763
1.03998 0.00115361
1.04173 0.00114014
1.04348 0.00110425
1.04363 0.00110256
1.04379 0.00110042
1.04574 0.00109099
1.04768 0.001052
1.04967 0.0010514
1.05165 0.000995528
1.0536 0.00098285
1.05556 0.000953418
1.05563 0.000952934
1.05571 0.000951503
1.05778 0.000950252
1.05985 0.000937165
1.06197 0.000944114
1.06409 0.000944375
1.06613 0.00095347
1.06818 0.000960461
1.06829 0.000961048
1.06841 0.000961876
1.07061 0.000978159
1.07282 0.000998503
1.07507 0.00102433
1.07733 0.00104546
1.07936 0.00106874
1.0814 0.00108419
1.08166 0.00108916
1.08193 0.00109429
1.08428 0.00113694
1.08663 0.00116766
1.08903 0.00120537
1.09143 0.00118842
1.09333 0.00119573
1.09524 0.0011661
1.09578 0.00117136
1.09633 0.00116697
1.09883 0.0012151
1.10133 0.00118719
1.10389 0.00124717
1.10644 0.0012219
1.1081 0.00127381
1.10976 0.00129515
1.11071 0.00132603
1.11166 0.00133784
1.11433 0.00151113
1.11699 0.00160431
1.11972 0.00178233
1.12244 0.00200883
1.12372 0.00206052
1.125 0.00216652
1.1265 0.00225618
1.128 0.00238509
1.13084 0.002341
1.13368 0.00246698
1.13657 0.00240412
1.13947 0.00232728
1.14025 0.00231459
1.14103 0.00228345
1.14321 0.00222801
1.14539 0.00216153
1.14842 0.00218495
1.15144 0.00215607
1.15453 0.00240976
1.15762 0.00268385
1.15776 0.00271286
1.15789 0.00274148
1.16091 0.00340557
1.16392 0.00406439
1.16714 0.00484654
1.17036 0.00536832
1.17302 0.00551531
1.17568 0.0055747
1.17631 0.00560124
1.17694 0.00560014
1.1803 0.00528693
1.18366 0.00500999
1.18709 0.00471423
1.19052 0.00455787
1.19248 0.00453502
1.19444 0.004546
1.19598 0.00453674
1.19752 0.00455097
1.2011 0.00463106
1.20467 0.00475008
1.20833 0.00474436
1.21198 0.00468887
1.21313 0.00458456
1.21429 0.00443312
1.21686 0.00410618
1.21944 0.00366147
1.22325 0.00283183
1.22706 0.0019407
1.23095 0.00128435
1.23484 0.000752822
1.23507 0.000734958
1.23529 0.000723208
1.23904 0.000538374
1.24278 0.000376011
1.24684 0.000293163
1.2509 0.000210616
1.25424 0.00018043
1.25758 0.000149714
1.25838 0.000143956
1.25918 0.000136285
1.26341 0.000121512
1.26764 0.000101729
1.27197 9.33877e-05
1.27629 8.22352e-05
1.27877 7.94378e-05
1.28125 7.62069e-05
1.28318 7.43768e-05
1.28511 7.15708e-05
1.28962 6.90478e-05
1.29412 6.51558e-05
1.29873 6.3182e-05
1.30333 6.05957e-05
1.30489 6.00547e-05
1.30645 5.94219e-05
1.30959 5.8237e-05
1.31273 5.68721e-05
1.31753 5.54951e-05
1.32233 5.38226e-05
1.32723 5.26135e-05
1.33213 5.12393e-05
1.33273 5.112e-05
1.33333 5.09829e-05
1.33774 5.00096e-05
1.34214 4.89688e-05
1.34725 4.81055e-05
1.35236 4.70455e-05
1.35722 4.63032e-05
1.36207 4.54839e-05
1.36244 4.54222e-05
1.3628 4.53577e-05
1.36813 4.4644e-05
1.37346 4.3871e-05
1.37891 4.3278e-05
1.38435 4.2594e-05
1.3886 4.21933e-05
1.39286 4.17559e-05
1.39416 4.1624e-05
1.39547 4.14853e-05
1.40115 4.10289e-05
1.40682 4.05369e-05
1.41262 4.01558e-05
1.41842 3.9733e-05
1.42217 3.95252e-05
1.42593 3.93033e-05
1.42809 3.91787e-05
1.43026 3.90478e-05
1.43631 3.87682e-05
1.44236 3.84676e-05
1.44853 3.82327e-05
1.45471 3.79771e-05
1.45812 3.78698e-05
1.46154 3.77562e-05
1.46443 3.76623e-05
1.46732 3.75641e-05
1.47376 3.73983e-05
1.4802 3.72222e-05
1.48678 3.7088e-05
1.49335 3.69456e-05
1.49668 3.68932e-05
1.5 3.68384e-05
1.50339 3.6784e-05
1.50679 3.67272e-05
1.51364 3.66472e-05
1.5205 3.65617e-05
1.52751 3.65043e-05
1.53451 3.64425e-05
1.53809 3.64237e-05
1.54167 3.64039e-05
1.54524 3.63849e-05
1.54882 3.63649e-05
1.55612 3.63479e-05
1.56343 3.63281e-05
1.57089 3.6332e-05
1.57835 3.63332e-05
1.58265 3.63454e-05
1.58696 3.63568e-05
1.59027 3.6366e-05
1.59359 3.63746e-05
1.60137 3.64133e-05
1.60915 3.64509e-05
1.61709 3.65084e-05
1.62504 3.65659e-05
1.6307 3.66199e-05
1.63636 3.6674e-05
1.63881 3.66975e-05
1.64127 3.6721e-05
1.64955 3.68185e-05
1.65784 3.69159e-05
1.6663 3.70298e-05
1.67476 3.71432e-05
1.68262 3.72579e-05
1.69048 3.7372e-05
1.69126 3.73834e-05
1.69205 3.73948e-05
1.70087 3.75291e-05
1.7097 3.7662e-05
1.71871 3.7801e-05
1.72772 3.79366e-05
1.73693 3.80754e-05
1.74613 3.8212e-05
1.74806 3.82402e-05
1.75 3.82681e-05
1.75746 3.83763e-05
1.76493 3.84829e-05
1.77453 3.8617e-05
1.78412 3.87473e-05
1.79393 3.88783e-05
1.80373 3.9006e-05
1.80976 3.90835e-05
1.81579 3.91596e-05
1.81977 3.92103e-05
1.82375 3.92602e-05
1.83397 3.93891e-05
1.8442 3.95153e-05
1.85464 3.96445e-05
1.86508 3.97708e-05
1.87574 3.99081e-05
1.8864 4.00446e-05
1.88764 4.00604e-05
1.88889 4.00761e-05
1.89853 4.01986e-05
1.90818 4.03206e-05
1.91929 4.04784e-05
1.93041 4.06363e-05
1.94177 4.07963e-05
1.95312 4.09579e-05
1.96186 4.11031e-05
1.97059 4.12491e-05
1.97345 4.12969e-05
1.97632 4.1345e-05
1.98816 4.16295e-05
2 4.19138e-05
