0 1e-10
0.000963618 0.000424594
0.00192724 0.000828923
0.00290853 0.000955075
0.00388982 0.00108101
0.00488911 0.00109581
0.0058884 0.00112035
0.00690601 0.00107629
0.00792363 0.00104739
0.00895991 0.000977503
0.00999619 0.000926483
0.0110515 0.000851379
0.0121068 0.000798825
0.0131814 0.000730868
0.0142561 0.00068817
0.0153504 0.000633544
0.0164448 0.000602921
0.0175592 0.000562899
0.0186736 0.000540551
0.0198085 0.000512714
0.0209433 0.000491095
0.022099 0.000471602
0.0232547 0.000446233
0.0244316 0.000431734
0.0256084 0.00040482
0.0268069 0.000393489
0.0280054 0.000368673
0.0292258 0.000360404
0.0304462 0.000340096
0.0316891 0.000334691
0.0329319 0.000318989
0.0341975 0.000315644
0.0354631 0.000303315
0.036752 0.000301589
0.0380408 0.000292048
0.0393533 0.000291866
0.0406657 0.00028546
0.0420023 0.000286827
0.0433388 0.000283963
0.0446999 0.000286815
0.0460609 0.000287274
0.047447 0.00029151
0.048833 0.000295226
0.0502444 0.000300581
0.0516559 0.000306941
0.0530932 0.000312949
0.0545305 0.000320491
0.0559942 0.000326874
0.0574579 0.00033496
0.0589484 0.000341802
0.060439 0.00035092
0.0619568 0.000358152
0.0634747 0.000368259
0.0650204 0.000375452
0.0665661 0.000385553
0.0681402 0.00039227
0.0697143 0.000401183
0.0713172 0.000407076
0.0729201 0.00041369
0.0745524 0.000418585
0.0761848 0.000423558
0.077847 0.000427719
0.0795093 0.000432785
0.0812021 0.000436788
0.0828948 0.000442855
0.0846186 0.000446989
0.0863424 0.000454165
0.0880979 0.000458407
0.0898533 0.000466124
0.0916409 0.000470529
0.0934285 0.000478388
0.0952489 0.000483054
0.0970693 0.00049091
0.0989231 0.000495715
0.100777 0.000503565
0.102665 0.000509124
0.104552 0.000519315
0.106475 0.000525945
0.108397 0.00053855
0.110355 0.000545484
0.112313 0.000555155
0.114306 0.000560494
0.1163 0.000563124
0.11833 0.000563953
0.12036 0.000558487
0.122428 0.000556608
0.124495 0.000544543
0.1266 0.000543133
0.128705 0.000528102
0.130849 0.000527448
0.132993 0.000513798
0.135177 0.000515809
0.13736 0.000506897
0.139583 0.000514506
0.141806 0.000511763
0.14407 0.000523172
0.146334 0.000525051
0.14864 0.000534131
0.150946 0.000536207
0.153293 0.00054072
0.155641 0.000539945
0.158032 0.000539385
0.160423 0.00053374
0.162858 0.000528058
0.165293 0.000519977
0.167772 0.000512966
0.170252 0.000506713
0.172776 0.00049971
0.175301 0.00049451
0.177873 0.000485512
0.180444 0.000477935
0.183062 0.000467825
0.185681 0.000456084
0.188347 0.000449601
0.191013 0.000438651
0.193729 0.000441291
0.196444 0.000437211
0.199209 0.000467457
0.201974 0.000474745
0.20479 0.000545604
0.207606 0.000581925
0.210473 0.000658716
0.213341 0.000739043
0.216261 0.000772497
0.219181 0.000850961
0.222155 0.000834619
0.225128 0.000859556
0.228156 0.000810062
0.231184 0.000773588
0.234268 0.000708166
0.237352 0.000632008
0.240492 0.000580202
0.243632 0.000515732
0.24683 0.000491113
0.250028 0.000464579
0.253285 0.000460316
0.256541 0.000456997
0.259857 0.000464587
0.263174 0.00047369
0.266551 0.000489123
0.269928 0.000506631
0.273367 0.000523667
0.276806 0.00054284
0.280308 0.000556187
0.28381 0.000571278
0.287376 0.000580153
0.290942 0.00058924
0.294574 0.000594036
0.298206 0.000597882
0.301904 0.00059822
0.305602 0.000598228
0.309368 0.000594398
0.313135 0.000591671
0.31697 0.000584617
0.320805 0.000580151
0.324711 0.000570928
0.328616 0.000563958
0.332593 0.000553763
0.336571 0.000543902
0.340621 0.000535143
0.344671 0.000524573
0.348795 0.000518785
0.35292 0.000510666
0.35712 0.000507135
0.36132 0.000502913
0.365597 0.000500892
0.369874 0.000500383
0.37423 0.000499837
0.378585 0.000505049
0.383021 0.000503959
0.387456 0.000509657
0.391973 0.00050509
0.39649 0.000500782
0.401089 0.000494088
0.405689 0.000480545
0.410373 0.000476728
0.415057 0.000463402
0.419827 0.000467129
0.424597 0.000461677
0.429454 0.000476715
0.434311 0.000480174
0.439258 0.000504071
0.444204 0.000515464
0.449241 0.000541653
0.454279 0.000560969
0.459408 0.000585283
0.464538 0.000615487
0.469761 0.000634498
0.474985 0.000672568
0.480305 0.000692743
0.485624 0.000735287
0.491041 0.00076612
0.496458 0.000806031
0.501975 0.000831727
0.507491 0.00084769
0.513109 0.00085106
0.518726 0.000835549
0.524447 0.000820012
0.530167 0.000810606
0.535993 0.000800713
0.541818 0.000821009
0.547751 0.000822551
0.553683 0.000834798
0.559724 0.000823842
0.565765 0.000808927
0.571917 0.000777118
0.578069 0.000759667
0.584334 0.00073552
0.590599 0.000733396
0.596979 0.000731761
0.603358 0.000738914
0.609855 0.000746358
0.616352 0.000754852
0.622968 0.00076767
0.629583 0.000778823
0.636321 0.000793836
0.643058 0.000810745
0.649919 0.000823072
0.656779 0.000840116
0.663766 0.000845633
0.670753 0.000850381
0.677867 0.00084622
0.684982 0.000830552
0.692227 0.000821523
0.699473 0.000790013
0.706851 0.000783995
0.714229 0.000753457
0.721742 0.000754599
0.729256 0.000735133
0.736907 0.000740149
0.744558 0.000728913
0.75235 0.000729728
0.760142 0.000720555
0.768076 0.000710186
0.776011 0.000696559
0.784091 0.000673923
0.792171 0.00065247
0.800399 0.000625685
0.808627 0.000601086
0.817006 0.000584072
0.825385 0.000568383
0.833918 0.00056898
0.842451 0.00056882
0.85114 0.000595525
0.85983 0.00061377
0.868678 0.000673092
0.877527 0.000726695
0.886538 0.000809395
0.895549 0.000886427
0.904725 0.00103578
0.913901 0.00116574
0.923246 0.00140611
0.93259 0.00160167
0.942106 0.00180918
0.951622 0.00197914
0.961313 0.00208963
0.971003 0.00221055
0.980872 0.00228708
0.99074 0.00243232
1.00079 0.00252087
1.01084 0.0027322
1.02107 0.00285884
1.03131 0.00305213
1.04173 0.00310364
1.05215 0.00321146
1.06276 0.00297244
1.07337 0.00274383
1.08418 0.00225002
1.09499 0.00174007
1.10599 0.00132306
1.117 0.000841877
1.1282 0.000593454
1.13941 0.000277803
1.15082 0.000214803
1.16224 0.000116071
1.17386 9.88267e-05
1.18548 7.24637e-05
1.19731 6.67285e-05
1.20915 5.89114e-05
1.2212 5.60054e-05
1.23325 5.25871e-05
1.24553 5.01459e-05
1.2578 4.75679e-05
1.2703 4.51518e-05
1.2828 4.26776e-05
1.29552 4.05685e-05
1.30825 3.84368e-05
1.32121 3.68707e-05
1.33417 3.55411e-05
1.34737 3.46338e-05
1.36057 3.39286e-05
1.37401 3.34184e-05
1.38745 3.29643e-05
1.40114 3.25156e-05
1.41483 3.21175e-05
1.42877 3.17846e-05
1.4427 3.15454e-05
1.4569 3.13943e-05
1.47109 3.13014e-05
1.48555 3.12279e-05
1.5 3.11921e-05
1.50339 3.11885e-05
1.50679 3.11835e-05
1.5136 3.12005e-05
1.52041 3.12178e-05
1.52046 3.12181e-05
1.5205 3.12183e-05
1.52751 3.12731e-05
1.53451 3.1321e-05
1.53809 3.13544e-05
1.54167 3.13811e-05
1.54524 3.14036e-05
1.54882 3.14272e-05
1.55612 3.14899e-05
1.56343 3.15495e-05
1.56363 3.15515e-05
1.56383 3.15536e-05
1.57109 3.16307e-05
1.57835 3.16992e-05
1.58265 3.17498e-05
1.58696 3.17973e-05
1.59027 3.18357e-05
1.59359 3.18715e-05
1.60137 3.19715e-05
1.60915 3.20656e-05
1.61013 3.20794e-05
1.61111 3.20926e-05
1.61807 3.21877e-05
1.62504 3.22786e-05
1.6307 3.23616e-05
1.63636 3.24416e-05
1.63881 3.24772e-05
1.64127 3.25114e-05
1.64955 3.26403e-05
1.65784 3.27643e-05
1.66031 3.28048e-05
1.66279 3.28444e-05
1.66878 3.2941e-05
1.67476 3.30353e-05
1.68262 3.31688e-05
1.69048 3.33002e-05
1.69126 3.33135e-05
1.69205 3.33266e-05
1.70087 3.34853e-05
1.7097 3.36427e-05
1.7146 3.37359e-05
1.71951 3.38286e-05
1.72362 3.39063e-05
1.72772 3.39837e-05
1.73693 3.41666e-05
1.74613 3.43483e-05
1.74806 3.43882e-05
1.75 3.44278e-05
1.75746 3.45817e-05
1.76493 3.47344e-05
1.77349 3.49144e-05
1.78205 3.50922e-05
1.78309 3.51138e-05
1.78412 3.51351e-05
1.79393 3.53407e-05
1.80373 3.55424e-05
1.80976 3.56669e-05
1.81579 3.5789e-05
1.81977 3.58706e-05
1.82375 3.59504e-05
1.83397 3.61548e-05
1.8442 3.63531e-05
1.84777 3.64213e-05
1.85135 3.6488e-05
1.85821 3.66168e-05
1.86508 3.67426e-05
1.87574 3.69349e-05
1.8864 3.71225e-05
1.88764 3.71436e-05
1.88889 3.71642e-05
1.89853 3.73258e-05
1.90818 3.74839e-05
1.91837 3.76547e-05
1.92857 3.78224e-05
1.92949 3.78376e-05
1.93041 3.78526e-05
1.94177 3.80251e-05
1.95312 3.81944e-05
1.96186 3.83498e-05
1.97059 3.85023e-05
1.97345 3.8553e-05
1.97632 3.86027e-05
1.98816 3.8868e-05
2 3.9135e-05
