0 	0.637825 	0 	0.257698
0.00184056 	0.782052 	5.44665e-05 	0.315942
0.00368111 	0.924613 	5.44665e-05 	0.373541
0.00558849 	0.92617 	9.4315e-05 	0.374163
0.00749587 	0.92617 	9.4315e-05 	0.374163
0.00947248 	0.92686 	0.000110807 	0.374443
0.0114491 	0.92686 	0.000110807 	0.374443
0.0134975 	0.927111 	0.000115766 	0.374547
0.0155459 	0.927111 	0.000115766 	0.374547
0.0176687 	0.927198 	0.000117354 	0.374584
0.0197915 	0.927198 	0.000117354 	0.374584
0.0219913 	0.92723 	0.000117362 	0.374599
0.0241911 	0.92723 	0.000117362 	0.374599
0.0264708 	0.927243 	0.000116585 	0.374606
0.0287506 	0.927243 	0.000116585 	0.374606
0.031113 	0.927248 	0.000115421 	0.37461
0.0334755 	0.927248 	0.000115421 	0.37461
0.0359237 	0.92725 	0.000114029 	0.374612
0.038372 	0.92725 	0.000114029 	0.374612
0.0409091 	0.927251 	0.0001125 	0.374613
0.0434463 	0.927251 	0.0001125 	0.374613
0.0460755 	0.92725 	0.000110882 	0.374614
0.0487048 	0.92725 	0.000110882 	0.374614
0.0514295 	0.927249 	0.000109202 	0.374615
0.0541543 	0.927249 	0.000109202 	0.374615
0.0569779 	0.927248 	0.000107482 	0.374616
0.0598016 	0.927248 	0.000107482 	0.374616
0.0627277 	0.927247 	0.000105737 	0.374616
0.0656539 	0.927247 	0.000105737 	0.374616
0.0686863 	0.927245 	0.000103956 	0.374616
0.0717187 	0.927245 	0.000103956 	0.374616
0.0748612 	0.927243 	0.000102147 	0.374617
0.0780037 	0.927243 	0.000102147 	0.374617
0.0812603 	0.927241 	0.000100321 	0.374617
0.0845169 	0.927241 	0.000100321 	0.374617
0.0878917 	0.927239 	9.84808e-05 	0.374617
0.0912666 	0.927239 	9.84808e-05 	0.374617
0.0947639 	0.927238 	9.66252e-05 	0.374617
0.0982613 	0.927238 	9.66252e-05 	0.374617
0.101886 	0.927236 	9.47581e-05 	0.374617
0.10551 	0.927236 	9.47581e-05 	0.374617
0.109266 	0.927234 	9.28831e-05 	0.374618
0.113022 	0.927234 	9.28831e-05 	0.374618
0.116914 	0.927232 	9.10047e-05 	0.374618
0.120806 	0.927232 	9.10047e-05 	0.374618
0.12484 	0.92723 	8.91257e-05 	0.374618
0.128874 	0.92723 	8.91257e-05 	0.374618
0.133054 	0.927228 	8.72488e-05 	0.374618
0.137234 	0.927228 	8.72488e-05 	0.374618
0.141565 	0.927226 	8.53844e-05 	0.374618
0.145897 	0.927226 	8.53844e-05 	0.374618
0.150386 	0.927224 	8.35373e-05 	0.374618
0.154876 	0.927224 	8.35373e-05 	0.374618
0.159528 	0.927222 	8.17047e-05 	0.374618
0.16418 	0.927222 	8.17047e-05 	0.374618
0.169001 	0.927219 	7.98957e-05 	0.374618
0.173822 	0.927219 	7.98957e-05 	0.374618
0.178818 	0.927217 	7.81192e-05 	0.374618
0.183814 	0.927217 	7.81192e-05 	0.374618
0.188991 	0.927214 	7.63749e-05 	0.374618
0.194169 	0.927214 	7.63749e-05 	0.374618
0.199534 	0.927212 	7.46703e-05 	0.374618
0.2049 	0.927212 	7.46703e-05 	0.374618
0.21046 	0.927209 	7.30131e-05 	0.374618
0.21602 	0.927209 	7.30131e-05 	0.374618
0.221782 	0.927207 	7.14078e-05 	0.374618
0.227544 	0.927207 	7.14078e-05 	0.374618
0.227628 	0.927204 	6.98699e-05 	0.374618
0.227712 	0.927204 	6.98699e-05 	0.374618
0.233599 	0.927204 	6.98699e-05 	0.374618
0.239487 	0.927204 	6.98699e-05 	0.374618
0.245588 	0.927201 	6.84114e-05 	0.374618
0.251689 	0.927201 	6.84114e-05 	0.374618
0.251776 	0.927201 	6.84114e-05 	0.374618
0.251863 	0.927201 	6.84114e-05 	0.374618
0.258275 	0.927199 	6.70375e-05 	0.374618
0.264688 	0.927199 	6.70375e-05 	0.374618
0.271334 	0.927196 	6.57587e-05 	0.374618
0.27798 	0.927196 	6.57587e-05 	0.374618
0.284867 	0.927194 	6.45847e-05 	0.374618
0.291753 	0.927194 	6.45847e-05 	0.374618
0.29889 	0.927192 	6.3522e-05 	0.374618
0.306027 	0.927192 	6.3522e-05 	0.374618
0.313423 	0.927189 	6.2573e-05 	0.374618
0.320819 	0.927189 	6.2573e-05 	0.374618
0.328484 	0.927187 	6.17593e-05 	0.374618
0.336148 	0.927187 	6.17593e-05 	0.374618
0.344091 	0.927185 	6.10997e-05 	0.374618
0.352034 	0.927185 	6.10997e-05 	0.374618
0.360265 	0.927183 	6.05732e-05 	0.374618
0.368496 	0.927183 	6.05732e-05 	0.374618
0.377027 	0.927181 	6.01683e-05 	0.374618
0.385557 	0.927181 	6.01683e-05 	0.374618
0.394397 	0.927179 	5.99004e-05 	0.374618
0.403236 	0.927179 	5.99004e-05 	0.374618
0.46022 	0.927176 	5.99052e-05 	0.374618
0.460287 	0.927176 	6.00259e-05 	0.374618
0.460355 	0.927176 	6.01466e-05 	0.374618
0.546332 	0.927174 	6.14986e-05 	0.374618
0.558091 	0.927173 	6.214e-05 	0.374618
0.569849 	0.927173 	6.214e-05 	0.374618
0.582034 	0.927173 	6.28637e-05 	0.374618
0.594219 	0.927173 	6.28637e-05 	0.374618
0.606847 	0.927173 	6.36611e-05 	0.374618
0.619475 	0.927173 	6.36611e-05 	0.374618
0.632561 	0.927173 	6.45231e-05 	0.374618
0.645647 	0.927173 	6.45231e-05 	0.374618
0.659208 	0.927172 	6.54404e-05 	0.374618
0.67277 	0.927172 	6.54404e-05 	0.374618
0.686823 	0.927172 	6.64032e-05 	0.374617
0.700877 	0.927172 	6.64032e-05 	0.374617
0.715441 	0.927172 	6.74016e-05 	0.374617
0.730005 	0.927172 	6.74016e-05 	0.374617
0.745097 	0.927173 	6.84251e-05 	0.374617
0.76019 	0.927173 	6.84251e-05 	0.374617
0.775831 	0.927173 	6.94626e-05 	0.374617
0.791472 	0.927173 	6.94626e-05 	0.374617
0.791525 	0.927173 	6.97226e-05 	0.374617
0.791579 	0.927173 	6.99826e-05 	0.374617
0.807734 	0.927173 	7.05025e-05 	0.374617
0.823889 	0.927173 	7.05025e-05 	0.374617
0.840686 	0.927173 	7.15324e-05 	0.374617
0.857483 	0.927173 	7.15324e-05 	0.374617
0.87489 	0.927173 	7.25392e-05 	0.374617
0.892297 	0.927173 	7.25392e-05 	0.374617
0.910336 	0.927174 	7.35091e-05 	0.374617
0.928375 	0.927174 	7.35091e-05 	0.374617
0.947068 	0.927174 	7.44272e-05 	0.374617
0.965762 	0.927174 	7.44272e-05 	0.374617
0.985136 	0.927175 	7.52781e-05 	0.374617
1.00451 	0.927175 	7.52781e-05 	0.374617
1.00464 	0.927175 	7.56618e-05 	0.374617
1.00477 	0.927175 	7.60455e-05 	0.374617
1.02472 	0.927175 	7.60455e-05 	0.374617
1.04466 	0.927175 	7.60455e-05 	0.374617
1.06546 	0.927175 	7.67126e-05 	0.374617
1.08627 	0.927175 	7.67126e-05 	0.374617
1.08641 	0.927176 	7.69876e-05 	0.374617
1.08655 	0.927176 	7.72625e-05 	0.374617
1.10797 	0.927176 	7.72625e-05 	0.374617
1.12939 	0.927176 	7.72625e-05 	0.374617
1.15173 	0.927177 	7.76779e-05 	0.374617
1.17408 	0.927177 	7.76779e-05 	0.374617
1.19723 	0.927177 	7.79414e-05 	0.374616
1.22038 	0.927177 	7.79414e-05 	0.374616
1.24437 	0.927178 	7.80362e-05 	0.374616
1.26837 	0.927178 	7.80362e-05 	0.374616
1.29323 	0.927178 	7.79458e-05 	0.374616
1.3181 	0.927178 	7.79458e-05 	0.374616
1.31827 	0.927179 	7.78002e-05 	0.374616
1.31844 	0.927179 	7.76545e-05 	0.374616
1.34404 	0.927179 	7.76545e-05 	0.374616
1.36964 	0.927179 	7.76545e-05 	0.374616
1.39634 	0.927179 	7.71484e-05 	0.374616
1.42305 	0.927179 	7.71484e-05 	0.374616
1.45072 	0.92718 	7.64155e-05 	0.374616
1.4784 	0.92718 	7.64155e-05 	0.374616
1.47859 	0.92718 	7.59309e-05 	0.374616
1.47878 	0.927181 	7.54462e-05 	0.374616
1.50727 	0.927181 	7.54462e-05 	0.374616
1.53576 	0.927181 	7.54462e-05 	0.374616
1.56548 	0.927181 	7.4234e-05 	0.374615
1.5952 	0.927181 	7.4234e-05 	0.374615
1.5952 	0.927181 	7.4234e-05 	0.374615
1.62599 	0.927182 	7.27758e-05 	0.374615
1.626 	0.927182 	7.27758e-05 	0.374615
1.65679 	0.927182 	7.27758e-05 	0.374615
1.65679 	0.927182 	7.27758e-05 	0.374615
1.68871 	0.927182 	7.10717e-05 	0.374615
1.72063 	0.927182 	7.10717e-05 	0.374615
1.75371 	0.927183 	6.91263e-05 	0.374615
1.78678 	0.927183 	6.91263e-05 	0.374615
1.82106 	0.927183 	6.69497e-05 	0.374615
1.85533 	0.927183 	6.69497e-05 	0.374615
1.85556 	0.927183 	6.57516e-05 	0.374615
1.8558 	0.927184 	6.45536e-05 	0.374614
1.89109 	0.927184 	6.45536e-05 	0.374614
1.92638 	0.927184 	6.45536e-05 	0.374614
1.96319 	0.927184 	6.19831e-05 	0.374614
2 	0.927184 	6.19831e-05 	0.374614
