1 	0.0009965 	0 	-0.15663
1.00104 	0.00149023 	1.53421e-06 	-0.155829
1.00208 	0.00197943 	3.04797e-06 	-0.15505
1.00317 	0.0036936 	1.55796e-05 	-0.153963
1.00425 	0.00551111 	2.83187e-05 	-0.153006
1.00538 	0.007574 	6.1044e-05 	-0.151667
1.00651 	0.0100924 	9.70662e-05 	-0.150641
1.00769 	0.011641 	0.000143646 	-0.149243
1.00887 	0.0137463 	0.000200297 	-0.14822
1.0101 	0.0150176 	0.000249861 	-0.146893
1.01132 	0.0166654 	0.000315997 	-0.145862
1.01132 	0.0166654 	0.000315997 	-0.145862
1.01259 	0.0178041 	0.000363885 	-0.144504
1.0126 	0.0178041 	0.000363885 	-0.144504
1.01387 	0.0191599 	0.000431804 	-0.143602
1.01387 	0.0191599 	0.000431804 	-0.143602
1.01519 	0.0202424 	0.000479893 	-0.142292
1.0152 	0.0202424 	0.000479893 	-0.142292
1.01652 	0.021382 	0.000541835 	-0.141354
1.01652 	0.021382 	0.000541835 	-0.141354
1.0179 	0.0223718 	0.000588415 	-0.140095
1.01791 	0.0223718 	0.000588415 	-0.140095
1.01929 	0.0233307 	0.000641794 	-0.139036
1.01929 	0.0233307 	0.000641794 	-0.139036
1.02073 	0.0241706 	0.000682609 	-0.137828
1.02073 	0.0241706 	0.000682609 	-0.137828
1.02217 	0.0249387 	0.000724026 	-0.136739
1.02217 	0.0249387 	0.000724026 	-0.136739
1.02367 	0.0255611 	0.00074759 	-0.135569
1.02367 	0.0255611 	0.00074759 	-0.135569
1.02517 	0.0261114 	0.000768731 	-0.134458
1.02517 	0.0261114 	0.000768731 	-0.134458
1.02574 	0.0262446 	0.000770233 	-0.134006
1.02632 	0.0263501 	0.000770512 	-0.13356
1.0273 	0.0263307 	0.000762086 	-0.133876
1.02829 	0.0262942 	0.00075408 	-0.134194
1.02992 	0.0259742 	0.00073739 	-0.134712
1.03155 	0.0256107 	0.000723123 	-0.13522
1.03324 	0.024996 	0.000712557 	-0.13587
1.03493 	0.0243271 	0.000704829 	-0.136497
1.03669 	0.0234635 	0.000699258 	-0.137193
1.03846 	0.0225617 	0.000697595 	-0.137845
1.04029 	0.0215333 	0.000695826 	-0.138554
1.04213 	0.0205168 	0.000700129 	-0.139163
1.04404 	0.0194374 	0.000703137 	-0.139937
1.04596 	0.0184186 	0.000712513 	-0.140612
1.04795 	0.0173994 	0.000721528 	-0.14142
1.04994 	0.0164538 	0.000736052 	-0.14213
1.05201 	0.0155697 	0.000751442 	-0.142916
1.05409 	0.0147407 	0.000770139 	-0.143615
1.05482 	0.0144892 	0.000776596 	-0.143895
1.05556 	0.0142536 	0.000783905 	-0.144147
1.05698 	0.013805 	0.000800733 	-0.144153
1.05841 	0.0133899 	0.000817822 	-0.144188
1.06065 	0.0128499 	0.000844141 	-0.144278
1.0629 	0.0123938 	0.000870749 	-0.144439
1.06524 	0.0119847 	0.000897226 	-0.144587
1.06759 	0.0117037 	0.000923142 	-0.14484
1.07002 	0.0114125 	0.000949819 	-0.145089
1.07246 	0.0112821 	0.000974046 	-0.145363
1.075 	0.0111212 	0.00100012 	-0.14572
1.07754 	0.0110813 	0.00102317 	-0.146106
1.08018 	0.0110327 	0.00104768 	-0.146523
1.08283 	0.0110515 	0.00106969 	-0.146932
1.08553 	0.0110846 	0.00109131 	-0.147367
1.08824 	0.0111451 	0.00111155 	-0.147763
1.08828 	0.011147 	0.00111191 	-0.147774
1.08833 	0.0111494 	0.00111226 	-0.147784
1.0912 	0.0112963 	0.00113232 	-0.148495
1.09407 	0.011465 	0.00115117 	-0.149151
1.09705 	0.0116335 	0.00117034 	-0.149853
1.10004 	0.0118365 	0.00118714 	-0.150451
1.10314 	0.0120161 	0.00120585 	-0.151199
1.10625 	0.0122341 	0.00122101 	-0.151734
1.10625 	0.0122341 	0.00122101 	-0.151734
1.10949 	0.0124179 	0.00123842 	-0.152478
1.10949 	0.0124179 	0.00123842 	-0.152478
1.11273 	0.0126256 	0.00125242 	-0.152974
1.11273 	0.0126256 	0.00125242 	-0.152974
1.1161 	0.0127892 	0.00126658 	-0.153626
1.11947 	0.0129578 	0.00127841 	-0.154121
1.12224 	0.0130413 	0.00128563 	-0.154562
1.125 	0.0131188 	0.00129147 	-0.154923
1.12575 	0.0131579 	0.0012944 	-0.155053
1.12649 	0.0131969 	0.00129715 	-0.155169
1.13014 	0.0133212 	0.00130798 	-0.155785
1.13379 	0.0134276 	0.00131656 	-0.156301
1.1376 	0.0135159 	0.00132664 	-0.156923
1.14141 	0.0135347 	0.00133008 	-0.157353
1.14537 	0.0135984 	0.00133974 	-0.157926
1.14933 	0.0135286 	0.00133874 	-0.158208
1.15345 	0.0135162 	0.00134391 	-0.158677
1.15758 	0.0133966 	0.00134262 	-0.15893
1.16188 	0.0132902 	0.00134401 	-0.159251
1.16618 	0.0131201 	0.00134267 	-0.159452
1.16643 	0.0131122 	0.00134277 	-0.159467
1.16667 	0.0131005 	0.00134274 	-0.159475
1.1709 	0.0130384 	0.0013495 	-0.159853
1.17513 	0.0128996 	0.00135177 	-0.160128
1.17979 	0.0128075 	0.00136021 	-0.160513
1.18445 	0.0125323 	0.00135921 	-0.160651
1.1893 	0.0124271 	0.00136866 	-0.161009
1.19415 	0.0120234 	0.00136646 	-0.16095
1.1992 	0.0118193 	0.00137374 	-0.161135
1.20426 	0.0114176 	0.00137634 	-0.161018
1.20928 	0.0111596 	0.00138507 	-0.161003
1.21429 	0.0108159 	0.00139206 	-0.160838
1.21454 	0.0108059 	0.00139258 	-0.160842
1.21478 	0.0107896 	0.00139289 	-0.160839
1.22026 	0.0106102 	0.00141204 	-0.160884
1.22574 	0.0103013 	0.00142745 	-0.160757
1.23144 	0.010159 	0.00145841 	-0.160753
1.23714 	0.00982078 	0.00148576 	-0.160394
1.24309 	0.0096951 	0.00152399 	-0.160321
1.24903 	0.00940125 	0.00156596 	-0.159772
1.25522 	0.00926464 	0.00160833 	-0.159492
1.2614 	0.00906786 	0.0016562 	-0.158913
1.26532 	0.00899849 	0.0016821 	-0.158667
1.26923 	0.00891765 	0.00171013 	-0.158307
1.27176 	0.00887486 	0.00172676 	-0.158185
1.27428 	0.00881741 	0.00174526 	-0.157984
1.28099 	0.00872881 	0.00178527 	-0.157667
1.2877 	0.00861757 	0.0018309 	-0.157068
1.29469 	0.0085356 	0.00186907 	-0.156749
1.30167 	0.0084431 	0.00191438 	-0.155951
1.30894 	0.00835823 	0.00195056 	-0.155507
1.31621 	0.00827586 	0.0019901 	-0.154652
1.32379 	0.00818514 	0.00202255 	-0.15402
1.33136 	0.00809726 	0.00205403 	-0.153183
1.33234 	0.00808451 	0.00205828 	-0.153101
1.33333 	0.00807193 	0.00206218 	-0.152998
1.33333 	0.00807193 	0.00206218 	-0.152998
1.34023 	0.00798188 	0.00209145 	-0.152475
1.34023 	0.00798188 	0.00209145 	-0.152475
1.34713 	0.00789437 	0.00211795 	-0.151781
1.34713 	0.00789437 	0.00211795 	-0.151781
1.35535 	0.0077812 	0.00216136 	-0.151171
1.35535 	0.0077812 	0.00216136 	-0.151171
1.36356 	0.00766915 	0.00219598 	-0.150215
1.36356 	0.00766915 	0.00219598 	-0.150215
1.37211 	0.00755099 	0.00225228 	-0.149554
1.37211 	0.00755099 	0.00225228 	-0.149554
1.38066 	0.00742776 	0.00230071 	-0.148452
1.38066 	0.00742776 	0.00230071 	-0.148452
1.38957 	0.00730689 	0.00236818 	-0.147604
1.38957 	0.00730689 	0.00236818 	-0.147604
1.39847 	0.00718034 	0.00243606 	-0.1465
1.39847 	0.00718034 	0.00243606 	-0.1465
1.40378 	0.00711258 	0.00248043 	-0.145954
1.40378 	0.00711258 	0.00248043 	-0.145954
1.40909 	0.00704245 	0.00252619 	-0.14532
1.40909 	0.00704245 	0.00252619 	-0.14532
1.41306 	0.00699114 	0.00255927 	-0.144921
1.41702 	0.00693805 	0.00259281 	-0.14445
1.42667 	0.00682616 	0.0026741 	-0.143505
1.43633 	0.00670843 	0.0027583 	-0.142329
1.44638 	0.00660551 	0.00284359 	-0.141368
1.45644 	0.00649416 	0.00293471 	-0.140036
1.45644 	0.00649416 	0.00293471 	-0.140036
1.46691 	0.00639774 	0.0030286 	-0.13895
1.47738 	0.00629582 	0.00312616 	-0.137582
1.48829 	0.00620522 	0.00322841 	-0.136347
1.49919 	0.0061124 	0.00333137 	-0.134979
1.4996 	0.00610939 	0.00333534 	-0.134934
1.50001 	0.00610632 	0.00333933 	-0.134885
1.51095 	0.00602509 	0.00344414 	-0.13367
1.52189 	0.00594215 	0.00354928 	-0.132328
1.53371 	0.00586439 	0.00366621 	-0.131057
1.54554 	0.00578379 	0.0037832 	-0.129544
1.55785 	0.00571145 	0.0039076 	-0.128233
1.57016 	0.00563607 	0.00403269 	-0.126638
1.58298 	0.00556783 	0.00416444 	-0.125213
1.5958 	0.00549797 	0.00429706 	-0.123626
1.60346 	0.00546128 	0.00437636 	-0.122775
1.61112 	0.00542406 	0.00445618 	-0.121869
1.61681 	0.00539651 	0.00451398 	-0.121225
1.6225 	0.0053686 	0.00457188 	-0.120538
1.6364 	0.00530864 	0.00471213 	-0.119028
1.6503 	0.00524757 	0.0048531 	-0.117386
1.66477 	0.00519202 	0.00499648 	-0.115877
1.67925 	0.00513476 	0.00514188 	-0.114163
1.69432 	0.00508299 	0.00528755 	-0.112606
1.7094 	0.00502984 	0.00543598 	-0.110884
1.72509 	0.00498139 	0.00558407 	-0.109265
1.74079 	0.00493228 	0.0057344 	-0.107563
1.7454 	0.00491958 	0.0057764 	-0.107106
1.75001 	0.00490675 	0.00581896 	-0.106632
1.76175 	0.00487418 	0.00592274 	-0.105445
1.77348 	0.0048413 	0.0060269 	-0.104214
1.79049 	0.00479916 	0.00616839 	-0.102576
1.80751 	0.00475638 	0.00631016 	-0.100845
1.80751 	0.00475638 	0.00631016 	-0.100845
1.82523 	0.00471708 	0.00644657 	-0.0992189
1.82523 	0.00471708 	0.00644657 	-0.0992189
1.84296 	0.0046769 	0.00658627 	-0.097461
1.84296 	0.0046769 	0.00658627 	-0.097461
1.86141 	0.00463987 	0.0067229 	-0.0958132
1.86141 	0.00463987 	0.0067229 	-0.0958132
1.87987 	0.00460224 	0.00686498 	-0.0940767
1.87987 	0.00460224 	0.00686498 	-0.0940767
1.89908 	0.00456722 	0.00700899 	-0.0924127
1.9183 	0.00453192 	0.00715648 	-0.0907083
1.92343 	0.00452346 	0.00719334 	-0.090294
1.92856 	0.00451494 	0.00723138 	-0.0898731
1.94344 	0.00449027 	0.00733485 	-0.088642
1.95832 	0.00446546 	0.00744299 	-0.0873922
1.97916 	0.00443062 	0.00770562 	-0.0855085
2 	0.00439547 	0.00797187 	-0.0835909
