0 	-2.51082e-14 	0 	-2.24025e-15 	0 	0 	-1.5422e-16
0.00128482 	1.13797e-10 	-5.30119e-12 	-1.19259e-10 	2.64512e-11 	-6.05625e-12 	9.6702e-10
0.00256965 	1.1372e-10 	-5.29778e-12 	-1.19183e-10 	2.64342e-11 	-6.05236e-12 	9.66398e-10
0.00387803 	1.34202e-10 	-6.45184e-12 	-1.06835e-10 	2.45489e-11 	-1.48541e-11 	1.04498e-09
0.00518642 	1.34114e-10 	-6.44762e-12 	-1.06765e-10 	2.45328e-11 	-1.48443e-11 	1.0443e-09
0.00651881 	1.43668e-10 	-6.7421e-12 	-9.69477e-11 	2.0877e-12 	-1.80452e-12 	1.1131e-09
0.00785119 	1.43571e-10 	-6.7376e-12 	-9.68829e-11 	2.0863e-12 	-1.80332e-12 	1.11236e-09
0.00920802 	1.44195e-10 	-9.70153e-12 	-9.13112e-11 	1.39763e-12 	3.36627e-12 	1.16697e-09
0.0105648 	1.44096e-10 	-9.69491e-12 	-9.12489e-11 	1.39668e-12 	3.36398e-12 	1.16617e-09
0.0119465 	1.40057e-10 	-1.27119e-11 	-8.99325e-11 	2.27713e-12 	3.34873e-12 	1.2051e-09
0.0133283 	1.3996e-10 	-1.27031e-11 	-8.987e-11 	2.27555e-12 	3.3464e-12 	1.20426e-09
0.0147353 	1.34243e-10 	-1.53274e-11 	-9.06011e-11 	3.2919e-12 	4.28055e-12 	1.23022e-09
0.0161424 	1.34148e-10 	-1.53165e-11 	-9.05369e-11 	3.28956e-12 	4.27752e-12 	1.22935e-09
0.0175752 	1.28484e-10 	-1.7723e-11 	-9.1852e-11 	4.35665e-12 	6.51717e-12 	1.24527e-09
0.0190081 	1.28391e-10 	-1.77102e-11 	-9.17856e-11 	4.3535e-12 	6.51246e-12 	1.24437e-09
0.0204672 	1.23614e-10 	-2.01982e-11 	-9.29457e-11 	5.61501e-12 	9.42903e-12 	1.25075e-09
0.0219263 	1.23522e-10 	-2.01833e-11 	-9.28772e-11 	5.61087e-12 	9.42208e-12 	1.24983e-09
0.0234122 	1.19685e-10 	-2.27332e-11 	-9.38071e-11 	7.04371e-12 	1.29144e-11 	1.24619e-09
0.0248981 	1.19595e-10 	-2.27161e-11 	-9.37366e-11 	7.03841e-12 	1.29047e-11 	1.24526e-09
0.0264113 	1.16303e-10 	-2.50996e-11 	-9.40039e-11 	8.47854e-12 	1.67841e-11 	1.23888e-09
0.0279244 	1.16214e-10 	-2.50804e-11 	-9.39318e-11 	8.47204e-12 	1.67713e-11 	1.23793e-09
0.0294653 	1.13184e-10 	-2.75252e-11 	-9.40877e-11 	1.04845e-11 	1.95345e-11 	1.23672e-09
0.0310063 	1.13096e-10 	-2.75037e-11 	-9.40142e-11 	1.04763e-11 	1.95192e-11 	1.23575e-09
0.0325754 	1.11422e-10 	-2.99682e-11 	-9.41376e-11 	1.28248e-11 	2.20167e-11 	1.2382e-09
0.0341446 	1.11333e-10 	-2.99443e-11 	-9.40625e-11 	1.28145e-11 	2.19991e-11 	1.23722e-09
0.0357425 	1.09823e-10 	-3.20869e-11 	-9.30618e-11 	1.51084e-11 	2.49158e-11 	1.24004e-09
0.0373405 	1.09734e-10 	-3.20608e-11 	-9.29861e-11 	1.50961e-11 	2.48956e-11 	1.23903e-09
0.0389677 	1.0683e-10 	-3.38507e-11 	-8.99025e-11 	1.76908e-11 	2.7563e-11 	1.24011e-09
0.040595 	1.06741e-10 	-3.38226e-11 	-8.98279e-11 	1.76761e-11 	2.75401e-11 	1.23908e-09
0.0422521 	1.06215e-10 	-3.57634e-11 	-8.01724e-11 	2.0471e-11 	3.05953e-11 	1.23765e-09
0.0439092 	1.06125e-10 	-3.57331e-11 	-8.01046e-11 	2.04537e-11 	3.05694e-11 	1.23661e-09
0.0455967 	1.0812e-10 	-3.78818e-11 	-6.83137e-11 	2.34157e-11 	3.36721e-11 	1.23337e-09
0.0472842 	1.08027e-10 	-3.78491e-11 	-6.82547e-11 	2.33955e-11 	3.3643e-11 	1.2323e-09
0.0490026 	1.07282e-10 	-3.9775e-11 	-6.37359e-11 	2.65291e-11 	3.67616e-11 	1.22812e-09
0.0507211 	1.07188e-10 	-3.97399e-11 	-6.36798e-11 	2.65057e-11 	3.67292e-11 	1.22704e-09
0.052471 	1.01031e-10 	-4.13036e-11 	-6.97051e-11 	2.97573e-11 	4.03575e-11 	1.22243e-09
0.054221 	1.0094e-10 	-4.12665e-11 	-6.96424e-11 	2.97306e-11 	4.03212e-11 	1.22133e-09
0.056003 	9.42392e-11 	-4.25626e-11 	-7.97479e-11 	3.30476e-11 	4.45249e-11 	1.21653e-09
0.0577851 	9.41528e-11 	-4.25236e-11 	-7.96748e-11 	3.30173e-11 	4.4484e-11 	1.21541e-09
0.0595998 	9.03906e-11 	-4.36212e-11 	-8.5793e-11 	3.64182e-11 	4.85464e-11 	1.21059e-09
0.0614146 	9.03061e-11 	-4.35804e-11 	-8.57128e-11 	3.63841e-11 	4.8501e-11 	1.20946e-09
0.0632626 	8.75349e-11 	-4.44328e-11 	-8.90083e-11 	3.99659e-11 	5.21421e-11 	1.20465e-09
0.0651106 	8.74513e-11 	-4.43904e-11 	-8.89234e-11 	3.99278e-11 	5.20924e-11 	1.2035e-09
0.0669925 	8.41664e-11 	-4.49885e-11 	-9.0693e-11 	4.37374e-11 	5.55006e-11 	1.199e-09
0.0688745 	8.40844e-11 	-4.49447e-11 	-9.06047e-11 	4.36949e-11 	5.54466e-11 	1.19783e-09
0.0707909 	7.98394e-11 	-4.52875e-11 	-9.13181e-11 	4.76604e-11 	5.8753e-11 	1.19382e-09
0.0727073 	7.976e-11 	-4.52425e-11 	-9.12274e-11 	4.76131e-11 	5.86947e-11 	1.19263e-09
0.0746589 	7.54295e-11 	-4.56657e-11 	-9.10988e-11 	5.20683e-11 	6.26268e-11 	1.18911e-09
0.0766105 	7.5353e-11 	-4.56194e-11 	-9.10064e-11 	5.20155e-11 	6.25633e-11 	1.1879e-09
0.0785979 	6.8467e-11 	-4.67266e-11 	-8.85145e-11 	6.00843e-11 	7.02906e-11 	1.1851e-09
0.0805853 	6.83962e-11 	-4.66783e-11 	-8.8423e-11 	6.00222e-11 	7.02179e-11 	1.18387e-09
0.0826091 	4.9152e-11 	-3.08741e-11 	-5.11474e-11 	5.34499e-11 	3.45965e-11 	1.18751e-09
0.0846329 	4.91001e-11 	-3.08416e-11 	-5.10934e-11 	5.33935e-11 	3.456e-11 	1.18626e-09
0.0866939 	4.98468e-11 	-9.27371e-12 	-5.08201e-11 	4.12085e-11 	-5.16008e-11 	1.18389e-09
0.0887548 	4.97931e-11 	-9.26372e-12 	-5.07654e-11 	4.11641e-11 	-5.15452e-11 	1.18261e-09
0.0908536 	6.95167e-11 	-7.63857e-12 	-8.7281e-11 	4.13807e-11 	-9.1999e-11 	1.17398e-09
0.0929523 	6.94403e-11 	-7.63017e-12 	-8.71851e-11 	4.13353e-11 	-9.18979e-11 	1.17268e-09
0.0950896 	7.58947e-11 	-1.299e-11 	-8.83683e-11 	4.16197e-11 	-8.40915e-11 	1.16996e-09
0.0972268 	7.58095e-11 	-1.29755e-11 	-8.82692e-11 	4.1573e-11 	-8.39972e-11 	1.16865e-09
0.0994033 	7.95904e-11 	-1.62232e-11 	-8.65787e-11 	4.11923e-11 	-7.79004e-11 	1.16603e-09
0.10158 	7.94992e-11 	-1.62046e-11 	-8.64796e-11 	4.11451e-11 	-7.78112e-11 	1.1647e-09
0.103796 	8.27238e-11 	-1.82778e-11 	-8.44124e-11 	4.0063e-11 	-7.15954e-11 	1.16178e-09
0.106012 	8.2627e-11 	-1.82565e-11 	-8.43137e-11 	4.00161e-11 	-7.15117e-11 	1.16042e-09
0.108269 	8.47357e-11 	-1.96545e-11 	-8.21129e-11 	3.85848e-11 	-6.44711e-11 	1.15723e-09
0.110526 	8.46346e-11 	-1.96311e-11 	-8.2015e-11 	3.85387e-11 	-6.43942e-11 	1.15584e-09
0.112825 	8.50541e-11 	-2.05037e-11 	-8.00503e-11 	3.69424e-11 	-5.65266e-11 	1.15235e-09
0.115123 	8.49505e-11 	-2.04787e-11 	-7.99529e-11 	3.68974e-11 	-5.64578e-11 	1.15095e-09
0.117464 	8.32816e-11 	-2.09247e-11 	-7.83387e-11 	3.52099e-11 	-4.79019e-11 	1.14706e-09
0.119804 	8.3178e-11 	-2.08987e-11 	-7.82413e-11 	3.51662e-11 	-4.78424e-11 	1.14564e-09
0.122188 	7.9796e-11 	-2.08986e-11 	-7.72723e-11 	3.36895e-11 	-3.90813e-11 	1.14142e-09
0.124571 	7.96947e-11 	-2.08721e-11 	-7.71742e-11 	3.36468e-11 	-3.90317e-11 	1.13997e-09
0.126999 	7.6137e-11 	-2.02165e-11 	-7.74251e-11 	3.26939e-11 	-3.04698e-11 	1.13589e-09
0.129426 	7.60383e-11 	-2.01903e-11 	-7.73248e-11 	3.26515e-11 	-3.04303e-11 	1.13442e-09
0.131897 	7.24154e-11 	-1.85852e-11 	-7.95533e-11 	3.23696e-11 	-2.20642e-11 	1.13121e-09
0.134369 	7.23196e-11 	-1.85606e-11 	-7.94481e-11 	3.23267e-11 	-2.2035e-11 	1.12971e-09
0.136886 	6.797e-11 	-1.63046e-11 	-8.41825e-11 	3.29159e-11 	-1.39454e-11 	1.12785e-09
0.139403 	6.78782e-11 	-1.62826e-11 	-8.40687e-11 	3.28715e-11 	-1.39266e-11 	1.12632e-09
0.141967 	6.27947e-11 	-1.41435e-11 	-9.2182e-11 	3.42297e-11 	-6.25668e-12 	1.12597e-09
0.14453 	6.27081e-11 	-1.4124e-11 	-9.20548e-11 	3.41825e-11 	-6.24805e-12 	1.12442e-09
0.14714 	5.78435e-11 	-1.3502e-11 	-1.00363e-10 	3.58731e-11 	9.29554e-13 	1.12548e-09
0.14975 	5.7762e-11 	-1.34829e-11 	-1.00222e-10 	3.58225e-11 	9.28244e-13 	1.12389e-09
0.152408 	5.41465e-11 	-1.47999e-11 	-1.05734e-10 	3.74999e-11 	7.61785e-12 	1.126e-09
0.155066 	5.40686e-11 	-1.47786e-11 	-1.05582e-10 	3.7446e-11 	7.60689e-12 	1.12438e-09
0.157773 	5.1593e-11 	-1.71623e-11 	-1.09059e-10 	3.87891e-11 	1.36092e-11 	1.12699e-09
0.16048 	5.15172e-11 	-1.71371e-11 	-1.08899e-10 	3.87321e-11 	1.35892e-11 	1.12534e-09
0.163237 	5.01223e-11 	-1.96441e-11 	-1.10623e-10 	3.99974e-11 	1.92293e-11 	1.12802e-09
0.165993 	5.0047e-11 	-1.96146e-11 	-1.10457e-10 	3.99374e-11 	1.92004e-11 	1.12632e-09
0.1688 	4.92074e-11 	-2.16166e-11 	-1.11194e-10 	4.15013e-11 	2.4897e-11 	1.12882e-09
0.171607 	4.91319e-11 	-2.15834e-11 	-1.11024e-10 	4.14377e-11 	2.48588e-11 	1.12709e-09
0.174466 	4.8536e-11 	-2.33773e-11 	-1.10973e-10 	4.32258e-11 	3.05284e-11 	1.1293e-09
0.177324 	4.84599e-11 	-2.33407e-11 	-1.10799e-10 	4.31581e-11 	3.04806e-11 	1.12753e-09
0.180235 	4.80093e-11 	-2.54328e-11 	-1.10434e-10 	4.52212e-11 	3.61761e-11 	1.12945e-09
0.183146 	4.79325e-11 	-2.53921e-11 	-1.10257e-10 	4.51488e-11 	3.61182e-11 	1.12764e-09
0.186111 	4.75099e-11 	-2.74113e-11 	-1.09865e-10 	4.74966e-11 	4.18458e-11 	1.12928e-09
0.189075 	4.74322e-11 	-2.73666e-11 	-1.09685e-10 	4.74189e-11 	4.17774e-11 	1.12743e-09
0.192094 	4.70001e-11 	-2.89709e-11 	-1.09227e-10 	5.00326e-11 	4.75014e-11 	1.12881e-09
0.195113 	4.69216e-11 	-2.89225e-11 	-1.09045e-10 	4.9949e-11 	4.74221e-11 	1.12692e-09
0.198187 	4.65229e-11 	-3.04618e-11 	-1.08527e-10 	5.2802e-11 	5.31061e-11 	1.12807e-09
0.201261 	4.64434e-11 	-3.04098e-11 	-1.08341e-10 	5.27119e-11 	5.30155e-11 	1.12615e-09
0.204391 	4.60589e-11 	-3.19178e-11 	-1.07603e-10 	5.58194e-11 	5.86599e-11 	1.1271e-09
0.207522 	4.59785e-11 	-3.18622e-11 	-1.07415e-10 	5.57221e-11 	5.85576e-11 	1.12514e-09
0.21071 	4.56613e-11 	-3.36269e-11 	-1.06419e-10 	5.90827e-11 	6.41384e-11 	1.12592e-09
0.213898 	4.55799e-11 	-3.3567e-11 	-1.06229e-10 	5.89774e-11 	6.40241e-11 	1.12392e-09
0.217144 	4.52826e-11 	-3.54705e-11 	-1.05293e-10 	6.25857e-11 	6.95088e-11 	1.12454e-09
0.22039 	4.52001e-11 	-3.5406e-11 	-1.05101e-10 	6.24718e-11 	6.93822e-11 	1.12249e-09
0.220531 	4.49786e-11 	-3.73523e-11 	-1.04104e-10 	6.6499e-11 	7.49109e-11 	1.12497e-09
0.220671 	4.49751e-11 	-3.73494e-11 	-1.04096e-10 	6.64938e-11 	7.4905e-11 	1.12488e-09
0.223836 	4.4895e-11 	-3.72829e-11 	-1.03911e-10 	6.63755e-11 	7.47717e-11 	1.12288e-09
0.227002 	4.48149e-11 	-3.72165e-11 	-1.03726e-10 	6.62572e-11 	7.46384e-11 	1.12088e-09
0.230267 	4.46221e-11 	-3.96776e-11 	-1.02216e-10 	7.04939e-11 	7.99342e-11 	1.12128e-09
0.233531 	4.45397e-11 	-3.96044e-11 	-1.02027e-10 	7.03638e-11 	7.97868e-11 	1.11921e-09
0.233633 	4.45371e-11 	-3.96021e-11 	-1.02021e-10 	7.03598e-11 	7.97822e-11 	1.11914e-09
0.233735 	4.45345e-11 	-3.95998e-11 	-1.02015e-10 	7.03557e-11 	7.97776e-11 	1.11908e-09
0.237164 	4.41633e-11 	-4.21703e-11 	-1.00471e-10 	7.491e-11 	8.49304e-11 	1.11926e-09
0.240592 	4.40773e-11 	-4.20883e-11 	-1.00276e-10 	7.47644e-11 	8.47652e-11 	1.11709e-09
0.244083 	4.32756e-11 	-4.4089e-11 	-9.84349e-11 	7.96516e-11 	8.97656e-11 	1.1171e-09
0.247574 	4.31895e-11 	-4.40013e-11 	-9.82392e-11 	7.94932e-11 	8.95871e-11 	1.11488e-09
0.251129 	4.22589e-11 	-4.59754e-11 	-9.63939e-11 	8.46919e-11 	9.44264e-11 	1.11472e-09
0.254685 	4.2173e-11 	-4.58819e-11 	-9.6198e-11 	8.45198e-11 	9.42344e-11 	1.11245e-09
0.258305 	4.12555e-11 	-4.78077e-11 	-9.44326e-11 	9.00206e-11 	9.89043e-11 	1.11208e-09
0.261925 	4.11696e-11 	-4.77083e-11 	-9.42363e-11 	8.98335e-11 	9.86987e-11 	1.10977e-09
0.265612 	4.02583e-11 	-4.93808e-11 	-9.23094e-11 	9.57032e-11 	1.03237e-10 	1.10916e-09
0.269299 	4.01727e-11 	-4.92759e-11 	-9.21132e-11 	9.54997e-11 	1.03018e-10 	1.1068e-09
0.273053 	3.94402e-11 	-5.05569e-11 	-9.00998e-11 	1.00388e-10 	1.07251e-10 	1.10591e-09
0.276808 	3.93544e-11 	-5.0447e-11 	-8.99039e-11 	1.0017e-10 	1.07018e-10 	1.10351e-09
0.280631 	3.88852e-11 	-5.26647e-11 	-8.76959e-11 	1.08475e-10 	1.12916e-10 	1.10238e-09
0.284454 	3.87987e-11 	-5.25476e-11 	-8.75009e-11 	1.08234e-10 	1.12665e-10 	1.09993e-09
0.288348 	3.38631e-11 	-4.83601e-11 	-7.81422e-11 	1.13357e-10 	1.05863e-10 	1.09964e-09
0.292241 	3.3786e-11 	-4.82501e-11 	-7.79644e-11 	1.13099e-10 	1.05622e-10 	1.09714e-09
0.296206 	3.29448e-11 	-4.56478e-11 	-7.63582e-11 	1.10125e-10 	8.25271e-11 	1.09543e-09
0.300171 	3.28681e-11 	-4.55415e-11 	-7.61805e-11 	1.09868e-10 	8.2335e-11 	1.09288e-09
0.304208 	3.62655e-11 	-5.05034e-11 	-8.30156e-11 	1.14254e-10 	7.32032e-11 	1.08982e-09
0.308246 	3.61791e-11 	-5.03832e-11 	-8.28179e-11 	1.13982e-10 	7.30289e-11 	1.08722e-09
0.312358 	3.52999e-11 	-5.25779e-11 	-8.32386e-11 	1.22702e-10 	7.8547e-11 	1.08489e-09
0.316469 	3.52138e-11 	-5.24498e-11 	-8.30358e-11 	1.22403e-10 	7.83557e-11 	1.08224e-09
0.320656 	3.45328e-11 	-5.36436e-11 	-8.3137e-11 	1.28508e-10 	8.29899e-11 	1.07946e-09
0.324843 	3.44466e-11 	-5.35098e-11 	-8.29297e-11 	1.28188e-10 	8.2783e-11 	1.07677e-09
0.329107 	3.38797e-11 	-5.47947e-11 	-8.28465e-11 	1.35107e-10 	8.762e-11 	1.0735e-09
0.333371 	3.37932e-11 	-5.46549e-11 	-8.26351e-11 	1.34762e-10 	8.73964e-11 	1.07076e-09
0.337713 	3.32349e-11 	-5.5878e-11 	-8.24131e-11 	1.41829e-10 	9.24699e-11 	1.06699e-09
0.342055 	3.3148e-11 	-5.5732e-11 	-8.21978e-11 	1.41458e-10 	9.22284e-11 	1.06421e-09
0.346476 	3.25738e-11 	-5.69158e-11 	-8.18483e-11 	1.48644e-10 	9.75463e-11 	1.05992e-09
0.350898 	3.24866e-11 	-5.67636e-11 	-8.16294e-11 	1.48246e-10 	9.72855e-11 	1.05709e-09
0.355401 	3.19095e-11 	-5.79654e-11 	-8.11318e-11 	1.55599e-10 	1.02868e-10 	1.05229e-09
0.359903 	3.1822e-11 	-5.78067e-11 	-8.09097e-11 	1.55173e-10 	1.02586e-10 	1.04941e-09
0.364489 	3.12268e-11 	-5.89918e-11 	-8.02536e-11 	1.62739e-10 	1.08455e-10 	1.0441e-09
0.369074 	3.11392e-11 	-5.88264e-11 	-8.00286e-11 	1.62283e-10 	1.08151e-10 	1.04117e-09
0.373744 	3.05173e-11 	-5.99597e-11 	-7.9236e-11 	1.70046e-10 	1.14288e-10 	1.03539e-09
0.378413 	3.04296e-11 	-5.97876e-11 	-7.90085e-11 	1.69558e-10 	1.13959e-10 	1.03242e-09
0.383168 	2.97812e-11 	-6.08713e-11 	-7.80898e-11 	1.77526e-10 	1.20338e-10 	1.02619e-09
0.387923 	2.96935e-11 	-6.06923e-11 	-7.78602e-11 	1.77004e-10 	1.19984e-10 	1.02317e-09
0.392765 	2.90104e-11 	-6.17112e-11 	-7.67956e-11 	1.85208e-10 	1.26594e-10 	1.01656e-09
0.397608 	2.89229e-11 	-6.15253e-11 	-7.65643e-11 	1.8465e-10 	1.26213e-10 	1.01349e-09
0.402539 	2.82118e-11 	-6.24837e-11 	-7.53505e-11 	1.93118e-10 	1.33027e-10 	1.00654e-09
0.40747 	2.81246e-11 	-6.22909e-11 	-7.51179e-11 	1.92522e-10 	1.32616e-10 	1.00343e-09
0.412491 	2.74367e-11 	-6.33353e-11 	-7.37921e-11 	2.01269e-10 	1.39596e-10 	9.96193e-10
0.417513 	2.73498e-11 	-6.31349e-11 	-7.35587e-11 	2.00633e-10 	1.39154e-10 	9.93042e-10
0.422626 	2.67243e-11 	-6.4358e-11 	-7.20479e-11 	2.09591e-10 	1.46296e-10 	9.8558e-10
0.42774 	2.66375e-11 	-6.41494e-11 	-7.18144e-11 	2.08911e-10 	1.45822e-10 	9.82384e-10
0.432948 	2.59406e-11 	-6.52243e-11 	-6.99403e-11 	2.18129e-10 	1.53122e-10 	9.7478e-10
0.438155 	2.58543e-11 	-6.50075e-11 	-6.97078e-11 	2.17405e-10 	1.52613e-10 	9.7154e-10
0.443458 	2.49463e-11 	-6.55028e-11 	-6.79303e-11 	2.26945e-10 	1.60014e-10 	9.63853e-10
0.448761 	2.48612e-11 	-6.52796e-11 	-6.76989e-11 	2.26172e-10 	1.59469e-10 	9.6057e-10
0.454161 	2.39126e-11 	-6.55738e-11 	-6.60113e-11 	2.3597e-10 	1.6695e-10 	9.52873e-10
0.459561 	2.3829e-11 	-6.53447e-11 	-6.57807e-11 	2.35146e-10 	1.66367e-10 	9.49544e-10
0.46506 	2.29653e-11 	-6.58168e-11 	-6.37809e-11 	2.45226e-10 	1.739e-10 	9.41913e-10
0.47056 	2.28829e-11 	-6.5581e-11 	-6.35524e-11 	2.44347e-10 	1.73277e-10 	9.38539e-10
0.47616 	2.20437e-11 	-6.60773e-11 	-6.1339e-11 	2.54642e-10 	1.80784e-10 	9.3104e-10
0.48176 	2.19626e-11 	-6.58345e-11 	-6.11136e-11 	2.53706e-10 	1.80119e-10 	9.27618e-10
0.487463 	2.11104e-11 	-6.62304e-11 	-5.87295e-11 	2.64171e-10 	1.87579e-10 	9.20336e-10
0.493165 	2.10307e-11 	-6.59807e-11 	-5.85081e-11 	2.63175e-10 	1.86872e-10 	9.16866e-10
0.498973 	2.01314e-11 	-6.61339e-11 	-5.60317e-11 	2.73837e-10 	1.94277e-10 	9.09886e-10
0.50478 	2.00534e-11 	-6.5878e-11 	-5.58149e-11 	2.72778e-10 	1.93526e-10 	9.06365e-10
0.510694 	1.91284e-11 	-6.58253e-11 	-5.32247e-11 	2.83543e-10 	2.0082e-10 	8.99778e-10
0.516608 	1.90523e-11 	-6.55639e-11 	-5.30134e-11 	2.82417e-10 	2.00023e-10 	8.96205e-10
0.52263 	1.81219e-11 	-6.5335e-11 	-5.0282e-11 	2.93124e-10 	2.07119e-10 	8.9009e-10
0.528653 	1.80479e-11 	-6.50686e-11 	-5.0077e-11 	2.91929e-10 	2.06275e-10 	8.86461e-10
0.534786 	1.71074e-11 	-6.46114e-11 	-4.71909e-11 	3.02454e-10 	2.13098e-10 	8.80888e-10
0.540918 	1.70356e-11 	-6.43409e-11 	-4.69934e-11 	3.01188e-10 	2.12206e-10 	8.77201e-10
0.547164 	1.60885e-11 	-6.36422e-11 	-4.39401e-11 	3.11478e-10 	2.18692e-10 	8.72206e-10
0.553409 	1.60192e-11 	-6.33687e-11 	-4.37513e-11 	3.10139e-10 	2.17752e-10 	8.68457e-10
0.559769 	1.50715e-11 	-6.24061e-11 	-4.05082e-11 	3.20051e-10 	2.23812e-10 	8.64015e-10
0.566129 	1.50048e-11 	-6.21305e-11 	-4.03293e-11 	3.18638e-10 	2.22823e-10 	8.602e-10
0.572605 	1.40524e-11 	-6.08503e-11 	-3.68707e-11 	3.28005e-10 	2.28384e-10 	8.56231e-10
0.579082 	1.39885e-11 	-6.05742e-11 	-3.67034e-11 	3.26517e-10 	2.27347e-10 	8.52346e-10
0.585677 	1.30514e-11 	-5.90192e-11 	-3.29982e-11 	3.35366e-10 	2.32487e-10 	8.48809e-10
0.592272 	1.29904e-11 	-5.87439e-11 	-3.28444e-11 	3.33802e-10 	2.31403e-10 	8.4485e-10
0.598989 	1.20582e-11 	-5.6816e-11 	-2.89277e-11 	3.41997e-10 	2.36507e-10 	8.42091e-10
0.605705 	1.20003e-11 	-5.65437e-11 	-2.8789e-11 	3.40357e-10 	2.35373e-10 	8.38054e-10
0.612544 	1.10758e-11 	-5.41862e-11 	-2.46365e-11 	3.47472e-10 	2.40724e-10 	8.36985e-10
0.619384 	1.10211e-11 	-5.39191e-11 	-2.45151e-11 	3.45759e-10 	2.39537e-10 	8.32859e-10
0.626349 	1.0114e-11 	-5.10185e-11 	-2.02202e-11 	3.49505e-10 	2.45854e-10 	8.37577e-10
0.633314 	1.00626e-11 	-5.07598e-11 	-2.01177e-11 	3.47733e-10 	2.44608e-10 	8.3333e-10
0.640406 	9.14615e-12 	-4.7047e-11 	-1.59333e-11 	3.4901e-10 	2.54961e-10 	8.54524e-10
0.647499 	9.09827e-12 	-4.68016e-11 	-1.58502e-11 	3.4719e-10 	2.53631e-10 	8.50066e-10
0.654722 	8.51967e-12 	-4.32997e-11 	-1.0322e-11 	3.78005e-10 	2.67608e-10 	8.52374e-10
0.661944 	8.47376e-12 	-4.30672e-11 	-1.02666e-11 	3.75975e-10 	2.66171e-10 	8.47798e-10
0.669299 	1.81839e-11 	-1.52362e-11 	9.39444e-12 	3.92578e-10 	2.58975e-10 	8.17051e-10
0.676655 	1.80832e-11 	-1.51519e-11 	9.3425e-12 	3.90408e-10 	2.57543e-10 	8.12535e-10
0.684145 	2.73274e-11 	1.06716e-12 	2.75933e-11 	3.72582e-10 	2.20601e-10 	7.6286e-10
0.691635 	2.71717e-11 	1.06109e-12 	2.74362e-11 	3.70461e-10 	2.19345e-10 	7.58518e-10
0.699262 	3.25429e-11 	4.9906e-12 	4.05758e-11 	3.33888e-10 	1.50574e-10 	6.62393e-10
0.70689 	3.23519e-11 	4.96133e-12 	4.03378e-11 	3.31931e-10 	1.49691e-10 	6.58509e-10
0.714657 	2.40213e-11 	-9.1858e-12 	3.03386e-11 	2.77855e-10 	8.44071e-11 	5.67203e-10
0.722424 	2.3876e-11 	-9.13029e-12 	3.01552e-11 	2.76176e-10 	8.3897e-11 	5.63775e-10
0.730334 	8.65523e-12 	-3.5741e-11 	8.11008e-12 	3.05535e-10 	8.0056e-11 	5.39608e-10
0.738244 	8.6011e-12 	-3.55184e-11 	8.05953e-12 	3.03632e-10 	7.95573e-11 	5.36246e-10
0.746299 	1.35683e-11 	-2.06596e-11 	1.50495e-11 	3.42003e-10 	9.8694e-11 	5.94193e-10
0.754354 	1.34809e-11 	-2.05268e-11 	1.49528e-11 	3.39806e-10 	9.80599e-11 	5.90376e-10
0.762556 	1.97655e-11 	-1.57944e-11 	2.18195e-11 	3.04406e-10 	6.05377e-11 	6.70228e-10
0.770759 	1.96343e-11 	-1.56898e-11 	2.16749e-11 	3.02388e-10 	6.01364e-11 	6.65785e-10
0.779112 	1.31051e-11 	-3.2029e-11 	9.08822e-12 	2.95035e-10 	1.24418e-13 	7.13165e-10
0.787465 	1.30152e-11 	-3.18098e-11 	9.02602e-12 	2.93016e-10 	1.23567e-13 	7.08286e-10
0.795971 	6.59743e-12 	-3.97018e-11 	-5.06912e-12 	3.17335e-10 	-2.42523e-11 	7.33717e-10
0.804478 	6.5506e-12 	-3.94213e-11 	-5.03332e-12 	3.15093e-10 	-2.40809e-11 	7.28533e-10
0.81314 	6.95578e-12 	-4.0671e-11 	-9.80896e-12 	3.34182e-10 	-3.42878e-11 	7.18391e-10
0.821802 	6.90478e-12 	-4.03742e-11 	-9.73739e-12 	3.31743e-10 	-3.40375e-11 	7.13148e-10
0.830623 	7.36468e-12 	-4.06149e-11 	-1.27199e-11 	3.41435e-10 	-4.47544e-11 	6.90819e-10
0.839445 	7.30888e-12 	-4.03085e-11 	-1.2624e-11 	3.3886e-10 	-4.44168e-11 	6.85608e-10
0.848428 	7.75588e-12 	-4.00099e-11 	-1.57979e-11 	3.42263e-10 	-5.03812e-11 	6.72286e-10
0.857411 	7.69513e-12 	-3.96978e-11 	-1.56747e-11 	3.39594e-10 	-4.99882e-11 	6.67042e-10
0.866558 	8.21473e-12 	-3.96014e-11 	-1.89882e-11 	3.44704e-10 	-5.14043e-11 	6.55297e-10
0.875706 	8.14818e-12 	-3.92818e-11 	-1.8835e-11 	3.41922e-10 	-5.09894e-11 	6.50009e-10
0.885021 	8.63002e-12 	-3.89387e-11 	-2.17733e-11 	3.46139e-10 	-5.31704e-11 	6.37912e-10
0.894337 	8.55765e-12 	-3.86133e-11 	-2.15915e-11 	3.43247e-10 	-5.27261e-11 	6.32582e-10
0.903823 	8.79498e-12 	-3.78781e-11 	-2.46545e-11 	3.48386e-10 	-5.35867e-11 	6.21239e-10
0.91331 	8.71859e-12 	-3.75503e-11 	-2.44411e-11 	3.45371e-10 	-5.3123e-11 	6.15862e-10
0.92297 	8.88923e-12 	-3.65594e-11 	-2.74061e-11 	3.50311e-10 	-5.27477e-11 	6.0522e-10
0.93263 	8.80921e-12 	-3.62315e-11 	-2.71603e-11 	3.47169e-10 	-5.22746e-11 	5.99792e-10
0.942468 	9.07289e-12 	-3.53328e-11 	-2.98676e-11 	3.51731e-10 	-5.11821e-11 	5.89717e-10
0.952305 	8.98819e-12 	-3.50041e-11 	-2.95898e-11 	3.48459e-10 	-5.07059e-11 	5.84231e-10
0.962323 	9.28998e-12 	-3.42634e-11 	-3.20305e-11 	3.52895e-10 	-4.89845e-11 	5.74656e-10
0.972341 	9.19998e-12 	-3.39326e-11 	-3.17213e-11 	3.49488e-10 	-4.85116e-11 	5.69109e-10
0.982543 	9.53687e-12 	-3.33789e-11 	-3.38934e-11 	3.53774e-10 	-4.6291e-11 	5.59857e-10
0.992745 	9.44092e-12 	-3.30443e-11 	-3.35536e-11 	3.50227e-10 	-4.58268e-11 	5.54243e-10
1.00313 	9.78269e-12 	-3.26605e-11 	-3.54574e-11 	3.54365e-10 	-4.3152e-11 	5.45076e-10
1.01352 	9.6804e-12 	-3.23201e-11 	-3.50879e-11 	3.50672e-10 	-4.27023e-11 	5.39396e-10
1.0241 	1.00032e-11 	-3.20409e-11 	-3.67303e-11 	3.54799e-10 	-3.95254e-11 	5.30089e-10
1.03468 	9.89442e-12 	-3.16936e-11 	-3.63321e-11 	3.50953e-10 	-3.90969e-11 	5.24342e-10
1.04545 	1.02088e-11 	-3.15292e-11 	-3.77596e-11 	3.54855e-10 	-3.54835e-11 	5.14728e-10
1.05623 	1.00932e-11 	-3.11734e-11 	-3.73334e-11 	3.5085e-10 	-3.50831e-11 	5.08918e-10
1.0672 	1.03806e-11 	-3.10724e-11 	-3.85517e-11 	3.54083e-10 	-3.11725e-11 	4.98903e-10
1.07817 	1.02582e-11 	-3.0707e-11 	-3.80983e-11 	3.49919e-10 	-3.08059e-11 	4.93035e-10
1.08934 	1.04785e-11 	-3.05673e-11 	-3.90591e-11 	3.52733e-10 	-2.65606e-11 	4.8259e-10
1.10051 	1.03496e-11 	-3.01923e-11 	-3.858e-11 	3.48405e-10 	-2.62347e-11 	4.76669e-10
1.11189 	1.05311e-11 	-3.01121e-11 	-3.93251e-11 	3.51034e-10 	-2.1633e-11 	4.65812e-10
1.12327 	1.03958e-11 	-2.97264e-11 	-3.88214e-11 	3.46537e-10 	-2.13559e-11 	4.59845e-10
1.13485 	1.05365e-11 	-2.96698e-11 	-3.93669e-11 	3.48709e-10 	-1.654e-11 	4.48614e-10
1.14644 	1.0395e-11 	-2.92725e-11 	-3.88398e-11 	3.44039e-10 	-1.63185e-11 	4.42606e-10
1.15824 	1.04869e-11 	-2.92208e-11 	-3.9174e-11 	3.45778e-10 	-1.13719e-11 	4.3105e-10
1.17004 	1.03394e-11 	-2.88112e-11 	-3.86249e-11 	3.40932e-10 	-1.12125e-11 	4.25008e-10
1.18205 	1.03954e-11 	-2.88126e-11 	-3.87756e-11 	3.42199e-10 	-6.21785e-12 	4.13173e-10
1.19407 	1.02422e-11 	-2.83894e-11 	-3.82061e-11 	3.37173e-10 	-6.12652e-12 	4.07104e-10
1.2063 	1.02432e-11 	-2.8364e-11 	-3.81612e-11 	3.37647e-10 	-1.22236e-12 	3.95024e-10
1.21854 	1.00848e-11 	-2.79268e-11 	-3.7573e-11 	3.32442e-10 	-1.20351e-12 	3.88934e-10
1.23099 	1.00003e-11 	-2.77711e-11 	-3.72941e-11 	3.32338e-10 	3.58746e-12 	3.76636e-10
1.24345 	9.83774e-12 	-2.73212e-11 	-3.66899e-11 	3.26953e-10 	3.52934e-12 	3.70534e-10
1.25614 	9.68951e-12 	-2.71145e-11 	-3.62112e-11 	3.26693e-10 	8.24022e-12 	3.58037e-10
1.26883 	9.52369e-12 	-2.6652e-11 	-3.55936e-11 	3.21121e-10 	8.09967e-12 	3.5193e-10
1.28175 	9.33565e-12 	-2.64359e-11 	-3.49611e-11 	3.20569e-10 	1.26518e-11 	3.39258e-10
1.29467 	9.16713e-12 	-2.59604e-11 	-3.43322e-11 	3.14803e-10 	1.24242e-11 	3.33155e-10
1.30783 	8.9426e-12 	-2.57119e-11 	-3.35608e-11 	3.13556e-10 	1.66704e-11 	3.20339e-10
1.32099 	8.772e-12 	-2.52232e-11 	-3.29229e-11 	3.07596e-10 	1.63535e-11 	3.14249e-10
1.33439 	8.49851e-12 	-2.48764e-11 	-3.19979e-11 	3.05519e-10 	2.02273e-11 	3.01318e-10
1.34778 	8.32679e-12 	-2.43756e-11 	-3.13538e-11 	2.99369e-10 	1.98201e-11 	2.95253e-10
1.36143 	7.99403e-12 	-2.38716e-11 	-3.0272e-11 	2.96815e-10 	2.33547e-11 	2.82242e-10
1.37507 	7.82253e-12 	-2.33616e-11 	-2.96252e-11 	2.90473e-10 	2.28556e-11 	2.76211e-10
1.38897 	7.46067e-12 	-2.27984e-11 	-2.84358e-11 	2.87493e-10 	2.60294e-11 	2.63166e-10
1.40286 	7.29028e-12 	-2.228e-11 	-2.77892e-11 	2.80955e-10 	2.54375e-11 	2.57182e-10
1.41701 	6.90397e-12 	-2.16436e-11 	-2.65083e-11 	2.77364e-10 	2.81958e-11 	2.44152e-10
1.43116 	6.73562e-12 	-2.11183e-11 	-2.58649e-11 	2.70632e-10 	2.75115e-11 	2.38226e-10
1.44557 	6.33255e-12 	-2.04178e-11 	-2.4512e-11 	2.66467e-10 	2.98312e-11 	2.25269e-10
1.45998 	6.16714e-12 	-1.98872e-11 	-2.3875e-11 	2.59541e-10 	2.90559e-11 	2.19414e-10
1.47466 	5.75673e-12 	-1.9143e-11 	-2.24763e-11 	2.54607e-10 	3.08995e-11 	2.06593e-10
1.48933 	5.59504e-12 	-1.86083e-11 	-2.18486e-11 	2.47496e-10 	3.00365e-11 	2.00823e-10
1.50427 	5.17148e-12 	-1.77597e-11 	-2.04055e-11 	2.41838e-10 	3.14091e-11 	1.88205e-10
1.51921 	5.01462e-12 	-1.72243e-11 	-1.97905e-11 	2.34548e-10 	3.04624e-11 	1.82532e-10
1.53443 	4.59057e-12 	-1.63157e-11 	-1.83291e-11 	2.28389e-10 	3.13878e-11 	1.70187e-10
1.54965 	4.43947e-12 	-1.57824e-11 	-1.77301e-11 	2.20924e-10 	3.03619e-11 	1.64625e-10
1.56514 	4.02581e-12 	-1.48536e-11 	-1.62791e-11 	2.14068e-10 	3.08295e-11 	1.52624e-10
1.58064 	3.8812e-12 	-1.43243e-11 	-1.56991e-11 	2.0644e-10 	2.97309e-11 	1.47186e-10
1.59642 	3.47682e-12 	-1.33508e-11 	-1.42678e-11 	1.98912e-10 	2.97649e-11 	1.35601e-10
1.6122 	3.33962e-12 	-1.28287e-11 	-1.371e-11 	1.91134e-10 	2.86011e-11 	1.30299e-10
1.62827 	2.95389e-12 	-1.18393e-11 	-1.23218e-11 	1.83126e-10 	2.8246e-11 	1.19199e-10
1.64434 	2.8248e-12 	-1.13275e-11 	-1.17893e-11 	1.7521e-10 	2.7025e-11 	1.14046e-10
1.6607 	2.4617e-12 	-1.03271e-11 	-1.04653e-11 	1.66723e-10 	2.63124e-11 	1.03497e-10
1.67707 	2.34142e-12 	-9.82902e-12 	-9.96066e-12 	1.58682e-10 	2.50434e-11 	9.85052e-11
1.69373 	2.00857e-12 	-8.86359e-12 	-8.7186e-12 	1.49737e-10 	2.40082e-11 	8.8566e-11
1.7104 	1.89753e-12 	-8.38132e-12 	-8.24437e-12 	1.4159e-10 	2.27019e-11 	8.37471e-11
1.72737 	1.59641e-12 	-7.44663e-12 	-7.09551e-12 	1.32221e-10 	2.13858e-11 	7.44739e-11
1.74434 	1.49504e-12 	-6.98312e-12 	-6.65403e-12 	1.23991e-10 	2.00547e-11 	6.98383e-11
1.76162 	1.2261e-12 	-6.08215e-12 	-5.60896e-12 	1.14258e-10 	1.85179e-11 	6.12796e-11
1.7789 	1.13488e-12 	-5.64124e-12 	-5.20255e-12 	1.05975e-10 	1.71754e-11 	5.68372e-11
1.7965 	8.99596e-13 	-4.77473e-12 	-4.26847e-12 	9.615e-11 	1.54991e-11 	4.9034e-11
1.81409 	8.19018e-13 	-4.36183e-12 	-3.8996e-12 	8.78353e-11 	1.41588e-11 	4.47937e-11
1.83202 	6.22799e-13 	-3.5836e-12 	-3.09504e-12 	7.81221e-11 	1.2413e-11 	3.77791e-11
1.84994 	5.52922e-13 	-3.20129e-12 	-2.76516e-12 	6.97879e-11 	1.10888e-11 	3.37487e-11
1.86819 	3.97902e-13 	-2.54782e-12 	-2.09919e-12 	6.00785e-11 	9.33046e-12 	2.75471e-11
1.88644 	3.38354e-13 	-2.19507e-12 	-1.80895e-12 	5.17606e-11 	8.03866e-12 	2.37331e-11
1.90502 	2.1856e-13 	-1.61336e-12 	-1.27849e-12 	4.22313e-11 	6.34548e-12 	1.83596e-11
1.9236 	1.69495e-13 	-1.29768e-12 	-1.02889e-12 	3.3968e-11 	5.10388e-12 	1.47672e-11
1.94253 	8.70902e-14 	-8.49347e-13 	-6.36167e-13 	2.48643e-11 	3.5621e-12 	1.02269e-11
1.96146 	4.78083e-14 	-5.69651e-13 	-4.27619e-13 	1.66763e-11 	2.38908e-12 	6.85903e-12
1.98073 	-1.29098e-15 	-2.47868e-13 	-1.73464e-13 	8.09494e-12 	1.09388e-12 	3.15988e-12
2 	-3.21965e-14 	0 	-2.8727e-15 	0 	0 	-1.97758e-16
