0 	0.776875 	0 	0.0679679 	0.776875 	0 	0.0679679
0.00128482 	0.888679 	0.00012819 	0.0777451 	0.888679 	0.000128625 	0.0777406
0.00256965 	0.99298 	0.000128108 	0.0868703 	0.99298 	0.000128542 	0.0868658
0.00387803 	0.993822 	0.000185051 	0.0869447 	0.993822 	0.000185897 	0.0869399
0.00518642 	0.993823 	0.00018493 	0.0869449 	0.993823 	0.000185775 	0.08694
0.00651881 	0.994493 	0.000256112 	0.0870042 	0.994493 	0.000256329 	0.0869991
0.00785119 	0.994494 	0.00025594 	0.0870043 	0.994494 	0.000256158 	0.0869992
0.00920802 	0.995019 	0.000311509 	0.0870509 	0.995019 	0.000311609 	0.0870456
0.0105648 	0.99502 	0.000311297 	0.087051 	0.99502 	0.000311396 	0.0870456
0.0119465 	0.995415 	0.000350604 	0.087086 	0.995414 	0.000350766 	0.0870806
0.0133283 	0.995415 	0.00035036 	0.0870861 	0.995415 	0.000350523 	0.0870806
0.0147353 	0.995701 	0.000377472 	0.0871115 	0.995701 	0.000377677 	0.0871059
0.0161424 	0.995701 	0.000377204 	0.0871115 	0.995701 	0.000377409 	0.087106
0.0175752 	0.995902 	0.000395189 	0.0871294 	0.995902 	0.00039541 	0.0871238
0.0190081 	0.995902 	0.000394903 	0.0871294 	0.995902 	0.000395124 	0.0871238
0.0204672 	0.99604 	0.000405968 	0.0871417 	0.996039 	0.000406198 	0.087136
0.0219263 	0.99604 	0.000405668 	0.0871417 	0.996039 	0.000405899 	0.087136
0.0234122 	0.996132 	0.000411562 	0.0871499 	0.996132 	0.0004118 	0.0871442
0.0248981 	0.996132 	0.000411253 	0.0871499 	0.996132 	0.000411491 	0.0871442
0.0264113 	0.996194 	0.000413363 	0.0871553 	0.996194 	0.000413603 	0.0871496
0.0279244 	0.996194 	0.000413046 	0.0871553 	0.996194 	0.000413286 	0.0871496
0.0294653 	0.996234 	0.000412534 	0.0871588 	0.996234 	0.000412789 	0.0871531
0.0310063 	0.996234 	0.000412212 	0.0871588 	0.996234 	0.000412466 	0.0871531
0.0325754 	0.996261 	0.000409914 	0.087161 	0.996261 	0.000410183 	0.0871554
0.0341446 	0.996261 	0.000409587 	0.087161 	0.996261 	0.000409856 	0.0871554
0.0357425 	0.99628 	0.000406023 	0.0871624 	0.996279 	0.000406297 	0.0871568
0.0373405 	0.99628 	0.000405693 	0.0871624 	0.996279 	0.000405967 	0.0871568
0.0389677 	0.996293 	0.000401231 	0.0871633 	0.996292 	0.000401513 	0.0871577
0.040595 	0.996293 	0.000400899 	0.0871633 	0.996292 	0.00040118 	0.0871576
0.0422521 	0.996301 	0.000395841 	0.0871638 	0.9963 	0.000396127 	0.0871582
0.0439092 	0.996301 	0.000395506 	0.0871638 	0.9963 	0.000395792 	0.0871582
0.0455967 	0.996304 	0.000390064 	0.0871641 	0.996304 	0.000390358 	0.0871585
0.0472842 	0.996304 	0.000389727 	0.0871641 	0.996304 	0.000390021 	0.0871585
0.0490026 	0.996305 	0.000384003 	0.0871642 	0.996304 	0.000384308 	0.0871587
0.0507211 	0.996305 	0.000383665 	0.0871642 	0.996304 	0.00038397 	0.0871587
0.052471 	0.996303 	0.000377728 	0.0871643 	0.996303 	0.00037804 	0.0871588
0.054221 	0.996303 	0.000377389 	0.0871643 	0.996303 	0.0003777 	0.0871588
0.056003 	0.996302 	0.000371304 	0.0871643 	0.996301 	0.000371615 	0.0871588
0.0577851 	0.996302 	0.000370964 	0.0871643 	0.996301 	0.000371274 	0.0871588
0.0595998 	0.996301 	0.000364764 	0.0871643 	0.9963 	0.000365072 	0.0871588
0.0614146 	0.996301 	0.000364423 	0.0871643 	0.9963 	0.000364731 	0.0871588
0.0632626 	0.9963 	0.000358156 	0.0871642 	0.9963 	0.000358465 	0.0871588
0.0651106 	0.9963 	0.000357815 	0.0871642 	0.9963 	0.000358123 	0.0871588
0.0669925 	0.9963 	0.000351511 	0.0871642 	0.996299 	0.000351824 	0.0871588
0.0688745 	0.9963 	0.000351169 	0.0871642 	0.996299 	0.000351482 	0.0871588
0.0707909 	0.996299 	0.000344818 	0.0871642 	0.996299 	0.000345139 	0.0871588
0.0727073 	0.996299 	0.000344476 	0.0871642 	0.996299 	0.000344796 	0.0871588
0.0746589 	0.996299 	0.000338063 	0.0871641 	0.996299 	0.000338394 	0.0871588
0.0766105 	0.996299 	0.000337721 	0.0871641 	0.996298 	0.000338051 	0.0871588
0.0785979 	0.996299 	0.000331237 	0.0871641 	0.996298 	0.000331577 	0.0871588
0.0805853 	0.996298 	0.000330895 	0.0871641 	0.996298 	0.000331234 	0.0871588
0.0826091 	0.996298 	0.000324336 	0.0871641 	0.996298 	0.000324688 	0.0871588
0.0846329 	0.996298 	0.000323994 	0.0871641 	0.996297 	0.000324345 	0.0871588
0.0846329 	0.996298 	0.000323994 	0.0871641 	0.996297 	0.000324345 	0.0871588
0.0866939 	0.996297 	0.000317363 	0.087164 	0.996297 	0.000317727 	0.0871588
0.0887548 	0.996297 	0.000317021 	0.087164 	0.996297 	0.000317385 	0.0871588
0.0908536 	0.996297 	0.00031032 	0.087164 	0.996296 	0.000310691 	0.0871588
0.0929523 	0.996297 	0.000309979 	0.087164 	0.996296 	0.000310349 	0.0871588
0.0950896 	0.996296 	0.000303209 	0.0871639 	0.996295 	0.000303579 	0.0871588
0.0972268 	0.996296 	0.000302869 	0.0871639 	0.996295 	0.000303238 	0.0871588
0.0994033 	0.996295 	0.000296033 	0.0871639 	0.996295 	0.000296396 	0.0871588
0.10158 	0.996295 	0.000295694 	0.0871639 	0.996294 	0.000296057 	0.0871588
0.103796 	0.996294 	0.000288794 	0.0871639 	0.996294 	0.000289146 	0.0871588
0.106012 	0.996294 	0.000288457 	0.0871638 	0.996294 	0.000288808 	0.0871588
0.108269 	0.996293 	0.000281496 	0.0871638 	0.996293 	0.000281832 	0.0871587
0.110526 	0.996293 	0.00028116 	0.0871638 	0.996292 	0.000281496 	0.0871587
0.112825 	0.996292 	0.000274142 	0.0871638 	0.996291 	0.000274458 	0.0871587
0.115123 	0.996292 	0.000273808 	0.0871638 	0.996291 	0.000274124 	0.0871587
0.115264 	0.996291 	0.000267049 	0.0871637 	0.99629 	0.000267342 	0.0871587
0.115404 	0.996291 	0.000267029 	0.0871637 	0.99629 	0.000267322 	0.0871587
0.117604 	0.996291 	0.000266718 	0.0871637 	0.99629 	0.00026701 	0.0871587
0.119804 	0.996291 	0.000266406 	0.0871637 	0.99629 	0.000266698 	0.0871587
0.122045 	0.996289 	0.000259307 	0.0871637 	0.996289 	0.000259575 	0.0871587
0.124285 	0.996289 	0.000258998 	0.0871637 	0.996289 	0.000259265 	0.0871587
0.124428 	0.996289 	0.000258978 	0.0871637 	0.996289 	0.000259246 	0.0871587
0.124571 	0.996289 	0.000258958 	0.0871637 	0.996289 	0.000259226 	0.0871587
0.126999 	0.996288 	0.000251793 	0.0871636 	0.996288 	0.000252043 	0.0871587
0.129426 	0.996288 	0.000251467 	0.0871636 	0.996288 	0.000251716 	0.0871587
0.131897 	0.996287 	0.000244261 	0.0871636 	0.996286 	0.000244496 	0.0871587
0.134369 	0.996287 	0.000243938 	0.0871636 	0.996286 	0.000244172 	0.0871587
0.136886 	0.996285 	0.000236707 	0.0871635 	0.996285 	0.000236927 	0.0871587
0.139403 	0.996285 	0.000236387 	0.0871635 	0.996284 	0.000236607 	0.0871587
0.139557 	0.996283 	0.000229456 	0.0871635 	0.996283 	0.000229662 	0.0871587
0.139711 	0.996283 	0.000229437 	0.0871635 	0.996283 	0.000229643 	0.0871587
0.14212 	0.996283 	0.00022914 	0.0871635 	0.996282 	0.000229346 	0.0871587
0.14453 	0.996283 	0.000228843 	0.0871635 	0.996282 	0.000229048 	0.0871587
0.146983 	0.99628 	0.000221678 	0.0871635 	0.996279 	0.000221873 	0.0871587
0.149437 	0.99628 	0.000221385 	0.0871635 	0.996279 	0.000221579 	0.0871587
0.149594 	0.99628 	0.000221366 	0.0871635 	0.996279 	0.00022156 	0.0871587
0.14975 	0.99628 	0.000221347 	0.0871635 	0.996279 	0.000221542 	0.0871587
0.152408 	0.996276 	0.00021427 	0.0871635 	0.996276 	0.000214458 	0.0871587
0.155066 	0.996276 	0.000213962 	0.0871635 	0.996276 	0.000214149 	0.0871587
0.157773 	0.996272 	0.000207012 	0.0871635 	0.996272 	0.000207199 	0.0871587
0.16048 	0.996272 	0.000206707 	0.0871634 	0.996272 	0.000206895 	0.0871586
0.163237 	0.996268 	0.000199894 	0.0871634 	0.996268 	0.000200085 	0.0871586
0.165993 	0.996268 	0.000199594 	0.0871634 	0.996268 	0.000199784 	0.0871586
0.1688 	0.996264 	0.000192951 	0.0871634 	0.996264 	0.000193146 	0.0871586
0.171607 	0.996264 	0.000192655 	0.0871634 	0.996264 	0.00019285 	0.0871586
0.174466 	0.99626 	0.000186196 	0.0871634 	0.99626 	0.000186395 	0.0871586
0.177324 	0.99626 	0.000185904 	0.0871634 	0.99626 	0.000186103 	0.0871586
0.180235 	0.996257 	0.000179624 	0.0871634 	0.996257 	0.000179827 	0.0871586
0.183146 	0.996256 	0.000179337 	0.0871634 	0.996256 	0.000179539 	0.0871586
0.186111 	0.996253 	0.000173234 	0.0871634 	0.996253 	0.00017344 	0.0871586
0.189075 	0.996253 	0.00017295 	0.0871634 	0.996253 	0.000173156 	0.0871586
0.192094 	0.99625 	0.000167025 	0.0871634 	0.99625 	0.000167235 	0.0871586
0.195113 	0.99625 	0.000166746 	0.0871634 	0.99625 	0.000166955 	0.0871586
0.198187 	0.996246 	0.000160999 	0.0871633 	0.996246 	0.000161212 	0.0871586
0.201261 	0.996246 	0.000160724 	0.0871633 	0.996246 	0.000160937 	0.0871586
0.204391 	0.996243 	0.000155154 	0.0871633 	0.996243 	0.00015537 	0.0871586
0.207522 	0.996243 	0.000154884 	0.0871633 	0.996243 	0.0001551 	0.0871586
0.21071 	0.99624 	0.000149491 	0.0871633 	0.99624 	0.000149711 	0.0871586
0.213898 	0.99624 	0.000149225 	0.0871633 	0.99624 	0.000149445 	0.0871586
0.217144 	0.996238 	0.000144011 	0.0871633 	0.996238 	0.000144235 	0.0871586
0.22039 	0.996238 	0.000143749 	0.0871633 	0.996238 	0.000143972 	0.0871586
0.223696 	0.996235 	0.000138716 	0.0871632 	0.996235 	0.000138944 	0.0871586
0.227002 	0.996235 	0.000138458 	0.0871632 	0.996235 	0.000138686 	0.0871585
0.230369 	0.996232 	0.000133615 	0.0871632 	0.996232 	0.000133848 	0.0871585
0.233735 	0.996232 	0.000133361 	0.0871632 	0.996232 	0.000133594 	0.0871585
0.237164 	0.996229 	0.000128722 	0.0871632 	0.996229 	0.000128961 	0.0871585
0.240592 	0.996229 	0.000128472 	0.0871632 	0.996229 	0.000128711 	0.0871585
0.244083 	0.996226 	0.000124052 	0.0871631 	0.996226 	0.000124299 	0.0871585
0.247574 	0.996226 	0.000123806 	0.0871631 	0.996226 	0.000124052 	0.0871585
0.251129 	0.996223 	0.000119618 	0.0871631 	0.996223 	0.000119872 	0.0871585
0.254685 	0.996223 	0.000119375 	0.0871631 	0.996223 	0.000119628 	0.0871585
0.258305 	0.99622 	0.000115423 	0.0871631 	0.99622 	0.000115685 	0.0871585
0.261925 	0.99622 	0.000115183 	0.0871631 	0.99622 	0.000115444 	0.0871585
0.265612 	0.996217 	0.000111462 	0.0871631 	0.996217 	0.000111732 	0.0871585
0.269299 	0.996217 	0.000111225 	0.087163 	0.996217 	0.000111495 	0.0871585
0.273053 	0.996215 	0.000107728 	0.087163 	0.996214 	0.000108007 	0.0871585
0.276808 	0.996214 	0.000107494 	0.087163 	0.996214 	0.000107772 	0.0871585
0.280631 	0.996212 	0.00010421 	0.087163 	0.996212 	0.000104496 	0.0871585
0.284454 	0.996212 	0.000103979 	0.087163 	0.996212 	0.000104264 	0.0871585
0.288348 	0.99621 	0.000100891 	0.0871629 	0.99621 	0.000101182 	0.0871584
0.292241 	0.99621 	0.000100662 	0.0871629 	0.99621 	0.000100952 	0.0871584
0.292241 	0.99621 	0.000100662 	0.0871629 	0.99621 	0.000100952 	0.0871584
0.296206 	0.996208 	9.77497e-05 	0.0871629 	0.996208 	9.80476e-05 	0.0871584
0.300171 	0.996208 	9.75222e-05 	0.0871629 	0.996208 	9.78195e-05 	0.0871584
0.304208 	0.996206 	9.47785e-05 	0.0871629 	0.996206 	9.50857e-05 	0.0871584
0.308246 	0.996206 	9.45529e-05 	0.0871629 	0.996206 	9.48593e-05 	0.0871584
0.312358 	0.996205 	9.19834e-05 	0.0871628 	0.996205 	9.22993e-05 	0.0871584
0.316469 	0.996205 	9.17593e-05 	0.0871628 	0.996205 	9.20744e-05 	0.0871584
0.320656 	0.996204 	8.93595e-05 	0.0871628 	0.996204 	8.96823e-05 	0.0871584
0.324843 	0.996204 	8.91367e-05 	0.0871628 	0.996204 	8.94587e-05 	0.0871584
0.329107 	0.996202 	8.68914e-05 	0.0871627 	0.996202 	8.72202e-05 	0.0871584
0.333371 	0.996202 	8.66697e-05 	0.0871627 	0.996202 	8.69977e-05 	0.0871584
0.337713 	0.996201 	8.45669e-05 	0.0871627 	0.996201 	8.49018e-05 	0.0871584
0.342055 	0.996201 	8.4346e-05 	0.0871627 	0.996201 	8.46801e-05 	0.0871584
0.346476 	0.9962 	8.23771e-05 	0.0871627 	0.9962 	8.27184e-05 	0.0871584
0.350898 	0.9962 	8.21568e-05 	0.0871626 	0.9962 	8.24972e-05 	0.0871584
0.355401 	0.996199 	8.03138e-05 	0.0871626 	0.996199 	8.06615e-05 	0.0871583
0.359903 	0.996199 	8.00939e-05 	0.0871626 	0.996199 	8.04406e-05 	0.0871583
0.364489 	0.996199 	7.83691e-05 	0.0871626 	0.996199 	7.87231e-05 	0.0871583
0.369074 	0.996199 	7.81494e-05 	0.0871626 	0.996199 	7.85024e-05 	0.0871583
0.373744 	0.996198 	7.65353e-05 	0.0871625 	0.996198 	7.68959e-05 	0.0871583
0.378413 	0.996198 	7.63156e-05 	0.0871625 	0.996198 	7.66751e-05 	0.0871583
0.383168 	0.996197 	7.48059e-05 	0.0871625 	0.996197 	7.5173e-05 	0.0871583
0.387923 	0.996197 	7.45859e-05 	0.0871625 	0.996197 	7.49519e-05 	0.0871583
0.392765 	0.996197 	7.3174e-05 	0.0871624 	0.996197 	7.35476e-05 	0.0871583
0.397608 	0.996197 	7.29535e-05 	0.0871624 	0.996197 	7.3326e-05 	0.0871583
0.402539 	0.996196 	7.16333e-05 	0.0871624 	0.996196 	7.20138e-05 	0.0871583
0.40747 	0.996196 	7.14122e-05 	0.0871624 	0.996196 	7.17915e-05 	0.0871583
0.412491 	0.996196 	7.01799e-05 	0.0871623 	0.996196 	7.05675e-05 	0.0871582
0.417513 	0.996196 	6.99579e-05 	0.0871623 	0.996196 	7.03443e-05 	0.0871582
0.422626 	0.996195 	6.88081e-05 	0.0871623 	0.996195 	6.92022e-05 	0.0871582
0.42774 	0.996195 	6.85851e-05 	0.0871623 	0.996195 	6.89778e-05 	0.0871582
0.432948 	0.996195 	6.75103e-05 	0.0871622 	0.996195 	6.79105e-05 	0.0871582
0.438155 	0.996195 	6.72859e-05 	0.0871622 	0.996195 	6.76848e-05 	0.0871582
0.443458 	0.996195 	6.62816e-05 	0.0871622 	0.996194 	6.66886e-05 	0.0871582
0.448761 	0.996195 	6.60558e-05 	0.0871622 	0.996194 	6.64614e-05 	0.0871582
0.454161 	0.996194 	6.5117e-05 	0.0871621 	0.996194 	6.55304e-05 	0.0871582
0.459561 	0.996194 	6.48895e-05 	0.0871621 	0.996194 	6.53014e-05 	0.0871582
0.46506 	0.996194 	6.40097e-05 	0.0871621 	0.996194 	6.4429e-05 	0.0871582
0.47056 	0.996194 	6.37804e-05 	0.0871621 	0.996194 	6.41982e-05 	0.0871582
0.47616 	0.996194 	6.29554e-05 	0.087162 	0.996194 	6.33809e-05 	0.0871581
0.48176 	0.996194 	6.27241e-05 	0.087162 	0.996194 	6.3148e-05 	0.0871581
0.487463 	0.996194 	6.19512e-05 	0.087162 	0.996194 	6.23829e-05 	0.0871581
0.493165 	0.996194 	6.17176e-05 	0.0871619 	0.996194 	6.21477e-05 	0.0871581
0.498973 	0.996193 	6.09936e-05 	0.0871619 	0.996193 	6.14315e-05 	0.0871581
0.50478 	0.996193 	6.07576e-05 	0.0871619 	0.996193 	6.11938e-05 	0.0871581
0.510694 	0.996193 	6.00794e-05 	0.0871618 	0.996193 	6.05234e-05 	0.0871581
0.516608 	0.996193 	5.98408e-05 	0.0871618 	0.996193 	6.0283e-05 	0.0871581
0.52263 	0.996193 	5.9205e-05 	0.0871618 	0.996193 	5.9655e-05 	0.0871581
0.528653 	0.996193 	5.89636e-05 	0.0871618 	0.996193 	5.94119e-05 	0.0871581
0.534786 	0.996193 	5.83672e-05 	0.0871617 	0.996193 	5.88232e-05 	0.087158
0.540918 	0.996193 	5.81229e-05 	0.0871617 	0.996193 	5.8577e-05 	0.087158
0.547164 	0.996193 	5.75629e-05 	0.0871617 	0.996193 	5.80248e-05 	0.087158
0.553409 	0.996193 	5.73155e-05 	0.0871616 	0.996193 	5.77754e-05 	0.087158
0.559769 	0.996193 	5.67892e-05 	0.0871616 	0.996193 	5.72567e-05 	0.087158
0.566129 	0.996193 	5.65384e-05 	0.0871616 	0.996193 	5.70039e-05 	0.087158
0.572605 	0.996193 	5.6043e-05 	0.0871615 	0.996193 	5.65162e-05 	0.087158
0.579082 	0.996193 	5.57887e-05 	0.0871615 	0.996193 	5.62597e-05 	0.087158
0.585677 	0.996193 	5.53218e-05 	0.0871615 	0.996193 	5.58003e-05 	0.087158
0.592272 	0.996193 	5.50638e-05 	0.0871614 	0.996193 	5.55401e-05 	0.0871579
0.598989 	0.996193 	5.46228e-05 	0.0871614 	0.996192 	5.51067e-05 	0.0871579
0.605705 	0.996193 	5.4361e-05 	0.0871614 	0.996193 	5.48425e-05 	0.0871579
0.612544 	0.996192 	5.39437e-05 	0.0871613 	0.996192 	5.44327e-05 	0.0871579
0.619384 	0.996193 	5.36778e-05 	0.0871613 	0.996192 	5.41644e-05 	0.0871579
0.626349 	0.996192 	5.3282e-05 	0.0871613 	0.996192 	5.37763e-05 	0.0871579
0.633314 	0.996192 	5.30118e-05 	0.0871612 	0.996192 	5.35036e-05 	0.0871579
0.640406 	0.996192 	5.26354e-05 	0.0871612 	0.996192 	5.31347e-05 	0.0871579
0.647499 	0.996192 	5.23608e-05 	0.0871612 	0.996192 	5.28575e-05 	0.0871578
0.654722 	0.996192 	5.20017e-05 	0.0871611 	0.996192 	5.25041e-05 	0.0871578
0.661944 	0.996192 	5.17225e-05 	0.0871611 	0.996192 	5.22222e-05 	0.0871578
0.669299 	0.996192 	5.13788e-05 	0.087161 	0.996192 	5.1885e-05 	0.0871578
0.676655 	0.996192 	5.10948e-05 	0.087161 	0.996192 	5.15982e-05 	0.0871578
0.676655 	0.996192 	5.10948e-05 	0.087161 	0.996192 	5.15982e-05 	0.0871578
0.684145 	0.996192 	5.07647e-05 	0.087161 	0.996192 	5.12771e-05 	0.0871578
0.684145 	0.996192 	5.07647e-05 	0.087161 	0.996192 	5.12771e-05 	0.0871578
0.691635 	0.996192 	5.04757e-05 	0.0871609 	0.996192 	5.09852e-05 	0.0871578
0.691635 	0.996192 	5.04757e-05 	0.0871609 	0.996192 	5.09852e-05 	0.0871578
0.699262 	0.996192 	5.01572e-05 	0.0871609 	0.996192 	5.06778e-05 	0.0871578
0.699262 	0.996192 	5.01572e-05 	0.0871609 	0.996192 	5.06778e-05 	0.0871578
0.70689 	0.996192 	4.98631e-05 	0.0871609 	0.996192 	5.03806e-05 	0.0871577
0.70689 	0.996192 	4.98631e-05 	0.0871609 	0.996192 	5.03806e-05 	0.0871577
0.714657 	0.996192 	4.95545e-05 	0.0871608 	0.996192 	5.00829e-05 	0.0871577
0.722424 	0.996192 	4.9255e-05 	0.0871608 	0.996192 	4.97802e-05 	0.0871577
0.730334 	0.996192 	4.89546e-05 	0.0871607 	0.996192 	4.94837e-05 	0.0871577
0.738244 	0.996192 	4.86496e-05 	0.0871607 	0.996192 	4.91754e-05 	0.0871577
0.746299 	0.996192 	4.83557e-05 	0.0871607 	0.996192 	4.88855e-05 	0.0871577
0.754354 	0.996192 	4.8045e-05 	0.0871606 	0.996192 	4.85714e-05 	0.0871577
0.754354 	0.996192 	4.8045e-05 	0.0871606 	0.996192 	4.85714e-05 	0.0871577
0.762556 	0.996192 	4.7756e-05 	0.0871606 	0.996192 	4.8292e-05 	0.0871576
0.762556 	0.996192 	4.7756e-05 	0.0871606 	0.996192 	4.8292e-05 	0.0871576
0.770759 	0.996192 	4.74395e-05 	0.0871606 	0.996192 	4.79719e-05 	0.0871576
0.770759 	0.996192 	4.74395e-05 	0.0871606 	0.996192 	4.79719e-05 	0.0871576
0.779112 	0.996193 	4.71538e-05 	0.0871605 	0.996192 	4.76943e-05 	0.0871576
0.779112 	0.996193 	4.71538e-05 	0.0871605 	0.996192 	4.76943e-05 	0.0871576
0.787465 	0.996193 	4.68311e-05 	0.0871605 	0.996192 	4.73679e-05 	0.0871576
0.787465 	0.996193 	4.68311e-05 	0.0871605 	0.996192 	4.73679e-05 	0.0871576
0.795971 	0.996193 	4.65472e-05 	0.0871604 	0.996192 	4.70888e-05 	0.0871576
0.804478 	0.996193 	4.62183e-05 	0.0871604 	0.996193 	4.67561e-05 	0.0871576
0.81314 	0.996193 	4.59346e-05 	0.0871603 	0.996193 	4.6476e-05 	0.0871576
0.821802 	0.996193 	4.55993e-05 	0.0871603 	0.996193 	4.61368e-05 	0.0871575
0.830623 	0.996193 	4.53143e-05 	0.0871602 	0.996193 	4.58561e-05 	0.0871575
0.839445 	0.996193 	4.49725e-05 	0.0871602 	0.996193 	4.55102e-05 	0.0871575
0.848428 	0.996193 	4.46847e-05 	0.0871602 	0.996193 	4.52269e-05 	0.0871575
0.857411 	0.996193 	4.43362e-05 	0.0871601 	0.996193 	4.48741e-05 	0.0871575
0.866558 	0.996193 	4.40443e-05 	0.0871601 	0.996193 	4.4586e-05 	0.0871575
0.875706 	0.996193 	4.36888e-05 	0.08716 	0.996193 	4.42262e-05 	0.0871575
0.885021 	0.996193 	4.33914e-05 	0.08716 	0.996193 	4.39323e-05 	0.0871574
0.894337 	0.996193 	4.30289e-05 	0.08716 	0.996193 	4.35652e-05 	0.0871574
0.903823 	0.996193 	4.27246e-05 	0.0871599 	0.996193 	4.32637e-05 	0.0871574
0.91331 	0.996193 	4.23548e-05 	0.0871599 	0.996193 	4.28893e-05 	0.0871574
0.92297 	0.996193 	4.20424e-05 	0.0871598 	0.996193 	4.25793e-05 	0.0871574
0.93263 	0.996193 	4.16653e-05 	0.0871598 	0.996193 	4.21974e-05 	0.0871574
0.942468 	0.996193 	4.13433e-05 	0.0871597 	0.996193 	4.18776e-05 	0.0871573
0.952305 	0.996193 	4.09587e-05 	0.0871597 	0.996193 	4.14881e-05 	0.0871573
0.962323 	0.996193 	4.06261e-05 	0.0871596 	0.996193 	4.11572e-05 	0.0871573
0.972341 	0.996193 	4.02339e-05 	0.0871596 	0.996193 	4.07598e-05 	0.0871573
0.982543 	0.996193 	3.98894e-05 	0.0871595 	0.996193 	4.04167e-05 	0.0871573
0.992745 	0.996193 	3.94894e-05 	0.0871595 	0.996193 	4.00114e-05 	0.0871573
1.00313 	0.996193 	3.91319e-05 	0.0871594 	0.996193 	3.96549e-05 	0.0871572
1.01352 	0.996193 	3.87241e-05 	0.0871594 	0.996193 	3.92417e-05 	0.0871572
1.0241 	0.996193 	3.83526e-05 	0.0871593 	0.996193 	3.88707e-05 	0.0871572
1.03468 	0.996193 	3.79368e-05 	0.0871593 	0.996193 	3.84493e-05 	0.0871572
1.04545 	0.996193 	3.75502e-05 	0.0871592 	0.996193 	3.80628e-05 	0.0871572
1.05623 	0.996193 	3.71264e-05 	0.0871592 	0.996193 	3.76332e-05 	0.0871572
1.0672 	0.996193 	3.67239e-05 	0.0871591 	0.996193 	3.72304e-05 	0.0871571
1.07817 	0.996193 	3.62919e-05 	0.0871591 	0.996193 	3.67925e-05 	0.0871571
1.08934 	0.996193 	3.58726e-05 	0.087159 	0.996193 	3.63724e-05 	0.0871571
1.10051 	0.996193 	3.54325e-05 	0.087159 	0.996193 	3.59262e-05 	0.0871571
1.11189 	0.996194 	3.49956e-05 	0.0871589 	0.996194 	3.5488e-05 	0.0871571
1.12327 	0.996194 	3.45473e-05 	0.0871589 	0.996194 	3.50334e-05 	0.0871571
1.13485 	0.996194 	3.40922e-05 	0.0871588 	0.996194 	3.45765e-05 	0.087157
1.14644 	0.996194 	3.36356e-05 	0.0871588 	0.996194 	3.41135e-05 	0.087157
1.15824 	0.996194 	3.31618e-05 	0.0871587 	0.996194 	3.36375e-05 	0.087157
1.17004 	0.996194 	3.2697e-05 	0.0871587 	0.996194 	3.3166e-05 	0.087157
1.18205 	0.996194 	3.22039e-05 	0.0871586 	0.996194 	3.26703e-05 	0.087157
1.19407 	0.996194 	3.17309e-05 	0.0871586 	0.996194 	3.21904e-05 	0.0871569
1.2063 	0.996194 	3.12184e-05 	0.0871585 	0.996194 	3.16749e-05 	0.0871569
1.21854 	0.996194 	3.07372e-05 	0.0871585 	0.996194 	3.11866e-05 	0.0871569
1.23099 	0.996194 	3.02051e-05 	0.0871584 	0.996194 	3.0651e-05 	0.0871569
1.24345 	0.996194 	2.97157e-05 	0.0871584 	0.996194 	3.01544e-05 	0.0871569
1.25614 	0.996194 	2.9164e-05 	0.0871583 	0.996194 	2.95986e-05 	0.0871569
1.26883 	0.996194 	2.86665e-05 	0.0871583 	0.996194 	2.90938e-05 	0.0871568
1.28175 	0.996194 	2.80953e-05 	0.0871582 	0.996194 	2.85179e-05 	0.0871568
1.29467 	0.996194 	2.75899e-05 	0.0871582 	0.996194 	2.80049e-05 	0.0871568
1.30783 	0.996194 	2.69994e-05 	0.0871581 	0.996194 	2.74094e-05 	0.0871568
1.32099 	0.996194 	2.64862e-05 	0.0871581 	0.996194 	2.68884e-05 	0.0871568
1.33439 	0.996194 	2.5877e-05 	0.087158 	0.996194 	2.62738e-05 	0.0871567
1.34778 	0.996194 	2.53561e-05 	0.087158 	0.996194 	2.57449e-05 	0.0871567
1.36143 	0.996194 	2.47288e-05 	0.0871579 	0.996194 	2.51116e-05 	0.0871567
1.37507 	0.996194 	2.42004e-05 	0.0871579 	0.996194 	2.45751e-05 	0.0871567
1.38897 	0.996194 	2.35558e-05 	0.0871578 	0.996194 	2.3924e-05 	0.0871567
1.40286 	0.996194 	2.30201e-05 	0.0871578 	0.996194 	2.338e-05 	0.0871566
1.41701 	0.996194 	2.23592e-05 	0.0871577 	0.996194 	2.27122e-05 	0.0871566
1.43116 	0.996194 	2.18165e-05 	0.0871577 	0.996194 	2.2161e-05 	0.0871566
1.44557 	0.996195 	2.11405e-05 	0.0871576 	0.996194 	2.14776e-05 	0.0871566
1.45998 	0.996195 	2.05911e-05 	0.0871575 	0.996195 	2.09194e-05 	0.0871566
1.47466 	0.996195 	1.99014e-05 	0.0871575 	0.996195 	2.02219e-05 	0.0871566
1.48933 	0.996195 	1.93455e-05 	0.0871574 	0.996195 	1.96571e-05 	0.0871565
1.50427 	0.996195 	1.86436e-05 	0.0871574 	0.996195 	1.89471e-05 	0.0871565
1.51921 	0.996195 	1.80816e-05 	0.0871573 	0.996195 	1.8376e-05 	0.0871565
1.53443 	0.996195 	1.73693e-05 	0.0871573 	0.996195 	1.76551e-05 	0.0871565
1.54965 	0.996195 	1.68016e-05 	0.0871572 	0.996195 	1.7078e-05 	0.0871565
1.56514 	0.996195 	1.60808e-05 	0.0871572 	0.996195 	1.63483e-05 	0.0871564
1.58064 	0.996195 	1.55078e-05 	0.0871571 	0.996195 	1.57657e-05 	0.0871564
1.59642 	0.996195 	1.47806e-05 	0.0871571 	0.996195 	1.50292e-05 	0.0871564
1.6122 	0.996195 	1.42027e-05 	0.087157 	0.996195 	1.44416e-05 	0.0871564
1.62827 	0.996195 	1.34714e-05 	0.087157 	0.996195 	1.37006e-05 	0.0871564
1.64434 	0.996195 	1.2889e-05 	0.0871569 	0.996195 	1.31083e-05 	0.0871563
1.6607 	0.996195 	1.21561e-05 	0.0871569 	0.996195 	1.23653e-05 	0.0871563
1.67707 	0.996195 	1.15698e-05 	0.0871568 	0.996195 	1.1769e-05 	0.0871563
1.69373 	0.996195 	1.08377e-05 	0.0871568 	0.996195 	1.10265e-05 	0.0871563
1.7104 	0.996195 	1.0248e-05 	0.0871567 	0.996195 	1.04266e-05 	0.0871563
1.72737 	0.996195 	9.51947e-06 	0.0871567 	0.996195 	9.68742e-06 	0.0871563
1.74434 	0.996195 	8.92693e-06 	0.0871566 	0.996195 	9.08443e-06 	0.0871562
1.76162 	0.996195 	8.20477e-06 	0.0871566 	0.996195 	8.35141e-06 	0.0871562
1.7789 	0.996195 	7.60998e-06 	0.0871565 	0.996195 	7.74599e-06 	0.0871562
1.7965 	0.996195 	6.89707e-06 	0.0871565 	0.996195 	7.02197e-06 	0.0871562
1.81409 	0.996195 	6.30064e-06 	0.0871564 	0.996195 	6.41474e-06 	0.0871562
1.83202 	0.996195 	5.59996e-06 	0.0871564 	0.996195 	5.70272e-06 	0.0871561
1.84994 	0.996195 	5.00254e-06 	0.0871564 	0.996195 	5.09434e-06 	0.0871561
1.86819 	0.996195 	4.31717e-06 	0.0871563 	0.996195 	4.39749e-06 	0.0871561
1.88644 	0.996195 	3.71945e-06 	0.0871563 	0.996195 	3.78865e-06 	0.0871561
1.90502 	0.996195 	3.05199e-06 	0.0871562 	0.996195 	3.10959e-06 	0.0871561
1.9236 	0.996195 	2.45482e-06 	0.0871562 	0.996195 	2.50115e-06 	0.0871561
1.94253 	0.996195 	1.81083e-06 	0.0871561 	0.996195 	1.8455e-06 	0.087156
1.96146 	0.996195 	1.21451e-06 	0.0871561 	0.996195 	1.23776e-06 	0.087156
1.98073 	0.996195 	5.96477e-07 	0.087156 	0.996195 	6.08054e-07 	0.087156
2 	0.996195 	0 	0.087156 	0.996195 	0 	0.087156
