0 1e-10
0.00128482 0.00812166
0.00256965 0.0173386
0.00387803 0.0166893
0.00518642 0.0158462
0.00651881 0.0154765
0.00785119 0.0149534
0.00831078 0.0148784
0.00877037 0.0148033
0.0096676 0.0145264
0.0105648 0.0142495
0.0119465 0.013941
0.0133283 0.013509
0.0138049 0.0133985
0.0142815 0.0132879
0.0152119 0.0129598
0.0161424 0.0126317
0.0175752 0.0121648
0.0190081 0.0115953
0.0204672 0.0110547
0.0219263 0.0104306
0.0224297 0.0102421
0.022933 0.0100535
0.0239156 0.00962989
0.0248981 0.00920628
0.0264113 0.00862245
0.0279244 0.00801367
0.0284464 0.00783077
0.0289683 0.00764788
0.0299873 0.00729743
0.0310063 0.00694698
0.0325754 0.0064976
0.0341446 0.00607966
0.0346858 0.0059577
0.0352271 0.00583574
0.0362838 0.00564059
0.0373405 0.00544545
0.0378917 0.00536105
0.0384429 0.00527665
0.0395189 0.00515529
0.040595 0.00503393
0.0422521 0.00489998
0.0439092 0.00480305
0.0455967 0.00473789
0.0472842 0.00469961
0.0490026 0.00467834
0.0507211 0.00467433
0.052471 0.00467756
0.054221 0.00469191
0.056003 0.0047083
0.0577851 0.00473285
0.0595998 0.00475604
0.0614146 0.00478472
0.0620405 0.00479272
0.0626665 0.00480071
0.0638886 0.00482015
0.0651106 0.0048396
0.0669925 0.00486541
0.0688745 0.00489481
0.0707909 0.00492055
0.0727073 0.0049497
0.0733684 0.00495782
0.0740294 0.00496594
0.07532 0.00498507
0.0766105 0.0050042
0.0785979 0.00502964
0.0805853 0.00505844
0.0826091 0.00508384
0.0846329 0.00511263
0.0866939 0.0051381
0.0887548 0.00516698
0.0908536 0.00519259
0.0929523 0.00522164
0.0950896 0.00524742
0.0972268 0.0052767
0.0994033 0.0053027
0.10158 0.00533224
0.103796 0.00535846
0.106012 0.00538827
0.108269 0.00541472
0.110526 0.0054448
0.112825 0.0054715
0.115123 0.00550184
0.117464 0.00552878
0.119804 0.00555939
0.122188 0.00558655
0.124571 0.00561741
0.126999 0.00564479
0.129426 0.00567589
0.131897 0.00570346
0.134369 0.00573475
0.136886 0.00576247
0.139403 0.00579393
0.139693 0.00579687
0.139982 0.00579981
0.142256 0.0058253
0.14453 0.00585329
0.146565 0.00587418
0.1486 0.0058988
0.149175 0.00590576
0.14975 0.00591272
0.152408 0.00594057
0.155066 0.00597213
0.157773 0.00599993
0.16048 0.00603143
0.163237 0.0060592
0.165993 0.00609066
0.1688 0.00611842
0.171607 0.00614988
0.174466 0.0061777
0.177324 0.00620924
0.180235 0.00623717
0.183146 0.00626886
0.186111 0.00629696
0.189075 0.00632886
0.192094 0.00635716
0.195113 0.00638931
0.198187 0.00641785
0.201261 0.00645028
0.204391 0.00647909
0.207522 0.00651182
0.21071 0.00654092
0.213898 0.00657398
0.217144 0.00660337
0.22039 0.00663675
0.223696 0.00666642
0.227002 0.00670012
0.230369 0.00673006
0.233735 0.00676406
0.237164 0.00679427
0.240592 0.00682856
0.244083 0.00685903
0.247574 0.00689361
0.251129 0.00692434
0.254685 0.00695921
0.258305 0.00699021
0.261925 0.0070254
0.265612 0.00705671
0.269299 0.00709224
0.273053 0.0071239
0.276808 0.00715983
0.280631 0.00719189
0.284454 0.00722829
0.288348 0.0072608
0.292241 0.0072977
0.296206 0.0073307
0.300171 0.00736815
0.304208 0.00740164
0.308246 0.00743965
0.312358 0.0074736
0.316469 0.00751211
0.320656 0.00754646
0.324843 0.00758542
0.329107 0.00762015
0.333371 0.00765954
0.337713 0.00769468
0.342055 0.00773452
0.346476 0.00777009
0.350898 0.00781043
0.355401 0.00784645
0.359903 0.00788729
0.364489 0.00792376
0.369074 0.00796511
0.373744 0.00800204
0.378413 0.0080439
0.383168 0.00808128
0.387923 0.00812364
0.392765 0.00816147
0.397608 0.00820434
0.402539 0.00824263
0.40747 0.00828601
0.412491 0.00832476
0.417513 0.00836865
0.422626 0.00840786
0.42774 0.00845225
0.432948 0.00849192
0.438155 0.00853682
0.443458 0.00857695
0.448761 0.00862237
0.454161 0.00866297
0.459561 0.00870891
0.46506 0.00874996
0.47056 0.00879642
0.47616 0.00883794
0.48176 0.00888492
0.487463 0.00892691
0.493165 0.00897441
0.498973 0.00901688
0.50478 0.0090649
0.510694 0.00910785
0.516608 0.0091564
0.52263 0.00919982
0.528653 0.00924891
0.534786 0.00929282
0.540918 0.00934244
0.547164 0.00938683
0.553409 0.00943699
0.559769 0.00948187
0.566129 0.00953258
0.572605 0.00957796
0.579082 0.00962921
0.585677 0.00967508
0.592272 0.00972689
0.598989 0.00977327
0.605705 0.00982563
0.612544 0.00987251
0.619384 0.00992543
0.626349 0.00997283
0.633314 0.0100263
0.640406 0.0100742
0.647499 0.0101283
0.654722 0.0101767
0.661944 0.0102314
0.669299 0.0102803
0.676655 0.0103355
0.684145 0.010385
0.691635 0.0104408
0.699262 0.0104909
0.70689 0.0105473
0.714657 0.0105978
0.722424 0.0106548
0.725104 0.0106711
0.727783 0.0106874
0.733013 0.0107255
0.738244 0.0107635
0.746299 0.0108152
0.754354 0.0108734
0.757132 0.0108901
0.759911 0.0109067
0.765335 0.0109456
0.770759 0.0109845
0.779112 0.0110373
0.787465 0.0110967
0.795971 0.0111501
0.804478 0.0112102
0.81314 0.0112641
0.821802 0.0113248
0.830623 0.0113794
0.839445 0.0114407
0.848428 0.0114959
0.857411 0.0115579
0.860509 0.0115756
0.863608 0.0115934
0.869657 0.0116348
0.875706 0.0116762
0.881866 0.0117113
0.888026 0.011753
0.891182 0.0117744
0.894337 0.0117959
0.903823 0.0118528
0.91331 0.0119168
0.92297 0.0119744
0.93263 0.012039
0.942468 0.0120972
0.952305 0.0121625
0.962323 0.0122214
0.972341 0.0122874
0.975797 0.0123063
0.979252 0.0123253
0.985998 0.0123694
0.992745 0.0124136
1.00313 0.0124736
1.01352 0.0125411
1.0241 0.0126018
1.03468 0.01267
1.04545 0.0127313
1.05623 0.0128002
1.0672 0.0128623
1.07817 0.0129318
1.08934 0.0129946
1.10051 0.0130649
1.11189 0.0131283
1.12327 0.0131993
1.13485 0.0132634
1.14644 0.0133351
1.15824 0.0133999
1.17004 0.0134724
1.18205 0.0135379
1.19407 0.0136111
1.2063 0.0136773
1.21854 0.0137513
1.23099 0.0138181
1.24345 0.0138929
1.25614 0.0139605
1.26883 0.014036
1.28175 0.0141043
1.29467 0.0141806
1.30783 0.0142495
1.32099 0.0143266
1.33439 0.0143963
1.34778 0.0144741
1.36143 0.0145445
1.37507 0.0146232
1.38897 0.0146942
1.40286 0.0147737
1.41701 0.0148455
1.43116 0.0149257
1.44557 0.0149982
1.45998 0.0150792
1.47466 0.0151524
1.48933 0.0152342
1.50427 0.0153082
1.51921 0.0153907
1.53443 0.0154654
1.54965 0.0155488
1.56514 0.0156242
1.58064 0.0157083
1.59642 0.0157844
1.6122 0.0158694
1.62827 0.0159462
1.64434 0.0160319
1.6607 0.0161095
1.67707 0.016196
1.69373 0.0162743
1.7104 0.0163616
1.72737 0.0164406
1.74434 0.0165287
1.76162 0.0166084
1.7789 0.0166973
1.7965 0.0167778
1.81409 0.0168675
1.83202 0.0169486
1.84994 0.0170391
1.86819 0.0171209
1.88644 0.0172121
1.90502 0.0172924
1.9236 0.0173818
1.94253 0.01741
1.96146 0.0174403
1.98073 0.0168844
2 0.0162502
