0 1e-10
0.000963618 0.00237442
0.00192724 0.00668624
0.00290853 0.00720815
0.00388982 0.00836219
0.00488911 0.00891178
0.0058884 0.00935125
0.00690601 0.00979295
0.00792363 0.00963798
0.00895991 0.00990501
0.00999619 0.00915596
0.0110515 0.00925627
0.0121068 0.00826523
0.0131814 0.00811005
0.0142561 0.00721071
0.0153504 0.00683474
0.0164448 0.00608819
0.0175592 0.00565188
0.0186736 0.00505138
0.0198085 0.00463715
0.0209433 0.00418262
0.022099 0.00380692
0.0232547 0.00352518
0.0244316 0.00318033
0.0256084 0.00303699
0.0268069 0.00273823
0.0280054 0.00265688
0.0292258 0.00240128
0.0304462 0.00234468
0.0316891 0.00211873
0.0329319 0.00208153
0.0341975 0.0018849
0.0354631 0.00186112
0.036752 0.00170763
0.0380408 0.00169305
0.0393533 0.00159098
0.0406657 0.0015844
0.0420023 0.0015228
0.0433388 0.00151929
0.0446999 0.00148034
0.0460609 0.00147704
0.047447 0.00144949
0.048833 0.00144598
0.0502444 0.001424
0.0516559 0.00141887
0.0530932 0.00139954
0.0545305 0.00139244
0.0559942 0.00137744
0.0574579 0.00136817
0.0589484 0.00135692
0.060439 0.00134487
0.0619568 0.00133396
0.0634747 0.001321
0.0650204 0.0013145
0.0665661 0.00130574
0.0681402 0.00130667
0.0697143 0.00130306
0.0713172 0.00130904
0.0729201 0.00130957
0.0745524 0.0013221
0.0761848 0.00132785
0.077847 0.00135086
0.0795093 0.00136159
0.0812021 0.00140404
0.0828948 0.00142208
0.0846186 0.00148697
0.0863424 0.00151465
0.0880979 0.00159008
0.0898533 0.00162794
0.0916409 0.00170862
0.0934285 0.00175234
0.0952489 0.00183353
0.0970693 0.00188358
0.0989231 0.00196491
0.100777 0.00202935
0.102665 0.0021109
0.104552 0.00220624
0.106475 0.00227248
0.108397 0.00239434
0.110355 0.00242278
0.112313 0.00254666
0.114306 0.00252677
0.1163 0.00260822
0.11833 0.00254431
0.12036 0.00255882
0.122428 0.00243256
0.124495 0.00239963
0.1266 0.00220207
0.128705 0.00211649
0.130849 0.0018832
0.132993 0.00172126
0.135177 0.00150696
0.13736 0.0012765
0.139583 0.00112239
0.141806 0.000885242
0.14407 0.000797742
0.146334 0.000618398
0.14864 0.000575825
0.150946 0.000472892
0.153293 0.000451503
0.155641 0.000402861
0.158032 0.000391025
0.160423 0.000367866
0.162858 0.000360291
0.165293 0.000347816
0.167772 0.000342408
0.170252 0.000334625
0.172776 0.000331051
0.175301 0.000325598
0.177873 0.000323897
0.180444 0.000320379
0.183062 0.000319819
0.185681 0.000318084
0.188347 0.000318061
0.191013 0.00031742
0.193729 0.000317795
0.196444 0.000317753
0.199209 0.000318545
0.201974 0.000318936
0.20479 0.000320019
0.207606 0.000320831
0.210473 0.000322062
0.213341 0.000323156
0.216261 0.000324519
0.219181 0.000325751
0.222155 0.00032723
0.225128 0.000328583
0.228156 0.00033014
0.231184 0.000331603
0.234268 0.000333211
0.237352 0.000334752
0.240492 0.000336398
0.243632 0.00033799
0.24683 0.00033966
0.250028 0.000341288
0.253285 0.000342976
0.256541 0.000344631
0.259857 0.000346335
0.263174 0.000348009
0.266551 0.000349731
0.269928 0.000351413
0.273367 0.000353152
0.276806 0.000354837
0.280308 0.000356596
0.28381 0.00035829
0.287376 0.000360067
0.290942 0.000361778
0.294574 0.000363565
0.298206 0.000365293
0.301904 0.000367085
0.305602 0.000368824
0.309368 0.000370624
0.313135 0.000372372
0.31697 0.000374184
0.320805 0.000375942
0.324711 0.000377771
0.328616 0.000379543
0.332593 0.00038139
0.336571 0.000383177
0.340621 0.000385044
0.344671 0.000386849
0.348795 0.000388741
0.35292 0.000390566
0.35712 0.000392487
0.36132 0.000394337
0.365597 0.000396287
0.369874 0.000398166
0.37423 0.000400146
0.378585 0.000402053
0.383021 0.000404062
0.387456 0.000405999
0.391973 0.000408038
0.39649 0.000410004
0.401089 0.000412073
0.405689 0.000414069
0.410373 0.00041617
0.415057 0.000418196
0.419827 0.000420331
0.424597 0.000422389
0.429454 0.000424559
0.434311 0.000426651
0.439258 0.000428859
0.444204 0.000430987
0.449241 0.000433233
0.454279 0.000435398
0.459408 0.000437684
0.464538 0.000439888
0.469761 0.000442217
0.474985 0.000444462
0.480305 0.000446833
0.485624 0.000449119
0.491041 0.000451535
0.496458 0.000453864
0.501975 0.000456327
0.507491 0.000458701
0.513109 0.000461211
0.518726 0.000463632
0.524447 0.000466192
0.530167 0.00046866
0.535993 0.000471271
0.541818 0.000473789
0.547751 0.000476455
0.553683 0.000479025
0.559724 0.000481747
0.565765 0.000484372
0.571917 0.000487152
0.578069 0.000489834
0.584334 0.000492674
0.590599 0.000495414
0.596979 0.000498316
0.603358 0.000501117
0.609855 0.000504085
0.616352 0.000506949
0.622968 0.000509986
0.629583 0.000512917
0.636321 0.000516027
0.643058 0.00051903
0.649919 0.000522215
0.656779 0.000525291
0.663766 0.000528552
0.670753 0.000531705
0.677867 0.000535047
0.684982 0.000538276
0.692227 0.000541703
0.699473 0.000545014
0.706851 0.000548528
0.714229 0.000551926
0.721742 0.000555535
0.729256 0.000559023
0.736907 0.000562728
0.744558 0.000566313
0.75235 0.00057012
0.760142 0.000573804
0.768076 0.000577717
0.776011 0.000581505
0.784091 0.000585527
0.792171 0.000589424
0.800399 0.000593562
0.808627 0.000597571
0.817006 0.000601826
0.825385 0.000605954
0.833918 0.000610337
0.842451 0.000614585
0.85114 0.000619094
0.85983 0.000623474
0.868678 0.000628118
0.877527 0.000632628
0.886538 0.00063741
0.895549 0.000642058
0.904725 0.000646986
0.913901 0.000651778
0.923246 0.000656847
0.93259 0.00066178
0.942106 0.000667014
0.951622 0.000672118
0.961313 0.000677478
0.971003 0.000682688
0.980872 0.000688273
0.99074 0.00069374
1.00079 0.00069936
1.01084 0.000704816
1.02107 0.000710814
1.03131 0.000716703
1.04173 0.000722551
1.05215 0.000728247
1.06276 0.000734663
1.07337 0.000740935
1.08418 0.000747092
1.09499 0.000753154
1.10599 0.000759831
1.117 0.000766312
1.1282 0.000772964
1.13941 0.000779539
1.15082 0.000786353
1.16224 0.000793018
1.17386 0.0008001
1.18548 0.000807035
1.19731 0.000814188
1.20915 0.000821255
1.2212 0.000828519
1.23325 0.000835638
1.24553 0.000843181
1.2578 0.000850589
1.2703 0.000858144
1.2828 0.000865609
1.29552 0.000873328
1.30825 0.000880926
1.32121 0.000888777
1.33417 0.0008965
1.34737 0.00090449
1.36057 0.00091238
1.37401 0.000920396
1.38745 0.000928311
1.40114 0.00093648
1.41483 0.000944535
1.42877 0.000952758
1.4427 0.000960873
1.4569 0.000975216
1.47109 0.000989225
1.48555 0.000992448
1.5 0.000995685
1.50339 0.00099684
1.50679 0.000997994
1.5136 0.000999961
1.52041 0.00100193
1.52046 0.00100195
1.5205 0.00100197
1.52751 0.00100491
1.53451 0.00100787
1.53809 0.00100925
1.54167 0.00101063
1.54524 0.00101224
1.54882 0.00101385
1.55612 0.00101689
1.56343 0.00101997
1.56363 0.00102005
1.56383 0.00102013
1.57109 0.00102364
1.57835 0.00102714
1.58265 0.00102908
1.58696 0.00103101
1.59027 0.0010327
1.59359 0.00103439
1.60137 0.0010381
1.60915 0.00104195
1.61013 0.00104243
1.61111 0.0010429
1.61807 0.00104668
1.62504 0.00105045
1.6307 0.00105335
1.63636 0.00105624
1.63881 0.00105763
1.64127 0.00105901
1.64955 0.00106345
1.65784 0.00106822
1.66031 0.00106957
1.66279 0.00107091
1.66878 0.00107449
1.67476 0.00107807
1.68262 0.00108252
1.69048 0.00108698
1.69126 0.00108747
1.69205 0.00108795
1.70087 0.0010934
1.7097 0.00109895
1.7146 0.00110189
1.71951 0.00110483
1.72362 0.00110749
1.72772 0.00111015
1.73693 0.00111586
1.74613 0.00112181
1.74806 0.00112304
1.75 0.00112426
1.75746 0.00112935
1.76493 0.00113444
1.77349 0.00114005
1.78205 0.00114566
1.78309 0.00114638
1.78412 0.00114711
1.79393 0.00115402
1.80373 0.00116106
1.80976 0.00116523
1.81579 0.0011694
1.81977 0.00117233
1.82375 0.00117526
1.83397 0.0011825
1.8442 0.00119017
1.84777 0.00119275
1.85135 0.00119532
1.85821 0.00120057
1.86508 0.00120582
1.87574 0.00121361
1.8864 0.00122155
1.88764 0.00122245
1.88889 0.00122335
1.89853 0.00123077
1.90818 0.00123818
1.91837 0.00124608
1.92857 0.00125398
1.92949 0.00125474
1.93041 0.0012555
1.94177 0.0012622
1.95312 0.00126901
1.96186 0.00127829
1.97059 0.00128757
1.97345 0.00129071
1.97632 0.00129385
1.98816 0.00130204
2 0.00131025
