0 	0.0443601
0.00123105 	0.0443461
0.0024621 	0.0443541
0.00251587 	0.0443553
0.00256965 	0.0443566
0.00355588 	0.0443065
0.00454212 	0.0442595
0.00486427 	0.0442522
0.00518642 	0.0442449
0.00646304 	0.0441084
0.00773966 	0.0439546
0.00779543 	0.0439472
0.00785119 	0.0439398
0.00887394 	0.0437765
0.00989668 	0.0436062
0.0102308 	0.0435321
0.0105648 	0.043458
0.0119465 	0.0431827
0.0133283 	0.0428204
0.0146764 	0.0425249
0.0160246 	0.0421159
0.0160835 	0.0420934
0.0161424 	0.0420708
0.0172224 	0.0418307
0.0183025 	0.041564
0.0186553 	0.0414077
0.0190081 	0.0412513
0.0204672 	0.0409353
0.0219263 	0.040389
0.0233501 	0.0400954
0.0247738 	0.0395706
0.024836 	0.0395381
0.0248981 	0.0395056
0.0260387 	0.0392745
0.0271793 	0.0390007
0.0275519 	0.0387995
0.0279244 	0.0385983
0.0294653 	0.0382643
0.0310063 	0.0376312
0.0325754 	0.0372397
0.0341446 	0.0365595
0.0357425 	0.0360793
0.0373405 	0.035334
0.0389677 	0.0347447
0.040595 	0.0339216
0.0422521 	0.0332197
0.0439092 	0.0323177
0.0455261 	0.0315468
0.0471429 	0.0306313
0.0472135 	0.0305853
0.0472842 	0.0305394
0.0485795 	0.0298693
0.0498748 	0.0291788
0.0502979 	0.0288996
0.0507211 	0.0286204
0.052471 	0.0276749
0.054221 	0.0266152
0.056003 	0.0256536
0.0577851 	0.0246013
0.0595998 	0.0236661
0.0614146 	0.0226601
0.0629577 	0.0219311
0.0645009 	0.0211805
0.0648058 	0.021022
0.0651106 	0.0208635
0.0667609 	0.020182
0.0684111 	0.0194848
0.0686428 	0.0193832
0.0688745 	0.0192816
0.0707107 	0.0186582
0.0725469 	0.0180343
0.0726271 	0.018007
0.0727073 	0.0179797
0.0741784 	0.0176063
0.0756495 	0.017237
0.07613 	0.017127
0.0766105 	0.0170171
0.0785979 	0.0167036
0.0805853 	0.0164549
0.0825244 	0.0163546
0.0844635 	0.0163479
0.0845482 	0.0163514
0.0846329 	0.016355
0.0861864 	0.016445
0.0877399 	0.0165569
0.0882474 	0.0166505
0.0887548 	0.016744
0.0908536 	0.0170616
0.0929523 	0.0175504
0.0950896 	0.0180211
0.0972268 	0.0186522
0.0994033 	0.0192178
0.10158 	0.0199076
0.103796 	0.0204712
0.106012 	0.0211212
0.108269 	0.0215801
0.110526 	0.0221017
0.112825 	0.0223613
0.115123 	0.0226845
0.1157 	0.022686
0.116276 	0.0226874
0.11804 	0.0226919
0.119804 	0.022776
0.121894 	0.0225584
0.123984 	0.022396
0.124278 	0.022386
0.124571 	0.0223761
0.126999 	0.0218879
0.129426 	0.0215245
0.131897 	0.0208136
0.134369 	0.0202687
0.136886 	0.0193627
0.139403 	0.0186744
0.141544 	0.0177872
0.143684 	0.0170203
0.144107 	0.0169256
0.14453 	0.0168309
0.14453 	0.0168309
0.146662 	0.015858
0.148794 	0.0150154
0.149272 	0.0149109
0.14975 	0.0148064
0.152408 	0.0134984
0.155066 	0.0126316
0.157773 	0.0111948
0.16048 	0.0102928
0.163237 	0.00868952
0.165993 	0.00773386
0.1688 	0.00590305
0.171607 	0.0048639
0.174466 	0.00272221
0.177324 	0.00155067
0.180235 	-0.000993557
0.183146 	-0.00236549
0.183146 	-0.00236549
0.186111 	-0.00535548
0.189075 	-0.00697166
0.192094 	-0.010357
0.195113 	-0.0121963
0.198187 	-0.0158355
0.201261 	-0.0178161
0.204335 	-0.0213555
0.207409 	-0.0233475
0.207465 	-0.0233609
0.207522 	-0.0233742
0.209849 	-0.0256308
0.212176 	-0.0277962
0.213037 	-0.0279511
0.213898 	-0.0281059
0.217144 	-0.0302619
0.22039 	-0.0313337
0.223696 	-0.0322588
0.227002 	-0.032556
0.230308 	-0.0320128
0.233614 	-0.031336
0.233674 	-0.0313215
0.233735 	-0.0313071
0.236238 	-0.0297585
0.238741 	-0.0282304
0.239666 	-0.02781
0.240592 	-0.0273896
0.244083 	-0.0236639
0.247574 	-0.0207068
0.247574 	-0.0207068
0.251129 	-0.0154839
0.254685 	-0.011415
0.258305 	-0.00506677
0.261925 	-0.000212452
0.265612 	0.00689555
0.269299 	0.0121803
0.273053 	0.0193433
0.276808 	0.0244192
0.280631 	0.0309672
0.284454 	0.0352917
0.288348 	0.0408867
0.292241 	0.0442876
0.296206 	0.0485622
0.300171 	0.0508251
0.304208 	0.0536034
0.308246 	0.0546495
0.312358 	0.055965
0.316469 	0.0558241
0.320656 	0.0561397
0.324843 	0.0551753
0.329107 	0.055142
0.333371 	0.0540773
0.337713 	0.0540286
0.342055 	0.0534096
0.346476 	0.0532323
0.350898 	0.0530426
0.355401 	0.0523431
0.359903 	0.0521431
0.364489 	0.0507081
0.369074 	0.0501226
0.373744 	0.0479782
0.378413 	0.0468571
0.378413 	0.0468571
0.383168 	0.0441077
0.387923 	0.0424237
0.392765 	0.0390978
0.397608 	0.0368247
0.402539 	0.032963
0.40747 	0.0301107
0.41225 	0.026349
0.41703 	0.0232604
0.417271 	0.0231378
0.417513 	0.0230153
0.422626 	0.0198503
0.42774 	0.0170837
0.431698 	0.0158375
0.435655 	0.0145742
0.436905 	0.0141378
0.438155 	0.0137013
0.443458 	0.0137137
0.448761 	0.0131955
0.453901 	0.0142491
0.459042 	0.0146977
0.459302 	0.0146903
0.459561 	0.0146829
0.463741 	0.0155693
0.46792 	0.0163487
0.46924 	0.0163617
0.47056 	0.0163748
0.47616 	0.0168134
0.48176 	0.0168462
0.487463 	0.0162652
0.493165 	0.0155075
0.498973 	0.0138542
0.50478 	0.0121795
0.510694 	0.00950715
0.516608 	0.0068747
0.522341 	0.00341233
0.528074 	-1.51325e-05
0.528363 	-0.000186497
0.528653 	-0.000357861
0.534786 	-0.00491695
0.540918 	-0.00943108
0.545665 	-0.013603
0.550411 	-0.0177605
0.55191 	-0.0190422
0.553409 	-0.0203238
0.559463 	-0.0265513
0.565517 	-0.0326472
0.565823 	-0.0329486
0.566129 	-0.0332499
0.572605 	-0.0410473
0.579082 	-0.0485946
0.584094 	-0.0555907
0.589107 	-0.0625159
0.59069 	-0.0645481
0.592272 	-0.0665803
0.598989 	-0.0771734
0.605705 	-0.0869877
0.612216 	-0.0980603
0.618726 	-0.108036
0.619055 	-0.108486
0.619384 	-0.108935
0.619719 	-0.109503
0.620053 	-0.11007
0.626684 	-0.121311
0.633314 	-0.130699
0.638022 	-0.137813
0.64273 	-0.144927
0.643412 	-0.145957
0.644094 	-0.14664
0.645797 	-0.148344
0.647499 	-0.150047
0.654722 	-0.158414
0.661944 	-0.165027
0.669299 	-0.170342
0.676655 	-0.174733
0.683785 	-0.176746
0.690915 	-0.178859
0.691275 	-0.178971
0.691635 	-0.179083
0.699262 	-0.177641
0.70689 	-0.17749
0.713725 	-0.172532
0.72056 	-0.168921
0.721492 	-0.168725
0.722424 	-0.16853
0.730334 	-0.159416
0.738244 	-0.152344
0.744945 	-0.1449
0.751646 	-0.137538
0.753 	-0.13609
0.754354 	-0.134643
0.761572 	-0.129768
0.76879 	-0.123971
0.769775 	-0.122978
0.770759 	-0.121984
0.779112 	-0.120148
0.787465 	-0.116038
0.795971 	-0.11652
0.804478 	-0.115071
0.812724 	-0.114861
0.820969 	-0.114246
0.821386 	-0.114194
0.821802 	-0.114143
0.828506 	-0.111494
0.83521 	-0.109108
0.837328 	-0.108928
0.839445 	-0.108748
0.846918 	-0.102067
0.854391 	-0.0966292
0.855901 	-0.0961496
0.857411 	-0.09567
0.866558 	-0.0840694
0.875706 	-0.0745441
0.885021 	-0.0636045
0.894337 	-0.0534488
0.901547 	-0.0475647
0.908756 	-0.0417851
0.911033 	-0.0401876
0.91331 	-0.0385901
0.92297 	-0.0333946
0.93263 	-0.0286235
0.940814 	-0.0257208
0.948998 	-0.0229363
0.950652 	-0.0224327
0.952305 	-0.021929
0.961121 	-0.0198892
0.969937 	-0.0179557
0.971139 	-0.0177155
0.972341 	-0.0174754
0.980828 	-0.0161867
0.989315 	-0.0149411
0.99103 	-0.014711
0.992745 	-0.0144808
1.00189 	-0.0135995
1.01103 	-0.0127447
1.01228 	-0.012634
1.01352 	-0.0125233
1.0241 	-0.0118921
1.03468 	-0.0112624
1.04545 	-0.0108713
1.05623 	-0.0104515
1.0672 	-0.0102048
1.07817 	-0.00991223
1.08934 	-0.00974121
1.10051 	-0.00951576
1.10051 	-0.00951576
1.11189 	-0.00937402
1.12327 	-0.00917373
1.13485 	-0.00903088
1.14644 	-0.00882754
1.15824 	-0.00866671
1.17004 	-0.00844478
1.18205 	-0.00826011
1.19407 	-0.00801549
1.2063 	-0.00780842
1.21854 	-0.00754377
1.22974 	-0.00734233
1.24095 	-0.00710542
1.2422 	-0.00707338
1.24345 	-0.00704134
1.25376 	-0.0068516
1.26407 	-0.00664424
1.26645 	-0.00658403
1.26883 	-0.00652382
1.28045 	-0.00631188
1.29207 	-0.00607001
1.29337 	-0.00603828
1.29467 	-0.00600655
1.30536 	-0.00581901
1.31605 	-0.00561705
1.31852 	-0.00556033
1.32099 	-0.0055036
1.33439 	-0.00528345
1.34778 	-0.00502669
1.35878 	-0.00486168
1.36977 	-0.00468625
1.37242 	-0.00463566
1.37507 	-0.00458507
1.38767 	-0.0044165
1.40026 	-0.00422935
1.40156 	-0.00420743
1.40286 	-0.00418551
1.41701 	-0.00402063
1.43116 	-0.0038324
1.44412 	-0.00370431
1.45708 	-0.00356355
1.45853 	-0.00354582
1.45998 	-0.0035281
1.4719 	-0.00343102
1.48383 	-0.00332835
1.48658 	-0.00330074
1.48933 	-0.00327313
1.50427 	-0.00317627
1.51921 	-0.00306646
1.53443 	-0.00299134
1.54965 	-0.00290585
1.56359 	-0.00285666
1.57752 	-0.0028021
1.57908 	-0.00279515
1.58064 	-0.00278821
1.59346 	-0.0027591
1.60628 	-0.00272768
1.60924 	-0.00271881
1.6122 	-0.00270995
1.62827 	-0.0026913
1.64434 	-0.00266731
1.6607 	-0.0026642
1.67707 	-0.00265666
1.69373 	-0.00266753
1.7104 	-0.00267464
1.72737 	-0.00269808
1.74434 	-0.00271824
1.76162 	-0.00275303
1.7789 	-0.00278485
1.7965 	-0.00282981
1.81409 	-0.00287201
1.83202 	-0.00292601
1.84994 	-0.00297739
1.86819 	-0.00303924
1.88644 	-0.00309854
1.90502 	-0.0031669
1.9236 	-0.00323276
1.94063 	-0.00329953
1.95765 	-0.00336469
1.95955 	-0.00337172
1.96146 	-0.00337875
1.96146 	-0.00337875
1.98073 	-0.00345378
2 	-0.00352646
