0 1e-10
0.00128482 0.00962388
0.00256965 0.0204191
0.00387544 0.0187308
0.00518124 0.0161674
0.00518383 0.0161624
0.00518642 0.0161573
0.00573601 0.0156265
0.00628559 0.0150926
0.00706839 0.0138688
0.00785119 0.012645
0.00920802 0.0111123
0.0105648 0.00916779
0.0119465 0.00759334
0.0133283 0.0059524
0.0147325 0.00464493
0.0161368 0.00358698
0.0161396 0.00358488
0.0161424 0.00358278
0.0161452 0.00358099
0.016148 0.00357921
0.0173187 0.00284153
0.0184894 0.00241614
0.0187488 0.00232191
0.0190081 0.00222769
0.0204672 0.00180247
0.0219263 0.00156935
0.0234122 0.00136754
0.0248981 0.0012474
0.0255223 0.00119834
0.0261464 0.00114944
0.0270354 0.00110435
0.0279244 0.00105926
0.0294653 0.000986166
0.0310063 0.000935231
0.0325754 0.000884317
0.0341446 0.000850137
0.0357394 0.000813786
0.0373342 0.000788489
0.0373373 0.000788439
0.0373405 0.000788389
0.0380117 0.000776526
0.0386829 0.000764696
0.0396389 0.000752836
0.040595 0.000740976
0.0422521 0.000719739
0.0439092 0.000702988
0.0455967 0.000685709
0.0472842 0.000671017
0.0490026 0.000656384
0.0507211 0.000642775
0.0524676 0.000629992
0.0542141 0.000617023
0.0542175 0.000616997
0.054221 0.000616971
0.056003 0.000605507
0.0577851 0.000593035
0.0585336 0.000588888
0.0592822 0.000584733
0.0603484 0.000577625
0.0614146 0.000570517
0.0632626 0.000560876
0.0651106 0.000548789
0.0669925 0.000539681
0.0688745 0.000527252
0.0707909 0.000518513
0.0727073 0.000505576
0.0746589 0.000497112
0.0766105 0.000483649
0.0785979 0.000475392
0.0805853 0.000461385
0.0817743 0.000457504
0.0829633 0.000450838
0.0837981 0.000444868
0.0846329 0.000438899
0.085058 0.000437628
0.085483 0.000436356
0.0871189 0.000428162
0.0887548 0.000416469
0.0908536 0.000409116
0.0929523 0.000394358
0.0950896 0.000387384
0.0972268 0.000372882
0.0994033 0.000366426
0.10158 0.00035252
0.103796 0.000346811
0.106012 0.00033396
0.108265 0.000329176
0.110518 0.000317887
0.110522 0.000317864
0.110526 0.000317842
0.111474 0.000316748
0.112423 0.000315628
0.113773 0.000310067
0.115123 0.000304507
0.117464 0.000301434
0.119804 0.000293867
0.122188 0.000291548
0.124571 0.000285893
0.126999 0.000284372
0.129426 0.000280605
0.131897 0.000279616
0.134369 0.000277267
0.136886 0.000276603
0.139403 0.000275085
0.141967 0.00027474
0.14453 0.000273715
0.147135 0.00027351
0.14974 0.000272679
0.149745 0.000272677
0.14975 0.000272676
0.150847 0.000272624
0.151943 0.000272568
0.153505 0.000271952
0.155066 0.000271337
0.157773 0.000270824
0.16048 0.000269176
0.163237 0.000268335
0.165993 0.000265864
0.1688 0.000264738
0.171607 0.000261474
0.174466 0.000260069
0.177324 0.000256123
0.180235 0.000254495
0.183146 0.000250443
0.184888 0.000249699
0.18663 0.00024815
0.187852 0.000246691
0.189075 0.000245232
0.19032 0.000244625
0.191565 0.000244011
0.193339 0.000242195
0.195113 0.00024038
0.198181 0.000238443
0.201249 0.000235704
0.201255 0.000235698
0.201261 0.000235693
0.203837 0.000233979
0.206413 0.000231968
0.206968 0.000231535
0.207522 0.000231102
0.210703 0.000228752
0.213885 0.000226601
0.213891 0.000226597
0.213898 0.000226593
0.217144 0.000224064
0.22039 0.000222283
0.223696 0.00021954
0.227002 0.000218062
0.230369 0.00021505
0.233735 0.000213666
0.236557 0.000210685
0.239378 0.000209591
0.239985 0.000209356
0.240592 0.000209121
0.24305 0.000206314
0.245509 0.000205162
0.246542 0.000204816
0.247574 0.00020447
0.251129 0.000200737
0.254685 0.000199524
0.258305 0.000195541
0.261925 0.000193923
0.265612 0.000189609
0.269299 0.000187559
0.270848 0.000185528
0.272396 0.000183508
0.274602 0.000182156
0.276808 0.000180804
0.280631 0.000176306
0.284454 0.000173753
0.287196 0.000170402
0.289938 0.00016811
0.29109 0.000167236
0.292241 0.000166362
0.295041 0.00016335
0.297841 0.000160862
0.299006 0.00015987
0.300171 0.000158877
0.303014 0.000156336
0.305858 0.000153749
0.307052 0.000152658
0.308246 0.000151568
0.312358 0.000148161
0.316469 0.000143405
0.318196 0.00014222
0.319923 0.000141018
0.322383 0.000136801
0.324843 0.000132584
0.329099 0.000129696
0.333354 0.000121977
0.333362 0.000121961
0.333371 0.000121946
0.333379 0.000121947
0.333388 0.000121948
0.337721 0.000121592
0.342055 0.000117369
0.345169 0.0001202
0.348283 0.00012137
0.34959 0.000121723
0.350898 0.000122075
0.354078 0.000128922
0.357258 0.000134321
0.358581 0.00013645
0.359903 0.000138579
0.36448 0.00015756
0.369056 0.000174445
0.369065 0.000174479
0.369074 0.000174512
0.371 0.000183908
0.372926 0.000193303
0.37567 0.000206744
0.378413 0.000220184
0.381762 0.000228516
0.385111 0.000238307
0.386517 0.00024254
0.387923 0.000246773
0.391343 0.000245136
0.394763 0.000245045
0.396185 0.000245131
0.397608 0.000245218
0.402539 0.000233494
0.40747 0.000224805
0.412491 0.000212595
0.417513 0.000204557
0.421114 0.000200666
0.424716 0.000199395
0.426228 0.00019908
0.42774 0.000198765
0.430349 0.000200143
0.432958 0.000202211
0.435556 0.000205487
0.438155 0.000208764
0.443458 0.000220305
0.448761 0.000235367
0.454161 0.000257431
0.459561 0.00028352
0.46506 0.000321852
0.47056 0.000365874
0.474504 0.000409954
0.478447 0.000461997
0.480104 0.000484516
0.48176 0.000507035
0.487463 0.000585105
0.493165 0.000679329
0.495561 0.000699225
0.497956 0.000719187
0.501368 0.000757432
0.50478 0.000795677
0.510682 0.000805754
0.516585 0.000823732
0.516596 0.000823768
0.516608 0.000823804
0.519092 0.000815652
0.521576 0.00080751
0.525115 0.000797453
0.528653 0.000787397
0.532972 0.000762459
0.537291 0.000736662
0.539105 0.000725757
0.540918 0.000714852
0.547164 0.000673165
0.553409 0.000630148
0.557901 0.000605701
0.562392 0.000580652
0.564261 0.000570184
0.566129 0.000559716
0.572605 0.000546492
0.579082 0.000534179
0.585664 0.000551463
0.592246 0.000576756
0.592259 0.000576806
0.592272 0.000576856
0.595043 0.000590094
0.597813 0.000603417
0.601759 0.000635023
0.605705 0.000666628
0.612531 0.000693757
0.619357 0.00073804
0.61937 0.000738128
0.619384 0.000738215
0.622257 0.000738996
0.62513 0.000739745
0.629222 0.000736096
0.633314 0.000732448
0.638309 0.0007202
0.643304 0.000682455
0.645401 0.000664478
0.647499 0.0006465
0.654722 0.000613509
0.661944 0.000542056
0.669299 0.00051725
0.676655 0.000471531
0.684145 0.000457807
0.691635 0.000437228
0.69165 0.000437215
0.691665 0.000437203
0.699277 0.000430311
0.70689 0.000420556
0.713954 0.000417138
0.721019 0.000410795
0.721722 0.000410164
0.722424 0.000409533
0.730334 0.000406761
0.738244 0.000401361
0.746299 0.000400336
0.754354 0.000397021
0.760147 0.000398292
0.76594 0.000397492
0.768349 0.000396992
0.770759 0.000396492
0.779096 0.000398763
0.787432 0.00039746
0.787449 0.000397457
0.787465 0.000397454
0.790974 0.000397885
0.794483 0.000398295
0.79948 0.000395957
0.804478 0.000393619
0.813123 0.000387381
0.821768 0.000376867
0.821785 0.000376846
0.821802 0.000376825
0.825441 0.000370416
0.829079 0.000363992
0.834262 0.000352763
0.839445 0.000341534
0.847615 0.000318432
0.855785 0.000294994
0.856598 0.000292663
0.857411 0.000290331
0.866558 0.000263706
0.875706 0.000238825
0.882285 0.000226498
0.888864 0.00021556
0.8916 0.000211123
0.894337 0.000206685
0.903823 0.000198625
0.91331 0.000191148
0.92297 0.000184014
0.93263 0.000176222
0.941578 0.000169058
0.950525 0.00016034
0.951415 0.000159472
0.952305 0.000158605
0.95938 0.000153458
0.966455 0.000146749
0.969398 0.000143832
0.972341 0.000140915
0.982543 0.000132868
0.992745 0.000123099
1.00313 0.000113689
1.01352 0.000104228
1.02097 9.60574e-05
1.02842 8.93549e-05
1.03155 8.66629e-05
1.03468 8.39709e-05
1.04545 7.0435e-05
1.05623 6.13164e-05
1.0672 4.68463e-05
1.07817 3.92485e-05
1.08934 2.97856e-05
1.10051 2.57356e-05
1.11189 2.24807e-05
1.12327 2.0992e-05
1.13145 2.03447e-05
1.13963 1.99667e-05
1.14304 1.98312e-05
1.14644 1.96957e-05
1.15824 1.96405e-05
1.17004 1.96669e-05
1.1785 1.99087e-05
1.18696 2.02244e-05
1.19051 2.03632e-05
1.19407 2.0502e-05
1.20271 2.10807e-05
1.21135 2.1785e-05
1.21494 2.20882e-05
1.21854 2.23913e-05
1.22731 2.32989e-05
1.23608 2.43767e-05
1.23977 2.48435e-05
1.24345 2.53102e-05
1.25614 2.66558e-05
1.26883 2.82996e-05
1.28175 2.91967e-05
1.29467 3.04612e-05
1.30783 3.09886e-05
1.32099 3.19399e-05
1.33045 3.19469e-05
1.33991 3.23419e-05
1.34385 3.25375e-05
1.34778 3.27332e-05
1.36143 3.25304e-05
1.37507 3.27861e-05
1.38897 3.25244e-05
1.40286 3.20826e-05
1.41283 3.17097e-05
1.42279 3.07293e-05
1.42698 3.02669e-05
1.43116 2.98045e-05
1.44557 2.84856e-05
1.45998 2.62768e-05
1.47034 2.54509e-05
1.48071 2.43123e-05
1.48502 2.38135e-05
1.48933 2.33146e-05
1.50427 2.25397e-05
1.51921 2.16603e-05
1.53443 2.13176e-05
1.54965 2.09187e-05
1.56514 2.07759e-05
1.58064 2.06041e-05
1.59642 2.05515e-05
1.6122 2.04879e-05
1.62827 2.04824e-05
1.64434 2.04704e-05
1.65586 2.04924e-05
1.66739 2.05046e-05
1.67223 2.05089e-05
1.67707 2.05132e-05
1.68884 2.0572e-05
1.70061 2.061e-05
1.7055 2.0624e-05
1.7104 2.06381e-05
1.72737 2.07774e-05
1.74434 2.0889e-05
1.76162 2.10677e-05
1.7789 2.12445e-05
1.7965 2.1429e-05
1.81409 2.16324e-05
1.83202 2.18092e-05
1.84994 2.20027e-05
1.86819 2.22002e-05
1.88644 2.23931e-05
1.90502 2.26004e-05
1.9236 2.28003e-05
1.94253 2.29342e-05
1.96146 2.30711e-05
1.98073 2.31215e-05
2 2.31752e-05
