0 1e-10
0.000204505 0.000842448
0.00040901 0.0016849
0.00148933 0.00574711
0.00256965 0.00980933
0.00387803 0.00926414
0.00518642 0.00871541
0.00651881 0.00817905
0.00785119 0.00763485
0.00920802 0.00706829
0.0105648 0.0065064
0.0119465 0.00591612
0.0133283 0.00534993
0.0147353 0.00477671
0.0161424 0.00424462
0.0175752 0.00374348
0.0190081 0.00328995
0.0204672 0.0029008
0.0219263 0.00255334
0.0234122 0.00228805
0.0248981 0.00205334
0.0264113 0.00189723
0.0279244 0.0017612
0.0294653 0.00167865
0.0310063 0.00160738
0.0325754 0.00156025
0.0341446 0.00151791
0.0343989 0.00151139
0.0346533 0.00150486
0.0359969 0.00147067
0.0373405 0.00143648
0.0389677 0.0013844
0.040595 0.00132854
0.0408587 0.00132
0.0411225 0.00131146
0.0425158 0.00124842
0.0439092 0.00118539
0.0455967 0.00110637
0.0472842 0.00101851
0.0490026 0.000938763
0.0507211 0.000849159
0.052471 0.000780058
0.054221 0.000701365
0.0545046 0.000695864
0.0547883 0.000690364
0.0562867 0.000640004
0.0577851 0.000589644
0.0595998 0.000555408
0.0614146 0.00051539
0.0632626 0.000495703
0.0651106 0.000472494
0.0657097 0.000470662
0.0663088 0.000467225
0.0675916 0.000459865
0.0688745 0.000452505
0.0699852 0.000451348
0.0710959 0.000449946
0.0719016 0.00044893
0.0727073 0.000447913
0.0746589 0.000450418
0.0766105 0.000453512
0.0785979 0.000459052
0.0805853 0.000465599
0.0809074 0.000466292
0.0812295 0.000466984
0.0829312 0.000473601
0.0846329 0.000480218
0.0866939 0.00048528
0.0887548 0.00049126
0.0908536 0.000491582
0.0929523 0.000492313
0.0950896 0.000485966
0.0972268 0.000479364
0.0994033 0.000466029
0.10158 0.00045193
0.103796 0.000433916
0.106012 0.000415022
0.108269 0.000395956
0.110526 0.000376142
0.112825 0.000359242
0.115123 0.000341901
0.116346 0.000335352
0.117569 0.000328638
0.118687 0.000322502
0.119804 0.000316365
0.122188 0.000308308
0.124571 0.000300126
0.126999 0.000295818
0.129426 0.000291378
0.131897 0.000289165
0.134369 0.000286762
0.136886 0.00028519
0.139403 0.000283226
0.139539 0.000283209
0.139675 0.000283193
0.142103 0.000281483
0.14453 0.000279365
0.146043 0.00027869
0.147555 0.000277207
0.148653 0.000276131
0.14975 0.000275055
0.152408 0.000273626
0.155066 0.000271217
0.157773 0.00027075
0.16048 0.000269086
0.163237 0.000269944
0.165993 0.000269225
0.1688 0.000271215
0.171607 0.000271143
0.174466 0.000273339
0.177324 0.000273142
0.177788 0.000274158
0.178251 0.000275174
0.180699 0.000274021
0.183146 0.000272868
0.186111 0.000272023
0.189075 0.000268877
0.192094 0.000265984
0.195113 0.000261101
0.198187 0.000256377
0.201261 0.000250049
0.201759 0.000249452
0.202257 0.000248855
0.20489 0.000242759
0.207522 0.000236664
0.21071 0.000229735
0.213898 0.000222259
0.217144 0.000215078
0.22039 0.00020798
0.223696 0.000200726
0.227002 0.000194172
0.230369 0.000186719
0.233735 0.00018052
0.234281 0.000178737
0.234827 0.000176953
0.237709 0.000171914
0.240592 0.000166874
0.244083 0.000159355
0.247574 0.000153558
0.250563 0.000147586
0.253553 0.000143051
0.254119 0.000142193
0.254685 0.000141334
0.255261 0.000140062
0.255837 0.00013879
0.258881 0.000134898
0.261925 0.000131005
0.265612 0.000126494
0.269299 0.000122818
0.273053 0.000119221
0.276808 0.000116369
0.280631 0.000113314
0.284454 0.000111011
0.288348 0.000108489
0.292241 0.000106826
0.296206 0.000105031
0.300171 0.000104204
0.300814 0.000103697
0.301456 0.00010319
0.304851 0.000103185
0.308246 0.00010318
0.312358 0.000102737
0.316469 0.000103269
0.320656 0.000102878
0.324843 0.000103278
0.329107 0.00010257
0.333371 0.000102419
0.337713 0.000101329
0.342055 0.000100607
0.346476 9.90352e-05
0.350898 9.76268e-05
0.355401 9.53245e-05
0.359903 9.29108e-05
0.364489 8.97537e-05
0.369074 8.61918e-05
0.373744 8.23775e-05
0.378413 7.79244e-05
0.383168 7.40443e-05
0.387923 6.9458e-05
0.391995 6.6715e-05
0.396066 6.33646e-05
0.396837 6.27303e-05
0.397608 6.20961e-05
0.398393 6.18115e-05
0.399177 6.1527e-05
0.403324 5.87142e-05
0.40747 5.59014e-05
0.412491 5.33643e-05
0.417513 5.03938e-05
0.422626 4.78347e-05
0.42774 4.48124e-05
0.432948 4.22867e-05
0.438155 3.92871e-05
0.443458 3.72362e-05
0.448761 3.48246e-05
0.454161 3.33235e-05
0.459561 3.1585e-05
0.46506 3.05397e-05
0.47056 2.9348e-05
0.47616 2.86992e-05
0.48176 2.79734e-05
0.487463 2.76214e-05
0.493165 2.72405e-05
0.49409 2.72168e-05
0.495014 2.71931e-05
0.499897 2.70926e-05
0.50478 2.6992e-05
0.510694 2.70153e-05
0.516608 2.70773e-05
0.52263 2.71251e-05
0.528653 2.72178e-05
0.534786 2.71898e-05
0.540918 2.71931e-05
0.547164 2.70239e-05
0.553409 2.68511e-05
0.559769 2.64897e-05
0.566129 2.60582e-05
0.56716 2.60305e-05
0.568191 2.60028e-05
0.573636 2.55578e-05
0.579082 2.51128e-05
0.585677 2.48857e-05
0.592272 2.45807e-05
0.598989 2.45915e-05
0.605705 2.45777e-05
0.612544 2.48088e-05
0.619384 2.50577e-05
0.626349 2.55395e-05
0.633314 2.60949e-05
0.640406 2.68196e-05
0.647499 2.76754e-05
0.654722 2.8633e-05
0.661944 2.97769e-05
0.669299 3.10039e-05
0.676655 3.24761e-05
0.684145 3.40168e-05
0.691635 3.58634e-05
0.699262 3.7661e-05
0.70689 3.98054e-05
0.714657 4.16652e-05
0.722424 4.38667e-05
0.730334 4.55731e-05
0.738244 4.75681e-05
0.746299 4.90606e-05
0.754354 5.07702e-05
0.762556 5.22891e-05
0.770759 5.39854e-05
0.779112 5.60601e-05
0.787465 5.83662e-05
0.795971 6.16808e-05
0.804478 6.54067e-05
0.81314 7.04822e-05
0.821802 7.61965e-05
0.830623 8.23694e-05
0.839445 8.9272e-05
0.848428 9.4e-05
0.857411 9.91952e-05
0.858867 9.94792e-05
0.860323 9.97631e-05
0.868014 0.000101456
0.875706 0.000103149
0.885021 0.000103368
0.894337 0.000103457
0.895847 0.000103472
0.897357 0.000103486
0.905333 0.000103291
0.91331 0.000103097
0.92297 0.000103432
0.93263 0.000103875
0.942468 0.000104494
0.952305 0.00010548
0.962323 0.000105836
0.972341 0.000106817
0.982543 0.000106074
0.992745 0.000105929
0.994398 0.000105502
0.996052 0.000105076
1.00479 0.000103103
1.01352 0.00010113
1.0241 9.5994e-05
1.03468 9.00639e-05
1.04545 8.24885e-05
1.05623 7.31897e-05
1.0672 6.67482e-05
1.07817 5.85409e-05
1.08934 5.58617e-05
1.10051 5.20287e-05
1.11189 5.24446e-05
1.12327 5.2082e-05
1.13485 5.42403e-05
1.14644 5.60988e-05
1.15824 5.86807e-05
1.17004 6.13952e-05
1.18205 6.30498e-05
1.19407 6.48298e-05
1.2063 6.51793e-05
1.21854 6.55746e-05
1.23099 6.50036e-05
1.24345 6.44351e-05
1.25614 6.36141e-05
1.26883 6.27947e-05
1.28175 6.21179e-05
1.29467 6.14433e-05
1.30783 6.06523e-05
1.32099 5.98428e-05
1.33439 5.77887e-05
1.34778 5.57042e-05
1.36143 5.03897e-05
1.37507 4.49166e-05
1.38897 3.78e-05
1.40286 3.03973e-05
1.41701 2.59728e-05
1.43116 2.13618e-05
1.44557 1.99659e-05
1.45998 1.85116e-05
1.47466 1.80844e-05
1.48933 1.76336e-05
1.50427 1.75232e-05
1.51921 1.74022e-05
1.53443 1.74054e-05
1.54965 1.74036e-05
1.56514 1.74778e-05
1.58064 1.75484e-05
1.59642 1.7689e-05
1.6122 1.78287e-05
1.62827 1.80223e-05
1.64434 1.82185e-05
1.6607 1.84392e-05
1.67707 1.86661e-05
1.69373 1.88818e-05
1.7104 1.91039e-05
1.72737 1.92939e-05
1.74434 1.94868e-05
1.76162 1.9647e-05
1.7789 1.98072e-05
1.7965 1.99534e-05
1.81409 2.00992e-05
1.83202 2.02636e-05
1.84994 2.04286e-05
1.86819 2.0638e-05
1.88644 2.08494e-05
1.90502 2.10482e-05
1.9236 2.12497e-05
1.94253 2.13517e-05
1.96146 2.14555e-05
1.98073 2.14672e-05
2 2.14811e-05
