0 1e-10
0.00128482 0.000953608
0.00256965 0.001914
0.00387803 0.00195618
0.00518642 0.00199953
0.00651881 0.00199518
0.00785119 0.00199191
0.00920802 0.00197185
0.0105648 0.00195261
0.0119465 0.00193268
0.0133283 0.0019133
0.0147353 0.00190054
0.0161424 0.00188819
0.0175752 0.00188501
0.0190081 0.0018823
0.0204672 0.00188889
0.0219263 0.00189622
0.0234122 0.00191265
0.0248981 0.00193031
0.0264113 0.00195968
0.0279244 0.00199114
0.0294653 0.00202727
0.0310063 0.00206582
0.0325754 0.00209962
0.0341446 0.00213534
0.0357425 0.00216741
0.0373405 0.00220065
0.0389677 0.00223258
0.040595 0.0022651
0.0422521 0.00229873
0.0439092 0.00233281
0.0455967 0.002369
0.0472842 0.00240546
0.0490026 0.00244213
0.0507211 0.0024787
0.052471 0.00251099
0.054221 0.00254265
0.0542212 0.00254265
0.0542214 0.00254265
0.0560033 0.00256379
0.0577851 0.00258355
0.0578577 0.00258467
0.0579303 0.00258579
0.0596724 0.00258619
0.0614146 0.00258658
0.0632626 0.00256265
0.0651106 0.00253553
0.0669925 0.00248125
0.0688745 0.00242288
0.0707909 0.00234209
0.0727073 0.0022568
0.0746589 0.00215613
0.0766105 0.00205104
0.0785979 0.00194112
0.0805853 0.00182767
0.0826091 0.00172088
0.0846329 0.001612
0.0866939 0.00151692
0.0887548 0.00142099
0.0908536 0.00134158
0.0929523 0.00126229
0.0950896 0.00119663
0.0972268 0.00113159
0.0994033 0.00107525
0.10158 0.00101952
0.103796 0.000969508
0.106012 0.000919858
0.108269 0.000873813
0.110526 0.000827809
0.112825 0.00078397
0.115123 0.000739799
0.117464 0.000698691
0.119804 0.000657009
0.122188 0.000618989
0.124571 0.000580264
0.126999 0.000545595
0.129426 0.000510188
0.131897 0.000480208
0.134369 0.000449642
0.136886 0.000424348
0.139403 0.000398707
0.141967 0.000377456
0.14453 0.000356136
0.14714 0.000338223
0.14975 0.00032052
0.152408 0.000305691
0.155066 0.000291265
0.157773 0.000279322
0.16048 0.000267849
0.163237 0.000258079
0.165993 0.000248756
0.1688 0.000240201
0.171607 0.000232015
0.174466 0.000223734
0.177324 0.000215724
0.180235 0.000207272
0.183146 0.00019908
0.186111 0.000191532
0.189075 0.000184403
0.192094 0.000179232
0.195113 0.00017477
0.198187 0.000171558
0.201261 0.000169227
0.204391 0.000167092
0.207522 0.000165756
0.21071 0.000164858
0.213898 0.000164532
0.217144 0.000164762
0.22039 0.000165326
0.223696 0.000166067
0.227002 0.000166981
0.230369 0.000167972
0.233735 0.000169049
0.237164 0.000170217
0.240592 0.000171405
0.244083 0.000172923
0.247574 0.000174419
0.251129 0.000176758
0.254685 0.000179056
0.258305 0.000182132
0.261925 0.000185113
0.265612 0.000188156
0.269299 0.000191009
0.273053 0.00019347
0.276808 0.000195666
0.280631 0.000197313
0.284454 0.000198688
0.288348 0.000199515
0.292241 0.000200146
0.296206 0.000200189
0.300171 0.000200143
0.300171 0.000200143
0.300172 0.000200143
0.300495 0.000200095
0.300818 0.000200047
0.304532 0.000199501
0.308246 0.000198954
0.312358 0.000197789
0.316469 0.000196687
0.320656 0.000195007
0.324843 0.000193418
0.329107 0.000191407
0.333371 0.000189461
0.337713 0.000187319
0.342055 0.000185203
0.346476 0.000183242
0.350898 0.000181301
0.355401 0.000179736
0.359903 0.000178181
0.364489 0.000177165
0.369074 0.000176142
0.373744 0.000175682
0.378413 0.000175196
0.383168 0.000175025
0.387923 0.000174782
0.392765 0.00017432
0.397608 0.000173691
0.402539 0.000172155
0.40747 0.000170314
0.412491 0.000167119
0.417513 0.000163489
0.422626 0.000158279
0.42774 0.000152548
0.432948 0.000145182
0.438155 0.000137304
0.443458 0.000128188
0.448761 0.000118712
0.454161 0.000109051
0.459561 9.92207e-05
0.460838 9.72167e-05
0.462114 9.51689e-05
0.466337 8.83945e-05
0.47056 8.16201e-05
0.475084 7.60767e-05
0.479609 7.058e-05
0.480685 6.92739e-05
0.48176 6.79677e-05
0.487463 6.35007e-05
0.493165 5.91587e-05
0.498973 5.659e-05
0.50478 5.41846e-05
0.510694 5.26059e-05
0.516608 5.11852e-05
0.52263 4.98326e-05
0.528653 4.86733e-05
0.534786 4.70507e-05
0.540918 4.57332e-05
0.547164 4.38194e-05
0.553409 4.22834e-05
0.559769 4.04318e-05
0.566129 3.89095e-05
0.572605 3.73281e-05
0.579082 3.59945e-05
0.585677 3.45761e-05
0.592272 3.33791e-05
0.598989 3.20061e-05
0.605705 3.08605e-05
0.612544 2.94739e-05
0.619384 2.83214e-05
0.626349 2.69145e-05
0.633314 2.57379e-05
0.640406 2.43428e-05
0.647499 2.3174e-05
0.654722 2.20043e-05
0.661944 2.10308e-05
0.669299 2.03367e-05
0.676655 1.97609e-05
0.678452 1.9651e-05
0.68025 1.95902e-05
0.685942 1.93976e-05
0.691635 1.92049e-05
0.697432 1.91073e-05
0.703228 1.90274e-05
0.705059 1.90022e-05
0.70689 1.8977e-05
0.714346 1.89233e-05
0.721803 1.88766e-05
0.722114 1.88747e-05
0.722424 1.88727e-05
0.722741 1.88706e-05
0.723057 1.88685e-05
0.730651 1.88569e-05
0.738244 1.88454e-05
0.746299 1.888e-05
0.754354 1.89166e-05
0.762556 1.90279e-05
0.770759 1.91411e-05
0.779112 1.92987e-05
0.787465 1.94575e-05
0.795971 1.95483e-05
0.804478 1.96388e-05
0.81314 1.96199e-05
0.821802 1.96011e-05
0.830623 1.95213e-05
0.839445 1.94439e-05
0.848068 1.93455e-05
0.856692 1.9252e-05
0.857051 1.92481e-05
0.857411 1.92442e-05
0.866558 1.915e-05
0.875706 1.90608e-05
0.877574 1.9045e-05
0.879441 1.90322e-05
0.886889 1.8981e-05
0.894337 1.89298e-05
0.903823 1.88857e-05
0.91331 1.88427e-05
0.92297 1.88052e-05
0.93263 1.87682e-05
0.942074 1.87228e-05
0.951518 1.86783e-05
0.951912 1.86764e-05
0.952305 1.86745e-05
0.952706 1.86711e-05
0.953107 1.86677e-05
0.962724 1.86087e-05
0.972341 1.85498e-05
0.982543 1.8474e-05
0.992745 1.84014e-05
1.00313 1.83229e-05
1.01352 1.82475e-05
1.0241 1.81732e-05
1.03468 1.81006e-05
1.04545 1.8031e-05
1.05623 1.79614e-05
1.0672 1.78969e-05
1.07817 1.78323e-05
1.08934 1.77838e-05
1.10051 1.77367e-05
1.11189 1.77204e-05
1.12327 1.77082e-05
1.13485 1.77204e-05
1.14644 1.77383e-05
1.15824 1.77614e-05
1.17004 1.77898e-05
1.18205 1.77957e-05
1.19407 1.78052e-05
1.2063 1.77683e-05
1.21854 1.77319e-05
1.23099 1.76534e-05
1.24345 1.75737e-05
1.25614 1.75209e-05
1.26883 1.74672e-05
1.28175 1.74408e-05
1.29467 1.74121e-05
1.30783 1.73549e-05
1.32099 1.72931e-05
1.33439 1.72131e-05
1.34778 1.71272e-05
1.36143 1.70191e-05
1.37507 1.69038e-05
1.38897 1.67864e-05
1.40286 1.66632e-05
1.41701 1.65899e-05
1.43116 1.65147e-05
1.44557 1.6494e-05
1.45998 1.64737e-05
1.47466 1.64853e-05
1.48933 1.64976e-05
1.50427 1.6537e-05
1.51921 1.6577e-05
1.53443 1.66391e-05
1.54965 1.67014e-05
1.56514 1.6781e-05
1.58064 1.68607e-05
1.59642 1.69662e-05
1.6122 1.70726e-05
1.62827 1.72158e-05
1.64434 1.73604e-05
1.6607 1.75277e-05
1.67707 1.76957e-05
1.69373 1.78624e-05
1.7104 1.8029e-05
1.72737 1.81884e-05
1.74434 1.83475e-05
1.76162 1.85006e-05
1.7789 1.86534e-05
1.7965 1.88007e-05
1.81409 1.89478e-05
1.83202 1.90949e-05
1.84994 1.92422e-05
1.86819 1.94072e-05
1.88644 1.95728e-05
1.90502 1.97459e-05
1.9236 1.99192e-05
1.94253 2.00222e-05
1.96146 2.01245e-05
1.98073 2.00806e-05
2 2.00369e-05
