0 1e-10
0.00128482 0.00139717
0.00256965 0.002726
0.00275177 0.00270943
0.0029339 0.00269286
0.00406016 0.00259391
0.00518642 0.00249586
0.0053027 0.00248306
0.00541897 0.00247026
0.00616084 0.00239177
0.0069027 0.00231644
0.00737695 0.00226828
0.00785119 0.00222013
0.00864142 0.00213838
0.00943164 0.00206006
0.00999824 0.0020039
0.0105648 0.00194774
0.0119465 0.00182632
0.0133283 0.00170415
0.0135241 0.00169118
0.01372 0.00167822
0.0149312 0.00159012
0.0161424 0.00150001
0.0162674 0.00149408
0.0163924 0.00148815
0.0177003 0.00141517
0.0190081 0.00133739
0.0199478 0.00130243
0.0208876 0.00126028
0.021407 0.00123699
0.0219263 0.0012137
0.0234122 0.00116998
0.0248981 0.00112231
0.0250828 0.00111816
0.0252676 0.001114
0.026596 0.00108441
0.0279244 0.00105491
0.0294653 0.00102737
0.0310063 0.00100408
0.0325754 0.000980061
0.0341446 0.000963784
0.0357425 0.000941355
0.0373405 0.000929219
0.0384939 0.000910323
0.0396473 0.000903045
0.0401211 0.000900055
0.040595 0.000897065
0.0415601 0.000879502
0.0425252 0.000873747
0.0432172 0.000869621
0.0439092 0.000865494
0.0455967 0.00084396
0.0472842 0.000833797
0.0490026 0.00081259
0.0507211 0.000802182
0.052471 0.00078154
0.054221 0.000771233
0.0553687 0.000754965
0.0565165 0.000748808
0.0571508 0.000745405
0.0577851 0.000742002
0.0595998 0.000724278
0.0614146 0.000716529
0.0616565 0.000713129
0.0618984 0.000709729
0.0635045 0.000701266
0.0651106 0.00069678
0.0668694 0.000686293
0.0686281 0.000684461
0.0687513 0.000684333
0.0688745 0.000684205
0.0690417 0.000682828
0.069209 0.000681452
0.0709581 0.000678381
0.0727073 0.000680279
0.0746589 0.000679186
0.0766105 0.000685626
0.0785979 0.000689216
0.0805853 0.00069965
0.0826091 0.000706737
0.0846329 0.000719459
0.0866939 0.00072786
0.0887548 0.000739907
0.0889739 0.000740579
0.089193 0.00074125
0.0910727 0.000748526
0.0929523 0.000756369
0.0932132 0.000757255
0.0934741 0.000758142
0.0945897 0.000760504
0.0957054 0.000761913
0.0964661 0.000762874
0.0972268 0.000763835
0.0984944 0.000766019
0.099762 0.000763385
0.100671 0.000761496
0.10158 0.000759607
0.103796 0.000756546
0.106012 0.000746682
0.108269 0.00074177
0.110526 0.000728785
0.112007 0.000727892
0.113487 0.000718566
0.114305 0.000713412
0.115123 0.000708258
0.11582 0.000709306
0.116517 0.000707715
0.11816 0.000697169
0.119804 0.000686623
0.12191 0.000681764
0.124016 0.000668862
0.124294 0.000667161
0.124571 0.00066546
0.125985 0.000665056
0.127399 0.000657023
0.128412 0.000651263
0.129426 0.000645503
0.131897 0.000639561
0.134369 0.000626348
0.13542 0.000627061
0.136471 0.000622475
0.137937 0.000615396
0.139403 0.000608317
0.140136 0.000608284
0.140868 0.000607003
0.142699 0.000599408
0.14453 0.000591813
0.146985 0.000586964
0.149441 0.000578556
0.149595 0.000578026
0.14975 0.000577496
0.151298 0.000576028
0.152846 0.000571852
0.153956 0.000568858
0.155066 0.000565864
0.157773 0.000562237
0.16048 0.000556671
0.163237 0.000553729
0.165993 0.000549443
0.166384 0.000549277
0.166775 0.000549111
0.167755 0.000548334
0.168734 0.000547196
0.170171 0.000545529
0.171607 0.000543861
0.174466 0.000542089
0.177324 0.0005397
0.180235 0.000538191
0.183146 0.000536267
0.186111 0.000534765
0.189075 0.000532924
0.192094 0.000531378
0.195113 0.00052955
0.198187 0.00052808
0.201261 0.000526456
0.203277 0.000525607
0.205293 0.000524779
0.206407 0.000524322
0.207522 0.000523864
0.209378 0.000523215
0.211235 0.000523002
0.212566 0.000522849
0.213898 0.000522696
0.217144 0.00052238
0.22039 0.000522822
0.220563 0.000522776
0.220735 0.000522731
0.223869 0.000522845
0.227002 0.0005235
0.230017 0.000524147
0.233032 0.00052564
0.233384 0.000525814
0.233735 0.000525988
0.237164 0.000527499
0.240592 0.00053022
0.244083 0.000531303
0.247574 0.000533828
0.250199 0.000533271
0.252823 0.000534165
0.253754 0.000534482
0.254685 0.000534799
0.255 0.000534503
0.255316 0.000534206
0.258621 0.000533063
0.261925 0.000532782
0.2643 0.000530004
0.266674 0.000528491
0.267987 0.000527655
0.269299 0.000526819
0.271486 0.000523089
0.273672 0.000520461
0.27524 0.000518577
0.276808 0.000516693
0.280631 0.000509674
0.284454 0.000503649
0.286962 0.000498202
0.28947 0.000493716
0.290855 0.000491237
0.292241 0.000488757
0.296206 0.000480297
0.300171 0.000472841
0.304208 0.000463803
0.308246 0.000455687
0.310641 0.000449785
0.313035 0.000444698
0.314752 0.000441051
0.316469 0.000437403
0.320656 0.000427629
0.324843 0.000418624
0.325288 0.000417493
0.325733 0.000416362
0.329552 0.000407665
0.333371 0.000399343
0.335127 0.000394923
0.336883 0.00039096
0.339469 0.000385216
0.342055 0.000379472
0.346476 0.000369221
0.350898 0.000359494
0.355401 0.000349604
0.359903 0.000340224
0.364489 0.000330998
0.369074 0.000322299
0.373744 0.000313719
0.378413 0.00030579
0.383168 0.000298037
0.387923 0.00029115
0.392765 0.0002848
0.397608 0.000279586
0.402539 0.000275317
0.40747 0.000272224
0.412491 0.000270459
0.417513 0.000269612
0.422626 0.00027024
0.42774 0.000271559
0.428465 0.000271872
0.42919 0.000272186
0.433672 0.000275241
0.438155 0.000278582
0.438618 0.000279154
0.43908 0.000279727
0.443921 0.000287044
0.448761 0.000294946
0.454161 0.000308473
0.459561 0.000321969
0.463103 0.000331764
0.466645 0.000338656
0.468602 0.000342465
0.47056 0.000346274
0.473821 0.000353048
0.477083 0.000355357
0.479421 0.000357013
0.48176 0.000358669
0.483647 0.000361298
0.485534 0.000362025
0.489349 0.000361243
0.493165 0.000360461
0.498367 0.000359175
0.503568 0.0003544
0.504174 0.000353843
0.50478 0.000353287
0.510694 0.000348305
0.516608 0.000341439
0.519123 0.000337774
0.521638 0.000334013
0.525145 0.000328756
0.528653 0.000323499
0.532225 0.000315676
0.535796 0.000310127
0.538357 0.000306147
0.540918 0.000302168
0.547164 0.000292947
0.553409 0.000288945
0.559769 0.00028834
0.566129 0.000293871
0.572605 0.000303275
0.579082 0.000318715
0.585677 0.000336952
0.592272 0.000359236
0.598989 0.000384011
0.605705 0.000406366
0.612544 0.000426329
0.619384 0.00043983
0.626349 0.000444999
0.633314 0.00044501
0.640406 0.000434952
0.647499 0.000420122
0.654722 0.000394591
0.661944 0.00036411
0.669299 0.000329054
0.676655 0.000291413
0.677437 0.000288151
0.678218 0.000284888
0.684927 0.000257005
0.691635 0.00022916
0.696077 0.000216454
0.700519 0.000204796
0.703704 0.000196436
0.70689 0.000188076
0.707701 0.000186718
0.708511 0.000185359
0.710724 0.000181725
0.712936 0.000178533
0.71768 0.000171689
0.722424 0.000164844
0.730334 0.000159557
0.738244 0.000154381
0.746299 0.000153149
0.754354 0.000151511
0.762556 0.000152374
0.770759 0.000152203
0.779112 0.000153376
0.787465 0.000153384
0.795971 0.000153083
0.804478 0.000152577
0.805382 0.000152431
0.806286 0.000152285
0.814044 0.000151369
0.821802 0.000150579
0.822879 0.000150666
0.823956 0.000150753
0.8317 0.000150235
0.839445 0.000149359
0.848428 0.000149468
0.857411 0.000147156
0.866558 0.000146018
0.875706 0.000140773
0.885021 0.000141289
0.894337 0.000136568
0.903823 0.000142596
0.91331 0.000142835
0.92297 0.000153733
0.93263 0.00015936
0.942468 0.000170178
0.952305 0.000177969
0.962323 0.000182899
0.972341 0.00018735
0.982543 0.000184559
0.992745 0.000184249
1.00313 0.00016761
1.01352 0.000158976
1.0241 0.000127421
1.03468 0.000107151
1.04545 7.86578e-05
1.05623 5.88603e-05
1.0672 4.41043e-05
1.07817 3.41514e-05
1.08934 2.7982e-05
1.10051 2.40164e-05
1.11189 2.16817e-05
1.12327 2.02594e-05
1.13485 1.93306e-05
1.14644 1.87762e-05
1.15824 1.83088e-05
1.17004 1.80065e-05
1.18205 1.76985e-05
1.19407 1.74668e-05
1.2063 1.72306e-05
1.21854 1.70284e-05
1.23099 1.68331e-05
1.24345 1.66545e-05
1.25614 1.64882e-05
1.26883 1.63338e-05
1.28175 1.61946e-05
1.29467 1.60686e-05
1.30783 1.59609e-05
1.32099 1.58689e-05
1.33439 1.57977e-05
1.34778 1.57416e-05
1.36143 1.57067e-05
1.37507 1.56816e-05
1.37652 1.56801e-05
1.37797 1.56787e-05
1.39042 1.56745e-05
1.40286 1.56736e-05
1.40459 1.56741e-05
1.40632 1.56747e-05
1.41874 1.56918e-05
1.43116 1.5713e-05
1.44557 1.5756e-05
1.45998 1.58135e-05
1.46151 1.58194e-05
1.46305 1.58254e-05
1.47619 1.58892e-05
1.48933 1.59578e-05
1.49115 1.59669e-05
1.49298 1.5976e-05
1.5061 1.6032e-05
1.51921 1.60851e-05
1.53443 1.61304e-05
1.54965 1.6162e-05
1.55127 1.61662e-05
1.55288 1.61703e-05
1.56676 1.61913e-05
1.58064 1.62069e-05
1.58257 1.62103e-05
1.58449 1.62137e-05
1.59835 1.6234e-05
1.6122 1.62529e-05
1.62827 1.6287e-05
1.64434 1.63242e-05
1.64605 1.63286e-05
1.64776 1.63331e-05
1.66241 1.63825e-05
1.67707 1.64363e-05
1.6791 1.64438e-05
1.68114 1.64514e-05
1.69577 1.65243e-05
1.7104 1.66029e-05
1.71217 1.66123e-05
1.71394 1.66217e-05
1.72914 1.67263e-05
1.74434 1.68399e-05
1.76162 1.6988e-05
1.7789 1.71529e-05
1.78105 1.71732e-05
1.78319 1.71936e-05
1.79864 1.73512e-05
1.81409 1.75124e-05
1.81597 1.75315e-05
1.81784 1.75506e-05
1.83389 1.77056e-05
1.84994 1.78571e-05
1.85216 1.78775e-05
1.85439 1.78978e-05
1.87041 1.80281e-05
1.88644 1.81534e-05
1.90502 1.83067e-05
1.9236 1.84575e-05
1.92558 1.84721e-05
1.92756 1.84867e-05
1.94451 1.86169e-05
1.96146 1.87491e-05
1.96381 1.87475e-05
1.96616 1.87459e-05
1.98308 1.87348e-05
2 1.8724e-05
