1 1e-10
1.00148 0.0050657
1.00296 0.00817566
1.00447 0.00546577
1.00598 0.00501611
1.00753 0.00405625
1.00907 0.00398726
1.00964 0.0038439
1.0102 0.00382879
1.01121 0.00350348
1.01222 0.00330046
1.01383 0.00270208
1.01544 0.00252697
1.01709 0.00217781
1.01873 0.00219101
1.01978 0.00210762
1.02083 0.00212601
1.02146 0.00205882
1.02209 0.00202388
1.02381 0.0018188
1.02552 0.00176917
1.02727 0.00159702
1.02902 0.00163715
1.03047 0.00158151
1.03191 0.00160436
1.03226 0.00158381
1.0326 0.00157689
1.03443 0.00145329
1.03625 0.00142408
1.03812 0.00132137
1.03998 0.00135214
1.04173 0.00131444
1.04348 0.00133315
1.04363 0.00132654
1.04379 0.00132496
1.04574 0.00124385
1.04768 0.00122672
1.04967 0.00115479
1.05165 0.00117685
1.0536 0.00115077
1.05556 0.00116445
1.05563 0.00116189
1.05571 0.00116124
1.05778 0.00110103
1.05985 0.00108641
1.06197 0.0010315
1.06409 0.00105053
1.06613 0.00103305
1.06818 0.00104787
1.06829 0.00104494
1.06841 0.00104407
1.07061 0.000991642
1.07282 0.000978304
1.07507 0.00093214
1.07733 0.000948885
1.07936 0.000935235
1.0814 0.000948193
1.08166 0.000942103
1.08193 0.000939723
1.08428 0.000888316
1.08663 0.000873373
1.08903 0.000829819
1.09143 0.000841288
1.09333 0.000827346
1.09524 0.000834278
1.09578 0.000823356
1.09633 0.00081808
1.09883 0.000769607
1.10133 0.000753557
1.10389 0.000717241
1.10644 0.00072227
1.1081 0.000710538
1.10976 0.000713518
1.11071 0.000699201
1.11166 0.000690973
1.11433 0.000648883
1.11699 0.00063456
1.11972 0.000605362
1.12244 0.000604802
1.12372 0.000597174
1.125 0.00059797
1.1265 0.000582254
1.128 0.000571616
1.13084 0.000538095
1.13368 0.000526042
1.13657 0.00050269
1.13947 0.000498556
1.14025 0.000494455
1.14103 0.000494133
1.14321 0.000478182
1.14539 0.000466282
1.14842 0.00044248
1.15144 0.000431637
1.15453 0.000414736
1.15762 0.000408707
1.15776 0.000408096
1.15789 0.000407998
1.16091 0.000395625
1.16392 0.00038494
1.16714 0.000370051
1.17036 0.000362181
1.17302 0.000352646
1.17568 0.000347272
1.17631 0.000347024
1.17694 0.000345676
1.1803 0.000341312
1.18366 0.000332904
1.18709 0.000326615
1.19052 0.000321289
1.19248 0.000319033
1.19444 0.000318844
1.19598 0.000322865
1.19752 0.00032366
1.2011 0.000331328
1.20467 0.00033458
1.20833 0.000339587
1.21198 0.000348191
1.21313 0.000348989
1.21429 0.000351679
1.21686 0.000361446
1.21944 0.00036864
1.22325 0.000374991
1.22706 0.00038073
1.23095 0.000382381
1.23484 0.000385754
1.23507 0.000385698
1.23529 0.000385795
1.23904 0.000391125
1.24278 0.000393849
1.24684 0.000395074
1.2509 0.000393148
1.25424 0.000390751
1.25758 0.000388816
1.25838 0.000389226
1.25918 0.000388683
1.26341 0.000386204
1.26764 0.000381464
1.27197 0.000373508
1.27629 0.000367855
1.27877 0.000363277
1.28125 0.000360526
1.28318 0.000357807
1.28511 0.0003559
1.28962 0.000351884
1.29412 0.000350203
1.29873 0.000348141
1.30333 0.000347101
1.30489 0.000345582
1.30645 0.000344388
1.30959 0.000340968
1.31273 0.000338115
1.31753 0.000327308
1.32233 0.000320971
1.32723 0.000308551
1.33213 0.000301759
1.33273 0.000300527
1.33333 0.000299793
1.33774 0.000292253
1.34214 0.000290937
1.34725 0.000288881
1.35236 0.000300011
1.35722 0.000313314
1.36207 0.000333662
1.36244 0.000336313
1.3628 0.000341617
1.36813 0.00040732
1.37346 0.000522098
1.37891 0.000633993
1.38435 0.000841442
1.3886 0.00100233
1.39286 0.00121318
1.39416 0.00131619
1.39547 0.0014344
1.40115 0.00193512
1.40682 0.00249232
1.41262 0.00308079
1.41842 0.0037972
1.42217 0.00428995
1.42593 0.00488328
1.42809 0.00519604
1.43026 0.00548817
1.43631 0.00627498
1.44236 0.00699151
1.44853 0.00758292
1.45471 0.00800067
1.45812 0.00813766
1.46154 0.00815192
1.46443 0.00804774
1.46732 0.00774556
1.47376 0.00708578
1.4802 0.00591403
1.48678 0.00495335
1.49335 0.00383112
1.49668 0.00338138
1.5 0.00293817
1.50339 0.00256462
1.50679 0.00227383
1.51364 0.00176296
1.5205 0.00141981
1.52751 0.00108961
1.53451 0.000861724
1.53809 0.000744856
1.54167 0.0006488
1.54524 0.000612541
1.54882 0.000580634
1.55612 0.00052396
1.56343 0.00047162
1.57089 0.000423059
1.57835 0.000372623
1.58265 0.000344805
1.58696 0.000315198
1.59027 0.000309212
1.59359 0.000302912
1.60137 0.000287517
1.60915 0.000271884
1.61709 0.000254479
1.62504 0.000238369
1.6307 0.000225959
1.63636 0.000214746
1.63881 0.000213197
1.64127 0.000211815
1.64955 0.00020637
1.65784 0.00020198
1.6663 0.000196242
1.67476 0.000192834
1.68262 0.000188793
1.69048 0.000186276
1.69126 0.000186185
1.69205 0.00018614
1.70087 0.000185377
1.7097 0.000185186
1.71871 0.000184903
1.72772 0.000185617
1.73693 0.0001862
1.74613 0.000187259
1.74806 0.000187523
1.75 0.000187868
1.75746 0.000189374
1.76493 0.00019106
1.77453 0.000193328
1.78412 0.000195819
1.79393 0.000198409
1.80373 0.000201134
1.80976 0.000202851
1.81579 0.000204588
1.81977 0.00020574
1.82375 0.000206915
1.83397 0.000209896
1.8442 0.000212924
1.85464 0.000216201
1.86508 0.000219548
1.87574 0.000222891
1.8864 0.000226236
1.88764 0.000226641
1.88889 0.000227047
1.89853 0.000230242
1.90818 0.000233442
1.91929 0.000237115
1.93041 0.000240797
1.94177 0.000244721
1.95312 0.000248641
1.96186 0.000251408
1.97059 0.000254181
1.97345 0.000255099
1.97632 0.000256018
1.98816 0.000260362
2 0.000264732
