0 	0 	0 	0 	0 	0 	0
0 	0 	0 	0 	0 	0 	0
0.000963618 	-0.055638 	-0.00167638 	-0.0222271 	-0.00626533 	3.61059e-05 	-0.00478715
0.000963618 	-0.055638 	-0.00167638 	-0.0222271 	-0.00626533 	3.61059e-05 	-0.00478715
0.00192724 	-0.11842 	-0.00464459 	-0.0625834 	-0.0138617 	8.50536e-05 	-0.00978209
0.00192724 	-0.11842 	-0.00464459 	-0.0625834 	-0.0138617 	8.50536e-05 	-0.00978209
0.00290853 	-0.154996 	-0.00695271 	-0.078718 	-0.0212303 	0.000153282 	-0.0127763
0.00290853 	-0.154996 	-0.00695271 	-0.078718 	-0.0212303 	0.000153282 	-0.0127763
0.00388982 	-0.194481 	-0.0109218 	-0.100495 	-0.0294773 	0.000229392 	-0.0158401
0.00388982 	-0.194481 	-0.0109218 	-0.100495 	-0.0294773 	0.000229392 	-0.0158401
0.00488911 	-0.229139 	-0.0138709 	-0.1167 	-0.0391701 	0.000349465 	-0.0186527
0.00488911 	-0.229139 	-0.0138709 	-0.1167 	-0.0391701 	0.000349465 	-0.0186527
0.0058884 	-0.266712 	-0.0189362 	-0.135664 	-0.0496828 	0.000478852 	-0.021548
0.0058884 	-0.266712 	-0.0189362 	-0.135664 	-0.0496828 	0.000478852 	-0.021548
0.00690601 	-0.296357 	-0.022019 	-0.149409 	-0.0610864 	0.000670228 	-0.0242226
0.00690601 	-0.296357 	-0.022019 	-0.149409 	-0.0610864 	0.000670228 	-0.0242226
0.00792363 	-0.327721 	-0.0271968 	-0.162603 	-0.0732444 	0.000874187 	-0.0269881
0.00792363 	-0.327721 	-0.0271968 	-0.162603 	-0.0732444 	0.000874187 	-0.0269881
0.00895991 	-0.350208 	-0.0301883 	-0.172114 	-0.0856713 	0.00114658 	-0.0295608
0.00999619 	-0.373449 	-0.0349633 	-0.178293 	-0.0987687 	0.00144248 	-0.03222
0.0110515 	-0.388644 	-0.0375101 	-0.183406 	-0.11163 	0.00180068 	-0.034691
0.0121068 	-0.404878 	-0.0413593 	-0.183865 	-0.12506 	0.00219591 	-0.0372415
0.0131814 	-0.414301 	-0.0431053 	-0.185711 	-0.137935 	0.0026424 	-0.0395763
0.0142561 	-0.426014 	-0.0457437 	-0.182959 	-0.151257 	0.00313649 	-0.0419882
0.0153504 	-0.43144 	-0.0464981 	-0.182932 	-0.163869 	0.00366957 	-0.04415
0.0164448 	-0.440491 	-0.0478329 	-0.179017 	-0.17679 	0.00425347 	-0.0463806
0.0175592 	-0.443156 	-0.0475023 	-0.17816 	-0.188947 	0.00486725 	-0.048352
0.0186736 	-0.450382 	-0.0474586 	-0.17428 	-0.201272 	0.00552575 	-0.0503697
0.0198085 	-0.451027 	-0.0459513 	-0.173239 	-0.21283 	0.00620961 	-0.0521605
0.0209433 	-0.45666 	-0.0445421 	-0.169995 	-0.224429 	0.00692641 	-0.053965
0.022099 	-0.455761 	-0.0418509 	-0.169128 	-0.23529 	0.00766447 	-0.0556095
0.0232547 	-0.459797 	-0.0392388 	-0.166763 	-0.246094 	0.0084221 	-0.05723
0.0244316 	-0.457721 	-0.0354516 	-0.166205 	-0.25621 	0.00919762 	-0.0587652
0.0256084 	-0.460156 	-0.0318156 	-0.164714 	-0.266198 	0.00998035 	-0.06024
0.0268069 	-0.457269 	-0.0270828 	-0.164504 	-0.275561 	0.0107758 	-0.0616798
0.0280054 	-0.458215 	-0.022595 	-0.163806 	-0.284741 	0.0115696 	-0.0630306
0.0292258 	-0.454847 	-0.0170617 	-0.163921 	-0.293355 	0.0123695 	-0.064357
0.0304462 	-0.454528 	-0.0119125 	-0.163826 	-0.301744 	0.0131599 	-0.0655787
0.0316891 	-0.451089 	-0.00572849 	-0.164189 	-0.309617 	0.0139522 	-0.0667576
0.0329319 	-0.449807 	-8.41401e-05 	-0.164534 	-0.317229 	0.0147279 	-0.0678309
0.0341975 	-0.446708 	0.0065802 	-0.165077 	-0.324356 	0.0155031 	-0.0688348
0.0354631 	-0.444829 	0.0125575 	-0.165779 	-0.3312 	0.0162567 	-0.069745
0.036752 	-0.442315 	0.0195348 	-0.166439 	-0.337578 	0.0170087 	-0.0705673
0.0380408 	-0.44025 	0.0257174 	-0.167318 	-0.34366 	0.0177364 	-0.0713152
0.0393533 	-0.438604 	0.0328655 	-0.168031 	-0.349292 	0.0184625 	-0.0719661
0.0406657 	-0.436724 	0.0391566 	-0.168944 	-0.35463 	0.0191648 	-0.0725611
0.0420023 	-0.436302 	0.0463464 	-0.169641 	-0.35954 	0.0198645 	-0.0730517
0.0433388 	-0.434965 	0.0526509 	-0.17054 	-0.364168 	0.0205437 	-0.073497
0.0446999 	-0.435861 	0.0597659 	-0.171154 	-0.368406 	0.0212144 	-0.0738342
0.0460609 	-0.435319 	0.0659875 	-0.172047 	-0.372384 	0.0218714 	-0.0741307
0.047447 	-0.437393 	0.0729277 	-0.172511 	-0.376026 	0.02251 	-0.0743235
0.048833 	-0.437684 	0.0789944 	-0.1734 	-0.379435 	0.0231444 	-0.0744838
0.0502444 	-0.440984 	0.0856389 	-0.173675 	-0.382577 	0.0237487 	-0.0745549
0.0516559 	-0.442166 	0.0914958 	-0.174554 	-0.385512 	0.0243582 	-0.074613
0.0530932 	-0.446709 	0.0977308 	-0.174608 	-0.388251 	0.0249266 	-0.0746037
0.0545305 	-0.448907 	0.103321 	-0.175462 	-0.39081 	0.0255053 	-0.0746101
0.0559942 	-0.454583 	0.109078 	-0.175271 	-0.393234 	0.0260375 	-0.0745737
0.0574579 	-0.457899 	0.114344 	-0.17609 	-0.395498 	0.0265786 	-0.0745806
0.0589484 	-0.464679 	0.119573 	-0.175654 	-0.397668 	0.027076 	-0.0745682
0.060439 	-0.469193 	0.124465 	-0.176448 	-0.399695 	0.0275733 	-0.0746144
0.0619568 	-0.477074 	0.129108 	-0.175759 	-0.401643 	0.0280401 	-0.0746602
0.0634747 	-0.48282 	0.133576 	-0.17654 	-0.403467 	0.0284913 	-0.0747641
0.0650204 	-0.491779 	0.137574 	-0.175637 	-0.405205 	0.0289349 	-0.0748869
0.0665661 	-0.498735 	0.141573 	-0.176514 	-0.406842 	0.0293442 	-0.0750574
0.0681402 	-0.508749 	0.144873 	-0.175576 	-0.408383 	0.0297716 	-0.0752642
0.0697143 	-0.516848 	0.148363 	-0.176712 	-0.409845 	0.0301485 	-0.0755043
0.0713172 	-0.527918 	0.150916 	-0.175966 	-0.411219 	0.0305657 	-0.0757915
0.0729201 	-0.537085 	0.15386 	-0.177411 	-0.412529 	0.0309217 	-0.0760966
0.0745524 	-0.549197 	0.155613 	-0.177081 	-0.413783 	0.0313342 	-0.0764521
0.0761848 	-0.559312 	0.157974 	-0.178878 	-0.414982 	0.0316793 	-0.0768083
0.077847 	-0.57235 	0.158871 	-0.179192 	-0.416163 	0.0320898 	-0.0772124
0.0795093 	-0.583172 	0.160629 	-0.181399 	-0.417287 	0.0324279 	-0.0775951
0.0812021 	-0.596881 	0.160621 	-0.182527 	-0.418413 	0.0328405 	-0.0780295
0.0828948 	-0.608103 	0.161797 	-0.185141 	-0.419484 	0.0331755 	-0.078413
0.0846186 	-0.62216 	0.160862 	-0.187183 	-0.420549 	0.0335995 	-0.0788662
0.0863424 	-0.633485 	0.161529 	-0.190135 	-0.42158 	0.033942 	-0.0792348
0.0880979 	-0.647581 	0.159687 	-0.193067 	-0.422561 	0.0343938 	-0.0796978
0.0898533 	-0.658794 	0.159951 	-0.196222 	-0.423548 	0.034762 	-0.0800433
0.0916409 	-0.672533 	0.157319 	-0.19991 	-0.424414 	0.0352604 	-0.0804991
0.0934285 	-0.683387 	0.157296 	-0.203088 	-0.425307 	0.0356755 	-0.0808123
0.0952489 	-0.696292 	0.154078 	-0.207302 	-0.42602 	0.0362337 	-0.0812334
0.0970693 	-0.706432 	0.153884 	-0.210313 	-0.426743 	0.0367073 	-0.0815031
0.0989231 	-0.718103 	0.150339 	-0.214682 	-0.42727 	0.0373291 	-0.0818456
0.100777 	-0.727195 	0.150075 	-0.217325 	-0.427774 	0.0378653 	-0.082056
0.102665 	-0.737272 	0.146437 	-0.221459 	-0.428092 	0.0385456 	-0.0822675
0.104552 	-0.744938 	0.146137 	-0.223577 	-0.428354 	0.0391449 	-0.0823921
0.106475 	-0.753073 	0.142562 	-0.227181 	-0.428455 	0.0398757 	-0.082435
0.108397 	-0.7589 	0.142189 	-0.228732 	-0.428471 	0.040536 	-0.0824442
0.110355 	-0.764714 	0.138777 	-0.231654 	-0.428377 	0.0413104 	-0.0823017
0.112313 	-0.768455 	0.138276 	-0.232645 	-0.428179 	0.0420272 	-0.0821682
0.114306 	-0.771628 	0.135088 	-0.234866 	-0.427943 	0.0428372 	-0.0818465
0.1163 	-0.773028 	0.134395 	-0.235338 	-0.427601 	0.0436011 	-0.0815529
0.11833 	-0.773146 	0.131457 	-0.236918 	-0.427294 	0.0444381 	-0.0810837
0.12036 	-0.771744 	0.130493 	-0.237015 	-0.426885 	0.0452353 	-0.0806344
0.122428 	-0.768534 	0.127813 	-0.238025 	-0.426549 	0.0460892 	-0.0800756
0.124495 	-0.764117 	0.126479 	-0.237876 	-0.42611 	0.0469044 	-0.079512
0.1266 	-0.757658 	0.124028 	-0.238442 	-0.425728 	0.0477625 	-0.0789364
0.128705 	-0.750185 	0.122178 	-0.238079 	-0.425247 	0.0485827 	-0.0783369
0.128705 	-0.750185 	0.122178 	-0.238079 	-0.425247 	0.0485827 	-0.0783369
0.130849 	-0.740323 	0.11977 	-0.238475 	-0.424769 	0.0494351 	-0.0778104
0.132993 	-0.72925 	0.117144 	-0.237942 	-0.42421 	0.0502558 	-0.0772644
0.135177 	-0.715498 	0.11431 	-0.238498 	-0.423612 	0.0510993 	-0.0768271
0.13736 	-0.699856 	0.110527 	-0.237846 	-0.422974 	0.0519277 	-0.0763979
0.139583 	-0.681678 	0.106624 	-0.238558 	-0.422288 	0.0527663 	-0.076051
0.141806 	-0.660812 	0.10134 	-0.237598 	-0.421618 	0.0536128 	-0.0757458
0.14407 	-0.638154 	0.0959458 	-0.237623 	-0.420902 	0.0544549 	-0.0754827
0.146334 	-0.6125 	0.0891514 	-0.235337 	-0.420252 	0.0553275 	-0.0752815
0.14864 	-0.5869 	0.0825506 	-0.232754 	-0.419543 	0.0561873 	-0.0751302
0.150946 	-0.55908 	0.074858 	-0.227189 	-0.41891 	0.0570918 	-0.0750376
0.153293 	-0.534695 	0.0682832 	-0.219212 	-0.418218 	0.0579682 	-0.0750227
0.155641 	-0.509261 	0.0609476 	-0.208019 	-0.417561 	0.0588899 	-0.0750405
0.158032 	-0.490052 	0.0558296 	-0.192355 	-0.416896 	0.0597512 	-0.0751271
0.160423 	-0.470217 	0.0499519 	-0.174302 	-0.416201 	0.0606519 	-0.0752132
0.162858 	-0.456665 	0.0467721 	-0.151515 	-0.415577 	0.0614663 	-0.0753379
0.165293 	-0.442322 	0.0424754 	-0.128036 	-0.41489 	0.0623165 	-0.0754378
0.167772 	-0.432164 	0.0408127 	-0.101395 	-0.414342 	0.0630839 	-0.0755615
0.170252 	-0.420742 	0.037606 	-0.0757489 	-0.413727 	0.063885 	-0.0756407
0.172776 	-0.411231 	0.036783 	-0.0501603 	-0.413267 	0.0646311 	-0.0757494
0.175301 	-0.400546 	0.0341865 	-0.0273893 	-0.412736 	0.0654015 	-0.0757879
0.177873 	-0.391164 	0.0342024 	-0.00922819 	-0.412338 	0.0661443 	-0.0758725
0.180444 	-0.382003 	0.0324686 	0.00448389 	-0.411849 	0.0668954 	-0.0758499
0.183062 	-0.374429 	0.0341854 	0.0107408 	-0.411496 	0.0676302 	-0.0758873
0.185681 	-0.368931 	0.0342439 	0.0124536 	-0.411017 	0.0683586 	-0.0757771
0.188347 	-0.364522 	0.0379951 	0.00695089 	-0.41071 	0.0690573 	-0.0757217
0.191013 	-0.363189 	0.0400815 	-0.00108725 	-0.410254 	0.0697435 	-0.0754906
0.193729 	-0.361151 	0.0449356 	-0.014326 	-0.410007 	0.0703781 	-0.0752982
0.196444 	-0.36215 	0.0480459 	-0.0274526 	-0.40962 	0.0710007 	-0.074921
0.199209 	-0.360674 	0.0528445 	-0.0435697 	-0.409457 	0.0715573 	-0.0745821
0.201974 	-0.36201 	0.0560042 	-0.0581764 	-0.409187 	0.072104 	-0.0740755
0.20479 	-0.360741 	0.0606219 	-0.0741503 	-0.409123 	0.0725823 	-0.0736207
0.207606 	-0.361995 	0.0639021 	-0.0883086 	-0.40899 	0.0730543 	-0.0730324
0.210473 	-0.361588 	0.0685819 	-0.102678 	-0.409025 	0.0734717 	-0.0724892
0.213341 	-0.363052 	0.0718886 	-0.114841 	-0.409011 	0.0738805 	-0.0718464
0.216261 	-0.364124 	0.0765634 	-0.127483 	-0.409136 	0.0742524 	-0.0712105
0.219181 	-0.366364 	0.0796133 	-0.137538 	-0.409201 	0.0746074 	-0.0705201
0.222155 	-0.369863 	0.084033 	-0.148801 	-0.409418 	0.0749326 	-0.0698053
0.225128 	-0.373427 	0.0866878 	-0.157404 	-0.40953 	0.0752246 	-0.0691058
0.228156 	-0.379514 	0.0904036 	-0.166888 	-0.409841 	0.0754938 	-0.0684004
0.231184 	-0.384008 	0.0921226 	-0.173649 	-0.409989 	0.0757002 	-0.0677941
0.234268 	-0.391196 	0.0946866 	-0.18075 	-0.410338 	0.0759065 	-0.0672019
0.237352 	-0.395373 	0.0950183 	-0.185189 	-0.41051 	0.0760145 	-0.0667939
0.240492 	-0.401759 	0.0961049 	-0.189689 	-0.410794 	0.0761685 	-0.0663311
0.243632 	-0.404536 	0.094958 	-0.191942 	-0.410944 	0.0762053 	-0.0661051
0.24683 	-0.40895 	0.0945413 	-0.19417 	-0.411102 	0.0763421 	-0.0657214
0.250028 	-0.410121 	0.0922985 	-0.194807 	-0.411187 	0.0763722 	-0.0655674
0.253285 	-0.4124 	0.0906846 	-0.195362 	-0.411262 	0.0765258 	-0.0652392
0.256541 	-0.412483 	0.0880555 	-0.194974 	-0.411304 	0.0766039 	-0.0650976
0.259857 	-0.413136 	0.085832 	-0.194362 	-0.411347 	0.0767976 	-0.0648762
0.263174 	-0.412927 	0.0837499 	-0.193435 	-0.411366 	0.0769649 	-0.0647823
0.266551 	-0.412705 	0.0816642 	-0.191946 	-0.411316 	0.0772372 	-0.0647346
0.269928 	-0.412978 	0.0809828 	-0.191003 	-0.41124 	0.0775441 	-0.0647502
0.273367 	-0.412611 	0.0797944 	-0.188865 	-0.411018 	0.0779431 	-0.0649161
0.276806 	-0.414047 	0.0811072 	-0.18866 	-0.410777 	0.0784209 	-0.0651067
0.280308 	-0.414227 	0.0814751 	-0.186337 	-0.410413 	0.0789547 	-0.0655246
0.28381 	-0.41743 	0.0851762 	-0.187941 	-0.410064 	0.079565 	-0.0659938
0.287376 	-0.418872 	0.0875716 	-0.186363 	-0.409618 	0.0802292 	-0.0666912
0.290942 	-0.424356 	0.0937198 	-0.191038 	-0.409262 	0.0809363 	-0.0675291
0.294574 	-0.427761 	0.0983921 	-0.191591 	-0.40877 	0.0817526 	-0.0685362
0.298206 	-0.435782 	0.106691 	-0.200442 	-0.408473 	0.0825861 	-0.0697803
0.301904 	-0.441684 	0.113558 	-0.204599 	-0.408009 	0.0836113 	-0.0711257
0.305602 	-0.45211 	0.123312 	-0.218095 	-0.40782 	0.0846217 	-0.0727257
0.309368 	-0.460653 	0.131877 	-0.22676 	-0.40748 	0.0858761 	-0.0743115
0.313135 	-0.472941 	0.142092 	-0.244208 	-0.407382 	0.0870785 	-0.0760656
0.31697 	-0.483783 	0.151492 	-0.257182 	-0.407169 	0.0884725 	-0.0776495
0.320805 	-0.497014 	0.160993 	-0.276625 	-0.407054 	0.0898002 	-0.0793212
0.324711 	-0.509401 	0.170203 	-0.292504 	-0.406838 	0.0912143 	-0.0807079
0.328616 	-0.522488 	0.177837 	-0.3114 	-0.406554 	0.0925578 	-0.0821936
0.332593 	-0.535306 	0.185876 	-0.327915 	-0.406161 	0.0938972 	-0.0833439
0.336571 	-0.547083 	0.190795 	-0.343881 	-0.405561 	0.095157 	-0.0846622
0.340621 	-0.558978 	0.196901 	-0.358579 	-0.40488 	0.0963488 	-0.0856775
0.344671 	-0.568394 	0.198778 	-0.369915 	-0.403884 	0.0974559 	-0.0868447
0.348795 	-0.57808 	0.202521 	-0.380918 	-0.402858 	0.0984743 	-0.0878768
0.35292 	-0.584573 	0.201587 	-0.387177 	-0.401467 	0.099394 	-0.0889071
0.35712 	-0.591137 	0.202895 	-0.393676 	-0.400031 	0.100259 	-0.0900213
0.36132 	-0.594704 	0.199804 	-0.395678 	-0.398304 	0.101006 	-0.0909825
0.365597 	-0.597722 	0.198954 	-0.397908 	-0.396476 	0.101772 	-0.0921083
0.369874 	-0.598614 	0.194538 	-0.396976 	-0.394556 	0.102446 	-0.0930478
0.37423 	-0.597964 	0.192004 	-0.395909 	-0.39249 	0.103209 	-0.0940614
0.378585 	-0.596238 	0.187014 	-0.39328 	-0.390548 	0.103949 	-0.094955
0.383021 	-0.591748 	0.183287 	-0.390352 	-0.38842 	0.104808 	-0.0957986
0.387456 	-0.586987 	0.178271 	-0.387242 	-0.386546 	0.105676 	-0.0966321
0.387456 	-0.586987 	0.178271 	-0.387242 	-0.386546 	0.105676 	-0.0966321
0.391973 	-0.578194 	0.173802 	-0.384194 	-0.384476 	0.106639 	-0.0973122
0.39649 	-0.569625 	0.169203 	-0.381907 	-0.382691 	0.107579 	-0.0980663
0.401089 	-0.556026 	0.164544 	-0.380737 	-0.380789 	0.108532 	-0.0985871
0.405689 	-0.54311 	0.16095 	-0.380568 	-0.379169 	0.109429 	-0.0991915
0.410373 	-0.52497 	0.157073 	-0.383435 	-0.377598 	0.110228 	-0.0996069
0.415057 	-0.508188 	0.155465 	-0.386505 	-0.376264 	0.110969 	-0.100071
0.419827 	-0.48735 	0.153741 	-0.395021 	-0.37514 	0.111498 	-0.100497
0.424597 	-0.468674 	0.155275 	-0.401873 	-0.374143 	0.111971 	-0.100903
0.429454 	-0.448562 	0.156745 	-0.415696 	-0.373347 	0.112144 	-0.101333
0.434311 	-0.431027 	0.161984 	-0.425528 	-0.372581 	0.112293 	-0.101659
0.439258 	-0.415294 	0.166635 	-0.4415 	-0.371895 	0.112158 	-0.102044
0.444204 	-0.401722 	0.175005 	-0.451956 	-0.3712 	0.112064 	-0.102339
0.449241 	-0.392591 	0.181621 	-0.465313 	-0.370484 	0.111798 	-0.102802
0.454279 	-0.384459 	0.191461 	-0.473561 	-0.369747 	0.111611 	-0.103301
0.459408 	-0.382097 	0.197974 	-0.480768 	-0.368941 	0.111362 	-0.103922
0.464538 	-0.379427 	0.207038 	-0.485093 	-0.368144 	0.111218 	-0.104675
0.469761 	-0.382954 	0.211358 	-0.485752 	-0.367333 	0.111055 	-0.10535
0.474985 	-0.385277 	0.217426 	-0.486391 	-0.366606 	0.111015 	-0.106154
0.480305 	-0.394521 	0.218065 	-0.482967 	-0.366057 	0.110919 	-0.106758
0.485624 	-0.402092 	0.219429 	-0.481908 	-0.365653 	0.110936 	-0.107467
0.491041 	-0.417026 	0.215812 	-0.47762 	-0.365653 	0.110832 	-0.107998
0.496458 	-0.429822 	0.21172 	-0.476945 	-0.365745 	0.110861 	-0.10856
0.501975 	-0.447294 	0.204408 	-0.47302 	-0.366209 	0.110777 	-0.109008
0.507491 	-0.461189 	0.195759 	-0.472722 	-0.366623 	0.11082 	-0.109296
0.513109 	-0.473641 	0.186342 	-0.469569 	-0.367117 	0.11083 	-0.109514
0.518726 	-0.480256 	0.176039 	-0.469862 	-0.367538 	0.110915 	-0.109433
0.524447 	-0.480598 	0.16745 	-0.471803 	-0.367786 	0.111104 	-0.109347
0.530167 	-0.473796 	0.159625 	-0.477837 	-0.368053 	0.111363 	-0.108991
0.535993 	-0.461017 	0.155609 	-0.491421 	-0.368055 	0.111833 	-0.108619
0.541818 	-0.442623 	0.153635 	-0.508059 	-0.368115 	0.112395 	-0.108115
0.547751 	-0.422481 	0.155424 	-0.531061 	-0.367917 	0.113212 	-0.107338
0.553683 	-0.400866 	0.158773 	-0.551104 	-0.367695 	0.114047 	-0.106641
0.559724 	-0.381244 	0.163147 	-0.568279 	-0.367238 	0.115085 	-0.105504
0.565765 	-0.363791 	0.167587 	-0.575079 	-0.366612 	0.115967 	-0.104716
0.571917 	-0.347608 	0.170031 	-0.571173 	-0.365973 	0.116961 	-0.103484
0.578069 	-0.333807 	0.171738 	-0.55566 	-0.365098 	0.117743 	-0.102726
0.584334 	-0.315869 	0.169482 	-0.531066 	-0.364526 	0.11855 	-0.101796
0.590599 	-0.297853 	0.166201 	-0.501709 	-0.363723 	0.119139 	-0.101204
0.596979 	-0.271756 	0.156449 	-0.472888 	-0.362975 	0.119798 	-0.101054
0.603358 	-0.244012 	0.145086 	-0.447982 	-0.362035 	0.120205 	-0.101006
0.609855 	-0.212684 	0.125112 	-0.430573 	-0.360791 	0.120748 	-0.101685
0.616352 	-0.180241 	0.103954 	-0.419948 	-0.359476 	0.121064 	-0.102324
0.622968 	-0.151182 	0.0771869 	-0.414863 	-0.357971 	0.121387 	-0.103464
0.629583 	-0.121138 	0.0515948 	-0.41413 	-0.35659 	0.121642 	-0.104421
0.636321 	-0.0949019 	0.0274781 	-0.417425 	-0.355227 	0.121898 	-0.105378
0.643058 	-0.0669834 	0.00619926 	-0.420936 	-0.354128 	0.122321 	-0.105965
0.649919 	-0.0412851 	-0.0120104 	-0.425899 	-0.352968 	0.122867 	-0.106299
0.656779 	-0.0164046 	-0.028686 	-0.425508 	-0.35193 	0.123639 	-0.106323
0.663766 	0.00430415 	-0.0445717 	-0.424322 	-0.350562 	0.124561 	-0.106363
0.670753 	0.018592 	-0.0581582 	-0.419903 	-0.349033 	0.125596 	-0.106292
0.677867 	0.025305 	-0.0667931 	-0.42592 	-0.347074 	0.126767 	-0.106314
0.684982 	0.0262624 	-0.0714272 	-0.435257 	-0.344799 	0.127998 	-0.106164
0.692227 	0.0182331 	-0.065604 	-0.45469 	-0.342168 	0.129266 	-0.105792
0.699473 	0.0101694 	-0.05904 	-0.47638 	-0.339052 	0.130547 	-0.105139
0.706851 	-8.67953e-05 	-0.0501526 	-0.485689 	-0.335749 	0.131621 	-0.104099
0.714229 	-0.00893837 	-0.0435237 	-0.494647 	-0.331782 	0.132667 	-0.102878
0.721742 	-0.0121626 	-0.0419461 	-0.486213 	-0.327796 	0.133311 	-0.101392
0.729256 	-0.0172933 	-0.0399136 	-0.477967 	-0.323151 	0.133901 	-0.0998832
0.736907 	-0.0160776 	-0.0396942 	-0.467897 	-0.31863 	0.134025 	-0.0982829
0.744558 	-0.0189406 	-0.0368715 	-0.457594 	-0.313688 	0.134074 	-0.0968481
0.75235 	-0.0144007 	-0.0335062 	-0.452285 	-0.308942 	0.133857 	-0.0953879
0.760142 	-0.0144434 	-0.0270764 	-0.445722 	-0.304077 	0.133659 	-0.0943309
0.760142 	-0.0144434 	-0.0270764 	-0.445722 	-0.304077 	0.133659 	-0.0943309
0.768076 	-0.0057328 	-0.0187685 	-0.442492 	-0.299376 	0.133517 	-0.0932024
0.776011 	-0.00173101 	-0.00799023 	-0.43738 	-0.294971 	0.133405 	-0.0922658
0.784091 	0.0105461 	0.0044334 	-0.432874 	-0.29073 	0.133383 	-0.0907975
0.792171 	0.0188956 	0.0183002 	-0.426797 	-0.287321 	0.133314 	-0.088842
0.800399 	0.0328418 	0.0329483 	-0.417656 	-0.283902 	0.133797 	-0.0861114
0.808627 	0.0446264 	0.0483287 	-0.408014 	-0.281528 	0.13425 	-0.0825557
0.817006 	0.057146 	0.0642388 	-0.39107 	-0.27885 	0.135483 	-0.0788611
0.825385 	0.0699279 	0.0799807 	-0.374791 	-0.276738 	0.136458 	-0.0745213
0.833918 	0.0785344 	0.0977117 	-0.350788 	-0.27447 	0.137521 	-0.0707615
0.842451 	0.089057 	0.114001 	-0.327351 	-0.272228 	0.138316 	-0.0669112
0.85114 	0.0939229 	0.131532 	-0.301436 	-0.270144 	0.138902 	-0.0639039
0.85983 	0.100355 	0.146798 	-0.274934 	-0.268009 	0.139566 	-0.0612393
0.868678 	0.10208 	0.16047 	-0.252121 	-0.265841 	0.140135 	-0.0594721
0.877527 	0.10345 	0.171869 	-0.227971 	-0.263333 	0.140814 	-0.0580499
0.886538 	0.103621 	0.182498 	-0.212903 	-0.260174 	0.141478 	-0.0571748
0.895549 	0.102231 	0.191666 	-0.195505 	-0.255904 	0.141801 	-0.056403
0.904725 	0.104513 	0.202 	-0.190718 	-0.250903 	0.141708 	-0.0553216
0.913901 	0.106643 	0.211824 	-0.182658 	-0.244592 	0.14096 	-0.0543924
0.923246 	0.110851 	0.21991 	-0.18589 	-0.238493 	0.139524 	-0.0528032
0.93259 	0.118778 	0.228911 	-0.186291 	-0.23157 	0.137569 	-0.0515693
0.942106 	0.122364 	0.227382 	-0.193093 	-0.225065 	0.135 	-0.0497773
0.951622 	0.132045 	0.229273 	-0.200409 	-0.218214 	0.132042 	-0.0482388
0.961313 	0.129035 	0.212358 	-0.199614 	-0.211313 	0.128623 	-0.0459584
0.971003 	0.128907 	0.200313 	-0.202879 	-0.204749 	0.124975 	-0.0438678
0.980872 	0.116649 	0.154914 	-0.174619 	-0.198332 	0.121563 	-0.0413283
0.99074 	0.0993906 	0.119303 	-0.155278 	-0.192665 	0.118272 	-0.0389729
1.00079 	0.0877259 	0.0667192 	-0.125132 	-0.186547 	0.11598 	-0.0367226
1.01084 	0.0521822 	0.0445421 	-0.111733 	-0.180571 	0.11376 	-0.0344445
1.02107 	0.0133017 	0.043004 	-0.129298 	-0.173117 	0.112649 	-0.0317519
1.03131 	-0.0536858 	0.0710493 	-0.151934 	-0.165261 	0.111399 	-0.0285146
1.04173 	-0.129381 	0.109297 	-0.196178 	-0.156518 	0.110966 	-0.0244107
1.05215 	-0.198452 	0.138006 	-0.226717 	-0.147322 	0.11038 	-0.0195762
1.06276 	-0.253077 	0.163491 	-0.252109 	-0.138102 	0.110348 	-0.0146775
1.07337 	-0.283272 	0.170776 	-0.265028 	-0.127976 	0.109854 	-0.00926292
1.08418 	-0.296156 	0.184367 	-0.26385 	-0.117477 	0.109156 	-0.00431513
1.09499 	-0.287194 	0.183281 	-0.25557 	-0.105858 	0.107938 	0.000995172
1.10599 	-0.276136 	0.188499 	-0.236224 	-0.0944084 	0.105894 	0.00536927
1.117 	-0.252636 	0.180931 	-0.214276 	-0.0828393 	0.103875 	0.0100495
1.1282 	-0.236748 	0.174538 	-0.194934 	-0.072056 	0.100835 	0.0135909
1.13941 	-0.219175 	0.156642 	-0.180005 	-0.0617384 	0.0979725 	0.0177752
1.15082 	-0.20637 	0.141895 	-0.181211 	-0.0516919 	0.0946144 	0.0215755
1.16224 	-0.198963 	0.115704 	-0.192059 	-0.0411662 	0.0912867 	0.0263368
1.17386 	-0.196303 	0.0968961 	-0.218159 	-0.030667 	0.0884948 	0.0317305
1.18548 	-0.200293 	0.0668909 	-0.252962 	-0.0185603 	0.0854723 	0.0378991
1.19731 	-0.211389 	0.0440947 	-0.2869 	-0.00557997 	0.0826355 	0.0452637
1.20915 	-0.22183 	0.0165594 	-0.315603 	0.00937141 	0.079504 	0.053258
1.2212 	-0.224115 	0.00823432 	-0.320598 	0.026621 	0.0757858 	0.0619749
1.23325 	-0.212425 	0.00917568 	-0.303293 	0.0455119 	0.0724773 	0.0708108
1.24553 	-0.178135 	0.0270694 	-0.267472 	0.0672191 	0.0687038 	0.0791324
1.2578 	-0.127595 	0.0433516 	-0.224287 	0.0898321 	0.0657561 	0.0867548
1.2703 	-0.0627686 	0.050325 	-0.190471 	0.114 	0.0629826 	0.0936146
1.2828 	0.00523373 	0.0348761 	-0.182761 	0.138503 	0.061003 	0.0992628
1.29552 	0.0713752 	0.0104699 	-0.192638 	0.163347 	0.0595003 	0.103503
1.30825 	0.130691 	-0.0231563 	-0.226335 	0.188659 	0.0585546 	0.106247
1.32121 	0.198011 	-0.0441269 	-0.250768 	0.214649 	0.0581155 	0.106776
1.33417 	0.269675 	-0.0585082 	-0.268378 	0.241748 	0.0576337 	0.105854
1.34737 	0.379799 	-0.0511821 	-0.246643 	0.270487 	0.0567885 	0.102734
1.36057 	0.498076 	-0.035622 	-0.210004 	0.300964 	0.0557009 	0.0984721
1.37401 	0.649278 	-0.0166242 	-0.156944 	0.333884 	0.0545648 	0.0934642
1.38745 	0.787264 	0.00925728 	-0.103962 	0.369117 	0.0533579 	0.0886399
1.40114 	0.910614 	0.0171292 	-0.0836189 	0.408405 	0.0512424 	0.084923
1.41483 	1.00421 	0.0325362 	-0.0686831 	0.449613 	0.0493784 	0.0820756
1.41483 	1.00421 	0.0325362 	-0.0686831 	0.449613 	0.0493784 	0.0820756
1.42557 	1.05341 	0.0399326 	-0.0856539 	0.482244 	0.0499206 	0.0804023
1.42877 	1.0556 	0.0363045 	-0.0891362 	0.492982 	0.048467 	0.0806784
1.43631 	1.1026 	0.047329 	-0.102625 	0.514875 	0.0504629 	0.078729
1.4427 	1.0868 	0.0412318 	-0.103051 	0.537658 	0.0477761 	0.0796794
1.45044 	1.10559 	0.0542892 	-0.113255 	0.565868 	0.0472232 	0.0785998
1.46457 	1.10858 	0.0612495 	-0.123886 	0.61686 	0.0439835 	0.0784706
1.47896 	1.10387 	0.0608277 	-0.0868371 	0.6652 	0.0408218 	0.0787344
1.49335 	1.09916 	0.0604059 	-0.0497887 	0.713539 	0.0376601 	0.0789982
1.50007 	1.12821 	0.046355 	-0.0152634 	0.741444 	0.0388823 	0.0793133
1.50679 	1.16103 	0.0297767 	0.0186212 	0.769888 	0.0406681 	0.0797145
1.51021 	1.18637 	0.022841 	0.0335423 	0.784062 	0.0414337 	0.0797495
1.51363 	1.2157 	0.0129118 	0.0496873 	0.798459 	0.0423179 	0.0798692
1.51706 	1.24386 	0.00731012 	0.0638674 	0.810746 	0.0425971 	0.0799131
1.5205 	1.26539 	0.002723 	0.0773536 	0.823179 	0.0430514 	0.0800326
1.52751 	1.31062 	0.00303887 	0.100947 	0.848009 	0.043982 	0.0799816
1.53451 	1.3499 	-0.00412903 	0.129666 	0.87325 	0.0451179 	0.0801007
1.53463 	1.35035 	-0.00389998 	0.129873 	0.873651 	0.0451466 	0.0801022
1.53474 	1.35082 	-0.00386824 	0.130214 	0.874057 	0.0451763 	0.0801043
1.54178 	1.38226 	0.000614566 	0.147346 	0.900928 	0.0459381 	0.0804318
1.54882 	1.40829 	0.00481705 	0.167069 	0.927949 	0.0468537 	0.0808561
1.55279 	1.41737 	0.0167322 	0.168821 	0.942566 	0.0475586 	0.0812763
1.55676 	1.42466 	0.0255321 	0.1737 	0.957143 	0.0482986 	0.0816989
1.56009 	1.42835 	0.0340812 	0.174138 	0.969101 	0.0491492 	0.0821328
1.56343 	1.43175 	0.0421276 	0.176346 	0.981061 	0.0499921 	0.082578
1.57089 	1.43445 	0.0739847 	0.169637 	1.00603 	0.0517416 	0.083783
1.57835 	1.43763 	0.102084 	0.166494 	1.03089 	0.0534599 	0.0846078
1.57904 	1.4375 	0.105505 	0.166969 	1.03295 	0.0536081 	0.084708
1.57973 	1.43804 	0.108947 	0.166362 	1.03499 	0.0537587 	0.0847633
1.58666 	1.43355 	0.143448 	0.160475 	1.05605 	0.0550545 	0.0855453
1.59359 	1.43263 	0.178115 	0.154754 	1.07687 	0.0564051 	0.0858532
1.59866 	1.4305 	0.207868 	0.163499 	1.09018 	0.0574281 	0.0862246
1.60373 	1.43459 	0.238059 	0.167145 	1.10325 	0.0585571 	0.0863727
1.60644 	1.43232 	0.253598 	0.169117 	1.11027 	0.0591742 	0.0864744
1.60915 	1.44769 	0.25085 	0.162627 	1.1154 	0.0576685 	0.0869039
1.60915 	1.43291 	0.269956 	0.171197 	1.11714 	0.0598081 	0.086464
1.61013 	1.44706 	0.257571 	0.16437 	1.11767 	0.0578712 	0.0868935
1.61111 	1.44832 	0.264297 	0.166387 	1.11989 	0.0580936 	0.0868735
1.61709 	1.42734 	0.323853 	0.186865 	1.13517 	0.0615986 	0.0862399
1.62504 	1.44747 	0.359557 	0.196558 	1.15114 	0.0613139 	0.086449
1.62504 	1.43594 	0.379002 	0.206837 	1.15266 	0.0635192 	0.0859654
1.6307 	1.43962 	0.398005 	0.190835 	1.16248 	0.0624955 	0.0856434
1.63636 	1.44337 	0.439521 	0.191139 	1.17362 	0.0637016 	0.0849361
1.63881 	1.43992 	0.4564 	0.189773 	1.17853 	0.0642065 	0.0846054
1.64127 	1.43993 	0.474117 	0.192291 	1.18336 	0.0647358 	0.0843393
1.64955 	1.41254 	0.514005 	0.157428 	1.19767 	0.0661414 	0.0828173
1.65784 	1.4066 	0.567974 	0.119551 	1.21147 	0.067439 	0.081485
1.66031 	1.39668 	0.569117 	0.111959 	1.21479 	0.067683 	0.081047
1.66279 	1.39124 	0.578327 	0.0933025 	1.21797 	0.0678726 	0.0806137
1.66878 	1.36396 	0.587149 	0.0645729 	1.22584 	0.0684139 	0.0795506
1.67476 	1.34886 	0.608441 	0.0173201 	1.23335 	0.0688429 	0.0784785
1.68262 	1.32143 	0.579192 	0.00818218 	1.24094 	0.0691221 	0.0772235
1.69048 	1.29927 	0.575035 	-0.0366192 	1.24823 	0.0692838 	0.0760291
1.69126 	1.29579 	0.572685 	-0.0387968 	1.24897 	0.0693068 	0.0759025
1.69205 	1.2936 	0.572343 	-0.0444962 	1.24968 	0.0693177 	0.0757905
1.70087 	1.28062 	0.4978 	-0.0194983 	1.25569 	0.0694685 	0.0749586
1.7097 	1.26355 	0.445821 	-0.0184228 	1.26107 	0.0693669 	0.0743774
1.7146 	1.27471 	0.405751 	0.00127073 	1.26298 	0.0693272 	0.0743382
1.71951 	1.28364 	0.358856 	0.0275947 	1.26459 	0.069155 	0.0743996
1.72362 	1.29062 	0.318639 	0.047473 	1.26599 	0.069052 	0.0744311
1.72772 	1.29452 	0.279879 	0.0681551 	1.26719 	0.0688543 	0.0745404
1.73693 	1.31999 	0.2291 	0.095463 	1.2685 	0.0684714 	0.0751167
1.74613 	1.36351 	0.14565 	0.152639 	1.26955 	0.0679078 	0.0757876
1.74806 	1.36398 	0.143827 	0.152684 	1.26959 	0.0678223 	0.0759567
1.75 	1.37034 	0.136699 	0.156005 	1.26961 	0.0677143 	0.0761208
1.75746 	1.37884 	0.120854 	0.15941 	1.26971 	0.0673338 	0.0767683
1.76493 	1.40989 	0.0856619 	0.178462 	1.2697 	0.0668683 	0.0773582
1.77349 	1.40205 	0.0858519 	0.169387 	1.26915 	0.0665116 	0.0779247
1.78205 	1.40889 	0.0764846 	0.162517 	1.2685 	0.0660697 	0.0783914
1.78309 	1.4082 	0.0760574 	0.161355 	1.26842 	0.0660205 	0.0784513
1.78412 	1.4099 	0.0743294 	0.160767 	1.26833 	0.0659614 	0.0785025
1.79393 	1.39319 	0.0755626 	0.151461 	1.26698 	0.0656265 	0.0788486
1.80373 	1.3837 	0.0731296 	0.138717 	1.26548 	0.0651432 	0.0791928
1.80976 	1.3756 	0.0732328 	0.135802 	1.26427 	0.0649241 	0.0793852
1.81579 	1.36778 	0.0720368 	0.13181 	1.263 	0.064601 	0.0796177
1.81977 	1.36202 	0.0716657 	0.129459 	1.26215 	0.0644127 	0.0797698
1.82375 	1.35671 	0.0704837 	0.126376 	1.26126 	0.0641504 	0.0799494
1.83397 	1.34571 	0.0703623 	0.122959 	1.25863 	0.0635762 	0.0804225
1.8442 	1.33515 	0.0678106 	0.118919 	1.25594 	0.0627546 	0.0809558
1.84777 	1.33198 	0.067896 	0.118012 	1.25493 	0.0625134 	0.0811335
1.85135 	1.32911 	0.0673819 	0.117031 	1.25392 	0.0622149 	0.0813125
1.85821 	1.32286 	0.0669375 	0.11508 	1.25194 	0.0616749 	0.0816613
1.86508 	1.31705 	0.0655345 	0.113045 	1.24998 	0.0610333 	0.0820003
1.87574 	1.30858 	0.0653515 	0.11079 	1.24682 	0.060136 	0.0824621
1.8864 	1.30092 	0.063618 	0.108377 	1.24371 	0.0590972 	0.0828981
1.88764 	1.30005 	0.0636571 	0.108185 	1.24334 	0.0590042 	0.0829413
1.88889 	1.29925 	0.0635496 	0.10798 	1.24297 	0.0588982 	0.082983
1.89853 	1.29227 	0.0632975 	0.106315 	1.24009 	0.0581048 	0.083313
1.90818 	1.2858 	0.0620645 	0.1046 	1.23727 	0.0572206 	0.0836366
1.91837 	1.2794 	0.0617823 	0.10329 	1.23432 	0.0563727 	0.0839341
1.92857 	1.27344 	0.0605535 	0.101923 	1.23145 	0.0554393 	0.0842329
1.92949 	1.27284 	0.0604813 	0.101792 	1.23118 	0.055357 	0.0842603
1.93041 	1.27229 	0.0603348 	0.101661 	1.23092 	0.0552676 	0.0842877
1.94177 	1.26572 	0.0602108 	0.10046 	1.22774 	0.0545221 	0.084585
1.95312 	1.25959 	0.0591842 	0.0992373 	1.22465 	0.0536798 	0.0848846
1.96186 	1.25515 	0.0588115 	0.0985292 	1.22232 	0.0529892 	0.0850914
1.97059 	1.25099 	0.0578424 	0.0977997 	1.22005 	0.0522264 	0.0852996
1.97345 	1.2495 	0.0576145 	0.0975441 	1.21929 	0.0519834 	0.0853687
1.97632 	1.2481 	0.057209 	0.0972907 	1.21854 	0.0517183 	0.085438
1.98816 	1.24242 	0.0569522 	0.0965406 	1.21537 	0.0509791 	0.0856809
2 	1.23713 	0.055893 	0.0957685 	1.2123 	0.0501342 	0.0859298
2 	1.23713 	0.055893 	0.0957685 	1.2123 	0.0501342 	0.0859298
2.00444 	1.23531 	0.0557347 	0.0955438 	1.21121 	0.0498966 	0.0860129
2.00888 	1.2335 	0.0555765 	0.0953191 	1.21012 	0.0496589 	0.0860961
