0 1e-10
0.00128482 0.0101549
0.00256965 0.0203098
0.00387803 0.018506
0.00518642 0.0167021
0.00651881 0.0154995
0.00785119 0.0142969
0.00920802 0.0130614
0.0105648 0.0118258
0.0119465 0.0103798
0.0133283 0.00893388
0.0147353 0.00742118
0.0161424 0.00590848
0.0175752 0.00462936
0.0190081 0.00335024
0.0204672 0.00254958
0.0219263 0.00174891
0.0234122 0.00141038
0.0248981 0.00107184
0.0264113 0.00100826
0.0279244 0.000944677
0.0294653 0.00101827
0.0310063 0.00109187
0.0325754 0.00123248
0.0341446 0.0013731
0.0357425 0.00153521
0.0373405 0.00169732
0.0389677 0.0018537
0.040595 0.00201008
0.0422521 0.00213558
0.0439092 0.00226108
0.0455967 0.00234154
0.0472842 0.002422
0.0490026 0.0024629
0.0507211 0.0025038
0.052471 0.00251277
0.054221 0.00252174
0.056003 0.0025034
0.0577851 0.00248505
0.0595998 0.00244192
0.0614146 0.00239879
0.0632626 0.00233465
0.0651106 0.00227052
0.0669925 0.00219614
0.0688745 0.00212175
0.0707909 0.00204801
0.0727073 0.00197427
0.0746589 0.00190526
0.0766105 0.00183625
0.0785979 0.00177434
0.0805853 0.00171243
0.0826091 0.00165796
0.0846329 0.00160348
0.0866939 0.00155517
0.0887548 0.00150685
0.0908536 0.00146244
0.0929523 0.00141804
0.0950896 0.00137318
0.0972268 0.00132832
0.0994033 0.00127502
0.10158 0.00122172
0.103796 0.00115432
0.106012 0.00108693
0.108269 0.00101303
0.110526 0.000939124
0.112825 0.000868583
0.115123 0.000798041
0.117464 0.00073616
0.119804 0.000674278
0.122188 0.000628826
0.124571 0.000583374
0.126999 0.000554292
0.129426 0.00052521
0.131897 0.000505619
0.134369 0.000486028
0.136886 0.000473183
0.139403 0.000460338
0.141967 0.000454361
0.14453 0.000448384
0.14714 0.00044933
0.14975 0.000450276
0.152408 0.00045893
0.155066 0.000467585
0.157773 0.000488601
0.16048 0.000509618
0.163237 0.000552742
0.165993 0.000595866
0.1688 0.000663659
0.171607 0.000731452
0.174466 0.000803008
0.177324 0.000874565
0.180235 0.000929344
0.183146 0.000984124
0.186111 0.00101982
0.189075 0.00105552
0.192094 0.00107233
0.195113 0.00108915
0.198187 0.00109161
0.201261 0.00109407
0.204391 0.0010887
0.207522 0.00108333
0.21071 0.00106238
0.213898 0.00104143
0.217144 0.00100421
0.22039 0.000966986
0.220574 0.000964982
0.220758 0.000962977
0.22388 0.000928976
0.227002 0.000894975
0.233591 0.000840829
0.233735 0.00083964
0.240592 0.000791674
0.247574 0.000752304
0.254685 0.000724779
0.258305 0.000715123
0.261925 0.000705467
0.265612 0.000697178
0.269299 0.000688888
0.273053 0.000679417
0.276808 0.000669946
0.280631 0.000661187
0.284454 0.000652428
0.288348 0.000646361
0.292241 0.000640294
0.296206 0.000637892
0.300171 0.00063549
0.304208 0.000639465
0.308246 0.00064344
0.312358 0.000655685
0.316469 0.00066793
0.320656 0.000693078
0.324843 0.000718226
0.329107 0.000765704
0.333371 0.000813181
0.337713 0.000875884
0.342055 0.000938586
0.346476 0.000992361
0.350898 0.00104614
0.355401 0.00108119
0.359903 0.00111624
0.364489 0.00113691
0.369074 0.00115758
0.373744 0.001167
0.378413 0.00117642
0.383168 0.00117107
0.387923 0.00116573
0.392765 0.00114221
0.397608 0.0011187
0.402539 0.00108531
0.40747 0.00105191
0.412491 0.00102213
0.417513 0.000992348
0.422626 0.000972007
0.42774 0.000951666
0.432948 0.000938298
0.438155 0.00092493
0.443458 0.000909524
0.448761 0.000894119
0.454161 0.000867061
0.459561 0.000840003
0.46506 0.000807714
0.47056 0.000775424
0.47616 0.000757589
0.48176 0.000739753
0.487463 0.000751163
0.493165 0.000762573
0.498973 0.000830217
0.50478 0.000897861
0.510694 0.00112518
0.516608 0.0013525
0.52263 0.00204219
0.528653 0.00273188
0.534786 0.00364668
0.540918 0.00456148
0.547164 0.00458969
0.553409 0.0046179
0.559769 0.00390098
0.566129 0.00318407
0.572605 0.00275784
0.579082 0.00233161
0.585677 0.00225052
0.592272 0.00216942
0.598989 0.00218717
0.605705 0.00220492
0.612544 0.0022436
0.619384 0.00228227
0.626349 0.00233655
0.633314 0.00239082
0.640406 0.00247562
0.647499 0.00256041
0.654722 0.00265851
0.661944 0.00275661
0.669299 0.00283602
0.676655 0.00291543
0.684145 0.00295555
0.691635 0.00299568
0.699262 0.0030063
0.70689 0.00301692
0.714657 0.0030196
0.722424 0.00302228
0.730334 0.00304534
0.738244 0.0030684
0.746299 0.00307808
0.754354 0.00308777
0.762556 0.00306872
0.770759 0.00304966
0.779112 0.0030836
0.787465 0.00311754
0.795971 0.00319977
0.804478 0.003282
0.81314 0.00334191
0.821802 0.00340182
0.830623 0.00338555
0.839445 0.00336929
0.848428 0.00329492
0.857411 0.00322054
0.866558 0.00313237
0.875706 0.00304419
0.885021 0.00296305
0.894337 0.0028819
0.903823 0.00284138
0.91331 0.00280086
0.92297 0.00281666
0.93263 0.00283246
0.942468 0.0029074
0.952305 0.00298233
0.962323 0.00307239
0.972341 0.00316245
0.982543 0.0031957
0.992745 0.00322896
1.00313 0.00322679
1.01352 0.00322462
1.0241 0.0032492
1.03468 0.00327377
1.04545 0.00328773
1.05623 0.00330168
1.0672 0.0032221
1.07817 0.00314252
1.08934 0.00293673
1.10051 0.00273093
1.11189 0.00250942
1.12327 0.00228791
1.13485 0.00213485
1.14644 0.00198179
1.15824 0.00190165
1.17004 0.0018215
1.18205 0.00183642
1.19407 0.00185134
1.2063 0.001969
1.21854 0.00208665
1.23099 0.00233305
1.24345 0.00257945
1.25614 0.00344751
1.26883 0.00431558
1.28175 0.00507495
1.29467 0.00583433
1.30783 0.00540425
1.32099 0.00497416
1.33439 0.00433717
1.34778 0.00370017
1.36143 0.00358596
1.37507 0.00347174
1.38897 0.00349671
1.40286 0.00352168
1.41701 0.00363334
1.43116 0.00374499
1.44557 0.00389469
1.45998 0.00404439
1.47466 0.00408808
1.48933 0.00413177
1.50427 0.00406079
1.51921 0.00398981
1.53443 0.00389738
1.54965 0.00380495
1.56514 0.0037959
1.58064 0.00378684
1.59642 0.0039934
1.6122 0.00419996
1.62827 0.00436707
1.64434 0.00453419
1.6607 0.003905
1.67707 0.0032758
1.69373 0.00234306
1.7104 0.00141032
1.72737 0.000908104
1.74434 0.000405891
1.76162 0.000301246
1.7789 0.000196601
1.7965 0.000175037
1.81409 0.000153473
1.83202 0.000147812
1.84994 0.000142151
1.86819 0.000140785
1.88644 0.000139419
1.90502 0.000140313
1.9236 0.000141207
1.94253 0.000143993
1.96146 0.00014678
1.98073 0.000150685
2 0.00015459
