1 1e-10
1.00148 0.000699358
1.00296 0.00139872
1.00447 0.00184922
1.00598 0.00229972
1.00753 0.00258008
1.00907 0.00286044
1.01065 0.00304761
1.01222 0.00323478
1.01383 0.00333221
1.01544 0.00342964
1.01709 0.00331256
1.01873 0.00319548
1.02041 0.00281599
1.02209 0.00243651
1.02381 0.00198587
1.02552 0.00153523
1.02727 0.00124901
1.02902 0.000962782
1.03081 0.000848422
1.0326 0.000734062
1.03443 0.000710614
1.03625 0.000687167
1.03812 0.000714009
1.03998 0.00074085
1.04189 0.000816938
1.04379 0.000893026
1.04574 0.000983473
1.04768 0.00107392
1.04967 0.00111778
1.05165 0.00116165
1.05368 0.00115545
1.05571 0.00114924
1.05778 0.0011101
1.05985 0.00107096
1.06197 0.00100904
1.06409 0.000947113
1.06625 0.000880619
1.06841 0.000814124
1.07061 0.000755371
1.07282 0.000696619
1.07507 0.000653572
1.07733 0.000610525
1.07963 0.000586175
1.08193 0.000561825
1.08428 0.000553515
1.08663 0.000545206
1.08903 0.000551414
1.09143 0.000557623
1.09388 0.000583065
1.09633 0.000608507
1.09883 0.000661003
1.10133 0.000713498
1.10389 0.000796269
1.10644 0.00087904
1.10905 0.00098125
1.11166 0.00108346
1.11433 0.00117834
1.11699 0.00127322
1.11972 0.00133809
1.12244 0.00140297
1.12522 0.00144756
1.128 0.00149215
1.13084 0.00154728
1.13368 0.0016024
1.13657 0.00169888
1.13947 0.00179535
1.14539 0.00206227
1.15144 0.00233332
1.15762 0.00256629
1.16392 0.00273388
1.17036 0.00282416
1.17694 0.00284085
1.18366 0.00280036
1.19052 0.00273217
1.19752 0.0026672
1.20467 0.00261481
1.21198 0.00257137
1.21944 0.00254311
1.22706 0.00253207
1.23484 0.00253587
1.24278 0.00255795
1.2509 0.00259923
1.25918 0.00265108
1.26764 0.00270455
1.27629 0.00275102
1.28511 0.00278286
1.29412 0.00279905
1.30333 0.00279784
1.31273 0.00277144
1.32233 0.00271895
1.33213 0.00265288
1.34214 0.00258698
1.35236 0.0025347
1.3628 0.00249956
1.37346 0.00246987
1.38435 0.00241313
1.39547 0.00229923
1.40682 0.00214169
1.41842 0.00196798
1.43026 0.00179614
1.44236 0.0016199
1.45471 0.00142363
1.46732 0.00121219
1.4802 0.0010129
1.49335 0.000867951
1.50679 0.000786279
1.5205 0.000753583
1.53451 0.000774566
1.54882 0.000845413
1.56343 0.000865231
1.57835 0.000714263
1.59359 0.00043253
1.60915 0.000205905
1.62504 0.000111107
1.64127 7.51771e-05
1.65784 5.9056e-05
1.67476 5.16368e-05
1.69205 4.82939e-05
1.7097 4.6827e-05
1.72772 4.6216e-05
1.74613 4.59889e-05
1.76493 4.59482e-05
1.78412 4.59995e-05
1.80373 4.60869e-05
1.82375 4.6242e-05
1.8442 4.6544e-05
1.86508 4.69793e-05
1.8864 4.7413e-05
1.90818 4.7783e-05
1.93041 4.81635e-05
1.95312 4.84649e-05
1.97632 4.86963e-05
2 4.91853e-05
