1 1e-10
1.00148 0.0022032
1.00296 0.00457262
1.00447 0.00385957
1.00598 0.00299423
1.00753 0.00259545
1.00907 0.00209548
1.00964 0.00198632
1.0102 0.00185892
1.01121 0.0016453
1.01222 0.00143808
1.01383 0.00125743
1.01544 0.00108847
1.01709 0.0010028
1.01873 0.000925964
1.01978 0.000888719
1.02083 0.000852933
1.02146 0.000824866
1.02209 0.000798751
1.02381 0.000731278
1.02552 0.000669268
1.02727 0.000621567
1.02902 0.000575083
1.03047 0.000545143
1.03191 0.000513598
1.03226 0.000506505
1.0326 0.000499109
1.03443 0.000459455
1.03625 0.000415659
1.03812 0.000370937
1.03998 0.000318537
1.04173 0.000277555
1.04348 0.000233971
1.04363 0.000230111
1.04379 0.000226034
1.04574 0.000191637
1.04768 0.000156489
1.04967 0.000135515
1.05165 0.000115082
1.0536 0.000104771
1.05556 9.49129e-05
1.05563 9.45052e-05
1.05571 9.4128e-05
1.05778 8.97042e-05
1.05985 8.59841e-05
1.06197 8.53697e-05
1.06409 8.60099e-05
1.06613 8.8158e-05
1.06818 9.09386e-05
1.06829 9.11167e-05
1.06841 9.13667e-05
1.07061 9.68522e-05
1.07282 0.000103853
1.07507 0.000111274
1.07733 0.000120976
1.07936 0.000129492
1.0814 0.000138624
1.08166 0.000140091
1.08193 0.000141725
1.08428 0.000155367
1.08663 0.000169796
1.08903 0.000184115
1.09143 0.000198404
1.09333 0.000209165
1.09524 0.000219347
1.09578 0.000222841
1.09633 0.000226401
1.09883 0.000241231
1.10133 0.000256127
1.10389 0.000269755
1.10644 0.000282891
1.1081 0.000290286
1.10976 0.000297114
1.11071 0.000301079
1.11166 0.000305763
1.11433 0.0003154
1.11699 0.000327294
1.11972 0.000335417
1.12244 0.000345022
1.12372 0.000347474
1.125 0.000349849
1.1265 0.000351266
1.128 0.000355127
1.13084 0.000355916
1.13368 0.000362303
1.13657 0.000363202
1.13947 0.000365948
1.14025 0.000365552
1.14103 0.000364815
1.14321 0.00036048
1.14539 0.000360517
1.14842 0.000354036
1.15144 0.000353532
1.15453 0.000347394
1.15762 0.000340186
1.15776 0.000339854
1.15789 0.000339252
1.16091 0.000327201
1.16392 0.000318908
1.16714 0.000310509
1.17036 0.000298147
1.17302 0.000290907
1.17568 0.000277341
1.17631 0.000274515
1.17694 0.00027232
1.1803 0.000266285
1.18366 0.000255769
1.18709 0.000255891
1.19052 0.000245975
1.19248 0.000247442
1.19444 0.000246007
1.19598 0.000249065
1.19752 0.000252137
1.2011 0.000267329
1.20467 0.000280905
1.20833 0.000299263
1.21198 0.000314755
1.21313 0.000320141
1.21429 0.000324455
1.21686 0.000338592
1.21944 0.000347765
1.22325 0.000363612
1.22706 0.0003682
1.23095 0.000375744
1.23484 0.000377693
1.23507 0.000378019
1.23529 0.000378103
1.23904 0.000374108
1.24278 0.000369359
1.24684 0.000365756
1.2509 0.000362272
1.25424 0.000360213
1.25758 0.000358311
1.25838 0.000357095
1.25918 0.000356214
1.26341 0.000351572
1.26764 0.000349374
1.27197 0.000347276
1.27629 0.000348421
1.27877 0.000348609
1.28125 0.000349401
1.28318 0.00035109
1.28511 0.000353148
1.28962 0.000357219
1.29412 0.000360809
1.29873 0.000365305
1.30333 0.000367388
1.30489 0.000369134
1.30645 0.000370161
1.30959 0.000375571
1.31273 0.00037799
1.31753 0.000387794
1.32233 0.000391615
1.32723 0.000404344
1.33213 0.000411471
1.33273 0.000413322
1.33333 0.000414378
1.33774 0.00042805
1.34214 0.000434998
1.34725 0.000447105
1.35236 0.000449095
1.35722 0.00045842
1.36207 0.000465583
1.36244 0.000467049
1.3628 0.000468185
1.36813 0.000504475
1.37346 0.000539018
1.37891 0.000604235
1.38435 0.000653551
1.3886 0.000712758
1.39286 0.000764453
1.39416 0.000786925
1.39547 0.000803439
1.40115 0.00099636
1.40682 0.00115135
1.41262 0.00137191
1.41842 0.00159151
1.42217 0.00153686
1.42593 0.00150753
1.42809 0.00148184
1.43026 0.00147412
1.43631 0.00121105
1.44236 0.000965542
1.44853 0.000869449
1.45471 0.000713591
1.45812 0.000710605
1.46154 0.000704203
1.46443 0.00070975
1.46732 0.000701146
1.47376 0.000721242
1.4802 0.000721311
1.48678 0.000728364
1.49335 0.000720813
1.49668 0.000719691
1.5 0.000715501
1.50339 0.000716026
1.50679 0.000708887
1.51364 0.000715252
1.5205 0.000708262
1.52751 0.00072016
1.53451 0.000722524
1.53809 0.000731729
1.54167 0.000740193
1.54524 0.000749795
1.54882 0.000754549
1.55612 0.000787297
1.56343 0.000808412
1.57089 0.000850765
1.57835 0.000903956
1.58265 0.0009404
1.58696 0.000994556
1.59027 0.00102618
1.59359 0.00105852
1.60137 0.00112957
1.60915 0.00128147
1.61709 0.00122135
1.62504 0.00133192
1.6307 0.00116694
1.63636 0.000988303
1.63881 0.00090351
1.64127 0.00083082
1.64955 0.00060388
1.65784 0.000295918
1.6663 0.000240403
1.67476 0.000133481
1.68262 0.000113927
1.69048 8.90796e-05
1.69126 8.68211e-05
1.69205 8.41869e-05
1.70087 7.73203e-05
1.7097 6.83758e-05
1.71871 6.51927e-05
1.72772 6.00955e-05
1.73693 5.75671e-05
1.74613 5.45665e-05
1.74806 5.41942e-05
1.75 5.37921e-05
1.75746 5.23697e-05
1.76493 5.07558e-05
1.77453 4.94228e-05
1.78412 4.79325e-05
1.79393 4.69068e-05
1.80373 4.58256e-05
1.80976 4.53777e-05
1.81579 4.49202e-05
1.81977 4.46293e-05
1.82375 4.43287e-05
1.83397 4.38517e-05
1.8442 4.33566e-05
1.85464 4.30838e-05
1.86508 4.27978e-05
1.87574 4.26669e-05
1.8864 4.25349e-05
1.88764 4.25293e-05
1.88889 4.25237e-05
1.89853 4.2498e-05
1.90818 4.24722e-05
1.91929 4.24881e-05
1.93041 4.2506e-05
1.94177 4.25245e-05
1.95312 4.25483e-05
1.96186 4.25733e-05
1.97059 4.26e-05
1.97345 4.26137e-05
1.97632 4.26266e-05
1.98816 4.28118e-05
2 4.29901e-05
