0 	0 	0 	0 	0 	0 	0
0.00128482 	-0.00834828 	0.00283689 	-0.0128174 	-0.034194 	-2.76861e-05 	-0.00631519
0.00256965 	-0.0166966 	0.00567378 	-0.0256348 	-0.068388 	-5.53722e-05 	-0.0126304
0.00387803 	-0.0265419 	0.00986385 	-0.0293552 	-0.0821451 	-8.46328e-05 	-0.016171
0.00518642 	-0.0363872 	0.0140539 	-0.0330756 	-0.0959022 	-0.000113893 	-0.0197117
0.00651881 	-0.0467164 	0.0194437 	-0.0352168 	-0.105656 	-0.000104096 	-0.0234707
0.00785119 	-0.0570457 	0.0248335 	-0.037358 	-0.115409 	-9.42986e-05 	-0.0272296
0.00920802 	-0.0652773 	0.0305105 	-0.0398993 	-0.121471 	-3.89624e-05 	-0.0309668
0.0105648 	-0.073509 	0.0361876 	-0.0424406 	-0.127533 	1.63738e-05 	-0.0347039
0.0119465 	-0.0781033 	0.0417832 	-0.0464856 	-0.130626 	0.000134444 	-0.0383664
0.0133283 	-0.0826977 	0.0473788 	-0.0505306 	-0.13372 	0.000252513 	-0.0420289
0.0147353 	-0.0834617 	0.0527204 	-0.056457 	-0.13468 	0.000430397 	-0.045686
0.0161424 	-0.0842258 	0.058062 	-0.0623833 	-0.13564 	0.000608281 	-0.049343
0.0175752 	-0.0816254 	0.0630748 	-0.0700519 	-0.135126 	0.000830164 	-0.053069
0.0190081 	-0.079025 	0.0680876 	-0.0777204 	-0.134613 	0.00105205 	-0.0567949
0.0204672 	-0.0736987 	0.0728348 	-0.0866034 	-0.133082 	0.00129897 	-0.0606042
0.0219263 	-0.0683724 	0.0775821 	-0.0954864 	-0.131551 	0.0015459 	-0.0644135
0.0234122 	-0.0610754 	0.0821026 	-0.104971 	-0.129329 	0.00179984 	-0.0682618
0.0248981 	-0.0537784 	0.0866232 	-0.114455 	-0.127107 	0.00205378 	-0.0721101
0.0264113 	-0.0451693 	0.091007 	-0.124098 	-0.124445 	0.00229997 	-0.0759264
0.0279244 	-0.0365602 	0.0953908 	-0.133742 	-0.121782 	0.00254616 	-0.0797427
0.0310063 	-0.0177774 	0.10422 	-0.15291 	-0.115967 	0.00299927 	-0.0871711
0.0325754 	-0.00805561 	0.108778 	-0.162265 	-0.112965 	0.00319854 	-0.0907274
0.0341446 	0.0016662 	0.113337 	-0.171619 	-0.109963 	0.00339782 	-0.0942837
0.0357425 	0.0113259 	0.118168 	-0.180538 	-0.106981 	0.00356597 	-0.0976534
0.0373405 	0.0209856 	0.122998 	-0.189457 	-0.103998 	0.00373413 	-0.101023
0.0389677 	0.0302737 	0.128187 	-0.197787 	-0.101107 	0.00386676 	-0.10421
0.040595 	0.0395618 	0.133376 	-0.206118 	-0.0982152 	0.0039994 	-0.107397
0.0422521 	0.0483096 	0.138999 	-0.213779 	-0.0954475 	0.00409356 	-0.110419
0.0439092 	0.0570574 	0.144622 	-0.22144 	-0.0926798 	0.00418773 	-0.11344
0.0455967 	0.065226 	0.150716 	-0.228398 	-0.0900275 	0.00424212 	-0.116308
0.0472842 	0.0733947 	0.15681 	-0.235356 	-0.0873752 	0.00429651 	-0.119176
0.0490026 	0.0810476 	0.163346 	-0.241534 	-0.0847997 	0.00431889 	-0.121902
0.0507211 	0.0887005 	0.169881 	-0.247711 	-0.0822241 	0.00434127 	-0.124628
0.052471 	0.0960775 	0.176824 	-0.252968 	-0.0796864 	0.00434758 	-0.127237
0.054221 	0.103455 	0.183767 	-0.258224 	-0.0771487 	0.00435388 	-0.129845
0.056003 	0.11083 	0.191093 	-0.26254 	-0.074623 	0.00436441 	-0.132375
0.0577851 	0.118206 	0.19842 	-0.266856 	-0.0720973 	0.00437495 	-0.134904
0.0595998 	0.125766 	0.206103 	-0.270381 	-0.069553 	0.00441053 	-0.137396
0.0614146 	0.133327 	0.213786 	-0.273906 	-0.0670087 	0.00444611 	-0.139888
0.0632626 	0.141334 	0.221803 	-0.276873 	-0.0644033 	0.00452421 	-0.142383
0.0651106 	0.149341 	0.22982 	-0.27984 	-0.0617979 	0.0046023 	-0.144877
0.0669925 	0.157967 	0.238158 	-0.282347 	-0.0591063 	0.00473629 	-0.14739
0.0688745 	0.166592 	0.246495 	-0.284853 	-0.0564147 	0.00487028 	-0.149903
0.0707909 	0.175457 	0.25508 	-0.286943 	-0.0536483 	0.00506451 	-0.152417
0.0727073 	0.184321 	0.263665 	-0.289032 	-0.0508818 	0.00525874 	-0.154931
0.0746589 	0.19249 	0.272408 	-0.290849 	-0.0480646 	0.00551001 	-0.157415
0.0766105 	0.200658 	0.281151 	-0.292667 	-0.0452474 	0.00576127 	-0.159898
0.0785979 	0.207299 	0.290005 	-0.294314 	-0.042401 	0.00606382 	-0.162321
0.0805853 	0.21394 	0.29886 	-0.295962 	-0.0395546 	0.00636637 	-0.164745
0.0826091 	0.218523 	0.307754 	-0.297492 	-0.0367005 	0.00671803 	-0.167085
0.0846329 	0.223106 	0.316648 	-0.299022 	-0.0338465 	0.00706969 	-0.169425
0.0866939 	0.225171 	0.325456 	-0.300445 	-0.031016 	0.00746803 	-0.171669
0.0887548 	0.227236 	0.334265 	-0.301869 	-0.0281854 	0.00786637 	-0.173912
0.0908536 	0.226481 	0.342856 	-0.303169 	-0.0254128 	0.00830622 	-0.176027
0.0929523 	0.225726 	0.351447 	-0.304468 	-0.0226402 	0.00874606 	-0.178143
0.0950896 	0.222061 	0.359735 	-0.305608 	-0.0199428 	0.00921669 	-0.180085
0.0972268 	0.218397 	0.368023 	-0.306748 	-0.0172455 	0.00968733 	-0.182027
0.0994033 	0.211942 	0.375961 	-0.307691 	-0.0146345 	0.0101786 	-0.183786
0.10158 	0.205486 	0.383899 	-0.308635 	-0.0120235 	0.0106699 	-0.185545
0.103796 	0.196495 	0.391454 	-0.30929 	-0.00951855 	0.0111671 	-0.187149
0.106012 	0.187504 	0.399009 	-0.309946 	-0.00701358 	0.0116643 	-0.188753
0.110526 	0.165104 	0.413271 	-0.310415 	-0.00220492 	0.0126437 	-0.191695
0.115123 	0.138979 	0.426544 	-0.309774 	0.0024844 	0.0135767 	-0.194334
0.115629 	0.135835 	0.427855 	-0.309553 	0.00298137 	0.0136677 	-0.194573
0.119804 	0.109857 	0.438694 	-0.307728 	0.00708738 	0.0144195 	-0.196547
0.124142 	0.0812588 	0.448569 	-0.30441 	0.0111383 	0.0150846 	-0.198087
0.124571 	0.0784289 	0.449546 	-0.304082 	0.0115392 	0.0151504 	-0.198239
0.129426 	0.0453788 	0.458833 	-0.298757 	0.0157046 	0.0157556 	-0.19945
0.134369 	0.0115457 	0.466415 	-0.291637 	0.0194368 	0.0162577 	-0.200297
0.136886 	-0.00519797 	0.469237 	-0.287129 	0.0210424 	0.0164746 	-0.200578
0.139403 	-0.0219416 	0.472059 	-0.282621 	0.022648 	0.0166915 	-0.200858
0.139634 	-0.0233755 	0.472196 	-0.282137 	0.0227682 	0.0167095 	-0.200873
0.139865 	-0.0248095 	0.472332 	-0.281653 	0.0228884 	0.0167275 	-0.200888
0.142197 	-0.0393002 	0.473712 	-0.276761 	0.0241032 	0.0169096 	-0.201036
0.14453 	-0.053791 	0.475092 	-0.271869 	0.025318 	0.0170916 	-0.201184
0.14453 	-0.053791 	0.475092 	-0.271869 	0.025318 	0.0170916 	-0.201184
0.146722 	-0.0659478 	0.474997 	-0.26677 	0.0262277 	0.017258 	-0.201252
0.146905 	-0.0669636 	0.474989 	-0.266344 	0.0263037 	0.0172719 	-0.201258
0.148914 	-0.0781046 	0.474902 	-0.261671 	0.0271374 	0.0174245 	-0.20132
0.14928 	-0.0801363 	0.474886 	-0.260819 	0.0272895 	0.0174523 	-0.201331
0.14975 	-0.0827433 	0.474866 	-0.259726 	0.0274845 	0.017488 	-0.201346
0.14975 	-0.0827433 	0.474866 	-0.259726 	0.0274845 	0.017488 	-0.201346
0.152408 	-0.0950347 	0.473115 	-0.253173 	0.0283624 	0.017695 	-0.201368
0.152408 	-0.0950347 	0.473115 	-0.253173 	0.0283624 	0.017695 	-0.201368
0.155066 	-0.107326 	0.471365 	-0.24662 	0.0292402 	0.017902 	-0.20139
0.155066 	-0.107326 	0.471365 	-0.24662 	0.0292402 	0.017902 	-0.20139
0.157773 	-0.116752 	0.468205 	-0.239756 	0.0299631 	0.018145 	-0.201343
0.16048 	-0.126179 	0.465045 	-0.232893 	0.030686 	0.018388 	-0.201296
0.163237 	-0.132394 	0.460591 	-0.225725 	0.0313054 	0.0187074 	-0.201129
0.165993 	-0.13861 	0.456138 	-0.218558 	0.0319249 	0.0190268 	-0.200962
0.1688 	-0.141592 	0.450554 	-0.210956 	0.0324816 	0.0194537 	-0.200582
0.171607 	-0.144573 	0.444971 	-0.203353 	0.0330383 	0.0198806 	-0.200203
0.174466 	-0.144603 	0.438626 	-0.19515 	0.033538 	0.0204289 	-0.199554
0.177324 	-0.144634 	0.432281 	-0.186946 	0.0340377 	0.0209772 	-0.198905
0.180235 	-0.142493 	0.425564 	-0.178104 	0.0344425 	0.0216444 	-0.198022
0.183146 	-0.140352 	0.418847 	-0.169262 	0.0348474 	0.0223116 	-0.197139
0.186111 	-0.137212 	0.412174 	-0.159851 	0.0350478 	0.0230907 	-0.196057
0.189075 	-0.134072 	0.405501 	-0.150439 	0.0352482 	0.0238698 	-0.194975
0.192094 	-0.130969 	0.39931 	-0.14045 	0.0351054 	0.0247676 	-0.193657
0.195113 	-0.127866 	0.393119 	-0.130461 	0.0349625 	0.0256655 	-0.192338
0.198187 	-0.125194 	0.387694 	-0.119851 	0.034423 	0.0266774 	-0.190774
0.201261 	-0.122521 	0.38227 	-0.10924 	0.0338836 	0.0276892 	-0.18921
0.204391 	-0.119977 	0.377707 	-0.0981042 	0.0330134 	0.0287751 	-0.187415
0.207522 	-0.117432 	0.373144 	-0.0869679 	0.0321432 	0.0298609 	-0.18562
0.21071 	-0.114456 	0.369511 	-0.0758248 	0.0310477 	0.030941 	-0.183534
0.213898 	-0.111481 	0.365877 	-0.0646817 	0.0299521 	0.0320211 	-0.181447
0.217144 	-0.107802 	0.363156 	-0.0554473 	0.0287043 	0.0330094 	-0.178972
0.22039 	-0.104123 	0.360435 	-0.046213 	0.0274565 	0.0339977 	-0.176498
0.223696 	-0.100114 	0.358634 	-0.0398649 	0.0260421 	0.0348292 	-0.173572
0.227002 	-0.0961055 	0.356833 	-0.0335167 	0.0246276 	0.0356607 	-0.170647
0.230369 	-0.0922669 	0.356124 	-0.0301087 	0.0229773 	0.0362839 	-0.167285
0.233735 	-0.0884282 	0.355415 	-0.0267007 	0.021327 	0.0369071 	-0.163923
0.237164 	-0.0851478 	0.355901 	-0.0263684 	0.0194586 	0.0372987 	-0.160237
0.240592 	-0.0818675 	0.356387 	-0.0260362 	0.0175902 	0.0376902 	-0.156551
0.244083 	-0.0796373 	0.357895 	-0.0282415 	0.0156939 	0.0378784 	-0.152716
0.247574 	-0.0774072 	0.359403 	-0.0304469 	0.0137976 	0.0380665 	-0.148881
0.251129 	-0.0762195 	0.361619 	-0.034393 	0.0121632 	0.0381211 	-0.145013
0.254685 	-0.0750318 	0.363835 	-0.0383392 	0.0105288 	0.0381757 	-0.141146
0.258305 	-0.0749577 	0.366517 	-0.0434836 	0.0093341 	0.0381975 	-0.137282
0.261925 	-0.0748837 	0.369199 	-0.0486281 	0.00813936 	0.0382193 	-0.133418
0.265612 	-0.0766951 	0.372205 	-0.055051 	0.00736761 	0.0382607 	-0.129634
0.269299 	-0.0785065 	0.375212 	-0.061474 	0.00659587 	0.0383022 	-0.125851
0.273053 	-0.0821054 	0.37843 	-0.0687232 	0.00615503 	0.0383572 	-0.122257
0.276808 	-0.0857042 	0.381647 	-0.0759724 	0.0057142 	0.0384122 	-0.118663
0.276808 	-0.0857042 	0.381647 	-0.0759724 	0.0057142 	0.0384122 	-0.118663
0.280631 	-0.0903182 	0.384889 	-0.0834667 	0.00548512 	0.0384427 	-0.115317
0.284454 	-0.0949322 	0.388131 	-0.0909609 	0.00525603 	0.0384731 	-0.111971
0.288348 	-0.100199 	0.391059 	-0.0978834 	0.00515652 	0.0384315 	-0.108969
0.292241 	-0.105467 	0.393986 	-0.104806 	0.005057 	0.0383899 	-0.105967
0.296206 	-0.110743 	0.396205 	-0.109833 	0.00512927 	0.0382622 	-0.103458
0.300171 	-0.11602 	0.398424 	-0.114861 	0.00520154 	0.0381345 	-0.10095
0.304208 	-0.120148 	0.399579 	-0.116699 	0.00548384 	0.037887 	-0.0990308
0.308246 	-0.124276 	0.400734 	-0.118538 	0.00576613 	0.0376395 	-0.0971117
0.312358 	-0.126015 	0.400467 	-0.116621 	0.00619269 	0.0372432 	-0.0957781
0.316469 	-0.127755 	0.4002 	-0.114705 	0.00661926 	0.0368469 	-0.0944445
0.320656 	-0.126207 	0.398223 	-0.109153 	0.0072059 	0.0363383 	-0.093694
0.324843 	-0.124658 	0.396245 	-0.103602 	0.00779255 	0.0358297 	-0.0929435
0.329107 	-0.119576 	0.392333 	-0.0951405 	0.00869019 	0.0353199 	-0.0927954
0.333371 	-0.114494 	0.388421 	-0.0866793 	0.00958782 	0.0348102 	-0.0926472
0.337713 	-0.105722 	0.382226 	-0.0773534 	0.0107765 	0.0344125 	-0.0930627
0.342055 	-0.0969495 	0.376031 	-0.0680274 	0.0119652 	0.0340147 	-0.0934781
0.346476 	-0.0835164 	0.367942 	-0.0590519 	0.0131031 	0.0337295 	-0.0942935
0.350898 	-0.0700833 	0.359853 	-0.0500764 	0.014241 	0.0334443 	-0.0951089
0.355401 	-0.0508182 	0.351958 	-0.0400814 	0.0149688 	0.033156 	-0.095938
0.359903 	-0.0315531 	0.344063 	-0.0300865 	0.0156966 	0.0328677 	-0.0967671
0.364489 	-0.00762263 	0.336947 	-0.0221503 	0.0158395 	0.0324665 	-0.0972962
0.369074 	0.0163078 	0.329832 	-0.0142142 	0.0159824 	0.0320653 	-0.0978253
0.373744 	0.0395711 	0.318862 	-0.0198721 	0.0155162 	0.0314819 	-0.0980382
0.378413 	0.0628344 	0.307893 	-0.0255299 	0.0150499 	0.0308984 	-0.098251
0.383168 	0.0808591 	0.286016 	-0.0595795 	0.0141694 	0.0300679 	-0.0980905
0.387923 	0.0988838 	0.264139 	-0.0936291 	0.0132888 	0.0292374 	-0.09793
0.392765 	0.119511 	0.229099 	-0.157884 	0.0123417 	0.028151 	-0.0971859
0.397608 	0.140137 	0.19406 	-0.222139 	0.0113946 	0.0270647 	-0.0964418
0.402539 	0.172357 	0.153565 	-0.290987 	0.0107417 	0.0258373 	-0.0947823
0.40747 	0.204576 	0.113071 	-0.359835 	0.0100888 	0.0246099 	-0.0931228
0.412491 	0.235942 	0.0789466 	-0.404766 	0.0100215 	0.0233171 	-0.0904279
0.417513 	0.267308 	0.0448226 	-0.449697 	0.00995416 	0.0220242 	-0.087733
0.422626 	0.282923 	0.0214283 	-0.470097 	0.0103181 	0.020575 	-0.0844169
0.42774 	0.298537 	-0.00196596 	-0.490497 	0.010682 	0.0191257 	-0.0811008
0.432948 	0.300986 	-0.0171955 	-0.499918 	0.0110407 	0.0174362 	-0.0777059
0.438155 	0.303434 	-0.032425 	-0.509338 	0.0113994 	0.0157467 	-0.0743109
0.443458 	0.300174 	-0.0422122 	-0.513978 	0.0117818 	0.0138494 	-0.071132
0.448761 	0.296913 	-0.0519995 	-0.518619 	0.0121643 	0.0119521 	-0.0679532
0.454161 	0.293642 	-0.0580156 	-0.519386 	0.0129729 	0.00999568 	-0.0649351
0.459561 	0.290372 	-0.0640316 	-0.520154 	0.0137815 	0.00803929 	-0.061917
0.46506 	0.295746 	-0.0659087 	-0.518417 	0.0150308 	0.00609576 	-0.0587946
0.47056 	0.301121 	-0.0677857 	-0.516681 	0.0162801 	0.00415223 	-0.0556723
0.47616 	0.321904 	-0.0634341 	-0.514827 	0.0173817 	0.00219645 	-0.0523363
0.48176 	0.342688 	-0.0590825 	-0.512973 	0.0184834 	0.000240664 	-0.0490002
0.487463 	0.370308 	-0.0515681 	-0.516253 	0.0189391 	-0.00169096 	-0.045562
0.493165 	0.397929 	-0.0440536 	-0.519532 	0.0193947 	-0.00362259 	-0.0421238
0.498973 	0.416167 	-0.044126 	-0.538109 	0.0194735 	-0.00541908 	-0.0385755
0.50478 	0.434405 	-0.0441985 	-0.556686 	0.0195522 	-0.00721558 	-0.0350271
0.510694 	0.438387 	-0.0580888 	-0.596222 	0.0199205 	-0.00887225 	-0.0309099
0.516608 	0.442369 	-0.0719792 	-0.635759 	0.0202887 	-0.0105289 	-0.0267926
0.52263 	0.437122 	-0.0944891 	-0.682718 	0.0214062 	-0.0123241 	-0.021917
0.528653 	0.431875 	-0.116999 	-0.729677 	0.0225236 	-0.0141192 	-0.0170413
0.534786 	0.411235 	-0.139434 	-0.758575 	0.0246918 	-0.0163222 	-0.0120636
0.540918 	0.390595 	-0.161868 	-0.787473 	0.0268599 	-0.0185253 	-0.0070859
0.547164 	0.342721 	-0.176822 	-0.773906 	0.0303668 	-0.0211089 	-0.00289562
0.553409 	0.294847 	-0.191776 	-0.760339 	0.0338737 	-0.0236926 	0.00129466
0.559769 	0.232875 	-0.18974 	-0.685173 	0.0386231 	-0.0264238 	0.00445631
0.566129 	0.170904 	-0.187704 	-0.610007 	0.0433725 	-0.0291551 	0.00761797
0.572605 	0.130962 	-0.16211 	-0.48581 	0.0492101 	-0.0319575 	0.0104114
0.579082 	0.0910202 	-0.136515 	-0.361612 	0.0550476 	-0.0347598 	0.0132049
0.585677 	0.0825711 	-0.0986097 	-0.23103 	0.0618772 	-0.0377965 	0.0164199
0.592272 	0.074122 	-0.0607041 	-0.100448 	0.0687069 	-0.0408333 	0.019635
0.598989 	0.053597 	-0.0464892 	-0.0191466 	0.0758372 	-0.0441005 	0.023365
0.605705 	0.0330721 	-0.0322743 	0.0621552 	0.0829675 	-0.0473678 	0.0270951
0.605705 	0.0330721 	-0.0322743 	0.0621552 	0.0829675 	-0.0473678 	0.0270951
0.612544 	-0.01071 	-0.05145 	0.0936717 	0.0898617 	-0.0505459 	0.0310006
0.612544 	-0.01071 	-0.05145 	0.0936717 	0.0898617 	-0.0505459 	0.0310006
0.619384 	-0.0544921 	-0.0706256 	0.125188 	0.096756 	-0.0537241 	0.0349062
0.619384 	-0.0544921 	-0.0706256 	0.125188 	0.096756 	-0.0537241 	0.0349062
0.626349 	-0.0621291 	-0.0897068 	0.157196 	0.104193 	-0.0565968 	0.039027
0.633314 	-0.0697661 	-0.108788 	0.189205 	0.11163 	-0.0594695 	0.0431479
0.640406 	-0.0174513 	-0.115361 	0.219835 	0.12045 	-0.0619819 	0.0478045
0.647499 	0.0348636 	-0.121933 	0.250465 	0.12927 	-0.0644944 	0.0524611
0.654722 	0.0880582 	-0.132389 	0.24479 	0.138926 	-0.0670185 	0.0573521
0.661944 	0.141253 	-0.142844 	0.239115 	0.148582 	-0.0695427 	0.062243
0.669299 	0.148923 	-0.167858 	0.187371 	0.158372 	-0.0725307 	0.0663969
0.676655 	0.156593 	-0.192873 	0.135627 	0.168162 	-0.0755186 	0.0705507
0.684145 	0.146965 	-0.228983 	0.0735297 	0.178312 	-0.0791912 	0.0734948
0.691635 	0.137336 	-0.265092 	0.0114322 	0.188463 	-0.0828637 	0.0764388
0.699262 	0.161653 	-0.295018 	-0.0192173 	0.199387 	-0.0872599 	0.0786334
0.70689 	0.18597 	-0.324944 	-0.0498669 	0.21031 	-0.0916561 	0.080828
0.714657 	0.247995 	-0.340044 	-0.0531029 	0.221771 	-0.0965184 	0.0826316
0.722424 	0.310019 	-0.355143 	-0.0563389 	0.233232 	-0.101381 	0.0844352
0.730334 	0.370644 	-0.362637 	-0.0537158 	0.245034 	-0.106445 	0.0855356
0.738244 	0.431269 	-0.370131 	-0.0510926 	0.256836 	-0.111509 	0.0866361
0.746299 	0.468161 	-0.371928 	-0.0472653 	0.268822 	-0.116163 	0.0869268
0.754354 	0.505052 	-0.373725 	-0.043438 	0.280808 	-0.120817 	0.0872175
0.762556 	0.524432 	-0.368369 	-0.0337288 	0.293058 	-0.124935 	0.0868475
0.770759 	0.543812 	-0.363013 	-0.0240196 	0.305309 	-0.129052 	0.0864775
0.779112 	0.555042 	-0.354891 	-0.00740963 	0.318949 	-0.132966 	0.0862927
0.787465 	0.566272 	-0.34677 	0.00920037 	0.332589 	-0.13688 	0.086108
0.795971 	0.574889 	-0.341884 	0.0295488 	0.348698 	-0.14063 	0.0876373
0.804478 	0.583506 	-0.336998 	0.0498972 	0.364808 	-0.144379 	0.0891666
0.81314 	0.593465 	-0.337481 	0.0709324 	0.383271 	-0.148112 	0.0930353
0.821802 	0.603424 	-0.337964 	0.0919677 	0.401734 	-0.151845 	0.0969041
0.830623 	0.616574 	-0.341173 	0.112079 	0.421883 	-0.155361 	0.102193
0.839445 	0.629724 	-0.344382 	0.13219 	0.442031 	-0.158877 	0.107482
0.848428 	0.645323 	-0.345793 	0.150009 	0.463124 	-0.162154 	0.113062
0.857411 	0.660922 	-0.347204 	0.167827 	0.484217 	-0.165432 	0.118643
0.866558 	0.676767 	-0.343195 	0.181768 	0.505714 	-0.168957 	0.123656
0.875706 	0.692612 	-0.339186 	0.195709 	0.527212 	-0.172482 	0.128669
0.885021 	0.706706 	-0.328279 	0.204918 	0.549095 	-0.176353 	0.132282
0.894337 	0.720801 	-0.317372 	0.214126 	0.570978 	-0.180225 	0.135895
0.903823 	0.732219 	-0.300917 	0.21924 	0.592592 	-0.183808 	0.138438
0.91331 	0.743637 	-0.284463 	0.224354 	0.614207 	-0.187391 	0.140981
0.92297 	0.752745 	-0.265764 	0.22708 	0.634646 	-0.190228 	0.143364
0.93263 	0.761854 	-0.247066 	0.229805 	0.655086 	-0.193066 	0.145747
0.942468 	0.769981 	-0.229669 	0.232334 	0.674244 	-0.195212 	0.147925
0.952305 	0.778109 	-0.212271 	0.234863 	0.693403 	-0.197359 	0.150103
0.962323 	0.786531 	-0.198172 	0.238723 	0.711575 	-0.198623 	0.151667
0.972341 	0.794954 	-0.184073 	0.242582 	0.729748 	-0.199887 	0.15323
0.982543 	0.803585 	-0.173431 	0.247113 	0.747013 	-0.199928 	0.154105
0.992745 	0.812217 	-0.162789 	0.251644 	0.764278 	-0.199969 	0.154979
1.00313 	0.819523 	-0.155023 	0.253636 	0.780356 	-0.198788 	0.155439
1.01352 	0.82683 	-0.147257 	0.255627 	0.796435 	-0.197607 	0.155899
1.01352 	0.82683 	-0.147257 	0.255627 	0.796435 	-0.197607 	0.155899
1.0241 	0.831578 	-0.142473 	0.251309 	0.810734 	-0.195531 	0.156317
1.0241 	0.831578 	-0.142473 	0.251309 	0.810734 	-0.195531 	0.156317
1.03468 	0.836327 	-0.137689 	0.246991 	0.825033 	-0.193454 	0.156736
1.03468 	0.836327 	-0.137689 	0.246991 	0.825033 	-0.193454 	0.156736
1.04545 	0.839696 	-0.13604 	0.235146 	0.837422 	-0.190934 	0.157272
1.04545 	0.839696 	-0.13604 	0.235146 	0.837422 	-0.190934 	0.157272
1.05623 	0.843065 	-0.13439 	0.2233 	0.849812 	-0.188413 	0.157808
1.05623 	0.843065 	-0.13439 	0.2233 	0.849812 	-0.188413 	0.157808
1.0672 	0.848549 	-0.135804 	0.206546 	0.861136 	-0.185782 	0.158477
1.07817 	0.854034 	-0.137218 	0.189793 	0.87246 	-0.183151 	0.159146
1.07817 	0.854034 	-0.137218 	0.189793 	0.87246 	-0.183151 	0.159146
1.08934 	0.864466 	-0.142208 	0.17335 	0.883407 	-0.180677 	0.159942
1.08934 	0.864466 	-0.142208 	0.17335 	0.883407 	-0.180677 	0.159942
1.10051 	0.874898 	-0.147198 	0.156908 	0.894353 	-0.178203 	0.160737
1.10051 	0.874898 	-0.147198 	0.156908 	0.894353 	-0.178203 	0.160737
1.11189 	0.889209 	-0.155309 	0.145357 	0.90462 	-0.176031 	0.161511
1.12327 	0.90352 	-0.163419 	0.133807 	0.914887 	-0.173859 	0.162284
1.13485 	0.917266 	-0.172779 	0.128165 	0.923774 	-0.171777 	0.162675
1.14644 	0.931012 	-0.18214 	0.122523 	0.932661 	-0.169695 	0.163066
1.15824 	0.940364 	-0.190621 	0.12096 	0.940125 	-0.16738 	0.162867
1.17004 	0.949716 	-0.199103 	0.119397 	0.94759 	-0.165066 	0.162668
1.18205 	0.953928 	-0.20502 	0.119884 	0.954346 	-0.162587 	0.162048
1.19407 	0.958141 	-0.210937 	0.120371 	0.961101 	-0.160108 	0.161428
1.2063 	0.958768 	-0.213602 	0.121625 	0.967698 	-0.157712 	0.160771
1.21854 	0.959394 	-0.216267 	0.122879 	0.974296 	-0.155316 	0.160115
1.23099 	0.95837 	-0.216021 	0.124274 	0.980845 	-0.152986 	0.159603
1.24345 	0.957346 	-0.215774 	0.125668 	0.987395 	-0.150657 	0.159092
1.25614 	0.955986 	-0.213565 	0.126931 	0.993989 	-0.148187 	0.158618
1.26883 	0.954626 	-0.211355 	0.128193 	1.00058 	-0.145717 	0.158143
1.28175 	0.953699 	-0.208175 	0.12913 	1.00712 	-0.14306 	0.15763
1.29467 	0.952773 	-0.204995 	0.130066 	1.01365 	-0.140403 	0.157117
1.30783 	0.95274 	-0.201523 	0.130626 	1.01968 	-0.137769 	0.156623
1.32099 	0.952708 	-0.198051 	0.131187 	1.0257 	-0.135136 	0.156128
1.33439 	0.953821 	-0.194661 	0.131479 	1.03085 	-0.132699 	0.155675
1.34778 	0.954935 	-0.191272 	0.131772 	1.036 	-0.130262 	0.155222
1.36143 	0.957258 	-0.188135 	0.131931 	1.04016 	-0.128014 	0.154723
1.37507 	0.959582 	-0.184997 	0.13209 	1.04432 	-0.125767 	0.154225
1.38897 	0.962995 	-0.182191 	0.132159 	1.04744 	-0.123567 	0.153616
1.40286 	0.966409 	-0.179384 	0.132228 	1.05057 	-0.121368 	0.153006
1.41701 	0.970678 	-0.176964 	0.132127 	1.05272 	-0.119075 	0.15235
1.43116 	0.974947 	-0.174544 	0.132026 	1.05487 	-0.116781 	0.151693
1.44557 	0.979718 	-0.1725 	0.131652 	1.05633 	-0.114428 	0.151093
1.45998 	0.984489 	-0.170456 	0.131277 	1.0578 	-0.112075 	0.150494
1.47466 	0.989461 	-0.1687 	0.130605 	1.05898 	-0.109749 	0.149998
1.48933 	0.994433 	-0.166943 	0.129933 	1.06017 	-0.107423 	0.149501
1.50427 	0.999592 	-0.165302 	0.129048 	1.06131 	-0.105114 	0.149138
1.51921 	1.00475 	-0.16366 	0.128164 	1.06245 	-0.102806 	0.148775
1.53443 	1.01011 	-0.162017 	0.127227 	1.06365 	-0.100484 	0.148529
1.54965 	1.01546 	-0.160373 	0.126291 	1.06485 	-0.098161 	0.148282
1.56514 	1.02105 	-0.158572 	0.125454 	1.06621 	-0.0958262 	0.148041
1.58064 	1.02664 	-0.156771 	0.124618 	1.06758 	-0.0934914 	0.1478
1.59642 	1.03256 	-0.154569 	0.123933 	1.06917 	-0.091188 	0.14744
1.6122 	1.03849 	-0.152367 	0.123247 	1.07076 	-0.0888846 	0.147081
1.62827 	1.04442 	-0.149579 	0.122651 	1.07247 	-0.0867124 	0.14647
1.64434 	1.05035 	-0.14679 	0.122054 	1.07417 	-0.0845401 	0.145858
1.6607 	1.05573 	-0.143342 	0.12145 	1.07577 	-0.0826231 	0.144849
1.67707 	1.06111 	-0.139894 	0.120846 	1.07737 	-0.0807061 	0.143839
1.69373 	1.06577 	-0.135785 	0.120194 	1.07866 	-0.0790967 	0.142402
1.7104 	1.07044 	-0.131677 	0.119543 	1.07995 	-0.0774873 	0.140964
1.72737 	1.07423 	-0.127086 	0.118811 	1.08088 	-0.0761211 	0.139246
1.74434 	1.07802 	-0.122494 	0.11808 	1.08182 	-0.0747549 	0.137527
1.76162 	1.08072 	-0.117761 	0.117228 	1.08247 	-0.0735099 	0.135743
1.7789 	1.08341 	-0.113027 	0.116375 	1.08311 	-0.0722648 	0.133959
1.7965 	1.08501 	-0.108498 	0.115421 	1.08351 	-0.0710372 	0.132239
1.81409 	1.08662 	-0.10397 	0.114466 	1.08391 	-0.0698095 	0.130519
1.83202 	1.08733 	-0.0998333 	0.113485 	1.08397 	-0.0685357 	0.128891
1.84994 	1.08805 	-0.0956968 	0.112505 	1.08403 	-0.0672619 	0.127264
1.86819 	1.08809 	-0.0919596 	0.111584 	1.08373 	-0.0659253 	0.125746
1.88644 	1.08813 	-0.0882224 	0.110664 	1.08343 	-0.0645886 	0.124228
1.88644 	1.08813 	-0.0882224 	0.110664 	1.08343 	-0.0645886 	0.124228
1.90502 	1.08772 	-0.0847731 	0.10986 	1.08288 	-0.0631596 	0.122841
1.9236 	1.08731 	-0.0813238 	0.109056 	1.08234 	-0.0617306 	0.121454
1.94253 	1.08658 	-0.0782135 	0.108389 	1.08164 	-0.0602444 	0.120233
1.96146 	1.08585 	-0.0751032 	0.107722 	1.08093 	-0.0587582 	0.119012
1.98073 	1.08492 	-0.0727086 	0.107139 	1.07998 	-0.0576185 	0.117964
2 	1.084 	-0.070314 	0.106556 	1.07903 	-0.0564788 	0.116917
