0 1e-10
0.00128482 0.00670162
0.00256965 0.0134433
0.00387803 0.0112106
0.00518642 0.00892122
0.00651881 0.00704235
0.00785119 0.00513064
0.00920802 0.00390865
0.0105648 0.00269059
0.0119465 0.00211064
0.0133283 0.00155272
0.0147353 0.00132462
0.0161424 0.00111247
0.0175752 0.00101955
0.0190081 0.000933881
0.0204672 0.000888368
0.0219263 0.000846039
0.0234122 0.000820588
0.0248981 0.00079618
0.0264113 0.000782752
0.0279244 0.000769445
0.0294653 0.000764188
0.0310063 0.000758747
0.0325754 0.000759149
0.0341446 0.000759154
0.0357425 0.000763026
0.0373405 0.000766409
0.0389677 0.000772357
0.040595 0.000777874
0.0422521 0.000785179
0.0439092 0.000792202
0.0455967 0.000799903
0.0472842 0.000807374
0.0490026 0.000815209
0.0507211 0.000822739
0.052471 0.000830974
0.054221 0.000838822
0.056003 0.000847438
0.0577851 0.00085566
0.0595998 0.000865092
0.0614146 0.000874379
0.0632626 0.000885695
0.0651106 0.000897378
0.0669925 0.000911436
0.0688745 0.00092637
0.0707909 0.000943156
0.0727073 0.000961201
0.0746589 0.000978082
0.0766105 0.000996405
0.0785979 0.00100824
0.0805853 0.00102127
0.0826091 0.00102569
0.0846329 0.00103088
0.0866939 0.00102955
0.0887548 0.00102871
0.0908536 0.00102625
0.0929523 0.00102434
0.0950896 0.00102645
0.0972268 0.00102951
0.0994033 0.00103846
0.10158 0.00104865
0.103796 0.00106435
0.106012 0.00108154
0.108269 0.00110394
0.110526 0.00112805
0.112825 0.00115339
0.115123 0.00118024
0.117464 0.0012013
0.119804 0.00122329
0.122188 0.00123233
0.124571 0.00124149
0.126999 0.00123163
0.129426 0.00122061
0.131897 0.00118904
0.134369 0.00115524
0.136886 0.00111707
0.139403 0.0010771
0.141967 0.00105011
0.14453 0.00102241
0.14714 0.00100794
0.14975 0.000993299
0.152408 0.000989595
0.155066 0.000985845
0.157773 0.000995499
0.16048 0.00100538
0.163237 0.00102728
0.165993 0.00104959
0.1688 0.00106919
0.171607 0.00108824
0.174466 0.00108835
0.177324 0.00108586
0.180235 0.00106871
0.183146 0.00104748
0.186111 0.00103345
0.189075 0.00101537
0.192094 0.00101061
0.195113 0.00100231
0.198187 0.00100497
0.201261 0.00100513
0.204391 0.00102136
0.207522 0.00103702
0.21071 0.00107257
0.213898 0.00110931
0.217144 0.00115818
0.22039 0.00120873
0.223696 0.00125554
0.227002 0.00130345
0.230369 0.00133726
0.233735 0.00136883
0.237164 0.0013688
0.240592 0.00136193
0.240786 0.00136257
0.240981 0.00136321
0.244277 0.00132295
0.247574 0.00128269
0.251129 0.00123435
0.254685 0.00118536
0.258305 0.00114102
0.261925 0.00110133
0.265612 0.00107005
0.269299 0.00104551
0.273053 0.00102743
0.276808 0.00101434
0.280631 0.00100066
0.284454 0.000989224
0.288348 0.000977067
0.292241 0.000965375
0.296206 0.000959761
0.300171 0.000954715
0.304208 0.000960368
0.308246 0.000967485
0.312358 0.000987057
0.316469 0.00100878
0.320656 0.00104451
0.324843 0.00108316
0.329107 0.00113595
0.333371 0.00119268
0.337713 0.00126172
0.342055 0.00133582
0.346476 0.00140908
0.350898 0.00148729
0.355401 0.00155149
0.359903 0.00161917
0.364489 0.00166953
0.369074 0.001722
0.373744 0.00175421
0.378413 0.00178719
0.383168 0.00180294
0.387923 0.00181829
0.392765 0.00182361
0.397608 0.00182801
0.402539 0.00182813
0.40747 0.0018275
0.412491 0.00182546
0.417513 0.00182333
0.422626 0.00182029
0.42774 0.00181772
0.432948 0.00181465
0.438155 0.00181219
0.443458 0.00180995
0.448761 0.00180777
0.454161 0.00180677
0.459561 0.00180376
0.46506 0.00180984
0.47056 0.00180994
0.47616 0.00184333
0.48176 0.00186479
0.487463 0.00193891
0.493165 0.00199351
0.498973 0.00202061
0.50478 0.00202811
0.510694 0.00195233
0.516608 0.00186912
0.52263 0.00186993
0.528653 0.001876
0.534786 0.00206412
0.540918 0.00227133
0.541266 0.00227192
0.541614 0.0022725
0.547512 0.00254489
0.553409 0.00281728
0.559769 0.00286005
0.566129 0.00292083
0.572605 0.00259049
0.579082 0.00225136
0.579449 0.00223801
0.579817 0.00222467
0.586045 0.00189736
0.592272 0.00157005
0.598989 0.00146873
0.605705 0.00136487
0.612544 0.00133974
0.619384 0.00131083
0.626349 0.00131444
0.633314 0.00131103
0.640406 0.00144068
0.647499 0.00155559
0.654722 0.0018974
0.661944 0.00222401
0.669299 0.00256553
0.676655 0.00291288
0.684145 0.0030444
0.691635 0.00318661
0.699262 0.00329441
0.70689 0.00340676
0.714657 0.00352456
0.722424 0.00364753
0.730334 0.00365977
0.738244 0.00367657
0.746299 0.00359603
0.754354 0.00352026
0.762556 0.00340338
0.770759 0.00328604
0.779112 0.00324797
0.787465 0.00320151
0.795971 0.00335611
0.804478 0.003498
0.81314 0.00386724
0.821802 0.00423297
0.830623 0.00462852
0.839445 0.00504224
0.839945 0.00501874
0.840446 0.00499524
0.848928 0.00480844
0.857411 0.00462163
0.866558 0.00371445
0.875706 0.002809
0.885021 0.00208941
0.894337 0.00135677
0.903823 0.0010766
0.91331 0.00078958
0.92297 0.000687687
0.93263 0.000584436
0.942468 0.000556374
0.952305 0.00052893
0.962323 0.000527424
0.972341 0.000527215
0.982543 0.000511709
0.992745 0.000497487
1.00313 0.000426
1.01352 0.00035359
1.0241 0.000263455
1.03468 0.000170473
1.04545 0.000123479
1.05623 7.47226e-05
1.05684 7.40955e-05
1.05745 7.34683e-05
1.06781 5.86379e-05
1.07817 4.38075e-05
1.08934 3.85195e-05
1.10051 3.30948e-05
1.10115 3.30023e-05
1.10178 3.29097e-05
1.11252 3.09429e-05
1.12327 2.8976e-05
1.13485 2.81162e-05
1.14644 2.72349e-05
1.15824 2.67979e-05
1.17004 2.63462e-05
1.18205 2.60728e-05
1.19407 2.57868e-05
1.2063 2.56406e-05
1.21854 2.54882e-05
1.21923 2.5487e-05
1.21992 2.54857e-05
1.23169 2.54831e-05
1.24345 2.54806e-05
1.25614 2.57156e-05
1.26883 2.59649e-05
1.28175 2.67063e-05
1.29467 2.74864e-05
1.30783 2.94606e-05
1.32099 3.1541e-05
1.33439 3.67151e-05
1.34778 4.21772e-05
1.36143 5.52841e-05
1.37507 6.91288e-05
1.38897 9.7657e-05
1.40286 0.000127654
1.41701 0.000167822
1.43116 0.000209611
1.44557 0.000243349
1.45998 0.000278043
1.47466 0.000294096
1.48933 0.0003105
1.50427 0.000312047
1.51921 0.000313708
1.53443 0.000302606
1.54965 0.000291357
1.55051 0.000290364
1.55137 0.000289371
1.56601 0.000265898
1.58064 0.000242424
1.59642 0.000212899
1.6122 0.000182104
1.62827 0.000153441
1.64434 0.000123448
1.6607 9.93527e-05
1.67707 7.41057e-05
1.69373 5.99442e-05
1.7104 4.51091e-05
1.72737 3.98793e-05
1.74434 3.44107e-05
1.76162 3.27189e-05
1.7789 3.09536e-05
1.7965 3.04652e-05
1.81409 2.99539e-05
1.83202 2.98958e-05
1.84994 2.98292e-05
1.86819 2.99981e-05
1.88644 3.01618e-05
1.90502 3.05303e-05
1.9236 3.08972e-05
1.94253 3.14174e-05
1.96146 3.19396e-05
1.98073 3.23798e-05
2 3.28234e-05
