0 	0.0865594
0.00128482 	0.0865711
0.00256965 	0.0865819
0.00387803 	0.086483
0.00518642 	0.0863792
0.00651881 	0.0860614
0.00785119 	0.0857321
0.00920802 	0.0852156
0.0105648 	0.0846818
0.0119465 	0.0839789
0.0133283 	0.0832555
0.0147353 	0.082425
0.0161424 	0.0815733
0.0175752 	0.0806753
0.0190081 	0.0797563
0.0204672 	0.0788261
0.0219263 	0.0778758
0.0234122 	0.0769388
0.0248981 	0.0759831
0.0264113 	0.0750532
0.0279244 	0.0741061
0.0294653 	0.0731899
0.0310063 	0.0722584
0.0325754 	0.0713593
0.0341446 	0.0704472
0.0357425 	0.0695675
0.0373405 	0.0686772
0.0389677 	0.0678162
0.040595 	0.0669468
0.0422521 	0.0661005
0.0439092 	0.0652476
0.0455967 	0.0644117
0.0472842 	0.0635712
0.0490026 	0.0627423
0.0507211 	0.0619108
0.052471 	0.0610838
0.054221 	0.0602562
0.056003 	0.0594296
0.0577851 	0.0586049
0.0595998 	0.0577834
0.0614146 	0.0569671
0.0632626 	0.056153
0.0651106 	0.0553479
0.0669925 	0.0545385
0.0688745 	0.0537416
0.0707909 	0.0529343
0.0727073 	0.0521426
0.0746589 	0.0513376
0.0766105 	0.0505504
0.0785979 	0.0497516
0.0805853 	0.0489718
0.0826091 	0.0481859
0.0846329 	0.04742
0.0866939 	0.0466545
0.0887548 	0.0459107
0.0908536 	0.0451747
0.0929523 	0.0444634
0.0950896 	0.0437672
0.0972268 	0.0430996
0.0972268 	0.0430996
0.0994033 	0.0424511
0.10158 	0.0418359
0.103796 	0.0412427
0.106012 	0.0406896
0.108269 	0.0401612
0.110526 	0.0396814
0.112825 	0.0392254
0.115123 	0.0388271
0.115264 	0.0387729
0.115404 	0.0387237
0.117604 	0.0384286
0.119804 	0.0381335
0.122045 	0.0378482
0.124285 	0.0376333
0.124428 	0.0376196
0.124571 	0.0376058
0.126999 	0.0373897
0.129426 	0.0372439
0.131897 	0.0371044
0.134369 	0.0370316
0.136886 	0.0369552
0.139403 	0.0369393
0.139557 	0.036912
0.139711 	0.0368888
0.14212 	0.0369087
0.14453 	0.0369286
0.146983 	0.0369228
0.149437 	0.0369624
0.149594 	0.0369649
0.14975 	0.0369675
0.152408 	0.0369808
0.155066 	0.0370322
0.157773 	0.0370513
0.16048 	0.0371005
0.163237 	0.0371334
0.165993 	0.0371872
0.1688 	0.0372658
0.171607 	0.0373557
0.174466 	0.0375128
0.177324 	0.0376733
0.180235 	0.0379069
0.183146 	0.0381403
0.186111 	0.0384143
0.189075 	0.0386884
0.192094 	0.0389779
0.195113 	0.03927
0.198187 	0.0395587
0.201261 	0.0398534
0.204391 	0.0401408
0.207522 	0.0404383
0.21071 	0.0407202
0.213898 	0.0410175
0.217144 	0.0412214
0.22039 	0.0414456
0.223696 	0.0414951
0.227002 	0.0415675
0.230369 	0.0414129
0.233735 	0.0412818
0.237164 	0.0408873
0.240592 	0.0405171
0.244083 	0.0398976
0.247574 	0.0393053
0.251129 	0.0385098
0.254685 	0.037745
0.258305 	0.0368343
0.261925 	0.0359571
0.265612 	0.0349884
0.269299 	0.0340569
0.273053 	0.0330509
0.276808 	0.0320856
0.280631 	0.0310563
0.284454 	0.0300704
0.284454 	0.0300704
0.288348 	0.0290317
0.292241 	0.0280381
0.296206 	0.0269731
0.300171 	0.0259513
0.304208 	0.0248745
0.308246 	0.0238356
0.312358 	0.0227566
0.316469 	0.0217102
0.320656 	0.0206009
0.324843 	0.0195193
0.329107 	0.0183557
0.333371 	0.0172125
0.337713 	0.0159814
0.342055 	0.0147616
0.346476 	0.0134396
0.350898 	0.0121174
0.355401 	0.0106489
0.359903 	0.00915895
0.364489 	0.00745777
0.369074 	0.0057009
0.373744 	0.00378514
0.378413 	0.00178255
0.383168 	-0.000177902
0.387923 	-0.00223895
0.392765 	-0.00409291
0.397608 	-0.00604758
0.402539 	-0.00767495
0.40747 	-0.00939247
0.412491 	-0.0106659
0.417513 	-0.0120116
0.422626 	-0.0128525
0.42774 	-0.0137502
0.432948 	-0.0141721
0.438155 	-0.0146473
0.438155 	-0.0146473
0.443458 	-0.0147161
0.448761 	-0.0148507
0.454161 	-0.0146679
0.459561 	-0.0145791
0.46506 	-0.014261
0.47056 	-0.0140766
0.47616 	-0.0136527
0.48176 	-0.0134071
0.487463 	-0.0127501
0.493165 	-0.0122992
0.498973 	-0.0112342
0.50478 	-0.0103473
0.510694 	-0.0089581
0.516608 	-0.00766105
0.52263 	-0.00682409
0.528653 	-0.0060006
0.534786 	-0.00677898
0.540918 	-0.00755368
0.547164 	-0.0101666
0.553409 	-0.0127902
0.559769 	-0.0168901
0.566129 	-0.0209923
0.572605 	-0.0266598
0.579082 	-0.0323098
0.585677 	-0.0397158
0.592272 	-0.0471321
0.598989 	-0.054524
0.605705 	-0.0619601
0.612544 	-0.0667105
0.619384 	-0.0714592
0.626349 	-0.07369
0.633314 	-0.0758707
0.640406 	-0.0770522
0.647499 	-0.0781902
0.654722 	-0.0783275
0.661944 	-0.078424
0.669299 	-0.0772352
0.676655 	-0.0759853
0.684145 	-0.074917
0.691635 	-0.0737502
0.699262 	-0.0758601
0.70689 	-0.0778868
0.714657 	-0.0854097
0.722424 	-0.0928981
0.730334 	-0.104552
0.738244 	-0.116135
0.746299 	-0.127465
0.754354 	-0.138637
0.762556 	-0.142913
0.770759 	-0.14705
0.779112 	-0.138903
0.787465 	-0.130692
0.795971 	-0.113577
0.804478 	-0.0963952
0.81314 	-0.0776783
0.821802 	-0.0588774
0.830623 	-0.045005
0.839445 	-0.0309969
0.848428 	-0.0270384
0.857411 	-0.02294
0.866558 	-0.0270981
0.875706 	-0.0312784
0.885021 	-0.0367948
0.894337 	-0.0424534
0.903823 	-0.0450019
0.91331 	-0.047675
0.92297 	-0.0473947
0.93263 	-0.047192
0.942468 	-0.0455198
0.952305 	-0.043884
0.962323 	-0.0415938
0.972341 	-0.0393077
0.982543 	-0.0366146
0.992745 	-0.0338943
1.00313 	-0.0313443
1.01352 	-0.028763
1.0241 	-0.0266772
1.03468 	-0.0245721
1.04545 	-0.0229405
1.05623 	-0.0213022
1.0672 	-0.0200911
1.07817 	-0.0188845
1.08934 	-0.0178871
1.10051 	-0.0168965
1.11189 	-0.0160417
1.12327 	-0.0151954
1.12327 	-0.0151954
1.13485 	-0.0144196
1.14644 	-0.0136519
1.14679 	-0.0136282
1.14715 	-0.0136045
1.15859 	-0.012898
1.17004 	-0.0121949
1.17034 	-0.0121756
1.17065 	-0.0121563
1.18236 	-0.0114712
1.19407 	-0.0107891
1.2063 	-0.0101068
1.21854 	-0.00942815
1.23099 	-0.00877908
1.24345 	-0.00813173
1.25614 	-0.00753702
1.26883 	-0.00694238
1.28175 	-0.00643248
1.29467 	-0.00592156
1.30783 	-0.00553297
1.32099 	-0.00514284
1.33439 	-0.00491194
1.34778 	-0.00467948
1.36143 	-0.00463386
1.37507 	-0.00458702
1.38897 	-0.00473735
1.40286 	-0.00488698
1.41701 	-0.00521883
1.43116 	-0.00555171
1.4316 	-0.0055647
1.43203 	-0.00557768
1.446 	-0.00604238
1.45998 	-0.00650958
1.46036 	-0.00652379
1.46074 	-0.00653801
1.47503 	-0.00713621
1.48933 	-0.00773833
1.50427 	-0.00845963
1.51921 	-0.00919066
1.53443 	-0.00984938
1.54965 	-0.0105255
1.56514 	-0.0109321
1.58064 	-0.0113569
1.59642 	-0.0114549
1.6122 	-0.0115602
1.62827 	-0.0114503
1.64434 	-0.0113378
1.6607 	-0.0111941
1.67707 	-0.0110449
1.69373 	-0.0109567
1.7104 	-0.0108628
1.72737 	-0.010835
1.74434 	-0.0108032
1.76162 	-0.0108114
1.7789 	-0.0108172
1.7965 	-0.0108441
1.81409 	-0.0108693
1.83202 	-0.0109047
1.84994 	-0.0109389
1.86819 	-0.0109763
1.88644 	-0.0110127
1.90502 	-0.0110499
1.9236 	-0.0110862
1.94253 	-0.01112
1.96146 	-0.011153
1.98073 	-0.0111815
2 	-0.0112093
