# kMean  POINT_DATA 63831
# x  y  z  kMean
0 0.5 3.39583e-17 0.00375
0 0.5 -0.00617931 0.00375
0 0.5 0.00617931 0.00375
0.0124865 0.5 0.00617931 0.00375033
0.0124865 0.5 -0.00617931 0.00375031
0 0.5 -0.0688207 0.00375
0 0.5 0.0688207 0.00375
0.0124865 0.5 0.0688207 0.00375033
0.0124865 0.5 -0.0688207 0.00375031
0 0.5 0.075 0.00375
0 0.5 -0.075 0.00375
0 0.5 -0.0811793 0.00375
0 0.5 0.0811793 0.00375
0.0124865 0.5 0.0811793 0.00375036
0.0124865 0.5 -0.0811793 0.00375031
0.075776 0.5 0.0375 0.00375204
0.075776 0.5 -0.0375 0.00375192
0.075776 0.5 0.1125 0.00375221
0.075776 0.5 -0.1125 0.00375188
0 0.5 -0.143821 0.00375
0 0.5 0.143821 0.00375
0.0124865 0.5 0.143821 0.00375036
0.0124865 0.5 -0.143821 0.00375031
0 0.5 0.15 0.00375
0 0.5 -0.15 0.00375
0.151149 0.5 2.20565e-18 0.00375429
0 0.5 -0.156179 0.00375
0 0.5 0.156179 0.00375
0.0124865 0.5 0.156179 0.0037504
0.0124865 0.5 -0.156179 0.00375031
0.151149 0.5 0.075 0.0037545
0.151149 0.5 -0.075 0.00375418
0.075776 0.5 0.1875 0.00375242
0.075776 0.5 -0.1875 0.00375187
0.151149 0.5 0.15 0.00375482
0.151149 0.5 -0.15 0.00375417
0 0.5 -0.218821 0.00375
0 0.5 0.218821 0.00375
0.0124865 0.5 0.218821 0.0037504
0.0124865 0.5 -0.218821 0.00375031
0.219992 0.5 0.0375 0.00375656
0.219992 0.5 -0.0375 0.00375635
0 0.5 0.225 0.00375
0 0.5 -0.225 0.00375
0 0.5 -0.231179 0.00375
0 0.5 0.231179 0.00375
0.0124865 0.5 0.231179 0.00375044
0.0124865 0.5 -0.231179 0.00375031
0.219993 0.5 0.1125 0.0037569
0.219993 0.5 -0.1125 0.00375628
0.151149 0.5 0.225 0.00375523
0.151149 0.5 -0.225 0.00375422
0.075776 0.5 0.2625 0.00375267
0.075776 0.5 -0.2625 0.00375191
0.288069 0.5 3.34766e-17 0.00376107
0.219992 0.5 0.1875 0.00375741
0.219992 0.5 -0.1875 0.00375632
0 0.5 0.293821 0.00375
0 0.5 -0.293821 0.00375
0.0124865 0.5 -0.293821 0.00375031
0.0124865 0.5 0.293821 0.00375044
0.288069 0.5 0.075 0.00376133
0.288069 0.5 -0.075 0.00376095
0 0.5 0.3 0.00375
0 0.5 -0.3 0.00375
0 0.5 0.306179 0.00375
0 0.5 -0.306179 0.00375
0.0124865 0.5 0.306179 0.00375048
0.0124865 0.5 -0.306179 0.00375033
0.288069 0.5 0.15 0.00376173
0.288069 0.5 -0.15 0.00376094
0.151149 0.5 0.3 0.0037557
0.151149 0.5 -0.3 0.00375438
0.219992 0.5 0.2625 0.00375805
0.219992 0.5 -0.2625 0.00375647
0.075776 0.5 0.3375 0.00375293
0.075776 0.5 -0.3375 0.00375202
0.350249 0.5 0.0375 0.00376548
0.350249 0.5 -0.0375 0.00376532
0.288069 0.5 0.225 0.00376229
0.288069 0.5 -0.225 0.00376104
0.350249 0.5 0.1125 0.00376579
0.350249 0.5 -0.1125 0.00376527
0 0.5 0.368821 0.00375
0 0.5 -0.368821 0.00375
0.0124865 0.5 0.368821 0.00375048
0.0124865 0.5 -0.368821 0.00375033
0 0.5 0.375 0.00375
0 0.5 -0.375 0.00375
0 0.5 -0.381179 0.00375
0 0.5 0.381179 0.00375
0.0124865 0.5 0.381179 0.00375053
0.0124865 0.5 -0.381179 0.00375035
0.350249 0.5 0.1875 0.00376624
0.350249 0.5 -0.1875 0.00376531
0.219992 0.5 0.3375 0.00375876
0.219992 0.5 -0.3375 0.00375682
0.151149 0.5 0.375 0.0037562
0.151149 0.5 -0.375 0.00375464
0.411736 0.5 1.70099e-17 0.00377263
0.288069 0.5 0.3 0.00376298
0.288069 0.5 -0.3 0.00376132
0.411736 0.5 0.075 0.00377282
0.411736 0.5 -0.075 0.00377253
0.075776 0.5 0.4125 0.00375319
0.075776 0.5 -0.4125 0.00375216
0.350249 0.5 -0.2625 0.00376549
0.350249 0.5 0.2625 0.00376688
0.411736 0.5 0.15 0.00377311
0.411736 0.5 -0.15 0.0037725
0 0.5 -0.443821 0.00375
0 0.5 0.443821 0.00375
0.0124865 0.5 0.443821 0.00375053
0.0124865 0.5 -0.443821 0.00375035
0 0.5 0.45 0.00375
0 0.5 -0.45 0.00375
0 0.5 -0.456179 0.00375
0 0.5 0.456179 0.00375
0.0124865 0.5 0.456179 0.00375057
0.0124865 0.5 -0.456179 0.00375038
0.219992 0.5 -0.4125 0.00375724
0.219993 0.5 0.4125 0.0037595
0.411736 0.5 0.225 0.00377354
0.411736 0.5 -0.225 0.00377256
0.467897 0.5 0.0375 0.00377948
0.467897 0.5 -0.0375 0.00377937
0.288069 0.5 0.375 0.00376375
0.288069 0.5 -0.375 0.00376172
0.151149 0.5 -0.45 0.00375494
0.151149 0.5 0.45 0.0037567
0.467897 0.5 0.1125 0.00377965
0.467897 0.5 -0.1125 0.00377929
0.350249 0.5 0.3375 0.00376766
0.350249 0.5 -0.3375 0.00376589
0.075776 0.5 -0.4875 0.00375232
0.075776 0.5 0.4875 0.00375344
0.467897 0.5 0.1875 0.00377992
0.467897 0.5 -0.1875 0.00377926
0.411736 0.5 0.3 0.00377413
0.411736 0.5 -0.3 0.00377277
0 0.5 -0.518821 0.00375
0 0.5 0.518821 0.00375
0.0124865 0.5 0.518821 0.00375057
0.0124865 0.5 -0.518821 0.00375038
0.523432 0.5 3.75966e-17 0.00378909
0 0.5 0.525 0.00375
0 0.5 -0.525 0.00375
0.523432 0.5 0.075 0.0037892
0.523432 0.5 -0.075 0.00378897
0 0.5 -0.531179 0.00375
0 0.5 0.531179 0.00375
0.0124865 0.5 0.531179 0.0037506
0.0124865 0.5 -0.531179 0.00375041
0.288069 0.5 0.45 0.00376455
0.288069 0.5 -0.45 0.00376216
0.219992 0.5 -0.4875 0.0037577
0.219992 0.5 0.4875 0.00376023
0.467897 0.5 -0.2625 0.00377934
0.467897 0.5 0.2625 0.0037803
0.350249 0.5 0.4125 0.00376851
0.350249 0.5 -0.4125 0.00376633
0.523432 0.5 0.15 0.00378932
0.523432 0.5 -0.15 0.00378884
0.151149 0.5 0.525 0.00375718
0.151149 0.5 -0.525 0.00375527
0.411736 0.5 0.375 0.00377482
0.411736 0.5 -0.375 0.00377305
0.075776 0.5 0.5625 0.00375366
0.075776 0.5 -0.5625 0.0037525
0.523432 0.5 0.225 0.00378949
0.523432 0.5 -0.225 0.00378874
0.574156 0.5 0.0375 0.00379828
0.574157 0.5 -0.0375 0.00379816
0.467897 0.5 0.3375 0.00378084
0.467897 0.5 -0.3375 0.00377951
0.574156 0.5 0.1125 0.00379832
0.574156 0.5 -0.1125 0.00379797
0 0.5 -0.593821 0.00375
0 0.5 0.593821 0.00375
0.0124865 0.5 0.593821 0.0037506
0.0124865 0.5 -0.593821 0.00375041
0.288069 0.5 0.525 0.00376534
0.288069 0.5 -0.525 0.0037626
0 0.5 0.6 0.00375
0 0.5 -0.6 0.00375
0.350249 0.5 0.4875 0.00376938
0.350249 0.5 -0.4875 0.00376677
0.523432 0.5 -0.3 0.00378865
0.523432 0.5 0.3 0.00378975
0.219992 0.5 0.5625 0.00376093
0.219992 0.5 -0.5625 0.00375817
0.574156 0.5 0.1875 0.00379833
0.574157 0.5 -0.1875 0.00379776
0 0.5 -0.606179 0.00375
0 0.5 0.606179 0.00375
0.0124865 0.5 0.606179 0.00375064
0.0124865 0.5 -0.606179 0.00375044
0.411736 0.5 0.45 0.00377557
0.411736 0.5 -0.45 0.00377332
0.151149 0.5 0.6 0.00375762
0.151149 0.5 -0.6 0.00375558
0.467897 0.5 0.4125 0.00378147
0.467897 0.5 -0.4125 0.00377966
0.624316 0.5 2.64545e-17 0.00381003
0.624316 0.5 0.075 0.00381011
0.624316 0.5 -0.075 0.00380979
0.574156 0.5 -0.2625 0.00379754
0.574157 0.5 0.2625 0.00379836
0.075776 0.5 0.6375 0.00375385
0.075776 0.5 -0.6375 0.00375266
0.624316 0.5 0.15 0.00381005
0.624316 0.5 -0.15 0.00380944
0.523432 0.5 0.375 0.00379011
0.523432 0.5 -0.375 0.00378853
0.350249 0.5 -0.5625 0.00376717
0.350249 0.5 0.5625 0.00377021
0.624316 0.5 0.225 0.0038099
0.624316 0.5 -0.225 0.00380897
0.288069 0.5 0.6 0.00376607
0.288069 0.5 -0.6 0.00376301
0.574157 0.5 0.3375 0.00379847
0.574157 0.5 -0.3375 0.00379718
0.411736 0.5 0.525 0.00377632
0.411736 0.5 -0.525 0.00377354
0 0.5 -0.668821 0.00375
0 0.5 0.668821 0.00375
0.0124865 0.5 0.668821 0.00375064
0.0124865 0.5 -0.668821 0.00375044
0.67013 0.5 0.0375 0.00382133
0.67013 0.5 -0.0375 0.00382111
0.219993 0.5 -0.6375 0.00375861
0.219992 0.5 0.6375 0.00376155
0 0.5 0.675 0.00375
0 0.5 -0.675 0.00375
0.467897 0.5 -0.4875 0.00377974
0.467897 0.5 0.4875 0.00378213
0.67013 0.5 0.1125 0.0038213
0.67013 0.5 -0.1125 0.0038207
0 0.5 -0.681179 0.00375
0 0.5 0.681179 0.00375
0.0124865 0.5 0.681179 0.00375066
0.0124865 0.5 -0.681179 0.00375046
0.523432 0.5 0.45 0.00379051
0.523432 0.5 -0.45 0.00378832
0.151149 0.5 0.675 0.00375801
0.151149 0.5 -0.675 0.00375588
0.624316 0.5 0.3 0.00380972
0.624316 0.5 -0.3 0.00380835
0.67013 0.5 0.1875 0.00382105
0.67013 0.5 -0.1875 0.00382012
0.574156 0.5 0.4125 0.00379864
0.574156 0.5 -0.4125 0.00379676
0.715434 0.5 3.51282e-17 0.00383485
0.075776 0.5 0.7125 0.00375401
0.075776 0.5 -0.7125 0.00375281
0.715434 0.5 0.075 0.00383499
0.715434 0.5 -0.075 0.00383439
0.67013 0.5 0.2625 0.00382067
0.67013 0.5 -0.2625 0.00381931
0.350249 0.5 -0.6375 0.00376752
0.350249 0.5 0.6375 0.00377098
0.411736 0.5 0.6 0.00377702
0.411736 0.5 -0.6 0.00377369
0.624316 0.5 0.375 0.00380957
0.624316 0.5 -0.375 0.00380757
0.715434 0.5 0.15 0.0038348
0.715434 0.5 -0.15 0.00383364
0.467897 0.5 0.5625 0.00378277
0.467897 0.5 -0.5625 0.00377972
0.288069 0.5 0.675 0.00376673
0.288069 0.5 -0.675 0.00376337
0.523432 0.5 0.525 0.00379091
0.523432 0.5 -0.525 0.00378799
0 0.5 -0.743821 0.00375
0 0.5 0.743821 0.00375
0.0124865 0.5 -0.743821 0.00375046
0.0124865 0.5 0.743821 0.00375066
0.219992 0.5 0.7125 0.00376209
0.219992 0.5 -0.7125 0.00375901
0.715434 0.5 0.225 0.00383433
0.715434 0.5 -0.225 0.0038326
0 0.5 0.75 0.00375
0 0.5 -0.75 0.00375
0.67013 0.5 0.3375 0.00382022
0.67013 0.5 -0.3375 0.00381824
0.574157 0.5 0.4875 0.00379882
0.574157 0.5 -0.4875 0.00379617
0 0.5 -0.756179 0.00375
0 0.5 0.756179 0.00375
0.0124865 0.5 0.756179 0.00375068
0.0124865 0.5 -0.756179 0.00375048
0.756813 0.5 0.0375 0.00384804
0.756813 0.5 -0.0375 0.00384762
0.151149 0.5 0.75 0.00375833
0.151149 0.5 -0.75 0.00375613
0.756813 0.5 0.1125 0.00384801
0.756813 0.5 -0.1125 0.00384683
0.624316 0.5 -0.45 0.00380661
0.624316 0.5 0.45 0.00380942
0.715434 0.5 0.3 0.00383365
0.715434 0.5 -0.3 0.00383124
0.756813 0.5 0.1875 0.00384755
0.756813 0.5 -0.1875 0.00384566
0.67013 0.5 -0.4125 0.00381699
0.67013 0.5 0.4125 0.0038198
0.411736 0.5 0.675 0.00377764
0.411736 0.5 -0.675 0.00377373
0.467897 0.5 0.6375 0.00378334
0.467897 0.5 -0.6375 0.00377959
0.075776 0.5 0.7875 0.00375412
0.075776 0.5 -0.7875 0.00375294
0.350249 0.5 0.7125 0.00377166
0.350249 0.5 -0.7125 0.00376777
0.523432 0.5 0.6 0.00379127
0.523432 0.5 -0.6 0.00378752
0.797732 0.5 3.20924e-17 0.00386284
0.756813 0.5 0.2625 0.00384675
0.756814 0.5 -0.2625 0.00384408
0.797732 0.5 0.075 0.00386314
0.797732 0.5 -0.075 0.00386203
0.288069 0.5 0.75 0.00376728
0.288069 0.5 -0.75 0.00376365
0.574156 0.5 -0.5625 0.00379541
0.574156 0.5 0.5625 0.00379898
0.715434 0.5 0.375 0.00383286
0.715434 0.5 -0.375 0.00382957
0.797732 0.5 0.15 0.00386288
0.797732 0.5 -0.15 0.00386072
0.624316 0.5 0.525 0.00380924
0.624316 0.5 -0.525 0.00380543
0.219992 0.5 0.7875 0.00376253
0.219992 0.5 -0.7875 0.00375934
0 0.5 -0.818821 0.00375
0 0.5 0.818821 0.00375
0.0124865 0.5 -0.818821 0.00375048
0.0124865 0.5 0.818821 0.00375068
0 0.5 0.825 0.00375
0 0.5 -0.825 0.00375
0.756813 0.5 -0.3375 0.00384214
0.756813 0.5 0.3375 0.0038457
0.67013 0.5 0.4875 0.00381932
0.67013 0.5 -0.4875 0.00381546
0.797732 0.5 0.225 0.00386211
0.797732 0.5 -0.225 0.00385892
0 0.5 -0.831179 0.00375
0 0.5 0.831179 0.00375
0.0124865 0.5 0.831179 0.00375069
0.0124865 0.5 -0.831179 0.0037505
0.835106 0.5 -0.0375 0.00387684
0.835106 0.5 0.0375 0.00387757
0.151149 0.5 0.825 0.00375857
0.151149 0.5 -0.825 0.00375634
0.835106 0.5 0.1125 0.00387763
0.835106 0.5 -0.1125 0.00387553
0.715434 0.5 0.45 0.00383202
0.715434 0.5 -0.45 0.0038276
0.797732 0.5 0.3 0.00386093
0.797732 0.5 -0.3 0.00385664
0.467897 0.5 0.7125 0.00378382
0.467897 0.5 -0.7125 0.00377934
0.523432 0.5 0.675 0.00379154
0.523432 0.5 -0.675 0.00378691
0.411736 0.5 0.75 0.00377815
0.411736 0.5 -0.75 0.00377367
0.835106 0.5 0.1875 0.00387702
0.835106 0.5 -0.1875 0.00387363
0.574156 0.5 0.6375 0.00379906
0.574156 0.5 -0.6375 0.00379449
0.350249 0.5 -0.7875 0.00376793
0.350249 0.5 0.7875 0.00377221
0.756813 0.5 -0.4125 0.00383978
0.756814 0.5 0.4125 0.00384451
0.075776 0.5 -0.8625 0.00375304
0.075776 0.5 0.8625 0.00375419
0.624316 0.5 0.6 0.00380899
0.624316 0.5 -0.6 0.00380406
0.872064 0.5 4.32235e-17 0.00389361
0.288069 0.5 0.825 0.00376771
0.288069 0.5 -0.825 0.00376385
0.67013 0.5 0.5625 0.00381877
0.67013 0.5 -0.5625 0.00381369
0.872064 0.5 0.075 0.00389416
0.872064 0.5 -0.075 0.0038923
0.835106 0.5 0.2625 0.00387583
0.835106 0.5 -0.2625 0.00387112
0.797732 0.5 0.375 0.00385944
0.797732 0.5 -0.375 0.00385388
0.872064 0.5 0.15 0.0038939
0.872064 0.5 -0.15 0.00389029
0.715434 0.5 0.525 0.00383108
0.715434 0.5 -0.525 0.00382532
0.219992 0.5 0.8625 0.00376285
0.219993 0.5 -0.8625 0.00375959
0 0.5 -0.893821 0.00375
0 0.5 0.893821 0.00375
0.0124865 0.5 0.893821 0.00375069
0.0124865 0.5 -0.893821 0.0037505
0 0.5 0.9 0.00375
0 0.5 -0.9 0.00375
0.756813 0.5 0.4875 0.00384325
0.756813 0.5 -0.4875 0.00383707
0.872064 0.5 0.225 0.00389287
0.872064 0.5 -0.225 0.00388756
0.835106 0.5 0.3375 0.00387418
0.835106 0.5 -0.3375 0.00386808
0 0.5 0.906179 0.00375
0 0.5 -0.906179 0.00375
0.0124865 0.5 0.906179 0.0037507
0.0124865 0.5 -0.906179 0.00375051
0.90582 0.5 -0.0375 0.0039088
0.905821 0.5 0.0375 0.00390997
0.151149 0.5 0.9 0.00375873
0.90582 0.5 0.1125 0.0039102
0.90582 0.5 -0.1125 0.00390678
0.151149 0.5 -0.901373 0.00375652
0.523432 0.5 0.75 0.00379171
0.523432 0.5 -0.75 0.00378617
0.574157 0.5 0.7125 0.00379906
0.574156 0.5 -0.7125 0.00379341
0.797732 0.5 0.45 0.00385777
0.797732 0.5 -0.45 0.00385066
0.467897 0.5 0.7875 0.00378418
0.467897 0.5 -0.7875 0.00377896
0.624316 0.5 0.675 0.00380865
0.624316 0.5 -0.675 0.00380251
0.411736 0.5 0.825 0.00377853
0.411736 0.5 -0.825 0.0037735
0.872064 0.5 0.3 0.00389119
0.872064 0.5 -0.3 0.00388416
0.67013 0.5 0.6375 0.00381813
0.67013 0.5 -0.6375 0.00381171
0.90582 0.5 0.1875 0.00390947
0.90582 0.5 -0.1875 0.003904
0.350249 0.5 -0.8625 0.00376798
0.350249 0.5 0.8625 0.00377262
0.835106 0.5 0.4125 0.00387214
0.835106 0.5 -0.4125 0.00386441
0.715434 0.5 0.6 0.00383003
0.715434 0.5 -0.6 0.00382279
0.939201 0.5 4.40909e-17 0.00392582
0.075776 0.5 -0.9375 0.00375312
0.075776 0.5 0.9375 0.00375423
0.939201 0.5 0.075 0.00392675
0.939201 0.5 -0.075 0.00392393
0.756814 0.5 0.5625 0.00384184
0.756814 0.5 -0.5625 0.00383405
0.905821 0.5 0.2625 0.00390788
0.905821 0.5 -0.2625 0.00390034
0.288069 0.5 0.9 0.003768
0.288069 0.5 -0.901373 0.00376398
0.872064 0.5 0.375 0.00388897
0.872064 0.5 -0.375 0.00388014
0.939201 0.5 -0.15 0.00392117
0.939201 0.5 0.15 0.00392666
0.797732 0.5 0.525 0.00385596
0.797732 0.5 -0.525 0.00384708
0.219993 0.5 -0.9375 0.00375976
0.219992 0.5 0.9375 0.00376305
0.939201 0.5 0.225 0.00392552
0.939201 0.5 -0.225 0.00391747
0.90582 0.5 0.3375 0.00390561
0.90582 0.5 -0.3375 0.00389599
0.835106 0.5 -0.4875 0.00386033
0.835107 0.5 0.4875 0.00386999
0 0.5 0.968821 0.00375
0 0.5 -0.968821 0.00375
0.0124865 0.5 0.968821 0.0037507
0.0124865 0.5 -0.968821 0.00375051
0.969689 0.5 0.0375 0.00394253
0.969689 0.5 -0.0375 0.00394084
0.574156 0.5 0.7875 0.00379893
0.574156 0.5 -0.7875 0.0037922
0 0.5 0.975 0.00375
0 0.5 -0.975 0.00375
0.624316 0.5 0.75 0.00380821
0.624316 0.5 -0.75 0.00380081
0.969689 0.5 0.1125 0.00394316
0.96969 0.5 -0.1125 0.0039382
0.523432 0.5 0.825 0.00379175
0.523432 0.5 -0.825 0.0037853
0.67013 0.5 0.7125 0.00381738
0.67013 0.5 -0.7125 0.00380955
0 0.5 -0.981179 0.00375
0 0.5 0.981179 0.00375
0.467897 0.5 0.8625 0.00378439
0.467897 0.5 -0.8625 0.00377846
0.0124865 0.5 0.981179 0.0037507
0.0124865 0.5 -0.981179 0.00375052
0.872064 0.5 0.45 0.0038864
0.872064 0.5 -0.45 0.00387556
0.715434 0.5 0.675 0.00382885
0.715434 0.5 -0.675 0.00382005
0.939201 0.5 0.3 0.00392338
0.939201 0.5 -0.3 0.0039128
0.151149 0.5 0.975 0.00375882
0.151149 0.5 -0.975 0.00375658
0.969689 0.5 0.1875 0.00394266
0.969689 0.5 -0.1875 0.00393462
0.756814 0.5 0.6375 0.00384028
0.756814 0.5 -0.6375 0.00383077
0.411736 0.5 0.9 0.00377876
0.411736 0.5 -0.901373 0.00377324
0.90582 0.5 0.4125 0.00390275
0.90582 0.5 -0.4125 0.00389101
0.797732 0.5 0.6 0.00385394
0.797732 0.5 -0.6 0.00384319
1.00005 0.5 1.48897e-17 0.00395656
0.350249 0.5 -0.9375 0.00376792
0.350249 0.5 0.9375 0.00377287
1.00005 0.5 0.0749309 0.00395792
1.00005 0.5 -0.0749309 0.00395417
0.969689 0.5 0.2625 0.00394092
0.969689 0.5 -0.2625 0.00392989
0.835106 0.5 0.5625 0.0038676
0.835106 0.5 -0.5625 0.00385587
1.00005 0.5 0.149862 0.00395817
1.00005 0.5 -0.149862 0.00395078
0.939201 0.5 0.375 0.00392041
0.939201 0.5 -0.375 0.00390729
0.075776 0.5 1.0125 0.00375424
0.075776 0.5 -1.0125 0.00375316
0.288069 0.5 0.975 0.00376816
0.288069 0.5 -0.975 0.00376395
0.872064 0.5 0.525 0.00388358
0.872064 0.5 -0.525 0.00387049
1.00005 0.5 0.224793 0.00395722
1.00005 0.5 -0.224793 0.00394629
0.96969 0.5 0.3375 0.00393798
0.96969 0.5 -0.3375 0.00392399
1.0271 0.5 0.0368226 0.00397389
1.0271 0.5 -0.0368226 0.00397177
0.90582 0.5 0.4875 0.00389953
0.90582 0.5 -0.4875 0.00388546
1.0271 0.5 0.110468 0.00397491
1.0271 0.5 -0.110468 0.00396862
0.67013 0.5 -0.7875 0.00380724
0.67013 0.5 0.7875 0.00381651
0.624316 0.5 0.825 0.00380764
0.624316 0.5 -0.825 0.00379897
0.219992 0.5 -1.0125 0.00375985
0.219993 0.5 1.0125 0.00376314
0.574156 0.5 0.8625 0.00379867
0.574156 0.5 -0.8625 0.00379086
0.715434 0.5 0.75 0.00382755
0.715434 0.5 -0.75 0.00381715
0.756813 0.5 -0.7125 0.0038273
0.756814 0.5 0.7125 0.00383857
0.523432 0.5 0.9 0.00379165
0.939201 0.5 0.45 0.00391682
0.939201 0.5 -0.45 0.00390105
1.04168 0.5 0 0.00398121
0.523432 0.5 -0.901373 0.00378432
1.0271 0.5 0.184113 0.00397481
1.0271 0.5 -0.184113 0.00396443
0 0.5 1.04382 0.00375
0 0.5 -1.04382 0.00375
0.0124865 0.5 1.04382 0.0037507
0.0124865 0.5 -1.04382 0.00375052
1.00005 0.5 0.299723 0.00395497
1.00005 0.5 -0.299723 0.00394059
1.04168 0.5 0.0729162 0.00398289
1.04168 0.5 -0.0729162 0.00397844
0.797732 0.5 0.675 0.00385174
0.797732 0.5 -0.675 0.00383905
0.467897 0.5 -0.9375 0.00377784
0.467897 0.5 0.9375 0.00378445
0 0.5 1.05 0.00375
0 0.5 -1.05 0.00375
0.835106 0.5 0.6375 0.00386495
0.835106 0.5 -0.6375 0.00385112
1.04168 0.5 0.145832 0.00398347
1.04168 0.5 -0.145832 0.00397463
0.969689 0.5 -0.4125 0.00391724
0.96969 0.5 0.4125 0.00393418
0 0.5 1.05618 0.00375
0 0.5 -1.05618 0.00375
0.0124865 0.5 1.05618 0.00375069
0.0124865 0.5 -1.05618 0.00375052
1.05695 0.5 -0.0360764 0.00398845
1.05695 0.5 0.0360764 0.00399082
0.411736 0.5 0.975 0.00377883
0.411736 0.5 -0.975 0.0037728
0.872064 0.5 0.6 0.00388049
0.872064 0.5 -0.6 0.00386501
1.0271 0.5 0.257759 0.0039734
1.0271 0.5 -0.257759 0.00395901
0.151149 0.5 -1.05 0.00375662
0.151149 0.5 1.05 0.00375882
1.05695 0.5 0.108229 0.00399206
1.05695 0.5 -0.108229 0.00398503
1.04168 0.5 0.218749 0.00398285
1.04168 0.5 -0.218749 0.00396967
0.90582 0.5 0.5625 0.00389604
0.90582 0.5 -0.5625 0.00387935
1.00005 0.5 0.374654 0.00395159
1.00005 0.5 -0.374654 0.00393385
0.350249 0.5 1.0125 0.00377296
0.350249 0.5 -1.0125 0.00376775
1.05695 0.5 0.180382 0.00399221
1.05695 0.5 -0.180382 0.00398053
0.939201 0.5 0.525 0.00391285
0.939201 0.5 -0.525 0.00389425
1.0271 0.5 -0.331404 0.00395237
1.0271 0.5 0.331404 0.00397065
1.08112 0.5 3.20924e-17 0.00400447
1.04168 0.5 0.291665 0.00398089
1.04168 0.5 -0.291665 0.00396347
1.08112 0.5 0.0709442 0.00400647
1.08112 0.5 -0.0709442 0.00400134
0.96969 0.5 0.4875 0.00392974
0.96969 0.5 -0.4875 0.00390962
1.05695 0.5 0.252535 0.00399107
1.05695 0.5 -0.252535 0.00397477
0.288069 0.5 1.05 0.00376819
0.288069 0.5 -1.05 0.00376385
0.075776 0.5 -1.0875 0.00375317
0.075776 0.5 1.0875 0.0037542
1.08112 0.5 0.141888 0.00400737
1.08112 0.5 -0.141888 0.00399712
0.715434 0.5 0.825 0.00382612
0.715434 0.5 -0.825 0.00381412
0.756814 0.5 0.7875 0.00383674
0.756814 0.5 -0.7875 0.00382368
0.67013 0.5 0.8625 0.00381552
0.67013 0.5 -0.8625 0.00380482
0.797732 0.5 0.75 0.0038494
0.797732 0.5 -0.75 0.00383474
0.624316 0.5 0.9 0.00380693
1.00005 0.5 0.449585 0.00394733
1.00005 0.5 -0.449585 0.00392618
0.624316 0.5 -0.901373 0.003797
0.835106 0.5 0.7125 0.00386212
0.835106 0.5 -0.7125 0.00384615
0.574156 0.5 -0.9375 0.0037894
0.574156 0.5 0.9375 0.00379826
1.10076 0.5 0.0349809 0.00401808
1.10076 0.5 -0.0349809 0.00401531
1.08112 0.5 0.212832 0.00400709
1.08112 0.5 -0.212832 0.0039917
0.872064 0.5 0.675 0.00387716
0.872064 0.5 -0.675 0.00385925
1.04168 0.5 -0.364581 0.0039562
1.04168 0.5 0.364581 0.00397765
1.0271 0.5 -0.405049 0.0039448
1.0271 0.5 0.405049 0.0039668
1.05695 0.5 0.324688 0.00398854
1.05695 0.5 -0.324688 0.0039678
1.10076 0.5 -0.104943 0.00401145
1.10076 0.5 0.104943 0.00401966
0.523432 0.5 0.975 0.00379137
0.523432 0.5 -0.975 0.0037832
0.90582 0.5 0.6375 0.00389229
0.90582 0.5 -0.6375 0.00387281
0.219992 0.5 1.0875 0.0037631
0.219992 0.5 -1.0875 0.00375985
1.11376 0.5 1.15648e-18 0.00402504
0.939201 0.5 0.6 0.00390851
0.939201 0.5 -0.6 0.00388708
1.10076 0.5 0.174905 0.00402018
1.10076 0.5 -0.174905 0.00400644
0.467897 0.5 -1.0125 0.00377709
0.467897 0.5 1.0125 0.00378432
1.11376 0.5 0.0693118 0.00402733
1.11376 0.5 -0.0693118 0.00402158
1.08112 0.5 0.283777 0.00400547
1.08112 0.5 -0.285603 0.00398463
0 0.5 -1.11882 0.00375
0 0.5 1.11882 0.00375
0.0124865 0.5 1.11882 0.00375069
0.0124865 0.5 -1.11882 0.00375052
0.969689 0.5 0.5625 0.00392504
0.969689 0.5 -0.5625 0.00390175
1.11376 0.5 0.138624 0.00402849
1.11376 0.5 -0.138624 0.00401699
0 0.5 1.125 0.00375
0 0.5 -1.125 0.00375
1.10076 0.5 0.244866 0.00401946
1.10076 0.5 -0.244866 0.00400016
0.411736 0.5 -1.05 0.00377227
0.411736 0.5 1.05 0.00377873
1.05695 0.5 -0.396841 0.00395872
1.05695 0.5 0.396841 0.0039848
1.00005 0.5 0.524516 0.0039424
1.00005 0.5 -0.525427 0.00391759
1.04168 0.5 -0.437497 0.00394794
1.04168 0.5 0.437497 0.00397335
0 0.5 1.13118 0.00375
0 0.5 -1.13118 0.00375
0.0124865 0.5 -1.13118 0.00375052
0.0124865 0.5 1.13118 0.00375068
1.11376 0.5 0.207935 0.00402851
1.0271 0.5 -0.478694 0.00393622
1.0271 0.5 0.478694 0.00396201
1.11376 0.5 -0.213207 0.00401117
1.07791 0.5 -0.354722 0.00397523
0.151149 0.5 1.125 0.00375874
0.151149 0.5 -1.125 0.0037566
1.08112 0.5 0.354722 0.00400251
1.13882 0.5 0.0340295 0.00404305
1.13882 0.5 -0.0340295 0.00403989
0.350249 0.5 1.0875 0.00377291
0.350249 0.5 -1.0875 0.00376746
1.13882 0.5 0.102088 0.00404497
1.13882 0.5 -0.102088 0.00403559
1.10076 0.5 0.314829 0.00401732
1.10076 0.5 -0.314829 0.00399269
0.756813 0.5 -0.8625 0.00381996
0.756814 0.5 0.8625 0.00383477
0.797732 0.5 0.825 0.00384692
0.797732 0.5 -0.825 0.00383032
1.11376 0.5 -0.277247 0.00400446
1.11376 0.5 0.277247 0.0040272
0.835106 0.5 0.7875 0.00385915
0.835106 0.5 -0.7875 0.00384103
0.715434 0.5 0.9 0.00382458
0.872064 0.5 0.75 0.0038736
0.872064 0.5 -0.75 0.00385333
0.715434 0.5 -0.901373 0.00381094
1.13882 0.5 -0.170147 0.00403008
1.13882 0.5 0.170147 0.0040458
0.67013 0.5 -0.9375 0.00380229
0.67013 0.5 0.9375 0.0038144
0.90582 0.5 0.7125 0.00388824
0.90582 0.5 -0.7125 0.00386609
1.05695 0.5 -0.468994 0.00394928
1.05695 0.5 0.468994 0.00398003
0.939201 0.5 0.675 0.00390386
0.939201 0.5 -0.675 0.00387966
0.624316 0.5 0.975 0.00380608
0.624316 0.5 -0.975 0.00379496
1.04168 0.5 -0.510414 0.00393887
1.04168 0.5 0.510414 0.00396812
0.969689 0.5 0.6375 0.00391969
0.969689 0.5 -0.6375 0.00389368
0.288069 0.5 1.125 0.00376807
0.288069 0.5 -1.125 0.00376365
1.16179 0.5 1.04083e-17 0.00405766
1.08112 0.5 -0.425666 0.00396865
1.08112 0.5 0.425666 0.00399836
1.13882 0.5 -0.238206 0.00402172
1.13882 0.5 0.238206 0.00404543
1.16179 0.5 0.0669104 0.00406045
1.16179 0.5 -0.0669104 0.00405363
0.574156 0.5 -1.0125 0.00378783
0.574156 0.5 1.0125 0.00379769
0.998291 0.5 -0.599796 0.0039079
0.075776 0.5 -1.1625 0.00375317
0.075776 0.5 1.1625 0.00375412
1.00005 0.5 0.599447 0.00393679
1.10076 0.5 -0.384791 0.0039843
1.10076 0.5 0.384791 0.00401384
1.0271 0.5 0.55234 0.00395637
1.0271 0.5 -0.55234 0.00393079
1.11376 0.5 -0.346559 0.00399604
1.11376 0.5 0.346559 0.0040245
1.16179 0.5 0.133821 0.00406204
1.16179 0.5 -0.133821 0.00404809
0.523432 0.5 -1.05 0.00378197
0.523432 0.5 1.05 0.00379094
1.17463 0.5 0.0331343 0.0040678
1.17463 0.5 -0.0331343 0.00406422
1.15837 0.5 -0.200731 0.00404002
1.17463 0.5 0.0994029 0.00407005
1.17463 0.5 -0.0994029 0.00405948
1.16179 0.5 0.200074 0.00406224
1.13882 0.5 -0.306265 0.00401537
1.13882 0.5 0.306265 0.00404366
0.219992 0.5 1.1625 0.00376293
0.219992 0.5 -1.1625 0.00375977
0.467897 0.5 -1.0875 0.00377622
0.467897 0.5 1.0875 0.00378404
1.17463 0.5 0.165672 0.00407116
1.17463 0.5 -0.165672 0.00405349
1.05695 0.5 0.541147 0.00397435
1.05695 0.5 -0.541147 0.00394144
1.18772 0.5 -1.15648e-18 0.00407532
1.11376 0.5 -0.41587 0.00398698
1.11376 0.5 0.41587 0.00402052
1.18772 0.5 0.0655187 0.00407838
1.08112 0.5 0.49661 0.00399318
1.08112 0.5 -0.49661 0.00395915
1.18772 0.5 -0.0699161 0.00407099
1.10076 0.5 -0.454752 0.00397488
1.10076 0.5 0.454752 0.00400921
1.16179 0.5 0.267642 0.00406091
1.16179 0.5 -0.267642 0.00403424
0 0.5 1.19382 0.00375
0 0.5 -1.19382 0.00375
0.0124865 0.5 -1.19382 0.00375052
0.0124865 0.5 1.19382 0.00375068
1.04168 0.5 -0.58333 0.00392929
1.04168 0.5 0.58333 0.00396199
1.18772 0.5 0.131228 0.00407982
1.18772 0.5 -0.131228 0.00406576
1.17463 0.5 0.23194 0.00407114
1.17463 0.5 -0.23194 0.00404621
0.411736 0.5 1.125 0.0037785
0.411736 0.5 -1.125 0.00377163
1.13882 0.5 0.374324 0.00404049
1.13882 0.5 -0.374324 0.0040065
0 0.5 1.2 0.00375
0 0.5 -1.2 0.00375
0.90582 0.5 0.7875 0.00388389
0.90582 0.5 -0.7875 0.00385932
0.872064 0.5 0.825 0.00386983
0.872064 0.5 -0.825 0.00384735
0.835106 0.5 -0.8625 0.00383587
0.835106 0.5 0.8625 0.00385605
1.18534 0.5 0.196842 0.00407926
0.939201 0.5 0.75 0.00389905
0.939201 0.5 -0.75 0.00387207
0.797732 0.5 0.9 0.00384433
1.0271 0.5 -0.625985 0.00391742
1.0271 0.5 0.625985 0.00394984
0.969689 0.5 0.7125 0.00391428
0.96969 0.5 -0.7125 0.00388535
0.797732 0.5 -0.901373 0.00382575
1.18772 0.5 -0.196842 0.00405879
0.756813 0.5 -0.9375 0.00381619
0.756813 0.5 0.9375 0.00383271
0.998291 0.5 -0.67477 0.00389896
1.15863 0.5 0.334552 0.0040571
0 0.5 1.20618 0.00375
0 0.5 -1.20618 0.00375
1.00005 0.5 0.674378 0.00393076
0.0124865 0.5 -1.20618 0.00375052
0.0124865 0.5 1.20618 0.00375066
1.16179 0.5 -0.334552 0.0040255
0.715434 0.5 0.975 0.00382291
0.715434 0.5 -0.975 0.0038078
0.151149 0.5 1.2 0.00375858
0.151149 0.5 -1.2 0.00375653
1.20942 0.5 -0.0322645 0.00408885
1.20942 0.5 0.0322645 0.00409287
1.18534 0.5 0.249669 0.00407891
1.17463 0.5 0.298209 0.00406971
1.17463 0.5 -0.298209 0.00403777
1.20942 0.5 0.0967935 0.00409548
1.20942 0.5 -0.0967935 0.00408364
0.350249 0.5 1.1625 0.00377271
0.350249 0.5 -1.1625 0.00376706
0.67013 0.5 1.0125 0.00381314
0.67013 0.5 -1.0125 0.00379969
1.11376 0.5 -0.485183 0.00397715
1.11376 0.5 0.485183 0.00401544
1.18772 0.5 -0.262456 0.00405072
1.10076 0.5 -0.524714 0.00396492
1.10076 0.5 0.524714 0.0040036
1.20942 0.5 0.161322 0.00409761
1.20942 0.5 -0.161322 0.00407778
1.08112 0.5 -0.567554 0.00394916
1.08112 0.5 0.567554 0.00398703
0.624316 0.5 1.05 0.00380507
0.624316 0.5 -1.05 0.00379283
1.13882 0.5 0.442383 0.00403605
1.13882 0.5 -0.442383 0.00399666
1.05695 0.5 -0.6133 0.00393146
1.05695 0.5 0.6133 0.00396771
1.15863 0.5 0.401463 0.00405344
1.16179 0.5 -0.401463 0.00401581
0.574156 0.5 1.0875 0.00379694
0.574157 0.5 -1.0875 0.00378616
1.17463 0.5 0.364477 0.00406683
1.17463 0.5 -0.364477 0.0040284
1.20942 0.5 0.225851 0.00409788
1.20942 0.5 -0.225851 0.00406996
1.23036 0.5 -1.38778e-17 0.00410825
1.04168 0.5 -0.656246 0.00391926
1.04168 0.5 0.656246 0.00395517
1.23036 0.5 -0.0634819 0.00410286
1.23036 0.5 0.0634819 0.00411187
1.18772 0.5 0.32807 0.00407842
1.18772 0.5 -0.32807 0.00404161
0.288069 0.5 1.2 0.0037678
0.288069 0.5 -1.2 0.00376336
1.23036 0.5 0.126964 0.00411414
1.23036 0.5 -0.126964 0.00409705
0.075776 0.5 -1.2375 0.00375314
0.075776 0.5 1.2375 0.00375401
0.523432 0.5 1.125 0.00379038
0.523432 0.5 -1.125 0.00378065
1.0271 0.5 -0.69963 0.00390751
1.0271 0.5 0.69963 0.00394314
1.24274 0.5 -0.0314313 0.00411541
1.24274 0.5 0.0314313 0.00411991
1.20942 0.5 0.29038 0.00409679
1.20942 0.5 -0.29038 0.00406097
1.11376 0.5 -0.554494 0.00396684
1.11376 0.5 0.554494 0.00400936
1.23036 0.5 0.190445 0.00411519
1.23036 0.5 -0.190445 0.00408949
1.24274 0.5 0.0942942 0.00412294
1.24274 0.5 -0.0942942 0.00410966
1.13882 0.5 -0.510442 0.00398633
1.13882 0.5 0.510442 0.00403053
0.998291 0.5 -0.749744 0.00388984
0.969689 0.5 0.7875 0.00390889
0.969689 0.5 -0.7875 0.00387689
1.00005 0.5 0.749309 0.00392474
1.15863 0.5 0.468373 0.00404855
0.939201 0.5 0.825 0.00389399
0.939201 0.5 -0.825 0.00386444
1.2484 0.5 -0.0653061 0.00411753
0.90582 0.5 0.8625 0.0038793
0.90582 0.5 -0.8625 0.00385251
1.17463 0.5 -0.430746 0.00401809
1.17463 0.5 0.430746 0.00406258
1.10076 0.5 -0.594676 0.00395452
1.10076 0.5 0.594676 0.00399698
1.18772 0.5 0.393684 0.00407495
1.18772 0.5 -0.393684 0.00403157
1.24274 0.5 -0.157157 0.00410258
1.24274 0.5 0.157157 0.00412468
1.16179 0.5 -0.468373 0.00400543
0.467897 0.5 -1.1625 0.00377526
0.467897 0.5 1.1625 0.00378367
0.872064 0.5 0.9 0.00386596
1.25401 0.5 0 0.00412633
0.872064 0.5 -0.901373 0.00384121
1.24906 0.5 -0.125094 0.00411163
0.835106 0.5 0.9375 0.00385286
0.835106 0.5 -0.9375 0.00383069
1.25401 0.5 0.0622994 0.00413026
1.08112 0.5 -0.638498 0.00393861
1.08112 0.5 0.638498 0.00397999
1.23036 0.5 0.253927 0.00411499
1.23036 0.5 -0.253927 0.00408069
0.219992 0.5 1.2375 0.00376264
0.219992 0.5 -1.2375 0.00375961
1.05695 0.5 -0.685452 0.00392092
1.05695 0.5 0.685452 0.00396049
0.797732 0.5 0.975 0.00384164
0.797732 0.5 -0.975 0.00382136
1.25401 0.5 0.124599 0.00413278
1.20942 0.5 0.354909 0.00409421
1.20942 0.5 -0.354909 0.00405104
1.24274 0.5 0.220019 0.00412523
1.24274 0.5 -0.220019 0.00409417
1.24906 0.5 -0.187641 0.00410375
0.756813 0.5 -1.0125 0.00381239
0.756813 0.5 1.0125 0.00383054
1.25401 0.5 0.186898 0.00413403
0.411736 0.5 1.2 0.0037781
0.411736 0.5 -1.2 0.0037709
0 0.5 1.26882 0.00375
0 0.5 -1.26882 0.00375
0.0124865 0.5 -1.26882 0.00375052
0.0124865 0.5 1.26882 0.00375066
0.715434 0.5 -1.05 0.00380457
0.715434 0.5 1.05 0.00382111
1.23036 0.5 0.31741 0.00411337
1.23036 0.5 -0.31741 0.00407084
1.04168 0.5 -0.729162 0.00390887
1.04168 0.5 0.729162 0.00394816
1.18772 0.5 -0.459298 0.00402088
1.18772 0.5 0.459298 0.00407016
1.24274 0.5 0.282882 0.00412445
1.24274 0.5 -0.282882 0.00408459
0 0.5 1.275 0.00375
0 0.5 -1.275 0.00375
1.27472 0.5 -0.0306319 0.00414201
1.27472 0.5 0.0306319 0.00414702
1.17463 0.5 -0.497015 0.00400737
1.17463 0.5 0.497015 0.00405715
1.15837 0.5 0.534151 0.00404285
1.11376 0.5 0.62266 0.00400203
1.11376 0.5 -0.623806 0.00395598
1.13882 0.5 -0.578501 0.00397553
1.13882 0.5 0.578501 0.00402154
0.67013 0.5 1.0875 0.00381172
0.67013 0.5 -1.0875 0.00379704
1.27472 0.5 -0.0918959 0.00413488
1.27472 0.5 0.0918959 0.00415051
1.25401 0.5 -0.249197 0.00409675
1.25401 0.5 0.249197 0.00413402
1.16179 0.5 -0.535284 0.00399461
1.20942 0.5 0.419438 0.00409019
1.20942 0.5 -0.419438 0.00404024
0 0.5 1.28118 0.00375
0 0.5 -1.28118 0.00375
0.0124865 0.5 1.28118 0.00375064
0.0124865 0.5 -1.28118 0.00375051
1.27472 0.5 0.15316 0.0041526