# kMean  POINT_DATA 91132
# x  y  z  kMean
0 0 0 0.00546843
0 0.00368111 0 0.00375
0 0.00749587 0 0.00375
0 0.0114491 0 0.00375
0 0.0155459 0 0.00375
0 0.0197915 0 0.00375
0 0.0241911 0 0.00375
0 0.0287506 0 0.00375
0 0.0334755 0 0.00375
0 0.038372 0 0.00375
0 0.0434463 0 0.00375
0 0.0487048 0 0.00375
0 0.0541543 0 0.00375
0 0.0598016 0 0.00375
0 0.0656539 0 0.00375
0 0.0717187 0 0.00375
0.075776 0.00184056 0 0.00933813
0.075776 0.00558849 3.46945e-18 0.00330403
0.075776 0.00947249 0 0.00302368
0.075776 0.0134975 0 0.00340676
0.075776 0.0176687 0 0.00357668
0 0.0780037 0 0.00375
0.075776 0.0219913 0 0.00364382
0.075776 0.0264709 -3.46945e-18 0.00367798
0.075776 0.031113 3.46945e-18 0.00369761
0.075776 0.0359238 0 0.00371005
0 0.0845169 0 0.00375
0.075776 0.0409091 0 0.00371853
0.075776 0.0460755 0 0.00372461
0 0.0912666 0 0.00375
0.075776 0.0514296 0 0.00372914
0.075776 0.0569779 0 0.00373263
0 0.0982613 0 0.00375
0.075776 0.0627277 -3.46945e-18 0.00373537
0.075776 0.0686863 0 0.00373759
0 0.10551 0 0.00375
0.075776 0.0748612 0 0.00373947
0.075776 0.0812603 0 0.00374108
0 0.113022 0 0.00375
0.075776 0.0878918 0 0.00374246
0 0.120806 0 0.00375
0.075776 0.0947639 0 0.00374363
0.075776 0.101886 -3.46945e-18 0.00374463
0 0.128874 0 0.00375
0.075776 0.109266 0 0.00374546
0 0.137234 0 0.00375
0.075776 0.116914 0 0.00374617
0 0.145897 0 0.00375
0.075776 0.12484 0 0.00374677
0.151552 0 0 0.0057749
0.151552 0.00368111 0 0.00408827
0.151552 0.00749587 0 0.00255119
0.151552 0.0114491 0 0.0029476
0.151552 0.0155459 0 0.00330744
0.151552 0.0197915 0 0.00347398
0.075776 0.133054 -3.46945e-18 0.00374728
0.151552 0.0241911 0 0.00355928
0.151552 0.0287506 0 0.00361147
0 0.154876 0 0.00375
0.151552 0.0334755 0 0.00364555
0.151552 0.038372 0 0.00366887
0.151552 0.0434463 0 0.00368546
0.151552 0.0487048 0 0.00369768
0.075776 0.141565 0 0.00374772
0.151552 0.0541543 0 0.00370696
0.151552 0.0598016 0 0.00371418
0 0.16418 0 0.00375
0.151552 0.0656539 0 0.00371993
0.151552 0.0717187 0 0.0037246
0.075776 0.150387 -3.46945e-18 0.00374813
0.151552 0.0780037 0 0.00372846
0.151552 0.0845169 0 0.0037317
0 0.173822 0 0.00375
0.075776 0.159528 -3.46945e-18 0.00374852
0.151552 0.0912666 0 0.00373442
0.151552 0.0982613 0 0.00373672
0 0.183814 0 0.00375
0.151552 0.10551 0 0.00373867
0.075776 0.169001 0 0.00374889
0.151552 0.113022 0 0.00374034
0.151552 0.120806 0 0.00374177
0 0.194169 0 0.00375
0.075776 0.178818 3.46945e-18 0.00374926
0.151552 0.128874 0 0.00374301
0.075776 0.188991 0 0.00374963
0.151552 0.137234 0 0.00374408
0 0.2049 0 0.00375
0.151552 0.145897 0 0.00374503
0.075776 0.199534 0 0.00374999
0 0.21602 0 0.00375
0.151552 0.154876 0 0.00374588
0.219992 0.00184055 0 0.0024859
0.219992 0.00558849 -3.46945e-18 0.00156845
0.219992 0.00947248 3.46945e-18 0.00240284
0.219992 0.0134975 -3.46945e-18 0.00299831
0.219992 0.0176687 3.46945e-18 0.00327637
0.219992 0.0219913 3.46945e-18 0.00342004
0.219993 0.0264709 0 0.00351091
0.219992 0.031113 -3.46945e-18 0.00357113
0.219992 0.0359237 3.46945e-18 0.00361236
0.151552 0.16418 0 0.00374666
0.075776 0.21046 3.46945e-18 0.00375036
0.219992 0.0409092 0 0.0036415
0.219992 0.0460755 0 0.00366275
0.219993 0.0514296 0 0.00367872
0.219992 0.0569779 0 0.00369103
0 0.227544 0 0.00375
0.219992 0.0627277 0 0.00370075
0.219992 0.0686863 -3.46945e-18 0.00370855
0.151552 0.173822 0 0.00374737
0.219992 0.0748612 3.46945e-18 0.00371493
0.075776 0.221782 0 0.0037507
0.219992 0.0812603 0 0.0037202
0.219992 0.0878917 0 0.0037246
0.151552 0.183814 0 0.00374803
7.47806e-17 0.239487 0 0.00375
0.219993 0.0947639 0 0.0037283
0.219992 0.101886 0 0.00373145
0.075776 0.233515 3.46945e-18 0.00375102
0.219993 0.109266 0 0.00373413
0.151552 0.194169 0 0.00374864
0.219992 0.116914 3.46945e-18 0.00373644
0 0.251863 0 0.00375
0.219992 0.12484 -3.46945e-18 0.00373843
0.151552 0.2049 0 0.00374922
0.075776 0.245675 0 0.00375129
0.219992 0.133054 0 0.00374017
0.219992 0.141566 0 0.00374169
0.151552 0.21602 0 0.00374977
0 0.264688 0 0.00375
0.219993 0.150387 0 0.00374303
0.075776 0.258275 3.46945e-18 0.00375152
0.219992 0.159528 0 0.00374423
0.151552 0.227544 0 0.00375029
0.219993 0.169001 -3.46945e-18 0.0037453
0 0.27798 0 0.00375
0.075776 0.271334 0 0.00375168
0.151552 0.239487 3.70071e-18 0.00375076
0.219992 0.178818 0 0.00374627
0.288433 0 0 0.00168513
0.288433 0.00368111 0 0.00147277
0.288433 0.00749587 0 0.00180211
0.288433 0.0114491 0 0.00265634
0.288433 0.0155459 0 0.00310678
0.288433 0.0197915 0 0.00330632
0.288433 0.0241911 0 0.00340982
0.288433 0.0287506 0 0.0034839
0.219993 0.188991 0 0.00374716
0.288433 0.0334755 0 0.00354042
0.288433 0.038372 0 0.00358306
0.288433 0.0434463 0 0.00361533
7.47806e-17 0.291753 0 0.00375
0.288433 0.0487048 0 0.00364006
0.288433 0.0541543 0 0.00365932
0.151552 0.251863 0 0.00375118
0.288433 0.0598016 0 0.00367456
0.075776 0.284867 0 0.00375176
0.288433 0.0656539 0 0.00368681
0.219992 0.199534 0 0.00374797
0.288433 0.0717187 0 0.00369678
0.288433 0.0780037 0 0.00370498
0.288433 0.0845169 0 0.00371178
0.288433 0.0912666 0 0.00371746
0.219992 0.21046 0 0.00374872
0.288433 0.0982613 0 0.00372232
0.151552 0.264688 3.70071e-18 0.00375155
0 0.306027 0 0.00375
0.288433 0.10551 0 0.0037266
0.075776 0.29889 -3.46945e-18 0.00375177
0.288433 0.113022 0 0.00373038
0.219992 0.221782 0 0.00374943
0.288433 0.120806 0 0.00373369
0.288433 0.128874 0 0.0037366
0.151552 0.27798 0 0.00375186
0.288433 0.137234 0 0.00373917
0 0.320819 0 0.00375
0.219993 0.233515 0 0.00375009
0.075776 0.313423 3.46945e-18 0.00375173
0.288433 0.145897 0 0.00374143
0.288433 0.154876 0 0.00374343
0.151552 0.291753 0 0.00375211
0.219993 0.245675 0 0.0037507
0.288433 0.16418 0 0.00374519
0 0.336148 0 0.00375
0.288433 0.173822 0 0.00374674
0.075776 0.328484 0 0.00375166
0.219992 0.258275 0 0.00375126
0.151552 0.306027 0 0.0037523
0.288433 0.183814 0 0.00374809
0.288433 0.194169 0 0.00374927
0.219993 0.271334 0 0.00375177
0.350249 0.00184056 0 0.000943254
0.350249 0.00558849 3.46945e-18 0.000974981
0.350249 0.00947248 0 0.00228916
0.350249 0.0134975 3.46945e-18 0.00294156
0.350249 0.0176687 -3.46945e-18 0.00321537
0.350249 0.0219913 0 0.00331967
0.350249 0.0264709 -3.46945e-18 0.00339686
0.350249 0.031113 0 0.00346511
0 0.352034 0 0.00375
0.350249 0.0359238 3.46945e-18 0.00352062
0.075776 0.344091 0 0.00375158
0.350249 0.0409091 3.46945e-18 0.00356422
0.350249 0.0460755 -3.46945e-18 0.00359826
0.288433 0.2049 0 0.00375032
0.350249 0.0514296 0 0.00362502
0.151552 0.320819 0 0.00375245
0.350249 0.0569779 0 0.00364626
0.350249 0.0627277 0 0.00366334
0.350249 0.0686863 0 0.00367722
0.350249 0.0748612 0 0.00368862
0.350249 0.0812603 0 0.00369804
0.219992 0.284867 0 0.00375223
0.288433 0.21602 0 0.00375125
0.350249 0.0878918 0 0.00370585
0.350249 0.0947639 0 0.00371242
0.350249 0.101886 0 0.00371823
0.350249 0.109266 3.46945e-18 0.0037235
0.288433 0.227544 0 0.00375208
0.075776 0.360265 0 0.00375156
0 0.368496 0 0.00375
0.151552 0.336148 0 0.00375257
0.350249 0.116914 -3.46945e-18 0.00372817
0.219992 0.29889 -3.46945e-18 0.00375264
0.370854 0.0241911 -3.08149e-33 0.00337263
0.350249 0.12484 3.46945e-18 0.00373229
0.350249 0.133054 0 0.00373592
0.288433 0.239487 -9.25154e-19 0.00375282
0.350249 0.141565 3.46945e-18 0.00373915
0.350249 0.150387 0 0.00374201
0.288433 0.251863 0 0.0037535
0.219992 0.313423 0 0.00375299
0.151552 0.352034 0 0.00375269
0.075776 0.377026 -3.46945e-18 0.00375162
0.350249 0.159528 0 0.0037445
0 0.385557 0 0.00375
0.350249 0.169001 3.46945e-18 0.00374668
0.288433 0.264688 0 0.00375411
0.350249 0.178818 3.46945e-18 0.00374857
0.219992 0.328484 0 0.0037533
0.350249 0.188991 0 0.00375017
0.151552 0.368496 0 0.00375286
0.288433 0.27798 3.70071e-18 0.00375469
0.075776 0.394396 -3.46945e-18 0.00375172
0.350249 0.199535 3.46945e-18 0.00375155
7.47806e-17 0.403236 0 0.00375
0.219992 0.344091 -3.46945e-18 0.00375358
0.350249 0.21046 3.46945e-18 0.00375274
0.288433 0.291753 0 0.00375524
0.412065 9.08189e-19 3.08149e-33 0.000791114
0.412065 0.00368111 3.08149e-33 0.000864299
0.412065 0.00749587 3.08149e-33 0.00166515
0.412065 0.0114491 0 0.0027227
0.412065 0.0155459 0 0.00315807
0.412065 0.0197915 0 0.00329772
0.412065 0.0241911 -3.08149e-33 0.00335404
0.412065 0.0264709 0 0.00337887
0.412065 0.0287506 0 0.0034037
0.412065 0.0334755 3.08149e-33 0.00345799
0.412065 0.038372 3.08149e-33 0.00350789
0.151552 0.385557 0 0.00375308
0.412065 0.0434463 0 0.00355006
0.350249 0.221782 3.46945e-18 0.00375378
0.412065 0.0487048 0 0.00358457
0.412065 0.0541543 0 0.0036126
0.412065 0.0569779 0 0.003624
0.412065 0.0598016 0 0.0036354
0.412065 0.0656539 3.08149e-33 0.00365402
0.412065 0.0717187 3.08149e-33 0.00366932
0.075776 0.412396 -3.46945e-18 0.00375181
0.412065 0.0780037 -2.31298e-18 0.00368193
0.288433 0.306027 0 0.00375576
0.412065 0.0845169 2.31112e-33 0.00369242
0.350249 0.233515 0 0.00375467
0 0.421557 0 0.00375
0.412065 0.0912666 1.54074e-33 0.00370137
0.219992 0.360265 0 0.00375388
0.412065 0.0982613 0 0.00370931
0.412065 0.10551 0 0.00371651
0.412065 0.113022 -2.31298e-18 0.00372301
0.350249 0.245675 3.46945e-18 0.00375547
0.412065 0.120806 0 0.00372882
0.151552 0.403236 0 0.00375332
0.288433 0.320819 0 0.00375626
0.412065 0.128874 -2.31298e-18 0.00373399
0.412065 0.137234 0 0.00373856
0.350249 0.258275 3.46945e-18 0.00375619
0.219993 0.377026 0 0.0037542
0.412065 0.145897 -2.31298e-18 0.00374259
0.075776 0.43105 -3.46945e-18 0.00375188
0.412065 0.154876 -2.31298e-18 0.00374612
0 0.440544 0 0.00375
0.288433 0.336148 0 0.00375674
0.350249 0.271334 0 0.00375686
0.412065 0.16418 -2.31298e-18 0.00374919
0.412065 0.173822 -2.31298e-18 0.00375183
0.151552 0.421557 0 0.00375356
0.412065 0.183814 -2.31298e-18 0.0037541
0.350249 0.284866 3.46945e-18 0.00375751
0.219992 0.394397 -3.46945e-18 0.00375457
0.288433 0.352034 3.70071e-18 0.00375722
0.412065 0.194169 0 0.00375605
0.075776 0.450382 -3.46945e-18 0.00375192
0.412065 0.2049 -2.31298e-18 0.00375771
0 0.46022 0 0.00375
0.350249 0.29889 -3.46945e-18 0.00375817
0.412065 0.21602 0 0.00375912
0.151552 0.440544 0 0.00375377
0.219993 0.412397 3.46945e-18 0.00375495
0.467897 0.00184056 3.46945e-18 0.000649588
0.467897 0.00558849 3.46945e-18 0.000902598
0.288433 0.368496 0 0.00375769
0.467897 0.00947248 0 0.00248928
0.467897 0.0134975 3.46945e-18 0.00315584
0.467897 0.0176687 0 0.00330841
0.467897 0.0219913 0 0.0033432
0.467897 0.0264709 0 0.00335701
0.467897 0.031113 0 0.00339964
0.467897 0.0359238 3.46945e-18 0.00345143
0.467897 0.038372 0 0.00348054
0.467897 0.0409092 0 0.00350012
0.350249 0.313423 3.46945e-18 0.00375883
0.467897 0.0460756 3.46945e-18 0.00354197
0.467897 0.0514296 0 0.00357682
0.412065 0.227544 -2.31298e-18 0.00376032
0.467897 0.0569779 0 0.00360553
0.467897 0.0627277 3.46945e-18 0.00362917
0.467897 0.0686863 3.46945e-18 0.00364863
0.467897 0.0748612 0 0.00366469
0.467897 0.0812603 0 0.00367795
0.467897 0.0878917 0 0.00368916
0.075776 0.470415 0 0.00375194
0.412065 0.239487 -2.31298e-18 0.00376135
0.467897 0.0947639 -3.46945e-18 0.00369914
0.467897 0.101886 0 0.00370829
0.350249 0.328483 3.46945e-18 0.00375948
0.467897 0.109266 0 0.00371663
0 0.48061 0 0.00375
0.288433 0.385557 0 0.00375819
0.467897 0.116914 -3.46945e-18 0.00372415
0.412065 0.251863 -2.31298e-18 0.00376225
0.219992 0.43105 -3.46945e-18 0.00375533
0.467897 0.12484 0 0.00373088
0.151552 0.46022 0 0.00375397
0.467897 0.133054 0 0.00373687
0.467897 0.141566 0 0.00374215
0.412065 0.264688 -2.31298e-18 0.00376305
0.350249 0.344091 0 0.00376013
0.467897 0.150387 3.46945e-18 0.00374678
0.467897 0.154876 0 0.00375033
0.467897 0.159528 0 0.0037508
0.288433 0.403236 0 0.0037587
0.075776 0.491175 0 0.00375197
0.412065 0.27798 -2.31298e-18 0.00376379
0.467897 0.169001 0 0.00375426
0.467897 0.178818 3.46945e-18 0.00375722
0.219992 0.450382 -3.46945e-18 0.00375569
7.47806e-17 0.501741 0 0.00375
0.350249 0.360265 0 0.00376077
0.151552 0.48061 3.70071e-18 0.00375415
0.467897 0.188992 0 0.00375978
0.412065 0.291753 0 0.0037645
0.467897 0.199534 -3.46945e-18 0.00376196
0.288433 0.421557 0 0.00375922
0.467897 0.21046 0 0.0037638
0.412065 0.306027 0 0.0037652
0.350249 0.377026 -3.46945e-18 0.0037614
0.467897 0.221782 -3.46945e-18 0.00376534
0.075776 0.51269 3.46945e-18 0.003752
0.219992 0.470415 3.46945e-18 0.00375602
0.412065 0.320819 -2.31298e-18 0.00376589
0.467897 0.233515 3.46945e-18 0.00376663
7.47806e-17 0.523639 0 0.00375
0.523729 0 0 0.000569556
0.523729 0.00368111 0 0.000724659
0.523729 0.00749587 0 0.00175471
0.523729 0.0114491 0 0.00299338
0.523729 0.0155459 0 0.00339699
0.523729 0.0197915 3.08149e-33 0.00342125
0.151552 0.501741 0 0.00375432
0.523729 0.0241911 0 0.00339069
0.523729 0.0287506 0 0.00338317
0.523729 0.0334755 0 0.00341047
0.523729 0.038372 -3.08149e-33 0.00345318
0.523729 0.0434463 0 0.00349729
0.523729 0.0487048 0 0.0035372
0.523729 0.0541543 0 0.00357153
0.288433 0.440544 0 0.00375973
0.523729 0.0598016 0 0.00360049
0.350249 0.394397 0 0.00376203
0.523729 0.0656539 0 0.0036247
0.467897 0.245675 0 0.00376774
0.523729 0.0717187 0 0.00364485
0.523729 0.0780037 0 0.00366162
0.523729 0.0845169 0 0.00367583
0.523729 0.0912666 0 0.00368844
0.412065 0.336148 0 0.00376657
0.523729 0.0982613 0 0.00369996
0.523729 0.10551 -2.31298e-18 0.00371049
0.467897 0.258275 0 0.0037687
0.523729 0.113022 0 0.00372005
0.523729 0.120806 -3.08149e-33 0.00372867
0.219992 0.491176 3.46945e-18 0.00375633
0.523729 0.12484 0 0.00373252
0.523729 0.128874 -2.31298e-18 0.00373638
0.075776 0.534986 3.46945e-18 0.00375203
0.467897 0.271334 3.46945e-18 0.00376955
0.350249 0.412396 3.46945e-18 0.00376268
0.523729 0.137234 0 0.00374323
0.412065 0.352034 -2.31298e-18 0.00376725
0.288433 0.46022 0 0.00376023
0.523729 0.145897 0 0.00374927
0.151552 0.523639 0 0.00375449
0.495813 0.227544 -1.54074e-33 0.00377212
0.523729 0.154876 -3.08149e-33 0.00375454
0 0.546332 0 0.00375
0.523729 0.159528 0 0.00375682
0.467897 0.284867 0 0.00377033
0.523729 0.16418 -2.31298e-18 0.00375911
0.523729 0.173822 0 0.00376303
0.412065 0.368496 0 0.00376793
0.523729 0.183814 0 0.00376639
0.467897 0.29889 3.46945e-18 0.00377107
0.350249 0.431051 0 0.00376333
0.219993 0.51269 3.46945e-18 0.00375663
0.523729 0.194169 0 0.00376924
0.288433 0.48061 0 0.00376069
0.523729 0.2049 0 0.00377165
0.467897 0.313423 0 0.00377179
0.075776 0.55809 0 0.00375208
0.412065 0.385557 0 0.00376861
0.523729 0.21602 -3.08149e-33 0.00377366
0.151552 0.546332 0 0.00375465
0 0.569849 0 0.00375
0.350249 0.450382 3.46945e-18 0.00376397
0.467897 0.328483 -3.46945e-18 0.00377251
0.574156 0.00184055 0 0.000494776
0.574156 0.00558849 0 0.000858428
0.574156 0.00947248 3.46945e-18 0.00276087
0.574156 0.0134975 -3.46945e-18 0.00354518
0.574157 0.0176687 3.46945e-18 0.00355693
0.574156 0.0219913 0 0.00346393
0.574156 0.0264708 0 0.00339331
0.574157 0.031113 3.46945e-18 0.00338208
0.574156 0.0359237 3.46945e-18 0.00341072
0.574157 0.0409092 3.46945e-18 0.0034534
0.523729 0.239487 0 0.00377673
0.574156 0.0460755 -3.46945e-18 0.00349679
0.574156 0.0514296 0 0.00353613
0.412065 0.403236 0 0.0037693
0.574157 0.0569779 0 0.00357023
0.574156 0.0627277 0 0.00359923
0.574156 0.0686863 0 0.00362363
0.219992 0.534985 0 0.00375691
0.288433 0.501741 3.70071e-18 0.00376113
0.574156 0.0748612 0 0.00364401
0.574156 0.0812603 3.46945e-18 0.00366109
0.467897 0.344091 0 0.00377322
0.574156 0.0878917 0 0.00367614
0.523729 0.251863 0 0.0037779
0.574156 0.0947639 -3.46945e-18 0.00369006
0.574156 0.101886 3.46945e-18 0.00370283
0.574156 0.109266 -3.46945e-18 0.00371447
0.574156 0.116914 3.46945e-18 0.003725
0.412065 0.416977 1.54074e-33 0.00376983
0.350249 0.470415 0 0.00376459
0.523729 0.264688 0 0.0037789
0.075776 0.582034 0 0.00375213
0.574156 0.12484 3.46945e-18 0.00373449
0.574156 0.133054 0 0.00374296
0.412065 0.421557 3.08149e-33 0.00377001
0.151552 0.569849 0 0.00375482
0.467897 0.360265 -3.46945e-18 0.00377394
0.574156 0.141565 -3.46945e-18 0.00375046
0.523729 0.27798 0 0.00377978
0.574156 0.150386 0 0.00375705
0 0.594219 0 0.00375
0.574157 0.159528 0 0.00376278
0.574156 0.16418 0 0.00376669
0.288433 0.523639 -9.25154e-19 0.00376155
0.574156 0.169001 -3.46945e-18 0.00376773
0.523729 0.291753 0 0.00378057
0.219993 0.558091 3.46945e-18 0.00375719
0.467897 0.377027 -3.46945e-18 0.00377466
0.574156 0.178818 0 0.00377196
0.412065 0.440544 -2.31298e-18 0.00377071
0.350249 0.491175 3.46945e-18 0.00376517
0.574156 0.188992 0 0.00377556
0.523729 0.306027 2.31298e-18 0.0037813
0.574156 0.199534 0 0.00377859
0.574157 0.21046 -3.46945e-18 0.00378112
0.075776 0.606847 0 0.00375219
0.467897 0.394397 0 0.0037754
0.151552 0.594219 0 0.00375499
0.523729 0.320819 0 0.003782
0.574156 0.221782 -3.46945e-18 0.00378321
0.412065 0.46022 -2.31298e-18 0.00377141
0.288433 0.546332 0 0.00376194
0 0.619475 0 0.00375
0.574156 0.233515 3.46945e-18 0.00378494
0.350249 0.51269 0 0.00376572
0.219992 0.582034 3.46945e-18 0.00375747
0.523729 0.336148 0 0.0037827
0.467897 0.412396 -3.46945e-18 0.00377615
0.574156 0.245675 3.46945e-18 0.00378637
0.624584 0 0 0.000439289
0.624584 0.00368111 0 0.000643722
0.624584 0.00749587 0 0.00187247
0.624584 0.0114491 0 0.00334323
0.624584 0.0155459 0 0.00377661
0.624584 0.0197915 0 0.00367221
0.624584 0.0241911 3.08149e-33 0.00351674
0.624584 0.0287506 0 0.00342712
0.624584 0.0334755 0 0.00340489
0.624584 0.038372 0 0.00342443
0.624584 0.0434463 0 0.00346084
0.624584 0.0487048 0 0.00350066
0.624584 0.0541543 0 0.00353814
0.624584 0.0598016 0 0.00357139
0.624584 0.0656539 0 0.00360008
0.624584 0.0717187 0 0.00362441
0.624584 0.0780037 0 0.00364505
0.574157 0.258275 -3.46945e-18 0.00378755
0.624584 0.0845169 0 0.00366312
0.523729 0.352034 0 0.00378338
0.624584 0.0912666 0 0.00367963
0.624584 0.0982613 0 0.00369489
0.412065 0.48061 -2.31298e-18 0.00377208
0.624584 0.10551 0 0.00370888
0.624584 0.113022 -2.31298e-18 0.00372162
0.574156 0.271334 -3.46945e-18 0.00378855
0.624584 0.120806 0 0.00373315
0.467897 0.43105 3.46945e-18 0.00377691
0.075776 0.632561 0 0.00375225
0.624584 0.128874 0 0.00374351
0.151552 0.619475 0 0.00375515
0.288433 0.569849 0 0.00376232
0.350249 0.534985 0 0.00376624
0.624584 0.137234 -2.31298e-18 0.00375275
0.523729 0.368496 0 0.00378408
0.574156 0.284867 0 0.00378941
0.624584 0.145897 0 0.00376091
0.467897 0.440544 0 0.00377886
0.624584 0.154876 0 0.00376806
0.219992 0.606847 0 0.00375774
0 0.645647 0 0.00375
0.624584 0.16418 -3.08149e-33 0.00377427
0.574156 0.29889 3.46945e-18 0.00379018
0.624584 0.173822 0 0.00377961
0.412065 0.501741 -2.31298e-18 0.00377271
0.467897 0.450382 -3.46945e-18 0.00377768
0.523729 0.385557 -3.08149e-33 0.00378478
0.624584 0.183814 0 0.00378417
0.624584 0.194169 0 0.00378801
0.574157 0.313423 -3.46945e-18 0.00379088
0.624584 0.2049 0 0.00379122
0.350249 0.558091 0 0.00376673
0.288433 0.594219 0 0.00376269
0.624584 0.21602 0 0.00379387
0.523729 0.403236 -3.70071e-18 0.00378551
0.574156 0.328483 -3.46945e-18 0.00379156
0.151552 0.645647 0 0.00375532
0.467897 0.470415 0 0.00377843
0.075776 0.659208 0 0.00375232
0.624584 0.227544 0 0.00379606
0.412065 0.523639 -2.31298e-18 0.00377331
0.523729 0.41545 -1.54074e-33 0.003786
0.624584 0.239487 3.70071e-18 0.00379784
0.574156 0.344091 3.46945e-18 0.00379222
0.219992 0.632561 0 0.003758
0.67013 0.00184055 -3.46945e-18 0.000387198
0.67013 0.00558849 -3.46945e-18 0.000838521
0.67013 0.00947248 3.46945e-18 0.00302445
0.67013 0.0134975 -3.46945e-18 0.00401923
0.67013 0.0176687 3.46945e-18 0.00395754
0.67013 0.0219913 0 0.00369067
0.67013 0.0264708 0 0.00350826
0.67013 0.031113 0 0.00341999
0.67013 0.0359237 0 0.00340572
0.67013 0.0409092 3.46945e-18 0.00342881
0.67013 0.0460755 3.46945e-18 0.00346608
0.67013 0.0514296 0 0.00350556
0.523729 0.421557 3.08149e-33 0.00378625
0.67013 0.0569779 0 0.00354248
0 0.67277 0 0.00375
0.67013 0.0627277 -3.46945e-18 0.00357526
0.624584 0.251863 0 0.00379929
0.67013 0.0686863 0 0.00360358
0.67013 0.0748612 0 0.00362759
0.67013 0.0812603 0 0.00364842
0.67013 0.0878918 0 0.0036675
0.67013 0.0947639 0 0.00368525
0.574156 0.360265 3.46945e-18 0.00379288
0.67013 0.101886 0 0.00370161
0.523729 0.431051 0 0.00378663
0.624584 0.264688 0 0.00380047
0.467897 0.491175 3.46945e-18 0.00377915
0.67013 0.109266 3.46945e-18 0.00371659
0.350249 0.582034 0 0.00376719
0.67013 0.116914 0 0.0037302
0.67013 0.12484 0 0.0037425
0.67013 0.133054 0 0.00375352
0.288433 0.619475 0 0.00376304
0.624584 0.27798 2.31298e-18 0.00380145
0.412065 0.546332 -2.31298e-18 0.00377387
0.523729 0.440544 -3.08149e-33 0.003787
0.67013 0.141566 0 0.00376332
0.685312 0.0241911 -7.70372e-34 0.00366624
0.685312 0.0434463 -7.70372e-34 0.0034506
0.67013 0.150386 0 0.00377195
0.574157 0.377027 -3.46945e-18 0.00379356
0.67013 0.159528 -3.46945e-18 0.00377949
0.624584 0.291753 0 0.00380228
0.151552 0.67277 0 0.00375549
0.075776 0.686823 0 0.00375239
0.67013 0.169001 -3.46945e-18 0.003786
0.67013 0.178818 0 0.00379158
0.467897 0.51269 0 0.00377982
0.685312 0.113022 -7.70372e-34 0.00372531
0.219992 0.659208 0 0.00375826
0.624584 0.306027 0 0.003803
0.67013 0.188992 0 0.0037963
0.574157 0.394397 0 0.00379425
0.523729 0.46022 0 0.00378775
0.685312 0.137234 -7.70372e-34 0.00376181
0.67013 0.199535 0 0.00380025
0.350249 0.606847 0 0.00376763
0 0.700877 0 0.00375
0.624584 0.320819 0 0.00380366
0.67013 0.21046 0 0.00380353
0.412065 0.569849 -2.31298e-18 0.00377439
0.67013 0.221782 0 0.00380622
0.574156 0.412396 0 0.00379497
0.288433 0.645647 0 0.00376337
0.624584 0.336148 0 0.00380427
0.67013 0.233516 -3.46945e-18 0.0038084
0.467897 0.534986 0 0.00378046
0.523729 0.48061 0 0.00378849
0.624584 0.344091 0 0.00380457
0.67013 0.245675 0 0.00381016
0.715676 4.54095e-19 0 0.000345423
0.715676 0.00368111 -9.25187e-19 0.000589905
0.715676 0.00749587 -9.25187e-19 0.00199005
0.715676 0.0114491 -9.25187e-19 0.00370544
0.715676 0.0155459 -9.25187e-19 0.00423945
0.715676 0.0197915 -9.25187e-19 0.00404058
0.715676 0.0241911 -9.25187e-19 0.00374099
0.715676 0.0287506 0 0.00354443
0.715676 0.0334755 0 0.00344968
0.715676 0.038372 -9.25187e-19 0.00342804
0.624584 0.352034 3.08149e-33 0.00380487
0.715676 0.0434463 -9.25187e-19 0.00344548
0.151552 0.700877 0 0.00375565
0.715676 0.0487048 0 0.00347819
0.715676 0.0541543 0 0.00351471
0.574156 0.43105 3.46945e-18 0.00379571
0.715676 0.0598016 -9.25187e-19 0.0035498
0.67013 0.258275 3.46945e-18 0.00381158
0.715676 0.0656539 -9.25187e-19 0.00358144
0.715676 0.0717187 -9.25187e-19 0.00360899
0.075776 0.715441 0 0.00375246
0.715676 0.0780037 0 0.00363296
0.715676 0.0845169 0 0.00365469
0.219992 0.686824 0 0.00375852
0.715676 0.0912666 0 0.00367496
0.715676 0.0982613 0 0.00369384
0.67013 0.271334 3.46945e-18 0.00381271
0.350249 0.632561 -3.46945e-18 0.00376805
0.412065 0.594219 -2.31298e-18 0.00377487
0.715676 0.10551 0 0.00371124
0.715676 0.113022 0 0.00372716
0.624584 0.368496 0 0.00380548
0.523729 0.501741 3.70071e-18 0.00378919
0.715676 0.120806 0 0.00374162
0.715676 0.128874 0 0.00375466
0.67013 0.284867 0 0.00381363
0.467897 0.558091 3.46945e-18 0.00378104
0.715676 0.137234 0 0.00376634
0.574156 0.450382 3.46945e-18 0.00379646
0 0.730005 0 0.00375
0.715676 0.145897 0 0.00377669
0.288433 0.67277 0 0.00376369
0.715676 0.154876 0 0.00378579
0.67013 0.29889 -3.46945e-18 0.0038144
0.624584 0.385557 0 0.0038061
0.715676 0.16418 0 0.00379371
0.715676 0.173822 0 0.00380052
0.715676 0.183814 0 0.00380633
0.67013 0.313423 -3.46945e-18 0.00381505
0.523729 0.523639 3.70071e-18 0.00378985
0.715676 0.194169 0 0.00381123
0.574156 0.470415 0 0.00379721
0.624584 0.403236 -3.70071e-18 0.00380674
0.743101 0.0241911 -7.70372e-34 0.00384958
0.412065 0.619475 -2.31298e-18 0.00377533
0.715676 0.2049 0 0.0038153
0.151552 0.730005 0 0.00375581
0.67013 0.328483 0 0.00381564
0.350249 0.659208 0 0.00376844
0.467897 0.582034 0 0.00378159
0.715676 0.21602 0 0.00381866
0.219992 0.715441 0 0.00375876
0.075776 0.745098 0 0.00375253
0.715676 0.227544 0 0.00382138
0.67013 0.344091 0 0.00381619
0.624584 0.421557 0 0.0038074
0.743101 0.128874 -7.70372e-34 0.00375947
0.715676 0.239487 0 0.00382357
0.574156 0.491175 3.46945e-18 0.00379794
0.756814 0.00184056 -3.46945e-18 0.000306008
0.523729 0.546332 0 0.00379046
0.756813 0.00558849 -3.46945e-18 0.000830501
0.756813 0.00947248 -3.46945e-18 0.00326021
0.756813 0.0134975 -3.46945e-18 0.0044972
0.756814 0.0155459 0 0.0044782
0.756814 0.0176687 0 0.0044555
0.756814 0.0219913 3.46945e-18 0.00403418
0.756814 0.0264709 3.46945e-18 0.00371488
0.756813 0.0311131 3.46945e-18 0.00352553
0.756813 0.0359238 -3.46945e-18 0.0034433
0.288433 0.700877 0 0.003764
0.756813 0.0409092 -3.46945e-18 0.00343311
0.756813 0.0460755 0 0.00345415
0.756813 0.0514296 0 0.00348781
0.715676 0.251863 0 0.0038253
0.756814 0.0569779 0 0.00352403
0.756814 0.0627277 0 0.00355846
0.756814 0.0686863 0 0.00358935
0 0.76019 0 0.00375
0.756813 0.0748612 0 0.00361618
0.67013 0.360265 -3.46945e-18 0.00381673
0.756814 0.0812603 0 0.00364024
0.756814 0.0878917 0 0.00366296
0.756813 0.0947639 -3.46945e-18 0.0036843
0.715676 0.264688 0 0.00382667
0.756814 0.101886 -3.46945e-18 0.00370414
0.624584 0.440544 0 0.00380809
0.756814 0.109266 0 0.00372238
0.756814 0.116914 0 0.00373904
0.412065 0.645647 0 0.00377574
0.467897 0.606847 -3.46945e-18 0.00378208
0.756814 0.120806 0 0.00374749
0.756813 0.12484 3.46945e-18 0.00375415
0.715676 0.27798 -9.25187e-19 0.00382775
0.756813 0.133054 -3.46945e-18 0.00376775
0.67013 0.377027 0 0.00381727
0.756814 0.137234 0 0.00377476
0.574157 0.51269 3.46945e-18 0.00379862
0.756813 0.141566 3.46945e-18 0.00377988
0.685312 0.352034 -7.70372e-34 0.00382218
0.743101 0.2049 -7.70372e-34 0.00382449
0.350249 0.686824 0 0.00376881
0.756813 0.150386 -3.46945e-18 0.0037906
0.756814 0.154876 0 0.00379629
0.715676 0.291753 3.70074e-18 0.00382861
0.756814 0.159528 3.46945e-18 0.00379999
0.523729 0.569849 0 0.00379101
0.72743 0.264688 0 0.00383093
0.756814 0.16418 0 0.00380508
0.151552 0.76019 3.70071e-18 0.00375597
0.756813 0.169001 -3.46945e-18 0.00380812
0.624584 0.46022 0 0.00380878
0.219993 0.745098 0 0.003759
0.67013 0.394396 -3.46945e-18 0.00381784
0.756813 0.178818 -3.46945e-18 0.00381509
0.715676 0.306027 -9.25187e-19 0.00382929
0.075776 0.775831 0 0.00375261
0.756814 0.188992 0 0.00382099
0.756814 0.199535 0 0.00382593
0.715676 0.320819 0 0.00382987
0.574156 0.534986 3.46945e-18 0.00379926
0.288433 0.730005 0 0.00376429
0.756814 0.21046 3.46945e-18 0.00383
0.467897 0.632561 0 0.00378254
0.67013 0.412396 -3.46945e-18 0.00381843
0.624584 0.48061 -3.08149e-33 0.00380947
0.756814 0.221782 0 0.00383332
0.412065 0.67277 -2.31298e-18 0.00377613
0.715676 0.336148 0 0.00383037
0 0.791472 0 0.00375
0.756813 0.233515 3.46945e-18 0.00383599
0.523729 0.594219 0 0.00379151
0.624584 0.487654 1.54074e-33 0.00380969
0.756814 0.245675 0 0.00383811
0.350249 0.715441 3.46945e-18 0.00376915
0.67013 0.43105 3.46945e-18 0.00381906
0.715676 0.352034 -9.25187e-19 0.00383084
0.797951 9.08189e-19 0 0.000273974
0.797951 0.00368111 2.31298e-18 0.000548714
0.797951 0.00749587 2.31298e-18 0.00208702
0.797951 0.0114491 2.31298e-18 0.00402893
0.797951 0.0141803 7.70372e-34 0.00448761
0.797951 0.0155459 0 0.00471694
0.797951 0.0169611 7.70372e-34 0.00464331
0.797951 0.0197915 -3.08149e-33 0.00449604
0.797951 0.0219913 0 0.00428139
0.797951 0.0241911 3.08149e-33 0.00406675
0.797951 0.0264709 0 0.00390367
0.797951 0.0287506 -3.08149e-33 0.0037406
0.797951 0.0334755 2.31298e-18 0.00355037
0.797951 0.038372 2.31298e-18 0.00346892
0.797951 0.0434463 2.31298e-18 0.0034544
0.797951 0.0487048 2.31298e-18 0.00347223
0.756814 0.258275 -3.46945e-18 0.00383976
0.797951 0.0541543 2.31298e-18 0.0035028
0.797951 0.0598016 2.31298e-18 0.00353668
0.797951 0.0656539 2.31298e-18 0.00356932
0.574156 0.55809 3.46945e-18 0.00379983
0.624584 0.501741 3.70071e-18 0.00381013
0.797951 0.0717187 2.31298e-18 0.00359892
0.797951 0.0780037 2.31298e-18 0.00362561
0.797951 0.0845169 0 0.00365052
0.797951 0.0912666 0 0.00367416
0.797951 0.0982613 -3.08149e-33 0.00369638
0.756814 0.271334 3.46945e-18 0.00384103
0.797951 0.10551 0 0.00371703
0.715676 0.368496 -9.25187e-19 0.00383129
0.151552 0.791472 3.70071e-18 0.00375612
0.797951 0.113022 0 0.00373602
0.219992 0.775831 3.46945e-18 0.00375923
0.797951 0.118211 7.70372e-34 0.00374758
0.770526 0.239487 -3.08149e-33 0.0038431
0.797951 0.120806 0 0.00375336
0.67013 0.450382 -3.46945e-18 0.0038197
0.797951 0.128874 3.08149e-33 0.00376907
0.467897 0.659208 0 0.00378295
0.756814 0.284867 -3.46945e-18 0.00384201
0.743101 0.320819 -7.70372e-34 0.0038398
0.797951 0.137234 0 0.00378318
0.797951 0.141566 0 0.00378946
0.797951 0.145897 0 0.00379573
0.523729 0.619475 0 0.00379195
0.075776 0.807681 -3.46945e-18 0.00375268
0.797951 0.150387 0 0.00380127
0.797951 0.154876 9.25187e-19 0.0038068
0.715676 0.385557 0 0.00383176
0.412065 0.700877 -2.31298e-18 0.00377648
0.288433 0.76019 0 0.00376456
0.756814 0.29889 0 0.00384276
0.797951 0.16418 0 0.00381646
0.624584 0.523639 3.70071e-18 0.00381074
0.797951 0.167394 7.70372e-34 0.00381923
0.797951 0.173822 0 0.00382479
0.574156 0.582034 0 0.00380034
0.67013 0.470415 0 0.00382034
0.797951 0.183814 -3.08149e-33 0.0038319
0.756814 0.313423 0 0.00384335
0.797951 0.194169 0 0.00383789
0.715676 0.403236 3.70074e-18 0.00383225
0.151552 0.807681 0 0.0037562
0.797951 0.197746 -7.70372e-34 0.00383955
0.350249 0.745097 0 0.00376947
0.797951 0.2049 3.08149e-33 0.00384287
0 0.823889 0 0.00375
0.756813 0.328483 3.46945e-18 0.00384382
0.797951 0.21046 0 0.00384491
0.797951 0.21602 -3.08149e-33 0.00384695
0.797951 0.223703 7.70372e-34 0.00384915
0.797951 0.227544 0 0.00385025
0.624584 0.546332 0 0.0038113
0.715676 0.421557 -9.25187e-19 0.00383276
0.67013 0.491175 3.46945e-18 0.00382098
0.797951 0.231525 7.70372e-34 0.00385112
0.467897 0.686823 0 0.00378331
0.523729 0.645647 0 0.00379235
0.756813 0.344091 0 0.00384423
0.822721 0.120806 7.70372e-34 0.00375813
0.797951 0.239487 -3.08149e-33 0.00385286
0.822721 0.137234 7.70372e-34 0.00378961
0.835106 0.00184055 0 0.000243595
0.835106 0.00558849 0 0.000816793
0.835106 0.00947248 -3.46945e-18 0.00343639
0.835106 0.0134975 -3.46945e-18 0.00490651
0.835106 0.0176687 -3.46945e-18 0.00498375