# kMean  POINT_DATA 63140
# x  y  z  kMean
0 0.1 0 0.00375
0 0.1 -0.0179898 0.00375
0 0.1 0.0179898 0.00375
0.0363518 0.1 -0.0179898 0.00374738
0.0363518 0.1 0.0179898 0.00374746
0 0.1 -0.0570102 0.00375
0 0.1 0.0570102 0.00375
0.0363518 0.1 0.0570102 0.00374746
0.0363518 0.1 -0.0570102 0.00374738
0 0.1 0.075 0.00375
0 0.1 -0.075 0.00375
0.075776 0.1 -0.0375 0.00374428
0.075776 0.1 0.0375 0.00374445
0 0.1 0.0929898 0.00375
0 0.1 -0.0929898 0.00375
0.0363518 0.1 0.0929898 0.00374768
0.0363518 0.1 -0.0929898 0.00374744
0 0.1 0.13201 0.00375
0 0.1 -0.13201 0.00375
0.075776 0.1 0.1125 0.00374489
0.075776 0.1 -0.1125 0.00374441
0.0363518 0.1 0.13201 0.00374768
0.0363518 0.1 -0.13201 0.00374744
0 0.1 0.15 0.00375
0 0.1 -0.15 0.00375
0.150379 0.1 -8.67362e-19 0.00373733
0.150379 0.1 0.0710023 0.00373776
0 0.1 0.16799 0.00375
0 0.1 -0.16799 0.00375
0.150379 0.1 -0.075 0.00373762
0.0363518 0.1 0.16799 0.00374803
0.0363518 0.1 -0.16799 0.00374768
0.075776 0.1 0.1875 0.0037456
0.075776 0.1 -0.1875 0.00374489
0 0.1 0.20701 0.00375
0 0.1 -0.20701 0.00375
0.0363518 0.1 0.20701 0.00374803
0.0363518 0.1 -0.20701 0.00374768
0.150379 0.1 -0.15 0.00373844
0.150379 0.1 0.15 0.00373856
0.219992 0.1 -0.0375 0.00373066
0.219992 0.1 0.0375 0.00373057
0 0.1 0.225 0.00375
0 0.1 -0.225 0.00375
0 0.1 0.24299 0.00375
0 0.1 -0.24299 0.00375
0.0363518 0.1 0.24299 0.00374845
0.0363518 0.1 -0.24299 0.00374798
0.219992 0.1 0.1125 0.00373147
0.219993 0.1 -0.1125 0.00373173
0.150379 0.1 -0.225 0.00373936
0.150379 0.1 0.225 0.00373973
0.075776 0.1 -0.2625 0.00374551
0.075776 0.1 0.2625 0.00374647
0 0.1 -0.28201 0.00375
0 0.1 0.28201 0.00375
0.0363518 0.1 -0.28201 0.00374798
0.0363518 0.1 0.28201 0.00374845
0.287374 0.1 0 0.00372351
0.219992 0.1 -0.1875 0.00373329
0.219993 0.1 0.1875 0.00373289
0.287374 0.1 0.0710023 0.00372368
0.287374 0.1 -0.075 0.00372437
0 0.1 0.3 0.00375
0 0.1 -0.3 0.00375
0 0.1 0.31799 0.00375
0 0.1 -0.31799 0.00375
0.0363518 0.1 0.31799 0.00374888
0.0363518 0.1 -0.31799 0.00374826
0.287374 0.1 0.15 0.00372454
0.287374 0.1 -0.15 0.00372586
0.150379 0.1 -0.3 0.00374017
0.150379 0.1 0.3 0.00374102
0.219993 0.1 -0.2625 0.0037343
0.219993 0.1 0.2625 0.00373453
0.075776 0.1 0.3375 0.00374735
0.075776 0.1 -0.3375 0.00374608
0.350249 0.1 0.0375 0.00371633
0.350249 0.1 -0.0375 0.00371705
0 0.1 -0.35701 0.00375
0 0.1 0.35701 0.00375
0.0363518 0.1 0.35701 0.00374888
0.0363518 0.1 -0.35701 0.00374826
0.287374 0.1 0.225 0.00372605
0.287374 0.1 -0.225 0.00372729
0.350249 0.1 0.1125 0.00371661
0.350249 0.1 -0.1125 0.00371858
0 0.1 0.375 0.00375
0 0.1 -0.375 0.00375
0 0.1 -0.39299 0.00375
0 0.1 0.39299 0.00375
0.0363518 0.1 -0.39299 0.0037485
0.0363518 0.1 0.39299 0.00374923
0.350249 0.1 -0.1875 0.00372037
0.350249 0.1 0.1875 0.00371782
0.219992 0.1 0.3375 0.00373625
0.219993 0.1 -0.3375 0.00373532
0.150379 0.1 0.375 0.00374226
0.150379 0.1 -0.375 0.00374094
0.411108 0.1 0 0.00371118
0.287374 0.1 0.3 0.00372784
0.287374 0.1 -0.3 0.00372842
0.411108 0.1 0.0710023 0.00371078
0.411108 0.1 -0.075 0.00371247
0.075776 0.1 0.4125 0.00374808
0.075776 0.1 -0.4125 0.00374658
0 0.1 0.43201 0.00375
0 0.1 -0.43201 0.00375
0.0363518 0.1 0.43201 0.00374923
0.0363518 0.1 -0.43201 0.0037485
0.411108 0.1 -0.15 0.00371413
0.411108 0.1 0.15 0.00371104
0.350249 0.1 -0.2625 0.00372172
0.350249 0.1 0.2625 0.00371961
0 0.1 0.45 0.00375
0 0.1 -0.45 0.00375
0.219992 0.1 -0.4125 0.00373628
0.219992 0.1 0.4125 0.00373787
0 0.1 0.46799 0.00375
0 0.1 -0.46799 0.00375
0.411108 0.1 0.225 0.00371225
0.411108 0.1 -0.225 0.00371566
0.467897 0.1 -0.0375 0.00370647
0.467897 0.1 0.0375 0.00370526
0.0363518 0.1 0.46799 0.00374952
0.0363518 0.1 -0.46799 0.00374873
0.287374 0.1 0.375 0.00372966
0.287374 0.1 -0.375 0.00372944
0.150379 0.1 0.45 0.00374322
0.150379 0.1 -0.45 0.00374158
0.467897 0.1 0.1125 0.00370483
0.467897 0.1 -0.1125 0.00370814
0.350249 0.1 0.3375 0.00372159
0.350249 0.1 -0.3375 0.00372287
0.075776 0.1 -0.4875 0.00374706
0.075776 0.1 0.4875 0.00374868
0.467897 0.1 0.1875 0.00370534
0.467897 0.1 -0.1875 0.0037098
0 0.1 0.50701 0.00375
0 0.1 -0.50701 0.00375
0.0363518 0.1 -0.50701 0.00374873
0.0363518 0.1 0.50701 0.00374952
0.411108 0.1 0.3 0.00371396
0.411108 0.1 -0.3 0.00371688
0.522865 0.1 -9.1073e-18 0.00370263
0 0.1 0.525 0.00375
0 0.1 -0.525 0.00375
0.522865 0.1 0.0710023 0.00370172
0.522865 0.1 -0.075 0.00370409
0.287374 0.1 0.45 0.00373116
0.287374 0.1 -0.45 0.00373021
0.219992 0.1 -0.4875 0.00373686
0.219992 0.1 0.4875 0.00373871
0.467897 0.1 0.2625 0.00370667
0.467897 0.1 -0.2625 0.00371112
0.350249 0.1 -0.4125 0.00372378
0.350249 0.1 0.4125 0.00372354
0 0.1 0.54299 0.00375
0 0.1 -0.54299 0.00375
0.522865 0.1 -0.15 0.00370563
0.522865 0.1 0.15 0.00370126
0.0363518 0.1 0.54299 0.00374979
0.0363518 0.1 -0.54299 0.00374896
0.150379 0.1 -0.525 0.00374207
0.150379 0.1 0.525 0.00374389
0.411108 0.1 0.375 0.00371587
0.411108 0.1 -0.375 0.00371782
0.075776 0.1 0.5625 0.00374923
0.075776 0.1 -0.5625 0.00374753
0.522865 0.1 0.225 0.00370176
0.522865 0.1 -0.225 0.00370695
0.574156 0.1 0.0375 0.00369872
0.574157 0.1 -0.0375 0.00370018
0.467897 0.1 -0.3375 0.00371217
0.467897 0.1 0.3375 0.00370845
0 0.1 0.58201 0.00375
0 0.1 -0.58201 0.00375
0.0363518 0.1 0.58201 0.00374979
0.0363518 0.1 -0.58201 0.00374896
0.574156 0.1 0.1125 0.00369769
0.574156 0.1 -0.1125 0.00370171
0.287374 0.1 0.525 0.00373219
0.287374 0.1 -0.525 0.00373075
0 0.1 0.6 0.00375
0 0.1 -0.6 0.00375
0.350249 0.1 0.4875 0.00372507
0.350249 0.1 -0.4875 0.00372441
0.522865 0.1 -0.3 0.00370792
0.522865 0.1 0.3 0.00370294
0.219992 0.1 0.5625 0.00373941
0.219992 0.1 -0.5625 0.00373729
0.574156 0.1 0.1875 0.00369737
0.574157 0.1 -0.1875 0.00370302
0.411108 0.1 0.45 0.00371763
0.411108 0.1 -0.45 0.00371847
0 0.1 0.61799 0.00375
0 0.1 -0.61799 0.00375
0.150379 0.1 0.6 0.00374451
0.150379 0.1 -0.6 0.0037426
0.0363518 0.1 -0.61799 0.0037492
0.0363518 0.1 0.61799 0.00375004
0.623413 0.1 0 0.00369839
0.467897 0.1 0.4125 0.00371035
0.467897 0.1 -0.4125 0.00371283
0.623803 0.1 0.0710023 0.00369718
0.623803 0.1 -0.075 0.0036998
0.574156 0.1 0.2625 0.00369786
0.574157 0.1 -0.2625 0.003704
0.623803 0.1 -0.15 0.00370102
0.623803 0.1 0.15 0.00369608
0.075776 0.1 0.6375 0.00374975
0.075776 0.1 -0.6375 0.00374802
0.522865 0.1 -0.375 0.00370852
0.522865 0.1 0.375 0.00370451
0 0.1 0.65701 0.00375
0 0.1 -0.65701 0.00375
0.0363518 0.1 0.65701 0.00375004
0.0363518 0.1 -0.65701 0.0037492
0.350249 0.1 0.5625 0.00372614
0.350249 0.1 -0.5625 0.00372494
0.623803 0.1 0.225 0.00369573
0.623803 0.1 -0.225 0.00370189
0.287374 0.1 0.6 0.00373303
0.287374 0.1 -0.6 0.00373134
0.574156 0.1 0.3375 0.00369901
0.574157 0.1 -0.3375 0.00370457
0.411108 0.1 0.525 0.00371902
0.411108 0.1 -0.525 0.00371895
0.67013 0.1 0.0375 0.00369656
0.67013 0.1 -0.0375 0.003698
0.219993 0.1 0.6375 0.00374011
0.219993 0.1 -0.6375 0.00373802
0 0.1 0.675 0.00375
0 0.1 -0.675 0.00375
0.467897 0.1 0.4875 0.00371203
0.467897 0.1 -0.4875 0.00371325
0.67013 0.1 0.1125 0.00369513
0.67013 0.1 -0.1125 0.00369922
0.522865 0.1 -0.45 0.00370878
0.522865 0.1 0.45 0.00370612
0.150379 0.1 0.675 0.00374512
0.150379 0.1 -0.675 0.0037432
0.623803 0.1 0.3 0.00369607
0.623803 0.1 -0.3 0.00370231
0 0.1 -0.69299 0.00375
0 0.1 0.69299 0.00375
0.0363518 0.1 0.69299 0.00375028
0.0363518 0.1 -0.69299 0.00374943
0.67013 0.1 0.1875 0.00369405
0.67013 0.1 -0.1875 0.00370007
0.574156 0.1 0.4125 0.00370047
0.574157 0.1 -0.4125 0.0037047
0.714619 0.1 4.77049e-18 0.00369815
0.075776 0.1 0.7125 0.00375024
0.075776 0.1 -0.7125 0.00374849
0.714971 0.1 0.0710023 0.00369684
0.714971 0.1 -0.075 0.00369932
0.67013 0.1 0.2625 0.00369362
0.67013 0.1 -0.2625 0.00370044
0.411108 0.1 0.6 0.00372004
0.411108 0.1 -0.6 0.00371943
0.350249 0.1 0.6375 0.00372698
0.350249 0.1 -0.6375 0.00372561
0.623803 0.1 0.375 0.00369695
0.623803 0.1 -0.375 0.00370225
0.714971 0.1 0.15 0.00369528
0.714971 0.1 -0.15 0.00370007
0.467897 0.1 0.5625 0.00371329
0.467897 0.1 -0.5625 0.0037136
0 0.1 0.73201 0.00375
0 0.1 -0.73201 0.00375
0.0363518 0.1 0.73201 0.00375028
0.0363518 0.1 -0.73201 0.00374943
0.287374 0.1 0.675 0.00373379
0.287374 0.1 -0.675 0.00373202
0.522865 0.1 0.525 0.00370747
0.522865 0.1 -0.525 0.00370885
0.219992 0.1 0.7125 0.00374083
0.219992 0.1 -0.7125 0.00373871
0.714971 0.1 -0.225 0.0037003
0.714971 0.1 0.225 0.00369415
0 0.1 0.75 0.00375
0 0.1 -0.75 0.00375
0.67013 0.1 -0.3375 0.00370019
0.67013 0.1 0.3375 0.00369381
0.574157 0.1 0.4875 0.00370189
0.574157 0.1 -0.4875 0.00370454
0.756813 0.1 0.0375 0.00369826
0.756814 0.1 -0.0375 0.00369951
0.150379 0.1 -0.75 0.00374375
0.150379 0.1 0.75 0.0037457
0.756813 0.1 0.1125 0.00369666
0.756814 0.1 -0.1125 0.00370028
0 0.1 0.76799 0.00375
0 0.1 -0.76799 0.00375
0.0363518 0.1 0.76799 0.00375048
0.0363518 0.1 -0.76799 0.00374965
0.623803 0.1 0.45 0.00369804
0.623803 0.1 -0.45 0.00370182
0.714971 0.1 0.3 0.00369354
0.714971 0.1 -0.3 0.00369992
0.756813 0.1 0.1875 0.00369501
0.756813 0.1 -0.1875 0.00370048
0.67013 0.1 -0.4125 0.00369954
0.67013 0.1 0.4125 0.00369452
0.411108 0.1 0.675 0.00372084
0.411108 0.1 -0.675 0.00371992
0.467897 0.1 0.6375 0.00371418
0.467897 0.1 -0.6375 0.00371396
0.075776 0.1 -0.7875 0.00374895
0.075776 0.1 0.7875 0.00375066
0.350249 0.1 -0.7125 0.00372625
0.350249 0.1 0.7125 0.00372775
0.791054 0.1 0.0690034 0.00369947
0.522865 0.1 0.6 0.00370841
0.522865 0.1 -0.6 0.00370885
0.797314 0.1 -3.03577e-18 0.00370139
0.797314 0.1 -0.075 0.00370226
0.756814 0.1 0.2625 0.00369368
0.756814 0.1 -0.2625 0.00369999
0.287374 0.1 -0.75 0.00373264
0.287374 0.1 0.75 0.00373451
0.574156 0.1 0.5625 0.00370294
0.574156 0.1 -0.5625 0.00370423
0 0.1 0.80701 0.00375
0 0.1 -0.80701 0.00375
0.714971 0.1 -0.375 0.00369899
0.714971 0.1 0.375 0.00369347
0.0363518 0.1 0.80701 0.00375048
0.0363518 0.1 -0.80701 0.00374965
0.797314 0.1 0.15 0.00369842
0.797314 0.1 -0.15 0.0037024
0.623803 0.1 0.525 0.00369898
0.623803 0.1 -0.525 0.00370116
0.219992 0.1 -0.7875 0.00373931
0.219992 0.1 0.7875 0.00374151
0 0.1 0.825 0.00375
0 0.1 -0.825 0.00375
0.797314 0.1 0.225 0.00369664
0.797314 0.1 -0.225 0.00370182
0.756813 0.1 -0.3375 0.00369885
0.756814 0.1 0.3375 0.00369285
0.67013 0.1 0.4875 0.00369531
0.67013 0.1 -0.4875 0.00369855
0.835106 0.1 0.0375 0.00370338
0.835106 0.1 -0.0375 0.00370431
0.150379 0.1 -0.825 0.00374425
0.150379 0.1 0.825 0.00374622
0.835106 0.1 0.1125 0.0037018
0.835106 0.1 -0.1125 0.00370452
0 0.1 -0.84299 0.00375
0 0.1 0.84299 0.00375
0.0363518 0.1 -0.84299 0.00374984
0.0363518 0.1 0.84299 0.00375065
0.714971 0.1 -0.45 0.00369764
0.714971 0.1 0.45 0.00369373
0.797314 0.1 0.3 0.0036951
0.797314 0.1 -0.3 0.00370052
0.467897 0.1 0.7125 0.00371489
0.467897 0.1 -0.7125 0.00371426
0.522865 0.1 0.675 0.00370901
0.522865 0.1 -0.675 0.00370881
0.411108 0.1 -0.75 0.00372033
0.411108 0.1 0.75 0.00372155
0.835106 0.1 -0.1875 0.00370395
0.835107 0.1 0.1875 0.00369977
0.574156 0.1 0.6375 0.0037035
0.574156 0.1 -0.6375 0.00370386
0.350249 0.1 -0.7875 0.0037268
0.350249 0.1 0.7875 0.00372849
0.756814 0.1 0.4125 0.0036925
0.756814 0.1 -0.4125 0.00369721
0.623803 0.1 0.6 0.00369954
0.623803 0.1 -0.6 0.00370035
0.075776 0.1 0.8625 0.00375101
0.075776 0.1 -0.8625 0.00374935
0.871687 0.1 -0.00399773 0.00370781
0.287374 0.1 -0.825 0.00373317
0.287374 0.1 0.825 0.00373519
0.871687 0.1 0.075 0.00370673
0.871687 0.1 -0.075 0.00370812
0.67013 0.1 0.5625 0.00369587
0.67013 0.1 -0.5625 0.00369737
0.835106 0.1 0.2625 0.00369767
0.835106 0.1 -0.2625 0.00370251
0.797314 0.1 0.375 0.00369396
0.797314 0.1 -0.375 0.0036986
0 0.1 -0.88201 0.00375
0 0.1 0.88201 0.00375
0.0363518 0.1 0.88201 0.00375065
0.0363518 0.1 -0.88201 0.00374984
0.871687 0.1 0.15 0.00370492
0.871687 0.1 -0.15 0.00370757
0.714971 0.1 0.525 0.003694
0.714971 0.1 -0.525 0.003696
0.219992 0.1 0.8625 0.0037421
0.219993 0.1 -0.8625 0.00373982
0 0.1 0.9 0.00375
0 0.1 -0.9 0.00375
0.756813 0.1 0.4875 0.00369245
0.756814 0.1 -0.4875 0.00369515
0.871687 0.1 0.225 0.00370265
0.871687 0.1 -0.225 0.00370611
0.835106 0.1 0.3375 0.00369582
0.835106 0.1 -0.3375 0.00370041
0.90582 0.1 -0.0375 0.0037118
0.905821 0.1 0.0375 0.00371131
0.150379 0.1 0.9 0.00374665
0.150379 0.1 -0.9 0.00374467
0.90582 0.1 0.1125 0.00370988
0.90582 0.1 -0.1125 0.00371134
0.522865 0.1 -0.75 0.00370872
0.522865 0.1 0.75 0.00370944
0.574156 0.1 0.7125 0.00370377
0.574156 0.1 -0.7125 0.00370347
0.797314 0.1 0.45 0.0036932
0.797314 0.1 -0.45 0.00369616
0.467897 0.1 -0.7875 0.00371444
0.467897 0.1 0.7875 0.00371552
0 0.1 0.91799 0.00375
0 0.1 -0.91799 0.00375
0.0363518 0.1 0.91799 0.00375079
0.0363518 0.1 -0.91799 0.00375001
0.623803 0.1 0.675 0.00369967
0.623803 0.1 -0.675 0.00369947
0.411108 0.1 -0.825 0.00372064
0.411108 0.1 0.825 0.0037222
0.871687 0.1 0.3 0.00370029
0.871687 0.1 -0.3 0.00370382
0.67013 0.1 0.6375 0.00369594
0.67013 0.1 -0.6375 0.00369605
0.90582 0.1 0.1875 0.00370766
0.905821 0.1 -0.1875 0.00370996
0.350249 0.1 0.8625 0.00372918
0.350249 0.1 -0.8625 0.00372726
0.835106 0.1 0.4125 0.00369431
0.835106 0.1 -0.4125 0.00369763
0.714971 0.1 0.6 0.00369394
0.714971 0.1 -0.6 0.00369418
0.93886 0.1 -0.00399773 0.0037168
0.075776 0.1 0.9375 0.0037513
0.075776 0.1 -0.9375 0.0037497
0.93886 0.1 0.075 0.00371612
0.93886 0.1 -0.075 0.00371663
0.756813 0.1 0.5625 0.00369225
0.756814 0.1 -0.5625 0.00369285
0.90582 0.1 0.2625 0.00370496
0.905821 0.1 -0.2625 0.00370752
0.287374 0.1 0.9 0.00373578
0.287374 0.1 -0.9 0.00373361
0.871687 0.1 0.375 0.00369808
0.871687 0.1 -0.375 0.00370077
0.93886 0.1 0.15 0.00371433
0.93886 0.1 -0.15 0.00371538
0.797314 0.1 0.525 0.00369257
0.797314 0.1 -0.525 0.00369336
0 0.1 0.95701 0.00375
0 0.1 -0.95701 0.00375
0.0363518 0.1 0.95701 0.00375079
0.0363518 0.1 -0.95701 0.00375001
0.219992 0.1 0.9375 0.00374257
0.219992 0.1 -0.9375 0.00374025
0.93886 0.1 0.225 0.00371175
0.93886 0.1 -0.225 0.00371304
0.90582 0.1 0.3375 0.00370217
0.905821 0.1 -0.3375 0.00370438
0.835107 0.1 0.4875 0.00369322
0.835107 0.1 -0.4875 0.00369438
0.969689 0.1 0.0375 0.00372191
0.969689 0.1 -0.0375 0.00372193
0.574156 0.1 0.7875 0.00370391
0.574156 0.1 -0.7875 0.00370302
0 0.1 0.975 0.00375
0 0.1 -0.975 0.00375
0.623803 0.1 0.75 0.00369952
0.623803 0.1 -0.75 0.00369855
0.96969 0.1 0.1125 0.00372071
0.96969 0.1 -0.1125 0.00372084
0.522865 0.1 -0.825 0.00370853
0.522865 0.1 0.825 0.00370979
0.67013 0.1 0.7125 0.00369557
0.67013 0.1 -0.7125 0.00369464
0.871687 0.1 0.45 0.00369617
0.871687 0.1 -0.45 0.00369707
0.467897 0.1 0.8625 0.00371607
0.467897 0.1 -0.8625 0.0037145
0.714971 0.1 -0.675 0.00369222
0.714971 0.1 0.675 0.00369342
0.93886 0.1 0.3 0.0037087
0.93886 0.1 -0.3 0.00370968
0.150379 0.1 0.975 0.00374697
0.150379 0.1 -0.975 0.00374502
0.969689 0.1 -0.1875 0.00371876
0.969689 0.1 0.1875 0.00371841
0.411108 0.1 0.9 0.00372278
0.411108 0.1 -0.9 0.00372085
0.756813 0.1 0.6375 0.00369161
0.756813 0.1 -0.6375 0.0036904
0.990306 0.1 3.46945e-18 0.00372263
0 0.1 0.99299 0.00375
0 0.1 -0.99299 0.00375
0.990306 0.1 0.075 0.00372213
0.990306 0.1 -0.075 0.00372201
0.0363518 0.1 0.99299 0.00375089
0.0363518 0.1 -0.99299 0.00375015
0.905821 0.1 0.4125 0.00369953
0.905821 0.1 -0.4125 0.00370024
0.797314 0.1 0.6 0.00369169
0.797314 0.1 -0.6 0.00369032
0.350249 0.1 0.9375 0.00372978
0.350249 0.1 -0.9375 0.00372762
0.990306 0.1 0.15 0.00372041
0.990306 0.1 -0.15 0.00372028
0.969689 0.1 -0.2625 0.00371534
0.969689 0.1 0.2625 0.0037153
0.835106 0.1 0.5625 0.00369208
0.835106 0.1 -0.5625 0.00369082
0.93886 0.1 0.375 0.00370554
0.93886 0.1 -0.375 0.00370532
0.075776 0.1 1.0125 0.0037515
0.075776 0.1 -1.0125 0.00374999
0.990306 0.1 0.225 0.00371766
0.990306 0.1 -0.225 0.00371734
0.287374 0.1 0.975 0.00373625
0.287374 0.1 -0.975 0.00373395
0.871687 0.1 0.525 0.00369444
0.871687 0.1 -0.525 0.00369294
1.02149 0.1 -0.0369628 0.00372731
1.02149 0.1 0.0369628 0.00372889
0.969689 0.1 -0.3375 0.00371091
0.96969 0.1 0.3375 0.00371174
1.02149 0.1 0.110888 0.00372792
1.02149 0.1 -0.110888 0.00372708
0.90582 0.1 0.4875 0.00369715
0.905821 0.1 -0.4875 0.00369563
0 0.1 1.03201 0.00375
0 0.1 -1.03201 0.00375
0.0363518 0.1 1.03201 0.00375089
0.0363518 0.1 -1.03201 0.00375015
0.67013 0.1 0.7875 0.00369495
0.67013 0.1 -0.7875 0.00369327
0.623803 0.1 -0.825 0.0036976
0.623803 0.1 0.825 0.00369924
0.990306 0.1 0.3 0.0037142
0.990306 0.1 -0.3 0.00371314
0.219992 0.1 -1.0125 0.00374058
0.219992 0.1 1.0125 0.00374291
0.574156 0.1 -0.8625 0.0037025
0.574157 0.1 0.8625 0.00370399
0.714971 0.1 0.75 0.00369252
0.714971 0.1 -0.75 0.00369022
1.02149 0.1 0.184814 0.00372572
1.02149 0.1 -0.184814 0.00372447
0.756814 0.1 0.7125 0.0036905
0.756813 0.1 -0.7125 0.0036878
0.522865 0.1 0.9 0.00371009
0.522865 0.1 -0.9 0.00370826
0.93886 0.1 0.45 0.0037025
0.93886 0.1 -0.45 0.0037002
1.04168 0.1 0 0.00373328
1.04168 0.1 0.0729162 0.00373309
1.04168 0.1 -0.0729162 0.00373224
0.797314 0.1 0.675 0.00369036
0.797314 0.1 -0.675 0.00368713
0.467897 0.1 0.9375 0.00371655
0.467897 0.1 -0.9375 0.00371449
0 0.1 1.05 0.00375
0 0.1 -1.05 0.00375
0.835106 0.1 0.6375 0.00369056
0.835106 0.1 -0.6375 0.00368704
1.04168 0.1 0.145832 0.00373159
1.04168 0.1 -0.145832 0.00373003
1.02149 0.1 0.25874 0.00372248
1.02149 0.1 -0.25874 0.00372042
0.969689 0.1 0.4125 0.00370812
0.969689 0.1 -0.4125 0.00370523
0.411108 0.1 0.975 0.00372326
0.411108 0.1 -0.975 0.00372097
0.871687 0.1 0.6 0.00369258
0.871687 0.1 -0.6 0.0036885
1.0579 0.1 -0.0360525 0.00373634
1.0579 0.1 0.0360525 0.0037374
0.990306 0.1 0.375 0.0037104
0.990306 0.1 -0.375 0.00370775
0.150379 0.1 1.05 0.00374719
0.150379 0.1 -1.05 0.00374529
1.0579 0.1 -0.108157 0.00373511
1.0579 0.1 0.108157 0.00373666
1.04168 0.1 0.218749 0.0037289
1.04168 0.1 -0.218749 0.00372649
0.90582 0.1 0.5625 0.00369489
0.905821 0.1 -0.5625 0.0036906
0 0.1 -1.06799 0.00375
0 0.1 1.06799 0.00375
0.0363518 0.1 -1.06799 0.00375026
0.0363518 0.1 1.06799 0.00375095
0.350249 0.1 1.0125 0.00373026
0.350249 0.1 -1.0125 0.00372786
1.0579 0.1 -0.180262 0.00373213
1.0579 0.1 0.180262 0.00373461
1.02149 0.1 0.332665 0.00371849
1.02149 0.1 -0.332665 0.00371506
0.93886 0.1 0.525 0.00369963
0.93886 0.1 -0.525 0.00369466
1.08012 0.1 1.70581e-17 0.00374295
1.04168 0.1 0.291665 0.00372522
1.04168 0.1 -0.291665 0.00372149
1.08012 0.1 0.0709941 0.003743
1.08012 0.1 -0.074001 0.00374159
0.969689 0.1 -0.4875 0.00369921
0.96969 0.1 0.4875 0.0037046
1.0579 0.1 0.252367 0.00373141
1.0579 0.1 -0.252367 0.00372766
0.990306 0.1 -0.45 0.00370159
0.990306 0.1 0.45 0.00370654
0.287374 0.1 -1.05 0.00373418
0.287374 0.1 1.05 0.00373659
1.08012 0.1 0.141988 0.00374171
1.08012 0.1 -0.141988 0.00373917
0.075776 0.1 1.0875 0.00375163
0.075776 0.1 -1.0875 0.00375021
0.714971 0.1 0.825 0.00369139
0.714971 0.1 -0.825 0.00368823
0.756813 0.1 0.7875 0.00368901
0.756813 0.1 -0.7875 0.0036852
0.67013 0.1 0.8625 0.00369428
0.67013 0.1 -0.8625 0.00369184
0.797314 0.1 -0.75 0.00368385
0.797314 0.1 0.75 0.0036886
0.623803 0.1 0.9 0.00369895
0.623803 0.1 -0.9 0.0036966
0.835106 0.1 0.7125 0.00368854
0.835107 0.1 -0.7125 0.00368314
0.574156 0.1 0.9375 0.00370408
0.574156 0.1 -0.9375 0.00370191
1.02149 0.1 -0.406591 0.00370846
1.02149 0.1 0.406591 0.00371416
1.08012 0.1 -0.212982 0.00373522
1.08012 0.1 0.212982 0.00373914
1.10076 0.1 -0.0349809 0.00374798
1.10076 0.1 0.0349809 0.00374883
0.871687 0.1 0.675 0.00369029
0.871687 0.1 -0.675 0.00368388
1.04168 0.1 0.364581 0.0037209
1.04168 0.1 -0.364581 0.00371517
1.10076 0.1 0.104943 0.00374832
1.10076 0.1 -0.104943 0.00374605
0.522865 0.1 0.975 0.00371034
0.522865 0.1 -0.975 0.00370791
1.0579 0.1 0.324472 0.0037273
1.0579 0.1 -0.324472 0.00372171
0 0.1 -1.10701 0.00375
0 0.1 1.10701 0.00375
0.0363518 0.1 1.10701 0.00375095
0.0363518 0.1 -1.10701 0.00375026
0.90582 0.1 0.6375 0.00369238
0.905821 0.1 -0.6375 0.00368528
0.219992 0.1 1.0875 0.00374312
0.219992 0.1 -1.0875 0.00374081
0.93886 0.1 0.6 0.00369665
0.93886 0.1 -0.6 0.00368877
1.10076 0.1 0.174905 0.00374645
1.10076 0.1 -0.174905 0.00374267
0.467897 0.1 1.0125 0.00371692
0.467897 0.1 -1.0125 0.00371439
1.08012 0.1 0.283976 0.00373547
1.08012 0.1 -0.283976 0.00372972
1.11928 0.1 -0.00290737 0.00375376
1.11711 0.1 -0.0710826 0.00375125
0.990306 0.1 0.525 0.0037028
0.990306 0.1 -0.525 0.00369505
0.969689 0.1 0.5625 0.00370131
0.96969 0.1 -0.5625 0.00369276
1.11928 0.1 0.0690357 0.00375402
0 0.1 1.125 0.00375
0 0.1 -1.125 0.00375
1.11807 0.1 -0.138193 0.00374881
0.411108 0.1 -1.05 0.00372098
0.411108 0.1 1.05 0.00372361
1.10076 0.1 -0.244866 0.00373775
1.10076 0.1 0.244866 0.00374333
1.11928 0.1 0.138072 0.00375293
1.02149 0.1 0.480517 0.00370973
1.02149 0.1 -0.480517 0.00370148
1.0579 0.1 -0.396577 0.00371457
1.0579 0.1 0.396577 0.00372263
1.04168 0.1 0.437497 0.00371624
1.04168 0.1 -0.437497 0.00370803
0.150379 0.1 1.125 0.00374731
0.150379 0.1 -1.125 0.00374548
1.08012 0.1 0.354971 0.00373097
1.08012 0.1 -0.354971 0.00372285
1.11807 0.1 -0.207288 0.00374452
1.11928 0.1 0.207107 0.00375051
0.350249 0.1 1.0875 0.00373059
0.350249 0.1 -1.0875 0.003728
0 0.1 1.14299 0.00375
0 0.1 -1.14299 0.00375
0.0363518 0.1 1.14299 0.00375098
0.0363518 0.1 -1.14299 0.00375034
1.14316 0.1 -0.0339211 0.00376018
1.14316 0.1 0.0339211 0.00376152
1.10076 0.1 0.314829 0.00373914
1.10076 0.1 -0.314829 0.00373116
0.797314 0.1 0.825 0.0036865
0.797314 0.1 -0.825 0.00368061
0.756814 0.1 -0.8625 0.0036827
0.756814 0.1 0.8625 0.00368733
1.14316 0.1 -0.101763 0.00375825
1.14316 0.1 0.101763 0.00376125
0.835106 0.1 0.7875 0.00368612
0.835107 0.1 -0.7875 0.00367918
0.714971 0.1 0.9 0.00369023
0.714971 0.1 -0.9 0.00368626
0.871687 0.1 0.75 0.00368752
0.871687 0.1 -0.75 0.00367919
1.11807 0.1 -0.276385 0.0037386
0.67013 0.1 0.9375 0.00369363
0.67013 0.1 -0.9375 0.0036904
0.905821 0.1 0.7125 0.00368931
0.905821 0.1 -0.7125 0.00367983
1.11928 0.1 0.276143 0.0037469
1.14316 0.1 -0.169605 0.0037545
1.14316 0.1 0.169605 0.00375961
0.93886 0.1 0.675 0.00369326
0.93886 0.1 -0.675 0.00368269
1.15704 0.1 0 0.00376538
1.0579 0.1 0.468682 0.00371769
1.0579 0.1 -0.468682 0.00370698
0.623803 0.1 0.975 0.00369867
0.623803 0.1 -0.975 0.00369558
0.990306 0.1 0.6 0.00369891
0.990306 0.1 -0.6 0.00368814
1.15704 0.1 -0.0671479 0.00376369
1.15704 0.1 0.0671479 0.00376583
1.04168 0.1 0.510414 0.00371153
1.04168 0.1 -0.510414 0.0037006
0.969689 0.1 0.6375 0.00369748
0.96969 0.1 -0.6375 0.00368604
1.08012 0.1 0.425965 0.00372594
1.08012 0.1 -0.425965 0.00371514
0.287374 0.1 -1.125 0.00373432
0.287374 0.1 1.125 0.00373679
1.02149 0.1 0.554443 0.00370541
1.02149 0.1 -0.554443 0.0036942
0.574156 0.1 -1.0125 0.00370124
0.574156 0.1 1.0125 0.00370419
1.15704 0.1 -0.134296 0.00376064
1.15704 0.1 0.134296 0.00376492
0.075776 0.1 1.1625 0.00375169
0.075776 0.1 -1.1625 0.00375038
1.10076 0.1 0.384791 0.00373417
1.10076 0.1 -0.384791 0.00372345
1.14316 0.1 -0.237448 0.00374913
1.14316 0.1 0.237448 0.00375668
1.11807 0.1 -0.345481 0.00373129
1.11928 0.1 0.345179 0.0037423
0.522865 0.1 1.05 0.00371052
0.522865 0.1 -1.05 0.00370748
1.15704 0.1 -0.201444 0.00375598
1.15704 0.1 0.201444 0.00376268
1.1744 0.1 -0.0331401 0.0037699
1.1744 0.1 0.0331401 0.00377055
1.1744 0.1 -0.0994202 0.00376757
1.1744 0.1 0.0994202 0.00377091
0 0.1 1.18201 0.00375
0 0.1 -1.18201 0.00375
0.0363518 0.1 1.18201 0.00375098
0.0363518 0.1 -1.18201 0.00375034
0.219992 0.1 1.1625 0.00374321
0.219993 0.1 -1.1625 0.00374094
1.14316 0.1 -0.30529 0.0037421
1.14316 0.1 0.30529 0.00375258
0.467897 0.1 1.0875 0.00371716
0.467897 0.1 -1.0875 0.00371419
1.1744 0.1 -0.1657 0.00376363
1.1744 0.1 0.1657 0.0037694
1.15704 0.1 -0.268592 0.00374964
1.15704 0.1 0.268592 0.00375918
1.0579 0.1 0.540787 0.00371271
1.0579 0.1 -0.540787 0.00369922
1.08012 0.1 0.496959 0.00372067
1.08012 0.1 -0.496959 0.00370717
1.10076 0.1 0.454752 0.00372873
1.10076 0.1 -0.454752 0.00371518
1.11807 0.1 -0.414577 0.00372312
1.11928 0.1 0.414214 0.003737
1.04168 0.1 0.58333 0.00370669
1.04168 0.1 -0.58333 0.00369272
1.19529 0.1 0.0650961 0.00377927
1.1744 0.1 0.231981 0.00376659
1.1744 0.1 -0.231981 0.00375807
0.411108 0.1 1.125 0.00372382
0.411108 0.1 -1.125 0.0037209
1.19808 0.1 3.5851e-17 0.00377936
0.990306 0.1 0.675 0.00369465
0.990306 0.1 -0.675 0.00368103
1.02149 0.1 0.628368 0.0037007
1.02149 0.1 -0.628368 0.00368643
1.19808 0.1 -0.0650961 0.00377745
0 0.1 1.2 0.00375
0 0.1 -1.2 0.00375
0.871687 0.1 -0.825 0.00367461
0.871687 0.1 0.825 0.00368432
0.905821 0.1 -0.7875 0.00367444
0.90582 0.1 0.7875 0.00368575
0.835106 0.1 0.8625 0.00368338
0.835106 0.1 -0.8625 0.00367534
0.93886 0.1 0.75 0.00368944
0.93886 0.1 -0.75 0.0036766
0.797314 0.1 0.9 0.00368428
0.797314 0.1 -0.9 0.0036775
1.14316 0.1 -0.373132 0.00373398
1.14316 0.1 0.373132 0.00374752
0.969689 0.1 0.7125 0.00369338
0.969689 0.1 -0.7125 0.00367928
1.15704 0.1 -0.33574 0.00374192
1.15704 0.1 0.33574 0.00375457
0.756813 0.1 0.9375 0.00368572
0.756814 0.1 -0.9375 0.00368023
1.19808 0.1 0.130192 0.00377919
1.19808 0.1 -0.130192 0.0037741
0.714971 0.1 0.975 0.00368913
0.714971 0.1 -0.975 0.00368438
0.150379 0.1 1.2 0.00374734
0.150379 0.1 -1.2 0.00374559
1.20938 0.1 -0.0322656 0.00378202
1.20938 0.1 0.0322656 0.00378336
1.19808 0.1 0.178844 0.00377726
1.1744 0.1 0.298261 0.00376258
1.1744 0.1 -0.298261 0.00375077
1.20938 0.1 -0.0967968 0.00377945
1.20938 0.1 0.0967968 0.00378338
1.19808 0.1 -0.195288 0.00376912
0.350249 0.1 1.1625 0.00373074
0.350249 0.1 -1.1625 0.00372805
0.67013 0.1 1.0125 0.00369303
0.67013 0.1 -1.0125 0.00368906
0 0.1 1.21799 0.00375
0 0.1 -1.21799 0.00375
1.11807 0.1 -0.483674 0.00371469
0.0363518 0.1 1.21799 0.00375097
0.0363518 0.1 -1.21799 0.00375039
1.11928 0.1 0.48325 0.00373127
1.10076 0.1 -0.524714 0.00370693
1.10076 0.1 0.524714 0.00372308
1.20938 0.1 -0.161328 0.00377523
1.20938 0.1 0.161328 0.00378205
1.08012 0.1 0.567953 0.00371523
1.08012 0.1 -0.567953 0.00369865
0.623803 0.1 1.05 0.00369841
0.623803 0.1 -1.05 0.00369455
1.0579 0.1 -0.612892 0.00369072
1.0579 0.1 0.612892 0.00370747
1.15704 0.1 -0.402888 0.00373332
1.15704 0.1 0.402888 0.0037491
1.14316 0.1 0.440974 0.00374179
1.14316 0.1 -0.440974 0.00372523
1.19808 0.1 -0.260384 0.00376247
1.19808 0.1 0.260384 0.00377395
1.2267 0.1 3.64292e-18 0.00378993
1.2267 0.1 -0.0636649 0.00378781
1.2267 0.1 0.0636649 0.00379074
1.1744 0.1 -0.364541 0.00374246
1.1744 0.1 0.364541 0.0037575
0.574156 0.1 1.0875 0.00370419
0.574156 0.1 -1.0875 0.00370052
1.20938 0.1 -0.225859 0.00376938
1.20938 0.1 0.225859 0.0037794
1.04168 0.1 0.656246 0.00370152
1.04168 0.1 -0.656246 0.00368443
1.22587 0.1 0.12733 0.00378957
1.2267 0.1 -0.12733 0.00378422
0.287374 0.1 -1.2 0.00373437
0.287374 0.1 1.2 0.00373683
1.02149 0.1 0.702294 0.00369574
1.02149 0.1 -0.702294 0.00367853
0.075776 0.1 1.2375 0.00375168
0.075776 0.1 -1.2375 0.00375049
0.522865 0.1 1.125 0.00371057
0.522865 0.1 -1.125 0.00370696
1.2267 0.1 0.190397 0.00378814
1.2267 0.1 -0.190994 0.003779
1.19808 0.1 0.32548 0.00376944
1.19808 0.1 -0.32548 0.00375447
0.990306 0.1 0.75 0.00369007
0.990306 0.1 -0.75 0.00367391
1.24274 0.1 -0.0314313 0.00379498
1.24274 0.1 0.0314313 0.00379655
1.20938 0.1 -0.29039 0.00376182
1.20938 0.1 0.29039 0.00377551
1.24274 0.1 -0.0942942 0.00379207
1.24274 0.1 0.0942942 0.00379677
1.11807 0.1 -0.552769 0.00370559
1.11928 0.1 0.552285 0.00372527
1.15704 0.1 -0.470036 0.00372445
1.15704 0.1 0.470036 0.00374302
0.969689 0.1 0.7875 0.00368884
0.96969 0.1 -0.7875 0.00367255
0.93886 0.1 -0.825 0.00367066
0.93886 0.1 0.825 0.00368516
0.905821 0.1 0.8625 0.00368174
0.905821 0.1 -0.8625 0.00366935
1.1744 0.1 -0.430821 0.00373341
1.1744 0.1 0.430821 0.00375164
1.10076 0.1 0.594676 0.00371722
1.10076 0.1 -0.594676 0.00369749
1.14316 0.1 -0.508816 0.00371644
1.14316 0.1 0.508816 0.00373562
1.24274 0.1 0.157157 0.00379564
1.24274 0.1 -0.157157 0.00378754
1.2267 0.1 0.254158 0.00378508
1.2267 0.1 -0.254659 0.00377213
0.871687 0.1 -0.9 0.00367025
0.871687 0.1 0.9 0.00368091
0.467897 0.1 1.1625 0.00371727
0.467897 0.1 -1.1625 0.00371389
1.08012 0.1 0.638947 0.00370948
1.08012 0.1 -0.638947 0.00368953
1.25511 0.1 1.27213e-17 0.00380166
0.835106 0.1 0.9375 0.00368056
0.835106 0.1 -0.9375 0.00367175
1.25511 0.1 -0.0622446 0.00379921
1.25511 0.1 0.0622446 0.00380273
0.219992 0.1 1.2375 0.00374318
0.219992 0.1 -1.2375 0.003741
0 0.1 -1.25701 0.00375
0 0.1 1.25701 0.00375
0.0363518 0.1 -1.25701 0.00375039
0.0363518 0.1 1.25701 0.00375097
0.797314 0.1 0.975 0.00368212
0.797314 0.1 -0.975 0.00367457
1.19808 0.1 0.389737 0.00376392
1.19808 0.1 -0.390576 0.0037456
1.0579 0.1 -0.684997 0.003682
1.0579 0.1 0.684997 0.0037019
1.20938 0.1 -0.354921 0.00375331
1.20938 0.1 0.354921 0.00377046
1.25511 0.1 0.124489 0.00380242
1.25511 0.1 -0.124489 0.00379525
1.24274 0.1 -0.220019 0.00378138
1.24274 0.1 0.220019 0.00379316
0.756814 0.1 1.0125 0.00368421
0.756814 0.1 -1.0125 0.00367798
1.25305 0.1 0.186734 0.00379951
1.2267 0.1 0.317097 0.00378065
1.2267 0.1 -0.318324 0.00376397
0.411108 0.1 1.2 0.00372384
0.411108 0.1 -1.2 0.00372074
1.25511 0.1 -0.186734 0.00378968
0.714971 0.1 1.05 0.00368812
0.714971 0.1 -1.05 0.00368259
1.04168 0.1 0.729162 0.00369611
1.04168 0.1 -0.729162 0.00367604
1.24274 0.1 -0.282882 0.0037736
1.24274 0.1 0.282882 0.00378939
0 0.1 1.275 0.00375
0 0.1 -1.275 0.00375
1.1744 0.1 -0.497102 0.00372447
1.1744 0.1 0.497102 0.00374522
1.15704 0.1 -0.537184 0.00371476
1.15704 0.1 0.537184 0.00373654
1.2756 0.1 -0.03061 0.00380993
1.2756 0.1 0.03061 0.00381192
0.67013 0.1 1.0875 0.0036925
0.67013 0.1 -1.0875 0.00368769
1.25305 0.1 0.248978 0.00379688
1.2756 0.1 0.09183 0.00381246
1.2756 0.1 -0.09183 0.00380649
1.11807 0.1 -0.621866 0.00369565
1.25511 0.1 -0.248978 0.00378251
1.20938 0.1 0.419453 0.00376449
1.20938 0.1 -0.419453 0.003744
1.11928 0.1 0.621322 0.00371895
1.14316 0.1 -0.576659 0.00370618
1.14316 0.1 0.576659 0.00372917
1.19808 0.1 0.454694 0.00375763
1.19808 0.1 -0.455673 0.00373635
1.02149 0.1 0.776219 0.00369049
1.02149 0.1 -0.776219 0.00367065
0.150379 0.1 1.275 0.00374729
0.150379 0.1 -1.275 0.00374565
1.2267 0.1 0.381603 0.00377512
1.2756 0.1 -0.15305 0.0038015
1.2756 0.1 0.15305 0.00381163
1.2267 0.1 -0.381989 0.00375493
1.10076 0.1 0.664638 0.00371092
1.10076 0.1 -0.664638 0.00368776
0.350249 0.1 1.2375 0.0037307
0.350249 0.1 -1.2375 0.00372801
0.623803 0.1 1.125 0.00369811