# nutMean  POINT_DATA 63831
# x  y  z  nutMean
0 0.5 3.39583e-17 0.0155481
0 0.5 -0.00617931 0.0155901
0 0.5 0.00617931 0.015512
0.0124865 0.5 0.00617931 0.0166057
0.0124865 0.5 -0.00617931 0.0167165
0 0.5 -0.0688207 0.0158873
0 0.5 0.0688207 0.0150799
0.0124865 0.5 0.0688207 0.0161735
0.0124865 0.5 -0.0688207 0.0170138
0 0.5 0.075 0.0150302
0 0.5 -0.075 0.0159043
0 0.5 -0.0811793 0.0159276
0 0.5 0.0811793 0.0149861
0.0124865 0.5 0.0811793 0.0160376
0.0124865 0.5 -0.0811793 0.0170478
0.075776 0.5 0.0375 0.0219223
0.075776 0.5 -0.0375 0.0225829
0.075776 0.5 0.1125 0.0211048
0.075776 0.5 -0.1125 0.0227928
0 0.5 -0.143821 0.0160844
0 0.5 0.143821 0.014495
0.0124865 0.5 0.143821 0.0155466
0.0124865 0.5 -0.143821 0.0172046
0 0.5 0.15 0.0144421
0 0.5 -0.15 0.016092
0.151149 0.5 2.20565e-18 0.0198565
0 0.5 -0.156179 0.0161064
0 0.5 0.156179 0.0143942
0.0124865 0.5 0.156179 0.0153989
0.0124865 0.5 -0.156179 0.0172263
0.151149 0.5 0.075 0.0194011
0.151149 0.5 -0.075 0.0201421
0.075776 0.5 0.1875 0.0202159
0.075776 0.5 -0.1875 0.0229209
0.151149 0.5 0.15 0.0188229
0.151149 0.5 -0.15 0.0202592
0 0.5 -0.218821 0.0161574
0 0.5 0.218821 0.0138867
0.0124865 0.5 0.218821 0.0148913
0.0124865 0.5 -0.218821 0.0172773
0.219992 0.5 0.0375 0.0175211
0.219992 0.5 -0.0375 0.0177219
0 0.5 0.225 0.0138346
0 0.5 -0.225 0.0161528
0 0.5 -0.231179 0.0161552
0 0.5 0.231179 0.0137863
0.0124865 0.5 0.231179 0.0147429
0.0124865 0.5 -0.231179 0.0173034
0.219993 0.5 0.1125 0.017341
0.219993 0.5 -0.1125 0.0178128
0.151149 0.5 0.225 0.0181467
0.151149 0.5 -0.225 0.0203929
0.075776 0.5 0.2625 0.0193228
0.075776 0.5 -0.2625 0.0230823
0.288069 0.5 3.34766e-17 0.0143015
0.219992 0.5 0.1875 0.0168781
0.219992 0.5 -0.1875 0.0178592
0 0.5 0.293821 0.0132955
0 0.5 -0.293821 0.0160366
0.0124865 0.5 -0.293821 0.0171848
0.0124865 0.5 0.293821 0.014252
0.288069 0.5 0.075 0.0142061
0.288069 0.5 -0.075 0.0143821
0 0.5 0.3 0.0132477
0 0.5 -0.3 0.0160102
0 0.5 0.306179 0.0132013
0 0.5 -0.306179 0.0159904
0.0124865 0.5 0.306179 0.0141119
0.0124865 0.5 -0.306179 0.017109
0.288069 0.5 0.15 0.014066
0.288069 0.5 -0.15 0.0144463
0.151149 0.5 0.3 0.0174739
0.151149 0.5 -0.3 0.0203067
0.219992 0.5 0.2625 0.0163889
0.219992 0.5 -0.2625 0.0180599
0.075776 0.5 0.3375 0.0184806
0.075776 0.5 -0.3375 0.0226335
0.350249 0.5 0.0375 0.0111873
0.350249 0.5 -0.0375 0.0111938
0.288069 0.5 0.225 0.0138512
0.288069 0.5 -0.225 0.0145746
0.350249 0.5 0.1125 0.0111813
0.350249 0.5 -0.1125 0.0112264
0 0.5 0.368821 0.0127515
0 0.5 -0.368821 0.0157149
0.0124865 0.5 0.368821 0.0136622
0.0124865 0.5 -0.368821 0.0168336
0 0.5 0.375 0.0127099
0 0.5 -0.375 0.0156803
0 0.5 -0.381179 0.0156506
0 0.5 0.381179 0.0126678
0.0124865 0.5 0.381179 0.0135373
0.0124865 0.5 -0.381179 0.0167338
0.350249 0.5 0.1875 0.0112473
0.350249 0.5 -0.1875 0.0113139
0.219992 0.5 0.3375 0.0158951
0.219992 0.5 -0.3375 0.0177937
0.151149 0.5 0.375 0.0168378
0.151149 0.5 -0.375 0.0199183
0.411736 0.5 1.70099e-17 0.00954798
0.288069 0.5 0.3 0.0136139
0.288069 0.5 -0.3 0.0146206
0.411736 0.5 0.075 0.00955671
0.411736 0.5 -0.075 0.00956572
0.075776 0.5 0.4125 0.0177268
0.075776 0.5 -0.4125 0.0220386
0.350249 0.5 -0.2625 0.011492
0.350249 0.5 0.2625 0.0112412
0.411736 0.5 0.15 0.00959729
0.411736 0.5 -0.15 0.0096242
0 0.5 -0.443821 0.0153013
0 0.5 0.443821 0.0122758
0.0124865 0.5 0.443821 0.0131454
0.0124865 0.5 -0.443821 0.0163845
0 0.5 0.45 0.0122414
0 0.5 -0.45 0.0152626
0 0.5 -0.456179 0.0152261
0 0.5 0.456179 0.012206
0.0124865 0.5 0.456179 0.0130417
0.0124865 0.5 -0.456179 0.0162702
0.219992 0.5 -0.4125 0.0175312
0.219993 0.5 0.4125 0.0154179
0.411736 0.5 0.225 0.00965318
0.411736 0.5 -0.225 0.00973452
0.467897 0.5 0.0375 0.00800474
0.467897 0.5 -0.0375 0.00800012
0.288069 0.5 0.375 0.0133862
0.288069 0.5 -0.375 0.0145359
0.151149 0.5 -0.45 0.0194651
0.151149 0.5 0.45 0.0162648
0.467897 0.5 0.1125 0.00804586
0.467897 0.5 -0.1125 0.00803684
0.350249 0.5 0.3375 0.0112489
0.350249 0.5 -0.3375 0.0115534
0.075776 0.5 -0.4875 0.0213559
0.075776 0.5 0.4875 0.01709
0.467897 0.5 0.1875 0.00810583
0.467897 0.5 -0.1875 0.00811413
0.411736 0.5 0.3 0.0097059
0.411736 0.5 -0.3 0.00985835
0 0.5 -0.518821 0.0148426
0 0.5 0.518821 0.0118783
0.0124865 0.5 0.518821 0.0127139
0.0124865 0.5 -0.518821 0.0158867
0.523432 0.5 3.75966e-17 0.00705886
0 0.5 0.525 0.0118496
0 0.5 -0.525 0.0148042
0.523432 0.5 0.075 0.00707966
0.523432 0.5 -0.075 0.00707634
0 0.5 -0.531179 0.0147647
0 0.5 0.531179 0.0118209
0.0124865 0.5 0.531179 0.0126286
0.0124865 0.5 -0.531179 0.0157698
0.288069 0.5 0.45 0.0131773
0.288069 0.5 -0.45 0.0144606
0.219992 0.5 -0.4875 0.0172326
0.219992 0.5 0.4875 0.014977
0.467897 0.5 -0.2625 0.00821514
0.467897 0.5 0.2625 0.00820645
0.350249 0.5 0.4125 0.0112689
0.350249 0.5 -0.4125 0.0116593
0.523432 0.5 0.15 0.00713112
0.523432 0.5 -0.15 0.00713012
0.151149 0.5 0.525 0.0157697
0.151149 0.5 -0.525 0.0189788
0.411736 0.5 0.375 0.00977152
0.411736 0.5 -0.375 0.00998107
0.075776 0.5 0.5625 0.0165644
0.075776 0.5 -0.5625 0.0206586
0.523432 0.5 0.225 0.00721047
0.523432 0.5 -0.225 0.00721159
0.574156 0.5 0.0375 0.00616642
0.574157 0.5 -0.0375 0.00616789
0.467897 0.5 0.3375 0.00830894
0.467897 0.5 -0.3375 0.00836954
0.574156 0.5 0.1125 0.00620559
0.574156 0.5 -0.1125 0.00620407
0 0.5 -0.593821 0.0143893
0 0.5 0.593821 0.0115591
0.0124865 0.5 0.593821 0.0123668
0.0124865 0.5 -0.593821 0.0153944
0.288069 0.5 0.525 0.0129958
0.288069 0.5 -0.525 0.0143904
0 0.5 0.6 0.0115368
0 0.5 -0.6 0.0143554
0.350249 0.5 0.4875 0.0112997
0.350249 0.5 -0.4875 0.0117873
0.523432 0.5 -0.3 0.00733581
0.523432 0.5 0.3 0.00731194
0.219992 0.5 0.5625 0.014588
0.219992 0.5 -0.5625 0.0169375
0.574156 0.5 0.1875 0.00627106
0.574157 0.5 -0.1875 0.00626934
0 0.5 -0.606179 0.0143191
0 0.5 0.606179 0.0115142
0.0124865 0.5 0.606179 0.0123
0.0124865 0.5 -0.606179 0.0152911
0.411736 0.5 0.45 0.00985463
0.411736 0.5 -0.45 0.0101316
0.151149 0.5 0.6 0.0153597
0.151149 0.5 -0.6 0.0185102
0.467897 0.5 0.4125 0.0084351
0.467897 0.5 -0.4125 0.00853411
0.624316 0.5 2.64545e-17 0.00556594
0.624316 0.5 0.075 0.00558136
0.624316 0.5 -0.075 0.00558508
0.574156 0.5 -0.2625 0.00635248
0.574157 0.5 0.2625 0.00636253
0.075776 0.5 0.6375 0.0161587
0.075776 0.5 -0.6375 0.0200264
0.624316 0.5 0.15 0.00562965
0.624316 0.5 -0.15 0.00563364
0.523432 0.5 0.375 0.00743162
0.523432 0.5 -0.375 0.00749629
0.350249 0.5 -0.5625 0.0119436
0.350249 0.5 0.5625 0.0113435
0.624316 0.5 0.225 0.00570386
0.624316 0.5 -0.225 0.00570998
0.288069 0.5 0.6 0.0128487
0.288069 0.5 -0.6 0.0143397
0.574157 0.5 0.3375 0.00647384
0.574157 0.5 -0.3375 0.00651121
0.411736 0.5 0.525 0.00995437
0.411736 0.5 -0.525 0.0103131
0 0.5 -0.668821 0.0139783
0 0.5 0.668821 0.0113184
0.0124865 0.5 0.668821 0.0121041
0.0124865 0.5 -0.668821 0.0149503
0.67013 0.5 0.0375 0.00499232
0.67013 0.5 -0.0375 0.00499805
0.219993 0.5 -0.6375 0.016661
0.219992 0.5 0.6375 0.0142606
0 0.5 0.675 0.0113029
0 0.5 -0.675 0.0139481
0.467897 0.5 -0.4875 0.00873369
0.467897 0.5 0.4875 0.00858376
0.67013 0.5 0.1125 0.00502242
0.67013 0.5 -0.1125 0.00503122
0 0.5 -0.681179 0.0139166
0 0.5 0.681179 0.0112864
0.0124865 0.5 0.681179 0.0120564
0.0124865 0.5 -0.681179 0.014861
0.523432 0.5 0.45 0.0075756
0.523432 0.5 -0.45 0.00767875
0.151149 0.5 0.675 0.015039
0.151149 0.5 -0.675 0.0180906
0.624316 0.5 0.3 0.00580247
0.624316 0.5 -0.3 0.0058263
0.67013 0.5 0.1875 0.00508127
0.67013 0.5 -0.1875 0.00509102
0.574156 0.5 0.4125 0.00661203
0.574156 0.5 -0.4125 0.00667533
0.715434 0.5 3.51282e-17 0.00458649
0.075776 0.5 0.7125 0.0158659
0.075776 0.5 -0.7125 0.0194715
0.715434 0.5 0.075 0.00459617
0.715434 0.5 -0.075 0.00460623
0.67013 0.5 0.2625 0.00516276
0.67013 0.5 -0.2625 0.00518794
0.350249 0.5 -0.6375 0.0121263
0.350249 0.5 0.6375 0.0114014
0.411736 0.5 0.6 0.0100705
0.411736 0.5 -0.6 0.0105268
0.624316 0.5 0.375 0.00592157
0.624316 0.5 -0.375 0.00597657
0.715434 0.5 0.15 0.00463634
0.715434 0.5 -0.15 0.00465175
0.467897 0.5 0.5625 0.00875218
0.467897 0.5 -0.5625 0.00897112
0.288069 0.5 0.675 0.0127399
0.288069 0.5 -0.675 0.0143166
0.523432 0.5 0.525 0.00774238
0.523432 0.5 -0.525 0.007898
0 0.5 -0.743821 0.0136231
0 0.5 0.743821 0.0111546
0.0124865 0.5 -0.743821 0.0145674
0.0124865 0.5 0.743821 0.0119246
0.219992 0.5 0.7125 0.0139993
0.219992 0.5 -0.7125 0.0164233
0.715434 0.5 0.225 0.00470185
0.715434 0.5 -0.225 0.00472742
0 0.5 0.75 0.0111463
0 0.5 -0.75 0.0135976
0.67013 0.5 0.3375 0.00527321
0.67013 0.5 -0.3375 0.00531491
0.574157 0.5 0.4875 0.00677426
0.574157 0.5 -0.4875 0.00687686
0 0.5 -0.756179 0.0135714
0 0.5 0.756179 0.0111361
0.0124865 0.5 0.756179 0.0118974
0.0124865 0.5 -0.756179 0.0144934
0.756813 0.5 0.0375 0.0041927
0.756813 0.5 -0.0375 0.00420069
0.151149 0.5 0.75 0.0148091
0.151149 0.5 -0.75 0.0177368
0.756813 0.5 0.1125 0.00421531
0.756813 0.5 -0.1125 0.00423274
0.624316 0.5 -0.45 0.00615317
0.624316 0.5 0.45 0.00606403
0.715434 0.5 0.3 0.00479156
0.715434 0.5 -0.3 0.00483015
0.756813 0.5 0.1875 0.00426484
0.756813 0.5 -0.1875 0.00428987
0.67013 0.5 -0.4125 0.0054673
0.67013 0.5 0.4125 0.00539023
0.411736 0.5 0.675 0.0102027
0.411736 0.5 -0.675 0.0107719
0.467897 0.5 0.6375 0.00893916
0.467897 0.5 -0.6375 0.0092446
0.075776 0.5 0.7875 0.015691
0.075776 0.5 -0.7875 0.0190154
0.350249 0.5 0.7125 0.0114738
0.350249 0.5 -0.7125 0.012336
0.523432 0.5 0.6 0.00793049
0.523432 0.5 -0.6 0.00815429
0.797732 0.5 3.20924e-17 0.00390802
0.756813 0.5 0.2625 0.00433745
0.756814 0.5 -0.2625 0.00437893
0.797732 0.5 0.075 0.00391407
0.797732 0.5 -0.075 0.00392799
0.288069 0.5 0.75 0.0126721
0.288069 0.5 -0.75 0.0143289
0.574156 0.5 -0.5625 0.0071153
0.574156 0.5 0.5625 0.00696116
0.715434 0.5 0.375 0.00490288
0.715434 0.5 -0.375 0.00496241
0.797732 0.5 0.15 0.00394711
0.797732 0.5 -0.15 0.00397062
0.624316 0.5 0.525 0.00623384
0.624316 0.5 -0.525 0.00636602
0.219992 0.5 0.7875 0.013808
0.219992 0.5 -0.7875 0.0162365
0 0.5 -0.818821 0.0133358
0 0.5 0.818821 0.0110684
0.0124865 0.5 -0.818821 0.0142578
0.0124865 0.5 0.818821 0.0118298
0 0.5 0.825 0.011065
0 0.5 -0.825 0.0133164
0.756813 0.5 -0.3375 0.00447778
0.756813 0.5 0.3375 0.00443234
0.67013 0.5 0.4875 0.00554341
0.67013 0.5 -0.4875 0.0056563
0.797732 0.5 0.225 0.00400423
0.797732 0.5 -0.225 0.00403925
0 0.5 -0.831179 0.0132955
0 0.5 0.831179 0.0110621
0.0124865 0.5 0.831179 0.0118207
0.0124865 0.5 -0.831179 0.0142012
0.835106 0.5 -0.0375 0.00363571
0.835106 0.5 0.0375 0.00362712
0.151149 0.5 0.825 0.0146706
0.151149 0.5 -0.825 0.0174613
0.835106 0.5 0.1125 0.0036454
0.835106 0.5 -0.1125 0.00366696
0.715434 0.5 0.45 0.00503246
0.715434 0.5 -0.45 0.00512893
0.797732 0.5 0.3 0.00408297
0.797732 0.5 -0.3 0.0041302
0.467897 0.5 0.7125 0.00914248
0.467897 0.5 -0.7125 0.00955316
0.523432 0.5 0.675 0.00813796
0.523432 0.5 -0.675 0.00844702
0.411736 0.5 0.75 0.0103504
0.411736 0.5 -0.75 0.0110474
0.835106 0.5 0.1875 0.00368739
0.835106 0.5 -0.1875 0.00371718
0.574156 0.5 0.6375 0.00717019
0.574156 0.5 -0.6375 0.00739107
0.350249 0.5 -0.7875 0.012572
0.350249 0.5 0.7875 0.0115628
0.756813 0.5 -0.4125 0.00462929
0.756814 0.5 0.4125 0.00455548
0.075776 0.5 -0.8625 0.0186706
0.075776 0.5 0.8625 0.0156295
0.624316 0.5 0.6 0.0064273
0.624316 0.5 -0.6 0.0066151
0.872064 0.5 4.32235e-17 0.0034058
0.288069 0.5 0.825 0.0126472
0.288069 0.5 -0.825 0.0143804
0.67013 0.5 0.5625 0.00572084
0.67013 0.5 -0.5625 0.00587949
0.872064 0.5 0.075 0.00340941
0.872064 0.5 -0.075 0.00342628
0.835106 0.5 0.2625 0.00375208
0.835106 0.5 -0.2625 0.0037957
0.797732 0.5 0.375 0.00418571
0.797732 0.5 -0.375 0.00424955
0.872064 0.5 0.15 0.00343689
0.872064 0.5 -0.15 0.00346424
0.715434 0.5 0.525 0.00518642
0.715434 0.5 -0.525 0.00532645
0.219992 0.5 0.8625 0.0136845
0.219993 0.5 -0.8625 0.0161056
0 0.5 -0.893821 0.013121
0 0.5 0.893821 0.0110396
0.0124865 0.5 0.893821 0.0117983
0.0124865 0.5 -0.893821 0.0140267
0 0.5 0.9 0.0110352
0 0.5 -0.9 0.0131089
0.756813 0.5 0.4875 0.00468096
0.756813 0.5 -0.4875 0.00480285
0.872064 0.5 0.225 0.00348631
0.872064 0.5 -0.225 0.00352386
0.835106 0.5 0.3375 0.00383528
0.835106 0.5 -0.3375 0.00389329
0 0.5 0.906179 0.0110337
0 0.5 -0.906179 0.0130935
0.0124865 0.5 0.906179 0.0117849
0.0124865 0.5 -0.906179 0.0139898
0.90582 0.5 -0.0375 0.00319358
0.905821 0.5 0.0375 0.00318371
0.151149 0.5 0.9 0.0145983
0.90582 0.5 0.1125 0.00319842
0.90582 0.5 -0.1125 0.00322575
0.151149 0.5 -0.901373 0.0172554
0.523432 0.5 0.75 0.00836315
0.523432 0.5 -0.75 0.00877536
0.574157 0.5 0.7125 0.00739942
0.574156 0.5 -0.7125 0.007704
0.797732 0.5 0.45 0.00430325
0.797732 0.5 -0.45 0.00440227
0.467897 0.5 0.7875 0.00936063
0.467897 0.5 -0.7875 0.00989507
0.624316 0.5 0.675 0.00664274
0.624316 0.5 -0.675 0.00690109
0.411736 0.5 0.825 0.0105146
0.411736 0.5 -0.825 0.0113523
0.872064 0.5 0.3 0.00355591
0.872064 0.5 -0.3 0.00361071
0.67013 0.5 0.6375 0.0059218
0.67013 0.5 -0.6375 0.00613922
0.90582 0.5 0.1875 0.00323358
0.90582 0.5 -0.1875 0.00326414
0.350249 0.5 -0.8625 0.0128334
0.350249 0.5 0.8625 0.0116722
0.835106 0.5 0.4125 0.00394555
0.835106 0.5 -0.4125 0.00402323
0.715434 0.5 0.6 0.00536744
0.715434 0.5 -0.6 0.00555818
0.939201 0.5 4.40909e-17 0.00307702
0.075776 0.5 -0.9375 0.0184379
0.075776 0.5 0.9375 0.0155884
0.939201 0.5 0.075 0.00308027
0.939201 0.5 -0.075 0.0030979
0.756814 0.5 0.5625 0.00484175
0.756814 0.5 -0.5625 0.005008
0.905821 0.5 0.2625 0.00328972
0.905821 0.5 -0.2625 0.00333583
0.288069 0.5 0.9 0.0126635
0.288069 0.5 -0.901373 0.0144638
0.872064 0.5 0.375 0.00364627
0.872064 0.5 -0.375 0.00371959
0.939201 0.5 -0.15 0.00313196
0.939201 0.5 0.15 0.0031058
0.797732 0.5 0.525 0.0044396
0.797732 0.5 -0.525 0.00458288
0.219993 0.5 -0.9375 0.016035
0.219992 0.5 0.9375 0.0136238
0.939201 0.5 0.225 0.00315123
0.939201 0.5 -0.225 0.00318333
0.90582 0.5 0.3375 0.00336442
0.90582 0.5 -0.3375 0.00343553
0.835106 0.5 -0.4875 0.00417994
0.835107 0.5 0.4875 0.00405739
0 0.5 0.968821 0.0110342
0 0.5 -0.968821 0.0129832
0.0124865 0.5 0.968821 0.0117854
0.0124865 0.5 -0.968821 0.0138795
0.969689 0.5 0.0375 0.00296474
0.969689 0.5 -0.0375 0.00297334
0.574156 0.5 0.7875 0.00764791
0.574156 0.5 -0.7875 0.00805369
0 0.5 0.975 0.0110347
0 0.5 -0.975 0.0129777
0.624316 0.5 0.75 0.00687902
0.624316 0.5 -0.75 0.00722389
0.969689 0.5 0.1125 0.00298144
0.96969 0.5 -0.1125 0.00300622
0.523432 0.5 0.825 0.008605
0.523432 0.5 -0.825 0.0091382
0.67013 0.5 0.7125 0.00614474
0.67013 0.5 -0.7125 0.00643562
0 0.5 -0.981179 0.0129702
0 0.5 0.981179 0.011035
0.467897 0.5 0.8625 0.00959316
0.467897 0.5 -0.8625 0.0102687
0.0124865 0.5 0.981179 0.0117802
0.0124865 0.5 -0.981179 0.0138657
0.872064 0.5 0.45 0.00375505
0.872064 0.5 -0.45 0.00385272
0.715434 0.5 0.675 0.00557152
0.715434 0.5 -0.675 0.00582557
0.939201 0.5 0.3 0.00321607
0.939201 0.5 -0.3 0.00326478
0.151149 0.5 0.975 0.0145636
0.151149 0.5 -0.975 0.0171671
0.969689 0.5 0.1875 0.00301698
0.969689 0.5 -0.1875 0.00303911
0.756814 0.5 0.6375 0.00502743
0.756814 0.5 -0.6375 0.00524776
0.411736 0.5 0.9 0.0106952
0.411736 0.5 -0.901373 0.0116869
0.90582 0.5 0.4125 0.00345817
0.90582 0.5 -0.4125 0.00354419
0.797732 0.5 0.6 0.0046053
0.797732 0.5 -0.6 0.0047964
1.00005 0.5 1.48897e-17 0.00280255
0.350249 0.5 -0.9375 0.0131191
0.350249 0.5 0.9375 0.0117981
1.00005 0.5 0.0749309 0.00280641
1.00005 0.5 -0.0749309 0.00282131
0.969689 0.5 0.2625 0.00307187
0.969689 0.5 -0.2625 0.00310185
0.835106 0.5 0.5625 0.00420525
0.835106 0.5 -0.5625 0.00436766
1.00005 0.5 0.149862 0.00283212
1.00005 0.5 -0.149862 0.00285334
0.939201 0.5 0.375 0.00329862
0.939201 0.5 -0.375 0.00336709
0.075776 0.5 1.0125 0.0155677
0.075776 0.5 -1.0125 0.0183329
0.288069 0.5 0.975 0.0127149
0.288069 0.5 -0.975 0.0146066
0.872064 0.5 0.525 0.00388085
0.872064 0.5 -0.525 0.0040156
1.00005 0.5 0.224793 0.00287589
1.00005 0.5 -0.224793 0.00290042
0.96969 0.5 0.3375 0.00314553
0.96969 0.5 -0.3375 0.00319382
1.0271 0.5 0.0368226 0.0026238
1.0271 0.5 -0.0368226 0.00263244
0.90582 0.5 0.4875 0.00357759
0.90582 0.5 -0.4875 0.00368217
1.0271 0.5 0.110468 0.00263911
1.0271 0.5 -0.110468 0.002656
0.67013 0.5 -0.7875 0.00676869
0.67013 0.5 0.7875 0.00638945
0.624316 0.5 0.825 0.00713524
0.624316 0.5 -0.825 0.00758335
0.219992 0.5 -1.0125 0.0160237
0.219993 0.5 1.0125 0.0136065
0.574156 0.5 0.8625 0.0079143
0.574156 0.5 -0.8625 0.00843926
0.715434 0.5 0.75 0.00579798
0.715434 0.5 -0.75 0.00612995
0.756813 0.5 -0.7125 0.00552243
0.756814 0.5 0.7125 0.0052349
0.523432 0.5 0.9 0.00886254
0.939201 0.5 0.45 0.0034014
0.939201 0.5 -0.45 0.00350172
1.04168 0.5 0 0.00254843
0.523432 0.5 -0.901373 0.00954126
1.0271 0.5 0.184113 0.00267119
1.0271 0.5 -0.184113 0.00269291
0 0.5 1.04382 0.0110966
0 0.5 -1.04382 0.012919
0.0124865 0.5 1.04382 0.0118418
0.0124865 0.5 -1.04382 0.0138145
1.00005 0.5 0.299723 0.0029384
1.00005 0.5 -0.299723 0.00297476
1.04168 0.5 0.0729162 0.00255032
1.04168 0.5 -0.0729162 0.00256374
0.797732 0.5 0.675 0.00479283
0.797732 0.5 -0.675 0.00504519
0.467897 0.5 -0.9375 0.0106726
0.467897 0.5 0.9375 0.00984046
0 0.5 1.05 0.0111091
0 0.5 -1.05 0.0129138
0.835106 0.5 0.6375 0.00437432
0.835106 0.5 -0.6375 0.00458986
1.04168 0.5 0.145832 0.00257165
1.04168 0.5 -0.145832 0.00259172
0.969689 0.5 -0.4125 0.00330284
0.96969 0.5 0.4125 0.00323374
0 0.5 1.05618 0.0111205
0 0.5 -1.05618 0.0129124
0.0124865 0.5 1.05618 0.0118745
0.0124865 0.5 -1.05618 0.0138082
1.05695 0.5 -0.0360764 0.0024738
1.05695 0.5 0.0360764 0.00246306
0.411736 0.5 0.975 0.0108942
0.411736 0.5 -0.975 0.012045
0.872064 0.5 0.6 0.0040282
0.872064 0.5 -0.6 0.00421375
1.0271 0.5 0.257759 0.00272014
1.0271 0.5 -0.257759 0.00274658
0.151149 0.5 -1.05 0.0171427
0.151149 0.5 1.05 0.014617
1.05695 0.5 0.108229 0.00247506
1.05695 0.5 -0.108229 0.00249133
1.04168 0.5 0.218749 0.00260768
1.04168 0.5 -0.218749 0.00263324
0.90582 0.5 0.5625 0.00370195
0.90582 0.5 -0.5625 0.00385197
1.00005 0.5 0.374654 0.00301796
1.00005 0.5 -0.374654 0.00307574
0.350249 0.5 1.0125 0.011944
0.350249 0.5 -1.0125 0.0134285
1.05695 0.5 0.180382 0.0025
1.05695 0.5 -0.180382 0.00252543
0.939201 0.5 0.525 0.00351952
0.939201 0.5 -0.525 0.00366715
1.0271 0.5 -0.331404 0.00283041
1.0271 0.5 0.331404 0.00278729
1.08112 0.5 3.20924e-17 0.00237205
1.04168 0.5 0.291665 0.00265995
1.04168 0.5 -0.291665 0.00269576
1.08112 0.5 0.0709442 0.00237247
1.08112 0.5 -0.0709442 0.00238552
0.96969 0.5 0.4875 0.00334373
0.96969 0.5 -0.4875 0.00348489
1.05695 0.5 0.252535 0.0025385
1.05695 0.5 -0.252535 0.00256883
0.288069 0.5 1.05 0.0128027
0.288069 0.5 -1.05 0.0147827
0.075776 0.5 -1.0875 0.0183079
0.075776 0.5 1.0875 0.015753
1.08112 0.5 0.141888 0.00239046
1.08112 0.5 -0.141888 0.00240805
0.715434 0.5 0.825 0.00604683
0.715434 0.5 -0.825 0.00647308
0.756814 0.5 0.7875 0.00546628
0.756814 0.5 -0.7875 0.00583675
0.67013 0.5 0.8625 0.00665487
0.67013 0.5 -0.8625 0.00713905
0.797732 0.5 0.75 0.00500242
0.797732 0.5 -0.75 0.0053314
0.624316 0.5 0.9 0.00740949
1.00005 0.5 0.449585 0.00311599
1.00005 0.5 -0.449585 0.00321497
0.624316 0.5 -0.901373 0.00798841
0.835106 0.5 0.7125 0.00456298
0.835106 0.5 -0.7125 0.00484909
0.574156 0.5 -0.9375 0.00885989
0.574156 0.5 0.9375 0.00819629
1.10076 0.5 0.0349809 0.0022963
1.10076 0.5 -0.0349809 0.00230736
1.08112 0.5 0.212832 0.00242058
1.08112 0.5 -0.212832 0.00244319
0.872064 0.5 0.675 0.00419721
0.872064 0.5 -0.675 0.00444883
1.04168 0.5 -0.364581 0.00278561
1.04168 0.5 0.364581 0.00272824
1.0271 0.5 -0.405049 0.00294107
1.0271 0.5 0.405049 0.00287037
1.05695 0.5 0.324688 0.00259301
1.05695 0.5 -0.324688 0.00263977
1.10076 0.5 -0.104943 0.00232248
1.10076 0.5 0.104943 0.00230885
0.523432 0.5 0.975 0.00913763
0.523432 0.5 -0.975 0.00996294
0.90582 0.5 0.6375 0.00385089
0.90582 0.5 -0.6375 0.00406532
0.219992 0.5 1.0875 0.0136762
0.219992 0.5 -1.0875 0.0160633
1.11376 0.5 1.15648e-18 0.00225802
0.939201 0.5 0.6 0.00366945
0.939201 0.5 -0.6 0.00384547
1.10076 0.5 0.174905 0.00233299
1.10076 0.5 -0.174905 0.00234744
0.467897 0.5 -1.0125 0.0111054
0.467897 0.5 1.0125 0.0101095
1.11376 0.5 0.0693118 0.00225895
1.11376 0.5 -0.0693118 0.00227102
1.08112 0.5 0.283777 0.00246461
1.08112 0.5 -0.285603 0.0024997
0 0.5 -1.11882 0.0128873
0 0.5 1.11882 0.0112422
0.0124865 0.5 1.11882 0.0119962
0.0124865 0.5 -1.11882 0.013783
0.969689 0.5 0.5625 0.0034627
0.969689 0.5 -0.5625 0.00365598
1.11376 0.5 0.138624 0.00227721
1.11376 0.5 -0.138624 0.00228993
0 0.5 1.125 0.0112541
0 0.5 -1.125 0.0128785
1.10076 0.5 0.244866 0.00236914
1.10076 0.5 -0.244866 0.00238783
0.411736 0.5 -1.05 0.0124391
0.411736 0.5 1.05 0.0111065
1.05695 0.5 -0.396841 0.00275025
1.05695 0.5 0.396841 0.00266156
1.00005 0.5 0.524516 0.0032321
1.00005 0.5 -0.525427 0.00337405
1.04168 0.5 -0.437497 0.00290257
1.04168 0.5 0.437497 0.00281321
0 0.5 1.13118 0.0112668
0 0.5 -1.13118 0.0128749
0.0124865 0.5 -1.13118 0.0137605
0.0124865 0.5 1.13118 0.0120276
1.11376 0.5 0.207935 0.002307
1.0271 0.5 -0.478694 0.00308185
1.0271 0.5 0.478694 0.00297361
1.11376 0.5 -0.213207 0.00232089
1.07791 0.5 -0.354722 0.00258651
0.151149 0.5 1.125 0.0147675
0.151149 0.5 -1.125 0.017156
1.08112 0.5 0.354722 0.00252317
1.13882 0.5 0.0340295 0.00216657
1.13882 0.5 -0.0340295 0.00217594
0.350249 0.5 1.0875 0.0120888
0.350249 0.5 -1.0875 0.0137747
1.13882 0.5 0.102088 0.00217861
1.13882 0.5 -0.102088 0.00219117
1.10076 0.5 0.314829 0.00242024
1.10076 0.5 -0.314829 0.00245287
0.756813 0.5 -0.8625 0.0061923
0.756814 0.5 0.8625 0.00572076
0.797732 0.5 0.825 0.00523554
0.797732 0.5 -0.825 0.00565534
1.11376 0.5 -0.277247 0.00236872
1.11376 0.5 0.277247 0.0023499
0.835106 0.5 0.7875 0.00477464
0.835106 0.5 -0.7875 0.0051464
0.715434 0.5 0.9 0.00631489
0.872064 0.5 0.75 0.00438973
0.872064 0.5 -0.75 0.00471752
0.715434 0.5 -0.901373 0.00686371
1.13882 0.5 -0.170147 0.00221023
1.13882 0.5 0.170147 0.002202
0.67013 0.5 -0.9375 0.00754732
0.67013 0.5 0.9375 0.00693805
0.90582 0.5 0.7125 0.00402103
0.90582 0.5 -0.7125 0.00431126
1.05695 0.5 -0.468994 0.00287955
1.05695 0.5 0.468994 0.00274731
0.939201 0.5 0.675 0.00383861
0.939201 0.5 -0.675 0.00404837
0.624316 0.5 0.975 0.00770108
0.624316 0.5 -0.975 0.00841372
1.04168 0.5 -0.510414 0.00302396
1.04168 0.5 0.510414 0.00291764
0.969689 0.5 0.6375 0.00366924
0.969689 0.5 -0.6375 0.00381591
0.288069 0.5 1.125 0.0129265
0.288069 0.5 -1.125 0.0150045
1.16179 0.5 1.04083e-17 0.00208702
1.08112 0.5 -0.425666 0.00267304
1.08112 0.5 0.425666 0.00259633
1.13882 0.5 -0.238206 0.00225664
1.13882 0.5 0.238206 0.00223664
1.16179 0.5 0.0669104 0.00208832
1.16179 0.5 -0.0669104 0.00209918
0.574156 0.5 -1.0125 0.00931584
0.574156 0.5 1.0125 0.00849639
0.998291 0.5 -0.599796 0.00355409
0.075776 0.5 -1.1625 0.0182443
0.075776 0.5 1.1625 0.0159517
1.00005 0.5 0.599447 0.00338744
1.10076 0.5 -0.384791 0.00253705
1.10076 0.5 0.384791 0.0024852
1.0271 0.5 0.55234 0.00309722
1.0271 0.5 -0.55234 0.00315229
1.11376 0.5 -0.346559 0.00244521
1.11376 0.5 0.346559 0.00240693
1.16179 0.5 0.133821 0.00210526
1.16179 0.5 -0.133821 0.00211613
0.523432 0.5 -1.05 0.0104315
0.523432 0.5 1.05 0.00943101
1.17463 0.5 0.0331343 0.00203779
1.17463 0.5 -0.0331343 0.00204659
1.15837 0.5 -0.200731 0.00214973
1.17463 0.5 0.0994029 0.00204951
1.17463 0.5 -0.0994029 0.00206143
1.16179 0.5 0.200074 0.00213351
1.13882 0.5 -0.306265 0.00230819
1.13882 0.5 0.306265 0.00228473
0.219992 0.5 1.1625 0.0138303
0.219992 0.5 -1.1625 0.0161565
0.467897 0.5 -1.0875 0.0115855
0.467897 0.5 1.0875 0.0103908
1.17463 0.5 0.165672 0.00207065
1.17463 0.5 -0.165672 0.00207481
1.05695 0.5 0.541147 0.00285322
1.05695 0.5 -0.541147 0.00295393
1.18772 0.5 -1.15648e-18 0.00199886
1.11376 0.5 -0.41587 0.00253636
1.11376 0.5 0.41587 0.00247773
1.18772 0.5 0.0655187 0.00200046
1.08112 0.5 0.49661 0.00268688
1.08112 0.5 -0.49661 0.00277333
1.18772 0.5 -0.0699161 0.00201019
1.10076 0.5 -0.454752 0.00264116
1.10076 0.5 0.454752 0.00256451
1.16179 0.5 0.267642 0.00217399
1.16179 0.5 -0.267642 0.0021835
0 0.5 1.19382 0.0114216
0 0.5 -1.19382 0.0128594
0.0124865 0.5 -1.19382 0.013745
0.0124865 0.5 1.19382 0.0121824
1.04168 0.5 -0.58333 0.00316341
1.04168 0.5 0.58333 0.00304667
1.18772 0.5 0.131228 0.00201726
1.18772 0.5 -0.131228 0.00202293
1.17463 0.5 0.23194 0.00210186
1.17463 0.5 -0.23194 0.00210582
0.411736 0.5 1.125 0.011295
0.411736 0.5 -1.125 0.0128745
1.13882 0.5 0.374324 0.00234625
1.13882 0.5 -0.374324 0.00238518
0 0.5 1.2 0.0114389
0 0.5 -1.2 0.0128595
0.90582 0.5 0.7875 0.00422119
0.90582 0.5 -0.7875 0.00458426
0.872064 0.5 0.825 0.00461401
0.872064 0.5 -0.825 0.00502135
0.835106 0.5 -0.8625 0.00547589
0.835106 0.5 0.8625 0.00501041
1.18534 0.5 0.196842 0.00204896
0.939201 0.5 0.75 0.00399698
0.939201 0.5 -0.75 0.00428855
0.797732 0.5 0.9 0.00548972
1.0271 0.5 -0.625985 0.00338892
1.0271 0.5 0.625985 0.00325433
0.969689 0.5 0.7125 0.00381957
0.96969 0.5 -0.7125 0.00401006
0.797732 0.5 -0.901373 0.00603004
1.18772 0.5 -0.196842 0.00204291
0.756813 0.5 -0.9375 0.00658201
0.756813 0.5 0.9375 0.00599048
0.998291 0.5 -0.67477 0.00374705
1.15863 0.5 0.334552 0.00223332
0 0.5 1.20618 0.0114565
0 0.5 -1.20618 0.0128583
1.00005 0.5 0.674378 0.0035483
0.0124865 0.5 -1.20618 0.0137399
0.0124865 0.5 1.20618 0.0122287
1.16179 0.5 -0.334552 0.00224783
0.715434 0.5 0.975 0.00660066
0.715434 0.5 -0.975 0.00727312
0.151149 0.5 1.2 0.0149923
0.151149 0.5 -1.2 0.017208
1.20942 0.5 -0.0322645 0.00192901
1.20942 0.5 0.0322645 0.00192179
1.18534 0.5 0.249669 0.00207621
1.17463 0.5 0.298209 0.00214475
1.17463 0.5 -0.298209 0.00216082
1.20942 0.5 0.0967935 0.00193273
1.20942 0.5 -0.0967935 0.00194277
0.350249 0.5 1.1625 0.012214
0.350249 0.5 -1.1625 0.0141633
0.67013 0.5 1.0125 0.00723907
0.67013 0.5 -1.0125 0.00800019
1.11376 0.5 -0.485183 0.00262991
1.11376 0.5 0.485183 0.0025644
1.18772 0.5 -0.262456 0.00208356
1.10076 0.5 -0.524714 0.00272664
1.10076 0.5 0.524714 0.00266222
1.20942 0.5 0.161322 0.00194863
1.20942 0.5 -0.161322 0.00194926
1.08112 0.5 -0.567554 0.0028914
1.08112 0.5 0.567554 0.0027959
0.624316 0.5 1.05 0.00801169
0.624316 0.5 -1.05 0.00889187
1.13882 0.5 0.442383 0.0024209
1.13882 0.5 -0.442383 0.00247796
1.05695 0.5 -0.6133 0.00310991
1.05695 0.5 0.6133 0.00298189
1.15863 0.5 0.401463 0.00229755
1.16179 0.5 -0.401463 0.00232568
0.574156 0.5 1.0875 0.0088174
0.574157 0.5 -1.0875 0.00981986
1.17463 0.5 0.364477 0.00220035
1.17463 0.5 -0.364477 0.00222933
1.20942 0.5 0.225851 0.00197672
1.20942 0.5 -0.225851 0.00197531
1.23036 0.5 -1.38778e-17 0.00185315
1.04168 0.5 -0.656246 0.00335055
1.04168 0.5 0.656246 0.00318696
1.23036 0.5 -0.0634819 0.00186402
1.23036 0.5 0.0634819 0.00185529
1.18772 0.5 0.32807 0.00212341
1.18772 0.5 -0.32807 0.00214237
0.288069 0.5 1.2 0.0131269
0.288069 0.5 -1.2 0.0152795
1.23036 0.5 0.126964 0.0018697
1.23036 0.5 -0.126964 0.0018733
0.075776 0.5 -1.2375 0.0182111
0.075776 0.5 1.2375 0.0162364
0.523432 0.5 1.125 0.00970298
0.523432 0.5 -1.125 0.0109429
1.0271 0.5 -0.69963 0.00360747
1.0271 0.5 0.69963 0.0033865
1.24274 0.5 -0.0314313 0.00181673
1.24274 0.5 0.0314313 0.00181115
1.20942 0.5 0.29038 0.00201495
1.20942 0.5 -0.29038 0.00202278
1.11376 0.5 -0.554494 0.00273847
1.11376 0.5 0.554494 0.00266604
1.23036 0.5 0.190445 0.0018921
1.23036 0.5 -0.190445 0.00188908
1.24274 0.5 0.0942942 0.00182183
1.24274 0.5 -0.0942942 0.00182966
1.13882 0.5 -0.510442 0.00256614
1.13882 0.5 0.510442 0.00251185
0.998291 0.5 -0.749744 0.00398103
0.969689 0.5 0.7875 0.00393424
0.969689 0.5 -0.7875 0.00425901
1.00005 0.5 0.749309 0.00369117
1.15863 0.5 0.468373 0.00237593
0.939201 0.5 0.825 0.00418694
0.939201 0.5 -0.825 0.00456658
1.2484 0.5 -0.0653061 0.00180493
0.90582 0.5 0.8625 0.00447059
0.90582 0.5 -0.8625 0.00490046
1.17463 0.5 -0.430746 0.0023091
1.17463 0.5 0.430746 0.00226794
1.10076 0.5 -0.594676 0.00286607
1.10076 0.5 0.594676 0.00277408
1.18772 0.5 0.393684 0.00218273
1.18772 0.5 -0.393684 0.00221265
1.24274 0.5 -0.157157 0.00183631
1.24274 0.5 0.157157 0.00183963
1.16179 0.5 -0.468373 0.00241323
0.467897 0.5 -1.1625 0.0121043
0.467897 0.5 1.1625 0.0105871
0.872064 0.5 0.9 0.00486142
1.25401 0.5 0 0.0017821
0.872064 0.5 -0.901373 0.00537847
1.24906 0.5 -0.125094 0.00181232
0.835106 0.5 0.9375 0.00526782
0.835106 0.5 -0.9375 0.00585939
1.25401 0.5 0.0622994 0.00178467
1.08112 0.5 -0.638498 0.00305288
1.08112 0.5 0.638498 0.00292395
1.23036 0.5 0.253927 0.00192334
1.23036 0.5 -0.253927 0.00192285
0.219992 0.5 1.2375 0.0140936
0.219992 0.5 -1.2375 0.0163526
1.05695 0.5 -0.685452 0.00330241
1.05695 0.5 0.685452 0.00311587
0.797732 0.5 0.975 0.00576392
0.797732 0.5 -0.975 0.00642324
1.25401 0.5 0.124599 0.00179851
1.20942 0.5 0.354909 0.00206478
1.20942 0.5 -0.354909 0.00208304
1.24274 0.5 0.220019 0.00186568
1.24274 0.5 -0.220019 0.00185858
1.24906 0.5 -0.187641 0.00182607
0.756813 0.5 -1.0125 0.00700923
0.756813 0.5 1.0125 0.00628022
1.25401 0.5 0.186898 0.00181979
0.411736 0.5 1.2 0.0115161
0.411736 0.5 -1.2 0.0133413
0 0.5 1.26882 0.0116629
0 0.5 -1.26882 0.0129114
0.0124865 0.5 -1.26882 0.0137931
0.0124865 0.5 1.26882 0.0124351
0.715434 0.5 -1.05 0.00774277
0.715434 0.5 1.05 0.00690674
1.23036 0.5 0.31741 0.00196455
1.23036 0.5 -0.31741 0.00197262
1.04168 0.5 -0.729162 0.0035736
1.04168 0.5 0.729162 0.00332455
1.18772 0.5 -0.459298 0.00229708
1.18772 0.5 0.459298 0.00225543
1.24274 0.5 0.282882 0.00190034
1.24274 0.5 -0.282882 0.0019
0 0.5 1.275 0.0116855
0 0.5 -1.275 0.0129249
1.27472 0.5 -0.0306319 0.0017158
1.27472 0.5 0.0306319 0.00171185
1.17463 0.5 -0.497015 0.00239959
1.17463 0.5 0.497015 0.00235103
1.15837 0.5 0.534151 0.00246208
1.11376 0.5 0.62266 0.00279046
1.11376 0.5 -0.623806 0.00288563
1.13882 0.5 -0.578501 0.00268457
1.13882 0.5 0.578501 0.0026255
0.67013 0.5 1.0875 0.00755935
0.67013 0.5 -1.0875 0.00850011
1.27472 0.5 -0.0918959 0.00173011
1.27472 0.5 0.0918959 0.00172152
1.25401 0.5 -0.249197 0.00184653
1.25401 0.5 0.249197 0.00184932
1.16179 0.5 -0.535284 0.00250942
1.20942 0.5 0.419438 0.00212601
1.20942 0.5 -0.419438 0.00215054
0 0.5 1.28118 0.0117085
0 0.5 -1.28118 0.0129367
0.0124865 0.5 1.28118 0.0124969
0.0124865 0.5 -1.28118 0.0138317
1.27472 0.5 0.15316 0.00173777
1.27472 0.5 -0.15316 0.00173545
0.151149 0.5 -1.275 0.0173722
0.151149 0.5 1.275 0.0153006