# nutMean  POINT_DATA 91132
# x  y  z  nutMean
0 0 0 4.98387e-06
0 0.00368111 0 1.76906e-05
0 0.00749587 0 6.69226e-05
0 0.0114491 0 0.000249329
0 0.0155459 0 0.00065492
0 0.0197915 0 0.00162439
0 0.0241911 0 0.00251644
0 0.0287506 0 0.00297582
0 0.0334755 0 0.00344421
0 0.038372 0 0.00376898
0 0.0434463 0 0.00399691
0 0.0487048 0 0.00417121
0 0.0541543 0 0.00431701
0 0.0598016 0 0.00444907
0 0.0656539 0 0.0045772
0 0.0717187 0 0.00470889
0.075776 0.00184056 0 8.50024e-06
0.075776 0.00558849 3.46945e-18 1.26994e-05
0.075776 0.00947249 0 5.98842e-05
0.075776 0.0134975 0 0.00027756
0.075776 0.0176687 0 0.000785273
0 0.0780037 0 0.00484674
0.075776 0.0219913 0 0.00158395
0.075776 0.0264709 -3.46945e-18 0.00268709
0.075776 0.031113 3.46945e-18 0.0040763
0.075776 0.0359238 0 0.00570806
0 0.0845169 0 0.00498882
0.075776 0.0409091 0 0.00752773
0.075776 0.0460755 0 0.00947557
0 0.0912666 0 0.0051338
0.075776 0.0514296 0 0.0114916
0.075776 0.0569779 0 0.0135172
0 0.0982613 0 0.00528167
0.075776 0.0627277 -3.46945e-18 0.015496
0.075776 0.0686863 0 0.0169091
0 0.10551 0 0.00543204
0.075776 0.0748612 0 0.0175935
0.075776 0.0812603 0 0.0183484
0 0.113022 0 0.00558414
0.075776 0.0878918 0 0.019187
0 0.120806 0 0.00573711
0.075776 0.0947639 0 0.0201225
0.075776 0.101886 -3.46945e-18 0.0211741
0 0.128874 0 0.00589135
0.075776 0.109266 0 0.0223775
0 0.137234 0 0.00605715
0.075776 0.116914 0 0.023783
0 0.145897 0 0.00625327
0.075776 0.12484 0 0.0254551
0.151552 0 0 0
0.151552 0.00368111 0 7.03617e-06
0.151552 0.00749587 0 2.43682e-05
0.151552 0.0114491 0 0.000105591
0.151552 0.0155459 0 0.000327053
0.151552 0.0197915 0 0.000739839
0.075776 0.133054 -3.46945e-18 0.0274812
0.151552 0.0241911 0 0.00136238
0.151552 0.0287506 0 0.00219927
0 0.154876 0 0.00648519
0.151552 0.0334755 0 0.0032381
0.151552 0.038372 0 0.00445611
0.151552 0.0434463 0 0.00582482
0.151552 0.0487048 0 0.00731295
0.075776 0.141565 0 0.029458
0.151552 0.0541543 0 0.00888786
0.151552 0.0598016 0 0.0105168
0 0.16418 0 0.00674139
0.151552 0.0656539 0 0.0120562
0.151552 0.0717187 0 0.0133357
0.075776 0.150387 -3.46945e-18 0.0306235
0.151552 0.0780037 0 0.0144999
0.151552 0.0845169 0 0.0157341
0 0.173822 0 0.00701417
0.075776 0.159528 -3.46945e-18 0.0313482
0.151552 0.0912666 0 0.0170327
0.151552 0.0982613 0 0.0183903
0 0.183814 0 0.00730274
0.151552 0.10551 0 0.0198062
0.075776 0.169001 0 0.031587
0.151552 0.113022 0 0.021287
0.151552 0.120806 0 0.0228471
0 0.194169 0 0.007605
0.075776 0.178818 3.46945e-18 0.0313233
0.151552 0.128874 0 0.0245135
0.075776 0.188991 0 0.0304975
0.151552 0.137234 0 0.0261894
0 0.2049 0 0.00791777
0.151552 0.145897 0 0.0275766
0.075776 0.199534 0 0.0284042
0 0.21602 0 0.00824453
0.151552 0.154876 0 0.0285811
0.219992 0.00184055 0 2.3014e-06
0.219992 0.00558849 -3.46945e-18 5.19195e-06
0.219992 0.00947248 3.46945e-18 2.15321e-05
0.219992 0.0134975 -3.46945e-18 7.31009e-05
0.219992 0.0176687 3.46945e-18 0.00020372
0.219992 0.0219913 3.46945e-18 0.000454841
0.219993 0.0264709 0 0.00084258
0.219992 0.031113 -3.46945e-18 0.001373
0.219992 0.0359237 3.46945e-18 0.00204944
0.151552 0.16418 0 0.0292901
0.075776 0.21046 3.46945e-18 0.0263153
0.219992 0.0409092 0 0.00287169
0.219992 0.0460755 0 0.00383596
0.219993 0.0514296 0 0.0049362
0.219992 0.0569779 0 0.00616251
0 0.227544 0 0.00864364
0.219992 0.0627277 0 0.00750505
0.219992 0.0686863 -3.46945e-18 0.00895227
0.151552 0.173822 0 0.0296975
0.219992 0.0748612 3.46945e-18 0.01049
0.075776 0.221782 0 0.0244996
0.219992 0.0812603 0 0.0121011
0.219992 0.0878917 0 0.0137659
0.151552 0.183814 0 0.0297783
7.47806e-17 0.239487 0 0.00913195
0.219993 0.0947639 0 0.0154584
0.219992 0.101886 0 0.0171532
0.075776 0.233515 3.46945e-18 0.0235814
0.219993 0.109266 0 0.0188227
0.151552 0.194169 0 0.0293027
0.219992 0.116914 3.46945e-18 0.0204403
0 0.251863 0 0.00966652
0.219992 0.12484 -3.46945e-18 0.0219821
0.151552 0.2049 0 0.0283989
0.075776 0.245675 0 0.023021
0.219992 0.133054 0 0.0234357
0.219992 0.141566 0 0.0247331
0.151552 0.21602 0 0.0274741
0 0.264688 0 0.0102415
0.219993 0.150387 0 0.0258702
0.075776 0.258275 3.46945e-18 0.0226517
0.219992 0.159528 0 0.0268517
0.151552 0.227544 0 0.0267484
0.219993 0.169001 -3.46945e-18 0.0277079
0 0.27798 0 0.0108587
0.075776 0.271334 0 0.0224648
0.151552 0.239487 3.70071e-18 0.0262434
0.219992 0.178818 0 0.0284413
0.288433 0 0 0
0.288433 0.00368111 0 2.93866e-06
0.288433 0.00749587 0 1.13978e-05
0.288433 0.0114491 0 3.80728e-05
0.288433 0.0155459 0 0.000105367
0.288433 0.0197915 0 0.000249154
0.288433 0.0241911 0 0.000495396
0.288433 0.0287506 0 0.000855886
0.219993 0.188991 0 0.0290246
0.288433 0.0334755 0 0.00133883
0.288433 0.038372 0 0.00194699
0.288433 0.0434463 0 0.00268044
7.47806e-17 0.291753 0 0.0115183
0.288433 0.0487048 0 0.003537
0.288433 0.0541543 0 0.00451209
0.151552 0.251863 0 0.0257958
0.288433 0.0598016 0 0.00559912
0.075776 0.284867 0 0.0224401
0.288433 0.0656539 0 0.0067897
0.219992 0.199534 0 0.029307
0.288433 0.0717187 0 0.00807285
0.288433 0.0780037 0 0.00943396
0.288433 0.0845169 0 0.0108543
0.288433 0.0912666 0 0.0122224
0.219992 0.21046 0 0.0294096
0.288433 0.0982613 0 0.0132798
0.151552 0.264688 3.70071e-18 0.0253703
0 0.306027 0 0.0122343
0.288433 0.10551 0 0.0141394
0.075776 0.29889 -3.46945e-18 0.0225517
0.288433 0.113022 0 0.015065
0.219992 0.221782 0 0.0293551
0.288433 0.120806 0 0.0159862
0.288433 0.128874 0 0.0168162
0.151552 0.27798 0 0.0250649
0.288433 0.137234 0 0.017532
0 0.320819 0 0.01313
0.219993 0.233515 0 0.0291426
0.075776 0.313423 3.46945e-18 0.0228495
0.288433 0.145897 0 0.0181617
0.288433 0.154876 0 0.0187315
0.151552 0.291753 0 0.0248653
0.219993 0.245675 0 0.0287782
0.288433 0.16418 0 0.019243
0 0.336148 0 0.0145459
0.288433 0.173822 0 0.0196975
0.075776 0.328484 0 0.0239448
0.219992 0.258275 0 0.0282794
0.151552 0.306027 0 0.0246576
0.288433 0.183814 0 0.0200848
0.288433 0.194169 0 0.0203605
0.219993 0.271334 0 0.0276549
0.350249 0.00184056 0 8.76638e-07
0.350249 0.00558849 3.46945e-18 3.50348e-06
0.350249 0.00947248 0 1.56528e-05
0.350249 0.0134975 3.46945e-18 4.33651e-05
0.350249 0.0176687 -3.46945e-18 0.00010614
0.350249 0.0219913 0 0.000243695
0.350249 0.0264709 -3.46945e-18 0.000463009
0.350249 0.031113 0 0.000781985
0 0.352034 0 0.0158411
0.350249 0.0359238 3.46945e-18 0.00120562
0.075776 0.344091 0 0.0270932
0.350249 0.0409091 3.46945e-18 0.00173669
0.350249 0.0460755 -3.46945e-18 0.0023764
0.288433 0.2049 0 0.0205166
0.350249 0.0514296 0 0.0031242
0.151552 0.320819 0 0.0246067
0.350249 0.0569779 0 0.00397785
0.350249 0.0627277 0 0.00493246
0.350249 0.0686863 0 0.00598043
0.350249 0.0748612 0 0.00711085
0.350249 0.0812603 0 0.0083073
0.219992 0.284867 0 0.0273003
0.288433 0.21602 0 0.0205873
0.350249 0.0878918 0 0.00954811
0.350249 0.0947639 0 0.0104681
0.350249 0.101886 0 0.0104837
0.350249 0.109266 3.46945e-18 0.0106629
0.288433 0.227544 0 0.0205763
0.075776 0.360265 0 0.0272691
0 0.368496 0 0.0161288
0.151552 0.336148 0 0.0252063
0.350249 0.116914 -3.46945e-18 0.0110045
0.219992 0.29889 -3.46945e-18 0.0268069
0.370854 0.0241911 -3.08149e-33 0.000360579
0.350249 0.12484 3.46945e-18 0.0112847
0.350249 0.133054 0 0.0114268
0.288433 0.239487 -9.25154e-19 0.0204832
0.350249 0.141565 3.46945e-18 0.0114934
0.350249 0.150387 0 0.0115969
0.288433 0.251863 0 0.0203117
0.219992 0.313423 0 0.0261231
0.151552 0.352034 0 0.0255726
0.075776 0.377026 -3.46945e-18 0.0253995
0.350249 0.159528 0 0.0117256
0 0.385557 0 0.0156133
0.350249 0.169001 3.46945e-18 0.0118645
0.288433 0.264688 0 0.0200653
0.350249 0.178818 3.46945e-18 0.0120033
0.219992 0.328484 0 0.0253248
0.350249 0.188991 0 0.0121366
0.151552 0.368496 0 0.0246937
0.288433 0.27798 3.70071e-18 0.0198385
0.075776 0.394396 -3.46945e-18 0.0229365
0.350249 0.199535 3.46945e-18 0.0122627
7.47806e-17 0.403236 0 0.0151176
0.219992 0.344091 -3.46945e-18 0.0245103
0.350249 0.21046 3.46945e-18 0.0123811
0.288433 0.291753 0 0.0196282
0.412065 9.08189e-19 3.08149e-33 2.39074e-22
0.412065 0.00368111 3.08149e-33 2.10488e-06
0.412065 0.00749587 3.08149e-33 9.62983e-06
0.412065 0.0114491 0 2.78783e-05
0.412065 0.0155459 0 6.58055e-05
0.412065 0.0197915 0 0.000146501
0.412065 0.0241911 -3.08149e-33 0.000293171
0.412065 0.0264709 0 0.000406026
0.412065 0.0287506 0 0.000518881
0.412065 0.0334755 3.08149e-33 0.000833419
0.412065 0.038372 3.08149e-33 0.00124295
0.151552 0.385557 0 0.0231233
0.412065 0.0434463 0 0.0017497
0.350249 0.221782 3.46945e-18 0.0124899
0.412065 0.0487048 0 0.00235422
0.412065 0.0541543 0 0.00305533
0.412065 0.0569779 0 0.00345248
0.412065 0.0598016 0 0.00384963
0.412065 0.0656539 3.08149e-33 0.00473091
0.412065 0.0717187 3.08149e-33 0.00568957
0.075776 0.412396 -3.46945e-18 0.0221631
0.412065 0.0780037 -2.31298e-18 0.00671137
0.288433 0.306027 0 0.0193255
0.412065 0.0845169 2.31112e-33 0.00768685
0.350249 0.233515 0 0.0125857
0 0.421557 0 0.0150799
0.412065 0.0912666 1.54074e-33 0.00837597
0.219992 0.360265 0 0.023663
0.412065 0.0982613 0 0.00863238
0.412065 0.10551 0 0.00871163
0.412065 0.113022 -2.31298e-18 0.00887344
0.350249 0.245675 3.46945e-18 0.0126653
0.412065 0.120806 0 0.00905955
0.151552 0.403236 0 0.0217988
0.288433 0.320819 0 0.0189376
0.412065 0.128874 -2.31298e-18 0.00919579
0.412065 0.137234 0 0.00927941
0.350249 0.258275 3.46945e-18 0.0127245
0.219993 0.377026 0 0.0226925
0.412065 0.145897 -2.31298e-18 0.00935443
0.075776 0.43105 -3.46945e-18 0.0220875
0.412065 0.154876 -2.31298e-18 0.00944476
0 0.440544 0 0.0152007
0.288433 0.336148 0 0.0185088
0.350249 0.271334 0 0.0127564
0.412065 0.16418 -2.31298e-18 0.0095431
0.412065 0.173822 -2.31298e-18 0.00964327
0.151552 0.421557 0 0.0210934
0.412065 0.183814 -2.31298e-18 0.00974141
0.350249 0.284866 3.46945e-18 0.0127572
0.219992 0.394397 -3.46945e-18 0.0216231
0.288433 0.352034 3.70071e-18 0.0180598
0.412065 0.194169 0 0.00983572
0.075776 0.450382 -3.46945e-18 0.0221174
0.412065 0.2049 -2.31298e-18 0.00992557
0 0.46022 0 0.0153364
0.350249 0.29889 -3.46945e-18 0.0127314
0.412065 0.21602 0 0.0100102
0.151552 0.440544 0 0.0206592
0.219993 0.412397 3.46945e-18 0.0205864
0.467897 0.00184056 3.46945e-18 6.04157e-07
0.467897 0.00558849 3.46945e-18 3.44719e-06
0.288433 0.368496 0 0.017563
0.467897 0.00947248 0 1.5909e-05
0.467897 0.0134975 3.46945e-18 3.68146e-05
0.467897 0.0176687 0 7.81512e-05
0.467897 0.0219913 0 0.000161984
0.467897 0.0264709 0 0.000312391
0.467897 0.031113 0 0.000532591
0.467897 0.0359238 3.46945e-18 0.000835849
0.467897 0.038372 0 0.00107277
0.467897 0.0409092 0 0.00122549
0.350249 0.313423 3.46945e-18 0.012681
0.467897 0.0460756 3.46945e-18 0.00170302
0.467897 0.0514296 0 0.00226847
0.412065 0.227544 -2.31298e-18 0.0100881
0.467897 0.0569779 0 0.0029199
0.467897 0.0627277 3.46945e-18 0.0036527
0.467897 0.0686863 3.46945e-18 0.00445915
0.467897 0.0748612 0 0.00532715
0.467897 0.0812603 0 0.00623921
0.467897 0.0878917 0 0.00682563
0.075776 0.470415 0 0.0221922
0.412065 0.239487 -2.31298e-18 0.0101576
0.467897 0.0947639 -3.46945e-18 0.0068893
0.467897 0.101886 0 0.006945
0.350249 0.328483 3.46945e-18 0.01261
0.467897 0.109266 0 0.007014
0 0.48061 0 0.0154668
0.288433 0.385557 0 0.0169982
0.467897 0.116914 -3.46945e-18 0.00708517
0.412065 0.251863 -2.31298e-18 0.0102167
0.219992 0.43105 -3.46945e-18 0.0196935
0.467897 0.12484 0 0.00715395
0.151552 0.46022 0 0.0203348
0.467897 0.133054 0 0.00721815
0.467897 0.141566 0 0.00728258
0.412065 0.264688 -2.31298e-18 0.0102627
0.350249 0.344091 0 0.0125228
0.467897 0.150387 3.46945e-18 0.00734935
0.467897 0.154876 0 0.00791142
0.467897 0.159528 0 0.00741517
0.288433 0.403236 0 0.0164018
0.075776 0.491175 0 0.0222654
0.412065 0.27798 -2.31298e-18 0.0102934
0.467897 0.169001 0 0.00747992
0.467897 0.178818 3.46945e-18 0.00754343
0.219992 0.450382 -3.46945e-18 0.0189574
7.47806e-17 0.501741 0 0.0155554
0.350249 0.360265 0 0.0124197
0.151552 0.48061 3.70071e-18 0.0200743
0.467897 0.188992 0 0.00760556
0.412065 0.291753 0 0.010309
0.467897 0.199534 -3.46945e-18 0.0076661
0.288433 0.421557 0 0.0158379
0.467897 0.21046 0 0.00772479
0.412065 0.306027 0 0.0103101
0.350249 0.377026 -3.46945e-18 0.0122927
0.467897 0.221782 -3.46945e-18 0.00778129
0.075776 0.51269 3.46945e-18 0.0222343
0.219992 0.470415 3.46945e-18 0.018348
0.412065 0.320819 -2.31298e-18 0.0102972
0.467897 0.233515 3.46945e-18 0.00783521
7.47806e-17 0.523639 0 0.0155769
0.523729 0 0 0
0.523729 0.00368111 0 1.98259e-06
0.523729 0.00749587 0 1.01585e-05
0.523729 0.0114491 0 2.70426e-05
0.523729 0.0155459 0 5.51663e-05
0.523729 0.0197915 3.08149e-33 0.000107408
0.151552 0.501741 0 0.0198223
0.523729 0.0241911 0 0.000207565
0.523729 0.0287506 0 0.000368603
0.523729 0.0334755 0 0.000596776
0.523729 0.038372 -3.08149e-33 0.00090258
0.523729 0.0434463 0 0.00128868
0.523729 0.0487048 0 0.00175576
0.523729 0.0541543 0 0.00230269
0.288433 0.440544 0 0.0153454
0.523729 0.0598016 0 0.002926
0.350249 0.394397 0 0.0121335
0.523729 0.0656539 0 0.00361914
0.467897 0.245675 0 0.00788614
0.523729 0.0717187 0 0.00437177
0.523729 0.0780037 0 0.00514221
0.523729 0.0845169 0 0.00568698
0.523729 0.0912666 0 0.0058852
0.412065 0.336148 0 0.0102714
0.523729 0.0982613 0 0.00595199
0.523729 0.10551 -2.31298e-18 0.00601842
0.467897 0.258275 0 0.00793391
0.523729 0.113022 0 0.00608505
0.523729 0.120806 -3.08149e-33 0.0061488
0.219992 0.491176 3.46945e-18 0.0178178
0.523729 0.12484 0 0.00617875
0.523729 0.128874 -2.31298e-18 0.0062087
0.075776 0.534986 3.46945e-18 0.0221201
0.467897 0.271334 3.46945e-18 0.00797881
0.350249 0.412396 3.46945e-18 0.0119464
0.523729 0.137234 0 0.00626582
0.412065 0.352034 -2.31298e-18 0.0102336
0.288433 0.46022 0 0.0149284
0.523729 0.145897 0 0.00632226
0.151552 0.523639 0 0.0195501
0.495813 0.227544 -1.54074e-33 0.00745349
0.523729 0.154876 -3.08149e-33 0.00637808
0 0.546332 0 0.0155437
0.523729 0.159528 0 0.00640538
0.467897 0.284867 0 0.00802201
0.523729 0.16418 -2.31298e-18 0.00643267
0.523729 0.173822 0 0.00648608
0.412065 0.368496 0 0.0101817
0.523729 0.183814 0 0.00653833
0.467897 0.29889 3.46945e-18 0.00806207
0.350249 0.431051 0 0.0117485
0.219993 0.51269 3.46945e-18 0.0173392
0.523729 0.194169 0 0.00658942
0.288433 0.48061 0 0.0145724
0.523729 0.2049 0 0.00663929
0.467897 0.313423 0 0.00809686
0.075776 0.55809 0 0.0219488
0.412065 0.385557 0 0.0101114
0.523729 0.21602 -3.08149e-33 0.00668785
0.151552 0.546332 0 0.0192666
0 0.569849 0 0.0154695
0.350249 0.450382 3.46945e-18 0.0115583
0.467897 0.328483 -3.46945e-18 0.00812479
0.574156 0.00184055 0 4.60349e-07
0.574156 0.00558849 0 3.42438e-06
0.574156 0.00947248 3.46945e-18 1.77908e-05
0.574156 0.0134975 -3.46945e-18 3.75675e-05
0.574157 0.0176687 3.46945e-18 6.8437e-05
0.574156 0.0219913 0 0.00012272
0.574156 0.0264708 0 0.000237053
0.574157 0.031113 3.46945e-18 0.000399449
0.574156 0.0359237 3.46945e-18 0.00063069
0.574157 0.0409092 3.46945e-18 0.000935101
0.523729 0.239487 0 0.00678046
0.574156 0.0460755 -3.46945e-18 0.00131415
0.574156 0.0514296 0 0.00176757
0.412065 0.403236 0 0.0100214
0.574157 0.0569779 0 0.00229304
0.574156 0.0627277 0 0.0028856
0.574156 0.0686863 0 0.00353637
0.219992 0.534985 0 0.016904
0.288433 0.501741 3.70071e-18 0.0142592
0.574156 0.0748612 0 0.00423276
0.574156 0.0812603 3.46945e-18 0.00485371
0.467897 0.344091 0 0.00814458
0.574156 0.0878917 0 0.00494011
0.523729 0.251863 0 0.00682429
0.574156 0.0947639 -3.46945e-18 0.00501303
0.574156 0.101886 3.46945e-18 0.00508696
0.574156 0.109266 -3.46945e-18 0.00515351
0.574156 0.116914 3.46945e-18 0.00521372
0.412065 0.416977 1.54074e-33 0.00994322
0.350249 0.470415 0 0.0113883
0.523729 0.264688 0 0.00686654
0.075776 0.582034 0 0.0217398
0.574156 0.12484 3.46945e-18 0.00526934
0.574156 0.133054 0 0.00532117
0.412065 0.421557 3.08149e-33 0.00991714
0.151552 0.569849 0 0.0189823
0.467897 0.360265 -3.46945e-18 0.00815566
0.574156 0.141565 -3.46945e-18 0.00537009
0.523729 0.27798 0 0.00690761
0.574156 0.150386 0 0.0054169
0 0.594219 0 0.0153642
0.574157 0.159528 0 0.00546211
0.574156 0.16418 0 0.00566681
0.288433 0.523639 -9.25154e-19 0.0139784
0.574156 0.169001 -3.46945e-18 0.00550602
0.523729 0.291753 0 0.0069473
0.219993 0.558091 3.46945e-18 0.016511
0.467897 0.377027 -3.46945e-18 0.00815782
0.574156 0.178818 0 0.00554884
0.412065 0.440544 -2.31298e-18 0.0098083
0.350249 0.491175 3.46945e-18 0.0112422
0.574156 0.188992 0 0.00559071
0.523729 0.306027 2.31298e-18 0.00698444
0.574156 0.199534 0 0.00563179
0.574157 0.21046 -3.46945e-18 0.00567218
0.075776 0.606847 0 0.0215065
0.467897 0.394397 0 0.00815039
0.151552 0.594219 0 0.0187046
0.523729 0.320819 0 0.00701772
0.574156 0.221782 -3.46945e-18 0.00571194
0.412065 0.46022 -2.31298e-18 0.00970465
0.288433 0.546332 0 0.0137258
0 0.619475 0 0.0152355
0.574156 0.233515 3.46945e-18 0.00575116
0.350249 0.51269 0 0.0111163
0.219992 0.582034 3.46945e-18 0.0161608
0.523729 0.336148 0 0.00704602
0.467897 0.412396 -3.46945e-18 0.00813266
0.574156 0.245675 3.46945e-18 0.00578994
0.624584 0 0 0
0.624584 0.00368111 0 1.92653e-06
0.624584 0.00749587 0 1.12401e-05
0.624584 0.0114491 0 2.92295e-05
0.624584 0.0155459 0 5.33885e-05
0.624584 0.0197915 0 9.08095e-05
0.624584 0.0241911 3.08149e-33 0.000162193
0.624584 0.0287506 0 0.000284335
0.624584 0.0334755 0 0.000461634
0.624584 0.038372 0 0.000701901
0.624584 0.0434463 0 0.00101127
0.624584 0.0487048 0 0.00139044
0.624584 0.0541543 0 0.00183796
0.624584 0.0598016 0 0.00234999
0.624584 0.0656539 0 0.00291941
0.624584 0.0717187 0 0.00353516
0.624584 0.0780037 0 0.00407524
0.574157 0.258275 -3.46945e-18 0.00582841
0.624584 0.0845169 0 0.00433997
0.523729 0.352034 0 0.00706858
0.624584 0.0912666 0 0.00441947
0.624584 0.0982613 0 0.00449196
0.412065 0.48061 -2.31298e-18 0.00961255
0.624584 0.10551 0 0.00455911
0.624584 0.113022 -2.31298e-18 0.00461942
0.574156 0.271334 -3.46945e-18 0.00586672
0.624584 0.120806 0 0.00467442
0.467897 0.43105 3.46945e-18 0.00810571
0.075776 0.632561 0 0.0212579
0.624584 0.128874 0 0.00472524
0.151552 0.619475 0 0.0184373
0.288433 0.569849 0 0.0135002
0.350249 0.534985 0 0.0110066
0.624584 0.137234 -2.31298e-18 0.00477266
0.523729 0.368496 0 0.00708504
0.574156 0.284867 0 0.00590486
0.624584 0.145897 0 0.0048174
0.467897 0.440544 0 0.00844692
0.624584 0.154876 0 0.00486002
0.219992 0.606847 0 0.0158504
0 0.645647 0 0.0150894
0.624584 0.16418 -3.08149e-33 0.00490094
0.574156 0.29889 3.46945e-18 0.00594237
0.624584 0.173822 0 0.00494047
0.412065 0.501741 -2.31298e-18 0.00953373
0.467897 0.450382 -3.46945e-18 0.00807332
0.523729 0.385557 -3.08149e-33 0.00709508
0.624584 0.183814 0 0.00497886
0.624584 0.194169 0 0.00501631
0.574157 0.313423 -3.46945e-18 0.0059785
0.624584 0.2049 0 0.00505298
0.350249 0.558091 0 0.0109102
0.288433 0.594219 0 0.0133006
0.624584 0.21602 0 0.005089
0.523729 0.403236 -3.70071e-18 0.00709829
0.574156 0.328483 -3.46945e-18 0.00601239
0.151552 0.645647 0 0.018182
0.467897 0.470415 0 0.00804057
0.075776 0.659208 0 0.0209999
0.624584 0.227544 0 0.00512451
0.412065 0.523639 -2.31298e-18 0.00946705
0.523729 0.41545 -1.54074e-33 0.00709587
0.624584 0.239487 3.70071e-18 0.00515962
0.574156 0.344091 3.46945e-18 0.00604328
0.219992 0.632561 0 0.0155766
0.67013 0.00184055 -3.46945e-18 3.60352e-07
0.67013 0.00558849 -3.46945e-18 3.46309e-06
0.67013 0.00947248 3.46945e-18 2.02055e-05
0.67013 0.0134975 -3.46945e-18 4.11653e-05
0.67013 0.0176687 3.46945e-18 6.63383e-05
0.67013 0.0219913 0 0.000106328
0.67013 0.0264708 0 0.000184837
0.67013 0.031113 0 0.000320155
0.67013 0.0359237 0 0.000502782
0.67013 0.0409092 3.46945e-18 0.000748943
0.67013 0.0460755 3.46945e-18 0.00106075
0.67013 0.0514296 0 0.00143768
0.523729 0.421557 3.08149e-33 0.00709466
0.67013 0.0569779 0 0.00187707
0 0.67277 0 0.0149306
0.67013 0.0627277 -3.46945e-18 0.00237352
0.624584 0.251863 0 0.00519447
0.67013 0.0686863 0 0.0029178
0.67013 0.0748612 0 0.00349643
0.67013 0.0812603 0 0.00377521
0.67013 0.0878918 0 0.00385882
0.67013 0.0947639 0 0.00393387
0.574156 0.360265 3.46945e-18 0.00607069
0.67013 0.101886 0 0.00400206
0.523729 0.431051 0 0.0070901
0.624584 0.264688 0 0.00522917
0.467897 0.491175 3.46945e-18 0.00801173
0.67013 0.109266 3.46945e-18 0.00406235
0.350249 0.582034 0 0.0108258
0.67013 0.116914 0 0.00411688
0.67013 0.12484 0 0.00416685
0.67013 0.133054 0 0.00421306
0.288433 0.619475 0 0.0131256
0.624584 0.27798 2.31298e-18 0.00526376
0.412065 0.546332 -2.31298e-18 0.00941096
0.523729 0.440544 -3.08149e-33 0.00708555
0.67013 0.141566 0 0.00425613
0.685312 0.0241911 -7.70372e-34 0.000143939
0.685312 0.0434463 -7.70372e-34 0.00088736
0.67013 0.150386 0 0.00429663
0.574157 0.377027 -3.46945e-18 0.00609443
0.67013 0.159528 -3.46945e-18 0.00433499
0.624584 0.291753 0 0.0052981
0.151552 0.67277 0 0.0179392
0.075776 0.686823 0 0.020737
0.67013 0.169001 -3.46945e-18 0.0043716
0.67013 0.178818 0 0.00440681
0.467897 0.51269 0 0.00798907
0.685312 0.113022 -7.70372e-34 0.00402006
0.219992 0.659208 0 0.0153354
0.624584 0.306027 0 0.00533181
0.67013 0.188992 0 0.00444091
0.574157 0.394397 0 0.00611435
0.523729 0.46022 0 0.0070737
0.685312 0.137234 -7.70372e-34 0.00416494
0.67013 0.199535 0 0.00447411
0.350249 0.606847 0 0.0107531
0 0.700877 0 0.0147629
0.624584 0.320819 0 0.00536434
0.67013 0.21046 0 0.00450658
0.412065 0.569849 -2.31298e-18 0.00936426
0.67013 0.221782 0 0.00453851
0.574156 0.412396 0 0.00613019
0.288433 0.645647 0 0.0129735
0.624584 0.336148 0 0.00539513
0.67013 0.233516 -3.46945e-18 0.00457006
0.467897 0.534986 0 0.00797328
0.523729 0.48061 0 0.00706228
0.624584 0.344091 0 0.00540941
0.67013 0.245675 0 0.00460139
0.715676 4.54095e-19 0 5.32334e-23
0.715676 0.00368111 -9.25187e-19 1.91077e-06
0.715676 0.00749587 -9.25187e-19 1.25274e-05
0.715676 0.0114491 -9.25187e-19 3.25644e-05
0.715676 0.0155459 -9.25187e-19 5.54582e-05
0.715676 0.0197915 -9.25187e-19 8.48155e-05
0.715676 0.0241911 -9.25187e-19 0.000134812
0.715676 0.0287506 0 0.000229688
0.715676 0.0334755 0 0.000375148
0.715676 0.038372 -9.25187e-19 0.000570291
0.624584 0.352034 3.08149e-33 0.00542369
0.715676 0.0434463 -9.25187e-19 0.000825405
0.151552 0.700877 0 0.017709
0.715676 0.0487048 0 0.00114248
0.715676 0.0541543 0 0.00151999
0.574156 0.43105 3.46945e-18 0.00614193
0.715676 0.0598016 -9.25187e-19 0.00195382
0.67013 0.258275 3.46945e-18 0.00463261
0.715676 0.0656539 -9.25187e-19 0.0024366
0.715676 0.0717187 -9.25187e-19 0.00295225
0.075776 0.715441 0 0.0204726
0.715676 0.0780037 0 0.0033134
0.715676 0.0845169 0 0.00345258
0.219992 0.686824 0 0.015123
0.715676 0.0912666 0 0.00353113
0.715676 0.0982613 0 0.00360175
0.67013 0.271334 3.46945e-18 0.00466379
0.350249 0.632561 -3.46945e-18 0.0106924
0.412065 0.594219 -2.31298e-18 0.00932639
0.715676 0.10551 0 0.00366439
0.715676 0.113022 0 0.00372038
0.624584 0.368496 0 0.00544977
0.523729 0.501741 3.70071e-18 0.00705392
0.715676 0.120806 0 0.00377125
0.715676 0.128874 0 0.00381791
0.67013 0.284867 0 0.00469491
0.467897 0.558091 3.46945e-18 0.00796409
0.715676 0.137234 0 0.00386108
0.574156 0.450382 3.46945e-18 0.00615027
0 0.730005 0 0.0145896
0.715676 0.145897 0 0.00390135
0.288433 0.67277 0 0.0128424
0.715676 0.154876 0 0.0039392
0.67013 0.29889 -3.46945e-18 0.00472587
0.624584 0.385557 0 0.00547318
0.715676 0.16418 0 0.00397504
0.715676 0.173822 0 0.00400921
0.715676 0.183814 0 0.00404203
0.67013 0.313423 -3.46945e-18 0.00475641
0.523729 0.523639 3.70071e-18 0.00705014
0.715676 0.194169 0 0.00407374
0.574156 0.470415 0 0.00615678
0.624584 0.403236 -3.70071e-18 0.00549377
0.743101 0.0241911 -7.70372e-34 0.000129765
0.412065 0.619475 -2.31298e-18 0.00929737
0.715676 0.2049 0 0.00410456
0.151552 0.730005 0 0.0174913
0.67013 0.328483 0 0.00478619
0.350249 0.659208 0 0.0106438
0.467897 0.582034 0 0.00796099
0.715676 0.21602 0 0.00413468
0.219992 0.715441 0 0.014936
0.075776 0.745098 0 0.0202099
0.715676 0.227544 0 0.00416426
0.67013 0.344091 0 0.00481487
0.624584 0.421557 0 0.00551143
0.743101 0.128874 -7.70372e-34 0.00361451
0.715676 0.239487 0 0.00419346
0.574156 0.491175 3.46945e-18 0.00616352
0.756814 0.00184056 -3.46945e-18 2.84848e-07
0.523729 0.546332 0 0.00705157
0.756813 0.00558849 -3.46945e-18 3.53501e-06
0.756813 0.00947248 -3.46945e-18 2.28284e-05
0.756813 0.0134975 -3.46945e-18 4.58472e-05
0.756814 0.0155459 0 5.73108e-05
0.756814 0.0176687 0 6.82908e-05
0.756814 0.0219913 3.46945e-18 9.84783e-05
0.756814 0.0264709 3.46945e-18 0.000150824
0.756813 0.0311131 3.46945e-18 0.000265518
0.756813 0.0359238 -3.46945e-18 0.000416242
0.288433 0.700877 0 0.0127305
0.756813 0.0409092 -3.46945e-18 0.000619477
0.756813 0.0460755 0 0.000881432
0.756813 0.0514296 0 0.0012021
0.715676 0.251863 0 0.00422242
0.756814 0.0569779 0 0.00157862
0.756814 0.0627277 0 0.00200541
0.756814 0.0686863 0 0.00247329
0 0.76019 0 0.0144139
0.756813 0.0748612 0 0.00295023
0.67013 0.360265 -3.46945e-18 0.00484215
0.756814 0.0812603 0 0.00306807
0.756814 0.0878917 0 0.00314926
0.756813 0.0947639 -3.46945e-18 0.00322371
0.715676 0.264688 0 0.00425122
0.756814 0.101886 -3.46945e-18 0.00328858
0.624584 0.440544 0 0.00552636
0.756814 0.109266 0 0.00334597
0.756814 0.116914 0 0.00339786
0.412065 0.645647 0 0.00927745
0.467897 0.606847 -3.46945e-18 0.00796381
0.756814 0.120806 0 0.00346689
0.756813 0.12484 3.46945e-18 0.0034451
0.715676 0.27798 -9.25187e-19 0.00427991
0.756813 0.133054 -3.46945e-18 0.00348848
0.67013 0.377027 0 0.00486786
0.756814 0.137234 0 0.00355518
0.574157 0.51269 3.46945e-18 0.00617238
0.756813 0.141566 3.46945e-18 0.00352865
0.685312 0.352034 -7.70372e-34 0.00475323
0.743101 0.2049 -7.70372e-34 0.00389539
0.350249 0.686824 0 0.0106073
0.756813 0.150386 -3.46945e-18 0.00356614
0.756814 0.154876 0 0.00363152
0.715676 0.291753 3.70074e-18 0.00430845
0.756814 0.159528 3.46945e-18 0.00360136
0.523729 0.569849 0 0.00705822
0.72743 0.264688 0 0.00415908
0.756814 0.16418 0 0.00366634
0.151552 0.76019 3.70071e-18 0.0172863
0.756813 0.169001 -3.46945e-18 0.00363467
0.624584 0.46022 0 0.0055393
0.219993 0.745098 0 0.0147716
0.67013 0.394396 -3.46945e-18 0.00489185
0.756813 0.178818 -3.46945e-18 0.0036664
0.715676 0.306027 -9.25187e-19 0.00433674
0.075776 0.775831 0 0.0199517
0.756814 0.188992 0 0.00369681
0.756814 0.199535 0 0.00372614
0.715676 0.320819 0 0.00436459
0.574156 0.534986 3.46945e-18 0.00618468
0.288433 0.730005 0 0.0126361
0.756814 0.21046 3.46945e-18 0.00375462
0.467897 0.632561 0 0.00797277
0.67013 0.412396 -3.46945e-18 0.00491402
0.624584 0.48061 -3.08149e-33 0.0055515
0.756814 0.221782 0 0.00378241
0.412065 0.67277 -2.31298e-18 0.00926681
0.715676 0.336148 0 0.00439175
0 0.791472 0 0.0142386
0.756813 0.233515 3.46945e-18 0.00380968
0.523729 0.594219 0 0.00707
0.624584 0.487654 1.54074e-33 0.00555582
0.756814 0.245675 0 0.00383657
0.350249 0.715441 3.46945e-18 0.0105824
0.67013 0.43105 3.46945e-18 0.00493434
0.715676 0.352034 -9.25187e-19 0.00441799
0.797951 9.08189e-19 0 8.60538e-23
0.797951 0.00368111 2.31298e-18 1.9062e-06
0.797951 0.00749587 2.31298e-18 1.3844e-05
0.797951 0.0114491 2.31298e-18 3.61816e-05
0.797951 0.0141803 7.70372e-34 5.15028e-05
0.797951 0.0155459 0 5.91633e-05
0.797951 0.0169611 7.70372e-34 6.7269e-05
0.797951 0.0197915 -3.08149e-33 8.34804e-05
0.797951 0.0219913 0 0.000101575
0.797951 0.0241911 3.08149e-33 0.00011967
0.797951 0.0264709 0 0.00015516
0.797951 0.0287506 -3.08149e-33 0.000190651
0.797951 0.0334755 2.31298e-18 0.000311931
0.797951 0.038372 2.31298e-18 0.000477938
0.797951 0.0434463 2.31298e-18 0.000691859
0.797951 0.0487048 2.31298e-18 0.000961972
0.756814 0.258275 -3.46945e-18 0.00386318
0.797951 0.0541543 2.31298e-18 0.00128688
0.797951 0.0598016 2.31298e-18 0.00166233
0.797951 0.0656539 2.31298e-18 0.00208063
0.574156 0.55809 3.46945e-18 0.00620106
0.624584 0.501741 3.70071e-18 0.00556446
0.797951 0.0717187 2.31298e-18 0.00249798
0.797951 0.0780037 2.31298e-18 0.0027525
0.797951 0.0845169 0 0.00284955
0.797951 0.0912666 0 0.0029279
0.797951 0.0982613 -3.08149e-33 0.00299736
0.756814 0.271334 3.46945e-18 0.0038896
0.797951 0.10551 0 0.0030584
0.715676 0.368496 -9.25187e-19 0.00444313
0.151552 0.791472 3.70071e-18 0.0170942
0.797951 0.113022 0 0.00311302
0.219992 0.775831 3.46945e-18 0.0146276
0.797951 0.118211 7.70372e-34 0.00314602
0.770526 0.239487 -3.08149e-33 0.00376858
0.797951 0.120806 0 0.00316253
0.67013 0.450382 -3.46945e-18 0.00495296
0.797951 0.128874 3.08149e-33 0.00320771
0.467897 0.659208 0 0.00798824
0.756814 0.284867 -3.46945e-18 0.00391586
0.743101 0.320819 -7.70372e-34 0.00414401
0.797951 0.137234 0 0.00324928
0.797951 0.141566 0 0.00326856
0.797951 0.145897 0 0.00328784
0.523729 0.619475 0 0.00708697
0.075776 0.807681 -3.46945e-18 0.0197005
0.797951 0.150387 0 0.00330584
0.797951 0.154876 9.25187e-19 0.00332384
0.715676 0.385557 0 0.00446702
0.412065 0.700877 -2.31298e-18 0.00926551
0.288433 0.76019 0 0.012558
0.756814 0.29889 0 0.00394193
0.797951 0.16418 0 0.00335765
0.624584 0.523639 3.70071e-18 0.0055795
0.797951 0.167394 7.70372e-34 0.00336831
0.797951 0.173822 0 0.00338961
0.574156 0.582034 0 0.00622171
0.67013 0.470415 0 0.00497045
0.797951 0.183814 -3.08149e-33 0.00342
0.756814 0.313423 0 0.00396775
0.797951 0.194169 0 0.00344908
0.715676 0.403236 3.70074e-18 0.0044896
0.151552 0.807681 0 0.0170049
0.797951 0.197746 -7.70372e-34 0.0034584
0.350249 0.745097 0 0.0105688
0.797951 0.2049 3.08149e-33 0.00347705
0 0.823889 0 0.0140662
0.756813 0.328483 3.46945e-18 0.0039932
0.797951 0.21046 0 0.00349058
0.797951 0.21602 -3.08149e-33 0.00350411
0.797951 0.223703 7.70372e-34 0.00352165
0.797951 0.227544 0 0.00353042
0.624584 0.546332 0 0.00559758
0.715676 0.421557 -9.25187e-19 0.00451079
0.67013 0.491175 3.46945e-18 0.00498772
0.797951 0.231525 7.70372e-34 0.003539
0.467897 0.686823 0 0.00801056
0.523729 0.645647 0 0.00710937
0.756813 0.344091 0 0.00401811
0.822721 0.120806 7.70372e-34 0.00301674
0.797951 0.239487 -3.08149e-33 0.00355614
0.822721 0.137234 7.70372e-34 0.00310343
0.835106 0.00184055 0 2.26784e-07
0.835106 0.00558849 0 3.57866e-06
0.835106 0.00947248 -3.46945e-18 2.53665e-05
0.835106 0.0134975 -3.46945e-18 5.04953e-05
0.835106 0.0176687 -3.46945e-18 7.18053e-05
0.835106 0.0219913 0 9.53387e-05