# nutMean  POINT_DATA 63140
# x  y  z  nutMean
0 0.1 0 0.00531774
0 0.1 -0.0179898 0.00532279
0 0.1 0.0179898 0.00531217
0.0363518 0.1 -0.0179898 0.013194
0.0363518 0.1 0.0179898 0.0126174
0 0.1 -0.0570102 0.00533952
0 0.1 0.0570102 0.00530754
0.0363518 0.1 0.0570102 0.0126127
0.0363518 0.1 -0.0570102 0.0132108
0 0.1 0.075 0.00530899
0 0.1 -0.075 0.00535025
0.075776 0.1 -0.0375 0.0214696
0.075776 0.1 0.0375 0.0203217
0 0.1 0.0929898 0.0053099
0 0.1 -0.0929898 0.00536057
0.0363518 0.1 0.0929898 0.0117553
0.0363518 0.1 -0.0929898 0.012839
0 0.1 0.13201 0.00531875
0 0.1 -0.13201 0.00539516
0.075776 0.1 0.1125 0.0185881
0.075776 0.1 -0.1125 0.0207058
0.0363518 0.1 0.13201 0.0117641
0.0363518 0.1 -0.13201 0.0128735
0 0.1 0.15 0.00532628
0 0.1 -0.15 0.00541756
0.150379 0.1 -8.67362e-19 0.0187574
0.150379 0.1 0.0710023 0.0181485
0 0.1 0.16799 0.00533375
0 0.1 -0.16799 0.00544024
0.150379 0.1 -0.075 0.0188608
0.0363518 0.1 0.16799 0.0107675
0.0363518 0.1 -0.16799 0.0121078
0.075776 0.1 0.1875 0.016552
0.075776 0.1 -0.1875 0.0191389
0 0.1 0.20701 0.00535075
0 0.1 -0.20701 0.00548843
0.0363518 0.1 0.20701 0.0107845
0.0363518 0.1 -0.20701 0.012156
0.150379 0.1 -0.15 0.0178612
0.150379 0.1 0.15 0.0166278
0.219992 0.1 -0.0375 0.0167159
0.219992 0.1 0.0375 0.016693
0 0.1 0.225 0.00535937
0 0.1 -0.225 0.00551204
0 0.1 0.24299 0.00536872
0 0.1 -0.24299 0.00553696
0.0363518 0.1 0.24299 0.00989698
0.0363518 0.1 -0.24299 0.0112289
0.219992 0.1 0.1125 0.0166742
0.219993 0.1 -0.1125 0.0167283
0.150379 0.1 -0.225 0.016253
0.150379 0.1 0.225 0.0147132
0.075776 0.1 -0.2625 0.017268
0.075776 0.1 0.2625 0.0147347
0 0.1 -0.28201 0.00557477
0 0.1 0.28201 0.00538321
0.0363518 0.1 -0.28201 0.0112667
0.0363518 0.1 0.28201 0.00991148
0.287374 0.1 0 0.0135317
0.219992 0.1 -0.1875 0.0150232
0.219993 0.1 0.1875 0.0147612
0.287374 0.1 0.0710023 0.0135615
0.287374 0.1 -0.075 0.0135365
0 0.1 0.3 0.00538824
0 0.1 -0.3 0.00558761
0 0.1 0.31799 0.00539431
0 0.1 -0.31799 0.00560198
0.0363518 0.1 0.31799 0.00925396
0.0363518 0.1 -0.31799 0.0105034
0.287374 0.1 0.15 0.0129242
0.287374 0.1 -0.15 0.0130396
0.150379 0.1 -0.3 0.0150565
0.150379 0.1 0.3 0.0133568
0.219993 0.1 -0.2625 0.013724
0.219993 0.1 0.2625 0.0128659
0.075776 0.1 0.3375 0.0133939
0.075776 0.1 -0.3375 0.0157339
0.350249 0.1 0.0375 0.0104561
0.350249 0.1 -0.0375 0.0105031
0 0.1 -0.35701 0.00561777
0 0.1 0.35701 0.00539563
0.0363518 0.1 0.35701 0.00925527
0.0363518 0.1 -0.35701 0.0105192
0.287374 0.1 0.225 0.0118622
0.287374 0.1 -0.225 0.0122077
0.350249 0.1 0.1125 0.0103485
0.350249 0.1 -0.1125 0.010441
0 0.1 0.375 0.00539203
0 0.1 -0.375 0.0056205
0 0.1 -0.39299 0.00562396
0 0.1 0.39299 0.00538904
0.0363518 0.1 -0.39299 0.0101221
0.0363518 0.1 0.39299 0.00894212
0.350249 0.1 -0.1875 0.0101813
0.350249 0.1 0.1875 0.0101278
0.219992 0.1 0.3375 0.0124803
0.219993 0.1 -0.3375 0.0136144
0.150379 0.1 0.375 0.012661
0.150379 0.1 -0.375 0.0143568
0.411108 0.1 0 0.00866918
0.287374 0.1 0.3 0.0112099
0.287374 0.1 -0.3 0.011832
0.411108 0.1 0.0710023 0.0086736
0.411108 0.1 -0.075 0.00866996
0.075776 0.1 0.4125 0.0127574
0.075776 0.1 -0.4125 0.0149336
0 0.1 0.43201 0.00537778
0 0.1 -0.43201 0.00562234
0.0363518 0.1 0.43201 0.00893087
0.0363518 0.1 -0.43201 0.0101204
0.411108 0.1 -0.15 0.00859992
0.411108 0.1 0.15 0.00855508
0.350249 0.1 -0.2625 0.0100755
0.350249 0.1 0.2625 0.00984794
0 0.1 0.45 0.0053712
0 0.1 -0.45 0.00561865
0.219992 0.1 -0.4125 0.0132215
0.219992 0.1 0.4125 0.012038
0 0.1 0.46799 0.00536472
0 0.1 -0.46799 0.00561502
0.411108 0.1 0.225 0.00843695
0.411108 0.1 -0.225 0.00853183
0.467897 0.1 -0.0375 0.00693322
0.467897 0.1 0.0375 0.00692729
0.0363518 0.1 0.46799 0.00870211
0.0363518 0.1 -0.46799 0.00985173
0.287374 0.1 0.375 0.0110031
0.287374 0.1 -0.375 0.0117479
0.150379 0.1 0.45 0.0125603
0.150379 0.1 -0.45 0.013917
0.467897 0.1 0.1125 0.00693525
0.467897 0.1 -0.1125 0.00694477
0.350249 0.1 0.3375 0.0097651
0.350249 0.1 -0.3375 0.0100735
0.075776 0.1 -0.4875 0.014385
0.075776 0.1 0.4875 0.0122911
0.467897 0.1 0.1875 0.0069412
0.467897 0.1 -0.1875 0.0069671
0 0.1 0.50701 0.00534519
0 0.1 -0.50701 0.00560122
0.0363518 0.1 -0.50701 0.00983793
0.0363518 0.1 0.50701 0.00868258
0.411108 0.1 0.3 0.00835965
0.411108 0.1 -0.3 0.00853838
0.522865 0.1 -9.1073e-18 0.00598084
0 0.1 0.525 0.00533384
0 0.1 -0.525 0.00559275
0.522865 0.1 0.0710023 0.00600244
0.522865 0.1 -0.075 0.00599496
0.287374 0.1 0.45 0.0112248
0.287374 0.1 -0.45 0.0117321
0.219992 0.1 -0.4875 0.0131793
0.219992 0.1 0.4875 0.0131461
0.467897 0.1 0.2625 0.00695245
0.467897 0.1 -0.2625 0.00702876
0.350249 0.1 -0.4125 0.0102255
0.350249 0.1 0.4125 0.00983311
0 0.1 0.54299 0.00532217
0 0.1 -0.54299 0.00558409
0.522865 0.1 -0.15 0.00602433
0.522865 0.1 0.15 0.0060009
0.0363518 0.1 0.54299 0.00849301
0.0363518 0.1 -0.54299 0.00957501
0.150379 0.1 -0.525 0.014048
0.150379 0.1 0.525 0.0128212
0.411108 0.1 0.375 0.00839036
0.411108 0.1 -0.375 0.00862875
0.075776 0.1 0.5625 0.0119039
0.075776 0.1 -0.5625 0.0138519
0.522865 0.1 0.225 0.006028
0.522865 0.1 -0.225 0.00607424
0.574156 0.1 0.0375 0.00506335
0.574157 0.1 -0.0375 0.00507142
0.467897 0.1 -0.3375 0.00709746
0.467897 0.1 0.3375 0.00698683
0 0.1 0.58201 0.00529796
0 0.1 -0.58201 0.00556054
0.0363518 0.1 0.58201 0.00846879
0.0363518 0.1 -0.58201 0.00955146
0.574156 0.1 0.1125 0.00508041
0.574156 0.1 -0.1125 0.0051019
0.287374 0.1 0.525 0.0117773
0.287374 0.1 -0.525 0.0122242
0 0.1 0.6 0.00528702
0 0.1 -0.6 0.00554757
0.350249 0.1 0.4875 0.0100012
0.350249 0.1 -0.4875 0.0104264
0.522865 0.1 -0.3 0.00615111
0.522865 0.1 0.3 0.00606941
0.219992 0.1 0.5625 0.0138799
0.219992 0.1 -0.5625 0.0147768
0.574156 0.1 0.1875 0.0051177
0.574157 0.1 -0.1875 0.005154
0.411108 0.1 0.45 0.00851776
0.411108 0.1 -0.45 0.00880055
0 0.1 0.61799 0.00527541
0 0.1 -0.61799 0.00553383
0.150379 0.1 0.6 0.0127788
0.150379 0.1 -0.6 0.014271
0.0363518 0.1 -0.61799 0.00932158
0.0363518 0.1 0.61799 0.00830501
0.623413 0.1 0 0.00451603
0.467897 0.1 0.4125 0.007088
0.467897 0.1 -0.4125 0.00724012
0.623803 0.1 0.0710023 0.0045295
0.623803 0.1 -0.075 0.00453645
0.574156 0.1 0.2625 0.00517005
0.574157 0.1 -0.2625 0.00521682
0.623803 0.1 -0.15 0.0045782
0.623803 0.1 0.15 0.00454575
0.075776 0.1 0.6375 0.0115671
0.075776 0.1 -0.6375 0.0133819
0.522865 0.1 -0.375 0.00626604
0.522865 0.1 0.375 0.00614452
0 0.1 0.65701 0.00525394
0 0.1 -0.65701 0.00550707
0.0363518 0.1 0.65701 0.00828354
0.0363518 0.1 -0.65701 0.00929482
0.350249 0.1 0.5625 0.0102366
0.350249 0.1 -0.5625 0.0106751
0.623803 0.1 0.225 0.00459087
0.623803 0.1 -0.225 0.00463695
0.287374 0.1 0.6 0.0120131
0.287374 0.1 -0.6 0.0127829
0.574156 0.1 0.3375 0.00523618
0.574157 0.1 -0.3375 0.00533025
0.411108 0.1 0.525 0.00872415
0.411108 0.1 -0.525 0.00901908
0.67013 0.1 0.0375 0.00397874
0.67013 0.1 -0.0375 0.00398927
0.219993 0.1 0.6375 0.0136716
0.219993 0.1 -0.6375 0.0150181
0 0.1 0.675 0.00524532
0 0.1 -0.675 0.00549558
0.467897 0.1 0.4875 0.00726052
0.467897 0.1 -0.4875 0.00743353
0.67013 0.1 0.1125 0.00399336
0.67013 0.1 -0.1125 0.00402176
0.522865 0.1 -0.45 0.00642658
0.522865 0.1 0.45 0.0062727
0.150379 0.1 0.675 0.0124864
0.150379 0.1 -0.675 0.0140696
0.623803 0.1 0.3 0.0046527
0.623803 0.1 -0.3 0.00472581
0 0.1 -0.69299 0.0054829
0 0.1 0.69299 0.00523596
0.0363518 0.1 0.69299 0.00814475
0.0363518 0.1 -0.69299 0.00908701
0.67013 0.1 0.1875 0.00403028
0.67013 0.1 -0.1875 0.00407366
0.574156 0.1 0.4125 0.00533442
0.574157 0.1 -0.4125 0.00546463
0.714619 0.1 4.77049e-18 0.00362192
0.075776 0.1 0.7125 0.0112807
0.075776 0.1 -0.7125 0.012955
0.714971 0.1 0.0710023 0.00362885
0.714971 0.1 -0.075 0.00364382
0.67013 0.1 0.2625 0.00408418
0.67013 0.1 -0.2625 0.00414169
0.411108 0.1 0.6 0.0089634
0.411108 0.1 -0.6 0.00925112
0.350249 0.1 0.6375 0.0104197
0.350249 0.1 -0.6375 0.0108618
0.623803 0.1 0.375 0.00473347
0.623803 0.1 -0.375 0.00484654
0.714971 0.1 0.15 0.00364542
0.714971 0.1 -0.15 0.00368495
0.467897 0.1 0.5625 0.00751043
0.467897 0.1 -0.5625 0.00766852
0 0.1 0.73201 0.00521928
0 0.1 -0.73201 0.00545949
0.0363518 0.1 0.73201 0.00812807
0.0363518 0.1 -0.73201 0.0090636
0.287374 0.1 0.675 0.0119527
0.287374 0.1 -0.675 0.0128803
0.522865 0.1 0.525 0.00646159
0.522865 0.1 -0.525 0.00662932
0.219992 0.1 0.7125 0.0133298
0.219992 0.1 -0.7125 0.0148425
0.714971 0.1 -0.225 0.00374606
0.714971 0.1 0.225 0.00368795
0 0.1 0.75 0.00521287
0 0.1 -0.75 0.00544998
0.67013 0.1 -0.3375 0.00425278
0.67013 0.1 0.3375 0.00415886
0.574157 0.1 0.4875 0.00547603
0.574157 0.1 -0.4875 0.00563706
0.756813 0.1 0.0375 0.00326503
0.756814 0.1 -0.0375 0.00327779
0.150379 0.1 -0.75 0.013774
0.150379 0.1 0.75 0.0121927
0.756813 0.1 0.1125 0.00327537
0.756814 0.1 -0.1125 0.0033096
0 0.1 0.76799 0.00520567
0 0.1 -0.76799 0.00543927
0.0363518 0.1 0.76799 0.00801614
0.0363518 0.1 -0.76799 0.00887978
0.623803 0.1 0.45 0.0048447
0.623803 0.1 -0.45 0.0049932
0.714971 0.1 0.3 0.00374863
0.714971 0.1 -0.3 0.00383296
0.756813 0.1 0.1875 0.00330608
0.756813 0.1 -0.1875 0.00335798
0.67013 0.1 -0.4125 0.00437703
0.67013 0.1 0.4125 0.00424297
0.411108 0.1 0.675 0.00917572
0.411108 0.1 -0.675 0.00945312
0.467897 0.1 0.6375 0.00779798
0.467897 0.1 -0.6375 0.00792973
0.075776 0.1 -0.7875 0.0125763
0.075776 0.1 0.7875 0.0110492
0.350249 0.1 -0.7125 0.0109915
0.350249 0.1 0.7125 0.0105262
0.791054 0.1 0.0690034 0.00308191
0.522865 0.1 0.6 0.00670376
0.522865 0.1 -0.6 0.00686806
0.797314 0.1 -3.03577e-18 0.0030238
0.797314 0.1 -0.075 0.0030373
0.756814 0.1 0.2625 0.00335486
0.756814 0.1 -0.2625 0.00343398
0.287374 0.1 -0.75 0.0128481
0.287374 0.1 0.75 0.0118378
0.574156 0.1 0.5625 0.00566952
0.574156 0.1 -0.5625 0.00584847
0 0.1 0.80701 0.00519356
0 0.1 -0.80701 0.00541963
0.714971 0.1 -0.375 0.00394393
0.714971 0.1 0.375 0.00382678
0.0363518 0.1 0.80701 0.00800403
0.0363518 0.1 -0.80701 0.00886014
0.797314 0.1 0.15 0.00303168
0.797314 0.1 -0.15 0.00307562
0.623803 0.1 0.525 0.00499827
0.623803 0.1 -0.525 0.00517517
0.219992 0.1 -0.7875 0.0146295
0.219992 0.1 0.7875 0.013017
0 0.1 0.825 0.00518937
0 0.1 -0.825 0.00541162
0.797314 0.1 0.225 0.00306809
0.797314 0.1 -0.225 0.00313474
0.756813 0.1 -0.3375 0.00352664
0.756814 0.1 0.3375 0.00342042
0.67013 0.1 0.4875 0.00436456
0.67013 0.1 -0.4875 0.00453306
0.835106 0.1 0.0375 0.00276083
0.835106 0.1 -0.0375 0.0027733
0.150379 0.1 -0.825 0.0134974
0.150379 0.1 0.825 0.0119527
0.835106 0.1 0.1125 0.00276782
0.835106 0.1 -0.1125 0.00280322
0 0.1 -0.84299 0.00540244
0 0.1 0.84299 0.00518436
0.0363518 0.1 -0.84299 0.0087067
0.0363518 0.1 0.84299 0.00791894
0.714971 0.1 -0.45 0.00407886
0.714971 0.1 0.45 0.00392477
0.797314 0.1 0.3 0.00312111
0.797314 0.1 -0.3 0.00321275
0.467897 0.1 0.7125 0.00806742
0.467897 0.1 -0.7125 0.00815835
0.522865 0.1 0.675 0.00697037
0.522865 0.1 -0.675 0.00712456
0.411108 0.1 -0.75 0.00963103
0.411108 0.1 0.75 0.00934164
0.835106 0.1 -0.1875 0.00284647
0.835107 0.1 0.1875 0.00279231
0.574156 0.1 0.6375 0.00590959
0.574156 0.1 -0.6375 0.00609732
0.350249 0.1 -0.7875 0.0111075
0.350249 0.1 0.7875 0.0105971
0.756814 0.1 0.4125 0.00350872
0.756814 0.1 -0.4125 0.00364293
0.623803 0.1 0.6 0.00519543
0.623803 0.1 -0.6 0.00539272
0.075776 0.1 0.8625 0.0108732
0.075776 0.1 -0.8625 0.01226
0.871687 0.1 -0.00399773 0.00258241
0.287374 0.1 -0.825 0.0128065
0.287374 0.1 0.825 0.0117402
0.871687 0.1 0.075 0.0025735
0.871687 0.1 -0.075 0.00259834
0.67013 0.1 0.5625 0.00452314
0.67013 0.1 -0.5625 0.00472174
0.835106 0.1 0.2625 0.00283418
0.835106 0.1 -0.2625 0.0029155
0.797314 0.1 0.375 0.00319257
0.797314 0.1 -0.375 0.00331107
0 0.1 -0.88201 0.00538606
0 0.1 0.88201 0.00517691
0.0363518 0.1 0.88201 0.00791148
0.0363518 0.1 -0.88201 0.00869032
0.871687 0.1 0.15 0.00258723
0.871687 0.1 -0.15 0.00263303
0.714971 0.1 0.525 0.00405262
0.714971 0.1 -0.525 0.00424359
0.219992 0.1 0.8625 0.0127793
0.219993 0.1 -0.8625 0.0144226
0 0.1 0.9 0.00517499
0 0.1 -0.9 0.00537963
0.756813 0.1 0.4875 0.00360698
0.756814 0.1 -0.4875 0.00378644
0.871687 0.1 0.225 0.00261736
0.871687 0.1 -0.225 0.00268573
0.835106 0.1 0.3375 0.00289028
0.835106 0.1 -0.3375 0.00299024
0.90582 0.1 -0.0375 0.00239841
0.905821 0.1 0.0375 0.00238544
0.150379 0.1 0.9 0.0117762
0.150379 0.1 -0.9 0.0132555
0.90582 0.1 0.1125 0.00238956
0.90582 0.1 -0.1125 0.00242803
0.522865 0.1 -0.75 0.0073928
0.522865 0.1 0.75 0.00723091
0.574156 0.1 0.7125 0.00618054
0.574156 0.1 -0.7125 0.00638349
0.797314 0.1 0.45 0.00327941
0.797314 0.1 -0.45 0.00343573
0.467897 0.1 -0.7875 0.00838935
0.467897 0.1 0.7875 0.00827948
0 0.1 0.91799 0.00517223
0 0.1 -0.91799 0.00537204
0.0363518 0.1 0.91799 0.00785278
0.0363518 0.1 -0.91799 0.00856598
0.623803 0.1 0.675 0.00543011
0.623803 0.1 -0.675 0.00564506
0.411108 0.1 -0.825 0.00981541
0.411108 0.1 0.825 0.00947937
0.871687 0.1 0.3 0.00266278
0.871687 0.1 -0.3 0.00275409
0.67013 0.1 0.6375 0.00472101
0.67013 0.1 -0.6375 0.00494377
0.90582 0.1 0.1875 0.00240899
0.905821 0.1 -0.1875 0.00246411
0.350249 0.1 0.8625 0.0106703
0.350249 0.1 -0.8625 0.0112316
0.835106 0.1 0.4125 0.00296647
0.835106 0.1 -0.4125 0.00310017
0.714971 0.1 0.6 0.00421656
0.714971 0.1 -0.6 0.00443948
0.93886 0.1 -0.00399773 0.00229219
0.075776 0.1 0.9375 0.0107514
0.075776 0.1 -0.9375 0.0120036
0.93886 0.1 0.075 0.00228491
0.93886 0.1 -0.075 0.00230896
0.756813 0.1 0.5625 0.00374074
0.756814 0.1 -0.5625 0.0039576
0.90582 0.1 0.2625 0.00244386
0.905821 0.1 -0.2625 0.00252672
0.287374 0.1 0.9 0.0116811
0.287374 0.1 -0.9 0.0127742
0.871687 0.1 0.375 0.00272387
0.871687 0.1 -0.375 0.00284387
0.93886 0.1 0.15 0.00229636
0.93886 0.1 -0.15 0.00233927
0.797314 0.1 0.525 0.00338744
0.797314 0.1 -0.525 0.00358514
0 0.1 0.95701 0.00516965
0 0.1 -0.95701 0.00535912
0.0363518 0.1 0.95701 0.0078502
0.0363518 0.1 -0.95701 0.00855306
0.219992 0.1 0.9375 0.0126099
0.219992 0.1 -0.9375 0.0142295
0.93886 0.1 0.225 0.00232208
0.93886 0.1 -0.225 0.00238414
0.90582 0.1 0.3375 0.00249288
0.905821 0.1 -0.3375 0.00259394
0.835107 0.1 0.4875 0.00305143
0.835107 0.1 -0.4875 0.00322939
0.969689 0.1 0.0375 0.00218213
0.969689 0.1 -0.0375 0.00219349
0.574156 0.1 0.7875 0.00646866
0.574156 0.1 -0.7875 0.00670601
0 0.1 0.975 0.00517017
0 0.1 -0.975 0.00535443
0.623803 0.1 0.75 0.00569156
0.623803 0.1 -0.75 0.00593271
0.96969 0.1 0.1125 0.00218672
0.96969 0.1 -0.1125 0.00222024
0.522865 0.1 -0.825 0.00767902
0.522865 0.1 0.825 0.00747984
0.67013 0.1 0.7125 0.00495231
0.67013 0.1 -0.7125 0.00519712
0.871687 0.1 0.45 0.00280077
0.871687 0.1 -0.45 0.00296129
0.467897 0.1 0.8625 0.00846807
0.467897 0.1 -0.8625 0.00865241
0.714971 0.1 -0.675 0.00466873
0.714971 0.1 0.675 0.00441476
0.93886 0.1 0.3 0.00236174
0.93886 0.1 -0.3 0.00244705
0.150379 0.1 0.975 0.0116541
0.150379 0.1 -0.975 0.0130559
0.969689 0.1 -0.1875 0.00224913
0.969689 0.1 0.1875 0.00220441
0.411108 0.1 0.9 0.00960984
0.411108 0.1 -0.9 0.0100126
0.756813 0.1 0.6375 0.00390722
0.756813 0.1 -0.6375 0.00415981
0.990306 0.1 3.46945e-18 0.00210867
0 0.1 0.99299 0.00516982
0 0.1 -0.99299 0.00534858
0.990306 0.1 0.075 0.00210069
0.990306 0.1 -0.075 0.00212206
0.0363518 0.1 0.99299 0.00781557
0.0363518 0.1 -0.99299 0.00845545
0.905821 0.1 0.4125 0.00255615
0.905821 0.1 -0.4125 0.00270131
0.797314 0.1 0.6 0.0035265
0.797314 0.1 -0.6 0.00376222
0.350249 0.1 0.9375 0.0107544
0.350249 0.1 -0.9375 0.0113662
0.990306 0.1 0.15 0.00211139
0.990306 0.1 -0.15 0.00214926
0.969689 0.1 -0.2625 0.00230125
0.969689 0.1 0.2625 0.00223536
0.835106 0.1 0.5625 0.00316702
0.835106 0.1 -0.5625 0.00338358
0.93886 0.1 0.375 0.00241435
0.93886 0.1 -0.375 0.00253517
0.075776 0.1 1.0125 0.0106794
0.075776 0.1 -1.0125 0.0118021
0.990306 0.1 0.225 0.00213484
0.990306 0.1 -0.225 0.00218921
0.287374 0.1 0.975 0.0116573
0.287374 0.1 -0.975 0.0127622
0.871687 0.1 0.525 0.00289563
0.871687 0.1 -0.525 0.00309996
1.02149 0.1 -0.0369628 0.00197499
1.02149 0.1 0.0369628 0.00194134
0.969689 0.1 -0.3375 0.00237103
0.96969 0.1 0.3375 0.00227923
1.02149 0.1 0.110888 0.00194467
1.02149 0.1 -0.110888 0.00197153
0.90582 0.1 0.4875 0.00263953
0.905821 0.1 -0.4875 0.00282457
0 0.1 1.03201 0.00517174
0 0.1 -1.03201 0.00533929
0.0363518 0.1 1.03201 0.00781749
0.0363518 0.1 -1.03201 0.00844615
0.67013 0.1 0.7875 0.00520907
0.67013 0.1 -0.7875 0.00548697
0.623803 0.1 -0.825 0.00624925
0.623803 0.1 0.825 0.00597268
0.990306 0.1 0.3 0.00217116
0.990306 0.1 -0.3 0.00224935
0.219992 0.1 -1.0125 0.014079
0.219992 0.1 1.0125 0.0124867
0.574156 0.1 -0.8625 0.00703284
0.574157 0.1 0.8625 0.00677097
0.714971 0.1 0.75 0.00464292
0.714971 0.1 -0.75 0.00493209
1.02149 0.1 0.184814 0.00195983
1.02149 0.1 -0.184814 0.00200285
0.756814 0.1 0.7125 0.00410538
0.756813 0.1 -0.7125 0.00439958
0.522865 0.1 0.9 0.00771899
0.522865 0.1 -0.9 0.00795432
0.93886 0.1 0.45 0.00248216
0.93886 0.1 -0.45 0.00264981
1.04168 0.1 0 0.00187097
1.04168 0.1 0.0729162 0.00186687
1.04168 0.1 -0.0729162 0.00188466
0.797314 0.1 0.675 0.00369456
0.797314 0.1 -0.675 0.00397117
0.467897 0.1 0.9375 0.00864139
0.467897 0.1 -0.9375 0.00892258
0 0.1 1.05 0.00517419
0 0.1 -1.05 0.00533636
0.835106 0.1 0.6375 0.0033081
0.835106 0.1 -0.6375 0.00356489
1.04168 0.1 0.145832 0.00187457
1.04168 0.1 -0.145832 0.00190758
1.02149 0.1 0.25874 0.00198646
1.02149 0.1 -0.25874 0.00204756
0.969689 0.1 0.4125 0.00233367
0.969689 0.1 -0.4125 0.0024791
0.411108 0.1 0.975 0.00975228
0.411108 0.1 -0.975 0.0102223
0.871687 0.1 0.6 0.00301395
0.871687 0.1 -0.6 0.0032647
1.0579 0.1 -0.0360525 0.0018282
1.0579 0.1 0.0360525 0.0018112
0.990306 0.1 0.375 0.00221932
0.990306 0.1 -0.375 0.00233533
0.150379 0.1 1.05 0.0115793
0.150379 0.1 -1.05 0.0129096
1.0579 0.1 -0.108157 0.00183621
1.0579 0.1 0.108157 0.00181289
1.04168 0.1 0.218749 0.00189216
1.04168 0.1 -0.218749 0.00194191
0.90582 0.1 0.5625 0.00273529
0.905821 0.1 -0.5625 0.00297273
0 0.1 -1.06799 0.00533227
0 0.1 1.06799 0.0051757
0.0363518 0.1 -1.06799 0.00837281
0.0363518 0.1 1.06799 0.00780274
0.350249 0.1 1.0125 0.0108574
0.350249 0.1 -1.0125 0.0115172
1.0579 0.1 -0.180262 0.00186387
1.0579 0.1 0.180262 0.00182336
1.02149 0.1 0.332665 0.0020254
1.02149 0.1 -0.332665 0.00211585
0.93886 0.1 0.525 0.00256456
0.93886 0.1 -0.525 0.00278128
1.08012 0.1 1.70581e-17 0.00175354
1.04168 0.1 0.291665 0.00192023
1.04168 0.1 -0.291665 0.00199255
1.08012 0.1 0.0709941 0.00174945
1.08012 0.1 -0.074001 0.00176551
0.969689 0.1 -0.4875 0.00259896
0.96969 0.1 0.4875 0.00240406
1.0579 0.1 0.252367 0.00184228
1.0579 0.1 -0.252367 0.00190001
0.990306 0.1 -0.45 0.00244495
0.990306 0.1 0.45 0.00228082
0.287374 0.1 -1.05 0.0127833
0.287374 0.1 1.05 0.0116669
1.08012 0.1 0.141988 0.00175557
1.08012 0.1 -0.141988 0.00178421
0.075776 0.1 1.0875 0.0106483
0.075776 0.1 -1.0875 0.0116507
0.714971 0.1 0.825 0.00489643
0.714971 0.1 -0.825 0.00523098
0.756813 0.1 0.7875 0.00433273
0.756813 0.1 -0.7875 0.00467048
0.67013 0.1 0.8625 0.00548759
0.67013 0.1 -0.8625 0.00581506
0.797314 0.1 -0.75 0.00421265
0.797314 0.1 0.75 0.0038916
0.623803 0.1 0.9 0.00626457
0.623803 0.1 -0.9 0.00655952
0.835106 0.1 0.7125 0.00347544
0.835107 0.1 -0.7125 0.00377804
0.574156 0.1 0.9375 0.00706109
0.574156 0.1 -0.9375 0.00728012
1.02149 0.1 -0.406591 0.00220304
1.02149 0.1 0.406591 0.00207552
1.08012 0.1 -0.212982 0.00181346
1.08012 0.1 0.212982 0.00176942
1.10076 0.1 -0.0349809 0.00170076
1.10076 0.1 0.0349809 0.0016911
0.871687 0.1 0.675 0.00315964
0.871687 0.1 -0.675 0.00345896
1.04168 0.1 0.364581 0.00195889
1.04168 0.1 -0.364581 0.00206186
1.10076 0.1 0.104943 0.00169393
1.10076 0.1 -0.104943 0.00171296
0.522865 0.1 0.975 0.00794635
0.522865 0.1 -0.975 0.00822463
1.0579 0.1 0.324472 0.00187099
1.0579 0.1 -0.324472 0.00195604
0 0.1 -1.10701 0.00532659
0 0.1 1.10701 0.00518149
0.0363518 0.1 1.10701 0.00780852
0.0363518 0.1 -1.10701 0.00836714
0.90582 0.1 0.6375 0.00285671
0.905821 0.1 -0.6375 0.0031482
0.219992 0.1 1.0875 0.0124156
0.219992 0.1 -1.0875 0.0139939
0.93886 0.1 0.6 0.0026747
0.93886 0.1 -0.6 0.0029336
1.10076 0.1 0.174905 0.00170415
1.10076 0.1 -0.174905 0.00173571
0.467897 0.1 1.0125 0.00885314
0.467897 0.1 -1.0125 0.00921103
1.08012 0.1 0.283976 0.00179168
1.08012 0.1 -0.283976 0.00185615
1.11928 0.1 -0.00290737 0.00165276
1.11711 0.1 -0.0710826 0.00167176
0.990306 0.1 0.525 0.00235621
0.990306 0.1 -0.525 0.00256514
0.969689 0.1 0.5625 0.00248446
0.96969 0.1 -0.5625 0.00273374
1.11928 0.1 0.0690357 0.00164948
0 0.1 1.125 0.00518578
0 0.1 -1.125 0.00532543
1.11807 0.1 -0.138193 0.00168547
0.411108 0.1 -1.05 0.0104276
0.411108 0.1 1.05 0.0099199
1.10076 0.1 -0.244866 0.00176761
1.10076 0.1 0.244866 0.00172165
1.11928 0.1 0.138072 0.00165542
1.02149 0.1 0.480517 0.00214018
1.02149 0.1 -0.480517 0.00231114
1.0579 0.1 -0.396577 0.00202511
1.0579 0.1 0.396577 0.00190919
1.04168 0.1 0.437497 0.00200896
1.04168 0.1 -0.437497 0.00214927
0.150379 0.1 1.125 0.0115482
0.150379 0.1 -1.125 0.0128124
1.08012 0.1 0.354971 0.0018229
1.08012 0.1 -0.354971 0.00191367
1.11807 0.1 -0.207288 0.00171074
1.11928 0.1 0.207107 0.00166798
0.350249 0.1 1.0875 0.0109803
0.350249 0.1 -1.0875 0.0116782
0 0.1 1.14299 0.00518903
0 0.1 -1.14299 0.00532307
0.0363518 0.1 1.14299 0.00780916
0.0363518 0.1 -1.14299 0.00831473
1.14316 0.1 -0.0339211 0.00159774
1.14316 0.1 0.0339211 0.00158783
1.10076 0.1 0.314829 0.00174766
1.10076 0.1 -0.314829 0.00181673
0.797314 0.1 0.825 0.0041163
0.797314 0.1 -0.825 0.00448701
0.756814 0.1 -0.8625 0.00497799
0.756814 0.1 0.8625 0.00458504
1.14316 0.1 -0.101763 0.00160615
1.14316 0.1 0.101763 0.00158977
0.835106 0.1 0.7875 0.00367163
0.835107 0.1 -0.7875 0.00402075
0.714971 0.1 0.9 0.00517156
0.714971 0.1 -0.9 0.00556088
0.871687 0.1 0.75 0.00333394
0.871687 0.1 -0.75 0.00368338
1.11807 0.1 -0.276385 0.00174842
0.67013 0.1 0.9375 0.00578542
0.67013 0.1 -0.9375 0.00615452
0.905821 0.1 0.7125 0.0030101
0.905821 0.1 -0.7125 0.0033554
1.11928 0.1 0.276143 0.00168771
1.14316 0.1 -0.169605 0.0016241
1.14316 0.1 0.169605 0.00159802
0.93886 0.1 0.675 0.00281093
0.93886 0.1 -0.675 0.00310619
1.15704 0.1 0 0.0015608
1.0579 0.1 0.468682 0.00195863
1.0579 0.1 -0.468682 0.00211189
0.623803 0.1 0.975 0.00654513
0.623803 0.1 -0.975 0.0068533
0.990306 0.1 0.6 0.00246365
0.990306 0.1 -0.6 0.00270349
1.15704 0.1 -0.0671479 0.0015696
1.15704 0.1 0.0671479 0.00155797
1.04168 0.1 0.510414 0.00207316
1.04168 0.1 -0.510414 0.00224205
0.969689 0.1 0.6375 0.00262736
0.96969 0.1 -0.6375 0.00288509
1.08012 0.1 0.425965 0.00186335
1.08012 0.1 -0.425965 0.00198567
0.287374 0.1 -1.125 0.0128276
0.287374 0.1 1.125 0.0117137
1.02149 0.1 0.554443 0.00222133
1.02149 0.1 -0.554443 0.0024138
0.574156 0.1 -1.0125 0.00756728
0.574156 0.1 1.0125 0.00730057
1.15704 0.1 -0.134296 0.00158274
1.15704 0.1 0.134296 0.00156297
0.075776 0.1 1.1625 0.0106494
0.075776 0.1 -1.1625 0.0115424
1.10076 0.1 0.384791 0.0017822
1.10076 0.1 -0.384791 0.00187531
1.14316 0.1 -0.237448 0.00165061
1.14316 0.1 0.237448 0.00161185
1.11807 0.1 -0.345481 0.00179883
1.11928 0.1 0.345179 0.00171543
0.522865 0.1 1.05 0.00816929
0.522865 0.1 -1.05 0.00849618
1.15704 0.1 -0.201444 0.0016033
1.15704 0.1 0.201444 0.00157336
1.1744 0.1 -0.0331401 0.00152879
1.1744 0.1 0.0331401 0.00152497
1.1744 0.1 -0.0994202 0.00153779
1.1744 0.1 0.0994202 0.00152364
0 0.1 1.18201 0.00519842
0 0.1 -1.18201 0.00532083
0.0363518 0.1 1.18201 0.00781854
0.0363518 0.1 -1.18201 0.0083125
0.219992 0.1 1.1625 0.0123938
0.219993 0.1 -1.1625 0.0139466
1.14316 0.1 -0.30529 0.00169063
1.14316 0.1 0.30529 0.00163263
0.467897 0.1 1.0875 0.00909006
0.467897 0.1 -1.0875 0.00943617
1.1744 0.1 -0.1657 0.00155282
1.1744 0.1 0.1657 0.00153074
1.15704 0.1 -0.268592 0.00163438
1.15704 0.1 0.268592 0.00158952
1.0579 0.1 0.540787 0.00202278
1.0579 0.1 -0.540787 0.00219233
1.08012 0.1 0.496959 0.00191542
1.08012 0.1 -0.496959 0.00206155
1.10076 0.1 0.454752 0.0018251
1.10076 0.1 -0.454752 0.00195076
1.11807 0.1 -0.414577 0.00186179
1.11928 0.1 0.414214 0.00175104
1.04168 0.1 0.58333 0.00215496
1.04168 0.1 -0.58333 0.00235155
1.19529 0.1 0.0650961 0.00147499
1.1744 0.1 0.231981 0.00154263
1.1744 0.1 -0.231981 0.00157542
0.411108 0.1 1.125 0.0101104
0.411108 0.1 -1.125 0.0105733
1.19808 0.1 3.5851e-17 0.0014729
0.990306 0.1 0.675 0.00259218
0.990306 0.1 -0.675 0.00286168
1.02149 0.1 0.628368 0.0023294
1.02149 0.1 -0.628368 0.00255865
1.19808 0.1 -0.0650961 0.00148064
0 0.1 1.2 0.00520445
0 0.1 -1.2 0.00532125
0.871687 0.1 -0.825 0.00392938
0.871687 0.1 0.825 0.00353924
0.905821 0.1 -0.7875 0.00359008
0.90582 0.1 0.7875 0.00319076
0.835106 0.1 0.8625 0.00389536
0.835106 0.1 -0.8625 0.00429789
0.93886 0.1 0.75 0.00296213
0.93886 0.1 -0.75 0.00330497
0.797314 0.1 0.9 0.00436575
0.797314 0.1 -0.9 0.00479735
1.14316 0.1 -0.373132 0.00173969
1.14316 0.1 0.373132 0.00166083
0.969689 0.1 0.7125 0.00275461
0.969689 0.1 -0.7125 0.00304232
1.15704 0.1 -0.33574 0.00167589
1.15704 0.1 0.33574 0.00161256
0.756813 0.1 0.9375 0.00485793
0.756814 0.1 -0.9375 0.00532364
1.19808 0.1 0.130192 0.0014752
1.19808 0.1 -0.130192 0.00149161
0.714971 0.1 0.975 0.00546147
0.714971 0.1 -0.975 0.00588647
0.150379 0.1 1.2 0.0115569
0.150379 0.1 -1.2 0.012752
1.20938 0.1 -0.0322656 0.00145528
1.20938 0.1 0.0322656 0.00144879
1.19808 0.1 0.178844 0.00148327
1.1744 0.1 0.298261 0.00156023
1.1744 0.1 -0.298261 0.00160966
1.20938 0.1 -0.0967968 0.00146377
1.20938 0.1 0.0967968 0.00145056
1.19808 0.1 -0.195288 0.00150847
0.350249 0.1 1.1625 0.0111327
0.350249 0.1 -1.1625 0.0118209
0.67013 0.1 1.0125 0.00608234
0.67013 0.1 -1.0125 0.00646264
0 0.1 1.21799 0.00520935
0 0.1 -1.21799 0.00532044
1.11807 0.1 -0.483674 0.00192817
0.0363518 0.1 1.21799 0.00783298
0.0363518 0.1 -1.21799 0.00827785
1.11928 0.1 0.48325 0.0017964
1.10076 0.1 -0.524714 0.00201661
1.10076 0.1 0.524714 0.00188042
1.20938 0.1 -0.161328 0.00147628
1.20938 0.1 0.161328 0.00145682
1.08012 0.1 0.567953 0.00198007
1.08012 0.1 -0.567953 0.00215268
0.623803 0.1 1.05 0.00679683
0.623803 0.1 -1.05 0.00714888
1.0579 0.1 -0.612892 0.00231115
1.0579 0.1 0.612892 0.00210161
1.15704 0.1 -0.402888 0.00172778
1.15704 0.1 0.402888 0.00164233
1.14316 0.1 0.440974 0.00169599
1.14316 0.1 -0.440974 0.00180148
1.19808 0.1 -0.260384 0.00153395
1.19808 0.1 0.260384 0.00149662
1.2267 0.1 3.64292e-18 0.00141877
1.2267 0.1 -0.0636649 0.00142626
1.2267 0.1 0.0636649 0.0014163
1.1744 0.1 -0.364541 0.00165094
1.1744 0.1 0.364541 0.00158486
0.574156 0.1 1.0875 0.00751398
0.574156 0.1 -1.0875 0.00786225
1.20938 0.1 -0.225859 0.00149576
1.20938 0.1 0.225859 0.00146737
1.04168 0.1 0.656246 0.00225574
1.04168 0.1 -0.656246 0.0024959
1.22587 0.1 0.12733 0.00142271
1.2267 0.1 -0.12733 0.00143635
0.287374 0.1 -1.2 0.012889
0.287374 0.1 1.2 0.0117919
1.02149 0.1 0.702294 0.00244615
1.02149 0.1 -0.702294 0.00273229
0.075776 0.1 1.2375 0.0106787
0.075776 0.1 -1.2375 0.0114707
0.522865 0.1 1.125 0.00840389
0.522865 0.1 -1.125 0.00865801
1.2267 0.1 0.190397 0.00142847
1.2267 0.1 -0.190994 0.00145126
1.19808 0.1 0.32548 0.00151564
1.19808 0.1 -0.32548 0.00156754
0.990306 0.1 0.75 0.00272575
0.990306 0.1 -0.75 0.00304576
1.24274 0.1 -0.0314313 0.00139074
1.24274 0.1 0.0314313 0.00138465
1.20938 0.1 -0.29039 0.00152472
1.20938 0.1 0.29039 0.00148246
1.24274 0.1 -0.0942942 0.00139943
1.24274 0.1 0.0942942 0.00138578
1.11807 0.1 -0.552769 0.00200876
1.11928 0.1 0.552285 0.00185227
1.15704 0.1 -0.470036 0.00178487
1.15704 0.1 0.470036 0.00167996
0.969689 0.1 0.7875 0.00289888
0.96969 0.1 -0.7875 0.00323938
0.93886 0.1 -0.825 0.00352761
0.93886 0.1 0.825 0.00313605
0.905821 0.1 0.8625 0.00341153
0.905821 0.1 -0.8625 0.00382012
1.1744 0.1 -0.430821 0.00170375
1.1744 0.1 0.430821 0.00161501
1.10076 0.1 0.594676 0.00194506
1.10076 0.1 -0.594676 0.00212228
1.14316 0.1 -0.508816 0.00185948
1.14316 0.1 0.508816 0.0017415
1.24274 0.1 0.157157 0.00139106
1.24274 0.1 -0.157157 0.00141002
1.2267 0.1 0.254158 0.00143994
1.2267 0.1 -0.254659 0.0014738
0.871687 0.1 -0.9 0.00421288
0.871687 0.1 0.9 0.00376524
0.467897 0.1 1.1625 0.00934432
0.467897 0.1 -1.1625 0.00948795
1.08012 0.1 0.638947 0.00206154
1.08012 0.1 -0.638947 0.00227432
1.25511 0.1 1.27213e-17 0.00136469
0.835106 0.1 0.9375 0.00414498
0.835106 0.1 -0.9375 0.0046101
1.25511 0.1 -0.0622446 0.00137243
1.25511 0.1 0.0622446 0.00136176
0.219992 0.1 1.2375 0.0124208
0.219992 0.1 -1.2375 0.01393
0 0.1 -1.25701 0.0053212
0 0.1 1.25701 0.00522177
0.0363518 0.1 -1.25701 0.00827861
0.0363518 0.1 1.25701 0.0078454
0.797314 0.1 0.975 0.00463967
0.797314 0.1 -0.975 0.00512457
1.19808 0.1 0.389737 0.00154044
1.19808 0.1 -0.390576 0.0016088
1.0579 0.1 -0.684997 0.00245434
1.0579 0.1 0.684997 0.00220069
1.20938 0.1 -0.354921 0.00155944
1.20938 0.1 0.354921 0.00150373
1.25511 0.1 0.124489 0.00136438
1.25511 0.1 -0.124489 0.00138221
1.24274 0.1 -0.220019 0.00142707
1.24274 0.1 0.220019 0.00140053
0.756814 0.1 1.0125 0.00515118
0.756814 0.1 -1.0125 0.00563891
1.25305 0.1 0.186734 0.00137622
1.2267 0.1 0.317097 0.00145691
1.2267 0.1 -0.318324 0.00150328
0.411108 0.1 1.2 0.0102719
0.411108 0.1 -1.2 0.0106771
1.25511 0.1 -0.186734 0.00139582
0.714971 0.1 1.05 0.00574477
0.714971 0.1 -1.05 0.00619797
1.04168 0.1 0.729162 0.00236589
1.04168 0.1 -0.729162 0.00266839
1.24274 0.1 -0.282882 0.00145192
1.24274 0.1 0.282882 0.00141379
0 0.1 1.275 0.00522915
0 0.1 -1.275 0.00532297
1.1744 0.1 -0.497102 0.00175767
1.1744 0.1 0.497102 0.00165342
1.15704 0.1 -0.537184 0.00185225
1.15704 0.1 0.537184 0.00172682
1.2756 0.1 -0.03061 0.00132804
1.2756 0.1 0.03061 0.00132183
0.67013 0.1 1.0875 0.00634477
0.67013 0.1 -1.0875 0.0067668
1.25305 0.1 0.248978 0.00138526
1.2756 0.1 0.09183 0.00132153
1.2756 0.1 -0.09183 0.00133767
1.11807 0.1 -0.621866 0.00211706
1.25511 0.1 -0.248978 0.00141617
1.20938 0.1 0.419453 0.00152995
1.20938 0.1 -0.419453 0.0016024
1.11928 0.1 0.621322 0.00192161
1.14316 0.1 -0.576659 0.00194744
1.14316 0.1 0.576659 0.00179588
1.19808 0.1 0.454694 0.00157113
1.19808 0.1 -0.455673 0.00165945
1.02149 0.1 0.776219 0.0025796
1.02149 0.1 -0.776219 0.00293765
0.150379 0.1 1.275 0.0116057
0.150379 0.1 -1.275 0.012724
1.2267 0.1 0.381603 0.00147925
1.2756 0.1 -0.15305 0.00134762
1.2756 0.1 0.15305 0.00132544
1.2267 0.1 -0.381989 0.0015403
1.10076 0.1 0.664638 0.00203136