# pMean  POINT_DATA 91132
# x  y  z  pMean
0 0 0 0.217895
0 0.00368111 0 0.217593
0 0.00749587 0 0.216942
0 0.0114491 0 0.216303
0 0.0155459 0 0.215728
0 0.0197915 0 0.215117
0 0.0241911 0 0.214426
0 0.0287506 0 0.213664
0 0.0334755 0 0.212854
0 0.038372 0 0.212012
0 0.0434463 0 0.211151
0 0.0487048 0 0.210281
0 0.0541543 0 0.209408
0 0.0598016 0 0.208546
0 0.0656539 0 0.207725
0 0.0717187 0 0.206963
0.075776 0.00184056 0 0.217895
0.075776 0.00558849 3.46945e-18 0.217291
0.075776 0.00947249 0 0.216592
0.075776 0.0134975 0 0.216015
0.075776 0.0176687 0 0.215442
0 0.0780037 0 0.206235
0.075776 0.0219913 0 0.214792
0.075776 0.0264709 -3.46945e-18 0.21406
0.075776 0.031113 3.46945e-18 0.213268
0.075776 0.0359238 0 0.212439
0 0.0845169 0 0.205506
0.075776 0.0409091 0 0.211585
0.075776 0.0460755 0 0.210718
0 0.0912666 0 0.204763
0.075776 0.0514296 0 0.209844
0.075776 0.0569779 0 0.208971
0 0.0982613 0 0.204007
0.075776 0.0627277 -3.46945e-18 0.208121
0.075776 0.0686863 0 0.20733
0 0.10551 0 0.20324
0.075776 0.0748612 0 0.206595
0.075776 0.0812603 0 0.205874
0 0.113022 0 0.20246
0.075776 0.0878918 0 0.205138
0 0.120806 0 0.201665
0.075776 0.0947639 0 0.204388
0.075776 0.101886 -3.46945e-18 0.203626
0 0.128874 0 0.200858
0.075776 0.109266 0 0.202853
0 0.137234 0 0.200056
0.075776 0.116914 0 0.202067
0 0.145897 0 0.199282
0.075776 0.12484 0 0.201264
0.151552 0 0 0.201781
0.151552 0.00368111 0 0.201664
0.151552 0.00749587 0 0.201444
0.151552 0.0114491 0 0.201273
0.151552 0.0155459 0 0.201135
0.151552 0.0197915 0 0.200973
0.075776 0.133054 -3.46945e-18 0.200453
0.151552 0.0241911 0 0.200767
0.151552 0.0287506 0 0.200523
0 0.154876 0 0.198545
0.151552 0.0334755 0 0.200248
0.151552 0.038372 0 0.199954
0.151552 0.0434463 0 0.199645
0.151552 0.0487048 0 0.199326
0.075776 0.141565 0 0.19966
0.151552 0.0541543 0 0.199001
0.151552 0.0598016 0 0.198675
0 0.16418 0 0.197842
0.151552 0.0656539 0 0.198362
0.151552 0.0717187 0 0.198069
0.075776 0.150387 -3.46945e-18 0.198904
0.151552 0.0780037 0 0.197784
0.151552 0.0845169 0 0.19749
0 0.173822 0 0.197171
0.075776 0.159528 -3.46945e-18 0.198185
0.151552 0.0912666 0 0.19718
0.151552 0.0982613 0 0.196854
0 0.183814 0 0.196537
0.151552 0.10551 0 0.196514
0.075776 0.169001 0 0.197498
0.151552 0.113022 0 0.196159
0.151552 0.120806 0 0.195786
0 0.194169 0 0.195945
0.075776 0.178818 3.46945e-18 0.196843
0.151552 0.128874 0 0.195397
0.075776 0.188991 0 0.196231
0.151552 0.137234 0 0.194999
0 0.2049 0 0.195372
0.151552 0.145897 0 0.194605
0.075776 0.199534 0 0.195659
0 0.21602 0 0.194776
0.151552 0.154876 0 0.194221
0.219992 0.00184055 0 0.186906
0.219992 0.00558849 -3.46945e-18 0.187014
0.219992 0.00947248 3.46945e-18 0.187261
0.219992 0.0134975 -3.46945e-18 0.187536
0.219992 0.0176687 3.46945e-18 0.187793
0.219992 0.0219913 3.46945e-18 0.18804
0.219993 0.0264709 0 0.188279
0.219992 0.031113 -3.46945e-18 0.188505
0.219992 0.0359237 3.46945e-18 0.188719
0.151552 0.16418 0 0.193844
0.075776 0.21046 3.46945e-18 0.195086
0.219992 0.0409092 0 0.188925
0.219992 0.0460755 0 0.189121
0.219993 0.0514296 0 0.189307
0.219992 0.0569779 0 0.189481
0 0.227544 0 0.194124
0.219992 0.0627277 0 0.189644
0.219992 0.0686863 -3.46945e-18 0.189793
0.151552 0.173822 0 0.193471
0.219992 0.0748612 3.46945e-18 0.189926
0.075776 0.221782 0 0.194465
0.219992 0.0812603 0 0.190041
0.219992 0.0878917 0 0.190139
0.151552 0.183814 0 0.193103
7.47806e-17 0.239487 0 0.193421
0.219993 0.0947639 0 0.190218
0.219992 0.101886 0 0.190281
0.075776 0.233515 3.46945e-18 0.193783
0.219993 0.109266 0 0.190328
0.151552 0.194169 0 0.192741
0.219992 0.116914 3.46945e-18 0.190356
0 0.251863 0 0.192689
0.219992 0.12484 -3.46945e-18 0.190362
0.151552 0.2049 0 0.192374
0.075776 0.245675 0 0.193059
0.219992 0.133054 0 0.190347
0.219992 0.141566 0 0.190313
0.151552 0.21602 0 0.191982
0 0.264688 0 0.19194
0.219993 0.150387 0 0.190262
0.075776 0.258275 3.46945e-18 0.192317
0.219992 0.159528 0 0.190197
0.151552 0.227544 0 0.191547
0.219993 0.169001 -3.46945e-18 0.190111
0 0.27798 0 0.191176
0.075776 0.271334 0 0.191562
0.151552 0.239487 3.70071e-18 0.191071
0.219992 0.178818 0 0.19
0.288433 0 0 0.190868
0.288433 0.00368111 0 0.190906
0.288433 0.00749587 0 0.191025
0.288433 0.0114491 0 0.191197
0.288433 0.0155459 0 0.191377
0.288433 0.0197915 0 0.191554
0.288433 0.0241911 0 0.191729
0.288433 0.0287506 0 0.1919
0.219993 0.188991 0 0.189863
0.288433 0.0334755 0 0.192066
0.288433 0.038372 0 0.192227
0.288433 0.0434463 0 0.192382
7.47806e-17 0.291753 0 0.190393
0.288433 0.0487048 0 0.192531
0.288433 0.0541543 0 0.192673
0.151552 0.251863 0 0.190564
0.288433 0.0598016 0 0.192806
0.075776 0.284867 0 0.190789
0.288433 0.0656539 0 0.192932
0.219992 0.199534 0 0.189701
0.288433 0.0717187 0 0.19305
0.288433 0.0780037 0 0.193161
0.288433 0.0845169 0 0.193261
0.288433 0.0912666 0 0.193347
0.219992 0.21046 0 0.189512
0.288433 0.0982613 0 0.193411
0.151552 0.264688 3.70071e-18 0.190033
0 0.306027 0 0.189586
0.288433 0.10551 0 0.193451
0.075776 0.29889 -3.46945e-18 0.189997
0.288433 0.113022 0 0.193471
0.219992 0.221782 0 0.189292
0.288433 0.120806 0 0.193475
0.288433 0.128874 0 0.193466
0.151552 0.27798 0 0.189484
0.288433 0.137234 0 0.193444
0 0.320819 0 0.188745
0.219993 0.233515 0 0.189042
0.075776 0.313423 3.46945e-18 0.189176
0.288433 0.145897 0 0.193407
0.288433 0.154876 0 0.193351
0.151552 0.291753 0 0.188914
0.219993 0.245675 0 0.188759
0.288433 0.16418 0 0.193274
0 0.336148 0 0.187876
0.288433 0.173822 0 0.193175
0.075776 0.328484 0 0.188314
0.219992 0.258275 0 0.188444
0.151552 0.306027 0 0.188316
0.288433 0.183814 0 0.193052
0.288433 0.194169 0 0.192904
0.219993 0.271334 0 0.188102
0.350249 0.00184056 0 0.194538
0.350249 0.00558849 3.46945e-18 0.194584
0.350249 0.00947248 0 0.194668
0.350249 0.0134975 3.46945e-18 0.194765
0.350249 0.0176687 -3.46945e-18 0.194869
0.350249 0.0219913 0 0.19498
0.350249 0.0264709 -3.46945e-18 0.195094
0.350249 0.031113 0 0.195208
0 0.352034 0 0.187017
0.350249 0.0359238 3.46945e-18 0.195324
0.075776 0.344091 0 0.187438
0.350249 0.0409091 3.46945e-18 0.195438
0.350249 0.0460755 -3.46945e-18 0.19555
0.288433 0.2049 0 0.192731
0.350249 0.0514296 0 0.195659
0.151552 0.320819 0 0.18768
0.350249 0.0569779 0 0.195762
0.350249 0.0627277 0 0.195861
0.350249 0.0686863 0 0.195958
0.350249 0.0748612 0 0.196056
0.350249 0.0812603 0 0.196153
0.219992 0.284867 0 0.187741
0.288433 0.21602 0 0.192529
0.350249 0.0878918 0 0.196246
0.350249 0.0947639 0 0.196319
0.350249 0.101886 0 0.19636
0.350249 0.109266 3.46945e-18 0.196374
0.288433 0.227544 0 0.192297
0.075776 0.360265 0 0.186595
0 0.368496 0 0.186176
0.151552 0.336148 0 0.187005
0.350249 0.116914 -3.46945e-18 0.196369
0.219992 0.29889 -3.46945e-18 0.187355
0.370854 0.0241911 -3.08149e-33 0.197452
0.350249 0.12484 3.46945e-18 0.196356
0.350249 0.133054 0 0.196342
0.288433 0.239487 -9.25154e-19 0.192035
0.350249 0.141565 3.46945e-18 0.196319
0.350249 0.150387 0 0.196276
0.288433 0.251863 0 0.19174
0.219992 0.313423 0 0.186931
0.151552 0.352034 0 0.186308
0.075776 0.377026 -3.46945e-18 0.185757
0.350249 0.159528 0 0.19621
0 0.385557 0 0.18531
0.350249 0.169001 3.46945e-18 0.196121
0.288433 0.264688 0 0.191412
0.350249 0.178818 3.46945e-18 0.196011
0.219992 0.328484 0 0.186461
0.350249 0.188991 0 0.195877
0.151552 0.368496 0 0.185596
0.288433 0.27798 3.70071e-18 0.191056
0.075776 0.394396 -3.46945e-18 0.184862
0.350249 0.199535 3.46945e-18 0.195719
7.47806e-17 0.403236 0 0.184381
0.219992 0.344091 -3.46945e-18 0.185939
0.350249 0.21046 3.46945e-18 0.195534
0.288433 0.291753 0 0.190671
0.412065 9.08189e-19 3.08149e-33 0.199978
0.412065 0.00368111 3.08149e-33 0.199995
0.412065 0.00749587 3.08149e-33 0.200041
0.412065 0.0114491 0 0.200102
0.412065 0.0155459 0 0.20017
0.412065 0.0197915 0 0.200241
0.412065 0.0241911 -3.08149e-33 0.200313
0.412065 0.0264709 0 0.20035
0.412065 0.0287506 0 0.200387
0.412065 0.0334755 3.08149e-33 0.200464
0.412065 0.038372 3.08149e-33 0.200543
0.151552 0.385557 0 0.184848
0.412065 0.0434463 0 0.200623
0.350249 0.221782 3.46945e-18 0.19532
0.412065 0.0487048 0 0.200703
0.412065 0.0541543 0 0.200782
0.412065 0.0569779 0 0.200822
0.412065 0.0598016 0 0.200861
0.412065 0.0656539 3.08149e-33 0.200937
0.412065 0.0717187 3.08149e-33 0.201011
0.075776 0.412396 -3.46945e-18 0.183898
0.412065 0.0780037 -2.31298e-18 0.201078
0.288433 0.306027 0 0.190253
0.412065 0.0845169 2.31112e-33 0.201131
0.350249 0.233515 0 0.195077
0 0.421557 0 0.183391
0.412065 0.0912666 1.54074e-33 0.201163
0.219992 0.360265 0 0.185367
0.412065 0.0982613 0 0.201168
0.412065 0.10551 0 0.201151
0.412065 0.113022 -2.31298e-18 0.201118
0.350249 0.245675 3.46945e-18 0.194803
0.412065 0.120806 0 0.201072
0.151552 0.403236 0 0.184045
0.288433 0.320819 0 0.189794
0.412065 0.128874 -2.31298e-18 0.201017
0.412065 0.137234 0 0.200952
0.350249 0.258275 3.46945e-18 0.194494
0.219993 0.377026 0 0.184751
0.412065 0.145897 -2.31298e-18 0.200874
0.075776 0.43105 -3.46945e-18 0.182883
0.412065 0.154876 -2.31298e-18 0.200779
0 0.440544 0 0.182358
0.288433 0.336148 0 0.189289
0.350249 0.271334 0 0.194151
0.412065 0.16418 -2.31298e-18 0.200665
0.412065 0.173822 -2.31298e-18 0.200533
0.151552 0.421557 0 0.183187
0.412065 0.183814 -2.31298e-18 0.20038
0.350249 0.284866 3.46945e-18 0.193773
0.219992 0.394397 -3.46945e-18 0.184091
0.288433 0.352034 3.70071e-18 0.188737
0.412065 0.194169 0 0.200205
0.075776 0.450382 -3.46945e-18 0.181831
0.412065 0.2049 -2.31298e-18 0.200007
0 0.46022 0 0.181288
0.350249 0.29889 -3.46945e-18 0.19336
0.412065 0.21602 0 0.199783
0.151552 0.440544 0 0.182278
0.219993 0.412397 3.46945e-18 0.183381
0.467897 0.00184056 3.46945e-18 0.205039
0.467897 0.00558849 3.46945e-18 0.205061
0.288433 0.368496 0 0.188136
0.467897 0.00947248 0 0.205095
0.467897 0.0134975 3.46945e-18 0.205132
0.467897 0.0176687 0 0.205169
0.467897 0.0219913 0 0.205203
0.467897 0.0264709 0 0.205239
0.467897 0.031113 0 0.205278
0.467897 0.0359238 3.46945e-18 0.205321
0.467897 0.038372 0 0.205893
0.467897 0.0409092 0 0.205368
0.350249 0.313423 3.46945e-18 0.192911
0.467897 0.0460756 3.46945e-18 0.205419
0.467897 0.0514296 0 0.205473
0.412065 0.227544 -2.31298e-18 0.199532
0.467897 0.0569779 0 0.20553
0.467897 0.0627277 3.46945e-18 0.205587
0.467897 0.0686863 3.46945e-18 0.205642
0.467897 0.0748612 0 0.205689
0.467897 0.0812603 0 0.20572
0.467897 0.0878917 0 0.20572
0.075776 0.470415 0 0.180743
0.412065 0.239487 -2.31298e-18 0.199252
0.467897 0.0947639 -3.46945e-18 0.205686
0.467897 0.101886 0 0.205633
0.350249 0.328483 3.46945e-18 0.192421
0.467897 0.109266 0 0.20557
0 0.48061 0 0.18018
0.288433 0.385557 0 0.187488
0.467897 0.116914 -3.46945e-18 0.205498
0.412065 0.251863 -2.31298e-18 0.19894
0.219992 0.43105 -3.46945e-18 0.182616
0.467897 0.12484 0 0.205411
0.151552 0.46022 0 0.181322
0.467897 0.133054 0 0.205309
0.467897 0.141566 0 0.205194
0.412065 0.264688 -2.31298e-18 0.198594
0.350249 0.344091 0 0.191887
0.467897 0.150387 3.46945e-18 0.205069
0.467897 0.154876 0 0.205645
0.467897 0.159528 0 0.20493
0.288433 0.403236 0 0.18679
0.075776 0.491175 0 0.179615
0.412065 0.27798 -2.31298e-18 0.198214
0.467897 0.169001 0 0.204775
0.467897 0.178818 3.46945e-18 0.204604
0.219992 0.450382 -3.46945e-18 0.181794
7.47806e-17 0.501741 0 0.179027
0.350249 0.360265 0 0.191305
0.151552 0.48061 3.70071e-18 0.180318
0.467897 0.188992 0 0.204413
0.412065 0.291753 0 0.197797
0.467897 0.199534 -3.46945e-18 0.204201
0.288433 0.421557 0 0.186037
0.467897 0.21046 0 0.203967
0.412065 0.306027 0 0.197343
0.350249 0.377026 -3.46945e-18 0.190674
0.467897 0.221782 -3.46945e-18 0.203708
0.075776 0.51269 3.46945e-18 0.178439
0.219992 0.470415 3.46945e-18 0.180914
0.412065 0.320819 -2.31298e-18 0.196847
0.467897 0.233515 3.46945e-18 0.203422
7.47806e-17 0.523639 0 0.177827
0.523729 0 0 0.211033
0.523729 0.00368111 0 0.211042
0.523729 0.00749587 0 0.211065
0.523729 0.0114491 0 0.211095
0.523729 0.0155459 0 0.211125
0.523729 0.0197915 3.08149e-33 0.21115
0.151552 0.501741 0 0.179261
0.523729 0.0241911 0 0.211171
0.523729 0.0287506 0 0.211192
0.523729 0.0334755 0 0.211216
0.523729 0.038372 -3.08149e-33 0.211243
0.523729 0.0434463 0 0.211273
0.523729 0.0487048 0 0.211306
0.523729 0.0541543 0 0.211342
0.288433 0.440544 0 0.185226
0.523729 0.0598016 0 0.21138
0.350249 0.394397 0 0.189991
0.523729 0.0656539 0 0.211419
0.467897 0.245675 0 0.203107
0.523729 0.0717187 0 0.211453
0.523729 0.0780037 0 0.211472
0.523729 0.0845169 0 0.211459
0.523729 0.0912666 0 0.211411
0.412065 0.336148 0 0.196308
0.523729 0.0982613 0 0.21134
0.523729 0.10551 -2.31298e-18 0.211259
0.467897 0.258275 0 0.202761
0.523729 0.113022 0 0.211167
0.523729 0.120806 -3.08149e-33 0.211063
0.219992 0.491176 3.46945e-18 0.179977
0.523729 0.12484 0 0.211005
0.523729 0.128874 -2.31298e-18 0.210946
0.075776 0.534986 3.46945e-18 0.177214
0.467897 0.271334 3.46945e-18 0.20238
0.350249 0.412396 3.46945e-18 0.189252
0.523729 0.137234 0 0.210814
0.412065 0.352034 -2.31298e-18 0.195722
0.288433 0.46022 0 0.184356
0.523729 0.145897 0 0.21067
0.151552 0.523639 0 0.178147
0.495813 0.227544 -1.54074e-33 0.206853
0.523729 0.154876 -3.08149e-33 0.21051
0 0.546332 0 0.176577
0.523729 0.159528 0 0.210423
0.467897 0.284867 0 0.201964
0.523729 0.16418 -2.31298e-18 0.210335
0.523729 0.173822 0 0.210142
0.412065 0.368496 0 0.195085
0.523729 0.183814 0 0.209929
0.467897 0.29889 3.46945e-18 0.201508
0.350249 0.431051 0 0.188457
0.219993 0.51269 3.46945e-18 0.178979
0.523729 0.194169 0 0.209695
0.288433 0.48061 0 0.183424
0.523729 0.2049 0 0.209439
0.467897 0.313423 0 0.201011
0.075776 0.55809 0 0.175938
0.412065 0.385557 0 0.194397
0.523729 0.21602 -3.08149e-33 0.209157
0.151552 0.546332 0 0.176972
0 0.569849 0 0.175273
0.350249 0.450382 3.46945e-18 0.1876
0.467897 0.328483 -3.46945e-18 0.200469
0.574156 0.00184055 0 0.216633
0.574156 0.00558849 0 0.216648
0.574156 0.00947248 3.46945e-18 0.216672
0.574156 0.0134975 -3.46945e-18 0.216699
0.574157 0.0176687 3.46945e-18 0.216718
0.574156 0.0219913 0 0.216727
0.574156 0.0264708 0 0.216733
0.574157 0.031113 3.46945e-18 0.21674
0.574156 0.0359237 3.46945e-18 0.21675
0.574157 0.0409092 3.46945e-18 0.216761
0.523729 0.239487 0 0.208512
0.574156 0.0460755 -3.46945e-18 0.216774
0.574156 0.0514296 0 0.21679
0.412065 0.403236 0 0.193653
0.574157 0.0569779 0 0.21681
0.574156 0.0627277 0 0.216832
0.574156 0.0686863 0 0.216854
0.219992 0.534985 0 0.177909
0.288433 0.501741 3.70071e-18 0.182427
0.574156 0.0748612 0 0.216869
0.574156 0.0812603 3.46945e-18 0.216853
0.467897 0.344091 0 0.199881
0.574156 0.0878917 0 0.21679
0.523729 0.251863 0 0.208145
0.574156 0.0947639 -3.46945e-18 0.2167
0.574156 0.101886 3.46945e-18 0.2166
0.574156 0.109266 -3.46945e-18 0.216491
0.574156 0.116914 3.46945e-18 0.216372
0.412065 0.416977 1.54074e-33 0.193051
0.350249 0.470415 0 0.18668
0.523729 0.264688 0 0.207744
0.075776 0.582034 0 0.174606
0.574156 0.12484 3.46945e-18 0.21624
0.574156 0.133054 0 0.216094
0.412065 0.421557 3.08149e-33 0.192851
0.151552 0.569849 0 0.175731
0.467897 0.360265 -3.46945e-18 0.199244
0.574156 0.141565 -3.46945e-18 0.215934
0.523729 0.27798 0 0.207307
0.574156 0.150386 0 0.215758
0 0.594219 0 0.173911
0.574157 0.159528 0 0.215565
0.574156 0.16418 0 0.216024
0.288433 0.523639 -9.25154e-19 0.181362
0.574156 0.169001 -3.46945e-18 0.215354
0.523729 0.291753 0 0.206832
0.219993 0.558091 3.46945e-18 0.176765
0.467897 0.377027 -3.46945e-18 0.198554
0.574156 0.178818 0 0.215122
0.412065 0.440544 -2.31298e-18 0.191988
0.350249 0.491175 3.46945e-18 0.185692
0.574156 0.188992 0 0.21487
0.523729 0.306027 2.31298e-18 0.206317
0.574156 0.199534 0 0.214594
0.574157 0.21046 -3.46945e-18 0.214294
0.075776 0.606847 0 0.173213
0.467897 0.394397 0 0.197809
0.151552 0.594219 0 0.174421
0.523729 0.320819 0 0.205758
0.574156 0.221782 -3.46945e-18 0.213967
0.412065 0.46022 -2.31298e-18 0.191061
0.288433 0.546332 0 0.180222
0 0.619475 0 0.172486
0.574156 0.233515 3.46945e-18 0.213612
0.350249 0.51269 0 0.184635
0.219992 0.582034 3.46945e-18 0.175543
0.523729 0.336148 0 0.205153
0.467897 0.412396 -3.46945e-18 0.197005
0.574156 0.245675 3.46945e-18 0.213226
0.624584 0 0 0.223366
0.624584 0.00368111 0 0.223372
0.624584 0.00749587 0 0.223391
0.624584 0.0114491 0 0.223416
0.624584 0.0155459 0 0.223439
0.624584 0.0197915 0 0.22345
0.624584 0.0241911 3.08149e-33 0.22345
0.624584 0.0287506 0 0.223446
0.624584 0.0334755 0 0.223443
0.624584 0.038372 0 0.223441
0.624584 0.0434463 0 0.223441
0.624584 0.0487048 0 0.223442
0.624584 0.0541543 0 0.223445
0.624584 0.0598016 0 0.223449
0.624584 0.0656539 0 0.223452
0.624584 0.0717187 0 0.223449
0.624584 0.0780037 0 0.223422
0.574157 0.258275 -3.46945e-18 0.212807
0.624584 0.0845169 0 0.223355
0.523729 0.352034 0 0.204499
0.624584 0.0912666 0 0.223254
0.624584 0.0982613 0 0.223136
0.412065 0.48061 -2.31298e-18 0.190067
0.624584 0.10551 0 0.223008
0.624584 0.113022 -2.31298e-18 0.222868
0.574156 0.271334 -3.46945e-18 0.212354
0.624584 0.120806 0 0.222715
0.467897 0.43105 3.46945e-18 0.196141
0.075776 0.632561 0 0.171755
0.624584 0.128874 0 0.222548
0.151552 0.619475 0 0.173038
0.288433 0.569849 0 0.179005
0.350249 0.534985 0 0.183504
0.624584 0.137234 -2.31298e-18 0.222365
0.523729 0.368496 0 0.203793
0.574156 0.284867 0 0.211863
0.624584 0.145897 0 0.222166
0.467897 0.440544 0 0.196187
0.624584 0.154876 0 0.221949
0.219992 0.606847 0 0.174242
0 0.645647 0 0.170993
0.624584 0.16418 -3.08149e-33 0.221713
0.574156 0.29889 3.46945e-18 0.211332
0.624584 0.173822 0 0.221457
0.412065 0.501741 -2.31298e-18 0.189003
0.467897 0.450382 -3.46945e-18 0.195212
0.523729 0.385557 -3.08149e-33 0.203032
0.624584 0.183814 0 0.221178
0.624584 0.194169 0 0.220877
0.574157 0.313423 -3.46945e-18 0.210759
0.624584 0.2049 0 0.220551
0.350249 0.558091 0 0.182296
0.288433 0.594219 0 0.177707
0.624584 0.21602 0 0.220197
0.523729 0.403236 -3.70071e-18 0.202213
0.574156 0.328483 -3.46945e-18 0.210141
0.151552 0.645647 0 0.17158
0.467897 0.470415 0 0.194216
0.075776 0.659208 0 0.170227
0.624584 0.227544 0 0.219815
0.412065 0.523639 -2.31298e-18 0.187864
0.523729 0.41545 -1.54074e-33 0.201626
0.624584 0.239487 3.70071e-18 0.219402
0.574156 0.344091 3.46945e-18 0.209474
0.219992 0.632561 0 0.172858
0.67013 0.00184055 -3.46945e-18 0.229686
0.67013 0.00558849 -3.46945e-18 0.229699
0.67013 0.00947248 3.46945e-18 0.229722
0.67013 0.0134975 -3.46945e-18 0.22975
0.67013 0.0176687 3.46945e-18 0.229766
0.67013 0.0219913 0 0.229765
0.67013 0.0264708 0 0.229752
0.67013 0.031113 0 0.229738
0.67013 0.0359237 0 0.229725
0.67013 0.0409092 3.46945e-18 0.229712
0.67013 0.0460755 3.46945e-18 0.229701
0.67013 0.0514296 0 0.22969
0.523729 0.421557 3.08149e-33 0.201332
0.67013 0.0569779 0 0.229678
0 0.67277 0 0.169427
0.67013 0.0627277 -3.46945e-18 0.229665
0.624584 0.251863 0 0.218957
0.67013 0.0686863 0 0.229651
0.67013 0.0748612 0 0.22962
0.67013 0.0812603 0 0.229546
0.67013 0.0878918 0 0.229433
0.67013 0.0947639 0 0.229299
0.574156 0.360265 3.46945e-18 0.208757
0.67013 0.101886 0 0.229155
0.523729 0.431051 0 0.200859
0.624584 0.264688 0 0.218477
0.467897 0.491175 3.46945e-18 0.19315
0.67013 0.109266 3.46945e-18 0.228998
0.350249 0.582034 0 0.181006
0.67013 0.116914 0 0.228827
0.67013 0.12484 0 0.228641
0.67013 0.133054 0 0.228439
0.288433 0.619475 0 0.176325
0.624584 0.27798 2.31298e-18 0.217959
0.412065 0.546332 -2.31298e-18 0.186647
0.523729 0.440544 -3.08149e-33 0.200387
0.67013 0.141566 0 0.228219
0.685312 0.0241911 -7.70372e-34 0.232517
0.685312 0.0434463 -7.70372e-34 0.232439
0.67013 0.150386 0 0.227982
0.574157 0.377027 -3.46945e-18 0.207984
0.67013 0.159528 -3.46945e-18 0.227725
0.624584 0.291753 0 0.217402
0.151552 0.67277 0 0.170041
0.075776 0.686823 0 0.168624
0.67013 0.169001 -3.46945e-18 0.227447
0.67013 0.178818 0 0.227147
0.467897 0.51269 0 0.192009
0.685312 0.113022 -7.70372e-34 0.231538
0.219992 0.659208 0 0.171389
0.624584 0.306027 0 0.216803
0.67013 0.188992 0 0.226823
0.574157 0.394397 0 0.207154
0.523729 0.46022 0 0.199373
0.685312 0.137234 -7.70372e-34 0.230917
0.67013 0.199535 0 0.226474
0.350249 0.606847 0 0.179633
0 0.700877 0 0.167785
0.624584 0.320819 0 0.216158
0.67013 0.21046 0 0.226098
0.412065 0.569849 -2.31298e-18 0.185348
0.67013 0.221782 0 0.225693
0.574156 0.412396 0 0.206262
0.288433 0.645647 0 0.174856
0.624584 0.336148 0 0.215466
0.67013 0.233516 -3.46945e-18 0.225258
0.467897 0.534986 0 0.190789
0.523729 0.48061 0 0.198288
0.624584 0.344091 0 0.215094
0.67013 0.245675 0 0.224789
0.715676 4.54095e-19 0 0.236995
0.715676 0.00368111 -9.25187e-19 0.237001
0.715676 0.00749587 -9.25187e-19 0.237019
0.715676 0.0114491 -9.25187e-19 0.237044
0.715676 0.0155459 -9.25187e-19 0.237064
0.715676 0.0197915 -9.25187e-19 0.237067
0.715676 0.0241911 -9.25187e-19 0.237051
0.715676 0.0287506 0 0.237025
0.715676 0.0334755 0 0.236997
0.715676 0.038372 -9.25187e-19 0.236967
0.624584 0.352034 3.08149e-33 0.214722
0.715676 0.0434463 -9.25187e-19 0.236938
0.151552 0.700877 0 0.168418
0.715676 0.0487048 0 0.236908
0.715676 0.0541543 0 0.236877
0.574156 0.43105 3.46945e-18 0.205306
0.715676 0.0598016 -9.25187e-19 0.236846
0.67013 0.258275 3.46945e-18 0.224286
0.715676 0.0656539 -9.25187e-19 0.236812
0.715676 0.0717187 -9.25187e-19 0.236765
0.075776 0.715441 0 0.166942
0.715676 0.0780037 0 0.236684
0.715676 0.0845169 0 0.236561
0.219992 0.686824 0 0.16983
0.715676 0.0912666 0 0.23641
0.715676 0.0982613 0 0.236244
0.67013 0.271334 3.46945e-18 0.223746
0.350249 0.632561 -3.46945e-18 0.17817
0.412065 0.594219 -2.31298e-18 0.183963
0.715676 0.10551 0 0.236066
0.715676 0.113022 0 0.235872
0.624584 0.368496 0 0.213924
0.523729 0.501741 3.70071e-18 0.197128
0.715676 0.120806 0 0.235663
0.715676 0.128874 0 0.235437
0.67013 0.284867 0 0.223167
0.467897 0.558091 3.46945e-18 0.189487
0.715676 0.137234 0 0.235193
0.574156 0.450382 3.46945e-18 0.204281
0 0.730005 0 0.166061
0.715676 0.145897 0 0.234929
0.288433 0.67277 0 0.173296
0.715676 0.154876 0 0.234646
0.67013 0.29889 -3.46945e-18 0.222545
0.624584 0.385557 0 0.213068
0.715676 0.16418 0 0.234341
0.715676 0.173822 0 0.234013
0.715676 0.183814 0 0.233661
0.67013 0.313423 -3.46945e-18 0.221879
0.523729 0.523639 3.70071e-18 0.195887
0.715676 0.194169 0 0.233284
0.574156 0.470415 0 0.203184
0.624584 0.403236 -3.70071e-18 0.212152
0.743101 0.0241911 -7.70372e-34 0.241916
0.412065 0.619475 -2.31298e-18 0.182487
0.715676 0.2049 0 0.232878
0.151552 0.730005 0 0.166707
0.67013 0.328483 0 0.221165
0.350249 0.659208 0 0.176615
0.467897 0.582034 0 0.188098
0.715676 0.21602 0 0.232444
0.219992 0.715441 0 0.16818
0.075776 0.745098 0 0.165175
0.715676 0.227544 0 0.231979
0.67013 0.344091 0 0.2204
0.624584 0.421557 0 0.21117
0.743101 0.128874 -7.70372e-34 0.240004
0.715676 0.239487 0 0.23148
0.574156 0.491175 3.46945e-18 0.202011
0.756814 0.00184056 -3.46945e-18 0.243891
0.523729 0.546332 0 0.194563
0.756813 0.00558849 -3.46945e-18 0.243904
0.756813 0.00947248 -3.46945e-18 0.243926
0.756813 0.0134975 -3.46945e-18 0.243953
0.756814 0.0155459 0 0.244376
0.756814 0.0176687 0 0.243964
0.756814 0.0219913 3.46945e-18 0.243948
0.756814 0.0264709 3.46945e-18 0.243915
0.756813 0.0311131 3.46945e-18 0.243874
0.756813 0.0359238 -3.46945e-18 0.24383
0.288433 0.700877 0 0.17164
0.756813 0.0409092 -3.46945e-18 0.243785
0.756813 0.0460755 0 0.243738
0.756813 0.0514296 0 0.24369
0.715676 0.251863 0 0.230947
0.756814 0.0569779 0 0.243641
0.756814 0.0627277 0 0.24359
0.756814 0.0686863 0 0.243534
0 0.76019 0 0.16425
0.756813 0.0748612 0 0.243451
0.67013 0.360265 -3.46945e-18 0.219581
0.756814 0.0812603 0 0.243318
0.756814 0.0878917 0 0.243149
0.756813 0.0947639 -3.46945e-18 0.242966
0.715676 0.264688 0 0.230376
0.756814 0.101886 -3.46945e-18 0.242768
0.624584 0.440544 0 0.21012
0.756814 0.109266 0 0.242556
0.756814 0.116914 0 0.242326
0.412065 0.645647 0 0.180918
0.467897 0.606847 -3.46945e-18 0.186618
0.756814 0.120806 0 0.24255
0.756813 0.12484 3.46945e-18 0.242079
0.715676 0.27798 -9.25187e-19 0.229766
0.756813 0.133054 -3.46945e-18 0.241813
0.67013 0.377027 0 0.218706
0.756814 0.137234 0 0.242007
0.574157 0.51269 3.46945e-18 0.200758
0.756813 0.141566 3.46945e-18 0.241528
0.685312 0.352034 -7.70372e-34 0.222261
0.743101 0.2049 -7.70372e-34 0.237228
0.350249 0.686824 0 0.174964
0.756813 0.150386 -3.46945e-18 0.241221
0.756814 0.154876 0 0.241383
0.715676 0.291753 3.70074e-18 0.229114
0.756814 0.159528 3.46945e-18 0.240893
0.523729 0.569849 0 0.193151
0.72743 0.264688 0 0.232173
0.756814 0.16418 0 0.241038
0.151552 0.76019 3.70071e-18 0.164904
0.756813 0.169001 -3.46945e-18 0.240541
0.624584 0.46022 0 0.208997
0.219993 0.745098 0 0.166433
0.67013 0.394396 -3.46945e-18 0.217769
0.756813 0.178818 -3.46945e-18 0.240165
0.715676 0.306027 -9.25187e-19 0.228417
0.075776 0.775831 0 0.16332
0.756814 0.188992 0 0.239762
0.756814 0.199535 0 0.239332
0.715676 0.320819 0 0.227673
0.574156 0.534986 3.46945e-18 0.19942
0.288433 0.730005 0 0.169886
0.756814 0.21046 3.46945e-18 0.238871
0.467897 0.632561 0 0.185042
0.67013 0.412396 -3.46945e-18 0.216768
0.624584 0.48061 -3.08149e-33 0.207798
0.756814 0.221782 0 0.23838
0.412065 0.67277 -2.31298e-18 0.179249
0.715676 0.336148 0 0.226879
0 0.791472 0 0.162348
0.756813 0.233515 3.46945e-18 0.237856
0.523729 0.594219 0 0.191646
0.624584 0.487654 1.54074e-33 0.207371
0.756814 0.245675 0 0.237296
0.350249 0.715441 3.46945e-18 0.173211
0.67013 0.43105 3.46945e-18 0.215699
0.715676 0.352034 -9.25187e-19 0.22603
0.797951 9.08189e-19 0 0.251621
0.797951 0.00368111 2.31298e-18 0.251627
0.797951 0.00749587 2.31298e-18 0.251645
0.797951 0.0114491 2.31298e-18 0.25167
0.797951 0.0141803 7.70372e-34 0.251682
0.797951 0.0155459 0 0.251688
0.797951 0.0169611 7.70372e-34 0.251685
0.797951 0.0197915 -3.08149e-33 0.251681
0.797951 0.0219913 0 0.251664
0.797951 0.0241911 3.08149e-33 0.251647
0.797951 0.0264709 0 0.251621
0.797951 0.0287506 -3.08149e-33 0.251595
0.797951 0.0334755 2.31298e-18 0.251533
0.797951 0.038372 2.31298e-18 0.251468
0.797951 0.0434463 2.31298e-18 0.251399
0.797951 0.0487048 2.31298e-18 0.251327
0.756814 0.258275 -3.46945e-18 0.236699
0.797951 0.0541543 2.31298e-18 0.251252
0.797951 0.0598016 2.31298e-18 0.251175
0.797951 0.0656539 2.31298e-18 0.251091
0.574156 0.55809 3.46945e-18 0.197992
0.624584 0.501741 3.70071e-18 0.206517
0.797951 0.0717187 2.31298e-18 0.250987
0.797951 0.0780037 2.31298e-18 0.250841
0.797951 0.0845169 0 0.250655
0.797951 0.0912666 0 0.250444
0.797951 0.0982613 -3.08149e-33 0.250218
0.756814 0.271334 3.46945e-18 0.236063
0.797951 0.10551 0 0.249976
0.715676 0.368496 -9.25187e-19 0.225125
0.151552 0.791472 3.70071e-18 0.163004
0.797951 0.113022 0 0.249716
0.219992 0.775831 3.46945e-18 0.164587
0.797951 0.118211 7.70372e-34 0.24953
0.770526 0.239487 -3.08149e-33 0.239994
0.797951 0.120806 0 0.249437
0.67013 0.450382 -3.46945e-18 0.214557
0.797951 0.128874 3.08149e-33 0.24914
0.467897 0.659208 0 0.183366
0.756814 0.284867 -3.46945e-18 0.235385
0.743101 0.320819 -7.70372e-34 0.231728
0.797951 0.137234 0 0.248822
0.797951 0.141566 0 0.248652
0.797951 0.145897 0 0.248482
0.523729 0.619475 0 0.190043
0.075776 0.807681 -3.46945e-18 0.16137
0.797951 0.150387 0 0.248302
0.797951 0.154876 9.25187e-19 0.248121
0.715676 0.385557 0 0.22416
0.412065 0.700877 -2.31298e-18 0.177477
0.288433 0.76019 0 0.16803
0.756814 0.29889 0 0.234662
0.797951 0.16418 0 0.247735
0.624584 0.523639 3.70071e-18 0.205151
0.797951 0.167394 7.70372e-34 0.247598
0.797951 0.173822 0 0.247325
0.574156 0.582034 0 0.196471
0.67013 0.470415 0 0.213338
0.797951 0.183814 -3.08149e-33 0.246888
0.756814 0.313423 0 0.233892
0.797951 0.194169 0 0.246423
0.715676 0.403236 3.70074e-18 0.22313
0.151552 0.807681 0 0.162003
0.797951 0.197746 -7.70372e-34 0.246258
0.350249 0.745097 0 0.171354
0.797951 0.2049 3.08149e-33 0.245929
0 0.823889 0 0.16035
0.756813 0.328483 3.46945e-18 0.233073
0.797951 0.21046 0 0.245666
0.797951 0.21602 -3.08149e-33 0.245403
0.797951 0.223703 7.70372e-34 0.245031
0.797951 0.227544 0 0.244845
0.624584 0.546332 0 0.203694
0.715676 0.421557 -9.25187e-19 0.222032
0.67013 0.491175 3.46945e-18 0.212038
0.797951 0.231525 7.70372e-34 0.244647
0.467897 0.686823 0 0.181584
0.523729 0.645647 0 0.188337
0.756813 0.344091 0 0.2322
0.822721 0.120806 7.70372e-34 0.254178
0.797951 0.239487 -3.08149e-33 0.244252
0.822721 0.137234 7.70372e-34 0.253509
0.835106 0.00184055 0 0.258952
0.835106 0.00558849 0 0.258965
0.835106 0.00947248 -3.46945e-18 0.258988
0.835106 0.0134975 -3.46945e-18 0.259016
0.835106 0.0176687 -3.46945e-18 0.259022
0.835106 0.0219913 0 0.258993
0.574156 0.606847 0 0.19485
0.835106 0.0241911 0 0.259213
0.835106 0.0264709 0 0.258936
0.822721 0.145897 -7.70372e-34 0.253142
0.835106 0.0311131 -3.46945e-18 0.258861
0.835106 0.0359238 -3.46945e-18 0.258778
0.835106 0.0409091 -3.46945e-18 0.258689
0.835106 0.0460755 0 0.258596
0.835106 0.0514296 -3.46945e-18 0.258498
0.797951 0.251863 2.31298e-18 0.243622
0.835106 0.0541543 0 0.258692
0.835106 0.0569779 3.46945e-18 0.258397
0.219992 0.807681 0 0.162638
0.822721 0.154876 7.70372e-34 0.252752
0.835106 0.0627277 0 0.258292
0.151552 0.823889 0 0.161003
0.797951 0.255069 -1.54074e-33 0.243454
0.835106 0.0686863 0 0.258173
0.756814 0.360265 0 0.23127
0.412065 0.730005 0 0.175597
0.835106 0.0748612 -3.46945e-18 0.258017
0.822721 0.16418 7.70372e-34 0.252338
0.835106 0.0812603 -3.46945e-18 0.257812
0.835106 0.0878917 0 0.257577
0.715676 0.440544 0 0.220861
0.835106 0.094764 0 0.257325
0.797951 0.264688 0 0.242953
0.835106 0.101886 0 0.257057
0.835106 0.109266 0 0.25677
0.288433 0.791472 0 0.166067
0.835106 0.116914 0 0.256464
0.67013 0.51269 3.46945e-18 0.210651
0.797951 0.274657 6.16298e-33 0.24242
0.075776 0.840686 -3.46945e-18 0.159323
0.835106 0.12484 3.46945e-18 0.256137
0.797951 0.27798 -3.08149e-33 0.242242
0.624584 0.569849 0 0.202142
0.756813 0.377026 0 0.230281
0.835106 0.133054 -3.46945e-18 0.25579
0.835106 0.141565 0 0.255421
0.835107 0.150387 0 0.25503
0.797951 0.291753 2.31298e-18 0.241488
0.835106 0.159528 -3.46945e-18 0.254614
0.715676 0.46022 -9.25187e-19 0.219614
0.816529 0.239487 -1.54074e-33 0.247538