# pMean  POINT_DATA 63831
# x  y  z  pMean
0 0.5 3.39583e-17 0.179122
0 0.5 -0.00617931 0.179242
0 0.5 0.00617931 0.179006
0.0124865 0.5 0.00617931 0.179006
0.0124865 0.5 -0.00617931 0.179242
0 0.5 -0.0688207 0.180211
0 0.5 0.0688207 0.17758
0.0124865 0.5 0.0688207 0.17758
0.0124865 0.5 -0.0688207 0.180211
0 0.5 0.075 0.177414
0 0.5 -0.075 0.180283
0 0.5 -0.0811793 0.180358
0 0.5 0.0811793 0.177252
0.0124865 0.5 0.0811793 0.177252
0.0124865 0.5 -0.0811793 0.180358
0.075776 0.5 0.0375 0.178417
0.075776 0.5 -0.0375 0.179847
0.075776 0.5 0.1125 0.176431
0.075776 0.5 -0.1125 0.180737
0 0.5 -0.143821 0.180879
0 0.5 0.143821 0.175383
0.0124865 0.5 0.143821 0.175383
0.0124865 0.5 -0.143821 0.180879
0 0.5 0.15 0.175175
0 0.5 -0.15 0.180907
0.151149 0.5 2.20565e-18 0.179349
0 0.5 -0.156179 0.180939
0 0.5 0.156179 0.174971
0.0124865 0.5 0.156179 0.174971
0.0124865 0.5 -0.156179 0.180939
0.151149 0.5 0.075 0.177619
0.151149 0.5 -0.075 0.180528
0.075776 0.5 0.1875 0.173938
0.075776 0.5 -0.1875 0.181097
0.151149 0.5 0.15 0.17536
0.151149 0.5 -0.15 0.181161
0 0.5 -0.218821 0.181004
0 0.5 0.218821 0.172687
0.0124865 0.5 0.218821 0.172687
0.0124865 0.5 -0.218821 0.181004
0.219992 0.5 0.0375 0.178824
0.219992 0.5 -0.0375 0.180311
0 0.5 0.225 0.172439
0 0.5 -0.225 0.180985
0 0.5 -0.231179 0.180969
0 0.5 0.231179 0.172195
0.0124865 0.5 0.231179 0.172195
0.0124865 0.5 -0.231179 0.180969
0.219993 0.5 0.1125 0.176809
0.219993 0.5 -0.1125 0.181218
0.151149 0.5 0.225 0.172595
0.151149 0.5 -0.225 0.181245
0.075776 0.5 0.2625 0.170959
0.075776 0.5 -0.2625 0.180892
0.288069 0.5 3.34766e-17 0.182496
0.219992 0.5 0.1875 0.174269
0.219992 0.5 -0.1875 0.181593
0 0.5 0.293821 0.169521
0 0.5 -0.293821 0.180575
0.0124865 0.5 -0.293821 0.180575
0.0124865 0.5 0.293821 0.169521
0.288069 0.5 0.075 0.180667
0.288069 0.5 -0.075 0.18373
0 0.5 0.3 0.169236
0 0.5 -0.3 0.180512
0 0.5 0.306179 0.168954
0 0.5 -0.306179 0.180452
0.0124865 0.5 0.306179 0.168954
0.0124865 0.5 -0.306179 0.180452
0.288069 0.5 0.15 0.178268
0.288069 0.5 -0.15 0.18437
0.151149 0.5 0.3 0.169357
0.151149 0.5 -0.3 0.180765
0.219992 0.5 0.2625 0.171224
0.219992 0.5 -0.2625 0.181398
0.075776 0.5 0.3375 0.167531
0.075776 0.5 -0.3375 0.180151
0.350249 0.5 0.0375 0.184466
0.350249 0.5 -0.0375 0.186052
0.288069 0.5 0.225 0.175328
0.288069 0.5 -0.225 0.184417
0.350249 0.5 0.1125 0.182247
0.350249 0.5 -0.1125 0.187003
0 0.5 0.368821 0.165923
0 0.5 -0.368821 0.17962
0.0124865 0.5 0.368821 0.165923
0.0124865 0.5 -0.368821 0.17962
0 0.5 0.375 0.165605
0 0.5 -0.375 0.179515
0 0.5 -0.381179 0.179413
0 0.5 0.381179 0.165289
0.0124865 0.5 0.381179 0.165289
0.0124865 0.5 -0.381179 0.179413
0.350249 0.5 0.1875 0.179439
0.350249 0.5 -0.1875 0.187332
0.219992 0.5 0.3375 0.167729
0.219992 0.5 -0.3375 0.180618
0.151149 0.5 0.375 0.165689
0.151149 0.5 -0.375 0.179748
0.411736 0.5 1.70099e-17 0.189074
0.288069 0.5 0.3 0.171884
0.288069 0.5 -0.3 0.183853
0.411736 0.5 0.075 0.187085
0.411736 0.5 -0.075 0.190389
0.075776 0.5 0.4125 0.163696
0.075776 0.5 -0.4125 0.178898
0.350249 0.5 -0.2625 0.187014
0.350249 0.5 0.2625 0.176089
0.411736 0.5 0.15 0.184444
0.411736 0.5 -0.15 0.191026
0 0.5 -0.443821 0.178164
0 0.5 0.443821 0.161936
0.0124865 0.5 0.443821 0.161936
0.0124865 0.5 -0.443821 0.178164
0 0.5 0.45 0.161588
0 0.5 -0.45 0.178019
0 0.5 -0.456179 0.177876
0 0.5 0.456179 0.161242
0.0124865 0.5 0.456179 0.161242
0.0124865 0.5 -0.456179 0.177876
0.219992 0.5 -0.4125 0.179325
0.219993 0.5 0.4125 0.163819
0.411736 0.5 0.225 0.18119
0.411736 0.5 -0.225 0.190979
0.467897 0.5 0.0375 0.191822
0.467897 0.5 -0.0375 0.193542
0.288069 0.5 0.375 0.16798
0.288069 0.5 -0.375 0.182711
0.151149 0.5 -0.45 0.178228
0.151149 0.5 0.45 0.161632
0.467897 0.5 0.1125 0.1894
0.467897 0.5 -0.1125 0.194538
0.350249 0.5 0.3375 0.172224
0.350249 0.5 -0.3375 0.18606
0.075776 0.5 -0.4875 0.177158
0.075776 0.5 0.4875 0.159497
0.467897 0.5 0.1875 0.186298
0.467897 0.5 -0.1875 0.19481
0.411736 0.5 0.3 0.177372
0.411736 0.5 -0.3 0.19025
0 0.5 -0.518821 0.176236
0 0.5 0.518821 0.157605
0.0124865 0.5 0.518821 0.157605
0.0124865 0.5 -0.518821 0.176236
0.523432 0.5 3.75966e-17 0.197205
0 0.5 0.525 0.157231
0 0.5 -0.525 0.176053
0.523432 0.5 0.075 0.195025
0.523432 0.5 -0.075 0.198619
0 0.5 -0.531179 0.175873
0 0.5 0.531179 0.156859
0.0124865 0.5 0.531179 0.156859
0.0124865 0.5 -0.531179 0.175873
0.288069 0.5 0.45 0.163666
0.288069 0.5 -0.45 0.181032
0.219992 0.5 -0.4875 0.177533
0.219992 0.5 0.4875 0.159539
0.467897 0.5 -0.2625 0.194347
0.467897 0.5 0.2625 0.182565
0.350249 0.5 0.4125 0.167904
0.350249 0.5 -0.4125 0.18453
0.523432 0.5 0.15 0.192106
0.523432 0.5 -0.15 0.199251
0.151149 0.5 0.525 0.157232
0.151149 0.5 -0.525 0.176233
0.411736 0.5 0.375 0.17304
0.411736 0.5 -0.375 0.188875
0.075776 0.5 0.5625 0.154981
0.075776 0.5 -0.5625 0.174967
0.523432 0.5 0.225 0.188485
0.523432 0.5 -0.225 0.1991
0.574156 0.5 0.0375 0.200556
0.574157 0.5 -0.0375 0.202438
0.467897 0.5 0.3375 0.178265
0.467897 0.5 -0.3375 0.193176
0.574156 0.5 0.1125 0.197871
0.574156 0.5 -0.1125 0.203489
0 0.5 -0.593821 0.173873
0 0.5 0.593821 0.152977
0.0124865 0.5 0.593821 0.152977
0.0124865 0.5 -0.593821 0.173873
0.288069 0.5 0.525 0.158994
0.288069 0.5 -0.525 0.17885
0 0.5 0.6 0.15258
0 0.5 -0.6 0.173657
0.350249 0.5 0.4875 0.163184
0.350249 0.5 -0.4875 0.182448
0.523432 0.5 -0.3 0.198179
0.523432 0.5 0.3 0.184221
0.219992 0.5 0.5625 0.154938
0.219992 0.5 -0.5625 0.175282
0.574156 0.5 0.1875 0.19442
0.574157 0.5 -0.1875 0.2037
0 0.5 -0.606179 0.173442
0 0.5 0.606179 0.152186
0.0124865 0.5 0.606179 0.152186
0.0124865 0.5 -0.606179 0.173442
0.411736 0.5 0.45 0.168254
0.411736 0.5 -0.45 0.186898
0.151149 0.5 0.6 0.152537
0.151149 0.5 -0.6 0.173803
0.467897 0.5 0.4125 0.173449
0.467897 0.5 -0.4125 0.191348
0.624316 0.5 2.64545e-17 0.206603
0.624316 0.5 0.075 0.204191
0.624316 0.5 -0.075 0.208135
0.574156 0.5 -0.2625 0.203082
0.574157 0.5 0.2625 0.190246
0.075776 0.5 0.6375 0.150196
0.075776 0.5 -0.6375 0.172364
0.624316 0.5 0.15 0.200934
0.624316 0.5 -0.15 0.208767
0.523432 0.5 0.375 0.17938
0.523432 0.5 -0.375 0.196525
0.350249 0.5 -0.5625 0.179863
0.350249 0.5 0.5625 0.158124
0.624316 0.5 0.225 0.19688
0.624316 0.5 -0.225 0.208504
0.288069 0.5 0.6 0.154019
0.288069 0.5 -0.6 0.176207
0.574157 0.5 0.3375 0.185424
0.574157 0.5 -0.3375 0.201661
0.411736 0.5 0.525 0.163078
0.411736 0.5 -0.525 0.184362
0 0.5 -0.668821 0.171115
0 0.5 0.668821 0.148101
0.0124865 0.5 0.668821 0.148101
0.0124865 0.5 -0.668821 0.171115
0.67013 0.5 0.0375 0.210432
0.67013 0.5 -0.0375 0.212506
0.219993 0.5 -0.6375 0.17261
0.219992 0.5 0.6375 0.150067
0 0.5 0.675 0.147686
0 0.5 -0.675 0.170868
0.467897 0.5 -0.4875 0.188899
0.467897 0.5 0.4875 0.16819
0.67013 0.5 0.1125 0.207434
0.67013 0.5 -0.1125 0.21362
0 0.5 -0.681179 0.170623
0 0.5 0.681179 0.147274
0.0124865 0.5 0.681179 0.147274
0.0124865 0.5 -0.681179 0.170623
0.523432 0.5 0.45 0.174032
0.523432 0.5 -0.45 0.194187
0.151149 0.5 0.675 0.147598
0.151149 0.5 -0.675 0.170977
0.624316 0.5 0.3 0.192093
0.624316 0.5 -0.3 0.207362
0.67013 0.5 0.1875 0.203561
0.67013 0.5 -0.1875 0.213772
0.574156 0.5 0.4125 0.180027
0.574156 0.5 -0.4125 0.199482
0.715434 0.5 3.51282e-17 0.216967
0.075776 0.5 0.7125 0.145192
0.075776 0.5 -0.7125 0.169389
0.715434 0.5 0.075 0.214284
0.715434 0.5 -0.075 0.218637
0.67013 0.5 0.2625 0.198865
0.67013 0.5 -0.2625 0.212977
0.350249 0.5 -0.6375 0.176822
0.350249 0.5 0.6375 0.152784
0.411736 0.5 0.6 0.157579
0.411736 0.5 -0.6 0.181319
0.624316 0.5 0.375 0.186656
0.624316 0.5 -0.375 0.205379
0.715434 0.5 0.15 0.210633
0.715434 0.5 -0.15 0.219275
0.467897 0.5 0.5625 0.162557
0.467897 0.5 -0.5625 0.18589
0.288069 0.5 0.675 0.148797
0.288069 0.5 -0.675 0.173151
0.523432 0.5 0.525 0.168255
0.523432 0.5 -0.525 0.191221
0 0.5 -0.743821 0.168004
0 0.5 0.743821 0.143026
0.0124865 0.5 -0.743821 0.168004
0.0124865 0.5 0.743821 0.143026
0.219992 0.5 0.7125 0.144975
0.219992 0.5 -0.7125 0.16956
0.715434 0.5 0.225 0.206074
0.715434 0.5 -0.225 0.218884
0 0.5 0.75 0.142597
0 0.5 -0.75 0.167729
0.67013 0.5 0.3375 0.193439
0.67013 0.5 -0.3375 0.211257
0.574157 0.5 0.4875 0.174139
0.574157 0.5 -0.4875 0.196605
0 0.5 -0.756179 0.167458
0 0.5 0.756179 0.142171
0.0124865 0.5 0.756179 0.142171
0.0124865 0.5 -0.756179 0.167458
0.756813 0.5 0.0375 0.221082
0.756813 0.5 -0.0375 0.223375
0.151149 0.5 0.75 0.142464
0.151149 0.5 -0.75 0.167798
0.756813 0.5 0.1125 0.217727
0.756813 0.5 -0.1125 0.224566
0.624316 0.5 -0.45 0.202616
0.624316 0.5 0.45 0.180653
0.715434 0.5 0.3 0.200685
0.715434 0.5 -0.3 0.217483
0.756813 0.5 0.1875 0.213371
0.756813 0.5 -0.1875 0.224661
0.67013 0.5 -0.4125 0.208664
0.67013 0.5 0.4125 0.187369
0.411736 0.5 0.675 0.151825
0.411736 0.5 -0.675 0.177828
0.467897 0.5 0.6375 0.156627
0.467897 0.5 -0.6375 0.182381
0.075776 0.5 0.7875 0.140018
0.075776 0.5 -0.7875 0.166086
0.350249 0.5 0.7125 0.147226
0.350249 0.5 -0.7125 0.173381
0.523432 0.5 0.6 0.16213
0.523432 0.5 -0.6 0.187694
0.797732 0.5 3.20924e-17 0.227937
0.756813 0.5 0.2625 0.208085
0.756814 0.5 -0.2625 0.223653
0.797732 0.5 0.075 0.224948
0.797732 0.5 -0.075 0.229765
0.288069 0.5 0.75 0.143382
0.288069 0.5 -0.75 0.169729
0.574156 0.5 -0.5625 0.1931
0.574156 0.5 0.5625 0.167846
0.715434 0.5 0.375 0.194564
0.715434 0.5 -0.375 0.215118
0.797732 0.5 0.15 0.220853
0.797732 0.5 -0.15 0.230417
0.624316 0.5 0.525 0.17418
0.624316 0.5 -0.525 0.199148
0.219992 0.5 0.7875 0.139712
0.219992 0.5 -0.7875 0.166177
0 0.5 -0.818821 0.164583
0 0.5 0.818821 0.1378
0.0124865 0.5 -0.818821 0.164583
0.0124865 0.5 0.818821 0.1378
0 0.5 0.825 0.137361
0 0.5 -0.825 0.164285
0.756813 0.5 -0.3375 0.221581
0.756813 0.5 0.3375 0.201963
0.67013 0.5 0.4875 0.180747
0.67013 0.5 -0.4875 0.205285
0.797732 0.5 0.225 0.21573
0.797732 0.5 -0.225 0.229889
0 0.5 -0.831179 0.16399
0 0.5 0.831179 0.136924
0.0124865 0.5 0.831179 0.136924
0.0124865 0.5 -0.831179 0.16399
0.835106 0.5 -0.0375 0.234695
0.835106 0.5 0.0375 0.232156
0.151149 0.5 0.825 0.137182
0.151149 0.5 -0.825 0.164311
0.835106 0.5 0.1125 0.228398
0.835106 0.5 -0.1125 0.235974
0.715434 0.5 0.45 0.187818
0.715434 0.5 -0.45 0.211868
0.797732 0.5 0.3 0.209667
0.797732 0.5 -0.3 0.228197
0.467897 0.5 0.7125 0.150472
0.467897 0.5 -0.7125 0.178436
0.523432 0.5 0.675 0.15574
0.523432 0.5 -0.675 0.183677
0.411736 0.5 0.75 0.145882
0.411736 0.5 -0.75 0.173949
0.835106 0.5 0.1875 0.223508
0.835106 0.5 -0.1875 0.236017
0.574156 0.5 0.6375 0.161239
0.574156 0.5 -0.6375 0.189044
0.350249 0.5 -0.7875 0.169592
0.350249 0.5 0.7875 0.14151
0.756813 0.5 -0.4125 0.218525
0.756814 0.5 0.4125 0.195135
0.075776 0.5 -0.8625 0.1625
0.075776 0.5 0.8625 0.134719
0.624316 0.5 0.6 0.167336
0.624316 0.5 -0.6 0.195056
0.872064 0.5 4.32235e-17 0.239285
0.288069 0.5 0.825 0.13783
0.288069 0.5 -0.825 0.165992
0.67013 0.5 0.5625 0.173693
0.67013 0.5 -0.5625 0.2012
0.872064 0.5 0.075 0.235958
0.872064 0.5 -0.075 0.24128
0.835106 0.5 0.2625 0.217571
0.835106 0.5 -0.2625 0.234782
0.797732 0.5 0.375 0.202787
0.797732 0.5 -0.375 0.225412
0.872064 0.5 0.15 0.231376
0.872064 0.5 -0.15 0.24195
0.715434 0.5 0.525 0.180556
0.715434 0.5 -0.525 0.207822
0.219992 0.5 0.8625 0.134326
0.219993 0.5 -0.8625 0.162507
0 0.5 -0.893821 0.160896
0 0.5 0.893821 0.132469
0.0124865 0.5 0.893821 0.132469
0.0124865 0.5 -0.893821 0.160896
0 0.5 0.9 0.132024
0 0.5 -0.9 0.160578
0.756813 0.5 0.4875 0.187706
0.756813 0.5 -0.4875 0.214577
0.872064 0.5 0.225 0.225635
0.872064 0.5 -0.225 0.241283
0.835106 0.5 0.3375 0.210697
0.835106 0.5 -0.3375 0.232343
0 0.5 0.906179 0.131581
0 0.5 -0.906179 0.160263
0.0124865 0.5 0.906179 0.131581
0.0124865 0.5 -0.906179 0.160263
0.90582 0.5 -0.0375 0.246347
0.905821 0.5 0.0375 0.243541
0.151149 0.5 0.9 0.131801
0.90582 0.5 0.1125 0.239348
0.90582 0.5 -0.1125 0.247698
0.151149 0.5 -0.901373 0.16043
0.523432 0.5 0.75 0.149162
0.523432 0.5 -0.75 0.179245
0.574157 0.5 0.7125 0.154405
0.574156 0.5 -0.7125 0.184517
0.797732 0.5 0.45 0.19522
0.797732 0.5 -0.45 0.221622
0.467897 0.5 0.7875 0.144164
0.467897 0.5 -0.7875 0.174126
0.624316 0.5 0.675 0.16022
0.624316 0.5 -0.675 0.190427
0.411736 0.5 0.825 0.139814
0.411736 0.5 -0.825 0.169744
0.872064 0.5 0.3 0.218842
0.872064 0.5 -0.3 0.239279
0.67013 0.5 0.6375 0.166312
0.67013 0.5 -0.6375 0.196505
0.90582 0.5 0.1875 0.233881
0.90582 0.5 -0.1875 0.247706
0.350249 0.5 -0.8625 0.165512
0.350249 0.5 0.8625 0.135692
0.835106 0.5 0.4125 0.203033
0.835106 0.5 -0.4125 0.228785
0.715434 0.5 0.6 0.172901
0.715434 0.5 -0.6 0.203079
0.939201 0.5 4.40909e-17 0.250659
0.075776 0.5 -0.9375 0.158672
0.075776 0.5 0.9375 0.129343
0.939201 0.5 0.075 0.246955
0.939201 0.5 -0.075 0.252836
0.756814 0.5 0.5625 0.179799
0.756814 0.5 -0.5625 0.209834
0.905821 0.5 0.2625 0.227236
0.905821 0.5 -0.2625 0.246224
0.288069 0.5 0.9 0.132191
0.288069 0.5 -0.901373 0.161863
0.872064 0.5 0.375 0.211134
0.872064 0.5 -0.375 0.236034
0.939201 0.5 -0.15 0.253543
0.939201 0.5 0.15 0.241846
0.797732 0.5 0.525 0.187093
0.797732 0.5 -0.525 0.216934
0.219993 0.5 -0.9375 0.158594
0.219992 0.5 0.9375 0.128868
0.939201 0.5 0.225 0.235443
0.939201 0.5 -0.225 0.252762
0.90582 0.5 0.3375 0.219549
0.90582 0.5 -0.3375 0.243375
0.835106 0.5 -0.4875 0.224211
0.835107 0.5 0.4875 0.194721
0 0.5 0.968821 0.127083
0 0.5 -0.968821 0.156986
0.0124865 0.5 0.968821 0.127083
0.0124865 0.5 -0.968821 0.156986
0.969689 0.5 0.0375 0.254639
0.969689 0.5 -0.0375 0.257771
0.574156 0.5 0.7875 0.14743
0.574156 0.5 -0.7875 0.179604
0 0.5 0.975 0.126636
0 0.5 -0.975 0.156651
0.624316 0.5 0.75 0.152926
0.624316 0.5 -0.75 0.185355
0.969689 0.5 0.1125 0.249965
0.96969 0.5 -0.1125 0.259183
0.523432 0.5 0.825 0.142475
0.523432 0.5 -0.825 0.174474
0.67013 0.5 0.7125 0.158708
0.67013 0.5 -0.7125 0.191302
0 0.5 -0.981179 0.15632
0 0.5 0.981179 0.12619
0.467897 0.5 0.8625 0.13777
0.467897 0.5 -0.8625 0.169515
0.0124865 0.5 0.981179 0.12619
0.0124865 0.5 -0.981179 0.15632
0.872064 0.5 0.45 0.202673
0.872064 0.5 -0.45 0.231652
0.715434 0.5 0.675 0.164972
0.715434 0.5 -0.675 0.197752
0.939201 0.5 0.3 0.227873
0.939201 0.5 -0.3 0.250434
0.151149 0.5 0.975 0.126372
0.151149 0.5 -0.975 0.156591
0.969689 0.5 0.1875 0.243882
0.969689 0.5 -0.1875 0.259238
0.756814 0.5 0.6375 0.17156
0.756814 0.5 -0.6375 0.204418
0.411736 0.5 0.9 0.133682
0.411736 0.5 -0.901373 0.165134
0.90582 0.5 0.4125 0.210974
0.90582 0.5 -0.4125 0.23926
0.797732 0.5 0.6 0.178553
0.797732 0.5 -0.6 0.211472
1.00005 0.5 1.48897e-17 0.261757
0.350249 0.5 -0.9375 0.161195
0.350249 0.5 0.9375 0.129827
1.00005 0.5 0.0749309 0.257648
1.00005 0.5 -0.0749309 0.264082
0.969689 0.5 0.2625 0.23649
0.969689 0.5 -0.2625 0.257537
0.835106 0.5 0.5625 0.185898
0.835106 0.5 -0.5625 0.218753
1.00005 0.5 0.149862 0.251985
1.00005 0.5 -0.149862 0.264817
0.939201 0.5 0.375 0.219294
0.939201 0.5 -0.375 0.246702
0.075776 0.5 1.0125 0.123941
0.075776 0.5 -1.0125 0.154646
0.288069 0.5 0.975 0.12652
0.288069 0.5 -0.975 0.157774
0.872064 0.5 0.525 0.193618
0.872064 0.5 -0.525 0.226264
1.00005 0.5 0.224793 0.24488
1.00005 0.5 -0.224793 0.263928
0.96969 0.5 0.3375 0.227958
0.96969 0.5 -0.3375 0.254268
1.0271 0.5 0.0368226 0.265679
1.0271 0.5 -0.0368226 0.269086
0.90582 0.5 0.4875 0.201714
0.90582 0.5 -0.4875 0.234004
1.0271 0.5 0.110468 0.260589
1.0271 0.5 -0.110468 0.270478
0.67013 0.5 -0.7875 0.185693
0.67013 0.5 0.7875 0.150982
0.624316 0.5 0.825 0.145543
0.624316 0.5 -0.825 0.179933
0.219992 0.5 -1.0125 0.154484
0.219993 0.5 1.0125 0.123393
0.574156 0.5 0.8625 0.140393
0.574156 0.5 -0.8625 0.174387
0.715434 0.5 0.75 0.156879
0.715434 0.5 -0.75 0.191952
0.756813 0.5 -0.7125 0.198455
0.756814 0.5 0.7125 0.163107
0.523432 0.5 0.9 0.135748
0.939201 0.5 0.45 0.209895
0.939201 0.5 -0.45 0.241701
1.04168 0.5 0 0.270737
0.523432 0.5 -0.901373 0.169282
1.0271 0.5 0.184113 0.253959
1.0271 0.5 -0.184113 0.270594
0 0.5 1.04382 0.121684
0 0.5 -1.04382 0.152893
0.0124865 0.5 1.04382 0.121684
0.0124865 0.5 -1.04382 0.152893
1.00005 0.5 0.299723 0.236478
1.00005 0.5 -0.299723 0.261221
1.04168 0.5 0.0729162 0.266402
1.04168 0.5 -0.0729162 0.273166
0.797732 0.5 0.675 0.169748
0.797732 0.5 -0.675 0.205372
0.467897 0.5 -0.9375 0.164672
0.467897 0.5 0.9375 0.131353
0 0.5 1.05 0.121238
0 0.5 -1.05 0.152546
0.835106 0.5 0.6375 0.176747
0.835106 0.5 -0.6375 0.212553
1.04168 0.5 0.145832 0.260478
1.04168 0.5 -0.145832 0.273932
0.969689 0.5 -0.4125 0.249589
0.96969 0.5 0.4125 0.218466
0 0.5 1.05618 0.120793
0 0.5 -1.05618 0.152201
0.0124865 0.5 1.05618 0.120793
0.0124865 0.5 -1.05618 0.152201
1.05695 0.5 -0.0360764 0.275808
1.05695 0.5 0.0360764 0.272244
0.411736 0.5 0.975 0.127543
0.411736 0.5 -0.975 0.160596
0.872064 0.5 0.6 0.184134
0.872064 0.5 -0.6 0.220016
1.0271 0.5 0.257759 0.245891
1.0271 0.5 -0.257759 0.268675
0.151149 0.5 -1.05 0.152443
0.151149 0.5 1.05 0.120935
1.05695 0.5 0.108229 0.267045
1.05695 0.5 -0.108229 0.277197
1.04168 0.5 0.218749 0.253054
1.04168 0.5 -0.218749 0.273091
0.90582 0.5 0.5625 0.191924
0.90582 0.5 -0.5625 0.227765
1.00005 0.5 0.374654 0.22697
1.00005 0.5 -0.374654 0.256949
0.350249 0.5 1.0125 0.123963
0.350249 0.5 -1.0125 0.156692
1.05695 0.5 0.180382 0.260299
1.05695 0.5 -0.180382 0.277364
0.939201 0.5 0.525 0.199865
0.939201 0.5 -0.525 0.235582
1.0271 0.5 -0.331404 0.26501
1.0271 0.5 0.331404 0.236578
1.08112 0.5 3.20924e-17 0.279647
1.04168 0.5 0.291665 0.24428
1.04168 0.5 -0.291665 0.270309
1.08112 0.5 0.0709442 0.275139
1.08112 0.5 -0.0709442 0.282219
0.96969 0.5 0.4875 0.208228
0.96969 0.5 -0.4875 0.243654
1.05695 0.5 0.252535 0.252095
1.05695 0.5 -0.252535 0.275548
0.288069 0.5 1.05 0.120856
0.288069 0.5 -1.05 0.153388
0.075776 0.5 -1.0875 0.150461
0.075776 0.5 1.0875 0.118547
1.08112 0.5 0.141888 0.269047
1.08112 0.5 -0.141888 0.283043
0.715434 0.5 0.825 0.148728
0.715434 0.5 -0.825 0.185795
0.756814 0.5 0.7875 0.154557
0.756814 0.5 -0.7875 0.19207
0.67013 0.5 0.8625 0.143227
0.67013 0.5 -0.8625 0.179779
0.797732 0.5 0.75 0.1608
0.797732 0.5 -0.75 0.198773
0.624316 0.5 0.9 0.138155
1.00005 0.5 0.449585 0.21657
1.00005 0.5 -0.449585 0.25127
0.624316 0.5 -0.901373 0.174075
0.835106 0.5 0.7125 0.167405
0.835106 0.5 -0.7125 0.205765
0.574156 0.5 -0.9375 0.168946
0.574156 0.5 0.9375 0.133368
1.10076 0.5 0.0349809 0.282357
1.10076 0.5 -0.0349809 0.28616
1.08112 0.5 0.212832 0.261436
1.08112 0.5 -0.212832 0.28228
0.872064 0.5 0.675 0.174395
0.872064 0.5 -0.675 0.213072
1.04168 0.5 -0.364581 0.265867
1.04168 0.5 0.364581 0.234357
1.0271 0.5 -0.405049 0.259824
1.0271 0.5 0.405049 0.226228
1.05695 0.5 0.324688 0.242635
1.05695 0.5 -0.324688 0.271872
1.10076 0.5 -0.104943 0.287676
1.10076 0.5 0.104943 0.276952
0.523432 0.5 0.975 0.129047
0.523432 0.5 -0.975 0.164207
0.90582 0.5 0.6375 0.18179
0.90582 0.5 -0.6375 0.220699
0.219992 0.5 1.0875 0.117918
0.219992 0.5 -1.0875 0.150218
1.11376 0.5 1.15648e-18 0.287269
0.939201 0.5 0.6 0.189403
0.939201 0.5 -0.6 0.228515
1.10076 0.5 0.174905 0.269978
1.10076 0.5 -0.174905 0.287894
0.467897 0.5 -1.0125 0.159656
0.467897 0.5 1.0125 0.124972
1.11376 0.5 0.0693118 0.282596
1.11376 0.5 -0.0693118 0.289984
1.08112 0.5 0.283777 0.252452
1.08112 0.5 -0.285603 0.279406
0 0.5 -1.11882 0.14866
0 0.5 1.11882 0.116312
0.0124865 0.5 1.11882 0.116312
0.0124865 0.5 -1.11882 0.14866
0.969689 0.5 0.5625 0.197427
0.969689 0.5 -0.5625 0.236631
1.11376 0.5 0.138624 0.276326
1.11376 0.5 -0.138624 0.29088
0 0.5 1.125 0.11587
0 0.5 -1.125 0.148304
1.10076 0.5 0.244866 0.261514
1.10076 0.5 -0.244866 0.28623
0.411736 0.5 -1.05 0.155768
0.411736 0.5 1.05 0.121449
1.05695 0.5 -0.396841 0.266177
1.05695 0.5 0.396841 0.232121
1.00005 0.5 0.524516 0.205504
1.00005 0.5 -0.525427 0.24427
1.04168 0.5 -0.437497 0.259945
1.04168 0.5 0.437497 0.223504
0 0.5 1.13118 0.115429
0 0.5 -1.13118 0.147949
0.0124865 0.5 -1.13118 0.147949
0.0124865 0.5 1.13118 0.115429
1.11376 0.5 0.207935 0.268513
1.0271 0.5 -0.478694 0.253236
1.0271 0.5 0.478694 0.215076
1.11376 0.5 -0.213207 0.290176
1.07791 0.5 -0.354722 0.274362
0.151149 0.5 1.125 0.115524
0.151149 0.5 -1.125 0.14816
1.08112 0.5 0.354722 0.242299
1.13882 0.5 0.0340295 0.291212
1.13882 0.5 -0.0340295 0.295169
0.350249 0.5 1.0875 0.118145
0.350249 0.5 -1.0875 0.152054
1.13882 0.5 0.102088 0.285596
1.13882 0.5 -0.102088 0.296863
1.10076 0.5 0.314829 0.251771
1.10076 0.5 -0.314829 0.28259
0.756813 0.5 -0.8625 0.185382
0.756814 0.5 0.8625 0.146021
0.797732 0.5 0.825 0.151836
0.797732 0.5 -0.825 0.19181
1.11376 0.5 -0.277247 0.287717
1.11376 0.5 0.277247 0.259303
0.835106 0.5 0.7875 0.157996
0.835106 0.5 -0.7875 0.198537
0.715434 0.5 0.9 0.140615
0.872064 0.5 0.75 0.164539
0.872064 0.5 -0.75 0.205611
0.715434 0.5 -0.901373 0.179187
1.13882 0.5 -0.170147 0.297097
1.13882 0.5 0.170147 0.278373
0.67013 0.5 -0.9375 0.173654
0.67013 0.5 0.9375 0.135526
0.90582 0.5 0.7125 0.171493
0.90582 0.5 -0.7125 0.213013
1.05695 0.5 -0.468994 0.259241
1.05695 0.5 0.468994 0.220786
0.939201 0.5 0.675 0.178722
0.939201 0.5 -0.675 0.220697
0.624316 0.5 0.975 0.130834
0.624316 0.5 -0.975 0.168389
1.04168 0.5 -0.510414 0.252694
1.04168 0.5 0.510414 0.211964
0.969689 0.5 0.6375 0.186338
0.969689 0.5 -0.6375 0.228717
0.288069 0.5 1.125 0.115235
0.288069 0.5 -1.125 0.148882
1.16179 0.5 1.04083e-17 0.299142
1.08112 0.5 -0.425666 0.269151
1.08112 0.5 0.425666 0.231191
1.13882 0.5 -0.238206 0.294858
1.13882 0.5 0.238206 0.269627
1.16179 0.5 0.0669104 0.294214
1.16179 0.5 -0.0669104 0.302061
0.574156 0.5 -1.0125 0.163353
0.574156 0.5 1.0125 0.126417
0.998291 0.5 -0.599796 0.235955
0.075776 0.5 -1.1625 0.146161
0.075776 0.5 1.1625 0.113204
1.00005 0.5 0.599447 0.19401
1.10076 0.5 -0.384791 0.277356
1.10076 0.5 0.384791 0.240945
1.0271 0.5 0.55234 0.203368
1.0271 0.5 -0.55234 0.248051
1.11376 0.5 -0.346559 0.283072
1.11376 0.5 0.346559 0.248899
1.16179 0.5 0.133821 0.287647
1.16179 0.5 -0.133821 0.302911
0.523432 0.5 -1.05 0.158846
0.523432 0.5 1.05 0.122431
1.17463 0.5 0.0331343 0.300088
1.17463 0.5 -0.0331343 0.304264
1.15837 0.5 -0.200731 0.301582
1.17463 0.5 0.0994029 0.294261
1.17463 0.5 -0.0994029 0.306056
1.16179 0.5 0.200074 0.279413
1.13882 0.5 -0.306265 0.291837
1.13882 0.5 0.306265 0.259563
0.219992 0.5 1.1625 0.11249
0.219992 0.5 -1.1625 0.145844
0.467897 0.5 -1.0875 0.154528
0.467897 0.5 1.0875 0.118688
1.17463 0.5 0.165672 0.286788
1.17463 0.5 -0.165672 0.306356
1.05695 0.5 0.541147 0.208876
1.05695 0.5 -0.541147 0.25208
1.18772 0.5 -1.15648e-18 0.305534
1.11376 0.5 -0.41587 0.27702
1.11376 0.5 0.41587 0.237513
1.18772 0.5 0.0655187 0.300458
1.08112 0.5 0.49661 0.219366
1.08112 0.5 -0.49661 0.261783
1.18772 0.5 -0.0699161 0.308583
1.10076 0.5 -0.454752 0.270577
1.10076 0.5 0.454752 0.229263
1.16179 0.5 0.267642 0.269795
1.16179 0.5 -0.267642 0.299821
0 0.5 1.19382 0.111001
0 0.5 -1.19382 0.144328
0.0124865 0.5 -1.19382 0.144328
0.0124865 0.5 1.19382 0.111001
1.04168 0.5 -0.58333 0.244351
1.04168 0.5 0.58333 0.199973
1.18772 0.5 0.131228 0.293841
1.18772 0.5 -0.131228 0.309606
1.17463 0.5 0.23194 0.277751
1.17463 0.5 -0.23194 0.304861
0.411736 0.5 1.125 0.115445
0.411736 0.5 -1.125 0.150841
1.13882 0.5 0.374324 0.248382
1.13882 0.5 -0.374324 0.286515
0 0.5 1.2 0.110565
0 0.5 -1.2 0.143965
0.90582 0.5 0.7875 0.161155
0.90582 0.5 -0.7875 0.2049
0.872064 0.5 0.825 0.154711
0.872064 0.5 -0.825 0.197794
0.835106 0.5 -0.8625 0.19102
0.835106 0.5 0.8625 0.148666
1.18534 0.5 0.196842 0.284867
0.939201 0.5 0.75 0.167969
0.939201 0.5 -0.75 0.212338
0.797732 0.5 0.9 0.142967
1.0271 0.5 -0.625985 0.236724
1.0271 0.5 0.625985 0.191337
0.969689 0.5 0.7125 0.17516
0.96969 0.5 -0.7125 0.22014
0.797732 0.5 -0.901373 0.184388
1.18772 0.5 -0.196842 0.309179
0.756813 0.5 -0.9375 0.178509
0.756813 0.5 0.9375 0.137594
0.998291 0.5 -0.67477 0.227251
1.15863 0.5 0.334552 0.258465
0 0.5 1.20618 0.110131
0 0.5 -1.20618 0.143605
1.00005 0.5 0.674378 0.182312
0.0124865 0.5 -1.20618 0.143605
0.0124865 0.5 1.20618 0.110131
1.16179 0.5 -0.334552 0.295285
0.715434 0.5 0.975 0.132619
0.715434 0.5 -0.975 0.172825
0.151149 0.5 1.2 0.110178
0.151149 0.5 -1.2 0.143786
1.20942 0.5 -0.0322645 0.31339
1.20942 0.5 0.0322645 0.309031
1.18534 0.5 0.249669 0.277137
1.17463 0.5 0.298209 0.267361
1.17463 0.5 -0.298209 0.301166
1.20942 0.5 0.0967935 0.302998
1.20942 0.5 -0.0967935 0.315345
0.350249 0.5 1.1625 0.112403
0.350249 0.5 -1.1625 0.14733
0.67013 0.5 1.0125 0.12795
0.67013 0.5 -1.0125 0.167402
1.11376 0.5 -0.485183 0.269533
1.11376 0.5 0.485183 0.225386
1.18772 0.5 -0.262456 0.306608
1.10076 0.5 -0.524714 0.262518
1.10076 0.5 0.524714 0.216974
1.20942 0.5 0.161322 0.295519
1.20942 0.5 -0.161322 0.315943
1.08112 0.5 -0.567554 0.253266
1.08112 0.5 0.567554 0.207062
0.624316 0.5 1.05 0.123643
0.624316 0.5 -1.05 0.162427
1.13882 0.5 0.442383 0.236311
1.13882 0.5 -0.442383 0.279575
1.05695 0.5 -0.6133 0.243185
1.05695 0.5 0.6133 0.196615
1.15863 0.5 0.401463 0.246629
1.16179 0.5 -0.401463 0.289065
0.574156 0.5 1.0875 0.119599
0.574157 0.5 -1.0875 0.157677
1.17463 0.5 0.364477 0.255821
1.17463 0.5 -0.364477 0.295771
1.20942 0.5 0.225851 0.286212
1.20942 0.5 -0.225851 0.314564
1.23036 0.5 -1.38778e-17 0.317476
1.04168 0.5 -0.656246 0.235185
1.04168 0.5 0.656246 0.187753
1.23036 0.5 -0.0634819 0.320847
1.23036 0.5 0.0634819 0.312161
1.18772 0.5 0.32807 0.264532
1.18772 0.5 -0.32807 0.302056
0.288069 0.5 1.2 0.109696
0.288069 0.5 -1.2 0.144299
1.23036 0.5 0.126964 0.305154
1.23036 0.5 -0.126964 0.321947
0.075776 0.5 -1.2375 0.141784
0.075776 0.5 1.2375 0.107937
0.523432 0.5 1.125 0.115954
0.523432 0.5 -1.125 0.153414
1.0271 0.5 -0.69963 0.22733
1.0271 0.5 0.69963 0.179177
1.24274 0.5 -0.0314313 0.323088
1.24274 0.5 0.0314313 0.318528
1.20942 0.5 0.29038 0.275517
1.20942 0.5 -0.29038 0.310889
1.11376 0.5 -0.554494 0.260852
1.11376 0.5 0.554494 0.212759
1.23036 0.5 0.190445 0.296493
1.23036 0.5 -0.190445 0.321474
1.24274 0.5 0.0942942 0.312277
1.24274 0.5 -0.0942942 0.32523
1.13882 0.5 -0.510442 0.271305
1.13882 0.5 0.510442 0.223606
0.998291 0.5 -0.749744 0.217993
0.969689 0.5 0.7875 0.163988
0.969689 0.5 -0.7875 0.211109
1.00005 0.5 0.749309 0.170575
1.15863 0.5 0.468373 0.23401
0.939201 0.5 0.825 0.157307
0.939201 0.5 -0.825 0.203631
1.2484 0.5 -0.0653061 0.326162
0.90582 0.5 0.8625 0.150952
0.90582 0.5 -0.8625 0.196524
1.17463 0.5 -0.430746 0.288665
1.17463 0.5 0.430746 0.243356
1.10076 0.5 -0.594676 0.253384
1.10076 0.5 0.594676 0.204304
1.18772 0.5 0.393684 0.252394
1.18772 0.5 -0.393684 0.295772
1.24274 0.5 -0.157157 0.325635
1.24274 0.5 0.157157 0.304319
1.16179 0.5 -0.468373 0.28132
0.467897 0.5 -1.1625 0.149338
0.467897 0.5 1.1625 0.112541
0.872064 0.5 0.9 0.145046
1.25401 0.5 0 0.323853
0.872064 0.5 -0.901373 0.189518
1.24906 0.5 -0.125094 0.327482
0.835106 0.5 0.9375 0.139513
0.835106 0.5 -0.9375 0.183346
1.25401 0.5 0.0622994 0.31839
1.08112 0.5 -0.638498 0.243857
1.08112 0.5 0.638498 0.194512
1.23036 0.5 0.253927 0.286318
1.23036 0.5 -0.253927 0.318979
0.219992 0.5 1.2375 0.107152
0.219992 0.5 -1.2375 0.1414
1.05695 0.5 -0.685452 0.233585
1.05695 0.5 0.685452 0.184227
0.797732 0.5 0.975 0.134274
0.797732 0.5 -0.975 0.1773
1.25401 0.5 0.124599 0.311219
1.20942 0.5 0.354909 0.263637
1.20942 0.5 -0.354909 0.305442
1.24274 0.5 0.220019 0.294737
1.24274 0.5 -0.220019 0.32438
1.24906 0.5 -0.187641 0.327077
0.756813 0.5 -1.0125 0.171548
0.756813 0.5 1.0125 0.129348
1.25401 0.5 0.186898 0.302373
0.411736 0.5 1.2 0.10956
0.411736 0.5 -1.2 0.145862
0 0.5 1.26882 0.105781
0 0.5 -1.26882 0.139933
0.0124865 0.5 -1.26882 0.139933
0.0124865 0.5 1.26882 0.105781
0.715434 0.5 -1.05 0.166199
0.715434 0.5 1.05 0.124811
1.23036 0.5 0.31741 0.274833
1.23036 0.5 -0.31741 0.314401
1.04168 0.5 -0.729162 0.225447
1.04168 0.5 0.729162 0.175498
1.18772 0.5 -0.459298 0.287908
1.18772 0.5 0.459298 0.239449
1.24274 0.5 0.282882 0.283736
1.24274 0.5 -0.282882 0.320759
0 0.5 1.275 0.105355
0 0.5 -1.275 0.139567
1.27472 0.5 -0.0306319 0.332549
1.27472 0.5 0.0306319 0.327828
1.17463 0.5 -0.497015 0.280173
1.17463 0.5 0.497015 0.23023
1.15837 0.5 0.534151 0.221572
1.11376 0.5 0.62266 0.199817
1.11376 0.5 -0.623806 0.251216
1.13882 0.5 -0.578501 0.261904
1.13882 0.5 0.578501 0.210359
0.67013 0.5 1.0875 0.120561
0.67013 0.5 -1.0875 0.161106
1.27472 0.5 -0.0918959 0.334608
1.27472 0.5 0.0918959 0.321363
1.25401 0.5 -0.249197 0.325542
1.25401 0.5 0.249197 0.291995
1.16179 0.5 -0.535284 0.272309
1.20942 0.5 0.419438 0.250795
1.20942 0.5 -0.419438 0.298213
0 0.5 1.28118 0.10493
0 0.5 -1.28118 0.139202
0.0124865 0.5 1.28118 0.10493
0.0124865 0.5 -1.28118 0.139202
1.27472 0.5 0.15316 0.313165
1.27472 0.5 -0.15316 0.335087
0.151149 0.5 -1.275 0.139351
0.151149 0.5 1.275 0.10493
1.0271 0.5 -0.773275 0.215814
1.0271 0.5 0.773275 0.167056
1.10076 0.5 0.664638 0.191512
1.10076 0.5 -0.664638 0.243461
0.350249 0.5 1.2375 0.106771
0.350249 0.5 -1.2375 0.142558
0.624316 0.5 1.125 0.116639
0.624316 0.5 -1.125 0.15643
1.23036 0.5 -0.380892 0.307997
1.23036 0.5 0.380892 0.262248
1.24274 0.5 0.345745 0.271513
1.24274 0.5 -0.345745 0.315272
1.2906 0.5 0 0.33509
1.2906 0.5 -0.0604698 0.338742
1.2906 0.5 0.0604698 0.329373
1.25401 0.5 0.311497 0.280282
1.25401 0.5 -0.311497 0.321183
1.27472 0.5 -0.214423 0.333848
1.27472 0.5 0.214423 0.303322
1.08112 0.5 0.709442 0.181934
1.08112 0.5 -0.709442 0.233827
0.998291 0.5 -0.824719 0.209161
1.00005 0.5 0.824239 0.158924
1.2906 0.5 -0.12094 0.34022
1.2906 0.5 0.12094 0.321919
0.574156 0.5 -1.1625 0.151972
0.574156 0.5 1.1625 0.11297
0.969689 0.5 0.8625 0.153079
0.969689 0.5 -0.8625 0.20183
1.18772 0.5 -0.524912 0.278733
1.18772 0.5 0.524912 0.225956
1.05695 0.5 -0.757605 0.22352
1.05695 0.5 0.757605 0.171906
0.939201 0.5 0.9 0.146895
1.30091 0.5 0.0299772 0.335769
1.30091 0.5 -0.0299772 0.340639
0.939201 0.5 -0.901373 0.194468
1.20942 0.5 -0.483967 0.289515
1.20942 0.5 0.483967 0.237258
1.17463 0.5 0.563284 0.216689
1.17463 0.5 -0.563284 0.270495
1.2906 0.5 -0.181409 0.339938
1.2906 0.5 0.181409 0.312758
0.90582 0.5 0.9375 0.141008
0.90582 0.5 -0.9375 0.188028
1.30091 0.5 -0.0899316 0.343194
1.30091 0.5 0.0899316 0.329116
1.27472 0.5 0.275687 0.292024
1.27472 0.5 -0.275687 0.330695
0.288069 0.5 1.275 0.104269
0.288069 0.5 -1.275 0.139668
0.872064 0.5 0.975 0.135635
0.872064 0.5 -0.975 0.181674