# pMean  POINT_DATA 63140
# x  y  z  pMean
0 0.1 0 0.203823
0 0.1 -0.0179898 0.20416
0 0.1 0.0179898 0.203489
0.0363518 0.1 -0.0179898 0.20416
0.0363518 0.1 0.0179898 0.203489
0 0.1 -0.0570102 0.204771
0 0.1 0.0570102 0.202609
0.0363518 0.1 0.0570102 0.202609
0.0363518 0.1 -0.0570102 0.204771
0 0.1 0.075 0.202135
0 0.1 -0.075 0.204996
0.075776 0.1 -0.0375 0.204529
0.075776 0.1 0.0375 0.203127
0 0.1 0.0929898 0.201662
0 0.1 -0.0929898 0.205223
0.0363518 0.1 0.0929898 0.201662
0.0363518 0.1 -0.0929898 0.205223
0 0.1 0.13201 0.200504
0 0.1 -0.13201 0.205597
0.075776 0.1 0.1125 0.201152
0.075776 0.1 -0.1125 0.205472
0.0363518 0.1 0.13201 0.200504
0.0363518 0.1 -0.13201 0.205597
0 0.1 0.15 0.19991
0 0.1 -0.15 0.205713
0.150379 0.1 -8.67362e-19 0.196885
0.150379 0.1 0.0710023 0.195416
0 0.1 0.16799 0.199318
0 0.1 -0.16799 0.205833
0.150379 0.1 -0.075 0.19811
0.0363518 0.1 0.16799 0.199318
0.0363518 0.1 -0.16799 0.205833
0.075776 0.1 0.1875 0.198677
0.075776 0.1 -0.1875 0.205965
0 0.1 0.20701 0.197889
0 0.1 -0.20701 0.205934
0.0363518 0.1 0.20701 0.197889
0.0363518 0.1 -0.20701 0.205934
0.150379 0.1 -0.15 0.19875
0.150379 0.1 0.15 0.192654
0.219992 0.1 -0.0375 0.191086
0.219992 0.1 0.0375 0.189443
0 0.1 0.225 0.197166
0 0.1 -0.225 0.205909
0 0.1 0.24299 0.196445
0 0.1 -0.24299 0.205888
0.0363518 0.1 0.24299 0.196445
0.0363518 0.1 -0.24299 0.205888
0.219992 0.1 0.1125 0.187171
0.219993 0.1 -0.1125 0.19199
0.150379 0.1 -0.225 0.198774
0.150379 0.1 0.225 0.189683
0.075776 0.1 -0.2625 0.205864
0.075776 0.1 0.2625 0.195664
0 0.1 -0.28201 0.205679
0 0.1 0.28201 0.194745
0.0363518 0.1 -0.28201 0.205679
0.0363518 0.1 0.28201 0.194745
0.287374 0.1 0 0.193374
0.219992 0.1 -0.1875 0.192218
0.219993 0.1 0.1875 0.184287
0.287374 0.1 0.0710023 0.191567
0.287374 0.1 -0.075 0.194667
0 0.1 0.3 0.193901
0 0.1 -0.3 0.205511
0 0.1 0.31799 0.193058
0 0.1 -0.31799 0.205346
0.0363518 0.1 0.31799 0.193058
0.0363518 0.1 -0.31799 0.205346
0.287374 0.1 0.15 0.188808
0.287374 0.1 -0.15 0.195275
0.150379 0.1 -0.3 0.198148
0.150379 0.1 0.3 0.186165
0.219993 0.1 -0.2625 0.19171
0.219993 0.1 0.2625 0.180798
0.075776 0.1 0.3375 0.192146
0.075776 0.1 -0.3375 0.205168
0.350249 0.1 0.0375 0.195527
0.350249 0.1 -0.0375 0.197172
0 0.1 -0.35701 0.204829
0 0.1 0.35701 0.191099
0.0363518 0.1 0.35701 0.191099
0.0363518 0.1 -0.35701 0.204829
0.287374 0.1 0.225 0.185595
0.287374 0.1 -0.225 0.195196
0.350249 0.1 0.1125 0.193222
0.350249 0.1 -0.1125 0.198149
0 0.1 0.375 0.190138
0 0.1 -0.375 0.20452
0 0.1 -0.39299 0.204213
0 0.1 0.39299 0.189177
0.0363518 0.1 -0.39299 0.204213
0.0363518 0.1 0.39299 0.189177
0.350249 0.1 -0.1875 0.198468
0.350249 0.1 0.1875 0.190285
0.219992 0.1 0.3375 0.176766
0.219993 0.1 -0.3375 0.19053
0.150379 0.1 0.375 0.182159
0.150379 0.1 -0.375 0.196927
0.411108 0.1 0 0.201095
0.287374 0.1 0.3 0.181809
0.287374 0.1 -0.3 0.194427
0.411108 0.1 0.0710023 0.199145
0.411108 0.1 -0.075 0.202448
0.075776 0.1 0.4125 0.188137
0.075776 0.1 -0.4125 0.20388
0 0.1 0.43201 0.18698
0 0.1 -0.43201 0.203401
0.0363518 0.1 0.43201 0.18698
0.0363518 0.1 -0.43201 0.203401
0.411108 0.1 -0.15 0.203056
0.411108 0.1 0.15 0.196186
0.350249 0.1 -0.2625 0.19811
0.350249 0.1 0.2625 0.186748
0 0.1 0.45 0.185916
0 0.1 -0.45 0.202961
0.219992 0.1 -0.4125 0.188832
0.219992 0.1 0.4125 0.172322
0 0.1 0.46799 0.184852
0 0.1 -0.46799 0.202523
0.411108 0.1 0.225 0.192693
0.411108 0.1 -0.225 0.20292
0.467897 0.1 -0.0375 0.206552
0.467897 0.1 0.0375 0.204742
0.0363518 0.1 0.46799 0.184852
0.0363518 0.1 -0.46799 0.202523
0.287374 0.1 0.375 0.177521
0.287374 0.1 -0.375 0.193028
0.150379 0.1 0.45 0.177735
0.150379 0.1 -0.45 0.195166
0.467897 0.1 0.1125 0.20213
0.467897 0.1 -0.1125 0.207528
0.350249 0.1 0.3375 0.182663
0.350249 0.1 -0.3375 0.19707
0.075776 0.1 -0.4875 0.20205
0.075776 0.1 0.4875 0.183702
0.467897 0.1 0.1875 0.198744
0.467897 0.1 -0.1875 0.207689
0 0.1 0.50701 0.182446
0 0.1 -0.50701 0.201438
0.0363518 0.1 -0.50701 0.201438
0.0363518 0.1 0.50701 0.182446
0.411108 0.1 0.3 0.188577
0.411108 0.1 -0.3 0.202041
0.522865 0.1 -9.1073e-18 0.211244
0 0.1 0.525 0.181292
0 0.1 -0.525 0.200877
0.522865 0.1 0.0710023 0.209076
0.522865 0.1 -0.075 0.21269
0.287374 0.1 0.45 0.172794
0.287374 0.1 -0.45 0.191057
0.219992 0.1 -0.4875 0.186621
0.219992 0.1 0.4875 0.167532
0.467897 0.1 0.2625 0.194652
0.467897 0.1 -0.2625 0.207032
0.350249 0.1 -0.4125 0.195389
0.350249 0.1 0.4125 0.178074
0 0.1 0.54299 0.180138
0 0.1 -0.54299 0.200317
0.522865 0.1 -0.15 0.213252
0.522865 0.1 0.15 0.205755
0.0363518 0.1 0.54299 0.180138
0.0363518 0.1 -0.54299 0.200317
0.150379 0.1 -0.525 0.192892
0.150379 0.1 0.525 0.172963
0.411108 0.1 0.375 0.183898
0.411108 0.1 -0.375 0.200455
0.075776 0.1 0.5625 0.178889
0.075776 0.1 -0.5625 0.199711
0.522865 0.1 0.225 0.201795
0.522865 0.1 -0.225 0.212932
0.574156 0.1 0.0375 0.21564
0.574157 0.1 -0.0375 0.217612
0.467897 0.1 -0.3375 0.205586
0.467897 0.1 0.3375 0.189929
0 0.1 0.58201 0.177552
0 0.1 -0.58201 0.198976
0.0363518 0.1 0.58201 0.177552
0.0363518 0.1 -0.58201 0.198976
0.574156 0.1 0.1125 0.212751
0.574156 0.1 -0.1125 0.218637
0.287374 0.1 0.525 0.167697
0.287374 0.1 -0.525 0.188544
0 0.1 0.6 0.176324
0 0.1 -0.6 0.198301
0.350249 0.1 0.4875 0.173
0.350249 0.1 -0.4875 0.193098
0.522865 0.1 -0.3 0.211747
0.522865 0.1 0.3 0.19711
0.219992 0.1 0.5625 0.162496
0.219992 0.1 -0.5625 0.183922
0.574156 0.1 0.1875 0.208989
0.574157 0.1 -0.1875 0.218722
0.411108 0.1 0.45 0.178704
0.411108 0.1 -0.45 0.198208
0 0.1 0.61799 0.175095
0 0.1 -0.61799 0.197627
0.150379 0.1 0.6 0.167898
0.150379 0.1 -0.6 0.190164
0.0363518 0.1 -0.61799 0.197627
0.0363518 0.1 0.61799 0.175095
0.623413 0.1 0 0.223023
0.467897 0.1 0.4125 0.184636
0.467897 0.1 -0.4125 0.203427
0.623803 0.1 0.0710023 0.220625
0.623803 0.1 -0.075 0.224584
0.574156 0.1 0.2625 0.204405
0.574157 0.1 -0.2625 0.217859
0.623803 0.1 -0.15 0.225123
0.623803 0.1 0.15 0.216922
0.075776 0.1 0.6375 0.173766
0.075776 0.1 -0.6375 0.196898
0.522865 0.1 -0.375 0.209751
0.522865 0.1 0.375 0.191777
0 0.1 0.65701 0.172363
0 0.1 -0.65701 0.196053
0.0363518 0.1 0.65701 0.172363
0.0363518 0.1 -0.65701 0.196053
0.350249 0.1 0.5625 0.167526
0.350249 0.1 -0.5625 0.190249
0.623803 0.1 0.225 0.212475
0.623803 0.1 -0.225 0.224642
0.287374 0.1 0.6 0.1623
0.287374 0.1 -0.6 0.185553
0.574156 0.1 0.3375 0.199085
0.574157 0.1 -0.3375 0.216095
0.411108 0.1 0.525 0.173061
0.411108 0.1 -0.525 0.195346
0.67013 0.1 0.0375 0.228108
0.67013 0.1 -0.0375 0.230278
0.219993 0.1 0.6375 0.157218
0.219993 0.1 -0.6375 0.180873
0 0.1 0.675 0.171074
0 0.1 -0.675 0.195277
0.467897 0.1 0.4875 0.178847
0.467897 0.1 -0.4875 0.200592
0.67013 0.1 0.1125 0.224877
0.67013 0.1 -0.1125 0.23135
0.522865 0.1 -0.45 0.207005
0.522865 0.1 0.45 0.185876
0.150379 0.1 0.675 0.162577
0.150379 0.1 -0.675 0.187034
0.623803 0.1 0.3 0.207192
0.623803 0.1 -0.3 0.223168
0 0.1 -0.69299 0.194502
0 0.1 0.69299 0.169785
0.0363518 0.1 0.69299 0.169785
0.0363518 0.1 -0.69299 0.194502
0.67013 0.1 0.1875 0.22064
0.67013 0.1 -0.1875 0.231325
0.574156 0.1 0.4125 0.193115
0.574157 0.1 -0.4125 0.213495
0.714619 0.1 4.77049e-18 0.23612
0.075776 0.1 0.7125 0.168389
0.075776 0.1 -0.7125 0.193663
0.714971 0.1 0.0710023 0.233459
0.714971 0.1 -0.075 0.237807
0.67013 0.1 0.2625 0.215456
0.67013 0.1 -0.2625 0.230211
0.411108 0.1 0.6 0.167056
0.411108 0.1 -0.6 0.191928
0.350249 0.1 0.6375 0.161747
0.350249 0.1 -0.6375 0.186893
0.623803 0.1 0.375 0.201167
0.623803 0.1 -0.375 0.220757
0.714971 0.1 0.15 0.229293
0.714971 0.1 -0.15 0.23831
0.467897 0.1 0.5625 0.172643
0.467897 0.1 -0.5625 0.197145
0 0.1 0.73201 0.166937
0 0.1 -0.73201 0.192722
0.0363518 0.1 0.73201 0.166937
0.0363518 0.1 -0.73201 0.192722
0.287374 0.1 0.675 0.156651
0.287374 0.1 -0.675 0.182147
0.522865 0.1 0.525 0.179494
0.522865 0.1 -0.525 0.20357
0.219992 0.1 0.7125 0.151718
0.219992 0.1 -0.7125 0.177463
0.714971 0.1 -0.225 0.237635
0.714971 0.1 0.225 0.224273
0 0.1 0.75 0.165601
0 0.1 -0.75 0.191858
0.67013 0.1 -0.3375 0.228068
0.67013 0.1 0.3375 0.209436
0.574157 0.1 0.4875 0.18659
0.574157 0.1 -0.4875 0.210122
0.756813 0.1 0.0375 0.241625
0.756814 0.1 -0.0375 0.244016
0.150379 0.1 -0.75 0.183536
0.150379 0.1 0.75 0.157045
0.756813 0.1 0.1125 0.238005
0.756814 0.1 -0.1125 0.245125
0 0.1 0.76799 0.164265
0 0.1 -0.76799 0.190995
0.0363518 0.1 0.76799 0.164265
0.0363518 0.1 -0.76799 0.190995
0.623803 0.1 0.45 0.194497
0.623803 0.1 -0.45 0.217478
0.714971 0.1 0.3 0.218291
0.714971 0.1 -0.3 0.235811
0.756813 0.1 0.1875 0.233224
0.756813 0.1 -0.1875 0.244984
0.67013 0.1 -0.4125 0.224945
0.67013 0.1 0.4125 0.202672
0.411108 0.1 0.675 0.16077
0.411108 0.1 -0.675 0.188019
0.467897 0.1 0.6375 0.166109
0.467897 0.1 -0.6375 0.193151
0.075776 0.1 -0.7875 0.190061
0.075776 0.1 0.7875 0.162819
0.350249 0.1 -0.7125 0.183098
0.350249 0.1 0.7125 0.155732
0.791054 0.1 0.0690034 0.245379
0.522865 0.1 0.6 0.172723
0.522865 0.1 -0.6 0.199522
0.797314 0.1 -3.03577e-18 0.249897
0.797314 0.1 -0.075 0.251913
0.756814 0.1 0.2625 0.227363
0.756814 0.1 -0.2625 0.24357
0.287374 0.1 -0.75 0.178364
0.287374 0.1 0.75 0.150805
0.574156 0.1 0.5625 0.179608
0.574156 0.1 -0.5625 0.206061
0 0.1 0.80701 0.16133
0 0.1 -0.80701 0.189039
0.714971 0.1 -0.375 0.232904
0.714971 0.1 0.375 0.211464
0.0363518 0.1 0.80701 0.16133
0.0363518 0.1 -0.80701 0.189039
0.797314 0.1 0.15 0.24244
0.797314 0.1 -0.15 0.25239
0.623803 0.1 0.525 0.187293
0.623803 0.1 -0.525 0.213418
0.219992 0.1 -0.7875 0.173724
0.219992 0.1 0.7875 0.146042
0 0.1 0.825 0.15996
0 0.1 -0.825 0.188099
0.797314 0.1 0.225 0.23678
0.797314 0.1 -0.225 0.251507
0.756813 0.1 -0.3375 0.240959
0.756814 0.1 0.3375 0.220526
0.67013 0.1 0.4875 0.19528
0.67013 0.1 -0.4875 0.220945
0.835106 0.1 0.0375 0.255803
0.835106 0.1 -0.0375 0.258452
0.150379 0.1 -0.825 0.179713
0.150379 0.1 0.825 0.151357
0.835106 0.1 0.1125 0.251748
0.835106 0.1 -0.1125 0.259621
0 0.1 -0.84299 0.18716
0 0.1 0.84299 0.15859
0.0363518 0.1 -0.84299 0.18716
0.0363518 0.1 0.84299 0.15859
0.714971 0.1 -0.45 0.229
0.714971 0.1 0.45 0.203915
0.797314 0.1 0.3 0.230025
0.797314 0.1 -0.3 0.24929
0.467897 0.1 0.7125 0.159325
0.467897 0.1 -0.7125 0.188686
0.522865 0.1 0.675 0.165657
0.522865 0.1 -0.675 0.194942
0.411108 0.1 -0.75 0.183691
0.411108 0.1 0.75 0.154283
0.835106 0.1 -0.1875 0.259391
0.835107 0.1 0.1875 0.246374
0.574156 0.1 0.6375 0.172277
0.574156 0.1 -0.6375 0.201398
0.350249 0.1 -0.7875 0.178931
0.350249 0.1 0.7875 0.14956
0.756814 0.1 0.4125 0.212869
0.756814 0.1 -0.4125 0.237223
0.623803 0.1 0.6 0.17967
0.623803 0.1 -0.6 0.208672
0.075776 0.1 0.8625 0.157108
0.075776 0.1 -0.8625 0.186144
0.871687 0.1 -0.00399773 0.264628
0.287374 0.1 -0.825 0.174257
0.287374 0.1 0.825 0.144821
0.871687 0.1 0.075 0.260976
0.871687 0.1 -0.075 0.26649
0.67013 0.1 0.5625 0.187394
0.67013 0.1 -0.5625 0.216164
0.835106 0.1 0.2625 0.239773
0.835106 0.1 -0.2625 0.257654
0.797314 0.1 0.375 0.222314
0.797314 0.1 -0.375 0.245834
0 0.1 -0.88201 0.185053
0 0.1 0.88201 0.155598
0.0363518 0.1 0.88201 0.155598
0.0363518 0.1 -0.88201 0.185053
0.871687 0.1 0.15 0.255983
0.871687 0.1 -0.15 0.266939
0.714971 0.1 0.525 0.195769
0.714971 0.1 -0.525 0.224211
0.219992 0.1 0.8625 0.140251
0.219993 0.1 -0.8625 0.169697
0 0.1 0.9 0.15421
0 0.1 -0.9 0.184051
0.756813 0.1 0.4875 0.204514
0.756814 0.1 -0.4875 0.232489
0.871687 0.1 0.225 0.249628
0.871687 0.1 -0.225 0.265833
0.835106 0.1 0.3375 0.232077
0.835106 0.1 -0.3375 0.254558
0.90582 0.1 -0.0375 0.273156
0.905821 0.1 0.0375 0.270237
0.150379 0.1 0.9 0.145572
0.150379 0.1 -0.9 0.175614
0.90582 0.1 0.1125 0.265727
0.90582 0.1 -0.1125 0.27433
0.522865 0.1 -0.75 0.189915
0.522865 0.1 0.75 0.158386
0.574156 0.1 0.7125 0.164692
0.574156 0.1 -0.7125 0.196226
0.797314 0.1 0.45 0.2138
0.797314 0.1 -0.45 0.241244
0.467897 0.1 -0.7875 0.183828
0.467897 0.1 0.7875 0.15238
0 0.1 0.91799 0.152821
0 0.1 -0.91799 0.183048
0.0363518 0.1 0.91799 0.152821
0.0363518 0.1 -0.91799 0.183048
0.623803 0.1 0.675 0.171741
0.623803 0.1 -0.675 0.203344
0.411108 0.1 -0.825 0.179013
0.411108 0.1 0.825 0.147668
0.871687 0.1 0.3 0.242037
0.871687 0.1 -0.3 0.263177
0.67013 0.1 0.6375 0.179137
0.67013 0.1 -0.6375 0.210714
0.90582 0.1 0.1875 0.259711
0.905821 0.1 -0.1875 0.274014
0.350249 0.1 0.8625 0.143285
0.350249 0.1 -0.8625 0.174455
0.835106 0.1 0.4125 0.22345
0.835106 0.1 -0.4125 0.250191
0.714971 0.1 0.6 0.187171
0.714971 0.1 -0.6 0.218654
0.93886 0.1 -0.00399773 0.279148
0.075776 0.1 0.9375 0.151318
0.075776 0.1 -0.9375 0.181964
0.93886 0.1 0.075 0.275062
0.93886 0.1 -0.075 0.281154
0.756813 0.1 0.5625 0.195599
0.756814 0.1 -0.5625 0.226873
0.90582 0.1 0.2625 0.252304
0.905821 0.1 -0.2625 0.271882
0.287374 0.1 0.9 0.138756
0.287374 0.1 -0.9 0.169879
0.871687 0.1 0.375 0.233365
0.871687 0.1 -0.375 0.259118
0.93886 0.1 0.15 0.269499
0.93886 0.1 -0.15 0.281611
0.797314 0.1 0.525 0.204631
0.797314 0.1 -0.525 0.235651
0 0.1 0.95701 0.1498
0 0.1 -0.95701 0.180818
0.0363518 0.1 0.95701 0.1498
0.0363518 0.1 -0.95701 0.180818
0.219992 0.1 0.9375 0.134406
0.219992 0.1 -0.9375 0.165428
0.93886 0.1 0.225 0.262414
0.93886 0.1 -0.225 0.280322
0.90582 0.1 0.3375 0.243666
0.905821 0.1 -0.3375 0.268236
0.835107 0.1 0.4875 0.214064
0.835107 0.1 -0.4875 0.24469
0.969689 0.1 0.0375 0.284483
0.969689 0.1 -0.0375 0.287767
0.574156 0.1 0.7875 0.156954
0.574156 0.1 -0.7875 0.190642
0 0.1 0.975 0.148404
0 0.1 -0.975 0.179765
0.623803 0.1 0.75 0.163614
0.623803 0.1 -0.75 0.19754
0.96969 0.1 0.1125 0.279461
0.96969 0.1 -0.1125 0.289012
0.522865 0.1 -0.825 0.184527
0.522865 0.1 0.825 0.150999
0.67013 0.1 0.7125 0.170627
0.67013 0.1 -0.7125 0.204715
0.871687 0.1 0.45 0.223799
0.871687 0.1 -0.45 0.253767
0.467897 0.1 0.8625 0.145346
0.467897 0.1 -0.8625 0.17865
0.714971 0.1 -0.675 0.212459
0.714971 0.1 0.675 0.178258
0.93886 0.1 0.3 0.253957
0.93886 0.1 -0.3 0.277243
0.150379 0.1 0.975 0.139743
0.150379 0.1 -0.975 0.171287
0.969689 0.1 -0.1875 0.288734
0.969689 0.1 0.1875 0.272775
0.411108 0.1 0.9 0.140988
0.411108 0.1 -0.9 0.174056
0.756813 0.1 0.6375 0.1863
0.756813 0.1 -0.6375 0.220521
0.990306 0.1 3.46945e-18 0.290283
0 0.1 0.99299 0.147007
0 0.1 -0.99299 0.178712
0.990306 0.1 0.075 0.285901
0.990306 0.1 -0.075 0.29249
0.0363518 0.1 0.99299 0.147007
0.0363518 0.1 -0.99299 0.178712
0.905821 0.1 0.4125 0.233967
0.905821 0.1 -0.4125 0.263124
0.797314 0.1 0.6 0.194976
0.797314 0.1 -0.6 0.2292
0.350249 0.1 0.9375 0.136957
0.350249 0.1 -0.9375 0.169734
0.990306 0.1 0.15 0.279844
0.990306 0.1 -0.15 0.292964
0.969689 0.1 -0.2625 0.286305
0.969689 0.1 0.2625 0.264564
0.835106 0.1 0.5625 0.204074
0.835106 0.1 -0.5625 0.238195
0.93886 0.1 0.375 0.244306
0.93886 0.1 -0.375 0.272588
0.075776 0.1 1.0125 0.145496
0.075776 0.1 -1.0125 0.177572
0.990306 0.1 0.225 0.272128
0.990306 0.1 -0.225 0.291531
0.287374 0.1 0.975 0.132662
0.287374 0.1 -0.975 0.165284
0.871687 0.1 0.525 0.213527
0.871687 0.1 -0.525 0.247284
1.02149 0.1 -0.0369628 0.299067
1.02149 0.1 0.0369628 0.296742
0.969689 0.1 -0.3375 0.282207
0.96969 0.1 0.3375 0.25501
1.02149 0.1 0.110888 0.291307
1.02149 0.1 -0.110888 0.301481
0.90582 0.1 0.4875 0.223447
0.905821 0.1 -0.4875 0.256723
0 0.1 1.03201 0.143982
0 0.1 -1.03201 0.176384
0.0363518 0.1 1.03201 0.143982
0.0363518 0.1 -1.03201 0.176384
0.67013 0.1 0.7875 0.161985
0.67013 0.1 -0.7875 0.198283
0.623803 0.1 -0.825 0.191365
0.623803 0.1 0.825 0.155393
0.990306 0.1 0.3 0.262922
0.990306 0.1 -0.3 0.288084
0.219992 0.1 -1.0125 0.160966
0.219992 0.1 1.0125 0.128549
0.574156 0.1 -0.8625 0.184739
0.574157 0.1 0.8625 0.149152
0.714971 0.1 0.75 0.169157
0.714971 0.1 -0.75 0.205758
1.02149 0.1 0.184814 0.284048
1.02149 0.1 -0.184814 0.30124
0.756814 0.1 0.7125 0.176746
0.756813 0.1 -0.7125 0.213574
0.522865 0.1 0.9 0.143575
0.522865 0.1 -0.9 0.178861
0.93886 0.1 0.45 0.233677
0.93886 0.1 -0.45 0.266468
1.04168 0.1 0 0.303736
1.04168 0.1 0.0729162 0.299137
1.04168 0.1 -0.0729162 0.306177
0.797314 0.1 0.675 0.185008
0.797314 0.1 -0.675 0.222052
0.467897 0.1 0.9375 0.138296
0.467897 0.1 -0.9375 0.173225
0 0.1 1.05 0.14259
0 0.1 -1.05 0.175291
0.835106 0.1 0.6375 0.193692
0.835106 0.1 -0.6375 0.230883
1.04168 0.1 0.145832 0.292711
1.04168 0.1 -0.145832 0.306707
1.02149 0.1 0.25874 0.27512
1.02149 0.1 -0.25874 0.298472
0.969689 0.1 0.4125 0.244321
0.969689 0.1 -0.4125 0.276454
0.411108 0.1 0.975 0.134304
0.411108 0.1 -0.975 0.168886
0.871687 0.1 0.6 0.202736
0.871687 0.1 -0.6 0.23985
1.0579 0.1 -0.0360525 0.30963
1.0579 0.1 0.0360525 0.305987
0.990306 0.1 0.375 0.25243
0.990306 0.1 -0.375 0.282912
0.150379 0.1 1.05 0.133914
0.150379 0.1 -1.05 0.166782
1.0579 0.1 -0.108157 0.310995
1.0579 0.1 0.108157 0.300443
1.04168 0.1 0.218749 0.284537
1.04168 0.1 -0.218749 0.305295
0.90582 0.1 0.5625 0.212286
0.905821 0.1 -0.5625 0.249216
0 0.1 -1.06799 0.174199
0 0.1 1.06799 0.141198
0.0363518 0.1 -1.06799 0.174199
0.0363518 0.1 1.06799 0.141198
0.350249 0.1 1.0125 0.130633
0.350249 0.1 -1.0125 0.164825
1.0579 0.1 -0.180262 0.310823
1.0579 0.1 0.180262 0.29309
1.02149 0.1 0.332665 0.264729
1.02149 0.1 -0.332665 0.293903
0.93886 0.1 0.525 0.222281
0.93886 0.1 -0.525 0.259081
1.08012 0.1 1.70581e-17 0.313635
1.04168 0.1 0.291665 0.274798
1.04168 0.1 -0.291665 0.301681
1.08012 0.1 0.0709941 0.308871
1.08012 0.1 -0.074001 0.316422
0.969689 0.1 -0.4875 0.26926
0.96969 0.1 0.4875 0.232736
1.0579 0.1 0.252367 0.284076
1.0579 0.1 -0.252367 0.308259
0.990306 0.1 -0.45 0.276126
0.990306 0.1 0.45 0.240887
0.287374 0.1 -1.05 0.160523
0.287374 0.1 1.05 0.126588
1.08012 0.1 0.141988 0.302306
1.08012 0.1 -0.141988 0.316876
0.075776 0.1 1.0875 0.139691
0.075776 0.1 -1.0875 0.173017
0.714971 0.1 0.825 0.159994
0.714971 0.1 -0.825 0.198683
0.756813 0.1 0.7875 0.167082
0.756813 0.1 -0.7875 0.206182
0.67013 0.1 0.8625 0.153316
0.67013 0.1 -0.8625 0.191533
0.797314 0.1 -0.75 0.214368
0.797314 0.1 0.75 0.174872
0.623803 0.1 0.9 0.147175
0.623803 0.1 -0.9 0.18492
0.835106 0.1 0.7125 0.183085
0.835107 0.1 -0.7125 0.222933
0.574156 0.1 0.9375 0.141372
0.574156 0.1 -0.9375 0.178608
1.02149 0.1 -0.406591 0.287498
1.02149 0.1 0.406591 0.253098
1.08012 0.1 -0.212982 0.315603
1.08012 0.1 0.212982 0.293996
1.10076 0.1 -0.0349809 0.321185
1.10076 0.1 0.0349809 0.317189
0.871687 0.1 0.675 0.191625
0.871687 0.1 -0.675 0.231657
1.04168 0.1 0.364581 0.263706
1.04168 0.1 -0.364581 0.296223
1.10076 0.1 0.104943 0.311419
1.10076 0.1 -0.104943 0.322622
0.522865 0.1 0.975 0.136187
0.522865 0.1 -0.975 0.172997
1.0579 0.1 0.324472 0.273608
1.0579 0.1 -0.324472 0.303771
0 0.1 -1.10701 0.171799
0 0.1 1.10701 0.138195
0.0363518 0.1 1.10701 0.138195
0.0363518 0.1 -1.10701 0.171799
0.90582 0.1 0.6375 0.200685
0.905821 0.1 -0.6375 0.240819
0.219992 0.1 1.0875 0.122718
0.219992 0.1 -1.0875 0.156355
0.93886 0.1 0.6 0.210351
0.93886 0.1 -0.6 0.250635
1.10076 0.1 0.174905 0.303817
1.10076 0.1 -0.174905 0.322609
0.467897 0.1 1.0125 0.131289
0.467897 0.1 -1.0125 0.167628
1.08012 0.1 0.283976 0.284124
1.08012 0.1 -0.283976 0.312134
1.11928 0.1 -0.00290737 0.32382
1.11711 0.1 -0.0710826 0.325806
0.990306 0.1 0.525 0.228533
0.990306 0.1 -0.525 0.267954
0.969689 0.1 0.5625 0.220447
0.96969 0.1 -0.5625 0.260832
1.11928 0.1 0.0690357 0.318835
0 0.1 1.125 0.136818
0 0.1 -1.125 0.170678
1.11807 0.1 -0.138193 0.326711
0.411108 0.1 -1.05 0.163564
0.411108 0.1 1.05 0.127674
1.10076 0.1 -0.244866 0.320224
1.10076 0.1 0.244866 0.294544
1.11928 0.1 0.138072 0.312041
1.02149 0.1 0.480517 0.240492
1.02149 0.1 -0.480517 0.279505
1.0579 0.1 -0.396577 0.297433
1.0579 0.1 0.396577 0.261898
1.04168 0.1 0.437497 0.251499
1.04168 0.1 -0.437497 0.289022
0.150379 0.1 1.125 0.128126
0.150379 0.1 -1.125 0.162144
1.08012 0.1 0.354971 0.272897
1.08012 0.1 -0.354971 0.306745
1.11807 0.1 -0.207288 0.325573
1.11928 0.1 0.207107 0.303487
0.350249 0.1 1.0875 0.124366
0.350249 0.1 -1.0875 0.159784
0 0.1 1.14299 0.135441
0 0.1 -1.14299 0.169558
0.0363518 0.1 1.14299 0.135441
0.0363518 0.1 -1.14299 0.169558
1.14316 0.1 -0.0339211 0.331993
1.14316 0.1 0.0339211 0.328248
1.10076 0.1 0.314829 0.283806
1.10076 0.1 -0.314829 0.315809
0.797314 0.1 0.825 0.164715
0.797314 0.1 -0.825 0.206305
0.756814 0.1 -0.8625 0.198486
0.756814 0.1 0.8625 0.157438
1.14316 0.1 -0.101763 0.334122
1.14316 0.1 0.101763 0.322235
0.835106 0.1 0.7875 0.172399
0.835107 0.1 -0.7875 0.214516
0.714971 0.1 0.9 0.150883
0.714971 0.1 -0.9 0.191354
0.871687 0.1 0.75 0.18037
0.871687 0.1 -0.75 0.222907
1.11807 0.1 -0.276385 0.322221
0.67013 0.1 0.9375 0.144723
0.67013 0.1 -0.9375 0.184571
0.905821 0.1 0.7125 0.188864
0.905821 0.1 -0.7125 0.231738
1.11928 0.1 0.276143 0.293358
1.14316 0.1 -0.169605 0.334143
1.14316 0.1 0.169605 0.314389
0.93886 0.1 0.675 0.198131
0.93886 0.1 -0.675 0.241369
1.15704 0.1 0 0.33388
1.0579 0.1 0.468682 0.249198
1.0579 0.1 -0.468682 0.289453
0.623803 0.1 0.975 0.139039
0.623803 0.1 -0.975 0.178301
0.990306 0.1 0.6 0.215636
0.990306 0.1 -0.6 0.258633
1.15704 0.1 -0.0671479 0.33692
1.15704 0.1 0.0671479 0.328664
1.04168 0.1 0.510414 0.238448
1.04168 0.1 -0.510414 0.280319
0.969689 0.1 0.6375 0.207803
0.96969 0.1 -0.6375 0.251407
1.08012 0.1 0.425965 0.260542
1.08012 0.1 -0.425965 0.299569
0.287374 0.1 -1.125 0.155644
0.287374 0.1 1.125 0.120573
1.02149 0.1 0.554443 0.227196
1.02149 0.1 -0.554443 0.270163
0.574156 0.1 -1.0125 0.172331
0.574156 0.1 1.0125 0.133684
1.15704 0.1 -0.134296 0.337856
1.15704 0.1 0.134296 0.321629
0.075776 0.1 1.1625 0.133951
0.075776 0.1 -1.1625 0.168346
1.10076 0.1 0.384791 0.271808
1.10076 0.1 -0.384791 0.309491
1.14316 0.1 -0.237448 0.33195
1.14316 0.1 0.237448 0.30486
1.11807 0.1 -0.345481 0.316869
1.11928 0.1 0.345179 0.281858
0.522865 0.1 1.05 0.128903
0.522865 0.1 -1.05 0.167008
1.15704 0.1 -0.201444 0.336881
1.15704 0.1 0.201444 0.312828
1.1744 0.1 -0.0331401 0.340634
1.1744 0.1 0.0331401 0.335724
1.1744 0.1 -0.0994202 0.342518
1.1744 0.1 0.0994202 0.330009
0 0.1 1.18201 0.132482
0 0.1 -1.18201 0.167108
0.0363518 0.1 1.18201 0.132482
0.0363518 0.1 -1.18201 0.167108
0.219992 0.1 1.1625 0.116943
0.219993 0.1 -1.1625 0.151643
1.14316 0.1 -0.30529 0.327587
1.14316 0.1 0.30529 0.293847
0.467897 0.1 1.0875 0.124394
0.467897 0.1 -1.0875 0.161919
1.1744 0.1 -0.1657 0.342678
1.1744 0.1 0.1657 0.321948
1.15704 0.1 -0.268592 0.33368
1.15704 0.1 0.268592 0.302443
1.0579 0.1 0.540787 0.235778
1.0579 0.1 -0.540787 0.28007
1.08012 0.1 0.496959 0.247317
1.08012 0.1 -0.496959 0.290827
1.10076 0.1 0.454752 0.25879
1.10076 0.1 -0.454752 0.301433
1.11807 0.1 -0.414577 0.309668
1.11928 0.1 0.414214 0.269209
1.04168 0.1 0.58333 0.224811
1.04168 0.1 -0.58333 0.27037
1.19529 0.1 0.0650961 0.338063
1.1744 0.1 0.231981 0.312206
1.1744 0.1 -0.231981 0.340719
0.411108 0.1 1.125 0.121149
0.411108 0.1 -1.125 0.158147
1.19808 0.1 3.5851e-17 0.344946
0.990306 0.1 0.675 0.202465
0.990306 0.1 -0.675 0.248448
1.02149 0.1 0.628368 0.213448
1.02149 0.1 -0.628368 0.259757
1.19808 0.1 -0.0650961 0.348272
0 0.1 1.2 0.131131
0 0.1 -1.2 0.16597
0.871687 0.1 -0.825 0.213795
0.871687 0.1 0.825 0.169133
0.905821 0.1 -0.7875 0.222218
0.90582 0.1 0.7875 0.17699
0.835106 0.1 0.8625 0.161795
0.835106 0.1 -0.8625 0.205798
0.93886 0.1 0.75 0.185793
0.93886 0.1 -0.75 0.231523
0.797314 0.1 0.9 0.154671
0.797314 0.1 -0.9 0.198013
1.14316 0.1 -0.373132 0.321279
1.14316 0.1 0.373132 0.281557
0.969689 0.1 0.7125 0.195011
0.969689 0.1 -0.7125 0.241271
1.15704 0.1 -0.33574 0.328391
1.15704 0.1 0.33574 0.290676
0.756813 0.1 0.9375 0.147932
0.756814 0.1 -0.9375 0.190612
1.19808 0.1 0.130192 0.331851
1.19808 0.1 -0.130192 0.34943
0.714971 0.1 0.975 0.141918
0.714971 0.1 -0.975 0.183883
0.150379 0.1 1.2 0.122418
0.150379 0.1 -1.2 0.157417
1.20938 0.1 -0.0322656 0.350023
1.20938 0.1 0.0322656 0.345376
1.19808 0.1 0.178844 0.323102
1.1744 0.1 0.298261 0.300976
1.1744 0.1 -0.298261 0.336456
1.20938 0.1 -0.0967968 0.352177
1.20938 0.1 0.0967968 0.338936
1.19808 0.1 -0.195288 0.348675
0.350249 0.1 1.1625 0.118197
0.350249 0.1 -1.1625 0.154652
0.67013 0.1 1.0125 0.136272
0.67013 0.1 -1.0125 0.177492
0 0.1 1.21799 0.12978
0 0.1 -1.21799 0.164832
1.11807 0.1 -0.483674 0.300823
0.0363518 0.1 1.21799 0.12978
0.0363518 0.1 -1.21799 0.164832
1.11928 0.1 0.48325 0.255664
1.10076 0.1 -0.524714 0.291896
1.10076 0.1 0.524714 0.245022
1.20938 0.1 -0.161328 0.352456
1.20938 0.1 0.161328 0.330642
1.08012 0.1 0.567953 0.233477
1.08012 0.1 -0.567953 0.280771
0.623803 0.1 1.05 0.131064
0.623803 0.1 -1.05 0.171593
1.0579 0.1 -0.612892 0.269555
1.0579 0.1 0.612892 0.221876
1.15704 0.1 -0.402888 0.32119
1.15704 0.1 0.402888 0.277746
1.14316 0.1 0.440974 0.268223
1.14316 0.1 -0.440974 0.313137
1.19808 0.1 -0.260384 0.345716
1.19808 0.1 0.260384 0.312452
1.2267 0.1 3.64292e-18 0.352185
1.2267 0.1 -0.0636649 0.355721
1.2267 0.1 0.0636649 0.346524
1.1744 0.1 -0.364541 0.330249
1.1744 0.1 0.364541 0.288467
0.574156 0.1 1.0875 0.126166
0.574156 0.1 -1.0875 0.165985
1.20938 0.1 -0.225859 0.350781
1.20938 0.1 0.225859 0.32067
1.04168 0.1 0.656246 0.210836
1.04168 0.1 -0.656246 0.259478
1.22587 0.1 0.12733 0.33856
1.2267 0.1 -0.12733 0.357049
0.287374 0.1 -1.2 0.150691
0.287374 0.1 1.2 0.114652
1.02149 0.1 0.702294 0.199494
1.02149 0.1 -0.702294 0.248621
0.075776 0.1 1.2375 0.128317
0.075776 0.1 -1.2375 0.163601
0.522865 0.1 1.125 0.121781
0.522865 0.1 -1.125 0.160958
1.2267 0.1 0.190397 0.32968
1.2267 0.1 -0.190994 0.35646
1.19808 0.1 0.32548 0.300417
1.19808 0.1 -0.32548 0.340586
0.990306 0.1 0.75 0.189202
0.990306 0.1 -0.75 0.237669
1.24274 0.1 -0.0314313 0.358791
1.24274 0.1 0.0314313 0.353927
1.20938 0.1 -0.29039 0.346669
1.20938 0.1 0.29039 0.30921
1.24274 0.1 -0.0942942 0.36125
1.24274 0.1 0.0942942 0.347253
1.11807 0.1 -0.552769 0.290589
1.11928 0.1 0.552285 0.241479
1.15704 0.1 -0.470036 0.312251
1.15704 0.1 0.470036 0.263902
0.969689 0.1 0.7875 0.18217
0.96969 0.1 -0.7875 0.230647
0.93886 0.1 -0.825 0.221325
0.93886 0.1 0.825 0.173524
0.905821 0.1 0.8625 0.165242
0.905821 0.1 -0.8625 0.212455
1.1744 0.1 -0.430821 0.322117
1.1744 0.1 0.430821 0.274903
1.10076 0.1 0.594676 0.230743
1.10076 0.1 -0.594676 0.281126
1.14316 0.1 -0.508816 0.303434
1.14316 0.1 0.508816 0.254112
1.24274 0.1 0.157157 0.338726
1.24274 0.1 -0.157157 0.361661
1.2267 0.1 0.254158 0.318925
1.2267 0.1 -0.254659 0.353686
0.871687 0.1 -0.9 0.204493
0.871687 0.1 0.9 0.158081
0.467897 0.1 1.1625 0.11765
0.467897 0.1 -1.1625 0.156156
1.08012 0.1 0.638947 0.219275
1.08012 0.1 -0.638947 0.269686
1.25511 0.1 1.27213e-17 0.359375
0.835106 0.1 0.9375 0.151401
0.835106 0.1 -0.9375 0.19695
1.25511 0.1 -0.0622446 0.363111
1.25511 0.1 0.0622446 0.353541
0.219992 0.1 1.2375 0.111262
0.219992 0.1 -1.2375 0.146867
0 0.1 -1.25701 0.162354
0 0.1 1.25701 0.126885
0.0363518 0.1 -1.25701 0.162354
0.0363518 0.1 1.25701 0.126885
0.797314 0.1 0.975 0.14484
0.797314 0.1 -0.975 0.189627
1.19808 0.1 0.389737 0.287213
1.19808 0.1 -0.390576 0.33349
1.0579 0.1 -0.684997 0.258217
1.0579 0.1 0.684997 0.207759
1.20938 0.1 -0.354921 0.340615
1.20938 0.1 0.354921 0.296469
1.25511 0.1 0.124489 0.345874
1.25511 0.1 -0.124489 0.364609
1.24274 0.1 -0.220019 0.36027
1.24274 0.1 0.220019 0.328529
0.756814 0.1 1.0125 0.138651
0.756814 0.1 -1.0125 0.182672
1.25305 0.1 0.186734 0.334094
1.2267 0.1 0.317097 0.306705
1.2267 0.1 -0.318324 0.348697
0.411108 0.1 1.2 0.114769
0.411108 0.1 -1.2 0.152683
1.25511 0.1 -0.186734 0.364183
0.714971 0.1 1.05 0.133182
0.714971 0.1 -1.05 0.176372
1.04168 0.1 0.729162 0.196763
1.04168 0.1 -0.729162 0.247949
1.24274 0.1 -0.282882 0.356345
1.24274 0.1 0.282882 0.31684
0 0.1 1.275 0.125567
0 0.1 -1.275 0.161208
1.1744 0.1 -0.497102 0.312359
1.1744 0.1 0.497102 0.260552
1.15704 0.1 -0.537184 0.301844
1.15704 0.1 0.537184 0.2494
1.2756 0.1 -0.03061 0.367321
1.2756 0.1 0.03061 0.362254
0.67013 0.1 1.0875 0.128053
0.67013 0.1 -1.0875 0.170392
1.25305 0.1 0.248978 0.324982
1.2756 0.1 0.09183 0.355334
1.2756 0.1 -0.09183 0.37012
1.11807 0.1 -0.621866 0.279243
1.25511 0.1 -0.248978 0.36159
1.20938 0.1 0.419453 0.282667
1.20938 0.1 -0.419453 0.332546
1.11928 0.1 0.621322 0.226904
1.14316 0.1 -0.576659 0.292413
1.14316 0.1 0.576659 0.239465
1.19808 0.1 0.454694 0.273081
1.19808 0.1 -0.455673 0.32456
1.02149 0.1 0.776219 0.185562
1.02149 0.1 -0.776219 0.237009
0.150379 0.1 1.275 0.116823
0.150379 0.1 -1.275 0.152639
1.2267 0.1 0.381603 0.293314
1.2756 0.1 -0.15305 0.370716
1.2756 0.1 0.15305 0.346575
1.2267 0.1 -0.381989 0.341706
1.10076 0.1 0.664638 0.216227
1.10076 0.1 -0.664638 0.269433
0.350249 0.1 1.2375 0.112155
0.350249 0.1 -1.2375 0.149477
0.623803 0.1 1.125 0.123307
0.623803 0.1 -1.125 0.164869
0.990306 0.1 0.825 0.176046
0.990306 0.1 -0.825 0.226546
1.24274 0.1 -0.345745 0.350469
1.24274 0.1 0.345745 0.303869
1.2906 0.1 0 0.368437
1.25305 0.1 0.311223 0.312578
1.2906 0.1 -0.0604698 0.372516
1.2906 0.1 0.0604698 0.36232
1.08012 0.1 -0.709941 0.25788
1.08012 0.1 0.709941 0.204956
0 0.1 1.29299 0.12425
0 0.1 -1.29299 0.160062
1.25511 0.1 -0.311223 0.356746
1.2756 0.1 0.214269 0.336149
1.2756 0.1 -0.214269 0.369582
0.0363518 0.1 -1.29299 0.160062
0.0363518 0.1 1.29299 0.12425
1.2906 0.1 -0.12094 0.374321
1.2906 0.1 0.12094 0.354361
0.574156 0.1 1.1625 0.118855
0.574157 0.1 -1.1625 0.159624
0.969689 0.1 -0.8625 0.219792
0.969689 0.1 0.8625 0.169582
0.93886 0.1 -0.9 0.210977
0.93886 0.1 0.9 0.161533
1.0579 0.1 -0.757102 0.246355
1.0579 0.1 0.757102 0.193643
1.1744 0.1 -0.563382 0.301219
1.1744 0.1 0.563382 0.245658
1.20938 0.1 0.483984 0.268065
1.20938 0.1 -0.483984 0.322777
1.2906 0.1 -0.181409 0.374176
1.2906 0.1 0.181409 0.344646
0.90582 0.1 0.9375 0.153808
0.90582 0.1 -0.9375 0.202602
1.2267 0.1 0.445203 0.27899
1.2756 0.1 0.275489 0.324233
1.2756 0.1 -0.275489 0.365917
1.2267 0.1 -0.445653 0.332826
1.15704 0.1 -0.604332 0.290231
1.15704 0.1 0.604332 0.234483
1.19808 0.1 0.51965 0.258277
1.19808 0.1 -0.520769 0.314071
1.30646 0.1 0.0298385 0.369759
1.30646 0.1 -0.0298385 0.375049
0.287374 0.1 -1.275 0.1457
0.287374 0.1 1.275 0.108848
1.25305 0.1 0.373467 0.299004
0.871687 0.1 0.975 0.147335
0.871687 0.1 -0.975 0.195151
1.24274 0.1 0.408607 0.289839
1.24274 0.1 -0.408607 0.342507
0.522865 0.1 1.2 0.114866
0.522865 0.1 -1.2 0.154904
1.25511 0.1 -0.373467 0.349866
1.30646 0.1 -0.0895157 0.378161
1.30646 0.1 0.0895157 0.362602