# UMean  POINT_DATA 63140
# x  y  z  UMean_x  UMean_y  UMean_z
0 0.1 0 0.906308 0 0.422618
0 0.1 -0.0179898 0.906308 0 0.422618
0 0.1 0.0179898 0.906308 0 0.422618
0.0363518 0.1 -0.0179898 0.909222 0.00721626 0.423192
0.0363518 0.1 0.0179898 0.909245 0.0072045 0.423572
0 0.1 -0.0570102 0.906308 0 0.422618
0 0.1 0.0570102 0.906308 0 0.422618
0.0363518 0.1 0.0570102 0.909245 0.0072045 0.423572
0.0363518 0.1 -0.0570102 0.909222 0.00721626 0.423192
0 0.1 0.075 0.906308 0 0.422618
0 0.1 -0.075 0.906308 0 0.422618
0.075776 0.1 -0.0375 0.912425 0.0151634 0.423808
0.075776 0.1 0.0375 0.912474 0.0151393 0.424601
0 0.1 0.0929898 0.906308 0 0.422618
0 0.1 -0.0929898 0.906308 0 0.422618
0.0363518 0.1 0.0929898 0.909234 0.00718415 0.42395
0.0363518 0.1 -0.0929898 0.909181 0.00720519 0.422785
0 0.1 0.13201 0.906308 0 0.422618
0 0.1 -0.13201 0.906308 0 0.422618
0.075776 0.1 0.1125 0.912452 0.015098 0.42539
0.075776 0.1 -0.1125 0.91234 0.0151408 0.422961
0.0363518 0.1 0.13201 0.909234 0.00718415 0.42395
0.0363518 0.1 -0.13201 0.909181 0.00720519 0.422785
0 0.1 0.15 0.906308 0 0.422618
0 0.1 -0.15 0.906308 0 0.422618
0.150379 0.1 -8.67362e-19 0.914226 0.0144532 0.424878
0.150379 0.1 0.0710023 0.914279 0.0144684 0.426093
0 0.1 0.16799 0.906308 0 0.422618
0 0.1 -0.16799 0.906308 0 0.422618
0.150379 0.1 -0.075 0.914186 0.0144229 0.423483
0.0363518 0.1 0.16799 0.909201 0.00714704 0.42431
0.0363518 0.1 -0.16799 0.909122 0.00716419 0.422394
0.075776 0.1 0.1875 0.912385 0.0150226 0.42614
0.075776 0.1 -0.1875 0.912217 0.0150571 0.422145
0 0.1 0.20701 0.906308 0 0.422618
0 0.1 -0.20701 0.906308 0 0.422618
0.0363518 0.1 0.20701 0.909201 0.00714704 0.42431
0.0363518 0.1 -0.20701 0.909122 0.00716419 0.422394
0.150379 0.1 -0.15 0.91426 0.0143625 0.422089
0.150379 0.1 0.15 0.914508 0.0144228 0.427608
0.219992 0.1 -0.0375 0.915866 0.0137643 0.424543
0.219992 0.1 0.0375 0.915982 0.0138173 0.426498
0 0.1 0.225 0.906308 0 0.422618
0 0.1 -0.225 0.906308 0 0.422618
0 0.1 0.24299 0.906308 0 0.422618
0 0.1 -0.24299 0.906308 0 0.422618
0.0363518 0.1 0.24299 0.909157 0.00710362 0.424645
0.0363518 0.1 -0.24299 0.909063 0.00712345 0.422002
0.219992 0.1 0.1125 0.916251 0.0138311 0.428435
0.219993 0.1 -0.1125 0.915954 0.0136973 0.422611
0.150379 0.1 -0.225 0.914458 0.0142936 0.420704
0.150379 0.1 0.225 0.914765 0.0143611 0.428908
0.075776 0.1 -0.2625 0.912097 0.014975 0.421325
0.075776 0.1 0.2625 0.912296 0.0149347 0.426838
0 0.1 -0.28201 0.906308 0 0.422618
0 0.1 0.28201 0.906308 0 0.422618
0.0363518 0.1 -0.28201 0.909063 0.00712345 0.422002
0.0363518 0.1 0.28201 0.909157 0.00710362 0.424645
0.287374 0.1 0 0.912955 0.013329 0.425846
0.219992 0.1 -0.1875 0.916354 0.0136297 0.420682
0.219993 0.1 0.1875 0.916757 0.0138056 0.430299
0.287374 0.1 0.0710023 0.913169 0.01337 0.428082
0.287374 0.1 -0.075 0.912967 0.0132809 0.423336
0 0.1 0.3 0.906308 0 0.422618
0 0.1 -0.3 0.906308 0 0.422618
0 0.1 0.31799 0.906308 0 0.422618
0 0.1 -0.31799 0.906308 0 0.422618
0.0363518 0.1 0.31799 0.909119 0.00706553 0.424951
0.0363518 0.1 -0.31799 0.909028 0.00709572 0.421633
0.287374 0.1 0.15 0.913506 0.0133711 0.430811
0.287374 0.1 -0.15 0.91322 0.0132311 0.420837
0.150379 0.1 -0.3 0.914708 0.0142416 0.419349
0.150379 0.1 0.3 0.915048 0.0142812 0.430149
0.219993 0.1 -0.2625 0.916961 0.0135866 0.418755
0.219993 0.1 0.2625 0.917405 0.0137459 0.432137
0.075776 0.1 0.3375 0.912219 0.0148572 0.427477
0.075776 0.1 -0.3375 0.912027 0.014919 0.420557
0.350249 0.1 0.0375 0.910154 0.0129072 0.427686
0.350249 0.1 -0.0375 0.910083 0.0128687 0.424626
0 0.1 -0.35701 0.906308 0 0.422618
0 0.1 0.35701 0.906308 0 0.422618
0.0363518 0.1 0.35701 0.909119 0.00706553 0.424951
0.0363518 0.1 -0.35701 0.909028 0.00709572 0.421633
0.287374 0.1 0.225 0.91408 0.013341 0.433215
0.287374 0.1 -0.225 0.913713 0.013186 0.418355
0.350249 0.1 0.1125 0.91041 0.0129399 0.430703
0.350249 0.1 -0.1125 0.91023 0.0128339 0.421584
0 0.1 0.375 0.906308 0 0.422618
0 0.1 -0.375 0.906308 0 0.422618
0 0.1 -0.39299 0.906308 0 0.422618
0 0.1 0.39299 0.906308 0 0.422618
0.0363518 0.1 -0.39299 0.909006 0.0070695 0.421294
0.0363518 0.1 0.39299 0.909093 0.00703049 0.425219
0.350249 0.1 -0.1875 0.910603 0.0128029 0.418542
0.350249 0.1 0.1875 0.910872 0.0129485 0.43368
0.219992 0.1 0.3375 0.918025 0.0136513 0.433874
0.219993 0.1 -0.3375 0.917511 0.0135582 0.416902
0.150379 0.1 0.375 0.915316 0.0141921 0.431302
0.150379 0.1 -0.375 0.914932 0.0141959 0.418078
0.411108 0.1 0 0.90516 0.0131573 0.426148
0.287374 0.1 0.3 0.914783 0.0132659 0.435535
0.287374 0.1 -0.3 0.914327 0.0131404 0.415934
0.411108 0.1 0.0710023 0.905407 0.013182 0.429446
0.411108 0.1 -0.075 0.905239 0.0131208 0.422461
0.075776 0.1 0.4125 0.912167 0.0147855 0.428035
0.075776 0.1 -0.4125 0.911984 0.0148653 0.41985
0 0.1 0.43201 0.906308 0 0.422618
0 0.1 -0.43201 0.906308 0 0.422618
0.0363518 0.1 0.43201 0.909093 0.00703049 0.425219
0.0363518 0.1 -0.43201 0.909006 0.0070695 0.421294
0.411108 0.1 -0.15 0.905578 0.0130839 0.4188
0.411108 0.1 0.15 0.905746 0.0132113 0.433441
0.350249 0.1 -0.2625 0.911197 0.0127636 0.415558
0.350249 0.1 0.2625 0.911555 0.0129038 0.436571
0 0.1 0.45 0.906308 0 0.422618
0 0.1 -0.45 0.906308 0 0.422618
0.219992 0.1 -0.4125 0.917945 0.0135131 0.415197
0.219992 0.1 0.4125 0.918575 0.0135403 0.435502
0 0.1 0.46799 0.906308 0 0.422618
0 0.1 -0.46799 0.906308 0 0.422618
0.411108 0.1 0.225 0.906413 0.0131966 0.43697
0.411108 0.1 -0.225 0.906171 0.0130403 0.415209
0.467897 0.1 -0.0375 0.900391 0.0133959 0.423986
0.467897 0.1 0.0375 0.900425 0.0134319 0.428294
0.0363518 0.1 0.46799 0.909075 0.00700249 0.425446
0.0363518 0.1 -0.46799 0.908997 0.00704345 0.420987
0.287374 0.1 0.375 0.915525 0.0131527 0.437716
0.287374 0.1 -0.375 0.91493 0.0130769 0.413648
0.150379 0.1 0.45 0.915566 0.0141055 0.432341
0.150379 0.1 -0.45 0.915134 0.0141441 0.41691
0.467897 0.1 0.1125 0.90075 0.01346 0.432555
0.467897 0.1 -0.1125 0.900661 0.0133595 0.419701
0.350249 0.1 0.3375 0.91241 0.0128022 0.43934
0.350249 0.1 -0.3375 0.911902 0.0126928 0.412685
0.075776 0.1 -0.4875 0.911966 0.0148121 0.419212
0.075776 0.1 0.4875 0.91213 0.0147284 0.42851
0.467897 0.1 0.1875 0.901358 0.0134716 0.436723
0.467897 0.1 -0.1875 0.901222 0.0133145 0.415475
0 0.1 0.50701 0.906308 0 0.422618
0 0.1 -0.50701 0.906308 0 0.422618
0.0363518 0.1 -0.50701 0.908997 0.00704345 0.420987
0.0363518 0.1 0.50701 0.909075 0.00700249 0.425446
0.411108 0.1 0.3 0.90733 0.013127 0.440365
0.411108 0.1 -0.3 0.906969 0.0129733 0.411749
0.522865 0.1 -9.1073e-18 0.894139 0.0140239 0.425822
0 0.1 0.525 0.906308 0 0.422618
0 0.1 -0.525 0.906308 0 0.422618
0.522865 0.1 0.0710023 0.894419 0.0140385 0.43028
0.522865 0.1 -0.075 0.894315 0.0139806 0.420863
0.287374 0.1 0.45 0.916267 0.0130149 0.439709
0.287374 0.1 -0.45 0.915505 0.0129907 0.41154
0.219992 0.1 -0.4875 0.91836 0.0134578 0.413618
0.219992 0.1 0.4875 0.919088 0.0134357 0.436948
0.467897 0.1 0.2625 0.902267 0.0134373 0.440755
0.467897 0.1 -0.2625 0.902058 0.0132564 0.411411
0.350249 0.1 -0.4125 0.912615 0.0125856 0.410017
0.350249 0.1 0.4125 0.91334 0.0126578 0.441887
0 0.1 0.54299 0.906308 0 0.422618
0 0.1 -0.54299 0.906308 0 0.422618
0.522865 0.1 -0.15 0.894846 0.0139234 0.415973
0.522865 0.1 0.15 0.894857 0.0140645 0.435655
0.0363518 0.1 0.54299 0.90907 0.00697947 0.425649
0.0363518 0.1 -0.54299 0.909002 0.00702282 0.420707
0.150379 0.1 -0.525 0.915329 0.0140898 0.415847
0.150379 0.1 0.525 0.91579 0.0140265 0.433231
0.411108 0.1 0.375 0.908442 0.0130016 0.443557
0.411108 0.1 -0.375 0.907881 0.0128664 0.40849
0.075776 0.1 0.5625 0.912119 0.0146816 0.428931
0.075776 0.1 -0.5625 0.911977 0.01477 0.418628
0.522865 0.1 0.225 0.895742 0.0140407 0.440394
0.522865 0.1 -0.225 0.895711 0.0138456 0.411233
0.574156 0.1 0.0375 0.888102 0.0146275 0.428326
0.574157 0.1 -0.0375 0.888123 0.0145873 0.422704
0.467897 0.1 -0.3375 0.903102 0.0131572 0.407536
0.467897 0.1 0.3375 0.903476 0.013339 0.444597
0 0.1 0.58201 0.906308 0 0.422618
0 0.1 -0.58201 0.906308 0 0.422618
0.0363518 0.1 0.58201 0.90907 0.00697947 0.425649
0.0363518 0.1 -0.58201 0.909002 0.00702282 0.420707
0.574156 0.1 0.1125 0.8885 0.0146434 0.433906
0.574156 0.1 -0.1125 0.888566 0.0145273 0.417135
0.287374 0.1 0.525 0.916967 0.0128611 0.441461
0.287374 0.1 -0.525 0.916059 0.0128859 0.409629
0 0.1 0.6 0.906308 0 0.422618
0 0.1 -0.6 0.906308 0 0.422618
0.350249 0.1 0.4875 0.914296 0.0124693 0.444198
0.350249 0.1 -0.4875 0.91334 0.0124519 0.407576
0.522865 0.1 -0.3 0.896863 0.0137315 0.406717
0.522865 0.1 0.3 0.896982 0.0139619 0.444935
0.219992 0.1 0.5625 0.919494 0.0133306 0.438125
0.219992 0.1 -0.5625 0.918714 0.0133917 0.412206
0.574156 0.1 0.1875 0.889302 0.0146308 0.439358
0.574157 0.1 -0.1875 0.88941 0.0144416 0.411703
0.411108 0.1 0.45 0.909671 0.0128245 0.446485
0.411108 0.1 -0.45 0.90885 0.0127217 0.405496
0 0.1 0.61799 0.906308 0 0.422618
0 0.1 -0.61799 0.906308 0 0.422618
0.150379 0.1 0.6 0.915989 0.0139487 0.433969
0.150379 0.1 -0.6 0.915508 0.0140327 0.414897
0.0363518 0.1 -0.61799 0.909017 0.00700251 0.420451
0.0363518 0.1 0.61799 0.909076 0.00695543 0.425828
0.623413 0.1 0 0.880842 0.0155018 0.424936
0.467897 0.1 0.4125 0.904912 0.0131819 0.448163
0.467897 0.1 -0.4125 0.90427 0.0130084 0.403956
0.623803 0.1 0.0710023 0.881139 0.0155116 0.430614
0.623803 0.1 -0.075 0.881157 0.0154371 0.418654
0.574156 0.1 0.2625 0.890512 0.0145722 0.444612
0.574157 0.1 -0.2625 0.890616 0.0143214 0.406512
0.623803 0.1 -0.15 0.881958 0.0153365 0.412499
0.623803 0.1 0.15 0.881708 0.0155251 0.437457
0.075776 0.1 0.6375 0.912132 0.0146327 0.429303
0.075776 0.1 -0.6375 0.912007 0.0147285 0.418095
0.522865 0.1 -0.375 0.898233 0.0135654 0.402501
0.522865 0.1 0.375 0.898549 0.0138186 0.449207
0 0.1 0.65701 0.906308 0 0.422618
0 0.1 -0.65701 0.906308 0 0.422618
0.0363518 0.1 0.65701 0.909076 0.00695543 0.425828
0.0363518 0.1 -0.65701 0.909017 0.00700251 0.420451
0.350249 0.1 0.5625 0.915201 0.0122567 0.446231
0.350249 0.1 -0.5625 0.914048 0.0122913 0.405398
0.623803 0.1 0.225 0.882868 0.0154732 0.443489
0.623803 0.1 -0.225 0.883206 0.0151917 0.406574
0.287374 0.1 0.6 0.917607 0.0127012 0.442939
0.287374 0.1 -0.6 0.916581 0.012767 0.407937
0.574156 0.1 0.3375 0.892132 0.0144491 0.449603
0.574157 0.1 -0.3375 0.892121 0.014145 0.401619
0.411108 0.1 0.525 0.91094 0.0126033 0.449111
0.411108 0.1 -0.525 0.909851 0.0125459 0.402801
0.67013 0.1 0.0375 0.87378 0.0163882 0.427874
0.67013 0.1 -0.0375 0.873887 0.0163318 0.420881
0.219993 0.1 0.6375 0.919866 0.0132233 0.439077
0.219993 0.1 -0.6375 0.919021 0.0133146 0.41097
0 0.1 0.675 0.906308 0 0.422618
0 0.1 -0.675 0.906308 0 0.422618
0.467897 0.1 0.4875 0.906482 0.0129644 0.451407
0.467897 0.1 -0.4875 0.90552 0.0128215 0.400706
0.67013 0.1 0.1125 0.874254 0.016397 0.434842
0.67013 0.1 -0.1125 0.874571 0.016231 0.413986
0.522865 0.1 -0.45 0.899758 0.0133519 0.398659
0.522865 0.1 0.45 0.900366 0.0136095 0.453139
0.150379 0.1 0.675 0.91619 0.0138696 0.434576
0.150379 0.1 -0.675 0.915687 0.0139719 0.414057
0.623803 0.1 0.3 0.884507 0.0153615 0.449257
0.623803 0.1 -0.3 0.884846 0.0149925 0.400977
0 0.1 -0.69299 0.906308 0 0.422618
0 0.1 0.69299 0.906308 0 0.422618
0.0363518 0.1 0.69299 0.909087 0.00693136 0.425978
0.0363518 0.1 -0.69299 0.909033 0.00698165 0.420224
0.67013 0.1 0.1875 0.875291 0.0163575 0.44166
0.67013 0.1 -0.1875 0.875791 0.0160772 0.407308
0.574156 0.1 0.4125 0.894115 0.0142554 0.454248
0.574157 0.1 -0.4125 0.893865 0.0139084 0.397141
0.714619 0.1 4.77049e-18 0.865814 0.0175133 0.423578
0.075776 0.1 0.7125 0.912155 0.0145837 0.429617
0.075776 0.1 -0.7125 0.91204 0.0146859 0.417621
0.714971 0.1 0.0710023 0.866105 0.0175292 0.430532
0.714971 0.1 -0.075 0.866313 0.0174097 0.41592
0.67013 0.1 0.2625 0.876874 0.0162617 0.448217
0.67013 0.1 -0.2625 0.877497 0.0158609 0.400953
0.411108 0.1 0.6 0.912192 0.0123598 0.451392
0.411108 0.1 -0.6 0.910867 0.0123492 0.400426
0.350249 0.1 0.6375 0.916055 0.0120468 0.447948
0.350249 0.1 -0.6375 0.914747 0.0121237 0.40349
0.623803 0.1 0.375 0.886599 0.0151771 0.454676
0.623803 0.1 -0.375 0.886815 0.014732 0.395803
0.714971 0.1 0.15 0.866823 0.017534 0.438923
0.714971 0.1 -0.15 0.867454 0.0172411 0.408454
0.467897 0.1 0.5625 0.908099 0.0127 0.454285
0.467897 0.1 -0.5625 0.906819 0.0126018 0.397824
0 0.1 0.73201 0.906308 0 0.422618
0 0.1 -0.73201 0.906308 0 0.422618
0.0363518 0.1 0.73201 0.909087 0.00693136 0.425978
0.0363518 0.1 -0.73201 0.909033 0.00698165 0.420224
0.287374 0.1 0.675 0.918222 0.0125415 0.444156
0.287374 0.1 -0.675 0.917097 0.0126416 0.406462
0.522865 0.1 0.525 0.902338 0.0133392 0.456674
0.522865 0.1 -0.525 0.901388 0.0131015 0.395229
0.219992 0.1 0.7125 0.920246 0.013115 0.439845
0.219992 0.1 -0.7125 0.919352 0.0132344 0.409886
0.714971 0.1 -0.225 0.869188 0.0170004 0.401303
0.714971 0.1 0.225 0.868305 0.0174473 0.44633
0 0.1 0.75 0.906308 0 0.422618
0 0.1 -0.75 0.906308 0 0.422618
0.67013 0.1 -0.3375 0.879622 0.0155805 0.395042
0.67013 0.1 0.3375 0.878999 0.0160936 0.454442
0.574157 0.1 0.4875 0.89637 0.0139892 0.458477
0.574157 0.1 -0.4875 0.895777 0.0136301 0.393114
0.756813 0.1 0.0375 0.857946 0.0186678 0.427017
0.756814 0.1 -0.0375 0.858171 0.0185786 0.418591
0.150379 0.1 -0.75 0.915876 0.0139103 0.413326
0.150379 0.1 0.75 0.916399 0.0137914 0.435063
0.756813 0.1 0.1125 0.85849 0.0186811 0.435443
0.756814 0.1 -0.1125 0.859148 0.0184125 0.410321
0 0.1 0.76799 0.906308 0 0.422618
0 0.1 -0.76799 0.906308 0 0.422618
0.0363518 0.1 0.76799 0.909099 0.00691067 0.426097
0.0363518 0.1 -0.76799 0.909049 0.00696295 0.420026
0.623803 0.1 0.45 0.889074 0.0149169 0.459662
0.623803 0.1 -0.45 0.88904 0.0144174 0.39113
0.714971 0.1 0.3 0.870411 0.017288 0.453403
0.714971 0.1 -0.3 0.871453 0.0166861 0.394606
0.756813 0.1 0.1875 0.859781 0.0186137 0.443702
0.756813 0.1 -0.1875 0.860816 0.0181617 0.402342
0.67013 0.1 -0.4125 0.882099 0.0152358 0.389665
0.67013 0.1 0.4125 0.881618 0.015843 0.460212
0.411108 0.1 0.675 0.913416 0.0121098 0.453303
0.411108 0.1 -0.675 0.911899 0.012142 0.398375
0.467897 0.1 0.6375 0.909702 0.0124154 0.456751
0.467897 0.1 -0.6375 0.908152 0.0123653 0.395319
0.075776 0.1 -0.7875 0.912073 0.0146478 0.41721
0.075776 0.1 0.7875 0.91218 0.0145415 0.429864
0.350249 0.1 -0.7125 0.915458 0.0119509 0.401844
0.350249 0.1 0.7125 0.916889 0.011838 0.44935
0.791054 0.1 0.0690034 0.851895 0.0197527 0.430159
0.522865 0.1 0.6 0.904375 0.0130256 0.459764
0.522865 0.1 -0.6 0.903089 0.012825 0.392236
0.797314 0.1 -3.03577e-18 0.849789 0.0200386 0.421707
0.797314 0.1 -0.075 0.85025 0.0199215 0.41275
0.756814 0.1 0.2625 0.861786 0.0184709 0.451649
0.756814 0.1 -0.2625 0.86314 0.0178238 0.394793
0.287374 0.1 -0.75 0.917629 0.0125121 0.405196
0.287374 0.1 0.75 0.918834 0.0123807 0.44513
0.574156 0.1 0.5625 0.898787 0.0136584 0.462232
0.574156 0.1 -0.5625 0.897809 0.0133175 0.389581
0 0.1 0.80701 0.906308 0 0.422618
0 0.1 -0.80701 0.906308 0 0.422618
0.714971 0.1 -0.375 0.874166 0.0163025 0.388474
0.714971 0.1 0.375 0.87311 0.0170438 0.460041
0.0363518 0.1 0.80701 0.909099 0.00691067 0.426097
0.0363518 0.1 -0.80701 0.909049 0.00696295 0.420026
0.797314 0.1 0.15 0.850641 0.0201289 0.440128
0.797314 0.1 -0.15 0.851798 0.019656 0.403925
0.623803 0.1 0.525 0.891833 0.0145825 0.46415
0.623803 0.1 -0.525 0.891449 0.0140624 0.387003
0.219992 0.1 -0.7875 0.919697 0.0131509 0.408956
0.219992 0.1 0.7875 0.920637 0.0130046 0.440443
0 0.1 0.825 0.906308 0 0.422618
0 0.1 -0.825 0.906308 0 0.422618
0.797314 0.1 0.225 0.852471 0.0200044 0.44898
0.797314 0.1 -0.225 0.854118 0.0192875 0.395517
0.756813 0.1 -0.3375 0.866022 0.0174059 0.387859
0.756814 0.1 0.3375 0.864482 0.0182423 0.459166
0.67013 0.1 0.4875 0.884638 0.015515 0.465475
0.67013 0.1 -0.4875 0.884835 0.0148415 0.384884
0.835106 0.1 0.0375 0.841035 0.0215746 0.425849
0.835106 0.1 -0.0375 0.841422 0.0214274 0.415939
0.150379 0.1 -0.825 0.916068 0.0138493 0.412705
0.150379 0.1 0.825 0.91661 0.0137154 0.435433
0.835106 0.1 0.1125 0.841626 0.021603 0.435787
0.835106 0.1 -0.1125 0.842763 0.0211696 0.406249
0 0.1 -0.84299 0.906308 0 0.422618
0 0.1 0.84299 0.906308 0 0.422618
0.0363518 0.1 -0.84299 0.909062 0.00694672 0.419861
0.0363518 0.1 0.84299 0.909109 0.00689347 0.426182
0.714971 0.1 -0.45 0.877236 0.0158593 0.38298
0.714971 0.1 0.45 0.876327 0.0167109 0.466138
0.797314 0.1 0.3 0.855097 0.0197834 0.457424
0.797314 0.1 -0.3 0.857135 0.0188251 0.387703
0.467897 0.1 0.7125 0.911277 0.0121221 0.458783
0.467897 0.1 -0.7125 0.909507 0.0121167 0.393197
0.522865 0.1 0.675 0.906417 0.012689 0.462369
0.522865 0.1 -0.675 0.904833 0.0125325 0.38969
0.411108 0.1 -0.75 0.912943 0.0119278 0.396646
0.411108 0.1 0.75 0.91462 0.0118563 0.454845
0.835106 0.1 -0.1875 0.844959 0.0207858 0.39693
0.835107 0.1 0.1875 0.843177 0.0215159 0.445543
0.574156 0.1 0.6375 0.901266 0.0132871 0.465458
0.574156 0.1 -0.6375 0.899918 0.0129838 0.386554
0.350249 0.1 -0.7875 0.91618 0.011774 0.400461
0.350249 0.1 0.7875 0.917713 0.0116266 0.450453
0.756814 0.1 0.4125 0.867815 0.017915 0.466163
0.756814 0.1 -0.4125 0.869364 0.0169193 0.381584
0.623803 0.1 0.6 0.894763 0.0141858 0.468073
0.623803 0.1 -0.6 0.893985 0.0136786 0.38345
0.075776 0.1 0.8625 0.912201 0.0145066 0.430041
0.075776 0.1 -0.8625 0.9121 0.0146148 0.416866
0.871687 0.1 -0.00399773 0.832619 0.023115 0.418744
0.287374 0.1 -0.825 0.918167 0.0123791 0.404137
0.287374 0.1 0.825 0.919441 0.0122175 0.445873
0.871687 0.1 0.075 0.832456 0.0232892 0.43048
0.871687 0.1 -0.075 0.833389 0.022914 0.409225
0.67013 0.1 0.5625 0.887952 0.0151053 0.470143
0.67013 0.1 -0.5625 0.887762 0.014411 0.380741
0.835106 0.1 0.2625 0.84564 0.0213168 0.454945
0.835106 0.1 -0.2625 0.848031 0.0202889 0.388183
0.797314 0.1 0.375 0.858473 0.0194579 0.465342
0.797314 0.1 -0.375 0.860729 0.0182818 0.380602
0 0.1 -0.88201 0.906308 0 0.422618
0 0.1 0.88201 0.906308 0 0.422618
0.0363518 0.1 0.88201 0.909109 0.00689347 0.426182
0.0363518 0.1 -0.88201 0.909062 0.00694672 0.419861
0.871687 0.1 0.15 0.833604 0.0232667 0.441113
0.871687 0.1 -0.15 0.835396 0.0225208 0.399011
0.714971 0.1 0.525 0.879957 0.016292 0.471611
0.714971 0.1 -0.525 0.880573 0.0153715 0.378187
0.219992 0.1 0.8625 0.921025 0.0128914 0.440887
0.219993 0.1 -0.8625 0.920046 0.0130637 0.408181
0 0.1 0.9 0.906308 0 0.422618
0 0.1 -0.9 0.906308 0 0.422618
0.756813 0.1 0.4875 0.871686 0.0174925 0.472481
0.756814 0.1 -0.4875 0.87306 0.0163771 0.376069
0.871687 0.1 0.225 0.835795 0.0231064 0.451464
0.871687 0.1 -0.225 0.838371 0.02199 0.38932
0.835106 0.1 0.3375 0.848962 0.0210055 0.463815
0.835106 0.1 -0.3375 0.851797 0.0196971 0.380192
0.90582 0.1 -0.0375 0.824054 0.0246702 0.412967
0.905821 0.1 0.0375 0.823502 0.0249032 0.424405
0.150379 0.1 0.9 0.916813 0.013642 0.435689
0.150379 0.1 -0.9 0.916256 0.013789 0.412196
0.90582 0.1 0.1125 0.824138 0.0249692 0.435895
0.90582 0.1 -0.1125 0.825788 0.0242871 0.401843
0.522865 0.1 -0.75 0.906595 0.0122303 0.387588
0.522865 0.1 0.75 0.908437 0.0123416 0.464479
0.574156 0.1 0.7125 0.903742 0.0128937 0.468128
0.574156 0.1 -0.7125 0.902067 0.0126369 0.38404
0.797314 0.1 0.45 0.862519 0.0190247 0.4726
0.797314 0.1 -0.45 0.86479 0.0176716 0.374296
0.467897 0.1 -0.7875 0.91087 0.0118613 0.391451
0.467897 0.1 0.7875 0.912829 0.0118256 0.460387
0 0.1 0.91799 0.906308 0 0.422618
0 0.1 -0.91799 0.906308 0 0.422618
0.0363518 0.1 0.91799 0.909115 0.00687923 0.426233
0.0363518 0.1 -0.91799 0.909072 0.00693212 0.419728
0.623803 0.1 0.675 0.89776 0.0137483 0.471386
0.623803 0.1 -0.675 0.896592 0.0132771 0.38048
0.411108 0.1 -0.825 0.913989 0.0117095 0.395234
0.411108 0.1 0.825 0.915803 0.0116007 0.456025
0.871687 0.1 0.3 0.838969 0.0228126 0.461338
0.871687 0.1 -0.3 0.842225 0.0213405 0.380365
0.67013 0.1 0.6375 0.891427 0.0146339 0.474155
0.67013 0.1 -0.6375 0.890805 0.0139572 0.377253
0.90582 0.1 0.1875 0.825949 0.0248715 0.447199
0.905821 0.1 -0.1875 0.828533 0.0237431 0.391161
0.350249 0.1 0.8625 0.918521 0.0114137 0.451259
0.350249 0.1 -0.8625 0.916902 0.0115938 0.399335
0.835106 0.1 0.4125 0.853095 0.0205737 0.47206
0.835106 0.1 -0.4125 0.856154 0.0190262 0.373016
0.714971 0.1 0.6 0.883871 0.0157952 0.476395
0.714971 0.1 -0.6 0.88409 0.0148544 0.374123
0.93886 0.1 -0.00399773 0.814981 0.0269292 0.416285
0.075776 0.1 0.9375 0.912215 0.0144777 0.430148
0.075776 0.1 -0.9375 0.912122 0.0145851 0.416588
0.93886 0.1 0.075 0.81471 0.0271998 0.429765
0.93886 0.1 -0.075 0.816053 0.0266243 0.40539
0.756813 0.1 0.5625 0.875972 0.0169808 0.478093
0.756814 0.1 -0.5625 0.877016 0.0157982 0.371356
0.90582 0.1 0.2625 0.828879 0.0246153 0.4581
0.905821 0.1 -0.2625 0.8324 0.0230497 0.38118
0.287374 0.1 0.9 0.920035 0.0120544 0.446394
0.287374 0.1 -0.9 0.9187 0.0122443 0.403284
0.871687 0.1 0.375 0.843063 0.0223857 0.470577
0.871687 0.1 -0.375 0.846789 0.0205955 0.372281
0.93886 0.1 0.15 0.816002 0.0271957 0.441995
0.93886 0.1 -0.15 0.818571 0.0260644 0.393736
0.797314 0.1 0.525 0.867105 0.0184914 0.479092
0.797314 0.1 -0.525 0.869199 0.017013 0.368863
0 0.1 0.95701 0.906308 0 0.422618
0 0.1 -0.95701 0.906308 0 0.422618
0.0363518 0.1 0.95701 0.909115 0.00687923 0.426233
0.0363518 0.1 -0.95701 0.909072 0.00693212 0.419728
0.219992 0.1 0.9375 0.9214 0.0127788 0.441173
0.219992 0.1 -0.9375 0.920385 0.0129753 0.407559
0.93886 0.1 0.225 0.818563 0.0269988 0.453914
0.93886 0.1 -0.225 0.822266 0.0253244 0.382692
0.90582 0.1 0.3375 0.832844 0.0242087 0.468384
0.905821 0.1 -0.3375 0.837089 0.0222398 0.372108
0.835107 0.1 0.4875 0.857913 0.020026 0.479496
0.835107 0.1 -0.4875 0.860969 0.0182909 0.366784
0.969689 0.1 0.0375 0.805492 0.0293393 0.422818
0.969689 0.1 -0.0375 0.806273 0.0289883 0.409745
0.574156 0.1 0.7875 0.906184 0.0124916 0.470239
0.574156 0.1 -0.7875 0.904215 0.0122828 0.382027
0 0.1 0.975 0.906308 0 0.422618
0 0.1 -0.975 0.906308 0 0.422618
0.623803 0.1 0.75 0.900751 0.0132891 0.474069
0.623803 0.1 -0.75 0.899218 0.0128661 0.378088
0.96969 0.1 0.1125 0.806143 0.0294618 0.435959
0.96969 0.1 -0.1125 0.808523 0.028432 0.397101
0.522865 0.1 -0.825 0.908344 0.0119234 0.385917
0.522865 0.1 0.825 0.91042 0.0119901 0.4661
0.67013 0.1 0.7125 0.894947 0.0141242 0.477472
0.67013 0.1 -0.7125 0.893898 0.0134901 0.374419
0.871687 0.1 0.45 0.847984 0.021825 0.479044
0.871687 0.1 -0.45 0.851939 0.0197762 0.365172
0.467897 0.1 0.8625 0.914347 0.0115277 0.461574
0.467897 0.1 -0.8625 0.912219 0.0116042 0.390071
0.714971 0.1 -0.675 0.887698 0.0143206 0.370797
0.714971 0.1 0.675 0.88793 0.0152394 0.480431
0.93886 0.1 0.3 0.822315 0.0266168 0.465286
0.93886 0.1 -0.3 0.827057 0.0244297 0.37252
0.150379 0.1 0.975 0.917004 0.0135716 0.43583
0.150379 0.1 -0.975 0.916434 0.0137296 0.411796
0.969689 0.1 -0.1875 0.811852 0.0276806 0.384968
0.969689 0.1 0.1875 0.808211 0.0293542 0.448904
0.411108 0.1 0.9 0.916955 0.0113461 0.456856
0.411108 0.1 -0.9 0.915018 0.0114901 0.394128
0.756813 0.1 0.6375 0.88052 0.0163904 0.482909
0.756813 0.1 -0.6375 0.881124 0.0151983 0.367463
0.990306 0.1 3.46945e-18 0.801035 0.0302712 0.4145
0 0.1 0.99299 0.906308 0 0.422618
0 0.1 -0.99299 0.906308 0 0.422618
0.990306 0.1 0.075 0.800674 0.0306176 0.429047
0.990306 0.1 -0.075 0.802359 0.029853 0.402253
0.0363518 0.1 0.99299 0.909119 0.00686625 0.42625
0.0363518 0.1 -0.99299 0.90908 0.00691905 0.419625
0.905821 0.1 0.4125 0.837779 0.0236541 0.477903
0.905821 0.1 -0.4125 0.842505 0.0213386 0.364037
0.797314 0.1 0.6 0.872088 0.0178657 0.484754
0.797314 0.1 -0.6 0.873835 0.0163266 0.364333
0.350249 0.1 0.9375 0.919305 0.0112041 0.451793
0.350249 0.1 -0.9375 0.917609 0.0114145 0.398456
0.990306 0.1 0.15 0.802083 0.0306408 0.442515
0.990306 0.1 -0.15 0.805295 0.0291513 0.389486
0.969689 0.1 -0.2625 0.816675 0.0267154 0.373626
0.969689 0.1 0.2625 0.811635 0.0290287 0.461391
0.835106 0.1 0.5625 0.863255 0.0193791 0.486069
0.835106 0.1 -0.5625 0.866103 0.0175193 0.361532
0.93886 0.1 0.375 0.82717 0.0260589 0.475905
0.93886 0.1 -0.375 0.832697 0.0234218 0.363403
0.075776 0.1 1.0125 0.912223 0.0144513 0.430182
0.075776 0.1 -1.0125 0.912139 0.0145585 0.416374
0.990306 0.1 0.225 0.804943 0.0304245 0.455653
0.990306 0.1 -0.225 0.809584 0.0282289 0.377363
0.287374 0.1 0.975 0.920604 0.0118928 0.446704
0.287374 0.1 -0.975 0.919216 0.0121087 0.402628
0.871687 0.1 0.525 0.853586 0.0211412 0.486597
0.871687 0.1 -0.525 0.857521 0.018908 0.359125
1.02149 0.1 -0.0369628 0.792619 0.0322556 0.406153
1.02149 0.1 0.0369628 0.78987 0.0332022 0.421056
0.969689 0.1 -0.3375 0.822433 0.0256124 0.363363
0.96969 0.1 0.3375 0.816311 0.0284916 0.473168
1.02149 0.1 0.110888 0.790543 0.0333987 0.435333
1.02149 0.1 -0.110888 0.793363 0.0320432 0.393206
0.90582 0.1 0.4875 0.843554 0.0229495 0.486537
0.905821 0.1 -0.4875 0.848487 0.0203754 0.357104
0 0.1 1.03201 0.906308 0 0.422618
0 0.1 -1.03201 0.906308 0 0.422618
0.0363518 0.1 1.03201 0.909119 0.00686625 0.42625
0.0363518 0.1 -1.03201 0.90908 0.00691905 0.419625
0.67013 0.1 0.7875 0.898438 0.0135973 0.480086
0.67013 0.1 -0.7875 0.896978 0.0130191 0.37222
0.623803 0.1 -0.825 0.901812 0.0124523 0.376252
0.623803 0.1 0.825 0.903693 0.0128213 0.476127
0.990306 0.1 0.3 0.809168 0.029978 0.468193
0.990306 0.1 -0.3 0.81515 0.0271182 0.366222
0.219992 0.1 -1.0125 0.920706 0.0128852 0.407086
0.219992 0.1 1.0125 0.921749 0.012669 0.441302
0.574156 0.1 -0.8625 0.906322 0.011926 0.380492
0.574157 0.1 0.8625 0.908568 0.0120864 0.471802
0.714971 0.1 0.75 0.892018 0.0146481 0.483692
0.714971 0.1 -0.75 0.891317 0.01378 0.368193
1.02149 0.1 0.184814 0.792794 0.0333209 0.449418
1.02149 0.1 -0.184814 0.797171 0.0311463 0.380051
0.756814 0.1 0.7125 0.885176 0.0157431 0.486884
0.756813 0.1 -0.7125 0.885275 0.0145889 0.364384
0.522865 0.1 0.9 0.912344 0.0116391 0.467246
0.522865 0.1 -0.9 0.910053 0.0116161 0.384659
0.93886 0.1 0.45 0.833021 0.0253309 0.485624
0.93886 0.1 -0.45 0.839057 0.0223312 0.355475
1.04168 0.1 0 0.78386 0.0347335 0.413017
1.04168 0.1 0.0729162 0.783695 0.0351039 0.42767
1.04168 0.1 -0.0729162 0.78568 0.0340988 0.398707
0.797314 0.1 0.675 0.877305 0.0171612 0.489517
0.797314 0.1 -0.675 0.878577 0.0156277 0.360711
0.467897 0.1 0.9375 0.915816 0.0112334 0.462361
0.467897 0.1 -0.9375 0.913531 0.0113467 0.389039
0 0.1 1.05 0.906308 0 0.422618
0 0.1 -1.05 0.906308 0 0.422618
0.835106 0.1 0.6375 0.868977 0.0186301 0.491687
0.835106 0.1 -0.6375 0.871414 0.0167303 0.357285
1.04168 0.1 0.145832 0.78515 0.0351876 0.442261
1.04168 0.1 -0.145832 0.788987 0.0332461 0.384944
1.02149 0.1 0.25874 0.796561 0.0329824 0.463036
1.02149 0.1 -0.25874 0.802619 0.0299591 0.367659
0.969689 0.1 0.4125 0.822136 0.0277625 0.48403
0.969689 0.1 -0.4125 0.829101 0.0244025 0.354326
0.411108 0.1 0.975 0.918065 0.0110933 0.457365
0.411108 0.1 -0.975 0.916012 0.0112706 0.393311
0.871687 0.1 0.6 0.859693 0.0203479 0.493141
0.871687 0.1 -0.6 0.863374 0.0180159 0.354172
1.0579 0.1 -0.0360525 0.779989 0.0356812 0.402945
1.0579 0.1 0.0360525 0.778271 0.0364334 0.419607
0.990306 0.1 0.375 0.814643 0.0293149 0.479897
0.990306 0.1 -0.375 0.821696 0.025881 0.356311
0.150379 0.1 1.05 0.917178 0.0135037 0.43586
0.150379 0.1 -1.05 0.916599 0.0136708 0.4115
1.0579 0.1 -0.108157 0.782022 0.035078 0.390423
1.0579 0.1 0.108157 0.778878 0.0366912 0.434587
1.04168 0.1 0.218749 0.788185 0.0349872 0.456526
1.04168 0.1 -0.218749 0.793763 0.0321252 0.371776
0.90582 0.1 0.5625 0.85 0.0221184 0.494076
0.905821 0.1 -0.5625 0.854852 0.0193795 0.351352
0 0.1 -1.06799 0.906308 0 0.422618
0 0.1 1.06799 0.906308 0 0.422618
0.0363518 0.1 -1.06799 0.909085 0.00690757 0.419551
0.0363518 0.1 1.06799 0.909121 0.00685394 0.426237
0.350249 0.1 1.0125 0.920056 0.0109942 0.452075
0.350249 0.1 -1.0125 0.918289 0.0112338 0.397814
1.0579 0.1 -0.180262 0.786131 0.0340736 0.376628
1.0579 0.1 0.180262 0.781113 0.0366477 0.449389
1.02149 0.1 0.332665 0.801726 0.0323879 0.475918
1.02149 0.1 -0.332665 0.809182 0.0286361 0.356578
0.93886 0.1 0.525 0.839708 0.0244478 0.494275
0.93886 0.1 -0.525 0.845932 0.0211906 0.348837
1.08012 0.1 1.70581e-17 0.771325 0.0384114 0.411026
1.04168 0.1 0.291665 0.792713 0.034511 0.470191
1.04168 0.1 -0.291665 0.799957 0.0307717 0.35968
1.08012 0.1 0.0709941 0.771072 0.0388653 0.426422
1.08012 0.1 -0.074001 0.773421 0.0376213 0.394727
0.969689 0.1 -0.4875 0.836442 0.0231226 0.346678
0.96969 0.1 0.4875 0.82898 0.0268438 0.493861
1.0579 0.1 0.252367 0.78492 0.0363128 0.46373
1.0579 0.1 -0.252367 0.791814 0.0327138 0.363563
0.990306 0.1 -0.45 0.829078 0.0245508 0.347756
0.990306 0.1 0.45 0.821246 0.028448 0.490594
0.287374 0.1 -1.05 0.919707 0.0119717 0.402158
0.287374 0.1 1.05 0.921141 0.0117329 0.446814
1.08012 0.1 0.141988 0.77249 0.0390057 0.441763
1.08012 0.1 -0.141988 0.776813 0.0366936 0.381558
0.075776 0.1 1.0875 0.912227 0.0144262 0.430155
0.075776 0.1 -1.0875 0.91215 0.0145351 0.41622
0.714971 0.1 0.825 0.896049 0.0140425 0.486179
0.714971 0.1 -0.825 0.894877 0.0132414 0.366278
0.756813 0.1 0.7875 0.889821 0.0150672 0.489999
0.756813 0.1 -0.7875 0.889391 0.0139793 0.362086
0.67013 0.1 0.8625 0.901849 0.0130653 0.482013
0.67013 0.1 -0.8625 0.899985 0.0125499 0.370624
0.797314 0.1 -0.75 0.883308 0.0149305 0.357968
0.797314 0.1 0.75 0.882598 0.0164061 0.49335
0.623803 0.1 0.9 0.906545 0.0123539 0.477578
0.623803 0.1 -0.9 0.904329 0.0120411 0.374937
0.835106 0.1 0.7125 0.874882 0.0178043 0.496309
0.835107 0.1 -0.7125 0.876771 0.0159392 0.354021
0.574156 0.1 0.9375 0.910863 0.0116845 0.472838
0.574156 0.1 -0.9375 0.908361 0.0115721 0.379409
1.02149 0.1 -0.406591 0.816795 0.0271774 0.346874
1.02149 0.1 0.406591 0.808154 0.031561 0.487823
1.08012 0.1 -0.212982 0.781871 0.0354172 0.367688
1.08012 0.1 0.212982 0.775542 0.0388329 0.456791
1.10076 0.1 -0.0349809 0.764607 0.0403238 0.402044
1.10076 0.1 0.0349809 0.763465 0.0409872 0.41783
0.871687 0.1 0.675 0.866109 0.0194602 0.498627
0.871687 0.1 -0.675 0.869339 0.0171207 0.350312
1.04168 0.1 0.364581 0.798604 0.0337733 0.48299
1.04168 0.1 -0.364581 0.807282 0.0292788 0.348984
1.10076 0.1 0.104943 0.764034 0.0413264 0.433671
1.10076 0.1 -0.104943 0.76748 0.0393757 0.386967
0.522865 0.1 0.975 0.914194 0.0112911 0.467947
0.522865 0.1 -0.975 0.911696 0.0113107 0.383785
1.0579 0.1 0.324472 0.790183 0.0356912 0.47734
1.0579 0.1 -0.324472 0.798754 0.0312193 0.351933