# UMean  POINT_DATA 63831
# x  y  z  UMean_x  UMean_y  UMean_z
0 0.5 3.39583e-17 0.906308 0 0.422618
0 0.5 -0.00617931 0.906308 0 0.422618
0 0.5 0.00617931 0.906308 0 0.422618
0.0124865 0.5 0.00617931 0.90628 0.000896483 0.422918
0.0124865 0.5 -0.00617931 0.906279 0.000897938 0.422802
0 0.5 -0.0688207 0.906308 0 0.422618
0 0.5 0.0688207 0.906308 0 0.422618
0.0124865 0.5 0.0688207 0.90628 0.000896483 0.422918
0.0124865 0.5 -0.0688207 0.906279 0.000897938 0.422802
0 0.5 0.075 0.906308 0 0.422618
0 0.5 -0.075 0.906308 0 0.422618
0 0.5 -0.0811793 0.906308 0 0.422618
0 0.5 0.0811793 0.906308 0 0.422618
0.0124865 0.5 0.0811793 0.906281 0.000890325 0.423033
0.0124865 0.5 -0.0811793 0.906279 0.000896269 0.422683
0.075776 0.5 0.0375 0.906111 0.00543352 0.424432
0.075776 0.5 -0.0375 0.906106 0.00544278 0.423729
0.075776 0.5 0.1125 0.906118 0.00539649 0.425128
0.075776 0.5 -0.1125 0.90611 0.00543313 0.423014
0 0.5 -0.143821 0.906308 0 0.422618
0 0.5 0.143821 0.906308 0 0.422618
0.0124865 0.5 0.143821 0.906281 0.000890325 0.423033
0.0124865 0.5 -0.143821 0.906279 0.000896269 0.422683
0 0.5 0.15 0.906308 0 0.422618
0 0.5 -0.15 0.906308 0 0.422618
0.151149 0.5 2.20565e-18 0.904937 0.0091281 0.424919
0 0.5 -0.156179 0.906308 0 0.422618
0 0.5 0.156179 0.906308 0 0.422618
0.0124865 0.5 0.156179 0.906283 0.000880583 0.423144
0.0124865 0.5 -0.156179 0.906278 0.000892314 0.422568
0.151149 0.5 0.075 0.904966 0.00909699 0.426168
0.151149 0.5 -0.075 0.904928 0.00912446 0.423661
0.075776 0.5 0.1875 0.90613 0.00533765 0.425795
0.075776 0.5 -0.1875 0.906101 0.00540918 0.422318
0.151149 0.5 0.15 0.905015 0.00903087 0.427386
0.151149 0.5 -0.15 0.904931 0.00908961 0.422406
0 0.5 -0.218821 0.906308 0 0.422618
0 0.5 0.218821 0.906308 0 0.422618
0.0124865 0.5 0.218821 0.906283 0.000880583 0.423144
0.0124865 0.5 -0.218821 0.906278 0.000892314 0.422568
0.219992 0.5 0.0375 0.90386 0.0125684 0.426589
0.219992 0.5 -0.0375 0.903827 0.0125843 0.424818
0 0.5 0.225 0.906308 0 0.422618
0 0.5 -0.225 0.906308 0 0.422618
0 0.5 -0.231179 0.906308 0 0.422618
0 0.5 0.231179 0.906308 0 0.422618
0.0124865 0.5 0.231179 0.906286 0.000867541 0.423248
0.0124865 0.5 -0.231179 0.906278 0.000885039 0.42245
0.219993 0.5 0.1125 0.903927 0.0125073 0.428343
0.219993 0.5 -0.1125 0.903826 0.0125546 0.423045
0.151149 0.5 0.225 0.905086 0.00893079 0.428553
0.151149 0.5 -0.225 0.90495 0.00902349 0.421175
0.075776 0.5 0.2625 0.906151 0.00525856 0.426426
0.075776 0.5 -0.2625 0.906101 0.00536511 0.421611
0.288069 0.5 3.34766e-17 0.900998 0.0159928 0.426165
0.219992 0.5 0.1875 0.904032 0.0124022 0.430029
0.219992 0.5 -0.1875 0.903844 0.0124808 0.421278
0 0.5 0.293821 0.906308 0 0.422618
0 0.5 -0.293821 0.906308 0 0.422618
0.0124865 0.5 -0.293821 0.906278 0.000885039 0.42245
0.0124865 0.5 0.293821 0.906286 0.000867541 0.423248
0.288069 0.5 0.075 0.901087 0.0159512 0.428483
0.288069 0.5 -0.075 0.900975 0.0159747 0.423834
0 0.5 0.3 0.906308 0 0.422618
0 0.5 -0.3 0.906308 0 0.422618
0 0.5 0.306179 0.906308 0 0.422618
0 0.5 -0.306179 0.906308 0 0.422618
0.0124865 0.5 0.306179 0.906291 0.00085166 0.423345
0.0124865 0.5 -0.306179 0.906282 0.00087374 0.42234
0.288069 0.5 0.15 0.901245 0.0158511 0.430754
0.288069 0.5 -0.15 0.901014 0.0158972 0.421517
0.151149 0.5 0.3 0.905178 0.00879841 0.429656
0.151149 0.5 -0.3 0.905004 0.00892503 0.419986
0.219992 0.5 0.2625 0.904171 0.0122489 0.431645
0.219992 0.5 -0.2625 0.903908 0.0123624 0.419593
0.075776 0.5 0.3375 0.906178 0.00516209 0.427013
0.075776 0.5 -0.3375 0.906126 0.00529682 0.420945
0.350249 0.5 0.0375 0.89837 0.0191891 0.42803
0.350249 0.5 -0.0375 0.898293 0.0191972 0.425167
0.288069 0.5 0.225 0.901472 0.0156923 0.432944
0.288069 0.5 -0.225 0.901124 0.0157617 0.419265
0.350249 0.5 0.1125 0.898544 0.0191084 0.430846
0.350249 0.5 -0.1125 0.89831 0.019132 0.422317
0 0.5 0.368821 0.906308 0 0.422618
0 0.5 -0.368821 0.906308 0 0.422618
0.0124865 0.5 0.368821 0.906291 0.00085166 0.423345
0.0124865 0.5 -0.368821 0.906282 0.00087374 0.42234
0 0.5 0.375 0.906308 0 0.422618
0 0.5 -0.375 0.906308 0 0.422618
0 0.5 -0.381179 0.906308 0 0.422618
0 0.5 0.381179 0.906308 0 0.422618
0.0124865 0.5 0.381179 0.906296 0.000833287 0.423434
0.0124865 0.5 -0.381179 0.906286 0.000859947 0.422237
0.350249 0.5 0.1875 0.898821 0.0189573 0.433606
0.350249 0.5 -0.1875 0.898429 0.018994 0.419508
0.219992 0.5 0.3375 0.904342 0.0120541 0.433157
0.219992 0.5 -0.3375 0.904028 0.0122049 0.417962
0.151149 0.5 0.375 0.905288 0.00863726 0.430677
0.151149 0.5 -0.375 0.905081 0.00879849 0.418856
0.411736 0.5 1.70099e-17 0.894301 0.022519 0.426728
0.288069 0.5 0.3 0.901761 0.015476 0.435021
0.288069 0.5 -0.3 0.901312 0.0155737 0.417104
0.411736 0.5 0.075 0.894467 0.0224768 0.430148
0.411736 0.5 -0.075 0.89428 0.0224701 0.423297
0.075776 0.5 0.4125 0.906211 0.00505027 0.427549
0.075776 0.5 -0.4125 0.906146 0.00521341 0.420319
0.350249 0.5 -0.2625 0.89866 0.0187871 0.416823
0.350249 0.5 0.2625 0.899193 0.0187352 0.436238
0.411736 0.5 0.15 0.894776 0.0223451 0.433508
0.411736 0.5 -0.15 0.894408 0.022331 0.419911
0 0.5 -0.443821 0.906308 0 0.422618
0 0.5 0.443821 0.906308 0 0.422618
0.0124865 0.5 0.443821 0.906296 0.000833287 0.423434
0.0124865 0.5 -0.443821 0.906286 0.000859947 0.422237
0 0.5 0.45 0.906308 0 0.422618
0 0.5 -0.45 0.906308 0 0.422618
0 0.5 -0.456179 0.906308 0 0.422618
0 0.5 0.456179 0.906308 0 0.422618
0.0124865 0.5 0.456179 0.906303 0.000812749 0.423513
0.0124865 0.5 -0.456179 0.906289 0.000844027 0.42214
0.219992 0.5 -0.4125 0.904165 0.0120145 0.41643
0.219993 0.5 0.4125 0.904542 0.0118202 0.434549
0.411736 0.5 0.225 0.895229 0.0221257 0.436761
0.411736 0.5 -0.225 0.89469 0.0221055 0.416631
0.467897 0.5 0.0375 0.890565 0.0256496 0.428843
0.467897 0.5 -0.0375 0.890453 0.025636 0.424856
0.288069 0.5 0.375 0.902108 0.0152067 0.436957
0.288069 0.5 -0.375 0.901562 0.01534 0.41505
0.151149 0.5 -0.45 0.905169 0.00864886 0.4178
0.151149 0.5 0.45 0.905414 0.00845007 0.431607
0.467897 0.5 0.1125 0.89086 0.0255559 0.432792
0.467897 0.5 -0.1125 0.890537 0.0255135 0.420901
0.350249 0.5 0.3375 0.899652 0.0184456 0.438722
0.350249 0.5 -0.3375 0.898986 0.0185242 0.414242
0.075776 0.5 -0.4875 0.906169 0.00511685 0.419736
0.075776 0.5 0.4875 0.906249 0.00492498 0.428028
0.467897 0.5 0.1875 0.891341 0.0253566 0.436639
0.467897 0.5 -0.1875 0.890825 0.025287 0.417036
0.411736 0.5 0.3 0.895816 0.0218215 0.439856
0.411736 0.5 -0.3 0.895112 0.0218033 0.413493
0 0.5 -0.518821 0.906308 0 0.422618
0 0.5 0.518821 0.906308 0 0.422618
0.0124865 0.5 0.518821 0.906303 0.000812749 0.423513
0.0124865 0.5 -0.518821 0.906289 0.000844027 0.42214
0.523432 0.5 3.75966e-17 0.88555 0.0289406 0.4267
0 0.5 0.525 0.906308 0 0.422618
0 0.5 -0.525 0.906308 0 0.422618
0.523432 0.5 0.075 0.885788 0.0289104 0.431269
0.523432 0.5 -0.075 0.885564 0.0288433 0.422138
0 0.5 -0.531179 0.906308 0 0.422618
0 0.5 0.531179 0.906308 0 0.422618
0.0124865 0.5 0.531179 0.90631 0.000790345 0.423582
0.0124865 0.5 -0.531179 0.906294 0.000826212 0.422052
0.288069 0.5 0.45 0.902505 0.0148892 0.438728
0.288069 0.5 -0.45 0.90186 0.0150647 0.413136
0.219992 0.5 -0.4875 0.904327 0.0117942 0.415004
0.219992 0.5 0.4875 0.904763 0.0115515 0.435806
0.467897 0.5 -0.2625 0.8913 0.0249631 0.413334
0.467897 0.5 0.2625 0.892006 0.0250557 0.440347
0.350249 0.5 0.4125 0.90019 0.0180941 0.441018
0.350249 0.5 -0.4125 0.899386 0.0182076 0.411829
0.523432 0.5 0.15 0.88627 0.0287541 0.435766
0.523432 0.5 -0.15 0.885838 0.0286215 0.417659
0.151149 0.5 0.525 0.905552 0.00823975 0.432434
0.151149 0.5 -0.525 0.905271 0.00847823 0.416824
0.411736 0.5 0.375 0.896524 0.0214378 0.442749
0.411736 0.5 -0.375 0.895658 0.0214328 0.410531
0.075776 0.5 0.5625 0.906291 0.0047882 0.428446
0.075776 0.5 -0.5625 0.906195 0.0050086 0.419201
0.523432 0.5 0.225 0.886989 0.028475 0.440125
0.523432 0.5 -0.225 0.88636 0.0282824 0.41333
0.574156 0.5 0.0375 0.880923 0.0320734 0.429133
0.574157 0.5 -0.0375 0.880804 0.0320213 0.423983
0.467897 0.5 0.3375 0.892837 0.0246575 0.443841
0.467897 0.5 -0.3375 0.89194 0.0245558 0.409808
0.574156 0.5 0.1125 0.881347 0.0319796 0.434258
0.574156 0.5 -0.1125 0.881005 0.0318236 0.418893
0 0.5 -0.593821 0.906308 0 0.422618
0 0.5 0.593821 0.906308 0 0.422618
0.0124865 0.5 0.593821 0.90631 0.000790345 0.423582
0.0124865 0.5 -0.593821 0.906294 0.000826212 0.422052
0.288069 0.5 0.525 0.902941 0.0145285 0.440314
0.288069 0.5 -0.525 0.902203 0.0147515 0.411376
0 0.5 0.6 0.906308 0 0.422618
0 0.5 -0.6 0.906308 0 0.422618
0.350249 0.5 0.4875 0.900794 0.0176866 0.443101
0.350249 0.5 -0.4875 0.899859 0.0178426 0.409597
0.523432 0.5 -0.3 0.887109 0.0278371 0.40921
0.523432 0.5 0.3 0.887936 0.0280782 0.444282
0.219992 0.5 0.5625 0.905002 0.0112514 0.436914
0.219992 0.5 -0.5625 0.904512 0.0115458 0.413698
0.574156 0.5 0.1875 0.882062 0.0317425 0.43926
0.574157 0.5 -0.1875 0.881518 0.0314882 0.413946
0 0.5 -0.606179 0.906308 0 0.422618
0 0.5 0.606179 0.906308 0 0.422618
0.0124865 0.5 0.606179 0.906318 0.000766448 0.42364
0.0124865 0.5 -0.606179 0.906299 0.000806763 0.421972
0.411736 0.5 0.45 0.897337 0.0209814 0.445403
0.411736 0.5 -0.45 0.896312 0.0209995 0.407791
0.151149 0.5 0.6 0.905699 0.00800922 0.433153
0.151149 0.5 -0.6 0.905385 0.00828835 0.415937
0.467897 0.5 0.4125 0.893816 0.0241694 0.447081
0.467897 0.5 -0.4125 0.892734 0.0240703 0.406536
0.624316 0.5 2.64545e-17 0.875162 0.0353465 0.426181
0.624316 0.5 0.075 0.875459 0.0353417 0.431941
0.624316 0.5 -0.075 0.87525 0.0351853 0.420451
0.574156 0.5 -0.2625 0.882314 0.0310249 0.409206
0.574157 0.5 0.2625 0.883064 0.0313669 0.444076
0.075776 0.5 0.6375 0.906336 0.00464212 0.4288
0.075776 0.5 -0.6375 0.906227 0.00489001 0.418718
0.624316 0.5 0.15 0.876127 0.0351714 0.437628
0.624316 0.5 -0.15 0.875721 0.0348636 0.414844
0.523432 0.5 0.375 0.889088 0.0275709 0.448174
0.523432 0.5 -0.375 0.888066 0.0272968 0.405355
0.350249 0.5 -0.5625 0.900393 0.0174338 0.407571
0.350249 0.5 0.5625 0.901451 0.0172296 0.444949
0.624316 0.5 0.225 0.877149 0.0348395 0.443145
0.624316 0.5 -0.225 0.876556 0.0343917 0.409443
0.288069 0.5 0.6 0.903407 0.0141298 0.441701
0.288069 0.5 -0.6 0.902585 0.014404 0.409787
0.574157 0.5 0.3375 0.884331 0.0308601 0.448628
0.574157 0.5 -0.3375 0.883377 0.0304472 0.404748
0.411736 0.5 0.525 0.898237 0.0204603 0.447788
0.411736 0.5 -0.525 0.89706 0.0205103 0.405294
0 0.5 -0.668821 0.906308 0 0.422618
0 0.5 0.668821 0.906308 0 0.422618
0.0124865 0.5 0.668821 0.906318 0.000766448 0.42364
0.0124865 0.5 -0.668821 0.906299 0.000806763 0.421972
0.67013 0.5 0.0375 0.869797 0.0385167 0.429002
0.67013 0.5 -0.0375 0.869702 0.0384128 0.422646
0.219993 0.5 -0.6375 0.904715 0.0112716 0.412523
0.219992 0.5 0.6375 0.90525 0.010924 0.437864
0 0.5 0.675 0.906308 0 0.422618
0 0.5 -0.675 0.906308 0 0.422618
0.467897 0.5 -0.4875 0.893659 0.0235154 0.403539
0.467897 0.5 0.4875 0.89492 0.0236005 0.450025
0.67013 0.5 0.1125 0.870345 0.0384338 0.435348
0.67013 0.5 -0.1125 0.870063 0.0381254 0.416382
0 0.5 -0.681179 0.906308 0 0.422618
0 0.5 0.681179 0.906308 0 0.422618
0.0124865 0.5 0.681179 0.906325 0.000741336 0.423688
0.0124865 0.5 -0.681179 0.906305 0.000785912 0.421902
0.523432 0.5 0.45 0.890416 0.0269626 0.451749
0.523432 0.5 -0.45 0.889206 0.0266708 0.401817
0.151149 0.5 0.675 0.905851 0.00776164 0.433757
0.151149 0.5 -0.675 0.90551 0.00808136 0.415145
0.624316 0.5 0.3 0.878509 0.034353 0.448412
0.624316 0.5 -0.3 0.877729 0.033782 0.404338
0.67013 0.5 0.1875 0.871319 0.038167 0.44156
0.67013 0.5 -0.1875 0.870862 0.037665 0.410311
0.574156 0.5 0.4125 0.885832 0.0302313 0.452853
0.574156 0.5 -0.4125 0.884683 0.0297672 0.400634
0.715434 0.5 3.51282e-17 0.863506 0.0417669 0.425266
0.075776 0.5 0.7125 0.906382 0.00448879 0.429088
0.075776 0.5 -0.7125 0.906263 0.0047627 0.418289
0.715434 0.5 0.075 0.863845 0.0417983 0.432262
0.715434 0.5 -0.075 0.863704 0.0415292 0.418326
0.67013 0.5 0.2625 0.872701 0.037722 0.447537
0.67013 0.5 -0.2625 0.872073 0.037044 0.404524
0.350249 0.5 -0.6375 0.900976 0.016986 0.405767
0.350249 0.5 0.6375 0.902144 0.0167301 0.446545
0.411736 0.5 0.6 0.899204 0.0198826 0.44988
0.411736 0.5 -0.6 0.897885 0.019972 0.403064
0.624316 0.5 0.375 0.880174 0.0337212 0.453346
0.624316 0.5 -0.375 0.879211 0.0330491 0.399602
0.715434 0.5 0.15 0.864706 0.0416226 0.439187
0.715434 0.5 -0.15 0.864425 0.0410935 0.411555
0.467897 0.5 0.5625 0.896125 0.0229602 0.452641
0.467897 0.5 -0.5625 0.894693 0.0228998 0.400849
0.288069 0.5 0.675 0.903892 0.0136987 0.442877
0.288069 0.5 -0.675 0.902997 0.0140262 0.408381
0.523432 0.5 0.525 0.891892 0.0262644 0.454964
0.523432 0.5 -0.525 0.890496 0.0259698 0.398628
0 0.5 -0.743821 0.906308 0 0.422618
0 0.5 0.743821 0.906308 0 0.422618
0.0124865 0.5 -0.743821 0.906305 0.000785912 0.421902
0.0124865 0.5 0.743821 0.906325 0.000741336 0.423688
0.219992 0.5 0.7125 0.905505 0.0105734 0.438651
0.219992 0.5 -0.7125 0.904933 0.0109748 0.411486
0.715434 0.5 0.225 0.86606 0.041244 0.445914
0.715434 0.5 -0.225 0.86565 0.0404721 0.405065
0 0.5 0.75 0.906308 0 0.422618
0 0.5 -0.75 0.906308 0 0.422618
0.67013 0.5 0.3375 0.874466 0.0371084 0.453202
0.67013 0.5 -0.3375 0.873671 0.0362768 0.39914
0.574157 0.5 0.4875 0.887533 0.0294932 0.456692
0.574157 0.5 -0.4875 0.886187 0.0289959 0.396906
0 0.5 -0.756179 0.906308 0 0.422618
0 0.5 0.756179 0.906308 0 0.422618
0.0124865 0.5 0.756179 0.906332 0.000715538 0.423724
0.0124865 0.5 -0.756179 0.906312 0.000764004 0.42184
0.756813 0.5 0.0375 0.857576 0.044982 0.428538
0.756813 0.5 -0.0375 0.85753 0.044816 0.420931
0.151149 0.5 0.75 0.906005 0.00750066 0.434244
0.151149 0.5 -0.75 0.905642 0.00785989 0.414453
0.756813 0.5 0.1125 0.858238 0.044919 0.436152
0.756813 0.5 -0.1125 0.858094 0.0444266 0.413456
0.624316 0.5 -0.45 0.880956 0.0322069 0.395289
0.624316 0.5 0.45 0.882103 0.0329566 0.457876
0.715434 0.5 0.3 0.86788 0.0406707 0.452339
0.715434 0.5 -0.3 0.867343 0.03968 0.398968
0.756813 0.5 0.1875 0.859487 0.0446291 0.443621
0.756813 0.5 -0.1875 0.859243 0.043827 0.406236
0.67013 0.5 -0.4125 0.875602 0.0353811 0.394196
0.67013 0.5 0.4125 0.876566 0.0363377 0.45844
0.411736 0.5 0.675 0.900215 0.019257 0.451663
0.411736 0.5 -0.675 0.898766 0.019392 0.401113
0.467897 0.5 0.6375 0.897403 0.0222584 0.454906
0.467897 0.5 -0.6375 0.895811 0.0222322 0.398485
0.075776 0.5 0.7875 0.906427 0.00433109 0.42931
0.075776 0.5 -0.7875 0.906301 0.00462867 0.417918
0.350249 0.5 0.7125 0.902858 0.0161952 0.44788
0.350249 0.5 -0.7125 0.901594 0.0165054 0.404193
0.523432 0.5 0.6 0.89348 0.0254878 0.457785
0.523432 0.5 -0.6 0.891905 0.0252046 0.395816
0.797732 0.5 3.20924e-17 0.850907 0.0481881 0.424038
0.756813 0.5 0.2625 0.861284 0.0441189 0.450815
0.756814 0.5 -0.2625 0.86096 0.0430304 0.399402
0.797732 0.5 0.075 0.851267 0.0482636 0.432313
0.797732 0.5 -0.075 0.851252 0.0478648 0.415849
0.288069 0.5 0.75 0.904387 0.0132413 0.443838
0.288069 0.5 -0.75 0.903428 0.0136231 0.407162
0.574156 0.5 -0.5625 0.887852 0.0281466 0.393603
0.574156 0.5 0.5625 0.889391 0.0286585 0.460104
0.715434 0.5 0.375 0.870122 0.0399147 0.45836
0.715434 0.5 -0.375 0.869453 0.0387351 0.393349
0.797732 0.5 0.15 0.852321 0.0480889 0.44052
0.797732 0.5 -0.15 0.852278 0.047304 0.407885
0.624316 0.5 0.525 0.88425 0.0320739 0.461951
0.624316 0.5 -0.525 0.882913 0.03127 0.391447
0.219992 0.5 0.7875 0.905762 0.010205 0.439274
0.219992 0.5 -0.7875 0.905158 0.010659 0.410592
0 0.5 -0.818821 0.906308 0 0.422618
0 0.5 0.818821 0.906308 0 0.422618
0.0124865 0.5 -0.818821 0.906312 0.000764004 0.42184
0.0124865 0.5 0.818821 0.906332 0.000715538 0.423724
0 0.5 0.825 0.906308 0 0.422618
0 0.5 -0.825 0.906308 0 0.422618
0.756813 0.5 -0.3375 0.863182 0.0420562 0.393067
0.756813 0.5 0.3375 0.863597 0.0433993 0.457621
0.67013 0.5 0.4875 0.878947 0.0354258 0.46321
0.67013 0.5 -0.4875 0.877807 0.0343721 0.389768
0.797732 0.5 0.225 0.85403 0.0476681 0.448505
0.797732 0.5 -0.225 0.853964 0.0465198 0.400282
0 0.5 -0.831179 0.906308 0 0.422618
0 0.5 0.831179 0.906308 0 0.422618
0.0124865 0.5 0.831179 0.906339 0.000689531 0.42375
0.0124865 0.5 -0.831179 0.906318 0.000741307 0.421789
0.835106 0.5 -0.0375 0.844557 0.0512021 0.41892
0.835106 0.5 0.0375 0.844522 0.0514366 0.42782
0.151149 0.5 0.825 0.906159 0.00723072 0.434616
0.151149 0.5 -0.825 0.905779 0.00762697 0.413862
0.835106 0.5 0.1125 0.845287 0.0513992 0.436744
0.835106 0.5 -0.1125 0.845375 0.0507025 0.410202
0.715434 0.5 0.45 0.872727 0.0389909 0.463882
0.715434 0.5 -0.45 0.871915 0.0376561 0.388278
0.797732 0.5 0.3 0.856348 0.0470106 0.456128
0.797732 0.5 -0.3 0.856264 0.0455302 0.393173
0.467897 0.5 0.7125 0.898726 0.0215056 0.456805
0.467897 0.5 -0.7125 0.896983 0.0215224 0.396457
0.523432 0.5 0.675 0.895144 0.024645 0.460191
0.523432 0.5 -0.675 0.893395 0.024387 0.393394
0.411736 0.5 0.75 0.901249 0.0185923 0.453128
0.411736 0.5 -0.75 0.899682 0.0187785 0.399449
0.835106 0.5 0.1875 0.846818 0.0510908 0.445513
0.835106 0.5 -0.1875 0.846933 0.049954 0.401806
0.574156 0.5 0.6375 0.891364 0.0277412 0.463056
0.574156 0.5 -0.6375 0.889633 0.0272327 0.390742
0.350249 0.5 -0.7875 0.902233 0.0159986 0.402855
0.350249 0.5 0.7875 0.903581 0.015632 0.448948
0.756813 0.5 -0.4125 0.865839 0.0409252 0.387296
0.756814 0.5 0.4125 0.866361 0.0424857 0.463946
0.075776 0.5 -0.8625 0.906341 0.00448964 0.417604
0.075776 0.5 0.8625 0.906467 0.00417175 0.429469
0.624316 0.5 0.6 0.886563 0.0310885 0.465522
0.624316 0.5 -0.6 0.885032 0.030254 0.388106
0.872064 0.5 4.32235e-17 0.83772 0.0545336 0.422566
0.288069 0.5 0.825 0.904883 0.0127643 0.444584
0.288069 0.5 -0.825 0.90387 0.0132003 0.406134
0.67013 0.5 0.5625 0.881556 0.0343901 0.467441
0.67013 0.5 -0.5625 0.880227 0.0332676 0.385892
0.872064 0.5 0.075 0.838088 0.0546583 0.432156
0.872064 0.5 -0.075 0.838244 0.0541186 0.4131
0.835106 0.5 0.2625 0.849061 0.0505183 0.453966
0.835106 0.5 -0.2625 0.849233 0.0489696 0.393891
0.797732 0.5 0.375 0.859223 0.0461304 0.463273
0.797732 0.5 -0.375 0.859097 0.0443573 0.386669
0.872064 0.5 0.15 0.839336 0.0544897 0.441681
0.872064 0.5 -0.15 0.839614 0.0534258 0.403919
0.715434 0.5 0.525 0.87563 0.037918 0.468837
0.715434 0.5 -0.525 0.874655 0.0364622 0.383815
0.219992 0.5 0.8625 0.90602 0.00982543 0.439734
0.219993 0.5 -0.8625 0.905388 0.0103289 0.409841
0 0.5 -0.893821 0.906308 0 0.422618
0 0.5 0.893821 0.906308 0 0.422618
0.0124865 0.5 0.893821 0.906339 0.000689531 0.42375
0.0124865 0.5 -0.893821 0.906318 0.000741307 0.421789
0 0.5 0.9 0.906308 0 0.422618
0 0.5 -0.9 0.906308 0 0.422618
0.756813 0.5 0.4875 0.869502 0.0413952 0.469654
0.756813 0.5 -0.4875 0.868855 0.0396576 0.382189
0.872064 0.5 0.225 0.841415 0.0540314 0.450957
0.872064 0.5 -0.225 0.841811 0.0524704 0.395173
0.835106 0.5 0.3375 0.851961 0.0496948 0.461951
0.835106 0.5 -0.3375 0.852167 0.0477756 0.386585
0 0.5 0.906179 0.906308 0 0.422618
0 0.5 -0.906179 0.906308 0 0.422618
0.0124865 0.5 0.906179 0.906344 0.000663501 0.423766
0.0124865 0.5 -0.906179 0.906325 0.000718147 0.421746
0.90582 0.5 -0.0375 0.831218 0.057451 0.41668
0.905821 0.5 0.0375 0.831092 0.0577581 0.426903
0.151149 0.5 0.9 0.906311 0.00695579 0.434875
0.90582 0.5 0.1125 0.83196 0.0577508 0.437167
0.90582 0.5 -0.1125 0.832326 0.0568357 0.406707
0.151149 0.5 -0.901373 0.905918 0.00739979 0.413328
0.523432 0.5 0.75 0.896847 0.0237483 0.462171
0.523432 0.5 -0.75 0.89493 0.0235288 0.391367
0.574157 0.5 0.7125 0.893406 0.0267553 0.46553
0.574156 0.5 -0.7125 0.891485 0.0262684 0.388334
0.797732 0.5 0.45 0.862575 0.0450453 0.469818
0.797732 0.5 -0.45 0.862378 0.0430246 0.380858
0.467897 0.5 0.7875 0.900065 0.0207119 0.458332
0.467897 0.5 -0.7875 0.898184 0.0207803 0.394765
0.624316 0.5 0.675 0.888987 0.0300167 0.468563
0.624316 0.5 -0.675 0.887253 0.0291754 0.385278
0.411736 0.5 0.825 0.902285 0.0178975 0.454274
0.411736 0.5 -0.825 0.900613 0.01814 0.39807
0.872064 0.5 0.3 0.844262 0.0532939 0.459812
0.872064 0.5 -0.3 0.844788 0.0512743 0.387033
0.67013 0.5 0.6375 0.884328 0.0332483 0.471093
0.67013 0.5 -0.6375 0.882794 0.032086 0.382591
0.90582 0.5 0.1875 0.833779 0.0574295 0.44726
0.90582 0.5 -0.1875 0.834309 0.0559335 0.397113
0.350249 0.5 -0.8625 0.90288 0.0154728 0.40175
0.350249 0.5 0.8625 0.904298 0.0150487 0.449754
0.835106 0.5 0.4125 0.855455 0.048637 0.469369
0.835106 0.5 -0.4125 0.855651 0.0463944 0.380017
0.715434 0.5 0.6 0.87876 0.0367163 0.473174
0.715434 0.5 -0.6 0.877598 0.0351745 0.379991
0.939201 0.5 4.40909e-17 0.823988 0.0609323 0.420907
0.075776 0.5 -0.9375 0.906381 0.00434777 0.417346
0.075776 0.5 0.9375 0.906502 0.00401271 0.429565
0.939201 0.5 0.075 0.824341 0.0611101 0.431875
0.939201 0.5 -0.075 0.824744 0.0604176 0.410113
0.756814 0.5 0.5625 0.872945 0.0401519 0.474722
0.756814 0.5 -0.5625 0.872138 0.0382769 0.377778
0.905821 0.5 0.2625 0.836488 0.0568005 0.456998
0.905821 0.5 -0.2625 0.837237 0.0547542 0.388079
0.288069 0.5 0.9 0.905373 0.0122744 0.445119
0.288069 0.5 -0.901373 0.90432 0.0127682 0.405237
0.872064 0.5 0.375 0.847809 0.052293 0.468102
0.872064 0.5 -0.375 0.848426 0.049865 0.37965
0.939201 0.5 -0.15 0.826501 0.0595807 0.399674
0.939201 0.5 0.15 0.825775 0.0609484 0.442774
0.797732 0.5 0.525 0.866311 0.0437783 0.475672
0.797732 0.5 -0.525 0.866008 0.0415573 0.375803
0.219993 0.5 -0.9375 0.90562 0.00998902 0.409231
0.219992 0.5 0.9375 0.906283 0.00943898 0.440038
0.939201 0.5 0.225 0.828236 0.0604503 0.453391
0.939201 0.5 -0.225 0.829258 0.0584383 0.389737
0.90582 0.5 0.3375 0.840005 0.0558793 0.466196
0.90582 0.5 -0.3375 0.840956 0.0533365 0.379814
0.835106 0.5 -0.4875 0.859582 0.0448556 0.374249
0.835107 0.5 0.4875 0.859432 0.0473665 0.476054
0 0.5 0.968821 0.906308 0 0.422618
0 0.5 -0.968821 0.906308 0 0.422618
0.0124865 0.5 0.968821 0.906344 0.000663501 0.423766
0.0124865 0.5 -0.968821 0.906325 0.000718147 0.421746
0.969689 0.5 0.0375 0.816921 0.0643172 0.425873
0.969689 0.5 -0.0375 0.817192 0.0639308 0.41423
0.574156 0.5 0.7875 0.895475 0.0257151 0.467519
0.574156 0.5 -0.7875 0.893363 0.0252675 0.386373
0 0.5 0.975 0.906308 0 0.422618
0 0.5 -0.975 0.906308 0 0.422618
0.624316 0.5 0.75 0.891469 0.0288748 0.47106
0.624316 0.5 -0.75 0.889523 0.0280503 0.382964
0.969689 0.5 0.1125 0.817864 0.0643403 0.437568
0.96969 0.5 -0.1125 0.818703 0.0631843 0.402939
0.523432 0.5 0.825 0.898555 0.02281 0.463722
0.523432 0.5 -0.825 0.896476 0.022642 0.389728
0.67013 0.5 0.7125 0.887197 0.032019 0.474146
0.67013 0.5 -0.7125 0.88544 0.0308462 0.37987
0 0.5 -0.981179 0.906308 0 0.422618
0 0.5 0.981179 0.906308 0 0.422618
0.467897 0.5 0.8625 0.901395 0.0198878 0.459491
0.467897 0.5 -0.8625 0.899388 0.0200159 0.393402
0.0124865 0.5 0.981179 0.906348 0.000638265 0.423773
0.0124865 0.5 -0.981179 0.906331 0.000694931 0.421713
0.872064 0.5 0.45 0.85196 0.0510492 0.475696
0.872064 0.5 -0.45 0.852611 0.0482699 0.373117
0.715434 0.5 0.675 0.88204 0.0354062 0.476856
0.715434 0.5 -0.675 0.880661 0.0338146 0.376817
0.939201 0.5 0.3 0.831645 0.0596274 0.463526
0.939201 0.5 -0.3 0.833004 0.0570174 0.380531
0.151149 0.5 0.975 0.906463 0.00667885 0.435028
0.151149 0.5 -0.975 0.906055 0.00714023 0.41298
0.969689 0.5 0.1875 0.819966 0.0639993 0.449065
0.969689 0.5 -0.1875 0.821113 0.0621064 0.392081
0.756814 0.5 0.6375 0.8766 0.0387777 0.479084
0.756814 0.5 -0.6375 0.875597 0.0368074 0.374089
0.411736 0.5 0.9 0.903303 0.0171815 0.455107
0.411736 0.5 -0.901373 0.901558 0.0174797 0.396904
0.90582 0.5 0.4125 0.844254 0.0546836 0.474711
0.90582 0.5 -0.4125 0.845339 0.0517025 0.372453
0.797732 0.5 0.6 0.870337 0.042355 0.480783
0.797732 0.5 -0.6 0.869879 0.0399818 0.371538
1.00005 0.5 1.48897e-17 0.810579 0.0665824 0.419154
0.350249 0.5 -0.9375 0.903522 0.0149348 0.400872
0.350249 0.5 0.9375 0.904993 0.0144518 0.450304
1.00005 0.5 0.0749309 0.810918 0.0668114 0.431422
1.00005 0.5 -0.0749309 0.811578 0.0659792 0.407128
0.969689 0.5 0.2625 0.823166 0.0633004 0.460157
0.969689 0.5 -0.2625 0.824803 0.060704 0.381859
0.835106 0.5 0.5625 0.863778 0.0459123 0.48197
0.835106 0.5 -0.5625 0.863833 0.043187 0.36934
1.00005 0.5 0.149862 0.812541 0.0666655 0.443609
1.00005 0.5 -0.149862 0.813729 0.06502 0.395534
0.939201 0.5 0.375 0.835906 0.0584978 0.472996
0.939201 0.5 -0.375 0.837537 0.0553522 0.37224
0.075776 0.5 1.0125 0.906529 0.00385693 0.429605
0.075776 0.5 -1.0125 0.906418 0.00420508 0.417143
0.288069 0.5 0.975 0.905851 0.0117753 0.445453
0.288069 0.5 -0.975 0.904754 0.0123185 0.404632
0.872064 0.5 0.525 0.856592 0.0495891 0.48247
0.872064 0.5 -0.525 0.857211 0.04652 0.367493
1.00005 0.5 0.224793 0.815385 0.0661468 0.455483
1.00005 0.5 -0.224793 0.817059 0.0637198 0.384455
0.96969 0.5 0.3375 0.827353 0.0622621 0.470626
0.96969 0.5 -0.3375 0.829422 0.0590291 0.372593
1.0271 0.5 0.0368226 0.803439 0.0698694 0.424599
1.0271 0.5 -0.0368226 0.803808 0.0694269 0.411887
0.90582 0.5 0.4875 0.849108 0.0532394 0.482432
0.90582 0.5 -0.4875 0.850244 0.0498875 0.366043
1.0271 0.5 0.110468 0.80446 0.0699299 0.437369
1.0271 0.5 -0.110468 0.805593 0.0686032 0.399643
0.67013 0.5 -0.7875 0.888103 0.0295664 0.377716
0.67013 0.5 0.7875 0.890103 0.030721 0.476591
0.624316 0.5 0.825 0.893957 0.0276794 0.473011
0.624316 0.5 -0.825 0.89179 0.0268945 0.381147
0.219992 0.5 -1.0125 0.90585 0.00964441 0.408755
0.219993 0.5 1.0125 0.90655 0.00904827 0.440197
0.574156 0.5 0.8625 0.897528 0.0246349 0.469026
0.574156 0.5 -0.8625 0.895228 0.024243 0.384843
0.715434 0.5 0.75 0.885397 0.0340081 0.479867
0.715434 0.5 -0.75 0.883767 0.0324037 0.374285
0.756813 0.5 -0.7125 0.879137 0.0352736 0.37112
0.756814 0.5 0.7125 0.880381 0.0372949 0.482715
0.523432 0.5 0.9 0.900233 0.0218423 0.464853
0.939201 0.5 0.45 0.840911 0.0570852 0.481662
0.939201 0.5 -0.45 0.842709 0.0534731 0.364954
1.04168 0.5 0 0.799681 0.0712514 0.417714
0.523432 0.5 -0.901373 0.898038 0.0217229 0.388391
1.0271 0.5 0.184113 0.806806 0.0696072 0.449932
1.0271 0.5 -0.184113 0.808444 0.0674321 0.387832
0 0.5 1.04382 0.906308 0 0.422618
0 0.5 -1.04382 0.906308 0 0.422618
0.0124865 0.5 1.04382 0.906348 0.000638265 0.423773
0.0124865 0.5 -1.04382 0.906331 0.000694931 0.421713
1.00005 0.5 0.299723 0.81936 0.0652676 0.466823
1.00005 0.5 -0.299723 0.821592 0.0621106 0.374222
1.04168 0.5 0.0729162 0.799993 0.0715148 0.430741
1.04168 0.5 -0.0729162 0.800811 0.0706017 0.40498
0.797732 0.5 0.675 0.874555 0.0407999 0.485103
0.797732 0.5 -0.675 0.873881 0.0383246 0.368073
0.467897 0.5 -0.9375 0.90057 0.0192379 0.392354
0.467897 0.5 0.9375 0.902686 0.0190434 0.460291
0 0.5 1.05 0.906308 0 0.422618
0 0.5 -1.05 0.906308 0 0.422618
0.835106 0.5 0.6375 0.868396 0.0443015 0.487036
0.835106 0.5 -0.6375 0.868283 0.0414176 0.36531
1.04168 0.5 0.145832 0.801688 0.0713924 0.443679
1.04168 0.5 -0.145832 0.803216 0.0695837 0.392732
0.969689 0.5 -0.4125 0.834799 0.0571052 0.364352
0.96969 0.5 0.4125 0.832422 0.0609049 0.480285
0 0.5 1.05618 0.906308 0 0.422618
0 0.5 -1.05618 0.906308 0 0.422618
0.0124865 0.5 1.05618 0.906351 0.000613877 0.42377
0.0124865 0.5 -1.05618 0.906336 0.000671807 0.421688
1.05695 0.5 -0.0360764 0.795989 0.0725875 0.410522
1.05695 0.5 0.0360764 0.795557 0.073058 0.423776
0.411736 0.5 0.975 0.904281 0.0164517 0.45564
0.411736 0.5 -0.975 0.902447 0.0168197 0.396131
0.872064 0.5 0.6 0.861576 0.0479446 0.488346
0.872064 0.5 -0.6 0.862087 0.0446471 0.362826
1.0271 0.5 0.257759 0.810414 0.0689073 0.462073
1.0271 0.5 -0.257759 0.812706 0.0659098 0.376619
0.151149 0.5 -1.05 0.90619 0.00689317 0.412682
0.151149 0.5 1.05 0.906609 0.00640334 0.435081
1.05695 0.5 0.108229 0.796561 0.0731414 0.437068
1.05695 0.5 -0.108229 0.797901 0.0717267 0.397837
1.04168 0.5 0.218749 0.804706 0.0708855 0.456302
1.04168 0.5 -0.218749 0.806875 0.0682098 0.380953
0.90582 0.5 0.5625 0.854425 0.0515767 0.489171
0.90582 0.5 -0.5625 0.855523 0.0479228 0.360657
1.00005 0.5 0.374654 0.824343 0.0640479 0.477413
1.00005 0.5 -0.374654 0.827039 0.0602328 0.365064
0.350249 0.5 1.0125 0.905653 0.0138438 0.450615
0.350249 0.5 -1.0125 0.90415 0.0143903 0.400207
1.05695 0.5 0.180382 0.798944 0.0728346 0.45015
1.05695 0.5 -0.180382 0.800975 0.0705115 0.385585
0.939201 0.5 0.525 0.84651 0.0554194 0.489374
0.939201 0.5 -0.525 0.848368 0.0514171 0.358771
1.0271 0.5 -0.331404 0.818077 0.0641018 0.366516
1.0271 0.5 0.331404 0.81516 0.0678476 0.473559
1.08112 0.5 3.20924e-17 0.788862 0.075542 0.416237
1.04168 0.5 0.291665 0.808957 0.0700058 0.468386
1.04168 0.5 -0.291665 0.811832 0.0665139 0.370038
1.08112 0.5 0.0709442 0.789119 0.0758386 0.429953
1.08112 0.5 -0.0709442 0.790104 0.0748527 0.402846
0.96969 0.5 0.4875 0.838238 0.0592592 0.489019
0.96969 0.5 -0.4875 0.840789 0.0549738 0.357246
1.05695 0.5 0.252535 0.802648 0.0721435 0.462813
1.05695 0.5 -0.252535 0.805442 0.0689314 0.373838
0.288069 0.5 1.05 0.906313 0.0112706 0.445599
0.288069 0.5 -1.05 0.905182 0.01187 0.404141
0.075776 0.5 -1.0875 0.906451 0.00406296 0.416991
0.075776 0.5 1.0875 0.906546 0.00370704 0.429593
1.08112 0.5 0.141888 0.790828 0.0757429 0.443577
1.08112 0.5 -0.141888 0.792736 0.0737848 0.38999
0.715434 0.5 0.825 0.888757 0.0325433 0.482206
0.715434 0.5 -0.825 0.886845 0.0309622 0.372369
0.756814 0.5 0.7875 0.884209 0.0357264 0.485606
0.756814 0.5 -0.7875 0.882671 0.033699 0.368846
0.67013 0.5 0.8625 0.892984 0.0293726 0.478433
0.67013 0.5 -0.8625 0.890725 0.028264 0.376103
0.797732 0.5 0.75 0.87887 0.0391385 0.488616
0.797732 0.5 -0.75 0.877907 0.0366125 0.36539
0.624316 0.5 0.9 0.896401 0.0264468 0.474427
1.00005 0.5 0.449585 0.8302 0.0625129 0.487092
1.00005 0.5 -0.449585 0.833235 0.0581161 0.357082
0.624316 0.5 -0.901373 0.894066 0.0256983 0.379732
0.835106 0.5 0.7125 0.873172 0.0425612 0.491232
0.835106 0.5 -0.7125 0.8728 0.0395763 0.362149
0.574156 0.5 -0.9375 0.897045 0.0232068 0.383721
0.574156 0.5 0.9375 0.899526 0.0235285 0.470066
1.10076 0.5 0.0349809 0.782897 0.0780106 0.422516
1.10076 0.5 -0.0349809 0.783419 0.077502 0.408464
1.08112 0.5 0.212832 0.793936 0.0752558 0.456889
1.08112 0.5 -0.212832 0.796688 0.0723511 0.377579
0.872064 0.5 0.675 0.866785 0.0461454 0.493293
0.872064 0.5 -0.675 0.867096 0.042685 0.359123
1.04168 0.5 -0.364581 0.817807 0.0645389 0.360305
1.04168 0.5 0.364581 0.814305 0.0687732 0.479701
1.0271 0.5 -0.405049 0.82432 0.0620259 0.35756
1.0271 0.5 0.405049 0.820904 0.0664498 0.48418