# Force coefficients
# liftDir     : (0.000000e+00 0.000000e+00 1.000000e+00)
# dragDir     : (1.000000e+00 0.000000e+00 0.000000e+00)
# pitchAxis   : (0.000000e+00 1.000000e+00 0.000000e+00)
# magUInf     : 1.000000e+00
# lRef        : 1.000000e+00
# Aref        : 1.000000e+00
# CofR        : (2.500000e+00 0.000000e+00 0.000000e+00)
#
# Time        	Cm            	Cd            	Cl            	Cl(f)         	Cl(r)         
1             	-2.809080e-04	9.764198e-01	-1.180109e-02	-6.181452e-03	-5.619636e-03
2             	-7.731576e-04	1.670932e+00	-1.079058e-02	-6.168445e-03	-4.622130e-03
3             	-1.297942e-03	2.301798e+00	4.474876e-03	9.394963e-04	3.535380e-03
4             	-1.237839e-03	2.528497e+00	2.873192e-02	1.312812e-02	1.560380e-02
5             	-5.642183e-04	2.407550e+00	5.599068e-02	2.743112e-02	2.855956e-02
6             	4.023589e-04	2.106443e+00	8.132205e-02	4.106338e-02	4.025867e-02
7             	1.335987e-03	1.777022e+00	1.026114e-01	5.264170e-02	4.996972e-02
8             	2.239912e-03	1.532644e+00	1.207750e-01	6.262740e-02	5.814758e-02
9             	2.870920e-03	1.408852e+00	1.376212e-01	7.168154e-02	6.593970e-02
10            	3.400627e-03	1.385501e+00	1.563605e-01	8.158087e-02	7.477962e-02
11            	3.811262e-03	1.420860e+00	1.784126e-01	9.301754e-02	8.539502e-02
12            	4.135963e-03	1.477379e+00	2.032935e-01	1.057827e-01	9.751078e-02
13            	4.611786e-03	1.523423e+00	2.292283e-01	1.192259e-01	1.100024e-01
14            	5.355848e-03	1.545064e+00	2.541953e-01	1.324535e-01	1.217418e-01
15            	6.403665e-03	1.540818e+00	2.776396e-01	1.452235e-01	1.324162e-01
16            	7.520745e-03	1.518129e+00	2.997641e-01	1.574028e-01	1.423613e-01
17            	8.631027e-03	1.485176e+00	3.199564e-01	1.686092e-01	1.513472e-01
18            	9.631825e-03	1.449525e+00	3.383684e-01	1.788160e-01	1.595524e-01
19            	1.059958e-02	1.420073e+00	3.553277e-01	1.882634e-01	1.670643e-01
20            	1.141310e-02	1.399962e+00	3.712369e-01	1.970316e-01	1.742054e-01
21            	1.210765e-02	1.388864e+00	3.869445e-01	2.055799e-01	1.813646e-01
22            	1.244888e-02	1.383651e+00	4.024899e-01	2.136938e-01	1.887961e-01
23            	1.239007e-02	1.381805e+00	4.187679e-01	2.217740e-01	1.969939e-01
24            	1.189095e-02	1.379703e+00	4.362222e-01	2.300020e-01	2.062201e-01
25            	1.072130e-02	1.376168e+00	4.534068e-01	2.374247e-01	2.159821e-01
26            	9.079863e-03	1.371557e+00	4.687556e-01	2.434577e-01	2.252979e-01
27            	6.973416e-03	1.366973e+00	4.812462e-01	2.475965e-01	2.336497e-01
28            	4.306428e-03	1.363108e+00	4.919246e-01	2.502687e-01	2.416559e-01
29            	8.190792e-04	1.360462e+00	5.016165e-01	2.516273e-01	2.499892e-01
30            	-3.452028e-03	1.359531e+00	5.105596e-01	2.518278e-01	2.587318e-01
31            	-8.359974e-03	1.359327e+00	5.194508e-01	2.513654e-01	2.680854e-01
32            	-1.393051e-02	1.359827e+00	5.280039e-01	2.500714e-01	2.779325e-01
33            	-2.010104e-02	1.361373e+00	5.358283e-01	2.478131e-01	2.880152e-01
34            	-2.681587e-02	1.364491e+00	5.427120e-01	2.445401e-01	2.981718e-01
35            	-3.410262e-02	1.369230e+00	5.481444e-01	2.399696e-01	3.081748e-01
36            	-4.198425e-02	1.375547e+00	5.513845e-01	2.337080e-01	3.176765e-01
37            	-5.033971e-02	1.383080e+00	5.525843e-01	2.259524e-01	3.266319e-01
38            	-5.907317e-02	1.391923e+00	5.519800e-01	2.169168e-01	3.350631e-01
39            	-6.824118e-02	1.401329e+00	5.502532e-01	2.068854e-01	3.433678e-01
40            	-7.789044e-02	1.411082e+00	5.475893e-01	1.959042e-01	3.516851e-01
41            	-8.776690e-02	1.420558e+00	5.442142e-01	1.843402e-01	3.598740e-01
42            	-9.788288e-02	1.429923e+00	5.404941e-01	1.723642e-01	3.681299e-01
43            	-1.079703e-01	1.438822e+00	5.359154e-01	1.599874e-01	3.759280e-01
44            	-1.176300e-01	1.447180e+00	5.300524e-01	1.473962e-01	3.826562e-01
45            	-1.262655e-01	1.454438e+00	5.224584e-01	1.349637e-01	3.874947e-01
46            	-1.334018e-01	1.459922e+00	5.122925e-01	1.227444e-01	3.895481e-01
47            	-1.390100e-01	1.464186e+00	4.985530e-01	1.102666e-01	3.882865e-01
48            	-1.433836e-01	1.467805e+00	4.809288e-01	9.708076e-02	3.838480e-01
49            	-1.469286e-01	1.471436e+00	4.601925e-01	8.316771e-02	3.770248e-01
50            	-1.498895e-01	1.476232e+00	4.366015e-01	6.841119e-02	3.681903e-01
51            	-1.523429e-01	1.482447e+00	4.104209e-01	5.286757e-02	3.575533e-01
52            	-1.540588e-01	1.490033e+00	3.816150e-01	3.674870e-02	3.448663e-01
53            	-1.549817e-01	1.499305e+00	3.503962e-01	2.021635e-02	3.301798e-01
54            	-1.551740e-01	1.510219e+00	3.169695e-01	3.310778e-03	3.136587e-01
55            	-1.548653e-01	1.522370e+00	2.819847e-01	-1.387291e-02	2.958577e-01
56            	-1.543798e-01	1.534984e+00	2.462744e-01	-3.124259e-02	2.775170e-01
57            	-1.539937e-01	1.546500e+00	2.113010e-01	-4.834323e-02	2.596443e-01
58            	-1.537723e-01	1.556144e+00	1.777737e-01	-6.488543e-02	2.426591e-01
59            	-1.539077e-01	1.564008e+00	1.456855e-01	-8.106492e-02	2.267504e-01
60            	-1.544598e-01	1.570595e+00	1.150882e-01	-9.691573e-02	2.120040e-01
61            	-1.552603e-01	1.576293e+00	8.656499e-02	-1.119778e-01	1.985427e-01
62            	-1.561195e-01	1.581351e+00	6.012714e-02	-1.260559e-01	1.861831e-01
63            	-1.569430e-01	1.585771e+00	3.556394e-02	-1.391611e-01	1.747250e-01
64            	-1.575068e-01	1.589633e+00	1.243327e-02	-1.512902e-01	1.637234e-01
65            	-1.577602e-01	1.592677e+00	-9.921223e-03	-1.627208e-01	1.527996e-01
66            	-1.577411e-01	1.594994e+00	-3.114600e-02	-1.733141e-01	1.421681e-01
67            	-1.575427e-01	1.596600e+00	-5.090095e-02	-1.829932e-01	1.320922e-01
68            	-1.573158e-01	1.597682e+00	-6.891655e-02	-1.917741e-01	1.228575e-01
69            	-1.571734e-01	1.598037e+00	-8.490637e-02	-1.996266e-01	1.147202e-01
70            	-1.570607e-01	1.598046e+00	-9.806038e-02	-2.060908e-01	1.080305e-01
71            	-1.571076e-01	1.597853e+00	-1.083527e-01	-2.112840e-01	1.029313e-01
72            	-1.573156e-01	1.597351e+00	-1.160220e-01	-2.153266e-01	9.930461e-02
73            	-1.576691e-01	1.596535e+00	-1.210035e-01	-2.181708e-01	9.716732e-02
74            	-1.581859e-01	1.595371e+00	-1.231143e-01	-2.197430e-01	9.662869e-02
75            	-1.589022e-01	1.593637e+00	-1.223740e-01	-2.200893e-01	9.771524e-02
76            	-1.598108e-01	1.591121e+00	-1.190328e-01	-2.193272e-01	1.002944e-01
77            	-1.608424e-01	1.587966e+00	-1.135864e-01	-2.176356e-01	1.040492e-01
78            	-1.619537e-01	1.584646e+00	-1.064493e-01	-2.151784e-01	1.087291e-01
79            	-1.631302e-01	1.581313e+00	-9.817684e-02	-2.122186e-01	1.140417e-01
80            	-1.643778e-01	1.578099e+00	-8.915046e-02	-2.089530e-01	1.198025e-01
81            	-1.656932e-01	1.574841e+00	-7.964437e-02	-2.055153e-01	1.258710e-01
82            	-1.671040e-01	1.571261e+00	-6.954717e-02	-2.018775e-01	1.323304e-01
83            	-1.685505e-01	1.567220e+00	-5.885420e-02	-1.979776e-01	1.391234e-01
84            	-1.698574e-01	1.562843e+00	-4.798512e-02	-1.938500e-01	1.458649e-01
85            	-1.709155e-01	1.558061e+00	-3.755799e-02	-1.896945e-01	1.521365e-01
86            	-1.716494e-01	1.552536e+00	-2.755591e-02	-1.854273e-01	1.578714e-01
87            	-1.719941e-01	1.546015e+00	-1.731350e-02	-1.806508e-01	1.633373e-01
88            	-1.719954e-01	1.538874e+00	-7.252583e-03	-1.756217e-01	1.683691e-01
89            	-1.716802e-01	1.531378e+00	2.380352e-03	-1.704900e-01	1.728704e-01
90            	-1.710918e-01	1.523787e+00	1.218962e-02	-1.649970e-01	1.771866e-01
91            	-1.703725e-01	1.516021e+00	2.214722e-02	-1.592989e-01	1.814461e-01
92            	-1.695643e-01	1.508126e+00	3.163265e-02	-1.537480e-01	1.853806e-01
93            	-1.685861e-01	1.500139e+00	4.033617e-02	-1.484180e-01	1.887542e-01
94            	-1.674082e-01	1.492073e+00	4.802126e-02	-1.433975e-01	1.914188e-01
95            	-1.659193e-01	1.484153e+00	5.518989e-02	-1.383243e-01	1.935142e-01
96            	-1.641546e-01	1.476412e+00	6.193836e-02	-1.331855e-01	1.951238e-01
97            	-1.622189e-01	1.468685e+00	6.816563e-02	-1.281361e-01	1.963018e-01
98            	-1.601714e-01	1.460874e+00	7.355284e-02	-1.233949e-01	1.969478e-01
99            	-1.580361e-01	1.453178e+00	7.799508e-02	-1.190385e-01	1.970336e-01
100           	-1.558444e-01	1.445694e+00	8.130158e-02	-1.151936e-01	1.964952e-01
101           	-1.535951e-01	1.438402e+00	8.362189e-02	-1.117841e-01	1.954060e-01
102           	-1.513536e-01	1.431371e+00	8.477823e-02	-1.089645e-01	1.937427e-01
103           	-1.491412e-01	1.424680e+00	8.485329e-02	-1.067146e-01	1.915679e-01
104           	-1.470014e-01	1.418599e+00	8.408545e-02	-1.049586e-01	1.890441e-01
105           	-1.449648e-01	1.413188e+00	8.251172e-02	-1.037089e-01	1.862207e-01
106           	-1.430488e-01	1.408461e+00	8.042401e-02	-1.028368e-01	1.832608e-01
107           	-1.412611e-01	1.404173e+00	7.798053e-02	-1.022708e-01	1.802514e-01
108           	-1.395802e-01	1.400296e+00	7.517566e-02	-1.019923e-01	1.771680e-01
109           	-1.379842e-01	1.397004e+00	7.201206e-02	-1.019781e-01	1.739902e-01
110           	-1.364492e-01	1.394291e+00	6.868190e-02	-1.021083e-01	1.707902e-01
111           	-1.349340e-01	1.392139e+00	6.521621e-02	-1.023259e-01	1.675421e-01
112           	-1.334181e-01	1.390674e+00	6.169545e-02	-1.025704e-01	1.642658e-01
113           	-1.319244e-01	1.390022e+00	5.812017e-02	-1.028643e-01	1.609845e-01
114           	-1.305050e-01	1.390199e+00	5.431852e-02	-1.033458e-01	1.576643e-01
115           	-1.291528e-01	1.391037e+00	5.020048e-02	-1.040526e-01	1.542530e-01
116           	-1.278887e-01	1.392521e+00	4.559781e-02	-1.050898e-01	1.506876e-01
117           	-1.267502e-01	1.394826e+00	4.060412e-02	-1.064482e-01	1.470523e-01
118           	-1.257818e-01	1.397955e+00	3.508472e-02	-1.082394e-01	1.433241e-01
119           	-1.249726e-01	1.401805e+00	2.891868e-02	-1.105133e-01	1.394320e-01
120           	-1.242947e-01	1.406457e+00	2.208785e-02	-1.132508e-01	1.353387e-01
121           	-1.237416e-01	1.411745e+00	1.446327e-02	-1.165099e-01	1.309732e-01
122           	-1.232746e-01	1.417576e+00	5.953689e-03	-1.202977e-01	1.262514e-01
123           	-1.228644e-01	1.423808e+00	-3.421033e-03	-1.245750e-01	1.211539e-01
124           	-1.225097e-01	1.430298e+00	-1.368741e-02	-1.293534e-01	1.156660e-01
125           	-1.221817e-01	1.436979e+00	-2.478646e-02	-1.345749e-01	1.097884e-01
126           	-1.218698e-01	1.443777e+00	-3.673250e-02	-1.402360e-01	1.035035e-01
127           	-1.215543e-01	1.450629e+00	-4.947570e-02	-1.462922e-01	9.681648e-02
128           	-1.212320e-01	1.457596e+00	-6.290859e-02	-1.526863e-01	8.977769e-02
129           	-1.209107e-01	1.464497e+00	-7.698675e-02	-1.594041e-01	8.241734e-02
130           	-1.205462e-01	1.471334e+00	-9.154112e-02	-1.663167e-01	7.477561e-02
131           	-1.201284e-01	1.478114e+00	-1.065006e-01	-1.733787e-01	6.687810e-02
132           	-1.196393e-01	1.484731e+00	-1.218835e-01	-1.805810e-01	5.869754e-02
133           	-1.190786e-01	1.491167e+00	-1.375920e-01	-1.878746e-01	5.028261e-02
134           	-1.184566e-01	1.497346e+00	-1.534969e-01	-1.952050e-01	4.170811e-02
135           	-1.177900e-01	1.503308e+00	-1.695804e-01	-2.025802e-01	3.299982e-02
136           	-1.171038e-01	1.509034e+00	-1.858019e-01	-2.100048e-01	2.420288e-02
137           	-1.164108e-01	1.514553e+00	-2.020972e-01	-2.174594e-01	1.536225e-02
138           	-1.157193e-01	1.519916e+00	-2.184509e-01	-2.249448e-01	6.493909e-03
139           	-1.150326e-01	1.525192e+00	-2.348584e-01	-2.324619e-01	-2.396556e-03
140           	-1.143583e-01	1.530476e+00	-2.511753e-01	-2.399460e-01	-1.122932e-02
141           	-1.136971e-01	1.535763e+00	-2.672018e-01	-2.472980e-01	-1.990384e-02
142           	-1.130708e-01	1.541095e+00	-2.827942e-01	-2.544679e-01	-2.832627e-02
143           	-1.125136e-01	1.546466e+00	-2.977979e-01	-2.614125e-01	-3.638531e-02
144           	-1.120419e-01	1.551792e+00	-3.120888e-01	-2.680863e-01	-4.400251e-02
145           	-1.116637e-01	1.557016e+00	-3.256600e-01	-2.744938e-01	-5.116627e-02
146           	-1.113742e-01	1.562092e+00	-3.385132e-01	-2.806308e-01	-5.788245e-02
147           	-1.111485e-01	1.566986e+00	-3.507014e-01	-2.864991e-01	-6.420222e-02
148           	-1.109576e-01	1.571706e+00	-3.623013e-01	-2.921082e-01	-7.019310e-02
149           	-1.107831e-01	1.576287e+00	-3.733097e-01	-2.974379e-01	-7.587182e-02
150           	-1.106164e-01	1.580721e+00	-3.837257e-01	-3.024792e-01	-8.124649e-02
151           	-1.104472e-01	1.584962e+00	-3.934747e-01	-3.071845e-01	-8.629018e-02
152           	-1.102701e-01	1.588986e+00	-4.024940e-01	-3.115171e-01	-9.097693e-02
153           	-1.100874e-01	1.592766e+00	-4.107274e-01	-3.154511e-01	-9.527633e-02
154           	-1.099018e-01	1.596264e+00	-4.181301e-01	-3.189669e-01	-9.916322e-02
155           	-1.097162e-01	1.599445e+00	-4.246923e-01	-3.220624e-01	-1.026299e-01
156           	-1.095283e-01	1.602272e+00	-4.303874e-01	-3.247220e-01	-1.056654e-01
157           	-1.093367e-01	1.604706e+00	-4.352028e-01	-3.269381e-01	-1.082647e-01
158           	-1.091404e-01	1.606724e+00	-4.391242e-01	-3.287026e-01	-1.104217e-01
159           	-1.089419e-01	1.608327e+00	-4.421341e-01	-3.300090e-01	-1.121252e-01
160           	-1.087399e-01	1.609548e+00	-4.442073e-01	-3.308435e-01	-1.133638e-01
161           	-1.085260e-01	1.610427e+00	-4.453454e-01	-3.311987e-01	-1.141467e-01
162           	-1.082874e-01	1.611005e+00	-4.455300e-01	-3.310524e-01	-1.144776e-01
163           	-1.080125e-01	1.611294e+00	-4.448060e-01	-3.304155e-01	-1.143905e-01
164           	-1.076872e-01	1.611279e+00	-4.432804e-01	-3.293274e-01	-1.139530e-01
165           	-1.072936e-01	1.610879e+00	-4.410808e-01	-3.278340e-01	-1.132469e-01
166           	-1.068277e-01	1.610008e+00	-4.382817e-01	-3.259685e-01	-1.123131e-01
167           	-1.062962e-01	1.608713e+00	-4.348242e-01	-3.237083e-01	-1.111159e-01
168           	-1.057051e-01	1.607072e+00	-4.307162e-01	-3.210632e-01	-1.096530e-01
169           	-1.050544e-01	1.605162e+00	-4.260034e-01	-3.180561e-01	-1.079474e-01
170           	-1.043311e-01	1.603023e+00	-4.207578e-01	-3.147100e-01	-1.060478e-01
171           	-1.035327e-01	1.600638e+00	-4.150716e-01	-3.110685e-01	-1.040031e-01
172           	-1.026675e-01	1.598005e+00	-4.089677e-01	-3.071514e-01	-1.018163e-01
173           	-1.017390e-01	1.595150e+00	-4.024640e-01	-3.029710e-01	-9.949303e-02
174           	-1.007554e-01	1.592081e+00	-3.955635e-01	-2.985372e-01	-9.702634e-02
175           	-9.973546e-02	1.588844e+00	-3.882666e-01	-2.938688e-01	-9.439784e-02
176           	-9.869028e-02	1.585473e+00	-3.805997e-01	-2.889901e-01	-9.160957e-02
177           	-9.761967e-02	1.581915e+00	-3.725933e-01	-2.839163e-01	-8.867700e-02
178           	-9.654760e-02	1.578124e+00	-3.642485e-01	-2.786718e-01	-8.557664e-02
179           	-9.549743e-02	1.574158e+00	-3.555696e-01	-2.732822e-01	-8.228735e-02
180           	-9.448412e-02	1.570115e+00	-3.465779e-01	-2.677731e-01	-7.880485e-02
181           	-9.351419e-02	1.566061e+00	-3.372997e-01	-2.621640e-01	-7.513565e-02
182           	-9.259027e-02	1.562063e+00	-3.277693e-01	-2.564749e-01	-7.129437e-02
183           	-9.171529e-02	1.558168e+00	-3.180326e-01	-2.507316e-01	-6.730099e-02
184           	-9.089723e-02	1.554370e+00	-3.080860e-01	-2.449402e-01	-6.314579e-02
185           	-9.014289e-02	1.550710e+00	-2.980430e-01	-2.391644e-01	-5.887860e-02
186           	-8.945192e-02	1.547225e+00	-2.879485e-01	-2.334262e-01	-5.452233e-02
187           	-8.882096e-02	1.543950e+00	-2.778460e-01	-2.277439e-01	-5.010201e-02
188           	-8.824645e-02	1.540897e+00	-2.677886e-01	-2.221408e-01	-4.564786e-02
189           	-8.772500e-02	1.538070e+00	-2.578307e-01	-2.166404e-01	-4.119036e-02
190           	-8.725140e-02	1.535488e+00	-2.480214e-01	-2.112621e-01	-3.675929e-02
191           	-8.681880e-02	1.533154e+00	-2.384067e-01	-2.060221e-01	-3.238454e-02
192           	-8.642601e-02	1.531047e+00	-2.289523e-01	-2.009022e-01	-2.805015e-02
193           	-8.606882e-02	1.529165e+00	-2.197376e-01	-1.959376e-01	-2.379998e-02
194           	-8.573778e-02	1.527539e+00	-2.110108e-01	-1.912432e-01	-1.976763e-02
195           	-8.542736e-02	1.526164e+00	-2.028584e-01	-1.868566e-01	-1.600183e-02
196           	-8.513453e-02	1.525008e+00	-1.951536e-01	-1.827113e-01	-1.244226e-02
197           	-8.485657e-02	1.524043e+00	-1.878149e-01	-1.787640e-01	-9.050895e-03
198           	-8.459158e-02	1.523262e+00	-1.808289e-01	-1.750060e-01	-5.822868e-03
199           	-8.433769e-02	1.522668e+00	-1.742779e-01	-1.714766e-01	-2.801265e-03
200           	-8.409408e-02	1.522255e+00	-1.682437e-01	-1.682159e-01	-2.776179e-05
201           	-8.385771e-02	1.522021e+00	-1.627936e-01	-1.652545e-01	2.460894e-03
202           	-8.362718e-02	1.521974e+00	-1.579693e-01	-1.626118e-01	4.642523e-03
203           	-8.340525e-02	1.522100e+00	-1.537726e-01	-1.602916e-01	6.518924e-03
204           	-8.319315e-02	1.522387e+00	-1.502035e-01	-1.582949e-01	8.091398e-03
205           	-8.299514e-02	1.522819e+00	-1.472536e-01	-1.566219e-01	9.368342e-03
206           	-8.281257e-02	1.523393e+00	-1.449291e-01	-1.552771e-01	1.034804e-02
207           	-8.264912e-02	1.524081e+00	-1.432183e-01	-1.542583e-01	1.103999e-02
208           	-8.250405e-02	1.524824e+00	-1.421141e-01	-1.535611e-01	1.144702e-02
209           	-8.237924e-02	1.525640e+00	-1.416000e-01	-1.531793e-01	1.157923e-02
210           	-8.228124e-02	1.526545e+00	-1.416596e-01	-1.531111e-01	1.145142e-02
211           	-8.221033e-02	1.527490e+00	-1.423269e-01	-1.533738e-01	1.104689e-02
212           	-8.216002e-02	1.528507e+00	-1.436335e-01	-1.539768e-01	1.034326e-02
213           	-8.213669e-02	1.529632e+00	-1.455299e-01	-1.549016e-01	9.371735e-03
214           	-8.214021e-02	1.530799e+00	-1.480002e-01	-1.561403e-01	8.140123e-03
215           	-8.216679e-02	1.531980e+00	-1.510625e-01	-1.576981e-01	6.635523e-03
216           	-8.221958e-02	1.533197e+00	-1.546504e-01	-1.595448e-01	4.894363e-03
217           	-8.229627e-02	1.534433e+00	-1.587299e-01	-1.616612e-01	2.931304e-03
218           	-8.239393e-02	1.535687e+00	-1.633445e-01	-1.640662e-01	7.216736e-04
219           	-8.250833e-02	1.536939e+00	-1.684447e-01	-1.667307e-01	-1.714048e-03
220           	-8.264012e-02	1.538226e+00	-1.739894e-01	-1.696348e-01	-4.354593e-03
221           	-8.278836e-02	1.539541e+00	-1.799714e-01	-1.727740e-01	-7.197321e-03
222           	-8.294613e-02	1.540909e+00	-1.863183e-01	-1.761053e-01	-1.021300e-02
223           	-8.311692e-02	1.542336e+00	-1.929887e-01	-1.796112e-01	-1.337741e-02
224           	-8.329363e-02	1.543834e+00	-1.999538e-01	-1.832705e-01	-1.668326e-02
225           	-8.347710e-02	1.545404e+00	-2.071699e-01	-1.870620e-01	-2.010784e-02
226           	-8.366665e-02	1.547058e+00	-2.146082e-01	-1.909707e-01	-2.363744e-02
227           	-8.385917e-02	1.548788e+00	-2.222229e-01	-1.949706e-01	-2.725227e-02
228           	-8.405186e-02	1.550597e+00	-2.299994e-01	-1.990516e-01	-3.094784e-02
229           	-8.424083e-02	1.552471e+00	-2.378770e-01	-2.031793e-01	-3.469769e-02
230           	-8.442668e-02	1.554420e+00	-2.458345e-01	-2.073439e-01	-3.849054e-02
231           	-8.461145e-02	1.556447e+00	-2.537787e-01	-2.115008e-01	-4.227789e-02
232           	-8.479341e-02	1.558554e+00	-2.616817e-01	-2.156343e-01	-4.604745e-02
233           	-8.497293e-02	1.560735e+00	-2.695021e-01	-2.197240e-01	-4.977811e-02
234           	-8.514082e-02	1.562941e+00	-2.772238e-01	-2.237527e-01	-5.347105e-02
235           	-8.529568e-02	1.565188e+00	-2.848212e-01	-2.277063e-01	-5.711493e-02
236           	-8.543327e-02	1.567424e+00	-2.922913e-01	-2.315789e-01	-6.071238e-02
237           	-8.555339e-02	1.569704e+00	-2.995959e-01	-2.353513e-01	-6.424456e-02
238           	-8.565138e-02	1.571966e+00	-3.066928e-01	-2.389978e-01	-6.769503e-02
239           	-8.572356e-02	1.574250e+00	-3.135629e-01	-2.425050e-01	-7.105792e-02
240           	-8.576575e-02	1.576496e+00	-3.201841e-01	-2.458578e-01	-7.432630e-02
241           	-8.577699e-02	1.578683e+00	-3.265530e-01	-2.490535e-01	-7.749949e-02
242           	-8.575623e-02	1.580819e+00	-3.326534e-01	-2.520829e-01	-8.057047e-02
243           	-8.569963e-02	1.582871e+00	-3.384722e-01	-2.549357e-01	-8.353647e-02
244           	-8.560634e-02	1.584867e+00	-3.439999e-01	-2.576063e-01	-8.639361e-02
245           	-8.547090e-02	1.586774e+00	-3.492310e-01	-2.600864e-01	-8.914461e-02
246           	-8.529503e-02	1.588564e+00	-3.541441e-01	-2.623671e-01	-9.177701e-02
247           	-8.508119e-02	1.590231e+00	-3.587335e-01	-2.644479e-01	-9.428556e-02
248           	-8.482429e-02	1.591772e+00	-3.629726e-01	-2.663106e-01	-9.666203e-02
249           	-8.452583e-02	1.593224e+00	-3.668505e-01	-2.679511e-01	-9.889944e-02
250           	-8.418725e-02	1.594593e+00	-3.703711e-01	-2.693728e-01	-1.009983e-01
251           	-8.380496e-02	1.595830e+00	-3.735366e-01	-2.705733e-01	-1.029634e-01
252           	-8.338173e-02	1.596896e+00	-3.763374e-01	-2.715504e-01	-1.047870e-01
253           	-8.292259e-02	1.597784e+00	-3.787642e-01	-2.723047e-01	-1.064595e-01
254           	-8.243047e-02	1.598504e+00	-3.808083e-01	-2.728346e-01	-1.079737e-01
255           	-8.190783e-02	1.599058e+00	-3.824712e-01	-2.731435e-01	-1.093278e-01
256           	-8.135592e-02	1.599454e+00	-3.837553e-01	-2.732336e-01	-1.105217e-01
257           	-8.077604e-02	1.599686e+00	-3.846491e-01	-2.731006e-01	-1.115485e-01
258           	-8.017030e-02	1.599759e+00	-3.851448e-01	-2.727427e-01	-1.124021e-01
259           	-7.953990e-02	1.599686e+00	-3.852442e-01	-2.721620e-01	-1.130822e-01
260           	-7.888667e-02	1.599471e+00	-3.849315e-01	-2.713524e-01	-1.135791e-01
261           	-7.821343e-02	1.599119e+00	-3.842080e-01	-2.703174e-01	-1.138906e-01
262           	-7.752285e-02	1.598627e+00	-3.830731e-01	-2.690594e-01	-1.140137e-01
263           	-7.681787e-02	1.598003e+00	-3.815201e-01	-2.675779e-01	-1.139422e-01
264           	-7.609987e-02	1.597257e+00	-3.795484e-01	-2.658741e-01	-1.136743e-01
265           	-7.537054e-02	1.596382e+00	-3.771580e-01	-2.639495e-01	-1.132084e-01
266           	-7.463362e-02	1.595368e+00	-3.743447e-01	-2.618060e-01	-1.125387e-01
267           	-7.389504e-02	1.594216e+00	-3.711154e-01	-2.594527e-01	-1.116627e-01
268           	-7.315997e-02	1.592926e+00	-3.674761e-01	-2.568980e-01	-1.105781e-01
269           	-7.242698e-02	1.591486e+00	-3.634392e-01	-2.541466e-01	-1.092926e-01
270           	-7.169948e-02	1.589908e+00	-3.590004e-01	-2.511997e-01	-1.078007e-01
271           	-7.097619e-02	1.588171e+00	-3.541623e-01	-2.480573e-01	-1.061049e-01
272           	-7.026062e-02	1.586307e+00	-3.489376e-01	-2.447294e-01	-1.042082e-01
273           	-6.955805e-02	1.584306e+00	-3.433413e-01	-2.412287e-01	-1.021126e-01
274           	-6.887747e-02	1.582193e+00	-3.373688e-01	-2.375619e-01	-9.980692e-02
275           	-6.822944e-02	1.579996e+00	-3.310143e-01	-2.337366e-01	-9.727770e-02
276           	-6.759744e-02	1.577673e+00	-3.243190e-01	-2.297569e-01	-9.456207e-02
277           	-6.697565e-02	1.575137e+00	-3.172996e-01	-2.256254e-01	-9.167414e-02
278           	-6.638251e-02	1.572366e+00	-3.099440e-01	-2.213545e-01	-8.858952e-02
279           	-6.583093e-02	1.569417e+00	-3.022210e-01	-2.169414e-01	-8.527959e-02
280           	-6.532444e-02	1.566328e+00	-2.941271e-01	-2.123880e-01	-8.173913e-02
281           	-6.485741e-02	1.563141e+00	-2.856991e-01	-2.077070e-01	-7.799215e-02
282           	-6.442445e-02	1.559880e+00	-2.769703e-01	-2.029096e-01	-7.406070e-02
283           	-6.402885e-02	1.556549e+00	-2.679666e-01	-1.980122e-01	-6.995447e-02
284           	-6.367709e-02	1.553144e+00	-2.586753e-01	-1.930148e-01	-6.566057e-02
285           	-6.337073e-02	1.549670e+00	-2.490685e-01	-1.879050e-01	-6.116351e-02
286           	-6.310769e-02	1.546179e+00	-2.392280e-01	-1.827217e-01	-5.650633e-02
287           	-6.288493e-02	1.542684e+00	-2.291960e-01	-1.774830e-01	-5.171308e-02
288           	-6.269978e-02	1.539179e+00	-2.189995e-01	-1.721995e-01	-4.679998e-02
289           	-6.254406e-02	1.535682e+00	-2.086765e-01	-1.668823e-01	-4.179418e-02
290           	-6.241852e-02	1.532190e+00	-1.982972e-01	-1.615671e-01	-3.673006e-02
291           	-6.232288e-02	1.528682e+00	-1.878487e-01	-1.562472e-01	-3.160149e-02
292           	-6.224909e-02	1.525185e+00	-1.773705e-01	-1.509343e-01	-2.643615e-02
293           	-6.218648e-02	1.521722e+00	-1.669318e-01	-1.456524e-01	-2.127943e-02
294           	-6.212975e-02	1.518320e+00	-1.565850e-01	-1.404223e-01	-1.616276e-02
295           	-6.207775e-02	1.515015e+00	-1.463644e-01	-1.352599e-01	-1.110445e-02
296           	-6.202042e-02	1.511839e+00	-1.363228e-01	-1.301818e-01	-6.140966e-03
297           	-6.194642e-02	1.508829e+00	-1.265200e-01	-1.252064e-01	-1.313592e-03
298           	-6.184953e-02	1.506004e+00	-1.170096e-01	-1.203544e-01	3.344708e-03
299           	-6.172691e-02	1.503379e+00	-1.078433e-01	-1.156486e-01	7.805248e-03
300           	-6.157578e-02	1.500988e+00	-9.909327e-02	-1.111224e-01	1.202914e-02
301           	-6.139322e-02	1.498853e+00	-9.083621e-02	-1.068113e-01	1.597511e-02
302           	-6.117273e-02	1.496945e+00	-8.313739e-02	-1.027414e-01	1.960403e-02
303           	-6.090789e-02	1.495273e+00	-7.609938e-02	-9.895758e-02	2.285820e-02
304           	-6.060359e-02	1.493868e+00	-6.971962e-02	-9.546340e-02	2.574378e-02
305           	-6.027062e-02	1.492706e+00	-6.398687e-02	-9.226405e-02	2.827718e-02
306           	-5.991079e-02	1.491790e+00	-5.894983e-02	-8.938571e-02	3.043588e-02
307           	-5.953177e-02	1.491174e+00	-5.459928e-02	-8.683141e-02	3.223213e-02
308           	-5.914448e-02	1.490819e+00	-5.090902e-02	-8.459899e-02	3.368997e-02
309           	-5.875058e-02	1.490719e+00	-4.792821e-02	-8.271469e-02	3.478647e-02
310           	-5.836251e-02	1.490886e+00	-4.567058e-02	-8.119780e-02	3.552722e-02
311           	-5.798426e-02	1.491277e+00	-4.414207e-02	-8.005529e-02	3.591322e-02
312           	-5.762295e-02	1.491851e+00	-4.334397e-02	-7.929493e-02	3.595097e-02
313           	-5.728675e-02	1.492551e+00	-4.325760e-02	-7.891555e-02	3.565795e-02
314           	-5.698222e-02	1.493402e+00	-4.384316e-02	-7.890380e-02	3.506064e-02
315           	-5.671907e-02	1.494411e+00	-4.509236e-02	-7.926525e-02	3.417289e-02
316           	-5.649529e-02	1.495561e+00	-4.700314e-02	-7.999686e-02	3.299372e-02
317           	-5.632037e-02	1.496802e+00	-4.949746e-02	-8.106910e-02	3.157164e-02
318           	-5.619077e-02	1.498216e+00	-5.262619e-02	-8.250387e-02	2.987767e-02
319           	-5.610592e-02	1.499791e+00	-5.635870e-02	-8.428527e-02	2.792657e-02
320           	-5.606680e-02	1.501539e+00	-6.067142e-02	-8.640251e-02	2.573109e-02
321           	-5.607319e-02	1.503391e+00	-6.553835e-02	-8.884236e-02	2.330401e-02
322           	-5.612705e-02	1.505347e+00	-7.090708e-02	-9.158059e-02	2.067351e-02
323           	-5.622306e-02	1.507411e+00	-7.669223e-02	-9.456917e-02	1.787694e-02
324           	-5.636109e-02	1.509564e+00	-8.290080e-02	-9.781149e-02	1.491069e-02
325           	-5.653942e-02	1.511821e+00	-8.948047e-02	-1.012797e-01	1.179919e-02
326           	-5.675431e-02	1.514128e+00	-9.642977e-02	-1.049692e-01	8.539428e-03
327           	-5.700367e-02	1.516487e+00	-1.037173e-01	-1.088623e-01	5.144999e-03
328           	-5.728207e-02	1.518887e+00	-1.113170e-01	-1.129406e-01	1.623569e-03
329           	-5.759114e-02	1.521348e+00	-1.191657e-01	-1.171740e-01	-1.991705e-03
330           	-5.792435e-02	1.523805e+00	-1.272135e-01	-1.215311e-01	-5.682398e-03
331           	-5.827687e-02	1.526228e+00	-1.354153e-01	-1.259845e-01	-9.430792e-03
332           	-5.863736e-02	1.528629e+00	-1.437496e-01	-1.305122e-01	-1.323744e-02
333           	-5.900519e-02	1.531016e+00	-1.521437e-01	-1.350770e-01	-1.706665e-02
334           	-5.937529e-02	1.533422e+00	-1.605633e-01	-1.396569e-01	-2.090633e-02
335           	-5.974889e-02	1.535813e+00	-1.689796e-01	-1.442387e-01	-2.474090e-02
336           	-6.011873e-02	1.538134e+00	-1.773728e-01	-1.488051e-01	-2.856767e-02
337           	-6.048548e-02	1.540367e+00	-1.857130e-01	-1.533420e-01	-3.237105e-02
338           	-6.084223e-02	1.542492e+00	-1.940017e-01	-1.578431e-01	-3.615863e-02
339           	-6.118931e-02	1.544555e+00	-2.021989e-01	-1.622888e-01	-3.991014e-02
340           	-6.152197e-02	1.546586e+00	-2.102556e-01	-1.666498e-01	-4.360583e-02
341           	-6.183841e-02	1.548563e+00	-2.181893e-01	-1.709331e-01	-4.725625e-02
342           	-6.214006e-02	1.550470e+00	-2.259482e-01	-1.751142e-01	-5.083406e-02
343           	-6.241733e-02	1.552314e+00	-2.335203e-01	-1.791775e-01	-5.434282e-02
344           	-6.266880e-02	1.554096e+00	-2.409112e-01	-1.831244e-01	-5.778681e-02
345           	-6.289571e-02	1.555817e+00	-2.481025e-01	-1.869470e-01	-6.115554e-02
346           	-6.309700e-02	1.557446e+00	-2.550749e-01	-1.906345e-01	-6.444045e-02
347           	-6.327071e-02	1.558942e+00	-2.618013e-01	-1.941713e-01	-6.762992e-02
348           	-6.341755e-02	1.560330e+00	-2.682569e-01	-1.975460e-01	-7.071089e-02
349           	-6.353819e-02	1.561652e+00	-2.744265e-01	-2.007514e-01	-7.367504e-02
350           	-6.363420e-02	1.562924e+00	-2.802791e-01	-2.037737e-01	-7.650535e-02
351           	-6.370817e-02	1.564134e+00	-2.858478e-01	-2.066321e-01	-7.921575e-02
352           	-6.376289e-02	1.565253e+00	-2.911153e-01	-2.093206e-01	-8.179478e-02
353           	-6.379921e-02	1.566268e+00	-2.960703e-01	-2.118343e-01	-8.423593e-02
354           	-6.381759e-02	1.567177e+00	-3.006841e-01	-2.141596e-01	-8.652446e-02
355           	-6.381809e-02	1.567982e+00	-3.049405e-01	-2.162884e-01	-8.865217e-02
356           	-6.380148e-02	1.568686e+00	-3.088254e-01	-2.182142e-01	-9.061121e-02