0 	0.00714703 	8.58037e-06 	0.234149
0.00259889 	0.00545979 	2.64785e-05 	0.23397
0.00519778 	0.00377229 	4.44628e-05 	0.23379
0.00793204 	0.00374879 	0.000143288 	0.233388
0.0106663 	0.00374879 	0.00024306 	0.232983
0.013543 	0.00374783 	0.000580201 	0.232556
0.0164197 	0.00374783 	0.000920188 	0.232125
0.0194462 	0.00374871 	0.00155208 	0.231702
0.0224727 	0.00374871 	0.0021882 	0.231276
0.0256568 	0.00374924 	0.00279638 	0.230805
0.028841 	0.00374924 	0.00340532 	0.23033
0.032191 	0.00374951 	0.00378184 	0.229802
0.035541 	0.00374951 	0.00415308 	0.229269
0.0390655 	0.00374966 	0.00438518 	0.228706
0.04259 	0.00374966 	0.00460757 	0.228138
0.046298 	0.00374975 	0.00475586 	0.22756
0.0500061 	0.00374975 	0.00489141 	0.226977
0.0539073 	0.00374982 	0.00501141 	0.226395
0.0578085 	0.00374982 	0.00511707 	0.225808
0.0619129 	0.00374986 	0.00523613 	0.225231
0.0660173 	0.00374986 	0.00534028 	0.22465
0.0703355 	0.00374989 	0.00546896 	0.224092
0.0746537 	0.00374989 	0.00558361 	0.22353
0.0791968 	0.00374992 	0.00572047 	0.223001
0.0837399 	0.00374992 	0.00584608 	0.222469
0.0885196 	0.00374994 	0.00599102 	0.221962
0.0932994 	0.00374994 	0.00612681 	0.221452
0.0983282 	0.00374995 	0.00628264 	0.22095
0.103357 	0.00374995 	0.0064301 	0.220445
0.108647 	0.00374996 	0.00659818 	0.219944
0.113938 	0.00374996 	0.00675904 	0.219439
0.119504 	0.00374998 	0.0069404 	0.218938
0.12507 	0.00374998 	0.007116 	0.218435
0.130926 	0.00374998 	0.00731041 	0.217935
0.136783 	0.00374998 	0.00750147 	0.217432
0.142944 	0.00374999 	0.00770776 	0.216931
0.149105 	0.00374999 	0.00791372 	0.216428
0.149105 	0.00374999 	0.00791372 	0.216428
0.155587 	0.00375 	0.00813094 	0.215924
0.162069 	0.00375 	0.0083496 	0.215418
0.168888 	0.00375 	0.00857396 	0.214912
0.175708 	0.00375 	0.0088006 	0.214404
0.182883 	0.00375001 	0.00902032 	0.213895
0.190058 	0.00375001 	0.00924346 	0.213385
0.197606 	0.00375001 	0.00944203 	0.212869
0.205155 	0.00375001 	0.00964554 	0.21235
0.213097 	0.00375001 	0.009894 	0.21181
0.221039 	0.00375001 	0.0101483 	0.211268
0.229395 	0.00375002 	0.0105004 	0.210696
0.23775 	0.00375002 	0.0108586 	0.210122
0.24654 	0.00375002 	0.0112805 	0.209524
0.255331 	0.00375002 	0.0117091 	0.208924
0.264579 	0.00375002 	0.0122539 	0.208303
0.273828 	0.00375002 	0.0128052 	0.20768
0.283559 	0.00375002 	0.0135766 	0.207043
0.293289 	0.00375002 	0.0143543 	0.206403
0.303526 	0.00375002 	0.0149641 	0.205762
0.313763 	0.00375002 	0.0155812 	0.205119
0.324533 	0.00375002 	0.0156079 	0.204466
0.335303 	0.00375002 	0.0156423 	0.203813
0.346635 	0.00375002 	0.015435 	0.203123
0.357966 	0.00375002 	0.0152344 	0.202432
0.369888 	0.00375002 	0.0151778 	0.201693
0.381809 	0.00375002 	0.0151267 	0.200952
0.394351 	0.00375003 	0.0151948 	0.200167
0.406893 	0.00375003 	0.0152672 	0.199381
0.420089 	0.00375003 	0.0153568 	0.198557
0.433285 	0.00375003 	0.0154501 	0.197732
0.447168 	0.00375003 	0.0155025 	0.196865
0.461051 	0.00375003 	0.0155579 	0.195997
0.475657 	0.00375003 	0.0155538 	0.195083
0.490263 	0.00375003 	0.0155523 	0.194168
0.50563 	0.00375003 	0.0155061 	0.1932
0.520997 	0.00375003 	0.0154619 	0.192232
0.520997 	0.00375003 	0.0154619 	0.192232
0.537164 	0.00375003 	0.0153856 	0.191204
0.553331 	0.00375003 	0.0153109 	0.190176
0.570341 	0.00375003 	0.0152131 	0.18908
0.58735 	0.00375003 	0.0151164 	0.187985
0.605246 	0.00375003 	0.0150032 	0.186815
0.623141 	0.00375003 	0.0148909 	0.185645
0.641969 	0.00375004 	0.0147671 	0.184394
0.660796 	0.00375004 	0.0146439 	0.183142
0.680604 	0.00375004 	0.0145137 	0.181801
0.700412 	0.00375004 	0.0143838 	0.18046
0.721252 	0.00375004 	0.0142508 	0.179022
0.742091 	0.00375004 	0.014118 	0.177584
0.764017 	0.00375004 	0.0139855 	0.17604
0.785942 	0.00375004 	0.0138531 	0.174497
0.80901 	0.00375004 	0.0137243 	0.17284
0.832077 	0.00375004 	0.0135954 	0.171184
0.856345 	0.00375004 	0.0134731 	0.169406
0.880614 	0.00375004 	0.0133507 	0.167629
0.906147 	0.00375004 	0.0132376 	0.165724
0.93168 	0.00375004 	0.0131243 	0.16382
0.958543 	0.00375004 	0.0130229 	0.16178
0.985405 	0.00375004 	0.0129214 	0.159741
1.01367 	0.00375005 	0.0128344 	0.157561
1.04193 	0.00375005 	0.0127471 	0.155382
1.07167 	0.00375005 	0.0126771 	0.153058
1.1014 	0.00375005 	0.0126067 	0.150735
1.13268 	0.00375005 	0.0125563 	0.148264
1.16396 	0.00375005 	0.0125055 	0.145794
1.19688 	0.00375005 	0.0124776 	0.143176
1.22979 	0.00375005 	0.0124493 	0.140559
1.22979 	0.00375005 	0.0124493 	0.140559
1.26441 	0.00375005 	0.0124471 	0.137795
1.26442 	0.00375005 	0.0124471 	0.137795
1.29904 	0.00375005 	0.0124444 	0.135033
1.29904 	0.00375005 	0.0124444 	0.135033
1.33547 	0.00375005 	0.0124716 	0.132129
1.3719 	0.00375005 	0.0124982 	0.129226
1.41023 	0.00375004 	0.0125588 	0.12619
1.44855 	0.00375004 	0.0126187 	0.123154
1.48887 	0.00375004 	0.0127177 	0.119998
1.5292 	0.00375004 	0.0128158 	0.116842
1.57162 	0.00375004 	0.0129588 	0.113582
1.61405 	0.00375004 	0.013101 	0.110321
1.65868 	0.00375004 	0.0132953 	0.106976
1.70332 	0.00375004 	0.0134885 	0.10363
1.75028 	0.00375004 	0.0137424 	0.100223
1.79724 	0.00375004 	0.013995 	0.0968166
1.84664 	0.00375003 	0.0143155 	0.0933753
1.89604 	0.00375003 	0.0146346 	0.0899344
1.94802 	0.00375003 	0.0150233 	0.0865622
2 	0.00375003 	0.0154104 	0.0831898
