0 	0 	0 	0
0.00194917 	-0.0487074 	-0.00167183 	9.71725e-05
0.00389834 	-0.096467 	-0.00336725 	0.000154346
0.00594904 	-0.116831 	-0.00493047 	0.000207818
0.00799974 	-0.13679 	-0.00661632 	0.000244015
0.0101572 	-0.144676 	-0.00742512 	0.000274631
0.0123148 	-0.154588 	-0.00824814 	0.000302509
0.0145846 	-0.151024 	-0.00935136 	0.000313679
0.0168545 	-0.150931 	-0.0105947 	0.000329229
0.0192427 	-0.137932 	-0.0116395 	0.000328275
0.0216308 	-0.12791 	-0.0131276 	0.000333485
0.0241433 	-0.107099 	-0.013607 	0.000321618
0.0266558 	-0.0886811 	-0.0146822 	0.000316226
0.0292992 	-0.0606253 	-0.0142756 	0.000294338
0.0319426 	-0.0351469 	-0.0145351 	0.000279305
0.0347236 	0.000322258 	-0.0129406 	0.00024984
0.0375046 	0.0325724 	-0.0120972 	0.000227475
0.0404306 	0.0755461 	-0.00893866 	0.000195073
0.0433565 	0.114933 	-0.00665 	0.000169797
0.0464348 	0.164156 	-0.00168858 	0.000140479
0.0495131 	0.210449 	0.00244727 	0.000118408
0.0527517 	0.262247 	0.00893696 	9.71207e-05
0.0559904 	0.313204 	0.0150747 	8.32337e-05
0.0593977 	0.36221 	0.0221676 	7.04524e-05
0.0628051 	0.413127 	0.0296487 	6.4698e-05
0.0663899 	0.454706 	0.0362088 	5.70609e-05
0.0699747 	0.500199 	0.0437113 	5.50878e-05
0.0737462 	0.531873 	0.0489637 	4.88465e-05
0.0775178 	0.56808 	0.0553365 	4.5715e-05
0.0814857 	0.58966 	0.0590284 	3.91554e-05
0.0854537 	0.615325 	0.0636867 	3.29698e-05
0.0896284 	0.628633 	0.0660365 	2.61523e-05
0.093803 	0.644972 	0.0690511 	1.78333e-05
0.0981952 	0.652795 	0.0704877 	1.13358e-05
0.102587 	0.662508 	0.0723197 	2.64684e-06
0.107208 	0.667201 	0.0732028 	-3.07343e-06
0.111829 	0.672987 	0.0743039 	-1.06691e-05
0.111829 	0.672987 	0.0743039 	-1.06691e-05
0.116691 	0.675889 	0.0748546 	-1.56673e-05
0.121552 	0.679436 	0.075531 	-2.1969e-05
0.126667 	0.681207 	0.0758826 	-2.65347e-05
0.131781 	0.683368 	0.0763061 	-3.20656e-05
0.137163 	0.684385 	0.0765606 	-3.63181e-05
0.142544 	0.685622 	0.0768468 	-4.13756e-05
0.148205 	0.686139 	0.07707 	-4.52965e-05
0.153867 	0.686756 	0.0773029 	-4.99155e-05
0.159823 	0.686944 	0.0775293 	-5.3439e-05
0.16578 	0.687157 	0.0777509 	-5.75365e-05
0.172046 	0.687112 	0.078014 	-6.06393e-05
0.178313 	0.687059 	0.0782629 	-6.41764e-05
0.184906 	0.68683 	0.0785942 	-6.68983e-05
0.191499 	0.686577 	0.0789077 	-6.99806e-05
0.198435 	0.686184 	0.079345 	-7.2568e-05
0.205372 	0.68575 	0.0797688 	-7.54491e-05
0.212669 	0.685232 	0.0804042 	-7.67716e-05
0.219967 	0.684643 	0.0810888 	-7.823e-05
0.219967 	0.684643 	0.0810888 	-7.823e-05
0.227645 	0.684054 	0.0815892 	-7.86948e-05
0.235322 	0.683351 	0.0821294 	-7.903e-05
0.2434 	0.682619 	0.0825519 	-8.21367e-05
0.251478 	0.681797 	0.0829576 	-8.53466e-05
0.259976 	0.681087 	0.0838967 	-8.83794e-05
0.268475 	0.680332 	0.0848692 	-9.15191e-05
0.277416 	0.67962 	0.0859662 	-9.23451e-05
0.286357 	0.678808 	0.0870962 	-9.31096e-05
0.295764 	0.677988 	0.0881443 	-9.40139e-05
0.30517 	0.677058 	0.0892115 	-9.49626e-05
0.315067 	0.676249 	0.0905091 	-9.5626e-05
0.324964 	0.675351 	0.0918327 	-9.62482e-05
0.335377 	0.674533 	0.0933949 	-9.64443e-05
0.345789 	0.673615 	0.0949651 	-9.65964e-05
0.356743 	0.672828 	0.0968138 	-9.66405e-05
0.367698 	0.671948 	0.0986878 	-9.66004e-05
0.379223 	0.671226 	0.100857 	-9.65568e-05
0.390749 	0.670398 	0.103084 	-9.64437e-05
0.402874 	0.669798 	0.105561 	-9.61782e-05
0.415 	0.669082 	0.108122 	-9.58239e-05
0.427756 	0.668655 	0.110908 	-9.55019e-05
0.440513 	0.668111 	0.113794 	-9.50878e-05
0.453935 	0.667914 	0.116911 	-9.46443e-05
0.467356 	0.667606 	0.120141 	-9.41239e-05
0.481477 	0.667694 	0.12359 	-9.3612e-05
0.495598 	0.667675 	0.127167 	-9.30223e-05
0.510454 	0.668112 	0.130955 	-9.24396e-05
0.52531 	0.66845 	0.134887 	-9.1791e-05
0.54094 	0.669293 	0.139016 	-9.1109e-05
0.55657 	0.670046 	0.143306 	-9.03613e-05
0.573014 	0.671378 	0.147787 	-8.96495e-05
0.589458 	0.672633 	0.152446 	-8.88834e-05
0.606758 	0.674523 	0.157254 	-8.80579e-05
0.624058 	0.67635 	0.162267 	-8.71799e-05
0.64226 	0.678903 	0.167351 	-8.63137e-05
0.660461 	0.681399 	0.172683 	-8.53932e-05
0.679611 	0.684748 	0.177955 	-8.44618e-05
0.698761 	0.688066 	0.183504 	-8.34768e-05
0.718908 	0.692269 	0.188896 	-8.24836e-05
0.739056 	0.696478 	0.194574 	-8.14424e-05
0.760252 	0.701636 	0.200053 	-8.03773e-05
0.781448 	0.706837 	0.20584 	-7.92663e-05
0.781448 	0.706837 	0.20584 	-7.92663e-05
0.803749 	0.71307 	0.211295 	-7.81278e-05
0.826049 	0.719393 	0.217092 	-7.6941e-05
0.849512 	0.726797 	0.222342 	-7.57341e-05
0.872974 	0.734357 	0.227969 	-7.44776e-05
0.897658 	0.742997 	0.232771 	-7.31991e-05
0.922342 	0.751871 	0.237969 	-7.18701e-05
0.948312 	0.761738 	0.242059 	-7.05253e-05
0.974282 	0.771934 	0.246545 	-6.91271e-05
1.00161 	0.782949 	0.249624 	-6.77358e-05
1.02893 	0.794394 	0.253086 	-6.62905e-05
1.05767 	0.806353 	0.254848 	-6.48613e-05
1.08642 	0.818847 	0.256947 	-6.33783e-05
1.11666 	0.831493 	0.257089 	-6.19109e-05
1.1469 	0.844774 	0.257489 	-6.03901e-05
1.17872 	0.857624 	0.255937 	-5.89265e-05
1.21054 	0.87119 	0.254535 	-5.74106e-05
1.24401 	0.883772 	0.250983 	-5.59355e-05
1.27749 	0.897119 	0.247436 	-5.44097e-05
1.31271 	0.908756 	0.242899 	-5.30103e-05
1.34793 	0.921111 	0.238257 	-5.15692e-05
1.38499 	0.932611 	0.230066 	-4.98203e-05
1.42204 	0.944847 	0.221561 	-4.80198e-05
1.46102 	0.951739 	0.218548 	-4.71716e-05
1.5 	0.95906 	0.215432 	-4.62848e-05
1.51048 	0.961586 	0.213007 	-4.59159e-05
1.52096 	0.964113 	0.210582 	-4.55469e-05
1.53583 	0.967273 	0.206994 	-4.50397e-05
1.5507 	0.970457 	0.203838 	-4.45259e-05
1.5507 	0.970457 	0.203838 	-4.45259e-05
1.56106 	0.972409 	0.201561 	-4.4177e-05
1.57143 	0.974362 	0.199283 	-4.38281e-05
1.5767 	0.975447 	0.198197 	-4.36664e-05
1.58198 	0.976531 	0.197111 	-4.35048e-05
1.59844 	0.979452 	0.193783 	-4.30173e-05
1.61489 	0.982412 	0.190684 	-4.25293e-05
1.63221 	0.985053 	0.187237 	-4.20283e-05
1.64952 	0.987705 	0.183869 	-4.15285e-05
1.65168 	0.987992 	0.183478 	-4.14677e-05
1.65385 	0.988279 	0.183087 	-4.14069e-05
1.6699 	0.990586 	0.180109 	-4.09802e-05
1.68595 	0.992893 	0.177131 	-4.05535e-05
1.70512 	0.995144 	0.173423 	-4.00512e-05
1.72428 	0.997491 	0.170119 	-3.9561e-05
1.73714 	0.99878 	0.167862 	-3.92382e-05
1.75 	1.00007 	0.165604 	-3.89155e-05
1.7573 	1.0009 	0.164265 	-3.87381e-05
1.7646 	1.00172 	0.162926 	-3.85608e-05
1.78582 	1.00371 	0.159219 	-3.80687e-05
1.80703 	1.00577 	0.155705 	-3.7586e-05
1.82935 	1.0075 	0.151963 	-3.70919e-05
1.85166 	1.00927 	0.148356 	-3.6607e-05
1.85765 	1.00967 	0.14746 	-3.64855e-05
1.86364 	1.01008 	0.146564 	-3.6364e-05
1.88113 	1.01142 	0.143812 	-3.60086e-05
1.89862 	1.01276 	0.141061 	-3.56532e-05
1.92332 	1.01419 	0.137254 	-3.51649e-05
1.94802 	1.01579 	0.133747 	-3.47063e-05
1.97401 	1.01734 	0.129384 	-3.4317e-05
2 	1.01889 	0.12502 	-3.39277e-05
2 	1.01889 	0.12502 	-3.39277e-05
2.04537 	1.02025 	0.119249 	-3.30921e-05
2.09074 	1.02162 	0.113478 	-3.22565e-05
