0 	0.000181038 	0 	0.0245419
0.00259889 	0.00033893 	2.22093e-06 	0.0245393
0.00519778 	0.000502179 	4.48947e-06 	0.0245364
0.00793204 	0.00120333 	2.64957e-05 	0.0245267
0.0106663 	0.00192035 	4.91329e-05 	0.0245162
0.013543 	0.00290694 	0.000115069 	0.024493
0.0164197 	0.0039088 	0.000182767 	0.0244681
0.0194462 	0.00468018 	0.000295222 	0.0244268
0.0224727 	0.00546191 	0.000410457 	0.0243825
0.0256569 	0.00605498 	0.000558297 	0.0243254
0.028841 	0.006658 	0.000709391 	0.0242645
0.032191 	0.0071495 	0.000883029 	0.0241966
0.035541 	0.00764886 	0.00105992 	0.0241245
0.0390655 	0.00807615 	0.00125257 	0.0240494
0.04259 	0.00850993 	0.00144826 	0.0239699
0.0431327 	0.00856408 	0.00147754 	0.0239598
0.0436754 	0.00861823 	0.00150682 	0.0239496
0.0468407 	0.00895038 	0.00168555 	0.0238774
0.0500061 	0.00928252 	0.00186428 	0.0238053
0.0539073 	0.00963446 	0.00208087 	0.0237216
0.0578085 	0.00999137 	0.00229978 	0.0236337
0.0578085 	0.00999137 	0.00229978 	0.0236337
0.0619129 	0.0103196 	0.00252279 	0.0235478
0.0660173 	0.0106523 	0.00274763 	0.0234578
0.0703355 	0.0109621 	0.00297378 	0.0233707
0.0746537 	0.0112761 	0.0032012 	0.0232798
0.0791968 	0.011571 	0.00342753 	0.0231926
0.0837399 	0.01187 	0.00365453 	0.0231019
0.0885197 	0.0121527 	0.0038784 	0.0230156
0.0932994 	0.0124392 	0.00410237 	0.022926
0.0983282 	0.0127115 	0.0043214 	0.0228413
0.103357 	0.0129874 	0.00453994 	0.0227538
0.108648 	0.0132504 	0.00475193 	0.0226715
0.113938 	0.0135169 	0.00496281 	0.0225866
0.119504 	0.0137716 	0.00516573 	0.0225073
0.12507 	0.0140295 	0.00536691 	0.0224257
0.130927 	0.0142762 	0.00555901 	0.0223497
0.136783 	0.014526 	0.00574879 	0.0222718
0.142944 	0.0147649 	0.00592842 	0.0221993
0.149105 	0.0150068 	0.00610519 	0.0221253
0.155587 	0.0152378 	0.00627093 	0.0220566
0.162069 	0.0154716 	0.00643335 	0.0219866
0.168888 	0.0156946 	0.00658406 	0.0219217
0.175708 	0.01592 	0.00673108 	0.0218559
0.182883 	0.0161343 	0.00686602 	0.0217947
0.190058 	0.0163509 	0.00699709 	0.0217329
0.197606 	0.0165559 	0.00711628 	0.0216754
0.205155 	0.016763 	0.00723155 	0.0216174
0.213097 	0.016958 	0.00733533 	0.0215632
0.221039 	0.0171548 	0.00743523 	0.0215087
0.229394 	0.0173389 	0.00752399 	0.0214573
0.23775 	0.0175245 	0.00760902 	0.0214059
0.24654 	0.0176968 	0.00768332 	0.0213569
0.255331 	0.0178704 	0.00775407 	0.0213078
0.260384 	0.0179572 	0.00778877 	0.0212821
0.265437 	0.018045 	0.00782006 	0.0212562
0.269632 	0.0181179 	0.00784604 	0.0212347
0.273828 	0.0181908 	0.00787202 	0.0212132
0.279666 	0.0182783 	0.00790214 	0.0211855
0.285505 	0.0183665 	0.007929 	0.0211576
0.289397 	0.0184254 	0.00794691 	0.021139
0.293289 	0.0184842 	0.00796481 	0.0211204
0.303526 	0.0186166 	0.0080012 	0.0210742
0.313763 	0.0187494 	0.00803452 	0.0210278
0.324533 	0.0188676 	0.00806049 	0.0209808
0.335303 	0.0189859 	0.0080836 	0.0209334
0.335303 	0.0189859 	0.0080836 	0.0209334
0.346635 	0.0190899 	0.00810052 	0.0208846
0.357966 	0.0191939 	0.00811481 	0.0208351
0.369888 	0.0192842 	0.00812403 	0.0207833
0.381809 	0.0193744 	0.00813085 	0.0207305
0.394351 	0.0194521 	0.00813378 	0.0206742
0.406893 	0.0195297 	0.00813454 	0.0206166
0.408872 	0.0195397 	0.00813499 	0.020608
0.410852 	0.0195497 	0.00813539 	0.0205993
0.422068 	0.0196064 	0.00813221 	0.0205449
0.433285 	0.019663 	0.00812904 	0.0204904
0.445086 	0.0197123 	0.00812528 	0.0204315
0.456886 	0.0197617 	0.00811974 	0.0203699
0.458969 	0.0197705 	0.00811876 	0.020359
0.461051 	0.0197792 	0.00811779 	0.0203482
0.475657 	0.0198313 	0.00811195 	0.020269
0.490263 	0.0198842 	0.00810455 	0.0201862
0.50563 	0.0199339 	0.00809973 	0.0200955
0.520997 	0.0199851 	0.00809357 	0.0200003
0.537164 	0.0200362 	0.00809199 	0.0198962
0.553331 	0.0200897 	0.00808933 	0.0197862
0.57034 	0.0201457 	0.00809307 	0.0196665
0.58735 	0.0202055 	0.00809599 	0.0195397
0.605245 	0.0202689 	0.00810679 	0.0194025
0.623141 	0.0203379 	0.00811707 	0.0192567
0.641968 	0.0204096 	0.00813616 	0.0191002
0.660796 	0.0204887 	0.00815514 	0.0189337
0.680604 	0.0205664 	0.00818325 	0.0187564
0.700412 	0.020653 	0.00821177 	0.0185676
0.721251 	0.02073 	0.00824903 	0.0183683
0.742091 	0.0208169 	0.00828736 	0.0181559
0.764016 	0.0208814 	0.008333 	0.0179336
0.785942 	0.0209554 	0.00838047 	0.0176965
0.809009 	0.0209909 	0.00843256 	0.0174497
0.832077 	0.0210336 	0.00848726 	0.0171865
0.856345 	0.0210211 	0.00854261 	0.0169143
0.880614 	0.0210117 	0.00860134 	0.0166238
0.906147 	0.0209308 	0.00865496 	0.0163258
0.93168 	0.020848 	0.00871273 	0.0160074
0.958542 	0.0206827 	0.00875799 	0.015682
0.985405 	0.0205109 	0.00880822 	0.0153337
1.01367 	0.0202545 	0.00883717 	0.0149793
1.04193 	0.0199887 	0.00887191 	0.0145991
1.07166 	0.0196407 	0.00887475 	0.0142152
1.1014 	0.0192826 	0.00888394 	0.0138028
1.1014 	0.0192826 	0.00888394 	0.0138028
1.13268 	0.0188433 	0.00884856 	0.0133893
1.16396 	0.0183948 	0.0088194 	0.0129446
1.19688 	0.0178589 	0.00873212 	0.0125025
1.22979 	0.0173142 	0.00864989 	0.0120268
1.26442 	0.0166687 	0.00849904 	0.0115583
1.29904 	0.0160131 	0.00835115 	0.0110541
1.33547 	0.015243 	0.00813268 	0.0105623
1.3719 	0.0144595 	0.00791456 	0.0100331
1.41023 	0.013563 	0.00763901 	0.00952107
1.44855 	0.0126482 	0.00736109 	0.00897042
1.48888 	0.0116618 	0.00706544 	0.00844209
1.5292 	0.0106526 	0.00676523 	0.00787438
1.57163 	0.00967202 	0.0065289 	0.0073354
1.61405 	0.00866748 	0.00628679 	0.00675693
1.65869 	0.00783243 	0.00623832 	0.00621618
1.70332 	0.0069769 	0.00618411 	0.00563677
1.75028 	0.00639699 	0.00647228 	0.00510636
1.79724 	0.00580336 	0.0067575 	0.00453936
1.84664 	0.00548029 	0.00746535 	0.00403027
1.89604 	0.00515041 	0.00817747 	0.0034876
1.94802 	0.00499998 	0.00920349 	0.00302336
2 	0.00484702 	0.0102402 	0.00252979
