0 	0.00024482 	0 	0.0112706
0.00259889 	0.00036423 	1.87901e-06 	0.0112695
0.00519778 	0.000484695 	3.7661e-06 	0.0112684
0.00793204 	0.00106855 	2.02677e-05 	0.0112644
0.0106663 	0.00165596 	3.69343e-05 	0.0112604
0.013543 	0.00248442 	8.50456e-05 	0.0112508
0.0164197 	0.00331933 	0.000133788 	0.0112409
0.0194462 	0.00393706 	0.000216821 	0.0112229
0.0224727 	0.00456285 	0.000301038 	0.0112045
0.0256569 	0.00502919 	0.000415024 	0.0111778
0.028841 	0.00550329 	0.000530485 	0.0111505
0.032191 	0.00590314 	0.000670468 	0.0111166
0.035541 	0.00630927 	0.000811939 	0.0110818
0.0390655 	0.00666519 	0.000972683 	0.011042
0.04259 	0.0070257 	0.0011348 	0.0110013
0.0462981 	0.00734922 	0.00131214 	0.0109571
0.0500061 	0.00767626 	0.00149072 	0.010912
0.0539073 	0.00797534 	0.0016813 	0.0108643
0.0578085 	0.00827727 	0.00187302 	0.0108157
0.0578085 	0.00827727 	0.00187302 	0.0108157
0.0619129 	0.00855744 	0.00207399 	0.0107654
0.0660173 	0.00884006 	0.00227598 	0.0107141
0.0703355 	0.00910526 	0.00248478 	0.0106616
0.0746537 	0.00937263 	0.00269447 	0.0106083
0.0791968 	0.00962573 	0.00290869 	0.0105544
0.0837399 	0.0098808 	0.00312367 	0.0104996
0.0885197 	0.0101239 	0.00334101 	0.0104448
0.0932994 	0.0103688 	0.00355896 	0.010389
0.0983282 	0.0106035 	0.00377718 	0.0103338
0.103357 	0.0108399 	0.00399586 	0.0102776
0.108648 	0.0110672 	0.00421281 	0.0102223
0.113938 	0.0112962 	0.00443002 	0.010166
0.119504 	0.011517 	0.00464363 	0.010111
0.12507 	0.0117394 	0.00485731 	0.010055
0.130927 	0.0119542 	0.00506575 	0.0100005
0.136783 	0.0121705 	0.00527403 	0.00994521
0.142944 	0.0123796 	0.00547544 	0.00989181
0.149105 	0.0125901 	0.00567645 	0.00983754
0.153285 	0.0127208 	0.00580093 	0.00980431
0.157464 	0.0128528 	0.00592472 	0.00977026
0.159767 	0.0129255 	0.00599291 	0.0097515
0.162069 	0.0129982 	0.00606109 	0.00973275
0.164797 	0.0130766 	0.00613475 	0.0097131
0.167525 	0.0131562 	0.00620729 	0.00969269
0.171616 	0.0132755 	0.00631611 	0.00966208
0.175708 	0.0133948 	0.00642492 	0.00963147
0.182883 	0.0135864 	0.00659556 	0.00958316
0.190058 	0.0137792 	0.00676483 	0.00953416
0.194925 	0.0138982 	0.00686892 	0.00950458
0.199793 	0.0140183 	0.00696955 	0.00947436
0.202474 	0.0140844 	0.00702499 	0.00945771
0.205155 	0.0141505 	0.00708042 	0.00944106
0.208332 	0.0142213 	0.00713824 	0.00942377
0.211509 	0.0142928 	0.00719507 	0.0094059
0.216274 	0.0144002 	0.00728031 	0.00937908
0.221039 	0.0145076 	0.00736554 	0.00935227
0.229395 	0.014678 	0.00749198 	0.00931025
0.23775 	0.0148491 	0.00761959 	0.0092677
0.246541 	0.015011 	0.0077339 	0.00922767
0.255331 	0.0151734 	0.00784691 	0.00918716
0.26458 	0.015326 	0.00794693 	0.00914905
0.273828 	0.0154789 	0.00804549 	0.00911052
0.283559 	0.0156212 	0.00813157 	0.00907425
0.293289 	0.0157637 	0.0082161 	0.00903762
0.303526 	0.0158949 	0.00828881 	0.00900296
0.313763 	0.0160261 	0.00835993 	0.00896797
0.324533 	0.0161454 	0.0084201 	0.00893448
0.335303 	0.0162645 	0.00847869 	0.00890063
0.335303 	0.0162645 	0.00847869 	0.00890063
0.346635 	0.0163712 	0.00852727 	0.00886777
0.357966 	0.0164775 	0.00857433 	0.00883449
0.369888 	0.0165712 	0.00861244 	0.0088017
0.381809 	0.0166644 	0.0086491 	0.00876847
0.394351 	0.0167449 	0.00867803 	0.00873528
0.406893 	0.0168248 	0.00870561 	0.00870165
0.411147 	0.016847 	0.00871326 	0.00869094
0.415402 	0.0168685 	0.0087197 	0.00867982
0.424343 	0.0169139 	0.00873322 	0.00865644
0.433285 	0.0169593 	0.00874674 	0.00863306
0.443003 	0.016998 	0.00875752 	0.00860831
0.452721 	0.0170363 	0.00876724 	0.00858313
0.456886 	0.0170526 	0.00877141 	0.00857234
0.461051 	0.017069 	0.00877558 	0.00856155
0.475657 	0.0171128 	0.00878591 	0.00852391
0.490263 	0.0171562 	0.00879537 	0.00848577
0.50563 	0.01719 	0.00880276 	0.00844532
0.520997 	0.0172236 	0.00880948 	0.00840426
0.537164 	0.0172488 	0.00881565 	0.00836021
0.553331 	0.0172741 	0.0088214 	0.00831542
0.570341 	0.0172923 	0.00882813 	0.00826678
0.58735 	0.0173111 	0.0088347 	0.00821723
0.605245 	0.0173235 	0.00884355 	0.00816282
0.623141 	0.0173368 	0.00885252 	0.00810731
0.641968 	0.0173439 	0.00886462 	0.00804595
0.660796 	0.0173524 	0.00887712 	0.00798329
0.680604 	0.017354 	0.00889292 	0.00791396
0.700412 	0.0173572 	0.00890938 	0.00784313
0.721252 	0.0173517 	0.0089285 	0.00776508
0.742091 	0.0173479 	0.00894849 	0.00768535
0.764017 	0.0173323 	0.00896975 	0.00759817
0.785942 	0.0173183 	0.00899206 	0.00750916
0.809009 	0.0172882 	0.00901362 	0.00741259
0.832077 	0.0172596 	0.00903636 	0.00731404
0.856345 	0.0172096 	0.00905565 	0.00720747
0.880614 	0.0171606 	0.00907624 	0.00709872
0.906147 	0.0170828 	0.00908965 	0.00698161
0.93168 	0.0170054 	0.00910443 	0.00686214
0.958542 	0.0168853 	0.00910619 	0.00673578
0.985405 	0.0167646 	0.00910928 	0.00660706
1.01367 	0.0165847 	0.00909172 	0.00647371
1.04193 	0.0164028 	0.00907537 	0.00633806
1.07166 	0.01615 	0.00903081 	0.00619788
1.1014 	0.0158942 	0.0089873 	0.00605528
1.1014 	0.0158942 	0.0089873 	0.00605528
1.13268 	0.01556 	0.00890858 	0.00590696
1.16396 	0.0152217 	0.00883066 	0.00575595
1.19688 	0.0147993 	0.00871085 	0.00559886
1.22979 	0.0143719 	0.00859143 	0.0054388
1.26442 	0.0138554 	0.00842551 	0.00527312
1.29904 	0.0133328 	0.00825941 	0.00510417
1.33547 	0.0127191 	0.00804755 	0.00493038
1.3719 	0.0120983 	0.00783483 	0.00475298
1.41023 	0.0113953 	0.00758825 	0.00457156
1.44855 	0.0106841 	0.00734011 	0.00438616
1.48888 	0.00992364 	0.00709166 	0.00419778
1.5292 	0.00915428 	0.00684114 	0.00400504
1.56769 	0.0084747 	0.00667703 	0.00382948
1.60619 	0.00778638 	0.00651084 	0.00364911
1.61012 	0.00771607 	0.00649386 	0.00363068
1.61405 	0.00764575 	0.00647689 	0.00361226
1.62019 	0.00756371 	0.00647759 	0.00358973
1.62632 	0.00747449 	0.00647708 	0.00356186
1.66482 	0.00691482 	0.00647387 	0.00338699
1.70332 	0.00635516 	0.00647066 	0.00321212
1.75028 	0.00590084 	0.00676628 	0.00301448
1.79724 	0.00544197 	0.00706273 	0.00281091
1.84664 	0.00517938 	0.00770825 	0.00261654
1.89604 	0.00491464 	0.0083572 	0.00241577
1.94802 	0.00478671 	0.00927345 	0.00223467
2 	0.00465795 	0.0101942 	0.00204718
