1 	0 	0 	0
1.0013 	0.0596275 	0.320523 	2.82075e-05
1.0026 	0.119255 	0.641047 	5.6415e-05
1.00396 	0.109137 	0.62794 	7.48175e-05
1.00533 	0.0993256 	0.614877 	8.62473e-05
1.00677 	0.110071 	0.607741 	9.57762e-05
1.00821 	0.116913 	0.59674 	0.000103813
1.00972 	0.135811 	0.603648 	0.000107508
1.01124 	0.1405 	0.604228 	0.000118611
1.01283 	0.165493 	0.613854 	0.000117772
1.01442 	0.17085 	0.610726 	0.000129183
1.01609 	0.196215 	0.620149 	0.000126713
1.01777 	0.203552 	0.609479 	0.000132258
1.01953 	0.228391 	0.621296 	0.000128655
1.02129 	0.237856 	0.613103 	0.000134966
1.02314 	0.262753 	0.626312 	0.00012942
1.025 	0.27676 	0.624811 	0.000132741
1.02695 	0.301342 	0.638386 	0.000126415
1.0289 	0.319916 	0.642781 	0.000125431
1.03095 	0.343764 	0.655742 	0.000119141
1.03301 	0.365594 	0.665162 	0.000114696
1.03301 	0.365594 	0.665162 	0.000114696
1.03436 	0.380209 	0.672792 	0.000110927
1.03572 	0.394825 	0.680422 	0.000107158
1.03652 	0.398222 	0.68239 	0.000107587
1.03733 	0.40162 	0.684357 	0.000108016
1.0396 	0.411985 	0.688484 	0.000108742
1.04187 	0.420486 	0.691442 	0.000110397
1.04426 	0.435376 	0.697208 	0.000108048
1.04665 	0.442932 	0.697311 	0.000110131
1.04916 	0.462136 	0.706196 	0.0001032
1.05168 	0.469383 	0.703531 	0.000105578
1.05432 	0.492617 	0.716554 	9.46956e-05
1.05697 	0.500656 	0.71189 	9.72428e-05
1.05975 	0.523606 	0.725003 	8.65959e-05
1.06254 	0.535549 	0.723543 	8.68875e-05
1.06546 	0.556591 	0.73518 	7.67895e-05
1.06839 	0.572229 	0.738648 	7.23371e-05
1.07147 	0.591572 	0.748199 	6.33289e-05
1.07455 	0.609728 	0.755653 	5.57497e-05
1.07573 	0.616307 	0.758454 	5.30081e-05
1.07692 	0.622886 	0.761255 	5.02665e-05
1.07897 	0.629426 	0.761699 	4.97322e-05
1.08103 	0.635966 	0.762143 	4.9198e-05
1.08444 	0.649179 	0.764103 	4.59083e-05
1.08785 	0.659022 	0.762457 	4.60929e-05
1.09144 	0.675839 	0.767616 	3.84731e-05
1.09503 	0.685425 	0.763408 	3.94863e-05
1.0988 	0.704876 	0.771952 	2.84736e-05
1.10258 	0.714994 	0.766187 	2.96581e-05
1.10655 	0.73314 	0.772993 	2.04334e-05
1.11052 	0.745687 	0.770461 	1.83944e-05
1.11469 	0.761829 	0.774334 	1.19782e-05
1.11887 	0.775997 	0.774877 	7.77252e-06
1.12194 	0.786271 	0.775879 	4.96748e-06
1.125 	0.796546 	0.77688 	2.16244e-06
1.12634 	0.799803 	0.775884 	2.18549e-06
1.12767 	0.80306 	0.774888 	2.20853e-06
1.13229 	0.814651 	0.771385 	1.37556e-06
1.13691 	0.825121 	0.766416 	2.03831e-06
1.14177 	0.838757 	0.765248 	-1.86606e-06
1.14664 	0.848532 	0.7584 	-1.02107e-06
1.15176 	0.863075 	0.758966 	-5.71484e-06
1.15688 	0.871396 	0.750901 	-5.19971e-06
1.15688 	0.871396 	0.750901 	-5.19971e-06
1.16227 	0.884421 	0.749375 	-7.63292e-06
1.16765 	0.894568 	0.74349 	-8.60048e-06
1.17332 	0.906232 	0.739684 	-9.47329e-06
1.17898 	0.917447 	0.735155 	-1.02682e-05
1.1804 	0.9198 	0.73388 	-1.03335e-05
1.18182 	0.922153 	0.732604 	-1.03989e-05
1.18636 	0.928204 	0.726362 	-1.02755e-05
1.1909 	0.934256 	0.72012 	-1.01521e-05
1.19718 	0.942677 	0.712691 	-1.10078e-05
1.20345 	0.949428 	0.703036 	-1.12654e-05
1.21005 	0.958303 	0.696594 	-1.2039e-05
1.21664 	0.963941 	0.685519 	-1.26967e-05
1.22359 	0.971824 	0.678326 	-1.32409e-05
1.23053 	0.977531 	0.668009 	-1.40503e-05
1.23783 	0.983636 	0.659177 	-1.48384e-05
1.24513 	0.989425 	0.649827 	-1.56832e-05
1.24757 	0.990794 	0.646596 	-1.60648e-05
1.25 	0.992164 	0.643365 	-1.64463e-05
1.25525 	0.994385 	0.635133 	-1.73475e-05
1.2605 	0.996606 	0.626902 	-1.82488e-05
1.26859 	0.999972 	0.615414 	-1.96739e-05
1.27667 	1.00256 	0.602818 	-2.11909e-05
1.28518 	1.00541 	0.591782 	-2.28734e-05
1.29368 	1.00815 	0.579381 	-2.43665e-05
1.30263 	1.00973 	0.567789 	-2.64185e-05
1.31157 	1.0125 	0.556191 	-2.79173e-05
1.32099 	1.01394 	0.544466 	-2.99579e-05
1.3304 	1.01561 	0.532815 	-3.1896e-05
1.33187 	1.01593 	0.531159 	-3.21532e-05
1.33333 	1.01625 	0.529503 	-3.24103e-05
1.34177 	1.01818 	0.519345 	-3.37328e-05
1.35021 	1.02011 	0.509187 	-3.50554e-05
1.36063 	1.02203 	0.497918 	-3.67552e-05
1.37105 	1.02511 	0.486994 	-3.78774e-05
1.38201 	1.02658 	0.475975 	-3.97669e-05
1.39297 	1.03 	0.465634 	-4.05578e-05
1.40451 	1.03214 	0.455191 	-4.20369e-05
1.41604 	1.03492 	0.444957 	-4.31245e-05
1.42677 	1.03708 	0.436231 	-4.41512e-05
1.4375 	1.03924 	0.427504 	-4.51778e-05
1.4389 	1.03951 	0.426292 	-4.5304e-05
1.44031 	1.03979 	0.425081 	-4.54301e-05
1.45308 	1.04208 	0.41507 	-4.63322e-05
1.46584 	1.04443 	0.405069 	-4.71909e-05
1.47927 	1.04623 	0.395155 	-4.82306e-05
1.4927 	1.04851 	0.3853 	-4.89363e-05
1.50683 	1.04995 	0.375647 	-4.99641e-05
1.52096 	1.05211 	0.366158 	-5.05254e-05
1.53583 	1.05349 	0.356943 	-5.13249e-05
1.5507 	1.05519 	0.347818 	-5.19577e-05
1.5507 	1.05519 	0.347818 	-5.19577e-05
1.56107 	1.05609 	0.341859 	-5.2314e-05
1.57143 	1.05699 	0.335901 	-5.26703e-05
1.57671 	1.05741 	0.332722 	-5.28439e-05
1.58198 	1.05784 	0.329543 	-5.30174e-05
1.59844 	1.05899 	0.320469 	-5.33617e-05
1.61489 	1.06027 	0.311425 	-5.36276e-05
1.6322 	1.06106 	0.302725 	-5.40015e-05
1.64952 	1.06237 	0.294153 	-5.41338e-05
1.66773 	1.0629 	0.285704 	-5.43514e-05
1.68595 	1.06409 	0.277449 	-5.43322e-05
1.70511 	1.06458 	0.26932 	-5.42938e-05
1.72428 	1.06533 	0.261276 	-5.41896e-05
1.73714 	1.06561 	0.25634 	-5.40829e-05
1.75 	1.06589 	0.251405 	-5.39762e-05
1.7573 	1.06603 	0.248495 	-5.39136e-05
1.7646 	1.06617 	0.245585 	-5.38511e-05
1.78581 	1.06645 	0.237931 	-5.35397e-05
1.80703 	1.06684 	0.230305 	-5.31981e-05
1.82935 	1.06676 	0.222894 	-5.27793e-05
1.85166 	1.06714 	0.215606 	-5.22872e-05
1.87514 	1.06676 	0.20844 	-5.17873e-05
1.89862 	1.06704 	0.20143 	-5.12157e-05
1.89862 	1.06704 	0.20143 	-5.12157e-05
1.92332 	1.06658 	0.194946 	-5.06003e-05
1.94802 	1.06645 	0.188475 	-4.9971e-05
1.97401 	1.06635 	0.180481 	-4.92973e-05
2 	1.06626 	0.172488 	-4.86236e-05
