0 	3.75805e-05 	0 	-0.186166
0.00194917 	0.000102105 	4.30426e-07 	-0.186153
0.00389834 	0.00017736 	9.24088e-07 	-0.186139
0.00594904 	0.000613691 	6.59625e-06 	-0.186109
0.00799974 	0.00110263 	1.29781e-05 	-0.186082
0.0101572 	0.00202988 	3.2784e-05 	-0.186057
0.0123148 	0.00300337 	5.48429e-05 	-0.186039
0.0145846 	0.00401414 	9.30054e-05 	-0.186044
0.0168545 	0.00502592 	0.000135303 	-0.186057
0.0192427 	0.0058512 	0.00019234 	-0.186111
0.0216308 	0.00667218 	0.000255115 	-0.186168
0.0241433 	0.00736019 	0.000332405 	-0.186275
0.0266558 	0.00804927 	0.000416486 	-0.186381
0.0266558 	0.00804927 	0.000416486 	-0.186381
0.0292992 	0.00866092 	0.000515248 	-0.186538
0.0292992 	0.00866092 	0.000515248 	-0.186538
0.0319426 	0.00927667 	0.000621082 	-0.186689
0.0319426 	0.00927667 	0.000621082 	-0.186689
0.0347236 	0.00984936 	0.00074136 	-0.18689
0.0375046 	0.0104253 	0.000868413 	-0.18708
0.0404306 	0.0109723 	0.00100897 	-0.187319
0.0433565 	0.0115207 	0.0011559 	-0.187544
0.0464348 	0.0120468 	0.0013155 	-0.187818
0.0495131 	0.0125724 	0.00148105 	-0.188074
0.0527517 	0.0130798 	0.00165862 	-0.18838
0.0559904 	0.0135854 	0.00184173 	-0.188666
0.0593977 	0.0140757 	0.00203625 	-0.189001
0.0628051 	0.0145632 	0.00223592 	-0.189316
0.0663899 	0.0150378 	0.00244648 	-0.189679
0.0699747 	0.0155088 	0.00266179 	-0.190022
0.0737462 	0.0159687 	0.00288756 	-0.190413
0.0775178 	0.0164247 	0.00311768 	-0.190783
0.0814857 	0.0168711 	0.00335783 	-0.191201
0.0854537 	0.0173132 	0.00360192 	-0.191597
0.0896284 	0.0177471 	0.0038556 	-0.192042
0.093803 	0.0181763 	0.00411275 	-0.192464
0.0981952 	0.0185984 	0.00437898 	-0.192935
0.102587 	0.0190157 	0.00464819 	-0.193384
0.107208 	0.0194267 	0.00492594 	-0.19388
0.111829 	0.0198326 	0.00520618 	-0.194355
0.116691 	0.0202331 	0.00549447 	-0.194877
0.121552 	0.0206285 	0.00578466 	-0.195377
0.126667 	0.0210189 	0.00608228 	-0.195925
0.131781 	0.0214041 	0.00638121 	-0.196451
0.137163 	0.0217849 	0.00668688 	-0.197024
0.142544 	0.0221604 	0.00699325 	-0.197576
0.148205 	0.0225318 	0.00730565 	-0.198176
0.153867 	0.0228978 	0.0076182 	-0.198755
0.153867 	0.0228978 	0.0076182 	-0.198755
0.159823 	0.0232602 	0.00793596 	-0.199381
0.159823 	0.0232602 	0.00793596 	-0.199381
0.16578 	0.023617 	0.00825329 	-0.199987
0.16578 	0.023617 	0.00825329 	-0.199987
0.172046 	0.0239705 	0.00857488 	-0.20064
0.178313 	0.0243183 	0.00889534 	-0.201274
0.184906 	0.024663 	0.00921905 	-0.201954
0.191499 	0.0250018 	0.00954092 	-0.202616
0.198435 	0.0253378 	0.009865 	-0.203325
0.205372 	0.0256678 	0.0101865 	-0.204016
0.212669 	0.0259949 	0.0105091 	-0.204755
0.219967 	0.026316 	0.0108283 	-0.205476
0.227645 	0.0266343 	0.0111475 	-0.206246
0.235322 	0.0269463 	0.0114627 	-0.206999
0.2434 	0.0272553 	0.0117768 	-0.207802
0.251478 	0.027558 	0.012086 	-0.20859
0.259976 	0.0278573 	0.0123928 	-0.209429
0.268475 	0.0281501 	0.0126941 	-0.210252
0.277416 	0.0284389 	0.0129915 	-0.21113
0.286357 	0.0287212 	0.0132828 	-0.211992
0.295764 	0.028999 	0.0135691 	-0.21291
0.30517 	0.02927 	0.0138487 	-0.213811
0.315067 	0.0295356 	0.0141227 	-0.21477
0.324964 	0.0297945 	0.0143893 	-0.215712
0.335377 	0.030047 	0.0146496 	-0.216716
0.345789 	0.0302926 	0.014902 	-0.217701
0.345789 	0.0302926 	0.014902 	-0.217701
0.356743 	0.0305306 	0.0151472 	-0.218751
0.367698 	0.0307615 	0.0153842 	-0.219782
0.379223 	0.0309835 	0.0156133 	-0.220881
0.390749 	0.0311983 	0.0158339 	-0.221958
0.402874 	0.0314025 	0.0160462 	-0.223106
0.415 	0.0315997 	0.0162495 	-0.224229
0.427756 	0.0317845 	0.0164443 	-0.225421
0.440513 	0.0319623 	0.0166296 	-0.226586
0.453935 	0.0321258 	0.0168062 	-0.227818
0.467356 	0.0322824 	0.0169734 	-0.229022
0.481477 	0.0324221 	0.0171318 	-0.230291
0.495598 	0.0325544 	0.0172811 	-0.231531
0.510454 	0.0326655 	0.0174207 	-0.232835
0.52531 	0.0327687 	0.0175517 	-0.234107
0.54094 	0.0328454 	0.0176716 	-0.235435
0.55657 	0.0329145 	0.0177837 	-0.236729
0.573014 	0.0329502 	0.0178827 	-0.238071
0.589458 	0.0329789 	0.0179747 	-0.239376
0.606758 	0.0329713 	0.018054 	-0.240716
0.624058 	0.0329579 	0.0181273 	-0.242014
0.64226 	0.0329135 	0.0181925 	-0.243333
0.660461 	0.0328641 	0.0182525 	-0.244605
0.679611 	0.032787 	0.0183078 	-0.245878
0.698761 	0.0327054 	0.0183584 	-0.2471
0.718908 	0.0325942 	0.018404 	-0.248294
0.739056 	0.0324793 	0.0184456 	-0.249432
0.760252 	0.0323325 	0.0184806 	-0.250512
0.781448 	0.0321831 	0.0185124 	-0.251533
0.803749 	0.0320015 	0.0185358 	-0.252461
0.826049 	0.0318184 	0.0185566 	-0.253324
0.849512 	0.0316036 	0.0185647 	-0.254013
0.872974 	0.0313883 	0.0185709 	-0.254631
0.897658 	0.0311422 	0.0185558 	-0.255011
0.922342 	0.0308969 	0.0185395 	-0.255328
0.948312 	0.0306235 	0.0184872 	-0.25537
0.974282 	0.0303523 	0.0184342 	-0.255356
1.00161 	0.0300595 	0.0183225 	-0.25502
1.02893 	0.0297707 	0.0182108 	-0.254641
1.05767 	0.0294703 	0.0180057 	-0.253929
1.08642 	0.0291761 	0.017796 	-0.253189
1.08642 	0.0291761 	0.017796 	-0.253189
1.11666 	0.0288849 	0.0174348 	-0.252057
1.1469 	0.0286047 	0.0170491 	-0.250917
1.17872 	0.0283566 	0.0163838 	-0.249442
1.21054 	0.0281286 	0.0156418 	-0.247994
1.24401 	0.0280403 	0.0143798 	-0.246055
1.27749 	0.0280341 	0.0130009 	-0.244101
1.31271 	0.0287732 	0.0112227 	-0.241106
1.34793 	0.0298329 	0.00946837 	-0.2383
1.38499 	0.0332226 	0.00814627 	-0.242366
1.42204 	0.0372598 	0.00700356 	-0.246836
1.46102 	0.0443935 	0.00665315 	-0.242255
1.5 	0.051916 	0.0064135 	-0.237278
1.51048 	0.0556174 	0.00648246 	-0.235091
1.52096 	0.0592163 	0.00656245 	-0.232571
1.53583 	0.0635661 	0.0066208 	-0.228849
1.5507 	0.0667046 	0.00661909 	-0.224213
1.56106 	0.067929 	0.00654795 	-0.220826
1.57143 	0.0682458 	0.00642174 	-0.217067
1.5767 	0.0683051 	0.00636249 	-0.21659
1.58198 	0.0680054 	0.00627959 	-0.216235
1.59843 	0.0647084 	0.0058628 	-0.214183
1.61489 	0.0594835 	0.00534385 	-0.212525
1.6322 	0.0510066 	0.00463299 	-0.209822
1.64952 	0.0413392 	0.00389258 	-0.20731
1.65168 	0.0400891 	0.00380403 	-0.206902
1.65385 	0.038879 	0.00372594 	-0.206502
1.6699 	0.029519 	0.00310204 	-0.202104
1.68595 	0.0208752 	0.00258862 	-0.198211
1.70511 	0.0139464 	0.00236144 	-0.192907
1.72428 	0.00938579 	0.00247616 	-0.188583
1.73714 	0.00808454 	0.00282717 	-0.18548
1.75 	0.00731303 	0.00327162 	-0.18268
1.7573 	0.00680495 	0.00351573 	-0.18096
1.7646 	0.00648047 	0.00374853 	-0.179363
1.78581 	0.00621852 	0.0043067 	-0.174792
1.80703 	0.00605343 	0.00448891 	-0.170534
1.80703 	0.00605343 	0.00448891 	-0.170534
1.82934 	0.00594303 	0.00429157 	-0.166308
1.85166 	0.00583503 	0.00395239 	-0.162267
1.85765 	0.00580634 	0.00387454 	-0.161242
1.86364 	0.00577673 	0.00383987 	-0.160245
1.86364 	0.00577673 	0.00383987 	-0.160245
1.88113 	0.00568912 	0.00372449 	-0.157188
1.89862 	0.00560105 	0.00367988 	-0.154255
1.89862 	0.00560105 	0.00367988 	-0.154255
1.92332 	0.00548689 	0.00375155 	-0.15045
1.94802 	0.00538026 	0.00385342 	-0.146858
1.97401 	0.00526797 	0.00406262 	-0.142526
2 	0.00516042 	0.00427104 	-0.138327
2 	0.00516042 	0.00427104 	-0.138327
2.04537 	0.00504103 	0.0044266 	-0.132877
2.09074 	0.00492163 	0.00458216 	-0.127427
