0 	0 	0 	0
0.00259889 	-0.15751 	-0.000210291 	0.000453284
0.00519778 	-0.315019 	-0.000420582 	0.000906568
0.00793204 	-0.391548 	-0.00108359 	0.00109102
0.0106663 	-0.468077 	-0.0017466 	0.00127547
0.013543 	-0.491945 	-0.00256736 	0.00132383
0.0164197 	-0.515812 	-0.00338811 	0.00137219
0.0194462 	-0.524052 	-0.00425789 	0.00138364
0.0224727 	-0.532292 	-0.00512766 	0.0013951
0.0256568 	-0.535776 	-0.00606241 	0.00139574
0.028841 	-0.53926 	-0.00699715 	0.00139638
0.032191 	-0.540795 	-0.00798628 	0.00139249
0.035541 	-0.542329 	-0.00897541 	0.00138859
0.0390655 	-0.54286 	-0.0100087 	0.0013821
0.04259 	-0.543392 	-0.011042 	0.0013756
0.0462981 	-0.543318 	-0.0121132 	0.00136724
0.0500061 	-0.543245 	-0.0131844 	0.00135887
0.0539073 	-0.542761 	-0.0142911 	0.00134893
0.0578085 	-0.542276 	-0.0153978 	0.00133899
0.0619129 	-0.541486 	-0.0165386 	0.00132759
0.0660173 	-0.540695 	-0.0176794 	0.00131619
0.0703355 	-0.53966 	-0.0188528 	0.00130336
0.0746537 	-0.538625 	-0.0200262 	0.00129053
0.0791968 	-0.537382 	-0.0212307 	0.00127624
0.0837399 	-0.536139 	-0.0224352 	0.00126195
0.0885197 	-0.534709 	-0.0236695 	0.00124612
0.0932994 	-0.533279 	-0.0249038 	0.0012303
0.0983282 	-0.531676 	-0.0261663 	0.00121281
0.103357 	-0.530072 	-0.0274289 	0.00119532
0.108648 	-0.5283 	-0.0287179 	0.00117601
0.113938 	-0.526527 	-0.0300069 	0.00115669
0.119504 	-0.524586 	-0.0313203 	0.00113541
0.12507 	-0.522645 	-0.0326337 	0.00111413
0.130927 	-0.520532 	-0.0339691 	0.00109073
0.136783 	-0.518418 	-0.0353046 	0.00106733
0.142944 	-0.516126 	-0.0366593 	0.00104166
0.149105 	-0.513834 	-0.038014 	0.00101599
0.155587 	-0.511354 	-0.039385 	0.00098789
0.162069 	-0.508874 	-0.0407559 	0.000959795
0.168888 	-0.506195 	-0.0421397 	0.000929137
0.175708 	-0.503516 	-0.0435235 	0.00089848
0.182883 	-0.500624 	-0.0449163 	0.000865155
0.190058 	-0.497732 	-0.0463091 	0.00083183
0.197607 	-0.494613 	-0.0477068 	0.000795769
0.205155 	-0.491493 	-0.0491045 	0.000759709
0.213097 	-0.488129 	-0.0505026 	0.00072089
0.221039 	-0.484765 	-0.0519007 	0.000682072
0.229395 	-0.481137 	-0.0532941 	0.000640541
0.23775 	-0.477509 	-0.0546875 	0.00059901
0.23775 	-0.477509 	-0.0546875 	0.00059901
0.24654 	-0.473597 	-0.0560709 	0.000554892
0.246541 	-0.473597 	-0.0560709 	0.000554892
0.255331 	-0.469685 	-0.0574542 	0.000510774
0.255331 	-0.469685 	-0.0574542 	0.000510774
0.264579 	-0.465465 	-0.0588217 	0.000464287
0.273828 	-0.461245 	-0.0601893 	0.000417799
0.283558 	-0.456693 	-0.0615348 	0.000369273
0.293289 	-0.452141 	-0.0628803 	0.000320746
0.303526 	-0.44723 	-0.0641971 	0.000270644
0.313763 	-0.44232 	-0.0655139 	0.000220542
0.324533 	-0.437023 	-0.0667949 	0.000169468
0.335303 	-0.431727 	-0.0680759 	0.000118393
0.346634 	-0.426015 	-0.0693136 	6.71286e-05
0.357966 	-0.420303 	-0.0705514 	1.58641e-05
0.357966 	-0.420303 	-0.0705514 	1.58641e-05
0.369887 	-0.414146 	-0.0717381 	-3.45716e-05
0.369888 	-0.414146 	-0.0717381 	-3.45716e-05
0.381809 	-0.407989 	-0.0729248 	-8.50072e-05
0.381809 	-0.407989 	-0.0729248 	-8.50072e-05
0.394351 	-0.401354 	-0.0740524 	-0.000133357
0.394351 	-0.401354 	-0.0740524 	-0.000133357
0.406893 	-0.39472 	-0.07518 	-0.000181706
0.406893 	-0.39472 	-0.07518 	-0.000181706
0.420089 	-0.387575 	-0.0762401 	-0.000226424
0.433285 	-0.380431 	-0.0773001 	-0.000271142
0.447168 	-0.372741 	-0.0782839 	-0.00031049
0.461051 	-0.365052 	-0.0792676 	-0.000349838
0.461051 	-0.365052 	-0.0792676 	-0.000349838
0.475657 	-0.356782 	-0.0801657 	-0.000381936
0.475657 	-0.356782 	-0.0801657 	-0.000381936
0.490263 	-0.348512 	-0.0810639 	-0.000414035
0.490263 	-0.348512 	-0.0810639 	-0.000414035
0.50563 	-0.339622 	-0.0818664 	-0.000436944
0.520997 	-0.330732 	-0.0826689 	-0.000459853
0.52348 	-0.329265 	-0.0827758 	-0.000461669
0.525963 	-0.327798 	-0.0828826 	-0.000463485
0.539647 	-0.319713 	-0.0834714 	-0.000473492
0.553331 	-0.311629 	-0.0840602 	-0.0004835
0.567728 	-0.302945 	-0.0845479 	-0.000482619
0.582125 	-0.294261 	-0.0850355 	-0.000481739
0.584737 	-0.292686 	-0.085124 	-0.000481579
0.58735 	-0.29111 	-0.0852125 	-0.000481419
0.605245 	-0.280092 	-0.0856549 	-0.000466063
0.623141 	-0.269074 	-0.0860973 	-0.000450708
0.641968 	-0.257241 	-0.0863901 	-0.000420158
0.660796 	-0.245407 	-0.0866828 	-0.000389608
0.680604 	-0.232694 	-0.0868086 	-0.000344014
0.700412 	-0.219981 	-0.0869344 	-0.00029842
0.721251 	-0.206315 	-0.0868753 	-0.000239186
0.742091 	-0.192648 	-0.0868162 	-0.000179953
0.764016 	-0.177939 	-0.0865546 	-0.000109741
0.785942 	-0.163231 	-0.086293 	-3.95287e-05
0.809009 	-0.147377 	-0.0858124 	3.74733e-05
0.832077 	-0.131522 	-0.0853318 	0.000114475
0.856345 	-0.11439 	-0.084619 	0.000192454
0.880614 	-0.0972582 	-0.0839062 	0.000270433
0.906147 	-0.0786778 	-0.0829531 	0.000342212
0.93168 	-0.0600975 	-0.0819999 	0.000413992
0.958542 	-0.0398399 	-0.0808053 	0.000471764
0.985405 	-0.0195823 	-0.0796106 	0.000529537
1.01367 	0.00267428 	-0.0781842 	0.00056612
1.04193 	0.0249308 	-0.0767578 	0.000602703
1.07166 	0.0496587 	-0.0751271 	0.000612604
1.1014 	0.0743866 	-0.0734964 	0.000622506
1.13268 	0.102307 	-0.0717198 	0.000602777
1.16396 	0.130228 	-0.0699432 	0.000583048
1.19687 	0.162476 	-0.0681216 	0.000533881
1.22979 	0.194724 	-0.0663001 	0.000484714
1.26441 	0.23309 	-0.0645727 	0.000410568
1.29904 	0.271455 	-0.0628454 	0.000336422
1.29904 	0.271455 	-0.0628454 	0.000336422
1.33547 	0.318661 	-0.0613518 	0.000247609
1.3719 	0.365867 	-0.0598583 	0.000158796
1.41023 	0.425554 	-0.058622 	7.24551e-05
1.44855 	0.48524 	-0.0573857 	-1.38858e-05
1.48888 	0.56083 	-0.056134 	-7.60828e-05
1.5292 	0.63642 	-0.0548824 	-0.00013828
1.57163 	0.726859 	-0.0528628 	-0.00016101
1.61405 	0.817298 	-0.0508431 	-0.00018374
1.65869 	0.910364 	-0.0474114 	-0.000172324
1.70332 	1.00343 	-0.0439796 	-0.000160907
1.75028 	1.07574 	-0.0399811 	-0.000139716
1.79724 	1.14806 	-0.0359826 	-0.000118524
1.84664 	1.18374 	-0.0323296 	-0.000104887
1.89604 	1.21941 	-0.0286765 	-9.12499e-05
1.94802 	1.22539 	-0.0257046 	-8.46793e-05
2 	1.23138 	-0.0227327 	-7.81088e-05
