0 	0.00174149 	0 	-0.157995
0.00259889 	0.00251991 	1.30373e-05 	-0.15801
0.00519778 	0.00329832 	2.60746e-05 	-0.158026
0.00793204 	0.00550339 	9.72333e-05 	-0.158089
0.0106663 	0.00770847 	0.000168392 	-0.158153
0.013543 	0.0101663 	0.000335649 	-0.158294
0.0164197 	0.0126242 	0.000502906 	-0.158436
0.0194462 	0.0144244 	0.000750274 	-0.158659
0.0224727 	0.0162247 	0.000997643 	-0.158883
0.0256569 	0.0176173 	0.00130076 	-0.15916
0.028841 	0.01901 	0.00160389 	-0.159438
0.032191 	0.0201645 	0.00194864 	-0.159748
0.035541 	0.021319 	0.0022934 	-0.160058
0.0390655 	0.0223165 	0.00267061 	-0.160391
0.04259 	0.023314 	0.00304782 	-0.160724
0.0462981 	0.0241995 	0.00345103 	-0.161075
0.0500061 	0.025085 	0.00385424 	-0.161426
0.0539073 	0.0258857 	0.00427869 	-0.161791
0.0578085 	0.0266864 	0.00470314 	-0.162156
0.0619129 	0.0274201 	0.00514432 	-0.162532
0.0660173 	0.0281538 	0.0055855 	-0.162907
0.0703355 	0.0288327 	0.00603903 	-0.163289
0.0746537 	0.0295117 	0.00649256 	-0.163671
0.0791968 	0.0301447 	0.00695432 	-0.164056
0.0837399 	0.0307777 	0.00741608 	-0.164441
0.0885197 	0.0313715 	0.00788196 	-0.164826
0.0932994 	0.0319652 	0.00834783 	-0.165212
0.0983282 	0.0325245 	0.00881368 	-0.165594
0.103357 	0.0330839 	0.00927952 	-0.165976
0.108648 	0.0336129 	0.0097412 	-0.166352
0.113938 	0.0341418 	0.0102029 	-0.166729
0.119504 	0.0346435 	0.0106564 	-0.167097
0.12507 	0.0351452 	0.0111099 	-0.167465
0.130926 	0.035622 	0.0115514 	-0.167823
0.136783 	0.0360989 	0.0119929 	-0.16818
0.142944 	0.036553 	0.0124186 	-0.168525
0.149105 	0.037007 	0.0128444 	-0.168871
0.155587 	0.0374399 	0.0132505 	-0.169202
0.162069 	0.0378728 	0.0136567 	-0.169533
0.168888 	0.038286 	0.0140398 	-0.16985
0.175708 	0.0386992 	0.0144229 	-0.170167
0.182883 	0.0390938 	0.0147805 	-0.170468
0.190058 	0.0394883 	0.0151381 	-0.17077
0.197606 	0.0398653 	0.0154681 	-0.171056
0.205155 	0.0402423 	0.015798 	-0.171343
0.213097 	0.0406025 	0.0160985 	-0.171614
0.221039 	0.0409628 	0.016399 	-0.171886
0.229395 	0.0413071 	0.0166685 	-0.172143
0.23775 	0.0416515 	0.016938 	-0.1724
0.24654 	0.0419807 	0.0171759 	-0.172644
0.255331 	0.0423098 	0.0174138 	-0.172889
0.293289 	0.0435409 	0.0181779 	-0.173799
0.303526 	0.0438284 	0.0183238 	-0.174013
0.313763 	0.0441159 	0.0184696 	-0.174226
0.324533 	0.0443905 	0.0185874 	-0.174431
0.335303 	0.044665 	0.0187052 	-0.174636
0.346635 	0.0449267 	0.0187968 	-0.174832
0.357966 	0.0451885 	0.0188884 	-0.175029
0.369888 	0.0454374 	0.0189558 	-0.175217
0.381809 	0.0456864 	0.0190232 	-0.175404
0.394351 	0.0459222 	0.0190686 	-0.175584
0.406893 	0.0461581 	0.019114 	-0.175763
0.420089 	0.0463805 	0.0191395 	-0.175933
0.433285 	0.0466028 	0.019165 	-0.176104
0.447168 	0.0468109 	0.0191723 	-0.176264
0.461051 	0.047019 	0.0191797 	-0.176424
0.475657 	0.0472118 	0.0191705 	-0.176571
0.490263 	0.0474047 	0.0191613 	-0.176719
0.50563 	0.0475813 	0.0191367 	-0.176852
0.520997 	0.0477579 	0.0191121 	-0.176985
0.537164 	0.0479171 	0.0190729 	-0.1771
0.553331 	0.0480763 	0.0190336 	-0.177215
0.570341 	0.0482171 	0.01898 	-0.177309
0.58735 	0.0483579 	0.0189264 	-0.177402
0.605245 	0.0484793 	0.0188582 	-0.17747
0.623141 	0.0486008 	0.01879 	-0.177537
0.641968 	0.0487025 	0.0187067 	-0.177574
0.660796 	0.0488042 	0.0186235 	-0.177611
0.680604 	0.048886 	0.0185246 	-0.177612
0.700412 	0.0489678 	0.0184257 	-0.177613
0.721251 	0.0490304 	0.0183107 	-0.177575
0.742091 	0.0490929 	0.0181957 	-0.177536
0.764016 	0.0491378 	0.018064 	-0.177451
0.785942 	0.0491827 	0.0179324 	-0.177367
0.809009 	0.049212 	0.0177833 	-0.17723
0.832077 	0.0492414 	0.0176343 	-0.177093
0.856345 	0.0492582 	0.0174659 	-0.176896
0.880614 	0.049275 	0.0172974 	-0.176699
0.906147 	0.0492833 	0.0171057 	-0.176433
0.93168 	0.0492916 	0.0169139 	-0.176167
0.958542 	0.0492967 	0.0166931 	-0.175824
0.985405 	0.0493018 	0.0164722 	-0.175481
1.01367 	0.0493112 	0.0162152 	-0.17505
1.04193 	0.0493206 	0.0159582 	-0.174619
1.07166 	0.0493443 	0.0156585 	-0.174086
1.1014 	0.049368 	0.0153588 	-0.173553
1.13268 	0.049417 	0.015012 	-0.172898
1.16396 	0.049466 	0.0146651 	-0.172244
1.19687 	0.0495431 	0.0142678 	-0.17144
1.22979 	0.0496203 	0.0138705 	-0.170637
1.22979 	0.0496203 	0.0138705 	-0.170637
1.26442 	0.0496953 	0.01342 	-0.169643
1.29904 	0.0497704 	0.0129695 	-0.168649
1.33547 	0.0497242 	0.0124622 	-0.167399
1.3719 	0.049678 	0.0119549 	-0.166149
1.41023 	0.0491949 	0.0113792 	-0.164552
1.44855 	0.0487118 	0.0108035 	-0.162956
1.48888 	0.0470908 	0.0101191 	-0.1609
1.5292 	0.0454698 	0.00943463 	-0.158845
1.57163 	0.0417417 	0.00857891 	-0.156167
1.61405 	0.0380135 	0.0077232 	-0.15349
1.65869 	0.0321199 	0.00675539 	-0.149976
1.70332 	0.0262263 	0.00578759 	-0.146462
1.75028 	0.0203815 	0.00506827 	-0.142053
1.79724 	0.0145366 	0.00434896 	-0.137644
1.84664 	0.0112677 	0.00454644 	-0.13268
1.89604 	0.0079989 	0.00474393 	-0.127717
1.94802 	0.00699871 	0.00580375 	-0.122946
2 	0.00599851 	0.00686356 	-0.118176
