1 	0.00157371 	0 	-0.0798267
1 	0.00157371 	0 	-0.0798267
1.0013 	0.00157807 	1.4953e-06 	-0.0772407
1.0013 	0.00157807 	1.4953e-06 	-0.0772407
1.0026 	0.0015878 	2.96818e-06 	-0.0748113
1.0026 	0.0015878 	2.96818e-06 	-0.0748113
1.00396 	0.00220756 	1.36545e-05 	-0.0711719
1.00396 	0.00220756 	1.36545e-05 	-0.0711719
1.00533 	0.00288776 	2.44662e-05 	-0.0682614
1.00533 	0.00288776 	2.44662e-05 	-0.0682614
1.00677 	0.00398445 	5.47657e-05 	-0.0640398
1.00677 	0.00398445 	5.47657e-05 	-0.0640398
1.00821 	0.00530051 	8.73253e-05 	-0.0610303
1.00821 	0.00530051 	8.73253e-05 	-0.0610303
1.00972 	0.00624 	0.000135789 	-0.0569879
1.01124 	0.00745385 	0.000192768 	-0.0543399
1.01283 	0.00826821 	0.000251824 	-0.050653
1.01442 	0.00931334 	0.0003299 	-0.048426
1.01609 	0.0100521 	0.000396183 	-0.0448549
1.01777 	0.0110016 	0.000495241 	-0.0429531
1.01953 	0.0117207 	0.0005747 	-0.0397016
1.02129 	0.0125926 	0.000692152 	-0.0380057
1.02314 	0.0133173 	0.000790869 	-0.0352494
1.025 	0.0141307 	0.000924346 	-0.0336253
1.02695 	0.0148593 	0.00104535 	-0.031315
1.0289 	0.0156324 	0.0011945 	-0.0297058
1.03095 	0.0163602 	0.00134039 	-0.0278086
1.03301 	0.0171022 	0.00150509 	-0.0263327
1.03436 	0.0175496 	0.00161031 	-0.0254218
1.03572 	0.0179979 	0.0017232 	-0.0246721
1.03652 	0.0181837 	0.00177624 	-0.0248848
1.03733 	0.0183744 	0.00183037 	-0.0250848
1.0396 	0.0188479 	0.00198083 	-0.0258615
1.04187 	0.0193372 	0.00213583 	-0.0265231
1.04426 	0.019794 	0.00229468 	-0.0273759
1.04665 	0.0202735 	0.00246201 	-0.027933
1.04916 	0.0207172 	0.00262921 	-0.0288993
1.05168 	0.0211862 	0.00280897 	-0.0293777
1.05432 	0.0216179 	0.00298443 	-0.0304066
1.05697 	0.0220745 	0.00317646 	-0.0308057
1.05975 	0.0224979 	0.00336314 	-0.0317165
1.06254 	0.0229365 	0.00356365 	-0.0320449
1.06546 	0.0233498 	0.00376191 	-0.032777
1.06839 	0.0237701 	0.00396931 	-0.033061
1.07147 	0.0241706 	0.00417817 	-0.0335694
1.07455 	0.0245733 	0.00439171 	-0.0338239
1.07573 	0.024714 	0.00447059 	-0.0339803
1.07692 	0.024855 	0.0045505 	-0.0340726
1.07897 	0.0250944 	0.00468145 	-0.0340828
1.08103 	0.0253349 	0.00481314 	-0.0340898
1.08444 	0.0256958 	0.00502235 	-0.0341743
1.08785 	0.026059 	0.00523341 	-0.0342254
1.09144 	0.0264036 	0.00544441 	-0.034355
1.09503 	0.0267512 	0.00565815 	-0.0344038
1.0988 	0.027079 	0.00586966 	-0.034563
1.10258 	0.0274105 	0.00608448 	-0.034587
1.10655 	0.0277218 	0.00629579 	-0.0347223
1.11052 	0.0280357 	0.00650923 	-0.0347413
1.11469 	0.02833 	0.0067187 	-0.0348308
1.11887 	0.0286258 	0.00692912 	-0.0348465
1.12194 	0.0288183 	0.00707227 	-0.0348814
1.125 	0.0290114 	0.00721562 	-0.034887
1.12634 	0.0290952 	0.00727737 	-0.0349537
1.12767 	0.029179 	0.00733929 	-0.0350115
1.13229 	0.0294354 	0.00753657 	-0.0352351
1.13691 	0.0296921 	0.00773461 	-0.035417
1.14177 	0.0299278 	0.00792384 	-0.0356356
1.14664 	0.0301639 	0.00811427 	-0.0357766
1.15176 	0.0303777 	0.0082937 	-0.0359802
1.15688 	0.0305918 	0.0084746 	-0.0360725
1.16226 	0.0307821 	0.00864266 	-0.0362173
1.16765 	0.0309729 	0.00881156 	-0.0362906
1.17331 	0.0311394 	0.00896665 	-0.0363752
1.17898 	0.031306 	0.00912204 	-0.0364287
1.17898 	0.031306 	0.00912204 	-0.0364287
1.1804 	0.0313402 	0.00915559 	-0.0364402
1.18182 	0.0313744 	0.00918916 	-0.036448
1.18636 	0.0314839 	0.0092967 	-0.0364721
1.1909 	0.031593 	0.00940423 	-0.0364885
1.19718 	0.0317108 	0.00952943 	-0.0364943
1.20345 	0.031827 	0.00965431 	-0.0364878
1.21005 	0.0319119 	0.009761 	-0.0364473
1.21664 	0.0319933 	0.00986672 	-0.0364164
1.22358 	0.0320402 	0.00995319 	-0.0363226
1.23053 	0.0320831 	0.0100384 	-0.0362628
1.23783 	0.0320869 	0.0101035 	-0.0361479
1.24513 	0.0320876 	0.0101675 	-0.0360546
1.24757 	0.0320732 	0.010181 	-0.03601
1.25 	0.032058 	0.0101943 	-0.0359739
1.25525 	0.0320258 	0.0102231 	-0.0359387
1.2605 	0.0319913 	0.0102513 	-0.0359075
1.26858 	0.0318864 	0.0102693 	-0.0357973
1.27667 	0.0317742 	0.0102854 	-0.0357136
1.28517 	0.0316052 	0.0102775 	-0.0355513
1.29368 	0.0314223 	0.0102666 	-0.0354449
1.30262 	0.0311846 	0.0102324 	-0.0352633
1.31157 	0.0309354 	0.0101958 	-0.0351358
1.32098 	0.0306306 	0.0101361 	-0.0349343
1.3304 	0.0303203 	0.0100749 	-0.0347752
1.33187 	0.0302663 	0.0100625 	-0.0347384
1.33333 	0.0302118 	0.01005 	-0.034708
1.34177 	0.0298988 	0.00997819 	-0.0345093
1.35021 	0.0295828 	0.00990521 	-0.0343387
1.36063 	0.029158 	0.00979916 	-0.0340591
1.37105 	0.0287266 	0.00969042 	-0.0338517
1.38201 	0.0282393 	0.00956436 	-0.0335492
1.39297 	0.0277397 	0.00943417 	-0.0333429
1.4045 	0.0271768 	0.00928781 	-0.0330421
1.41604 	0.0266041 	0.00913878 	-0.0328064
1.42677 	0.0260335 	0.00899284 	-0.0325472
1.4375 	0.0254575 	0.00884567 	-0.0323213
1.4389 	0.0253823 	0.00882643 	-0.0322899
1.44031 	0.0253063 	0.00880703 	-0.032262
1.45307 	0.0245772 	0.00862511 	-0.0319587
1.46584 	0.0238401 	0.0084417 	-0.0316918
1.47927 	0.0230343 	0.00824519 	-0.0313659
1.4927 	0.022212 	0.00804601 	-0.0311145
1.50683 	0.0213357 	0.00783573 	-0.0307751
1.52096 	0.0204381 	0.00762231 	-0.0305234
1.53583 	0.0195021 	0.00739887 	-0.0301912
1.5507 	0.0185521 	0.0071735 	-0.029921
1.56107 	0.0179103 	0.00701922 	-0.0297117
1.57143 	0.0172626 	0.00686412 	-0.0295313
1.57671 	0.0169344 	0.00678531 	-0.0294285
1.58198 	0.0166032 	0.0067061 	-0.0293374
1.59843 	0.0156292 	0.00647244 	-0.0290087
1.61489 	0.0146431 	0.00623709 	-0.0287284
1.61489 	0.0146431 	0.00623709 	-0.0287284
1.6322 	0.0136944 	0.00601946 	-0.0283842
1.6322 	0.0136944 	0.00601946 	-0.0283842
1.64952 	0.0127247 	0.0057987 	-0.0281304
1.64952 	0.0127247 	0.0057987 	-0.0281304
1.66773 	0.0118287 	0.00562106 	-0.0277896
1.68595 	0.0109107 	0.0054397 	-0.0275536
1.70511 	0.0101032 	0.00533345 	-0.0272443
1.72428 	0.0092829 	0.0052247 	-0.0270005
1.73714 	0.00885417 	0.00522523 	-0.0268192
1.75 	0.00842107 	0.00522476 	-0.0266636
1.7573 	0.00817642 	0.00522475 	-0.026561
1.7646 	0.00792935 	0.00522421 	-0.026472
1.78581 	0.00742011 	0.00536075 	-0.0261873
1.80703 	0.00690363 	0.00549566 	-0.0259538
1.82934 	0.00655341 	0.00577825 	-0.0256721
1.85166 	0.00619432 	0.00605947 	-0.0254778
1.87514 	0.00596829 	0.00648085 	-0.0252172
1.89862 	0.00573551 	0.00690226 	-0.0250577
1.92332 	0.00559161 	0.00746634 	-0.0248467
1.94802 	0.00544491 	0.00802963 	-0.0246961
1.97401 	0.00534168 	0.00887161 	-0.024505
2 	0.0052374 	0.00971231 	-0.0243446
