0 	0.000189038 	0 	-0.0680144
0.00194917 	0.000192562 	3.27636e-07 	-0.0680141
0.00389834 	0.000194906 	6.80217e-07 	-0.068014
0.00594904 	0.000374345 	4.31661e-06 	-0.0680151
0.00799974 	0.000557958 	8.18609e-06 	-0.0680166
0.0101572 	0.000993482 	2.49665e-05 	-0.0680217
0.0123148 	0.00143962 	4.2686e-05 	-0.0680264
0.0145846 	0.00194337 	8.27433e-05 	-0.0680305
0.0168545 	0.00245555 	0.000124508 	-0.0680329
0.0192427 	0.0029129 	0.000188076 	-0.0680299
0.0216308 	0.00337525 	0.00025351 	-0.0680242
0.0241433 	0.00377682 	0.0003337 	-0.0680149
0.0266558 	0.00418149 	0.000415543 	-0.0680028
0.0292992 	0.0045403 	0.000506585 	-0.0679912
0.0319426 	0.00490139 	0.000599112 	-0.0679775
0.0347236 	0.00522933 	0.000697951 	-0.0679668
0.0375046 	0.0055593 	0.000798179 	-0.0679546
0.0404306 	0.00586482 	0.000903086 	-0.0679461
0.0433565 	0.00617235 	0.00100932 	-0.0679365
0.0464348 	0.00646141 	0.00111924 	-0.067931
0.0495131 	0.00675248 	0.00123043 	-0.0679246
0.0527517 	0.00702944 	0.00134459 	-0.0679226
0.0559904 	0.0073084 	0.00145992 	-0.0679199
0.0593977 	0.00757652 	0.00157763 	-0.0679216
0.0628051 	0.00784659 	0.00169639 	-0.0679231
0.0663899 	0.00810831 	0.00181703 	-0.0679283
0.0699747 	0.00837192 	0.0019386 	-0.0679334
0.0737462 	0.00862906 	0.0020616 	-0.0679429
0.0775178 	0.00888803 	0.00218539 	-0.0679524
0.0814857 	0.00914198 	0.00231015 	-0.0679665
0.0854537 	0.00939768 	0.00243554 	-0.0679811
0.0896284 	0.00964949 	0.00256144 	-0.0679995
0.093803 	0.00990296 	0.00268778 	-0.0680185
0.0981952 	0.0101534 	0.00281418 	-0.0680415
0.102587 	0.0104054 	0.00294081 	-0.0680653
0.107208 	0.010655 	0.00306701 	-0.0680933
0.111829 	0.010906 	0.00319324 	-0.0681222
0.116691 	0.0111551 	0.00331858 	-0.0681558
0.121552 	0.0114056 	0.00344373 	-0.0681903
0.126667 	0.0116543 	0.00356755 	-0.0682304
0.131781 	0.0119043 	0.00369097 	-0.0682713
0.137163 	0.0121528 	0.00381264 	-0.0683188
0.142544 	0.0124022 	0.00393365 	-0.0683669
0.148205 	0.0126501 	0.00405247 	-0.0684226
0.153867 	0.0128989 	0.00417038 	-0.0684787
0.159823 	0.0131459 	0.00428562 	-0.0685432
0.16578 	0.0133935 	0.00439973 	-0.0686079
0.172046 	0.013639 	0.00451076 	-0.0686822
0.178313 	0.0138849 	0.00462046 	-0.0687562
0.184906 	0.0141279 	0.00472667 	-0.0688413
0.191499 	0.0143712 	0.00483133 	-0.0689257
0.198435 	0.0146107 	0.00493206 	-0.0690231
0.205372 	0.0148501 	0.00503101 	-0.0691191
0.212669 	0.0150845 	0.00512552 	-0.0692301
0.219967 	0.0153185 	0.00521807 	-0.0693391
0.227645 	0.015546 	0.00530562 	-0.0694652
0.235322 	0.0157727 	0.00539105 	-0.0695885
0.2434 	0.0159909 	0.00547098 	-0.0697315
0.251478 	0.0162077 	0.00554866 	-0.0698707
0.259976 	0.0164138 	0.00562026 	-0.0700319
0.268475 	0.016618 	0.00568936 	-0.0701884
0.277416 	0.0168087 	0.00575143 	-0.0703695
0.286357 	0.0169969 	0.00581082 	-0.0705446
0.295764 	0.0171685 	0.0058622 	-0.0707477
0.30517 	0.017337 	0.00591089 	-0.0709436
0.315067 	0.0174854 	0.00595082 	-0.0711706
0.324964 	0.0176301 	0.00598807 	-0.0713889
0.335377 	0.0177509 	0.00601559 	-0.0716411
0.345789 	0.0178674 	0.0060404 	-0.0718831
0.356743 	0.0179543 	0.00605378 	-0.0721628
0.367698 	0.0180346 	0.00606376 	-0.0724305
0.379223 	0.0180694 	0.00605694 	-0.0727395
0.390749 	0.0180972 	0.00604678 	-0.0730342
0.402874 	0.0180845 	0.00602133 	-0.0733747
0.415 	0.0180677 	0.00599357 	-0.0736987
0.427756 	0.0180277 	0.00595603 	-0.0740725
0.440513 	0.0179844 	0.00591637 	-0.0744269
0.453935 	0.0179142 	0.00586516 	-0.0748324
0.467356 	0.0178409 	0.00581175 	-0.0752159
0.481477 	0.0177391 	0.00574527 	-0.0756521
0.495598 	0.0176359 	0.00567687 	-0.0760622
0.510454 	0.0175098 	0.00559588 	-0.0765257
0.52531 	0.0173855 	0.00551347 	-0.0769575
0.52531 	0.0173855 	0.00551347 	-0.0769575
0.54094 	0.0172479 	0.00541973 	-0.0774408
0.55657 	0.0171163 	0.00532509 	-0.0778872
0.573014 	0.0169844 	0.00522099 	-0.0783811
0.589458 	0.0168624 	0.00511617 	-0.0788343
0.606758 	0.0167509 	0.00500311 	-0.0793301
0.624058 	0.0166513 	0.00488863 	-0.0797822
0.64226 	0.0165652 	0.00476567 	-0.0802618
0.660461 	0.0164929 	0.00464053 	-0.0806956
0.679611 	0.0164337 	0.00450546 	-0.0811264
0.698761 	0.0163919 	0.00436768 	-0.0815085
0.718908 	0.0163626 	0.00421478 	-0.0818511
0.739056 	0.0163546 	0.00405863 	-0.0821431
0.760252 	0.0163703 	0.00387917 	-0.0823569
0.781448 	0.0164129 	0.0036985 	-0.0825168
0.803749 	0.0165158 	0.00349497 	-0.0824816
0.826049 	0.0166388 	0.00329739 	-0.082367
0.849512 	0.0168375 	0.003101 	-0.0819989
0.872974 	0.0170266 	0.00292292 	-0.0815554
0.897658 	0.0172838 	0.00279931 	-0.080557
0.922342 	0.0175148 	0.00270384 	-0.0794122
0.948312 	0.0179058 	0.00272019 	-0.0772956
0.974282 	0.0183032 	0.00277468 	-0.075051
1.00161 	0.0190702 	0.00301703 	-0.0720671
1.02893 	0.0198702 	0.00331294 	-0.069148
1.05767 	0.0210678 	0.0038856 	-0.0659628
1.08642 	0.0222383 	0.00450808 	-0.0629403
1.11666 	0.023454 	0.00539819 	-0.0599371
1.1469 	0.0245485 	0.00628775 	-0.0570809
1.17872 	0.0252783 	0.00720685 	-0.0543279
1.21054 	0.0258702 	0.00805123 	-0.0517224
1.24401 	0.0259895 	0.00859911 	-0.0488502
1.27749 	0.0259942 	0.00904994 	-0.0461245
1.31271 	0.0255077 	0.00912543 	-0.0440369
1.34793 	0.0249092 	0.00913339 	-0.0421197
1.38499 	0.0238326 	0.00889735 	-0.0429779
1.42204 	0.0226683 	0.00862613 	-0.0438378
1.46102 	0.021322 	0.00819403 	-0.0410362
1.5 	0.0199214 	0.00774123 	-0.0383134
1.51048 	0.0192344 	0.00755812 	-0.0367713
1.52096 	0.0185275 	0.00737053 	-0.0354281
1.53583 	0.0175342 	0.00711403 	-0.0334187
1.5507 	0.0165124 	0.00684988 	-0.0318688
1.56106 	0.0158205 	0.00667791 	-0.0307241
1.57143 	0.0151246 	0.00650422 	-0.0297664
1.5767 	0.0148591 	0.00645024 	-0.0296669
1.58198 	0.0145879 	0.00639243 	-0.0295627
1.59843 	0.0137995 	0.00624539 	-0.0292843
1.61489 	0.0129893 	0.00606962 	-0.0289741
1.6322 	0.012214 	0.00592447 	-0.0286911
1.64952 	0.0114201 	0.00574999 	-0.0283773
1.65168 	0.0113341 	0.00573606 	-0.0283461
1.65385 	0.0112459 	0.00571952 	-0.0283093
1.65385 	0.0112459 	0.00571952 	-0.0283093
1.6699 	0.0105783 	0.00559089 	-0.0277957
1.68595 	0.00989419 	0.00545805 	-0.027323
1.70511 	0.00922199 	0.00538556 	-0.0267905
1.72428 	0.00852264 	0.0053058 	-0.026338
1.73714 	0.00816678 	0.0053258 	-0.0260592
1.75 	0.00780199 	0.00534341 	-0.0258092
1.7573 	0.00759936 	0.00535454 	-0.025661
1.7646 	0.00739115 	0.00536384 	-0.0255124
1.78581 	0.00697436 	0.00552566 	-0.0251414
1.80703 	0.00654058 	0.00568137 	-0.0247542
1.82934 	0.00625062 	0.00597947 	-0.0244162
1.85166 	0.00595001 	0.00627294 	-0.0240606
1.85765 	0.00590207 	0.00638238 	-0.0239844
1.86364 	0.00585272 	0.00649123 	-0.0239042
1.88113 	0.00571042 	0.006811 	-0.0236443
1.89862 	0.00556424 	0.00712929 	-0.023383
1.92332 	0.00544365 	0.0076986 	-0.0230667
1.94802 	0.00531743 	0.00826735 	-0.0227412
1.97401 	0.00523019 	0.00911687 	-0.0224629
2 	0.00514077 	0.00996766 	-0.0221691
