# Force coefficients
# liftDir     : (0.000000e+00 0.000000e+00 1.000000e+00)
# dragDir     : (1.000000e+00 0.000000e+00 0.000000e+00)
# pitchAxis   : (0.000000e+00 1.000000e+00 0.000000e+00)
# magUInf     : 1.000000e+00
# lRef        : 1.000000e+00
# Aref        : 1.000000e+00
# CofR        : (7.500000e+00 0.000000e+00 0.000000e+00)
#
# Time        	Cm            	Cd            	Cl            	Cl(f)         	Cl(r)         
1             	2.475909e-04	8.722317e-01	2.857995e-04	3.904907e-04	-1.046912e-04
2             	4.482460e-04	1.441526e+00	3.149794e-03	2.023143e-03	1.126651e-03
3             	3.191963e-04	1.974368e+00	5.024421e-03	2.831407e-03	2.193014e-03
4             	-3.172293e-04	2.165516e+00	5.154000e-03	2.259771e-03	2.894229e-03
5             	-8.479058e-04	2.054029e+00	3.708373e-03	1.006281e-03	2.702092e-03
6             	-1.175440e-03	1.786288e+00	2.606481e-03	1.278006e-04	2.478680e-03
7             	-1.141885e-03	1.496618e+00	3.217944e-03	4.670869e-04	2.750857e-03
8             	-8.238185e-04	1.279031e+00	5.671898e-03	2.012130e-03	3.659767e-03
9             	-4.332859e-04	1.166059e+00	9.256688e-03	4.195058e-03	5.061630e-03
10            	-1.111363e-04	1.140365e+00	1.299159e-02	6.384658e-03	6.606930e-03
11            	1.131426e-04	1.163579e+00	1.608865e-02	8.157468e-03	7.931183e-03
12            	1.982634e-04	1.201102e+00	1.853476e-02	9.465644e-03	9.069117e-03
13            	1.193299e-04	1.228877e+00	2.045833e-02	1.034849e-02	1.010983e-02
14            	-6.269716e-05	1.234031e+00	2.254180e-02	1.120820e-02	1.133360e-02
15            	-3.754986e-04	1.219185e+00	2.583290e-02	1.254095e-02	1.329195e-02
16            	-7.907350e-04	1.191322e+00	3.116775e-02	1.479314e-02	1.637461e-02
17            	-1.300040e-03	1.156174e+00	3.865883e-02	1.802938e-02	2.062946e-02
18            	-1.958866e-03	1.120782e+00	4.824708e-02	2.216467e-02	2.608240e-02
19            	-2.775355e-03	1.093263e+00	5.981583e-02	2.713256e-02	3.268327e-02
20            	-3.767822e-03	1.075899e+00	7.288660e-02	3.267548e-02	4.021112e-02
21            	-4.962260e-03	1.068342e+00	8.682200e-02	3.844874e-02	4.837326e-02
22            	-6.408117e-03	1.066483e+00	1.007881e-01	4.398595e-02	5.680219e-02
23            	-8.134249e-03	1.067893e+00	1.141925e-01	4.896199e-02	6.523049e-02
24            	-1.019654e-02	1.069360e+00	1.270566e-01	5.333175e-02	7.372483e-02
25            	-1.262676e-02	1.068582e+00	1.397163e-01	5.723138e-02	8.248490e-02
26            	-1.539163e-02	1.065926e+00	1.524220e-01	6.081935e-02	9.160261e-02
27            	-1.834577e-02	1.062472e+00	1.653985e-01	6.435349e-02	1.010450e-01
28            	-2.126428e-02	1.059024e+00	1.791768e-01	6.832413e-02	1.108527e-01
29            	-2.421245e-02	1.056410e+00	1.934270e-01	7.250105e-02	1.209259e-01
30            	-2.695803e-02	1.054414e+00	2.088802e-01	7.748205e-02	1.313981e-01
31            	-2.951408e-02	1.052815e+00	2.256344e-01	8.330314e-02	1.423313e-01
32            	-3.174112e-02	1.051303e+00	2.443379e-01	9.042784e-02	1.539101e-01
33            	-3.371766e-02	1.050025e+00	2.649124e-01	9.873852e-02	1.661738e-01
34            	-3.541687e-02	1.049372e+00	2.874738e-01	1.083200e-01	1.791538e-01
35            	-3.686046e-02	1.049550e+00	3.119976e-01	1.191384e-01	1.928593e-01
36            	-3.803852e-02	1.050653e+00	3.377992e-01	1.308611e-01	2.069381e-01
37            	-3.890019e-02	1.052712e+00	3.641469e-01	1.431733e-01	2.209736e-01
38            	-3.958275e-02	1.054986e+00	3.916729e-01	1.562537e-01	2.354192e-01
39            	-4.031090e-02	1.057638e+00	4.200791e-01	1.697287e-01	2.503505e-01
40            	-4.120188e-02	1.060820e+00	4.490322e-01	1.833142e-01	2.657180e-01
41            	-4.231456e-02	1.064602e+00	4.778625e-01	1.966167e-01	2.812458e-01
42            	-4.366503e-02	1.068672e+00	5.058645e-01	2.092672e-01	2.965973e-01
43            	-4.520406e-02	1.072873e+00	5.324087e-01	2.210003e-01	3.114084e-01
44            	-4.695588e-02	1.076803e+00	5.570836e-01	2.315859e-01	3.254977e-01
45            	-4.878961e-02	1.079863e+00	5.793563e-01	2.408885e-01	3.384677e-01
46            	-5.038871e-02	1.081335e+00	5.990131e-01	2.491179e-01	3.498953e-01
47            	-5.148712e-02	1.080515e+00	6.156960e-01	2.563609e-01	3.593351e-01
48            	-5.218641e-02	1.077702e+00	6.287777e-01	2.622024e-01	3.665753e-01
49            	-5.283689e-02	1.073145e+00	6.387778e-01	2.665520e-01	3.722258e-01
50            	-5.380380e-02	1.067829e+00	6.463722e-01	2.693823e-01	3.769899e-01
51            	-5.518582e-02	1.062626e+00	6.517581e-01	2.706933e-01	3.810649e-01
52            	-5.666175e-02	1.057878e+00	6.550299e-01	2.708532e-01	3.841767e-01
53            	-5.790290e-02	1.053545e+00	6.564137e-01	2.703040e-01	3.861098e-01
54            	-5.866446e-02	1.049549e+00	6.557641e-01	2.692176e-01	3.865465e-01
55            	-5.894830e-02	1.046115e+00	6.533760e-01	2.677397e-01	3.856363e-01
56            	-5.875288e-02	1.042749e+00	6.502488e-01	2.663715e-01	3.838773e-01
57            	-5.838892e-02	1.039592e+00	6.468422e-01	2.650322e-01	3.818100e-01
58            	-5.816227e-02	1.036480e+00	6.431344e-01	2.634049e-01	3.797295e-01
59            	-5.806870e-02	1.032819e+00	6.395878e-01	2.617252e-01	3.778626e-01
60            	-5.823448e-02	1.028542e+00	6.366240e-01	2.600775e-01	3.765465e-01
61            	-5.868880e-02	1.023652e+00	6.344767e-01	2.585496e-01	3.759272e-01
62            	-5.943513e-02	1.018206e+00	6.331229e-01	2.571263e-01	3.759966e-01
63            	-6.042607e-02	1.012046e+00	6.326011e-01	2.558745e-01	3.767266e-01
64            	-6.165577e-02	1.005208e+00	6.326449e-01	2.546667e-01	3.779782e-01
65            	-6.301569e-02	9.976076e-01	6.329586e-01	2.534636e-01	3.794950e-01
66            	-6.437733e-02	9.889994e-01	6.329322e-01	2.520888e-01	3.808434e-01
67            	-6.565137e-02	9.791407e-01	6.327268e-01	2.507121e-01	3.820148e-01
68            	-6.674837e-02	9.677483e-01	6.328057e-01	2.496545e-01	3.831512e-01
69            	-6.765049e-02	9.546932e-01	6.329864e-01	2.488427e-01	3.841437e-01
70            	-6.834417e-02	9.401000e-01	6.332050e-01	2.482583e-01	3.849467e-01
71            	-6.881477e-02	9.237464e-01	6.335677e-01	2.479691e-01	3.855986e-01
72            	-6.905238e-02	9.051828e-01	6.340739e-01	2.479846e-01	3.860894e-01
73            	-6.909326e-02	8.850846e-01	6.350241e-01	2.484188e-01	3.866053e-01
74            	-6.902872e-02	8.650643e-01	6.371598e-01	2.495512e-01	3.876086e-01
75            	-6.897251e-02	8.455529e-01	6.405791e-01	2.513170e-01	3.892621e-01
76            	-6.902672e-02	8.270258e-01	6.446522e-01	2.532994e-01	3.913528e-01
77            	-6.919860e-02	8.097695e-01	6.488173e-01	2.552101e-01	3.936073e-01
78            	-6.950984e-02	7.941675e-01	6.525924e-01	2.567864e-01	3.958061e-01
79            	-7.000546e-02	7.799321e-01	6.552423e-01	2.576157e-01	3.976266e-01
80            	-7.064646e-02	7.664872e-01	6.556105e-01	2.571588e-01	3.984517e-01
81            	-7.143034e-02	7.540614e-01	6.530102e-01	2.550747e-01	3.979354e-01
82            	-7.242449e-02	7.438472e-01	6.471862e-01	2.511686e-01	3.960176e-01
83            	-7.368981e-02	7.372244e-01	6.379366e-01	2.452785e-01	3.926581e-01
84            	-7.527758e-02	7.352211e-01	6.257957e-01	2.376203e-01	3.881754e-01
85            	-7.721155e-02	7.386917e-01	6.112704e-01	2.284236e-01	3.828467e-01
86            	-7.955595e-02	7.483138e-01	5.950553e-01	2.179717e-01	3.770836e-01
87            	-8.234237e-02	7.645320e-01	5.778876e-01	2.066014e-01	3.712862e-01
88            	-8.550063e-02	7.865414e-01	5.603664e-01	1.946826e-01	3.656838e-01
89            	-8.884741e-02	8.123261e-01	5.426135e-01	1.824594e-01	3.601542e-01
90            	-9.213866e-02	8.400018e-01	5.253083e-01	1.705155e-01	3.547928e-01
91            	-9.515898e-02	8.690315e-01	5.097821e-01	1.597321e-01	3.500500e-01
92            	-9.780957e-02	8.989724e-01	4.972082e-01	1.507945e-01	3.464137e-01
93            	-9.997643e-02	9.289659e-01	4.884048e-01	1.442260e-01	3.441788e-01
94            	-1.014269e-01	9.582306e-01	4.836824e-01	1.404143e-01	3.432681e-01
95            	-1.019890e-01	9.865020e-01	4.823615e-01	1.391918e-01	3.431698e-01
96            	-1.016797e-01	1.013668e+00	4.833320e-01	1.399862e-01	3.433457e-01
97            	-1.006016e-01	1.039346e+00	4.858987e-01	1.423478e-01	3.435509e-01
98            	-9.881747e-02	1.062995e+00	4.897984e-01	1.460817e-01	3.437167e-01
99            	-9.643269e-02	1.084215e+00	4.948868e-01	1.510107e-01	3.438761e-01
100           	-9.353062e-02	1.102658e+00	5.010522e-01	1.569955e-01	3.440567e-01
101           	-9.020066e-02	1.118096e+00	5.082451e-01	1.639219e-01	3.443232e-01
102           	-8.657708e-02	1.130404e+00	5.165271e-01	1.716865e-01	3.448406e-01
103           	-8.283428e-02	1.139612e+00	5.259172e-01	1.801243e-01	3.457929e-01
104           	-7.919030e-02	1.145823e+00	5.362383e-01	1.889289e-01	3.473095e-01
105           	-7.584632e-02	1.149334e+00	5.472078e-01	1.977576e-01	3.494502e-01
106           	-7.296952e-02	1.150506e+00	5.587080e-01	2.063845e-01	3.523235e-01
107           	-7.070918e-02	1.149801e+00	5.705484e-01	2.145650e-01	3.559834e-01
108           	-6.914484e-02	1.147727e+00	5.825495e-01	2.221299e-01	3.604196e-01
109           	-6.822587e-02	1.144877e+00	5.947725e-01	2.291604e-01	3.656121e-01
110           	-6.790060e-02	1.141819e+00	6.070377e-01	2.356183e-01	3.714195e-01
111           	-6.809161e-02	1.138885e+00	6.191200e-01	2.414684e-01	3.776516e-01
112           	-6.868080e-02	1.136388e+00	6.307828e-01	2.467106e-01	3.840722e-01
113           	-6.953439e-02	1.134551e+00	6.419804e-01	2.514558e-01	3.905246e-01
114           	-7.057318e-02	1.133592e+00	6.527011e-01	2.557773e-01	3.969237e-01
115           	-7.172060e-02	1.133523e+00	6.630337e-01	2.597962e-01	4.032374e-01
116           	-7.293106e-02	1.134181e+00	6.731577e-01	2.636478e-01	4.095099e-01
117           	-7.420256e-02	1.135397e+00	6.830809e-01	2.673379e-01	4.157430e-01
118           	-7.553294e-02	1.137091e+00	6.927052e-01	2.708197e-01	4.218856e-01
119           	-7.693010e-02	1.139206e+00	7.018213e-01	2.739806e-01	4.278408e-01
120           	-7.839887e-02	1.141784e+00	7.101811e-01	2.766917e-01	4.334894e-01
121           	-7.991976e-02	1.144991e+00	7.175760e-01	2.788682e-01	4.387078e-01
122           	-8.148952e-02	1.148841e+00	7.237369e-01	2.803789e-01	4.433580e-01
123           	-8.306042e-02	1.153432e+00	7.285244e-01	2.812018e-01	4.473226e-01
124           	-8.460272e-02	1.158799e+00	7.317048e-01	2.812497e-01	4.504551e-01
125           	-8.604160e-02	1.164958e+00	7.332427e-01	2.805797e-01	4.526629e-01
126           	-8.731734e-02	1.171794e+00	7.331378e-01	2.792515e-01	4.538862e-01
127           	-8.837736e-02	1.179199e+00	7.313894e-01	2.773173e-01	4.540720e-01
128           	-8.920048e-02	1.187130e+00	7.280238e-01	2.748114e-01	4.532124e-01
129           	-8.980685e-02	1.195491e+00	7.229622e-01	2.716742e-01	4.512879e-01
130           	-9.019027e-02	1.204145e+00	7.162885e-01	2.679540e-01	4.483345e-01
131           	-9.035349e-02	1.213051e+00	7.082092e-01	2.637511e-01	4.444581e-01
132           	-9.031696e-02	1.222148e+00	6.989621e-01	2.591641e-01	4.397980e-01
133           	-9.010903e-02	1.231374e+00	6.887421e-01	2.542620e-01	4.344801e-01
134           	-8.976215e-02	1.240626e+00	6.777729e-01	2.491243e-01	4.286486e-01
135           	-8.930317e-02	1.249807e+00	6.662342e-01	2.438139e-01	4.224203e-01
136           	-8.875598e-02	1.258781e+00	6.543035e-01	2.383958e-01	4.159078e-01
137           	-8.815152e-02	1.267446e+00	6.420806e-01	2.328888e-01	4.091918e-01
138           	-8.753260e-02	1.275710e+00	6.297155e-01	2.273251e-01	4.023904e-01
139           	-8.693756e-02	1.283570e+00	6.174464e-01	2.217856e-01	3.956607e-01
140           	-8.639829e-02	1.291003e+00	6.056275e-01	2.164155e-01	3.892120e-01
141           	-8.597527e-02	1.298078e+00	5.943188e-01	2.111841e-01	3.831347e-01
142           	-8.571347e-02	1.304720e+00	5.835534e-01	2.060632e-01	3.774902e-01
143           	-8.562013e-02	1.310916e+00	5.734428e-01	2.011013e-01	3.723415e-01
144           	-8.567624e-02	1.316662e+00	5.640405e-01	1.963440e-01	3.676965e-01
145           	-8.584450e-02	1.321971e+00	5.552571e-01	1.917841e-01	3.634731e-01
146           	-8.608838e-02	1.326883e+00	5.469971e-01	1.874102e-01	3.595869e-01
147           	-8.637851e-02	1.331430e+00	5.392600e-01	1.832515e-01	3.560085e-01
148           	-8.668285e-02	1.335633e+00	5.321364e-01	1.793854e-01	3.527511e-01
149           	-8.699154e-02	1.339498e+00	5.256234e-01	1.758202e-01	3.498032e-01
150           	-8.729674e-02	1.343063e+00	5.195866e-01	1.724966e-01	3.470901e-01
151           	-8.756750e-02	1.346381e+00	5.138646e-01	1.693648e-01	3.444998e-01
152           	-8.778692e-02	1.349497e+00	5.082813e-01	1.663537e-01	3.419276e-01
153           	-8.794536e-02	1.352391e+00	5.027565e-01	1.634329e-01	3.393236e-01
154           	-8.805375e-02	1.355082e+00	4.972269e-01	1.605597e-01	3.366672e-01
155           	-8.811212e-02	1.357514e+00	4.916865e-01	1.577312e-01	3.339554e-01
156           	-8.811210e-02	1.359727e+00	4.860955e-01	1.549357e-01	3.311599e-01
157           	-8.806420e-02	1.361662e+00	4.805853e-01	1.522284e-01	3.283568e-01
158           	-8.798227e-02	1.363290e+00	4.752727e-01	1.496541e-01	3.256186e-01
159           	-8.788388e-02	1.364563e+00	4.702405e-01	1.472364e-01	3.230041e-01
160           	-8.778192e-02	1.365401e+00	4.655125e-01	1.449743e-01	3.205382e-01
161           	-8.767576e-02	1.365777e+00	4.610715e-01	1.428600e-01	3.182115e-01
162           	-8.756958e-02	1.365676e+00	4.568385e-01	1.408497e-01	3.159888e-01
163           	-8.746000e-02	1.365142e+00	4.528100e-01	1.389450e-01	3.138650e-01
164           	-8.735745e-02	1.364261e+00	4.490411e-01	1.371631e-01	3.118780e-01
165           	-8.726175e-02	1.363088e+00	4.456145e-01	1.355455e-01	3.100690e-01
166           	-8.716959e-02	1.361617e+00	4.425075e-01	1.340842e-01	3.084234e-01
167           	-8.707062e-02	1.359878e+00	4.396727e-01	1.327658e-01	3.069070e-01
168           	-8.695539e-02	1.357925e+00	4.370583e-01	1.315737e-01	3.054845e-01
169           	-8.681440e-02	1.355780e+00	4.346649e-01	1.305181e-01	3.041469e-01
170           	-8.664167e-02	1.353445e+00	4.325023e-01	1.296095e-01	3.028928e-01
171           	-8.644290e-02	1.350947e+00	4.305869e-01	1.288506e-01	3.017364e-01
172           	-8.622716e-02	1.348288e+00	4.289516e-01	1.282487e-01	3.007030e-01
173           	-8.600787e-02	1.345476e+00	4.276113e-01	1.277978e-01	2.998135e-01
174           	-8.579029e-02	1.342547e+00	4.265920e-01	1.275057e-01	2.990863e-01
175           	-8.558067e-02	1.339532e+00	4.259296e-01	1.273842e-01	2.985455e-01
176           	-8.539137e-02	1.336436e+00	4.256343e-01	1.274258e-01	2.982085e-01
177           	-8.523704e-02	1.333254e+00	4.256803e-01	1.276031e-01	2.980772e-01
178           	-8.511575e-02	1.329971e+00	4.260709e-01	1.279197e-01	2.981512e-01
179           	-8.502808e-02	1.326597e+00	4.267865e-01	1.283652e-01	2.984213e-01
180           	-8.498124e-02	1.323141e+00	4.277900e-01	1.289138e-01	2.988762e-01
181           	-8.496722e-02	1.319610e+00	4.290445e-01	1.295550e-01	2.994895e-01
182           	-8.497072e-02	1.316020e+00	4.305211e-01	1.302898e-01	3.002313e-01
183           	-8.499131e-02	1.312379e+00	4.321612e-01	1.310893e-01	3.010719e-01
184           	-8.503004e-02	1.308681e+00	4.339286e-01	1.319342e-01	3.019943e-01
185           	-8.507580e-02	1.304947e+00	4.358313e-01	1.328398e-01	3.029914e-01
186           	-8.511574e-02	1.301206e+00	4.378407e-01	1.338046e-01	3.040361e-01
187           	-8.514620e-02	1.297462e+00	4.399121e-01	1.348099e-01	3.051023e-01
188           	-8.516211e-02	1.293741e+00	4.420186e-01	1.358472e-01	3.061714e-01
189           	-8.516042e-02	1.290070e+00	4.441536e-01	1.369164e-01	3.072372e-01
190           	-8.513835e-02	1.286467e+00	4.462937e-01	1.380085e-01	3.082852e-01
191           	-8.509461e-02	1.282953e+00	4.484314e-01	1.391211e-01	3.093103e-01
192           	-8.503699e-02	1.279570e+00	4.505451e-01	1.402356e-01	3.103096e-01
193           	-8.496432e-02	1.276336e+00	4.526171e-01	1.413442e-01	3.112729e-01
194           	-8.487746e-02	1.273279e+00	4.546521e-01	1.424486e-01	3.122035e-01
195           	-8.478411e-02	1.270391e+00	4.566605e-01	1.435461e-01	3.131143e-01
196           	-8.468909e-02	1.267714e+00	4.586069e-01	1.446144e-01	3.139926e-01
197           	-8.459333e-02	1.265254e+00	4.605018e-01	1.456576e-01	3.148442e-01
198           	-8.450149e-02	1.263009e+00	4.623557e-01	1.466764e-01	3.156794e-01
199           	-8.441914e-02	1.261009e+00	4.641652e-01	1.476635e-01	3.165017e-01
200           	-8.434560e-02	1.259266e+00	4.659303e-01	1.486195e-01	3.173107e-01
201           	-8.429398e-02	1.257799e+00	4.676202e-01	1.495161e-01	3.181041e-01
202           	-8.426647e-02	1.256616e+00	4.692104e-01	1.503387e-01	3.188717e-01
203           	-8.426169e-02	1.255688e+00	4.706685e-01	1.510726e-01	3.195960e-01
204           	-8.427729e-02	1.255032e+00	4.719764e-01	1.517109e-01	3.202655e-01
205           	-8.431312e-02	1.254614e+00	4.731470e-01	1.522604e-01	3.208866e-01
206           	-8.437521e-02	1.254442e+00	4.741257e-01	1.526876e-01	3.214380e-01
207           	-8.446995e-02	1.254497e+00	4.748904e-01	1.529752e-01	3.219152e-01
208           	-8.459607e-02	1.254804e+00	4.754173e-01	1.531126e-01	3.223047e-01
209           	-8.474926e-02	1.255323e+00	4.757205e-01	1.531110e-01	3.226095e-01
210           	-8.493037e-02	1.256024e+00	4.757912e-01	1.529652e-01	3.228260e-01
211           	-8.513757e-02	1.256895e+00	4.756148e-01	1.526698e-01	3.229450e-01
212           	-8.537245e-02	1.257912e+00	4.751598e-01	1.522075e-01	3.229524e-01
213           	-8.563164e-02	1.259098e+00	4.743835e-01	1.515601e-01	3.228234e-01
214           	-8.590739e-02	1.260405e+00	4.732495e-01	1.507173e-01	3.225321e-01
215           	-8.619603e-02	1.261780e+00	4.717678e-01	1.496879e-01	3.220799e-01
216           	-8.649625e-02	1.263194e+00	4.699724e-01	1.484900e-01	3.214825e-01
217           	-8.680426e-02	1.264592e+00	4.679010e-01	1.471463e-01	3.207548e-01
218           	-8.711716e-02	1.265940e+00	4.655559e-01	1.456608e-01	3.198951e-01
219           	-8.743159e-02	1.267194e+00	4.629744e-01	1.440556e-01	3.189188e-01
220           	-8.774748e-02	1.268329e+00	4.601627e-01	1.423338e-01	3.178288e-01
221           	-8.806347e-02	1.269347e+00	4.571319e-01	1.405025e-01	3.166294e-01
222           	-8.837873e-02	1.270276e+00	4.538812e-01	1.385619e-01	3.153193e-01
223           	-8.869063e-02	1.271132e+00	4.504157e-01	1.365172e-01	3.138985e-01
224           	-8.899532e-02	1.271932e+00	4.467565e-01	1.343829e-01	3.123736e-01
225           	-8.929060e-02	1.272691e+00	4.429253e-01	1.321721e-01	3.107533e-01
226           	-8.957503e-02	1.273440e+00	4.389475e-01	1.298987e-01	3.090488e-01
227           	-8.984829e-02	1.274241e+00	4.348502e-01	1.275768e-01	3.072734e-01
228           	-9.011487e-02	1.275136e+00	4.306616e-01	1.252159e-01	3.054457e-01
229           	-9.037653e-02	1.276114e+00	4.264035e-01	1.228252e-01	3.035783e-01
230           	-9.063422e-02	1.277139e+00	4.220793e-01	1.204054e-01	3.016739e-01
231           	-9.088667e-02	1.278216e+00	4.177388e-01	1.179827e-01	2.997561e-01
232           	-9.113616e-02	1.279362e+00	4.134214e-01	1.155745e-01	2.978469e-01
233           	-9.138052e-02	1.280561e+00	4.091351e-01	1.131870e-01	2.959481e-01
234           	-9.161945e-02	1.281807e+00	4.049072e-01	1.108342e-01	2.940731e-01
235           	-9.185389e-02	1.283080e+00	4.007827e-01	1.085375e-01	2.922453e-01
236           	-9.208224e-02	1.284352e+00	3.967705e-01	1.063030e-01	2.904675e-01
237           	-9.230155e-02	1.285607e+00	3.928872e-01	1.041421e-01	2.887452e-01
238           	-9.251181e-02	1.286821e+00	3.891732e-01	1.020748e-01	2.870984e-01
239           	-9.271110e-02	1.287927e+00	3.856543e-01	1.001160e-01	2.855382e-01
240           	-9.290058e-02	1.288900e+00	3.823470e-01	9.827291e-02	2.840741e-01
241           	-9.308343e-02	1.289754e+00	3.792520e-01	9.654255e-02	2.827094e-01
242           	-9.325848e-02	1.290458e+00	3.763609e-01	9.492197e-02	2.814389e-01
243           	-9.342177e-02	1.290986e+00	3.736833e-01	9.341990e-02	2.802634e-01
244           	-9.357272e-02	1.291395e+00	3.711972e-01	9.202590e-02	2.791713e-01
245           	-9.371289e-02	1.291697e+00	3.688982e-01	9.073620e-02	2.781620e-01
246           	-9.384106e-02	1.291864e+00	3.667916e-01	8.955473e-02	2.772369e-01
247           	-9.395256e-02	1.291920e+00	3.648772e-01	8.848602e-02	2.763911e-01
248           	-9.404930e-02	1.291853e+00	3.631734e-01	8.753740e-02	2.756360e-01
249           	-9.413007e-02	1.291642e+00	3.617018e-01	8.672084e-02	2.749810e-01
250           	-9.419155e-02	1.291259e+00	3.604590e-01	8.603796e-02	2.744211e-01
251           	-9.423255e-02	1.290711e+00	3.594599e-01	8.549741e-02	2.739625e-01
252           	-9.425775e-02	1.290049e+00	3.586929e-01	8.508868e-02	2.736042e-01
253           	-9.426745e-02	1.289314e+00	3.581423e-01	8.480370e-02	2.733386e-01
254           	-9.426020e-02	1.288525e+00	3.577954e-01	8.463748e-02	2.731579e-01
255           	-9.423851e-02	1.287723e+00	3.576451e-01	8.458402e-02	2.730610e-01
256           	-9.420612e-02	1.286939e+00	3.576572e-01	8.462250e-02	2.730347e-01
257           	-9.415969e-02	1.286108e+00	3.578133e-01	8.474697e-02	2.730663e-01
258           	-9.409919e-02	1.285170e+00	3.581417e-01	8.497169e-02	2.731701e-01
259           	-9.402760e-02	1.284046e+00	3.586608e-01	8.530281e-02	2.733580e-01
260           	-9.395226e-02	1.282666e+00	3.593703e-01	8.573292e-02	2.736374e-01
261           	-9.387502e-02	1.280976e+00	3.602759e-01	8.626293e-02	2.740130e-01
262           	-9.379515e-02	1.278962e+00	3.613805e-01	8.689508e-02	2.744854e-01
263           	-9.371791e-02	1.276689e+00	3.626809e-01	8.762256e-02	2.750584e-01
264           	-9.364469e-02	1.274223e+00	3.641597e-01	8.843517e-02	2.757246e-01
265           	-9.357376e-02	1.271641e+00	3.657961e-01	8.932430e-02	2.764718e-01
266           	-9.350423e-02	1.268987e+00	3.675494e-01	9.027045e-02	2.772789e-01
267           	-9.343322e-02	1.266286e+00	3.693857e-01	9.125964e-02	2.781261e-01
268           	-9.335821e-02	1.263598e+00	3.712880e-01	9.228580e-02	2.790022e-01
269           	-9.328180e-02	1.260934e+00	3.732443e-01	9.334035e-02	2.799039e-01
270           	-9.320569e-02	1.258279e+00	3.752292e-01	9.440893e-02	2.808203e-01
271           	-9.312693e-02	1.255640e+00	3.772244e-01	9.548526e-02	2.817391e-01
272           	-9.304077e-02	1.253046e+00	3.792128e-01	9.656564e-02	2.826472e-01
273           	-9.294593e-02	1.250495e+00	3.811814e-01	9.764475e-02	2.835366e-01
274           	-9.284519e-02	1.247984e+00	3.831396e-01	9.872460e-02	2.844150e-01
275           	-9.274143e-02	1.245522e+00	3.850781e-01	9.979759e-02	2.852805e-01
276           	-9.263592e-02	1.243143e+00	3.869853e-01	1.008567e-01	2.861285e-01
277           	-9.252997e-02	1.240879e+00	3.888407e-01	1.018904e-01	2.869503e-01
278           	-9.242364e-02	1.238739e+00	3.906210e-01	1.028869e-01	2.877341e-01
279           	-9.231713e-02	1.236720e+00	3.923111e-01	1.038384e-01	2.884727e-01
280           	-9.221461e-02	1.234820e+00	3.939051e-01	1.047380e-01	2.891672e-01
281           	-9.211889e-02	1.233015e+00	3.953945e-01	1.055783e-01	2.898161e-01
282           	-9.202780e-02	1.231294e+00	3.967783e-01	1.063613e-01	2.904169e-01
283           	-9.194398e-02	1.229664e+00	3.980648e-01	1.070884e-01	2.909764e-01
284           	-9.186765e-02	1.228120e+00	3.992397e-01	1.077522e-01	2.914875e-01
285           	-9.179847e-02	1.226657e+00	4.002893e-01	1.083462e-01	2.919431e-01
286           	-9.174091e-02	1.225299e+00	4.012095e-01	1.088638e-01	2.923456e-01
287           	-9.169234e-02	1.224029e+00	4.019889e-01	1.093021e-01	2.926868e-01
288           	-9.165212e-02	1.222827e+00	4.026243e-01	1.096600e-01	2.929643e-01
289           	-9.162119e-02	1.221701e+00	4.031160e-01	1.099368e-01	2.931792e-01
290           	-9.159594e-02	1.220641e+00	4.034877e-01	1.101479e-01	2.933398e-01
291           	-9.157613e-02	1.219652e+00	4.037589e-01	1.103033e-01	2.934556e-01
292           	-9.156444e-02	1.218699e+00	4.039147e-01	1.103929e-01	2.935218e-01
293           	-9.155314e-02	1.217778e+00	4.039835e-01	1.104386e-01	2.935449e-01
294           	-9.154329e-02	1.216886e+00	4.039662e-01	1.104398e-01	2.935264e-01
295           	-9.153163e-02	1.215994e+00	4.038839e-01	1.104103e-01	2.934736e-01
296           	-9.151855e-02	1.215094e+00	4.037519e-01	1.103574e-01	2.933945e-01
297           	-9.150734e-02	1.214214e+00	4.035859e-01	1.102856e-01	2.933003e-01
298           	-9.150109e-02	1.213355e+00	4.033918e-01	1.101948e-01	2.931970e-01
299           	-9.149736e-02	1.212473e+00	4.031895e-01	1.100974e-01	2.930921e-01
300           	-9.149826e-02	1.211569e+00	4.029821e-01	1.099928e-01	2.929893e-01
301           	-9.151354e-02	1.210681e+00	4.027748e-01	1.098739e-01	2.929010e-01
302           	-9.154635e-02	1.209825e+00	4.025702e-01	1.097388e-01	2.928315e-01
303           	-9.159424e-02	1.209014e+00	4.023634e-01	1.095875e-01	2.927760e-01
304           	-9.165464e-02	1.208268e+00	4.021547e-01	1.094227e-01	2.927320e-01
305           	-9.172694e-02	1.207591e+00	4.019401e-01	1.092431e-01	2.926970e-01
306           	-9.180671e-02	1.207017e+00	4.017173e-01	1.090519e-01	2.926654e-01
307           	-9.189131e-02	1.206550e+00	4.014695e-01	1.088434e-01	2.926260e-01
308           	-9.197802e-02	1.206154e+00	4.011976e-01	1.086208e-01	2.925768e-01
309           	-9.206416e-02	1.205789e+00	4.009321e-01	1.084019e-01	2.925302e-01
310           	-9.215051e-02	1.205421e+00	4.006776e-01	1.081883e-01	2.924893e-01
311           	-9.223698e-02	1.205027e+00	4.004547e-01	1.079904e-01	2.924643e-01
312           	-9.232481e-02	1.204603e+00	4.002558e-01	1.078031e-01	2.924527e-01
313           	-9.241467e-02	1.204145e+00	4.000782e-01	1.076245e-01	2.924538e-01
314           	-9.250803e-02	1.203680e+00	3.998916e-01	1.074378e-01	2.924539e-01
315           	-9.260616e-02	1.203258e+00	3.996802e-01	1.072340e-01	2.924463e-01
316           	-9.270875e-02	1.202914e+00	3.994333e-01	1.070079e-01	2.924254e-01
317           	-9.281465e-02	1.202670e+00	3.991511e-01	1.067609e-01	2.923902e-01
318           	-9.292505e-02	1.202547e+00	3.988236e-01	1.064867e-01	2.923368e-01
319           	-9.303957e-02	1.202535e+00	3.984195e-01	1.061702e-01	2.922493e-01
320           	-9.315539e-02	1.202598e+00	3.979373e-01	1.058133e-01	2.921240e-01
321           	-9.327225e-02	1.202735e+00	3.973647e-01	1.054101e-01	2.919546e-01
322           	-9.338983e-02	1.202948e+00	3.966968e-01	1.049586e-01	2.917382e-01
323           	-9.350795e-02	1.203218e+00	3.959290e-01	1.044566e-01	2.914725e-01
324           	-9.362623e-02	1.203521e+00	3.950598e-01	1.039037e-01	2.911561e-01
325           	-9.374378e-02	1.203840e+00	3.941000e-01	1.033062e-01	2.907938e-01
326           	-9.386280e-02	1.204216e+00	3.930547e-01	1.026646e-01	2.903901e-01
327           	-9.398347e-02	1.204638e+00	3.919098e-01	1.019714e-01	2.899384e-01
328           	-9.410489e-02	1.205089e+00	3.906653e-01	1.012277e-01	2.894375e-01
329           	-9.422653e-02	1.205555e+00	3.893505e-01	1.004487e-01	2.889018e-01
330           	-9.434700e-02	1.206029e+00	3.879752e-01	9.964062e-02	2.883346e-01
331           	-9.446255e-02	1.206495e+00	3.865285e-01	9.880170e-02	2.877268e-01
332           	-9.457457e-02	1.206998e+00	3.850215e-01	9.793618e-02	2.870853e-01
333           	-9.468283e-02	1.207546e+00	3.834722e-01	9.705329e-02	2.864189e-01
334           	-9.478073e-02	1.208079e+00	3.818748e-01	9.615668e-02	2.857181e-01
335           	-9.486783e-02	1.208605e+00	3.802388e-01	9.525154e-02	2.849872e-01
336           	-9.494815e-02	1.209138e+00	3.785801e-01	9.434193e-02	2.842382e-01
337           	-9.501829e-02	1.209652e+00	3.769000e-01	9.343172e-02	2.834683e-01
338           	-9.507781e-02	1.210178e+00	3.752092e-01	9.252678e-02	2.826824e-01
339           	-9.513209e-02	1.210714e+00	3.735069e-01	9.162134e-02	2.818855e-01
340           	-9.518210e-02	1.211246e+00	3.717687e-01	9.070223e-02	2.810664e-01
341           	-9.522731e-02	1.211788e+00	3.700071e-01	8.977624e-02	2.802309e-01
342           	-9.527211e-02	1.212366e+00	3.682356e-01	8.884570e-02	2.793899e-01
343           	-9.531631e-02	1.212950e+00	3.664689e-01	8.791814e-02	2.785508e-01
344           	-9.535822e-02	1.213522e+00	3.647099e-01	8.699673e-02	2.777132e-01
345           	-9.540103e-02	1.214110e+00	3.629671e-01	8.608254e-02	2.768846e-01
346           	-9.544775e-02	1.214690e+00	3.612668e-01	8.518565e-02	2.760812e-01
347           	-9.549932e-02	1.215230e+00	3.596265e-01	8.431391e-02	2.753125e-01
348           	-9.555477e-02	1.215714e+00	3.580638e-01	8.347714e-02	2.745867e-01
349           	-9.561641e-02	1.216142e+00	3.566015e-01	8.268433e-02	2.739172e-01
350           	-9.568803e-02	1.216527e+00	3.552543e-01	8.193910e-02	2.733152e-01
351           	-9.576808e-02	1.216870e+00	3.540216e-01	8.124273e-02	2.727789e-01
352           	-9.585484e-02	1.217194e+00	3.529263e-01	8.060831e-02	2.723180e-01
353           	-9.595189e-02	1.217531e+00	3.519731e-01	8.003467e-02	2.719385e-01
354           	-9.606163e-02	1.217955e+00	3.511498e-01	7.951330e-02	2.716366e-01
355           	-9.617968e-02	1.218475e+00	3.504714e-01	7.905600e-02	2.714154e-01
356           	-9.630603e-02	1.219099e+00	3.499320e-01	7.865998e-02	2.712720e-01
357           	-9.644111e-02	1.219803e+00	3.495297e-01	7.832375e-02	2.712060e-01
358           	-9.658610e-02	1.220504e+00	3.492737e-01	7.805075e-02	2.712230e-01
359           	-9.673523e-02	1.221141e+00	3.491578e-01	7.784367e-02	2.713141e-01
360           	-9.688863e-02	1.221671e+00	3.491934e-01	7.770809e-02	2.714853e-01
361           	-9.704967e-02	1.222081e+00	3.493897e-01	7.764515e-02	2.717445e-01
362           	-9.721658e-02	1.222371e+00	3.497350e-01	7.765094e-02	2.720841e-01
363           	-9.739068e-02	1.222541e+00	3.502300e-01	7.772433e-02	2.725057e-01
364           	-9.757108e-02	1.222604e+00	3.508680e-01	7.786291e-02	2.730051e-01
365           	-9.775456e-02	1.222610e+00	3.516258e-01	7.805834e-02	2.735675e-01