# kMean  POINT_DATA 91129
# x  y  z  kMean
0 0 0 0.00566559
0 0.00368111 0 0.00375
0 0.00749587 0 0.00375
0 0.0114491 0 0.00375
0 0.0155459 0 0.00375
0 0.0197915 0 0.00375
0 0.0241911 0 0.00375
0 0.0287506 0 0.00375
0 0.0334755 0 0.00375
0 0.038372 0 0.00375
0 0.0434463 0 0.00375
0 0.0487048 0 0.00375
0 0.0541543 0 0.00375
0 0.0598016 0 0.00375
0 0.0656539 0 0.00375
0 0.0717187 0 0.00375
0.075776 0.00184055 0 0.00997927
0.075776 0.00558849 0 0.00346029
0.075776 0.00947248 -3.46945e-18 0.00306904
0.075776 0.0134975 -3.46945e-18 0.00343581
0.075776 0.0176687 3.46945e-18 0.00359363
0 0.0780037 0 0.00375
0.075776 0.0219913 3.46945e-18 0.0036543
0.075776 0.0264709 3.46945e-18 0.00368513
0.075776 0.031113 -3.46945e-18 0.00370288
0.075776 0.0359237 -3.46945e-18 0.00371414
0 0.0845169 0 0.00375
0.075776 0.0409092 0 0.0037218
0.075776 0.0460755 -3.46945e-18 0.00372728
0 0.0912666 0 0.00375
0.075776 0.0514296 -3.46945e-18 0.00373136
0.075776 0.0569779 0 0.00373448
0 0.0982613 0 0.00375
0.075776 0.0627278 0 0.003737
0.075776 0.0686863 0 0.00373913
0 0.10551 0 0.00375
0.075776 0.0748612 3.46945e-18 0.00374096
0.075776 0.0812603 -3.46945e-18 0.00374252
0 0.113022 0 0.00375
0.075776 0.0878918 3.46945e-18 0.00374383
0 0.120806 0 0.00375
0.075776 0.0947639 3.46945e-18 0.00374494
0.075776 0.101886 -3.46945e-18 0.00374586
0 0.128874 0 0.00375
0.075776 0.109266 3.46945e-18 0.00374664
0 0.137234 0 0.00375
0.075776 0.116914 3.46945e-18 0.00374728
0 0.145897 0 0.00375
0.075776 0.12484 0 0.00374782
0.151552 0 0 0.00625301
0.151552 0.00368111 0 0.00439076
0.151552 0.00749587 0 0.00260707
0.151552 0.0114491 0 0.00293175
0.151552 0.0155459 0 0.00329953
0.151552 0.0197915 0 0.00347847
0.075776 0.133054 0 0.00374828
0.151552 0.0241911 0 0.00356788
0.151552 0.0287506 0 0.00362006
0 0.154876 0 0.00375
0.151552 0.0334755 0 0.00365321
0.151552 0.038372 0 0.00367553
0.151552 0.0434463 0 0.00369125
0.151552 0.0487048 0 0.00370276
0.075776 0.141566 0 0.0037487
0.151552 0.0541543 0 0.00371145
0.151552 0.0598016 0 0.00371822
0 0.16418 0 0.00375
0.151552 0.0656539 0 0.00372362
0.151552 0.0717187 0 0.00372804
0.075776 0.150387 0 0.00374907
0.151552 0.0780037 0 0.00373168
0.151552 0.0845169 0 0.00373471
0 0.173822 0 0.00375
0.075776 0.159528 0 0.00374942
0.151552 0.0912666 0 0.00373723
0.151552 0.0982613 0 0.00373934
0 0.183814 0 0.00375
0.151552 0.10551 0 0.00374113
0.075776 0.169001 3.46945e-18 0.00374976
0.151552 0.113022 0 0.00374267
0.151552 0.120806 0 0.00374399
0 0.194169 0 0.00375
0.075776 0.178818 3.46945e-18 0.00375009
0.151552 0.128874 0 0.00374513
0.075776 0.188992 3.46945e-18 0.00375041
0.151552 0.137234 0 0.00374612
0 0.2049 0 0.00375
0.151552 0.145897 0 0.00374698
0.075776 0.199535 0 0.00375073
0 0.21602 0 0.00375
0.151552 0.154876 0 0.00374773
0.219992 0.00184055 0 0.00281352
0.219992 0.00558849 0 0.00166819
0.219992 0.00947248 -3.46945e-18 0.00233191
0.219992 0.0134975 3.46945e-18 0.00293958
0.219992 0.0176687 0 0.00326218
0.219992 0.0219913 0 0.00342616
0.219993 0.0264709 -3.46945e-18 0.00352159
0.219992 0.031113 -3.46945e-18 0.003582
0.219992 0.0359238 3.46945e-18 0.00362233
0.151552 0.16418 0 0.0037484
0.075776 0.21046 0 0.00375104
0.219992 0.0409092 3.46945e-18 0.00365038
0.219992 0.0460755 0 0.00367066
0.219993 0.0514296 -3.46945e-18 0.00368581
0.219992 0.0569779 0 0.00369746
0 0.227544 0 0.00375
0.219992 0.0627277 3.46945e-18 0.00370662
0.219992 0.0686863 0 0.00371397
0.151552 0.173822 0 0.003749
0.219992 0.0748612 3.46945e-18 0.00371994
0.075776 0.221782 0 0.00375134
0.219992 0.0812603 3.46945e-18 0.00372485
0.219992 0.0878917 -3.46945e-18 0.00372893
0.151552 0.183814 0 0.00374955
7.47806e-17 0.239487 0 0.00375
0.219992 0.0947639 3.46945e-18 0.00373232
0.219993 0.101886 3.46945e-18 0.00373519
0.075776 0.233516 0 0.0037516
0.219993 0.109266 0 0.00373764
0.151552 0.194169 0 0.00375007
0.219993 0.116914 0 0.00373977
0 0.251863 0 0.00375
0.219993 0.12484 0 0.00374163
0.151552 0.2049 0 0.00375055
0.075776 0.245675 0 0.00375179
0.219992 0.133054 3.46945e-18 0.00374324
0.219992 0.141565 0 0.00374463
0.151552 0.21602 0 0.00375099
0 0.264688 0 0.00375
0.219992 0.150387 3.46945e-18 0.00374582
0.075776 0.258275 3.46945e-18 0.00375192
0.219992 0.159528 -3.46945e-18 0.00374685
0.151552 0.227544 0 0.0037514
0.219992 0.169001 3.46945e-18 0.00374775
0 0.27798 0 0.00375
0.075776 0.271334 3.46945e-18 0.00375197
0.151552 0.239487 3.70071e-18 0.00375175
0.219992 0.178818 3.46945e-18 0.00374855
0.288433 0 0 0.00186564
0.288433 0.00368111 0 0.00159036
0.288433 0.00749587 0 0.00178405
0.288433 0.0114491 0 0.00256871
0.288433 0.0155459 3.70071e-18 0.00304801
0.288433 0.0197915 0 0.00328746
0.288433 0.0241911 3.70071e-18 0.00341077
0.288433 0.0287506 0 0.00349233
0.219992 0.188991 0 0.00374927
0.288433 0.0334755 0 0.00355104
0.288433 0.038372 0 0.00359381
0.288433 0.0434463 0 0.00362547
7.47806e-17 0.291753 0 0.00375
0.288433 0.0487048 0 0.00364938
0.288433 0.0541543 0 0.00366783
0.151552 0.251863 0 0.00375205
0.288433 0.0598016 3.70071e-18 0.00368232
0.075776 0.284866 0 0.00375196
0.288433 0.0656539 3.70071e-18 0.00369389
0.219992 0.199534 0 0.00374993
0.288433 0.0717187 0 0.00370325
0.288433 0.0780037 0 0.00371088
0.288433 0.0845169 0 0.00371715
0.288433 0.0912666 0 0.00372244
0.219992 0.21046 -3.46945e-18 0.00375053
0.288433 0.0982613 0 0.00372707
0.151552 0.264688 3.70071e-18 0.0037523
0 0.306027 0 0.00375
0.288433 0.10551 0 0.00373117
0.075776 0.29889 3.46945e-18 0.00375192
0.288433 0.113022 0 0.00373477
0.219993 0.221782 0 0.00375108
0.288433 0.120806 0 0.00373792
0.288433 0.128874 0 0.00374066
0.151552 0.27798 0 0.00375248
0.288433 0.137234 0 0.00374304
0 0.320819 0 0.00375
0.219992 0.233515 -3.46945e-18 0.00375158
0.075776 0.313423 -3.46945e-18 0.00375183
0.288433 0.145897 0 0.00374509
0.288433 0.154876 0 0.00374686
0.151552 0.291753 0 0.00375262
0.219993 0.245675 0 0.00375203
0.288433 0.16418 0 0.00374837
0 0.336148 0 0.00375
0.288433 0.173822 0 0.00374965
0.075776 0.328484 -3.46945e-18 0.00375173
0.219993 0.258275 -3.46945e-18 0.00375244
0.151552 0.306027 0 0.00375272
0.288433 0.183814 0 0.00375074
0.288433 0.194169 0 0.00375169
0.219992 0.271334 3.46945e-18 0.0037528
0.350249 0.00184056 -3.46945e-18 0.000987483
0.350249 0.00558849 0 0.000987848
0.350249 0.00947248 3.46945e-18 0.00218002
0.350249 0.0134975 0 0.0028332
0.350249 0.0176687 0 0.00316486
0.350249 0.0219913 0 0.00330498
0.350249 0.0264708 3.46945e-18 0.00339963
0.350249 0.031113 0 0.00347483
0 0.352034 0 0.00375
0.350249 0.0359238 0 0.00353252
0.075776 0.344091 0 0.00375164
0.350249 0.0409091 0 0.00357628
0.350249 0.0460756 3.46945e-18 0.00360971
0.288433 0.2049 0 0.0037525
0.350249 0.0514296 0 0.0036356
0.151552 0.320819 0 0.00375279
0.350249 0.0569779 0 0.00365595
0.350249 0.0627277 3.46945e-18 0.00367216
0.350249 0.0686863 3.46945e-18 0.00368523
0.350249 0.0748612 3.46945e-18 0.00369586
0.350249 0.0812603 0 0.00370454
0.219992 0.284867 0 0.00375312
0.288433 0.21602 0 0.00375321
0.350249 0.0878917 0 0.00371172
0.350249 0.094764 0 0.003718
0.350249 0.101886 0 0.00372373
0.350249 0.109266 0 0.00372887
0.288433 0.227544 0 0.00375384
0.075776 0.360265 3.46945e-18 0.00375163
0 0.368496 0 0.00375
0.151552 0.336148 0 0.00375285
0.350249 0.116914 3.46945e-18 0.00373338
0.219992 0.29889 0 0.00375338
0.370854 0.0241911 1.54074e-33 0.00336109
0.350249 0.12484 0 0.0037373
0.350249 0.133054 0 0.00374072
0.288433 0.239487 -9.25154e-19 0.0037544
0.350249 0.141566 3.46945e-18 0.00374369
0.350249 0.150387 3.46945e-18 0.00374624
0.288433 0.251863 0 0.00375492
0.219992 0.313423 0 0.00375361
0.151552 0.352034 0 0.00375295
0.075776 0.377027 0 0.0037517
0.350249 0.159528 0 0.00374843
0 0.385557 0 0.00375
0.350249 0.169001 0 0.00375027
0.288433 0.264688 0 0.00375541
0.350249 0.178818 0 0.0037518
0.219992 0.328484 0 0.00375382
0.350249 0.188992 0 0.00375308
0.151552 0.368496 0 0.0037531
0.288433 0.27798 3.70071e-18 0.00375587
0.075776 0.394397 0 0.00375179
0.350249 0.199535 0 0.00375415
7.47806e-17 0.403236 0 0.00375
0.219992 0.344091 0 0.00375404
0.350249 0.21046 -3.46945e-18 0.00375505
0.288433 0.291753 0 0.0037563
0.412065 9.08189e-19 3.08149e-33 0.000804783
0.412065 0.00368111 -2.31298e-18 0.000869262
0.412065 0.00749587 -2.31298e-18 0.00160132
0.412065 0.0114491 -2.31298e-18 0.00259205
0.412065 0.0155459 -2.31298e-18 0.00305194
0.412065 0.0197915 0 0.00324513
0.412065 0.0241911 -3.08149e-33 0.00333624
0.412065 0.0264709 0 0.0033703
0.412065 0.0287506 -2.31298e-18 0.00340436
0.412065 0.0334755 -2.31298e-18 0.00346705
0.412065 0.038372 -2.31298e-18 0.00352013
0.151552 0.385557 0 0.00375331
0.412065 0.0434463 0 0.00356297
0.350249 0.221782 0 0.00375583
0.412065 0.0487048 0 0.00359708
0.412065 0.0541543 -3.08149e-33 0.00362428
0.412065 0.0569779 0 0.00363519
0.412065 0.0598016 -2.31298e-18 0.0036461
0.412065 0.0656539 -2.31298e-18 0.00366372
0.412065 0.0717187 -2.31298e-18 0.003678
0.075776 0.412396 -3.46945e-18 0.00375186
0.412065 0.0780037 -2.31298e-18 0.00368971
0.288433 0.306027 0 0.00375671
0.412065 0.0845169 -2.31298e-18 0.00369957
0.350249 0.233516 3.46945e-18 0.0037565
0 0.421557 0 0.00375
0.412065 0.0912666 -2.31298e-18 0.00370821
0.219992 0.360265 3.46945e-18 0.00375429
0.412065 0.0982613 0 0.00371601
0.412065 0.10551 0 0.00372307
0.412065 0.113022 -2.31298e-18 0.00372937
0.350249 0.245675 0 0.00375712
0.412065 0.120806 0 0.00373493
0.151552 0.403236 0 0.00375352
0.288433 0.320819 0 0.0037571
0.412065 0.128874 -2.31298e-18 0.0037398
0.412065 0.137234 0 0.00374404
0.350249 0.258275 -3.46945e-18 0.00375771
0.219992 0.377026 0 0.00375458
0.412065 0.145897 -2.31298e-18 0.0037477
0.075776 0.431051 0 0.0037519
0.412065 0.154876 -2.31298e-18 0.00375084
0 0.440544 0 0.00375
0.288433 0.336148 0 0.00375748
0.350249 0.271334 0 0.00375828
0.412065 0.16418 -2.31298e-18 0.0037535
0.412065 0.173822 -2.31298e-18 0.00375574
0.151552 0.421557 0 0.00375372
0.412065 0.183814 -2.31298e-18 0.00375761
0.350249 0.284867 3.46945e-18 0.00375885
0.219992 0.394397 0 0.00375491
0.288433 0.352034 3.70071e-18 0.00375786
0.412065 0.194169 0 0.00375916
0.075776 0.450382 0 0.00375192
0.412065 0.2049 -2.31298e-18 0.00376045
0 0.46022 0 0.00375
0.350249 0.29889 3.46945e-18 0.00375941
0.412065 0.21602 0 0.00376153
0.151552 0.440544 0 0.0037539
0.219993 0.412396 3.46945e-18 0.00375526
0.467897 0.00184056 -3.46945e-18 0.00063483
0.467897 0.00558849 0 0.000883402
0.288433 0.368496 0 0.00375827
0.467897 0.00947248 0 0.0023516
0.467897 0.0134975 0 0.00299148
0.467897 0.0176687 3.46945e-18 0.00321085
0.467897 0.0219913 -3.46945e-18 0.0032984
0.467897 0.0264709 3.46945e-18 0.00334421
0.467897 0.0311131 3.46945e-18 0.00340337
0.467897 0.0359238 -3.46945e-18 0.00346258
0.467897 0.038372 0 0.00349224
0.467897 0.0409092 3.46945e-18 0.0035139
0.350249 0.313423 0 0.00375996
0.467897 0.0460755 0 0.00355616
0.467897 0.0514296 3.46945e-18 0.00359043
0.412065 0.227544 -2.31298e-18 0.00376244
0.467897 0.0569779 0 0.00361816
0.467897 0.0627277 -3.46945e-18 0.00364065
0.467897 0.0686863 3.46945e-18 0.00365891
0.467897 0.0748612 0 0.00367375
0.467897 0.0812603 0 0.00368614
0.467897 0.0878918 3.46945e-18 0.00369707
0.075776 0.470415 3.46945e-18 0.00375194
0.412065 0.239487 -2.31298e-18 0.00376322
0.467897 0.0947639 -3.46945e-18 0.00370699
0.467897 0.101886 3.46945e-18 0.003716
0.350249 0.328483 0 0.0037605
0.467897 0.109266 0 0.00372411
0 0.48061 0 0.00375
0.288433 0.385557 0 0.0037587
0.467897 0.116914 0 0.00373135
0.412065 0.251863 -2.31298e-18 0.00376392
0.219992 0.431051 0 0.00375559
0.467897 0.12484 0 0.00373774
0.151552 0.46022 0 0.00375407
0.467897 0.133054 3.46945e-18 0.00374333
0.467897 0.141566 3.46945e-18 0.00374817
0.412065 0.264688 -2.31298e-18 0.00376458
0.350249 0.344091 -3.46945e-18 0.00376103
0.467897 0.150387 3.46945e-18 0.00375233
0.467897 0.154876 0 0.00375565
0.467897 0.159528 3.46945e-18 0.00375586
0.288433 0.403236 0 0.00375916
0.075776 0.491175 0 0.00375195
0.412065 0.27798 -2.31298e-18 0.0037652
0.467897 0.169001 0 0.00375885
0.467897 0.178818 3.46945e-18 0.00376137
0.219992 0.450382 0 0.0037559
6.73026e-17 0.501741 3.70071e-18 0.00375
0.350249 0.360265 0 0.00376155
0.151552 0.48061 0 0.00375422
0.467897 0.188991 0 0.00376346
0.412065 0.291753 0 0.0037658
0.467897 0.199535 0 0.00376519
0.288433 0.421557 0 0.00375962
0.467897 0.21046 0 0.00376661
0.412065 0.306027 0 0.00376639
0.350249 0.377027 0 0.00376209
0.467897 0.221782 3.46945e-18 0.00376778
0.075776 0.51269 0 0.00375198
0.219993 0.470415 3.46945e-18 0.00375618
0.467897 0.227544 0 0.00377005
0.412065 0.320819 -2.31298e-18 0.00376697
0.467897 0.233515 0 0.00376877
6.73026e-17 0.523639 3.70071e-18 0.00375
0.523729 0 0 0.000540929
0.523729 0.00368111 0 0.000696836
0.523729 0.00749587 -2.31298e-18 0.00166847
0.523729 0.0114491 0 0.00282425
0.523729 0.0155459 0 0.00323385
0.523729 0.0197915 -2.31298e-18 0.00332176
0.151552 0.501741 0 0.00375437
0.523729 0.0241911 0 0.0033457
0.523729 0.0287506 0 0.0033696
0.523729 0.0334755 0 0.00341354
0.523729 0.038372 -3.08149e-33 0.00346435
0.523729 0.0434463 0 0.00351158
0.523729 0.0487048 0 0.00355213
0.523729 0.0541543 0 0.00358596
0.288433 0.440544 0 0.00376007
0.523729 0.0598016 0 0.00361386
0.350249 0.394397 -3.46945e-18 0.00376265
0.523729 0.0656539 0 0.00363678
0.467897 0.245675 0 0.00376961
0.523729 0.0717187 0 0.00365557
0.523729 0.0780037 0 0.00367129
0.523729 0.0845169 0 0.00368509
0.523729 0.0912666 0 0.00369761
0.412065 0.336148 0 0.00376754
0.523729 0.0982613 0 0.00370899
0.523729 0.10551 -2.31298e-18 0.00371928
0.467897 0.258275 -3.46945e-18 0.00377036
0.523729 0.113022 0 0.00372852
0.523729 0.120806 -3.08149e-33 0.00373673
0.219993 0.491176 0 0.00375645
0.523729 0.12484 0 0.00374035
0.523729 0.128874 -2.31298e-18 0.00374397
0.075776 0.534986 0 0.00375201
0.467897 0.271334 3.46945e-18 0.00377105
0.350249 0.412396 -3.46945e-18 0.00376322
0.523729 0.137234 0 0.0037503
0.412065 0.352034 -2.31298e-18 0.00376811
0.288433 0.46022 0 0.0037605
0.523729 0.145897 0 0.00375577
0.151552 0.523639 0 0.00375452
0.523729 0.154876 -3.08149e-33 0.00376046
0 0.546332 0 0.00375
0.523729 0.159528 0 0.00376245
0.467897 0.284867 -3.46945e-18 0.0037717
0.523729 0.16418 -2.31298e-18 0.00376443
0.523729 0.173822 0 0.00376779
0.412065 0.368496 0 0.00376869
0.523729 0.183814 0 0.0037706
0.467897 0.29889 0 0.00377232
0.350249 0.431051 -3.46945e-18 0.0037638
0.219992 0.51269 0 0.00375672
0.523729 0.194169 0 0.00377292
0.288433 0.48061 0 0.00376091
0.523729 0.2049 0 0.00377482
0.467897 0.313423 3.46945e-18 0.00377294
0.075776 0.558091 0 0.00375205
0.412065 0.385557 0 0.00376929
0.523729 0.21602 -3.08149e-33 0.00377638
0.151552 0.546332 0 0.00375467
0 0.569849 0 0.00375
0.350249 0.450382 3.46945e-18 0.00376437
0.523729 0.227544 -3.08149e-33 0.00377766
0.467897 0.328483 0 0.00377355
0.523729 0.231525 1.54074e-33 0.00377801
0.574156 0.00184056 0 0.000453191
0.574156 0.00558849 0 0.000824097
0.574157 0.00947248 0 0.00260813
0.574156 0.0134975 -3.46945e-18 0.00332579
0.574156 0.0176687 -3.46945e-18 0.00338988
0.574156 0.0219913 0 0.00337911
0.574156 0.0264708 -3.46945e-18 0.0033579
0.574156 0.031113 0 0.00337347
0.574156 0.0359238 -3.46945e-18 0.00341728
0.574157 0.0409092 0 0.00346676
0.523729 0.239487 3.70071e-18 0.00377872
0.574156 0.0460755 -3.46945e-18 0.00351256
0.574156 0.0514295 0 0.00355215
0.412065 0.403236 0 0.0037699
0.574157 0.0569779 0 0.00358548
0.574156 0.0627277 0 0.0036132
0.574156 0.0686863 0 0.00363607
0.219992 0.534986 0 0.00375698
0.288433 0.501741 0 0.00376129
0.574156 0.0748612 3.46945e-18 0.00365497
0.574156 0.0812603 0 0.00367144
0.467897 0.344091 0 0.00377416
0.574156 0.0878917 3.46945e-18 0.00368656
0.523729 0.251863 0 0.00377961
0.574157 0.0947639 0 0.00370038
0.574156 0.101886 0 0.00371291
0.574156 0.109266 0 0.0037242
0.574156 0.116914 0 0.0037343
0.412065 0.416977 -6.16298e-33 0.00377037
0.350249 0.470415 0 0.00376491
0.523729 0.264688 0 0.00378039
0.075776 0.582034 0 0.0037521
0.574156 0.12484 0 0.00374325
0.574156 0.133054 3.46945e-18 0.00375112
0.412065 0.421557 -2.31298e-18 0.00377053
0.151552 0.569849 0 0.00375483
0.467897 0.360265 -3.46945e-18 0.00377477
0.574157 0.141566 -3.46945e-18 0.00375797
0.523729 0.27798 0 0.00378109
0.574156 0.150386 3.46945e-18 0.00376388
0 0.594219 0 0.00375
0.574156 0.159528 -3.46945e-18 0.00376892
0.574156 0.16418 0 0.00377251
0.288433 0.523639 1.2326e-32 0.00376166
0.574157 0.169001 0 0.00377319
0.523729 0.291753 0 0.00378173
0.219993 0.558091 3.46945e-18 0.00375723
0.467897 0.377026 0 0.0037754
0.574156 0.178818 3.46945e-18 0.00377676
0.412065 0.440544 -2.31298e-18 0.00377116
0.350249 0.491175 0 0.00376542
0.574156 0.188992 3.46945e-18 0.00377973
0.523729 0.306027 -3.08149e-33 0.00378234
0.574157 0.199535 0 0.00378217
0.574157 0.21046 0 0.00378416
0.075776 0.606847 0 0.00375216
0.467897 0.394397 0 0.00377605
0.151552 0.594219 0 0.00375498
0.523729 0.320819 0 0.00378294
0.574157 0.221782 -3.46945e-18 0.00378577
0.412065 0.46022 3.08149e-33 0.00377178
0.288433 0.546332 0 0.00376202
0 0.619475 0 0.00375
0.574156 0.233515 3.46945e-18 0.00378709
0.350249 0.51269 3.46945e-18 0.0037659
0.219992 0.582034 3.46945e-18 0.00375749
0.523729 0.336148 0 0.00378353
0.467897 0.412396 0 0.00377673
0.574156 0.245675 0 0.00378816
0.624584 0 0 0.000387278
0.624584 0.00368111 0 0.000596824
0.624584 0.00749587 0 0.00177441
0.624584 0.0114491 0 0.00315132
0.624584 0.0155459 0 0.00356268
0.624584 0.0197915 0 0.00351605
0.624584 0.0241911 -2.31298e-18 0.00343166
0.624584 0.0287506 0 0.00338883
0.624584 0.0334755 0 0.00339486
0.624584 0.038372 0 0.00343005
0.624584 0.0434463 -2.31298e-18 0.00347398
0.624584 0.0487048 0 0.00351663
0.624584 0.0541543 0 0.00355456
0.624584 0.0598016 0 0.00358704
0.624584 0.0656539 0 0.00361432
0.624584 0.0717187 0 0.00363717
0.624584 0.0780037 0 0.00365696
0.574157 0.258276 3.46945e-18 0.00378906
0.624584 0.0845169 0 0.00367488
0.523729 0.352034 0 0.00378412
0.624584 0.0912666 0 0.00369135
0.624584 0.0982613 0 0.0037064
0.412065 0.48061 3.08149e-33 0.00377236
0.624584 0.10551 0 0.00372004
0.624584 0.113022 -2.31298e-18 0.00373232
0.574156 0.271334 0 0.00378983
0.624584 0.120806 0 0.00374327
0.467897 0.431051 0 0.00377741
0.075776 0.632561 -3.46945e-18 0.00375222
0.624584 0.128874 0 0.00375296
0.151552 0.619475 0 0.00375514
0.288433 0.569849 0 0.00376237
0.350249 0.534985 0 0.00376636
0.624584 0.137234 -2.31298e-18 0.00376146
0.523729 0.368496 0 0.00378473
0.574156 0.284866 -3.46945e-18 0.00379051
0.624584 0.145897 0 0.00376884
0.467897 0.440544 0 0.00377927
0.624584 0.154876 0 0.00377518
0.219992 0.606847 -3.46945e-18 0.00375775
0 0.645647 0 0.00375
0.624584 0.16418 -3.08149e-33 0.00378058
0.574156 0.29889 -3.46945e-18 0.00379113
0.624584 0.173822 0 0.00378513
0.412065 0.501741 1.54074e-33 0.00377292
0.467897 0.450382 -3.46945e-18 0.0037781
0.523729 0.385557 0 0.00378536
0.624584 0.183814 0 0.00378893
0.624584 0.194169 0 0.00379206
0.574156 0.313423 0 0.00379172
0.624584 0.2049 0 0.00379462
0.350249 0.558091 3.46945e-18 0.00376681
0.288433 0.594219 0 0.00376271
0.624584 0.21602 0 0.00379669
0.523729 0.403236 0 0.00378601
0.574156 0.328483 -3.46945e-18 0.00379229
0.151552 0.645647 0 0.00375531
0.467897 0.470415 3.46945e-18 0.00377876
0.075776 0.659208 0 0.00375229
0.624584 0.227544 0 0.00379836
0.412065 0.523639 0 0.00377345
0.523729 0.41545 3.08149e-33 0.00378646
0.624584 0.239487 3.70071e-18 0.0037997
0.574156 0.344091 0 0.00379287
0.219992 0.632561 0 0.003758
0.67013 0.00184055 0 0.000325398
0.67013 0.00558849 0 0.000789736
0.67013 0.00947248 0 0.00286861
0.67013 0.0134975 0 0.00378026
0.67013 0.0176687 -3.46945e-18 0.00372977
0.67013 0.0219913 0 0.00354935
0.67013 0.0264708 3.46945e-18 0.00343255
0.67013 0.0311131 0 0.00338857
0.67013 0.0359237 0 0.00340016
0.67013 0.0409092 -3.46945e-18 0.00343746
0.67013 0.0460755 0 0.00348105
0.67013 0.0514296 3.46945e-18 0.0035227
0.523729 0.421557 -2.31298e-18 0.00378669
0.67013 0.056978 0 0.00355965
0 0.67277 0 0.00375
0.67013 0.0627277 0 0.00359134
0.624584 0.251863 0 0.00380078
0.67013 0.0686863 0 0.00361793
0.67013 0.0748612 3.46945e-18 0.00364075
0.67013 0.0812603 0 0.00366143
0.67013 0.0878917 0 0.00368057
0.67013 0.0947639 3.46945e-18 0.00369816
0.574156 0.360265 0 0.00379345
0.67013 0.101886 0 0.00371419
0.523729 0.431051 0 0.00378703
0.624584 0.264688 0 0.00380167
0.467897 0.491175 0 0.00377939
0.67013 0.109266 3.46945e-18 0.00372869
0.350249 0.582034 0 0.00376723
0.67013 0.116914 0 0.0037417
0.67013 0.12484 0 0.00375328
0.67013 0.133054 0 0.00376349
0.288433 0.619475 0 0.00376304
0.624584 0.27798 -3.08149e-33 0.00380242
0.412065 0.546332 1.54074e-33 0.00377394
0.523729 0.440544 -3.08149e-33 0.00378737
0.67013 0.141566 3.46945e-18 0.00377241
0.685312 0.0241911 -7.70372e-34 0.00354569
0.685312 0.0434463 -7.70372e-34 0.00346001
0.67013 0.150387 0 0.00378013
0.574156 0.377026 -3.46945e-18 0.00379406
0.67013 0.159528 0 0.00378673
0.624584 0.291753 0 0.00380306
0.151552 0.67277 0 0.00375546
0.075776 0.686823 0 0.00375236
0.67013 0.169001 0 0.00379233
0.67013 0.178818 0 0.00379702
0.467897 0.51269 0 0.00377998
0.685312 0.113022 -7.70372e-34 0.00373761
0.219992 0.659208 0 0.00375825
0.624584 0.306027 0 0.00380364
0.67013 0.188991 0 0.0038009
0.574156 0.394397 3.46945e-18 0.00379469
0.523729 0.46022 0 0.00378804
0.685312 0.137234 -7.70372e-34 0.00377173
0.67013 0.199535 -3.46945e-18 0.00380408
0.350249 0.606847 0 0.00376764
0 0.700877 0 0.00375
0.624584 0.320819 0 0.00380418
0.67013 0.21046 0 0.00380666
0.412065 0.569849 -2.31298e-18 0.00377441
0.67013 0.221782 -3.46945e-18 0.00380874
0.574157 0.412396 0 0.00379535
0.288433 0.645647 0 0.00376336
0.624584 0.336148 -3.08149e-33 0.00380471
0.67013 0.233515 3.46945e-18 0.00381039
0.467897 0.534986 0 0.00378054
0.523729 0.48061 0 0.00378869
0.624584 0.344091 0 0.00380498
0.67013 0.245675 0 0.0038117
0.715676 4.54095e-19 0 0.000275156
0.715676 0.00368111 0 0.000527183
0.715676 0.00749587 0 0.00188877
0.715676 0.0114491 0 0.00352098
0.715676 0.0155459 0 0.00400845
0.715676 0.0197915 0 0.00383327
0.715676 0.0241911 0 0.00360271
0.715676 0.0287506 0 0.00346763
0.715676 0.0334755 0 0.003416
0.715676 0.038372 0 0.00342128
0.624584 0.352034 -2.31298e-18 0.00380524
0.715676 0.0434463 0 0.00345302
0.151552 0.700877 0 0.00375562
0.715676 0.0487048 0 0.00349261
0.715676 0.0541543 0 0.00353162
0.574156 0.43105 0 0.00379602
0.715676 0.0598016 0 0.00356684
0.67013 0.258275 0 0.00381274
0.715676 0.0656539 0 0.00359735
0.715676 0.0717187 0 0.00362366
0.075776 0.715441 0 0.00375243
0.715676 0.0780037 0 0.00364727
0.715676 0.0845169 0 0.00366913
0.219992 0.686824 0 0.00375849
0.715676 0.0912666 0 0.00368938
0.715676 0.0982613 0 0.00370799
0.67013 0.271334 -3.46945e-18 0.00381358
0.350249 0.632561 -3.46945e-18 0.00376803
0.412065 0.594219 3.08149e-33 0.00377486
0.715676 0.10551 0 0.00372494
0.715676 0.113022 0 0.00374026
0.624584 0.368496 0 0.00380578
0.523729 0.501741 0 0.00378931
0.715676 0.120806 0 0.00375398
0.715676 0.128874 0 0.00376616
0.67013 0.284867 0 0.00381427
0.467897 0.558091 3.46945e-18 0.00378106
0.715676 0.137234 0 0.00377687
0.574156 0.450382 0 0.00379671
0 0.730005 0 0.00375
0.715676 0.145897 0 0.0037862
0.288433 0.67277 0 0.00376366
0.715676 0.154876 0 0.00379424
0.67013 0.29889 0 0.00381486
0.624584 0.385557 0 0.00380635
0.715676 0.16418 -9.25187e-19 0.0038011
0.715676 0.173822 0 0.00380689
0.715676 0.183814 0 0.00381171
0.67013 0.313423 0 0.00381538
0.523729 0.523639 0 0.00378988
0.715676 0.194169 0 0.00381568
0.574156 0.470415 3.46945e-18 0.00379737
0.624584 0.403236 0 0.00380695
0.743101 0.0241911 -7.70372e-34 0.00369525
0.412065 0.619475 3.08149e-33 0.00377528
0.715676 0.2049 0 0.00381892
0.151552 0.730005 0 0.00375578
0.67013 0.328484 3.46945e-18 0.00381587
0.350249 0.659208 0 0.0037684
0.467897 0.582034 0 0.00378155
0.715676 0.21602 0 0.00382152
0.219992 0.715441 0 0.00375873
0.075776 0.745097 -3.46945e-18 0.0037525
0.715676 0.227544 0 0.00382358
0.67013 0.344091 0 0.00381635
0.624584 0.421557 0 0.00380756
0.743101 0.128874 -7.70372e-34 0.00377173
0.715676 0.239487 3.70071e-18 0.0038252
0.574156 0.491175 0 0.00379801
0.756814 0.00184055 0 0.000227752
0.523729 0.546332 0 0.00379041
0.756813 0.00558849 0 0.000769295
0.756813 0.00947248 0 0.0031208
0.756814 0.0134975 -3.46945e-18 0.00429212
0.756814 0.0155459 0 0.00426691
0.756814 0.0176687 0 0.00420304
0.756814 0.0219913 0 0.00382907
0.756814 0.0264709 0 0.00358725
0.756814 0.031113 -3.46945e-18 0.00345573
0.756813 0.0359238 -3.46945e-18 0.0034171
0.288433 0.700877 0 0.00376395
0.756814 0.0409092 -3.46945e-18 0.00343013
0.756813 0.0460755 3.46945e-18 0.00346415
0.756813 0.0514296 0 0.00350357
0.715676 0.251863 0 0.00382647
0.756813 0.0569779 0 0.00354163
0.756814 0.0627277 -3.46945e-18 0.00357573
0.756814 0.0686863 -3.46945e-18 0.0036052
0 0.76019 0 0.00375
0.756814 0.0748612 0 0.00363141
0.67013 0.360265 3.46945e-18 0.00381684
0.756814 0.0812603 -3.46945e-18 0.00365593
0.756814 0.0878917 -3.46945e-18 0.00367881
0.756814 0.0947639 -3.46945e-18 0.00369999
0.715676 0.264688 0 0.00382745
0.756813 0.101886 0 0.00371941
0.624584 0.440544 0 0.0038082
0.756813 0.109266 3.46945e-18 0.00373707
0.756813 0.116914 3.46945e-18 0.00375299
0.412065 0.645647 0 0.00377567
0.467897 0.606847 0 0.003782
0.756814 0.120806 0 0.0037611
0.756813 0.12484 0 0.00376721
0.715676 0.27798 0 0.00382823
0.756814 0.133054 -3.46945e-18 0.00377978
0.67013 0.377026 -3.46945e-18 0.00381735
0.756814 0.137234 0 0.00378634
0.574156 0.51269 0 0.00379861
0.756813 0.141566 3.46945e-18 0.0037908
0.685312 0.352034 -7.70372e-34 0.00382217
0.743101 0.2049 -7.70372e-34 0.00382823
0.350249 0.686824 0 0.00376875
0.756814 0.150387 0 0.00380035
0.756814 0.154876 0 0.00380555
0.715676 0.291753 0 0.00382884
0.756814 0.159528 -3.46945e-18 0.00380855
0.523729 0.569849 0 0.0037909
0.72743 0.264688 0 0.00383167
0.756814 0.16418 0 0.00381315
0.151552 0.76019 0 0.00375593
0.756813 0.169001 3.46945e-18 0.0038155
0.624584 0.46022 0 0.00380883
0.219993 0.745097 0 0.00375896
0.67013 0.394396 0 0.00381788
0.756813 0.178818 -3.46945e-18 0.00382134
0.715676 0.306027 0 0.00382936
0.075776 0.775831 0 0.00375257
0.756813 0.188991 0 0.00382616
0.756814 0.199535 0 0.00383011
0.715676 0.320819 0 0.00382981
0.574156 0.534985 0 0.00379916
0.288433 0.730005 0 0.00376423
0.756813 0.21046 0 0.00383329
0.467897 0.632561 0 0.00378242
0.67013 0.412396 -3.46945e-18 0.00381844
0.624584 0.48061 -3.08149e-33 0.00380944
0.756814 0.221782 0 0.00383582
0.412065 0.67277 3.08149e-33 0.00377603
0.715676 0.336148 0 0.00383023
0 0.791472 0 0.00375
0.756813 0.233516 3.46945e-18 0.00383781
0.523729 0.594219 0 0.00379135
0.624584 0.487654 1.54074e-33 0.00380963
0.756814 0.245675 3.46945e-18 0.00383934
0.350249 0.715441 3.46945e-18 0.00376907
0.67013 0.43105 0 0.00381903
0.715676 0.352034 -9.25187e-19 0.00383064
0.797951 9.08189e-19 -3.08149e-33 0.00019022
0.797951 0.00368111 2.31298e-18 0.00047648
0.797951 0.00749587 2.31298e-18 0.00200047
0.797951 0.0114491 2.31298e-18 0.0038961
0.797951 0.0141803 7.70372e-34 0.00431562
0.797951 0.0155459 0 0.00452537
0.797951 0.0169611 7.70372e-34 0.00444053
0.797951 0.0197915 2.31298e-18 0.00427084
0.797951 0.0219913 0 0.00407558
0.797951 0.0241911 3.08149e-33 0.00388033
0.797951 0.0264709 0 0.00374972
0.797951 0.0287506 -3.08149e-33 0.0036191
0.797951 0.0334755 2.31298e-18 0.00348436
0.797951 0.038372 2.31298e-18 0.00344286
0.797951 0.0434463 2.31298e-18 0.00345176
0.797951 0.0487048 0 0.00348186
0.756813 0.258275 -3.46945e-18 0.00384051
0.797951 0.0541543 2.31298e-18 0.00351816
0.797951 0.0598016 2.31298e-18 0.00355384
0.797951 0.0656539 2.31298e-18 0.00358622
0.574156 0.55809 0 0.00379966
0.624584 0.501741 0 0.00381002
0.797951 0.0717187 2.31298e-18 0.00361529
0.797951 0.0780037 -3.08149e-33 0.00364222
0.797951 0.0845169 2.31298e-18 0.00366762
0.797951 0.0912666 -3.08149e-33 0.00369136
0.797951 0.0982613 2.31298e-18 0.00371333
0.756813 0.271334 0 0.00384139
0.797951 0.10551 2.31298e-18 0.00373347
0.715676 0.368496 0 0.00383106
0.151552 0.791472 0 0.00375608
0.797951 0.113022 2.31298e-18 0.00375177
0.219992 0.775831 3.46945e-18 0.00375918
0.797951 0.118211 7.70372e-34 0.00376274
0.770526 0.239487 1.54074e-33 0.00384465
0.797951 0.120806 0 0.00376822
0.67013 0.450382 3.46945e-18 0.00381962
0.797951 0.128874 3.08149e-33 0.00378288
0.467897 0.659208 0 0.0037828
0.756813 0.284866 -3.46945e-18 0.00384207
0.743101 0.320819 -7.70372e-34 0.0038396
0.797951 0.137234 0 0.00379582
0.797951 0.141566 0 0.00380146
0.797951 0.145897 -9.25187e-19 0.00380711
0.523729 0.619475 0 0.00379175
0.075776 0.807681 0 0.00375264
0.797951 0.150387 0 0.00381199
0.797951 0.154876 0 0.00381687
0.715676 0.385557 0 0.00383151
0.412065 0.700877 3.08149e-33 0.00377636
0.288433 0.76019 0 0.00376449
0.756813 0.29889 0 0.00384259
0.797951 0.16418 0 0.0038252
0.624584 0.523639 0 0.00381055
0.797951 0.167394 7.70372e-34 0.00382755
0.797951 0.173822 2.31298e-18 0.00383224
0.574156 0.582034 0 0.00380011
0.67013 0.470415 0 0.00382021
0.797951 0.183814 2.31298e-18 0.00383811
0.756813 0.313423 -3.46945e-18 0.00384302
0.797951 0.194169 -9.25187e-19 0.00384294
0.715676 0.403236 0 0.00383198
0.151552 0.807681 0 0.00375615
0.797951 0.197746 -7.70372e-34 0.00384425
0.350249 0.745097 0 0.00376938
0.797951 0.2049 3.08149e-33 0.00384686
0 0.823889 0 0.00375
0.756813 0.328483 -3.46945e-18 0.00384339
0.797951 0.21046 0 0.00384843
0.797951 0.21602 -3.08149e-33 0.00384999
0.797951 0.223703 7.70372e-34 0.00385163
0.797951 0.227544 9.25187e-19 0.00385246
0.624584 0.546332 0 0.00381103
0.715676 0.421557 0 0.00383248
0.67013 0.491176 -3.46945e-18 0.00382077
0.797951 0.231525 7.70372e-34 0.00385309
0.467897 0.686824 -3.46945e-18 0.00378315
0.523729 0.645647 0 0.00379211
0.756813 0.344091 -3.46945e-18 0.00384373
0.822721 0.120806 7.70372e-34 0.00377392
0.797951 0.239487 -3.08149e-33 0.00385437
0.822721 0.137234 7.70372e-34 0.00380307
0.835106 0.00184056 0 0.000154627
0.835106 0.00558849 0 0.000756542
0.835106 0.00947248 0 0.00334964
0.835106 0.0134975 0 0.00480235
0.835107 0.0176687 0 0.00477534
0.835106 0.0219913 -3.46945e-18 0.00424961