# kMean  POINT_DATA 63140
# x  y  z  kMean
0 0.1 0 0.00375
0 0.1 -0.0179898 0.00375
0 0.1 0.0179898 0.00375
0.0363518 0.1 0.0179898 0.00374801
0.0363518 0.1 -0.0179898 0.00374802
0 0.1 -0.0570102 0.00375
0 0.1 0.0570102 0.00375
0.0363518 0.1 0.0570102 0.00374801
0.0363518 0.1 -0.0570102 0.00374802
0 0.1 -0.075 0.00375
0 0.1 0.075 0.00375
0.075776 0.1 -0.0375 0.00374563
0.075776 0.1 0.0375 0.00374561
0 0.1 -0.0929898 0.00375
0 0.1 0.0929898 0.00375
0.0363518 0.1 -0.0929898 0.00374823
0.0363518 0.1 0.0929898 0.0037482
0 0.1 -0.13201 0.00375
0 0.1 0.13201 0.00375
0.075776 0.1 -0.1125 0.00374607
0.075776 0.1 0.1125 0.00374601
0.0363518 0.1 -0.13201 0.00374823
0.0363518 0.1 0.13201 0.0037482
0 0.1 -0.15 0.00375
0 0.1 0.15 0.00375
0.150379 0.1 -2.22623e-17 0.00373989
0 0.1 -0.16799 0.00375
0 0.1 0.16799 0.00375
0.150379 0.1 -0.075 0.00374038
0.150379 0.1 0.075 0.00374027
0.0363518 0.1 -0.16799 0.00374852
0.0363518 0.1 0.16799 0.00374849
0.075776 0.1 -0.1875 0.00374666
0.075776 0.1 0.1875 0.00374661
0 0.1 -0.20701 0.00375
0 0.1 0.20701 0.00375
0.0363518 0.1 -0.20701 0.00374852
0.0363518 0.1 0.20701 0.00374849
0.150379 0.1 -0.15 0.0037413
0.150379 0.1 0.15 0.00374117
0.219993 0.1 -0.0375 0.00373449
0.219993 0.1 0.0375 0.00373436
0 0.1 -0.225 0.00375
0 0.1 0.225 0.00375
0 0.1 -0.24299 0.00375
0 0.1 0.24299 0.00375
0.0363518 0.1 0.24299 0.00374878
0.0363518 0.1 -0.24299 0.00374878
0.219993 0.1 -0.1125 0.00373584
0.219993 0.1 0.1125 0.0037356
0.150379 0.1 -0.225 0.00374219
0.150379 0.1 0.225 0.00374209
0.075776 0.1 -0.2625 0.00374721
0.075776 0.1 0.2625 0.0037472
0 0.1 -0.28201 0.00375
0 0.1 0.28201 0.00375
0.0363518 0.1 -0.28201 0.00374878
0.0363518 0.1 0.28201 0.00374878
0.287374 0.1 -2.89121e-19 0.00372819
0.219992 0.1 0.1875 0.00373691
0.219992 0.1 -0.1875 0.0037371
0.287374 0.1 -0.075 0.003729
0.287374 0.1 0.075 0.00372874
0 0.1 -0.3 0.00375
0 0.1 0.3 0.00375
0 0.1 0.31799 0.00375
0 0.1 -0.31799 0.00375
0.0363518 0.1 -0.31799 0.00374903
0.0363518 0.1 0.31799 0.00374903
0.287374 0.1 0.15 0.00373013
0.287374 0.1 -0.15 0.00373047
0.150379 0.1 -0.3 0.00374301
0.150379 0.1 0.3 0.00374295
0.219993 0.1 0.2625 0.00373806
0.219993 0.1 -0.2625 0.00373821
0.075776 0.1 -0.3375 0.00374771
0.075776 0.1 0.3375 0.00374771
0.350249 0.1 -0.0375 0.00372233
0.350249 0.1 0.0375 0.00372211
0 0.1 -0.35701 0.00375
0 0.1 0.35701 0.00375
0.0363518 0.1 -0.35701 0.00374903
0.0363518 0.1 0.35701 0.00374903
0.287374 0.1 -0.225 0.00373184
0.287374 0.1 0.225 0.00373155
0.350249 0.1 -0.1125 0.00372387
0.350249 0.1 0.1125 0.00372341
0 0.1 -0.375 0.00375
0 0.1 0.375 0.00375
0 0.1 -0.39299 0.00375
0 0.1 0.39299 0.00375
0.0363518 0.1 -0.39299 0.00374928
0.0363518 0.1 0.39299 0.00374928
0.350249 0.1 -0.1875 0.00372556
0.350249 0.1 0.1875 0.00372511
0.219992 0.1 -0.3375 0.00373934
0.219992 0.1 0.3375 0.00373924
0.150379 0.1 0.375 0.00374367
0.150379 0.1 -0.375 0.00374369
0.411108 0.1 4.33681e-19 0.00371784
0.287374 0.1 -0.3 0.00373305
0.287374 0.1 0.3 0.00373284
0.411108 0.1 -0.075 0.00371872
0.411108 0.1 0.075 0.00371832
0.075776 0.1 -0.4125 0.00374822
0.075776 0.1 0.4125 0.00374823
0 0.1 0.43201 0.00375
0 0.1 -0.43201 0.00375
0.0363518 0.1 0.43201 0.00374928
0.0363518 0.1 -0.43201 0.00374928
0.411108 0.1 -0.15 0.00372032
0.411108 0.1 0.15 0.00371977
0.350249 0.1 -0.2625 0.00372695
0.350249 0.1 0.2625 0.0037266
0 0.1 -0.45 0.00375
0 0.1 0.45 0.00375
0.219992 0.1 0.4125 0.00373988
0.219992 0.1 -0.4125 0.00373989
0 0.1 -0.46799 0.00375
0 0.1 0.46799 0.00375
0.411108 0.1 -0.225 0.00372188
0.411108 0.1 0.225 0.00372138
0.467897 0.1 -0.0375 0.00371375
0.467897 0.1 0.0375 0.00371347
0.0363518 0.1 0.46799 0.00374955
0.0363518 0.1 -0.46799 0.00374954
0.287374 0.1 -0.375 0.00373399
0.287374 0.1 0.375 0.00373384
0.150379 0.1 0.45 0.00374421
0.150379 0.1 -0.45 0.00374423
0.467897 0.1 0.1125 0.0037146
0.467897 0.1 -0.1125 0.00371523
0.350249 0.1 -0.3375 0.00372817
0.350249 0.1 0.3375 0.0037279
0.075776 0.1 -0.4875 0.00374878
0.075776 0.1 0.4875 0.00374878
0.467897 0.1 0.1875 0.00371627
0.467897 0.1 -0.1875 0.00371694
0 0.1 -0.50701 0.00375
0 0.1 0.50701 0.00375
0.0363518 0.1 -0.50701 0.00374954
0.0363518 0.1 0.50701 0.00374955
0.411108 0.1 0.3 0.00372278
0.411108 0.1 -0.3 0.00372319
0.522865 0.1 1.41031e-17 0.00371159
0 0.1 -0.525 0.00375
0 0.1 0.525 0.00375
0.522865 0.1 -0.075 0.00371243
0.522865 0.1 0.075 0.00371193
0.287374 0.1 0.45 0.00373451
0.287374 0.1 -0.45 0.00373463
0.219992 0.1 0.4875 0.00374034
0.219992 0.1 -0.4875 0.00374041
0.467897 0.1 -0.2625 0.00371838
0.467897 0.1 0.2625 0.00371783
0.350249 0.1 -0.4125 0.00372899
0.350249 0.1 0.4125 0.0037288
0 0.1 -0.54299 0.00375
0 0.1 0.54299 0.00375
0.522865 0.1 0.15 0.00371319
0.522865 0.1 -0.15 0.00371391
0.0363518 0.1 0.54299 0.00374983
0.0363518 0.1 -0.54299 0.00374983
0.150379 0.1 -0.525 0.00374487
0.150379 0.1 0.525 0.00374482
0.411108 0.1 -0.375 0.00372416
0.411108 0.1 0.375 0.00372384
0.075776 0.1 -0.5625 0.00374936
0.075776 0.1 0.5625 0.00374936
0.522865 0.1 -0.225 0.00371536
0.522865 0.1 0.225 0.00371466
0.574156 0.1 0.0375 0.00370943
0.574157 0.1 -0.0375 0.00370976
0.467897 0.1 -0.3375 0.00371953
0.467897 0.1 0.3375 0.00371907
0 0.1 -0.58201 0.00375
0 0.1 0.58201 0.00375
0.0363518 0.1 -0.58201 0.00374983
0.0363518 0.1 0.58201 0.00374983
0.574157 0.1 -0.1125 0.00371103
0.574157 0.1 0.1125 0.00371029
0.287374 0.1 -0.525 0.00373535
0.287374 0.1 0.525 0.00373519
0 0.1 -0.6 0.00375
0 0.1 0.6 0.00375
0.350249 0.1 0.4875 0.00372945
0.350249 0.1 -0.4875 0.00372964
0.522865 0.1 -0.3 0.00371651
0.522865 0.1 0.3 0.00371592
0.219992 0.1 -0.5625 0.0037413
0.219992 0.1 0.5625 0.00374119
0.574156 0.1 -0.1875 0.00371249
0.574156 0.1 0.1875 0.00371167
0.411108 0.1 0.45 0.00372455
0.411108 0.1 -0.45 0.00372482
0 0.1 -0.61799 0.00375
0 0.1 0.61799 0.00375
0.150379 0.1 -0.6 0.0037456
0.150379 0.1 0.6 0.00374555
0.0363518 0.1 -0.61799 0.0037501
0.0363518 0.1 0.61799 0.00375011
0.467897 0.1 -0.4125 0.00372024
0.467897 0.1 0.4125 0.00371988
0.623803 0.1 2.34188e-17 0.00370981
0.623803 0.1 0.075 0.00370999
0.623803 0.1 -0.075 0.00371055
0.574156 0.1 0.2625 0.00371297
0.574156 0.1 -0.2625 0.00371369
0.623803 0.1 0.15 0.00371093
0.623803 0.1 -0.15 0.00371175
0.075776 0.1 0.6375 0.00374994
0.075776 0.1 -0.6375 0.00374993
0.522865 0.1 -0.375 0.00371724
0.522865 0.1 0.375 0.00371677
0 0.1 0.65701 0.00375
0 0.1 -0.65701 0.00375
0.0363518 0.1 0.65701 0.00375011
0.0363518 0.1 -0.65701 0.0037501
0.350249 0.1 0.5625 0.00373024
0.350249 0.1 -0.5625 0.00373048
0.623803 0.1 0.225 0.00371204
0.623803 0.1 -0.225 0.00371286
0.287374 0.1 -0.6 0.00373622
0.287374 0.1 0.6 0.00373605
0.574157 0.1 -0.3375 0.0037145
0.574157 0.1 0.3375 0.0037139
0.411108 0.1 0.525 0.00372515
0.411108 0.1 -0.525 0.00372544
0.67013 0.1 0.0375 0.00370977
0.67013 0.1 -0.0375 0.00371011
0.219992 0.1 -0.6375 0.00374217
0.219993 0.1 0.6375 0.00374208
0 0.1 -0.675 0.00375
0 0.1 0.675 0.00375
0.467897 0.1 -0.4875 0.00372071
0.467897 0.1 0.4875 0.00372036
0.67013 0.1 -0.1125 0.00371113
0.67013 0.1 0.1125 0.00371033
0.522865 0.1 0.45 0.00371719
0.522865 0.1 -0.45 0.00371758
0.150379 0.1 0.675 0.00374625
0.150379 0.1 -0.675 0.00374628
0.623803 0.1 0.3 0.00371292
0.623803 0.1 -0.3 0.00371361
0 0.1 -0.69299 0.00375
0 0.1 0.69299 0.00375
0.0363518 0.1 -0.69299 0.00375035
0.0363518 0.1 0.69299 0.00375036
0.67013 0.1 -0.1875 0.0037122
0.67013 0.1 0.1875 0.00371129
0.574156 0.1 0.4125 0.00371433
0.574157 0.1 -0.4125 0.00371479
0.714971 0.1 -2.8382e-17 0.00371219
0.075776 0.1 -0.7125 0.00375045
0.075776 0.1 0.7125 0.00375046
0.714971 0.1 -0.075 0.0037128
0.714971 0.1 0.075 0.00371222
0.67013 0.1 0.2625 0.00371211
0.67013 0.1 -0.2625 0.00371292
0.411108 0.1 -0.6 0.00372615
0.411108 0.1 0.6 0.00372583
0.350249 0.1 0.6375 0.00373111
0.350249 0.1 -0.6375 0.00373135
0.623803 0.1 0.375 0.00371332
0.623803 0.1 -0.375 0.00371386
0.714971 0.1 -0.15 0.00371364
0.714971 0.1 0.15 0.00371278
0.467897 0.1 -0.5625 0.00372124
0.467897 0.1 0.5625 0.00372085
0 0.1 -0.73201 0.00375
0 0.1 0.73201 0.00375
0.0363518 0.1 0.73201 0.00375036
0.0363518 0.1 -0.73201 0.00375035
0.287374 0.1 -0.675 0.00373705
0.287374 0.1 0.675 0.00373689
0.522865 0.1 -0.525 0.00371776
0.522865 0.1 0.525 0.00371737
0.219993 0.1 -0.7125 0.00374294
0.219992 0.1 0.7125 0.00374287
0.714971 0.1 -0.225 0.00371426
0.714971 0.1 0.225 0.0037134
0 0.1 0.75 0.00375
0 0.1 -0.75 0.00375
0.67013 0.1 -0.3375 0.00371323
0.67013 0.1 0.3375 0.00371259
0.574156 0.1 -0.4875 0.0037147
0.574157 0.1 0.4875 0.0037143
0.756813 0.1 0.0375 0.0037141
0.756814 0.1 -0.0375 0.00371444
0.150379 0.1 0.746002 0.0037469
0.150379 0.1 -0.75 0.00374689
0.756813 0.1 -0.1125 0.00371516
0.756813 0.1 0.1125 0.00371435
0 0.1 0.76799 0.00375
0 0.1 -0.76799 0.00375
0.0363518 0.1 0.76799 0.00375058
0.0363518 0.1 -0.76799 0.00375057
0.623803 0.1 -0.45 0.00371359
0.623803 0.1 0.45 0.00371316
0.714971 0.1 -0.3 0.00371443
0.714971 0.1 0.3 0.00371372
0.756814 0.1 -0.1875 0.00371574
0.756814 0.1 0.1875 0.00371482
0.67013 0.1 -0.4125 0.00371283
0.67013 0.1 0.4125 0.00371236
0.411108 0.1 0.675 0.00372654
0.411108 0.1 -0.675 0.00372684
0.467897 0.1 0.6375 0.00372144
0.467897 0.1 -0.6375 0.00372183
0.075776 0.1 0.7875 0.00375092
0.075776 0.1 -0.7875 0.0037509
0.350249 0.1 -0.7125 0.00373215
0.350249 0.1 0.7125 0.00373195
0.522865 0.1 -0.6 0.00371794
0.522865 0.1 0.6 0.00371753
0.797314 0.1 -3.59473e-17 0.00371831
0.287374 0.1 0.746002 0.00373772
0.797314 0.1 -0.075 0.00371875
0.797314 0.1 0.075 0.00371819
0.756814 0.1 -0.2625 0.00371585
0.756814 0.1 0.2625 0.00371505
0.287374 0.1 -0.75 0.00373778
0.574156 0.1 -0.5625 0.00371453
0.574156 0.1 0.5625 0.00371409
0 0.1 0.80701 0.00375
0 0.1 -0.80701 0.00375
0.714971 0.1 -0.375 0.003714
0.714971 0.1 0.375 0.00371347
0.0363518 0.1 0.80701 0.00375058
0.0363518 0.1 -0.80701 0.00375057
0.797314 0.1 -0.15 0.00371918
0.797314 0.1 0.15 0.00371834
0.623803 0.1 -0.525 0.00371304
0.623803 0.1 0.525 0.00371264
0.219992 0.1 0.7875 0.00374356
0.219992 0.1 -0.7875 0.00374361
0.149792 0.1 0.80701 0.0037473
0 0.1 0.825 0.00375
0 0.1 -0.825 0.00375
0.797314 0.1 -0.225 0.00371922
0.797314 0.1 0.225 0.00371839
0.756813 0.1 -0.3375 0.00371544
0.756813 0.1 0.3375 0.00371482
0.67013 0.1 0.4875 0.00371159
0.67013 0.1 -0.4875 0.00371197
0.835106 0.1 -0.0375 0.00372226
0.835106 0.1 0.0375 0.00372193
0.150379 0.1 -0.825 0.00374741
0.835106 0.1 -0.1125 0.00372266
0.835106 0.1 0.1125 0.00372188
0 0.1 -0.84299 0.00375
0 0.1 0.84299 0.00375
0.0363518 0.1 -0.84299 0.00375077
0.0363518 0.1 0.84299 0.00375077
0.714971 0.1 -0.45 0.00371293
0.714971 0.1 0.45 0.00371255
0.411108 0.1 0.746002 0.00372723
0.797314 0.1 -0.3 0.00371869
0.797314 0.1 0.3 0.00371801
0.467897 0.1 -0.7125 0.00372233
0.467897 0.1 0.7125 0.00372199
0.522865 0.1 0.675 0.00371771
0.522865 0.1 -0.675 0.0037181
0.411108 0.1 -0.75 0.00372741
0.835106 0.1 -0.1875 0.00372269
0.835107 0.1 0.1875 0.00372183
0.286844 0.1 0.80701 0.00373818
0.574156 0.1 0.6375 0.0037139
0.574157 0.1 -0.6375 0.00371434
0.350249 0.1 -0.7875 0.00373285
0.350249 0.1 0.7875 0.00373268
0.756813 0.1 -0.4125 0.00371424
0.756814 0.1 0.4125 0.00371383
0.623803 0.1 -0.6 0.00371238
0.623803 0.1 0.6 0.00371198
0.075776 0.1 0.8625 0.00375132
0.075776 0.1 -0.8625 0.0037513
0.871687 0.1 -3.2767e-18 0.00372758
0.287374 0.1 -0.825 0.0037384
0.871687 0.1 -0.075 0.00372785
0.871687 0.1 0.075 0.00372733
0.67013 0.1 -0.5625 0.00371091
0.67013 0.1 0.5625 0.00371052
0.835106 0.1 0.2625 0.00372139
0.835106 0.1 -0.2625 0.00372213
0.797314 0.1 -0.375 0.00371745
0.797314 0.1 0.375 0.00371701
0 0.1 -0.88201 0.00375
0 0.1 0.88201 0.00375
0.0363518 0.1 0.88201 0.00375077
0.0363518 0.1 -0.88201 0.00375077
0.871687 0.1 0.15 0.00372706
0.871687 0.1 -0.15 0.00372784
0.714971 0.1 0.525 0.00371113
0.714971 0.1 -0.525 0.00371145
0.219993 0.1 0.8625 0.00374414
0.219992 0.1 -0.8625 0.00374417
0 0.1 0.9 0.00375
0 0.1 -0.9 0.00375
0.756813 0.1 0.4875 0.00371216
0.756814 0.1 -0.4875 0.00371242
0.871687 0.1 0.225 0.0037265
0.871687 0.1 -0.225 0.00372725
0.835106 0.1 -0.3375 0.00372087
0.835106 0.1 0.3375 0.00372035
0.41063 0.1 0.80701 0.00372758
0.90582 0.1 -0.0375 0.00373292
0.905821 0.1 0.0375 0.00373263
0.522865 0.1 0.746002 0.00371791
0.150379 0.1 0.9 0.00374784
0.90582 0.1 0.1125 0.00373228
0.905821 0.1 -0.1125 0.00373298
0.522865 0.1 -0.75 0.00371817
0.574156 0.1 0.7125 0.00371372
0.574156 0.1 -0.7125 0.00371411
0.797314 0.1 -0.45 0.00371545
0.797314 0.1 0.45 0.00371522
0.467897 0.1 -0.7875 0.00372266
0.467897 0.1 0.7875 0.0037224
0.150379 0.1 -0.903998 0.00374774
0 0.1 0.91799 0.00375
0 0.1 -0.91799 0.00375
0.0363518 0.1 0.91799 0.00375092
0.0363518 0.1 -0.91799 0.00375091
0.623803 0.1 0.675 0.00371128
0.623803 0.1 -0.675 0.00371167
0.411108 0.1 -0.825 0.00372785
0.871687 0.1 0.3 0.00372537
0.871687 0.1 -0.3 0.00372593
0.67013 0.1 -0.6375 0.00370974
0.67013 0.1 0.6375 0.00370936
0.90582 0.1 -0.1875 0.00373244
0.90582 0.1 0.1875 0.00373168
0.350249 0.1 0.8625 0.00373328
0.350249 0.1 -0.8625 0.00373342
0.835106 0.1 -0.4125 0.00371881
0.835106 0.1 0.4125 0.0037186
0.714971 0.1 -0.6 0.00370976
0.714971 0.1 0.6 0.00370947
0.93886 0.1 -1.15648e-17 0.00373968
0.075776 0.1 0.9375 0.00375163
0.075776 0.1 -0.9375 0.00375161
0.93886 0.1 0.075 0.0037393
0.93886 0.1 -0.075 0.00373976
0.756813 0.1 0.5625 0.00371005
0.756814 0.1 -0.5625 0.00371027
0.905821 0.1 -0.2625 0.00373118
0.905821 0.1 0.2625 0.00373054
0.287374 0.1 0.9 0.00373883
0.287374 0.1 -0.903998 0.00373875
0.871687 0.1 0.375 0.00372352
0.871687 0.1 -0.375 0.00372381
0.93886 0.1 -0.15 0.00373931
0.93886 0.1 0.15 0.00373863
0.797314 0.1 0.525 0.00371277
0.797314 0.1 -0.525 0.0037129
0 0.1 0.95701 0.00375
0 0.1 -0.95701 0.00375
0.0363518 0.1 0.95701 0.00375092
0.0363518 0.1 -0.95701 0.00375091
0.522433 0.1 0.80701 0.00371789
0.219992 0.1 0.9375 0.0037446
0.219992 0.1 -0.9375 0.00374462
0.93886 0.1 0.225 0.00373748
0.93886 0.1 -0.225 0.00373811
0.90582 0.1 0.3375 0.00372864
0.905821 0.1 -0.3375 0.00372898
0.835106 0.1 -0.4875 0.00371593
0.835107 0.1 0.4875 0.00371589
0.969689 0.1 -0.0375 0.00374636
0.969689 0.1 0.0375 0.0037461
0.61613 0.1 0.75 0.00371056
0.574156 0.1 -0.7875 0.00371379
0.574156 0.1 0.7875 0.00371347
0 0.1 0.975 0.00375
0 0.1 -0.975 0.00375
0.623803 0.1 -0.75 0.00371088
0.969689 0.1 -0.1125 0.0037461
0.969689 0.1 0.1125 0.00374549
0.522865 0.1 -0.825 0.0037181
0.67013 0.1 0.7125 0.00370817
0.67013 0.1 -0.7125 0.00370849
0.871687 0.1 -0.45 0.00372083
0.871687 0.1 0.45 0.00372079
0.467897 0.1 0.8625 0.00372262
0.467897 0.1 -0.8625 0.00372282
0.714971 0.1 -0.675 0.00370796
0.714971 0.1 0.675 0.0037077
0.93886 0.1 -0.3 0.00373601
0.93886 0.1 0.3 0.00373559
0.150379 0.1 0.975 0.00374818
0.150379 0.1 -0.975 0.00374818
0.969689 0.1 -0.1875 0.00374505
0.969689 0.1 0.1875 0.0037444
0.411108 0.1 0.9 0.003728
0.756813 0.1 0.6375 0.00370775
0.756814 0.1 -0.6375 0.00370796
0.990306 0.1 -2.19732e-17 0.0037477
0 0.1 0.99299 0.00375
0 0.1 -0.99299 0.00375
0.411108 0.1 -0.903998 0.00372802
0.990306 0.1 -0.075 0.00374766
0.990306 0.1 0.075 0.00374724
0.0363518 0.1 0.99299 0.00375104
0.0363518 0.1 -0.99299 0.00375103
0.90582 0.1 -0.4125 0.00372606
0.905821 0.1 0.4125 0.00372598
0.797314 0.1 -0.6 0.00371003
0.797314 0.1 0.6 0.00370995
0.350249 0.1 0.9375 0.00373375
0.350249 0.1 -0.9375 0.00373385
0.990306 0.1 0.15 0.0037463
0.990306 0.1 -0.15 0.0037469
0.969689 0.1 -0.2625 0.00374313
0.969689 0.1 0.2625 0.00374261
0.835106 0.1 -0.5625 0.0037126
0.835106 0.1 0.5625 0.00371261
0.93886 0.1 -0.375 0.003733
0.93886 0.1 0.375 0.00373288
0.075776 0.1 1.0125 0.00375187
0.075776 0.1 -1.0125 0.00375184
0.990306 0.1 -0.225 0.00374528
0.990306 0.1 0.225 0.00374472
0.287374 0.1 0.975 0.00373923
0.287374 0.1 -0.975 0.00373928
0.871687 0.1 -0.525 0.0037171
0.871687 0.1 0.525 0.00371723
1.02149 0.1 -0.0369628 0.00375558
1.02149 0.1 0.0369628 0.00375537
0.969689 0.1 -0.3375 0.00374009
0.969689 0.1 0.3375 0.00373992
1.02149 0.1 -0.110888 0.00375509
1.02149 0.1 0.110888 0.00375458
0.90582 0.1 0.4875 0.0037222
0.90582 0.1 -0.4875 0.00372202
0.623803 0.1 0.819003 0.00370954
0 0.1 1.03201 0.00375
0 0.1 -1.03201 0.00375
0.0363518 0.1 1.03201 0.00375104
0.0363518 0.1 -1.03201 0.00375103
0.67013 0.1 -0.7875 0.0037072
0.67013 0.1 0.7875 0.00370695
0.623803 0.1 -0.825 0.00371002
0.990306 0.1 -0.3 0.00374264
0.990306 0.1 0.3 0.00374232
0.219992 0.1 -1.0125 0.00374495
0.219993 0.1 1.0125 0.00374495
0.574156 0.1 0.8625 0.00371312
0.574157 0.1 -0.8625 0.00371336
0.714971 0.1 -0.75 0.00370607
0.714971 0.1 0.75 0.00370588
1.02149 0.1 0.184814 0.00375315
1.02149 0.1 -0.184814 0.0037537
0.756814 0.1 -0.7125 0.00370552
0.756814 0.1 0.7125 0.00370537
0.522865 0.1 0.9 0.00371772
0.93886 0.1 -0.45 0.00372894
0.93886 0.1 0.45 0.00372917
1.04168 0.1 0 0.00376067
1.04168 0.1 -0.0729162 0.0037605
1.04168 0.1 0.0729162 0.00376014
0.522865 0.1 -0.903998 0.00371783
0.797314 0.1 -0.675 0.00370699
0.797314 0.1 0.675 0.00370696
0.467897 0.1 0.9375 0.00372272
0.467897 0.1 -0.9375 0.00372288
0 0.1 1.05 0.00375
0 0.1 -1.05 0.00375
0.835106 0.1 -0.6375 0.00370899
0.835106 0.1 0.6375 0.00370905
1.04168 0.1 -0.145832 0.00375949
1.04168 0.1 0.145832 0.00375897
1.02149 0.1 -0.25874 0.00375134
1.02149 0.1 0.25874 0.00375092
0.969689 0.1 -0.4125 0.00373626
0.969689 0.1 0.4125 0.00373635
0.411108 0.1 0.975 0.00372822
0.411108 0.1 -0.975 0.00372832
0.871687 0.1 -0.6 0.00371292
0.871687 0.1 0.6 0.00371314
1.0579 0.1 -0.0360525 0.00376542
1.0579 0.1 0.0360525 0.00376523
0.990306 0.1 -0.375 0.00373902
0.990306 0.1 0.375 0.003739
0.150379 0.1 1.05 0.00374842
0.150379 0.1 -1.05 0.00374841
1.0579 0.1 0.108157 0.00376437
1.0579 0.1 -0.108157 0.00376481
1.04168 0.1 -0.218749 0.00375752
1.04168 0.1 0.218749 0.00375704
0.90582 0.1 -0.5625 0.00371738
0.90582 0.1 0.5625 0.00371773
0 0.1 -1.06799 0.00375
0 0.1 1.06799 0.00375
0.0363518 0.1 -1.06799 0.0037511
0.0363518 0.1 1.06799 0.00375112
0.350249 0.1 1.0125 0.00373408
0.350249 0.1 -1.0125 0.00373415
1.0579 0.1 -0.180262 0.00376326
1.0579 0.1 0.180262 0.00376279
1.02149 0.1 -0.332665 0.00374784
1.02149 0.1 0.332665 0.00374775
0.93886 0.1 -0.525 0.0037239
0.93886 0.1 0.525 0.0037244
1.08012 0.1 5.49329e-18 0.00377183
1.04168 0.1 -0.291665 0.00375448
1.04168 0.1 0.291665 0.00375422
1.08012 0.1 0.0709941 0.00377129
1.08012 0.1 -0.0709941 0.0037716
0.969689 0.1 -0.4875 0.00373083
0.96969 0.1 0.4875 0.00373157
1.0579 0.1 0.252367 0.00376037
1.0579 0.1 -0.252367 0.00376071
0.990306 0.1 -0.45 0.00373414
0.990306 0.1 0.45 0.00373461
0.287374 0.1 -1.05 0.00373953
0.287374 0.1 1.05 0.00373951
0.714971 0.1 0.821002 0.00370411
1.08012 0.1 -0.141988 0.00377046
1.08012 0.1 0.141988 0.00377002
0.075776 0.1 1.0875 0.00375203
0.075776 0.1 -1.0875 0.00375201
0.714971 0.1 -0.825 0.00370411
0.756813 0.1 -0.7875 0.00370299
0.756814 0.1 0.7875 0.00370293
0.67013 0.1 -0.8625 0.00370581
0.67013 0.1 0.8625 0.00370566
0.797314 0.1 -0.75 0.00370383
0.797314 0.1 0.75 0.00370388
0.623803 0.1 0.9 0.0037089
0.835106 0.1 -0.7125 0.00370523
0.835106 0.1 0.7125 0.00370537
0.623803 0.1 -0.903998 0.00370908
0.574156 0.1 0.9375 0.00371268
0.574156 0.1 -0.9375 0.00371284
1.02149 0.1 -0.406591 0.00374337
1.02149 0.1 0.406591 0.00374359
1.08012 0.1 -0.212982 0.00376834
1.08012 0.1 0.212982 0.00376794
1.10076 0.1 -0.0349809 0.00377808
1.10076 0.1 0.0349809 0.00377791
0.871687 0.1 -0.675 0.00370847
0.871687 0.1 0.675 0.00370877
1.04168 0.1 -0.364581 0.00375037
1.04168 0.1 0.364581 0.00375042
1.10076 0.1 -0.104943 0.00377737
1.10076 0.1 0.104943 0.00377697
0.522865 0.1 0.975 0.00371749
0.522865 0.1 -0.975 0.00371761
1.0579 0.1 -0.324472 0.003757
1.0579 0.1 0.324472 0.00375698
0 0.1 -1.10701 0.00375
0 0.1 1.10701 0.00375
0.0363518 0.1 1.10701 0.00375112
0.0363518 0.1 -1.10701 0.0037511
0.90582 0.1 0.6375 0.00371275
0.905821 0.1 -0.6375 0.00371231
0.219992 0.1 1.0875 0.00374517
0.219992 0.1 -1.0875 0.00374515
0.93886 0.1 0.6 0.00371892
0.93886 0.1 -0.6 0.00371833
1.10076 0.1 -0.174905 0.00377569
1.10076 0.1 0.174905 0.00377525
0.467897 0.1 1.0125 0.00372271
0.467897 0.1 -1.0125 0.0037228
1.08012 0.1 -0.283976 0.00376513
1.08012 0.1 0.283976 0.00376493
1.11928 0.1 3.93204e-18 0.00378364
0.990306 0.1 -0.525 0.00372812
0.990306 0.1 0.525 0.00372893
0.96969 0.1 -0.5625 0.0037248
0.969689 0.1 0.5625 0.00372553
1.11928 0.1 -0.0690357 0.00378335
1.11928 0.1 0.0690357 0.00378309
0 0.1 1.125 0.00375
0 0.1 -1.125 0.00375
0.411108 0.1 -1.05 0.00372837
0.411108 0.1 1.05 0.00372831
1.10076 0.1 0.244866 0.00377265
1.10076 0.1 -0.244866 0.003773
1.11928 0.1 -0.138072 0.00378213
1.11928 0.1 0.138072 0.00378173
1.02149 0.1 0.480517 0.00373823
1.02149 0.1 -0.480517 0.00373729
1.0579 0.1 -0.396577 0.00375222
1.0579 0.1 0.396577 0.00375256
1.04168 0.1 -0.437497 0.00374493
1.04168 0.1 0.437497 0.00374552
0.150379 0.1 1.125 0.00374858
0.150379 0.1 -1.125 0.00374855
0.714971 0.1 0.88201 0.00370153
1.08012 0.1 0.354971 0.00376092
1.08012 0.1 -0.354971 0.00376079
1.11928 0.1 -0.207107 0.00377991
1.11928 0.1 0.207107 0.00377954
0.350249 0.1 -1.0875 0.00373431
0.350249 0.1 1.0875 0.00373428
0 0.1 1.14299 0.00375
0 0.1 -1.14299 0.00375
0.0363518 0.1 1.14299 0.00375117
0.0363518 0.1 -1.14299 0.00375116
1.14316 0.1 -0.0339211 0.00379143
1.14316 0.1 0.0339211 0.00379131
0.797314 0.1 0.821002 0.00370089
1.10076 0.1 -0.314829 0.00376914
1.10076 0.1 0.314829 0.00376906
0.797314 0.1 -0.825 0.00370056
0.756814 0.1 -0.8625 0.00370041
0.756814 0.1 0.8625 0.00370046
1.14316 0.1 -0.101763 0.00379064
1.14316 0.1 0.101763 0.00379034
0.835106 0.1 -0.7875 0.00370135
0.835106 0.1 0.7875 0.00370159
0.871687 0.1 -0.75 0.00370384
0.871687 0.1 0.75 0.00370425
0.67013 0.1 0.9375 0.00370427
0.67013 0.1 -0.9375 0.00370435
0.90582 0.1 -0.7125 0.00370699
0.905821 0.1 0.7125 0.00370754
0.714971 0.1 -0.903998 0.00370223
1.11928 0.1 0.276143 0.00377641
1.11928 0.1 -0.276143 0.0037766
1.14316 0.1 0.169605 0.00378854
1.14316 0.1 -0.169605 0.00378888
0.93886 0.1 -0.675 0.0037124
0.93886 0.1 0.675 0.00371311
1.15704 0.1 0 0.00379566
1.0579 0.1 0.468682 0.00374693
1.0579 0.1 -0.468682 0.00374584
0.623803 0.1 0.975 0.00370796
0.623803 0.1 -0.975 0.00370803
0.990306 0.1 0.6 0.00372242
0.990306 0.1 -0.6 0.00372154
1.15704 0.1 -0.0671479 0.00379532
1.15704 0.1 0.0671479 0.00379509
1.04168 0.1 -0.510414 0.00373812
1.04168 0.1 0.510414 0.00373922
0.969689 0.1 -0.6375 0.00371829
0.969689 0.1 0.6375 0.00371913
1.08012 0.1 0.425965 0.00375578
1.08012 0.1 -0.425965 0.0037551
0.287374 0.1 -1.125 0.00373965
0.287374 0.1 1.125 0.00373965
1.02149 0.1 -0.554443 0.00373031
1.02149 0.1 0.554443 0.00373141
0.574156 0.1 1.0125 0.00371215
0.574156 0.1 -1.0125 0.00371221
1.15704 0.1 -0.134296 0.00379404
1.15704 0.1 0.134296 0.00379369
0.075776 0.1 1.1625 0.00375214
0.075776 0.1 -1.1625 0.00375212
1.10076 0.1 -0.384791 0.00376416
1.10076 0.1 0.384791 0.00376442
1.14316 0.1 -0.237448 0.00378609
1.14316 0.1 0.237448 0.00378585
1.11928 0.1 -0.345179 0.00377214
1.11928 0.1 0.345179 0.00377225
0.522865 0.1 1.05 0.00371716
0.522865 0.1 -1.05 0.00371721
1.15704 0.1 -0.201444 0.00379176
1.15704 0.1 0.201444 0.00379142
1.1744 0.1 -0.0331401 0.00380118
1.1744 0.1 0.0331401 0.00380106
1.1744 0.1 -0.0994202 0.00380037
1.1744 0.1 0.0994202 0.00380007
0 0.1 1.18201 0.00375
0 0.1 -1.18201 0.00375
0.0363518 0.1 1.18201 0.00375117
0.0363518 0.1 -1.18201 0.00375116
0.219992 0.1 1.1625 0.00374528
0.219993 0.1 -1.1625 0.00374525
1.14316 0.1 0.30529 0.00378218
1.14316 0.1 -0.30529 0.00378218
0.467897 0.1 1.0875 0.00372259
0.467897 0.1 -1.0875 0.00372263
1.1744 0.1 -0.1657 0.0037986
1.1744 0.1 0.1657 0.00379824
1.15704 0.1 -0.268592 0.00378842
1.15704 0.1 0.268592 0.00378821
1.0579 0.1 0.540787 0.00373975
1.0579 0.1 -0.540787 0.00373833
0.796996 0.1 0.88201 0.00369834
1.08012 0.1 -0.496959 0.00374793
1.08012 0.1 0.496959 0.00374923
1.10076 0.1 0.454752 0.00375858
1.10076 0.1 -0.454752 0.00375757
1.11928 0.1 -0.414214 0.00376632
1.11928 0.1 0.414214 0.00376697
1.04168 0.1 -0.58333 0.00373068
1.04168 0.1 0.58333 0.00373193
1.1744 0.1 -0.231981 0.00379584
1.1744 0.1 0.231981 0.00379553
0.871687 0.1 0.821002 0.00369986
0.411108 0.1 1.125 0.00372829
0.411108 0.1 -1.125 0.00372831
1.19808 0.1 1.73472e-17 0.00380964
0.990306 0.1 0.675 0.00371559
0.990306 0.1 -0.675 0.00371459
1.02149 0.1 0.628368 0.00372416
1.02149 0.1 -0.628368 0.00372297
1.19808 0.1 -0.0650961 0.00380927
1.19808 0.1 0.0650961 0.00380908
0 0.1 1.2 0.00375
0 0.1 -1.2 0.00375
0.871687 0.1 -0.825 0.00369912
0.905821 0.1 -0.7875 0.00370147
0.90582 0.1 0.7875 0.00370215
0.835106 0.1 -0.8625 0.00369732
0.835106 0.1 0.8625 0.0036977
0.93886 0.1 -0.75 0.0037063
0.93886 0.1 0.75 0.00370714
1.14316 0.1 -0.373132 0.00377706
1.14316 0.1 0.373132 0.00377744
0.969689 0.1 0.7125 0.00371252
0.969689 0.1 -0.7125 0.00371154
1.15704 0.1 -0.33574 0.00378393
1.15704 0.1 0.33574 0.00378398
0.756813 0.1 0.9375 0.00369793
0.756814 0.1 -0.9375 0.00369779
1.19808 0.1 0.130192 0.00380764
1.19808 0.1 -0.130192 0.00380793
0.797314 0.1 -0.903998 0.00369755
0.714971 0.1 0.975 0.00370013
0.714971 0.1 -0.975 0.00370005
0.150379 0.1 1.2 0.00374865
0.150379 0.1 -1.2 0.00374862
1.20938 0.1 -0.0322656 0.00381304
1.20938 0.1 0.0322656 0.00381294
1.1744 0.1 -0.298261 0.00379199
1.1744 0.1 0.298261 0.00379185
1.20938 0.1 -0.0967968 0.00381217
1.20938 0.1 0.0967968 0.00381192
1.19808 0.1 -0.195288 0.00380563
1.19808 0.1 0.195288 0.00380533
0.350249 0.1 1.1625 0.00373434
0.350249 0.1 -1.1625 0.00373433
0.67013 0.1 1.0125 0.00370292
0.67013 0.1 -1.0125 0.0037029
0 0.1 1.21799 0.00375
0 0.1 -1.21799 0.00375
0.0363518 0.1 -1.21799 0.00375118
0.0363518 0.1 1.21799 0.00375119
1.11928 0.1 -0.48325 0.00375894
1.11928 0.1 0.48325 0.00376028
1.10076 0.1 -0.524714 0.00374955
1.10076 0.1 0.524714 0.00375109
1.20938 0.1 0.161328 0.00381005
1.20938 0.1 -0.161328 0.00381036
1.08012 0.1 0.567953 0.00374158
1.08012 0.1 -0.567953 0.00374003
0.623803 0.1 1.05 0.003707
0.623803 0.1 -1.05 0.00370699
1.0579 0.1 -0.612892 0.00373054
1.0579 0.1 0.612892 0.00373209
1.15704 0.1 -0.402888 0.00377808
1.15704 0.1 0.402888 0.00377863
1.14316 0.1 0.440974 0.0037715
1.14316 0.1 -0.440974 0.00377041
1.19808 0.1 -0.260384 0.00380231
1.19808 0.1 0.260384 0.00380209
1.2267 0.1 3.57064e-18 0.00381989
1.2267 0.1 -0.0636649 0.00381948
1.2267 0.1 0.0636649 0.00381933
1.1744 0.1 -0.364541 0.00378694
1.1744 0.1 0.364541 0.00378712
0.574156 0.1 1.0875 0.0037115
0.574156 0.1 -1.0875 0.0037115
1.20938 0.1 0.225859 0.00380729
1.20938 0.1 -0.225859 0.00380758
1.04168 0.1 -0.656246 0.00372282
1.04168 0.1 0.656246 0.00372419
1.2267 0.1 -0.12733 0.00381809
1.2267 0.1 0.12733 0.00381785
0.287374 0.1 1.2 0.00373967
0.287374 0.1 -1.2 0.00373964
1.02149 0.1 -0.702294 0.0037152
1.02149 0.1 0.702294 0.00371655
0.075776 0.1 -1.2375 0.00375217
0.075776 0.1 1.2375 0.0037522
0.871399 0.1 0.88201 0.00369617
0.522865 0.1 1.125 0.00371673
0.522865 0.1 -1.125 0.00371673
1.2267 0.1 -0.190994 0.00381573
1.2267 0.1 0.190994 0.00381548
1.19808 0.1 -0.32548 0.00379787
1.19808 0.1 0.32548 0.00379785
0.990306 0.1 -0.75 0.00370745
0.990306 0.1 0.75 0.00370861
1.24274 0.1 -0.0314313 0.00382551
1.24274 0.1 0.0314313 0.00382544
1.20938 0.1 -0.29039 0.00380375
1.20938 0.1 0.29039 0.00380358
1.24274 0.1 -0.0942942 0.00382457
1.24274 0.1 0.0942942 0.00382438
0.93886 0.1 0.821002 0.00370133
1.11928 0.1 -0.552285 0.0037507
1.11928 0.1 0.552285 0.00375237
1.15704 0.1 -0.470036 0.00377063
1.15704 0.1 0.470036 0.00377192
0.969689 0.1 -0.7875 0.00370476
0.96969 0.1 0.7875 0.00370588
0.93886 0.1 -0.825 0.00370012
0.90582 0.1 0.8625 0.0036968
0.905821 0.1 -0.8625 0.00369606
1.1744 0.1 -0.430821 0.00378039
1.1744 0.1 0.430821 0.00378123
1.10076 0.1 -0.594676 0.00374136
1.10076 0.1 0.594676 0.00374297
1.14316 0.1 -0.508816 0.00376222
1.14316 0.1 0.508816 0.00376403
1.24274 0.1 -0.157157 0.00382267
1.24274 0.1 0.157157 0.00382243
1.2267 0.1 -0.254659 0.00381238
1.2267 0.1 0.254659 0.00381218
0.467897 0.1 1.1625 0.00372236
0.467897 0.1 -1.1625 0.00372237
1.08012 0.1 0.638947 0.00373336
1.08012 0.1 -0.638947 0.00373167
1.25511 0.1 -5.78241e-19 0.00383105
0.835106 0.1 -0.9375 0.00369339
0.835106 0.1 0.9375 0.00369384
0.871687 0.1 -0.903998 0.00369483
1.25511 0.1 0.0622446 0.00383049
1.25511 0.1 -0.0622446 0.00383057
0.219992 0.1 1.2375 0.00374529
0.219992 0.1 -1.2375 0.00374525
0 0.1 -1.25701 0.00375
0 0.1 1.25701 0.00375
0.0363518 0.1 -1.25701 0.00375118
0.0363518 0.1 1.25701 0.00375119
0.797314 0.1 0.975 0.00369435
0.797314 0.1 -0.975 0.00369401
1.19808 0.1 -0.390576 0.0037921
1.19808 0.1 0.390576 0.00379254
1.0579 0.1 -0.684997 0.00372215
1.0579 0.1 0.684997 0.00372385
1.20938 0.1 -0.354921 0.00379876
1.20938 0.1 0.354921 0.00379885
1.25511 0.1 0.124489 0.00382895
1.25511 0.1 -0.124489 0.00382907
1.24274 0.1 -0.220019 0.0038198
1.24274 0.1 0.220019 0.00381957
0.756813 0.1 1.0125 0.00369544
0.756814 0.1 -1.0125 0.00369521
1.2267 0.1 -0.318324 0.00380793
1.2267 0.1 0.318324 0.0038079
0.411108 0.1 1.2 0.00372814
0.411108 0.1 -1.2 0.00372812
1.25511 0.1 -0.186734 0.00382658
1.25511 0.1 0.186734 0.00382648
0.714971 0.1 1.05 0.00369827
0.714971 0.1 -1.05 0.00369812
1.04168 0.1 -0.729162 0.00371455
1.04168 0.1 0.729162 0.0037161
1.24274 0.1 0.282882 0.00381577
1.24274 0.1 -0.282882 0.00381594
0 0.1 1.275 0.00375
0 0.1 -1.275 0.00375
1.1744 0.1 0.497102 0.00377383
1.1744 0.1 -0.497102 0.00377217
1.15704 0.1 -0.537184 0.00376211
1.15704 0.1 0.537184 0.00376385
1.2756 0.1 -0.03061 0.00383997
1.2756 0.1 0.03061 0.00383994
0.67013 0.1 1.0875 0.00370161
0.67013 0.1 -1.0875 0.00370154
1.2756 0.1 -0.09183 0.00383891
1.2756 0.1 0.09183 0.00383883
1.25511 0.1 -0.248978 0.0038231
1.25511 0.1 0.248978 0.00382304
1.20938 0.1 0.419453 0.003793
1.20938 0.1 -0.419453 0.00379231
1.11928 0.1 -0.621322 0.00374195
1.11928 0.1 0.621322 0.00374378
1.14316 0.1 -0.576659 0.00375363
1.14316 0.1 0.576659 0.00375556
1.19808 0.1 -0.455673 0.00378476
1.19808 0.1 0.455673 0.00378594
1.02149 0.1 0.776219 0.00370877
1.02149 0.1 -0.776219 0.00370725
0.150379 0.1 1.275 0.00374865
0.150379 0.1 -1.275 0.00374862
1.2756 0.1 -0.15305 0.00383683
1.2756 0.1 0.15305 0.00383674
1.2267 0.1 -0.381989 0.0038022
1.2267 0.1 0.381989 0.00380257
1.10076 0.1 -0.664638 0.00373236
1.10076 0.1 0.664638 0.00373419