# kMean  POINT_DATA 63840
# x  y  z  kMean
0 0.5 3.39583e-17 0.00375
0 0.5 -0.00617931 0.00375
0 0.5 0.00617931 0.00375
0.0124865 0.5 -0.00617931 0.00375032
0.0124865 0.5 0.00617931 0.00375032
0 0.5 -0.0688207 0.00375
0 0.5 0.0688207 0.00375
0.0124865 0.5 -0.0688207 0.00375032
0.0124865 0.5 0.0688207 0.00375032
0 0.5 -0.075 0.00375
0 0.5 0.075 0.00375
0 0.5 -0.0811793 0.00375
0 0.5 0.0811793 0.00375
0.0124865 0.5 -0.0811793 0.00375033
0.0124865 0.5 0.0811793 0.00375033
0.075776 0.5 -0.0375 0.00375196
0.075776 0.5 0.0375 0.00375197
0.075776 0.5 -0.1125 0.003752
0.075776 0.5 0.1125 0.00375201
0 0.5 -0.143821 0.00375
0 0.5 0.143821 0.00375
0.0124865 0.5 -0.143821 0.00375033
0.0124865 0.5 0.143821 0.00375033
0 0.5 -0.15 0.00375
0 0.5 0.15 0.00375
0.151149 0.5 -0.00137318 0.00375432
0 0.5 -0.156179 0.00375
0 0.5 0.156179 0.00375
0.0124865 0.5 -0.156179 0.00375035
0.0124865 0.5 0.156179 0.00375035
0.151149 0.5 0.075 0.00375439
0.151149 0.5 -0.075 0.00375438
0.075776 0.5 -0.1875 0.00375211
0.075776 0.5 0.1875 0.00375212
0.151149 0.5 0.15 0.00375454
0.151149 0.5 -0.15 0.00375453
0 0.5 -0.218821 0.00375
0 0.5 0.218821 0.00375
0.0124865 0.5 -0.218821 0.00375035
0.0124865 0.5 0.218821 0.00375035
0.219992 0.5 0.0375 0.00375656
0.219993 0.5 -0.0375 0.00375656
0 0.5 -0.225 0.00375
0 0.5 0.225 0.00375
0 0.5 -0.231179 0.00375
0 0.5 0.231179 0.00375
0.0124865 0.5 -0.231179 0.00375037
0.0124865 0.5 0.231179 0.00375038
0.219992 0.5 0.1125 0.00375669
0.219993 0.5 -0.1125 0.00375669
0.151149 0.5 -0.225 0.00375479
0.151149 0.5 0.225 0.00375479
0.075776 0.5 -0.2625 0.00375227
0.075776 0.5 0.2625 0.00375228
0.288069 0.5 -0.00137318 0.0037612
0.219992 0.5 0.1875 0.003757
0.219993 0.5 -0.1875 0.003757
0 0.5 0.293821 0.00375
0 0.5 -0.293821 0.00375
0.0124865 0.5 -0.293821 0.00375037
0.0124865 0.5 0.293821 0.00375038
0.288069 0.5 -0.075 0.00376131
0.288069 0.5 0.075 0.0037613
0 0.5 -0.3 0.00375
0 0.5 0.3 0.00375
0 0.5 0.306179 0.00375
0 0.5 -0.306179 0.00375
0.0124865 0.5 -0.306179 0.00375041
0.0124865 0.5 0.306179 0.00375041
0.288069 0.5 -0.15 0.00376155
0.288069 0.5 0.15 0.00376153
0.151149 0.5 -0.3 0.00375512
0.151149 0.5 0.3 0.00375513
0.219992 0.5 -0.2625 0.00375743
0.219992 0.5 0.2625 0.00375743
0.075776 0.5 0.3375 0.00375248
0.075776 0.5 -0.3375 0.00375246
0.350249 0.5 -0.0375 0.00376562
0.350249 0.5 0.0375 0.00376561
0.288069 0.5 -0.225 0.00376194
0.288069 0.5 0.225 0.00376192
0.350249 0.5 0.1125 0.00376574
0.350249 0.5 -0.1125 0.00376578
0 0.5 0.368821 0.00375
0 0.5 -0.368821 0.00375
0.0124865 0.5 -0.368821 0.00375041
0.0124865 0.5 0.368821 0.00375041
0 0.5 -0.375 0.00375
0 0.5 0.375 0.00375
0 0.5 -0.381179 0.00375
0 0.5 0.381179 0.00375
0.0124865 0.5 -0.381179 0.00375044
0.0124865 0.5 0.381179 0.00375044
0.350249 0.5 -0.1875 0.00376614
0.350249 0.5 0.1875 0.00376609
0.219992 0.5 -0.3375 0.00375796
0.219992 0.5 0.3375 0.00375796
0.151149 0.5 -0.375 0.00375551
0.151149 0.5 0.375 0.00375552
0.411736 0.5 -0.00137318 0.00377279
0.288069 0.5 -0.3 0.00376245
0.288069 0.5 0.3 0.00376242
0.411736 0.5 -0.075 0.00377292
0.411736 0.5 0.075 0.00377288
0.075776 0.5 -0.4125 0.00375268
0.075776 0.5 0.4125 0.00375269
0.350249 0.5 -0.2625 0.00376662
0.350249 0.5 0.2625 0.00376656
0.411736 0.5 -0.15 0.00377314
0.411736 0.5 0.15 0.00377307
0 0.5 -0.443821 0.00375
0 0.5 0.443821 0.00375
0.0124865 0.5 -0.443821 0.00375044
0.0124865 0.5 0.443821 0.00375044
0 0.5 -0.45 0.00375
0 0.5 0.45 0.00375
0 0.5 -0.456179 0.00375
0 0.5 0.456179 0.00375
0.0124865 0.5 -0.456179 0.00375048
0.0124865 0.5 0.456179 0.00375048
0.219992 0.5 -0.4125 0.00375854
0.219993 0.5 0.4125 0.00375855
0.411736 0.5 -0.225 0.0037735
0.411736 0.5 0.225 0.00377341
0.467897 0.5 0.0375 0.00377962
0.467897 0.5 -0.0375 0.00377964
0.288069 0.5 -0.375 0.00376304
0.288069 0.5 0.375 0.003763
0.151149 0.5 -0.45 0.00375592
0.151149 0.5 0.45 0.00375593
0.467897 0.5 -0.1125 0.00377976
0.467897 0.5 0.1125 0.00377969
0.350249 0.5 0.3375 0.00376713
0.350249 0.5 -0.3375 0.0037672
0.075776 0.5 -0.4875 0.00375289
0.075776 0.5 0.4875 0.00375291
0.467897 0.5 -0.1875 0.00378002
0.467897 0.5 0.1875 0.00377991
0.411736 0.5 -0.3 0.00377395
0.411736 0.5 0.3 0.00377385
0 0.5 -0.518821 0.00375
0 0.5 0.518821 0.00375
0.0124865 0.5 0.518821 0.00375048
0.0124865 0.5 -0.518821 0.00375048
0.523432 0.5 -0.00137318 0.00378914
0 0.5 -0.525 0.00375
0 0.5 0.525 0.00375
0.523432 0.5 -0.075 0.00378926
0.523432 0.5 0.075 0.0037892
0 0.5 -0.531179 0.00375
0 0.5 0.531179 0.00375
0.0124865 0.5 -0.531179 0.00375051
0.0124865 0.5 0.531179 0.00375051
0.288069 0.5 -0.45 0.00376366
0.288069 0.5 0.45 0.00376362
0.219992 0.5 -0.4875 0.00375914
0.219993 0.5 0.4875 0.00375915
0.467897 0.5 -0.2625 0.00378037
0.467897 0.5 0.2625 0.00378025
0.350249 0.5 -0.4125 0.00376784
0.350249 0.5 0.4125 0.00376777
0.523432 0.5 -0.15 0.00378937
0.523432 0.5 0.15 0.00378926
0.151149 0.5 -0.525 0.00375632
0.151149 0.5 0.525 0.00375634
0.411736 0.5 -0.375 0.00377446
0.411736 0.5 0.375 0.00377435
0.075776 0.5 -0.5625 0.0037531
0.075776 0.5 0.5625 0.00375312
0.523432 0.5 -0.225 0.00378954
0.523432 0.5 0.225 0.00378941
0.574156 0.5 -0.0375 0.00379827
0.574156 0.5 0.0375 0.00379824
0.467897 0.5 0.3375 0.00378063
0.467897 0.5 -0.3375 0.00378077
0.574156 0.5 -0.1125 0.00379829
0.574156 0.5 0.1125 0.0037982
0 0.5 -0.593821 0.00375
0 0.5 0.593821 0.00375
0.0124865 0.5 -0.593821 0.00375051
0.0124865 0.5 0.593821 0.00375051
0.288069 0.5 -0.525 0.00376426
0.288069 0.5 0.525 0.00376424
0 0.5 -0.6 0.00375
0 0.5 0.6 0.00375
0.350249 0.5 -0.4875 0.00376849
0.350249 0.5 0.4875 0.00376843
0.523432 0.5 -0.3 0.00378974
0.523432 0.5 0.3 0.0037896
0.219992 0.5 -0.5625 0.00375972
0.219992 0.5 0.5625 0.00375974
0.574156 0.5 -0.1875 0.00379835
0.574156 0.5 0.1875 0.0037982
0 0.5 -0.606179 0.00375
0 0.5 0.606179 0.00375
0.0124865 0.5 -0.606179 0.00375054
0.0124865 0.5 0.606179 0.00375055
0.411736 0.5 -0.45 0.00377497
0.411736 0.5 0.45 0.00377487
0.151149 0.5 -0.6 0.0037567
0.151149 0.5 0.6 0.00375673
0.62168 0.5 2.64545e-17 0.00380922
0.467897 0.5 0.4125 0.00378104
0.467897 0.5 -0.4125 0.00378118
0.624316 0.5 0.0729402 0.00380985
0.624316 0.5 -0.075 0.0038099
0.574156 0.5 -0.2625 0.00379839
0.574157 0.5 0.2625 0.00379823
0.075776 0.5 -0.6375 0.00375328
0.075776 0.5 0.6375 0.00375331
0.624316 0.5 -0.15 0.00380982
0.624316 0.5 0.15 0.00380971
0.523432 0.5 -0.375 0.00378994
0.523432 0.5 0.375 0.00378979
0.350249 0.5 -0.5625 0.0037691
0.350249 0.5 0.5625 0.00376905
0.624316 0.5 -0.225 0.00380968
0.624316 0.5 0.225 0.00380954
0.288069 0.5 0.6 0.00376483
0.288069 0.5 -0.6 0.00376483
0.574156 0.5 -0.3375 0.00379842
0.574156 0.5 0.3375 0.00379825
0.411736 0.5 -0.525 0.00377545
0.411736 0.5 0.525 0.00377537
0 0.5 -0.668821 0.00375
0 0.5 0.668821 0.00375
0.0124865 0.5 -0.668821 0.00375054
0.0124865 0.5 0.668821 0.00375055
0.67013 0.5 0.0375 0.00382097
0.67013 0.5 -0.0375 0.003821
0.219993 0.5 -0.6375 0.00376026
0.219993 0.5 0.6375 0.00376029
0 0.5 -0.675 0.00375
0 0.5 0.675 0.00375
0.467897 0.5 0.4875 0.00378143
0.467897 0.5 -0.4875 0.00378156
0.67013 0.5 -0.1125 0.00382085
0.67013 0.5 0.1125 0.00382077
0 0.5 -0.681179 0.00375
0 0.5 0.681179 0.00375
0.0124865 0.5 -0.681179 0.00375057
0.0124865 0.5 0.681179 0.00375057
0.523432 0.5 -0.45 0.00379008
0.523432 0.5 0.45 0.00378994
0.151149 0.5 -0.675 0.00375705
0.151149 0.5 0.675 0.00375708
0.624316 0.5 -0.3 0.00380948
0.624316 0.5 0.3 0.00380932
0.67013 0.5 0.1875 0.00382047
0.67013 0.5 -0.1875 0.00382061
0.574156 0.5 -0.4125 0.00379838
0.574157 0.5 0.4125 0.00379822
0.708171 0.5 1.88651e-17 0.00383224
0.075776 0.5 -0.7125 0.00375344
0.075776 0.5 0.7125 0.00375347
0.715434 0.5 0.0736268 0.00383397
0.715434 0.5 -0.075 0.00383429
0.67013 0.5 0.2625 0.00382007
0.67013 0.5 -0.2625 0.00382021
0.350249 0.5 -0.6375 0.00376964
0.350249 0.5 0.6375 0.00376962
0.411736 0.5 -0.6 0.00377587
0.411736 0.5 0.6 0.00377581
0.624316 0.5 -0.375 0.00380918
0.624316 0.5 0.375 0.00380902
0.715434 0.5 -0.15 0.00383395
0.715434 0.5 0.15 0.00383386
0.467897 0.5 -0.5625 0.00378187
0.467897 0.5 0.5625 0.00378177
0.288069 0.5 -0.675 0.00376533
0.288069 0.5 0.675 0.00376534
0.523432 0.5 -0.525 0.00379015
0.523432 0.5 0.525 0.00379003
0 0.5 -0.743821 0.00375
0 0.5 0.743821 0.00375
0.0124865 0.5 -0.743821 0.00375057
0.0124865 0.5 0.743821 0.00375057
0.219992 0.5 0.7125 0.00376076
0.219992 0.5 -0.7125 0.00376072
0.715434 0.5 -0.225 0.0038334
0.715434 0.5 0.225 0.00383329
0 0.5 -0.75 0.00375
0 0.5 0.75 0.00375
0.67013 0.5 0.3375 0.00381959
0.67013 0.5 -0.3375 0.00381977
0.574156 0.5 -0.4875 0.00379824
0.574156 0.5 0.4875 0.0037981
0 0.5 -0.756179 0.00375
0 0.5 0.756179 0.00375
0.0124865 0.5 -0.756179 0.00375059
0.0124865 0.5 0.756179 0.00375059
0.756813 0.5 -0.0375 0.0038472
0.756813 0.5 0.0375 0.00384719
0.151149 0.5 -0.75 0.00375733
0.151149 0.5 0.75 0.00375737
0.756813 0.5 -0.1125 0.00384686
0.756813 0.5 0.1125 0.0038468
0.624316 0.5 -0.45 0.00380873
0.624316 0.5 0.45 0.0038086
0.715434 0.5 -0.3 0.00383267
0.715434 0.5 0.3 0.00383255
0.756813 0.5 0.1875 0.00384615
0.756813 0.5 -0.1875 0.00384624
0.67013 0.5 -0.4125 0.00381905
0.67013 0.5 0.4125 0.00381892
0.411736 0.5 -0.675 0.00377618
0.411736 0.5 0.675 0.00377616
0.467897 0.5 0.6375 0.00378202
0.467897 0.5 -0.6375 0.00378208
0.075776 0.5 -0.7875 0.00375357
0.075776 0.5 0.7875 0.0037536
0.350249 0.5 -0.7125 0.00377008
0.350249 0.5 0.7125 0.00377009
0.523432 0.5 -0.6 0.0037901
0.523432 0.5 0.6 0.00379003
0.797732 0.5 2.68882e-17 0.00386218
0.756813 0.5 -0.2625 0.00384532
0.756814 0.5 0.2625 0.00384524
0.797732 0.5 0.0736268 0.0038618
0.797732 0.5 -0.075 0.00386194
0.288069 0.5 -0.75 0.00376573
0.288069 0.5 0.75 0.00376577
0.574156 0.5 -0.5625 0.00379798
0.574157 0.5 0.5625 0.00379788
0.715434 0.5 -0.375 0.00383172
0.715434 0.5 0.375 0.00383162
0.797732 0.5 -0.15 0.00386126
0.797732 0.5 0.15 0.00386123
0.624316 0.5 -0.525 0.00380813
0.624316 0.5 0.525 0.00380804
0.219992 0.5 -0.7875 0.00376109
0.219992 0.5 0.7875 0.00376115
0 0.5 -0.818821 0.00375
0 0.5 0.818821 0.00375
0.0124865 0.5 0.818821 0.00375059
0.0124865 0.5 -0.818821 0.00375059
0 0.5 -0.825 0.00375
0 0.5 0.825 0.00375
0.756813 0.5 0.3375 0.0038441
0.756814 0.5 -0.3375 0.0038442
0.67013 0.5 -0.4875 0.00381816
0.67013 0.5 0.4875 0.00381808
0.797732 0.5 -0.225 0.00386018
0.797732 0.5 0.225 0.00386015
0 0.5 -0.831179 0.00375
0 0.5 0.831179 0.00375
0.0124865 0.5 -0.831179 0.0037506
0.0124865 0.5 0.831179 0.00375061
0.835106 0.5 0.0375 0.00387652
0.835106 0.5 -0.0375 0.00387651
0.151149 0.5 -0.825 0.00375755
0.151149 0.5 0.825 0.0037576
0.835106 0.5 0.1125 0.0038759
0.835106 0.5 -0.1125 0.0038759
0.715434 0.5 -0.45 0.00383048
0.715434 0.5 0.45 0.00383045
0.797732 0.5 -0.3 0.00385873
0.797732 0.5 0.3 0.00385872
0.467897 0.5 0.7125 0.00378216
0.467897 0.5 -0.7125 0.00378217
0.523432 0.5 -0.675 0.00378993
0.523432 0.5 0.675 0.00378991
0.411736 0.5 -0.75 0.00377638
0.411736 0.5 0.75 0.0037764
0.835106 0.5 -0.1875 0.00387477
0.835106 0.5 0.1875 0.00387478
0.574156 0.5 -0.6375 0.00379757
0.574157 0.5 0.6375 0.00379753
0.350249 0.5 -0.7875 0.00377041
0.350249 0.5 0.7875 0.00377045
0.756813 0.5 -0.4125 0.0038427
0.756814 0.5 0.4125 0.00384269
0.075776 0.5 -0.8625 0.00375366
0.075776 0.5 0.8625 0.00375369
0.624316 0.5 0.6 0.00380735
0.624316 0.5 -0.6 0.00380737
0.872064 0.5 5.91974e-17 0.00389208
0.870122 0.5 0.075 0.00389079
0.288069 0.5 -0.825 0.00376602
0.288069 0.5 0.825 0.00376608
0.67013 0.5 -0.5625 0.00381709
0.67013 0.5 0.5625 0.00381708
0.872064 0.5 -0.075 0.00389172
0.835106 0.5 -0.2625 0.00387314
0.835106 0.5 0.2625 0.00387319
0.797732 0.5 -0.375 0.00385696
0.797732 0.5 0.375 0.003857
0.872064 0.5 0.14794 0.00389082
0.872064 0.5 -0.15 0.00389076
0.715434 0.5 -0.525 0.00382902
0.715434 0.5 0.525 0.00382905
0.219992 0.5 0.8625 0.00376144
0.219993 0.5 -0.8625 0.00376137
0 0.5 -0.893821 0.00375
0 0.5 0.893821 0.00375
0.0124865 0.5 -0.893821 0.0037506
0.0124865 0.5 0.893821 0.00375061
0 0.5 -0.9 0.00375
0 0.5 0.9 0.00375
0.756813 0.5 -0.4875 0.0038409
0.756813 0.5 0.4875 0.00384097
0.872064 0.5 -0.225 0.00388923
0.872064 0.5 0.225 0.00388933
0.835106 0.5 -0.3375 0.00387109
0.835106 0.5 0.3375 0.00387116
0 0.5 0.906179 0.00375
0 0.5 -0.906179 0.00375
0.0124865 0.5 -0.906179 0.00375061
0.0124865 0.5 0.906179 0.00375062
0.90582 0.5 -0.0375 0.00390702
0.90582 0.5 0.0375 0.00390706
0.151149 0.5 -0.9 0.00375771
0.151149 0.5 0.9 0.00375776
0.90582 0.5 -0.1125 0.00390627
0.905821 0.5 0.1125 0.00390636
0.523432 0.5 -0.75 0.00378961
0.523432 0.5 0.75 0.00378966
0.574156 0.5 -0.7125 0.00379702
0.574156 0.5 0.7125 0.00379705
0.797732 0.5 -0.45 0.00385482
0.797732 0.5 0.45 0.00385495
0.467897 0.5 0.7875 0.00378217
0.467897 0.5 -0.7875 0.00378212
0.624316 0.5 -0.675 0.00380644
0.624316 0.5 0.675 0.0038065
0.411736 0.5 -0.825 0.00377644
0.411736 0.5 0.825 0.00377651
0.872064 0.5 0.3 0.00388734
0.872064 0.5 -0.3 0.00388718
0.67013 0.5 -0.6375 0.00381583
0.67013 0.5 0.6375 0.0038159
0.90582 0.5 0.1875 0.00390503
0.905821 0.5 -0.1875 0.0039049
0.350249 0.5 -0.8625 0.00377061
0.350249 0.5 0.8625 0.00377069
0.835106 0.5 -0.4125 0.00386872
0.835106 0.5 0.4125 0.00386888
0.715434 0.5 -0.6 0.00382732
0.715434 0.5 0.6 0.00382745
0.939201 0.5 2.75387e-17 0.00392238
0.075776 0.5 0.9375 0.00375375
0.075776 0.5 -0.9375 0.00375372
0.939111 0.5 0.075 0.00392197
0.939201 0.5 -0.075 0.00392194
0.756813 0.5 0.5625 0.00383899
0.756814 0.5 -0.5625 0.00383883
0.90582 0.5 0.2625 0.00390314
0.905821 0.5 -0.2625 0.00390294
0.288069 0.5 -0.9 0.0037662
0.288069 0.5 0.9 0.00376628
0.872064 0.5 -0.375 0.00388463
0.872064 0.5 0.375 0.00388484
0.939201 0.5 0.148627 0.00392084
0.939201 0.5 -0.15 0.00392079
0.797732 0.5 -0.525 0.00385231
0.797732 0.5 0.525 0.00385255
0.219992 0.5 0.9375 0.00376163
0.219992 0.5 -0.9375 0.00376155
0.939201 0.5 -0.225 0.00391898
0.939201 0.5 0.225 0.00391924
0.905821 0.5 -0.3375 0.00390041
0.90582 0.5 0.3375 0.00390069
0.835106 0.5 -0.4875 0.00386584
0.835106 0.5 0.4875 0.00386615
0 0.5 0.968821 0.00375
0 0.5 -0.968821 0.00375
0.0124865 0.5 -0.968821 0.00375061
0.0124865 0.5 0.968821 0.00375062
0.969689 0.5 -0.0375 0.00393716
0.969689 0.5 0.0375 0.00393723
0.574156 0.5 -0.7875 0.00379631
0.574156 0.5 0.7875 0.00379643
0 0.5 -0.975 0.00375
0 0.5 0.975 0.00375
0.624316 0.5 -0.75 0.00380534
0.624316 0.5 0.75 0.0038055
0.969689 0.5 -0.1125 0.00393627
0.96969 0.5 0.1125 0.00393645
0.523432 0.5 -0.825 0.00378915
0.523432 0.5 0.825 0.00378927
0.67013 0.5 0.7125 0.00381456
0.67013 0.5 -0.7125 0.00381439
0 0.5 -0.981179 0.00375
0 0.5 0.981179 0.00375
0.467897 0.5 0.8625 0.00378204
0.467897 0.5 -0.8625 0.00378192
0.0124865 0.5 -0.981179 0.00375062
0.0124865 0.5 0.981179 0.00375062
0.872064 0.5 -0.45 0.00388146
0.872064 0.5 0.45 0.00388181
0.715434 0.5 -0.675 0.00382541
0.715434 0.5 0.675 0.00382565
0.939201 0.5 -0.3 0.00391655
0.939201 0.5 0.3 0.0039169
0.151149 0.5 0.975 0.00375785
0.151149 0.5 -0.975 0.00375779
0.969689 0.5 -0.1875 0.00393467
0.969689 0.5 0.1875 0.00393495
0.756813 0.5 -0.6375 0.00383651
0.756813 0.5 0.6375 0.00383678
0.411736 0.5 -0.9 0.00377636
0.411736 0.5 0.9 0.00377648
0.90582 0.5 -0.4125 0.00389717
0.90582 0.5 0.4125 0.0038975
0.995005 0.5 0.0749309 0.00394811
0.797732 0.5 -0.6 0.00384949
0.797732 0.5 0.6 0.00384985
1.00005 0.5 -8.47123e-18 0.00395102
0.350249 0.5 -0.9375 0.00377066
0.350249 0.5 0.9375 0.00377077
1.00005 0.5 -0.0749309 0.00395051
0.969689 0.5 -0.2625 0.00393239
0.969689 0.5 0.2625 0.00393279
0.835106 0.5 -0.5625 0.00386258
0.835106 0.5 0.5625 0.00386301
1.00005 0.5 -0.149862 0.00394921
0.939201 0.5 -0.375 0.00391342
0.939201 0.5 0.375 0.00391385
1.00029 0.5 0.148988 0.00394919
0.075776 0.5 -1.0125 0.00375374
0.075776 0.5 1.0125 0.00375378
0.288069 0.5 0.975 0.00376636
0.288069 0.5 -0.975 0.00376625
0.872064 0.5 -0.525 0.00387777
0.872064 0.5 0.525 0.00387829
1.00005 0.5 0.224793 0.0039476
1.00005 0.5 -0.224793 0.00394719
0.969689 0.5 0.3375 0.00392997
0.96969 0.5 -0.3375 0.00392945
1.0271 0.5 -0.0368226 0.00396613
1.0271 0.5 0.0368226 0.00396623
0.90582 0.5 0.4875 0.00389361
0.905821 0.5 -0.4875 0.00389304
1.0271 0.5 -0.110468 0.00396518
1.0271 0.5 0.110468 0.00396683
0.67013 0.5 0.7875 0.00381306
0.67013 0.5 -0.7875 0.00381277
0.624316 0.5 0.825 0.00380435
0.624316 0.5 -0.825 0.00380409
0.219993 0.5 -1.0125 0.00376163
0.219993 0.5 1.0125 0.00376172
0.574156 0.5 -0.8625 0.00379544
0.574156 0.5 0.8625 0.00379565
0.715434 0.5 -0.75 0.00382331
0.715434 0.5 0.75 0.00382367
0.756813 0.5 0.7125 0.00383436
0.756814 0.5 -0.7125 0.00383396
0.523432 0.5 -0.9 0.00378853
0.523432 0.5 0.9 0.00378873
0.939201 0.5 -0.45 0.00390932
0.939201 0.5 0.45 0.00390996
1.04168 0.5 0 0.00397399
1.0271 0.5 -0.184113 0.00396344
1.0271 0.5 0.184113 0.00396385
0 0.5 -1.04382 0.00375
0 0.5 1.04382 0.00375
0.0124865 0.5 -1.04382 0.00375062
0.0124865 0.5 1.04382 0.00375062
1.00005 0.5 -0.299723 0.00394447
1.00005 0.5 0.299723 0.00394503
1.04168 0.5 -0.0729162 0.00397344
1.04168 0.5 0.0729162 0.00397363
0.797732 0.5 -0.675 0.00384641
0.797732 0.5 0.675 0.00384692
0.467897 0.5 0.9375 0.00378174
0.467897 0.5 -0.9375 0.00378157
0 0.5 -1.05 0.00375
0 0.5 1.05 0.00375
0.835106 0.5 -0.6375 0.00385902
0.835106 0.5 0.6375 0.0038596
1.04168 0.5 -0.145832 0.00397206
1.04168 0.5 0.145832 0.00397242
0.969689 0.5 -0.4125 0.00392564
0.96969 0.5 0.4125 0.00392625
0 0.5 -1.05618 0.00375
0 0.5 1.05618 0.00375
0.0124865 0.5 -1.05618 0.00375062
0.0124865 0.5 1.05618 0.00375062
1.05695 0.5 -0.0360764 0.00398181
1.05695 0.5 0.0360764 0.00398192
0.411736 0.5 -0.975 0.00377613
0.411736 0.5 0.975 0.00377629
0.872064 0.5 -0.6 0.0038737
0.872064 0.5 0.6 0.00387439
1.0271 0.5 -0.257759 0.00396098
1.0271 0.5 0.257759 0.00396155
0.151149 0.5 -1.05 0.00375781
0.151149 0.5 1.05 0.00375788
1.05695 0.5 0.108229 0.00398269
1.05695 0.5 -0.108229 0.0039808
1.04168 0.5 -0.218749 0.00396992
1.04168 0.5 0.218749 0.00397045
0.90582 0.5 -0.5625 0.00388856
0.905821 0.5 0.5625 0.00388933
1.00005 0.5 -0.374654 0.00394098
1.00005 0.5 0.374654 0.00394168
0.350249 0.5 1.0125 0.00377072
0.350249 0.5 -1.0125 0.00377057
1.05695 0.5 -0.180382 0.00397899
1.05695 0.5 0.180382 0.00397949
1.07319 0.5 0.0709442 0.00399082
0.939201 0.5 -0.525 0.00390429
0.939201 0.5 0.525 0.00390518
1.0271 0.5 -0.331404 0.00395781
1.0271 0.5 0.331404 0.00395855
1.08112 0.5 3.23815e-17 0.00399571
1.04168 0.5 -0.291665 0.00396706
1.04168 0.5 0.291665 0.00396777
1.08112 0.5 -0.0709442 0.00399513
0.969689 0.5 -0.4875 0.00392047
0.96969 0.5 0.4875 0.00392149
1.05695 0.5 0.252535 0.00397713
1.05695 0.5 -0.252535 0.00397643
0.288069 0.5 -1.05 0.00376618
0.288069 0.5 1.05 0.00376631
0.075776 0.5 -1.0875 0.00375374
0.075776 0.5 1.0875 0.00375378
1.08112 0.5 -0.141888 0.00399367
1.08145 0.5 0.140165 0.00399361
0.715434 0.5 0.825 0.00382153
0.715434 0.5 -0.825 0.00382105
0.756813 0.5 0.7875 0.00383177
0.756814 0.5 -0.7875 0.00383122
0.67013 0.5 -0.8625 0.003811
0.67013 0.5 0.8625 0.0038114
0.797732 0.5 -0.75 0.00384312
0.797732 0.5 0.75 0.00384377
0.624316 0.5 -0.9 0.00380268
0.624316 0.5 0.9 0.00380304
1.00005 0.5 -0.449585 0.00393637
1.00005 0.5 0.449585 0.00393734
0.835106 0.5 -0.7125 0.00385521
0.835106 0.5 0.7125 0.00385595
0.574156 0.5 -0.9375 0.00379442
0.574157 0.5 0.9375 0.00379472
1.10076 0.5 -0.0349809 0.00400708
1.10076 0.5 0.0349809 0.00400721
1.08112 0.5 -0.212832 0.00399142
1.08112 0.5 0.212832 0.00399208
0.872064 0.5 -0.675 0.00386928
0.872064 0.5 0.675 0.00387014
1.04168 0.5 -0.364581 0.00396343
1.04168 0.5 0.364581 0.00396431
1.0271 0.5 0.405049 0.00395467
1.0271 0.5 -0.405049 0.00395377
1.05695 0.5 -0.324688 0.00397316
1.05695 0.5 0.324688 0.00397406
1.10076 0.5 -0.104943 0.004006
1.10076 0.5 0.104943 0.00400639
0.523432 0.5 0.975 0.00378802
0.523432 0.5 -0.975 0.00378775
0.90582 0.5 0.6375 0.00388462
0.905821 0.5 -0.6375 0.00388365
0.219992 0.5 1.0875 0.00376171
0.219992 0.5 -1.0875 0.0037616
1.11376 0.5 3.81639e-17 0.00401496
0.939201 0.5 0.6 0.00389981
0.939201 0.5 -0.6 0.00389873
1.10076 0.5 -0.174905 0.00400408
1.10076 0.5 0.174905 0.0040047
0.467897 0.5 -1.0125 0.00378105
0.467897 0.5 1.0125 0.00378128
1.11376 0.5 -0.0693118 0.00401434
1.11376 0.5 0.0693118 0.00401462
1.08112 0.5 0.283777 0.0039893
1.08112 0.5 -0.283777 0.00398841
0 0.5 -1.11882 0.00375
0 0.5 1.11882 0.00375
0.0124865 0.5 -1.11882 0.00375062
0.0124865 0.5 1.11882 0.00375062
0.969689 0.5 -0.5625 0.00391418
0.969689 0.5 0.5625 0.00391537
1.11376 0.5 0.138624 0.00401321
1.11376 0.5 -0.138624 0.00401281
0 0.5 -1.125 0.00375
0 0.5 1.125 0.00375
1.10076 0.5 0.244866 0.00400222
1.10076 0.5 -0.244866 0.00400138
0.411736 0.5 -1.05 0.00377575
0.411736 0.5 1.05 0.00377596
1.05695 0.5 -0.396841 0.00396907
1.05695 0.5 0.396841 0.00397014
1.00005 0.5 -0.524516 0.00393042
1.00005 0.5 0.524516 0.00393172
1.04168 0.5 -0.437497 0.00395872
1.04168 0.5 0.437497 0.0039599
0 0.5 -1.13118 0.00375
0 0.5 1.13118 0.00375
0.0124865 0.5 -1.13118 0.00375061
0.0124865 0.5 1.13118 0.00375062
1.11376 0.5 -0.207935 0.00401046
1.11376 0.5 0.207935 0.00401123
1.0271 0.5 -0.478694 0.00394839
1.0271 0.5 0.478694 0.00394971
0.151149 0.5 -1.125 0.00375776
0.151149 0.5 1.125 0.00375784
1.08112 0.5 -0.354722 0.00398465
1.08112 0.5 0.354722 0.00398574
1.13882 0.5 -0.0340295 0.00403031
1.13882 0.5 0.0340295 0.00403047
0.350249 0.5 -1.0875 0.00377036
0.350249 0.5 1.0875 0.00377053
1.13882 0.5 -0.102088 0.00402916
1.13882 0.5 0.102088 0.00403047
1.10076 0.5 -0.314829 0.00399794
1.10076 0.5 0.314829 0.00399902
0.756813 0.5 -0.8625 0.00382833
0.756814 0.5 0.8625 0.00382902
0.797732 0.5 -0.825 0.00383964
0.797732 0.5 0.825 0.00384045
1.11376 0.5 -0.277247 0.00400732
1.11376 0.5 0.277247 0.00400835
0.835106 0.5 0.7875 0.00385208
0.835106 0.5 -0.7875 0.00385118
0.715434 0.5 -0.9 0.00381863
0.715434 0.5 0.9 0.00381924
0.872064 0.5 -0.75 0.00386457
0.872064 0.5 0.75 0.00386562
1.13882 0.5 0.170147 0.00402788
1.13882 0.5 -0.170147 0.00402714
0.67013 0.5 -0.9375 0.00380908
0.67013 0.5 0.9375 0.00380959
0.905821 0.5 -0.7125 0.00387828
0.905821 0.5 0.7125 0.00387946
1.05695 0.5 0.468994 0.00396519
1.05695 0.5 -0.468994 0.00396366
0.939201 0.5 -0.675 0.00389287
0.939201 0.5 0.675 0.00389417
0.624316 0.5 0.975 0.00380158
0.624316 0.5 -0.975 0.00380112
1.04168 0.5 -0.510414 0.00395261
1.04168 0.5 0.510414 0.00395418
0.969689 0.5 -0.6375 0.00390766
0.96969 0.5 0.6375 0.00390904
0.288069 0.5 -1.125 0.003766
0.288069 0.5 1.125 0.00376616
1.16179 0.5 5.78241e-19 0.00404562
1.08112 0.5 0.425666 0.00398127
1.08112 0.5 -0.425666 0.00397986
1.13882 0.5 -0.238206 0.00402428
1.13882 0.5 0.238206 0.0040253
1.16179 0.5 0.0669104 0.00404766
1.16179 0.5 -0.0669104 0.00404492
0.574156 0.5 -1.0125 0.00379323
0.574156 0.5 1.0125 0.00379362
0.075776 0.5 -1.1625 0.00375371
0.075776 0.5 1.1625 0.00375374
1.00005 0.5 -0.599447 0.00392367
1.00005 0.5 0.599447 0.00392518
1.10076 0.5 0.384791 0.00399499
1.10076 0.5 -0.384791 0.00399372
1.0271 0.5 -0.55234 0.00394167
1.0271 0.5 0.55234 0.00394327
1.11376 0.5 -0.346559 0.00400343
1.11376 0.5 0.346559 0.00400469
1.16179 0.5 -0.133821 0.00404326
1.16179 0.5 0.133821 0.00404429
0.523432 0.5 -1.05 0.00378681
0.523432 0.5 1.05 0.00378716
1.17463 0.5 -0.0331343 0.00405337
1.17463 0.5 0.0331343 0.00405354
1.17463 0.5 -0.0994029 0.00405213
1.17463 0.5 0.0994029 0.00405269
1.16179 0.5 -0.200731 0.00404072
1.16179 0.5 0.200731 0.00404172
1.13882 0.5 -0.306265 0.00402065
1.13882 0.5 0.306265 0.00402195
0.219992 0.5 -1.1625 0.00376148
0.219992 0.5 1.1625 0.00376159
0.467897 0.5 -1.0875 0.00378039
0.467897 0.5 1.0875 0.00378068
1.17463 0.5 0.165672 0.00405086
1.17463 0.5 -0.165672 0.00404999
1.05695 0.5 -0.541147 0.00395681
1.05695 0.5 0.541147 0.00395871
1.18772 0.5 -5.78241e-19 0.00406243
1.11376 0.5 -0.41587 0.00399856
1.11376 0.5 0.41587 0.00400014
1.18772 0.5 -0.065614 0.0040617
1.18772 0.5 0.065614 0.00406203
1.08112 0.5 -0.49661 0.00397368
1.08112 0.5 0.49661 0.00397554
1.10076 0.5 -0.454752 0.00398828
1.10076 0.5 0.454752 0.00399001
1.18534 0.5 0.118202 0.00406072
1.16179 0.5 -0.267642 0.00403735
1.16179 0.5 0.267642 0.00403867
0 0.5 -1.19382 0.00375
0 0.5 1.19382 0.00375
0.0124865 0.5 1.19382 0.00375062
0.0124865 0.5 -1.19382 0.00375061
1.04168 0.5 -0.58333 0.0039455
1.04168 0.5 0.58333 0.00394732
1.18772 0.5 -0.131228 0.00405997
1.17463 0.5 -0.23194 0.00404697
1.17463 0.5 0.23194 0.00404815
0.411736 0.5 -1.125 0.00377524
0.411736 0.5 1.125 0.0037755
1.13882 0.5 -0.374324 0.00401624
1.13882 0.5 0.374324 0.00401778
0 0.5 -1.2 0.00375
0 0.5 1.2 0.00375
0.905821 0.5 0.7875 0.00387411
0.905821 0.5 -0.7875 0.00387273
0.872064 0.5 -0.825 0.00385968
0.872064 0.5 0.825 0.00386091
0.835106 0.5 0.8625 0.00384806
0.835106 0.5 -0.8625 0.003847
0.939201 0.5 -0.75 0.00388671
0.939201 0.5 0.75 0.00388825
0.797732 0.5 -0.9 0.00383602
0.797732 0.5 0.9 0.00383698
1.0271 0.5 0.625985 0.0039362
1.0271 0.5 -0.625985 0.0039344
0.969689 0.5 0.7125 0.00390274
0.96969 0.5 -0.7125 0.00390108
1.18772 0.5 -0.196842 0.00405732
1.18772 0.5 0.196842 0.00405841
0.756814 0.5 -0.9375 0.0038253
0.756814 0.5 0.9375 0.00382613
0 0.5 1.20618 0.00375
0 0.5 -1.20618 0.00375
1.00005 0.5 -0.674378 0.0039166
1.00005 0.5 0.674378 0.00391835
0.0124865 0.5 1.20618 0.00375061
0.0124865 0.5 -1.20618 0.0037506
1.16179 0.5 -0.334552 0.0040332
1.16179 0.5 0.334552 0.0040348
0.715434 0.5 0.975 0.0038168
0.715434 0.5 -0.975 0.00381606
0.151149 0.5 -1.2 0.00375765
0.151149 0.5 1.2 0.00375773
1.20942 0.5 0.0322645 0.00407793
1.20942 0.5 -0.0322645 0.00407746
1.17463 0.5 -0.298209 0.00404314
1.17463 0.5 0.298209 0.00404465
1.20942 0.5 -0.0967935 0.00407614
1.20942 0.5 0.0967935 0.00407678
0.350249 0.5 -1.1625 0.00377002
0.350249 0.5 1.1625 0.00377023
0.67013 0.5 1.0125 0.00380764
0.67013 0.5 -1.0125 0.00380701
1.11376 0.5 0.485183 0.0039944
1.11376 0.5 -0.485183 0.00399234
1.18772 0.5 0.262456 0.00405524
1.18772 0.5 -0.262456 0.00405382
1.10076 0.5 -0.524714 0.00398134
1.10076 0.5 0.524714 0.00398354
1.20942 0.5 -0.161322 0.00407385
1.20942 0.5 0.161322 0.00407487
1.08112 0.5 -0.567554 0.00396641
1.08112 0.5 0.567554 0.0039686
0.624316 0.5 -1.05 0.00379941
0.624316 0.5 1.05 0.00379997
1.13882 0.5 -0.442383 0.0040107
1.13882 0.5 0.442383 0.0040127
1.05695 0.5 0.6133 0.00395144
1.05695 0.5 -0.6133 0.00394933
1.16179 0.5 -0.401463 0.00402813
1.16179 0.5 0.401463 0.00403009
0.574156 0.5 -1.0875 0.0037919
0.574156 0.5 1.0875 0.00379238
1.17463 0.5 0.364477 0.00404031
1.17463 0.5 -0.364477 0.00403855
1.20942 0.5 -0.225851 0.00407065
1.20942 0.5 0.225851 0.00407202
1.23036 0.5 -1.32995e-17 0.0040934
1.2294 0.5 0.0634819 0.00409253
1.04168 0.5 -0.656246 0.00393786
1.04168 0.5 0.656246 0.00393993
1.23036 0.5 -0.0634819 0.00409259
1.18772 0.5 0.32807 0.00405125
1.18772 0.5 -0.32807 0.00404952
0.288069 0.5 -1.2 0.00376571
0.288069 0.5 1.2 0.00376589
1.23036 0.5 -0.126964 0.00409069
1.23036 0.5 0.126964 0.00409165
0.075776 0.5 -1.2375 0.00375364
0.075776 0.5 1.2375 0.00375367
0.523432 0.5 -1.125 0.00378576
0.523432 0.5 1.125 0.00378618
1.0271 0.5 -0.69963 0.0039266
1.0271 0.5 0.69963 0.0039287
1.24274 0.5 0.0314313 0.00410238
1.24274 0.5 -0.0314313 0.00410215
1.20942 0.5 0.29038 0.00406833
1.20942 0.5 -0.29038 0.00406659
1.11376 0.5 -0.554494 0.00398496
1.11376 0.5 0.554494 0.00398742
1.23036 0.5 -0.190445 0.00408782
1.23036 0.5 0.190445 0.0040892
1.24274 0.5 -0.0942942 0.00410074
1.24274 0.5 0.0942942 0.00410147
1.13882 0.5 0.510442 0.00400625
1.13882 0.5 -0.510442 0.00400372
0.969689 0.5 -0.7875 0.00389399
0.969689 0.5 0.7875 0.0038959
1.00005 0.5 -0.749309 0.00390907
1.00005 0.5 0.749309 0.00391111
0.939201 0.5 -0.825 0.00388031
0.939201 0.5 0.825 0.00388205
0.90582 0.5 0.8625 0.00386857
0.90582 0.5 -0.8625 0.00386702
1.17463 0.5 -0.430746 0.00403291
1.17463 0.5 0.430746 0.00403512
1.10076 0.5 -0.594676 0.00397361
1.10076 0.5 0.594676 0.00397608
1.18772 0.5 -0.393684 0.00404432
1.18772 0.5 0.393684 0.00404641
1.24274 0.5 -0.157157 0.0040983
1.24274 0.5 0.157157 0.00409947
1.16179 0.5 -0.468373 0.00402179
1.16179 0.5 0.468373 0.00402428
0.467897 0.5 -1.1625 0.00377962
0.467897 0.5 1.1625 0.00377997
0.872064 0.5 -0.9 0.00385465
0.872064 0.5 0.9 0.00385605
1.25401 0.5 2.08167e-17 0.00411053
0.835106 0.5 0.9375 0.00384391
0.835106 0.5 -0.9375 0.00384267
1.25401 0.5 -0.0622994 0.00410968
1.25401 0.5 0.0622994 0.00411031
1.08112 0.5 -0.638498 0.00395852
1.08112 0.5 0.638498 0.00396097
1.23036 0.5 -0.253927 0.00408403
1.23036 0.5 0.253927 0.00408582
0.219992 0.5 1.2375 0.00376138
0.219992 0.5 -1.2375 0.00376126
1.25309 0.5 0.121964 0.00410872
1.05695 0.5 0.685452 0.00394372
1.05695 0.5 -0.685452 0.00394131
0.797732 0.5 0.975 0.00383338
0.797732 0.5 -0.975 0.00383226
1.25401 0.5 -0.124599 0.0041077
1.20942 0.5 -0.354909 0.00406175
1.20942 0.5 0.354909 0.00406379
1.24274 0.5 -0.220019 0.00409489
1.24274 0.5 0.220019 0.00409647
0.756814 0.5 -1.0125 0.0038221
0.756813 0.5 1.0125 0.00382308
1.25401 0.5 -0.186898 0.00410471
1.25401 0.5 0.186898 0.00410618
0.411736 0.5 -1.2 0.00377463
0.411736 0.5 1.2 0.00377494
0 0.5 -1.26882 0.00375
0 0.5 1.26882 0.00375
0.0124865 0.5 1.26882 0.00375061
0.0124865 0.5 -1.26882 0.0037506
0.715434 0.5 -1.05 0.00381337
0.715434 0.5 1.05 0.00381423
1.23036 0.5 -0.31741 0.0040794
1.23036 0.5 0.31741 0.00408156
1.04168 0.5 -0.729162 0.00392964
1.04168 0.5 0.729162 0.00393201
1.18772 0.5 -0.459298 0.00403789
1.18772 0.5 0.459298 0.00404052
1.24274 0.5 -0.282882 0.00409058
1.24274 0.5 0.282882 0.00409257
0 0.5 -1.275 0.00375
0 0.5 1.275 0.00375
1.27472 0.5 -0.0306319 0.00412767
1.27472 0.5 0.0306319 0.00412793
1.17463 0.5 0.497015 0.00402863
1.17463 0.5 -0.497015 0.00402582
1.11376 0.5 -0.623806 0.00397689
1.11376 0.5 0.623806 0.00397964
1.13882 0.5 -0.578501 0.00399581
1.13882 0.5 0.578501 0.0039987
0.67013 0.5 -1.0875 0.00380482
0.67013 0.5 1.0875 0.00380556
1.27472 0.5 -0.0918959 0.00412615
1.27472 0.5 0.0918959 0.00412382
1.25401 0.5 -0.249197 0.00410075
1.25401 0.5 0.249197 0.00410266
1.16179 0.5 -0.535284 0.00401422
1.16179 0.5 0.535284 0.00401721
1.20942 0.5 -0.419438 0.00405592
1.20942 0.5 0.419438 0.00405841
0 0.5 -1.28118 0.00375
0 0.5 1.28118 0.00375
0.0124865 0.5 1.28118 0.00375059
0.0124865 0.5 -1.28118 0.00375059
1.27472 0.5 0.15316 0.0041249