# nutMean  POINT_DATA 91129
# x  y  z  nutMean
0 0 0 5.05939e-06
0 0.00368111 0 1.85758e-05
0 0.00749587 0 7.42076e-05
0 0.0114491 0 0.000274467
0 0.0155459 0 0.000714888
0 0.0197915 0 0.00183409
0 0.0241911 0 0.00273163
0 0.0287506 0 0.00303238
0 0.0334755 0 0.00343743
0 0.038372 0 0.00371937
0 0.0434463 0 0.00392028
0 0.0487048 0 0.00407734
0 0.0541543 0 0.00421248
0 0.0598016 0 0.00434057
0 0.0656539 0 0.00447167
0 0.0717187 0 0.00460795
0.075776 0.00184055 0 9.06976e-06
0.075776 0.00558849 0 1.32828e-05
0.075776 0.00947248 -3.46945e-18 6.33649e-05
0.075776 0.0134975 -3.46945e-18 0.000299346
0.075776 0.0176687 3.46945e-18 0.000860861
0 0.0780037 0 0.0047475
0.075776 0.0219913 3.46945e-18 0.00174085
0.075776 0.0264709 3.46945e-18 0.00294465
0.075776 0.031113 -3.46945e-18 0.00444576
0.075776 0.0359237 -3.46945e-18 0.00618975
0 0.0845169 0 0.00488983
0.075776 0.0409092 0 0.00810997
0.075776 0.0460755 -3.46945e-18 0.0101358
0 0.0912666 0 0.00503507
0.075776 0.0514296 -3.46945e-18 0.0121974
0.075776 0.0569779 0 0.0142185
0 0.0982613 0 0.00518254
0.075776 0.0627278 0 0.0151595
0.075776 0.0686863 0 0.0156433
0 0.10551 0 0.00533071
0.075776 0.0748612 3.46945e-18 0.0161834
0.075776 0.0812603 -3.46945e-18 0.0167847
0 0.113022 0 0.00547762
0.075776 0.0878918 3.46945e-18 0.0174548
0 0.120806 0 0.00562415
0.075776 0.0947639 3.46945e-18 0.0182071
0.075776 0.101886 -3.46945e-18 0.0190679
0 0.128874 0 0.00578276
0.075776 0.109266 3.46945e-18 0.0200892
0 0.137234 0 0.00597223
0.075776 0.116914 3.46945e-18 0.0213399
0 0.145897 0 0.0061965
0.075776 0.12484 0 0.0228965
0.151552 0 0 0
0.151552 0.00368111 0 7.4617e-06
0.151552 0.00749587 0 2.54938e-05
0.151552 0.0114491 0 0.000113213
0.151552 0.0155459 0 0.000358417
0.151552 0.0197915 0 0.000817452
0.075776 0.133054 0 0.024771
0.151552 0.0241911 0 0.0015039
0.151552 0.0287506 0 0.00241722
0 0.154876 0 0.00644467
0.151552 0.0334755 0 0.00354013
0.151552 0.038372 0 0.00484378
0.151552 0.0434463 0 0.00629334
0.151552 0.0487048 0 0.00785153
0.075776 0.141566 0 0.0265962
0.151552 0.0541543 0 0.00947856
0.151552 0.0598016 0 0.0109013
0 0.16418 0 0.00671001
0.151552 0.0656539 0 0.0120142
0.151552 0.0717187 0 0.0130829
0.075776 0.150387 0 0.0280546
0.151552 0.0780037 0 0.0142219
0.151552 0.0845169 0 0.0154192
0 0.173822 0 0.00699172
0.075776 0.159528 0 0.0289013
0.151552 0.0912666 0 0.0166585
0.151552 0.0982613 0 0.0178927
0 0.183814 0 0.00728803
0.151552 0.10551 0 0.0190235
0.075776 0.169001 3.46945e-18 0.0289984
0.151552 0.113022 0 0.020111
0.151552 0.120806 0 0.0212213
0 0.194169 0 0.0075956
0.075776 0.178818 3.46945e-18 0.0284012
0.151552 0.128874 0 0.0225028
0.075776 0.188992 3.46945e-18 0.0273135
0.151552 0.137234 0 0.0239493
0 0.2049 0 0.00790801
0.151552 0.145897 0 0.0253068
0.075776 0.199535 0 0.0259683
0 0.21602 0 0.00821715
0.151552 0.154876 0 0.0264442
0.219992 0.00184055 0 2.60256e-06
0.219992 0.00558849 0 5.46315e-06
0.219992 0.00947248 -3.46945e-18 2.18385e-05
0.219992 0.0134975 3.46945e-18 7.87857e-05
0.219992 0.0176687 0 0.000228785
0.219992 0.0219913 0 0.000513677
0.219993 0.0264709 -3.46945e-18 0.000945445
0.219992 0.031113 -3.46945e-18 0.00152961
0.219992 0.0359238 3.46945e-18 0.0022688
0.151552 0.16418 0 0.0272125
0.075776 0.21046 0 0.024492
0.219992 0.0409092 3.46945e-18 0.00316126
0.219992 0.0460755 0 0.0042015
0.219993 0.0514296 -3.46945e-18 0.00538127
0.219992 0.0569779 0 0.00669056
0 0.227544 0 0.00857001
0.219992 0.0627277 3.46945e-18 0.0081191
0.219992 0.0686863 0 0.00965555
0.151552 0.173822 0 0.0275448
0.219992 0.0748612 3.46945e-18 0.0112843
0.075776 0.221782 0 0.0229539
0.219992 0.0812603 3.46945e-18 0.0129829
0.219992 0.0878917 -3.46945e-18 0.0147157
0.151552 0.183814 0 0.0274834
7.47806e-17 0.239487 0 0.0090249
0.219992 0.0947639 3.46945e-18 0.0164363
0.219993 0.101886 3.46945e-18 0.0179738
0.075776 0.233516 0 0.0219816
0.219993 0.109266 0 0.0190484
0.151552 0.194169 0 0.0271329
0.219993 0.116914 0 0.0200592
0 0.251863 0 0.00955526
0.219993 0.12484 0 0.0207276
0.151552 0.2049 0 0.0265856
0.075776 0.245675 0 0.0216136
0.219992 0.133054 3.46945e-18 0.0218207
0.219992 0.141565 0 0.0228756
0.151552 0.21602 0 0.025894
0 0.264688 0 0.010127
0.219992 0.150387 3.46945e-18 0.0240108
0.075776 0.258275 3.46945e-18 0.0214158
0.219992 0.159528 -3.46945e-18 0.0251225
0.151552 0.227544 0 0.0252285
0.219992 0.169001 3.46945e-18 0.0260946
0 0.27798 0 0.0107414
0.075776 0.271334 3.46945e-18 0.0213495
0.151552 0.239487 3.70071e-18 0.0247535
0.219992 0.178818 3.46945e-18 0.0268622
0.288433 0 0 0
0.288433 0.00368111 0 3.08263e-06
0.288433 0.00749587 0 1.14125e-05
0.288433 0.0114491 0 3.98228e-05
0.288433 0.0155459 3.70071e-18 0.00011566
0.288433 0.0197915 0 0.000279625
0.288433 0.0241911 3.70071e-18 0.000557648
0.288433 0.0287506 0 0.000959198
0.219992 0.188991 0 0.0274139
0.288433 0.0334755 0 0.00149175
0.288433 0.038372 0 0.00215721
0.288433 0.0434463 0 0.00295454
7.47806e-17 0.291753 0 0.0114017
0.288433 0.0487048 0 0.00388013
0.288433 0.0541543 0 0.0049281
0.151552 0.251863 0 0.0243848
0.288433 0.0598016 3.70071e-18 0.00609061
0.075776 0.284866 0 0.0214218
0.288433 0.0656539 3.70071e-18 0.00735767
0.219992 0.199534 0 0.0277604
0.288433 0.0717187 0 0.00871558
0.288433 0.0780037 0 0.0101448
0.288433 0.0845169 0 0.0115576
0.288433 0.0912666 0 0.0126519
0.219992 0.21046 -3.46945e-18 0.0279139
0.288433 0.0982613 0 0.0134259
0.151552 0.264688 3.70071e-18 0.0240334
0 0.306027 0 0.0121437
0.288433 0.10551 0 0.0140852
0.075776 0.29889 3.46945e-18 0.0216212
0.288433 0.113022 0 0.0146919
0.219993 0.221782 0 0.0278834
0.288433 0.120806 0 0.0152193
0.288433 0.128874 0 0.0157252
0.151552 0.27798 0 0.023799
0.288433 0.137234 0 0.0162908
0 0.320819 0 0.0131663
0.219992 0.233515 -3.46945e-18 0.0276723
0.075776 0.313423 -3.46945e-18 0.0221131
0.288433 0.145897 0 0.0168728
0.288433 0.154876 0 0.0174819
0.151552 0.291753 0 0.0236479
0.219993 0.245675 0 0.0272938
0.288433 0.16418 0 0.0180572
0 0.336148 0 0.0146476
0.288433 0.173822 0 0.018549
0.075776 0.328484 -3.46945e-18 0.0237674
0.219993 0.258275 -3.46945e-18 0.0267767
0.151552 0.306027 0 0.0235012
0.288433 0.183814 0 0.0189365
0.288433 0.194169 0 0.0192187
0.219992 0.271334 3.46945e-18 0.026186
0.350249 0.00184056 -3.46945e-18 9.17637e-07
0.350249 0.00558849 0 3.48693e-06
0.350249 0.00947248 3.46945e-18 1.51907e-05
0.350249 0.0134975 0 4.50193e-05
0.350249 0.0176687 0 0.000115658
0.350249 0.0219913 0 0.000273848
0.350249 0.0264708 3.46945e-18 0.000522896
0.350249 0.031113 0 0.000879761
0 0.352034 0 0.0157688
0.350249 0.0359238 0 0.00134873
0.075776 0.344091 0 0.0265562
0.350249 0.0409091 0 0.00193205
0.350249 0.0460756 3.46945e-18 0.00263019
0.288433 0.2049 0 0.0194007
0.350249 0.0514296 0 0.0034415
0.151552 0.320819 0 0.0236382
0.350249 0.0569779 0 0.00436187
0.350249 0.0627277 3.46945e-18 0.00538402
0.350249 0.0686863 3.46945e-18 0.00649673
0.350249 0.0748612 3.46945e-18 0.00768349
0.350249 0.0812603 0 0.00892076
0.219992 0.284867 0 0.0258696
0.288433 0.21602 0 0.0194867
0.350249 0.0878917 0 0.00994748
0.350249 0.094764 0 0.00993745
0.350249 0.101886 0 0.0099107
0.350249 0.109266 0 0.0100575
0.288433 0.227544 0 0.0194784
0.075776 0.360265 3.46945e-18 0.0260423
0 0.368496 0 0.0156624
0.151552 0.336148 0 0.0243037
0.350249 0.116914 3.46945e-18 0.0103161
0.219992 0.29889 0 0.025354
0.370854 0.0241911 1.54074e-33 0.000405302
0.350249 0.12484 0 0.0105335
0.350249 0.133054 0 0.0106327
0.288433 0.239487 -9.25154e-19 0.0193778
0.350249 0.141566 3.46945e-18 0.0107223
0.350249 0.150387 3.46945e-18 0.0108457
0.288433 0.251863 0 0.019193
0.219992 0.313423 0 0.024667
0.151552 0.352034 0 0.0244317
0.075776 0.377027 0 0.0234173
0.350249 0.159528 0 0.0109872
0 0.385557 0 0.0150163
0.350249 0.169001 0 0.0111311
0.288433 0.264688 0 0.0189438
0.350249 0.178818 0 0.0112699
0.219992 0.328484 0 0.0238989
0.350249 0.188992 0 0.0114012
0.151552 0.368496 0 0.0232086
0.288433 0.27798 3.70071e-18 0.0187273
0.075776 0.394397 0 0.0217507
0.350249 0.199535 0 0.0115245
7.47806e-17 0.403236 0 0.014732
0.219992 0.344091 0 0.0231236
0.350249 0.21046 -3.46945e-18 0.0116386
0.288433 0.291753 0 0.0185142
0.412065 9.08189e-19 3.08149e-33 2.45064e-22
0.412065 0.00368111 -2.31298e-18 2.07241e-06
0.412065 0.00749587 -2.31298e-18 9.21092e-06
0.412065 0.0114491 -2.31298e-18 2.77279e-05
0.412065 0.0155459 -2.31298e-18 6.93117e-05
0.412065 0.0197915 0 0.000161287
0.412065 0.0241911 -3.08149e-33 0.000329129
0.412065 0.0264709 0 0.000456846
0.412065 0.0287506 -2.31298e-18 0.000584562
0.412065 0.0334755 -2.31298e-18 0.000936193
0.412065 0.038372 -2.31298e-18 0.00138954
0.151552 0.385557 0 0.021658
0.412065 0.0434463 0 0.00194605
0.350249 0.221782 0 0.0117415
0.412065 0.0487048 0 0.00260522
0.412065 0.0541543 -3.08149e-33 0.00336418
0.412065 0.0569779 0 0.0037906
0.412065 0.0598016 -2.31298e-18 0.00421703
0.412065 0.0656539 -2.31298e-18 0.00515392
0.412065 0.0717187 -2.31298e-18 0.00615984
0.075776 0.412396 -3.46945e-18 0.0213946
0.412065 0.0780037 -2.31298e-18 0.00711058
0.288433 0.306027 0 0.0181996
0.412065 0.0845169 -2.31298e-18 0.00782342
0.350249 0.233516 3.46945e-18 0.0118298
0 0.421557 0 0.0147938
0.412065 0.0912666 -2.31298e-18 0.00812161
0.219992 0.360265 3.46945e-18 0.0222891
0.412065 0.0982613 0 0.00814389
0.412065 0.10551 0 0.00819664
0.412065 0.113022 -2.31298e-18 0.00832281
0.350249 0.245675 0 0.0118998
0.412065 0.120806 0 0.00846833
0.151552 0.403236 0 0.0206617
0.288433 0.320819 0 0.0178144
0.412065 0.128874 -2.31298e-18 0.00857543
0.412065 0.137234 0 0.00865233
0.350249 0.258275 -3.46945e-18 0.0119473
0.219992 0.377026 0 0.0213167
0.412065 0.145897 -2.31298e-18 0.00873645
0.075776 0.431051 0 0.0214066
0.412065 0.154876 -2.31298e-18 0.00883337
0 0.440544 0 0.0149262
0.288433 0.336148 0 0.0174005
0.350249 0.271334 0 0.0119659
0.412065 0.16418 -2.31298e-18 0.00893481
0.412065 0.173822 -2.31298e-18 0.00903504
0.151552 0.421557 0 0.0201327
0.412065 0.183814 -2.31298e-18 0.0091315
0.350249 0.284867 3.46945e-18 0.0119531
0.219992 0.394397 0 0.0202876
0.288433 0.352034 3.70071e-18 0.016964
0.412065 0.194169 0 0.00922331
0.075776 0.450382 0 0.0214478
0.412065 0.2049 -2.31298e-18 0.0093099
0 0.46022 0 0.0150711
0.350249 0.29889 3.46945e-18 0.0119151
0.412065 0.21602 0 0.00939035
0.151552 0.440544 0 0.0197759
0.219993 0.412396 3.46945e-18 0.0193524
0.467897 0.00184056 -3.46945e-18 5.90449e-07
0.467897 0.00558849 0 3.3128e-06
0.288433 0.368496 0 0.0164703
0.467897 0.00947248 0 1.48714e-05
0.467897 0.0134975 0 3.61625e-05
0.467897 0.0176687 3.46945e-18 8.19455e-05
0.467897 0.0219913 -3.46945e-18 0.000178365
0.467897 0.0264709 3.46945e-18 0.000351068
0.467897 0.0311131 3.46945e-18 0.000600812
0.467897 0.0359238 -3.46945e-18 0.000940308
0.467897 0.038372 0 0.00120165
0.467897 0.0409092 3.46945e-18 0.00137206
0.350249 0.313423 0 0.0118552
0.467897 0.0460755 0 0.00189664
0.467897 0.0514296 3.46945e-18 0.00251259
0.412065 0.227544 -2.31298e-18 0.0094631
0.467897 0.0569779 0 0.00321569
0.467897 0.0627277 -3.46945e-18 0.00399797
0.467897 0.0686863 3.46945e-18 0.00484656
0.467897 0.0748612 0 0.00574221
0.467897 0.0812603 0 0.00626184
0.467897 0.0878918 3.46945e-18 0.00638792
0.075776 0.470415 3.46945e-18 0.021585
0.412065 0.239487 -2.31298e-18 0.00952619
0.467897 0.0947639 -3.46945e-18 0.0064671
0.467897 0.101886 3.46945e-18 0.00650809
0.350249 0.328483 0 0.0117787
0.467897 0.109266 0 0.00655906
0 0.48061 0 0.0152051
0.288433 0.385557 0 0.0159161
0.467897 0.116914 0 0.00661797
0.412065 0.251863 -2.31298e-18 0.00957764
0.219992 0.431051 0 0.0185696
0.467897 0.12484 0 0.00667792
0.151552 0.46022 0 0.0195108
0.467897 0.133054 3.46945e-18 0.00673678
0.467897 0.141566 3.46945e-18 0.00679913
0.412065 0.264688 -2.31298e-18 0.00961502
0.350249 0.344091 -3.46945e-18 0.0116903
0.467897 0.150387 3.46945e-18 0.00686329
0.467897 0.154876 0 0.00739353
0.467897 0.159528 3.46945e-18 0.00692678
0.288433 0.403236 0 0.0153585
0.075776 0.491175 0 0.0216367
0.412065 0.27798 -2.31298e-18 0.00963667
0.467897 0.169001 0 0.00698932
0.467897 0.178818 3.46945e-18 0.00705062
0.219992 0.450382 0 0.01793
6.73026e-17 0.501741 3.70071e-18 0.0152725
0.350249 0.360265 0 0.0115881
0.151552 0.48061 0 0.0192867
0.467897 0.188991 0 0.0071103
0.412065 0.291753 0 0.00964339
0.467897 0.199535 0 0.00716808
0.288433 0.421557 0 0.0148552
0.467897 0.21046 0 0.00722363
0.412065 0.306027 0 0.00963647
0.350249 0.377027 0 0.0114621
0.467897 0.221782 3.46945e-18 0.00727655
0.075776 0.51269 0 0.0215814
0.219993 0.470415 3.46945e-18 0.0173847
0.467897 0.227544 0 0.00787893
0.412065 0.320819 -2.31298e-18 0.00961713
0.467897 0.233515 0 0.00732637
6.73026e-17 0.523639 3.70071e-18 0.015273
0.523729 0 0 0
0.523729 0.00368111 0 1.88761e-06
0.523729 0.00749587 -2.31298e-18 9.44897e-06
0.523729 0.0114491 0 2.57168e-05
0.523729 0.0155459 0 5.55706e-05
0.523729 0.0197915 -2.31298e-18 0.000114308
0.151552 0.501741 0 0.0190404
0.523729 0.0241911 0 0.000229451
0.523729 0.0287506 0 0.000414053
0.523729 0.0334755 0 0.000672067
0.523729 0.038372 -3.08149e-33 0.00101376
0.523729 0.0434463 0 0.00144075
0.523729 0.0487048 0 0.00195236
0.523729 0.0541543 0 0.00254546
0.288433 0.440544 0 0.0144266
0.523729 0.0598016 0 0.00321359
0.350249 0.394397 -3.46945e-18 0.0113072
0.523729 0.0656539 0 0.00394588
0.467897 0.245675 0 0.00737274
0.523729 0.0717187 0 0.00470196
0.523729 0.0780037 0 0.00522654
0.523729 0.0845169 0 0.00542459
0.523729 0.0912666 0 0.00551096
0.412065 0.336148 0 0.00958721
0.523729 0.0982613 0 0.00557441
0.523729 0.10551 -2.31298e-18 0.0056277
0.467897 0.258275 -3.46945e-18 0.00741554
0.523729 0.113022 0 0.00568303
0.523729 0.120806 -3.08149e-33 0.00573872
0.219993 0.491176 0 0.0168925
0.523729 0.12484 0 0.00576577
0.523729 0.128874 -2.31298e-18 0.00579282
0.075776 0.534986 0 0.0214483
0.467897 0.271334 3.46945e-18 0.00745532
0.350249 0.412396 -3.46945e-18 0.0111339
0.523729 0.137234 0 0.0058463
0.412065 0.352034 -2.31298e-18 0.00954707
0.288433 0.46022 0 0.0140644
0.523729 0.145897 0 0.00590019
0.151552 0.523639 0 0.0187698
0.523729 0.154876 -3.08149e-33 0.0059537
0 0.546332 0 0.0152224
0.523729 0.159528 0 0.00597997
0.467897 0.284867 -3.46945e-18 0.00749353
0.523729 0.16418 -2.31298e-18 0.00600624
0.523729 0.173822 0 0.00605775
0.412065 0.368496 0 0.00949379
0.523729 0.183814 0 0.00610809
0.467897 0.29889 0 0.00752835
0.350249 0.431051 -3.46945e-18 0.0109599
0.219992 0.51269 0 0.0164396
0.523729 0.194169 0 0.00615711
0.288433 0.48061 0 0.0137483
0.523729 0.2049 0 0.00620468
0.467897 0.313423 3.46945e-18 0.00755776
0.075776 0.558091 0 0.0212635
0.412065 0.385557 0 0.00942359
0.523729 0.21602 -3.08149e-33 0.00625063
0.151552 0.546332 0 0.018489
0 0.569849 0 0.0151329
0.350249 0.450382 3.46945e-18 0.0108002
0.523729 0.227544 -3.08149e-33 0.00629477
0.467897 0.328483 0 0.0075804
0.523729 0.231525 1.54074e-33 0.00630883
0.574156 0.00184056 0 4.21698e-07
0.574156 0.00558849 0 3.23396e-06
0.574157 0.00947248 0 1.63313e-05
0.574156 0.0134975 -3.46945e-18 3.54764e-05
0.574156 0.0176687 -3.46945e-18 6.91561e-05
0.574156 0.0219913 0 0.000129847
0.574156 0.0264708 -3.46945e-18 0.000263153
0.574156 0.031113 0 0.000449301
0.574156 0.0359238 -3.46945e-18 0.000710772
0.574157 0.0409092 0 0.00105061
0.523729 0.239487 3.70071e-18 0.00633696
0.574156 0.0460755 -3.46945e-18 0.00146909
0.574156 0.0514295 0 0.00196422
0.412065 0.403236 0 0.00933756
0.574157 0.0569779 0 0.00253115
0.574156 0.0627277 0 0.00316112
0.574156 0.0686863 0 0.00384033
0.219992 0.534986 0 0.0160248
0.288433 0.501741 0 0.013463
0.574156 0.0748612 3.46945e-18 0.00445638
0.574156 0.0812603 0 0.00454733
0.467897 0.344091 0 0.00759542
0.574156 0.0878917 3.46945e-18 0.00461916
0.523729 0.251863 0 0.00637714
0.574157 0.0947639 0 0.00468967
0.574156 0.101886 0 0.00475232
0.574156 0.109266 0 0.00480987
0.574156 0.116914 0 0.0048637
0.412065 0.416977 -6.16298e-33 0.0092667
0.350249 0.470415 0 0.0106622
0.523729 0.264688 0 0.00641551
0.075776 0.582034 0 0.0210453
0.574156 0.12484 0 0.00491422
0.574156 0.133054 3.46945e-18 0.00496197
0.412065 0.421557 -2.31298e-18 0.00924308
0.151552 0.569849 0 0.0182094
0.467897 0.360265 -3.46945e-18 0.00760261
0.574157 0.141566 -3.46945e-18 0.00500781
0.523729 0.27798 0 0.00645262
0.574156 0.150386 3.46945e-18 0.00505223
0 0.594219 0 0.0150142
0.574156 0.159528 -3.46945e-18 0.00509547
0.574156 0.16418 0 0.00528793
0.288433 0.523639 1.2326e-32 0.0132028
0.574157 0.169001 0 0.0051377
0.523729 0.291753 0 0.00648825
0.219993 0.558091 3.46945e-18 0.0156521
0.467897 0.377026 0 0.00760192
0.574156 0.178818 3.46945e-18 0.00517899
0.412065 0.440544 -2.31298e-18 0.00914978
0.350249 0.491175 0 0.0105433
0.574156 0.188992 3.46945e-18 0.00521936
0.523729 0.306027 -3.08149e-33 0.00652113
0.574157 0.199535 0 0.00525883
0.574157 0.21046 0 0.00529742
0.075776 0.606847 0 0.0208059
0.467897 0.394397 0 0.00759269
0.151552 0.594219 0 0.0179374
0.523729 0.320819 0 0.00655002
0.574157 0.221782 -3.46945e-18 0.00533516
0.412065 0.46022 3.08149e-33 0.00906527
0.288433 0.546332 0 0.0129671
0 0.619475 0 0.0148735
0.574156 0.233515 3.46945e-18 0.00537213
0.350249 0.51269 3.46945e-18 0.0104384
0.219992 0.582034 3.46945e-18 0.0153206
0.523729 0.336148 0 0.00657401
0.467897 0.412396 0 0.00757493
0.574156 0.245675 0 0.00540841
0.624584 0 0 0
0.624584 0.00368111 0 1.79268e-06
0.624584 0.00749587 0 1.03084e-05
0.624584 0.0114491 0 2.71313e-05
0.624584 0.0155459 0 5.18217e-05
0.624584 0.0197915 0 9.29762e-05
0.624584 0.0241911 -2.31298e-18 0.000175272
0.624584 0.0287506 0 0.00031638
0.624584 0.0334755 0 0.000518455
0.624584 0.038372 0 0.000789213
0.624584 0.0434463 -2.31298e-18 0.00113345
0.624584 0.0487048 0 0.00155026
0.624584 0.0541543 0 0.00203598
0.624584 0.0598016 0 0.00258351
0.624584 0.0656539 0 0.00318123
0.624584 0.0717187 0 0.00371422
0.624584 0.0780037 0 0.00398152
0.574157 0.258276 3.46945e-18 0.00544417
0.624584 0.0845169 0 0.0040622
0.523729 0.352034 0 0.00659261
0.624584 0.0912666 0 0.00413334
0.624584 0.0982613 0 0.00419806
0.412065 0.48061 3.08149e-33 0.00899249
0.624584 0.10551 0 0.00425591
0.624584 0.113022 -2.31298e-18 0.00430901
0.574156 0.271334 0 0.0054796
0.624584 0.120806 0 0.00435842
0.467897 0.431051 0 0.00755098
0.075776 0.632561 -3.46945e-18 0.0205529
0.624584 0.128874 0 0.00440472
0.151552 0.619475 0 0.0176761
0.288433 0.569849 0 0.0127565
0.350249 0.534985 0 0.0103444
0.624584 0.137234 -2.31298e-18 0.00444852
0.523729 0.368496 0 0.00660571
0.574156 0.284866 -3.46945e-18 0.00551476
0.624584 0.145897 0 0.00449036
0.467897 0.440544 0 0.00787691
0.624584 0.154876 0 0.00453064
0.219992 0.606847 -3.46945e-18 0.0150275
0 0.645647 0 0.0147163
0.624584 0.16418 -3.08149e-33 0.00456962
0.574156 0.29889 -3.46945e-18 0.00554912
0.624584 0.173822 0 0.0046075
0.412065 0.501741 1.54074e-33 0.0089304
0.467897 0.450382 -3.46945e-18 0.00752506
0.523729 0.385557 0 0.00661313
0.624584 0.183814 0 0.00464438
0.624584 0.194169 0 0.00468036
0.574156 0.313423 0 0.00558186
0.624584 0.2049 0 0.00471552
0.350249 0.558091 3.46945e-18 0.0102599
0.288433 0.594219 0 0.0125701
0.624584 0.21602 0 0.00474992
0.523729 0.403236 0 0.00661468
0.574156 0.328483 -3.46945e-18 0.00561214
0.151552 0.645647 0 0.0174265
0.467897 0.470415 3.46945e-18 0.00750154
0.075776 0.659208 0 0.0202916
0.624584 0.227544 0 0.00478368
0.412065 0.523639 0 0.0088771
0.523729 0.41545 3.08149e-33 0.00661222
0.624584 0.239487 3.70071e-18 0.00481688
0.574156 0.344091 0 0.00563935
0.219992 0.632561 0 0.0147692
0.67013 0.00184055 0 3.02879e-07
0.67013 0.00558849 0 3.21659e-06
0.67013 0.00947248 0 1.8388e-05
0.67013 0.0134975 0 3.81802e-05
0.67013 0.0176687 -3.46945e-18 6.45358e-05
0.67013 0.0219913 0 0.000109166
0.67013 0.0264708 3.46945e-18 0.000201521
0.67013 0.0311131 0 0.000356424
0.67013 0.0359237 0 0.000564859
0.67013 0.0409092 -3.46945e-18 0.000841806
0.67013 0.0460755 0 0.00118775
0.67013 0.0514296 3.46945e-18 0.00160033
0.523729 0.421557 -2.31298e-18 0.00661099
0.67013 0.056978 0 0.00207412
0 0.67277 0 0.014547
0.67013 0.0627277 0 0.00259978
0.624584 0.251863 0 0.00484966
0.67013 0.0686863 0 0.00316276
0.67013 0.0748612 3.46945e-18 0.00345045
0.67013 0.0812603 0 0.00353545
0.67013 0.0878917 0 0.00361045
0.67013 0.0947639 3.46945e-18 0.00367767
0.574156 0.360265 0 0.00566323
0.67013 0.101886 0 0.00373636
0.523729 0.431051 0 0.00660752
0.624584 0.264688 0 0.00488215
0.467897 0.491175 0 0.00748289
0.67013 0.109266 3.46945e-18 0.00378915
0.350249 0.582034 0 0.010185
0.67013 0.116914 0 0.00383768
0.67013 0.12484 0 0.00388276
0.67013 0.133054 0 0.00392494
0.288433 0.619475 0 0.0124068
0.624584 0.27798 -3.08149e-33 0.00491441
0.412065 0.546332 1.54074e-33 0.00883124
0.523729 0.440544 -3.08149e-33 0.00660405
0.67013 0.141566 3.46945e-18 0.00396468
0.685312 0.0241911 -7.70372e-34 0.000152692
0.685312 0.0434463 -7.70372e-34 0.000994333
0.67013 0.150387 0 0.00400243
0.574156 0.377026 -3.46945e-18 0.00568384
0.67013 0.159528 0 0.00403855
0.624584 0.291753 0 0.00494628
0.151552 0.67277 0 0.0171887
0.075776 0.686823 0 0.020026
0.67013 0.169001 0 0.00407333
0.67013 0.178818 0 0.00410697
0.467897 0.51269 0 0.00746979
0.685312 0.113022 -7.70372e-34 0.0037467
0.219992 0.659208 0 0.0145414
0.624584 0.306027 0 0.00497733
0.67013 0.188991 0 0.00413965
0.574156 0.394397 3.46945e-18 0.00570109
0.523729 0.46022 0 0.00659665
0.685312 0.137234 -7.70372e-34 0.00387806
0.67013 0.199535 -3.46945e-18 0.0041715
0.350249 0.606847 0 0.0101203
0 0.700877 0 0.0143695
0.624584 0.320819 0 0.00500699
0.67013 0.21046 0 0.00420264
0.412065 0.569849 -2.31298e-18 0.00879227
0.67013 0.221782 -3.46945e-18 0.00423321
0.574157 0.412396 0 0.00571491
0.288433 0.645647 0 0.0122649
0.624584 0.336148 -3.08149e-33 0.00503474
0.67013 0.233515 3.46945e-18 0.00426334
0.467897 0.534986 0 0.00746192
0.523729 0.48061 0 0.00659132
0.624584 0.344091 0 0.00504749
0.67013 0.245675 0 0.00429315
0.715676 4.54095e-19 0 4.16028e-23
0.715676 0.00368111 0 1.74368e-06
0.715676 0.00749587 0 1.14241e-05
0.715676 0.0114491 0 3.00191e-05
0.715676 0.0155459 0 5.26403e-05
0.715676 0.0197915 0 8.42791e-05
0.715676 0.0241911 0 0.000141402
0.715676 0.0287506 0 0.000251815
0.715676 0.0334755 0 0.000418655
0.715676 0.038372 0 0.000639206
0.624584 0.352034 -2.31298e-18 0.00506024
0.715676 0.0434463 0 0.000924775
0.151552 0.700877 0 0.0169627
0.715676 0.0487048 0 0.0012746
0.715676 0.0541543 0 0.00168471
0.574156 0.43105 0 0.00572567
0.715676 0.0598016 0 0.00214754
0.67013 0.258275 0 0.00432277
0.715676 0.0656539 0 0.00264352
0.715676 0.0717187 0 0.00300224
0.075776 0.715441 0 0.0197592
0.715676 0.0780037 0 0.00315035
0.715676 0.0845169 0 0.0032297
0.219992 0.686824 0 0.0143405
0.715676 0.0912666 0 0.00329992
0.715676 0.0982613 0 0.00336152
0.67013 0.271334 -3.46945e-18 0.00435224
0.350249 0.632561 -3.46945e-18 0.0100665
0.412065 0.594219 3.08149e-33 0.00876038
0.715676 0.10551 0 0.00341608
0.715676 0.113022 0 0.00346554
0.624584 0.368496 0 0.00508336
0.523729 0.501741 0 0.00658957
0.715676 0.120806 0 0.00351105
0.715676 0.128874 0 0.0035533
0.67013 0.284867 0 0.00438153
0.467897 0.558091 3.46945e-18 0.00745859
0.715676 0.137234 0 0.00359284
0.574156 0.450382 0 0.0057345
0 0.730005 0 0.014187
0.715676 0.145897 0 0.00363011
0.288433 0.67277 0 0.0121424
0.715676 0.154876 0 0.00366549
0.67013 0.29889 0 0.0044105
0.624584 0.385557 0 0.00510408
0.715676 0.16418 -9.25187e-19 0.00369932
0.715676 0.173822 0 0.00373184
0.715676 0.183814 0 0.00376324
0.67013 0.313423 0 0.00443887
0.523729 0.523639 0 0.0065919
0.715676 0.194169 0 0.00379371
0.574156 0.470415 3.46945e-18 0.0057431
0.624584 0.403236 0 0.00512235
0.743101 0.0241911 -7.70372e-34 0.000134515
0.412065 0.619475 3.08149e-33 0.00873607
0.715676 0.2049 0 0.00382338
0.151552 0.730005 0 0.0167484
0.67013 0.328484 3.46945e-18 0.00446627
0.350249 0.659208 0 0.0100235
0.467897 0.582034 0 0.00745955
0.715676 0.21602 0 0.00385239
0.219992 0.715441 0 0.014163
0.075776 0.745097 -3.46945e-18 0.0194942
0.715676 0.227544 0 0.00388086
0.67013 0.344091 0 0.00449241
0.624584 0.421557 0 0.00513829
0.743101 0.128874 -7.70372e-34 0.0033616
0.715676 0.239487 3.70071e-18 0.00390893
0.574156 0.491175 0 0.00575317
0.756814 0.00184055 0 2.12039e-07
0.523729 0.546332 0 0.00659821
0.756813 0.00558849 0 3.24513e-06
0.756813 0.00947248 0 2.07771e-05
0.756814 0.0134975 -3.46945e-18 4.2536e-05
0.756814 0.0155459 0 5.42589e-05
0.756814 0.0176687 0 6.51657e-05
0.756814 0.0219913 0 9.85412e-05
0.756814 0.0264709 0 0.000157957
0.756814 0.031113 -3.46945e-18 0.000294429
0.756813 0.0359238 -3.46945e-18 0.000463653
0.288433 0.700877 0 0.0120374
0.756814 0.0409092 -3.46945e-18 0.000693753
0.756813 0.0460755 3.46945e-18 0.000985962
0.756813 0.0514296 0 0.00133787
0.715676 0.251863 0 0.00393669
0.756813 0.0569779 0 0.00174377
0.756814 0.0627277 -3.46945e-18 0.00219387
0.756814 0.0686863 -3.46945e-18 0.00264452
0 0.76019 0 0.0140024
0.756814 0.0748612 0 0.00278556
0.67013 0.360265 3.46945e-18 0.00451709
0.756814 0.0812603 -3.46945e-18 0.00286856
0.756814 0.0878917 -3.46945e-18 0.00294299
0.756814 0.0947639 -3.46945e-18 0.00300733
0.715676 0.264688 0 0.00396421
0.756813 0.101886 0 0.00306362
0.624584 0.440544 0 0.0051524
0.756813 0.109266 3.46945e-18 0.00311419
0.756813 0.116914 3.46945e-18 0.00316029
0.412065 0.645647 0 0.00871975
0.467897 0.606847 0 0.0074651
0.756814 0.120806 0 0.00322421
0.756813 0.12484 0 0.00320274
0.715676 0.27798 0 0.00399151
0.756814 0.133054 -3.46945e-18 0.00324218
0.67013 0.377026 -3.46945e-18 0.00454022
0.756814 0.137234 0 0.00330451
0.574156 0.51269 0 0.00576584
0.756813 0.141566 3.46945e-18 0.0032791
0.685312 0.352034 -7.70372e-34 0.0044337
0.743101 0.2049 -7.70372e-34 0.00362611
0.350249 0.686824 0 0.00999133
0.756814 0.150387 0 0.00331392
0.756814 0.154876 0 0.0033754
0.715676 0.291753 0 0.00401855
0.756814 0.159528 -3.46945e-18 0.00334695
0.523729 0.569849 0 0.00660829
0.72743 0.264688 0 0.00387754
0.756814 0.16418 0 0.00340822
0.151552 0.76019 0 0.0165459
0.756813 0.169001 3.46945e-18 0.00337849
0.624584 0.46022 0 0.00516564
0.219993 0.745097 0 0.0140064
0.67013 0.394396 0 0.00456179
0.756813 0.178818 -3.46945e-18 0.00340876
0.715676 0.306027 0 0.00404518
0.075776 0.775831 0 0.0192334
0.756813 0.188991 0 0.00343797
0.756814 0.199535 0 0.00346628
0.715676 0.320819 0 0.00407119
0.574156 0.534985 0 0.00578161
0.288433 0.730005 0 0.0119486
0.756813 0.21046 0 0.00349384
0.467897 0.632561 0 0.00747572
0.67013 0.412396 -3.46945e-18 0.00458182
0.624584 0.48061 -3.08149e-33 0.00517926
0.756814 0.221782 0 0.00352078
0.412065 0.67277 3.08149e-33 0.00871162
0.715676 0.336148 0 0.00409634
0 0.791472 0 0.0138184
0.756813 0.233516 3.46945e-18 0.00354722
0.523729 0.594219 0 0.00662217
0.624584 0.487654 1.54074e-33 0.00518431
0.756814 0.245675 3.46945e-18 0.00357328
0.350249 0.715441 3.46945e-18 0.00996957
0.67013 0.43105 0 0.00460043
0.715676 0.352034 -9.25187e-19 0.00412043
0.797951 9.08189e-19 -3.08149e-33 5.81368e-23
0.797951 0.00368111 2.31298e-18 1.72499e-06
0.797951 0.00749587 2.31298e-18 1.26964e-05
0.797951 0.0114491 2.31298e-18 3.36104e-05
0.797951 0.0141803 7.70372e-34 4.84552e-05
0.797951 0.0155459 0 5.58776e-05
0.797951 0.0169611 7.70372e-34 6.42463e-05
0.797951 0.0197915 2.31298e-18 8.09839e-05
0.797951 0.0219913 0 0.000100863
0.797951 0.0241911 3.08149e-33 0.000120742
0.797951 0.0264709 0 0.000162625
0.797951 0.0287506 -3.08149e-33 0.000204509
0.797951 0.0334755 2.31298e-18 0.000344585
0.797951 0.038372 2.31298e-18 0.000531926
0.797951 0.0434463 2.31298e-18 0.000772767
0.797951 0.0487048 0 0.00107182
0.756813 0.258275 -3.46945e-18 0.00359902
0.797951 0.0541543 2.31298e-18 0.00142512
0.797951 0.0598016 2.31298e-18 0.00182463
0.797951 0.0656539 2.31298e-18 0.00222489
0.574156 0.55809 0 0.00580054
0.624584 0.501741 0 0.00519441
0.797951 0.0717187 2.31298e-18 0.00247768
0.797951 0.0780037 -3.08149e-33 0.00258229
0.797951 0.0845169 2.31298e-18 0.0026616
0.797951 0.0912666 -3.08149e-33 0.00273096
0.797951 0.0982613 2.31298e-18 0.00279126
0.756813 0.271334 0 0.00362448
0.797951 0.10551 2.31298e-18 0.00284476
0.715676 0.368496 0 0.00414335
0.151552 0.791472 0 0.0163554
0.797951 0.113022 2.31298e-18 0.00289313
0.219992 0.775831 3.46945e-18 0.0138687
0.797951 0.118211 7.70372e-34 0.00292262
0.770526 0.239487 1.54074e-33 0.00350869
0.797951 0.120806 0 0.00293737
0.67013 0.450382 3.46945e-18 0.00461801
0.797951 0.128874 3.08149e-33 0.0029782
0.467897 0.659208 0 0.00749187
0.756813 0.284866 -3.46945e-18 0.00364967
0.743101 0.320819 -7.70372e-34 0.00386436
0.797951 0.137234 0 0.00301618
0.797951 0.141566 0 0.00303397
0.797951 0.145897 -9.25187e-19 0.00305177
0.523729 0.619475 0 0.00664018
0.075776 0.807681 0 0.0189793
0.797951 0.150387 0 0.00306854
0.797951 0.154876 0 0.00308531
0.715676 0.385557 0 0.00416505
0.412065 0.700877 3.08149e-33 0.00871175
0.288433 0.76019 0 0.0118745
0.756813 0.29889 0 0.00367456
0.797951 0.16418 0 0.00311713
0.624584 0.523639 0 0.00521184
0.797951 0.167394 7.70372e-34 0.00312724
0.797951 0.173822 2.31298e-18 0.00314746
0.574156 0.582034 0 0.00582261
0.67013 0.470415 0 0.0046353
0.797951 0.183814 2.31298e-18 0.00317652
0.756813 0.313423 -3.46945e-18 0.00369904
0.797951 0.194169 -9.25187e-19 0.00320451
0.715676 0.403236 0 0.00418554
0.151552 0.807681 0 0.0162664
0.797951 0.197746 -7.70372e-34 0.00321353
0.350249 0.745097 0 0.00995798
0.797951 0.2049 3.08149e-33 0.00323157
0 0.823889 0 0.0136376
0.756813 0.328483 -3.46945e-18 0.00372298
0.797951 0.21046 0 0.00324471
0.797951 0.21602 -3.08149e-33 0.00325785
0.797951 0.223703 7.70372e-34 0.00327494
0.797951 0.227544 9.25187e-19 0.00328348
0.624584 0.546332 0 0.00523194
0.715676 0.421557 0 0.0042049
0.67013 0.491176 -3.46945e-18 0.0046532
0.797951 0.231525 7.70372e-34 0.00329185
0.467897 0.686824 -3.46945e-18 0.00751396
0.523729 0.645647 0 0.00666272
0.756813 0.344091 -3.46945e-18 0.00374622
0.822721 0.120806 7.70372e-34 0.00279992
0.797951 0.239487 -3.08149e-33 0.00330858
0.822721 0.137234 7.70372e-34 0.00287869
0.835106 0.00184056 0 1.43981e-07
0.835106 0.00558849 0 3.29929e-06
0.835106 0.00947248 0 2.33943e-05
0.835106 0.0134975 0 4.75337e-05
0.835107 0.0176687 0 6.8067e-05