# nutMean  POINT_DATA 63140
# x  y  z  nutMean
0 0.1 0 0.00521808
0 0.1 -0.0179898 0.00521925
0 0.1 0.0179898 0.00521699
0.0363518 0.1 0.0179898 0.0118571
0.0363518 0.1 -0.0179898 0.0118303
0 0.1 -0.0570102 0.00523478
0 0.1 0.0570102 0.00522806
0.0363518 0.1 0.0570102 0.0118682
0.0363518 0.1 -0.0570102 0.0118458
0 0.1 -0.075 0.00524758
0 0.1 0.075 0.00523905
0.075776 0.1 -0.0375 0.0188117
0.075776 0.1 0.0375 0.0188683
0 0.1 -0.0929898 0.00526077
0 0.1 0.0929898 0.0052503
0.0363518 0.1 -0.0929898 0.0113449
0.0363518 0.1 0.0929898 0.0113979
0 0.1 -0.13201 0.00529069
0 0.1 0.13201 0.00527738
0.075776 0.1 -0.1125 0.0177535
0.075776 0.1 0.1125 0.017878
0.0363518 0.1 -0.13201 0.0113748
0.0363518 0.1 0.13201 0.011425
0 0.1 -0.15 0.00530482
0 0.1 0.15 0.00529072
0.150379 0.1 -2.22623e-17 0.0181903
0 0.1 -0.16799 0.00532017
0 0.1 0.16799 0.0053051
0.150379 0.1 -0.075 0.0171228
0.150379 0.1 0.075 0.0173068
0.0363518 0.1 -0.16799 0.0105221
0.0363518 0.1 0.16799 0.0105665
0.075776 0.1 -0.1875 0.0160177
0.075776 0.1 0.1875 0.0161231
0 0.1 -0.20701 0.0053454
0 0.1 0.20701 0.00533041
0.0363518 0.1 -0.20701 0.0105473
0.0363518 0.1 0.20701 0.0105918
0.150379 0.1 -0.15 0.0151087
0.150379 0.1 0.15 0.0153178
0.219993 0.1 -0.0375 0.0175344
0.219993 0.1 0.0375 0.0175991
0 0.1 -0.225 0.00535477
0 0.1 0.225 0.00534049
0 0.1 -0.24299 0.00536586
0 0.1 0.24299 0.00535225
0.0363518 0.1 0.24299 0.00989465
0.0363518 0.1 -0.24299 0.00990984
0.219993 0.1 -0.1125 0.0144699
0.219993 0.1 0.1125 0.0149526
0.150379 0.1 -0.225 0.0137749
0.150379 0.1 0.225 0.0138192
0.075776 0.1 -0.2625 0.0147579
0.075776 0.1 0.2625 0.0147372
0 0.1 -0.28201 0.00537478
0 0.1 0.28201 0.00536247
0.0363518 0.1 -0.28201 0.00991876
0.0363518 0.1 0.28201 0.00990488
0.287374 0.1 -2.89121e-19 0.0136624
0.219992 0.1 0.1875 0.0124294
0.219992 0.1 -0.1875 0.0123143
0.287374 0.1 -0.075 0.0128333
0.287374 0.1 0.075 0.0129877
0 0.1 -0.3 0.00537405
0 0.1 0.3 0.00536221
0 0.1 0.31799 0.00536314
0 0.1 -0.31799 0.00537444
0.0363518 0.1 -0.31799 0.00961735
0.0363518 0.1 0.31799 0.00957864
0.287374 0.1 0.15 0.0115952
0.287374 0.1 -0.15 0.0114202
0.150379 0.1 -0.3 0.0132127
0.150379 0.1 0.3 0.0131814
0.219993 0.1 0.2625 0.0121075
0.219993 0.1 -0.2625 0.012132
0.075776 0.1 -0.3375 0.0141517
0.075776 0.1 0.3375 0.0140846
0.350249 0.1 -0.0375 0.00990756
0.350249 0.1 0.0375 0.009928
0 0.1 -0.35701 0.00536914
0 0.1 0.35701 0.00535862
0.0363518 0.1 -0.35701 0.00961205
0.0363518 0.1 0.35701 0.00957412
0.287374 0.1 -0.225 0.0107625
0.287374 0.1 0.225 0.0107986
0.350249 0.1 -0.1125 0.00966731
0.350249 0.1 0.1125 0.00972631
0 0.1 -0.375 0.00536493
0 0.1 0.375 0.00535467
0 0.1 -0.39299 0.00536134
0 0.1 0.39299 0.00535136
0.0363518 0.1 -0.39299 0.00931937
0.0363518 0.1 0.39299 0.00928552
0.350249 0.1 -0.1875 0.00937422
0.350249 0.1 0.1875 0.00942531
0.219992 0.1 -0.3375 0.0119089
0.219992 0.1 0.3375 0.011894
0.150379 0.1 0.375 0.0129004
0.150379 0.1 -0.375 0.0129571
0.411108 0.1 4.33681e-19 0.00817296
0.287374 0.1 -0.3 0.0106825
0.287374 0.1 0.3 0.0106714
0.411108 0.1 -0.075 0.00810675
0.411108 0.1 0.075 0.0081297
0.075776 0.1 -0.4125 0.0135549
0.075776 0.1 0.4125 0.013496
0 0.1 0.43201 0.00533606
0 0.1 -0.43201 0.00534503
0.0363518 0.1 0.43201 0.00927022
0.0363518 0.1 -0.43201 0.00930307
0.411108 0.1 -0.15 0.00797393
0.411108 0.1 0.15 0.00800625
0.350249 0.1 -0.2625 0.00934914
0.350249 0.1 0.2625 0.00935033
0 0.1 -0.45 0.00533456
0 0.1 0.45 0.00532618
0.219992 0.1 0.4125 0.0121951
0.219992 0.1 -0.4125 0.012282
0 0.1 -0.46799 0.00532434
0 0.1 0.46799 0.00531659
0.411108 0.1 -0.225 0.00790591
0.411108 0.1 0.225 0.00792159
0.467897 0.1 -0.0375 0.00649523
0.467897 0.1 0.0375 0.00649924
0.0363518 0.1 0.46799 0.00898486
0.0363518 0.1 -0.46799 0.00901438
0.287374 0.1 -0.375 0.0107861
0.287374 0.1 0.375 0.0107582
0.150379 0.1 0.45 0.0130138
0.150379 0.1 -0.45 0.0130639
0.467897 0.1 0.1125 0.00649923
0.467897 0.1 -0.1125 0.00648945
0.350249 0.1 -0.3375 0.00945377
0.350249 0.1 0.3375 0.00944623
0.075776 0.1 -0.4875 0.0129682
0.075776 0.1 0.4875 0.0129162
0.467897 0.1 0.1875 0.00649722
0.467897 0.1 -0.1875 0.00648602
0 0.1 -0.50701 0.00529942
0 0.1 0.50701 0.0052921
0.0363518 0.1 -0.50701 0.00898947
0.0363518 0.1 0.50701 0.00896037
0.411108 0.1 0.3 0.00795867
0.411108 0.1 -0.3 0.00796098
0.522865 0.1 1.41031e-17 0.00559943
0 0.1 -0.525 0.00528727
0 0.1 0.525 0.00527975
0.522865 0.1 -0.075 0.00560264
0.522865 0.1 0.075 0.00560584
0.287374 0.1 0.45 0.0112325
0.287374 0.1 -0.45 0.0112546
0.219992 0.1 0.4875 0.0134579
0.219992 0.1 -0.4875 0.0134608
0.467897 0.1 -0.2625 0.00652912
0.467897 0.1 0.2625 0.00652888
0.350249 0.1 -0.4125 0.00961314
0.350249 0.1 0.4125 0.009608
0 0.1 -0.54299 0.00527481
0 0.1 0.54299 0.00526714
0.522865 0.1 0.15 0.00562127
0.522865 0.1 -0.15 0.00561666
0.0363518 0.1 0.54299 0.00870835
0.0363518 0.1 -0.54299 0.00873594
0.150379 0.1 -0.525 0.0131216
0.150379 0.1 0.525 0.0131096
0.411108 0.1 -0.375 0.00808907
0.411108 0.1 0.375 0.00808399
0.075776 0.1 -0.5625 0.0124481
0.075776 0.1 0.5625 0.0123996
0.522865 0.1 -0.225 0.00565388
0.522865 0.1 0.225 0.0056552
0.574156 0.1 0.0375 0.00473566
0.574157 0.1 -0.0375 0.00473581
0.467897 0.1 -0.3375 0.00662725
0.467897 0.1 0.3375 0.00662413
0 0.1 -0.58201 0.00524946
0 0.1 0.58201 0.00524153
0.0363518 0.1 -0.58201 0.00871059
0.0363518 0.1 0.58201 0.00868274
0.574157 0.1 -0.1125 0.00475763
0.574157 0.1 0.1125 0.00475709
0.287374 0.1 -0.525 0.0116566
0.287374 0.1 0.525 0.0116746
0 0.1 -0.6 0.00523821
0 0.1 0.6 0.00523027
0.350249 0.1 0.4875 0.00981299
0.350249 0.1 -0.4875 0.00980869
0.522865 0.1 -0.3 0.00572924
0.522865 0.1 0.3 0.00572561
0.219992 0.1 -0.5625 0.0135689
0.219992 0.1 0.5625 0.0136213
0.574156 0.1 -0.1875 0.00479957
0.574156 0.1 0.1875 0.00479804
0.411108 0.1 0.45 0.00826221
0.411108 0.1 -0.45 0.00826435
0 0.1 -0.61799 0.0052264
0 0.1 0.61799 0.00521846
0.150379 0.1 -0.6 0.012848
0.150379 0.1 0.6 0.0128479
0.0363518 0.1 -0.61799 0.00849239
0.0363518 0.1 0.61799 0.00846559
0.467897 0.1 -0.4125 0.00677949
0.467897 0.1 0.4125 0.00677448
0.623803 0.1 2.34188e-17 0.00421922
0.623803 0.1 0.075 0.00422987
0.623803 0.1 -0.075 0.00423112
0.574156 0.1 0.2625 0.00486165
0.574156 0.1 -0.2625 0.00486556
0.623803 0.1 0.15 0.00426184
0.623803 0.1 -0.15 0.00426451
0.075776 0.1 0.6375 0.0119521
0.075776 0.1 -0.6375 0.0119985
0.522865 0.1 -0.375 0.00584756
0.522865 0.1 0.375 0.00584144
0 0.1 0.65701 0.00519539
0 0.1 -0.65701 0.00520325
0.0363518 0.1 0.65701 0.00844252
0.0363518 0.1 -0.65701 0.00846923
0.350249 0.1 0.5625 0.00997372
0.350249 0.1 -0.5625 0.0099544
0.623803 0.1 0.225 0.00431542
0.623803 0.1 -0.225 0.00432002
0.287374 0.1 -0.6 0.0116824
0.287374 0.1 0.6 0.0117154
0.574157 0.1 -0.3375 0.00495967
0.574157 0.1 0.3375 0.00495248
0.411108 0.1 0.525 0.0084589
0.411108 0.1 -0.525 0.00845254
0.67013 0.1 0.0375 0.00372021
0.67013 0.1 -0.0375 0.00372143
0.219992 0.1 -0.6375 0.0133166
0.219993 0.1 0.6375 0.0133549
0 0.1 -0.675 0.00519311
0 0.1 0.675 0.00518535
0.467897 0.1 -0.4875 0.00697551
0.467897 0.1 0.4875 0.00697252
0.67013 0.1 -0.1125 0.00374575
0.67013 0.1 0.1125 0.00374276
0.522865 0.1 0.45 0.00600117
0.522865 0.1 -0.45 0.00600786
0.150379 0.1 0.675 0.0125091
0.150379 0.1 -0.675 0.0125185
0.623803 0.1 0.3 0.00438996
0.623803 0.1 -0.3 0.00439745
0 0.1 -0.69299 0.00518234
0 0.1 0.69299 0.00517469
0.0363518 0.1 -0.69299 0.00828593
0.0363518 0.1 0.69299 0.00826027
0.67013 0.1 -0.1875 0.00379111
0.67013 0.1 0.1875 0.00378561
0.574156 0.1 0.4125 0.00508026
0.574157 0.1 -0.4125 0.00508934
0.714971 0.1 -2.8382e-17 0.0033793
0.075776 0.1 -0.7125 0.0116207
0.075776 0.1 0.7125 0.0115763
0.714971 0.1 -0.075 0.00339168
0.714971 0.1 0.075 0.00338925
0.67013 0.1 0.2625 0.0038524
0.67013 0.1 -0.2625 0.00385974
0.411108 0.1 -0.6 0.00861576
0.411108 0.1 0.6 0.00863059
0.350249 0.1 0.6375 0.0100668
0.350249 0.1 -0.6375 0.010044
0.623803 0.1 0.375 0.00449347
0.623803 0.1 -0.375 0.00450334
0.714971 0.1 -0.15 0.00342531
0.714971 0.1 0.15 0.00342052
0.467897 0.1 -0.5625 0.00719107
0.467897 0.1 0.5625 0.00719602
0 0.1 -0.73201 0.00516209
0 0.1 0.73201 0.00515454
0.0363518 0.1 0.73201 0.00824013
0.0363518 0.1 -0.73201 0.00826567
0.287374 0.1 -0.675 0.0116035
0.287374 0.1 0.675 0.0116268
0.522865 0.1 -0.525 0.00620083
0.522865 0.1 0.525 0.00619651
0.219993 0.1 -0.7125 0.0130706
0.219992 0.1 0.7125 0.0130827
0.714971 0.1 -0.225 0.0034799
0.714971 0.1 0.225 0.00347267
0 0.1 0.75 0.00514611
0 0.1 -0.75 0.00515363
0.67013 0.1 -0.3375 0.00394094
0.67013 0.1 0.3375 0.00392954
0.574156 0.1 -0.4875 0.00525415
0.574157 0.1 0.4875 0.00524461
0.756813 0.1 0.0375 0.00304791
0.756814 0.1 -0.0375 0.00304952
0.150379 0.1 0.746002 0.0122132
0.150379 0.1 -0.75 0.0122334
0.756813 0.1 -0.1125 0.00307191
0.756813 0.1 0.1125 0.00306802
0 0.1 0.76799 0.00513702
0 0.1 -0.76799 0.0051445
0.0363518 0.1 0.76799 0.00809244
0.0363518 0.1 -0.76799 0.00811675
0.623803 0.1 -0.45 0.00464257
0.623803 0.1 0.45 0.00463177
0.714971 0.1 -0.3 0.00355351
0.714971 0.1 0.3 0.00354385
0.756814 0.1 -0.1875 0.00311443
0.756814 0.1 0.1875 0.00310767
0.67013 0.1 -0.4125 0.00406001
0.67013 0.1 0.4125 0.00404833
0.411108 0.1 0.675 0.00877132
0.411108 0.1 -0.675 0.00875254
0.467897 0.1 0.6375 0.00740255
0.467897 0.1 -0.6375 0.00738997
0.075776 0.1 0.7875 0.0112718
0.075776 0.1 -0.7875 0.0113136
0.350249 0.1 -0.7125 0.0101212
0.350249 0.1 0.7125 0.0101415
0.522865 0.1 -0.6 0.00640967
0.522865 0.1 0.6 0.00640937
0.797314 0.1 -3.59473e-17 0.00280733
0.287374 0.1 0.746002 0.0115719
0.797314 0.1 -0.075 0.00281863
0.797314 0.1 0.075 0.00281586
0.756814 0.1 -0.2625 0.00317641
0.756814 0.1 0.2625 0.00316716
0.287374 0.1 -0.75 0.0115327
0.574156 0.1 -0.5625 0.00545105
0.574156 0.1 0.5625 0.00544172
0 0.1 0.80701 0.00512059
0 0.1 -0.80701 0.00512797
0.714971 0.1 -0.375 0.00364889
0.714971 0.1 0.375 0.00363715
0.0363518 0.1 0.80701 0.00807601
0.0363518 0.1 -0.80701 0.00810022
0.797314 0.1 -0.15 0.00284912
0.797314 0.1 0.15 0.00284379
0.623803 0.1 -0.525 0.00481154
0.623803 0.1 0.525 0.00480005
0.219992 0.1 0.7875 0.0128527
0.219992 0.1 -0.7875 0.0128548
0.149792 0.1 0.80701 0.0120234
0 0.1 0.825 0.00511412
0 0.1 -0.825 0.00512141
0.797314 0.1 -0.225 0.00289799
0.797314 0.1 0.225 0.0028901
0.756813 0.1 -0.3375 0.00325913
0.756813 0.1 0.3375 0.00324848
0.67013 0.1 0.4875 0.00419123
0.67013 0.1 -0.4875 0.00420404
0.835106 0.1 -0.0375 0.00257367
0.835106 0.1 0.0375 0.00257209
0.150379 0.1 -0.825 0.0119945
0.835106 0.1 -0.1125 0.00259331
0.835106 0.1 0.1125 0.00258934
0 0.1 -0.84299 0.00511417
0 0.1 0.84299 0.00510697
0.0363518 0.1 -0.84299 0.00798311
0.0363518 0.1 0.84299 0.00795973
0.714971 0.1 -0.45 0.00377088
0.714971 0.1 0.45 0.00375759
0.411108 0.1 0.746002 0.00892123
0.797314 0.1 -0.3 0.00296629
0.797314 0.1 0.3 0.00295628
0.467897 0.1 -0.7125 0.00756661
0.467897 0.1 0.7125 0.00758638
0.522865 0.1 0.675 0.0066259
0.522865 0.1 -0.675 0.00662295
0.411108 0.1 -0.75 0.00888946
0.835106 0.1 -0.1875 0.00263085
0.835107 0.1 0.1875 0.00262416
0.286844 0.1 0.80701 0.0114998
0.574156 0.1 0.6375 0.00566609
0.574157 0.1 -0.6375 0.00567473
0.350249 0.1 -0.7875 0.0102079
0.350249 0.1 0.7875 0.0102206
0.756813 0.1 -0.4125 0.003358
0.756814 0.1 0.4125 0.00334474
0.623803 0.1 -0.6 0.00500879
0.623803 0.1 0.6 0.00499683
0.075776 0.1 0.8625 0.0110318
0.075776 0.1 -0.8625 0.011072
0.871687 0.1 -3.2767e-18 0.00239337
0.287374 0.1 -0.825 0.0114813
0.871687 0.1 -0.075 0.00240336
0.871687 0.1 0.075 0.0024006
0.67013 0.1 -0.5625 0.00437511
0.67013 0.1 0.5625 0.00436097
0.835106 0.1 0.2625 0.00267564
0.835106 0.1 -0.2625 0.00268449
0.797314 0.1 -0.375 0.00305135
0.797314 0.1 0.375 0.00303853
0 0.1 -0.88201 0.00510172
0 0.1 0.88201 0.0050947
0.0363518 0.1 0.88201 0.00794746
0.0363518 0.1 -0.88201 0.00797065
0.871687 0.1 0.15 0.00242481
0.871687 0.1 -0.15 0.00243006
0.714971 0.1 0.525 0.00390427
0.714971 0.1 -0.525 0.00391905
0.219993 0.1 0.8625 0.0126509
0.219992 0.1 -0.8625 0.0126594
0 0.1 0.9 0.00509029
0 0.1 -0.9 0.00509721
0.756813 0.1 0.4875 0.00346926
0.756814 0.1 -0.4875 0.00348463
0.871687 0.1 0.225 0.00246511
0.871687 0.1 -0.225 0.00247259
0.835106 0.1 -0.3375 0.00275958
0.835106 0.1 0.3375 0.0027483
0.41063 0.1 0.80701 0.00902158
0.90582 0.1 -0.0375 0.00221915
0.905821 0.1 0.0375 0.00221767
0.522865 0.1 0.746002 0.00685587
0.150379 0.1 0.9 0.0117749
0.90582 0.1 0.1125 0.00223241
0.905821 0.1 -0.1125 0.00223642
0.522865 0.1 -0.75 0.00685042
0.574156 0.1 0.7125 0.00591502
0.574156 0.1 -0.7125 0.00592568
0.797314 0.1 -0.45 0.00315644
0.797314 0.1 0.45 0.00314129
0.467897 0.1 -0.7875 0.00776797
0.467897 0.1 0.7875 0.00777723
0.150379 0.1 -0.903998 0.0118337
0 0.1 0.91799 0.00508516
0 0.1 -0.91799 0.00509197
0.0363518 0.1 0.91799 0.00785993
0.0363518 0.1 -0.91799 0.00788151
0.623803 0.1 0.675 0.00521993
0.623803 0.1 -0.675 0.00523306
0.411108 0.1 -0.825 0.00905194
0.871687 0.1 0.3 0.00252284
0.871687 0.1 -0.3 0.00253294
0.67013 0.1 -0.6375 0.0045734
0.67013 0.1 0.6375 0.00455789
0.90582 0.1 -0.1875 0.00226887
0.90582 0.1 0.1875 0.00226254
0.350249 0.1 0.8625 0.0103217
0.350249 0.1 -0.8625 0.0103126
0.835106 0.1 -0.4125 0.0028435
0.835106 0.1 0.4125 0.00282745
0.714971 0.1 -0.6 0.00409335
0.714971 0.1 0.6 0.00407698
0.93886 0.1 -1.15648e-17 0.00212051
0.075776 0.1 0.9375 0.010851
0.075776 0.1 -0.9375 0.0108879
0.93886 0.1 0.075 0.00212682
0.93886 0.1 -0.075 0.00212935
0.756813 0.1 0.5625 0.0036195
0.756814 0.1 -0.5625 0.00363621
0.905821 0.1 -0.2625 0.00231553
0.905821 0.1 0.2625 0.00230748
0.287374 0.1 0.9 0.0114509
0.287374 0.1 -0.903998 0.0114309
0.871687 0.1 0.375 0.00259531
0.871687 0.1 -0.375 0.0026067
0.93886 0.1 -0.15 0.00215268
0.93886 0.1 0.15 0.00214796
0.797314 0.1 0.525 0.00327045
0.797314 0.1 -0.525 0.00328664
0 0.1 0.95701 0.00507717
0 0.1 -0.95701 0.00508386
0.0363518 0.1 0.95701 0.00785195
0.0363518 0.1 -0.95701 0.0078734
0.522433 0.1 0.80701 0.00704064
0.219992 0.1 0.9375 0.0124852
0.219992 0.1 -0.9375 0.0124995
0.93886 0.1 0.225 0.0021833
0.93886 0.1 -0.225 0.00218982
0.90582 0.1 0.3375 0.00236953
0.905821 0.1 -0.3375 0.00238178
0.835106 0.1 -0.4875 0.0029549
0.835107 0.1 0.4875 0.00293902
0.969689 0.1 -0.0375 0.00202528
0.969689 0.1 0.0375 0.00202403
0.61613 0.1 0.75 0.00546903
0.574156 0.1 -0.7875 0.00620262
0.574156 0.1 0.7875 0.00618974
0 0.1 0.975 0.00507485
0 0.1 -0.975 0.00508151
0.623803 0.1 -0.75 0.00548429
0.969689 0.1 -0.1125 0.00204064
0.969689 0.1 0.1125 0.00203724
0.522865 0.1 -0.825 0.00710802
0.67013 0.1 0.7125 0.00478104
0.67013 0.1 -0.7125 0.00479848
0.871687 0.1 -0.45 0.00269885
0.871687 0.1 0.45 0.00268581
0.467897 0.1 0.8625 0.0080166
0.467897 0.1 -0.8625 0.00801871
0.714971 0.1 -0.675 0.00429406
0.714971 0.1 0.675 0.0042756
0.93886 0.1 -0.3 0.00224222
0.93886 0.1 0.3 0.00223331
0.150379 0.1 0.975 0.0116267
0.150379 0.1 -0.975 0.0116528
0.969689 0.1 -0.1875 0.00206896
0.969689 0.1 0.1875 0.00206379
0.411108 0.1 0.9 0.00924667
0.756813 0.1 0.6375 0.00379415
0.756814 0.1 -0.6375 0.00381315
0.990306 0.1 -2.19732e-17 0.00194804
0 0.1 0.99299 0.00507176
0 0.1 -0.99299 0.00507839
0.411108 0.1 -0.903998 0.00920168
0.990306 0.1 -0.075 0.00195595
0.990306 0.1 0.075 0.00195367
0.0363518 0.1 0.99299 0.00779
0.0363518 0.1 -0.99299 0.0078103
0.90582 0.1 -0.4125 0.00245184
0.905821 0.1 0.4125 0.00244573
0.797314 0.1 -0.6 0.00344042
0.797314 0.1 0.6 0.00342233
0.350249 0.1 0.9375 0.0104418
0.350249 0.1 -0.9375 0.0104342
0.990306 0.1 0.15 0.00197268
0.990306 0.1 -0.15 0.00197685
0.969689 0.1 -0.2625 0.00211019
0.969689 0.1 0.2625 0.00210362
0.835106 0.1 -0.5625 0.00308662
0.835106 0.1 0.5625 0.00306981
0.93886 0.1 -0.375 0.00230724
0.93886 0.1 0.375 0.00229845
0.075776 0.1 1.0125 0.0107229
0.075776 0.1 -1.0125 0.0107574
0.990306 0.1 -0.225 0.00201046
0.990306 0.1 0.225 0.00200474
0.287374 0.1 0.975 0.0114456
0.287374 0.1 -0.975 0.0114519
0.871687 0.1 -0.525 0.0028157
0.871687 0.1 0.525 0.00279931
1.02149 0.1 -0.0369628 0.0018042
1.02149 0.1 0.0369628 0.00180307
0.969689 0.1 -0.3375 0.00216584
0.969689 0.1 0.3375 0.00215701
1.02149 0.1 -0.110888 0.00181689
1.02149 0.1 0.110888 0.00181375
0.90582 0.1 0.4875 0.00254108
0.90582 0.1 -0.4875 0.00255536
0.623803 0.1 0.819003 0.00563156
0 0.1 1.03201 0.00506801
0 0.1 -1.03201 0.00507442
0.0363518 0.1 1.03201 0.00778624
0.0363518 0.1 -1.03201 0.00780633
0.67013 0.1 -0.7875 0.00505128
0.67013 0.1 0.7875 0.00503152
0.623803 0.1 -0.825 0.00576242
0.990306 0.1 -0.3 0.00205747
0.990306 0.1 0.3 0.00205002
0.219992 0.1 -1.0125 0.0123859
0.219993 0.1 1.0125 0.0123663
0.574156 0.1 0.8625 0.00648877
0.574157 0.1 -0.8625 0.00650169
0.714971 0.1 -0.75 0.00452154
0.714971 0.1 0.75 0.0045006
1.02149 0.1 0.184814 0.00183644
1.02149 0.1 -0.184814 0.00184116
0.756814 0.1 -0.7125 0.00401643
0.756814 0.1 0.7125 0.00399468
0.522865 0.1 0.9 0.00738241
0.93886 0.1 -0.45 0.00239347
0.93886 0.1 0.45 0.00237912
1.04168 0.1 0 0.00173521
1.04168 0.1 -0.0729162 0.00174127
1.04168 0.1 0.0729162 0.00173933
0.522865 0.1 -0.903998 0.00734502
0.797314 0.1 -0.675 0.00361968
0.797314 0.1 0.675 0.00359848
0.467897 0.1 0.9375 0.00830045
0.467897 0.1 -0.9375 0.00830871
0 0.1 1.05 0.00506772
0 0.1 -1.05 0.00507395
0.835106 0.1 -0.6375 0.00324214
0.835106 0.1 0.6375 0.00322229
1.04168 0.1 -0.145832 0.00175734
1.04168 0.1 0.145832 0.00175376
1.02149 0.1 -0.25874 0.0018775
1.02149 0.1 0.25874 0.00187129
0.969689 0.1 -0.4125 0.00223412
0.969689 0.1 0.4125 0.00222612
0.411108 0.1 0.975 0.00945904
0.411108 0.1 -0.975 0.00946334
0.871687 0.1 -0.6 0.00295383
0.871687 0.1 0.6 0.00293465
1.0579 0.1 -0.0360525 0.0016864
1.0579 0.1 0.0360525 0.00168535
0.990306 0.1 -0.375 0.00211841
0.990306 0.1 0.375 0.0021099
0.150379 0.1 1.05 0.0115253
0.150379 0.1 -1.05 0.0115533
1.0579 0.1 0.108157 0.00169336
1.0579 0.1 -0.108157 0.00169629
1.04168 0.1 -0.218749 0.00178372
1.04168 0.1 0.218749 0.00177873
0.90582 0.1 -0.5625 0.00267638
0.90582 0.1 0.5625 0.00265778
0 0.1 -1.06799 0.00507265
0 0.1 1.06799 0.00506661
0.0363518 0.1 -1.06799 0.00776502
0.0363518 0.1 1.06799 0.00774637
0.350249 0.1 1.0125 0.0105733
0.350249 0.1 -1.0125 0.0105732
1.0579 0.1 -0.180262 0.00171471
1.0579 0.1 0.180262 0.00171024
1.02149 0.1 -0.332665 0.00192662
1.02149 0.1 0.332665 0.00191881
0.93886 0.1 -0.525 0.00250497
0.93886 0.1 0.525 0.00248566
1.08012 0.1 5.49329e-18 0.00162986
1.04168 0.1 -0.291665 0.00182099
1.04168 0.1 0.291665 0.00181463
1.08012 0.1 0.0709941 0.00163319
1.08012 0.1 -0.0709941 0.00163491
0.969689 0.1 -0.4875 0.00233718
0.96969 0.1 0.4875 0.00230836
1.0579 0.1 0.252367 0.00173658
1.0579 0.1 -0.252367 0.00174259
0.990306 0.1 -0.45 0.0022013
0.990306 0.1 0.45 0.00218479
0.287374 0.1 -1.05 0.0114822
0.287374 0.1 1.05 0.0114699
0.714971 0.1 0.821002 0.00472684
1.08012 0.1 -0.141988 0.00164796
1.08012 0.1 0.141988 0.00164478
0.075776 0.1 1.0875 0.0106402
0.075776 0.1 -1.0875 0.0106718
0.714971 0.1 -0.825 0.00477877
0.756813 0.1 -0.7875 0.00424592
0.756814 0.1 0.7875 0.00422128
0.67013 0.1 -0.8625 0.00533576
0.67013 0.1 0.8625 0.00531196
0.797314 0.1 -0.75 0.00382509
0.797314 0.1 0.75 0.00380055
0.623803 0.1 0.9 0.00604018
0.835106 0.1 -0.7125 0.00342408
0.835106 0.1 0.7125 0.00339994
0.623803 0.1 -0.903998 0.00601623
0.574156 0.1 0.9375 0.00678277
0.574156 0.1 -0.9375 0.00679084
1.02149 0.1 -0.406591 0.00199158
1.02149 0.1 0.406591 0.00198151
1.08012 0.1 -0.212982 0.00166926
1.08012 0.1 0.212982 0.00166476
1.10076 0.1 -0.0349809 0.00157932
1.10076 0.1 0.0349809 0.00157854
0.871687 0.1 -0.675 0.00311714
0.871687 0.1 0.675 0.00309407
1.04168 0.1 -0.364581 0.00187111
1.04168 0.1 0.364581 0.001863
1.10076 0.1 -0.104943 0.00158811
1.10076 0.1 0.104943 0.00158596
0.522865 0.1 0.975 0.00767591
0.522865 0.1 -0.975 0.00768842
1.0579 0.1 -0.324472 0.00178043
1.0579 0.1 0.324472 0.00177298
0 0.1 -1.10701 0.00507242
0 0.1 1.10701 0.00506691
0.0363518 0.1 1.10701 0.00774667
0.0363518 0.1 -1.10701 0.0077648
0.90582 0.1 0.6375 0.00279951
0.905821 0.1 -0.6375 0.00282092
0.219992 0.1 1.0875 0.0122901
0.219992 0.1 -1.0875 0.0123166
0.93886 0.1 0.6 0.00261516
0.93886 0.1 -0.6 0.00263351
1.10076 0.1 -0.174905 0.00160419
1.10076 0.1 0.174905 0.00160091
0.467897 0.1 1.0125 0.00860788
0.467897 0.1 -1.0125 0.0086239
1.08012 0.1 -0.283976 0.00169937
1.08012 0.1 0.283976 0.00169369
1.11928 0.1 3.93204e-18 0.00154088
0.990306 0.1 -0.525 0.00230841
0.990306 0.1 0.525 0.00228831
0.96969 0.1 -0.5625 0.00245563
0.969689 0.1 0.5625 0.00244018
1.11928 0.1 -0.0690357 0.00154532
1.11928 0.1 0.0690357 0.00154389
0 0.1 1.125 0.00506855
0 0.1 -1.125 0.00507375
0.411108 0.1 -1.05 0.00970157
0.411108 0.1 1.05 0.00969172
1.10076 0.1 0.244866 0.00162415
1.10076 0.1 -0.244866 0.00162854
1.11928 0.1 -0.138072 0.00155671
1.11928 0.1 0.138072 0.00155409
1.02149 0.1 0.480517 0.0020609
1.02149 0.1 -0.480517 0.00207625
1.0579 0.1 -0.396577 0.00183179
1.0579 0.1 0.396577 0.00182175
1.04168 0.1 -0.437497 0.00193676
1.04168 0.1 0.437497 0.00192572
0.150379 0.1 1.125 0.0114642
0.150379 0.1 -1.125 0.0114942
0.714971 0.1 0.88201 0.00476744
1.08012 0.1 0.354971 0.00173289
1.08012 0.1 -0.354971 0.00174019
1.11928 0.1 -0.207107 0.00157521
1.11928 0.1 0.207107 0.00157152
0.350249 0.1 -1.0875 0.010727
0.350249 0.1 1.0875 0.0107234
0 0.1 1.14299 0.00506929
0 0.1 -1.14299 0.00507418
0.0363518 0.1 1.14299 0.00772514
0.0363518 0.1 -1.14299 0.00774143
1.14316 0.1 -0.0339211 0.00148718
1.14316 0.1 0.0339211 0.00148643
0.797314 0.1 0.821002 0.00402492
1.10076 0.1 -0.314829 0.00166119
1.10076 0.1 0.314829 0.00165602
0.797314 0.1 -0.825 0.00405938
0.756814 0.1 -0.8625 0.00450878
0.756814 0.1 0.8625 0.00447775
1.14316 0.1 -0.101763 0.00149445
1.14316 0.1 0.101763 0.00149237
0.835106 0.1 -0.7875 0.00363171
0.835106 0.1 0.7875 0.00360413
0.871687 0.1 -0.75 0.00330761
0.871687 0.1 0.75 0.00328011
0.67013 0.1 0.9375 0.00561917
0.67013 0.1 -0.9375 0.00564743
0.90582 0.1 -0.7125 0.00299247
0.905821 0.1 0.7125 0.00296563
0.714971 0.1 -0.903998 0.00502896
1.11928 0.1 0.276143 0.0015968
1.11928 0.1 -0.276143 0.00160131
1.14316 0.1 0.169605 0.0015044
1.14316 0.1 -0.169605 0.00150751
0.93886 0.1 -0.675 0.0027802
0.93886 0.1 0.675 0.00275898
1.15704 0.1 0 0.00145916
1.0579 0.1 0.468682 0.00188466
1.0579 0.1 -0.468682 0.00189755
0.623803 0.1 0.975 0.0063466
0.623803 0.1 -0.975 0.00636907
0.990306 0.1 0.6 0.00240979
0.990306 0.1 -0.6 0.00242656
1.15704 0.1 -0.0671479 0.00146295
1.15704 0.1 0.0671479 0.00146168
1.04168 0.1 -0.510414 0.00202174
1.04168 0.1 0.510414 0.00200747
0.969689 0.1 -0.6375 0.00258596
0.969689 0.1 0.6375 0.00256793
1.08012 0.1 0.425965 0.00178399
1.08012 0.1 -0.425965 0.00179342
0.287374 0.1 -1.125 0.0115521
0.287374 0.1 1.125 0.0115337
1.02149 0.1 -0.554443 0.00218296
1.02149 0.1 0.554443 0.00216597
0.574156 0.1 1.0125 0.00707187
0.574156 0.1 -1.0125 0.00708955
1.15704 0.1 -0.134296 0.0014725
1.15704 0.1 0.134296 0.00147024
0.075776 0.1 1.1625 0.0105953
0.075776 0.1 -1.1625 0.0106232
1.10076 0.1 -0.384791 0.00170536
1.10076 0.1 0.384791 0.00169845
1.14316 0.1 -0.237448 0.00152721
1.14316 0.1 0.237448 0.00152316
1.11928 0.1 -0.345179 0.00163658
1.11928 0.1 0.345179 0.00163093
0.522865 0.1 1.05 0.00799209
0.522865 0.1 -1.05 0.00801263
1.15704 0.1 -0.201444 0.00148781
1.15704 0.1 0.201444 0.00148478
1.1744 0.1 -0.0331401 0.00142727
1.1744 0.1 0.0331401 0.00142664
1.1744 0.1 -0.0994202 0.00143374
1.1744 0.1 0.0994202 0.00143188
0 0.1 1.18201 0.00507305
0 0.1 -1.18201 0.00507753
0.0363518 0.1 1.18201 0.0077289
0.0363518 0.1 -1.18201 0.00774477
0.219992 0.1 1.1625 0.0122496
0.219993 0.1 -1.1625 0.0122834
1.14316 0.1 0.30529 0.00154919
1.14316 0.1 -0.30529 0.00155384
0.467897 0.1 1.0875 0.00894187
0.467897 0.1 -1.0875 0.00896098
1.1744 0.1 -0.1657 0.00144495
1.1744 0.1 0.1657 0.00144247
1.15704 0.1 -0.268592 0.00150939
1.15704 0.1 0.268592 0.00150583
1.0579 0.1 0.540787 0.00196597
1.0579 0.1 -0.540787 0.00198166
0.796996 0.1 0.88201 0.00422512
1.08012 0.1 -0.496959 0.0018623
1.08012 0.1 0.496959 0.00184976
1.10076 0.1 0.454752 0.00175206
1.10076 0.1 -0.454752 0.00176052
1.11928 0.1 -0.414214 0.00168242
1.11928 0.1 0.414214 0.00167529
1.04168 0.1 -0.58333 0.00211355
1.04168 0.1 0.58333 0.00209753
1.1744 0.1 -0.231981 0.00146184
1.1744 0.1 0.231981 0.00145867
0.871687 0.1 0.821002 0.00348251
0.411108 0.1 1.125 0.00995457
0.411108 0.1 -1.125 0.00996871
1.19808 0.1 1.73472e-17 0.00137834
0.990306 0.1 0.675 0.00254012
0.990306 0.1 -0.675 0.00255887
1.02149 0.1 0.628368 0.00226794
1.02149 0.1 -0.628368 0.00228543
1.19808 0.1 -0.0650961 0.00138168
1.19808 0.1 0.0650961 0.00138052
0 0.1 1.2 0.00507615
0 0.1 -1.2 0.00508056
0.871687 0.1 -0.825 0.00351907
0.905821 0.1 -0.7875 0.00319346
0.90582 0.1 0.7875 0.00316211
0.835106 0.1 -0.8625 0.00386956
0.835106 0.1 0.8625 0.00383638
0.93886 0.1 -0.75 0.00294487
0.93886 0.1 0.75 0.00291909
1.14316 0.1 -0.373132 0.00158984
1.14316 0.1 0.373132 0.00158378
0.969689 0.1 0.7125 0.00270809
0.969689 0.1 -0.7125 0.00272686
1.15704 0.1 -0.33574 0.00153852
1.15704 0.1 0.33574 0.00153426
0.756813 0.1 0.9375 0.00477089
0.756814 0.1 -0.9375 0.00480714
1.19808 0.1 0.130192 0.00138794
1.19808 0.1 -0.130192 0.00138998
0.797314 0.1 -0.903998 0.0042903
0.714971 0.1 0.975 0.0053526
0.714971 0.1 -0.975 0.00538794
0.150379 0.1 1.2 0.0114388
0.150379 0.1 -1.2 0.0114689
1.20938 0.1 -0.0322656 0.00135919
1.20938 0.1 0.0322656 0.00135862
1.1744 0.1 -0.298261 0.00148443
1.1744 0.1 0.298261 0.00148107
1.20938 0.1 -0.0967968 0.00136509
1.20938 0.1 0.0967968 0.00136344
1.19808 0.1 -0.195288 0.00140306
1.19808 0.1 0.195288 0.0014004
0.350249 0.1 1.1625 0.0109338
0.350249 0.1 -1.1625 0.0109444
0.67013 0.1 1.0125 0.00595305
0.67013 0.1 -1.0125 0.00598817
0 0.1 1.21799 0.00507829
0 0.1 -1.21799 0.00508263
0.0363518 0.1 -1.21799 0.00773569
0.0363518 0.1 1.21799 0.00772126
1.11928 0.1 -0.48325 0.00174151
1.11928 0.1 0.48325 0.00173101
1.10076 0.1 -0.524714 0.00183323
1.10076 0.1 0.524714 0.00181969
1.20938 0.1 0.161328 0.001373
1.20938 0.1 -0.161328 0.00137528
1.08012 0.1 0.567953 0.00192397
1.08012 0.1 -0.567953 0.00193581
0.623803 0.1 1.05 0.00667468
0.623803 0.1 -1.05 0.00670377
1.0579 0.1 -0.612892 0.00206107
1.0579 0.1 0.612892 0.00204301
1.15704 0.1 -0.402888 0.00157658
1.15704 0.1 0.402888 0.00157135
1.14316 0.1 0.440974 0.00162808
1.14316 0.1 -0.440974 0.00163552
1.19808 0.1 -0.260384 0.00142126
1.19808 0.1 0.260384 0.00141825
1.2267 0.1 3.57064e-18 0.00132569
1.2267 0.1 -0.0636649 0.0013288
1.2267 0.1 0.0636649 0.00132776
1.1744 0.1 -0.364541 0.00151501
1.1744 0.1 0.364541 0.00151076
0.574156 0.1 1.0875 0.00740649
0.574156 0.1 -1.0875 0.00743566
1.20938 0.1 0.225859 0.00138753
1.20938 0.1 -0.225859 0.00139039
1.04168 0.1 -0.656246 0.00221901
1.04168 0.1 0.656246 0.00220143
1.2267 0.1 -0.12733 0.00133658
1.2267 0.1 0.12733 0.00133473
0.287374 0.1 1.2 0.0116558
0.287374 0.1 -1.2 0.0116806
1.02149 0.1 -0.702294 0.00242379
1.02149 0.1 0.702294 0.00240208
0.075776 0.1 -1.2375 0.0106039
0.075776 0.1 1.2375 0.010579
0.871399 0.1 0.88201 0.00366342
0.522865 0.1 1.125 0.0083365
0.522865 0.1 -1.125 0.00836349
1.2267 0.1 -0.190994 0.00134889
1.2267 0.1 0.190994 0.00134637
1.19808 0.1 -0.32548 0.00144548
1.19808 0.1 0.32548 0.00144205
0.990306 0.1 -0.75 0.00270741
0.990306 0.1 0.75 0.00268407
1.24274 0.1 -0.0314313 0.00129518
1.24274 0.1 0.0314313 0.00129461
1.20938 0.1 -0.29039 0.00141032
1.20938 0.1 0.29039 0.00140744
1.24274 0.1 -0.0942942 0.00130054
1.24274 0.1 0.0942942 0.00129921
0.93886 0.1 0.821002 0.00309341
1.11928 0.1 -0.552285 0.00180667
1.11928 0.1 0.552285 0.00179898
1.15704 0.1 -0.470036 0.00162488
1.15704 0.1 0.470036 0.00161736
0.969689 0.1 -0.7875 0.00287315
0.96969 0.1 0.7875 0.0028468
0.93886 0.1 -0.825 0.00312945
0.90582 0.1 0.8625 0.00336152
0.905821 0.1 -0.8625 0.00339342
1.1744 0.1 -0.430821 0.00155398
1.1744 0.1 0.430821 0.001549
1.10076 0.1 -0.594676 0.0018958
1.10076 0.1 0.594676 0.00189465
1.14316 0.1 -0.508816 0.00169479
1.14316 0.1 0.508816 0.00168275
1.24274 0.1 -0.157157 0.0013102
1.24274 0.1 0.157157 0.00130813
1.2267 0.1 -0.254659 0.0013659
1.2267 0.1 0.254659 0.00136307
0.467897 0.1 1.1625 0.00929237
0.467897 0.1 -1.1625 0.00931517
1.08012 0.1 0.638947 0.00200788
1.08012 0.1 -0.638947 0.00202134
1.25511 0.1 -5.78241e-19 0.00127127
0.835106 0.1 -0.9375 0.00413496
0.835106 0.1 0.9375 0.00409825
0.871687 0.1 -0.903998 0.00373063
1.25511 0.1 0.0622446 0.00127318
1.25511 0.1 -0.0622446 0.00127423
0.219992 0.1 1.2375 0.0122492
0.219992 0.1 -1.2375 0.0122827
0 0.1 -1.25701 0.0050894
0 0.1 1.25701 0.00508537
0.0363518 0.1 -1.25701 0.00774246
0.0363518 0.1 1.25701 0.00772835
0.797314 0.1 0.975 0.00458369
0.797314 0.1 -0.975 0.00462319
1.19808 0.1 -0.390576 0.00147704
1.19808 0.1 0.390576 0.00147297
1.0579 0.1 -0.684997 0.00217115
1.0579 0.1 0.684997 0.00215159
1.20938 0.1 -0.354921 0.00143684
1.20938 0.1 0.354921 0.00143324
1.25511 0.1 0.124489 0.00127978
1.25511 0.1 -0.124489 0.00128164
1.24274 0.1 -0.220019 0.00132441
1.24274 0.1 0.220019 0.00132168
0.756813 0.1 1.0125 0.00509499
0.756814 0.1 -1.0125 0.00513647
1.2267 0.1 -0.318324 0.00138821
1.2267 0.1 0.318324 0.00138508
0.411108 0.1 1.2 0.0102481
0.411108 0.1 -1.2 0.0102692
1.25511 0.1 -0.186734 0.00129345
1.25511 0.1 0.186734 0.00129072
0.714971 0.1 1.05 0.0056927
0.714971 0.1 -1.05 0.00573305
1.04168 0.1 -0.729162 0.00235629
1.04168 0.1 0.729162 0.00233374
1.24274 0.1 0.282882 0.00134045
1.24274 0.1 -0.282882 0.00134312
0 0.1 1.275 0.00509031
0 0.1 -1.275 0.00509413
1.1744 0.1 0.497102 0.0015948
1.1744 0.1 -0.497102 0.0016022
1.15704 0.1 -0.537184 0.00168512
1.15704 0.1 0.537184 0.00167736
1.2756 0.1 -0.03061 0.00123049
1.2756 0.1 0.03061 0.00122991
0.67013 0.1 1.0875 0.00630685
0.67013 0.1 -1.0875 0.00634091
1.2756 0.1 -0.09183 0.00123539
1.2756 0.1 0.09183 0.0012342
1.25511 0.1 -0.248978 0.00130977
1.25511 0.1 0.248978 0.00130655
1.20938 0.1 0.419453 0.00146671
1.20938 0.1 -0.419453 0.00147076
1.11928 0.1 -0.621322 0.00188027
1.11928 0.1 0.621322 0.00187267
1.14316 0.1 -0.576659 0.00175683
1.14316 0.1 0.576659 0.00175182
1.19808 0.1 -0.455673 0.00151678
1.19808 0.1 0.455673 0.00151088
1.02149 0.1 0.776219 0.00256061
1.02149 0.1 -0.776219 0.00258837
0.150379 0.1 1.275 0.0114445
0.150379 0.1 -1.275 0.0114727
1.2756 0.1 -0.15305 0.00124455