# nutMean  POINT_DATA 63840
# x  y  z  nutMean
0 0.5 3.39583e-17 0.0152669
0 0.5 -0.00617931 0.0152711
0 0.5 0.00617931 0.015269
0.0124865 0.5 -0.00617931 0.0163227
0.0124865 0.5 0.00617931 0.0163197
0 0.5 -0.0688207 0.0152362
0 0.5 0.0688207 0.0152064
0.0124865 0.5 -0.0688207 0.0162877
0.0124865 0.5 0.0688207 0.0162572
0 0.5 -0.075 0.0152251
0 0.5 0.075 0.015192
0 0.5 -0.0811793 0.0152202
0 0.5 0.0811793 0.0151838
0.0124865 0.5 -0.0811793 0.0162894
0.0124865 0.5 0.0811793 0.0162491
0.075776 0.5 -0.0375 0.0216226
0.075776 0.5 0.0375 0.0216054
0.075776 0.5 -0.1125 0.0216309
0.075776 0.5 0.1125 0.0215547
0 0.5 -0.143821 0.0150324
0 0.5 0.143821 0.0149694
0.0124865 0.5 -0.143821 0.0161016
0.0124865 0.5 0.143821 0.0160347
0 0.5 -0.15 0.0150001
0 0.5 0.15 0.0149352
0.151149 0.5 -0.00137318 0.0190926
0 0.5 -0.156179 0.0149736
0 0.5 0.156179 0.0149067
0.0124865 0.5 -0.156179 0.0160146
0.0124865 0.5 0.156179 0.0159432
0.151149 0.5 0.075 0.0190326
0.151149 0.5 -0.075 0.0190536
0.075776 0.5 -0.1875 0.0211104
0.075776 0.5 0.1875 0.0210069
0.151149 0.5 0.15 0.0187987
0.151149 0.5 -0.15 0.0188476
0 0.5 -0.218821 0.0146306
0 0.5 0.218821 0.0145471
0.0124865 0.5 -0.218821 0.0156716
0.0124865 0.5 0.218821 0.0155836
0.219992 0.5 0.0375 0.0167071
0.219993 0.5 -0.0375 0.0167064
0 0.5 -0.225 0.014589
0 0.5 0.225 0.0145042
0 0.5 -0.231179 0.0145527
0 0.5 0.231179 0.0144665
0.0124865 0.5 -0.231179 0.0155565
0.0124865 0.5 0.231179 0.0154651
0.219992 0.5 0.1125 0.0166048
0.219993 0.5 -0.1125 0.0165996
0.151149 0.5 -0.225 0.0184262
0.151149 0.5 0.225 0.0183576
0.075776 0.5 -0.2625 0.0204206
0.075776 0.5 0.2625 0.0202968
0.288069 0.5 -0.00137318 0.0135263
0.219992 0.5 0.1875 0.0163611
0.219993 0.5 -0.1875 0.0163876
0 0.5 0.293821 0.0140415
0 0.5 -0.293821 0.0141382
0.0124865 0.5 -0.293821 0.015142
0.0124865 0.5 0.293821 0.0150401
0.288069 0.5 -0.075 0.0134817
0.288069 0.5 0.075 0.0134865
0 0.5 -0.3 0.0140923
0 0.5 0.3 0.0139949
0 0.5 0.306179 0.013953
0 0.5 -0.306179 0.0140511
0.0124865 0.5 -0.306179 0.0150133
0.0124865 0.5 0.306179 0.0149098
0.288069 0.5 -0.15 0.0134129
0.288069 0.5 0.15 0.0134131
0.151149 0.5 -0.3 0.0179095
0.151149 0.5 0.3 0.017834
0.219992 0.5 -0.2625 0.0160996
0.219992 0.5 0.2625 0.0160731
0.075776 0.5 0.3375 0.0195159
0.075776 0.5 -0.3375 0.0196496
0.350249 0.5 -0.0375 0.0104985
0.350249 0.5 0.0375 0.0105021
0.288069 0.5 -0.225 0.0133066
0.288069 0.5 0.225 0.0132981
0.350249 0.5 0.1125 0.0105308
0.350249 0.5 -0.1125 0.0105214
0 0.5 0.368821 0.0135083
0 0.5 -0.368821 0.0136106
0.0124865 0.5 -0.368821 0.0145729
0.0124865 0.5 0.368821 0.0144651
0 0.5 -0.375 0.0135647
0 0.5 0.375 0.0134624
0 0.5 -0.381179 0.0135227
0 0.5 0.381179 0.0134201
0.0124865 0.5 -0.381179 0.0144432
0.0124865 0.5 0.381179 0.0143352
0.350249 0.5 -0.1875 0.010531
0.350249 0.5 0.1875 0.010542
0.219992 0.5 -0.3375 0.0157529
0.219992 0.5 0.3375 0.0157276
0.151149 0.5 -0.375 0.0173505
0.151149 0.5 0.375 0.0172719
0.411736 0.5 -0.00137318 0.00895441
0.288069 0.5 -0.3 0.0131774
0.288069 0.5 0.3 0.0131685
0.411736 0.5 -0.075 0.00895581
0.411736 0.5 0.075 0.00896054
0.075776 0.5 -0.4125 0.0188712
0.075776 0.5 0.4125 0.0187359
0.350249 0.5 -0.2625 0.0105778
0.350249 0.5 0.2625 0.0105838
0.411736 0.5 -0.15 0.00898684
0.411736 0.5 0.15 0.00899504
0 0.5 -0.443821 0.0130925
0 0.5 0.443821 0.0129903
0.0124865 0.5 -0.443821 0.014013
0.0124865 0.5 0.443821 0.0139054
0 0.5 -0.45 0.0130501
0 0.5 0.45 0.0129483
0 0.5 -0.456179 0.0130096
0 0.5 0.456179 0.0129079
0.0124865 0.5 -0.456179 0.0138909
0.0124865 0.5 0.456179 0.0137838
0.219992 0.5 -0.4125 0.0153838
0.219993 0.5 0.4125 0.0153564
0.411736 0.5 -0.225 0.00903669
0.411736 0.5 0.225 0.00904389
0.467897 0.5 0.0375 0.00747835
0.467897 0.5 -0.0375 0.00747669
0.288069 0.5 -0.375 0.0130322
0.288069 0.5 0.375 0.013024
0.151149 0.5 -0.45 0.0167959
0.151149 0.5 0.45 0.0167165
0.467897 0.5 -0.1125 0.00750998
0.467897 0.5 0.1125 0.00751452
0.350249 0.5 0.3375 0.0106335
0.350249 0.5 -0.3375 0.0106253
0.075776 0.5 -0.4875 0.0181384
0.075776 0.5 0.4875 0.0180061
0.467897 0.5 -0.1875 0.00756665
0.467897 0.5 0.1875 0.00757468
0.411736 0.5 -0.3 0.0091093
0.411736 0.5 0.3 0.00911497
0 0.5 -0.518821 0.012614
0 0.5 0.518821 0.0125156
0.0124865 0.5 0.518821 0.0133916
0.0124865 0.5 -0.518821 0.0134952
0.523432 0.5 -0.00137318 0.00660016
0 0.5 -0.525 0.012577
0 0.5 0.525 0.0124793
0.523432 0.5 -0.075 0.00660945
0.523432 0.5 0.075 0.00661154
0 0.5 -0.531179 0.0125396
0 0.5 0.531179 0.0124423
0.0124865 0.5 -0.531179 0.0133856
0.0124865 0.5 0.531179 0.0132832
0.288069 0.5 -0.45 0.0128897
0.288069 0.5 0.45 0.0128805
0.219992 0.5 -0.4875 0.0150181
0.219993 0.5 0.4875 0.014988
0.467897 0.5 -0.2625 0.00765048
0.467897 0.5 0.2625 0.00765434
0.350249 0.5 -0.4125 0.0106861
0.350249 0.5 0.4125 0.0106956
0.523432 0.5 -0.15 0.00665468
0.523432 0.5 0.15 0.00665888
0.151149 0.5 -0.525 0.0162791
0.151149 0.5 0.525 0.0162003
0.411736 0.5 -0.375 0.00919908
0.411736 0.5 0.375 0.00920594
0.075776 0.5 -0.5625 0.0174816
0.075776 0.5 0.5625 0.0173564
0.523432 0.5 -0.225 0.00672661
0.523432 0.5 0.225 0.00673105
0.574156 0.5 -0.0375 0.00575814
0.574156 0.5 0.0375 0.00575859
0.467897 0.5 0.3375 0.00776461
0.467897 0.5 -0.3375 0.00775973
0.574156 0.5 -0.1125 0.00578997
0.574156 0.5 0.1125 0.00579181
0 0.5 -0.593821 0.0121969
0 0.5 0.593821 0.012105
0.0124865 0.5 -0.593821 0.0130429
0.0124865 0.5 0.593821 0.0129459
0.288069 0.5 -0.525 0.012763
0.288069 0.5 0.525 0.0127514
0 0.5 -0.6 0.0121673
0 0.5 0.6 0.0120761
0.350249 0.5 -0.4875 0.0107616
0.350249 0.5 0.4875 0.0107705
0.523432 0.5 -0.3 0.00682427
0.523432 0.5 0.3 0.00682755
0.219992 0.5 -0.5625 0.0146814
0.219992 0.5 0.5625 0.014647
0.574156 0.5 -0.1875 0.00584908
0.574156 0.5 0.1875 0.0058517
0 0.5 -0.606179 0.0121362
0 0.5 0.606179 0.0120458
0.0124865 0.5 -0.606179 0.0129544
0.0124865 0.5 0.606179 0.0128594
0.411736 0.5 -0.45 0.00930956
0.411736 0.5 0.45 0.00931657
0.151149 0.5 -0.6 0.0158261
0.151149 0.5 0.6 0.0157489
0.62168 0.5 2.64545e-17 0.00522951
0.467897 0.5 0.4125 0.00790228
0.467897 0.5 -0.4125 0.00789707
0.624316 0.5 0.0729402 0.00521119
0.624316 0.5 -0.075 0.00521064
0.574156 0.5 -0.2625 0.005937
0.574157 0.5 0.2625 0.00594045
0.075776 0.5 -0.6375 0.0169397
0.075776 0.5 0.6375 0.0168244
0.624316 0.5 -0.15 0.00525416
0.624316 0.5 0.15 0.00525529
0.523432 0.5 -0.375 0.00694857
0.523432 0.5 0.375 0.00695127
0.350249 0.5 -0.5625 0.0108536
0.350249 0.5 0.5625 0.01086
0.624316 0.5 -0.225 0.00532527
0.624316 0.5 0.225 0.00532635
0.288069 0.5 0.6 0.0126462
0.288069 0.5 -0.6 0.0126619
0.574156 0.5 -0.3375 0.00604654
0.574156 0.5 0.3375 0.00604759
0.411736 0.5 -0.525 0.00944103
0.411736 0.5 0.525 0.00944673
0 0.5 -0.668821 0.0118541
0 0.5 0.668821 0.0117697
0.0124865 0.5 -0.668821 0.0126722
0.0124865 0.5 0.668821 0.0125833
0.67013 0.5 0.0375 0.00466106
0.67013 0.5 -0.0375 0.00466122
0.219993 0.5 -0.6375 0.0143845
0.219993 0.5 0.6375 0.0143451
0 0.5 -0.675 0.0118302
0 0.5 0.675 0.0117463
0.467897 0.5 0.4875 0.00806514
0.467897 0.5 -0.4875 0.00806042
0.67013 0.5 -0.1125 0.00469023
0.67013 0.5 0.1125 0.00469034
0 0.5 -0.681179 0.0118056
0 0.5 0.681179 0.0117223
0.0124865 0.5 -0.681179 0.012602
0.0124865 0.5 0.681179 0.0125144
0.523432 0.5 -0.45 0.00710143
0.523432 0.5 0.45 0.00710346
0.151149 0.5 -0.675 0.01545
0.151149 0.5 0.675 0.0153747
0.624316 0.5 -0.3 0.00541772
0.624316 0.5 0.3 0.00542001
0.67013 0.5 0.1875 0.00474461
0.67013 0.5 -0.1875 0.00474455
0.574156 0.5 -0.4125 0.00618753
0.574157 0.5 0.4125 0.00618745
0.708171 0.5 1.88651e-17 0.00433991
0.075776 0.5 -0.7125 0.0165025
0.075776 0.5 0.7125 0.0163958
0.715434 0.5 0.0736268 0.00429995
0.715434 0.5 -0.075 0.00429187
0.67013 0.5 0.2625 0.00482628
0.67013 0.5 -0.2625 0.00482791
0.350249 0.5 -0.6375 0.0109633
0.350249 0.5 0.6375 0.0109653
0.411736 0.5 -0.6 0.00959406
0.411736 0.5 0.6 0.00959685
0.624316 0.5 -0.375 0.00553713
0.624316 0.5 0.375 0.00553844
0.715434 0.5 -0.15 0.00433139
0.715434 0.5 0.15 0.00433095
0.467897 0.5 -0.5625 0.00824985
0.467897 0.5 0.5625 0.00825286
0.288069 0.5 -0.675 0.0125928
0.288069 0.5 0.675 0.0125719
0.523432 0.5 -0.525 0.00728147
0.523432 0.5 0.525 0.0072821
0 0.5 -0.743821 0.0115853
0 0.5 0.743821 0.011508
0.0124865 0.5 -0.743821 0.0123817
0.0124865 0.5 0.743821 0.0123001
0.219992 0.5 0.7125 0.0140965
0.219992 0.5 -0.7125 0.0141412
0.715434 0.5 -0.225 0.00439616
0.715434 0.5 0.225 0.00439491
0 0.5 -0.75 0.011567
0 0.5 0.75 0.0114903
0.67013 0.5 0.3375 0.00492382
0.67013 0.5 -0.3375 0.0049175
0.574156 0.5 -0.4875 0.00635702
0.574156 0.5 0.4875 0.00635562
0 0.5 -0.756179 0.0115483
0 0.5 0.756179 0.0114721
0.0124865 0.5 -0.756179 0.0123285
0.0124865 0.5 0.756179 0.0122483
0.756813 0.5 -0.0375 0.00391285
0.756813 0.5 0.0375 0.0039124
0.151149 0.5 -0.75 0.0151562
0.151149 0.5 0.75 0.0150822
0.756813 0.5 -0.1125 0.00393865
0.756813 0.5 0.1125 0.00393799
0.624316 0.5 -0.45 0.00568915
0.624316 0.5 0.45 0.00568691
0.715434 0.5 -0.3 0.00448218
0.715434 0.5 0.3 0.00448208
0.756813 0.5 0.1875 0.00398659
0.756813 0.5 -0.1875 0.00398778
0.67013 0.5 -0.4125 0.00505561
0.67013 0.5 0.4125 0.00505351
0.411736 0.5 -0.675 0.00976885
0.411736 0.5 0.675 0.0097671
0.467897 0.5 0.6375 0.00846463
0.467897 0.5 -0.6375 0.00846467
0.075776 0.5 -0.7875 0.0161787
0.075776 0.5 0.7875 0.016081
0.350249 0.5 -0.7125 0.0110922
0.350249 0.5 0.7125 0.011088
0.523432 0.5 -0.6 0.00748846
0.523432 0.5 0.6 0.00748661
0.797732 0.5 2.68882e-17 0.00364253
0.756813 0.5 -0.2625 0.00406042
0.756814 0.5 0.2625 0.00405825
0.797732 0.5 0.0736268 0.00365707
0.797732 0.5 -0.075 0.00365492
0.288069 0.5 -0.75 0.0125618
0.288069 0.5 0.75 0.0125346
0.574156 0.5 -0.5625 0.00655453
0.574157 0.5 0.5625 0.00655111
0.715434 0.5 -0.375 0.00459139
0.715434 0.5 0.375 0.00459049
0.797732 0.5 -0.15 0.00369032
0.797732 0.5 0.15 0.00368927
0.624316 0.5 -0.525 0.0058671
0.624316 0.5 0.525 0.0058627
0.219992 0.5 -0.7875 0.0139585
0.219992 0.5 0.7875 0.0139081
0 0.5 -0.818821 0.0113904
0 0.5 0.818821 0.01132
0.0124865 0.5 0.818821 0.0120961
0.0124865 0.5 -0.818821 0.0121706
0 0.5 -0.825 0.0113786
0 0.5 0.825 0.0113088
0.756813 0.5 0.3375 0.00415626
0.756814 0.5 -0.3375 0.00415897
0.67013 0.5 -0.4875 0.00521545
0.67013 0.5 0.4875 0.00521025
0.797732 0.5 -0.225 0.00374775
0.797732 0.5 0.225 0.00374597
0 0.5 -0.831179 0.0113654
0 0.5 0.831179 0.0112961
0.0124865 0.5 -0.831179 0.0121354
0.0124865 0.5 0.831179 0.0120623
0.835106 0.5 0.0375 0.00338346
0.835106 0.5 -0.0375 0.00338398
0.151149 0.5 -0.825 0.0149474
0.151149 0.5 0.825 0.0148748
0.835106 0.5 0.1125 0.00340597
0.835106 0.5 -0.1125 0.00340682
0.715434 0.5 -0.45 0.00472922
0.715434 0.5 0.45 0.00472442
0.797732 0.5 -0.3 0.00382926
0.797732 0.5 0.3 0.00382632
0.467897 0.5 0.7125 0.00869929
0.467897 0.5 -0.7125 0.00870388
0.523432 0.5 -0.675 0.00772189
0.523432 0.5 0.675 0.0077163
0.411736 0.5 -0.75 0.00996585
0.411736 0.5 0.75 0.00995793
0.835106 0.5 -0.1875 0.00345082
0.835106 0.5 0.1875 0.00344931
0.574156 0.5 -0.6375 0.00678024
0.574157 0.5 0.6375 0.00677367
0.350249 0.5 -0.7875 0.0112426
0.350249 0.5 0.7875 0.0112303
0.756813 0.5 -0.4125 0.00426996
0.756814 0.5 0.4125 0.00426516
0.075776 0.5 -0.8625 0.015962
0.075776 0.5 0.8625 0.0158723
0.624316 0.5 0.6 0.00606541
0.624316 0.5 -0.6 0.00607251
0.872064 0.5 5.91974e-17 0.0031716
0.870122 0.5 0.075 0.00319562
0.288069 0.5 -0.825 0.0125714
0.288069 0.5 0.825 0.0125375
0.67013 0.5 -0.5625 0.00540101
0.67013 0.5 0.5625 0.00539361
0.872064 0.5 -0.075 0.00318258
0.835106 0.5 -0.2625 0.00351506
0.835106 0.5 0.2625 0.00351279
0.797732 0.5 -0.375 0.00392748
0.797732 0.5 0.375 0.00392448
0.872064 0.5 0.14794 0.00321279
0.872064 0.5 -0.15 0.00321399
0.715434 0.5 -0.525 0.00489379
0.715434 0.5 0.525 0.00488651
0.219992 0.5 0.8625 0.0137826
0.219993 0.5 -0.8625 0.0138379
0 0.5 -0.893821 0.0112683
0 0.5 0.893821 0.0112048
0.0124865 0.5 -0.893821 0.0120382
0.0124865 0.5 0.893821 0.011971
0 0.5 -0.9 0.011263
0 0.5 0.9 0.0112
0.756813 0.5 -0.4875 0.0044134
0.756813 0.5 0.4875 0.0044064
0.872064 0.5 -0.225 0.00326498
0.872064 0.5 0.225 0.0032631
0.835106 0.5 -0.3375 0.00360601
0.835106 0.5 0.3375 0.00360143
0 0.5 0.906179 0.0111943
0 0.5 -0.906179 0.0112565
0.0124865 0.5 -0.906179 0.0120232
0.0124865 0.5 0.906179 0.0119578
0.90582 0.5 -0.0375 0.0029677
0.90582 0.5 0.0375 0.00296718
0.151149 0.5 -0.9 0.0148242
0.151149 0.5 0.9 0.0147533
0.90582 0.5 -0.1125 0.00298778
0.905821 0.5 0.1125 0.00298692
0.523432 0.5 -0.75 0.00798097
0.523432 0.5 0.75 0.00797033
0.574156 0.5 -0.7125 0.00703356
0.574156 0.5 0.7125 0.00702274
0.797732 0.5 -0.45 0.00404735
0.797732 0.5 0.45 0.00404277
0.467897 0.5 0.7875 0.00895616
0.467897 0.5 -0.7875 0.00896675
0.624316 0.5 -0.675 0.00630595
0.624316 0.5 0.675 0.00629506
0.411736 0.5 -0.825 0.0101849
0.411736 0.5 0.825 0.0101695
0.872064 0.5 0.3 0.00333437
0.872064 0.5 -0.3 0.00333809
0.67013 0.5 -0.6375 0.0056145
0.67013 0.5 0.6375 0.00560369
0.90582 0.5 0.1875 0.00302505
0.905821 0.5 -0.1875 0.00302664
0.350249 0.5 -0.8625 0.0114137
0.350249 0.5 0.8625 0.0113934
0.835106 0.5 -0.4125 0.00369892
0.835106 0.5 0.4125 0.00369897
0.715434 0.5 -0.6 0.00508489
0.715434 0.5 0.6 0.00507479
0.939201 0.5 2.75387e-17 0.00286209
0.075776 0.5 0.9375 0.0157789
0.075776 0.5 -0.9375 0.0158586
0.939111 0.5 0.075 0.00287331
0.939201 0.5 -0.075 0.00287229
0.756813 0.5 0.5625 0.00457417
0.756814 0.5 -0.5625 0.00458358
0.90582 0.5 0.2625 0.00308156
0.905821 0.5 -0.2625 0.0030837
0.288069 0.5 -0.9 0.0126245
0.288069 0.5 0.9 0.0125847
0.872064 0.5 -0.375 0.0034262
0.872064 0.5 0.375 0.003425
0.939201 0.5 0.148627 0.00290161
0.939201 0.5 -0.15 0.00290133
0.797732 0.5 -0.525 0.00419746
0.797732 0.5 0.525 0.00418931
0.219992 0.5 0.9375 0.0137204
0.219992 0.5 -0.9375 0.0137811
0.939201 0.5 -0.225 0.00294853
0.939201 0.5 0.225 0.00294717
0.905821 0.5 -0.3375 0.00316425
0.90582 0.5 0.3375 0.00315838
0.835106 0.5 -0.4875 0.00383168
0.835106 0.5 0.4875 0.00382501
0 0.5 0.968821 0.011159
0 0.5 -0.968821 0.0112163
0.0124865 0.5 -0.968821 0.011983
0.0124865 0.5 0.968821 0.0119224
0.969689 0.5 -0.0375 0.00276046
0.969689 0.5 0.0375 0.0027599
0.574156 0.5 -0.7875 0.00731362
0.574156 0.5 0.7875 0.0072974
0 0.5 -0.975 0.0112132
0 0.5 0.975 0.0111557
0.624316 0.5 -0.75 0.00656708
0.624316 0.5 0.75 0.00655139
0.969689 0.5 -0.1125 0.0027801
0.96969 0.5 0.1125 0.00277949
0.523432 0.5 -0.825 0.00826469
0.523432 0.5 0.825 0.00824753
0.67013 0.5 0.7125 0.00584124
0.67013 0.5 -0.7125 0.00585638
0 0.5 -0.981179 0.0112124
0 0.5 0.981179 0.0111551
0.467897 0.5 0.8625 0.00923309
0.467897 0.5 -0.8625 0.00925156
0.0124865 0.5 -0.981179 0.0119782
0.0124865 0.5 0.981179 0.011917
0.872064 0.5 -0.45 0.00353422
0.872064 0.5 0.45 0.00353281
0.715434 0.5 -0.675 0.00530349
0.715434 0.5 0.675 0.00528956
0.939201 0.5 -0.3 0.0030153
0.939201 0.5 0.3 0.00301247
0.151149 0.5 0.975 0.0147114
0.151149 0.5 -0.975 0.0147806
0.969689 0.5 -0.1875 0.0028177
0.969689 0.5 0.1875 0.00281686
0.756813 0.5 -0.6375 0.00477956
0.756813 0.5 0.6375 0.00476685
0.411736 0.5 -0.9 0.0104272
0.411736 0.5 0.9 0.0104052
0.90582 0.5 -0.4125 0.00325256
0.90582 0.5 0.4125 0.00325809
0.995005 0.5 0.0749309 0.00264431
0.797732 0.5 -0.6 0.00437186
0.797732 0.5 0.6 0.00436074
1.00005 0.5 -8.47123e-18 0.00260636
0.350249 0.5 -0.9375 0.0116146
0.350249 0.5 0.9375 0.0115892
1.00005 0.5 -0.0749309 0.00261601
0.969689 0.5 -0.2625 0.00287302
0.969689 0.5 0.2625 0.00287214
0.835106 0.5 -0.5625 0.00398629
0.835106 0.5 0.5625 0.0039768
1.00005 0.5 -0.149862 0.00264343
0.939201 0.5 -0.375 0.00309936
0.939201 0.5 0.375 0.00309826
1.00029 0.5 0.148988 0.00264639
0.075776 0.5 -1.0125 0.0158402
0.075776 0.5 1.0125 0.0157629
0.288069 0.5 0.975 0.012678
0.288069 0.5 -0.975 0.0127234
0.872064 0.5 -0.525 0.00366947
0.872064 0.5 0.525 0.00366227
1.00005 0.5 0.224793 0.00268742
1.00005 0.5 -0.224793 0.00268826
0.969689 0.5 0.3375 0.00294482
0.96969 0.5 -0.3375 0.00294732
1.0271 0.5 -0.0368226 0.0024448
1.0271 0.5 0.0368226 0.00244447
0.90582 0.5 0.4875 0.00336631
0.905821 0.5 -0.4875 0.003371
1.0271 0.5 -0.110468 0.00246193
1.0271 0.5 0.110468 0.00245091
0.67013 0.5 0.7875 0.00610585
0.67013 0.5 -0.7875 0.00612621
0.624316 0.5 0.825 0.0068337
0.624316 0.5 -0.825 0.0068553
0.219993 0.5 -1.0125 0.0137836
0.219993 0.5 1.0125 0.0137234
0.574156 0.5 -0.8625 0.00761969
0.574156 0.5 0.8625 0.00759662
0.715434 0.5 -0.75 0.00554996
0.715434 0.5 0.75 0.00553134
0.756813 0.5 0.7125 0.00498649
0.756814 0.5 -0.7125 0.00500344
0.523432 0.5 -0.9 0.00857192
0.523432 0.5 0.9 0.00854761
0.939201 0.5 -0.45 0.00320396
0.939201 0.5 0.45 0.00320005
1.04168 0.5 0 0.00236947
1.0271 0.5 -0.184113 0.0024951
1.0271 0.5 0.184113 0.00249464
0 0.5 -1.04382 0.0112025
0 0.5 1.04382 0.0111464
0.0124865 0.5 -1.04382 0.0119683
0.0124865 0.5 1.04382 0.0119082
1.00005 0.5 -0.299723 0.00275114
1.00005 0.5 0.299723 0.00274955
1.04168 0.5 -0.0729162 0.00237745
1.04168 0.5 0.0729162 0.00237712
0.797732 0.5 -0.675 0.00457252
0.797732 0.5 0.675 0.00455748
0.467897 0.5 0.9375 0.00953338
0.467897 0.5 -0.9375 0.00955755
0 0.5 -1.05 0.0111985
0 0.5 1.05 0.0111426
0.835106 0.5 -0.6375 0.00416385
0.835106 0.5 0.6375 0.00415102
1.04168 0.5 -0.145832 0.00240024
1.04168 0.5 0.145832 0.00239988
0.969689 0.5 -0.4125 0.00304039
0.96969 0.5 0.4125 0.00303891
0 0.5 -1.05618 0.0111961
0 0.5 1.05618 0.0111402
0.0124865 0.5 -1.05618 0.0119539
0.0124865 0.5 1.05618 0.0118937
1.05695 0.5 -0.0360764 0.00229412
1.05695 0.5 0.0360764 0.00229375
0.411736 0.5 -0.975 0.0106989
0.411736 0.5 0.975 0.0106682
0.872064 0.5 -0.6 0.00382632
0.872064 0.5 0.6 0.00381586
1.0271 0.5 -0.257759 0.00254499
1.0271 0.5 0.257759 0.00254428
0.151149 0.5 -1.05 0.0147829
0.151149 0.5 1.05 0.014711
1.05695 0.5 0.108229 0.00229244
1.05695 0.5 -0.108229 0.00230819
1.04168 0.5 -0.218749 0.00243789
1.04168 0.5 0.218749 0.00243734
0.90582 0.5 -0.5625 0.00350681
0.905821 0.5 0.5625 0.00349881
1.00005 0.5 -0.374654 0.00283371
1.00005 0.5 0.374654 0.00283114
0.350249 0.5 1.0125 0.0118104
0.350249 0.5 -1.0125 0.0118478
1.05695 0.5 -0.180382 0.0023352
1.05695 0.5 0.180382 0.00233451
1.07319 0.5 0.0709442 0.00223695
0.939201 0.5 -0.525 0.00333923
0.939201 0.5 0.525 0.00333139
1.0271 0.5 -0.331404 0.00261251
1.0271 0.5 0.331404 0.00261088
1.08112 0.5 3.23815e-17 0.00220261
1.04168 0.5 -0.291665 0.00249119
1.04168 0.5 0.291665 0.00249012
1.08112 0.5 -0.0709442 0.00220927
0.969689 0.5 -0.4875 0.00315889
0.96969 0.5 0.4875 0.00314421
1.05695 0.5 0.252535 0.00237502
1.05695 0.5 -0.252535 0.00237616
0.288069 0.5 -1.05 0.0128623
0.288069 0.5 1.05 0.0128086
0.075776 0.5 -1.0875 0.0158033
0.075776 0.5 1.0875 0.0157206
1.08112 0.5 -0.141888 0.00222834
1.08145 0.5 0.140165 0.0022317
0.715434 0.5 0.825 0.00579975
0.715434 0.5 -0.825 0.00582405
0.756813 0.5 0.7875 0.00523268
0.756814 0.5 -0.7875 0.00525461
0.67013 0.5 -0.8625 0.00642362
0.67013 0.5 0.8625 0.00639707
0.797732 0.5 -0.75 0.00480176
0.797732 0.5 0.75 0.00478175
0.624316 0.5 -0.9 0.00716982
0.624316 0.5 0.9 0.00714098
1.00005 0.5 -0.449585 0.00293827
1.00005 0.5 0.449585 0.0029314
0.835106 0.5 -0.7125 0.00436987
0.835106 0.5 0.7125 0.0043522
0.574156 0.5 -0.9375 0.00795044
0.574157 0.5 0.9375 0.00791924
1.10076 0.5 -0.0349809 0.00213583
1.10076 0.5 0.0349809 0.00213571
1.08112 0.5 -0.212832 0.00225996
1.08112 0.5 0.212832 0.00225972
0.872064 0.5 -0.675 0.00401055
0.872064 0.5 0.675 0.00399543
1.04168 0.5 -0.364581 0.00256273
1.04168 0.5 0.364581 0.0025602
1.0271 0.5 0.405049 0.00269785
1.0271 0.5 -0.405049 0.00270137
1.05695 0.5 -0.324688 0.00243186
1.05695 0.5 0.324688 0.00242984
1.10076 0.5 -0.104943 0.00214846
1.10076 0.5 0.104943 0.00214867
0.523432 0.5 0.975 0.00887392
0.523432 0.5 -0.975 0.0089067
0.90582 0.5 0.6375 0.00365538
0.905821 0.5 -0.6375 0.00366694
0.219992 0.5 1.0875 0.0137719
0.219992 0.5 -1.0875 0.0138402
1.11376 0.5 3.81639e-17 0.00209506
0.939201 0.5 0.6 0.00348766
0.939201 0.5 -0.6 0.00349382
1.10076 0.5 -0.174905 0.00217272
1.10076 0.5 0.174905 0.00217312
0.467897 0.5 -1.0125 0.00989755
0.467897 0.5 1.0125 0.00986185
1.11376 0.5 -0.0693118 0.00210129
1.11376 0.5 0.0693118 0.00210135
1.08112 0.5 0.283777 0.00230433
1.08112 0.5 -0.283777 0.00230496
0 0.5 -1.11882 0.0112196
0 0.5 1.11882 0.0111675
0.0124865 0.5 -1.11882 0.0119774
0.0124865 0.5 1.11882 0.011921
0.969689 0.5 -0.5625 0.00332665
0.969689 0.5 0.5625 0.00332274
1.11376 0.5 0.138624 0.00212169
1.11376 0.5 -0.138624 0.00211932
0 0.5 -1.125 0.011227
0 0.5 1.125 0.0111758
1.10076 0.5 0.244866 0.00221002
1.10076 0.5 -0.244866 0.0022097
0.411736 0.5 -1.05 0.0109979
0.411736 0.5 1.05 0.0109553
1.05695 0.5 -0.396841 0.00250668
1.05695 0.5 0.396841 0.00250229
1.00005 0.5 -0.524516 0.00307576
1.00005 0.5 0.524516 0.00306722
1.04168 0.5 -0.437497 0.00265423
1.04168 0.5 0.437497 0.00264958
0 0.5 -1.13118 0.0112346
0 0.5 1.13118 0.0111839
0.0124865 0.5 -1.13118 0.0119987
0.0124865 0.5 1.13118 0.0119443
1.11376 0.5 -0.207935 0.00214925
1.11376 0.5 0.207935 0.00214972
1.0271 0.5 -0.478694 0.00281178
1.0271 0.5 0.478694 0.00280547
0.151149 0.5 -1.125 0.0148435
0.151149 0.5 1.125 0.01477
1.08112 0.5 -0.354722 0.00236575
1.08112 0.5 0.354722 0.00236379
1.13882 0.5 -0.0340295 0.00201439
1.13882 0.5 0.0340295 0.00201431
0.350249 0.5 -1.0875 0.0120966
0.350249 0.5 1.0875 0.0120466
1.13882 0.5 -0.102088 0.00202613
1.13882 0.5 0.102088 0.00202235
1.10076 0.5 -0.314829 0.00225987
1.10076 0.5 0.314829 0.00225994
0.756813 0.5 -0.8625 0.00553344
0.756814 0.5 0.8625 0.00550516
0.797732 0.5 -0.825 0.00505891
0.797732 0.5 0.825 0.0050336
1.11376 0.5 -0.277247 0.00219182
1.11376 0.5 0.277247 0.0021922
0.835106 0.5 0.7875 0.004583
0.835106 0.5 -0.7875 0.00460643
0.715434 0.5 -0.9 0.00612665
0.715434 0.5 0.9 0.00609507
0.872064 0.5 -0.75 0.00422489
0.872064 0.5 0.75 0.00420348
1.13882 0.5 0.170147 0.00204926
1.13882 0.5 -0.170147 0.00204874
0.67013 0.5 -0.9375 0.00674787
0.67013 0.5 0.9375 0.00671348
0.905821 0.5 -0.7125 0.00386069
0.905821 0.5 0.7125 0.00384225
1.05695 0.5 0.468994 0.00259382
1.05695 0.5 -0.468994 0.00260002
0.939201 0.5 -0.675 0.00365125
0.939201 0.5 0.675 0.00364037
0.624316 0.5 0.975 0.00747511
0.624316 0.5 -0.975 0.0075123
1.04168 0.5 -0.510414 0.00277045
1.04168 0.5 0.510414 0.00276392
0.969689 0.5 -0.6375 0.00348082
0.96969 0.5 0.6375 0.0034794
0.288069 0.5 -1.125 0.0130424
0.288069 0.5 1.125 0.0129781
1.16179 0.5 5.78241e-19 0.00193619
1.08112 0.5 0.425666 0.00244041
1.08112 0.5 -0.425666 0.00244392
1.13882 0.5 -0.238206 0.00208319
1.13882 0.5 0.238206 0.00208376
1.16179 0.5 0.0669104 0.00193048
1.16179 0.5 -0.0669104 0.00194168
0.574156 0.5 -1.0125 0.00831145
0.574156 0.5 1.0125 0.00827173
0.075776 0.5 -1.1625 0.0158915
0.075776 0.5 1.1625 0.0158238
1.00005 0.5 -0.599447 0.00322109
1.00005 0.5 0.599447 0.00321535
1.10076 0.5 0.384791 0.0023253
1.10076 0.5 -0.384791 0.00232707
1.0271 0.5 -0.55234 0.00295047
1.0271 0.5 0.55234 0.00294325
1.11376 0.5 -0.346559 0.00224903
1.11376 0.5 0.346559 0.00224847
1.16179 0.5 -0.133821 0.00195754
1.16179 0.5 0.133821 0.00195647
0.523432 0.5 -1.05 0.00927162
0.523432 0.5 1.05 0.0092281
1.17463 0.5 -0.0331343 0.00189472
1.17463 0.5 0.0331343 0.00189468
1.17463 0.5 -0.0994029 0.00190505
1.17463 0.5 0.0994029 0.00190542
1.16179 0.5 -0.200731 0.00198391
1.16179 0.5 0.200731 0.00198444
1.13882 0.5 -0.306265 0.00212991
1.13882 0.5 0.306265 0.00213039
0.219992 0.5 -1.1625 0.0139694
0.219992 0.5 1.1625 0.0138941
0.467897 0.5 -1.0875 0.0102647
0.467897 0.5 1.0875 0.0102171
1.17463 0.5 0.165672 0.00192575
1.17463 0.5 -0.165672 0.00192493
1.05695 0.5 -0.541147 0.00271858
1.05695 0.5 0.541147 0.00271076
1.18772 0.5 -5.78241e-19 0.00185326
1.11376 0.5 -0.41587 0.00232211
1.11376 0.5 0.41587 0.00232063
1.18772 0.5 -0.065614 0.00185816
1.18772 0.5 0.065614 0.0018591
1.08112 0.5 -0.49661 0.00254293
1.08112 0.5 0.49661 0.00253709
1.10076 0.5 -0.454752 0.00241015
1.10076 0.5 0.454752 0.00240795
1.18534 0.5 0.118202 0.00187319
1.16179 0.5 -0.267642 0.00202146
1.16179 0.5 0.267642 0.00202205
0 0.5 -1.19382 0.011314
0 0.5 1.19382 0.0112682
0.0124865 0.5 1.19382 0.0120286
0.0124865 0.5 -1.19382 0.0120782
1.04168 0.5 -0.58333 0.00288824
1.04168 0.5 0.58333 0.00288176
1.18772 0.5 -0.131228 0.00187249
1.17463 0.5 -0.23194 0.00195539
1.17463 0.5 0.23194 0.00195639
0.411736 0.5 -1.125 0.0113185
0.411736 0.5 1.125 0.0112629
1.13882 0.5 -0.374324 0.00219181
1.13882 0.5 0.374324 0.00219087
0 0.5 -1.2 0.0113226
0 0.5 1.2 0.011277
0.905821 0.5 0.7875 0.0040562
0.905821 0.5 -0.7875 0.00408222
0.872064 0.5 -0.825 0.00446775
0.872064 0.5 0.825 0.00444135
0.835106 0.5 0.8625 0.00484155
0.835106 0.5 -0.8625 0.00486909
0.939201 0.5 -0.75 0.00383528
0.939201 0.5 0.75 0.00381732
0.797732 0.5 -0.9 0.00534773
0.797732 0.5 0.9 0.00531538
1.0271 0.5 0.625985 0.00306358
1.0271 0.5 -0.625985 0.00307169
0.969689 0.5 0.7125 0.00359145
0.96969 0.5 -0.7125 0.00360379
1.18772 0.5 -0.196842 0.00189642
1.18772 0.5 0.196842 0.00189747
0.756814 0.5 -0.9375 0.00584408
0.756814 0.5 0.9375 0.00580711
0 0.5 1.20618 0.011287
0 0.5 -1.20618 0.0113325
1.00005 0.5 -0.674378 0.00336553
1.00005 0.5 0.674378 0.00335587
0.0124865 0.5 1.20618 0.0120532
0.0124865 0.5 -1.20618 0.0121024
1.16179 0.5 -0.334552 0.00207185
1.16179 0.5 0.334552 0.00207173
0.715434 0.5 0.975 0.00642266
0.715434 0.5 -0.975 0.00646421
0.151149 0.5 -1.2 0.0149934
0.151149 0.5 1.2 0.0149197
1.20942 0.5 0.0322645 0.00178138
1.20942 0.5 -0.0322645 0.00178245
1.17463 0.5 -0.298209 0.00199678
1.17463 0.5 0.298209 0.001998
1.20942 0.5 -0.0967935 0.00179137
1.20942 0.5 0.0967935 0.00179194
0.350249 0.5 -1.1625 0.0123715
0.350249 0.5 1.1625 0.0123071
0.67013 0.5 1.0125 0.00705885
0.67013 0.5 -1.0125 0.00710209
1.11376 0.5 0.485183 0.00240935
1.11376 0.5 -0.485183 0.00241344
1.18772 0.5 0.262456 0.00193196
1.18772 0.5 -0.262456 0.00193065
1.10076 0.5 -0.524714 0.00251711
1.10076 0.5 0.524714 0.0025097
1.20942 0.5 -0.161322 0.00180863
1.20942 0.5 0.161322 0.00180975
1.08112 0.5 -0.567554 0.00264195
1.08112 0.5 0.567554 0.00264127
0.624316 0.5 -1.05 0.00788597
0.624316 0.5 1.05 0.00783858
1.13882 0.5 -0.442383 0.00226798
1.13882 0.5 0.442383 0.00226706
1.05695 0.5 0.6133 0.00280784
1.05695 0.5 -0.6133 0.0028136
1.16179 0.5 -0.401463 0.00213619
1.16179 0.5 0.401463 0.00213548
0.574156 0.5 -1.0875 0.00870176
0.574156 0.5 1.0875 0.00865094
1.17463 0.5 0.364477 0.00205192
1.17463 0.5 -0.364477 0.00205195
1.20942 0.5 -0.225851 0.00183518
1.20942 0.5 0.225851 0.00183659
1.23036 0.5 -1.32995e-17 0.00171792
1.2294 0.5 0.0634819 0.00172512
1.04168 0.5 -0.656246 0.00301947
1.04168 0.5 0.656246 0.0030103
1.23036 0.5 -0.0634819 0.00172205
1.18772 0.5 0.32807 0.00197765
1.18772 0.5 -0.32807 0.00197674
0.288069 0.5 -1.2 0.0132582
0.288069 0.5 1.2 0.0131817
1.23036 0.5 -0.126964 0.00173421
1.23036 0.5 0.126964 0.00173493
0.075776 0.5 -1.2375 0.0160604
0.075776 0.5 1.2375 0.0159929
0.523432 0.5 -1.125 0.00966217
0.523432 0.5 1.125 0.00960625
1.0271 0.5 -0.69963 0.00323821
1.0271 0.5 0.69963 0.00322511
1.24274 0.5 0.0314313 0.00168145
1.24274 0.5 -0.0314313 0.0016813
1.20942 0.5 0.29038 0.00187335
1.20942 0.5 -0.29038 0.00187154
1.11376 0.5 -0.554494 0.00250778
1.11376 0.5 0.554494 0.00251342
1.23036 0.5 -0.190445 0.00175458
1.23036 0.5 0.190445 0.00175563
1.24274 0.5 -0.0942942 0.00168911
1.24274 0.5 0.0942942 0.00168991
1.13882 0.5 0.510442 0.00235614
1.13882 0.5 -0.510442 0.00236013
0.969689 0.5 -0.7875 0.00380324
0.969689 0.5 0.7875 0.00378794
1.00005 0.5 -0.749309 0.00354323
1.00005 0.5 0.749309 0.0035277
0.939201 0.5 -0.825 0.00405608
0.939201 0.5 0.825 0.00403373
0.90582 0.5 0.8625 0.00430488
0.90582 0.5 -0.8625 0.00433337
1.17463 0.5 -0.430746 0.00212032
1.17463 0.5 0.430746 0.00212079
1.10076 0.5 -0.594676 0.00260096
1.10076 0.5 0.594676 0.00261555
1.18772 0.5 -0.393684 0.00203603
1.18772 0.5 0.393684 0.00203655
1.24274 0.5 -0.157157 0.00170437
1.24274 0.5 0.157157 0.00170586
1.16179 0.5 -0.468373 0.0022139
1.16179 0.5 0.468373 0.00221126
0.467897 0.5 -1.1625 0.0106495
0.467897 0.5 1.1625 0.0105887
0.872064 0.5 -0.9 0.00474329
0.872064 0.5 0.9 0.00471191
1.25401 0.5 2.08167e-17 0.00165212
0.835106 0.5 0.9375 0.00513611
0.835106 0.5 -0.9375 0.00517273
1.25401 0.5 -0.0622994 0.00165582
1.25401 0.5 0.0622994 0.00165596
1.08112 0.5 -0.638498 0.00275252
1.08112 0.5 0.638498 0.0027506
1.23036 0.5 -0.253927 0.00178384
1.23036 0.5 0.253927 0.00178512
0.219992 0.5 1.2375 0.014097
0.219992 0.5 -1.2375 0.0141805
1.25309 0.5 0.121964 0.00166789
1.05695 0.5 0.685452 0.00294907
1.05695 0.5 -0.685452 0.00296166
0.797732 0.5 0.975 0.00562939
0.797732 0.5 -0.975 0.00567218
1.25401 0.5 -0.124599 0.00166689
1.20942 0.5 -0.354909 0.0019202
1.20942 0.5 0.354909 0.00192114
1.24274 0.5 -0.220019 0.00172795
1.24274 0.5 0.220019 0.00172982
0.756814 0.5 -1.0125 0.00620538
0.756813 0.5 1.0125 0.006154
1.25401 0.5 -0.186898 0.00168552
1.25401 0.5 0.186898 0.00168699
0.411736 0.5 -1.2 0.0116347
0.411736 0.5 1.2 0.011562
0 0.5 -1.26882 0.0114543
0 0.5 1.26882 0.0114112
0.0124865 0.5 1.26882 0.0121774
0.0124865 0.5 -1.26882 0.0122242
0.715434 0.5 -1.05 0.00683441
0.715434 0.5 1.05 0.00678257
1.23036 0.5 -0.31741 0.00182332
1.23036 0.5 0.31741 0.00182434
1.04168 0.5 -0.729162 0.00319441
1.04168 0.5 0.729162 0.00317955
1.18772 0.5 -0.459298 0.00210746
1.18772 0.5 0.459298 0.00210647
1.24274 0.5 -0.282882 0.00176024
1.24274 0.5 0.282882 0.00176264
0 0.5 -1.275 0.0114675
0 0.5 1.275 0.0114247
1.27472 0.5 -0.0306319 0.00158881
1.27472 0.5 0.0306319 0.00158901
1.17463 0.5 0.497015 0.00219643
1.17463 0.5 -0.497015 0.00219996
1.11376 0.5 -0.623806 0.00260967
1.11376 0.5 0.623806 0.0026169
1.13882 0.5 -0.578501 0.00244927
1.13882 0.5 0.578501 0.00246969
0.67013 0.5 -1.0875 0.00749142
0.67013 0.5 1.0875 0.00743587
1.27472 0.5 -0.0918959 0.00159556
1.27472 0.5 0.0918959 0.00160804
1.25401 0.5 -0.249197 0.0017124
1.25401 0.5 0.249197 0.00171427
1.16179 0.5 -0.535284 0.00230377
1.16179 0.5 0.535284 0.00230788
1.20942 0.5 -0.419438 0.00198182
1.20942 0.5 0.419438 0.00198284
0 0.5 -1.28118 0.0114811
0 0.5 1.28118 0.0114387
0.0124865 0.5 1.28118 0.0122146
0.0124865 0.5 -1.28118 0.0122606
1.27472 0.5 0.15316 0.00161047
1.27472 0.5 -0.15316 0.00160888
0.151149 0.5 -1.275 0.0152157