# pMean  POINT_DATA 63840
# x  y  z  pMean
0 0.5 3.39583e-17 0.193342
0 0.5 -0.00617931 0.19335
0 0.5 0.00617931 0.193338
0.0124865 0.5 -0.00617931 0.19335
0.0124865 0.5 0.00617931 0.193338
0 0.5 -0.0688207 0.19313
0 0.5 0.0688207 0.193003
0.0124865 0.5 -0.0688207 0.19313
0.0124865 0.5 0.0688207 0.193003
0 0.5 -0.075 0.193078
0 0.5 0.075 0.19294
0 0.5 -0.0811793 0.193031
0 0.5 0.0811793 0.192882
0.0124865 0.5 -0.0811793 0.193031
0.0124865 0.5 0.0811793 0.192882
0.075776 0.5 -0.0375 0.193389
0.075776 0.5 0.0375 0.193318
0.075776 0.5 -0.1125 0.192791
0.075776 0.5 0.1125 0.192585
0 0.5 -0.143821 0.192273
0 0.5 0.143821 0.192011
0.0124865 0.5 -0.143821 0.192273
0.0124865 0.5 0.143821 0.192011
0 0.5 -0.15 0.19217
0 0.5 0.15 0.191898
0.151149 0.5 -0.00137318 0.193718
0 0.5 -0.156179 0.192071
0 0.5 0.156179 0.191788
0.0124865 0.5 -0.156179 0.192071
0.0124865 0.5 0.156179 0.191788
0.151149 0.5 0.075 0.193323
0.151149 0.5 -0.075 0.193463
0.075776 0.5 -0.1875 0.191571
0.075776 0.5 0.1875 0.191233
0.151149 0.5 0.15 0.192268
0.151149 0.5 -0.15 0.192545
0 0.5 -0.218821 0.190791
0 0.5 0.218821 0.190398
0.0124865 0.5 -0.218821 0.190791
0.0124865 0.5 0.218821 0.190398
0.219992 0.5 0.0375 0.19405
0.219993 0.5 -0.0375 0.194121
0 0.5 -0.225 0.190637
0 0.5 0.225 0.190233
0 0.5 -0.231179 0.190486
0 0.5 0.231179 0.190071
0.0124865 0.5 -0.231179 0.190486
0.0124865 0.5 0.231179 0.190071
0.219992 0.5 0.1125 0.193325
0.219993 0.5 -0.1125 0.193537
0.151149 0.5 -0.225 0.190986
0.151149 0.5 0.225 0.190575
0.075776 0.5 -0.2625 0.189724
0.075776 0.5 0.2625 0.189255
0.288069 0.5 -0.00137318 0.197454
0.219992 0.5 0.1875 0.191918
0.219993 0.5 -0.1875 0.192268
0 0.5 0.293821 0.188176
0 0.5 -0.293821 0.188698
0.0124865 0.5 -0.293821 0.188698
0.0124865 0.5 0.293821 0.188176
0.288069 0.5 -0.075 0.197203
0.288069 0.5 0.075 0.197055
0 0.5 -0.3 0.188494
0 0.5 0.3 0.187963
0 0.5 0.306179 0.187752
0 0.5 -0.306179 0.188295
0.0124865 0.5 -0.306179 0.188295
0.0124865 0.5 0.306179 0.187752
0.288069 0.5 -0.15 0.196212
0.288069 0.5 0.15 0.195918
0.151149 0.5 -0.3 0.188815
0.151149 0.5 0.3 0.188272
0.219992 0.5 -0.2625 0.190373
0.219992 0.5 0.2625 0.189885
0.075776 0.5 0.3375 0.186692
0.075776 0.5 -0.3375 0.187286
0.350249 0.5 -0.0375 0.200724
0.350249 0.5 0.0375 0.200646
0.288069 0.5 -0.225 0.194526
0.288069 0.5 0.225 0.194089
0.350249 0.5 0.1125 0.199816
0.350249 0.5 -0.1125 0.200049
0 0.5 0.368821 0.185384
0 0.5 -0.368821 0.186028
0.0124865 0.5 -0.368821 0.186028
0.0124865 0.5 0.368821 0.185384
0 0.5 -0.375 0.185779
0 0.5 0.375 0.185125
0 0.5 -0.381179 0.185533
0 0.5 0.381179 0.184869
0.0124865 0.5 -0.381179 0.185533
0.0124865 0.5 0.381179 0.184869
0.350249 0.5 -0.1875 0.19862
0.350249 0.5 0.1875 0.198239
0.219992 0.5 -0.3375 0.18787
0.219992 0.5 0.3375 0.187253
0.151149 0.5 -0.375 0.186063
0.151149 0.5 0.375 0.185396
0.411736 0.5 -0.00137318 0.205169
0.288069 0.5 -0.3 0.192183
0.288069 0.5 0.3 0.191608
0.411736 0.5 -0.075 0.204882
0.411736 0.5 0.075 0.204719
0.075776 0.5 -0.4125 0.184293
0.075776 0.5 0.4125 0.183579
0.350249 0.5 -0.2625 0.19648
0.350249 0.5 0.2625 0.195954
0.411736 0.5 -0.15 0.203755
0.411736 0.5 0.15 0.203433
0 0.5 -0.443821 0.182821
0 0.5 0.443821 0.18206
0.0124865 0.5 -0.443821 0.182821
0.0124865 0.5 0.443821 0.18206
0 0.5 -0.45 0.18253
0 0.5 0.45 0.181759
0 0.5 -0.456179 0.182242
0 0.5 0.456179 0.181462
0.0124865 0.5 -0.456179 0.182242
0.0124865 0.5 0.456179 0.181462
0.219992 0.5 -0.4125 0.184802
0.219993 0.5 0.4125 0.184061
0.411736 0.5 -0.225 0.201846
0.411736 0.5 0.225 0.201369
0.467897 0.5 0.0375 0.209435
0.467897 0.5 -0.0375 0.20952
0.288069 0.5 -0.375 0.189219
0.288069 0.5 0.375 0.188513
0.151149 0.5 -0.45 0.182773
0.151149 0.5 0.45 0.181988
0.467897 0.5 -0.1125 0.208746
0.467897 0.5 0.1125 0.208492
0.350249 0.5 0.3375 0.192997
0.350249 0.5 -0.3375 0.193663
0.075776 0.5 -0.4875 0.180788
0.075776 0.5 0.4875 0.17996
0.467897 0.5 -0.1875 0.207125
0.467897 0.5 0.1875 0.206706
0.411736 0.5 -0.3 0.199193
0.411736 0.5 0.3 0.198568
0 0.5 -0.518821 0.179122
0 0.5 0.518821 0.178251
0.0124865 0.5 0.518821 0.178251
0.0124865 0.5 -0.518821 0.179122
0.523432 0.5 -0.00137318 0.214785
0 0.5 -0.525 0.178793
0 0.5 0.525 0.177912
0.523432 0.5 -0.075 0.214456
0.523432 0.5 0.075 0.214276
0 0.5 -0.531179 0.178466
0 0.5 0.531179 0.177577
0.0124865 0.5 -0.531179 0.178466
0.0124865 0.5 0.531179 0.177577
0.288069 0.5 -0.45 0.185682
0.288069 0.5 0.45 0.184852
0.219992 0.5 -0.4875 0.181212
0.219993 0.5 0.4875 0.180355
0.467897 0.5 -0.2625 0.204692
0.467897 0.5 0.2625 0.204115
0.350249 0.5 -0.4125 0.190217
0.350249 0.5 0.4125 0.189419
0.523432 0.5 -0.15 0.213168
0.523432 0.5 0.15 0.212812
0.151149 0.5 -0.525 0.17899
0.151149 0.5 0.525 0.178094
0.411736 0.5 -0.375 0.195842
0.411736 0.5 0.375 0.195076
0.075776 0.5 -0.5625 0.176818
0.075776 0.5 0.5625 0.175885
0.523432 0.5 -0.225 0.21099
0.523432 0.5 0.225 0.210463
0.574156 0.5 -0.0375 0.219951
0.574156 0.5 0.0375 0.219856
0.467897 0.5 0.3375 0.200761
0.467897 0.5 -0.3375 0.201489
0.574156 0.5 -0.1125 0.219062
0.574156 0.5 0.1125 0.218779
0 0.5 -0.593821 0.174981
0 0.5 0.593821 0.174007
0.0124865 0.5 -0.593821 0.174981
0.0124865 0.5 0.593821 0.174007
0.288069 0.5 -0.525 0.181624
0.288069 0.5 0.525 0.18068
0 0.5 -0.6 0.174618
0 0.5 0.6 0.173635
0.350249 0.5 -0.4875 0.186198
0.350249 0.5 0.4875 0.185278
0.523432 0.5 -0.3 0.207965
0.523432 0.5 0.3 0.207276
0.219992 0.5 -0.5625 0.177149
0.219992 0.5 0.5625 0.176186
0.574156 0.5 -0.1875 0.217205
0.574156 0.5 0.1875 0.216738
0 0.5 -0.606179 0.174257
0 0.5 0.606179 0.173267
0.0124865 0.5 -0.606179 0.174257
0.0124865 0.5 0.606179 0.173267
0.411736 0.5 -0.45 0.191853
0.411736 0.5 0.45 0.190956
0.151149 0.5 -0.6 0.174765
0.151149 0.5 0.6 0.173766
0.62168 0.5 2.64545e-17 0.225567
0.467897 0.5 0.4125 0.196709
0.467897 0.5 -0.4125 0.197578
0.624316 0.5 0.0729402 0.225307
0.624316 0.5 -0.075 0.225508
0.574156 0.5 -0.2625 0.21442
0.574157 0.5 0.2625 0.213779
0.075776 0.5 -0.6375 0.172437
0.075776 0.5 0.6375 0.171406
0.624316 0.5 -0.15 0.224029
0.624316 0.5 0.15 0.22363
0.523432 0.5 -0.375 0.20415
0.523432 0.5 0.375 0.203309
0.350249 0.5 -0.5625 0.181668
0.350249 0.5 0.5625 0.180635
0.624316 0.5 -0.225 0.221532
0.624316 0.5 0.225 0.220942
0.288069 0.5 0.6 0.176055
0.288069 0.5 -0.6 0.177105
0.574156 0.5 -0.3375 0.210762
0.574156 0.5 0.3375 0.209957
0.411736 0.5 -0.525 0.187291
0.411736 0.5 0.525 0.186272
0 0.5 -0.668821 0.17045
0 0.5 0.668821 0.169382
0.0124865 0.5 -0.668821 0.17045
0.0124865 0.5 0.668821 0.169382
0.67013 0.5 0.0375 0.231631
0.67013 0.5 -0.0375 0.231739
0.219993 0.5 -0.6375 0.172668
0.219993 0.5 0.6375 0.171606
0 0.5 -0.675 0.170057
0 0.5 0.675 0.168982
0.467897 0.5 0.4875 0.192027
0.467897 0.5 -0.4875 0.193026
0.67013 0.5 -0.1125 0.230714
0.67013 0.5 0.1125 0.230395
0 0.5 -0.681179 0.169667
0 0.5 0.681179 0.168584
0.0124865 0.5 -0.681179 0.169667
0.0124865 0.5 0.681179 0.168584
0.523432 0.5 -0.45 0.199617
0.523432 0.5 0.45 0.198634
0.151149 0.5 -0.675 0.170151
0.151149 0.5 0.675 0.169059
0.624316 0.5 -0.3 0.218068
0.624316 0.5 0.3 0.217299
0.67013 0.5 0.1875 0.228054
0.67013 0.5 -0.1875 0.228579
0.574156 0.5 -0.4125 0.206302
0.574157 0.5 0.4125 0.205344
0.708171 0.5 1.88651e-17 0.237114
0.075776 0.5 -0.7125 0.167697
0.075776 0.5 0.7125 0.166576
0.715434 0.5 0.0736268 0.237293
0.715434 0.5 -0.075 0.237684
0.67013 0.5 0.2625 0.224662
0.67013 0.5 -0.2625 0.225384
0.350249 0.5 -0.6375 0.176693
0.350249 0.5 0.6375 0.175557
0.411736 0.5 -0.6 0.182227
0.411736 0.5 0.6 0.181097
0.624316 0.5 -0.375 0.213706
0.624316 0.5 0.375 0.212772
0.715434 0.5 -0.15 0.235985
0.715434 0.5 0.15 0.235535
0.467897 0.5 -0.5625 0.187911
0.467897 0.5 0.5625 0.186792
0.288069 0.5 -0.675 0.172184
0.288069 0.5 0.675 0.171038
0.523432 0.5 -0.525 0.194447
0.523432 0.5 0.525 0.193335
0 0.5 -0.743821 0.165585
0 0.5 0.743821 0.16443
0.0124865 0.5 -0.743821 0.165585
0.0124865 0.5 0.743821 0.16443
0.219992 0.5 0.7125 0.166671
0.219992 0.5 -0.7125 0.167823
0.715434 0.5 -0.225 0.233117
0.715434 0.5 0.225 0.232454
0 0.5 -0.75 0.165167
0 0.5 0.75 0.164006
0.67013 0.5 0.3375 0.220287
0.67013 0.5 -0.3375 0.221189
0.574156 0.5 -0.4875 0.201125
0.574156 0.5 0.4875 0.200026
0 0.5 -0.756179 0.164752
0 0.5 0.756179 0.163584
0.0124865 0.5 -0.756179 0.164752
0.0124865 0.5 0.756179 0.163584
0.756813 0.5 -0.0375 0.244453
0.756813 0.5 0.0375 0.244332
0.151149 0.5 -0.75 0.165205
0.151149 0.5 0.75 0.164028
0.756813 0.5 -0.1125 0.243275
0.756813 0.5 0.1125 0.242914
0.624316 0.5 -0.45 0.208536
0.624316 0.5 0.45 0.207449
0.715434 0.5 -0.3 0.229147
0.715434 0.5 0.3 0.228284
0.756813 0.5 0.1875 0.240232
0.756813 0.5 -0.1875 0.240824
0.67013 0.5 -0.4125 0.216085
0.67013 0.5 0.4125 0.215018
0.411736 0.5 -0.675 0.176736
0.411736 0.5 0.675 0.175507
0.467897 0.5 0.6375 0.181086
0.467897 0.5 -0.6375 0.182311
0.075776 0.5 -0.7875 0.162655
0.075776 0.5 0.7875 0.161453
0.350249 0.5 -0.7125 0.171341
0.350249 0.5 0.7125 0.170113
0.523432 0.5 -0.6 0.188727
0.523432 0.5 0.6 0.187499
0.797732 0.5 2.68882e-17 0.251133
0.756813 0.5 -0.2625 0.237153
0.756814 0.5 0.2625 0.236343
0.797732 0.5 0.0736268 0.250207
0.797732 0.5 -0.075 0.250566
0.288069 0.5 -0.75 0.166923
0.288069 0.5 0.75 0.165692
0.574156 0.5 -0.5625 0.195324
0.574157 0.5 0.5625 0.194098
0.715434 0.5 -0.375 0.224162
0.715434 0.5 0.375 0.223115
0.797732 0.5 -0.15 0.248622
0.797732 0.5 0.15 0.248111
0.624316 0.5 -0.525 0.202658
0.624316 0.5 0.525 0.201432
0.219992 0.5 -0.7875 0.162671
0.219992 0.5 0.7875 0.161438
0 0.5 -0.818821 0.16044
0 0.5 0.818821 0.159207
0.0124865 0.5 0.818821 0.159207
0.0124865 0.5 -0.818821 0.16044
0 0.5 -0.825 0.160001
0 0.5 0.825 0.158763
0.756813 0.5 0.3375 0.231346
0.756814 0.5 -0.3375 0.232361
0.67013 0.5 -0.4875 0.210182
0.67013 0.5 0.4875 0.208962
0.797732 0.5 -0.225 0.245343
0.797732 0.5 0.225 0.244593
0 0.5 -0.831179 0.159566
0 0.5 0.831179 0.158321
0.0124865 0.5 -0.831179 0.159566
0.0124865 0.5 0.831179 0.158321
0.835106 0.5 0.0375 0.257543
0.835106 0.5 -0.0375 0.257681
0.151149 0.5 -0.825 0.159982
0.151149 0.5 0.825 0.158728
0.835106 0.5 0.1125 0.255926
0.835106 0.5 -0.1125 0.256337
0.715434 0.5 -0.45 0.218264
0.715434 0.5 0.45 0.217051
0.797732 0.5 -0.3 0.240812
0.797732 0.5 0.3 0.239837
0.467897 0.5 0.7125 0.174991
0.467897 0.5 -0.7125 0.176312
0.523432 0.5 -0.675 0.182548
0.523432 0.5 0.675 0.181217
0.411736 0.5 -0.75 0.170895
0.411736 0.5 0.75 0.169577
0.835106 0.5 -0.1875 0.253543
0.835106 0.5 0.1875 0.252869
0.574156 0.5 -0.6375 0.188998
0.574157 0.5 0.6375 0.187661
0.350249 0.5 -0.7875 0.16568
0.350249 0.5 0.7875 0.16437
0.756813 0.5 -0.4125 0.226542
0.756814 0.5 0.4125 0.225342
0.075776 0.5 -0.8625 0.157366
0.075776 0.5 0.8625 0.156091
0.624316 0.5 0.6 0.194829
0.624316 0.5 -0.6 0.196177
0.872064 0.5 5.91974e-17 0.26451
0.870122 0.5 0.075 0.263083
0.288069 0.5 -0.825 0.161387
0.288069 0.5 0.825 0.160078
0.67013 0.5 -0.5625 0.203588
0.67013 0.5 0.5625 0.202234
0.872064 0.5 -0.075 0.263866
0.835106 0.5 -0.2625 0.249362
0.835106 0.5 0.2625 0.248443
0.797732 0.5 -0.375 0.235135
0.797732 0.5 0.375 0.233954
0.872064 0.5 0.14794 0.261076
0.872064 0.5 -0.15 0.261656
0.715434 0.5 -0.525 0.211577
0.715434 0.5 0.525 0.210215
0.219992 0.5 0.8625 0.155965
0.219993 0.5 -0.8625 0.15727
0 0.5 -0.893821 0.155069
0 0.5 0.893821 0.153767
0.0124865 0.5 -0.893821 0.155069
0.0124865 0.5 0.893821 0.153767
0 0.5 -0.9 0.154614
0 0.5 0.9 0.153307
0.756813 0.5 -0.4875 0.219812
0.756813 0.5 0.4875 0.21845
0.872064 0.5 -0.225 0.257932
0.872064 0.5 0.225 0.257082
0.835106 0.5 -0.3375 0.243908
0.835106 0.5 0.3375 0.242757
0 0.5 0.906179 0.152849
0 0.5 -0.906179 0.154162
0.0124865 0.5 -0.906179 0.154162
0.0124865 0.5 0.906179 0.152849
0.90582 0.5 -0.0375 0.27125
0.90582 0.5 0.0375 0.271093
0.151149 0.5 -0.9 0.154537
0.151149 0.5 0.9 0.153215
0.90582 0.5 -0.1125 0.269725
0.905821 0.5 0.1125 0.269259
0.523432 0.5 -0.75 0.176005
0.523432 0.5 0.75 0.174584
0.574156 0.5 -0.7125 0.18225
0.574156 0.5 0.7125 0.180815
0.797732 0.5 -0.45 0.228429
0.797732 0.5 0.45 0.227069
0.467897 0.5 0.7875 0.168591
0.467897 0.5 -0.7875 0.169995
0.624316 0.5 -0.675 0.189206
0.624316 0.5 0.675 0.187751
0.411736 0.5 -0.825 0.164777
0.411736 0.5 0.825 0.163383
0.872064 0.5 0.3 0.251686
0.872064 0.5 -0.3 0.252788
0.67013 0.5 -0.6375 0.196426
0.67013 0.5 0.6375 0.194956
0.90582 0.5 0.1875 0.265795
0.905821 0.5 -0.1875 0.266558
0.350249 0.5 -0.8625 0.159778
0.350249 0.5 0.8625 0.158396
0.835106 0.5 -0.4125 0.237294
0.835106 0.5 0.4125 0.235944
0.715434 0.5 -0.6 0.204232
0.715434 0.5 0.6 0.202742
0.939201 0.5 2.75387e-17 0.277905
0.075776 0.5 0.9375 0.15054
0.075776 0.5 -0.9375 0.15188
0.939111 0.5 0.075 0.276684
0.939201 0.5 -0.075 0.277182
0.756813 0.5 0.5625 0.210823
0.756814 0.5 -0.5625 0.212327
0.90582 0.5 0.2625 0.260784
0.905821 0.5 -0.2625 0.261823
0.288069 0.5 -0.9 0.155634
0.288069 0.5 0.9 0.154259
0.872064 0.5 -0.375 0.246351
0.872064 0.5 0.375 0.245022
0.939201 0.5 0.148627 0.273935
0.939201 0.5 -0.15 0.274695
0.797732 0.5 -0.525 0.220849
0.797732 0.5 0.525 0.219331
0.219992 0.5 0.9375 0.150305
0.219992 0.5 -0.9375 0.151673
0.939201 0.5 -0.225 0.270505
0.939201 0.5 0.225 0.26954
0.905821 0.5 -0.3375 0.255642
0.90582 0.5 0.3375 0.254346
0.835106 0.5 -0.4875 0.229669
0.835106 0.5 0.4875 0.228146
0 0.5 0.968821 0.14816
0 0.5 -0.968821 0.149523
0.0124865 0.5 -0.968821 0.149523
0.0124865 0.5 0.968821 0.14816
0.969689 0.5 -0.0375 0.28453
0.969689 0.5 0.0375 0.28435
0.574156 0.5 -0.7875 0.17518
0.574156 0.5 0.7875 0.173662
0 0.5 -0.975 0.149056
0 0.5 0.975 0.147689
0.624316 0.5 -0.75 0.181857
0.624316 0.5 0.75 0.180312
0.969689 0.5 -0.1125 0.282826
0.96969 0.5 0.1125 0.282293
0.523432 0.5 -0.825 0.169186
0.523432 0.5 0.825 0.167688
0.67013 0.5 0.7125 0.18725
0.67013 0.5 -0.7125 0.188819
0 0.5 -0.981179 0.148592
0 0.5 0.981179 0.14722
0.467897 0.5 0.8625 0.161966
0.467897 0.5 -0.8625 0.163443
0.0124865 0.5 -0.981179 0.148592
0.0124865 0.5 0.981179 0.14722
0.872064 0.5 -0.45 0.23877
0.872064 0.5 0.45 0.237247
0.715434 0.5 -0.675 0.196364
0.715434 0.5 0.675 0.194766
0.939201 0.5 -0.3 0.264718
0.939201 0.5 0.3 0.263472
0.151149 0.5 0.975 0.147541
0.151149 0.5 -0.975 0.148923
0.969689 0.5 -0.1875 0.279282
0.969689 0.5 0.1875 0.27841
0.756813 0.5 -0.6375 0.204231
0.756813 0.5 0.6375 0.202607
0.411736 0.5 -0.9 0.158456
0.411736 0.5 0.9 0.156995
0.90582 0.5 -0.4125 0.248172
0.90582 0.5 0.4125 0.246658
0.995005 0.5 0.0749309 0.288432
0.797732 0.5 -0.6 0.212557
0.797732 0.5 0.6 0.210905
1.00005 0.5 -8.47123e-18 0.290928
0.350249 0.5 -0.9375 0.153699
0.350249 0.5 0.9375 0.152256
1.00005 0.5 -0.0749309 0.290115
0.969689 0.5 -0.2625 0.273986
0.969689 0.5 0.2625 0.272803
0.835106 0.5 -0.5625 0.221225
0.835106 0.5 0.5625 0.219549
1.00005 0.5 -0.149862 0.287324
0.939201 0.5 -0.375 0.257482
0.939201 0.5 0.375 0.255987
1.00029 0.5 0.148988 0.286405
0.075776 0.5 -1.0125 0.146249
0.075776 0.5 1.0125 0.144853
0.288069 0.5 0.975 0.148292
0.288069 0.5 -0.975 0.149726
0.872064 0.5 -0.525 0.230228
0.872064 0.5 0.525 0.228536
1.00005 0.5 0.224793 0.281559
1.00005 0.5 -0.224793 0.282627
0.969689 0.5 0.3375 0.265607
0.96969 0.5 -0.3375 0.267068
1.0271 0.5 -0.0368226 0.29763
1.0271 0.5 0.0368226 0.297432
0.90582 0.5 0.4875 0.23789
0.905821 0.5 -0.4875 0.23959
1.0271 0.5 -0.110468 0.29576
1.0271 0.5 0.110468 0.295163
0.67013 0.5 0.7875 0.179239
0.67013 0.5 -0.7875 0.180891
0.624316 0.5 0.825 0.172618
0.624316 0.5 -0.825 0.174239
0.219993 0.5 -1.0125 0.145936
0.219993 0.5 1.0125 0.144513
0.574156 0.5 -0.8625 0.167886
0.574156 0.5 0.8625 0.166297
0.715434 0.5 -0.75 0.188111
0.715434 0.5 0.75 0.186422
0.756813 0.5 0.7125 0.193946
0.756814 0.5 -0.7125 0.195669
0.523432 0.5 -0.9 0.16218
0.523432 0.5 0.9 0.160616
0.939201 0.5 -0.45 0.24898
0.939201 0.5 0.45 0.247269
1.04168 0.5 0 0.301431
1.0271 0.5 -0.184113 0.291869
1.0271 0.5 0.184113 0.290907
0 0.5 -1.04382 0.143853
0 0.5 1.04382 0.142438
0.0124865 0.5 -1.04382 0.143853
0.0124865 0.5 1.04382 0.142438
1.00005 0.5 -0.299723 0.276144
1.00005 0.5 0.299723 0.27477
1.04168 0.5 -0.0729162 0.300594
1.04168 0.5 0.0729162 0.300192
0.797732 0.5 -0.675 0.203711
0.797732 0.5 0.675 0.20195
0.467897 0.5 0.9375 0.155193
0.467897 0.5 -0.9375 0.156731
0 0.5 -1.05 0.143379
0 0.5 1.05 0.14196
0.835106 0.5 -0.6375 0.212123
0.835106 0.5 0.6375 0.210326
1.04168 0.5 -0.145832 0.297699
1.04168 0.5 0.145832 0.296907
0.969689 0.5 -0.4125 0.25872
0.96969 0.5 0.4125 0.257015
0 0.5 -1.05618 0.142908
0 0.5 1.05618 0.141484
0.0124865 0.5 -1.05618 0.142908
0.0124865 0.5 1.05618 0.141484
1.05695 0.5 -0.0360764 0.30535
1.05695 0.5 0.0360764 0.305154
0.411736 0.5 -0.975 0.152002
0.411736 0.5 0.975 0.150484
0.872064 0.5 -0.6 0.220917
0.872064 0.5 0.6 0.219086
1.0271 0.5 -0.257759 0.286057
1.0271 0.5 0.257759 0.28475
0.151149 0.5 -1.05 0.143194
0.151149 0.5 1.05 0.141761
1.05695 0.5 0.108229 0.303574
1.05695 0.5 -0.108229 0.303462
1.04168 0.5 -0.218749 0.29282
1.04168 0.5 0.218749 0.291659
0.90582 0.5 -0.5625 0.230111
0.905821 0.5 0.5625 0.228247
1.00005 0.5 -0.374654 0.268051
1.00005 0.5 0.374654 0.266406
0.350249 0.5 1.0125 0.146011
0.350249 0.5 -1.0125 0.147507
1.05695 0.5 -0.180382 0.299533
1.05695 0.5 0.180382 0.298573
1.07319 0.5 0.0709442 0.308055
0.939201 0.5 -0.525 0.239431
0.939201 0.5 0.525 0.237536
1.0271 0.5 -0.331404 0.278472
1.0271 0.5 0.331404 0.276858
1.08112 0.5 3.23815e-17 0.311849
1.04168 0.5 -0.291665 0.286076
1.04168 0.5 0.291665 0.284582
1.08112 0.5 -0.0709442 0.311008
0.969689 0.5 -0.4875 0.249145
0.96969 0.5 0.4875 0.247224
1.05695 0.5 0.252535 0.292352
1.05695 0.5 -0.252535 0.293658
0.288069 0.5 -1.05 0.14372
0.288069 0.5 1.05 0.142237
0.075776 0.5 -1.0875 0.140526
0.075776 0.5 1.0875 0.139082
1.08112 0.5 -0.141888 0.308084
1.08145 0.5 0.140165 0.306911
0.715434 0.5 0.825 0.17784
0.715434 0.5 -0.825 0.179602
0.756813 0.5 0.7875 0.184991
0.756814 0.5 -0.7875 0.186794
0.67013 0.5 -0.8625 0.172756
0.67013 0.5 0.8625 0.171037
0.797732 0.5 -0.75 0.194475
0.797732 0.5 0.75 0.192626
0.624316 0.5 -0.9 0.166457
0.624316 0.5 0.9 0.164773
1.00005 0.5 -0.449585 0.258565
1.00005 0.5 0.449585 0.256686
0.835106 0.5 -0.7125 0.202541
0.835106 0.5 0.7125 0.200646
0.574156 0.5 -0.9375 0.160458
0.574157 0.5 0.9375 0.158811
1.10076 0.5 -0.0349809 0.317387
1.10076 0.5 0.0349809 0.317165
1.08112 0.5 -0.212832 0.303144
1.08112 0.5 0.212832 0.301934
0.872064 0.5 -0.675 0.211018
0.872064 0.5 0.675 0.209079
1.04168 0.5 -0.364581 0.277649
1.04168 0.5 0.364581 0.27586
1.0271 0.5 0.405049 0.267445
1.0271 0.5 -0.405049 0.269329
1.05695 0.5 -0.324688 0.285982
1.05695 0.5 0.324688 0.284371
1.10076 0.5 -0.104943 0.315493
1.10076 0.5 0.104943 0.314831
0.523432 0.5 0.975 0.153447
0.523432 0.5 -0.975 0.155066
0.90582 0.5 0.6375 0.217947
0.905821 0.5 -0.6375 0.219929
0.219992 0.5 1.0875 0.138648
0.219992 0.5 -1.0875 0.140116
1.11376 0.5 3.81639e-17 0.320808
0.939201 0.5 0.6 0.227028
0.939201 0.5 -0.6 0.229063
1.10076 0.5 -0.174905 0.311521
1.10076 0.5 0.174905 0.310438
0.467897 0.5 -1.0125 0.14993
0.467897 0.5 1.0125 0.148341
1.11376 0.5 -0.0693118 0.319968
1.11376 0.5 0.0693118 0.319516
1.08112 0.5 0.283777 0.294747
1.08112 0.5 -0.283777 0.296304
0 0.5 -1.11882 0.138112
0 0.5 1.11882 0.136651
0.0124865 0.5 -1.11882 0.138112
0.0124865 0.5 1.11882 0.136651
0.969689 0.5 -0.5625 0.238617
0.969689 0.5 0.5625 0.236528
1.11376 0.5 0.138624 0.315761
1.11376 0.5 -0.138624 0.317014
0 0.5 -1.125 0.137634
0 0.5 1.125 0.136171
1.10076 0.5 0.244866 0.304091
1.10076 0.5 -0.244866 0.305562
0.411736 0.5 -1.05 0.145478
0.411736 0.5 1.05 0.143912
1.05695 0.5 -0.396841 0.276714
1.05695 0.5 0.396841 0.274834
1.00005 0.5 -0.524516 0.247939
1.00005 0.5 0.524516 0.245871
1.04168 0.5 -0.437497 0.267763
1.04168 0.5 0.437497 0.265725
0 0.5 -1.13118 0.137159
0 0.5 1.13118 0.135692
0.0124865 0.5 -1.13118 0.137159
0.0124865 0.5 1.13118 0.135692
1.11376 0.5 -0.207935 0.312008
1.11376 0.5 0.207935 0.310701
1.0271 0.5 -0.478694 0.258869
1.0271 0.5 0.478694 0.256764
0.151149 0.5 -1.125 0.137399
0.151149 0.5 1.125 0.135922
1.08112 0.5 -0.354722 0.287737
1.08112 0.5 0.354722 0.285874
1.13882 0.5 -0.0340295 0.327873
1.13882 0.5 0.0340295 0.327639
0.350249 0.5 -1.0875 0.141259
0.350249 0.5 1.0875 0.139718
1.13882 0.5 -0.102088 0.325941
1.13882 0.5 0.102088 0.325495
1.10076 0.5 -0.314829 0.297752
1.10076 0.5 0.314829 0.295937
0.756813 0.5 -0.8625 0.177739
0.756814 0.5 0.8625 0.175874
0.797732 0.5 -0.825 0.185005
0.797732 0.5 0.825 0.183088
1.11376 0.5 -0.277247 0.305064
1.11376 0.5 0.277247 0.303382
0.835106 0.5 0.7875 0.190688
0.835106 0.5 -0.7875 0.192658
0.715434 0.5 -0.9 0.170959
0.715434 0.5 0.9 0.16914
0.872064 0.5 -0.75 0.200733
0.872064 0.5 0.75 0.198709
1.13882 0.5 0.170147 0.320743
1.13882 0.5 -0.170147 0.321881
0.67013 0.5 -0.9375 0.164523
0.67013 0.5 0.9375 0.16275
0.905821 0.5 -0.7125 0.209241
0.905821 0.5 0.7125 0.207163
1.05695 0.5 0.468994 0.263995
1.05695 0.5 -0.468994 0.26609
0.939201 0.5 -0.675 0.21809
0.939201 0.5 0.675 0.215952
0.624316 0.5 0.975 0.156869
0.624316 0.5 -0.975 0.158603
1.04168 0.5 -0.510414 0.256674
1.04168 0.5 0.510414 0.254438
0.969689 0.5 -0.6375 0.22737
0.96969 0.5 0.6375 0.225169
0.288069 0.5 -1.125 0.137665
0.288069 0.5 1.125 0.136141
1.16179 0.5 5.78241e-19 0.334695
1.08112 0.5 0.425666 0.27554
1.08112 0.5 -0.425666 0.27766
1.13882 0.5 -0.238206 0.31578
1.13882 0.5 0.238206 0.314234
1.16179 0.5 0.0669104 0.334327
1.16179 0.5 -0.0669104 0.333832
0.574156 0.5 -1.0125 0.152979
0.574156 0.5 1.0125 0.151284
0.075776 0.5 -1.1625 0.134758
0.075776 0.5 1.1625 0.133274
1.00005 0.5 -0.599447 0.236434
1.00005 0.5 0.599447 0.234225
1.10076 0.5 0.384791 0.286175
1.10076 0.5 -0.384791 0.28829
1.0271 0.5 -0.55234 0.24736
1.0271 0.5 0.55234 0.245086
1.11376 0.5 -0.346559 0.296347
1.11376 0.5 0.346559 0.294336
1.16179 0.5 -0.133821 0.330789
1.16179 0.5 0.133821 0.329944
0.523432 0.5 -1.05 0.147917
0.523432 0.5 1.05 0.146254
1.17463 0.5 -0.0331343 0.338393
1.17463 0.5 0.0331343 0.338141
1.17463 0.5 -0.0994029 0.336432
1.17463 0.5 0.0994029 0.33568
1.16179 0.5 -0.200731 0.325627
1.16179 0.5 0.200731 0.324268
1.13882 0.5 -0.306265 0.307773
1.13882 0.5 0.306265 0.305865
0.219992 0.5 -1.1625 0.134251
0.219992 0.5 1.1625 0.132743
0.467897 0.5 -1.0875 0.143109
0.467897 0.5 1.0875 0.141478
1.17463 0.5 0.165672 0.331062
1.17463 0.5 -0.165672 0.332291
1.05695 0.5 -0.541147 0.254381
1.05695 0.5 0.541147 0.252117
1.18772 0.5 -5.78241e-19 0.342279
1.11376 0.5 -0.41587 0.286071
1.11376 0.5 0.41587 0.283783
1.18772 0.5 -0.065614 0.341423
1.18772 0.5 0.065614 0.340745
1.08112 0.5 -0.49661 0.266326
1.08112 0.5 0.49661 0.263999
1.10076 0.5 -0.454752 0.277405
1.10076 0.5 0.454752 0.275048
1.18534 0.5 0.118202 0.337341
1.16179 0.5 -0.267642 0.318452
1.16179 0.5 0.267642 0.316704
0 0.5 -1.19382 0.132344
0 0.5 1.19382 0.130846
0.0124865 0.5 1.19382 0.130846
0.0124865 0.5 -1.19382 0.132344
1.04168 0.5 -0.58333 0.244646
1.04168 0.5 0.58333 0.242263
1.18772 0.5 -0.131228 0.338354
1.17463 0.5 -0.23194 0.326055
1.17463 0.5 0.23194 0.324383
0.411736 0.5 -1.125 0.138941
0.411736 0.5 1.125 0.137337
1.13882 0.5 -0.374324 0.298052
1.13882 0.5 0.374324 0.295829
0 0.5 -1.2 0.131867
0 0.5 1.2 0.130366
0.905821 0.5 0.7875 0.196145
0.905821 0.5 -0.7875 0.198294
0.872064 0.5 -0.825 0.190251
0.872064 0.5 0.825 0.188164
0.835106 0.5 0.8625 0.180608
0.835106 0.5 -0.8625 0.182632
0.939201 0.5 -0.75 0.206735
0.939201 0.5 0.75 0.20452
0.797732 0.5 -0.9 0.175441
0.797732 0.5 0.9 0.173474
1.0271 0.5 0.625985 0.23266
1.0271 0.5 -0.625985 0.23506
0.969689 0.5 0.7125 0.213344
0.96969 0.5 -0.7125 0.215628
1.18772 0.5 -0.196842 0.333131
1.18772 0.5 0.196842 0.331647
0.756814 0.5 -0.9375 0.16863
0.756814 0.5 0.9375 0.166718
0 0.5 1.20618 0.129888
0 0.5 -1.20618 0.131391
1.00005 0.5 -0.674378 0.224317
1.00005 0.5 0.674378 0.222008
0.0124865 0.5 1.20618 0.129888
0.0124865 0.5 -1.20618 0.131391
1.16179 0.5 -0.334552 0.309426
1.16179 0.5 0.334552 0.307336
0.715434 0.5 0.975 0.160427
0.715434 0.5 -0.975 0.162289
0.151149 0.5 -1.2 0.131579
0.151149 0.5 1.2 0.130066
1.20942 0.5 0.0322645 0.34907
1.20942 0.5 -0.0322645 0.349248
1.17463 0.5 -0.298209 0.317853
1.17463 0.5 0.298209 0.315788
1.20942 0.5 -0.0967935 0.347263
1.20942 0.5 0.0967935 0.346466
0.350249 0.5 -1.1625 0.134998
0.350249 0.5 1.1625 0.133421
0.67013 0.5 1.0125 0.154472
0.67013 0.5 -1.0125 0.156287
1.11376 0.5 0.485183 0.271973
1.11376 0.5 -0.485183 0.274487
1.18772 0.5 0.262456 0.323946
1.18772 0.5 -0.262456 0.325858
1.10076 0.5 -0.524714 0.265369
1.10076 0.5 0.524714 0.262812
1.20942 0.5 -0.161322 0.343056
1.20942 0.5 0.161322 0.341753
1.08112 0.5 -0.567554 0.254008
1.08112 0.5 0.567554 0.251531
0.624316 0.5 -1.05 0.15076
0.624316 0.5 1.05 0.148988
1.13882 0.5 -0.442383 0.286848
1.13882 0.5 0.442383 0.284372
1.05695 0.5 0.6133 0.239464
1.05695 0.5 -0.6133 0.241844
1.16179 0.5 -0.401463 0.298762
1.16179 0.5 0.401463 0.296385
0.574156 0.5 -1.0875 0.14552
0.574156 0.5 1.0875 0.143788
1.17463 0.5 0.364477 0.305468
1.17463 0.5 -0.364477 0.307874
1.20942 0.5 -0.225851 0.336704
1.20942 0.5 0.225851 0.334932
1.23036 0.5 -1.32995e-17 0.356115
1.2294 0.5 0.0634819 0.354204
1.04168 0.5 -0.656246 0.231959
1.04168 0.5 0.656246 0.22947
1.23036 0.5 -0.0634819 0.355231
1.18772 0.5 0.32807 0.314403
1.18772 0.5 -0.32807 0.316691
0.288069 0.5 -1.2 0.131602
0.288069 0.5 1.2 0.130043
1.23036 0.5 -0.126964 0.352086
1.23036 0.5 0.126964 0.351086
0.075776 0.5 -1.2375 0.12899
0.075776 0.5 1.2375 0.127473
0.523432 0.5 -1.125 0.1408
0.523432 0.5 1.125 0.139102
1.0271 0.5 -0.69963 0.222286
1.0271 0.5 0.69963 0.219799
1.24274 0.5 0.0314313 0.359929
1.24274 0.5 -0.0314313 0.360213
1.20942 0.5 0.29038 0.326143
1.20942 0.5 -0.29038 0.328333
1.11376 0.5 -0.554494 0.261881
1.11376 0.5 0.554494 0.259202
1.23036 0.5 -0.190445 0.34673
1.23036 0.5 0.190445 0.345267
1.24274 0.5 -0.0942942 0.358208
1.24274 0.5 0.0942942 0.35736
1.13882 0.5 0.510442 0.27175
1.13882 0.5 -0.510442 0.274434
0.969689 0.5 -0.7875 0.203619
0.969689 0.5 0.7875 0.201276
1.00005 0.5 -0.749309 0.21185
1.00005 0.5 0.749309 0.209469
0.939201 0.5 -0.825 0.195217
0.939201 0.5 0.825 0.19295
0.90582 0.5 0.8625 0.185062
0.90582 0.5 -0.8625 0.187259
1.17463 0.5 -0.430746 0.296352
1.17463 0.5 0.430746 0.293673
1.10076 0.5 -0.594676 0.252472
1.10076 0.5 0.594676 0.249794
1.18772 0.5 -0.393684 0.305841
1.18772 0.5 0.393684 0.303237
1.24274 0.5 -0.157157 0.353942
1.24274 0.5 0.157157 0.352554
1.16179 0.5 -0.468373 0.286709
1.16179 0.5 0.468373 0.284104
0.467897 0.5 -1.1625 0.136326
0.467897 0.5 1.1625 0.134663
0.872064 0.5 -0.9 0.179727
0.872064 0.5 0.9 0.177598
1.25401 0.5 2.08167e-17 0.363605
0.835106 0.5 0.9375 0.170544
0.835106 0.5 -0.9375 0.172605
1.25401 0.5 -0.0622994 0.362732
1.25401 0.5 0.0622994 0.362133
1.08112 0.5 -0.638498 0.240982
1.08112 0.5 0.638498 0.238403
1.23036 0.5 -0.253927 0.339261
1.23036 0.5 0.253927 0.337376
0.219992 0.5 1.2375 0.126838
0.219992 0.5 -1.2375 0.128378
1.25309 0.5 0.121964 0.358483
1.05695 0.5 0.685452 0.226311
1.05695 0.5 -0.685452 0.228778
0.797732 0.5 0.975 0.163908
0.797732 0.5 -0.975 0.165908
1.25401 0.5 -0.124599 0.359572
1.20942 0.5 -0.354909 0.318123
1.20942 0.5 0.354909 0.31557
1.24274 0.5 -0.220019 0.347484
1.24274 0.5 0.220019 0.345596
0.756814 0.5 -1.0125 0.159571
0.756813 0.5 1.0125 0.157627
1.25401 0.5 -0.186898 0.354172
1.25401 0.5 0.186898 0.352577
0.411736 0.5 -1.2 0.132441
0.411736 0.5 1.2 0.130807
0 0.5 -1.26882 0.12659
0 0.5 1.26882 0.125062
0.0124865 0.5 1.26882 0.125062
0.0124865 0.5 -1.26882 0.12659
0.715434 0.5 -1.05 0.15369
0.715434 0.5 1.05 0.151796
1.23036 0.5 -0.31741 0.329825
1.23036 0.5 0.31741 0.327572
1.04168 0.5 -0.729162 0.218921
1.04168 0.5 0.729162 0.216359
1.18772 0.5 -0.459298 0.293555
1.18772 0.5 0.459298 0.290704
1.24274 0.5 -0.282882 0.338953
1.24274 0.5 0.282882 0.336618
0 0.5 -1.275 0.126116
0 0.5 1.275 0.124585
1.27472 0.5 -0.0306319 0.371195
1.27472 0.5 0.0306319 0.370898
1.17463 0.5 0.497015 0.28066
1.17463 0.5 -0.497015 0.283553
1.11376 0.5 -0.623806 0.248537
1.11376 0.5 0.623806 0.245754
1.13882 0.5 -0.578501 0.261123
1.13882 0.5 0.578501 0.258304
0.67013 0.5 -1.0875 0.148127
0.67013 0.5 1.0875 0.146283
1.27472 0.5 -0.0918959 0.36917
1.27472 0.5 0.0918959 0.366714
1.25401 0.5 -0.249197 0.346624
1.25401 0.5 0.249197 0.344568
1.16179 0.5 -0.535284 0.273569
1.16179 0.5 0.535284 0.270789
1.20942 0.5 -0.419438 0.306308
1.20942 0.5 0.419438 0.303463
0 0.5 -1.28118 0.125643
0 0.5 1.28118 0.12411
0.0124865 0.5 1.28118 0.12411
0.0124865 0.5 -1.28118 0.125643
1.27472 0.5 0.15316 0.363398
1.27472 0.5 -0.15316 0.364847
0.151149 0.5 -1.275 0.125777
0.151149 0.5 1.275 0.124234
1.0271 0.5 0.773275 0.206754
1.0271 0.5 -0.773275 0.209301
1.10076 0.5 0.664638 0.236218
1.10076 0.5 -0.664638 0.238977
0.350249 0.5 -1.2375 0.128765
0.350249 0.5 1.2375 0.127159
0.624316 0.5 -1.125 0.143
0.624316 0.5 1.125 0.141198
1.23036 0.5 0.380892 0.316066
1.23036 0.5 -0.380892 0.318627
1.24274 0.5 -0.345745 0.328517
1.24274 0.5 0.345745 0.325796
1.2906 0.5 0 0.376792
1.2906 0.5 -0.0604698 0.375932
1.2906 0.5 0.0604698 0.375314
1.25401 0.5 -0.311497 0.337068
1.25401 0.5 0.311497 0.334608
1.27472 0.5 -0.214423 0.358289
1.27472 0.5 0.214423 0.356316
1.08112 0.5 0.709442 0.224906
1.08112 0.5 -0.709442 0.227557
1.00005 0.5 -0.824239 0.199272
1.00005 0.5 0.824239 0.19685
1.2906 0.5 -0.12094 0.372745
1.2906 0.5 0.12094 0.371524
0.574156 0.5 -1.1625 0.138148
0.574156 0.5 1.1625 0.136388
0.969689 0.5 -0.8625 0.19157
0.96969 0.5 0.8625 0.189196
1.18772 0.5 0.524912 0.277096
1.18772 0.5 -0.524912 0.28014
1.05695 0.5 -0.757605 0.215506
1.05695 0.5 0.757605 0.212981
0.939201 0.5 -0.9 0.18372
0.939201 0.5 0.9 0.181421
1.30091 0.5 -0.0299772 0.380598
1.30091 0.5 0.0299772 0.380282
1.20942 0.5 -0.483967 0.293145
1.20942 0.5 0.483967 0.290084
1.17463 0.5 -0.563284 0.269817
1.17463 0.5 0.563284 0.266763
1.2906 0.5 -0.181409 0.367269
1.2906 0.5 0.181409 0.365478
0.90582 0.5 0.9375 0.174058
0.90582 0.5 -0.9375 0.176285
1.30091 0.5 -0.0899316 0.378567
1.30091 0.5 0.0899316 0.375794
1.27472 0.5 0.275687 0.347167
1.27472 0.5 -0.275687 0.349607
0.288069 0.5 -1.275 0.125572
0.288069 0.5 1.275 0.123986
0.872064 0.5 -0.975 0.169301
0.872064 0.5 0.975 0.167149