# pMean  POINT_DATA 91129
# x  y  z  pMean
0 0 0 0.237727
0 0.00368111 0 0.237391
0 0.00749587 0 0.236657
0 0.0114491 0 0.235922
0 0.0155459 0 0.235258
0 0.0197915 0 0.234559
0 0.0241911 0 0.23377
0 0.0287506 0 0.232899
0 0.0334755 0 0.231978
0 0.038372 0 0.231026
0 0.0434463 0 0.230054
0 0.0487048 0 0.229071
0 0.0541543 0 0.228104
0 0.0598016 0 0.2272
0 0.0656539 0 0.22637
0 0.0717187 0 0.225572
0.075776 0.00184055 0 0.237727
0.075776 0.00558849 0 0.237055
0.075776 0.00947248 -3.46945e-18 0.236258
0.075776 0.0134975 -3.46945e-18 0.235586
0.075776 0.0176687 3.46945e-18 0.23493
0 0.0780037 0 0.224766
0.075776 0.0219913 3.46945e-18 0.234189
0.075776 0.0264709 3.46945e-18 0.233351
0.075776 0.031113 -3.46945e-18 0.232447
0.075776 0.0359237 -3.46945e-18 0.231508
0 0.0845169 0 0.223944
0.075776 0.0409092 0 0.230544
0.075776 0.0460755 -3.46945e-18 0.229564
0 0.0912666 0 0.223108
0.075776 0.0514296 -3.46945e-18 0.228578
0.075776 0.0569779 0 0.22763
0 0.0982613 0 0.222261
0.075776 0.0627278 0 0.22677
0.075776 0.0686863 0 0.22597
0 0.10551 0 0.221401
0.075776 0.0748612 3.46945e-18 0.225173
0.075776 0.0812603 -3.46945e-18 0.224358
0 0.113022 0 0.220525
0.075776 0.0878918 3.46945e-18 0.223529
0 0.120806 0 0.219633
0.075776 0.0947639 3.46945e-18 0.222688
0.075776 0.101886 -3.46945e-18 0.221834
0 0.128874 0 0.218723
0.075776 0.109266 3.46945e-18 0.220967
0 0.137234 0 0.217804
0.075776 0.116914 3.46945e-18 0.220084
0 0.145897 0 0.2169
0.075776 0.12484 0 0.219182
0.151552 0 0 0.219947
0.151552 0.00368111 0 0.219818
0.151552 0.00749587 0 0.219565
0.151552 0.0114491 0 0.219357
0.151552 0.0155459 0 0.219187
0.151552 0.0197915 0 0.218991
0.075776 0.133054 0 0.218263
0.151552 0.0241911 0 0.218744
0.151552 0.0287506 0 0.21845
0 0.154876 0 0.216036
0.151552 0.0334755 0 0.218125
0.151552 0.038372 0 0.217779
0.151552 0.0434463 0 0.217418
0.151552 0.0487048 0 0.217044
0.075776 0.141566 0 0.217345
0.151552 0.0541543 0 0.216671
0.151552 0.0598016 0 0.21632
0 0.16418 0 0.215226
0.151552 0.0656539 0 0.215996
0.151552 0.0717187 0 0.215679
0.075776 0.150387 0 0.216455
0.151552 0.0780037 0 0.215349
0.151552 0.0845169 0 0.215
0 0.173822 0 0.214468
0.075776 0.159528 0 0.215617
0.151552 0.0912666 0 0.214636
0.151552 0.0982613 0 0.21426
0 0.183814 0 0.213744
0.151552 0.10551 0 0.213874
0.075776 0.169001 3.46945e-18 0.214835
0.151552 0.113022 0 0.213475
0.151552 0.120806 0 0.213058
0 0.194169 0 0.213039
0.075776 0.178818 3.46945e-18 0.214099
0.151552 0.128874 0 0.212618
0.075776 0.188992 3.46945e-18 0.213389
0.151552 0.137234 0 0.212157
0 0.2049 0 0.212335
0.151552 0.145897 0 0.211689
0.075776 0.199535 0 0.212688
0 0.21602 0 0.211616
0.151552 0.154876 0 0.211228
0.219992 0.00184055 0 0.203535
0.219992 0.00558849 0 0.203657
0.219992 0.00947248 -3.46945e-18 0.20392
0.219992 0.0134975 3.46945e-18 0.204213
0.219992 0.0176687 0 0.204489
0.219992 0.0219913 0 0.20475
0.219993 0.0264709 -3.46945e-18 0.204996
0.219992 0.031113 -3.46945e-18 0.205228
0.219992 0.0359238 3.46945e-18 0.205446
0.151552 0.16418 0 0.210781
0.075776 0.21046 0 0.211982
0.219992 0.0409092 3.46945e-18 0.205654
0.219992 0.0460755 0 0.205851
0.219993 0.0514296 -3.46945e-18 0.206033
0.219992 0.0569779 0 0.2062
0 0.227544 0 0.210856
0.219992 0.0627277 3.46945e-18 0.206352
0.219992 0.0686863 0 0.206488
0.151552 0.173822 0 0.210344
0.219992 0.0748612 3.46945e-18 0.206606
0.075776 0.221782 0 0.21125
0.219992 0.0812603 3.46945e-18 0.206705
0.219992 0.0878917 -3.46945e-18 0.206784
0.151552 0.183814 0 0.209911
7.47806e-17 0.239487 0 0.210043
0.219992 0.0947639 3.46945e-18 0.206846
0.219993 0.101886 3.46945e-18 0.206901
0.075776 0.233516 0 0.210462
0.219993 0.109266 0 0.206949
0.151552 0.194169 0 0.209472
0.219993 0.116914 0 0.206983
0 0.251863 0 0.209189
0.219993 0.12484 0 0.206993
0.151552 0.2049 0 0.209019
0.075776 0.245675 0 0.209623
0.219992 0.133054 3.46945e-18 0.20697
0.219992 0.141565 0 0.206917
0.151552 0.21602 0 0.208541
0 0.264688 0 0.208313
0.219992 0.150387 3.46945e-18 0.20684
0.075776 0.258275 3.46945e-18 0.208755
0.219992 0.159528 -3.46945e-18 0.206739
0.151552 0.227544 0 0.208027
0.219992 0.169001 3.46945e-18 0.206613
0 0.27798 0 0.20742
0.075776 0.271334 3.46945e-18 0.207871
0.151552 0.239487 3.70071e-18 0.207469
0.219992 0.178818 3.46945e-18 0.206462
0.288433 0 0 0.20763
0.288433 0.00368111 0 0.207674
0.288433 0.00749587 0 0.207806
0.288433 0.0114491 0 0.207996
0.288433 0.0155459 3.70071e-18 0.208198
0.288433 0.0197915 0 0.208396
0.288433 0.0241911 3.70071e-18 0.20859
0.288433 0.0287506 0 0.208778
0.219992 0.188991 0 0.206283
0.288433 0.0334755 0 0.20896
0.288433 0.038372 0 0.209135
0.288433 0.0434463 0 0.209304
7.47806e-17 0.291753 0 0.206507
0.288433 0.0487048 0 0.209465
0.288433 0.0541543 0 0.209617
0.151552 0.251863 0 0.206872
0.288433 0.0598016 3.70071e-18 0.209758
0.075776 0.284866 0 0.206969
0.288433 0.0656539 3.70071e-18 0.209889
0.219992 0.199534 0 0.206076
0.288433 0.0717187 0 0.21001
0.288433 0.0780037 0 0.21012
0.288433 0.0845169 0 0.210215
0.288433 0.0912666 0 0.21029
0.219992 0.21046 -3.46945e-18 0.205838
0.288433 0.0982613 0 0.210347
0.151552 0.264688 3.70071e-18 0.206248
0 0.306027 0 0.205562
0.288433 0.10551 0 0.210389
0.075776 0.29889 3.46945e-18 0.206043
0.288433 0.113022 0 0.210416
0.219993 0.221782 0 0.205567
0.288433 0.120806 0 0.210427
0.288433 0.128874 0 0.21042
0.151552 0.27798 0 0.205602
0.288433 0.137234 0 0.210393
0 0.320819 0 0.20458
0.219992 0.233515 -3.46945e-18 0.205262
0.075776 0.313423 -3.46945e-18 0.205081
0.288433 0.145897 0 0.210343
0.288433 0.154876 0 0.210268
0.151552 0.291753 0 0.204932
0.219993 0.245675 0 0.204921
0.288433 0.16418 0 0.210168
0 0.336148 0 0.203575
0.288433 0.173822 0 0.210042
0.075776 0.328484 -3.46945e-18 0.204078
0.219993 0.258275 -3.46945e-18 0.204544
0.151552 0.306027 0 0.204226
0.288433 0.183814 0 0.20989
0.288433 0.194169 0 0.209709
0.219992 0.271334 3.46945e-18 0.204137
0.350249 0.00184056 -3.46945e-18 0.211424
0.350249 0.00558849 0 0.21148
0.350249 0.00947248 3.46945e-18 0.211578
0.350249 0.0134975 0 0.211697
0.350249 0.0176687 0 0.211826
0.350249 0.0219913 0 0.211963
0.350249 0.0264708 3.46945e-18 0.212104
0.350249 0.031113 0 0.212245
0 0.352034 0 0.202585
0.350249 0.0359238 0 0.212386
0.075776 0.344091 0 0.203072
0.350249 0.0409091 0 0.212526
0.350249 0.0460756 3.46945e-18 0.212663
0.288433 0.2049 0 0.209499
0.350249 0.0514296 0 0.212796
0.151552 0.320819 0 0.203476
0.350249 0.0569779 0 0.212924
0.350249 0.0627277 3.46945e-18 0.213045
0.350249 0.0686863 3.46945e-18 0.213161
0.350249 0.0748612 3.46945e-18 0.213275
0.350249 0.0812603 0 0.213385
0.219992 0.284867 0 0.203708
0.288433 0.21602 0 0.209256
0.350249 0.0878917 0 0.213478
0.350249 0.094764 0 0.213544
0.350249 0.101886 0 0.213587
0.350249 0.109266 0 0.21361
0.288433 0.227544 0 0.208979
0.075776 0.360265 3.46945e-18 0.202098
0 0.368496 0 0.201603
0.151552 0.336148 0 0.202686
0.350249 0.116914 3.46945e-18 0.213615
0.219992 0.29889 0 0.203246
0.370854 0.0241911 1.54074e-33 0.215073
0.350249 0.12484 0 0.213611
0.350249 0.133054 0 0.213603
0.288433 0.239487 -9.25154e-19 0.208667
0.350249 0.141566 3.46945e-18 0.213579
0.350249 0.150387 3.46945e-18 0.213529
0.288433 0.251863 0 0.208317
0.219992 0.313423 0 0.202738
0.151552 0.352034 0 0.201874
0.075776 0.377027 0 0.201107
0.350249 0.159528 0 0.213454
0 0.385557 0 0.200576
0.350249 0.169001 0 0.213353
0.288433 0.264688 0 0.207931
0.350249 0.178818 0 0.213227
0.219992 0.328484 0 0.202176
0.350249 0.188992 0 0.213073
0.151552 0.368496 0 0.201039
0.288433 0.27798 3.70071e-18 0.207512
0.075776 0.394397 0 0.200044
0.350249 0.199535 0 0.212889
7.47806e-17 0.403236 0 0.199478
0.219992 0.344091 0 0.201555
0.350249 0.21046 -3.46945e-18 0.212674
0.288433 0.291753 0 0.207058
0.412065 9.08189e-19 3.08149e-33 0.217911
0.412065 0.00368111 -2.31298e-18 0.217931
0.412065 0.00749587 -2.31298e-18 0.217985
0.412065 0.0114491 -2.31298e-18 0.218058
0.412065 0.0155459 -2.31298e-18 0.21814
0.412065 0.0197915 0 0.218226
0.412065 0.0241911 -3.08149e-33 0.218315
0.412065 0.0264709 0 0.218361
0.412065 0.0287506 -2.31298e-18 0.218407
0.412065 0.0334755 -2.31298e-18 0.218502
0.412065 0.038372 -2.31298e-18 0.218598
0.151552 0.385557 0 0.200155
0.412065 0.0434463 0 0.218695
0.350249 0.221782 0 0.212425
0.412065 0.0487048 0 0.218793
0.412065 0.0541543 -3.08149e-33 0.218889
0.412065 0.0569779 0 0.218937
0.412065 0.0598016 -2.31298e-18 0.218984
0.412065 0.0656539 -2.31298e-18 0.219075
0.412065 0.0717187 -2.31298e-18 0.219159
0.075776 0.412396 -3.46945e-18 0.198911
0.412065 0.0780037 -2.31298e-18 0.219226
0.288433 0.306027 0 0.206564
0.412065 0.0845169 -2.31298e-18 0.219269
0.350249 0.233516 3.46945e-18 0.212141
0 0.421557 0 0.198319
0.412065 0.0912666 -2.31298e-18 0.219286
0.219992 0.360265 3.46945e-18 0.20088
0.412065 0.0982613 0 0.219285
0.412065 0.10551 0 0.219267
0.412065 0.113022 -2.31298e-18 0.219234
0.350249 0.245675 0 0.21182
0.412065 0.120806 0 0.219186
0.151552 0.403236 0 0.199209
0.288433 0.320819 0 0.206022
0.412065 0.128874 -2.31298e-18 0.219127
0.412065 0.137234 0 0.219055
0.350249 0.258275 -3.46945e-18 0.21146
0.219992 0.377026 0 0.200155
0.412065 0.145897 -2.31298e-18 0.218966
0.075776 0.431051 0 0.197727
0.412065 0.154876 -2.31298e-18 0.218857
0 0.440544 0 0.197115
0.288433 0.336148 0 0.205427
0.350249 0.271334 0 0.211059
0.412065 0.16418 -2.31298e-18 0.218726
0.412065 0.173822 -2.31298e-18 0.218574
0.151552 0.421557 0 0.198202
0.412065 0.183814 -2.31298e-18 0.218397
0.350249 0.284867 3.46945e-18 0.210619
0.219992 0.394397 0 0.199378
0.288433 0.352034 3.70071e-18 0.204777
0.412065 0.194169 0 0.218194
0.075776 0.450382 0 0.196501
0.412065 0.2049 -2.31298e-18 0.217963
0 0.46022 0 0.195868
0.350249 0.29889 3.46945e-18 0.210138
0.412065 0.21602 0 0.217702
0.151552 0.440544 0 0.19714
0.219993 0.412396 3.46945e-18 0.198543
0.467897 0.00184056 -3.46945e-18 0.223946
0.467897 0.00558849 0 0.223971
0.288433 0.368496 0 0.204072
0.467897 0.00947248 0 0.22401
0.467897 0.0134975 0 0.224052
0.467897 0.0176687 3.46945e-18 0.224095
0.467897 0.0219913 -3.46945e-18 0.224137
0.467897 0.0264709 3.46945e-18 0.224181
0.467897 0.0311131 3.46945e-18 0.22423
0.467897 0.0359238 -3.46945e-18 0.224283
0.467897 0.038372 0 0.224992
0.467897 0.0409092 3.46945e-18 0.22434
0.350249 0.313423 0 0.209613
0.467897 0.0460755 0 0.224401
0.467897 0.0514296 3.46945e-18 0.224465
0.412065 0.227544 -2.31298e-18 0.217409
0.467897 0.0569779 0 0.224532
0.467897 0.0627277 -3.46945e-18 0.224599
0.467897 0.0686863 3.46945e-18 0.224663
0.467897 0.0748612 0 0.224708
0.467897 0.0812603 0 0.224715
0.467897 0.0878918 3.46945e-18 0.224684
0.075776 0.470415 3.46945e-18 0.195233
0.412065 0.239487 -2.31298e-18 0.217081
0.467897 0.0947639 -3.46945e-18 0.224635
0.467897 0.101886 3.46945e-18 0.224576
0.350249 0.328483 0 0.209041
0.467897 0.109266 0 0.224507
0 0.48061 0 0.194575
0.288433 0.385557 0 0.203313
0.467897 0.116914 0 0.224423
0.412065 0.251863 -2.31298e-18 0.216716
0.219992 0.431051 0 0.197645
0.467897 0.12484 0 0.224322
0.151552 0.46022 0 0.196025
0.467897 0.133054 3.46945e-18 0.224204
0.467897 0.141566 3.46945e-18 0.224074
0.412065 0.264688 -2.31298e-18 0.216312
0.350249 0.344091 -3.46945e-18 0.208417
0.467897 0.150387 3.46945e-18 0.223929
0.467897 0.154876 0 0.224631
0.467897 0.159528 3.46945e-18 0.223769
0.288433 0.403236 0 0.202494
0.075776 0.491175 0 0.193916
0.412065 0.27798 -2.31298e-18 0.215868
0.467897 0.169001 0 0.22359
0.467897 0.178818 3.46945e-18 0.22339
0.219992 0.450382 0 0.196683
6.73026e-17 0.501741 3.70071e-18 0.193231
0.350249 0.360265 0 0.207738
0.151552 0.48061 0 0.194853
0.467897 0.188991 0 0.223168
0.412065 0.291753 0 0.215381
0.467897 0.199535 0 0.222922
0.288433 0.421557 0 0.201613
0.467897 0.21046 0 0.222648
0.412065 0.306027 0 0.21485
0.350249 0.377027 0 0.207
0.467897 0.221782 3.46945e-18 0.222346
0.075776 0.51269 0 0.192545
0.219993 0.470415 3.46945e-18 0.195657
0.467897 0.227544 0 0.222926
0.412065 0.320819 -2.31298e-18 0.21427
0.467897 0.233515 0 0.222012
6.73026e-17 0.523639 3.70071e-18 0.191834
0.523729 0 0 0.231153
0.523729 0.00368111 0 0.231163
0.523729 0.00749587 -2.31298e-18 0.23119
0.523729 0.0114491 0 0.231222
0.523729 0.0155459 0 0.231253
0.523729 0.0197915 -2.31298e-18 0.231278
0.151552 0.501741 0 0.19362
0.523729 0.0241911 0 0.231301
0.523729 0.0287506 0 0.231326
0.523729 0.0334755 0 0.231354
0.523729 0.038372 -3.08149e-33 0.231386
0.523729 0.0434463 0 0.23142
0.523729 0.0487048 0 0.231458
0.523729 0.0541543 0 0.231498
0.288433 0.440544 0 0.200665
0.523729 0.0598016 0 0.231541
0.350249 0.394397 -3.46945e-18 0.206202
0.523729 0.0656539 0 0.231582
0.467897 0.245675 0 0.221643
0.523729 0.0717187 0 0.231608
0.523729 0.0780037 0 0.231599
0.523729 0.0845169 0 0.23155
0.523729 0.0912666 0 0.231476
0.412065 0.336148 0 0.21364
0.523729 0.0982613 0 0.23139
0.523729 0.10551 -2.31298e-18 0.231293
0.467897 0.258275 -3.46945e-18 0.221238
0.523729 0.113022 0 0.231184
0.523729 0.120806 -3.08149e-33 0.23106
0.219993 0.491176 0 0.194565
0.523729 0.12484 0 0.23099
0.523729 0.128874 -2.31298e-18 0.23092
0.075776 0.534986 0 0.19112
0.467897 0.271334 3.46945e-18 0.220793
0.350249 0.412396 -3.46945e-18 0.205341
0.523729 0.137234 0 0.230764
0.412065 0.352034 -2.31298e-18 0.212954
0.288433 0.46022 0 0.199649
0.523729 0.145897 0 0.230593
0.151552 0.523639 0 0.19232
0.523729 0.154876 -3.08149e-33 0.230405
0 0.546332 0 0.190378
0.523729 0.159528 0 0.230301
0.467897 0.284867 -3.46945e-18 0.220305
0.523729 0.16418 -2.31298e-18 0.230197
0.523729 0.173822 0 0.229969
0.412065 0.368496 0 0.212211
0.523729 0.183814 0 0.229717
0.467897 0.29889 0 0.219771
0.350249 0.431051 -3.46945e-18 0.204412
0.219992 0.51269 0 0.193396
0.523729 0.194169 0 0.229441
0.288433 0.48061 0 0.198563
0.523729 0.2049 0 0.229138
0.467897 0.313423 3.46945e-18 0.219189
0.075776 0.558091 0 0.189635
0.412065 0.385557 0 0.211407
0.523729 0.21602 -3.08149e-33 0.228806
0.151552 0.546332 0 0.190948
0 0.569849 0 0.188861
0.350249 0.450382 3.46945e-18 0.203414
0.523729 0.227544 -3.08149e-33 0.228443
0.467897 0.328483 0 0.218556
0.523729 0.231525 1.54074e-33 0.22831
0.574156 0.00184056 0 0.237887
0.574156 0.00558849 0 0.237904
0.574157 0.00947248 0 0.237929
0.574156 0.0134975 -3.46945e-18 0.237954
0.574156 0.0176687 -3.46945e-18 0.237969
0.574156 0.0219913 0 0.237974
0.574156 0.0264708 -3.46945e-18 0.237977
0.574156 0.031113 0 0.237984
0.574156 0.0359238 -3.46945e-18 0.237991
0.574157 0.0409092 0 0.238001
0.523729 0.239487 3.70071e-18 0.228046
0.574156 0.0460755 -3.46945e-18 0.238014
0.574156 0.0514295 0 0.23803
0.412065 0.403236 0 0.210539
0.574157 0.0569779 0 0.238049
0.574156 0.0627277 0 0.23807
0.574156 0.0686863 0 0.238085
0.219992 0.534986 0 0.192144
0.288433 0.501741 0 0.197401
0.574156 0.0748612 3.46945e-18 0.238068
0.574156 0.0812603 0 0.238001
0.467897 0.344091 0 0.217868
0.574156 0.0878917 3.46945e-18 0.237902
0.523729 0.251863 0 0.227612
0.574157 0.0947639 0 0.23779
0.574156 0.101886 0 0.237669
0.574156 0.109266 0 0.237536
0.574156 0.116914 0 0.23739
0.412065 0.416977 -6.16298e-33 0.209838
0.350249 0.470415 0 0.202341
0.523729 0.264688 0 0.22714
0.075776 0.582034 0 0.188084
0.574156 0.12484 0 0.23723
0.574156 0.133054 3.46945e-18 0.237053
0.412065 0.421557 -2.31298e-18 0.209604
0.151552 0.569849 0 0.1895
0.467897 0.360265 -3.46945e-18 0.217123
0.574157 0.141566 -3.46945e-18 0.23686
0.523729 0.27798 0 0.226626
0.574156 0.150386 3.46945e-18 0.236648
0 0.594219 0 0.187275
0.574156 0.159528 -3.46945e-18 0.236416
0.574156 0.16418 0 0.236951
0.288433 0.523639 1.2326e-32 0.196157
0.574157 0.169001 0 0.236163
0.523729 0.291753 0 0.226068
0.219993 0.558091 3.46945e-18 0.190805
0.467897 0.377026 0 0.216318
0.574156 0.178818 3.46945e-18 0.235886
0.412065 0.440544 -2.31298e-18 0.208599
0.350249 0.491175 0 0.20119
0.574156 0.188992 3.46945e-18 0.235584
0.523729 0.306027 -3.08149e-33 0.225463
0.574157 0.199535 0 0.235256
0.574157 0.21046 0 0.234898
0.075776 0.606847 0 0.186463
0.467897 0.394397 0 0.215448
0.151552 0.594219 0 0.187972
0.523729 0.320819 0 0.224807
0.574157 0.221782 -3.46945e-18 0.234509
0.412065 0.46022 3.08149e-33 0.207519
0.288433 0.546332 0 0.194827
0 0.619475 0 0.185616
0.574156 0.233515 3.46945e-18 0.234087
0.350249 0.51269 3.46945e-18 0.199958
0.219992 0.582034 3.46945e-18 0.189378
0.523729 0.336148 0 0.224097
0.467897 0.412396 0 0.214511
0.574156 0.245675 0 0.23363
0.624584 0 0 0.245909
0.624584 0.00368111 0 0.245917
0.624584 0.00749587 0 0.245937
0.624584 0.0114491 0 0.245961
0.624584 0.0155459 0 0.24598
0.624584 0.0197915 0 0.245985
0.624584 0.0241911 -2.31298e-18 0.245978
0.624584 0.0287506 0 0.245969
0.624584 0.0334755 0 0.245962
0.624584 0.038372 0 0.245955
0.624584 0.0434463 -2.31298e-18 0.24595
0.624584 0.0487048 0 0.245947
0.624584 0.0541543 0 0.245944
0.624584 0.0598016 0 0.245943
0.624584 0.0656539 0 0.245935
0.624584 0.0717187 0 0.245902
0.624584 0.0780037 0 0.245826
0.574157 0.258276 3.46945e-18 0.233135
0.624584 0.0845169 0 0.245713
0.523729 0.352034 0 0.223332
0.624584 0.0912666 0 0.24558
0.624584 0.0982613 0 0.245436
0.412065 0.48061 3.08149e-33 0.206361
0.624584 0.10551 0 0.245279
0.624584 0.113022 -2.31298e-18 0.245107
0.574156 0.271334 0 0.232599
0.624584 0.120806 0 0.24492
0.467897 0.431051 0 0.213504
0.075776 0.632561 -3.46945e-18 0.184766
0.624584 0.128874 0 0.244716
0.151552 0.619475 0 0.186361
0.288433 0.569849 0 0.193407
0.350249 0.534985 0 0.198641
0.624584 0.137234 -2.31298e-18 0.244494
0.523729 0.368496 0 0.222506
0.574156 0.284866 -3.46945e-18 0.23202
0.624584 0.145897 0 0.244252
0.467897 0.440544 0 0.213565
0.624584 0.154876 0 0.24399
0.219992 0.606847 -3.46945e-18 0.187858
0 0.645647 0 0.183878
0.624584 0.16418 -3.08149e-33 0.243706
0.574156 0.29889 -3.46945e-18 0.231394
0.624584 0.173822 0 0.243397
0.412065 0.501741 1.54074e-33 0.205122
0.467897 0.450382 -3.46945e-18 0.212423
0.523729 0.385557 0 0.221616
0.624584 0.183814 0 0.243064
0.624584 0.194169 0 0.242702
0.574156 0.313423 0 0.23072
0.624584 0.2049 0 0.242311
0.350249 0.558091 3.46945e-18 0.197234
0.288433 0.594219 0 0.191894
0.624584 0.21602 0 0.241889
0.523729 0.403236 0 0.22066
0.574156 0.328483 -3.46945e-18 0.229993
0.151552 0.645647 0 0.184661
0.467897 0.470415 3.46945e-18 0.211263
0.075776 0.659208 0 0.182987
0.624584 0.227544 0 0.241434
0.412065 0.523639 0 0.203796
0.523729 0.41545 3.08149e-33 0.219975
0.624584 0.239487 3.70071e-18 0.240943
0.574156 0.344091 0 0.229211
0.219992 0.632561 0 0.186243
0.67013 0.00184055 0 0.25344
0.67013 0.00558849 0 0.253455
0.67013 0.00947248 0 0.253478
0.67013 0.0134975 0 0.253504
0.67013 0.0176687 -3.46945e-18 0.253513
0.67013 0.0219913 0 0.253503
0.67013 0.0264708 3.46945e-18 0.253481
0.67013 0.0311131 0 0.253459
0.67013 0.0359237 0 0.253438
0.67013 0.0409092 -3.46945e-18 0.253418
0.67013 0.0460755 0 0.253398
0.67013 0.0514296 3.46945e-18 0.253377
0.523729 0.421557 -2.31298e-18 0.219632
0.67013 0.056978 0 0.253356
0 0.67277 0 0.182056
0.67013 0.0627277 0 0.253333
0.624584 0.251863 0 0.240413
0.67013 0.0686863 0 0.253292
0.67013 0.0748612 3.46945e-18 0.253206
0.67013 0.0812603 0 0.253077
0.67013 0.0878917 0 0.252925
0.67013 0.0947639 3.46945e-18 0.252761
0.574156 0.360265 0 0.228369
0.67013 0.101886 0 0.252584
0.523729 0.431051 0 0.219081
0.624584 0.264688 0 0.239843
0.467897 0.491175 0 0.210022
0.67013 0.109266 3.46945e-18 0.25239
0.350249 0.582034 0 0.195733
0.67013 0.116914 0 0.25218
0.67013 0.12484 0 0.251952
0.67013 0.133054 0 0.251706
0.288433 0.619475 0 0.190283
0.624584 0.27798 -3.08149e-33 0.23923
0.412065 0.546332 1.54074e-33 0.20238
0.523729 0.440544 -3.08149e-33 0.218531
0.67013 0.141566 3.46945e-18 0.251439
0.685312 0.0241911 -7.70372e-34 0.25678
0.685312 0.0434463 -7.70372e-34 0.256664
0.67013 0.150387 0 0.25115
0.574156 0.377026 -3.46945e-18 0.227465
0.67013 0.159528 0 0.250839
0.624584 0.291753 0 0.238571
0.151552 0.67277 0 0.182868
0.075776 0.686823 0 0.181121
0.67013 0.169001 0 0.250503
0.67013 0.178818 0 0.250141
0.467897 0.51269 0 0.208695
0.685312 0.113022 -7.70372e-34 0.255408
0.219992 0.659208 0 0.184529
0.624584 0.306027 0 0.237863
0.67013 0.188991 0 0.249752
0.574156 0.394397 3.46945e-18 0.226494
0.523729 0.46022 0 0.21735
0.685312 0.137234 -7.70372e-34 0.254647
0.67013 0.199535 -3.46945e-18 0.249332
0.350249 0.606847 0 0.194135
0 0.700877 0 0.180144
0.624584 0.320819 0 0.237104
0.67013 0.21046 0 0.248881
0.412065 0.569849 -2.31298e-18 0.200869
0.67013 0.221782 -3.46945e-18 0.248397
0.574157 0.412396 0 0.225453
0.288433 0.645647 0 0.188571
0.624584 0.336148 -3.08149e-33 0.236288
0.67013 0.233515 3.46945e-18 0.247876
0.467897 0.534986 0 0.207277
0.523729 0.48061 0 0.216088
0.624584 0.344091 0 0.235851
0.67013 0.245675 0 0.247318
0.715676 4.54095e-19 0 0.26215
0.715676 0.00368111 0 0.262157
0.715676 0.00749587 0 0.262176
0.715676 0.0114491 0 0.262201
0.715676 0.0155459 0 0.262217
0.715676 0.0197915 0 0.26221
0.715676 0.0241911 0 0.262182
0.715676 0.0287506 0 0.262143
0.715676 0.0334755 0 0.262103
0.715676 0.038372 0 0.262062
0.624584 0.352034 -2.31298e-18 0.235414
0.715676 0.0434463 0 0.26202
0.151552 0.700877 0 0.180977
0.715676 0.0487048 0 0.261977
0.715676 0.0541543 0 0.261933
0.574156 0.43105 0 0.224337
0.715676 0.0598016 0 0.261886
0.67013 0.258275 0 0.246719
0.715676 0.0656539 0 0.261825
0.715676 0.0717187 0 0.261728
0.075776 0.715441 0 0.179162
0.715676 0.0780037 0 0.261587
0.715676 0.0845169 0 0.261414
0.219992 0.686824 0 0.182712
0.715676 0.0912666 0 0.261224
0.715676 0.0982613 0 0.261019
0.67013 0.271334 -3.46945e-18 0.246077
0.350249 0.632561 -3.46945e-18 0.192433
0.412065 0.594219 3.08149e-33 0.199259
0.715676 0.10551 0 0.260798
0.715676 0.113022 0 0.260559
0.624584 0.368496 0 0.234478
0.523729 0.501741 0 0.214738
0.715676 0.120806 0 0.260301
0.715676 0.128874 0 0.260023
0.67013 0.284867 0 0.245389
0.467897 0.558091 3.46945e-18 0.205763
0.715676 0.137234 0 0.259724
0.574156 0.450382 0 0.223143
0 0.730005 0 0.178136
0.715676 0.145897 0 0.259402
0.288433 0.67277 0 0.186754
0.715676 0.154876 0 0.259057
0.67013 0.29889 0 0.244653
0.624584 0.385557 0 0.233475
0.715676 0.16418 -9.25187e-19 0.258686
0.715676 0.173822 0 0.258288
0.715676 0.183814 0 0.257862
0.67013 0.313423 0 0.243865
0.523729 0.523639 0 0.213297
0.715676 0.194169 0 0.257405
0.574156 0.470415 3.46945e-18 0.221866
0.624584 0.403236 0 0.232403
0.743101 0.0241911 -7.70372e-34 0.267989
0.412065 0.619475 3.08149e-33 0.197544
0.715676 0.2049 0 0.256916
0.151552 0.730005 0 0.178984
0.67013 0.328484 3.46945e-18 0.243022
0.350249 0.659208 0 0.190624
0.467897 0.582034 0 0.204149
0.715676 0.21602 0 0.256393
0.219992 0.715441 0 0.180787
0.075776 0.745097 -3.46945e-18 0.177105
0.715676 0.227544 0 0.255834
0.67013 0.344091 0 0.242121
0.624584 0.421557 0 0.231256
0.743101 0.128874 -7.70372e-34 0.26545
0.715676 0.239487 3.70071e-18 0.255237
0.574156 0.491175 0 0.220501
0.756814 0.00184055 0 0.270368
0.523729 0.546332 0 0.211758
0.756813 0.00558849 0 0.270382
0.756813 0.00947248 0 0.270406
0.756814 0.0134975 -3.46945e-18 0.270432
0.756814 0.0155459 0 0.270948
0.756814 0.0176687 0 0.270436
0.756814 0.0219913 0 0.270406
0.756814 0.0264709 0 0.270356
0.756814 0.031113 -3.46945e-18 0.270299
0.756813 0.0359238 -3.46945e-18 0.270241
0.288433 0.700877 0 0.184826
0.756814 0.0409092 -3.46945e-18 0.270179
0.756813 0.0460755 3.46945e-18 0.270115
0.756813 0.0514296 0 0.27005
0.715676 0.251863 0 0.254599
0.756813 0.0569779 0 0.269983
0.756814 0.0627277 -3.46945e-18 0.26991
0.756814 0.0686863 -3.46945e-18 0.269807
0 0.76019 0 0.176028
0.756814 0.0748612 0 0.269653
0.67013 0.360265 3.46945e-18 0.241158
0.756814 0.0812603 -3.46945e-18 0.269459
0.756814 0.0878917 -3.46945e-18 0.269247
0.756814 0.0947639 -3.46945e-18 0.269019
0.715676 0.264688 0 0.253918
0.756813 0.101886 0 0.268774
0.624584 0.440544 0 0.23003
0.756813 0.109266 3.46945e-18 0.268509
0.756813 0.116914 3.46945e-18 0.268225
0.412065 0.645647 0 0.195719
0.467897 0.606847 0 0.20243
0.756814 0.120806 0 0.268486
0.756813 0.12484 0 0.26792
0.715676 0.27798 0 0.253191
0.756814 0.133054 -3.46945e-18 0.267593
0.67013 0.377026 -3.46945e-18 0.24013
0.756814 0.137234 0 0.267817
0.574156 0.51269 0 0.219045
0.756813 0.141566 3.46945e-18 0.267242
0.685312 0.352034 -7.70372e-34 0.244318
0.743101 0.2049 -7.70372e-34 0.262068
0.350249 0.686824 0 0.188703
0.756814 0.150387 0 0.266866
0.756814 0.154876 0 0.267052
0.715676 0.291753 0 0.252416
0.756814 0.159528 -3.46945e-18 0.266465
0.523729 0.569849 0 0.210119
0.72743 0.264688 0 0.256042
0.756814 0.16418 0 0.26663
0.151552 0.76019 0 0.176883
0.756813 0.169001 3.46945e-18 0.266036
0.624584 0.46022 0 0.228722
0.219993 0.745097 0 0.178751
0.67013 0.394396 0 0.239032
0.756813 0.178818 -3.46945e-18 0.265577
0.715676 0.306027 0 0.25159
0.075776 0.775831 0 0.174944
0.756813 0.188991 0 0.265088
0.756814 0.199535 0 0.264566
0.715676 0.320819 0 0.250709
0.574156 0.534985 0 0.217491
0.288433 0.730005 0 0.182784
0.756813 0.21046 0 0.26401
0.467897 0.632561 0 0.200599
0.67013 0.412396 -3.46945e-18 0.237861
0.624584 0.48061 -3.08149e-33 0.227326
0.756814 0.221782 0 0.263417
0.412065 0.67277 3.08149e-33 0.19378
0.715676 0.336148 0 0.24977
0 0.791472 0 0.173812
0.756813 0.233516 3.46945e-18 0.262786
0.523729 0.594219 0 0.208371
0.624584 0.487654 1.54074e-33 0.22683
0.756814 0.245675 3.46945e-18 0.262114
0.350249 0.715441 3.46945e-18 0.186664
0.67013 0.43105 0 0.236611
0.715676 0.352034 -9.25187e-19 0.24877
0.797951 9.08189e-19 -3.08149e-33 0.279613
0.797951 0.00368111 2.31298e-18 0.27962
0.797951 0.00749587 2.31298e-18 0.27964
0.797951 0.0114491 2.31298e-18 0.279666
0.797951 0.0141803 7.70372e-34 0.279675
0.797951 0.0155459 0 0.279679
0.797951 0.0169611 7.70372e-34 0.279672
0.797951 0.0197915 2.31298e-18 0.279659
0.797951 0.0219913 0 0.279632
0.797951 0.0241911 3.08149e-33 0.279605
0.797951 0.0264709 0 0.279568
0.797951 0.0287506 -3.08149e-33 0.279531
0.797951 0.0334755 2.31298e-18 0.279447
0.797951 0.038372 2.31298e-18 0.279358
0.797951 0.0434463 2.31298e-18 0.279265
0.797951 0.0487048 0 0.279168
0.756813 0.258275 -3.46945e-18 0.261399
0.797951 0.0541543 2.31298e-18 0.279068
0.797951 0.0598016 2.31298e-18 0.27896
0.797951 0.0656539 2.31298e-18 0.27883
0.574156 0.55809 0 0.215834
0.624584 0.501741 0 0.225837
0.797951 0.0717187 2.31298e-18 0.278656
0.797951 0.0780037 -3.08149e-33 0.278438
0.797951 0.0845169 2.31298e-18 0.278192
0.797951 0.0912666 -3.08149e-33 0.277927
0.797951 0.0982613 2.31298e-18 0.277644
0.756813 0.271334 0 0.260638
0.797951 0.10551 2.31298e-18 0.277341
0.715676 0.368496 0 0.247705
0.151552 0.791472 0 0.174669
0.797951 0.113022 2.31298e-18 0.277017
0.219992 0.775831 3.46945e-18 0.1766
0.797951 0.118211 7.70372e-34 0.276787
0.770526 0.239487 1.54074e-33 0.265309
0.797951 0.120806 0 0.276672
0.67013 0.450382 3.46945e-18 0.235278
0.797951 0.128874 3.08149e-33 0.276303
0.467897 0.659208 0 0.198653
0.756813 0.284866 -3.46945e-18 0.259829
0.743101 0.320819 -7.70372e-34 0.255496
0.797951 0.137234 0 0.27591
0.797951 0.141566 0 0.275701
0.797951 0.145897 -9.25187e-19 0.275491
0.523729 0.619475 0 0.206511
0.075776 0.807681 0 0.172674
0.797951 0.150387 0 0.275269
0.797951 0.154876 0 0.275047
0.715676 0.385557 0 0.246571
0.412065 0.700877 3.08149e-33 0.191721
0.288433 0.76019 0 0.180623
0.756813 0.29889 0 0.258969
0.797951 0.16418 0 0.274574
0.624584 0.523639 0 0.22425
0.797951 0.167394 7.70372e-34 0.274406
0.797951 0.173822 2.31298e-18 0.274071
0.574156 0.582034 0 0.214069
0.67013 0.470415 0 0.233858
0.797951 0.183814 2.31298e-18 0.273538
0.756813 0.313423 -3.46945e-18 0.258056
0.797951 0.194169 -9.25187e-19 0.272972
0.715676 0.403236 0 0.245364
0.151552 0.807681 0 0.173503
0.797951 0.197746 -7.70372e-34 0.272772
0.350249 0.745097 0 0.184504
0.797951 0.2049 3.08149e-33 0.272371
0 0.823889 0 0.171485
0.756813 0.328483 -3.46945e-18 0.257085
0.797951 0.21046 0 0.272053
0.797951 0.21602 -3.08149e-33 0.271735
0.797951 0.223703 7.70372e-34 0.271285
0.797951 0.227544 9.25187e-19 0.27106
0.624584 0.546332 0 0.22256
0.715676 0.421557 0 0.24408
0.67013 0.491176 -3.46945e-18 0.232346
0.797951 0.231525 7.70372e-34 0.270821
0.467897 0.686824 -3.46945e-18 0.196584
0.523729 0.645647 0 0.204533
0.756813 0.344091 -3.46945e-18 0.256053
0.822721 0.120806 7.70372e-34 0.282308
0.797951 0.239487 -3.08149e-33 0.270344
0.822721 0.137234 7.70372e-34 0.281476
0.835106 0.00184056 0 0.288381
0.835106 0.00558849 0 0.288397
0.835106 0.00947248 0 0.288423
0.835106 0.0134975 0 0.288449
0.835107 0.0176687 0 0.288445
0.835106 0.0219913 -3.46945e-18 0.288395
0.574156 0.606847 3.46945e-18 0.212191
0.835106 0.0241911 0 0.28868
0.835106 0.0264709 -3.46945e-18 0.288311
0.822721 0.145897 -7.70372e-34 0.281022
0.835106 0.031113 3.46945e-18 0.288208
0.835106 0.0359238 3.46945e-18 0.288095
0.835106 0.0409092 -3.46945e-18 0.287976
0.835106 0.0460755 3.46945e-18 0.287851
0.835106 0.0514296 0 0.287721
0.797951 0.251863 -3.08149e-33 0.269587
0.835106 0.0541543 0 0.287966
0.835106 0.0569779 0 0.287585
0.219992 0.807681 3.46945e-18 0.174327
0.822721 0.154876 7.70372e-34 0.28054
0.835106 0.0627277 0 0.287435
0.151552 0.823889 0 0.172337
0.797951 0.255069 -1.54074e-33 0.269386
0.835106 0.0686863 3.46945e-18 0.287244
0.756814 0.360265 -3.46945e-18 0.254957
0.412065 0.730005 0 0.189537
0.835106 0.0748612 0 0.287002
0.822721 0.16418 7.70372e-34 0.280029
0.835106 0.0812603 0 0.286724
0.835106 0.0878917 -3.46945e-18 0.286427
0.715676 0.440544 0 0.242712
0.835106 0.094764 0 0.286111
0.797951 0.264688 -1.2326e-32 0.268784
0.835106 0.101886 -3.46945e-18 0.285774
0.835106 0.109266 3.46945e-18 0.285414
0.288433 0.791472 0 0.178337
0.835106 0.116914 0 0.285032
0.67013 0.51269 3.46945e-18 0.230735
0.797951 0.274657 6.16298e-33 0.268146
0.075776 0.840686 -3.46945e-18 0.170288
0.835106 0.12484 0 0.284626
0.797951 0.27798 -3.08149e-33 0.267934
0.624584 0.569849 0 0.220759
0.756813 0.377026 -3.46945e-18 0.253793
0.835106 0.133054 3.46945e-18 0.284195
0.835106 0.141565 3.46945e-18 0.283738
0.835106 0.150386 0 0.283254
0.797951 0.291753 0 0.267033
0.835106 0.159528 3.46945e-18 0.282741
0.715676 0.46022 0 0.241258
0.816529 0.239487 -1.54074e-33 0.274224
0.350249 0.775831 3.46945e-18 0.182216