# pMean  POINT_DATA 63140
# x  y  z  pMean
0 0.1 0 0.222055
0 0.1 -0.0179898 0.222075
0 0.1 0.0179898 0.222037
0.0363518 0.1 0.0179898 0.222037
0.0363518 0.1 -0.0179898 0.222075
0 0.1 -0.0570102 0.221957
0 0.1 0.0570102 0.221839
0.0363518 0.1 0.0570102 0.221839
0.0363518 0.1 -0.0570102 0.221957
0 0.1 -0.075 0.221827
0 0.1 0.075 0.221673
0.075776 0.1 -0.0375 0.222099
0.075776 0.1 0.0375 0.222021
0 0.1 -0.0929898 0.2217
0 0.1 0.0929898 0.22151
0.0363518 0.1 -0.0929898 0.2217
0.0363518 0.1 0.0929898 0.22151
0 0.1 -0.13201 0.221262
0 0.1 0.13201 0.220996
0.075776 0.1 -0.1125 0.221565
0.075776 0.1 0.1125 0.221335
0.0363518 0.1 -0.13201 0.221262
0.0363518 0.1 0.13201 0.220996
0 0.1 -0.15 0.220986
0 0.1 0.15 0.220687
0.150379 0.1 -2.22623e-17 0.214293
0 0.1 -0.16799 0.220713
0 0.1 0.16799 0.22038
0.150379 0.1 -0.075 0.214017
0.150379 0.1 0.075 0.213865
0.0363518 0.1 -0.16799 0.220713
0.0363518 0.1 0.16799 0.22038
0.075776 0.1 -0.1875 0.220418
0.075776 0.1 0.1875 0.220049
0 0.1 -0.20701 0.219935
0 0.1 0.20701 0.219533
0.0363518 0.1 -0.20701 0.219935
0.0363518 0.1 0.20701 0.219533
0.150379 0.1 -0.15 0.213019
0.150379 0.1 0.15 0.212723
0.219993 0.1 -0.0375 0.206923
0.219993 0.1 0.0375 0.20685
0 0.1 -0.225 0.219495
0 0.1 0.225 0.21906
0 0.1 -0.24299 0.219057
0 0.1 0.24299 0.218591
0.0363518 0.1 0.24299 0.218591
0.0363518 0.1 -0.24299 0.219057
0.219993 0.1 -0.1125 0.206207
0.219993 0.1 0.1125 0.205979
0.150379 0.1 -0.225 0.211283
0.150379 0.1 0.225 0.210851
0.075776 0.1 -0.2625 0.218583
0.075776 0.1 0.2625 0.218082
0 0.1 -0.28201 0.217926
0 0.1 0.28201 0.217392
0.0363518 0.1 -0.28201 0.217926
0.0363518 0.1 0.28201 0.217392
0.287374 0.1 -2.89121e-19 0.210305
0.219992 0.1 0.1875 0.204267
0.219992 0.1 -0.1875 0.204625
0.287374 0.1 -0.075 0.209989
0.287374 0.1 0.075 0.209832
0 0.1 -0.3 0.217324
0 0.1 0.3 0.216759
0 0.1 0.31799 0.216128
0 0.1 -0.31799 0.216724
0.0363518 0.1 -0.31799 0.216724
0.0363518 0.1 0.31799 0.216128
0.287374 0.1 0.15 0.208552
0.287374 0.1 -0.15 0.208859
0.150379 0.1 -0.3 0.208853
0.150379 0.1 0.3 0.208285
0.219993 0.1 0.2625 0.201766
0.219993 0.1 -0.2625 0.202267
0.075776 0.1 -0.3375 0.216075
0.075776 0.1 0.3375 0.215446
0.350249 0.1 -0.0375 0.213616
0.350249 0.1 0.0375 0.213534
0 0.1 -0.35701 0.215257
0 0.1 0.35701 0.214595
0.0363518 0.1 -0.35701 0.215257
0.0363518 0.1 0.35701 0.214595
0.287374 0.1 -0.225 0.206925
0.287374 0.1 0.225 0.206473
0.350249 0.1 -0.1125 0.212912
0.350249 0.1 0.1125 0.212669
0 0.1 -0.375 0.214506
0 0.1 0.375 0.213814
0 0.1 -0.39299 0.213757
0 0.1 0.39299 0.213034
0.0363518 0.1 -0.39299 0.213757
0.0363518 0.1 0.39299 0.213034
0.350249 0.1 -0.1875 0.211394
0.350249 0.1 0.1875 0.210996
0.219992 0.1 -0.3375 0.199272
0.219992 0.1 0.3375 0.19863
0.150379 0.1 0.375 0.205095
0.150379 0.1 -0.375 0.205796
0.411108 0.1 4.33681e-19 0.219199
0.287374 0.1 -0.3 0.204259
0.287374 0.1 0.3 0.203663
0.411108 0.1 -0.075 0.21884
0.411108 0.1 0.075 0.218672
0.075776 0.1 -0.4125 0.212946
0.075776 0.1 0.4125 0.21219
0 0.1 0.43201 0.21119
0 0.1 -0.43201 0.211976
0.0363518 0.1 0.43201 0.21119
0.0363518 0.1 -0.43201 0.211976
0.411108 0.1 -0.15 0.217596
0.411108 0.1 0.15 0.217262
0.350249 0.1 -0.2625 0.209111
0.350249 0.1 0.2625 0.208562
0 0.1 -0.45 0.211085
0 0.1 0.45 0.210271
0.219992 0.1 0.4125 0.194921
0.219992 0.1 -0.4125 0.195697
0 0.1 -0.46799 0.210196
0 0.1 0.46799 0.209354
0.411108 0.1 -0.225 0.215493
0.411108 0.1 0.225 0.214996
0.467897 0.1 -0.0375 0.224636
0.467897 0.1 0.0375 0.224548
0.0363518 0.1 0.46799 0.209354
0.0363518 0.1 -0.46799 0.210196
0.287374 0.1 -0.375 0.200926
0.287374 0.1 0.375 0.200192
0.150379 0.1 0.45 0.201337
0.150379 0.1 -0.45 0.202164
0.467897 0.1 0.1125 0.223478
0.467897 0.1 -0.1125 0.223739
0.350249 0.1 -0.3375 0.206083
0.350249 0.1 0.3375 0.205392
0.075776 0.1 -0.4875 0.209233
0.075776 0.1 0.4875 0.208361
0.467897 0.1 0.1875 0.221461
0.467897 0.1 -0.1875 0.221894
0 0.1 -0.50701 0.208124
0 0.1 0.50701 0.207224
0.0363518 0.1 -0.50701 0.208124
0.0363518 0.1 0.50701 0.207224
0.411108 0.1 0.3 0.211919
0.411108 0.1 -0.3 0.212572
0.522865 0.1 1.41031e-17 0.231275
0 0.1 -0.525 0.207106
0 0.1 0.525 0.20618
0.522865 0.1 -0.075 0.23084
0.522865 0.1 0.075 0.230655
0.287374 0.1 0.45 0.196114
0.287374 0.1 -0.45 0.196977
0.219992 0.1 0.4875 0.190702
0.219992 0.1 -0.4875 0.191604
0.467897 0.1 -0.2625 0.219144
0.467897 0.1 0.2625 0.21854
0.350249 0.1 -0.4125 0.202352
0.350249 0.1 0.4125 0.201528
0 0.1 -0.54299 0.206089
0 0.1 0.54299 0.205137
0.522865 0.1 0.15 0.228998
0.522865 0.1 -0.15 0.229365
0.0363518 0.1 0.54299 0.205137
0.0363518 0.1 -0.54299 0.206089
0.150379 0.1 -0.525 0.198018
0.150379 0.1 0.525 0.197075
0.411108 0.1 -0.375 0.208878
0.411108 0.1 0.375 0.20808
0.075776 0.1 -0.5625 0.204988
0.075776 0.1 0.5625 0.204007
0.522865 0.1 -0.225 0.226889
0.522865 0.1 0.225 0.226343
0.574156 0.1 0.0375 0.237652
0.574157 0.1 -0.0375 0.237751
0.467897 0.1 -0.3375 0.215541
0.467897 0.1 0.3375 0.214779
0 0.1 -0.58201 0.203758
0 0.1 0.58201 0.202751
0.0363518 0.1 -0.58201 0.203758
0.0363518 0.1 0.58201 0.202751
0.574157 0.1 -0.1125 0.236723
0.574157 0.1 0.1125 0.236434
0.287374 0.1 -0.525 0.192489
0.287374 0.1 0.525 0.191504
0 0.1 -0.6 0.202627
0 0.1 0.6 0.201596
0.350249 0.1 0.4875 0.197019
0.350249 0.1 -0.4875 0.197968
0.522865 0.1 -0.3 0.223463
0.522865 0.1 0.3 0.222747
0.219992 0.1 -0.5625 0.187085
0.219992 0.1 0.5625 0.186069
0.574156 0.1 -0.1875 0.234601
0.574156 0.1 0.1875 0.234117
0.411108 0.1 0.45 0.203538
0.411108 0.1 -0.45 0.204472
0 0.1 -0.61799 0.201497
0 0.1 0.61799 0.200443
0.150379 0.1 -0.6 0.193413
0.150379 0.1 0.6 0.192363
0.0363518 0.1 -0.61799 0.201497
0.0363518 0.1 0.61799 0.200443
0.467897 0.1 -0.4125 0.211154
0.467897 0.1 0.4125 0.210244
0.623803 0.1 2.34188e-17 0.245301
0.623803 0.1 0.075 0.244592
0.623803 0.1 -0.075 0.244798
0.574156 0.1 0.2625 0.230766
0.574156 0.1 -0.2625 0.231427
0.623803 0.1 0.15 0.242686
0.623803 0.1 -0.15 0.243095
0.075776 0.1 0.6375 0.199194
0.075776 0.1 -0.6375 0.200274
0.522865 0.1 -0.375 0.219158
0.522865 0.1 0.375 0.218281
0 0.1 0.65701 0.197834
0 0.1 -0.65701 0.198939
0.0363518 0.1 0.65701 0.197834
0.0363518 0.1 -0.65701 0.198939
0.350249 0.1 0.5625 0.191954
0.350249 0.1 -0.5625 0.193025
0.623803 0.1 0.225 0.239628
0.623803 0.1 -0.225 0.240232
0.287374 0.1 -0.6 0.187529
0.287374 0.1 0.6 0.186432
0.574157 0.1 -0.3375 0.227272
0.574157 0.1 0.3375 0.226437
0.411108 0.1 0.525 0.198369
0.411108 0.1 -0.525 0.199432
0.67013 0.1 0.0375 0.252577
0.67013 0.1 -0.0375 0.252685
0.219992 0.1 -0.6375 0.182153
0.219993 0.1 0.6375 0.181035
0 0.1 -0.675 0.197711
0 0.1 0.675 0.196583
0.467897 0.1 -0.4875 0.206062
0.467897 0.1 0.4875 0.205012
0.67013 0.1 -0.1125 0.251495
0.67013 0.1 0.1125 0.251169
0.522865 0.1 0.45 0.213029
0.522865 0.1 -0.45 0.214054
0.150379 0.1 0.675 0.187248
0.150379 0.1 -0.675 0.188396
0.623803 0.1 0.3 0.235481
0.623803 0.1 -0.3 0.236272
0 0.1 -0.69299 0.196483
0 0.1 0.69299 0.195334
0.0363518 0.1 -0.69299 0.196483
0.0363518 0.1 0.69299 0.195334
0.67013 0.1 -0.1875 0.249031
0.67013 0.1 0.1875 0.248495
0.574156 0.1 0.4125 0.221223
0.574157 0.1 -0.4125 0.222219
0.714971 0.1 -2.8382e-17 0.26087
0.075776 0.1 -0.7125 0.195155
0.075776 0.1 0.7125 0.193981
0.714971 0.1 -0.075 0.260283
0.714971 0.1 0.075 0.260053
0.67013 0.1 0.2625 0.24462
0.67013 0.1 -0.2625 0.245356
0.411108 0.1 -0.6 0.193841
0.411108 0.1 0.6 0.192662
0.350249 0.1 0.6375 0.186421
0.350249 0.1 -0.6375 0.1876
0.623803 0.1 0.375 0.230332
0.623803 0.1 -0.375 0.231297
0.714971 0.1 -0.15 0.258308
0.714971 0.1 0.15 0.257851
0.467897 0.1 -0.5625 0.200349
0.467897 0.1 0.5625 0.199172
0 0.1 -0.73201 0.19373
0 0.1 0.73201 0.192535
0.0363518 0.1 0.73201 0.192535
0.0363518 0.1 -0.73201 0.19373
0.287374 0.1 -0.675 0.182152
0.287374 0.1 0.675 0.180955
0.522865 0.1 -0.525 0.208244
0.522865 0.1 0.525 0.207085
0.219993 0.1 -0.7125 0.176861
0.219992 0.1 0.7125 0.175643
0.714971 0.1 -0.225 0.254988
0.714971 0.1 0.225 0.254315
0 0.1 0.75 0.191205
0 0.1 -0.75 0.19242
0.67013 0.1 -0.3375 0.240538
0.67013 0.1 0.3375 0.239613
0.574156 0.1 -0.4875 0.216363
0.574157 0.1 0.4875 0.215224
0.756813 0.1 0.0375 0.268778
0.756814 0.1 -0.0375 0.2689
0.150379 0.1 0.746002 0.182217
0.150379 0.1 -0.75 0.183026
0.756813 0.1 -0.1125 0.267515
0.756813 0.1 0.1125 0.267152
0 0.1 0.76799 0.189875
0 0.1 -0.76799 0.19111
0.0363518 0.1 0.76799 0.189875
0.0363518 0.1 -0.76799 0.19111
0.623803 0.1 -0.45 0.225413
0.623803 0.1 0.45 0.22429
0.714971 0.1 -0.3 0.250402
0.714971 0.1 0.3 0.249526
0.756814 0.1 -0.1875 0.264663
0.756814 0.1 0.1875 0.264061
0.67013 0.1 -0.4125 0.234692
0.67013 0.1 0.4125 0.23359
0.411108 0.1 0.675 0.186504
0.411108 0.1 -0.675 0.187786
0.467897 0.1 0.6375 0.192815
0.467897 0.1 -0.6375 0.194101
0.075776 0.1 0.7875 0.188436
0.075776 0.1 -0.7875 0.189692
0.350249 0.1 -0.7125 0.181764
0.350249 0.1 0.7125 0.180493
0.522865 0.1 -0.6 0.201829
0.522865 0.1 0.6 0.200548
0.797314 0.1 -3.59473e-17 0.27748
0.287374 0.1 0.746002 0.175373
0.797314 0.1 -0.075 0.276801
0.797314 0.1 0.075 0.276542
0.756814 0.1 -0.2625 0.260389
0.756814 0.1 0.2625 0.259574
0.287374 0.1 -0.75 0.176424
0.574156 0.1 -0.5625 0.209818
0.574156 0.1 0.5625 0.208548
0 0.1 0.80701 0.18692
0 0.1 -0.80701 0.188195
0.714971 0.1 -0.375 0.244655
0.714971 0.1 0.375 0.24359
0.0363518 0.1 0.80701 0.18692
0.0363518 0.1 -0.80701 0.188195
0.797314 0.1 -0.15 0.274524
0.797314 0.1 0.15 0.274012
0.623803 0.1 -0.525 0.218738
0.623803 0.1 0.525 0.217474
0.219992 0.1 0.7875 0.169962
0.219992 0.1 -0.7875 0.171263
0.149792 0.1 0.80701 0.177477
0 0.1 0.825 0.185526
0 0.1 -0.825 0.186819
0.797314 0.1 -0.225 0.270697
0.797314 0.1 0.225 0.269948
0.756813 0.1 -0.3375 0.254836
0.756813 0.1 0.3375 0.25381
0.67013 0.1 0.4875 0.226692
0.67013 0.1 -0.4875 0.227943
0.835106 0.1 -0.0375 0.285931
0.835106 0.1 0.0375 0.285795
0.150379 0.1 -0.825 0.177366
0.835106 0.1 -0.1125 0.284346
0.835106 0.1 0.1125 0.283933
0 0.1 -0.84299 0.185443
0 0.1 0.84299 0.184132
0.0363518 0.1 -0.84299 0.185443
0.0363518 0.1 0.84299 0.184132
0.714971 0.1 -0.45 0.237869
0.714971 0.1 0.45 0.236635
0.411108 0.1 0.746002 0.180246
0.797314 0.1 -0.3 0.265422
0.797314 0.1 0.3 0.26445
0.467897 0.1 -0.7125 0.187424
0.467897 0.1 0.7125 0.186037
0.522865 0.1 0.675 0.193525
0.522865 0.1 -0.675 0.194912
0.411108 0.1 -0.75 0.181353
0.835106 0.1 -0.1875 0.281066
0.835107 0.1 0.1875 0.280401
0.286844 0.1 0.80701 0.170532
0.574156 0.1 0.6375 0.201309
0.574157 0.1 -0.6375 0.202694
0.350249 0.1 -0.7875 0.175603
0.350249 0.1 0.7875 0.174248
0.756813 0.1 -0.4125 0.248092
0.756814 0.1 0.4125 0.246888
0.623803 0.1 -0.6 0.211394
0.623803 0.1 0.6 0.210005
0.075776 0.1 0.8625 0.182623
0.075776 0.1 -0.8625 0.183953
0.871687 0.1 -3.2767e-18 0.294666
0.287374 0.1 -0.825 0.170415
0.871687 0.1 -0.075 0.293887
0.871687 0.1 0.075 0.293596
0.67013 0.1 -0.5625 0.220424
0.67013 0.1 0.5625 0.219035
0.835106 0.1 0.2625 0.275273
0.835106 0.1 -0.2625 0.27618
0.797314 0.1 -0.375 0.258824
0.797314 0.1 0.375 0.257647
0 0.1 -0.88201 0.182402
0 0.1 0.88201 0.181055
0.0363518 0.1 0.88201 0.181055
0.0363518 0.1 -0.88201 0.182402
0.871687 0.1 0.15 0.290705
0.871687 0.1 -0.15 0.291279
0.714971 0.1 0.525 0.228807
0.714971 0.1 -0.525 0.230191
0.219993 0.1 0.8625 0.164047
0.219992 0.1 -0.8625 0.165427
0 0.1 0.9 0.179612
0 0.1 -0.9 0.180974
0.756813 0.1 0.4875 0.238946
0.756814 0.1 -0.4875 0.240318
0.871687 0.1 0.225 0.286066
0.871687 0.1 -0.225 0.286905
0.835106 0.1 -0.3375 0.269815
0.835106 0.1 0.3375 0.268682
0.41063 0.1 0.80701 0.174831
0.90582 0.1 -0.0375 0.303309
0.905821 0.1 0.0375 0.303156
0.522865 0.1 0.746002 0.186408
0.150379 0.1 0.9 0.170089
0.90582 0.1 0.1125 0.301033
0.905821 0.1 -0.1125 0.301494
0.522865 0.1 -0.75 0.187601
0.574156 0.1 0.7125 0.193626
0.574156 0.1 -0.7125 0.195109
0.797314 0.1 -0.45 0.251046
0.797314 0.1 0.45 0.249684
0.467897 0.1 -0.7875 0.180403
0.467897 0.1 0.7875 0.178933
0.150379 0.1 -0.903998 0.171862
0 0.1 0.91799 0.178169
0 0.1 -0.91799 0.179547
0.0363518 0.1 0.91799 0.178169
0.0363518 0.1 -0.91799 0.179547
0.623803 0.1 0.675 0.202014
0.623803 0.1 -0.675 0.203512
0.411108 0.1 -0.825 0.174628
0.871687 0.1 0.3 0.279792
0.871687 0.1 -0.3 0.280879
0.67013 0.1 -0.6375 0.212274
0.67013 0.1 0.6375 0.210766
0.90582 0.1 -0.1875 0.29775
0.90582 0.1 0.1875 0.296997
0.350249 0.1 0.8625 0.167759
0.350249 0.1 -0.8625 0.169188
0.835106 0.1 -0.4125 0.262112
0.835106 0.1 0.4125 0.260773
0.714971 0.1 -0.6 0.221778
0.714971 0.1 0.6 0.220261
0.93886 0.1 -1.15648e-17 0.311873
0.075776 0.1 0.9375 0.176607
0.075776 0.1 -0.9375 0.178002
0.93886 0.1 0.075 0.310669
0.93886 0.1 -0.075 0.310999
0.756813 0.1 0.5625 0.230166
0.756814 0.1 -0.5625 0.231686
0.905821 0.1 -0.2625 0.292182
0.905821 0.1 0.2625 0.291153
0.287374 0.1 0.9 0.162754
0.287374 0.1 -0.903998 0.164845
0.871687 0.1 0.375 0.272037
0.871687 0.1 -0.375 0.273346
0.93886 0.1 -0.15 0.308067
0.93886 0.1 0.15 0.307414
0.797314 0.1 0.525 0.240746
0.797314 0.1 -0.525 0.242272
0 0.1 0.95701 0.175002
0 0.1 -0.95701 0.176411
0.0363518 0.1 0.95701 0.175002
0.0363518 0.1 -0.95701 0.176411
0.522433 0.1 0.80701 0.180302
0.219992 0.1 0.9375 0.157957
0.219992 0.1 -0.9375 0.1594
0.93886 0.1 0.225 0.302195
0.93886 0.1 -0.225 0.303152
0.90582 0.1 0.3375 0.283641
0.905821 0.1 -0.3375 0.284916
0.835106 0.1 -0.4875 0.253255
0.835107 0.1 0.4875 0.251726
0.969689 0.1 -0.0375 0.320398
0.969689 0.1 0.0375 0.32022
0.61613 0.1 0.75 0.193631
0.574156 0.1 -0.7875 0.187185
0.574156 0.1 0.7875 0.185614
0 0.1 0.975 0.173525
0 0.1 -0.975 0.174947
0.623803 0.1 -0.75 0.195223
0.969689 0.1 -0.1125 0.318387
0.969689 0.1 0.1125 0.317858
0.522865 0.1 -0.825 0.179999
0.67013 0.1 0.7125 0.20203
0.67013 0.1 -0.7125 0.203641
0.871687 0.1 -0.45 0.264489
0.871687 0.1 0.45 0.262984
0.467897 0.1 0.8625 0.171592
0.467897 0.1 -0.8625 0.173137
0.714971 0.1 -0.675 0.212788
0.714971 0.1 0.675 0.211158
0.93886 0.1 -0.3 0.296372
0.93886 0.1 0.3 0.295143
0.150379 0.1 0.975 0.163971
0.150379 0.1 -0.975 0.165418
0.969689 0.1 -0.1875 0.314234
0.969689 0.1 0.1875 0.313369
0.411108 0.1 0.9 0.166174
0.756813 0.1 0.6375 0.220727
0.756814 0.1 -0.6375 0.222372
0.990306 0.1 -2.19732e-17 0.325124
0 0.1 0.99299 0.172048
0 0.1 -0.99299 0.173484
0.411108 0.1 -0.903998 0.168416
0.990306 0.1 -0.075 0.324169
0.990306 0.1 0.075 0.323802
0.0363518 0.1 0.99299 0.172048
0.0363518 0.1 -0.99299 0.173484
0.90582 0.1 -0.4125 0.276145
0.905821 0.1 0.4125 0.27466
0.797314 0.1 -0.6 0.232692
0.797314 0.1 0.6 0.231029
0.350249 0.1 0.9375 0.1611
0.350249 0.1 -0.9375 0.162594
0.990306 0.1 0.15 0.320237
0.990306 0.1 -0.15 0.320961
0.969689 0.1 -0.2625 0.308053
0.969689 0.1 0.2625 0.306876
0.835106 0.1 -0.5625 0.243457
0.835106 0.1 0.5625 0.241776
0.93886 0.1 -0.375 0.287897
0.93886 0.1 0.375 0.286433
0.075776 0.1 1.0125 0.17045
0.075776 0.1 -1.0125 0.171899
0.990306 0.1 -0.225 0.315583
0.990306 0.1 0.225 0.314523
0.287374 0.1 0.975 0.156318
0.287374 0.1 -0.975 0.157814
0.871687 0.1 -0.525 0.254524
0.871687 0.1 0.525 0.252847
1.02149 0.1 -0.0369628 0.335047
1.02149 0.1 0.0369628 0.334856
0.969689 0.1 -0.3375 0.299965
0.969689 0.1 0.3375 0.298532
1.02149 0.1 -0.110888 0.332843
1.02149 0.1 0.110888 0.332276
0.90582 0.1 0.4875 0.264417
0.90582 0.1 -0.4875 0.266079
0.623803 0.1 0.819003 0.186702
0 0.1 1.03201 0.168822
0 0.1 -1.03201 0.170285
0.0363518 0.1 1.03201 0.168822
0.0363518 0.1 -1.03201 0.170285
0.67013 0.1 -0.7875 0.194665
0.67013 0.1 0.7875 0.192968
0.623803 0.1 -0.825 0.186652
0.990306 0.1 -0.3 0.308161
0.990306 0.1 0.3 0.306805
0.219992 0.1 -1.0125 0.153247
0.219993 0.1 1.0125 0.151748
0.574156 0.1 0.8625 0.177384
0.574157 0.1 -0.8625 0.179025
0.714971 0.1 -0.75 0.203379
0.714971 0.1 0.75 0.201655
1.02149 0.1 0.184814 0.32737
1.02149 0.1 -0.184814 0.328299
0.756814 0.1 -0.7125 0.212546
0.756814 0.1 0.7125 0.210796
0.522865 0.1 0.9 0.170583
0.93886 0.1 -0.45 0.277951
0.93886 0.1 0.45 0.276274
1.04168 0.1 0 0.341064
1.04168 0.1 -0.0729162 0.340071
1.04168 0.1 0.0729162 0.339666
0.522865 0.1 -0.903998 0.173034
0.797314 0.1 -0.675 0.222495
0.797314 0.1 0.675 0.220719
0.467897 0.1 0.9375 0.164102
0.467897 0.1 -0.9375 0.165712
0 0.1 1.05 0.167326
0 0.1 -1.05 0.168799
0.835106 0.1 -0.6375 0.232915
0.835106 0.1 0.6375 0.231114
1.04168 0.1 -0.145832 0.336711
1.04168 0.1 0.145832 0.335911
1.02149 0.1 -0.25874 0.32153
1.02149 0.1 0.25874 0.320268
0.969689 0.1 -0.4125 0.290211
0.969689 0.1 0.4125 0.288551
0.411108 0.1 0.975 0.159048
0.411108 0.1 -0.975 0.160626
0.871687 0.1 -0.6 0.243673
0.871687 0.1 0.6 0.241855
1.0579 0.1 -0.0360525 0.345936
1.0579 0.1 0.0360525 0.345746
0.990306 0.1 -0.375 0.298889
0.990306 0.1 0.375 0.297276
0.150379 0.1 1.05 0.157749
0.150379 0.1 -1.05 0.159247
1.0579 0.1 0.108157 0.343184
1.0579 0.1 -0.108157 0.343749
1.04168 0.1 -0.218749 0.331063
1.04168 0.1 0.218749 0.329891
0.90582 0.1 -0.5625 0.254975
0.90582 0.1 0.5625 0.253145
0 0.1 -1.06799 0.167314
0 0.1 1.06799 0.165829
0.0363518 0.1 -1.06799 0.167314
0.0363518 0.1 1.06799 0.165829
0.350249 0.1 1.0125 0.154339
0.350249 0.1 -1.0125 0.155883
1.0579 0.1 -0.180262 0.339234
1.0579 0.1 0.180262 0.338309
1.02149 0.1 -0.332665 0.312692
1.02149 0.1 0.332665 0.311145
0.93886 0.1 -0.525 0.266787
0.93886 0.1 0.525 0.264922
1.08012 0.1 5.49329e-18 0.352605
1.04168 0.1 -0.291665 0.323258
1.04168 0.1 0.291665 0.321755
1.08012 0.1 0.0709941 0.351208
1.08012 0.1 -0.0709941 0.351623
0.969689 0.1 -0.4875 0.279044
0.96969 0.1 0.4875 0.277148
1.0579 0.1 0.252367 0.331238
1.0579 0.1 -0.252367 0.332496
0.990306 0.1 -0.45 0.288016
0.990306 0.1 0.45 0.286173
0.287374 0.1 -1.05 0.151345
0.287374 0.1 1.05 0.149799
0.714971 0.1 0.821002 0.192658
1.08012 0.1 -0.141988 0.348282
1.08012 0.1 0.141988 0.347464
0.075776 0.1 1.0875 0.164209
0.075776 0.1 -1.0875 0.165707
0.714971 0.1 -0.825 0.193707
0.756813 0.1 -0.7875 0.202388
0.756814 0.1 0.7875 0.200552
0.67013 0.1 -0.8625 0.185478
0.67013 0.1 0.8625 0.183716
0.797314 0.1 -0.75 0.211877
0.797314 0.1 0.75 0.210007
0.623803 0.1 0.9 0.176188
0.835106 0.1 -0.7125 0.221847
0.835106 0.1 0.7125 0.219944
0.623803 0.1 -0.903998 0.178841
0.574156 0.1 0.9375 0.169044
0.574156 0.1 -0.9375 0.170748
1.02149 0.1 -0.406591 0.302044
1.02149 0.1 0.406591 0.300235
1.08012 0.1 -0.212982 0.342655
1.08012 0.1 0.212982 0.341457
1.10076 0.1 -0.0349809 0.359213
1.10076 0.1 0.0349809 0.358984
0.871687 0.1 -0.675 0.232162
0.871687 0.1 0.675 0.230233
1.04168 0.1 -0.364581 0.313495
1.04168 0.1 0.364581 0.311701
1.10076 0.1 -0.104943 0.357055
1.10076 0.1 0.104943 0.356375
0.522865 0.1 0.975 0.162637
0.522865 0.1 -0.975 0.16432
1.0579 0.1 -0.324472 0.323682
1.0579 0.1 0.324472 0.322139
0 0.1 -1.10701 0.164082
0 0.1 1.10701 0.162574
0.0363518 0.1 1.10701 0.162574
0.0363518 0.1 -1.10701 0.164082
0.90582 0.1 0.6375 0.241096
0.905821 0.1 -0.6375 0.243053
0.219992 0.1 1.0875 0.145472
0.219992 0.1 -1.0875 0.147016
0.93886 0.1 0.6 0.252655
0.93886 0.1 -0.6 0.254658
1.10076 0.1 -0.174905 0.352554
1.10076 0.1 0.174905 0.351439
0.467897 0.1 1.0125 0.156541
0.467897 0.1 -1.0125 0.158199
1.08012 0.1 -0.283976 0.334862
1.08012 0.1 0.283976 0.333323
1.11928 0.1 3.93204e-18 0.36443
0.990306 0.1 -0.525 0.275821
0.990306 0.1 0.525 0.273787
0.96969 0.1 -0.5625 0.266751
0.969689 0.1 0.5625 0.264686
1.11928 0.1 -0.0690357 0.363463
1.11928 0.1 0.0690357 0.363002
0 0.1 1.125 0.16107
0 0.1 -1.125 0.162588
0.411108 0.1 -1.05 0.153495
0.411108 0.1 1.05 0.151869
1.10076 0.1 0.244866 0.344287
1.10076 0.1 -0.244866 0.345802
1.11928 0.1 -0.138072 0.36012
1.11928 0.1 0.138072 0.35921
1.02149 0.1 0.480517 0.287825
1.02149 0.1 -0.480517 0.289823
1.0579 0.1 -0.396577 0.313022
1.0579 0.1 0.396577 0.311231
1.04168 0.1 -0.437497 0.302013
1.04168 0.1 0.437497 0.299982
0.150379 0.1 1.125 0.151477
0.150379 0.1 -1.125 0.153017
0.714971 0.1 0.88201 0.185957
1.08012 0.1 0.354971 0.323251
1.08012 0.1 -0.354971 0.325083
1.11928 0.1 -0.207107 0.354467
1.11928 0.1 0.207107 0.353134
0.350249 0.1 -1.0875 0.149127
0.350249 0.1 1.0875 0.147533
0 0.1 1.14299 0.159566
0 0.1 -1.14299 0.161094
0.0363518 0.1 1.14299 0.159566
0.0363518 0.1 -1.14299 0.161094
1.14316 0.1 -0.0339211 0.372015
1.14316 0.1 0.0339211 0.371792
0.797314 0.1 0.821002 0.199518
1.10076 0.1 -0.314829 0.336937
1.10076 0.1 0.314829 0.335072
0.797314 0.1 -0.825 0.201016
0.756814 0.1 -0.8625 0.19206
0.756814 0.1 0.8625 0.190156
1.14316 0.1 -0.101763 0.369833
1.14316 0.1 0.101763 0.369169
0.835106 0.1 -0.7875 0.210465
0.835106 0.1 0.7875 0.208476
0.871687 0.1 -0.75 0.220232
0.871687 0.1 0.75 0.21821
0.67013 0.1 0.9375 0.174397
0.67013 0.1 -0.9375 0.176217
0.90582 0.1 -0.7125 0.230579
0.905821 0.1 0.7125 0.228525
0.714971 0.1 -0.903998 0.184938
1.11928 0.1 0.276143 0.344903
1.11928 0.1 -0.276143 0.346617
1.14316 0.1 0.169605 0.364202
1.14316 0.1 -0.169605 0.365288
0.93886 0.1 -0.675 0.241827
0.93886 0.1 0.675 0.239721
1.15704 0.1 0 0.376019
1.0579 0.1 0.468682 0.298774
1.0579 0.1 -0.468682 0.300748
0.623803 0.1 0.975 0.167352
0.623803 0.1 -0.975 0.169139
0.990306 0.1 0.6 0.260427
0.990306 0.1 -0.6 0.262593
1.15704 0.1 -0.0671479 0.375072
1.15704 0.1 0.0671479 0.374559
1.04168 0.1 -0.510414 0.289088
1.04168 0.1 0.510414 0.286883
0.969689 0.1 -0.6375 0.253586
0.969689 0.1 0.6375 0.251429
1.08012 0.1 0.425965 0.311473
1.08012 0.1 -0.425965 0.313539
0.287374 0.1 -1.125 0.144836
0.287374 0.1 1.125 0.14325
1.02149 0.1 -0.554443 0.276351
1.02149 0.1 0.554443 0.274211
0.574156 0.1 1.0125 0.160683
0.574156 0.1 -1.0125 0.162441
1.15704 0.1 -0.134296 0.371734
1.15704 0.1 0.134296 0.370722
0.075776 0.1 1.1625 0.157938
0.075776 0.1 -1.1625 0.159477
1.10076 0.1 -0.384791 0.326163
1.10076 0.1 0.384791 0.324003
1.14316 0.1 -0.237448 0.358464
1.14316 0.1 0.237448 0.356989
1.11928 0.1 -0.345179 0.336736
1.11928 0.1 0.345179 0.334694
0.522865 0.1 1.05 0.154685
0.522865 0.1 -1.05 0.156415
1.15704 0.1 -0.201444 0.366067
1.15704 0.1 0.201444 0.364584
1.1744 0.1 -0.0331401 0.381365
1.1744 0.1 0.0331401 0.3811
1.1744 0.1 -0.0994202 0.379218
1.1744 0.1 0.0994202 0.37843
0 0.1 1.18201 0.156309
0 0.1 -1.18201 0.157857
0.0363518 0.1 1.18201 0.156309
0.0363518 0.1 -1.18201 0.157857
0.219992 0.1 1.1625 0.139172
0.219993 0.1 -1.1625 0.140752
1.14316 0.1 0.30529 0.347678
1.14316 0.1 -0.30529 0.349497
0.467897 0.1 1.0875 0.148984
0.467897 0.1 -1.0875 0.150688
1.1744 0.1 -0.1657 0.3747
1.1744 0.1 0.1657 0.373407
1.15704 0.1 -0.268592 0.358177
1.15704 0.1 0.268592 0.356267
1.0579 0.1 0.540787 0.285063
1.0579 0.1 -0.540787 0.287172
0.796996 0.1 0.88201 0.190709
1.08012 0.1 -0.496959 0.300499
1.08012 0.1 0.496959 0.298257
1.10076 0.1 0.454752 0.311325
1.10076 0.1 -0.454752 0.313705
1.11928 0.1 -0.414214 0.325035
1.11928 0.1 0.414214 0.322734
1.04168 0.1 -0.58333 0.275034
1.04168 0.1 0.58333 0.272696
1.1744 0.1 -0.231981 0.367887
1.1744 0.1 0.231981 0.36613
0.871687 0.1 0.821002 0.206516
0.411108 0.1 1.125 0.144701
0.411108 0.1 -1.125 0.146366
1.19808 0.1 1.73472e-17 0.388689
0.990306 0.1 0.675 0.246373
0.990306 0.1 -0.675 0.248636
1.02149 0.1 0.628368 0.25968
1.02149 0.1 -0.628368 0.261939
1.19808 0.1 -0.0650961 0.387763
1.19808 0.1 0.0650961 0.387203
0 0.1 1.2 0.154811
0 0.1 -1.2 0.156367
0.871687 0.1 -0.825 0.2081
0.905821 0.1 -0.7875 0.217819
0.90582 0.1 0.7875 0.215681
0.835106 0.1 -0.8625 0.198926
0.835106 0.1 0.8625 0.196886
0.93886 0.1 -0.75 0.228575
0.93886 0.1 0.75 0.226387
1.14316 0.1 -0.373132 0.33857
1.14316 0.1 0.373132 0.336468
0.969689 0.1 0.7125 0.237602
0.969689 0.1 -0.7125 0.239851
1.15704 0.1 -0.33574 0.34822
1.15704 0.1 0.33574 0.34594
0.756813 0.1 0.9375 0.179751
0.756814 0.1 -0.9375 0.181708
1.19808 0.1 0.130192 0.383337
1.19808 0.1 -0.130192 0.384443
0.797314 0.1 -0.903998 0.191217
0.714971 0.1 0.975 0.172218
0.714971 0.1 -0.975 0.174126
0.150379 0.1 1.2 0.145198
0.150379 0.1 -1.2 0.146776
1.20938 0.1 -0.0322656 0.391984
1.20938 0.1 0.0322656 0.391695
1.1744 0.1 -0.298261 0.358911
1.1744 0.1 0.298261 0.356738
1.20938 0.1 -0.0967968 0.389856
1.20938 0.1 0.0967968 0.389
1.19808 0.1 -0.195288 0.378785
1.19808 0.1 0.195288 0.377162
0.350249 0.1 1.1625 0.14074
0.350249 0.1 -1.1625 0.142366
0.67013 0.1 1.0125 0.165109
0.67013 0.1 -1.0125 0.166971
0 0.1 1.21799 0.153312
0 0.1 -1.21799 0.154877
0.0363518 0.1 -1.21799 0.154877
0.0363518 0.1 1.21799 0.153312
1.11928 0.1 -0.48325 0.31177
1.11928 0.1 0.48325 0.309275
1.10076 0.1 -0.524714 0.299865
1.10076 0.1 0.524714 0.29731
1.20938 0.1 0.161328 0.383949
1.20938 0.1 -0.161328 0.385354
1.08012 0.1 0.567953 0.283908
1.08012 0.1 -0.567953 0.286275
0.623803 0.1 1.05 0.158569
0.623803 0.1 -1.05 0.1604
1.0579 0.1 -0.612892 0.272601
1.0579 0.1 0.612892 0.270392
1.15704 0.1 -0.402888 0.336395
1.15704 0.1 0.402888 0.333825
1.14316 0.1 0.440974 0.323603
1.14316 0.1 -0.440974 0.325906
1.19808 0.1 -0.260384 0.370888
1.19808 0.1 0.260384 0.368794
1.2267 0.1 3.57064e-18 0.396962
1.2267 0.1 -0.0636649 0.396051
1.2267 0.1 0.0636649 0.39546
1.1744 0.1 -0.364541 0.34794
1.1744 0.1 0.364541 0.345419
0.574156 0.1 1.0875 0.152382
0.574156 0.1 -1.0875 0.154183
1.20938 0.1 0.225859 0.376634
1.20938 0.1 -0.225859 0.378546
1.04168 0.1 -0.656246 0.26018
1.04168 0.1 0.656246 0.257742
1.2267 0.1 -0.12733 0.392742
1.2267 0.1 0.12733 0.391574
0.287374 0.1 1.2 0.136711
0.287374 0.1 -1.2 0.138332
1.02149 0.1 -0.702294 0.246947
1.02149 0.1 0.702294 0.244606
0.075776 0.1 -1.2375 0.153264
0.075776 0.1 1.2375 0.151691
0.871399 0.1 0.88201 0.196723
0.522865 0.1 1.125 0.146799
0.522865 0.1 -1.125 0.148564
1.2267 0.1 -0.190994 0.387089
1.2267 0.1 0.190994 0.385375
1.19808 0.1 -0.32548 0.360895
1.19808 0.1 0.32548 0.358391
0.990306 0.1 -0.75 0.234274
0.990306 0.1 0.75 0.231941
1.24274 0.1 -0.0314313 0.401894
1.24274 0.1 0.0314313 0.401583
1.20938 0.1 -0.29039 0.36956
1.20938 0.1 0.29039 0.36719
1.24274 0.1 -0.0942942 0.399784
1.24274 0.1 0.0942942 0.398865
0.93886 0.1 0.821002 0.213477
1.11928 0.1 -0.552285 0.297259
1.11928 0.1 0.552285 0.294628
1.15704 0.1 -0.470036 0.322945
1.15704 0.1 0.470036 0.320165
0.969689 0.1 -0.7875 0.225841
0.96969 0.1 0.7875 0.223538
0.93886 0.1 -0.825 0.215162
0.90582 0.1 0.8625 0.202808
0.905821 0.1 -0.8625 0.205006
1.1744 0.1 -0.430821 0.335197
1.1744 0.1 0.430821 0.332423
1.10076 0.1 -0.594676 0.284968
1.10076 0.1 0.594676 0.282315
1.14316 0.1 -0.508816 0.311786
1.14316 0.1 0.508816 0.309332
1.24274 0.1 -0.157157 0.395297
1.24274 0.1 0.157157 0.393786
1.2267 0.1 -0.254659 0.379187
1.2267 0.1 0.254659 0.376974
0.467897 0.1 1.1625 0.1415
0.467897 0.1 -1.1625 0.143231
1.08012 0.1 0.638947 0.268735
1.08012 0.1 -0.638947 0.271181
1.25511 0.1 -5.78241e-19 0.405134
0.835106 0.1 -0.9375 0.187452
0.835106 0.1 0.9375 0.185358
0.871687 0.1 -0.903998 0.197201
1.25511 0.1 0.0622446 0.403637
1.25511 0.1 -0.0622446 0.404216
0.219992 0.1 1.2375 0.132878
0.219992 0.1 -1.2375 0.134494
0 0.1 -1.25701 0.151659
0 0.1 1.25701 0.150079
0.0363518 0.1 -1.25701 0.151659
0.0363518 0.1 1.25701 0.150079
0.797314 0.1 0.975 0.177189
0.797314 0.1 -0.975 0.179228
1.19808 0.1 -0.390576 0.348999
1.19808 0.1 0.390576 0.346168
1.0579 0.1 -0.684997 0.257372
1.0579 0.1 0.684997 0.255095
1.20938 0.1 -0.354921 0.358549
1.20938 0.1 0.354921 0.355796
1.25511 0.1 0.124489 0.399756
1.25511 0.1 -0.124489 0.400899
1.24274 0.1 -0.220019 0.388491
1.24274 0.1 0.220019 0.386435
0.756813 0.1 1.0125 0.169455
0.756814 0.1 -1.0125 0.171443
1.2267 0.1 -0.318324 0.369174
1.2267 0.1 0.318324 0.366525
0.411108 0.1 1.2 0.137597
0.411108 0.1 -1.2 0.139292
1.25511 0.1 -0.186734 0.395231
1.25511 0.1 0.186734 0.393555
0.714971 0.1 1.05 0.162508
0.714971 0.1 -1.05 0.164453
1.04168 0.1 -0.729162 0.244884
1.04168 0.1 0.729162 0.242383
1.24274 0.1 0.282882 0.376944
1.24274 0.1 -0.282882 0.379494
0 0.1 1.275 0.148597
0 0.1 -1.275 0.150183
1.1744 0.1 0.497102 0.317986
1.1744 0.1 -0.497102 0.320933
1.15704 0.1 -0.537184 0.30819
1.15704 0.1 0.537184 0.305258
1.2756 0.1 -0.03061 0.411542
1.2756 0.1 0.03061 0.411214
0.67013 0.1 1.0875 0.155957
0.67013 0.1 -1.0875 0.157856
1.2756 0.1 -0.09183 0.409452
1.2756 0.1 0.09183 0.408481
1.25511 0.1 -0.248978 0.387304
1.25511 0.1 0.248978 0.385142
1.20938 0.1 0.419453 0.342697
1.20938 0.1 -0.419453 0.34574
1.11928 0.1 -0.621322 0.281819
1.11928 0.1 0.621322 0.279111
1.14316 0.1 -0.576659 0.29656
1.14316 0.1 0.576659 0.294012
1.19808 0.1 -0.455673 0.335429
1.19808 0.1 0.455673 0.332365
1.02149 0.1 0.776219 0.229339
1.02149 0.1 -0.776219 0.231733
0.150379 0.1 1.275 0.138957
0.150379 0.1 -1.275 0.140564
1.2756 0.1 -0.15305 0.40498
1.2756 0.1 0.15305 0.403388
1.2267 0.1 -0.381989 0.357238
1.2267 0.1 0.381989 0.354235
1.10076 0.1 -0.664638 0.269316
1.10076 0.1 0.664638 0.266604
0.350249 0.1 1.2375 0.133995
0.350249 0.1 -1.2375 0.135653
0.623803 0.1 1.125 0.149916
0.623803 0.1 -1.125 0.151778
0.9386 0.1 0.88201 0.202711
0.990306 0.1 0.825 0.217846
0.990306 0.1 -0.825 0.219787
1.24274 0.1 -0.345745 0.36845
1.24274 0.1 0.345745 0.36548
1.2906 0.1 0 0.415585
1.07933 0.1 0.709941 0.253064
1.2906 0.1 -0.0604698 0.414722
1.2906 0.1 0.0604698 0.414036
1.08012 0.1 -0.709941 0.255563
0 0.1 1.29299 0.147114
0 0.1 -1.29299 0.148707
1.25511 0.1 0.311223 0.374665
1.25511 0.1 -0.311223 0.377252
1.2756 0.1 -0.214269 0.398182
1.2756 0.1 0.214269 0.396014
0.0363518 0.1 1.29299 0.147114
0.0363518 0.1 -1.29299 0.148707
1.2906 0.1 -0.12094 0.411456
1.2906 0.1 0.12094 0.410103
0.574156 0.1 1.1625 0.14421
0.574157 0.1 -1.1625 0.146033
0.969689 0.1 0.8625 0.209469
0.969689 0.1 -0.8625 0.211803
1.0579 0.1 0.757102 0.239523
1.0579 0.1 -0.757102 0.241844
1.1744 0.1 -0.563382 0.305527
1.1744 0.1 0.563382 0.302442
1.20938 0.1 0.483984 0.328128
1.20938 0.1 -0.483984 0.331364
1.2906 0.1 -0.181409 0.405829
1.2906 0.1 0.181409 0.403846
0.93886 0.1 -0.903998 0.203172
0.90582 0.1 0.9375 0.190078
0.90582 0.1 -0.9375 0.192318
1.2756 0.1 0.275489 0.386488
1.2756 0.1 -0.275489 0.389175
1.2267 0.1 -0.445653 0.343603
1.2267 0.1 0.445653 0.340346
1.15704 0.1 -0.604332 0.292452
1.15704 0.1 0.604332 0.289428
1.19808 0.1 -0.520769 0.32049
1.19808 0.1 0.520769 0.317259
1.30646 0.1 0.0298385 0.419942
1.30646 0.1 -0.0298385 0.420291
0.287374 0.1 -1.275 0.13187
0.287374 0.1 1.275 0.130223
0.871687 0.1 0.975 0.181805
0.871687 0.1 -0.975 0.183983
1.24274 0.1 0.408607 0.352288
1.24274 0.1 -0.408607 0.355585
0.522865 0.1 1.2 0.139041
0.522865 0.1 -1.2 0.140833