# UMean  POINT_DATA 63840
# x  y  z  UMean_x  UMean_y  UMean_z
0 0.5 3.39583e-17 0.999391 0 0.0348995
0 0.5 -0.00617931 0.999391 0 0.0348995
0 0.5 0.00617931 0.999391 0 0.0348995
0.0124865 0.5 -0.00617931 0.999355 0.000942942 0.0348467
0.0124865 0.5 0.00617931 0.999355 0.000942958 0.0349678
0 0.5 -0.0688207 0.999391 0 0.0348995
0 0.5 0.0688207 0.999391 0 0.0348995
0.0124865 0.5 -0.0688207 0.999355 0.000942942 0.0348467
0.0124865 0.5 0.0688207 0.999355 0.000942958 0.0349678
0 0.5 -0.075 0.999391 0 0.0348995
0 0.5 0.075 0.999391 0 0.0348995
0 0.5 -0.0811793 0.999391 0 0.0348995
0 0.5 0.0811793 0.999391 0 0.0348995
0.0124865 0.5 -0.0811793 0.999353 0.000939529 0.0347189
0.0124865 0.5 0.0811793 0.999353 0.000939539 0.0350955
0.075776 0.5 -0.0375 0.999148 0.0057169 0.0345811
0.075776 0.5 0.0375 0.999148 0.00571697 0.0353119
0.075776 0.5 -0.1125 0.999135 0.00569601 0.0338097
0.075776 0.5 0.1125 0.999135 0.00569603 0.0360832
0 0.5 -0.143821 0.999391 0 0.0348995
0 0.5 0.143821 0.999391 0 0.0348995
0.0124865 0.5 -0.143821 0.999353 0.000939529 0.0347189
0.0124865 0.5 0.143821 0.999353 0.000939539 0.0350955
0 0.5 -0.15 0.999391 0 0.0348995
0 0.5 0.15 0.999391 0 0.0348995
0.151149 0.5 -0.00137318 0.997902 0.0096014 0.0350077
0 0.5 -0.156179 0.999391 0 0.0348995
0 0.5 0.156179 0.999391 0 0.0348995
0.0124865 0.5 -0.156179 0.999355 0.000932141 0.0345962
0.0124865 0.5 0.156179 0.999356 0.000932167 0.0352179
0.151149 0.5 0.075 0.997894 0.00961171 0.036304
0.151149 0.5 -0.075 0.997892 0.00961066 0.0336172
0.075776 0.5 -0.1875 0.999149 0.00565129 0.0330686
0.075776 0.5 0.1875 0.99915 0.00565135 0.0368224
0.151149 0.5 0.15 0.997919 0.00955828 0.0376315
0.151149 0.5 -0.15 0.997915 0.00955641 0.0322881
0 0.5 -0.218821 0.999391 0 0.0348995
0 0.5 0.218821 0.999391 0 0.0348995
0.0124865 0.5 -0.218821 0.999355 0.000932141 0.0345962
0.0124865 0.5 0.218821 0.999356 0.000932167 0.0352179
0.219992 0.5 0.0375 0.996722 0.0132857 0.0359339
0.219993 0.5 -0.0375 0.99672 0.0132848 0.0340139
0 0.5 -0.225 0.999391 0 0.0348995
0 0.5 0.225 0.999391 0 0.0348995
0 0.5 -0.231179 0.999391 0 0.0348995
0 0.5 0.231179 0.999391 0 0.0348995
0.0124865 0.5 -0.231179 0.999358 0.000921314 0.0344781
0.0124865 0.5 0.231179 0.999358 0.00092132 0.0353359
0.219992 0.5 0.1125 0.996736 0.0132366 0.0378082
0.219993 0.5 -0.1125 0.99673 0.0132335 0.0321389
0.151149 0.5 -0.225 0.997972 0.00946821 0.0309973
0.151149 0.5 0.225 0.997977 0.00947054 0.0389207
0.075776 0.5 -0.2625 0.999165 0.00558564 0.0323543
0.075776 0.5 0.2625 0.999167 0.00558553 0.0375355
0.288069 0.5 -0.00137318 0.993716 0.0168842 0.0350461
0.219992 0.5 0.1875 0.996816 0.0131403 0.0396595
0.219993 0.5 -0.1875 0.996808 0.0131361 0.0302844
0 0.5 0.293821 0.999391 0 0.0348995
0 0.5 -0.293821 0.999391 0 0.0348995
0.0124865 0.5 -0.293821 0.999358 0.000921314 0.0344781
0.0124865 0.5 0.293821 0.999358 0.00092132 0.0353359
0.288069 0.5 -0.075 0.993718 0.0168749 0.0324557
0.288069 0.5 0.075 0.993724 0.0168787 0.0374622
0 0.5 -0.3 0.999391 0 0.0348995
0 0.5 0.3 0.999391 0 0.0348995
0 0.5 0.306179 0.999391 0 0.0348995
0 0.5 -0.306179 0.999391 0 0.0348995
0.0124865 0.5 -0.306179 0.999361 0.000907459 0.0343665
0.0124865 0.5 0.306179 0.999362 0.000907468 0.0354471
0.288069 0.5 -0.15 0.993817 0.016776 0.0299953
0.288069 0.5 0.15 0.993826 0.0167834 0.0399222
0.151149 0.5 -0.3 0.998048 0.00934861 0.0297646
0.151149 0.5 0.3 0.998056 0.00935127 0.0401521
0.219992 0.5 -0.2625 0.996922 0.0129955 0.0285038
0.219992 0.5 0.2625 0.996932 0.0130004 0.0414399
0.075776 0.5 0.3375 0.999189 0.00550135 0.038208
0.075776 0.5 -0.3375 0.999185 0.00550151 0.0316795
0.350249 0.5 -0.0375 0.990856 0.0203039 0.0333976
0.350249 0.5 0.0375 0.99086 0.0203068 0.0364924
0.288069 0.5 -0.225 0.993999 0.0166175 0.027602
0.288069 0.5 0.225 0.994011 0.0166276 0.0423156
0.350249 0.5 0.1125 0.990954 0.0202286 0.0395415
0.350249 0.5 -0.1125 0.990944 0.0202202 0.0303486
0 0.5 0.368821 0.999391 0 0.0348995
0 0.5 -0.368821 0.999391 0 0.0348995
0.0124865 0.5 -0.368821 0.999361 0.000907459 0.0343665
0.0124865 0.5 0.368821 0.999362 0.000907468 0.0354471
0 0.5 -0.375 0.999391 0 0.0348995
0 0.5 0.375 0.999391 0 0.0348995
0 0.5 -0.381179 0.999391 0 0.0348995
0 0.5 0.381179 0.999391 0 0.0348995
0.0124865 0.5 -0.381179 0.999366 0.000890824 0.0342626
0.0124865 0.5 0.381179 0.999366 0.000890754 0.0355506
0.350249 0.5 -0.1875 0.991154 0.0200603 0.0273587
0.350249 0.5 0.1875 0.991167 0.0200736 0.0425334
0.219992 0.5 -0.3375 0.997069 0.0128134 0.0268127
0.219992 0.5 0.3375 0.997082 0.012819 0.0431293
0.151149 0.5 -0.375 0.998143 0.00919991 0.0286047
0.151149 0.5 0.375 0.998153 0.0092027 0.0413099
0.411736 0.5 -0.00137318 0.98658 0.0238054 0.035032
0.288069 0.5 -0.3 0.994251 0.0164032 0.025317
0.288069 0.5 0.3 0.994266 0.0164158 0.0446017
0.411736 0.5 -0.075 0.986618 0.0237756 0.0312038
0.411736 0.5 0.075 0.986624 0.0237848 0.0386053
0.075776 0.5 -0.4125 0.999211 0.0054005 0.0310505
0.075776 0.5 0.4125 0.999216 0.00539985 0.0388342
0.350249 0.5 -0.2625 0.991472 0.019829 0.0244817
0.350249 0.5 0.2625 0.991487 0.0198466 0.0454121
0.411736 0.5 -0.15 0.986844 0.0236236 0.0275664
0.411736 0.5 0.15 0.986854 0.0236414 0.042246
0 0.5 -0.443821 0.999391 0 0.0348995
0 0.5 0.443821 0.999391 0 0.0348995
0.0124865 0.5 -0.443821 0.999366 0.000890824 0.0342626
0.0124865 0.5 0.443821 0.999366 0.000890754 0.0355506
0 0.5 -0.45 0.999391 0 0.0348995
0 0.5 0.45 0.999391 0 0.0348995
0 0.5 -0.456179 0.999391 0 0.0348995
0 0.5 0.456179 0.999391 0 0.0348995
0.0124865 0.5 -0.456179 0.999371 0.000871714 0.0341674
0.0124865 0.5 0.456179 0.999372 0.000871527 0.0356452
0.219992 0.5 -0.4125 0.997246 0.0125932 0.0252337
0.219993 0.5 0.4125 0.997263 0.0125991 0.0447067
0.411736 0.5 -0.225 0.987231 0.0233796 0.0240395
0.411736 0.5 0.225 0.987242 0.0234051 0.0457784
0.467897 0.5 0.0375 0.982495 0.0271444 0.0370241
0.467897 0.5 -0.0375 0.982491 0.0271382 0.0327072
0.288069 0.5 -0.375 0.994566 0.0161371 0.0231682
0.288069 0.5 0.375 0.994584 0.0161516 0.0467522
0.151149 0.5 -0.45 0.998255 0.00902447 0.0275308
0.151149 0.5 0.45 0.998267 0.00902707 0.0423812
0.467897 0.5 -0.1125 0.982685 0.0270137 0.0284393
0.467897 0.5 0.1125 0.982693 0.0270323 0.041295
0.350249 0.5 0.3375 0.991905 0.0195538 0.0481404
0.350249 0.5 -0.3375 0.991886 0.0195328 0.0217579
0.075776 0.5 -0.4875 0.999241 0.00528441 0.0304744
0.075776 0.5 0.4875 0.999247 0.00528305 0.0394069
0.467897 0.5 -0.1875 0.983087 0.0267771 0.0242682
0.467897 0.5 0.1875 0.983096 0.0268071 0.0454742
0.411736 0.5 -0.3 0.987768 0.0230505 0.0206778
0.411736 0.5 0.3 0.987779 0.0230826 0.0491478
0 0.5 -0.518821 0.999391 0 0.0348995
0 0.5 0.518821 0.999391 0 0.0348995
0.0124865 0.5 0.518821 0.999372 0.000871527 0.0356452
0.0124865 0.5 -0.518821 0.999371 0.000871714 0.0341674
0.523432 0.5 -0.00137318 0.977231 0.0306167 0.0349737
0 0.5 -0.525 0.999391 0 0.0348995
0 0.5 0.525 0.999391 0 0.0348995
0.523432 0.5 -0.075 0.977322 0.0305629 0.0298575
0.523432 0.5 0.075 0.977324 0.0305803 0.0397519
0 0.5 -0.531179 0.999391 0 0.0348995
0 0.5 0.531179 0.999391 0 0.0348995
0.0124865 0.5 -0.531179 0.999376 0.000850511 0.0340819
0.0124865 0.5 0.531179 0.999378 0.000850195 0.0357301
0.288069 0.5 -0.45 0.994936 0.015823 0.0211812
0.288069 0.5 0.45 0.994957 0.0158391 0.048741
0.219992 0.5 -0.4875 0.997451 0.0123375 0.0237835
0.219993 0.5 0.4875 0.99747 0.0123436 0.0461545
0.467897 0.5 -0.2625 0.983692 0.0264348 0.0202672
0.467897 0.5 0.2625 0.9837 0.0264748 0.0494846
0.350249 0.5 -0.4125 0.992387 0.0191752 0.0192199
0.350249 0.5 0.4125 0.992409 0.0191993 0.0506834
0.523432 0.5 -0.15 0.977717 0.0303486 0.0249976
0.523432 0.5 0.15 0.977719 0.0303825 0.0446203
0.151149 0.5 -0.525 0.998382 0.00882461 0.0265542
0.151149 0.5 0.525 0.998395 0.00882682 0.0433547
0.411736 0.5 -0.375 0.988438 0.0226433 0.017526
0.411736 0.5 0.375 0.988451 0.0226812 0.0523104
0.075776 0.5 -0.5625 0.999276 0.00515546 0.0299564
0.075776 0.5 0.5625 0.999282 0.00515331 0.0399209
0.523432 0.5 -0.225 0.978378 0.0300053 0.0202972
0.523432 0.5 0.225 0.978376 0.0300544 0.0493349
0.574156 0.5 -0.0375 0.972182 0.0339332 0.0319479
0.574156 0.5 0.0375 0.972183 0.0339444 0.0375409
0.467897 0.5 0.3375 0.984488 0.0260446 0.0532792
0.467897 0.5 -0.3375 0.984481 0.0259962 0.0164877
0.574156 0.5 -0.1125 0.972506 0.0337629 0.0264129
0.574156 0.5 0.1125 0.972505 0.033796 0.0430837
0 0.5 -0.593821 0.999391 0 0.0348995
0 0.5 0.593821 0.999391 0 0.0348995
0.0124865 0.5 -0.593821 0.999376 0.000850511 0.0340819
0.0124865 0.5 0.593821 0.999378 0.000850195 0.0357301
0.288069 0.5 -0.525 0.995354 0.0154648 0.0193771
0.288069 0.5 0.525 0.995376 0.0154822 0.0505468
0 0.5 -0.6 0.999391 0 0.0348995
0 0.5 0.6 0.999391 0 0.0348995
0.350249 0.5 -0.4875 0.992964 0.0187617 0.0168971
0.350249 0.5 0.4875 0.992988 0.0187886 0.0530118
0.523432 0.5 -0.3 0.979289 0.0295423 0.0158294
0.523432 0.5 0.3 0.979282 0.0296049 0.0538217
0.219992 0.5 -0.5625 0.997678 0.012049 0.022477
0.219992 0.5 0.5625 0.997699 0.0120548 0.0474582
0.574156 0.5 -0.1875 0.973157 0.0334408 0.0210167
0.574156 0.5 0.1875 0.97315 0.0334939 0.0484947
0 0.5 -0.606179 0.999391 0 0.0348995
0 0.5 0.606179 0.999391 0 0.0348995
0.0124865 0.5 -0.606179 0.999383 0.000827638 0.0340066
0.0124865 0.5 0.606179 0.999385 0.000827168 0.0358046
0.411736 0.5 -0.45 0.989225 0.0221644 0.0146228
0.411736 0.5 0.45 0.989239 0.0222076 0.055226
0.151149 0.5 -0.6 0.998522 0.00860311 0.0256838
0.151149 0.5 0.6 0.998536 0.00860474 0.0442215
0.62168 0.5 2.64545e-17 0.966456 0.0372432 0.0349285
0.467897 0.5 0.4125 0.985439 0.0255257 0.0568025
0.467897 0.5 -0.4125 0.985432 0.0254694 0.0129821
0.624316 0.5 0.0729402 0.966284 0.0373745 0.040915
0.624316 0.5 -0.075 0.96629 0.0373463 0.0284202
0.574156 0.5 -0.2625 0.974125 0.032975 0.01585
0.574157 0.5 0.2625 0.97411 0.0330468 0.0536853
0.075776 0.5 -0.6375 0.999317 0.00501594 0.0295007
0.075776 0.5 0.6375 0.999323 0.00501284 0.0403722
0.624316 0.5 -0.15 0.966896 0.0370637 0.0222892
0.624316 0.5 0.15 0.966879 0.0371188 0.0470614
0.523432 0.5 -0.375 0.980425 0.0289705 0.0116563
0.523432 0.5 0.375 0.980413 0.029045 0.0580193
0.350249 0.5 -0.5625 0.993601 0.0182978 0.0148128
0.350249 0.5 0.5625 0.993627 0.0183272 0.0551022
0.624316 0.5 -0.225 0.967896 0.036612 0.0163711
0.624316 0.5 0.225 0.967865 0.0366922 0.053005
0.288069 0.5 0.6 0.995832 0.0150858 0.0521527
0.288069 0.5 -0.6 0.995808 0.0150674 0.0177729
0.574156 0.5 -0.3375 0.975385 0.032378 0.0109886
0.574156 0.5 0.3375 0.97536 0.032466 0.0585738
0.411736 0.5 -0.525 0.990109 0.0216212 0.0119996
0.411736 0.5 0.525 0.990124 0.0216692 0.0578631
0 0.5 -0.668821 0.999391 0 0.0348995
0 0.5 0.668821 0.999391 0 0.0348995
0.0124865 0.5 -0.668821 0.999383 0.000827638 0.0340066
0.0124865 0.5 0.668821 0.999385 0.000827168 0.0358046
0.67013 0.5 0.0375 0.960298 0.0407801 0.038053
0.67013 0.5 -0.0375 0.960303 0.0407631 0.031126
0.219993 0.5 -0.6375 0.997921 0.0117315 0.0213255
0.219993 0.5 0.6375 0.997942 0.0117369 0.0486064
0 0.5 -0.675 0.999391 0 0.0348995
0 0.5 0.675 0.999391 0 0.0348995
0.467897 0.5 0.4875 0.986529 0.0249266 0.0600146
0.467897 0.5 -0.4875 0.986523 0.0248631 0.00979054
0.67013 0.5 -0.1125 0.960784 0.0405432 0.0242701
0.67013 0.5 0.1125 0.960765 0.040594 0.0449221
0 0.5 -0.681179 0.999391 0 0.0348995
0 0.5 0.681179 0.999391 0 0.0348995
0.0124865 0.5 -0.681179 0.999391 0.000803423 0.0339421
0.0124865 0.5 0.681179 0.999392 0.000802806 0.0358683
0.523432 0.5 -0.45 0.981754 0.0283004 0.00783108
0.523432 0.5 0.45 0.981738 0.0283856 0.0618738
0.151149 0.5 -0.675 0.99867 0.00836324 0.024926
0.151149 0.5 0.675 0.998685 0.00836409 0.0449752
0.624316 0.5 -0.3 0.969266 0.036003 0.0107647
0.624316 0.5 0.3 0.969221 0.0361058 0.0586479
0.67013 0.5 0.1875 0.961699 0.0402111 0.0516181
0.67013 0.5 -0.1875 0.961737 0.0401288 0.0175995
0.574156 0.5 -0.4125 0.976899 0.0316633 0.00649974
0.574157 0.5 0.4125 0.976865 0.0317659 0.0630995
0.708171 0.5 1.88651e-17 0.954704 0.0437376 0.035084
0.075776 0.5 -0.7125 0.99936 0.00486809 0.0291096
0.075776 0.5 0.7125 0.999367 0.0048641 0.0407585
0.715434 0.5 0.0736268 0.95404 0.0441305 0.0422822
0.715434 0.5 -0.075 0.953912 0.0441647 0.0268956
0.67013 0.5 0.2625 0.963087 0.0396425 0.0580306
0.67013 0.5 -0.2625 0.963146 0.0395308 0.0112245
0.350249 0.5 -0.6375 0.994283 0.0177901 0.0129844
0.350249 0.5 0.6375 0.99431 0.0178214 0.056937
0.411736 0.5 -0.6 0.991069 0.0210214 0.00968025
0.411736 0.5 0.6 0.991085 0.0210735 0.0601974
0.624316 0.5 -0.375 0.970967 0.0352511 0.005546
0.624316 0.5 0.375 0.970907 0.0353738 0.0639091
0.715434 0.5 -0.15 0.954765 0.0438087 0.0194392
0.715434 0.5 0.15 0.954719 0.0438888 0.0495851
0.467897 0.5 -0.5625 0.987725 0.0241865 0.00694485
0.467897 0.5 0.5625 0.98773 0.0242564 0.0628826
0.288069 0.5 -0.675 0.996288 0.0146364 0.0163801
0.288069 0.5 0.675 0.996312 0.0146553 0.0535471
0.523432 0.5 -0.525 0.983242 0.0275428 0.00439587
0.523432 0.5 0.525 0.983223 0.0276378 0.0653417
0 0.5 -0.743821 0.999391 0 0.0348995
0 0.5 0.743821 0.999391 0 0.0348995
0.0124865 0.5 -0.743821 0.999391 0.000803423 0.0339421
0.0124865 0.5 0.743821 0.999392 0.000802806 0.0358683
0.219992 0.5 0.7125 0.998196 0.0113941 0.0495921
0.219992 0.5 -0.7125 0.998175 0.0113896 0.0203361
0.715434 0.5 -0.225 0.956164 0.0432409 0.0122566
0.715434 0.5 0.225 0.956089 0.043358 0.0568066
0 0.5 -0.75 0.999391 0 0.0348995
0 0.5 0.75 0.999391 0 0.0348995
0.67013 0.5 0.3375 0.964885 0.0389012 0.0640504
0.67013 0.5 -0.3375 0.964965 0.0387637 0.00526112
0.574156 0.5 -0.4875 0.978626 0.0308424 0.0024366
0.574156 0.5 0.4875 0.978585 0.0309582 0.0672038
0 0.5 -0.756179 0.999391 0 0.0348995
0 0.5 0.756179 0.999391 0 0.0348995
0.0124865 0.5 -0.756179 0.999398 0.000778304 0.0338885
0.0124865 0.5 0.756179 0.9994 0.000777544 0.0359211
0.756813 0.5 -0.0375 0.947257 0.0476325 0.0302468
0.756813 0.5 0.0375 0.947243 0.0476563 0.0385684
0.151149 0.5 -0.75 0.998825 0.00810863 0.0242843
0.151149 0.5 0.75 0.998839 0.00810858 0.0456125
0.756813 0.5 -0.1125 0.947919 0.0473594 0.0220127
0.756813 0.5 0.1125 0.947876 0.0474304 0.0468214
0.624316 0.5 -0.45 0.972952 0.0343716 0.000784216
0.624316 0.5 0.45 0.972879 0.034512 0.0687199
0.715434 0.5 -0.3 0.958071 0.042476 0.00546763
0.715434 0.5 0.3 0.957968 0.0426265 0.0636499
0.756813 0.5 0.1875 0.94914 0.0469621 0.0548589
0.756813 0.5 -0.1875 0.94922 0.0468468 0.0140113
0.67013 0.5 -0.4125 0.967144 0.0378454 -0.000245805
0.67013 0.5 0.4125 0.967045 0.038005 0.0696058
0.411736 0.5 -0.675 0.992081 0.0203739 0.00768089
0.411736 0.5 0.675 0.992097 0.0204293 0.0622123
0.467897 0.5 0.6375 0.989013 0.0235249 0.0653833
0.467897 0.5 -0.6375 0.989008 0.0234496 0.00446806
0.075776 0.5 -0.7875 0.999407 0.00471438 0.0287841
0.075776 0.5 0.7875 0.999415 0.00470953 0.041079
0.350249 0.5 -0.7125 0.994995 0.017246 0.0114225
0.350249 0.5 0.7125 0.995023 0.0172786 0.0585052
0.523432 0.5 -0.6 0.984852 0.0267099 0.00138196
0.523432 0.5 0.6 0.98483 0.0268133 0.0683909
0.797732 0.5 2.68882e-17 0.940135 0.051169 0.0343044
0.756813 0.5 -0.2625 0.951136 0.046107 0.00638782
0.756814 0.5 0.2625 0.951015 0.0462639 0.0625379
0.797732 0.5 0.0736268 0.940565 0.0510257 0.0436312
0.797732 0.5 -0.075 0.940528 0.0510044 0.0252901
0.288069 0.5 -0.75 0.996783 0.014178 0.0152051
0.288069 0.5 0.75 0.996807 0.0141971 0.0547234
0.574156 0.5 -0.5625 0.980523 0.0299293 -0.00115878
0.574157 0.5 0.5625 0.980476 0.0300569 0.0708445
0.715434 0.5 -0.375 0.960429 0.0415317 -0.00082422
0.715434 0.5 0.375 0.960298 0.0417116 0.070006
0.797732 0.5 -0.15 0.941661 0.0505709 0.0164541
0.797732 0.5 0.15 0.941577 0.050679 0.0521979
0.624316 0.5 -0.525 0.975168 0.0333796 -0.00346004
0.624316 0.5 0.525 0.975084 0.0335363 0.0730215
0.219992 0.5 -0.7875 0.998432 0.0110283 0.0195119
0.219992 0.5 0.7875 0.998454 0.0110319 0.0504119
0 0.5 -0.818821 0.999391 0 0.0348995
0 0.5 0.818821 0.999391 0 0.0348995
0.0124865 0.5 0.818821 0.9994 0.000777544 0.0359211
0.0124865 0.5 -0.818821 0.999398 0.000778304 0.0338885
0 0.5 -0.825 0.999391 0 0.0348995
0 0.5 0.825 0.999391 0 0.0348995
0.756813 0.5 0.3375 0.95344 0.0453539 0.0697423
0.756814 0.5 -0.3375 0.953594 0.0451603 -0.000749453
0.67013 0.5 -0.4875 0.969628 0.0367931 -0.00518546
0.67013 0.5 0.4875 0.969511 0.0369737 0.0746138
0.797732 0.5 -0.225 0.943514 0.0498806 0.00795911
0.797732 0.5 0.225 0.94338 0.0500386 0.0607467
0 0.5 -0.831179 0.999391 0 0.0348995
0 0.5 0.831179 0.999391 0 0.0348995
0.0124865 0.5 -0.831179 0.999406 0.000752597 0.0338455
0.0124865 0.5 0.831179 0.999407 0.000751708 0.0359632
0.835106 0.5 0.0375 0.933305 0.0545409 0.0390924
0.835106 0.5 -0.0375 0.933329 0.0545096 0.0293185
0.151149 0.5 -0.825 0.998981 0.00784321 0.0237592
0.151149 0.5 0.825 0.998996 0.00784217 0.0461328
0.835106 0.5 0.1125 0.93412 0.0542738 0.0487845
0.835106 0.5 -0.1125 0.934196 0.0541807 0.0196518
0.715434 0.5 -0.45 0.963177 0.0404274 -0.0065305
0.715434 0.5 0.45 0.96302 0.0406339 0.0757878
0.797732 0.5 -0.3 0.94603 0.0489511 -5.36116e-05
0.797732 0.5 0.3 0.945849 0.0491549 0.0688312
0.467897 0.5 0.7125 0.990348 0.0227428 0.067503
0.467897 0.5 -0.7125 0.990343 0.0226632 0.00237309
0.523432 0.5 -0.675 0.986544 0.0258142 -0.00119096
0.523432 0.5 0.675 0.986519 0.0259245 0.0710011
0.411736 0.5 -0.75 0.993123 0.0196883 0.00600914
0.411736 0.5 0.75 0.993139 0.0197462 0.0638998
0.835106 0.5 -0.1875 0.935888 0.0535653 0.0102692
0.835106 0.5 0.1875 0.935753 0.0537168 0.0582149
0.574156 0.5 -0.6375 0.982541 0.0289387 -0.00425836
0.574157 0.5 0.6375 0.98249 0.029076 0.0739926
0.350249 0.5 -0.7875 0.995721 0.0166736 0.0101309
0.350249 0.5 0.7875 0.995749 0.0167073 0.0598029
0.756813 0.5 -0.4125 0.956536 0.0440252 -0.00725843
0.756814 0.5 0.4125 0.956348 0.0442514 0.0763355
0.075776 0.5 -0.8625 0.999454 0.00455705 0.0285237
0.075776 0.5 0.8625 0.999462 0.00455148 0.0413342
0.624316 0.5 0.6 0.977463 0.0324625 0.076775
0.624316 0.5 -0.6 0.977557 0.032292 -0.00715157
0.872064 0.5 5.91974e-17 0.926013 0.0579725 0.0340948
0.870122 0.5 0.075 0.926934 0.0576286 0.0449748
0.288069 0.5 -0.825 0.997282 0.0136994 0.0142485
0.288069 0.5 0.825 0.997307 0.0137182 0.0556807
0.67013 0.5 -0.5625 0.972344 0.035625 -0.00952283
0.67013 0.5 0.5625 0.972213 0.035824 0.0790244
0.872064 0.5 -0.075 0.926517 0.0577761 0.023621
0.835106 0.5 -0.2625 0.938368 0.0526775 0.00135303
0.835106 0.5 0.2625 0.938171 0.052884 0.0672063
0.797732 0.5 -0.375 0.949134 0.0478039 -0.00744164
0.797732 0.5 0.375 0.948909 0.0480487 0.0763109
0.872064 0.5 0.14794 0.927828 0.0574013 0.0548832
0.872064 0.5 -0.15 0.927958 0.0572634 0.0133622
0.715434 0.5 -0.525 0.966236 0.0391841 -0.0115826
0.715434 0.5 0.525 0.966055 0.0394145 0.0809274
0.219992 0.5 0.8625 0.998713 0.0106556 0.0510671
0.219993 0.5 -0.8625 0.998692 0.0106534 0.0188519
0 0.5 -0.893821 0.999391 0 0.0348995
0 0.5 0.893821 0.999391 0 0.0348995
0.0124865 0.5 -0.893821 0.999406 0.000752597 0.0338455
0.0124865 0.5 0.893821 0.999407 0.000751708 0.0359632
0 0.5 -0.9 0.999391 0 0.0348995
0 0.5 0.9 0.999391 0 0.0348995
0.756813 0.5 -0.4875 0.959884 0.0427256 -0.0130839
0.756813 0.5 0.4875 0.959662 0.0429819 0.0822603
0.872064 0.5 -0.225 0.930303 0.0564477 0.00351485
0.872064 0.5 0.225 0.930102 0.0566498 0.0648005
0.835106 0.5 -0.3375 0.941552 0.0515418 -0.00696879
0.835106 0.5 0.3375 0.941303 0.0517978 0.0756165
0 0.5 0.906179 0.999391 0 0.0348995
0 0.5 -0.906179 0.999391 0 0.0348995
0.0124865 0.5 -0.906179 0.999413 0.000726719 0.0338131
0.0124865 0.5 0.906179 0.999414 0.000725731 0.0359947
0.90582 0.5 -0.0375 0.918998 0.0612475 0.0283565
0.90582 0.5 0.0375 0.918962 0.0612867 0.0396198
0.151149 0.5 -0.9 0.999137 0.007571 0.0233489
0.151149 0.5 0.9 0.999151 0.00756908 0.0465379
0.90582 0.5 -0.1125 0.920083 0.0608626 0.017221
0.905821 0.5 0.1125 0.919971 0.0609789 0.0507875
0.523432 0.5 -0.75 0.98828 0.0248694 -0.00331519
0.523432 0.5 0.75 0.988253 0.024985 0.0731634
0.574156 0.5 -0.7125 0.984632 0.0278856 -0.00684762
0.574156 0.5 0.7125 0.984577 0.0280308 0.0766323
0.797732 0.5 -0.45 0.952741 0.0464623 -0.0141003
0.797732 0.5 0.45 0.952472 0.0467438 0.0830777
0.467897 0.5 0.7875 0.991704 0.0219218 0.0692378
0.467897 0.5 -0.7875 0.991701 0.0218391 0.000663019
0.624316 0.5 -0.675 0.980058 0.0311262 -0.0102672
0.624316 0.5 0.675 0.979957 0.0313082 0.0799562
0.411736 0.5 -0.825 0.994173 0.0189746 0.00466427
0.411736 0.5 0.825 0.994189 0.019034 0.06526
0.872064 0.5 0.3 0.933215 0.0556109 0.0741562
0.872064 0.5 -0.3 0.933488 0.0553499 -0.00574778
0.67013 0.5 -0.6375 0.975223 0.034361 -0.0132222
0.67013 0.5 0.6375 0.975081 0.0345753 0.082803
0.90582 0.5 0.1875 0.921999 0.060334 0.0616443
0.905821 0.5 -0.1875 0.922192 0.0601443 0.00642447
0.350249 0.5 -0.8625 0.996447 0.0160817 0.00910683
0.350249 0.5 0.8625 0.996475 0.0161153 0.0608324
0.835106 0.5 -0.4125 0.94535 0.0501802 -0.0145063
0.835106 0.5 0.4125 0.945046 0.0504809 0.0832794
0.715434 0.5 -0.6 0.969519 0.0378235 -0.0159354
0.715434 0.5 0.6 0.96932 0.0380745 0.0853745
0.939201 0.5 2.75387e-17 0.911282 0.0648424 0.0338727
0.075776 0.5 0.9375 0.999505 0.00439218 0.041526
0.075776 0.5 -0.9375 0.999498 0.00439837 0.0283265
0.939111 0.5 0.075 0.911914 0.0646691 0.0468853
0.939201 0.5 -0.075 0.911908 0.0646117 0.0218666
0.756813 0.5 0.5625 0.963281 0.0415678 0.0874359
0.756814 0.5 -0.5625 0.963528 0.0412857 -0.018152
0.90582 0.5 0.2625 0.924994 0.0593675 0.0719826
0.905821 0.5 -0.2625 0.925275 0.0591087 -0.00381815
0.288069 0.5 -0.9 0.99778 0.0132072 0.0135059
0.288069 0.5 0.9 0.997804 0.0132253 0.0564236
0.872064 0.5 -0.375 0.937411 0.0539951 -0.0142552
0.872064 0.5 0.375 0.937072 0.0543097 0.0827896
0.939201 0.5 0.148627 0.913587 0.0641496 0.0578762
0.939201 0.5 -0.15 0.913687 0.0640129 0.0101167
0.797732 0.5 -0.525 0.956743 0.0449535 -0.0199589
0.797732 0.5 0.525 0.956437 0.0452674 0.0890556
0.219992 0.5 0.9375 0.998972 0.010272 0.0515618
0.219992 0.5 -0.9375 0.998951 0.0102706 0.0183519
0.939201 0.5 -0.225 0.916573 0.0630612 -0.0011446
0.939201 0.5 0.225 0.91629 0.0633103 0.0690455
0.905821 0.5 -0.3375 0.929239 0.0577836 -0.0133407
0.90582 0.5 0.3375 0.928878 0.0581044 0.0816174
0.835106 0.5 -0.4875 0.949653 0.0486216 -0.0212285
0.835106 0.5 0.4875 0.949296 0.0489609 0.090124
0 0.5 0.968821 0.999391 0 0.0348995
0 0.5 -0.968821 0.999391 0 0.0348995
0.0124865 0.5 -0.968821 0.999413 0.000726719 0.0338131
0.0124865 0.5 0.968821 0.999414 0.000725731 0.0359947
0.969689 0.5 -0.0375 0.903863 0.0682492 0.0273296
0.969689 0.5 0.0375 0.903812 0.0682966 0.0401925
0.574156 0.5 -0.7875 0.986747 0.0267861 -0.00892625
0.574156 0.5 0.7875 0.986691 0.0269371 0.0787619
0 0.5 -0.975 0.999391 0 0.0348995
0 0.5 0.975 0.999391 0 0.0348995
0.624316 0.5 -0.75 0.982611 0.0299004 -0.0128005
0.624316 0.5 0.75 0.982507 0.0300913 0.0825569
0.969689 0.5 -0.1125 0.905192 0.0677995 0.0146192
0.96969 0.5 0.1125 0.905036 0.0679404 0.0529431
0.523432 0.5 -0.825 0.99002 0.0238892 -0.00499484
0.523432 0.5 0.825 0.989994 0.0240084 0.0748808
0.67013 0.5 0.7125 0.978044 0.0332481 0.0859327
0.67013 0.5 -0.7125 0.978195 0.0330212 -0.0162693
0 0.5 -0.981179 0.999391 0 0.0348995
0 0.5 0.981179 0.999391 0 0.0348995
0.467897 0.5 0.8625 0.993056 0.0210735 0.0705937
0.467897 0.5 -0.8625 0.993052 0.0209888 -0.000669002
0.0124865 0.5 -0.981179 0.999419 0.000701037 0.0337907
0.0124865 0.5 0.981179 0.99942 0.000699952 0.0360163
0.872064 0.5 -0.45 0.941956 0.0524109 -0.0218807
0.872064 0.5 0.45 0.941555 0.0527734 0.0905576
0.715434 0.5 -0.675 0.972945 0.0363682 -0.0195635
0.715434 0.5 0.675 0.972733 0.0366362 0.0891026
0.939201 0.5 -0.3 0.920489 0.0617803 -0.0117052
0.939201 0.5 0.3 0.920106 0.0621029 0.0797222
0.151149 0.5 0.975 0.999305 0.00729358 0.0468327
0.151149 0.5 -0.975 0.999291 0.00729619 0.0230489
0.969689 0.5 -0.1875 0.90777 0.0669607 0.00231309
0.969689 0.5 0.1875 0.907501 0.0671912 0.0653225
0.756813 0.5 -0.6375 0.967377 0.0397299 -0.0224281
0.756813 0.5 0.6375 0.967109 0.0400342 0.0918273
0.411736 0.5 -0.9 0.995211 0.0182423 0.00363799
0.411736 0.5 0.9 0.995227 0.0183022 0.0663009
0.90582 0.5 -0.4125 0.933955 0.0561958 -0.0219458
0.90582 0.5 0.4125 0.933517 0.056574 0.0903993
0.995005 0.5 0.0749309 0.898885 0.0702454 0.0480858
0.797732 0.5 -0.6 0.961026 0.0433052 -0.0249544
0.797732 0.5 0.6 0.96069 0.0436472 0.0941825
1.00005 0.5 -8.47123e-18 0.896908 0.0709327 0.0336288
0.350249 0.5 -0.9375 0.997163 0.0154771 0.00834079
0.350249 0.5 0.9375 0.997191 0.0155102 0.0616037
1.00005 0.5 -0.0749309 0.897662 0.0706734 0.0201803
0.969689 0.5 -0.2625 0.911529 0.0657521 -0.0093386
0.969689 0.5 0.2625 0.911142 0.066068 0.0770876
0.835106 0.5 -0.5625 0.954324 0.0468973 -0.0270133
0.835106 0.5 0.5625 0.953931 0.0472713 0.0960553
1.00005 0.5 -0.149862 0.899786 0.0700048 0.00702548
0.939201 0.5 -0.375 0.925307 0.0602006 -0.0213757
0.939201 0.5 0.375 0.924832 0.0605899 0.0895457
1.00029 0.5 0.148988 0.899716 0.0701383 0.0605015
0.075776 0.5 -1.0125 0.999535 0.00424076 0.0281901
0.075776 0.5 1.0125 0.999541 0.00423409 0.0416572
0.288069 0.5 0.975 0.998294 0.0127253 0.0569611
0.288069 0.5 -0.975 0.99827 0.012708 0.0129679
0.872064 0.5 -0.525 0.946983 0.050631 -0.0285355
0.872064 0.5 0.525 0.946529 0.0510354 0.0973617
1.00005 0.5 0.224793 0.902849 0.0692391 0.0730137
1.00005 0.5 -0.224793 0.903227 0.0689433 -0.00557191
0.969689 0.5 0.3375 0.915858 0.0645982 0.0880112
0.96969 0.5 -0.3375 0.91636 0.0642054 -0.0201203
1.0271 0.5 -0.0368226 0.889494 0.0741895 0.0264979
1.0271 0.5 0.0368226 0.889429 0.0742428 0.0405652
0.90582 0.5 0.4875 0.938781 0.054806 0.0981441
0.905821 0.5 -0.4875 0.939281 0.0543778 -0.0295466
1.0271 0.5 -0.110468 0.891027 0.0737117 0.0125934
1.0271 0.5 0.110468 0.890482 0.0740883 0.0578154
0.67013 0.5 0.7875 0.981034 0.0318625 0.0884149
0.67013 0.5 -0.7875 0.981187 0.0316266 -0.0186679
0.624316 0.5 0.825 0.985056 0.0288296 0.0845844
0.624316 0.5 -0.825 0.985162 0.0286327 -0.014761
0.219993 0.5 -1.0125 0.999212 0.00988591 0.0180029
0.219993 0.5 1.0125 0.999232 0.00988645 0.0519059
0.574156 0.5 -0.8625 0.988844 0.0256554 -0.0105069
0.574156 0.5 0.8625 0.988789 0.0258101 0.0803924
0.715434 0.5 -0.75 0.976428 0.0348423 -0.0224626
0.715434 0.5 0.75 0.976209 0.0351232 0.0921044
0.756813 0.5 0.7125 0.971053 0.0384059 0.0954151
0.756814 0.5 -0.7125 0.971334 0.038084 -0.0258947
0.523432 0.5 -0.9 0.991733 0.0228867 -0.00624403
0.523432 0.5 0.9 0.991708 0.0230079 0.076166
0.939201 0.5 -0.45 0.930873 0.0583543 -0.0299996
0.939201 0.5 0.45 0.930318 0.0588037 0.0983411
1.04168 0.5 0 0.885242 0.0759374 0.0334669
1.0271 0.5 -0.184113 0.893995 0.0728219 -0.000873791
1.0271 0.5 0.184113 0.893663 0.0730824 0.0680625
0 0.5 -1.04382 0.999391 0 0.0348995
0 0.5 1.04382 0.999391 0 0.0348995
0.0124865 0.5 -1.04382 0.999419 0.000701037 0.0337907
0.0124865 0.5 1.04382 0.99942 0.000699952 0.0360163
1.00005 0.5 -0.299723 0.907888 0.0675149 -0.0173648
1.00005 0.5 0.299723 0.907376 0.0678989 0.084946
1.04168 0.5 -0.0729162 0.886061 0.0756679 0.0191717
1.04168 0.5 0.0729162 0.885924 0.0757769 0.0477844
0.797732 0.5 -0.675 0.96548 0.0415458 -0.0290634
0.797732 0.5 0.675 0.965123 0.0419111 0.0984307
0.467897 0.5 0.9375 0.99438 0.020208 0.071584
0.467897 0.5 -0.9375 0.994374 0.020123 -0.00163668
0 0.5 -1.05 0.999391 0 0.0348995
0 0.5 1.05 0.999391 0 0.0348995
0.835106 0.5 -0.6375 0.959245 0.045038 -0.0318396
0.835106 0.5 0.6375 0.958818 0.0454417 0.101036
1.04168 0.5 -0.145832 0.888365 0.0749753 0.00518055
1.04168 0.5 0.145832 0.888088 0.0751908 0.0618399
0.969689 0.5 -0.4125 0.922089 0.0623556 -0.0298533
0.96969 0.5 0.4125 0.921492 0.0628184 0.0979251
0 0.5 -1.05618 0.999391 0 0.0348995
0 0.5 1.05618 0.999391 0 0.0348995
0.0124865 0.5 -1.05618 0.999423 0.000675718 0.0337775
0.0124865 0.5 1.05618 0.999424 0.000674589 0.0360287
1.05695 0.5 -0.0360764 0.881096 0.0775947 0.0260138
1.05695 0.5 0.0360764 0.881018 0.0776525 0.0406714
0.411736 0.5 -0.975 0.996221 0.0175 0.00291457
0.411736 0.5 0.975 0.996237 0.0175595 0.067037
0.872064 0.5 -0.6 0.952343 0.0486887 -0.0341545
0.872064 0.5 0.6 0.951846 0.0491297 0.103151
1.0271 0.5 -0.257759 0.898317 0.0715404 -0.0136393
1.0271 0.5 0.257759 0.897844 0.0718975 0.0809521
0.151149 0.5 -1.05 0.999444 0.00702132 0.022852
0.151149 0.5 1.05 0.999457 0.00701798 0.0470244
1.05695 0.5 0.108229 0.881674 0.0776127 0.0556173
1.05695 0.5 -0.108229 0.882705 0.077104 0.0115228
1.04168 0.5 -0.218749 0.892098 0.0738758 -0.00823409
1.04168 0.5 0.218749 0.891674 0.0741935 0.0753596
0.90582 0.5 -0.5625 0.945045 0.0523705 -0.036029
0.905821 0.5 0.5625 0.94449 0.0528429 0.104809
1.00005 0.5 -0.374654 0.913615 0.0657536 -0.028145
1.00005 0.5 0.374654 0.912983 0.0662176 0.0959007
0.350249 0.5 1.0125 0.997884 0.0148995 0.062129
0.350249 0.5 -1.0125 0.997857 0.014867 0.00781777
1.05695 0.5 -0.180382 0.88581 0.0761929 -0.00251927
1.05695 0.5 0.180382 0.885412 0.0764764 0.0693429
1.07319 0.5 0.0709442 0.876991 0.0793974 0.0513616
0.939201 0.5 -0.525 0.937009 0.0562816 -0.0374789
0.939201 0.5 0.525 0.936386 0.056784 0.106014
1.0271 0.5 -0.331404 0.903868 0.0698971 -0.0254606
1.0271 0.5 0.331404 0.903254 0.0703432 0.0929352
1.08112 0.5 3.23815e-17 0.873637 0.0805389 0.0332571
1.04168 0.5 -0.291665 0.897156 0.0723943 -0.0208125
1.04168 0.5 0.291665 0.896584 0.0728081 0.0880845
1.08112 0.5 -0.0709442 0.874509 0.0802609 0.0181842
0.969689 0.5 -0.4875 0.928542 0.060237 -0.0383766
0.96969 0.5 0.4875 0.927864 0.0607624 0.106632
1.05695 0.5 0.252535 0.889767 0.0752709 0.0828027
1.05695 0.5 -0.252535 0.890332 0.0748815 -0.0158438
0.288069 0.5 -1.05 0.998746 0.0122058 0.0126211
0.288069 0.5 1.05 0.998769 0.0122222 0.0573064
0.075776 0.5 -1.0875 0.999564 0.00408533 0.0281095
0.075776 0.5 1.0875 0.999569 0.00407827 0.0417327
1.08112 0.5 -0.141888 0.876947 0.0795512 0.00342228
1.08145 0.5 0.140165 0.876959 0.0796636 0.0635715
0.715434 0.5 0.825 0.979672 0.0335585 0.0943939
0.715434 0.5 -0.825 0.979892 0.0332689 -0.0246499
0.756813 0.5 0.7875 0.975016 0.0367107 0.0982048
0.756814 0.5 -0.7875 0.975302 0.0363763 -0.0285626
0.67013 0.5 -0.8625 0.984138 0.0301969 -0.0204389
0.67013 0.5 0.8625 0.983987 0.0304385 0.0902681
0.797732 0.5 -0.75 0.969991 0.0397044 -0.0322838
0.797732 0.5 0.75 0.969624 0.0400876 0.101794
0.624316 0.5 -0.9 0.987658 0.0273408 -0.0161713