# UMean  POINT_DATA 63140
# x  y  z  UMean_x  UMean_y  UMean_z
0 0.1 0 0.999391 0 0.0348995
0 0.1 -0.0179898 0.999391 0 0.0348995
0 0.1 0.0179898 0.999391 0 0.0348995
0.0363518 0.1 0.0179898 1.00233 0.00746766 0.0351226
0.0363518 0.1 -0.0179898 1.00233 0.00746559 0.034718
0 0.1 -0.0570102 0.999391 0 0.0348995
0 0.1 0.0570102 0.999391 0 0.0348995
0.0363518 0.1 0.0570102 1.00233 0.00746766 0.0351226
0.0363518 0.1 -0.0570102 1.00233 0.00746559 0.034718
0 0.1 -0.075 0.999391 0 0.0348995
0 0.1 0.075 0.999391 0 0.0348995
0.075776 0.1 -0.0375 1.00556 0.0156895 0.034521
0.075776 0.1 0.0375 1.00557 0.0156938 0.0353641
0 0.1 -0.0929898 0.999391 0 0.0348995
0 0.1 0.0929898 0.999391 0 0.0348995
0.0363518 0.1 -0.0929898 1.00227 0.00743574 0.0342999
0.0363518 0.1 0.0929898 1.00228 0.00744025 0.0355397
0 0.1 -0.13201 0.999391 0 0.0348995
0 0.1 0.13201 0.999391 0 0.0348995
0.075776 0.1 -0.1125 1.00543 0.0156289 0.0336489
0.075776 0.1 0.1125 1.00546 0.015638 0.0362338
0.0363518 0.1 -0.13201 1.00227 0.00743574 0.0342999
0.0363518 0.1 0.13201 1.00228 0.00744025 0.0355397
0 0.1 -0.15 0.999391 0 0.0348995
0 0.1 0.15 0.999391 0 0.0348995
0.150379 0.1 -2.22623e-17 1.00768 0.0152057 0.034942
0 0.1 -0.16799 0.999391 0 0.0348995
0 0.1 0.16799 0.999391 0 0.0348995
0.150379 0.1 -0.075 1.00773 0.0151798 0.0334635
0.150379 0.1 0.075 1.00772 0.0151861 0.0364183
0.0363518 0.1 -0.16799 1.0022 0.00739843 0.0338979
0.0363518 0.1 0.16799 1.00222 0.00740321 0.0359397
0.075776 0.1 -0.1875 1.0053 0.0155534 0.0328102
0.075776 0.1 0.1875 1.00534 0.0155631 0.0370683
0 0.1 -0.20701 0.999391 0 0.0348995
0 0.1 0.20701 0.999391 0 0.0348995
0.0363518 0.1 -0.20701 1.0022 0.00739843 0.0338979
0.0363518 0.1 0.20701 1.00222 0.00740321 0.0359397
0.150379 0.1 -0.15 1.00789 0.0151271 0.0319793
0.150379 0.1 0.15 1.00788 0.0151361 0.0378968
0.219993 0.1 -0.0375 1.00971 0.0147442 0.0339041
0.219993 0.1 0.0375 1.00969 0.0147477 0.035979
0 0.1 -0.225 0.999391 0 0.0348995
0 0.1 0.225 0.999391 0 0.0348995
0 0.1 -0.24299 0.999391 0 0.0348995
0 0.1 0.24299 0.999391 0 0.0348995
0.0363518 0.1 0.24299 1.00217 0.00736972 0.0363231
0.0363518 0.1 -0.24299 1.00215 0.0073655 0.0335144
0.219993 0.1 -0.1125 1.01002 0.0147087 0.0318363
0.219993 0.1 0.1125 1.00997 0.014717 0.03804
0.150379 0.1 -0.225 1.00812 0.0150693 0.0305215
0.150379 0.1 0.225 1.00811 0.0150779 0.0393531
0.075776 0.1 -0.2625 1.0052 0.0154864 0.0320106
0.075776 0.1 0.2625 1.00523 0.0154952 0.0378677
0 0.1 -0.28201 0.999391 0 0.0348995
0 0.1 0.28201 0.999391 0 0.0348995
0.0363518 0.1 -0.28201 1.00215 0.0073655 0.0335144
0.0363518 0.1 0.28201 1.00217 0.00736972 0.0363231
0.287374 0.1 -2.89121e-19 1.00664 0.0142762 0.0349135
0.219992 0.1 0.1875 1.01052 0.014677 0.0401324
0.219992 0.1 -0.1875 1.01059 0.0146682 0.0297348
0.287374 0.1 -0.075 1.00679 0.0142658 0.0322195
0.287374 0.1 0.075 1.00676 0.0142703 0.0376032
0 0.1 -0.3 0.999391 0 0.0348995
0 0.1 0.3 0.999391 0 0.0348995
0 0.1 0.31799 0.999391 0 0.0348995
0 0.1 -0.31799 0.999391 0 0.0348995
0.0363518 0.1 -0.31799 1.00212 0.00733243 0.0331631
0.0363518 0.1 0.31799 1.00214 0.0073364 0.0366742
0.287374 0.1 0.15 1.00715 0.0142473 0.0402964
0.287374 0.1 -0.15 1.0072 0.0142391 0.0295169
0.150379 0.1 -0.3 1.00834 0.0150079 0.0291405
0.150379 0.1 0.3 1.00834 0.0150154 0.040739
0.219993 0.1 0.2625 1.0111 0.014626 0.0421735
0.219993 0.1 -0.2625 1.01114 0.0146188 0.0277014
0.075776 0.1 -0.3375 1.00514 0.0154185 0.0312789
0.075776 0.1 0.3375 1.00516 0.0154267 0.038599
0.350249 0.1 -0.0375 1.00372 0.013827 0.0332416
0.350249 0.1 0.0375 1.0037 0.0138285 0.0365317
0 0.1 -0.35701 0.999391 0 0.0348995
0 0.1 0.35701 0.999391 0 0.0348995
0.0363518 0.1 -0.35701 1.00212 0.00733243 0.0331631
0.0363518 0.1 0.35701 1.00214 0.0073364 0.0366742
0.287374 0.1 -0.225 1.00779 0.0141906 0.0268415
0.287374 0.1 0.225 1.00773 0.0142014 0.0429687
0.350249 0.1 -0.1125 1.00398 0.0138255 0.0299522
0.350249 0.1 0.1125 1.00393 0.0138301 0.039811
0 0.1 -0.375 0.999391 0 0.0348995
0 0.1 0.375 0.999391 0 0.0348995
0 0.1 -0.39299 0.999391 0 0.0348995
0 0.1 0.39299 0.999391 0 0.0348995
0.0363518 0.1 -0.39299 1.00211 0.00730064 0.0328444
0.0363518 0.1 0.39299 1.00212 0.00730362 0.0369904
0.350249 0.1 -0.1875 1.00451 0.0137955 0.0266534
0.350249 0.1 0.1875 1.00444 0.0138065 0.0430981
0.219992 0.1 -0.3375 1.0116 0.0145571 0.0257977
0.219992 0.1 0.3375 1.01158 0.014563 0.0440889
0.150379 0.1 0.375 1.00855 0.0149478 0.0420241
0.150379 0.1 -0.375 1.00855 0.0149427 0.0278612
0.411108 0.1 4.33681e-19 0.998403 0.0141053 0.0348308
0.287374 0.1 -0.3 1.00842 0.0141159 0.0242833
0.287374 0.1 0.3 1.00837 0.0141284 0.045535
0.411108 0.1 -0.075 0.998565 0.0141014 0.0308499
0.411108 0.1 0.075 0.998531 0.0141052 0.0388075
0.075776 0.1 -0.4125 1.0051 0.0153537 0.0306145
0.075776 0.1 0.4125 1.00512 0.0153598 0.0392581
0 0.1 0.43201 0.999391 0 0.0348995
0 0.1 -0.43201 0.999391 0 0.0348995
0.0363518 0.1 0.43201 1.00212 0.00730362 0.0369904
0.0363518 0.1 -0.43201 1.00211 0.00730064 0.0328444
0.411108 0.1 -0.15 0.999029 0.0140805 0.0268867
0.411108 0.1 0.15 0.998963 0.0140899 0.0427627
0.350249 0.1 -0.2625 1.00521 0.0137217 0.0234379
0.350249 0.1 0.2625 1.00515 0.0137379 0.0463143
0 0.1 -0.45 0.999391 0 0.0348995
0 0.1 0.45 0.999391 0 0.0348995
0.219992 0.1 0.4125 1.01205 0.0144911 0.04587
0.219992 0.1 -0.4125 1.01206 0.0144907 0.0240331
0 0.1 -0.46799 0.999391 0 0.0348995
0 0.1 0.46799 0.999391 0 0.0348995
0.411108 0.1 -0.225 0.999766 0.0140218 0.022995
0.411108 0.1 0.225 0.999685 0.014037 0.0466525
0.467897 0.1 -0.0375 0.993327 0.014369 0.0324494
0.467897 0.1 0.0375 0.993309 0.0143706 0.0371052
0.0363518 0.1 0.46799 1.00212 0.00727431 0.0372852
0.0363518 0.1 -0.46799 1.00211 0.00727147 0.0325445
0.287374 0.1 -0.375 1.00904 0.0140193 0.0218995
0.287374 0.1 0.375 1.00902 0.0140314 0.0479328
0.150379 0.1 0.45 1.00877 0.0148784 0.0431909
0.150379 0.1 -0.45 1.00876 0.014876 0.0266966
0.467897 0.1 0.1125 0.993621 0.0143657 0.0417303
0.467897 0.1 -0.1125 0.99368 0.0143583 0.0278174
0.350249 0.1 -0.3375 1.00598 0.0136095 0.0204088
0.350249 0.1 0.3375 1.00593 0.0136297 0.0493562
0.075776 0.1 -0.4875 1.00512 0.0152944 0.0299896
0.075776 0.1 0.4875 1.00513 0.0153002 0.0398726
0.467897 0.1 0.1875 0.994293 0.014332 0.0463044
0.467897 0.1 -0.1875 0.994383 0.0143174 0.0232394
0 0.1 -0.50701 0.999391 0 0.0348995
0 0.1 0.50701 0.999391 0 0.0348995
0.0363518 0.1 -0.50701 1.00211 0.00727147 0.0325445
0.0363518 0.1 0.50701 1.00212 0.00727431 0.0372852
0.411108 0.1 0.3 1.00061 0.0139381 0.0503853
0.411108 0.1 -0.3 1.00069 0.0139173 0.0192727
0.522865 0.1 1.41031e-17 0.98656 0.0150495 0.034698
0 0.1 -0.525 0.999391 0 0.0348995
0 0.1 0.525 0.999391 0 0.0348995
0.522865 0.1 -0.075 0.986784 0.0150367 0.0293249
0.522865 0.1 0.075 0.986737 0.015043 0.0400695
0.287374 0.1 0.45 1.00965 0.0139139 0.0501148
0.287374 0.1 -0.45 1.00966 0.0139037 0.0197318
0.219992 0.1 0.4875 1.01245 0.0144128 0.0474346
0.219992 0.1 -0.4875 1.01245 0.0144151 0.0224754
0.467897 0.1 -0.2625 0.995383 0.014228 0.0188165
0.467897 0.1 0.2625 0.995283 0.0142467 0.0507341
0.350249 0.1 -0.4125 1.00679 0.0134664 0.0176187
0.350249 0.1 0.4125 1.00676 0.0134878 0.0521614
0 0.1 -0.54299 0.999391 0 0.0348995
0 0.1 0.54299 0.999391 0 0.0348995
0.522865 0.1 0.15 0.987326 0.0150088 0.045381
0.522865 0.1 -0.15 0.987417 0.0149947 0.0240121
0.0363518 0.1 0.54299 1.00214 0.00724455 0.0375584
0.0363518 0.1 -0.54299 1.00214 0.00724158 0.0322681
0.150379 0.1 -0.525 1.00897 0.0148036 0.0256564
0.150379 0.1 0.525 1.00898 0.0148052 0.0442267
0.411108 0.1 -0.375 1.00173 0.0137697 0.0158032
0.411108 0.1 0.375 1.00167 0.0137959 0.0538751
0.075776 0.1 -0.5625 1.00517 0.0152331 0.0294135
0.075776 0.1 0.5625 1.00517 0.0152393 0.0404418
0.522865 0.1 -0.225 0.988439 0.0149068 0.0188408
0.522865 0.1 0.225 0.988318 0.0149281 0.0505604
0.574156 0.1 0.0375 0.980051 0.0157011 0.0376704
0.574157 0.1 -0.0375 0.980078 0.0156985 0.0315732
0.467897 0.1 -0.3375 0.996597 0.0140865 0.0146443
0.467897 0.1 0.3375 0.996503 0.0141144 0.054928
0 0.1 -0.58201 0.999391 0 0.0348995
0 0.1 0.58201 0.999391 0 0.0348995
0.0363518 0.1 -0.58201 1.00214 0.00724158 0.0322681
0.0363518 0.1 0.58201 1.00214 0.00724455 0.0375584
0.574157 0.1 -0.1125 0.980574 0.0156629 0.0255215
0.574157 0.1 0.1125 0.98049 0.0156764 0.0437221
0.287374 0.1 -0.525 1.01025 0.0137717 0.0178076
0.287374 0.1 0.525 1.01025 0.0137798 0.0520472
0 0.1 -0.6 0.999391 0 0.0348995
0 0.1 0.6 0.999391 0 0.0348995
0.350249 0.1 0.4875 1.00757 0.0133135 0.054694
0.350249 0.1 -0.4875 1.00759 0.0132931 0.0151044
0.522865 0.1 -0.3 0.989787 0.0147624 0.0139155
0.522865 0.1 0.3 0.989655 0.0147921 0.0555083
0.219992 0.1 -0.5625 1.01279 0.0143227 0.0211134
0.219992 0.1 0.5625 1.0128 0.0143199 0.0487894
0.574156 0.1 -0.1875 0.981546 0.0155835 0.0195865
0.574156 0.1 0.1875 0.981415 0.0156041 0.0496623
0.411108 0.1 0.45 1.00279 0.0136116 0.0570632
0.411108 0.1 -0.45 1.00284 0.0135838 0.0126407
0 0.1 -0.61799 0.999391 0 0.0348995
0 0.1 0.61799 0.999391 0 0.0348995
0.150379 0.1 -0.6 1.00917 0.0147252 0.0247356
0.150379 0.1 0.6 1.00918 0.0147256 0.0451396
0.0363518 0.1 -0.61799 1.00216 0.00721363 0.0320231
0.0363518 0.1 0.61799 1.00216 0.00721581 0.0378011
0.467897 0.1 -0.4125 0.997952 0.0138942 0.0108035
0.467897 0.1 0.4125 0.997873 0.0139292 0.0587998
0.623803 0.1 2.34188e-17 0.972216 0.0167109 0.0345228
0.623803 0.1 0.075 0.97246 0.0166938 0.0413662
0.623803 0.1 -0.075 0.972529 0.016683 0.0276814
0.574156 0.1 0.2625 0.982786 0.0154742 0.055384
0.574156 0.1 -0.2625 0.982947 0.0154435 0.0138884
0.623803 0.1 0.15 0.973268 0.0166258 0.0481124
0.623803 0.1 -0.15 0.973402 0.0166036 0.0209428
0.075776 0.1 0.6375 1.00522 0.0151805 0.0409476
0.075776 0.1 -0.6375 1.00521 0.015176 0.0289028
0.522865 0.1 -0.375 0.991379 0.01456 0.00933115
0.522865 0.1 0.375 0.991253 0.0145987 0.0601282
0 0.1 0.65701 0.999391 0 0.0348995
0 0.1 -0.65701 0.999391 0 0.0348995
0.0363518 0.1 0.65701 1.00216 0.00721581 0.0378011
0.0363518 0.1 -0.65701 1.00216 0.00721363 0.0320231
0.350249 0.1 0.5625 1.00838 0.013127 0.0569305
0.350249 0.1 -0.5625 1.00838 0.0131107 0.0128817
0.623803 0.1 0.225 0.974627 0.0164943 0.0546597
0.623803 0.1 -0.225 0.974811 0.0164608 0.0144179
0.287374 0.1 -0.6 1.01084 0.0136287 0.01612
0.287374 0.1 0.6 1.01084 0.0136343 0.0537365
0.574157 0.1 -0.3375 0.984704 0.0152391 0.00852891
0.574157 0.1 0.3375 0.984535 0.01528 0.0607816
0.411108 0.1 0.525 1.00394 0.0133973 0.0599124
0.411108 0.1 -0.525 1.00397 0.0133722 0.00981744
0.67013 0.1 0.0375 0.964629 0.0176846 0.0382345
0.67013 0.1 -0.0375 0.96467 0.017678 0.0306201
0.219992 0.1 -0.6375 1.01317 0.014222 0.0199133
0.219993 0.1 0.6375 1.01318 0.0142162 0.0499769
0 0.1 -0.675 0.999391 0 0.0348995
0 0.1 0.675 0.999391 0 0.0348995
0.467897 0.1 -0.4875 0.999383 0.0136618 0.0073406
0.467897 0.1 0.4875 0.999325 0.0136955 0.0623
0.67013 0.1 -0.1125 0.965356 0.0176121 0.0230723
0.67013 0.1 0.1125 0.965233 0.0176321 0.0457899
0.522865 0.1 0.45 0.993026 0.0143489 0.0643441
0.522865 0.1 -0.45 0.993138 0.0143054 0.00516025
0.150379 0.1 0.675 1.0094 0.0146446 0.045935
0.150379 0.1 -0.675 1.0094 0.0146472 0.0239318
0.623803 0.1 0.3 0.976477 0.0162916 0.0608857
0.623803 0.1 -0.3 0.976691 0.016246 0.00823229
0 0.1 -0.69299 0.999391 0 0.0348995
0 0.1 0.69299 0.999391 0 0.0348995
0.0363518 0.1 -0.69299 1.00218 0.00718938 0.0318127
0.0363518 0.1 0.69299 1.00218 0.0071907 0.038009
0.67013 0.1 -0.1875 0.966684 0.0174771 0.0157056
0.67013 0.1 0.1875 0.966488 0.0175114 0.0531739
0.574156 0.1 0.4125 0.986564 0.015021 0.0657525
0.574157 0.1 -0.4125 0.986724 0.0149704 0.00360837
0.714971 0.1 -2.8382e-17 0.95597 0.0189982 0.0343115
0.075776 0.1 -0.7125 1.00525 0.0151265 0.0284643
0.075776 0.1 0.7125 1.00526 0.0151292 0.041381
0.714971 0.1 -0.075 0.956394 0.0189507 0.0259229
0.714971 0.1 0.075 0.956296 0.0189687 0.0427067
0.67013 0.1 0.2625 0.968356 0.0173104 0.0602661
0.67013 0.1 -0.2625 0.968604 0.0172629 0.00865673
0.411108 0.1 -0.6 1.00513 0.0131443 0.00734984
0.411108 0.1 0.6 1.00511 0.0131669 0.0624037
0.350249 0.1 0.6375 1.0092 0.0129321 0.0588724
0.350249 0.1 -0.6375 1.0092 0.0129182 0.0109516
0.623803 0.1 0.375 0.978729 0.0160165 0.0666816
0.623803 0.1 -0.375 0.978953 0.0159594 0.00249263
0.714971 0.1 -0.15 0.957566 0.0188234 0.0176793
0.714971 0.1 0.15 0.957372 0.0188582 0.0509687
0.467897 0.1 -0.5625 1.00087 0.0134062 0.00428493
0.467897 0.1 0.5625 1.00082 0.0134358 0.0653891
0 0.1 -0.73201 0.999391 0 0.0348995
0 0.1 0.73201 0.999391 0 0.0348995
0.0363518 0.1 0.73201 1.00218 0.0071907 0.038009
0.0363518 0.1 -0.73201 1.00218 0.00718938 0.0318127
0.287374 0.1 -0.675 1.01145 0.0134777 0.014663
0.287374 0.1 0.675 1.01146 0.0134802 0.0551928
0.522865 0.1 -0.525 0.995007 0.0140127 0.0014486
0.522865 0.1 0.525 0.994909 0.0140558 0.0681043
0.219993 0.1 -0.7125 1.01358 0.0141195 0.0188773
0.219992 0.1 0.7125 1.01359 0.0141082 0.0510025
0.714971 0.1 -0.225 0.959453 0.0186057 0.00972551
0.714971 0.1 0.225 0.959179 0.0186591 0.0589609
0 0.1 0.75 0.999391 0 0.0348995
0 0.1 -0.75 0.999391 0 0.0348995
0.67013 0.1 -0.3375 0.971023 0.0169654 0.00206755
0.67013 0.1 0.3375 0.970748 0.0170279 0.0669109
0.574156 0.1 -0.4875 0.988925 0.0146486 -0.000810995
0.574157 0.1 0.4875 0.988777 0.0147028 0.0702326
0.756813 0.1 0.0375 0.947549 0.0202717 0.0388077
0.756814 0.1 -0.0375 0.947606 0.0202605 0.0295914
0.150379 0.1 0.746002 1.00954 0.0145792 0.0464863
0.150379 0.1 -0.75 1.00962 0.0145709 0.0232516
0.756813 0.1 -0.1125 0.948516 0.020155 0.0204685
0.756813 0.1 0.1125 0.948343 0.0201887 0.0479491
0 0.1 0.76799 0.999391 0 0.0348995
0 0.1 -0.76799 0.999391 0 0.0348995
0.0363518 0.1 0.76799 1.0022 0.00716938 0.0381806
0.0363518 0.1 -0.76799 1.00219 0.0071681 0.0316387
0.623803 0.1 -0.45 0.981502 0.0156065 -0.00271045
0.623803 0.1 0.45 0.98128 0.0156734 0.0719552
0.714971 0.1 -0.3 0.961974 0.0182932 0.00221259
0.714971 0.1 0.3 0.961645 0.0183655 0.0665376
0.756814 0.1 -0.1875 0.950267 0.0199539 0.0115829
0.756814 0.1 0.1875 0.949985 0.0200048 0.0568641
0.67013 0.1 -0.4125 0.973848 0.0165933 -0.00397892
0.67013 0.1 0.4125 0.97356 0.0166667 0.0730375
0.411108 0.1 0.675 1.00631 0.0129234 0.0645299
0.411108 0.1 -0.675 1.00633 0.0129025 0.00524502
0.467897 0.1 0.6375 1.00236 0.0131585 0.0680538
0.467897 0.1 -0.6375 1.0024 0.0131284 0.00165519
0.075776 0.1 0.7875 1.00529 0.0150858 0.0417387
0.075776 0.1 -0.7875 1.00528 0.0150831 0.0281018
0.350249 0.1 -0.7125 1.01003 0.0127145 0.00931902
0.350249 0.1 0.7125 1.01004 0.0127264 0.0605125
0.522865 0.1 -0.6 0.996956 0.0136924 -0.00177462
0.522865 0.1 0.6 0.996866 0.0137351 0.0713761
0.797314 0.1 -3.59473e-17 0.938289 0.0219552 0.0340706
0.287374 0.1 0.746002 1.01209 0.0133421 0.0562704
0.797314 0.1 -0.075 0.938844 0.0218831 0.024056
0.797314 0.1 0.075 0.938707 0.0219115 0.0440961
0.756814 0.1 -0.2625 0.952799 0.0196367 0.00311809
0.756814 0.1 0.2625 0.952431 0.0197165 0.0653922
0.287374 0.1 -0.75 1.01208 0.0133218 0.0134415
0.574156 0.1 -0.5625 0.991253 0.0142918 -0.00468476
0.574156 0.1 0.5625 0.991114 0.0143455 0.074168
0 0.1 0.80701 0.999391 0 0.0348995
0 0.1 -0.80701 0.999391 0 0.0348995
0.714971 0.1 -0.375 0.965027 0.0178894 -0.00472796
0.714971 0.1 0.375 0.964665 0.0179786 0.0735613
0.0363518 0.1 0.80701 1.0022 0.00716938 0.0381806
0.0363518 0.1 -0.80701 1.00219 0.0071681 0.0316387
0.797314 0.1 -0.15 0.940364 0.0216933 0.0142288
0.797314 0.1 0.15 0.940093 0.0217491 0.0539519
0.623803 0.1 -0.525 0.984256 0.0152029 -0.00731074
0.623803 0.1 0.525 0.98404 0.0152755 0.0766334
0.219992 0.1 0.7875 1.014 0.014001 0.0518543
0.219992 0.1 -0.7875 1.01399 0.0140124 0.0180187
0.149792 0.1 0.80701 1.00979 0.0145105 0.0470282
0 0.1 0.825 0.999391 0 0.0348995
0 0.1 -0.825 0.999391 0 0.0348995
0.797314 0.1 -0.225 0.942805 0.0213764 0.004775
0.797314 0.1 0.225 0.942417 0.0214651 0.0634619
0.756813 0.1 -0.3375 0.955989 0.0192194 -0.00478499
0.756813 0.1 0.3375 0.955567 0.0193174 0.073387
0.67013 0.1 0.4875 0.976681 0.0162367 0.0785147
0.67013 0.1 -0.4875 0.976969 0.0161486 -0.00936664
0.835106 0.1 -0.0375 0.92932 0.0235772 0.0284993
0.835106 0.1 0.0375 0.92924 0.0235961 0.0393917
0.150379 0.1 -0.825 1.00984 0.014497 0.0226993
0.835106 0.1 -0.1125 0.930487 0.0234257 0.017723
0.835106 0.1 0.1125 0.930251 0.0234752 0.0501927
0 0.1 -0.84299 0.999391 0 0.0348995
0 0.1 0.84299 0.999391 0 0.0348995
0.0363518 0.1 -0.84299 1.0022 0.00715025 0.0315013
0.0363518 0.1 0.84299 1.00221 0.00715122 0.038316
0.714971 0.1 -0.45 0.968501 0.0174041 -0.0109852
0.714971 0.1 0.45 0.968125 0.0175101 0.0799197
0.411108 0.1 0.746002 1.00752 0.0126826 0.0661217
0.797314 0.1 -0.3 0.946068 0.020935 -0.00412745
0.797314 0.1 0.3 0.945592 0.0210535 0.0724577
0.467897 0.1 -0.7125 1.00397 0.0128391 -0.000545135
0.467897 0.1 0.7125 1.00393 0.0128661 0.0702843
0.522865 0.1 0.675 0.998873 0.0133949 0.0741449
0.522865 0.1 -0.675 0.998959 0.0133521 -0.0044955
0.411108 0.1 -0.75 1.00754 0.0126522 0.00350466
0.835106 0.1 -0.1875 0.932728 0.0231271 0.0072482
0.835107 0.1 0.1875 0.932338 0.0232153 0.0607091
0.286844 0.1 0.80701 1.01258 0.0132023 0.0571809
0.574156 0.1 0.6375 0.993535 0.0139615 0.0775355
0.574157 0.1 -0.6375 0.993669 0.013905 -0.0079891
0.350249 0.1 -0.7875 1.01088 0.0125085 0.00798403
0.350249 0.1 0.7875 1.01089 0.0125182 0.0618559
0.756813 0.1 -0.4125 0.959738 0.0186959 -0.0119674
0.756814 0.1 0.4125 0.959281 0.0188173 0.0806738
0.623803 0.1 -0.6 0.987151 0.0147629 -0.0112728
0.623803 0.1 0.6 0.986941 0.0148386 0.0806769
0.075776 0.1 0.8625 1.00531 0.0150489 0.0420206
0.075776 0.1 -0.8625 1.0053 0.0150468 0.0278154
0.871687 0.1 -3.2767e-18 0.919658 0.0255715 0.0338053
0.287374 0.1 -0.825 1.01271 0.0131645 0.012457
0.871687 0.1 -0.075 0.920355 0.0254673 0.0220973
0.871687 0.1 0.075 0.920175 0.025511 0.0455283
0.67013 0.1 -0.5625 0.9803 0.0156621 -0.0140544
0.67013 0.1 0.5625 0.980016 0.0157553 0.0833012
0.835106 0.1 0.2625 0.93544 0.0228141 0.0707424
0.835106 0.1 -0.2625 0.935951 0.0226798 -0.00269504
0.797314 0.1 -0.375 0.950032 0.0203763 -0.012311
0.797314 0.1 0.375 0.949496 0.0205187 0.0807553
0 0.1 -0.88201 0.999391 0 0.0348995
0 0.1 0.88201 0.999391 0 0.0348995
0.0363518 0.1 0.88201 1.00221 0.00715122 0.038316
0.0363518 0.1 -0.88201 1.0022 0.00715025 0.0315013
0.871687 0.1 0.15 0.921897 0.0252827 0.057043
0.871687 0.1 -0.15 0.922254 0.0251953 0.0106226
0.714971 0.1 0.525 0.971902 0.016975 0.0855301
0.714971 0.1 -0.525 0.972281 0.0168567 -0.0164804
0.219993 0.1 0.8625 1.01441 0.0138919 0.05253
0.219992 0.1 -0.8625 1.01439 0.0139065 0.0173376
0 0.1 0.9 0.999391 0 0.0348995
0 0.1 -0.9 0.999391 0 0.0348995
0.756813 0.1 0.4875 0.963441 0.0182397 0.0871801
0.756814 0.1 -0.4875 0.963906 0.0181002 -0.0183442
0.871687 0.1 0.225 0.924781 0.0248893 0.0681325
0.871687 0.1 -0.225 0.925295 0.0247509 -0.000389984
0.835106 0.1 -0.3375 0.940035 0.0221009 -0.0119506
0.835106 0.1 0.3375 0.939437 0.0222606 0.0801251
0.41063 0.1 0.80701 1.00846 0.0124785 0.0673858
0.90582 0.1 -0.0375 0.910347 0.02748 0.0273543
0.905821 0.1 0.0375 0.910245 0.0275096 0.0399832
0.522865 0.1 0.746002 1.00087 0.0130538 0.0762186
0.150379 0.1 0.9 1.01007 0.0144191 0.0475757
0.90582 0.1 0.1125 0.911478 0.0273407 0.0525055
0.905821 0.1 -0.1125 0.911782 0.0272645 0.014867
0.522865 0.1 -0.75 1.00098 0.0130005 -0.00671333
0.574156 0.1 0.7125 0.996002 0.0135586 0.0803229
0.574156 0.1 -0.7125 0.996132 0.0135021 -0.0107146
0.797314 0.1 -0.45 0.954559 0.0197188 -0.0196424
0.797314 0.1 0.45 0.953986 0.0198845 0.0882249
0.467897 0.1 -0.7875 1.00554 0.0125409 -0.0023177
0.467897 0.1 0.7875 1.00551 0.0125689 0.0720866
0.150379 0.1 -0.903998 1.01014 0.0144202 0.0221901
0 0.1 0.91799 0.999391 0 0.0348995
0 0.1 -0.91799 0.999391 0 0.0348995
0.0363518 0.1 0.91799 1.00221 0.00713518 0.0384157
0.0363518 0.1 -0.91799 1.00221 0.00713439 0.031399
0.623803 0.1 0.675 0.989924 0.0143753 0.0840638
0.623803 0.1 -0.675 0.990131 0.0142975 -0.0145777
0.411108 0.1 -0.825 1.00875 0.0124001 0.00212435
0.871687 0.1 0.3 0.928728 0.0243293 0.0785946
0.871687 0.1 -0.3 0.929369 0.0241438 -0.0107296
0.67013 0.1 -0.6375 0.983767 0.0151375 -0.0180099
0.67013 0.1 0.6375 0.983487 0.0152354 0.0873577
0.90582 0.1 -0.1875 0.914525 0.0268447 0.00275264
0.90582 0.1 0.1875 0.914027 0.0269793 0.0646786
0.350249 0.1 0.8625 1.01173 0.0123081 0.0629086
0.350249 0.1 -0.8625 1.01172 0.0123026 0.00693904
0.835106 0.1 -0.4125 0.944837 0.0213911 -0.0203054
0.835106 0.1 0.4125 0.944176 0.0215797 0.0886118
0.714971 0.1 -0.6 0.97627 0.0162646 -0.0211682
0.714971 0.1 0.6 0.97589 0.016389 0.0903401
0.93886 0.1 -1.15648e-17 0.900413 0.0301154 0.033521
0.075776 0.1 0.9375 1.00533 0.0150163 0.0422283
0.075776 0.1 -0.9375 1.00531 0.0150145 0.0276025
0.93886 0.1 0.075 0.901035 0.0300341 0.0470369
0.93886 0.1 -0.075 0.901265 0.0299677 0.0200257
0.756813 0.1 0.5625 0.967899 0.0175936 0.09282
0.756814 0.1 -0.5625 0.968371 0.0174432 -0.0238423
0.905821 0.1 -0.2625 0.918466 0.026237 -0.00872187
0.905821 0.1 0.2625 0.917809 0.0264319 0.0762696
0.287374 0.1 0.9 1.01334 0.0130025 0.0581523
0.287374 0.1 -0.903998 1.01324 0.0130046 0.0116491
0.871687 0.1 0.375 0.933591 0.0236093 0.0882142
0.871687 0.1 -0.375 0.93433 0.0233873 -0.0201871
0.93886 0.1 -0.15 0.903574 0.029589 0.00681601
0.93886 0.1 0.15 0.903119 0.0297203 0.0603017
0.797314 0.1 0.525 0.958911 0.0191679 0.0947813
0.797314 0.1 -0.525 0.959501 0.0189853 -0.0260383
0 0.1 0.95701 0.999391 0 0.0348995
0 0.1 -0.95701 0.999391 0 0.0348995
0.0363518 0.1 0.95701 1.00221 0.00713518 0.0384157
0.0363518 0.1 -0.95701 1.00221 0.00713439 0.031399
0.522433 0.1 0.80701 1.00245 0.0127721 0.0778018
0.219992 0.1 0.9375 1.0148 0.0137845 0.0530301
0.219992 0.1 -0.9375 1.01478 0.0137991 0.0168299
0.93886 0.1 0.225 0.906609 0.0291832 0.0730527
0.93886 0.1 -0.225 0.907265 0.0289819 -0.00583751
0.90582 0.1 0.3375 0.922696 0.0256986 0.0870704
0.905821 0.1 -0.3375 0.923489 0.0254476 -0.0193671
0.835106 0.1 -0.4875 0.950192 0.0205965 -0.0276836
0.835107 0.1 0.4875 0.949492 0.0208073 0.0961758
0.969689 0.1 -0.0375 0.89083 0.0326422 0.0261288
0.969689 0.1 0.0375 0.890702 0.0326858 0.0406244
0.61613 0.1 0.75 0.992937 0.0138976 0.0867931
0.574156 0.1 -0.7875 0.998596 0.0130909 -0.0128697
0.574156 0.1 0.7875 0.998473 0.0131479 0.0825383
0 0.1 0.975 0.999391 0 0.0348995
0 0.1 -0.975 0.999391 0 0.0348995
0.623803 0.1 -0.75 0.993137 0.0138192 -0.0172269
0.969689 0.1 -0.1125 0.892568 0.0323414 0.0118046
0.969689 0.1 0.1125 0.892184 0.032457 0.054996
0.522865 0.1 -0.825 1.00299 0.0126451 -0.00843648
0.67013 0.1 0.7125 0.987024 0.0146944 0.0906717
0.67013 0.1 -0.7125 0.9873 0.0145957 -0.0212233
0.871687 0.1 -0.45 0.939999 0.022512 -0.0286152
0.871687 0.1 0.45 0.939198 0.0227602 0.0968289
0.467897 0.1 0.8625 1.00706 0.0122689 0.073472
0.467897 0.1 -0.8625 1.00709 0.0122464 -0.00367083
0.714971 0.1 -0.675 0.980377 0.0156438 -0.0250273
0.714971 0.1 0.675 0.979999 0.0157705 0.0943226
0.93886 0.1 -0.3 0.912218 0.028159 -0.0176838
0.93886 0.1 0.3 0.911389 0.0284321 0.0850479
0.150379 0.1 0.975 1.01027 0.0143494 0.0478727
0.150379 0.1 -0.975 1.01025 0.0143556 0.0219708
0.969689 0.1 -0.1875 0.895878 0.0317657 -0.00206444
0.969689 0.1 0.1875 0.895249 0.0319632 0.0689441
0.411108 0.1 0.9 1.00993 0.0121619 0.068739
0.756813 0.1 0.6375 0.972548 0.0169031 0.0975514
0.756814 0.1 -0.6375 0.973024 0.0167488 -0.0284281
0.990306 0.1 -2.19732e-17 0.885187 0.0341305 0.0332869
0 0.1 0.99299 0.999391 0 0.0348995
0 0.1 -0.99299 0.999391 0 0.0348995
0.411108 0.1 -0.903998 1.00977 0.0121718 0.0010566
0.990306 0.1 -0.075 0.886165 0.0339453 0.0183947
0.990306 0.1 0.075 0.885896 0.0340327 0.048204
0.0363518 0.1 0.99299 1.00222 0.00712114 0.0384812
0.0363518 0.1 -0.99299 1.00221 0.00711993 0.0313316
0.90582 0.1 -0.4125 0.929396 0.0245061 -0.0289062
0.905821 0.1 0.4125 0.9285 0.0247919 0.0968415
0.797314 0.1 -0.6 0.964725 0.0181947 -0.0314382
0.797314 0.1 0.6 0.964124 0.0183871 0.100349
0.350249 0.1 0.9375 1.01254 0.0121012 0.0636759
0.350249 0.1 -0.9375 1.01252 0.0120959 0.00617423
0.990306 0.1 0.15 0.888276 0.033648 0.0628378
0.990306 0.1 -0.15 0.888808 0.0334764 0.00382813
0.969689 0.1 -0.2625 0.900633 0.0309452 -0.0151792
0.969689 0.1 0.2625 0.899797 0.0312217 0.0821942
0.835106 0.1 -0.5625 0.955935 0.0197165 -0.0339863
0.835106 0.1 0.5625 0.955218 0.0199439 0.102662
0.93886 0.1 -0.375 0.918258 0.0271438 -0.0284806
0.93886 0.1 0.375 0.91729 0.0274751 0.0960549
0.075776 0.1 1.0125 1.00533 0.0149877 0.0423648
0.075776 0.1 -1.0125 1.00532 0.014985 0.0274622
0.990306 0.1 -0.225 0.893032 0.0327319 -0.0101125
0.990306 0.1 0.225 0.892262 0.03299 0.0768906
0.287374 0.1 0.975 1.01393 0.0128456 0.0586795
0.287374 0.1 -0.975 1.01391 0.0128489 0.0111761
0.871687 0.1 -0.525 0.94619 0.021542 -0.0359193
0.871687 0.1 0.525 0.945356 0.0218107 0.104331
1.02149 0.1 -0.0369628 0.87393 0.0373178 0.0251716
1.02149 0.1 0.0369628 0.87378 0.0373729 0.040963
0.969689 0.1 -0.3375 0.906705 0.0298776 -0.027292
0.969689 0.1 0.3375 0.90568 0.0302451 0.0944945
1.02149 0.1 -0.110888 0.875879 0.0369528 0.00956563
1.02149 0.1 0.110888 0.875429 0.0371061 0.0566238
0.90582 0.1 0.4875 0.935036 0.0237625 0.105446
0.90582 0.1 -0.4875 0.935977 0.0234579 -0.037316
0.623803 0.1 0.819003 0.995039 0.0135448 0.0892643
0 0.1 1.03201 0.999391 0 0.0348995
0 0.1 -1.03201 0.999391 0 0.0348995
0.0363518 0.1 1.03201 1.00222 0.00712114 0.0384812
0.0363518 0.1 -1.03201 1.00221 0.00711993 0.0313316
0.67013 0.1 -0.7875 0.990827 0.0140435 -0.0237114
0.67013 0.1 0.7875 0.990561 0.0141435 0.0932557
0.623803 0.1 -0.825 0.996113 0.0133357 -0.0192349
0.990306 0.1 -0.3 0.898703 0.0317259 -0.0231438
0.990306 0.1 0.3 0.897723 0.0320764 0.0900902
0.219992 0.1 -1.0125 1.01514 0.0136919 0.0164923
0.219993 0.1 1.0125 1.01516 0.0136779 0.0533624
0.574156 0.1 0.8625 1.0009 0.0127334 0.0841999
0.574157 0.1 -0.8625 1.00102 0.0126783 -0.0144692
0.714971 0.1 -0.75 0.984515 0.0150082 -0.0280617
0.714971 0.1 0.75 0.984145 0.0151359 0.097478
1.02149 0.1 0.184814 0.878843 0.0365243 0.0718298
1.02149 0.1 -0.184814 0.87958 0.036269 -0.00554311
0.756814 0.1 -0.7125 0.977761 0.0160329 -0.0320915
0.756814 0.1 0.7125 0.977288 0.0161868 0.10136
0.522865 0.1 0.9 1.00489 0.0123291 0.0794704
0.93886 0.1 -0.45 0.925162 0.0259856 -0.0380729
0.93886 0.1 0.45 0.924106 0.0263484 0.105863
1.04168 0.1 0 0.866839 0.0395023 0.0329944
1.04168 0.1 -0.0729162 0.867909 0.0392789 0.0168265
1.04168 0.1 0.0729162 0.867605 0.0393916 0.0491904
0.522865 0.1 -0.903998 1.00471 0.0123298 -0.00970663
0.797314 0.1 -0.675 0.970105 0.0173739 -0.0358194
0.797314 0.1 0.675 0.969499 0.0175687 0.104902
0.467897 0.1 0.9375 1.00857 0.0119708 0.0744534
0.467897 0.1 -0.9375 1.00858 0.0119496 -0.00463182
0 0.1 1.05 0.999391 0 0.0348995
0 0.1 -1.05 0.999391 0 0.0348995
0.835106 0.1 -0.6375 0.961929 0.0187929 -0.039178
0.835106 0.1 0.6375 0.961198 0.0190279 0.108051
1.04168 0.1 -0.145832 0.870792 0.0387231 0.00100532
1.04168 0.1 0.145832 0.870189 0.0389432 0.0650891
1.02149 0.1 -0.25874 0.884907 0.0352954 -0.0198482
1.02149 0.1 0.25874 0.883919 0.0356501 0.0862859
0.969689 0.1 -0.4125 0.913834 0.0286228 -0.0381481
0.969689 0.1 0.4125 0.912684 0.0290404 0.105615
0.411108 0.1 0.975 1.01107 0.0119115 0.0694538
0.411108 0.1 -0.975 1.01106 0.0118955 0.000390314
0.871687 0.1 -0.6 0.952736 0.0205017 -0.0420187
0.871687 0.1 0.6 0.951877 0.0207851 0.110644
1.0579 0.1 -0.0360525 0.861426 0.0412176 0.0244745
1.0579 0.1 0.0360525 0.861254 0.0412831 0.0410787
0.990306 0.1 -0.375 0.905618 0.0304901 -0.0350075
0.990306 0.1 0.375 0.904473 0.0309179 0.102189
0.150379 0.1 1.05 1.01045 0.0142824 0.0480526
0.150379 0.1 -1.05 1.01043 0.0142883 0.0217863
1.0579 0.1 0.108157 0.862937 0.0409952 0.0575533
1.0579 0.1 -0.108157 0.863453 0.0408092 0.00806217
1.04168 0.1 -0.218749 0.875404 0.037846 -0.0141566
1.04168 0.1 0.218749 0.874527 0.0381726 0.0803749
0.90582 0.1 -0.5625 0.943028 0.0223083 -0.0444163
0.90582 0.1 0.5625 0.942057 0.0226376 0.112773
0 0.1 -1.06799 0.999391 0 0.0348995
0 0.1 1.06799 0.999391 0 0.0348995
0.0363518 0.1 -1.06799 1.00221 0.00710905 0.0312969
0.0363518 0.1 1.06799 1.00222 0.00710919 0.0385141
0.350249 0.1 1.0125 1.01332 0.0118991 0.0641753
0.350249 0.1 -1.0125 1.0133 0.0118897 0.00568198
1.0579 0.1 -0.180262 0.867289 0.0400529 -0.00783636
1.0579 0.1 0.180262 0.866445 0.040359 0.073565
1.02149 0.1 -0.332665 0.891705 0.0340362 -0.0330655
1.02149 0.1 0.332665 0.890494 0.0345034 0.09972
0.93886 0.1 -0.525 0.932711 0.024713 -0.0463323
0.93886 0.1 0.525 0.931598 0.0250996 0.11437
1.08012 0.1 5.49329e-18 0.853275 0.0440008 0.0326955
1.04168 0.1 -0.291665 0.881609 0.0366639 -0.0283584
1.04168 0.1 0.291665 0.880488 0.0371039 0.0947595
1.08012 0.1 0.0709941 0.854049 0.0438853 0.0497543
1.08012 0.1 -0.0709941 0.854393 0.0437497 0.015668
0.969689 0.1 -0.4875 0.9218 0.0272427 -0.0476822
0.96969 0.1 0.4875 0.92057 0.0276824 0.115322
1.0579 0.1 0.252367 0.871679 0.0393993 0.0888095
1.0579 0.1 -0.252367 0.872817 0.0389768 -0.0229133
0.990306 0.1 -0.45 0.913535 0.0290863 -0.0455206
0.990306 0.1 0.45 0.912272 0.0295547 0.112946
0.287374 0.1 -1.05 1.01446 0.0126928 0.0108602
0.287374 0.1 1.05 1.01448 0.0126908 0.0589959
0.714971 0.1 0.821002 0.987888 0.0145554 0.0998045
1.08012 0.1 -0.141988 0.857382 0.0431348 -0.00100373
1.08012 0.1 0.141988 0.8567 0.0433994 0.0665142
0.075776 0.1 1.0875 1.00534 0.0149633 0.0424332
0.075776 0.1 -1.0875 1.00532 0.0149629 0.0273899
0.714971 0.1 -0.825 0.9886 0.0143701 -0.0302934
0.756813 0.1 -0.7875 0.982476 0.0153065 -0.0348521
0.756814 0.1 0.7875 0.982016 0.0154627 0.104261
0.67013 0.1 -0.8625 0.99428 0.0134914 -0.0254911
0.67013 0.1 0.8625 0.994028 0.0135938 0.095135
0.797314 0.1 -0.75 0.975513 0.016541 -0.0391916
0.797314 0.1 0.75 0.974916 0.016734 0.108444
0.623803 0.1 0.9 0.998824 0.0129346 0.0903553
0.835106 0.1 -0.7125 0.968024 0.0178511 -0.0432463
0.835106 0.1 0.7125 0.967291 0.0180844 0.11232
0.623803 0.1 -0.903998 0.99866 0.0129118 -0.0206461
0.574156 0.1 0.9375 1.00324 0.0123228 0.0853327
0.574156 0.1 -0.9375 1.00334 0.0122708 -0.0155499
1.02149 0.1 -0.406591 0.899718 0.0325549 -0.0449497
1.02149 0.1 0.406591 0.898344 0.0330939 0.111889
1.08012 0.1 -0.212982 0.862165 0.042168 -0.0170027