# Wall shear stress
# Time        	patch         	min           	max           
2000          	WALL	(-1.459429e-02 -2.520141e-03 -3.184009e-02)	(1.077993e-02 1.238115e-03 3.190836e-02)
2000          	CUBE1	(-1.488551e-02 -4.299944e-02 -4.355267e-02)	(1.948237e-02 9.969434e-03 4.356503e-02)
2000          	CUBE2	(-2.270850e-02 -1.232862e-02 -1.694991e-02)	(5.908703e-03 8.698577e-03 1.539335e-02)
