# wallShearStress  FACE_DATA 60650
# x  y  z  wallShearStress_x  wallShearStress_y  wallShearStress_z
8.75721 0 0.345731 0.000717328 -3.42028e-06 -3.20771e-05
8.72516 0 0.336919 0.000661132 -3.91233e-06 -3.79176e-05
8.69439 0 0.328456 0.000586394 -4.05209e-06 -4.81841e-05
8.66483 0 0.320329 0.000505673 -3.81736e-06 -5.91518e-05
8.63646 0 0.312526 0.000444242 -3.90451e-06 -8.02923e-05
8.6092 0 0.305031 0.000385376 -4.40357e-06 -0.000106387
8.58303 0 0.297833 0.000329523 -4.66962e-06 -0.000135151
8.82531 0 0.430728 0.000803612 -5.60644e-06 0.000203419
8.79057 0 0.419435 0.000759517 -4.74284e-06 0.000176606
8.75721 0 0.408591 0.000703858 -4.46005e-06 0.000148158
8.72516 0 0.398176 0.000644095 -4.44872e-06 0.000120102
8.69439 0 0.388175 0.000576497 -4.65491e-06 9.01384e-05
8.66483 0 0.378571 0.000508212 -4.88526e-06 5.31023e-05
8.63646 0 0.369348 0.0004453 -5.26473e-06 1.20855e-05
8.6092 0 0.360491 0.000381295 -4.9866e-06 -3.06415e-05
8.58303 0 0.351985 0.000322491 -5.23236e-06 -7.4656e-05
8.5579 0 0.343817 0.000265328 -5.31173e-06 -0.000117991
8.53376 0 0.335973 0.000213897 -4.39897e-06 -0.00016123
8.51058 0 0.32844 0.000170277 -3.66611e-06 -0.000204382
8.9384 0 0.539403 0.000903815 -9.71912e-06 0.000726662
8.89917 0 0.52469 0.000874144 -7.92556e-06 0.000658141
8.8615 0 0.510562 0.000838156 -6.90839e-06 0.000585639
8.82531 0 0.496994 0.000800295 -6.38696e-06 0.000526483
8.79057 0 0.483964 0.000759639 -5.52215e-06 0.00046433
8.75721 0 0.471451 0.000704198 -5.17839e-06 0.000405184
8.72516 0 0.459434 0.000651513 -4.87653e-06 0.000345936
8.69439 0 0.447895 0.000591958 -4.7099e-06 0.000285661
8.66483 0 0.436813 0.000524927 -4.77379e-06 0.000223114
8.63646 0 0.426171 0.00046203 -5.33089e-06 0.000158854
8.6092 0 0.415951 0.000397633 -5.57537e-06 9.39292e-05
8.58303 0 0.406136 0.000332857 -5.79682e-06 3.07002e-05
8.5579 0 0.396712 0.000270019 -5.18696e-06 -3.03366e-05
8.53376 0 0.387661 0.000212483 -5.06642e-06 -9.02323e-05
8.51058 0 0.378969 0.00016177 -4.55829e-06 -0.000147892
8.48833 0 0.370622 0.000120368 -3.72757e-06 -0.000204239
8.46695 0 0.362605 8.83501e-05 -2.03184e-06 -0.000259446
8.9384 0 0.611323 0.000904059 -8.10898e-06 0.00108747
8.89917 0 0.594649 0.00087627 -6.87487e-06 0.000997596
8.8615 0 0.578636 0.000845769 -6.34657e-06 0.000901407
8.82531 0 0.563259 0.000800965 -6.0313e-06 0.000819139
8.79057 0 0.548492 0.000769646 -5.52692e-06 0.000734017
8.75721 0 0.534311 0.000720074 -5.34855e-06 0.000652618
8.72516 0 0.520692 0.000672375 -5.09519e-06 0.000571492
8.69439 0 0.507614 0.000618236 -4.86781e-06 0.00049284
8.66483 0 0.495055 0.000557205 -4.70705e-06 0.000411215
8.63646 0 0.482994 0.00049772 -4.67179e-06 0.000328263
8.6092 0 0.471411 0.000433388 -4.82009e-06 0.000245784
8.58303 0 0.460288 0.000366211 -5.2702e-06 0.000163705
8.5579 0 0.449607 0.000298091 -5.48554e-06 8.39932e-05
8.53376 0 0.439349 0.000232655 -5.66678e-06 6.71611e-06
8.51058 0 0.429498 0.000172227 -4.59403e-06 -6.78389e-05
8.48833 0 0.420038 0.000120235 -4.64065e-06 -0.00013916
8.46695 0 0.410953 7.812e-05 -3.57847e-06 -0.000207405
8.44642 0 0.402229 4.76037e-05 -1.93204e-06 -0.000273454
8.42671 0 0.393851 2.82269e-05 -1.92676e-06 -0.000337819
8.9384 0 0.683243 0.000911077 -7.44902e-06 0.00137696
8.89917 0 0.664607 0.00089122 -5.57222e-06 0.00126666
8.8615 0 0.646711 0.000860409 -5.45089e-06 0.00116361
8.82531 0 0.629525 0.000819803 -5.0258e-06 0.00106445
8.79057 0 0.613021 0.000793305 -4.94313e-06 0.000967582
8.75721 0 0.597171 0.000748803 -4.77601e-06 0.000873898
8.72516 0 0.58195 0.0007064 -4.74593e-06 0.000778983
8.69439 0 0.567333 0.000657178 -4.77618e-06 0.000687967
8.66483 0 0.553296 0.000602958 -4.90812e-06 0.00059459
8.63646 0 0.539816 0.000547375 -5.18406e-06 0.000501032
8.6092 0 0.526871 0.000486539 -4.95301e-06 0.000407487
8.58303 0 0.51444 0.00042091 -4.77344e-06 0.000312986
8.5579 0 0.502501 0.000351233 -4.7676e-06 0.000218462
8.53376 0 0.491037 0.00027999 -5.26671e-06 0.000124785
8.51058 0 0.480027 0.000209805 -5.43099e-06 3.39448e-05
8.48833 0 0.469454 0.000145151 -4.56674e-06 -5.39258e-05
8.46695 0 0.4593 8.92709e-05 -4.25008e-06 -0.000137581
8.44642 0 0.44955 4.56273e-05 -3.28863e-06 -0.000217124
8.42671 0 0.440186 1.54161e-05 -1.741e-06 -0.000293544
8.40778 0 0.431194 -2.12901e-06 -2.33625e-06 -0.000366485
8.38959 0 0.422558 -8.75751e-06 -1.88488e-06 -0.000435285
8.9384 0 0.755163 0.000938259 -6.33451e-06 0.00160494
8.89917 0 0.734566 0.000922923 -4.75263e-06 0.00148778
8.8615 0 0.714786 0.000887542 -4.60168e-06 0.00137945
8.82531 0 0.69579 0.000853896 -4.25701e-06 0.00126775
8.79057 0 0.677549 0.000826141 -4.50847e-06 0.00116653
8.75721 0 0.660031 0.000788657 -4.36592e-06 0.00106803
8.72516 0 0.643208 0.000751103 -4.33791e-06 0.000967492
8.69439 0 0.627053 0.000705794 -4.39936e-06 0.000868815
8.66483 0 0.611538 0.000657733 -4.58273e-06 0.000768834
8.63646 0 0.596639 0.000607516 -4.95534e-06 0.000668887
8.6092 0 0.582331 0.00055286 -4.96617e-06 0.000569417
8.58303 0 0.568591 0.000491993 -5.19501e-06 0.000467804
8.5579 0 0.555397 0.000424981 -4.9619e-06 0.000364592
8.53376 0 0.542725 0.000352825 -4.68575e-06 0.000259487
8.51058 0 0.530556 0.000277334 -5.10632e-06 0.000154647
8.48833 0 0.518871 0.000202229 -5.60879e-06 5.15093e-05
8.46695 0 0.507648 0.000131944 -4.62795e-06 -4.83377e-05
8.44642 0 0.496871 7.18478e-05 -4.22188e-06 -0.000143834
8.42671 0 0.486522 2.54724e-05 -3.88506e-06 -0.000234132
8.40778 0 0.476583 -5.34541e-06 -2.39172e-06 -0.000320421
8.38959 0 0.467038 -2.2726e-05 -1.70319e-06 -0.000401655
8.9384 0 0.827083 0.000980195 -8.42757e-06 0.00180346
8.89917 0 0.804525 0.000948678 -4.67083e-06 0.00169386
8.8615 0 0.782861 0.000927233 -6.35175e-06 0.00157102
8.82531 0 0.762056 0.000897292 -4.01185e-06 0.00145846
8.79057 0 0.742077 0.000862219 -4.04248e-06 0.00134831
8.75721 0 0.722891 0.000831275 -4.02873e-06 0.00124212
8.72516 0 0.704466 0.000800146 -4.12638e-06 0.00114011
8.69439 0 0.686772 0.000761661 -4.16315e-06 0.00103941
8.66483 0 0.66978 0.000719948 -4.18641e-06 0.000935742
8.63646 0 0.653462 0.000673831 -4.52707e-06 0.000831286
8.6092 0 0.637792 0.000624391 -4.64018e-06 0.000727773
8.58303 0 0.622743 0.000570826 -5.03149e-06 0.000623169
8.5579 0 0.608291 0.000510911 -5.07678e-06 0.000516167
8.53376 0 0.594413 0.000443728 -5.23453e-06 0.000405955
8.51058 0 0.581085 0.000370097 -4.91494e-06 0.000292917
8.48833 0 0.568287 0.000291684 -5.2586e-06 0.000178068
8.46695 0 0.555995 0.000211832 -5.71208e-06 6.39184e-05
8.44642 0 0.544192 0.000136228 -4.88528e-06 -4.78185e-05
8.42671 0 0.532857 7.04592e-05 -4.45104e-06 -0.000154934
8.40778 0 0.521972 2.05816e-05 -3.9617e-06 -0.000256367
8.38959 0 0.511518 -1.25698e-05 -2.11941e-06 -0.000352765
8.9384 0 0.899004 0.00102537 -9.59652e-06 0.00200055
8.89917 0 0.874483 0.000988998 -4.82092e-06 0.00189443
8.8615 0 0.850935 0.000968569 -7.35858e-06 0.00176541
8.82531 0 0.828322 0.000942175 -5.37912e-06 0.00164869
8.79057 0 0.806606 0.000913184 -5.59178e-06 0.00153042
8.75721 0 0.785751 0.000876871 -4.20316e-06 0.00141645
8.72516 0 0.765724 0.000845066 -3.96569e-06 0.0013045
8.69439 0 0.746491 0.000814773 -4.16662e-06 0.00120133
8.66483 0 0.728022 0.000783377 -4.17206e-06 0.00109763
8.63646 0 0.710285 0.000742805 -4.21745e-06 0.000992876
8.6092 0 0.693252 0.000697466 -4.40663e-06 0.000886552
8.58303 0 0.676895 0.00065066 -4.76132e-06 0.000778884
8.5579 0 0.661186 0.000599638 -4.93835e-06 0.000670492
8.53376 0 0.646101 0.000541144 -5.32048e-06 0.000559122
8.51058 0 0.631614 0.000475363 -5.28509e-06 0.000443623
8.48833 0 0.617703 0.000401673 -5.32492e-06 0.000323376
8.46695 0 0.604343 0.000321837 -5.37493e-06 0.000200064
8.44642 0 0.591513 0.000239187 -6.15122e-06 7.57381e-05
8.42671 0 0.579192 0.000158785 -5.21077e-06 -4.71356e-05
8.40778 0 0.56736 8.80694e-05 -4.8384e-06 -0.00016619
8.38959 0 0.555998 3.29333e-05 -3.98897e-06 -0.000279031
8.37214 0 0.545086 -2.8244e-06 -1.97544e-06 -0.000386473
8.9384 0 0.970925 0.00106791 -8.98715e-06 0.00219185
8.89917 0 0.944442 0.00102858 -3.33923e-06 0.00208555
8.8615 0 0.91901 0.0010172 -7.74971e-06 0.00195446
8.82531 0 0.894588 0.000983615 -6.11122e-06 0.00183934
8.79057 0 0.871135 0.000956412 -6.59186e-06 0.0017178
8.75721 0 0.848612 0.000936487 -5.82634e-06 0.00159643
8.72516 0 0.826982 0.0009022 -4.9579e-06 0.00148156
8.69439 0 0.806211 0.000863409 -4.12948e-06 0.00136764
8.66483 0 0.786263 0.00083734 -4.00471e-06 0.0012561
8.63646 0 0.767108 0.000806259 -4.01046e-06 0.00115075
8.6092 0 0.748712 0.000771681 -3.97928e-06 0.00104521
8.58303 0 0.731046 0.000731601 -4.18388e-06 0.000937869
8.5579 0 0.714081 0.000686313 -4.5156e-06 0.000827704
8.53376 0 0.697789 0.000637141 -4.91488e-06 0.000715829
8.51058 0 0.682144 0.000582335 -5.14583e-06 0.000600785
8.48833 0 0.667119 0.000519074 -5.46244e-06 0.000480122
8.46695 0 0.65269 0.000447343 -5.34765e-06 0.000354482
8.44642 0 0.638834 0.000368275 -5.69285e-06 0.000223976
8.42671 0 0.625528 0.000284857 -6.39718e-06 9.11102e-05
8.40778 0 0.612749 0.0002016 -5.77859e-06 -4.22271e-05
8.38959 0 0.600478 0.000125983 -4.8332e-06 -0.000172535
8.37214 0 0.588693 6.65706e-05 -3.79006e-06 -0.000297213
8.97926 0 1.07246 0.00109499 -1.97821e-06 0.00259922
8.9384 0 1.04284 0.00111352 -1.18749e-05 0.00239972
8.89917 0 1.0144 0.00105749 -2.41081e-06 0.00229007
8.8615 0 0.987085 0.00103867 -7.39137e-06 0.00214772
8.82531 0 0.960854 0.00101667 -6.04055e-06 0.00202684
8.79057 0 0.935663 0.00100143 -7.92769e-06 0.00190207
8.75721 0 0.911471 0.000972755 -7.23175e-06 0.00178465
8.72516 0 0.88824 0.000947978 -6.67596e-06 0.00167004
8.69439 0 0.86593 0.000925577 -6.62948e-06 0.00154966
8.66483 0 0.844505 0.000890588 -5.59578e-06 0.00143452
8.63646 0 0.823931 0.000855863 -4.90217e-06 0.00131661
8.6092 0 0.804172 0.000827802 -4.64432e-06 0.00120798
8.58303 0 0.785198 0.000799268 -4.63442e-06 0.00110148
8.5579 0 0.766976 0.00076461 -4.55424e-06 0.000991995
8.53376 0 0.749477 0.00072168 -4.82593e-06 0.000880867
8.51058 0 0.732673 0.000676228 -5.16731e-06 0.000766149
8.48833 0 0.716535 0.000626566 -5.55873e-06 0.0006457
8.46695 0 0.701038 0.000567208 -5.63574e-06 0.00052163
8.44642 0 0.686155 0.000499556 -5.76629e-06 0.000392175
8.42671 0 0.671863 0.000424634 -5.94029e-06 0.000256095
8.40778 0 0.658138 0.000343507 -6.92835e-06 0.000115409
8.38959 0 0.644957 0.000260142 -6.35162e-06 -2.71102e-05
8.37214 0 0.6323 0.000182394 -5.35624e-06 -0.00016838
8.97926 0 1.14643 0.00109568 5.95541e-07 0.00283632
8.9384 0 1.11476 0.00114093 -1.34153e-05 0.00262115
8.89917 0 1.08436 0.00108806 -2.66557e-06 0.00251178
8.8615 0 1.05516 0.00107556 -7.14508e-06 0.00236231
8.82531 0 1.02712 0.00104939 -3.89325e-06 0.00222809
8.79057 0 1.00019 0.00103231 -5.47086e-06 0.00209349
8.75721 0 0.974331 0.00101709 -5.23602e-06 0.00197012
8.72516 0 0.949498 0.000996617 -5.48131e-06 0.00184771
8.69439 0 0.925649 0.000970271 -5.49177e-06 0.00172838
8.66483 0 0.902747 0.000957123 -5.14954e-06 0.00161474
8.63646 0 0.880753 0.000931012 -5.55558e-06 0.0014934
8.6092 0 0.859632 0.000891867 -4.16975e-06 0.0013783
8.58303 0 0.839349 0.00086669 -3.9112e-06 0.00126297
8.5579 0 0.819871 0.000839563 -3.85611e-06 0.00115036
8.53376 0 0.801165 0.000804423 -4.03888e-06 0.00104107
8.51058 0 0.783202 0.000769297 -4.48984e-06 0.000931982
8.48833 0 0.765951 0.000730346 -4.79154e-06 0.000815857
8.46695 0 0.749385 0.000680588 -5.28293e-06 0.000693662
8.44642 0 0.733476 0.000625701 -5.69105e-06 0.000568697
8.42671 0 0.718198 0.000565093 -5.77604e-06 0.000437262
8.40778 0 0.703526 0.000495513 -6.32543e-06 0.000297222
8.38959 0 0.689437 0.000417985 -7.22235e-06 0.000151721
8.37214 0 0.675907 0.000336583 -7.48643e-06 2.84328e-06
8.97926 0 1.22039 0.00107902 1.83711e-06 0.00304674
8.9384 0 1.18669 0.00115255 -1.54201e-05 0.00283034
8.89917 0 1.15432 0.00110301 -4.70638e-06 0.00273119
8.8615 0 1.12324 0.00109192 -1.16001e-05 0.00259239
8.82531 0 1.09339 0.00107051 -8.48035e-06 0.00246328
8.79057 0 1.06472 0.00104541 -8.93905e-06 0.00232727
8.75721 0 1.03719 0.00101781 -8.20353e-06 0.00219348
8.72516 0 1.01076 0.000999491 -9.0911e-06 0.00206076
8.69439 0 0.985369 0.000981144 -8.84328e-06 0.00192853
8.66483 0 0.960988 0.000968274 -8.41313e-06 0.00180301
8.63646 0 0.937576 0.000952135 -8.42836e-06 0.00168615
8.6092 0 0.915092 0.000935059 -7.91729e-06 0.00156751
8.58303 0 0.893501 0.000911459 -6.82906e-06 0.00144658
8.5579 0 0.872766 0.000876992 -5.92761e-06 0.00132201
8.53376 0 0.852853 0.000848825 -4.35622e-06 0.00120032
8.51058 0 0.833731 0.000824213 -4.89425e-06 0.00109593
8.48833 0 0.815368 0.000805768 -5.0377e-06 0.0009858
8.46695 0 0.797732 0.000769541 -4.85704e-06 0.000868573
8.44642 0 0.780797 0.000724947 -5.16447e-06 0.000748539
8.42671 0 0.764534 0.000679764 -5.58122e-06 0.000622793
8.40778 0 0.748915 0.000628426 -5.93918e-06 0.000488019
8.38959 0 0.733917 0.000566514 -6.1565e-06 0.000347007
8.37214 0 0.719513 0.000496987 -7.35574e-06 0.000198972
8.97926 0 1.29435 0.00103552 5.53684e-06 0.00321319
8.9384 0 1.25861 0.001149 -1.06792e-05 0.00300938
8.89917 0 1.22428 0.00110712 2.14116e-06 0.00291068
8.8615 0 1.19131 0.00110239 -3.26541e-06 0.00279028
8.82531 0 1.15965 0.00109857 -1.73288e-06 0.0026659
8.79057 0 1.12925 0.00109118 -3.66916e-06 0.00253312
8.75721 0 1.10005 0.00108297 -3.61822e-06 0.00239755
8.72516 0 1.07202 0.0010779 -4.69008e-06 0.00226182
8.69439 0 1.04509 0.00106918 -4.58703e-06 0.00213252
8.66483 0 1.01923 0.0010488 -4.36963e-06 0.00200402
8.63646 0 0.994399 0.00101666 -4.37323e-06 0.00187897
8.6092 0 0.970553 0.000993057 -5.12128e-06 0.00175519
8.58303 0 0.947652 0.000978791 -5.91756e-06 0.00163341
8.5579 0 0.925661 0.000968746 -6.14762e-06 0.00150486
8.53376 0 0.904541 0.000925621 -5.35712e-06 0.00138378
8.51058 0 0.88426 0.000885267 -4.06824e-06 0.00126815
8.48833 0 0.864784 0.000877046 -5.03009e-06 0.00115702
8.46695 0 0.84608 0.000851213 -5.08895e-06 0.00104407
8.44642 0 0.828118 0.000813272 -5.60121e-06 0.000930068
8.42671 0 0.810869 0.000777833 -6.22021e-06 0.000813969
8.40778 0 0.794304 0.000737832 -6.64757e-06 0.00069026
8.38959 0 0.778397 0.000684617 -7.43487e-06 0.000559514
8.37214 0 0.76312 0.000626617 -7.79236e-06 0.000423356
8.97926 0 1.36832 0.000980562 -2.89336e-06 0.00328529
8.9384 0 1.33053 0.0010853 -2.58837e-05 0.00316144
8.89917 0 1.29423 0.00103974 -1.60935e-05 0.00310395
8.8615 0 1.25938 0.00102898 -1.81356e-05 0.00301228
8.82531 0 1.22592 0.00103167 -1.59337e-05 0.0029013
8.79057 0 1.19378 0.0010314 -1.48242e-05 0.00277735
8.75721 0 1.16291 0.00103131 -1.22954e-05 0.00264639
8.72516 0 1.13327 0.00102625 -1.1305e-05 0.0025059
8.69439 0 1.10481 0.00101355 -1.0338e-05 0.00236314
8.66484 0 1.07747 0.00100121 -9.97787e-06 0.00221951
8.63646 0 1.05122 0.000992569 -9.26823e-06 0.00207554
8.6092 0 1.02601 0.00098575 -8.68003e-06 0.00193493
8.58303 0 1.0018 0.000979093 -8.36514e-06 0.00180319
8.5579 0 0.978555 0.000977955 -7.59447e-06 0.00168407
8.53376 0 0.956229 0.000960792 -7.44757e-06 0.00156686
8.51058 0 0.934789 0.000943023 -4.55125e-06 0.00144483
8.48833 0 0.9142 0.000927939 -3.91656e-06 0.00132367
8.46695 0 0.894427 0.000914026 -2.56144e-06 0.00120053
8.44642 0 0.875439 0.000892551 -1.4013e-06 0.00108068
8.42671 0 0.857205 0.000876961 -1.67659e-06 0.000964893
8.40778 0 0.839693 0.00086193 -1.38291e-06 0.00084393
8.38959 0 0.822877 0.000832322 -1.04855e-06 0.000717449
8.37214 0 0.806727 0.00079616 -1.11523e-06 0.000587828
8.97926 0 1.44228 0.00099713 2.33534e-05 0.00316653
8.9384 0 1.40245 0.00116978 2.94788e-06 0.00315976
8.89917 0 1.36419 0.0012148 4.17665e-06 0.00316351
8.8615 0 1.32746 0.00122137 1.93689e-06 0.00312265
8.82531 0 1.29218 0.00121645 -4.78457e-07 0.00305426
8.79057 0 1.2583 0.00120323 -3.38611e-06 0.00295987
8.75721 0 1.22577 0.00118291 -5.0552e-06 0.0028447
8.72516 0 1.19453 0.00115662 -7.38009e-06 0.00271797
8.69439 0 1.16453 0.00112915 -8.70184e-06 0.00258505
8.66483 0 1.13571 0.00110341 -1.00064e-05 0.00244961
8.63646 0 1.10804 0.00108157 -1.07808e-05 0.00231524
8.6092 0 1.08147 0.00105885 -1.14703e-05 0.00218411
8.58303 0 1.05595 0.00103247 -1.15432e-05 0.00205623
8.5579 0 1.03145 0.0010073 -1.29546e-05 0.00192707
8.53376 0 1.00792 0.000978788 -1.43467e-05 0.00180313
8.51058 0 0.985317 0.000955887 -1.4579e-05 0.00168092
8.48833 0 0.963616 0.000942753 -1.5644e-05 0.00155882
8.46695 0 0.942775 0.000912966 -1.6382e-05 0.00144096
8.44642 0 0.92276 0.000863558 -1.61774e-05 0.00132268
8.42671 0 0.90354 0.000829675 -1.58056e-05 0.00120342
8.40778 0 0.885082 0.000804857 -1.66225e-05 0.00108493
8.38959 0 0.867357 0.000758958 -1.72779e-05 0.000965898
8.37214 0 0.850334 0.000709965 -1.78909e-05 0.000844885
7.66922 0 0.966948 0.00049742 -6.86877e-06 -6.83105e-05
7.67296 0 0.988324 0.000486657 -6.4609e-06 -2.0579e-05
7.67685 0 1.01058 0.000475186 -6.83724e-06 2.02627e-05
7.68091 0 1.03376 0.000460089 -6.35188e-06 5.16311e-05
7.68513 0 1.0579 0.000441264 -5.59161e-06 7.17003e-05
7.68953 0 1.08303 0.00041548 -4.60316e-06 8.21903e-05
7.69411 0 1.1092 0.000382211 -3.78645e-06 8.40306e-05
7.69888 0 1.13646 0.000341689 -4.45319e-06 8.69052e-05
7.70385 0 1.16483 0.000297771 -4.51208e-06 7.8879e-05
7.70902 0 1.19439 0.000223274 -5.78366e-06 4.14478e-05
7.7144 0 1.22516 0.000100293 -6.86877e-06 -1.11841e-05
7.72001 0 1.25721 -9.74393e-05 -8.0118e-06 -8.30964e-05
7.72585 0 1.29057 -0.000363776 -1.04616e-05 -0.000178549
7.73193 0 1.32531 -0.00072828 -1.62644e-05 -0.000264453
7.70425 0 0.907776 0.000623135 -3.51698e-06 -0.000207905
7.70851 0 0.926707 0.000602321 -5.61047e-06 -0.000152788
7.71295 0 0.946421 0.000592736 -8.04128e-06 -8.96751e-05
7.71757 0 0.966948 0.000586356 -7.76218e-06 -2.46993e-05
7.72238 0 0.988324 0.0005812 -8.20099e-06 3.60172e-05
7.72738 0 1.01058 0.000574072 -6.59975e-06 8.55825e-05
7.7326 0 1.03376 0.000562217 -5.52585e-06 0.000124745
7.73803 0 1.0579 0.000549136 -4.05146e-06 0.000153398
7.74368 0 1.08303 0.000532398 -3.55966e-06 0.000174636
7.74957 0 1.1092 0.000518397 -2.96462e-06 0.000186024
7.7557 0 1.13646 0.000497089 -3.49788e-06 0.000191018
7.76209 0 1.16484 0.000463079 -3.53205e-06 0.00018702
7.76874 0 1.19439 0.000419489 -4.13792e-06 0.000177314
7.77566 0 1.22516 0.000363006 -3.06769e-06 0.000155955
7.78287 0 1.25721 0.000267951 -4.80416e-06 0.000116807
7.79038 0 1.29057 0.000117593 -6.72344e-06 5.38424e-05
7.7982 0 1.32531 -0.000117928 -1.08286e-05 4.50393e-06
7.73984 0 0.872138 0.000823209 -2.56051e-06 -0.000293148
7.74464 0 0.889597 0.000733794 -3.25548e-06 -0.000255501
7.74964 0 0.907777 0.000691957 -4.80496e-06 -0.000201322
7.75484 0 0.926707 0.000675666 -6.72856e-06 -0.00013329
7.76026 0 0.94642 0.000669204 -8.53457e-06 -5.56089e-05
7.76591 0 0.966948 0.000666824 -9.4941e-06 2.33347e-05
7.77179 0 0.988324 0.000664099 -8.4523e-06 9.40064e-05
7.77791 0 1.01058 0.000657053 -6.08003e-06 0.000150797
7.78428 0 1.03376 0.000647497 -5.07757e-06 0.000199817
7.79092 0 1.0579 0.000640947 -3.46971e-06 0.000240938
7.79783 0 1.08303 0.000635141 -4.14748e-06 0.000280464
7.80503 0 1.1092 0.000630264 -3.7209e-06 0.000309014
7.81252 0 1.13646 0.000619136 -3.60424e-06 0.000317308
7.82033 0 1.16483 0.000602729 -2.70837e-06 0.000320368
7.82845 0 1.19439 0.000580612 -1.93767e-06 0.000316066
7.83692 0 1.22516 0.000538914 -1.86637e-06 0.000298017
7.84573 0 1.25721 0.000482295 -3.14359e-06 0.000274565
7.85491 0 1.29057 0.000398842 -1.86445e-06 0.000229978
7.86446 0 1.32531 0.000273932 -5.55003e-06 0.000199488
7.87441 0 1.3615 8.32544e-05 -4.92335e-06 0.000112788
7.778 0 0.855372 0.00100416 -7.52471e-07 -0.000344158
7.78345 0 0.872138 0.000866228 -2.56741e-06 -0.000306709
7.78912 0 0.889597 0.000789577 -2.77167e-06 -0.000260949
7.79503 0 0.907776 0.000755636 -5.66826e-06 -0.00019387
7.80118 0 0.926708 0.000742995 -9.54803e-06 -0.000110031
7.80759 0 0.94642 0.000739971 -1.02703e-05 -1.61812e-05
7.81425 0 0.966948 0.000740299 -1.01362e-05 7.39418e-05
7.82121 0 0.988324 0.000736369 -7.35156e-06 0.00015048
7.82844 0 1.01058 0.000728997 -5.93498e-06 0.000216815
7.83597 0 1.03376 0.000723938 -5.31139e-06 0.000284544
7.84382 0 1.0579 0.000729281 -4.73385e-06 0.000346546
7.85199 0 1.08303 0.000730954 -5.32067e-06 0.00039695
7.86049 0 1.1092 0.00072862 -4.06008e-06 0.000431008
7.86935 0 1.13646 0.000723454 -3.21543e-06 0.000454227
7.87857 0 1.16484 0.000717851 -2.19814e-06 0.000474048
7.88818 0 1.19439 0.000706156 -1.60532e-06 0.000479052
7.89818 0 1.22516 0.0006843 -1.09795e-06 0.000470377
7.90859 0 1.25721 0.000649632 -8.95115e-07 0.000450452
7.91943 0 1.29057 0.000591754 3.30999e-08 0.000414305
7.93073 0 1.32531 0.000511063 -2.99173e-06 0.00038272
7.94249 0 1.3615 0.000374378 1.90577e-06 0.000298945
7.81473 0 0.839271 0.00119041 -2.84315e-07 -0.000418378
7.82076 0 0.855372 0.00102462 -1.36952e-06 -0.000376391
7.82705 0 0.872138 0.000900442 -2.93568e-06 -0.000324042
7.8336 0 0.889597 0.000837282 -4.03706e-06 -0.000265482
7.84042 0 0.907777 0.000810941 -6.67126e-06 -0.000181849
7.84752 0 0.926707 0.000802493 -1.02561e-05 -7.9268e-05
7.85491 0 0.946421 0.000802911 -1.14382e-05 2.86238e-05
7.8626 0 0.966948 0.000803197 -9.65776e-06 0.000124424
7.87062 0 0.988324 0.000796743 -6.96996e-06 0.00020918
7.87897 0 1.01058 0.000794636 -6.00186e-06 0.000293376
7.88766 0 1.03376 0.000799114 -6.70062e-06 0.000389337
7.89671 0 1.0579 0.00080989 -5.80197e-06 0.000464094
7.90614 0 1.08303 0.000813331 -5.47213e-06 0.000511875
7.91595 0 1.1092 0.000812817 -4.11272e-06 0.00055959
7.92617 0 1.13646 0.000815704 -2.7385e-06 0.000602739
7.93681 0 1.16483 0.000817162 -2.04806e-06 0.0006355
7.9479 0 1.19439 0.000813352 -1.77696e-06 0.000652602
7.95943 0 1.22516 0.00080485 -1.13218e-06 0.000657101
7.97145 0 1.25721 0.000787131 -6.39507e-07 0.000649281
7.98397 0 1.29057 0.000754169 6.96062e-07 0.000621526
7.99699 0 1.32531 0.000700494 5.0066e-07 0.000578944
8.01056 0 1.3615 0.000611476 3.08102e-06 0.00051161
8.02469 0 1.39917 0.000511467 -4.7949e-06 0.00047212
7.85669 0 0.839271 0.00118868 5.92676e-07 -0.000469113
7.86353 0 0.855372 0.00102964 -1.54238e-06 -0.000409523
7.87066 0 0.872138 0.000924131 -3.03827e-06 -0.000341335
7.87808 0 0.889596 0.00087573 -5.4722e-06 -0.000264424
7.88581 0 0.907777 0.00085736 -9.68115e-06 -0.000161163
7.89385 0 0.926708 0.000854069 -1.14643e-05 -3.98863e-05
7.90223 0 0.94642 0.000857217 -1.19014e-05 7.82007e-05
7.91095 0 0.966948 0.000855392 -8.65608e-06 0.000178574
7.92003 0 0.988324 0.000849567 -8.17166e-06 0.000280422
7.9295 0 1.01058 0.00085809 -7.15335e-06 0.00039156
7.93935 0 1.03376 0.000871515 -7.78003e-06 0.000496874
7.94961 0 1.0579 0.000879759 -6.13237e-06 0.000577698
7.96029 0 1.08303 0.000884537 -5.59241e-06 0.000634045
7.97141 0 1.1092 0.000890188 -3.99743e-06 0.000697669
7.98299 0 1.13646 0.000898147 -2.80263e-06 0.000759834
7.99505 0 1.16484 0.000904329 -2.52506e-06 0.000806371
8.00761 0 1.19439 0.000909497 -2.03374e-06 0.000838124
8.02069 0 1.22516 0.000910978 -1.36609e-06 0.000858361
8.03431 0 1.25721 0.000906002 -8.4549e-07 0.000864724
8.04849 0 1.29057 0.000891472 4.59379e-07 0.000855036
8.06326 0 1.32531 0.000862207 7.27824e-07 0.000828312
8.07864 0 1.3615 0.000811822 3.88985e-06 0.000774087
8.09465 0 1.39917 0.000732177 2.62856e-06 0.000707432
7.89865 0 0.839271 0.0011551 8.14198e-09 -0.000511446
7.9063 0 0.855372 0.00101607 -1.85879e-06 -0.000431534
7.91427 0 0.872138 0.000935064 -3.13855e-06 -0.000348462
7.92256 0 0.889597 0.000901604 -5.99714e-06 -0.000248604
7.93119 0 0.907776 0.000891569 -1.14893e-05 -0.000122709
7.94019 0 0.926708 0.000893992 -1.27758e-05 1.41744e-05
7.94955 0 0.94642 0.000898594 -1.09416e-05 0.000137969
7.9593 0 0.966948 0.000894517 -7.5675e-06 0.00024658
7.96945 0 0.988324 0.000894463 -9.24822e-06 0.000373962
7.98003 0 1.01058 0.000914475 -7.88351e-06 0.000506788
7.99104 0 1.03376 0.000928036 -7.44865e-06 0.000612171
8.0025 0 1.0579 0.000936053 -6.23324e-06 0.000693802
8.01444 0 1.08303 0.000943347 -5.17967e-06 0.000768704
8.02687 0 1.1092 0.00095379 -3.47779e-06 0.000849302
8.03981 0 1.13646 0.000965433 -2.77751e-06 0.00092393
8.05329 0 1.16483 0.000975054 -2.54334e-06 0.000985248
8.06733 0 1.19439 0.000985675 -1.93066e-06 0.00103487
8.08195 0 1.22516 0.000993993 -1.2601e-06 0.00107316
8.09717 0 1.25721 0.000996812 -7.82302e-07 0.00109733
8.11302 0 1.29057 0.000991943 3.37779e-07 0.00110621
8.12952 0 1.32531 0.000975207 8.96907e-07 0.00110036
8.14671 0 1.3615 0.000941816 4.05133e-06 0.0010701
8.16461 0 1.39917 0.000883614 3.17606e-06 0.00101895
8.18324 0 1.4384 0.000794733 1.01276e-05 0.000936813
7.94062 0 0.839271 0.00110333 -9.73553e-07 -0.000541642
7.94907 0 0.855372 0.000992953 -2.44793e-06 -0.000442298
7.95787 0 0.872138 0.000936912 -5.28458e-06 -0.000341113
7.96704 0 0.889597 0.000917188 -9.81551e-06 -0.000216178
7.97658 0 0.907777 0.000915649 -1.22124e-05 -6.90815e-05
7.98652 0 0.926707 0.000924219 -1.30113e-05 7.91857e-05
7.99687 0 0.946421 0.000930294 -9.81674e-06 0.000205266
8.00765 0 0.966948 0.000928553 -9.04258e-06 0.00032865
8.01887 0 0.988324 0.000937954 -1.05773e-05 0.000485838
8.03055 0 1.01058 0.000961339 -8.61985e-06 0.000623762
8.04273 0 1.03376 0.000973879 -7.88018e-06 0.000722388
8.0554 0 1.0579 0.000984354 -6.72883e-06 0.000814507
8.06859 0 1.08303 0.000995017 -5.20226e-06 0.000905195
8.08233 0 1.1092 0.00100772 -3.74741e-06 0.00100345
8.09664 0 1.13646 0.00102081 -3.55359e-06 0.00109031
8.11154 0 1.16484 0.001033 -3.18623e-06 0.00116425
8.12705 0 1.19439 0.00104548 -2.50802e-06 0.0012301
8.14321 0 1.22516 0.00105597 -1.79518e-06 0.00128528
8.16003 0 1.25721 0.00106228 -1.3177e-06 0.00132635
8.17755 0 1.29057 0.00106126 -3.56665e-07 0.00135044
8.19579 0 1.32531 0.00104982 -5.40842e-08 0.00135766
8.21479 0 1.3615 0.00102359 2.83959e-06 0.0013409
8.23457 0 1.39917 0.000974925 2.26856e-06 0.0012975
8.25516 0 1.4384 0.000907356 9.67233e-06 0.00121434
8.27661 0 1.47926 0.000787559 3.14722e-06 0.00106705
7.99184 0 0.855371 0.00095431 -3.2298e-06 -0.000426532
8.00148 0 0.872138 0.000923995 -6.30901e-06 -0.00029978
8.01152 0 0.889596 0.000918494 -1.16423e-05 -0.000147726
8.02197 0 0.907777 0.000925954 -1.34933e-05 1.58227e-05
8.03286 0 0.926708 0.000938581 -1.16295e-05 0.000171364
8.04419 0 0.94642 0.000946429 -7.06373e-06 0.000303153
8.05599 0 0.966948 0.000950713 -9.8832e-06 0.000445426
8.06829 0 0.988324 0.00096981 -1.00132e-05 0.000615595
8.08108 0 1.01058 0.000991429 -7.38194e-06 0.000756024
8.09441 0 1.03376 0.00100497 -6.88346e-06 0.000853422
8.10829 0 1.0579 0.00101626 -5.86822e-06 0.000954584
8.12274 0 1.08303 0.00102994 -3.92735e-06 0.00105989
8.13779 0 1.1092 0.00104458 -3.05367e-06 0.00116889
8.15346 0 1.13646 0.00105766 -3.27836e-06 0.00126606
8.16978 0 1.16483 0.0010715 -2.85675e-06 0.00135116
8.18677 0 1.19439 0.00108486 -2.30877e-06 0.00143007
8.20447 0 1.22516 0.00109633 -1.68546e-06 0.00149915
8.22289 0 1.25721 0.00110428 -1.24086e-06 0.00155512
8.24208 0 1.29057 0.00110608 -5.30611e-07 0.00159323
8.26206 0 1.32531 0.00109835 -1.16005e-07 0.0016118
8.28286 0 1.3615 0.00107856 2.05731e-06 0.00160683
8.30453 0 1.39917 0.00103873 1.61253e-06 0.00157436
8.32708 0 1.4384 0.000983528 8.38569e-06 0.00150221
8.35057 0 1.47926 0.00089323 2.51171e-06 0.00136116
8.03461 0 0.855372 0.000919265 -5.1833e-06 -0.000388269
8.04508 0 0.872138 0.000909886 -1.2852e-05 -0.000234776
8.056 0 0.889597 0.000917926 -1.27896e-05 -6.39382e-05
8.06736 0 0.907776 0.000934953 -1.40761e-05 0.000107829
8.07919 0 0.926707 0.000951467 -1.08654e-05 0.000263541
8.09151 0 0.946421 0.000961825 -8.34771e-06 0.000401075
8.10434 0 0.966948 0.000973873 -1.18368e-05 0.000560175
8.1177 0 0.988324 0.000999887 -1.16506e-05 0.000733756
8.13161 0 1.01058 0.00102132 -8.17647e-06 0.000868417
8.1461 0 1.03376 0.00103481 -7.77507e-06 0.000968835
8.16118 0 1.0579 0.00104697 -6.58818e-06 0.0010803
8.17689 0 1.08303 0.00106139 -4.77456e-06 0.00120093
8.19325 0 1.1092 0.00107772 -4.4466e-06 0.00131923
8.21028 0 1.13646 0.00109045 -4.52383e-06 0.00142664
8.22802 0 1.16484 0.00110439 -3.96734e-06 0.00152504
8.24649 0 1.19439 0.00111692 -3.38764e-06 0.00161753
8.26572 0 1.22516 0.00112737 -2.78075e-06 0.00170076
8.28575 0 1.25721 0.00113407 -2.2108e-06 0.00177177
8.30661 0 1.29057 0.00113587 -1.39125e-06 0.00182558
8.32832 0 1.32531 0.00113003 -7.97111e-07 0.00185804
8.35093 0 1.3615 0.00111319 1.06403e-06 0.0018658
8.37448 0 1.39917 0.00107936 8.66382e-07 0.00184719
8.399 0 1.4384 0.00103381 6.5645e-06 0.00179283
8.42454 0 1.47926 0.000964361 5.17926e-07 0.00167463
8.07738 0 0.855372 0.000876224 -8.1092e-06 -0.000286349
8.08869 0 0.872138 0.000887771 -9.9334e-06 -0.000107047
8.10048 0 0.889597 0.000907961 -1.17795e-05 7.77379e-05
8.11275 0 0.907777 0.000930479 -1.00665e-05 0.000252358
8.12553 0 0.926708 0.000948331 -6.70237e-06 0.000406404
8.13883 0 0.94642 0.000962122 -6.88825e-06 0.000553863
8.15269 0 0.966948 0.000984313 -9.78094e-06 0.000725042
8.16712 0 0.988324 0.00100906 -9.69135e-06 0.000895177
8.18214 0 1.01058 0.00102973 -5.95852e-06 0.00101997
8.19779 0 1.03376 0.00104238 -5.62766e-06 0.00112455
8.21408 0 1.0579 0.00105569 -4.17325e-06 0.00124381
8.23104 0 1.08303 0.00107 -2.85246e-06 0.00137662
8.24871 0 1.1092 0.0010851 -3.28332e-06 0.00150042
8.26711 0 1.13646 0.0010979 -3.15307e-06 0.00161263
8.28626 0 1.16483 0.00111094 -2.69492e-06 0.00171949
8.30621 0 1.19439 0.00112232 -2.23102e-06 0.00181956
8.32698 0 1.22516 0.00113163 -1.80624e-06 0.00191049
8.34861 0 1.25721 0.00113746 -1.42025e-06 0.0019899
8.37113 0 1.29057 0.00113894 -9.09738e-07 0.00205401
8.39459 0 1.32531 0.00113466 -4.38934e-07 0.00209707
8.41901 0 1.3615 0.00112206 6.81156e-07 0.00211535
8.44444 0 1.39917 0.00109657 6.05141e-07 0.0021105
8.47093 0 1.4384 0.00106028 4.98737e-06 0.00207381
8.4985 0 1.47926 0.0010038 -1.22073e-06 0.00198019
8.12014 0 0.855372 0.000851882 -1.30331e-05 -0.000167207
8.1323 0 0.872138 0.000876804 -1.5045e-05 1.48851e-05
8.14496 0 0.889596 0.000905488 -1.40389e-05 0.000189794
8.15814 0 0.907777 0.000931617 -9.6125e-06 0.000351094
8.17186 0 0.926708 0.000951122 -8.68063e-06 0.00049729
8.18616 0 0.94642 0.000970406 -1.11629e-05 0.000657405
8.20104 0 0.966948 0.00100371 -1.10682e-05 0.000825444
8.21654 0 0.988324 0.00102417 -1.1499e-05 0.000980441