# kMean  POINT_DATA 91129
# x  y  z  kMean
0 0 0 0.00538115
0 0.00368111 0 0.00375
0 0.00749587 0 0.00375
0 0.0114491 0 0.00375
0 0.0155459 0 0.00375
0 0.0197915 0 0.00375
0 0.0241911 0 0.00375
0 0.0287506 0 0.00375
0 0.0334755 0 0.00375
0 0.038372 0 0.00375
0 0.0434463 0 0.00375
0 0.0487048 0 0.00375
0 0.0541543 0 0.00375
0 0.0598016 0 0.00375
0 0.0656539 0 0.00375
0 0.0717187 0 0.00375
0.075776 0.00184055 0 0.0090543
0.075776 0.00558849 0 0.00323555
0.075776 0.00947248 -3.46945e-18 0.00300644
0.075776 0.0134975 -3.46945e-18 0.00339548
0.075776 0.0176687 3.46945e-18 0.00356975
0 0.0780037 0 0.00375
0.075776 0.0219913 3.46945e-18 0.00363941
0.075776 0.0264709 3.46945e-18 0.00367482
0.075776 0.031113 -3.46945e-18 0.0036952
0.075776 0.0359237 -3.46945e-18 0.00370814
0 0.0845169 0 0.00375
0.075776 0.0409092 0 0.00371697
0.075776 0.0460755 -3.46945e-18 0.00372331
0 0.0912666 0 0.00375
0.075776 0.0514296 -3.46945e-18 0.00372805
0.075776 0.0569779 0 0.00373169
0 0.0982613 0 0.00375
0.075776 0.0627278 0 0.00373456
0.075776 0.0686863 0 0.00373687
0 0.10551 0 0.00375
0.075776 0.0748612 3.46945e-18 0.00373879
0.075776 0.0812603 -3.46945e-18 0.00374044
0 0.113022 0 0.00375
0.075776 0.0878918 3.46945e-18 0.00374186
0 0.120806 0 0.00375
0.075776 0.0947639 3.46945e-18 0.00374308
0.075776 0.101886 -3.46945e-18 0.00374412
0 0.128874 0 0.00375
0.075776 0.109266 3.46945e-18 0.00374501
0 0.137234 0 0.00375
0.075776 0.116914 3.46945e-18 0.00374577
0 0.145897 0 0.00375
0.075776 0.12484 0 0.00374642
0.151552 0 0 0.00556915
0.151552 0.00368111 0 0.00395706
0.151552 0.00749587 0 0.00252117
0.151552 0.0114491 0 0.00294789
0.151552 0.0155459 0 0.00330816
0.151552 0.0197915 0 0.00347013
0.075776 0.133054 0 0.00374698
0.151552 0.0241911 0 0.00355411
0.151552 0.0287506 0 0.00360668
0 0.154876 0 0.00375
0.151552 0.0334755 0 0.00364141
0.151552 0.038372 0 0.0036653
0.151552 0.0434463 0 0.00368236
0.151552 0.0487048 0 0.00369495
0.075776 0.141566 0 0.00374747
0.151552 0.0541543 0 0.00370451
0.151552 0.0598016 0 0.00371196
0 0.16418 0 0.00375
0.151552 0.0656539 0 0.00371789
0.151552 0.0717187 0 0.00372271
0.075776 0.150387 0 0.00374793
0.151552 0.0780037 0 0.00372669
0.151552 0.0845169 0 0.00373004
0 0.173822 0 0.00375
0.075776 0.159528 0 0.00374836
0.151552 0.0912666 0 0.00373287
0.151552 0.0982613 0 0.00373527
0 0.183814 0 0.00375
0.151552 0.10551 0 0.00373734
0.075776 0.169001 3.46945e-18 0.00374878
0.151552 0.113022 0 0.00373911
0.151552 0.120806 0 0.00374065
0 0.194169 0 0.00375
0.075776 0.178818 3.46945e-18 0.00374919
0.151552 0.128874 0 0.00374199
0.075776 0.188992 3.46945e-18 0.00374959
0.151552 0.137234 0 0.00374317
0 0.2049 0 0.00375
0.151552 0.145897 0 0.00374422
0.075776 0.199535 0 0.00374999
0 0.21602 0 0.00375
0.151552 0.154876 0 0.00374516
0.219992 0.00184055 0 0.0023522
0.219992 0.00558849 0 0.00152272
0.219992 0.00947248 -3.46945e-18 0.00241227
0.219992 0.0134975 3.46945e-18 0.00301633
0.219992 0.0176687 0 0.00327794
0.219992 0.0219913 0 0.0034141
0.219993 0.0264709 -3.46945e-18 0.00350396
0.219992 0.031113 -3.46945e-18 0.00356479
0.219992 0.0359238 3.46945e-18 0.00360678
0.151552 0.16418 0 0.00374602
0.075776 0.21046 0 0.00375039
0.219992 0.0409092 3.46945e-18 0.00363658
0.219992 0.0460755 0 0.00365838
0.219993 0.0514296 -3.46945e-18 0.00367478
0.219992 0.0569779 0 0.00368744
0 0.227544 0 0.00375
0.219992 0.0627277 3.46945e-18 0.00369742
0.219992 0.0686863 0 0.00370546
0.151552 0.173822 0 0.00374681
0.219992 0.0748612 3.46945e-18 0.00371203
0.075776 0.221782 0 0.00375076
0.219992 0.0812603 3.46945e-18 0.00371749
0.219992 0.0878917 -3.46945e-18 0.00372206
0.151552 0.183814 0 0.00374754
7.47806e-17 0.239487 0 0.00375
0.219992 0.0947639 3.46945e-18 0.00372593
0.219993 0.101886 3.46945e-18 0.00372924
0.075776 0.233516 0 0.0037511
0.219993 0.109266 0 0.00373208
0.151552 0.194169 0 0.00374823
0.219993 0.116914 0 0.00373455
0 0.251863 0 0.00375
0.219993 0.12484 0 0.0037367
0.151552 0.2049 0 0.00374888
0.075776 0.245675 0 0.00375139
0.219992 0.133054 3.46945e-18 0.00373859
0.219992 0.141565 0 0.00374026
0.151552 0.21602 0 0.00374949
0 0.264688 0 0.00375
0.219992 0.150387 3.46945e-18 0.00374174
0.075776 0.258275 3.46945e-18 0.00375163
0.219992 0.159528 -3.46945e-18 0.00374307
0.151552 0.227544 0 0.00375006
0.219992 0.169001 3.46945e-18 0.00374426
0 0.27798 0 0.00375
0.075776 0.271334 3.46945e-18 0.00375181
0.151552 0.239487 3.70071e-18 0.00375059
0.219992 0.178818 3.46945e-18 0.00374534
0.288433 0 0 0.00161194
0.288433 0.00368111 0 0.00142291
0.288433 0.00749587 0 0.00179922
0.288433 0.0114491 0 0.00268061
0.288433 0.0155459 3.70071e-18 0.00312498
0.288433 0.0197915 0 0.00330894
0.288433 0.0241911 3.70071e-18 0.00340447
0.288433 0.0287506 0 0.0034765
0.219992 0.188991 0 0.00374633
0.288433 0.0334755 0 0.00353314
0.288433 0.038372 0 0.00357629
0.288433 0.0434463 0 0.00360916
7.47806e-17 0.291753 0 0.00375
0.288433 0.0487048 0 0.00363446
0.288433 0.0541543 0 0.00365423
0.151552 0.251863 0 0.00375107
0.288433 0.0598016 3.70071e-18 0.00366991
0.075776 0.284866 0 0.00375193
0.288433 0.0656539 3.70071e-18 0.00368254
0.219992 0.199534 0 0.00374724
0.288433 0.0717187 0 0.00369285
0.288433 0.0780037 0 0.00370136
0.288433 0.0845169 0 0.00370845
0.288433 0.0912666 0 0.00371438
0.219992 0.21046 -3.46945e-18 0.00374809
0.288433 0.0982613 0 0.00371943
0.151552 0.264688 3.70071e-18 0.0037515
0 0.306027 0 0.00375
0.288433 0.10551 0 0.00372386
0.075776 0.29889 3.46945e-18 0.00375198
0.288433 0.113022 0 0.0037278
0.219993 0.221782 0 0.00374889
0.288433 0.120806 0 0.00373129
0.288433 0.128874 0 0.00373437
0.151552 0.27798 0 0.00375186
0.288433 0.137234 0 0.00373711
0 0.320819 0 0.00375
0.219992 0.233515 -3.46945e-18 0.00374964
0.075776 0.313423 -3.46945e-18 0.00375195
0.288433 0.145897 0 0.00373956
0.288433 0.154876 0 0.00374173
0.151552 0.291753 0 0.00375217
0.219993 0.245675 0 0.00375034
0.288433 0.16418 0 0.00374366
0 0.336148 0 0.00375
0.288433 0.173822 0 0.00374538
0.075776 0.328484 -3.46945e-18 0.00375188
0.219993 0.258275 -3.46945e-18 0.00375099
0.151552 0.306027 0 0.00375241
0.288433 0.183814 0 0.00374689
0.288433 0.194169 0 0.00374823
0.219992 0.271334 3.46945e-18 0.00375159
0.350249 0.00184056 -3.46945e-18 0.000926117
0.350249 0.00558849 0 0.000966232
0.350249 0.00947248 3.46945e-18 0.00232042
0.350249 0.0134975 0 0.00297841
0.350249 0.0176687 0 0.0032305
0.350249 0.0219913 0 0.00331866
0.350249 0.0264708 3.46945e-18 0.0033892
0.350249 0.031113 0 0.00345655
0 0.352034 0 0.00375
0.350249 0.0359238 0 0.00351217
0.075776 0.344091 0 0.00375182
0.350249 0.0409091 0 0.00355631
0.350249 0.0460756 3.46945e-18 0.00359101
0.288433 0.2049 0 0.00374942
0.350249 0.0514296 0 0.0036184
0.151552 0.320819 0 0.0037526
0.350249 0.0569779 0 0.00364024
0.350249 0.0627277 3.46945e-18 0.00365785
0.350249 0.0686863 3.46945e-18 0.00367221
0.350249 0.0748612 3.46945e-18 0.00368403
0.350249 0.0812603 0 0.00369386
0.219992 0.284867 0 0.00375213
0.288433 0.21602 0 0.00375049
0.350249 0.0878917 0 0.00370205
0.350249 0.094764 0 0.00370888
0.350249 0.101886 0 0.00371485
0.350249 0.109266 0 0.00372028
0.288433 0.227544 0 0.00375145
0.075776 0.360265 3.46945e-18 0.00375181
0 0.368496 0 0.00375
0.151552 0.336148 0 0.00375276
0.350249 0.116914 3.46945e-18 0.00372512
0.219992 0.29889 0 0.00375261
0.370854 0.0241911 1.54074e-33 0.00337206
0.350249 0.12484 0 0.00372942
0.350249 0.133054 0 0.00373325
0.288433 0.239487 -9.25154e-19 0.00375232
0.350249 0.141566 3.46945e-18 0.00373669
0.350249 0.150387 3.46945e-18 0.00373975
0.288433 0.251863 0 0.00375311
0.219992 0.313423 0 0.00375304
0.151552 0.352034 0 0.00375292
0.075776 0.377027 0 0.00375186
0.350249 0.159528 0 0.00374247
0 0.385557 0 0.00375
0.350249 0.169001 0 0.00374486
0.288433 0.264688 0 0.00375383
0.350249 0.178818 0 0.00374696
0.219992 0.328484 0 0.00375342
0.350249 0.188992 0 0.00374879
0.151552 0.368496 0 0.00375311
0.288433 0.27798 3.70071e-18 0.0037545
0.075776 0.394397 0 0.00375196
0.350249 0.199535 0 0.00375036
7.47806e-17 0.403236 0 0.00375
0.219992 0.344091 0 0.00375377
0.350249 0.21046 -3.46945e-18 0.00375173
0.288433 0.291753 0 0.00375512
0.412065 9.08189e-19 3.08149e-33 0.000785983
0.412065 0.00368111 -2.31298e-18 0.000860529
0.412065 0.00749587 -2.31298e-18 0.00168459
0.412065 0.0114491 -2.31298e-18 0.0027699
0.412065 0.0155459 -2.31298e-18 0.0031991
0.412065 0.0197915 0 0.00331602
0.412065 0.0241911 -3.08149e-33 0.00335586
0.412065 0.0264709 0 0.00337687
0.412065 0.0287506 -2.31298e-18 0.00339788
0.412065 0.0334755 -2.31298e-18 0.00344975
0.412065 0.038372 -2.31298e-18 0.00349906
0.151552 0.385557 0 0.00375335
0.412065 0.0434463 0 0.00354145
0.350249 0.221782 0 0.00375294
0.412065 0.0487048 0 0.00357652
0.412065 0.0541543 -3.08149e-33 0.00360519
0.412065 0.0569779 0 0.00361691
0.412065 0.0598016 -2.31298e-18 0.00362863
0.412065 0.0656539 -2.31298e-18 0.00364785
0.412065 0.0717187 -2.31298e-18 0.00366371
0.075776 0.412396 -3.46945e-18 0.00375205
0.412065 0.0780037 -2.31298e-18 0.00367686
0.288433 0.306027 0 0.00375572
0.412065 0.0845169 -2.31298e-18 0.0036878
0.350249 0.233516 3.46945e-18 0.00375401
0 0.421557 0 0.00375
0.412065 0.0912666 -2.31298e-18 0.00369706
0.219992 0.360265 3.46945e-18 0.00375411
0.412065 0.0982613 0 0.0037052
0.412065 0.10551 0 0.00371258
0.412065 0.113022 -2.31298e-18 0.00371928
0.350249 0.245675 0 0.00375495
0.412065 0.120806 0 0.0037253
0.151552 0.403236 0 0.00375361
0.288433 0.320819 0 0.0037563
0.412065 0.128874 -2.31298e-18 0.00373069
0.412065 0.137234 0 0.0037355
0.350249 0.258275 -3.46945e-18 0.0037558
0.219992 0.377026 0 0.00375448
0.412065 0.145897 -2.31298e-18 0.00373979
0.075776 0.431051 0 0.00375211
0.412065 0.154876 -2.31298e-18 0.00374357
0 0.440544 0 0.00375
0.288433 0.336148 0 0.00375686
0.350249 0.271334 0 0.00375658
0.412065 0.16418 -2.31298e-18 0.00374689
0.412065 0.173822 -2.31298e-18 0.00374979
0.151552 0.421557 0 0.00375385
0.412065 0.183814 -2.31298e-18 0.0037523
0.350249 0.284867 3.46945e-18 0.00375731
0.219992 0.394397 0 0.00375488
0.288433 0.352034 3.70071e-18 0.0037574
0.412065 0.194169 0 0.00375449
0.075776 0.450382 0 0.00375214
0.412065 0.2049 -2.31298e-18 0.00375638
0 0.46022 0 0.00375
0.350249 0.29889 3.46945e-18 0.00375804
0.412065 0.21602 0 0.00375801
0.151552 0.440544 0 0.00375408
0.219993 0.412396 3.46945e-18 0.00375529
0.467897 0.00184056 -3.46945e-18 0.000655626
0.467897 0.00558849 0 0.000906089
0.288433 0.368496 0 0.00375794
0.467897 0.00947248 0 0.00253992
0.467897 0.0134975 0 0.00322409
0.467897 0.0176687 3.46945e-18 0.00335022
0.467897 0.0219913 -3.46945e-18 0.00335893
0.467897 0.0264709 3.46945e-18 0.00335639
0.467897 0.0311131 3.46945e-18 0.00339285
0.467897 0.0359238 -3.46945e-18 0.00344224
0.467897 0.038372 0 0.00347189
0.467897 0.0409092 3.46945e-18 0.00349041
0.350249 0.313423 0 0.00375877
0.467897 0.0460755 0 0.00353256
0.467897 0.0514296 3.46945e-18 0.00356803
0.412065 0.227544 -2.31298e-18 0.00375942
0.467897 0.0569779 0 0.00359746
0.467897 0.0627277 -3.46945e-18 0.0036218
0.467897 0.0686863 3.46945e-18 0.00364195
0.467897 0.0748612 0 0.00365866
0.467897 0.0812603 0 0.00367256
0.467897 0.0878918 3.46945e-18 0.00368415
0.075776 0.470415 3.46945e-18 0.00375217
0.412065 0.239487 -2.31298e-18 0.00376064
0.467897 0.0947639 -3.46945e-18 0.00369432
0.467897 0.101886 3.46945e-18 0.00370368
0.350249 0.328483 0 0.00375951
0.467897 0.109266 0 0.00371222
0 0.48061 0 0.00375
0.288433 0.385557 0 0.00375849
0.467897 0.116914 0 0.00371998
0.412065 0.251863 -2.31298e-18 0.00376171
0.219992 0.431051 0 0.00375569
0.467897 0.12484 0 0.00372696
0.151552 0.46022 0 0.00375429
0.467897 0.133054 3.46945e-18 0.00373322
0.467897 0.141566 3.46945e-18 0.00373878
0.412065 0.264688 -2.31298e-18 0.00376266
0.350249 0.344091 -3.46945e-18 0.00376025
0.467897 0.150387 3.46945e-18 0.0037437
0.467897 0.154876 0 0.00374743
0.467897 0.159528 3.46945e-18 0.00374802
0.288433 0.403236 0 0.00375904
0.075776 0.491175 0 0.00375219
0.412065 0.27798 -2.31298e-18 0.00376352
0.467897 0.169001 0 0.00375178
0.467897 0.178818 3.46945e-18 0.00375502
0.219992 0.450382 0 0.00375608
6.73026e-17 0.501741 3.70071e-18 0.00375
0.350249 0.360265 0 0.00376096
0.151552 0.48061 0 0.00375448
0.467897 0.188991 0 0.00375783
0.412065 0.291753 0 0.00376433
0.467897 0.199535 0 0.00376028
0.288433 0.421557 0 0.00375961
0.467897 0.21046 0 0.00376239
0.412065 0.306027 0 0.00376512
0.350249 0.377027 0 0.00376167
0.467897 0.221782 3.46945e-18 0.00376419
0.075776 0.51269 0 0.00375222
0.219993 0.470415 3.46945e-18 0.00375644
0.467897 0.227544 0 0.00376684
0.412065 0.320819 -2.31298e-18 0.0037659
0.467897 0.233515 0 0.00376572
6.73026e-17 0.523639 3.70071e-18 0.00375
0.523729 0 0 0.000581949
0.523729 0.00368111 0 0.00073502
0.523729 0.00749587 -2.31298e-18 0.00178673
0.523729 0.0114491 0 0.00306229
0.523729 0.0155459 0 0.00346826
0.523729 0.0197915 -2.31298e-18 0.00346532
0.151552 0.501741 0 0.00375466
0.523729 0.0241911 0 0.00340792
0.523729 0.0287506 0 0.00338534
0.523729 0.0334755 0 0.00340553
0.523729 0.038372 -3.08149e-33 0.00344472
0.523729 0.0434463 0 0.00348767
0.523729 0.0487048 0 0.00352755
0.523729 0.0541543 0 0.00356236
0.288433 0.440544 0 0.00376016
0.523729 0.0598016 0 0.00359199
0.350249 0.394397 -3.46945e-18 0.00376237
0.523729 0.0656539 0 0.00361693
0.467897 0.245675 0 0.00376703
0.523729 0.0717187 0 0.00363783
0.523729 0.0780037 0 0.00365529
0.523729 0.0845169 0 0.00367001
0.523729 0.0912666 0 0.00368291
0.412065 0.336148 0 0.00376667
0.523729 0.0982613 0 0.00369464
0.523729 0.10551 -2.31298e-18 0.00370541
0.467897 0.258275 -3.46945e-18 0.00376817
0.523729 0.113022 0 0.00371522
0.523729 0.120806 -3.08149e-33 0.00372412
0.219993 0.491176 0 0.00375677
0.523729 0.12484 0 0.00372812
0.523729 0.128874 -2.31298e-18 0.00373213
0.075776 0.534986 0 0.00375225
0.467897 0.271334 3.46945e-18 0.00376918
0.350249 0.412396 -3.46945e-18 0.00376307
0.523729 0.137234 0 0.0037393
0.412065 0.352034 -2.31298e-18 0.00376744
0.288433 0.46022 0 0.00376069
0.523729 0.145897 0 0.00374567
0.151552 0.523639 0 0.00375483
0.523729 0.154876 -3.08149e-33 0.00375128
0 0.546332 0 0.00375
0.523729 0.159528 0 0.00375373
0.467897 0.284867 -3.46945e-18 0.00377009
0.523729 0.16418 -2.31298e-18 0.00375618
0.523729 0.173822 0 0.00376044
0.412065 0.368496 0 0.0037682
0.523729 0.183814 0 0.00376412
0.467897 0.29889 0 0.00377095
0.350249 0.431051 -3.46945e-18 0.00376378
0.219992 0.51269 0 0.00375708
0.523729 0.194169 0 0.00376728
0.288433 0.48061 0 0.00376119
0.523729 0.2049 0 0.00377
0.467897 0.313423 3.46945e-18 0.00377178
0.075776 0.558091 0 0.0037523
0.412065 0.385557 0 0.00376896
0.523729 0.21602 -3.08149e-33 0.00377231
0.151552 0.546332 0 0.003755
0 0.569849 0 0.00375
0.350249 0.450382 3.46945e-18 0.00376446
0.523729 0.227544 -3.08149e-33 0.00377426
0.467897 0.328483 0 0.0037726
0.523729 0.231525 1.54074e-33 0.0037748
0.574156 0.00184056 0 0.000513108
0.574156 0.00558849 0 0.000871276
0.574157 0.00947248 0 0.00282134
0.574156 0.0134975 -3.46945e-18 0.0036402
0.574156 0.0176687 -3.46945e-18 0.00363478
0.574156 0.0219913 0 0.00350282
0.574156 0.0264708 -3.46945e-18 0.00340694
0.574156 0.031113 0 0.00338377
0.574156 0.0359238 -3.46945e-18 0.00340483
0.574157 0.0409092 0 0.00344422
0.523729 0.239487 3.70071e-18 0.0037759
0.574156 0.0460755 -3.46945e-18 0.0034866
0.574156 0.0514295 0 0.00352599
0.412065 0.403236 0 0.00376973
0.574157 0.0569779 0 0.00356063
0.574156 0.0627277 0 0.00359036
0.574156 0.0686863 0 0.00361556
0.219992 0.534986 0 0.00375737
0.288433 0.501741 0 0.00376165
0.574156 0.0748612 3.46945e-18 0.00363677
0.574156 0.0812603 0 0.0036545
0.467897 0.344091 0 0.00377341
0.574156 0.0878917 3.46945e-18 0.00366992
0.523729 0.251863 0 0.0037773
0.574157 0.0947639 0 0.00368406
0.574156 0.101886 0 0.00369709
0.574156 0.109266 0 0.00370899
0.574156 0.116914 0 0.00371982
0.412065 0.416977 -6.16298e-33 0.0037703
0.350249 0.470415 0 0.00376513
0.523729 0.264688 0 0.00377849
0.075776 0.582034 0 0.00375235
0.574156 0.12484 0 0.00372963
0.574156 0.133054 3.46945e-18 0.00373845
0.412065 0.421557 -2.31298e-18 0.00377049
0.151552 0.569849 0 0.00375517
0.467897 0.360265 -3.46945e-18 0.00377421
0.574157 0.141566 -3.46945e-18 0.00374632
0.523729 0.27798 0 0.00377954
0.574156 0.150386 3.46945e-18 0.00375328
0 0.594219 0 0.00375
0.574156 0.159528 -3.46945e-18 0.0037594
0.574156 0.16418 0 0.00376352
0.288433 0.523639 1.2326e-32 0.00376209
0.574157 0.169001 0 0.00376473
0.523729 0.291753 0 0.00378047
0.219993 0.558091 3.46945e-18 0.00375766
0.467897 0.377026 0 0.00377502
0.574156 0.178818 3.46945e-18 0.00376933
0.412065 0.440544 -2.31298e-18 0.00377126
0.350249 0.491175 0 0.00376575
0.574156 0.188992 3.46945e-18 0.00377328
0.523729 0.306027 -3.08149e-33 0.00378133
0.574157 0.199535 0 0.00377666
0.574157 0.21046 0 0.00377953
0.075776 0.606847 0 0.00375241
0.467897 0.394397 0 0.00377584
0.151552 0.594219 0 0.00375534
0.523729 0.320819 0 0.00378215
0.574157 0.221782 -3.46945e-18 0.00378194
0.412065 0.46022 3.08149e-33 0.00377201
0.288433 0.546332 0 0.00376251
0 0.619475 0 0.00375
0.574156 0.233515 3.46945e-18 0.00378396
0.350249 0.51269 3.46945e-18 0.00376633
0.219992 0.582034 3.46945e-18 0.00375795
0.523729 0.336148 0 0.00378295
0.467897 0.412396 0 0.00377667
0.574156 0.245675 0 0.00378565
0.624584 0 0 0.000462417
0.624584 0.00368111 0 0.000663492
0.624584 0.00749587 0 0.00191147
0.624584 0.0114491 0 0.00342373
0.624584 0.0155459 0 0.00387332
0.624584 0.0197915 0 0.00374748
0.624584 0.0241911 -2.31298e-18 0.00355809
0.624584 0.0287506 0 0.00344441
0.624584 0.0334755 0 0.00340822
0.624584 0.038372 0 0.00341998
0.624584 0.0434463 -2.31298e-18 0.0034525
0.624584 0.0487048 0 0.00349085
0.624584 0.0541543 0 0.00352812
0.624584 0.0598016 0 0.00356177
0.624584 0.0656539 0 0.00359114
0.624584 0.0717187 0 0.0036163
0.624584 0.0780037 0 0.00363767
0.574157 0.258276 3.46945e-18 0.00378707
0.624584 0.0845169 0 0.00365618
0.523729 0.352034 0 0.00378374
0.624584 0.0912666 0 0.00367294
0.624584 0.0982613 0 0.00368847
0.412065 0.48061 3.08149e-33 0.00377273
0.624584 0.10551 0 0.00370275
0.624584 0.113022 -2.31298e-18 0.00371581
0.574156 0.271334 0 0.00378828
0.624584 0.120806 0 0.00372768
0.467897 0.431051 0 0.0037775
0.075776 0.632561 -3.46945e-18 0.00375247
0.624584 0.128874 0 0.00373841
0.151552 0.619475 0 0.00375552
0.288433 0.569849 0 0.00376291
0.350249 0.534985 0 0.00376688
0.624584 0.137234 -2.31298e-18 0.00374805
0.523729 0.368496 0 0.00378452
0.574156 0.284866 -3.46945e-18 0.00378932
0.624584 0.145897 0 0.00375664
0.467897 0.440544 0 0.00377951
0.624584 0.154876 0 0.00376422
0.219992 0.606847 -3.46945e-18 0.00375823
0 0.645647 0 0.00375
0.624584 0.16418 -3.08149e-33 0.00377086
0.574156 0.29889 -3.46945e-18 0.00379024
0.624584 0.173822 0 0.00377663
0.412065 0.501741 1.54074e-33 0.00377341
0.467897 0.450382 -3.46945e-18 0.00377833
0.523729 0.385557 0 0.00378531
0.624584 0.183814 0 0.00378159
0.624584 0.194169 0 0.00378583
0.574156 0.313423 0 0.00379108
0.624584 0.2049 0 0.00378943
0.350249 0.558091 3.46945e-18 0.0037674
0.288433 0.594219 0 0.00376329
0.624584 0.21602 0 0.00379245
0.523729 0.403236 0 0.00378612
0.574156 0.328483 -3.46945e-18 0.00379187
0.151552 0.645647 0 0.00375569
0.467897 0.470415 3.46945e-18 0.00377914
0.075776 0.659208 0 0.00375254
0.624584 0.227544 0 0.00379497
0.412065 0.523639 0 0.00377405
0.523729 0.41545 3.08149e-33 0.00378666
0.624584 0.239487 3.70071e-18 0.00379706
0.574156 0.344091 0 0.00379264
0.219992 0.632561 0 0.0037585
0.67013 0.00184055 0 0.000414827
0.67013 0.00558849 0 0.000858278
0.67013 0.00947248 0 0.0030871
0.67013 0.0134975 0 0.00412273
0.67013 0.0176687 -3.46945e-18 0.00406674
0.67013 0.0219913 0 0.00376373
0.67013 0.0264708 3.46945e-18 0.00354626
0.67013 0.0311131 0 0.00343467
0.67013 0.0359237 0 0.00340791
0.67013 0.0409092 -3.46945e-18 0.00342353
0.67013 0.0460755 0 0.00345725
0.67013 0.0514296 3.46945e-18 0.00349545
0.523729 0.421557 -2.31298e-18 0.00378693
0.67013 0.056978 0 0.00353227
0 0.67277 0 0.00375
0.67013 0.0627277 0 0.00356551
0.624584 0.251863 0 0.00379878
0.67013 0.0686863 0 0.00359458
0.67013 0.0748612 3.46945e-18 0.0036195
0.67013 0.0812603 0 0.00364089
0.67013 0.0878917 0 0.00366014
0.67013 0.0947639 3.46945e-18 0.00367814
0.574156 0.360265 0 0.0037934
0.67013 0.101886 0 0.00369483
0.523729 0.431051 0 0.00378735
0.624584 0.264688 0 0.00380021
0.467897 0.491175 0 0.00377991
0.67013 0.109266 3.46945e-18 0.00371014
0.350249 0.582034 0 0.00376788
0.67013 0.116914 0 0.00372411
0.67013 0.12484 0 0.0037368
0.67013 0.133054 0 0.00374825
0.288433 0.619475 0 0.00376365
0.624584 0.27798 -3.08149e-33 0.00380141
0.412065 0.546332 1.54074e-33 0.00377464
0.523729 0.440544 -3.08149e-33 0.00378776
0.67013 0.141566 3.46945e-18 0.00375851
0.685312 0.0241911 -7.70372e-34 0.00372758
0.685312 0.0434463 -7.70372e-34 0.00344454
0.67013 0.150387 0 0.00376762
0.574156 0.377026 -3.46945e-18 0.00379417
0.67013 0.159528 0 0.00377563
0.624584 0.291753 0 0.00380242
0.151552 0.67277 0 0.00375586
0.075776 0.686823 0 0.00375261
0.67013 0.169001 0 0.00378262
0.67013 0.178818 0 0.00378866
0.467897 0.51269 0 0.00378064
0.685312 0.113022 -7.70372e-34 0.00371887
0.219992 0.659208 0 0.00375877
0.624584 0.306027 0 0.0038033
0.67013 0.188991 0 0.00379384
0.574156 0.394397 3.46945e-18 0.00379495
0.523729 0.46022 0 0.00378858
0.685312 0.137234 -7.70372e-34 0.00375664
0.67013 0.199535 -3.46945e-18 0.00379823
0.350249 0.606847 0 0.00376834
0 0.700877 0 0.00375
0.624584 0.320819 0 0.00380409
0.67013 0.21046 0 0.00380192
0.412065 0.569849 -2.31298e-18 0.00377519
0.67013 0.221782 -3.46945e-18 0.00380499
0.574157 0.412396 0 0.00379575
0.288433 0.645647 0 0.003764
0.624584 0.336148 -3.08149e-33 0.00380483
0.67013 0.233515 3.46945e-18 0.00380752
0.467897 0.534986 0 0.00378132
0.523729 0.48061 0 0.00378937
0.624584 0.344091 0 0.00380518
0.67013 0.245675 0 0.0038096
0.715676 4.54095e-19 0 0.000376719
0.715676 0.00368111 0 0.000616063
0.715676 0.00749587 0 0.00202852
0.715676 0.0114491 0 0.00377959
0.715676 0.0155459 0 0.00434245
0.715676 0.0197915 0 0.00414225
0.715676 0.0241911 0 0.00381232
0.715676 0.0287506 0 0.00358316
0.715676 0.0334755 0 0.00346568
0.715676 0.038372 0 0.00343056
0.624584 0.352034 -2.31298e-18 0.00380553
0.715676 0.0434463 0 0.00344056
0.151552 0.700877 0 0.00375603
0.715676 0.0487048 0 0.00346968
0.715676 0.0541543 0 0.00350479
0.574156 0.43105 0 0.00379656
0.715676 0.0598016 0 0.00353967
0.67013 0.258275 0 0.0038113
0.715676 0.0656539 0 0.00357172
0.715676 0.0717187 0 0.00360002
0.075776 0.715441 0 0.00375268
0.715676 0.0780037 0 0.00362469
0.715676 0.0845169 0 0.00364674
0.219992 0.686824 0 0.00375903
0.715676 0.0912666 0 0.00366721
0.715676 0.0982613 0 0.00368637
0.67013 0.271334 -3.46945e-18 0.00381269
0.350249 0.632561 -3.46945e-18 0.00376878
0.412065 0.594219 3.08149e-33 0.00377571
0.715676 0.10551 0 0.00370412
0.715676 0.113022 0 0.0037204
0.624584 0.368496 0 0.00380624
0.523729 0.501741 0 0.00379013
0.715676 0.120806 0 0.00373527
0.715676 0.128874 0 0.00374877
0.67013 0.284867 0 0.00381382
0.467897 0.558091 3.46945e-18 0.00378195
0.715676 0.137234 0 0.00376093
0.574156 0.450382 0 0.00379738
0 0.730005 0 0.00375
0.715676 0.145897 0 0.0037718
0.288433 0.67277 0 0.00376433
0.715676 0.154876 0 0.00378142
0.67013 0.29889 0 0.00381477
0.624584 0.385557 0 0.00380694
0.715676 0.16418 -9.25187e-19 0.00378987
0.715676 0.173822 0 0.00379722
0.715676 0.183814 0 0.00380354
0.67013 0.313423 0 0.00381559
0.523729 0.523639 0 0.00379084
0.715676 0.194169 0 0.00380892
0.574156 0.470415 3.46945e-18 0.0037982
0.624584 0.403236 0 0.00380766
0.743101 0.0241911 -7.70372e-34 0.00393028
0.412065 0.619475 3.08149e-33 0.00377618
0.715676 0.2049 0 0.00381347
0.151552 0.730005 0 0.00375619
0.67013 0.328484 3.46945e-18 0.00381631
0.350249 0.659208 0 0.00376918
0.467897 0.582034 0 0.00378252
0.715676 0.21602 0 0.00381726
0.219992 0.715441 0 0.00375928
0.075776 0.745097 -3.46945e-18 0.00375275
0.715676 0.227544 0 0.00382038
0.67013 0.344091 0 0.00381698
0.624584 0.421557 0 0.00380841
0.743101 0.128874 -7.70372e-34 0.00375329
0.715676 0.239487 3.70071e-18 0.00382294
0.574156 0.491175 0 0.00379899
0.756814 0.00184055 0 0.000340764
0.523729 0.546332 0 0.0037915
0.756813 0.00558849 0 0.000852713
0.756813 0.00947248 0 0.00330979
0.756814 0.0134975 -3.46945e-18 0.0045791
0.756814 0.0155459 0 0.00457801
0.756814 0.0176687 0 0.00457329
0.756814 0.0219913 0 0.0041396
0.756814 0.0264709 0 0.00378194
0.756814 0.031113 -3.46945e-18 0.00355932
0.756813 0.0359238 -3.46945e-18 0.0034558
0.288433 0.700877 0 0.00376464
0.756814 0.0409092 -3.46945e-18 0.00343334
0.756813 0.0460755 3.46945e-18 0.00344809
0.756813 0.0514296 0 0.00347869
0.715676 0.251863 0 0.00382501
0.756813 0.0569779 0 0.00351379
0.756814 0.0627277 -3.46945e-18 0.00354816
0.756814 0.0686863 -3.46945e-18 0.00357958
0 0.76019 0 0.00375
0.756814 0.0748612 0 0.00360722
0.67013 0.360265 3.46945e-18 0.00381762
0.756814 0.0812603 -3.46945e-18 0.00363177
0.756814 0.0878917 -3.46945e-18 0.00365461
0.756814 0.0947639 -3.46945e-18 0.00367618
0.715676 0.264688 0 0.00382667
0.756813 0.101886 0 0.00369635
0.624584 0.440544 0 0.00380916
0.756813 0.109266 3.46945e-18 0.00371497
0.756813 0.116914 3.46945e-18 0.00373204
0.412065 0.645647 0 0.00377662
0.467897 0.606847 0 0.00378305
0.756814 0.120806 0 0.00374069
0.756813 0.12484 0 0.00374761
0.715676 0.27798 0 0.00382801
0.756814 0.133054 -3.46945e-18 0.00376172
0.67013 0.377026 -3.46945e-18 0.00381826
0.756814 0.137234 0 0.00376896
0.574156 0.51269 0 0.00379973
0.756813 0.141566 3.46945e-18 0.0037744
0.685312 0.352034 -7.70372e-34 0.00382311
0.743101 0.2049 -7.70372e-34 0.00382263
0.350249 0.686824 0 0.00376957
0.756814 0.150387 0 0.00378569
0.756814 0.154876 0 0.00379164
0.715676 0.291753 0 0.00382908
0.756814 0.159528 -3.46945e-18 0.00379566
0.523729 0.569849 0 0.00379209
0.72743 0.264688 0 0.00383097
0.756814 0.16418 0 0.00380101
0.151552 0.76019 0 0.00375635
0.756813 0.169001 3.46945e-18 0.00380437
0.624584 0.46022 0 0.00380992
0.219993 0.745097 0 0.00375953
0.67013 0.394396 0 0.00381891
0.756813 0.178818 -3.46945e-18 0.00381191
0.715676 0.306027 0 0.00382995
0.075776 0.775831 0 0.00375283
0.756813 0.188991 0 0.00381836
0.756814 0.199535 0 0.00382382
0.715676 0.320819 0 0.00383068
0.574156 0.534985 0 0.00380042
0.288433 0.730005 0 0.00376494
0.756813 0.21046 0 0.0038284
0.467897 0.632561 0 0.00378353
0.67013 0.412396 -3.46945e-18 0.00381958
0.624584 0.48061 -3.08149e-33 0.00381067
0.756814 0.221782 0 0.00383218
0.412065 0.67277 3.08149e-33 0.00377702
0.715676 0.336148 0 0.00383132
0 0.791472 0 0.00375
0.756813 0.233516 3.46945e-18 0.00383527
0.523729 0.594219 0 0.00379262
0.624584 0.487654 1.54074e-33 0.00381091
0.756814 0.245675 3.46945e-18 0.00383776
0.350249 0.715441 3.46945e-18 0.00376992
0.67013 0.43105 0 0.00382027
0.715676 0.352034 -9.25187e-19 0.0038319
0.797951 9.08189e-19 -3.08149e-33 0.000311535
0.797951 0.00368111 2.31298e-18 0.000579013
0.797951 0.00749587 2.31298e-18 0.00212079
0.797951 0.0114491 2.31298e-18 0.00409111
0.797951 0.0141803 7.70372e-34 0.00457274
0.797951 0.0155459 0 0.00481356
0.797951 0.0169611 7.70372e-34 0.00474601
0.797951 0.0197915 2.31298e-18 0.00461091
0.797951 0.0219913 0 0.00438855
0.797951 0.0241911 3.08149e-33 0.00416619
0.797951 0.0264709 0 0.00398563
0.797951 0.0287506 -3.08149e-33 0.00380506
0.797951 0.0334755 2.31298e-18 0.00358452
0.797951 0.038372 2.31298e-18 0.00348284
0.797951 0.0434463 2.31298e-18 0.00345573
0.797951 0.0487048 0 0.00346674
0.756813 0.258275 -3.46945e-18 0.00383975
0.797951 0.0541543 2.31298e-18 0.0034941
0.797951 0.0598016 2.31298e-18 0.00352676
0.797951 0.0656539 2.31298e-18 0.00355935
0.574156 0.55809 0 0.00380104
0.624584 0.501741 0 0.00381139
0.797951 0.0717187 2.31298e-18 0.00358942
0.797951 0.0780037 -3.08149e-33 0.00361651
0.797951 0.0845169 2.31298e-18 0.00364158
0.797951 0.0912666 -3.08149e-33 0.00366538
0.797951 0.0982613 2.31298e-18 0.00368787
0.756813 0.271334 0 0.00384132
0.797951 0.10551 2.31298e-18 0.00370888
0.715676 0.368496 0 0.00383245
0.151552 0.791472 0 0.0037565
0.797951 0.113022 2.31298e-18 0.00372829
0.219992 0.775831 3.46945e-18 0.00375976
0.797951 0.118211 7.70372e-34 0.00374016
0.770526 0.239487 1.54074e-33 0.00384258
0.797951 0.120806 0 0.0037461
0.67013 0.450382 3.46945e-18 0.00382097
0.797951 0.128874 3.08149e-33 0.00376232
0.467897 0.659208 0 0.00378396
0.756813 0.284866 -3.46945e-18 0.00384255
0.743101 0.320819 -7.70372e-34 0.00384075
0.797951 0.137234 0 0.003777
0.797951 0.141566 0 0.00378358
0.797951 0.145897 -9.25187e-19 0.00379016
0.523729 0.619475 0 0.0037931
0.075776 0.807681 0 0.0037529
0.797951 0.150387 0 0.00379601
0.797951 0.154876 0 0.00380186
0.715676 0.385557 0 0.003833
0.412065 0.700877 3.08149e-33 0.00377739
0.288433 0.76019 0 0.00376522
0.756813 0.29889 0 0.00384352
0.797951 0.16418 0 0.00381215
0.624584 0.523639 0 0.00381206
0.797951 0.167394 7.70372e-34 0.00381514
0.797951 0.173822 2.31298e-18 0.00382111
0.574156 0.582034 0 0.0038016
0.67013 0.470415 0 0.00382168
0.797951 0.183814 2.31298e-18 0.00382884
0.756813 0.313423 -3.46945e-18 0.00384429
0.797951 0.194169 -9.25187e-19 0.00383542
0.715676 0.403236 0 0.00383357
0.151552 0.807681 0 0.00375658
0.797951 0.197746 -7.70372e-34 0.00383727
0.350249 0.745097 0 0.00377025
0.797951 0.2049 3.08149e-33 0.00384096
0 0.823889 0 0.00375
0.756813 0.328483 -3.46945e-18 0.00384491
0.797951 0.21046 0 0.00384327
0.797951 0.21602 -3.08149e-33 0.00384557
0.797951 0.223703 7.70372e-34 0.00384809
0.797951 0.227544 9.25187e-19 0.00384935
0.624584 0.546332 0 0.00381267
0.715676 0.421557 0 0.00383415
0.67013 0.491176 -3.46945e-18 0.00382238
0.797951 0.231525 7.70372e-34 0.00385037
0.467897 0.686824 -3.46945e-18 0.00378435
0.523729 0.645647 0 0.00379351
0.756813 0.344091 -3.46945e-18 0.00384545
0.822721 0.120806 7.70372e-34 0.00375052
0.797951 0.239487 -3.08149e-33 0.0038524
0.822721 0.137234 7.70372e-34 0.00378313
0.835106 0.00184056 0 0.000283816
0.835106 0.00558849 0 0.000840609
0.835106 0.00947248 0 0.00347607
0.835106 0.0134975 0 0.0049844
0.835107 0.0176687 0 0.00509297
0.835106 0.0219913 -3.46945e-18 0.00461152