# kMean  POINT_DATA 63840
# x  y  z  kMean
0 0.5 3.39583e-17 0.00375
0 0.5 -0.00617931 0.00375
0 0.5 0.00617931 0.00375
0.0124865 0.5 -0.00617931 0.00375034
0.0124865 0.5 0.00617931 0.00375038
0 0.5 -0.0688207 0.00375
0 0.5 0.0688207 0.00375
0.0124865 0.5 -0.0688207 0.00375034
0.0124865 0.5 0.0688207 0.00375038
0 0.5 -0.075 0.00375
0 0.5 0.075 0.00375
0 0.5 -0.0811793 0.00375
0 0.5 0.0811793 0.00375
0.0124865 0.5 -0.0811793 0.00375032
0.0124865 0.5 0.0811793 0.00375042
0.075776 0.5 -0.0375 0.0037521
0.075776 0.5 0.0375 0.0037523
0.075776 0.5 -0.1125 0.00375197
0.075776 0.5 0.1125 0.00375254
0 0.5 -0.143821 0.00375
0 0.5 0.143821 0.00375
0.0124865 0.5 -0.143821 0.00375032
0.0124865 0.5 0.143821 0.00375042
0 0.5 -0.15 0.00375
0 0.5 0.15 0.00375
0.151149 0.5 -0.00137318 0.00375462
0 0.5 -0.156179 0.00375
0 0.5 0.156179 0.00375
0.0124865 0.5 -0.156179 0.00375031
0.0124865 0.5 0.156179 0.00375046
0.151149 0.5 0.075 0.00375497
0.151149 0.5 -0.075 0.00375439
0.075776 0.5 -0.1875 0.00375191
0.075776 0.5 0.1875 0.00375282
0.151149 0.5 0.15 0.00375542
0.151149 0.5 -0.15 0.00375424
0 0.5 -0.218821 0.00375
0 0.5 0.218821 0.00375
0.0124865 0.5 -0.218821 0.00375031
0.0124865 0.5 0.218821 0.00375046
0.219992 0.5 0.0375 0.00375708
0.219993 0.5 -0.0375 0.00375671
0 0.5 -0.225 0.00375
0 0.5 0.225 0.00375
0 0.5 -0.231179 0.00375
0 0.5 0.231179 0.00375
0.0124865 0.5 -0.231179 0.00375031
0.0124865 0.5 0.231179 0.00375051
0.219992 0.5 0.1125 0.00375763
0.219993 0.5 -0.1125 0.00375645
0.151149 0.5 -0.225 0.00375419
0.151149 0.5 0.225 0.00375594
0.075776 0.5 -0.2625 0.00375189
0.075776 0.5 0.2625 0.00375311
0.288069 0.5 -0.00137318 0.00376157
0.219992 0.5 0.1875 0.00375832
0.219993 0.5 -0.1875 0.00375634
0 0.5 0.293821 0.00375
0 0.5 -0.293821 0.00375
0.0124865 0.5 -0.293821 0.00375031
0.0124865 0.5 0.293821 0.00375051
0.288069 0.5 -0.075 0.00376127
0.288069 0.5 0.075 0.00376204
0 0.5 -0.3 0.00375
0 0.5 0.3 0.00375
0 0.5 0.306179 0.00375
0 0.5 -0.306179 0.00375
0.0124865 0.5 -0.306179 0.00375031
0.0124865 0.5 0.306179 0.00375056
0.288069 0.5 -0.15 0.00376109
0.288069 0.5 0.15 0.00376264
0.151149 0.5 -0.3 0.00375421
0.151149 0.5 0.3 0.0037565
0.219992 0.5 -0.2625 0.00375633
0.219992 0.5 0.2625 0.00375911
0.075776 0.5 0.3375 0.0037534
0.075776 0.5 -0.3375 0.0037519
0.350249 0.5 -0.0375 0.0037658
0.350249 0.5 0.0375 0.00376618
0.288069 0.5 -0.225 0.00376101
0.288069 0.5 0.225 0.00376341
0.350249 0.5 0.1125 0.00376667
0.350249 0.5 -0.1125 0.00376554
0 0.5 0.368821 0.00375
0 0.5 -0.368821 0.00375
0.0124865 0.5 -0.368821 0.00375031
0.0124865 0.5 0.368821 0.00375056
0 0.5 -0.375 0.00375
0 0.5 0.375 0.00375
0 0.5 -0.381179 0.00375
0 0.5 0.381179 0.00375
0.0124865 0.5 -0.381179 0.00375033
0.0124865 0.5 0.381179 0.00375061
0.350249 0.5 -0.1875 0.00376541
0.350249 0.5 0.1875 0.00376736
0.219992 0.5 -0.3375 0.00375642
0.219992 0.5 0.3375 0.00375995
0.151149 0.5 -0.375 0.00375434
0.151149 0.5 0.375 0.00375707
0.411736 0.5 -0.00137318 0.00377328
0.288069 0.5 -0.3 0.00376103
0.288069 0.5 0.3 0.00376428
0.411736 0.5 -0.075 0.00377301
0.411736 0.5 0.075 0.00377371
0.075776 0.5 -0.4125 0.00375199
0.075776 0.5 0.4125 0.00375368
0.350249 0.5 -0.2625 0.00376536
0.350249 0.5 0.2625 0.00376824
0.411736 0.5 -0.15 0.00377277
0.411736 0.5 0.15 0.00377423
0 0.5 -0.443821 0.00375
0 0.5 0.443821 0.00375
0.0124865 0.5 -0.443821 0.00375033
0.0124865 0.5 0.443821 0.00375061
0 0.5 -0.45 0.00375
0 0.5 0.45 0.00375
0 0.5 -0.456179 0.00375
0 0.5 0.456179 0.00375
0.0124865 0.5 -0.456179 0.00375035
0.0124865 0.5 0.456179 0.00375065
0.219992 0.5 -0.4125 0.00375672
0.219993 0.5 0.4125 0.00376079
0.411736 0.5 -0.225 0.00377261
0.411736 0.5 0.225 0.0037749
0.467897 0.5 0.0375 0.00378038
0.467897 0.5 -0.0375 0.00378004
0.288069 0.5 -0.375 0.00376123
0.288069 0.5 0.375 0.0037652
0.151149 0.5 -0.45 0.00375456
0.151149 0.5 0.45 0.00375763
0.467897 0.5 -0.1125 0.00377976
0.467897 0.5 0.1125 0.00378076
0.350249 0.5 0.3375 0.00376922
0.350249 0.5 -0.3375 0.00376543
0.075776 0.5 -0.4875 0.00375211
0.075776 0.5 0.4875 0.00375394
0.467897 0.5 -0.1875 0.00377951
0.467897 0.5 0.1875 0.00378126
0.411736 0.5 -0.3 0.00377253
0.411736 0.5 0.3 0.00377571
0 0.5 -0.518821 0.00375
0 0.5 0.518821 0.00375
0.0124865 0.5 0.518821 0.00375065
0.0124865 0.5 -0.518821 0.00375035
0.523432 0.5 -0.00137318 0.00378997
0 0.5 -0.525 0.00375
0 0.5 0.525 0.00375
0.523432 0.5 -0.075 0.00378968
0.523432 0.5 0.075 0.00379035
0 0.5 -0.531179 0.00375
0 0.5 0.531179 0.00375
0.0124865 0.5 -0.531179 0.00375037
0.0124865 0.5 0.531179 0.00375069
0.288069 0.5 -0.45 0.00376155
0.288069 0.5 0.45 0.00376613
0.219992 0.5 -0.4875 0.00375709
0.219993 0.5 0.4875 0.00376159
0.467897 0.5 -0.2625 0.0037793
0.467897 0.5 0.2625 0.00378189
0.350249 0.5 -0.4125 0.00376574
0.350249 0.5 0.4125 0.00377025
0.523432 0.5 -0.15 0.00378931
0.523432 0.5 0.15 0.0037907
0.151149 0.5 -0.525 0.00375482
0.151149 0.5 0.525 0.00375814
0.411736 0.5 -0.375 0.0037726
0.411736 0.5 0.375 0.00377661
0.075776 0.5 -0.5625 0.00375225
0.075776 0.5 0.5625 0.00375417
0.523432 0.5 -0.225 0.00378893
0.523432 0.5 0.225 0.00379111
0.574156 0.5 -0.0375 0.00379912
0.574156 0.5 0.0375 0.00379946
0.467897 0.5 0.3375 0.00378266
0.467897 0.5 -0.3375 0.00377918
0.574156 0.5 -0.1125 0.0037987
0.574156 0.5 0.1125 0.00379973
0 0.5 -0.593821 0.00375
0 0.5 0.593821 0.00375
0.0124865 0.5 -0.593821 0.00375037
0.0124865 0.5 0.593821 0.00375069
0.288069 0.5 -0.525 0.00376191
0.288069 0.5 0.525 0.00376701
0 0.5 -0.6 0.00375
0 0.5 0.6 0.00375
0.350249 0.5 -0.4875 0.00376607
0.350249 0.5 0.4875 0.00377126
0.523432 0.5 -0.3 0.00378858
0.523432 0.5 0.3 0.00379161
0.219992 0.5 -0.5625 0.00375749
0.219992 0.5 0.5625 0.00376234
0.574156 0.5 -0.1875 0.0037982
0.574156 0.5 0.1875 0.00379998
0 0.5 -0.606179 0.00375
0 0.5 0.606179 0.00375
0.0124865 0.5 -0.606179 0.0037504
0.0124865 0.5 0.606179 0.00375072
0.411736 0.5 -0.45 0.00377275
0.411736 0.5 0.45 0.00377755
0.151149 0.5 -0.6 0.0037551
0.151149 0.5 0.6 0.00375861
0.62168 0.5 2.64545e-17 0.00381057
0.467897 0.5 0.4125 0.00378351
0.467897 0.5 -0.4125 0.00377922
0.624316 0.5 0.0729402 0.0038116
0.624316 0.5 -0.075 0.00381079
0.574156 0.5 -0.2625 0.00379766
0.574157 0.5 0.2625 0.00380025
0.075776 0.5 -0.6375 0.00375241
0.075776 0.5 0.6375 0.00375435
0.624316 0.5 -0.15 0.00381016
0.624316 0.5 0.15 0.00381178
0.523432 0.5 -0.375 0.00378828
0.523432 0.5 0.375 0.00379219
0.350249 0.5 -0.5625 0.0037664
0.350249 0.5 0.5625 0.00377223
0.624316 0.5 -0.225 0.00380941
0.624316 0.5 0.225 0.00381188
0.288069 0.5 0.6 0.00376783
0.288069 0.5 -0.6 0.00376226
0.574156 0.5 -0.3375 0.00379713
0.574156 0.5 0.3375 0.00380059
0.411736 0.5 -0.525 0.00377288
0.411736 0.5 0.525 0.00377847
0 0.5 -0.668821 0.00375
0 0.5 0.668821 0.00375
0.0124865 0.5 -0.668821 0.0037504
0.0124865 0.5 0.668821 0.00375072
0.67013 0.5 0.0375 0.00382288
0.67013 0.5 -0.0375 0.00382241
0.219993 0.5 -0.6375 0.0037579
0.219993 0.5 0.6375 0.003763
0 0.5 -0.675 0.00375
0 0.5 0.675 0.00375
0.467897 0.5 0.4875 0.00378437
0.467897 0.5 -0.4875 0.00377918
0.67013 0.5 -0.1125 0.00382171
0.67013 0.5 0.1125 0.00382309
0 0.5 -0.681179 0.00375
0 0.5 0.681179 0.00375
0.0124865 0.5 -0.681179 0.00375042
0.0124865 0.5 0.681179 0.00375074
0.523432 0.5 -0.45 0.00378796
0.523432 0.5 0.45 0.00379282
0.151149 0.5 -0.675 0.00375538
0.151149 0.5 0.675 0.003759
0.624316 0.5 -0.3 0.00380858
0.624316 0.5 0.3 0.00381195
0.67013 0.5 0.1875 0.0038231
0.67013 0.5 -0.1875 0.00382081
0.574156 0.5 -0.4125 0.00379659
0.574157 0.5 0.4125 0.003801
0.708171 0.5 1.88651e-17 0.00383426
0.075776 0.5 -0.7125 0.00375255
0.075776 0.5 0.7125 0.0037545
0.715434 0.5 0.0736268 0.00383661
0.715434 0.5 -0.075 0.0038357
0.67013 0.5 0.2625 0.00382298
0.67013 0.5 -0.2625 0.00381977
0.350249 0.5 -0.6375 0.00376669
0.350249 0.5 0.6375 0.0037731
0.411736 0.5 -0.6 0.00377296
0.411736 0.5 0.6 0.00377932
0.624316 0.5 -0.375 0.00380763
0.624316 0.5 0.375 0.00381204
0.715434 0.5 -0.15 0.00383464
0.715434 0.5 0.15 0.00383697
0.467897 0.5 -0.5625 0.00377908
0.467897 0.5 0.5625 0.0037852
0.288069 0.5 -0.675 0.00376259
0.288069 0.5 0.675 0.00376854
0.523432 0.5 -0.525 0.00378753
0.523432 0.5 0.525 0.00379344
0 0.5 -0.743821 0.00375
0 0.5 0.743821 0.00375
0.0124865 0.5 -0.743821 0.00375042
0.0124865 0.5 0.743821 0.00375074
0.219992 0.5 0.7125 0.00376355
0.219992 0.5 -0.7125 0.00375828
0.715434 0.5 -0.225 0.00383334
0.715434 0.5 0.225 0.00383677
0 0.5 -0.75 0.00375
0 0.5 0.75 0.00375
0.67013 0.5 0.3375 0.00382279
0.67013 0.5 -0.3375 0.00381858
0.574156 0.5 -0.4875 0.00379588
0.574156 0.5 0.4875 0.00380142
0 0.5 -0.756179 0.00375
0 0.5 0.756179 0.00375
0.0124865 0.5 -0.756179 0.00375044
0.0124865 0.5 0.756179 0.00375076
0.756813 0.5 -0.0375 0.00384925
0.756813 0.5 0.0375 0.00384999
0.151149 0.5 -0.75 0.00375564
0.151149 0.5 0.75 0.00375932
0.756813 0.5 -0.1125 0.00384812
0.756813 0.5 0.1125 0.00385026
0.624316 0.5 -0.45 0.00380652
0.624316 0.5 0.45 0.00381213
0.715434 0.5 -0.3 0.00383179
0.715434 0.5 0.3 0.00383637
0.756813 0.5 0.1875 0.0038501
0.756813 0.5 -0.1875 0.00384666
0.67013 0.5 -0.4125 0.00381712
0.67013 0.5 0.4125 0.0038226
0.411736 0.5 -0.675 0.00377296
0.411736 0.5 0.675 0.00378007
0.467897 0.5 0.6375 0.00378595
0.467897 0.5 -0.6375 0.00377889
0.075776 0.5 -0.7875 0.00375269
0.075776 0.5 0.7875 0.0037546
0.350249 0.5 -0.7125 0.00376693
0.350249 0.5 0.7125 0.00377386
0.523432 0.5 -0.6 0.00378698
0.523432 0.5 0.6 0.00379401
0.797732 0.5 2.68882e-17 0.00386482
0.756813 0.5 -0.2625 0.00384489
0.756814 0.5 0.2625 0.00384959
0.797732 0.5 0.0736268 0.00386537
0.797732 0.5 -0.075 0.00386364
0.288069 0.5 -0.75 0.00376287
0.288069 0.5 0.75 0.00376913
0.574156 0.5 -0.5625 0.00379503
0.574157 0.5 0.5625 0.00380181
0.715434 0.5 -0.375 0.00382993
0.715434 0.5 0.375 0.00383584
0.797732 0.5 -0.15 0.00386201
0.797732 0.5 0.15 0.00386555
0.624316 0.5 -0.525 0.00380523
0.624316 0.5 0.525 0.0038122
0.219992 0.5 -0.7875 0.00375863
0.219992 0.5 0.7875 0.00376399
0 0.5 -0.818821 0.00375
0 0.5 0.818821 0.00375
0.0124865 0.5 0.818821 0.00375076
0.0124865 0.5 -0.818821 0.00375044
0 0.5 -0.825 0.00375
0 0.5 0.825 0.00375
0.756813 0.5 0.3375 0.00384882
0.756814 0.5 -0.3375 0.00384274
0.67013 0.5 -0.4875 0.00381545
0.67013 0.5 0.4875 0.00382237
0.797732 0.5 -0.225 0.00385995
0.797732 0.5 0.225 0.0038651
0 0.5 -0.831179 0.00375
0 0.5 0.831179 0.00375
0.0124865 0.5 -0.831179 0.00375046
0.0124865 0.5 0.831179 0.00375077
0.835106 0.5 0.0375 0.00387993
0.835106 0.5 -0.0375 0.0038788
0.151149 0.5 -0.825 0.00375586
0.151149 0.5 0.825 0.00375955
0.835106 0.5 0.1125 0.00388037
0.835106 0.5 -0.1125 0.00387711
0.715434 0.5 -0.45 0.00382777
0.715434 0.5 0.45 0.00383525
0.797732 0.5 -0.3 0.00385743
0.797732 0.5 0.3 0.00386424
0.467897 0.5 0.7125 0.00378659
0.467897 0.5 -0.7125 0.00377861
0.523432 0.5 -0.675 0.00378632
0.523432 0.5 0.675 0.00379448
0.411736 0.5 -0.75 0.00377289
0.411736 0.5 0.75 0.00378069
0.835106 0.5 -0.1875 0.0038749
0.835106 0.5 0.1875 0.00388013
0.574156 0.5 -0.6375 0.00379403
0.574157 0.5 0.6375 0.00380213
0.350249 0.5 -0.7875 0.0037671
0.350249 0.5 0.7875 0.00377447
0.756813 0.5 -0.4125 0.00384014
0.756814 0.5 0.4125 0.00384791
0.075776 0.5 -0.8625 0.0037528
0.075776 0.5 0.8625 0.00375466
0.624316 0.5 0.6 0.0038122
0.624316 0.5 -0.6 0.00380376
0.872064 0.5 5.91974e-17 0.00389589
0.870122 0.5 0.075 0.00389588
0.288069 0.5 -0.825 0.00376309
0.288069 0.5 0.825 0.00376959
0.67013 0.5 -0.5625 0.00381356
0.67013 0.5 0.5625 0.00382209
0.872064 0.5 -0.075 0.00389416
0.835106 0.5 -0.2625 0.00387215
0.835106 0.5 0.2625 0.00387928
0.797732 0.5 -0.375 0.00385442
0.797732 0.5 0.375 0.00386305
0.872064 0.5 0.14794 0.00389705
0.872064 0.5 -0.15 0.00389178
0.715434 0.5 -0.525 0.00382535
0.715434 0.5 0.525 0.00383458
0.219992 0.5 0.8625 0.00376429
0.219993 0.5 -0.8625 0.00375891
0 0.5 -0.893821 0.00375
0 0.5 0.893821 0.00375
0.0124865 0.5 -0.893821 0.00375046
0.0124865 0.5 0.893821 0.00375077
0 0.5 -0.9 0.00375
0 0.5 0.9 0.00375
0.756813 0.5 -0.4875 0.00383727
0.756813 0.5 0.4875 0.0038469
0.872064 0.5 -0.225 0.00388877
0.872064 0.5 0.225 0.00389645
0.835106 0.5 -0.3375 0.00386877
0.835106 0.5 0.3375 0.00387796
0 0.5 0.906179 0.00375
0 0.5 -0.906179 0.00375
0.0124865 0.5 -0.906179 0.00375048
0.0124865 0.5 0.906179 0.00375078
0.90582 0.5 -0.0375 0.00391095
0.90582 0.5 0.0375 0.00391258
0.151149 0.5 -0.9 0.00375604
0.151149 0.5 0.9 0.0037597
0.90582 0.5 -0.1125 0.00390853
0.905821 0.5 0.1125 0.00391331
0.523432 0.5 -0.75 0.00378555
0.523432 0.5 0.75 0.00379484
0.574156 0.5 -0.7125 0.0037929
0.574156 0.5 0.7125 0.00380235
0.797732 0.5 -0.45 0.003851
0.797732 0.5 0.45 0.00386167
0.467897 0.5 0.7875 0.00378709
0.467897 0.5 -0.7875 0.00377822
0.624316 0.5 -0.675 0.00380214
0.624316 0.5 0.675 0.00381212
0.411736 0.5 -0.825 0.00377272
0.411736 0.5 0.825 0.00378117
0.872064 0.5 0.3 0.00389517
0.872064 0.5 -0.3 0.00388508
0.67013 0.5 -0.6375 0.00381148
0.67013 0.5 0.6375 0.00382172
0.90582 0.5 0.1875 0.0039131
0.905821 0.5 -0.1875 0.00390538
0.350249 0.5 -0.8625 0.00376718
0.350249 0.5 0.8625 0.00377492
0.835106 0.5 -0.4125 0.0038649
0.835106 0.5 0.4125 0.00387625
0.715434 0.5 -0.6 0.0038227
0.715434 0.5 0.6 0.0038338
0.939201 0.5 2.75387e-17 0.0039286
0.075776 0.5 0.9375 0.00375469
0.075776 0.5 -0.9375 0.00375289
0.939111 0.5 0.075 0.00393011
0.939201 0.5 -0.075 0.00392618
0.756813 0.5 0.5625 0.00384577
0.756814 0.5 -0.5625 0.0038341
0.90582 0.5 0.2625 0.003912
0.905821 0.5 -0.2625 0.00390149
0.288069 0.5 -0.9 0.00376323
0.288069 0.5 0.9 0.0037699
0.872064 0.5 -0.375 0.00388079
0.872064 0.5 0.375 0.00389333
0.939201 0.5 0.148627 0.0039303
0.939201 0.5 -0.15 0.00392285
0.797732 0.5 -0.525 0.00384724
0.797732 0.5 0.525 0.00386014
0.219992 0.5 0.9375 0.00376448
0.219992 0.5 -0.9375 0.00375913
0.939201 0.5 -0.225 0.00391872
0.939201 0.5 0.225 0.00392971
0.905821 0.5 -0.3375 0.0038968
0.90582 0.5 0.3375 0.00391016
0.835106 0.5 -0.4875 0.00386063
0.835106 0.5 0.4875 0.00387439
0 0.5 0.968821 0.00375
0 0.5 -0.968821 0.00375
0.0124865 0.5 -0.968821 0.00375048
0.0124865 0.5 0.968821 0.00375078
0.969689 0.5 -0.0375 0.00394372
0.969689 0.5 0.0375 0.003946
0.574156 0.5 -0.7875 0.00379166
0.574156 0.5 0.7875 0.00380243
0 0.5 -0.975 0.00375
0 0.5 0.975 0.00375
0.624316 0.5 -0.75 0.00380038
0.624316 0.5 0.75 0.00381192
0.969689 0.5 -0.1125 0.00394037
0.96969 0.5 0.1125 0.0039471
0.523432 0.5 -0.825 0.00378467
0.523432 0.5 0.825 0.00379504
0.67013 0.5 0.7125 0.00382125
0.67013 0.5 -0.7125 0.00380924
0 0.5 -0.981179 0.00375
0 0.5 0.981179 0.00375
0.467897 0.5 0.8625 0.00378742
0.467897 0.5 -0.8625 0.00377774
0.0124865 0.5 -0.981179 0.00375049
0.0124865 0.5 0.981179 0.00375077
0.872064 0.5 -0.45 0.00387596
0.872064 0.5 0.45 0.00389109
0.715434 0.5 -0.675 0.00381986
0.715434 0.5 0.675 0.00383292
0.939201 0.5 -0.3 0.00391372
0.939201 0.5 0.3 0.00392802
0.151149 0.5 0.975 0.00375976
0.151149 0.5 -0.975 0.00375617
0.969689 0.5 -0.1875 0.00393606
0.969689 0.5 0.1875 0.00394695
0.756813 0.5 -0.6375 0.0038307
0.756813 0.5 0.6375 0.00384451
0.411736 0.5 -0.9 0.00377246
0.411736 0.5 0.9 0.00378147
0.90582 0.5 -0.4125 0.0038916
0.90582 0.5 0.4125 0.0039077
0.995005 0.5 0.0749309 0.00395945
0.797732 0.5 -0.6 0.00384319
0.797732 0.5 0.6 0.00385842
1.00005 0.5 -8.47123e-18 0.00396022
0.350249 0.5 -0.9375 0.00376716
0.350249 0.5 0.9375 0.0037752
1.00005 0.5 -0.0749309 0.00395709
0.969689 0.5 -0.2625 0.0039309
0.969689 0.5 0.2625 0.0039456
0.835106 0.5 -0.5625 0.00385598
0.835106 0.5 0.5625 0.00387229
1.00005 0.5 -0.149862 0.00395291
0.939201 0.5 -0.375 0.0039079
0.939201 0.5 0.375 0.00392551
1.00029 0.5 0.148988 0.00396257
0.075776 0.5 -1.0125 0.00375296
0.075776 0.5 1.0125 0.00375466
0.288069 0.5 0.975 0.00377005
0.288069 0.5 -0.975 0.00376328
0.872064 0.5 -0.525 0.00387066
0.872064 0.5 0.525 0.00388858
1.00005 0.5 0.224793 0.00396233
1.00005 0.5 -0.224793 0.00394778
0.969689 0.5 0.3375 0.00394317
0.96969 0.5 -0.3375 0.00392468
1.0271 0.5 -0.0368226 0.00397555
1.0271 0.5 0.0368226 0.00397843
0.90582 0.5 0.4875 0.00390482
0.905821 0.5 -0.4875 0.00388571
1.0271 0.5 -0.110468 0.00397154
1.0271 0.5 0.110468 0.00398219
0.67013 0.5 0.7875 0.00382065
0.67013 0.5 -0.7875 0.00380688
0.624316 0.5 0.825 0.00381158
0.624316 0.5 -0.825 0.00379851
0.219993 0.5 -1.0125 0.00375927
0.219993 0.5 1.0125 0.00376453
0.574156 0.5 -0.8625 0.0037903
0.574156 0.5 0.8625 0.00380237
0.715434 0.5 -0.75 0.00381688
0.715434 0.5 0.75 0.00383191
0.756813 0.5 0.7125 0.00384312
0.756814 0.5 -0.7125 0.00382712
0.523432 0.5 -0.9 0.00378369
0.523432 0.5 0.9 0.00379509
0.939201 0.5 -0.45 0.00390133
0.939201 0.5 0.45 0.00392236
1.04168 0.5 0 0.00398564
1.0271 0.5 -0.184113 0.00396652
1.0271 0.5 0.184113 0.00398039
0 0.5 -1.04382 0.00375
0 0.5 1.04382 0.00375
0.0124865 0.5 -1.04382 0.00375049
0.0124865 0.5 1.04382 0.00375077
1.00005 0.5 -0.299723 0.00394166
1.00005 0.5 0.299723 0.00396054
1.04168 0.5 -0.0729162 0.00398202
1.04168 0.5 0.0729162 0.00398805
0.797732 0.5 -0.675 0.00383893
0.797732 0.5 0.675 0.00385654
0.467897 0.5 0.9375 0.00378757
0.467897 0.5 -0.9375 0.00377715
0 0.5 -1.05 0.00375
0 0.5 1.05 0.00375
0.835106 0.5 -0.6375 0.00385107
0.835106 0.5 0.6375 0.00386997
1.04168 0.5 -0.145832 0.00397732
1.04168 0.5 0.145832 0.00398919
0.969689 0.5 -0.4125 0.00391758
0.96969 0.5 0.4125 0.00393987
0 0.5 -1.05618 0.00375
0 0.5 1.05618 0.00375
0.0124865 0.5 -1.05618 0.00375049
0.0124865 0.5 1.05618 0.00375076
1.05695 0.5 -0.0360764 0.00399272
1.05695 0.5 0.0360764 0.00399595
0.411736 0.5 -0.975 0.0037721
0.411736 0.5 0.975 0.00378159
0.872064 0.5 -0.6 0.00386499
0.872064 0.5 0.6 0.00388582
1.0271 0.5 -0.257759 0.00396055
1.0271 0.5 0.257759 0.00397942
0.151149 0.5 -1.05 0.00375625
0.151149 0.5 1.05 0.00375972
1.05695 0.5 0.108229 0.00399972
1.05695 0.5 -0.108229 0.00398836
1.04168 0.5 -0.218749 0.00397166
1.04168 0.5 0.218749 0.00398904
0.90582 0.5 -0.5625 0.00387937
0.905821 0.5 0.5625 0.00390166
1.00005 0.5 -0.374654 0.00393451
1.00005 0.5 0.374654 0.00395767
0.350249 0.5 1.0125 0.0037753
0.350249 0.5 -1.0125 0.00376705
1.05695 0.5 -0.180382 0.00398299
1.05695 0.5 0.180382 0.00399854
1.07319 0.5 0.0709442 0.00400799
0.939201 0.5 -0.525 0.00389422
0.939201 0.5 0.525 0.00391879
1.0271 0.5 -0.331404 0.00395349
1.0271 0.5 0.331404 0.00397719
1.08112 0.5 3.23815e-17 0.00400962
1.04168 0.5 -0.291665 0.00396496
1.04168 0.5 0.291665 0.00398757
1.08112 0.5 -0.0709442 0.00400552
0.969689 0.5 -0.4875 0.00390958
0.96969 0.5 0.4875 0.00393594
1.05695 0.5 0.252535 0.0039979
1.05695 0.5 -0.252535 0.00397666
0.288069 0.5 -1.05 0.00376325
0.288069 0.5 1.05 0.00377006
0.075776 0.5 -1.0875 0.003753
0.075776 0.5 1.0875 0.0037546
1.08112 0.5 -0.141888 0.00400036
1.08145 0.5 0.140165 0.00401354
0.715434 0.5 0.825 0.00383078
0.715434 0.5 -0.825 0.00381379
0.756813 0.5 0.7875 0.0038416
0.756814 0.5 -0.7875 0.00382343
0.67013 0.5 -0.8625 0.00380443
0.67013 0.5 0.8625 0.00381993
0.797732 0.5 -0.75 0.00383452
0.797732 0.5 0.75 0.00385453
0.624316 0.5 -0.9 0.00379655
0.624316 0.5 0.9 0.0038111
1.00005 0.5 -0.449585 0.00392627
1.00005 0.5 0.449585 0.00395382
0.835106 0.5 -0.7125 0.00384598
0.835106 0.5 0.7125 0.00386749
0.574156 0.5 -0.9375 0.00378886
0.574157 0.5 0.9375 0.00380214
1.10076 0.5 -0.0349809 0.00402034
1.10076 0.5 0.0349809 0.00402412
1.08112 0.5 -0.212832 0.00399421
1.08112 0.5 0.212832 0.00401436
0.872064 0.5 -0.675 0.00385908
0.872064 0.5 0.675 0.00388283
1.04168 0.5 -0.364581 0.00395716
1.04168 0.5 0.364581 0.00398487
1.0271 0.5 0.405049 0.00397381
1.0271 0.5 -0.405049 0.00394535
1.05695 0.5 -0.324688 0.00396922
1.05695 0.5 0.324688 0.00399592
1.10076 0.5 -0.104943 0.00401544
1.10076 0.5 0.104943 0.00402654
0.523432 0.5 0.975 0.00379494
0.523432 0.5 -0.975 0.00378261
0.90582 0.5 0.6375 0.00389824
0.905821 0.5 -0.6375 0.00387268
0.219992 0.5 1.0875 0.00376444
0.219992 0.5 -1.0875 0.00375935
1.11376 0.5 3.81639e-17 0.00403081
0.939201 0.5 0.6 0.00391483
0.939201 0.5 -0.6 0.00388682
1.10076 0.5 -0.174905 0.00400954
1.10076 0.5 0.174905 0.00402772
0.467897 0.5 -1.0125 0.00377646
0.467897 0.5 1.0125 0.00378752
1.11376 0.5 -0.0693118 0.0040263
1.11376 0.5 0.0693118 0.00403408
1.08112 0.5 0.283777 0.00401332
1.08112 0.5 -0.283777 0.00398699
0 0.5 -1.11882 0.00375
0 0.5 1.11882 0.00375
0.0124865 0.5 -1.11882 0.00375049
0.0124865 0.5 1.11882 0.00375076
0.969689 0.5 -0.5625 0.00390144
0.969689 0.5 0.5625 0.00393168
1.11376 0.5 0.138624 0.00403614
1.11376 0.5 -0.138624 0.00402073
0 0.5 -1.125 0.00375
0 0.5 1.125 0.00375
1.10076 0.5 0.244866 0.00402761
1.10076 0.5 -0.244866 0.00400263
0.411736 0.5 -1.05 0.00377165
0.411736 0.5 1.05 0.00378155
1.05695 0.5 -0.396841 0.00396064
1.05695 0.5 0.396841 0.00399272
1.00005 0.5 -0.524516 0.00391744
1.00005 0.5 0.524516 0.00394927
1.04168 0.5 -0.437497 0.00394813
1.04168 0.5 0.437497 0.00398094
0 0.5 -1.13118 0.00375
0 0.5 1.13118 0.00375
0.0124865 0.5 -1.13118 0.0037505
0.0124865 0.5 1.13118 0.00375074
1.11376 0.5 -0.207935 0.00401414
1.11376 0.5 0.207935 0.00403673
1.0271 0.5 -0.478694 0.00393593
1.0271 0.5 0.478694 0.00396925
0.151149 0.5 -1.125 0.00375628
0.151149 0.5 1.125 0.00375959
1.08112 0.5 -0.354722 0.00397862
1.08112 0.5 0.354722 0.00401096
1.13882 0.5 -0.0340295 0.00404557
1.13882 0.5 0.0340295 0.00404986
0.350249 0.5 -1.0875 0.00376685
0.350249 0.5 1.0875 0.00377528
1.13882 0.5 -0.102088 0.00404018
1.13882 0.5 0.102088 0.00405389
1.10076 0.5 -0.314829 0.00399457
1.10076 0.5 0.314829 0.0040261
0.756813 0.5 -0.8625 0.00381966
0.756814 0.5 0.8625 0.00383996
0.797732 0.5 -0.825 0.00383003
0.797732 0.5 0.825 0.0038524
1.11376 0.5 -0.277247 0.00400645
1.11376 0.5 0.277247 0.00403608
0.835106 0.5 0.7875 0.00386488
0.835106 0.5 -0.7875 0.00384077
0.715434 0.5 -0.9 0.00381064
0.715434 0.5 0.9 0.00382953
0.872064 0.5 -0.75 0.00385304
0.872064 0.5 0.75 0.00387963
1.13882 0.5 0.170147 0.0040544
1.13882 0.5 -0.170147 0.00403375
0.67013 0.5 -0.9375 0.0038019
0.67013 0.5 0.9375 0.00381905
0.905821 0.5 -0.7125 0.00386578
0.905821 0.5 0.7125 0.00389455
1.05695 0.5 0.468994 0.00398823
1.05695 0.5 -0.468994 0.00395076
0.939201 0.5 -0.675 0.00387922
0.939201 0.5 0.675 0.00391056
0.624316 0.5 0.975 0.00381045
0.624316 0.5 -0.975 0.00379452
1.04168 0.5 -0.510414 0.00393841
1.04168 0.5 0.510414 0.00397601
0.969689 0.5 -0.6375 0.00389307
0.96969 0.5 0.6375 0.00392673
0.288069 0.5 -1.125 0.00376314
0.288069 0.5 1.125 0.0037699
1.16179 0.5 5.78241e-19 0.00406434
1.08112 0.5 0.425666 0.00400729
1.08112 0.5 -0.425666 0.00396905
1.13882 0.5 -0.238206 0.00402626
1.13882 0.5 0.238206 0.00405476
1.16179 0.5 0.0669104 0.00407116
1.16179 0.5 -0.0669104 0.00405915
0.574156 0.5 -1.0125 0.00378733
0.574156 0.5 1.0125 0.00380171
0.075776 0.5 -1.1625 0.00375301
0.075776 0.5 1.1625 0.0037545
1.00005 0.5 -0.599447 0.0039084
1.00005 0.5 0.599447 0.00394407
1.10076 0.5 0.384791 0.00402327
1.10076 0.5 -0.384791 0.00398531
1.0271 0.5 -0.55234 0.00392636
1.0271 0.5 0.55234 0.00396397
1.11376 0.5 -0.346559 0.00399758
1.11376 0.5 0.346559 0.00403405
1.16179 0.5 -0.133821 0.00405289
1.16179 0.5 0.133821 0.00407132
0.523432 0.5 -1.05 0.00378144
0.523432 0.5 1.05 0.00379464
1.17463 0.5 -0.0331343 0.00407052
1.17463 0.5 0.0331343 0.00407533
1.17463 0.5 -0.0994029 0.00406462
1.17463 0.5 0.0994029 0.00407874
1.16179 0.5 -0.200731 0.00404555
1.16179 0.5 0.200731 0.00407216
1.13882 0.5 -0.306265 0.00401759
1.13882 0.5 0.306265 0.00405372
0.219992 0.5 -1.1625 0.00375934
0.219992 0.5 1.1625 0.00376419
0.467897 0.5 -1.0875 0.00377567
0.467897 0.5 1.0875 0.00378737
1.17463 0.5 0.165672 0.00408081
1.17463 0.5 -0.165672 0.00405767
1.05695 0.5 -0.541147 0.00394084
1.05695 0.5 0.541147 0.00398288
1.18772 0.5 -5.78241e-19 0.00408268
1.11376 0.5 -0.41587 0.00398758
1.11376 0.5 0.41587 0.00403067
1.18772 0.5 -0.065614 0.00407712
1.18772 0.5 0.065614 0.00408723
1.08112 0.5 -0.49661 0.00395887
1.08112 0.5 0.49661 0.00400246
1.10076 0.5 -0.454752 0.00397491
1.10076 0.5 0.454752 0.00401908
1.18534 0.5 0.118202 0.00408992
1.16179 0.5 -0.267642 0.00403706
1.16179 0.5 0.267642 0.00407212
0 0.5 -1.19382 0.00375
0 0.5 1.19382 0.00375
0.0124865 0.5 1.19382 0.00375074
0.0124865 0.5 -1.19382 0.0037505
1.04168 0.5 -0.58333 0.00392846
1.04168 0.5 0.58333 0.00397023
1.18772 0.5 -0.131228 0.00407048
1.17463 0.5 -0.23194 0.00404959
1.17463 0.5 0.23194 0.0040816
0.411736 0.5 -1.125 0.00377109
0.411736 0.5 1.125 0.00378135
1.13882 0.5 -0.374324 0.00400773
1.13882 0.5 0.374324 0.00405128
0 0.5 -1.2 0.00375
0 0.5 1.2 0.00375
0.905821 0.5 0.7875 0.00389056
0.905821 0.5 -0.7875 0.0038589
0.872064 0.5 -0.825 0.00384698
0.872064 0.5 0.825 0.00387625
0.835106 0.5 0.8625 0.00386215
0.835106 0.5 -0.8625 0.00383553
0.939201 0.5 -0.75 0.00387152
0.939201 0.5 0.75 0.00390612
0.797732 0.5 -0.9 0.00382551
0.797732 0.5 0.9 0.00385015
1.0271 0.5 0.625985 0.00395787
1.0271 0.5 -0.625985 0.00391642
0.969689 0.5 0.7125 0.00392174
0.96969 0.5 -0.7125 0.00388468
1.18772 0.5 -0.196842 0.00406273
1.18772 0.5 0.196842 0.00409152
0.756814 0.5 -0.9375 0.00381587
0.756814 0.5 0.9375 0.00383822
0 0.5 1.20618 0.00375
0 0.5 -1.20618 0.00375
1.00005 0.5 -0.674378 0.00389923
1.00005 0.5 0.674378 0.00393849
0.0124865 0.5 1.20618 0.00375072
0.0124865 0.5 -1.20618 0.0037505
1.16179 0.5 -0.334552 0.00402738
1.16179 0.5 0.334552 0.00407066
0.715434 0.5 0.975 0.00382813
0.715434 0.5 -0.975 0.00380745
0.151149 0.5 -1.2 0.00375626
0.151149 0.5 1.2 0.00375938
1.20942 0.5 0.0322645 0.00410221
1.20942 0.5 -0.0322645 0.00409645
1.17463 0.5 -0.298209 0.0040403
1.17463 0.5 0.298209 0.00408101
1.20942 0.5 -0.0967935 0.00408999
1.20942 0.5 0.0967935 0.00410574
0.350249 0.5 -1.1625 0.00376654
0.350249 0.5 1.1625 0.00377502
0.67013 0.5 1.0125 0.003818
0.67013 0.5 -1.0125 0.00379932
1.11376 0.5 0.485183 0.00402603
1.11376 0.5 -0.485183 0.00397706
1.18772 0.5 0.262456 0.00409178
1.18772 0.5 -0.262456 0.00405379
1.10076 0.5 -0.524714 0.00396455
1.10076 0.5 0.524714 0.00401383
1.20942 0.5 -0.161322 0.00408244
1.20942 0.5 0.161322 0.00410827
1.08112 0.5 -0.567554 0.00394846
1.08112 0.5 0.567554 0.00399663
0.624316 0.5 -1.05 0.00379242
0.624316 0.5 1.05 0.00380964
1.13882 0.5 -0.442383 0.00399695
1.13882 0.5 0.442383 0.00404745
1.05695 0.5 0.6133 0.00397655
1.05695 0.5 -0.6133 0.00393048
1.16179 0.5 -0.401463 0.00401669
1.16179 0.5 0.401463 0.00406777
0.574156 0.5 -1.0875 0.00378572
0.574156 0.5 1.0875 0.00380117
1.17463 0.5 0.364477 0.00407896
1.17463 0.5 -0.364477 0.00402982
1.20942 0.5 -0.225851 0.00407372
1.20942 0.5 0.225851 0.00410949
1.23036 0.5 -1.32995e-17 0.00411621
1.2294 0.5 0.0634819 0.00412134
1.04168 0.5 -0.656246 0.00391815
1.04168 0.5 0.656246 0.00396377
1.23036 0.5 -0.0634819 0.00410993
1.18772 0.5 0.32807 0.00409063
1.18772 0.5 -0.32807 0.00404366
0.288069 0.5 -1.2 0.00376293
0.288069 0.5 1.2 0.00376956
1.23036 0.5 -0.126964 0.00410252
1.23036 0.5 0.126964 0.00412483
0.075776 0.5 -1.2375 0.00375301
0.075776 0.5 1.2375 0.00375435
0.523432 0.5 -1.125 0.00378019
0.523432 0.5 1.125 0.00379421
1.0271 0.5 -0.69963 0.00390647
1.0271 0.5 0.69963 0.00395163
1.24274 0.5 0.0314313 0.00412881
1.24274 0.5 -0.0314313 0.00412291
1.20942 0.5 0.29038 0.00410934
1.20942 0.5 -0.29038 0.00406374
1.11376 0.5 -0.554494 0.0039663
1.11376 0.5 0.554494 0.00402031
1.23036 0.5 -0.190445 0.00409394
1.23036 0.5 0.190445 0.00412701
1.24274 0.5 -0.0942942 0.00411586
1.24274 0.5 0.0942942 0.00413332
1.13882 0.5 0.510442 0.0040424
1.13882 0.5 -0.510442 0.00398615
0.969689 0.5 -0.7875 0.00387611
0.969689 0.5 0.7875 0.00391671
1.00005 0.5 -0.749309 0.00388996
1.00005 0.5 0.749309 0.0039329
0.939201 0.5 -0.825 0.00386382
0.939201 0.5 0.825 0.00390144
0.90582 0.5 0.8625 0.00388643
0.90582 0.5 -0.8625 0.00385204
1.17463 0.5 -0.430746 0.00401857
1.17463 0.5 0.430746 0.00407546
1.10076 0.5 -0.594676 0.00395368
1.10076 0.5 0.594676 0.00400752
1.18772 0.5 -0.393684 0.00403259
1.18772 0.5 0.393684 0.00408799
1.24274 0.5 -0.157157 0.00410768
1.24274 0.5 0.157157 0.00413634
1.16179 0.5 -0.468373 0.0040056
1.16179 0.5 0.468373 0.00406351
0.467897 0.5 -1.1625 0.00377478
0.467897 0.5 1.1625 0.00378702
0.872064 0.5 -0.9 0.00384094
0.872064 0.5 0.9 0.00387279
1.25401 0.5 2.08167e-17 0.00413472
0.835106 0.5 0.9375 0.00385933
0.835106 0.5 -0.9375 0.00383032
1.25401 0.5 -0.0622994 0.00412803
1.25401 0.5 0.0622994 0.0041405
1.08112 0.5 -0.638498 0.00393745
1.08112 0.5 0.638498 0.00398975
1.23036 0.5 -0.253927 0.00408412
1.23036 0.5 0.253927 0.00412783
0.219992 0.5 1.2375 0.00376383
0.219992 0.5 -1.2375 0.00375927
1.25309 0.5 0.121964 0.00414408
1.05695 0.5 0.685452 0.0039696
1.05695 0.5 -0.685452 0.00391961
0.797732 0.5 0.975 0.00384779
0.797732 0.5 -0.975 0.00382101
1.25401 0.5 -0.124599 0.00412019
1.20942 0.5 -0.354909 0.00405264
1.20942 0.5 0.354909 0.00410771
1.24274 0.5 -0.220019 0.00409826
1.24274 0.5 0.220019 0.00413798
0.756814 0.5 -1.0125 0.00381206
0.756813 0.5 1.0125 0.00383633
1.25401 0.5 -0.186898 0.00411114
1.25401 0.5 0.186898 0.00414658
0.411736 0.5 -1.2 0.00377044
0.411736 0.5 1.2 0.00378092
0 0.5 -1.26882 0.00375
0 0.5 1.26882 0.00375
0.0124865 0.5 1.26882 0.00375072
0.0124865 0.5 -1.26882 0.0037505
0.715434 0.5 -1.05 0.00380424
0.715434 0.5 1.05 0.0038266
1.23036 0.5 -0.31741 0.00407313
1.23036 0.5 0.31741 0.00412723
1.04168 0.5 -0.729162 0.00390763
1.04168 0.5 0.729162 0.00395717
1.18772 0.5 -0.459298 0.00402117
1.18772 0.5 0.459298 0.00408393
1.24274 0.5 -0.282882 0.00408756
1.24274 0.5 0.282882 0.00413826
0 0.5 -1.275 0.00375
0 0.5 1.275 0.00375
1.27472 0.5 -0.0306319 0.00415007
1.27472 0.5 0.0306319 0.00415657
1.17463 0.5 0.497015 0.00407062
1.17463 0.5 -0.497015 0.00400736
1.11376 0.5 -0.623806 0.00395488
1.11376 0.5 0.623806 0.00401336
1.13882 0.5 -0.578501 0.00397483
1.13882 0.5 0.578501 0.00403626
0.67013 0.5 -1.0875 0.0037967
0.67013 0.5 1.0875 0.00381685
1.27472 0.5 -0.0918959 0.00414239
1.27472 0.5 0.0918959 0.00415841
1.25401 0.5 -0.249197 0.00410083
1.25401 0.5 0.249197 0.00414768
1.16179 0.5 -0.535284 0.00399427
1.16179 0.5 0.535284 0.00405804
1.20942 0.5 -0.419438 0.0040409
1.20942 0.5 0.419438 0.00410457
0 0.5 -1.28118 0.00375
0 0.5 1.28118 0.00375
0.0124865 0.5 1.28118 0.00375069
0.0124865 0.5 -1.28118 0.00375049
1.27472 0.5 0.15316 0.00416521