# kMean  POINT_DATA 63140
# x  y  z  kMean
0 0.1 0 0.00375
0 0.1 -0.0179898 0.00375
0 0.1 0.0179898 0.00375
0.0363518 0.1 0.0179898 0.00374728
0.0363518 0.1 -0.0179898 0.00374708
0 0.1 -0.0570102 0.00375
0 0.1 0.0570102 0.00375
0.0363518 0.1 0.0570102 0.00374728
0.0363518 0.1 -0.0570102 0.00374708
0 0.1 -0.075 0.00375
0 0.1 0.075 0.00375
0.075776 0.1 -0.0375 0.00374365
0.075776 0.1 0.0375 0.00374405
0 0.1 -0.0929898 0.00375
0 0.1 0.0929898 0.00375
0.0363518 0.1 -0.0929898 0.00374702
0.0363518 0.1 0.0929898 0.00374758
0 0.1 -0.13201 0.00375
0 0.1 0.13201 0.00375
0.075776 0.1 -0.1125 0.00374354
0.075776 0.1 0.1125 0.00374466
0.0363518 0.1 -0.13201 0.00374702
0.0363518 0.1 0.13201 0.00374758
0 0.1 -0.15 0.00375
0 0.1 0.15 0.00375
0.150379 0.1 -2.22623e-17 0.00373593
0 0.1 -0.16799 0.00375
0 0.1 0.16799 0.00375
0.150379 0.1 -0.075 0.00373579
0.150379 0.1 0.075 0.00373663
0.0363518 0.1 -0.16799 0.00374712
0.0363518 0.1 0.16799 0.00374798
0.075776 0.1 -0.1875 0.00374372
0.075776 0.1 0.1875 0.00374548
0 0.1 -0.20701 0.00375
0 0.1 0.20701 0.00375
0.0363518 0.1 -0.20701 0.00374712
0.0363518 0.1 0.20701 0.00374798
0.150379 0.1 -0.15 0.00373622
0.150379 0.1 0.15 0.00373778
0.219993 0.1 -0.0375 0.00372817
0.219993 0.1 0.0375 0.00372856
0 0.1 -0.225 0.00375
0 0.1 0.225 0.00375
0 0.1 -0.24299 0.00375
0 0.1 0.24299 0.00375
0.0363518 0.1 0.24299 0.00374843
0.0363518 0.1 -0.24299 0.00374736
0.219993 0.1 -0.1125 0.0037285
0.219993 0.1 0.1125 0.00372995
0.150379 0.1 -0.225 0.00373725
0.150379 0.1 0.225 0.00373912
0.075776 0.1 -0.2625 0.00374423
0.075776 0.1 0.2625 0.00374642
0 0.1 -0.28201 0.00375
0 0.1 0.28201 0.00375
0.0363518 0.1 -0.28201 0.00374736
0.0363518 0.1 0.28201 0.00374843
0.287374 0.1 -2.89121e-19 0.00372066
0.219992 0.1 0.1875 0.00373167
0.219992 0.1 -0.1875 0.0037298
0.287374 0.1 -0.075 0.00372097
0.287374 0.1 0.075 0.00372122
0 0.1 -0.3 0.00375
0 0.1 0.3 0.00375
0 0.1 0.31799 0.00375
0 0.1 -0.31799 0.00375
0.0363518 0.1 -0.31799 0.00374768
0.0363518 0.1 0.31799 0.0037489
0.287374 0.1 0.15 0.00372254
0.287374 0.1 -0.15 0.00372209
0.150379 0.1 -0.3 0.00373831
0.150379 0.1 0.3 0.00374054
0.219993 0.1 0.2625 0.00373353
0.219993 0.1 -0.2625 0.00373184
0.075776 0.1 -0.3375 0.00374488
0.075776 0.1 0.3375 0.00374738
0.350249 0.1 -0.0375 0.00371339
0.350249 0.1 0.0375 0.00371315
0 0.1 -0.35701 0.00375
0 0.1 0.35701 0.00375
0.0363518 0.1 -0.35701 0.00374768
0.0363518 0.1 0.35701 0.0037489
0.287374 0.1 -0.225 0.00372387
0.287374 0.1 0.225 0.0037243
0.350249 0.1 -0.1125 0.00371444
0.350249 0.1 0.1125 0.00371387
0 0.1 -0.375 0.00375
0 0.1 0.375 0.00375
0 0.1 -0.39299 0.00375
0 0.1 0.39299 0.00375
0.0363518 0.1 -0.39299 0.00374798
0.0363518 0.1 0.39299 0.0037493
0.350249 0.1 -0.1875 0.00371622
0.350249 0.1 0.1875 0.00371534
0.219992 0.1 -0.3375 0.00373287
0.219992 0.1 0.3375 0.00373541
0.150379 0.1 0.375 0.00374192
0.150379 0.1 -0.375 0.00373916
0.411108 0.1 4.33681e-19 0.00370713
0.287374 0.1 -0.3 0.00372547
0.287374 0.1 0.3 0.00372629
0.411108 0.1 -0.075 0.00370804
0.411108 0.1 0.075 0.003707
0.075776 0.1 -0.4125 0.00374549
0.075776 0.1 0.4125 0.0037482
0 0.1 0.43201 0.00375
0 0.1 -0.43201 0.00375
0.0363518 0.1 0.43201 0.0037493
0.0363518 0.1 -0.43201 0.00374798
0.411108 0.1 -0.15 0.00370956
0.411108 0.1 0.15 0.0037077
0.350249 0.1 -0.2625 0.00371817
0.350249 0.1 0.2625 0.00371735
0 0.1 -0.45 0.00375
0 0.1 0.45 0.00375
0.219992 0.1 0.4125 0.00373722
0.219992 0.1 -0.4125 0.00373392
0 0.1 -0.46799 0.00375
0 0.1 0.46799 0.00375
0.411108 0.1 -0.225 0.00371135
0.411108 0.1 0.225 0.00370911
0.467897 0.1 -0.0375 0.00370164
0.467897 0.1 0.0375 0.00370076
0.0363518 0.1 0.46799 0.00374962
0.0363518 0.1 -0.46799 0.00374825
0.287374 0.1 -0.375 0.00372661
0.287374 0.1 0.375 0.00372833
0.150379 0.1 0.45 0.00374304
0.150379 0.1 -0.45 0.00373996
0.467897 0.1 0.1125 0.00370067
0.467897 0.1 -0.1125 0.00370311
0.350249 0.1 -0.3375 0.00371954
0.350249 0.1 0.3375 0.00371956
0.075776 0.1 -0.4875 0.00374605
0.075776 0.1 0.4875 0.00374886
0.467897 0.1 0.1875 0.0037014
0.467897 0.1 -0.1875 0.00370488
0 0.1 -0.50701 0.00375
0 0.1 0.50701 0.00375
0.0363518 0.1 -0.50701 0.00374825
0.0363518 0.1 0.50701 0.00374962
0.411108 0.1 0.3 0.00371102
0.411108 0.1 -0.3 0.0037129
0.522865 0.1 1.41031e-17 0.00369738
0 0.1 -0.525 0.00375
0 0.1 0.525 0.00375
0.522865 0.1 -0.075 0.00369867
0.522865 0.1 0.075 0.0036966
0.287374 0.1 0.45 0.00373008
0.287374 0.1 -0.45 0.0037276
0.219992 0.1 0.4875 0.00373836
0.219992 0.1 -0.4875 0.00373488
0.467897 0.1 -0.2625 0.00370652
0.467897 0.1 0.2625 0.00370287
0.350249 0.1 -0.4125 0.00372065
0.350249 0.1 0.4125 0.00372176
0 0.1 -0.54299 0.00375
0 0.1 0.54299 0.00375
0.522865 0.1 0.15 0.00369651
0.522865 0.1 -0.15 0.00370022
0.0363518 0.1 0.54299 0.0037499
0.0363518 0.1 -0.54299 0.00374848
0.150379 0.1 -0.525 0.00374062
0.150379 0.1 0.525 0.00374385
0.411108 0.1 -0.375 0.00371406
0.411108 0.1 0.375 0.00371316
0.075776 0.1 -0.5625 0.00374652
0.075776 0.1 0.5625 0.00374944
0.522865 0.1 -0.225 0.00370172
0.522865 0.1 0.225 0.00369716
0.574156 0.1 0.0375 0.00369299
0.574157 0.1 -0.0375 0.00369429
0.467897 0.1 -0.3375 0.00370777
0.467897 0.1 0.3375 0.00370483
0 0.1 -0.58201 0.00375
0 0.1 0.58201 0.00375
0.0363518 0.1 -0.58201 0.00374848
0.0363518 0.1 0.58201 0.0037499
0.574157 0.1 -0.1125 0.00369581
0.574157 0.1 0.1125 0.00369218
0.287374 0.1 -0.525 0.00372836
0.287374 0.1 0.525 0.0037314
0 0.1 -0.6 0.00375
0 0.1 0.6 0.00375
0.350249 0.1 0.4875 0.00372362
0.350249 0.1 -0.4875 0.00372151
0.522865 0.1 -0.3 0.00370288
0.522865 0.1 0.3 0.00369847
0.219992 0.1 -0.5625 0.00373552
0.219992 0.1 0.5625 0.0037392
0.574156 0.1 -0.1875 0.00369726
0.574156 0.1 0.1875 0.00369203
0.411108 0.1 0.45 0.00371523
0.411108 0.1 -0.45 0.00371492
0 0.1 -0.61799 0.00375
0 0.1 0.61799 0.00375
0.150379 0.1 -0.6 0.00374109
0.150379 0.1 0.6 0.00374452
0.0363518 0.1 -0.61799 0.0037487
0.0363518 0.1 0.61799 0.00375016
0.467897 0.1 -0.4125 0.0037087
0.467897 0.1 0.4125 0.003707
0.623803 0.1 2.34188e-17 0.00369204
0.623803 0.1 0.075 0.00369082
0.623803 0.1 -0.075 0.00369341
0.574156 0.1 0.2625 0.00369261
0.574156 0.1 -0.2625 0.00369838
0.623803 0.1 0.15 0.00369001
0.623803 0.1 -0.15 0.00369469
0.075776 0.1 0.6375 0.00374997
0.075776 0.1 -0.6375 0.00374697
0.522865 0.1 -0.375 0.00370369
0.522865 0.1 0.375 0.00370022
0 0.1 0.65701 0.00375
0 0.1 -0.65701 0.00375
0.0363518 0.1 0.65701 0.00375016
0.0363518 0.1 -0.65701 0.0037487
0.350249 0.1 0.5625 0.00372501
0.350249 0.1 -0.5625 0.00372208
0.623803 0.1 0.225 0.00368976
0.623803 0.1 -0.225 0.00369565
0.287374 0.1 -0.6 0.00372886
0.287374 0.1 0.6 0.00373241
0.574157 0.1 -0.3375 0.00369908
0.574157 0.1 0.3375 0.00369385
0.411108 0.1 0.525 0.00371699
0.411108 0.1 -0.525 0.00371549
0.67013 0.1 0.0375 0.0036897
0.67013 0.1 -0.0375 0.00369112
0.219992 0.1 -0.6375 0.00373587
0.219993 0.1 0.6375 0.00373994
0 0.1 -0.675 0.00375
0 0.1 0.675 0.00375
0.467897 0.1 -0.4875 0.00370925
0.467897 0.1 0.4875 0.00370907
0.67013 0.1 -0.1125 0.00369238
0.67013 0.1 0.1125 0.00368838
0.522865 0.1 0.45 0.00370211
0.522865 0.1 -0.45 0.00370413
0.150379 0.1 0.675 0.00374515
0.150379 0.1 -0.675 0.00374157
0.623803 0.1 0.3 0.00369016
0.623803 0.1 -0.3 0.00369619
0 0.1 -0.69299 0.00375
0 0.1 0.69299 0.00375
0.0363518 0.1 -0.69299 0.00374892
0.0363518 0.1 0.69299 0.00375039
0.67013 0.1 -0.1875 0.00369326
0.67013 0.1 0.1875 0.00368742
0.574156 0.1 0.4125 0.00369549
0.574157 0.1 -0.4125 0.00369945
0.714971 0.1 -2.8382e-17 0.00369077
0.075776 0.1 -0.7125 0.00374743
0.075776 0.1 0.7125 0.00375045
0.714971 0.1 -0.075 0.00369194
0.714971 0.1 0.075 0.00368939
0.67013 0.1 0.2625 0.00368701
0.67013 0.1 -0.2625 0.00369367
0.411108 0.1 -0.6 0.00371588
0.411108 0.1 0.6 0.00371835
0.350249 0.1 0.6375 0.00372607
0.350249 0.1 -0.6375 0.00372252
0.623803 0.1 0.375 0.00369112
0.623803 0.1 -0.375 0.00369633
0.714971 0.1 -0.15 0.0036927
0.714971 0.1 0.15 0.00368804
0.467897 0.1 -0.5625 0.00370956
0.467897 0.1 0.5625 0.00371076
0 0.1 -0.73201 0.00375
0 0.1 0.73201 0.00375
0.0363518 0.1 0.73201 0.00375039
0.0363518 0.1 -0.73201 0.00374892
0.287374 0.1 -0.675 0.00372937
0.287374 0.1 0.675 0.00373328
0.522865 0.1 -0.525 0.00370426
0.522865 0.1 0.525 0.00370386
0.219993 0.1 -0.7125 0.00373653
0.219992 0.1 0.7125 0.00374067
0.714971 0.1 -0.225 0.00369296
0.714971 0.1 0.225 0.00368696
0 0.1 0.75 0.00375
0 0.1 -0.75 0.00375
0.67013 0.1 -0.3375 0.00369362
0.67013 0.1 0.3375 0.00368721
0.574156 0.1 -0.4875 0.00369939
0.574157 0.1 0.4875 0.00369722
0.756813 0.1 0.0375 0.00369038
0.756814 0.1 -0.0375 0.00369163
0.150379 0.1 0.746002 0.00374578
0.150379 0.1 -0.75 0.00374212
0.756813 0.1 -0.1125 0.00369239
0.756813 0.1 0.1125 0.00368884
0 0.1 0.76799 0.00375
0 0.1 -0.76799 0.00375
0.0363518 0.1 0.76799 0.00375058
0.0363518 0.1 -0.76799 0.00374914
0.623803 0.1 -0.45 0.00369607
0.623803 0.1 0.45 0.00369241
0.714971 0.1 -0.3 0.0036927
0.714971 0.1 0.3 0.00368635
0.756814 0.1 -0.1875 0.00369257
0.756814 0.1 0.1875 0.00368726
0.67013 0.1 -0.4125 0.0036932
0.67013 0.1 0.4125 0.00368799
0.411108 0.1 0.675 0.0037194
0.411108 0.1 -0.675 0.00371627
0.467897 0.1 0.6375 0.00371204
0.467897 0.1 -0.6375 0.00370981
0.075776 0.1 0.7875 0.00375085
0.075776 0.1 -0.7875 0.00374788
0.350249 0.1 -0.7125 0.0037231
0.350249 0.1 0.7125 0.00372697
0.522865 0.1 -0.6 0.00370424
0.522865 0.1 0.6 0.00370526
0.797314 0.1 -3.59473e-17 0.00369305
0.287374 0.1 0.746002 0.00373414
0.797314 0.1 -0.075 0.0036938
0.797314 0.1 0.075 0.00369175
0.756814 0.1 -0.2625 0.00369215
0.756814 0.1 0.2625 0.00368594
0.287374 0.1 -0.75 0.00372998
0.574156 0.1 -0.5625 0.0036991
0.574156 0.1 0.5625 0.00369872
0 0.1 0.80701 0.00375
0 0.1 -0.80701 0.00375
0.714971 0.1 -0.375 0.00369196
0.714971 0.1 0.375 0.00368626
0.0363518 0.1 0.80701 0.00375058
0.0363518 0.1 -0.80701 0.00374914
0.797314 0.1 -0.15 0.00369391
0.797314 0.1 0.15 0.00369011
0.623803 0.1 -0.525 0.00369547
0.623803 0.1 0.525 0.00369372
0.219992 0.1 0.7875 0.00374135
0.219992 0.1 -0.7875 0.00373716
0.149792 0.1 0.80701 0.00374612
0 0.1 0.825 0.00375
0 0.1 -0.825 0.00375
0.797314 0.1 -0.225 0.00369338
0.797314 0.1 0.225 0.00368837
0.756813 0.1 -0.3375 0.00369119
0.756813 0.1 0.3375 0.00368505
0.67013 0.1 0.4875 0.00368903
0.67013 0.1 -0.4875 0.00369232
0.835106 0.1 -0.0375 0.00369533
0.835106 0.1 0.0375 0.00369445
0.150379 0.1 -0.825 0.00374264
0.835106 0.1 -0.1125 0.00369546
0.835106 0.1 0.1125 0.00369293
0 0.1 -0.84299 0.00375
0 0.1 0.84299 0.00375
0.0363518 0.1 -0.84299 0.00374934
0.0363518 0.1 0.84299 0.00375074
0.714971 0.1 -0.45 0.00369077
0.714971 0.1 0.45 0.00368662
0.411108 0.1 0.746002 0.00372038
0.797314 0.1 -0.3 0.00369221
0.797314 0.1 0.3 0.00368682
0.467897 0.1 -0.7125 0.00371009
0.467897 0.1 0.7125 0.00371303
0.522865 0.1 0.675 0.0037063
0.522865 0.1 -0.675 0.00370419
0.411108 0.1 -0.75 0.0037167
0.835106 0.1 -0.1875 0.00369486
0.835107 0.1 0.1875 0.00369098
0.286844 0.1 0.80701 0.00373462
0.574156 0.1 0.6375 0.00369986
0.574157 0.1 -0.6375 0.00369878
0.350249 0.1 -0.7875 0.00372369
0.350249 0.1 0.7875 0.00372778
0.756813 0.1 -0.4125 0.00368969
0.756814 0.1 0.4125 0.00368466
0.623803 0.1 -0.6 0.00369471
0.623803 0.1 0.6 0.0036948
0.075776 0.1 0.8625 0.00375116
0.075776 0.1 -0.8625 0.0037483
0.871687 0.1 -3.2767e-18 0.00369832
0.287374 0.1 -0.825 0.00373055
0.871687 0.1 -0.075 0.0036985
0.871687 0.1 0.075 0.0036973
0.67013 0.1 -0.5625 0.00369118
0.67013 0.1 0.5625 0.00369003
0.835106 0.1 0.2625 0.0036889
0.835106 0.1 -0.2625 0.00369358
0.797314 0.1 -0.375 0.00369042
0.797314 0.1 0.375 0.00368561
0 0.1 -0.88201 0.00375
0 0.1 0.88201 0.00375
0.0363518 0.1 0.88201 0.00375074
0.0363518 0.1 -0.88201 0.00374934
0.871687 0.1 0.15 0.00369559
0.871687 0.1 -0.15 0.00369787
0.714971 0.1 0.525 0.00368718
0.714971 0.1 -0.525 0.00368923
0.219993 0.1 0.8625 0.00374194
0.219992 0.1 -0.8625 0.00373772
0 0.1 0.9 0.00375
0 0.1 -0.9 0.00375
0.756813 0.1 0.4875 0.0036847
0.756814 0.1 -0.4875 0.00368778
0.871687 0.1 0.225 0.00369341
0.871687 0.1 -0.225 0.00369648
0.835106 0.1 -0.3375 0.0036916
0.835106 0.1 0.3375 0.003687
0.41063 0.1 0.80701 0.00372092
0.90582 0.1 -0.0375 0.00370165
0.905821 0.1 0.0375 0.0037013
0.522865 0.1 0.746002 0.00370716
0.150379 0.1 0.9 0.00374662
0.90582 0.1 0.1125 0.0037
0.905821 0.1 -0.1125 0.00370105
0.522865 0.1 -0.75 0.00370413
0.574156 0.1 0.7125 0.00370063
0.574156 0.1 -0.7125 0.00369841
0.797314 0.1 -0.45 0.0036881
0.797314 0.1 0.45 0.00368484
0.467897 0.1 -0.7875 0.00371037
0.467897 0.1 0.7875 0.00371388
0.150379 0.1 -0.903998 0.00374295
0 0.1 0.91799 0.00375
0 0.1 -0.91799 0.00375
0.0363518 0.1 0.91799 0.00375085
0.0363518 0.1 -0.91799 0.00374952
0.623803 0.1 0.675 0.00369551
0.623803 0.1 -0.675 0.0036939
0.411108 0.1 -0.825 0.00371708
0.871687 0.1 0.3 0.00369105
0.871687 0.1 -0.3 0.0036943
0.67013 0.1 -0.6375 0.00368991
0.67013 0.1 0.6375 0.00369072
0.90582 0.1 -0.1875 0.00369963
0.90582 0.1 0.1875 0.00369791
0.350249 0.1 0.8625 0.00372851
0.350249 0.1 -0.8625 0.0037242
0.835106 0.1 -0.4125 0.00368891
0.835106 0.1 0.4125 0.00368541
0.714971 0.1 -0.6 0.00368748
0.714971 0.1 0.6 0.00368765
0.93886 0.1 -1.15648e-17 0.0037062
0.075776 0.1 0.9375 0.0037514
0.075776 0.1 -0.9375 0.00374867
0.93886 0.1 0.075 0.0037056
0.93886 0.1 -0.075 0.00370576
0.756813 0.1 0.5625 0.00368488
0.756814 0.1 -0.5625 0.00368559
0.905821 0.1 -0.2625 0.00369739
0.905821 0.1 0.2625 0.00369529
0.287374 0.1 0.9 0.00373535
0.287374 0.1 -0.903998 0.00373085
0.871687 0.1 0.375 0.00368879
0.871687 0.1 -0.375 0.00369133
0.93886 0.1 -0.15 0.00370437
0.93886 0.1 0.15 0.00370399
0.797314 0.1 0.525 0.00368438
0.797314 0.1 -0.525 0.00368543
0 0.1 0.95701 0.00375
0 0.1 -0.95701 0.00375
0.0363518 0.1 0.95701 0.00375085
0.0363518 0.1 -0.95701 0.00374952
0.522433 0.1 0.80701 0.00370758
0.219992 0.1 0.9375 0.00374237
0.219992 0.1 -0.9375 0.00373819
0.93886 0.1 0.225 0.00370156
0.93886 0.1 -0.225 0.00370212
0.90582 0.1 0.3375 0.00369249
0.905821 0.1 -0.3375 0.00369421
0.835106 0.1 -0.4875 0.0036858
0.835107 0.1 0.4875 0.00368429
0.969689 0.1 -0.0375 0.00371052
0.969689 0.1 0.0375 0.00371072
0.61613 0.1 0.75 0.00369589
0.574156 0.1 -0.7875 0.00369799
0.574156 0.1 0.7875 0.00370113
0 0.1 0.975 0.00375
0 0.1 -0.975 0.00375
0.623803 0.1 -0.75 0.00369305
0.969689 0.1 -0.1125 0.00370921
0.969689 0.1 0.1125 0.00370973
0.522865 0.1 -0.825 0.00370403
0.67013 0.1 0.7125 0.00369099
0.67013 0.1 -0.7125 0.00368866
0.871687 0.1 -0.45 0.00368775
0.871687 0.1 0.45 0.00368681
0.467897 0.1 0.8625 0.00371461
0.467897 0.1 -0.8625 0.00371055
0.714971 0.1 -0.675 0.00368563
0.714971 0.1 0.675 0.00368779
0.93886 0.1 -0.3 0.00369885
0.93886 0.1 0.3 0.0036986
0.150379 0.1 0.975 0.0037469
0.150379 0.1 -0.975 0.00374349
0.969689 0.1 -0.1875 0.00370702
0.969689 0.1 0.1875 0.00370767
0.411108 0.1 0.9 0.00372174
0.756813 0.1 0.6375 0.00368489
0.756814 0.1 -0.6375 0.00368321
0.990306 0.1 -2.19732e-17 0.00371108
0 0.1 0.99299 0.00375
0 0.1 -0.99299 0.00375
0.411108 0.1 -0.903998 0.00371719
0.990306 0.1 -0.075 0.0037102
0.990306 0.1 0.075 0.00371079
0.0363518 0.1 0.99299 0.00375093
0.0363518 0.1 -0.99299 0.00374968
0.90582 0.1 -0.4125 0.0036902
0.905821 0.1 0.4125 0.00368977
0.797314 0.1 -0.6 0.00368251
0.797314 0.1 0.6 0.00368395
0.350249 0.1 0.9375 0.00372913
0.350249 0.1 -0.9375 0.00372461
0.990306 0.1 0.15 0.00370932
0.990306 0.1 -0.15 0.00370829
0.969689 0.1 -0.2625 0.00370386
0.969689 0.1 0.2625 0.00370473
0.835106 0.1 -0.5625 0.00368237
0.835106 0.1 0.5625 0.00368337
0.93886 0.1 -0.375 0.00369456
0.93886 0.1 0.375 0.00369542
0.075776 0.1 1.0125 0.00375156
0.075776 0.1 -1.0125 0.003749
0.990306 0.1 -0.225 0.00370541
0.990306 0.1 0.225 0.0037068
0.287374 0.1 0.975 0.00373581
0.287374 0.1 -0.975 0.00373143
0.871687 0.1 -0.525 0.00368377
0.871687 0.1 0.525 0.00368514
1.02149 0.1 -0.0369628 0.0037162
1.02149 0.1 0.0369628 0.00371679
0.969689 0.1 -0.3375 0.00369941
0.969689 0.1 0.3375 0.00370124
1.02149 0.1 -0.110888 0.00371445
1.02149 0.1 0.110888 0.00371612
0.90582 0.1 0.4875 0.00368732
0.90582 0.1 -0.4875 0.00368574
0.623803 0.1 0.819003 0.00369546
0 0.1 1.03201 0.00375
0 0.1 -1.03201 0.00375
0.0363518 0.1 1.03201 0.00375093
0.0363518 0.1 -1.03201 0.00374968
0.67013 0.1 -0.7875 0.00368735
0.67013 0.1 0.7875 0.00369097
0.623803 0.1 -0.825 0.00369217
0.990306 0.1 -0.3 0.00370132
0.990306 0.1 0.3 0.00370348
0.219992 0.1 -1.0125 0.00373858
0.219993 0.1 1.0125 0.00374267
0.574156 0.1 0.8625 0.0037015
0.574157 0.1 -0.8625 0.00369758
0.714971 0.1 -0.75 0.00368376
0.714971 0.1 0.75 0.00368756
1.02149 0.1 0.184814 0.00371422
1.02149 0.1 -0.184814 0.0037117
0.756814 0.1 -0.7125 0.00368075
0.756814 0.1 0.7125 0.00368451
0.522865 0.1 0.9 0.00370819
0.93886 0.1 -0.45 0.00368957
0.93886 0.1 0.45 0.00369232
1.04168 0.1 0 0.00372082
1.04168 0.1 -0.0729162 0.00371948
1.04168 0.1 0.0729162 0.00372093
0.522865 0.1 -0.903998 0.00370374
0.797314 0.1 -0.675 0.00367945
0.797314 0.1 0.675 0.00368332
0.467897 0.1 0.9375 0.00371522
0.467897 0.1 -0.9375 0.00371059
0 0.1 1.05 0.00375
0 0.1 -1.05 0.00375
0.835106 0.1 -0.6375 0.00367874
0.835106 0.1 0.6375 0.00368244
1.04168 0.1 -0.145832 0.00371703
1.04168 0.1 0.145832 0.00371977
1.02149 0.1 -0.25874 0.00370781
1.02149 0.1 0.25874 0.00371123
0.969689 0.1 -0.4125 0.00369394
0.969689 0.1 0.4125 0.00369758
0.411108 0.1 0.975 0.00372228
0.411108 0.1 -0.975 0.00371752
0.871687 0.1 -0.6 0.0036795
0.871687 0.1 0.6 0.00368362
1.0579 0.1 -0.0360525 0.0037239
1.0579 0.1 0.0360525 0.00372478
0.990306 0.1 -0.375 0.00369603
0.990306 0.1 0.375 0.00369971
0.150379 0.1 1.05 0.00374707
0.150379 0.1 -1.05 0.00374381
1.0579 0.1 0.108157 0.00372438
1.0579 0.1 -0.108157 0.00372183
1.04168 0.1 -0.218749 0.00371346
1.04168 0.1 0.218749 0.00371739
0.90582 0.1 -0.5625 0.00368086
0.90582 0.1 0.5625 0.00368516
0 0.1 -1.06799 0.00375
0 0.1 1.06799 0.00375
0.0363518 0.1 -1.06799 0.00374981
0.0363518 0.1 1.06799 0.00375097
0.350249 0.1 1.0125 0.00372961
0.350249 0.1 -1.0125 0.0037249
1.0579 0.1 -0.180262 0.00371869
1.0579 0.1 0.180262 0.00372269
1.02149 0.1 -0.332665 0.00370247
1.02149 0.1 0.332665 0.00370741
0.93886 0.1 -0.525 0.00368415
0.93886 0.1 0.525 0.00368945
1.08012 0.1 5.49329e-18 0.00372992
1.04168 0.1 -0.291665 0.00370852
1.04168 0.1 0.291665 0.00371396
1.08012 0.1 0.0709941 0.00373031
1.08012 0.1 -0.0709941 0.00372827
0.969689 0.1 -0.4875 0.00368794
0.96969 0.1 0.4875 0.003694
1.0579 0.1 0.252367 0.00371981
1.0579 0.1 -0.252367 0.00371426
0.990306 0.1 -0.45 0.00368995
0.990306 0.1 0.45 0.0036958
0.287374 0.1 -1.05 0.00373172
0.287374 0.1 1.05 0.00373612
0.714971 0.1 0.821002 0.00368702
1.08012 0.1 -0.141988 0.00372546
1.08012 0.1 0.141988 0.00372941
0.075776 0.1 1.0875 0.00375164
0.075776 0.1 -1.0875 0.00374926
0.714971 0.1 -0.825 0.0036819
0.756813 0.1 -0.7875 0.00367836
0.756814 0.1 0.7875 0.00368374
0.67013 0.1 -0.8625 0.00368601
0.67013 0.1 0.8625 0.00369073
0.797314 0.1 -0.75 0.00367637
0.797314 0.1 0.75 0.00368233
0.623803 0.1 0.9 0.00369606
0.835106 0.1 -0.7125 0.003675
0.835106 0.1 0.7125 0.00368124
0.623803 0.1 -0.903998 0.00369125
0.574156 0.1 0.9375 0.00370183
0.574156 0.1 -0.9375 0.00369713
1.02149 0.1 -0.406591 0.003696
1.02149 0.1 0.406591 0.00370311
1.08012 0.1 -0.212982 0.0037214
1.08012 0.1 0.212982 0.00372722
1.10076 0.1 -0.0349809 0.00373452
1.10076 0.1 0.0349809 0.00373569
0.871687 0.1 -0.675 0.00367509
0.871687 0.1 0.675 0.003682
1.04168 0.1 -0.364581 0.00370223
1.04168 0.1 0.364581 0.00370977
1.10076 0.1 -0.104943 0.0037321
1.10076 0.1 0.104943 0.00373558
0.522865 0.1 0.975 0.0037086
0.522865 0.1 -0.975 0.00370359
1.0579 0.1 -0.324472 0.0037083
1.0579 0.1 0.324472 0.00371594
0 0.1 -1.10701 0.00375
0 0.1 1.10701 0.00375
0.0363518 0.1 1.10701 0.00375097
0.0363518 0.1 -1.10701 0.00374981
0.90582 0.1 0.6375 0.00368311
0.905821 0.1 -0.6375 0.00367579
0.219992 0.1 1.0875 0.00374283
0.219992 0.1 -1.0875 0.00373888
0.93886 0.1 0.6 0.00368671
0.93886 0.1 -0.6 0.00367848
1.10076 0.1 -0.174905 0.00372851
1.10076 0.1 0.174905 0.00373415
0.467897 0.1 1.0125 0.00371567
0.467897 0.1 -1.0125 0.00371053
1.08012 0.1 -0.283976 0.00371586
1.08012 0.1 0.283976 0.00372388
1.11928 0.1 3.93204e-18 0.00374036
0.990306 0.1 -0.525 0.00368353
0.990306 0.1 0.525 0.00369204
0.96969 0.1 -0.5625 0.00368167
0.969689 0.1 0.5625 0.00369075
1.11928 0.1 -0.0690357 0.00373843
1.11928 0.1 0.0690357 0.00374101
0 0.1 1.125 0.00375
0 0.1 -1.125 0.00375
0.411108 0.1 -1.05 0.00371759
0.411108 0.1 1.05 0.00372266
1.10076 0.1 0.244866 0.00373143
1.10076 0.1 -0.244866 0.00372347
1.11928 0.1 -0.138072 0.00373524
1.11928 0.1 0.138072 0.00374036
1.02149 0.1 0.480517 0.00369863
1.02149 0.1 -0.480517 0.00368903
1.0579 0.1 -0.396577 0.00370121
1.0579 0.1 0.396577 0.00371137
1.04168 0.1 -0.437497 0.00369514
1.04168 0.1 0.437497 0.00370513
0.150379 0.1 1.125 0.00374715
0.150379 0.1 -1.125 0.00374407
0.714971 0.1 0.88201 0.00368486
1.08012 0.1 0.354971 0.00371959
1.08012 0.1 -0.354971 0.00370895
1.11928 0.1 -0.207107 0.00373069
1.11928 0.1 0.207107 0.0037384
0.350249 0.1 -1.0875 0.00372511
0.350249 0.1 1.0875 0.00372991
0 0.1 1.14299 0.00375
0 0.1 -1.14299 0.00375
0.0363518 0.1 1.14299 0.00375098
0.0363518 0.1 -1.14299 0.00374992
1.14316 0.1 -0.0339211 0.0037467
1.14316 0.1 0.0339211 0.00374817
0.797314 0.1 0.821002 0.0036811
1.10076 0.1 -0.314829 0.00371678
1.10076 0.1 0.314829 0.00372758
0.797314 0.1 -0.825 0.00367336
0.756814 0.1 -0.8625 0.00367599
0.756814 0.1 0.8625 0.00368273
1.14316 0.1 -0.101763 0.0037439
1.14316 0.1 0.101763 0.00374835
0.835106 0.1 -0.7875 0.00367131
0.835106 0.1 0.7875 0.00367964
0.871687 0.1 -0.75 0.00367066
0.871687 0.1 0.75 0.00368007
0.67013 0.1 0.9375 0.0036904
0.67013 0.1 -0.9375 0.00368475
0.90582 0.1 -0.7125 0.00367063
0.905821 0.1 0.7125 0.00368085
0.714971 0.1 -0.903998 0.00368014
1.11928 0.1 0.276143 0.00373519
1.11928 0.1 -0.276143 0.00372458
1.14316 0.1 0.169605 0.00374721
1.14316 0.1 -0.169605 0.00373979
0.93886 0.1 -0.675 0.0036727
0.93886 0.1 0.675 0.00368393
1.15704 0.1 0 0.00375191
1.0579 0.1 0.468682 0.00370641
1.0579 0.1 -0.468682 0.00369367
0.623803 0.1 0.975 0.00369605
0.623803 0.1 -0.975 0.0036904
0.990306 0.1 0.6 0.00368832
0.990306 0.1 -0.6 0.00367687
1.15704 0.1 -0.0671479 0.00374967
1.15704 0.1 0.0671479 0.00375281
1.04168 0.1 -0.510414 0.00368783
1.04168 0.1 0.510414 0.00370035
0.969689 0.1 -0.6375 0.00367525
0.969689 0.1 0.6375 0.00368729
1.08012 0.1 0.425965 0.00371465
1.08012 0.1 -0.425965 0.00370127
0.287374 0.1 -1.125 0.00373194
0.287374 0.1 1.125 0.00373627
1.02149 0.1 -0.554443 0.00368197
1.02149 0.1 0.554443 0.00369427
0.574156 0.1 1.0125 0.00370211
0.574156 0.1 -1.0125 0.00369656
1.15704 0.1 -0.134296 0.00374609
1.15704 0.1 0.134296 0.00375241
0.075776 0.1 1.1625 0.00375167
0.075776 0.1 -1.1625 0.00374948
1.10076 0.1 -0.384791 0.00370898
1.10076 0.1 0.384791 0.0037228
1.14316 0.1 -0.237448 0.00373415
1.14316 0.1 0.237448 0.00374476
1.11928 0.1 -0.345179 0.00371709
1.11928 0.1 0.345179 0.0037309
0.522865 0.1 1.05 0.00370891
0.522865 0.1 -1.05 0.00370321
1.15704 0.1 -0.201444 0.00374106
1.15704 0.1 0.201444 0.00375068
1.1744 0.1 -0.0331401 0.00375602
1.1744 0.1 0.0331401 0.00375765
1.1744 0.1 -0.0994202 0.00375298
1.1744 0.1 0.0994202 0.00375799
0 0.1 1.18201 0.00375
0 0.1 -1.18201 0.00375
0.0363518 0.1 1.18201 0.00375098
0.0363518 0.1 -1.18201 0.00374992
0.219992 0.1 1.1625 0.00374286
0.219993 0.1 -1.1625 0.00373911
1.14316 0.1 0.30529 0.00374108
1.14316 0.1 -0.30529 0.0037269
0.467897 0.1 1.0875 0.00371596
0.467897 0.1 -1.0875 0.00371038
1.1744 0.1 -0.1657 0.00374859
1.1744 0.1 0.1657 0.00375704
1.15704 0.1 -0.268592 0.00373442
1.15704 0.1 0.268592 0.00374765
1.0579 0.1 0.540787 0.00370135
1.0579 0.1 -0.540787 0.00368612
0.796996 0.1 0.88201 0.00367988
1.08012 0.1 -0.496959 0.00369342
1.08012 0.1 0.496959 0.00370934
1.10076 0.1 0.454752 0.00371741
1.10076 0.1 -0.454752 0.00370081
1.11928 0.1 -0.414214 0.00370888
1.11928 0.1 0.414214 0.00372575
1.04168 0.1 -0.58333 0.00368021
1.04168 0.1 0.58333 0.00369555
1.1744 0.1 -0.231981 0.00374261
1.1744 0.1 0.231981 0.00375475
0.871687 0.1 0.821002 0.00367788
0.411108 0.1 1.125 0.00372286
0.411108 0.1 -1.125 0.00371759
1.19808 0.1 1.73472e-17 0.00376604
0.990306 0.1 0.675 0.00368458
0.990306 0.1 -0.675 0.00367009
1.02149 0.1 0.628368 0.0036898
1.02149 0.1 -0.628368 0.00367453
1.19808 0.1 -0.0650961 0.00376343
1.19808 0.1 0.0650961 0.00376724
0 0.1 1.2 0.00375
0 0.1 -1.2 0.00375
0.871687 0.1 -0.825 0.00366637
0.905821 0.1 -0.7875 0.00366553
0.90582 0.1 0.7875 0.00367822
0.835106 0.1 -0.8625 0.00366777
0.835106 0.1 0.8625 0.00367769
0.93886 0.1 -0.75 0.00366693
0.93886 0.1 0.75 0.003681
1.14316 0.1 -0.373132 0.0037186
1.14316 0.1 0.373132 0.00373631
0.969689 0.1 0.7125 0.00368398
0.969689 0.1 -0.7125 0.0036688
1.15704 0.1 -0.33574 0.00372645
1.15704 0.1 0.33574 0.00374343
0.756813 0.1 0.9375 0.0036816
0.756814 0.1 -0.9375 0.00367373
1.19808 0.1 0.130192 0.00376711
1.19808 0.1 -0.130192 0.00375938
0.797314 0.1 -0.903998 0.00367065
0.714971 0.1 0.975 0.00368563
0.714971 0.1 -0.975 0.00367835
0.150379 0.1 1.2 0.00374713
0.150379 0.1 -1.2 0.00374425
1.20938 0.1 -0.0322656 0.00376842
1.20938 0.1 0.0322656 0.00377036
1.1744 0.1 -0.298261 0.00373503
1.1744 0.1 0.298261 0.00375121
1.20938 0.1 -0.0967968 0.00376497
1.20938 0.1 0.0967968 0.00377094
1.19808 0.1 -0.195288 0.00375385
1.19808 0.1 0.195288 0.00376567
0.350249 0.1 1.1625 0.00373001
0.350249 0.1 -1.1625 0.00372524
0.67013 0.1 1.0125 0.00369012
0.67013 0.1 -1.0125 0.0036835
0 0.1 1.21799 0.00375
0 0.1 -1.21799 0.00375
0.0363518 0.1 -1.21799 0.00374999
0.0363518 0.1 1.21799 0.00375096
1.11928 0.1 -0.48325 0.00370052
1.11928 0.1 0.48325 0.00372002
1.10076 0.1 -0.524714 0.00369274
1.10076 0.1 0.524714 0.00371167
1.20938 0.1 0.161328 0.00377023
1.20938 0.1 -0.161328 0.00376014
1.08012 0.1 0.567953 0.00370387
1.08012 0.1 -0.567953 0.00368517
0.623803 0.1 1.05 0.00369602
0.623803 0.1 -1.05 0.00368944
1.0579 0.1 -0.612892 0.00367794
1.0579 0.1 0.612892 0.00369623
1.15704 0.1 -0.402888 0.0037178
1.15704 0.1 0.402888 0.00373819
1.14316 0.1 0.440974 0.0037307
1.14316 0.1 -0.440974 0.00370994
1.19808 0.1 -0.260384 0.00374675
1.19808 0.1 0.260384 0.0037629
1.2267 0.1 3.57064e-18 0.00377701
1.2267 0.1 -0.0636649 0.00377405
1.2267 0.1 0.0636649 0.00377849
1.1744 0.1 -0.364541 0.00372644
1.1744 0.1 0.364541 0.0037465
0.574156 0.1 1.0875 0.0037023
0.574156 0.1 -1.0875 0.00369585
1.20938 0.1 0.225859 0.00376818
1.20938 0.1 -0.225859 0.00375371
1.04168 0.1 -0.656246 0.00367229
1.04168 0.1 0.656246 0.00369068
1.2267 0.1 -0.12733 0.00376962
1.2267 0.1 0.12733 0.0037786
0.287374 0.1 1.2 0.00373628
0.287374 0.1 -1.2 0.00373208
1.02149 0.1 -0.702294 0.00366702
1.02149 0.1 0.702294 0.00368536
0.075776 0.1 -1.2375 0.00374964
0.075776 0.1 1.2375 0.00375163
0.871399 0.1 0.88201 0.00367584
0.522865 0.1 1.125 0.00370904
0.522865 0.1 -1.125 0.00370276
1.2267 0.1 -0.190994 0.00376371
1.2267 0.1 0.190994 0.00377738
1.19808 0.1 -0.32548 0.0037384
1.19808 0.1 0.32548 0.00375887
0.990306 0.1 -0.75 0.00366335
0.990306 0.1 0.75 0.00368086
1.24274 0.1 -0.0314313 0.00378193
1.24274 0.1 0.0314313 0.00378429
1.20938 0.1 -0.29039 0.00374576
1.20938 0.1 0.29039 0.00376483
1.24274 0.1 -0.0942942 0.00377798
1.24274 0.1 0.0942942 0.0037852
0.93886 0.1 0.821002 0.00367784
1.11928 0.1 -0.552285 0.00369159
1.11928 0.1 0.552285 0.00371396
1.15704 0.1 -0.470036 0.00370896
1.15704 0.1 0.470036 0.00373216
0.969689 0.1 -0.7875 0.00366247
0.96969 0.1 0.7875 0.00368049
0.93886 0.1 -0.825 0.00366135
0.90582 0.1 0.8625 0.00367511
0.905821 0.1 -0.8625 0.00366075
1.1744 0.1 -0.430821 0.00371752
1.1744 0.1 0.430821 0.00374081
1.10076 0.1 -0.594676 0.00368361
1.10076 0.1 0.594676 0.00370579
1.14316 0.1 -0.508816 0.00370118
1.14316 0.1 0.508816 0.0037245
1.24274 0.1 -0.157157 0.00377264
1.24274 0.1 0.157157 0.00378478
1.2267 0.1 -0.254659 0.00375629
1.2267 0.1 0.254659 0.0037748
0.467897 0.1 1.1625 0.00371606
0.467897 0.1 -1.1625 0.00371018
1.08012 0.1 0.638947 0.00369828
1.08012 0.1 -0.638947 0.00367641
1.25511 0.1 -5.78241e-19 0.00378948
0.835106 0.1 -0.9375 0.00366435
0.835106 0.1 0.9375 0.0036756
0.871687 0.1 -0.903998 0.00366263
1.25511 0.1 0.0622446 0.00379138
1.25511 0.1 -0.0622446 0.003786
0.219992 0.1 1.2375 0.00374278
0.219992 0.1 -1.2375 0.00373925
0 0.1 -1.25701 0.00375
0 0.1 1.25701 0.00375
0.0363518 0.1 -1.25701 0.00374999
0.0363518 0.1 1.25701 0.00375096
0.797314 0.1 0.975 0.00367781
0.797314 0.1 -0.975 0.00366771
1.19808 0.1 -0.390576 0.00372939
1.19808 0.1 0.390576 0.00375367
1.0579 0.1 -0.684997 0.00366964
1.0579 0.1 0.684997 0.00369103
1.20938 0.1 -0.354921 0.00373688
1.20938 0.1 0.354921 0.00376022
1.25511 0.1 0.124489 0.00379184
1.25511 0.1 -0.124489 0.00378104
1.24274 0.1 -0.220019 0.00376575
1.24274 0.1 0.220019 0.00378299
0.756813 0.1 1.0125 0.00368048
0.756814 0.1 -1.0125 0.00367162
1.2267 0.1 -0.318324 0.0037477
1.2267 0.1 0.318324 0.00377091
0.411108 0.1 1.2 0.00372287
0.411108 0.1 -1.2 0.0037175
1.25511 0.1 -0.186734 0.00377463
1.25511 0.1 0.186734 0.00379091
0.714971 0.1 1.05 0.00368495
0.714971 0.1 -1.05 0.00367665
1.04168 0.1 -0.729162 0.00366436
1.04168 0.1 0.729162 0.00368591
1.24274 0.1 0.282882 0.00377984
1.24274 0.1 -0.282882 0.00375748
0 0.1 1.275 0.00375
0 0.1 -1.275 0.00375
1.1744 0.1 0.497102 0.0037344
1.1744 0.1 -0.497102 0.00370845
1.15704 0.1 -0.537184 0.00369936
1.15704 0.1 0.537184 0.0037256
1.2756 0.1 -0.03061 0.00379779
1.2756 0.1 0.03061 0.00380085
0.67013 0.1 1.0875 0.00368983
0.67013 0.1 -1.0875 0.00368219
1.2756 0.1 -0.09183 0.00379312
1.2756 0.1 0.09183 0.00380231
1.25511 0.1 -0.248978 0.00376681
1.25511 0.1 0.248978 0.00378857
1.20938 0.1 0.419453 0.00375449
1.20938 0.1 -0.419453 0.00372763
1.11928 0.1 -0.621322 0.00368194
1.11928 0.1 0.621322 0.00370768
1.14316 0.1 -0.576659 0.0036912
1.14316 0.1 0.576659 0.00371796
1.19808 0.1 -0.455673 0.00372003
1.19808 0.1 0.455673 0.0037475
1.02149 0.1 0.776219 0.00368106
1.02149 0.1 -0.776219 0.0036596
0.150379 0.1 1.275 0.00374704
0.150379 0.1 -1.275 0.00374437
1.2756 0.1 -0.15305 0.00378708
1.2756 0.1 0.15305 0.00380234
1.2267 0.1 -0.381989 0.00373843
1.2267 0.1 0.381989 0.00376576
1.10076 0.1 -0.664638 0.00367429
1.10076 0.1 0.664638 0.00369971
0.350249 0.1 1.2375 0.00372998