# nutMean  POINT_DATA 63840
# x  y  z  nutMean
0 0.5 3.39583e-17 0.0149697
0 0.5 -0.00617931 0.0150234
0 0.5 0.00617931 0.0149211
0.0124865 0.5 -0.00617931 0.0161215
0.0124865 0.5 0.00617931 0.0159732
0 0.5 -0.0688207 0.0155076
0 0.5 0.0688207 0.0143933
0.0124865 0.5 -0.0688207 0.0166056
0.0124865 0.5 0.0688207 0.0154453
0 0.5 -0.075 0.01555
0 0.5 0.075 0.0143375
0 0.5 -0.0811793 0.015598
0 0.5 0.0811793 0.0142865
0.0124865 0.5 -0.0811793 0.0167415
0.0124865 0.5 0.0811793 0.0152889
0.075776 0.5 -0.0375 0.0219134
0.075776 0.5 0.0375 0.0210209
0.075776 0.5 -0.1125 0.0227203
0.075776 0.5 0.1125 0.0200781
0 0.5 -0.143821 0.0159546
0 0.5 0.143821 0.0137521
0.0124865 0.5 -0.143821 0.0170981
0.0124865 0.5 0.143821 0.0147544
0 0.5 -0.15 0.0159774
0 0.5 0.15 0.0136978
0.151149 0.5 -0.00137318 0.0194422
0 0.5 -0.156179 0.0160062
0 0.5 0.156179 0.0136474
0.0124865 0.5 -0.156179 0.0171407
0.0124865 0.5 0.156179 0.0145989
0.151149 0.5 0.075 0.018834
0.151149 0.5 -0.075 0.0199662
0.075776 0.5 -0.1875 0.0229863
0.075776 0.5 0.1875 0.019141
0.151149 0.5 0.15 0.0181005
0.151149 0.5 -0.15 0.0203479
0 0.5 -0.218821 0.016213
0 0.5 0.218821 0.0131362
0.0124865 0.5 -0.218821 0.0173476
0.0124865 0.5 0.218821 0.0140876
0.219992 0.5 0.0375 0.0175004
0.219993 0.5 -0.0375 0.0176146
0 0.5 -0.225 0.0162248
0 0.5 0.225 0.0130863
0 0.5 -0.231179 0.0162431
0 0.5 0.231179 0.0130386
0.0124865 0.5 -0.231179 0.017375
0.0124865 0.5 0.231179 0.0139421
0.219992 0.5 0.1125 0.0169689
0.219993 0.5 -0.1125 0.0179328
0.151149 0.5 -0.225 0.0205234
0.151149 0.5 0.225 0.0173782
0.075776 0.5 -0.2625 0.0231527
0.075776 0.5 0.2625 0.0182642
0.288069 0.5 -0.00137318 0.0143369
0.219992 0.5 0.1875 0.0164183
0.219993 0.5 -0.1875 0.0180892
0 0.5 0.293821 0.0125708
0 0.5 -0.293821 0.0163654
0.0124865 0.5 -0.293821 0.0174973
0.0124865 0.5 0.293821 0.0134742
0.288069 0.5 -0.075 0.0144517
0.288069 0.5 0.075 0.0141599
0 0.5 -0.3 0.0163707
0 0.5 0.3 0.012527
0 0.5 0.306179 0.0124831
0 0.5 -0.306179 0.0163829
0.0124865 0.5 -0.306179 0.0175584
0.0124865 0.5 0.306179 0.0133428
0.288069 0.5 -0.15 0.0146041
0.288069 0.5 0.15 0.0139032
0.151149 0.5 -0.3 0.0207784
0.151149 0.5 0.3 0.0166963
0.219992 0.5 -0.2625 0.0182081
0.219992 0.5 0.2625 0.015868
0.075776 0.5 0.3375 0.0174735
0.075776 0.5 -0.3375 0.0235249
0.350249 0.5 -0.0375 0.0113065
0.350249 0.5 0.0375 0.0112505
0.288069 0.5 -0.225 0.0147224
0.288069 0.5 0.225 0.0136162
0.350249 0.5 0.1125 0.0113071
0.350249 0.5 -0.1125 0.0113713
0 0.5 0.368821 0.0120736
0 0.5 -0.368821 0.0163457
0.0124865 0.5 -0.368821 0.0175212
0.0124865 0.5 0.368821 0.0129333
0 0.5 -0.375 0.0163255
0 0.5 0.375 0.0120373
0 0.5 -0.381179 0.0163117
0 0.5 0.381179 0.0120002
0.0124865 0.5 -0.381179 0.0174609
0.0124865 0.5 0.381179 0.0128236
0.350249 0.5 -0.1875 0.0114524
0.350249 0.5 0.1875 0.0112703
0.219992 0.5 -0.3375 0.0185726
0.219992 0.5 0.3375 0.0153367
0.151149 0.5 -0.375 0.0208221
0.151149 0.5 0.375 0.0160786
0.411736 0.5 -0.00137318 0.00966376
0.288069 0.5 -0.3 0.014941
0.288069 0.5 0.3 0.0133376
0.411736 0.5 -0.075 0.00969192
0.411736 0.5 0.075 0.00966016
0.075776 0.5 -0.4125 0.0231716
0.075776 0.5 0.4125 0.0168031
0.350249 0.5 -0.2625 0.0115715
0.350249 0.5 0.2625 0.0112268
0.411736 0.5 -0.15 0.00975622
0.411736 0.5 0.15 0.00968444
0 0.5 -0.443821 0.0160972
0 0.5 0.443821 0.011655
0.0124865 0.5 -0.443821 0.0172465
0.0124865 0.5 0.443821 0.0124784
0 0.5 -0.45 0.0160688
0 0.5 0.45 0.0116246
0 0.5 -0.456179 0.0160444
0 0.5 0.456179 0.0115942
0.0124865 0.5 -0.456179 0.0171622
0.0124865 0.5 0.456179 0.0123875
0.219992 0.5 -0.4125 0.0183589
0.219993 0.5 0.4125 0.0148426
0.411736 0.5 -0.225 0.00985446
0.411736 0.5 0.225 0.00970235
0.467897 0.5 0.0375 0.00812342
0.467897 0.5 -0.0375 0.00812266
0.288069 0.5 -0.375 0.0150752
0.288069 0.5 0.375 0.0130804
0.151149 0.5 -0.45 0.0205101
0.151149 0.5 0.45 0.01554
0.467897 0.5 -0.1125 0.0081619
0.467897 0.5 0.1125 0.00815096
0.350249 0.5 0.3375 0.0112044
0.350249 0.5 -0.3375 0.0118465
0.075776 0.5 -0.4875 0.0226717
0.075776 0.5 0.4875 0.016243
0.467897 0.5 -0.1875 0.00823499
0.467897 0.5 0.1875 0.00819901
0.411736 0.5 -0.3 0.0100286
0.411736 0.5 0.3 0.00973434
0 0.5 -0.518821 0.0157492
0 0.5 0.518821 0.0113137
0.0124865 0.5 0.518821 0.012107
0.0124865 0.5 -0.518821 0.0168669
0.523432 0.5 -0.00137318 0.00718142
0 0.5 -0.525 0.0157158
0 0.5 0.525 0.0112894
0.523432 0.5 -0.075 0.00719229
0.523432 0.5 0.075 0.00719102
0 0.5 -0.531179 0.0156833
0 0.5 0.531179 0.0112651
0.0124865 0.5 -0.531179 0.0167649
0.0124865 0.5 0.531179 0.0120342
0.288069 0.5 -0.45 0.0150424
0.288069 0.5 0.45 0.0128504
0.219992 0.5 -0.4875 0.0181613
0.219993 0.5 0.4875 0.0144023
0.467897 0.5 -0.2625 0.00835487
0.467897 0.5 0.2625 0.00829603
0.350249 0.5 -0.4125 0.0119503
0.350249 0.5 0.4125 0.011191
0.523432 0.5 -0.15 0.00724642
0.523432 0.5 0.15 0.00723393
0.151149 0.5 -0.525 0.02013
0.151149 0.5 0.525 0.0150869
0.411736 0.5 -0.375 0.0102081
0.411736 0.5 0.375 0.00977714
0.075776 0.5 -0.5625 0.0220657
0.075776 0.5 0.5625 0.0158007
0.523432 0.5 -0.225 0.00733768
0.523432 0.5 0.225 0.00730691
0.574156 0.5 -0.0375 0.0062766
0.574156 0.5 0.0375 0.00627944
0.467897 0.5 0.3375 0.00838524
0.467897 0.5 -0.3375 0.00854016
0.574156 0.5 -0.1125 0.00631247
0.574156 0.5 0.1125 0.00631434
0 0.5 -0.593821 0.0153457
0 0.5 0.593821 0.0110499
0.0124865 0.5 -0.593821 0.0164273
0.0124865 0.5 0.593821 0.011819
0.288069 0.5 -0.525 0.0150215
0.288069 0.5 0.525 0.0126553
0 0.5 -0.6 0.0153122
0 0.5 0.6 0.0110321
0.350249 0.5 -0.4875 0.0121047
0.350249 0.5 0.4875 0.0111889
0.523432 0.5 -0.3 0.00747387
0.523432 0.5 0.3 0.00740247
0.219992 0.5 -0.5625 0.0179201
0.219992 0.5 0.5625 0.0140258
0.574156 0.5 -0.1875 0.00638102
0.574156 0.5 0.1875 0.0063749
0 0.5 -0.606179 0.0152769
0 0.5 0.606179 0.0110138
0.0124865 0.5 -0.606179 0.0163233
0.0124865 0.5 0.606179 0.0117647
0.411736 0.5 -0.45 0.0103631
0.411736 0.5 0.45 0.00983535
0.151149 0.5 -0.6 0.0197077
0.151149 0.5 0.6 0.0147231
0.62168 0.5 2.64545e-17 0.00570798
0.467897 0.5 0.4125 0.00849581
0.467897 0.5 -0.4125 0.00869527
0.624316 0.5 0.0729402 0.00568721
0.624316 0.5 -0.075 0.00568939
0.574156 0.5 -0.2625 0.00648509
0.574157 0.5 0.2625 0.00646117
0.075776 0.5 -0.6375 0.0214408
0.075776 0.5 0.6375 0.0154705
0.624316 0.5 -0.15 0.00574028
0.624316 0.5 0.15 0.00573271
0.523432 0.5 -0.375 0.00763537
0.523432 0.5 0.375 0.00751266
0.350249 0.5 -0.5625 0.0122805
0.350249 0.5 0.5625 0.0112006
0.624316 0.5 -0.225 0.00582183
0.624316 0.5 0.225 0.00580343
0.288069 0.5 0.6 0.0124991
0.288069 0.5 -0.6 0.0150022
0.574156 0.5 -0.3375 0.00662245
0.574156 0.5 0.3375 0.00657064
0.411736 0.5 -0.525 0.0105573
0.411736 0.5 0.525 0.00990889
0 0.5 -0.668821 0.0149387
0 0.5 0.668821 0.0108613
0.0124865 0.5 -0.668821 0.0159851
0.0124865 0.5 0.668821 0.0116122
0.67013 0.5 0.0375 0.0050936
0.67013 0.5 -0.0375 0.00509715
0.219993 0.5 -0.6375 0.0176762
0.219993 0.5 0.6375 0.0137162
0 0.5 -0.675 0.0149081
0 0.5 0.675 0.0108505
0.467897 0.5 0.4875 0.00862581
0.467897 0.5 -0.4875 0.00889888
0.67013 0.5 -0.1125 0.00513268
0.67013 0.5 0.1125 0.00512328
0 0.5 -0.681179 0.0148752
0 0.5 0.681179 0.0108379
0.0124865 0.5 -0.681179 0.0158914
0.0124865 0.5 0.681179 0.0115771
0.523432 0.5 -0.45 0.00781744
0.523432 0.5 0.45 0.00764385
0.151149 0.5 -0.675 0.0192938
0.151149 0.5 0.675 0.014449
0.624316 0.5 -0.3 0.00593071
0.624316 0.5 0.3 0.00589852
0.67013 0.5 0.1875 0.00518039
0.67013 0.5 -0.1875 0.00519642
0.574156 0.5 -0.4125 0.00679167
0.574157 0.5 0.4125 0.00670103
0.708171 0.5 1.88651e-17 0.0047494
0.075776 0.5 -0.7125 0.0208614
0.075776 0.5 0.7125 0.0152516
0.715434 0.5 0.0736268 0.00470196
0.715434 0.5 -0.075 0.00470354
0.67013 0.5 0.2625 0.0052596
0.67013 0.5 -0.2625 0.00528676
0.350249 0.5 -0.6375 0.0124843
0.350249 0.5 0.6375 0.0112264
0.411736 0.5 -0.6 0.0107828
0.411736 0.5 0.6 0.0099973
0.624316 0.5 -0.375 0.00607681
0.624316 0.5 0.375 0.00601372
0.715434 0.5 -0.15 0.00475146
0.715434 0.5 0.15 0.00473238
0.467897 0.5 -0.5625 0.00913863
0.467897 0.5 0.5625 0.00877232
0.288069 0.5 -0.675 0.0149984
0.288069 0.5 0.675 0.012384
0.523432 0.5 -0.525 0.00803745
0.523432 0.5 0.525 0.00779503
0 0.5 -0.743821 0.0145604
0 0.5 0.743821 0.0107494
0.0124865 0.5 -0.743821 0.0155765
0.0124865 0.5 0.743821 0.0114886
0.219992 0.5 0.7125 0.0134776
0.219992 0.5 -0.7125 0.0174435
0.715434 0.5 -0.225 0.00482424
0.715434 0.5 0.225 0.00479634
0 0.5 -0.75 0.0145321
0 0.5 0.75 0.0107448
0.67013 0.5 0.3375 0.00536529
0.67013 0.5 -0.3375 0.00539172
0.574156 0.5 -0.4875 0.0069917
0.574156 0.5 0.4875 0.00685364
0 0.5 -0.756179 0.014503
0 0.5 0.756179 0.01074
0.0124865 0.5 -0.756179 0.0154932
0.0124865 0.5 0.756179 0.011475
0.756813 0.5 -0.0375 0.00429385
0.756813 0.5 0.0375 0.00428554
0.151149 0.5 -0.75 0.018916
0.151149 0.5 0.75 0.0142675
0.756813 0.5 -0.1125 0.00432853
0.756813 0.5 0.1125 0.00430802
0.624316 0.5 -0.45 0.00625923
0.624316 0.5 0.45 0.00615
0.715434 0.5 -0.3 0.00491943
0.715434 0.5 0.3 0.0048834
0.756813 0.5 0.1875 0.00435667
0.756813 0.5 -0.1875 0.00438643
0.67013 0.5 -0.4125 0.0055653
0.67013 0.5 0.4125 0.00548105
0.411736 0.5 -0.675 0.0110403
0.411736 0.5 0.675 0.0101004
0.467897 0.5 0.6375 0.00893372
0.467897 0.5 -0.6375 0.00941716
0.075776 0.5 -0.7875 0.0203401
0.075776 0.5 0.7875 0.0151547
0.350249 0.5 -0.7125 0.0127127
0.350249 0.5 0.7125 0.0112686
0.523432 0.5 -0.6 0.0082951
0.523432 0.5 0.6 0.00796419
0.797732 0.5 2.68882e-17 0.00399817
0.756813 0.5 -0.2625 0.00446594
0.756814 0.5 0.2625 0.00442793
0.797732 0.5 0.0736268 0.00400664
0.797732 0.5 -0.075 0.00401933
0.288069 0.5 -0.75 0.0150179
0.288069 0.5 0.75 0.0123123
0.574156 0.5 -0.5625 0.00722858
0.574157 0.5 0.5625 0.00702783
0.715434 0.5 -0.375 0.00505269
0.715434 0.5 0.375 0.00499098
0.797732 0.5 -0.15 0.00406389
0.797732 0.5 0.15 0.00403621
0.624316 0.5 -0.525 0.00647069
0.624316 0.5 0.525 0.00631071
0.219992 0.5 -0.7875 0.0172429
0.219992 0.5 0.7875 0.0133093
0 0.5 -0.818821 0.0142288
0 0.5 0.818821 0.0107066
0.0124865 0.5 0.818821 0.0114415
0.0124865 0.5 -0.818821 0.015219
0 0.5 -0.825 0.0142047
0 0.5 0.825 0.0107029
0.756813 0.5 0.3375 0.00452053
0.756814 0.5 -0.3375 0.00457209
0.67013 0.5 -0.4875 0.00575238
0.67013 0.5 0.4875 0.00562795
0.797732 0.5 -0.225 0.00412937
0.797732 0.5 0.225 0.00409225
0 0.5 -0.831179 0.0141799
0 0.5 0.831179 0.0107019
0.0124865 0.5 -0.831179 0.015149
0.0124865 0.5 0.831179 0.0114319
0.835106 0.5 0.0375 0.00371428
0.835106 0.5 -0.0375 0.00372337
0.151149 0.5 -0.825 0.0185948
0.151149 0.5 0.825 0.0141662
0.835106 0.5 0.1125 0.00373198
0.835106 0.5 -0.1125 0.00375595
0.715434 0.5 -0.45 0.00522266
0.715434 0.5 0.45 0.00511687
0.797732 0.5 -0.3 0.00422078
0.797732 0.5 0.3 0.00416939
0.467897 0.5 0.7125 0.00910868
0.467897 0.5 -0.7125 0.00973165
0.523432 0.5 -0.675 0.00859064
0.523432 0.5 0.675 0.00814937
0.411736 0.5 -0.75 0.011328
0.411736 0.5 0.75 0.0102189
0.835106 0.5 -0.1875 0.00380918
0.835106 0.5 0.1875 0.00377294
0.574156 0.5 -0.6375 0.00750425
0.574157 0.5 0.6375 0.00722074
0.350249 0.5 -0.7875 0.0129657
0.350249 0.5 0.7875 0.0113297
0.756813 0.5 -0.4125 0.00472101
0.756814 0.5 0.4125 0.0046371
0.075776 0.5 -0.8625 0.0199145
0.075776 0.5 0.8625 0.01512
0.624316 0.5 0.6 0.00649232
0.624316 0.5 -0.6 0.00671898
0.872064 0.5 5.91974e-17 0.00349061
0.870122 0.5 0.075 0.00350827
0.288069 0.5 -0.825 0.0150681
0.288069 0.5 0.825 0.0122842
0.67013 0.5 -0.5625 0.00597493
0.67013 0.5 0.5625 0.00579738
0.872064 0.5 -0.075 0.00351172
0.835106 0.5 -0.2625 0.00388074
0.835106 0.5 0.2625 0.0038366
0.797732 0.5 -0.375 0.00434198
0.797732 0.5 0.375 0.0042686
0.872064 0.5 0.14794 0.00352021
0.872064 0.5 -0.15 0.00355455
0.715434 0.5 -0.525 0.00541912
0.715434 0.5 0.525 0.00526576
0.219992 0.5 0.8625 0.013209
0.219993 0.5 -0.8625 0.0170855
0 0.5 -0.893821 0.013958
0 0.5 0.893821 0.0106962
0.0124865 0.5 -0.893821 0.014927
0.0124865 0.5 0.893821 0.0114262
0 0.5 -0.9 0.0139399
0 0.5 0.9 0.0106938
0.756813 0.5 -0.4875 0.0048923
0.756813 0.5 0.4875 0.00476195
0.872064 0.5 -0.225 0.00361364
0.872064 0.5 0.225 0.00356847
0.835106 0.5 -0.3375 0.00398923
0.835106 0.5 0.3375 0.00391803
0 0.5 0.906179 0.0106932
0 0.5 -0.906179 0.0139196
0.0124865 0.5 -0.906179 0.0148734
0.0124865 0.5 0.906179 0.0114149
0.90582 0.5 -0.0375 0.0032758
0.90582 0.5 0.0375 0.00326612
0.151149 0.5 -0.9 0.018344
0.151149 0.5 0.9 0.0141059
0.90582 0.5 -0.1125 0.00330883
0.905821 0.5 0.1125 0.00327984
0.523432 0.5 -0.75 0.0089228
0.523432 0.5 0.75 0.00834926
0.574156 0.5 -0.7125 0.00781787
0.574156 0.5 0.7125 0.00743035
0.797732 0.5 -0.45 0.0044914
0.797732 0.5 0.45 0.00438255
0.467897 0.5 0.7875 0.00929625
0.467897 0.5 -0.7875 0.0100809
0.624316 0.5 -0.675 0.00700486
0.624316 0.5 0.675 0.00669268
0.411736 0.5 -0.825 0.0116447
0.411736 0.5 0.825 0.0103533
0.872064 0.5 0.3 0.00363683
0.872064 0.5 -0.3 0.00369733
0.67013 0.5 -0.6375 0.00623384
0.67013 0.5 0.6375 0.00598749
0.90582 0.5 0.1875 0.00331351
0.905821 0.5 -0.1875 0.00336131
0.350249 0.5 -0.8625 0.0132426
0.350249 0.5 0.8625 0.0114116
0.835106 0.5 -0.4125 0.00411103
0.835106 0.5 0.4125 0.00402472
0.715434 0.5 -0.6 0.0056505
0.715434 0.5 0.6 0.00543882
0.939201 0.5 2.75387e-17 0.00316037
0.075776 0.5 0.9375 0.0150804
0.075776 0.5 -0.9375 0.0195861
0.939111 0.5 0.075 0.00316483
0.939201 0.5 -0.075 0.00318072
0.756813 0.5 0.5625 0.00491721
0.756814 0.5 -0.5625 0.00509798
0.90582 0.5 0.2625 0.00336857
0.905821 0.5 -0.2625 0.00342067
0.288069 0.5 -0.9 0.015152
0.288069 0.5 0.9 0.0122907
0.872064 0.5 -0.375 0.00380339
0.872064 0.5 0.375 0.00372499
0.939201 0.5 0.148627 0.00318903
0.939201 0.5 -0.15 0.00322346
0.797732 0.5 -0.525 0.00467195
0.797732 0.5 0.525 0.0045156
0.219992 0.5 0.9375 0.013144
0.219992 0.5 -0.9375 0.0169762
0.939201 0.5 -0.225 0.00327729
0.939201 0.5 0.225 0.00323177
0.905821 0.5 -0.3375 0.00351647
0.90582 0.5 0.3375 0.00344219
0.835106 0.5 -0.4875 0.00426761
0.835106 0.5 0.4875 0.00413298
0 0.5 0.968821 0.0107331
0 0.5 -0.968821 0.0137518
0.0124865 0.5 -0.968821 0.0147056
0.0124865 0.5 0.968821 0.0114549
0.969689 0.5 -0.0375 0.00305685
0.969689 0.5 0.0375 0.00304993
0.574156 0.5 -0.7875 0.00816912
0.574156 0.5 0.7875 0.0076557
0 0.5 -0.975 0.0137408
0 0.5 0.975 0.0107422
0.624316 0.5 -0.75 0.00732827
0.624316 0.5 0.75 0.00691036
0.969689 0.5 -0.1125 0.00308867
0.96969 0.5 0.1125 0.00306555
0.523432 0.5 -0.825 0.00929042
0.523432 0.5 0.825 0.00856284
0.67013 0.5 0.7125 0.00619637
0.67013 0.5 -0.7125 0.00653008
0 0.5 -0.981179 0.0137254
0 0.5 0.981179 0.0107517
0.467897 0.5 0.8625 0.00949613
0.467897 0.5 -0.8625 0.0104627
0.0124865 0.5 -0.981179 0.0146707
0.0124865 0.5 0.981179 0.0114791
0.872064 0.5 -0.45 0.00393592
0.872064 0.5 0.45 0.00383045
0.715434 0.5 -0.675 0.00591771
0.715434 0.5 0.675 0.00563234
0.939201 0.5 -0.3 0.00334783
0.939201 0.5 0.3 0.0032953
0.151149 0.5 0.975 0.014111
0.151149 0.5 -0.975 0.0181685
0.969689 0.5 -0.1875 0.00314233
0.969689 0.5 0.1875 0.00309947
0.756813 0.5 -0.6375 0.00533725
0.756813 0.5 0.6375 0.00509526
0.411736 0.5 -0.9 0.0119887
0.411736 0.5 0.9 0.0105037
0.90582 0.5 -0.4125 0.00361532
0.90582 0.5 0.4125 0.00353355
0.995005 0.5 0.0749309 0.00291907
0.797732 0.5 -0.6 0.00488615
0.797732 0.5 0.6 0.00467569
1.00005 0.5 -8.47123e-18 0.00288276
0.350249 0.5 -0.9375 0.0135409
0.350249 0.5 0.9375 0.0115094
1.00005 0.5 -0.0749309 0.00290106
0.969689 0.5 -0.2625 0.00319225
0.969689 0.5 0.2625 0.00315266
0.835106 0.5 -0.5625 0.0044569
0.835106 0.5 0.5625 0.00427739
1.00005 0.5 -0.149862 0.00294111
0.939201 0.5 -0.375 0.00344436
0.939201 0.5 0.375 0.00337611
1.00029 0.5 0.148988 0.0029162
0.075776 0.5 -1.0125 0.0193631
0.075776 0.5 1.0125 0.0152028
0.288069 0.5 0.975 0.0123349
0.288069 0.5 -0.975 0.0152716
0.872064 0.5 -0.525 0.00410436
0.872064 0.5 0.525 0.00395216
1.00005 0.5 0.224793 0.00295461
1.00005 0.5 -0.224793 0.00299176
0.969689 0.5 0.3375 0.00322498
0.96969 0.5 -0.3375 0.00326981
1.0271 0.5 -0.0368226 0.00270703
1.0271 0.5 0.0368226 0.002702
0.90582 0.5 0.4875 0.0036492
0.905821 0.5 -0.4875 0.00376872
1.0271 0.5 -0.110468 0.0027354
1.0271 0.5 0.110468 0.00270402
0.67013 0.5 0.7875 0.00642326
0.67013 0.5 -0.7875 0.00686356
0.624316 0.5 0.825 0.00714422
0.624316 0.5 -0.825 0.00768892
0.219993 0.5 -1.0125 0.016921
0.219993 0.5 1.0125 0.0131509
0.574156 0.5 -0.8625 0.0085571
0.574156 0.5 0.8625 0.00789501
0.715434 0.5 -0.75 0.00622224
0.715434 0.5 0.75 0.00584519
0.756813 0.5 0.7125 0.00529283
0.756814 0.5 -0.7125 0.00561266
0.523432 0.5 -0.9 0.00969198
0.523432 0.5 0.9 0.00878949
0.939201 0.5 -0.45 0.00358478
0.939201 0.5 0.45 0.00347585
1.04168 0.5 0 0.00262329
1.0271 0.5 -0.184113 0.00277868
1.0271 0.5 0.184113 0.00274756
0 0.5 -1.04382 0.0136175
0 0.5 1.04382 0.0108544
0.0124865 0.5 -1.04382 0.0145629
0.0124865 0.5 1.04382 0.0115818
1.00005 0.5 -0.299723 0.00305572
1.00005 0.5 0.299723 0.00301565
1.04168 0.5 -0.0729162 0.00263984
1.04168 0.5 0.0729162 0.00262719
0.797732 0.5 -0.675 0.00513502
0.797732 0.5 0.675 0.00485532
0.467897 0.5 0.9375 0.00971064
0.467897 0.5 -0.9375 0.010875
0 0.5 -1.05 0.0136125
0 0.5 1.05 0.0108655
0.835106 0.5 -0.6375 0.00468016
0.835106 0.5 0.6375 0.00444058
1.04168 0.5 -0.145832 0.00267324
1.04168 0.5 0.145832 0.00264716
0.969689 0.5 -0.4125 0.00338376
0.96969 0.5 0.4125 0.00331103
0 0.5 -1.05618 0.0136049
0 0.5 1.05618 0.0108772
0.0124865 0.5 -1.05618 0.0145502
0.0124865 0.5 1.05618 0.0116102
1.05695 0.5 -0.0360764 0.0025449
1.05695 0.5 0.0360764 0.00253926
0.411736 0.5 -0.975 0.0123582
0.411736 0.5 0.975 0.0106749
0.872064 0.5 -0.6 0.00430348
0.872064 0.5 0.6 0.00409453
1.0271 0.5 -0.257759 0.00283183
1.0271 0.5 0.257759 0.00279497
0.151149 0.5 -1.05 0.0180754
0.151149 0.5 1.05 0.0142139
1.05695 0.5 0.108229 0.00253311
1.05695 0.5 -0.108229 0.00257144
1.04168 0.5 -0.218749 0.00271781
1.04168 0.5 0.218749 0.00268167
0.90582 0.5 -0.5625 0.00394352
0.905821 0.5 0.5625 0.00376807
1.00005 0.5 -0.374654 0.00315318
1.00005 0.5 0.374654 0.00309369
0.350249 0.5 1.0125 0.011637
0.350249 0.5 -1.0125 0.0138602
1.05695 0.5 -0.180382 0.00260594
1.05695 0.5 0.180382 0.00257327
1.07319 0.5 0.0709442 0.00247606
0.939201 0.5 -0.525 0.00375917
0.939201 0.5 0.525 0.00358925
1.0271 0.5 -0.331404 0.00290512
1.0271 0.5 0.331404 0.00286076
1.08112 0.5 3.23815e-17 0.00244493
1.04168 0.5 -0.291665 0.00277623
1.04168 0.5 0.291665 0.00273228
1.08112 0.5 -0.0709442 0.00246054
0.969689 0.5 -0.4875 0.00357827
0.96969 0.5 0.4875 0.0034172
1.05695 0.5 0.252535 0.00260997
1.05695 0.5 -0.252535 0.00265372
0.288069 0.5 -1.05 0.0154275
0.288069 0.5 1.05 0.0124011
0.075776 0.5 -1.0875 0.019263
0.075776 0.5 1.0875 0.015391
1.08112 0.5 -0.141888 0.00248932
1.08145 0.5 0.140165 0.00246788
0.715434 0.5 0.825 0.00607619
0.715434 0.5 -0.825 0.00656508
0.756813 0.5 0.7875 0.00551136
0.756814 0.5 -0.7875 0.00592661
0.67013 0.5 -0.8625 0.00723438
0.67013 0.5 0.8625 0.00666699
0.797732 0.5 -0.75 0.00542127
0.797732 0.5 0.75 0.00505401
0.624316 0.5 -0.9 0.0080864
0.624316 0.5 0.9 0.00739216
1.00005 0.5 -0.449585 0.00329832
1.00005 0.5 0.449585 0.00318915
0.835106 0.5 -0.7125 0.00493839
0.835106 0.5 0.7125 0.00462096
0.574156 0.5 -0.9375 0.00898083
0.574157 0.5 0.9375 0.00814573
1.10076 0.5 -0.0349809 0.00237651
1.10076 0.5 0.0349809 0.00237265
1.08112 0.5 -0.212832 0.00252557
1.08112 0.5 0.212832 0.00249322
0.872064 0.5 -0.675 0.0045394
0.872064 0.5 0.675 0.00425803
1.04168 0.5 -0.364581 0.00286384
1.04168 0.5 0.364581 0.00279906
1.0271 0.5 0.405049 0.00294234
1.0271 0.5 -0.405049 0.00302074
1.05695 0.5 -0.324688 0.00271681
1.05695 0.5 0.324688 0.0026626
1.10076 0.5 -0.104943 0.00240299
1.10076 0.5 0.104943 0.00238385
0.523432 0.5 0.975 0.00903348
0.523432 0.5 -0.975 0.0101261
0.90582 0.5 0.6375 0.00391195
0.905821 0.5 -0.6375 0.00415318
0.219992 0.5 1.0875 0.0132519
0.219992 0.5 -1.0875 0.0169186
1.11376 0.5 3.81639e-17 0.00233032
0.939201 0.5 0.6 0.00373442
0.939201 0.5 -0.6 0.00394754
1.10076 0.5 -0.174905 0.00243234
1.10076 0.5 0.174905 0.00240705
0.467897 0.5 -1.0125 0.0113161
0.467897 0.5 1.0125 0.00994874
1.11376 0.5 -0.0693118 0.00234511
1.11376 0.5 0.0693118 0.00233426
1.08112 0.5 0.283777 0.00253563
1.08112 0.5 -0.283777 0.00257692
0 0.5 -1.11882 0.0135535
0 0.5 1.11882 0.0110216
0.0124865 0.5 -1.11882 0.0144988
0.0124865 0.5 1.11882 0.0117545
0.969689 0.5 -0.5625 0.00375238
0.969689 0.5 0.5625 0.00353034
1.11376 0.5 0.138624 0.00235332
1.11376 0.5 -0.138624 0.00237257
0 0.5 -1.125 0.0135483
0 0.5 1.125 0.0110373
1.10076 0.5 0.244866 0.00244232
1.10076 0.5 -0.244866 0.00246836
0.411736 0.5 -1.05 0.0127522
0.411736 0.5 1.05 0.0108197
1.05695 0.5 -0.396841 0.00281674
1.05695 0.5 0.396841 0.00272969
1.00005 0.5 -0.524516 0.00345999
1.00005 0.5 0.524516 0.00330095
1.04168 0.5 -0.437497 0.00298329
1.04168 0.5 0.437497 0.00288201
0 0.5 -1.13118 0.0135474
0 0.5 1.13118 0.0110534
0.0124865 0.5 -1.13118 0.014494
0.0124865 0.5 1.13118 0.0117959
1.11376 0.5 -0.207935 0.00240365
1.11376 0.5 0.207935 0.00238042
1.0271 0.5 -0.478694 0.00316325
1.0271 0.5 0.478694 0.00304278
0.151149 0.5 -1.125 0.018056
0.151149 0.5 1.125 0.014405
1.08112 0.5 -0.354722 0.00265438
1.08112 0.5 0.354722 0.00259263
1.13882 0.5 -0.0340295 0.00224429
1.13882 0.5 0.0340295 0.00224135
0.350249 0.5 -1.0875 0.0141991
0.350249 0.5 1.0875 0.0116643
1.13882 0.5 -0.102088 0.0022689
1.13882 0.5 0.102088 0.00224811
1.10076 0.5 -0.314829 0.00252952
1.10076 0.5 0.314829 0.00249171
0.756813 0.5 -0.8625 0.00628054
0.756814 0.5 0.8625 0.00574661
0.797732 0.5 -0.825 0.00574656
0.797732 0.5 0.825 0.00527246
1.11376 0.5 -0.277247 0.00245033
1.11376 0.5 0.277247 0.00242212
0.835106 0.5 0.7875 0.00482004
0.835106 0.5 -0.7875 0.0052365
0.715434 0.5 -0.9 0.00694602
0.715434 0.5 0.9 0.00632163
0.872064 0.5 -0.75 0.00481093
0.872064 0.5 0.75 0.00444496
1.13882 0.5 0.170147 0.00227515
1.13882 0.5 -0.170147 0.00229628
0.67013 0.5 -0.9375 0.00764261
0.67013 0.5 0.9375 0.00692467
0.905821 0.5 -0.7125 0.00440604
0.905821 0.5 0.7125 0.00407909
1.05695 0.5 0.468994 0.00281295
1.05695 0.5 -0.468994 0.00293297
0.939201 0.5 -0.675 0.00415376
0.939201 0.5 0.675 0.00389546
0.624316 0.5 0.975 0.00765624
0.624316 0.5 -0.975 0.00852034
1.04168 0.5 -0.510414 0.00311097
1.04168 0.5 0.510414 0.00298318
0.969689 0.5 -0.6375 0.00394751
0.96969 0.5 0.6375 0.00373419
0.288069 0.5 -1.125 0.0156213
0.288069 0.5 1.125 0.0125373
1.16179 0.5 5.78241e-19 0.00215748
1.08112 0.5 0.425666 0.00266415
1.08112 0.5 -0.425666 0.00275484
1.13882 0.5 -0.238206 0.00232631
1.13882 0.5 0.238206 0.00230929
1.16179 0.5 0.0669104 0.00214973
1.16179 0.5 -0.0669104 0.0021704
0.574156 0.5 -1.0125 0.00943929
0.574156 0.5 1.0125 0.00841637
0.075776 0.5 -1.1625 0.0192416
0.075776 0.5 1.1625 0.0156454
1.00005 0.5 -0.599447 0.00363465
1.00005 0.5 0.599447 0.00345097
1.10076 0.5 0.384791 0.00255554
1.10076 0.5 -0.384791 0.00262053
1.0271 0.5 -0.55234 0.00329855
1.0271 0.5 0.55234 0.0031618
1.11376 0.5 -0.346559 0.00252409
1.11376 0.5 0.346559 0.00247773
1.16179 0.5 -0.133821 0.00219537
1.16179 0.5 0.133821 0.00217623
0.523432 0.5 -1.05 0.0105927
0.523432 0.5 1.05 0.00926787
1.17463 0.5 -0.0331343 0.00211283
1.17463 0.5 0.0331343 0.0021115
1.17463 0.5 -0.0994029 0.00213592
1.17463 0.5 0.0994029 0.00212176
1.16179 0.5 -0.200731 0.00222104
1.16179 0.5 0.200731 0.00220439
1.13882 0.5 -0.306265 0.00238292
1.13882 0.5 0.306265 0.00235591
0.219992 0.5 -1.1625 0.0169608
0.219992 0.5 1.1625 0.0134763
0.467897 0.5 -1.0875 0.0117853
0.467897 0.5 1.0875 0.0101266
1.17463 0.5 0.165672 0.00214226
1.17463 0.5 -0.165672 0.00216115
1.05695 0.5 -0.541147 0.00304983
1.05695 0.5 0.541147 0.0029154
1.18772 0.5 -5.78241e-19 0.00206755
1.11376 0.5 -0.41587 0.00261754
1.11376 0.5 0.41587 0.00254726
1.18772 0.5 -0.065614 0.00207897
1.18772 0.5 0.065614 0.00207276
1.08112 0.5 -0.49661 0.00286574
1.08112 0.5 0.49661 0.00275238
1.10076 0.5 -0.454752 0.002722
1.10076 0.5 0.454752 0.00263332
1.18534 0.5 0.118202 0.00208691
1.16179 0.5 -0.267642 0.00225964
1.16179 0.5 0.267642 0.00224208
0 0.5 -1.19382 0.013524
0 0.5 1.19382 0.0112444
0.0124865 0.5 1.19382 0.0119869
0.0124865 0.5 -1.19382 0.0144707
1.04168 0.5 -0.58333 0.00325539
1.04168 0.5 0.58333 0.00310658
1.18772 0.5 -0.131228 0.00210215
1.17463 0.5 -0.23194 0.00218481
1.17463 0.5 0.23194 0.00217317
0.411736 0.5 -1.125 0.0131797
0.411736 0.5 1.125 0.0109697
1.13882 0.5 -0.374324 0.00246416
1.13882 0.5 0.374324 0.00241617
0 0.5 -1.2 0.0135146
0 0.5 1.2 0.0112655
0.905821 0.5 0.7875 0.00428039
0.905821 0.5 -0.7875 0.00468342
0.872064 0.5 -0.825 0.0051152
0.872064 0.5 0.825 0.00465603
0.835106 0.5 0.8625 0.00504167
0.835106 0.5 -0.8625 0.00557241
0.939201 0.5 -0.75 0.00439187
0.939201 0.5 0.75 0.00404821
0.797732 0.5 -0.9 0.00611111
0.797732 0.5 0.9 0.00550728
1.0271 0.5 0.625985 0.00331217
1.0271 0.5 -0.625985 0.00348124
0.969689 0.5 0.7125 0.00386309
0.96969 0.5 -0.7125 0.00411645
1.18772 0.5 -0.196842 0.00212541
1.18772 0.5 0.196842 0.00211167
0.756814 0.5 -0.9375 0.00667213
0.756814 0.5 0.9375 0.0059922
0 0.5 1.20618 0.011287
0 0.5 -1.20618 0.0135126
1.00005 0.5 -0.674378 0.00383152
1.00005 0.5 0.674378 0.00360186
0.0124865 0.5 1.20618 0.0120441
0.0124865 0.5 -1.20618 0.0144509
1.16179 0.5 -0.334552 0.00232295
1.16179 0.5 0.334552 0.00229191
0.715434 0.5 0.975 0.00658366
0.715434 0.5 -0.975 0.00736628
0.151149 0.5 -1.2 0.0180713
0.151149 0.5 1.2 0.0146753
1.20942 0.5 0.0322645 0.00199012
1.20942 0.5 -0.0322645 0.0019915
1.17463 0.5 -0.298209 0.00223374
1.17463 0.5 0.298209 0.0022149
1.20942 0.5 -0.0967935 0.00201153
1.20942 0.5 0.0967935 0.00200073
0.350249 0.5 -1.1625 0.0145737
0.350249 0.5 1.1625 0.0118599
0.67013 0.5 1.0125 0.00720159
0.67013 0.5 -1.0125 0.00808869
1.11376 0.5 0.485183 0.0026323
1.11376 0.5 -0.485183 0.00272514
1.18772 0.5 0.262456 0.00214662
1.18772 0.5 -0.262456 0.00215938
1.10076 0.5 -0.524714 0.00283793
1.10076 0.5 0.524714 0.00272901
1.20942 0.5 -0.161322 0.00203438
1.20942 0.5 0.161322 0.00201918
1.08112 0.5 -0.567554 0.0029896
1.08112 0.5 0.567554 0.00285728
0.624316 0.5 -1.05 0.00899559
0.624316 0.5 1.05 0.00792362
1.13882 0.5 -0.442383 0.00255835
1.13882 0.5 0.442383 0.00248956
1.05695 0.5 0.6133 0.00303724
1.05695 0.5 -0.6133 0.00320065
1.16179 0.5 -0.401463 0.00240472
1.16179 0.5 0.401463 0.00235437
0.574156 0.5 -1.0875 0.0099358
0.574156 0.5 1.0875 0.00866431
1.17463 0.5 0.364477 0.00226909
1.17463 0.5 -0.364477 0.00230489
1.20942 0.5 -0.225851 0.0020543
1.20942 0.5 0.225851 0.00204708
1.23036 0.5 -1.32995e-17 0.00192156
1.2294 0.5 0.0634819 0.00192957
1.04168 0.5 -0.656246 0.00344149
1.04168 0.5 0.656246 0.00324261
1.23036 0.5 -0.0634819 0.0019307
1.18772 0.5 0.32807 0.00219275
1.18772 0.5 -0.32807 0.00221622
0.288069 0.5 -1.2 0.0158553
0.288069 0.5 1.2 0.0127673
1.23036 0.5 -0.126964 0.00195093
1.23036 0.5 0.126964 0.00193999
0.075776 0.5 -1.2375 0.019194
0.075776 0.5 1.2375 0.015996
0.523432 0.5 -1.125 0.0111001
0.523432 0.5 1.125 0.00948869
1.0271 0.5 -0.69963 0.00370038
1.0271 0.5 0.69963 0.00343615
1.24274 0.5 0.0314313 0.00188269
1.24274 0.5 -0.0314313 0.00188145
1.20942 0.5 0.29038 0.0020846
1.20942 0.5 -0.29038 0.00209503
1.11376 0.5 -0.554494 0.00284177
1.11376 0.5 0.554494 0.00273118
1.23036 0.5 -0.190445 0.00197072
1.23036 0.5 0.190445 0.00196211
1.24274 0.5 -0.0942942 0.00189927
1.24274 0.5 0.0942942 0.00189194
1.13882 0.5 0.510442 0.00257903
1.13882 0.5 -0.510442 0.00267215
0.969689 0.5 -0.7875 0.00437151
0.969689 0.5 0.7875 0.00397885
1.00005 0.5 -0.749309 0.00406312
1.00005 0.5 0.749309 0.00373515
0.939201 0.5 -0.825 0.00467201
0.939201 0.5 0.825 0.00423785
0.90582 0.5 0.8625 0.00450254
0.90582 0.5 -0.8625 0.00499004
1.17463 0.5 -0.430746 0.00239044
1.17463 0.5 0.430746 0.00233531
1.10076 0.5 -0.594676 0.0029624
1.10076 0.5 0.594676 0.0028366
1.18772 0.5 -0.393684 0.00229146
1.18772 0.5 0.393684 0.00225071
1.24274 0.5 -0.157157 0.00192036
1.24274 0.5 0.157157 0.00190947
1.16179 0.5 -0.468373 0.00250376
1.16179 0.5 0.468373 0.00243093
0.467897 0.5 -1.1625 0.0123042
0.467897 0.5 1.1625 0.0103211
0.872064 0.5 -0.9 0.00546006
0.872064 0.5 0.9 0.00487942
1.25401 0.5 2.08167e-17 0.00184978
0.835106 0.5 0.9375 0.00527893
0.835106 0.5 -0.9375 0.00594984
1.25401 0.5 -0.0622994 0.00185771
1.25401 0.5 0.0622994 0.00185471
1.08112 0.5 -0.638498 0.00314485
1.08112 0.5 0.638498 0.00298269
1.23036 0.5 -0.253927 0.00199799
1.23036 0.5 0.253927 0.00199299
0.219992 0.5 1.2375 0.0137322
0.219992 0.5 -1.2375 0.0170414
1.25309 0.5 0.121964 0.00186789
1.05695 0.5 0.685452 0.00317338
1.05695 0.5 -0.685452 0.0033912
0.797732 0.5 0.975 0.00576093
0.797732 0.5 -0.975 0.00651503
1.25401 0.5 -0.124599 0.00187654
1.20942 0.5 -0.354909 0.00215733
1.20942 0.5 0.354909 0.00213329
1.24274 0.5 -0.220019 0.00193733
1.24274 0.5 0.220019 0.00193534
0.756814 0.5 -1.0125 0.00710789
0.756813 0.5 1.0125 0.0062606
1.25401 0.5 -0.186898 0.00189477
1.25401 0.5 0.186898 0.00188892
0.411736 0.5 -1.2 0.0136472
0.411736 0.5 1.2 0.0111994
0 0.5 -1.26882 0.013488
0 0.5 1.26882 0.0115322
0.0124865 0.5 1.26882 0.0122893
0.0124865 0.5 -1.26882 0.0144263
0.715434 0.5 -1.05 0.00783063
0.715434 0.5 1.05 0.00685787
1.23036 0.5 -0.31741 0.00204529
1.23036 0.5 0.31741 0.00203345
1.04168 0.5 -0.729162 0.00366613
1.04168 0.5 0.729162 0.00337273
1.18772 0.5 -0.459298 0.00238493
1.18772 0.5 0.459298 0.00232204
1.24274 0.5 -0.282882 0.00197127
1.24274 0.5 0.282882 0.00196951
0 0.5 -1.275 0.0134829
0 0.5 1.275 0.0115585
1.27472 0.5 -0.0306319 0.00177993
1.27472 0.5 0.0306319 0.00178152
1.17463 0.5 0.497015 0.00241709
1.17463 0.5 -0.497015 0.00249679
1.11376 0.5 -0.623806 0.002981
1.11376 0.5 0.623806 0.00285019
1.13882 0.5 -0.578501 0.00278101
1.13882 0.5 0.578501 0.00267756
0.67013 0.5 -1.0875 0.00858883
0.67013 0.5 1.0875 0.00747474
1.27472 0.5 -0.0918959 0.00179501
1.27472 0.5 0.0918959 0.00180272
1.25401 0.5 -0.249197 0.00191872
1.25401 0.5 0.249197 0.00191828
1.16179 0.5 -0.535284 0.00260707
1.16179 0.5 0.535284 0.00251963
1.20942 0.5 -0.419438 0.00223501
1.20942 0.5 0.419438 0.00219313
0 0.5 -1.28118 0.013478
0 0.5 1.28118 0.0115853
0.0124865 0.5 1.28118 0.0123619
0.0124865 0.5 -1.28118 0.0144053
1.27472 0.5 0.15316 0.00180586
1.27472 0.5 -0.15316 0.00181386
0.151149 0.5 -1.275 0.0181116
0.151149 0.5 1.275 0.0150111