# nutMean  POINT_DATA 91129
# x  y  z  nutMean
0 0 0 4.95869e-06
0 0.00368111 0 1.73339e-05
0 0.00749587 0 6.40679e-05
0 0.0114491 0 0.000238344
0 0.0155459 0 0.00062659
0 0.0197915 0 0.00150563
0 0.0241911 0 0.00241667
0 0.0287506 0 0.00298071
0 0.0334755 0 0.00346544
0 0.038372 0 0.00380396
0 0.0434463 0 0.00403753
0 0.0487048 0 0.00421411
0 0.0541543 0 0.00436069
0 0.0598016 0 0.00449234
0 0.0656539 0 0.00461816
0 0.0717187 0 0.00474523
0.075776 0.00184055 0 8.24755e-06
0.075776 0.00558849 0 1.24483e-05
0.075776 0.00947248 -3.46945e-18 5.84197e-05
0.075776 0.0134975 -3.46945e-18 0.000268081
0.075776 0.0176687 3.46945e-18 0.000752548
0 0.0780037 0 0.00487795
0.075776 0.0219913 3.46945e-18 0.00151572
0.075776 0.0264709 3.46945e-18 0.00257392
0.075776 0.031113 -3.46945e-18 0.00391222
0.075776 0.0359237 -3.46945e-18 0.00549127
0 0.0845169 0 0.00501596
0.075776 0.0409092 0 0.00726105
0.075776 0.0460755 -3.46945e-18 0.00916573
0 0.0912666 0 0.00515744
0.075776 0.0514296 -3.46945e-18 0.0111486
0.075776 0.0569779 0 0.0131542
0 0.0982613 0 0.00530195
0.075776 0.0627278 0 0.0151284
0.075776 0.0686863 0 0.0169064
0 0.10551 0 0.00544926
0.075776 0.0748612 3.46945e-18 0.0179
0.075776 0.0812603 -3.46945e-18 0.0186273
0 0.113022 0 0.00559857
0.075776 0.0878918 3.46945e-18 0.0194261
0 0.120806 0 0.00574903
0.075776 0.0947639 3.46945e-18 0.020308
0.075776 0.101886 -3.46945e-18 0.0212866
0 0.128874 0 0.00590037
0.075776 0.109266 3.46945e-18 0.0223888
0 0.137234 0 0.0060609
0.075776 0.116914 3.46945e-18 0.0236537
0 0.145897 0 0.0062482
0.075776 0.12484 0 0.0251256
0.151552 0 0 0
0.151552 0.00368111 0 6.85003e-06
0.151552 0.00749587 0 2.37593e-05
0.151552 0.0114491 0 0.000102096
0.151552 0.0155459 0 0.000313497
0.151552 0.0197915 0 0.000706463
0.075776 0.133054 0 0.0268487
0.151552 0.0241911 0 0.00130102
0.151552 0.0287506 0 0.00210374
0 0.154876 0 0.0064688
0.151552 0.0334755 0 0.00310418
0.151552 0.038372 0 0.0042819
0.151552 0.0434463 0 0.0056108
0.151552 0.0487048 0 0.00706169
0.075776 0.141566 0 0.0284014
0.151552 0.0541543 0 0.00860384
0.151552 0.0598016 0 0.0102059
0 0.16418 0 0.0067124
0.151552 0.0656539 0 0.0118097
0.151552 0.0717187 0 0.0132278
0.075776 0.150387 0 0.0293639
0.151552 0.0780037 0 0.0144358
0.151552 0.0845169 0 0.0156303
0 0.173822 0 0.00697067
0.075776 0.159528 0 0.0299452
0.151552 0.0912666 0 0.0168848
0.151552 0.0982613 0 0.0181927
0 0.183814 0 0.0072425
0.151552 0.10551 0 0.01955
0.075776 0.169001 3.46945e-18 0.0301039
0.151552 0.113022 0 0.0209608
0.151552 0.120806 0 0.0224332
0 0.194169 0 0.00752715
0.075776 0.178818 3.46945e-18 0.0298852
0.151552 0.128874 0 0.0239779
0.075776 0.188992 3.46945e-18 0.0283501
0.151552 0.137234 0 0.025496
0 0.2049 0 0.00782323
0.151552 0.145897 0 0.0267795
0.075776 0.199535 0 0.0264657
0 0.21602 0 0.00815554
0.151552 0.154876 0 0.0277739
0.219992 0.00184055 0 2.17836e-06
0.219992 0.00558849 0 5.06408e-06
0.219992 0.00947248 -3.46945e-18 2.09018e-05
0.219992 0.0134975 3.46945e-18 7.03925e-05
0.219992 0.0176687 0 0.000193246
0.219992 0.0219913 0 0.000430136
0.219993 0.0264709 -3.46945e-18 0.00079872
0.219992 0.031113 -3.46945e-18 0.00130535
0.219992 0.0359238 3.46945e-18 0.00195361
0.151552 0.16418 0 0.0285027
0.075776 0.21046 0 0.024666
0.219992 0.0409092 3.46945e-18 0.00274375
0.219992 0.0460755 0 0.00367292
0.219993 0.0514296 -3.46945e-18 0.00473553
0.219992 0.0569779 0 0.00592255
0 0.227544 0 0.00856359
0.219992 0.0627277 3.46945e-18 0.00722366
0.219992 0.0686863 0 0.00862725
0.151552 0.173822 0 0.0289271
0.219992 0.0748612 3.46945e-18 0.0101195
0.075776 0.221782 0 0.0233609
0.219992 0.0812603 3.46945e-18 0.0116847
0.219992 0.0878917 -3.46945e-18 0.013305
0.151552 0.183814 0 0.0288119
7.47806e-17 0.239487 0 0.00903545
0.219992 0.0947639 3.46945e-18 0.0149583
0.219993 0.101886 3.46945e-18 0.016618
0.075776 0.233516 0 0.0226255
0.219993 0.109266 0 0.0182582
0.151552 0.194169 0 0.0281562
0.219993 0.116914 0 0.019859
0 0.251863 0 0.00954455
0.219993 0.12484 0 0.021395
0.151552 0.2049 0 0.027326
0.075776 0.245675 0 0.0221227
0.219992 0.133054 3.46945e-18 0.0228507
0.219992 0.141565 0 0.0242103
0.151552 0.21602 0 0.0265666
0 0.264688 0 0.0100902
0.219992 0.150387 3.46945e-18 0.0254653
0.075776 0.258275 3.46945e-18 0.021801
0.219992 0.159528 -3.46945e-18 0.0266098
0.151552 0.227544 0 0.0259947
0.219992 0.169001 3.46945e-18 0.0275856
0 0.27798 0 0.0106727
0.075776 0.271334 3.46945e-18 0.0216406
0.151552 0.239487 3.70071e-18 0.0255475
0.219992 0.178818 3.46945e-18 0.0282973
0.288433 0 0 0
0.288433 0.00368111 0 2.87302e-06
0.288433 0.00749587 0 1.12363e-05
0.288433 0.0114491 0 3.70611e-05
0.288433 0.0155459 3.70071e-18 0.000100808
0.288433 0.0197915 0 0.000236226
0.288433 0.0241911 3.70071e-18 0.000469037
0.288433 0.0287506 0 0.000811738
0.219992 0.188991 0 0.0287619
0.288433 0.0334755 0 0.00127283
0.288433 0.038372 0 0.00185535
0.288433 0.0434463 0 0.00255984
7.47806e-17 0.291753 0 0.0112932
0.288433 0.0487048 0 0.00338457
0.288433 0.0541543 0 0.0043255
0.151552 0.251863 0 0.0251351
0.288433 0.0598016 3.70071e-18 0.00537651
0.075776 0.284866 0 0.02162
0.288433 0.0656539 3.70071e-18 0.00652946
0.219992 0.199534 0 0.0289323
0.288433 0.0717187 0 0.00777387
0.288433 0.0780037 0 0.00909651
0.288433 0.0845169 0 0.0104807
0.288433 0.0912666 0 0.0118879
0.219992 0.21046 -3.46945e-18 0.0289701
0.288433 0.0982613 0 0.0130163
0.151552 0.264688 3.70071e-18 0.0247535
0 0.306027 0 0.0119678
0.288433 0.10551 0 0.0138859
0.075776 0.29889 3.46945e-18 0.0217324
0.288433 0.113022 0 0.0148109
0.219993 0.221782 0 0.0288782
0.288433 0.120806 0 0.0157344
0.288433 0.128874 0 0.0165596
0.151552 0.27798 0 0.0244803
0.288433 0.137234 0 0.0172861
0 0.320819 0 0.0127977
0.219992 0.233515 -3.46945e-18 0.0286543
0.075776 0.313423 -3.46945e-18 0.0220483
0.288433 0.145897 0 0.0179581
0.288433 0.154876 0 0.0185957
0.151552 0.291753 0 0.0242862
0.219993 0.245675 0 0.0283016
0.288433 0.16418 0 0.0191747
0 0.336148 0 0.0140163
0.288433 0.173822 0 0.0196517
0.075776 0.328484 -3.46945e-18 0.0230181
0.219993 0.258275 -3.46945e-18 0.0278295
0.151552 0.306027 0 0.024088
0.288433 0.183814 0 0.0200046
0.288433 0.194169 0 0.020225
0.219992 0.271334 3.46945e-18 0.0272787
0.350249 0.00184056 -3.46945e-18 8.60749e-07
0.350249 0.00558849 0 3.49893e-06
0.350249 0.00947248 3.46945e-18 1.57374e-05
0.350249 0.0134975 0 4.24755e-05
0.350249 0.0176687 0 0.00010168
0.350249 0.0219913 0 0.000230938
0.350249 0.0264708 3.46945e-18 0.000437729
0.350249 0.031113 0 0.000740476
0 0.352034 0 0.0150716
0.350249 0.0359238 0 0.00114431
0.075776 0.344091 0 0.0253914
0.350249 0.0409091 0 0.00165225
0.350249 0.0460756 3.46945e-18 0.00226575
0.288433 0.2049 0 0.0203399
0.350249 0.0514296 0 0.00298454
0.151552 0.320819 0 0.0240269
0.350249 0.0569779 0 0.00380685
0.350249 0.0627277 3.46945e-18 0.00472878
0.350249 0.0686863 3.46945e-18 0.00574323
0.350249 0.0748612 3.46945e-18 0.00684048
0.350249 0.0812603 0 0.00800654
0.219992 0.284867 0 0.0269461
0.288433 0.21602 0 0.0203879
0.350249 0.0878917 0 0.0092223
0.350249 0.094764 0 0.0103955
0.350249 0.101886 0 0.0105003
0.350249 0.109266 0 0.0106885
0.288433 0.227544 0 0.0203673
0.075776 0.360265 3.46945e-18 0.0253641
0 0.368496 0 0.015309
0.151552 0.336148 0 0.0244256
0.350249 0.116914 3.46945e-18 0.0110611
0.219992 0.29889 0 0.0264475
0.370854 0.0241911 1.54074e-33 0.000341577
0.350249 0.12484 0 0.0113402
0.350249 0.133054 0 0.0114686
0.288433 0.239487 -9.25154e-19 0.0202767
0.350249 0.141566 3.46945e-18 0.0115307
0.350249 0.150387 3.46945e-18 0.0116349
0.288433 0.251863 0 0.0201169
0.219992 0.313423 0 0.0257881
0.151552 0.352034 0 0.0245671
0.075776 0.377027 0 0.0239162
0.350249 0.159528 0 0.0117636
0 0.385557 0 0.0149238
0.350249 0.169001 0 0.0119008
0.288433 0.264688 0 0.0198971
0.350249 0.178818 0 0.0120375
0.219992 0.328484 0 0.0250252
0.350249 0.188992 0 0.0121702
0.151552 0.368496 0 0.0237524
0.288433 0.27798 3.70071e-18 0.0196959
0.075776 0.394397 0 0.0219862
0.350249 0.199535 0 0.012298
7.47806e-17 0.403236 0 0.0145476
0.219992 0.344091 0 0.0242344
0.350249 0.21046 -3.46945e-18 0.0124196
0.288433 0.291753 0 0.0194926
0.412065 9.08189e-19 3.08149e-33 2.37124e-22
0.412065 0.00368111 -2.31298e-18 2.11201e-06
0.412065 0.00749587 -2.31298e-18 9.761e-06
0.412065 0.0114491 -2.31298e-18 2.78309e-05
0.412065 0.0155459 -2.31298e-18 6.40407e-05
0.412065 0.0197915 0 0.000139929
0.412065 0.0241911 -3.08149e-33 0.000277847
0.412065 0.0264709 0 0.000384438
0.412065 0.0287506 -2.31298e-18 0.000491028
0.412065 0.0334755 -2.31298e-18 0.000789592
0.412065 0.038372 -2.31298e-18 0.00117997
0.151552 0.385557 0 0.0224323
0.412065 0.0434463 0 0.00166464
0.350249 0.221782 0 0.0125323
0.412065 0.0487048 0 0.00224447
0.412065 0.0541543 -3.08149e-33 0.00291869
0.412065 0.0569779 0 0.00330167
0.412065 0.0598016 -2.31298e-18 0.00368465
0.412065 0.0656539 -2.31298e-18 0.00453717
0.412065 0.0717187 -2.31298e-18 0.00546788
0.075776 0.412396 -3.46945e-18 0.0213642
0.412065 0.0780037 -2.31298e-18 0.00646447
0.288433 0.306027 0 0.0191978
0.412065 0.0845169 -2.31298e-18 0.0074929
0.350249 0.233516 3.46945e-18 0.0126325
0 0.421557 0 0.0145333
0.412065 0.0912666 -2.31298e-18 0.00830771
0.219992 0.360265 3.46945e-18 0.0234019
0.412065 0.0982613 0 0.00864806
0.412065 0.10551 0 0.00875427
0.412065 0.113022 -2.31298e-18 0.00892918
0.350249 0.245675 0 0.012717
0.412065 0.120806 0 0.00912495
0.151552 0.403236 0 0.021298
0.288433 0.320819 0 0.0188274
0.412065 0.128874 -2.31298e-18 0.00925935
0.412065 0.137234 0 0.00934023
0.350249 0.258275 -3.46945e-18 0.0127809
0.219992 0.377026 0 0.0224622
0.412065 0.145897 -2.31298e-18 0.00941603
0.075776 0.431051 0 0.0213008
0.412065 0.154876 -2.31298e-18 0.00950811
0 0.440544 0 0.0146461
0.288433 0.336148 0 0.0184152
0.350249 0.271334 0 0.0128174
0.412065 0.16418 -2.31298e-18 0.00960751
0.412065 0.173822 -2.31298e-18 0.00970819
0.151552 0.421557 0 0.0206529
0.412065 0.183814 -2.31298e-18 0.00980711
0.350249 0.284867 3.46945e-18 0.0128236
0.219992 0.394397 0 0.0214431
0.288433 0.352034 3.70071e-18 0.017977
0.412065 0.194169 0 0.00990317
0.075776 0.450382 0 0.0213325
0.412065 0.2049 -2.31298e-18 0.00999574
0 0.46022 0 0.0147677
0.350249 0.29889 3.46945e-18 0.0128041
0.412065 0.21602 0 0.0100837
0.151552 0.440544 0 0.020234
0.219993 0.412396 3.46945e-18 0.0204556
0.467897 0.00184056 -3.46945e-18 6.09764e-07
0.467897 0.00558849 0 3.48811e-06
0.288433 0.368496 0 0.0174917
0.467897 0.00947248 0 1.63e-05
0.467897 0.0134975 0 3.69892e-05
0.467897 0.0176687 3.46945e-18 7.61403e-05
0.467897 0.0219913 -3.46945e-18 0.000154639
0.467897 0.0264709 3.46945e-18 0.000295963
0.467897 0.0311131 3.46945e-18 0.000503626
0.467897 0.0359238 -3.46945e-18 0.000791263
0.467897 0.038372 0 0.00101743
0.467897 0.0409092 3.46945e-18 0.00116249
0.350249 0.313423 0 0.0127599
0.467897 0.0460755 0 0.00161911
0.467897 0.0514296 3.46945e-18 0.00216153
0.412065 0.227544 -2.31298e-18 0.0101652
0.467897 0.0569779 0 0.00278834
0.467897 0.0627277 -3.46945e-18 0.00349594
0.467897 0.0686863 3.46945e-18 0.00427815
0.467897 0.0748612 0 0.00512448
0.467897 0.0812603 0 0.00602002
0.467897 0.0878918 3.46945e-18 0.00687896
0.075776 0.470415 3.46945e-18 0.02139
0.412065 0.239487 -2.31298e-18 0.0102385
0.467897 0.0947639 -3.46945e-18 0.00694307
0.467897 0.101886 3.46945e-18 0.00700383
0.350249 0.328483 0 0.0126945
0.467897 0.109266 0 0.00708049
0 0.48061 0 0.0148872
0.288433 0.385557 0 0.0169468
0.467897 0.116914 0 0.00715737
0.412065 0.251863 -2.31298e-18 0.0103015
0.219992 0.431051 0 0.019594
0.467897 0.12484 0 0.00722992
0.151552 0.46022 0 0.0199122
0.467897 0.133054 3.46945e-18 0.007297
0.467897 0.141566 3.46945e-18 0.00736492
0.412065 0.264688 -2.31298e-18 0.0103514
0.350249 0.344091 -3.46945e-18 0.0126111
0.467897 0.150387 3.46945e-18 0.00743486
0.467897 0.154876 0 0.00798486
0.467897 0.159528 3.46945e-18 0.00750358
0.288433 0.403236 0 0.016375
0.075776 0.491175 0 0.0214718
0.412065 0.27798 -2.31298e-18 0.0103863
0.467897 0.169001 0 0.00757109
0.467897 0.178818 3.46945e-18 0.00763734
0.219992 0.450382 0 0.018873
6.73026e-17 0.501741 3.70071e-18 0.0149771
0.350249 0.360265 0 0.0125099
0.151552 0.48061 0 0.0196541
0.467897 0.188991 0 0.00770225
0.412065 0.291753 0 0.0104061
0.467897 0.199535 0 0.00776574
0.288433 0.421557 0 0.015831
0.467897 0.21046 0 0.00782746
0.412065 0.306027 0 0.0104114
0.350249 0.377027 0 0.0123835
0.467897 0.221782 3.46945e-18 0.00788703
0.075776 0.51269 0 0.0214604
0.219993 0.470415 3.46945e-18 0.018273
0.467897 0.227544 0 0.00850063
0.412065 0.320819 -2.31298e-18 0.0104023
0.467897 0.233515 0 0.00794403
6.73026e-17 0.523639 3.70071e-18 0.0150071
0.523729 0 0 0
0.523729 0.00368111 0 2.01754e-06
0.523729 0.00749587 -2.31298e-18 1.04443e-05
0.523729 0.0114491 0 2.75788e-05
0.523729 0.0155459 0 5.4866e-05
0.523729 0.0197915 -2.31298e-18 0.000104059
0.151552 0.501741 0 0.019413
0.523729 0.0241911 0 0.000197955
0.523729 0.0287506 0 0.000349307
0.523729 0.0334755 0 0.000564709
0.523729 0.038372 -3.08149e-33 0.000854887
0.523729 0.0434463 0 0.00122291
0.523729 0.0487048 0 0.00166983
0.523729 0.0541543 0 0.00219505
0.288433 0.440544 0 0.0153499
0.523729 0.0598016 0 0.00279587
0.350249 0.394397 -3.46945e-18 0.0122251
0.523729 0.0656539 0 0.00346702
0.467897 0.245675 0 0.00799807
0.523729 0.0717187 0 0.00419991
0.523729 0.0780037 0 0.00498146
0.523729 0.0845169 0 0.00564408
0.523729 0.0912666 0 0.00594084
0.412065 0.336148 0 0.0103796
0.523729 0.0982613 0 0.00601045
0.523729 0.10551 -2.31298e-18 0.00608166
0.467897 0.258275 -3.46945e-18 0.008049
0.523729 0.113022 0 0.00615339
0.523729 0.120806 -3.08149e-33 0.00622099
0.219993 0.491176 0 0.0177505
0.523729 0.12484 0 0.00625243
0.523729 0.128874 -2.31298e-18 0.00628387
0.075776 0.534986 0 0.0213715
0.467897 0.271334 3.46945e-18 0.00809717
0.350249 0.412396 -3.46945e-18 0.0120395
0.523729 0.137234 0 0.00634381
0.412065 0.352034 -2.31298e-18 0.0103438
0.288433 0.46022 0 0.0149381
0.523729 0.145897 0 0.00640311
0.151552 0.523639 0 0.019156
0.523729 0.154876 -3.08149e-33 0.0064616
0 0.546332 0 0.014987
0.523729 0.159528 0 0.00649016
0.467897 0.284867 -3.46945e-18 0.00814347
0.523729 0.16418 -2.31298e-18 0.00651872
0.523729 0.173822 0 0.00657458
0.412065 0.368496 0 0.0102927
0.523729 0.183814 0 0.00662928
0.467897 0.29889 0 0.00818606
0.350249 0.431051 -3.46945e-18 0.0118426
0.219992 0.51269 0 0.0172799
0.523729 0.194169 0 0.00668285
0.288433 0.48061 0 0.0145849
0.523729 0.2049 0 0.00673526
0.467897 0.313423 3.46945e-18 0.00822292
0.075776 0.558091 0 0.0212296
0.412065 0.385557 0 0.0102228
0.523729 0.21602 -3.08149e-33 0.00678638
0.151552 0.546332 0 0.01889
0 0.569849 0 0.0149295
0.350249 0.450382 3.46945e-18 0.0116519
0.523729 0.227544 -3.08149e-33 0.00683606
0.467897 0.328483 0 0.00825253
0.523729 0.231525 1.54074e-33 0.00685209
0.574156 0.00184056 0 4.77385e-07
0.574156 0.00558849 0 3.49909e-06
0.574157 0.00947248 0 1.84185e-05
0.574156 0.0134975 -3.46945e-18 3.84855e-05
0.574156 0.0176687 -3.46945e-18 6.80729e-05
0.574156 0.0219913 0 0.000118872
0.574156 0.0264708 -3.46945e-18 0.000225935
0.574156 0.031113 0 0.000378329
0.574156 0.0359238 -3.46945e-18 0.000596476
0.574157 0.0409092 0 0.000885324
0.523729 0.239487 3.70071e-18 0.00688415
0.574156 0.0460755 -3.46945e-18 0.00124673
0.574156 0.0514295 0 0.00168088
0.412065 0.403236 0 0.0101332
0.574157 0.0569779 0 0.00218617
0.574156 0.0627277 0 0.00275844
0.574156 0.0686863 0 0.00339063
0.219992 0.534986 0 0.0168535
0.288433 0.501741 0 0.0142743
0.574156 0.0748612 3.46945e-18 0.0040721
0.574156 0.0812603 0 0.00478667
0.467897 0.344091 0 0.00827368
0.574156 0.0878917 3.46945e-18 0.00499617
0.523729 0.251863 0 0.00693058
0.574157 0.0947639 0 0.00507219
0.574156 0.101886 0 0.00514876
0.574156 0.109266 0 0.00521924
0.574156 0.116914 0 0.00528278
0.412065 0.416977 -6.16298e-33 0.010055
0.350249 0.470415 0 0.0114798
0.523729 0.264688 0 0.00697546
0.075776 0.582034 0 0.0210522
0.574156 0.12484 0 0.00534113
0.574156 0.133054 3.46945e-18 0.00539552
0.412065 0.421557 -2.31298e-18 0.010029
0.151552 0.569849 0 0.0186247
0.467897 0.360265 -3.46945e-18 0.00828574
0.574157 0.141566 -3.46945e-18 0.00544686
0.523729 0.27798 0 0.0070191
0.574156 0.150386 3.46945e-18 0.00549606
0 0.594219 0 0.0148436
0.574156 0.159528 -3.46945e-18 0.00554355
0.574156 0.16418 0 0.00574837
0.288433 0.523639 1.2326e-32 0.0139964
0.574157 0.169001 0 0.00558967
0.523729 0.291753 0 0.00706111
0.219993 0.558091 3.46945e-18 0.016469
0.467897 0.377026 0 0.00828829
0.574156 0.178818 3.46945e-18 0.00563464
0.412065 0.440544 -2.31298e-18 0.0099195
0.350249 0.491175 0 0.0113311
0.574156 0.188992 3.46945e-18 0.00567866
0.523729 0.306027 -3.08149e-33 0.00710023
0.574157 0.199535 0 0.00572187
0.574157 0.21046 0 0.00576436
0.075776 0.606847 0 0.0208516
0.467897 0.394397 0 0.00828057
0.151552 0.594219 0 0.0183667
0.523729 0.320819 0 0.0071352
0.574157 0.221782 -3.46945e-18 0.00580622
0.412065 0.46022 3.08149e-33 0.00981422
0.288433 0.546332 0 0.0137472
0 0.619475 0 0.0147363
0.574156 0.233515 3.46945e-18 0.00584755
0.350249 0.51269 3.46945e-18 0.0112029
0.219992 0.582034 3.46945e-18 0.016127
0.523729 0.336148 0 0.00716495
0.467897 0.412396 0 0.00826209
0.574156 0.245675 0 0.00588843
0.624584 0 0 0
0.624584 0.00368111 0 1.9816e-06
0.624584 0.00749587 0 1.16438e-05
0.624584 0.0114491 0 3.01592e-05
0.624584 0.0155459 0 5.40777e-05
0.624584 0.0197915 0 8.95271e-05
0.624584 0.0241911 -2.31298e-18 0.000156152
0.624584 0.0287506 0 0.000270534
0.624584 0.0334755 0 0.00043726
0.624584 0.038372 0 0.000664181
0.624584 0.0434463 -2.31298e-18 0.000957971
0.624584 0.0487048 0 0.00131985
0.624584 0.0541543 0 0.00174899
0.624584 0.0598016 0 0.00224239
0.624584 0.0656539 0 0.00279418
0.624584 0.0717187 0 0.00339518
0.624584 0.0780037 0 0.00399631
0.574157 0.258276 3.46945e-18 0.005929
0.624584 0.0845169 0 0.00436006
0.523729 0.352034 0 0.00718872
0.624584 0.0912666 0 0.00447217
0.624584 0.0982613 0 0.00454743
0.412065 0.48061 3.08149e-33 0.00971974
0.624584 0.10551 0 0.00461817
0.624584 0.113022 -2.31298e-18 0.00468192
0.574156 0.271334 0 0.00596936
0.624584 0.120806 0 0.00473985
0.467897 0.431051 0 0.00823395
0.075776 0.632561 -3.46945e-18 0.0206362
0.624584 0.128874 0 0.00479326
0.151552 0.619475 0 0.0181194
0.288433 0.569849 0 0.0135253
0.350249 0.534985 0 0.0110913
0.624584 0.137234 -2.31298e-18 0.0048431
0.523729 0.368496 0 0.00720605
0.574156 0.284866 -3.46945e-18 0.00600945
0.624584 0.145897 0 0.00489015
0.467897 0.440544 0 0.00856263
0.624584 0.154876 0 0.00493498
0.219992 0.606847 -3.46945e-18 0.015825
0 0.645647 0 0.014613
0.624584 0.16418 -3.08149e-33 0.00497801
0.574156 0.29889 -3.46945e-18 0.00604873
0.624584 0.173822 0 0.00501959
0.412065 0.501741 1.54074e-33 0.00963835
0.467897 0.450382 -3.46945e-18 0.00819985
0.523729 0.385557 0 0.00721653
0.624584 0.183814 0 0.00505996
0.624584 0.194169 0 0.00509936
0.574156 0.313423 0 0.00608645
0.624584 0.2049 0 0.00513795
0.350249 0.558091 3.46945e-18 0.0109939
0.288433 0.594219 0 0.0133295
0.624584 0.21602 0 0.00517589
0.523729 0.403236 0 0.00721972
0.574156 0.328483 -3.46945e-18 0.00612179
0.151552 0.645647 0 0.0178839
0.467897 0.470415 3.46945e-18 0.00816484
0.075776 0.659208 0 0.0204116
0.624584 0.227544 0 0.00521329
0.412065 0.523639 0 0.00956938
0.523729 0.41545 3.08149e-33 0.00721703
0.624584 0.239487 3.70071e-18 0.00525031
0.574156 0.344091 0 0.00615399
0.219992 0.632561 0 0.0155589
0.67013 0.00184055 0 3.86041e-07
0.67013 0.00558849 0 3.56481e-06
0.67013 0.00947248 0 2.10096e-05
0.67013 0.0134975 0 4.25154e-05
0.67013 0.0176687 -3.46945e-18 6.71403e-05
0.67013 0.0219913 0 0.000104508
0.67013 0.0264708 3.46945e-18 0.000177284
0.67013 0.0311131 0 0.000304457
0.67013 0.0359237 0 0.000475915
0.67013 0.0409092 -3.46945e-18 0.000708399
0.67013 0.0460755 0 0.00100465
0.67013 0.0514296 3.46945e-18 0.00136475
0.523729 0.421557 -2.31298e-18 0.00721568
0.67013 0.056978 0 0.00178674
0 0.67277 0 0.0144778
0.67013 0.0627277 0 0.00226633
0.624584 0.251863 0 0.00528704
0.67013 0.0686863 0 0.0027956
0.67013 0.0748612 3.46945e-18 0.00336347
0.67013 0.0812603 0 0.00381591
0.67013 0.0878917 0 0.00390636
0.67013 0.0947639 3.46945e-18 0.00398253
0.574156 0.360265 0 0.00618256
0.67013 0.101886 0 0.00405494
0.523729 0.431051 0 0.00721072
0.624584 0.264688 0 0.00532359
0.467897 0.491175 0 0.00813341
0.67013 0.109266 3.46945e-18 0.00411876
0.350249 0.582034 0 0.010909
0.67013 0.116914 0 0.00417629
0.67013 0.12484 0 0.00422894
0.67013 0.133054 0 0.00427752
0.288433 0.619475 0 0.0131583
0.624584 0.27798 -3.08149e-33 0.00535998
0.412065 0.546332 1.54074e-33 0.00951154
0.523729 0.440544 -3.08149e-33 0.00720576
0.67013 0.141566 3.46945e-18 0.0043229
0.685312 0.0241911 -7.70372e-34 0.000139727
0.685312 0.0434463 -7.70372e-34 0.000840029
0.67013 0.150387 0 0.00436556
0.574156 0.377026 -3.46945e-18 0.00620725
0.67013 0.159528 0 0.00440595
0.624584 0.291753 0 0.00539602
0.151552 0.67277 0 0.0176606
0.075776 0.686823 0 0.0201819
0.67013 0.169001 0 0.00444451
0.67013 0.178818 0 0.00448159
0.467897 0.51269 0 0.00810813
0.685312 0.113022 -7.70372e-34 0.00407812
0.219992 0.659208 0 0.0153247
0.624584 0.306027 0 0.0054313
0.67013 0.188991 0 0.00451749
0.574156 0.394397 3.46945e-18 0.0062278
0.523729 0.46022 0 0.00719263
0.685312 0.137234 -7.70372e-34 0.00423061
0.67013 0.199535 -3.46945e-18 0.00455244
0.350249 0.606847 0 0.0108362
0 0.700877 0 0.0143344
0.624584 0.320819 0 0.00546528
0.67013 0.21046 0 0.00458664
0.412065 0.569849 -2.31298e-18 0.00946371
0.67013 0.221782 -3.46945e-18 0.00462029
0.574157 0.412396 0 0.00624393
0.288433 0.645647 0 0.0130097
0.624584 0.336148 -3.08149e-33 0.00549742
0.67013 0.233515 3.46945e-18 0.00465355
0.467897 0.534986 0 0.00809002
0.523729 0.48061 0 0.00717956
0.624584 0.344091 0 0.00551233
0.67013 0.245675 0 0.00468657
0.715676 4.54095e-19 0 5.81198e-23
0.715676 0.00368111 0 1.97817e-06
0.715676 0.00749587 0 1.2998e-05
0.715676 0.0114491 0 3.36832e-05
0.715676 0.0155459 0 5.67224e-05
0.715676 0.0197915 0 8.48886e-05
0.715676 0.0241911 0 0.000131514
0.715676 0.0287506 0 0.000219689
0.715676 0.0334755 0 0.000355943
0.715676 0.038372 0 0.000539794
0.624584 0.352034 -2.31298e-18 0.00552723
0.715676 0.0434463 0 0.000781057
0.151552 0.700877 0 0.0174495
0.715676 0.0487048 0 0.00108274
0.715676 0.0541543 0 0.001444
0.574156 0.43105 0 0.00625562
0.715676 0.0598016 0 0.00186164
0.67013 0.258275 0 0.00471946
0.715676 0.0656539 0 0.00232954
0.715676 0.0717187 0 0.00283805
0.075776 0.715441 0 0.0199505
0.715676 0.0780037 0 0.00327501
0.715676 0.0845169 0 0.00349381
0.219992 0.686824 0 0.0151187
0.715676 0.0912666 0 0.00357694
0.715676 0.0982613 0 0.00365059
0.67013 0.271334 -3.46945e-18 0.00475228
0.350249 0.632561 -3.46945e-18 0.0107755
0.412065 0.594219 3.08149e-33 0.00942518
0.715676 0.10551 0 0.00371705
0.715676 0.113022 0 0.00377622
0.624584 0.368496 0 0.00555442
0.523729 0.501741 0 0.00716932
0.715676 0.120806 0 0.00382985
0.715676 0.128874 0 0.00387895
0.67013 0.284867 0 0.00478498
0.467897 0.558091 3.46945e-18 0.00807903
0.715676 0.137234 0 0.00392436
0.574156 0.450382 0 0.00626355
0 0.730005 0 0.0141857
0.715676 0.145897 0 0.00396674
0.288433 0.67277 0 0.0128818
0.715676 0.154876 0 0.00400657
0.67013 0.29889 0 0.00481743
0.624584 0.385557 0 0.00557875
0.715676 0.16418 -9.25187e-19 0.00404428
0.715676 0.173822 0 0.00408024
0.715676 0.183814 0 0.00411477
0.67013 0.313423 0 0.0048494
0.523729 0.523639 0 0.00716371
0.715676 0.194169 0 0.00414815
0.574156 0.470415 3.46945e-18 0.00626927
0.624584 0.403236 0 0.00560001
0.743101 0.0241911 -7.70372e-34 0.000127232
0.412065 0.619475 3.08149e-33 0.00939579
0.715676 0.2049 0 0.00418059
0.151552 0.730005 0 0.0172503
0.67013 0.328484 3.46945e-18 0.00488054
0.350249 0.659208 0 0.0107269
0.467897 0.582034 0 0.00807468
0.715676 0.21602 0 0.0042123
0.219992 0.715441 0 0.0149376
0.075776 0.745097 -3.46945e-18 0.0197198
0.715676 0.227544 0 0.00424346
0.67013 0.344091 0 0.00491051
0.624584 0.421557 0 0.00561807
0.743101 0.128874 -7.70372e-34 0.00367426
0.715676 0.239487 3.70071e-18 0.00427422
0.574156 0.491175 0 0.0062749
0.756814 0.00184055 0 3.17175e-07
0.523729 0.546332 0 0.00716357
0.756813 0.00558849 0 3.64447e-06
0.756813 0.00947248 0 2.36935e-05
0.756814 0.0134975 -3.46945e-18 4.72986e-05
0.756814 0.0155459 0 5.87594e-05
0.756814 0.0176687 0 6.97224e-05
0.756814 0.0219913 0 9.82913e-05
0.756814 0.0264709 0 0.000147034
0.756814 0.031113 -3.46945e-18 0.000252374
0.756813 0.0359238 -3.46945e-18 0.000394898
0.288433 0.700877 0 0.0127727
0.756814 0.0409092 -3.46945e-18 0.000585882
0.756813 0.0460755 3.46945e-18 0.000833825
0.756813 0.0514296 0 0.00113925
0.715676 0.251863 0 0.00430471
0.756813 0.0569779 0 0.00150015
0.756814 0.0627277 -3.46945e-18 0.00191198
0.756814 0.0686863 -3.46945e-18 0.00236699
0 0.76019 0 0.0140343
0.756814 0.0748612 0 0.00285337
0.67013 0.360265 3.46945e-18 0.00493902
0.756814 0.0812603 -3.46945e-18 0.00310276
0.756814 0.0878917 -3.46945e-18 0.00319158
0.756814 0.0947639 -3.46945e-18 0.00326866
0.715676 0.264688 0 0.00433501
0.756813 0.101886 0 0.00333769
0.624584 0.440544 0 0.00563311
0.756813 0.109266 3.46945e-18 0.00339845
0.756813 0.116914 3.46945e-18 0.00345317
0.412065 0.645647 0 0.00937562
0.467897 0.606847 0 0.00807672
0.756814 0.120806 0 0.00352357
0.756813 0.12484 0 0.00350291
0.715676 0.27798 0 0.00436515
0.756814 0.133054 -3.46945e-18 0.00354851
0.67013 0.377026 -3.46945e-18 0.00496584
0.756814 0.137234 0 0.00361649
0.574156 0.51269 0 0.0062825
0.756813 0.141566 3.46945e-18 0.00359075
0.685312 0.352034 -7.70372e-34 0.00484888
0.743101 0.2049 -7.70372e-34 0.00396974
0.350249 0.686824 0 0.0106901
0.756814 0.150387 0 0.00363016
0.756814 0.154876 0 0.00369678
0.715676 0.291753 0 0.00439509
0.756814 0.159528 -3.46945e-18 0.00366719
0.523729 0.569849 0 0.00716907
0.72743 0.264688 0 0.00424199
0.756814 0.16418 0 0.00373341
0.151552 0.76019 0 0.0170632
0.756813 0.169001 3.46945e-18 0.00370222
0.624584 0.46022 0 0.00564584
0.219993 0.745097 0 0.0147786
0.67013 0.394396 0 0.00499079
0.756813 0.178818 -3.46945e-18 0.00373559
0.715676 0.306027 0 0.00442473
0.075776 0.775831 0 0.0194927
0.756813 0.188991 0 0.00376757
0.756814 0.199535 0 0.00379844
0.715676 0.320819 0 0.00445387
0.574156 0.534985 0 0.00629356
0.288433 0.730005 0 0.0126809
0.756813 0.21046 0 0.0038284
0.467897 0.632561 0 0.00808518
0.67013 0.412396 -3.46945e-18 0.00501374
0.624584 0.48061 -3.08149e-33 0.00565753
0.756814 0.221782 0 0.00385765
0.412065 0.67277 3.08149e-33 0.00936475
0.715676 0.336148 0 0.00448227
0 0.791472 0 0.0138829
0.756813 0.233516 3.46945e-18 0.00388635
0.523729 0.594219 0 0.00718013
0.624584 0.487654 1.54074e-33 0.0056616
0.756814 0.245675 3.46945e-18 0.00391465
0.350249 0.715441 3.46945e-18 0.010665
0.67013 0.43105 0 0.0050346
0.715676 0.352034 -9.25187e-19 0.0045097
0.797951 9.08189e-19 -3.08149e-33 9.78959e-23
0.797951 0.00368111 2.31298e-18 1.97946e-06
0.797951 0.00749587 2.31298e-18 1.43523e-05
0.797951 0.0114491 2.31298e-18 3.74411e-05
0.797951 0.0141803 7.70372e-34 5.30113e-05
0.797951 0.0155459 0 6.07964e-05
0.797951 0.0169611 7.70372e-34 6.87197e-05
0.797951 0.0197915 2.31298e-18 8.45662e-05
0.797951 0.0219913 0 0.000101618
0.797951 0.0241911 3.08149e-33 0.000118669
0.797951 0.0264709 0 0.000151561
0.797951 0.0287506 -3.08149e-33 0.000184452
0.797951 0.0334755 2.31298e-18 0.000297427
0.797951 0.038372 2.31298e-18 0.000452994
0.797951 0.0434463 2.31298e-18 0.000654366
0.797951 0.0487048 0 0.000910462
0.756813 0.258275 -3.46945e-18 0.00394264
0.797951 0.0541543 2.31298e-18 0.00122067
0.797951 0.0598016 2.31298e-18 0.00158177
0.797951 0.0656539 2.31298e-18 0.00198756
0.574156 0.55809 0 0.00630896
0.624584 0.501741 0 0.00566975
0.797951 0.0717187 2.31298e-18 0.00242577
0.797951 0.0780037 -3.08149e-33 0.00274595
0.797951 0.0845169 2.31298e-18 0.00288539
0.797951 0.0912666 -3.08149e-33 0.00296886
0.797951 0.0982613 2.31298e-18 0.00304244
0.756813 0.271334 0 0.00397039
0.797951 0.10551 2.31298e-18 0.00310731
0.715676 0.368496 0 0.00453596
0.151552 0.791472 0 0.0168885
0.797951 0.113022 2.31298e-18 0.00316507
0.219992 0.775831 3.46945e-18 0.0146398
0.797951 0.118211 7.70372e-34 0.00319988
0.770526 0.239487 1.54074e-33 0.00384555
0.797951 0.120806 0 0.00321729
0.67013 0.450382 3.46945e-18 0.00505351
0.797951 0.128874 3.08149e-33 0.00326487
0.467897 0.659208 0 0.00810031
0.756813 0.284866 -3.46945e-18 0.00399794
0.743101 0.320819 -7.70372e-34 0.00423095
0.797951 0.137234 0 0.00330861
0.797951 0.141566 0 0.00332889
0.797951 0.145897 -9.25187e-19 0.00334916
0.523729 0.619475 0 0.00719674
0.075776 0.807681 0 0.0192716
0.797951 0.150387 0 0.00336808
0.797951 0.154876 0 0.003387
0.715676 0.385557 0 0.00456089
0.412065 0.700877 3.08149e-33 0.00936325
0.288433 0.76019 0 0.0126052
0.756813 0.29889 0 0.00402526
0.797951 0.16418 0 0.00342254
0.624584 0.523639 0 0.00568397
0.797951 0.167394 7.70372e-34 0.00343374
0.797951 0.173822 2.31298e-18 0.00345613
0.574156 0.582034 0 0.00632898
0.67013 0.470415 0 0.00507103
0.797951 0.183814 2.31298e-18 0.00348807
0.756813 0.313423 -3.46945e-18 0.0040523
0.797951 0.194169 -9.25187e-19 0.00351863
0.715676 0.403236 0 0.00458436
0.151552 0.807681 0 0.0168076
0.797951 0.197746 -7.70372e-34 0.00352844
0.350249 0.745097 0 0.0106512
0.797951 0.2049 3.08149e-33 0.00354804
0 0.823889 0 0.0137337
0.756813 0.328483 -3.46945e-18 0.00407892
0.797951 0.21046 0 0.00356226
0.797951 0.21602 -3.08149e-33 0.00357649
0.797951 0.223703 7.70372e-34 0.00359494
0.797951 0.227544 9.25187e-19 0.00360416
0.624584 0.546332 0 0.0057013
0.715676 0.421557 0 0.00460628
0.67013 0.491176 -3.46945e-18 0.00508808
0.797951 0.231525 7.70372e-34 0.00361318
0.467897 0.686824 -3.46945e-18 0.00812241
0.523729 0.645647 0 0.00721905
0.756813 0.344091 -3.46945e-18 0.00410499
0.822721 0.120806 7.70372e-34 0.00307056
0.797951 0.239487 -3.08149e-33 0.00363121
0.822721 0.137234 7.70372e-34 0.00316184
0.835106 0.00184056 0 2.64206e-07
0.835106 0.00558849 0 3.69228e-06
0.835106 0.00947248 0 2.63096e-05
0.835106 0.0134975 0 5.22633e-05
0.835107 0.0176687 0 7.36667e-05
0.835106 0.0219913 -3.46945e-18 9.65279e-05