# nutMean  POINT_DATA 63140
# x  y  z  nutMean
0 0.1 0 0.00533728
0 0.1 -0.0179898 0.00533913
0 0.1 0.0179898 0.00533484
0.0363518 0.1 0.0179898 0.0124677
0.0363518 0.1 -0.0179898 0.0134728
0 0.1 -0.0570102 0.00535052
0 0.1 0.0570102 0.00533343
0.0363518 0.1 0.0570102 0.0124663
0.0363518 0.1 -0.0570102 0.0134842
0 0.1 -0.075 0.00535902
0 0.1 0.075 0.00533499
0.075776 0.1 -0.0375 0.0220375
0.075776 0.1 0.0375 0.0200175
0 0.1 -0.0929898 0.00536693
0 0.1 0.0929898 0.00533602
0.0363518 0.1 -0.0929898 0.0140231
0.0363518 0.1 0.0929898 0.0114616
0 0.1 -0.13201 0.00538942
0 0.1 0.13201 0.0053408
0.075776 0.1 -0.1125 0.0230972
0.075776 0.1 0.1125 0.0179786
0.0363518 0.1 -0.13201 0.0140456
0.0363518 0.1 0.13201 0.0114664
0 0.1 -0.15 0.00540296
0 0.1 0.15 0.00534457
0.150379 0.1 -2.22623e-17 0.0185522
0 0.1 -0.16799 0.00541597
0 0.1 0.16799 0.0053482
0.150379 0.1 -0.075 0.0193122
0.150379 0.1 0.075 0.0175577
0.0363518 0.1 -0.16799 0.0134886
0.0363518 0.1 0.16799 0.0104965
0.075776 0.1 -0.1875 0.0219664
0.075776 0.1 0.1875 0.0159988
0 0.1 -0.20701 0.00545375
0 0.1 0.20701 0.00535784
0.0363518 0.1 -0.20701 0.0135264
0.0363518 0.1 0.20701 0.0105062
0.150379 0.1 -0.15 0.0193078
0.150379 0.1 0.15 0.0163151
0.219993 0.1 -0.0375 0.0161805
0.219993 0.1 0.0375 0.0161766
0 0.1 -0.225 0.00547693
0 0.1 0.225 0.00536349
0 0.1 -0.24299 0.00550008
0 0.1 0.24299 0.0053696
0.0363518 0.1 0.24299 0.0096827
0.0363518 0.1 -0.24299 0.012709
0.219993 0.1 -0.1125 0.0162014
0.219993 0.1 0.1125 0.0161731
0.150379 0.1 -0.225 0.0185076
0.150379 0.1 0.225 0.0146217
0.075776 0.1 -0.2625 0.0203012
0.075776 0.1 0.2625 0.0143051
0 0.1 -0.28201 0.00555111
0 0.1 0.28201 0.00537938
0.0363518 0.1 -0.28201 0.01276
0.0363518 0.1 0.28201 0.00969248
0.287374 0.1 -2.89121e-19 0.0132703
0.219992 0.1 0.1875 0.0151576
0.219992 0.1 -0.1875 0.0162291
0.287374 0.1 -0.075 0.01332
0.287374 0.1 0.075 0.0132081
0 0.1 -0.3 0.00557749
0 0.1 0.3 0.00538305
0 0.1 0.31799 0.0053875
0 0.1 -0.31799 0.00560474
0.0363518 0.1 -0.31799 0.0117024
0.0363518 0.1 0.31799 0.00906532
0.287374 0.1 0.15 0.0128737
0.287374 0.1 -0.15 0.0133478
0.150379 0.1 -0.3 0.0171486
0.150379 0.1 0.3 0.0132109
0.219993 0.1 0.2625 0.0130586
0.219993 0.1 -0.2625 0.0157456
0.075776 0.1 -0.3375 0.0181732
0.075776 0.1 0.3375 0.0130201
0.350249 0.1 -0.0375 0.0105206
0.350249 0.1 0.0375 0.0104246
0 0.1 -0.35701 0.00564619
0 0.1 0.35701 0.00538772
0.0363518 0.1 -0.35701 0.0117439
0.0363518 0.1 0.35701 0.00906554
0.287374 0.1 -0.225 0.0131921
0.287374 0.1 0.225 0.0119936
0.350249 0.1 -0.1125 0.0105965
0.350249 0.1 0.1125 0.0102841
0 0.1 -0.375 0.00566057
0 0.1 0.375 0.00538454
0 0.1 -0.39299 0.00567611
0 0.1 0.39299 0.00538182
0.0363518 0.1 -0.39299 0.010864
0.0363518 0.1 0.39299 0.00872975
0.350249 0.1 -0.1875 0.0105831
0.350249 0.1 0.1875 0.0100987
0.219992 0.1 -0.3375 0.0145416
0.219992 0.1 0.3375 0.0124867
0.150379 0.1 0.375 0.0124586
0.150379 0.1 -0.375 0.0157926
0.411108 0.1 4.33681e-19 0.00869491
0.287374 0.1 -0.3 0.0127136
0.287374 0.1 0.3 0.0112411
0.411108 0.1 -0.075 0.00875379
0.411108 0.1 0.075 0.00862986
0.075776 0.1 -0.4125 0.0164019
0.075776 0.1 0.4125 0.0123327
0 0.1 0.43201 0.00537084
0 0.1 -0.43201 0.00569734
0.0363518 0.1 0.43201 0.00871877
0.0363518 0.1 -0.43201 0.0108853
0.411108 0.1 -0.15 0.00879067
0.411108 0.1 0.15 0.00855081
0.350249 0.1 -0.2625 0.0104277
0.350249 0.1 0.2625 0.00983095
0 0.1 -0.45 0.00570425
0 0.1 0.45 0.00536409
0.219992 0.1 0.4125 0.0120045
0.219992 0.1 -0.4125 0.0141745
0 0.1 -0.46799 0.00571174
0 0.1 0.46799 0.00535737
0.411108 0.1 -0.225 0.00877215
0.411108 0.1 0.225 0.00844783
0.467897 0.1 -0.0375 0.00700017
0.467897 0.1 0.0375 0.00697531
0.0363518 0.1 0.46799 0.00850781
0.0363518 0.1 -0.46799 0.0103082
0.287374 0.1 -0.375 0.0122991
0.287374 0.1 0.375 0.0109604
0.150379 0.1 0.45 0.0122437
0.150379 0.1 -0.45 0.0149203
0.467897 0.1 0.1125 0.00697206
0.467897 0.1 -0.1125 0.00704141
0.350249 0.1 -0.3375 0.0103403
0.350249 0.1 0.3375 0.00971397
0.075776 0.1 -0.4875 0.0152319
0.075776 0.1 0.4875 0.0119011
0.467897 0.1 0.1875 0.00697796
0.467897 0.1 -0.1875 0.00708482
0 0.1 -0.50701 0.00571423
0 0.1 0.50701 0.00533866
0.0363518 0.1 -0.50701 0.0103107
0.0363518 0.1 0.50701 0.0084891
0.411108 0.1 0.3 0.00836642
0.411108 0.1 -0.3 0.0087515
0.522865 0.1 1.41031e-17 0.00604022
0 0.1 -0.525 0.00571054
0 0.1 0.525 0.00532818
0.522865 0.1 -0.075 0.00606826
0.522865 0.1 0.075 0.00603384
0.287374 0.1 0.45 0.0110585
0.287374 0.1 -0.45 0.0121778
0.219992 0.1 0.4875 0.012719
0.219992 0.1 -0.4875 0.0139444
0.467897 0.1 -0.2625 0.00713003
0.467897 0.1 0.2625 0.00700301
0.350249 0.1 -0.4125 0.0103215
0.350249 0.1 0.4125 0.00974413
0 0.1 -0.54299 0.00570679
0 0.1 0.54299 0.00531735
0.522865 0.1 0.15 0.00604732
0.522865 0.1 -0.15 0.00611136
0.0363518 0.1 0.54299 0.00832139
0.0363518 0.1 -0.54299 0.0100446
0.150379 0.1 -0.525 0.0143747
0.150379 0.1 0.525 0.0124356
0.411108 0.1 -0.375 0.00877519
0.411108 0.1 0.375 0.00837288
0.075776 0.1 -0.5625 0.0146882
0.075776 0.1 0.5625 0.0115583
0.522865 0.1 -0.225 0.00616483
0.522865 0.1 0.225 0.00607761
0.574156 0.1 0.0375 0.00512252
0.574157 0.1 -0.0375 0.00513446
0.467897 0.1 -0.3375 0.00723673
0.467897 0.1 0.3375 0.00702823
0 0.1 -0.58201 0.00569396
0 0.1 0.58201 0.00529512
0.0363518 0.1 -0.58201 0.0100318
0.0363518 0.1 0.58201 0.00829915
0.574157 0.1 -0.1125 0.00516891
0.574157 0.1 0.1125 0.00513645
0.287374 0.1 -0.525 0.0121314
0.287374 0.1 0.525 0.0115088
0 0.1 -0.6 0.00568654
0 0.1 0.6 0.00528514
0.350249 0.1 0.4875 0.00987949
0.350249 0.1 -0.4875 0.0104386
0.522865 0.1 -0.3 0.00625026
0.522865 0.1 0.3 0.00612046
0.219992 0.1 -0.5625 0.0136783
0.219992 0.1 0.5625 0.0134996
0.574156 0.1 -0.1875 0.00522212
0.574156 0.1 0.1875 0.0051728
0.411108 0.1 0.45 0.0084741
0.411108 0.1 -0.45 0.0088638
0 0.1 -0.61799 0.00567859
0 0.1 0.61799 0.00527452
0.150379 0.1 -0.6 0.0143902
0.150379 0.1 0.6 0.0124356
0.0363518 0.1 -0.61799 0.00978004
0.0363518 0.1 0.61799 0.00815877
0.467897 0.1 -0.4125 0.00732637
0.467897 0.1 0.4125 0.00711267
0.623803 0.1 2.34188e-17 0.0045724
0.623803 0.1 0.075 0.00457358
0.623803 0.1 -0.075 0.00459475
0.574156 0.1 0.2625 0.0052254
0.574156 0.1 -0.2625 0.00529339
0.623803 0.1 0.15 0.00459848
0.623803 0.1 -0.15 0.00463796
0.075776 0.1 0.6375 0.0112695
0.075776 0.1 -0.6375 0.0141769
0.522865 0.1 -0.375 0.00635823
0.522865 0.1 0.375 0.00618763
0 0.1 0.65701 0.00525503
0 0.1 -0.65701 0.00565779
0.0363518 0.1 0.65701 0.00813929
0.0363518 0.1 -0.65701 0.00975924
0.350249 0.1 0.5625 0.0100782
0.350249 0.1 -0.5625 0.010619
0.623803 0.1 0.225 0.00464318
0.623803 0.1 -0.225 0.0047013
0.287374 0.1 -0.6 0.0124991
0.287374 0.1 0.6 0.0117484
0.574157 0.1 -0.3375 0.00541109
0.574157 0.1 0.3375 0.00529246
0.411108 0.1 0.525 0.00865435
0.411108 0.1 -0.525 0.00903443
0.67013 0.1 0.0375 0.00403043
0.67013 0.1 -0.0375 0.0040411
0.219992 0.1 -0.6375 0.0150275
0.219993 0.1 0.6375 0.0133239
0 0.1 -0.675 0.00564659
0 0.1 0.675 0.00524734
0.467897 0.1 -0.4875 0.00749177
0.467897 0.1 0.4875 0.00726739
0.67013 0.1 -0.1125 0.00407349
0.67013 0.1 0.1125 0.00404382
0.522865 0.1 0.45 0.00630244
0.522865 0.1 -0.45 0.00649059
0.150379 0.1 0.675 0.0121779
0.150379 0.1 -0.675 0.0146037
0.623803 0.1 0.3 0.00470477
0.623803 0.1 -0.3 0.00479277
0 0.1 -0.69299 0.00563445
0 0.1 0.69299 0.00523894
0.0363518 0.1 -0.69299 0.00953929
0.0363518 0.1 0.69299 0.00802227
0.67013 0.1 -0.1875 0.00412632
0.67013 0.1 0.1875 0.00407975
0.574156 0.1 0.4125 0.0053835
0.574157 0.1 -0.4125 0.00552817
0.714971 0.1 -2.8382e-17 0.00367178
0.075776 0.1 -0.7125 0.0137271
0.075776 0.1 0.7125 0.0110277
0.714971 0.1 -0.075 0.00369394
0.714971 0.1 0.075 0.00367148
0.67013 0.1 0.2625 0.0041336
0.67013 0.1 -0.2625 0.00420221
0.411108 0.1 -0.6 0.00925892
0.411108 0.1 0.6 0.00887202
0.350249 0.1 0.6375 0.0102369
0.350249 0.1 -0.6375 0.0108587
0.623803 0.1 0.375 0.00478303
0.623803 0.1 -0.375 0.00490637
0.714971 0.1 -0.15 0.0037362
0.714971 0.1 0.15 0.00369341
0.467897 0.1 -0.5625 0.00771274
0.467897 0.1 0.5625 0.00749905
0 0.1 -0.73201 0.00560975
0 0.1 0.73201 0.00522424
0.0363518 0.1 0.73201 0.00800757
0.0363518 0.1 -0.73201 0.00951459
0.287374 0.1 -0.675 0.0130458
0.287374 0.1 0.675 0.0116921
0.522865 0.1 -0.525 0.00667555
0.522865 0.1 0.525 0.00647615
0.219993 0.1 -0.7125 0.0154464
0.219992 0.1 0.7125 0.0129971
0.714971 0.1 -0.225 0.00379851
0.714971 0.1 0.225 0.00373516
0 0.1 0.75 0.00521878
0 0.1 -0.75 0.00559837
0.67013 0.1 -0.3375 0.00430339
0.67013 0.1 0.3375 0.00420629
0.574156 0.1 -0.4875 0.00568528
0.574157 0.1 0.4875 0.00551306
0.756813 0.1 0.0375 0.00331291
0.756814 0.1 -0.0375 0.00332592
0.150379 0.1 0.746002 0.0119086
0.150379 0.1 -0.75 0.01449
0.756813 0.1 -0.1125 0.00335848
0.756813 0.1 0.1125 0.00332212
0 0.1 0.76799 0.00521257
0 0.1 -0.76799 0.00558564
0.0363518 0.1 0.76799 0.00791472
0.0363518 0.1 -0.76799 0.00931714
0.623803 0.1 -0.45 0.00504171
0.623803 0.1 0.45 0.00488705
0.714971 0.1 -0.3 0.00388069
0.714971 0.1 0.3 0.00379488
0.756814 0.1 -0.1875 0.0034097
0.756814 0.1 0.1875 0.00335147
0.67013 0.1 -0.4125 0.00442202
0.67013 0.1 0.4125 0.00428853
0.411108 0.1 0.675 0.00907656
0.411108 0.1 -0.675 0.00950707
0.467897 0.1 0.6375 0.00777768
0.467897 0.1 -0.6375 0.00797381
0.075776 0.1 0.7875 0.0108356
0.075776 0.1 -0.7875 0.0133217
0.350249 0.1 -0.7125 0.0110811
0.350249 0.1 0.7125 0.0103387
0.522865 0.1 -0.6 0.00690448
0.522865 0.1 0.6 0.0067064
0.797314 0.1 -3.59473e-17 0.00306167
0.287374 0.1 0.746002 0.0116105
0.797314 0.1 -0.075 0.00308411
0.797314 0.1 0.075 0.00305884
0.756814 0.1 -0.2625 0.00347913
0.756814 0.1 0.2625 0.00339954
0.287374 0.1 -0.75 0.0132332
0.574156 0.1 -0.5625 0.00588246
0.574156 0.1 0.5625 0.00569375
0 0.1 0.80701 0.00520269
0 0.1 -0.80701 0.00556228
0.714971 0.1 -0.375 0.00398656
0.714971 0.1 0.375 0.00387082
0.0363518 0.1 0.80701 0.00790483
0.0363518 0.1 -0.80701 0.00929377
0.797314 0.1 -0.15 0.00312444
0.797314 0.1 0.15 0.00307564
0.623803 0.1 -0.525 0.00521231
0.623803 0.1 0.525 0.00502968
0.219992 0.1 0.7875 0.0127074
0.219992 0.1 -0.7875 0.0153974
0.149792 0.1 0.80701 0.0117462
0 0.1 0.825 0.00519964
0 0.1 -0.825 0.00555277
0.797314 0.1 -0.225 0.0031813
0.797314 0.1 0.225 0.0031109
0.756813 0.1 -0.3375 0.00356174
0.756813 0.1 0.3375 0.00346402
0.67013 0.1 0.4875 0.00440215
0.67013 0.1 -0.4875 0.00457059
0.835106 0.1 -0.0375 0.00281797
0.835106 0.1 0.0375 0.00280468
0.150379 0.1 -0.825 0.0142585
0.835106 0.1 -0.1125 0.00284889
0.835106 0.1 0.1125 0.00281048
0 0.1 -0.84299 0.00554173
0 0.1 0.84299 0.0051958
0.0363518 0.1 -0.84299 0.00911609
0.0363518 0.1 0.84299 0.00783647
0.714971 0.1 -0.45 0.00411841
0.714971 0.1 0.45 0.0039641
0.411108 0.1 0.746002 0.00925077
0.797314 0.1 -0.3 0.00325308
0.797314 0.1 0.3 0.00316295
0.467897 0.1 -0.7125 0.00824914
0.467897 0.1 0.7125 0.00805258
0.522865 0.1 0.675 0.00696931
0.522865 0.1 -0.675 0.00716699
0.411108 0.1 -0.75 0.00972316
0.835106 0.1 -0.1875 0.00289557
0.835107 0.1 0.1875 0.00283347
0.286844 0.1 0.80701 0.0115141
0.574156 0.1 0.6375 0.00592598
0.574157 0.1 -0.6375 0.00612039
0.350249 0.1 -0.7875 0.0112391
0.350249 0.1 0.7875 0.0104054
0.756813 0.1 -0.4125 0.00368303
0.756814 0.1 0.4125 0.00354841
0.623803 0.1 -0.6 0.00541878
0.623803 0.1 0.6 0.00521605
0.075776 0.1 0.8625 0.010694
0.075776 0.1 -0.8625 0.0129566
0.871687 0.1 -3.2767e-18 0.00262026
0.287374 0.1 -0.825 0.0132657
0.871687 0.1 -0.075 0.00264251
0.871687 0.1 0.075 0.00261551
0.67013 0.1 -0.5625 0.00475051
0.67013 0.1 0.5625 0.00454965
0.835106 0.1 0.2625 0.00287429
0.835106 0.1 -0.2625 0.00295588
0.797314 0.1 -0.375 0.00335021
0.797314 0.1 0.375 0.0032322
0 0.1 -0.88201 0.00552216
0 0.1 0.88201 0.00519114
0.0363518 0.1 0.88201 0.00783181
0.0363518 0.1 -0.88201 0.00909652
0.871687 0.1 0.15 0.00262769
0.871687 0.1 -0.15 0.00268018
0.714971 0.1 0.525 0.00408363
0.714971 0.1 -0.525 0.00427696
0.219993 0.1 0.8625 0.0124935
0.219992 0.1 -0.8625 0.0152714
0 0.1 0.9 0.00519076
0 0.1 -0.9 0.00551467
0.756813 0.1 0.4875 0.00364156
0.756814 0.1 -0.4875 0.003822
0.871687 0.1 0.225 0.00265626
0.871687 0.1 -0.225 0.00273046
0.835106 0.1 -0.3375 0.0030309
0.835106 0.1 0.3375 0.00292937
0.41063 0.1 0.80701 0.0093316
0.90582 0.1 -0.0375 0.00244104
0.905821 0.1 0.0375 0.00242699
0.522865 0.1 0.746002 0.00723217
0.150379 0.1 0.9 0.0115574
0.90582 0.1 0.1125 0.00242957
0.905821 0.1 -0.1125 0.00247177
0.522865 0.1 -0.75 0.00743622
0.574156 0.1 0.7125 0.00619351
0.574156 0.1 -0.7125 0.00639795
0.797314 0.1 -0.45 0.00347398
0.797314 0.1 0.45 0.00331486
0.467897 0.1 -0.7875 0.00846221
0.467897 0.1 0.7875 0.00825677
0.150379 0.1 -0.903998 0.0140784
0 0.1 0.91799 0.00518953
0 0.1 -0.91799 0.00550569
0.0363518 0.1 0.91799 0.00778907
0.0363518 0.1 -0.91799 0.00894308
0.623803 0.1 0.675 0.00544301
0.623803 0.1 -0.675 0.00566163
0.411108 0.1 -0.825 0.00989514
0.871687 0.1 0.3 0.00270037
0.871687 0.1 -0.3 0.00279677
0.67013 0.1 -0.6375 0.00496214
0.67013 0.1 0.6375 0.00473618
0.90582 0.1 -0.1875 0.00251415
0.90582 0.1 0.1875 0.00244703
0.350249 0.1 0.8625 0.0104622
0.350249 0.1 -0.8625 0.0113757
0.835106 0.1 -0.4125 0.00314074
0.835106 0.1 0.4125 0.0030027
0.714971 0.1 -0.6 0.00446557
0.714971 0.1 0.6 0.0042374
0.93886 0.1 -1.15648e-17 0.00233167
0.075776 0.1 0.9375 0.0106051
0.075776 0.1 -0.9375 0.0126403
0.93886 0.1 0.075 0.00232657
0.93886 0.1 -0.075 0.00235269
0.756813 0.1 0.5625 0.00376607
0.756814 0.1 -0.5625 0.00398898
0.905821 0.1 -0.2625 0.0025661
0.905821 0.1 0.2625 0.0024802
0.287374 0.1 0.9 0.0114352
0.287374 0.1 -0.903998 0.0132308
0.871687 0.1 0.375 0.00275951
0.871687 0.1 -0.375 0.00288813
0.93886 0.1 -0.15 0.00238729
0.93886 0.1 0.15 0.00233618
0.797314 0.1 0.525 0.00341627
0.797314 0.1 -0.525 0.00361942
0 0.1 0.95701 0.00518994
0 0.1 -0.95701 0.00549004
0.0363518 0.1 0.95701 0.00778948
0.0363518 0.1 -0.95701 0.00892743
0.522433 0.1 0.80701 0.00740138
0.219992 0.1 0.9375 0.0123514
0.219992 0.1 -0.9375 0.0151339
0.93886 0.1 0.225 0.00235984
0.93886 0.1 -0.225 0.00243097
0.90582 0.1 0.3375 0.00252779
0.905821 0.1 -0.3375 0.00264411
0.835106 0.1 -0.4875 0.00326605
0.835107 0.1 0.4875 0.00308281
0.969689 0.1 -0.0375 0.00223729
0.969689 0.1 0.0375 0.00222553
0.61613 0.1 0.75 0.00570026
0.574156 0.1 -0.7875 0.00670878
0.574156 0.1 0.7875 0.00647967
0 0.1 0.975 0.00519181
0 0.1 -0.975 0.00548415
0.623803 0.1 -0.75 0.00594034
0.969689 0.1 -0.1125 0.00226492
0.969689 0.1 0.1125 0.00222832
0.522865 0.1 -0.825 0.00768195
0.67013 0.1 0.7125 0.00495944
0.67013 0.1 -0.7125 0.00520758
0.871687 0.1 -0.45 0.00300286
0.871687 0.1 0.45 0.00283282
0.467897 0.1 0.8625 0.00840078
0.467897 0.1 -0.8625 0.00864478
0.714971 0.1 -0.675 0.00468673
0.714971 0.1 0.675 0.00442637
0.93886 0.1 -0.3 0.00249092
0.93886 0.1 0.3 0.00239756
0.150379 0.1 0.975 0.0114646
0.150379 0.1 -0.975 0.0138184
0.969689 0.1 -0.1875 0.00230267
0.969689 0.1 0.1875 0.00224397
0.411108 0.1 0.9 0.00945611
0.756813 0.1 0.6375 0.00392341
0.756814 0.1 -0.6375 0.00418523
0.990306 0.1 -2.19732e-17 0.00214572
0 0.1 0.99299 0.00519279
0 0.1 -0.99299 0.00547684
0.411108 0.1 -0.903998 0.0100131
0.990306 0.1 -0.075 0.00216445
0.990306 0.1 0.075 0.00214134
0.0363518 0.1 0.99299 0.00776951
0.0363518 0.1 -0.99299 0.00880257
0.90582 0.1 -0.4125 0.00274669
0.905821 0.1 0.4125 0.00258859
0.797314 0.1 -0.6 0.00379263
0.797314 0.1 0.6 0.0035464
0.350249 0.1 0.9375 0.0105242
0.350249 0.1 -0.9375 0.0115001
0.990306 0.1 0.15 0.0021501
0.990306 0.1 -0.15 0.00219592
0.969689 0.1 -0.2625 0.00234548
0.969689 0.1 0.2625 0.00227238
0.835106 0.1 -0.5625 0.00341695
0.835106 0.1 0.5625 0.00319109
0.93886 0.1 -0.375 0.00257734
0.93886 0.1 0.375 0.00244814
0.075776 0.1 1.0125 0.0105633
0.075776 0.1 -1.0125 0.0123831
0.990306 0.1 -0.225 0.00223599
0.990306 0.1 0.225 0.0021713
0.287374 0.1 0.975 0.0114137
0.287374 0.1 -0.975 0.013245
0.871687 0.1 -0.525 0.00313882
0.871687 0.1 0.525 0.0029218
1.02149 0.1 -0.0369628 0.00198983
1.02149 0.1 0.0369628 0.00197986
0.969689 0.1 -0.3375 0.00241272
0.969689 0.1 0.3375 0.00231423
1.02149 0.1 -0.110888 0.00201266
1.02149 0.1 0.110888 0.00198131
0.90582 0.1 0.4875 0.00266776
0.90582 0.1 -0.4875 0.00286802
0.623803 0.1 0.819003 0.00585252
0 0.1 1.03201 0.00519766
0 0.1 -1.03201 0.00546428
0.0363518 0.1 1.03201 0.00777438
0.0363518 0.1 -1.03201 0.00879001
0.67013 0.1 -0.7875 0.00549002
0.67013 0.1 0.7875 0.00521308
0.623803 0.1 -0.825 0.00623561
0.990306 0.1 -0.3 0.00229095
0.990306 0.1 0.3 0.0022053
0.219992 0.1 -1.0125 0.0150017
0.219993 0.1 1.0125 0.0122552
0.574156 0.1 0.8625 0.00675126
0.574157 0.1 -0.8625 0.0069861
0.714971 0.1 -0.75 0.00494274
0.714971 0.1 0.75 0.0046482
1.02149 0.1 0.184814 0.0019945
1.02149 0.1 -0.184814 0.00204633
0.756814 0.1 -0.7125 0.00441689
0.756814 0.1 0.7125 0.00411311
0.522865 0.1 0.9 0.00764903
0.93886 0.1 -0.45 0.00269164
0.93886 0.1 0.45 0.00251279
1.04168 0.1 0 0.001907
1.04168 0.1 -0.0729162 0.00192229
1.04168 0.1 0.0729162 0.00190262
0.522865 0.1 -0.903998 0.00787269
0.797314 0.1 -0.675 0.00399617
0.797314 0.1 0.675 0.00370548
0.467897 0.1 0.9375 0.00853574
0.467897 0.1 -0.9375 0.00889597
0 0.1 1.05 0.00520162
0 0.1 -1.05 0.00545969
0.835106 0.1 -0.6375 0.00359608
0.835106 0.1 0.6375 0.00332208
1.04168 0.1 -0.145832 0.0019481
1.04168 0.1 0.145832 0.00190831
1.02149 0.1 -0.25874 0.00209037
1.02149 0.1 0.25874 0.00201878
0.969689 0.1 -0.4125 0.00251075
0.969689 0.1 0.4125 0.00236645
0.411108 0.1 0.975 0.00957183
0.411108 0.1 -0.975 0.0102165
0.871687 0.1 -0.6 0.00330096
0.871687 0.1 0.6 0.00303133
1.0579 0.1 -0.0360525 0.00185598
1.0579 0.1 0.0360525 0.00184658
0.990306 0.1 -0.375 0.00237242
0.990306 0.1 0.375 0.00225128
0.150379 0.1 1.05 0.0114168
0.150379 0.1 -1.05 0.0136409
1.0579 0.1 0.108157 0.00184663
1.0579 0.1 -0.108157 0.00187558
1.04168 0.1 -0.218749 0.00198361
1.04168 0.1 0.218749 0.00192376
0.90582 0.1 -0.5625 0.00301442
0.90582 0.1 0.5625 0.00275636
0 0.1 -1.06799 0.00545372
0 0.1 1.06799 0.00520462
0.0363518 0.1 -1.06799 0.00869035
0.0363518 0.1 1.06799 0.00777137
0.350249 0.1 1.0125 0.0106075
0.350249 0.1 -1.0125 0.0115409
1.0579 0.1 -0.180262 0.00190352
1.0579 0.1 0.180262 0.00185488
1.02149 0.1 -0.332665 0.00215325
1.02149 0.1 0.332665 0.00205546
0.93886 0.1 -0.525 0.00282599
0.93886 0.1 0.525 0.00259002
1.08012 0.1 5.49329e-18 0.0017862
1.04168 0.1 -0.291665 0.00203238
1.04168 0.1 0.291665 0.00194949
1.08012 0.1 0.0709941 0.00178216
1.08012 0.1 -0.0709941 0.00179971
0.969689 0.1 -0.4875 0.00264589
0.96969 0.1 0.4875 0.00243311
1.0579 0.1 0.252367 0.00187164
1.0579 0.1 -0.252367 0.00194149
0.990306 0.1 -0.45 0.00248472
0.990306 0.1 0.45 0.00230982
0.287374 0.1 -1.05 0.0132012
0.287374 0.1 1.05 0.0114283
0.714971 0.1 0.821002 0.00487011
1.08012 0.1 -0.141988 0.0018219
1.08012 0.1 0.141988 0.00178632
0.075776 0.1 1.0875 0.0105565
0.075776 0.1 -1.0875 0.0121776
0.714971 0.1 -0.825 0.00523236
0.756813 0.1 -0.7875 0.004682
0.756814 0.1 0.7875 0.00433491
0.67013 0.1 -0.8625 0.00580263
0.67013 0.1 0.8625 0.00548775
0.797314 0.1 -0.75 0.00423087
0.797314 0.1 0.75 0.00389493
0.623803 0.1 0.9 0.00623407
0.835106 0.1 -0.7125 0.00380366
0.835106 0.1 0.7125 0.00348116
0.623803 0.1 -0.903998 0.0064705
0.574156 0.1 0.9375 0.00698052
0.574156 0.1 -0.9375 0.00725625
1.02149 0.1 -0.406591 0.00224357
1.02149 0.1 0.406591 0.00210342
1.08012 0.1 -0.212982 0.00185214
1.08012 0.1 0.212982 0.00179817
1.10076 0.1 -0.0349809 0.0017303
1.10076 0.1 0.0349809 0.00172298
0.871687 0.1 -0.675 0.00349111
0.871687 0.1 0.675 0.00316715
1.04168 0.1 -0.364581 0.00210158
1.04168 0.1 0.364581 0.00198594
1.10076 0.1 -0.104943 0.00174809
1.10076 0.1 0.104943 0.00172379
0.522865 0.1 0.975 0.0078418
0.522865 0.1 -0.975 0.00815934
1.0579 0.1 -0.324472 0.00199479
1.0579 0.1 0.324472 0.00189795
0 0.1 -1.10701 0.00544417
0 0.1 1.10701 0.00521361
0.0363518 0.1 1.10701 0.00778036
0.0363518 0.1 -1.10701 0.0086808
0.90582 0.1 0.6375 0.00286716
0.905821 0.1 -0.6375 0.00318666
0.219992 0.1 1.0875 0.0122108
0.219992 0.1 -1.0875 0.0148776
0.93886 0.1 0.6 0.00269254
0.93886 0.1 -0.6 0.00297692
1.10076 0.1 -0.174905 0.00177223
1.10076 0.1 0.174905 0.00173219
0.467897 0.1 1.0125 0.00872062
0.467897 0.1 -1.0125 0.00907163
1.08012 0.1 -0.283976 0.00189458
1.08012 0.1 0.283976 0.00181819
1.11928 0.1 3.93204e-18 0.00168163
0.990306 0.1 -0.525 0.00261041
0.990306 0.1 0.525 0.00238083
0.96969 0.1 -0.5625 0.00278038
0.969689 0.1 0.5625 0.00250791
1.11928 0.1 -0.0690357 0.00169341
1.11928 0.1 0.0690357 0.00167847
0 0.1 1.125 0.00521952
0 0.1 -1.125 0.00544114
0.411108 0.1 -1.05 0.0102923
0.411108 0.1 1.05 0.00972049
1.10076 0.1 0.244866 0.0017479
1.10076 0.1 -0.244866 0.00180445
1.11928 0.1 -0.138072 0.00171306
1.11928 0.1 0.138072 0.00168243
1.02149 0.1 0.480517 0.00216468
1.02149 0.1 -0.480517 0.00235348
1.0579 0.1 -0.396577 0.00206844
1.0579 0.1 0.396577 0.0019341
1.04168 0.1 -0.437497 0.00219129
1.04168 0.1 0.437497 0.00203343
0.150379 0.1 1.125 0.0114113
0.150379 0.1 -1.125 0.0134978
0.714971 0.1 0.88201 0.0048811
1.08012 0.1 0.354971 0.00184717
1.08012 0.1 -0.354971 0.0019537
1.11928 0.1 -0.207107 0.00173922
1.11928 0.1 0.207107 0.00169326
0.350249 0.1 -1.0875 0.0115674
0.350249 0.1 1.0875 0.0107183
0 0.1 1.14299 0.00522437
0 0.1 -1.14299 0.00543674
0.0363518 0.1 1.14299 0.0077931
0.0363518 0.1 -1.14299 0.008604
1.14316 0.1 -0.0339211 0.00162123
1.14316 0.1 0.0339211 0.00161494
0.797314 0.1 0.821002 0.00410914
1.10076 0.1 -0.314829 0.00185268
1.10076 0.1 0.314829 0.00177146
0.797314 0.1 -0.825 0.00449777
0.756814 0.1 -0.8625 0.0049812
0.756814 0.1 0.8625 0.00458291
1.14316 0.1 -0.101763 0.00163649
1.14316 0.1 0.101763 0.00161507
0.835106 0.1 -0.7875 0.00403884
0.835106 0.1 0.7875 0.00366925
0.871687 0.1 -0.75 0.00371022
0.871687 0.1 0.75 0.00333311
0.67013 0.1 0.9375 0.00576488
0.67013 0.1 -0.9375 0.0060818
0.90582 0.1 -0.7125 0.00338837
0.905821 0.1 0.7125 0.00301004
0.714971 0.1 -0.903998 0.00548513
1.11928 0.1 0.276143 0.00171098
1.11928 0.1 -0.276143 0.00177646
1.14316 0.1 0.169605 0.00162148
1.14316 0.1 -0.169605 0.00165694
0.93886 0.1 -0.675 0.00315171
0.93886 0.1 0.675 0.00281812
1.15704 0.1 0 0.00158551
1.0579 0.1 0.468682 0.00198065
1.0579 0.1 -0.468682 0.0021548
0.623803 0.1 0.975 0.00647616
0.623803 0.1 -0.975 0.00679044
0.990306 0.1 0.6 0.00248162
0.990306 0.1 -0.6 0.00274822
1.15704 0.1 -0.0671479 0.00159592
1.15704 0.1 0.0671479 0.00158271
1.04168 0.1 -0.510414 0.00228524
1.04168 0.1 0.510414 0.00209429
0.969689 0.1 -0.6375 0.00293134
0.969689 0.1 0.6375 0.00264363
1.08012 0.1 0.425965 0.00188528
1.08012 0.1 -0.425965 0.00202788
0.287374 0.1 -1.125 0.0131645
0.287374 0.1 1.125 0.0114838
1.02149 0.1 -0.554443 0.00245765
1.02149 0.1 0.554443 0.00224168
0.574156 0.1 1.0125 0.00720934
0.574156 0.1 -1.0125 0.00750254
1.15704 0.1 -0.134296 0.00161305
1.15704 0.1 0.134296 0.00158575
0.075776 0.1 1.1625 0.0105825
0.075776 0.1 -1.1625 0.0120191
1.10076 0.1 -0.384791 0.00191657
1.10076 0.1 0.384791 0.00180393
1.14316 0.1 -0.237448 0.00168402
1.14316 0.1 0.237448 0.00163385
1.11928 0.1 -0.345179 0.00182856
1.11928 0.1 0.345179 0.00173643
0.522865 0.1 1.05 0.0080494
0.522865 0.1 -1.05 0.00829947
1.15704 0.1 -0.201444 0.00163522
1.15704 0.1 0.201444 0.00159459
1.1744 0.1 -0.0331401 0.00155094
1.1744 0.1 0.0331401 0.00154571
1.1744 0.1 -0.0994202 0.0015655
1.1744 0.1 0.0994202 0.00154567
0 0.1 1.18201 0.00523699
0 0.1 -1.18201 0.00543055
0.0363518 0.1 1.18201 0.00780573
0.0363518 0.1 -1.18201 0.0085978
0.219992 0.1 1.1625 0.0122152
0.219993 0.1 -1.1625 0.0147879
1.14316 0.1 0.30529 0.00165241
1.14316 0.1 -0.30529 0.00172406
0.467897 0.1 1.0875 0.00893989
0.467897 0.1 -1.0875 0.00911916
1.1744 0.1 -0.1657 0.00158307
1.1744 0.1 0.1657 0.00155126
1.15704 0.1 -0.268592 0.00166649
1.15704 0.1 0.268592 0.00160904
1.0579 0.1 0.540787 0.0020415
1.0579 0.1 -0.540787 0.00223713
0.796996 0.1 0.88201 0.00429646
1.08012 0.1 -0.496959 0.00210441
1.08012 0.1 0.496959 0.00193448
1.10076 0.1 0.454752 0.00184433
1.10076 0.1 -0.454752 0.001991
1.11928 0.1 -0.414214 0.00189312
1.11928 0.1 0.414214 0.00176985
1.04168 0.1 -0.58333 0.00239534
1.04168 0.1 0.58333 0.00217071
1.1744 0.1 -0.231981 0.00160654
1.1744 0.1 0.231981 0.00156192
0.871687 0.1 0.821002 0.00352652
0.411108 0.1 1.125 0.00986923
0.411108 0.1 -1.125 0.0103343
1.19808 0.1 1.73472e-17 0.00149354
0.990306 0.1 0.675 0.00260227
0.990306 0.1 -0.675 0.00291177
1.02149 0.1 0.628368 0.00234119
1.02149 0.1 -0.628368 0.00260107
1.19808 0.1 -0.0650961 0.00150304
1.19808 0.1 0.0650961 0.00149095
0 0.1 1.2 0.00524458
0 0.1 -1.2 0.00542918
0.871687 0.1 -0.825 0.00395821
0.905821 0.1 -0.7875 0.00362028
0.90582 0.1 0.7875 0.00318413
0.835106 0.1 -0.8625 0.00430799
0.835106 0.1 0.8625 0.00388612
0.93886 0.1 -0.75 0.00334956
0.93886 0.1 0.75 0.00295853
1.14316 0.1 -0.373132 0.00177731
1.14316 0.1 0.373132 0.00167841
0.969689 0.1 0.7125 0.00275657
0.969689 0.1 -0.7125 0.00310611
1.15704 0.1 -0.33574 0.00171019
1.15704 0.1 0.33574 0.00162986
0.756813 0.1 0.9375 0.00484653
0.756814 0.1 -0.9375 0.00527671
1.19808 0.1 0.130192 0.00149323
1.19808 0.1 -0.130192 0.00151815
0.797314 0.1 -0.903998 0.00475073
0.714971 0.1 0.975 0.0054231
0.714971 0.1 -0.975 0.00581663
0.150379 0.1 1.2 0.0114475
0.150379 0.1 -1.2 0.0133929
1.20938 0.1 -0.0322656 0.00147411
1.20938 0.1 0.0322656 0.00146947
1.1744 0.1 -0.298261 0.00164069
1.1744 0.1 0.298261 0.00157766
1.20938 0.1 -0.0967968 0.00148797
1.20938 0.1 0.0967968 0.00146911
1.19808 0.1 -0.195288 0.00153686
1.19808 0.1 0.195288 0.00150044
0.350249 0.1 1.1625 0.0108667
0.350249 0.1 -1.1625 0.0115954
0.67013 0.1 1.0125 0.00600398
0.67013 0.1 -1.0125 0.00638234
0 0.1 1.21799 0.00525099
0 0.1 -1.21799 0.00542642
0.0363518 0.1 -1.21799 0.00854138
0.0363518 0.1 1.21799 0.00783076
1.11928 0.1 -0.48325 0.00196101
1.11928 0.1 0.48325 0.00181265
1.10076 0.1 -0.524714 0.00205934
1.10076 0.1 0.524714 0.00189666
1.20938 0.1 0.161328 0.00147379
1.20938 0.1 -0.161328 0.00150337
1.08012 0.1 0.567953 0.00199535
1.08012 0.1 -0.567953 0.00219679
0.623803 0.1 1.05 0.00670417
0.623803 0.1 -1.05 0.00698888
1.0579 0.1 -0.612892 0.00235623
1.0579 0.1 0.612892 0.00211474
1.15704 0.1 -0.402888 0.00176433
1.15704 0.1 0.402888 0.00165756
1.14316 0.1 0.440974 0.00171149
1.14316 0.1 -0.440974 0.00183947
1.19808 0.1 -0.260384 0.00156269
1.19808 0.1 0.260384 0.00151223
1.2267 0.1 3.57064e-18 0.00143723
1.2267 0.1 -0.0636649 0.00144642
1.2267 0.1 0.0636649 0.00143441
1.1744 0.1 -0.364541 0.00168635
1.1744 0.1 0.364541 0.00159991
0.574156 0.1 1.0875 0.00741562
0.574156 0.1 -1.0875 0.00758567
1.20938 0.1 0.225859 0.00148291
1.20938 0.1 -0.225859 0.00152379
1.04168 0.1 -0.656246 0.0025383
1.04168 0.1 0.656246 0.00226605
1.2267 0.1 -0.12733 0.00146068
1.2267 0.1 0.12733 0.00143598
0.287374 0.1 1.2 0.0115471
0.287374 0.1 -1.2 0.0131445
1.02149 0.1 -0.702294 0.00277474
1.02149 0.1 0.702294 0.00245809
0.075776 0.1 -1.2375 0.0119026
0.075776 0.1 1.2375 0.0106337
0.871399 0.1 0.88201 0.00369763
0.522865 0.1 1.125 0.00821518
0.522865 0.1 -1.125 0.00836429
1.2267 0.1 -0.190994 0.00147767
1.2267 0.1 0.190994 0.00144211
1.19808 0.1 -0.32548 0.00159821
1.19808 0.1 0.32548 0.00152913
0.990306 0.1 -0.75 0.00309668
0.990306 0.1 0.75 0.00272366
1.24274 0.1 -0.0314313 0.00140737
1.24274 0.1 0.0314313 0.00140258
1.20938 0.1 -0.29039 0.00155249
1.20938 0.1 0.29039 0.00149631
1.24274 0.1 -0.0942942 0.0014206
1.24274 0.1 0.0942942 0.00140139
0.93886 0.1 0.821002 0.00312275
1.11928 0.1 -0.552285 0.00204304
1.11928 0.1 0.552285 0.00186567
1.15704 0.1 -0.470036 0.00182481
1.15704 0.1 0.470036 0.0016929
0.969689 0.1 -0.7875 0.00328988
0.96969 0.1 0.7875 0.0028891
0.93886 0.1 -0.825 0.0035724
0.90582 0.1 0.8625 0.00340073
0.905821 0.1 -0.8625 0.00387625
1.1744 0.1 -0.430821 0.00173945
1.1744 0.1 0.430821 0.0016283
1.10076 0.1 -0.594676 0.00216483
1.10076 0.1 0.594676 0.00195788
1.14316 0.1 -0.508816 0.00190395
1.14316 0.1 0.508816 0.00175439
1.24274 0.1 -0.157157 0.00143501
1.24274 0.1 0.157157 0.00140485
1.2267 0.1 -0.254659 0.00150038
1.2267 0.1 0.254659 0.00145247
0.467897 0.1 1.1625 0.00905899
0.467897 0.1 -1.1625 0.00916836
1.08012 0.1 0.638947 0.00207062
1.08012 0.1 -0.638947 0.00231819
1.25511 0.1 -5.78241e-19 0.00138113
0.835106 0.1 -0.9375 0.00461362
0.835106 0.1 0.9375 0.00413435
0.871687 0.1 -0.903998 0.00419605
1.25511 0.1 0.0622446 0.00137748
1.25511 0.1 -0.0622446 0.0013906
0.219992 0.1 1.2375 0.0122785
0.219992 0.1 -1.2375 0.0147298
0 0.1 -1.25701 0.00542348
0 0.1 1.25701 0.0052665
0.0363518 0.1 -1.25701 0.00853844
0.0363518 0.1 1.25701 0.00784627
0.797314 0.1 0.975 0.00461855
0.797314 0.1 -0.975 0.00508102
1.19808 0.1 -0.390576 0.00164242
1.19808 0.1 0.390576 0.00155182
1.0579 0.1 -0.684997 0.00249693
1.0579 0.1 0.684997 0.00220685
1.20938 0.1 -0.354921 0.00159109
1.20938 0.1 0.354921 0.00151508
1.25511 0.1 0.124489 0.00137786
1.25511 0.1 -0.124489 0.00140466
1.24274 0.1 -0.220019 0.00145274
1.24274 0.1 0.220019 0.00141239
0.756813 0.1 1.0125 0.00510972
0.756814 0.1 -1.0125 0.00556576
1.2267 0.1 -0.318324 0.00153137
1.2267 0.1 0.318324 0.00146737
0.411108 0.1 1.2 0.00995103
0.411108 0.1 -1.2 0.0103758
1.25511 0.1 -0.186734 0.00142061
1.25511 0.1 0.186734 0.0013826
0.714971 0.1 1.05 0.00566661
0.714971 0.1 -1.05 0.00606087
1.04168 0.1 -0.729162 0.00270898
1.04168 0.1 0.729162 0.00236896
1.24274 0.1 0.282882 0.00142402
1.24274 0.1 -0.282882 0.00147694
0 0.1 1.275 0.00527538
0 0.1 -1.275 0.00542361
1.1744 0.1 0.497102 0.0016641
1.1744 0.1 -0.497102 0.00180024
1.15704 0.1 -0.537184 0.00189588
1.15704 0.1 0.537184 0.00173737
1.2756 0.1 -0.03061 0.00134337
1.2756 0.1 0.03061 0.00133715
0.67013 0.1 1.0875 0.00625018
0.67013 0.1 -1.0875 0.00654452
1.2756 0.1 -0.09183 0.00135653
1.2756 0.1 0.09183 0.0013343
1.25511 0.1 -0.248978 0.00144084
1.25511 0.1 0.248978 0.00139147
1.20938 0.1 0.419453 0.00153957
1.20938 0.1 -0.419453 0.00163655
1.11928 0.1 -0.621322 0.00215025
1.11928 0.1 0.621322 0.00192971
1.14316 0.1 -0.576659 0.00199154
1.14316 0.1 0.576659 0.00180634
1.19808 0.1 -0.455673 0.00169868
1.19808 0.1 0.455673 0.0015804
1.02149 0.1 0.776219 0.00257431
1.02149 0.1 -0.776219 0.00297722
0.150379 0.1 1.275 0.0115272
0.150379 0.1 -1.275 0.0133227
1.2756 0.1 -0.15305 0.00137142
1.2756 0.1 0.15305 0.00133592