# pMean  POINT_DATA 63840
# x  y  z  pMean
0 0.5 3.39583e-17 0.166997
0 0.5 -0.00617931 0.167168
0 0.5 0.00617931 0.16683
0.0124865 0.5 -0.00617931 0.167168
0.0124865 0.5 0.00617931 0.16683
0 0.5 -0.0688207 0.168653
0 0.5 0.0688207 0.164923
0.0124865 0.5 -0.0688207 0.168653
0.0124865 0.5 0.0688207 0.164923
0 0.5 -0.075 0.168776
0 0.5 0.075 0.164713
0 0.5 -0.0811793 0.168903
0 0.5 0.0811793 0.164506
0.0124865 0.5 -0.0811793 0.168903
0.0124865 0.5 0.0811793 0.164506
0.075776 0.5 -0.0375 0.168029
0.075776 0.5 0.0375 0.165984
0.075776 0.5 -0.1125 0.169542
0.075776 0.5 0.1125 0.16346
0 0.5 -0.143821 0.16995
0 0.5 0.143821 0.162204
0.0124865 0.5 -0.143821 0.16995
0.0124865 0.5 0.143821 0.162204
0 0.5 -0.15 0.17003
0 0.5 0.15 0.161955
0.151149 0.5 -0.00137318 0.167095
0 0.5 -0.156179 0.170113
0 0.5 0.156179 0.16171
0.0124865 0.5 -0.156179 0.170113
0.0124865 0.5 0.156179 0.16171
0.151149 0.5 0.075 0.16487
0.151149 0.5 -0.075 0.168966
0.075776 0.5 -0.1875 0.170536
0.075776 0.5 0.1875 0.160468
0.151149 0.5 0.15 0.162089
0.151149 0.5 -0.15 0.170242
0 0.5 -0.218821 0.170746
0 0.5 0.218821 0.159031
0.0124865 0.5 -0.218821 0.170746
0.0124865 0.5 0.218821 0.159031
0.219992 0.5 0.0375 0.166298
0.219993 0.5 -0.0375 0.168359
0 0.5 -0.225 0.170787
0 0.5 0.225 0.158747
0 0.5 -0.231179 0.170832
0 0.5 0.231179 0.158465
0.0124865 0.5 -0.231179 0.170832
0.0124865 0.5 0.231179 0.158465
0.219992 0.5 0.1125 0.163746
0.219993 0.5 -0.1125 0.169938
0.151149 0.5 -0.225 0.171008
0.151149 0.5 0.225 0.158849
0.075776 0.5 -0.2625 0.171057
0.075776 0.5 0.2625 0.157043
0.288069 0.5 -0.00137318 0.169983
0.219992 0.5 0.1875 0.160692
0.219993 0.5 -0.1875 0.170954
0 0.5 0.293821 0.155441
0 0.5 -0.293821 0.171047
0.0124865 0.5 -0.293821 0.171047
0.0124865 0.5 0.293821 0.155441
0.288069 0.5 -0.075 0.171958
0.288069 0.5 0.075 0.167659
0 0.5 -0.3 0.171045
0 0.5 0.3 0.155124
0 0.5 0.306179 0.15481
0 0.5 -0.306179 0.171046
0.0124865 0.5 -0.306179 0.171046
0.0124865 0.5 0.306179 0.15481
0.288069 0.5 -0.15 0.173276
0.288069 0.5 0.15 0.164725
0.151149 0.5 -0.3 0.17127
0.151149 0.5 0.3 0.155196
0.219992 0.5 -0.2625 0.171486
0.219992 0.5 0.2625 0.15721
0.075776 0.5 0.3375 0.153222
0.075776 0.5 -0.3375 0.171051
0.350249 0.5 -0.0375 0.17379
0.350249 0.5 0.0375 0.171547
0.288069 0.5 -0.225 0.17404
0.288069 0.5 0.225 0.161301
0.350249 0.5 0.1125 0.168747
0.350249 0.5 -0.1125 0.175427
0 0.5 0.368821 0.151472
0 0.5 -0.368821 0.170827
0.0124865 0.5 -0.368821 0.170827
0.0124865 0.5 0.368821 0.151472
0 0.5 -0.375 0.170782
0 0.5 0.375 0.151126
0 0.5 -0.381179 0.17074
0 0.5 0.381179 0.150782
0.0124865 0.5 -0.381179 0.17074
0.0124865 0.5 0.381179 0.150782
0.350249 0.5 -0.1875 0.176465
0.350249 0.5 0.1875 0.165431
0.219992 0.5 -0.3375 0.171486
0.219992 0.5 0.3375 0.153328
0.151149 0.5 -0.375 0.170999
0.151149 0.5 0.375 0.151164
0.411736 0.5 -0.00137318 0.176121
0.288069 0.5 -0.3 0.174254
0.288069 0.5 0.3 0.157433
0.411736 0.5 -0.075 0.17823
0.411736 0.5 0.075 0.173601
0.075776 0.5 -0.4125 0.170531
0.075776 0.5 0.4125 0.149046
0.350249 0.5 -0.2625 0.176933
0.350249 0.5 0.2625 0.161608
0.411736 0.5 -0.15 0.179595
0.411736 0.5 0.15 0.170391
0 0.5 -0.443821 0.170112
0 0.5 0.443821 0.147166
0.0124865 0.5 -0.443821 0.170112
0.0124865 0.5 0.443821 0.147166
0 0.5 -0.45 0.170029
0 0.5 0.45 0.146795
0 0.5 -0.456179 0.169948
0 0.5 0.456179 0.146425
0.0124865 0.5 -0.456179 0.169948
0.0124865 0.5 0.456179 0.146425
0.219992 0.5 -0.4125 0.170931
0.219993 0.5 0.4125 0.149081
0.411736 0.5 -0.225 0.180332
0.411736 0.5 0.225 0.166632
0.467897 0.5 0.0375 0.178389
0.467897 0.5 -0.0375 0.180789
0.288069 0.5 -0.375 0.173897
0.288069 0.5 0.375 0.153163
0.151149 0.5 -0.45 0.170227
0.151149 0.5 0.45 0.146794
0.467897 0.5 -0.1125 0.182522
0.467897 0.5 0.1125 0.175346
0.350249 0.5 0.3375 0.157343
0.350249 0.5 -0.3375 0.176798
0.075776 0.5 -0.4875 0.169544
0.075776 0.5 0.4875 0.144558
0.467897 0.5 -0.1875 0.183572
0.467897 0.5 0.1875 0.171684
0.411736 0.5 -0.3 0.180439
0.411736 0.5 0.3 0.162372
0 0.5 -0.518821 0.168936
0 0.5 0.518821 0.142568
0.0124865 0.5 0.518821 0.142568
0.0124865 0.5 -0.518821 0.168936
0.523432 0.5 -0.00137318 0.183678
0 0.5 -0.525 0.168815
0 0.5 0.525 0.142174
0.523432 0.5 -0.075 0.185944
0.523432 0.5 0.075 0.18094
0 0.5 -0.531179 0.168697
0 0.5 0.531179 0.141782
0.0124865 0.5 -0.531179 0.168697
0.0124865 0.5 0.531179 0.141782
0.288069 0.5 -0.45 0.173002
0.288069 0.5 0.45 0.148539
0.219992 0.5 -0.4875 0.169906
0.219993 0.5 0.4875 0.144517
0.467897 0.5 -0.2625 0.183963
0.467897 0.5 0.2625 0.167468
0.350249 0.5 -0.4125 0.176067
0.350249 0.5 0.4125 0.152684
0.523432 0.5 -0.15 0.18737
0.523432 0.5 0.15 0.177414
0.151149 0.5 -0.525 0.168991
0.151149 0.5 0.525 0.142133
0.411736 0.5 -0.375 0.179908
0.411736 0.5 0.375 0.157667
0.075776 0.5 -0.5625 0.168104
0.075776 0.5 0.5625 0.139805
0.523432 0.5 -0.225 0.188073
0.523432 0.5 0.225 0.173261
0.574156 0.5 -0.0375 0.18909
0.574156 0.5 0.0375 0.186477
0.467897 0.5 0.3375 0.162758
0.467897 0.5 -0.3375 0.183672
0.574156 0.5 -0.1125 0.190938
0.574156 0.5 0.1125 0.183134
0 0.5 -0.593821 0.167323
0 0.5 0.593821 0.137722
0.0124865 0.5 -0.593821 0.167323
0.0124865 0.5 0.593821 0.137722
0.288069 0.5 -0.525 0.171615
0.288069 0.5 0.525 0.143612
0 0.5 -0.6 0.167168
0 0.5 0.6 0.13731
0.350249 0.5 -0.4875 0.174811
0.350249 0.5 0.4875 0.147684
0.523432 0.5 -0.3 0.188055
0.523432 0.5 0.3 0.168542
0.219992 0.5 -0.5625 0.168418
0.219992 0.5 0.5625 0.139683
0.574156 0.5 -0.1875 0.192007
0.574156 0.5 0.1875 0.179098
0 0.5 -0.606179 0.167016
0 0.5 0.606179 0.1369
0.0124865 0.5 -0.606179 0.167016
0.0124865 0.5 0.606179 0.1369
0.411736 0.5 -0.45 0.178781
0.411736 0.5 0.45 0.15257
0.151149 0.5 -0.6 0.167317
0.151149 0.5 0.6 0.137228
0.62168 0.5 2.64545e-17 0.192124
0.467897 0.5 0.4125 0.157598
0.467897 0.5 -0.4125 0.182716
0.624316 0.5 0.0729402 0.18939
0.624316 0.5 -0.075 0.194854
0.574156 0.5 -0.2625 0.192311
0.574157 0.5 0.2625 0.174422
0.075776 0.5 -0.6375 0.166249
0.075776 0.5 0.6375 0.134831
0.624316 0.5 -0.15 0.196353
0.624316 0.5 0.15 0.185493
0.523432 0.5 -0.375 0.187319
0.523432 0.5 0.375 0.163319
0.350249 0.5 -0.5625 0.17305
0.350249 0.5 0.5625 0.142401
0.624316 0.5 -0.225 0.197019
0.624316 0.5 0.225 0.180882
0.288069 0.5 0.6 0.138435
0.288069 0.5 -0.6 0.169766
0.574156 0.5 -0.3375 0.19184
0.574156 0.5 0.3375 0.169174
0.411736 0.5 -0.525 0.177107
0.411736 0.5 0.525 0.147145
0 0.5 -0.668821 0.165309
0 0.5 0.668821 0.132677
0.0124865 0.5 -0.668821 0.165309
0.0124865 0.5 0.668821 0.132677
0.67013 0.5 0.0375 0.195611
0.67013 0.5 -0.0375 0.198474
0.219993 0.5 -0.6375 0.166507
0.219993 0.5 0.6375 0.134627
0 0.5 -0.675 0.165123
0 0.5 0.675 0.132251
0.467897 0.5 0.4875 0.15206
0.467897 0.5 -0.4875 0.181168
0.67013 0.5 -0.1125 0.200458
0.67013 0.5 0.1125 0.191908
0 0.5 -0.681179 0.164939
0 0.5 0.681179 0.131827
0.0124865 0.5 -0.681179 0.164939
0.0124865 0.5 0.681179 0.131827
0.523432 0.5 -0.45 0.185915
0.523432 0.5 0.45 0.157661
0.151149 0.5 -0.675 0.165242
0.151149 0.5 0.675 0.132125
0.624316 0.5 -0.3 0.196856
0.624316 0.5 0.3 0.175624
0.67013 0.5 0.1875 0.18742
0.67013 0.5 -0.1875 0.20155
0.574156 0.5 -0.4125 0.190629
0.574157 0.5 0.4125 0.163432
0.708171 0.5 1.88651e-17 0.201072
0.075776 0.5 -0.7125 0.164013
0.075776 0.5 0.7125 0.129685
0.715434 0.5 0.0736268 0.198482
0.715434 0.5 -0.075 0.204671
0.67013 0.5 0.2625 0.182202
0.67013 0.5 -0.2625 0.201751
0.350249 0.5 -0.6375 0.17083
0.350249 0.5 0.6375 0.136892
0.411736 0.5 -0.6 0.174925
0.411736 0.5 0.6 0.141456
0.624316 0.5 -0.375 0.195885
0.624316 0.5 0.375 0.169799
0.715434 0.5 -0.15 0.206252
0.715434 0.5 0.15 0.194346
0.467897 0.5 -0.5625 0.179057
0.467897 0.5 0.5625 0.146214
0.288069 0.5 -0.675 0.167495
0.288069 0.5 0.675 0.13306
0.523432 0.5 -0.525 0.183894
0.523432 0.5 0.525 0.151644
0 0.5 -0.743821 0.16293
0 0.5 0.743821 0.127479
0.0124865 0.5 -0.743821 0.16293
0.0124865 0.5 0.743821 0.127479
0.219992 0.5 0.7125 0.129398
0.219992 0.5 -0.7125 0.16421
0.715434 0.5 -0.225 0.206876
0.715434 0.5 0.225 0.189205
0 0.5 -0.75 0.162716
0 0.5 0.75 0.127042
0.67013 0.5 0.3375 0.176341
0.67013 0.5 -0.3375 0.201072
0.574156 0.5 -0.4875 0.188742
0.574156 0.5 0.4875 0.157272
0 0.5 -0.756179 0.162504
0 0.5 0.756179 0.126607
0.0124865 0.5 -0.756179 0.162504
0.0124865 0.5 0.756179 0.126607
0.756813 0.5 -0.0375 0.208585
0.756813 0.5 0.0375 0.205439
0.151149 0.5 -0.75 0.162802
0.151149 0.5 0.75 0.126873
0.756813 0.5 -0.1125 0.210718
0.756813 0.5 0.1125 0.20133
0.624316 0.5 -0.45 0.194157
0.624316 0.5 0.45 0.163491
0.715434 0.5 -0.3 0.206552
0.715434 0.5 0.3 0.18333
0.756813 0.5 0.1875 0.196326
0.756813 0.5 -0.1875 0.21183
0.67013 0.5 -0.4125 0.199561
0.67013 0.5 0.4125 0.169925
0.411736 0.5 -0.675 0.172284
0.411736 0.5 0.675 0.135568
0.467897 0.5 0.6375 0.14013
0.467897 0.5 -0.6375 0.17644
0.075776 0.5 -0.7875 0.161435
0.075776 0.5 0.7875 0.124413
0.350249 0.5 -0.7125 0.168195
0.350249 0.5 0.7125 0.131217
0.523432 0.5 -0.6 0.181309
0.523432 0.5 0.6 0.145344
0.797732 0.5 2.68882e-17 0.212291
0.756813 0.5 -0.2625 0.211924
0.756814 0.5 0.2625 0.190497
0.797732 0.5 0.0736268 0.208282
0.797732 0.5 -0.075 0.215055
0.288069 0.5 -0.75 0.164846
0.288069 0.5 0.75 0.127542
0.574156 0.5 -0.5625 0.186226
0.574157 0.5 0.5625 0.15078
0.715434 0.5 -0.375 0.20531
0.715434 0.5 0.375 0.176821
0.797732 0.5 -0.15 0.216727
0.797732 0.5 0.15 0.20365
0.624316 0.5 -0.525 0.191731
0.624316 0.5 0.525 0.156791
0.219992 0.5 -0.7875 0.161564
0.219992 0.5 0.7875 0.124041
0 0.5 -0.818821 0.160225
0 0.5 0.818821 0.122172
0.0124865 0.5 0.818821 0.122172
0.0124865 0.5 -0.818821 0.160225
0 0.5 -0.825 0.159986
0 0.5 0.825 0.121729
0.756813 0.5 0.3375 0.183938
0.756814 0.5 -0.3375 0.211019
0.67013 0.5 -0.4875 0.197274
0.67013 0.5 0.4875 0.163046
0.797732 0.5 -0.225 0.217313
0.797732 0.5 0.225 0.197917
0 0.5 -0.831179 0.159749
0 0.5 0.831179 0.121288
0.0124865 0.5 -0.831179 0.159749
0.0124865 0.5 0.831179 0.121288
0.835106 0.5 0.0375 0.215635
0.835106 0.5 -0.0375 0.2191
0.151149 0.5 -0.825 0.160036
0.151149 0.5 0.825 0.121517
0.835106 0.5 0.1125 0.211074
0.835106 0.5 -0.1125 0.221401
0.715434 0.5 -0.45 0.203204
0.715434 0.5 0.45 0.169778
0.797732 0.5 -0.3 0.216821
0.797732 0.5 0.3 0.191358
0.467897 0.5 0.7125 0.133877
0.467897 0.5 -0.7125 0.173373
0.523432 0.5 -0.675 0.178221
0.523432 0.5 0.675 0.138839
0.411736 0.5 -0.75 0.169238
0.411736 0.5 0.75 0.129542
0.835106 0.5 -0.1875 0.222537
0.835106 0.5 0.1875 0.2055
0.574156 0.5 -0.6375 0.18315
0.574157 0.5 0.6375 0.144039
0.350249 0.5 -0.7875 0.165195
0.350249 0.5 0.7875 0.125431
0.756813 0.5 -0.4125 0.20916
0.756814 0.5 0.4125 0.176769
0.075776 0.5 -0.8625 0.158553
0.075776 0.5 0.8625 0.119059
0.624316 0.5 0.6 0.149793
0.624316 0.5 -0.6 0.188675
0.872064 0.5 5.91974e-17 0.22278
0.870122 0.5 0.075 0.21804
0.288069 0.5 -0.825 0.161861
0.288069 0.5 0.825 0.12193
0.67013 0.5 -0.5625 0.194281
0.67013 0.5 0.5625 0.155812
0.872064 0.5 -0.075 0.225794
0.835106 0.5 -0.2625 0.22254
0.835106 0.5 0.2625 0.199
0.797732 0.5 -0.375 0.215277
0.797732 0.5 0.375 0.18409
0.872064 0.5 0.14794 0.21321
0.872064 0.5 -0.15 0.227557
0.715434 0.5 -0.525 0.200308
0.715434 0.5 0.525 0.162307
0.219992 0.5 0.8625 0.118604
0.219993 0.5 -0.8625 0.158612
0 0.5 -0.893821 0.157233
0 0.5 0.893821 0.116805
0.0124865 0.5 -0.893821 0.157233
0.0124865 0.5 0.893821 0.116805
0 0.5 -0.9 0.156972
0 0.5 0.9 0.116359
0.756813 0.5 -0.4875 0.206412
0.756813 0.5 0.4875 0.169096
0.872064 0.5 -0.225 0.228109
0.872064 0.5 0.225 0.206832
0.835106 0.5 -0.3375 0.221387
0.835106 0.5 0.3375 0.191682
0 0.5 0.906179 0.115915
0 0.5 -0.906179 0.156713
0.0124865 0.5 -0.906179 0.156713
0.0124865 0.5 0.906179 0.115915
0.90582 0.5 -0.0375 0.229914
0.90582 0.5 0.0375 0.226103
0.151149 0.5 -0.9 0.156985
0.151149 0.5 0.9 0.116106
0.90582 0.5 -0.1125 0.232385
0.905821 0.5 0.1125 0.221059
0.523432 0.5 -0.75 0.174695
0.523432 0.5 0.75 0.132204
0.574156 0.5 -0.7125 0.179584
0.574156 0.5 0.7125 0.137134
0.797732 0.5 -0.45 0.21275
0.797732 0.5 0.45 0.176239
0.467897 0.5 0.7875 0.127522
0.467897 0.5 -0.7875 0.169916
0.624316 0.5 -0.675 0.185066
0.624316 0.5 0.675 0.142589
0.411736 0.5 -0.825 0.165841
0.411736 0.5 0.825 0.123439
0.872064 0.5 0.3 0.199531
0.872064 0.5 -0.3 0.227442
0.67013 0.5 -0.6375 0.190668
0.67013 0.5 0.6375 0.148324
0.90582 0.5 0.1875 0.214873
0.905821 0.5 -0.1875 0.233525
0.350249 0.5 -0.8625 0.161878
0.350249 0.5 0.8625 0.119588
0.835106 0.5 -0.4125 0.219145
0.835106 0.5 0.4125 0.18369
0.715434 0.5 -0.6 0.19671
0.715434 0.5 0.6 0.154524
0.939201 0.5 2.75387e-17 0.23327
0.075776 0.5 0.9375 0.113672
0.075776 0.5 -0.9375 0.155406
0.939111 0.5 0.075 0.228165
0.939201 0.5 -0.075 0.23657
0.756813 0.5 0.5625 0.161036
0.756814 0.5 -0.5625 0.202877
0.90582 0.5 0.2625 0.207647
0.905821 0.5 -0.2625 0.233454
0.288069 0.5 -0.9 0.158587
0.288069 0.5 0.9 0.116276
0.872064 0.5 -0.375 0.225562
0.872064 0.5 0.375 0.191441
0.939201 0.5 0.148627 0.222555
0.939201 0.5 -0.15 0.238428
0.797732 0.5 -0.525 0.209331
0.797732 0.5 0.525 0.167927
0.219992 0.5 0.9375 0.113144
0.219992 0.5 -0.9375 0.155393
0.939201 0.5 -0.225 0.23896
0.939201 0.5 0.225 0.215622
0.905821 0.5 -0.3375 0.232015
0.90582 0.5 0.3375 0.199516
0.835106 0.5 -0.4875 0.2159
0.835106 0.5 0.4875 0.175156
0 0.5 0.968821 0.111422
0 0.5 -0.968821 0.153992
0.0124865 0.5 -0.968821 0.153992
0.0124865 0.5 0.968821 0.111422
0.969689 0.5 -0.0375 0.240486
0.969689 0.5 0.0375 0.23627
0.574156 0.5 -0.7875 0.175601
0.574156 0.5 0.7875 0.130142
0 0.5 -0.975 0.153712
0 0.5 0.975 0.110977
0.624316 0.5 -0.75 0.180986
0.624316 0.5 0.75 0.135268
0.969689 0.5 -0.1125 0.243178
0.96969 0.5 0.1125 0.230696
0.523432 0.5 -0.825 0.1708
0.523432 0.5 0.825 0.12551
0.67013 0.5 0.7125 0.14068
0.67013 0.5 -0.7125 0.186518
0 0.5 -0.981179 0.153434
0 0.5 0.981179 0.110533
0.467897 0.5 0.8625 0.121129
0.467897 0.5 -0.8625 0.166128
0.0124865 0.5 -0.981179 0.153434
0.0124865 0.5 0.981179 0.110533
0.872064 0.5 -0.45 0.222571
0.872064 0.5 0.45 0.182716
0.715434 0.5 -0.675 0.192504
0.715434 0.5 0.675 0.14654
0.939201 0.5 -0.3 0.238139
0.939201 0.5 0.3 0.207534
0.151149 0.5 0.975 0.110686
0.151149 0.5 -0.975 0.153687
0.969689 0.5 -0.1875 0.244304
0.969689 0.5 0.1875 0.223854
0.756813 0.5 -0.6375 0.198653
0.756813 0.5 0.6375 0.152724
0.411736 0.5 -0.9 0.162146
0.411736 0.5 0.9 0.117317
0.90582 0.5 -0.4125 0.229342
0.90582 0.5 0.4125 0.190628
0.995005 0.5 0.0749309 0.237027
0.797732 0.5 -0.6 0.205131
0.797732 0.5 0.6 0.159293
1.00005 0.5 -8.47123e-18 0.243488
0.350249 0.5 -0.9375 0.158292
0.350249 0.5 0.9375 0.113738
1.00005 0.5 -0.0749309 0.247082
0.969689 0.5 -0.2625 0.244234
0.969689 0.5 0.2625 0.215862
0.835106 0.5 -0.5625 0.211775
0.835106 0.5 0.5625 0.166211
1.00005 0.5 -0.149862 0.248975
0.939201 0.5 -0.375 0.235912
0.939201 0.5 0.375 0.19858
1.00029 0.5 0.148988 0.231648
0.075776 0.5 -1.0125 0.152033
0.075776 0.5 1.0125 0.108293
0.288069 0.5 0.975 0.110628
0.288069 0.5 -0.975 0.155067
0.872064 0.5 -0.525 0.218582
0.872064 0.5 0.525 0.173505
1.00005 0.5 0.224793 0.224055
1.00005 0.5 -0.224793 0.249477
0.969689 0.5 0.3375 0.206885
0.96969 0.5 -0.3375 0.242531
1.0271 0.5 -0.0368226 0.250939
1.0271 0.5 0.0368226 0.246389
0.90582 0.5 0.4875 0.181174
0.905821 0.5 -0.4875 0.225554
1.0271 0.5 -0.110468 0.253786
1.0271 0.5 0.110468 0.239382
0.67013 0.5 0.7875 0.132973
0.67013 0.5 -0.7875 0.181927
0.624316 0.5 0.825 0.127912
0.624316 0.5 -0.825 0.176518
0.219993 0.5 -1.0125 0.151947
0.219993 0.5 1.0125 0.107692
0.574156 0.5 -0.8625 0.171276
0.574156 0.5 0.8625 0.123138
0.715434 0.5 -0.75 0.187792
0.715434 0.5 0.75 0.138458
0.756813 0.5 0.7125 0.14427
0.756814 0.5 -0.7125 0.193846
0.523432 0.5 -0.9 0.166601
0.523432 0.5 0.9 0.118822
0.939201 0.5 -0.45 0.232439
0.939201 0.5 0.45 0.188938
1.04168 0.5 0 0.251737
1.0271 0.5 -0.184113 0.254809
1.0271 0.5 0.184113 0.232947
0 0.5 -1.04382 0.15054
0 0.5 1.04382 0.106063
0.0124865 0.5 -1.04382 0.15054
0.0124865 0.5 1.04382 0.106063
1.00005 0.5 -0.299723 0.248513
1.00005 0.5 0.299723 0.215129
1.04168 0.5 -0.0729162 0.255526
1.04168 0.5 0.0729162 0.246378
0.797732 0.5 -0.675 0.200265
0.797732 0.5 0.675 0.150472
0.467897 0.5 0.9375 0.114755
0.467897 0.5 -0.9375 0.162069
0 0.5 -1.05 0.150244
0 0.5 1.05 0.105622
0.835106 0.5 -0.6375 0.206887
0.835106 0.5 0.6375 0.157027
1.04168 0.5 -0.145832 0.257474
1.04168 0.5 0.145832 0.239588
0.969689 0.5 -0.4125 0.23945
0.96969 0.5 0.4125 0.197094
0 0.5 -1.05618 0.149951
0 0.5 1.05618 0.105182
0.0124865 0.5 -1.05618 0.149951
0.0124865 0.5 1.05618 0.105182
1.05695 0.5 -0.0360764 0.25712
1.05695 0.5 0.0360764 0.252434
0.411736 0.5 -0.975 0.158208
0.411736 0.5 0.975 0.111228
0.872064 0.5 -0.6 0.213725
0.872064 0.5 0.6 0.163963
1.0271 0.5 -0.257759 0.254781
1.0271 0.5 0.257759 0.224268
0.151149 0.5 -1.05 0.150182
0.151149 0.5 1.05 0.10529
1.05695 0.5 0.108229 0.246731
1.05695 0.5 -0.108229 0.26012
1.04168 0.5 -0.218749 0.257981
1.04168 0.5 0.218749 0.23146
0.90582 0.5 -0.5625 0.220779
0.905821 0.5 0.5625 0.171297
1.00005 0.5 -0.374654 0.245892
1.00005 0.5 0.374654 0.205256
0.350249 0.5 1.0125 0.107929
0.350249 0.5 -1.0125 0.154486
1.05695 0.5 -0.180382 0.261118
1.05695 0.5 0.180382 0.238748
1.07319 0.5 0.0709442 0.251513
0.939201 0.5 -0.525 0.227851
0.939201 0.5 0.525 0.178785
1.0271 0.5 -0.331404 0.252855
1.0271 0.5 0.331404 0.214515
1.08112 0.5 3.23815e-17 0.259929
1.04168 0.5 -0.291665 0.257061
1.04168 0.5 0.291665 0.222159
1.08112 0.5 -0.0709442 0.263908
0.969689 0.5 -0.4875 0.235117
0.96969 0.5 0.4875 0.186691
1.05695 0.5 0.252535 0.229929
1.05695 0.5 -0.252535 0.261147
0.288069 0.5 -1.05 0.151344
0.288069 0.5 1.05 0.10502
0.075776 0.5 -1.0875 0.14847
0.075776 0.5 1.0875 0.102961
1.08112 0.5 -0.141888 0.265991
1.08145 0.5 0.140165 0.247033
0.715434 0.5 0.825 0.130373
0.715434 0.5 -0.825 0.182673
0.756813 0.5 0.7875 0.135781
0.756814 0.5 -0.7875 0.188573
0.67013 0.5 -0.8625 0.176982
0.67013 0.5 0.8625 0.125288
0.797732 0.5 -0.75 0.194854
0.797732 0.5 0.75 0.14158
0.624316 0.5 -0.9 0.171741
0.624316 0.5 0.9 0.120597
1.00005 0.5 -0.449585 0.241872
1.00005 0.5 0.449585 0.194638
0.835106 0.5 -0.7125 0.201367
0.835106 0.5 0.7125 0.147729
0.574156 0.5 -0.9375 0.16668
0.574157 0.5 0.9375 0.116188
1.10076 0.5 -0.0349809 0.266612
1.10076 0.5 0.0349809 0.261701
1.08112 0.5 -0.212832 0.266542
1.08112 0.5 0.212832 0.23909
0.872064 0.5 -0.675 0.208135
0.872064 0.5 0.675 0.154251
1.04168 0.5 -0.364581 0.254377
1.04168 0.5 0.364581 0.211876
1.0271 0.5 0.405049 0.203882
1.0271 0.5 -0.405049 0.249372
1.05695 0.5 -0.324688 0.259301
1.05695 0.5 0.324688 0.220027
1.10076 0.5 -0.104943 0.269872
1.10076 0.5 0.104943 0.255339
0.523432 0.5 0.975 0.112202
0.523432 0.5 -0.975 0.162162
0.90582 0.5 0.6375 0.161171
0.905821 0.5 -0.6375 0.215165
0.219992 0.5 1.0875 0.102274
0.219992 0.5 -1.0875 0.148312
1.11376 0.5 3.81639e-17 0.266916
0.939201 0.5 0.6 0.168308
0.939201 0.5 -0.6 0.222301
1.10076 0.5 -0.174905 0.270946
1.10076 0.5 0.174905 0.247542
0.467897 0.5 -1.0125 0.157795
0.467897 0.5 1.0125 0.108463
1.11376 0.5 -0.0693118 0.27107
1.11376 0.5 0.0693118 0.261205
1.08112 0.5 0.283777 0.229575
1.08112 0.5 -0.283777 0.265687
0 0.5 -1.11882 0.146913
0 0.5 1.11882 0.100762
0.0124865 0.5 -1.11882 0.146913
0.0124865 0.5 1.11882 0.100762
0.969689 0.5 -0.5625 0.229681
0.969689 0.5 0.5625 0.175844
1.11376 0.5 0.138624 0.253399
1.11376 0.5 -0.138624 0.273286
0 0.5 -1.125 0.146605
0 0.5 1.125 0.100328
1.10076 0.5 0.244866 0.238454
1.10076 0.5 -0.244866 0.271039
0.411736 0.5 -1.05 0.154077
0.411736 0.5 1.05 0.105225
1.05695 0.5 -0.396841 0.255867
1.05695 0.5 0.396841 0.209232
1.00005 0.5 -0.524516 0.236611
1.00005 0.5 0.524516 0.183485
1.04168 0.5 -0.437497 0.250186
1.04168 0.5 0.437497 0.200816
0 0.5 -1.13118 0.146299
0 0.5 1.13118 0.0998943
0.0124865 0.5 -1.13118 0.146299
0.0124865 0.5 1.13118 0.0998943
1.11376 0.5 -0.207935 0.273894
1.11376 0.5 0.207935 0.245497
1.0271 0.5 -0.478694 0.244497
1.0271 0.5 0.478694 0.192592
0.151149 0.5 -1.125 0.146507
0.151149 0.5 1.125 0.0999541
1.08112 0.5 -0.354722 0.263093
1.08112 0.5 0.354722 0.219059
1.13882 0.5 -0.0340295 0.274912
1.13882 0.5 0.0340295 0.269808
0.350249 0.5 -1.0875 0.150503
0.350249 0.5 1.0875 0.102198
1.13882 0.5 -0.102088 0.278337
1.13882 0.5 0.102088 0.263201
1.10076 0.5 -0.314829 0.269308
1.10076 0.5 0.314829 0.228263
0.756813 0.5 -0.8625 0.182941
0.756814 0.5 0.8625 0.127358
0.797732 0.5 -0.825 0.189023
0.797732 0.5 0.825 0.13273
1.11376 0.5 -0.277247 0.273089
1.11376 0.5 0.277247 0.235749
0.835106 0.5 0.7875 0.138435
0.835106 0.5 -0.7875 0.195355
0.715434 0.5 -0.9 0.177247
0.715434 0.5 0.9 0.122373
0.872064 0.5 -0.75 0.201969
0.872064 0.5 0.75 0.144498
1.13882 0.5 0.170147 0.255152
1.13882 0.5 -0.170147 0.279563
0.67013 0.5 -0.9375 0.171771
0.67013 0.5 0.9375 0.117701
0.905821 0.5 -0.7125 0.208855
0.905821 0.5 0.7125 0.150964
1.05695 0.5 0.468994 0.197764
1.05695 0.5 -0.468994 0.250936
0.939201 0.5 -0.675 0.21596
0.939201 0.5 0.675 0.157706
0.624316 0.5 0.975 0.113391
0.624316 0.5 -0.975 0.166732
1.04168 0.5 -0.510414 0.244677
1.04168 0.5 0.510414 0.189206
0.969689 0.5 -0.6375 0.223329
0.96969 0.5 0.6375 0.164816
0.288069 0.5 -1.125 0.147459
0.288069 0.5 1.125 0.0994879
1.16179 0.5 5.78241e-19 0.277809
1.08112 0.5 0.425666 0.207745
1.08112 0.5 -0.425666 0.258913
1.13882 0.5 -0.238206 0.279667
1.13882 0.5 0.238206 0.245771
1.16179 0.5 0.0669104 0.27231
1.16179 0.5 -0.0669104 0.282217
0.574156 0.5 -1.0125 0.161881
0.574156 0.5 1.0125 0.109354
0.075776 0.5 -1.1625 0.144754
0.075776 0.5 1.1625 0.0977052
1.00005 0.5 -0.599447 0.230301
1.00005 0.5 0.599447 0.172018
1.10076 0.5 0.384791 0.217155
1.10076 0.5 -0.384791 0.265936
1.0271 0.5 -0.55234 0.238431
1.0271 0.5 0.55234 0.180872
1.11376 0.5 -0.346559 0.270541
1.11376 0.5 0.346559 0.224979
1.16179 0.5 -0.133821 0.28462
1.16179 0.5 0.133821 0.26431
0.523432 0.5 -1.05 0.157543
0.523432 0.5 1.05 0.105709
1.17463 0.5 -0.0331343 0.28324
1.17463 0.5 0.0331343 0.277929
1.17463 0.5 -0.0994029 0.286893
1.17463 0.5 0.0994029 0.271105
1.16179 0.5 -0.200731 0.285326
1.16179 0.5 0.200731 0.255425
1.13882 0.5 -0.306265 0.277977
1.13882 0.5 0.306265 0.235254
0.219992 0.5 -1.1625 0.144526
0.219992 0.5 1.1625 0.0969425
0.467897 0.5 -1.0875 0.15336
0.467897 0.5 1.0875 0.102306
1.17463 0.5 0.165672 0.262773
1.17463 0.5 -0.165672 0.288168
1.05695 0.5 -0.541147 0.244808
1.05695 0.5 0.541147 0.185852
1.18772 0.5 -5.78241e-19 0.283727
1.11376 0.5 -0.41587 0.266355
1.11376 0.5 0.41587 0.21339
1.18772 0.5 -0.065614 0.288287
1.18772 0.5 0.065614 0.277124
1.08112 0.5 -0.49661 0.253346
1.08112 0.5 0.49661 0.195857
1.10076 0.5 -0.454752 0.260973
1.10076 0.5 0.454752 0.205344
1.18534 0.5 0.118202 0.269907
1.16179 0.5 -0.267642 0.284579
1.16179 0.5 0.267642 0.245271
0 0.5 -1.19382 0.143148
0 0.5 1.19382 0.095553
0.0124865 0.5 1.19382 0.095553
0.0124865 0.5 -1.19382 0.143148
1.04168 0.5 -0.58333 0.238069
1.04168 0.5 0.58333 0.177262
1.18772 0.5 -0.131228 0.290816
1.17463 0.5 -0.23194 0.288371
1.17463 0.5 0.23194 0.253096
0.411736 0.5 -1.125 0.149801
0.411736 0.5 1.125 0.0993382
1.13882 0.5 -0.374324 0.274592
1.13882 0.5 0.374324 0.223791
0 0.5 -1.2 0.14283
0 0.5 1.2 0.0951277
0.905821 0.5 0.7875 0.140786
0.905821 0.5 -0.7875 0.202059
0.872064 0.5 -0.825 0.195379
0.872064 0.5 0.825 0.134834
0.835106 0.5 0.8625 0.129272
0.835106 0.5 -0.8625 0.188976
0.939201 0.5 -0.75 0.209008
0.939201 0.5 0.75 0.147122
0.797732 0.5 -0.9 0.182887
0.797732 0.5 0.9 0.124018
1.0271 0.5 0.625985 0.168933
1.0271 0.5 -0.625985 0.231393
0.969689 0.5 0.7125 0.153794
0.96969 0.5 -0.7125 0.216263
1.18772 0.5 -0.196842 0.291593
1.18772 0.5 0.196842 0.260801
0.756814 0.5 -0.9375 0.177053
0.756814 0.5 0.9375 0.119085
0 0.5 1.20618 0.0947033
0 0.5 -1.20618 0.142515
1.00005 0.5 -0.674378 0.223164
1.00005 0.5 0.674378 0.160441
0.0124865 0.5 1.20618 0.0947033
0.0124865 0.5 -1.20618 0.142515
1.16179 0.5 -0.334552 0.282058
1.16179 0.5 0.334552 0.234056
0.715434 0.5 0.975 0.114532
0.715434 0.5 -0.975 0.171602
0.151149 0.5 -1.2 0.142698
0.151149 0.5 1.2 0.094715
1.20942 0.5 0.0322645 0.286278
1.20942 0.5 -0.0322645 0.291841
1.17463 0.5 -0.298209 0.286729
1.17463 0.5 0.298209 0.242252
1.20942 0.5 -0.0967935 0.295701
1.20942 0.5 0.0967935 0.279273
0.350249 0.5 -1.1625 0.146388
0.350249 0.5 1.1625 0.0965677
0.67013 0.5 1.0125 0.110277
0.67013 0.5 -1.0125 0.166372
1.11376 0.5 0.485183 0.201205
1.11376 0.5 -0.485183 0.260727
1.18772 0.5 0.262456 0.250428
1.18772 0.5 -0.262456 0.290902
1.10076 0.5 -0.524714 0.254765
1.10076 0.5 0.524714 0.193063
1.20942 0.5 -0.161322 0.297118
1.20942 0.5 0.161322 0.270683
1.08112 0.5 -0.567554 0.246635
1.08112 0.5 0.567554 0.183614
0.624316 0.5 -1.05 0.161562
0.624316 0.5 1.05 0.106355
1.13882 0.5 -0.442383 0.269551
1.13882 0.5 0.442383 0.211598
1.05695 0.5 0.6133 0.173697
1.05695 0.5 -0.6133 0.237657
1.16179 0.5 -0.401463 0.277806
1.16179 0.5 0.401463 0.221982
0.574156 0.5 -1.0875 0.156941
0.574156 0.5 1.0875 0.102694
1.17463 0.5 0.364477 0.230433
1.17463 0.5 -0.364477 0.283371
1.20942 0.5 -0.225851 0.297386
1.20942 0.5 0.225851 0.260725
1.23036 0.5 -1.32995e-17 0.294609
1.2294 0.5 0.0634819 0.287112
1.04168 0.5 -0.656246 0.230581
1.04168 0.5 0.656246 0.165187
1.23036 0.5 -0.0634819 0.299421
1.18772 0.5 0.32807 0.238975
1.18772 0.5 -0.32807 0.288426
0.288069 0.5 -1.2 0.143454
0.288069 0.5 1.2 0.0940655
1.23036 0.5 -0.126964 0.302152
1.23036 0.5 0.126964 0.280232
0.075776 0.5 -1.2375 0.14092
0.075776 0.5 1.2375 0.0925603
0.523432 0.5 -1.125 0.152799
0.523432 0.5 1.125 0.0993855
1.0271 0.5 -0.69963 0.223625
1.0271 0.5 0.69963 0.156938
1.24274 0.5 0.0314313 0.294781
1.24274 0.5 -0.0314313 0.300502
1.20942 0.5 0.29038 0.249573
1.20942 0.5 -0.29038 0.295824
1.11376 0.5 -0.554494 0.253906
1.11376 0.5 0.554494 0.188649
1.23036 0.5 -0.190445 0.303053
1.23036 0.5 0.190445 0.270797
1.24274 0.5 -0.0942942 0.304591
1.24274 0.5 0.0942942 0.287492
1.13882 0.5 0.510442 0.19891
1.13882 0.5 -0.510442 0.263199
0.969689 0.5 -0.7875 0.208655
0.969689 0.5 0.7875 0.142891
1.00005 0.5 -0.749309 0.215396
1.00005 0.5 0.749309 0.148873
0.939201 0.5 -0.825 0.201627
0.939201 0.5 0.825 0.136695
0.90582 0.5 0.8625 0.130794
0.90582 0.5 -0.8625 0.194915
1.17463 0.5 -0.430746 0.278223
1.17463 0.5 0.430746 0.217854
1.10076 0.5 -0.594676 0.247457
1.10076 0.5 0.594676 0.18052
1.18772 0.5 -0.393684 0.284169
1.18772 0.5 0.393684 0.226642
1.24274 0.5 -0.157157 0.306151
1.24274 0.5 0.157157 0.278641
1.16179 0.5 -0.468373 0.272018
1.16179 0.5 0.468373 0.209276
0.467897 0.5 -1.1625 0.148813
0.467897 0.5 1.1625 0.0963015
0.872064 0.5 -0.9 0.188499
0.872064 0.5 0.9 0.125377
1.25401 0.5 2.08167e-17 0.300433
0.835106 0.5 0.9375 0.120313
0.835106 0.5 -0.9375 0.182365
1.25401 0.5 -0.0622994 0.3054
1.25401 0.5 0.0622994 0.293585
1.08112 0.5 -0.638498 0.238972
1.08112 0.5 0.638498 0.171231
1.23036 0.5 -0.253927 0.302446
1.23036 0.5 0.253927 0.260062
0.219992 0.5 1.2375 0.091723
0.219992 0.5 -1.2375 0.14063
1.25309 0.5 0.121964 0.285721
1.05695 0.5 0.685452 0.161513
1.05695 0.5 -0.685452 0.229713
0.797732 0.5 0.975 0.11552
0.797732 0.5 -0.975 0.176557
1.25401 0.5 -0.124599 0.308275
1.20942 0.5 -0.354909 0.292512
1.20942 0.5 0.354909 0.237416
1.24274 0.5 -0.220019 0.306502
1.24274 0.5 0.220019 0.268401
0.756814 0.5 -1.0125 0.171001
0.756813 0.5 1.0125 0.111035
1.25401 0.5 -0.186898 0.309266
1.25401 0.5 0.186898 0.276094
0.411736 0.5 -1.2 0.145424
0.411736 0.5 1.2 0.0935969
0 0.5 -1.26882 0.139281
0 0.5 1.26882 0.0904648
0.0124865 0.5 1.26882 0.0904648
0.0124865 0.5 -1.26882 0.139281
0.715434 0.5 -1.05 0.165821
0.715434 0.5 1.05 0.106917
1.23036 0.5 -0.31741 0.300038
1.23036 0.5 0.31741 0.248206
1.04168 0.5 -0.729162 0.22244
1.04168 0.5 0.729162 0.153139
1.18772 0.5 -0.459298 0.278313
1.18772 0.5 0.459298 0.213659
1.24274 0.5 -0.282882 0.305034
1.24274 0.5 0.282882 0.256937
0 0.5 -1.275 0.138956
0 0.5 1.275 0.0900507
1.27472 0.5 -0.0306319 0.309195
1.27472 0.5 0.0306319 0.303269
1.17463 0.5 0.497015 0.204758
1.17463 0.5 -0.497015 0.271731
1.11376 0.5 -0.623806 0.246082
1.11376 0.5 0.623806 0.175942
1.13882 0.5 -0.578501 0.255688
1.13882 0.5 0.578501 0.185947
0.67013 0.5 -1.0875 0.160858
0.67013 0.5 1.0875 0.103077
1.27472 0.5 -0.0918959 0.313464
1.27472 0.5 0.0918959 0.294294
1.25401 0.5 -0.249197 0.30873
1.25401 0.5 0.249197 0.265152
1.16179 0.5 -0.535284 0.264956
1.16179 0.5 0.535284 0.196174
1.20942 0.5 -0.419438 0.287311
1.20942 0.5 0.419438 0.224466
0 0.5 -1.28118 0.138634
0 0.5 1.28118 0.0896374
0.0124865 0.5 1.28118 0.0896374
0.0124865 0.5 -1.28118 0.138634
1.27472 0.5 0.15316 0.286644
1.27472 0.5 -0.15316 0.315252
0.151149 0.5 -1.275 0.138793
0.151149 0.5 1.275 0.0895999
1.0271 0.5 0.773275 0.144959
1.0271 0.5 -0.773275 0.215309
1.10076 0.5 0.664638 0.16795
1.10076 0.5 -0.664638 0.239278
0.350249 0.5 -1.2375 0.142183
0.350249 0.5 1.2375 0.0910769
0.624316 0.5 -1.125 0.156293
0.624316 0.5 1.125 0.0995384
1.23036 0.5 0.380892 0.23543
1.23036 0.5 -0.380892 0.295768
1.24274 0.5 -0.345745 0.301778
1.24274 0.5 0.345745 0.244437
1.2906 0.5 0 0.310694
1.2906 0.5 -0.0604698 0.315928
1.2906 0.5 0.0604698 0.303851
1.25401 0.5 -0.311497 0.306385
1.25401 0.5 0.311497 0.253068
1.27472 0.5 -0.214423 0.31566
1.27472 0.5 0.214423 0.27613
1.08112 0.5 0.709442 0.158922
1.08112 0.5 -0.709442 0.230602
1.00005 0.5 -0.824239 0.207196
1.00005 0.5 0.824239 0.137482
1.2906 0.5 -0.12094 0.319061
1.2906 0.5 0.12094 0.295404
0.574156 0.5 -1.1625 0.151916
0.574156 0.5 1.1625 0.0962465
0.969689 0.5 -0.8625 0.200705
0.96969 0.5 0.8625 0.132275
1.18772 0.5 0.524912 0.200264
1.18772 0.5 -0.524912 0.271138
1.05695 0.5 -0.757605 0.221219
1.05695 0.5 0.757605 0.149485
0.939201 0.5 -0.9 0.193974
0.939201 0.5 0.9 0.126527
1.30091 0.5 -0.0299772 0.316618
1.30091 0.5 0.0299772 0.310508
1.20942 0.5 -0.483967 0.280692
1.20942 0.5 0.483967 0.210971
1.17463 0.5 -0.563284 0.263998
1.17463 0.5 0.563284 0.191373
1.2906 0.5 -0.181409 0.320217
1.2906 0.5 0.181409 0.285449
0.90582 0.5 0.9375 0.121108
0.90582 0.5 -0.9375 0.187558
1.30091 0.5 -0.0899316 0.321046
1.30091 0.5 0.0899316 0.300106
1.27472 0.5 0.275687 0.264365
1.27472 0.5 -0.275687 0.314299
0.288069 0.5 -1.275 0.139365
0.288069 0.5 1.275 0.0887853
0.872064 0.5 -0.975 0.181455
0.872064 0.5 0.975 0.116212