# pMean  POINT_DATA 91129
# x  y  z  pMean
0 0 0 0.203539
0 0.00368111 0 0.203253
0 0.00749587 0 0.202639
0 0.0114491 0 0.202041
0 0.0155459 0 0.201502
0 0.0197915 0 0.200929
0 0.0241911 0 0.200282
0 0.0287506 0 0.199569
0 0.0334755 0 0.198808
0 0.038372 0 0.198018
0 0.0434463 0 0.197208
0 0.0487048 0 0.196387
0 0.0541543 0 0.195561
0 0.0598016 0 0.194741
0 0.0656539 0 0.193944
0 0.0717187 0 0.193195
0.075776 0.00184055 0 0.203539
0.075776 0.00558849 0 0.202968
0.075776 0.00947248 -3.46945e-18 0.202311
0.075776 0.0134975 -3.46945e-18 0.201771
0.075776 0.0176687 3.46945e-18 0.201233
0 0.0780037 0 0.192493
0.075776 0.0219913 3.46945e-18 0.200624
0.075776 0.0264709 3.46945e-18 0.19994
0.075776 0.031113 -3.46945e-18 0.199198
0.075776 0.0359237 -3.46945e-18 0.198419
0 0.0845169 0 0.191807
0.075776 0.0409092 0 0.197617
0.075776 0.0460755 -3.46945e-18 0.196799
0 0.0912666 0 0.191114
0.075776 0.0514296 -3.46945e-18 0.195974
0.075776 0.0569779 0 0.195149
0 0.0982613 0 0.190409
0.075776 0.0627278 0 0.194333
0.075776 0.0686863 0 0.193555
0 0.10551 0 0.189695
0.075776 0.0748612 3.46945e-18 0.192836
0.075776 0.0812603 -3.46945e-18 0.19215
0 0.113022 0 0.18897
0.075776 0.0878918 3.46945e-18 0.191463
0 0.120806 0 0.188236
0.075776 0.0947639 3.46945e-18 0.190764
0.075776 0.101886 -3.46945e-18 0.190054
0 0.128874 0 0.187496
0.075776 0.109266 3.46945e-18 0.189335
0 0.137234 0 0.186766
0.075776 0.116914 3.46945e-18 0.188606
0 0.145897 0 0.186059
0.075776 0.12484 0 0.187866
0.151552 0 0 0.188196
0.151552 0.00368111 0 0.188085
0.151552 0.00749587 0 0.187878
0.151552 0.0114491 0 0.187721
0.151552 0.0155459 0 0.187595
0.151552 0.0197915 0 0.187446
0.075776 0.133054 0 0.187126
0.151552 0.0241911 0 0.187257
0.151552 0.0287506 0 0.187031
0 0.154876 0 0.185377
0.151552 0.0334755 0 0.186777
0.151552 0.038372 0 0.186504
0.151552 0.0434463 0 0.186217
0.151552 0.0487048 0 0.18592
0.075776 0.141566 0 0.186406
0.151552 0.0541543 0 0.185616
0.151552 0.0598016 0 0.185308
0 0.16418 0 0.184718
0.151552 0.0656539 0 0.185006
0.151552 0.0717187 0 0.184719
0.075776 0.150387 0 0.185712
0.151552 0.0780037 0 0.184446
0.151552 0.0845169 0 0.184173
0 0.173822 0 0.184089
0.075776 0.159528 0 0.185041
0.151552 0.0912666 0 0.183887
0.151552 0.0982613 0 0.183586
0 0.183814 0 0.183502
0.151552 0.10551 0 0.183272
0.075776 0.169001 3.46945e-18 0.184394
0.151552 0.113022 0 0.182945
0.151552 0.120806 0 0.182603
0 0.194169 0 0.182949
0.075776 0.178818 3.46945e-18 0.183784
0.151552 0.128874 0 0.182247
0.075776 0.188992 3.46945e-18 0.18322
0.151552 0.137234 0 0.181885
0 0.2049 0 0.182394
0.151552 0.145897 0 0.181524
0.075776 0.199535 0 0.182677
0 0.21602 0 0.181803
0.151552 0.154876 0 0.181167
0.219992 0.00184055 0 0.174034
0.219992 0.00558849 0 0.174134
0.219992 0.00947248 -3.46945e-18 0.17437
0.219992 0.0134975 3.46945e-18 0.174634
0.219992 0.0176687 0 0.174881
0.219992 0.0219913 0 0.175118
0.219993 0.0264709 -3.46945e-18 0.175349
0.219992 0.031113 -3.46945e-18 0.175567
0.219992 0.0359238 3.46945e-18 0.175775
0.151552 0.16418 0 0.180814
0.075776 0.21046 0 0.18211
0.219992 0.0409092 3.46945e-18 0.175974
0.219992 0.0460755 0 0.176166
0.219993 0.0514296 -3.46945e-18 0.176348
0.219992 0.0569779 0 0.17652
0 0.227544 0 0.181164
0.219992 0.0627277 3.46945e-18 0.176681
0.219992 0.0686863 0 0.176828
0.151552 0.173822 0 0.180467
0.219992 0.0748612 3.46945e-18 0.17696
0.075776 0.221782 0 0.181495
0.219992 0.0812603 3.46945e-18 0.177076
0.219992 0.0878917 -3.46945e-18 0.177175
0.151552 0.183814 0 0.180128
7.47806e-17 0.239487 0 0.180489
0.219992 0.0947639 3.46945e-18 0.177255
0.219993 0.101886 3.46945e-18 0.177319
0.075776 0.233516 0 0.180833
0.219993 0.109266 0 0.177368
0.151552 0.194169 0 0.179794
0.219993 0.116914 0 0.177398
0 0.251863 0 0.179795
0.219993 0.12484 0 0.177407
0.151552 0.2049 0 0.179446
0.075776 0.245675 0 0.180145
0.219992 0.133054 3.46945e-18 0.177396
0.219992 0.141565 0 0.177362
0.151552 0.21602 0 0.179066
0 0.264688 0 0.179086
0.219992 0.150387 3.46945e-18 0.177312
0.075776 0.258275 3.46945e-18 0.179444
0.219992 0.159528 -3.46945e-18 0.177249
0.151552 0.227544 0 0.178647
0.219992 0.169001 3.46945e-18 0.177171
0 0.27798 0 0.178363
0.075776 0.271334 3.46945e-18 0.178729
0.151552 0.239487 3.70071e-18 0.178195
0.219992 0.178818 3.46945e-18 0.177073
0.288433 0 0 0.177939
0.288433 0.00368111 0 0.177974
0.288433 0.00749587 0 0.178087
0.288433 0.0114491 0 0.17825
0.288433 0.0155459 3.70071e-18 0.178421
0.288433 0.0197915 0 0.178589
0.288433 0.0241911 3.70071e-18 0.178755
0.288433 0.0287506 0 0.178917
0.219992 0.188991 0 0.176954
0.288433 0.0334755 0 0.179074
0.288433 0.038372 0 0.179227
0.288433 0.0434463 0 0.179375
7.47806e-17 0.291753 0 0.177623
0.288433 0.0487048 0 0.179518
0.288433 0.0541543 0 0.179654
0.151552 0.251863 0 0.177718
0.288433 0.0598016 3.70071e-18 0.179782
0.075776 0.284866 0 0.177998
0.288433 0.0656539 3.70071e-18 0.179904
0.219992 0.199534 0 0.17681
0.288433 0.0717187 0 0.180019
0.288433 0.0780037 0 0.180128
0.288433 0.0845169 0 0.180228
0.288433 0.0912666 0 0.180314
0.219992 0.21046 -3.46945e-18 0.176639
0.288433 0.0982613 0 0.180378
0.151552 0.264688 3.70071e-18 0.17722
0 0.306027 0 0.17686
0.288433 0.10551 0 0.180416
0.075776 0.29889 3.46945e-18 0.177248
0.288433 0.113022 0 0.180433
0.219993 0.221782 0 0.176439
0.288433 0.120806 0 0.180435
0.288433 0.128874 0 0.180426
0.151552 0.27798 0 0.176704
0.288433 0.137234 0 0.180403
0 0.320819 0 0.176068
0.219992 0.233515 -3.46945e-18 0.176208
0.075776 0.313423 -3.46945e-18 0.176472
0.288433 0.145897 0 0.180364
0.288433 0.154876 0 0.180307
0.151552 0.291753 0 0.176168
0.219993 0.245675 0 0.175946
0.288433 0.16418 0 0.180232
0 0.336148 0 0.175255
0.288433 0.173822 0 0.180139
0.075776 0.328484 -3.46945e-18 0.175664
0.219993 0.258275 -3.46945e-18 0.175654
0.151552 0.306027 0 0.175605
0.288433 0.183814 0 0.180024
0.288433 0.194169 0 0.179887
0.219992 0.271334 3.46945e-18 0.175338
0.350249 0.00184056 -3.46945e-18 0.181557
0.350249 0.00558849 0 0.1816
0.350249 0.00947248 3.46945e-18 0.181678
0.350249 0.0134975 0 0.181767
0.350249 0.0176687 0 0.181863
0.350249 0.0219913 0 0.181965
0.350249 0.0264708 3.46945e-18 0.18207
0.350249 0.031113 0 0.182175
0 0.352034 0 0.174449
0.350249 0.0359238 0 0.182281
0.075776 0.344091 0 0.174846
0.350249 0.0409091 0 0.182386
0.350249 0.0460756 3.46945e-18 0.18249
0.288433 0.2049 0 0.179724
0.350249 0.0514296 0 0.182589
0.151552 0.320819 0 0.175007
0.350249 0.0569779 0 0.182684
0.350249 0.0627277 3.46945e-18 0.182776
0.350249 0.0686863 3.46945e-18 0.182869
0.350249 0.0748612 3.46945e-18 0.182962
0.350249 0.0812603 0 0.183056
0.219992 0.284867 0 0.175004
0.288433 0.21602 0 0.179535
0.350249 0.0878917 0 0.183148
0.350249 0.094764 0 0.183222
0.350249 0.101886 0 0.18326
0.350249 0.109266 0 0.183266
0.288433 0.227544 0 0.179318
0.075776 0.360265 3.46945e-18 0.174052
0 0.368496 0 0.173653
0.151552 0.336148 0 0.174376
0.350249 0.116914 3.46945e-18 0.183255
0.219992 0.29889 0 0.174644
0.370854 0.0241911 1.54074e-33 0.184222
0.350249 0.12484 0 0.183237
0.350249 0.133054 0 0.183219
0.288433 0.239487 -9.25154e-19 0.179071
0.350249 0.141566 3.46945e-18 0.183192
0.350249 0.150387 3.46945e-18 0.183145
0.288433 0.251863 0 0.178793
0.219992 0.313423 0 0.174248
0.151552 0.352034 0 0.173723
0.075776 0.377027 0 0.173254
0.350249 0.159528 0 0.183077
0 0.385557 0 0.172831
0.350249 0.169001 0 0.182989
0.288433 0.264688 0 0.178485
0.350249 0.178818 0 0.18288
0.219992 0.328484 0 0.173807
0.350249 0.188992 0 0.182749
0.151552 0.368496 0 0.173053
0.288433 0.27798 3.70071e-18 0.178151
0.075776 0.394397 0 0.172406
0.350249 0.199535 0 0.182594
7.47806e-17 0.403236 0 0.171951
0.219992 0.344091 0 0.173319
0.350249 0.21046 -3.46945e-18 0.182415
0.288433 0.291753 0 0.177789
0.412065 9.08189e-19 3.08149e-33 0.186645
0.412065 0.00368111 -2.31298e-18 0.186661
0.412065 0.00749587 -2.31298e-18 0.186703
0.412065 0.0114491 -2.31298e-18 0.186761
0.412065 0.0155459 -2.31298e-18 0.186824
0.412065 0.0197915 0 0.186888
0.412065 0.0241911 -3.08149e-33 0.186955
0.412065 0.0264709 0 0.186989
0.412065 0.0287506 -2.31298e-18 0.187023
0.412065 0.0334755 -2.31298e-18 0.187093
0.412065 0.038372 -2.31298e-18 0.187165
0.151552 0.385557 0 0.172348
0.412065 0.0434463 0 0.187239
0.350249 0.221782 0 0.18221
0.412065 0.0487048 0 0.187313
0.412065 0.0541543 -3.08149e-33 0.187387
0.412065 0.0569779 0 0.187423
0.412065 0.0598016 -2.31298e-18 0.187459
0.412065 0.0656539 -2.31298e-18 0.187531
0.412065 0.0717187 -2.31298e-18 0.187599
0.075776 0.412396 -3.46945e-18 0.171496
0.412065 0.0780037 -2.31298e-18 0.187664
0.288433 0.306027 0 0.177395
0.412065 0.0845169 -2.31298e-18 0.187721
0.350249 0.233516 3.46945e-18 0.181977
0 0.421557 0 0.171019
0.412065 0.0912666 -2.31298e-18 0.187757
0.219992 0.360265 3.46945e-18 0.172787
0.412065 0.0982613 0 0.187763
0.412065 0.10551 0 0.187743
0.412065 0.113022 -2.31298e-18 0.187706
0.350249 0.245675 0 0.181714
0.412065 0.120806 0 0.187659
0.151552 0.403236 0 0.171591
0.288433 0.320819 0 0.176962
0.412065 0.128874 -2.31298e-18 0.187602
0.412065 0.137234 0 0.187536
0.350249 0.258275 -3.46945e-18 0.18142
0.219992 0.377026 0 0.172212
0.412065 0.145897 -2.31298e-18 0.187458
0.075776 0.431051 0 0.170541
0.412065 0.154876 -2.31298e-18 0.187363
0 0.440544 0 0.170046
0.288433 0.336148 0 0.176487
0.350249 0.271334 0 0.181093
0.412065 0.16418 -2.31298e-18 0.187252
0.412065 0.173822 -2.31298e-18 0.187122
0.151552 0.421557 0 0.170783
0.412065 0.183814 -2.31298e-18 0.186974
0.350249 0.284867 3.46945e-18 0.180733
0.219992 0.394397 0 0.171593
0.288433 0.352034 3.70071e-18 0.175967
0.412065 0.194169 0 0.186804
0.075776 0.450382 0 0.169549
0.412065 0.2049 -2.31298e-18 0.186613
0 0.46022 0 0.169038
0.350249 0.29889 3.46945e-18 0.180342
0.412065 0.21602 0 0.186397
0.151552 0.440544 0 0.169927
0.219993 0.412396 3.46945e-18 0.170925
0.467897 0.00184056 -3.46945e-18 0.191379
0.467897 0.00558849 0 0.191399
0.288433 0.368496 0 0.175402
0.467897 0.00947248 0 0.191431
0.467897 0.0134975 0 0.191466
0.467897 0.0176687 3.46945e-18 0.1915
0.467897 0.0219913 -3.46945e-18 0.191532
0.467897 0.0264709 3.46945e-18 0.191565
0.467897 0.0311131 3.46945e-18 0.1916
0.467897 0.0359238 -3.46945e-18 0.191639
0.467897 0.038372 0 0.192153
0.467897 0.0409092 3.46945e-18 0.191682
0.350249 0.313423 0 0.179915
0.467897 0.0460755 0 0.191729
0.467897 0.0514296 3.46945e-18 0.191779
0.412065 0.227544 -2.31298e-18 0.186156
0.467897 0.0569779 0 0.191832
0.467897 0.0627277 -3.46945e-18 0.191886
0.467897 0.0686863 3.46945e-18 0.191936
0.467897 0.0748612 0 0.191978
0.467897 0.0812603 0 0.192013
0.467897 0.0878918 3.46945e-18 0.192025
0.075776 0.470415 3.46945e-18 0.168524
0.412065 0.239487 -2.31298e-18 0.185887
0.467897 0.0947639 -3.46945e-18 0.191997
0.467897 0.101886 3.46945e-18 0.191943
0.350249 0.328483 0 0.17945
0.467897 0.109266 0 0.191879
0 0.48061 0 0.167993
0.288433 0.385557 0 0.174792
0.467897 0.116914 0 0.191807
0.412065 0.251863 -2.31298e-18 0.185589
0.219992 0.431051 0 0.170204
0.467897 0.12484 0 0.191721
0.151552 0.46022 0 0.169025
0.467897 0.133054 3.46945e-18 0.191621
0.467897 0.141566 3.46945e-18 0.19151
0.412065 0.264688 -2.31298e-18 0.185259
0.350249 0.344091 -3.46945e-18 0.178944
0.467897 0.150387 3.46945e-18 0.191388
0.467897 0.154876 0 0.191908
0.467897 0.159528 3.46945e-18 0.191253
0.288433 0.403236 0 0.174133
0.075776 0.491175 0 0.167461
0.412065 0.27798 -2.31298e-18 0.184897
0.467897 0.169001 0 0.191103
0.467897 0.178818 3.46945e-18 0.190937
0.219992 0.450382 0 0.169429
6.73026e-17 0.501741 3.70071e-18 0.166908
0.350249 0.360265 0 0.178393
0.151552 0.48061 0 0.168078
0.467897 0.188991 0 0.190752
0.412065 0.291753 0 0.1845
0.467897 0.199535 0 0.190548
0.288433 0.421557 0 0.173422
0.467897 0.21046 0 0.190323
0.412065 0.306027 0 0.184068
0.350249 0.377027 0 0.177795
0.467897 0.221782 3.46945e-18 0.190074
0.075776 0.51269 0 0.166352
0.219993 0.470415 3.46945e-18 0.168599
0.467897 0.227544 0 0.190509
0.412065 0.320819 -2.31298e-18 0.183597
0.467897 0.233515 0 0.1898
6.73026e-17 0.523639 3.70071e-18 0.165775
0.523729 0 0 0.196941
0.523729 0.00368111 0 0.196949
0.523729 0.00749587 -2.31298e-18 0.196971
0.523729 0.0114491 0 0.197001
0.523729 0.0155459 0 0.19703
0.523729 0.0197915 -2.31298e-18 0.197054
0.151552 0.501741 0 0.167082
0.523729 0.0241911 0 0.197073
0.523729 0.0287506 0 0.197093
0.523729 0.0334755 0 0.197115
0.523729 0.038372 -3.08149e-33 0.19714
0.523729 0.0434463 0 0.197168
0.523729 0.0487048 0 0.197198
0.523729 0.0541543 0 0.197232
0.288433 0.440544 0 0.172656
0.523729 0.0598016 0 0.197268
0.350249 0.394397 -3.46945e-18 0.177148
0.523729 0.0656539 0 0.197304
0.467897 0.245675 0 0.189498
0.523729 0.0717187 0 0.197337
0.523729 0.0780037 0 0.19736
0.523729 0.0845169 0 0.197357
0.523729 0.0912666 0 0.19732
0.412065 0.336148 0 0.183084
0.523729 0.0982613 0 0.197254
0.523729 0.10551 -2.31298e-18 0.197174
0.467897 0.258275 -3.46945e-18 0.189167
0.523729 0.113022 0 0.197085
0.523729 0.120806 -3.08149e-33 0.196985
0.219993 0.491176 0 0.167715
0.523729 0.12484 0 0.196928
0.523729 0.128874 -2.31298e-18 0.196872
0.075776 0.534986 0 0.165196
0.467897 0.271334 3.46945e-18 0.188803
0.350249 0.412396 -3.46945e-18 0.176449
0.523729 0.137234 0 0.196745
0.412065 0.352034 -2.31298e-18 0.182527
0.288433 0.46022 0 0.171834
0.523729 0.145897 0 0.196606
0.151552 0.523639 0 0.166032
0.523729 0.154876 -3.08149e-33 0.196453
0 0.546332 0 0.164594
0.523729 0.159528 0 0.196368
0.467897 0.284867 -3.46945e-18 0.188406
0.523729 0.16418 -2.31298e-18 0.196284
0.523729 0.173822 0 0.196099
0.412065 0.368496 0 0.181924
0.523729 0.183814 0 0.195895
0.467897 0.29889 0 0.187972
0.350249 0.431051 -3.46945e-18 0.175695
0.219992 0.51269 0 0.166773
0.523729 0.194169 0 0.195671
0.288433 0.48061 0 0.170953
0.523729 0.2049 0 0.195425
0.467897 0.313423 3.46945e-18 0.187498
0.075776 0.558091 0 0.16399
0.412065 0.385557 0 0.18127
0.523729 0.21602 -3.08149e-33 0.195156
0.151552 0.546332 0 0.164922
0 0.569849 0 0.163362
0.350249 0.450382 3.46945e-18 0.174884
0.523729 0.227544 -3.08149e-33 0.194861
0.467897 0.328483 0 0.186983
0.523729 0.231525 1.54074e-33 0.194754
0.574156 0.00184056 0 0.202138
0.574156 0.00558849 0 0.202152
0.574157 0.00947248 0 0.202175
0.574156 0.0134975 -3.46945e-18 0.202203
0.574156 0.0176687 -3.46945e-18 0.202223
0.574156 0.0219913 0 0.202233
0.574156 0.0264708 -3.46945e-18 0.202239
0.574156 0.031113 0 0.202246
0.574156 0.0359238 -3.46945e-18 0.202255
0.574157 0.0409092 0 0.202265
0.523729 0.239487 3.70071e-18 0.19454
0.574156 0.0460755 -3.46945e-18 0.202278
0.574156 0.0514295 0 0.202293
0.412065 0.403236 0 0.180565
0.574157 0.0569779 0 0.202313
0.574156 0.0627277 0 0.202334
0.574156 0.0686863 0 0.202355
0.219992 0.534986 0 0.165766
0.288433 0.501741 0 0.170011
0.574156 0.0748612 3.46945e-18 0.202374
0.574156 0.0812603 0 0.202371
0.467897 0.344091 0 0.186424
0.574156 0.0878917 3.46945e-18 0.202323
0.523729 0.251863 0 0.194189
0.574157 0.0947639 0 0.20224
0.574156 0.101886 0 0.202145
0.574156 0.109266 0 0.202041
0.574156 0.116914 0 0.201927
0.412065 0.416977 -6.16298e-33 0.179995
0.350249 0.470415 0 0.174013
0.523729 0.264688 0 0.193806
0.075776 0.582034 0 0.162732
0.574156 0.12484 0 0.201802
0.574156 0.133054 3.46945e-18 0.201663
0.412065 0.421557 -2.31298e-18 0.179805
0.151552 0.569849 0 0.163751
0.467897 0.360265 -3.46945e-18 0.185818
0.574157 0.141566 -3.46945e-18 0.20151
0.523729 0.27798 0 0.19339
0.574156 0.150386 3.46945e-18 0.201342
0 0.594219 0 0.162075
0.574156 0.159528 -3.46945e-18 0.201158
0.574156 0.16418 0 0.201588
0.288433 0.523639 1.2326e-32 0.169004
0.574157 0.169001 0 0.200956
0.523729 0.291753 0 0.192938
0.219993 0.558091 3.46945e-18 0.164687
0.467897 0.377026 0 0.185162
0.574156 0.178818 3.46945e-18 0.200736
0.412065 0.440544 -2.31298e-18 0.178987
0.350249 0.491175 0 0.173079
0.574156 0.188992 3.46945e-18 0.200495
0.523729 0.306027 -3.08149e-33 0.192448
0.574157 0.199535 0 0.200232
0.574157 0.21046 0 0.199946
0.075776 0.606847 0 0.161416
0.467897 0.394397 0 0.184454
0.151552 0.594219 0 0.162515
0.523729 0.320819 0 0.191916
0.574157 0.221782 -3.46945e-18 0.199634
0.412065 0.46022 3.08149e-33 0.178108
0.288433 0.546332 0 0.167928
0 0.619475 0 0.160729
0.574156 0.233515 3.46945e-18 0.199296
0.350249 0.51269 3.46945e-18 0.172078
0.219992 0.582034 3.46945e-18 0.163535
0.523729 0.336148 0 0.191341
0.467897 0.412396 0 0.183691
0.574156 0.245675 0 0.198928
0.624584 0 0 0.20843
0.624584 0.00368111 0 0.208437
0.624584 0.00749587 0 0.208455
0.624584 0.0114491 0 0.20848
0.624584 0.0155459 0 0.208503
0.624584 0.0197915 0 0.208514
0.624584 0.0241911 -2.31298e-18 0.208515
0.624584 0.0287506 0 0.208512
0.624584 0.0334755 0 0.208509
0.624584 0.038372 0 0.208507
0.624584 0.0434463 -2.31298e-18 0.208507
0.624584 0.0487048 0 0.208508
0.624584 0.0541543 0 0.20851
0.624584 0.0598016 0 0.208514
0.624584 0.0656539 0 0.208518
0.624584 0.0717187 0 0.208519
0.624584 0.0780037 0 0.208503
0.574157 0.258276 3.46945e-18 0.19853
0.624584 0.0845169 0 0.208451
0.523729 0.352034 0 0.190719
0.624584 0.0912666 0 0.20836
0.624584 0.0982613 0 0.208249
0.412065 0.48061 3.08149e-33 0.177166
0.624584 0.10551 0 0.208126
0.624584 0.113022 -2.31298e-18 0.207993
0.574156 0.271334 0 0.198099
0.624584 0.120806 0 0.207847
0.467897 0.431051 0 0.182871
0.075776 0.632561 -3.46945e-18 0.160039
0.624584 0.128874 0 0.207688
0.151552 0.619475 0 0.16121
0.288433 0.569849 0 0.166778
0.350249 0.534985 0 0.171007
0.624584 0.137234 -2.31298e-18 0.207513
0.523729 0.368496 0 0.190048
0.574156 0.284866 -3.46945e-18 0.197632
0.624584 0.145897 0 0.207323
0.467897 0.440544 0 0.1829
0.624584 0.154876 0 0.207116
0.219992 0.606847 -3.46945e-18 0.162308
0 0.645647 0 0.159318
0.624584 0.16418 -3.08149e-33 0.206891
0.574156 0.29889 -3.46945e-18 0.197127
0.624584 0.173822 0 0.206647
0.412065 0.501741 1.54074e-33 0.176157
0.467897 0.450382 -3.46945e-18 0.181989
0.523729 0.385557 0 0.189325
0.624584 0.183814 0 0.206382
0.624584 0.194169 0 0.206095
0.574156 0.313423 0 0.196582
0.624584 0.2049 0 0.205783
0.350249 0.558091 3.46945e-18 0.169863
0.288433 0.594219 0 0.165552
0.624584 0.21602 0 0.205447
0.523729 0.403236 0 0.188547
0.574156 0.328483 -3.46945e-18 0.195994
0.151552 0.645647 0 0.159833
0.467897 0.470415 3.46945e-18 0.181045
0.075776 0.659208 0 0.158595
0.624584 0.227544 0 0.205083
0.412065 0.523639 0 0.175078
0.523729 0.41545 3.08149e-33 0.187989
0.624584 0.239487 3.70071e-18 0.20469
0.574156 0.344091 0 0.195361
0.219992 0.632561 0 0.161003
0.67013 0.00184055 0 0.214338
0.67013 0.00558849 0 0.21435
0.67013 0.00947248 0 0.214372
0.67013 0.0134975 0 0.2144
0.67013 0.0176687 -3.46945e-18 0.214417
0.67013 0.0219913 0 0.214417
0.67013 0.0264708 3.46945e-18 0.214406
0.67013 0.0311131 0 0.214392
0.67013 0.0359237 0 0.214379
0.67013 0.0409092 -3.46945e-18 0.214367
0.67013 0.0460755 0 0.214356
0.67013 0.0514296 3.46945e-18 0.214344
0.523729 0.421557 -2.31298e-18 0.18771
0.67013 0.056978 0 0.214333
0 0.67277 0 0.15784
0.67013 0.0627277 0 0.214321
0.624584 0.251863 0 0.204266
0.67013 0.0686863 0 0.214309
0.67013 0.0748612 3.46945e-18 0.214287
0.67013 0.0812603 0 0.214232
0.67013 0.0878917 0 0.214132
0.67013 0.0947639 3.46945e-18 0.214005
0.574156 0.360265 0 0.194679
0.67013 0.101886 0 0.213866
0.523729 0.431051 0 0.187262
0.624584 0.264688 0 0.203809
0.467897 0.491175 0 0.180033
0.67013 0.109266 3.46945e-18 0.213717
0.350249 0.582034 0 0.168643
0.67013 0.116914 0 0.213554
0.67013 0.12484 0 0.213377
0.67013 0.133054 0 0.213184
0.288433 0.619475 0 0.164247
0.624584 0.27798 -3.08149e-33 0.203317
0.412065 0.546332 1.54074e-33 0.173925
0.523729 0.440544 -3.08149e-33 0.186813
0.67013 0.141566 3.46945e-18 0.212975
0.685312 0.0241911 -7.70372e-34 0.216969
0.685312 0.0434463 -7.70372e-34 0.216895
0.67013 0.150387 0 0.212748
0.574156 0.377026 -3.46945e-18 0.193945
0.67013 0.159528 0 0.212503
0.624584 0.291753 0 0.202787
0.151552 0.67277 0 0.15838
0.075776 0.686823 0 0.157081
0.67013 0.169001 0 0.212238
0.67013 0.178818 0 0.211952
0.467897 0.51269 0 0.178951
0.685312 0.113022 -7.70372e-34 0.21607
0.219992 0.659208 0 0.159617
0.624584 0.306027 0 0.202216
0.67013 0.188991 0 0.211644
0.574156 0.394397 3.46945e-18 0.193156
0.523729 0.46022 0 0.185851
0.685312 0.137234 -7.70372e-34 0.215479
0.67013 0.199535 -3.46945e-18 0.211311
0.350249 0.606847 0 0.167344
0 0.700877 0 0.156288
0.624584 0.320819 0 0.201603
0.67013 0.21046 0 0.210953
0.412065 0.569849 -2.31298e-18 0.172695
0.67013 0.221782 -3.46945e-18 0.210567
0.574157 0.412396 0 0.192309
0.288433 0.645647 0 0.162858
0.624584 0.336148 -3.08149e-33 0.200945
0.67013 0.233515 3.46945e-18 0.210153
0.467897 0.534986 0 0.177794
0.523729 0.48061 0 0.184821
0.624584 0.344091 0 0.200591
0.67013 0.245675 0 0.209707
0.715676 4.54095e-19 0 0.221137
0.715676 0.00368111 0 0.221143
0.715676 0.00749587 0 0.22116
0.715676 0.0114491 0 0.221184
0.715676 0.0155459 0 0.221205
0.715676 0.0197915 0 0.221209
0.715676 0.0241911 0 0.221196
0.715676 0.0287506 0 0.221173
0.715676 0.0334755 0 0.221146
0.715676 0.038372 0 0.221118
0.624584 0.352034 -2.31298e-18 0.200238
0.715676 0.0434463 0 0.221089
0.151552 0.700877 0 0.156848
0.715676 0.0487048 0 0.221061
0.715676 0.0541543 0 0.221031
0.574156 0.43105 0 0.1914
0.715676 0.0598016 0 0.221001
0.67013 0.258275 0 0.209228
0.715676 0.0656539 0 0.22097
0.715676 0.0717187 0 0.22093
0.075776 0.715441 0 0.155491
0.715676 0.0780037 0 0.220865
0.715676 0.0845169 0 0.22076
0.219992 0.686824 0 0.158146
0.715676 0.0912666 0 0.22062
0.715676 0.0982613 0 0.220463
0.67013 0.271334 -3.46945e-18 0.208714
0.350249 0.632561 -3.46945e-18 0.16596
0.412065 0.594219 3.08149e-33 0.171383
0.715676 0.10551 0 0.220293
0.715676 0.113022 0 0.220109
0.624584 0.368496 0 0.199479
0.523729 0.501741 0 0.18372
0.715676 0.120806 0 0.21991
0.715676 0.128874 0 0.219695
0.67013 0.284867 0 0.208163
0.467897 0.558091 3.46945e-18 0.17656
0.715676 0.137234 0 0.219463
0.574156 0.450382 0 0.190427
0 0.730005 0 0.154658
0.715676 0.145897 0 0.219212
0.288433 0.67277 0 0.161384
0.715676 0.154876 0 0.218943
0.67013 0.29889 0 0.207571
0.624584 0.385557 0 0.198666
0.715676 0.16418 -9.25187e-19 0.218653
0.715676 0.173822 0 0.218341
0.715676 0.183814 0 0.218006
0.67013 0.313423 0 0.206937
0.523729 0.523639 0 0.182543
0.715676 0.194169 0 0.217647
0.574156 0.470415 3.46945e-18 0.189385
0.624584 0.403236 0 0.197795
0.743101 0.0241911 -7.70372e-34 0.225721
0.412065 0.619475 3.08149e-33 0.169986
0.715676 0.2049 0 0.217262
0.151552 0.730005 0 0.155232
0.67013 0.328484 3.46945e-18 0.206258
0.350249 0.659208 0 0.164489
0.467897 0.582034 0 0.175244
0.715676 0.21602 0 0.216849
0.219992 0.715441 0 0.156589
0.075776 0.745097 -3.46945e-18 0.153822
0.715676 0.227544 0 0.216406
0.67013 0.344091 0 0.205531
0.624584 0.421557 0 0.196862
0.743101 0.128874 -7.70372e-34 0.22394
0.715676 0.239487 3.70071e-18 0.215932
0.574156 0.491175 0 0.188272
0.756814 0.00184055 0 0.227552
0.523729 0.546332 0 0.181287
0.756813 0.00558849 0 0.227564
0.756813 0.00947248 0 0.227585
0.756814 0.0134975 -3.46945e-18 0.227613
0.756814 0.0155459 0 0.228005
0.756814 0.0176687 0 0.227625
0.756814 0.0219913 0 0.227613
0.756814 0.0264709 0 0.227583
0.756814 0.031113 -3.46945e-18 0.227545
0.756813 0.0359238 -3.46945e-18 0.227504
0.288433 0.700877 0 0.15982
0.756814 0.0409092 -3.46945e-18 0.227461
0.756813 0.0460755 3.46945e-18 0.227416
0.756813 0.0514296 0 0.22737
0.715676 0.251863 0 0.215425
0.756813 0.0569779 0 0.227323
0.756814 0.0627277 -3.46945e-18 0.227275
0.756814 0.0686863 -3.46945e-18 0.227224
0 0.76019 0 0.152947
0.756814 0.0748612 0 0.227155
0.67013 0.360265 3.46945e-18 0.204752
0.756814 0.0812603 -3.46945e-18 0.227044
0.756814 0.0878917 -3.46945e-18 0.226891
0.756814 0.0947639 -3.46945e-18 0.226716
0.715676 0.264688 0 0.214882
0.756813 0.101886 0 0.226529
0.624584 0.440544 0 0.195864
0.756813 0.109266 3.46945e-18 0.226327
0.756813 0.116914 3.46945e-18 0.226109
0.412065 0.645647 0 0.1685
0.467897 0.606847 0 0.173841
0.756814 0.120806 0 0.226312
0.756813 0.12484 0 0.225875
0.715676 0.27798 0 0.214302
0.756814 0.133054 -3.46945e-18 0.225623
0.67013 0.377026 -3.46945e-18 0.20392
0.756814 0.137234 0 0.225796
0.574156 0.51269 0 0.187082
0.756813 0.141566 3.46945e-18 0.225352
0.685312 0.352034 -7.70372e-34 0.207246
0.743101 0.2049 -7.70372e-34 0.221303
0.350249 0.686824 0 0.162927
0.756814 0.150387 0 0.225061
0.756814 0.154876 0 0.225204
0.715676 0.291753 0 0.213682
0.756814 0.159528 -3.46945e-18 0.224749
0.523729 0.569849 0 0.179948
0.72743 0.264688 0 0.216551
0.756814 0.16418 0 0.224876
0.151552 0.76019 0 0.153529
0.756813 0.169001 3.46945e-18 0.224415
0.624584 0.46022 0 0.194798
0.219993 0.745097 0 0.15494
0.67013 0.394396 0 0.203029
0.756813 0.178818 -3.46945e-18 0.224058
0.715676 0.306027 0 0.21302
0.075776 0.775831 0 0.152069
0.756813 0.188991 0 0.223675
0.756814 0.199535 0 0.223266
0.715676 0.320819 0 0.212312
0.574156 0.534985 0 0.185812
0.288433 0.730005 0 0.158163
0.756813 0.21046 0 0.222829
0.467897 0.632561 0 0.172348
0.67013 0.412396 -3.46945e-18 0.202078
0.624584 0.48061 -3.08149e-33 0.193658
0.756814 0.221782 0 0.222363
0.412065 0.67277 3.08149e-33 0.166921
0.715676 0.336148 0 0.211557
0 0.791472 0 0.15115
0.756813 0.233516 3.46945e-18 0.221864
0.523729 0.594219 0 0.178521
0.624584 0.487654 1.54074e-33 0.193253
0.756814 0.245675 3.46945e-18 0.221333
0.350249 0.715441 3.46945e-18 0.161269
0.67013 0.43105 0 0.201061
0.715676 0.352034 -9.25187e-19 0.21075
0.797951 9.08189e-19 -3.08149e-33 0.234738
0.797951 0.00368111 2.31298e-18 0.234744
0.797951 0.00749587 2.31298e-18 0.234761
0.797951 0.0114491 2.31298e-18 0.234786
0.797951 0.0141803 7.70372e-34 0.234798
0.797951 0.0155459 0 0.234804
0.797951 0.0169611 7.70372e-34 0.234803
0.797951 0.0197915 2.31298e-18 0.2348
0.797951 0.0219913 0 0.234785
0.797951 0.0241911 3.08149e-33 0.23477
0.797951 0.0264709 0 0.234747
0.797951 0.0287506 -3.08149e-33 0.234723
0.797951 0.0334755 2.31298e-18 0.234666
0.797951 0.038372 2.31298e-18 0.234604
0.797951 0.0434463 2.31298e-18 0.234538
0.797951 0.0487048 0 0.234469
0.756813 0.258275 -3.46945e-18 0.220766
0.797951 0.0541543 2.31298e-18 0.234398
0.797951 0.0598016 2.31298e-18 0.234325
0.797951 0.0656539 2.31298e-18 0.234248
0.574156 0.55809 0 0.184458
0.624584 0.501741 0 0.192442
0.797951 0.0717187 2.31298e-18 0.234157
0.797951 0.0780037 -3.08149e-33 0.234032
0.797951 0.0845169 2.31298e-18 0.233865
0.797951 0.0912666 -3.08149e-33 0.233667
0.797951 0.0982613 2.31298e-18 0.233453
0.756813 0.271334 0 0.220161
0.797951 0.10551 2.31298e-18 0.233223
0.715676 0.368496 0 0.20989
0.151552 0.791472 0 0.151735
0.797951 0.113022 2.31298e-18 0.232977
0.219992 0.775831 3.46945e-18 0.153198
0.797951 0.118211 7.70372e-34 0.232801
0.770526 0.239487 1.54074e-33 0.22384
0.797951 0.120806 0 0.232713
0.67013 0.450382 3.46945e-18 0.199976
0.797951 0.128874 3.08149e-33 0.232431
0.467897 0.659208 0 0.17076
0.756813 0.284866 -3.46945e-18 0.219517
0.743101 0.320819 -7.70372e-34 0.216075
0.797951 0.137234 0 0.23213
0.797951 0.141566 0 0.231969
0.797951 0.145897 -9.25187e-19 0.231808
0.523729 0.619475 0 0.177001
0.075776 0.807681 0 0.150227
0.797951 0.150387 0 0.231637
0.797951 0.154876 0 0.231465
0.715676 0.385557 0 0.208972
0.412065 0.700877 3.08149e-33 0.165244
0.288433 0.76019 0 0.156409
0.756813 0.29889 0 0.21883
0.797951 0.16418 0 0.2311
0.624584 0.523639 0 0.191145
0.797951 0.167394 7.70372e-34 0.23097
0.797951 0.173822 2.31298e-18 0.23071
0.574156 0.582034 0 0.183014
0.67013 0.470415 0 0.198818
0.797951 0.183814 2.31298e-18 0.230296
0.756813 0.313423 -3.46945e-18 0.218099
0.797951 0.194169 -9.25187e-19 0.229855
0.715676 0.403236 0 0.207993
0.151552 0.807681 0 0.150791
0.797951 0.197746 -7.70372e-34 0.229699
0.350249 0.745097 0 0.159512
0.797951 0.2049 3.08149e-33 0.229386
0 0.823889 0 0.149262
0.756813 0.328483 -3.46945e-18 0.217319
0.797951 0.21046 0 0.229137
0.797951 0.21602 -3.08149e-33 0.228887
0.797951 0.223703 7.70372e-34 0.228534
0.797951 0.227544 9.25187e-19 0.228357
0.624584 0.546332 0 0.189762
0.715676 0.421557 0 0.206949
0.67013 0.491176 -3.46945e-18 0.197583
0.797951 0.231525 7.70372e-34 0.22817
0.467897 0.686824 -3.46945e-18 0.169073
0.523729 0.645647 0 0.175385
0.756813 0.344091 -3.46945e-18 0.21649
0.822721 0.120806 7.70372e-34 0.237111
0.797951 0.239487 -3.08149e-33 0.227794
0.822721 0.137234 7.70372e-34 0.236478
0.835106 0.00184056 0 0.241553
0.835106 0.00558849 0 0.241566
0.835106 0.00947248 0 0.241589
0.835106 0.0134975 0 0.241615
0.835107 0.0176687 0 0.241623
0.835106 0.0219913 -3.46945e-18 0.241598
0.574156 0.606847 3.46945e-18 0.181477
0.835106 0.0241911 0 0.24179
0.835106 0.0264709 -3.46945e-18 0.241547
0.822721 0.145897 -7.70372e-34 0.236131
0.835106 0.031113 3.46945e-18 0.241479
0.835106 0.0359238 3.46945e-18 0.241401
0.835106 0.0409092 -3.46945e-18 0.241316
0.835106 0.0460755 3.46945e-18 0.241227
0.835106 0.0514296 0 0.241135
0.797951 0.251863 -3.08149e-33 0.227196
0.835106 0.0541543 0 0.241301
0.835106 0.0569779 0 0.241039
0.219992 0.807681 3.46945e-18 0.151358
0.822721 0.154876 7.70372e-34 0.235762
0.835106 0.0627277 0 0.240939
0.151552 0.823889 0 0.149846
0.797951 0.255069 -1.54074e-33 0.227037
0.835106 0.0686863 3.46945e-18 0.240833
0.756814 0.360265 -3.46945e-18 0.215606
0.412065 0.730005 0 0.163465
0.835106 0.0748612 0 0.2407
0.822721 0.16418 7.70372e-34 0.235369
0.835106 0.0812603 0 0.240517
0.835106 0.0878917 -3.46945e-18 0.240297
0.715676 0.440544 0 0.205837
0.835106 0.094764 0 0.240058
0.797951 0.264688 -1.2326e-32 0.226561
0.835106 0.101886 -3.46945e-18 0.239805
0.835106 0.109266 3.46945e-18 0.239533
0.288433 0.791472 0 0.154555
0.835106 0.116914 0 0.239244
0.67013 0.51269 3.46945e-18 0.196266
0.797951 0.274657 6.16298e-33 0.226055
0.075776 0.840686 -3.46945e-18 0.148292
0.835106 0.12484 0 0.238935
0.797951 0.27798 -3.08149e-33 0.225886
0.624584 0.569849 0 0.188289
0.756813 0.377026 -3.46945e-18 0.214666
0.835106 0.133054 3.46945e-18 0.238606
0.835106 0.141565 3.46945e-18 0.238257
0.835106 0.150386 0 0.237886
0.797951 0.291753 0 0.22517
0.835106 0.159528 3.46945e-18 0.237492
0.715676 0.46022 0 0.204651
0.816529 0.239487 -1.54074e-33 0.230842