# pMean  POINT_DATA 63140
# x  y  z  pMean
0 0.1 0 0.190238
0 0.1 -0.0179898 0.190717
0 0.1 0.0179898 0.18976
0.0363518 0.1 0.0179898 0.18976
0.0363518 0.1 -0.0179898 0.190717
0 0.1 -0.0570102 0.191617
0 0.1 0.0570102 0.188588
0.0363518 0.1 0.0570102 0.188588
0.0363518 0.1 -0.0570102 0.191617
0 0.1 -0.075 0.191962
0 0.1 0.075 0.187988
0.075776 0.1 -0.0375 0.191242
0.075776 0.1 0.0375 0.189242
0 0.1 -0.0929898 0.19231
0 0.1 0.0929898 0.187389
0.0363518 0.1 -0.0929898 0.19231
0.0363518 0.1 0.0929898 0.187389
0 0.1 -0.13201 0.192967
0 0.1 0.13201 0.185957
0.075776 0.1 -0.1125 0.192692
0.075776 0.1 0.1125 0.186741
0.0363518 0.1 -0.13201 0.192967
0.0363518 0.1 0.13201 0.185957
0 0.1 -0.15 0.193221
0 0.1 0.15 0.185238
0.150379 0.1 -2.22623e-17 0.183619
0 0.1 -0.16799 0.19348
0 0.1 0.16799 0.184519
0.150379 0.1 -0.075 0.185477
0.150379 0.1 0.075 0.181207
0.0363518 0.1 -0.16799 0.19348
0.0363518 0.1 0.16799 0.184519
0.075776 0.1 -0.1875 0.193761
0.075776 0.1 0.1875 0.183742
0 0.1 -0.20701 0.193931
0 0.1 0.20701 0.182831
0.0363518 0.1 -0.20701 0.193931
0.0363518 0.1 0.20701 0.182831
0.150379 0.1 -0.15 0.186779
0.150379 0.1 0.15 0.178253
0.219993 0.1 -0.0375 0.17844
0.219993 0.1 0.0375 0.176164
0 0.1 -0.225 0.19409
0 0.1 0.225 0.181994
0 0.1 -0.24299 0.194252
0 0.1 0.24299 0.181159
0.0363518 0.1 0.24299 0.181159
0.0363518 0.1 -0.24299 0.194252
0.219993 0.1 -0.1125 0.180135
0.219993 0.1 0.1125 0.173306
0.150379 0.1 -0.225 0.18755
0.150379 0.1 0.225 0.174788
0.075776 0.1 -0.2625 0.194428
0.075776 0.1 0.2625 0.180255
0 0.1 -0.28201 0.194452
0 0.1 0.28201 0.179226
0.0363518 0.1 -0.28201 0.194452
0.0363518 0.1 0.28201 0.179226
0.287374 0.1 -2.89121e-19 0.180342
0.219992 0.1 0.1875 0.169869
0.219992 0.1 -0.1875 0.181128
0.287374 0.1 -0.075 0.182331
0.287374 0.1 0.075 0.177752
0 0.1 -0.3 0.194477
0 0.1 0.3 0.17828
0 0.1 0.31799 0.177335
0 0.1 -0.31799 0.194506
0.0363518 0.1 -0.31799 0.194506
0.0363518 0.1 0.31799 0.177335
0.287374 0.1 0.15 0.174579
0.287374 0.1 -0.15 0.183685
0.150379 0.1 -0.3 0.187752
0.150379 0.1 0.3 0.170843
0.219993 0.1 0.2625 0.165952
0.219993 0.1 -0.2625 0.18149
0.075776 0.1 -0.3375 0.194537
0.075776 0.1 0.3375 0.176312
0.350249 0.1 -0.0375 0.184402
0.350249 0.1 0.0375 0.182098
0 0.1 -0.35701 0.194412
0 0.1 0.35701 0.175172
0.0363518 0.1 -0.35701 0.194412
0.0363518 0.1 0.35701 0.175172
0.287374 0.1 -0.225 0.184395
0.287374 0.1 0.225 0.170867
0.350249 0.1 -0.1125 0.186084
0.350249 0.1 0.1125 0.179179
0 0.1 -0.375 0.194299
0 0.1 0.375 0.174124
0 0.1 -0.39299 0.19419
0 0.1 0.39299 0.173077
0.0363518 0.1 -0.39299 0.19419
0.0363518 0.1 0.39299 0.173077
0.350249 0.1 -0.1875 0.187131
0.350249 0.1 0.1875 0.175704
0.219992 0.1 -0.3375 0.181175
0.219992 0.1 0.3375 0.161542
0.150379 0.1 0.375 0.166465
0.150379 0.1 -0.375 0.187344
0.411108 0.1 4.33681e-19 0.187694
0.287374 0.1 -0.3 0.184467
0.287374 0.1 0.3 0.166654
0.411108 0.1 -0.075 0.189771
0.411108 0.1 0.075 0.184934
0.075776 0.1 -0.4125 0.194072
0.075776 0.1 0.4125 0.171943
0 0.1 0.43201 0.170705
0 0.1 -0.43201 0.193806
0.0363518 0.1 0.43201 0.170705
0.0363518 0.1 -0.43201 0.193806
0.411108 0.1 -0.15 0.191146
0.411108 0.1 0.15 0.181521
0.350249 0.1 -0.2625 0.187564
0.350249 0.1 0.2625 0.171688
0 0.1 -0.45 0.193563
0 0.1 0.45 0.169567
0.219992 0.1 0.4125 0.15677
0.219992 0.1 -0.4125 0.180235
0 0.1 -0.46799 0.193323
0 0.1 0.46799 0.168429
0.411108 0.1 -0.225 0.191823
0.411108 0.1 0.225 0.177501
0.467897 0.1 -0.0375 0.193226
0.467897 0.1 0.0375 0.190688
0.0363518 0.1 0.46799 0.168429
0.0363518 0.1 -0.46799 0.193323
0.287374 0.1 -0.375 0.1839
0.287374 0.1 0.375 0.161996
0.150379 0.1 0.45 0.161725
0.150379 0.1 -0.45 0.186379
0.467897 0.1 0.1125 0.187418
0.467897 0.1 -0.1125 0.195003
0.350249 0.1 -0.3375 0.187369
0.350249 0.1 0.3375 0.167182
0.075776 0.1 -0.4875 0.193063
0.075776 0.1 0.4875 0.167197
0.467897 0.1 0.1875 0.18345
0.467897 0.1 -0.1875 0.195995
0 0.1 -0.50701 0.192661
0 0.1 0.50701 0.165874
0.0363518 0.1 -0.50701 0.192661
0.0363518 0.1 0.50701 0.165874
0.411108 0.1 0.3 0.172929
0.411108 0.1 -0.3 0.191813
0.522865 0.1 1.41031e-17 0.197163
0 0.1 -0.525 0.192292
0 0.1 0.525 0.164658
0.522865 0.1 -0.075 0.199401
0.522865 0.1 0.075 0.194125
0.287374 0.1 0.45 0.156961
0.287374 0.1 -0.45 0.182751
0.219992 0.1 0.4875 0.151712
0.219992 0.1 -0.4875 0.17881
0.467897 0.1 -0.2625 0.196237
0.467897 0.1 0.2625 0.178853
0.350249 0.1 -0.4125 0.186544
0.350249 0.1 0.4125 0.162242
0 0.1 -0.54299 0.191925
0 0.1 0.54299 0.163442
0.522865 0.1 0.15 0.190324
0.522865 0.1 -0.15 0.200812
0.0363518 0.1 0.54299 0.163442
0.0363518 0.1 -0.54299 0.191925
0.150379 0.1 -0.525 0.184912
0.150379 0.1 0.525 0.156689
0.411108 0.1 -0.375 0.191115
0.411108 0.1 0.375 0.167862
0.075776 0.1 -0.5625 0.191529
0.075776 0.1 0.5625 0.162125
0.522865 0.1 -0.225 0.2014
0.522865 0.1 0.225 0.18581
0.574156 0.1 0.0375 0.200795
0.574157 0.1 -0.0375 0.203545
0.467897 0.1 -0.3375 0.195725
0.467897 0.1 0.3375 0.173706
0 0.1 -0.58201 0.191008
0 0.1 0.58201 0.160736
0.0363518 0.1 -0.58201 0.191008
0.0363518 0.1 0.58201 0.160736
0.574157 0.1 -0.1125 0.205426
0.574157 0.1 0.1125 0.197211
0.287374 0.1 -0.525 0.181079
0.287374 0.1 0.525 0.151615
0 0.1 -0.6 0.190529
0 0.1 0.6 0.159458
0.350249 0.1 0.4875 0.156884
0.350249 0.1 -0.4875 0.185135
0.522865 0.1 -0.3 0.20118
0.522865 0.1 0.3 0.180654
0.219992 0.1 -0.5625 0.176926
0.219992 0.1 0.5625 0.146457
0.574156 0.1 -0.1875 0.206416
0.574156 0.1 0.1875 0.192841
0.411108 0.1 0.45 0.162352
0.411108 0.1 -0.45 0.189771
0 0.1 -0.61799 0.190053
0 0.1 0.61799 0.158181
0.150379 0.1 -0.6 0.182972
0.150379 0.1 0.6 0.151412
0.0363518 0.1 -0.61799 0.190053
0.0363518 0.1 0.61799 0.158181
0.467897 0.1 -0.4125 0.194483
0.467897 0.1 0.4125 0.168061
0.623803 0.1 2.34188e-17 0.208143
0.623803 0.1 0.075 0.204809
0.623803 0.1 -0.075 0.210556
0.574156 0.1 0.2625 0.187739
0.574156 0.1 -0.2625 0.206546
0.623803 0.1 0.15 0.200603
0.623803 0.1 -0.15 0.212021
0.075776 0.1 0.6375 0.156798
0.075776 0.1 -0.6375 0.189537
0.522865 0.1 -0.375 0.200163
0.522865 0.1 0.375 0.174932
0 0.1 0.65701 0.155357
0 0.1 -0.65701 0.188901
0.0363518 0.1 0.65701 0.155357
0.0363518 0.1 -0.65701 0.188901
0.350249 0.1 0.5625 0.151186
0.350249 0.1 -0.5625 0.183168
0.623803 0.1 0.225 0.195578
0.623803 0.1 -0.225 0.21254
0.287374 0.1 -0.6 0.178913
0.287374 0.1 0.6 0.146022
0.574157 0.1 -0.3375 0.205812
0.574157 0.1 0.3375 0.181983
0.411108 0.1 0.525 0.156459
0.411108 0.1 -0.525 0.187829
0.67013 0.1 0.0375 0.212397
0.67013 0.1 -0.0375 0.215409
0.219992 0.1 -0.6375 0.174592
0.219993 0.1 0.6375 0.14101
0 0.1 -0.675 0.188318
0 0.1 0.675 0.154032
0.467897 0.1 -0.4875 0.192602
0.467897 0.1 0.4875 0.161992
0.67013 0.1 -0.1125 0.217413
0.67013 0.1 0.1125 0.20842
0.522865 0.1 0.45 0.16872
0.522865 0.1 -0.45 0.198409
0.150379 0.1 0.675 0.145931
0.150379 0.1 -0.675 0.180614
0.623803 0.1 0.3 0.189811
0.623803 0.1 -0.3 0.212128
0 0.1 -0.69299 0.187736
0 0.1 0.69299 0.152708
0.0363518 0.1 -0.69299 0.187736
0.0363518 0.1 0.69299 0.152708
0.67013 0.1 -0.1875 0.218392
0.67013 0.1 0.1875 0.20354
0.574156 0.1 0.4125 0.175667
0.574157 0.1 -0.4125 0.204245
0.714971 0.1 -2.8382e-17 0.220346
0.075776 0.1 -0.7125 0.187107
0.075776 0.1 0.7125 0.151273
0.714971 0.1 -0.075 0.222959
0.714971 0.1 0.075 0.216668
0.67013 0.1 0.2625 0.197817
0.67013 0.1 -0.2625 0.218373
0.411108 0.1 -0.6 0.185331
0.411108 0.1 0.6 0.150266
0.350249 0.1 0.6375 0.145236
0.350249 0.1 -0.6375 0.180693
0.623803 0.1 0.375 0.183396
0.623803 0.1 -0.375 0.210803
0.714971 0.1 -0.15 0.224477
0.714971 0.1 0.15 0.211982
0.467897 0.1 -0.5625 0.190111
0.467897 0.1 0.5625 0.155577
0 0.1 -0.73201 0.18637
0 0.1 0.73201 0.149795
0.0363518 0.1 0.73201 0.149795
0.0363518 0.1 -0.73201 0.18637
0.287374 0.1 -0.675 0.17631
0.287374 0.1 0.675 0.14023
0.522865 0.1 -0.525 0.195984
0.522865 0.1 0.525 0.162102
0.219993 0.1 -0.7125 0.171929
0.219992 0.1 0.7125 0.135388
0.714971 0.1 -0.225 0.224904
0.714971 0.1 0.225 0.206357
0 0.1 0.75 0.148436
0 0.1 -0.75 0.185694
0.67013 0.1 -0.3375 0.217354
0.67013 0.1 0.3375 0.191355
0.574156 0.1 -0.4875 0.201934
0.574157 0.1 0.4875 0.168878
0.756813 0.1 0.0375 0.224929
0.756814 0.1 -0.0375 0.228228
0.150379 0.1 0.746002 0.140697
0.150379 0.1 -0.75 0.177886
0.756813 0.1 -0.1125 0.230358
0.756813 0.1 0.1125 0.220515
0 0.1 0.76799 0.147076
0 0.1 -0.76799 0.185019
0.0363518 0.1 0.76799 0.147076
0.0363518 0.1 -0.76799 0.185019
0.623803 0.1 -0.45 0.208633
0.623803 0.1 0.45 0.176427
0.714971 0.1 -0.3 0.22425
0.714971 0.1 0.3 0.199881
0.756814 0.1 -0.1875 0.231314
0.756814 0.1 0.1875 0.215058
0.67013 0.1 -0.4125 0.215389
0.67013 0.1 0.4125 0.184252
0.411108 0.1 0.675 0.143853
0.411108 0.1 -0.675 0.182333
0.467897 0.1 0.6375 0.148898
0.467897 0.1 -0.6375 0.187074
0.075776 0.1 0.7875 0.145604
0.075776 0.1 -0.7875 0.184288
0.350249 0.1 -0.7125 0.177761
0.350249 0.1 0.7125 0.139109
0.522865 0.1 -0.6 0.192944
0.522865 0.1 0.6 0.155165
0.797314 0.1 -3.59473e-17 0.233326
0.287374 0.1 0.746002 0.134536
0.797314 0.1 -0.075 0.236164
0.797314 0.1 0.075 0.229261
0.756814 0.1 -0.2625 0.231107
0.756814 0.1 0.2625 0.208641
0.287374 0.1 -0.75 0.173328
0.574156 0.1 -0.5625 0.198934
0.574156 0.1 0.5625 0.161707
0 0.1 0.80701 0.144103
0 0.1 -0.80701 0.183463
0.714971 0.1 -0.375 0.22255
0.714971 0.1 0.375 0.192668
0.0363518 0.1 0.80701 0.144103
0.0363518 0.1 -0.80701 0.183463
0.797314 0.1 -0.15 0.237742
0.797314 0.1 0.15 0.224042
0.623803 0.1 -0.525 0.205694
0.623803 0.1 0.525 0.169008
0.219992 0.1 0.7875 0.129633
0.219992 0.1 -0.7875 0.168939
0.149792 0.1 0.80701 0.135943
0 0.1 0.825 0.142722
0 0.1 -0.825 0.182705
0.797314 0.1 -0.225 0.238071
0.797314 0.1 0.225 0.217753
0.756813 0.1 -0.3375 0.229745
0.756813 0.1 0.3375 0.201365
0.67013 0.1 0.4875 0.176614
0.67013 0.1 -0.4875 0.212567
0.835106 0.1 -0.0375 0.241687
0.835106 0.1 0.0375 0.238057
0.150379 0.1 -0.825 0.17482
0.835106 0.1 -0.1125 0.243974
0.835106 0.1 0.1125 0.233155
0 0.1 -0.84299 0.181947
0 0.1 0.84299 0.141341
0.0363518 0.1 -0.84299 0.181947
0.0363518 0.1 0.84299 0.141341
0.714971 0.1 -0.45 0.219884
0.714971 0.1 0.45 0.184834
0.411108 0.1 0.746002 0.137578
0.797314 0.1 -0.3 0.237158
0.797314 0.1 0.3 0.210496
0.467897 0.1 -0.7125 0.183549
0.467897 0.1 0.7125 0.142031
0.522865 0.1 0.675 0.147998
0.522865 0.1 -0.675 0.18936
0.411108 0.1 -0.75 0.178893
0.835106 0.1 -0.1875 0.244911
0.835107 0.1 0.1875 0.227067
0.286844 0.1 0.80701 0.129707
0.574156 0.1 0.6375 0.154254
0.574157 0.1 -0.6375 0.195325
0.350249 0.1 -0.7875 0.174433
0.350249 0.1 0.7875 0.132873
0.756813 0.1 -0.4125 0.227308
0.756814 0.1 0.4125 0.19338
0.623803 0.1 -0.6 0.202065
0.623803 0.1 0.6 0.161248
0.075776 0.1 0.8625 0.139845
0.075776 0.1 -0.8625 0.181128
0.871687 0.1 -3.2767e-18 0.24671
0.287374 0.1 -0.825 0.170006
0.871687 0.1 -0.075 0.249785
0.871687 0.1 0.075 0.24223
0.67013 0.1 -0.5625 0.208966
0.67013 0.1 0.5625 0.16857
0.835106 0.1 0.2625 0.219893
0.835106 0.1 -0.2625 0.244542
0.797314 0.1 -0.375 0.235048
0.797314 0.1 0.375 0.202405
0 0.1 -0.88201 0.180227
0 0.1 0.88201 0.138336
0.0363518 0.1 0.88201 0.138336
0.0363518 0.1 -0.88201 0.180227
0.871687 0.1 0.15 0.236435
0.871687 0.1 -0.15 0.251414
0.714971 0.1 0.525 0.176501
0.714971 0.1 -0.525 0.216342
0.219993 0.1 0.8625 0.12381
0.219992 0.1 -0.8625 0.16565
0 0.1 0.9 0.136946
0 0.1 -0.9 0.179399
0.756813 0.1 0.4875 0.184803
0.756814 0.1 -0.4875 0.223887
0.871687 0.1 0.225 0.229427
0.871687 0.1 -0.225 0.251639
0.835106 0.1 -0.3375 0.242835
0.835106 0.1 0.3375 0.211756
0.41063 0.1 0.80701 0.132248
0.90582 0.1 -0.0375 0.255347
0.905821 0.1 0.0375 0.251382
0.522865 0.1 0.746002 0.140989
0.150379 0.1 0.9 0.128731
0.90582 0.1 0.1125 0.245971
0.905821 0.1 -0.1125 0.25776
0.522865 0.1 -0.75 0.185304
0.574156 0.1 0.7125 0.146615
0.574156 0.1 -0.7125 0.191184
0.797314 0.1 -0.45 0.231835
0.797314 0.1 0.45 0.193629
0.467897 0.1 -0.7875 0.179599
0.467897 0.1 0.7875 0.135053
0.150379 0.1 -0.903998 0.171629
0 0.1 0.91799 0.135557
0 0.1 -0.91799 0.178572
0.0363518 0.1 0.91799 0.135557
0.0363518 0.1 -0.91799 0.178572
0.623803 0.1 0.675 0.153251
0.623803 0.1 -0.675 0.197836
0.411108 0.1 -0.825 0.175075
0.871687 0.1 0.3 0.221328
0.871687 0.1 -0.3 0.250448
0.67013 0.1 -0.6375 0.204683
0.67013 0.1 0.6375 0.160229
0.90582 0.1 -0.1875 0.258637
0.90582 0.1 0.1875 0.239209
0.350249 0.1 0.8625 0.126577
0.350249 0.1 -0.8625 0.170765
0.835106 0.1 -0.4125 0.239914
0.835106 0.1 0.4125 0.20282
0.714971 0.1 -0.6 0.212025
0.714971 0.1 0.6 0.167802
0.93886 0.1 -1.15648e-17 0.260124
0.075776 0.1 0.9375 0.134053
0.075776 0.1 -0.9375 0.177678
0.93886 0.1 0.075 0.25518
0.93886 0.1 -0.075 0.263482
0.756813 0.1 0.5625 0.175763
0.756814 0.1 -0.5625 0.219584
0.905821 0.1 -0.2625 0.258095
0.905821 0.1 0.2625 0.231218
0.287374 0.1 0.9 0.122187
0.287374 0.1 -0.903998 0.166806
0.871687 0.1 0.375 0.212292
0.871687 0.1 -0.375 0.247875
0.93886 0.1 -0.15 0.265191
0.93886 0.1 0.15 0.248768
0.797314 0.1 0.525 0.184303
0.797314 0.1 -0.525 0.227626
0 0.1 0.95701 0.132545
0 0.1 -0.95701 0.176713
0.0363518 0.1 0.95701 0.132545
0.0363518 0.1 -0.95701 0.176713
0.522433 0.1 0.80701 0.135077
0.219992 0.1 0.9375 0.117973
0.219992 0.1 -0.9375 0.162096
0.93886 0.1 0.225 0.241003
0.93886 0.1 -0.225 0.265352
0.90582 0.1 0.3375 0.222152
0.905821 0.1 -0.3375 0.255957
0.835106 0.1 -0.4875 0.235861
0.835107 0.1 0.4875 0.193241
0.969689 0.1 -0.0375 0.268921
0.969689 0.1 0.0375 0.264523
0.61613 0.1 0.75 0.145121
0.574156 0.1 -0.7875 0.1866
0.574156 0.1 0.7875 0.138881
0 0.1 0.975 0.131157
0 0.1 -0.975 0.175825
0.623803 0.1 -0.75 0.1931
0.969689 0.1 -0.1125 0.271568
0.969689 0.1 0.1125 0.258536
0.522865 0.1 -0.825 0.180852
0.67013 0.1 0.7125 0.151708
0.67013 0.1 -0.7125 0.199824
0.871687 0.1 -0.45 0.244049
0.871687 0.1 0.45 0.202496
0.467897 0.1 0.8625 0.128037
0.467897 0.1 -0.8625 0.1753
0.714971 0.1 -0.675 0.207047
0.714971 0.1 0.675 0.158865
0.93886 0.1 -0.3 0.263921
0.93886 0.1 0.3 0.232034
0.150379 0.1 0.975 0.122923
0.150379 0.1 -0.975 0.167834
0.969689 0.1 -0.1875 0.272463
0.969689 0.1 0.1875 0.251063
0.411108 0.1 0.9 0.123996
0.756813 0.1 0.6375 0.166425
0.756814 0.1 -0.6375 0.214528
0.990306 0.1 -2.19732e-17 0.27047
0 0.1 0.99299 0.12977
0 0.1 -0.99299 0.174939
0.411108 0.1 -0.903998 0.171404
0.990306 0.1 -0.075 0.274073
0.990306 0.1 0.075 0.265123
0.0363518 0.1 0.99299 0.12977
0.0363518 0.1 -0.99299 0.174939
0.90582 0.1 -0.4125 0.252444
0.905821 0.1 0.4125 0.212174
0.797314 0.1 -0.6 0.222551
0.797314 0.1 0.6 0.174591
0.350249 0.1 0.9375 0.120274
0.350249 0.1 -0.9375 0.166815
0.990306 0.1 0.15 0.258179
0.990306 0.1 -0.15 0.275834
0.969689 0.1 -0.2625 0.271879
0.969689 0.1 0.2625 0.242247
0.835106 0.1 -0.5625 0.230822
0.835106 0.1 0.5625 0.183167
0.93886 0.1 -0.375 0.260889
0.93886 0.1 0.375 0.222035
0.075776 0.1 1.0125 0.128267
0.075776 0.1 -1.0125 0.17398
0.990306 0.1 -0.225 0.275953
0.990306 0.1 0.225 0.249762
0.287374 0.1 0.975 0.116129
0.287374 0.1 -0.975 0.162515
0.871687 0.1 -0.525 0.239098
0.871687 0.1 0.525 0.19211
1.02149 0.1 -0.0369628 0.280516
1.02149 0.1 0.0369628 0.2758
0.969689 0.1 -0.3375 0.269424
0.969689 0.1 0.3375 0.232267
1.02149 0.1 -0.110888 0.283269
1.02149 0.1 0.110888 0.269361
0.90582 0.1 0.4875 0.201508
0.90582 0.1 -0.4875 0.247647
0.623803 0.1 0.819003 0.138404
0 0.1 1.03201 0.126775
0 0.1 -1.03201 0.172963
0.0363518 0.1 1.03201 0.126775
0.0363518 0.1 -1.03201 0.172963
0.67013 0.1 -0.7875 0.19449
0.67013 0.1 0.7875 0.143112
0.623803 0.1 -0.825 0.187949
0.990306 0.1 -0.3 0.27433
0.990306 0.1 0.3 0.240042
0.219992 0.1 -1.0125 0.158318
0.219993 0.1 1.0125 0.112158
0.574156 0.1 0.8625 0.131135
0.574157 0.1 -0.8625 0.181648
0.714971 0.1 -0.75 0.201524
0.714971 0.1 0.75 0.14981
1.02149 0.1 0.184814 0.261294
1.02149 0.1 -0.184814 0.284064
0.756814 0.1 -0.7125 0.208841
0.756814 0.1 0.7125 0.15691
0.522865 0.1 0.9 0.125947
0.93886 0.1 -0.45 0.256448
0.93886 0.1 0.45 0.211207
1.04168 0.1 0 0.282967
1.04168 0.1 -0.0729162 0.286814
1.04168 0.1 0.0729162 0.27729
0.522865 0.1 -0.903998 0.176624
0.797314 0.1 -0.675 0.216747
0.797314 0.1 0.675 0.164652
0.467897 0.1 0.9375 0.121051
0.467897 0.1 -0.9375 0.170716
0 0.1 1.05 0.125401
0 0.1 -1.05 0.172029
0.835106 0.1 -0.6375 0.224941
0.835106 0.1 0.6375 0.1728
1.04168 0.1 -0.145832 0.288652
1.04168 0.1 0.145832 0.269951
1.02149 0.1 -0.25874 0.283429
1.02149 0.1 0.25874 0.251758
0.969689 0.1 -0.4125 0.265413
0.969689 0.1 0.4125 0.221318
0.411108 0.1 0.975 0.117378
0.411108 0.1 -0.975 0.166554
0.871687 0.1 -0.6 0.233184
0.871687 0.1 0.6 0.181312
1.0579 0.1 -0.0360525 0.289219
1.0579 0.1 0.0360525 0.284349
0.990306 0.1 -0.375 0.270899
0.990306 0.1 0.375 0.229216
0.150379 0.1 1.05 0.117152
0.150379 0.1 -1.05 0.163999
1.0579 0.1 0.108157 0.277788
1.0579 0.1 -0.108157 0.292161
1.04168 0.1 -0.218749 0.288794
1.04168 0.1 0.218749 0.261064
0.90582 0.1 -0.5625 0.241752
0.90582 0.1 0.5625 0.190316
0 0.1 -1.06799 0.171095
0 0.1 1.06799 0.124028
0.0363518 0.1 -1.06799 0.171095
0.0363518 0.1 1.06799 0.124028
0.350249 0.1 1.0125 0.114017
0.350249 0.1 -1.0125 0.162632
1.0579 0.1 -0.180262 0.293036
1.0579 0.1 0.180262 0.269612
1.02149 0.1 -0.332665 0.280626
1.02149 0.1 0.332665 0.240951
0.93886 0.1 -0.525 0.250747
0.93886 0.1 0.525 0.199746
1.08012 0.1 5.49329e-18 0.292118
1.04168 0.1 -0.291665 0.287174
1.04168 0.1 0.291665 0.25081
1.08012 0.1 0.0709941 0.286269
1.08012 0.1 -0.0709941 0.296169
0.969689 0.1 -0.4875 0.259983
0.96969 0.1 0.4875 0.209623
1.0579 0.1 0.252367 0.259982
1.0579 0.1 -0.252367 0.292512
0.990306 0.1 -0.45 0.265922
0.990306 0.1 0.45 0.217503
0.287374 0.1 -1.05 0.15844
0.287374 0.1 1.05 0.110125
0.714971 0.1 0.821002 0.141415
1.08012 0.1 -0.141988 0.298163
1.08012 0.1 0.141988 0.27877
0.075776 0.1 1.0875 0.122541
0.075776 0.1 -1.0875 0.170085
0.714971 0.1 -0.825 0.195572
0.756813 0.1 -0.7875 0.202656
0.756814 0.1 0.7875 0.147352
0.67013 0.1 -0.8625 0.188784
0.67013 0.1 0.8625 0.134549
0.797314 0.1 -0.75 0.21036
0.797314 0.1 0.75 0.154618
0.623803 0.1 0.9 0.128838
0.835106 0.1 -0.7125 0.218377
0.835106 0.1 0.7125 0.162294
0.623803 0.1 -0.903998 0.183094
0.574156 0.1 0.9375 0.123457
0.574156 0.1 -0.9375 0.176421
1.02149 0.1 -0.406591 0.276097
1.02149 0.1 0.406591 0.229089
1.08012 0.1 -0.212982 0.298411
1.08012 0.1 0.212982 0.269732
1.10076 0.1 -0.0349809 0.299802
1.10076 0.1 0.0349809 0.29467
0.871687 0.1 -0.675 0.226479
0.871687 0.1 0.675 0.170289
1.04168 0.1 -0.364581 0.283568
1.04168 0.1 0.364581 0.239393
1.10076 0.1 -0.104943 0.303041
1.10076 0.1 0.104943 0.287852
0.522865 0.1 0.975 0.118664
0.522865 0.1 -0.975 0.171061
1.0579 0.1 -0.324472 0.289915
1.0579 0.1 0.324472 0.24909
0 0.1 -1.10701 0.169028
0 0.1 1.10701 0.121073
0.0363518 0.1 1.10701 0.121073
0.0363518 0.1 -1.10701 0.169028
0.90582 0.1 0.6375 0.178788
0.905821 0.1 -0.6375 0.234937
0.219992 0.1 1.0875 0.106402
0.219992 0.1 -1.0875 0.154354
0.93886 0.1 0.6 0.187867
0.93886 0.1 -0.6 0.243975
1.10076 0.1 -0.174905 0.304002
1.10076 0.1 0.174905 0.279406
0.467897 0.1 1.0125 0.114151
0.467897 0.1 -1.0125 0.165905
1.08012 0.1 -0.283976 0.296944
1.08012 0.1 0.283976 0.259333
1.11928 0.1 3.93204e-18 0.301521
0.990306 0.1 -0.525 0.259568
0.990306 0.1 0.525 0.205124
0.96969 0.1 -0.5625 0.253319
0.969689 0.1 0.5625 0.197356
1.11928 0.1 -0.0690357 0.305819
1.11928 0.1 0.0690357 0.295436
0 0.1 1.125 0.119723
0 0.1 -1.125 0.168055
0.411108 0.1 -1.05 0.161967
0.411108 0.1 1.05 0.110852
1.10076 0.1 0.244866 0.269501
1.10076 0.1 -0.244866 0.303665
1.11928 0.1 -0.138072 0.308007
1.11928 0.1 0.138072 0.287685
1.02149 0.1 0.480517 0.216413
1.02149 0.1 -0.480517 0.270012
1.0579 0.1 -0.396577 0.285481
1.0579 0.1 0.396577 0.237143
1.04168 0.1 -0.437497 0.278283
1.04168 0.1 0.437497 0.227036
0.150379 0.1 1.125 0.111458
0.150379 0.1 -1.125 0.159994
0.714971 0.1 0.88201 0.134711
1.08012 0.1 0.354971 0.24777
1.08012 0.1 -0.354971 0.29348
1.11928 0.1 -0.207107 0.308377
1.11928 0.1 0.207107 0.278385
0.350249 0.1 -1.0875 0.158275
0.350249 0.1 1.0875 0.10785
0 0.1 1.14299 0.118373
0 0.1 -1.14299 0.167084
0.0363518 0.1 1.14299 0.118373
0.0363518 0.1 -1.14299 0.167084
1.14316 0.1 -0.0339211 0.310253
1.14316 0.1 0.0339211 0.304888
0.797314 0.1 0.821002 0.145051
1.10076 0.1 -0.314829 0.301215
1.10076 0.1 0.314829 0.258325
0.797314 0.1 -0.825 0.203531
0.756814 0.1 -0.8625 0.196102
0.756814 0.1 0.8625 0.137864
1.14316 0.1 -0.101763 0.313729
1.14316 0.1 0.101763 0.297808
0.835106 0.1 -0.7875 0.211292
0.835106 0.1 0.7875 0.151768
0.871687 0.1 -0.75 0.219156
0.871687 0.1 0.75 0.159196
0.67013 0.1 0.9375 0.126102
0.67013 0.1 -0.9375 0.182801
0.90582 0.1 -0.7125 0.2274
0.905821 0.1 0.7125 0.167127
0.714971 0.1 -0.903998 0.190001
1.11928 0.1 0.276143 0.267714
1.11928 0.1 -0.276143 0.307043
1.14316 0.1 0.169605 0.289093
1.14316 0.1 -0.169605 0.31491
0.93886 0.1 -0.675 0.236337
0.93886 0.1 0.675 0.175799
1.15704 0.1 0 0.310819
1.0579 0.1 0.468682 0.224371
1.0579 0.1 -0.468682 0.279452
0.623803 0.1 0.975 0.120848
0.623803 0.1 -0.975 0.176765
0.990306 0.1 0.6 0.192327
0.990306 0.1 -0.6 0.25205
1.15704 0.1 -0.0671479 0.315384
1.15704 0.1 0.0671479 0.304483
1.04168 0.1 -0.510414 0.271512
1.04168 0.1 0.510414 0.213989
0.969689 0.1 -0.6375 0.245625
0.969689 0.1 0.6375 0.184851
1.08012 0.1 0.425965 0.235258
1.08012 0.1 -0.425965 0.288263
0.287374 0.1 -1.125 0.154208
0.287374 0.1 1.125 0.104214
1.02149 0.1 -0.554443 0.262569
1.02149 0.1 0.554443 0.203187
0.574156 0.1 1.0125 0.115915
0.574156 0.1 -1.0125 0.170991
1.15704 0.1 -0.134296 0.317803
1.15704 0.1 0.134296 0.296468
0.075776 0.1 1.1625 0.116912
0.075776 0.1 -1.1625 0.166032
1.10076 0.1 -0.384791 0.296852
1.10076 0.1 0.384791 0.24608
1.14316 0.1 -0.237448 0.314648
1.14316 0.1 0.237448 0.278911
1.11928 0.1 -0.345179 0.303678
1.11928 0.1 0.345179 0.255867
0.522865 0.1 1.05 0.111524
0.522865 0.1 -1.05 0.165859
1.15704 0.1 -0.201444 0.318329
1.15704 0.1 0.201444 0.286901
1.1744 0.1 -0.0331401 0.317822
1.1744 0.1 0.0331401 0.312239
1.1744 0.1 -0.0994202 0.3216
1.1744 0.1 0.0994202 0.304931
0 0.1 1.18201 0.115481
0 0.1 -1.18201 0.164945
0.0363518 0.1 1.18201 0.115481
0.0363518 0.1 -1.18201 0.164945
0.219992 0.1 1.1625 0.100736
0.219993 0.1 -1.1625 0.150248
1.14316 0.1 0.30529 0.267443
1.14316 0.1 -0.30529 0.312355
0.467897 0.1 1.0875 0.107396
0.467897 0.1 -1.0875 0.160931
1.1744 0.1 -0.1657 0.322897
1.1744 0.1 0.1657 0.295984
1.15704 0.1 -0.268592 0.317167
1.15704 0.1 0.268592 0.275959
1.0579 0.1 0.540787 0.211025
1.0579 0.1 -0.540787 0.272017
0.796996 0.1 0.88201 0.137121
1.08012 0.1 -0.496959 0.281504
1.08012 0.1 0.496959 0.222036
1.10076 0.1 0.454752 0.232989
1.10076 0.1 -0.454752 0.290814
1.11928 0.1 -0.414214 0.29848
1.11928 0.1 0.414214 0.243056
1.04168 0.1 -0.58333 0.263486
1.04168 0.1 0.58333 0.200488
1.1744 0.1 -0.231981 0.322821
1.1744 0.1 0.231981 0.285576
0.871687 0.1 0.821002 0.148663
0.411108 0.1 1.125 0.104463
0.411108 0.1 -1.125 0.157235
1.19808 0.1 1.73472e-17 0.321054
0.990306 0.1 0.675 0.179361
0.990306 0.1 -0.675 0.243608
1.02149 0.1 0.628368 0.189623
1.02149 0.1 -0.628368 0.254043
1.19808 0.1 -0.0650961 0.325934
1.19808 0.1 0.0650961 0.31443
0 0.1 1.2 0.114165
0 0.1 -1.2 0.163945
0.871687 0.1 -0.825 0.211387
0.905821 0.1 -0.7875 0.219322
0.90582 0.1 0.7875 0.155482
0.835106 0.1 -0.8625 0.203824
0.835106 0.1 0.8625 0.1414
0.93886 0.1 -0.75 0.228045
0.93886 0.1 0.75 0.163695
1.14316 0.1 -0.373132 0.308065
1.14316 0.1 0.373132 0.254895
0.969689 0.1 0.7125 0.172296
0.969689 0.1 -0.7125 0.237139
1.15704 0.1 -0.33574 0.313952
1.15704 0.1 0.33574 0.263833
0.756813 0.1 0.9375 0.128559
0.756814 0.1 -0.9375 0.189295
1.19808 0.1 0.130192 0.306119
1.19808 0.1 -0.130192 0.328667
0.797314 0.1 -0.903998 0.197177
0.714971 0.1 0.975 0.12302
0.714971 0.1 -0.975 0.182815
0.150379 0.1 1.2 0.105873
0.150379 0.1 -1.2 0.15586
1.20938 0.1 -0.0322656 0.326513
1.20938 0.1 0.0322656 0.320688
1.1744 0.1 -0.298261 0.320736
1.1744 0.1 0.298261 0.273881
1.20938 0.1 -0.0967968 0.330608
1.20938 0.1 0.0967968 0.31312
1.19808 0.1 -0.195288 0.329414
1.19808 0.1 0.195288 0.29626
0.350249 0.1 1.1625 0.10181
0.350249 0.1 -1.1625 0.153787
0.67013 0.1 1.0125 0.117836
0.67013 0.1 -1.0125 0.176631
0 0.1 1.21799 0.112849
0 0.1 -1.21799 0.162945
0.0363518 0.1 -1.21799 0.162945
0.0363518 0.1 1.21799 0.112849
1.11928 0.1 -0.48325 0.291667
1.11928 0.1 0.48325 0.229514
1.10076 0.1 -0.524714 0.28329
1.10076 0.1 0.524714 0.219299
1.20938 0.1 0.161328 0.303914
1.20938 0.1 -0.161328 0.332146
1.08012 0.1 0.567953 0.208338
1.08012 0.1 -0.567953 0.273427
0.623803 0.1 1.05 0.113055
0.623803 0.1 -1.05 0.170898
1.0579 0.1 -0.612892 0.263435
1.0579 0.1 0.612892 0.197325
1.15704 0.1 -0.402888 0.308819
1.15704 0.1 0.402888 0.250734
1.14316 0.1 0.440974 0.241482
1.14316 0.1 -0.440974 0.302014
1.19808 0.1 -0.260384 0.328486
1.19808 0.1 0.260384 0.285032
1.2267 0.1 3.57064e-18 0.327746
1.2267 0.1 -0.0636649 0.332846
1.2267 0.1 0.0636649 0.320916
1.1744 0.1 -0.364541 0.31657
1.1744 0.1 0.364541 0.261105
0.574156 0.1 1.0875 0.108577
0.574156 0.1 -1.0875 0.165422
1.20938 0.1 0.225859 0.293257
1.20938 0.1 -0.225859 0.332224
1.04168 0.1 -0.656246 0.254463
1.04168 0.1 0.656246 0.186756
1.2267 0.1 -0.12733 0.335823
1.2267 0.1 0.12733 0.312394
0.287374 0.1 1.2 0.0984221
0.287374 0.1 -1.2 0.149858
1.02149 0.1 -0.702294 0.244689
1.02149 0.1 0.702294 0.175947
0.075776 0.1 -1.2375 0.161864
0.075776 0.1 1.2375 0.111425
0.871399 0.1 0.88201 0.139948
0.522865 0.1 1.125 0.104578
0.522865 0.1 -1.125 0.160536
1.2267 0.1 -0.190994 0.336752
1.2267 0.1 0.190994 0.30233
1.19808 0.1 -0.32548 0.32552
1.19808 0.1 0.32548 0.27262
0.990306 0.1 -0.75 0.234491
0.990306 0.1 0.75 0.166386
1.24274 0.1 -0.0314313 0.334641
1.24274 0.1 0.0314313 0.328566
1.20938 0.1 -0.29039 0.330408
1.20938 0.1 0.29039 0.281314
1.24274 0.1 -0.0942942 0.339022
1.24274 0.1 0.0942942 0.320734
0.93886 0.1 0.821002 0.152245
1.11928 0.1 -0.552285 0.283461
1.11928 0.1 0.552285 0.215476
1.15704 0.1 -0.470036 0.301998
1.15704 0.1 0.470036 0.23689
0.969689 0.1 -0.7875 0.228095
0.96969 0.1 0.7875 0.159763
0.93886 0.1 -0.825 0.219304
0.90582 0.1 0.8625 0.144001
0.905821 0.1 -0.8625 0.210904
1.1744 0.1 -0.430821 0.310582
1.1744 0.1 0.430821 0.247458
1.10076 0.1 -0.594676 0.274535
1.10076 0.1 0.594676 0.205232
1.14316 0.1 -0.508816 0.294402
1.14316 0.1 0.508816 0.227447
1.24274 0.1 -0.157157 0.340891
1.24274 0.1 0.157157 0.311272
1.2267 0.1 -0.254659 0.335997
1.2267 0.1 0.254659 0.2909
0.467897 0.1 1.1625 0.100825
0.467897 0.1 -1.1625 0.155849
1.08012 0.1 0.638947 0.194393
1.08012 0.1 -0.638947 0.264279
1.25511 0.1 -5.78241e-19 0.334403
0.835106 0.1 -0.9375 0.196122
0.835106 0.1 0.9375 0.131249
0.871687 0.1 -0.903998 0.204202
1.25511 0.1 0.0622446 0.327371
1.25511 0.1 -0.0622446 0.339713
0.219992 0.1 1.2375 0.0951832
0.219992 0.1 -1.2375 0.146038
0 0.1 -1.25701 0.160755
0 0.1 1.25701 0.110035
0.0363518 0.1 -1.25701 0.160755
0.0363518 0.1 1.25701 0.110035
0.797314 0.1 0.975 0.125203
0.797314 0.1 -0.975 0.189064
1.19808 0.1 -0.390576 0.320549
1.19808 0.1 0.390576 0.25923
1.0579 0.1 -0.684997 0.253948
1.0579 0.1 0.684997 0.183503
1.20938 0.1 -0.354921 0.32643
1.20938 0.1 0.354921 0.26829
1.25511 0.1 0.124489 0.318646
1.25511 0.1 -0.124489 0.342931
1.24274 0.1 -0.220019 0.341112
1.24274 0.1 0.220019 0.300366
0.756813 0.1 1.0125 0.119516
0.756814 0.1 -1.0125 0.182333
1.2267 0.1 -0.318324 0.33323
1.2267 0.1 0.318324 0.278287
0.411108 0.1 1.2 0.0982457
0.411108 0.1 -1.2 0.152408
1.25511 0.1 -0.186734 0.344056
1.25511 0.1 0.186734 0.308384
0.714971 0.1 1.05 0.114512
0.714971 0.1 -1.05 0.176205
1.04168 0.1 -0.729162 0.244712
1.04168 0.1 0.729162 0.173013
1.24274 0.1 0.282882 0.288177
1.24274 0.1 -0.282882 0.339583
0 0.1 1.275 0.108757
0 0.1 -1.275 0.159736
1.1744 0.1 0.497102 0.233183
1.1744 0.1 -0.497102 0.302973
1.15704 0.1 -0.537184 0.293703
1.15704 0.1 0.537184 0.222538
1.2756 0.1 -0.03061 0.342568
1.2756 0.1 0.03061 0.336215
0.67013 0.1 1.0875 0.109838
0.67013 0.1 -1.0875 0.170358
1.2756 0.1 -0.09183 0.347199
1.2756 0.1 0.09183 0.328112
1.25511 0.1 -0.248978 0.343471
1.25511 0.1 0.248978 0.296758
1.20938 0.1 0.419453 0.254391
1.20938 0.1 -0.419453 0.320564
1.11928 0.1 -0.621322 0.274105
1.11928 0.1 0.621322 0.201169
1.14316 0.1 -0.576659 0.28547
1.14316 0.1 0.576659 0.213018
1.19808 0.1 -0.455673 0.313807
1.19808 0.1 0.455673 0.245088
1.02149 0.1 0.776219 0.162355
1.02149 0.1 -0.776219 0.23478
0.150379 0.1 1.275 0.100428
0.150379 0.1 -1.275 0.151632
1.2756 0.1 -0.15305 0.349487
1.2756 0.1 0.15305 0.318394
1.2267 0.1 -0.381989 0.328408
1.2267 0.1 0.381989 0.264698
1.10076 0.1 -0.664638 0.264784
1.10076 0.1 0.664638 0.191028
0.350249 0.1 1.2375 0.0959172
0.350249 0.1 -1.2375 0.14921
0.623803 0.1 1.125 0.105517
0.623803 0.1 -1.125 0.164945
0.9386 0.1 0.88201 0.142824
0.990306 0.1 0.825 0.153968
0.990306 0.1 -0.825 0.224926
1.24274 0.1 -0.345745 0.33583
1.24274 0.1 0.345745 0.274907
1.2906 0.1 0 0.342738
1.07933 0.1 0.709941 0.180426
1.2906 0.1 -0.0604698 0.34838
1.2906 0.1 0.0604698 0.335378
1.08012 0.1 -0.709941 0.254325
0 0.1 1.29299 0.107479
0 0.1 -1.29299 0.158717
1.25511 0.1 0.311223 0.283949
1.25511 0.1 -0.311223 0.340908
1.2756 0.1 -0.214269 0.349897
1.2756 0.1 0.214269 0.307235
0.0363518 0.1 1.29299 0.107479
0.0363518 0.1 -1.29299 0.158717
1.2906 0.1 -0.12094 0.352004
1.2906 0.1 0.12094 0.326332
0.574156 0.1 1.1625 0.101479
0.574157 0.1 -1.1625 0.159779
0.969689 0.1 0.8625 0.147591
0.969689 0.1 -0.8625 0.218693
1.0579 0.1 0.757102 0.169775
1.0579 0.1 -0.757102 0.243843
1.1744 0.1 -0.563382 0.293965
1.1744 0.1 0.563382 0.218509
1.20938 0.1 0.483984 0.239859
1.20938 0.1 -0.483984 0.313
1.2906 0.1 -0.181409 0.353473
1.2906 0.1 0.181409 0.315761
0.93886 0.1 -0.903998 0.211271
0.90582 0.1 0.9375 0.132903
0.90582 0.1 -0.9375 0.202309
1.2756 0.1 0.275489 0.294798
1.2756 0.1 -0.275489 0.348648
1.2267 0.1 -0.445653 0.321756
1.2267 0.1 0.445653 0.250355
1.15704 0.1 -0.604332 0.284175
1.15704 0.1 0.604332 0.207901
1.19808 0.1 -0.520769 0.305495
1.19808 0.1 0.520769 0.23043
1.30646 0.1 0.0298385 0.34309
1.30646 0.1 -0.0298385 0.349716
0.287374 0.1 -1.275 0.145429
0.287374 0.1 1.275 0.0927757
0.871687 0.1 0.975 0.126964
0.871687 0.1 -0.975 0.195137
1.24274 0.1 0.408607 0.260767
1.24274 0.1 -0.408607 0.330133
0.522865 0.1 1.2 0.0978674
0.522865 0.1 -1.2 0.155151