# UMean  POINT_DATA 63140
# x  y  z  UMean_x  UMean_y  UMean_z
0 0.1 0 0.866025 0 0.5
0 0.1 -0.0179898 0.866025 0 0.5
0 0.1 0.0179898 0.866025 0 0.5
0.0363518 0.1 0.0179898 0.868944 0.00708352 0.501371
0.0363518 0.1 -0.0179898 0.86894 0.00709722 0.500997
0 0.1 -0.0570102 0.866025 0 0.5
0 0.1 0.0570102 0.866025 0 0.5
0.0363518 0.1 0.0570102 0.868944 0.00708352 0.501371
0.0363518 0.1 -0.0570102 0.86894 0.00709722 0.500997
0 0.1 -0.075 0.866025 0 0.5
0 0.1 0.075 0.866025 0 0.5
0.075776 0.1 -0.0375 0.872144 0.0149122 0.502073
0.075776 0.1 0.0375 0.872153 0.0148846 0.502852
0 0.1 -0.0929898 0.866025 0 0.5
0 0.1 0.0929898 0.866025 0 0.5
0.0363518 0.1 -0.0929898 0.868908 0.00710699 0.500619
0.0363518 0.1 0.0929898 0.868926 0.00705688 0.501735
0 0.1 -0.13201 0.866025 0 0.5
0 0.1 0.13201 0.866025 0 0.5
0.075776 0.1 -0.1125 0.872075 0.0149324 0.501284
0.075776 0.1 0.1125 0.872117 0.0148304 0.50361
0.0363518 0.1 -0.13201 0.868908 0.00710699 0.500619
0.0363518 0.1 0.13201 0.868926 0.00705688 0.501735
0 0.1 -0.15 0.866025 0 0.5
0 0.1 0.15 0.866025 0 0.5
0.150379 0.1 -2.22623e-17 0.873788 0.0141735 0.50367
0 0.1 -0.16799 0.866025 0 0.5
0 0.1 0.16799 0.866025 0 0.5
0.150379 0.1 -0.075 0.873702 0.0141603 0.502298
0.150379 0.1 0.075 0.873919 0.0141606 0.505022
0.0363518 0.1 -0.16799 0.868866 0.00709323 0.500218
0.0363518 0.1 0.16799 0.8689 0.0070182 0.502079
0.075776 0.1 -0.1875 0.871989 0.0149043 0.500446
0.075776 0.1 0.1875 0.872064 0.0147517 0.504328
0 0.1 -0.20701 0.866025 0 0.5
0 0.1 0.20701 0.866025 0 0.5
0.0363518 0.1 -0.20701 0.868866 0.00709323 0.500218
0.0363518 0.1 0.20701 0.8689 0.0070182 0.502079
0.150379 0.1 -0.15 0.873679 0.0141219 0.500927
0.150379 0.1 0.15 0.874114 0.0141189 0.50632
0.219993 0.1 -0.0375 0.875256 0.0134693 0.503849
0.219993 0.1 0.0375 0.875456 0.0135016 0.505796
0 0.1 -0.225 0.866025 0 0.5
0 0.1 0.225 0.866025 0 0.5
0 0.1 -0.24299 0.866025 0 0.5
0 0.1 0.24299 0.866025 0 0.5
0.0363518 0.1 0.24299 0.868864 0.00697325 0.502394
0.0363518 0.1 -0.24299 0.868812 0.00704796 0.499832
0.219993 0.1 -0.1125 0.875192 0.0134042 0.501931
0.219993 0.1 0.1125 0.875792 0.0134969 0.507666
0.150379 0.1 -0.225 0.873752 0.0140502 0.499569
0.150379 0.1 0.225 0.874377 0.0140507 0.507559
0.075776 0.1 -0.2625 0.871877 0.0148113 0.499642
0.075776 0.1 0.2625 0.871991 0.0146604 0.504984
0 0.1 -0.28201 0.866025 0 0.5
0 0.1 0.28201 0.866025 0 0.5
0.0363518 0.1 -0.28201 0.868812 0.00704796 0.499832
0.0363518 0.1 0.28201 0.868864 0.00697325 0.502394
0.287374 0.1 -2.89121e-19 0.87235 0.0130465 0.50556
0.219992 0.1 0.1875 0.876302 0.0134655 0.509463
0.219992 0.1 -0.1875 0.875313 0.0133268 0.500041
0.287374 0.1 -0.075 0.872246 0.013 0.503085
0.287374 0.1 0.075 0.872612 0.0130694 0.508012
0 0.1 -0.3 0.866025 0 0.5
0 0.1 0.3 0.866025 0 0.5
0 0.1 0.31799 0.866025 0 0.5
0 0.1 -0.31799 0.866025 0 0.5
0.0363518 0.1 -0.31799 0.868758 0.00700345 0.499449
0.0363518 0.1 0.31799 0.868829 0.00693389 0.502677
0.287374 0.1 0.15 0.873036 0.0130653 0.510399
0.287374 0.1 -0.15 0.872318 0.0129396 0.500635
0.150379 0.1 -0.3 0.87395 0.01397 0.498234
0.150379 0.1 0.3 0.874669 0.0139634 0.508729
0.219993 0.1 0.2625 0.876942 0.0133929 0.511201
0.219993 0.1 -0.2625 0.875668 0.0132395 0.498188
0.075776 0.1 -0.3375 0.871767 0.0147214 0.498842
0.075776 0.1 0.3375 0.871921 0.0145804 0.505574
0.350249 0.1 -0.0375 0.869393 0.0126076 0.504769
0.350249 0.1 0.0375 0.869564 0.0126469 0.507763
0 0.1 -0.35701 0.866025 0 0.5
0 0.1 0.35701 0.866025 0 0.5
0.0363518 0.1 -0.35701 0.868758 0.00700345 0.499449
0.0363518 0.1 0.35701 0.868829 0.00693389 0.502677
0.287374 0.1 -0.225 0.872592 0.012874 0.498222
0.287374 0.1 0.225 0.873627 0.013025 0.51271
0.350249 0.1 -0.1125 0.869409 0.012558 0.501775
0.350249 0.1 0.1125 0.869904 0.0126709 0.510713
0 0.1 -0.375 0.866025 0 0.5
0 0.1 0.375 0.866025 0 0.5
0 0.1 -0.39299 0.866025 0 0.5
0 0.1 0.39299 0.866025 0 0.5
0.0363518 0.1 -0.39299 0.868727 0.00697298 0.49909
0.0363518 0.1 0.39299 0.868804 0.00689878 0.502922
0.350249 0.1 -0.1875 0.86962 0.0125078 0.498822
0.350249 0.1 0.1875 0.870414 0.0126653 0.513598
0.219992 0.1 -0.3375 0.876299 0.0131879 0.496356
0.219992 0.1 0.3375 0.877581 0.013288 0.512847
0.150379 0.1 0.375 0.874948 0.0138682 0.509809
0.150379 0.1 -0.375 0.874219 0.0139138 0.496933
0.411108 0.1 4.33681e-19 0.864562 0.0129129 0.506624
0.287374 0.1 -0.3 0.873098 0.0128161 0.495856
0.287374 0.1 0.3 0.874342 0.0129395 0.514922
0.411108 0.1 -0.075 0.864515 0.0128662 0.503018
0.411108 0.1 0.075 0.864839 0.0129476 0.510209
0.075776 0.1 -0.4125 0.871705 0.01466 0.498093
0.075776 0.1 0.4125 0.871871 0.0145086 0.506085
0 0.1 0.43201 0.866025 0 0.5
0 0.1 -0.43201 0.866025 0 0.5
0.0363518 0.1 0.43201 0.868804 0.00689878 0.502922
0.0363518 0.1 -0.43201 0.868727 0.00697298 0.49909
0.411108 0.1 -0.15 0.864706 0.0128148 0.499443
0.411108 0.1 0.15 0.865333 0.0129604 0.513728
0.350249 0.1 -0.2625 0.870028 0.0124589 0.495914
0.350249 0.1 0.2625 0.871117 0.0126131 0.516373
0 0.1 -0.45 0.866025 0 0.5
0 0.1 0.45 0.866025 0 0.5
0.219992 0.1 0.4125 0.878147 0.0131658 0.514369
0.219992 0.1 -0.4125 0.876883 0.0131646 0.494581
0 0.1 -0.46799 0.866025 0 0.5
0 0.1 0.46799 0.866025 0 0.5
0.411108 0.1 -0.225 0.865131 0.0127604 0.495932
0.411108 0.1 0.225 0.866052 0.0129362 0.517136
0.467897 0.1 -0.0375 0.859769 0.0131627 0.504868
0.467897 0.1 0.0375 0.85993 0.0132079 0.509065
0.0363518 0.1 0.46799 0.868787 0.00687058 0.503127
0.0363518 0.1 -0.46799 0.868707 0.00694862 0.498759
0.287374 0.1 -0.375 0.873742 0.0127686 0.493559
0.287374 0.1 0.375 0.875105 0.0128151 0.516991
0.150379 0.1 0.45 0.875205 0.0137747 0.510773
0.150379 0.1 -0.45 0.874459 0.01387 0.495714
0.467897 0.1 0.1125 0.860362 0.0132375 0.513217
0.467897 0.1 -0.1125 0.859896 0.0131102 0.500681
0.350249 0.1 -0.3375 0.870655 0.0124146 0.493088
0.350249 0.1 0.3375 0.87199 0.0125006 0.519017
0.075776 0.1 -0.4875 0.871666 0.0146103 0.497403
0.075776 0.1 0.4875 0.871837 0.0144512 0.506513
0.467897 0.1 0.1875 0.861054 0.0132407 0.517255
0.467897 0.1 -0.1875 0.860301 0.013057 0.496563
0 0.1 -0.50701 0.866025 0 0.5
0 0.1 0.50701 0.866025 0 0.5
0.0363518 0.1 -0.50701 0.868707 0.00694862 0.498759
0.0363518 0.1 0.50701 0.868787 0.00687058 0.503127
0.411108 0.1 0.3 0.866999 0.0128584 0.520394
0.411108 0.1 -0.3 0.865785 0.0127036 0.492528
0.522865 0.1 1.41031e-17 0.853664 0.0137947 0.506946
0 0.1 -0.525 0.866025 0 0.5
0 0.1 0.525 0.866025 0 0.5
0.522865 0.1 -0.075 0.853694 0.0137414 0.502115
0.522865 0.1 0.075 0.853975 0.0138304 0.511767
0.287374 0.1 0.45 0.875868 0.0126655 0.518868
0.287374 0.1 -0.45 0.874368 0.0127066 0.491396
0.219992 0.1 0.4875 0.878668 0.0130457 0.51572
0.219992 0.1 -0.4875 0.877336 0.013123 0.492962
0.467897 0.1 -0.2625 0.860966 0.0129923 0.492547
0.467897 0.1 0.2625 0.862015 0.0131982 0.521144
0.350249 0.1 -0.4125 0.871388 0.0123446 0.490373
0.350249 0.1 0.4125 0.872949 0.0123441 0.521437
0 0.1 -0.54299 0.866025 0 0.5
0 0.1 0.54299 0.866025 0 0.5
0.522865 0.1 0.15 0.854615 0.0138396 0.516502
0.522865 0.1 -0.15 0.854063 0.0136757 0.497341
0.0363518 0.1 0.54299 0.868779 0.00684815 0.503304
0.0363518 0.1 -0.54299 0.8687 0.00692516 0.498462
0.150379 0.1 -0.525 0.874666 0.0138219 0.494599
0.150379 0.1 0.525 0.875433 0.0136889 0.511591
0.411108 0.1 -0.375 0.866626 0.0126312 0.489273
0.411108 0.1 0.375 0.868137 0.0127241 0.523442
0.075776 0.1 -0.5625 0.871652 0.0145624 0.496786
0.075776 0.1 0.5625 0.871819 0.0144056 0.506882
0.522865 0.1 -0.225 0.854752 0.0135938 0.492686
0.522865 0.1 0.225 0.855577 0.0138101 0.521083
0.574156 0.1 0.0375 0.847781 0.0144013 0.509657
0.574157 0.1 -0.0375 0.847655 0.0143542 0.504194
0.467897 0.1 -0.3375 0.861871 0.0129237 0.488724
0.467897 0.1 0.3375 0.863254 0.0130936 0.524822
0 0.1 -0.58201 0.866025 0 0.5
0 0.1 0.58201 0.866025 0 0.5
0.0363518 0.1 -0.58201 0.8687 0.00692516 0.498462
0.0363518 0.1 0.58201 0.868779 0.00684815 0.503304
0.574157 0.1 -0.1125 0.847932 0.0142862 0.498765
0.574157 0.1 0.1125 0.848306 0.0144221 0.515078
0.287374 0.1 -0.525 0.874947 0.012621 0.489414
0.287374 0.1 0.525 0.876592 0.0124999 0.520507
0 0.1 -0.6 0.866025 0 0.5
0 0.1 0.6 0.866025 0 0.5
0.350249 0.1 0.4875 0.873939 0.0121468 0.523614
0.350249 0.1 -0.4875 0.872112 0.0122342 0.487871
0.522865 0.1 -0.3 0.855734 0.0134939 0.488228
0.522865 0.1 0.3 0.856866 0.0137261 0.525453
0.219992 0.1 -0.5625 0.877743 0.0130699 0.491472
0.219992 0.1 0.5625 0.879089 0.0129288 0.516807
0.574156 0.1 -0.1875 0.848592 0.0141981 0.493453
0.574156 0.1 0.1875 0.849211 0.0144059 0.52036
0.411108 0.1 0.45 0.869399 0.0125382 0.526224
0.411108 0.1 -0.45 0.867562 0.0125202 0.486228
0 0.1 -0.61799 0.866025 0 0.5
0 0.1 0.61799 0.866025 0 0.5
0.150379 0.1 -0.6 0.874858 0.0137707 0.49359
0.150379 0.1 0.6 0.875633 0.0136072 0.512255
0.0363518 0.1 -0.61799 0.868703 0.00690621 0.498196
0.0363518 0.1 0.61799 0.86878 0.00682552 0.503458
0.467897 0.1 -0.4125 0.862958 0.0128182 0.485107
0.467897 0.1 0.4125 0.864718 0.01293 0.528229
0.623803 0.1 2.34188e-17 0.840556 0.0152692 0.506584
0.623803 0.1 0.075 0.840889 0.0153048 0.512702
0.623803 0.1 -0.075 0.8407 0.0151996 0.500474
0.574156 0.1 0.2625 0.850491 0.014344 0.525428
0.574156 0.1 -0.2625 0.849606 0.0140784 0.488325
0.623803 0.1 0.15 0.84169 0.0153 0.518728
0.623803 0.1 -0.15 0.841307 0.0150972 0.494467
0.075776 0.1 0.6375 0.871821 0.0143596 0.5072
0.075776 0.1 -0.6375 0.87166 0.0145237 0.49623
0.522865 0.1 -0.375 0.856962 0.0133658 0.484026
0.522865 0.1 0.375 0.858463 0.0135785 0.529547
0 0.1 0.65701 0.866025 0 0.5
0 0.1 -0.65701 0.866025 0 0.5
0.0363518 0.1 0.65701 0.86878 0.00682552 0.503458
0.0363518 0.1 -0.65701 0.868703 0.00690621 0.498196
0.350249 0.1 0.5625 0.874879 0.011923 0.525521
0.350249 0.1 -0.5625 0.872829 0.0121004 0.485593
0.623803 0.1 0.225 0.842943 0.0152469 0.52456
0.623803 0.1 -0.225 0.842348 0.0149574 0.488652
0.287374 0.1 -0.6 0.875492 0.0125169 0.487624
0.287374 0.1 0.6 0.87725 0.0123291 0.521875
0.574157 0.1 -0.3375 0.850933 0.0139344 0.483498
0.574157 0.1 0.3375 0.852152 0.0142179 0.530226
0.411108 0.1 0.525 0.870706 0.0123076 0.528705
0.411108 0.1 -0.525 0.868532 0.0123719 0.48345
0.67013 0.1 0.0375 0.833683 0.0161547 0.509648
0.67013 0.1 -0.0375 0.833619 0.0160948 0.502862
0.219992 0.1 -0.6375 0.878092 0.0130056 0.490137
0.219993 0.1 0.6375 0.879462 0.012814 0.51766
0 0.1 -0.675 0.866025 0 0.5
0 0.1 0.675 0.866025 0 0.5
0.467897 0.1 -0.4875 0.864139 0.0126618 0.481795
0.467897 0.1 0.4875 0.866327 0.0127046 0.531312
0.67013 0.1 -0.1125 0.834102 0.0159921 0.496148
0.67013 0.1 0.1125 0.834299 0.016169 0.516401
0.522865 0.1 0.45 0.860309 0.0133658 0.533303
0.522865 0.1 -0.45 0.858369 0.0131899 0.480138
0.150379 0.1 0.675 0.875828 0.0135271 0.512785
0.150379 0.1 -0.675 0.87503 0.0137165 0.492692
0.623803 0.1 0.3 0.844639 0.0151344 0.530119
0.623803 0.1 -0.3 0.843781 0.014779 0.483135
0 0.1 -0.69299 0.866025 0 0.5
0 0.1 0.69299 0.866025 0 0.5
0.0363518 0.1 -0.69299 0.868714 0.00688854 0.497954
0.0363518 0.1 0.69299 0.868787 0.00680394 0.503583
0.67013 0.1 -0.1875 0.8351 0.015843 0.489617
0.67013 0.1 0.1875 0.835452 0.0161312 0.523001
0.574156 0.1 0.4125 0.854158 0.0140231 0.534678
0.574157 0.1 -0.4125 0.852511 0.0137433 0.478993
0.714971 0.1 -2.8382e-17 0.825768 0.017269 0.505641
0.075776 0.1 -0.7125 0.871681 0.0144875 0.495728
0.075776 0.1 0.7125 0.871835 0.0143156 0.507461
0.714971 0.1 -0.075 0.826068 0.0171638 0.498206
0.714971 0.1 0.075 0.826105 0.0173157 0.513115
0.67013 0.1 0.2625 0.837115 0.0160357 0.529332
0.67013 0.1 -0.2625 0.836578 0.0156437 0.483372
0.411108 0.1 -0.6 0.869514 0.0121945 0.480963
0.411108 0.1 0.6 0.871996 0.0120527 0.530847
0.350249 0.1 0.6375 0.875756 0.0117 0.527112
0.350249 0.1 -0.6375 0.873521 0.0119391 0.483567
0.623803 0.1 0.375 0.84676 0.0149513 0.535328
0.623803 0.1 -0.375 0.845544 0.014556 0.477991
0.714971 0.1 -0.15 0.826981 0.0170001 0.490934
0.714971 0.1 0.15 0.827076 0.0173002 0.520498
0.467897 0.1 -0.5625 0.865376 0.0124713 0.478809
0.467897 0.1 0.5625 0.86799 0.0124304 0.534035
0 0.1 -0.73201 0.866025 0 0.5
0 0.1 0.73201 0.866025 0 0.5
0.0363518 0.1 0.73201 0.868787 0.00680394 0.503583
0.0363518 0.1 -0.73201 0.868714 0.00688854 0.497954
0.287374 0.1 -0.675 0.875997 0.0123979 0.486043
0.287374 0.1 0.675 0.877872 0.0121603 0.522978
0.522865 0.1 -0.525 0.859892 0.0129698 0.476627
0.522865 0.1 0.525 0.862318 0.0130909 0.53667
0.219993 0.1 -0.7125 0.878388 0.0129294 0.488971
0.219992 0.1 0.7125 0.879836 0.0127018 0.518325
0.714971 0.1 -0.225 0.828466 0.0167752 0.483947
0.714971 0.1 0.225 0.828657 0.0172183 0.527658
0 0.1 0.75 0.866025 0 0.5
0 0.1 -0.75 0.866025 0 0.5
0.67013 0.1 -0.3375 0.838472 0.0153967 0.477541
0.67013 0.1 0.3375 0.839279 0.0158706 0.535325
0.574156 0.1 -0.4875 0.854273 0.0134963 0.47491
0.574157 0.1 0.4875 0.856439 0.0137575 0.538721
0.756813 0.1 0.0375 0.818131 0.0184167 0.509126
0.756814 0.1 -0.0375 0.818161 0.018324 0.500966
0.150379 0.1 0.746002 0.875943 0.0134681 0.513073
0.150379 0.1 -0.75 0.875197 0.0136581 0.491902
0.756813 0.1 -0.1125 0.818905 0.0181601 0.492932
0.756813 0.1 0.1125 0.818828 0.0184358 0.517275
0 0.1 0.76799 0.866025 0 0.5
0 0.1 -0.76799 0.866025 0 0.5
0.0363518 0.1 0.76799 0.868796 0.00678558 0.503677
0.0363518 0.1 -0.76799 0.868726 0.00686996 0.49774
0.623803 0.1 -0.45 0.847571 0.014278 0.473285
0.623803 0.1 0.45 0.849253 0.0146943 0.540111
0.714971 0.1 -0.3 0.830465 0.0164904 0.477363
0.714971 0.1 0.3 0.830822 0.0170639 0.534481
0.756814 0.1 -0.1875 0.82032 0.0179236 0.485166
0.756814 0.1 0.1875 0.820239 0.0183782 0.52526
0.67013 0.1 -0.4125 0.840706 0.0150905 0.472162
0.67013 0.1 0.4125 0.841911 0.0156263 0.540874
0.411108 0.1 0.675 0.873247 0.0117913 0.532622
0.411108 0.1 -0.675 0.870493 0.0119974 0.478782
0.467897 0.1 0.6375 0.869638 0.0121346 0.53635
0.467897 0.1 -0.6375 0.866637 0.01225 0.476177
0.075776 0.1 0.7875 0.871853 0.0142783 0.507657
0.075776 0.1 -0.7875 0.871706 0.0144495 0.495283
0.350249 0.1 -0.7125 0.874189 0.0117693 0.4818
0.350249 0.1 0.7125 0.876597 0.0114795 0.528386
0.522865 0.1 -0.6 0.861487 0.0127175 0.473515
0.522865 0.1 0.6 0.864399 0.0127696 0.539599
0.797314 0.1 -3.59473e-17 0.80977 0.0198173 0.50422
0.287374 0.1 0.746002 0.878479 0.0120117 0.523702
0.797314 0.1 -0.075 0.81028 0.0196512 0.49542
0.797314 0.1 0.075 0.810081 0.0198935 0.513099
0.756814 0.1 -0.2625 0.822352 0.0176123 0.477798
0.756814 0.1 0.2625 0.822324 0.0182428 0.532937
0.287374 0.1 -0.75 0.876488 0.0122727 0.484668
0.574156 0.1 -0.5625 0.856161 0.0132136 0.471273
0.574156 0.1 0.5625 0.858893 0.0134254 0.542302
0 0.1 0.80701 0.866025 0 0.5
0 0.1 -0.80701 0.866025 0 0.5
0.714971 0.1 -0.375 0.832901 0.0161433 0.471276
0.714971 0.1 0.375 0.83354 0.0168278 0.540873
0.0363518 0.1 0.80701 0.868796 0.00678558 0.503677
0.0363518 0.1 -0.80701 0.868726 0.00686996 0.49774
0.797314 0.1 -0.15 0.811573 0.0193969 0.486859
0.797314 0.1 0.15 0.811213 0.0198767 0.521896
0.623803 0.1 -0.525 0.849791 0.013954 0.469081
0.623803 0.1 0.525 0.852033 0.0143641 0.544407
0.219992 0.1 0.7875 0.880218 0.0125888 0.518819
0.219992 0.1 -0.7875 0.8787 0.0128484 0.487952
0.149792 0.1 0.80701 0.876175 0.0133945 0.513416
0 0.1 0.825 0.866025 0 0.5
0 0.1 -0.825 0.866025 0 0.5
0.797314 0.1 -0.225 0.813588 0.0190541 0.478684
0.797314 0.1 0.225 0.813139 0.0197656 0.530447
0.756813 0.1 -0.3375 0.824925 0.0172349 0.470944
0.756813 0.1 0.3375 0.825054 0.0180228 0.540186
0.67013 0.1 0.4875 0.844938 0.0153049 0.545925
0.67013 0.1 -0.4875 0.843212 0.0147272 0.467336
0.835106 0.1 -0.0375 0.801734 0.021139 0.498629
0.835106 0.1 0.0375 0.801559 0.02129 0.508204
0.150379 0.1 -0.825 0.875372 0.0135985 0.491214
0.835106 0.1 -0.1125 0.802815 0.0208845 0.489242
0.835106 0.1 0.1125 0.802309 0.0213307 0.517794
0 0.1 -0.84299 0.866025 0 0.5
0 0.1 0.84299 0.866025 0 0.5
0.0363518 0.1 -0.84299 0.868739 0.00685181 0.497554
0.0363518 0.1 0.84299 0.868803 0.00677038 0.503739
0.714971 0.1 -0.45 0.835694 0.0157347 0.465769
0.714971 0.1 0.45 0.836755 0.0165066 0.54674
0.411108 0.1 0.746002 0.874449 0.0115373 0.533871
0.797314 0.1 -0.3 0.816262 0.0186271 0.471018
0.797314 0.1 0.3 0.815814 0.0195574 0.538601
0.467897 0.1 -0.7125 0.867908 0.0120165 0.473902
0.467897 0.1 0.7125 0.871243 0.0118316 0.538238
0.522865 0.1 0.675 0.866484 0.012423 0.542053
0.522865 0.1 -0.675 0.86312 0.0124436 0.47082
0.411108 0.1 -0.75 0.871471 0.0117933 0.476905
0.835106 0.1 -0.1875 0.804735 0.0205259 0.480226
0.835107 0.1 0.1875 0.803973 0.0212611 0.527214
0.286844 0.1 0.80701 0.878944 0.011866 0.524322
0.574156 0.1 0.6375 0.861421 0.0130451 0.545369
0.574157 0.1 -0.6375 0.858126 0.0129023 0.468107
0.350249 0.1 -0.7875 0.874859 0.0115995 0.480278
0.350249 0.1 0.7875 0.877418 0.0112582 0.52935
0.756813 0.1 -0.4125 0.827944 0.016782 0.464693
0.756814 0.1 0.4125 0.828381 0.0177102 0.546924
0.623803 0.1 -0.6 0.852142 0.0135984 0.465405
0.623803 0.1 0.6 0.854996 0.0139682 0.548155
0.075776 0.1 0.8625 0.87187 0.0142475 0.507785
0.075776 0.1 -0.8625 0.871733 0.0144126 0.494895
0.871687 0.1 -3.2767e-18 0.792991 0.0228514 0.502402
0.287374 0.1 -0.825 0.876986 0.0121461 0.483489
0.871687 0.1 -0.075 0.793747 0.022593 0.49221
0.871687 0.1 0.075 0.793252 0.0229818 0.512725
0.67013 0.1 -0.5625 0.84591 0.0143288 0.463091
0.67013 0.1 0.5625 0.848269 0.0149055 0.550399
0.835106 0.1 0.2625 0.806505 0.0210803 0.536295
0.835106 0.1 -0.2625 0.807413 0.0200653 0.471711
0.797314 0.1 -0.375 0.819503 0.01812 0.463985
0.797314 0.1 0.375 0.819193 0.0192477 0.546236
0 0.1 -0.88201 0.866025 0 0.5
0 0.1 0.88201 0.866025 0 0.5
0.0363518 0.1 0.88201 0.868803 0.00677038 0.503739
0.0363518 0.1 -0.88201 0.868739 0.00685181 0.497554
0.871687 0.1 0.15 0.794536 0.0229788 0.522979
0.871687 0.1 -0.15 0.795472 0.0222156 0.482346
0.714971 0.1 0.525 0.84038 0.0161012 0.552003
0.714971 0.1 -0.525 0.838761 0.0152802 0.460908
0.219993 0.1 0.8625 0.880597 0.0124735 0.51916
0.219992 0.1 -0.8625 0.879024 0.0127677 0.487076
0 0.1 0.9 0.866025 0 0.5
0 0.1 -0.9 0.866025 0 0.5
0.756813 0.1 0.4875 0.832228 0.0173063 0.553014
0.756814 0.1 -0.4875 0.831331 0.016275 0.459147
0.871687 0.1 0.225 0.796811 0.0228427 0.532968
0.871687 0.1 -0.225 0.798074 0.0217194 0.472963
0.835106 0.1 -0.3375 0.810802 0.0195117 0.463816
0.835106 0.1 0.3375 0.809845 0.0207857 0.544859
0.41063 0.1 0.80701 0.875372 0.0113272 0.534843
0.90582 0.1 -0.0375 0.784732 0.0243158 0.495904
0.905821 0.1 0.0375 0.784406 0.0245576 0.506924
0.522865 0.1 0.746002 0.868499 0.0120758 0.543841
0.150379 0.1 0.9 0.876431 0.013302 0.513665
0.90582 0.1 0.1125 0.785205 0.0246437 0.517991
0.905821 0.1 -0.1125 0.786168 0.0239329 0.485154
0.522865 0.1 -0.75 0.864767 0.0121594 0.468538
0.574156 0.1 0.7125 0.863943 0.0126417 0.547888
0.574156 0.1 -0.7125 0.860132 0.0125765 0.465416
0.797314 0.1 -0.45 0.823205 0.0175457 0.457693
0.797314 0.1 0.45 0.823205 0.0188357 0.553236
0.467897 0.1 -0.7875 0.869182 0.0117762 0.47198
0.467897 0.1 0.7875 0.872804 0.0115258 0.539694
0.150379 0.1 -0.903998 0.875616 0.0135277 0.490589
0 0.1 0.91799 0.866025 0 0.5
0 0.1 -0.91799 0.866025 0 0.5
0.0363518 0.1 0.91799 0.868809 0.0067568 0.503765
0.0363518 0.1 -0.91799 0.868752 0.00683539 0.497396
0.623803 0.1 0.675 0.858036 0.0135256 0.551311
0.623803 0.1 -0.675 0.854568 0.013222 0.462269
0.411108 0.1 -0.825 0.872448 0.0115866 0.475325
0.871687 0.1 0.3 0.800017 0.022574 0.542503
0.871687 0.1 -0.3 0.801494 0.0211085 0.464192
0.67013 0.1 -0.6375 0.84873 0.0139032 0.459452
0.67013 0.1 0.6375 0.851775 0.0144367 0.554241
0.90582 0.1 -0.1875 0.788618 0.0234232 0.474887
0.90582 0.1 0.1875 0.78712 0.0245739 0.528886
0.350249 0.1 0.8625 0.878221 0.0110398 0.530018
0.350249 0.1 -0.8625 0.875531 0.0114288 0.478997
0.835106 0.1 -0.4125 0.814757 0.018873 0.456715
0.835106 0.1 0.4125 0.813941 0.0203768 0.552813
0.714971 0.1 -0.6 0.84201 0.0147956 0.456718
0.714971 0.1 0.6 0.844302 0.0156158 0.556602
0.93886 0.1 -1.15648e-17 0.775737 0.0266034 0.500278
0.075776 0.1 0.9375 0.871883 0.0142198 0.50784
0.075776 0.1 -0.9375 0.871759 0.0143791 0.494566
0.93886 0.1 0.075 0.775918 0.0268171 0.512104
0.93886 0.1 -0.075 0.776794 0.0262122 0.488638
0.756813 0.1 0.5625 0.836496 0.0168127 0.558421
0.756814 0.1 -0.5625 0.834975 0.0157312 0.454339
0.905821 0.1 -0.2625 0.791962 0.0227723 0.465189
0.905821 0.1 0.2625 0.790101 0.0243505 0.539408
0.287374 0.1 0.9 0.87967 0.0116577 0.524856
0.287374 0.1 -0.903998 0.877402 0.012016 0.482496
0.871687 0.1 0.375 0.804086 0.0221749 0.551424
0.871687 0.1 -0.375 0.805634 0.0204002 0.456217
0.93886 0.1 -0.15 0.779017 0.0256673 0.477429
0.93886 0.1 0.15 0.777334 0.0268442 0.523874
0.797314 0.1 0.525 0.827747 0.0183259 0.559504
0.797314 0.1 -0.525 0.827258 0.0169255 0.452205
0 0.1 0.95701 0.866025 0 0.5
0 0.1 -0.95701 0.866025 0 0.5
0.0363518 0.1 0.95701 0.868809 0.0067568 0.503765
0.0363518 0.1 -0.95701 0.868752 0.00683539 0.497396
0.522433 0.1 0.80701 0.870066 0.0117919 0.545181
0.219992 0.1 0.9375 0.880965 0.0123608 0.519344
0.219992 0.1 -0.9375 0.879344 0.0126855 0.486344
0.93886 0.1 0.225 0.779956 0.0266861 0.535359
0.93886 0.1 -0.225 0.782261 0.0249708 0.466793
0.90582 0.1 0.3375 0.794058 0.023976 0.549343
0.905821 0.1 -0.3375 0.796212 0.0219996 0.456242
0.835106 0.1 -0.4875 0.819176 0.0181804 0.450469
0.835107 0.1 0.4875 0.818693 0.0198578 0.559995
0.969689 0.1 -0.0375 0.767392 0.0285245 0.49289
0.969689 0.1 0.0375 0.766841 0.0288949 0.505443
0.61613 0.1 0.75 0.861067 0.013058 0.553847
0.574156 0.1 -0.7875 0.862141 0.0122428 0.463189
0.574156 0.1 0.7875 0.866415 0.0122291 0.549848
0 0.1 0.975 0.866025 0 0.5
0 0.1 -0.975 0.866025 0 0.5
0.623803 0.1 -0.75 0.857021 0.0128348 0.459668
0.969689 0.1 -0.1125 0.769299 0.0279588 0.480693
0.969689 0.1 0.1125 0.767644 0.029049 0.518071
0.522865 0.1 -0.825 0.866408 0.0118701 0.466659
0.67013 0.1 0.7125 0.855339 0.0139226 0.55741
0.67013 0.1 -0.7125 0.851613 0.0134645 0.45642
0.871687 0.1 -0.45 0.810342 0.019622 0.449162
0.871687 0.1 0.45 0.808936 0.0216486 0.559604
0.467897 0.1 0.8625 0.874323 0.0112208 0.54073
0.467897 0.1 -0.8625 0.870449 0.0115333 0.4704
0.714971 0.1 -0.675 0.845361 0.0142928 0.453208
0.714971 0.1 0.675 0.848385 0.0150652 0.56048
0.93886 0.1 -0.3 0.78651 0.0241231 0.456866
0.93886 0.1 0.3 0.783709 0.0263471 0.546335
0.150379 0.1 0.975 0.876617 0.0132317 0.513728
0.150379 0.1 -0.975 0.875723 0.0134816 0.490143
0.969689 0.1 -0.1875 0.772384 0.0272423 0.469103
0.969689 0.1 0.1875 0.769789 0.028986 0.530523
0.411108 0.1 0.9 0.876796 0.0110029 0.535747
0.756813 0.1 0.6375 0.841046 0.0162366 0.563064
0.756814 0.1 -0.6375 0.838778 0.0151656 0.450286
0.990306 0.1 -2.19732e-17 0.762118 0.0298511 0.498428
0 0.1 0.99299 0.866025 0 0.5
0 0.1 -0.99299 0.866025 0 0.5
0.411108 0.1 -0.903998 0.873272 0.0113987 0.474048
0.990306 0.1 -0.075 0.763424 0.0293333 0.485668
0.990306 0.1 0.075 0.762231 0.0301488 0.511416
0.0363518 0.1 0.99299 0.868812 0.00674417 0.503758
0.0363518 0.1 -0.99299 0.868762 0.00682082 0.497268
0.90582 0.1 -0.4125 0.801152 0.0211378 0.448309
0.905821 0.1 0.4125 0.798922 0.0234606 0.558538
0.797314 0.1 -0.6 0.831541 0.0162773 0.447549
0.797314 0.1 0.6 0.832695 0.0177221 0.564974
0.350249 0.1 0.9375 0.879001 0.0108252 0.530415
0.350249 0.1 -0.9375 0.876196 0.0112549 0.47795
0.990306 0.1 0.15 0.763752 0.0302158 0.524358
0.990306 0.1 -0.15 0.76606 0.0286406 0.473428
0.969689 0.1 -0.2625 0.776467 0.0263393 0.458144
0.969689 0.1 0.2625 0.773226 0.0287103 0.542557
0.835106 0.1 -0.5625 0.823907 0.0174492 0.445133
0.835106 0.1 0.5625 0.823966 0.0192392 0.566356
0.93886 0.1 -0.375 0.791664 0.0231588 0.447908
0.93886 0.1 0.375 0.788502 0.025837 0.556595
0.075776 0.1 1.0125 0.871888 0.0141942 0.507826
0.075776 0.1 -1.0125 0.87178 0.0143494 0.494299
0.990306 0.1 -0.225 0.769833 0.0277756 0.461822
0.990306 0.1 0.225 0.766649 0.0300537 0.536999
0.287374 0.1 0.975 0.880234 0.0114932 0.525045
0.287374 0.1 -0.975 0.877975 0.0118883 0.4817
0.871687 0.1 -0.525 0.815476 0.0187999 0.443077
0.871687 0.1 0.525 0.814444 0.021002 0.566916
1.02149 0.1 -0.0369628 0.752299 0.0321285 0.490143
1.02149 0.1 0.0369628 0.751617 0.0326242 0.503744
0.969689 0.1 -0.3375 0.781764 0.0252819 0.44807
0.969689 0.1 0.3375 0.777852 0.0282297 0.553932
1.02149 0.1 -0.110888 0.754487 0.0314003 0.47696
1.02149 0.1 0.110888 0.75244 0.0328665 0.517434
0.90582 0.1 0.4875 0.804584 0.0228024 0.566895
0.90582 0.1 -0.4875 0.806641 0.0202245 0.441389
0.623803 0.1 0.819003 0.86318 0.012721 0.556135
0 0.1 1.03201 0.866025 0 0.5
0 0.1 -1.03201 0.866025 0 0.5
0.0363518 0.1 1.03201 0.868812 0.00674417 0.503758
0.0363518 0.1 -1.03201 0.868762 0.00682082 0.497268
0.67013 0.1 -0.7875 0.854497 0.0130179 0.453975
0.67013 0.1 0.7875 0.858871 0.0133871 0.559884
0.623803 0.1 -0.825 0.859456 0.012443 0.457585
0.990306 0.1 -0.3 0.774771 0.0267242 0.450976
0.990306 0.1 0.3 0.770844 0.0296681 0.549092
0.219992 0.1 -1.0125 0.879656 0.0126014 0.485752
0.219993 0.1 1.0125 0.881309 0.0122498 0.519369
0.574156 0.1 0.8625 0.86881 0.0118161 0.551263
0.574157 0.1 -0.8625 0.864127 0.0119066 0.461415
0.714971 0.1 -0.75 0.848739 0.0137814 0.450368
0.714971 0.1 0.75 0.852508 0.0144724 0.563604
1.02149 0.1 0.184814 0.754755 0.0328527 0.530959
1.02149 0.1 -0.184814 0.758022 0.0305403 0.464502
0.756814 0.1 -0.7125 0.84264 0.014589 0.446984
0.756814 0.1 0.7125 0.845724 0.0155972 0.566897
0.522865 0.1 0.9 0.872458 0.0113467 0.546483
0.93886 0.1 -0.45 0.79749 0.0221182 0.44007
0.93886 0.1 0.45 0.794234 0.0251634 0.566
1.04168 0.1 0 0.745651 0.0340697 0.496041
1.04168 0.1 -0.0729162 0.747152 0.033394 0.482278
1.04168 0.1 0.0729162 0.745681 0.0344851 0.510062
0.522865 0.1 -0.903998 0.867804 0.0116107 0.465196
0.797314 0.1 -0.675 0.83594 0.0156167 0.443729
0.797314 0.1 0.675 0.837903 0.0170351 0.569583
0.467897 0.1 0.9375 0.875792 0.0109176 0.541369
0.467897 0.1 -0.9375 0.871688 0.0112866 0.469146
0 0.1 1.05 0.866025 0 0.5
0 0.1 -1.05 0.866025 0 0.5
0.835106 0.1 -0.6375 0.828825 0.0167031 0.440721
0.835106 0.1 0.6375 0.829638 0.0185167 0.571799
1.04168 0.1 -0.145832 0.750125 0.0325349 0.469126
1.04168 0.1 0.145832 0.747236 0.0346314 0.524051
1.02149 0.1 -0.25874 0.762675 0.0294541 0.452638
1.02149 0.1 0.25874 0.758505 0.0325855 0.54406
0.969689 0.1 -0.4125 0.787865 0.0241241 0.439219
0.969689 0.1 0.4125 0.783558 0.0275632 0.564437
0.411108 0.1 0.975 0.877905 0.0107434 0.53611
0.411108 0.1 -0.975 0.874357 0.011165 0.473014
0.871687 0.1 -0.6 0.820885 0.0179545 0.438004
0.871687 0.1 0.6 0.820462 0.0202447 0.573267
1.0579 0.1 -0.0360525 0.741102 0.0351395 0.488088
1.0579 0.1 0.0360525 0.740308 0.035733 0.502329
0.990306 0.1 -0.375 0.780775 0.0255345 0.441246
0.990306 0.1 0.375 0.776221 0.029073 0.560403
0.150379 0.1 1.05 0.876789 0.0131639 0.513685
0.150379 0.1 -1.05 0.875888 0.0134253 0.489758
1.0579 0.1 0.108157 0.741058 0.0360493 0.516669
1.0579 0.1 -0.108157 0.743429 0.0342876 0.474287
1.04168 0.1 -0.218749 0.754371 0.0314944 0.456649
1.04168 0.1 0.218749 0.750284 0.0345081 0.537751
0.90582 0.1 -0.5625 0.812508 0.0192798 0.43557
0.90582 0.1 0.5625 0.810904 0.0220162 0.574213
0 0.1 -1.06799 0.866025 0 0.5
0 0.1 1.06799 0.866025 0 0.5
0.0363518 0.1 -1.06799 0.86877 0.00680915 0.497167
0.0363518 0.1 1.06799 0.868814 0.00673124 0.503724
0.350249 0.1 1.0125 0.87975 0.0106103 0.530558
0.350249 0.1 -1.0125 0.876844 0.0110793 0.477128
1.0579 0.1 -0.180262 0.747204 0.0333124 0.461279
1.0579 0.1 0.180262 0.743343 0.0360844 0.530863
1.02149 0.1 -0.332665 0.768686 0.0281707 0.441694
1.02149 0.1 0.332665 0.763587 0.0320719 0.55649
0.93886 0.1 -0.525 0.803817 0.0210333 0.43341
0.93886 0.1 0.525 0.800768 0.0243383 0.574395
1.08012 0.1 5.49329e-18 0.733433 0.0375937 0.494111
1.04168 0.1 -0.291665 0.759875 0.0302206 0.444902
1.04168 0.1 0.291665 0.754749 0.0341181 0.550906
1.08012 0.1 0.0709941 0.733372 0.0381058 0.508812
1.08012 0.1 -0.0709941 0.735059 0.0367958 0.479677
0.969689 0.1 -0.4875 0.794608 0.0229025 0.431592
0.96969 0.1 0.4875 0.79023 0.0267134 0.573968
1.0579 0.1 0.252367 0.747111 0.035839 0.54464
1.0579 0.1 -0.252367 0.752169 0.0320861 0.448861
0.990306 0.1 -0.45 0.787546 0.0242618 0.432816
0.990306 0.1 0.45 0.782664 0.0282806 0.570763
0.287374 0.1 -1.05 0.878448 0.0117575 0.481077
0.287374 0.1 1.05 0.880768 0.0113323 0.525037
0.714971 0.1 0.821002 0.85622 0.0139185 0.565932
1.08012 0.1 -0.141988 0.738227 0.0358026 0.465895
1.08012 0.1 0.141988 0.734881 0.0383252 0.523494
0.075776 0.1 1.0875 0.871894 0.0141678 0.507755
0.075776 0.1 -1.0875 0.871797 0.0143257 0.494089
0.714971 0.1 -0.825 0.85208 0.0132694 0.448171
0.756813 0.1 -0.7875 0.846492 0.0140103 0.444411
0.756814 0.1 0.7875 0.850405 0.01492 0.569897
0.67013 0.1 -0.8625 0.857325 0.0125716 0.452095
0.67013 0.1 0.8625 0.862309 0.0128474 0.561677
0.797314 0.1 -0.75 0.840353 0.0149546 0.440724
0.797314 0.1 0.75 0.843212 0.0162898 0.573294
0.623803 0.1 0.9 0.866904 0.0121063 0.557073
0.835106 0.1 -0.7125 0.833803 0.0159547 0.437217
0.835106 0.1 0.7125 0.835534 0.0177117 0.576291
0.623803 0.1 -0.903998 0.861539 0.0120976 0.456025
0.574156 0.1 0.9375 0.871113 0.0114065 0.552151
0.574156 0.1 -0.9375 0.866057 0.0115697 0.460064
1.02149 0.1 -0.406591 0.775661 0.0267647 0.432192
1.02149 0.1 0.406591 0.769862 0.0313325 0.568006
1.08012 0.1 -0.212982 0.742761 0.0346163 0.452829
1.08012 0.1 0.212982 0.73793 0.0382487 0.537904
1.10076 0.1 -0.0349809 0.726777 0.0393816 0.485529
1.10076 0.1 0.0349809 0.725881 0.0401002 0.500559
0.871687 0.1 -0.675 0.826424 0.0171057 0.433936
0.871687 0.1 0.675 0.826817 0.0193895 0.578607
1.04168 0.1 -0.364581 0.766585 0.0287699 0.434375
1.04168 0.1 0.364581 0.760508 0.033475 0.563268
1.10076 0.1 -0.104943 0.72925 0.0383669 0.47093
1.10076 0.1 0.104943 0.726587 0.040517 0.515693
0.522865 0.1 0.975 0.874315 0.0109911 0.547033
0.522865 0.1 -0.975 0.869581 0.0112853 0.464041
1.0579 0.1 -0.324472 0.758481 0.0306293 0.437348
1.0579 0.1 0.324472 0.752267 0.0353166 0.557758
0 0.1 -1.10701 0.866025 0 0.5
0 0.1 1.10701 0.866025 0 0.5
0.0363518 0.1 1.10701 0.868814 0.00673124 0.503724
0.0363518 0.1 -1.10701 0.86877 0.00680915 0.497167
0.90582 0.1 0.6375 0.817681 0.0211195 0.580469
0.905821 0.1 -0.6375 0.818597 0.0183262 0.430856
0.219992 0.1 1.0875 0.881628 0.0121453 0.519254
0.219992 0.1 -1.0875 0.879952 0.0125165 0.485294