# UMean  POINT_DATA 63840
# x  y  z  UMean_x  UMean_y  UMean_z
0 0.5 3.39583e-17 0.866025 0 0.5
0 0.5 -0.00617931 0.866025 0 0.5
0 0.5 0.00617931 0.866025 0 0.5
0.0124865 0.5 -0.00617931 0.865998 0.000891871 0.500318
0.0124865 0.5 0.00617931 0.865998 0.000887597 0.500433
0 0.5 -0.0688207 0.866025 0 0.5
0 0.5 0.0688207 0.866025 0 0.5
0.0124865 0.5 -0.0688207 0.865998 0.000891871 0.500318
0.0124865 0.5 0.0688207 0.865998 0.000887597 0.500433
0 0.5 -0.075 0.866025 0 0.5
0 0.5 0.075 0.866025 0 0.5
0 0.5 -0.0811793 0.866025 0 0.5
0 0.5 0.0811793 0.866025 0 0.5
0.0124865 0.5 -0.0811793 0.865996 0.000891377 0.500203
0.0124865 0.5 0.0811793 0.865999 0.000879434 0.500543
0.075776 0.5 -0.0375 0.865834 0.00540603 0.501922
0.075776 0.5 0.0375 0.865838 0.00538025 0.502615
0.075776 0.5 -0.1125 0.865827 0.00540367 0.501231
0.075776 0.5 0.1125 0.865846 0.00533107 0.503284
0 0.5 -0.143821 0.866025 0 0.5
0 0.5 0.143821 0.866025 0 0.5
0.0124865 0.5 -0.143821 0.865996 0.000891377 0.500203
0.0124865 0.5 0.143821 0.865999 0.000879434 0.500543
0 0.5 -0.15 0.866025 0 0.5
0 0.5 0.15 0.866025 0 0.5
0.151149 0.5 -0.00137318 0.864693 0.0090204 0.503701
0 0.5 -0.156179 0.866025 0 0.5
0 0.5 0.156179 0.866025 0 0.5
0.0124865 0.5 -0.156179 0.865997 0.000888285 0.500086
0.0124865 0.5 0.156179 0.866003 0.000867558 0.500649
0.151149 0.5 0.075 0.864722 0.00900074 0.504883
0.151149 0.5 -0.075 0.864662 0.00905976 0.502432
0.075776 0.5 -0.1875 0.865833 0.0053854 0.500527
0.075776 0.5 0.1875 0.865864 0.00525938 0.503922
0.151149 0.5 0.15 0.864782 0.00891926 0.506057
0.151149 0.5 -0.15 0.86466 0.00903939 0.501199
0 0.5 -0.218821 0.866025 0 0.5
0 0.5 0.218821 0.866025 0 0.5
0.0124865 0.5 -0.218821 0.865997 0.000888285 0.500086
0.0124865 0.5 0.218821 0.866003 0.000867558 0.500649
0.219992 0.5 0.0375 0.863632 0.0124453 0.50585
0.219993 0.5 -0.0375 0.863582 0.0124792 0.504103
0 0.5 -0.225 0.866025 0 0.5
0 0.5 0.225 0.866025 0 0.5
0 0.5 -0.231179 0.866025 0 0.5
0 0.5 0.231179 0.866025 0 0.5
0.0124865 0.5 -0.231179 0.865996 0.000883204 0.499974
0.0124865 0.5 0.231179 0.866007 0.000852654 0.500747
0.219992 0.5 0.1125 0.86372 0.0123689 0.507534
0.219993 0.5 -0.1125 0.863562 0.0124713 0.502362
0.151149 0.5 -0.225 0.864672 0.00899059 0.499975
0.151149 0.5 0.225 0.864863 0.00880325 0.507176
0.075776 0.5 -0.2625 0.865827 0.00535471 0.499846
0.075776 0.5 0.2625 0.865888 0.00516892 0.504519
0.288069 0.5 -0.00137318 0.860825 0.0158287 0.505969
0.219992 0.5 0.1875 0.86384 0.012243 0.509168
0.219993 0.5 -0.1875 0.863574 0.0124196 0.500635
0 0.5 0.293821 0.866025 0 0.5
0 0.5 -0.293821 0.866025 0 0.5
0.0124865 0.5 -0.293821 0.865996 0.000883204 0.499974
0.0124865 0.5 0.293821 0.866007 0.000852654 0.500747
0.288069 0.5 -0.075 0.860748 0.0158603 0.503614
0.288069 0.5 0.075 0.860924 0.0157915 0.508156
0 0.5 -0.3 0.866025 0 0.5
0 0.5 0.3 0.866025 0 0.5
0 0.5 0.306179 0.866025 0 0.5
0 0.5 -0.306179 0.866025 0 0.5
0.0124865 0.5 -0.306179 0.865997 0.000874873 0.499861
0.0124865 0.5 0.306179 0.866011 0.000835058 0.500838
0.288069 0.5 -0.15 0.860757 0.0158097 0.501341
0.288069 0.5 0.15 0.861114 0.0156707 0.510355
0.151149 0.5 -0.3 0.864701 0.00891238 0.498785
0.151149 0.5 0.3 0.864963 0.00865599 0.508223
0.219992 0.5 -0.2625 0.863609 0.0123282 0.498919
0.219992 0.5 0.2625 0.863994 0.0120716 0.510713
0.075776 0.5 0.3375 0.865917 0.00506197 0.505069
0.075776 0.5 -0.3375 0.865829 0.00530418 0.499164
0.350249 0.5 -0.0375 0.858112 0.0190487 0.505372
0.350249 0.5 0.0375 0.858232 0.0190135 0.508149
0.288069 0.5 -0.225 0.860828 0.0157035 0.499099
0.288069 0.5 0.225 0.861368 0.0154909 0.512463
0.350249 0.5 0.1125 0.858456 0.0189104 0.51091
0.350249 0.5 -0.1125 0.85809 0.0190137 0.502571
0 0.5 0.368821 0.866025 0 0.5
0 0.5 -0.368821 0.866025 0 0.5
0.0124865 0.5 -0.368821 0.865997 0.000874873 0.499861
0.0124865 0.5 0.368821 0.866011 0.000835058 0.500838
0 0.5 -0.375 0.866025 0 0.5
0 0.5 0.375 0.866025 0 0.5
0 0.5 -0.381179 0.866025 0 0.5
0 0.5 0.381179 0.866025 0 0.5
0.0124865 0.5 -0.381179 0.866002 0.000862667 0.499754
0.0124865 0.5 0.381179 0.866018 0.000815171 0.50092
0.350249 0.5 -0.1875 0.858156 0.0189085 0.499814
0.350249 0.5 0.1875 0.858774 0.0187352 0.513562
0.219992 0.5 -0.3375 0.863687 0.0121929 0.497302
0.219992 0.5 0.3375 0.864179 0.0118578 0.512148
0.151149 0.5 -0.375 0.864762 0.00880272 0.497642
0.151149 0.5 0.375 0.865081 0.0084803 0.509185
0.411736 0.5 -0.00137318 0.854245 0.022317 0.507387
0.288069 0.5 -0.3 0.860967 0.0155429 0.496936
0.288069 0.5 0.3 0.861682 0.0152551 0.514451
0.411736 0.5 -0.075 0.854132 0.0223259 0.503926
0.411736 0.5 0.075 0.854435 0.02227 0.510604
0.075776 0.5 -0.4125 0.865857 0.00523039 0.498519
0.075776 0.5 0.4125 0.865953 0.00494074 0.505564
0.350249 0.5 -0.2625 0.858321 0.0187364 0.497112
0.350249 0.5 0.2625 0.859183 0.0184924 0.516099
0.411736 0.5 -0.15 0.854191 0.0222228 0.5006
0.411736 0.5 0.15 0.854802 0.0221121 0.513862
0 0.5 -0.443821 0.866025 0 0.5
0 0.5 0.443821 0.866025 0 0.5
0.0124865 0.5 -0.443821 0.866002 0.000862667 0.499754
0.0124865 0.5 0.443821 0.866018 0.000815171 0.50092
0 0.5 -0.45 0.866025 0 0.5
0 0.5 0.45 0.866025 0 0.5
0 0.5 -0.456179 0.866025 0 0.5
0 0.5 0.456179 0.866025 0 0.5
0.0124865 0.5 -0.456179 0.866005 0.000848243 0.499655
0.0124865 0.5 0.456179 0.866024 0.000793301 0.500992
0.219992 0.5 -0.4125 0.863817 0.0120201 0.49574
0.219993 0.5 0.4125 0.864389 0.0116051 0.513458
0.411736 0.5 -0.225 0.854392 0.0220352 0.497347
0.411736 0.5 0.225 0.855306 0.0218691 0.517
0.467897 0.5 0.0375 0.850573 0.0254396 0.509701
0.467897 0.5 -0.0375 0.850395 0.0254615 0.505821
0.288069 0.5 -0.375 0.861178 0.0153324 0.494877
0.288069 0.5 0.375 0.86205 0.0149665 0.516291
0.151149 0.5 -0.45 0.864844 0.0086669 0.496562
0.151149 0.5 0.45 0.865213 0.00827917 0.510051
0.467897 0.5 -0.1125 0.850398 0.0253792 0.501944
0.467897 0.5 0.1125 0.850939 0.0253148 0.513531
0.350249 0.5 0.3375 0.859674 0.018183 0.518474
0.350249 0.5 -0.3375 0.858589 0.0184986 0.494556
0.075776 0.5 -0.4875 0.865878 0.00514311 0.497919
0.075776 0.5 0.4875 0.865992 0.00480727 0.506002
0.467897 0.5 -0.1875 0.850584 0.0251934 0.49814
0.467897 0.5 0.1875 0.851489 0.0250888 0.517255
0.411736 0.5 -0.3 0.854735 0.0217672 0.494224
0.411736 0.5 0.3 0.855937 0.0215439 0.519976
0 0.5 -0.518821 0.866025 0 0.5
0 0.5 0.518821 0.866025 0 0.5
0.0124865 0.5 0.518821 0.866024 0.000793301 0.500992
0.0124865 0.5 -0.518821 0.866005 0.000848243 0.499655
0.523432 0.5 -0.00137318 0.845657 0.0287125 0.50808
0 0.5 -0.525 0.866025 0 0.5
0 0.5 0.525 0.866025 0 0.5
0.523432 0.5 -0.075 0.845534 0.0286791 0.503476
0.523432 0.5 0.075 0.845937 0.02867 0.512367
0 0.5 -0.531179 0.866025 0 0.5
0 0.5 0.531179 0.866025 0 0.5
0.0124865 0.5 -0.531179 0.866009 0.000831886 0.499563
0.0124865 0.5 0.531179 0.866032 0.000769819 0.501054
0.288069 0.5 -0.45 0.861441 0.0150805 0.49293
0.288069 0.5 0.45 0.862464 0.0146294 0.517961
0.219992 0.5 -0.4875 0.863959 0.0118179 0.494284
0.219993 0.5 0.4875 0.864619 0.0113177 0.514627
0.467897 0.5 -0.2625 0.85096 0.0249116 0.494451
0.467897 0.5 0.2625 0.85221 0.0247649 0.520833
0.350249 0.5 -0.4125 0.858941 0.0182098 0.492111
0.350249 0.5 0.4125 0.860239 0.0178114 0.520656
0.523432 0.5 -0.15 0.845694 0.0285005 0.49908
0.523432 0.5 0.15 0.846498 0.0284833 0.516723
0.151149 0.5 -0.525 0.864933 0.00851043 0.495557
0.151149 0.5 0.525 0.865356 0.00805578 0.510812
0.411736 0.5 -0.375 0.855204 0.0214282 0.491263
0.411736 0.5 0.375 0.856683 0.02114 0.522743
0.075776 0.5 -0.5625 0.865902 0.00504387 0.497362
0.075776 0.5 0.5625 0.866037 0.0046637 0.506377
0.523432 0.5 -0.225 0.846098 0.0282062 0.494808
0.523432 0.5 0.225 0.847288 0.0281787 0.520934
0.574156 0.5 -0.0375 0.840901 0.0318252 0.50558
0.574156 0.5 0.0375 0.841125 0.0318367 0.510595
0.467897 0.5 0.3375 0.853091 0.024346 0.524187
0.467897 0.5 -0.3375 0.851509 0.0245391 0.490964
0.574156 0.5 -0.1125 0.840975 0.0316727 0.500602
0.574156 0.5 0.1125 0.841641 0.0317078 0.515559
0 0.5 -0.593821 0.866025 0 0.5
0 0.5 0.593821 0.866025 0 0.5
0.0124865 0.5 -0.593821 0.866009 0.000831886 0.499563
0.0124865 0.5 0.593821 0.866032 0.000769819 0.501054
0.288069 0.5 -0.525 0.861742 0.0147918 0.491126
0.288069 0.5 0.525 0.862915 0.0142494 0.519441
0 0.5 -0.6 0.866025 0 0.5
0 0.5 0.6 0.866025 0 0.5
0.350249 0.5 -0.4875 0.859354 0.017874 0.489841
0.350249 0.5 0.4875 0.860866 0.0173835 0.52262
0.523432 0.5 -0.3 0.846729 0.0278039 0.490727
0.523432 0.5 0.3 0.848295 0.0277602 0.524939
0.219992 0.5 -0.5625 0.864121 0.011589 0.492933
0.219992 0.5 0.5625 0.864864 0.0109998 0.515642
0.574156 0.5 -0.1875 0.841348 0.0313839 0.49574
0.574156 0.5 0.1875 0.842441 0.0314419 0.520401
0 0.5 -0.606179 0.866025 0 0.5
0 0.5 0.606179 0.866025 0 0.5
0.0124865 0.5 -0.606179 0.866013 0.000813901 0.499478
0.0124865 0.5 0.606179 0.866039 0.000744917 0.501105
0.411736 0.5 -0.45 0.855777 0.0210288 0.488487
0.411736 0.5 0.45 0.857528 0.0206637 0.525267
0.151149 0.5 -0.6 0.865034 0.00833532 0.494632
0.151149 0.5 0.6 0.865506 0.00781324 0.511461
0.62168 0.5 2.64545e-17 0.835766 0.0349237 0.508211
0.467897 0.5 0.4125 0.854112 0.0238382 0.527285
0.467897 0.5 -0.4125 0.852199 0.0240914 0.487662
0.624316 0.5 0.0729402 0.83583 0.0350736 0.513564
0.624316 0.5 -0.075 0.835371 0.0350004 0.502389
0.574156 0.5 -0.2625 0.842012 0.0309696 0.491062
0.574157 0.5 0.2625 0.843514 0.0310428 0.525044
0.075776 0.5 -0.6375 0.865929 0.00493444 0.496852
0.075776 0.5 0.6375 0.866083 0.00451152 0.506687
0.624316 0.5 -0.15 0.835691 0.0347266 0.496904
0.624316 0.5 0.15 0.836596 0.0348711 0.519068
0.523432 0.5 -0.375 0.847558 0.0273055 0.48688
0.523432 0.5 0.375 0.849498 0.0272336 0.528675
0.350249 0.5 -0.5625 0.859826 0.0174957 0.487752
0.350249 0.5 0.5625 0.861541 0.0169066 0.524344
0.624316 0.5 -0.225 0.836367 0.0343051 0.491603
0.624316 0.5 0.225 0.837703 0.0345135 0.524397
0.288069 0.5 0.6 0.863392 0.0138323 0.520717
0.288069 0.5 -0.6 0.862082 0.0144701 0.489475
0.574156 0.5 -0.3375 0.84293 0.0304378 0.486646
0.574156 0.5 0.3375 0.844844 0.0305163 0.529428
0.411736 0.5 -0.525 0.856439 0.0205749 0.485934
0.411736 0.5 0.525 0.858454 0.0201229 0.527517
0 0.5 -0.668821 0.866025 0 0.5
0 0.5 0.668821 0.866025 0 0.5
0.0124865 0.5 -0.668821 0.866013 0.000813901 0.499478
0.0124865 0.5 0.668821 0.866039 0.000744917 0.501105
0.67013 0.5 0.0375 0.830225 0.0382538 0.510953
0.67013 0.5 -0.0375 0.829988 0.0381931 0.504775
0.219993 0.5 -0.6375 0.864301 0.0113354 0.491701
0.219993 0.5 0.6375 0.865117 0.0106558 0.516497
0 0.5 -0.675 0.866025 0 0.5
0 0.5 0.675 0.866025 0 0.5
0.467897 0.5 0.4875 0.855251 0.0232499 0.530084
0.467897 0.5 -0.4875 0.853014 0.0235765 0.484622
0.67013 0.5 -0.1125 0.830186 0.0379538 0.498668
0.67013 0.5 0.1125 0.830891 0.0381346 0.517099
0 0.5 -0.681179 0.866025 0 0.5
0 0.5 0.681179 0.866025 0 0.5
0.0124865 0.5 -0.681179 0.866019 0.000794446 0.499402
0.0124865 0.5 0.681179 0.866047 0.000719028 0.501146
0.523432 0.5 -0.45 0.848558 0.0267237 0.483307
0.523432 0.5 0.45 0.85087 0.0266074 0.532094
0.151149 0.5 -0.675 0.865145 0.00814344 0.493793
0.151149 0.5 0.675 0.865661 0.00755488 0.511994
0.624316 0.5 -0.3 0.83737 0.0337464 0.486561
0.624316 0.5 0.3 0.839133 0.0340067 0.529473
0.67013 0.5 0.1875 0.831965 0.0378391 0.523104
0.67013 0.5 -0.1875 0.830811 0.0375448 0.492733
0.574156 0.5 -0.4125 0.844066 0.029806 0.482512
0.574157 0.5 0.4125 0.846397 0.0298706 0.533482
0.708171 0.5 1.88651e-17 0.825002 0.0409922 0.50809
0.075776 0.5 -0.7125 0.865959 0.00481577 0.496392
0.075776 0.5 0.7125 0.86613 0.00435342 0.506931
0.715434 0.5 0.0736268 0.824613 0.0414346 0.514467
0.715434 0.5 -0.075 0.82402 0.0413192 0.500779
0.67013 0.5 0.2625 0.833428 0.0373723 0.528871
0.67013 0.5 -0.2625 0.831838 0.036978 0.487058
0.350249 0.5 -0.6375 0.860347 0.0170798 0.485864
0.350249 0.5 0.6375 0.862249 0.0163879 0.525812
0.411736 0.5 -0.6 0.857178 0.0200729 0.483621
0.411736 0.5 0.6 0.859442 0.0195258 0.529473
0.624316 0.5 -0.375 0.838658 0.0330649 0.481839
0.624316 0.5 0.375 0.840858 0.0333586 0.534221
0.715434 0.5 -0.15 0.824555 0.0409345 0.494182
0.715434 0.5 0.15 0.825451 0.0412953 0.521
0.467897 0.5 -0.5625 0.853937 0.0230015 0.481854
0.467897 0.5 0.5625 0.856484 0.0225903 0.532554
0.288069 0.5 -0.675 0.862452 0.014119 0.487989
0.288069 0.5 0.675 0.863886 0.0133839 0.52178
0.523432 0.5 -0.525 0.849709 0.0260681 0.480054
0.523432 0.5 0.525 0.852379 0.0258917 0.535152
0 0.5 -0.743821 0.866025 0 0.5
0 0.5 0.743821 0.866025 0 0.5
0.0124865 0.5 -0.743821 0.866019 0.000794446 0.499402
0.0124865 0.5 0.743821 0.866047 0.000719028 0.501146
0.219992 0.5 0.7125 0.865376 0.0102902 0.517187
0.219992 0.5 -0.7125 0.864496 0.0110598 0.490593
0.715434 0.5 -0.225 0.825569 0.0403678 0.487835
0.715434 0.5 0.225 0.826901 0.040893 0.527496
0 0.5 -0.75 0.866025 0 0.5
0 0.5 0.75 0.866025 0 0.5
0.67013 0.5 0.3375 0.835259 0.0367423 0.534327
0.67013 0.5 -0.3375 0.833217 0.036265 0.481709
0.574156 0.5 -0.4875 0.845402 0.0290847 0.478739
0.574156 0.5 0.4875 0.848139 0.0291167 0.537154
0 0.5 -0.756179 0.866025 0 0.5
0 0.5 0.756179 0.866025 0 0.5
0.0124865 0.5 -0.756179 0.866024 0.000773809 0.499335
0.0124865 0.5 0.756179 0.866054 0.000692686 0.501175
0.756813 0.5 -0.0375 0.818048 0.0445674 0.50351
0.756813 0.5 0.0375 0.818266 0.04469 0.510887
0.151149 0.5 -0.75 0.865264 0.00793684 0.493044
0.151149 0.5 0.75 0.865818 0.00728477 0.512409
0.756813 0.5 -0.1125 0.818419 0.0442279 0.496248
0.756813 0.5 0.1125 0.819069 0.044592 0.518251
0.624316 0.5 -0.45 0.840202 0.032277 0.477498
0.624316 0.5 0.45 0.842834 0.0325803 0.538571
0.715434 0.5 -0.3 0.827022 0.0396329 0.481823
0.715434 0.5 0.3 0.828795 0.0403031 0.53369
0.756813 0.5 0.1875 0.820431 0.0442756 0.525465
0.756813 0.5 -0.1875 0.819353 0.0436826 0.489218
0.67013 0.5 -0.4125 0.834913 0.0354265 0.476764
0.67013 0.5 0.4125 0.837413 0.0359594 0.53937
0.411736 0.5 -0.675 0.857976 0.0195299 0.481563
0.411736 0.5 0.675 0.860469 0.0188813 0.531117
0.467897 0.5 0.6375 0.857784 0.0218694 0.534671
0.467897 0.5 -0.6375 0.854946 0.0223757 0.479384
0.075776 0.5 -0.7875 0.865993 0.00468973 0.495984
0.075776 0.5 0.7875 0.866173 0.00419207 0.507109
0.350249 0.5 -0.7125 0.860908 0.0166313 0.484186
0.350249 0.5 0.7125 0.862975 0.0158348 0.527016
0.523432 0.5 -0.6 0.850979 0.0253494 0.477142
0.523432 0.5 0.6 0.853994 0.0250977 0.537818
0.797732 0.5 2.68882e-17 0.811657 0.0478988 0.506683
0.756813 0.5 -0.2625 0.820807 0.0429447 0.48252
0.756814 0.5 0.2625 0.822316 0.0437475 0.532406
0.797732 0.5 0.0736268 0.812261 0.0479101 0.514959
0.797732 0.5 -0.075 0.811804 0.0476218 0.498746
0.288069 0.5 -0.75 0.862845 0.0137424 0.486674
0.288069 0.5 0.75 0.864388 0.012911 0.522626
0.574156 0.5 -0.5625 0.846898 0.0282863 0.475346
0.574157 0.5 0.5625 0.850028 0.0282665 0.540401
0.715434 0.5 -0.375 0.828871 0.0387477 0.476236
0.715434 0.5 0.375 0.831095 0.0395359 0.539491
0.797732 0.5 -0.15 0.812607 0.0471134 0.491013
0.797732 0.5 0.15 0.813371 0.0477329 0.522614
0.624316 0.5 -0.525 0.84196 0.031396 0.473588
0.624316 0.5 0.525 0.845016 0.0316849 0.542469
0.219992 0.5 -0.7875 0.864703 0.0107649 0.489616
0.219992 0.5 0.7875 0.865638 0.00990933 0.517711
0 0.5 -0.818821 0.866025 0 0.5
0 0.5 0.818821 0.866025 0 0.5
0.0124865 0.5 0.818821 0.866054 0.000692686 0.501175
0.0124865 0.5 -0.818821 0.866024 0.000773809 0.499335
0 0.5 -0.825 0.866025 0 0.5
0 0.5 0.825 0.866025 0 0.5
0.756813 0.5 0.3375 0.824692 0.0430172 0.538966
0.756814 0.5 -0.3375 0.822738 0.0420319 0.476238
0.67013 0.5 -0.4875 0.836889 0.0344783 0.472291
0.67013 0.5 0.4875 0.839836 0.0350374 0.543951
0.797732 0.5 -0.225 0.814019 0.0463875 0.483599
0.797732 0.5 0.225 0.815182 0.0472927 0.530318
0 0.5 -0.831179 0.866025 0 0.5
0 0.5 0.831179 0.866025 0 0.5
0.0124865 0.5 -0.831179 0.86603 0.000752284 0.499277
0.0124865 0.5 0.831179 0.86606 0.000666258 0.501193
0.835106 0.5 0.0375 0.805511 0.0511082 0.510494
0.835106 0.5 -0.0375 0.805347 0.0509155 0.501884
0.151149 0.5 -0.825 0.865389 0.0077181 0.492389
0.151149 0.5 0.825 0.865974 0.00700738 0.512708
0.835106 0.5 0.1125 0.806433 0.0510392 0.519109
0.835106 0.5 -0.1125 0.805941 0.0504661 0.493436
0.715434 0.5 -0.45 0.831067 0.0377325 0.471154
0.715434 0.5 0.45 0.833744 0.0386047 0.544807
0.797732 0.5 -0.3 0.816003 0.0454616 0.476609
0.797732 0.5 0.3 0.817574 0.0466244 0.537668
0.467897 0.5 0.7125 0.859124 0.0210976 0.536422
0.467897 0.5 -0.7125 0.856017 0.0217073 0.47722
0.523432 0.5 -0.675 0.852337 0.0245785 0.474589
0.523432 0.5 0.675 0.855678 0.0242374 0.540071
0.411736 0.5 -0.75 0.858815 0.0189529 0.479767
0.411736 0.5 0.75 0.861516 0.0181988 0.532442
0.835106 0.5 -0.1875 0.80724 0.0497726 0.485292
0.835106 0.5 0.1875 0.808084 0.050709 0.527568
0.574156 0.5 -0.6375 0.848517 0.0274243 0.472361
0.574157 0.5 0.6375 0.852025 0.0273333 0.543193
0.350249 0.5 -0.7875 0.861493 0.0161557 0.482723
0.350249 0.5 0.7875 0.863706 0.0152555 0.527953
0.756813 0.5 -0.4125 0.825098 0.0409664 0.470508
0.756814 0.5 0.4125 0.827502 0.0420981 0.545058
0.075776 0.5 -0.8625 0.866029 0.00455796 0.495629
0.075776 0.5 0.8625 0.866212 0.00403039 0.507223
0.624316 0.5 0.6 0.847354 0.030687 0.545873
0.624316 0.5 -0.6 0.843881 0.030437 0.470134
0.872064 0.5 5.91974e-17 0.798769 0.0542057 0.505537
0.870122 0.5 0.075 0.799771 0.0541013 0.515177
0.288069 0.5 -0.825 0.863251 0.013345 0.485534
0.288069 0.5 0.825 0.86489 0.0124205 0.523256
0.67013 0.5 -0.5625 0.839078 0.0334355 0.46832
0.67013 0.5 0.5625 0.842474 0.0339922 0.548002
0.872064 0.5 -0.075 0.799063 0.0538359 0.496382
0.835106 0.5 -0.2625 0.809184 0.0488532 0.477553
0.835106 0.5 0.2625 0.810415 0.0501247 0.53572
0.797732 0.5 -0.375 0.818511 0.0443572 0.47017
0.797732 0.5 0.375 0.820497 0.0457404 0.544556
0.872064 0.5 0.14794 0.800715 0.0541036 0.523977
0.872064 0.5 -0.15 0.800176 0.053196 0.487498
0.715434 0.5 -0.525 0.833543 0.0366054 0.466624
0.715434 0.5 0.525 0.836677 0.0375263 0.549571
0.219992 0.5 0.8625 0.865903 0.00951905 0.518072
0.219993 0.5 -0.8625 0.864914 0.0104545 0.488771
0 0.5 -0.893821 0.866025 0 0.5
0 0.5 0.893821 0.866025 0 0.5
0.0124865 0.5 -0.893821 0.86603 0.000752284 0.499277
0.0124865 0.5 0.893821 0.86606 0.000666258 0.501193
0 0.5 -0.9 0.866025 0 0.5
0 0.5 0.9 0.866025 0 0.5
0.756813 0.5 -0.4875 0.827816 0.03977 0.465362
0.756813 0.5 0.4875 0.830676 0.0410057 0.550562
0.872064 0.5 -0.225 0.802035 0.0523031 0.479011
0.872064 0.5 0.225 0.802898 0.0536321 0.532918
0.835106 0.5 -0.3375 0.811768 0.0477288 0.470354
0.835106 0.5 0.3375 0.813369 0.0492983 0.543418
0 0.5 0.906179 0.866025 0 0.5
0 0.5 -0.906179 0.866025 0 0.5
0.0124865 0.5 -0.906179 0.866036 0.000730121 0.499227
0.0124865 0.5 0.906179 0.866065 0.000639993 0.501202
0.90582 0.5 -0.0375 0.792307 0.0571228 0.499976
0.90582 0.5 0.0375 0.792409 0.0573914 0.509842
0.151149 0.5 -0.9 0.865516 0.00748998 0.491827
0.151149 0.5 0.9 0.86613 0.0067254 0.512896
0.90582 0.5 -0.1125 0.793147 0.056558 0.490327
0.905821 0.5 0.1125 0.793445 0.0573578 0.519731
0.523432 0.5 -0.75 0.85375 0.0237663 0.472398
0.523432 0.5 0.75 0.857396 0.0233232 0.541899
0.574156 0.5 -0.7125 0.850216 0.0265112 0.469791
0.574156 0.5 0.7125 0.854085 0.0263311 0.545509
0.797732 0.5 -0.45 0.821458 0.0430982 0.464368
0.797732 0.5 0.45 0.823879 0.0446564 0.550868
0.467897 0.5 0.7875 0.860476 0.0202859 0.537801
0.467897 0.5 -0.7875 0.857124 0.0210056 0.475367
0.624316 0.5 -0.675 0.845916 0.0294154 0.467153
0.624316 0.5 0.675 0.849797 0.0296019 0.548752
0.411736 0.5 -0.825 0.859675 0.0183493 0.478235
0.411736 0.5 0.825 0.86256 0.0174875 0.533448
0.872064 0.5 0.3 0.805812 0.0528916 0.541455
0.872064 0.5 -0.3 0.804614 0.0511774 0.471047
0.67013 0.5 -0.6375 0.841422 0.0323166 0.464879
0.67013 0.5 0.6375 0.845265 0.0328405 0.551486
0.90582 0.5 0.1875 0.795387 0.0570212 0.529453
0.905821 0.5 -0.1875 0.794854 0.0557116 0.481075
0.350249 0.5 -0.8625 0.862092 0.0156593 0.481477
0.350249 0.5 0.8625 0.864428 0.0146574 0.528626
0.835106 0.5 -0.4125 0.814891 0.0464245 0.463844
0.835106 0.5 0.4125 0.816892 0.048244 0.550573
0.715434 0.5 -0.6 0.836224 0.0353856 0.462679
0.715434 0.5 0.6 0.839826 0.0363192 0.55373
0.939201 0.5 2.75387e-17 0.785375 0.0605572 0.504154
0.075776 0.5 0.9375 0.866245 0.00386932 0.507276
0.075776 0.5 -0.9375 0.866065 0.00442218 0.495326
0.939111 0.5 0.075 0.786024 0.0607027 0.515588
0.939201 0.5 -0.075 0.785863 0.0600867 0.493731
0.756813 0.5 0.5625 0.834138 0.0397612 0.555439
0.756814 0.5 -0.5625 0.8308 0.0384621 0.460858
0.90582 0.5 0.2625 0.79818 0.0563882 0.538839
0.905821 0.5 -0.2625 0.797321 0.0546063 0.472303
0.288069 0.5 -0.9 0.863664 0.0129319 0.484569
0.288069 0.5 0.9 0.865385 0.0119169 0.523675
0.872064 0.5 -0.375 0.807857 0.0498444 0.463759
0.872064 0.5 0.375 0.809392 0.0518962 0.54945
0.939201 0.5 0.148627 0.787588 0.0605001 0.525366
0.939201 0.5 -0.15 0.78736 0.0593041 0.483665
0.797732 0.5 -0.525 0.824749 0.0417082 0.459252
0.797732 0.5 0.525 0.827631 0.0433931 0.556515
0.219992 0.5 0.9375 0.866177 0.00912007 0.51828
0.219992 0.5 -0.9375 0.865129 0.0101324 0.488057
0.939201 0.5 -0.225 0.789716 0.0582301 0.47409
0.939201 0.5 0.225 0.790069 0.0600229 0.535424
0.905821 0.5 -0.3375 0.80062 0.0532611 0.464191
0.90582 0.5 0.3375 0.801739 0.0554734 0.547706
0.835106 0.5 -0.4875 0.818445 0.0449665 0.458053
0.835106 0.5 0.4875 0.820882 0.0469815 0.557027
0 0.5 0.968821 0.866025 0 0.5
0 0.5 -0.968821 0.866025 0 0.5
0.0124865 0.5 -0.968821 0.866036 0.000730121 0.499227
0.0124865 0.5 0.968821 0.866065 0.000639993 0.501202
0.969689 0.5 -0.0375 0.778632 0.0635465 0.49782
0.969689 0.5 0.0375 0.778612 0.063898 0.509027
0.574156 0.5 -0.7875 0.851956 0.0255602 0.467634
0.574156 0.5 0.7875 0.856167 0.0252743 0.547344
0 0.5 -0.975 0.866025 0 0.5
0 0.5 0.975 0.866025 0 0.5
0.624316 0.5 -0.75 0.848012 0.0283461 0.464645
0.624316 0.5 0.75 0.852293 0.028446 0.551093
0.969689 0.5 -0.1125 0.779818 0.0628531 0.486893
0.96969 0.5 0.1125 0.779725 0.0639008 0.520264
0.523432 0.5 -0.825 0.855186 0.0229235 0.470566
0.523432 0.5 0.825 0.859114 0.0223679 0.543299
0.67013 0.5 0.7125 0.848147 0.0316003 0.55438
0.67013 0.5 -0.7125 0.84386 0.0311386 0.461972
0 0.5 -0.981179 0.866025 0 0.5
0 0.5 0.981179 0.866025 0 0.5
0.467897 0.5 0.8625 0.861812 0.019445 0.538812
0.467897 0.5 -0.8625 0.858244 0.0202795 0.47382
0.0124865 0.5 -0.981179 0.866042 0.000707625 0.499185
0.0124865 0.5 0.981179 0.866068 0.000614874 0.501202
0.872064 0.5 -0.45 0.811631 0.0483331 0.457246
0.872064 0.5 0.45 0.813552 0.0506639 0.556782
0.715434 0.5 -0.675 0.839038 0.0340934 0.459333
0.715434 0.5 0.675 0.843116 0.0350027 0.557248
0.939201 0.5 -0.3 0.792945 0.0568865 0.465117
0.939201 0.5 0.3 0.793529 0.0592066 0.545189
0.151149 0.5 0.975 0.866283 0.00644255 0.512978
0.151149 0.5 -0.975 0.865645 0.00725545 0.491358
0.969689 0.5 -0.1875 0.782057 0.0618327 0.4765
0.969689 0.5 0.1875 0.781942 0.0635525 0.531322
0.756813 0.5 -0.6375 0.833969 0.0370664 0.457016
0.756813 0.5 0.6375 0.837801 0.0383855 0.559628
0.411736 0.5 -0.9 0.860541 0.0177267 0.476961
0.411736 0.5 0.9 0.863579 0.0167553 0.53414
0.90582 0.5 -0.4125 0.804559 0.051713 0.456891
0.90582 0.5 0.4125 0.805995 0.0542924 0.555922
0.995005 0.5 0.0749309 0.774101 0.0659007 0.515417
0.797732 0.5 -0.6 0.828286 0.0402116 0.454863
0.797732 0.5 0.6 0.831662 0.0419738 0.561443
1.00005 0.5 -8.47123e-18 0.772314 0.0661606 0.502641
0.350249 0.5 -0.9375 0.862694 0.0151481 0.480442
0.350249 0.5 0.9375 0.865118 0.0140443 0.529045
1.00005 0.5 -0.0749309 0.773 0.0656007 0.491024
0.969689 0.5 -0.2625 0.785052 0.0605158 0.466651
0.969689 0.5 0.2625 0.785207 0.0628597 0.541999
0.835106 0.5 -0.5625 0.822319 0.0433817 0.453054
0.835106 0.5 0.5625 0.825229 0.0455368 0.562743
1.00005 0.5 -0.149862 0.774895 0.0646958 0.479881
0.939201 0.5 -0.375 0.79701 0.0553045 0.456931
0.939201 0.5 0.375 0.797802 0.058094 0.554323
1.00029 0.5 0.148988 0.7748 0.0661507 0.526307
0.075776 0.5 -1.0125 0.866102 0.00428435 0.495076
0.075776 0.5 1.0125 0.866264 0.00371444 0.507274
0.288069 0.5 0.975 0.865866 0.011404 0.523894
0.288069 0.5 -0.975 0.864076 0.012508 0.483772
0.872064 0.5 -0.525 0.815815 0.0466711 0.45157
0.872064 0.5 0.525 0.818177 0.0492185 0.563331
1.00005 0.5 0.224793 0.777569 0.0656923 0.537542
1.00005 0.5 -0.224793 0.777759 0.0634707 0.469317
0.969689 0.5 0.3375 0.789413 0.0618392 0.552089
0.96969 0.5 -0.3375 0.789182 0.0589178 0.457525
1.0271 0.5 -0.0368226 0.765588 0.0689988 0.495735
1.0271 0.5 0.0368226 0.765495 0.0694104 0.507947
0.90582 0.5 0.4875 0.810835 0.0528678 0.563387
0.905821 0.5 -0.4875 0.809006 0.0499893 0.450466
1.0271 0.5 -0.110468 0.767011 0.0682277 0.483851
1.0271 0.5 0.110468 0.766335 0.069757 0.523018
0.67013 0.5 0.7875 0.851063 0.0302897 0.556674
0.67013 0.5 -0.7875 0.846331 0.0299186 0.459589
0.624316 0.5 0.825 0.854791 0.0272359 0.552894
0.624316 0.5 -0.825 0.850123 0.0272438 0.462599
0.219993 0.5 -1.0125 0.865344 0.00980296 0.487471
0.219993 0.5 1.0125 0.866448 0.00872011 0.51834
0.574156 0.5 -0.8625 0.853698 0.0245831 0.465878
0.574156 0.5 0.8625 0.858229 0.0241776 0.5487
0.715434 0.5 -0.75 0.841914 0.0327487 0.456579
0.715434 0.5 0.75 0.846478 0.0335964 0.560108
0.756813 0.5 0.7125 0.841585 0.0368993 0.563104
0.756814 0.5 -0.7125 0.837238 0.035605 0.453837
0.523432 0.5 -0.9 0.856616 0.0220605 0.469081
0.523432 0.5 0.9 0.860798 0.0213835 0.544279
0.939201 0.5 -0.45 0.801697 0.0535202 0.449685
0.939201 0.5 0.45 0.802786 0.0567059 0.562696
1.04168 0.5 0 0.761713 0.0707926 0.501378
1.0271 0.5 -0.184113 0.769643 0.067113 0.472656
1.0271 0.5 0.184113 0.769154 0.0691319 0.532252
0 0.5 -1.04382 0.866025 0 0.5
0 0.5 1.04382 0.866025 0 0.5
0.0124865 0.5 -1.04382 0.866042 0.000707625 0.499185
0.0124865 0.5 1.04382 0.866068 0.000614874 0.501202
1.00005 0.5 -0.299723 0.781647 0.0619444 0.459354
1.00005 0.5 0.299723 0.781577 0.0648294 0.54846
1.04168 0.5 -0.0729162 0.762511 0.0701849 0.489066
1.04168 0.5 0.0729162 0.76225 0.0710345 0.51386
0.797732 0.5 -0.675 0.831972 0.0386336 0.451209
0.797732 0.5 0.675 0.835877 0.0404216 0.5656
0.467897 0.5 0.9375 0.863105 0.0185839 0.539461
0.467897 0.5 -0.9375 0.859356 0.0195373 0.472567
0 0.5 -1.05 0.866025 0 0.5
0 0.5 1.05 0.866025 0 0.5
0.835106 0.5 -0.6375 0.826401 0.041697 0.448861
0.835106 0.5 0.6375 0.829839 0.0439348 0.567637
1.04168 0.5 -0.145832 0.764619 0.0692207 0.477312
1.04168 0.5 0.145832 0.764088 0.0709054 0.526266
0.969689 0.5 -0.4125 0.794047 0.0570914 0.449351
0.96969 0.5 0.4125 0.79446 0.0605105 0.561412
0 0.5 -1.05618 0.866025 0 0.5
0 0.5 1.05618 0.866025 0 0.5
0.0124865 0.5 -1.05618 0.866048 0.000685163 0.499152
0.0124865 0.5 1.05618 0.866072 0.000590371 0.501193
1.05695 0.5 -0.0360764 0.757988 0.0721305 0.494519
1.05695 0.5 0.0360764 0.757832 0.0725728 0.507219
0.411736 0.5 -0.975 0.861396 0.017092 0.475935
0.411736 0.5 0.975 0.86456 0.0160093 0.53453
0.872064 0.5 -0.6 0.820283 0.0448888 0.446776
0.872064 0.5 0.6 0.823145 0.0475893 0.569018
1.0271 0.5 -0.257759 0.77317 0.0656865 0.461977
1.0271 0.5 0.257759 0.772812 0.0684455 0.543921
0.151149 0.5 -1.05 0.865772 0.00701766 0.490977
0.151149 0.5 1.05 0.866429 0.00616255 0.51296
1.05695 0.5 0.108229 0.758276 0.0729684 0.520215
1.05695 0.5 -0.108229 0.759513 0.0713242 0.482152
1.04168 0.5 -0.218749 0.767807 0.0679253 0.466192
1.04168 0.5 0.218749 0.767183 0.0704066 0.538386
0.90582 0.5 -0.5625 0.813833 0.0481198 0.445
0.905821 0.5 0.5625 0.816127 0.0512263 0.569913
1.00005 0.5 -0.374654 0.786549 0.0601534 0.450286
1.00005 0.5 0.374654 0.786546 0.0636378 0.558672
0.350249 0.5 1.0125 0.865782 0.0134191 0.529224
0.350249 0.5 -1.0125 0.863287 0.014628 0.47961
1.05695 0.5 -0.180382 0.762323 0.0701633 0.4706
1.05695 0.5 0.180382 0.761502 0.0723387 0.532494
1.07319 0.5 0.0709442 0.754058 0.0745025 0.516045
0.939201 0.5 -0.525 0.806863 0.0515638 0.443472
0.939201 0.5 0.525 0.808348 0.0550682 0.570165
1.0271 0.5 -0.331404 0.77794 0.0639527 0.451959
1.0271 0.5 0.331404 0.777555 0.0674118 0.554983
1.08112 0.5 3.23815e-17 0.751203 0.075047 0.50005
1.04168 0.5 -0.291665 0.772079 0.0663154 0.455604
1.04168 0.5 0.291665 0.77145 0.069549 0.550006
1.08112 0.5 -0.0709442 0.752107 0.0743984 0.487111
0.969689 0.5 -0.4875 0.799511 0.0550636 0.44229
0.96969 0.5 0.4875 0.800225 0.0588996 0.569865
1.05695 0.5 0.252535 0.765242 0.0716651 0.544651
1.05695 0.5 -0.252535 0.766109 0.0686869 0.459529
0.288069 0.5 -1.05 0.864481 0.0120784 0.483138
0.288069 0.5 1.05 0.866332 0.0108856 0.523925
0.075776 0.5 -1.0875 0.866136 0.00414623 0.494875
0.075776 0.5 1.0875 0.866286 0.00356324 0.507222
1.08112 0.5 -0.141888 0.754386 0.0733854 0.474782
1.08145 0.5 0.140165 0.753835 0.0751262 0.526581
0.715434 0.5 0.825 0.849843 0.0321215 0.562306
0.715434 0.5 -0.825 0.844785 0.0313704 0.454397
0.756813 0.5 0.7875 0.84541 0.0353246 0.565856
0.756814 0.5 -0.7875 0.840524 0.0341005 0.451303
0.67013 0.5 -0.8625 0.848785 0.0286727 0.457709
0.67013 0.5 0.8625 0.853952 0.0289278 0.558372
0.797732 0.5 -0.75 0.835706 0.036999 0.448276
0.797732 0.5 0.75 0.840185 0.03876 0.568971
0.624316 0.5 -0.9 0.852206 0.0261222 0.460993
0.624316 0.5 0.9 0.857243 0.0259878 0.554164
1.00005 0.5 -0.449585 0.792191 0.05814 0.442389
1.00005 0.5 0.449585 0.792349 0.0621403 0.568026
0.835106 0.5 -0.7125 0.830584 0.0399408 0.445469
0.835106 0.5 0.7125 0.834601 0.0422017 0.571683
0.574156 0.5 -0.9375 0.855409 0.0235913 0.464504
0.574157 0.5 0.9375 0.860233 0.0230543 0.549588
1.10076 0.5 -0.0349809 0.74579 0.0770004 0.492666
1.10076 0.5 0.0349809 0.745546 0.0774844 0.506088
1.08112 0.5 -0.212832 0.757863 0.0720315 0.463137
1.08112 0.5 0.212832 0.756704 0.0747519 0.538976
0.872064 0.5 -0.675 0.824902 0.0430173 0.442865
0.872064 0.5 0.675 0.82833 0.0458036 0.573809
1.04168 0.5 -0.364581 0.777441 0.0644244 0.445946
1.04168 0.5 0.364581 0.776763 0.0683508 0.560912
1.0271 0.5 0.405049 0.78325 0.0660521 0.565233
1.0271 0.5 -0.405049 0.783594 0.061976 0.443112
1.05695 0.5 -0.324688 0.771126 0.0668917 0.449039
1.05695 0.5 0.324688 0.770128 0.0706368 0.556205
1.10076 0.5 -0.104943 0.747457 0.0761493 0.479574
1.10076 0.5 0.104943 0.746707 0.0775915 0.519535
0.523432 0.5 0.975 0.862423 0.0203822 0.544852
0.523432 0.5 -0.975 0.858014 0.0211864 0.467925
0.90582 0.5 0.6375 0.821709 0.0494068 0.575499
0.905821 0.5 -0.6375 0.818883 0.0461421 0.440494