# kMean  POINT_DATA 63140
# x  y  z  kMean
0 0.1 0 0.00375
0 0.1 -0.0179898 0.00375
0 0.1 0.0179898 0.00375
0.0363518 0.1 -0.0179898 0.00374803
0.0363518 0.1 0.0179898 0.003748
0 0.1 -0.0570102 0.00375
0 0.1 0.0570102 0.00375
0.0363518 0.1 0.0570102 0.003748
0.0363518 0.1 -0.0570102 0.00374803
0 0.1 -0.075 0.00375
0 0.1 0.075 0.00375
0.0757758 0.1 -0.0375 0.00374564
0.0757758 0.1 0.0375 0.00374559
0 0.1 -0.0929898 0.00375
0 0.1 0.0929898 0.00375
0.0363518 0.1 -0.0929898 0.00374824
0.0363518 0.1 0.0929898 0.00374819
0 0.1 -0.13201 0.00375
0 0.1 0.13201 0.00375
0.0757758 0.1 -0.1125 0.00374609
0.0757758 0.1 0.1125 0.00374597
0.0363518 0.1 -0.13201 0.00374824
0.0363518 0.1 0.13201 0.00374819
0 0.1 -0.15 0.00375
0 0.1 0.15 0.00375
0.150379 0.1 -4.33681e-19 0.00373989
0 0.1 -0.16799 0.00375
0 0.1 0.16799 0.00375
0.150379 0.1 -0.075 0.00374043
0.150379 0.1 0.075 0.0037402
0.0363518 0.1 -0.16799 0.00374852
0.0363518 0.1 0.16799 0.00374848
0.0757758 0.1 -0.1875 0.00374667
0.0757758 0.1 0.1875 0.00374657
0 0.1 -0.20701 0.00375
0 0.1 0.20701 0.00375
0.0363518 0.1 -0.20701 0.00374852
0.0363518 0.1 0.20701 0.00374848
0.150379 0.1 -0.15 0.00374134
0.150379 0.1 0.15 0.00374106
0.219992 0.1 -0.0375 0.00373455
0.219992 0.1 0.0375 0.00373431
0 0.1 -0.225 0.00375
0 0.1 0.225 0.00375
0 0.1 -0.24299 0.00375
0 0.1 0.24299 0.00375
0.0363518 0.1 0.24299 0.00374877
0.0363518 0.1 -0.24299 0.00374878
0.219992 0.1 -0.1125 0.00373591
0.219992 0.1 0.1125 0.00373543
0.150379 0.1 0.225 0.003742
0.150379 0.1 -0.225 0.00374221
0.0757758 0.1 0.2625 0.00374718
0.0757758 0.1 -0.2625 0.0037472
0 0.1 -0.28201 0.00375
0 0.1 0.28201 0.00375
0.0363518 0.1 -0.28201 0.00374878
0.0363518 0.1 0.28201 0.00374877
0.287374 0.1 0 0.00372819
0.219992 0.1 -0.1875 0.00373715
0.219992 0.1 0.1875 0.00373676
0.287374 0.1 -0.075 0.0037291
0.287374 0.1 0.075 0.00372859
0 0.1 -0.3 0.00375
0 0.1 0.3 0.00375
0 0.1 -0.31799 0.00375
0 0.1 0.31799 0.00375
0.0363518 0.1 -0.31799 0.00374902
0.0363518 0.1 0.31799 0.00374903
0.287374 0.1 -0.15 0.00373057
0.287374 0.1 0.15 0.0037299
0.150379 0.1 -0.3 0.00374302
0.150379 0.1 0.3 0.00374289
0.219992 0.1 -0.2625 0.00373824
0.219992 0.1 0.2625 0.00373794
0.0757758 0.1 -0.3375 0.0037477
0.0757758 0.1 0.3375 0.0037477
0.350249 0.1 -0.0375 0.00372242
0.350249 0.1 0.0375 0.00372201
0 0.1 0.35701 0.00375
0 0.1 -0.35701 0.00375
0.0363518 0.1 -0.35701 0.00374902
0.0363518 0.1 0.35701 0.00374903
0.287374 0.1 -0.225 0.00373191
0.287374 0.1 0.225 0.00373133
0.350249 0.1 0.1125 0.00372313
0.350249 0.1 -0.1125 0.00372403
0 0.1 -0.375 0.00375
0 0.1 0.375 0.00375
0 0.1 -0.39299 0.00375
0 0.1 0.39299 0.00375
0.0363518 0.1 -0.39299 0.00374927
0.0363518 0.1 0.39299 0.00374928
0.350249 0.1 -0.1875 0.00372568
0.350249 0.1 0.1875 0.00372479
0.219992 0.1 -0.3375 0.00373935
0.219992 0.1 0.3375 0.00373915
0.150379 0.1 -0.375 0.00374368
0.150379 0.1 0.375 0.00374364
0.411108 0.1 -2.21177e-17 0.00371783
0.287374 0.1 -0.3 0.0037331
0.287374 0.1 0.3 0.00373266
0.411108 0.1 0.075 0.00371809
0.411108 0.1 -0.075 0.00371886
0.0757758 0.1 -0.4125 0.00374821
0.0757758 0.1 0.4125 0.00374822
0 0.1 -0.43201 0.00375
0 0.1 0.43201 0.00375
0.0363518 0.1 -0.43201 0.00374927
0.0363518 0.1 0.43201 0.00374928
0.411108 0.1 -0.15 0.00372048
0.411108 0.1 0.15 0.0037194
0.350249 0.1 -0.2625 0.00372703
0.350249 0.1 0.2625 0.00372633
0 0.1 -0.45 0.00375
0 0.1 0.45 0.00375
0.219992 0.1 -0.4125 0.00373986
0.219992 0.1 0.4125 0.00373985
0 0.1 -0.46799 0.00375
0 0.1 0.46799 0.00375
0.411108 0.1 -0.225 0.00372201
0.411108 0.1 0.225 0.003721
0.467897 0.1 0.0375 0.00371332
0.467897 0.1 -0.0375 0.00371385
0.0363518 0.1 -0.46799 0.00374954
0.0363518 0.1 0.46799 0.00374954
0.287374 0.1 -0.375 0.00373399
0.287374 0.1 0.375 0.00373372
0.150379 0.1 -0.45 0.00374421
0.150379 0.1 0.45 0.00374419
0.467897 0.1 -0.1125 0.00371541
0.467897 0.1 0.1125 0.00371419
0.350249 0.1 0.3375 0.00372769
0.350249 0.1 -0.3375 0.00372821
0.0757758 0.1 -0.4875 0.00374876
0.0757758 0.1 0.4875 0.00374877
0.467897 0.1 -0.1875 0.00371711
0.467897 0.1 0.1875 0.00371578
0 0.1 -0.50701 0.00375
0 0.1 0.50701 0.00375
0.0363518 0.1 -0.50701 0.00374954
0.0363518 0.1 0.50701 0.00374954
0.411108 0.1 -0.3 0.00372326
0.411108 0.1 0.3 0.00372245
0.522864 0.1 -2.08167e-17 0.00371154
0 0.1 -0.525 0.00375
0 0.1 0.525 0.00375
0.522864 0.1 -0.075 0.00371256
0.522864 0.1 0.075 0.00371161
0.287374 0.1 -0.45 0.00373462
0.287374 0.1 0.45 0.00373441
0.219992 0.1 -0.4875 0.00374041
0.219992 0.1 0.4875 0.00374028
0.467897 0.1 0.2625 0.0037174
0.467897 0.1 -0.2625 0.00371849
0.350249 0.1 -0.4125 0.00372899
0.350249 0.1 0.4125 0.00372865
0 0.1 -0.54299 0.00375
0 0.1 0.54299 0.00375
0.522864 0.1 0.15 0.00371268
0.522864 0.1 -0.15 0.00371408
0.0363518 0.1 -0.54299 0.00374982
0.0363518 0.1 0.54299 0.00374982
0.150379 0.1 -0.525 0.00374486
0.150379 0.1 0.525 0.00374478
0.411108 0.1 -0.375 0.00372419
0.411108 0.1 0.375 0.00372358
0.0757758 0.1 -0.5625 0.00374934
0.0757758 0.1 0.5625 0.00374934
0.522864 0.1 -0.225 0.0037155
0.522864 0.1 0.225 0.00371413
0.574156 0.1 -0.0375 0.00370982
0.574156 0.1 0.0375 0.00370922
0.467897 0.1 -0.3375 0.00371958
0.467897 0.1 0.3375 0.0037187
0 0.1 -0.58201 0.00375
0 0.1 0.58201 0.00375
0.0363518 0.1 -0.58201 0.00374982
0.0363518 0.1 0.58201 0.00374982
0.574156 0.1 -0.1125 0.0037112
0.574156 0.1 0.1125 0.00370978
0.287374 0.1 -0.525 0.00373536
0.287374 0.1 0.525 0.00373507
0 0.1 -0.6 0.00375
0 0.1 0.6 0.00375
0.350249 0.1 -0.4875 0.00372966
0.350249 0.1 0.4875 0.0037293
0.522864 0.1 0.3 0.00371544
0.522864 0.1 -0.3 0.00371659
0.219992 0.1 -0.5625 0.00374129
0.219992 0.1 0.5625 0.0037411
0.574156 0.1 -0.1875 0.00371266
0.574156 0.1 0.1875 0.00371104
0.411108 0.1 -0.45 0.00372484
0.411108 0.1 0.45 0.00372433
0 0.1 -0.61799 0.00375
0 0.1 0.61799 0.00375
0.150379 0.1 -0.6 0.00374558
0.150379 0.1 0.6 0.00374549
0.0363518 0.1 -0.61799 0.00375009
0.0363518 0.1 0.61799 0.0037501
0.467897 0.1 0.4125 0.00371959
0.467897 0.1 -0.4125 0.00372025
0.623803 0.1 1.04083e-17 0.00370971
0.623803 0.1 -0.075 0.00371065
0.623803 0.1 0.075 0.00370961
0.574156 0.1 -0.2625 0.00371382
0.574156 0.1 0.2625 0.00371237
0.623803 0.1 -0.15 0.0037119
0.623803 0.1 0.15 0.00371032
0.0757758 0.1 0.6375 0.00374992
0.0757758 0.1 -0.6375 0.00374991
0.522864 0.1 -0.375 0.00371725
0.522864 0.1 0.375 0.00371637
0 0.1 0.65701 0.00375
0 0.1 -0.65701 0.00375
0.0363518 0.1 0.65701 0.0037501
0.0363518 0.1 -0.65701 0.00375009
0.350249 0.1 -0.5625 0.0037305
0.350249 0.1 0.5625 0.00373005
0.623803 0.1 -0.225 0.00371299
0.623803 0.1 0.225 0.00371137
0.287374 0.1 -0.6 0.00373621
0.287374 0.1 0.6 0.0037359
0.574156 0.1 -0.3375 0.00371453
0.574156 0.1 0.3375 0.00371339
0.411108 0.1 -0.525 0.00372547
0.411108 0.1 0.525 0.00372493
0.67013 0.1 -0.0375 0.00371014
0.67013 0.1 0.0375 0.00370951
0.219992 0.1 0.6375 0.00374198
0.219992 0.1 -0.6375 0.00374215
0 0.1 -0.675 0.00375
0 0.1 0.675 0.00375
0.467897 0.1 -0.4875 0.00372073
0.467897 0.1 0.4875 0.0037201
0.67013 0.1 -0.1125 0.00371127
0.67013 0.1 0.1125 0.00370975
0.522864 0.1 -0.45 0.00371757
0.522864 0.1 0.45 0.00371686
0.150379 0.1 0.675 0.00374619
0.150379 0.1 -0.675 0.00374626
0.623803 0.1 0.3 0.0037123
0.623803 0.1 -0.3 0.00371366
0 0.1 -0.69299 0.00375
0 0.1 0.69299 0.00375
0.0363518 0.1 0.69299 0.00375035
0.0363518 0.1 -0.69299 0.00375034
0.67013 0.1 0.1875 0.00371056
0.67013 0.1 -0.1875 0.00371233
0.574156 0.1 -0.4125 0.00371475
0.574156 0.1 0.4125 0.00371392
0.714971 0.1 -1.82146e-17 0.00371205
0.0757758 0.1 0.7125 0.00375044
0.0757758 0.1 -0.7125 0.00375042
0.714971 0.1 -0.075 0.00371285
0.714971 0.1 0.075 0.00371177
0.67013 0.1 -0.2625 0.00371302
0.67013 0.1 0.2625 0.0037114
0.411108 0.1 -0.6 0.00372616
0.411108 0.1 0.6 0.00372558
0.350249 0.1 -0.6375 0.00373135
0.350249 0.1 0.6375 0.00373091
0.623803 0.1 -0.375 0.00371381
0.623803 0.1 0.375 0.00371279
0.714971 0.1 0.15 0.00371209
0.714971 0.1 -0.15 0.00371374
0.467897 0.1 -0.5625 0.00372127
0.467897 0.1 0.5625 0.00372056
0 0.1 -0.73201 0.00375
0 0.1 0.73201 0.00375
0.0363518 0.1 -0.73201 0.00375034
0.0363518 0.1 0.73201 0.00375035
0.287374 0.1 0.675 0.00373674
0.287374 0.1 -0.675 0.00373702
0.522864 0.1 -0.525 0.00371775
0.522864 0.1 0.525 0.00371705
0.219992 0.1 0.7125 0.00374278
0.219992 0.1 -0.7125 0.0037429
0.714971 0.1 0.225 0.00371263
0.714971 0.1 -0.225 0.00371433
0 0.1 0.75 0.00375
0 0.1 -0.75 0.00375
0.67013 0.1 -0.3375 0.00371315
0.67013 0.1 0.3375 0.00371192
0.574156 0.1 0.4875 0.00371394
0.574156 0.1 -0.4875 0.00371466
0.756814 0.1 -0.0375 0.0037144
0.756814 0.1 0.0375 0.00371378
0.150379 0.1 0.746002 0.00374685
0.150379 0.1 -0.75 0.00374685
0.756814 0.1 -0.1125 0.00371523
0.756814 0.1 0.1125 0.00371371
0 0.1 0.76799 0.00375
0 0.1 -0.76799 0.00375
0.0363518 0.1 0.76799 0.00375057
0.0363518 0.1 -0.76799 0.00375056
0.623803 0.1 -0.45 0.0037135
0.623803 0.1 0.45 0.00371274
0.714971 0.1 0.3 0.00371298
0.714971 0.1 -0.3 0.00371441
0.756814 0.1 -0.1875 0.0037158
0.756814 0.1 0.1875 0.00371402
0.67013 0.1 -0.4125 0.0037127
0.67013 0.1 0.4125 0.00371185
0.411108 0.1 -0.675 0.00372683
0.411108 0.1 0.675 0.00372628
0.467897 0.1 -0.6375 0.00372184
0.467897 0.1 0.6375 0.00372112
0.0757758 0.1 -0.7875 0.00375087
0.0757758 0.1 0.7875 0.0037509
0.350249 0.1 0.7125 0.00373174
0.350249 0.1 -0.7125 0.00373214
0.522864 0.1 -0.6 0.00371792
0.522864 0.1 0.6 0.00371719
0.797314 0.1 -2.86229e-17 0.0037181
0.287374 0.1 0.746002 0.00373757
0.797314 0.1 -0.075 0.00371873
0.797314 0.1 0.075 0.00371769
0.756814 0.1 0.2625 0.00371424
0.756814 0.1 -0.2625 0.00371586
0.287374 0.1 -0.75 0.00373774
0.574156 0.1 -0.5625 0.00371448
0.574156 0.1 0.5625 0.00371372
0 0.1 0.80701 0.00375
0 0.1 -0.80701 0.00375
0.714971 0.1 -0.375 0.00371386
0.714971 0.1 0.375 0.00371284
0.0363518 0.1 -0.80701 0.00375056
0.0363518 0.1 0.80701 0.00375057
0.797314 0.1 -0.15 0.0037192
0.797314 0.1 0.15 0.0037176
0.623803 0.1 -0.525 0.00371294
0.623803 0.1 0.525 0.00371225
0.219992 0.1 0.7875 0.00374347
0.219992 0.1 -0.7875 0.00374356
0.149792 0.1 0.80701 0.00374724
0 0.1 0.825 0.00375
0 0.1 -0.825 0.00375
0.797314 0.1 -0.225 0.0037192
0.797314 0.1 0.225 0.00371756
0.756814 0.1 -0.3375 0.00371533
0.756814 0.1 0.3375 0.00371407
0.67013 0.1 -0.4875 0.00371182
0.67013 0.1 0.4875 0.00371118
0.835107 0.1 -0.0375 0.00372215
0.835107 0.1 0.0375 0.00372157
0.150379 0.1 -0.825 0.00374737
0.835107 0.1 -0.1125 0.00372263
0.835107 0.1 0.1125 0.00372121
0 0.1 0.84299 0.00375
0 0.1 -0.84299 0.00375
0.0363518 0.1 0.84299 0.00375077
0.0363518 0.1 -0.84299 0.00375075
0.714971 0.1 -0.45 0.00371272
0.714971 0.1 0.45 0.00371207
0.411108 0.1 0.746002 0.00372698
0.797314 0.1 -0.3 0.00371857
0.797314 0.1 0.3 0.00371722
0.467897 0.1 -0.7125 0.00372231
0.467897 0.1 0.7125 0.00372168
0.522864 0.1 0.675 0.00371736
0.522864 0.1 -0.675 0.00371806
0.411108 0.1 -0.75 0.00372738
0.835107 0.1 -0.1875 0.00372266
0.835107 0.1 0.1875 0.00372099
0.286844 0.1 0.80701 0.00373804
0.574156 0.1 0.6375 0.0037135
0.574156 0.1 -0.6375 0.00371428
0.350249 0.1 -0.7875 0.00373281
0.350249 0.1 0.7875 0.00373249
0.756814 0.1 0.4125 0.00371327
0.756814 0.1 -0.4125 0.00371399
0.623803 0.1 -0.6 0.00371227
0.623803 0.1 0.6 0.00371158
0.0757758 0.1 0.8625 0.0037513
0.0757758 0.1 -0.8625 0.00375127
0.871687 0.1 -1.73472e-17 0.00372732
0.287374 0.1 -0.825 0.00373835
0.871687 0.1 -0.075 0.00372774
0.871687 0.1 0.075 0.0037268
0.67013 0.1 -0.5625 0.00371075
0.67013 0.1 0.5625 0.00371012
0.835107 0.1 0.2625 0.00372055
0.835107 0.1 -0.2625 0.00372202
0.797314 0.1 -0.375 0.00371719
0.797314 0.1 0.375 0.00371633
0 0.1 0.88201 0.00375
0 0.1 -0.88201 0.00375
0.0363518 0.1 0.88201 0.00375077
0.0363518 0.1 -0.88201 0.00375075
0.871687 0.1 0.15 0.00372631
0.871687 0.1 -0.15 0.00372776
0.714971 0.1 -0.525 0.00371121
0.714971 0.1 0.525 0.00371073
0.219992 0.1 0.8625 0.00374405
0.219992 0.1 -0.8625 0.00374411
0 0.1 0.9 0.00375
0 0.1 -0.9 0.00375
0.756814 0.1 -0.4875 0.00371212
0.756814 0.1 0.4875 0.00371173
0.871687 0.1 -0.225 0.00372712
0.871687 0.1 0.225 0.00372567
0.835107 0.1 -0.3375 0.00372065
0.835107 0.1 0.3375 0.00371957
0.410629 0.1 0.80701 0.00372734
0.905821 0.1 -0.0375 0.00373274
0.905821 0.1 0.0375 0.00373222
0.522864 0.1 0.746002 0.00371757
0.150379 0.1 0.9 0.00374779
0.905821 0.1 0.1125 0.00373159
0.905821 0.1 -0.1125 0.00373285
0.522864 0.1 -0.75 0.0037181
0.574156 0.1 -0.7125 0.00371402
0.574156 0.1 0.7125 0.00371332
0.797314 0.1 -0.45 0.00371508
0.797314 0.1 0.45 0.00371472
0.467897 0.1 0.7875 0.0037221
0.467897 0.1 -0.7875 0.0037226
0.150379 0.1 -0.903998 0.00374768
0 0.1 0.91799 0.00375
0 0.1 -0.91799 0.00375
0.0363518 0.1 0.91799 0.00375092
0.0363518 0.1 -0.91799 0.0037509
0.623803 0.1 -0.675 0.00371153
0.623803 0.1 0.675 0.00371087
0.411108 0.1 -0.825 0.00372779
0.871687 0.1 -0.3 0.00372569
0.871687 0.1 0.3 0.00372457
0.67013 0.1 0.6375 0.00370895
0.67013 0.1 -0.6375 0.00370957
0.905821 0.1 -0.1875 0.0037323
0.905821 0.1 0.1875 0.00373085
0.350249 0.1 0.8625 0.00373311
0.350249 0.1 -0.8625 0.00373336
0.835107 0.1 -0.4125 0.00371839
0.835107 0.1 0.4125 0.003718
0.714971 0.1 -0.6 0.00370951
0.714971 0.1 0.6 0.00370907
0.93886 0.1 -1.25767e-17 0.00373935
0.0757758 0.1 0.9375 0.00375161
0.0757758 0.1 -0.9375 0.00375157
0.93886 0.1 -0.075 0.00373956
0.93886 0.1 0.075 0.00373874
0.756814 0.1 -0.5625 0.00370995
0.756814 0.1 0.5625 0.00370966
0.905821 0.1 -0.2625 0.00373092
0.905821 0.1 0.2625 0.00372971
0.287374 0.1 0.9 0.00373871
0.287374 0.1 -0.903998 0.00373868
0.871687 0.1 -0.375 0.00372341
0.871687 0.1 0.375 0.00372284
0.93886 0.1 -0.15 0.00373913
0.93886 0.1 0.15 0.00373787
0.797314 0.1 -0.525 0.00371248
0.797314 0.1 0.525 0.00371237
0 0.1 0.95701 0.00375
0 0.1 -0.95701 0.00375
0.0363518 0.1 0.95701 0.00375092
0.0363518 0.1 -0.95701 0.0037509
0.522432 0.1 0.80701 0.00371756
0.219992 0.1 0.9375 0.00374452
0.219992 0.1 -0.9375 0.00374454
0.93886 0.1 -0.225 0.00373785
0.93886 0.1 0.225 0.00373665
0.905821 0.1 -0.3375 0.0037286
0.905821 0.1 0.3375 0.00372789
0.835107 0.1 0.4875 0.00371548
0.835107 0.1 -0.4875 0.00371544
0.96969 0.1 -0.0375 0.0037461
0.96969 0.1 0.0375 0.00374566
0.61613 0.1 0.75 0.00371016
0.574156 0.1 0.7875 0.00371309
0.574156 0.1 -0.7875 0.00371367
0 0.1 0.975 0.00375
0 0.1 -0.975 0.00375
0.623803 0.1 -0.75 0.00371072
0.96969 0.1 -0.1125 0.00374588
0.96969 0.1 0.1125 0.00374479
0.522864 0.1 -0.825 0.00371799
0.67013 0.1 -0.7125 0.00370828
0.67013 0.1 0.7125 0.00370775
0.871687 0.1 -0.45 0.00372028
0.871687 0.1 0.45 0.00372029
0.467897 0.1 -0.8625 0.00372273
0.467897 0.1 0.8625 0.00372237
0.714971 0.1 -0.675 0.00370768
0.714971 0.1 0.675 0.00370729
0.93886 0.1 -0.3 0.00373561
0.93886 0.1 0.3 0.00373482
0.150379 0.1 0.975 0.00374813
0.150379 0.1 -0.975 0.00374812
0.96969 0.1 -0.1875 0.0037448
0.96969 0.1 0.1875 0.00374357
0.411108 0.1 0.9 0.0037278
0.756814 0.1 -0.6375 0.00370761
0.756814 0.1 0.6375 0.00370736
0.990306 0.1 0 0.00374733
0 0.1 0.99299 0.00375
0 0.1 -0.99299 0.00375
0.411108 0.1 -0.903998 0.00372792
0.990306 0.1 -0.075 0.00374739
0.990306 0.1 0.075 0.00374666
0.0363518 0.1 0.99299 0.00375103
0.0363518 0.1 -0.99299 0.00375101
0.905821 0.1 -0.4125 0.00372546
0.905821 0.1 0.4125 0.00372535
0.797314 0.1 -0.6 0.00370959
0.797314 0.1 0.6 0.00370958
0.350249 0.1 0.9375 0.0037336
0.350249 0.1 -0.9375 0.00373377
0.990306 0.1 -0.15 0.00374664
0.990306 0.1 0.15 0.00374554
0.96969 0.1 -0.2625 0.00374273
0.96969 0.1 0.2625 0.0037418
0.835107 0.1 -0.5625 0.00371207
0.835107 0.1 0.5625 0.00371227
0.93886 0.1 -0.375 0.00373243
0.93886 0.1 0.375 0.00373221
0.0757758 0.1 1.0125 0.00375185
0.0757758 0.1 -1.0125 0.00375181
0.990306 0.1 -0.225 0.00374493
0.990306 0.1 0.225 0.00374391
0.287374 0.1 -0.975 0.0037392
0.287374 0.1 0.975 0.00373912
0.871687 0.1 -0.525 0.00371648
0.871687 0.1 0.525 0.00371688
1.02149 0.1 -0.0369628 0.00375525
1.02149 0.1 0.0369628 0.0037549
0.96969 0.1 0.3375 0.00373921
0.96969 0.1 -0.3375 0.00373955
1.02149 0.1 -0.110888 0.00375478
1.02149 0.1 0.110888 0.00375389
0.905821 0.1 -0.4875 0.00372134
0.905821 0.1 0.4875 0.00372182
0.623803 0.1 0.819003 0.00370916
0 0.1 1.03201 0.00375
0 0.1 -1.03201 0.00375
0.0363518 0.1 1.03201 0.00375103
0.0363518 0.1 -1.03201 0.00375101
0.67013 0.1 -0.7875 0.00370695
0.67013 0.1 0.7875 0.00370655
0.623803 0.1 -0.825 0.00370981
0.990306 0.1 0.3 0.00374157
0.990306 0.1 -0.3 0.00374214
0.219992 0.1 1.0125 0.00374487
0.219992 0.1 -1.0125 0.00374486
0.574156 0.1 0.8625 0.00371278
0.574156 0.1 -0.8625 0.0037132
0.714971 0.1 -0.75 0.00370575
0.714971 0.1 0.75 0.00370548
1.02149 0.1 -0.184814 0.00375335
1.02149 0.1 0.184814 0.00375234
0.756814 0.1 -0.7125 0.00370513
0.756814 0.1 0.7125 0.00370497
0.522864 0.1 0.9 0.00371745
0.93886 0.1 -0.45 0.00372816
0.93886 0.1 0.45 0.0037287
1.04168 0.1 0 0.00376026
1.04168 0.1 -0.0729162 0.00376016
1.04168 0.1 0.0729162 0.00375957
0.522864 0.1 -0.903998 0.00371769
0.797314 0.1 -0.675 0.00370651
0.797314 0.1 0.675 0.00370659
0.467897 0.1 0.9375 0.00372251
0.467897 0.1 -0.9375 0.00372275
0 0.1 1.05 0.00375
0 0.1 -1.05 0.00375
0.835107 0.1 -0.6375 0.00370843
0.835107 0.1 0.6375 0.00370873
1.04168 0.1 -0.145832 0.00375914
1.04168 0.1 0.145832 0.00375822
1.02149 0.1 -0.25874 0.00375085
1.02149 0.1 0.25874 0.00375013
0.96969 0.1 -0.4125 0.00373548
0.96969 0.1 0.4125 0.00373575
0.411108 0.1 0.975 0.00372805
0.411108 0.1 -0.975 0.00372821
0.871687 0.1 -0.6 0.00371225
0.871687 0.1 0.6 0.00371287
1.0579 0.1 -0.0360525 0.00376504
1.0579 0.1 0.0360525 0.00376476
0.990306 0.1 -0.375 0.00373832
0.990306 0.1 0.375 0.00373835
0.150379 0.1 1.05 0.00374838
0.150379 0.1 -1.05 0.00374834
1.0579 0.1 -0.108157 0.00376445
1.0579 0.1 0.108157 0.00376369
1.04168 0.1 -0.218749 0.00375708
1.04168 0.1 0.218749 0.00375625
0.905821 0.1 -0.5625 0.0037166
0.905821 0.1 0.5625 0.00371748
0 0.1 1.06799 0.00375
0 0.1 -1.06799 0.00375
0.0363518 0.1 -1.06799 0.00375109
0.0363518 0.1 1.06799 0.00375111
0.350249 0.1 1.0125 0.00373394
0.350249 0.1 -1.0125 0.00373404
1.0579 0.1 -0.180262 0.00376286
1.0579 0.1 0.180262 0.003762
1.02149 0.1 0.332665 0.00374707
1.02149 0.1 -0.332665 0.00374718
0.93886 0.1 -0.525 0.003723
0.93886 0.1 0.525 0.00372414
1.08012 0.1 4.48137e-18 0.0037714
1.04168 0.1 -0.291665 0.00375387
1.04168 0.1 0.291665 0.0037535
1.08012 0.1 -0.0709942 0.00377121
1.08012 0.1 0.0709942 0.00377072
0.96969 0.1 -0.4875 0.00372978
0.96969 0.1 0.4875 0.00373127
1.0579 0.1 -0.252367 0.00376016
1.0579 0.1 0.252367 0.0037596
0.990306 0.1 -0.45 0.00373318
0.990306 0.1 0.45 0.00373417
0.287374 0.1 1.05 0.00373941
0.287374 0.1 -1.05 0.00373943
0.714971 0.1 0.821002 0.00370374
1.08012 0.1 0.141988 0.00376929
1.08012 0.1 -0.141988 0.00377006
0.0757758 0.1 -1.0875 0.00375197
0.0757758 0.1 1.0875 0.00375201
0.714971 0.1 -0.825 0.00370374
0.756814 0.1 -0.7875 0.00370254
0.756814 0.1 0.7875 0.00370256
0.67013 0.1 -0.8625 0.00370552
0.67013 0.1 0.8625 0.00370531
0.797314 0.1 -0.75 0.00370329
0.797314 0.1 0.75 0.00370352
0.623803 0.1 0.9 0.00370859
0.835107 0.1 -0.7125 0.00370462
0.835107 0.1 0.7125 0.00370504
0.623803 0.1 -0.903998 0.00370883
0.574156 0.1 0.9375 0.0037124
0.574156 0.1 -0.9375 0.00371264
1.02149 0.1 -0.406591 0.00374247
1.02149 0.1 0.406591 0.00374303
1.08012 0.1 -0.212982 0.00376785
1.08012 0.1 0.212982 0.00376717
1.10076 0.1 -0.034981 0.00377767
1.10076 0.1 0.034981 0.00377744
0.871687 0.1 -0.675 0.00370774
0.871687 0.1 0.675 0.00370852
1.04168 0.1 -0.364581 0.00374955
1.04168 0.1 0.364581 0.00374981
1.10076 0.1 0.104943 0.00377631
1.10076 0.1 -0.104943 0.00377698
0.522864 0.1 0.975 0.00371727
0.522864 0.1 -0.975 0.00371743
1.0579 0.1 0.324472 0.00375632
1.0579 0.1 -0.324472 0.00375626
0 0.1 1.10701 0.00375
0 0.1 -1.10701 0.00375
0.0363518 0.1 -1.10701 0.00375109
0.0363518 0.1 1.10701 0.00375111
0.905821 0.1 -0.6375 0.00371147
0.905821 0.1 0.6375 0.00371255
0.219992 0.1 -1.0875 0.00374506
0.219992 0.1 1.0875 0.0037451
0.93886 0.1 -0.6 0.00371736
0.93886 0.1 0.6 0.00371876
1.10076 0.1 0.174905 0.00377449
1.10076 0.1 -0.174905 0.00377526
0.467897 0.1 1.0125 0.00372252
0.467897 0.1 -1.0125 0.00372265
1.08012 0.1 -0.283977 0.00376446
1.08012 0.1 0.283977 0.00376423
1.11929 0.1 1.20274e-17 0.0037832
0.990306 0.1 -0.525 0.003727
0.990306 0.1 0.525 0.00372873
0.96969 0.1 -0.5625 0.00372372
0.96969 0.1 0.5625 0.00372539
1.11929 0.1 0.0690357 0.00378253
1.11929 0.1 -0.0690357 0.00378294
0 0.1 1.125 0.00375
0 0.1 -1.125 0.00375
0.411108 0.1 1.05 0.00372816
0.411108 0.1 -1.05 0.00372823
1.10076 0.1 -0.244867 0.00377242
1.10076 0.1 0.244867 0.00377191
1.11929 0.1 -0.138071 0.0037817
1.11929 0.1 0.138071 0.00378104
1.02149 0.1 0.480517 0.00373794
1.02149 0.1 -0.480517 0.00373605
1.0579 0.1 -0.396577 0.00375123
1.0579 0.1 0.396577 0.00375202
1.04168 0.1 -0.437497 0.0037438
1.04168 0.1 0.437497 0.0037451
0.150379 0.1 1.125 0.00374853
0.150379 0.1 -1.125 0.00374848
0.714971 0.1 0.88201 0.00370123
1.08012 0.1 -0.354971 0.0037599
1.08012 0.1 0.354971 0.00376033
1.11929 0.1 0.207107 0.0037788
1.11929 0.1 -0.207107 0.00377939
0.350249 0.1 1.0875 0.00373416
0.350249 0.1 -1.0875 0.00373419
0 0.1 -1.14299 0.00375
0 0.1 1.14299 0.00375
0.0363518 0.1 1.14299 0.00375116
0.0363518 0.1 -1.14299 0.00375114
1.14316 0.1 0.0339211 0.00379084
1.14316 0.1 -0.0339211 0.003791
0.797314 0.1 0.821002 0.00370058
1.10076 0.1 -0.314829 0.00376834
1.10076 0.1 0.314829 0.00376844
0.797314 0.1 -0.825 0.00369997
0.756814 0.1 0.8625 0.00370014
0.756814 0.1 -0.8625 0.00369991
1.14316 0.1 0.101763 0.00378972
1.14316 0.1 -0.101763 0.00379021
0.835107 0.1 -0.7875 0.00370066
0.835107 0.1 0.7875 0.00370128
0.871687 0.1 -0.75 0.00370304
0.871687 0.1 0.75 0.00370401
0.67013 0.1 0.9375 0.00370399
0.67013 0.1 -0.9375 0.00370401
0.905821 0.1 -0.7125 0.00370608
0.905821 0.1 0.7125 0.00370735
0.714971 0.1 -0.903998 0.00370182
1.11929 0.1 -0.276143 0.0037759
1.11929 0.1 0.276143 0.00377573
1.14316 0.1 -0.169605 0.00378841
1.14316 0.1 0.169605 0.00378783
0.93886 0.1 -0.675 0.00371139
0.93886 0.1 0.675 0.00371299
1.15704 0.1 0 0.00379521
1.0579 0.1 -0.468682 0.0037445
1.0579 0.1 0.468682 0.00374665
0.623803 0.1 0.975 0.00370771
0.623803 0.1 -0.975 0.00370775
0.990306 0.1 -0.6 0.00372038
0.990306 0.1 0.6 0.00372235
1.15704 0.1 -0.0671479 0.00379489
1.15704 0.1 0.0671479 0.00379456
1.04168 0.1 -0.510414 0.00373681
1.04168 0.1 0.510414 0.00373906
0.96969 0.1 -0.6375 0.00371716
0.96969 0.1 0.6375 0.00371907
1.08012 0.1 -0.425965 0.00375389
1.08012 0.1 0.425965 0.00375538
0.287374 0.1 1.125 0.00373956
0.287374 0.1 -1.125 0.00373954
1.02149 0.1 -0.554442 0.00372907
1.02149 0.1 0.554442 0.00373134
0.574156 0.1 1.0125 0.00371192
0.574156 0.1 -1.0125 0.00371198
1.15704 0.1 -0.134296 0.00379359
1.15704 0.1 0.134296 0.00379303
0.0757758 0.1 -1.1625 0.00375208
0.0757758 0.1 1.1625 0.00375212
1.10076 0.1 -0.384791 0.00376311
1.10076 0.1 0.384791 0.00376391
1.14316 0.1 -0.237448 0.00378549
1.14316 0.1 0.237448 0.00378514
1.11929 0.1 0.345179 0.0037717
1.11929 0.1 -0.345179 0.00377121
0.522864 0.1 1.05 0.00371697
0.522864 0.1 -1.05 0.003717
1.15704 0.1 -0.201444 0.00379123
1.15704 0.1 0.201444 0.00379071
1.1744 0.1 -0.0331401 0.00380075
1.1744 0.1 0.0331401 0.00380061
1.1744 0.1 0.0994203 0.00379947
1.1744 0.1 -0.0994203 0.00379994
0 0.1 1.18201 0.00375
0 0.1 -1.18201 0.00375
0.0363518 0.1 -1.18201 0.00375114
0.0363518 0.1 1.18201 0.00375116
0.219992 0.1 -1.1625 0.00374515
0.219992 0.1 1.1625 0.00374521
1.14316 0.1 -0.30529 0.00378135
1.14316 0.1 0.30529 0.00378158
0.467897 0.1 -1.0875 0.00372245
0.467897 0.1 1.0875 0.00372242
1.1744 0.1 -0.1657 0.00379813
1.1744 0.1 0.1657 0.00379755
1.15704 0.1 -0.268592 0.00378772
1.15704 0.1 0.268592 0.00378756
1.0579 0.1 0.540787 0.00373974
1.0579 0.1 -0.540787 0.00373693
0.796996 0.1 0.88201 0.00369809
1.08012 0.1 0.496959 0.00374911
1.08012 0.1 -0.496959 0.00374648
1.10076 0.1 -0.454752 0.00375613
1.10076 0.1 0.454752 0.00375831
1.11929 0.1 -0.414214 0.00376506
1.11929 0.1 0.414214 0.00376659
1.04168 0.1 -0.58333 0.00372932
1.04168 0.1 0.58333 0.00373195
1.1744 0.1 -0.231981 0.00379525
1.1744 0.1 0.231981 0.00379484
0.871687 0.1 0.821002 0.00369965
0.411108 0.1 1.125 0.00372815
0.411108 0.1 -1.125 0.00372815
1.19808 0.1 0 0.0038092
0.990306 0.1 -0.675 0.00371337
0.990306 0.1 0.675 0.00371559
1.02149 0.1 0.628368 0.00372421
1.02149 0.1 -0.628368 0.00372164
1.19808 0.1 0.0650961 0.00380858
1.19808 0.1 -0.0650961 0.00380882
0 0.1 1.2 0.00375
0 0.1 -1.2 0.00375
0.871687 0.1 -0.825 0.00369825
0.905821 0.1 -0.7875 0.00370048
0.905821 0.1 0.7875 0.003702
0.835107 0.1 0.8625 0.00369749
0.835107 0.1 -0.8625 0.00369658
0.93886 0.1 -0.75 0.00370521
0.93886 0.1 0.75 0.00370704
1.14316 0.1 -0.373132 0.00377597
1.14316 0.1 0.373132 0.00377697
0.96969 0.1 -0.7125 0.00371038
0.96969 0.1 0.7125 0.00371249
1.15704 0.1 -0.33574 0.00378298
1.15704 0.1 0.33574 0.00378346
0.756814 0.1 0.9375 0.0036977
0.756814 0.1 -0.9375 0.00369724
1.19808 0.1 -0.130192 0.00380747
1.19808 0.1 0.130192 0.00380703
0.797314 0.1 -0.903998 0.00369691
0.714971 0.1 -0.975 0.00369961
0.714971 0.1 0.975 0.00369991
0.150379 0.1 -1.2 0.00374855
0.150379 0.1 1.2 0.0037486
1.20938 0.1 -0.0322656 0.00381259
1.20938 0.1 0.0322656 0.0038125
1.1744 0.1 -0.298261 0.00379118
1.1744 0.1 0.298261 0.00379127
1.20938 0.1 -0.0967968 0.00381173
1.20938 0.1 0.0967968 0.00381137
1.19808 0.1 0.195288 0.00380467
1.19808 0.1 -0.195288 0.0038051
0.350249 0.1 -1.1625 0.00373419
0.350249 0.1 1.1625 0.00373423
0.67013 0.1 -1.0125 0.00370256
0.67013 0.1 1.0125 0.00370269
0 0.1 1.21799 0.00375
0 0.1 -1.21799 0.00375
0.0363518 0.1 1.21799 0.00375118
0.0363518 0.1 -1.21799 0.00375117
1.11929 0.1 -0.48325 0.0037574
1.11929 0.1 0.48325 0.00376018
1.10076 0.1 -0.524714 0.00374798
1.10076 0.1 0.524714 0.00375115
1.20938 0.1 0.161328 0.0038094
1.20938 0.1 -0.161328 0.00380989
1.08012 0.1 -0.567953 0.0037385
1.08012 0.1 0.567953 0.00374164
0.623803 0.1 1.05 0.00370679
0.623803 0.1 -1.05 0.00370668
1.0579 0.1 0.612892 0.00373218
1.0579 0.1 -0.612892 0.00372905
1.15704 0.1 -0.402888 0.00377681
1.15704 0.1 0.402888 0.00377828
1.14316 0.1 -0.440974 0.00376894
1.14316 0.1 0.440974 0.00377125
1.19808 0.1 -0.260384 0.00380162
1.19808 0.1 0.260384 0.00380148
1.2267 0.1 0 0.00381944
1.2267 0.1 -0.0636648 0.00381901
1.2267 0.1 0.0636648 0.00381884
1.1744 0.1 -0.364541 0.00378586
1.1744 0.1 0.364541 0.00378667
0.574156 0.1 -1.0875 0.00371123
0.574156 0.1 1.0875 0.00371131
1.20938 0.1 0.225859 0.00380664
1.20938 0.1 -0.225859 0.003807
1.04168 0.1 -0.656246 0.00372137
1.04168 0.1 0.656246 0.00372431
1.2267 0.1 -0.12733 0.00381761
1.2267 0.1 0.12733 0.00381727
0.287374 0.1 -1.2 0.00373952
0.287374 0.1 1.2 0.00373958
1.02149 0.1 -0.702294 0.0037138
1.02149 0.1 0.702294 0.00371665
0.0757758 0.1 1.2375 0.00375218
0.0757758 0.1 -1.2375 0.00375214
0.871399 0.1 0.88201 0.00369603
0.522864 0.1 -1.125 0.0037165
0.522864 0.1 1.125 0.00371657
1.2267 0.1 -0.190995 0.00381519
1.2267 0.1 0.190995 0.00381486
1.19808 0.1 -0.32548 0.00379694
1.19808 0.1 0.32548 0.00379736
0.990306 0.1 -0.75 0.00370615
0.990306 0.1 0.75 0.00370862
1.24275 0.1 -0.0314313 0.00382503
1.24275 0.1 0.0314313 0.003825
1.20938 0.1 -0.29039 0.00380297
1.20938 0.1 0.29039 0.00380303
1.24275 0.1 -0.0942939 0.00382408
1.24275 0.1 0.0942939 0.00382385
0.93886 0.1 0.821002 0.00370127
1.11929 0.1 -0.552286 0.00374903
1.11929 0.1 0.552286 0.00375247
1.15704 0.1 -0.470036 0.00376903
1.15704 0.1 0.470036 0.00377184
0.96969 0.1 -0.7875 0.00370347
0.96969 0.1 0.7875 0.00370585
0.93886 0.1 -0.825 0.00369895
0.905821 0.1 -0.8625 0.00369502
0.905821 0.1 0.8625 0.00369666
1.1744 0.1 -0.430821 0.00377894
1.1744 0.1 0.430821 0.00378097
1.10076 0.1 -0.594676 0.00373968
1.10076 0.1 0.594676 0.00374306
1.14316 0.1 -0.508816 0.00376052
1.14316 0.1 0.508816 0.0037641
1.24275 0.1 -0.157157 0.00382216
1.24275 0.1 0.157157 0.00382183
1.2267 0.1 -0.254659 0.00381169
1.2267 0.1 0.254659 0.0038116
0.467897 0.1 -1.1625 0.00372217
0.467897 0.1 1.1625 0.00372223
1.08012 0.1 -0.638947 0.00373004
1.08012 0.1 0.638947 0.00373354
1.25511 0.1 0 0.00383058
0.835107 0.1 -0.9375 0.00369261
0.835107 0.1 0.9375 0.0036937
0.871687 0.1 -0.903998 0.00369392
1.25511 0.1 -0.0622446 0.00383006
1.25511 0.1 0.0622446 0.00383001
0.219992 0.1 -1.2375 0.00374515
0.219992 0.1 1.2375 0.00374523
0 0.1 -1.25701 0.00375
0 0.1 1.25701 0.00375
0.0363518 0.1 1.25701 0.00375118
0.0363518 0.1 -1.25701 0.00375117
0.797314 0.1 0.975 0.0036942
0.797314 0.1 -0.975 0.00369334
1.19808 0.1 -0.390576 0.00379085
1.19808 0.1 0.390576 0.0037922
1.0579 0.1 0.684997 0.00372405
1.0579 0.1 -0.684997 0.00372058
1.20938 0.1 -0.354921 0.0037977
1.20938 0.1 0.354921 0.00379844
1.25511 0.1 -0.124489 0.00382853
1.25511 0.1 0.124489 0.0038284
1.24275 0.1 -0.220019 0.00381921
1.24275 0.1 0.220019 0.00381897
0.756814 0.1 -1.0125 0.00369467
0.756814 0.1 1.0125 0.00369527
1.2267 0.1 -0.318324 0.00380701
1.2267 0.1 0.318324 0.00380744
0.411108 0.1 -1.2 0.00372795
0.411108 0.1 1.2 0.00372802
1.25511 0.1 0.186734 0.00382589
1.25511 0.1 -0.186734 0.00382599
0.714971 0.1 1.05 0.00369809
0.714971 0.1 -1.05 0.00369766
1.04168 0.1 -0.729162 0.00371299
1.04168 0.1 0.729162 0.00371627
1.24275 0.1 0.282882 0.00381526
1.24275 0.1 -0.282882 0.00381515
0 0.1 1.275 0.00375
0 0.1 -1.275 0.00375
1.1744 0.1 -0.497101 0.0037704
1.1744 0.1 0.497101 0.00377391
1.15704 0.1 -0.537184 0.00376037
1.15704 0.1 0.537184 0.003764
1.2756 0.1 -0.0306099 0.00383944
1.2756 0.1 0.0306099 0.00383947
0.67013 0.1 -1.0875 0.00370115
0.67013 0.1 1.0875 0.00370142
1.2756 0.1 0.0918298 0.00383832
1.2756 0.1 -0.0918298 0.00383833
1.25511 0.1 -0.248978 0.00382237
1.25511 0.1 0.248978 0.00382251
1.20938 0.1 0.419453 0.00379276
1.20938 0.1 -0.419453 0.00379089
1.11929 0.1 -0.621321 0.00374016
1.11929 0.1 0.621321 0.00374398
1.14316 0.1 -0.576658 0.00375184
1.14316 0.1 0.576658 0.00375573
1.19808 0.1 -0.455672 0.00378312
1.19808 0.1 0.455672 0.00378586
1.02149 0.1 0.776219 0.00370889
1.02149 0.1 -0.776219 0.00370573
0.150379 0.1 1.275 0.00374861
0.150379 0.1 -1.275 0.00374854
1.2756 0.1 -0.15305 0.00383622
1.2756 0.1 0.15305 0.00383618
1.2267 0.1 -0.381989 0.00380097
1.2267 0.1 0.381989 0.00380227
1.10076 0.1 -0.664638 0.00373057
1.10076 0.1 0.664638 0.00373447
0.350249 0.1 -1.2375 0.00373402