# kMean  POINT_DATA 63889
# x  y  z  kMean
0 0.5 3.39582e-17 0.00375
0 0.5 -0.00617965 0.00375
0 0.5 0.00617965 0.00375
0.0124871 0.5 -0.00617965 0.00375032
0.0124871 0.5 0.00617965 0.00375032
0 0.5 -0.0688203 0.00375
0 0.5 0.0688203 0.00375
0.0124871 0.5 -0.0688203 0.00375032
0.0124871 0.5 0.0688203 0.00375032
0 0.5 -0.075 0.00375
0 0.5 0.075 0.00375
0 0.5 -0.0811797 0.00375
0 0.5 0.0811797 0.00375
0.0124871 0.5 -0.0811797 0.00375033
0.0124871 0.5 0.0811797 0.00375033
0.0757758 0.5 -0.0375 0.00375195
0.0757758 0.5 0.0375 0.00375196
0.0757758 0.5 -0.1125 0.00375199
0.0757758 0.5 0.1125 0.003752
0 0.5 -0.14382 0.00375
0 0.5 0.14382 0.00375
0.0124871 0.5 -0.14382 0.00375033
0.0124871 0.5 0.14382 0.00375033
0 0.5 -0.15 0.00375
0 0.5 0.15 0.00375
0.151149 0.5 -0.00137326 0.00375431
0 0.5 -0.15618 0.00375
0 0.5 0.15618 0.00375
0.0124871 0.5 -0.15618 0.00375034
0.0124871 0.5 0.15618 0.00375035
0.151149 0.5 -0.075 0.00375437
0.151149 0.5 0.075 0.00375437
0.0757758 0.5 -0.1875 0.0037521
0.0757758 0.5 0.1875 0.00375212
0.151149 0.5 -0.15 0.00375451
0.151149 0.5 0.15 0.00375452
0 0.5 -0.21882 0.00375
0 0.5 0.21882 0.00375
0.0124871 0.5 -0.21882 0.00375034
0.0124871 0.5 0.21882 0.00375035
0.219992 0.5 -0.0375 0.00375654
0.219992 0.5 0.0375 0.00375654
0 0.5 -0.225 0.00375
0 0.5 0.225 0.00375
0 0.5 -0.23118 0.00375
0 0.5 0.23118 0.00375
0.0124871 0.5 -0.23118 0.00375037
0.0124871 0.5 0.23118 0.00375038
0.219992 0.5 -0.1125 0.00375667
0.219992 0.5 0.1125 0.00375667
0.151149 0.5 -0.225 0.00375477
0.151149 0.5 0.225 0.00375478
0.0757758 0.5 -0.2625 0.00375226
0.0757758 0.5 0.2625 0.00375228
0.288069 0.5 -0.00137326 0.00376117
0.219992 0.5 -0.1875 0.00375697
0.219992 0.5 0.1875 0.00375697
0 0.5 -0.29382 0.00375
0 0.5 0.29382 0.00375
0.0124871 0.5 -0.29382 0.00375037
0.0124871 0.5 0.29382 0.00375038
0.288069 0.5 -0.075 0.00376129
0.288069 0.5 0.075 0.00376126
0 0.5 -0.3 0.00375
0 0.5 0.3 0.00375
0 0.5 -0.30618 0.00375
0 0.5 0.30618 0.00375
0.0124871 0.5 -0.30618 0.0037504
0.0124871 0.5 0.30618 0.00375041
0.288069 0.5 -0.15 0.00376153
0.288069 0.5 0.15 0.00376148
0.151149 0.5 -0.3 0.0037551
0.151149 0.5 0.3 0.00375512
0.219992 0.5 -0.2625 0.00375741
0.219992 0.5 0.2625 0.00375741
0.0757758 0.5 -0.3375 0.00375245
0.0757758 0.5 0.3375 0.00375248
0.350249 0.5 -0.0375 0.00376559
0.350249 0.5 0.0375 0.00376556
0.288069 0.5 -0.225 0.00376192
0.288069 0.5 0.225 0.00376186
0.350249 0.5 -0.1125 0.00376576
0.350249 0.5 0.1125 0.00376569
0 0.5 0.36882 0.00375
0 0.5 -0.36882 0.00375
0.0124871 0.5 -0.36882 0.0037504
0.0124871 0.5 0.36882 0.00375041
0 0.5 -0.375 0.00375
0 0.5 0.375 0.00375
0 0.5 -0.38118 0.00375
0 0.5 0.38118 0.00375
0.0124871 0.5 -0.38118 0.00375044
0.0124871 0.5 0.38118 0.00375044
0.350249 0.5 -0.1875 0.00376611
0.350249 0.5 0.1875 0.00376601
0.219992 0.5 -0.3375 0.00375793
0.219992 0.5 0.3375 0.00375794
0.151149 0.5 -0.375 0.00375548
0.151149 0.5 0.375 0.00375551
0.411736 0.5 -0.00137326 0.00377274
0.288069 0.5 -0.3 0.00376243
0.288069 0.5 0.3 0.00376237
0.411736 0.5 -0.075 0.00377288
0.411736 0.5 0.075 0.00377281
0.0757758 0.5 -0.4125 0.00375266
0.0757758 0.5 0.4125 0.0037527
0.350249 0.5 -0.2625 0.0037666
0.350249 0.5 0.2625 0.00376648
0.411736 0.5 -0.15 0.00377312
0.411736 0.5 0.15 0.00377298
0 0.5 -0.44382 0.00375
0 0.5 0.44382 0.00375
0.0124871 0.5 -0.44382 0.00375044
0.0124871 0.5 0.44382 0.00375044
0 0.5 -0.45 0.00375
0 0.5 0.45 0.00375
0 0.5 -0.45618 0.00375
0 0.5 0.45618 0.00375
0.0124871 0.5 -0.45618 0.00375047
0.0124871 0.5 0.45618 0.00375048
0.219992 0.5 -0.4125 0.00375851
0.219992 0.5 0.4125 0.00375852
0.411736 0.5 0.225 0.00377331
0.411736 0.5 -0.225 0.00377348
0.467897 0.5 0.0375 0.00377955
0.467897 0.5 -0.0375 0.00377959
0.288069 0.5 -0.375 0.00376302
0.288069 0.5 0.375 0.00376295
0.151149 0.5 -0.45 0.00375589
0.151149 0.5 0.45 0.00375592
0.467897 0.5 -0.1125 0.00377973
0.467897 0.5 0.1125 0.00377959
0.350249 0.5 -0.3375 0.00376719
0.350249 0.5 0.3375 0.00376705
0.0757758 0.5 0.4875 0.00375291
0.0757758 0.5 -0.4875 0.00375287
0.467897 0.5 -0.1875 0.00378
0.467897 0.5 0.1875 0.00377979
0.411736 0.5 -0.3 0.00377394
0.411736 0.5 0.3 0.00377374
0 0.5 -0.51882 0.00375
0 0.5 0.51882 0.00375
0.0124871 0.5 -0.51882 0.00375047
0.0124871 0.5 0.51882 0.00375048
0.523432 0.5 -0.00137326 0.00378907
0 0.5 -0.525 0.00375
0 0.5 0.525 0.00375
0.523432 0.5 -0.075 0.00378921
0.523432 0.5 0.075 0.00378911
0 0.5 -0.53118 0.00375
0 0.5 0.53118 0.00375
0.0124871 0.5 -0.53118 0.00375051
0.0124871 0.5 0.53118 0.00375052
0.288069 0.5 -0.45 0.00376363
0.288069 0.5 0.45 0.00376357
0.219992 0.5 -0.4875 0.00375911
0.219992 0.5 0.4875 0.00375913
0.467897 0.5 -0.2625 0.00378036
0.467897 0.5 0.2625 0.00378012
0.350249 0.5 -0.4125 0.00376783
0.350249 0.5 0.4125 0.00376769
0.523432 0.5 -0.15 0.00378934
0.523432 0.5 0.15 0.00378914
0.151149 0.5 -0.525 0.00375629
0.151149 0.5 0.525 0.00375633
0.411736 0.5 -0.375 0.00377445
0.411736 0.5 0.375 0.00377424
0.0757758 0.5 -0.5625 0.00375308
0.0757758 0.5 0.5625 0.00375312
0.523432 0.5 -0.225 0.00378952
0.523432 0.5 0.225 0.00378926
0.574156 0.5 0.0375 0.00379815
0.574156 0.5 -0.0375 0.00379821
0.467897 0.5 -0.3375 0.00378077
0.467897 0.5 0.3375 0.00378049
0.574156 0.5 -0.1125 0.00379825
0.574156 0.5 0.1125 0.00379807
0 0.5 -0.59382 0.00375
0 0.5 0.59382 0.00375
0.0124871 0.5 -0.59382 0.00375051
0.0124871 0.5 0.59382 0.00375052
0.288069 0.5 -0.525 0.00376423
0.288069 0.5 0.525 0.00376419
0 0.5 -0.6 0.00375
0 0.5 0.6 0.00375
0.350249 0.5 0.4875 0.00376834
0.350249 0.5 -0.4875 0.00376847
0.523432 0.5 -0.3 0.00378973
0.523432 0.5 0.3 0.00378944
0.219992 0.5 -0.5625 0.00375968
0.219992 0.5 0.5625 0.00375972
0.574156 0.5 -0.1875 0.00379832
0.574156 0.5 0.1875 0.00379804
0 0.5 -0.60618 0.00375
0 0.5 0.60618 0.00375
0.0124871 0.5 -0.60618 0.00375054
0.0124871 0.5 0.60618 0.00375055
0.411736 0.5 -0.45 0.00377496
0.411736 0.5 0.45 0.00377476
0.151149 0.5 -0.6 0.00375667
0.151149 0.5 0.6 0.00375672
0.62168 0.5 4.33681e-17 0.00380913
0.467897 0.5 -0.4125 0.00378117
0.467897 0.5 0.4125 0.0037809
0.624316 0.5 0.0729401 0.00380973
0.624316 0.5 -0.075 0.00380984
0.574156 0.5 -0.2625 0.00379837
0.574156 0.5 0.2625 0.00379806
0.0757758 0.5 -0.6375 0.00375326
0.0757758 0.5 0.6375 0.00375331
0.624316 0.5 -0.15 0.00380977
0.624316 0.5 0.15 0.00380956
0.523432 0.5 -0.375 0.00378992
0.523432 0.5 0.375 0.00378963
0.350249 0.5 -0.5625 0.00376907
0.350249 0.5 0.5625 0.00376898
0.624316 0.5 -0.225 0.00380964
0.624316 0.5 0.225 0.00380937
0.288069 0.5 -0.6 0.00376479
0.288069 0.5 0.6 0.00376478
0.574156 0.5 -0.3375 0.0037984
0.574156 0.5 0.3375 0.00379808
0.411736 0.5 0.525 0.00377526
0.411736 0.5 -0.525 0.00377542
0 0.5 0.66882 0.00375
0 0.5 -0.66882 0.00375
0.0124871 0.5 -0.66882 0.00375054
0.0124871 0.5 0.66882 0.00375055
0.67013 0.5 -0.0375 0.00382091
0.67013 0.5 0.0375 0.00382086
0.219992 0.5 -0.6375 0.00376021
0.219992 0.5 0.6375 0.00376027
0 0.5 -0.675 0.00375
0 0.5 0.675 0.00375
0.467897 0.5 -0.4875 0.00378154
0.467897 0.5 0.4875 0.00378129
0.67013 0.5 -0.1125 0.00382079
0.67013 0.5 0.1125 0.00382063
0 0.5 -0.68118 0.00375
0 0.5 0.68118 0.00375
0.0124871 0.5 -0.68118 0.00375056
0.0124871 0.5 0.68118 0.00375057
0.523432 0.5 -0.45 0.00379006
0.523432 0.5 0.45 0.00378978
0.151149 0.5 -0.675 0.00375701
0.151149 0.5 0.675 0.00375707
0.624316 0.5 -0.3 0.00380944
0.624316 0.5 0.3 0.00380914
0.67013 0.5 -0.1875 0.00382055
0.67013 0.5 0.1875 0.0038203
0.574156 0.5 0.4125 0.00379804
0.574156 0.5 -0.4125 0.00379836
0.708171 0.5 3.5345e-17 0.00383213
0.0757758 0.5 -0.7125 0.00375342
0.0757758 0.5 0.7125 0.00375348
0.715434 0.5 0.0736267 0.00383385
0.715434 0.5 -0.075 0.0038342
0.67013 0.5 -0.2625 0.00382017
0.67013 0.5 0.2625 0.00381989
0.350249 0.5 -0.6375 0.00376959
0.350249 0.5 0.6375 0.00376955
0.411736 0.5 0.6 0.00377571
0.411736 0.5 -0.6 0.00377582
0.624316 0.5 -0.375 0.00380913
0.624316 0.5 0.375 0.00380884
0.715434 0.5 -0.15 0.00383387
0.715434 0.5 0.15 0.00383371
0.467897 0.5 -0.5625 0.00378183
0.467897 0.5 0.5625 0.00378164
0.288069 0.5 -0.675 0.00376527
0.288069 0.5 0.675 0.0037653
0.523432 0.5 -0.525 0.0037901
0.523432 0.5 0.525 0.00378988
0 0.5 0.74382 0.00375
0 0.5 -0.74382 0.00375
0.0124871 0.5 -0.74382 0.00375056
0.0124871 0.5 0.74382 0.00375057
0.219992 0.5 0.7125 0.00376075
0.219992 0.5 -0.7125 0.00376066
0.715434 0.5 -0.225 0.00383333
0.715434 0.5 0.225 0.00383312
0 0.5 -0.75 0.00375
0 0.5 0.75 0.00375
0.67013 0.5 -0.3375 0.00381969
0.67013 0.5 0.3375 0.00381937
0.574156 0.5 -0.4875 0.00379819
0.574156 0.5 0.4875 0.00379793
0 0.5 0.75618 0.00375
0 0.5 -0.75618 0.00375
0.0124871 0.5 -0.75618 0.00375058
0.0124871 0.5 0.75618 0.00375059
0.756814 0.5 0.0375 0.00384707
0.756814 0.5 -0.0375 0.00384709
0.151149 0.5 0.75 0.00375737
0.151149 0.5 -0.75 0.00375729
0.756814 0.5 -0.1125 0.00384676
0.756814 0.5 0.1125 0.00384667
0.624316 0.5 -0.45 0.00380866
0.624316 0.5 0.45 0.00380843
0.715434 0.5 -0.3 0.00383258
0.715434 0.5 0.3 0.00383236
0.756814 0.5 -0.1875 0.00384614
0.756814 0.5 0.1875 0.00384599
0.67013 0.5 -0.4125 0.00381896
0.67013 0.5 0.4125 0.00381873
0.411736 0.5 -0.675 0.00377611
0.411736 0.5 0.675 0.00377608
0.467897 0.5 -0.6375 0.00378201
0.467897 0.5 0.6375 0.00378191
0.0757758 0.5 -0.7875 0.00375354
0.0757758 0.5 0.7875 0.0037536
0.350249 0.5 -0.7125 0.00377002
0.350249 0.5 0.7125 0.00377004
0.523432 0.5 0.6 0.00378989
0.523432 0.5 -0.6 0.00379002
0.797732 0.5 1.60462e-17 0.00386205
0.756814 0.5 -0.2625 0.00384522
0.756814 0.5 0.2625 0.00384507
0.797732 0.5 0.0736267 0.00386167
0.797732 0.5 -0.075 0.00386181
0.288069 0.5 0.75 0.00376574
0.288069 0.5 -0.75 0.00376566
0.574156 0.5 -0.5625 0.0037979
0.574156 0.5 0.5625 0.00379772
0.715434 0.5 -0.375 0.00383159
0.715434 0.5 0.375 0.00383143
0.797732 0.5 -0.15 0.00386112
0.797732 0.5 0.15 0.00386108
0.624316 0.5 -0.525 0.00380803
0.624316 0.5 0.525 0.00380789
0.219992 0.5 -0.7875 0.00376103
0.219992 0.5 0.7875 0.00376115
0 0.5 -0.81882 0.00375
0 0.5 0.81882 0.00375
0.0124871 0.5 -0.81882 0.00375058
0.0124871 0.5 0.81882 0.00375059
0 0.5 -0.825 0.00375
0 0.5 0.825 0.00375
0.756814 0.5 -0.3375 0.00384404
0.756814 0.5 0.3375 0.00384389
0.67013 0.5 0.4875 0.00381792
0.67013 0.5 -0.4875 0.00381805
0.797732 0.5 0.225 0.00386
0.797732 0.5 -0.225 0.00386003
0 0.5 -0.83118 0.00375
0 0.5 0.83118 0.00375
0.0124871 0.5 -0.83118 0.0037506
0.0124871 0.5 0.83118 0.00375061
0.835107 0.5 -0.0375 0.00387636
0.835107 0.5 0.0375 0.00387639
0.151149 0.5 -0.825 0.00375751
0.151149 0.5 0.825 0.0037576
0.835107 0.5 0.1125 0.00387577
0.835107 0.5 -0.1125 0.00387574
0.715434 0.5 -0.45 0.00383033
0.715434 0.5 0.45 0.0038303
0.797732 0.5 -0.3 0.00385855
0.797732 0.5 0.3 0.00385856
0.467897 0.5 0.7125 0.00378207
0.467897 0.5 -0.7125 0.00378207
0.523432 0.5 -0.675 0.00378982
0.523432 0.5 0.675 0.0037898
0.411736 0.5 0.75 0.00377634
0.411736 0.5 -0.75 0.00377628
0.835107 0.5 -0.1875 0.00387459
0.835107 0.5 0.1875 0.00387464
0.574156 0.5 0.6375 0.0037974
0.574156 0.5 -0.6375 0.00379746
0.350249 0.5 -0.7875 0.00377032
0.350249 0.5 0.7875 0.00377042
0.756814 0.5 -0.4125 0.00384252
0.756814 0.5 0.4125 0.00384256
0.0757758 0.5 -0.8625 0.00375364
0.0757758 0.5 0.8625 0.0037537
0.624316 0.5 -0.6 0.00380722
0.624316 0.5 0.6 0.00380722
0.872064 0.5 4.81386e-17 0.00389195
0.870122 0.5 0.075 0.00389068
0.288069 0.5 -0.825 0.00376594
0.288069 0.5 0.825 0.00376606
0.67013 0.5 -0.5625 0.00381693
0.67013 0.5 0.5625 0.00381694
0.872064 0.5 -0.075 0.00389157
0.835107 0.5 -0.2625 0.00387293
0.835107 0.5 0.2625 0.00387305
0.797732 0.5 -0.375 0.00385673
0.797732 0.5 0.375 0.00385685
0.872064 0.5 0.14794 0.00389072
0.872064 0.5 -0.15 0.00389057
0.715434 0.5 0.525 0.00382893
0.715434 0.5 -0.525 0.00382882
0.219992 0.5 -0.8625 0.0037613
0.219992 0.5 0.8625 0.00376144
0 0.5 -0.89382 0.00375
0 0.5 0.89382 0.00375
0.0124871 0.5 -0.89382 0.0037506
0.0124871 0.5 0.89382 0.00375061
0 0.5 -0.9 0.00375
0 0.5 0.9 0.00375
0.756814 0.5 -0.4875 0.00384067
0.756814 0.5 0.4875 0.00384086
0.872064 0.5 -0.225 0.00388901
0.872064 0.5 0.225 0.00388924
0.835107 0.5 0.3375 0.00387102
0.835107 0.5 -0.3375 0.00387082
0 0.5 -0.90618 0.00375
0 0.5 0.90618 0.00375
0.0124871 0.5 -0.90618 0.00375061
0.0124871 0.5 0.90618 0.00375062
0.905821 0.5 0.0375 0.00390696
0.905821 0.5 -0.0375 0.00390688
0.151149 0.5 -0.9 0.00375765
0.151149 0.5 0.9 0.00375776
0.905821 0.5 -0.1125 0.0039061
0.905821 0.5 0.1125 0.00390629
0.523432 0.5 -0.75 0.00378946
0.523432 0.5 0.75 0.00378958
0.574156 0.5 -0.7125 0.00379686
0.574156 0.5 0.7125 0.00379696
0.797732 0.5 -0.45 0.00385453
0.797732 0.5 0.45 0.00385485
0.467897 0.5 0.7875 0.0037821
0.467897 0.5 -0.7875 0.00378199
0.624316 0.5 -0.675 0.00380625
0.624316 0.5 0.675 0.0038064
0.411736 0.5 -0.825 0.00377632
0.411736 0.5 0.825 0.00377647
0.872064 0.5 -0.3 0.0038869
0.872064 0.5 0.3 0.00388726
0.67013 0.5 0.6375 0.0038158
0.67013 0.5 -0.6375 0.00381562
0.905821 0.5 -0.1875 0.00390468
0.905821 0.5 0.1875 0.00390497
0.350249 0.5 -0.8625 0.0037705
0.350249 0.5 0.8625 0.00377066
0.835107 0.5 -0.4125 0.00386838
0.835107 0.5 0.4125 0.00386875
0.715434 0.5 -0.6 0.00382706
0.715434 0.5 0.6 0.00382736
0.939201 0.5 3.31766e-17 0.00392227
0.0757758 0.5 -0.9375 0.00375369
0.0757758 0.5 0.9375 0.00375375
0.939112 0.5 0.075 0.00392192
0.939201 0.5 -0.075 0.00392179
0.756814 0.5 -0.5625 0.00383854
0.756814 0.5 0.5625 0.00383892
0.905821 0.5 0.2625 0.00390311
0.905821 0.5 -0.2625 0.00390266
0.288069 0.5 -0.9 0.0037661
0.288069 0.5 0.9 0.00376627
0.872064 0.5 -0.375 0.00388427
0.872064 0.5 0.375 0.00388476
0.939201 0.5 0.148627 0.00392082
0.939201 0.5 -0.15 0.00392058
0.797732 0.5 -0.525 0.00385196
0.797732 0.5 0.525 0.0038525
0.219992 0.5 -0.9375 0.00376147
0.219992 0.5 0.9375 0.00376164
0.939201 0.5 -0.225 0.00391871
0.939201 0.5 0.225 0.00391925
0.905821 0.5 -0.3375 0.00390004
0.905821 0.5 0.3375 0.00390067
0.835107 0.5 -0.4875 0.00386544
0.835107 0.5 0.4875 0.00386611
0 0.5 -0.96882 0.00375
0 0.5 0.96882 0.00375
0.0124871 0.5 -0.96882 0.00375061
0.0124871 0.5 0.96882 0.00375062
0.96969 0.5 -0.0375 0.00393703
0.96969 0.5 0.0375 0.00393717
0.574156 0.5 0.7875 0.00379637
0.574156 0.5 -0.7875 0.0037961
0 0.5 -0.975 0.00375
0 0.5 0.975 0.00375
0.624316 0.5 -0.75 0.0038051
0.624316 0.5 0.75 0.00380544
0.96969 0.5 -0.1125 0.00393608
0.96969 0.5 0.1125 0.00393646
0.523432 0.5 -0.825 0.00378896
0.523432 0.5 0.825 0.00378922
0.67013 0.5 -0.7125 0.00381412
0.67013 0.5 0.7125 0.0038145
0 0.5 -0.98118 0.00375
0 0.5 0.98118 0.00375
0.467897 0.5 -0.8625 0.00378176
0.467897 0.5 0.8625 0.003782
0.0124871 0.5 -0.98118 0.00375061
0.0124871 0.5 0.98118 0.00375062
0.872064 0.5 0.45 0.00388178
0.872064 0.5 -0.45 0.00388103
0.715434 0.5 -0.675 0.00382509
0.715434 0.5 0.675 0.00382561
0.939201 0.5 0.3 0.00391695
0.939201 0.5 -0.3 0.00391618
0.151149 0.5 -0.975 0.00375773
0.151149 0.5 0.975 0.00375786
0.96969 0.5 -0.1875 0.00393441
0.96969 0.5 0.1875 0.00393499
0.756814 0.5 0.6375 0.00383675
0.756814 0.5 -0.6375 0.00383615
0.411736 0.5 -0.9 0.00377621
0.411736 0.5 0.9 0.00377646
0.905821 0.5 -0.4125 0.00389671
0.905821 0.5 0.4125 0.00389745
0.995005 0.5 0.0749309 0.00394811
0.797732 0.5 -0.6 0.00384907
0.797732 0.5 0.6 0.00384986
1.00005 0.5 3.26706e-18 0.00395094
0.350249 0.5 0.9375 0.00377076
0.350249 0.5 -0.9375 0.00377054
1.00005 0.5 -0.0749309 0.00395035
0.96969 0.5 -0.2625 0.00393204
0.96969 0.5 0.2625 0.00393288
0.835107 0.5 -0.5625 0.00386212
0.835107 0.5 0.5625 0.00386304
1.00005 0.5 -0.149862 0.00394897
0.939201 0.5 -0.375 0.00391294
0.939201 0.5 0.375 0.0039139
1.00029 0.5 0.148988 0.00394926
0.0757758 0.5 -1.0125 0.00375371
0.0757758 0.5 1.0125 0.00375378
0.288069 0.5 -0.975 0.00376614
0.288069 0.5 0.975 0.00376636
0.872064 0.5 -0.525 0.00387724
0.872064 0.5 0.525 0.00387835
1.00005 0.5 0.224793 0.00394772
1.00005 0.5 -0.224793 0.00394686
0.96969 0.5 0.3375 0.0039301
0.96969 0.5 -0.3375 0.00392897
1.02709 0.5 0.0368226 0.00396621
1.02709 0.5 -0.0368226 0.00396602
0.905821 0.5 0.4875 0.00389369
0.905821 0.5 -0.4875 0.00389248
1.02709 0.5 -0.110468 0.00396497
1.02709 0.5 0.110468 0.00396693
0.67013 0.5 -0.7875 0.00381244
0.67013 0.5 0.7875 0.00381304
0.624316 0.5 -0.825 0.00380379
0.624316 0.5 0.825 0.00380433
0.219992 0.5 -1.0125 0.00376154
0.219992 0.5 1.0125 0.00376173
0.574156 0.5 -0.8625 0.00379519
0.574156 0.5 0.8625 0.00379563
0.715434 0.5 -0.75 0.00382292
0.715434 0.5 0.75 0.00382368
0.756814 0.5 -0.7125 0.00383352
0.756814 0.5 0.7125 0.00383439
0.523432 0.5 0.9 0.00378871
0.523432 0.5 -0.9 0.0037883
0.939201 0.5 0.45 0.00391006
0.939201 0.5 -0.45 0.00390868
1.04168 0.5 0 0.00397393
1.02709 0.5 -0.184113 0.00396314
1.02709 0.5 0.184113 0.00396399
0 0.5 1.04382 0.00375
0 0.5 -1.04382 0.00375
0.0124871 0.5 -1.04382 0.00375061
0.0124871 0.5 1.04382 0.00375062
1.00005 0.5 -0.299723 0.00394402
1.00005 0.5 0.299723 0.0039452
1.04168 0.5 -0.0729162 0.00397328
1.04168 0.5 0.0729162 0.00397368
0.797732 0.5 -0.675 0.00384591
0.797732 0.5 0.675 0.00384698
0.467897 0.5 -0.9375 0.00378138
0.467897 0.5 0.9375 0.00378173
0 0.5 -1.05 0.00375
0 0.5 1.05 0.00375
0.835107 0.5 0.6375 0.00385969
0.835107 0.5 -0.6375 0.00385847
1.04168 0.5 -0.145832 0.0039718
1.04168 0.5 0.145832 0.00397256
0.96969 0.5 -0.4125 0.00392503
0.96969 0.5 0.4125 0.00392638
0 0.5 -1.05618 0.00375
0 0.5 1.05618 0.00375
0.0124871 0.5 -1.05618 0.00375061
0.0124871 0.5 1.05618 0.00375063
1.05694 0.5 -0.0360765 0.0039817
1.05694 0.5 0.0360765 0.00398193
0.411736 0.5 0.975 0.00377629
0.411736 0.5 -0.975 0.00377595
0.872064 0.5 -0.6 0.00387308
0.872064 0.5 0.6 0.00387453
1.02709 0.5 -0.257758 0.00396056
1.02709 0.5 0.257758 0.00396176
0.151149 0.5 -1.05 0.00375775
0.151149 0.5 1.05 0.00375789
1.05694 0.5 -0.108229 0.00398058
1.05694 0.5 0.108229 0.00398282
1.04168 0.5 -0.218749 0.00396955
1.04168 0.5 0.218749 0.00397066
0.905821 0.5 -0.5625 0.00388789
0.905821 0.5 0.5625 0.0038895
1.00005 0.5 -0.374654 0.00394039
1.00005 0.5 0.374654 0.00394187
0.350249 0.5 -1.0125 0.00377043
0.350249 0.5 1.0125 0.00377073
1.05694 0.5 -0.180382 0.00397866
1.05694 0.5 0.180382 0.00397969
1.07319 0.5 0.0709442 0.00399092
0.939201 0.5 0.525 0.0039054
0.939201 0.5 -0.525 0.00390352
1.02709 0.5 -0.331404 0.00395725
1.02709 0.5 0.331404 0.00395882
1.08112 0.5 -3.98986e-18 0.00399568
1.04168 0.5 -0.291665 0.00396655
1.04168 0.5 0.291665 0.00396805
1.08112 0.5 -0.0709442 0.00399496
0.96969 0.5 -0.4875 0.00391955
0.96969 0.5 0.4875 0.00392174
1.05694 0.5 -0.252535 0.00397598
1.05694 0.5 0.252535 0.00397741
0.288069 0.5 -1.05 0.00376606
0.288069 0.5 1.05 0.00376633
0.0757758 0.5 -1.0875 0.00375371
0.0757758 0.5 1.0875 0.00375378
1.08112 0.5 -0.141888 0.00399338
1.08145 0.5 0.140165 0.00399381
0.715434 0.5 -0.825 0.00382059
0.715434 0.5 0.825 0.0038216
0.756814 0.5 -0.7875 0.00383071
0.756814 0.5 0.7875 0.00383185
0.67013 0.5 -0.8625 0.0038106
0.67013 0.5 0.8625 0.00381144
0.797732 0.5 0.75 0.0038439
0.797732 0.5 -0.75 0.00384253
0.624316 0.5 -0.9 0.00380233
0.624316 0.5 0.9 0.00380308
1.00005 0.5 -0.449585 0.00393553
1.00005 0.5 0.449585 0.00393761
0.835107 0.5 -0.7125 0.00385457
0.835107 0.5 0.7125 0.00385611
0.574156 0.5 -0.9375 0.00379412
0.574156 0.5 0.9375 0.00379474
1.10076 0.5 0.034981 0.00400725
1.10076 0.5 -0.034981 0.00400698
1.08112 0.5 -0.212833 0.003991
1.08112 0.5 0.212833 0.00399238
0.872064 0.5 -0.675 0.00386854
0.872064 0.5 0.675 0.00387036
1.04168 0.5 -0.364581 0.00396277
1.04168 0.5 0.364581 0.00396464
1.02709 0.5 0.405049 0.00395497
1.02709 0.5 -0.405049 0.00395304
1.05694 0.5 -0.324688 0.00397255
1.05694 0.5 0.324688 0.00397442
1.10076 0.5 -0.104943 0.00400576
1.10076 0.5 0.104943 0.00400657
0.523432 0.5 -0.975 0.00378748
0.523432 0.5 0.975 0.00378804
0.905821 0.5 -0.6375 0.00388284
0.905821 0.5 0.6375 0.00388487
0.219992 0.5 -1.0875 0.00376151
0.219992 0.5 1.0875 0.00376172
1.11376 0.5 0 0.00401494
0.939201 0.5 -0.6 0.00389787
0.939201 0.5 0.6 0.00390011
1.10076 0.5 -0.174905 0.00400371
1.10076 0.5 0.174905 0.00400499
0.467897 0.5 -1.0125 0.00378082
0.467897 0.5 1.0125 0.0037813
1.11376 0.5 -0.0693118 0.00401417
1.11376 0.5 0.0693118 0.00401474
1.08112 0.5 -0.283777 0.00398784
1.08112 0.5 0.283777 0.00398969
0 0.5 1.11882 0.00375
0 0.5 -1.11882 0.00375
0.0124871 0.5 -1.11882 0.00375061
0.0124871 0.5 1.11882 0.00375063
0.96969 0.5 -0.5625 0.00391324
0.96969 0.5 0.5625 0.00391571
1.11376 0.5 -0.138624 0.0040125
1.11376 0.5 0.138624 0.00401348
0 0.5 -1.125 0.00375
0 0.5 1.125 0.00375
1.10076 0.5 0.244867 0.00400261
1.10076 0.5 -0.244867 0.00400087
0.411736 0.5 -1.05 0.00377555
0.411736 0.5 1.05 0.00377599
1.05694 0.5 -0.396841 0.00396829
1.05694 0.5 0.396841 0.00397053
1.00005 0.5 -0.524516 0.00392938
1.00005 0.5 0.524516 0.0039321
1.04168 0.5 -0.437497 0.00395778
1.04168 0.5 0.437497 0.0039603
0 0.5 -1.13118 0.00375
0 0.5 1.13118 0.00375
0.0124871 0.5 -1.13118 0.00375061
0.0124871 0.5 1.13118 0.00375062
1.11376 0.5 -0.207935 0.00401
1.11376 0.5 0.207935 0.00401161
1.02709 0.5 -0.478694 0.0039473
1.02709 0.5 0.478694 0.00395012
0.151149 0.5 -1.125 0.0037577
0.151149 0.5 1.125 0.00375785
1.08112 0.5 0.354721 0.0039862
1.08112 0.5 -0.354721 0.00398392
1.13882 0.5 0.0340295 0.00403054
1.13882 0.5 -0.0340295 0.00403022
0.350249 0.5 -1.0875 0.00377019
0.350249 0.5 1.0875 0.00377056
1.13882 0.5 -0.102088 0.0040289
1.13882 0.5 0.102088 0.00403072
1.10076 0.5 0.314829 0.00399951
1.10076 0.5 -0.314829 0.00399725
0.756814 0.5 -0.8625 0.00382774
0.756814 0.5 0.8625 0.00382917
0.797732 0.5 -0.825 0.00383898
0.797732 0.5 0.825 0.00384064
1.11376 0.5 -0.277247 0.0040067
1.11376 0.5 0.277247 0.00400883
0.835107 0.5 0.7875 0.00385232
0.835107 0.5 -0.7875 0.00385044
0.715434 0.5 -0.9 0.0038181
0.715434 0.5 0.9 0.00381937
0.872064 0.5 -0.75 0.00386373
0.872064 0.5 0.75 0.00386592
1.13882 0.5 0.170147 0.00402826
1.13882 0.5 -0.170147 0.00402672
0.67013 0.5 -0.9375 0.00380862
0.67013 0.5 0.9375 0.00380969
0.905821 0.5 -0.7125 0.00387737
0.905821 0.5 0.7125 0.00387981
1.05694 0.5 -0.468994 0.00396249
1.05694 0.5 0.468994 0.0039657
0.939201 0.5 -0.675 0.00389188
0.939201 0.5 0.675 0.00389458
0.624316 0.5 -0.975 0.00380071
0.624316 0.5 0.975 0.00380166
1.04168 0.5 -0.510414 0.00395141
1.04168 0.5 0.510414 0.00395471
0.96969 0.5 -0.6375 0.00390664
0.96969 0.5 0.6375 0.00390949
0.288069 0.5 -1.125 0.00376586
0.288069 0.5 1.125 0.00376618
1.16179 0.5 0 0.00404561
1.08112 0.5 -0.425665 0.00397883
1.08112 0.5 0.425665 0.00398181
1.13882 0.5 0.238206 0.0040258
1.13882 0.5 -0.238206 0.0040237
1.16179 0.5 -0.0669104 0.00404474
1.16179 0.5 0.0669104 0.00404786
0.574156 0.5 1.0125 0.00379368
0.574156 0.5 -1.0125 0.00379288
0.0757758 0.5 1.1625 0.00375374
0.0757758 0.5 -1.1625 0.00375367
1.00005 0.5 -0.599447 0.00392258
1.00005 0.5 0.599447 0.00392567
1.10076 0.5 -0.384791 0.00399286
1.10076 0.5 0.384791 0.00399555
1.02709 0.5 -0.552339 0.00394049
1.02709 0.5 0.552339 0.00394382
1.11376 0.5 0.346559 0.00400526
1.11376 0.5 -0.346559 0.00400263
1.16179 0.5 -0.133821 0.0040429
1.16179 0.5 0.133821 0.00404464
0.523432 0.5 -1.05 0.0037865
0.523432 0.5 1.05 0.00378722
1.17463 0.5 -0.0331343 0.00405328
1.17463 0.5 0.0331343 0.00405364
1.17463 0.5 -0.099403 0.00405185
1.17463 0.5 0.099403 0.00405298
1.16179 0.5 -0.200731 0.00404018
1.16179 0.5 0.200731 0.00404222
1.13882 0.5 -0.306265 0.00401988
1.13882 0.5 0.306265 0.00402257
0.219992 0.5 -1.1625 0.00376138
0.219992 0.5 1.1625 0.00376161
0.467897 0.5 -1.0875 0.00378013
0.467897 0.5 1.0875 0.00378073
1.17463 0.5 -0.165672 0.00404952
1.17463 0.5 0.165672 0.00405132
1.05694 0.5 0.541147 0.00395937
1.05694 0.5 -0.541147 0.00395549
1.18772 0.5 0 0.00406244
1.11376 0.5 -0.415871 0.00399746
1.11376 0.5 0.415871 0.00400081
1.18772 0.5 -0.065614 0.00406151
1.18772 0.5 0.065614 0.00406226
1.08112 0.5 -0.49661 0.00397235
1.08112 0.5 0.49661 0.00397623
1.10076 0.5 -0.454752 0.003987
1.10076 0.5 0.454752 0.00399069
1.18534 0.5 0.118202 0.00406113
1.16179 0.5 -0.267642 0.00403662
1.16179 0.5 0.267642 0.0040393
0 0.5 -1.19382 0.00375
0 0.5 1.19382 0.00375
1.04168 0.5 -0.58333 0.00394422
1.04168 0.5 0.58333 0.00394799
0.0124871 0.5 -1.19382 0.00375061
0.0124871 0.5 1.19382 0.00375062
1.18772 0.5 -0.131228 0.00405958
1.17463 0.5 -0.23194 0.00404632
1.17463 0.5 0.23194 0.00404876
0.411736 0.5 -1.125 0.00377502
0.411736 0.5 1.125 0.00377555
1.13882 0.5 -0.374324 0.00401528
1.13882 0.5 0.374324 0.00401849
0 0.5 -1.2 0.00375
0 0.5 1.2 0.00375
0.905821 0.5 -0.7875 0.0038717
0.905821 0.5 0.7875 0.00387454
0.872064 0.5 -0.825 0.00385876
0.872064 0.5 0.825 0.00386129
0.835107 0.5 0.8625 0.00384838
0.835107 0.5 -0.8625 0.00384618
0.939201 0.5 -0.75 0.00388559
0.939201 0.5 0.75 0.00388875
0.797732 0.5 -0.9 0.00383527
0.797732 0.5 0.9 0.00383725
1.02709 0.5 -0.625985 0.00393314
1.02709 0.5 0.625985 0.00393685
0.96969 0.5 -0.7125 0.00389987
0.96969 0.5 0.7125 0.0039033
1.18772 0.5 -0.196842 0.00405674
1.18772 0.5 0.196842 0.00405899
0.756814 0.5 -0.9375 0.00382464
0.756814 0.5 0.9375 0.00382635
0 0.5 -1.20618 0.00375
0 0.5 1.20618 0.00375
1.00005 0.5 -0.674378 0.00391536
1.00005 0.5 0.674378 0.00391895
0.0124871 0.5 -1.20618 0.0037506
0.0124871 0.5 1.20618 0.00375061
1.16179 0.5 -0.334552 0.00403228
1.16179 0.5 0.334552 0.00403556
0.715434 0.5 -0.975 0.00381546
0.715434 0.5 0.975 0.00381699
0.151149 0.5 -1.2 0.00375758
0.151149 0.5 1.2 0.00375774
1.20942 0.5 -0.0322645 0.00407737
1.20942 0.5 0.0322645 0.00407806
1.17463 0.5 -0.298209 0.00404228
1.17463 0.5 0.298209 0.00404539
1.20942 0.5 -0.0967935 0.00407582
1.20942 0.5 0.0967935 0.00407713
0.350249 0.5 -1.1625 0.00376983
0.350249 0.5 1.1625 0.00377027
0.67013 0.5 1.0125 0.00380779
0.67013 0.5 -1.0125 0.00380649
1.11376 0.5 -0.485183 0.0039909
1.11376 0.5 0.485183 0.00399523
1.18772 0.5 -0.262456 0.00405303
1.18772 0.5 0.262456 0.00405597
1.10076 0.5 0.524714 0.0039844
1.10076 0.5 -0.524714 0.00397983
1.20942 0.5 -0.161322 0.00407333
1.20942 0.5 0.161322 0.00407542
1.08112 0.5 0.567554 0.00396944
1.08112 0.5 -0.567554 0.00396495
0.624316 0.5 -1.05 0.00379895
0.624316 0.5 1.05 0.00380011
1.13882 0.5 -0.442383 0.00400934
1.13882 0.5 0.442383 0.00401354
1.05694 0.5 0.6133 0.00395223
1.05694 0.5 -0.6133 0.00394795
1.16179 0.5 -0.401463 0.00402691
1.16179 0.5 0.401463 0.00403096
0.574156 0.5 1.0875 0.00379248
0.574156 0.5 -1.0875 0.00379151
1.17463 0.5 -0.364478 0.0040375
1.17463 0.5 0.364478 0.00404117
1.20942 0.5 0.225851 0.00407275
1.20942 0.5 -0.225851 0.00406992
1.23036 0.5 1.15648e-18 0.00409343
1.2294 0.5 0.0634819 0.00409283
1.04168 0.5 -0.656246 0.00393645
1.04168 0.5 0.656246 0.0039407
1.23036 0.5 -0.0634819 0.00409237
1.18772 0.5 0.32807 0.00405211
1.18772 0.5 -0.32807 0.00404853
0.288069 0.5 1.2 0.00376592
0.288069 0.5 -1.2 0.00376556
1.23036 0.5 -0.126964 0.00409024
1.23036 0.5 0.126964 0.00409215
0.0757758 0.5 -1.2375 0.00375361
0.0757758 0.5 1.2375 0.00375368
0.523432 0.5 -1.125 0.00378541
0.523432 0.5 1.125 0.00378628
1.02709 0.5 0.69963 0.00392946
1.02709 0.5 -0.69963 0.00392514
1.24275 0.5 -0.0314313 0.00410207
1.24275 0.5 0.0314313 0.00410253
1.20942 0.5 -0.29038 0.00406563
1.20942 0.5 0.29038 0.00406922
1.11376 0.5 -0.554494 0.00398335
1.11376 0.5 0.554494 0.00398842
1.23036 0.5 -0.190446 0.00408715
1.23036 0.5 0.190446 0.00408991
1.24275 0.5 -0.0942939 0.00410039
1.24275 0.5 0.0942939 0.00410189
1.13882 0.5 -0.510442 0.00400205
1.13882 0.5 0.510442 0.00400729
0.96969 0.5 0.7875 0.00389656
0.96969 0.5 -0.7875 0.00389266
1.00005 0.5 0.749309 0.00391183
1.00005 0.5 -0.749309 0.00390766
0.939201 0.5 -0.825 0.00387908
0.939201 0.5 0.825 0.00388265
0.905821 0.5 -0.8625 0.0038659
0.905821 0.5 0.8625 0.0038691
1.17463 0.5 0.430746 0.00403611
1.17463 0.5 -0.430746 0.00403145
1.10076 0.5 0.594676 0.00397709
1.10076 0.5 -0.594676 0.00397202
1.18772 0.5 -0.393684 0.00404303
1.18772 0.5 0.393684 0.0040474
1.24275 0.5 -0.157157 0.00409772
1.24275 0.5 0.157157 0.00410012
1.16179 0.5 -0.468373 0.00402018
1.16179 0.5 0.468373 0.00402532
0.467897 0.5 -1.1625 0.00377933
0.467897 0.5 1.1625 0.00378005
0.872064 0.5 -0.9 0.00385363
0.872064 0.5 0.9 0.00385652
1.25401 0.5 0 0.00411056
0.835107 0.5 -0.9375 0.00384175
0.835107 0.5 0.9375 0.0038443
1.25401 0.5 0.0622994 0.00411062
1.25401 0.5 -0.0622994 0.00410945
1.08112 0.5 0.638498 0.00396193
1.08112 0.5 -0.638498 0.00395694
1.23036 0.5 -0.253928 0.00408312
1.23036 0.5 0.253928 0.00408671
0.219992 0.5 -1.2375 0.00376115
0.219992 0.5 1.2375 0.0037614
1.2531 0.5 0.121964 0.00410928
1.05694 0.5 -0.685453 0.00393973
1.05694 0.5 0.685453 0.00394461
0.797732 0.5 -0.975 0.00383143
0.797732 0.5 0.975 0.00383373
1.25401 0.5 -0.124599 0.00410721
1.20942 0.5 -0.354909 0.00406059
1.20942 0.5 0.354909 0.00406481
1.24275 0.5 -0.220019 0.00409408
1.24275 0.5 0.220019 0.00409732
0.756814 0.5 -1.0125 0.00382136
0.756814 0.5 1.0125 0.00382338
1.25401 0.5 -0.186898 0.00410397
1.25401 0.5 0.186898 0.00410697
0.411736 0.5 -1.2 0.00377438
0.411736 0.5 1.2 0.00377501
0 0.5 -1.26882 0.00375
0 0.5 1.26882 0.00375
0.0124871 0.5 -1.26882 0.0037506
0.0124871 0.5 1.26882 0.00375061
0.715434 0.5 -1.05 0.0038127
0.715434 0.5 1.05 0.00381449
1.23036 0.5 -0.317409 0.00407826
1.23036 0.5 0.317409 0.00408262
1.04168 0.5 -0.729162 0.00392803
1.04168 0.5 0.729162 0.0039329
1.18772 0.5 -0.459298 0.00403619
1.18772 0.5 0.459298 0.00404168
1.24275 0.5 0.282882 0.00409361
1.24275 0.5 -0.282882 0.00408951
0 0.5 -1.275 0.00375
0 0.5 1.275 0.00375
1.27472 0.5 -0.0306319 0.00412758
1.27472 0.5 0.0306319 0.00412811
1.17463 0.5 -0.497015 0.00402397
1.17463 0.5 0.497015 0.00402984
1.11376 0.5 0.623806 0.00398077
1.11376 0.5 -0.623806 0.00397515
1.13882 0.5 -0.578501 0.003994
1.13882 0.5 0.578501 0.00399991
0.67013 0.5 -1.0875 0.00380424
0.67013 0.5 1.0875 0.00380576
1.27472 0.5 0.0918957 0.0041243
1.27472 0.5 -0.0918957 0.00412576
1.25401 0.5 -0.249198 0.00409977
1.25401 0.5 0.249198 0.00410365
1.16179 0.5 -0.535283 0.00401235
1.16179 0.5 0.535283 0.00401846
1.20942 0.5 0.419438 0.00405957
1.20942 0.5 -0.419438 0.00405436
0 0.5 -1.28118 0.00375
0 0.5 1.28118 0.00375
0.0124871 0.5 -1.28118 0.00375058
0.0124871 0.5 1.28118 0.00375059
1.27472 0.5 -0.15316 0.00412289
1.27472 0.5 0.15316 0.00412565
0.151149 0.5 -1.275 0.0037574
0.151149 0.5 1.275 0.00375757