# kMean  POINT_DATA 91129
# x  y  z  kMean
0 0 0 0.00566174
0 0.00368111 0 0.00375
0 0.00749587 0 0.00375
0 0.0114491 0 0.00375
0 0.0155459 0 0.00375
0 0.0197915 0 0.00375
0 0.0241911 0 0.00375
0 0.0287506 0 0.00375
0 0.0334755 0 0.00375
0 0.038372 0 0.00375
0 0.0434463 0 0.00375
0 0.0487048 0 0.00375
0 0.0541543 0 0.00375
0 0.0598016 0 0.00375
0 0.0656539 0 0.00375
0 0.0717187 0 0.00375
0.0757758 0.00184056 0 0.00996676
0.0757758 0.00558849 3.46945e-18 0.00345724
0.0757758 0.0094725 0 0.00306811
0.0757758 0.0134975 0 0.00343527
0.0757758 0.0176687 0 0.00359335
0 0.0780037 0 0.00375
0.0757758 0.0219913 0 0.00365413
0.0757758 0.0264709 0 0.00368501
0.0757758 0.031113 3.46945e-18 0.0037028
0.0757758 0.0359238 -3.46945e-18 0.00371408
0 0.0845169 0 0.00375
0.0757758 0.0409092 0 0.00372175
0.0757758 0.0460756 0 0.00372725
0 0.0912666 0 0.00375
0.0757758 0.0514296 3.46945e-18 0.00373133
0.0757758 0.0569779 0 0.00373446
0 0.0982613 0 0.00375
0.0757758 0.0627277 0 0.00373698
0.0757758 0.0686863 0 0.00373912
0 0.10551 0 0.00375
0.0757758 0.0748612 3.46945e-18 0.00374095
0.0757758 0.0812603 3.46945e-18 0.00374251
0 0.113022 0 0.00375
0.0757758 0.0878917 0 0.00374383
0 0.120806 0 0.00375
0.0757758 0.0947639 -3.46945e-18 0.00374494
0.0757758 0.101886 -3.46945e-18 0.00374586
0 0.128874 0 0.00375
0.0757758 0.109266 0 0.00374663
0 0.137234 0 0.00375
0.0757758 0.116914 -3.46945e-18 0.00374728
0 0.145897 0 0.00375
0.0757758 0.12484 0 0.00374782
0.151552 0 0 0.00624353
0.151552 0.00368111 0 0.00438479
0.151552 0.00749587 0 0.00260595
0.151552 0.0114491 0 0.002932
0.151552 0.0155459 0 0.00329972
0.151552 0.0197915 0 0.0034785
0.0757758 0.133054 3.46945e-18 0.00374828
0.151552 0.0241911 0 0.00356781
0.151552 0.0287506 0 0.00361996
0 0.154876 0 0.00375
0.151552 0.0334755 0 0.00365312
0.151552 0.038372 0 0.00367545
0.151552 0.0434463 0 0.00369119
0.151552 0.0487048 0 0.00370271
0.0757758 0.141566 0 0.00374869
0.151552 0.0541543 0 0.00371142
0.151552 0.0598016 0 0.00371819
0 0.16418 0 0.00375
0.151552 0.0656539 0 0.00372361
0.151552 0.0717187 0 0.00372803
0.0757758 0.150387 0 0.00374906
0.151552 0.0780037 0 0.00373167
0.151552 0.0845169 0 0.0037347
0 0.173822 0 0.00375
0.0757758 0.159528 3.46945e-18 0.00374941
0.151552 0.0912666 0 0.00373723
0.151552 0.0982613 0 0.00373934
0 0.183814 0 0.00375
0.151552 0.10551 0 0.00374114
0.0757758 0.169001 0 0.00374974
0.151552 0.113022 0 0.00374267
0.151552 0.120806 0 0.003744
0 0.194169 0 0.00375
0.0757758 0.178818 0 0.00375007
0.151552 0.128874 0 0.00374514
0.0757758 0.188991 3.46945e-18 0.00375039
0.151552 0.137234 0 0.00374613
0 0.2049 0 0.00375
0.151552 0.145897 0 0.00374699
0.0757758 0.199534 -3.46945e-18 0.00375071
0 0.21602 0 0.00375
0.151552 0.154876 0 0.00374773
0.219992 0.00184056 -3.46945e-18 0.00280682
0.219992 0.00558849 0 0.00166627
0.219992 0.0094725 0 0.00233319
0.219992 0.0134975 0 0.00294063
0.219992 0.0176687 0 0.00326264
0.219992 0.0219913 3.46945e-18 0.00342622
0.219992 0.0264709 3.46945e-18 0.00352151
0.219992 0.031113 0 0.00358189
0.219992 0.0359238 0 0.00362222
0.151552 0.16418 0 0.0037484
0.0757758 0.21046 0 0.00375102
0.219992 0.0409092 0 0.00365029
0.219992 0.0460756 0 0.00367059
0.219992 0.0514296 0 0.00368576
0.219992 0.0569779 3.46945e-18 0.00369742
0 0.227544 0 0.00375
0.219992 0.0627277 0 0.00370659
0.219992 0.0686863 0 0.00371395
0.151552 0.173822 0 0.003749
0.219992 0.0748612 -3.46945e-18 0.00371993
0.0757758 0.221782 0 0.00375131
0.219992 0.0812603 0 0.00372485
0.219992 0.0878917 0 0.00372892
0.151552 0.183814 0 0.00374954
7.47804e-17 0.239487 0 0.00375
0.219992 0.0947639 0 0.00373232
0.219992 0.101886 0 0.00373519
0.0757758 0.233515 0 0.00375157
0.219992 0.109266 0 0.00373765
0.151552 0.194169 0 0.00375005
0.219992 0.116914 -3.46945e-18 0.00373979
0 0.251863 0 0.00375
0.219992 0.12484 0 0.00374165
0.151552 0.2049 0 0.00375053
0.0757758 0.245675 3.46945e-18 0.00375177
0.219992 0.133054 0 0.00374327
0.219992 0.141566 0 0.00374465
0.151552 0.21602 0 0.00375097
0 0.264688 0 0.00375
0.219992 0.150387 0 0.00374584
0.0757758 0.258276 3.46945e-18 0.0037519
0.219992 0.159528 0 0.00374686
0.151552 0.227544 0 0.00375138
0.219992 0.169001 0 0.00374776
0 0.27798 0 0.00375
0.0757758 0.271334 0 0.00375195
0.151552 0.239487 3.70074e-18 0.00375173
0.219992 0.178818 0 0.00374855
0.288433 0 0 0.00186202
0.288433 0.00368111 0 0.00158804
0.288433 0.00749587 0 0.00178441
0.288433 0.0114491 0 0.00257036
0.288433 0.0155459 3.70074e-18 0.00304926
0.288433 0.0197915 0 0.00328812
0.288433 0.0241911 3.70074e-18 0.003411
0.288433 0.0287506 0 0.00349234
0.219992 0.188991 0 0.00374927
0.288433 0.0334755 0 0.00355098
0.288433 0.038372 0 0.00359373
0.288433 0.0434463 0 0.00362539
7.47804e-17 0.291753 0 0.00375
0.288433 0.0487048 0 0.00364932
0.288433 0.0541543 0 0.00366778
0.151552 0.251863 0 0.00375203
0.288433 0.0598016 3.70074e-18 0.00368229
0.0757758 0.284866 -3.46945e-18 0.00375195
0.288433 0.0656539 3.70074e-18 0.00369387
0.219992 0.199534 0 0.00374992
0.288433 0.0717187 0 0.00370323
0.288433 0.0780037 0 0.00371087
0.288433 0.0845169 0 0.00371715
0.288433 0.0912666 0 0.00372244
0.219992 0.21046 0 0.00375052
0.288433 0.0982613 0 0.00372707
0.151552 0.264688 3.70074e-18 0.00375228
0 0.306027 0 0.00375
0.288433 0.10551 0 0.00373117
0.0757758 0.29889 -3.46945e-18 0.0037519
0.288433 0.113022 0 0.00373478
0.219992 0.221782 0 0.00375107
0.288433 0.120806 0 0.00373793
0.288433 0.128874 0 0.00374067
0.151552 0.27798 0 0.00375246
0.288433 0.137234 0 0.00374305
0 0.320819 0 0.00375
0.219992 0.233515 0 0.00375156
0.0757758 0.313423 0 0.00375182
0.288433 0.145897 0 0.0037451
0.288433 0.154876 0 0.00374687
0.151552 0.291753 0 0.0037526
0.219992 0.245675 0 0.00375201
0.288433 0.16418 0 0.00374837
0 0.336148 0 0.00375
0.288433 0.173822 0 0.00374965
0.0757758 0.328484 0 0.00375172
0.219992 0.258276 0 0.00375242
0.151552 0.306027 0 0.0037527
0.288433 0.183814 0 0.00375074
0.288433 0.194169 0 0.00375168
0.219992 0.271334 -3.46945e-18 0.00375278
0.350249 0.00184056 0 0.000986708
0.350249 0.00558849 0 0.000987705
0.350249 0.0094725 0 0.00218216
0.350249 0.0134975 0 0.00283525
0.350249 0.0176687 3.46945e-18 0.00316624
0.350249 0.0219913 0 0.00330567
0.350249 0.0264709 -3.46945e-18 0.00339985
0.350249 0.031113 -3.46945e-18 0.00347485
0 0.352034 0 0.00375
0.350249 0.0359238 3.46945e-18 0.00353247
0.0757758 0.344091 0 0.00375163
0.350249 0.0409092 0 0.00357621
0.350249 0.0460756 0 0.00360964
0.288433 0.2049 0 0.00375249
0.350249 0.0514296 0 0.00363554
0.151552 0.320819 0 0.00375277
0.350249 0.0569779 3.46945e-18 0.0036559
0.350249 0.0627277 0 0.00367213
0.350249 0.0686863 0 0.00368521
0.350249 0.0748612 3.46945e-18 0.00369584
0.350249 0.0812603 0 0.00370454
0.219992 0.284866 0 0.0037531
0.288433 0.21602 0 0.0037532
0.350249 0.0878917 0 0.00371172
0.350249 0.0947639 0 0.003718
0.350249 0.101886 0 0.00372373
0.350249 0.109266 3.46945e-18 0.00372888
0.288433 0.227544 0 0.00375382
0.0757758 0.360265 0 0.00375162
0 0.368496 0 0.00375
0.151552 0.336148 0 0.00375284
0.350249 0.116914 3.46945e-18 0.00373339
0.219992 0.29889 0 0.00375336
0.370854 0.0241911 0 0.00336164
0.350249 0.12484 0 0.00373731
0.350249 0.133054 3.46945e-18 0.00374073
0.288433 0.239487 -9.25186e-19 0.00375439
0.350249 0.141566 -3.46945e-18 0.0037437
0.350249 0.150387 0 0.00374626
0.288433 0.251863 0 0.0037549
0.219992 0.313423 0 0.00375359
0.151552 0.352034 0 0.00375293
0.0757758 0.377026 -3.46945e-18 0.00375169
0.350249 0.159528 3.46945e-18 0.00374844
0 0.385557 0 0.00375
0.350249 0.169001 3.46945e-18 0.00375028
0.288433 0.264688 0 0.00375539
0.350249 0.178818 0 0.0037518
0.219992 0.328484 0 0.0037538
0.350249 0.188991 0 0.00375308
0.151552 0.368496 0 0.00375309
0.288433 0.27798 3.70074e-18 0.00375585
0.0757758 0.394396 -3.46945e-18 0.00375178
0.350249 0.199534 3.46945e-18 0.00375415
7.47804e-17 0.403236 0 0.00375
0.219992 0.344091 0 0.00375402
0.350249 0.21046 0 0.00375504
0.288433 0.291753 0 0.00375628
0.412065 9.0819e-19 0 0.000804798
0.412065 0.00368111 -2.31296e-18 0.000869432
0.412065 0.00749587 -2.31296e-18 0.00160271
0.412065 0.0114491 -2.31296e-18 0.00259457
0.412065 0.0155459 -2.31296e-18 0.00305414
0.412065 0.0197915 0 0.00324656
0.412065 0.0241911 0 0.00333696
0.412065 0.0264709 0 0.00337079
0.412065 0.0287506 -2.31296e-18 0.00340463
0.412065 0.0334755 -2.31296e-18 0.0034671
0.412065 0.038372 -2.31296e-18 0.00352009
0.151552 0.385557 0 0.00375329
0.412065 0.0434463 0 0.0035629
0.350249 0.221782 0 0.00375581
0.412065 0.0487048 0 0.00359701
0.412065 0.0541543 0 0.00362422
0.412065 0.0569779 0 0.00363514
0.412065 0.0598016 -2.31296e-18 0.00364605
0.412065 0.0656539 -2.31296e-18 0.00366368
0.412065 0.0717187 -2.31296e-18 0.00367798
0.0757758 0.412397 0 0.00375185
0.412065 0.0780037 -2.31296e-18 0.0036897
0.288433 0.306027 0 0.00375668
0.412065 0.0845169 -2.31296e-18 0.00369956
0.350249 0.233515 0 0.00375649
0 0.421557 0 0.00375
0.412065 0.0912666 -2.31296e-18 0.0037082
0.219992 0.360265 -3.46945e-18 0.00375426
0.412065 0.0982613 0 0.003716
0.412065 0.10551 0 0.00372305
0.412065 0.113022 -2.31296e-18 0.00372936
0.350249 0.245675 3.46945e-18 0.0037571
0.412065 0.120806 0 0.00373492
0.151552 0.403236 0 0.0037535
0.288433 0.320819 0 0.00375707
0.412065 0.128874 -2.31296e-18 0.0037398
0.412065 0.137234 0 0.00374404
0.350249 0.258276 3.46945e-18 0.00375768
0.219992 0.377026 0 0.00375456
0.412065 0.145897 -2.31296e-18 0.0037477
0.0757758 0.431051 0 0.00375189
0.412065 0.154876 -2.31296e-18 0.00375084
0 0.440544 0 0.00375
0.288433 0.336148 0 0.00375745
0.350249 0.271334 0 0.00375826
0.412065 0.16418 -2.31296e-18 0.00375349
0.412065 0.173822 -2.31296e-18 0.00375573
0.151552 0.421557 0 0.0037537
0.412065 0.183814 -2.31296e-18 0.0037576
0.350249 0.284866 0 0.00375882
0.219992 0.394396 0 0.00375489
0.288433 0.352034 3.70074e-18 0.00375783
0.412065 0.194169 0 0.00375916
0.0757758 0.450382 0 0.00375191
0.412065 0.2049 -2.31296e-18 0.00376044
0 0.46022 0 0.00375
0.350249 0.29889 0 0.00375938
0.412065 0.21602 0 0.00376151
0.151552 0.440544 0 0.00375389
0.219992 0.412397 3.46945e-18 0.00375523
0.467897 0.00184056 -3.46945e-18 0.000635579
0.467897 0.00558849 0 0.000884161
0.288433 0.368496 0 0.00375823
0.467897 0.0094725 0 0.00235439
0.467897 0.0134975 3.46945e-18 0.00299451
0.467897 0.0176687 3.46945e-18 0.00321311
0.467897 0.0219913 -3.46945e-18 0.00329972
0.467897 0.0264709 -3.46945e-18 0.0033448
0.467897 0.031113 3.46945e-18 0.00340356
0.467897 0.0359238 0 0.0034626
0.467897 0.038372 0 0.00349222
0.467897 0.0409092 0 0.00351385
0.350249 0.313423 0 0.00375992
0.467897 0.0460756 0 0.00355608
0.467897 0.0514296 3.46945e-18 0.00359035
0.412065 0.227544 -2.31296e-18 0.00376242
0.467897 0.0569779 0 0.00361809
0.467897 0.0627277 -3.46945e-18 0.00364059
0.467897 0.0686863 0 0.00365888
0.467897 0.0748612 3.46945e-18 0.00367374
0.467897 0.0812603 3.46945e-18 0.00368613
0.467897 0.0878917 3.46945e-18 0.00369705
0.0757758 0.470415 3.46945e-18 0.00375193
0.412065 0.239487 -2.31296e-18 0.0037632
0.467897 0.0947639 0 0.00370697
0.467897 0.101886 3.46945e-18 0.00371597
0.350249 0.328484 0 0.00376046
0.467897 0.109266 3.46945e-18 0.00372409
0 0.48061 0 0.00375
0.288433 0.385557 0 0.00375867
0.467897 0.116914 3.46945e-18 0.00373133
0.412065 0.251863 -2.31296e-18 0.0037639
0.219992 0.431051 0 0.00375556
0.467897 0.12484 0 0.00373772
0.151552 0.46022 0 0.00375405
0.467897 0.133054 0 0.00374331
0.467897 0.141566 -3.46945e-18 0.00374816
0.412065 0.264688 -2.31296e-18 0.00376455
0.350249 0.344091 0 0.00376099
0.467897 0.150387 0 0.00375232
0.467897 0.154876 0 0.00375564
0.467897 0.159528 0 0.00375585
0.288433 0.403236 0 0.00375912
0.0757758 0.491176 3.46945e-18 0.00375195
0.412065 0.27798 -2.31296e-18 0.00376517
0.467897 0.169001 0 0.00375884
0.467897 0.178818 -3.46945e-18 0.00376136
0.219992 0.450382 3.46945e-18 0.00375587
6.73024e-17 0.501741 3.70074e-18 0.00375
0.350249 0.360265 0 0.00376151
0.151552 0.48061 0 0.0037542
0.467897 0.188991 0 0.00376345
0.412065 0.291753 0 0.00376577
0.467897 0.199534 0 0.00376517
0.288433 0.421557 0 0.00375959
0.467897 0.21046 3.46945e-18 0.00376659
0.412065 0.306027 0 0.00376635
0.350249 0.377026 0 0.00376205
0.467897 0.221782 0 0.00376776
0.0757758 0.51269 0 0.00375197
0.219992 0.470415 0 0.00375616
0.467897 0.227544 0 0.00377003
0.412065 0.320819 -2.31296e-18 0.00376693
0.467897 0.233515 0 0.00376874
6.73024e-17 0.523639 3.70074e-18 0.00375
0.523729 0 0 0.000541955
0.523729 0.00368111 0 0.000697832
0.523729 0.00749587 -2.31296e-18 0.00167046
0.523729 0.0114491 0 0.00282757
0.523729 0.0155459 0 0.00323714
0.523729 0.0197915 -2.31296e-18 0.00332407
0.151552 0.501741 0 0.00375435
0.523729 0.0241911 0 0.00334694
0.523729 0.0287506 0 0.00337016
0.523729 0.0334755 0 0.00341373
0.523729 0.038372 0 0.00346436
0.523729 0.0434463 0 0.00351152
0.523729 0.0487048 0 0.00355205
0.523729 0.0541543 0 0.00358588
0.288433 0.440544 0 0.00376004
0.523729 0.0598016 0 0.0036138
0.350249 0.394396 0 0.00376261
0.523729 0.0656539 0 0.00363673
0.467897 0.245675 3.46945e-18 0.00376959
0.523729 0.0717187 0 0.00365554
0.523729 0.0780037 0 0.00367126
0.523729 0.0845169 0 0.00368505
0.523729 0.0912666 0 0.00369756
0.412065 0.336148 0 0.0037675
0.523729 0.0982613 0 0.00370894
0.523729 0.10551 -2.31296e-18 0.00371923
0.467897 0.258276 3.46945e-18 0.00377033
0.523729 0.113022 0 0.00372847
0.523729 0.120806 0 0.00373669
0.219992 0.491176 3.46945e-18 0.00375643
0.523729 0.12484 0 0.00374031
0.523729 0.128874 -2.31296e-18 0.00374394
0.0757758 0.534985 -3.46945e-18 0.00375201
0.467897 0.271334 0 0.00377102
0.350249 0.412397 3.46945e-18 0.00376318
0.523729 0.137234 0 0.00375027
0.412065 0.352034 -2.31296e-18 0.00376807
0.288433 0.46022 0 0.00376047
0.523729 0.145897 0 0.00375574
0.151552 0.523639 0 0.0037545
0.523729 0.154876 0 0.00376043
0 0.546332 0 0.00375
0.523729 0.159528 0 0.00376243
0.467897 0.284866 3.46945e-18 0.00377166
0.523729 0.16418 -2.31296e-18 0.00376442
0.523729 0.173822 0 0.00376777
0.412065 0.368496 0 0.00376864
0.523729 0.183814 0 0.00377058
0.467897 0.29889 -3.46945e-18 0.00377228
0.350249 0.431051 0 0.00376376
0.219992 0.51269 3.46945e-18 0.00375669
0.523729 0.194169 0 0.0037729
0.288433 0.48061 0 0.00376087
0.523729 0.2049 0 0.0037748
0.467897 0.313423 0 0.00377289
0.0757758 0.55809 0 0.00375205
0.412065 0.385557 0 0.00376924
0.523729 0.21602 0 0.00377636
0.151552 0.546332 0 0.00375465
0 0.569849 0 0.00375
0.350249 0.450382 0 0.00376433
0.523729 0.227544 0 0.00377763
0.467897 0.328484 0 0.0037735
0.523729 0.231525 0 0.00377799
0.574156 0.00184056 0 0.000454476
0.574156 0.00558849 0 0.00082526
0.574156 0.0094725 0 0.00261136
0.574156 0.0134975 0 0.00332998
0.574156 0.0176687 0 0.00339347
0.574156 0.0219913 3.46945e-18 0.00338112
0.574156 0.0264709 0 0.0033589
0.574156 0.031113 0 0.0033739
0.574156 0.0359238 3.46945e-18 0.0034174
0.574156 0.0409092 -3.46945e-18 0.00346674
0.523729 0.239487 3.70074e-18 0.00377869
0.574156 0.0460756 3.46945e-18 0.00351248
0.574156 0.0514296 0 0.00355206
0.412065 0.403236 0 0.00376985
0.574156 0.0569779 0 0.0035854
0.574156 0.0627277 0 0.00361313
0.574156 0.0686863 0 0.00363603
0.219992 0.534985 0 0.00375695
0.288433 0.501741 0 0.00376126
0.574156 0.0748612 0 0.00365493
0.574156 0.0812603 0 0.00367139
0.467897 0.344091 3.46945e-18 0.0037741
0.574156 0.0878917 0 0.0036865
0.523729 0.251863 0 0.00377958
0.574156 0.0947639 -3.46945e-18 0.00370031
0.574156 0.101886 0 0.00371284
0.574156 0.109266 3.46945e-18 0.00372414
0.574156 0.116914 -3.46945e-18 0.00373424
0.412065 0.416977 0 0.00377032
0.350249 0.470415 0 0.00376487
0.523729 0.264688 0 0.00378036
0.0757758 0.582034 0 0.0037521
0.574156 0.12484 0 0.0037432
0.574156 0.133054 0 0.00375107
0.412065 0.421557 -2.31296e-18 0.00377048
0.151552 0.569849 0 0.00375481
0.467897 0.360265 0 0.00377472
0.574156 0.141566 -3.46945e-18 0.00375793
0.523729 0.27798 0 0.00378105
0.574156 0.150387 -3.46945e-18 0.00376384
0 0.594219 0 0.00375
0.574156 0.159528 0 0.00376889
0.574156 0.16418 0 0.00377248
0.288433 0.523639 9.24446e-33 0.00376163
0.574156 0.169001 -3.46945e-18 0.00377316
0.523729 0.291753 0 0.00378169
0.219992 0.55809 -3.46945e-18 0.00375721
0.467897 0.377026 0 0.00377535
0.574156 0.178818 -3.46945e-18 0.00377674
0.412065 0.440544 -2.31296e-18 0.00377111
0.350249 0.491176 3.46945e-18 0.00376538
0.574156 0.188991 0 0.00377971
0.523729 0.306027 0 0.00378229
0.574156 0.199534 0 0.00378215
0.574156 0.21046 0 0.00378413
0.0757758 0.606847 0 0.00375215
0.467897 0.394396 3.46945e-18 0.003776
0.151552 0.594219 0 0.00375497
0.523729 0.320819 0 0.00378289
0.574156 0.221782 -3.46945e-18 0.00378575
0.412065 0.46022 0 0.00377172
0.288433 0.546332 0 0.00376199
0 0.619475 0 0.00375
0.574156 0.233515 0 0.00378706
0.350249 0.51269 3.46945e-18 0.00376586
0.219992 0.582034 0 0.00375747
0.523729 0.336148 0 0.00378347
0.467897 0.412397 0 0.00377667
0.574156 0.245675 3.46945e-18 0.00378814
0.624584 0 0 0.000388755
0.624584 0.00368111 0 0.000598275
0.624584 0.00749587 0 0.00177691
0.624584 0.0114491 0 0.00315548
0.624584 0.0155459 0 0.00356714
0.624584 0.0197915 0 0.00351937
0.624584 0.0241911 -2.31296e-18 0.00343356
0.624584 0.0287506 0 0.0033898
0.624584 0.0334755 0 0.00339527
0.624584 0.038372 0 0.00343017
0.624584 0.0434463 -2.31296e-18 0.00347396
0.624584 0.0487048 0 0.00351655
0.624584 0.0541543 0 0.00355446
0.624584 0.0598016 0 0.00358695
0.624584 0.0656539 0 0.00361425
0.624584 0.0717187 0 0.00363712
0.624584 0.0780037 0 0.0036569
0.574156 0.258276 0 0.00378903
0.624584 0.0845169 0 0.0036748
0.523729 0.352034 0 0.00378406
0.624584 0.0912666 0 0.00369126
0.624584 0.0982613 0 0.0037063
0.412065 0.48061 0 0.00377231
0.624584 0.10551 0 0.00371995
0.624584 0.113022 -2.31296e-18 0.00373223
0.574156 0.271334 0 0.00378979
0.624584 0.120806 0 0.00374319
0.467897 0.431051 0 0.00377735
0.0757758 0.632561 3.46945e-18 0.00375222
0.624584 0.128874 0 0.00375289
0.151552 0.619475 0 0.00375513
0.288433 0.569849 0 0.00376234
0.350249 0.534985 0 0.00376632
0.624584 0.137234 -2.31296e-18 0.0037614
0.523729 0.368496 0 0.00378467
0.574156 0.284866 -3.46945e-18 0.00379047
0.624584 0.145897 0 0.00376879
0.467897 0.440544 0 0.0037792
0.624584 0.154876 0 0.00377514
0.219992 0.606847 0 0.00375772
0 0.645647 0 0.00375
0.624584 0.16418 0 0.00378054
0.574156 0.29889 0 0.00379108
0.624584 0.173822 0 0.0037851
0.412065 0.501741 0 0.00377287
0.467897 0.450382 0 0.00377803
0.523729 0.385557 0 0.0037853
0.624584 0.183814 0 0.0037889
0.624584 0.194169 0 0.00379203
0.574156 0.313423 3.46945e-18 0.00379166
0.624584 0.2049 0 0.00379459
0.350249 0.55809 3.46945e-18 0.00376677
0.288433 0.594219 0 0.00376268
0.624584 0.21602 0 0.00379666
0.523729 0.403236 0 0.00378595
0.574156 0.328484 -3.46945e-18 0.00379223
0.151552 0.645647 0 0.00375529
0.467897 0.470415 0 0.0037787
0.0757758 0.659208 3.46945e-18 0.00375228
0.624584 0.227544 0 0.00379833
0.412065 0.523639 0 0.0037734
0.523729 0.41545 0 0.00378639
0.624584 0.239487 3.70074e-18 0.00379967
0.574156 0.344091 0 0.0037928
0.219992 0.632561 -3.46945e-18 0.00375798
0.67013 0.00184056 3.46945e-18 0.000327056
0.67013 0.00558849 -3.46945e-18 0.000791408
0.67013 0.0094725 3.46945e-18 0.00287252
0.67013 0.0134975 -3.46945e-18 0.0037855
0.67013 0.0176687 0 0.0037345
0.67013 0.0219913 0 0.00355225
0.67013 0.0264709 3.46945e-18 0.0034342
0.67013 0.031113 0 0.00338935
0.67013 0.0359238 -3.46945e-18 0.00340047
0.67013 0.0409092 0 0.00343752
0.67013 0.0460756 0 0.003481
0.67013 0.0514296 -3.46945e-18 0.0035226
0.523729 0.421557 0 0.00378662
0.67013 0.0569779 0 0.00355955
0 0.67277 0 0.00375
0.67013 0.0627277 3.46945e-18 0.00359125
0.624584 0.251863 0 0.00380075
0.67013 0.0686863 0 0.00361787
0.67013 0.0748612 -3.46945e-18 0.00364069
0.67013 0.0812603 0 0.00366134
0.67013 0.0878917 0 0.00368046
0.67013 0.0947639 0 0.00369804
0.574156 0.360265 3.46945e-18 0.00379339
0.67013 0.101886 3.46945e-18 0.00371407
0.523729 0.431051 0 0.00378696
0.624584 0.264688 0 0.00380164
0.467897 0.491176 0 0.00377933
0.67013 0.109266 3.46945e-18 0.00372857
0.350249 0.582034 0 0.00376719
0.67013 0.116914 -3.46945e-18 0.0037416
0.67013 0.12484 0 0.00375319
0.67013 0.133054 -3.46945e-18 0.00376341
0.288433 0.619475 0 0.00376301
0.624584 0.27798 0 0.00380238
0.412065 0.546332 0 0.00377389
0.523729 0.440544 0 0.0037873
0.67013 0.141566 0 0.00377234
0.685312 0.0241911 0 0.00354811
0.685312 0.0434463 0 0.00346004
0.67013 0.150387 0 0.00378006
0.574156 0.377026 0 0.00379399
0.67013 0.159528 0 0.00378668
0.624584 0.291753 0 0.00380301
0.151552 0.67277 0 0.00375545
0.0757758 0.686823 0 0.00375235
0.67013 0.169001 -3.46945e-18 0.00379228
0.67013 0.178818 0 0.00379698
0.467897 0.51269 3.46945e-18 0.00377992
0.685312 0.113022 0 0.00373749
0.219992 0.659208 0 0.00375823
0.624584 0.306027 0 0.00380359
0.67013 0.188991 0 0.00380087
0.574156 0.394396 -3.46945e-18 0.00379462
0.523729 0.46022 0 0.00378797
0.685312 0.137234 0 0.00377165
0.67013 0.199534 3.46945e-18 0.00380405
0.350249 0.606847 3.46945e-18 0.0037676
0 0.700877 0 0.00375
0.624584 0.320819 0 0.00380412
0.67013 0.21046 -3.46945e-18 0.00380664
0.412065 0.569849 -2.31296e-18 0.00377436
0.67013 0.221782 0 0.00380871
0.574156 0.412397 -3.46945e-18 0.00379527
0.288433 0.645647 0 0.00376332
0.624584 0.336148 0 0.00380465
0.67013 0.233515 -3.46945e-18 0.00381036
0.467897 0.534985 0 0.00378048
0.523729 0.48061 0 0.00378862
0.624584 0.344091 0 0.00380491
0.67013 0.245675 0 0.00381166
0.715676 4.54095e-19 -1.54074e-33 0.000276979
0.715676 0.00368111 0 0.000529068
0.715676 0.00749587 0 0.00189185
0.715676 0.0114491 -1.54074e-33 0.00352565
0.715676 0.0155459 0 0.00401342
0.715676 0.0197915 0 0.00383736
0.715676 0.0241911 0 0.00360538
0.715676 0.0287506 0 0.00346917
0.715676 0.0334755 0 0.00341675
0.715676 0.038372 0 0.00342157
0.624584 0.352034 -2.31296e-18 0.00380517
0.715676 0.0434463 0 0.00345308
0.151552 0.700877 0 0.00375561
0.715676 0.0487048 0 0.00349255
0.715676 0.0541543 0 0.00353151
0.574156 0.431051 -3.46945e-18 0.00379594
0.715676 0.0598016 0 0.00356674
0.67013 0.258276 0 0.0038127
0.715676 0.0656539 0 0.00359725
0.715676 0.0717187 0 0.00362358
0.0757758 0.715441 0 0.00375242
0.715676 0.0780037 0 0.00364717
0.715676 0.0845169 0 0.00366901
0.219992 0.686823 0 0.00375847
0.715676 0.0912666 0 0.00368924
0.715676 0.0982613 0 0.00370784
0.67013 0.271334 0 0.00381354
0.350249 0.632561 3.46945e-18 0.00376799
0.412065 0.594219 -2.31296e-18 0.00377481
0.715676 0.10551 0 0.00372479
0.715676 0.113022 0 0.00374012
0.624584 0.368496 0 0.00380571
0.523729 0.501741 0 0.00378924
0.715676 0.120806 0 0.00375385
0.715676 0.128874 0 0.00376605
0.67013 0.284866 0 0.00381422
0.467897 0.55809 3.46945e-18 0.003781
0.715676 0.137234 0 0.00377677
0.574156 0.450382 0 0.00379663
0 0.730005 0 0.00375
0.715676 0.145897 0 0.00378612
0.288433 0.67277 0 0.00376363
0.715676 0.154876 0 0.00379417
0.67013 0.29889 3.46945e-18 0.00381481
0.624584 0.385557 0 0.00380627
0.715676 0.16418 0 0.00380104
0.715676 0.173822 0 0.00380684
0.715676 0.183814 0 0.00381167
0.67013 0.313423 0 0.00381532
0.523729 0.523639 0 0.00378981
0.715676 0.194169 0 0.00381565
0.574156 0.470415 3.46945e-18 0.00379729
0.624584 0.403236 0 0.00380686
0.743101 0.0241911 0 0.00369807
0.412065 0.619475 -2.31296e-18 0.00377522
0.715676 0.2049 0 0.00381888
0.151552 0.730005 0 0.00375576
0.67013 0.328484 0 0.00381581
0.350249 0.659208 -3.46945e-18 0.00376836
0.467897 0.582034 0 0.00378149
0.715676 0.21602 0 0.00382148
0.219992 0.715441 0 0.0037587
0.0757758 0.745098 3.46945e-18 0.00375249
0.715676 0.227544 0 0.00382355
0.67013 0.344091 0 0.00381628
0.624584 0.421557 0 0.00380748
0.743101 0.128874 0 0.00377161
0.715676 0.239487 3.70074e-18 0.00382517
0.574156 0.491176 3.46945e-18 0.00379793
0.523729 0.546332 0 0.00379034
0.756814 0.00184056 0 0.00022973
0.756814 0.00558849 0 0.000771502
0.756814 0.0094725 0 0.00312531
0.756814 0.0134975 3.46945e-18 0.00429711
0.756814 0.0155459 0 0.00427143
0.756814 0.0176687 -3.46945e-18 0.00420798
0.756814 0.0219913 -3.46945e-18 0.0038328
0.756814 0.0264709 3.46945e-18 0.0035896
0.756814 0.031113 -3.46945e-18 0.00345704
0.756814 0.0359238 -3.46945e-18 0.00341767
0.288433 0.700877 0 0.00376392
0.756814 0.0409092 0 0.00343033
0.756814 0.0460756 -3.46945e-18 0.00346416
0.756814 0.0514296 -3.46945e-18 0.00350348
0.715676 0.251863 0 0.00382643
0.756814 0.0569779 0 0.00354151
0.756814 0.0627277 3.46945e-18 0.00357562
0.756814 0.0686863 0 0.0036051
0 0.76019 0 0.00375
0.756814 0.0748612 0 0.0036313
0.67013 0.360265 0 0.00381676
0.756814 0.0812603 0 0.00365578
0.756814 0.0878917 0 0.00367865
0.756814 0.0947639 -3.46945e-18 0.00369981
0.715676 0.264688 0 0.00382741
0.756814 0.101886 -3.46945e-18 0.00371924
0.624584 0.440544 0 0.00380811
0.756814 0.109266 -3.46945e-18 0.00373691
0.756814 0.116914 -3.46945e-18 0.00375283
0.412065 0.645647 0 0.00377561
0.467897 0.606847 0 0.00378194
0.756814 0.120806 0 0.00376095
0.756814 0.12484 3.46945e-18 0.00376706
0.715676 0.27798 -1.54074e-33 0.00382818
0.756814 0.133054 3.46945e-18 0.00377965
0.67013 0.377026 3.46945e-18 0.00381726
0.756814 0.137234 0 0.00378622
0.574156 0.51269 0 0.00379853
0.756814 0.141566 0 0.00379069
0.685312 0.352034 0 0.0038221
0.743101 0.2049 0 0.00382819
0.350249 0.686823 0 0.00376871
0.756814 0.150387 0 0.00380026
0.756814 0.154876 0 0.00380547
0.715676 0.291753 -6.16298e-33 0.00382879
0.756814 0.159528 0 0.00380847
0.523729 0.569849 0 0.00379083
0.72743 0.264688 0 0.00383162
0.756814 0.16418 0 0.00381308
0.151552 0.76019 3.70074e-18 0.00375591
0.756814 0.169001 3.46945e-18 0.00381544
0.624584 0.46022 0 0.00380874
0.219992 0.745098 -3.46945e-18 0.00375893
0.67013 0.394396 0 0.00381779
0.756814 0.178818 0 0.00382128
0.715676 0.306027 0 0.0038293
0.0757758 0.775831 3.46945e-18 0.00375256
0.756814 0.188991 0 0.00382612
0.756814 0.199534 -3.46945e-18 0.00383007
0.715676 0.320819 0 0.00382975
0.574156 0.534985 0 0.00379908
0.288433 0.730005 0 0.00376419
0.756814 0.21046 0 0.00383326
0.467897 0.632561 0 0.00378236
0.67013 0.412397 0 0.00381835
0.624584 0.48061 0 0.00380935
0.756814 0.221782 3.46945e-18 0.00383579
0.412065 0.67277 -2.31296e-18 0.00377597
0.715676 0.336148 0 0.00383016
0 0.791472 0 0.00375
0.756814 0.233515 0 0.00383777
0.523729 0.594219 0 0.00379128
0.624584 0.487654 0 0.00380955
0.756814 0.245675 0 0.0038393
0.350249 0.715441 3.46945e-18 0.00376903
0.67013 0.431051 -3.46945e-18 0.00381893
0.715676 0.352034 0 0.00383056
0.797951 9.0819e-19 0 0.000192298
0.797951 0.00368111 0 0.000478667
0.797951 0.00749587 0 0.00200377
0.797951 0.0114491 0 0.00390021
0.797951 0.0141803 0 0.00431969
0.797951 0.0155459 0 0.00452944
0.797951 0.0169611 0 0.00444456
0.797951 0.0197915 0 0.0042748
0.797951 0.0219913 0 0.00407913
0.797951 0.0241911 0 0.00388345
0.797951 0.0264709 0 0.00375229
0.797951 0.0287506 0 0.00362113
0.797951 0.0334755 0 0.00348549
0.797951 0.038372 0 0.00344337
0.797951 0.0434463 0 0.00345192
0.797951 0.0487048 0 0.00348184
0.756814 0.258276 0 0.00384046
0.797951 0.0541543 0 0.00351807
0.797951 0.0598016 0 0.00355372
0.797951 0.0656539 0 0.00358611
0.574156 0.55809 0 0.00379958
0.624584 0.501741 -2.05433e-33 0.00380993
0.797951 0.0717187 0 0.00361516
0.797951 0.0780037 0 0.00364207
0.797951 0.0845169 0 0.00366744
0.797951 0.0912666 0 0.00369116
0.797951 0.0982613 0 0.00371312
0.756814 0.271334 -3.46945e-18 0.00384135
0.797951 0.10551 0 0.00373327
0.715676 0.368496 0 0.00383098
0.151552 0.791472 0 0.00375606
0.797951 0.113022 0 0.00375158
0.219992 0.775831 3.46945e-18 0.00375916
0.797951 0.118212 0 0.00376256
0.770526 0.239487 0 0.00384461
0.797951 0.120806 9.25186e-19 0.00376805
0.67013 0.450382 3.46945e-18 0.00381953
0.797951 0.128874 -2.31296e-18 0.00378272
0.467897 0.659208 0 0.00378274
0.756814 0.284866 0 0.00384202
0.743101 0.320819 0 0.00383953
0.797951 0.137234 0 0.00379568
0.797951 0.141566 0 0.00380133
0.797951 0.145897 0 0.00380699
0.523729 0.619475 0 0.00379168
0.0757758 0.80768 0 0.00375264
0.797951 0.150387 0 0.00381187
0.797951 0.154876 9.25186e-19 0.00381676
0.715676 0.385557 0 0.00383142
0.412065 0.700877 -2.31296e-18 0.0037763
0.288433 0.76019 0 0.00376445
0.756814 0.29889 -3.46945e-18 0.00384254
0.797951 0.16418 0 0.00382511
0.624584 0.523639 -1.54074e-33 0.00381046
0.797951 0.167394 0 0.00382747
0.797951 0.173822 0 0.00383217
0.574156 0.582034 0 0.00380003
0.67013 0.470415 0 0.00382011
0.797951 0.183814 0 0.00383805
0.756814 0.313423 0 0.00384296
0.797951 0.194169 0 0.00384289
0.715676 0.403236 -6.16298e-33 0.00383188
0.151552 0.80768 0 0.00375613
0.797951 0.197746 0 0.0038442
0.350249 0.745098 -3.46945e-18 0.00376933
0.797951 0.2049 0 0.00384681
0 0.823889 0 0.00375
0.756814 0.328484 0 0.00384332
0.797951 0.21046 0 0.00384838
0.797951 0.21602 0 0.00384995
0.797951 0.223703 0 0.00385159
0.797951 0.227544 0 0.00385242
0.624584 0.546332 0 0.00381094
0.715676 0.421557 0 0.00383238
0.67013 0.491176 3.46945e-18 0.00382067
0.797951 0.231525 0 0.00385305
0.467897 0.686823 0 0.00378309
0.523729 0.645647 0 0.00379204
0.756814 0.344091 -3.46945e-18 0.00384366
0.822721 0.120806 0 0.00377373
0.797951 0.239487 0 0.00385433
0.822721 0.137234 0 0.00380291
0.835107 0.00184056 -3.46945e-18 0.000156798
0.835107 0.00558849 0 0.000758923
0.835107 0.0094725 3.46945e-18 0.00335373
0.835107 0.0134975 0 0.00480524
0.835107 0.0176687 0 0.00477886
0.835107 0.0219913 3.46945e-18 0.00425331
0.574156 0.606847 3.46945e-18 0.00380043
0.835107 0.0241911 0 0.00408392
0.835107 0.0264709 3.46945e-18 0.00384032
0.822721 0.145897 0 0.00381488
0.835107 0.031113 0 0.00358747
0.835107 0.0359238 0 0.00347481
0.835107 0.0409092 -3.46945e-18 0.00344865
0.835107 0.0460756 0 0.00346404
0.835107 0.0514296 -3.46945e-18 0.00349588
0.797951 0.251863 0 0.00385579
0.835107 0.0541543 0 0.00351713
0.835107 0.0569779 -3.46945e-18 0.00353185
0.219992 0.80768 -3.46945e-18 0.00375937
0.822721 0.154876 0 0.00382524
0.835107 0.0627277 -3.46945e-18 0.0035664
0.151552 0.823889 0 0.0037562
0.797951 0.255069 0 0.00385606
0.835107 0.0686863 3.46945e-18 0.00359775
0.756814 0.360265 3.46945e-18 0.00384399
0.412065 0.730005 0 0.0037766
0.835107 0.0748612 0 0.0036268
0.822721 0.16418 0 0.00383409