# nutMean  POINT_DATA 63140
# x  y  z  nutMean
0 0.1 0 0.00522236
0 0.1 -0.0179898 0.00522474
0 0.1 0.0179898 0.00522005
0.0363518 0.1 -0.0179898 0.0118082
0.0363518 0.1 0.0179898 0.0118681
0 0.1 -0.0570102 0.00524246
0 0.1 0.0570102 0.00522834
0.0363518 0.1 0.0570102 0.0118764
0.0363518 0.1 -0.0570102 0.011826
0 0.1 -0.075 0.00525607
0 0.1 0.075 0.00523803
0.0757758 0.1 -0.0375 0.0187618
0.0757758 0.1 0.0375 0.018887
0 0.1 -0.0929898 0.00527012
0 0.1 0.0929898 0.00524793
0.0363518 0.1 -0.0929898 0.0113139
0.0363518 0.1 0.0929898 0.0114235
0 0.1 -0.13201 0.00530118
0 0.1 0.13201 0.00527288
0.0757758 0.1 -0.1125 0.0176801
0.0757758 0.1 0.1125 0.0179374
0.0363518 0.1 -0.13201 0.0113449
0.0363518 0.1 0.13201 0.0114485
0 0.1 -0.15 0.00531557
0 0.1 0.15 0.0052856
0.150379 0.1 -4.33681e-19 0.0181691
0 0.1 -0.16799 0.00533127
0 0.1 0.16799 0.00529927
0.150379 0.1 -0.075 0.017032
0.150379 0.1 0.075 0.0174175
0.0363518 0.1 -0.16799 0.0105037
0.0363518 0.1 0.16799 0.0105931
0.0757758 0.1 -0.1875 0.0159703
0.0757758 0.1 0.1875 0.0161844
0 0.1 -0.20701 0.00535639
0 0.1 0.20701 0.00532436
0.0363518 0.1 -0.20701 0.0105288
0.0363518 0.1 0.20701 0.0106182
0.150379 0.1 -0.15 0.0150309
0.150379 0.1 0.15 0.0154702
0.219992 0.1 -0.0375 0.0174748
0.219992 0.1 0.0375 0.0176063
0 0.1 -0.225 0.00536549
0 0.1 0.225 0.00533473
0 0.1 -0.24299 0.00537629
0 0.1 0.24299 0.00534677
0.0363518 0.1 0.24299 0.00988754
0.0363518 0.1 -0.24299 0.00991744
0.219992 0.1 -0.1125 0.0142927
0.219992 0.1 0.1125 0.0153062
0.150379 0.1 0.225 0.0138671
0.150379 0.1 -0.225 0.0137677
0.0757758 0.1 0.2625 0.0147262
0.0757758 0.1 -0.2625 0.0147642
0 0.1 -0.28201 0.00538473
0 0.1 0.28201 0.00535774
0.0363518 0.1 -0.28201 0.00992588
0.0363518 0.1 0.28201 0.0098985
0.287374 0.1 0 0.0136573
0.219992 0.1 -0.1875 0.0123036
0.219992 0.1 0.1875 0.0125583
0.287374 0.1 -0.075 0.0127735
0.287374 0.1 0.075 0.0130952
0 0.1 -0.3 0.00538384
0 0.1 0.3 0.00535781
0 0.1 -0.31799 0.00538402
0 0.1 0.31799 0.00535911
0.0363518 0.1 -0.31799 0.00963352
0.0363518 0.1 0.31799 0.00955537
0.287374 0.1 -0.15 0.0113732
0.287374 0.1 0.15 0.0117392
0.150379 0.1 -0.3 0.0132268
0.150379 0.1 0.3 0.0131716
0.219992 0.1 -0.2625 0.0121551
0.219992 0.1 0.2625 0.012117
0.0757758 0.1 -0.3375 0.0141743
0.0757758 0.1 0.3375 0.0140416
0.350249 0.1 -0.0375 0.00991281
0.350249 0.1 0.0375 0.00995375
0 0.1 0.35701 0.00535498
0 0.1 -0.35701 0.00537848
0.0363518 0.1 -0.35701 0.00962798
0.0363518 0.1 0.35701 0.00955124
0.287374 0.1 -0.225 0.0107732
0.287374 0.1 0.225 0.0108524
0.350249 0.1 0.1125 0.00977658
0.350249 0.1 -0.1125 0.00965642
0 0.1 -0.375 0.00537421
0 0.1 0.375 0.00535106
0 0.1 -0.39299 0.00537052
0 0.1 0.39299 0.00534778
0.0363518 0.1 -0.39299 0.00933483
0.0363518 0.1 0.39299 0.00926702
0.350249 0.1 -0.1875 0.00938282
0.350249 0.1 0.1875 0.00947717
0.219992 0.1 -0.3375 0.0119138
0.219992 0.1 0.3375 0.0118967
0.150379 0.1 -0.375 0.0129804
0.150379 0.1 0.375 0.0128662
0.411108 0.1 -2.21177e-17 0.00818885
0.287374 0.1 -0.3 0.0107015
0.287374 0.1 0.3 0.0106853
0.411108 0.1 0.075 0.00815837
0.411108 0.1 -0.075 0.0081122
0.0757758 0.1 -0.4125 0.0135767
0.0757758 0.1 0.4125 0.0134618
0 0.1 -0.43201 0.00535386
0 0.1 0.43201 0.00533314
0.0363518 0.1 -0.43201 0.00931818
0.0363518 0.1 0.43201 0.00925238
0.411108 0.1 -0.15 0.00797987
0.411108 0.1 0.15 0.00804299
0.350249 0.1 -0.2625 0.00937172
0.350249 0.1 0.2625 0.00937537
0 0.1 -0.45 0.00534314
0 0.1 0.45 0.00532378
0.219992 0.1 -0.4125 0.0123259
0.219992 0.1 0.4125 0.012132
0 0.1 -0.46799 0.00533263
0 0.1 0.46799 0.00531471
0.411108 0.1 -0.225 0.00792171
0.411108 0.1 0.225 0.00794988
0.467897 0.1 0.0375 0.00651719
0.467897 0.1 -0.0375 0.00650978
0.0363518 0.1 -0.46799 0.00903068
0.0363518 0.1 0.46799 0.00897284
0.287374 0.1 -0.375 0.0108106
0.287374 0.1 0.375 0.0107522
0.150379 0.1 -0.45 0.0130863
0.150379 0.1 0.45 0.0129851
0.467897 0.1 -0.1125 0.00650165
0.467897 0.1 0.1125 0.00652075
0.350249 0.1 0.3375 0.00946327
0.350249 0.1 -0.3375 0.00947918
0.0757758 0.1 -0.4875 0.0129925
0.0757758 0.1 0.4875 0.012894
0.467897 0.1 -0.1875 0.00649935
0.467897 0.1 0.1875 0.00652173
0 0.1 -0.50701 0.00530741
0 0.1 0.50701 0.00529082
0.0363518 0.1 -0.50701 0.00900545
0.0363518 0.1 0.50701 0.00894895
0.411108 0.1 -0.3 0.00798302
0.411108 0.1 0.3 0.00797605
0.522864 0.1 -2.08167e-17 0.0056135
0 0.1 -0.525 0.00529521
0 0.1 0.525 0.00527848
0.522864 0.1 -0.075 0.00561545
0.522864 0.1 0.075 0.00562155
0.287374 0.1 -0.45 0.0112763
0.287374 0.1 0.45 0.0112281
0.219992 0.1 -0.4875 0.0134606
0.219992 0.1 0.4875 0.0134626
0.467897 0.1 0.2625 0.00654137
0.467897 0.1 -0.2625 0.00654795
0.350249 0.1 -0.4125 0.00963748
0.350249 0.1 0.4125 0.00962483
0 0.1 -0.54299 0.00528266
0 0.1 0.54299 0.00526589
0.522864 0.1 0.15 0.00563838
0.522864 0.1 -0.15 0.00562959
0.0363518 0.1 -0.54299 0.00875315
0.0363518 0.1 0.54299 0.00870121
0.150379 0.1 -0.525 0.0131297
0.150379 0.1 0.525 0.0131126
0.411108 0.1 -0.375 0.00811222
0.411108 0.1 0.375 0.00809971
0.0757758 0.1 -0.5625 0.0124749
0.0757758 0.1 0.5625 0.0123866
0.522864 0.1 -0.225 0.00566774
0.522864 0.1 0.225 0.00566985
0.574156 0.1 -0.0375 0.00474787
0.574156 0.1 0.0375 0.00474753
0.467897 0.1 -0.3375 0.0066489
0.467897 0.1 0.3375 0.00663927
0 0.1 -0.58201 0.00525723
0 0.1 0.58201 0.00524048
0.0363518 0.1 -0.58201 0.00872773
0.0363518 0.1 0.58201 0.0086758
0.574156 0.1 -0.1125 0.00477009
0.574156 0.1 0.1125 0.0047689
0.287374 0.1 -0.525 0.0116613
0.287374 0.1 0.525 0.0116994
0 0.1 -0.6 0.00524598
0 0.1 0.6 0.00522941
0.350249 0.1 -0.4875 0.00982796
0.350249 0.1 0.4875 0.00983503
0.522864 0.1 0.3 0.00573745
0.522864 0.1 -0.3 0.00574587
0.219992 0.1 -0.5625 0.0135517
0.219992 0.1 0.5625 0.0136623
0.574156 0.1 -0.1875 0.0048133
0.574156 0.1 0.1875 0.0048091
0.411108 0.1 -0.45 0.00828604
0.411108 0.1 0.45 0.0082788
0 0.1 -0.61799 0.00523413
0 0.1 0.61799 0.00521778
0.150379 0.1 -0.6 0.0128576
0.150379 0.1 0.6 0.0128649
0.0363518 0.1 -0.61799 0.00850955
0.0363518 0.1 0.61799 0.00846196
0.467897 0.1 0.4125 0.00678826
0.467897 0.1 -0.4125 0.00680093
0.623803 0.1 1.04083e-17 0.00422977
0.623803 0.1 -0.075 0.00424234
0.623803 0.1 0.075 0.0042398
0.574156 0.1 -0.2625 0.0048753
0.574156 0.1 0.2625 0.00487251
0.623803 0.1 -0.15 0.00427674
0.623803 0.1 0.15 0.00427106
0.0757758 0.1 0.6375 0.0119459
0.0757758 0.1 -0.6375 0.0120255
0.522864 0.1 -0.375 0.00586717
0.522864 0.1 0.375 0.00585258
0 0.1 0.65701 0.00519527
0 0.1 -0.65701 0.00521101
0.0363518 0.1 0.65701 0.00843944
0.0363518 0.1 -0.65701 0.00848642
0.350249 0.1 -0.5625 0.00997029
0.350249 0.1 0.5625 0.0100055
0.623803 0.1 -0.225 0.00433182
0.623803 0.1 0.225 0.00432372
0.287374 0.1 -0.6 0.0116877
0.287374 0.1 0.6 0.0117538
0.574156 0.1 -0.3375 0.00497624
0.574156 0.1 0.3375 0.00496144
0.411108 0.1 -0.525 0.00847199
0.411108 0.1 0.525 0.00848036
0.67013 0.1 -0.0375 0.00373114
0.67013 0.1 0.0375 0.00372887
0.219992 0.1 0.6375 0.0133992
0.219992 0.1 -0.6375 0.01332
0 0.1 -0.675 0.00520091
0 0.1 0.675 0.00518556
0.467897 0.1 -0.4875 0.00699734
0.467897 0.1 0.4875 0.00698625
0.67013 0.1 -0.1125 0.00375647
0.67013 0.1 0.1125 0.00375026
0.522864 0.1 -0.45 0.00602856
0.522864 0.1 0.45 0.0060114
0.150379 0.1 0.675 0.012527
0.150379 0.1 -0.675 0.0125361
0.623803 0.1 0.3 0.00439892
0.623803 0.1 -0.3 0.00441182
0 0.1 -0.69299 0.00519015
0 0.1 0.69299 0.00517522
0.0363518 0.1 0.69299 0.0082601
0.0363518 0.1 -0.69299 0.00830344
0.67013 0.1 0.1875 0.00379228
0.67013 0.1 -0.1875 0.00380318
0.574156 0.1 -0.4125 0.00510828
0.574156 0.1 0.4125 0.00508716
0.714971 0.1 -1.82146e-17 0.00338759
0.0757758 0.1 0.7125 0.0115758
0.0757758 0.1 -0.7125 0.0116484
0.714971 0.1 -0.075 0.00340121
0.714971 0.1 0.075 0.00339632
0.67013 0.1 -0.2625 0.00387139
0.67013 0.1 0.2625 0.00385718
0.411108 0.1 -0.6 0.00863371
0.411108 0.1 0.6 0.00865854
0.350249 0.1 -0.6375 0.0100622
0.350249 0.1 0.6375 0.010104
0.623803 0.1 -0.375 0.00452133
0.623803 0.1 0.375 0.00450137
0.714971 0.1 0.15 0.00342643
0.714971 0.1 -0.15 0.003436
0.467897 0.1 -0.5625 0.00721187
0.467897 0.1 0.5625 0.0072146
0 0.1 -0.73201 0.0051699
0 0.1 0.73201 0.00515581
0.0363518 0.1 -0.73201 0.00828319
0.0363518 0.1 0.73201 0.00824069
0.287374 0.1 0.675 0.0116634
0.287374 0.1 -0.675 0.0116169
0.522864 0.1 -0.525 0.00622217
0.522864 0.1 0.525 0.00620813
0.219992 0.1 0.7125 0.013115
0.219992 0.1 -0.7125 0.0130837
0.714971 0.1 0.225 0.00347732
0.714971 0.1 -0.225 0.00349153
0 0.1 0.75 0.00514773
0 0.1 -0.75 0.00516141
0.67013 0.1 -0.3375 0.00396039
0.67013 0.1 0.3375 0.00394084
0.574156 0.1 0.4875 0.00525131
0.574156 0.1 -0.4875 0.00527484
0.756814 0.1 -0.0375 0.00305759
0.756814 0.1 0.0375 0.00305468
0.150379 0.1 0.746002 0.0122286
0.150379 0.1 -0.75 0.0122543
0.756814 0.1 -0.1125 0.00308156
0.756814 0.1 0.1125 0.00307346
0 0.1 0.76799 0.00513898
0 0.1 -0.76799 0.00515224
0.0363518 0.1 0.76799 0.00809484
0.0363518 0.1 -0.76799 0.0081344
0.623803 0.1 -0.45 0.00466128
0.623803 0.1 0.45 0.00463692
0.714971 0.1 0.3 0.0035492
0.714971 0.1 -0.3 0.00356586
0.756814 0.1 -0.1875 0.00312479
0.756814 0.1 0.1875 0.00311178
0.67013 0.1 -0.4125 0.00407699
0.67013 0.1 0.4125 0.00405275
0.411108 0.1 -0.675 0.0087704
0.411108 0.1 0.675 0.0088012
0.467897 0.1 -0.6375 0.00740694
0.467897 0.1 0.6375 0.00742721
0.0757758 0.1 -0.7875 0.0113416
0.0757758 0.1 0.7875 0.0112749
0.350249 0.1 0.7125 0.0101746
0.350249 0.1 -0.7125 0.01014
0.522864 0.1 -0.6 0.00643073
0.522864 0.1 0.6 0.00642423
0.797314 0.1 -2.86229e-17 0.00281412
0.287374 0.1 0.746002 0.0116031
0.797314 0.1 -0.075 0.00282688
0.797314 0.1 0.075 0.0028213
0.756814 0.1 0.2625 0.00317025
0.756814 0.1 -0.2625 0.00318888
0.287374 0.1 -0.75 0.0115497
0.574156 0.1 -0.5625 0.0054731
0.574156 0.1 0.5625 0.00544949
0 0.1 0.80701 0.00512325
0 0.1 -0.80701 0.00513563
0.714971 0.1 -0.375 0.00366297
0.714971 0.1 0.375 0.00364194
0.0363518 0.1 -0.80701 0.00811779
0.0363518 0.1 0.80701 0.00807911
0.797314 0.1 -0.15 0.00285845
0.797314 0.1 0.15 0.00284781
0.623803 0.1 -0.525 0.00483179
0.623803 0.1 0.525 0.00480493
0.219992 0.1 0.7875 0.0128789
0.219992 0.1 -0.7875 0.0128701
0.149792 0.1 0.80701 0.0120378
0 0.1 0.825 0.00511709
0 0.1 -0.825 0.00512905
0.797314 0.1 -0.225 0.00290862
0.797314 0.1 0.225 0.00289285
0.756814 0.1 -0.3375 0.00326519
0.756814 0.1 0.3375 0.00325089
0.67013 0.1 -0.4875 0.00422234
0.67013 0.1 0.4875 0.00419391
0.835107 0.1 -0.0375 0.00258056
0.835107 0.1 0.0375 0.00257758
0.150379 0.1 -0.825 0.0120172
0.835107 0.1 -0.1125 0.00260175
0.835107 0.1 0.1125 0.00259344
0 0.1 0.84299 0.00511023
0 0.1 -0.84299 0.00512176
0.0363518 0.1 0.84299 0.00796434
0.0363518 0.1 -0.84299 0.00800041
0.714971 0.1 -0.45 0.00378742
0.714971 0.1 0.45 0.00375975
0.411108 0.1 0.746002 0.00895024
0.797314 0.1 -0.3 0.00297631
0.797314 0.1 0.3 0.0029579
0.467897 0.1 -0.7125 0.00758406
0.467897 0.1 0.7125 0.00761136
0.522864 0.1 0.675 0.00664258
0.522864 0.1 -0.675 0.00664424
0.411108 0.1 -0.75 0.00890854
0.835107 0.1 -0.1875 0.00263978
0.835107 0.1 0.1875 0.00262663
0.286844 0.1 0.80701 0.011528
0.574156 0.1 0.6375 0.00567508
0.574156 0.1 -0.6375 0.00569891
0.350249 0.1 -0.7875 0.0102286
0.350249 0.1 0.7875 0.0102536
0.756814 0.1 0.4125 0.00334598
0.756814 0.1 -0.4125 0.00337207
0.623803 0.1 -0.6 0.00503086
0.623803 0.1 0.6 0.00500214
0.0757758 0.1 0.8625 0.0110379
0.0757758 0.1 -0.8625 0.0110994
0.871687 0.1 -1.73472e-17 0.00239907
0.287374 0.1 -0.825 0.0115025
0.871687 0.1 -0.075 0.00241047
0.871687 0.1 0.075 0.00240491
0.67013 0.1 -0.5625 0.00439511
0.67013 0.1 0.5625 0.00436348
0.835107 0.1 0.2625 0.00267701
0.835107 0.1 -0.2625 0.00269529
0.797314 0.1 -0.375 0.00306255
0.797314 0.1 0.375 0.00303977
0 0.1 0.88201 0.00509863
0 0.1 -0.88201 0.00510917
0.0363518 0.1 0.88201 0.00795274
0.0363518 0.1 -0.88201 0.00798782
0.871687 0.1 0.15 0.00242759
0.871687 0.1 -0.15 0.00243822
0.714971 0.1 -0.525 0.00393753
0.714971 0.1 0.525 0.00390557
0.219992 0.1 0.8625 0.0126714
0.219992 0.1 -0.8625 0.0126801
0 0.1 0.9 0.00509453
0 0.1 -0.9 0.00510457
0.756814 0.1 -0.4875 0.00350151
0.756814 0.1 0.4875 0.00346966
0.871687 0.1 -0.225 0.00248194
0.871687 0.1 0.225 0.00246642
0.835107 0.1 -0.3375 0.0027703
0.835107 0.1 0.3375 0.00274797
0.410629 0.1 0.80701 0.00904944
0.905821 0.1 -0.0375 0.00222508
0.905821 0.1 0.0375 0.00222217
0.522864 0.1 0.746002 0.00687255
0.150379 0.1 0.9 0.0117878
0.905821 0.1 0.1125 0.00223561
0.905821 0.1 -0.1125 0.00224365
0.522864 0.1 -0.75 0.00687393
0.574156 0.1 -0.7125 0.00595178
0.574156 0.1 0.7125 0.00592379
0.797314 0.1 -0.45 0.00317134
0.797314 0.1 0.45 0.00314189
0.467897 0.1 0.7875 0.00780245
0.467897 0.1 -0.7875 0.0077872
0.150379 0.1 -0.903998 0.011859
0 0.1 0.91799 0.00508968
0 0.1 -0.91799 0.00509922
0.0363518 0.1 0.91799 0.00786606
0.0363518 0.1 -0.91799 0.00789863
0.623803 0.1 -0.675 0.00525746
0.623803 0.1 0.675 0.00522539
0.411108 0.1 -0.825 0.00907575
0.871687 0.1 -0.3 0.00254335
0.871687 0.1 0.3 0.0025227
0.67013 0.1 0.6375 0.00456011
0.67013 0.1 -0.6375 0.00459552
0.905821 0.1 -0.1875 0.00227695
0.905821 0.1 0.1875 0.00226393
0.350249 0.1 0.8625 0.0103503
0.350249 0.1 -0.8625 0.0103407
0.835107 0.1 -0.4125 0.00285736
0.835107 0.1 0.4125 0.00282912
0.714971 0.1 -0.6 0.00411383
0.714971 0.1 0.6 0.00407783
0.93886 0.1 -1.25767e-17 0.00212546
0.0757758 0.1 0.9375 0.0108589
0.0757758 0.1 -0.9375 0.0109153
0.93886 0.1 -0.075 0.00213552
0.93886 0.1 0.075 0.00213052
0.756814 0.1 -0.5625 0.00365497
0.756814 0.1 0.5625 0.0036192
0.905821 0.1 -0.2625 0.00232515
0.905821 0.1 0.2625 0.00230751
0.287374 0.1 0.9 0.011474
0.287374 0.1 -0.903998 0.0114571
0.871687 0.1 -0.375 0.0026185
0.871687 0.1 0.375 0.00259552
0.93886 0.1 -0.15 0.00215983
0.93886 0.1 0.15 0.00215029
0.797314 0.1 -0.525 0.00330349
0.797314 0.1 0.525 0.00326977
0 0.1 0.95701 0.00508227
0 0.1 -0.95701 0.00509087
0.0363518 0.1 0.95701 0.00785865
0.0363518 0.1 -0.95701 0.00789028
0.522432 0.1 0.80701 0.00705642
0.219992 0.1 0.9375 0.0125015
0.219992 0.1 -0.9375 0.0125266
0.93886 0.1 -0.225 0.00219801
0.93886 0.1 0.225 0.00218415
0.905821 0.1 -0.3375 0.00239227
0.905821 0.1 0.3375 0.00236795
0.835107 0.1 0.4875 0.00293813
0.835107 0.1 -0.4875 0.0029697
0.96969 0.1 -0.0375 0.0020306
0.96969 0.1 0.0375 0.00202809
0.61613 0.1 0.75 0.0054739
0.574156 0.1 0.7875 0.00619741
0.574156 0.1 -0.7875 0.00623334
0 0.1 0.975 0.00508019
0 0.1 -0.975 0.00508842
0.623803 0.1 -0.75 0.00551214
0.96969 0.1 -0.1125 0.00204687
0.96969 0.1 0.1125 0.00204031
0.522864 0.1 -0.825 0.00713489
0.67013 0.1 -0.7125 0.00482372
0.67013 0.1 0.7125 0.00478313
0.871687 0.1 -0.45 0.00271229
0.871687 0.1 0.45 0.0026857
0.467897 0.1 -0.8625 0.00804591
0.467897 0.1 0.8625 0.00803677
0.714971 0.1 -0.675 0.00431716
0.714971 0.1 0.675 0.004276
0.93886 0.1 -0.3 0.00225159
0.93886 0.1 0.3 0.00223275
0.150379 0.1 0.975 0.0116381
0.150379 0.1 -0.975 0.011681
0.96969 0.1 -0.1875 0.00207605
0.96969 0.1 0.1875 0.00206545
0.411108 0.1 0.9 0.0092696
0.756814 0.1 -0.6375 0.00383424
0.756814 0.1 0.6375 0.00379324
0.990306 0.1 0 0.00195244
0 0.1 0.99299 0.00507733
0 0.1 -0.99299 0.00508517
0.411108 0.1 -0.903998 0.00923183
0.990306 0.1 -0.075 0.00196138
0.990306 0.1 0.075 0.00195698
0.0363518 0.1 0.99299 0.00779725
0.0363518 0.1 -0.99299 0.00782654
0.905821 0.1 -0.4125 0.00246399
0.905821 0.1 0.4125 0.00244685
0.797314 0.1 -0.6 0.00345944
0.797314 0.1 0.6 0.00342076
0.350249 0.1 0.9375 0.0104684
0.350249 0.1 -0.9375 0.0104645
0.990306 0.1 -0.15 0.00198315
0.990306 0.1 0.15 0.00197484
0.96969 0.1 -0.2625 0.00211819
0.96969 0.1 0.2625 0.00210393
0.835107 0.1 -0.5625 0.00310362
0.835107 0.1 0.5625 0.00306793
0.93886 0.1 -0.375 0.00231757
0.93886 0.1 0.375 0.00229774
0.0757758 0.1 1.0125 0.0107318
0.0757758 0.1 -1.0125 0.0107834
0.990306 0.1 -0.225 0.00201764
0.990306 0.1 0.225 0.00200557
0.287374 0.1 -0.975 0.0114815
0.287374 0.1 0.975 0.0114653
0.871687 0.1 -0.525 0.00283109
0.871687 0.1 0.525 0.00279712
1.02149 0.1 -0.0369628 0.00180857
1.02149 0.1 0.0369628 0.00180635
0.96969 0.1 0.3375 0.00215601
0.96969 0.1 -0.3375 0.00217523
1.02149 0.1 -0.110888 0.00182203
1.02149 0.1 0.110888 0.00181612
0.905821 0.1 -0.4875 0.00256836
0.905821 0.1 0.4875 0.00253876
0.623803 0.1 0.819003 0.00563507
0 0.1 1.03201 0.00507404
0 0.1 -1.03201 0.00508106
0.0363518 0.1 1.03201 0.00779396
0.0363518 0.1 -1.03201 0.00782243
0.67013 0.1 -0.7875 0.00508066
0.67013 0.1 0.7875 0.00503266
0.623803 0.1 -0.825 0.00579305
0.990306 0.1 0.3 0.00204953
0.990306 0.1 -0.3 0.00206578
0.219992 0.1 1.0125 0.0123786
0.219992 0.1 -1.0125 0.0124179
0.574156 0.1 0.8625 0.00649555
0.574156 0.1 -0.8625 0.00653177
0.714971 0.1 -0.75 0.00454821
0.714971 0.1 0.75 0.00450012
1.02149 0.1 -0.184814 0.00184715
1.02149 0.1 0.184814 0.00183768
0.756814 0.1 -0.7125 0.00404042
0.756814 0.1 0.7125 0.00399297
0.522864 0.1 0.9 0.00739583
0.93886 0.1 -0.45 0.00240767
0.93886 0.1 0.45 0.00237773
1.04168 0.1 0 0.00173878
1.04168 0.1 -0.0729162 0.00174574
1.04168 0.1 0.0729162 0.00174197
0.522864 0.1 -0.903998 0.00737464
0.797314 0.1 -0.675 0.00364118
0.797314 0.1 0.675 0.00359596
0.467897 0.1 0.9375 0.00831699
0.467897 0.1 -0.9375 0.00834583
0 0.1 1.05 0.00507397
0 0.1 -1.05 0.00508058
0.835107 0.1 -0.6375 0.00326143
0.835107 0.1 0.6375 0.00321917
1.04168 0.1 -0.145832 0.00176255
1.04168 0.1 0.145832 0.00175549
1.02149 0.1 -0.25874 0.00188433
1.02149 0.1 0.25874 0.00187125
0.96969 0.1 -0.4125 0.00224342
0.96969 0.1 0.4125 0.00222476
0.411108 0.1 0.975 0.00947856
0.411108 0.1 -0.975 0.00949656
0.871687 0.1 -0.6 0.00297203
0.871687 0.1 0.6 0.00293123
1.0579 0.1 -0.0360525 0.00169024
1.0579 0.1 0.0360525 0.00168822
0.990306 0.1 -0.375 0.0021276
0.990306 0.1 0.375 0.00210852
0.150379 0.1 1.05 0.0115354
0.150379 0.1 -1.05 0.011583
1.0579 0.1 -0.108157 0.00170082
1.0579 0.1 0.108157 0.00169549
1.04168 0.1 -0.218749 0.00178968
1.04168 0.1 0.218749 0.00177931
0.905821 0.1 -0.5625 0.00269316
0.905821 0.1 0.5625 0.00265413
0 0.1 1.06799 0.00507304
0 0.1 -1.06799 0.00507926
0.0363518 0.1 -1.06799 0.00778094
0.0363518 0.1 1.06799 0.00775472
0.350249 0.1 1.0125 0.0105966
0.350249 0.1 -1.0125 0.0106022
1.0579 0.1 -0.180262 0.00171994
1.0579 0.1 0.180262 0.00171138
1.02149 0.1 0.332665 0.00191756
1.02149 0.1 -0.332665 0.00193472
0.93886 0.1 -0.525 0.00252201
0.93886 0.1 0.525 0.00248283
1.08012 0.1 4.48137e-18 0.00163309
1.04168 0.1 -0.291665 0.0018279
1.04168 0.1 0.291665 0.001814
1.08012 0.1 -0.0709942 0.00163891
1.08012 0.1 0.0709942 0.00163559
0.96969 0.1 -0.4875 0.00235944
0.96969 0.1 0.4875 0.00230539
1.0579 0.1 -0.252367 0.00174851
1.0579 0.1 0.252367 0.00173656
0.990306 0.1 -0.45 0.00221577
0.990306 0.1 0.45 0.00218241
0.287374 0.1 1.05 0.0114864
0.287374 0.1 -1.05 0.0115138
0.714971 0.1 0.821002 0.00472461
1.08012 0.1 0.141988 0.00164637
1.08012 0.1 -0.141988 0.00165254
0.0757758 0.1 -1.0875 0.0106975
0.0757758 0.1 1.0875 0.0106503
0.714971 0.1 -0.825 0.0048097
0.756814 0.1 -0.7875 0.00427403
0.756814 0.1 0.7875 0.00421798
0.67013 0.1 -0.8625 0.00536805
0.67013 0.1 0.8625 0.00531097
0.797314 0.1 -0.75 0.00384996
0.797314 0.1 0.75 0.0037968
0.623803 0.1 0.9 0.00604346
0.835107 0.1 -0.7125 0.0034458
0.835107 0.1 0.7125 0.00339569
0.623803 0.1 -0.903998 0.00604767
0.574156 0.1 0.9375 0.00679319
0.574156 0.1 -0.9375 0.0068165
1.02149 0.1 -0.406591 0.00200117
1.02149 0.1 0.406591 0.0019794
1.08012 0.1 -0.212982 0.00167442
1.08012 0.1 0.212982 0.00166534
1.10076 0.1 -0.034981 0.0015829
1.10076 0.1 0.034981 0.00158122
0.871687 0.1 -0.675 0.00313822
0.871687 0.1 0.675 0.00308937
1.04168 0.1 -0.364581 0.00187934
1.04168 0.1 0.364581 0.00186132
1.10076 0.1 0.104943 0.00158793
1.10076 0.1 -0.104943 0.00159217
0.522864 0.1 0.975 0.00768766
0.522864 0.1 -0.975 0.00772138
1.0579 0.1 0.324472 0.0017718
1.0579 0.1 -0.324472 0.00178743
0 0.1 1.10701 0.00507364
0 0.1 -1.10701 0.00507899
0.0363518 0.1 -1.10701 0.00778067
0.0363518 0.1 1.10701 0.00775531
0.905821 0.1 -0.6375 0.00284062
0.905821 0.1 0.6375 0.00279451
0.219992 0.1 -1.0875 0.0123515
0.219992 0.1 1.0875 0.0122991
0.93886 0.1 -0.6 0.00265069
0.93886 0.1 0.6 0.00261156
1.10076 0.1 0.174905 0.001602
1.10076 0.1 -0.174905 0.00160872
0.467897 0.1 1.0125 0.00861976
0.467897 0.1 -1.0125 0.00866005
1.08012 0.1 -0.283977 0.0017053
1.08012 0.1 0.283977 0.00169317
1.11929 0.1 1.20274e-17 0.00154385
0.990306 0.1 -0.525 0.00232456
0.990306 0.1 0.525 0.00228527
0.96969 0.1 -0.5625 0.00247161
0.96969 0.1 0.5625 0.00243782
1.11929 0.1 0.0690357 0.0015461
1.11929 0.1 -0.0690357 0.00154892
0 0.1 1.125 0.00507536
0 0.1 -1.125 0.00508029
0.411108 0.1 1.05 0.00970898
0.411108 0.1 -1.05 0.00973691
1.10076 0.1 -0.244867 0.0016336
1.10076 0.1 0.244867 0.00162423
1.11929 0.1 -0.138071 0.00156075
1.11929 0.1 0.138071 0.00155556
1.02149 0.1 0.480517 0.00205771
1.02149 0.1 -0.480517 0.00208952
1.0579 0.1 -0.396577 0.00184035
1.0579 0.1 0.396577 0.00181958
1.04168 0.1 -0.437497 0.00194703
1.04168 0.1 0.437497 0.00192315
0.150379 0.1 1.125 0.0114746
0.150379 0.1 -1.125 0.011525
0.714971 0.1 0.88201 0.00476197
1.08012 0.1 -0.354971 0.00174727
1.08012 0.1 0.354971 0.00173129
1.11929 0.1 0.207107 0.00157212
1.11929 0.1 -0.207107 0.00157971
0.350249 0.1 1.0875 0.0107442
0.350249 0.1 -1.0875 0.0107579
0 0.1 -1.14299 0.00508068
0 0.1 1.14299 0.00507617
0.0363518 0.1 1.14299 0.00773383
0.0363518 0.1 -1.14299 0.00775658
1.14316 0.1 0.0339211 0.00148883
1.14316 0.1 -0.0339211 0.0014903
0.797314 0.1 0.821002 0.00401922
1.10076 0.1 -0.314829 0.00166705
1.10076 0.1 0.314829 0.00165509
0.797314 0.1 -0.825 0.00408879
0.756814 0.1 0.8625 0.00447167
0.756814 0.1 -0.8625 0.00454266
1.14316 0.1 0.101763 0.00149414
1.14316 0.1 -0.101763 0.00149791
0.835107 0.1 -0.7875 0.00365741
0.835107 0.1 0.7875 0.00359846
0.871687 0.1 -0.75 0.00333184
0.871687 0.1 0.75 0.00327387
0.67013 0.1 0.9375 0.00561647
0.67013 0.1 -0.9375 0.00568413
0.905821 0.1 -0.7125 0.00301602
0.905821 0.1 0.7125 0.00295924
0.714971 0.1 -0.903998 0.00506392
1.11929 0.1 -0.276143 0.00160644
1.11929 0.1 0.276143 0.00159642
1.14316 0.1 -0.169605 0.00151136
1.14316 0.1 0.169605 0.00150542
0.93886 0.1 -0.675 0.00279788
0.93886 0.1 0.675 0.00275401
1.15704 0.1 0 0.00146183
1.0579 0.1 -0.468682 0.00190764
1.0579 0.1 0.468682 0.00188173
0.623803 0.1 0.975 0.00634966
0.623803 0.1 -0.975 0.00640285
0.990306 0.1 -0.6 0.00244121
0.990306 0.1 0.6 0.00240607
1.15704 0.1 -0.0671479 0.00146611
1.15704 0.1 0.0671479 0.00146369
1.04168 0.1 -0.510414 0.00203271
1.04168 0.1 0.510414 0.00200358
0.96969 0.1 -0.6375 0.00260225
0.96969 0.1 0.6375 0.00256451
1.08012 0.1 -0.425965 0.00180182
1.08012 0.1 0.425965 0.00178164
0.287374 0.1 1.125 0.0115492
0.287374 0.1 -1.125 0.0115874
1.02149 0.1 -0.554442 0.00219213
1.02149 0.1 0.554442 0.00216192
0.574156 0.1 1.0125 0.0070802
0.574156 0.1 -1.0125 0.00712271
1.15704 0.1 -0.134296 0.00147596
1.15704 0.1 0.134296 0.00147157
0.0757758 0.1 -1.1625 0.0106474
0.0757758 0.1 1.1625 0.0106055
1.10076 0.1 -0.384791 0.00171236
1.10076 0.1 0.384791 0.0016964
1.14316 0.1 -0.237448 0.00153156
1.14316 0.1 0.237448 0.00152333
1.11929 0.1 0.345179 0.00162951
1.11929 0.1 -0.345179 0.0016426
0.522864 0.1 1.05 0.00800069
0.522864 0.1 -1.05 0.00805263
1.15704 0.1 -0.201444 0.00149168
1.15704 0.1 0.201444 0.00148531
1.1744 0.1 -0.0331401 0.00143019
1.1744 0.1 0.0331401 0.00142887
1.1744 0.1 0.0994203 0.00143356
1.1744 0.1 -0.0994203 0.00143678
0 0.1 1.18201 0.00508026
0 0.1 -1.18201 0.00508396
0.0363518 0.1 -1.18201 0.00775986
0.0363518 0.1 1.18201 0.00773792
0.219992 0.1 -1.1625 0.0123211
0.219992 0.1 1.1625 0.0122617
1.14316 0.1 -0.30529 0.00155885
1.14316 0.1 0.30529 0.0015484
0.467897 0.1 -1.0875 0.00900579
0.467897 0.1 1.0875 0.00895517
1.1744 0.1 -0.1657 0.00144831
1.1744 0.1 0.1657 0.00144333
1.15704 0.1 -0.268592 0.00151381
1.15704 0.1 0.268592 0.00150552
1.0579 0.1 0.540787 0.00196115
1.0579 0.1 -0.540787 0.00199288
0.796996 0.1 0.88201 0.00421726
1.08012 0.1 0.496959 0.00184596
1.08012 0.1 -0.496959 0.00187217
1.10076 0.1 -0.454752 0.00176847
1.10076 0.1 0.454752 0.00174976
1.11929 0.1 -0.414214 0.00168933
1.11929 0.1 0.414214 0.00167316
1.04168 0.1 -0.58333 0.00212494
1.04168 0.1 0.58333 0.00209461
1.1744 0.1 -0.231981 0.00146563
1.1744 0.1 0.231981 0.00145877
0.871687 0.1 0.821002 0.00347574
0.411108 0.1 1.125 0.00996918
0.411108 0.1 -1.125 0.010007
1.19808 0.1 0 0.00138106
0.990306 0.1 -0.675 0.00257353
0.990306 0.1 0.675 0.00253517
1.02149 0.1 0.628368 0.00226257
1.02149 0.1 -0.628368 0.00229984
1.19808 0.1 0.0650961 0.00138263
1.19808 0.1 -0.0650961 0.00138483
0 0.1 1.2 0.00508363
0 0.1 -1.2 0.00508697
0.871687 0.1 -0.825 0.00354689
0.905821 0.1 -0.7875 0.00321937
0.905821 0.1 0.7875 0.00315351
0.835107 0.1 0.8625 0.00382811
0.835107 0.1 -0.8625 0.0038996
0.93886 0.1 -0.75 0.00296562
0.93886 0.1 0.75 0.00291315
1.14316 0.1 -0.373132 0.00159568
1.14316 0.1 0.373132 0.00158197
0.96969 0.1 -0.7125 0.00273821
0.96969 0.1 0.7125 0.00270301
1.15704 0.1 -0.33574 0.00154368
1.15704 0.1 0.33574 0.00153301
0.756814 0.1 0.9375 0.00476159
0.756814 0.1 -0.9375 0.00484569
1.19808 0.1 -0.130192 0.00139331
1.19808 0.1 0.130192 0.00138939
0.797314 0.1 -0.903998 0.00432398
0.714971 0.1 -0.975 0.0054273
0.714971 0.1 0.975 0.00534612
0.150379 0.1 -1.2 0.0115005
0.150379 0.1 1.2 0.0114502
1.20938 0.1 -0.0322656 0.00136232
1.20938 0.1 0.0322656 0.00136105
1.1744 0.1 -0.298261 0.00148882
1.1744 0.1 0.298261 0.0014804
1.20938 0.1 -0.0967968 0.00136839
1.20938 0.1 0.0967968 0.00136537
1.19808 0.1 0.195288 0.00140107
1.19808 0.1 -0.195288 0.00140666
0.350249 0.1 -1.1625 0.0109822
0.350249 0.1 1.1625 0.0109535
0.67013 0.1 -1.0125 0.00602753
0.67013 0.1 1.0125 0.00594969
0 0.1 1.21799 0.00508603
0 0.1 -1.21799 0.005089
0.0363518 0.1 1.21799 0.00773102
0.0363518 0.1 -1.21799 0.00775024
1.11929 0.1 -0.48325 0.00174994
1.11929 0.1 0.48325 0.00172786
1.10076 0.1 -0.524714 0.00184315
1.10076 0.1 0.524714 0.00181491
1.20938 0.1 0.161328 0.00137418
1.20938 0.1 -0.161328 0.00137874
1.08012 0.1 -0.567953 0.00194768
1.08012 0.1 0.567953 0.00192305
0.623803 0.1 1.05 0.00667524
0.623803 0.1 -1.05 0.00674337
1.0579 0.1 0.612892 0.00204394
1.0579 0.1 -0.612892 0.0020737
1.15704 0.1 -0.402888 0.0015823
1.15704 0.1 0.402888 0.00156936
1.14316 0.1 -0.440974 0.00164206
1.14316 0.1 0.440974 0.00162584
1.19808 0.1 -0.260384 0.00142524
1.19808 0.1 0.260384 0.00141813
1.2267 0.1 0 0.00132862
1.2267 0.1 -0.0636648 0.00133226
1.2267 0.1 0.0636648 0.00133007
1.1744 0.1 -0.364541 0.0015202
1.1744 0.1 0.364541 0.00150913
0.574156 0.1 -1.0875 0.00748169
0.574156 0.1 1.0875 0.00740763
1.20938 0.1 0.225859 0.0013879
1.20938 0.1 -0.225859 0.00139413
1.04168 0.1 -0.656246 0.0022337
1.04168 0.1 0.656246 0.00219733
1.2267 0.1 -0.12733 0.00134031
1.2267 0.1 0.12733 0.00133645
0.287374 0.1 -1.2 0.0117192
0.287374 0.1 1.2 0.0116702
1.02149 0.1 -0.702294 0.00244096
1.02149 0.1 0.702294 0.00239603
0.0757758 0.1 1.2375 0.0105908
0.0757758 0.1 -1.2375 0.010627
0.871399 0.1 0.88201 0.00365513
0.522864 0.1 -1.125 0.00840559
0.522864 0.1 1.125 0.00834039
1.2267 0.1 -0.190995 0.00135281
1.2267 0.1 0.190995 0.00134736
1.19808 0.1 -0.32548 0.00144997
1.19808 0.1 0.32548 0.00144111
0.990306 0.1 -0.75 0.00272532
0.990306 0.1 0.75 0.00267873
1.24275 0.1 -0.0314313 0.00129859
1.24275 0.1 0.0314313 0.00129731
1.20938 0.1 -0.29039 0.00141444
1.20938 0.1 0.29039 0.00140704
1.24275 0.1 -0.0942939 0.00130447
1.24275 0.1 0.0942939 0.00130138
0.93886 0.1 0.821002 0.00308719
1.11929 0.1 -0.552286 0.00181542
1.11929 0.1 0.552286 0.00179674
1.15704 0.1 -0.470036 0.00163214
1.15704 0.1 0.470036 0.00161471
0.96969 0.1 -0.7875 0.00289551
0.96969 0.1 0.7875 0.00284306
0.93886 0.1 -0.825 0.00315528
0.905821 0.1 -0.8625 0.00342306
0.905821 0.1 0.8625 0.00335722
1.1744 0.1 -0.430821 0.00155925
1.1744 0.1 0.430821 0.00154682
1.10076 0.1 -0.594676 0.00190959
1.10076 0.1 0.594676 0.00189893
1.14316 0.1 -0.508816 0.0017028
1.14316 0.1 0.508816 0.00167939
1.24275 0.1 -0.157157 0.00131429
1.24275 0.1 0.157157 0.00130971
1.2267 0.1 -0.254659 0.00137005
1.2267 0.1 0.254659 0.00136321
0.467897 0.1 -1.1625 0.00935523
0.467897 0.1 1.1625 0.00929755
1.08012 0.1 -0.638947 0.00203458
1.08012 0.1 0.638947 0.00200732
1.25511 0.1 0 0.00127446
0.835107 0.1 -0.9375 0.00416922
0.835107 0.1 0.9375 0.00408803
0.871687 0.1 -0.903998 0.00376208
1.25511 0.1 -0.0622446 0.00127809
1.25511 0.1 0.0622446 0.00127575
0.219992 0.1 -1.2375 0.0123231
0.219992 0.1 1.2375 0.0122606
0 0.1 -1.25701 0.0050957
0 0.1 1.25701 0.00509319
0.0363518 0.1 1.25701 0.00773818
0.0363518 0.1 -1.25701 0.00775695
0.797314 0.1 0.975 0.00457312
0.797314 0.1 -0.975 0.00466302
1.19808 0.1 -0.390576 0.00148186
1.19808 0.1 0.390576 0.0014712
1.0579 0.1 0.684997 0.0021467
1.0579 0.1 -0.684997 0.00218589
1.20938 0.1 -0.354921 0.00144143
1.20938 0.1 0.354921 0.001432
1.25511 0.1 -0.124489 0.00128591
1.25511 0.1 0.124489 0.00128179
1.24275 0.1 -0.220019 0.00132869
1.24275 0.1 0.220019 0.0013225
0.756814 0.1 -1.0125 0.00517921
0.756814 0.1 1.0125 0.00508463
1.2267 0.1 -0.318324 0.00139263
1.2267 0.1 0.318324 0.00138435
0.411108 0.1 -1.2 0.0103099
0.411108 0.1 1.2 0.0102574
1.25511 0.1 0.186734 0.00129211
1.25511 0.1 -0.186734 0.00129792
0.714971 0.1 1.05 0.00568464
0.714971 0.1 -1.05 0.00577439
1.04168 0.1 -0.729162 0.00237459
1.04168 0.1 0.729162 0.00232704
1.24275 0.1 0.282882 0.00134026
1.24275 0.1 -0.282882 0.00134747
0 0.1 1.275 0.00509796
0 0.1 -1.275 0.0051004
1.1744 0.1 -0.497101 0.00161019
1.1744 0.1 0.497101 0.00159185
1.15704 0.1 -0.537184 0.00168948
1.15704 0.1 0.537184 0.00167355
1.2756 0.1 -0.0306099 0.00123426
1.2756 0.1 0.0306099 0.00123297
0.67013 0.1 -1.0875 0.00638091
0.67013 0.1 1.0875 0.00630319
1.2756 0.1 0.0918298 0.00123672
1.2756 0.1 -0.0918298 0.00123996
1.25511 0.1 -0.248978 0.00131437
1.25511 0.1 0.248978 0.00130708
1.20938 0.1 0.419453 0.0014646
1.20938 0.1 -0.419453 0.00147546
1.11929 0.1 -0.621321 0.00189064
1.11929 0.1 0.621321 0.00187122
1.14316 0.1 -0.576658 0.00176012
1.14316 0.1 0.576658 0.00174788
1.19808 0.1 -0.455672 0.00152369
1.19808 0.1 0.455672 0.0015086
1.02149 0.1 0.776219 0.0025532
1.02149 0.1 -0.776219 0.00260988
0.150379 0.1 1.275 0.0114567
0.150379 0.1 -1.275 0.011505
1.2756 0.1 -0.15305 0.0012494
1.2756 0.1 0.15305 0.00124459