# nutMean  POINT_DATA 91129
# x  y  z  nutMean
0 0 0 5.05768e-06
0 0.00368111 0 1.85572e-05
0 0.00749587 0 7.40431e-05
0 0.0114491 0 0.000273846
0 0.0155459 0 0.000713284
0 0.0197915 0 0.00182852
0 0.0241911 0 0.00272503
0 0.0287506 0 0.00302893
0 0.0334755 0 0.0034355
0 0.038372 0 0.00371852
0 0.0434463 0 0.00392015
0 0.0487048 0 0.0040777
0 0.0541543 0 0.00421321
0 0.0598016 0 0.0043416
0 0.0656539 0 0.00447305
0 0.0717187 0 0.00460975
0.0757758 0.00184056 0 9.05866e-06
0.0757758 0.00558849 3.46945e-18 1.32707e-05
0.0757758 0.0094725 0 6.32918e-05
0.0757758 0.0134975 0 0.0002989
0.0757758 0.0176687 0 0.00085928
0 0.0780037 0 0.00474979
0.0757758 0.0219913 0 0.00173727
0.0757758 0.0264709 0 0.00293925
0.0757758 0.031113 3.46945e-18 0.00443816
0.0757758 0.0359238 -3.46945e-18 0.00617976
0 0.0845169 0 0.00489267
0.0757758 0.0409092 0 0.00809751
0.0757758 0.0460756 0 0.0101212
0 0.0912666 0 0.00503852
0.0757758 0.0514296 3.46945e-18 0.0121809
0.0757758 0.0569779 0 0.0142011
0 0.0982613 0 0.00518665
0.0757758 0.0627277 0 0.0151528
0.0757758 0.0686863 0 0.0156357
0 0.10551 0 0.00533551
0.0757758 0.0748612 3.46945e-18 0.0161743
0.0757758 0.0812603 3.46945e-18 0.0167737
0 0.113022 0 0.00548309
0.0757758 0.0878917 0 0.0174423
0 0.120806 0 0.00562975
0.0757758 0.0947639 -3.46945e-18 0.018193
0.0757758 0.101886 -3.46945e-18 0.0190518
0 0.128874 0 0.00578729
0.0757758 0.109266 0 0.0200715
0 0.137234 0 0.00597512
0.0757758 0.116914 -3.46945e-18 0.0213236
0 0.145897 0 0.00619835
0.0757758 0.12484 0 0.0228863
0.151552 0 0 0
0.151552 0.00368111 0 7.45325e-06
0.151552 0.00749587 0 2.5471e-05
0.151552 0.0114491 0 0.00011306
0.151552 0.0155459 0 0.000357781
0.151552 0.0197915 0 0.000815793
0.0757758 0.133054 3.46945e-18 0.0247799
0.151552 0.0241911 0 0.00150092
0.151552 0.0287506 0 0.00241276
0 0.154876 0 0.00644617
0.151552 0.0334755 0 0.00353393
0.151552 0.038372 0 0.00483567
0.151552 0.0434463 0 0.00628329
0.151552 0.0487048 0 0.00783964
0.0757758 0.141566 0 0.0266508
0.151552 0.0541543 0 0.0094651
0.151552 0.0598016 0 0.0108894
0 0.16418 0 0.00671135
0.151552 0.0656539 0 0.0120038
0.151552 0.0717187 0 0.0130712
0.0757758 0.150387 0 0.0281562
0.151552 0.0780037 0 0.0142087
0.151552 0.0845169 0 0.015404
0 0.173822 0 0.00699297
0.0757758 0.159528 3.46945e-18 0.0290439
0.151552 0.0912666 0 0.0166408
0.151552 0.0982613 0 0.0178723
0 0.183814 0 0.00728929
0.151552 0.10551 0 0.0189942
0.0757758 0.169001 0 0.0291655
0.151552 0.113022 0 0.0200589
0.151552 0.120806 0 0.0211598
0 0.194169 0 0.00759707
0.0757758 0.178818 0 0.0285724
0.151552 0.128874 0 0.0224549
0.0757758 0.188991 3.46945e-18 0.0274724
0.151552 0.137234 0 0.0239316
0 0.2049 0 0.00790995
0.151552 0.145897 0 0.0253329
0.0757758 0.199534 -3.46945e-18 0.0261065
0 0.21602 0 0.00822
0.151552 0.154876 0 0.0265082
0.219992 0.00184056 -3.46945e-18 2.59641e-06
0.219992 0.00558849 0 5.45819e-06
0.219992 0.0094725 0 2.18344e-05
0.219992 0.0134975 0 7.86821e-05
0.219992 0.0176687 0 0.000228309
0.219992 0.0219913 3.46945e-18 0.000512535
0.219992 0.0264709 3.46945e-18 0.000943417
0.219992 0.031113 0 0.00152647
0.219992 0.0359238 0 0.00226432
0.151552 0.16418 0 0.0273024
0.0757758 0.21046 0 0.0246088
0.219992 0.0409092 0 0.00315524
0.219992 0.0460756 0 0.0041938
0.219992 0.0514296 0 0.00537185
0.219992 0.0569779 3.46945e-18 0.00667948
0 0.227544 0 0.00857371
0.219992 0.0627277 0 0.00810644
0.219992 0.0686863 0 0.00964151
0.151552 0.173822 0 0.0276474
0.219992 0.0748612 -3.46945e-18 0.0112691
0.0757758 0.221782 0 0.0230531
0.219992 0.0812603 0 0.0129659
0.219992 0.0878917 0 0.0146959
0.151552 0.183814 0 0.027588
7.47804e-17 0.239487 0 0.00902909
0.219992 0.0947639 0 0.016413
0.219992 0.101886 0 0.0179466
0.0757758 0.233515 0 0.0220664
0.219992 0.109266 0 0.0189941
0.151552 0.194169 0 0.027233
0.219992 0.116914 -3.46945e-18 0.0199446
0 0.251863 0 0.00956002
0.219992 0.12484 0 0.02063
0.151552 0.2049 0 0.0266787
0.0757758 0.245675 3.46945e-18 0.0216875
0.219992 0.133054 0 0.0217352
0.219992 0.141566 0 0.0228343
0.151552 0.21602 0 0.0259805
0 0.264688 0 0.0101325
0.219992 0.150387 0 0.0240082
0.0757758 0.258276 3.46945e-18 0.0214825
0.219992 0.159528 0 0.0251455
0.151552 0.227544 0 0.0253095
0.219992 0.169001 0 0.0261314
0 0.27798 0 0.0107479
0.0757758 0.271334 0 0.0214106
0.151552 0.239487 3.70074e-18 0.02483
0.219992 0.178818 0 0.0269075
0.288433 0 0 0
0.288433 0.00368111 0 3.07997e-06
0.288433 0.00749587 0 1.14131e-05
0.288433 0.0114491 0 3.97937e-05
0.288433 0.0155459 3.70074e-18 0.000115453
0.288433 0.0197915 0 0.00027903
0.288433 0.0241911 3.70074e-18 0.000556446
0.288433 0.0287506 0 0.000957164
0.219992 0.188991 0 0.0274661
0.288433 0.0334755 0 0.00148869
0.288433 0.038372 0 0.00215293
0.288433 0.0434463 0 0.00294886
7.47804e-17 0.291753 0 0.0114089
0.288433 0.0487048 0 0.00387293
0.288433 0.0541543 0 0.00491933
0.151552 0.251863 0 0.024458
0.288433 0.0598016 3.70074e-18 0.00608033
0.0757758 0.284866 -3.46945e-18 0.0214789
0.288433 0.0656539 3.70074e-18 0.00734606
0.219992 0.199534 0 0.0278188
0.288433 0.0717187 0 0.00870297
0.288433 0.0780037 0 0.0101314
0.288433 0.0845169 0 0.0115505
0.288433 0.0912666 0 0.0126507
0.219992 0.21046 0 0.0279782
0.288433 0.0982613 0 0.0134222
0.151552 0.264688 3.70074e-18 0.0241028
0 0.306027 0 0.0121497
0.288433 0.10551 0 0.0140725
0.0757758 0.29889 -3.46945e-18 0.0216748
0.288433 0.113022 0 0.0146578
0.219992 0.221782 0 0.0279524
0.288433 0.120806 0 0.0151759
0.288433 0.128874 0 0.01569
0.151552 0.27798 0 0.0238645
0.288433 0.137234 0 0.0162706
0 0.320819 0 0.0131646
0.219992 0.233515 0 0.0277449
0.0757758 0.313423 0 0.0221533
0.288433 0.145897 0 0.0168738
0.288433 0.154876 0 0.0174994
0.151552 0.291753 0 0.0237114
0.219992 0.245675 0 0.0273689
0.288433 0.16418 0 0.0180848
0 0.336148 0 0.014653
0.288433 0.173822 0 0.0185825
0.0757758 0.328484 0 0.0237721
0.219992 0.258276 0 0.0268532
0.151552 0.306027 0 0.0235611
0.288433 0.183814 0 0.018974
0.288433 0.194169 0 0.0192596
0.219992 0.271334 -3.46945e-18 0.0262585
0.350249 0.00184056 0 9.16918e-07
0.350249 0.00558849 0 3.48769e-06
0.350249 0.0094725 0 1.52007e-05
0.350249 0.0134975 0 4.49971e-05
0.350249 0.0176687 3.46945e-18 0.000115417
0.350249 0.0219913 0 0.000273299
0.350249 0.0264709 -3.46945e-18 0.000521753
0.350249 0.031113 -3.46945e-18 0.000877857
0 0.352034 0 0.0157959
0.350249 0.0359238 3.46945e-18 0.00134589
0.0757758 0.344091 0 0.0266364
0.350249 0.0409092 0 0.00192811
0.350249 0.0460756 0 0.00262495
0.288433 0.2049 0 0.0194447
0.350249 0.0514296 0 0.00343484
0.151552 0.320819 0 0.0236858
0.350249 0.0569779 3.46945e-18 0.00435375
0.350249 0.0627277 0 0.00537455
0.350249 0.0686863 0 0.00648623
0.350249 0.0748612 3.46945e-18 0.00767249
0.350249 0.0812603 0 0.0089099
0.219992 0.284866 0 0.0259399
0.288433 0.21602 0 0.0195334
0.350249 0.0878917 0 0.00996504
0.350249 0.0947639 0 0.00995532
0.350249 0.101886 0 0.00992534
0.350249 0.109266 3.46945e-18 0.0100694
0.288433 0.227544 0 0.0195272
0.0757758 0.360265 0 0.0261476
0 0.368496 0 0.0157083
0.151552 0.336148 0 0.0243597
0.350249 0.116914 3.46945e-18 0.0103294
0.219992 0.29889 0 0.0254258
0.370854 0.0241911 0 0.000404448
0.350249 0.12484 0 0.0105495
0.350249 0.133054 3.46945e-18 0.0106512
0.288433 0.239487 -9.25186e-19 0.0194282
0.350249 0.141566 -3.46945e-18 0.0107437
0.350249 0.150387 0 0.0108692
0.288433 0.251863 0 0.0192446
0.219992 0.313423 0 0.0247391
0.151552 0.352034 0 0.0245113
0.0757758 0.377026 -3.46945e-18 0.0235397
0.350249 0.159528 3.46945e-18 0.0110121
0 0.385557 0 0.0150636
0.350249 0.169001 3.46945e-18 0.0111571
0.288433 0.264688 0 0.018995
0.350249 0.178818 0 0.0112967
0.219992 0.328484 0 0.0239682
0.350249 0.188991 0 0.0114287
0.151552 0.368496 0 0.0232983
0.288433 0.27798 3.70074e-18 0.0187772
0.0757758 0.394396 -3.46945e-18 0.0218244
0.350249 0.199534 3.46945e-18 0.0115523
7.47804e-17 0.403236 0 0.0147658
0.219992 0.344091 0 0.023191
0.350249 0.21046 0 0.0116668
0.288433 0.291753 0 0.0185641
0.412065 9.0819e-19 0 2.4493e-22
0.412065 0.00368111 -2.31296e-18 2.07365e-06
0.412065 0.00749587 -2.31296e-18 9.22034e-06
0.412065 0.0114491 -2.31296e-18 2.77367e-05
0.412065 0.0155459 -2.31296e-18 6.92336e-05
0.412065 0.0197915 0 0.000160982
0.412065 0.0241911 0 0.000328449
0.412065 0.0264709 0 0.000455885
0.412065 0.0287506 -2.31296e-18 0.000583321
0.412065 0.0334755 -2.31296e-18 0.000934209
0.412065 0.038372 -2.31296e-18 0.00138665
0.151552 0.385557 0 0.0217392
0.412065 0.0434463 0 0.00194211
0.350249 0.221782 0 0.01177
0.412065 0.0487048 0 0.00260008
0.412065 0.0541543 0 0.0033578
0.412065 0.0569779 0 0.00378363
0.412065 0.0598016 -2.31296e-18 0.00420947
0.412065 0.0656539 -2.31296e-18 0.00514544
0.412065 0.0717187 -2.31296e-18 0.00615095
0.0757758 0.412397 0 0.0214466
0.412065 0.0780037 -2.31296e-18 0.00710734
0.288433 0.306027 0 0.0182502
0.412065 0.0845169 -2.31296e-18 0.00783337
0.350249 0.233515 0 0.0118585
0 0.421557 0 0.014823
0.412065 0.0912666 -2.31296e-18 0.008139
0.219992 0.360265 -3.46945e-18 0.0223567
0.412065 0.0982613 0 0.00816024
0.412065 0.10551 0 0.00821129
0.412065 0.113022 -2.31296e-18 0.00833713
0.350249 0.245675 3.46945e-18 0.0119287
0.412065 0.120806 0 0.00848381
0.151552 0.403236 0 0.0207236
0.288433 0.320819 0 0.0178644
0.412065 0.128874 -2.31296e-18 0.0085924
0.412065 0.137234 0 0.00867085
0.350249 0.258276 3.46945e-18 0.0119767
0.219992 0.377026 0 0.0213841
0.412065 0.145897 -2.31296e-18 0.00875638
0.0757758 0.431051 0 0.0214571
0.412065 0.154876 -2.31296e-18 0.00885429
0 0.440544 0 0.0149564
0.288433 0.336148 0 0.0174495
0.350249 0.271334 0 0.0119957
0.412065 0.16418 -2.31296e-18 0.00895644
0.412065 0.173822 -2.31296e-18 0.0090572
0.151552 0.421557 0 0.0201859
0.412065 0.183814 -2.31296e-18 0.00915407
0.350249 0.284866 0 0.0119834
0.219992 0.394396 0 0.0203516
0.288433 0.352034 3.70074e-18 0.0170125
0.412065 0.194169 0 0.00924618
0.0757758 0.450382 0 0.0215015
0.412065 0.2049 -2.31296e-18 0.00933298
0 0.46022 0 0.0151027
0.350249 0.29889 0 0.0119457
0.412065 0.21602 0 0.00941359
0.151552 0.440544 0 0.0198269
0.219992 0.412397 3.46945e-18 0.0194102
0.467897 0.00184056 -3.46945e-18 5.91144e-07
0.467897 0.00558849 0 3.31685e-06
0.288433 0.368496 0 0.0165189
0.467897 0.0094725 0 1.48937e-05
0.467897 0.0134975 3.46945e-18 3.61853e-05
0.467897 0.0176687 3.46945e-18 8.18663e-05
0.467897 0.0219913 -3.46945e-18 0.000178002
0.467897 0.0264709 -3.46945e-18 0.000350378
0.467897 0.031113 3.46945e-18 0.000599544
0.467897 0.0359238 0 0.000938325
0.467897 0.038372 0 0.00119917
0.467897 0.0409092 0 0.00136921
0.350249 0.313423 0 0.011886
0.467897 0.0460756 0 0.0018928
0.467897 0.0514296 3.46945e-18 0.00250767
0.412065 0.227544 -2.31296e-18 0.00948648
0.467897 0.0569779 0 0.00320972
0.467897 0.0627277 -3.46945e-18 0.00399111
0.467897 0.0686863 0 0.00483928
0.467897 0.0748612 3.46945e-18 0.00573518
0.467897 0.0812603 3.46945e-18 0.00627669
0.467897 0.0878917 3.46945e-18 0.00640521
0.0757758 0.470415 3.46945e-18 0.0216389
0.412065 0.239487 -2.31296e-18 0.00954972
0.467897 0.0947639 0 0.00648393
0.467897 0.101886 3.46945e-18 0.00652413
0.350249 0.328484 0 0.0118096
0.467897 0.109266 3.46945e-18 0.00657484
0 0.48061 0 0.015238
0.288433 0.385557 0 0.0159639
0.467897 0.116914 3.46945e-18 0.00663398
0.412065 0.251863 -2.31296e-18 0.00960137
0.219992 0.431051 0 0.0186219
0.467897 0.12484 0 0.00669439
0.151552 0.46022 0 0.0195609
0.467897 0.133054 0 0.00675376
0.467897 0.141566 -3.46945e-18 0.00681657
0.412065 0.264688 -2.31296e-18 0.00963899
0.350249 0.344091 0 0.0117213
0.467897 0.150387 0 0.00688104
0.467897 0.154876 0 0.00741155
0.467897 0.159528 0 0.00694476
0.288433 0.403236 0 0.0154039
0.0757758 0.491176 3.46945e-18 0.0216939
0.412065 0.27798 -2.31296e-18 0.0096609
0.467897 0.169001 0 0.00700748
0.467897 0.178818 -3.46945e-18 0.0070689
0.219992 0.450382 3.46945e-18 0.0179779
6.73024e-17 0.501741 3.70074e-18 0.0153073
0.350249 0.360265 0 0.0116191
0.151552 0.48061 0 0.0193366
0.467897 0.188991 0 0.00712867
0.412065 0.291753 0 0.00966786
0.467897 0.199534 0 0.00718651
0.288433 0.421557 0 0.0148974
0.467897 0.21046 3.46945e-18 0.00724212
0.412065 0.306027 0 0.00966114
0.350249 0.377026 0 0.0114933
0.467897 0.221782 0 0.00729509
0.0757758 0.51269 0 0.0216403
0.219992 0.470415 0 0.01743
0.467897 0.227544 0 0.00789845
0.412065 0.320819 -2.31296e-18 0.00964197
0.467897 0.233515 0 0.00734496
6.73024e-17 0.523639 3.70074e-18 0.015309
0.523729 0 0 0
0.523729 0.00368111 0 1.8905e-06
0.523729 0.00749587 -2.31296e-18 9.46487e-06
0.523729 0.0114491 0 2.57473e-05
0.523729 0.0155459 0 5.55642e-05
0.523729 0.0197915 -2.31296e-18 0.000114174
0.151552 0.501741 0 0.0190907
0.523729 0.0241911 0 0.000229063
0.523729 0.0287506 0 0.000413246
0.523729 0.0334755 0 0.000670687
0.523729 0.038372 0 0.00101168
0.523729 0.0434463 0 0.00143784
0.523729 0.0487048 0 0.00194855
0.523729 0.0541543 0 0.00254074
0.288433 0.440544 0 0.0144658
0.523729 0.0598016 0 0.00320809
0.350249 0.394396 0 0.0113385
0.523729 0.0656539 0 0.00393995
0.467897 0.245675 3.46945e-18 0.00739139
0.523729 0.0717187 0 0.00469935
0.523729 0.0780037 0 0.00523376
0.523729 0.0845169 0 0.00543878
0.523729 0.0912666 0 0.00552555
0.412065 0.336148 0 0.00961216
0.523729 0.0982613 0 0.00558857
0.523729 0.10551 -2.31296e-18 0.00564151
0.467897 0.258276 3.46945e-18 0.00743425
0.523729 0.113022 0 0.00569681
0.523729 0.120806 0 0.00575271
0.219992 0.491176 3.46945e-18 0.0169363
0.523729 0.12484 0 0.00577992
0.523729 0.128874 -2.31296e-18 0.00580713
0.0757758 0.534985 -3.46945e-18 0.0215079
0.467897 0.271334 0 0.00747409
0.350249 0.412397 3.46945e-18 0.0111646
0.523729 0.137234 0 0.00586094
0.412065 0.352034 -2.31296e-18 0.00957212
0.288433 0.46022 0 0.0141014
0.523729 0.145897 0 0.00591511
0.151552 0.523639 0 0.0188201
0.523729 0.154876 0 0.00596882
0 0.546332 0 0.0152592
0.523729 0.159528 0 0.00599516
0.467897 0.284866 3.46945e-18 0.00751238
0.523729 0.16418 -2.31296e-18 0.00602151
0.523729 0.173822 0 0.00607314
0.412065 0.368496 0 0.00951898
0.523729 0.183814 0 0.00612356
0.467897 0.29889 -3.46945e-18 0.00754732
0.350249 0.431051 0 0.0109896
0.219992 0.51269 3.46945e-18 0.0164822
0.523729 0.194169 0 0.00617264
0.288433 0.48061 0 0.0137838
0.523729 0.2049 0 0.00622025
0.467897 0.313423 0 0.00757689
0.0757758 0.55809 0 0.0213233
0.412065 0.385557 0 0.00944889
0.523729 0.21602 0 0.00626624
0.151552 0.546332 0 0.0185388
0 0.569849 0 0.0151702
0.350249 0.450382 0 0.0108287
0.523729 0.227544 0 0.00631042
0.467897 0.328484 0 0.0075997
0.523729 0.231525 0 0.00632449
0.574156 0.00184056 0 4.22892e-07
0.574156 0.00558849 0 3.23951e-06
0.574156 0.0094725 0 1.63626e-05
0.574156 0.0134975 0 3.5521e-05
0.574156 0.0176687 0 6.91397e-05
0.574156 0.0219913 3.46945e-18 0.000129758
0.574156 0.0264709 0 0.000262727
0.574156 0.031113 0 0.000448434
0.574156 0.0359238 3.46945e-18 0.000709336
0.574156 0.0409092 -3.46945e-18 0.0010485
0.523729 0.239487 3.70074e-18 0.00635264
0.574156 0.0460756 3.46945e-18 0.0014662
0.574156 0.0514296 0 0.00196053
0.412065 0.403236 0 0.00936278
0.574156 0.0569779 0 0.00252674
0.574156 0.0627277 0 0.00315625
0.574156 0.0686863 0 0.00383547
0.219992 0.534985 0 0.016066
0.288433 0.501741 0 0.0134975
0.574156 0.0748612 0 0.00446452
0.574156 0.0812603 0 0.0045598
0.467897 0.344091 3.46945e-18 0.00761486
0.574156 0.0878917 0 0.00463156
0.523729 0.251863 0 0.00639287
0.574156 0.0947639 -3.46945e-18 0.0047018
0.574156 0.101886 0 0.00476423
0.574156 0.109266 3.46945e-18 0.00482165
0.574156 0.116914 -3.46945e-18 0.00487551
0.412065 0.416977 0 0.00929165
0.350249 0.470415 0 0.0106896
0.523729 0.264688 0 0.00643129
0.0757758 0.582034 0 0.0211049
0.574156 0.12484 0 0.00492617
0.574156 0.133054 0 0.00497412
0.412065 0.421557 -2.31296e-18 0.00926794
0.151552 0.569849 0 0.0182586
0.467897 0.360265 0 0.00762216
0.574156 0.141566 -3.46945e-18 0.00502014
0.523729 0.27798 0 0.00646845
0.574156 0.150387 -3.46945e-18 0.00506472
0 0.594219 0 0.0150517
0.574156 0.159528 0 0.00510808
0.574156 0.16418 0 0.00530113
0.288433 0.523639 9.24446e-33 0.0132364
0.574156 0.169001 -3.46945e-18 0.0051504
0.523729 0.291753 0 0.00650417
0.219992 0.55809 -3.46945e-18 0.0156921
0.467897 0.377026 0 0.0076216
0.574156 0.178818 -3.46945e-18 0.00519176
0.412065 0.440544 -2.31296e-18 0.00917404
0.350249 0.491176 3.46945e-18 0.01057
0.574156 0.188991 0 0.00523217
0.523729 0.306027 0 0.00653716
0.574156 0.199534 0 0.00527168
0.574156 0.21046 0 0.0053103
0.0757758 0.606847 0 0.0208651
0.467897 0.394396 3.46945e-18 0.00761252
0.151552 0.594219 0 0.0179859
0.523729 0.320819 0 0.00656619
0.574156 0.221782 -3.46945e-18 0.00534807
0.412065 0.46022 0 0.00908886
0.288433 0.546332 0 0.0129999
0 0.619475 0 0.014911
0.574156 0.233515 0 0.00538505
0.350249 0.51269 3.46945e-18 0.0104646
0.219992 0.582034 0 0.0153595
0.523729 0.336148 0 0.00659032
0.467897 0.412397 0 0.00759482
0.574156 0.245675 3.46945e-18 0.00542136
0.624584 0 0 0
0.624584 0.00368111 0 1.79663e-06
0.624584 0.00749587 0 1.03298e-05
0.624584 0.0114491 0 2.71761e-05
0.624584 0.0155459 0 5.18566e-05
0.624584 0.0197915 0 9.29651e-05
0.624584 0.0241911 -2.31296e-18 0.000175087
0.624584 0.0287506 0 0.00031586
0.624584 0.0334755 0 0.00051749
0.624584 0.038372 0 0.000787689
0.624584 0.0434463 -2.31296e-18 0.00113127
0.624584 0.0487048 0 0.00154738
0.624584 0.0541543 0 0.00203244
0.624584 0.0598016 0 0.00257946
0.624584 0.0656539 0 0.00317701
0.624584 0.0717187 0 0.00371633
0.624584 0.0780037 0 0.00399115
0.574156 0.258276 0 0.00545716
0.624584 0.0845169 0 0.00407299
0.523729 0.352034 0 0.00660905
0.624584 0.0912666 0 0.00414404
0.624584 0.0982613 0 0.00420862
0.412065 0.48061 0 0.00901549
0.624584 0.10551 0 0.00426636
0.624584 0.113022 -2.31296e-18 0.00431943
0.574156 0.271334 0 0.00549263
0.624584 0.120806 0 0.00436891
0.467897 0.431051 0 0.00757077
0.0757758 0.632561 3.46945e-18 0.0206116
0.624584 0.128874 0 0.00441535
0.151552 0.619475 0 0.0177239
0.288433 0.569849 0 0.0127886
0.350249 0.534985 0 0.0103702
0.624584 0.137234 -2.31296e-18 0.00445929
0.523729 0.368496 0 0.00662228
0.574156 0.284866 -3.46945e-18 0.00552784
0.624584 0.145897 0 0.00450128
0.467897 0.440544 0 0.00789743
0.624584 0.154876 0 0.00454168
0.219992 0.606847 0 0.0150655
0 0.645647 0 0.0147538
0.624584 0.16418 0 0.00458075
0.574156 0.29889 0 0.00556227
0.624584 0.173822 0 0.00461869
0.412065 0.501741 0 0.00895295
0.467897 0.450382 0 0.00754466
0.523729 0.385557 0 0.00662983
0.624584 0.183814 0 0.00465562
0.624584 0.194169 0 0.00469163
0.574156 0.313423 3.46945e-18 0.0055951
0.624584 0.2049 0 0.00472681
0.350249 0.55809 3.46945e-18 0.0102854
0.288433 0.594219 0 0.0126016
0.624584 0.21602 0 0.00476123
0.523729 0.403236 0 0.00663148
0.574156 0.328484 -3.46945e-18 0.00562552
0.151552 0.645647 0 0.0174736
0.467897 0.470415 0 0.00752087
0.0757758 0.659208 3.46945e-18 0.0203497
0.624584 0.227544 0 0.004795
0.412065 0.523639 0 0.00889931
0.523729 0.41545 0 0.00662905
0.624584 0.239487 3.70074e-18 0.00482822
0.574156 0.344091 0 0.00565286
0.219992 0.632561 -3.46945e-18 0.0148063
0.67013 0.00184056 3.46945e-18 3.04421e-07
0.67013 0.00558849 -3.46945e-18 3.22401e-06
0.67013 0.0094725 3.46945e-18 1.84289e-05
0.67013 0.0134975 -3.46945e-18 3.82419e-05
0.67013 0.0176687 0 6.45827e-05
0.67013 0.0219913 0 0.000109174
0.67013 0.0264709 3.46945e-18 0.00020128
0.67013 0.031113 0 0.000355862
0.67013 0.0359238 -3.46945e-18 0.000563843
0.67013 0.0409092 0 0.000840241
0.67013 0.0460756 0 0.00118558
0.67013 0.0514296 -3.46945e-18 0.00159752
0.523729 0.421557 0 0.00662783
0.67013 0.0569779 0 0.00207077
0 0.67277 0 0.0145845
0.67013 0.0627277 3.46945e-18 0.00259612
0.624584 0.251863 0 0.00486101
0.67013 0.0686863 0 0.00315918
0.67013 0.0748612 -3.46945e-18 0.00345914
0.67013 0.0812603 0 0.00354473
0.67013 0.0878917 0 0.00361967
0.67013 0.0947639 0 0.0036869
0.574156 0.360265 3.46945e-18 0.00567689
0.67013 0.101886 3.46945e-18 0.00374552
0.523729 0.431051 0 0.00662433
0.624584 0.264688 0 0.00489353
0.467897 0.491176 0 0.00750196
0.67013 0.109266 3.46945e-18 0.00379827
0.350249 0.582034 0 0.0102102
0.67013 0.116914 -3.46945e-18 0.00384682
0.67013 0.12484 0 0.00389198
0.67013 0.133054 -3.46945e-18 0.00393428
0.288433 0.619475 0 0.0124378
0.624584 0.27798 0 0.00492583
0.412065 0.546332 0 0.00885321
0.523729 0.440544 0 0.00662083
0.67013 0.141566 0 0.00397415
0.685312 0.0241911 0 0.000152597
0.685312 0.0434463 0 0.000992532
0.67013 0.150387 0 0.004012
0.574156 0.377026 0 0.00569762
0.67013 0.159528 0 0.00404821
0.624584 0.291753 0 0.00495776
0.151552 0.67277 0 0.0172353
0.0757758 0.686823 0 0.0200834
0.67013 0.169001 -3.46945e-18 0.00408305
0.67013 0.178818 0 0.00411674
0.467897 0.51269 3.46945e-18 0.0074886
0.685312 0.113022 0 0.00375568
0.219992 0.659208 0 0.0145779
0.624584 0.306027 0 0.00498888
0.67013 0.188991 0 0.00414944
0.574156 0.394396 -3.46945e-18 0.00571499
0.523729 0.46022 0 0.00661331
0.685312 0.137234 0 0.00388734
0.67013 0.199534 3.46945e-18 0.00418131
0.350249 0.606847 3.46945e-18 0.0101454
0 0.700877 0 0.0144068
0.624584 0.320819 0 0.00501863
0.67013 0.21046 -3.46945e-18 0.00421246
0.412065 0.569849 -2.31296e-18 0.00881407
0.67013 0.221782 0 0.00424304
0.574156 0.412397 -3.46945e-18 0.0057289
0.288433 0.645647 0 0.0122954
0.624584 0.336148 0 0.00504648
0.67013 0.233515 -3.46945e-18 0.00427317
0.467897 0.534985 0 0.00748055
0.523729 0.48061 0 0.00660784
0.624584 0.344091 0 0.00505929
0.67013 0.245675 0 0.00430298
0.715676 4.54095e-19 -1.54074e-33 4.19736e-23
0.715676 0.00368111 0 1.74877e-06
0.715676 0.00749587 0 1.14509e-05
0.715676 0.0114491 -1.54074e-33 3.00757e-05
0.715676 0.0155459 0 5.2705e-05
0.715676 0.0197915 0 8.43272e-05
0.715676 0.0241911 0 0.000141351
0.715676 0.0287506 0 0.000251538
0.715676 0.0334755 0 0.000418021
0.715676 0.038372 0 0.000638109
0.624584 0.352034 -2.31296e-18 0.00507209
0.715676 0.0434463 0 0.000923161
0.151552 0.700877 0 0.0170088
0.715676 0.0487048 0 0.00127244
0.715676 0.0541543 0 0.00168203
0.574156 0.431051 -3.46945e-18 0.00573971
0.715676 0.0598016 0 0.00214451
0.67013 0.258276 0 0.0043326
0.715676 0.0656539 0 0.00264142
0.715676 0.0717187 0 0.00300558
0.0757758 0.715441 0 0.019816
0.715676 0.0780037 0 0.00315831
0.715676 0.0845169 0 0.00323792
0.219992 0.686823 0 0.0143765
0.715676 0.0912666 0 0.00330819
0.715676 0.0982613 0 0.0033698
0.67013 0.271334 0 0.00436209
0.350249 0.632561 3.46945e-18 0.0100913
0.412065 0.594219 -2.31296e-18 0.00878204
0.715676 0.10551 0 0.00342434
0.715676 0.113022 0 0.00347381
0.624584 0.368496 0 0.00509532
0.523729 0.501741 0 0.00660592
0.715676 0.120806 0 0.00351937
0.715676 0.128874 0 0.00356172
0.67013 0.284866 0 0.00439143
0.467897 0.55809 3.46945e-18 0.0074771
0.715676 0.137234 0 0.00360136
0.574156 0.450382 0 0.00574857
0 0.730005 0 0.014224
0.715676 0.145897 0 0.00363873
0.288433 0.67277 0 0.0121726
0.715676 0.154876 0 0.0036742
0.67013 0.29889 3.46945e-18 0.00442046
0.624584 0.385557 0 0.00511615
0.715676 0.16418 0 0.00370809
0.715676 0.173822 0 0.00374065
0.715676 0.183814 0 0.00377209
0.67013 0.313423 0 0.00444889
0.523729 0.523639 0 0.00660811
0.715676 0.194169 0 0.00380258
0.574156 0.470415 3.46945e-18 0.00575714
0.624584 0.403236 0 0.00513453
0.743101 0.0241911 0 0.000134502
0.412065 0.619475 -2.31296e-18 0.00875763
0.715676 0.2049 0 0.00383226
0.151552 0.730005 0 0.016794
0.67013 0.328484 0 0.00447637
0.350249 0.659208 -3.46945e-18 0.0100483
0.467897 0.582034 0 0.00747802
0.715676 0.21602 0 0.00386127
0.219992 0.715441 0 0.0141986
0.0757758 0.745098 3.46945e-18 0.0195502
0.715676 0.227544 0 0.00388974
0.67013 0.344091 0 0.0045026
0.624584 0.421557 0 0.00515054
0.743101 0.128874 0 0.00336954
0.715676 0.239487 3.70074e-18 0.0039178
0.574156 0.491176 3.46945e-18 0.00576713
0.523729 0.546332 0 0.00661433
0.756814 0.00184056 0 2.1388e-07
0.756814 0.00558849 0 3.25464e-06
0.756814 0.0094725 0 2.08262e-05
0.756814 0.0134975 3.46945e-18 4.26101e-05
0.756814 0.0155459 0 5.43289e-05
0.756814 0.0176687 -3.46945e-18 6.52405e-05
0.756814 0.0219913 -3.46945e-18 9.86012e-05
0.756814 0.0264709 3.46945e-18 0.000157919
0.756814 0.031113 -3.46945e-18 0.000294149
0.756814 0.0359238 -3.46945e-18 0.000462962
0.288433 0.700877 0 0.0120675
0.756814 0.0409092 0 0.000692618
0.756814 0.0460756 -3.46945e-18 0.000984345
0.756814 0.0514296 -3.46945e-18 0.00133576
0.715676 0.251863 0 0.00394556
0.756814 0.0569779 0 0.00174126
0.756814 0.0627277 3.46945e-18 0.00219121
0.756814 0.0686863 0 0.00264585
0 0.76019 0 0.0140391
0.756814 0.0748612 0 0.00279237
0.67013 0.360265 0 0.00452735
0.756814 0.0812603 0 0.00287573
0.756814 0.0878917 0 0.00295031
0.756814 0.0947639 -3.46945e-18 0.00301473
0.715676 0.264688 0 0.0039731
0.756814 0.101886 -3.46945e-18 0.00307105
0.624584 0.440544 0 0.0051647
0.756814 0.109266 -3.46945e-18 0.00312163
0.756814 0.116914 -3.46945e-18 0.00316777
0.412065 0.645647 0 0.00874124
0.467897 0.606847 0 0.00748352
0.756814 0.120806 0 0.00323183
0.756814 0.12484 3.46945e-18 0.00321029
0.715676 0.27798 -1.54074e-33 0.00400043
0.756814 0.133054 3.46945e-18 0.00324982
0.67013 0.377026 3.46945e-18 0.00455057
0.756814 0.137234 0 0.00331231
0.574156 0.51269 0 0.00577972
0.756814 0.141566 0 0.00328684
0.685312 0.352034 0 0.00444378
0.743101 0.2049 0 0.00363448
0.350249 0.686823 0 0.010016
0.756814 0.150387 0 0.00332173
0.756814 0.154876 0 0.00338337
0.715676 0.291753 -6.16298e-33 0.00402751
0.756814 0.159528 0 0.00335483
0.523729 0.569849 0 0.00662436
0.72743 0.264688 0 0.0038862
0.756814 0.16418 0 0.00341625
0.151552 0.76019 3.70074e-18 0.016591
0.756814 0.169001 3.46945e-18 0.00338641
0.624584 0.46022 0 0.00517796
0.219992 0.745098 -3.46945e-18 0.0140417
0.67013 0.394396 0 0.00457225
0.756814 0.178818 0 0.00341672
0.715676 0.306027 0 0.00405419
0.0757758 0.775831 3.46945e-18 0.0192887
0.756814 0.188991 0 0.00344595
0.756814 0.199534 -3.46945e-18 0.00347427
0.715676 0.320819 0 0.00408025
0.574156 0.534985 0 0.00579543
0.288433 0.730005 0 0.0119784
0.756814 0.21046 0 0.00350184
0.467897 0.632561 0 0.00749413
0.67013 0.412397 0 0.00459237
0.624584 0.48061 0 0.00519157
0.756814 0.221782 3.46945e-18 0.00352877
0.412065 0.67277 -2.31296e-18 0.0087331
0.715676 0.336148 0 0.00410547
0 0.791472 0 0.0138549
0.756814 0.233515 0 0.00355521
0.523729 0.594219 0 0.00663824
0.624584 0.487654 0 0.00519661
0.756814 0.245675 0 0.00358125
0.350249 0.715441 3.46945e-18 0.00999425
0.67013 0.431051 -3.46945e-18 0.00461105
0.715676 0.352034 0 0.00412963
0.797951 9.0819e-19 0 5.89902e-23
0.797951 0.00368111 0 1.73088e-06
0.797951 0.00749587 0 1.27261e-05
0.797951 0.0114491 0 3.36707e-05
0.797951 0.0141803 0 4.85254e-05
0.797951 0.0155459 0 5.59528e-05
0.797951 0.0169611 0 6.43236e-05
0.797951 0.0197915 0 8.10652e-05
0.797951 0.0219913 0 0.000100934
0.797951 0.0241911 0 0.000120803
0.797951 0.0264709 0 0.000162621
0.797951 0.0287506 0 0.000204439
0.797951 0.0334755 0 0.000344219
0.797951 0.038372 0 0.000531168
0.797951 0.0434463 0 0.000771587
0.797951 0.0487048 0 0.00107021
0.756814 0.258276 0 0.00360699
0.797951 0.0541543 0 0.00142312
0.797951 0.0598016 0 0.00182242
0.797951 0.0656539 0 0.00222536
0.574156 0.55809 0 0.00581434
0.624584 0.501741 -2.05433e-33 0.00520669
0.797951 0.0717187 0 0.00248237
0.797951 0.0780037 0 0.00258862
0.797951 0.0845169 0 0.00266815
0.797951 0.0912666 0 0.00273766
0.797951 0.0982613 0 0.00279804
0.756814 0.271334 -3.46945e-18 0.00363247
0.797951 0.10551 0 0.00285158
0.715676 0.368496 0 0.00415263
0.151552 0.791472 0 0.0164001
0.797951 0.113022 0 0.00289999
0.219992 0.775831 3.46945e-18 0.0139038
0.797951 0.118212 0 0.00292952
0.770526 0.239487 0 0.00351655
0.797951 0.120806 9.25186e-19 0.00294429
0.67013 0.450382 3.46945e-18 0.00462869
0.797951 0.128874 -2.31296e-18 0.0029852
0.467897 0.659208 0 0.00751032
0.756814 0.284866 0 0.00365769
0.743101 0.320819 0 0.00387288
0.797951 0.137234 0 0.00302327
0.797951 0.141566 0 0.0030411
0.797951 0.145897 0 0.00305893
0.523729 0.619475 0 0.00665626
0.0757758 0.80768 0 0.019034
0.797951 0.150387 0 0.00307574
0.797951 0.154876 9.25186e-19 0.00309255
0.715676 0.385557 0 0.00417441
0.412065 0.700877 -2.31296e-18 0.00873327
0.288433 0.76019 0 0.0119043
0.756814 0.29889 -3.46945e-18 0.00368261
0.797951 0.16418 0 0.00312441
0.624584 0.523639 -1.54074e-33 0.00522409
0.797951 0.167394 0 0.00313454
0.797951 0.173822 0 0.00315478
0.574156 0.582034 0 0.00583643
0.67013 0.470415 0 0.004646
0.797951 0.183814 0 0.00318387
0.756814 0.313423 0 0.00370714
0.797951 0.194169 0 0.00321187
0.715676 0.403236 -6.16298e-33 0.00419498
0.151552 0.80768 0 0.0163109
0.797951 0.197746 0 0.00322089
0.350249 0.745098 -3.46945e-18 0.00998271
0.797951 0.2049 0 0.00323894
0 0.823889 0 0.0136737
0.756814 0.328484 0 0.00373112
0.797951 0.21046 0 0.00325208
0.797951 0.21602 0 0.00326522
0.797951 0.223703 0 0.0032823
0.797951 0.227544 0 0.00329084
0.624584 0.546332 0 0.00524417
0.715676 0.421557 0 0.00421441
0.67013 0.491176 3.46945e-18 0.00466393
0.797951 0.231525 0 0.0032992
0.467897 0.686823 0 0.00753247
0.523729 0.645647 0 0.00667884
0.756814 0.344091 -3.46945e-18 0.00375442
0.822721 0.120806 0 0.00280649
0.797951 0.239487 0 0.00331592
0.822721 0.137234 0 0.00288542
0.835107 0.00184056 -3.46945e-18 1.46003e-07
0.835107 0.00558849 0 3.30947e-06
0.835107 0.0094725 3.46945e-18 2.34441e-05
0.835107 0.0134975 0 4.76019e-05
0.835107 0.0176687 0 6.81505e-05
0.835107 0.0219913 3.46945e-18 9.23585e-05
0.574156 0.606847 3.46945e-18 0.00586182
0.835107 0.0241911 0 0.000115568
0.835107 0.0264709 3.46945e-18 0.000135104
0.822721 0.145897 0 0.00292098
0.835107 0.031113 0 0.000232818
0.835107 0.0359238 0 0.000390496
0.835107 0.0409092 -3.46945e-18 0.000583417
0.835107 0.0460756 0 0.000832884
0.835107 0.0514296 -3.46945e-18 0.00113713
0.797951 0.251863 0 0.00334057
0.835107 0.0541543 0 0.0013207
0.835107 0.0569779 -3.46945e-18 0.00149024
0.219992 0.80768 -3.46945e-18 0.0137833
0.822721 0.154876 0 0.00295444
0.835107 0.0627277 -3.46945e-18 0.00188181
0.151552 0.823889 0 0.0162217
0.797951 0.255069 0 0.00334663
0.835107 0.0686863 3.46945e-18 0.00220252
0.756814 0.360265 3.46945e-18 0.00377689
0.412065 0.730005 0 0.00874176
0.835107 0.0748612 0 0.00231314
0.822721 0.16418 0 0.00298608