# nutMean  POINT_DATA 63889
# x  y  z  nutMean
0 0.5 3.39582e-17 0.0153015
0 0.5 -0.00617965 0.0153065
0 0.5 0.00617965 0.0153029
0.0124871 0.5 -0.00617965 0.0163613
0.0124871 0.5 0.00617965 0.0163581
0 0.5 -0.0688203 0.0152828
0 0.5 0.0688203 0.0152272
0.0124871 0.5 -0.0688203 0.0163375
0.0124871 0.5 0.0688203 0.0162824
0 0.5 -0.075 0.0152732
0 0.5 0.075 0.0152108
0 0.5 -0.0811797 0.0152699
0 0.5 0.0811797 0.0152007
0.0124871 0.5 -0.0811797 0.0163437
0.0124871 0.5 0.0811797 0.0162669
0.0757758 0.5 -0.0375 0.0216809
0.0757758 0.5 0.0375 0.0216629
0.0757758 0.5 -0.1125 0.0217159
0.0757758 0.5 0.1125 0.0215675
0 0.5 -0.14382 0.0150942
0 0.5 0.14382 0.0149716
0.0124871 0.5 -0.14382 0.0161681
0.0124871 0.5 0.14382 0.0160378
0 0.5 -0.15 0.0150627
0 0.5 0.15 0.0149364
0.151149 0.5 -0.00137326 0.0191429
0 0.5 -0.15618 0.0150371
0 0.5 0.15618 0.014907
0.0124871 0.5 -0.15618 0.0160829
0.0124871 0.5 0.15618 0.0159439
0.151149 0.5 -0.075 0.0191107
0.151149 0.5 0.075 0.0190721
0.0757758 0.5 -0.1875 0.0212067
0.0757758 0.5 0.1875 0.0210051
0.151149 0.5 -0.15 0.0189176
0.151149 0.5 0.15 0.0188229
0 0.5 -0.21882 0.0147016
0 0.5 0.21882 0.0145389
0.0124871 0.5 -0.21882 0.0157474
0.0124871 0.5 0.21882 0.0155758
0.219992 0.5 -0.0375 0.0167503
0.219992 0.5 0.0375 0.0167499
0 0.5 -0.225 0.0146606
0 0.5 0.225 0.0144953
0 0.5 -0.23118 0.014625
0 0.5 0.23118 0.0144569
0.0124871 0.5 -0.23118 0.0156338
0.0124871 0.5 0.23118 0.0154555
0.219992 0.5 -0.1125 0.0166424
0.219992 0.5 0.1125 0.0166491
0.151149 0.5 -0.225 0.0185047
0.151149 0.5 0.225 0.018372
0.0757758 0.5 -0.2625 0.0205259
0.0757758 0.5 0.2625 0.0202841
0.288069 0.5 -0.00137326 0.013561
0.219992 0.5 -0.1875 0.016446
0.219992 0.5 0.1875 0.0164
0 0.5 -0.29382 0.0142152
0 0.5 0.29382 0.0140263
0.0124871 0.5 -0.29382 0.015224
0.0124871 0.5 0.29382 0.0150249
0.288069 0.5 -0.075 0.0135147
0.288069 0.5 0.075 0.0135222
0 0.5 -0.3 0.0141695
0 0.5 0.3 0.0139792
0 0.5 -0.30618 0.0141287
0 0.5 0.30618 0.0139369
0.0124871 0.5 -0.30618 0.015096
0.0124871 0.5 0.30618 0.0148935
0.288069 0.5 -0.15 0.0134511
0.288069 0.5 0.15 0.0134515
0.151149 0.5 -0.3 0.0179905
0.151149 0.5 0.3 0.0178417
0.219992 0.5 -0.2625 0.0161565
0.219992 0.5 0.2625 0.0161034
0.0757758 0.5 -0.3375 0.0197589
0.0757758 0.5 0.3375 0.0194967
0.350249 0.5 -0.0375 0.0105238
0.350249 0.5 0.0375 0.0105297
0.288069 0.5 -0.225 0.0133495
0.288069 0.5 0.225 0.0133336
0.350249 0.5 -0.1125 0.010543
0.350249 0.5 0.1125 0.01056
0 0.5 0.36882 0.0134894
0 0.5 -0.36882 0.0136902
0.0124871 0.5 -0.36882 0.0146574
0.0124871 0.5 0.36882 0.014446
0 0.5 -0.375 0.0136443
0 0.5 0.375 0.0134434
0 0.5 -0.38118 0.0136023
0 0.5 0.38118 0.0134009
0.0124871 0.5 -0.38118 0.0145278
0.0124871 0.5 0.38118 0.0143157
0.350249 0.5 -0.1875 0.0105624
0.350249 0.5 0.1875 0.0105838
0.219992 0.5 -0.3375 0.0158089
0.219992 0.5 0.3375 0.0157571
0.151149 0.5 -0.375 0.0174324
0.151149 0.5 0.375 0.0172768
0.411736 0.5 -0.00137326 0.0089771
0.288069 0.5 -0.3 0.0132183
0.288069 0.5 0.3 0.013199
0.411736 0.5 -0.075 0.00897638
0.411736 0.5 0.075 0.00898475
0.0757758 0.5 -0.4125 0.018981
0.0757758 0.5 0.4125 0.0187141
0.350249 0.5 -0.2625 0.0106047
0.350249 0.5 0.2625 0.0106146
0.411736 0.5 -0.15 0.00900847
0.411736 0.5 0.15 0.00902365
0 0.5 -0.44382 0.0131718
0 0.5 0.44382 0.0129703
0.0124871 0.5 -0.44382 0.0140973
0.0124871 0.5 0.44382 0.0138851
0 0.5 -0.45 0.0131293
0 0.5 0.45 0.0129285
0 0.5 -0.45618 0.0130887
0 0.5 0.45618 0.0128879
0.0124871 0.5 -0.45618 0.0139749
0.0124871 0.5 0.45618 0.0137634
0.219992 0.5 -0.4125 0.0154398
0.219992 0.5 0.4125 0.0153838
0.411736 0.5 0.225 0.00907249
0.411736 0.5 -0.225 0.00906004
0.467897 0.5 0.0375 0.0074979
0.467897 0.5 -0.0375 0.00749506
0.288069 0.5 -0.375 0.0130727
0.288069 0.5 0.375 0.0130542
0.151149 0.5 -0.45 0.0168777
0.151149 0.5 0.45 0.0167197
0.467897 0.5 -0.1125 0.00752738
0.467897 0.5 0.1125 0.00753544
0.350249 0.5 -0.3375 0.0106512
0.350249 0.5 0.3375 0.0106648
0.0757758 0.5 0.4875 0.0179839
0.0757758 0.5 -0.4875 0.018246
0.467897 0.5 -0.1875 0.00758326
0.467897 0.5 0.1875 0.00759802
0.411736 0.5 -0.3 0.00913213
0.411736 0.5 0.3 0.00914077
0 0.5 -0.51882 0.0126914
0 0.5 0.51882 0.0124968
0.0124871 0.5 -0.51882 0.0135775
0.0124871 0.5 0.51882 0.0133724
0.523432 0.5 -0.00137326 0.00661657
0 0.5 -0.525 0.0126542
0 0.5 0.525 0.0124609
0.523432 0.5 -0.075 0.00662522
0.523432 0.5 0.075 0.00662878
0 0.5 -0.53118 0.0126166
0 0.5 0.53118 0.0124241
0.0124871 0.5 -0.53118 0.0134673
0.0124871 0.5 0.53118 0.013265
0.288069 0.5 -0.45 0.0129309
0.288069 0.5 0.45 0.0129101
0.219992 0.5 -0.4875 0.0150753
0.219992 0.5 0.4875 0.0150138
0.467897 0.5 -0.2625 0.00766958
0.467897 0.5 0.2625 0.0076737
0.350249 0.5 -0.4125 0.0107122
0.350249 0.5 0.4125 0.0107278
0.523432 0.5 -0.15 0.00667
0.523432 0.5 0.15 0.00667734
0.151149 0.5 -0.525 0.0163604
0.151149 0.5 0.525 0.0162032
0.411736 0.5 -0.375 0.00922207
0.411736 0.5 0.375 0.00923296
0.0757758 0.5 -0.5625 0.0175858
0.0757758 0.5 0.5625 0.0173383
0.523432 0.5 -0.225 0.00674231
0.523432 0.5 0.225 0.00674953
0.574156 0.5 0.0375 0.00577258
0.574156 0.5 -0.0375 0.005772
0.467897 0.5 -0.3375 0.00777959
0.467897 0.5 0.3375 0.00778691
0.574156 0.5 -0.1125 0.00580366
0.574156 0.5 0.1125 0.00580665
0 0.5 -0.59382 0.0122716
0 0.5 0.59382 0.012089
0.0124871 0.5 -0.59382 0.0131223
0.0124871 0.5 0.59382 0.0129299
0.288069 0.5 -0.525 0.012806
0.288069 0.5 0.525 0.0127799
0 0.5 -0.6 0.0122418
0 0.5 0.6 0.0120604
0.350249 0.5 0.4875 0.0108029
0.350249 0.5 -0.4875 0.0107891
0.523432 0.5 -0.3 0.00684131
0.523432 0.5 0.3 0.00684585
0.219992 0.5 -0.5625 0.0147405
0.219992 0.5 0.5625 0.0146701
0.574156 0.5 -0.1875 0.00586284
0.574156 0.5 0.1875 0.00586686
0 0.5 -0.60618 0.0122105
0 0.5 0.60618 0.0120303
0.0124871 0.5 -0.60618 0.0130333
0.0124871 0.5 0.60618 0.012844
0.411736 0.5 -0.45 0.00933351
0.411736 0.5 0.45 0.00934409
0.151149 0.5 -0.6 0.0159069
0.151149 0.5 0.6 0.0157522
0.62168 0.5 4.33681e-17 0.0052419
0.467897 0.5 -0.4125 0.00791752
0.467897 0.5 0.4125 0.00792506
0.624316 0.5 0.0729401 0.00522362
0.624316 0.5 -0.075 0.005223
0.574156 0.5 -0.2625 0.00595057
0.574156 0.5 0.2625 0.00595681
0.0757758 0.5 -0.6375 0.0170407
0.0757758 0.5 0.6375 0.0168094
0.624316 0.5 -0.15 0.00526669
0.624316 0.5 0.15 0.00526807
0.523432 0.5 -0.375 0.00696687
0.523432 0.5 0.375 0.00697003
0.350249 0.5 -0.5625 0.0108836
0.350249 0.5 0.5625 0.0108921
0.624316 0.5 -0.225 0.0053379
0.624316 0.5 0.225 0.00533922
0.288069 0.5 -0.6 0.0127076
0.288069 0.5 0.6 0.012673
0.574156 0.5 -0.3375 0.00606245
0.574156 0.5 0.3375 0.00606308
0.411736 0.5 0.525 0.00947438
0.411736 0.5 -0.525 0.00946697
0 0.5 0.66882 0.0117568
0 0.5 -0.66882 0.011926
0.0124871 0.5 -0.66882 0.0127488
0.0124871 0.5 0.66882 0.0125705
0.67013 0.5 -0.0375 0.00467219
0.67013 0.5 0.0375 0.00467158
0.219992 0.5 -0.6375 0.0144462
0.219992 0.5 0.6375 0.0143657
0 0.5 -0.675 0.0119019
0 0.5 0.675 0.0117336
0.467897 0.5 -0.4875 0.0080825
0.467897 0.5 0.4875 0.00808836
0.67013 0.5 -0.1125 0.00470128
0.67013 0.5 0.1125 0.00470094
0 0.5 -0.68118 0.011877
0 0.5 0.68118 0.0117098
0.0124871 0.5 -0.68118 0.012678
0.0124871 0.5 0.68118 0.0125021
0.523432 0.5 -0.45 0.00712108
0.523432 0.5 0.45 0.00712231
0.151149 0.5 -0.675 0.0155306
0.151149 0.5 0.675 0.0153784
0.624316 0.5 -0.3 0.0054324
0.624316 0.5 0.3 0.00543537
0.67013 0.5 -0.1875 0.0047563
0.67013 0.5 0.1875 0.00475539
0.574156 0.5 0.4125 0.00620235
0.574156 0.5 -0.4125 0.00620468
0.708171 0.5 3.5345e-17 0.00434973
0.0757758 0.5 -0.7125 0.0165999
0.0757758 0.5 0.7125 0.0163853
0.715434 0.5 0.0736267 0.00430935
0.715434 0.5 -0.075 0.00430195
0.67013 0.5 -0.2625 0.00483944
0.67013 0.5 0.2625 0.00483577
0.350249 0.5 -0.6375 0.010997
0.350249 0.5 0.6375 0.0109964
0.411736 0.5 0.6 0.00962409
0.411736 0.5 -0.6 0.00962297
0.624316 0.5 -0.375 0.00555382
0.624316 0.5 0.375 0.00555396
0.715434 0.5 -0.15 0.00434194
0.715434 0.5 0.15 0.00434037
0.467897 0.5 -0.5625 0.00827433
0.467897 0.5 0.5625 0.00827626
0.288069 0.5 -0.675 0.012642
0.288069 0.5 0.675 0.0125966
0.523432 0.5 -0.525 0.00730326
0.523432 0.5 0.525 0.00730108
0 0.5 0.74382 0.0114985
0 0.5 -0.74382 0.0116544
0.0124871 0.5 -0.74382 0.0124554
0.0124871 0.5 0.74382 0.0122908
0.219992 0.5 0.7125 0.0141141
0.219992 0.5 -0.7125 0.0142059
0.715434 0.5 -0.225 0.00440721
0.715434 0.5 0.225 0.00440392
0 0.5 -0.75 0.0116359
0 0.5 0.75 0.0114811
0.67013 0.5 -0.3375 0.00493524
0.67013 0.5 0.3375 0.00494398
0.574156 0.5 -0.4875 0.00637613
0.574156 0.5 0.4875 0.00637059
0 0.5 0.75618 0.0114632
0 0.5 -0.75618 0.011617
0.0124871 0.5 -0.75618 0.0124017
0.0124871 0.5 0.75618 0.0122396
0.756814 0.5 0.0375 0.00392075
0.756814 0.5 -0.0375 0.00392186
0.151149 0.5 0.75 0.0150865
0.151149 0.5 -0.75 0.0152369
0.756814 0.5 -0.1125 0.00394803
0.756814 0.5 0.1125 0.00394618
0.624316 0.5 -0.45 0.0057065
0.624316 0.5 0.45 0.00569963
0.715434 0.5 -0.3 0.00449515
0.715434 0.5 0.3 0.00449349
0.756814 0.5 -0.1875 0.00399787
0.756814 0.5 0.1875 0.00399479
0.67013 0.5 -0.4125 0.00507158
0.67013 0.5 0.4125 0.005065
0.411736 0.5 -0.675 0.00980165
0.411736 0.5 0.675 0.00979325
0.467897 0.5 -0.6375 0.00849241
0.467897 0.5 0.6375 0.00848752
0.0757758 0.5 -0.7875 0.0162733
0.0757758 0.5 0.7875 0.0160747
0.350249 0.5 -0.7125 0.0111306
0.350249 0.5 0.7125 0.0111172
0.523432 0.5 0.6 0.00750531
0.523432 0.5 -0.6 0.00751308
0.797732 0.5 1.60462e-17 0.00365047
0.756814 0.5 -0.2625 0.00407131
0.756814 0.5 0.2625 0.00406592
0.797732 0.5 0.0736267 0.00366459
0.797732 0.5 -0.075 0.00366341
0.288069 0.5 0.75 0.0125566
0.288069 0.5 -0.75 0.0126151
0.574156 0.5 -0.5625 0.00657619
0.574156 0.5 0.5625 0.0065659
0.715434 0.5 -0.375 0.00460619
0.715434 0.5 0.375 0.0046016
0.797732 0.5 -0.15 0.00369934
0.797732 0.5 0.15 0.00369662
0.624316 0.5 -0.525 0.00588652
0.624316 0.5 0.525 0.00587485
0.219992 0.5 -0.7875 0.0140266
0.219992 0.5 0.7875 0.0139227
0 0.5 -0.81882 0.0114572
0 0.5 0.81882 0.0113138
0.0124871 0.5 -0.81882 0.0122419
0.0124871 0.5 0.81882 0.0120903
0 0.5 -0.825 0.0114453
0 0.5 0.825 0.0113031
0.756814 0.5 -0.3375 0.00417082
0.756814 0.5 0.3375 0.00416491
0.67013 0.5 0.4875 0.00521998
0.67013 0.5 -0.4875 0.00523271
0.797732 0.5 0.225 0.00375314
0.797732 0.5 -0.225 0.00375757
0 0.5 -0.83118 0.0114319
0 0.5 0.83118 0.0112907
0.0124871 0.5 -0.83118 0.0122064
0.0124871 0.5 0.83118 0.0120574
0.835107 0.5 -0.0375 0.00339154
0.835107 0.5 0.0375 0.00339034
0.151149 0.5 -0.825 0.0150287
0.151149 0.5 0.825 0.0148798
0.835107 0.5 0.1125 0.00341267
0.835107 0.5 -0.1125 0.00341487
0.715434 0.5 -0.45 0.00474494
0.715434 0.5 0.45 0.00473239
0.797732 0.5 -0.3 0.00383995
0.797732 0.5 0.3 0.00383295
0.467897 0.5 0.7125 0.00872119
0.467897 0.5 -0.7125 0.0087357
0.523432 0.5 -0.675 0.00775006
0.523432 0.5 0.675 0.00773423
0.411736 0.5 0.75 0.00998215
0.411736 0.5 -0.75 0.0100034
0.835107 0.5 -0.1875 0.00345941
0.835107 0.5 0.1875 0.00345572
0.574156 0.5 0.6375 0.00678788
0.574156 0.5 -0.6375 0.00680499
0.350249 0.5 -0.7875 0.0112862
0.350249 0.5 0.7875 0.0112565
0.756814 0.5 -0.4125 0.00428382
0.756814 0.5 0.4125 0.00426974
0.0757758 0.5 -0.8625 0.0160547
0.0757758 0.5 0.8625 0.0158706
0.624316 0.5 -0.6 0.00609469
0.624316 0.5 0.6 0.00607705
0.872064 0.5 4.81386e-17 0.00317831
0.870122 0.5 0.075 0.00320191
0.288069 0.5 -0.825 0.0126293
0.288069 0.5 0.825 0.0125576
0.67013 0.5 -0.5625 0.00542072
0.67013 0.5 0.5625 0.005403
0.872064 0.5 -0.075 0.00318989
0.835107 0.5 -0.2625 0.00352482
0.835107 0.5 0.2625 0.0035193
0.797732 0.5 -0.375 0.00393989
0.797732 0.5 0.375 0.00393259
0.872064 0.5 0.14794 0.00321881
0.872064 0.5 -0.15 0.00322184
0.715434 0.5 0.525 0.00489429
0.715434 0.5 -0.525 0.00491142
0.219992 0.5 -0.8625 0.0139095
0.219992 0.5 0.8625 0.0137949
0 0.5 -0.89382 0.0113333
0 0.5 0.89382 0.0112026
0.0124871 0.5 -0.89382 0.0121078
0.0124871 0.5 0.89382 0.0119693
0 0.5 -0.9 0.0113279
0 0.5 0.9 0.0111981
0.756814 0.5 -0.4875 0.00442927
0.756814 0.5 0.4875 0.00441274
0.872064 0.5 -0.225 0.00327365
0.872064 0.5 0.225 0.003269
0.835107 0.5 0.3375 0.00360526
0.835107 0.5 -0.3375 0.00361632
0 0.5 -0.90618 0.0113213
0 0.5 0.90618 0.011193
0.0124871 0.5 -0.90618 0.0120926
0.0124871 0.5 0.90618 0.0119574
0.905821 0.5 0.0375 0.00297303
0.905821 0.5 -0.0375 0.00297425
0.151149 0.5 -0.9 0.0149067
0.151149 0.5 0.9 0.0147605
0.905821 0.5 -0.1125 0.00299489
0.905821 0.5 0.1125 0.00299261
0.523432 0.5 -0.75 0.00801341
0.523432 0.5 0.75 0.00798694
0.574156 0.5 -0.7125 0.00706209
0.574156 0.5 0.7125 0.00703598
0.797732 0.5 -0.45 0.00406177
0.797732 0.5 0.45 0.00405095
0.467897 0.5 0.7875 0.00897619
0.467897 0.5 -0.7875 0.00900335
0.624316 0.5 -0.675 0.0063315
0.624316 0.5 0.675 0.00630578
0.411736 0.5 -0.825 0.0102278
0.411736 0.5 0.825 0.0101921
0.872064 0.5 -0.3 0.00334794
0.872064 0.5 0.3 0.00333932
0.67013 0.5 0.6375 0.00561217
0.67013 0.5 -0.6375 0.00563718
0.905821 0.5 -0.1875 0.00303431
0.905821 0.5 0.1875 0.00303037
0.350249 0.5 -0.8625 0.0114635
0.350249 0.5 0.8625 0.0114203
0.835107 0.5 -0.4125 0.0037126
0.835107 0.5 0.4125 0.00371421
0.715434 0.5 -0.6 0.00510506
0.715434 0.5 0.6 0.0050819
0.939201 0.5 3.31766e-17 0.0028679
0.0757758 0.5 -0.9375 0.0159502
0.0757758 0.5 0.9375 0.015784
0.939112 0.5 0.075 0.00287877
0.939201 0.5 -0.075 0.0028787
0.756814 0.5 -0.5625 0.00460135
0.756814 0.5 0.5625 0.00458
0.905821 0.5 0.2625 0.00308698
0.905821 0.5 -0.2625 0.00309243
0.288069 0.5 -0.9 0.0126867
0.288069 0.5 0.9 0.0126035
0.872064 0.5 -0.375 0.00343583
0.872064 0.5 0.375 0.00343187
0.939201 0.5 0.148627 0.00290693
0.939201 0.5 -0.15 0.00290824
0.797732 0.5 -0.525 0.00421331
0.797732 0.5 0.525 0.00419497
0.219992 0.5 -0.9375 0.0138565
0.219992 0.5 0.9375 0.013733
0.939201 0.5 -0.225 0.00295608
0.939201 0.5 0.225 0.00295245
0.905821 0.5 -0.3375 0.00317485
0.905821 0.5 0.3375 0.00316244
0.835107 0.5 -0.4875 0.00384601
0.835107 0.5 0.4875 0.00383132
0 0.5 -0.96882 0.0112799
0 0.5 0.96882 0.0111604
0.0124871 0.5 -0.96882 0.0120513
0.0124871 0.5 0.96882 0.0119248
0.96969 0.5 -0.0375 0.00276621
0.96969 0.5 0.0375 0.00276503
0.574156 0.5 0.7875 0.00730919
0.574156 0.5 -0.7875 0.00734662
0 0.5 -0.975 0.0112766
0 0.5 0.975 0.0111568
0.624316 0.5 -0.75 0.00659664
0.624316 0.5 0.75 0.00656081
0.96969 0.5 -0.1125 0.00278636
0.96969 0.5 0.1125 0.0027847
0.523432 0.5 -0.825 0.00830216
0.523432 0.5 0.825 0.00826225
0.67013 0.5 -0.7125 0.00588272
0.67013 0.5 0.7125 0.00584849
0 0.5 -0.98118 0.0112757
0 0.5 0.98118 0.0111563
0.467897 0.5 -0.8625 0.00929377
0.467897 0.5 0.8625 0.00925099
0.0124871 0.5 -0.98118 0.0120461
0.0124871 0.5 0.98118 0.0119186
0.872064 0.5 0.45 0.00354011
0.872064 0.5 -0.45 0.00354484
0.715434 0.5 -0.675 0.00532688
0.715434 0.5 0.675 0.0052956
0.939201 0.5 0.3 0.00301739
0.939201 0.5 -0.3 0.00302394
0.151149 0.5 -0.975 0.0148643
0.151149 0.5 0.975 0.01472
0.96969 0.5 -0.1875 0.00282435
0.96969 0.5 0.1875 0.00282196
0.756814 0.5 0.6375 0.00477177
0.756814 0.5 -0.6375 0.00480017
0.411736 0.5 -0.9 0.0104754
0.411736 0.5 0.9 0.010426
0.905821 0.5 -0.4125 0.00325667
0.905821 0.5 0.4125 0.00326262
0.995005 0.5 0.0749309 0.00264919
0.797732 0.5 -0.6 0.0043899
0.797732 0.5 0.6 0.00436523
1.00005 0.5 3.26706e-18 0.00261141
0.350249 0.5 0.9375 0.0116119
0.350249 0.5 -0.9375 0.0116679
1.00005 0.5 -0.0749309 0.00262154
0.96969 0.5 -0.2625 0.00288021
0.96969 0.5 0.2625 0.00287743
0.835107 0.5 -0.5625 0.00400181
0.835107 0.5 0.5625 0.00398098
1.00005 0.5 -0.149862 0.00264934
0.939201 0.5 -0.375 0.00310652
0.939201 0.5 0.375 0.00310264
1.00029 0.5 0.148988 0.00265123
0.0757758 0.5 -1.0125 0.0159305
0.0757758 0.5 1.0125 0.0157684
0.288069 0.5 -0.975 0.0127901
0.288069 0.5 0.975 0.0126941
0.872064 0.5 -0.525 0.00368285
0.872064 0.5 0.525 0.00366664
1.00005 0.5 0.224793 0.00269229
1.00005 0.5 -0.224793 0.00269463
0.96969 0.5 0.3375 0.00294972
0.96969 0.5 -0.3375 0.00295542
1.02709 0.5 0.0368226 0.00244892
1.02709 0.5 -0.0368226 0.00244969
0.905821 0.5 0.4875 0.0033697
0.905821 0.5 -0.4875 0.00338163
1.02709 0.5 -0.110468 0.00246715
1.02709 0.5 0.110468 0.00245538
0.67013 0.5 -0.7875 0.0061567
0.67013 0.5 0.7875 0.00611159
0.624316 0.5 -0.825 0.00688954
0.624316 0.5 0.825 0.00684137
0.219992 0.5 -1.0125 0.0138621
0.219992 0.5 1.0125 0.0137344
0.574156 0.5 -0.8625 0.00765794
0.574156 0.5 0.8625 0.00760628
0.715434 0.5 -0.75 0.0055771
0.715434 0.5 0.75 0.005536
0.756814 0.5 -0.7125 0.00502746
0.756814 0.5 0.7125 0.00499018
0.523432 0.5 0.9 0.00856021
0.523432 0.5 -0.9 0.00861504
0.939201 0.5 0.45 0.00320379
0.939201 0.5 -0.45 0.0032155
1.04168 0.5 0 0.002374
1.02709 0.5 -0.184113 0.00250065
1.02709 0.5 0.184113 0.00249912
0 0.5 1.04382 0.0111475
0 0.5 -1.04382 0.0112647
0.0124871 0.5 -1.04382 0.0120351
0.0124871 0.5 1.04382 0.0119098
1.00005 0.5 -0.299723 0.00275816
1.00005 0.5 0.299723 0.00275433
1.04168 0.5 -0.0729162 0.00238235
1.04168 0.5 0.0729162 0.00238145
0.797732 0.5 -0.675 0.00459379
0.797732 0.5 0.675 0.00456074
0.467897 0.5 -0.9375 0.00960539
0.467897 0.5 0.9375 0.00954969
0 0.5 -1.05 0.0112605
0 0.5 1.05 0.0111439
0.835107 0.5 0.6375 0.0041541
0.835107 0.5 -0.6375 0.00418221
1.04168 0.5 -0.145832 0.00240541
1.04168 0.5 0.145832 0.00240423
0.96969 0.5 -0.4125 0.00304627
0.96969 0.5 0.4125 0.00304296
0 0.5 -1.05618 0.0112579
0 0.5 1.05618 0.0111413
0.0124871 0.5 -1.05618 0.0120203
0.0124871 0.5 1.05618 0.0118949
1.05694 0.5 -0.0360765 0.00229874
1.05694 0.5 0.0360765 0.00229795
0.411736 0.5 0.975 0.0106854
0.411736 0.5 -0.975 0.0107531
0.872064 0.5 -0.6 0.0038421
0.872064 0.5 0.6 0.00381918
1.02709 0.5 -0.257758 0.00255103
1.02709 0.5 0.257758 0.00254878
0.151149 0.5 -1.05 0.0148674
0.151149 0.5 1.05 0.0147172
1.05694 0.5 -0.108229 0.00231304
1.05694 0.5 0.108229 0.00229662
1.04168 0.5 -0.218749 0.00244346
1.04168 0.5 0.218749 0.00244167
0.905821 0.5 -0.5625 0.00352001
0.905821 0.5 0.5625 0.00350247
1.00005 0.5 -0.374654 0.0028409
1.00005 0.5 0.374654 0.00283532
0.350249 0.5 -1.0125 0.0119087
0.350249 0.5 1.0125 0.011828
1.05694 0.5 -0.180382 0.00234031
1.05694 0.5 0.180382 0.00233868
1.07319 0.5 0.0709442 0.00224104
0.939201 0.5 0.525 0.00333529
0.939201 0.5 -0.525 0.00335446
1.02709 0.5 -0.331404 0.00261926
1.02709 0.5 0.331404 0.00261514
1.08112 0.5 -3.98986e-18 0.00220678
1.04168 0.5 -0.291665 0.00249729
1.04168 0.5 0.291665 0.00249436
1.08112 0.5 -0.0709442 0.00221367
0.96969 0.5 -0.4875 0.00318416
0.96969 0.5 0.4875 0.00314721
1.05694 0.5 -0.252535 0.00238175
1.05694 0.5 0.252535 0.00237916
0.288069 0.5 -1.05 0.0129344
0.288069 0.5 1.05 0.0128208
0.0757758 0.5 -1.0875 0.0158921
0.0757758 0.5 1.0875 0.0157208
1.08112 0.5 -0.141888 0.00223287
1.08145 0.5 0.140165 0.00223578
0.715434 0.5 -0.825 0.00585569
0.715434 0.5 0.825 0.00580265
0.756814 0.5 -0.7875 0.00528243
0.756814 0.5 0.7875 0.00523479
0.67013 0.5 -0.8625 0.00645898
0.67013 0.5 0.8625 0.00640088
0.797732 0.5 0.75 0.00478328
0.797732 0.5 -0.75 0.0048268
0.624316 0.5 -0.9 0.00720958
0.624316 0.5 0.9 0.00714635
1.00005 0.5 -0.449585 0.00295081
1.00005 0.5 0.449585 0.00293468
0.835107 0.5 -0.7125 0.00439204
0.835107 0.5 0.7125 0.00435364
0.574156 0.5 -0.9375 0.00799481
0.574156 0.5 0.9375 0.00792629
1.10076 0.5 0.034981 0.00213956
1.10076 0.5 -0.034981 0.00213994
1.08112 0.5 -0.212833 0.00226479
1.08112 0.5 0.212833 0.00226383
0.872064 0.5 -0.675 0.00402984
0.872064 0.5 0.675 0.00399714
1.04168 0.5 -0.364581 0.00256985
1.04168 0.5 0.364581 0.0025639
1.02709 0.5 0.405049 0.00270128
1.02709 0.5 -0.405049 0.00270927
1.05694 0.5 -0.324688 0.00243797
1.05694 0.5 0.324688 0.00243377
1.10076 0.5 -0.104943 0.00215255
1.10076 0.5 0.104943 0.00215265
0.523432 0.5 -0.975 0.00895618
0.523432 0.5 0.975 0.00888385
0.905821 0.5 -0.6375 0.00368308
0.905821 0.5 0.6375 0.00365773
0.219992 0.5 -1.0875 0.0139214
0.219992 0.5 1.0875 0.0137794
1.11376 0.5 0 0.00209889
0.939201 0.5 -0.6 0.00350499
0.939201 0.5 0.6 0.00349169
1.10076 0.5 -0.174905 0.00217689
1.10076 0.5 0.174905 0.00217719
0.467897 0.5 -1.0125 0.00995278
0.467897 0.5 1.0125 0.00987435
1.11376 0.5 -0.0693118 0.00210522
1.11376 0.5 0.0693118 0.00210515
1.08112 0.5 -0.283777 0.00231019
1.08112 0.5 0.283777 0.00230842
0 0.5 1.11882 0.0111708
0 0.5 -1.11882 0.0112804
0.0124871 0.5 -1.11882 0.0120427
0.0124871 0.5 1.11882 0.0119244
0.96969 0.5 -0.5625 0.00333825
0.96969 0.5 0.5625 0.00332828
1.11376 0.5 -0.138624 0.00212326
1.11376 0.5 0.138624 0.00212564
0 0.5 -1.125 0.0112877
0 0.5 1.125 0.0111797
1.10076 0.5 0.244867 0.00221421
1.10076 0.5 -0.244867 0.00221426
0.411736 0.5 -1.05 0.01106
0.411736 0.5 1.05 0.0109679
1.05694 0.5 -0.396841 0.00251446
1.05694 0.5 0.396841 0.00250538
1.00005 0.5 -0.524516 0.00309027
1.00005 0.5 0.524516 0.00307055
1.04168 0.5 -0.437497 0.002663
1.04168 0.5 0.437497 0.00265253
0 0.5 -1.13118 0.0112953
0 0.5 1.13118 0.0111882
0.0124871 0.5 -1.13118 0.012064
0.0124871 0.5 1.13118 0.0119492
1.11376 0.5 -0.207935 0.00215339
1.11376 0.5 0.207935 0.00215378
1.02709 0.5 -0.478694 0.00282272
1.02709 0.5 0.478694 0.00280805
0.151149 0.5 -1.125 0.0149295
0.151149 0.5 1.125 0.0147762
1.08112 0.5 0.354721 0.00236747
1.08112 0.5 -0.354721 0.00237199
1.13882 0.5 0.0340295 0.00201779
1.13882 0.5 -0.0340295 0.00201803
0.350249 0.5 -1.0875 0.0121656
0.350249 0.5 1.0875 0.0120592
1.13882 0.5 -0.102088 0.00202971
1.13882 0.5 0.102088 0.00202601
1.10076 0.5 0.314829 0.00226416
1.10076 0.5 -0.314829 0.00226467
0.756814 0.5 -0.8625 0.00556645
0.756814 0.5 0.8625 0.00550528
0.797732 0.5 -0.825 0.00508777
0.797732 0.5 0.825 0.00503308
1.11376 0.5 -0.277247 0.00219624
1.11376 0.5 0.277247 0.00219638
0.835107 0.5 0.7875 0.00458199
0.835107 0.5 -0.7875 0.00463265
0.715434 0.5 -0.9 0.00616391
0.715434 0.5 0.9 0.00609563
0.872064 0.5 -0.75 0.00424831
0.872064 0.5 0.75 0.00420346
1.13882 0.5 0.170147 0.00205311
1.13882 0.5 -0.170147 0.00205234
0.67013 0.5 -0.9375 0.00678907
0.67013 0.5 0.9375 0.00671478
0.905821 0.5 -0.7125 0.00388127
0.905821 0.5 0.7125 0.00384229
1.05694 0.5 -0.468994 0.00260871
1.05694 0.5 0.468994 0.00259639
0.939201 0.5 -0.675 0.00366541
0.939201 0.5 0.675 0.0036428
0.624316 0.5 -0.975 0.00755841
0.624316 0.5 0.975 0.00747782
1.04168 0.5 -0.510414 0.00278064
1.04168 0.5 0.510414 0.0027657
0.96969 0.5 -0.6375 0.00348481
0.96969 0.5 0.6375 0.00348392
0.288069 0.5 -1.125 0.013121
0.288069 0.5 1.125 0.0129863
1.16179 0.5 0 0.0019395
1.08112 0.5 -0.425665 0.00245113
1.08112 0.5 0.425665 0.00244363
1.13882 0.5 0.238206 0.00208778
1.13882 0.5 -0.238206 0.00208704
1.16179 0.5 -0.0669104 0.00194501
1.16179 0.5 0.0669104 0.00193382
0.574156 0.5 1.0125 0.0082761
0.574156 0.5 -1.0125 0.00836217
0.0757758 0.5 1.1625 0.0158353
0.0757758 0.5 -1.1625 0.0159792
1.00005 0.5 -0.599447 0.00323077
1.00005 0.5 0.599447 0.00321883
1.10076 0.5 -0.384791 0.0023334
1.10076 0.5 0.384791 0.00232888
1.02709 0.5 -0.552339 0.00296114
1.02709 0.5 0.552339 0.00294602
1.11376 0.5 0.346559 0.00225241
1.11376 0.5 -0.346559 0.00225427
1.16179 0.5 -0.133821 0.0019608
1.16179 0.5 0.133821 0.00196006
0.523432 0.5 -1.05 0.00932877
0.523432 0.5 1.05 0.00923442
1.17463 0.5 -0.0331343 0.00189794
1.17463 0.5 0.0331343 0.00189778
1.17463 0.5 -0.099403 0.00190817
1.17463 0.5 0.099403 0.00190878
1.16179 0.5 -0.200731 0.00198724
1.16179 0.5 0.200731 0.00198824
1.13882 0.5 -0.306265 0.00213396
1.13882 0.5 0.306265 0.00213458
0.219992 0.5 -1.1625 0.0140562
0.219992 0.5 1.1625 0.0138995
0.467897 0.5 -1.0875 0.0103285
0.467897 0.5 1.0875 0.0102253
1.17463 0.5 -0.165672 0.00192797
1.17463 0.5 0.165672 0.00192935
1.05694 0.5 0.541147 0.00271118
1.05694 0.5 -0.541147 0.00272867
1.18772 0.5 0 0.00185634
1.11376 0.5 -0.415871 0.00232809
1.11376 0.5 0.415871 0.00232438
1.18772 0.5 -0.065614 0.00186121
1.18772 0.5 0.065614 0.0018623
1.08112 0.5 -0.49661 0.00255099
1.08112 0.5 0.49661 0.00253868
1.10076 0.5 -0.454752 0.00241655
1.10076 0.5 0.454752 0.00241169
1.18534 0.5 0.118202 0.00187664
1.16179 0.5 -0.267642 0.00202494
1.16179 0.5 0.267642 0.00202606
0 0.5 -1.19382 0.0113743
0 0.5 1.19382 0.011276
1.04168 0.5 -0.58333 0.0028994
1.04168 0.5 0.58333 0.00288692
0.0124871 0.5 -1.19382 0.012143
0.0124871 0.5 1.19382 0.012037
1.18772 0.5 -0.131228 0.00187542
1.17463 0.5 -0.23194 0.00195862
1.17463 0.5 0.23194 0.00196018
0.411736 0.5 -1.125 0.0113892
0.411736 0.5 1.125 0.0112706
1.13882 0.5 -0.374324 0.00219697
1.13882 0.5 0.374324 0.00219465
0 0.5 -1.2 0.0113828
0 0.5 1.2 0.0112851
0.905821 0.5 -0.7875 0.00410698
0.905821 0.5 0.7875 0.00405566
0.872064 0.5 -0.825 0.00449467
0.872064 0.5 0.825 0.00443915
0.835107 0.5 0.8625 0.00483838
0.835107 0.5 -0.8625 0.00489764
0.939201 0.5 -0.75 0.00385517
0.939201 0.5 0.75 0.00381813
0.797732 0.5 -0.9 0.00538199
0.797732 0.5 0.9 0.00531261
1.02709 0.5 -0.625985 0.00308366
1.02709 0.5 0.625985 0.00306606
0.96969 0.5 -0.7125 0.00362002
0.96969 0.5 0.7125 0.00359418
1.18772 0.5 -0.196842 0.00189937
1.18772 0.5 0.196842 0.00190116
0.756814 0.5 -0.9375 0.00588364
0.756814 0.5 0.9375 0.00580432
0 0.5 -1.20618 0.0113927
0 0.5 1.20618 0.0112953
1.00005 0.5 -0.674378 0.00337771
1.00005 0.5 0.674378 0.0033582
0.0124871 0.5 -1.20618 0.0121673
0.0124871 0.5 1.20618 0.0120621
1.16179 0.5 -0.334552 0.00207591
1.16179 0.5 0.334552 0.00207568
0.715434 0.5 -0.975 0.00650787
0.715434 0.5 0.975 0.00641917
0.151149 0.5 -1.2 0.0150826
0.151149 0.5 1.2 0.0149275
1.20942 0.5 -0.0322645 0.0017854
1.20942 0.5 0.0322645 0.00178433
1.17463 0.5 -0.298209 0.00200006
1.17463 0.5 0.298209 0.00200207
1.20942 0.5 -0.0967935 0.00179413
1.20942 0.5 0.0967935 0.0017952
0.350249 0.5 -1.1625 0.0124495
0.350249 0.5 1.1625 0.0123139
0.67013 0.5 1.0125 0.00705726
0.67013 0.5 -1.0125 0.00715036
1.11376 0.5 -0.485183 0.00242044
1.11376 0.5 0.485183 0.00241206
1.18772 0.5 -0.262456 0.00193368
1.18772 0.5 0.262456 0.00193591
1.10076 0.5 0.524714 0.00250984
1.10076 0.5 -0.524714 0.00252442
1.20942 0.5 -0.161322 0.00181121
1.20942 0.5 0.161322 0.0018133
1.08112 0.5 0.567554 0.00264842
1.08112 0.5 -0.567554 0.00265143
0.624316 0.5 -1.05 0.00794081
0.624316 0.5 1.05 0.0078379
1.13882 0.5 -0.442383 0.00227341
1.13882 0.5 0.442383 0.00227106
1.05694 0.5 0.6133 0.00281999
1.05694 0.5 -0.6133 0.00282572
1.16179 0.5 -0.401463 0.00214073
1.16179 0.5 0.401463 0.00213932
0.574156 0.5 1.0875 0.00865154
0.574156 0.5 -1.0875 0.00876086
1.17463 0.5 -0.364478 0.00205623
1.17463 0.5 0.364478 0.00205564
1.20942 0.5 0.225851 0.00184038
1.20942 0.5 -0.225851 0.00183785
1.23036 0.5 1.15648e-18 0.00172062
1.2294 0.5 0.0634819 0.00172808
1.04168 0.5 -0.656246 0.00303286
1.04168 0.5 0.656246 0.00301442
1.23036 0.5 -0.0634819 0.00172458
1.18772 0.5 0.32807 0.00198161
1.18772 0.5 -0.32807 0.00198023
0.288069 0.5 1.2 0.0131852
0.288069 0.5 -1.2 0.0133452
1.23036 0.5 -0.126964 0.0017365
1.23036 0.5 0.126964 0.00173818
0.0757758 0.5 -1.2375 0.0161487
0.0757758 0.5 1.2375 0.0160053
0.523432 0.5 -1.125 0.00972786
0.523432 0.5 1.125 0.00960818
1.02709 0.5 0.69963 0.00322614
1.02709 0.5 -0.69963 0.00325365
1.24275 0.5 -0.0314313 0.00168381
1.24275 0.5 0.0314313 0.00168406
1.20942 0.5 -0.29038 0.00187417
1.20942 0.5 0.29038 0.00187748
1.11376 0.5 -0.554494 0.00251399
1.11376 0.5 0.554494 0.00251953
1.23036 0.5 -0.190446 0.00175679
1.23036 0.5 0.190446 0.00175919
1.24275 0.5 -0.0942939 0.00169133
1.24275 0.5 0.0942939 0.00169289
1.13882 0.5 -0.510442 0.002368
1.13882 0.5 0.510442 0.00235984
0.96969 0.5 0.7875 0.00378888
0.96969 0.5 -0.7875 0.00382145
1.00005 0.5 0.749309 0.00352829
1.00005 0.5 -0.749309 0.00356053
0.939201 0.5 -0.825 0.00407924
0.939201 0.5 0.825 0.00403261
0.905821 0.5 -0.8625 0.00436158
0.905821 0.5 0.8625 0.00430077
1.17463 0.5 0.430746 0.00212466
1.17463 0.5 -0.430746 0.00212442
1.10076 0.5 0.594676 0.0026307
1.10076 0.5 -0.594676 0.0026097
1.18772 0.5 -0.393684 0.00203985
1.18772 0.5 0.393684 0.00204039
1.24275 0.5 -0.157157 0.00170634
1.24275 0.5 0.157157 0.00170922
1.16179 0.5 -0.468373 0.00222082
1.16179 0.5 0.468373 0.00221563
0.467897 0.5 -1.1625 0.0107217
0.467897 0.5 1.1625 0.0105921
0.872064 0.5 -0.9 0.00477463
0.872064 0.5 0.9 0.00470756
1.25401 0.5 0 0.0016546
0.835107 0.5 -0.9375 0.00520884
0.835107 0.5 0.9375 0.00513097
1.25401 0.5 0.0622994 0.0016587
1.25401 0.5 -0.0622994 0.00165808
1.08112 0.5 0.638498 0.00275917
1.08112 0.5 -0.638498 0.00276385
1.23036 0.5 -0.253928 0.00178602
1.23036 0.5 0.253928 0.00178902
0.219992 0.5 -1.2375 0.0142743
0.219992 0.5 1.2375 0.0140994
1.2531 0.5 0.121964 0.001671
1.05694 0.5 -0.685453 0.0029761
1.05694 0.5 0.685453 0.00295093
0.797732 0.5 -0.975 0.00571306
0.797732 0.5 0.975 0.00562249
1.25401 0.5 -0.124599 0.00166887
1.20942 0.5 -0.354909 0.00192357
1.20942 0.5 0.354909 0.00192508
1.24275 0.5 -0.220019 0.00172992
1.24275 0.5 0.220019 0.00173348
0.756814 0.5 -1.0125 0.00625107
0.756814 0.5 1.0125 0.00614343
1.25401 0.5 -0.186898 0.00168735
1.25401 0.5 0.186898 0.00169045
0.411736 0.5 -1.2 0.0117159
0.411736 0.5 1.2 0.011563
0 0.5 -1.26882 0.0115146
0 0.5 1.26882 0.0114213
0.0124871 0.5 -1.26882 0.0122892
0.0124871 0.5 1.26882 0.0121882
0.715434 0.5 -1.05 0.00688661
0.715434 0.5 1.05 0.00677538
1.23036 0.5 -0.317409 0.00182575
1.23036 0.5 0.317409 0.00182839
1.04168 0.5 -0.729162 0.00321082
1.04168 0.5 0.729162 0.00317935
1.18772 0.5 -0.459298 0.00211392
1.18772 0.5 0.459298 0.00211089
1.24275 0.5 0.282882 0.0017667
1.24275 0.5 -0.282882 0.0017621
0 0.5 -1.275 0.0115277
0 0.5 1.275 0.0114351
1.27472 0.5 -0.0306319 0.001591
1.27472 0.5 0.0306319 0.00159139
1.17463 0.5 -0.497015 0.0022097
1.17463 0.5 0.497015 0.0022021
1.11376 0.5 0.623806 0.00262478
1.11376 0.5 -0.623806 0.00261712
1.13882 0.5 -0.578501 0.00244897
1.13882 0.5 0.578501 0.00247455
0.67013 0.5 -1.0875 0.0075527
0.67013 0.5 1.0875 0.00743009
1.27472 0.5 0.0918957 0.00161086
1.27472 0.5 -0.0918957 0.00159742
1.25401 0.5 -0.249198 0.00171415
1.25401 0.5 0.249198 0.00171809
1.16179 0.5 -0.535283 0.00230489
1.16179 0.5 0.535283 0.00231209
1.20942 0.5 0.419438 0.0019867
1.20942 0.5 -0.419438 0.00198495
0 0.5 -1.28118 0.0115414
0 0.5 1.28118 0.0114494
0.0124871 0.5 -1.28118 0.0123256
0.0124871 0.5 1.28118 0.0122261
1.27472 0.5 -0.15316 0.00161042
1.27472 0.5 0.15316 0.00161364
0.151149 0.5 -1.275 0.0153085
0.151149 0.5 1.275 0.0151482
1.02709 0.5 -0.773275 0.00345774
1.02709 0.5 0.773275 0.00342035