# pMean  POINT_DATA 63889
# x  y  z  pMean
0 0.5 3.39582e-17 0.194879
0 0.5 -0.00617965 0.194892
0 0.5 0.00617965 0.19487
0.0124871 0.5 -0.00617965 0.194892
0.0124871 0.5 0.00617965 0.19487
0 0.5 -0.0688203 0.194727
0 0.5 0.0688203 0.194483
0.0124871 0.5 -0.0688203 0.194727
0.0124871 0.5 0.0688203 0.194483
0 0.5 -0.075 0.194681
0 0.5 0.075 0.194416
0 0.5 -0.0811797 0.19464
0 0.5 0.0811797 0.194352
0.0124871 0.5 -0.0811797 0.19464
0.0124871 0.5 0.0811797 0.194352
0.0757758 0.5 -0.0375 0.194958
0.0757758 0.5 0.0375 0.194823
0.0757758 0.5 -0.1125 0.194428
0.0757758 0.5 0.1125 0.194031
0 0.5 -0.14382 0.193937
0 0.5 0.14382 0.193434
0.0124871 0.5 -0.14382 0.193937
0.0124871 0.5 0.14382 0.193434
0 0.5 -0.15 0.19384
0 0.5 0.15 0.193316
0.151149 0.5 -0.00137326 0.195247
0 0.5 -0.15618 0.193747
0 0.5 0.15618 0.193201
0.0124871 0.5 -0.15618 0.193747
0.0124871 0.5 0.15618 0.193201
0.151149 0.5 -0.075 0.195061
0.151149 0.5 0.075 0.194791
0.0757758 0.5 -0.1875 0.193275
0.0757758 0.5 0.1875 0.192623
0.151149 0.5 -0.15 0.194211
0.151149 0.5 0.15 0.193678
0 0.5 -0.21882 0.192524
0 0.5 0.21882 0.191766
0.0124871 0.5 -0.21882 0.192524
0.0124871 0.5 0.21882 0.191766
0.219992 0.5 -0.0375 0.195682
0.219992 0.5 0.0375 0.195543
0 0.5 -0.225 0.192375
0 0.5 0.225 0.191596
0 0.5 -0.23118 0.19223
0 0.5 0.23118 0.19143
0.0124871 0.5 -0.23118 0.19223
0.0124871 0.5 0.23118 0.19143
0.219992 0.5 -0.1125 0.195164
0.219992 0.5 0.1125 0.194756
0.151149 0.5 -0.225 0.192722
0.151149 0.5 0.225 0.191929
0.0757758 0.5 -0.2625 0.191497
0.0757758 0.5 0.2625 0.190592
0.288069 0.5 -0.00137326 0.198967
0.219992 0.5 -0.1875 0.193966
0.219992 0.5 0.1875 0.193291
0 0.5 -0.29382 0.190499
0 0.5 0.29382 0.189493
0.0124871 0.5 -0.29382 0.190499
0.0124871 0.5 0.29382 0.189493
0.288069 0.5 -0.075 0.198789
0.288069 0.5 0.075 0.198502
0 0.5 -0.3 0.190302
0 0.5 0.3 0.189275
0 0.5 -0.30618 0.190107
0 0.5 0.30618 0.189061
0.0124871 0.5 -0.30618 0.190107
0.0124871 0.5 0.30618 0.189061
0.288069 0.5 -0.15 0.19787
0.288069 0.5 0.15 0.197302
0.151149 0.5 -0.3 0.190621
0.151149 0.5 0.3 0.189575
0.219992 0.5 -0.2625 0.192143
0.219992 0.5 0.2625 0.191203
0.0757758 0.5 -0.3375 0.189128
0.0757758 0.5 0.3375 0.18798
0.350249 0.5 -0.0375 0.202264
0.350249 0.5 0.0375 0.202114
0.288069 0.5 -0.225 0.196258
0.288069 0.5 0.225 0.195415
0.350249 0.5 -0.1125 0.201663
0.350249 0.5 0.1125 0.201215
0 0.5 0.36882 0.186654
0 0.5 -0.36882 0.187899
0.0124871 0.5 -0.36882 0.187899
0.0124871 0.5 0.36882 0.186654
0 0.5 -0.375 0.187655
0 0.5 0.375 0.186392
0 0.5 -0.38118 0.187415
0 0.5 0.38118 0.186133
0.0124871 0.5 -0.38118 0.187415
0.0124871 0.5 0.38118 0.186133
0.350249 0.5 -0.1875 0.200311
0.350249 0.5 0.1875 0.199575
0.219992 0.5 -0.3375 0.189711
0.219992 0.5 0.3375 0.18852
0.151149 0.5 -0.375 0.187939
0.151149 0.5 0.375 0.186652
0.411736 0.5 -0.00137326 0.20665
0.288069 0.5 -0.3 0.193989
0.288069 0.5 0.3 0.19288
0.411736 0.5 -0.075 0.206443
0.411736 0.5 0.075 0.20613
0.0757758 0.5 -0.4125 0.186204
0.0757758 0.5 0.4125 0.184824
0.350249 0.5 -0.2625 0.198248
0.350249 0.5 0.2625 0.197232
0.411736 0.5 -0.15 0.205395
0.411736 0.5 0.15 0.204774
0 0.5 -0.44382 0.18476
0 0.5 0.44382 0.18329
0.0124871 0.5 -0.44382 0.18476
0.0124871 0.5 0.44382 0.18329
0 0.5 -0.45 0.184475
0 0.5 0.45 0.182986
0 0.5 -0.45618 0.184192
0 0.5 0.45618 0.182685
0.0124871 0.5 -0.45618 0.184192
0.0124871 0.5 0.45618 0.182685
0.219992 0.5 -0.4125 0.186713
0.219992 0.5 0.4125 0.185285
0.411736 0.5 0.225 0.202647
0.411736 0.5 -0.225 0.203566
0.467897 0.5 0.0375 0.210861
0.467897 0.5 -0.0375 0.211025
0.288069 0.5 -0.375 0.191098
0.288069 0.5 0.375 0.189736
0.151149 0.5 -0.45 0.184718
0.151149 0.5 0.45 0.183203
0.467897 0.5 -0.1125 0.210333
0.467897 0.5 0.1125 0.209843
0.350249 0.5 -0.3375 0.195507
0.350249 0.5 0.3375 0.194222
0.0757758 0.5 0.4875 0.181168
0.0757758 0.5 -0.4875 0.182766
0.467897 0.5 -0.1875 0.208794
0.467897 0.5 0.1875 0.207988
0.411736 0.5 -0.3 0.200992
0.411736 0.5 0.3 0.199787
0 0.5 -0.51882 0.181129
0 0.5 0.51882 0.179445
0.0124871 0.5 -0.51882 0.181129
0.0124871 0.5 0.51882 0.179445
0.523432 0.5 -0.00137326 0.216226
0 0.5 -0.525 0.180805
0 0.5 0.525 0.179104
0.523432 0.5 -0.075 0.215984
0.523432 0.5 0.075 0.215638
0 0.5 -0.53118 0.180484
0 0.5 0.53118 0.178766
0.0124871 0.5 -0.53118 0.180484
0.0124871 0.5 0.53118 0.178766
0.288069 0.5 -0.45 0.187633
0.288069 0.5 0.45 0.186033
0.219992 0.5 -0.4875 0.183193
0.219992 0.5 0.4875 0.181541
0.467897 0.5 -0.2625 0.206443
0.467897 0.5 0.2625 0.205332
0.350249 0.5 -0.4125 0.192136
0.350249 0.5 0.4125 0.190597
0.523432 0.5 -0.15 0.214783
0.523432 0.5 0.15 0.214097
0.151149 0.5 -0.525 0.181003
0.151149 0.5 0.525 0.179274
0.411736 0.5 -0.375 0.197721
0.411736 0.5 0.375 0.196244
0.0757758 0.5 -0.5625 0.178863
0.0757758 0.5 0.5625 0.177061
0.523432 0.5 -0.225 0.212692
0.523432 0.5 0.225 0.211678
0.574156 0.5 0.0375 0.221234
0.574156 0.5 -0.0375 0.221417
0.467897 0.5 -0.3375 0.203324
0.467897 0.5 0.3375 0.201921
0.574156 0.5 -0.1125 0.220619
0.574156 0.5 0.1125 0.220073
0 0.5 -0.59382 0.177054
0 0.5 0.59382 0.175172
0.0124871 0.5 -0.59382 0.177054
0.0124871 0.5 0.59382 0.175172
0.288069 0.5 -0.525 0.183647
0.288069 0.5 0.525 0.181824
0 0.5 -0.6 0.176696
0 0.5 0.6 0.174798
0.350249 0.5 0.4875 0.186415
0.350249 0.5 -0.4875 0.188191
0.523432 0.5 -0.3 0.209754
0.523432 0.5 0.3 0.208427
0.219992 0.5 -0.5625 0.179198
0.219992 0.5 0.5625 0.177339
0.574156 0.5 -0.1875 0.218854
0.574156 0.5 0.1875 0.217954
0 0.5 -0.60618 0.17634
0 0.5 0.60618 0.174427
0.0124871 0.5 -0.60618 0.17634
0.0124871 0.5 0.60618 0.174427
0.411736 0.5 -0.45 0.193809
0.411736 0.5 0.45 0.192078
0.151149 0.5 -0.6 0.176844
0.151149 0.5 0.6 0.174917
0.62168 0.5 4.33681e-17 0.226962
0.467897 0.5 -0.4125 0.199494
0.467897 0.5 0.4125 0.19782
0.624316 0.5 0.0729401 0.226614
0.624316 0.5 -0.075 0.227002
0.574156 0.5 -0.2625 0.216161
0.574156 0.5 0.2625 0.214925
0.0757758 0.5 -0.6375 0.174547
0.0757758 0.5 0.6375 0.172555
0.624316 0.5 -0.15 0.22562
0.624316 0.5 0.15 0.224851
0.523432 0.5 -0.375 0.206025
0.523432 0.5 0.375 0.204405
0.350249 0.5 -0.5625 0.183733
0.350249 0.5 0.5625 0.181738
0.624316 0.5 -0.225 0.22322
0.624316 0.5 0.225 0.222084
0.288069 0.5 -0.6 0.179196
0.288069 0.5 0.6 0.177169
0.574156 0.5 -0.3375 0.212593
0.574156 0.5 0.3375 0.211042
0.411736 0.5 0.525 0.187356
0.411736 0.5 -0.525 0.189322
0 0.5 0.66882 0.170522
0 0.5 -0.66882 0.172588
0.0124871 0.5 -0.66882 0.172588
0.0124871 0.5 0.66882 0.170522
0.67013 0.5 -0.0375 0.233164
0.67013 0.5 0.0375 0.232957
0.219992 0.5 -0.6375 0.174783
0.219992 0.5 0.6375 0.172732
0 0.5 -0.675 0.1722
0 0.5 0.675 0.17012
0.467897 0.5 -0.4875 0.195021
0.467897 0.5 0.4875 0.193095
0.67013 0.5 -0.1125 0.232241
0.67013 0.5 0.1125 0.231627
0 0.5 -0.68118 0.171815
0 0.5 0.68118 0.169721
0.0124871 0.5 -0.68118 0.171815
0.0124871 0.5 0.68118 0.169721
0.523432 0.5 -0.45 0.201575
0.523432 0.5 0.45 0.199682
0.151149 0.5 -0.675 0.172296
0.151149 0.5 0.675 0.170186
0.624316 0.5 -0.3 0.219852
0.624316 0.5 0.3 0.218371
0.67013 0.5 -0.1875 0.23021
0.67013 0.5 0.1875 0.229199
0.574156 0.5 0.4125 0.206374
0.574156 0.5 -0.4125 0.208221
0.708171 0.5 3.5345e-17 0.23846
0.0757758 0.5 -0.7125 0.169871
0.0757758 0.5 0.7125 0.167704
0.715434 0.5 0.0736267 0.238539
0.715434 0.5 -0.075 0.239143
0.67013 0.5 -0.2625 0.227116
0.67013 0.5 0.2625 0.225724
0.350249 0.5 -0.6375 0.178827
0.350249 0.5 0.6375 0.176633
0.411736 0.5 0.6 0.182151
0.411736 0.5 -0.6 0.184331
0.624316 0.5 -0.375 0.215584
0.624316 0.5 0.375 0.213784
0.715434 0.5 -0.15 0.237553
0.715434 0.5 0.15 0.236685
0.467897 0.5 -0.5625 0.189982
0.467897 0.5 0.5625 0.187825
0.288069 0.5 -0.675 0.174341
0.288069 0.5 0.675 0.172128
0.523432 0.5 -0.525 0.196485
0.523432 0.5 0.525 0.194343
0 0.5 0.74382 0.165552
0 0.5 -0.74382 0.167785
0.0124871 0.5 -0.74382 0.167785
0.0124871 0.5 0.74382 0.165552
0.219992 0.5 0.7125 0.167776
0.219992 0.5 -0.7125 0.170001
0.715434 0.5 -0.225 0.234795
0.715434 0.5 0.225 0.233516
0 0.5 -0.75 0.167372
0 0.5 0.75 0.165126
0.67013 0.5 -0.3375 0.223022
0.67013 0.5 0.3375 0.221284
0.574156 0.5 -0.4875 0.203128
0.574156 0.5 0.4875 0.201011
0 0.5 0.75618 0.164702
0 0.5 -0.75618 0.166961
0.0124871 0.5 -0.75618 0.166961
0.0124871 0.5 0.75618 0.164702
0.756814 0.5 0.0375 0.245602
0.756814 0.5 -0.0375 0.245837
0.151149 0.5 0.75 0.165136
0.151149 0.5 -0.75 0.167412
0.756814 0.5 -0.1125 0.244775
0.756814 0.5 0.1125 0.244078
0.624316 0.5 -0.45 0.210505
0.624316 0.5 0.45 0.20841
0.715434 0.5 -0.3 0.230933
0.715434 0.5 0.3 0.229268
0.756814 0.5 -0.1875 0.242441
0.756814 0.5 0.1875 0.241298
0.67013 0.5 -0.4125 0.218016
0.67013 0.5 0.4125 0.21596
0.411736 0.5 -0.675 0.178909
0.411736 0.5 0.675 0.176537
0.467897 0.5 -0.6375 0.184455
0.467897 0.5 0.6375 0.182091
0.0757758 0.5 -0.7875 0.164891
0.0757758 0.5 0.7875 0.162565
0.350249 0.5 -0.7125 0.173542
0.350249 0.5 0.7125 0.171168
0.523432 0.5 0.6 0.188475
0.523432 0.5 -0.6 0.190842
0.797732 0.5 1.60462e-17 0.252435
0.756814 0.5 -0.2625 0.238886
0.756814 0.5 0.2625 0.237322
0.797732 0.5 0.0736267 0.251387
0.797732 0.5 -0.075 0.251991
0.288069 0.5 0.75 0.166764
0.288069 0.5 -0.75 0.169145
0.574156 0.5 -0.5625 0.197408
0.574156 0.5 0.5625 0.195048
0.715434 0.5 -0.375 0.22605
0.715434 0.5 0.375 0.224031
0.797732 0.5 -0.15 0.250171
0.797732 0.5 0.15 0.249186
0.624316 0.5 -0.525 0.204712
0.624316 0.5 0.525 0.20235
0.219992 0.5 -0.7875 0.164911
0.219992 0.5 0.7875 0.162529
0 0.5 -0.81882 0.1627
0 0.5 0.81882 0.160315
0.0124871 0.5 -0.81882 0.1627
0.0124871 0.5 0.81882 0.160315
0 0.5 -0.825 0.162266
0 0.5 0.825 0.15987
0.756814 0.5 -0.3375 0.234203
0.756814 0.5 0.3375 0.232246
0.67013 0.5 0.4875 0.209853
0.67013 0.5 -0.4875 0.212203
0.797732 0.5 0.225 0.245568
0.797732 0.5 -0.225 0.247016
0 0.5 -0.83118 0.161835
0 0.5 0.83118 0.159427
0.0124871 0.5 -0.83118 0.161835
0.0124871 0.5 0.83118 0.159427
0.835107 0.5 -0.0375 0.259024
0.835107 0.5 0.0375 0.258756
0.151149 0.5 -0.825 0.16225
0.151149 0.5 0.825 0.159824
0.835107 0.5 0.1125 0.257017
0.835107 0.5 -0.1125 0.257812
0.715434 0.5 -0.45 0.22025
0.715434 0.5 0.45 0.217911
0.797732 0.5 -0.3 0.242605
0.797732 0.5 0.3 0.240723
0.467897 0.5 0.7125 0.175976
0.467897 0.5 -0.7125 0.178525
0.523432 0.5 -0.675 0.184737
0.523432 0.5 0.675 0.18217
0.411736 0.5 0.75 0.17059
0.411736 0.5 -0.75 0.173134
0.835107 0.5 -0.1875 0.25515
0.835107 0.5 0.1875 0.253848
0.574156 0.5 0.6375 0.188583
0.574156 0.5 -0.6375 0.191159
0.350249 0.5 -0.7875 0.167945
0.350249 0.5 0.7875 0.165411
0.756814 0.5 -0.4125 0.228487
0.756814 0.5 0.4125 0.226174
0.0757758 0.5 -0.8625 0.15966
0.0757758 0.5 0.8625 0.157192
0.624316 0.5 -0.6 0.198312
0.624316 0.5 0.6 0.195715
0.872064 0.5 4.81386e-17 0.265763
0.870122 0.5 0.075 0.264199
0.288069 0.5 -0.825 0.16367
0.288069 0.5 0.825 0.161139
0.67013 0.5 -0.5625 0.205695
0.67013 0.5 0.5625 0.203087
0.872064 0.5 -0.075 0.265259
0.835107 0.5 -0.2625 0.251099
0.835107 0.5 0.2625 0.249322
0.797732 0.5 -0.375 0.23704
0.797732 0.5 0.375 0.234763
0.872064 0.5 0.14794 0.26207
0.872064 0.5 -0.15 0.26319
0.715434 0.5 0.525 0.211031
0.715434 0.5 -0.525 0.213654
0.219992 0.5 -0.8625 0.159569
0.219992 0.5 0.8625 0.157045
0 0.5 -0.89382 0.157386
0 0.5 0.89382 0.154866
0.0124871 0.5 -0.89382 0.157386
0.0124871 0.5 0.89382 0.154866
0 0.5 -0.9 0.156936
0 0.5 0.9 0.154405
0.756814 0.5 -0.4875 0.221856
0.756814 0.5 0.4875 0.219231
0.872064 0.5 -0.225 0.259605
0.872064 0.5 0.225 0.257963
0.835107 0.5 0.3375 0.243543
0.835107 0.5 -0.3375 0.245766
0 0.5 -0.90618 0.156489
0 0.5 0.90618 0.153948
0.0124871 0.5 -0.90618 0.156489
0.0124871 0.5 0.90618 0.153948
0.905821 0.5 0.0375 0.27225
0.905821 0.5 -0.0375 0.272554
0.151149 0.5 -0.9 0.156863
0.151149 0.5 0.9 0.154303
0.905821 0.5 -0.1125 0.271179
0.905821 0.5 0.1125 0.270277
0.523432 0.5 -0.75 0.178262
0.523432 0.5 0.75 0.175521
0.574156 0.5 -0.7125 0.184483
0.574156 0.5 0.7125 0.181718
0.797732 0.5 -0.45 0.23044
0.797732 0.5 0.45 0.227818
0.467897 0.5 0.7875 0.169564
0.467897 0.5 -0.7875 0.172274
0.624316 0.5 -0.675 0.191417
0.624316 0.5 0.675 0.188615
0.411736 0.5 -0.825 0.16708
0.411736 0.5 0.825 0.164385
0.872064 0.5 -0.3 0.254596
0.872064 0.5 0.3 0.252466
0.67013 0.5 0.6375 0.195782
0.67013 0.5 -0.6375 0.198613
0.905821 0.5 -0.1875 0.268161
0.905821 0.5 0.1875 0.266685
0.350249 0.5 -0.8625 0.162103
0.350249 0.5 0.8625 0.159429
0.835107 0.5 -0.4125 0.239265
0.835107 0.5 0.4125 0.236662
0.715434 0.5 -0.6 0.206395
0.715434 0.5 0.6 0.203526
0.939201 0.5 3.31766e-17 0.279112
0.0757758 0.5 -0.9375 0.15423
0.0757758 0.5 0.9375 0.151636
0.939112 0.5 0.075 0.277725
0.939201 0.5 -0.075 0.278547
0.756814 0.5 -0.5625 0.214464
0.756814 0.5 0.5625 0.211567
0.905821 0.5 0.2625 0.261562
0.905821 0.5 -0.2625 0.263571
0.288069 0.5 -0.9 0.157976
0.288069 0.5 0.9 0.155313
0.872064 0.5 -0.375 0.248282
0.872064 0.5 0.375 0.245718
0.939201 0.5 0.148627 0.274843
0.939201 0.5 -0.15 0.27622
0.797732 0.5 -0.525 0.222959
0.797732 0.5 0.525 0.220035
0.219992 0.5 -0.9375 0.154029
0.219992 0.5 0.9375 0.151381
0.939201 0.5 -0.225 0.272188
0.939201 0.5 0.225 0.270321
0.905821 0.5 -0.3375 0.25753
0.905821 0.5 0.3375 0.255029
0.835107 0.5 -0.4875 0.231749
0.835107 0.5 0.4875 0.228817
0 0.5 -0.96882 0.151896
0 0.5 0.96882 0.149255
0.0124871 0.5 -0.96882 0.151896
0.0124871 0.5 0.96882 0.149255
0.96969 0.5 -0.0375 0.285797
0.96969 0.5 0.0375 0.285449
0.574156 0.5 0.7875 0.174554
0.574156 0.5 -0.7875 0.177481
0 0.5 -0.975 0.151434
0 0.5 0.975 0.148784
0.624316 0.5 -0.75 0.184139
0.624316 0.5 0.75 0.181162
0.96969 0.5 -0.1125 0.284264
0.96969 0.5 0.1125 0.283232
0.523432 0.5 -0.825 0.171508
0.523432 0.5 0.825 0.168617
0.67013 0.5 -0.7125 0.191082
0.67013 0.5 0.7125 0.188059
0 0.5 -0.98118 0.150974
0 0.5 0.98118 0.148315
0.467897 0.5 -0.8625 0.165784
0.467897 0.5 0.8625 0.162933
0.0124871 0.5 -0.98118 0.150974
0.0124871 0.5 0.98118 0.148315
0.872064 0.5 0.45 0.237878
0.872064 0.5 -0.45 0.240814
0.715434 0.5 -0.675 0.198607
0.715434 0.5 0.675 0.195529
0.939201 0.5 0.3 0.264141
0.939201 0.5 -0.3 0.266549
0.151149 0.5 -0.975 0.151304
0.151149 0.5 0.975 0.148627
0.96969 0.5 -0.1875 0.280889
0.96969 0.5 0.1875 0.279203
0.756814 0.5 0.6375 0.203326
0.756814 0.5 -0.6375 0.206451
0.411736 0.5 -0.9 0.160819
0.411736 0.5 0.9 0.157993
0.905821 0.5 -0.4125 0.250178
0.905821 0.5 0.4125 0.24726
0.995005 0.5 0.0749309 0.289412
0.797732 0.5 -0.6 0.214757
0.797732 0.5 0.6 0.211576
1.00005 0.5 3.26706e-18 0.292091
0.350249 0.5 0.9375 0.153287
0.350249 0.5 -0.9375 0.156081
1.00005 0.5 -0.0749309 0.291456
0.96969 0.5 -0.2625 0.275756
0.96969 0.5 0.2625 0.273467
0.835107 0.5 -0.5625 0.223403
0.835107 0.5 0.5625 0.220175
1.00005 0.5 -0.149862 0.288845
0.939201 0.5 -0.375 0.259448
0.939201 0.5 0.375 0.256563
1.00029 0.5 0.148988 0.28723
0.0757758 0.5 -1.0125 0.148653
0.0757758 0.5 1.0125 0.145948
0.288069 0.5 -0.975 0.152123
0.288069 0.5 0.975 0.149346
0.872064 0.5 -0.525 0.23238
0.872064 0.5 0.525 0.229118
1.00005 0.5 0.224793 0.28224
1.00005 0.5 -0.224793 0.284323
0.96969 0.5 0.3375 0.266165
0.96969 0.5 -0.3375 0.268988
1.02709 0.5 0.0368226 0.298479
1.02709 0.5 -0.0368226 0.298864
0.905821 0.5 0.4875 0.238429
0.905821 0.5 -0.4875 0.241709
1.02709 0.5 -0.110468 0.297181
1.02709 0.5 0.110468 0.295989
0.67013 0.5 -0.7875 0.183223
0.67013 0.5 0.7875 0.180041
0.624316 0.5 -0.825 0.176588
0.624316 0.5 0.825 0.173464
0.219992 0.5 -1.0125 0.148346
0.219992 0.5 1.0125 0.14559
0.574156 0.5 -0.8625 0.170251
0.574156 0.5 0.8625 0.167187
0.715434 0.5 -0.75 0.190426
0.715434 0.5 0.75 0.187175
0.756814 0.5 -0.7125 0.197967
0.756814 0.5 0.7125 0.194651
0.523432 0.5 0.9 0.161544
0.523432 0.5 -0.9 0.164563
0.939201 0.5 0.45 0.247771
0.939201 0.5 -0.45 0.251071
1.04168 0.5 0 0.30256
1.02709 0.5 -0.184113 0.293476
1.02709 0.5 0.184113 0.291614
0 0.5 1.04382 0.143534
0 0.5 -1.04382 0.146279
0.0124871 0.5 -1.04382 0.146279
0.0124871 0.5 1.04382 0.143534
1.00005 0.5 -0.299723 0.278004
1.00005 0.5 0.299723 0.275326
1.04168 0.5 -0.0729162 0.301913
1.04168 0.5 0.0729162 0.301134
0.797732 0.5 -0.675 0.205993
0.797732 0.5 0.675 0.202602
0.467897 0.5 -0.9375 0.15913
0.467897 0.5 0.9375 0.156159
0 0.5 -1.05 0.145809
0 0.5 1.05 0.143057
0.835107 0.5 0.6375 0.210928
0.835107 0.5 -0.6375 0.214387
1.04168 0.5 -0.145832 0.299209
1.04168 0.5 0.145832 0.297673
0.96969 0.5 -0.4125 0.260771
0.96969 0.5 0.4125 0.257484
0 0.5 -1.05618 0.145342
0 0.5 1.05618 0.142582
0.0124871 0.5 -1.05618 0.145342
0.0124871 0.5 1.05618 0.142582
1.05694 0.5 -0.0360765 0.306564
1.05694 0.5 0.0360765 0.306173
0.411736 0.5 0.975 0.151483
0.411736 0.5 -0.975 0.15442
0.872064 0.5 -0.6 0.223163
0.872064 0.5 0.6 0.219636
1.02709 0.5 -0.257758 0.287842
1.02709 0.5 0.257758 0.285313
0.151149 0.5 -1.05 0.145627
0.151149 0.5 1.05 0.142849
1.05694 0.5 -0.108229 0.30487
1.05694 0.5 0.108229 0.304398
1.04168 0.5 -0.218749 0.294516
1.04168 0.5 0.218749 0.292269
0.905821 0.5 -0.5625 0.232337
0.905821 0.5 0.5625 0.228746
1.00005 0.5 -0.374654 0.270061
1.00005 0.5 0.374654 0.266859
0.350249 0.5 -1.0125 0.149943
0.350249 0.5 1.0125 0.147045
1.05694 0.5 -0.180382 0.301135
1.05694 0.5 0.180382 0.299235
1.07319 0.5 0.0709442 0.30892
0.939201 0.5 0.525 0.237985
0.939201 0.5 -0.525 0.24164
1.02709 0.5 -0.331404 0.280422
1.02709 0.5 0.331404 0.277302
1.08112 0.5 -3.98986e-18 0.312944
1.04168 0.5 -0.291665 0.287947
1.04168 0.5 0.291665 0.285057
1.08112 0.5 -0.0709442 0.312305
0.96969 0.5 -0.4875 0.251331
0.96969 0.5 0.4875 0.247626
1.05694 0.5 -0.252535 0.295446
1.05694 0.5 0.252535 0.292863
0.288069 0.5 -1.05 0.146169
0.288069 0.5 1.05 0.143295
0.0757758 0.5 -1.0875 0.142981
0.0757758 0.5 1.0875 0.140181
1.08112 0.5 -0.141888 0.309584
1.08145 0.5 0.140165 0.307616
0.715434 0.5 -0.825 0.181984
0.715434 0.5 0.825 0.178592
0.756814 0.5 -0.7875 0.189163
0.756814 0.5 0.7875 0.185691
0.67013 0.5 -0.8625 0.175152
0.67013 0.5 0.8625 0.17184
0.797732 0.5 0.75 0.193272
0.797732 0.5 -0.75 0.196831
0.624316 0.5 -0.9 0.168867
0.624316 0.5 0.9 0.165621
1.00005 0.5 -0.449585 0.260714
1.00005 0.5 0.449585 0.257059
0.835107 0.5 -0.7125 0.204884
0.835107 0.5 0.7125 0.201238
0.574156 0.5 -0.9375 0.162883
0.574156 0.5 0.9375 0.159705
1.10076 0.5 0.034981 0.318136
1.10076 0.5 -0.034981 0.318569
1.08112 0.5 -0.212833 0.304842
1.08112 0.5 0.212833 0.302474
0.872064 0.5 -0.675 0.213347
0.872064 0.5 0.675 0.209614
1.04168 0.5 -0.364581 0.279683
1.04168 0.5 0.364581 0.276224
1.02709 0.5 0.405049 0.267793
1.02709 0.5 -0.405049 0.271434
1.05694 0.5 -0.324688 0.287941
1.05694 0.5 0.324688 0.284755
1.10076 0.5 -0.104943 0.316884
1.10076 0.5 0.104943 0.3156
0.523432 0.5 -0.975 0.157506
0.523432 0.5 0.975 0.15438
0.905821 0.5 -0.6375 0.222241
0.905821 0.5 0.6375 0.218426
0.219992 0.5 -1.0875 0.142577
0.219992 0.5 1.0875 0.139731
1.11376 0.5 0 0.321874
0.939201 0.5 -0.6 0.231371
0.939201 0.5 0.6 0.227448
1.10076 0.5 -0.174905 0.313122
1.10076 0.5 0.174905 0.311023
0.467897 0.5 -1.0125 0.152385
0.467897 0.5 1.0125 0.149313
1.11376 0.5 -0.0693118 0.32125
1.11376 0.5 0.0693118 0.32037
1.08112 0.5 -0.283777 0.298188
1.08112 0.5 0.283777 0.295142
0 0.5 1.11882 0.137754
0 0.5 -1.11882 0.140587
0.0124871 0.5 -1.11882 0.140587
0.0124871 0.5 1.11882 0.137754
0.96969 0.5 -0.5625 0.240919
0.96969 0.5 0.5625 0.23689
1.11376 0.5 -0.138624 0.31851
1.11376 0.5 0.138624 0.316402
0 0.5 -1.125 0.140114
0 0.5 1.125 0.137273
1.10076 0.5 0.244867 0.304511
1.10076 0.5 -0.244867 0.307363
0.411736 0.5 -1.05 0.147949
0.411736 0.5 1.05 0.144918
1.05694 0.5 -0.396841 0.278833
1.05694 0.5 0.396841 0.275118
1.00005 0.5 -0.524516 0.250211
1.00005 0.5 0.524516 0.246189
1.04168 0.5 -0.437497 0.269942
1.04168 0.5 0.437497 0.266005
0 0.5 -1.13118 0.139642
0 0.5 1.13118 0.136795
0.0124871 0.5 -1.13118 0.139642
0.0124871 0.5 1.13118 0.136795
1.11376 0.5 -0.207935 0.313713
1.11376 0.5 0.207935 0.311178
1.02709 0.5 -0.478694 0.261105
1.02709 0.5 0.478694 0.257043
0.151149 0.5 -1.125 0.139881
0.151149 0.5 1.125 0.137017
1.08112 0.5 0.354721 0.28615
1.08112 0.5 -0.354721 0.289791
1.13882 0.5 0.0340295 0.328572
1.13882 0.5 -0.0340295 0.32903
0.350249 0.5 -1.0875 0.143747
0.350249 0.5 1.0875 0.14076
1.13882 0.5 -0.102088 0.327324
1.13882 0.5 0.102088 0.3262
1.10076 0.5 0.314829 0.29622
1.10076 0.5 -0.314829 0.299736
0.756814 0.5 -0.8625 0.180171
0.756814 0.5 0.8625 0.176581
0.797732 0.5 -0.825 0.187428
0.797732 0.5 0.825 0.183738
1.11376 0.5 -0.277247 0.306965
1.11376 0.5 0.277247 0.303704
0.835107 0.5 0.7875 0.191281
0.835107 0.5 -0.7875 0.195071
0.715434 0.5 -0.9 0.173402
0.715434 0.5 0.9 0.169899
0.872064 0.5 -0.75 0.203138
0.872064 0.5 0.75 0.199242
1.13882 0.5 0.170147 0.321261
1.13882 0.5 -0.170147 0.323487
0.67013 0.5 -0.9375 0.166978
0.67013 0.5 0.9375 0.163561
0.905821 0.5 -0.7125 0.211635
0.905821 0.5 0.7125 0.207636
1.05694 0.5 -0.468994 0.268342
1.05694 0.5 0.468994 0.264207
0.939201 0.5 -0.675 0.22048
0.939201 0.5 0.675 0.216362
0.624316 0.5 -0.975 0.161071
0.624316 0.5 0.975 0.157726
1.04168 0.5 -0.510414 0.258974
1.04168 0.5 0.510414 0.254659
0.96969 0.5 -0.6375 0.229758
0.96969 0.5 0.6375 0.225515
0.288069 0.5 -1.125 0.140164
0.288069 0.5 1.125 0.137207
1.16179 0.5 0 0.33572
1.08112 0.5 -0.425665 0.279866
1.08112 0.5 0.425665 0.275725
1.13882 0.5 0.238206 0.314574
1.13882 0.5 -0.238206 0.317599
1.16179 0.5 -0.0669104 0.335092
1.16179 0.5 0.0669104 0.335105
0.574156 0.5 1.0125 0.152187
0.574156 0.5 -1.0125 0.155459
0.0757758 0.5 1.1625 0.134381
0.0757758 0.5 -1.1625 0.137262
1.00005 0.5 -0.599447 0.23881
1.00005 0.5 0.599447 0.234515
1.10076 0.5 -0.384791 0.290441
1.10076 0.5 0.384791 0.286346
1.02709 0.5 -0.552339 0.249706
1.02709 0.5 0.552339 0.24532
1.11376 0.5 0.346559 0.294529
1.11376 0.5 -0.346559 0.298427
1.16179 0.5 -0.133821 0.332283
1.16179 0.5 0.133821 0.330516
0.523432 0.5 -1.05 0.150411
0.523432 0.5 1.05 0.147197
1.17463 0.5 -0.0331343 0.339526
1.17463 0.5 0.0331343 0.339035
1.17463 0.5 -0.099403 0.337804
1.17463 0.5 0.099403 0.336342
1.16179 0.5 -0.200731 0.327348
1.16179 0.5 0.200731 0.324648
1.13882 0.5 -0.306265 0.309786
1.13882 0.5 0.306265 0.306055
0.219992 0.5 -1.1625 0.13676
0.219992 0.5 1.1625 0.133835
0.467897 0.5 -1.0875 0.145616
0.467897 0.5 1.0875 0.14246
1.17463 0.5 -0.165672 0.333902
1.17463 0.5 0.165672 0.331511
1.05694 0.5 0.541147 0.252278
1.05694 0.5 -0.541147 0.256742
1.18772 0.5 0 0.343281
1.11376 0.5 -0.415871 0.288309
1.11376 0.5 0.415871 0.283878
1.18772 0.5 -0.065614 0.34267
1.18772 0.5 0.065614 0.34149
1.08112 0.5 -0.49661 0.268658
1.08112 0.5 0.49661 0.26412
1.10076 0.5 -0.454752 0.279699
1.10076 0.5 0.454752 0.275141
1.18534 0.5 0.118202 0.337873
1.16179 0.5 -0.267642 0.320385
1.16179 0.5 0.267642 0.316911
0 0.5 -1.19382 0.134867
0 0.5 1.19382 0.131958
1.04168 0.5 -0.58333 0.24705
1.04168 0.5 0.58333 0.242452
0.0124871 0.5 -1.19382 0.134867
0.0124871 0.5 1.19382 0.131958
1.18772 0.5 -0.131228 0.339846
1.17463 0.5 -0.23194 0.327891
1.17463 0.5 0.23194 0.324642
0.411736 0.5 -1.125 0.141463
0.411736 0.5 1.125 0.138355
1.13882 0.5 -0.374324 0.300242
1.13882 0.5 0.374324 0.295898
0 0.5 -1.2 0.134393
0 0.5 1.2 0.131479
0.905821 0.5 -0.7875 0.200759
0.905821 0.5 0.7875 0.196624
0.872064 0.5 -0.825 0.192722
0.872064 0.5 0.825 0.188707
0.835107 0.5 0.8625 0.181214
0.835107 0.5 -0.8625 0.185107
0.939201 0.5 -0.75 0.209198
0.939201 0.5 0.75 0.204934
0.797732 0.5 -0.9 0.177924
0.797732 0.5 0.9 0.174139
1.02709 0.5 -0.625985 0.237508
1.02709 0.5 0.625985 0.232879
0.96969 0.5 -0.7125 0.21809
0.96969 0.5 0.7125 0.21369
1.18772 0.5 -0.196842 0.33486
1.18772 0.5 0.196842 0.331972
0.756814 0.5 -0.9375 0.17112
0.756814 0.5 0.9375 0.167439
0 0.5 -1.20618 0.133922
0 0.5 1.20618 0.131001
1.00005 0.5 -0.674378 0.226777
1.00005 0.5 0.674378 0.222291
0.0124871 0.5 -1.20618 0.133922
0.0124871 0.5 1.20618 0.131001
1.16179 0.5 -0.334552 0.311553
1.16179 0.5 0.334552 0.307401
0.715434 0.5 -0.975 0.16479
0.715434 0.5 0.975 0.161201
0.151149 0.5 -1.2 0.134108
0.151149 0.5 1.2 0.131171
1.20942 0.5 -0.0322645 0.350359
1.20942 0.5 0.0322645 0.349919
1.17463 0.5 -0.298209 0.319896
1.17463 0.5 0.298209 0.315886
1.20942 0.5 -0.0967935 0.348628
1.20942 0.5 0.0967935 0.347075
0.350249 0.5 -1.1625 0.137533
0.350249 0.5 1.1625 0.134474
0.67013 0.5 1.0125 0.155298
0.67013 0.5 -1.0125 0.158797
1.11376 0.5 -0.485183 0.27686
1.11376 0.5 0.485183 0.272002
1.18772 0.5 -0.262456 0.327808
1.18772 0.5 0.262456 0.324091
1.10076 0.5 0.524714 0.262851
1.10076 0.5 -0.524714 0.267784
1.20942 0.5 -0.161322 0.344674
1.20942 0.5 0.161322 0.342134
1.08112 0.5 0.567554 0.251616
1.08112 0.5 -0.567554 0.256445
0.624316 0.5 -1.05 0.153281
0.624316 0.5 1.05 0.14986
1.13882 0.5 -0.442383 0.28919
1.13882 0.5 0.442383 0.284355
1.05694 0.5 0.6133 0.239611
1.05694 0.5 -0.6133 0.244303
1.16179 0.5 -0.401463 0.301058
1.16179 0.5 0.401463 0.29634
0.574156 0.5 1.0875 0.144707
0.574156 0.5 -1.0875 0.148053
1.17463 0.5 -0.364478 0.310104
1.17463 0.5 0.364478 0.305435
1.20942 0.5 0.225851 0.335108
1.20942 0.5 -0.225851 0.338562
1.23036 0.5 1.15648e-18 0.357082
1.2294 0.5 0.0634819 0.354876
1.04168 0.5 -0.656246 0.234453
1.04168 0.5 0.656246 0.229655
1.23036 0.5 -0.0634819 0.356464
1.18772 0.5 0.32807 0.314397
1.18772 0.5 -0.32807 0.318843
0.288069 0.5 1.2 0.131122
0.288069 0.5 -1.2 0.134147
1.23036 0.5 -0.126964 0.353583
1.23036 0.5 0.126964 0.351543
0.0757758 0.5 -1.2375 0.13154
0.0757758 0.5 1.2375 0.128591
0.523432 0.5 -1.125 0.143345
0.523432 0.5 1.125 0.14006
1.02709 0.5 0.69963 0.220018
1.02709 0.5 -0.69963 0.224812
1.24275 0.5 -0.0314313 0.361302
1.24275 0.5 0.0314313 0.360746
1.20942 0.5 -0.29038 0.330411
1.20942 0.5 0.29038 0.326146
1.11376 0.5 -0.554494 0.264363
1.11376 0.5 0.554494 0.25919
1.23036 0.5 -0.190446 0.348483
1.23036 0.5 0.190446 0.345498
1.24275 0.5 -0.0942939 0.359568
1.24275 0.5 0.0942939 0.357913
1.13882 0.5 -0.510442 0.276908
1.13882 0.5 0.510442 0.271679
0.96969 0.5 0.7875 0.201636
0.96969 0.5 -0.7875 0.206145
1.00005 0.5 0.749309 0.20976
1.00005 0.5 -0.749309 0.21438
0.939201 0.5 -0.825 0.197743
0.939201 0.5 0.825 0.193381
0.905821 0.5 -0.8625 0.189786
0.905821 0.5 0.8625 0.18556
1.17463 0.5 0.430746 0.293544
1.17463 0.5 -0.430746 0.29874
1.10076 0.5 0.594676 0.24981
1.10076 0.5 -0.594676 0.254978
1.18772 0.5 -0.393684 0.308169
1.18772 0.5 0.393684 0.303115
1.24275 0.5 -0.157157 0.355571
1.24275 0.5 0.157157 0.352865
1.16179 0.5 -0.468373 0.289152
1.16179 0.5 0.468373 0.283984
0.467897 0.5 -1.1625 0.138882
0.467897 0.5 1.1625 0.135661
0.872064 0.5 -0.9 0.182256
0.872064 0.5 0.9 0.178162
1.25401 0.5 0 0.36455
0.835107 0.5 -0.9375 0.175136
0.835107 0.5 0.9375 0.171172
1.25401 0.5 0.0622994 0.362792
1.25401 0.5 -0.0622994 0.363954
1.08112 0.5 0.638498 0.238484
1.08112 0.5 -0.638498 0.243506
1.23036 0.5 -0.253928 0.341252
1.23036 0.5 0.253928 0.337409
0.219992 0.5 -1.2375 0.130934
0.219992 0.5 1.2375 0.127942
1.2531 0.5 0.121964 0.358895
1.05694 0.5 -0.685453 0.231318
1.05694 0.5 0.685453 0.226466
0.797732 0.5 -0.975 0.168445
0.797732 0.5 0.975 0.164595
1.25401 0.5 -0.124599 0.361069
1.20942 0.5 -0.354909 0.320398
1.20942 0.5 0.354909 0.315432
1.24275 0.5 -0.220019 0.349368
1.24275 0.5 0.220019 0.345687
0.756814 0.5 -1.0125 0.162115
0.756814 0.5 1.0125 0.15837
1.25401 0.5 -0.186898 0.355936
1.25401 0.5 0.186898 0.352753
0.411736 0.5 -1.2 0.13501
0.411736 0.5 1.2 0.131841
0 0.5 -1.26882 0.129158
0 0.5 1.26882 0.126187
0.0124871 0.5 -1.26882 0.129158
0.0124871 0.5 1.26882 0.126187
0.715434 0.5 -1.05 0.156241
0.715434 0.5 1.05 0.152591
1.23036 0.5 -0.317409 0.332033
1.23036 0.5 0.317409 0.327439
1.04168 0.5 -0.729162 0.221489
1.04168 0.5 0.729162 0.216553
1.18772 0.5 -0.459298 0.296033
1.18772 0.5 0.459298 0.290501
1.24275 0.5 0.282882 0.336522
1.24275 0.5 -0.282882 0.34107
0 0.5 -1.275 0.128688
0 0.5 1.275 0.125711
1.27472 0.5 -0.0306319 0.372263
1.27472 0.5 0.0306319 0.371678
1.17463 0.5 -0.497015 0.286082
1.17463 0.5 0.497015 0.280471
1.11376 0.5 0.623806 0.245732
1.11376 0.5 -0.623806 0.251105
1.13882 0.5 -0.578501 0.263691
1.13882 0.5 0.578501 0.258201
0.67013 0.5 -1.0875 0.150687
0.67013 0.5 1.0875 0.147129
1.27472 0.5 0.0918957 0.367208
1.27472 0.5 -0.0918957 0.370526
1.25401 0.5 -0.249198 0.348637
1.25401 0.5 0.249198 0.344535
1.16179 0.5 -0.535283 0.27613
1.16179 0.5 0.535283 0.270624
1.20942 0.5 0.419438 0.303218
1.20942 0.5 -0.419438 0.308751
0 0.5 -1.28118 0.128218
0 0.5 1.28118 0.125237
0.0124871 0.5 -1.28118 0.128218
0.0124871 0.5 1.28118 0.125237
1.27472 0.5 -0.15316 0.366488
1.27472 0.5 0.15316 0.363638
0.151149 0.5 -1.275 0.128351
0.151149 0.5 1.275 0.125353
1.02709 0.5 -0.773275 0.211893
1.02709 0.5 0.773275 0.206989
1.10076 0.5 -0.664638 0.241566
1.10076 0.5 0.664638 0.236243
0.350249 0.5 1.2375 0.128228
0.350249 0.5 -1.2375 0.131347
0.624316 0.5 -1.125 0.145571
0.624316 0.5 1.125 0.142091
1.23036 0.5 -0.380891 0.321025
1.23036 0.5 0.380891 0.315802
1.24275 0.5 -0.345744 0.330844
1.24275 0.5 0.345744 0.325547
1.2906 0.5 0 0.3777
1.2906 0.5 -0.0604698 0.377138
1.2906 0.5 0.0604698 0.375929
1.25401 0.5 -0.311497 0.339307
1.25401 0.5 0.311497 0.334401
1.27472 0.5 -0.214423 0.3602
1.27472 0.5 0.214423 0.356322
1.08112 0.5 0.709442 0.224999
1.08112 0.5 -0.709442 0.230156
1.00005 0.5 -0.824239 0.201864
1.00005 0.5 0.824239 0.197165
1.2906 0.5 -0.12094 0.374247
1.2906 0.5 0.12094 0.371859
0.574156 0.5 1.1625 0.137326
0.574156 0.5 -1.1625 0.140729
0.96969 0.5 -0.8625 0.194153
0.96969 0.5 0.8625 0.189587
1.18772 0.5 -0.524912 0.282742
1.18772 0.5 0.524912 0.276844
1.05694 0.5 -0.757606 0.218114
1.05694 0.5 0.757606 0.21315
0.939201 0.5 0.9 0.181881
0.939201 0.5 -0.9 0.186301
1.30091 0.5 -0.0299772 0.381647
1.30091 0.5 0.0299772 0.381029
1.20942 0.5 -0.483967 0.295725
1.20942 0.5 0.483967 0.289772
1.17463 0.5 -0.563283 0.272448
1.17463 0.5 0.563283 0.266541
1.2906 0.5 -0.181409 0.369057
1.2906 0.5 0.181409 0.365559
0.905821 0.5 -0.9375 0.178867
0.905821 0.5 0.9375 0.174584
1.30091 0.5 -0.0899315 0.37992
1.30091 0.5 0.0899315 0.376187
1.27472 0.5 -0.275687 0.351767
1.27472 0.5 0.275687 0.34697
0.288069 0.5 -1.275 0.128163
0.288069 0.5 1.275 0.125081
0.872064 0.5 -0.975 0.171882
0.872064 0.5 0.975 0.167742
1.23036 0.5 -0.444373 0.308462
1.23036 0.5 0.444373 0.302756
1.24275 0.5 -0.408607 0.318919