# pMean  POINT_DATA 91129
# x  y  z  pMean
0 0 0 0.239133
0 0.00368111 0 0.238798
0 0.00749587 0 0.238064
0 0.0114491 0 0.237332
0 0.0155459 0 0.23667
0 0.0197915 0 0.235973
0 0.0241911 0 0.235185
0 0.0287506 0 0.234316
0 0.0334755 0 0.233396
0 0.038372 0 0.232446
0 0.0434463 0 0.231476
0 0.0487048 0 0.230495
0 0.0541543 0 0.22953
0 0.0598016 0 0.228627
0 0.0656539 0 0.227798
0 0.0717187 0 0.227002
0.0757758 0.00184056 0 0.239133
0.0757758 0.00558849 3.46945e-18 0.238462
0.0757758 0.0094725 0 0.237666
0.0757758 0.0134975 0 0.236997
0.0757758 0.0176687 0 0.236343
0 0.0780037 0 0.226198
0.0757758 0.0219913 0 0.235603
0.0757758 0.0264709 0 0.234766
0.0757758 0.031113 3.46945e-18 0.233865
0.0757758 0.0359238 -3.46945e-18 0.232927
0 0.0845169 0 0.225378
0.0757758 0.0409092 0 0.231965
0.0757758 0.0460756 0 0.230987
0 0.0912666 0 0.224544
0.0757758 0.0514296 3.46945e-18 0.230003
0.0757758 0.0569779 0 0.229057
0 0.0982613 0 0.223699
0.0757758 0.0627277 0 0.228197
0.0757758 0.0686863 0 0.227399
0 0.10551 0 0.22284
0.0757758 0.0748612 3.46945e-18 0.226604
0.0757758 0.0812603 3.46945e-18 0.225791
0 0.113022 0 0.221967
0.0757758 0.0878917 0 0.224964
0 0.120806 0 0.221076
0.0757758 0.0947639 -3.46945e-18 0.224124
0.0757758 0.101886 -3.46945e-18 0.223273
0 0.128874 0 0.220167
0.0757758 0.109266 0 0.222407
0 0.137234 0 0.219249
0.0757758 0.116914 -3.46945e-18 0.221526
0 0.145897 0 0.218345
0.0757758 0.12484 0 0.220626
0.151552 0 0 0.221373
0.151552 0.00368111 0 0.221244
0.151552 0.00749587 0 0.220992
0.151552 0.0114491 0 0.220785
0.151552 0.0155459 0 0.220616
0.151552 0.0197915 0 0.22042
0.0757758 0.133054 3.46945e-18 0.219709
0.151552 0.0241911 0 0.220174
0.151552 0.0287506 0 0.219882
0 0.154876 0 0.21748
0.151552 0.0334755 0 0.219558
0.151552 0.038372 0 0.219213
0.151552 0.0434463 0 0.218852
0.151552 0.0487048 0 0.21848
0.0757758 0.141566 0 0.21879
0.151552 0.0541543 0 0.218108
0.151552 0.0598016 0 0.217758
0 0.16418 0 0.21667
0.151552 0.0656539 0 0.217436
0.151552 0.0717187 0 0.21712
0.0757758 0.150387 0 0.217899
0.151552 0.0780037 0 0.216791
0.151552 0.0845169 0 0.216444
0 0.173822 0 0.215913
0.0757758 0.159528 3.46945e-18 0.217061
0.151552 0.0912666 0 0.216081
0.151552 0.0982613 0 0.215707
0 0.183814 0 0.215193
0.151552 0.10551 0 0.215322
0.0757758 0.169001 0 0.21628
0.151552 0.113022 0 0.214925
0.151552 0.120806 0 0.21451
0 0.194169 0 0.214491
0.0757758 0.178818 0 0.215546
0.151552 0.128874 0 0.214071
0.0757758 0.188991 3.46945e-18 0.21484
0.151552 0.137234 0 0.213611
0 0.2049 0 0.213791
0.151552 0.145897 0 0.213143
0.0757758 0.199534 -3.46945e-18 0.214142
0 0.21602 0 0.213076
0.151552 0.154876 0 0.212682
0.219992 0.00184056 -3.46945e-18 0.204979
0.219992 0.00558849 0 0.205101
0.219992 0.0094725 0 0.205364
0.219992 0.0134975 0 0.205658
0.219992 0.0176687 0 0.205934
0.219992 0.0219913 3.46945e-18 0.206195
0.219992 0.0264709 3.46945e-18 0.206442
0.219992 0.031113 0 0.206674
0.219992 0.0359238 0 0.206893
0.151552 0.16418 0 0.212235
0.0757758 0.21046 0 0.213441
0.219992 0.0409092 0 0.207101
0.219992 0.0460756 0 0.207298
0.219992 0.0514296 0 0.20748
0.219992 0.0569779 3.46945e-18 0.207649
0 0.227544 0 0.21232
0.219992 0.0627277 0 0.207802
0.219992 0.0686863 0 0.207939
0.151552 0.173822 0 0.2118
0.219992 0.0748612 -3.46945e-18 0.208058
0.0757758 0.221782 0 0.212712
0.219992 0.0812603 0 0.208157
0.219992 0.0878917 0 0.208237
0.151552 0.183814 0 0.211369
7.47804e-17 0.239487 0 0.21151
0.219992 0.0947639 0 0.208301
0.219992 0.101886 0 0.208356
0.0757758 0.233515 0 0.211928
0.219992 0.109266 0 0.208406
0.151552 0.194169 0 0.210933
0.219992 0.116914 -3.46945e-18 0.208443
0 0.251863 0 0.21066
0.219992 0.12484 0 0.208454
0.151552 0.2049 0 0.210482
0.0757758 0.245675 3.46945e-18 0.211092
0.219992 0.133054 0 0.208432
0.219992 0.141566 0 0.208379
0.151552 0.21602 0 0.210007
0 0.264688 0 0.209788
0.219992 0.150387 0 0.208302
0.0757758 0.258276 3.46945e-18 0.210227
0.219992 0.159528 0 0.208202
0.151552 0.227544 0 0.209496
0.219992 0.169001 0 0.208077
0 0.27798 0 0.208899
0.0757758 0.271334 0 0.209347
0.151552 0.239487 3.70074e-18 0.20894
0.219992 0.178818 0 0.207927
0.288433 0 0 0.209084
0.288433 0.00368111 0 0.209128
0.288433 0.00749587 0 0.20926
0.288433 0.0114491 0 0.20945
0.288433 0.0155459 3.70074e-18 0.209651
0.288433 0.0197915 0 0.209849
0.288433 0.0241911 3.70074e-18 0.210043
0.288433 0.0287506 0 0.210231
0.219992 0.188991 0 0.20775
0.288433 0.0334755 0 0.210412
0.288433 0.038372 0 0.210588
0.288433 0.0434463 0 0.210757
7.47804e-17 0.291753 0 0.207989
0.288433 0.0487048 0 0.210917
0.288433 0.0541543 0 0.211069
0.151552 0.251863 0 0.208346
0.288433 0.0598016 3.70074e-18 0.21121
0.0757758 0.284866 -3.46945e-18 0.208449
0.288433 0.0656539 3.70074e-18 0.211341
0.219992 0.199534 0 0.207544
0.288433 0.0717187 0 0.211462
0.288433 0.0780037 0 0.211573
0.288433 0.0845169 0 0.211669
0.288433 0.0912666 0 0.211744
0.219992 0.21046 0 0.207307
0.288433 0.0982613 0 0.211801
0.151552 0.264688 3.70074e-18 0.207724
0 0.306027 0 0.207048
0.288433 0.10551 0 0.211843
0.0757758 0.29889 -3.46945e-18 0.207527
0.288433 0.113022 0 0.211871
0.219992 0.221782 0 0.207039
0.288433 0.120806 0 0.211883
0.288433 0.128874 0 0.211877
0.151552 0.27798 0 0.207081
0.288433 0.137234 0 0.21185
0 0.320819 0 0.206069
0.219992 0.233515 0 0.206736
0.0757758 0.313423 0 0.206569
0.288433 0.145897 0 0.2118
0.288433 0.154876 0 0.211725
0.151552 0.291753 0 0.206414
0.219992 0.245675 0 0.206397
0.288433 0.16418 0 0.211625
0 0.336148 0 0.205068
0.288433 0.173822 0 0.2115
0.0757758 0.328484 0 0.205569
0.219992 0.258276 0 0.206022
0.151552 0.306027 0 0.205712
0.288433 0.183814 0 0.211349
0.288433 0.194169 0 0.211169
0.219992 0.271334 -3.46945e-18 0.205617
0.350249 0.00184056 0 0.212887
0.350249 0.00558849 0 0.212943
0.350249 0.0094725 0 0.213041
0.350249 0.0134975 0 0.213159
0.350249 0.0176687 3.46945e-18 0.213287
0.350249 0.0219913 0 0.213423
0.350249 0.0264709 -3.46945e-18 0.213564
0.350249 0.031113 -3.46945e-18 0.213704
0 0.352034 0 0.204081
0.350249 0.0359238 3.46945e-18 0.213845
0.0757758 0.344091 0 0.204566
0.350249 0.0409092 0 0.213984
0.350249 0.0460756 0 0.21412
0.288433 0.2049 0 0.21096
0.350249 0.0514296 0 0.214253
0.151552 0.320819 0 0.204965
0.350249 0.0569779 3.46945e-18 0.21438
0.350249 0.0627277 0 0.2145
0.350249 0.0686863 0 0.214615
0.350249 0.0748612 3.46945e-18 0.214729
0.350249 0.0812603 0 0.214839
0.219992 0.284866 0 0.205189
0.288433 0.21602 0 0.210718
0.350249 0.0878917 0 0.214932
0.350249 0.0947639 0 0.214997
0.350249 0.101886 0 0.21504
0.350249 0.109266 3.46945e-18 0.215063
0.288433 0.227544 0 0.210443
0.0757758 0.360265 0 0.203595
0 0.368496 0 0.203103
0.151552 0.336148 0 0.204179
0.350249 0.116914 3.46945e-18 0.215067
0.219992 0.29889 0 0.20473
0.370854 0.0241911 0 0.216506
0.350249 0.12484 0 0.215063
0.350249 0.133054 3.46945e-18 0.215054
0.288433 0.239487 -9.25186e-19 0.210132
0.350249 0.141566 -3.46945e-18 0.21503
0.350249 0.150387 0 0.214981
0.288433 0.251863 0 0.209784
0.219992 0.313423 0 0.204225
0.151552 0.352034 0 0.20337
0.0757758 0.377026 -3.46945e-18 0.20261
0.350249 0.159528 3.46945e-18 0.214905
0 0.385557 0 0.202082
0.350249 0.169001 3.46945e-18 0.214805
0.288433 0.264688 0 0.2094
0.350249 0.178818 0 0.214679
0.219992 0.328484 0 0.203666
0.350249 0.188991 0 0.214525
0.151552 0.368496 0 0.202538
0.288433 0.27798 3.70074e-18 0.208982
0.0757758 0.394396 -3.46945e-18 0.201553
0.350249 0.199534 3.46945e-18 0.214342
7.47804e-17 0.403236 0 0.200989
0.219992 0.344091 0 0.203048
0.350249 0.21046 0 0.214128
0.288433 0.291753 0 0.208531
0.412065 9.0819e-19 0 0.219335
0.412065 0.00368111 -2.31296e-18 0.219355
0.412065 0.00749587 -2.31296e-18 0.219409
0.412065 0.0114491 -2.31296e-18 0.219482
0.412065 0.0155459 -2.31296e-18 0.219563
0.412065 0.0197915 0 0.219648
0.412065 0.0241911 0 0.219737
0.412065 0.0264709 0 0.219783
0.412065 0.0287506 -2.31296e-18 0.219829
0.412065 0.0334755 -2.31296e-18 0.219923
0.412065 0.038372 -2.31296e-18 0.220019
0.151552 0.385557 0 0.201659
0.412065 0.0434463 0 0.220116
0.350249 0.221782 0 0.21388
0.412065 0.0487048 0 0.220213
0.412065 0.0541543 0 0.220309
0.412065 0.0569779 0 0.220356
0.412065 0.0598016 -2.31296e-18 0.220403
0.412065 0.0656539 -2.31296e-18 0.220494
0.412065 0.0717187 -2.31296e-18 0.220577
0.0757758 0.412397 0 0.200424
0.412065 0.0780037 -2.31296e-18 0.220645
0.288433 0.306027 0 0.208039
0.412065 0.0845169 -2.31296e-18 0.220688
0.350249 0.233515 0 0.213597
0 0.421557 0 0.199835
0.412065 0.0912666 -2.31296e-18 0.220706
0.219992 0.360265 -3.46945e-18 0.202376
0.412065 0.0982613 0 0.220705
0.412065 0.10551 0 0.220688
0.412065 0.113022 -2.31296e-18 0.220655
0.350249 0.245675 3.46945e-18 0.213277
0.412065 0.120806 0 0.220607
0.151552 0.403236 0 0.200717
0.288433 0.320819 0 0.207499
0.412065 0.128874 -2.31296e-18 0.220548
0.412065 0.137234 0 0.220476
0.350249 0.258276 3.46945e-18 0.212918
0.219992 0.377026 0 0.201655
0.412065 0.145897 -2.31296e-18 0.220388
0.0757758 0.431051 0 0.199245
0.412065 0.154876 -2.31296e-18 0.220279
0 0.440544 0 0.198636
0.288433 0.336148 0 0.206907
0.350249 0.271334 0 0.212519
0.412065 0.16418 -2.31296e-18 0.220149
0.412065 0.173822 -2.31296e-18 0.219998
0.151552 0.421557 0 0.199715
0.412065 0.183814 -2.31296e-18 0.219822
0.350249 0.284866 0 0.212081
0.219992 0.394396 0 0.200882
0.288433 0.352034 3.70074e-18 0.20626
0.412065 0.194169 0 0.21962
0.0757758 0.450382 0 0.198025
0.412065 0.2049 -2.31296e-18 0.21939
0 0.46022 0 0.197394
0.350249 0.29889 0 0.211602
0.412065 0.21602 0 0.21913
0.151552 0.440544 0 0.198657
0.219992 0.412397 3.46945e-18 0.20005
0.467897 0.00184056 -3.46945e-18 0.225333
0.467897 0.00558849 0 0.225358
0.288433 0.368496 0 0.205559
0.467897 0.0094725 0 0.225397
0.467897 0.0134975 3.46945e-18 0.225439
0.467897 0.0176687 3.46945e-18 0.225482
0.467897 0.0219913 -3.46945e-18 0.225524
0.467897 0.0264709 -3.46945e-18 0.225568
0.467897 0.031113 3.46945e-18 0.225617
0.467897 0.0359238 0 0.225669
0.467897 0.038372 0 0.22638
0.467897 0.0409092 0 0.225726
0.350249 0.313423 0 0.211079
0.467897 0.0460756 0 0.225787
0.467897 0.0514296 3.46945e-18 0.225851
0.412065 0.227544 -2.31296e-18 0.218838
0.467897 0.0569779 0 0.225918
0.467897 0.0627277 -3.46945e-18 0.225985
0.467897 0.0686863 0 0.226049
0.467897 0.0748612 3.46945e-18 0.226095
0.467897 0.0812603 3.46945e-18 0.226103
0.467897 0.0878917 3.46945e-18 0.226073
0.0757758 0.470415 3.46945e-18 0.196762
0.412065 0.239487 -2.31296e-18 0.218512
0.467897 0.0947639 0 0.226024
0.467897 0.101886 3.46945e-18 0.225966
0.350249 0.328484 0 0.210509
0.467897 0.109266 3.46945e-18 0.225897
0 0.48061 0 0.196107
0.288433 0.385557 0 0.204802
0.467897 0.116914 3.46945e-18 0.225814
0.412065 0.251863 -2.31296e-18 0.218149
0.219992 0.431051 0 0.199156
0.467897 0.12484 0 0.225714
0.151552 0.46022 0 0.197547
0.467897 0.133054 0 0.225597
0.467897 0.141566 -3.46945e-18 0.225467
0.412065 0.264688 -2.31296e-18 0.217747
0.350249 0.344091 0 0.209888
0.467897 0.150387 0 0.225324
0.467897 0.154876 0 0.226026
0.467897 0.159528 0 0.225165
0.288433 0.403236 0 0.203988
0.0757758 0.491176 3.46945e-18 0.19545
0.412065 0.27798 -2.31296e-18 0.217305
0.467897 0.169001 0 0.224987
0.467897 0.178818 -3.46945e-18 0.224789
0.219992 0.450382 3.46945e-18 0.198199
6.73024e-17 0.501741 3.70074e-18 0.194769
0.350249 0.360265 0 0.209211
0.151552 0.48061 0 0.19638
0.467897 0.188991 0 0.224568
0.412065 0.291753 0 0.21682
0.467897 0.199534 0 0.224323
0.288433 0.421557 0 0.20311
0.467897 0.21046 3.46945e-18 0.224051
0.412065 0.306027 0 0.216291
0.350249 0.377026 0 0.208477
0.467897 0.221782 0 0.223751
0.0757758 0.51269 0 0.194085
0.219992 0.470415 0 0.197177
0.467897 0.227544 0 0.22433
0.412065 0.320819 -2.31296e-18 0.215714
0.467897 0.233515 0 0.223418
6.73024e-17 0.523639 3.70074e-18 0.193376
0.523729 0 0 0.232508
0.523729 0.00368111 0 0.232519
0.523729 0.00749587 -2.31296e-18 0.232545
0.523729 0.0114491 0 0.232578
0.523729 0.0155459 0 0.232608
0.523729 0.0197915 -2.31296e-18 0.232634
0.151552 0.501741 0 0.195153
0.523729 0.0241911 0 0.232657
0.523729 0.0287506 0 0.232682
0.523729 0.0334755 0 0.23271
0.523729 0.038372 0 0.232742
0.523729 0.0434463 0 0.232776
0.523729 0.0487048 0 0.232814
0.523729 0.0541543 0 0.232854
0.288433 0.440544 0 0.202167
0.523729 0.0598016 0 0.232897
0.350249 0.394396 0 0.207682
0.523729 0.0656539 0 0.232938
0.467897 0.245675 3.46945e-18 0.223052
0.523729 0.0717187 0 0.232965
0.523729 0.0780037 0 0.232957
0.523729 0.0845169 0 0.23291
0.523729 0.0912666 0 0.232837
0.412065 0.336148 0 0.215087
0.523729 0.0982613 0 0.232751
0.523729 0.10551 -2.31296e-18 0.232655
0.467897 0.258276 3.46945e-18 0.222649
0.523729 0.113022 0 0.232547
0.523729 0.120806 0 0.232424
0.219992 0.491176 3.46945e-18 0.19609
0.523729 0.12484 0 0.232354
0.523729 0.128874 -2.31296e-18 0.232285
0.0757758 0.534985 -3.46945e-18 0.192666
0.467897 0.271334 0 0.222206
0.350249 0.412397 3.46945e-18 0.206825
0.523729 0.137234 0 0.23213
0.412065 0.352034 -2.31296e-18 0.214404
0.288433 0.46022 0 0.201155
0.523729 0.145897 0 0.23196
0.151552 0.523639 0 0.193858
0.523729 0.154876 0 0.231773
0 0.546332 0 0.191928
0.523729 0.159528 0 0.23167
0.467897 0.284866 3.46945e-18 0.22172
0.523729 0.16418 -2.31296e-18 0.231567
0.523729 0.173822 0 0.23134
0.412065 0.368496 0 0.213665
0.523729 0.183814 0 0.23109
0.467897 0.29889 -3.46945e-18 0.221189
0.350249 0.431051 0 0.2059
0.219992 0.51269 3.46945e-18 0.194927
0.523729 0.194169 0 0.230816
0.288433 0.48061 0 0.200073
0.523729 0.2049 0 0.230514
0.467897 0.313423 0 0.22061
0.0757758 0.55809 0 0.191187
0.412065 0.385557 0 0.212864
0.523729 0.21602 0 0.230184
0.151552 0.546332 0 0.192492
0 0.569849 0 0.190416
0.350249 0.450382 0 0.204906
0.523729 0.227544 0 0.229823
0.467897 0.328484 0 0.21998
0.523729 0.231525 0 0.229691
0.574156 0.00184056 0 0.239212
0.574156 0.00558849 0 0.23923
0.574156 0.0094725 0 0.239255
0.574156 0.0134975 0 0.23928
0.574156 0.0176687 0 0.239295
0.574156 0.0219913 3.46945e-18 0.2393
0.574156 0.0264709 0 0.239304
0.574156 0.031113 0 0.239311
0.574156 0.0359238 3.46945e-18 0.239319
0.574156 0.0409092 -3.46945e-18 0.239329
0.523729 0.239487 3.70074e-18 0.229428
0.574156 0.0460756 3.46945e-18 0.239342
0.574156 0.0514296 0 0.239358
0.412065 0.403236 0 0.212
0.574156 0.0569779 0 0.239377
0.574156 0.0627277 0 0.239399
0.574156 0.0686863 0 0.239415
0.219992 0.534985 0 0.19368
0.288433 0.501741 0 0.198917
0.574156 0.0748612 0 0.2394
0.574156 0.0812603 0 0.239334
0.467897 0.344091 3.46945e-18 0.219296
0.574156 0.0878917 0 0.239236
0.523729 0.251863 0 0.228997
0.574156 0.0947639 -3.46945e-18 0.239125
0.574156 0.101886 0 0.239005
0.574156 0.109266 3.46945e-18 0.238873
0.574156 0.116914 -3.46945e-18 0.238728
0.412065 0.416977 0 0.211302
0.350249 0.470415 0 0.203837
0.523729 0.264688 0 0.228527
0.0757758 0.582034 0 0.189643
0.574156 0.12484 0 0.238569
0.574156 0.133054 0 0.238393
0.412065 0.421557 -2.31296e-18 0.211069
0.151552 0.569849 0 0.19105
0.467897 0.360265 0 0.218554
0.574156 0.141566 -3.46945e-18 0.238201
0.523729 0.27798 0 0.228016
0.574156 0.150387 -3.46945e-18 0.23799
0 0.594219 0 0.188837
0.574156 0.159528 0 0.23776
0.574156 0.16418 0 0.238293
0.288433 0.523639 9.24446e-33 0.197678
0.574156 0.169001 -3.46945e-18 0.237508
0.523729 0.291753 0 0.22746
0.219992 0.55809 -3.46945e-18 0.192347
0.467897 0.377026 0 0.217752
0.574156 0.178818 -3.46945e-18 0.237233
0.412065 0.440544 -2.31296e-18 0.210068
0.350249 0.491176 3.46945e-18 0.202692
0.574156 0.188991 0 0.236933
0.523729 0.306027 0 0.226858
0.574156 0.199534 0 0.236606
0.574156 0.21046 0 0.236251
0.0757758 0.606847 0 0.188029
0.467897 0.394396 3.46945e-18 0.216887
0.151552 0.594219 0 0.189529
0.523729 0.320819 0 0.226205
0.574156 0.221782 -3.46945e-18 0.235864
0.412065 0.46022 0 0.208993
0.288433 0.546332 0 0.196354
0 0.619475 0 0.187185
0.574156 0.233515 0 0.235445
0.350249 0.51269 3.46945e-18 0.201465
0.219992 0.582034 0 0.190926
0.523729 0.336148 0 0.225499
0.467897 0.412397 0 0.215954
0.574156 0.245675 3.46945e-18 0.234989
0.624584 0 0 0.2472
0.624584 0.00368111 0 0.247208
0.624584 0.00749587 0 0.247228
0.624584 0.0114491 0 0.247253
0.624584 0.0155459 0 0.247272
0.624584 0.0197915 0 0.247276
0.624584 0.0241911 -2.31296e-18 0.247271
0.624584 0.0287506 0 0.247262
0.624584 0.0334755 0 0.247255
0.624584 0.038372 0 0.247249
0.624584 0.0434463 -2.31296e-18 0.247244
0.624584 0.0487048 0 0.247241
0.624584 0.0541543 0 0.247239
0.624584 0.0598016 0 0.247238
0.624584 0.0656539 0 0.247231
0.624584 0.0717187 0 0.247199
0.624584 0.0780037 0 0.247125
0.574156 0.258276 0 0.234496
0.624584 0.0845169 0 0.247014
0.523729 0.352034 0 0.224737
0.624584 0.0912666 0 0.246882
0.624584 0.0982613 0 0.246739
0.412065 0.48061 0 0.20784
0.624584 0.10551 0 0.246583
0.624584 0.113022 -2.31296e-18 0.246412
0.574156 0.271334 0 0.233963
0.624584 0.120806 0 0.246226
0.467897 0.431051 0 0.214952
0.0757758 0.632561 3.46945e-18 0.186339
0.624584 0.128874 0 0.246023
0.151552 0.619475 0 0.187925
0.288433 0.569849 0 0.19494
0.350249 0.534985 0 0.200154
0.624584 0.137234 -2.31296e-18 0.245803
0.523729 0.368496 0 0.223915
0.574156 0.284866 -3.46945e-18 0.233387
0.624584 0.145897 0 0.245563
0.467897 0.440544 0 0.215013
0.624584 0.154876 0 0.245302
0.219992 0.606847 0 0.189413
0 0.645647 0 0.185455
0.624584 0.16418 0 0.24502
0.574156 0.29889 0 0.232765
0.624584 0.173822 0 0.244713
0.412065 0.501741 0 0.206606
0.467897 0.450382 0 0.213875
0.523729 0.385557 0 0.223029
0.624584 0.183814 0 0.244381
0.624584 0.194169 0 0.244022
0.574156 0.313423 3.46945e-18 0.232093
0.624584 0.2049 0 0.243633
0.350249 0.55809 3.46945e-18 0.198753
0.288433 0.594219 0 0.193433
0.624584 0.21602 0 0.243214
0.523729 0.403236 0 0.222077
0.574156 0.328484 -3.46945e-18 0.23137
0.151552 0.645647 0 0.186232
0.467897 0.470415 0 0.212721
0.0757758 0.659208 3.46945e-18 0.184568
0.624584 0.227544 0 0.242761
0.412065 0.523639 0 0.205286
0.523729 0.41545 0 0.221395
0.624584 0.239487 3.70074e-18 0.242272
0.574156 0.344091 0 0.230591
0.219992 0.632561 -3.46945e-18 0.187805
0.67013 0.00184056 3.46945e-18 0.2547
0.67013 0.00558849 -3.46945e-18 0.254714
0.67013 0.0094725 3.46945e-18 0.254738
0.67013 0.0134975 -3.46945e-18 0.254763
0.67013 0.0176687 0 0.254773
0.67013 0.0219913 0 0.254763
0.67013 0.0264709 3.46945e-18 0.254742
0.67013 0.031113 0 0.25472
0.67013 0.0359238 -3.46945e-18 0.2547
0.67013 0.0409092 0 0.25468
0.67013 0.0460756 0 0.25466
0.67013 0.0514296 -3.46945e-18 0.25464
0.523729 0.421557 0 0.221054
0.67013 0.0569779 0 0.25462
0 0.67277 0 0.183641
0.67013 0.0627277 3.46945e-18 0.254597
0.624584 0.251863 0 0.241745
0.67013 0.0686863 0 0.254557
0.67013 0.0748612 -3.46945e-18 0.254474
0.67013 0.0812603 0 0.254346
0.67013 0.0878917 0 0.254195
0.67013 0.0947639 0 0.254033
0.574156 0.360265 3.46945e-18 0.229754
0.67013 0.101886 3.46945e-18 0.253856
0.523729 0.431051 0 0.220506
0.624584 0.264688 0 0.241178
0.467897 0.491176 0 0.211485
0.67013 0.109266 3.46945e-18 0.253664
0.350249 0.582034 0 0.197259
0.67013 0.116914 -3.46945e-18 0.253455
0.67013 0.12484 0 0.253229
0.67013 0.133054 -3.46945e-18 0.252984
0.288433 0.619475 0 0.19183
0.624584 0.27798 0 0.240568
0.412065 0.546332 0 0.203876
0.523729 0.440544 0 0.219958
0.67013 0.141566 0 0.252719
0.685312 0.0241911 0 0.25803
0.685312 0.0434463 0 0.257915
0.67013 0.150387 0 0.252432
0.574156 0.377026 0 0.228853
0.67013 0.159528 0 0.252123
0.624584 0.291753 0 0.239913
0.151552 0.67277 0 0.184447
0.0757758 0.686823 0 0.18271
0.67013 0.169001 -3.46945e-18 0.251789
0.67013 0.178818 0 0.251429
0.467897 0.51269 3.46945e-18 0.210164
0.685312 0.113022 0 0.256672
0.219992 0.659208 0 0.186098
0.624584 0.306027 0 0.239208
0.67013 0.188991 0 0.251042
0.574156 0.394396 -3.46945e-18 0.227887
0.523729 0.46022 0 0.218783
0.685312 0.137234 0 0.255916
0.67013 0.199534 3.46945e-18 0.250625
0.350249 0.606847 3.46945e-18 0.195667
0 0.700877 0 0.181737
0.624584 0.320819 0 0.238452
0.67013 0.21046 -3.46945e-18 0.250177
0.412065 0.569849 -2.31296e-18 0.202372
0.67013 0.221782 0 0.249695
0.574156 0.412397 -3.46945e-18 0.22685
0.288433 0.645647 0 0.190126
0.624584 0.336148 0 0.23764
0.67013 0.233515 -3.46945e-18 0.249177
0.467897 0.534985 0 0.208752
0.523729 0.48061 0 0.217525
0.624584 0.344091 0 0.237205
0.67013 0.245675 0 0.248621
0.715676 4.54095e-19 -1.54074e-33 0.263378
0.715676 0.00368111 0 0.263385
0.715676 0.00749587 0 0.263404
0.715676 0.0114491 -1.54074e-33 0.263428
0.715676 0.0155459 0 0.263445
0.715676 0.0197915 0 0.263438
0.715676 0.0241911 0 0.26341
0.715676 0.0287506 0 0.263372
0.715676 0.0334755 0 0.263333
0.715676 0.038372 0 0.263292
0.624584 0.352034 -2.31296e-18 0.23677
0.715676 0.0434463 0 0.263251
0.151552 0.700877 0 0.182564
0.715676 0.0487048 0 0.263208
0.715676 0.0541543 0 0.263165
0.574156 0.431051 -3.46945e-18 0.22574
0.715676 0.0598016 0 0.263118
0.67013 0.258276 0 0.248025
0.715676 0.0656539 0 0.263058
0.715676 0.0717187 0 0.262963
0.0757758 0.715441 0 0.18076
0.715676 0.0780037 0 0.262823
0.715676 0.0845169 0 0.262652
0.219992 0.686823 0 0.184289
0.715676 0.0912666 0 0.262463
0.715676 0.0982613 0 0.26226
0.67013 0.271334 0 0.247387
0.350249 0.632561 3.46945e-18 0.193973
0.412065 0.594219 -2.31296e-18 0.200768
0.715676 0.10551 0 0.26204
0.715676 0.113022 0 0.261802
0.624584 0.368496 0 0.235838
0.523729 0.501741 0 0.216182
0.715676 0.120806 0 0.261546
0.715676 0.128874 0 0.26127
0.67013 0.284866 0 0.246702
0.467897 0.55809 3.46945e-18 0.207245
0.715676 0.137234 0 0.260972
0.574156 0.450382 0 0.224551
0 0.730005 0 0.179738
0.715676 0.145897 0 0.260653
0.288433 0.67277 0 0.188316
0.715676 0.154876 0 0.260309
0.67013 0.29889 3.46945e-18 0.24597
0.624584 0.385557 0 0.23484
0.715676 0.16418 0 0.25994
0.715676 0.173822 0 0.259545
0.715676 0.183814 0 0.259121
0.67013 0.313423 0 0.245186
0.523729 0.523639 0 0.214746
0.715676 0.194169 0 0.258667
0.574156 0.470415 3.46945e-18 0.223279
0.624584 0.403236 0 0.233772
0.743101 0.0241911 0 0.269195
0.412065 0.619475 -2.31296e-18 0.199061
0.715676 0.2049 0 0.258181
0.151552 0.730005 0 0.18058
0.67013 0.328484 0 0.244347
0.350249 0.659208 -3.46945e-18 0.192172
0.467897 0.582034 0 0.205638
0.715676 0.21602 0 0.257661
0.219992 0.715441 0 0.182373
0.0757758 0.745098 3.46945e-18 0.178712
0.715676 0.227544 0 0.257104
0.67013 0.344091 0 0.24345
0.624584 0.421557 0 0.232631
0.743101 0.128874 0 0.266676
0.715676 0.239487 3.70074e-18 0.25651
0.574156 0.491176 3.46945e-18 0.221921
0.523729 0.546332 0 0.213215
0.756814 0.00184056 0 0.271566
0.756814 0.00558849 0 0.27158
0.756814 0.0094725 0 0.271604
0.756814 0.0134975 3.46945e-18 0.27163
0.756814 0.0155459 0 0.272142
0.756814 0.0176687 -3.46945e-18 0.271634
0.756814 0.0219913 -3.46945e-18 0.271605
0.756814 0.0264709 3.46945e-18 0.271554
0.756814 0.031113 -3.46945e-18 0.271499
0.756814 0.0359238 -3.46945e-18 0.271441
0.288433 0.700877 0 0.186397
0.756814 0.0409092 0 0.271379
0.756814 0.0460756 -3.46945e-18 0.271316
0.756814 0.0514296 -3.46945e-18 0.271251
0.715676 0.251863 0 0.255875
0.756814 0.0569779 0 0.271185
0.756814 0.0627277 3.46945e-18 0.271112
0.756814 0.0686863 0 0.271012
0 0.76019 0 0.177639
0.756814 0.0748612 0 0.270859
0.67013 0.360265 0 0.242492
0.756814 0.0812603 0 0.270667
0.756814 0.0878917 0 0.270456
0.756814 0.0947639 -3.46945e-18 0.270229
0.715676 0.264688 0 0.255198
0.756814 0.101886 -3.46945e-18 0.269986
0.624584 0.440544 0 0.231411
0.756814 0.109266 -3.46945e-18 0.269723
0.756814 0.116914 -3.46945e-18 0.26944
0.412065 0.645647 0 0.197244
0.467897 0.606847 0 0.203926
0.756814 0.120806 0 0.2697
0.756814 0.12484 3.46945e-18 0.269137
0.715676 0.27798 -1.54074e-33 0.254475
0.756814 0.133054 3.46945e-18 0.268811
0.67013 0.377026 3.46945e-18 0.241468
0.756814 0.137234 0 0.269034
0.574156 0.51269 0 0.22047
0.756814 0.141566 0 0.268462
0.685312 0.352034 0 0.24564
0.743101 0.2049 0 0.263313
0.350249 0.686823 0 0.190259
0.756814 0.150387 0 0.268089
0.756814 0.154876 0 0.268274
0.715676 0.291753 -6.16298e-33 0.253703
0.756814 0.159528 0 0.26769
0.523729 0.569849 0 0.211582
0.72743 0.264688 0 0.257314
0.756814 0.16418 0 0.267854
0.151552 0.76019 3.70074e-18 0.178488
0.756814 0.169001 3.46945e-18 0.267263
0.624584 0.46022 0 0.230108
0.219992 0.745098 -3.46945e-18 0.180346
0.67013 0.394396 0 0.240376
0.756814 0.178818 0 0.266807
0.715676 0.306027 0 0.252881
0.0757758 0.775831 3.46945e-18 0.17656
0.756814 0.188991 0 0.266321
0.756814 0.199534 -3.46945e-18 0.265801
0.715676 0.320819 0 0.252004
0.574156 0.534985 0 0.218923
0.288433 0.730005 0 0.184364
0.756814 0.21046 0 0.265248
0.467897 0.632561 0 0.202103
0.67013 0.412397 0 0.239209
0.624584 0.48061 0 0.228718
0.756814 0.221782 3.46945e-18 0.264658
0.412065 0.67277 -2.31296e-18 0.195313
0.715676 0.336148 0 0.25107
0 0.791472 0 0.175433
0.756814 0.233515 0 0.26403
0.523729 0.594219 0 0.209842
0.624584 0.487654 0 0.228224
0.756814 0.245675 0 0.263362
0.350249 0.715441 3.46945e-18 0.188229
0.67013 0.431051 -3.46945e-18 0.237965
0.715676 0.352034 0 0.250075
0.797951 9.0819e-19 0 0.280774
0.797951 0.00368111 0 0.280781
0.797951 0.00749587 0 0.2808
0.797951 0.0114491 0 0.280826
0.797951 0.0141803 0 0.280834
0.797951 0.0155459 0 0.280839
0.797951 0.0169611 0 0.280832
0.797951 0.0197915 0 0.280819
0.797951 0.0219913 0 0.280792
0.797951 0.0241911 0 0.280765
0.797951 0.0264709 0 0.280729
0.797951 0.0287506 0 0.280692
0.797951 0.0334755 0 0.28061
0.797951 0.038372 0 0.280522
0.797951 0.0434463 0 0.280429
0.797951 0.0487048 0 0.280333
0.756814 0.258276 0 0.26265
0.797951 0.0541543 0 0.280234
0.797951 0.0598016 0 0.280127
0.797951 0.0656539 0 0.279998
0.574156 0.55809 0 0.217274
0.624584 0.501741 -2.05433e-33 0.227236
0.797951 0.0717187 0 0.279826
0.797951 0.0780037 0 0.27961
0.797951 0.0845169 0 0.279365
0.797951 0.0912666 0 0.279102
0.797951 0.0982613 0 0.278821
0.756814 0.271334 -3.46945e-18 0.261893
0.797951 0.10551 0 0.27852
0.715676 0.368496 0 0.249015
0.151552 0.791472 0 0.176284
0.797951 0.113022 0 0.278198
0.219992 0.775831 3.46945e-18 0.178204
0.797951 0.118212 0 0.277969
0.770526 0.239487 0 0.266544
0.797951 0.120806 9.25186e-19 0.277854
0.67013 0.450382 3.46945e-18 0.236638
0.797951 0.128874 -2.31296e-18 0.277487
0.467897 0.659208 0 0.200165
0.756814 0.284866 0 0.261088
0.743101 0.320819 0 0.256774
0.797951 0.137234 0 0.277096
0.797951 0.141566 0 0.276889
0.797951 0.145897 0 0.276681
0.523729 0.619475 0 0.20799
0.0757758 0.80768 0 0.1743
0.797951 0.150387 0 0.276459
0.797951 0.154876 9.25186e-19 0.276238
0.715676 0.385557 0 0.247886
0.412065 0.700877 -2.31296e-18 0.193263
0.288433 0.76019 0 0.182211
0.756814 0.29889 -3.46945e-18 0.260233
0.797951 0.16418 0 0.275768
0.624584 0.523639 -1.54074e-33 0.225655
0.797951 0.167394 0 0.275601
0.797951 0.173822 0 0.275268
0.574156 0.582034 0 0.215516
0.67013 0.470415 0 0.235224
0.797951 0.183814 0 0.274738
0.756814 0.313423 0 0.259323
0.797951 0.194169 0 0.274175
0.715676 0.403236 -6.16298e-33 0.246684
0.151552 0.80768 0 0.175123
0.797951 0.197746 0 0.273976
0.350249 0.745098 -3.46945e-18 0.186078
0.797951 0.2049 0 0.273577
0 0.823889 0 0.173116
0.756814 0.328484 0 0.258357
0.797951 0.21046 0 0.273261
0.797951 0.21602 0 0.272944
0.797951 0.223703 0 0.272496
0.797951 0.227544 0 0.272272
0.624584 0.546332 0 0.223972
0.715676 0.421557 0 0.245405
0.67013 0.491176 3.46945e-18 0.233718
0.797951 0.231525 0 0.272035
0.467897 0.686823 0 0.198105
0.523729 0.645647 0 0.20602
0.756814 0.344091 -3.46945e-18 0.25733
0.822721 0.120806 0 0.283469
0.797951 0.239487 0 0.271561
0.822721 0.137234 0 0.282642
0.835107 0.00184056 -3.46945e-18 0.289506
0.835107 0.00558849 0 0.289521
0.835107 0.0094725 3.46945e-18 0.289547
0.835107 0.0134975 0 0.289573
0.835107 0.0176687 0 0.289569
0.835107 0.0219913 3.46945e-18 0.289519
0.574156 0.606847 3.46945e-18 0.213645
0.835107 0.0241911 0 0.289804
0.835107 0.0264709 3.46945e-18 0.289436
0.822721 0.145897 0 0.28219
0.835107 0.031113 0 0.289334
0.835107 0.0359238 0 0.289223
0.835107 0.0409092 -3.46945e-18 0.289105
0.835107 0.0460756 0 0.288981
0.835107 0.0514296 -3.46945e-18 0.288852
0.797951 0.251863 0 0.270806
0.835107 0.0541543 0 0.289096
0.835107 0.0569779 -3.46945e-18 0.288717
0.219992 0.80768 -3.46945e-18 0.175941
0.822721 0.154876 0 0.281711
0.835107 0.0627277 -3.46945e-18 0.288568
0.151552 0.823889 0 0.173962
0.797951 0.255069 0 0.270607
0.835107 0.0686863 3.46945e-18 0.28838
0.756814 0.360265 3.46945e-18 0.256239
0.412065 0.730005 0 0.191088
0.835107 0.0748612 0 0.28814
0.822721 0.16418 0 0.281203
0.835107 0.0812603 3.46945e-18 0.287864
0.835107 0.0878917 0 0.287569
0.715676 0.440544 0 0.244044
0.835107 0.0947639 0 0.287254
0.797951 0.264688 6.16298e-33 0.270008
0.835107 0.101886 -3.46945e-18 0.286919
0.835107 0.109266 0 0.286562
0.288433 0.791472 0 0.179936
0.835107 0.116914 0 0.286181
0.67013 0.51269 0 0.232114
0.797951 0.274657 0 0.269373
0.0757758 0.840686 3.46945e-18 0.171925
0.835107 0.12484 0 0.285777
0.797951 0.27798 0 0.269162
0.624584 0.569849 0 0.222179
0.756814 0.377026 0 0.25508
0.835107 0.133054 -3.46945e-18 0.285349
0.835107 0.141566 0 0.284895
0.835107 0.150387 3.46945e-18 0.284413
0.797951 0.291753 0 0.268266
0.835107 0.159528 0 0.283904
0.715676 0.46022 0 0.242596
0.816529 0.239487 0 0.275426
0.350249 0.775831 0 0.1838
0.835107 0.169001 0 0.283365
0.523729 0.67277 0 0.203926
0.756814 0.394396 -3.46945e-18 0.253849
0.822721 0.227544 0 0.277468
0.835107 0.178818 0 0.282794
0.574156 0.632561 0 0.211655
0.797951 0.306027 -1.54074e-33 0.267317
0.467897 0.715441 3.46945e-18 0.195918
0.835107 0.188991 0 0.282192
0.797951 0.310958 0 0.266982
0 0.857483 0 0.170681
0.67013 0.534985 3.46945e-18 0.230406
0.835107 0.199534 0 0.281555
0.835107 0.2049 0 0.281493
0.797951 0.320819 0 0.266312
0.835107 0.21046 3.46945e-18 0.280881
0.756814 0.412397 -3.46945e-18 0.252542
0.715676 0.48061 0 0.241055
0.624584 0.594219 0 0.220272
0.797951 0.328484 0 0.26578
0.835107 0.221782 0 0.280171
0.412065 0.76019 0 0.188784
0.797951 0.336148 0 0.265248
0.835107 0.233515 3.46945e-18 0.27942
0.219992 0.840686 0 0.173555
0.835107 0.245675 3.46945e-18 0.278628
0.151552 0.857483 0 0.171519
0.756814 0.431051 0 0.251153
0.67013 0.55809 0 0.228588
0.797951 0.352034 0 0.264121