# pMean  POINT_DATA 63140
# x  y  z  pMean
0 0.1 0 0.223493
0 0.1 -0.0179898 0.223531
0 0.1 0.0179898 0.223458
0.0363518 0.1 -0.0179898 0.223531
0.0363518 0.1 0.0179898 0.223458
0 0.1 -0.0570102 0.223452
0 0.1 0.0570102 0.223222
0.0363518 0.1 0.0570102 0.223222
0.0363518 0.1 -0.0570102 0.223452
0 0.1 -0.075 0.22334
0 0.1 0.075 0.223041
0.0757758 0.1 -0.0375 0.223575
0.0757758 0.1 0.0375 0.223421
0 0.1 -0.0929898 0.223231
0 0.1 0.0929898 0.222862
0.0363518 0.1 -0.0929898 0.223231
0.0363518 0.1 0.0929898 0.222862
0 0.1 -0.13201 0.22283
0 0.1 0.13201 0.222316
0.0757758 0.1 -0.1125 0.223115
0.0757758 0.1 0.1125 0.222671
0.0363518 0.1 -0.13201 0.22283
0.0363518 0.1 0.13201 0.222316
0 0.1 -0.15 0.222571
0 0.1 0.15 0.221992
0.150379 0.1 -4.33681e-19 0.21574
0 0.1 -0.16799 0.222314
0 0.1 0.16799 0.221671
0.150379 0.1 -0.075 0.215534
0.150379 0.1 0.075 0.215244
0.0363518 0.1 -0.16799 0.222314
0.0363518 0.1 0.16799 0.221671
0.0757758 0.1 -0.1875 0.222037
0.0757758 0.1 0.1875 0.221324
0 0.1 -0.20701 0.221573
0 0.1 0.20701 0.220794
0.0363518 0.1 -0.20701 0.221573
0.0363518 0.1 0.20701 0.220794
0.150379 0.1 -0.15 0.214605
0.150379 0.1 0.15 0.21404
0.219992 0.1 -0.0375 0.208408
0.219992 0.1 0.0375 0.208274
0 0.1 -0.225 0.221149
0 0.1 0.225 0.220309
0 0.1 -0.24299 0.220728
0 0.1 0.24299 0.219827
0.0363518 0.1 0.24299 0.219827
0.0363518 0.1 -0.24299 0.220728
0.219992 0.1 -0.1125 0.207761
0.219992 0.1 0.1125 0.207334
0.150379 0.1 0.225 0.212114
0.150379 0.1 -0.225 0.212938
0.0757758 0.1 0.2625 0.219304
0.0757758 0.1 -0.2625 0.220272
0 0.1 -0.28201 0.219633
0 0.1 0.28201 0.218601
0.0363518 0.1 -0.28201 0.219633
0.0363518 0.1 0.28201 0.218601
0.287374 0.1 0 0.211759
0.219992 0.1 -0.1875 0.206244
0.219992 0.1 0.1875 0.20557
0.287374 0.1 -0.075 0.211514
0.287374 0.1 0.075 0.211217
0 0.1 -0.3 0.219048
0 0.1 0.3 0.217957
0 0.1 -0.31799 0.218465
0 0.1 0.31799 0.217314
0.0363518 0.1 -0.31799 0.218465
0.0363518 0.1 0.31799 0.217314
0.287374 0.1 -0.15 0.210457
0.287374 0.1 0.15 0.209873
0.150379 0.1 -0.3 0.210581
0.150379 0.1 0.3 0.209496
0.219992 0.1 -0.2625 0.203959
0.219992 0.1 0.2625 0.203018
0.0757758 0.1 -0.3375 0.217834
0.0757758 0.1 0.3375 0.216619
0.350249 0.1 -0.0375 0.215109
0.350249 0.1 0.0375 0.214949
0 0.1 0.35701 0.215757
0 0.1 -0.35701 0.217034
0.0363518 0.1 -0.35701 0.217034
0.0363518 0.1 0.35701 0.215757
0.287374 0.1 -0.225 0.208599
0.287374 0.1 0.225 0.207736
0.350249 0.1 0.1125 0.214015
0.350249 0.1 -0.1125 0.21448
0 0.1 -0.375 0.2163
0 0.1 0.375 0.214966
0 0.1 -0.39299 0.215567
0 0.1 0.39299 0.214176
0.0363518 0.1 -0.39299 0.215567
0.0363518 0.1 0.39299 0.214176
0.350249 0.1 -0.1875 0.213046
0.350249 0.1 0.1875 0.212276
0.219992 0.1 -0.3375 0.201042
0.219992 0.1 0.3375 0.199827
0.150379 0.1 -0.375 0.207597
0.150379 0.1 0.375 0.206258
0.411108 0.1 -2.21177e-17 0.22062
0.287374 0.1 -0.3 0.206012
0.287374 0.1 0.3 0.204871
0.411108 0.1 0.075 0.220018
0.411108 0.1 -0.075 0.220339
0.0757758 0.1 -0.4125 0.214775
0.0757758 0.1 0.4125 0.213322
0 0.1 -0.43201 0.213823
0 0.1 0.43201 0.212311
0.0363518 0.1 -0.43201 0.213823
0.0363518 0.1 0.43201 0.212311
0.411108 0.1 -0.15 0.219177
0.411108 0.1 0.15 0.218539
0.350249 0.1 -0.2625 0.210845
0.350249 0.1 0.2625 0.209782
0 0.1 -0.45 0.212949
0 0.1 0.45 0.211384
0.219992 0.1 -0.4125 0.197541
0.219992 0.1 0.4125 0.19607
0 0.1 -0.46799 0.212076
0 0.1 0.46799 0.210457
0.411108 0.1 -0.225 0.217158
0.411108 0.1 0.225 0.216208
0.467897 0.1 0.0375 0.225899
0.467897 0.1 -0.0375 0.226063
0.0363518 0.1 -0.46799 0.212076
0.0363518 0.1 0.46799 0.210457
0.287374 0.1 -0.375 0.202755
0.287374 0.1 0.375 0.20135
0.150379 0.1 -0.45 0.204037
0.150379 0.1 0.45 0.202457
0.467897 0.1 -0.1125 0.22525
0.467897 0.1 0.1125 0.224755
0.350249 0.1 0.3375 0.206559
0.350249 0.1 -0.3375 0.207896
0.0757758 0.1 -0.4875 0.211131
0.0757758 0.1 0.4875 0.209454
0.467897 0.1 -0.1875 0.223489
0.467897 0.1 0.1875 0.222669
0 0.1 -0.50701 0.21004
0 0.1 0.50701 0.20831
0.0363518 0.1 -0.50701 0.21004
0.0363518 0.1 0.50701 0.20831
0.411108 0.1 -0.3 0.214321
0.411108 0.1 0.3 0.213071
0.522864 0.1 -2.08167e-17 0.232637
0 0.1 -0.525 0.209039
0 0.1 0.525 0.207258
0.522864 0.1 -0.075 0.232287
0.522864 0.1 0.075 0.231937
0.287374 0.1 -0.45 0.198884
0.287374 0.1 0.45 0.197227
0.219992 0.1 -0.4875 0.193523
0.219992 0.1 0.4875 0.191806
0.467897 0.1 0.2625 0.219682
0.467897 0.1 -0.2625 0.220825
0.350249 0.1 -0.4125 0.204241
0.350249 0.1 0.4125 0.202649
0 0.1 -0.54299 0.208038
0 0.1 0.54299 0.206208
0.522864 0.1 0.15 0.230204
0.522864 0.1 -0.15 0.230901
0.0363518 0.1 -0.54299 0.208038
0.0363518 0.1 0.54299 0.206208
0.150379 0.1 -0.525 0.199962
0.150379 0.1 0.525 0.198158
0.411108 0.1 -0.375 0.21071
0.411108 0.1 0.375 0.209181
0.0757758 0.1 -0.5625 0.206954
0.0757758 0.1 0.5625 0.20507
0.522864 0.1 -0.225 0.228513
0.522864 0.1 0.225 0.227478
0.574156 0.1 -0.0375 0.239129
0.574156 0.1 0.0375 0.238944
0.467897 0.1 -0.3375 0.217311
0.467897 0.1 0.3375 0.215862
0 0.1 -0.58201 0.205742
0 0.1 0.58201 0.203807
0.0363518 0.1 -0.58201 0.205742
0.0363518 0.1 0.58201 0.203807
0.574156 0.1 -0.1125 0.238195
0.574156 0.1 0.1125 0.237643
0.287374 0.1 -0.525 0.19447
0.287374 0.1 0.525 0.192578
0 0.1 -0.6 0.204627
0 0.1 0.6 0.202646
0.350249 0.1 -0.4875 0.199938
0.350249 0.1 0.4875 0.198098
0.522864 0.1 0.3 0.223819
0.522864 0.1 -0.3 0.225177
0.219992 0.1 -0.5625 0.189075
0.219992 0.1 0.5625 0.187141
0.574156 0.1 -0.1875 0.236167
0.574156 0.1 0.1875 0.23525
0.411108 0.1 -0.45 0.206387
0.411108 0.1 0.45 0.204594
0 0.1 -0.61799 0.203513
0 0.1 0.61799 0.201486
0.150379 0.1 -0.6 0.195426
0.150379 0.1 0.6 0.193417
0.0363518 0.1 -0.61799 0.203513
0.0363518 0.1 0.61799 0.201486
0.467897 0.1 0.4125 0.21128
0.467897 0.1 -0.4125 0.213013
0.623803 0.1 1.04083e-17 0.246605
0.623803 0.1 -0.075 0.246196
0.623803 0.1 0.075 0.245805
0.574156 0.1 -0.2625 0.233084
0.574156 0.1 0.2625 0.231827
0.623803 0.1 -0.15 0.24459
0.623803 0.1 0.15 0.243814
0.0757758 0.1 0.6375 0.20023
0.0757758 0.1 -0.6375 0.202308
0.522864 0.1 -0.375 0.220961
0.522864 0.1 0.375 0.219298
0 0.1 0.65701 0.198865
0 0.1 -0.65701 0.200989
0.0363518 0.1 0.65701 0.198865
0.0363518 0.1 -0.65701 0.200989
0.350249 0.1 -0.5625 0.19507
0.350249 0.1 0.5625 0.192996
0.623803 0.1 -0.225 0.241825
0.623803 0.1 0.225 0.240677
0.287374 0.1 -0.6 0.189583
0.287374 0.1 0.6 0.187474
0.574156 0.1 -0.3375 0.229018
0.574156 0.1 0.3375 0.22744
0.411108 0.1 -0.525 0.201425
0.411108 0.1 0.525 0.199386
0.67013 0.1 -0.0375 0.254007
0.67013 0.1 0.0375 0.253799
0.219992 0.1 0.6375 0.182079
0.219992 0.1 -0.6375 0.184215
0 0.1 -0.675 0.199776
0 0.1 0.675 0.19761
0.467897 0.1 -0.4875 0.208003
0.467897 0.1 0.4875 0.206006
0.67013 0.1 -0.1125 0.252917
0.67013 0.1 0.1125 0.2523
0.522864 0.1 -0.45 0.215945
0.522864 0.1 0.45 0.213998
0.150379 0.1 0.675 0.188278
0.150379 0.1 -0.675 0.190477
0.623803 0.1 0.3 0.236463
0.623803 0.1 -0.3 0.237962
0 0.1 -0.69299 0.198564
0 0.1 0.69299 0.196355
0.0363518 0.1 0.69299 0.196355
0.0363518 0.1 -0.69299 0.198564
0.67013 0.1 0.1875 0.24954
0.67013 0.1 -0.1875 0.250555
0.574156 0.1 -0.4125 0.224056
0.574156 0.1 0.4125 0.222171
0.714971 0.1 -1.82146e-17 0.262111
0.0757758 0.1 0.7125 0.194997
0.0757758 0.1 -0.7125 0.197253
0.714971 0.1 -0.075 0.261631
0.714971 0.1 0.075 0.261192
0.67013 0.1 -0.2625 0.246981
0.67013 0.1 0.2625 0.245583
0.411108 0.1 -0.6 0.19591
0.411108 0.1 0.6 0.193646
0.350249 0.1 -0.6375 0.189717
0.350249 0.1 0.6375 0.187433
0.623803 0.1 -0.375 0.233085
0.623803 0.1 0.375 0.231258
0.714971 0.1 0.15 0.258896
0.714971 0.1 -0.15 0.259763
0.467897 0.1 -0.5625 0.202368
0.467897 0.1 0.5625 0.20013
0 0.1 -0.73201 0.195845
0 0.1 0.73201 0.193547
0.0363518 0.1 -0.73201 0.195845
0.0363518 0.1 0.73201 0.193547
0.287374 0.1 0.675 0.181973
0.287374 0.1 -0.675 0.184276
0.522864 0.1 -0.525 0.21022
0.522864 0.1 0.525 0.208014
0.219992 0.1 0.7125 0.176665
0.219992 0.1 -0.7125 0.17899
0.714971 0.1 0.225 0.255273
0.714971 0.1 -0.225 0.256553
0 0.1 0.75 0.192213
0 0.1 -0.75 0.19455
0.67013 0.1 -0.3375 0.242272
0.67013 0.1 0.3375 0.240517
0.574156 0.1 0.4875 0.216125
0.574156 0.1 -0.4875 0.218291
0.756814 0.1 -0.0375 0.270167
0.756814 0.1 0.0375 0.269933
0.150379 0.1 0.746002 0.183229
0.150379 0.1 -0.75 0.185174
0.756814 0.1 -0.1125 0.268898
0.756814 0.1 0.1125 0.268203
0 0.1 0.76799 0.190879
0 0.1 -0.76799 0.193256
0.0363518 0.1 0.76799 0.190879
0.0363518 0.1 -0.76799 0.193256
0.623803 0.1 -0.45 0.227296
0.623803 0.1 0.45 0.225167
0.714971 0.1 0.3 0.250409
0.714971 0.1 -0.3 0.252077
0.756814 0.1 -0.1875 0.266155
0.756814 0.1 0.1875 0.265018
0.67013 0.1 -0.4125 0.236527
0.67013 0.1 0.4125 0.234446
0.411108 0.1 -0.675 0.189928
0.411108 0.1 0.675 0.187464
0.467897 0.1 -0.6375 0.196198
0.467897 0.1 0.6375 0.193744
0.0757758 0.1 -0.7875 0.191855
0.0757758 0.1 0.7875 0.189436
0.350249 0.1 0.7125 0.181489
0.350249 0.1 -0.7125 0.18395
0.522864 0.1 -0.6 0.203886
0.522864 0.1 0.6 0.201446
0.797314 0.1 -2.86229e-17 0.278657
0.287374 0.1 0.746002 0.176374
0.797314 0.1 -0.075 0.278099
0.797314 0.1 0.075 0.277605
0.756814 0.1 0.2625 0.260447
0.756814 0.1 -0.2625 0.262011
0.287374 0.1 -0.75 0.178616
0.574156 0.1 -0.5625 0.211832
0.574156 0.1 0.5625 0.209414
0 0.1 0.80701 0.187918
0 0.1 -0.80701 0.190374
0.714971 0.1 -0.375 0.246432
0.714971 0.1 0.375 0.244411
0.0363518 0.1 -0.80701 0.190374
0.0363518 0.1 0.80701 0.187918
0.797314 0.1 -0.15 0.275943
0.797314 0.1 0.15 0.274967
0.623803 0.1 -0.525 0.220711
0.623803 0.1 0.525 0.218309
0.219992 0.1 0.7875 0.170967
0.219992 0.1 -0.7875 0.173461
0.149792 0.1 0.80701 0.178477
0 0.1 0.825 0.186521
0 0.1 -0.825 0.189012
0.797314 0.1 -0.225 0.272241
0.797314 0.1 0.225 0.270807
0.756814 0.1 -0.3375 0.256554
0.756814 0.1 0.3375 0.254607
0.67013 0.1 -0.4875 0.229873
0.67013 0.1 0.4875 0.227497
0.835107 0.1 -0.0375 0.28714
0.835107 0.1 0.0375 0.286876
0.150379 0.1 -0.825 0.179577
0.835107 0.1 -0.1125 0.285681
0.835107 0.1 0.1125 0.284897
0 0.1 0.84299 0.185125
0 0.1 -0.84299 0.18765
0.0363518 0.1 0.84299 0.185125
0.0363518 0.1 -0.84299 0.18765
0.714971 0.1 -0.45 0.239746
0.714971 0.1 0.45 0.237404
0.411108 0.1 0.746002 0.18119
0.797314 0.1 -0.3 0.267085
0.797314 0.1 0.3 0.265225
0.467897 0.1 -0.7125 0.189592
0.467897 0.1 0.7125 0.186944
0.522864 0.1 0.675 0.194401
0.522864 0.1 -0.675 0.197046
0.411108 0.1 -0.75 0.183565
0.835107 0.1 -0.1875 0.282536
0.835107 0.1 0.1875 0.281254
0.286844 0.1 0.80701 0.171523
0.574156 0.1 0.6375 0.20215
0.574156 0.1 -0.6375 0.204791
0.350249 0.1 -0.7875 0.177854
0.350249 0.1 0.7875 0.175229
0.756814 0.1 0.4125 0.24762
0.756814 0.1 -0.4125 0.249913
0.623803 0.1 -0.6 0.213454
0.623803 0.1 0.6 0.21081
0.0757758 0.1 0.8625 0.183614
0.0757758 0.1 -0.8625 0.186177
0.871687 0.1 -1.73472e-17 0.295778
0.287374 0.1 -0.825 0.172671
0.871687 0.1 -0.075 0.295134
0.871687 0.1 0.075 0.294578
0.67013 0.1 -0.5625 0.222444
0.67013 0.1 0.5625 0.219806
0.835107 0.1 0.2625 0.276029
0.835107 0.1 -0.2625 0.277775
0.797314 0.1 -0.375 0.260597
0.797314 0.1 0.375 0.25835
0 0.1 0.88201 0.182044
0 0.1 -0.88201 0.184641
0.0363518 0.1 0.88201 0.182044
0.0363518 0.1 -0.88201 0.184641
0.871687 0.1 0.15 0.291569
0.871687 0.1 -0.15 0.292665
0.714971 0.1 -0.525 0.232166
0.714971 0.1 0.525 0.229535
0.219992 0.1 0.8625 0.165044
0.219992 0.1 -0.8625 0.167684
0 0.1 0.9 0.1806
0 0.1 -0.9 0.183228
0.756814 0.1 -0.4875 0.242243
0.756814 0.1 0.4875 0.239631
0.871687 0.1 -0.225 0.288428
0.871687 0.1 0.225 0.286823
0.835107 0.1 -0.3375 0.271534
0.835107 0.1 0.3375 0.269357
0.410629 0.1 0.80701 0.175766
0.905821 0.1 -0.0375 0.30446
0.905821 0.1 0.0375 0.304164
0.522864 0.1 0.746002 0.18727
0.150379 0.1 0.9 0.171081
0.905821 0.1 0.1125 0.30191
0.905821 0.1 -0.1125 0.302788
0.522864 0.1 -0.75 0.189809
0.574156 0.1 -0.7125 0.197284
0.574156 0.1 0.7125 0.194453
0.797314 0.1 -0.45 0.252926
0.797314 0.1 0.45 0.250332
0.467897 0.1 0.7875 0.179824
0.467897 0.1 -0.7875 0.182643
0.150379 0.1 -0.903998 0.174128
0 0.1 0.91799 0.179156
0 0.1 -0.91799 0.181815
0.0363518 0.1 0.91799 0.179156
0.0363518 0.1 -0.91799 0.181815
0.623803 0.1 -0.675 0.205652
0.623803 0.1 0.675 0.202798
0.411108 0.1 -0.825 0.176905
0.871687 0.1 -0.3 0.282533
0.871687 0.1 0.3 0.280455
0.67013 0.1 0.6375 0.211511
0.67013 0.1 -0.6375 0.21438
0.905821 0.1 -0.1875 0.299195
0.905821 0.1 0.1875 0.297759
0.350249 0.1 0.8625 0.168735
0.350249 0.1 -0.8625 0.171501
0.835107 0.1 -0.4125 0.263948
0.835107 0.1 0.4125 0.261386
0.714971 0.1 -0.6 0.223842
0.714971 0.1 0.6 0.220961
0.93886 0.1 -1.25767e-17 0.312926
0.0757758 0.1 0.9375 0.177593
0.0757758 0.1 -0.9375 0.180286
0.93886 0.1 -0.075 0.312206
0.93886 0.1 0.075 0.311573
0.756814 0.1 -0.5625 0.233708
0.756814 0.1 0.5625 0.230822
0.905821 0.1 -0.2625 0.293762
0.905821 0.1 0.2625 0.291812
0.287374 0.1 0.9 0.163738
0.287374 0.1 -0.903998 0.167157
0.871687 0.1 -0.375 0.275125
0.871687 0.1 0.375 0.272623
0.93886 0.1 -0.15 0.30943
0.93886 0.1 0.15 0.308185
0.797314 0.1 -0.525 0.244253
0.797314 0.1 0.525 0.241355
0 0.1 0.95701 0.175988
0 0.1 -0.95701 0.178709
0.0363518 0.1 0.95701 0.175988
0.0363518 0.1 -0.95701 0.178709
0.522432 0.1 0.80701 0.181155
0.219992 0.1 0.9375 0.158949
0.219992 0.1 -0.9375 0.161721
0.93886 0.1 -0.225 0.304666
0.93886 0.1 0.225 0.302849
0.905821 0.1 -0.3375 0.286638
0.905821 0.1 0.3375 0.284206
0.835107 0.1 0.4875 0.252294
0.835107 0.1 -0.4875 0.255193
0.96969 0.1 -0.0375 0.321505
0.96969 0.1 0.0375 0.321163
0.61613 0.1 0.75 0.194403
0.574156 0.1 0.7875 0.186431
0.574156 0.1 -0.7875 0.189432
0 0.1 0.975 0.174511
0 0.1 -0.975 0.177259
0.623803 0.1 -0.75 0.197439
0.96969 0.1 -0.1125 0.31966
0.96969 0.1 0.1125 0.318647
0.522864 0.1 -0.825 0.182276
0.67013 0.1 -0.7125 0.205824
0.67013 0.1 0.7125 0.202758
0.871687 0.1 -0.45 0.266379
0.871687 0.1 0.45 0.263514
0.467897 0.1 -0.8625 0.17544
0.467897 0.1 0.8625 0.17248
0.714971 0.1 -0.675 0.214934
0.714971 0.1 0.675 0.211839
0.93886 0.1 -0.3 0.29803
0.93886 0.1 0.3 0.295693
0.150379 0.1 0.975 0.16496
0.150379 0.1 -0.975 0.167747
0.96969 0.1 -0.1875 0.315675
0.96969 0.1 0.1875 0.314026
0.411108 0.1 0.9 0.167104
0.756814 0.1 -0.6375 0.22448
0.756814 0.1 0.6375 0.221358
0.990306 0.1 0 0.326132
0 0.1 0.99299 0.173035
0 0.1 -0.99299 0.175809
0.411108 0.1 -0.903998 0.17075
0.990306 0.1 -0.075 0.325349
0.990306 0.1 0.075 0.324645
0.0363518 0.1 0.99299 0.173035
0.0363518 0.1 -0.99299 0.175809
0.905821 0.1 -0.4125 0.277984
0.905821 0.1 0.4125 0.275155
0.797314 0.1 -0.6 0.234766
0.797314 0.1 0.6 0.231611
0.350249 0.1 0.9375 0.162073
0.350249 0.1 -0.9375 0.16497
0.990306 0.1 -0.15 0.322313
0.990306 0.1 0.15 0.320932
0.96969 0.1 -0.2625 0.309643
0.96969 0.1 0.2625 0.307417
0.835107 0.1 -0.5625 0.245494
0.835107 0.1 0.5625 0.242309
0.93886 0.1 -0.375 0.289686
0.93886 0.1 0.375 0.286896
0.0757758 0.1 1.0125 0.171437
0.0757758 0.1 -1.0125 0.174239
0.990306 0.1 -0.225 0.317099
0.990306 0.1 0.225 0.315089
0.287374 0.1 -0.975 0.16019
0.287374 0.1 0.975 0.157302
0.871687 0.1 -0.525 0.256516
0.871687 0.1 0.525 0.253336
1.02149 0.1 -0.0369628 0.336114
1.02149 0.1 0.0369628 0.335743
0.96969 0.1 0.3375 0.298971
0.96969 0.1 -0.3375 0.301705
1.02149 0.1 -0.110888 0.334093
1.02149 0.1 0.110888 0.332991
0.905821 0.1 -0.4875 0.268026
0.905821 0.1 0.4875 0.264863
0.623803 0.1 0.819003 0.187465
0 0.1 1.03201 0.169811
0 0.1 -1.03201 0.172639
0.0363518 0.1 1.03201 0.169811
0.0363518 0.1 -1.03201 0.172639
0.67013 0.1 -0.7875 0.196924
0.67013 0.1 0.7875 0.193689
0.623803 0.1 -0.825 0.18894
0.990306 0.1 0.3 0.307258
0.990306 0.1 -0.3 0.30983
0.219992 0.1 1.0125 0.152741
0.219992 0.1 -1.0125 0.15562
0.574156 0.1 0.8625 0.1782
0.574156 0.1 -0.8625 0.181341
0.714971 0.1 -0.75 0.205604
0.714971 0.1 0.75 0.202327
1.02149 0.1 -0.184814 0.329729
1.02149 0.1 0.184814 0.327938
0.756814 0.1 -0.7125 0.214736
0.756814 0.1 0.7125 0.21142
0.522864 0.1 0.9 0.171434
0.93886 0.1 -0.45 0.279858
0.93886 0.1 0.45 0.276671
1.04168 0.1 0 0.342023
1.04168 0.1 -0.0729162 0.341218
1.04168 0.1 0.0729162 0.340443
0.522864 0.1 -0.903998 0.17537
0.797314 0.1 -0.675 0.224654
0.797314 0.1 0.675 0.221287
0.467897 0.1 0.9375 0.16499
0.467897 0.1 -0.9375 0.168079
0 0.1 1.05 0.168315
0 0.1 -1.05 0.171166
0.835107 0.1 -0.6375 0.235044
0.835107 0.1 0.6375 0.231629
1.04168 0.1 -0.145832 0.338045
1.04168 0.1 0.145832 0.336521
1.02149 0.1 -0.25874 0.323124
1.02149 0.1 0.25874 0.320707
0.96969 0.1 -0.4125 0.292066
0.96969 0.1 0.4125 0.288908
0.411108 0.1 0.975 0.159981
0.411108 0.1 -0.975 0.163025
0.871687 0.1 -0.6 0.245761
0.871687 0.1 0.6 0.242318
1.0579 0.1 -0.0360525 0.34698
1.0579 0.1 0.0360525 0.346599
0.990306 0.1 -0.375 0.300697
0.990306 0.1 0.375 0.297635
0.150379 0.1 1.05 0.158742
0.150379 0.1 -1.05 0.161632
1.0579 0.1 -0.108157 0.344985
1.0579 0.1 0.108157 0.343854
1.04168 0.1 -0.218749 0.332575
1.04168 0.1 0.218749 0.330358
0.905821 0.1 -0.5625 0.25702
0.905821 0.1 0.5625 0.253556
0 0.1 1.06799 0.16682
0 0.1 -1.06799 0.169694
0.0363518 0.1 -1.06799 0.169694
0.0363518 0.1 1.06799 0.16682
0.350249 0.1 1.0125 0.155317
0.350249 0.1 -1.0125 0.158315
1.0579 0.1 -0.180262 0.34066
1.0579 0.1 0.180262 0.338818
1.02149 0.1 0.332665 0.311472
1.02149 0.1 -0.332665 0.314442
0.93886 0.1 -0.525 0.268805
0.93886 0.1 0.525 0.265276
1.08012 0.1 4.48137e-18 0.353535
1.04168 0.1 -0.291665 0.324935
1.04168 0.1 0.291665 0.322097
1.08012 0.1 -0.0709942 0.352753
1.08012 0.1 0.0709942 0.351943
0.96969 0.1 -0.4875 0.28103
0.96969 0.1 0.4875 0.277443
1.0579 0.1 -0.252367 0.334095
1.0579 0.1 0.252367 0.33161
0.990306 0.1 -0.45 0.28995
0.990306 0.1 0.45 0.28646
0.287374 0.1 1.05 0.150788
0.287374 0.1 -1.05 0.153775
0.714971 0.1 0.821002 0.19333
1.08012 0.1 0.141988 0.348017
1.08012 0.1 -0.141988 0.349612
0.0757758 0.1 -1.0875 0.1681
0.0757758 0.1 1.0875 0.165201
0.714971 0.1 -0.825 0.196006
0.756814 0.1 -0.7875 0.204656
0.756814 0.1 0.7875 0.201174
0.67013 0.1 -0.8625 0.187809
0.67013 0.1 0.8625 0.184439
0.797314 0.1 -0.75 0.214114
0.797314 0.1 0.75 0.210573
0.623803 0.1 0.9 0.176959
0.835107 0.1 -0.7125 0.224057
0.835107 0.1 0.7125 0.220451
0.623803 0.1 -0.903998 0.18119
0.574156 0.1 0.9375 0.169861
0.574156 0.1 -0.9375 0.173128
1.02149 0.1 -0.406591 0.303936
1.02149 0.1 0.406591 0.300474
1.08012 0.1 -0.212982 0.344174
1.08012 0.1 0.212982 0.341852
1.10076 0.1 -0.034981 0.36023
1.10076 0.1 0.034981 0.359794
0.871687 0.1 -0.675 0.234338
0.871687 0.1 0.675 0.230687
1.04168 0.1 -0.364581 0.315323
1.04168 0.1 0.364581 0.311939
1.10076 0.1 0.104943 0.356983
1.10076 0.1 -0.104943 0.358281
0.522864 0.1 0.975 0.163495
0.522864 0.1 -0.975 0.166722
1.0579 0.1 0.324472 0.322392
1.0579 0.1 -0.324472 0.325443
0 0.1 1.10701 0.163569
0 0.1 -1.10701 0.166489
0.0363518 0.1 -1.10701 0.166489
0.0363518 0.1 1.10701 0.163569
0.905821 0.1 -0.6375 0.245192
0.905821 0.1 0.6375 0.241494
0.219992 0.1 -1.0875 0.149446
0.219992 0.1 1.0875 0.14647
0.93886 0.1 -0.6 0.256773
0.93886 0.1 0.6 0.25299
1.10076 0.1 0.174905 0.351869
1.10076 0.1 -0.174905 0.353985
0.467897 0.1 1.0125 0.157439
0.467897 0.1 -1.0125 0.160624
1.08012 0.1 -0.283977 0.336554
1.08012 0.1 0.283977 0.333584
1.11929 0.1 1.20274e-17 0.365332
0.990306 0.1 -0.525 0.27787
0.990306 0.1 0.525 0.27403
0.96969 0.1 -0.5625 0.268847
0.96969 0.1 0.5625 0.264952
1.11929 0.1 0.0690357 0.363692
1.11929 0.1 -0.0690357 0.364581
0 0.1 1.125 0.162068
0 0.1 -1.125 0.165007
0.411108 0.1 1.05 0.152811
0.411108 0.1 -1.05 0.15595
1.10076 0.1 -0.244867 0.347421
1.10076 0.1 0.244867 0.344562
1.11929 0.1 -0.138071 0.361453
1.11929 0.1 0.138071 0.359702
1.02149 0.1 0.480517 0.288008
1.02149 0.1 -0.480517 0.291837
1.0579 0.1 -0.396577 0.314926
1.0579 0.1 0.396577 0.311388
1.04168 0.1 -0.437497 0.303973
1.04168 0.1 0.437497 0.300144
0.150379 0.1 1.125 0.152476
0.150379 0.1 -1.125 0.155454
0.714971 0.1 0.88201 0.186614
1.08012 0.1 -0.354971 0.326931
1.08012 0.1 0.354971 0.323399
1.11929 0.1 0.207107 0.353451
1.11929 0.1 -0.207107 0.356004
0.350249 0.1 1.0875 0.14852
0.350249 0.1 -1.0875 0.151611
0 0.1 -1.14299 0.163525
0 0.1 1.14299 0.160566
0.0363518 0.1 1.14299 0.160566
0.0363518 0.1 -1.14299 0.163525
1.14316 0.1 0.0339211 0.372567
1.14316 0.1 -0.0339211 0.373016
0.797314 0.1 0.821002 0.200092
1.10076 0.1 -0.314829 0.338726
1.10076 0.1 0.314829 0.335217
0.797314 0.1 -0.825 0.203324
0.756814 0.1 0.8625 0.190787
0.756814 0.1 -0.8625 0.194396
1.14316 0.1 0.101763 0.369724
1.14316 0.1 -0.101763 0.371061
0.835107 0.1 -0.7875 0.212742
0.835107 0.1 0.7875 0.20899
0.871687 0.1 -0.75 0.222485
0.871687 0.1 0.75 0.218666
0.67013 0.1 0.9375 0.175126
0.67013 0.1 -0.9375 0.17861
0.905821 0.1 -0.7125 0.232802
0.905821 0.1 0.7125 0.228924
0.714971 0.1 -0.903998 0.187297
1.11929 0.1 -0.276143 0.348339
1.11929 0.1 0.276143 0.34507
1.14316 0.1 -0.169605 0.366738
1.14316 0.1 0.169605 0.364557
0.93886 0.1 -0.675 0.244027
0.93886 0.1 0.675 0.240055
1.15704 0.1 0 0.376895
1.0579 0.1 -0.468682 0.302774
1.0579 0.1 0.468682 0.29887
0.623803 0.1 0.975 0.168134
0.623803 0.1 -0.975 0.171556
0.990306 0.1 -0.6 0.264737
0.990306 0.1 0.6 0.260656
1.15704 0.1 -0.0671479 0.37618
1.15704 0.1 0.0671479 0.375205
1.04168 0.1 -0.510414 0.291159
1.04168 0.1 0.510414 0.286998
0.96969 0.1 -0.6375 0.255762
0.96969 0.1 0.6375 0.251696
1.08012 0.1 -0.425965 0.315524
1.08012 0.1 0.425965 0.311537
0.287374 0.1 1.125 0.144247
0.287374 0.1 -1.125 0.147318
1.02149 0.1 -0.554442 0.278459
1.02149 0.1 0.554442 0.274364
0.574156 0.1 1.0125 0.161513
0.574156 0.1 -1.0125 0.164878
1.15704 0.1 -0.134296 0.373074
1.15704 0.1 0.134296 0.371151
0.0757758 0.1 -1.1625 0.161921
0.0757758 0.1 1.1625 0.158941
1.10076 0.1 -0.384791 0.328104
1.10076 0.1 0.384791 0.324041
1.14316 0.1 -0.237448 0.360118
1.14316 0.1 0.237448 0.35717
1.11929 0.1 0.345179 0.334737
1.11929 0.1 -0.345179 0.338625
0.522864 0.1 1.05 0.155555
0.522864 0.1 -1.05 0.158873
1.15704 0.1 -0.201444 0.367627
1.15704 0.1 0.201444 0.36482
1.1744 0.1 -0.0331401 0.382348
1.1744 0.1 0.0331401 0.381843
1.1744 0.1 0.0994203 0.378938
1.1744 0.1 -0.0994203 0.380443
0 0.1 1.18201 0.157316
0 0.1 -1.18201 0.160314
0.0363518 0.1 -1.18201 0.160314
0.0363518 0.1 1.18201 0.157316
0.219992 0.1 -1.1625 0.143229
0.219992 0.1 1.1625 0.140176
1.14316 0.1 -0.30529 0.351334
1.14316 0.1 0.30529 0.347714
0.467897 0.1 -1.0875 0.153167
0.467897 0.1 1.0875 0.149894
1.1744 0.1 -0.1657 0.376163
1.1744 0.1 0.1657 0.373702
1.15704 0.1 -0.268592 0.359937
1.15704 0.1 0.268592 0.356337
1.0579 0.1 0.540787 0.285121
1.0579 0.1 -0.540787 0.289303
0.796996 0.1 0.88201 0.191296
1.08012 0.1 0.496959 0.298268
1.08012 0.1 -0.496959 0.3026
1.10076 0.1 -0.454752 0.315775
1.10076 0.1 0.454752 0.311294
1.11929 0.1 -0.414214 0.327067
1.11929 0.1 0.414214 0.322684
1.04168 0.1 -0.58333 0.277199
1.04168 0.1 0.58333 0.272796
1.1744 0.1 -0.231981 0.369568
1.1744 0.1 0.231981 0.366234
0.871687 0.1 0.821002 0.206987
0.411108 0.1 1.125 0.145657
0.411108 0.1 -1.125 0.148873
1.19808 0.1 0 0.389535
0.990306 0.1 -0.675 0.250866
0.990306 0.1 0.675 0.246606
1.02149 0.1 0.628368 0.259831
1.02149 0.1 -0.628368 0.264141
1.19808 0.1 0.0650961 0.387799
1.19808 0.1 -0.0650961 0.388864
0 0.1 1.2 0.15582
0 0.1 -1.2 0.158835
0.871687 0.1 -0.825 0.210425
0.905821 0.1 -0.7875 0.22012
0.905821 0.1 0.7875 0.21609
0.835107 0.1 0.8625 0.197419
0.835107 0.1 -0.8625 0.201277
0.93886 0.1 -0.75 0.230852
0.93886 0.1 0.75 0.226732
1.14316 0.1 -0.373132 0.340571
1.14316 0.1 0.373132 0.336386
0.96969 0.1 -0.7125 0.242112
0.96969 0.1 0.7125 0.237876
1.15704 0.1 -0.33574 0.350158
1.15704 0.1 0.33574 0.345874
0.756814 0.1 0.9375 0.180397
0.756814 0.1 -0.9375 0.184109
1.19808 0.1 -0.130192 0.385797
1.19808 0.1 0.130192 0.383695
0.797314 0.1 -0.903998 0.193586
0.714971 0.1 -0.975 0.176555
0.714971 0.1 0.975 0.172917
0.150379 0.1 -1.2 0.149261
0.150379 0.1 1.2 0.146209
1.20938 0.1 -0.0322656 0.392953
1.20938 0.1 0.0322656 0.392406
1.1744 0.1 -0.298261 0.360787
1.1744 0.1 0.298261 0.356684
1.20938 0.1 -0.0967968 0.391086
1.20938 0.1 0.0967968 0.389457
1.19808 0.1 0.195288 0.377305
1.19808 0.1 -0.195288 0.380379
0.350249 0.1 -1.1625 0.1449
0.350249 0.1 1.1625 0.141741
0.67013 0.1 -1.0125 0.169426
0.67013 0.1 1.0125 0.16586
0 0.1 1.21799 0.154324
0 0.1 -1.21799 0.157356
0.0363518 0.1 1.21799 0.154324
0.0363518 0.1 -1.21799 0.157356
1.11929 0.1 -0.48325 0.313924
1.11929 0.1 0.48325 0.309167
1.10076 0.1 -0.524714 0.302045
1.10076 0.1 0.524714 0.297235
1.20938 0.1 0.161328 0.384174
1.20938 0.1 -0.161328 0.38684
1.08012 0.1 -0.567953 0.28847
1.08012 0.1 0.567953 0.283898
0.623803 0.1 1.05 0.159369
0.623803 0.1 -1.05 0.162873
1.0579 0.1 0.612892 0.270454
1.0579 0.1 -0.612892 0.27482
1.15704 0.1 -0.402888 0.338487
1.15704 0.1 0.402888 0.333654
1.14316 0.1 -0.440974 0.328043
1.14316 0.1 0.440974 0.323438
1.19808 0.1 -0.260384 0.372701
1.19808 0.1 0.260384 0.36875
1.2267 0.1 0 0.397788
1.2267 0.1 -0.0636648 0.397146
1.2267 0.1 0.0636648 0.39602
1.1744 0.1 -0.364541 0.349991
1.1744 0.1 0.364541 0.345239
0.574156 0.1 -1.0875 0.156674
0.574156 0.1 1.0875 0.153231
1.20938 0.1 0.225859 0.376649
1.20938 0.1 -0.225859 0.380268
1.04168 0.1 -0.656246 0.26243
1.04168 0.1 0.656246 0.257849
1.2267 0.1 -0.12733 0.394106
1.2267 0.1 0.12733 0.391882
0.287374 0.1 -1.2 0.140862
0.287374 0.1 1.2 0.137723
1.02149 0.1 -0.702294 0.249237
1.02149 0.1 0.702294 0.244763
0.0757758 0.1 1.2375 0.152705
0.0757758 0.1 -1.2375 0.155756
0.871399 0.1 0.88201 0.197211
0.522864 0.1 -1.125 0.151076
0.522864 0.1 1.125 0.147687
1.2267 0.1 -0.190995 0.388709
1.2267 0.1 0.190995 0.385452
1.19808 0.1 -0.32548 0.362904
1.19808 0.1 0.32548 0.358194
0.990306 0.1 -0.75 0.23658
0.990306 0.1 0.75 0.232189
1.24275 0.1 -0.0314313 0.402845
1.24275 0.1 0.0314313 0.402258
1.20938 0.1 -0.29039 0.371492
1.20938 0.1 0.29039 0.367029
1.24275 0.1 -0.0942939 0.401015
1.24275 0.1 0.0942939 0.399267
0.93886 0.1 0.821002 0.213844
1.11929 0.1 -0.552286 0.299507
1.11929 0.1 0.552286 0.294492
1.15704 0.1 -0.470036 0.325165
1.15704 0.1 0.470036 0.319929
0.96969 0.1 -0.7875 0.228166
0.96969 0.1 0.7875 0.223836
0.93886 0.1 -0.825 0.217509
0.905821 0.1 -0.8625 0.20738
0.905821 0.1 0.8625 0.20324
1.1744 0.1 -0.430821 0.33739
1.1744 0.1 0.430821 0.33215
1.10076 0.1 -0.594676 0.287226
1.10076 0.1 0.594676 0.282234
1.14316 0.1 -0.508816 0.314039
1.14316 0.1 0.508816 0.309125
1.24275 0.1 -0.157157 0.396802
1.24275 0.1 0.157157 0.393938
1.2267 0.1 -0.254659 0.381041
1.2267 0.1 0.254659 0.376848
0.467897 0.1 -1.1625 0.145762
0.467897 0.1 1.1625 0.142428
1.08012 0.1 -0.638947 0.273454
1.08012 0.1 0.638947 0.268734
1.25511 0.1 0 0.405939
0.835107 0.1 -0.9375 0.18986
0.835107 0.1 0.9375 0.185917
0.871687 0.1 -0.903998 0.199587
1.25511 0.1 -0.0622446 0.405306
1.25511 0.1 0.0622446 0.404162
0.219992 0.1 -1.2375 0.13702
0.219992 0.1 1.2375 0.133899
0 0.1 -1.25701 0.154163
0 0.1 1.25701 0.151099
0.0363518 0.1 1.25701 0.151099
0.0363518 0.1 -1.25701 0.154163
0.797314 0.1 0.975 0.177805
0.797314 0.1 -0.975 0.181663
1.19808 0.1 -0.390576 0.351175
1.19808 0.1 0.390576 0.345853
1.0579 0.1 0.684997 0.25517
1.0579 0.1 -0.684997 0.259663
1.20938 0.1 -0.354921 0.360671
1.20938 0.1 0.354921 0.355495
1.25511 0.1 -0.124489 0.402273
1.25511 0.1 0.124489 0.400011
1.24275 0.1 -0.220019 0.390254
1.24275 0.1 0.220019 0.386357
0.756814 0.1 -1.0125 0.173909
0.756814 0.1 1.0125 0.170124
1.2267 0.1 -0.318324 0.371236
1.2267 0.1 0.318324 0.366232
0.411108 0.1 -1.2 0.141849
0.411108 0.1 1.2 0.138571
1.25511 0.1 0.186734 0.393562
1.25511 0.1 -0.186734 0.396878
0.714971 0.1 1.05 0.163231
0.714971 0.1 -1.05 0.166941
1.04168 0.1 -0.729162 0.247208
1.04168 0.1 0.729162 0.242506
1.24275 0.1 0.282882 0.376672
1.24275 0.1 -0.282882 0.381485
0 0.1 1.275 0.149621
0 0.1 -1.275 0.152698
1.1744 0.1 -0.497101 0.323244
1.1744 0.1 0.497101 0.317663
1.15704 0.1 -0.537184 0.310507
1.15704 0.1 0.537184 0.304988
1.2756 0.1 -0.0306099 0.412472
1.2756 0.1 0.0306099 0.411849
0.67013 0.1 -1.0875 0.160364
0.67013 0.1 1.0875 0.156729
1.2756 0.1 0.0918298 0.408823
1.2756 0.1 -0.0918298 0.410681
1.25511 0.1 -0.248978 0.389201
1.25511 0.1 0.248978 0.38493
1.20938 0.1 0.419453 0.342292
1.20938 0.1 -0.419453 0.348016
1.11929 0.1 -0.621321 0.284135
1.11929 0.1 0.621321 0.278975
1.14316 0.1 -0.576658 0.298885
1.14316 0.1 0.576658 0.293782
1.19808 0.1 -0.455672 0.337737
1.19808 0.1 0.455672 0.331972
1.02149 0.1 0.776219 0.229522
1.02149 0.1 -0.776219 0.234089
0.150379 0.1 1.275 0.139984
0.150379 0.1 -1.275 0.143096
1.2756 0.1 -0.15305 0.406503
1.2756 0.1 0.15305 0.403457
1.2267 0.1 -0.381989 0.35948
1.2267 0.1 0.381989 0.353815
1.10076 0.1 -0.664638 0.271643
1.10076 0.1 0.664638 0.266542
0.350249 0.1 -1.2375 0.138234
0.350249 0.1 1.2375 0.135013
0.623803 0.1 1.125 0.150738
0.623803 0.1 -1.125 0.154305
0.9386 0.1 0.88201 0.203103
0.990306 0.1 0.825 0.218126
0.990306 0.1 -0.825 0.222158
1.24275 0.1 0.345744 0.365055
1.24275 0.1 -0.345744 0.370646
1.2906 0.1 0 0.416352
1.07933 0.1 0.709942 0.253085
1.2906 0.1 -0.0604698 0.415793
1.2906 0.1 0.0604698 0.414499
1.08012 0.1 -0.709942 0.2579
0 0.1 1.29299 0.148143
0 0.1 -1.29299 0.151233
1.25511 0.1 -0.311223 0.379374
1.25511 0.1 0.311223 0.374272
1.2756 0.1 -0.21427 0.399983
1.2756 0.1 0.21427 0.395834
0.0363518 0.1 1.29299 0.148143
0.0363518 0.1 -1.29299 0.151233
1.2906 0.1 -0.12094 0.412832
1.2906 0.1 0.12094 0.410273
0.574156 0.1 1.1625 0.145079
0.574156 0.1 -1.1625 0.148578
0.96969 0.1 -0.8625 0.214191
0.96969 0.1 0.8625 0.209804
1.0579 0.1 0.757102 0.239622
1.0579 0.1 -0.757102 0.2442
1.1744 0.1 -0.563382 0.307918
1.1744 0.1 0.563382 0.302096
1.20938 0.1 0.483984 0.327666
1.20938 0.1 -0.483984 0.333748
1.2906 0.1 -0.181409 0.407502
1.2906 0.1 0.181409 0.403744
0.93886 0.1 -0.903998 0.205576
0.905821 0.1 0.9375 0.190539
0.905821 0.1 -0.9375 0.194753
1.2756 0.1 -0.275489 0.391229
1.2756 0.1 0.275489 0.386095
1.2267 0.1 -0.445654 0.345984
1.2267 0.1 0.445654 0.33984
1.15704 0.1 -0.604332 0.294831
1.15704 0.1 0.604332 0.289153
1.19808 0.1 -0.520768 0.322902
1.19808 0.1 0.520768 0.316819
1.30646 0.1 0.0298385 0.420535
1.30646 0.1 -0.0298385 0.421199
0.287374 0.1 1.275 0.131252
0.287374 0.1 -1.275 0.134447
0.871687 0.1 -0.975 0.186435
0.871687 0.1 0.975 0.182331
1.24275 0.1 -0.408607 0.357949
1.24275 0.1 0.408607 0.351749
0.522864 0.1 -1.2 0.143395
0.522864 0.1 1.2 0.139952
1.25511 0.1 0.373467 0.361795