# UMean  POINT_DATA 63140
# x  y  z  UMean_x  UMean_y  UMean_z
0 0.1 0 0.997564 0 0.0697565
0 0.1 -0.0179898 0.997564 0 0.0697565
0 0.1 0.0179898 0.997564 0 0.0697565
0.0363518 0.1 -0.0179898 1.0005 0.00745959 0.0695951
0.0363518 0.1 0.0179898 1.00051 0.00746306 0.0699997
0 0.1 -0.0570102 0.997564 0 0.0697565
0 0.1 0.0570102 0.997564 0 0.0697565
0.0363518 0.1 0.0570102 1.00051 0.00746306 0.0699997
0.0363518 0.1 -0.0570102 1.0005 0.00745959 0.0695951
0 0.1 -0.075 0.997564 0 0.0697565
0 0.1 0.075 0.997564 0 0.0697565
0.0757758 0.1 -0.0375 1.00372 0.015677 0.0694194
0.0757758 0.1 0.0375 1.00375 0.0156841 0.0702626
0 0.1 -0.0929898 0.997564 0 0.0697565
0 0.1 0.0929898 0.997564 0 0.0697565
0.0363518 0.1 -0.0929898 1.00043 0.00742938 0.0691775
0.0363518 0.1 0.0929898 1.00047 0.0074376 0.0704145
0 0.1 -0.13201 0.997564 0 0.0697565
0 0.1 0.13201 0.997564 0 0.0697565
0.0757758 0.1 -0.1125 1.00359 0.0156157 0.0685484
0.0757758 0.1 0.1125 1.00366 0.0156322 0.0711276
0.0363518 0.1 -0.13201 1.00043 0.00742938 0.0691775
0.0363518 0.1 0.13201 1.00047 0.0074376 0.0704145
0 0.1 -0.15 0.997564 0 0.0697565
0 0.1 0.15 0.997564 0 0.0697565
0.150379 0.1 -4.33681e-19 1.00585 0.0151833 0.0698356
0 0.1 -0.16799 0.997564 0 0.0697565
0 0.1 0.16799 0.997564 0 0.0697565
0.150379 0.1 -0.075 1.00591 0.0151542 0.068359
0.150379 0.1 0.075 1.0059 0.0151679 0.0713079
0.0363518 0.1 -0.16799 1.00037 0.0073927 0.0687755
0.0363518 0.1 0.16799 1.00041 0.00740109 0.0708123
0.0757758 0.1 -0.1875 1.00346 0.0155416 0.0677096
0.0757758 0.1 0.1875 1.00353 0.0155585 0.0719573
0 0.1 -0.20701 0.997564 0 0.0697565
0 0.1 0.20701 0.997564 0 0.0697565
0.0363518 0.1 -0.20701 1.00037 0.0073927 0.0687755
0.0363518 0.1 0.20701 1.00041 0.00740109 0.0708123
0.150379 0.1 -0.15 1.00607 0.0151006 0.0668761
0.150379 0.1 0.15 1.00605 0.0151197 0.0727787
0.219992 0.1 -0.0375 1.0079 0.0147079 0.068795
0.219992 0.1 0.0375 1.00786 0.0147179 0.070866
0 0.1 -0.225 0.997564 0 0.0697565
0 0.1 0.225 0.997564 0 0.0697565
0 0.1 -0.24299 0.997564 0 0.0697565
0 0.1 0.24299 0.997564 0 0.0697565
0.0363518 0.1 0.24299 1.00035 0.00736707 0.0711938
0.0363518 0.1 -0.24299 1.00032 0.00736053 0.0683925
0.219992 0.1 -0.1125 1.00823 0.0146694 0.0667298
0.219992 0.1 0.1125 1.00812 0.0146905 0.0729197
0.150379 0.1 0.225 1.00628 0.0150615 0.0742282
0.150379 0.1 -0.225 1.0063 0.0150432 0.0654216
0.0757758 0.1 0.2625 1.00342 0.0154895 0.0727529
0.0757758 0.1 -0.2625 1.00336 0.0154761 0.0669111
0 0.1 -0.28201 0.997564 0 0.0697565
0 0.1 0.28201 0.997564 0 0.0697565
0.0363518 0.1 -0.28201 1.00032 0.00736053 0.0683925
0.0363518 0.1 0.28201 1.00035 0.00736707 0.0711938
0.287374 0.1 0 1.00482 0.0142439 0.0697707
0.219992 0.1 -0.1875 1.00879 0.0146278 0.0646299
0.219992 0.1 0.1875 1.00866 0.0146494 0.0749983
0.287374 0.1 -0.075 1.00499 0.0142298 0.0670819
0.287374 0.1 0.075 1.00492 0.0142419 0.0724525
0 0.1 -0.3 0.997564 0 0.0697565
0 0.1 0.3 0.997564 0 0.0697565
0 0.1 -0.31799 0.997564 0 0.0697565
0 0.1 0.31799 0.997564 0 0.0697565
0.0363518 0.1 -0.31799 1.00029 0.00732782 0.0680413
0.0363518 0.1 0.31799 1.00032 0.00733361 0.0715429
0.287374 0.1 -0.15 1.00541 0.014201 0.0643829
0.287374 0.1 0.15 1.0053 0.0142205 0.0751333
0.150379 0.1 -0.3 1.00652 0.0149829 0.064046
0.150379 0.1 0.3 1.00651 0.0149986 0.0756106
0.219992 0.1 -0.2625 1.00933 0.0145784 0.0626065
0.219992 0.1 0.2625 1.00925 0.0145993 0.0770347
0.0757758 0.1 -0.3375 1.00331 0.0154089 0.0661797
0.0757758 0.1 0.3375 1.00335 0.0154208 0.0734802
0.350249 0.1 -0.0375 1.00191 0.0137943 0.0680727
0.350249 0.1 0.0375 1.00188 0.0137983 0.0713544
0 0.1 0.35701 0.997564 0 0.0697565
0 0.1 -0.35701 0.997564 0 0.0697565
0.0363518 0.1 -0.35701 1.00029 0.00732782 0.0680413
0.0363518 0.1 0.35701 1.00032 0.00733361 0.0715429
0.287374 0.1 -0.225 1.006 0.0141519 0.061715
0.287374 0.1 0.225 1.00588 0.0141752 0.0777937
0.350249 0.1 0.1125 1.0021 0.0138031 0.0746217
0.350249 0.1 -0.1125 1.00219 0.0137896 0.0647885
0 0.1 -0.375 0.997564 0 0.0697565
0 0.1 0.375 0.997564 0 0.0697565
0 0.1 -0.39299 0.997564 0 0.0697565
0 0.1 0.39299 0.997564 0 0.0697565
0.0363518 0.1 -0.39299 1.00028 0.00729637 0.067722
0.0363518 0.1 0.39299 1.0003 0.00730163 0.0718565
0.350249 0.1 -0.1875 1.00273 0.0137587 0.0614949
0.350249 0.1 0.1875 1.00259 0.0137801 0.0778925
0.219992 0.1 -0.3375 1.00978 0.0145188 0.0607127
0.219992 0.1 0.3375 1.00974 0.014535 0.0789489
0.150379 0.1 -0.375 1.00673 0.0149188 0.0627717
0.150379 0.1 0.375 1.00673 0.0149307 0.0768936
0.411108 0.1 -2.21177e-17 0.996608 0.0140711 0.0695968
0.287374 0.1 -0.3 1.00661 0.0140777 0.0591684
0.287374 0.1 0.3 1.00652 0.0141034 0.0803544
0.411108 0.1 0.075 0.996717 0.0140744 0.0735618
0.411108 0.1 -0.075 0.996787 0.014064 0.0656251
0.0757758 0.1 -0.4125 1.00327 0.0153449 0.065514
0.0757758 0.1 0.4125 1.00331 0.0153555 0.0741336
0 0.1 -0.43201 0.997564 0 0.0697565
0 0.1 0.43201 0.997564 0 0.0697565
0.0363518 0.1 -0.43201 1.00028 0.00729637 0.067722
0.0363518 0.1 0.43201 1.0003 0.00730163 0.0718565
0.411108 0.1 -0.15 0.997263 0.0140406 0.0616708
0.411108 0.1 0.15 0.99713 0.0140616 0.0775024
0.350249 0.1 -0.2625 1.00342 0.0136847 0.0582925
0.350249 0.1 0.2625 1.00329 0.0137136 0.0810962
0 0.1 -0.45 0.997564 0 0.0697565
0 0.1 0.45 0.997564 0 0.0697565
0.219992 0.1 -0.4125 1.01024 0.0144532 0.0589588
0.219992 0.1 0.4125 1.01022 0.0144621 0.0807325
0 0.1 -0.46799 0.997564 0 0.0697565
0 0.1 0.46799 0.997564 0 0.0697565
0.411108 0.1 -0.225 0.998005 0.0139811 0.0577927
0.411108 0.1 0.225 0.997837 0.0140114 0.0813771
0.467897 0.1 0.0375 0.991519 0.0143358 0.0718062
0.467897 0.1 -0.0375 0.991557 0.0143304 0.0671634
0.0363518 0.1 -0.46799 1.00029 0.00726751 0.0674211
0.0363518 0.1 0.46799 1.0003 0.00727305 0.0721473
0.287374 0.1 -0.375 1.00723 0.0139813 0.0567974
0.287374 0.1 0.375 1.00717 0.0140071 0.0827514
0.150379 0.1 -0.45 1.00694 0.0148524 0.0616109
0.150379 0.1 0.45 1.00695 0.0148621 0.0780579
0.467897 0.1 -0.1125 0.991929 0.0143161 0.0625415
0.467897 0.1 0.1125 0.99181 0.0143346 0.0764181
0.350249 0.1 0.3375 1.00408 0.0136085 0.0841342
0.350249 0.1 -0.3375 1.00418 0.0135727 0.0552766
0.0757758 0.1 -0.4875 1.0033 0.0152861 0.064887
0.0757758 0.1 0.4875 1.00331 0.0152974 0.0747398
0.467897 0.1 -0.1875 0.992643 0.0142732 0.0579783
0.467897 0.1 0.1875 0.992458 0.0143034 0.0809755
0 0.1 -0.50701 0.997564 0 0.0697565
0 0.1 0.50701 0.997564 0 0.0697565
0.0363518 0.1 -0.50701 1.00029 0.00726751 0.0674211
0.0363518 0.1 0.50701 1.0003 0.00727305 0.0721473
0.411108 0.1 -0.3 0.998927 0.0138764 0.0540889
0.411108 0.1 0.3 0.998762 0.0139164 0.0851025
0.522864 0.1 -2.08167e-17 0.984799 0.015008 0.0693209
0 0.1 -0.525 0.997564 0 0.0697565
0 0.1 0.525 0.997564 0 0.0697565
0.522864 0.1 -0.075 0.985048 0.0149905 0.0639623
0.522864 0.1 0.075 0.984951 0.0150064 0.0746779
0.287374 0.1 -0.45 1.00784 0.0138657 0.0546428
0.287374 0.1 0.45 1.00782 0.0138899 0.0849341
0.219992 0.1 -0.4875 1.01062 0.0143768 0.0574087
0.219992 0.1 0.4875 1.01063 0.0143846 0.0822977
0.467897 0.1 0.2625 0.993435 0.0142239 0.0853903
0.467897 0.1 -0.2625 0.993649 0.0141834 0.0535764
0.350249 0.1 -0.4125 1.00498 0.0134272 0.0525038
0.350249 0.1 0.4125 1.00491 0.0134682 0.0869386
0 0.1 -0.54299 0.997564 0 0.0697565
0 0.1 0.54299 0.997564 0 0.0697565
0.522864 0.1 0.15 0.985512 0.014977 0.0799746
0.522864 0.1 -0.15 0.985701 0.0149448 0.0586662
0.0363518 0.1 -0.54299 1.00031 0.00723791 0.0671445
0.0363518 0.1 0.54299 1.00032 0.00724422 0.0724175
0.150379 0.1 -0.525 1.00714 0.0147804 0.0605725
0.150379 0.1 0.525 1.00715 0.0147904 0.0790885
0.411108 0.1 -0.375 0.99996 0.0137281 0.05064
0.411108 0.1 0.375 0.999819 0.0137775 0.0885922
0.0757758 0.1 -0.5625 1.00334 0.0152255 0.0643105
0.0757758 0.1 0.5625 1.00335 0.0152385 0.0753026
0.522864 0.1 -0.225 0.986737 0.0148544 0.0535192
0.522864 0.1 0.225 0.986482 0.0149017 0.0851417
0.574156 0.1 -0.0375 0.97835 0.0156489 0.0661232
0.574156 0.1 0.0375 0.978294 0.0156584 0.0722031
0.467897 0.1 -0.3375 0.99486 0.0140413 0.0494301
0.467897 0.1 0.3375 0.994651 0.0140954 0.0895858
0 0.1 -0.58201 0.997564 0 0.0697565
0 0.1 0.58201 0.997564 0 0.0697565
0.0363518 0.1 -0.58201 1.00031 0.00723791 0.0671445
0.0363518 0.1 0.58201 1.00032 0.00724422 0.0724175
0.574156 0.1 -0.1125 0.978875 0.0156089 0.060089
0.574156 0.1 0.1125 0.978702 0.0156389 0.0782406
0.287374 0.1 -0.525 1.00842 0.0137344 0.0527282
0.287374 0.1 0.525 1.00842 0.0137564 0.0868652
0 0.1 -0.6 0.997564 0 0.0697565
0 0.1 0.6 0.997564 0 0.0697565
0.350249 0.1 -0.4875 1.00577 0.0132564 0.0500056
0.350249 0.1 0.4875 1.00574 0.0132937 0.089472
0.522864 0.1 0.3 0.987805 0.0147714 0.0900853
0.522864 0.1 -0.3 0.988089 0.014708 0.0486231
0.219992 0.1 -0.5625 1.01096 0.0142856 0.0560484
0.219992 0.1 0.5625 1.01098 0.0142938 0.0836456
0.574156 0.1 -0.1875 0.979869 0.0155249 0.0541781
0.574156 0.1 0.1875 0.979594 0.0155742 0.0841661
0.411108 0.1 -0.45 1.00105 0.0135421 0.0474989
0.411108 0.1 0.45 1.00095 0.0135959 0.0917832
0 0.1 -0.61799 0.997564 0 0.0697565
0 0.1 0.61799 0.997564 0 0.0697565
0.150379 0.1 -0.6 1.00734 0.0147032 0.0596517
0.150379 0.1 0.6 1.00736 0.0147121 0.0799944
0.0363518 0.1 -0.61799 1.00033 0.0072102 0.0668992
0.0363518 0.1 0.61799 1.00034 0.00721526 0.0726584
0.467897 0.1 0.4125 0.996026 0.0139153 0.0934599
0.467897 0.1 -0.4125 0.996204 0.0138493 0.0456153
0.623803 0.1 1.04083e-17 0.970495 0.0166582 0.0689593
0.623803 0.1 -0.075 0.970844 0.016623 0.0621377
0.623803 0.1 0.075 0.970702 0.0166492 0.0757861
0.574156 0.1 -0.2625 0.981285 0.0153818 0.0485168
0.574156 0.1 0.2625 0.980943 0.01545 0.0898843
0.623803 0.1 -0.15 0.971749 0.0165371 0.0554239
0.623803 0.1 0.15 0.97147 0.0165897 0.0825193
0.0757758 0.1 0.6375 1.0034 0.0151793 0.0758049
0.0757758 0.1 -0.6375 1.00339 0.0151688 0.0637993
0.522864 0.1 -0.375 0.989677 0.0145038 0.0440707
0.522864 0.1 0.375 0.989397 0.0145842 0.0947095
0 0.1 0.65701 0.997564 0 0.0697565
0 0.1 -0.65701 0.997564 0 0.0697565
0.0363518 0.1 0.65701 1.00034 0.00721526 0.0726584
0.0363518 0.1 -0.65701 1.00033 0.0072102 0.0668992
0.350249 0.1 -0.5625 1.00656 0.0130737 0.0477959
0.350249 0.1 0.5625 1.00655 0.0131071 0.0917087
0.623803 0.1 -0.225 0.973182 0.0163884 0.0489342
0.623803 0.1 0.225 0.972794 0.0164669 0.0890597
0.287374 0.1 -0.6 1.00901 0.0135923 0.0510479
0.287374 0.1 0.6 1.00901 0.0136118 0.0885495
0.574156 0.1 -0.3375 0.983043 0.0151737 0.0431899
0.574156 0.1 0.3375 0.982675 0.0152632 0.0952813
0.411108 0.1 -0.525 1.00218 0.0133301 0.0446967
0.411108 0.1 0.525 1.00211 0.0133825 0.0946377
0.67013 0.1 -0.0375 0.962991 0.0176145 0.0649656
0.67013 0.1 0.0375 0.962908 0.0176303 0.0725597
0.219992 0.1 0.6375 1.01135 0.0141911 0.0848222
0.219992 0.1 -0.6375 1.01134 0.0141872 0.0548475
0 0.1 -0.675 0.997564 0 0.0697565
0 0.1 0.675 0.997564 0 0.0697565
0.467897 0.1 -0.4875 0.997626 0.0136163 0.0421782
0.467897 0.1 0.4875 0.997486 0.0136855 0.0969694
0.67013 0.1 -0.1125 0.963719 0.0175397 0.0574419
0.67013 0.1 0.1125 0.963465 0.0175886 0.0801005
0.522864 0.1 -0.45 0.991427 0.014248 0.0399345
0.522864 0.1 0.45 0.991172 0.0143401 0.0989368
0.150379 0.1 0.675 1.00758 0.0146303 0.0807833
0.150379 0.1 -0.675 1.00757 0.0146261 0.0588485
0.623803 0.1 0.3 0.974618 0.0162735 0.0952896
0.623803 0.1 -0.3 0.975074 0.0161683 0.0427889
0 0.1 -0.69299 0.997564 0 0.0697565
0 0.1 0.69299 0.997564 0 0.0697565
0.0363518 0.1 0.69299 1.00036 0.00718914 0.0728651
0.0363518 0.1 -0.69299 1.00035 0.00718599 0.0666889
0.67013 0.1 0.1875 0.964674 0.0174778 0.087476
0.67013 0.1 -0.1875 0.965084 0.0173967 0.0501083
0.574156 0.1 -0.4125 0.985058 0.0149018 0.0383123
0.574156 0.1 0.4125 0.984698 0.0150126 0.100266
0.714971 0.1 -1.82146e-17 0.954292 0.0189326 0.0685256
0.0757758 0.1 0.7125 1.00344 0.0151259 0.0762356
0.0757758 0.1 -0.7125 1.00343 0.0151194 0.0633609
0.714971 0.1 -0.075 0.954768 0.0188739 0.0601613
0.714971 0.1 0.075 0.954565 0.0189151 0.0769022
0.67013 0.1 -0.2625 0.967023 0.0171745 0.0431055
0.67013 0.1 0.2625 0.966503 0.0172887 0.094567
0.411108 0.1 -0.6 1.00334 0.0131017 0.0422503
0.411108 0.1 0.6 1.00328 0.0131525 0.0971335
0.350249 0.1 -0.6375 1.00737 0.0128818 0.0458802
0.350249 0.1 0.6375 1.00737 0.0129129 0.0936483
0.623803 0.1 -0.375 0.97734 0.0158767 0.037098
0.623803 0.1 0.375 0.976853 0.0160083 0.101097
0.714971 0.1 0.15 0.955586 0.0188174 0.0851534
0.714971 0.1 -0.15 0.955987 0.0187341 0.0519519
0.467897 0.1 -0.5625 0.999104 0.0133577 0.0391511
0.467897 0.1 0.5625 0.998989 0.0134259 0.100069
0 0.1 -0.73201 0.997564 0 0.0697565
0 0.1 0.73201 0.997564 0 0.0697565
0.0363518 0.1 -0.73201 1.00035 0.00718599 0.0666889
0.0363518 0.1 0.73201 1.00036 0.00718914 0.0728651
0.287374 0.1 0.675 1.00963 0.0134587 0.0900004
0.287374 0.1 -0.675 1.00962 0.0134429 0.0495984
0.522864 0.1 -0.525 0.993289 0.0139535 0.0362592
0.522864 0.1 0.525 0.99306 0.0140495 0.102712
0.219992 0.1 0.7125 1.01176 0.0140819 0.0858391
0.219992 0.1 -0.7125 1.01174 0.0140855 0.0538149
0.714971 0.1 0.225 0.957341 0.018631 0.0931441
0.714971 0.1 -0.225 0.957909 0.0185056 0.0440453
0 0.1 0.75 0.997564 0 0.0697565
0 0.1 -0.75 0.997564 0 0.0697565
0.67013 0.1 -0.3375 0.969458 0.0168712 0.0365619
0.67013 0.1 0.3375 0.968868 0.017018 0.101232
0.574156 0.1 0.4875 0.986915 0.0146995 0.104765
0.574156 0.1 -0.4875 0.987251 0.014579 0.0339366
0.756814 0.1 -0.0375 0.945981 0.0201818 0.0637004
0.756814 0.1 0.0375 0.945863 0.0202062 0.0728921
0.150379 0.1 0.746002 1.00772 0.0145634 0.0813294
0.150379 0.1 -0.75 1.00779 0.0145513 0.0581697
0.756814 0.1 -0.1125 0.94695 0.0200632 0.0546057
0.756814 0.1 0.1125 0.946594 0.020138 0.0820187
0 0.1 0.76799 0.997564 0 0.0697565
0 0.1 -0.76799 0.997564 0 0.0697565
0.0363518 0.1 0.76799 1.00037 0.00716673 0.0730351
0.0363518 0.1 -0.76799 1.00036 0.00716543 0.0665148
0.623803 0.1 -0.45 0.979886 0.0155215 0.0319509
0.623803 0.1 0.45 0.979398 0.0156738 0.106392
0.714971 0.1 0.3 0.959766 0.0183515 0.100732
0.714971 0.1 -0.3 0.960455 0.0181841 0.036594
0.756814 0.1 -0.1875 0.948753 0.0198422 0.0457714
0.756814 0.1 0.1875 0.948172 0.0199693 0.0909284
0.67013 0.1 -0.4125 0.972286 0.0164916 0.0305887
0.67013 0.1 0.4125 0.971664 0.0166686 0.107372
0.411108 0.1 -0.675 1.00453 0.0128609 0.0401663
0.411108 0.1 0.675 1.00448 0.0129106 0.099264
0.467897 0.1 -0.6375 1.00063 0.0130806 0.0365494
0.467897 0.1 0.6375 1.00053 0.0131495 0.102743
0.0757758 0.1 -0.7875 1.00345 0.0150775 0.0629981
0.0757758 0.1 0.7875 1.00347 0.0150802 0.07659
0.350249 0.1 0.7125 1.00821 0.0127106 0.095288
0.350249 0.1 -0.7125 1.00821 0.0126803 0.0442602
0.522864 0.1 -0.6 0.995232 0.0136325 0.0330734
0.522864 0.1 0.6 0.995019 0.01373 0.106
0.797314 0.1 -2.86229e-17 0.936659 0.0218748 0.0680327
0.287374 0.1 0.746002 1.01026 0.0133205 0.0910744
0.797314 0.1 -0.075 0.937285 0.0217857 0.0580474
0.797314 0.1 0.075 0.937004 0.0218481 0.0780383
0.756814 0.1 0.2625 0.950561 0.0196949 0.0994651
0.756814 0.1 -0.2625 0.951316 0.0195175 0.037364
0.287374 0.1 -0.75 1.01025 0.013289 0.0483841
0.574156 0.1 -0.5625 0.989572 0.0142196 0.0301092
0.574156 0.1 0.5625 0.989256 0.0143434 0.108723
0 0.1 0.80701 0.997564 0 0.0697565
0 0.1 -0.80701 0.997564 0 0.0697565
0.714971 0.1 -0.375 0.963523 0.017773 0.0297237
0.714971 0.1 0.375 0.962758 0.0179801 0.107778
0.0363518 0.1 -0.80701 1.00036 0.00716543 0.0665148
0.0363518 0.1 0.80701 1.00037 0.00716673 0.0730351
0.797314 0.1 -0.15 0.93887 0.0215761 0.0482658
0.797314 0.1 0.15 0.938314 0.0217032 0.0878858
0.623803 0.1 -0.525 0.982635 0.0151168 0.0274062
0.623803 0.1 0.525 0.982158 0.0152807 0.111099
0.219992 0.1 0.7875 1.01217 0.013973 0.0866831
0.219992 0.1 -0.7875 1.01215 0.0139821 0.0529588
0.149792 0.1 0.80701 1.00797 0.0144933 0.0818668
0 0.1 0.825 0.997564 0 0.0697565
0 0.1 -0.825 0.997564 0 0.0697565
0.797314 0.1 -0.225 0.941362 0.0212437 0.0388741
0.797314 0.1 0.225 0.940565 0.0214351 0.0974005
0.756814 0.1 -0.3375 0.954538 0.019086 0.0295574
0.756814 0.1 0.3375 0.953657 0.0193146 0.107477
0.67013 0.1 -0.4875 0.975403 0.0160493 0.0252643
0.67013 0.1 0.4875 0.97478 0.0162477 0.112886
0.835107 0.1 -0.0375 0.927754 0.0234798 0.0623442
0.835107 0.1 0.0375 0.927593 0.023517 0.0732097
0.150379 0.1 -0.825 1.00801 0.0144792 0.0576185
0.835107 0.1 -0.1125 0.929005 0.0233047 0.0516051
0.835107 0.1 0.1125 0.928518 0.0234172 0.0839973
0 0.1 0.84299 0.997564 0 0.0697565
0 0.1 -0.84299 0.997564 0 0.0697565
0.0363518 0.1 0.84299 1.00038 0.00714767 0.0731688
0.0363518 0.1 -0.84299 1.00037 0.00714801 0.0663771
0.714971 0.1 -0.45 0.967002 0.0172851 0.0235389
0.714971 0.1 0.45 0.966201 0.0175242 0.114172
0.411108 0.1 0.746002 1.00569 0.0126702 0.100861
0.797314 0.1 -0.3 0.944665 0.0207891 0.0300525
0.797314 0.1 0.3 0.943682 0.0210438 0.106412
0.467897 0.1 -0.7125 1.00219 0.0127915 0.034377
0.467897 0.1 0.7125 1.00209 0.0128587 0.104984
0.522864 0.1 0.675 0.997025 0.0133919 0.108785
0.522864 0.1 -0.675 0.997229 0.0132934 0.0303895
0.411108 0.1 -0.75 1.00574 0.0126126 0.0384448
0.835107 0.1 -0.1875 0.931311 0.0229835 0.0411959
0.835107 0.1 0.1875 0.930517 0.023176 0.0945137
0.286844 0.1 0.80701 1.01075 0.0131804 0.0919815
0.574156 0.1 0.6375 0.991675 0.0139616 0.112112
0.574156 0.1 -0.6375 0.991982 0.0138348 0.0268511
0.350249 0.1 -0.7875 1.00905 0.012476 0.0429352
0.350249 0.1 0.7875 1.00905 0.0125016 0.0966308
0.756814 0.1 0.4125 0.957343 0.0188335 0.114804
0.756814 0.1 -0.4125 0.958299 0.0185608 0.0224399
0.623803 0.1 -0.6 0.985525 0.0146769 0.0235013
0.623803 0.1 0.6 0.985057 0.0148468 0.115172
0.0757758 0.1 0.8625 1.00349 0.0150414 0.0768686
0.0757758 0.1 -0.8625 1.00347 0.0150421 0.0627114
0.871687 0.1 -1.73472e-17 0.918076 0.0254719 0.0674909
0.287374 0.1 -0.825 1.01087 0.0131333 0.0474065
0.871687 0.1 -0.075 0.918867 0.0253421 0.0558187
0.871687 0.1 0.075 0.918496 0.0254356 0.0791924
0.67013 0.1 -0.5625 0.97873 0.0155601 0.0206447
0.67013 0.1 0.5625 0.978111 0.0157701 0.117709
0.835107 0.1 0.2625 0.933539 0.0227905 0.104563
0.835107 0.1 -0.2625 0.934592 0.0225245 0.0313261
0.797314 0.1 -0.375 0.948656 0.02022 0.0219592
0.797314 0.1 0.375 0.947542 0.0205333 0.114747
0 0.1 0.88201 0.997564 0 0.0697565
0 0.1 -0.88201 0.997564 0 0.0697565
0.0363518 0.1 0.88201 1.00038 0.00714767 0.0731688
0.0363518 0.1 -0.88201 1.00037 0.00714801 0.0663771
0.871687 0.1 0.15 0.920118 0.0252327 0.0907014
0.871687 0.1 -0.15 0.920851 0.0250437 0.0444015
0.714971 0.1 -0.525 0.970783 0.0167365 0.0181212
0.714971 0.1 0.525 0.969968 0.0169972 0.119829
0.219992 0.1 0.8625 1.01258 0.0138645 0.0873531
0.219992 0.1 -0.8625 1.01255 0.0138772 0.0522799
0 0.1 0.9 0.997564 0 0.0697565
0 0.1 -0.9 0.997564 0 0.0697565
0.756814 0.1 -0.4875 0.962475 0.0179615 0.0161511
0.756814 0.1 0.4875 0.961482 0.0182664 0.121362
0.871687 0.1 -0.225 0.923965 0.0245792 0.0334663
0.871687 0.1 0.225 0.922904 0.024862 0.101803
0.835107 0.1 -0.3375 0.938713 0.0219264 0.0221665
0.835107 0.1 0.3375 0.937477 0.0222698 0.113969
0.410629 0.1 0.80701 1.00662 0.0124657 0.102128
0.905821 0.1 -0.0375 0.908841 0.0273563 0.0609132
0.905821 0.1 0.0375 0.908633 0.027412 0.0735116
0.522864 0.1 0.746002 0.999025 0.0130513 0.110876
0.150379 0.1 0.9 1.00824 0.0144007 0.0824092
0.905821 0.1 0.1125 0.909756 0.027274 0.0860189
0.905821 0.1 -0.1125 0.910382 0.0271067 0.0484743
0.522864 0.1 -0.75 0.999249 0.012944 0.0282067
0.574156 0.1 -0.7125 0.99444 0.0134338 0.0241706
0.574156 0.1 0.7125 0.99414 0.0135627 0.114924
0.797314 0.1 -0.45 0.953201 0.0195566 0.0147216
0.797314 0.1 0.45 0.952 0.0199158 0.122273
0.467897 0.1 0.7875 1.00367 0.012559 0.106794
0.467897 0.1 -0.7875 1.00376 0.0124971 0.0326288
0.150379 0.1 -0.903998 1.0083 0.0144036 0.0571104
0 0.1 0.91799 0.997564 0 0.0697565
0 0.1 -0.91799 0.997564 0 0.0697565
0.0363518 0.1 0.91799 1.00039 0.00713088 0.0732668
0.0363518 0.1 -0.91799 1.00038 0.00713283 0.0662746
0.623803 0.1 -0.675 0.988499 0.0142134 0.0202528
0.623803 0.1 0.675 0.988038 0.0143868 0.118592
0.411108 0.1 -0.825 1.00695 0.0123616 0.0370824
0.871687 0.1 -0.3 0.928096 0.0239538 0.0232205
0.871687 0.1 0.3 0.926769 0.0243289 0.112292
0.67013 0.1 0.6375 0.981578 0.0152547 0.121805
0.67013 0.1 -0.6375 0.982195 0.0150388 0.0167561
0.905821 0.1 -0.1875 0.913211 0.0266619 0.0364384
0.905821 0.1 0.1875 0.912188 0.0269436 0.0981971
0.350249 0.1 0.8625 1.00989 0.0122929 0.0976835
0.350249 0.1 -0.8625 1.00988 0.0122702 0.0419027
0.835107 0.1 -0.4125 0.943543 0.0212103 0.0139151
0.835107 0.1 0.4125 0.942171 0.0216149 0.122524
0.714971 0.1 -0.6 0.974771 0.0161441 0.0135127
0.714971 0.1 0.6 0.973948 0.0164166 0.124687
0.93886 0.1 -1.25767e-17 0.898878 0.0299939 0.0669115
0.0757758 0.1 0.9375 1.0035 0.0150072 0.0770727
0.0757758 0.1 -0.9375 1.00349 0.0150112 0.0624979
0.93886 0.1 -0.075 0.89985 0.0298103 0.0534594
0.93886 0.1 0.075 0.899378 0.0299467 0.0804031
0.756814 0.1 -0.5625 0.966941 0.0173035 0.0107428
0.756814 0.1 0.5625 0.965928 0.0176294 0.127059
0.905821 0.1 -0.2625 0.917234 0.0260331 0.0250554
0.905821 0.1 0.2625 0.915864 0.026421 0.109817
0.287374 0.1 0.9 1.01151 0.0129807 0.0929505
0.287374 0.1 -0.903998 1.0114 0.0129755 0.0466051
0.871687 0.1 -0.375 0.9331 0.0231824 0.0138742
0.871687 0.1 0.375 0.931571 0.0236413 0.121967
0.93886 0.1 -0.15 0.902269 0.0293966 0.040319
0.93886 0.1 0.15 0.901334 0.0296713 0.0936632
0.797314 0.1 -0.525 0.958154 0.0188187 0.00842956
0.797314 0.1 0.525 0.956901 0.0192115 0.128893
0 0.1 0.95701 0.997564 0 0.0697565
0 0.1 -0.95701 0.997564 0 0.0697565
0.0363518 0.1 0.95701 1.00039 0.00713088 0.0732668
0.0363518 0.1 -0.95701 1.00038 0.00713283 0.0662746
0.522432 0.1 0.80701 1.0006 0.0127693 0.112471
0.219992 0.1 0.9375 1.01297 0.0137559 0.0878499
0.219992 0.1 -0.9375 1.01293 0.0137734 0.0517734
0.93886 0.1 -0.225 0.906057 0.0287604 0.0277589
0.93886 0.1 0.225 0.904697 0.0291704 0.106436
0.905821 0.1 -0.3375 0.922309 0.025223 0.0145243
0.905821 0.1 0.3375 0.920669 0.025722 0.120654
0.835107 0.1 0.4875 0.947451 0.0208538 0.13015
0.835107 0.1 -0.4875 0.94892 0.0204037 0.00665439
0.96969 0.1 -0.0375 0.889387 0.0324918 0.059387
0.96969 0.1 0.0375 0.889124 0.0325721 0.0738484
0.61613 0.1 0.75 0.991048 0.01391 0.121354
0.574156 0.1 0.7875 0.99661 0.013151 0.117163
0.574156 0.1 -0.7875 0.996896 0.0130255 0.0220575
0 0.1 0.975 0.997564 0 0.0697565
0 0.1 -0.975 0.997564 0 0.0697565
0.623803 0.1 -0.75 0.991498 0.0137377 0.0176588
0.96969 0.1 -0.1125 0.891258 0.0321446 0.045122
0.96969 0.1 0.1125 0.890468 0.0323859 0.0882023
0.522864 0.1 -0.825 1.00125 0.0125904 0.0265167
0.67013 0.1 -0.7125 0.985721 0.0144974 0.0136093
0.67013 0.1 0.7125 0.985111 0.0147162 0.125162
0.871687 0.1 -0.45 0.938803 0.0222949 0.00557089
0.871687 0.1 0.45 0.937131 0.0228164 0.130657
0.467897 0.1 -0.8625 1.0053 0.0122015 0.0312998
0.467897 0.1 0.8625 1.00523 0.0122611 0.108187
0.714971 0.1 -0.675 0.978875 0.0155245 0.0097339
0.714971 0.1 0.675 0.978051 0.0158022 0.128722
0.93886 0.1 -0.3 0.911091 0.0279122 0.0160253
0.93886 0.1 0.3 0.909369 0.0284539 0.118472
0.150379 0.1 0.975 1.00844 0.0143301 0.0827025
0.150379 0.1 -0.975 1.00841 0.014341 0.0568906
0.96969 0.1 -0.1875 0.894681 0.0315348 0.0313439
0.96969 0.1 0.1875 0.893385 0.0319407 0.102159
0.411108 0.1 0.9 1.00809 0.0121503 0.103487
0.756814 0.1 -0.6375 0.971595 0.0166086 0.00624871
0.756814 0.1 0.6375 0.970567 0.0169429 0.131852
0.990306 0.1 0 0.883691 0.03399 0.0664352
0 0.1 0.99299 0.997564 0 0.0697565
0 0.1 -0.99299 0.997564 0 0.0697565
0.411108 0.1 -0.903998 1.00797 0.0121351 0.0360313
0.990306 0.1 -0.075 0.884809 0.0337604 0.0515918
0.990306 0.1 0.075 0.884255 0.033935 0.0813252
0.0363518 0.1 0.99299 1.00039 0.00711684 0.0733308
0.0363518 0.1 -0.99299 1.00038 0.00711913 0.0662064
0.905821 0.1 -0.4125 0.928269 0.024268 0.00511595
0.905821 0.1 0.4125 0.926412 0.0248518 0.13052
0.797314 0.1 -0.6 0.963383 0.0180283 0.00313471
0.797314 0.1 0.6 0.962099 0.0184402 0.134531
0.350249 0.1 0.9375 1.01071 0.0120848 0.0984527
0.350249 0.1 -0.9375 1.01069 0.0120688 0.0411484
0.990306 0.1 -0.15 0.887583 0.0332484 0.0371026
0.990306 0.1 0.15 0.886485 0.0336002 0.0959541
0.96969 0.1 -0.2625 0.899544 0.0306785 0.0183416
0.96969 0.1 0.2625 0.897797 0.0312393 0.115452
0.835107 0.1 -0.5625 0.954677 0.0195229 0.000470795
0.835107 0.1 0.5625 0.953155 0.0200085 0.136718
0.93886 0.1 -0.375 0.917194 0.026878 0.0053622
0.93886 0.1 0.375 0.915186 0.0275354 0.12955
0.0757758 0.1 1.0125 1.00351 0.0149786 0.0772058
0.0757758 0.1 -1.0125 1.00349 0.0149832 0.0623559
0.990306 0.1 -0.225 0.891924 0.0324653 0.023267
0.990306 0.1 0.225 0.890321 0.032992 0.110035
0.287374 0.1 -0.975 1.01207 0.0128223 0.0461369
0.287374 0.1 0.975 1.0121 0.0128229 0.0934762
0.871687 0.1 -0.525 0.945014 0.0213159 -0.00160051
0.871687 0.1 0.525 0.943255 0.0218848 0.138241
1.02149 0.1 -0.0369628 0.872538 0.0371365 0.0581531
1.02149 0.1 0.0369628 0.872233 0.0372382 0.0739052
0.96969 0.1 0.3375 0.90357 0.0303014 0.12781
0.96969 0.1 -0.3375 0.905693 0.0295874 0.00636106
1.02149 0.1 -0.110888 0.874639 0.036718 0.0426126
1.02149 0.1 0.110888 0.873724 0.0370241 0.0895465
0.905821 0.1 -0.4875 0.934881 0.0232029 -0.00314729
0.905821 0.1 0.4875 0.932904 0.0238449 0.139201
0.623803 0.1 0.819003 0.993147 0.0135576 0.123848
0 0.1 1.03201 0.997564 0 0.0697565
0 0.1 -1.03201 0.997564 0 0.0697565
0.0363518 0.1 1.03201 1.00039 0.00711684 0.0733308
0.0363518 0.1 -1.03201 1.00038 0.00711913 0.0662064
0.67013 0.1 -0.7875 0.989239 0.0139507 0.011188
0.67013 0.1 0.7875 0.988646 0.0141634 0.127787
0.623803 0.1 -0.825 0.994463 0.0132582 0.0157038
0.990306 0.1 0.3 0.895652 0.0321214 0.123289
0.990306 0.1 -0.3 0.897694 0.0314266 0.0103634
0.219992 0.1 1.0125 1.01333 0.0136486 0.0881776
0.219992 0.1 -1.0125 1.01329 0.0136655 0.0514364
0.574156 0.1 0.8625 0.999039 0.0127378 0.118847
0.574156 0.1 -0.8625 0.999304 0.0126143 0.0204995
0.714971 0.1 -0.75 0.983006 0.014893 0.00677966
0.714971 0.1 0.75 0.982192 0.015169 0.131932
1.02149 0.1 -0.184814 0.878474 0.03599 0.0276001
1.02149 0.1 0.184814 0.876971 0.036505 0.104761
0.756814 0.1 -0.7125 0.976327 0.0158943 0.00268026
0.756814 0.1 0.7125 0.9753 0.0162318 0.135725
0.522864 0.1 0.9 1.00304 0.0123271 0.11416
0.93886 0.1 -0.45 0.924148 0.0257005 -0.00409222
0.93886 0.1 0.45 0.92194 0.0264418 0.139453
1.04168 0.1 0 0.865384 0.0393345 0.0658401
1.04168 0.1 -0.0729162 0.866616 0.039057 0.049726
1.04168 0.1 0.0729162 0.865986 0.039277 0.0820055
0.522864 0.1 -0.903998 1.00296 0.0122772 0.0252761
0.797314 0.1 -0.675 0.968762 0.0172084 -0.00113956
0.797314 0.1 0.675 0.967463 0.0176271 0.139161
0.467897 0.1 0.9375 1.00673 0.0119633 0.109179
0.467897 0.1 -0.9375 1.00679 0.0119104 0.0303636
0 0.1 1.05 0.997564 0 0.0697565
0 0.1 -1.05 0.997564 0 0.0697565
0.835107 0.1 -0.6375 0.960675 0.0186022 -0.00460186
0.835107 0.1 0.6375 0.959118 0.019099 0.142192
1.04168 0.1 -0.145832 0.86965 0.0384484 0.0339872
1.04168 0.1 0.145832 0.868402 0.0388913 0.0978974
1.02149 0.1 -0.25874 0.883927 0.03497 0.0134186
1.02149 0.1 0.25874 0.881889 0.0356873 0.119268
0.96969 0.1 -0.4125 0.912894 0.0283144 -0.00433796
0.96969 0.1 0.4125 0.910494 0.0291411 0.139026
0.411108 0.1 0.975 1.00923 0.0118994 0.104207
0.411108 0.1 -0.975 1.00925 0.0118627 0.035381
0.871687 0.1 -0.6 0.951572 0.0202759 -0.00756565
0.871687 0.1 0.6 0.94975 0.0208726 0.144649
1.0579 0.1 -0.0360525 0.860068 0.0410142 0.0572505
1.0579 0.1 0.0360525 0.859727 0.0411343 0.0738126
0.990306 0.1 -0.375 0.90469 0.0301665 -0.00135036
0.990306 0.1 0.375 0.902299 0.0310058 0.135468
0.150379 0.1 1.05 1.00862 0.0142627 0.0828788
0.150379 0.1 -1.05 1.00859 0.0142744 0.0567058
1.0579 0.1 -0.108157 0.862261 0.0405459 0.0409072
1.0579 0.1 0.108157 0.861241 0.0409058 0.0902662
1.04168 0.1 -0.218749 0.8744 0.0375211 0.0189376
1.04168 0.1 0.218749 0.872569 0.0381874 0.113214
0.905821 0.1 -0.5625 0.941947 0.0220472 -0.0101009
0.905821 0.1 0.5625 0.939892 0.0227394 0.146633
0 0.1 1.06799 0.997564 0 0.0697565
0 0.1 -1.06799 0.997564 0 0.0697565
0.0363518 0.1 -1.06799 1.00038 0.00710794 0.0661712
0.0363518 0.1 1.06799 1.00039 0.00710504 0.0733621
0.350249 0.1 1.0125 1.01148 0.0118822 0.098952
0.350249 0.1 -1.0125 1.01146 0.0118627 0.0406622
1.0579 0.1 -0.180262 0.866245 0.0397378 0.0251078
1.0579 0.1 0.180262 0.86457 0.0403423 0.106285
1.02149 0.1 0.332665 0.88833 0.0345859 0.132775
1.02149 0.1 -0.332665 0.890826 0.0336781 0.000349605
0.93886 0.1 -0.525 0.931729 0.0244096 -0.0121896
0.93886 0.1 0.525 0.929386 0.0252166 0.148067
1.08012 0.1 4.48137e-18 0.851848 0.043814 0.0653109
1.04168 0.1 -0.291665 0.880727 0.0362943 0.00487614
1.04168 0.1 0.291665 0.878374 0.0371747 0.127664
1.08012 0.1 -0.0709942 0.853142 0.0435006 0.0483403
1.08012 0.1 0.0709942 0.852445 0.0437598 0.0823371
0.96969 0.1 -0.4875 0.920904 0.0269057 -0.0137551
0.96969 0.1 0.4875 0.918321 0.0278122 0.148844
1.0579 0.1 -0.252367 0.871913 0.0386059 0.0101594
1.0579 0.1 0.252367 0.869631 0.0394516 0.121584
0.990306 0.1 -0.45 0.912671 0.0287373 -0.0117114
0.990306 0.1 0.45 0.910021 0.0296814 0.146333
0.287374 0.1 1.05 1.01265 0.0126668 0.0937912
0.287374 0.1 -1.05 1.01262 0.0126667 0.0458247
0.714971 0.1 0.821002 0.985934 0.0145878 0.134307
1.08012 0.1 0.141988 0.854915 0.0433453 0.0990883
1.08012 0.1 -0.141988 0.856297 0.042825 0.031754
0.0757758 0.1 -1.0875 1.0035 0.0149605 0.0622827
0.0757758 0.1 1.0875 1.00352 0.0149546 0.077271
0.714971 0.1 -0.825 0.987077 0.0142615 0.00462391
0.756814 0.1 -0.7875 0.981034 0.0151769 1.11126e-05
0.756814 0.1 0.7875 0.980023 0.0155076 0.138692
0.67013 0.1 -0.8625 0.992677 0.0134044 0.00946902
0.67013 0.1 0.8625 0.992114 0.0136134 0.129708
0.797314 0.1 -0.75 0.974163 0.0163799 -0.00440407
0.797314 0.1 0.75 0.972873 0.0167948 0.14278
0.623803 0.1 0.9 0.996938 0.0129451 0.12498
0.835107 0.1 -0.7125 0.966766 0.01766 -0.00854906
0.835107 0.1 0.7125 0.965199 0.0181612 0.146551
0.623803 0.1 -0.903998 0.997001 0.0128378 0.0143377
0.574156 0.1 0.9375 1.00138 0.0123253 0.120003
0.574156 0.1 -0.9375 1.00162 0.0122122 0.0194577
1.02149 0.1 -0.406591 0.898921 0.0321661 -0.0113669
1.02149 0.1 0.406591 0.896079 0.033223 0.145045
1.08012 0.1 -0.212982 0.861232 0.0417983 0.0158706
1.08012 0.1 0.212982 0.859199 0.0425825 0.115257
1.10076 0.1 -0.034981 0.844174 0.0464708 0.0563348
1.10076 0.1 0.034981 0.84382 0.0466099 0.0738993