# UMean  POINT_DATA 63889
# x  y  z  UMean_x  UMean_y  UMean_z
0 0.5 3.39582e-17 0.997564 0 0.0697565
0 0.5 -0.00617965 0.997564 0 0.0697565
0 0.5 0.00617965 0.997564 0 0.0697565
0.0124871 0.5 -0.00617965 0.997528 0.000940868 0.0697105
0.0124871 0.5 0.00617965 0.997528 0.000940919 0.0698319
0 0.5 -0.0688203 0.997564 0 0.0697565
0 0.5 0.0688203 0.997564 0 0.0697565
0.0124871 0.5 -0.0688203 0.997528 0.000940868 0.0697105
0.0124871 0.5 0.0688203 0.997528 0.000940919 0.0698319
0 0.5 -0.075 0.997564 0 0.0697565
0 0.5 0.075 0.997564 0 0.0697565
0 0.5 -0.0811797 0.997564 0 0.0697565
0 0.5 0.0811797 0.997564 0 0.0697565
0.0124871 0.5 -0.0811797 0.997526 0.000937393 0.0695832
0.0124871 0.5 0.0811797 0.997527 0.000937511 0.069959
0.0757758 0.5 -0.0375 0.997322 0.00570387 0.0694795
0.0757758 0.5 0.0375 0.997323 0.00570414 0.0702117
0.0757758 0.5 -0.1125 0.99731 0.00568262 0.0687108
0.0757758 0.5 0.1125 0.997312 0.00568329 0.0709794
0 0.5 -0.14382 0.997564 0 0.0697565
0 0.5 0.14382 0.997564 0 0.0697565
0.0124871 0.5 -0.14382 0.997526 0.000937393 0.0695832
0.0124871 0.5 0.14382 0.997527 0.000937511 0.069959
0 0.5 -0.15 0.997564 0 0.0697565
0 0.5 0.15 0.997564 0 0.0697565
0.151149 0.5 -0.00137326 0.99608 0.00957779 0.0699163
0 0.5 -0.15618 0.997564 0 0.0697565
0 0.5 0.15618 0.997564 0 0.0697565
0.0124871 0.5 -0.15618 0.997529 0.000929976 0.0694606
0.0124871 0.5 0.15618 0.997529 0.000930217 0.070081
0.151149 0.5 -0.075 0.99607 0.00958594 0.0685287
0.151149 0.5 0.075 0.996074 0.00958901 0.0712099
0.0757758 0.5 -0.1875 0.997325 0.00563774 0.0679705
0.0757758 0.5 0.1875 0.997327 0.00563907 0.071716
0.151149 0.5 -0.15 0.996093 0.00953077 0.0672025
0.151149 0.5 0.15 0.996101 0.00953666 0.0725336
0 0.5 -0.21882 0.997564 0 0.0697565
0 0.5 0.21882 0.997564 0 0.0697565
0.0124871 0.5 -0.21882 0.997529 0.000929976 0.0694606
0.0124871 0.5 0.21882 0.997529 0.000930217 0.070081
0.219992 0.5 -0.0375 0.9949 0.0132502 0.0689345
0.219992 0.5 0.0375 0.994904 0.0132527 0.0708491
0 0.5 -0.225 0.997564 0 0.0697565
0 0.5 0.225 0.997564 0 0.0697565
0 0.5 -0.23118 0.997564 0 0.0697565
0 0.5 0.23118 0.997564 0 0.0697565
0.0124871 0.5 -0.23118 0.997531 0.000919129 0.0693427
0.0124871 0.5 0.23118 0.997532 0.000919433 0.0701986
0.219992 0.5 -0.1125 0.994912 0.0131972 0.0670635
0.219992 0.5 0.1125 0.994923 0.0132057 0.0727198
0.151149 0.5 -0.225 0.996149 0.00944188 0.0659144
0.151149 0.5 0.225 0.996159 0.00944988 0.073819
0.0757758 0.5 -0.2625 0.99734 0.005572 0.0672576
0.0757758 0.5 0.2625 0.997344 0.00557359 0.0724269
0.288069 0.5 -0.00137326 0.991905 0.0168406 0.0699449
0.219992 0.5 -0.1875 0.994989 0.0130985 0.0652127
0.219992 0.5 0.1875 0.995003 0.013111 0.0745654
0 0.5 -0.29382 0.997564 0 0.0697565
0 0.5 0.29382 0.997564 0 0.0697565
0.0124871 0.5 -0.29382 0.997531 0.000919129 0.0693427
0.0124871 0.5 0.29382 0.997532 0.000919433 0.0701986
0.288069 0.5 -0.075 0.991906 0.0168281 0.0673609
0.288069 0.5 0.075 0.991916 0.0168381 0.0723552
0 0.5 -0.3 0.997564 0 0.0697565
0 0.5 0.3 0.997564 0 0.0697565
0 0.5 -0.30618 0.997564 0 0.0697565
0 0.5 0.30618 0.997564 0 0.0697565
0.0124871 0.5 -0.30618 0.997535 0.000905255 0.0692313
0.0124871 0.5 0.30618 0.997536 0.000905651 0.0703094
0.288069 0.5 -0.15 0.992004 0.0167267 0.0649064
0.288069 0.5 0.15 0.99202 0.0167459 0.0748102
0.151149 0.5 -0.3 0.996224 0.00932169 0.0646846
0.151149 0.5 0.3 0.996238 0.00933147 0.0750468
0.219992 0.5 -0.2625 0.995101 0.0129566 0.0634368
0.219992 0.5 0.2625 0.995119 0.0129724 0.0763412
0.0757758 0.5 -0.3375 0.99736 0.00548778 0.0665837
0.0757758 0.5 0.3375 0.997366 0.00548981 0.0730971
0.350249 0.5 -0.0375 0.989051 0.0202486 0.0682828
0.350249 0.5 0.0375 0.989057 0.0202557 0.0713694
0.288069 0.5 -0.225 0.992186 0.0165659 0.0625201
0.288069 0.5 0.225 0.992205 0.016593 0.077198
0.350249 0.5 -0.1125 0.989138 0.0201609 0.0652412
0.350249 0.5 0.1125 0.989156 0.0201821 0.0744123
0 0.5 0.36882 0.997564 0 0.0697565
0 0.5 -0.36882 0.997564 0 0.0697565
0.0124871 0.5 -0.36882 0.997535 0.000905255 0.0692313
0.0124871 0.5 0.36882 0.997536 0.000905651 0.0703094
0 0.5 -0.375 0.997564 0 0.0697565
0 0.5 0.375 0.997564 0 0.0697565
0 0.5 -0.38118 0.997564 0 0.0697565
0 0.5 0.38118 0.997564 0 0.0697565
0.0124871 0.5 -0.38118 0.997539 0.000888634 0.0691274
0.0124871 0.5 0.38118 0.99754 0.000888974 0.0704125
0.350249 0.5 -0.1875 0.989347 0.0199975 0.0622596
0.350249 0.5 0.1875 0.989369 0.0200315 0.0773994
0.219992 0.5 -0.3375 0.995246 0.0127736 0.0617501
0.219992 0.5 0.3375 0.99527 0.0127924 0.078026
0.151149 0.5 -0.375 0.996318 0.00917262 0.0635272
0.151149 0.5 0.375 0.996335 0.00918372 0.0762012
0.411736 0.5 -0.00137326 0.984787 0.0237426 0.0698681
0.288069 0.5 -0.3 0.992436 0.0163498 0.0602426
0.288069 0.5 0.3 0.992461 0.0163836 0.0794792
0.411736 0.5 -0.075 0.984824 0.0237064 0.0660496
0.411736 0.5 0.075 0.984834 0.0237282 0.073433
0.0757758 0.5 -0.4125 0.997385 0.00538688 0.0659553
0.0757758 0.5 0.4125 0.997393 0.00538855 0.0737207
0.350249 0.5 -0.2625 0.989664 0.0197636 0.0593932
0.350249 0.5 0.2625 0.989689 0.0198083 0.0802712
0.411736 0.5 -0.15 0.98505 0.0235486 0.0624234
0.411736 0.5 0.15 0.985065 0.0235912 0.0770674
0 0.5 -0.44382 0.997564 0 0.0697565
0 0.5 0.44382 0.997564 0 0.0697565
0.0124871 0.5 -0.44382 0.997539 0.000888634 0.0691274
0.0124871 0.5 0.44382 0.99754 0.000888974 0.0704125
0 0.5 -0.45 0.997564 0 0.0697565
0 0.5 0.45 0.997564 0 0.0697565
0 0.5 -0.45618 0.997564 0 0.0697565
0 0.5 0.45618 0.997564 0 0.0697565
0.0124871 0.5 -0.45618 0.997544 0.000869577 0.0690323
0.0124871 0.5 0.45618 0.997545 0.000869781 0.0705066
0.219992 0.5 -0.4125 0.995423 0.0125529 0.0601752
0.219992 0.5 0.4125 0.995452 0.0125737 0.0795991
0.411736 0.5 0.225 0.985453 0.0233609 0.0805941
0.411736 0.5 -0.225 0.985438 0.0232996 0.0589093
0.467897 0.5 0.0375 0.980714 0.0270762 0.0718121
0.467897 0.5 -0.0375 0.980708 0.0270616 0.0675066
0.288069 0.5 -0.375 0.99275 0.0160822 0.0581012
0.288069 0.5 0.375 0.992779 0.0161217 0.0816256
0.151149 0.5 -0.45 0.99643 0.00899705 0.0624557
0.151149 0.5 0.45 0.99645 0.00900879 0.077269
0.467897 0.5 -0.1125 0.980903 0.0269293 0.0632505
0.467897 0.5 0.1125 0.980914 0.0269727 0.0760754
0.350249 0.5 -0.3375 0.990077 0.0194648 0.0566795
0.350249 0.5 0.3375 0.990108 0.0195187 0.0829958
0.0757758 0.5 0.4875 0.997425 0.00527195 0.0742906
0.0757758 0.5 -0.4875 0.997415 0.00527112 0.0653795
0.467897 0.5 -0.1875 0.981306 0.0266853 0.059096
0.467897 0.5 0.1875 0.981317 0.0267555 0.0802478
0.411736 0.5 -0.3 0.985975 0.0229664 0.0555618
0.411736 0.5 0.3 0.985989 0.0230438 0.0839597
0 0.5 -0.51882 0.997564 0 0.0697565
0 0.5 0.51882 0.997564 0 0.0697565
0.0124871 0.5 -0.51882 0.997544 0.000869577 0.0690323
0.0124871 0.5 0.51882 0.997545 0.000869781 0.0705066
0.523432 0.5 -0.00137326 0.975462 0.0305348 0.0697009
0 0.5 -0.525 0.997564 0 0.0697565
0 0.5 0.525 0.997564 0 0.0697565
0.523432 0.5 -0.075 0.975554 0.0304696 0.0645985
0.523432 0.5 0.075 0.975555 0.0305093 0.0744686
0 0.5 -0.53118 0.997564 0 0.0697565
0 0.5 0.53118 0.997564 0 0.0697565
0.0124871 0.5 -0.53118 0.99755 0.000848449 0.0689468
0.0124871 0.5 0.53118 0.997551 0.00084847 0.070591
0.288069 0.5 -0.45 0.993119 0.0157669 0.0561217
0.288069 0.5 0.45 0.993153 0.0158113 0.083611
0.219992 0.5 -0.4875 0.995626 0.0122969 0.0587288
0.219992 0.5 0.4875 0.99566 0.0123192 0.0810427
0.467897 0.5 -0.2625 0.981913 0.0263368 0.0551108
0.467897 0.5 0.2625 0.981918 0.0264306 0.084254
0.350249 0.5 -0.4125 0.990577 0.0191052 0.0541524
0.350249 0.5 0.4125 0.990612 0.0191674 0.0855355
0.523432 0.5 -0.15 0.975953 0.030245 0.059756
0.523432 0.5 0.15 0.975949 0.0303227 0.0793298
0.151149 0.5 -0.525 0.996557 0.0087973 0.061481
0.151149 0.5 0.525 0.99658 0.0088091 0.0782389
0.411736 0.5 -0.375 0.986644 0.0225555 0.0524252
0.411736 0.5 0.375 0.98666 0.0226473 0.0871208
0.0757758 0.5 -0.5625 0.99745 0.00514262 0.0648616
0.0757758 0.5 0.5625 0.997461 0.00514229 0.0748016
0.523432 0.5 -0.225 0.976618 0.0298926 0.0550764
0.523432 0.5 0.225 0.976603 0.030005 0.0840405
0.574156 0.5 0.0375 0.970425 0.0338597 0.0721979
0.574156 0.5 -0.0375 0.970427 0.0338345 0.0666194
0.467897 0.5 -0.3375 0.982703 0.0258931 0.0513506
0.467897 0.5 0.3375 0.982703 0.0260072 0.0880482
0.574156 0.5 -0.1125 0.970755 0.033651 0.0611019
0.574156 0.5 0.1125 0.970745 0.0337255 0.0777324
0 0.5 -0.59382 0.997564 0 0.0697565
0 0.5 0.59382 0.997564 0 0.0697565
0.0124871 0.5 -0.59382 0.99755 0.000848449 0.0689468
0.0124871 0.5 0.59382 0.997551 0.00084847 0.070591
0.288069 0.5 -0.525 0.993535 0.015408 0.0543251
0.288069 0.5 0.525 0.993573 0.0154563 0.0854138
0 0.5 -0.6 0.997564 0 0.0697565
0 0.5 0.6 0.997564 0 0.0697565
0.350249 0.5 0.4875 0.991191 0.0187596 0.0878616
0.350249 0.5 -0.4875 0.991151 0.0186901 0.0518404
0.523432 0.5 -0.3 0.977532 0.0294216 0.0506315
0.523432 0.5 0.3 0.977504 0.0295651 0.088527
0.219992 0.5 -0.5625 0.995853 0.0120084 0.0574259
0.219992 0.5 0.5625 0.995889 0.0120313 0.0823422
0.574156 0.5 -0.1875 0.971412 0.0333166 0.055729
0.574156 0.5 0.1875 0.971386 0.0334368 0.0831373
0 0.5 -0.60618 0.997564 0 0.0697565
0 0.5 0.60618 0.997564 0 0.0697565
0.0124871 0.5 -0.60618 0.997556 0.000825665 0.0688715
0.0124871 0.5 0.60618 0.997559 0.000825434 0.070665
0.411736 0.5 -0.45 0.98743 0.0220736 0.0495379
0.411736 0.5 0.45 0.987447 0.0221783 0.0900363
0.151149 0.5 -0.6 0.996696 0.00857613 0.0606123
0.151149 0.5 0.6 0.99672 0.0085874 0.0791021
0.62168 0.5 4.33681e-17 0.964713 0.0371427 0.0695133
0.467897 0.5 -0.4125 0.983654 0.0253617 0.0478651
0.467897 0.5 0.4125 0.983652 0.0254947 0.0915727
0.624316 0.5 0.0729401 0.964536 0.0372902 0.0754832
0.624316 0.5 -0.075 0.964555 0.0372276 0.063019
0.574156 0.5 -0.2625 0.972387 0.03284 0.050589
0.574156 0.5 0.2625 0.972341 0.0330022 0.0883294
0.0757758 0.5 -0.6375 0.99749 0.00500364 0.0644056
0.0757758 0.5 0.6375 0.997502 0.00500178 0.0752497
0.624316 0.5 -0.15 0.965169 0.036929 0.0569118
0.624316 0.5 0.15 0.965125 0.0370516 0.0816234
0.523432 0.5 -0.375 0.97867 0.0288429 0.0464837
0.523432 0.5 0.375 0.978628 0.029014 0.0927277
0.350249 0.5 -0.5625 0.991788 0.0182252 0.0497671
0.350249 0.5 0.5625 0.99183 0.0183008 0.0899505
0.624316 0.5 -0.225 0.966179 0.0364626 0.0510236
0.624316 0.5 0.225 0.966102 0.036641 0.0875663
0.288069 0.5 -0.6 0.993988 0.0150102 0.0527281
0.288069 0.5 0.6 0.994029 0.0150615 0.0870171
0.574156 0.5 -0.3375 0.973651 0.0322336 0.045757
0.574156 0.5 0.3375 0.973581 0.0324331 0.0932195
0.411736 0.5 0.525 0.988331 0.0216439 0.0926748
0.411736 0.5 -0.525 0.988314 0.0215279 0.0469311
0 0.5 0.66882 0.997564 0 0.0697565
0 0.5 -0.66882 0.997564 0 0.0697565
0.0124871 0.5 -0.66882 0.997556 0.000825665 0.0688715
0.0124871 0.5 0.66882 0.997559 0.000825434 0.070665
0.67013 0.5 -0.0375 0.958579 0.0406415 0.0656356
0.67013 0.5 0.0375 0.958565 0.0406792 0.0725451
0.219992 0.5 -0.6375 0.996094 0.0116912 0.0562775
0.219992 0.5 0.6375 0.996132 0.011714 0.0834863
0 0.5 -0.675 0.997564 0 0.0697565
0 0.5 0.675 0.997564 0 0.0697565
0.467897 0.5 -0.4875 0.984744 0.0247516 0.0446947
0.467897 0.5 0.4875 0.98474 0.0249012 0.0947885
0.67013 0.5 -0.1125 0.959072 0.0404019 0.0588034
0.67013 0.5 0.1125 0.959024 0.0405137 0.0794057
0 0.5 -0.68118 0.997564 0 0.0697565
0 0.5 0.68118 0.997564 0 0.0697565
0.0124871 0.5 -0.68118 0.997564 0.000801546 0.0688069
0.0124871 0.5 0.68118 0.997566 0.000801049 0.0707282
0.523432 0.5 -0.45 0.98 0.0281668 0.0426858
0.523432 0.5 0.45 0.979949 0.0283626 0.0965889
0.151149 0.5 -0.675 0.996844 0.00833676 0.0598558
0.151149 0.5 0.675 0.996869 0.00834696 0.0798521
0.624316 0.5 -0.3 0.967557 0.0358407 0.04545
0.624316 0.5 0.3 0.967446 0.0360697 0.0932164
0.67013 0.5 -0.1875 0.960037 0.0399691 0.0521632
0.67013 0.5 0.1875 0.959946 0.0401506 0.0860993
0.574156 0.5 0.4125 0.975078 0.031743 0.0977547
0.574156 0.5 -0.4125 0.975168 0.0315105 0.0413002
0.708171 0.5 3.5345e-17 0.952988 0.0436195 0.0695018
0.0757758 0.5 -0.7125 0.997533 0.00485636 0.0640139
0.0757758 0.5 0.7125 0.997546 0.0048529 0.0756328
0.715434 0.5 0.0736267 0.952313 0.0440344 0.0766735
0.715434 0.5 -0.075 0.952214 0.0440192 0.061322
0.67013 0.5 -0.2625 0.961458 0.0393541 0.0458265
0.67013 0.5 0.2625 0.96132 0.0395999 0.092516
0.350249 0.5 -0.6375 0.992469 0.0177169 0.0479495
0.350249 0.5 0.6375 0.992513 0.0177973 0.0917844
0.411736 0.5 0.6 0.98929 0.0210519 0.0950114
0.411736 0.5 -0.6 0.989273 0.0209263 0.0446286
0.624316 0.5 -0.375 0.969265 0.0350778 0.0402692
0.624316 0.5 0.375 0.96912 0.0353516 0.0984874
0.715434 0.5 -0.15 0.953083 0.0436405 0.053897
0.715434 0.5 0.15 0.952978 0.0438161 0.0839696
0.467897 0.5 -0.5625 0.985946 0.0240718 0.0418712
0.467897 0.5 0.5625 0.985939 0.0242361 0.0976616
0.288069 0.5 -0.675 0.994467 0.0145792 0.0513423
0.288069 0.5 0.675 0.994509 0.0146324 0.0884091
0.523432 0.5 -0.525 0.98149 0.0274042 0.0392795
0.523432 0.5 0.525 0.98143 0.0276219 0.100066
0 0.5 0.74382 0.997564 0 0.0697565
0 0.5 -0.74382 0.997564 0 0.0697565
0.0124871 0.5 -0.74382 0.997564 0.000801546 0.0688069
0.0124871 0.5 0.74382 0.997566 0.000801049 0.0707282
0.219992 0.5 0.7125 0.996386 0.0113716 0.0844679
0.219992 0.5 -0.7125 0.996348 0.0113499 0.0552908
0.715434 0.5 -0.225 0.9545 0.0430517 0.0467539
0.715434 0.5 0.225 0.95433 0.043308 0.0911941
0 0.5 -0.75 0.997564 0 0.0697565
0 0.5 0.75 0.997564 0 0.0697565
0.67013 0.5 -0.3375 0.963287 0.0385729 0.0398996
0.67013 0.5 0.3375 0.963102 0.0388764 0.0985567
0.574156 0.5 -0.4875 0.976898 0.0306827 0.0372719
0.574156 0.5 0.4875 0.976792 0.0309447 0.101871
0 0.5 0.75618 0.997564 0 0.0697565
0 0.5 -0.75618 0.997564 0 0.0697565
0.0124871 0.5 -0.75618 0.997571 0.000776527 0.0687531
0.0124871 0.5 0.75618 0.997574 0.000775764 0.0707805
0.756814 0.5 0.0375 0.945535 0.0475394 0.0728684
0.756814 0.5 -0.0375 0.945567 0.0474872 0.0645675
0.151149 0.5 0.75 0.997024 0.00809149 0.0804857
0.151149 0.5 -0.75 0.996998 0.00808282 0.0592151
0.756814 0.5 -0.1125 0.94625 0.0471871 0.0563636
0.756814 0.5 0.1125 0.94615 0.0473418 0.0811124
0.624316 0.5 -0.45 0.971257 0.0341884 0.0355503
0.624316 0.5 0.45 0.971082 0.0345022 0.103311
0.715434 0.5 -0.3 0.956423 0.042268 0.0400106
0.715434 0.5 0.3 0.956189 0.0425977 0.0980507
0.756814 0.5 -0.1875 0.947573 0.046649 0.0484027
0.756814 0.5 0.1875 0.947393 0.0469009 0.0891498
0.67013 0.5 -0.4125 0.965477 0.0376425 0.0344457
0.67013 0.5 0.4125 0.965249 0.0379963 0.104119
0.411736 0.5 -0.675 0.990285 0.0202777 0.0426461
0.411736 0.5 0.675 0.990301 0.020411 0.0970295
0.467897 0.5 -0.6375 0.987229 0.0233325 0.039417
0.467897 0.5 0.6375 0.98722 0.023509 0.100169
0.0757758 0.5 -0.7875 0.99758 0.00470326 0.0636877
0.0757758 0.5 0.7875 0.997593 0.00469822 0.0759498
0.350249 0.5 -0.7125 0.99318 0.0171726 0.0463982
0.350249 0.5 0.7125 0.993225 0.0172567 0.0933522
0.523432 0.5 0.6 0.983033 0.0268037 0.103126
0.523432 0.5 -0.6 0.983101 0.0265673 0.0362958
0.797732 0.5 1.60462e-17 0.938452 0.0510277 0.0685071
0.756814 0.5 -0.2625 0.949508 0.0458862 0.0408279
0.756814 0.5 0.2625 0.949243 0.0462281 0.0968391
0.797732 0.5 0.0736267 0.938857 0.0509181 0.0778187
0.797732 0.5 -0.075 0.93887 0.0508312 0.0595209
0.288069 0.5 0.75 0.995003 0.0141753 0.0895833
0.288069 0.5 -0.75 0.994962 0.0141213 0.0501738
0.574156 0.5 -0.5625 0.978797 0.0297639 0.0337135
0.574156 0.5 0.5625 0.978677 0.0300517 0.105526
0.715434 0.5 -0.375 0.958796 0.0413074 0.0337718
0.715434 0.5 0.375 0.958501 0.0417027 0.104424
0.797732 0.5 -0.15 0.940032 0.0503675 0.0507246
0.797732 0.5 0.15 0.939845 0.0506022 0.086381
0.624316 0.5 -0.525 0.973478 0.0331881 0.0313507
0.624316 0.5 0.525 0.973278 0.0335375 0.107632
0.219992 0.5 -0.7875 0.996605 0.0109895 0.0544689
0.219992 0.5 0.7875 0.996644 0.0110094 0.0852836
0 0.5 -0.81882 0.997564 0 0.0697565
0 0.5 0.81882 0.997564 0 0.0697565
0.0124871 0.5 -0.81882 0.997571 0.000776527 0.0687531
0.0124871 0.5 0.81882 0.997574 0.000775764 0.0707805
0 0.5 -0.825 0.997564 0 0.0697565
0 0.5 0.825 0.997564 0 0.0697565
0.756814 0.5 -0.3375 0.951987 0.0449188 0.033749
0.756814 0.5 0.3375 0.951648 0.0453413 0.104061
0.67013 0.5 0.4875 0.967702 0.0369787 0.109151
0.67013 0.5 -0.4875 0.967969 0.0365787 0.0295568
0.797732 0.5 0.225 0.941618 0.0499923 0.094938
0.797732 0.5 -0.225 0.941911 0.0496491 0.0422798
0 0.5 -0.83118 0.997564 0 0.0697565
0 0.5 0.83118 0.997564 0 0.0697565
0.0124871 0.5 -0.83118 0.997579 0.000750917 0.06871
0.0124871 0.5 0.83118 0.997581 0.000749917 0.070822
0.835107 0.5 -0.0375 0.931676 0.0543402 0.0634303
0.835107 0.5 0.0375 0.931622 0.0544081 0.0731798
0.151149 0.5 -0.825 0.997154 0.00781816 0.0586907
0.151149 0.5 0.825 0.99718 0.00782511 0.0810021
0.835107 0.5 0.1125 0.932407 0.0541777 0.0828629
0.835107 0.5 -0.1125 0.932576 0.0539763 0.0538004
0.715434 0.5 -0.45 0.961557 0.0401886 0.028125
0.715434 0.5 0.45 0.961204 0.0406429 0.11023
0.797732 0.5 -0.3 0.944452 0.0486941 0.0343278
0.797732 0.5 0.3 0.944058 0.0491367 0.10304
0.467897 0.5 0.7125 0.988552 0.0227311 0.102296
0.467897 0.5 -0.7125 0.988564 0.0225448 0.0373446
0.523432 0.5 -0.675 0.984793 0.0256688 0.0337534
0.523432 0.5 0.675 0.984719 0.0259206 0.105749
0.411736 0.5 0.75 0.991342 0.0197307 0.0987209
0.411736 0.5 -0.75 0.991326 0.0195917 0.0409908
0.835107 0.5 -0.1875 0.934302 0.0533275 0.0444688
0.835107 0.5 0.1875 0.934008 0.0536559 0.0922957
0.574156 0.5 0.6375 0.980685 0.0290783 0.108692
0.574156 0.5 -0.6375 0.980817 0.0287687 0.0306519
0.350249 0.5 -0.7875 0.993905 0.0166007 0.0451167
0.350249 0.5 0.7875 0.99395 0.0166871 0.0946497
0.756814 0.5 -0.4125 0.954949 0.0437658 0.0273034
0.756814 0.5 0.4125 0.954533 0.044261 0.110678
0.0757758 0.5 -0.8625 0.997627 0.00454652 0.0634264
0.0757758 0.5 0.8625 0.99764 0.00454015 0.0762017
0.624316 0.5 -0.6 0.97587 0.0320937 0.027706
0.624316 0.5 0.6 0.975648 0.0324736 0.111409
0.872064 0.5 4.81386e-17 0.92436 0.0578115 0.0680793
0.870122 0.5 0.075 0.925243 0.0575106 0.0789485
0.288069 0.5 -0.825 0.995461 0.0136435 0.0492232
0.288069 0.5 0.825 0.995502 0.0136972 0.0905387
0.67013 0.5 -0.5625 0.970692 0.0354014 0.0252744
0.67013 0.5 0.5625 0.970392 0.0358415 0.113588
0.872064 0.5 -0.075 0.924902 0.0575749 0.0576388
0.835107 0.5 -0.2625 0.936813 0.0524097 0.0356125
0.835107 0.5 0.2625 0.936388 0.0528568 0.101307
0.797732 0.5 -0.375 0.947582 0.047524 0.0270083
0.797732 0.5 0.375 0.947091 0.0480565 0.110553
0.872064 0.5 0.14794 0.926102 0.0573217 0.0888477
0.872064 0.5 -0.15 0.926384 0.0570237 0.0474282
0.715434 0.5 0.525 0.964223 0.0394393 0.115404
0.715434 0.5 -0.525 0.964625 0.0389327 0.0231358
0.219992 0.5 -0.8625 0.996865 0.0106156 0.0538107
0.219992 0.5 0.8625 0.996902 0.0106333 0.0859345
0 0.5 -0.89382 0.997564 0 0.0697565
0 0.5 0.89382 0.997564 0 0.0697565
0.0124871 0.5 -0.89382 0.997579 0.000750917 0.06871
0.0124871 0.5 0.89382 0.997581 0.000749917 0.070822
0 0.5 -0.9 0.997564 0 0.0697565
0 0.5 0.9 0.997564 0 0.0697565
0.756814 0.5 -0.4875 0.95831 0.0424501 0.0215481
0.756814 0.5 0.4875 0.957821 0.0430109 0.116645
0.872064 0.5 -0.225 0.928769 0.0561723 0.0376427
0.872064 0.5 0.225 0.928333 0.0566089 0.0987783
0.835107 0.5 0.3375 0.939487 0.0518001 0.10974
0.835107 0.5 -0.3375 0.940026 0.0512461 0.0273662
0 0.5 -0.90618 0.997564 0 0.0697565
0 0.5 0.90618 0.997564 0 0.0697565
0.0124871 0.5 -0.90618 0.997586 0.000725149 0.0686774
0.0124871 0.5 0.90618 0.997588 0.000723947 0.070853
0.905821 0.5 0.0375 0.917304 0.0611387 0.0734797
0.905821 0.5 -0.0375 0.917383 0.0610544 0.0622443
0.151149 0.5 -0.9 0.99731 0.00754687 0.0582807
0.151149 0.5 0.9 0.997335 0.00755219 0.0814035
0.905821 0.5 -0.1125 0.918513 0.060626 0.0511523
0.905821 0.5 0.1125 0.91827 0.0608765 0.0846385
0.523432 0.5 -0.75 0.986528 0.0247225 0.0316595
0.523432 0.5 0.75 0.986449 0.0249859 0.107925
0.574156 0.5 -0.7125 0.982908 0.0277126 0.0281009
0.574156 0.5 0.7125 0.982768 0.0280396 0.111351
0.797732 0.5 -0.45 0.951211 0.0461625 0.0204266
0.797732 0.5 0.45 0.950625 0.0467758 0.11736
0.467897 0.5 0.7875 0.989907 0.0219133 0.104039
0.467897 0.5 -0.7875 0.98992 0.0217204 0.0356566
0.624316 0.5 -0.675 0.978373 0.0309229 0.0246381
0.624316 0.5 0.675 0.978135 0.0313277 0.114615
0.411736 0.5 -0.825 0.992375 0.0188784 0.0396617
0.411736 0.5 0.825 0.99239 0.0190207 0.100085
0.872064 0.5 -0.3 0.93199 0.0550416 0.0284553
0.872064 0.5 0.3 0.931404 0.0556059 0.10816
0.67013 0.5 0.6375 0.97325 0.0346036 0.117398
0.67013 0.5 -0.6375 0.973575 0.0341301 0.0216315
0.905821 0.5 -0.1875 0.920669 0.059866 0.0404172
0.905821 0.5 0.1875 0.920252 0.0602752 0.0955003
0.350249 0.5 -0.8625 0.994631 0.0160096 0.0441019
0.350249 0.5 0.8625 0.994676 0.0160963 0.0956799
0.835107 0.5 -0.4125 0.943856 0.0498598 0.0199049
0.835107 0.5 0.4125 0.943196 0.0505121 0.117469
0.715434 0.5 -0.6 0.967916 0.0375619 0.0188491
0.715434 0.5 0.6 0.967474 0.0381131 0.119888
0.939201 0.5 3.31766e-17 0.909662 0.0646616 0.0676265
0.0757758 0.5 -0.9375 0.997671 0.00438849 0.0632282
0.0757758 0.5 0.9375 0.997683 0.00438089 0.0763902
0.939112 0.5 0.075 0.910238 0.0645426 0.0806194
0.939201 0.5 -0.075 0.910341 0.0643818 0.0556589
0.756814 0.5 -0.5625 0.961965 0.0409969 0.0165547
0.756814 0.5 0.5625 0.961423 0.0416142 0.121863
0.905821 0.5 0.2625 0.923197 0.0593508 0.105865
0.905821 0.5 -0.2625 0.923797 0.0587926 0.030249
0.288069 0.5 -0.9 0.995958 0.0131524 0.048486
0.288069 0.5 0.9 0.995999 0.013205 0.0912796
0.872064 0.5 -0.375 0.935951 0.0536568 0.0200386
0.872064 0.5 0.375 0.935221 0.0543374 0.116839
0.939201 0.5 0.148627 0.911862 0.0640693 0.0916107
0.939201 0.5 -0.15 0.912175 0.0637358 0.0439665
0.797732 0.5 -0.525 0.955229 0.0446367 0.0146527
0.797732 0.5 0.525 0.954563 0.0453207 0.123381
0.219992 0.5 -0.9375 0.997124 0.0102342 0.053312
0.219992 0.5 0.9375 0.99716 0.0102501 0.0864253
0.939201 0.5 -0.225 0.915116 0.06274 0.0327799
0.939201 0.5 0.225 0.91451 0.0632768 0.102797
0.905821 0.5 -0.3375 0.927803 0.0574321 0.0208171
0.905821 0.5 0.3375 0.92703 0.0581254 0.115534
0.835107 0.5 -0.4875 0.948182 0.0482807 0.01328
0.835107 0.5 0.4875 0.947413 0.0490182 0.124343
0 0.5 -0.96882 0.997564 0 0.0697565
0 0.5 0.96882 0.997564 0 0.0697565
0.0124871 0.5 -0.96882 0.997586 0.000725149 0.0686774
0.0124871 0.5 0.96882 0.997588 0.000723947 0.070853
0.96969 0.5 -0.0375 0.902288 0.0680311 0.0609829
0.96969 0.5 0.0375 0.902177 0.0681332 0.0738146
0.574156 0.5 0.7875 0.984879 0.0269508 0.113501
0.574156 0.5 -0.7875 0.985022 0.0266118 0.0260598
0 0.5 -0.975 0.997564 0 0.0697565
0 0.5 0.975 0.997564 0 0.0697565
0.624316 0.5 -0.75 0.980926 0.0296941 0.0221524
0.624316 0.5 0.75 0.98068 0.0301178 0.117243
0.96969 0.5 -0.1125 0.903681 0.0675285 0.0483239
0.96969 0.5 0.1125 0.903342 0.0678321 0.0865566
0.523432 0.5 -0.825 0.988267 0.0237419 0.0300093
0.523432 0.5 0.825 0.988187 0.024013 0.109657
0.67013 0.5 -0.7125 0.976547 0.0327853 0.0186417
0.67013 0.5 0.7125 0.976205 0.0332855 0.120562
0 0.5 -0.98118 0.997564 0 0.0697565
0 0.5 0.98118 0.997564 0 0.0697565
0.467897 0.5 -0.8625 0.99127 0.0208705 0.0343456
0.467897 0.5 0.8625 0.991257 0.0210674 0.105403
0.0124871 0.5 -0.98118 0.997592 0.000699559 0.0686548
0.0124871 0.5 0.98118 0.997593 0.000698149 0.070874
0.872064 0.5 0.45 0.939666 0.0528315 0.124661
0.872064 0.5 -0.45 0.940527 0.0520471 0.0125118
0.715434 0.5 -0.675 0.971345 0.0360991 0.0152889
0.715434 0.5 0.675 0.970874 0.0366866 0.123658
0.939201 0.5 0.3 0.918266 0.0621139 0.113509
0.939201 0.5 -0.3 0.919083 0.0614183 0.0223096
0.151149 0.5 -0.975 0.997464 0.00727297 0.0579807
0.151149 0.5 0.975 0.997488 0.00727682 0.0816947
0.96969 0.5 -0.1875 0.906323 0.0666393 0.0360908
0.96969 0.5 0.1875 0.905745 0.0671363 0.0989443
0.756814 0.5 0.6375 0.965235 0.040095 0.126303
0.756814 0.5 -0.6375 0.965823 0.0394304 0.0123561
0.411736 0.5 -0.9 0.993412 0.0181472 0.0386502
0.411736 0.5 0.9 0.993427 0.0182905 0.10113
0.905821 0.5 -0.4125 0.932564 0.0558126 0.0123311
0.905821 0.5 0.4125 0.931626 0.0566294 0.124373
0.995005 0.5 0.0749309 0.897222 0.0701101 0.0816075
0.797732 0.5 -0.6 0.959524 0.0429744 0.00974444
0.797732 0.5 0.6 0.958796 0.0437189 0.128563
1.00005 0.5 3.26706e-18 0.895317 0.0707332 0.0671513
0.350249 0.5 0.9375 0.99539 0.015492 0.0964506
0.350249 0.5 -0.9375 0.995347 0.0154066 0.0433446
1.00005 0.5 -0.0749309 0.89614 0.0704165 0.0537463
0.96969 0.5 -0.2625 0.910142 0.0653846 0.0245287
0.96969 0.5 0.2625 0.90932 0.0660641 0.110742
0.835107 0.5 -0.5625 0.952869 0.0465387 0.00759066
0.835107 0.5 0.5625 0.952021 0.0473506 0.130335
1.00005 0.5 -0.149862 0.898335 0.0696927 0.0406569
0.939201 0.5 -0.375 0.92395 0.059801 0.0127493
0.939201 0.5 0.375 0.922937 0.0606412 0.123385
1.00029 0.5 0.148988 0.897991 0.0700561 0.0940057
0.0757758 0.5 -1.0125 0.997708 0.00423144 0.0630906
0.0757758 0.5 1.0125 0.997719 0.00422278 0.0765182
0.288069 0.5 -0.975 0.996447 0.0126546 0.0479525
0.288069 0.5 0.975 0.996487 0.0127055 0.0918149
0.872064 0.5 -0.525 0.945575 0.0502452 0.00595883
0.872064 0.5 0.525 0.944606 0.0511207 0.131525
1.00005 0.5 0.224793 0.901054 0.0692117 0.106537
1.00005 0.5 -0.224793 0.901845 0.0685796 0.0281452
0.96969 0.5 0.3375 0.913967 0.0646412 0.121713
0.96969 0.5 -0.3375 0.915032 0.0637945 0.0138532
1.02709 0.5 0.0368226 0.887816 0.0740644 0.0739479
1.02709 0.5 -0.0368226 0.887955 0.0739496 0.059915
0.905821 0.5 0.4875 0.93685 0.0548935 0.132184
0.905821 0.5 -0.4875 0.937917 0.0539696 0.00483158
1.02709 0.5 -0.110468 0.889567 0.073412 0.0460666
1.02709 0.5 0.110468 0.88878 0.0739854 0.0911751
0.67013 0.5 -0.7875 0.979538 0.0313879 0.0162995
0.67013 0.5 0.7875 0.979189 0.0319072 0.123079
0.624316 0.5 -0.825 0.983473 0.0284251 0.0202383
0.624316 0.5 0.825 0.983225 0.0288617 0.119299
0.219992 0.5 -1.0125 0.997385 0.0098505 0.0529637
0.219992 0.5 1.0125 0.997421 0.00986466 0.0867654
0.574156 0.5 -0.8625 0.987116 0.0254811 0.0245154
0.574156 0.5 0.8625 0.986973 0.0258279 0.115151
0.715434 0.5 -0.75 0.974829 0.0345682 0.0124577
0.715434 0.5 0.75 0.974342 0.0351831 0.126704
0.756814 0.5 -0.7125 0.969783 0.0377772 0.00896872
0.756814 0.5 0.7125 0.969166 0.0384792 0.129943
0.523432 0.5 0.9 0.989899 0.0230152 0.110956
0.523432 0.5 -0.9 0.989976 0.0227403 0.0287878
0.939201 0.5 0.45 0.928375 0.0588917 0.132249
0.939201 0.5 -0.45 0.929555 0.0579226 0.00423529
1.04168 0.5 0 0.883674 0.0757232 0.0667999
1.02709 0.5 -0.184113 0.892611 0.0724652 0.0326786
1.02709 0.5 0.184113 0.891903 0.0730258 0.101446
0 0.5 1.04382 0.997564 0 0.0697565
0 0.5 -1.04382 0.997564 0 0.0697565
0.0124871 0.5 -1.04382 0.997592 0.000699559 0.0686548
0.0124871 0.5 1.04382 0.997593 0.000698149 0.070874
1.00005 0.5 -0.299723 0.906572 0.0671032 0.0164564
1.00005 0.5 0.299723 0.905508 0.067924 0.118512
1.04168 0.5 -0.0729162 0.884573 0.0753914 0.052551
1.04168 0.5 0.0729162 0.88428 0.075626 0.0810953
0.797732 0.5 -0.675 0.963986 0.0412043 0.00572589
0.797732 0.5 0.675 0.963212 0.0419983 0.132871
0.467897 0.5 -0.9375 0.992589 0.0200062 0.033397
0.467897 0.5 0.9375 0.992579 0.0202038 0.106401
0 0.5 -1.05 0.997564 0 0.0697565
0 0.5 1.05 0.997564 0 0.0697565
0.835107 0.5 0.6375 0.956885 0.0455402 0.135382
0.835107 0.5 -0.6375 0.957804 0.0446651 0.00286475
1.04168 0.5 -0.145832 0.886959 0.0746385 0.0386287
1.04168 0.5 0.145832 0.886367 0.0751026 0.0951513
0.96969 0.5 -0.4125 0.920811 0.0619053 0.00424428
0.96969 0.5 0.4125 0.919545 0.0629031 0.131695
0 0.5 -1.05618 0.997564 0 0.0697565
0 0.5 1.05618 0.997564 0 0.0697565
0.0124871 0.5 -1.05618 0.997596 0.000674325 0.0686414
0.0124871 0.5 1.05618 0.997598 0.000672824 0.0708859
1.05694 0.5 -0.0360765 0.879578 0.0773429 0.059299
1.05694 0.5 0.0360765 0.879418 0.0774654 0.0739205
0.411736 0.5 0.975 0.994436 0.0175489 0.10187
0.411736 0.5 -0.975 0.994419 0.0174065 0.0379399
0.872064 0.5 -0.6 0.950954 0.0482842 0.000448543
0.872064 0.5 0.6 0.949891 0.0492386 0.137387
1.02709 0.5 -0.257758 0.897008 0.0711307 0.0200118
1.02709 0.5 0.257758 0.896005 0.0718987 0.114371
0.151149 0.5 -1.05 0.997617 0.00699893 0.0577834
0.151149 0.5 1.05 0.99764 0.00700118 0.0818827
1.05694 0.5 -0.108229 0.881273 0.0767891 0.044866
1.05694 0.5 0.108229 0.879994 0.0774916 0.0888437
1.04168 0.5 -0.218749 0.890771 0.0734823 0.0253049
1.04168 0.5 0.218749 0.889872 0.0741661 0.108694
0.905821 0.5 -0.5625 0.943702 0.0519381 -0.00153757
0.905821 0.5 0.5625 0.942519 0.052959 0.138929
1.00005 0.5 -0.374654 0.912359 0.0652974 0.00579709
1.00005 0.5 0.374654 0.911044 0.0662903 0.12953
0.350249 0.5 -1.0125 0.996039 0.0147981 0.0428283
0.350249 0.5 1.0125 0.996082 0.0148819 0.0969752
1.05694 0.5 -0.180382 0.884462 0.0758176 0.0309065
1.05694 0.5 0.180382 0.883651 0.076418 0.102593
1.07319 0.5 0.0709442 0.87534 0.0792531 0.0845224
0.939201 0.5 0.525 0.934398 0.0569056 0.140007
0.939201 0.5 -0.525 0.935722 0.0558222 -0.00311889
1.02709 0.5 -0.331404 0.90263 0.0694378 0.00830936
1.02709 0.5 0.331404 0.901334 0.0703982 0.126409
1.08112 0.5 -3.98986e-18 0.872092 0.0803113 0.0664052
1.04168 0.5 -0.291665 0.895907 0.0719478 0.012838
1.04168 0.5 0.291665 0.894697 0.0728381 0.121465
1.08112 0.5 -0.0709442 0.873054 0.0799666 0.0513807
0.96969 0.5 -0.4875 0.927302 0.0597545 -0.00418337
0.96969 0.5 0.4875 0.925865 0.0608857 0.140488
1.05694 0.5 -0.252535 0.889066 0.0744498 0.0176842
1.05694 0.5 0.252535 0.88792 0.0752735 0.116089
0.288069 0.5 -1.05 0.996923 0.0121537 0.0476091
0.288069 0.5 1.05 0.996962 0.0122027 0.0921577
0.0757758 0.5 -1.0875 0.997737 0.00407652 0.0630087
0.0757758 0.5 1.0875 0.997746 0.0040671 0.0765906
1.08112 0.5 -0.141888 0.875584 0.0791923 0.0366909
1.08145 0.5 0.140165 0.875239 0.0795725 0.0967013
0.715434 0.5 -0.825 0.978289 0.0329926 0.0103366
0.715434 0.5 0.825 0.977799 0.033626 0.129039
0.756814 0.5 -0.7875 0.97375 0.0360652 0.0063784
0.756814 0.5 0.7875 0.973121 0.0367933 0.132787
0.67013 0.5 -0.8625 0.982485 0.0299577 0.0145831
0.67013 0.5 0.8625 0.982138 0.0304889 0.124968
0.797732 0.5 0.75 0.9677 0.0401875 0.136298
0.797732 0.5 -0.75 0.968497 0.0393558 0.00259616
0.624316 0.5 -0.9 0.985965 0.0271337 0.0188721
0.624316 0.5 0.9 0.985722 0.0275772 0.120802
1.00005 0.5 -0.449585 0.919011 0.0632 -0.00365307
1.00005 0.5 0.449585 0.917479 0.0643477 0.1394
0.835107 0.5 -0.7125 0.962855 0.0426928 -0.000879094
0.835107 0.5 0.7125 0.961895 0.0436176 0.139466
0.574156 0.5 -0.9375 0.989149 0.0243361 0.0234433