# wallShearStress  FACE_DATA 60650
# x  y  z  wallShearStress_x  wallShearStress_y  wallShearStress_z
8.75721 0 0.345731 0.000423397 -1.01703e-05 0.000410205
8.72516 0 0.336919 0.000245101 -1.17019e-05 0.000317061
8.69439 0 0.328456 6.06529e-05 -1.24871e-05 0.000214161
8.66483 0 0.320329 -0.000113408 -9.97301e-06 0.000112312
8.63646 0 0.312526 -0.000252898 -3.14686e-06 2.58644e-05
8.6092 0 0.305031 -0.000352791 8.85903e-07 -4.40383e-05
8.58303 0 0.297833 -0.000422928 7.73845e-07 -0.000101324
8.82531 0 0.430728 0.000766375 -1.47112e-05 0.000680091
8.79057 0 0.419435 0.000618802 -1.22166e-05 0.000624804
8.75721 0 0.408591 0.000499932 -1.1354e-05 0.000560116
8.72516 0 0.398176 0.000370763 -1.10117e-05 0.000470487
8.69439 0 0.388175 0.000228756 -1.19446e-05 0.000364065
8.66483 0 0.378571 8.88387e-05 -1.19287e-05 0.000249099
8.63646 0 0.369348 -4.12883e-05 -8.4322e-06 0.000130905
8.6092 0 0.360491 -0.000159744 -6.53098e-06 1.80871e-05
8.58303 0 0.351985 -0.000260334 -3.47815e-06 -8.8014e-05
8.5579 0 0.343817 -0.000341543 -6.96593e-07 -0.000188608
8.53376 0 0.335973 -0.000389679 1.46926e-06 -0.000279189
8.51058 0 0.32844 -0.000398634 4.37757e-06 -0.00035549
8.9384 0 0.539403 0.00114652 -1.75777e-05 0.00130786
8.89917 0 0.52469 0.00106452 -1.53709e-05 0.00124473
8.8615 0 0.510562 0.000990017 -1.51974e-05 0.0011729
8.82531 0 0.496994 0.000873491 -1.35128e-05 0.00107788
8.79057 0 0.483964 0.000746396 -1.07121e-05 0.000977836
8.75721 0 0.471451 0.000654117 -1.05702e-05 0.000878152
8.72516 0 0.459434 0.000553096 -1.20044e-05 0.000757052
8.69439 0 0.447895 0.000427432 -1.26729e-05 0.000618627
8.66483 0 0.436813 0.000290801 -1.21764e-05 0.000471403
8.63646 0 0.426171 0.000154414 -1.26009e-05 0.000321812
8.6092 0 0.415951 2.30653e-05 -1.15036e-05 0.000172194
8.58303 0 0.406136 -0.000101119 -8.94179e-06 2.42942e-05
8.5579 0 0.396712 -0.000210058 -6.85707e-06 -0.000115848
8.53376 0 0.387661 -0.000287345 -1.37132e-06 -0.000243215
8.51058 0 0.378969 -0.00032611 1.93931e-06 -0.000354897
8.48833 0 0.370622 -0.000327405 3.41016e-06 -0.000444754
8.46695 0 0.362605 -0.000308779 4.80834e-06 -0.000509487
8.9384 0 0.611323 0.00122692 -1.5945e-05 0.00184329
8.89917 0 0.594649 0.00114185 -1.3e-05 0.0017318
8.8615 0 0.578636 0.00108434 -1.28747e-05 0.00161425
8.82531 0 0.563259 0.00099841 -1.43522e-05 0.00149201
8.79057 0 0.548492 0.000881306 -1.21718e-05 0.00135338
8.75721 0 0.534311 0.000780721 -1.07677e-05 0.00121791
8.72516 0 0.520692 0.000693553 -1.17509e-05 0.00108121
8.69439 0 0.507614 0.000589451 -1.25733e-05 0.000933831
8.66483 0 0.495055 0.000469972 -1.2471e-05 0.000774043
8.63646 0 0.482994 0.000343293 -1.15533e-05 0.000606301
8.6092 0 0.471411 0.000214476 -1.19236e-05 0.000432876
8.58303 0 0.460288 8.61896e-05 -1.38424e-05 0.000257486
8.5579 0 0.449607 -3.51632e-05 -1.08121e-05 8.41327e-05
8.53376 0 0.439349 -0.000141341 -7.57706e-06 -8.18801e-05
8.51058 0 0.429498 -0.000219118 -3.40007e-06 -0.000234961
8.48833 0 0.420038 -0.000257154 2.27273e-06 -0.000368631
8.46695 0 0.410953 -0.000259161 4.87193e-06 -0.000483818
8.44642 0 0.402229 -0.00023728 4.54514e-06 -0.000569095
8.42671 0 0.393851 -0.000208098 5.53811e-06 -0.000630483
8.9384 0 0.683243 0.00129161 -1.54789e-05 0.00227591
8.89917 0 0.664607 0.00121718 -1.01081e-05 0.0021511
8.8615 0 0.646711 0.00115696 -1.16998e-05 0.00200741
8.82531 0 0.629525 0.00108403 -1.11185e-05 0.00187764
8.79057 0 0.613021 0.00100307 -1.15069e-05 0.00173252
8.75721 0 0.597171 0.000906623 -1.00053e-05 0.00157258
8.72516 0 0.58195 0.000817584 -1.01786e-05 0.00141572
8.69439 0 0.567333 0.00073303 -1.09141e-05 0.00126059
8.66483 0 0.553296 0.000637646 -1.18524e-05 0.00109494
8.63646 0 0.539816 0.000529228 -1.19454e-05 0.000919208
8.6092 0 0.526871 0.000413246 -1.1759e-05 0.000734353
8.58303 0 0.51444 0.000292631 -1.13327e-05 0.000543195
8.5579 0 0.502501 0.000170223 -1.3683e-05 0.00034764
8.53376 0 0.491037 5.02873e-05 -1.38541e-05 0.00015263
8.51058 0 0.480027 -5.84018e-05 -9.31388e-06 -3.54221e-05
8.48833 0 0.469454 -0.000144689 -6.40759e-06 -0.000210862
8.46695 0 0.4593 -0.000192685 -3.2251e-07 -0.000365251
8.44642 0 0.44955 -0.000200071 3.87923e-06 -0.00050076
8.42671 0 0.440186 -0.000178759 4.88423e-06 -0.000609017
8.40778 0 0.431194 -0.00014428 5.16601e-06 -0.000687427
8.38959 0 0.422558 -0.00011037 5.32678e-06 -0.000736036
8.9384 0 0.755163 0.0013714 -1.41775e-05 0.00262561
8.89917 0 0.734566 0.00128317 -5.93974e-06 0.00250446
8.8615 0 0.714786 0.00122979 -9.81437e-06 0.00234359
8.82531 0 0.69579 0.00116201 -8.83332e-06 0.00219246
8.79057 0 0.677549 0.00110124 -9.38949e-06 0.00204086
8.75721 0 0.660031 0.00103081 -1.04404e-05 0.00188132
8.72516 0 0.643208 0.000945826 -8.93759e-06 0.0017209
8.69439 0 0.627053 0.000860148 -9.06467e-06 0.0015543
8.66483 0 0.611538 0.000779088 -9.94352e-06 0.0013888
8.63646 0 0.596639 0.000691923 -1.06704e-05 0.00121692
8.6092 0 0.582331 0.000594457 -1.14091e-05 0.00103556
8.58303 0 0.568591 0.000487896 -1.14719e-05 0.000845128
8.5579 0 0.555397 0.000375163 -1.12869e-05 0.000646702
8.53376 0 0.542725 0.000258315 -1.23334e-05 0.000442254
8.51058 0 0.530556 0.000141333 -1.465e-05 0.000235367
8.48833 0 0.518871 3.01159e-05 -1.27749e-05 3.24223e-05
8.46695 0 0.507648 -6.39522e-05 -8.08135e-06 -0.000159202
8.44642 0 0.496871 -0.000126759 -3.13458e-06 -0.000333347
8.42671 0 0.486522 -0.000145908 -1.96158e-07 -0.00048773
8.40778 0 0.476583 -0.000127871 4.64657e-06 -0.000621267
8.38959 0 0.467038 -9.10133e-05 4.73976e-06 -0.000721469
8.9384 0 0.827083 0.00144761 -1.45186e-05 0.00287011
8.89917 0 0.804525 0.00136598 -3.84766e-06 0.0027586
8.8615 0 0.782861 0.00132114 -8.57908e-06 0.00259104
8.82531 0 0.762056 0.00125645 -6.84701e-06 0.00244386
8.79057 0 0.742077 0.00119165 -8.3559e-06 0.00228744
8.75721 0 0.722891 0.00112146 -8.18829e-06 0.00213572
8.72516 0 0.704466 0.0010617 -8.94876e-06 0.00197971
8.69439 0 0.686772 0.000990973 -8.34018e-06 0.00181881
8.66483 0 0.66978 0.000904952 -8.27406e-06 0.0016514
8.63646 0 0.653462 0.000829154 -8.78935e-06 0.00148079
8.6092 0 0.637792 0.00074991 -9.41152e-06 0.0013077
8.58303 0 0.622743 0.000662724 -1.04059e-05 0.00112613
8.5579 0 0.608291 0.000565806 -1.09882e-05 0.000936065
8.53376 0 0.594413 0.000461229 -1.12231e-05 0.000736718
8.51058 0 0.581085 0.000351011 -1.11868e-05 0.000529677
8.48833 0 0.568287 0.000237811 -1.32323e-05 0.000317584
8.46695 0 0.555995 0.000127156 -1.45384e-05 0.000105726
8.44642 0 0.544192 2.67452e-05 -1.1342e-05 -9.86341e-05
8.42671 0 0.532857 -5.00758e-05 -4.50502e-06 -0.000289053
8.40778 0 0.521972 -8.68284e-05 8.87526e-08 -0.000459913
8.38959 0 0.511518 -7.88181e-05 3.00223e-06 -0.000613165
8.9384 0 0.899004 0.00152494 -1.45187e-05 0.00300986
8.89917 0 0.874483 0.0014481 -2.25658e-06 0.00292439
8.8615 0 0.850935 0.00140433 -8.71499e-06 0.00275808
8.82531 0 0.828322 0.00133665 -5.62109e-06 0.00262402
8.79057 0 0.806606 0.00128051 -6.92368e-06 0.00247583
8.75721 0 0.785751 0.00121786 -6.70115e-06 0.00233104
8.72516 0 0.765724 0.00115472 -7.21017e-06 0.00218269
8.69439 0 0.746491 0.0010907 -7.48165e-06 0.00203492
8.66483 0 0.728022 0.0010295 -9.25512e-06 0.00187623
8.63646 0 0.710285 0.000959872 -7.0452e-06 0.00171793
8.6092 0 0.693252 0.000879562 -8.49044e-06 0.00154868
8.58303 0 0.676895 0.000806357 -8.5613e-06 0.00137488
8.5579 0 0.661186 0.000727468 -9.54619e-06 0.00119806
8.53376 0 0.646101 0.000641035 -1.04745e-05 0.0010121
8.51058 0 0.631614 0.000545107 -1.10615e-05 0.00081688
8.48833 0 0.617703 0.000442042 -1.13567e-05 0.000612197
8.46695 0 0.604343 0.000333998 -1.22613e-05 0.000400066
8.44642 0 0.591513 0.000224664 -1.35512e-05 0.000184259
8.42671 0 0.579192 0.000121402 -1.33782e-05 -2.81155e-05
8.40778 0 0.56736 3.39889e-05 -9.41201e-06 -0.000230485
8.38959 0 0.555998 -2.07542e-05 -1.61884e-06 -0.000417056
8.37214 0 0.545086 -2.94079e-05 3.49106e-07 -0.000587037
8.9384 0 0.970925 0.00159872 -1.50521e-05 0.00307037
8.89917 0 0.944442 0.00152491 -6.31355e-07 0.00301315
8.8615 0 0.91901 0.00148191 -8.91661e-06 0.00285644
8.82531 0 0.894588 0.00141574 -4.35073e-06 0.00274126
8.79057 0 0.871135 0.00136257 -6.29965e-06 0.0026021
8.75721 0 0.848612 0.0013004 -5.41165e-06 0.0024702
8.72516 0 0.826982 0.00124324 -5.76795e-06 0.00233182
8.69439 0 0.806211 0.00118056 -5.91182e-06 0.00219343
8.66483 0 0.786263 0.00112134 -6.37775e-06 0.00205257
8.63646 0 0.767108 0.00106741 -7.51785e-06 0.00190835
8.6092 0 0.748712 0.00101067 -7.84912e-06 0.00175502
8.58303 0 0.731046 0.000938225 -7.15519e-06 0.00159826
8.5579 0 0.714081 0.000862664 -7.6648e-06 0.00142891
8.53376 0 0.697789 0.000791808 -8.36226e-06 0.00125593
8.51058 0 0.682144 0.000714246 -9.40695e-06 0.00107695
8.48833 0 0.667119 0.000628603 -1.0346e-05 0.000888568
8.46695 0 0.65269 0.000533797 -1.0946e-05 0.000689704
8.44642 0 0.638834 0.000432116 -1.20475e-05 0.000481265
8.42671 0 0.625528 0.000326422 -1.2916e-05 0.000265684
8.40778 0 0.612749 0.000222059 -1.2784e-05 4.94568e-05
8.38959 0 0.600478 0.000128054 -1.15624e-05 -0.000161199
8.37214 0 0.588693 5.84345e-05 -4.97587e-06 -0.000360354
8.97926 0 1.07246 0.0016438 5.08417e-06 0.00321585
8.9384 0 1.04284 0.00166356 -1.49648e-05 0.00303692
8.89917 0 1.0144 0.00159684 8.87647e-07 0.00301917
8.8615 0 0.987085 0.00155418 -8.62642e-06 0.00288682
8.82531 0 0.960854 0.0014902 -3.18847e-06 0.00279484
8.79057 0 0.935663 0.00143735 -6.11232e-06 0.00266955
8.75721 0 0.911471 0.00137615 -4.36106e-06 0.00255596
8.72516 0 0.88824 0.00132124 -5.18097e-06 0.00243282
8.69439 0 0.86593 0.00126367 -5.22457e-06 0.00230829
8.66483 0 0.844505 0.00120743 -5.26365e-06 0.00217895
8.63646 0 0.823931 0.00114802 -5.70626e-06 0.00204995
8.6092 0 0.804172 0.00109178 -6.86744e-06 0.00191654
8.58303 0 0.785198 0.00104676 -7.70856e-06 0.00177896
8.5579 0 0.766976 0.000993052 -7.75068e-06 0.00162882
8.53376 0 0.749477 0.000917876 -7.34877e-06 0.0014745
8.51058 0 0.732673 0.000850224 -7.68452e-06 0.00130517
8.48833 0 0.716535 0.000781205 -8.689e-06 0.00113263
8.46695 0 0.701038 0.000705102 -9.7943e-06 0.000953472
8.44642 0 0.686155 0.000620364 -1.0648e-05 0.000763729
8.42671 0 0.671863 0.00052717 -1.14285e-05 0.00056165
8.40778 0 0.658138 0.000427009 -1.30656e-05 0.000349923
8.38959 0 0.644957 0.000325105 -1.32437e-05 0.000132991
8.37214 0 0.6323 0.000228158 -1.20518e-05 -8.18964e-05
8.97926 0 1.14643 0.00168771 6.09918e-06 0.00304258
8.9384 0 1.11476 0.00171852 -1.534e-05 0.00290536
8.89917 0 1.08436 0.00165703 2.261e-06 0.00293426
8.8615 0 1.05516 0.00161746 -7.93401e-06 0.00283511
8.82531 0 1.02712 0.00155778 -1.34282e-06 0.0027729
8.79057 0 1.00019 0.00150609 -4.57651e-06 0.00267422
8.75721 0 0.974331 0.00144718 -2.46917e-06 0.00258353
8.72516 0 0.949498 0.00139383 -3.11123e-06 0.00247883
8.69439 0 0.925649 0.0013378 -3.17514e-06 0.00237445
8.66483 0 0.902747 0.00128505 -3.47385e-06 0.00226433
8.63646 0 0.880753 0.00123306 -3.74263e-06 0.00214816
8.6092 0 0.859632 0.00118157 -4.15736e-06 0.00202726
8.58303 0 0.839349 0.0011325 -5.16258e-06 0.00190436
8.5579 0 0.819871 0.00108117 -6.02365e-06 0.0017825
8.53376 0 0.801165 0.00104078 -6.73153e-06 0.00164893
8.51058 0 0.783202 0.000987583 -6.67697e-06 0.00150392
8.48833 0 0.765951 0.000910614 -6.47491e-06 0.00134978
8.46695 0 0.749385 0.000845456 -7.12197e-06 0.00118211
8.44642 0 0.733476 0.00077837 -8.34529e-06 0.00101268
8.42671 0 0.718198 0.000705217 -9.71634e-06 0.000831825
8.40778 0 0.703526 0.0006202 -1.06598e-05 0.000639598
8.38959 0 0.689437 0.000527249 -1.25555e-05 0.000435604
8.37214 0 0.675907 0.000429661 -1.35216e-05 0.00022345
8.97926 0 1.22039 0.00170707 6.82476e-06 0.00276433
8.9384 0 1.18669 0.00173694 -1.83858e-05 0.00268614
8.89917 0 1.15432 0.00168057 9.70851e-08 0.00276243
8.8615 0 1.12324 0.00164426 -1.1959e-05 0.00271154
8.82531 0 1.09339 0.00158571 -5.82092e-06 0.00268954
8.79057 0 1.06472 0.00153254 -9.38359e-06 0.00263068
8.75721 0 1.03719 0.0014745 -6.96809e-06 0.00257198
8.72516 0 1.01076 0.00141994 -7.86802e-06 0.00249415
8.69439 0 0.985369 0.00136634 -7.07764e-06 0.00241253
8.66483 0 0.960988 0.00131781 -7.20855e-06 0.0023211
8.63646 0 0.937576 0.00127148 -6.59818e-06 0.00222616
8.6092 0 0.915092 0.00122599 -6.01132e-06 0.00212588
8.58303 0 0.893501 0.00117984 -5.67903e-06 0.00201933
8.5579 0 0.872766 0.00113276 -5.88253e-06 0.00190777
8.53376 0 0.852853 0.00109119 -6.93149e-06 0.00178824
8.51058 0 0.833731 0.00105189 -8.08054e-06 0.00166702
8.48833 0 0.815368 0.00101871 -7.89906e-06 0.00153133
8.46695 0 0.797732 0.000962706 -6.53632e-06 0.00138755
8.44642 0 0.780797 0.000890651 -6.87417e-06 0.00123337
8.42671 0 0.764534 0.000836157 -7.43419e-06 0.00106364
8.40778 0 0.748915 0.000770897 -8.6613e-06 0.000893247
8.38959 0 0.733917 0.000700454 -9.55162e-06 0.000711399
8.37214 0 0.719513 0.000620571 -1.07528e-05 0.000517404
8.97926 0 1.29435 0.00169283 1.0512e-05 0.00238831
8.9384 0 1.25861 0.00176066 -1.51315e-05 0.00235449
8.89917 0 1.22428 0.00174032 7.37088e-06 0.00246421
8.8615 0 1.19131 0.00172892 -3.32405e-06 0.00245695
8.82531 0 1.15965 0.00169729 3.21799e-06 0.00247757
8.79057 0 1.12925 0.00165808 8.72425e-08 0.0024606
8.75721 0 1.10005 0.00161189 1.85613e-06 0.00243885
8.72516 0 1.07202 0.00156116 5.76895e-07 0.00239634
8.69439 0 1.04509 0.00150802 5.10327e-07 0.0023452
8.66483 0 1.01923 0.00145514 -1.97431e-07 0.00228226
8.63646 0 0.994399 0.00140263 -9.02611e-07 0.00221334
8.6092 0 0.970553 0.00135257 -1.38629e-06 0.00213739
8.58303 0 0.947652 0.00130485 -2.64378e-06 0.00205497
8.5579 0 0.925661 0.00125952 -3.52761e-06 0.00196329
8.53376 0 0.904541 0.00121701 -4.23268e-06 0.00186522
8.51058 0 0.88426 0.00117065 -5.20384e-06 0.00176196
8.48833 0 0.864784 0.00112096 -6.16923e-06 0.00165576
8.46695 0 0.84608 0.00106495 -7.61977e-06 0.00154328
8.44642 0 0.828118 0.00102519 -7.39906e-06 0.0014127
8.42671 0 0.810869 0.000964212 -7.20295e-06 0.0012728
8.40778 0 0.794304 0.000891172 -7.71643e-06 0.00111887
8.38959 0 0.778397 0.000831154 -8.91068e-06 0.000960005
8.37214 0 0.76312 0.000765629 -1.0363e-05 0.000790002
8.97926 0 1.36832 0.00168317 5.76683e-06 0.00201447
8.9384 0 1.33053 0.0017075 -2.76641e-05 0.00207625
8.89917 0 1.29423 0.00163897 -7.33852e-06 0.00222233
8.8615 0 1.25938 0.00160591 -1.84295e-05 0.00228738
8.82531 0 1.22592 0.00155909 -1.33428e-05 0.00234606
8.79057 0 1.19378 0.00151553 -1.54225e-05 0.00237367
8.75721 0 1.16291 0.00147218 -1.40374e-05 0.00238332
8.72516 0 1.13327 0.00142955 -1.37064e-05 0.00237075
8.69439 0 1.10481 0.00138751 -1.22759e-05 0.00234325
8.66484 0 1.07747 0.00134691 -1.1061e-05 0.00230062
8.63646 0 1.05122 0.00130884 -9.88905e-06 0.00224869
8.6092 0 1.02601 0.00127455 -8.75288e-06 0.00218737
8.58303 0 1.0018 0.001244 -7.19194e-06 0.00211908
8.5579 0 0.978555 0.0012152 -5.87254e-06 0.00204134
8.53376 0 0.956229 0.00118538 -4.66761e-06 0.00195524
8.51058 0 0.934789 0.00115027 -3.89014e-06 0.00186057
8.48833 0 0.9142 0.00111293 -3.90181e-06 0.00175752
8.46695 0 0.894427 0.00108509 -4.69182e-06 0.00164786
8.44642 0 0.875439 0.00106501 -4.69714e-06 0.00153418
8.42671 0 0.857205 0.00104025 -5.01118e-06 0.00141838
8.40778 0 0.839693 0.00100318 -3.73656e-06 0.00128759
8.38959 0 0.822877 0.000945432 -2.99001e-06 0.00115072
8.37214 0 0.806727 0.000899743 -2.99525e-06 0.000999357
8.97926 0 1.44228 0.0016917 2.85552e-05 0.00140478
8.9384 0 1.40245 0.0018171 1.99725e-06 0.00151499
8.89917 0 1.36419 0.00188801 1.66706e-05 0.00168328
8.8615 0 1.32746 0.00192031 1.38122e-05 0.00183925
8.82531 0 1.29218 0.00192439 1.53582e-05 0.00196618
8.79057 0 1.2583 0.00190031 1.33095e-05 0.00205943
8.75721 0 1.22577 0.00185948 1.16598e-05 0.00212504
8.72516 0 1.19453 0.00180581 9.40669e-06 0.0021611
8.69439 0 1.16453 0.00174487 7.60929e-06 0.00217564
8.66483 0 1.13571 0.00167993 5.33635e-06 0.00216941
8.63646 0 1.10804 0.00161549 3.38525e-06 0.00214881
8.6092 0 1.08147 0.00155345 1.56664e-06 0.00211289
8.58303 0 1.05595 0.00149487 -7.54352e-08 0.00206628
8.5579 0 1.03145 0.00143812 -1.66792e-06 0.00200859
8.53376 0 1.00792 0.00138289 -3.57582e-06 0.0019428
8.51058 0 0.985317 0.00132971 -4.70367e-06 0.00187014
8.48833 0 0.963616 0.00128129 -6.88919e-06 0.0017908
8.46695 0 0.942775 0.00123191 -8.16707e-06 0.00170499
8.44642 0 0.92276 0.00117174 -1.00663e-05 0.00161426
8.42671 0 0.90354 0.00111402 -1.23206e-05 0.001518
8.40778 0 0.885082 0.00105361 -1.38895e-05 0.0014206
8.38959 0 0.867357 0.00100004 -1.59689e-05 0.00131004
8.37214 0 0.850334 0.000945873 -1.70076e-05 0.00119727
7.66922 0 0.966948 0.000246079 -7.90679e-06 -4.35716e-05
7.67296 0 0.988324 0.000226269 -7.15486e-06 -1.11666e-05
7.67685 0 1.01058 0.000204211 -7.15347e-06 1.85305e-05
7.68091 0 1.03376 0.000179991 -6.21458e-06 2.78969e-05
7.68513 0 1.0579 0.000138187 -5.17935e-06 3.23497e-06
7.68953 0 1.08303 4.01916e-05 -5.72137e-06 -5.94321e-05
7.69411 0 1.1092 -0.000112838 -6.89236e-06 -0.000139364
7.69888 0 1.13646 -0.000330411 -9.31949e-06 -0.000238866
7.70385 0 1.16483 -0.000609109 -1.25125e-05 -0.000342924
7.70902 0 1.19439 -0.000949554 -1.59894e-05 -0.000446397
7.7144 0 1.22516 -0.00136937 -1.85798e-05 -0.00054719
7.72001 0 1.25721 -0.00186932 -2.06944e-05 -0.000642488
7.72585 0 1.29057 -0.00243002 -2.26567e-05 -0.000731599
7.73193 0 1.32531 -0.00302077 -2.36569e-05 -0.000811727
7.70425 0 0.907776 0.000415173 -6.1609e-06 -0.000134903
7.70851 0 0.926707 0.000406843 -6.93545e-06 -8.76779e-05
7.71295 0 0.946421 0.000404825 -7.59682e-06 -3.86928e-05
7.71757 0 0.966948 0.000401888 -7.38296e-06 8.00359e-06
7.72238 0 0.988324 0.000395268 -6.76409e-06 4.68198e-05
7.72738 0 1.01058 0.000381943 -5.78012e-06 7.41133e-05
7.7326 0 1.03376 0.000359368 -6.04263e-06 9.21533e-05
7.73803 0 1.0579 0.000335087 -6.3867e-06 0.000108823
7.74368 0 1.08303 0.00030533 -5.48527e-06 0.000115641
7.74957 0 1.1092 0.000255739 -5.11977e-06 8.65006e-05
7.7557 0 1.13646 0.000157801 -5.22285e-06 2.00112e-05
7.76209 0 1.16484 -1.88832e-05 -8.93964e-06 -6.37707e-05
7.76874 0 1.19439 -0.000273969 -1.02461e-05 -0.000161657
7.77566 0 1.22516 -0.000604 -1.37692e-05 -0.000265838
7.78287 0 1.25721 -0.00101589 -1.82568e-05 -0.000359546
7.79038 0 1.29057 -0.00152053 -1.95377e-05 -0.000459859
7.7982 0 1.32531 -0.00209068 -2.20816e-05 -0.000551305
7.73984 0 0.872138 0.000597481 -4.33303e-06 -0.000214328
7.74464 0 0.889597 0.000534168 -5.45681e-06 -0.000170203
7.74964 0 0.907777 0.000518433 -6.52661e-06 -0.000113294
7.75484 0 0.926707 0.000520945 -8.19731e-06 -5.09985e-05
7.76026 0 0.94642 0.000527391 -7.94454e-06 1.20639e-05
7.76591 0 0.966948 0.000532049 -6.93737e-06 6.82612e-05
7.77179 0 0.988324 0.000533191 -5.40164e-06 0.000113549
7.77791 0 1.01058 0.000531954 -5.01323e-06 0.000146954
7.78428 0 1.03376 0.000527825 -5.40351e-06 0.000172874
7.79092 0 1.0579 0.000516901 -4.97869e-06 0.000182117
7.79783 0 1.08303 0.000492527 -4.6018e-06 0.000175049
7.80503 0 1.1092 0.00045792 -5.07068e-06 0.000169663
7.81252 0 1.13646 0.000416232 -5.21779e-06 0.000163901
7.82033 0 1.16483 0.000356682 -4.23603e-06 0.000130995
7.82845 0 1.19439 0.00024204 -6.65079e-06 7.03651e-05
7.83692 0 1.22516 2.64934e-05 -1.03862e-05 -1.06049e-05
7.84573 0 1.25721 -0.00028837 -1.28706e-05 -0.000103504
7.85491 0 1.29057 -0.000692585 -1.51997e-05 -0.000206309
7.86446 0 1.32531 -0.00120256 -2.07555e-05 -0.000289825
7.87441 0 1.3615 -0.00178943 -2.08006e-05 -0.000375444
7.778 0 0.855372 0.000775145 -1.75525e-06 -0.000243923
7.78345 0 0.872138 0.000660134 -4.3496e-06 -0.000214913
7.78912 0 0.889597 0.000620419 -6.40176e-06 -0.00015788
7.79503 0 0.907776 0.000617323 -8.26604e-06 -8.60137e-05
7.80118 0 0.926708 0.000626256 -8.81159e-06 -7.94422e-06
7.80759 0 0.94642 0.000636626 -7.87075e-06 6.69409e-05
7.81425 0 0.966948 0.000644947 -5.97729e-06 0.000132442
7.82121 0 0.988324 0.00065332 -5.55726e-06 0.000187918
7.82844 0 1.01058 0.000659854 -5.32308e-06 0.000232427
7.83597 0 1.03376 0.000662021 -5.0806e-06 0.000256782
7.84382 0 1.0579 0.000655182 -3.72929e-06 0.000261754
7.85199 0 1.08303 0.000646319 -3.08055e-06 0.000257467
7.86049 0 1.1092 0.000629891 -2.72114e-06 0.000246009
7.86935 0 1.13646 0.000602493 -2.96966e-06 0.000227095
7.87857 0 1.16484 0.000559871 -3.96207e-06 0.00020906
7.88818 0 1.19439 0.000508332 -5.49274e-06 0.000192738
7.89818 0 1.22516 0.000426595 -5.00746e-06 0.00015646
7.90859 0 1.25721 0.000272733 -8.29943e-06 0.000108417
7.91943 0 1.29057 -1.89498e-06 -1.18606e-05 1.67284e-05
7.93073 0 1.32531 -0.000400054 -1.61862e-05 -6.05856e-05
7.94249 0 1.3615 -0.000924947 -1.65433e-05 -0.00017257
7.81473 0 0.839271 0.000975456 4.8319e-07 -0.000296178
7.82076 0 0.855372 0.00080677 -2.05168e-06 -0.000258401
7.82705 0 0.872138 0.000721169 -5.56292e-06 -0.000215981
7.8336 0 0.889597 0.000699217 -6.83759e-06 -0.000140611
7.84042 0 0.907777 0.000704365 -9.50071e-06 -5.13275e-05
7.84752 0 0.926707 0.000716317 -8.904e-06 4.11805e-05
7.85491 0 0.946421 0.000728381 -7.59716e-06 0.000127384
7.8626 0 0.966948 0.000741623 -6.60599e-06 0.000208114
7.87062 0 0.988324 0.000755425 -6.00782e-06 0.000275227
7.87897 0 1.01058 0.000764097 -5.66368e-06 0.000317639
7.88766 0 1.03376 0.000765996 -3.69348e-06 0.000338779
7.89671 0 1.0579 0.000764251 -2.76432e-06 0.000350615
7.90614 0 1.08303 0.000762006 -2.06005e-06 0.000352681
7.91595 0 1.1092 0.000754743 -1.78701e-06 0.000340651
7.92617 0 1.13646 0.000743174 -1.84825e-06 0.000319973
7.93681 0 1.16483 0.000722652 -1.89068e-06 0.000290725
7.9479 0 1.19439 0.000688135 -2.67841e-06 0.000258789
7.95943 0 1.22516 0.000634787 -4.07946e-06 0.000232664
7.97145 0 1.25721 0.000566743 -5.84308e-06 0.000216758
7.98397 0 1.29057 0.000449022 -5.81578e-06 0.000171095
7.99699 0 1.32531 0.000217994 -1.27167e-05 0.000148145
8.01056 0 1.3615 -0.000176221 -1.25966e-05 2.16562e-05
8.02469 0 1.39917 -0.000652732 -1.92465e-05 -3.42744e-05
7.85669 0 0.839271 0.000980272 7.29337e-07 -0.000326844
7.86353 0 0.855372 0.000833523 -2.79451e-06 -0.000278034
7.87066 0 0.872138 0.000775645 -6.51702e-06 -0.000212258
7.87808 0 0.889596 0.000768677 -9.40785e-06 -0.000116317
7.88581 0 0.907777 0.000779126 -1.0397e-05 -9.38213e-06
7.89385 0 0.926708 0.000792782 -9.27946e-06 9.73837e-05
7.90223 0 0.94642 0.000808698 -7.76249e-06 0.000201311
7.91095 0 0.966948 0.000827143 -7.45539e-06 0.000293366
7.92003 0 0.988324 0.000840992 -6.31241e-06 0.000359774
7.9295 0 1.01058 0.000847572 -4.84199e-06 0.000401112
7.93935 0 1.03376 0.000851541 -3.19849e-06 0.000429395
7.94961 0 1.0579 0.000854491 -2.15512e-06 0.00044893
7.96029 0 1.08303 0.00085562 -1.73415e-06 0.000453633
7.97141 0 1.1092 0.000854476 -1.56592e-06 0.000445725
7.98299 0 1.13646 0.00085016 -1.48565e-06 0.000425992
7.99505 0 1.16484 0.000840338 -1.4121e-06 0.000394853
8.00761 0 1.19439 0.000823304 -1.60743e-06 0.000358141
8.02069 0 1.22516 0.000794643 -1.85402e-06 0.000315348
8.03431 0 1.25721 0.000746597 -3.5292e-06 0.000277498
8.04849 0 1.29057 0.00067496 -3.96008e-06 0.000243237
8.06326 0 1.32531 0.000578885 -9.64931e-06 0.000248983
8.07864 0 1.3615 0.000381985 -3.76454e-06 0.000160391
8.09465 0 1.39917 4.71273e-05 -2.03294e-05 0.00016601
7.89865 0 0.839271 0.000958523 4.30653e-07 -0.000355226
7.9063 0 0.855372 0.000849167 -4.54636e-06 -0.000286912
7.91427 0 0.872138 0.000818308 -6.89229e-06 -0.000192562
7.92256 0 0.889597 0.000823014 -1.08375e-05 -7.50149e-05
7.93119 0 0.907776 0.000837314 -1.02945e-05 4.9205e-05
7.94019 0 0.926708 0.00085488 -9.52326e-06 0.000173807
7.94955 0 0.94642 0.000876408 -8.43718e-06 0.000290849
7.9593 0 0.966948 0.00089485 -7.35884e-06 0.000383814
7.96945 0 0.988324 0.000906965 -5.61063e-06 0.00044629
7.98003 0 1.01058 0.000913878 -3.84253e-06 0.00049554
7.99104 0 1.03376 0.000920915 -2.33155e-06 0.000530879
8.0025 0 1.0579 0.000926589 -1.66967e-06 0.000554687
8.01444 0 1.08303 0.00093156 -1.6445e-06 0.000564722
8.02687 0 1.1092 0.000933787 -1.40188e-06 0.000558178
8.03981 0 1.13646 0.000934554 -1.33254e-06 0.000540083
8.05329 0 1.16483 0.00093252 -1.2646e-06 0.000511187
8.06733 0 1.19439 0.000925902 -1.32682e-06 0.000473489
8.08195 0 1.22516 0.0009112 -1.27203e-06 0.000428213
8.09717 0 1.25721 0.0008861 -1.93235e-06 0.000379741
8.11302 0 1.29057 0.000844107 -1.90903e-06 0.000327757
8.12952 0 1.32531 0.000778845 -6.24684e-06 0.000302699
8.14671 0 1.3615 0.000658657 -1.10812e-06 0.000239397
8.16461 0 1.39917 0.000483142 -1.67413e-05 0.000293412
8.18324 0 1.4384 6.96896e-05 -2.24301e-06 0.00013546
7.94062 0 0.839271 0.00093306 -1.10041e-06 -0.000377908
7.94907 0 0.855372 0.000864025 -6.65407e-06 -0.000281519
7.95787 0 0.872138 0.000855 -1.09167e-05 -0.000157013
7.96704 0 0.889597 0.000867759 -1.19983e-05 -1.83978e-05
7.97658 0 0.907777 0.000886957 -1.1414e-05 0.000124601
7.98652 0 0.926707 0.000911674 -9.93872e-06 0.000265473
7.99687 0 0.946421 0.000935541 -9.03702e-06 0.000384016
8.00765 0 0.966948 0.000951922 -7.73318e-06 0.000472503
8.01887 0 0.988324 0.000964733 -5.27531e-06 0.000538559
8.03055 0 1.01058 0.000973512 -3.48712e-06 0.000593662
8.04273 0 1.03376 0.000982918 -2.36603e-06 0.000638864
8.0554 0 1.0579 0.000992218 -2.18075e-06 0.000666812
8.06859 0 1.08303 0.000999239 -2.07656e-06 0.0006793
8.08233 0 1.1092 0.00100437 -1.78422e-06 0.000675624
8.09664 0 1.13646 0.00100901 -1.70147e-06 0.00066199
8.11154 0 1.16484 0.00101235 -1.55889e-06 0.000636803
8.12705 0 1.19439 0.00101319 -1.51367e-06 0.000601026
8.14321 0 1.22516 0.00100859 -1.41144e-06 0.000555467
8.16003 0 1.25721 0.000996745 -1.74127e-06 0.000502814
8.17755 0 1.29057 0.000973762 -1.58308e-06 0.000443135
8.19579 0 1.32531 0.000934151 -3.02553e-06 0.000384715
8.21479 0 1.3615 0.000863122 -1.72255e-07 0.000311506
8.23457 0 1.39917 0.000781481 -1.30764e-05 0.000320149
8.25516 0 1.4384 0.000569416 2.93302e-06 0.000165285
8.27661 0 1.47926 0.000334995 -3.03145e-05 0.000220451
7.99184 0 0.855371 0.000866569 -8.05164e-06 -0.000234461
8.00148 0 0.872138 0.000876105 -1.2152e-05 -8.10302e-05
8.01152 0 0.889596 0.000896145 -1.15666e-05 7.70741e-05
8.02197 0 0.907777 0.000921078 -1.08373e-05 0.000238518
8.03286 0 0.926708 0.000951789 -9.22874e-06 0.000383487
8.04419 0 0.94642 0.000975005 -7.42368e-06 0.000495885
8.05599 0 0.966948 0.000990386 -6.53488e-06 0.00058136
8.06829 0 0.988324 0.00100512 -3.28447e-06 0.000652209
8.08108 0 1.01058 0.00101703 -1.89465e-06 0.000714025
8.09441 0 1.03376 0.00102993 -1.48096e-06 0.000764081
8.10829 0 1.0579 0.00104135 -1.74735e-06 0.00079213
8.12274 0 1.08303 0.001052 -1.4178e-06 0.000805426
8.13779 0 1.1092 0.00106191 -1.21779e-06 0.000805466
8.15346 0 1.13646 0.00107168 -1.14447e-06 0.00079436
8.16978 0 1.16483 0.00108101 -1.14893e-06 0.000772076
8.18677 0 1.19439 0.00108964 -1.18386e-06 0.000738516
8.20447 0 1.22516 0.00109508 -1.24227e-06 0.000694146
8.22289 0 1.25721 0.00109653 -1.46229e-06 0.000640218
8.24208 0 1.29057 0.0010906 -1.3708e-06 0.000575896
8.26206 0 1.32531 0.00107422 -2.18297e-06 0.0005062
8.28286 0 1.3615 0.00104175 -5.52433e-07 0.000429207
8.30453 0 1.39917 0.000989432 -5.75864e-06 0.000370705
8.32708 0 1.4384 0.000834517 1.13978e-06 0.00028258
8.35057 0 1.47926 0.000700414 -2.89178e-05 0.000350762
8.03461 0 0.855372 0.000874807 -1.40618e-05 -0.000163242
8.04508 0 0.872138 0.000898013 -1.40566e-05 8.50071e-06
8.056 0 0.889597 0.000926737 -1.32264e-05 0.000181489
8.06736 0 0.907776 0.000959208 -1.17292e-05 0.000352242
8.07919 0 0.926707 0.000991835 -1.01451e-05 0.000494349
8.09151 0 0.946421 0.00101554 -7.77614e-06 0.000594882
8.10434 0 0.966948 0.00103066 -7.07285e-06 0.000683089
8.1177 0 0.988324 0.00104863 -4.12756e-06 0.000760186
8.13161 0 1.01058 0.001065 -3.03347e-06 0.000828382
8.1461 0 1.03376 0.00108078 -3.205e-06 0.000882344
8.16118 0 1.0579 0.00109426 -3.04188e-06 0.000914393
8.17689 0 1.08303 0.00110845 -2.61966e-06 0.000931679
8.19325 0 1.1092 0.00112229 -2.47043e-06 0.000937705
8.21028 0 1.13646 0.00113682 -2.34649e-06 0.000932734
8.22802 0 1.16484 0.00115114 -2.26282e-06 0.00091654
8.24649 0 1.19439 0.00116618 -2.10786e-06 0.000888951
8.26572 0 1.22516 0.0011796 -2.11162e-06 0.000850207
8.28575 0 1.25721 0.00119099 -2.1467e-06 0.000800821
8.30661 0 1.29057 0.00119705 -1.95796e-06 0.000740957
8.32832 0 1.32531 0.00119599 -2.13492e-06 0.000674216
8.35093 0 1.3615 0.00118259 -8.92661e-07 0.000599418
8.37448 0 1.39917 0.0011473 -8.62284e-07 0.000524745
8.399 0 1.4384 0.00106024 7.44425e-07 0.000469136
8.42454 0 1.47926 0.000954508 -1.26017e-05 0.00041151
8.07738 0 0.855372 0.000872456 -1.25847e-05 -1.40058e-05
8.08869 0 0.872138 0.000906235 -1.1347e-05 0.00017289
8.10048 0 0.889597 0.000942261 -9.01754e-06 0.000354247
8.11275 0 0.907777 0.000980104 -9.34524e-06 0.000518348
8.12553 0 0.926708 0.00100889 -7.14253e-06 0.000649363
8.13883 0 0.94642 0.00103204 -3.93591e-06 0.000743178
8.15269 0 0.966948 0.00104902 -3.18947e-06 0.000831268
8.16712 0 0.988324 0.00106996 -1.00698e-06 0.000915455
8.18214 0 1.01058 0.00108964 -1.03785e-06 0.000983982
8.19779 0 1.03376 0.00110747 -1.06968e-06 0.00103442
8.21408 0 1.0579 0.0011242 -9.13603e-07 0.00106585
8.23104 0 1.08303 0.00114253 -6.19844e-07 0.00108678
8.24871 0 1.1092 0.00116114 -4.70719e-07 0.00109548
8.26711 0 1.13646 0.00118129 -4.57821e-07 0.00109328
8.28626 0 1.16483 0.00120129 -5.6543e-07 0.00107997
8.30621 0 1.19439 0.00122226 -6.71871e-07 0.00105583
8.32698 0 1.22516 0.00124194 -1.03457e-06 0.00102065
8.34861 0 1.25721 0.00126015 -1.24761e-06 0.000974981
8.37113 0 1.29057 0.00127352 -1.42479e-06 0.000918578
8.39459 0 1.32531 0.00127986 -1.56674e-06 0.000853895
8.41901 0 1.3615 0.00127355 -9.08365e-07 0.000778999
8.44444 0 1.39917 0.0012484 -1.28421e-08 0.000697864
8.47093 0 1.4384 0.00118835 1.08916e-06 0.000631439
8.4985 0 1.47926 0.00108077 1.29143e-06 0.000488908
8.12014 0 0.855372 0.000885463 -1.62209e-05 0.000112514
8.1323 0 0.872138 0.000929262 -1.3646e-05 0.000301662
8.14496 0 0.889596 0.000974184 -1.28287e-05 0.000482178
8.15814 0 0.907777 0.00101371 -1.14383e-05 0.00063117
8.17186 0 0.926708 0.00104092 -9.68045e-06 0.000743744
8.18616 0 0.94642 0.00106283 -7.45542e-06 0.00084013
8.20104 0 0.966948 0.00108769 -5.11985e-06 0.000935324
8.21654 0 0.988324 0.00111141 -4.15948e-06 0.00102299
8.23267 0 1.01058 0.00113288 -4.65106e-06 0.00109064
8.24948 0 1.03376 0.00115239 -4.52678e-06 0.00114435