# Force coefficients
# liftDir     : (0.000000e+00 0.000000e+00 1.000000e+00)
# dragDir     : (1.000000e+00 0.000000e+00 0.000000e+00)
# pitchAxis   : (0.000000e+00 1.000000e+00 0.000000e+00)
# magUInf     : 1.000000e+00
# lRef        : 1.000000e+00
# Aref        : 1.000000e+00
# CofR        : (2.500000e+00 0.000000e+00 0.000000e+00)
#
# Time        	Cm            	Cd            	Cl            	Cl(f)         	Cl(r)         
1             	-2.703577e-04	8.494175e-01	-2.153529e-02	-1.103800e-02	-1.049729e-02
2             	-5.322311e-04	1.403163e+00	-9.395498e-03	-5.229980e-03	-4.165518e-03
3             	-6.561324e-04	1.931364e+00	3.725047e-02	1.796910e-02	1.928137e-02
4             	-5.343036e-05	2.131571e+00	1.033332e-01	5.161317e-02	5.172003e-02
5             	9.906684e-04	2.040379e+00	1.765512e-01	8.926626e-02	8.728493e-02
6             	1.916144e-03	1.793983e+00	2.481204e-01	1.259764e-01	1.221441e-01
7             	2.588247e-03	1.521783e+00	3.142558e-01	1.597161e-01	1.545396e-01
8             	3.563783e-03	1.317984e+00	3.743710e-01	1.907493e-01	1.836217e-01
9             	4.869338e-03	1.213586e+00	4.294827e-01	2.196107e-01	2.098720e-01
10            	6.610162e-03	1.192868e+00	4.824516e-01	2.478360e-01	2.346156e-01
11            	8.515311e-03	1.220051e+00	5.369324e-01	2.769815e-01	2.599509e-01
12            	1.073837e-02	1.263066e+00	5.936563e-01	3.075665e-01	2.860898e-01
13            	1.340548e-02	1.297438e+00	6.517019e-01	3.392564e-01	3.124455e-01
14            	1.658098e-02	1.310556e+00	7.092375e-01	3.711998e-01	3.380378e-01
15            	2.001612e-02	1.303580e+00	7.645602e-01	4.022962e-01	3.622640e-01
16            	2.358909e-02	1.283335e+00	8.178311e-01	4.325046e-01	3.853264e-01
17            	2.693232e-02	1.256388e+00	8.672768e-01	4.605707e-01	4.067061e-01
18            	3.016383e-02	1.229853e+00	9.124994e-01	4.864135e-01	4.260859e-01
19            	3.325813e-02	1.210956e+00	9.531832e-01	5.098497e-01	4.433334e-01
20            	3.614718e-02	1.202645e+00	9.905986e-01	5.314465e-01	4.591521e-01
21            	3.849505e-02	1.203567e+00	1.026101e+00	5.515453e-01	4.745552e-01
22            	4.006275e-02	1.211133e+00	1.061205e+00	5.706653e-01	4.905398e-01
23            	4.079407e-02	1.221870e+00	1.095201e+00	5.883944e-01	5.068063e-01
24            	4.040339e-02	1.232898e+00	1.125782e+00	6.032943e-01	5.224875e-01
25            	3.847261e-02	1.243224e+00	1.151968e+00	6.144565e-01	5.375113e-01
26            	3.459750e-02	1.253036e+00	1.173374e+00	6.212844e-01	5.520894e-01
27            	2.875514e-02	1.263469e+00	1.190186e+00	6.238481e-01	5.663378e-01
28            	2.109814e-02	1.275100e+00	1.201836e+00	6.220162e-01	5.798199e-01
29            	1.177330e-02	1.288355e+00	1.207912e+00	6.157293e-01	5.921827e-01
30            	1.077373e-03	1.303271e+00	1.208855e+00	6.055051e-01	6.033504e-01
31            	-1.067193e-02	1.320055e+00	1.204934e+00	5.917949e-01	6.131387e-01
32            	-2.309933e-02	1.338328e+00	1.196905e+00	5.753531e-01	6.215518e-01
33            	-3.581756e-02	1.358170e+00	1.186462e+00	5.574137e-01	6.290488e-01
34            	-4.837328e-02	1.379688e+00	1.174700e+00	5.389769e-01	6.357235e-01
35            	-6.035253e-02	1.402136e+00	1.162222e+00	5.207587e-01	6.414638e-01
36            	-7.150060e-02	1.424448e+00	1.148943e+00	5.029709e-01	6.459721e-01
37            	-8.155298e-02	1.445716e+00	1.135022e+00	4.859580e-01	6.490639e-01
38            	-9.030688e-02	1.465879e+00	1.121103e+00	4.702447e-01	6.508585e-01
39            	-9.774870e-02	1.484148e+00	1.108593e+00	4.565480e-01	6.520454e-01
40            	-1.039792e-01	1.499400e+00	1.098345e+00	4.451934e-01	6.531518e-01
41            	-1.090595e-01	1.510939e+00	1.090314e+00	4.360977e-01	6.542166e-01
42            	-1.131273e-01	1.519389e+00	1.083798e+00	4.287717e-01	6.550263e-01
43            	-1.163837e-01	1.525650e+00	1.078506e+00	4.228692e-01	6.556366e-01
44            	-1.192072e-01	1.530268e+00	1.073706e+00	4.176458e-01	6.560601e-01
45            	-1.218741e-01	1.534183e+00	1.068369e+00	4.123102e-01	6.560584e-01
46            	-1.245300e-01	1.538273e+00	1.062331e+00	4.066356e-01	6.556956e-01
47            	-1.272388e-01	1.543521e+00	1.055389e+00	4.004554e-01	6.549331e-01
48            	-1.300650e-01	1.549886e+00	1.047168e+00	3.935189e-01	6.536488e-01
49            	-1.330540e-01	1.557238e+00	1.037094e+00	3.854932e-01	6.516011e-01
50            	-1.360939e-01	1.565314e+00	1.024596e+00	3.762040e-01	6.483917e-01
51            	-1.389855e-01	1.573711e+00	1.009052e+00	3.655406e-01	6.435115e-01
52            	-1.414631e-01	1.582065e+00	9.898487e-01	3.534612e-01	6.363874e-01
53            	-1.433086e-01	1.590205e+00	9.667468e-01	3.400648e-01	6.266820e-01
54            	-1.443251e-01	1.598231e+00	9.398665e-01	3.256081e-01	6.142584e-01
55            	-1.443632e-01	1.606181e+00	9.103198e-01	3.107967e-01	5.995231e-01
56            	-1.434282e-01	1.614078e+00	8.793322e-01	2.962379e-01	5.830943e-01
57            	-1.416699e-01	1.621933e+00	8.475279e-01	2.820940e-01	5.654338e-01
58            	-1.393370e-01	1.629726e+00	8.156929e-01	2.685095e-01	5.471834e-01
59            	-1.366202e-01	1.637497e+00	7.848466e-01	2.558030e-01	5.290435e-01
60            	-1.337138e-01	1.645241e+00	7.558346e-01	2.442035e-01	5.116311e-01
61            	-1.308635e-01	1.652729e+00	7.294225e-01	2.338477e-01	4.955748e-01
62            	-1.281991e-01	1.659645e+00	7.057604e-01	2.246811e-01	4.810793e-01
63            	-1.257212e-01	1.665759e+00	6.849903e-01	2.167740e-01	4.682163e-01
64            	-1.234197e-01	1.671221e+00	6.672474e-01	2.102040e-01	4.570434e-01
65            	-1.212805e-01	1.676024e+00	6.523103e-01	2.048746e-01	4.474357e-01
66            	-1.193028e-01	1.680213e+00	6.397479e-01	2.005711e-01	4.391768e-01
67            	-1.175132e-01	1.683807e+00	6.291661e-01	1.970698e-01	4.320963e-01
68            	-1.159459e-01	1.686912e+00	6.201886e-01	1.941484e-01	4.260402e-01
69            	-1.145557e-01	1.689433e+00	6.125919e-01	1.917402e-01	4.208517e-01
70            	-1.133321e-01	1.691396e+00	6.061093e-01	1.897225e-01	4.163867e-01
71            	-1.122483e-01	1.692855e+00	6.003782e-01	1.879409e-01	4.124374e-01
72            	-1.112695e-01	1.693569e+00	5.952172e-01	1.863391e-01	4.088781e-01
73            	-1.104323e-01	1.693505e+00	5.904418e-01	1.847886e-01	4.056532e-01
74            	-1.097512e-01	1.692421e+00	5.859816e-01	1.832396e-01	4.027421e-01
75            	-1.091444e-01	1.689617e+00	5.818857e-01	1.817985e-01	4.000872e-01
76            	-1.085402e-01	1.684958e+00	5.782982e-01	1.806089e-01	3.976894e-01
77            	-1.079585e-01	1.678815e+00	5.754037e-01	1.797434e-01	3.956604e-01
78            	-1.074598e-01	1.671791e+00	5.732889e-01	1.791847e-01	3.941042e-01
79            	-1.071370e-01	1.664433e+00	5.717428e-01	1.787344e-01	3.930084e-01
80            	-1.070457e-01	1.657187e+00	5.701521e-01	1.780303e-01	3.921218e-01
81            	-1.071562e-01	1.650388e+00	5.680421e-01	1.768648e-01	3.911773e-01
82            	-1.074287e-01	1.644056e+00	5.653870e-01	1.752648e-01	3.901222e-01
83            	-1.077564e-01	1.638011e+00	5.624432e-01	1.734652e-01	3.889780e-01
84            	-1.080346e-01	1.632010e+00	5.594347e-01	1.716827e-01	3.877520e-01
85            	-1.081953e-01	1.625762e+00	5.566355e-01	1.701225e-01	3.865130e-01
86            	-1.081908e-01	1.619017e+00	5.543196e-01	1.689690e-01	3.853506e-01
87            	-1.080109e-01	1.611854e+00	5.525682e-01	1.682732e-01	3.842950e-01
88            	-1.076677e-01	1.604360e+00	5.514954e-01	1.680800e-01	3.834154e-01
89            	-1.072018e-01	1.596615e+00	5.511932e-01	1.683948e-01	3.827984e-01
90            	-1.066518e-01	1.588686e+00	5.514959e-01	1.690961e-01	3.823998e-01
91            	-1.060506e-01	1.580635e+00	5.523453e-01	1.701221e-01	3.822232e-01
92            	-1.054110e-01	1.572474e+00	5.537005e-01	1.714392e-01	3.822613e-01
93            	-1.047527e-01	1.564263e+00	5.554687e-01	1.729817e-01	3.824870e-01
94            	-1.041025e-01	1.556112e+00	5.575936e-01	1.746943e-01	3.828993e-01
95            	-1.034924e-01	1.548165e+00	5.599869e-01	1.765011e-01	3.834858e-01
96            	-1.029310e-01	1.540598e+00	5.625345e-01	1.783363e-01	3.841982e-01
97            	-1.024304e-01	1.533551e+00	5.650679e-01	1.801036e-01	3.849643e-01
98            	-1.019968e-01	1.527064e+00	5.674935e-01	1.817500e-01	3.857435e-01
99            	-1.016309e-01	1.521122e+00	5.697336e-01	1.832359e-01	3.864977e-01
100           	-1.013341e-01	1.515679e+00	5.717125e-01	1.845222e-01	3.871903e-01
101           	-1.011005e-01	1.510739e+00	5.733998e-01	1.855994e-01	3.878004e-01
102           	-1.009218e-01	1.506284e+00	5.748001e-01	1.864782e-01	3.883219e-01
103           	-1.007874e-01	1.502280e+00	5.759142e-01	1.871697e-01	3.887445e-01
104           	-1.006890e-01	1.498686e+00	5.767162e-01	1.876691e-01	3.890470e-01
105           	-1.006183e-01	1.495442e+00	5.772168e-01	1.879901e-01	3.892268e-01
106           	-1.005728e-01	1.492484e+00	5.774457e-01	1.881500e-01	3.892957e-01
107           	-1.005507e-01	1.489749e+00	5.774271e-01	1.881629e-01	3.892643e-01
108           	-1.005531e-01	1.487204e+00	5.771781e-01	1.880359e-01	3.891421e-01
109           	-1.005815e-01	1.484785e+00	5.766992e-01	1.877681e-01	3.889311e-01
110           	-1.006397e-01	1.482464e+00	5.759920e-01	1.873563e-01	3.886357e-01
111           	-1.007304e-01	1.480221e+00	5.750895e-01	1.868143e-01	3.882752e-01
112           	-1.008520e-01	1.478061e+00	5.740631e-01	1.861795e-01	3.878836e-01
113           	-1.010024e-01	1.476014e+00	5.729566e-01	1.854759e-01	3.874806e-01
114           	-1.011829e-01	1.474085e+00	5.717522e-01	1.846932e-01	3.870590e-01
115           	-1.013930e-01	1.472235e+00	5.704273e-01	1.838206e-01	3.866067e-01
116           	-1.016277e-01	1.470420e+00	5.689656e-01	1.828551e-01	3.861105e-01
117           	-1.018885e-01	1.468601e+00	5.673523e-01	1.817877e-01	3.855646e-01
118           	-1.021743e-01	1.466783e+00	5.655918e-01	1.806215e-01	3.849702e-01
119           	-1.024737e-01	1.464956e+00	5.636858e-01	1.793692e-01	3.843166e-01
120           	-1.027839e-01	1.463111e+00	5.616196e-01	1.780259e-01	3.835937e-01
121           	-1.031024e-01	1.461212e+00	5.594111e-01	1.766032e-01	3.828079e-01
122           	-1.034262e-01	1.459259e+00	5.571228e-01	1.751352e-01	3.819876e-01
123           	-1.037574e-01	1.457258e+00	5.548041e-01	1.736447e-01	3.811594e-01
124           	-1.040954e-01	1.455209e+00	5.524775e-01	1.721434e-01	3.803342e-01
125           	-1.044311e-01	1.453125e+00	5.501282e-01	1.706330e-01	3.794952e-01
126           	-1.047517e-01	1.451029e+00	5.477381e-01	1.691173e-01	3.786208e-01
127           	-1.050539e-01	1.448965e+00	5.453450e-01	1.676187e-01	3.777264e-01
128           	-1.053371e-01	1.447000e+00	5.429727e-01	1.661492e-01	3.768235e-01
129           	-1.056026e-01	1.445132e+00	5.406368e-01	1.647158e-01	3.759210e-01
130           	-1.058566e-01	1.443331e+00	5.383741e-01	1.633305e-01	3.750436e-01
131           	-1.061077e-01	1.441586e+00	5.362012e-01	1.619929e-01	3.742083e-01
132           	-1.063552e-01	1.439876e+00	5.340905e-01	1.606901e-01	3.734004e-01
133           	-1.066001e-01	1.438189e+00	5.320583e-01	1.594290e-01	3.726293e-01
134           	-1.068426e-01	1.436526e+00	5.300952e-01	1.582050e-01	3.718902e-01
135           	-1.070755e-01	1.434876e+00	5.281670e-01	1.570080e-01	3.711590e-01
136           	-1.072945e-01	1.433282e+00	5.262507e-01	1.558309e-01	3.704198e-01
137           	-1.075058e-01	1.431766e+00	5.243305e-01	1.546595e-01	3.696710e-01
138           	-1.077141e-01	1.430335e+00	5.223964e-01	1.534841e-01	3.689123e-01
139           	-1.079193e-01	1.429001e+00	5.204406e-01	1.523010e-01	3.681396e-01
140           	-1.081194e-01	1.427769e+00	5.184451e-01	1.511032e-01	3.673420e-01
141           	-1.083086e-01	1.426641e+00	5.164142e-01	1.498986e-01	3.665157e-01
142           	-1.084824e-01	1.425585e+00	5.143409e-01	1.486880e-01	3.656529e-01
143           	-1.086411e-01	1.424677e+00	5.121914e-01	1.474546e-01	3.647369e-01
144           	-1.087849e-01	1.423930e+00	5.099551e-01	1.461927e-01	3.637624e-01
145           	-1.089128e-01	1.423304e+00	5.076565e-01	1.449155e-01	3.627410e-01
146           	-1.090291e-01	1.422891e+00	5.053089e-01	1.436254e-01	3.616835e-01
147           	-1.091389e-01	1.422628e+00	5.029042e-01	1.423131e-01	3.605910e-01
148           	-1.092451e-01	1.422497e+00	5.004545e-01	1.409822e-01	3.594723e-01
149           	-1.093496e-01	1.422529e+00	4.979788e-01	1.396398e-01	3.583390e-01
150           	-1.094610e-01	1.422753e+00	4.954842e-01	1.382811e-01	3.572031e-01
151           	-1.095823e-01	1.423143e+00	4.929696e-01	1.369025e-01	3.560671e-01
152           	-1.097186e-01	1.423722e+00	4.904348e-01	1.354988e-01	3.549360e-01
153           	-1.098761e-01	1.424479e+00	4.878603e-01	1.340540e-01	3.538062e-01
154           	-1.100622e-01	1.425435e+00	4.852319e-01	1.325537e-01	3.526782e-01
155           	-1.102811e-01	1.426633e+00	4.825565e-01	1.309971e-01	3.515594e-01
156           	-1.105369e-01	1.428084e+00	4.798138e-01	1.293700e-01	3.504438e-01
157           	-1.108299e-01	1.429763e+00	4.770370e-01	1.276887e-01	3.493484e-01
158           	-1.111583e-01	1.431672e+00	4.742145e-01	1.259489e-01	3.482655e-01
159           	-1.115230e-01	1.433756e+00	4.713497e-01	1.241519e-01	3.471979e-01
160           	-1.119169e-01	1.435913e+00	4.684692e-01	1.223176e-01	3.461515e-01
161           	-1.123279e-01	1.438074e+00	4.655931e-01	1.204687e-01	3.451244e-01
162           	-1.127457e-01	1.440171e+00	4.627124e-01	1.186106e-01	3.441019e-01
163           	-1.131631e-01	1.442208e+00	4.598330e-01	1.167534e-01	3.430796e-01
164           	-1.135785e-01	1.444133e+00	4.569696e-01	1.149063e-01	3.420632e-01
165           	-1.139843e-01	1.445874e+00	4.541435e-01	1.130874e-01	3.410561e-01
166           	-1.143720e-01	1.447452e+00	4.513392e-01	1.112976e-01	3.400416e-01
167           	-1.147392e-01	1.448874e+00	4.485056e-01	1.095135e-01	3.389920e-01
168           	-1.150789e-01	1.450135e+00	4.456162e-01	1.077292e-01	3.378870e-01
169           	-1.153833e-01	1.451225e+00	4.426798e-01	1.059566e-01	3.367232e-01
170           	-1.156458e-01	1.452129e+00	4.397053e-01	1.042069e-01	3.354984e-01
171           	-1.158608e-01	1.452801e+00	4.366923e-01	1.024854e-01	3.342069e-01
172           	-1.160290e-01	1.453251e+00	4.336340e-01	1.007880e-01	3.328460e-01
173           	-1.161510e-01	1.453469e+00	4.304787e-01	9.908834e-02	3.313903e-01
174           	-1.162266e-01	1.453503e+00	4.271402e-01	9.734355e-02	3.297966e-01
175           	-1.162528e-01	1.453379e+00	4.235313e-01	9.551282e-02	3.280185e-01
176           	-1.162251e-01	1.453079e+00	4.196521e-01	9.360096e-02	3.260511e-01
177           	-1.161441e-01	1.452657e+00	4.155458e-01	9.162880e-02	3.239170e-01
178           	-1.160155e-01	1.452189e+00	4.112088e-01	8.958896e-02	3.216199e-01
179           	-1.158454e-01	1.451753e+00	4.066304e-01	8.746986e-02	3.191606e-01
180           	-1.156341e-01	1.451274e+00	4.018115e-01	8.527164e-02	3.165398e-01
181           	-1.153863e-01	1.450761e+00	3.968024e-01	8.301486e-02	3.137876e-01
182           	-1.151074e-01	1.450263e+00	3.916673e-01	8.072625e-02	3.109411e-01
183           	-1.148028e-01	1.449862e+00	3.864678e-01	7.843111e-02	3.080366e-01
184           	-1.144764e-01	1.449598e+00	3.812478e-01	7.614750e-02	3.051003e-01
185           	-1.141342e-01	1.449459e+00	3.760638e-01	7.389767e-02	3.021661e-01
186           	-1.137813e-01	1.449439e+00	3.709051e-01	7.167129e-02	2.992338e-01
187           	-1.134192e-01	1.449584e+00	3.657947e-01	6.947811e-02	2.963166e-01
188           	-1.130481e-01	1.449841e+00	3.607513e-01	6.732753e-02	2.934238e-01
189           	-1.126669e-01	1.450132e+00	3.558017e-01	6.523398e-02	2.905677e-01
190           	-1.122857e-01	1.450422e+00	3.509693e-01	6.319899e-02	2.877704e-01
191           	-1.119106e-01	1.450704e+00	3.462970e-01	6.123786e-02	2.850592e-01
192           	-1.115419e-01	1.450931e+00	3.418443e-01	5.938026e-02	2.824640e-01
193           	-1.111862e-01	1.451113e+00	3.376809e-01	5.765432e-02	2.800266e-01
194           	-1.108459e-01	1.451351e+00	3.338031e-01	5.605564e-02	2.777475e-01
195           	-1.105208e-01	1.451646e+00	3.301547e-01	5.455659e-02	2.755981e-01
196           	-1.102167e-01	1.452075e+00	3.267806e-01	5.317358e-02	2.736070e-01
197           	-1.099319e-01	1.452669e+00	3.236795e-01	5.190786e-02	2.717717e-01
198           	-1.096777e-01	1.453410e+00	3.208739e-01	5.075920e-02	2.701147e-01
199           	-1.094555e-01	1.454279e+00	3.183639e-01	4.972644e-02	2.686375e-01
200           	-1.092634e-01	1.455264e+00	3.161308e-01	4.880194e-02	2.673288e-01
201           	-1.091012e-01	1.456436e+00	3.143112e-01	4.805440e-02	2.662568e-01
202           	-1.089637e-01	1.457790e+00	3.127966e-01	4.743455e-02	2.653620e-01
203           	-1.088503e-01	1.459301e+00	3.115523e-01	4.692580e-02	2.646265e-01
204           	-1.087607e-01	1.460990e+00	3.106141e-01	4.654629e-02	2.640678e-01
205           	-1.086877e-01	1.462804e+00	3.099942e-01	4.630935e-02	2.636848e-01
206           	-1.086295e-01	1.464733e+00	3.096612e-01	4.620108e-02	2.634601e-01
207           	-1.085790e-01	1.466673e+00	3.095313e-01	4.618659e-02	2.633447e-01
208           	-1.085337e-01	1.468551e+00	3.095452e-01	4.623891e-02	2.633063e-01
209           	-1.084851e-01	1.470300e+00	3.096532e-01	4.634149e-02	2.633117e-01
210           	-1.084265e-01	1.471868e+00	3.097833e-01	4.646511e-02	2.633181e-01
211           	-1.083585e-01	1.473248e+00	3.099600e-01	4.662147e-02	2.633386e-01
212           	-1.082790e-01	1.474425e+00	3.101622e-01	4.680206e-02	2.633601e-01
213           	-1.081940e-01	1.475459e+00	3.104086e-01	4.701033e-02	2.633983e-01
214           	-1.081061e-01	1.476350e+00	3.107354e-01	4.726163e-02	2.634738e-01
215           	-1.080090e-01	1.477125e+00	3.111907e-01	4.758636e-02	2.636043e-01
216           	-1.079073e-01	1.477811e+00	3.117920e-01	4.798868e-02	2.638033e-01
217           	-1.077994e-01	1.478407e+00	3.125030e-01	4.845211e-02	2.640509e-01
218           	-1.076782e-01	1.478882e+00	3.133211e-01	4.898231e-02	2.643388e-01
219           	-1.075472e-01	1.479256e+00	3.142327e-01	4.956915e-02	2.646636e-01
220           	-1.074077e-01	1.479527e+00	3.152043e-01	5.019448e-02	2.650099e-01
221           	-1.072585e-01	1.479645e+00	3.162057e-01	5.084438e-02	2.653613e-01
222           	-1.071032e-01	1.479647e+00	3.172502e-01	5.152186e-02	2.657283e-01
223           	-1.069475e-01	1.479548e+00	3.183568e-01	5.223089e-02	2.661259e-01
224           	-1.067915e-01	1.479346e+00	3.195369e-01	5.297695e-02	2.665599e-01
225           	-1.066398e-01	1.479025e+00	3.207968e-01	5.375860e-02	2.670382e-01
226           	-1.064968e-01	1.478616e+00	3.221517e-01	5.457904e-02	2.675727e-01
227           	-1.063653e-01	1.478141e+00	3.236178e-01	5.544360e-02	2.681742e-01
228           	-1.062483e-01	1.477607e+00	3.252234e-01	5.636334e-02	2.688600e-01
229           	-1.061486e-01	1.476994e+00	3.269613e-01	5.733204e-02	2.696293e-01
230           	-1.060627e-01	1.476271e+00	3.287798e-01	5.832717e-02	2.704526e-01
231           	-1.059895e-01	1.475425e+00	3.306101e-01	5.931557e-02	2.712945e-01
232           	-1.059330e-01	1.474442e+00	3.324248e-01	6.027941e-02	2.721454e-01
233           	-1.058968e-01	1.473329e+00	3.342318e-01	6.121910e-02	2.730127e-01
234           	-1.058814e-01	1.472094e+00	3.360729e-01	6.215509e-02	2.739178e-01
235           	-1.058898e-01	1.470765e+00	3.379907e-01	6.310556e-02	2.748852e-01
236           	-1.059242e-01	1.469389e+00	3.399952e-01	6.407338e-02	2.759219e-01
237           	-1.059797e-01	1.467975e+00	3.420515e-01	6.504605e-02	2.770055e-01
238           	-1.060491e-01	1.466521e+00	3.441162e-01	6.600906e-02	2.781072e-01
239           	-1.061281e-01	1.465040e+00	3.461544e-01	6.694912e-02	2.792053e-01
240           	-1.062110e-01	1.463530e+00	3.481251e-01	6.785159e-02	2.802735e-01
241           	-1.062947e-01	1.461988e+00	3.500193e-01	6.871499e-02	2.813043e-01
242           	-1.063735e-01	1.460419e+00	3.518322e-01	6.954265e-02	2.822896e-01
243           	-1.064451e-01	1.458850e+00	3.535774e-01	7.034361e-02	2.832338e-01
244           	-1.065094e-01	1.457288e+00	3.552625e-01	7.112186e-02	2.841407e-01
245           	-1.065656e-01	1.455747e+00	3.569014e-01	7.188513e-02	2.850162e-01
246           	-1.066093e-01	1.454252e+00	3.584717e-01	7.262653e-02	2.858451e-01
247           	-1.066400e-01	1.452813e+00	3.599491e-01	7.333458e-02	2.866145e-01
248           	-1.066608e-01	1.451437e+00	3.612879e-01	7.398314e-02	2.873047e-01
249           	-1.066693e-01	1.450133e+00	3.624490e-01	7.455519e-02	2.878938e-01
250           	-1.066638e-01	1.448922e+00	3.634188e-01	7.504558e-02	2.883732e-01
251           	-1.066439e-01	1.447817e+00	3.641973e-01	7.545472e-02	2.887426e-01
252           	-1.066160e-01	1.446852e+00	3.647689e-01	7.576844e-02	2.890005e-01
253           	-1.065768e-01	1.445978e+00	3.650761e-01	7.596130e-02	2.891148e-01
254           	-1.065186e-01	1.445155e+00	3.651100e-01	7.603635e-02	2.890736e-01
255           	-1.064531e-01	1.444443e+00	3.648994e-01	7.599658e-02	2.889029e-01
256           	-1.063878e-01	1.443888e+00	3.644735e-01	7.584892e-02	2.886246e-01
257           	-1.063221e-01	1.443523e+00	3.638382e-01	7.559704e-02	2.882411e-01
258           	-1.062623e-01	1.443335e+00	3.630016e-01	7.523854e-02	2.877631e-01
259           	-1.062176e-01	1.443285e+00	3.619744e-01	7.476962e-02	2.872048e-01
260           	-1.061914e-01	1.443369e+00	3.607679e-01	7.419255e-02	2.865754e-01
261           	-1.061823e-01	1.443598e+00	3.594021e-01	7.351878e-02	2.858833e-01
262           	-1.061863e-01	1.443982e+00	3.578844e-01	7.275591e-02	2.851285e-01
263           	-1.062000e-01	1.444511e+00	3.562180e-01	7.190896e-02	2.843090e-01
264           	-1.062225e-01	1.445182e+00	3.544448e-01	7.099992e-02	2.834449e-01
265           	-1.062545e-01	1.445976e+00	3.526018e-01	7.004645e-02	2.825554e-01
266           	-1.062952e-01	1.446869e+00	3.506956e-01	6.905259e-02	2.816430e-01
267           	-1.063441e-01	1.447838e+00	3.487363e-01	6.802407e-02	2.807122e-01
268           	-1.063995e-01	1.448864e+00	3.467067e-01	6.695384e-02	2.797528e-01
269           	-1.064597e-01	1.449944e+00	3.446421e-01	6.586136e-02	2.787807e-01
270           	-1.065243e-01	1.451057e+00	3.425751e-01	6.476326e-02	2.778119e-01
271           	-1.065939e-01	1.452227e+00	3.405034e-01	6.365786e-02	2.768456e-01
272           	-1.066673e-01	1.453460e+00	3.384545e-01	6.255996e-02	2.758945e-01
273           	-1.067415e-01	1.454759e+00	3.364399e-01	6.147847e-02	2.749614e-01
274           	-1.068137e-01	1.456129e+00	3.344655e-01	6.041907e-02	2.740465e-01
275           	-1.068804e-01	1.457554e+00	3.325145e-01	5.937692e-02	2.731376e-01
276           	-1.069393e-01	1.459018e+00	3.305606e-01	5.834102e-02	2.722196e-01
277           	-1.069900e-01	1.460500e+00	3.285838e-01	5.730193e-02	2.712819e-01
278           	-1.070327e-01	1.461973e+00	3.265797e-01	5.625712e-02	2.703225e-01
279           	-1.070686e-01	1.463433e+00	3.245443e-01	5.520352e-02	2.693408e-01
280           	-1.071002e-01	1.464882e+00	3.224826e-01	5.414114e-02	2.683414e-01
281           	-1.071285e-01	1.466327e+00	3.204123e-01	5.307763e-02	2.673347e-01
282           	-1.071543e-01	1.467765e+00	3.183517e-01	5.202153e-02	2.663301e-01
283           	-1.071759e-01	1.469200e+00	3.163183e-01	5.098318e-02	2.653351e-01
284           	-1.071944e-01	1.470632e+00	3.143310e-01	4.997111e-02	2.643599e-01
285           	-1.072114e-01	1.472064e+00	3.123848e-01	4.898095e-02	2.634038e-01
286           	-1.072268e-01	1.473485e+00	3.104751e-01	4.801079e-02	2.624643e-01
287           	-1.072404e-01	1.474874e+00	3.086134e-01	4.706629e-02	2.615471e-01
288           	-1.072519e-01	1.476230e+00	3.068055e-01	4.615081e-02	2.606547e-01
289           	-1.072597e-01	1.477516e+00	3.050614e-01	4.527097e-02	2.597904e-01
290           	-1.072640e-01	1.478718e+00	3.033798e-01	4.442588e-02	2.589540e-01
291           	-1.072665e-01	1.479847e+00	3.017709e-01	4.361901e-02	2.581519e-01
292           	-1.072679e-01	1.480913e+00	3.002501e-01	4.285718e-02	2.573929e-01
293           	-1.072637e-01	1.481884e+00	2.988244e-01	4.214847e-02	2.566760e-01
294           	-1.072536e-01	1.482761e+00	2.974838e-01	4.148829e-02	2.559956e-01
295           	-1.072399e-01	1.483570e+00	2.962224e-01	4.087133e-02	2.553511e-01
296           	-1.072207e-01	1.484302e+00	2.950553e-01	4.030696e-02	2.547484e-01
297           	-1.071963e-01	1.484928e+00	2.939949e-01	3.980115e-02	2.541937e-01
298           	-1.071670e-01	1.485465e+00	2.930316e-01	3.934879e-02	2.536828e-01
299           	-1.071338e-01	1.485924e+00	2.921860e-01	3.895920e-02	2.532268e-01
300           	-1.070975e-01	1.486283e+00	2.914510e-01	3.862797e-02	2.528230e-01
301           	-1.070552e-01	1.486548e+00	2.908115e-01	3.835052e-02	2.524609e-01
302           	-1.070099e-01	1.486735e+00	2.902872e-01	3.813372e-02	2.521535e-01
303           	-1.069615e-01	1.486826e+00	2.898668e-01	3.797192e-02	2.518949e-01
304           	-1.069107e-01	1.486824e+00	2.895495e-01	3.786409e-02	2.516854e-01
305           	-1.068596e-01	1.486772e+00	2.893845e-01	3.783265e-02	2.515519e-01
306           	-1.068061e-01	1.486621e+00	2.893435e-01	3.786567e-02	2.514779e-01
307           	-1.067521e-01	1.486395e+00	2.894330e-01	3.796443e-02	2.514685e-01
308           	-1.066971e-01	1.486102e+00	2.896479e-01	3.812684e-02	2.515211e-01
309           	-1.066395e-01	1.485731e+00	2.899719e-01	3.834649e-02	2.516255e-01
310           	-1.065824e-01	1.485280e+00	2.904200e-01	3.862758e-02	2.517924e-01
311           	-1.065242e-01	1.484755e+00	2.909696e-01	3.896060e-02	2.520091e-01
312           	-1.064636e-01	1.484179e+00	2.915902e-01	3.933150e-02	2.522587e-01
313           	-1.064006e-01	1.483538e+00	2.922810e-01	3.973990e-02	2.525411e-01
314           	-1.063339e-01	1.482843e+00	2.930568e-01	4.019446e-02	2.528623e-01
315           	-1.062637e-01	1.482107e+00	2.938899e-01	4.068129e-02	2.532086e-01
316           	-1.061880e-01	1.481333e+00	2.947774e-01	4.120073e-02	2.535767e-01
317           	-1.061079e-01	1.480522e+00	2.957052e-01	4.174470e-02	2.539605e-01
318           	-1.060246e-01	1.479673e+00	2.966631e-01	4.230698e-02	2.543561e-01
319           	-1.059345e-01	1.478779e+00	2.976380e-01	4.288449e-02	2.547535e-01
320           	-1.058362e-01	1.477853e+00	2.986217e-01	4.347463e-02	2.551471e-01
321           	-1.057321e-01	1.476899e+00	2.995995e-01	4.406770e-02	2.555318e-01
322           	-1.056236e-01	1.475883e+00	3.005951e-01	4.467395e-02	2.559211e-01
323           	-1.055047e-01	1.474830e+00	3.016102e-01	4.530043e-02	2.563098e-01
324           	-1.053759e-01	1.473760e+00	3.026334e-01	4.594082e-02	2.566926e-01
325           	-1.052420e-01	1.472637e+00	3.036492e-01	4.658261e-02	2.570666e-01
326           	-1.051034e-01	1.471476e+00	3.046423e-01	4.721776e-02	2.574245e-01
327           	-1.049536e-01	1.470328e+00	3.055901e-01	4.784140e-02	2.577487e-01
328           	-1.047974e-01	1.469179e+00	3.064777e-01	4.844143e-02	2.580363e-01
329           	-1.046392e-01	1.468016e+00	3.073022e-01	4.901194e-02	2.582903e-01
330           	-1.044780e-01	1.466861e+00	3.080587e-01	4.955134e-02	2.585074e-01
331           	-1.043128e-01	1.465747e+00	3.087586e-01	5.006654e-02	2.586920e-01
332           	-1.041458e-01	1.464679e+00	3.094215e-01	5.056498e-02	2.588566e-01
333           	-1.039799e-01	1.463653e+00	3.100515e-01	5.104587e-02	2.590056e-01
334           	-1.038158e-01	1.462673e+00	3.106306e-01	5.149953e-02	2.591311e-01
335           	-1.036534e-01	1.461762e+00	3.111374e-01	5.191530e-02	2.592221e-01
336           	-1.034930e-01	1.460943e+00	3.115594e-01	5.228672e-02	2.592727e-01
337           	-1.033367e-01	1.460232e+00	3.118996e-01	5.261304e-02	2.592865e-01
338           	-1.031857e-01	1.459639e+00	3.121610e-01	5.289476e-02	2.592663e-01
339           	-1.030406e-01	1.459178e+00	3.123528e-01	5.313581e-02	2.592170e-01
340           	-1.029005e-01	1.458844e+00	3.124533e-01	5.332618e-02	2.591271e-01
341           	-1.027633e-01	1.458616e+00	3.124437e-01	5.345852e-02	2.589852e-01
342           	-1.026275e-01	1.458487e+00	3.123463e-01	5.354568e-02	2.588007e-01
343           	-1.024942e-01	1.458464e+00	3.121784e-01	5.359501e-02	2.585834e-01
344           	-1.023627e-01	1.458555e+00	3.119485e-01	5.361154e-02	2.583370e-01
345           	-1.022336e-01	1.458764e+00	3.116473e-01	5.359006e-02	2.580572e-01
346           	-1.021060e-01	1.459074e+00	3.112746e-01	5.353130e-02	2.577433e-01
347           	-1.019806e-01	1.459473e+00	3.108429e-01	5.344089e-02	2.574021e-01
348           	-1.018588e-01	1.459953e+00	3.103792e-01	5.333082e-02	2.570483e-01
349           	-1.017425e-01	1.460511e+00	3.098931e-01	5.320403e-02	2.566891e-01
350           	-1.016327e-01	1.461143e+00	3.093935e-01	5.306409e-02	2.563294e-01
351           	-1.015306e-01	1.461834e+00	3.089044e-01	5.292161e-02	2.559828e-01
352           	-1.014371e-01	1.462565e+00	3.084058e-01	5.276577e-02	2.556401e-01
353           	-1.013499e-01	1.463331e+00	3.079067e-01	5.260340e-02	2.553033e-01
354           	-1.012762e-01	1.464138e+00	3.074236e-01	5.243554e-02	2.549880e-01
355           	-1.012134e-01	1.464954e+00	3.069280e-01	5.225059e-02	2.546774e-01
356           	-1.011509e-01	1.465686e+00	3.063992e-01	5.204865e-02	2.543505e-01
357           	-1.010965e-01	1.466336e+00	3.058522e-01	5.182958e-02	2.540226e-01
358           	-1.010545e-01	1.466947e+00	3.053288e-01	5.160987e-02	2.537189e-01
359           	-1.010228e-01	1.467555e+00	3.048416e-01	5.139805e-02	2.534436e-01
360           	-1.010056e-01	1.468146e+00	3.043909e-01	5.118987e-02	2.532010e-01
361           	-1.010097e-01	1.468688e+00	3.040020e-01	5.099126e-02	2.530107e-01
362           	-1.010364e-01	1.469179e+00	3.036745e-01	5.080089e-02	2.528736e-01
363           	-1.010801e-01	1.469632e+00	3.033785e-01	5.060917e-02	2.527693e-01
364           	-1.011342e-01	1.470039e+00	3.030879e-01	5.040973e-02	2.526782e-01
365           	-1.011934e-01	1.470388e+00	3.027894e-01	5.020131e-02	2.525881e-01