# wallShearStress  FACE_DATA 60650
# x  y  z  wallShearStress_x  wallShearStress_y  wallShearStress_z
8.75721 0 0.345731 0.000832919 -1.47666e-05 0.000888388
8.72516 0 0.336919 0.00071118 -1.52389e-05 0.000748177
8.69439 0 0.328456 0.000584289 -1.51249e-05 0.000604314
8.66483 0 0.320329 0.000451983 -1.56448e-05 0.000457191
8.63646 0 0.312526 0.000314427 -1.60844e-05 0.00030806
8.6092 0 0.305031 0.000179637 -1.67493e-05 0.000162756
8.58303 0 0.297833 5.32789e-05 -1.53453e-05 2.59693e-05
8.82531 0 0.430728 0.0012088 -1.19021e-05 0.00145395
8.79057 0 0.419435 0.00110924 -1.08969e-05 0.00132887
8.75721 0 0.408591 0.00100034 -1.32223e-05 0.00119121
8.72516 0 0.398176 0.000887313 -1.23238e-05 0.00104954
8.69439 0 0.388175 0.000772547 -1.3343e-05 0.000898836
8.66483 0 0.378571 0.00064638 -1.37782e-05 0.000742622
8.63646 0 0.369348 0.000512681 -1.35598e-05 0.000584151
8.6092 0 0.360491 0.000376546 -1.41519e-05 0.000423314
8.58303 0 0.351985 0.000238664 -1.538e-05 0.000262763
8.5579 0 0.343817 0.000102917 -1.57123e-05 0.000107495
8.53376 0 0.335973 -2.32492e-05 -1.23727e-05 -3.56362e-05
8.51058 0 0.32844 -0.00013056 -9.42186e-06 -0.000165022
8.9384 0 0.539403 0.00152924 -1.2709e-05 0.00196428
8.89917 0 0.52469 0.0014378 -6.38374e-06 0.00188606
8.8615 0 0.510562 0.00137235 -6.91013e-06 0.00178435
8.82531 0 0.496994 0.00129951 -8.11166e-06 0.00167703
8.79057 0 0.483964 0.00121852 -8.3829e-06 0.0015576
8.75721 0 0.471451 0.00113078 -9.09777e-06 0.00143069
8.72516 0 0.459434 0.00103812 -9.28277e-06 0.00129287
8.69439 0 0.447895 0.000938464 -1.0252e-05 0.00114672
8.66483 0 0.436813 0.00082701 -1.11301e-05 0.000992201
8.63646 0 0.426171 0.000704895 -1.17939e-05 0.000829999
8.6092 0 0.415951 0.000574854 -1.23471e-05 0.000663048
8.58303 0 0.406136 0.000436233 -1.27258e-05 0.000492437
8.5579 0 0.396712 0.000291236 -1.36603e-05 0.00032161
8.53376 0 0.387661 0.00014472 -1.52611e-05 0.00015384
8.51058 0 0.378969 7.02404e-06 -1.36662e-05 -4.30923e-06
8.48833 0 0.370622 -0.000110337 -9.37013e-06 -0.000150241
8.46695 0 0.362605 -0.000197252 -3.31964e-06 -0.000281376
8.9384 0 0.611323 0.0015381 -1.09528e-05 0.00206358
8.89917 0 0.594649 0.00146585 -3.01212e-06 0.00200694
8.8615 0 0.578636 0.00141769 -6.46588e-06 0.00190744
8.82531 0 0.563259 0.00135954 -5.286e-06 0.0018134
8.79057 0 0.548492 0.00130069 -5.88027e-06 0.00170598
8.75721 0 0.534311 0.0012318 -6.49591e-06 0.00159007
8.72516 0 0.520692 0.00115762 -7.16168e-06 0.00146429
8.69439 0 0.507614 0.00107623 -7.37988e-06 0.00133016
8.66483 0 0.495055 0.000982802 -8.38601e-06 0.00118616
8.63646 0 0.482994 0.000877645 -9.37371e-06 0.00103099
8.6092 0 0.471411 0.000760476 -1.03772e-05 0.000867351
8.58303 0 0.460288 0.000631179 -1.14347e-05 0.000697063
8.5579 0 0.449607 0.000490392 -1.18704e-05 0.000521939
8.53376 0 0.439349 0.000339897 -1.21029e-05 0.00034344
8.51058 0 0.429498 0.000186842 -1.40884e-05 0.000166559
8.48833 0 0.420038 4.07067e-05 -1.43408e-05 -3.58565e-06
8.46695 0 0.410953 -8.52291e-05 -8.91354e-06 -0.000161908
8.44642 0 0.402229 -0.000178686 -4.27859e-06 -0.000306457
8.42671 0 0.393851 -0.000223861 2.13197e-06 -0.000443274
8.9384 0 0.683243 0.00153556 -1.05065e-05 0.00206517
8.89917 0 0.664607 0.00147802 3.51256e-07 0.0020414
8.8615 0 0.646711 0.001453 -5.06664e-06 0.00195126
8.82531 0 0.629525 0.00140414 -3.67853e-06 0.00187511
8.79057 0 0.613021 0.00135899 -4.31007e-06 0.00178065
8.75721 0 0.597171 0.00130635 -4.55967e-06 0.00168165
8.72516 0 0.58195 0.0012496 -5.13242e-06 0.00157159
8.69439 0 0.567333 0.00118279 -5.80451e-06 0.00145217
8.66483 0 0.553296 0.00110932 -6.2055e-06 0.00132374
8.63646 0 0.539816 0.00102409 -7.34786e-06 0.00118438
8.6092 0 0.526871 0.000924529 -8.24316e-06 0.00103204
8.58303 0 0.51444 0.000810707 -9.5959e-06 0.000871398
8.5579 0 0.502501 0.000684121 -1.05467e-05 0.000702059
8.53376 0 0.491037 0.000542464 -1.14862e-05 0.000524652
8.51058 0 0.480027 0.000389026 -1.15261e-05 0.000342661
8.48833 0 0.469454 0.000230241 -1.42408e-05 0.00015947
8.46695 0 0.4593 7.83584e-05 -1.415e-05 -1.86115e-05
8.44642 0 0.44955 -5.42885e-05 -9.88782e-06 -0.000187032
8.42671 0 0.440186 -0.00015385 -5.942e-06 -0.000343577
8.40778 0 0.431194 -0.000197416 3.41689e-07 -0.000493579
8.38959 0 0.422558 -0.000193004 4.26035e-06 -0.000637076
8.9384 0 0.755163 0.00150133 -1.44618e-05 0.00196666
8.89917 0 0.734566 0.00145961 2.94127e-06 0.00198383
8.8615 0 0.714786 0.00145106 -6.82716e-06 0.00190666
8.82531 0 0.69579 0.00141731 -1.25048e-06 0.00186353
8.79057 0 0.677549 0.00139371 -3.43669e-06 0.00178661
8.75721 0 0.660031 0.00135374 -3.1266e-06 0.00170993
8.72516 0 0.643208 0.00131331 -3.36228e-06 0.00161814
8.69439 0 0.627053 0.00126313 -4.37628e-06 0.00151603
8.66483 0 0.611538 0.0012051 -4.05565e-06 0.00140425
8.63646 0 0.596639 0.00114225 -5.09214e-06 0.00128116
8.6092 0 0.582331 0.00106483 -5.66408e-06 0.00114847
8.58303 0 0.568591 0.000968203 -6.94081e-06 0.00100373
8.5579 0 0.555397 0.000861911 -7.99387e-06 0.000847202
8.53376 0 0.542725 0.000738368 -9.4787e-06 0.000679589
8.51058 0 0.530556 0.000598082 -1.01971e-05 0.000503751
8.48833 0 0.518871 0.000444634 -1.11208e-05 0.000320468
8.46695 0 0.507648 0.000284706 -1.31661e-05 0.000133917
8.44642 0 0.496871 0.000130011 -1.36915e-05 -4.93717e-05
8.42671 0 0.486522 -5.87518e-06 -9.74252e-06 -0.000224201
8.40778 0 0.476583 -0.000104581 -4.38914e-06 -0.00038998
8.38959 0 0.467038 -0.000149895 2.63624e-07 -0.000550001
8.9384 0 0.827083 0.00144675 -1.40923e-05 0.00181836
8.89917 0 0.804525 0.001417 4.67648e-06 0.0018635
8.8615 0 0.782861 0.00142353 -6.97616e-06 0.00180083
8.82531 0 0.762056 0.0014052 -3.62056e-07 0.00178793
8.79057 0 0.742077 0.00139681 -3.92314e-06 0.00172945
8.75721 0 0.722891 0.00137132 -2.013e-06 0.00168161
8.72516 0 0.704466 0.00134854 -3.16255e-06 0.00161046
8.69439 0 0.686772 0.00131216 -3.78212e-06 0.00153304
8.66483 0 0.66978 0.00127134 -4.11533e-06 0.00144254
8.63646 0 0.653462 0.00121915 -4.73541e-06 0.00134065
8.6092 0 0.637792 0.00115522 -4.94136e-06 0.00123008
8.58303 0 0.622743 0.00108589 -6.3211e-06 0.00110294
8.5579 0 0.608291 0.00100133 -7.03268e-06 0.000966303
8.53376 0 0.594413 0.000896501 -8.60224e-06 0.000813831
8.51058 0 0.581085 0.000774637 -9.59335e-06 0.000652659
8.48833 0 0.568287 0.000637716 -1.08672e-05 0.000479645
8.46695 0 0.555995 0.00048603 -1.19025e-05 0.000296724
8.44642 0 0.544192 0.000324855 -1.3463e-05 0.000107488
8.42671 0 0.532857 0.000168464 -1.31695e-05 -8.01961e-05
8.40778 0 0.521972 3.12736e-05 -1.16311e-05 -0.000261633
8.38959 0 0.511518 -6.71521e-05 -4.92063e-06 -0.000433596
8.9384 0 0.899004 0.00137511 -1.64695e-05 0.00162214
8.89917 0 0.874483 0.00135825 6.39099e-06 0.00169857
8.8615 0 0.850935 0.00138554 -7.43027e-06 0.00164461
8.82531 0 0.828322 0.00137851 2.16128e-06 0.00166431
8.79057 0 0.806606 0.00138422 -3.72588e-06 0.00161391
8.75721 0 0.785751 0.00137083 6.32936e-07 0.00159213
8.72516 0 0.765724 0.00136322 -1.5819e-06 0.00153714
8.69439 0 0.746491 0.00134106 -7.42169e-07 0.00148346
8.66483 0 0.728022 0.00131787 -1.54477e-06 0.00141344
8.63646 0 0.710285 0.0012847 -2.15401e-06 0.00133402
8.6092 0 0.693252 0.00124719 -2.72191e-06 0.00124259
8.58303 0 0.676895 0.00119549 -3.79285e-06 0.00114141
8.5579 0 0.661186 0.00113338 -3.75442e-06 0.00103135
8.53376 0 0.646101 0.00105347 -4.49357e-06 0.0009069
8.51058 0 0.631614 0.000952877 -5.55443e-06 0.000766309
8.48833 0 0.617703 0.000843621 -7.36131e-06 0.00061049
8.46695 0 0.604343 0.000715316 -8.70159e-06 0.00044257
8.44642 0 0.591513 0.000568157 -1.08834e-05 0.000263186
8.42671 0 0.579192 0.00040961 -1.23844e-05 7.6327e-05
8.40778 0 0.56736 0.000253115 -1.22327e-05 -0.000111814
8.38959 0 0.555998 0.000111732 -1.11684e-05 -0.000296091
8.37214 0 0.545086 1.01474e-05 -3.9997e-06 -0.000473229
8.9384 0 0.970925 0.00128706 -2.04725e-05 0.00139198
8.89917 0 0.944442 0.00128038 7.27098e-06 0.0015042
8.8615 0 0.91901 0.00132548 -1.22517e-05 0.00146068
8.82531 0 0.894588 0.00131821 2.12817e-06 0.00151003
8.79057 0 0.871135 0.0013334 -7.45701e-06 0.00147567
8.75721 0 0.848612 0.00132393 -1.29348e-06 0.00148174
8.72516 0 0.826982 0.00132842 -4.96863e-06 0.00144909
8.69439 0 0.806211 0.001316 -2.62203e-06 0.00142238
8.66483 0 0.786263 0.00130552 -3.55949e-06 0.00137822
8.63646 0 0.767108 0.00128232 -3.22269e-06 0.00132507
8.6092 0 0.748712 0.0012516 -3.12524e-06 0.00125888
8.58303 0 0.731046 0.00120972 -4.02199e-06 0.00118098
8.5579 0 0.714081 0.00116353 -4.84616e-06 0.00108633
8.53376 0 0.697789 0.00110918 -6.2645e-06 0.0009799
8.51058 0 0.682144 0.00104261 -6.74326e-06 0.00085826
8.48833 0 0.667119 0.000951357 -8.22958e-06 0.000728786
8.46695 0 0.65269 0.000845526 -9.14191e-06 0.000576305
8.44642 0 0.638834 0.000721025 -1.05819e-05 0.000412375
8.42671 0 0.625528 0.000581136 -1.2262e-05 0.000237354
8.40778 0 0.612749 0.000430116 -1.43474e-05 5.14484e-05
8.38959 0 0.600478 0.000278288 -1.2155e-05 -0.000137651
8.37214 0 0.588693 0.000144809 -1.06531e-05 -0.000325056
8.97926 0 1.07246 0.001009 1.42247e-05 0.0012028
8.9384 0 1.04284 0.00118439 -2.28364e-05 0.00112275
8.89917 0 1.0144 0.00117648 9.78351e-06 0.00125752
8.8615 0 0.987085 0.0012603 -1.5781e-05 0.0012104
8.82531 0 0.960854 0.00125803 5.55091e-06 0.00128171
8.79057 0 0.935663 0.00129701 -7.82545e-06 0.00126113
8.75721 0 0.911471 0.00130112 2.22391e-06 0.00129021
8.72516 0 0.88824 0.00131871 -3.12453e-06 0.00127645
8.69439 0 0.86593 0.00132043 6.93561e-07 0.00127424
8.66483 0 0.844505 0.00132532 -3.56324e-07 0.00125305
8.63646 0 0.823931 0.00132055 4.29845e-09 0.00122459
8.6092 0 0.804172 0.001312 -2.41158e-07 0.00118295
8.58303 0 0.785198 0.00129755 -1.09194e-06 0.00112857
8.5579 0 0.766976 0.00127495 -1.58588e-06 0.00106279
8.53376 0 0.749477 0.00123664 -1.79238e-06 0.000986434
8.51058 0 0.732673 0.0011729 -1.94144e-06 0.000898488
8.48833 0 0.716535 0.00111695 -2.54698e-06 0.000796345
8.46695 0 0.701038 0.00105065 -2.91634e-06 0.000678086
8.44642 0 0.686155 0.000946371 -5.47719e-06 0.000535721
8.42671 0 0.671863 0.000829571 -7.18933e-06 0.000382095
8.40778 0 0.658138 0.000697567 -1.01354e-05 0.000215334
8.38959 0 0.644957 0.000548708 -1.18867e-05 3.80131e-05
8.37214 0 0.6323 0.000394471 -1.19485e-05 -0.000146446
8.97926 0 1.14643 0.000848458 1.07853e-05 0.00100004
8.9384 0 1.11476 0.00110564 -3.07331e-05 0.000879597
8.89917 0 1.08436 0.0010668 1.35027e-05 0.00104262
8.8615 0 1.05516 0.00118891 -1.87345e-05 0.000999438
8.82531 0 1.02712 0.00117509 6.83391e-06 0.00109059
8.79057 0 1.00019 0.00121901 -1.08829e-05 0.00109145
8.75721 0 0.974331 0.00121348 1.47357e-06 0.00113726
8.72516 0 0.949498 0.00123098 -5.44031e-06 0.00114698
8.69439 0 0.925649 0.0012302 -1.47391e-06 0.00116216
8.66483 0 0.902747 0.00123774 -3.34636e-06 0.00116212
8.63646 0 0.880753 0.00123768 -2.78904e-06 0.00115437
8.6092 0 0.859632 0.00123443 -2.8785e-06 0.00113478
8.58303 0 0.839349 0.00122099 -2.86268e-06 0.00110355
8.5579 0 0.819871 0.00119962 -2.85386e-06 0.00106088
8.53376 0 0.801165 0.00117249 -4.33202e-06 0.00100541
8.51058 0 0.783202 0.00114181 -5.34575e-06 0.000933288
8.48833 0 0.765951 0.00110252 -6.77425e-06 0.000839676
8.46695 0 0.749385 0.00105663 -7.39497e-06 0.000741402
8.44642 0 0.733476 0.000991516 -7.86039e-06 0.000629103
8.42671 0 0.718198 0.000895721 -8.50358e-06 0.000501397
8.40778 0 0.703526 0.000795619 -9.98937e-06 0.000351342
8.38959 0 0.689437 0.000677974 -1.23228e-05 0.000190417
8.37214 0 0.675907 0.000545195 -1.46406e-05 1.84277e-05
8.97926 0 1.22039 0.000573263 1.24215e-05 0.000771778
8.9384 0 1.18669 0.000995451 -3.24836e-05 0.000602734
8.89917 0 1.15432 0.000904228 1.93265e-05 0.000754539
8.8615 0 1.12324 0.00111857 -1.87367e-05 0.000727083
8.82531 0 1.09339 0.001097 1.18934e-05 0.000803798
8.79057 0 1.06472 0.00116277 -7.07488e-06 0.000833652
8.75721 0 1.03719 0.00117306 5.0167e-06 0.000890572
8.72516 0 1.01076 0.00119861 -4.61722e-07 0.000928214
8.69439 0 0.985369 0.00121402 2.71873e-06 0.000963894
8.66483 0 0.960988 0.00123356 1.13089e-06 0.000988095
8.63646 0 0.937576 0.00124923 8.31264e-07 0.0010022
8.6092 0 0.915092 0.0012617 8.6539e-07 0.0010068
8.58303 0 0.893501 0.00127012 2.77382e-07 0.000999065
8.5579 0 0.872766 0.00127239 3.99448e-07 0.000978011
8.53376 0 0.852853 0.00127273 7.11171e-07 0.000943941
8.51058 0 0.833731 0.0012654 1.85579e-08 0.000897718
8.48833 0 0.815368 0.00124161 -6.70062e-07 0.000840056
8.46695 0 0.797732 0.00119973 -5.64563e-07 0.000769688
8.44642 0 0.780797 0.00113797 -1.77643e-06 0.000690922
8.42671 0 0.764534 0.00108567 -2.08333e-06 0.000592529
8.40778 0 0.748915 0.00101219 -2.39387e-06 0.000479679
8.38959 0 0.733917 0.000907272 -4.19049e-06 0.000342155
8.37214 0 0.719513 0.00079298 -7.74947e-06 0.000190156
8.97926 0 1.29435 5.2315e-05 3.31906e-05 0.000600291
8.9384 0 1.25861 0.000847647 -3.27688e-05 0.000529021
8.89917 0 1.22428 0.000663982 1.59205e-05 0.00058128
8.8615 0 1.19131 0.000948089 -2.73683e-05 0.000607331
8.82531 0 1.15965 0.000924201 -8.5788e-07 0.000639147
8.79057 0 1.12925 0.000988696 -1.46696e-05 0.000690124
8.75721 0 1.10005 0.00100405 -5.78354e-06 0.000728789
8.72516 0 1.07202 0.0010348 -8.45059e-06 0.000770158
8.69439 0 1.04509 0.00105984 -5.97821e-06 0.000804441
8.66483 0 1.01923 0.00108867 -4.8446e-06 0.000833214
8.63646 0 0.994399 0.00111515 -3.09621e-06 0.000852845
8.6092 0 0.970553 0.00113827 -1.87032e-06 0.000867345
8.58303 0 0.947652 0.00115705 -2.31213e-06 0.000874125
8.5579 0 0.925661 0.00117167 -2.65345e-06 0.000872494
8.53376 0 0.904541 0.00117476 -4.07711e-06 0.000859628
8.51058 0 0.88426 0.00116614 -4.0058e-06 0.000839255
8.48833 0 0.864784 0.00114814 -4.76899e-06 0.000808217
8.46695 0 0.84608 0.00112323 -5.33164e-06 0.000762556
8.44642 0 0.828118 0.001095 -6.62739e-06 0.000700143
8.42671 0 0.810869 0.00105444 -8.038e-06 0.00062251
8.40778 0 0.794304 0.0010077 -1.02019e-05 0.000535926
8.38959 0 0.778397 0.000945444 -1.04961e-05 0.00043617
8.37214 0 0.76312 0.000848091 -1.17283e-05 0.000314688
8.97926 0 1.36832 -0.000557837 4.04282e-05 0.000407433
8.9384 0 1.33053 0.000520762 -2.8502e-05 0.00045794
8.89917 0 1.29423 0.000321548 2.58925e-05 0.000274942
8.8615 0 1.25938 0.000819257 -8.3642e-07 0.000337334
8.82531 0 1.22592 0.000957304 1.21312e-05 0.000337698
8.79057 0 1.19378 0.00104623 8.59171e-06 0.000425834
8.75721 0 1.16291 0.0010775 1.01635e-05 0.000502988
8.72516 0 1.13327 0.00108162 6.83226e-06 0.000581761
8.69439 0 1.10481 0.00108764 5.11102e-06 0.00064149
8.66484 0 1.07747 0.00110097 4.73253e-06 0.000692545
8.63646 0 1.05122 0.00111056 2.90745e-06 0.000733542
8.6092 0 1.02601 0.00112153 2.81342e-06 0.000765672
8.58303 0 1.0018 0.00113815 1.73589e-06 0.000786885
8.5579 0 0.978555 0.00115365 1.42815e-06 0.0007983
8.53376 0 0.956229 0.00116428 1.60473e-06 0.000800357
8.51058 0 0.934789 0.00117212 2.17611e-06 0.000791757
8.48833 0 0.9142 0.00117868 2.53909e-06 0.000772399
8.46695 0 0.894427 0.00118086 2.83862e-06 0.000742191
8.44642 0 0.875439 0.00117149 2.2541e-06 0.000700946
8.42671 0 0.857205 0.0011482 2.22874e-06 0.000649625
8.40778 0 0.839693 0.00110321 1.7721e-06 0.000583969
8.38959 0 0.822877 0.00105736 1.85163e-06 0.000509374
8.37214 0 0.806727 0.00101788 5.75338e-07 0.000417139
8.97926 0 1.44228 -0.000977823 5.66774e-05 0.000197569
8.9384 0 1.40245 -0.000166045 -5.26243e-05 0.000484693
8.89917 0 1.36419 -0.000153851 -4.6761e-05 0.000378261
8.8615 0 1.32746 0.000135143 -4.77174e-05 0.000377514
8.82531 0 1.29218 0.000364892 -3.71828e-05 0.000263245
8.79057 0 1.2583 0.000598873 -2.75314e-05 0.000218671
8.75721 0 1.22577 0.000793873 -2.32841e-05 0.000208245
8.72516 0 1.19453 0.000919438 -1.56981e-05 0.000236349
8.69439 0 1.16453 0.000994339 -1.11568e-05 0.00028638
8.66483 0 1.13571 0.00103401 -8.79123e-06 0.00034505
8.63646 0 1.10804 0.00106437 -6.61168e-06 0.000406556
8.6092 0 1.08147 0.0010929 -5.48607e-06 0.00046072
8.58303 0 1.05595 0.00111173 -5.10445e-06 0.000506396
8.5579 0 1.03145 0.00112345 -5.18593e-06 0.000544431
8.53376 0 1.00792 0.00113024 -6.07989e-06 0.000572839
8.51058 0 0.985317 0.0011326 -7.08449e-06 0.000592315
8.48833 0 0.963616 0.0011262 -8.80417e-06 0.000599659
8.46695 0 0.942775 0.00111111 -9.80185e-06 0.000599971
8.44642 0 0.92276 0.00109045 -1.11247e-05 0.000591081
8.42671 0 0.90354 0.00106559 -1.23359e-05 0.000571305
8.40778 0 0.885082 0.00103771 -1.38629e-05 0.000539141
8.38959 0 0.867357 0.00100311 -1.59112e-05 0.000489798
8.37214 0 0.850334 0.00094591 -1.83205e-05 0.000433719
7.66922 0 0.966948 -0.00194 -1.30206e-05 -0.000529742
7.67296 0 0.988324 -0.00218957 -1.21753e-05 -0.000598432
7.67685 0 1.01058 -0.00244305 -1.21914e-05 -0.000658598
7.68091 0 1.03376 -0.00270607 -1.31523e-05 -0.000707279
7.68513 0 1.0579 -0.0029899 -1.46969e-05 -0.000745794
7.68953 0 1.08303 -0.00330177 -1.61623e-05 -0.000774599
7.69411 0 1.1092 -0.00364131 -1.69558e-05 -0.000797794
7.69888 0 1.13646 -0.00399895 -1.72723e-05 -0.00082148
7.70385 0 1.16483 -0.00436869 -1.67867e-05 -0.000850977
7.70902 0 1.19439 -0.00474352 -1.55676e-05 -0.000891742
7.7144 0 1.22516 -0.00511676 -1.34406e-05 -0.000950789
7.72001 0 1.25721 -0.0054868 -1.10868e-05 -0.00103394
7.72585 0 1.29057 -0.00585634 -6.67857e-06 -0.00115727
7.73193 0 1.32531 -0.00621233 -3.55518e-06 -0.00131804
7.70425 0 0.907776 -0.000619334 -1.38011e-05 -0.000248708
7.70851 0 0.926707 -0.000831364 -1.5197e-05 -0.000316155
7.71295 0 0.946421 -0.00107398 -1.60806e-05 -0.000390249
7.71757 0 0.966948 -0.00133827 -1.60028e-05 -0.000462874
7.72238 0 0.988324 -0.00161376 -1.42181e-05 -0.000534293
7.72738 0 1.01058 -0.00188635 -1.35157e-05 -0.000597146
7.7326 0 1.03376 -0.00216085 -1.26141e-05 -0.000644381
7.73803 0 1.0579 -0.00243962 -1.27043e-05 -0.000675571
7.74368 0 1.08303 -0.00273636 -1.39917e-05 -0.000697325
7.74957 0 1.1092 -0.00306147 -1.57918e-05 -0.0007106
7.7557 0 1.13646 -0.0034177 -1.67096e-05 -0.000715633
7.76209 0 1.16484 -0.00379443 -1.64852e-05 -0.000724349
7.76874 0 1.19439 -0.00418493 -1.60148e-05 -0.000741554
7.77566 0 1.22516 -0.0045809 -1.48887e-05 -0.000774051
7.78287 0 1.25721 -0.00497219 -1.34323e-05 -0.00082257
7.79038 0 1.29057 -0.00536626 -1.06558e-05 -0.000903741
7.7982 0 1.32531 -0.00574862 -8.51973e-06 -0.00101273
7.73984 0 0.872138 8.7419e-05 1.26412e-05 6.8678e-05
7.74464 0 0.889597 1.45108e-05 9.32375e-06 -2.82032e-05
7.74964 0 0.907777 -9.56086e-05 7.53122e-06 -0.000132683
7.75484 0 0.926707 -0.000247028 1.57734e-06 -0.000252069
7.76026 0 0.94642 -0.000455107 -5.75521e-06 -0.000370131
7.76591 0 0.966948 -0.000709514 -1.07435e-05 -0.000459643
7.77179 0 0.988324 -0.00100614 -1.2494e-05 -0.000526376
7.77791 0 1.01058 -0.00133121 -1.19802e-05 -0.000591958
7.78428 0 1.03376 -0.00164607 -1.1482e-05 -0.000642795
7.79092 0 1.0579 -0.00194361 -1.19969e-05 -0.000670905
7.79783 0 1.08303 -0.00223962 -1.2635e-05 -0.000676893
7.80503 0 1.1092 -0.00254764 -1.32232e-05 -0.000669953
7.81252 0 1.13646 -0.0028828 -1.47526e-05 -0.000656998
7.82033 0 1.16483 -0.00325228 -1.53627e-05 -0.000643528
7.82845 0 1.19439 -0.00364255 -1.5924e-05 -0.000635789
7.83692 0 1.22516 -0.00404778 -1.48639e-05 -0.000640646
7.84573 0 1.25721 -0.00445335 -1.44529e-05 -0.000659493
7.85491 0 1.29057 -0.00486237 -1.21468e-05 -0.000707389
7.86446 0 1.32531 -0.00525734 -1.14863e-05 -0.000772968
7.87441 0 1.3615 -0.00566806 -7.08631e-06 -0.000898692
7.778 0 0.855372 0.000148964 1.76815e-05 0.000546251
7.78345 0 0.872138 0.000115458 2.85971e-05 0.000425527
7.78912 0 0.889597 6.53891e-05 3.62187e-05 0.000249369
7.79503 0 0.907776 -7.32429e-06 3.76644e-05 4.62287e-05
7.80118 0 0.926708 -0.000103108 3.4748e-05 -0.000188144
7.80759 0 0.94642 -0.000222792 2.65389e-05 -0.00037916
7.81425 0 0.966948 -0.000378884 1.87116e-05 -0.000503922
7.82121 0 0.988324 -0.000578707 7.26788e-06 -0.00060621
7.82844 0 1.01058 -0.000842118 -3.63108e-06 -0.000672383
7.83597 0 1.03376 -0.00115172 -9.13938e-06 -0.000693186
7.84382 0 1.0579 -0.00148036 -1.13401e-05 -0.000693545
7.85199 0 1.08303 -0.00180198 -1.16525e-05 -0.000682511
7.86049 0 1.1092 -0.00211359 -1.16622e-05 -0.000658121
7.86935 0 1.13646 -0.00242953 -1.26175e-05 -0.000625563
7.87857 0 1.16484 -0.00276945 -1.39904e-05 -0.000590177
7.88818 0 1.19439 -0.00314094 -1.44497e-05 -0.000558534
7.89818 0 1.22516 -0.00353644 -1.47114e-05 -0.00053906
7.90859 0 1.25721 -0.00394441 -1.43409e-05 -0.000531073
7.91943 0 1.29057 -0.00436012 -1.32248e-05 -0.000551184
7.93073 0 1.32531 -0.00475881 -1.28124e-05 -0.000581757
7.94249 0 1.3615 -0.00518179 -9.45822e-06 -0.000671786
7.81473 0 0.839271 0.000137423 -1.72861e-05 0.000769379
7.82076 0 0.855372 0.00012492 -1.06283e-05 0.000810614
7.82705 0 0.872138 9.66307e-05 5.72125e-07 0.00075816
7.8336 0 0.889597 4.30344e-05 1.52233e-05 0.000606367
7.84042 0 0.907777 -4.06579e-05 2.72741e-05 0.000386818
7.84752 0 0.926707 -0.000166112 3.75927e-05 0.000110328
7.85491 0 0.946421 -0.000308319 4.03331e-05 -0.000184306
7.8626 0 0.966948 -0.00048121 3.60729e-05 -0.000439683
7.87062 0 0.988324 -0.00065224 2.40395e-05 -0.000623112
7.87897 0 1.01058 -0.000817259 1.1939e-05 -0.000718604
7.88766 0 1.03376 -0.000999089 1.24765e-06 -0.000735767
7.89671 0 1.0579 -0.0012164 -4.79152e-06 -0.000709676
7.90614 0 1.08303 -0.00147783 -8.89066e-06 -0.000668244
7.91595 0 1.1092 -0.00175891 -1.06527e-05 -0.000628544
7.92617 0 1.13646 -0.00205706 -1.13301e-05 -0.000581935
7.93681 0 1.16483 -0.00237021 -1.15534e-05 -0.000535377
7.9479 0 1.19439 -0.00270598 -1.34613e-05 -0.00048736
7.95943 0 1.22516 -0.00307395 -1.32593e-05 -0.000450288
7.97145 0 1.25721 -0.00346197 -1.45254e-05 -0.000422506
7.98397 0 1.29057 -0.00387071 -1.34207e-05 -0.000419005
7.99699 0 1.32531 -0.00426739 -1.39575e-05 -0.000420123
8.01056 0 1.3615 -0.00469745 -1.0217e-05 -0.000481866
8.02469 0 1.39917 -0.00505092 -1.31348e-05 -0.000517157
7.85669 0 0.839271 0.000167821 -2.17354e-05 0.000610029
7.86353 0 0.855372 0.00017013 -1.8566e-05 0.000658922
7.87066 0 0.872138 0.000125815 -1.00743e-05 0.000614261
7.87808 0 0.889596 3.57307e-05 -4.42241e-06 0.00049532
7.88581 0 0.907777 -8.67085e-05 -8.31116e-07 0.000327111
7.89385 0 0.926708 -0.000217412 4.53012e-07 0.00014912
7.90223 0 0.94642 -0.000366121 2.01411e-06 -2.60773e-05
7.91095 0 0.966948 -0.000512927 8.34473e-06 -0.000222334
7.92003 0 0.988324 -0.000653293 8.62313e-06 -0.000393864
7.9295 0 1.01058 -0.000789531 6.45379e-06 -0.000523134
7.93935 0 1.03376 -0.000925858 2.19153e-06 -0.000590996
7.94961 0 1.0579 -0.00107673 -2.23457e-06 -0.000606169
7.96029 0 1.08303 -0.00124952 -6.51651e-06 -0.000568183
7.97141 0 1.1092 -0.00146903 -9.02951e-06 -0.000528333
7.98299 0 1.13646 -0.00172425 -1.10216e-05 -0.0004969
7.99505 0 1.16484 -0.00200748 -1.13237e-05 -0.000446565
8.00761 0 1.19439 -0.00231428 -1.22053e-05 -0.000394661
8.02069 0 1.22516 -0.00265714 -1.22346e-05 -0.000355706
8.03431 0 1.25721 -0.00302012 -1.44319e-05 -0.000318405
8.04849 0 1.29057 -0.00341401 -1.37212e-05 -0.000300612
8.06326 0 1.32531 -0.00380024 -1.4469e-05 -0.000281324
8.07864 0 1.3615 -0.00423279 -1.12766e-05 -0.000321773
8.09465 0 1.39917 -0.00457426 -1.51515e-05 -0.000322343
7.89865 0 0.839271 0.000340088 -1.22356e-05 0.00035925
7.9063 0 0.855372 0.000375848 -3.65984e-06 0.000319781
7.91427 0 0.872138 0.000343692 -1.7137e-07 0.000220763
7.92256 0 0.889597 0.000250857 4.35715e-07 8.53377e-05
7.93119 0 0.907776 0.000132509 -3.22488e-06 -3.46282e-05
7.94019 0 0.926708 -1.28464e-05 -4.53902e-06 -0.00014676
7.94955 0 0.94642 -0.000173126 -1.12674e-05 -0.000225868
7.9593 0 0.966948 -0.000309713 -1.58541e-05 -0.000245903
7.96945 0 0.988324 -0.000426938 -1.43587e-05 -0.000265426
7.98003 0 1.01058 -0.00053489 -1.21636e-05 -0.000290828
7.99104 0 1.03376 -0.000656106 -9.24663e-06 -0.000320675
8.0025 0 1.0579 -0.000806729 -5.79457e-06 -0.000342888
8.01444 0 1.08303 -0.000975866 -5.77618e-06 -0.0003624
8.02687 0 1.1092 -0.00117501 -8.22479e-06 -0.000372635
8.03981 0 1.13646 -0.00140428 -9.42149e-06 -0.000359065
8.05329 0 1.16483 -0.00167045 -9.97683e-06 -0.000328118
8.06733 0 1.19439 -0.0019627 -1.07289e-05 -0.000291525
8.08195 0 1.22516 -0.00228556 -1.084e-05 -0.00025824
8.09717 0 1.25721 -0.00262633 -1.2737e-05 -0.000219277
8.11302 0 1.29057 -0.00300005 -1.2529e-05 -0.000194306
8.12952 0 1.32531 -0.00336572 -1.45285e-05 -0.000160156
8.14671 0 1.3615 -0.00379125 -1.1832e-05 -0.000184646
8.16461 0 1.39917 -0.00411376 -1.63862e-05 -0.000154967
8.18324 0 1.4384 -0.00461594 -7.46684e-06 -0.000284549
7.94062 0 0.839271 0.000594268 -3.67936e-06 5.04055e-05
7.94907 0 0.855372 0.000594486 1.44586e-06 -4.45294e-05
7.95787 0 0.872138 0.000536701 5.00593e-06 -0.000166402
7.96704 0 0.889597 0.000436665 3.14112e-06 -0.000249129
7.97658 0 0.907777 0.000327749 -1.51566e-06 -0.000314898
7.98652 0 0.926707 0.000202681 -7.8308e-06 -0.000364221
7.99687 0 0.946421 9.53428e-05 -1.46384e-05 -0.000348023
8.00765 0 0.966948 9.09582e-06 -1.47414e-05 -0.000299075
8.01887 0 0.988324 -5.12057e-05 -1.46338e-05 -0.000254732
8.03055 0 1.01058 -0.000101615 -1.41404e-05 -0.00020835
8.04273 0 1.03376 -0.00018442 -1.48859e-05 -0.000165162
8.0554 0 1.0579 -0.000335074 -1.29625e-05 -0.000150989
8.06859 0 1.08303 -0.000545477 -1.23594e-05 -0.000163449
8.08233 0 1.1092 -0.000782865 -1.01251e-05 -0.000187545
8.09664 0 1.13646 -0.00103033 -9.32773e-06 -0.00020578
8.11154 0 1.16484 -0.00129782 -8.90237e-06 -0.000212427
8.12705 0 1.19439 -0.00158233 -9.6165e-06 -0.000200579
8.14321 0 1.22516 -0.00189172 -9.27191e-06 -0.000179043
8.16003 0 1.25721 -0.00221996 -1.02001e-05 -0.000142756
8.17755 0 1.29057 -0.00258738 -9.16372e-06 -0.000116558
8.19579 0 1.32531 -0.00293868 -1.1536e-05 -7.34704e-05
8.21479 0 1.3615 -0.00335378 -1.06169e-05 -8.28561e-05
8.23457 0 1.39917 -0.00365766 -1.43852e-05 -2.87037e-05
8.25516 0 1.4384 -0.00417331 -6.71328e-06 -0.000135762
8.27661 0 1.47926 -0.00427969 -2.0344e-05 -4.90031e-05
7.99184 0 0.855371 0.000771466 5.11043e-06 -0.000370559
8.00148 0 0.872138 0.000676752 2.38151e-06 -0.000441802
8.01152 0 0.889596 0.000567012 -2.03156e-06 -0.000474241
8.02197 0 0.907777 0.000444058 -4.84463e-06 -0.000461685
8.03286 0 0.926708 0.00032893 -6.76367e-06 -0.000416174
8.04419 0 0.94642 0.000239498 -1.135e-05 -0.000328123
8.05599 0 0.966948 0.000195649 -1.11125e-05 -0.000233873
8.06829 0 0.988324 0.000193478 -1.07392e-05 -0.000156784
8.08108 0 1.01058 0.000201477 -1.09983e-05 -9.77254e-05
8.09441 0 1.03376 0.000174869 -1.15309e-05 -5.78135e-05
8.10829 0 1.0579 7.34547e-05 -1.31926e-05 -2.02445e-05
8.12274 0 1.08303 -0.000108107 -1.35326e-05 -3.13593e-06
8.13779 0 1.1092 -0.000359966 -1.25423e-05 -1.52728e-05
8.15346 0 1.13646 -0.000641042 -9.96492e-06 -3.56349e-05
8.16978 0 1.16483 -0.000928547 -7.1445e-06 -5.7542e-05
8.18677 0 1.19439 -0.00122235 -6.63875e-06 -6.99732e-05
8.20447 0 1.22516 -0.00153435 -6.52871e-06 -7.23454e-05
8.22289 0 1.25721 -0.00185912 -7.31317e-06 -5.66456e-05
8.24208 0 1.29057 -0.0022216 -7.32167e-06 -4.51709e-05
8.26206 0 1.32531 -0.00256614 -8.95919e-06 -9.40281e-06
8.28286 0 1.3615 -0.0029675 -7.66947e-06 -1.41175e-05
8.30453 0 1.39917 -0.00325598 -1.00529e-05 4.85387e-05
8.32708 0 1.4384 -0.00376348 -3.7026e-06 -3.49102e-05
8.35057 0 1.47926 -0.0038331 -1.50932e-05 8.24057e-05
8.03461 0 0.855372 0.000819486 3.352e-06 -0.000601284
8.04508 0 0.872138 0.000703637 -1.03404e-06 -0.000602683
8.056 0 0.889597 0.000582512 -3.37717e-06 -0.000551896
8.06736 0 0.907776 0.000455112 -5.96532e-06 -0.00047718
8.07919 0 0.926707 0.000364072 -1.015e-05 -0.000366668
8.09151 0 0.946421 0.000346326 -1.22426e-05 -0.000250454
8.10434 0 0.966948 0.000382299 -1.11288e-05 -0.000159621
8.1177 0 0.988324 0.000416384 -1.17196e-05 -9.39386e-05
8.13161 0 1.01058 0.000425702 -1.11193e-05 -3.64196e-05
8.1461 0 1.03376 0.000414025 -1.1374e-05 -3.49577e-06
8.16118 0 1.0579 0.000374526 -1.15597e-05 4.00583e-05
8.17689 0 1.08303 0.000273992 -1.23301e-05 7.81122e-05
8.19325 0 1.1092 8.46945e-05 -1.33947e-05 7.8419e-05
8.21028 0 1.13646 -0.000178919 -1.37572e-05 6.33222e-05
8.22802 0 1.16484 -0.000476867 -1.24365e-05 4.21096e-05
8.24649 0 1.19439 -0.000794667 -1.01439e-05 2.47229e-05
8.26572 0 1.22516 -0.00112633 -8.62613e-06 1.25205e-05
8.28575 0 1.25721 -0.00146519 -8.73466e-06 2.05169e-05
8.30661 0 1.29057 -0.00183747 -8.4402e-06 3.21182e-05
8.32832 0 1.32531 -0.00219505 -9.73045e-06 7.23388e-05
8.35093 0 1.3615 -0.00260555 -8.41675e-06 7.53824e-05
8.37448 0 1.39917 -0.0028959 -1.14616e-05 0.000139008
8.399 0 1.4384 -0.00338819 -5.24077e-06 6.92659e-05
8.42454 0 1.47926 -0.00344193 -1.40428e-05 0.000184968
8.07738 0 0.855372 0.000753594 2.14533e-06 -0.000698973
8.08869 0 0.872138 0.000617475 -1.64371e-08 -0.000624023
8.10048 0 0.889597 0.000480961 -6.37185e-06 -0.000503454
8.11275 0 0.907777 0.000410625 -1.0603e-05 -0.000336459
8.12553 0 0.926708 0.000432897 -8.74243e-06 -0.000187947
8.13883 0 0.94642 0.000486481 -8.07193e-06 -8.11656e-05
8.15269 0 0.966948 0.000527559 -5.31229e-06 -8.68898e-06
8.16712 0 0.988324 0.000555703 -3.31808e-06 3.97954e-05
8.18214 0 1.01058 0.000569263 -1.97081e-06 8.22205e-05
8.19779 0 1.03376 0.000565807 -1.25773e-06 0.000128111
8.21408 0 1.0579 0.000542784 -7.91779e-07 0.000158674
8.23104 0 1.08303 0.000470909 -3.79281e-06 0.000179014
8.24871 0 1.1092 0.00033632 -6.11078e-06 0.000184662
8.26711 0 1.13646 0.000121647 -1.06258e-05 0.00017494
8.28626 0 1.16483 -0.000145981 -1.07225e-05 0.000151517
8.30621 0 1.19439 -0.000448527 -9.32157e-06 0.000133968
8.32698 0 1.22516 -0.000783169 -7.45523e-06 0.000121929
8.34861 0 1.25721 -0.00113212 -9.02331e-06 0.000122639
8.37113 0 1.29057 -0.001513 -9.6796e-06 0.000122959
8.39459 0 1.32531 -0.0018793 -1.15694e-05 0.000148307
8.41901 0 1.3615 -0.00229394 -1.06591e-05 0.000147792
8.44444 0 1.39917 -0.00259207 -1.32188e-05 0.000208201
8.47093 0 1.4384 -0.00305818 -7.50599e-06 0.000159301
8.4985 0 1.47926 -0.00310785 -1.53225e-05 0.000262483
8.12014 0 0.855372 0.00058785 -2.56676e-06 -0.000652752
8.1323 0 0.872138 0.000482485 -9.703e-06 -0.000507153
8.14496 0 0.889596 0.0004752 -1.20287e-05 -0.000342109
8.15814 0 0.907777 0.000541064 -1.1612e-05 -0.000206009
8.17186 0 0.926708 0.000605668 -1.13367e-05 -0.000107713
8.18616 0 0.94642 0.000643029 -1.14864e-05 -1.49691e-05