# p  POINT_DATA 90431
# x  y  z  p
4 0 0 -0.154601
4 0.00256965 0 -0.154575
4 0.00518642 0 -0.15453
4 0.00785119 0 -0.154518
4 0.00128135 -0.00996393 -0.153992
4 0.00128135 0.00996393 -0.154971
4 0.0105648 0 -0.154547
4 0.00386754 -0.00996393 -0.153928
4 0.00386754 0.00996393 -0.154921
4 0.00650117 -0.00996393 -0.153837
4 0.00650117 0.00996393 -0.154942
4 0.0133283 0 -0.154605
4 0.00918311 -0.00996393 -0.153769
4 0.00918311 0.00996393 -0.155029
4 0.0119142 -0.00996393 -0.153758
4 0.0119142 0.00996393 -0.155137
4 0.0161424 0 -0.154675
4 0.0146954 -0.00996393 -0.15382
4 0.0146954 0.00996393 -0.155212
4 0.0190081 0 -0.154748
4 0 -0.02 -0.156355
4 0 0.02 -0.154781
4 0.0175277 -0.00996393 -0.153949
4 0.0175277 0.00996393 -0.155233
4 0.00256965 -0.02 -0.156346
4 0.00256965 0.02 -0.154796
4 0.00518642 -0.02 -0.156312
4 0.00518642 0.02 -0.154864
4 0.00785119 -0.02 -0.156284
4 0.00785119 0.02 -0.155014
4 0.0219263 0 -0.154833
4 0.0105648 -0.02 -0.156302
4 0.0105648 0.02 -0.155212
4 0.0204118 -0.00996393 -0.154144
4 0.0204118 0.00996393 -0.155186
4 0.0133283 -0.02 -0.156385
4 0.0133283 0.02 -0.155389
4 0.0248981 0 -0.154971
4 0.0233489 -0.00996393 -0.154429
4 0.0233489 0.00996393 -0.155103
4 0.0161424 -0.02 -0.156544
4 0.0161424 0.02 -0.155479
4 0.0190081 -0.02 -0.156787
4 0.0190081 0.02 -0.155445
4 0.0279244 0 -0.155217
4 0.0263398 -0.00996393 -0.154849
4 0.0263398 0.00996393 -0.155039
4 0.0219263 -0.02 -0.157118
4 0.0219263 0.02 -0.155302
4 0.00128135 -0.0298918 -0.158437
4 0.00128135 0.0298918 -0.154406
4 0.00386754 -0.0298918 -0.15845
4 0.00386754 0.0298918 -0.154505
4 0.00650117 -0.0298918 -0.158451
4 0.00650117 0.0298918 -0.154702
4 0.0310063 0 -0.155609
4 0.0293856 -0.00996393 -0.15543
4 0.0293856 0.00996393 -0.155092
4 0.00918311 -0.0298918 -0.158494
4 0.00918311 0.0298918 -0.154994
4 0.0248981 -0.02 -0.157547
4 0.0248981 0.02 -0.15512
4 0.0119142 -0.0298918 -0.158595
4 0.0119142 0.0298918 -0.155297
4 0.0146954 -0.0298918 -0.158769
4 0.0146954 0.0298918 -0.155521
4 0.0324873 -0.00996393 -0.156136
4 0.0324873 0.00996393 -0.155329
4 0.0341446 0 -0.156144
4 0.0279244 -0.02 -0.158089
4 0.0279244 0.02 -0.154995
4 0.0175277 -0.0298918 -0.15904
4 0.0175277 0.0298918 -0.155568
4 0.0204118 -0.0298918 -0.159419
4 0.0204118 0.0298918 -0.155423
4 0.0310063 -0.02 -0.158732
4 0.0310063 0.02 -0.155026
4 0.0356458 -0.00996393 -0.156927
4 0.0356458 0.00996393 -0.155741
4 0.0373405 0 -0.156804
4 0.0233489 -0.0298918 -0.159884
4 0.0233489 0.0298918 -0.155134
4 0.0341446 -0.02 -0.159445
4 0.0341446 0.02 -0.155262
4 0.0263398 -0.0298918 -0.160436
4 0.0263398 0.0298918 -0.154843
4 0 0.04 -0.148352
4 0 -0.04 -0.161002
4 0.00256965 0.04 -0.148408
4 0.00256965 -0.04 -0.161025
4 0.0388623 -0.00996393 -0.157782
4 0.0388623 0.00996393 -0.156336
4 0.00518642 0.04 -0.148539
4 0.00518642 -0.04 -0.161068
4 0.040595 0 -0.15757
4 0.00785119 -0.04 -0.161141
4 0.00785119 0.04 -0.148709
4 0.0105648 -0.04 -0.161275
4 0.0105648 0.04 -0.148875
4 0.0293856 -0.0298918 -0.161059
4 0.0293856 0.0298918 -0.154646
4 0.0133283 -0.04 -0.161481
4 0.0133283 0.04 -0.148972
4 0.0373405 -0.02 -0.160189
4 0.0373405 0.02 -0.155705
4 0.0161424 -0.04 -0.161771
4 0.0161424 0.04 -0.148951
4 0.0421378 -0.00996393 -0.158644
4 0.0421378 0.00996393 -0.157104
4 0.0439092 0 -0.158403
4 0.0324873 -0.0298918 -0.161735
4 0.0324873 0.0298918 -0.15467
4 0.0190081 0.04 -0.148808
4 0.0190081 -0.04 -0.162152
4 0.040595 -0.02 -0.160917
4 0.040595 0.02 -0.156348
4 0.0219263 0.04 -0.148601
4 0.0219263 -0.04 -0.162612
4 0.0356458 -0.0298918 -0.162441
4 0.0356458 0.0298918 -0.154933
4 0.0454733 0.00996393 -0.158006
4 0.0454733 -0.00996393 -0.159463
4 0.0248981 0.04 -0.148448
4 0.0248981 -0.04 -0.163128
4 0.0472842 0 -0.159275
4 0.0439092 -0.02 -0.161593
4 0.0439092 0.02 -0.157156
4 0.0279244 0.04 -0.148468
4 0.0279244 -0.04 -0.163677
4 0.0388623 -0.0298918 -0.163101
4 0.0388623 0.0298918 -0.155436
4 0.00128135 0.0498197 -0.142109
4 0.00128135 -0.0498197 -0.163277
4 0.0488701 -0.00996393 -0.160253
4 0.0488701 0.00996393 -0.159001
4 0.00386754 0.0498197 -0.142218
4 0.00386754 -0.0498197 -0.163339
4 0.00650117 -0.0498197 -0.163432
4 0.00650117 0.0498197 -0.142327
4 0.0310063 0.04 -0.148745
4 0.0310063 -0.04 -0.164234
4 0.00918311 -0.0498197 -0.163586
4 0.00918311 0.0498197 -0.142404
4 0.0507211 0 -0.160164
4 0.0119142 0.0498197 -0.14239
4 0.0119142 -0.0498197 -0.16382
4 0.0472842 -0.02 -0.162206
4 0.0472842 0.02 -0.158071
4 0.0421378 -0.0298918 -0.163669
4 0.0421378 0.0298918 -0.15615
4 0.0146954 -0.0498197 -0.164137
4 0.0146954 0.0498197 -0.142259
4 0.0341446 0.04 -0.149309
4 0.0341446 -0.04 -0.164774
4 0.0175277 -0.0498197 -0.164539
4 0.0175277 0.0498197 -0.142032
4 0.0523291 -0.00996393 -0.161015
4 0.0523291 0.00996393 -0.160031
4 0.0204118 0.0498197 -0.141776
4 0.0204118 -0.0498197 -0.165019
4 0.054221 0 -0.161045
4 0.0454733 -0.0298918 -0.164153
4 0.0454733 0.0298918 -0.15701
4 0.0507211 -0.02 -0.162759
4 0.0507211 0.02 -0.159045
4 0.0373405 0.04 -0.150137
4 0.0373405 -0.04 -0.165265
4 0.0233489 0.0498197 -0.141633
4 0.0233489 -0.0498197 -0.165549
4 0.0263398 0.0498197 -0.141733
4 0.0263398 -0.0498197 -0.166083
4 0.0558515 -0.00996393 -0.161745
4 0.0558515 0.00996393 -0.161052
4 0.040595 0.04 -0.15118
4 0.040595 -0.04 -0.165671
4 0.0488701 0.0298918 -0.157927
4 0.0488701 -0.0298918 -0.164541
4 0.0577851 0 -0.161905
4 0.054221 -0.02 -0.163261
4 0.054221 0.02 -0.160047
4 0.0293856 0.0498197 -0.142189
4 0.0293856 -0.0498197 -0.166591
4 0.0439092 0.04 -0.152378
4 0.0439092 -0.04 -0.16598
4 0.0324873 0.0498197 -0.143007
4 0.0324873 -0.0498197 -0.167039
4 0 0.06 -0.144783
4 0 -0.06 -0.164746
4 0.00256965 0.06 -0.144806
4 0.00256965 -0.06 -0.164776
4 0.00518642 0.06 -0.144839
4 0.00518642 -0.06 -0.16485
4 0.0523291 -0.0298918 -0.164843
4 0.0523291 0.0298918 -0.1589
4 0.0594386 -0.00996393 -0.162467
4 0.0594386 0.00996393 -0.162035
4 0.00785119 0.06 -0.144862
4 0.00785119 -0.06 -0.164972
4 0.0105648 0.06 -0.144857
4 0.0105648 -0.06 -0.165156
4 0.0577851 -0.02 -0.163731
4 0.0577851 0.02 -0.161049
4 0.0356458 0.0498197 -0.144158
4 0.0356458 -0.0498197 -0.167404
4 0.0614146 0 -0.162745
4 0.0133283 0.06 -0.144774
4 0.0133283 -0.06 -0.165404
4 0.0472842 0.04 -0.153658
4 0.0472842 -0.04 -0.166194
4 0.0161424 0.06 -0.144581
4 0.0161424 -0.06 -0.165718
4 0.0190081 0.06 -0.14431
4 0.0190081 -0.06 -0.166088
4 0.0388623 0.0498197 -0.145558
4 0.0388623 -0.0498197 -0.167672
4 0.0558515 -0.0298918 -0.165084
4 0.0558515 0.0298918 -0.1599
4 0.0630915 -0.00996393 -0.163184
4 0.0630915 0.00996393 -0.162988
4 0.0219263 0.06 -0.144062
4 0.0219263 -0.06 -0.166498
4 0.0614146 -0.02 -0.164188
4 0.0614146 0.02 -0.162038
4 0.0507211 0.04 -0.154979
4 0.0507211 -0.04 -0.166315
4 0.0248981 0.06 -0.143958
4 0.0248981 -0.06 -0.166926
4 0.0651106 0 -0.163572
4 0.0421378 0.0498197 -0.147126
4 0.0421378 -0.0498197 -0.167835
4 0.0279244 0.06 -0.1441
4 0.0279244 -0.06 -0.167346
4 0.0594386 -0.0298918 -0.165291
4 0.0594386 0.0298918 -0.160911
4 0.054221 0.04 -0.156321
4 0.054221 -0.04 -0.166362
4 0.0454733 0.0498197 -0.148783
4 0.0454733 -0.0498197 -0.16789
4 0.0310063 0.06 -0.144542
4 0.0310063 -0.06 -0.167734
4 0.0668113 -0.00996393 -0.163884
4 0.0668113 0.00996393 -0.163932
4 0.0651106 -0.02 -0.164644
4 0.0651106 0.02 -0.163022
4 0.0688745 0 -0.164394
4 0.0341446 0.06 -0.145273
4 0.0341446 -0.06 -0.168069
4 0.00128135 0.0697475 -0.147174
4 0.00128135 -0.0697475 -0.165967
4 0.0488701 0.0498197 -0.150478
4 0.0488701 -0.0498197 -0.167846
4 0.0630915 -0.0298918 -0.165488
4 0.0630915 0.0298918 -0.161925
4 0.00386754 0.0697475 -0.147142
4 0.00386754 -0.0697475 -0.166014
4 0.00650117 0.0697475 -0.147088
4 0.00650117 -0.0697475 -0.166106
4 0.0577851 0.04 -0.157665
4 0.0577851 -0.04 -0.166372
4 0.00918311 0.0697475 -0.147054
4 0.00918311 -0.0697475 -0.166262
4 0.0373405 0.06 -0.146247
4 0.0373405 -0.06 -0.168338
4 0.0119142 0.0697475 -0.147011
4 0.0119142 -0.0697475 -0.16646
4 0.0146954 0.0697475 -0.146878
4 0.0146954 -0.0697475 -0.166712
4 0.0705994 -0.00996393 -0.164577
4 0.0705994 0.00996393 -0.164885
4 0.0688745 -0.02 -0.165111
4 0.0688745 0.02 -0.164016
4 0.0175277 0.0697475 -0.146607
4 0.0175277 -0.0697475 -0.167009
4 0.0523291 0.0498197 -0.152181
4 0.0523291 -0.0498197 -0.167707
4 0.040595 0.06 -0.147401
4 0.040595 -0.06 -0.168532
4 0.0204118 0.0697475 -0.146279
4 0.0204118 -0.0697475 -0.16733
4 0.0727073 0 -0.165226
4 0.0668113 -0.0298918 -0.165702
4 0.0668113 0.0298918 -0.162947
4 0.0614146 0.04 -0.159007
4 0.0614146 -0.04 -0.166387
4 0.0233489 0.0697475 -0.146012
4 0.0233489 -0.0697475 -0.167662
4 0.0439092 0.06 -0.14868
4 0.0439092 -0.06 -0.168649
4 0.0263398 0.0697475 -0.145899
4 0.0263398 -0.0697475 -0.168001
4 0.0558515 0.0498197 -0.15387
4 0.0558515 -0.0498197 -0.16751
4 0.074457 -0.00996393 -0.165272
4 0.074457 0.00996393 -0.165861
4 0.0727073 -0.02 -0.165609
4 0.0727073 0.02 -0.165036
4 0.0293856 0.0697475 -0.146017
4 0.0293856 -0.0697475 -0.168326
4 0.0472842 0.06 -0.150038
4 0.0472842 -0.06 -0.168693
4 0.0651106 0.04 -0.160357
4 0.0651106 -0.04 -0.166438
4 0.0766105 0 -0.166079
4 0.0705994 -0.0298918 -0.165962
4 0.0705994 0.0298918 -0.163991
4 0.0324873 0.0697475 -0.146385
4 0.0324873 -0.0697475 -0.168621
4 0.0594386 0.0498197 -0.155539
4 0.0594386 -0.0498197 -0.167313
4 0.0356458 0.0697475 -0.146971
4 0.0356458 -0.0697475 -0.168875
4 0.0507211 0.06 -0.151449
4 0.0507211 -0.06 -0.168692
4 0.0783853 -0.00996393 -0.165999
4 0.0783853 0.00996393 -0.16686
4 0.0766105 -0.02 -0.166155
4 0.0766105 0.02 -0.166101
4 0.0688745 -0.04 -0.166554
4 0.0688745 0.04 -0.161739
4 0.0388623 0.0697475 -0.147728
4 0.0388623 -0.0697475 -0.169081
4 0 0.08 -0.149389
4 0 -0.08 -0.166138
4 0.00256965 0.08 -0.14935
4 0.00256965 -0.08 -0.166157
4 0.00518642 0.08 -0.149359
4 0.00518642 -0.08 -0.166207
4 0.074457 -0.0298918 -0.166294
4 0.074457 0.0298918 -0.165083
4 0.00785119 0.08 -0.149503
4 0.00785119 -0.08 -0.166298
4 0.0630915 0.0498197 -0.157197
4 0.0630915 -0.0498197 -0.167164
4 0.0805853 0 -0.16697
4 0.0105648 0.08 -0.149719
4 0.0105648 -0.08 -0.166428
4 0.054221 0.06 -0.1529
4 0.054221 -0.06 -0.16869
4 0.0133283 0.08 -0.149952
4 0.0133283 -0.08 -0.166594
4 0.0421378 0.0697475 -0.148618
4 0.0421378 -0.0697475 -0.169234
4 0.0161424 0.08 -0.150115
4 0.0161424 -0.08 -0.166797
4 0.0190081 0.08 -0.150176
4 0.0190081 -0.08 -0.167029
4 0.0219263 0.08 -0.150175
4 0.0219263 -0.08 -0.167286
4 0.0727073 -0.04 -0.166755
4 0.0727073 0.04 -0.163185
4 0.0823856 -0.00996393 -0.166788
4 0.0823856 0.00996393 -0.167887
4 0.0805853 -0.02 -0.166768
4 0.0805853 0.02 -0.167226
4 0.0454733 0.0697475 -0.149612
4 0.0454733 -0.0697475 -0.169334
4 0.0577851 0.06 -0.154398
4 0.0577851 -0.06 -0.168736
4 0.0668113 -0.0498197 -0.167099
4 0.0668113 0.0498197 -0.158876
4 0.0248981 0.08 -0.150147
4 0.0248981 -0.08 -0.167566
4 0.0783853 -0.0298918 -0.166705
4 0.0783853 0.0298918 -0.166257
4 0.0846329 0 -0.167914
4 0.0279244 0.08 -0.150119
4 0.0279244 -0.08 -0.167868
4 0.0488701 0.0697475 -0.15069
4 0.0488701 -0.0697475 -0.169401
4 0.0310063 0.08 -0.150115
4 0.0310063 -0.08 -0.168188
4 0.0614146 0.06 -0.155965
4 0.0614146 -0.06 -0.168857
4 0.0705994 -0.0498197 -0.167139
4 0.0705994 0.0498197 -0.160618
4 0.0766105 -0.04 -0.167057
4 0.0766105 0.04 -0.164739
4 0.0846329 -0.02 -0.167471
4 0.0846329 0.02 -0.168421
4 0.0341446 0.08 -0.150144
4 0.0341446 -0.08 -0.168528
4 0.0864594 -0.00996393 -0.167669
4 0.0864594 0.00996393 -0.168945
4 0.0523291 0.0697475 -0.151841
4 0.0523291 -0.0697475 -0.1695
4 0.0823856 -0.0298918 -0.167209
4 0.0823856 0.0298918 -0.167532
4 0.0373405 0.08 -0.150207
4 0.0373405 -0.08 -0.16889
4 0.0651106 0.06 -0.157639
4 0.0651106 -0.06 -0.169062
4 0.0887548 0 -0.168927
4 0.0558515 0.0697475 -0.15308
4 0.0558515 -0.0697475 -0.1697
4 0.074457 -0.0498197 -0.167293
4 0.074457 0.0498197 -0.162476
4 0.00128135 0.0896754 -0.151224
4 0.00128135 -0.0896754 -0.166122
4 0.040595 0.08 -0.150302
4 0.040595 -0.08 -0.169279
4 0.00386754 0.0896754 -0.151089
4 0.00386754 -0.0896754 -0.166142
4 0.00650117 0.0896754 -0.151343
4 0.00650117 -0.0896754 -0.166188
4 0.0805853 -0.04 -0.167475
4 0.0805853 0.04 -0.166439
4 0.00918311 -0.0896754 -0.166263
4 0.00918311 0.0896754 -0.151758
4 0.0119142 0.0896754 -0.152298
4 0.0119142 -0.0896754 -0.166365
4 0.0146954 0.0896754 -0.152888
4 0.0146954 -0.0896754 -0.166491
4 0.0887548 0.02 -0.169694
4 0.0887548 -0.02 -0.16828
4 0.0906078 -0.00996393 -0.168657
4 0.0906078 0.00996393 -0.170051
4 0.0439092 0.08 -0.15044
4 0.0439092 -0.08 -0.169717
4 0.0688745 0.06 -0.159466
4 0.0688745 -0.06 -0.169358
4 0.0175277 0.0896754 -0.153374
4 0.0175277 -0.0896754 -0.16664
4 0.0864594 -0.0298918 -0.167821
4 0.0864594 0.0298918 -0.168923
4 0.0594386 0.0697475 -0.154438
4 0.0594386 -0.0697475 -0.170028
4 0.0204118 0.0896754 -0.153741
4 0.0204118 -0.0896754 -0.166817
4 0.0233489 0.0896754 -0.153961
4 0.0233489 -0.0896754 -0.167029
4 0.0783853 -0.0498197 -0.167579
4 0.0783853 0.0498197 -0.164507
4 0.0472842 0.08 -0.150611
4 0.0472842 -0.08 -0.170224
4 0.0929523 0 -0.170022
4 0.0263398 0.0896754 -0.153993
4 0.0263398 -0.0896754 -0.167279
4 0.0846329 0.04 -0.168317
4 0.0846329 -0.04 -0.168027
4 0.0630915 0.0697475 -0.155967
4 0.0630915 -0.0697475 -0.17047
4 0.0727073 0.06 -0.161493
4 0.0727073 -0.06 -0.169756
4 0.0293856 0.0896754 -0.15382
4 0.0293856 -0.0896754 -0.16758
4 0.0507211 0.08 -0.150849
4 0.0507211 -0.08 -0.170802
4 0.0929523 0.02 -0.171059
4 0.0929523 -0.02 -0.169202
4 0.0948324 -0.00996393 -0.169751
4 0.0948324 0.00996393 -0.171223
4 0.0324873 0.0896754 -0.153464
4 0.0324873 -0.0896754 -0.167943
4 0.0906078 -0.0298918 -0.16855
4 0.0906078 0.0298918 -0.170435
4 0.0823856 -0.0498197 -0.168022
4 0.0823856 0.0498197 -0.166759
4 0.0356458 0.0896754 -0.152954
4 0.0356458 -0.0896754 -0.168382
4 0.0668113 0.0697475 -0.157727
4 0.0668113 -0.0697475 -0.170999
4 0.054221 0.08 -0.151219
4 0.054221 -0.08 -0.171463
4 0.0972268 0 -0.171191
4 0.0766105 0.06 -0.163764
4 0.0766105 -0.06 -0.170255
4 0.0887548 0.04 -0.17039
4 0.0887548 -0.04 -0.168721
4 0.0388623 0.0896754 -0.152338
4 0.0388623 -0.0896754 -0.168911
4 0.0577851 0.08 -0.151767
4 0.0577851 -0.08 -0.172215
4 0.0421378 0.0896754 -0.151656
4 0.0421378 -0.0896754 -0.169551
4 0.0705994 0.0697475 -0.159764
4 0.0705994 -0.0697475 -0.171622
4 0.0972268 0.02 -0.172527
4 0.0972268 -0.02 -0.170229
4 0.0948324 -0.0298918 -0.169399
4 0.0948324 0.0298918 -0.17208
4 0.0991344 -0.00996393 -0.170922
4 0.0991344 0.00996393 -0.172449
4 0.0864594 0.0498197 -0.16927
4 0.0864594 -0.0498197 -0.168639
4 0 0.1 -0.147368
4 0 -0.1 -0.165544
4 0.00256965 0.1 -0.147393
4 0.00256965 -0.1 -0.165554
4 0.00518642 0.1 -0.147535
4 0.00518642 -0.1 -0.165575
4 0.00785119 0.1 -0.147913
4 0.00785119 -0.1 -0.165612
4 0.0805853 0.06 -0.16632
4 0.0805853 -0.06 -0.170839
4 0.0454733 0.0896754 -0.150965
4 0.0454733 -0.0896754 -0.170367
4 0.0105648 0.1 -0.148538
4 0.0105648 -0.1 -0.165668
4 0.0614146 0.08 -0.152561
4 0.0614146 -0.08 -0.173049
4 0.0133283 0.1 -0.149331
4 0.0133283 -0.1 -0.165741
4 0.0929523 0.04 -0.172665
4 0.0929523 -0.04 -0.169546
4 0.0161424 0.1 -0.150148
4 0.0161424 -0.1 -0.165833
4 0.10158 0 -0.172432
4 0.0190081 0.1 -0.150853
4 0.0190081 -0.1 -0.165948
4 0.074457 0.0697475 -0.162119
4 0.074457 -0.0697475 -0.172356
4 0.0488701 0.0896754 -0.150224
4 0.0488701 -0.0896754 -0.171355
4 0.0219263 0.1 -0.151373
4 0.0219263 -0.1 -0.166097
4 0.0248981 0.1 -0.151685
4 0.0248981 -0.1 -0.166295
4 0.0651106 0.08 -0.153665
4 0.0651106 -0.08 -0.173954
4 0.0906078 0.0498197 -0.172058
4 0.0906078 -0.0498197 -0.169423
4 0.10158 0.02 -0.174111
4 0.10158 -0.02 -0.171354
4 0.0991344 0.0298918 -0.173888
4 0.0991344 -0.0298918 -0.170362
4 0.0846329 0.06 -0.169187
4 0.0846329 -0.06 -0.171491
4 0.0279244 0.1 -0.151784
4 0.0279244 -0.1 -0.16656
4 0.0523291 0.0896754 -0.149637
4 0.0523291 -0.0896754 -0.172449
4 0.103515 -0.00996393 -0.172194
4 0.103515 0.00996393 -0.173733
4 0.0310063 0.1 -0.151688
4 0.0310063 -0.1 -0.166911
4 0.0783853 0.0697475 -0.164826
4 0.0783853 -0.0697475 -0.173151
4 0.0972268 0.04 -0.17515
4 0.0972268 -0.04 -0.170482
4 0.0688745 0.08 -0.155133
4 0.0688745 -0.08 -0.174913
4 0.0558515 0.0896754 -0.149251
4 0.0558515 -0.0896754 -0.173631
4 0.0341446 0.1 -0.151433
4 0.0341446 -0.1 -0.167368
4 0.106012 0 -0.173756
4 0.0373405 0.1 -0.151065
4 0.0373405 -0.1 -0.167952
4 0.0948324 0.0498197 -0.175119
4 0.0948324 -0.0498197 -0.17033
4 0.0887548 0.06 -0.172363
4 0.0887548 -0.06 -0.172193
4 0.0594386 0.0896754 -0.149164
4 0.0594386 -0.0896754 -0.174865
4 0.103515 -0.0298918 -0.171424
4 0.103515 0.0298918 -0.175884
4 0.106012 -0.02 -0.172562
4 0.106012 0.02 -0.175838
4 0.040595 0.1 -0.150633
4 0.040595 -0.1 -0.168682
4 0.0823856 0.0697475 -0.167911
4 0.0823856 -0.0697475 -0.173944
4 0.0727073 0.08 -0.156998
4 0.0727073 -0.08 -0.175911
4 0.107977 -0.00996393 -0.173519
4 0.107977 0.00996393 -0.175138
4 0.10158 0.04 -0.177849
4 0.10158 -0.04 -0.171505
4 0.0439092 0.1 -0.150197
4 0.0439092 -0.1 -0.169576
4 0.00128135 0.109603 -0.143186
4 0.00128135 -0.109603 -0.164826
4 0.0630915 0.0896754 -0.14946
4 0.0630915 -0.0896754 -0.176145
4 0.00386754 0.109603 -0.143397
4 0.00386754 -0.109603 -0.164836
4 0.00650117 0.109603 -0.143639
4 0.00650117 -0.109603 -0.164846
4 0.00918311 0.109603 -0.144254
4 0.00918311 -0.109603 -0.164868
4 0.0119142 0.109603 -0.145205
4 0.0119142 -0.109603 -0.1649
4 0.110526 0 -0.175169
4 0.0146954 0.109603 -0.146323
4 0.0146954 -0.109603 -0.164941
4 0.0472842 0.1 -0.149791
4 0.0472842 -0.1 -0.170646
4 0.0929523 0.06 -0.175821
4 0.0929523 -0.06 -0.172926
4 0.0766105 0.08 -0.15929
4 0.0766105 -0.08 -0.176917
4 0.0991344 0.0498197 -0.178446
4 0.0991344 -0.0498197 -0.171324
4 0.0175277 0.109603 -0.147417
4 0.0175277 -0.109603 -0.164998
4 0.0864594 0.0697475 -0.171367
4 0.0864594 -0.0697475 -0.174692
4 0.0204118 -0.109603 -0.165081
4 0.0204118 0.109603 -0.148296
4 0.0668113 0.0896754 -0.150205
4 0.0668113 -0.0896754 -0.17746
4 0.107977 -0.0298918 -0.17257
4 0.107977 0.0298918 -0.17809
4 0.0233489 0.109603 -0.148913
4 0.0233489 -0.109603 -0.16521
4 0.0507211 0.1 -0.149472
4 0.0507211 -0.1 -0.171893
4 0.110526 -0.02 -0.173831
4 0.110526 0.02 -0.177741
4 0.0263398 0.109603 -0.149284
4 0.0263398 -0.109603 -0.165412
4 0.11252 -0.00996393 -0.174894
4 0.11252 0.00996393 -0.176686
4 0.106012 -0.04 -0.172595
4 0.106012 0.04 -0.180767
4 0.0293856 0.109603 -0.149429
4 0.0293856 -0.109603 -0.165713
4 0.0805853 0.08 -0.162012
4 0.0805853 -0.08 -0.177879
4 0.054221 0.1 -0.149315
4 0.054221 -0.1 -0.173295
4 0.0705994 0.0896754 -0.151442
4 0.0705994 -0.0896754 -0.178777
4 0.0972268 0.06 -0.179532
4 0.0972268 -0.06 -0.173684
4 0.0324873 0.109603 -0.149401
4 0.0324873 -0.109603 -0.166139
4 0.0906078 0.0697475 -0.175145
4 0.0906078 -0.0697475 -0.175353
4 0.103515 -0.0498197 -0.172372
4 0.103515 0.0498197 -0.182012
4 0.115123 0 -0.176677
4 0.0356458 0.109603 -0.14924
4 0.0356458 -0.109603 -0.166718
4 0.0577851 0.1 -0.149366
4 0.0577851 -0.1 -0.17482
4 0.0388623 0.109603 -0.149008
4 0.0388623 -0.109603 -0.167473
4 0.11252 -0.0298918 -0.17378
4 0.11252 0.0298918 -0.180521
4 0.0846329 0.08 -0.165139
4 0.0846329 -0.08 -0.178733
4 0.074457 0.0896754 -0.153179
4 0.074457 -0.0896754 -0.180044
4 0.115123 -0.02 -0.17517
4 0.115123 0.02 -0.179824
4 0.0614146 0.1 -0.149682
4 0.0614146 -0.1 -0.176443
4 0.0421378 0.109603 -0.148757
4 0.0421378 -0.109603 -0.168426
4 0.110526 -0.04 -0.173738
4 0.110526 0.04 -0.183906
4 0.117146 -0.00996393 -0.176355
4 0.117146 0.00996393 -0.178342
4 0.0948324 0.0697475 -0.179189
4 0.0948324 -0.0697475 -0.175942
4 0.10158 0.06 -0.183457
4 0.10158 -0.06 -0.174471
4 0.0454733 0.109603 -0.148576
4 0.0454733 -0.109603 -0.16954
4 0.107977 -0.0498197 -0.173453
4 0.107977 0.0498197 -0.185821
4 0.0783853 0.0896754 -0.155452
4 0.0783853 -0.0896754 -0.181231
4 0.0651106 0.1 -0.150309
4 0.0651106 -0.1 -0.178134
4 0.0887548 0.08 -0.168637
4 0.0887548 -0.08 -0.179424
4 0.119804 -3.70074e-17 -0.178278
4 0 0.12 -0.15079
4 0 -0.12 -0.164131
4 0.0488701 0.109603 -0.148493
4 0.0488701 -0.109603 -0.170844
4 0.00256965 0.12 -0.150968
4 0.00256965 -0.12 -0.16414
4 0.00518642 0.12 -0.151282
4 0.00518642 -0.12 -0.164154
4 0.00785119 0.12 -0.151789
4 0.00785119 -0.12 -0.164171
4 0.0105648 0.12 -0.152728
4 0.0105648 -0.12 -0.164198
4 0.0133283 0.12 -0.153981
4 0.0133283 -0.12 -0.164232
4 0.117146 -0.0298918 -0.175076
4 0.117146 0.0298918 -0.183198
4 0.0161424 0.12 -0.155359
4 0.0161424 -0.12 -0.164277
4 0.0991344 0.0697475 -0.183452
4 0.0991344 -0.0697475 -0.176502
4 0.0688745 0.1 -0.151278
4 0.0688745 -0.1 -0.179843
4 0.0523291 0.109603 -0.148549
4 0.0523291 -0.109603 -0.172386
4 0.119804 -0.02 -0.176593
4 0.119804 0.02 -0.182088
4 0.0190081 0.12 -0.156673
4 0.0190081 -0.12 -0.164342
4 0.0823856 0.0896754 -0.158184
4 0.0823856 -0.0896754 -0.18228
4 0.106012 -0.06 -0.175293
4 0.106012 0.06 -0.187576
4 0.115123 -0.04 -0.174933
4 0.115123 0.04 -0.18726
4 0.0219263 0.12 -0.157801
4 0.0219263 -0.12 -0.164446
4 0.121857 -0.00996393 -0.177876
4 0.121857 0.00996393 -0.180113
4 0.0248981 0.12 -0.158694
4 0.0248981 -0.12 -0.164611
4 0.0929523 0.08 -0.172457
4 0.0929523 -0.08 -0.179935
4 0.0558515 0.109603 -0.148757
4 0.0558515 -0.109603 -0.174117
4 0.11252 0.0498197 -0.189841
4 0.11252 -0.0498197 -0.174565
4 0.0279244 0.12 -0.159331
4 0.0279244 -0.12 -0.164864
4 0.0727073 0.1 -0.152603
4 0.0727073 -0.1 -0.181499
4 0.0310063 0.12 -0.159704
4 0.0310063 -0.12 -0.165226
4 0.0864594 0.0896754 -0.161337
4 0.0864594 -0.0896754 -0.183101
4 0.124571 0 -0.179983
4 0.0594386 0.109603 -0.149143
4 0.0594386 -0.109603 -0.17602
4 0.0341446 0.12 -0.159841
4 0.0341446 -0.12 -0.165723
4 0.103515 -0.0697475 -0.177068
4 0.103515 0.0697475 -0.187874
4 0.121857 -0.0298918 -0.176481
4 0.121857 0.0298918 -0.186132
4 0.0373405 0.12 -0.159791
4 0.0373405 -0.12 -0.166375
4 0.110526 -0.06 -0.176156
4 0.110526 0.06 -0.191846
4 0.0972268 0.08 -0.17654
4 0.0972268 -0.08 -0.180282
4 0.0766105 0.1 -0.154284
4 0.0766105 -0.1 -0.183029
4 0.124571 -0.02 -0.178096
4 0.124571 0.02 -0.18454
4 0.119804 -0.04 -0.176184
4 0.119804 0.04 -0.190823
4 0.0630915 0.109603 -0.14973
4 0.0630915 -0.109603 -0.178048
4 0.040595 0.12 -0.159602
4 0.040595 -0.12 -0.1672
4 0.126655 -0.00996393 -0.179532
4 0.126655 0.00996393 -0.182002
4 0.117146 0.0498197 -0.19405
4 0.117146 -0.0498197 -0.175706
4 0.0906078 0.0896754 -0.164873
4 0.0906078 -0.0896754 -0.183651
4 0.0439092 0.12 -0.159337
4 0.0439092 -0.12 -0.168199
4 0.0668113 0.109603 -0.150532
4 0.0668113 -0.109603 -0.180143
4 0.0805853 0.1 -0.156313
4 0.0805853 -0.1 -0.184353
4 0.107977 -0.0697475 -0.17768
4 0.107977 0.0697475 -0.192449
4 0.0472842 0.12 -0.15905
4 0.0472842 -0.12 -0.169365
4 0.10158 0.08 -0.180827
4 0.10158 -0.08 -0.180503
4 0.129426 0 -0.181824
4 0.00128135 0.129531 -0.157922
4 0.00128135 -0.129531 -0.163326
4 0.00386754 0.129531 -0.15841
4 0.00386754 -0.129531 -0.163344
4 0.00650117 0.129531 -0.158729
4 0.00650117 -0.129531 -0.163359
4 0.115123 -0.06 -0.177063
4 0.115123 0.06 -0.196192
4 0.00918311 0.129531 -0.1596
4 0.00918311 -0.129531 -0.163383
4 0.0119142 0.129531 -0.160945
4 0.0119142 -0.129531 -0.163413
4 0.126655 -0.0298918 -0.177911
4 0.126655 0.0298918 -0.189324
4 0.0507211 0.12 -0.15878
4 0.0507211 -0.12 -0.170705
4 0.0146954 0.129531 -0.162571
4 0.0146954 -0.129531 -0.163448
4 0.0705994 0.109603 -0.151553
4 0.0705994 -0.109603 -0.182211
4 0.0948324 0.0896754 -0.168742
4 0.0948324 -0.0896754 -0.183929
4 0.0175277 0.129531 -0.164262
4 0.0175277 -0.129531 -0.163495
4 0.124571 -0.04 -0.177467
4 0.124571 0.04 -0.19459
4 0.129426 -0.02 -0.179678
4 0.129426 0.02 -0.18717
4 0.0846329 0.1 -0.158681
4 0.0846329 -0.1 -0.185383
4 0.0204118 0.129531 -0.165854
4 0.0204118 -0.129531 -0.16357
4 0.0233489 0.129531 -0.167263
4 0.0233489 -0.129531 -0.163695
4 0.121857 -0.0498197 -0.176854
4 0.121857 0.0498197 -0.19841
4 0.054221 0.12 -0.158559
4 0.054221 -0.12 -0.172208
4 0.131541 -0.00996393 -0.181376
4 0.131541 0.00996393 -0.183997
4 0.0263398 0.129531 -0.168416
4 0.0263398 -0.129531 -0.163894
4 0.11252 -0.0697475 -0.178348
4 0.11252 0.0697475 -0.197052
4 0.074457 0.109603 -0.152793
4 0.074457 -0.109603 -0.184151
4 0.106012 -0.08 -0.180653
4 0.106012 0.08 -0.185252
4 0.0293856 0.129531 -0.169256
4 0.0293856 -0.129531 -0.16419
4 0.0577851 0.12 -0.158402
4 0.0577851 -0.12 -0.173861
4 0.0324873 0.129531 -0.16975
4 0.0324873 -0.129531 -0.164602
4 0.0991344 0.0896754 -0.172863
4 0.0991344 -0.0896754 -0.183938
4 0.0887548 0.1 -0.161374
4 0.0887548 -0.1 -0.186047
4 0.119804 -0.06 -0.178015
4 0.119804 0.06 -0.200552
4 0.0356458 0.129531 -0.169952
4 0.0356458 -0.129531 -0.165151
4 0.134369 0 -0.183789
4 0.0783853 0.109603 -0.154208
4 0.0783853 -0.109603 -0.185854
4 0.0614146 0.12 -0.158327
4 0.0614146 -0.12 -0.17565
4 0.131541 -0.0298918 -0.179316
4 0.131541 0.0298918 -0.19275
4 0.0388623 0.129531 -0.169895
4 0.0388623 -0.129531 -0.16585
4 0.129426 -0.04 -0.178748
4 0.129426 0.04 -0.198537
4 0.134369 -0.02 -0.181339
4 0.134369 0.02 -0.189964
4 0.126655 -0.0498197 -0.17799
4 0.126655 0.0498197 -0.202934
4 0.0421378 0.129531 -0.169638
4 0.0421378 -0.129531 -0.166715
4 0.117146 -0.0697475 -0.179071
4 0.117146 0.0697475 -0.201565
4 0.110526 -0.08 -0.180784
4 0.110526 0.08 -0.189731
4 0.0651106 0.12 -0.158359
4 0.0651106 -0.12 -0.17754
4 0.0929523 0.1 -0.164371
4 0.0929523 -0.1 -0.186308
4 0.136516 -0.00996393 -0.183314
4 0.136516 0.00996393 -0.18611
4 0.103515 0.0896754 -0.177183
4 0.103515 -0.0896754 -0.183747
4 0.0823856 0.109603 -0.155862
4 0.0823856 -0.109603 -0.18721
4 0.0454733 0.129531 -0.16923
4 0.0454733 -0.129531 -0.167747
4 0.124571 -0.06 -0.179022
4 0.124571 0.06 -0.204885
4 0.0688745 0.12 -0.158512
4 0.0688745 -0.12 -0.179466
4 0.0488701 0.129531 -0.168723
4 0.0488701 -0.129531 -0.168932
4 0.139403 0 -0.185847
4 0.0972268 0.1 -0.167635
4 0.0972268 -0.1 -0.186162
4 0.0864594 0.109603 -0.157765
4 0.0864594 -0.109603 -0.188123
4 0.0523291 0.129531 -0.168155
4 0.0523291 -0.129531 -0.170242
4 0.136516 -0.0298918 -0.180788
4 0.136516 0.0298918 -0.196367
4 0 0.14 -0.170015
4 0 -0.14 -0.162416
4 0.00256965 0.14 -0.170224
4 0.00256965 -0.14 -0.16243
4 0.00518642 0.14 -0.17062
4 0.00518642 -0.14 -0.162453
4 0.115123 -0.08 -0.180947
4 0.115123 0.08 -0.194169
4 0.134369 -0.04 -0.180055
4 0.134369 0.04 -0.20261
4 0.00785119 0.14 -0.171252
4 0.00785119 -0.14 -0.16248
4 0.0727073 0.12 -0.158795
4 0.0727073 -0.12 -0.181339
4 0.107977 -0.0896754 -0.183431
4 0.107977 0.0896754 -0.181565
4 0.0105648 0.14 -0.17237
4 0.0105648 -0.14 -0.162515
4 0.121857 -0.0697475 -0.179884
4 0.121857 0.0697475 -0.205905
4 0.0133283 0.14 -0.173822
4 0.0133283 -0.14 -0.162557
4 0.131541 -0.0498197 -0.179127
4 0.131541 0.0498197 -0.207523
4 0.139403 -0.02 -0.183068
4 0.139403 0.02 -0.192912
4 0.0161424 0.14 -0.175399
4 0.0161424 -0.14 -0.162612
4 0.0558515 0.129531 -0.167561
4 0.0558515 -0.129531 -0.17166
4 0.0190081 0.14 -0.176927
4 0.0190081 -0.14 -0.162693
4 0.0219263 0.14 -0.178283
4 0.0219263 -0.14 -0.162819
4 0.141583 -0.00996393 -0.185274
4 0.141583 0.00996393 -0.188356
4 0.0248981 0.14 -0.179389
4 0.0248981 -0.14 -0.16301
4 0.0906078 0.109603 -0.15993
4 0.0906078 -0.109603 -0.188539
4 0.0766105 0.12 -0.159214
4 0.0766105 -0.12 -0.183059
4 0.0594386 0.129531 -0.16693
4 0.0594386 -0.129531 -0.17321
4 0.10158 0.1 -0.171127
4 0.10158 -0.1 -0.185653
4 0.129426 -0.06 -0.180096
4 0.129426 0.06 -0.209178
4 0.0279244 0.14 -0.180195
4 0.0279244 -0.14 -0.163281
4 0.0310063 0.14 -0.18068
4 0.0310063 -0.14 -0.163644
4 0.11252 -0.0896754 -0.183067
4 0.11252 0.0896754 -0.185937
4 0.119804 -0.08 -0.181207
4 0.119804 0.08 -0.198486
4 0.0630915 -0.129531 -0.174881
4 0.0630915 0.129531 -0.166289
4 0.0341446 0.14 -0.180858
4 0.0341446 -0.14 -0.164105
4 0.14453 -3.70074e-17 -0.187968
4 0.0805853 0.12 -0.159799
4 0.0805853 -0.12 -0.184511
4 0.126655 -0.0697475 -0.180824
4 0.126655 0.0697475 -0.210014
4 0.141583 -0.0298918 -0.182346
4 0.141583 0.0298918 -0.200158
4 0.0373405 0.14 -0.180768
4 0.0373405 -0.14 -0.16466
4 0.0948324 0.109603 -0.162349
4 0.0948324 -0.109603 -0.188401
4 0.139403 -0.04 -0.181447
4 0.139403 0.04 -0.206771
4 0.136516 0.0498197 -0.212141
4 0.136516 -0.0498197 -0.180323
4 0.106012 -0.1 -0.184859
4 0.106012 0.1 -0.174792
4 0.0668113 0.129531 -0.165674
4 0.0668113 -0.129531 -0.176649
4 0.040595 0.14 -0.18046
4 0.040595 -0.14 -0.165308
4 0.14453 -0.02 -0.184824
4 0.14453 0.02 -0.196011
4 0.0439092 0.14 -0.179997
4 0.0439092 -0.14 -0.166047
4 0.0846329 0.12 -0.160599
4 0.0846329 -0.12 -0.185575
4 0.146742 -0.00996393 -0.187189
4 0.146742 0.00996393 -0.190738
4 0.134369 -0.06 -0.181275
4 0.134369 0.06 -0.213419
4 0.0705994 0.129531 -0.16509
4 0.0705994 -0.129531 -0.178431
4 0.117146 -0.0896754 -0.18277
4 0.117146 0.0896754 -0.190238
4 0.0472842 0.14 -0.179434
4 0.0472842 -0.14 -0.16687
4 0.0991344 0.109603 -0.165014
4 0.0991344 -0.109603 -0.187748
4 0.124571 -0.08 -0.181643
4 0.124571 0.08 -0.20262
4 0.131541 0.0697475 -0.213984
4 0.131541 -0.0697475 -0.181904
4 0.0507211 0.14 -0.17881
4 0.0507211 -0.14 -0.167763
4 0.110526 -0.1 -0.183884
4 0.110526 0.1 -0.178568
4 0.0887548 0.12 -0.161649
4 0.0887548 -0.12 -0.186147
4 0.074457 0.129531 -0.164559
4 0.074457 -0.129531 -0.180152
4 0.00128135 0.149459 -0.181653
4 0.00128135 -0.149459 -0.161446
4 0.00386754 -0.149459 -0.161476
4 0.00386754 0.149459 -0.182006
4 0.00650117 0.149459 -0.182436
4 0.00650117 -0.149459 -0.161504
4 0.00918311 0.149459 -0.183366
4 0.00918311 -0.149459 -0.161543
4 0.14975 0 -0.190122
4 0.146742 -0.0298918 -0.183947
4 0.146742 0.0298918 -0.204101
4 0.0119142 0.149459 -0.184717
4 0.0119142 -0.149459 -0.16159
4 0.14453 -0.04 -0.18295
4 0.14453 0.04 -0.210959
4 0.141583 -0.0498197 -0.181641
4 0.141583 0.0498197 -0.216724
4 0.054221 0.14 -0.178151
4 0.054221 -0.14 -0.168724
4 0.0146954 0.149459 -0.186236
4 0.0146954 -0.149459 -0.161648
4 0.0175277 0.149459 -0.187735
4 0.0175277 -0.149459 -0.161728
4 0.103515 -0.109603 -0.186647
4 0.103515 0.109603 -0.167911
4 0.0204118 0.149459 -0.189086
4 0.0204118 -0.149459 -0.161848
4 0.14975 -0.02 -0.186552
4 0.14975 0.02 -0.199243
4 0.0233489 0.149459 -0.190176
4 0.0233489 -0.149459 -0.162028