# p  POINT_DATA 90431
# x  y  z  p
5 0 0 -0.195854
5 0.00256965 0 -0.195581
5 0.00518642 0 -0.195522
5 0.00785119 0 -0.196158
5 0.00128482 0.01 -0.209582
5 0.00128482 -0.01 -0.182126
5 0.0105648 0 -0.197223
5 0.00387803 0.01 -0.209215
5 0.00387803 -0.01 -0.181399
5 0.00651881 0.01 -0.209976
5 0.00651881 -0.01 -0.181497
5 0.0133283 0 -0.198732
5 0.00920802 0.01 -0.211305
5 0.00920802 -0.01 -0.181854
5 0.0119465 0.01 -0.213181
5 0.0119465 -0.01 -0.182551
5 0.0161424 0 -0.200638
5 0.0147353 0.01 -0.215543
5 0.0147353 -0.01 -0.183655
5 0.0190081 0 -0.202819
5 0 0.02 -0.215721
5 0 -0.02 -0.17505
5 0.00256965 0.02 -0.215808
5 0.00256965 -0.02 -0.174791
5 0.0175752 0.01 -0.21824
5 0.0175752 -0.01 -0.185114
5 0.00518642 0.02 -0.216309
5 0.00518642 -0.02 -0.174486
5 0.00785119 0.02 -0.217502
5 0.00785119 -0.02 -0.174451
5 0.0219263 0 -0.205147
5 0.0105648 0.02 -0.219418
5 0.0105648 -0.02 -0.174578
5 0.0204672 0.01 -0.22109
5 0.0204672 -0.01 -0.186834
5 0.0133283 0.02 -0.222014
5 0.0133283 -0.02 -0.174951
5 0.0248981 0 -0.207506
5 0.0234122 0.01 -0.223926
5 0.0234122 -0.01 -0.188739
5 0.0161424 0.02 -0.225159
5 0.0161424 -0.02 -0.175605
5 0.0190081 0.02 -0.228626
5 0.0190081 -0.02 -0.176523
5 0.0279244 0 -0.209801
5 0.0264113 0.01 -0.226577
5 0.0264113 -0.01 -0.190783
5 0.0219263 0.02 -0.232163
5 0.0219263 -0.02 -0.177679
5 0.00128482 0.03 -0.221859
5 0.00128482 -0.03 -0.167974
5 0.00387803 0.03 -0.222576
5 0.00387803 -0.03 -0.167664
5 0.00651881 0.03 -0.223468
5 0.00651881 -0.03 -0.167383
5 0.0310063 0 -0.21197
5 0.0294653 0.01 -0.228875
5 0.0294653 -0.01 -0.192969
5 0.00920802 0.03 -0.22526
5 0.00920802 -0.03 -0.167071
5 0.0248981 0.02 -0.23554
5 0.0248981 -0.02 -0.179047
5 0.0119465 0.03 -0.227927
5 0.0119465 -0.03 -0.166838
5 0.0147353 0.03 -0.231404
5 0.0147353 -0.03 -0.166762
5 0.0325754 0.01 -0.230797
5 0.0325754 -0.01 -0.195239
5 0.0341446 0 -0.213978
5 0.0279244 0.02 -0.23854
5 0.0279244 -0.02 -0.180614
5 0.0175752 0.03 -0.23545
5 0.0175752 -0.03 -0.166889
5 0.0204672 0.03 -0.239723
5 0.0204672 -0.03 -0.167257
5 0.0310063 0.02 -0.241009
5 0.0310063 -0.02 -0.182365
5 0.0357425 0.01 -0.232277
5 0.0357425 -0.01 -0.197599
5 0.0373405 0 -0.215807
5 0.0234122 0.03 -0.243914
5 0.0234122 -0.03 -0.167887
5 0.0341446 0.02 -0.242893
5 0.0341446 -0.02 -0.184284
5 0.0264113 0.03 -0.247743
5 0.0264113 -0.03 -0.168779
5 0 0.04 -0.214213
5 0 -0.04 -0.165844
5 0.00256965 0.04 -0.214735
5 0.00256965 -0.04 -0.165773
5 0.0389677 0.01 -0.233346
5 0.0389677 -0.01 -0.200009
5 0.00518642 0.04 -0.215607
5 0.00518642 -0.04 -0.165565
5 0.040595 0 -0.217474
5 0.00785119 0.04 -0.216793
5 0.00785119 -0.04 -0.165281
5 0.0105648 0.04 -0.218937
5 0.0105648 -0.04 -0.165003
5 0.0294653 0.03 -0.250964
5 0.0294653 -0.03 -0.169926
5 0.0133283 0.04 -0.221938
5 0.0133283 -0.04 -0.164778
5 0.0373405 0.02 -0.244196
5 0.0373405 -0.02 -0.18635
5 0.0161424 0.04 -0.225591
5 0.0161424 -0.04 -0.164654
5 0.0422521 0.01 -0.234142
5 0.0422521 -0.01 -0.202401
5 0.0439092 0 -0.218977
5 0.0325754 0.03 -0.253403
5 0.0325754 -0.03 -0.171329
5 0.0190081 0.04 -0.229653
5 0.0190081 -0.04 -0.164669
5 0.040595 0.02 -0.244963
5 0.040595 -0.02 -0.188516
5 0.0219263 0.04 -0.233849
5 0.0219263 -0.04 -0.164868
5 0.0357425 0.03 -0.255098
5 0.0357425 -0.03 -0.172969
5 0.0455967 0.01 -0.234743
5 0.0455967 -0.01 -0.204624
5 0.0248981 0.04 -0.237895
5 0.0248981 -0.04 -0.165298
5 0.0472842 0 -0.220261
5 0.0439092 0.02 -0.245258
5 0.0439092 -0.02 -0.190695
5 0.0279244 0.04 -0.241537
5 0.0279244 -0.04 -0.166
5 0.0389677 0.03 -0.256065
5 0.0389677 -0.03 -0.174824
5 0.0490026 0.01 -0.235258
5 0.0490026 -0.01 -0.206421
5 0.00128482 0.05 -0.206566
5 0.00128482 -0.05 -0.163713
5 0.00387803 0.05 -0.207937
5 0.00387803 -0.05 -0.163742
5 0.00651881 0.05 -0.208446
5 0.00651881 -0.05 -0.163469
5 0.0310063 0.04 -0.244562
5 0.0310063 -0.04 -0.167012
5 0.0507211 0 -0.221212
5 0.00920802 0.05 -0.209997
5 0.00920802 -0.05 -0.1632
5 0.0472842 0.02 -0.245135
5 0.0472842 -0.02 -0.192756
5 0.0119465 0.05 -0.212563
5 0.0119465 -0.05 -0.162903
5 0.0422521 0.03 -0.256301
5 0.0422521 -0.03 -0.176831
5 0.0147353 0.05 -0.215858
5 0.0147353 -0.05 -0.162611
5 0.0341446 0.04 -0.246844
5 0.0341446 -0.04 -0.168361
5 0.0175752 0.05 -0.219653
5 0.0175752 -0.05 -0.162354
5 0.052471 0.01 -0.235588
5 0.052471 -0.01 -0.207581
5 0.0204672 0.05 -0.223787
5 0.0204672 -0.05 -0.162175
5 0.054221 0 -0.221632
5 0.0507211 0.02 -0.24463
5 0.0507211 -0.02 -0.194565
5 0.0455967 0.03 -0.255845
5 0.0455967 -0.03 -0.178923
5 0.0373405 0.04 -0.248347
5 0.0373405 -0.04 -0.170041
5 0.0234122 0.05 -0.227973
5 0.0234122 -0.05 -0.162154
5 0.0264113 0.05 -0.23195
5 0.0264113 -0.05 -0.162372
5 0.056003 0.01 -0.235314
5 0.056003 -0.01 -0.208044
5 0.040595 0.04 -0.249053
5 0.040595 -0.04 -0.172003
5 0.0490026 0.03 -0.254696
5 0.0490026 -0.03 -0.181056
5 0.0577851 0 -0.221389
5 0.054221 0.02 -0.243691
5 0.054221 -0.02 -0.19605
5 0.0294653 0.05 -0.23549
5 0.0294653 -0.05 -0.162922
5 0.0439092 0.04 -0.248948
5 0.0439092 -0.04 -0.174177
5 0.0325754 0.05 -0.238392
5 0.0325754 -0.05 -0.163873
5 0 0.06 -0.204232
5 0 -0.06 -0.16502
5 0.00256965 0.06 -0.204987
5 0.00256965 -0.06 -0.165014
5 0.00518642 0.06 -0.205955
5 0.00518642 -0.06 -0.164901
5 0.0595998 0.01 -0.23412
5 0.0595998 -0.01 -0.208075
5 0.052471 0.03 -0.25298
5 0.052471 -0.03 -0.1832
5 0.00785119 0.06 -0.206835
5 0.00785119 -0.06 -0.16469
5 0.0105648 0.06 -0.208604
5 0.0105648 -0.06 -0.164475
5 0.0577851 0.02 -0.242166
5 0.0577851 -0.02 -0.197262
5 0.0614146 0 -0.220542
5 0.0357425 0.05 -0.240485
5 0.0357425 -0.05 -0.165275
5 0.0133283 0.06 -0.211082
5 0.0133283 -0.06 -0.164256
5 0.0472842 0.04 -0.248046
5 0.0472842 -0.04 -0.176496
5 0.0161424 0.06 -0.213961
5 0.0161424 -0.06 -0.164053
5 0.0190081 0.06 -0.216977
5 0.0190081 -0.06 -0.163893
5 0.0389677 0.05 -0.241741
5 0.0389677 -0.05 -0.167097
5 0.056003 0.03 -0.250883
5 0.056003 -0.03 -0.185372
5 0.0219263 0.06 -0.219916
5 0.0219263 -0.06 -0.163823
5 0.0632626 0.01 -0.232076
5 0.0632626 -0.01 -0.207897
5 0.0614146 0.02 -0.239923
5 0.0614146 -0.02 -0.198311
5 0.0507211 0.04 -0.246419
5 0.0507211 -0.04 -0.178901
5 0.0248981 0.06 -0.222591
5 0.0248981 -0.06 -0.16391
5 0.0651106 0 -0.219211
5 0.0422521 0.05 -0.242104
5 0.0422521 -0.05 -0.16926
5 0.0279244 0.06 -0.224851
5 0.0279244 -0.06 -0.164225
5 0.0595998 0.03 -0.248345
5 0.0595998 -0.03 -0.187555
5 0.054221 0.04 -0.244235
5 0.054221 -0.04 -0.181381
5 0.0310063 0.06 -0.226563
5 0.0310063 -0.06 -0.164845
5 0.0455967 0.05 -0.241544
5 0.0455967 -0.05 -0.171693
5 0.0669925 0.01 -0.229377
5 0.0669925 -0.01 -0.207493
5 0.0651106 0.02 -0.236984
5 0.0651106 -0.02 -0.199239
5 0.0688745 0 -0.21751
5 0.0341446 0.06 -0.227602
5 0.0341446 -0.06 -0.165842
5 0.0490026 0.05 -0.2401
5 0.0490026 -0.05 -0.174312
5 0.00128482 0.07 -0.201899
5 0.00128482 -0.07 -0.166328
5 0.0632626 0.03 -0.245152
5 0.0632626 -0.03 -0.189716
5 0.00387803 0.07 -0.203547
5 0.00387803 -0.07 -0.166273
5 0.0577851 0.04 -0.241624
5 0.0577851 -0.04 -0.183944
5 0.00651881 0.07 -0.20389
5 0.00651881 -0.07 -0.166118
5 0.00920802 0.07 -0.205009
5 0.00920802 -0.07 -0.165972
5 0.0373405 0.06 -0.227875
5 0.0373405 -0.06 -0.167258
5 0.0119465 0.07 -0.206846
5 0.0119465 -0.07 -0.165825
5 0.0707909 -0.01 -0.207005
5 0.0707909 0.01 -0.226163
5 0.0147353 0.07 -0.209063
5 0.0147353 -0.07 -0.165684
5 0.0688745 -0.02 -0.200077
5 0.0688745 0.02 -0.233446
5 0.0175752 0.07 -0.21127
5 0.0175752 -0.07 -0.165562
5 0.040595 0.06 -0.227349
5 0.040595 -0.06 -0.169085
5 0.052471 0.05 -0.2379
5 0.052471 -0.05 -0.177035
5 0.0727073 0 -0.215594
5 0.0204672 0.07 -0.213198
5 0.0204672 -0.07 -0.165481
5 0.0614146 0.04 -0.238598
5 0.0614146 -0.04 -0.186509
5 0.0669925 0.03 -0.241329
5 0.0669925 -0.03 -0.191851
5 0.0234122 0.07 -0.214709
5 0.0234122 -0.07 -0.165484
5 0.0439092 0.06 -0.226032
5 0.0439092 -0.06 -0.171282
5 0.0264113 0.07 -0.215734
5 0.0264113 -0.07 -0.16563
5 0.056003 0.05 -0.235178
5 0.056003 -0.05 -0.179917
5 0.0746589 -0.01 -0.206631
5 0.0746589 0.01 -0.222575
5 0.0727073 -0.02 -0.200888
5 0.0727073 0.02 -0.229391
5 0.0294653 0.07 -0.216229
5 0.0294653 -0.07 -0.165976
5 0.0472842 0.06 -0.224
5 0.0472842 -0.06 -0.173794
5 0.0651106 -0.04 -0.188981
5 0.0651106 0.04 -0.235131
5 0.0766105 0 -0.213618
5 0.0707909 -0.03 -0.193958
5 0.0707909 0.03 -0.236915
5 0.0325754 0.07 -0.216143
5 0.0325754 -0.07 -0.166608
5 0.0595998 0.05 -0.23209
5 0.0595998 -0.05 -0.182933
5 0.0507211 0.06 -0.22139
5 0.0507211 -0.06 -0.176551
5 0.0357425 0.07 -0.215387
5 0.0357425 -0.07 -0.167611
5 0.0766105 -0.02 -0.201675
5 0.0766105 0.02 -0.224977
5 0.0785979 -0.01 -0.206354
5 0.0785979 0.01 -0.21891
5 0.0688745 -0.04 -0.191324
5 0.0688745 0.04 -0.231215
5 0 0.08 -0.216327
5 0 -0.08 -0.166749
5 0.00256965 0.08 -0.216788
5 0.00256965 -0.08 -0.166681
5 0.0389677 0.07 -0.213888
5 0.0389677 -0.07 -0.169049
5 0.00518642 0.08 -0.217362
5 0.00518642 -0.08 -0.16657
5 0.00785119 0.08 -0.217821
5 0.00785119 -0.08 -0.16645
5 0.0746589 -0.03 -0.195959
5 0.0746589 0.03 -0.231909
5 0.0805853 0 -0.211683
5 0.0632626 0.05 -0.228803
5 0.0632626 -0.05 -0.185834
5 0.0105648 0.08 -0.218657
5 0.0105648 -0.08 -0.166279
5 0.054221 0.06 -0.218384
5 0.054221 -0.06 -0.1795
5 0.0133283 0.08 -0.219687
5 0.0133283 -0.08 -0.16606
5 0.0161424 0.08 -0.220626
5 0.0161424 -0.08 -0.165775
5 0.0422521 0.07 -0.21166
5 0.0422521 -0.07 -0.170934
5 0.0190081 0.08 -0.221145
5 0.0190081 -0.08 -0.165426
5 0.0219263 0.08 -0.221035
5 0.0219263 -0.08 -0.16504
5 0.0727073 -0.04 -0.19355
5 0.0727073 0.04 -0.226866
5 0.0805853 -0.02 -0.202421
5 0.0805853 0.02 -0.220432
5 0.0826091 -0.01 -0.206117
5 0.0826091 0.01 -0.215349
5 0.0577851 0.06 -0.215141
5 0.0577851 -0.06 -0.182587
5 0.0455967 0.07 -0.208821
5 0.0455967 -0.07 -0.173242
5 0.0669925 -0.05 -0.188525
5 0.0669925 0.05 -0.22524
5 0.0248981 0.08 -0.220206
5 0.0248981 -0.08 -0.16468
5 0.0785979 -0.03 -0.197757
5 0.0785979 0.03 -0.226512
5 0.0846329 0 -0.209874
5 0.0279244 0.08 -0.218631
5 0.0279244 -0.08 -0.16442
5 0.0490026 0.07 -0.205536
5 0.0490026 -0.07 -0.175929
5 0.0310063 0.08 -0.216311
5 0.0310063 -0.08 -0.164345
5 0.0614146 -0.06 -0.185681
5 0.0614146 0.06 -0.211789
5 0.0766105 -0.04 -0.195707
5 0.0766105 0.04 -0.22216
5 0.0707909 -0.05 -0.190963
5 0.0707909 0.05 -0.221375
5 0.0846329 -0.02 -0.203182
5 0.0846329 0.02 -0.215941
5 0.0341446 0.08 -0.213239
5 0.0341446 -0.08 -0.164547
5 0.0866939 -0.01 -0.205993
5 0.0866939 0.01 -0.212038
5 0.052471 0.07 -0.202025
5 0.052471 -0.07 -0.17893
5 0.0826091 -0.03 -0.199457
5 0.0826091 0.03 -0.220954
5 0.0373405 0.08 -0.209384
5 0.0373405 -0.08 -0.165119
5 0.0651106 -0.06 -0.188651
5 0.0651106 0.06 -0.208373
5 0.0887548 0 -0.208308
5 0.056003 0.07 -0.198432
5 0.056003 -0.07 -0.18212
5 0.040595 0.08 -0.204733
5 0.040595 -0.08 -0.166142
5 0.0746589 -0.05 -0.19332
5 0.0746589 0.05 -0.217262
5 0.0805853 -0.04 -0.197825
5 0.0805853 0.04 -0.217223
5 0.00128482 0.09 -0.230755
5 0.00128482 -0.09 -0.167171
5 0.00387803 0.09 -0.23095
5 0.00387803 -0.09 -0.166953
5 0.00651881 0.09 -0.231061
5 0.00651881 -0.09 -0.166934
5 0.00920802 0.09 -0.231325
5 0.00920802 -0.09 -0.166775
5 0.0119465 0.09 -0.23145
5 0.0119465 -0.09 -0.166544
5 0.0887548 -0.02 -0.204046
5 0.0887548 0.02 -0.211679
5 0.0147353 0.09 -0.231388
5 0.0147353 -0.09 -0.166186
5 0.0439092 0.08 -0.199362
5 0.0439092 -0.08 -0.167664
5 0.0688745 -0.06 -0.191437
5 0.0688745 0.06 -0.204888
5 0.0908536 -0.01 -0.206095
5 0.0908536 0.01 -0.209106
5 0.0175752 0.09 -0.230783
5 0.0175752 -0.09 -0.165669
5 0.0866939 -0.03 -0.20116
5 0.0866939 0.03 -0.215422
5 0.0595998 0.07 -0.194863
5 0.0595998 -0.07 -0.185379
5 0.0204672 0.09 -0.22933
5 0.0204672 -0.09 -0.164992
5 0.0472842 0.08 -0.193461
5 0.0472842 -0.08 -0.169687
5 0.0929523 0 -0.207068
5 0.0234122 0.09 -0.226903
5 0.0234122 -0.09 -0.164202
5 0.0785979 -0.05 -0.195794
5 0.0785979 0.05 -0.212954
5 0.0846329 -0.04 -0.199934
5 0.0846329 0.04 -0.212165
5 0.0264113 0.09 -0.223476
5 0.0264113 -0.09 -0.163402
5 0.0727073 -0.06 -0.194067
5 0.0727073 0.06 -0.201324
5 0.0632626 -0.07 -0.188581
5 0.0632626 0.07 -0.191399
5 0.0294653 0.09 -0.219083
5 0.0294653 -0.09 -0.162672
5 0.0507211 0.08 -0.187291
5 0.0507211 -0.08 -0.172173
5 0.0929523 -0.02 -0.205108
5 0.0929523 0.02 -0.207791
5 0.0950896 -0.01 -0.206566
5 0.0950896 0.01 -0.206504
5 0.0908536 -0.03 -0.202938
5 0.0908536 0.03 -0.210148
5 0.0325754 0.09 -0.213788
5 0.0325754 -0.09 -0.162122
5 0.0826091 -0.05 -0.198293
5 0.0826091 0.05 -0.208472
5 0.054221 0.08 -0.181134
5 0.054221 -0.08 -0.17505
5 0.0357425 0.09 -0.207637
5 0.0357425 -0.09 -0.161847
5 0.0669925 -0.07 -0.191665
5 0.0669925 0.07 -0.18805
5 0.0972268 0 -0.206241
5 0.0766105 -0.06 -0.19664
5 0.0766105 0.06 -0.197696
5 0.0887548 -0.04 -0.202092
5 0.0887548 0.04 -0.207111
5 0.0389677 0.09 -0.200624
5 0.0389677 -0.09 -0.161969
5 0.0577851 -0.08 -0.178212
5 0.0577851 0.08 -0.175236
5 0.0972268 -0.02 -0.206453
5 0.0972268 0.02 -0.204394
5 0.0422521 0.09 -0.192756
5 0.0422521 -0.09 -0.162617
5 0.0707909 -0.07 -0.194597
5 0.0707909 0.07 -0.184885
5 0.0950896 -0.03 -0.204834
5 0.0950896 0.03 -0.205406
5 0.0994033 -0.01 -0.207458
5 0.0994033 0.01 -0.204435
5 0 0.1 -0.224547
5 0 -0.1 -0.165551
5 0.00256965 0.1 -0.224459
5 0.00256965 -0.1 -0.165538
5 0.0866939 -0.05 -0.200826
5 0.0866939 0.05 -0.20381
5 0.00518642 0.1 -0.224425
5 0.00518642 -0.1 -0.165482
5 0.00785119 0.1 -0.224605
5 0.00785119 -0.1 -0.165338
5 0.0805853 -0.06 -0.199184
5 0.0805853 0.06 -0.194052
5 0.0105648 0.1 -0.224867
5 0.0105648 -0.1 -0.165079
5 0.0614146 -0.08 -0.181545
5 0.0614146 0.08 -0.169808
5 0.0133283 0.1 -0.225121
5 0.0133283 -0.1 -0.164668
5 0.0455967 0.09 -0.18421
5 0.0455967 -0.09 -0.163864
5 0.0929523 -0.04 -0.204324
5 0.0929523 0.04 -0.202318
5 0.0161424 0.1 -0.225206
5 0.0161424 -0.1 -0.164052
5 0.10158 0 -0.205938
5 0.0190081 0.1 -0.224861
5 0.0190081 -0.1 -0.16322
5 0.0746589 -0.07 -0.197389
5 0.0746589 0.07 -0.181774
5 0.0219263 0.1 -0.223908
5 0.0219263 -0.1 -0.162208
5 0.0490026 0.09 -0.175275
5 0.0490026 -0.09 -0.165712
5 0.0248981 0.1 -0.222283
5 0.0248981 -0.1 -0.161089
5 0.0651106 -0.08 -0.184957
5 0.0651106 0.08 -0.165012
5 0.10158 -0.02 -0.208156
5 0.10158 0.02 -0.201602
5 0.0908536 -0.05 -0.203447
5 0.0908536 0.05 -0.199064
5 0.0846329 -0.06 -0.201679
5 0.0846329 0.06 -0.190419
5 0.0279244 0.1 -0.220004
5 0.0279244 -0.1 -0.159958
5 0.0994033 -0.03 -0.206955
5 0.0994033 0.03 -0.201232
5 0.052471 0.09 -0.166326
5 0.052471 -0.09 -0.168122
5 0.103796 -0.01 -0.208837
5 0.103796 0.01 -0.203021
5 0.0310063 0.1 -0.217116
5 0.0310063 -0.1 -0.158929
5 0.0972268 -0.04 -0.206639
5 0.0972268 0.04 -0.197994
5 0.0785979 -0.07 -0.200057
5 0.0785979 0.07 -0.178794
5 0.0688745 -0.08 -0.188369
5 0.0688745 0.08 -0.160942
5 0.0341446 0.1 -0.213639
5 0.0341446 -0.1 -0.158122
5 0.056003 0.09 -0.157751
5 0.056003 -0.09 -0.171031
5 0.106012 0 -0.206232
5 0.0373405 0.1 -0.209558
5 0.0373405 -0.1 -0.157657
5 0.0887548 -0.06 -0.204162
5 0.0887548 0.06 -0.186834
5 0.0950896 -0.05 -0.206077
5 0.0950896 0.05 -0.194654
5 0.106012 -0.02 -0.210267
5 0.106012 0.02 -0.199504
5 0.040595 0.1 -0.204897
5 0.040595 -0.1 -0.157671
5 0.0595998 -0.09 -0.174321
5 0.0595998 0.09 -0.149897
5 0.103796 -0.03 -0.209373
5 0.103796 0.03 -0.197717
5 0.0727073 -0.08 -0.191721
5 0.0727073 0.08 -0.157637
5 0.0826091 -0.07 -0.202592
5 0.0826091 0.07 -0.175988
5 0.108269 -0.01 -0.210752
5 0.108269 0.01 -0.202317
5 0.10158 -0.04 -0.209084
5 0.10158 0.04 -0.194212
5 0.0439092 0.1 -0.199727
5 0.0439092 -0.1 -0.158304
5 0.00128482 0.11 -0.218338
5 0.00128482 -0.11 -0.163931
5 0.0632626 -0.09 -0.177901
5 0.0632626 0.09 -0.143072
5 0.00387803 0.11 -0.217793
5 0.00387803 -0.11 -0.164097
5 0.00651881 0.11 -0.217897
5 0.00651881 -0.11 -0.163944
5 0.00920802 0.11 -0.218138
5 0.00920802 -0.11 -0.1637
5 0.110526 0 -0.207184
5 0.0472842 0.1 -0.19417
5 0.0472842 -0.1 -0.159616
5 0.0929523 -0.06 -0.206652
5 0.0929523 0.06 -0.183438
5 0.0119465 0.11 -0.218553
5 0.0119465 -0.11 -0.163297
5 0.0766105 -0.08 -0.194973
5 0.0766105 0.08 -0.155082
5 0.0147353 0.11 -0.219092
5 0.0147353 -0.11 -0.162644
5 0.0994033 -0.05 -0.208693
5 0.0994033 0.05 -0.190681
5 0.0175752 0.11 -0.21956
5 0.0175752 -0.11 -0.161708
5 0.0866939 -0.07 -0.205008
5 0.0866939 0.07 -0.173406
5 0.0204672 0.11 -0.219772
5 0.0204672 -0.11 -0.160509
5 0.0507211 0.1 -0.188385
5 0.0507211 -0.1 -0.161594
5 0.0669925 -0.09 -0.18168
5 0.0669925 0.09 -0.137526
5 0.110526 -0.02 -0.212811
5 0.110526 0.02 -0.198214
5 0.108269 -0.03 -0.212106
5 0.108269 0.03 -0.194959
5 0.0234122 0.11 -0.219627
5 0.0234122 -0.11 -0.159127
5 0.0264113 0.11 -0.219127
5 0.0264113 -0.11 -0.157625
5 0.112825 -0.01 -0.21323
5 0.112825 0.01 -0.202438
5 0.106012 -0.04 -0.211683
5 0.106012 0.04 -0.191099
5 0.0805853 -0.08 -0.198088
5 0.0805853 0.08 -0.153146
5 0.054221 0.1 -0.182533
5 0.054221 -0.1 -0.164186
5 0.0294653 0.11 -0.218327
5 0.0294653 -0.11 -0.156133
5 0.0972268 -0.06 -0.209139
5 0.0972268 0.06 -0.180428
5 0.0707909 -0.09 -0.185536
5 0.0707909 0.09 -0.133304
5 0.0908536 -0.07 -0.20737
5 0.0908536 0.07 -0.171054
5 0.0325754 0.11 -0.217264
5 0.0325754 -0.11 -0.154787
5 0.115123 0 -0.208957
5 0.103796 -0.05 -0.211317
5 0.103796 0.05 -0.187217
5 0.0577851 -0.1 -0.167296
5 0.0577851 0.1 -0.176733
5 0.0357425 0.11 -0.215865
5 0.0357425 -0.11 -0.153732
5 0.0846329 -0.08 -0.201028
5 0.0846329 0.08 -0.151744
5 0.0389677 0.11 -0.214104
5 0.0389677 -0.11 -0.153078
5 0.112825 -0.03 -0.215156
5 0.112825 0.03 -0.193142
5 0.115123 -0.02 -0.215824
5 0.115123 0.02 -0.197986
5 0.0746589 -0.09 -0.189365
5 0.0746589 0.09 -0.130584
5 0.0614146 -0.1 -0.1708
5 0.0614146 0.1 -0.171082
5 0.110526 -0.04 -0.214432
5 0.110526 0.04 -0.188808
5 0.0422521 0.11 -0.212101
5 0.0422521 -0.11 -0.153019
5 0.117464 -0.01 -0.216454
5 0.117464 0.01 -0.203706
5 0.10158 -0.06 -0.211649
5 0.10158 0.06 -0.177906
5 0.0950896 -0.07 -0.209716
5 0.0950896 0.07 -0.16898
5 0.0455967 0.11 -0.209841
5 0.0455967 -0.11 -0.153714
5 0.108269 -0.05 -0.213937
5 0.108269 0.05 -0.1845
5 0.0651106 -0.1 -0.174585
5 0.0651106 0.1 -0.165653
5 0.0887548 -0.08 -0.203767
5 0.0887548 0.08 -0.150806
5 0.0785979 -0.09 -0.193081
5 0.0785979 0.09 -0.129177
5 0.119804 -3.70074e-17 -0.211961
5 0 0.12 -0.211999
5 0 -0.12 -0.164548
5 0.00256965 0.12 -0.211789
5 0.00256965 -0.12 -0.16469
5 0.00518642 0.12 -0.211516
5 0.00518642 -0.12 -0.164769
5 0.00785119 0.12 -0.211419
5 0.00785119 -0.12 -0.164625
5 0.0490026 0.11 -0.207353
5 0.0490026 -0.11 -0.155175
5 0.0105648 0.12 -0.211404
5 0.0105648 -0.12 -0.164423
5 0.0133283 0.12 -0.211509
5 0.0133283 -0.12 -0.164111
5 0.0161424 0.12 -0.21173
5 0.0161424 -0.12 -0.163639
5 0.117464 -0.03 -0.218458
5 0.117464 0.03 -0.192658
5 0.0688745 -0.1 -0.178523
5 0.0688745 0.1 -0.160466
5 0.119804 -0.02 -0.219394
5 0.119804 0.02 -0.199236
5 0.0190081 0.12 -0.212052
5 0.0190081 -0.12 -0.162958
5 0.0994033 -0.07 -0.212071
5 0.0994033 0.07 -0.167397
5 0.106012 -0.06 -0.214216
5 0.106012 0.06 -0.175954
5 0.052471 0.11 -0.204586
5 0.052471 -0.11 -0.157368
5 0.115123 -0.04 -0.217319
5 0.115123 0.04 -0.187501
5 0.0219263 0.12 -0.212497
5 0.0219263 -0.12 -0.162045
5 0.0826091 -0.09 -0.196624
5 0.0826091 0.09 -0.128624
5 0.0248981 0.12 -0.213146
5 0.0248981 -0.12 -0.160944
5 0.122188 -0.01 -0.220863
5 0.122188 0.01 -0.206825
5 0.0929523 -0.08 -0.20633
5 0.0929523 0.08 -0.150248
5 0.0279244 0.12 -0.214131
5 0.0279244 -0.12 -0.159777
5 0.112825 -0.05 -0.216533
5 0.112825 0.05 -0.18263
5 0.056003 0.11 -0.201466
5 0.056003 -0.11 -0.160225
5 0.0727073 -0.1 -0.182463
5 0.0727073 0.1 -0.155574
5 0.0310063 0.12 -0.215592
5 0.0310063 -0.12 -0.158693
5 0.124571 0 -0.216699
5 0.0341446 0.12 -0.217545
5 0.0341446 -0.12 -0.157856
5 0.0866939 -0.09 -0.199891
5 0.0866939 0.09 -0.128957
5 0.0595998 -0.11 -0.163608
5 0.0595998 0.11 -0.197818
5 0.103796 -0.07 -0.214518
5 0.103796 0.07 -0.166327
5 0.0373405 0.12 -0.21986
5 0.0373405 -0.12 -0.157385
5 0.110526 -0.06 -0.21683
5 0.110526 0.06 -0.174696
5 0.122188 -0.03 -0.221801
5 0.122188 0.03 -0.193757
5 0.0972268 -0.08 -0.208804
5 0.0972268 0.08 -0.15013
5 0.0766105 -0.1 -0.186301
5 0.0766105 0.1 -0.151062
5 0.124571 -0.02 -0.223726
5 0.124571 0.02 -0.202136
5 0.119804 -0.04 -0.220352
5 0.119804 0.04 -0.187377
5 0.040595 0.12 -0.222172
5 0.040595 -0.12 -0.157401
5 0.0632626 -0.11 -0.167371
5 0.0632626 0.11 -0.19354
5 0.126999 -0.01 -0.227001
5 0.126999 0.01 -0.212109
5 0.117464 -0.05 -0.219132
5 0.117464 0.05 -0.181576
5 0.0439092 0.12 -0.224081
5 0.0439092 -0.12 -0.158038
5 0.0908536 -0.09 -0.202802
5 0.0908536 0.09 -0.129808
5 0.0805853 -0.1 -0.190011
5 0.0805853 0.1 -0.146876
5 0.0669925 -0.11 -0.17139
5 0.0669925 0.11 -0.188473
5 0.108269 -0.07 -0.217092
5 0.108269 0.07 -0.165771
5 0.0472842 0.12 -0.225463
5 0.0472842 -0.12 -0.159324
5 0.10158 -0.08 -0.211328
5 0.10158 0.08 -0.150525
5 0.129426 0 -0.223345
5 0.115123 -0.06 -0.219465
5 0.115123 0.06 -0.174194
5 0.00128482 0.13 -0.205661
5 0.00128482 -0.13 -0.165166
5 0.00387803 0.13 -0.205365
5 0.00387803 -0.13 -0.165566
5 0.00651881 0.13 -0.20501
5 0.00651881 -0.13 -0.165468
5 0.0507211 0.12 -0.226407
5 0.0507211 -0.12 -0.161223
5 0.00920802 0.13 -0.204631
5 0.00920802 -0.13 -0.165389
5 0.126999 -0.03 -0.225241
5 0.126999 0.03 -0.195854
5 0.0119465 0.13 -0.204295
5 0.0119465 -0.13 -0.165305
5 0.0707909 -0.11 -0.175488
5 0.0707909 0.11 -0.182559
5 0.0147353 0.13 -0.204094
5 0.0147353 -0.13 -0.165199
5 0.124571 -0.04 -0.223586
5 0.124571 0.04 -0.18846
5 0.0950896 -0.09 -0.205433
5 0.0950896 0.09 -0.131149
5 0.129426 -0.02 -0.229196
5 0.129426 0.02 -0.206593
5 0.0846329 -0.1 -0.193542
5 0.0846329 0.1 -0.143037
5 0.0175752 0.13 -0.204175
5 0.0175752 -0.13 -0.165003
5 0.0204672 0.13 -0.204702
5 0.0204672 -0.13 -0.164613
5 0.054221 -0.12 -0.163708
5 0.054221 0.12 -0.2265
5 0.122188 -0.05 -0.222018
5 0.122188 0.05 -0.18152
5 0.0234122 0.13 -0.205889
5 0.0234122 -0.13 -0.16393
5 0.131897 -0.01 -0.234982
5 0.131897 0.01 -0.219293
5 0.0264113 0.13 -0.207941
5 0.0264113 -0.13 -0.163096
5 0.112825 -0.07 -0.219758
5 0.112825 0.07 -0.165882
5 0.106012 -0.08 -0.213999
5 0.106012 0.08 -0.151437
5 0.0746589 -0.11 -0.179463
5 0.0746589 0.11 -0.175849
5 0.0577851 -0.12 -0.166698
5 0.0577851 0.12 -0.225132
5 0.0294653 0.13 -0.21113
5 0.0294653 -0.13 -0.162252
5 0.0887548 -0.1 -0.1968
5 0.0887548 0.1 -0.139772
5 0.119804 -0.06 -0.222159
5 0.119804 0.06 -0.174519
5 0.0325754 0.13 -0.215648
5 0.0325754 -0.13 -0.161599
5 0.0994033 -0.09 -0.207999
5 0.0994033 0.09 -0.132993
5 0.134369 0 -0.231536
5 0.0614146 -0.12 -0.170069
5 0.0614146 0.12 -0.222439
5 0.0357425 0.13 -0.221403
5 0.0357425 -0.13 -0.161307
5 0.0785979 -0.11 -0.183295
5 0.0785979 0.11 -0.168634
5 0.131897 -0.03 -0.229564
5 0.131897 0.03 -0.199118
5 0.129426 -0.04 -0.227099
5 0.129426 0.04 -0.190623
5 0.0389677 0.13 -0.228068
5 0.0389677 -0.13 -0.161425
5 0.134369 -0.02 -0.235939
5 0.134369 0.02 -0.212507
5 0.110526 -0.08 -0.216817
5 0.110526 0.08 -0.152928
5 0.126999 -0.05 -0.225283
5 0.126999 0.05 -0.182709
5 0.0651106 -0.12 -0.173687
5 0.0651106 0.12 -0.218562
5 0.0929523 -0.1 -0.199768
5 0.0929523 0.1 -0.137176
5 0.0422521 0.13 -0.234416
5 0.0422521 -0.13 -0.162083
5 0.117464 -0.07 -0.222437
5 0.117464 0.07 -0.16669
5 0.136886 -0.01 -0.244091
5 0.136886 0.01 -0.227784
5 0.103796 -0.09 -0.210725
5 0.103796 0.09 -0.135382
5 0.0826091 -0.11 -0.187045
5 0.0826091 0.11 -0.161066
5 0.0455967 0.13 -0.239966
5 0.0455967 -0.13 -0.163337
5 0.124571 -0.06 -0.224972
5 0.124571 0.06 -0.175803
5 0.0688745 -0.12 -0.177401
5 0.0688745 0.12 -0.213397
5 0.0490026 0.13 -0.244691
5 0.0490026 -0.13 -0.16507
5 0.139403 0 -0.240697
5 0.0972268 -0.1 -0.202558
5 0.0972268 0.1 -0.135256
5 0 0.14 -0.198196
5 0 -0.14 -0.16786
5 0.00256965 0.14 -0.198132
5 0.00256965 -0.14 -0.167993
5 0.0866939 -0.11 -0.19061
5 0.0866939 0.11 -0.1535
5 0.00518642 0.14 -0.197903
5 0.00518642 -0.14 -0.168116
5 0.136886 -0.03 -0.235123
5 0.136886 0.03 -0.203838
5 0.052471 0.13 -0.249
5 0.052471 -0.13 -0.167281
5 0.115123 -0.08 -0.219722
5 0.115123 0.08 -0.155138
5 0.134369 -0.04 -0.23099
5 0.134369 0.04 -0.19378
5 0.00785119 0.14 -0.197561
5 0.00785119 -0.14 -0.168145
5 0.0727073 -0.12 -0.18104
5 0.0727073 0.12 -0.20702
5 0.0105648 0.14 -0.197214
5 0.0105648 -0.14 -0.168251
5 0.0133283 0.14 -0.196915
5 0.0133283 -0.14 -0.168404
5 0.108269 -0.09 -0.213664
5 0.108269 0.09 -0.138269
5 0.122188 -0.07 -0.225049
5 0.122188 0.07 -0.16829
5 0.139403 -0.02 -0.24367
5 0.139403 0.02 -0.219509
5 0.0161424 0.14 -0.196757
5 0.0161424 -0.14 -0.168572
5 0.131897 -0.05 -0.228308
5 0.131897 0.05 -0.18481
5 0.0190081 0.14 -0.196873
5 0.0190081 -0.14 -0.168691
5 0.056003 -0.13 -0.169957
5 0.056003 0.13 -0.250948
5 0.0219263 0.14 -0.197418
5 0.0219263 -0.14 -0.168697
5 0.0248981 0.14 -0.198549
5 0.0248981 -0.14 -0.168615
5 0.141967 -0.01 -0.25396
5 0.141967 0.01 -0.236958
5 0.0766105 -0.12 -0.184473
5 0.0766105 0.12 -0.199623
5 0.10158 -0.1 -0.205303
5 0.10158 0.1 -0.134131
5 0.129426 -0.06 -0.22775
5 0.129426 0.06 -0.177952
5 0.0908536 -0.11 -0.193897
5 0.0908536 0.11 -0.146821
5 0.0279244 0.14 -0.200436
5 0.0279244 -0.14 -0.168537
5 0.0595998 -0.13 -0.173003
5 0.0595998 0.13 -0.250293
5 0.0310063 0.14 -0.203206
5 0.0310063 -0.14 -0.168557
5 0.119804 -0.08 -0.222631
5 0.119804 0.08 -0.158133
5 0.0341446 0.14 -0.20678
5 0.0341446 -0.14 -0.168785
5 0.112825 -0.09 -0.216755
5 0.112825 0.09 -0.141791
5 0.14453 -3.70074e-17 -0.250142
5 0.0805853 -0.12 -0.187658
5 0.0805853 0.12 -0.19146
5 0.0632626 -0.13 -0.176296
5 0.0632626 0.13 -0.248106
5 0.0373405 0.14 -0.210876
5 0.0373405 -0.14 -0.169304
5 0.126999 -0.07 -0.227539
5 0.126999 0.07 -0.170694
5 0.139403 -0.04 -0.235345
5 0.139403 0.04 -0.197933
5 0.141967 -0.03 -0.241512
5 0.141967 0.03 -0.209462
5 0.0950896 -0.11 -0.196942
5 0.0950896 0.11 -0.140926
5 0.136886 -0.05 -0.230965
5 0.136886 0.05 -0.187356
5 0.106012 -0.1 -0.20809
5 0.106012 0.1 -0.133956
5 0.040595 0.14 -0.21486
5 0.040595 -0.14 -0.170168
5 0.14453 -0.02 -0.251955
5 0.14453 0.02 -0.226878
5 0.0669925 -0.13 -0.17969
5 0.0669925 0.13 -0.244129
5 0.0439092 0.14 -0.218074
5 0.0439092 -0.14 -0.171407
5 0.0846329 -0.12 -0.19056
5 0.0846329 0.12 -0.182807
5 0.134369 -0.06 -0.230338
5 0.134369 0.06 -0.180678
5 0.14714 -0.01 -0.263944
5 0.14714 0.01 -0.245712
5 0.0472842 0.14 -0.220219
5 0.0472842 -0.14 -0.173002
5 0.117464 -0.09 -0.219938
5 0.117464 0.09 -0.146191
5 0.0707909 -0.13 -0.183038
5 0.0707909 0.13 -0.238426
5 0.124571 -0.08 -0.225456
5 0.124571 0.08 -0.161872
5 0.0994033 -0.11 -0.199857
5 0.0994033 0.11 -0.135955
5 0.0507211 -0.14 -0.174922
5 0.0507211 0.14 -0.221229
5 0.110526 -0.1 -0.210997
5 0.110526 0.1 -0.134902
5 0.0887548 -0.12 -0.193143
5 0.0887548 0.12 -0.174052
5 0.131897 -0.07 -0.229869
5 0.131897 0.07 -0.173594
5 0.14975 0 -0.259103
5 0.0746589 -0.13 -0.186173
5 0.0746589 0.13 -0.231243
5 0.14453 -0.04 -0.240198
5 0.14453 0.04 -0.202929
5 0.00128482 0.15 -0.190731
5 0.00128482 -0.15 -0.170555
5 0.00387803 0.15 -0.190771
5 0.00387803 -0.15 -0.170683
5 0.054221 -0.14 -0.177139
5 0.054221 0.14 -0.220814
5 0.00651881 0.15 -0.190467
5 0.00651881 -0.15 -0.170745
5 0.14714 -0.03 -0.248411
5 0.14714 0.03 -0.215386
5 0.00920802 0.15 -0.190138
5 0.00920802 -0.15 -0.170979
5 0.0119465 0.15 -0.189794
5 0.0119465 -0.15 -0.171329
5 0.141967 -0.05 -0.233781
5 0.141967 0.05 -0.191079
5 0.0147353 0.15 -0.189476
5 0.0147353 -0.15 -0.171781
5 0.0175752 0.15 -0.189282
5 0.0175752 -0.15 -0.172303
5 0.14975 -0.02 -0.260263
5 0.14975 0.02 -0.23396
5 0.103796 -0.11 -0.202632
5 0.103796 0.11 -0.132192
5 0.0204672 0.15 -0.189335
5 0.0204672 -0.15 -0.172844
5 0.0577851 -0.14 -0.179592
5 0.0577851 0.14 -0.21871
5 0.122188 -0.09 -0.2231
5 0.122188 0.09 -0.151363
5 0.139403 -0.06 -0.232833
5 0.139403 0.06 -0.184048
5 0.0929523 -0.12 -0.195439
5 0.0929523 0.12 -0.165533
5 0.0234122 0.15 -0.189747
5 0.0234122 -0.15 -0.173401
5 0.0785979 -0.13 -0.188963
5 0.0785979 0.13 -0.222763
5 0.129426 -0.08 -0.228122
5 0.129426 0.08 -0.166169
5 0.0264113 0.15 -0.190619
5 0.0264113 -0.15 -0.174035
5 0.115123 -0.1 -0.214066
5 0.115123 0.1 -0.137184
5 0.152408 -0.01 -0.273309
5 0.152408 0.01 -0.253453
5 0.0294653 0.15 -0.192054
5 0.0294653 -0.15 -0.174765
5 0.0614146 -0.14 -0.182203
5 0.0614146 0.14 -0.215256
5 0.0325754 0.15 -0.193991
5 0.0325754 -0.15 -0.175613
5 0.136886 -0.07 -0.23221
5 0.136886 0.07 -0.176952
5 0.0826091 -0.13 -0.191332
5 0.0826091 0.13 -0.213375
5 0.0357425 0.15 -0.196078
5 0.0357425 -0.15 -0.176621
5 0.108269 -0.11 -0.205343
5 0.108269 0.11 -0.129982
5 0.0651106 -0.14 -0.184876
5 0.0651106 0.14 -0.210695
5 0.0972268 -0.12 -0.197532
5 0.0972268 0.12 -0.15753
5 0.0389677 0.15 -0.197957
5 0.0389677 -0.15 -0.177862
5 0.14975 -0.04 -0.245397
5 0.14975 0.04 -0.208384
5 0.155066 0 -0.267064
5 0.152408 -0.03 -0.255391
5 0.152408 0.03 -0.221294
5 0.14714 -0.05 -0.237093
5 0.14714 0.05 -0.195791
5 0.126999 -0.09 -0.226138
5 0.126999 0.09 -0.157142
5 0.0422521 0.15 -0.198999
5 0.0422521 -0.15 -0.179301
5 0.0688745 -0.14 -0.187498
5 0.0688745 0.14 -0.20506
5 0.119804 -0.1 -0.217243
5 0.119804 0.1 -0.140823
5 0.0866939 -0.13 -0.193252
5 0.0866939 0.13 -0.203285
5 0.155066 -0.02 -0.268128
5 0.155066 0.02 -0.240401
5 0.134369 -0.08 -0.230607
5 0.134369 0.08 -0.170826
5 0.14453 -0.06 -0.235337
5 0.14453 0.06 -0.188289
5 0.0455967 0.15 -0.198914
5 0.0455967 -0.15 -0.180906
5 0.10158 -0.12 -0.199496
5 0.10158 0.12 -0.150385
5 0.112825 -0.11 -0.208229
5 0.112825 0.11 -0.129566
5 0.0727073 -0.14 -0.189943
5 0.0727073 0.14 -0.198497
5 0.0490026 0.15 -0.197306
5 0.0490026 -0.15 -0.182695
5 0.157773 -0.01 -0.281553
5 0.157773 0.01 -0.259944
5 0.141967 -0.07 -0.234377
5 0.141967 0.07 -0.180807
5 0.0908536 -0.13 -0.194815
5 0.0908536 0.13 -0.192599
5 0.052471 -0.15 -0.184644
5 0.052471 0.15 -0.193919
5 0.0766105 -0.14 -0.192096
5 0.0766105 0.14 -0.191201
5 0.131897 -0.09 -0.228943
5 0.131897 0.09 -0.163248
5 0.124571 -0.1 -0.22041
5 0.124571 0.1 -0.145594
5 0 0.16 -0.188677
5 0 -0.16 -0.170064
5 0.00256965 0.16 -0.188794
5 0.00256965 -0.16 -0.170029
5 0.00518642 0.16 -0.188852
5 0.00518642 -0.16 -0.170045
5 0.056003 -0.15 -0.186675
5 0.056003 0.15 -0.189389
5 0.106012 -0.12 -0.201401