# U  POINT_DATA 90431
# x  y  z  U_x  U_y  U_z
4 0 0 0 0 0
4 0.00256965 0 -0.0075313 0.00130712 -0.00695598
4 0.00518642 0 -0.00348353 0.00406843 -0.00637101
4 0.00785119 0 0.00343848 0.00790295 0.0038651
4 0.00128135 -0.00996393 -0.010677 -7.37781e-05 0.00382864
4 0.00128135 0.00996393 -0.00600208 0.000588366 -0.0139776
4 0.0105648 0 0.0111985 0.0122215 0.0241942
4 0.00386754 -0.00996393 -0.0101813 0.00150319 0.0116237
4 0.00386754 0.00996393 -0.00270937 0.00322465 -0.0294959
4 0.00650117 -0.00996393 -0.00390764 0.0048514 0.0246851
4 0.00650117 0.00996393 0.0037751 0.0067644 -0.0329276
4 0.0133283 0 0.0196526 0.0162955 0.0522522
4 0.00918311 -0.00996393 0.00488715 0.00941958 0.0450347
4 0.00918311 0.00996393 0.0101751 0.0107493 -0.022501
4 0.0119142 -0.00996393 0.0151812 0.0140361 0.0708696
4 0.0119142 0.00996393 0.015903 0.0150168 0.00173107
4 0.0161424 0 0.0291796 0.0193142 0.0838653
4 0.0146954 -0.00996393 0.0262215 0.0174037 0.0982368
4 0.0146954 0.00996393 0.0227238 0.0192948 0.0362868
4 0.0190081 0 0.0395767 0.0206 0.114594
4 0 -0.02 0 0 0
4 0 0.02 0 0 0
4 0.0175277 -0.00996393 0.0371972 0.0184926 0.122863
4 0.0175277 0.00996393 0.0319905 0.0229314 0.0762453
4 0.00256965 -0.02 -0.00830382 0.000349694 0.0152889
4 0.00256965 0.02 0.00039613 0.000223964 -0.0336075
4 0.00518642 -0.02 -0.00274947 0.00169149 0.0327992
4 0.00518642 0.02 0.0073321 -1.09877e-05 -0.0442238
4 0.00785119 -0.02 0.00636636 0.00375178 0.0533468
4 0.00785119 0.02 0.0154559 -0.000322336 -0.0398292
4 0.0219263 0 0.0500606 0.0197142 0.140629
4 0.0105648 -0.02 0.016468 0.0057737 0.0750626
4 0.0105648 0.02 0.0236052 -5.05854e-05 -0.0220654
4 0.0204118 -0.00996393 0.0473329 0.0167089 0.141582
4 0.0204118 0.00996393 0.0431813 0.0254662 0.116219
4 0.0133283 -0.02 0.0265422 0.00679739 0.0951174
4 0.0133283 0.02 0.0317553 0.00114357 0.00662174
4 0.0248981 0 0.0597648 0.0165636 0.15955
4 0.0233489 -0.00996393 0.0560963 0.0119573 0.152852
4 0.0233489 0.00996393 0.0549927 0.0262645 0.151045
4 0.0161424 -0.02 0.0360819 0.00611887 0.111125
4 0.0161424 0.02 0.0403631 0.00333671 0.0428068
4 0.0190081 -0.02 0.0448824 0.00347735 0.122149
4 0.0190081 0.02 0.0499918 0.00626408 0.0821764
4 0.0279244 0 0.0680614 0.0114355 0.170923
4 0.0263398 -0.00996393 0.0633463 0.00486817 0.15763
4 0.0263398 0.00996393 0.0659283 0.0249948 0.176687
4 0.0219263 -0.02 0.0530678 -0.000927052 0.128756
4 0.0219263 0.02 0.0605045 0.00937582 0.12015
4 0.00128135 -0.0298918 -0.00854626 -9.14551e-05 0.0110078
4 0.00128135 0.0298918 0.0011106 -0.000138355 -0.0348204
4 0.00386754 -0.0298918 -0.00314983 6.72665e-05 0.0345626
4 0.00386754 0.0298918 0.00964282 -0.00269875 -0.056301
4 0.00650117 -0.0298918 0.00729355 0.000411409 0.0599725
4 0.00650117 0.0298918 0.0194285 -0.00710679 -0.0587709
4 0.0310063 0 0.0748293 0.00494934 0.175409
4 0.0293856 -0.00996393 0.0693594 -0.00362063 0.156088
4 0.0293856 0.00996393 0.0748308 0.0215171 0.194025
4 0.00918311 -0.0298918 0.0184907 0.000518717 0.083225
4 0.00918311 0.0298918 0.0294809 -0.0112953 -0.0463577
4 0.0248981 -0.02 0.0609548 -0.00656667 0.132252
4 0.0248981 0.02 0.0710189 0.0121337 0.152389
4 0.0119142 -0.0298918 0.0287351 -0.000500173 0.100746
4 0.0119142 0.0298918 0.039999 -0.0140976 -0.0231143
4 0.0146954 -0.0298918 0.0374647 -0.00315594 0.11056
4 0.0146954 0.0298918 0.0495673 -0.0149004 0.0089318
4 0.0324873 -0.00996393 0.0749312 -0.0122495 0.152927
4 0.0324873 0.00996393 0.081298 0.0162268 0.199845
4 0.0341446 0 0.0803849 -0.00211737 0.175404
4 0.0279244 -0.02 0.0688645 -0.0126914 0.1338
4 0.0279244 0.02 0.0804508 0.0140338 0.176407
4 0.0175277 -0.0298918 0.0447835 -0.00746904 0.113237
4 0.0175277 0.0298918 0.0583397 -0.0130693 0.0466788
4 0.0204118 -0.0298918 0.0513693 -0.0128847 0.111763
4 0.0204118 0.0298918 0.0676246 -0.00916584 0.0863824
4 0.0310063 -0.02 0.0771239 -0.0184533 0.134969
4 0.0310063 0.02 0.0880168 0.0147017 0.19122
4 0.0356458 -0.00996393 0.0806541 -0.0202594 0.150543
4 0.0356458 0.00996393 0.0856224 0.00980096 0.199861
4 0.0373405 0 0.0851584 -0.00911407 0.173265
4 0.0233489 -0.0298918 0.0583704 -0.0185072 0.109992
4 0.0233489 0.0298918 0.0774331 -0.00371496 0.124074
4 0.0341446 -0.02 0.0859154 -0.0232223 0.13716
4 0.0341446 0.02 0.0935369 0.0140828 0.197473
4 0.0263398 -0.0298918 0.0666112 -0.0236877 0.109877
4 0.0263398 0.0298918 0.0870184 0.00262289 0.155547
4 0 0.04 0 0 0
4 0 -0.04 0 0 0
4 0.00256965 0.04 -0.001207 -0.00333279 -0.0164106
4 0.00256965 -0.04 -0.00520181 -0.000150569 0.0258395
4 0.0388623 -0.00996393 0.0865027 -0.0270976 0.149807
4 0.0388623 0.00996393 0.0886906 0.00286543 0.194392
4 0.00518642 0.04 -0.000144898 -0.00904404 -0.0189719
4 0.00518642 -0.04 0.0024064 -0.000581223 0.0496664
4 0.040595 0 0.0895411 -0.0154644 0.17006
4 0.00785119 -0.04 0.0126615 -0.00154572 0.0709183
4 0.00785119 0.04 -9.42525e-05 -0.0153196 -0.0159548
4 0.0105648 -0.04 0.0228015 -0.00328865 0.0864283
4 0.0105648 0.04 0.000966652 -0.0202418 -0.00764313
4 0.0293856 -0.0298918 0.0764484 -0.0276579 0.112922
4 0.0293856 0.0298918 0.0954171 0.00892846 0.178127
4 0.0133283 -0.04 0.032004 -0.00592149 0.0953171
4 0.0133283 0.04 0.00490949 -0.0227252 0.00627916
4 0.0373405 -0.02 0.0950807 -0.0266429 0.140734
4 0.0373405 0.02 0.0973102 0.0123491 0.197442
4 0.0161424 -0.04 0.0405212 -0.00921238 0.0991419
4 0.0161424 0.04 0.0120884 -0.022125 0.0257953
4 0.0421378 -0.00996393 0.0925931 -0.032321 0.150622
4 0.0421378 0.00996393 0.0911018 -0.00384276 0.18666
4 0.0439092 0 0.0937729 -0.0207543 0.167199
4 0.0324873 -0.0298918 0.0877818 -0.029965 0.119002
4 0.0324873 0.0298918 0.101997 0.0143331 0.192691
4 0.0190081 0.04 0.022295 -0.0183737 0.0498492
4 0.0190081 -0.04 0.0490711 -0.0126993 0.100517
4 0.040595 -0.02 0.10437 -0.028508 0.145581
4 0.040595 0.02 0.0998552 0.00986269 0.193251
4 0.0219263 0.04 0.0347643 -0.0119878 0.076406
4 0.0219263 -0.04 0.0583515 -0.0158047 0.101968
4 0.0356458 -0.0298918 0.100063 -0.0305209 0.126839
4 0.0356458 0.0298918 0.106772 0.0183799 0.198186
4 0.0454733 0.00996393 0.0932041 -0.00993711 0.17938
4 0.0454733 -0.00996393 0.0988175 -0.0357917 0.153009
4 0.0248981 0.04 0.0482193 -0.00359984 0.102788
4 0.0248981 -0.04 0.0687537 -0.0180576 0.105301
4 0.0472842 0 0.0978965 -0.0248579 0.165093
4 0.0439092 -0.02 0.11359 -0.0287898 0.151251
4 0.0439092 0.02 0.101682 0.00704385 0.186958
4 0.0279244 0.04 0.0614037 0.00591974 0.12622
4 0.0279244 -0.04 0.0803186 -0.0191169 0.111385
4 0.0388623 -0.0298918 0.112649 -0.0292689 0.135975
4 0.0388623 0.0298918 0.109721 0.0208848 0.198544
4 0.00128135 0.0498197 -0.00488858 -0.00168919 0.00735676
4 0.00128135 -0.0498197 -0.00687105 -5.35734e-06 0.0166356
4 0.0488701 -0.00996393 0.104826 -0.0377821 0.155805
4 0.0488701 0.00996393 0.0952753 -0.0151476 0.172741
4 0.00386754 0.0498197 -0.00930242 -0.00869882 0.0176332
4 0.00386754 -0.0498197 -0.00141051 -0.000572339 0.041403
4 0.00650117 -0.0498197 0.00821203 -0.00220078 0.0631989
4 0.00650117 0.0498197 -0.0183097 -0.017393 0.0208612
4 0.0310063 0.04 0.0733253 0.0155075 0.14515
4 0.0310063 -0.04 0.0928886 -0.0187222 0.120252
4 0.00918311 -0.0498197 0.0182151 -0.00483193 0.0779983
4 0.00918311 0.0498197 -0.0286866 -0.0250157 0.0197088
4 0.0507211 0 0.101852 -0.0277649 0.163299
4 0.0119142 0.0498197 -0.0347217 -0.0299309 0.0183968
4 0.0119142 -0.0498197 0.0273157 -0.00823346 0.0846923
4 0.0472842 -0.02 0.122471 -0.0276339 0.157091
4 0.0472842 0.02 0.103199 0.00422604 0.17985
4 0.0421378 -0.0298918 0.125094 -0.026387 0.14576
4 0.0421378 0.0298918 0.111444 0.0221098 0.194773
4 0.0146954 -0.0498197 0.0358058 -0.0117236 0.0863368
4 0.0146954 0.0498197 -0.0333084 -0.0312461 0.0199413
4 0.0341446 0.04 0.0833188 0.024304 0.158414
4 0.0341446 -0.04 0.106156 -0.0167788 0.131167
4 0.0175277 -0.0498197 0.0449452 -0.0145515 0.0874707
4 0.0175277 0.0498197 -0.0247677 -0.0284989 0.0264229
4 0.0523291 -0.00996393 0.110434 -0.0383924 0.158012
4 0.0523291 0.00996393 0.0973335 -0.0193099 0.166954
4 0.0204118 0.0498197 -0.0109302 -0.0219158 0.0384493
4 0.0204118 -0.0498197 0.0556641 -0.016166 0.0904337
4 0.054221 0 0.105553 -0.0294338 0.161696
4 0.0454733 -0.0298918 0.137052 -0.0221332 0.15522
4 0.0454733 0.0298918 0.11246 0.022346 0.188312
4 0.0507211 -0.02 0.13076 -0.0252366 0.162466
4 0.0507211 0.02 0.104693 0.00172972 0.172414
4 0.0373405 0.04 0.0911569 0.0317639 0.165864
4 0.0373405 -0.04 0.119715 -0.0132899 0.14327
4 0.0233489 0.0498197 0.00578028 -0.0122285 0.0550856
4 0.0233489 -0.0498197 0.0680687 -0.0162423 0.0961163
4 0.0263398 0.0498197 0.0234398 -1.25188e-05 0.0748224
4 0.0263398 -0.0498197 0.0816793 -0.0147383 0.10511
4 0.0558515 -0.00996393 0.115573 -0.037602 0.160393
4 0.0558515 0.00996393 0.0992673 -0.0223163 0.161569
4 0.040595 0.04 0.0970824 0.0377003 0.168689
4 0.040595 -0.04 0.133176 -0.00835805 0.155839
4 0.0488701 0.0298918 0.113287 0.0220055 0.180086
4 0.0488701 -0.0298918 0.14824 -0.016701 0.163849
4 0.0577851 0 0.108921 -0.0298948 0.160468
4 0.054221 -0.02 0.138277 -0.0217347 0.16728
4 0.054221 0.02 0.106265 -0.000197432 0.164895
4 0.0293856 0.0498197 0.0406393 0.0134116 0.0950415
4 0.0293856 -0.0498197 0.0959619 -0.0117348 0.116986
4 0.0439092 0.04 0.101563 0.042201 0.167616
4 0.0439092 -0.04 0.146176 -0.00220239 0.16806
4 0.0324873 0.0498197 0.0563627 0.026877 0.113888
4 0.0324873 -0.0498197 0.110557 -0.00730748 0.130992
4 0 0.06 0 0 0
4 0 -0.06 0 0 0
4 0.00256965 0.06 -0.0235804 -0.000958296 0.016541
4 0.00256965 -0.06 -0.00533575 -0.00021899 0.0308232
4 0.00518642 0.06 -0.0395849 -0.001889 0.0194357
4 0.00518642 -0.06 0.00137213 -0.0011289 0.0531484
4 0.0523291 -0.0298918 0.158473 -0.0103045 0.171704
4 0.0523291 0.0298918 0.114266 0.0215573 0.170768
4 0.0594386 -0.00996393 0.120113 -0.0357927 0.16332
4 0.0594386 0.00996393 0.101068 -0.0240279 0.156623
4 0.00785119 0.06 -0.0564018 -0.00214989 0.0161339
4 0.00785119 -0.06 0.0109599 -0.00277608 0.0701414
4 0.0105648 0.06 -0.0714639 -0.00105372 0.0109684
4 0.0105648 -0.06 0.0210292 -0.00481377 0.0806605
4 0.0577851 -0.02 0.144847 -0.0173514 0.171613
4 0.0577851 0.02 0.107933 -0.0013951 0.157515
4 0.0356458 0.0498197 0.0695078 0.0394109 0.128606
4 0.0356458 -0.0498197 0.125225 -0.00151531 0.146321
4 0.0614146 0 0.111886 -0.0292248 0.159731
4 0.0133283 0.06 -0.0814792 0.0015722 0.00731095
4 0.0133283 -0.06 0.0310186 -0.00668476 0.0863113
4 0.0472842 0.04 0.105136 0.0454986 0.163435
4 0.0472842 -0.04 0.158316 0.00493229 0.179237
4 0.0161424 0.06 -0.0850022 0.00569569 0.00731495
4 0.0161424 -0.06 0.0413218 -0.00782223 0.0903782
4 0.0190081 0.06 -0.082537 0.0112448 0.0120096
4 0.0190081 -0.06 0.0525043 -0.00784172 0.0956334
4 0.0388623 0.0498197 0.0802046 0.0504023 0.138444
4 0.0388623 -0.0498197 0.139754 0.00556486 0.162094
4 0.0558515 -0.0298918 0.16748 -0.00317371 0.178569
4 0.0558515 0.0298918 0.115544 0.0212743 0.160924
4 0.0630915 -0.00996393 0.123921 -0.0329341 0.166267
4 0.0630915 0.00996393 0.102719 -0.0245275 0.152665
4 0.0219263 0.06 -0.0756299 0.0181691 0.0211077
4 0.0219263 -0.06 0.0647808 -0.00652778 0.103421
4 0.0614146 -0.02 0.15031 -0.0123331 0.175236
4 0.0614146 0.02 0.109695 -0.00178545 0.150816
4 0.0507211 0.04 0.10826 0.0479328 0.157053
4 0.0507211 -0.04 0.16921 0.0128171 0.189023
4 0.0248981 0.06 -0.0658145 0.0264253 0.0336368
4 0.0248981 -0.06 0.0780121 -0.00378868 0.114154
4 0.0651106 0 0.114394 -0.0274922 0.159393
4 0.0421378 0.0498197 0.0886782 0.0595997 0.143886
4 0.0421378 -0.0498197 0.15389 0.0137349 0.177439
4 0.0279244 0.06 -0.054147 0.0357674 0.0482607
4 0.0279244 -0.06 0.0919497 0.000369294 0.127656
4 0.0594386 -0.0298918 0.175041 0.00438657 0.183849
4 0.0594386 0.0298918 0.117167 0.0213037 0.1513
4 0.054221 0.04 0.111236 0.0498402 0.149281
4 0.054221 -0.04 0.178521 0.0211903 0.19721
4 0.0454733 0.0498197 0.0954407 0.0670348 0.14478
4 0.0454733 -0.0498197 0.167253 0.0227586 0.191621
4 0.0310063 0.06 -0.0413054 0.0457487 0.0635252
4 0.0310063 -0.06 0.106416 0.00588744 0.14329
4 0.0668113 -0.00996393 0.126989 -0.0292321 0.168878
4 0.0668113 0.00996393 0.104146 -0.0238173 0.149651
4 0.0651106 -0.02 0.154567 -0.00687341 0.177919
4 0.0651106 0.02 0.111516 -0.00134 0.145032
4 0.0688745 0 0.116414 -0.0248216 0.159311
4 0.0341446 0.06 -0.0278813 0.0558817 0.0779228
4 0.0341446 -0.06 0.121275 0.0126827 0.160226
4 0.00128135 0.0697475 -0.0265426 0.000778891 0.0183904
4 0.00128135 -0.0697475 -0.00790601 4.83972e-05 0.0207382
4 0.0488701 0.0498197 0.101088 0.0729089 0.142042
4 0.0488701 -0.0498197 0.179278 0.0323482 0.204066
4 0.0630915 -0.0298918 0.180981 0.0120534 0.187361
4 0.0630915 0.0298918 0.119098 0.0217687 0.142736
4 0.00386754 0.0697475 -0.0524996 0.0057658 0.0222387
4 0.00386754 -0.0697475 -0.00432702 -0.000389135 0.0448267
4 0.00650117 0.0697475 -0.0768557 0.0127503 0.0163025
4 0.00650117 -0.0697475 0.00428053 -0.00147735 0.063649
4 0.0577851 0.04 0.114208 0.0514793 0.14087
4 0.0577851 -0.04 0.186002 0.0297631 0.203494
4 0.00918311 0.0697475 -0.100427 0.0210584 0.00689415
4 0.00918311 -0.0697475 0.0145313 -0.00284353 0.0762193
4 0.0373405 0.06 -0.0143556 0.0656433 0.0901929
4 0.0373405 -0.06 0.136304 0.0206246 0.177568
4 0.0119142 0.0697475 -0.120806 0.0297215 -0.00189123
4 0.0119142 -0.0697475 0.0252972 -0.00378022 0.0840205
4 0.0146954 0.0697475 -0.135877 0.0378404 -0.00794795
4 0.0146954 -0.0697475 0.0365491 -0.0036746 0.0900722
4 0.0705994 -0.00996393 0.129326 -0.0248888 0.171108
4 0.0705994 0.00996393 0.105292 -0.0219848 0.147459
4 0.0688745 -0.02 0.157611 -0.0011851 0.179635
4 0.0688745 0.02 0.113367 -4.97735e-05 0.140067
4 0.0175277 0.0697475 -0.144722 0.0448302 -0.00988629
4 0.0175277 -0.0697475 0.0484837 -0.00228874 0.0970017
4 0.0523291 0.0498197 0.106035 0.0775203 0.136815
4 0.0523291 -0.0498197 0.189462 0.0422853 0.214375
4 0.040595 0.06 -0.00102539 0.0746009 0.09986
4 0.040595 -0.06 0.151108 0.0294925 0.19445
4 0.0204118 0.0697475 -0.148151 0.0507688 -0.00763963
4 0.0204118 -0.0697475 0.0610852 0.00038922 0.106461
4 0.0727073 0 0.118001 -0.0213254 0.159404
4 0.0668113 -0.0298918 0.185195 0.0195602 0.18924
4 0.0668113 0.0298918 0.121316 0.0227523 0.134835
4 0.0614146 0.04 0.117259 0.0530617 0.132528
4 0.0614146 -0.04 0.191527 0.0382856 0.207638
4 0.0233489 0.0697475 -0.147329 0.056319 -0.00208056
4 0.0233489 -0.0697475 0.0742206 0.00434779 0.118953
4 0.0439092 0.06 0.0118003 0.0825185 0.106656
4 0.0439092 -0.06 0.16511 0.0389947 0.210132
4 0.0263398 0.0697475 -0.14292 0.0619604 0.00622827
4 0.0263398 -0.0697475 0.0878061 0.0096135 0.134177
4 0.0558515 0.0498197 0.110606 0.0811969 0.129998
4 0.0558515 -0.0498197 0.19741 0.0521905 0.222265
4 0.074457 -0.00996393 0.131118 -0.0200268 0.172877
4 0.074457 0.00996393 0.106226 -0.0190663 0.146011
4 0.0727073 -0.02 0.159597 0.00457171 0.180449
4 0.0727073 0.02 0.115305 0.00205261 0.135979
4 0.0293856 0.0697475 -0.135172 0.0681349 0.0166783
4 0.0293856 -0.0697475 0.101898 0.0161789 0.151599
4 0.0472842 0.06 0.0238301 0.0893233 0.110477
4 0.0472842 -0.06 0.177612 0.0488198 0.224046
4 0.0651106 0.04 0.120406 0.0547624 0.124661
4 0.0651106 -0.04 0.195095 0.0465545 0.209641
4 0.0766105 0 0.119221 -0.0170955 0.159607
4 0.0705994 -0.0298918 0.187734 0.0267273 0.189635
4 0.0705994 0.0298918 0.123862 0.0242993 0.127816
4 0.0324873 0.0697475 -0.124139 0.0750876 0.0285635
4 0.0324873 -0.0697475 0.116596 0.0239749 0.170419
4 0.0594386 0.0498197 0.11488 0.0842439 0.122414
4 0.0594386 -0.0498197 0.202996 0.0618275 0.227598
4 0.0356458 0.0697475 -0.110051 0.0827615 0.0411275
4 0.0356458 -0.0697475 0.13186 0.0328821 0.189689
4 0.0507211 0.06 0.0348687 0.0950916 0.111582
4 0.0507211 -0.06 0.187989 0.0586618 0.235788
4 0.0783853 -0.00996393 0.132316 -0.014771 0.174106
4 0.0783853 0.00996393 0.107018 -0.0151449 0.145267
4 0.0766105 -0.02 0.160725 0.0102754 0.18048
4 0.0766105 0.02 0.117441 0.00490984 0.132839
4 0.0688745 -0.04 0.19692 0.0544246 0.209631
4 0.0688745 0.04 0.123682 0.0567044 0.117533
4 0.0388623 0.0697475 -0.0936388 0.0906995 0.0535424
4 0.0388623 -0.0697475 0.147333 0.0426502 0.208484
4 0 0.08 0 0 0
4 0 -0.08 0 0 0
4 0.00256965 0.08 -0.081368 0.00376243 -0.0145067
4 0.00256965 -0.08 -0.0065989 -5.93674e-06 0.0361592
4 0.00518642 0.08 -0.119445 0.00900997 -0.0246234
4 0.00518642 -0.08 -0.000868829 -0.000352035 0.0589827
4 0.074457 -0.0298918 0.188961 0.0334165 0.18877
4 0.074457 0.0298918 0.126916 0.02636 0.121892
4 0.00785119 0.08 -0.149785 0.0149331 -0.034225
4 0.00785119 -0.08 0.0086218 -0.000879641 0.076202
4 0.0630915 0.0498197 0.119096 0.0869456 0.114519
4 0.0630915 -0.0498197 0.206196 0.0710552 0.230341
4 0.0805853 0 0.120124 -0.0122141 0.159948
4 0.0105648 0.08 -0.171433 0.0200581 -0.0400972
4 0.0105648 -0.08 0.0195417 -0.00112021 0.0886063
4 0.054221 0.06 0.0449003 0.100034 0.110363
4 0.054221 -0.06 0.195803 0.0682305 0.245076
4 0.0133283 0.08 -0.183868 0.0237953 -0.0405723
4 0.0133283 -0.08 0.0310835 -0.000544071 0.0983076
4 0.0421378 0.0697475 -0.0757212 0.0984815 0.0649293
4 0.0421378 -0.0697475 0.162308 0.0529394 0.226019
4 0.0161424 0.08 -0.187085 0.0259481 -0.0357796
4 0.0161424 -0.08 0.0431521 0.00119972 0.107802
4 0.0190081 0.08 -0.181973 0.026765 -0.0270374
4 0.0190081 -0.08 0.0558795 0.00425795 0.11896
4 0.0219263 0.08 -0.171326 0.0271331 -0.0161304
4 0.0219263 -0.08 0.0694254 0.00868179 0.132659
4 0.0727073 -0.04 0.19742 0.0617727 0.207786
4 0.0727073 0.04 0.127236 0.0589518 0.111475
4 0.0823856 -0.00996393 0.132977 -0.00918338 0.175183
4 0.0823856 0.00996393 0.1078 -0.0102856 0.145044
4 0.0805853 -0.02 0.161154 0.0158403 0.179958
4 0.0805853 0.02 0.119838 0.00846612 0.130646
4 0.0454733 0.0697475 -0.057483 0.1058 0.0746548
4 0.0454733 -0.0697475 0.17586 0.0633696 0.241708
4 0.0577851 0.06 0.0540881 0.104433 0.107356
4 0.0577851 -0.06 0.200827 0.0773143 0.251726
4 0.0668113 -0.0498197 0.207263 0.0797819 0.23056
4 0.0668113 0.0498197 0.123148 0.0895225 0.107073
4 0.0248981 0.08 -0.15838 0.0279444 -0.00461297
4 0.0248981 -0.08 0.0839327 0.0144842 0.148891
4 0.0783853 -0.0298918 0.189172 0.0395223 0.187029
4 0.0783853 0.0298918 0.130599 0.0288772 0.117242
4 0.0846329 0 0.120873 -0.00675194 0.160472
4 0.0279244 0.08 -0.14566 0.0297366 0.00670392
4 0.0279244 -0.08 0.0994859 0.0216221 0.167127
4 0.0488701 0.0697475 -0.0400285 0.112436 0.0821401
4 0.0488701 -0.0697475 0.1871 0.0736019 0.255157
4 0.0310063 0.08 -0.134364 0.0327355 0.0175335
4 0.0310063 -0.08 0.116014 0.0299629 0.186588
4 0.0614146 0.06 0.0627028 0.108603 0.103186
4 0.0614146 -0.06 0.203176 0.0858103 0.255631
4 0.0705994 -0.0498197 0.206875 0.0879544 0.228404
4 0.0705994 0.0498197 0.127265 0.0921267 0.100582
4 0.0766105 -0.04 0.196968 0.0684685 0.204398
4 0.0766105 0.04 0.131103 0.061544 0.106725
4 0.0846329 -0.02 0.161119 0.0212018 0.179157
4 0.0846329 0.02 0.122418 0.0127274 0.129321
4 0.0341446 0.08 -0.124239 0.0369029 0.0278596
4 0.0341446 -0.08 0.133144 0.0392788 0.206386
4 0.0864594 -0.00996393 0.133295 -0.00337948 0.176256
4 0.0864594 0.00996393 0.10885 -0.004533 0.145179
4 0.0523291 0.0697475 -0.0240426 0.118405 0.0869763
4 0.0523291 -0.0697475 0.195463 0.08326 0.266096
4 0.0823856 -0.0298918 0.188707 0.0449886 0.184609
4 0.0823856 0.0298918 0.134806 0.0318339 0.113911
4 0.0373405 0.08 -0.114368 0.0420801 0.0375856
4 0.0373405 -0.08 0.150119 0.0492234 0.22569
4 0.0651106 0.06 0.0709438 0.112834 0.0985423
4 0.0651106 -0.06 0.203221 0.0936655 0.256751
4 0.0887548 0 0.121659 -0.000771604 0.161203
4 0.0558515 0.0697475 -0.00963751 0.123899 0.0891438
4 0.0558515 -0.0697475 0.200594 0.0921577 0.274338
4 0.074457 -0.0498197 0.205619 0.095446 0.224063
4 0.074457 0.0498197 0.13161 0.0948688 0.0954573
4 0.00128135 0.0896754 -0.0942038 0.00234164 -0.0379182
4 0.00128135 -0.0896754 -0.00810891 0.000101472 0.0259115
4 0.040595 0.08 -0.104104 0.0480409 0.046515
4 0.040595 -0.08 0.165877 0.0594092 0.243828
4 0.00386754 0.0896754 -0.151771 0.00618879 -0.0605162
4 0.00386754 -0.0896754 -0.00542779 0.00015547 0.0530212
4 0.00650117 0.0896754 -0.195982 0.0114337 -0.0762658
4 0.00650117 -0.0896754 0.00297973 0.000116712 0.0741254
4 0.0805853 -0.04 0.19586 0.0744155 0.199803
4 0.0805853 0.04 0.135163 0.0645449 0.103352
4 0.00918311 -0.0896754 0.0138069 0.000328993 0.0901697
4 0.00918311 0.0896754 -0.224909 0.0146739 -0.0835534
4 0.0119142 0.0896754 -0.238247 0.015057 -0.081433
4 0.0119142 -0.0896754 0.0255699 0.00125939 0.102853
4 0.0146954 0.0896754 -0.238894 0.0129244 -0.0704221
4 0.0146954 -0.0896754 0.0377543 0.0032626 0.114505
4 0.0887548 0.02 0.125011 0.0177278 0.128874
4 0.0887548 -0.02 0.160866 0.0263396 0.178243
4 0.0906078 -0.00996393 0.133504 0.00269224 0.17724
4 0.0906078 0.00996393 0.110222 0.00196769 0.145884
4 0.0439092 0.08 -0.0934394 0.0545721 0.0543642
4 0.0439092 -0.08 0.179289 0.069392 0.260301
4 0.0688745 0.06 0.0788972 0.117337 0.0940274
4 0.0688745 -0.06 0.201585 0.100844 0.255101
4 0.0175277 0.0896754 -0.227064 0.00861347 -0.0541508
4 0.0175277 -0.0896754 0.0503982 0.00654277 0.127216
4 0.0864594 -0.0298918 0.187913 0.04979 0.181868
4 0.0864594 0.0298918 0.138885 0.0353777 0.111884
4 0.0594386 0.0697475 0.00354586 0.129219 0.0891002
4 0.0594386 -0.0697475 0.202431 0.100237 0.27974
4 0.0204118 0.0896754 -0.206278 0.00329207 -0.0358
4 0.0204118 -0.0896754 0.0638376 0.0112269 0.142141
4 0.0233489 0.0896754 -0.182334 -0.0013904 -0.0185013
4 0.0233489 -0.0896754 0.0785112 0.0173868 0.159509
4 0.0783853 -0.0498197 0.203724 0.102101 0.217878
4 0.0783853 0.0498197 0.135855 0.0979002 0.0918656
4 0.0472842 0.08 -0.0828208 0.0615046 0.0607598
4 0.0472842 -0.08 0.189444 0.0787937 0.274746
4 0.0929523 0 0.122597 0.0056789 0.162141
4 0.0263398 0.0896754 -0.160455 -0.00465234 -0.00385164
4 0.0263398 -0.0896754 0.0947524 0.0249922 0.178885
4 0.0846329 0.04 0.139147 0.0680809 0.101208
4 0.0846329 -0.04 0.194436 0.0795776 0.194373
4 0.0630915 0.0697475 0.0159103 0.134727 0.0876206
4 0.0630915 -0.0697475 0.201622 0.107495 0.282188
4 0.0727073 0.06 0.0865404 0.122241 0.0900324
4 0.0727073 -0.06 0.198924 0.107306 0.2507
4 0.0293856 0.0896754 -0.144314 -0.00602455 0.00775195
4 0.0293856 -0.0896754 0.112607 0.0338955 0.199449
4 0.0507211 0.08 -0.0728187 0.0687438 0.0653306
4 0.0507211 -0.08 0.195891 0.0873842 0.286862
4 0.0929523 0.02 0.127509 0.0234723 0.129302
4 0.0929523 -0.02 0.160642 0.0312915 0.177335
4 0.0948324 -0.00996393 0.134153 0.00904936 0.17812
4 0.0948324 0.00996393 0.111553 0.00909505 0.14704
4 0.0324873 0.0896754 -0.13445 -0.00574215 0.0169649
4 0.0324873 -0.0896754 0.131644 0.0438096 0.220255
4 0.0906078 -0.0298918 0.186983 0.0539302 0.179056
4 0.0906078 0.0298918 0.142492 0.0396848 0.111187
4 0.0823856 -0.0498197 0.201484 0.107848 0.21026
4 0.0823856 0.0498197 0.139792 0.101397 0.0897124
4 0.0356458 0.0896754 -0.128934 -0.00390899 0.0245714
4 0.0356458 -0.0896754 0.150832 0.0543185 0.240448
4 0.0668113 0.0697475 0.0277359 0.140722 0.0854789
4 0.0668113 -0.0697475 0.19871 0.113932 0.281597
4 0.054221 0.08 -0.0638776 0.0762549 0.0678239
4 0.054221 -0.08 0.198668 0.0949552 0.296351
4 0.0972268 0 0.123675 0.0125814 0.1633
4 0.0766105 0.06 0.0935708 0.127622 0.0867555
4 0.0766105 -0.06 0.195717 0.113018 0.243789
4 0.0887548 0.04 0.142645 0.0723223 0.100052
4 0.0887548 -0.04 0.193007 0.0839644 0.188538
4 0.0388623 0.0896754 -0.125177 -0.000549592 0.0309584
4 0.0388623 -0.0896754 0.16867 0.0648471 0.259412
4 0.0577851 0.08 -0.0561913 0.0840644 0.0682637
4 0.0577851 -0.08 0.198219 0.101419 0.302894
4 0.0421378 0.0896754 -0.121776 0.00431618 0.0366189
4 0.0421378 -0.0896754 0.18355 0.075026 0.276753
4 0.0705994 0.0697475 0.0390134 0.147396 0.0830907
4 0.0705994 -0.0697475 0.194701 0.119542 0.27791
4 0.0972268 0.02 0.129896 0.0300128 0.130408
4 0.0972268 -0.02 0.160609 0.0360871 0.17677
4 0.0948324 -0.0298918 0.185968 0.0574763 0.176481
4 0.0948324 0.0298918 0.145868 0.0448641 0.111683
4 0.0991344 -0.00996393 0.135178 0.0156261 0.179266
4 0.0991344 0.00996393 0.112659 0.0169429 0.148445
4 0.0864594 0.0498197 0.143269 0.105551 0.0885035
4 0.0864594 -0.0498197 0.199262 0.112693 0.201724
4 0 0.1 0 0 0
4 0 -0.1 0 0 0
4 0.00256965 0.1 -0.1461 -0.002155 -0.0255205
4 0.00256965 -0.1 -0.00654006 0.00011437 0.0440409
4 0.00518642 0.1 -0.198451 -0.00583869 -0.0325853
4 0.00518642 -0.1 -0.000834181 0.000209556 0.0705386
4 0.00785119 0.1 -0.228648 -0.0117934 -0.0330974
4 0.00785119 -0.1 0.00927847 0.000457877 0.0913118
4 0.0805853 0.06 0.0995291 0.133521 0.0841113
4 0.0805853 -0.06 0.192391 0.117976 0.234858
4 0.0454733 0.0896754 -0.118212 0.0105681 0.0413878
4 0.0454733 -0.0896754 0.194209 0.0841624 0.292212
4 0.0105648 0.1 -0.240068 -0.0198639 -0.0281222
4 0.0105648 -0.1 0.0215216 0.00126173 0.108075
4 0.0614146 0.08 -0.0497755 0.0922417 0.0669332
4 0.0614146 -0.08 0.195368 0.106794 0.30622
4 0.0133283 0.1 -0.240651 -0.0291482 -0.0194585
4 0.0133283 -0.1 0.0350266 0.00303854 0.122923
4 0.0929523 0.04 0.145295 0.0774121 0.0996635
4 0.0929523 -0.04 0.191768 0.087634 0.182736
4 0.0161424 0.1 -0.235595 -0.0387234 -0.00893357
4 0.0161424 -0.1 0.0497206 0.00611177 0.137916
4 0.10158 0 0.124786 0.0199681 0.164708
4 0.0190081 0.1 -0.226796 -0.0477382 0.00176268
4 0.0190081 -0.1 0.0658967 0.0106568 0.154403
4 0.074457 0.0697475 0.0493397 0.154829 0.0807561
4 0.074457 -0.0697475 0.189941 0.124347 0.270938
4 0.0488701 0.0896754 -0.114554 0.0181639 0.0451069
4 0.0488701 -0.0896754 0.200015 0.0921513 0.305555
4 0.0219263 0.1 -0.216438 -0.0553197 0.0112935
4 0.0219263 -0.1 0.083859 0.0166982 0.172768
4 0.0248981 0.1 -0.207125 -0.0608 0.0184606
4 0.0248981 -0.1 0.103655 0.0241076 0.192652
4 0.0651106 0.08 -0.0446286 0.100849 0.0642776
4 0.0651106 -0.08 0.190965 0.111156 0.306093
4 0.0906078 0.0498197 0.145817 0.110521 0.0877695
4 0.0906078 -0.0498197 0.197396 0.116686 0.192857
4 0.10158 0.02 0.132336 0.0373964 0.131896
4 0.10158 -0.02 0.160655 0.0408046 0.176981
4 0.0991344 0.0298918 0.149267 0.051029 0.113038
4 0.0991344 -0.0298918 0.185005 0.0605289 0.174829
4 0.0846329 0.06 0.104 0.13991 0.0817763
4 0.0846329 -0.06 0.189288 0.122184 0.22448
4 0.0279244 0.1 -0.201035 -0.0638029 0.02297
4 0.0279244 -0.1 0.124873 0.032603 0.213325
4 0.0523291 0.0896754 -0.111266 0.0269583 0.0474297
4 0.0523291 -0.0896754 0.201154 0.0988916 0.316472
4 0.103515 -0.00996393 0.136023 0.0226036 0.180803
4 0.103515 0.00996393 0.113895 0.0254249 0.149925
4 0.0310063 0.1 -0.19912 -0.0643422 0.0253855
4 0.0310063 -0.1 0.146535 0.0417717 0.234007
4 0.0783853 0.0697475 0.0581398 0.162997 0.0784502
4 0.0783853 -0.0697475 0.185161 0.128477 0.261301
4 0.0972268 0.04 0.146976 0.0834471 0.0997886
4 0.0972268 -0.04 0.190817 0.0906893 0.177496
4 0.0688745 0.08 -0.0409083 0.109896 0.0607314
4 0.0688745 -0.08 0.185874 0.114623 0.302307
4 0.0558515 0.0896754 -0.108887 0.0367427 0.048135
4 0.0558515 -0.0896754 0.198408 0.104196 0.324547
4 0.0341446 0.1 -0.200812 -0.0626438 0.0262853
4 0.0341446 -0.1 0.167165 0.0511155 0.254072
4 0.106012 0 0.125853 0.0278976 0.166334
4 0.0373405 0.1 -0.204672 -0.0588734 0.0261582
4 0.0373405 -0.1 0.185044 0.0601132 0.273097
4 0.0948324 0.0498197 0.146616 0.116428 0.0872218
4 0.0948324 -0.0498197 0.196099 0.119933 0.184246
4 0.0887548 0.06 0.106582 0.146678 0.0793599
4 0.0887548 -0.06 0.186676 0.125692 0.21335
4 0.0594386 0.0896754 -0.107885 0.0473486 0.0471225
4 0.0594386 -0.0896754 0.19311 0.108121 0.329279
4 0.103515 -0.0298918 0.184114 0.0631885 0.174654
4 0.103515 0.0298918 0.152962 0.0582305 0.114782
4 0.106012 -0.02 0.160504 0.0455657 0.178181
4 0.106012 0.02 0.135116 0.0456422 0.133453
4 0.040595 0.1 -0.209354 -0.053206 0.02544
4 0.040595 -0.1 0.19862 0.0682768 0.290765
4 0.0823856 0.0697475 0.0647334 0.171776 0.0758388
4 0.0823856 -0.0697475 0.18082 0.132004 0.249542
4 0.0727073 0.08 -0.0389865 0.119331 0.0565647
4 0.0727073 -0.08 0.180784 0.117315 0.294877
4 0.107977 -0.00996393 0.1363 0.0300972 0.182781
4 0.107977 0.00996393 0.115576 0.0345516 0.151356
4 0.10158 0.04 0.14801 0.0904807 0.10008
4 0.10158 -0.04 0.190163 0.0932277 0.173391
4 0.0439092 0.1 -0.214063 -0.0458556 0.0243229
4 0.0439092 -0.1 0.206902 0.0752002 0.30674
4 0.00128135 0.109603 -0.134458 -0.00397649 -0.00321404
4 0.00128135 -0.109603 -0.00752243 1.93792e-05 0.0322021
4 0.0630915 0.0896754 -0.108583 0.0585749 0.0444167
4 0.0630915 -0.0896754 0.186583 0.110746 0.330335
4 0.00386754 0.109603 -0.203295 -0.0130684 -0.00163048
4 0.00386754 -0.109603 -0.00461475 0.000149473 0.0643543
4 0.00650117 0.109603 -0.24187 -0.0276729 0.00641576
4 0.00650117 -0.109603 0.00447385 0.000300629 0.0895285
4 0.00918311 0.109603 -0.250722 -0.0452354 0.0189448
4 0.00918311 -0.109603 0.0166872 0.000857886 0.109779
4 0.0119142 0.109603 -0.245328 -0.0634396 0.0311479
4 0.0119142 -0.109603 0.03074 0.00224373 0.127245
4 0.110526 0 0.126803 0.0364417 0.167999
4 0.0146954 0.109603 -0.239265 -0.0805218 0.040365
4 0.0146954 -0.109603 0.0464392 0.00489483 0.144168
4 0.0472842 0.1 -0.218519 -0.0370031 0.0227053
4 0.0472842 -0.1 0.209692 0.0805905 0.320634
4 0.0929523 0.06 0.106705 0.153701 0.0765279
4 0.0929523 -0.06 0.184759 0.1286 0.202188
4 0.0766105 0.08 -0.0392122 0.129063 0.0518874
4 0.0766105 -0.08 0.176017 0.119351 0.284155
4 0.0991344 0.0498197 0.14558 0.123309 0.0866098
4 0.0991344 -0.0498197 0.195391 0.122571 0.176425
4 0.0175277 0.109603 -0.236239 -0.0952485 0.0461092
4 0.0175277 -0.109603 0.0641803 0.00910769 0.162197
4 0.0864594 0.0697475 0.0685348 0.180825 0.0725925
4 0.0864594 -0.0697475 0.177167 0.134949 0.236463
4 0.0204118 -0.109603 0.0844058 0.0149582 0.181899
4 0.0204118 0.109603 -0.2363 -0.10695 0.0487923
4 0.0668113 0.0896754 -0.111288 0.0702324 0.0402501
4 0.0668113 -0.0896754 0.179614 0.112284 0.32733
4 0.107977 -0.0298918 0.183108 0.0655386 0.176064
4 0.107977 0.0298918 0.157181 0.0665549 0.116435
4 0.0233489 0.109603 -0.239048 -0.115588 0.0488636
4 0.0233489 -0.109603 0.107185 0.0222851 0.202909
4 0.0507211 0.1 -0.222787 -0.0268405 0.0204178
4 0.0507211 -0.1 0.207607 0.0842769 0.331958
4 0.110526 -0.02 0.159845 0.0504517 0.180341
4 0.110526 0.02 0.138503 0.054852 0.134734
4 0.0263398 0.109603 -0.244444 -0.120928 0.0456991
4 0.0263398 -0.109603 0.131964 0.0307178 0.2244
4 0.11252 -0.00996393 0.135589 0.0380251 0.184887
4 0.11252 0.00996393 0.117945 0.0445497 0.152413