# U  POINT_DATA 90431
# x  y  z  U_x  U_y  U_z
5 0 0 0 0 0
5 0.00256965 0 0.269456 0.00735211 -0.0525566
5 0.00518642 0 0.35072 0.0155951 -0.0794178
5 0.00785119 0 0.415971 0.0265841 -0.10353
5 0.00128482 0.01 0.239845 0.00422855 -0.0777124
5 0.00128482 -0.01 0.208927 0.00478333 -0.000635763
5 0.0105648 0 0.46718 0.0378289 -0.119867
5 0.00387803 0.01 0.332248 0.00927535 -0.115873
5 0.00387803 -0.01 0.296819 0.0111221 -0.0160095
5 0.00651881 0.01 0.406656 0.0182827 -0.148634
5 0.00651881 -0.01 0.367168 0.0237021 -0.037159
5 0.0133283 0 0.505584 0.0491208 -0.125383
5 0.00920802 0.01 0.46454 0.0271178 -0.171384
5 0.00920802 -0.01 0.425531 0.0372356 -0.0569451
5 0.0119465 0.01 0.505279 0.0357771 -0.180784
5 0.0119465 -0.01 0.473378 0.0511871 -0.0703542
5 0.0161424 0 0.533938 0.0602768 -0.119085
5 0.0147353 0.01 0.53191 0.044324 -0.176169
5 0.0147353 -0.01 0.511775 0.0651971 -0.0742229
5 0.0190081 0 0.555576 0.071176 -0.101756
5 0 0.02 0 0 0
5 0 -0.02 0 0 0
5 0.00256965 0.02 0.296748 0.00182516 -0.11948
5 0.00256965 -0.02 0.234513 0.0058211 0.0159521
5 0.0175752 0.01 0.549871 0.0528002 -0.158831
5 0.0175752 -0.01 0.5422 0.0787878 -0.0671142
5 0.00518642 0.02 0.381899 0.0034743 -0.157169
5 0.00518642 -0.02 0.311592 0.0133868 0.00818795
5 0.00785119 0.02 0.445765 0.0052579 -0.185154
5 0.00785119 -0.02 0.375036 0.0242533 -0.00383793
5 0.0219263 0 0.573148 0.0818455 -0.0751795
5 0.0105648 0.02 0.48704 0.00733771 -0.199798
5 0.0105648 -0.02 0.427672 0.0364152 -0.0150788
5 0.0204672 0.01 0.563762 0.061431 -0.131787
5 0.0204672 -0.01 0.566474 0.0916871 -0.0492856
5 0.0133283 0.02 0.510959 0.00980362 -0.200344
5 0.0133283 -0.02 0.470919 0.0494047 -0.0214859
5 0.0248981 0 0.588268 0.0923656 -0.0414382
5 0.0234122 0.01 0.576179 0.0703784 -0.097543
5 0.0234122 -0.01 0.586179 0.103888 -0.0220967
5 0.0161424 0.02 0.525919 0.0129054 -0.188524
5 0.0161424 -0.02 0.506133 0.0626567 -0.0202761
5 0.0190081 0.02 0.537458 0.0169643 -0.167134
5 0.0190081 -0.02 0.534813 0.0756441 -0.0100829
5 0.0279244 0 0.60182 0.102841 -0.00252339
5 0.0264113 0.01 0.588375 0.079624 -0.0587209
5 0.0264113 -0.01 0.602343 0.115574 0.0126153
5 0.0219263 0.02 0.547862 0.0222635 -0.137796
5 0.0219263 -0.02 0.558662 0.0880386 0.0090814
5 0.00128482 0.03 0.25886 -0.00223208 -0.119994
5 0.00128482 -0.03 0.175173 0.00183743 0.036815
5 0.00387803 0.03 0.356052 -0.00397095 -0.164345
5 0.00387803 -0.03 0.257144 0.00554235 0.0436379
5 0.00651881 0.03 0.432654 -0.00968961 -0.199831
5 0.00651881 -0.03 0.32525 0.0131823 0.0422806
5 0.0310063 0 0.614467 0.113413 0.0399901
5 0.0294653 0.01 0.600864 0.0892253 -0.0169702
5 0.0294653 -0.01 0.615701 0.126942 0.0529909
5 0.00920802 0.03 0.47922 -0.0146789 -0.220769
5 0.00920802 -0.03 0.382206 0.0228949 0.0364697
5 0.0248981 0.02 0.557906 0.0289772 -0.102033
5 0.0248981 -0.02 0.579623 0.0997065 0.0360716
5 0.0119465 0.03 0.499126 -0.0188647 -0.226257
5 0.0119465 -0.03 0.429582 0.0343454 0.0305127
5 0.0147353 0.03 0.507523 -0.0220214 -0.218164
5 0.0147353 -0.03 0.468947 0.0468914 0.0281203
5 0.0325754 0.01 0.613324 0.0995083 0.0267922
5 0.0325754 -0.01 0.627981 0.137981 0.097157
5 0.0341446 0 0.62701 0.12421 0.0847843
5 0.0279244 0.02 0.567927 0.0371295 -0.0620079
5 0.0279244 -0.02 0.599897 0.110668 0.0689785
5 0.0175752 0.03 0.514376 -0.0234804 -0.200929
5 0.0175752 -0.03 0.501617 0.0597529 0.0321134
5 0.0204672 0.03 0.521825 -0.0228927 -0.176983
5 0.0204672 -0.03 0.528965 0.0723512 0.0439578
5 0.0310063 0.02 0.578199 0.0466644 -0.0194633
5 0.0310063 -0.02 0.622125 0.120985 0.105557
5 0.0357425 0.01 0.625202 0.110716 0.0721788
5 0.0357425 -0.01 0.641536 0.148637 0.143019
5 0.0373405 0 0.640956 0.135241 0.13063
5 0.0234122 0.03 0.529682 -0.0198616 -0.144866
5 0.0234122 -0.03 0.553036 0.0842309 0.0637547
5 0.0341446 0.02 0.588655 0.0577187 0.0241765
5 0.0341446 -0.02 0.649457 0.13069 0.143452
5 0.0264113 0.03 0.53739 -0.0142305 -0.106993
5 0.0264113 -0.03 0.576936 0.0951353 0.0900192
5 0 0.04 0 0 0
5 0 -0.04 0 0 0
5 0.00256965 0.04 0.312626 -0.00928439 -0.118325
5 0.00256965 -0.04 0.200423 0.00203376 0.0404164
5 0.0389677 0.01 0.636669 0.123022 0.119072
5 0.0389677 -0.01 0.660421 0.158591 0.18826
5 0.00518642 0.04 0.399534 -0.0194598 -0.153073
5 0.00518642 -0.04 0.273241 0.0057196 0.0483827
5 0.040595 0 0.659018 0.146266 0.176081
5 0.00785119 0.04 0.45536 -0.0328485 -0.180235
5 0.00785119 -0.04 0.334912 0.0116603 0.0511123
5 0.0105648 0.04 0.479599 -0.045181 -0.196755
5 0.0105648 -0.04 0.38712 0.0194627 0.0511714
5 0.0294653 0.03 0.54508 -0.00609894 -0.0653384
5 0.0294653 -0.03 0.604611 0.105023 0.120296
5 0.0133283 0.04 0.486344 -0.0561622 -0.20249
5 0.0133283 -0.04 0.431741 0.0286105 0.051492
5 0.0373405 0.02 0.599241 0.0703207 0.0680365
5 0.0373405 -0.02 0.685003 0.139674 0.180342
5 0.0161424 0.04 0.48872 -0.0654026 -0.199287
5 0.0161424 -0.04 0.470963 0.0385539 0.0546417
5 0.0422521 0.01 0.649159 0.136166 0.166658
5 0.0422521 -0.01 0.689829 0.167288 0.230345
5 0.0439092 0 0.684505 0.156682 0.219347
5 0.0325754 0.03 0.55353 0.00402514 -0.0223274
5 0.0325754 -0.03 0.640211 0.113999 0.151791
5 0.0190081 0.04 0.491595 -0.0724751 -0.188906
5 0.0190081 -0.04 0.507253 0.0488383 0.0623377
5 0.040595 0.02 0.610558 0.0842572 0.112133
5 0.040595 -0.02 0.730983 0.14755 0.214128
5 0.0219263 0.04 0.495752 -0.0768137 -0.171838
5 0.0219263 -0.04 0.543466 0.0591372 0.0751755
5 0.0357425 0.03 0.562565 0.0166283 0.0200724
5 0.0357425 -0.03 0.688108 0.122145 0.181848
5 0.0455967 0.01 0.665766 0.149365 0.213441
5 0.0455967 -0.01 0.733274 0.173912 0.266956
5 0.0248981 0.04 0.50106 -0.0780642 -0.148369
5 0.0248981 -0.04 0.582732 0.0693917 0.0926737
5 0.0472842 0 0.719999 0.165504 0.258712
5 0.0439092 0.02 0.623893 0.0992729 0.156522
5 0.0439092 -0.02 0.787534 0.153621 0.243217
5 0.0279244 0.04 0.507352 -0.076021 -0.11948
5 0.0279244 -0.04 0.627967 0.0796248 0.113545
5 0.0389677 0.03 0.572532 0.03092 0.0608332
5 0.0389677 -0.03 0.749958 0.129326 0.208248
5 0.0490026 0.01 0.690643 0.161066 0.257446
5 0.0490026 -0.01 0.790325 0.177676 0.297013
5 0.00128482 0.05 0.266727 -0.00990447 -0.0792477
5 0.00128482 -0.05 0.146861 -0.000258416 0.032902
5 0.00387803 0.05 0.36888 -0.021031 -0.10972
5 0.00387803 -0.05 0.222526 0.00101404 0.0483123
5 0.00651881 0.05 0.440563 -0.0431499 -0.1384
5 0.00651881 -0.05 0.288056 0.00314045 0.0593006
5 0.0310063 0.04 0.514714 -0.0706683 -0.0866031
5 0.0310063 -0.04 0.681161 0.0897205 0.136073
5 0.0507211 0 0.766147 0.171669 0.292988
5 0.00920802 0.05 0.469008 -0.0638777 -0.161944
5 0.00920802 -0.05 0.344143 0.0074248 0.0663982
5 0.0472842 0.02 0.641456 0.114421 0.200259
5 0.0472842 -0.02 0.851716 0.157053 0.266841
5 0.0119465 0.05 0.471045 -0.0833047 -0.17805
5 0.0119465 -0.05 0.392557 0.0131871 0.0713051
5 0.0422521 0.03 0.583876 0.0469246 0.10198
5 0.0422521 -0.03 0.823738 0.134995 0.229667
5 0.0147353 0.05 0.467683 -0.10046 -0.187489
5 0.0147353 -0.05 0.435885 0.0200199 0.07603
5 0.0341446 0.04 0.523168 -0.0619493 -0.0511997
5 0.0341446 -0.04 0.742897 0.0994725 0.158488
5 0.0175752 0.05 0.465298 -0.11565 -0.190566
5 0.0175752 -0.05 0.477409 0.0275532 0.082304
5 0.052471 0.01 0.726544 0.17037 0.296947
5 0.052471 -0.01 0.85709 0.177567 0.320555
5 0.0204672 0.05 0.464881 -0.127878 -0.187144
5 0.0204672 -0.05 0.521029 0.0356979 0.0909775
5 0.054221 0 0.821602 0.174245 0.321749
5 0.0507211 0.02 0.665816 0.128484 0.241963
5 0.0507211 -0.02 0.918321 0.157084 0.285156
5 0.0455967 0.03 0.596774 0.0646405 0.144018
5 0.0455967 -0.03 0.903311 0.138289 0.245909
5 0.0373405 0.04 0.532708 -0.0500125 -0.0142194
5 0.0373405 -0.04 0.81168 0.108382 0.179257
5 0.0234122 0.05 0.466622 -0.136623 -0.178354
5 0.0234122 -0.05 0.57084 0.044271 0.102015
5 0.0264113 0.05 0.470547 -0.141542 -0.163257
5 0.0264113 -0.05 0.630126 0.0539318 0.11491
5 0.056003 0.01 0.774252 0.176068 0.331205
5 0.056003 -0.01 0.928536 0.172974 0.338298
5 0.040595 0.04 0.543524 -0.0351939 0.0244003
5 0.040595 -0.04 0.883654 0.115674 0.197363
5 0.0490026 0.03 0.612645 0.082616 0.18614
5 0.0490026 -0.03 0.97997 0.138335 0.257493
5 0.0577851 0 0.883339 0.172502 0.344912
5 0.054221 0.02 0.699034 0.140377 0.280595
5 0.054221 -0.02 0.981665 0.153257 0.298949
5 0.0294653 0.05 0.476394 -0.142212 -0.142326
5 0.0294653 -0.05 0.700205 0.0644116 0.12896
5 0.0439092 0.04 0.555762 -0.0176744 0.0649738
5 0.0439092 -0.04 0.953469 0.120477 0.212507
5 0.0325754 0.05 0.483854 -0.138385 -0.116413
5 0.0325754 -0.05 0.77963 0.0754511 0.143252
5 0 0.06 0 0 0
5 0 -0.06 0 0 0
5 0.00256965 0.06 0.323699 -0.0159955 -0.0380777
5 0.00256965 -0.06 0.179027 0.000807909 0.039428
5 0.00518642 0.06 0.410648 -0.0327536 -0.0581429
5 0.00518642 -0.06 0.249722 0.00260068 0.0538189
5 0.0595998 0.01 0.832383 0.177158 0.360206
5 0.0595998 -0.01 0.998203 0.163808 0.349945
5 0.052471 0.03 0.633441 0.0998863 0.227329
5 0.052471 -0.03 1.04592 0.134756 0.265565
5 0.00785119 0.06 0.459129 -0.05493 -0.0823559
5 0.00785119 -0.06 0.312897 0.00550639 0.0641366
5 0.0105648 0.06 0.471979 -0.0761885 -0.106018
5 0.0105648 -0.06 0.369952 0.00962764 0.0705635
5 0.0577851 0.02 0.742097 0.14904 0.315769
5 0.0577851 -0.02 1.03683 0.145612 0.308992
5 0.0614146 0 0.945855 0.166355 0.362538
5 0.0357425 0.05 0.492725 -0.130063 -0.0861229
5 0.0357425 -0.05 0.863652 0.0862973 0.157067
5 0.0133283 0.06 0.467596 -0.0964213 -0.126733
5 0.0133283 -0.06 0.423002 0.0146679 0.0743904
5 0.0472842 0.04 0.569918 0.00184856 0.106993
5 0.0472842 -0.04 1.01534 0.122123 0.224921
5 0.0161424 0.06 0.458822 -0.114983 -0.144407
5 0.0161424 -0.06 0.474765 0.0205276 0.0775386
5 0.0190081 0.06 0.449293 -0.131458 -0.158608
5 0.0190081 -0.06 0.528187 0.0272493 0.0819003
5 0.0389677 0.05 0.503013 -0.117532 -0.0516514
5 0.0389677 -0.05 0.945019 0.0957608 0.169869
5 0.056003 0.03 0.661907 0.115189 0.266909
5 0.056003 -0.03 1.09513 0.127728 0.271382
5 0.0219263 0.06 0.440515 -0.145319 -0.16829
5 0.0219263 -0.06 0.585866 0.0349151 0.0887729
5 0.0632626 0.01 0.896111 0.172988 0.384095
5 0.0632626 -0.01 1.05674 0.151465 0.355911
5 0.0614146 0.02 0.793953 0.153565 0.347372
5 0.0614146 -0.02 1.08092 0.135028 0.315967
5 0.0507211 0.04 0.587112 0.0223731 0.149535
5 0.0507211 -0.04 1.06547 0.120507 0.235156
5 0.0248981 0.06 0.433688 -0.156279 -0.172517
5 0.0248981 -0.06 0.649419 0.0437088 0.0987703
5 0.0651106 0 1.00374 0.156373 0.375117
5 0.0422521 0.05 0.514676 -0.101084 -0.0135508
5 0.0422521 -0.05 1.01592 0.102617 0.181673
5 0.0279244 0.06 0.429484 -0.164056 -0.170936
5 0.0279244 -0.06 0.719094 0.0536632 0.111513
5 0.0595998 0.03 0.699857 0.127746 0.304766
5 0.0595998 -0.03 1.12548 0.117935 0.276345
5 0.054221 0.04 0.608968 0.0428531 0.191699
5 0.054221 -0.04 1.10265 0.116052 0.243924
5 0.0310063 0.06 0.428039 -0.168312 -0.164212
5 0.0310063 -0.06 0.793449 0.0644424 0.125968
5 0.0455967 0.05 0.527723 -0.0811741 0.0274589
5 0.0455967 -0.05 1.07092 0.106008 0.192783
5 0.0669925 0.01 0.95989 0.164087 0.401806
5 0.0669925 -0.01 1.10223 0.136951 0.358658
5 0.0651106 0.02 0.851613 0.153378 0.374801
5 0.0651106 -0.02 1.11383 0.122832 0.321152
5 0.0688745 0 1.05418 0.143563 0.383204
5 0.0341446 0.06 0.429349 -0.168742 -0.152952
5 0.0341446 -0.06 0.869188 0.0754993 0.141087
5 0.0490026 0.05 0.542533 -0.058683 0.0703662
5 0.0490026 -0.05 1.10717 0.105861 0.2035
5 0.00128482 0.07 0.277269 -0.011444 0.0197784
5 0.00128482 -0.07 0.136479 0.000477463 0.02964
5 0.0632626 0.03 0.747476 0.13637 0.340428
5 0.0632626 -0.03 1.14326 0.106901 0.281666
5 0.00387803 0.07 0.381937 -0.0216043 0.0168757
5 0.00387803 -0.07 0.210253 0.00199876 0.0468601
5 0.0577851 0.04 0.637243 0.0622185 0.232842
5 0.0577851 -0.04 1.12573 0.109339 0.251985
5 0.00651881 0.07 0.451221 -0.0452326 -0.0013309
5 0.00651881 -0.07 0.278065 0.00424981 0.0608044
5 0.00920802 0.07 0.475729 -0.0674632 -0.0277524
5 0.00920802 -0.07 0.341335 0.0072111 0.0700445
5 0.0373405 0.06 0.433509 -0.165115 -0.137023
5 0.0373405 -0.06 0.941547 0.0860249 0.155833
5 0.0119465 0.07 0.472136 -0.090112 -0.0563313
5 0.0119465 -0.07 0.401783 0.0106883 0.0745068
5 0.0707909 -0.01 1.13371 0.121853 0.359095
5 0.0707909 0.01 1.0209 0.151356 0.413261
5 0.0147353 0.07 0.459521 -0.111812 -0.0850667
5 0.0147353 -0.07 0.461791 0.0147773 0.0757203
5 0.0688745 -0.02 1.13611 0.110273 0.325675
5 0.0688745 0.02 0.911978 0.148674 0.397265
5 0.0175752 0.07 0.442784 -0.132013 -0.114509
5 0.0175752 -0.07 0.523983 0.0197611 0.0761009
5 0.040595 0.06 0.440649 -0.157301 -0.115841
5 0.040595 -0.06 1.00525 0.095093 0.169583
5 0.052471 0.05 0.559833 -0.0343215 0.114316
5 0.052471 -0.05 1.12883 0.103075 0.214068
5 0.0727073 0 1.09537 0.129161 0.387143
5 0.0204672 0.07 0.424204 -0.150295 -0.142214
5 0.0204672 -0.07 0.590335 0.0259863 0.0782199
5 0.0614146 0.04 0.673112 0.0794274 0.272665
5 0.0614146 -0.04 1.13649 0.10137 0.260068
5 0.0669925 0.03 0.802993 0.140068 0.372881
5 0.0669925 -0.03 1.15311 0.0960072 0.288376
5 0.0234122 0.07 0.406351 -0.166484 -0.16545
5 0.0234122 -0.07 0.661272 0.0337066 0.083881
5 0.0439092 0.06 0.450836 -0.145313 -0.0891421
5 0.0439092 -0.06 1.05611 0.101925 0.18228
5 0.0264113 0.07 0.391232 -0.180471 -0.183007
5 0.0264113 -0.07 0.735452 0.0429279 0.0942777
5 0.056003 0.05 0.580697 -0.00933569 0.158253
5 0.056003 -0.05 1.14072 0.0986469 0.224681
5 0.0746589 -0.01 1.15393 0.107382 0.357642
5 0.0746589 0.01 1.07295 0.136048 0.418574
5 0.0727073 -0.02 1.14924 0.0984543 0.32955
5 0.0727073 0.02 0.971208 0.140027 0.414254
5 0.0294653 0.07 0.379764 -0.192 -0.195153
5 0.0294653 -0.07 0.810609 0.0533839 0.107906
5 0.0472842 0.06 0.464182 -0.129425 -0.0573834
5 0.0472842 -0.06 1.09233 0.10614 0.194143
5 0.0651106 -0.04 1.13879 0.0932043 0.268752
5 0.0651106 0.04 0.716694 0.0934134 0.310828
5 0.0766105 0 1.12744 0.114221 0.387426
5 0.0707909 -0.03 1.15542 0.0862776 0.296572
5 0.0707909 0.03 0.864151 0.139181 0.401119
5 0.0325754 0.07 0.372142 -0.200652 -0.202953
5 0.0325754 -0.07 0.883368 0.0645254 0.123758
5 0.0595998 0.05 0.60652 0.0152803 0.20145
5 0.0595998 -0.05 1.14161 0.093042 0.235532
5 0.0507211 0.06 0.48099 -0.110109 -0.0212751
5 0.0507211 -0.06 1.11446 0.107872 0.205383
5 0.0357425 0.07 0.368676 -0.205869 -0.206318
5 0.0357425 -0.07 0.95012 0.075726 0.140276
5 0.0766105 -0.02 1.15542 0.087939 0.332558
5 0.0766105 0.02 1.02546 0.128209 0.425389
5 0.0785979 -0.01 1.16807 0.0940348 0.355215
5 0.0785979 0.01 1.11483 0.119412 0.41827
5 0.0688745 -0.04 1.13498 0.0855872 0.278244
5 0.0688745 0.04 0.767175 0.103378 0.34654
5 0 0.08 0 0 0
5 0 -0.08 0 0 0
5 0.00256965 0.08 0.334393 -0.00823159 0.0367083
5 0.00256965 -0.08 0.187733 0.000781946 0.0555184
5 0.0389677 0.07 0.369622 -0.206996 -0.203996
5 0.0389677 -0.07 1.00741 0.0863178 0.156125
5 0.00518642 0.08 0.421733 -0.0162113 0.0349166
5 0.00518642 -0.08 0.262233 0.00187872 0.0736049
5 0.00785119 0.08 0.476617 -0.0273375 0.0224517
5 0.00785119 -0.08 0.332094 0.00342374 0.0860948
5 0.0746589 -0.03 1.15392 0.0783004 0.304891
5 0.0746589 0.03 0.926857 0.13352 0.424069
5 0.0805853 0 1.15073 0.0994724 0.384914
5 0.0632626 0.05 0.638605 0.0383182 0.244028
5 0.0632626 -0.05 1.13562 0.0876022 0.246729
5 0.0105648 0.08 0.499896 -0.038488 0.000818765
5 0.0105648 -0.08 0.397542 0.00526535 0.0930464
5 0.054221 0.06 0.501886 -0.0880393 0.0185005
5 0.054221 -0.06 1.12434 0.107615 0.216217
5 0.0133283 0.08 0.499225 -0.0502061 -0.0290515
5 0.0133283 -0.08 0.459504 0.00766019 0.0959084
5 0.0161424 0.08 0.482239 -0.0619574 -0.0651033
5 0.0161424 -0.08 0.519508 0.0109971 0.0971521
5 0.0422521 0.07 0.375284 -0.203588 -0.194159
5 0.0422521 -0.07 1.05268 0.0956788 0.170668
5 0.0190081 0.08 0.455548 -0.0735212 -0.103249
5 0.0190081 -0.08 0.579276 0.0156916 0.0994259
5 0.0219263 0.08 0.42485 -0.0847078 -0.139134
5 0.0219263 -0.08 0.639979 0.0220492 0.104648
5 0.0727073 -0.04 1.1277 0.0790253 0.288112
5 0.0727073 0.04 0.822792 0.108948 0.378747
5 0.0805853 -0.02 1.15568 0.0788593 0.334994
5 0.0805853 0.02 1.07249 0.114142 0.430703
5 0.0826091 -0.01 1.17392 0.0821182 0.352792
5 0.0826091 0.01 1.14609 0.102319 0.413375
5 0.0577851 0.06 0.527705 -0.0640445 0.0612798
5 0.0577851 -0.06 1.12414 0.105906 0.226893
5 0.0455967 0.07 0.385662 -0.195403 -0.17631
5 0.0455967 -0.07 1.08494 0.103399 0.183999
5 0.0669925 -0.05 1.12315 0.0823048 0.258239
5 0.0669925 0.05 0.677715 0.0589011 0.285986
5 0.0248981 0.08 0.394208 -0.0953449 -0.169992
5 0.0248981 -0.08 0.701587 0.0302056 0.11361
5 0.0785979 -0.03 1.14578 0.0720349 0.312483
5 0.0785979 0.03 0.987227 0.12385 0.440645
5 0.0846329 0 1.16396 0.0855067 0.38063
5 0.0279244 0.08 0.36617 -0.10528 -0.19503
5 0.0279244 -0.08 0.763611 0.0400263 0.125684
5 0.0490026 0.07 0.400814 -0.182435 -0.151039
5 0.0490026 -0.07 1.10629 0.109293 0.196294
5 0.0310063 0.08 0.34195 -0.114206 -0.214865
5 0.0310063 -0.08 0.824728 0.0512535 0.139469
5 0.0614146 -0.06 1.11677 0.103517 0.237622
5 0.0614146 0.06 0.559137 -0.0390885 0.106549
5 0.0766105 -0.04 1.11832 0.0735982 0.297717
5 0.0766105 0.04 0.880898 0.110073 0.406153
5 0.0707909 -0.05 1.10822 0.0777568 0.269794
5 0.0707909 0.05 0.723858 0.0753644 0.326186
5 0.0846329 -0.02 1.15123 0.0711449 0.337171
5 0.0846329 0.02 1.11007 0.0986937 0.430911
5 0.0341446 0.08 0.322103 -0.121697 -0.230326
5 0.0341446 -0.08 0.882771 0.0635344 0.15368
5 0.0866939 -0.01 1.17075 0.0720347 0.350763
5 0.0866939 0.01 1.16508 0.0855498 0.405586
5 0.052471 0.07 0.420783 -0.164992 -0.118733
5 0.052471 -0.07 1.11554 0.113259 0.207672
5 0.0826091 -0.03 1.13494 0.0672463 0.319487
5 0.0826091 0.03 1.04183 0.110982 0.450523
5 0.0373405 0.08 0.307243 -0.127233 -0.24151
5 0.0373405 -0.08 0.935592 0.0763858 0.167308
5 0.0651106 -0.06 1.10463 0.100989 0.248562
5 0.0651106 0.06 0.596389 -0.0141093 0.153803
5 0.0887548 0 1.1665 0.0726328 0.375476
5 0.056003 0.07 0.446238 -0.143502 -0.0798228
5 0.056003 -0.07 1.11229 0.115478 0.218448
5 0.040595 0.08 0.297809 -0.130272 -0.24715
5 0.040595 -0.08 0.98091 0.0892873 0.179866
5 0.0746589 -0.05 1.09323 0.0737643 0.281194
5 0.0746589 0.05 0.776323 0.0877281 0.363623
5 0.0805853 -0.04 1.10788 0.069302 0.306839
5 0.0805853 0.04 0.938539 0.107042 0.427588
5 0.00128482 0.09 0.289229 -0.000631602 0.0495939
5 0.00128482 -0.09 0.162191 0.00033635 0.0606713
5 0.00387803 0.09 0.389152 0.000752903 0.0605859
5 0.00387803 -0.09 0.242022 0.000315325 0.0849055
5 0.00651881 0.09 0.464632 0.00123715 0.0635345
5 0.00651881 -0.09 0.318604 0.000951226 0.101852
5 0.00920802 0.09 0.51489 0.00210669 0.0553527
5 0.00920802 -0.09 0.390383 0.00128311 0.11168
5 0.0119465 0.09 0.536829 0.00151459 0.0320016
5 0.0119465 -0.09 0.456678 0.00187923 0.115955
5 0.0887548 -0.02 1.1432 0.0645578 0.339152
5 0.0887548 0.02 1.13597 0.0826097 0.428132
5 0.0147353 0.09 0.528414 -0.000416825 -0.00681565
5 0.0147353 -0.09 0.517776 0.00329641 0.117451
5 0.0439092 0.08 0.293678 -0.130308 -0.245551
5 0.0439092 -0.08 1.01689 0.101713 0.191325
5 0.0688745 -0.06 1.08954 0.0985605 0.259741
5 0.0688745 0.06 0.638694 0.00966249 0.201944
5 0.0908536 -0.01 1.15939 0.0634632 0.349262
5 0.0908536 0.01 1.17077 0.0694788 0.396291
5 0.0175752 0.09 0.498234 -0.00358997 -0.0540288
5 0.0175752 -0.09 0.574494 0.00615444 0.119336
5 0.0866939 -0.03 1.12529 0.063178 0.325644
5 0.0866939 0.03 1.08731 0.0959184 0.45416
5 0.0595998 0.07 0.477372 -0.118613 -0.0347481
5 0.0595998 -0.07 1.10196 0.116458 0.228914
5 0.0204672 0.09 0.456962 -0.00818882 -0.10225
5 0.0204672 -0.09 0.628303 0.0108656 0.124047
5 0.0472842 0.08 0.295156 -0.126915 -0.235853
5 0.0472842 -0.08 1.043 0.113196 0.201939
5 0.0929523 0 1.1589 0.0607894 0.370631
5 0.0234122 0.09 0.411878 -0.0138653 -0.14663
5 0.0234122 -0.09 0.680017 0.0176397 0.132444
5 0.0785979 -0.05 1.08034 0.0702913 0.292302
5 0.0785979 0.05 0.833203 0.0951945 0.396283
5 0.0846329 -0.04 1.09848 0.0658943 0.315443
5 0.0846329 0.04 0.992606 0.100337 0.442783
5 0.0264113 0.09 0.367363 -0.0205622 -0.184887
5 0.0264113 -0.09 0.72962 0.0265501 0.143838
5 0.0727073 -0.06 1.07364 0.0964784 0.271113
5 0.0727073 0.06 0.684502 0.0312642 0.249253
5 0.0632626 -0.07 1.0879 0.116966 0.239317
5 0.0632626 0.07 0.514061 -0.0913316 0.015481
5 0.0294653 0.09 0.326318 -0.0280891 -0.217077
5 0.0294653 -0.09 0.778778 0.0372456 0.156717
5 0.0507211 0.08 0.302647 -0.119873 -0.217693
5 0.0507211 -0.08 1.05902 0.123361 0.212004
5 0.0929523 -0.02 1.13268 0.0586837 0.341357
5 0.0929523 0.02 1.14798 0.0664413 0.422975
5 0.0950896 -0.01 1.14349 0.0558311 0.348977
5 0.0950896 0.01 1.16192 0.0543801 0.387991
5 0.0908536 -0.03 1.11734 0.059553 0.330939
5 0.0908536 0.03 1.12072 0.0794855 0.45649
5 0.0325754 0.09 0.289571 -0.0360848 -0.24428
5 0.0325754 -0.09 0.826172 0.0498616 0.169499
5 0.0826091 -0.05 1.07044 0.0676342 0.303089
5 0.0826091 0.05 0.891919 0.0981419 0.422907
5 0.054221 0.08 0.315857 -0.109232 -0.19113
5 0.054221 -0.08 1.0647 0.132029 0.22174
5 0.0357425 0.09 0.25802 -0.0441822 -0.267758
5 0.0357425 -0.09 0.871437 0.0640273 0.18119
5 0.0669925 -0.07 1.07183 0.117081 0.249967
5 0.0669925 0.07 0.555188 -0.062317 0.0697312
5 0.0972268 0 1.14195 0.049788 0.368369
5 0.0766105 -0.06 1.05842 0.0948063 0.282677
5 0.0766105 0.06 0.733776 0.0501283 0.29458
5 0.0887548 -0.04 1.09099 0.0630534 0.323486
5 0.0887548 0.04 1.03992 0.0905778 0.453115
5 0.0389677 0.09 0.232652 -0.0518884 -0.28797
5 0.0389677 -0.09 0.913413 0.0794752 0.191645
5 0.0577851 -0.08 1.06198 0.139276 0.231364
5 0.0577851 0.08 0.334495 -0.0952845 -0.156712
5 0.0972268 -0.02 1.12014 0.05298 0.345092
5 0.0972268 0.02 1.14433 0.0507728 0.416638
5 0.0422521 0.09 0.213674 -0.058618 -0.302477
5 0.0422521 -0.09 0.950147 0.0956803 0.201027
5 0.0707909 -0.07 1.05496 0.117099 0.26097
5 0.0707909 0.07 0.598029 -0.0332912 0.125889
5 0.0950896 -0.03 1.11048 0.0558852 0.336249
5 0.0950896 0.03 1.13852 0.0624144 0.451126
5 0.0994033 -0.01 1.12326 0.048333 0.352076
5 0.0994033 0.01 1.13914 0.0406035 0.384433
5 0 0.1 0 0 0
5 0 -0.1 0 0 0
5 0.00256965 0.1 0.290933 0.00152118 -0.0205425
5 0.00256965 -0.1 0.227531 -0.00184397 0.0850445
5 0.0866939 -0.05 1.06323 0.0655174 0.313556
5 0.0866939 0.05 0.949391 0.0963013 0.443549
5 0.00518642 0.1 0.361715 0.00459836 -0.0281097
5 0.00518642 -0.1 0.311849 -0.00378714 0.10944
5 0.00785119 0.1 0.408797 0.00968001 -0.0384894
5 0.00785119 -0.1 0.390936 -0.00616299 0.127207
5 0.0805853 -0.06 1.0449 0.0936607 0.294361
5 0.0805853 0.06 0.786736 0.0654159 0.336908
5 0.0105648 0.1 0.432827 0.0154076 -0.055819
5 0.0105648 -0.1 0.462134 -0.0083912 0.139273
5 0.0614146 -0.08 1.05393 0.145346 0.241092
5 0.0614146 0.08 0.358371 -0.0785408 -0.11536
5 0.0133283 0.1 0.434092 0.0207673 -0.0821674
5 0.0133283 -0.1 0.524231 -0.0098552 0.147663
5 0.0455967 0.09 0.200093 -0.063624 -0.309257
5 0.0455967 -0.09 0.979802 0.112096 0.209607
5 0.0929523 -0.04 1.08513 0.060567 0.331237
5 0.0929523 0.04 1.07706 0.0786587 0.459227
5 0.0161424 0.1 0.416222 0.0249809 -0.1157
5 0.0161424 -0.1 0.577487 -0.00985926 0.15474
5 0.10158 0 1.11412 0.039384 0.372029
5 0.0190081 0.1 0.386083 0.0274205 -0.152071
5 0.0190081 -0.1 0.623651 -0.00783065 0.162428
5 0.0746589 -0.07 1.03815 0.117293 0.272499
5 0.0746589 0.07 0.639814 -0.00473761 0.181331
5 0.0219263 0.1 0.349939 0.0278926 -0.187629
5 0.0219263 -0.1 0.664666 -0.00345252 0.171688
5 0.0490026 0.09 0.194058 -0.0661977 -0.306802
5 0.0490026 -0.09 1.00099 0.127999 0.217858
5 0.0248981 0.1 0.311895 0.0265494 -0.220464
5 0.0248981 -0.1 0.702187 0.00341127 0.182417
5 0.0651106 -0.08 1.04252 0.150479 0.251035
5 0.0651106 0.08 0.38758 -0.0595055 -0.0681159
5 0.10158 -0.02 1.10348 0.0469269 0.352378
5 0.10158 0.02 1.12258 0.0362296 0.414597
5 0.0908536 -0.05 1.0581 0.0639641 0.323808
5 0.0908536 0.05 1.00229 0.0906016 0.458265
5 0.0846329 -0.06 1.03341 0.0930308 0.306025
5 0.0846329 0.06 0.841753 0.0765406 0.374774
5 0.0279244 0.1 0.27497 0.0236757 -0.250138
5 0.0279244 -0.1 0.737258 0.01285 0.193838
5 0.0994033 -0.03 1.10334 0.0518683 0.343069
5 0.0994033 0.03 1.13775 0.0456866 0.443
5 0.052471 0.09 0.194937 -0.0658633 -0.294194
5 0.052471 -0.09 1.01328 0.142896 0.226193
5 0.103796 -0.01 1.09477 0.0404009 0.361448
5 0.103796 0.01 1.09931 0.0281941 0.390162
5 0.0310063 0.1 0.24094 0.0197226 -0.276948
5 0.0310063 -0.1 0.770396 0.0248521 0.204984
5 0.0972268 -0.04 1.08025 0.0581196 0.339396
5 0.0972268 0.04 1.10033 0.0654436 0.461098
5 0.0785979 -0.07 1.02197 0.117876 0.284716
5 0.0785979 0.07 0.685784 0.0223342 0.237098
5 0.0688745 -0.08 1.02904 0.154869 0.261277
5 0.0688745 0.08 0.422796 -0.0386062 -0.0159511
5 0.0341446 0.1 0.210597 0.0151337 -0.301307
5 0.0341446 -0.1 0.80223 0.0391942 0.215114
5 0.056003 0.09 0.201475 -0.0625659 -0.27176
5 0.056003 -0.09 1.01769 0.156484 0.234648
5 0.106012 0 1.06812 0.0296467 0.382059
5 0.0373405 0.1 0.186223 0.0103381 -0.323562
5 0.0373405 -0.1 0.832779 0.0555356 0.224016
5 0.0887548 -0.06 1.0239 0.0927967 0.317589
5 0.0887548 0.06 0.896511 0.0833435 0.40647
5 0.0950896 -0.05 1.05461 0.0628647 0.333957
5 0.0950896 0.05 1.0467 0.0821282 0.47103
5 0.106012 -0.02 1.07691 0.0403416 0.3632
5 0.106012 0.02 1.0757 0.0237307 0.420629
5 0.040595 0.1 0.168654 0.00580962 -0.341548
5 0.040595 -0.1 0.861158 0.0733188 0.231788
5 0.0595998 -0.09 1.016 0.168685 0.243449
5 0.0595998 0.09 0.212902 -0.0564521 -0.240504
5 0.103796 -0.03 1.09255 0.0471029 0.352924
5 0.103796 0.03 1.11412 0.0304284 0.440794
5 0.0727073 -0.08 1.01438 0.158693 0.271899
5 0.0727073 0.08 0.46473 -0.0163927 0.0397486
5 0.0826091 -0.07 1.00683 0.118841 0.29734
5 0.0826091 0.07 0.736057 0.0459977 0.291357
5 0.108269 -0.01 1.04731 0.0323112 0.373595
5 0.108269 0.01 1.03108 0.0176766 0.403039
5 0.10158 -0.04 1.07507 0.0553236 0.348921
5 0.10158 0.04 1.1056 0.0519195 0.461661
5 0.0439092 0.1 0.157394 0.00202371 -0.352511
5 0.0439092 -0.1 0.886073 0.0921663 0.238742
5 0.00128482 0.11 0.209625 0.0019738 -0.0833608
5 0.00128482 -0.11 0.206761 -0.00244662 0.0816524
5 0.0632626 -0.09 1.00985 0.179275 0.252689
5 0.0632626 0.09 0.229155 -0.0477604 -0.201657
5 0.00387803 0.11 0.27574 0.00398988 -0.10899
5 0.00387803 -0.11 0.299164 -0.00558118 0.112953
5 0.00651881 0.11 0.317346 0.0124142 -0.12757
5 0.00651881 -0.11 0.387621 -0.0108343 0.138052
5 0.00920802 0.11 0.338326 0.0229629 -0.145277
5 0.00920802 -0.11 0.467148 -0.0160524 0.157246
5 0.110526 0 0.993521 0.0215236 0.388911
5 0.0472842 0.1 0.153132 -0.000436039 -0.355366
5 0.0472842 -0.1 0.906539 0.111494 0.245413
5 0.0929523 -0.06 1.0163 0.0928331 0.329015
5 0.0929523 0.06 0.948137 0.0861799 0.432207
5 0.0119465 0.11 0.341263 0.0350472 -0.165357
5 0.0119465 -0.11 0.534338 -0.0206751 0.172213
5 0.0766105 -0.08 0.999249 0.162072 0.282863
5 0.0766105 0.08 0.513423 0.0066329 0.0976812
5 0.0147353 0.11 0.329861 0.0469251 -0.188504
5 0.0147353 -0.11 0.588141 -0.0239215 0.185032
5 0.0994033 -0.05 1.05258 0.0618593 0.344312
5 0.0994033 0.05 1.07836 0.0715397 0.479236
5 0.0175752 0.11 0.308376 0.0570058 -0.213458
5 0.0175752 -0.11 0.629545 -0.0249662 0.19714
5 0.0866939 -0.07 0.99313 0.120131 0.310121
5 0.0866939 0.07 0.789664 0.0657247 0.341297
5 0.0204672 0.11 0.280754 0.0644552 -0.238554
5 0.0204672 -0.11 0.66227 -0.0233759 0.209188
5 0.0507211 0.1 0.155987 -0.00105732 -0.348882
5 0.0507211 -0.1 0.921629 0.13044 0.252011
5 0.0669925 -0.09 1.0005 0.188594 0.262171
5 0.0669925 0.09 0.251924 -0.0366068 -0.156004
5 0.110526 -0.02 1.0332 0.0340325 0.371521
5 0.110526 0.02 0.993941 0.0145091 0.428568
5 0.108269 -0.03 1.07301 0.0415483 0.364838
5 0.108269 0.03 1.05828 0.0186186 0.448523
5 0.0234122 0.11 0.250154 0.0691691 -0.26309
5 0.0234122 -0.11 0.688081 -0.0189384 0.221074
5 0.0264113 0.11 0.218177 0.0714557 -0.287255
5 0.0264113 -0.11 0.711037 -0.0116047 0.232316
5 0.112825 -0.01 0.970977 0.0258962 0.374137
5 0.112825 0.01 0.924676 0.0102071 0.404875
5 0.106012 -0.04 1.06722 0.0517819 0.360201
5 0.106012 0.04 1.08645 0.039646 0.465636
5 0.0805853 -0.08 0.984198 0.165057 0.294047
5 0.0805853 0.08 0.567998 0.0297328 0.156758
5 0.054221 0.1 0.165113 0.000507791 -0.33218
5 0.054221 -0.1 0.931227 0.148534 0.258487
5 0.0294653 0.11 0.188015 0.0718979 -0.311339
5 0.0294653 -0.11 0.729602 -0.000788846 0.242484
5 0.0972268 -0.06 1.0108 0.0928868 0.340326
5 0.0972268 0.06 0.993286 0.0856665 0.452996
5 0.0707909 -0.09 0.988845 0.196705 0.272005
5 0.0707909 0.09 0.286056 -0.0222028 -0.103403
5 0.0908536 -0.07 0.981156 0.121574 0.322878
5 0.0908536 0.07 0.844719 0.0807484 0.382778
5 0.0325754 0.11 0.159847 0.0711656 -0.335103
5 0.0325754 -0.11 0.747039 0.0130929 0.251236
5 0.115123 0 0.892155 0.0160552 0.37672
5 0.103796 -0.05 1.05181 0.0604626 0.355382
5 0.103796 0.05 1.09218 0.0600176 0.483615
5 0.0577851 -0.1 0.936467 0.165451 0.264992
5 0.0577851 0.1 0.179126 0.00422672 -0.305194
5 0.0357425 0.11 0.134944 0.0696349 -0.358091
5 0.0357425 -0.11 0.76428 0.0297985 0.258533
5 0.0846329 -0.08 0.969637 0.167617 0.305292
5 0.0846329 0.08 0.627 0.0517523 0.215219
5 0.0389677 0.11 0.11927 0.067787 -0.380434
5 0.0389677 -0.11 0.781992 0.0488455 0.2647
5 0.112825 -0.03 1.04147 0.0363716 0.373514
5 0.112825 0.03 0.961679 0.0115307 0.457839
5 0.115123 -0.02 0.970014 0.0300811 0.367991
5 0.115123 0.02 0.881254 0.0081898 0.422509
5 0.0746589 -0.09 0.975553 0.203676 0.282126
5 0.0746589 0.09 0.335036 -0.0053315 -0.0448037
5 0.0614146 -0.1 0.938483 0.180897 0.27174
5 0.0614146 0.1 0.196801 0.00968956 -0.268875
5 0.110526 -0.04 1.0536 0.0476564 0.371788
5 0.110526 0.04 1.03445 0.0305281 0.474013
5 0.0422521 0.11 0.109016 0.0659569 -0.395313
5 0.0422521 -0.11 0.799089 0.0692786 0.26978
5 0.117464 -0.01 0.873203 0.0235767 0.351234
5 0.117464 0.01 0.799709 0.00453887 0.37662
5 0.10158 -0.06 1.00782 0.0925606 0.351749
5 0.10158 0.06 1.02806 0.0825527 0.468436
5 0.0950896 -0.07 0.971333 0.122929 0.335422
5 0.0950896 0.07 0.898855 0.0912419 0.416762
5 0.0455967 0.11 0.106791 0.0643792 -0.402999
5 0.0455967 -0.11 0.815262 0.0916148 0.274555
5 0.108269 -0.05 1.05152 0.0580121 0.367665
5 0.108269 0.05 1.08122 0.0495144 0.489615
5 0.0651106 -0.1 0.937828 0.194726 0.278733
5 0.0651106 0.1 0.217532 0.0164528 -0.224475
5 0.0887548 -0.08 0.955941 0.169648 0.316364
5 0.0887548 0.08 0.688791 0.0716652 0.270166
5 0.0785979 -0.09 0.961316 0.209445 0.292113
5 0.0785979 0.09 0.393077 0.0142746 0.0171195