# UMean  POINT_DATA 90431
# x  y  z  UMean_x  UMean_y  UMean_z
5 0 0 0 0 0
5 0.00256965 0 0.0394644 0.00101536 0.0836937
5 0.00518642 0 0.0682497 0.00226546 0.121345
5 0.00785119 0 0.105452 0.00409365 0.161541
5 0.00128482 0.01 0.0273392 0.000612932 0.0636775
5 0.00128482 -0.01 0.0279479 0.000557296 0.067495
5 0.0105648 0 0.147686 0.00619172 0.203324
5 0.00387803 0.01 0.0504984 0.00151208 0.0985986
5 0.00387803 -0.01 0.0520756 0.00137925 0.105009
5 0.00651881 0.01 0.0837508 0.00319877 0.136515
5 0.00651881 -0.01 0.0866792 0.00297198 0.145265
5 0.0133283 0 0.192633 0.00841108 0.245415
5 0.00920802 0.01 0.123243 0.0052297 0.177004
5 0.00920802 -0.01 0.128141 0.00497448 0.187386
5 0.0119465 0.01 0.165866 0.00737946 0.218831
5 0.0119465 -0.01 0.173502 0.00718363 0.230083
5 0.0161424 0 0.239137 0.0106566 0.286566
5 0.0147353 0.01 0.210073 0.00956238 0.260593
5 0.0147353 -0.01 0.221098 0.00951925 0.272158
5 0.0190081 0 0.286629 0.0128315 0.32566
5 0 0.02 0 0 0
5 0 -0.02 0 0 0
5 0.00256965 0.02 0.0382711 0.00109512 0.0779517
5 0.00256965 -0.02 0.0410188 0.000896522 0.0886305
5 0.0175752 0.01 0.255306 0.0116845 0.300974
5 0.0175752 -0.01 0.270081 0.0118607 0.312545
5 0.00518642 0.02 0.0657474 0.00237579 0.113104
5 0.00518642 -0.02 0.0709647 0.00203981 0.128694
5 0.00785119 0.02 0.10097 0.00420825 0.151311
5 0.00785119 -0.02 0.109704 0.00372836 0.170942
5 0.0219263 0 0.334628 0.0148729 0.361739
5 0.0105648 0.02 0.140487 0.00626782 0.191781
5 0.0105648 -0.02 0.154021 0.00574604 0.214207
5 0.0204672 0.01 0.301262 0.0136748 0.338808
5 0.0204672 -0.01 0.319876 0.0141064 0.350321
5 0.0133283 0.02 0.182096 0.00842555 0.233194
5 0.0133283 -0.02 0.201675 0.0079766 0.257183
5 0.0248981 0 0.382544 0.0167508 0.394061
5 0.0234122 0.01 0.34753 0.015509 0.373189
5 0.0234122 -0.01 0.369852 0.0162017 0.384646
5 0.0161424 0.02 0.224879 0.0106047 0.274146
5 0.0161424 -0.02 0.251413 0.0103405 0.298728
5 0.0190081 0.02 0.268522 0.0127207 0.313314
5 0.0190081 -0.02 0.30245 0.0127323 0.337889
5 0.0279244 0 0.429684 0.0184433 0.422152
5 0.0264113 0.01 0.393534 0.017169 0.403513
5 0.0264113 -0.01 0.419271 0.0181241 0.414901
5 0.0219263 0.02 0.312767 0.0147125 0.349577
5 0.0219263 -0.02 0.354074 0.0150621 0.37386
5 0.00128482 0.03 0.0265749 0.000684719 0.0586942
5 0.00128482 -0.03 0.0294318 0.000429307 0.0710344
5 0.00387803 0.03 0.0486754 0.00157088 0.0908416
5 0.00387803 -0.03 0.0546237 0.00122035 0.110989
5 0.00651881 0.03 0.0800701 0.00322169 0.126468
5 0.00651881 -0.03 0.0904858 0.00258787 0.15352
5 0.0310063 0 0.475321 0.0199347 0.445835
5 0.0294653 0.01 0.438605 0.0186305 0.429443
5 0.0294653 -0.01 0.467338 0.0198501 0.440754
5 0.00920802 0.03 0.116823 0.00518317 0.165262
5 0.00920802 -0.03 0.133515 0.00437941 0.197603
5 0.0248981 0.02 0.357201 0.0165391 0.382133
5 0.0248981 -0.02 0.405494 0.0172686 0.405998
5 0.0119465 0.03 0.156025 0.0072793 0.206034
5 0.0119465 -0.03 0.180935 0.00644699 0.241764
5 0.0147353 0.03 0.196429 0.00948142 0.247327
5 0.0147353 -0.03 0.231174 0.00875693 0.284732
5 0.0325754 0.01 0.482068 0.019883 0.450993
5 0.0325754 -0.01 0.513281 0.0213755 0.462153
5 0.0341446 0 0.518751 0.0212201 0.465231
5 0.0279244 0.02 0.401268 0.0181692 0.410504
5 0.0279244 -0.02 0.455848 0.0193068 0.433887
5 0.0175752 0.03 0.237717 0.0116907 0.287698
5 0.0175752 -0.03 0.283309 0.0112255 0.325485
5 0.0204672 0.03 0.27981 0.0138334 0.325784
5 0.0204672 -0.03 0.336543 0.0137371 0.363212
5 0.0310063 0.02 0.444339 0.0195799 0.43453
5 0.0310063 -0.02 0.504285 0.0211465 0.457364
5 0.0357425 0.01 0.523275 0.0209191 0.468426
5 0.0357425 -0.01 0.556389 0.022703 0.479357
5 0.0373405 0 0.559322 0.022295 0.480716
5 0.0234122 0.03 0.322474 0.0158334 0.360534
5 0.0234122 -0.03 0.390035 0.0162035 0.397267
5 0.0341446 0.02 0.485758 0.0207552 0.454342
5 0.0341446 -0.02 0.550038 0.022775 0.47654
5 0.0264113 0.03 0.365276 0.0176454 0.391302
5 0.0264113 -0.03 0.44283 0.0185455 0.427185
5 0 0.04 0 0 0
5 0 -0.04 0 0 0
5 0.00256965 0.04 0.035714 0.00114609 0.0714899
5 0.00256965 -0.04 0.0433789 0.00086477 0.093245
5 0.0389677 0.01 0.561575 0.0217337 0.482204
5 0.0389677 -0.01 0.596061 0.0238242 0.492881
5 0.00518642 0.04 0.0613656 0.00241026 0.104206
5 0.00518642 -0.04 0.0744907 0.00195386 0.135479
5 0.040595 0 0.596491 0.0231623 0.492838
5 0.00785119 0.04 0.0940767 0.00420085 0.140342
5 0.00785119 -0.04 0.114665 0.00351638 0.179722
5 0.0105648 0.04 0.130441 0.00621588 0.179179
5 0.0105648 -0.04 0.160805 0.00538488 0.224687
5 0.0294653 0.03 0.407666 0.0192322 0.417765
5 0.0294653 -0.03 0.493962 0.0207078 0.452712
5 0.0133283 0.04 0.168445 0.00836842 0.219445
5 0.0133283 -0.04 0.210694 0.00748115 0.268933
5 0.0373405 0.02 0.524848 0.0216779 0.470276
5 0.0373405 -0.02 0.592456 0.0241836 0.491783
5 0.0161424 0.04 0.207378 0.0106169 0.259738
5 0.0161424 -0.04 0.263004 0.00976196 0.311271
5 0.0422521 0.01 0.59644 0.0223432 0.492897
5 0.0422521 -0.01 0.631897 0.0247483 0.503371
5 0.0439092 0 0.629924 0.0238414 0.502205
5 0.0325754 0.03 0.449027 0.0205742 0.439925
5 0.0325754 -0.03 0.542569 0.0226528 0.473841
5 0.0190081 0.04 0.247107 0.0128857 0.298701
5 0.0190081 -0.04 0.316834 0.0121468 0.350776
5 0.040595 0.02 0.560979 0.0223429 0.482796
5 0.040595 -0.02 0.631062 0.0253683 0.503652
5 0.0219263 0.04 0.287561 0.0150998 0.335142
5 0.0219263 -0.04 0.371374 0.0145578 0.386739
5 0.0357425 0.03 0.48867 0.0216446 0.458026
5 0.0357425 -0.03 0.587925 0.0243688 0.490812
5 0.0455967 0.01 0.627596 0.0227788 0.501088
5 0.0455967 -0.01 0.663768 0.0254956 0.511467
5 0.0248981 0.04 0.328497 0.0171903 0.368153
5 0.0248981 -0.04 0.425746 0.0169271 0.418642
5 0.0472842 0 0.659529 0.0243607 0.509387
5 0.0439092 0.02 0.593684 0.0227685 0.492422
5 0.0439092 -0.02 0.665628 0.0263355 0.512787
5 0.0279244 0.04 0.369498 0.0191016 0.397168
5 0.0279244 -0.04 0.479009 0.0191876 0.446171
5 0.0389677 0.03 0.525881 0.0224145 0.472448
5 0.0389677 -0.03 0.62946 0.0258386 0.504085
5 0.0490026 0.01 0.655003 0.0230837 0.507324
5 0.0490026 -0.01 0.691755 0.026085 0.517672
5 0.00128482 0.05 0.0237215 0.000715535 0.0533561
5 0.00128482 -0.05 0.031601 0.000496596 0.0744859
5 0.00387803 0.05 0.0438876 0.00161335 0.0830724
5 0.00387803 -0.05 0.057863 0.00131294 0.116477
5 0.00651881 0.05 0.0728343 0.00323537 0.116449
5 0.00651881 -0.05 0.094996 0.00269448 0.160936
5 0.0310063 0.04 0.410017 0.0207857 0.421956
5 0.0310063 -0.04 0.530236 0.0212807 0.469247
5 0.0507211 0 0.685411 0.0247474 0.514856
5 0.00920802 0.05 0.106585 0.0051635 0.153197
5 0.00920802 -0.05 0.13967 0.00440404 0.206836
5 0.0472842 0.02 0.622724 0.0229936 0.499698
5 0.0472842 -0.02 0.696151 0.0270943 0.519777
5 0.0119465 0.05 0.142339 0.00723791 0.19223
5 0.0119465 -0.05 0.189107 0.00630943 0.252551
5 0.0422521 0.03 0.560027 0.0228805 0.483636
5 0.0422521 -0.03 0.666841 0.0270624 0.514273
5 0.0147353 0.05 0.178996 0.00947545 0.232196
5 0.0147353 -0.05 0.241568 0.00841165 0.296691
5 0.0341446 0.04 0.449416 0.0221997 0.442591
5 0.0341446 -0.04 0.57859 0.0231645 0.488032
5 0.0175752 0.05 0.216375 0.0118203 0.271737
5 0.0175752 -0.05 0.295974 0.0106542 0.338183
5 0.052471 0.01 0.67882 0.0232831 0.512061
5 0.052471 -0.01 0.716073 0.026538 0.522367
5 0.0204672 0.05 0.254534 0.0141986 0.309592
5 0.0204672 -0.05 0.351522 0.0129709 0.376231
5 0.054221 0 0.707847 0.0250194 0.519007
5 0.0507211 0.02 0.648101 0.0230606 0.505148
5 0.0507211 -0.02 0.722777 0.0276591 0.525076
5 0.0455967 0.03 0.59068 0.0230717 0.492069
5 0.0455967 -0.03 0.700016 0.0280361 0.522038
5 0.0373405 0.04 0.486993 0.0233088 0.459366
5 0.0373405 -0.04 0.623355 0.0248069 0.502889
5 0.0234122 0.05 0.293433 0.0165342 0.344662
5 0.0234122 -0.05 0.407405 0.0153202 0.410253
5 0.0264113 0.05 0.332814 0.0187485 0.376119
5 0.0264113 -0.05 0.462726 0.0176397 0.439867
5 0.056003 0.01 0.699411 0.0233866 0.515726
5 0.056003 -0.01 0.73709 0.02687 0.525877
5 0.040595 0.04 0.522067 0.024091 0.472678
5 0.040595 -0.04 0.664003 0.026181 0.514343
5 0.0490026 0.03 0.617624 0.0230402 0.498313
5 0.0490026 -0.03 0.729074 0.0287605 0.527934
5 0.0577851 0 0.72724 0.0251858 0.522196
5 0.054221 0.02 0.670087 0.0230049 0.509257
5 0.054221 -0.02 0.74579 0.0280523 0.529022
5 0.0294653 0.05 0.372245 0.0207808 0.403493
5 0.0294653 -0.05 0.51653 0.019858 0.464923
5 0.0439092 0.04 0.554083 0.0245533 0.482966
5 0.0439092 -0.04 0.700262 0.0272701 0.523004
5 0.0325754 0.05 0.411142 0.0225558 0.426646
5 0.0325754 -0.05 0.567895 0.0219045 0.485518
5 0 0.06 0 0 0
5 0 -0.06 0 0 0
5 0.00256965 0.06 0.031001 0.0011799 0.0637547
5 0.00256965 -0.06 0.046072 0.00103631 0.0990523
5 0.00518642 0.06 0.0542521 0.00249045 0.0938507
5 0.00518642 -0.06 0.0783897 0.00227003 0.143269
5 0.0595998 0.01 0.71722 0.023395 0.518665
5 0.0595998 -0.01 0.755243 0.0270916 0.528518
5 0.052471 0.03 0.640962 0.0228353 0.502898
5 0.052471 -0.03 0.754214 0.029253 0.532331
5 0.00785119 0.06 0.0842187 0.0043143 0.127781
5 0.00785119 -0.06 0.120137 0.00396219 0.189228
5 0.0105648 0.06 0.117531 0.00636284 0.16477
5 0.0105648 -0.06 0.168259 0.00587082 0.235635
5 0.0577851 0.02 0.689152 0.0228574 0.512443
5 0.0577851 -0.02 0.765596 0.0283022 0.531928
5 0.0614146 0 0.744019 0.0252603 0.524709
5 0.0357425 0.05 0.448835 0.0240243 0.44577
5 0.0357425 -0.05 0.615983 0.0237323 0.501959
5 0.0133283 0.06 0.152243 0.00855099 0.203572
5 0.0133283 -0.06 0.220421 0.00792023 0.280969
5 0.0472842 0.04 0.582682 0.0247344 0.490703
5 0.0472842 -0.04 0.732094 0.028067 0.529472
5 0.0161424 0.06 0.187666 0.0108579 0.242811
5 0.0161424 -0.06 0.275133 0.0100718 0.323989
5 0.0190081 0.06 0.223718 0.0132246 0.28114
5 0.0190081 -0.06 0.331386 0.0122616 0.363775
5 0.0389677 0.05 0.484594 0.0251519 0.461224
5 0.0389677 -0.05 0.660064 0.0252883 0.514704
5 0.056003 0.03 0.661162 0.0225145 0.506343
5 0.056003 -0.03 0.775789 0.0295482 0.535515
5 0.0219263 0.06 0.260443 0.0155966 0.317372
5 0.0219263 -0.06 0.388329 0.0144373 0.399658
5 0.0632626 0.01 0.732666 0.0233322 0.521079
5 0.0632626 -0.01 0.770951 0.0272223 0.530575
5 0.0614146 0.02 0.705771 0.0226505 0.514986
5 0.0614146 -0.02 0.782654 0.0284401 0.534084
5 0.0507211 0.04 0.607789 0.024688 0.496371
5 0.0507211 -0.04 0.759635 0.0285828 0.534232
5 0.0248981 0.06 0.297775 0.0179203 0.350567
5 0.0248981 -0.06 0.445106 0.0165552 0.431175
5 0.0651106 0 0.758578 0.0252613 0.526725
5 0.0422521 0.05 0.517772 0.0259173 0.473407
5 0.0422521 -0.05 0.699655 0.0265351 0.524311
5 0.0279244 0.06 0.335438 0.0201383 0.380105
5 0.0279244 -0.06 0.500802 0.0185667 0.458093
5 0.0595998 0.03 0.67882 0.0221334 0.509039
5 0.0595998 -0.03 0.794266 0.0296989 0.537801
5 0.054221 0.04 0.629681 0.0244797 0.500455
5 0.054221 -0.04 0.783198 0.0288499 0.537657
5 0.0310063 0.06 0.372978 0.0221826 0.405686
5 0.0310063 -0.06 0.554474 0.0204225 0.480428
5 0.0455967 0.05 0.54786 0.0263436 0.482755
5 0.0455967 -0.05 0.734546 0.0274471 0.531397
5 0.0669925 0.01 0.746107 0.0232307 0.52301
5 0.0669925 -0.01 0.784592 0.0272601 0.532238
5 0.0651106 0.02 0.720312 0.0224202 0.517001
5 0.0651106 -0.02 0.79739 0.028486 0.535726
5 0.0688745 0 0.771221 0.0252093 0.528316
5 0.0341446 0.06 0.409814 0.0239835 0.427299
5 0.0341446 -0.06 0.60522 0.0220786 0.49841
5 0.0490026 0.05 0.57457 0.026482 0.489676
5 0.0490026 -0.05 0.764749 0.0280243 0.536519
5 0.00128482 0.07 0.0193866 0.000688507 0.0460794
5 0.00128482 -0.07 0.0337611 0.00065817 0.0805164
5 0.0632626 0.03 0.694382 0.0217413 0.511163
5 0.0632626 -0.03 0.810161 0.0297476 0.539443
5 0.00387803 0.07 0.0370111 0.00170237 0.072515
5 0.00387803 -0.07 0.0610669 0.00167765 0.124737
5 0.0577851 0.04 0.648852 0.0241758 0.5034
5 0.0577851 -0.04 0.803244 0.0289205 0.540073
5 0.00651881 0.07 0.0632797 0.00341096 0.103371
5 0.00651881 -0.07 0.0996387 0.00339528 0.170932
5 0.00920802 0.07 0.0941807 0.00544768 0.138111
5 0.00920802 -0.07 0.146252 0.00535525 0.218216
5 0.0373405 0.06 0.445295 0.0254891 0.445149
5 0.0373405 -0.06 0.65223 0.0234932 0.512428
5 0.0119465 0.07 0.127026 0.00760261 0.175547
5 0.0119465 -0.07 0.198015 0.00741489 0.264946
5 0.0707909 -0.01 0.796393 0.0272306 0.533583
5 0.0707909 0.01 0.757796 0.0231158 0.524431
5 0.0147353 0.07 0.160619 0.0098884 0.214324
5 0.0147353 -0.07 0.253005 0.00954532 0.309693
5 0.0688745 -0.02 0.810108 0.0284511 0.537013
5 0.0688745 0.02 0.733025 0.0221956 0.518496
5 0.0175752 0.07 0.194683 0.012248 0.252994
5 0.0175752 -0.07 0.309997 0.0116765 0.351396
5 0.040595 0.06 0.478774 0.026668 0.459545
5 0.040595 -0.06 0.694857 0.0246255 0.522999
5 0.052471 0.05 0.598008 0.0263947 0.494599
5 0.052471 -0.05 0.790511 0.0282933 0.540144
5 0.0727073 0 0.782144 0.0251255 0.529494
5 0.0204672 0.07 0.229284 0.014632 0.290245
5 0.0204672 -0.07 0.368062 0.0137453 0.389298
5 0.0614146 0.04 0.665769 0.0238332 0.505536
5 0.0614146 -0.04 0.820313 0.0288536 0.541772
5 0.0669925 0.03 0.708098 0.0213766 0.512755
5 0.0669925 -0.03 0.823862 0.0297141 0.540647
5 0.0234122 0.07 0.264529 0.0170222 0.324996
5 0.0234122 -0.07 0.42634 0.015713 0.422856
5 0.0439092 0.06 0.509698 0.0275217 0.470844
5 0.0439092 -0.06 0.732698 0.0254436 0.530725
5 0.0264113 0.07 0.300331 0.0193768 0.356496
5 0.0264113 -0.07 0.483964 0.0175482 0.451729
5 0.056003 0.05 0.618596 0.0261742 0.497981
5 0.056003 -0.05 0.812282 0.028305 0.542638
5 0.0746589 -0.01 0.806496 0.0271375 0.534635
5 0.0746589 0.01 0.767894 0.0230182 0.525328
5 0.0727073 -0.02 0.820986 0.0283436 0.538043
5 0.0727073 0.02 0.74407 0.0219952 0.519456
5 0.0294653 0.07 0.336371 0.0216474 0.384319
5 0.0294653 -0.07 0.539997 0.0192213 0.475857
5 0.0472842 0.06 0.537685 0.028084 0.479414
5 0.0472842 -0.06 0.765611 0.0259369 0.536228
5 0.0651106 -0.04 0.834894 0.028701 0.542978
5 0.0651106 0.04 0.680727 0.0234985 0.507051
5 0.0766105 0 0.791478 0.0250241 0.530294
5 0.0707909 -0.03 0.835591 0.0295997 0.541582
5 0.0707909 0.03 0.720104 0.0210594 0.513788
5 0.0325754 0.07 0.372163 0.023747 0.408293
5 0.0325754 -0.07 0.593482 0.0207065 0.49542
5 0.0595998 0.05 0.636835 0.025881 0.500238
5 0.0595998 -0.05 0.830646 0.0281301 0.544338
5 0.0507211 0.06 0.562633 0.0284079 0.485628
5 0.0507211 -0.06 0.793716 0.0261234 0.540056
5 0.0357425 0.07 0.407125 0.0256072 0.42849
5 0.0357425 -0.07 0.643529 0.0219716 0.510745
5 0.0766105 -0.02 0.830129 0.0281719 0.538877
5 0.0766105 0.02 0.75356 0.0218282 0.51993
5 0.0785979 -0.01 0.81499 0.0269979 0.535413
5 0.0785979 0.01 0.776533 0.0229429 0.525801
5 0.0688745 -0.04 0.847333 0.0284992 0.543871
5 0.0688745 0.04 0.693889 0.0231991 0.508036
5 0 0.08 0 0 0
5 0 -0.08 0 0 0
5 0.00256965 0.08 0.0258513 0.00114227 0.054684
5 0.00256965 -0.08 0.0499257 0.00123172 0.107711
5 0.0389677 0.07 0.440636 0.0271731 0.445114
5 0.0389677 -0.07 0.689355 0.0229808 0.522307
5 0.00518642 0.08 0.0467047 0.00241191 0.081813
5 0.00518642 -0.08 0.0838866 0.00265447 0.154303
5 0.00785119 0.08 0.0739819 0.00417686 0.113581
5 0.00785119 -0.08 0.127723 0.00454722 0.20199
5 0.0746589 -0.03 0.845469 0.0294064 0.542373
5 0.0746589 0.03 0.730487 0.0207874 0.51428
5 0.0805853 0 0.799349 0.0249232 0.530772
5 0.0632626 0.05 0.653045 0.0255771 0.501704
5 0.0632626 -0.05 0.846185 0.0278379 0.545505
5 0.0105648 0.08 0.104328 0.00614571 0.149019
5 0.0105648 -0.08 0.178319 0.00656571 0.249532
5 0.054221 0.06 0.584745 0.0285623 0.489895
5 0.054221 -0.06 0.817398 0.0260465 0.542661
5 0.0133283 0.08 0.135886 0.00822373 0.186716
5 0.0133283 -0.08 0.233158 0.00861611 0.295399
5 0.0161424 0.08 0.168025 0.0104023 0.225146
5 0.0161424 -0.08 0.2906 0.0106395 0.338384
5 0.0422521 0.07 0.472102 0.0284298 0.458439
5 0.0422521 -0.07 0.730364 0.023698 0.530674
5 0.0190081 0.08 0.20071 0.0126462 0.262856
5 0.0190081 -0.08 0.349522 0.0125642 0.377645
5 0.0219263 0.08 0.234043 0.0149331 0.298612
5 0.0219263 -0.08 0.40895 0.014337 0.412614
5 0.0727073 -0.04 0.857823 0.0282641 0.544601
5 0.0727073 0.04 0.705366 0.0229478 0.508534
5 0.0805853 -0.02 0.837639 0.0279549 0.539553
5 0.0805853 0.02 0.761628 0.0217056 0.520004
5 0.0826091 -0.01 0.822 0.0268402 0.535955
5 0.0826091 0.01 0.783876 0.0229118 0.525917
5 0.0577851 0.06 0.604378 0.0286128 0.492653
5 0.0577851 -0.06 0.837239 0.0257731 0.544427
5 0.0455967 0.07 0.501065 0.0293961 0.468779
5 0.0455967 -0.07 0.766236 0.0240944 0.536519
5 0.0669925 -0.05 0.859374 0.0275042 0.546318
5 0.0669925 0.05 0.667388 0.0252988 0.502585
5 0.0248981 0.08 0.268003 0.0172417 0.331501
5 0.0248981 -0.08 0.467941 0.0159292 0.442941
5 0.0785979 -0.03 0.853563 0.0291459 0.543088
5 0.0785979 0.03 0.739329 0.0205643 0.514313
5 0.0846329 0 0.80593 0.0248446 0.530981
5 0.0279244 0.08 0.302363 0.0195389 0.360954
5 0.0279244 -0.08 0.525557 0.0173274 0.468515
5 0.0490026 0.07 0.527251 0.0301144 0.476449
5 0.0490026 -0.07 0.796922 0.024182 0.540479
5 0.0310063 0.08 0.336716 0.0217641 0.386706
5 0.0310063 -0.08 0.580852 0.0185245 0.489455
5 0.0614146 -0.06 0.853867 0.0253777 0.545687
5 0.0614146 0.06 0.621852 0.0286096 0.494319
5 0.0766105 -0.04 0.866484 0.0280017 0.545275
5 0.0766105 0.04 0.715249 0.0227465 0.508571
5 0.0707909 -0.05 0.870509 0.0271789 0.546935
5 0.0707909 0.05 0.679971 0.0250616 0.503018
5 0.0846329 -0.02 0.843686 0.0277159 0.54009
5 0.0846329 0.02 0.768471 0.0216466 0.519762
5 0.0341446 0.08 0.370524 0.0238436 0.40873
5 0.0341446 -0.08 0.632911 0.0195126 0.50605
5 0.0866939 -0.01 0.827713 0.0266901 0.536313
5 0.0866939 0.01 0.790131 0.0229364 0.525739
5 0.052471 0.07 0.550709 0.0306407 0.481789
5 0.052471 -0.07 0.822688 0.023994 0.543083
5 0.0826091 -0.03 0.860006 0.0288357 0.543754
5 0.0826091 0.03 0.746778 0.0204034 0.513986
5 0.0373405 0.08 0.403202 0.0257155 0.427163
5 0.0373405 -0.08 0.680903 0.0202792 0.51871
5 0.0651106 -0.06 0.867824 0.0249343 0.546692
5 0.0651106 0.06 0.637357 0.0285927 0.495234
5 0.0887548 0 0.811443 0.0248131 0.530978
5 0.056003 0.07 0.571672 0.0310395 0.485212
5 0.056003 -0.07 0.844115 0.0235937 0.54478
5 0.040595 0.08 0.434203 0.0273399 0.442224
5 0.040595 -0.08 0.724167 0.0208108 0.527949
5 0.0746589 -0.05 0.879727 0.0268712 0.547514
5 0.0746589 0.05 0.690907 0.0248826 0.503051
5 0.0805853 -0.04 0.873444 0.0277179 0.545941
5 0.0805853 0.04 0.723635 0.0225995 0.508177
5 0.00128482 0.09 0.0156922 0.000666551 0.0386383
5 0.00128482 -0.09 0.0378739 0.000752688 0.0890728
5 0.00387803 0.09 0.0313176 0.00151177 0.0615068
5 0.00387803 -0.09 0.0670052 0.00183852 0.136526
5 0.00651881 0.09 0.0552144 0.0030228 0.0898635
5 0.00651881 -0.09 0.107842 0.00370671 0.185026
5 0.00920802 0.09 0.0832576 0.00482632 0.122984
5 0.00920802 -0.09 0.157167 0.00573197 0.233794
5 0.0119465 0.09 0.112854 0.00670657 0.15944
5 0.0119465 -0.09 0.21185 0.00776108 0.281179
5 0.0887548 -0.02 0.848501 0.027479 0.54049
5 0.0887548 0.02 0.774327 0.0216732 0.51929
5 0.0147353 0.09 0.143052 0.00869771 0.197559
5 0.0147353 -0.09 0.269772 0.00974349 0.325786
5 0.0439092 0.08 0.463061 0.0287125 0.454172
5 0.0439092 -0.08 0.762296 0.0210982 0.534396
5 0.0688745 -0.06 0.879519 0.0245083 0.547582
5 0.0688745 0.06 0.651011 0.0285885 0.495614
5 0.0908536 -0.01 0.832386 0.0265829 0.536506
5 0.0908536 0.01 0.795541 0.0230431 0.525356
5 0.0175752 0.09 0.173751 0.0107756 0.235714
5 0.0175752 -0.09 0.329639 0.0115929 0.366667
5 0.0866939 -0.03 0.865025 0.0284975 0.544339
5 0.0866939 0.03 0.753102 0.0203349 0.513408
5 0.0595998 0.07 0.590416 0.0313566 0.487181
5 0.0595998 -0.07 0.861919 0.0230634 0.54595
5 0.0204672 0.09 0.205127 0.0129294 0.272477
5 0.0204672 -0.09 0.390401 0.0132425 0.403227
5 0.0472842 0.08 0.489454 0.0298587 0.463287
5 0.0472842 -0.08 0.795171 0.021149 0.538735
5 0.0929523 0 0.816137 0.0248581 0.530825
5 0.0234122 0.09 0.237238 0.0151492 0.306739
5 0.0234122 -0.09 0.451008 0.0146474 0.435082
5 0.0785979 -0.05 0.887182 0.0265833 0.548125
5 0.0785979 0.05 0.700275 0.0247516 0.502641
5 0.0846329 -0.04 0.878888 0.0274159 0.546595
5 0.0846329 0.04 0.730694 0.0225256 0.507417
5 0.0264113 0.09 0.269919 0.0174192 0.337778
5 0.0264113 -0.09 0.510464 0.0158086 0.462102
5 0.0727073 -0.06 0.889227 0.0241361 0.548433
5 0.0727073 0.06 0.662914 0.0286207 0.495566
5 0.0632626 -0.07 0.876723 0.0224794 0.546955
5 0.0632626 0.07 0.607118 0.0316237 0.488156
5 0.0294653 0.09 0.302838 0.0197125 0.365228
5 0.0294653 -0.09 0.567814 0.0167318 0.484376
5 0.0507211 0.08 0.513309 0.0308146 0.469858
5 0.0507211 -0.08 0.822959 0.0209887 0.54159
5 0.0929523 -0.02 0.852349 0.0272711 0.540753
5 0.0929523 0.02 0.779406 0.0218066 0.518675
5 0.0950896 -0.01 0.836305 0.0265488 0.53656
5 0.0950896 0.01 0.800317 0.0232576 0.524878
5 0.0908536 -0.03 0.868879 0.0281456 0.544803
5 0.0908536 0.03 0.758538 0.0203783 0.512657
5 0.0325754 0.09 0.3355 0.0219499 0.388988
5 0.0325754 -0.09 0.622127 0.0174386 0.502171
5 0.0826091 -0.05 0.893028 0.0263064 0.548795
5 0.0826091 0.05 0.708162 0.0246785 0.501768
5 0.054221 0.08 0.534801 0.0316273 0.474244
5 0.054221 -0.08 0.846127 0.0206578 0.54348
5 0.0357425 0.09 0.367316 0.0240709 0.409154
5 0.0357425 -0.09 0.672515 0.017934 0.515869
5 0.0669925 -0.07 0.889019 0.0219157 0.547989
5 0.0669925 0.07 0.621881 0.0318709 0.488492
5 0.0972268 0 0.820215 0.0249985 0.530592
5 0.0766105 -0.06 0.897154 0.0238251 0.549274
5 0.0766105 0.06 0.673145 0.0287063 0.495109
5 0.0887548 -0.04 0.883056 0.0271001 0.547203
5 0.0887548 0.04 0.73663 0.022547 0.506381
5 0.0389677 0.09 0.39774 0.0260114 0.425899
5 0.0389677 -0.09 0.718224 0.0182306 0.525922
5 0.0577851 -0.08 0.865347 0.0202136 0.54483
5 0.0577851 0.08 0.554198 0.0323428 0.476884
5 0.0972268 -0.02 0.855503 0.0271273 0.540908
5 0.0972268 0.02 0.783835 0.0220508 0.518002
5 0.0422521 0.09 0.426342 0.0277455 0.439447
5 0.0422521 -0.09 0.758735 0.0183339 0.532895
5 0.0707909 -0.07 0.899179 0.0214344 0.549084
5 0.0707909 0.07 0.634807 0.0321228 0.488361
5 0.0950896 -0.03 0.871829 0.027807 0.545144
5 0.0950896 0.03 0.763229 0.0205473 0.511808
5 0.0994033 -0.01 0.839711 0.0266229 0.536531
5 0.0994033 0.01 0.804529 0.0235648 0.5244
5 0 0.1 0 0 0
5 0 -0.1 0 0 0
5 0.00256965 0.1 0.0209484 0.00104576 0.0467114
5 0.00256965 -0.1 0.0561409 0.00124004 0.11827
5 0.0866939 -0.05 0.897496 0.0260237 0.549492
5 0.0866939 0.05 0.714737 0.0246855 0.500506
5 0.00518642 0.1 0.0394789 0.00207406 0.0713631
5 0.00518642 -0.1 0.0925678 0.00259802 0.167488
5 0.00785119 0.1 0.0639658 0.00353737 0.101344
5 0.00785119 -0.1 0.139227 0.00437803 0.216805
5 0.0805853 -0.06 0.903489 0.0235677 0.550093
5 0.0805853 0.06 0.68178 0.0288534 0.49423
5 0.0105648 0.1 0.0911633 0.00515294 0.135501
5 0.0105648 -0.1 0.192857 0.00618228 0.265068
5 0.0614146 -0.08 0.88129 0.0197155 0.54598
5 0.0614146 0.08 0.571697 0.0329852 0.478225
5 0.0133283 0.1 0.1194 0.00687228 0.172186
5 0.0133283 -0.1 0.250705 0.00791823 0.310845
5 0.0455967 0.09 0.452741 0.0292788 0.450026
5 0.0455967 -0.09 0.793858 0.0182665 0.537495
5 0.0929523 -0.04 0.886204 0.0267833 0.54774
5 0.0929523 0.04 0.741615 0.0226757 0.505157
5 0.0161424 0.1 0.148263 0.00872982 0.209681
5 0.0161424 -0.1 0.310955 0.00952309 0.353036
5 0.10158 0 0.823761 0.0252415 0.530309
5 0.0190081 0.1 0.177855 0.0107284 0.246436
5 0.0190081 -0.1 0.372378 0.0109324 0.39093
5 0.0746589 -0.07 0.907497 0.0210597 0.550198
5 0.0746589 0.07 0.645974 0.032416 0.487832
5 0.0219263 0.1 0.208255 0.0128619 0.28121
5 0.0219263 -0.1 0.433912 0.0121051 0.424123
5 0.0490026 0.09 0.476765 0.0306458 0.457896
5 0.0490026 -0.09 0.823676 0.018053 0.540446
5 0.0248981 0.1 0.23933 0.0151163 0.313142
5 0.0248981 -0.1 0.494528 0.0130302 0.452466
5 0.0651106 -0.08 0.894516 0.0192153 0.547156
5 0.0651106 0.08 0.587367 0.0335798 0.478647
5 0.10158 -0.02 0.858167 0.0270842 0.540982
5 0.10158 0.02 0.787655 0.0223998 0.517307
5 0.0908536 -0.05 0.900826 0.0257336 0.550179
5 0.0908536 0.05 0.720148 0.0247892 0.498953
5 0.0846329 -0.06 0.908426 0.0233457 0.550871
5 0.0846329 0.06 0.688968 0.0290685 0.492948
5 0.0279244 0.1 0.270763 0.0174555 0.341725
5 0.0279244 -0.1 0.553253 0.0137221 0.476041
5 0.0994033 -0.03 0.874168 0.0275306 0.545396
5 0.0994033 0.03 0.767267 0.0208338 0.510923
5 0.052471 0.09 0.498518 0.0318576 0.4633
5 0.052471 -0.09 0.848557 0.0177256 0.542352
5 0.103796 -0.01 0.842669 0.0268199 0.536412
5 0.103796 0.01 0.808135 0.0239587 0.523894
5 0.0310063 0.1 0.302099 0.0198163 0.366734
5 0.0310063 -0.1 0.609156 0.0142049 0.495109
5 0.0972268 -0.04 0.888601 0.0264897 0.548208
5 0.0972268 0.04 0.74577 0.0229138 0.503824
5 0.0785979 -0.07 0.914212 0.0207859 0.551258
5 0.0785979 0.07 0.655425 0.0327749 0.486914
5 0.0688745 -0.08 0.905465 0.0187609 0.548443
5 0.0688745 0.08 0.601205 0.0341553 0.478407
5 0.0341446 0.1 0.3328 0.0221253 0.388165
5 0.0341446 -0.1 0.661334 0.0145051 0.510048
5 0.056003 0.09 0.518311 0.0329715 0.466675
5 0.056003 -0.09 0.869155 0.0173178 0.543706
5 0.106012 0 0.826736 0.0255832 0.529915
5 0.0373405 0.1 0.362347 0.0243136 0.406167
5 0.0373405 -0.1 0.708963 0.0146489 0.521281
5 0.0887548 -0.06 0.912174 0.0231412 0.551596
5 0.0887548 0.06 0.694903 0.0293557 0.491325
5 0.0950896 -0.05 0.903283 0.0254468 0.550836
5 0.0950896 0.05 0.724547 0.0249882 0.49721
5 0.106012 -0.02 0.860429 0.027169 0.54096
5 0.106012 0.02 0.790841 0.022838 0.51654
5 0.040595 0.1 0.390301 0.026337 0.420967
5 0.040595 -0.1 0.751431 0.0146599 0.529316
5 0.0595998 -0.09 0.886205 0.0168794 0.544886
5 0.0595998 0.09 0.536398 0.0340039 0.468468
5 0.103796 -0.03 0.876122 0.0273633 0.545591
5 0.103796 0.03 0.77069 0.021242 0.510012
5 0.0727073 -0.08 0.91448 0.0183841 0.549816
5 0.0727073 0.08 0.613216 0.0347418 0.477651
5 0.0826091 -0.07 0.919537 0.020595 0.552195
5 0.0826091 0.07 0.663261 0.0332087 0.485599
5 0.108269 -0.01 0.845114 0.0271466 0.536121
5 0.108269 0.01 0.811028 0.0244077 0.523232
5 0.10158 -0.04 0.8905 0.026257 0.548632
5 0.10158 0.04 0.749183 0.0232607 0.502438
5 0.0439092 0.1 0.416314 0.0281806 0.432799
5 0.0439092 -0.1 0.788446 0.0145648 0.534784
5 0.00128482 0.11 0.0116526 0.000715556 0.0329896
5 0.00128482 -0.11 0.0439177 0.000745631 0.0984892
5 0.0632626 -0.09 0.900319 0.0164397 0.54613
5 0.0632626 0.09 0.552862 0.0349566 0.469096
5 0.00387803 0.11 0.0251332 0.00128925 0.0537143
5 0.00387803 -0.11 0.0757715 0.00162346 0.149001
5 0.00651881 0.11 0.0462537 0.00247263 0.0803722
5 0.00651881 -0.11 0.119659 0.00322367 0.199409
5 0.00920802 0.11 0.0711416 0.00382799 0.112161
5 0.00920802 -0.11 0.172249 0.00485007 0.248998
5 0.110526 0 0.829052 0.0260107 0.529315
5 0.0472842 0.1 0.440165 0.0298578 0.441886
5 0.0472842 -0.1 0.820062 0.0143935 0.538363
5 0.0929523 -0.06 0.914955 0.0229482 0.552277
5 0.0929523 0.06 0.699751 0.0297129 0.489451
5 0.0119465 0.11 0.0974048 0.00525114 0.147427
5 0.0119465 -0.11 0.230169 0.00638631 0.296308
5 0.0766105 -0.08 0.921836 0.018093 0.551192
5 0.0766105 0.08 0.623433 0.03537 0.476464
5 0.0147353 0.11 0.124293 0.00683403 0.184324
5 0.0147353 -0.11 0.29104 0.00778236 0.340117
5 0.0994033 -0.05 0.905126 0.0251743 0.551455
5 0.0994033 0.05 0.728039 0.025286 0.495356
5 0.0175752 0.11 0.151961 0.00861228 0.221132
5 0.0175752 -0.11 0.353381 0.00897394 0.379582
5 0.0866939 -0.07 0.923646 0.0204575 0.553001
5 0.0866939 0.07 0.669715 0.0337014 0.483917
5 0.0204672 0.11 0.180587 0.0105966 0.256428
5 0.0204672 -0.11 0.416103 0.00992079 0.41425
5 0.0507211 0.1 0.461837 0.0313909 0.448447
5 0.0507211 -0.1 0.846619 0.0141701 0.540682
5 0.0669925 -0.09 0.912007 0.0160261 0.547548
5 0.0669925 0.09 0.567612 0.0358683 0.468844
5 0.110526 -0.02 0.862286 0.0273948 0.540799
5 0.110526 0.02 0.79334 0.0233395 0.515593
5 0.108269 -0.03 0.877812 0.0273464 0.545718
5 0.108269 0.03 0.773512 0.0217437 0.509022
5 0.0234122 0.11 0.210073 0.0127727 0.289204
5 0.0234122 -0.11 0.478149 0.01061 0.44394
5 0.0264113 0.11 0.240095 0.0151245 0.318851
5 0.0264113 -0.11 0.538505 0.011055 0.468746
5 0.112825 -0.01 0.846968 0.027589 0.535612
5 0.112825 0.01 0.813098 0.0248998 0.522293
5 0.106012 -0.04 0.892078 0.0261282 0.549017
5 0.106012 0.04 0.751934 0.0237115 0.501006
5 0.0805853 -0.08 0.927755 0.0178818 0.552475
5 0.0805853 0.08 0.631939 0.0360534 0.474899
5 0.054221 0.1 0.481531 0.0328087 0.452781
5 0.054221 -0.1 0.868703 0.0139116 0.542254
5 0.0294653 0.11 0.270205 0.0175663 0.345047
5 0.0294653 -0.11 0.596239 0.0112932 0.488942
5 0.0972268 -0.06 0.917006 0.0227668 0.552935
5 0.0972268 0.06 0.703634 0.0301329 0.487416
5 0.0707909 -0.09 0.921659 0.0156674 0.549149
5 0.0707909 0.09 0.580526 0.0367593 0.467929
5 0.0908536 -0.07 0.926728 0.0203501 0.553713
5 0.0908536 0.07 0.675015 0.0342467 0.481925
5 0.0325754 0.11 0.299858 0.0200371 0.367677
5 0.0325754 -0.11 0.650457 0.011356 0.504951
5 0.115123 0 0.830664 0.0265181 0.528477
5 0.103796 -0.05 0.906584 0.0249597 0.552085
5 0.103796 0.05 0.730739 0.025681 0.493459
5 0.0577851 -0.1 0.887029 0.0136373 0.543494
5 0.0577851 0.1 0.499543 0.0341381 0.455289
5 0.0357425 0.11 0.328533 0.0224436 0.386844
5 0.0357425 -0.11 0.700249 0.0112918 0.517206
5 0.0846329 -0.08 0.932413 0.0177406 0.553599
5 0.0846329 0.08 0.638935 0.0367899 0.473019
5 0.0389677 0.11 0.355804 0.024729 0.402776
5 0.0389677 -0.11 0.744876 0.0111391 0.526129
5 0.112825 -0.03 0.879249 0.0274975 0.545744
5 0.112825 0.03 0.775722 0.022307 0.507823
5 0.115123 -0.02 0.863723 0.0277566 0.54047
5 0.115123 0.02 0.795094 0.0238926 0.514386
5 0.0746589 -0.09 0.929586 0.0153748 0.550833
5 0.0746589 0.09 0.591561 0.0376693 0.466483
5 0.0614146 -0.1 0.90227 0.0133661 0.544708
5 0.0614146 0.1 0.516059 0.0353874 0.456376
5 0.110526 -0.04 0.893412 0.0261331 0.549319
5 0.110526 0.04 0.754097 0.0242526 0.499472
5 0.0422521 0.11 0.381323 0.0268627 0.415747
5 0.0422521 -0.11 0.783897 0.0109359 0.532318
5 0.117464 -0.01 0.848272 0.0281423 0.534905
5 0.117464 0.01 0.814318 0.0254417 0.521097
5 0.10158 -0.06 0.918561 0.0226135 0.55361
5 0.10158 0.06 0.706649 0.0306144 0.485277
5 0.0950896 -0.07 0.928982 0.0202621 0.554379
5 0.0950896 0.07 0.679297 0.0348278 0.479715
5 0.0455967 0.11 0.404855 0.0288358 0.425979
5 0.0455967 -0.11 0.817302 0.0107228 0.536427
5 0.108269 -0.05 0.907794 0.0248435 0.552675
5 0.108269 0.05 0.732797 0.0261795 0.491529
5 0.0651106 -0.1 0.91498 0.0131123 0.546081
5 0.0651106 0.1 0.531069 0.0365786 0.456362
5 0.0887548 -0.08 0.935971 0.0176583 0.554555
5 0.0887548 0.08 0.644689 0.0375671 0.470908
5 0.0785979 -0.09 0.936049 0.0151513 0.55248