# Force coefficients
# liftDir     : (0.000000e+00 0.000000e+00 1.000000e+00)
# dragDir     : (1.000000e+00 0.000000e+00 0.000000e+00)
# pitchAxis   : (0.000000e+00 1.000000e+00 0.000000e+00)
# magUInf     : 1.000000e+00
# lRef        : 1.000000e+00
# Aref        : 1.000000e+00
# CofR        : (2.500000e+00 0.000000e+00 0.000000e+00)
#
# Time        	Cm            	Cd            	Cl            	Cl(f)         	Cl(r)         
1             	-2.596970e-04	7.526683e-01	-2.107902e-02	-1.079921e-02	-1.027981e-02
2             	-4.261578e-04	1.201959e+00	-4.466950e-03	-2.659633e-03	-1.807317e-03
3             	-4.127856e-04	1.653023e+00	5.118886e-02	2.518165e-02	2.600722e-02
4             	2.830082e-04	1.832345e+00	1.288880e-01	6.472699e-02	6.416097e-02
5             	1.371990e-03	1.761740e+00	2.146938e-01	1.087189e-01	1.059749e-01
6             	2.329360e-03	1.555432e+00	3.006683e-01	1.526635e-01	1.480048e-01
7             	3.032621e-03	1.325068e+00	3.824255e-01	1.942454e-01	1.881801e-01
8             	3.945235e-03	1.150373e+00	4.582775e-01	2.330840e-01	2.251935e-01
9             	5.247503e-03	1.059645e+00	5.284591e-01	2.694771e-01	2.589821e-01
10            	7.125524e-03	1.040676e+00	5.953659e-01	3.048085e-01	2.905574e-01
11            	8.974637e-03	1.063025e+00	6.626372e-01	3.402932e-01	3.223440e-01
12            	1.124221e-02	1.099108e+00	7.316137e-01	3.770491e-01	3.545647e-01
13            	1.426966e-02	1.127143e+00	8.016419e-01	4.150906e-01	3.865513e-01
14            	1.809170e-02	1.135680e+00	8.708996e-01	4.535415e-01	4.173581e-01
15            	2.240103e-02	1.127176e+00	9.369377e-01	4.908699e-01	4.460678e-01
16            	2.702013e-02	1.107543e+00	9.989765e-01	5.265084e-01	4.724681e-01
17            	3.158748e-02	1.083718e+00	1.055659e+00	5.594170e-01	4.962420e-01
18            	3.587452e-02	1.061829e+00	1.106287e+00	5.890180e-01	5.172690e-01
19            	4.006121e-02	1.048076e+00	1.151133e+00	6.156277e-01	5.355053e-01
20            	4.377406e-02	1.044958e+00	1.192019e+00	6.397836e-01	5.522355e-01
21            	4.675149e-02	1.050840e+00	1.229942e+00	6.617227e-01	5.682197e-01
22            	4.868996e-02	1.063718e+00	1.265097e+00	6.812385e-01	5.838585e-01
23            	4.930349e-02	1.080527e+00	1.297392e+00	6.979994e-01	5.993924e-01
24            	4.827175e-02	1.097708e+00	1.325756e+00	7.111495e-01	6.146060e-01
25            	4.519177e-02	1.114645e+00	1.349323e+00	7.198530e-01	6.294695e-01
26            	3.992262e-02	1.131377e+00	1.368178e+00	7.240116e-01	6.441664e-01
27            	3.263522e-02	1.148296e+00	1.382154e+00	7.237120e-01	6.584416e-01
28            	2.360784e-02	1.166327e+00	1.390788e+00	7.190018e-01	6.717861e-01
29            	1.318627e-02	1.185942e+00	1.393858e+00	7.101151e-01	6.837426e-01
30            	1.795693e-03	1.207337e+00	1.391754e+00	6.976728e-01	6.940815e-01
31            	-9.995942e-03	1.230131e+00	1.385876e+00	6.829422e-01	7.029340e-01
32            	-2.160207e-02	1.253747e+00	1.378175e+00	6.674856e-01	7.106897e-01
33            	-3.261103e-02	1.277246e+00	1.369428e+00	6.521028e-01	7.173249e-01
34            	-4.260205e-02	1.299884e+00	1.360021e+00	6.374083e-01	7.226124e-01
35            	-5.134951e-02	1.321091e+00	1.350615e+00	6.239578e-01	7.266568e-01
36            	-5.873787e-02	1.340483e+00	1.341333e+00	6.119285e-01	7.294042e-01
37            	-6.469269e-02	1.357583e+00	1.332609e+00	6.016117e-01	7.309971e-01
38            	-6.935902e-02	1.371939e+00	1.325913e+00	5.935973e-01	7.323154e-01
39            	-7.293193e-02	1.383696e+00	1.322310e+00	5.882229e-01	7.340867e-01
40            	-7.566118e-02	1.393056e+00	1.322028e+00	5.853530e-01	7.366754e-01
41            	-7.787082e-02	1.400065e+00	1.324346e+00	5.843021e-01	7.400438e-01
42            	-7.982751e-02	1.405205e+00	1.328251e+00	5.842979e-01	7.439530e-01
43            	-8.168495e-02	1.409381e+00	1.332489e+00	5.845596e-01	7.479295e-01
44            	-8.360051e-02	1.413395e+00	1.336165e+00	5.844819e-01	7.516829e-01
45            	-8.564412e-02	1.417972e+00	1.338401e+00	5.835565e-01	7.548447e-01
46            	-8.781357e-02	1.423580e+00	1.337999e+00	5.811860e-01	7.568131e-01
47            	-8.998815e-02	1.430181e+00	1.334322e+00	5.771729e-01	7.571492e-01
48            	-9.203131e-02	1.437279e+00	1.327143e+00	5.715402e-01	7.556028e-01
49            	-9.376319e-02	1.444258e+00	1.316227e+00	5.643504e-01	7.518767e-01
50            	-9.510271e-02	1.450055e+00	1.301502e+00	5.556482e-01	7.458537e-01
51            	-9.599841e-02	1.454329e+00	1.283746e+00	5.458744e-01	7.378712e-01
52            	-9.633025e-02	1.457216e+00	1.263541e+00	5.354403e-01	7.281008e-01
53            	-9.601358e-02	1.459215e+00	1.241373e+00	5.246731e-01	7.167003e-01
54            	-9.505420e-02	1.460635e+00	1.217780e+00	5.138360e-01	7.039443e-01
55            	-9.354751e-02	1.461725e+00	1.193540e+00	5.032224e-01	6.903174e-01
56            	-9.165265e-02	1.462714e+00	1.169520e+00	4.931073e-01	6.764126e-01
57            	-8.947191e-02	1.464012e+00	1.146393e+00	4.837244e-01	6.626682e-01
58            	-8.708645e-02	1.466141e+00	1.124611e+00	4.752190e-01	6.493919e-01
59            	-8.455831e-02	1.469322e+00	1.104218e+00	4.675508e-01	6.366674e-01
60            	-8.194835e-02	1.473424e+00	1.085091e+00	4.605974e-01	6.244941e-01
61            	-7.928922e-02	1.478107e+00	1.067093e+00	4.542572e-01	6.128356e-01
62            	-7.666861e-02	1.483092e+00	1.050355e+00	4.485088e-01	6.018460e-01
63            	-7.417656e-02	1.487998e+00	1.035214e+00	4.434306e-01	5.917837e-01
64            	-7.185009e-02	1.492415e+00	1.021602e+00	4.389507e-01	5.826509e-01
65            	-6.970384e-02	1.496090e+00	1.009534e+00	4.350633e-01	5.744710e-01
66            	-6.774088e-02	1.498960e+00	9.991348e-01	4.318265e-01	5.673083e-01
67            	-6.595342e-02	1.500855e+00	9.900025e-01	4.290478e-01	5.609547e-01
68            	-6.435305e-02	1.501672e+00	9.816465e-01	4.264702e-01	5.551763e-01
69            	-6.291835e-02	1.501365e+00	9.737616e-01	4.239624e-01	5.497991e-01
70            	-6.166164e-02	1.499961e+00	9.664984e-01	4.215876e-01	5.449108e-01
71            	-6.061540e-02	1.497532e+00	9.600739e-01	4.194216e-01	5.406524e-01
72            	-5.974364e-02	1.494230e+00	9.545744e-01	4.175436e-01	5.370309e-01
73            	-5.899182e-02	1.490266e+00	9.498882e-01	4.159523e-01	5.339359e-01
74            	-5.834347e-02	1.485695e+00	9.460184e-01	4.146657e-01	5.313527e-01
75            	-5.780031e-02	1.480324e+00	9.429287e-01	4.136640e-01	5.292647e-01
76            	-5.724768e-02	1.474393e+00	9.403427e-01	4.129237e-01	5.274190e-01
77            	-5.657842e-02	1.468253e+00	9.378232e-01	4.123332e-01	5.254900e-01
78            	-5.577106e-02	1.462202e+00	9.351689e-01	4.118134e-01	5.233555e-01
79            	-5.487551e-02	1.456486e+00	9.324920e-01	4.113705e-01	5.211215e-01
80            	-5.396593e-02	1.451207e+00	9.299925e-01	4.110303e-01	5.189622e-01
81            	-5.307078e-02	1.446341e+00	9.277152e-01	4.107868e-01	5.169284e-01
82            	-5.218038e-02	1.441719e+00	9.256125e-01	4.106259e-01	5.149867e-01
83            	-5.129335e-02	1.437166e+00	9.237934e-01	4.106033e-01	5.131900e-01
84            	-5.043458e-02	1.432472e+00	9.224558e-01	4.107933e-01	5.116625e-01
85            	-4.964576e-02	1.427524e+00	9.218185e-01	4.112635e-01	5.105550e-01
86            	-4.894880e-02	1.422324e+00	9.218490e-01	4.119757e-01	5.098733e-01
87            	-4.834336e-02	1.417057e+00	9.223646e-01	4.128389e-01	5.095257e-01
88            	-4.782177e-02	1.411910e+00	9.231274e-01	4.137419e-01	5.093854e-01
89            	-4.736655e-02	1.406987e+00	9.239029e-01	4.145849e-01	5.093180e-01
90            	-4.697297e-02	1.402479e+00	9.246089e-01	4.153315e-01	5.092774e-01
91            	-4.663860e-02	1.398415e+00	9.251818e-01	4.159523e-01	5.092295e-01
92            	-4.635474e-02	1.394732e+00	9.254987e-01	4.163946e-01	5.091041e-01
93            	-4.610069e-02	1.391368e+00	9.255093e-01	4.166540e-01	5.088554e-01
94            	-4.586548e-02	1.388317e+00	9.252521e-01	4.167606e-01	5.084916e-01
95            	-4.564854e-02	1.385568e+00	9.248194e-01	4.167612e-01	5.080582e-01
96            	-4.544919e-02	1.383038e+00	9.242817e-01	4.166916e-01	5.075900e-01
97            	-4.526942e-02	1.380674e+00	9.236433e-01	4.165522e-01	5.070911e-01
98            	-4.511201e-02	1.378427e+00	9.228630e-01	4.163195e-01	5.065435e-01
99            	-4.498374e-02	1.376259e+00	9.219078e-01	4.159701e-01	5.059376e-01
100           	-4.488264e-02	1.374151e+00	9.207391e-01	4.154869e-01	5.052522e-01
101           	-4.481548e-02	1.372058e+00	9.193266e-01	4.148478e-01	5.044788e-01
102           	-4.479072e-02	1.369976e+00	9.176339e-01	4.140262e-01	5.036076e-01
103           	-4.481303e-02	1.367856e+00	9.156701e-01	4.130220e-01	5.026481e-01
104           	-4.488561e-02	1.365645e+00	9.134874e-01	4.118581e-01	5.016293e-01
105           	-4.501602e-02	1.363336e+00	9.111634e-01	4.105657e-01	5.005977e-01
106           	-4.520724e-02	1.360957e+00	9.087886e-01	4.091870e-01	4.996015e-01
107           	-4.546108e-02	1.358554e+00	9.064403e-01	4.077591e-01	4.986812e-01
108           	-4.577528e-02	1.356177e+00	9.041767e-01	4.063131e-01	4.978636e-01
109           	-4.614158e-02	1.353836e+00	9.020353e-01	4.048761e-01	4.971592e-01
110           	-4.654988e-02	1.351536e+00	9.000063e-01	4.034533e-01	4.965530e-01
111           	-4.699106e-02	1.349274e+00	8.980854e-01	4.020516e-01	4.960338e-01
112           	-4.745519e-02	1.347031e+00	8.962816e-01	4.006856e-01	4.955960e-01
113           	-4.793120e-02	1.344806e+00	8.946109e-01	3.993742e-01	4.952366e-01
114           	-4.841089e-02	1.342592e+00	8.930753e-01	3.981267e-01	4.949485e-01
115           	-4.888364e-02	1.340382e+00	8.916775e-01	3.969551e-01	4.947224e-01
116           	-4.933967e-02	1.338157e+00	8.903961e-01	3.958584e-01	4.945377e-01
117           	-4.976800e-02	1.335897e+00	8.892061e-01	3.948350e-01	4.943711e-01
118           	-5.015988e-02	1.333578e+00	8.881033e-01	3.938918e-01	4.942115e-01
119           	-5.050617e-02	1.331168e+00	8.870907e-01	3.930392e-01	4.940515e-01
120           	-5.080361e-02	1.328653e+00	8.861635e-01	3.922782e-01	4.938854e-01
121           	-5.104960e-02	1.326014e+00	8.853186e-01	3.916097e-01	4.937089e-01
122           	-5.124464e-02	1.323256e+00	8.845578e-01	3.910342e-01	4.935235e-01
123           	-5.139220e-02	1.320377e+00	8.838869e-01	3.905513e-01	4.933357e-01
124           	-5.149563e-02	1.317376e+00	8.833118e-01	3.901603e-01	4.931515e-01
125           	-5.155990e-02	1.314273e+00	8.828305e-01	3.898554e-01	4.929751e-01
126           	-5.158757e-02	1.311077e+00	8.824564e-01	3.896406e-01	4.928158e-01
127           	-5.158263e-02	1.307812e+00	8.821996e-01	3.895172e-01	4.926825e-01
128           	-5.154941e-02	1.304518e+00	8.820670e-01	3.894841e-01	4.925829e-01
129           	-5.149059e-02	1.301226e+00	8.820431e-01	3.895309e-01	4.925121e-01
130           	-5.140727e-02	1.297988e+00	8.821126e-01	3.896490e-01	4.924636e-01
131           	-5.130318e-02	1.294897e+00	8.822547e-01	3.898242e-01	4.924305e-01
132           	-5.117754e-02	1.291990e+00	8.824541e-01	3.900495e-01	4.924046e-01
133           	-5.103058e-02	1.289302e+00	8.826921e-01	3.903155e-01	4.923766e-01
134           	-5.086589e-02	1.286847e+00	8.829361e-01	3.906022e-01	4.923340e-01
135           	-5.068853e-02	1.284652e+00	8.831596e-01	3.908913e-01	4.922683e-01
136           	-5.050297e-02	1.282738e+00	8.833469e-01	3.911705e-01	4.921764e-01
137           	-5.031368e-02	1.281096e+00	8.834965e-01	3.914346e-01	4.920619e-01
138           	-5.012623e-02	1.279709e+00	8.835957e-01	3.916716e-01	4.919241e-01
139           	-4.994478e-02	1.278581e+00	8.836256e-01	3.918680e-01	4.917576e-01
140           	-4.977243e-02	1.277718e+00	8.835757e-01	3.920154e-01	4.915603e-01
141           	-4.961361e-02	1.277112e+00	8.834337e-01	3.921032e-01	4.913305e-01
142           	-4.947204e-02	1.276754e+00	8.831886e-01	3.921223e-01	4.910664e-01
143           	-4.935161e-02	1.276635e+00	8.828191e-01	3.920580e-01	4.907612e-01
144           	-4.925609e-02	1.276747e+00	8.823117e-01	3.918998e-01	4.904119e-01
145           	-4.918955e-02	1.277068e+00	8.816511e-01	3.916360e-01	4.900151e-01
146           	-4.915328e-02	1.277558e+00	8.808359e-01	3.912647e-01	4.895712e-01
147           	-4.914799e-02	1.278157e+00	8.798809e-01	3.907925e-01	4.890884e-01
148           	-4.917445e-02	1.278799e+00	8.788073e-01	3.902292e-01	4.885781e-01
149           	-4.923140e-02	1.279436e+00	8.776259e-01	3.895816e-01	4.880444e-01
150           	-4.931772e-02	1.280001e+00	8.763514e-01	3.888580e-01	4.874934e-01
151           	-4.943032e-02	1.280401e+00	8.750216e-01	3.880805e-01	4.869411e-01
152           	-4.956268e-02	1.280580e+00	8.736645e-01	3.872696e-01	4.863949e-01
153           	-4.971075e-02	1.280555e+00	8.722972e-01	3.864378e-01	4.858593e-01
154           	-4.987298e-02	1.280367e+00	8.709309e-01	3.855924e-01	4.853384e-01
155           	-5.004782e-02	1.280065e+00	8.695707e-01	3.847375e-01	4.848332e-01
156           	-5.023358e-02	1.279684e+00	8.682093e-01	3.838711e-01	4.843382e-01
157           	-5.042775e-02	1.279239e+00	8.668331e-01	3.829888e-01	4.838443e-01
158           	-5.062705e-02	1.278733e+00	8.654180e-01	3.820819e-01	4.833360e-01
159           	-5.082934e-02	1.278159e+00	8.639576e-01	3.811495e-01	4.828082e-01
160           	-5.103493e-02	1.277538e+00	8.624524e-01	3.801913e-01	4.822611e-01
161           	-5.124547e-02	1.276917e+00	8.608953e-01	3.792022e-01	4.816931e-01
162           	-5.146278e-02	1.276327e+00	8.592633e-01	3.781689e-01	4.810944e-01
163           	-5.168846e-02	1.275788e+00	8.575369e-01	3.770800e-01	4.804569e-01
164           	-5.192158e-02	1.275301e+00	8.556981e-01	3.759274e-01	4.797706e-01
165           	-5.215946e-02	1.274849e+00	8.537342e-01	3.747077e-01	4.790266e-01
166           	-5.240004e-02	1.274414e+00	8.516327e-01	3.734163e-01	4.782164e-01
167           	-5.264346e-02	1.274004e+00	8.493834e-01	3.720482e-01	4.773351e-01
168           	-5.289305e-02	1.273643e+00	8.469867e-01	3.706003e-01	4.763864e-01
169           	-5.315029e-02	1.273336e+00	8.444516e-01	3.690755e-01	4.753761e-01
170           	-5.341510e-02	1.273089e+00	8.417804e-01	3.674751e-01	4.743053e-01
171           	-5.368749e-02	1.272895e+00	8.389710e-01	3.657980e-01	4.731730e-01
172           	-5.396800e-02	1.272753e+00	8.360318e-01	3.640479e-01	4.719839e-01
173           	-5.425546e-02	1.272655e+00	8.329760e-01	3.622326e-01	4.707435e-01
174           	-5.454502e-02	1.272597e+00	8.298159e-01	3.603629e-01	4.694529e-01
175           	-5.483583e-02	1.272598e+00	8.265596e-01	3.584439e-01	4.681156e-01
176           	-5.512923e-02	1.272689e+00	8.232115e-01	3.564765e-01	4.667350e-01
177           	-5.542587e-02	1.272876e+00	8.197774e-01	3.544628e-01	4.653146e-01
178           	-5.572415e-02	1.273164e+00	8.162735e-01	3.524126e-01	4.638609e-01
179           	-5.602218e-02	1.273572e+00	8.126993e-01	3.503275e-01	4.623718e-01
180           	-5.631845e-02	1.274117e+00	8.090516e-01	3.482074e-01	4.608442e-01
181           	-5.661108e-02	1.274809e+00	8.053430e-01	3.460604e-01	4.592826e-01
182           	-5.689736e-02	1.275652e+00	8.015873e-01	3.438963e-01	4.576910e-01
183           	-5.717581e-02	1.276642e+00	7.977861e-01	3.417173e-01	4.560689e-01
184           	-5.744813e-02	1.277813e+00	7.939469e-01	3.395253e-01	4.544216e-01
185           	-5.771620e-02	1.279180e+00	7.901018e-01	3.373347e-01	4.527671e-01
186           	-5.798164e-02	1.280762e+00	7.862627e-01	3.351497e-01	4.511130e-01
187           	-5.824572e-02	1.282563e+00	7.824471e-01	3.329778e-01	4.494693e-01
188           	-5.850963e-02	1.284550e+00	7.786812e-01	3.308309e-01	4.478502e-01
189           	-5.877394e-02	1.286695e+00	7.749710e-01	3.287115e-01	4.462594e-01
190           	-5.903835e-02	1.288967e+00	7.713143e-01	3.266188e-01	4.446955e-01
191           	-5.930346e-02	1.291325e+00	7.677279e-01	3.245605e-01	4.431674e-01
192           	-5.956845e-02	1.293744e+00	7.642352e-01	3.225491e-01	4.416860e-01
193           	-5.983170e-02	1.296212e+00	7.608570e-01	3.205968e-01	4.402602e-01
194           	-6.009157e-02	1.298737e+00	7.576018e-01	3.187093e-01	4.388925e-01
195           	-6.034632e-02	1.301330e+00	7.544853e-01	3.168963e-01	4.375890e-01
196           	-6.059430e-02	1.303992e+00	7.515213e-01	3.151663e-01	4.363549e-01
197           	-6.083363e-02	1.306721e+00	7.487216e-01	3.135272e-01	4.351944e-01
198           	-6.106223e-02	1.309481e+00	7.460897e-01	3.119826e-01	4.341071e-01
199           	-6.127741e-02	1.312224e+00	7.436349e-01	3.105401e-01	4.330949e-01
200           	-6.147625e-02	1.314880e+00	7.413837e-01	3.092156e-01	4.321681e-01
201           	-6.165622e-02	1.317367e+00	7.393373e-01	3.080124e-01	4.313248e-01
202           	-6.181580e-02	1.319609e+00	7.375047e-01	3.069365e-01	4.305681e-01
203           	-6.195443e-02	1.321545e+00	7.358852e-01	3.059882e-01	4.298970e-01
204           	-6.207405e-02	1.323133e+00	7.344871e-01	3.051695e-01	4.293176e-01
205           	-6.217724e-02	1.324359e+00	7.333178e-01	3.044817e-01	4.288361e-01
206           	-6.226467e-02	1.325242e+00	7.323537e-01	3.039122e-01	4.284415e-01
207           	-6.233551e-02	1.325788e+00	7.315916e-01	3.034603e-01	4.281313e-01
208           	-6.239116e-02	1.326017e+00	7.310294e-01	3.031235e-01	4.279058e-01
209           	-6.243313e-02	1.325960e+00	7.306430e-01	3.028884e-01	4.277547e-01
210           	-6.246138e-02	1.325665e+00	7.304120e-01	3.027446e-01	4.276674e-01
211           	-6.247477e-02	1.325161e+00	7.303124e-01	3.026814e-01	4.276310e-01
212           	-6.247213e-02	1.324456e+00	7.303015e-01	3.026786e-01	4.276229e-01
213           	-6.245430e-02	1.323551e+00	7.303784e-01	3.027349e-01	4.276435e-01
214           	-6.242668e-02	1.322452e+00	7.305351e-01	3.028409e-01	4.276942e-01
215           	-6.239291e-02	1.321151e+00	7.307640e-01	3.029891e-01	4.277749e-01
216           	-6.235392e-02	1.319658e+00	7.310924e-01	3.031923e-01	4.279001e-01
217           	-6.231025e-02	1.318013e+00	7.315290e-01	3.034543e-01	4.280748e-01
218           	-6.226191e-02	1.316210e+00	7.320565e-01	3.037663e-01	4.282902e-01
219           	-6.220816e-02	1.314261e+00	7.326137e-01	3.040987e-01	4.285150e-01
220           	-6.214943e-02	1.312216e+00	7.332955e-01	3.044983e-01	4.287972e-01
221           	-6.208531e-02	1.310089e+00	7.341000e-01	3.049647e-01	4.291353e-01
222           	-6.201394e-02	1.307883e+00	7.349829e-01	3.054775e-01	4.295054e-01
223           	-6.193543e-02	1.305632e+00	7.359129e-01	3.060210e-01	4.298919e-01
224           	-6.185105e-02	1.303328e+00	7.368531e-01	3.065755e-01	4.302776e-01
225           	-6.176070e-02	1.300981e+00	7.377914e-01	3.071350e-01	4.306564e-01
226           	-6.166589e-02	1.298617e+00	7.387498e-01	3.077090e-01	4.310408e-01
227           	-6.156840e-02	1.296248e+00	7.397224e-01	3.082928e-01	4.314296e-01
228           	-6.147041e-02	1.293885e+00	7.407125e-01	3.088858e-01	4.318267e-01
229           	-6.137406e-02	1.291534e+00	7.417364e-01	3.094942e-01	4.322423e-01
230           	-6.128105e-02	1.289198e+00	7.428149e-01	3.101264e-01	4.326885e-01
231           	-6.119256e-02	1.286893e+00	7.439569e-01	3.107859e-01	4.331710e-01
232           	-6.110971e-02	1.284633e+00	7.451591e-01	3.114699e-01	4.336893e-01
233           	-6.103196e-02	1.282434e+00	7.464130e-01	3.121745e-01	4.342385e-01
234           	-6.095797e-02	1.280301e+00	7.476824e-01	3.128833e-01	4.347992e-01
235           	-6.088723e-02	1.278241e+00	7.489417e-01	3.135836e-01	4.353581e-01
236           	-6.081666e-02	1.276249e+00	7.501991e-01	3.142829e-01	4.359162e-01
237           	-6.074204e-02	1.274315e+00	7.514292e-01	3.149726e-01	4.364566e-01
238           	-6.066286e-02	1.272435e+00	7.526156e-01	3.156449e-01	4.369706e-01
239           	-6.058043e-02	1.270615e+00	7.537430e-01	3.162911e-01	4.374519e-01
240           	-6.049943e-02	1.268884e+00	7.548096e-01	3.169053e-01	4.379042e-01
241           	-6.042118e-02	1.267257e+00	7.558195e-01	3.174886e-01	4.383309e-01
242           	-6.034522e-02	1.265728e+00	7.567715e-01	3.180405e-01	4.387310e-01
243           	-6.027283e-02	1.264286e+00	7.576623e-01	3.185583e-01	4.391040e-01
244           	-6.020749e-02	1.262956e+00	7.585075e-01	3.190463e-01	4.394613e-01
245           	-6.014969e-02	1.261752e+00	7.593180e-01	3.195093e-01	4.398087e-01
246           	-6.009865e-02	1.260655e+00	7.600979e-01	3.199503e-01	4.401476e-01
247           	-6.005500e-02	1.259658e+00	7.608515e-01	3.203708e-01	4.404808e-01
248           	-6.002193e-02	1.258774e+00	7.615774e-01	3.207668e-01	4.408106e-01
249           	-5.999908e-02	1.258001e+00	7.622748e-01	3.211383e-01	4.411365e-01
250           	-5.998557e-02	1.257322e+00	7.629528e-01	3.214908e-01	4.414620e-01
251           	-5.998291e-02	1.256748e+00	7.635879e-01	3.218111e-01	4.417769e-01
252           	-5.999287e-02	1.256282e+00	7.641775e-01	3.220959e-01	4.420816e-01
253           	-6.001273e-02	1.255897e+00	7.647377e-01	3.223561e-01	4.423816e-01
254           	-6.004102e-02	1.255569e+00	7.652762e-01	3.225971e-01	4.426791e-01
255           	-6.008062e-02	1.255306e+00	7.657743e-01	3.228065e-01	4.429678e-01
256           	-6.012968e-02	1.255108e+00	7.662210e-01	3.229808e-01	4.432402e-01
257           	-6.018408e-02	1.254924e+00	7.666137e-01	3.231228e-01	4.434909e-01
258           	-6.024480e-02	1.254752e+00	7.669573e-01	3.232339e-01	4.437234e-01
259           	-6.031252e-02	1.254624e+00	7.672424e-01	3.233087e-01	4.439337e-01
260           	-6.038360e-02	1.254504e+00	7.674692e-01	3.233510e-01	4.441182e-01
261           	-6.045706e-02	1.254372e+00	7.676592e-01	3.233725e-01	4.442866e-01
262           	-6.053423e-02	1.254249e+00	7.678095e-01	3.233705e-01	4.444390e-01
263           	-6.061372e-02	1.254120e+00	7.679204e-01	3.233465e-01	4.445739e-01
264           	-6.069275e-02	1.253964e+00	7.679870e-01	3.233008e-01	4.446862e-01
265           	-6.077082e-02	1.253813e+00	7.680204e-01	3.232394e-01	4.447810e-01
266           	-6.084727e-02	1.253669e+00	7.680283e-01	3.231669e-01	4.448614e-01
267           	-6.092131e-02	1.253508e+00	7.680025e-01	3.230800e-01	4.449226e-01
268           	-6.099172e-02	1.253339e+00	7.679306e-01	3.229736e-01	4.449570e-01
269           	-6.105851e-02	1.253168e+00	7.678290e-01	3.228560e-01	4.449730e-01
270           	-6.112233e-02	1.252987e+00	7.677071e-01	3.227312e-01	4.449759e-01
271           	-6.118198e-02	1.252796e+00	7.675555e-01	3.225958e-01	4.449597e-01
272           	-6.123638e-02	1.252591e+00	7.673751e-01	3.224512e-01	4.449239e-01
273           	-6.128692e-02	1.252367e+00	7.671688e-01	3.222975e-01	4.448713e-01
274           	-6.133224e-02	1.252135e+00	7.669386e-01	3.221371e-01	4.448015e-01
275           	-6.137065e-02	1.251900e+00	7.666882e-01	3.219734e-01	4.447147e-01
276           	-6.140556e-02	1.251642e+00	7.664273e-01	3.218081e-01	4.446192e-01
277           	-6.143696e-02	1.251352e+00	7.661498e-01	3.216379e-01	4.445119e-01
278           	-6.146252e-02	1.251053e+00	7.658550e-01	3.214650e-01	4.443900e-01
279           	-6.147945e-02	1.250752e+00	7.655433e-01	3.212922e-01	4.442511e-01
280           	-6.148990e-02	1.250427e+00	7.652288e-01	3.211245e-01	4.441043e-01
281           	-6.149614e-02	1.250074e+00	7.649183e-01	3.209630e-01	4.439553e-01
282           	-6.149829e-02	1.249699e+00	7.646048e-01	3.208041e-01	4.438007e-01
283           	-6.149551e-02	1.249314e+00	7.642818e-01	3.206454e-01	4.436364e-01
284           	-6.148783e-02	1.248924e+00	7.639475e-01	3.204859e-01	4.434616e-01
285           	-6.147690e-02	1.248521e+00	7.636105e-01	3.203283e-01	4.432821e-01
286           	-6.146369e-02	1.248104e+00	7.632739e-01	3.201732e-01	4.431006e-01
287           	-6.144726e-02	1.247678e+00	7.629349e-01	3.200202e-01	4.429147e-01
288           	-6.142697e-02	1.247252e+00	7.625895e-01	3.198678e-01	4.427217e-01
289           	-6.140251e-02	1.246830e+00	7.622352e-01	3.197151e-01	4.425201e-01
290           	-6.137468e-02	1.246417e+00	7.618722e-01	3.195614e-01	4.423108e-01
291           	-6.134497e-02	1.246018e+00	7.615035e-01	3.194068e-01	4.420967e-01
292           	-6.131370e-02	1.245637e+00	7.611285e-01	3.192506e-01	4.418780e-01
293           	-6.128087e-02	1.245270e+00	7.607330e-01	3.190856e-01	4.416474e-01
294           	-6.124590e-02	1.244916e+00	7.603192e-01	3.189137e-01	4.414055e-01
295           	-6.121072e-02	1.244580e+00	7.598842e-01	3.187314e-01	4.411528e-01
296           	-6.117601e-02	1.244267e+00	7.594243e-01	3.185362e-01	4.408882e-01
297           	-6.114057e-02	1.243964e+00	7.589368e-01	3.183278e-01	4.406090e-01
298           	-6.110691e-02	1.243673e+00	7.584216e-01	3.181039e-01	4.403177e-01
299           	-6.107595e-02	1.243400e+00	7.578953e-01	3.178717e-01	4.400236e-01
300           	-6.104733e-02	1.243155e+00	7.573769e-01	3.176411e-01	4.397358e-01
301           	-6.102391e-02	1.242925e+00	7.568480e-01	3.174001e-01	4.394479e-01
302           	-6.100161e-02	1.242664e+00	7.562727e-01	3.171347e-01	4.391380e-01
303           	-6.098279e-02	1.242417e+00	7.556645e-01	3.168494e-01	4.388150e-01
304           	-6.097420e-02	1.242209e+00	7.550332e-01	3.165424e-01	4.384908e-01
305           	-6.097688e-02	1.242068e+00	7.543854e-01	3.162158e-01	4.381696e-01
306           	-6.098936e-02	1.242031e+00	7.537171e-01	3.158692e-01	4.378479e-01
307           	-6.101629e-02	1.242089e+00	7.530334e-01	3.155004e-01	4.375330e-01
308           	-6.106323e-02	1.242234e+00	7.523453e-01	3.151094e-01	4.372359e-01
309           	-6.113138e-02	1.242463e+00	7.516503e-01	3.146938e-01	4.369565e-01
310           	-6.121660e-02	1.242787e+00	7.509289e-01	3.142478e-01	4.366810e-01
311           	-6.131219e-02	1.243231e+00	7.501569e-01	3.137663e-01	4.363906e-01
312           	-6.141390e-02	1.243795e+00	7.493400e-01	3.132561e-01	4.360839e-01
313           	-6.152250e-02	1.244454e+00	7.484877e-01	3.127213e-01	4.357663e-01
314           	-6.163836e-02	1.245182e+00	7.476043e-01	3.121638e-01	4.354405e-01
315           	-6.176106e-02	1.245976e+00	7.466948e-01	3.115863e-01	4.351085e-01
316           	-6.189032e-02	1.246847e+00	7.457613e-01	3.109903e-01	4.347709e-01
317           	-6.202595e-02	1.247789e+00	7.448058e-01	3.103770e-01	4.344289e-01
318           	-6.216786e-02	1.248788e+00	7.438264e-01	3.097453e-01	4.340810e-01
319           	-6.231554e-02	1.249843e+00	7.428164e-01	3.090927e-01	4.337238e-01
320           	-6.246810e-02	1.250944e+00	7.417703e-01	3.084170e-01	4.333532e-01
321           	-6.262392e-02	1.252072e+00	7.406870e-01	3.077196e-01	4.329674e-01
322           	-6.278109e-02	1.253206e+00	7.395683e-01	3.070031e-01	4.325652e-01
323           	-6.293875e-02	1.254334e+00	7.384196e-01	3.062711e-01	4.321485e-01
324           	-6.309603e-02	1.255440e+00	7.372418e-01	3.055249e-01	4.317169e-01
325           	-6.325090e-02	1.256496e+00	7.360454e-01	3.047718e-01	4.312736e-01
326           	-6.340170e-02	1.257500e+00	7.348433e-01	3.040200e-01	4.308234e-01
327           	-6.354840e-02	1.258467e+00	7.336407e-01	3.032720e-01	4.303688e-01
328           	-6.369136e-02	1.259394e+00	7.324333e-01	3.025253e-01	4.299080e-01
329           	-6.383009e-02	1.260289e+00	7.312202e-01	3.017800e-01	4.294402e-01
330           	-6.396389e-02	1.261156e+00	7.300048e-01	3.010385e-01	4.289663e-01
331           	-6.409163e-02	1.261979e+00	7.287920e-01	3.003043e-01	4.284876e-01
332           	-6.421089e-02	1.262726e+00	7.275899e-01	2.995840e-01	4.280058e-01
333           	-6.431994e-02	1.263388e+00	7.264099e-01	2.988850e-01	4.275249e-01
334           	-6.441912e-02	1.263976e+00	7.252480e-01	2.982049e-01	4.270431e-01
335           	-6.450849e-02	1.264514e+00	7.240952e-01	2.975391e-01	4.265561e-01
336           	-6.459001e-02	1.265035e+00	7.229434e-01	2.968817e-01	4.260617e-01
337           	-6.466319e-02	1.265548e+00	7.217948e-01	2.962342e-01	4.255606e-01
338           	-6.472493e-02	1.266023e+00	7.206596e-01	2.956049e-01	4.250548e-01
339           	-6.477499e-02	1.266446e+00	7.195444e-01	2.949972e-01	4.245472e-01
340           	-6.481502e-02	1.266828e+00	7.184397e-01	2.944048e-01	4.240349e-01
341           	-6.484661e-02	1.267168e+00	7.173366e-01	2.938217e-01	4.235149e-01
342           	-6.487065e-02	1.267479e+00	7.162462e-01	2.932524e-01	4.229937e-01
343           	-6.488638e-02	1.267762e+00	7.151669e-01	2.926971e-01	4.224698e-01
344           	-6.489387e-02	1.268005e+00	7.140842e-01	2.921482e-01	4.219360e-01
345           	-6.489673e-02	1.268216e+00	7.130071e-01	2.916068e-01	4.214003e-01
346           	-6.489761e-02	1.268410e+00	7.119335e-01	2.910692e-01	4.208644e-01
347           	-6.489851e-02	1.268591e+00	7.108633e-01	2.905331e-01	4.203302e-01
348           	-6.489783e-02	1.268753e+00	7.097973e-01	2.900008e-01	4.197965e-01
349           	-6.489552e-02	1.268892e+00	7.087443e-01	2.894767e-01	4.192677e-01
350           	-6.489394e-02	1.269023e+00	7.076974e-01	2.889547e-01	4.187426e-01
351           	-6.489538e-02	1.269152e+00	7.066540e-01	2.884316e-01	4.182224e-01
352           	-6.490162e-02	1.269290e+00	7.056194e-01	2.879081e-01	4.177113e-01
353           	-6.491124e-02	1.269394e+00	7.045944e-01	2.873860e-01	4.172084e-01
354           	-6.492372e-02	1.269467e+00	7.035793e-01	2.868659e-01	4.167134e-01
355           	-6.494022e-02	1.269529e+00	7.025779e-01	2.863487e-01	4.162292e-01
356           	-6.496117e-02	1.269592e+00	7.015859e-01	2.858318e-01	4.157541e-01
357           	-6.498858e-02	1.269663e+00	7.006062e-01	2.853145e-01	4.152917e-01
358           	-6.502226e-02	1.269736e+00	6.996357e-01	2.847956e-01	4.148401e-01
359           	-6.506130e-02	1.269811e+00	6.986843e-01	2.842808e-01	4.144035e-01
360           	-6.510416e-02	1.269914e+00	6.977672e-01	2.837794e-01	4.139877e-01
361           	-6.514871e-02	1.270037e+00	6.968574e-01	2.832800e-01	4.135774e-01
362           	-6.519504e-02	1.270193e+00	6.959551e-01	2.827825e-01	4.131726e-01
363           	-6.524287e-02	1.270382e+00	6.950747e-01	2.822945e-01	4.127802e-01
364           	-6.529169e-02	1.270597e+00	6.942243e-01	2.818205e-01	4.124039e-01
365           	-6.534217e-02	1.270854e+00	6.934035e-01	2.813596e-01	4.120439e-01