0 	0 	0 	0
0.00184056 	-0.102165 	8.96959e-05 	-0.000540233
0.00368111 	-0.20433 	0.000179392 	-0.00108047
0.00558849 	-0.285273 	0.000214347 	-0.00160365
0.00749587 	-0.366217 	0.000249302 	-0.00212683
0.0094725 	-0.410655 	0.000163382 	-0.00245573
0.0114491 	-0.455093 	7.74627e-05 	-0.00278464
0.0134975 	-0.474865 	-8.2799e-05 	-0.00294756
0.0155459 	-0.494637 	-0.000243061 	-0.00311048
0.0176687 	-0.504207 	-0.000449477 	-0.00319822
0.0197915 	-0.513777 	-0.000655893 	-0.00328597
0.0219913 	-0.51901 	-0.000893097 	-0.00333992
0.0241911 	-0.524243 	-0.0011303 	-0.00339387
0.0264709 	-0.527337 	-0.00138998 	-0.0034305
0.0287506 	-0.53043 	-0.00164966 	-0.00346713
0.031113 	-0.532318 	-0.00192618 	-0.00349373
0.0334755 	-0.534206 	-0.00220269 	-0.00352034
0.0359238 	-0.535343 	-0.00249178 	-0.00354054
0.038372 	-0.53648 	-0.00278088 	-0.00356075
0.0409092 	-0.537111 	-0.00308079 	-0.00357657
0.0434463 	-0.537741 	-0.0033807 	-0.00359238
0.0460756 	-0.538008 	-0.0036897 	-0.00360502
0.0487048 	-0.538274 	-0.00399869 	-0.00361766
0.0514296 	-0.538264 	-0.00431534 	-0.00362788
0.0541543 	-0.538254 	-0.00463198 	-0.00363811
0.0569779 	-0.538025 	-0.00495515 	-0.00364642
0.0598016 	-0.537795 	-0.00527831 	-0.00365474
0.0598016 	-0.537795 	-0.00527831 	-0.00365474
0.0627277 	-0.537385 	-0.00560704 	-0.00366145
0.0656539 	-0.536975 	-0.00593576 	-0.00366816
0.0686863 	-0.536412 	-0.00626917 	-0.00367346
0.0717187 	-0.535848 	-0.00660259 	-0.00367875
0.0748612 	-0.53515 	-0.00693993 	-0.00368274
0.0780037 	-0.534452 	-0.00727726 	-0.00368673
0.0812603 	-0.533634 	-0.00761775 	-0.00368946
0.0845169 	-0.532816 	-0.00795824 	-0.00369219
0.0878917 	-0.531887 	-0.00830111 	-0.00369367
0.0912666 	-0.530958 	-0.00864399 	-0.00369515
0.0947639 	-0.529925 	-0.00898859 	-0.00369536
0.0982613 	-0.528892 	-0.00933319 	-0.00369557
0.101886 	-0.527759 	-0.00967886 	-0.00369447
0.10551 	-0.526626 	-0.0100245 	-0.00369337
0.109266 	-0.525396 	-0.0103705 	-0.00369089
0.113022 	-0.524167 	-0.0107164 	-0.00368841
0.116914 	-0.522844 	-0.0110617 	-0.00368447
0.120806 	-0.52152 	-0.011407 	-0.00368054
0.12484 	-0.520105 	-0.0117509 	-0.00367505
0.128874 	-0.518689 	-0.0120947 	-0.00366956
0.133054 	-0.517182 	-0.0124361 	-0.0036624
0.137234 	-0.515674 	-0.0127775 	-0.00365523
0.141566 	-0.514074 	-0.0131154 	-0.00364627
0.145897 	-0.512474 	-0.0134534 	-0.0036373
0.150387 	-0.51078 	-0.0137868 	-0.0036264
0.154876 	-0.509087 	-0.0141201 	-0.0036155
0.159528 	-0.507297 	-0.0144477 	-0.00360252
0.16418 	-0.505506 	-0.0147752 	-0.00358953
0.169001 	-0.503617 	-0.0150956 	-0.00357433
0.173822 	-0.501728 	-0.0154159 	-0.00355913
0.178818 	-0.499736 	-0.0157278 	-0.00354154
0.183814 	-0.497744 	-0.0160397 	-0.00352396
0.188991 	-0.495644 	-0.0163416 	-0.00350382
0.194169 	-0.493545 	-0.0166436 	-0.00348369
0.199534 	-0.491334 	-0.0169343 	-0.0034608
0.2049 	-0.489123 	-0.0172251 	-0.00343791
0.21046 	-0.486795 	-0.0175031 	-0.00341206
0.21602 	-0.484467 	-0.0177812 	-0.00338621
0.221782 	-0.482015 	-0.0180452 	-0.00335718
0.227544 	-0.479563 	-0.0183092 	-0.00332816
0.233515 	-0.476982 	-0.0185577 	-0.00329574
0.239487 	-0.4744 	-0.0188061 	-0.00326332
0.245675 	-0.471682 	-0.0190377 	-0.0032273
0.251863 	-0.468963 	-0.0192692 	-0.00319128
0.258276 	-0.4661 	-0.0194823 	-0.00315145
0.264688 	-0.463236 	-0.0196955 	-0.00311162
0.271334 	-0.46022 	-0.0198889 	-0.00306783
0.27798 	-0.457203 	-0.0200824 	-0.00302404
0.278726 	-0.456859 	-0.0201011 	-0.00301885
0.279473 	-0.456514 	-0.0201197 	-0.00301366
0.285613 	-0.45368 	-0.0202734 	-0.00297098
0.291753 	-0.450846 	-0.0204271 	-0.0029283
0.298116 	-0.447859 	-0.0205609 	-0.00288192
0.30448 	-0.444872 	-0.0206948 	-0.00283555
0.305253 	-0.444509 	-0.0207111 	-0.00282991
0.306027 	-0.444145 	-0.0207273 	-0.00282427
0.313423 	-0.440613 	-0.020854 	-0.00276816
0.320819 	-0.437081 	-0.0209806 	-0.00271205
0.336148 	-0.429631 	-0.0211845 	-0.00259186
0.352034 	-0.421772 	-0.021337 	-0.00246405
0.368496 	-0.413479 	-0.0214359 	-0.00232911
0.368496 	-0.413479 	-0.0214359 	-0.00232911
0.377026 	-0.409103 	-0.0214576 	-0.00225848
0.377026 	-0.409103 	-0.0214576 	-0.00225848
0.385557 	-0.404727 	-0.0214793 	-0.00218785
0.385557 	-0.404727 	-0.0214793 	-0.00218785
0.386769 	-0.404093 	-0.0214784 	-0.00217779
0.387981 	-0.40346 	-0.0214774 	-0.00216773
0.395609 	-0.399474 	-0.0214717 	-0.00210446
0.403236 	-0.395488 	-0.0214659 	-0.00204119
0.410158 	-0.391803 	-0.0214392 	-0.00198409
0.417081 	-0.388118 	-0.0214124 	-0.001927
0.419319 	-0.386926 	-0.0214038 	-0.00190854
0.421557 	-0.385735 	-0.0213952 	-0.00189007
0.431051 	-0.380585 	-0.0213306 	-0.00181278
0.440544 	-0.375436 	-0.0212661 	-0.00173549
0.450382 	-0.37 	-0.0211716 	-0.00165694
0.46022 	-0.364564 	-0.0210772 	-0.00157839
0.470415 	-0.358825 	-0.0209526 	-0.00149899
0.48061 	-0.353086 	-0.020828 	-0.0014196
0.491176 	-0.34703 	-0.0206735 	-0.00133976
0.501741 	-0.340974 	-0.0205189 	-0.00125992
0.51269 	-0.334585 	-0.0203348 	-0.00118003
0.523639 	-0.328196 	-0.0201507 	-0.00110014
0.534985 	-0.321458 	-0.0199374 	-0.00102054
0.546332 	-0.314719 	-0.019724 	-0.000940939
0.55809 	-0.307614 	-0.0194813 	-0.000861925
0.569849 	-0.300508 	-0.0192386 	-0.000782912
0.582034 	-0.293017 	-0.0189672 	-0.000704708
0.594219 	-0.285525 	-0.0186957 	-0.000626504
0.606847 	-0.277625 	-0.0183968 	-0.000549268
0.619475 	-0.269726 	-0.018098 	-0.000472031
0.632561 	-0.261398 	-0.0177718 	-0.000395888
0.645647 	-0.25307 	-0.0174457 	-0.000319744
0.659208 	-0.244292 	-0.0170899 	-0.000244675
0.67277 	-0.235514 	-0.0167342 	-0.000169606
0.686823 	-0.226265 	-0.016345 	-9.53452e-05
0.700877 	-0.217017 	-0.0159558 	-2.1084e-05
0.715441 	-0.207279 	-0.0155264 	5.29714e-05
0.730005 	-0.197542 	-0.0150971 	0.000127027
0.745098 	-0.187299 	-0.0146183 	0.000201798
0.76019 	-0.177057 	-0.0141395 	0.00027657
0.775831 	-0.166298 	-0.0136012 	0.000353184
0.791472 	-0.155538 	-0.0130628 	0.000429798
0.80768 	-0.14425 	-0.0124545 	0.000509609
0.823889 	-0.132962 	-0.0118462 	0.00058942
0.840686 	-0.121135 	-0.0111571 	0.000674005
0.857483 	-0.109309 	-0.010468 	0.00075859
0.87489 	-0.0969328 	-0.00968743 	0.000849379
0.892297 	-0.0845569 	-0.00890686 	0.000940169
0.910336 	-0.0716196 	-0.00802587 	0.00103832
0.928375 	-0.0586822 	-0.00714488 	0.00113646
0.947068 	-0.0451682 	-0.00615773 	0.00124313
0.965762 	-0.0316541 	-0.00517057 	0.00134979
0.985135 	-0.0175425 	-0.00407609 	0.00146594
1.00451 	-0.00343089 	-0.00298162 	0.00158208
1.02458 	0.011309 	-0.00178428 	0.00170796
1.04466 	0.026049 	-0.000586947 	0.00183383
1.06546 	0.0414688 	0.000701384 	0.00196884
1.08627 	0.0568886 	0.00198972 	0.00210385
1.10783 	0.0731 	0.00335156 	0.00224694
1.12939 	0.0893113 	0.00471341 	0.00239004
1.15173 	0.106543 	0.00611746 	0.00253885
1.17408 	0.123775 	0.00752151 	0.00268765
1.19723 	0.142436 	0.00891422 	0.00283735
1.22038 	0.161097 	0.0103069 	0.00298705
1.22038 	0.161097 	0.0103069 	0.00298705
1.24438 	0.181878 	0.0116224 	0.0031291
1.26837 	0.202659 	0.0129378 	0.00327116
1.29324 	0.226701 	0.0141006 	0.00339135
1.3181 	0.250743 	0.0152635 	0.00351155
1.34387 	0.279858 	0.0161896 	0.00358623
1.36964 	0.308973 	0.0171157 	0.00366091
1.39635 	0.345786 	0.017745 	0.0036566
1.42305 	0.3826 	0.0183744 	0.00365229
1.45073 	0.430456 	0.0187913 	0.00353688
1.4784 	0.478312 	0.0192082 	0.00342146
1.50708 	0.54065 	0.0198063 	0.00318578
1.53576 	0.602988 	0.0204044 	0.00295011
1.56548 	0.681604 	0.0217623 	0.00262352
1.5952 	0.76022 	0.0231203 	0.00229693
1.626 	0.848512 	0.0254875 	0.00194819
1.65679 	0.936805 	0.0278548 	0.00159945
1.65679 	0.936805 	0.0278548 	0.00159945
1.68871 	1.01697 	0.0308911 	0.00130289
1.68871 	1.01697 	0.0308911 	0.00130289
1.72063 	1.09714 	0.0339273 	0.00100633
1.72063 	1.09714 	0.0339273 	0.00100633
1.75371 	1.15152 	0.0373696 	0.000810444
1.75371 	1.15152 	0.0373696 	0.000810444
1.78678 	1.20589 	0.040812 	0.000614554
1.78678 	1.20589 	0.040812 	0.000614554
1.82106 	1.23056 	0.0438034 	0.000522837
1.82106 	1.23056 	0.0438034 	0.000522837
1.85533 	1.25522 	0.0467948 	0.00043112
1.85533 	1.25522 	0.0467948 	0.00043112
1.89086 	1.26056 	0.047766 	0.000406092
1.89086 	1.26056 	0.047766 	0.000406092
1.92638 	1.26589 	0.0487372 	0.000381064
1.92638 	1.26589 	0.0487372 	0.000381064
1.96319 	1.25907 	0.0465107 	0.000375216
1.96319 	1.25907 	0.0465107 	0.000375216
2 	1.25224 	0.0442841 	0.000369368
2 	1.25224 	0.0442841 	0.000369368
