# wallShearStress  FACE_DATA 60650
# x  y  z  wallShearStress_x  wallShearStress_y  wallShearStress_z
8.75721 0 0.345731 -0.000219581 -1.32463e-05 0.000202075
8.72516 0 0.336919 -0.000325489 -1.20491e-05 3.70084e-05
8.69439 0 0.328456 -0.000411482 -5.33687e-06 -0.000111358
8.66483 0 0.320329 -0.000464636 1.92557e-06 -0.000239992
8.63646 0 0.312526 -0.000490635 4.51207e-06 -0.000346513
8.6092 0 0.305031 -0.000484043 7.07955e-06 -0.000429474
8.58303 0 0.297833 -0.000457487 6.06211e-06 -0.000488189
8.82531 0 0.430728 0.000276583 -1.43279e-05 0.000947681
8.79057 0 0.419435 0.000150297 -1.73374e-05 0.00074918
8.75721 0 0.408591 2.0624e-05 -1.43081e-05 0.00055317
8.72516 0 0.398176 -9.88498e-05 -1.20638e-05 0.000353056
8.69439 0 0.388175 -0.000211314 -1.24942e-05 0.000158457
8.66483 0 0.378571 -0.00030685 -1.1725e-05 -2.9173e-05
8.63646 0 0.369348 -0.000381661 -3.37298e-06 -0.000202447
8.6092 0 0.360491 -0.000411148 4.83662e-06 -0.000349103
8.58303 0 0.351985 -0.000401104 5.76387e-06 -0.000470717
8.5579 0 0.343817 -0.000362025 7.06484e-06 -0.000556652
8.53376 0 0.335973 -0.000316299 5.96648e-06 -0.000617447
8.51058 0 0.32844 -0.000265454 5.76287e-06 -0.000659716
8.9384 0 0.539403 0.000793707 -1.18223e-05 0.00189743
8.89917 0 0.52469 0.000681149 -1.01467e-05 0.00172415
8.8615 0 0.510562 0.000582892 -1.1385e-05 0.00153641
8.82531 0 0.496994 0.000486496 -1.13122e-05 0.00134771
8.79057 0 0.483964 0.000379143 -1.27384e-05 0.00114507
8.75721 0 0.471451 0.000263716 -1.36087e-05 0.000937763
8.72516 0 0.459434 0.000145324 -1.52702e-05 0.000719982
8.69439 0 0.447895 2.8091e-05 -1.36686e-05 0.000502021
8.66483 0 0.436813 -8.45371e-05 -1.29332e-05 0.00028034
8.63646 0 0.426171 -0.000190752 -1.18778e-05 6.59866e-05
8.6092 0 0.415951 -0.000273737 -1.01077e-05 -0.000136822
8.58303 0 0.406136 -0.000321649 6.13393e-07 -0.000317431
8.5579 0 0.396712 -0.000316461 5.28124e-06 -0.000468946
8.53376 0 0.387661 -0.00027685 7.29474e-06 -0.000587312
8.51058 0 0.378969 -0.000221117 5.65784e-06 -0.000665209
8.48833 0 0.370622 -0.000168283 4.57073e-06 -0.000715308
8.46695 0 0.362605 -0.000116408 4.11259e-06 -0.000742128
8.9384 0 0.611323 0.00095448 -1.11576e-05 0.00226938
8.89917 0 0.594649 0.000857186 -8.57991e-06 0.00209202
8.8615 0 0.578636 0.000766629 -9.84746e-06 0.00189567
8.82531 0 0.563259 0.00067484 -9.48545e-06 0.0017021
8.79057 0 0.548492 0.000580006 -1.09384e-05 0.00150122
8.75721 0 0.534311 0.000481965 -1.10874e-05 0.00129831
8.72516 0 0.520692 0.000375433 -1.18055e-05 0.00108138
8.69439 0 0.507614 0.000264168 -1.24808e-05 0.000861992
8.66483 0 0.495055 0.000152492 -1.46869e-05 0.000635767
8.63646 0 0.482994 4.03117e-05 -1.43617e-05 0.000407795
8.6092 0 0.471411 -6.72181e-05 -1.26615e-05 0.000177678
8.58303 0 0.460288 -0.000160874 -1.09313e-05 -4.14039e-05
8.5579 0 0.449607 -0.000223498 -6.72428e-06 -0.000243832
8.53376 0 0.439349 -0.000242013 2.19161e-06 -0.000418552
8.51058 0 0.429498 -0.00021132 5.09576e-06 -0.000564363
8.48833 0 0.420038 -0.000156132 6.28997e-06 -0.000673978
8.46695 0 0.410953 -9.59548e-05 4.5095e-06 -0.000740832
8.44642 0 0.402229 -4.58072e-05 4.58514e-06 -0.000777208
8.42671 0 0.393851 -4.26449e-06 2.86462e-06 -0.000792559
8.9384 0 0.683243 0.00110963 -1.04816e-05 0.00256058
8.89917 0 0.664607 0.00101747 -7.50421e-06 0.00239048
8.8615 0 0.646711 0.000940829 -8.80778e-06 0.00219617
8.82531 0 0.629525 0.000853153 -8.27018e-06 0.00200475
8.79057 0 0.613021 0.000761057 -9.56426e-06 0.00180486
8.75721 0 0.597171 0.000671161 -9.10669e-06 0.00160956
8.72516 0 0.58195 0.000578514 -1.06144e-05 0.00140564
8.69439 0 0.567333 0.000479851 -1.08253e-05 0.00119657
8.66483 0 0.553296 0.000375974 -1.1293e-05 0.000978569
8.63646 0 0.539816 0.000270299 -1.21087e-05 0.000757268
8.6092 0 0.526871 0.000163604 -1.54026e-05 0.000528395
8.58303 0 0.51444 5.68348e-05 -1.49806e-05 0.000297162
8.5579 0 0.502501 -4.17018e-05 -1.16824e-05 6.74162e-05
8.53376 0 0.491037 -0.000121757 -9.45769e-06 -0.000149009
8.51058 0 0.480027 -0.000165279 -3.79667e-06 -0.000342911
8.48833 0 0.469454 -0.000160375 1.86694e-06 -0.000509155
8.46695 0 0.4593 -0.000112786 7.31949e-06 -0.000647224
8.44642 0 0.44955 -5.15661e-05 5.23109e-06 -0.000744042
8.42671 0 0.440186 8.67588e-07 3.22664e-06 -0.000800563
8.40778 0 0.431194 4.33062e-05 2.66357e-06 -0.00082962
8.38959 0 0.422558 7.81252e-05 2.65356e-06 -0.000840551
8.9384 0 0.755163 0.00125416 -1.21495e-05 0.00277413
8.89917 0 0.734566 0.00116171 -5.54867e-06 0.00262204
8.8615 0 0.714786 0.00109151 -8.80949e-06 0.00243085
8.82531 0 0.69579 0.00101082 -7.17444e-06 0.00225316
8.79057 0 0.677549 0.000927604 -8.675e-06 0.00206212
8.75721 0 0.660031 0.000840078 -8.22384e-06 0.00187282
8.72516 0 0.643208 0.000751772 -8.85758e-06 0.00167969
8.69439 0 0.627053 0.000665746 -9.13635e-06 0.0014852
8.66483 0 0.611538 0.000574981 -1.02978e-05 0.00128346
8.63646 0 0.596639 0.000479996 -1.05699e-05 0.00107625
8.6092 0 0.582331 0.000381116 -1.11202e-05 0.000860668
8.58303 0 0.568591 0.000279158 -1.18757e-05 0.000639008
8.5579 0 0.555397 0.000176465 -1.5293e-05 0.000410442
8.53376 0 0.542725 7.54736e-05 -1.46047e-05 0.000180118
8.51058 0 0.530556 -1.4385e-05 -1.07971e-05 -4.41834e-05
8.48833 0 0.518871 -8.17293e-05 -6.11922e-06 -0.000252153
8.46695 0 0.507648 -0.000105187 2.3658e-07 -0.000435204
8.44642 0 0.496871 -8.08689e-05 2.46593e-06 -0.000595042
8.42671 0 0.486522 -2.61649e-05 4.68323e-06 -0.000722417
8.40778 0 0.476583 3.2207e-05 3.6555e-06 -0.000808004
8.38959 0 0.467038 7.92542e-05 3.46935e-06 -0.000856267
8.9384 0 0.827083 0.00138815 -1.19531e-05 0.00292725
8.89917 0 0.804525 0.00129767 -4.14992e-06 0.00279
8.8615 0 0.782861 0.00123083 -8.45219e-06 0.00260961
8.82531 0 0.762056 0.00114877 -6.66915e-06 0.00244522
8.79057 0 0.742077 0.00107395 -7.98481e-06 0.00226934
8.75721 0 0.722891 0.000996451 -7.11963e-06 0.00209798
8.72516 0 0.704466 0.000909475 -8.4125e-06 0.00191685
8.69439 0 0.686772 0.000829943 -7.96844e-06 0.00172958
8.66483 0 0.66978 0.000745307 -8.62936e-06 0.00154132
8.63646 0 0.653462 0.000661715 -8.85719e-06 0.00135095
8.6092 0 0.637792 0.000574588 -9.81883e-06 0.00115345
8.58303 0 0.622743 0.000483213 -1.03532e-05 0.000948877
8.5579 0 0.608291 0.000387188 -1.09977e-05 0.000735023
8.53376 0 0.594413 0.000287976 -1.23965e-05 0.00051446
8.51058 0 0.581085 0.000188825 -1.49644e-05 0.000288332
8.48833 0 0.568287 9.33243e-05 -1.3459e-05 6.31296e-05
8.46695 0 0.555995 1.2627e-05 -9.44969e-06 -0.00015299
8.44642 0 0.544192 -3.95543e-05 -3.0764e-06 -0.000351975
8.42671 0 0.532857 -4.47035e-05 -7.2145e-07 -0.00052678
8.40778 0 0.521972 -6.91338e-06 3.88701e-06 -0.00067889
8.38959 0 0.511518 5.02263e-05 4.9586e-06 -0.000794886
8.9384 0 0.899004 0.00150879 -1.40139e-05 0.00301363
8.89917 0 0.874483 0.0014185 -3.60111e-06 0.00290503
8.8615 0 0.850935 0.00135714 -8.44961e-06 0.00274013
8.82531 0 0.828322 0.00127787 -5.8375e-06 0.00259299
8.79057 0 0.806606 0.00120247 -7.45366e-06 0.00242887
8.75721 0 0.785751 0.00111901 -7.00357e-06 0.00227136
8.72516 0 0.765724 0.00105677 -7.57487e-06 0.00210722
8.69439 0 0.746491 0.000986477 -7.74701e-06 0.00194111
8.66483 0 0.728022 0.000893444 -8.40442e-06 0.00176679
8.63646 0 0.710285 0.00081779 -7.55438e-06 0.00158407
8.6092 0 0.693252 0.000737753 -8.21254e-06 0.00140176
8.58303 0 0.676895 0.00065776 -8.61107e-06 0.00121498
8.5579 0 0.661186 0.000573565 -9.83799e-06 0.00102093
8.53376 0 0.646101 0.000485437 -1.04846e-05 0.000819509
8.51058 0 0.631614 0.000392781 -1.1382e-05 0.000608662
8.48833 0 0.617703 0.000296898 -1.27752e-05 0.000391304
8.46695 0 0.604343 0.000201748 -1.38103e-05 0.00016889
8.44642 0 0.591513 0.000112784 -1.23428e-05 -5.00381e-05
8.42671 0 0.579192 4.23914e-05 -7.24335e-06 -0.000258568
8.40778 0 0.56736 7.62268e-06 -5.0733e-07 -0.000448538
8.38959 0 0.555998 2.03488e-05 -2.6322e-07 -0.000618927
8.37214 0 0.545086 6.7223e-05 3.17136e-06 -0.000763664
8.9384 0 0.970925 0.00162168 -1.50974e-05 0.00304593
8.89917 0 0.944442 0.00153622 -2.52102e-06 0.00296649
8.8615 0 0.91901 0.00147647 -8.67823e-06 0.00281882
8.82531 0 0.894588 0.00139741 -5.15125e-06 0.00269305
8.79057 0 0.871135 0.00132609 -6.77547e-06 0.00254775
8.75721 0 0.848612 0.00125148 -5.8724e-06 0.00240471
8.72516 0 0.826982 0.00117691 -6.36907e-06 0.00225189
8.69439 0 0.806211 0.00109677 -6.3291e-06 0.00210534
8.66483 0 0.786263 0.00104061 -7.17058e-06 0.00194859
8.63646 0 0.767108 0.000972138 -7.5507e-06 0.00178827
8.6092 0 0.748712 0.000879853 -7.28643e-06 0.00161592
8.58303 0 0.731046 0.00080582 -7.46961e-06 0.00143946
8.5579 0 0.714081 0.000730133 -8.03362e-06 0.00126468
8.53376 0 0.697789 0.000655311 -8.77775e-06 0.00108433
8.51058 0 0.682144 0.000575436 -9.99528e-06 0.000896336
8.48833 0 0.667119 0.000490737 -1.04714e-05 0.000698899
8.46695 0 0.65269 0.000401454 -1.24459e-05 0.000489853
8.44642 0 0.638834 0.000308775 -1.33339e-05 0.000273496
8.42671 0 0.625528 0.000217789 -1.21277e-05 5.42582e-05
8.40778 0 0.612749 0.000136466 -1.05749e-05 -0.000158857
8.38959 0 0.600478 7.99859e-05 -5.7829e-06 -0.000361255
8.37214 0 0.588693 6.27205e-05 -2.23418e-06 -0.000543609
8.97926 0 1.07246 0.00172938 -1.37786e-06 0.00314523
8.9384 0 1.04284 0.00171612 -1.64836e-05 0.00299666
8.89917 0 1.0144 0.00163724 -2.57241e-06 0.0029551
8.8615 0 0.987085 0.00157892 -9.66676e-06 0.00283731
8.82531 0 0.960854 0.00150322 -5.24162e-06 0.00273953
8.79057 0 0.935663 0.00143398 -7.31878e-06 0.00261632
8.75721 0 0.911471 0.00135864 -6.2441e-06 0.00249432
8.72516 0 0.88824 0.001286 -7.18829e-06 0.00236284
8.69439 0 0.86593 0.00121032 -7.03218e-06 0.0022277
8.66483 0 0.844505 0.00113725 -7.38389e-06 0.00208656
8.63646 0 0.823931 0.00107075 -7.73528e-06 0.00195257
8.6092 0 0.804172 0.0010119 -9.41473e-06 0.00179705
8.58303 0 0.785198 0.000939462 -8.08582e-06 0.001646
8.5579 0 0.766976 0.000859684 -7.68147e-06 0.00148386
8.53376 0 0.749477 0.000795366 -7.42017e-06 0.0013155
8.51058 0 0.732673 0.000728184 -8.04796e-06 0.00114576
8.48833 0 0.716535 0.000659275 -8.97411e-06 0.000969891
8.46695 0 0.701038 0.000584 -1.02471e-05 0.000781482
8.44642 0 0.686155 0.000500814 -1.11394e-05 0.000582485
8.42671 0 0.671863 0.00041299 -1.32534e-05 0.000374346
8.40778 0 0.658138 0.000323423 -1.34172e-05 0.000160061
8.38959 0 0.644957 0.000239268 -1.22978e-05 -5.40821e-05
8.37214 0 0.6323 0.000166021 -9.80685e-06 -0.000262334
8.97926 0 1.14643 0.00180216 -2.68648e-07 0.00297864
8.9384 0 1.11476 0.00180184 -1.68e-05 0.00287512
8.89917 0 1.08436 0.00173101 -1.22579e-06 0.00287613
8.8615 0 1.05516 0.00167476 -8.22045e-06 0.0027915
8.82531 0 1.02712 0.00160467 -2.56508e-06 0.00272261
8.79057 0 1.00019 0.00153928 -4.4566e-06 0.00262521
8.75721 0 0.974331 0.0014676 -2.65932e-06 0.00252743
8.72516 0 0.949498 0.0013988 -3.16905e-06 0.0024172
8.69439 0 0.925649 0.00132978 -3.05299e-06 0.00230251
8.66483 0 0.902747 0.00126393 -3.87288e-06 0.00217742
8.63646 0 0.880753 0.00120023 -4.31211e-06 0.00205205
8.6092 0 0.859632 0.00113334 -5.02758e-06 0.00192628
8.58303 0 0.839349 0.00107311 -5.05148e-06 0.00180189
8.5579 0 0.819871 0.00102183 -5.8164e-06 0.00165758
8.53376 0 0.801165 0.000949475 -5.10148e-06 0.00151199
8.51058 0 0.783202 0.000871961 -5.22268e-06 0.00135243
8.48833 0 0.765951 0.000806112 -6.00333e-06 0.00119251
8.46695 0 0.749385 0.000743562 -7.63665e-06 0.00102536
8.44642 0 0.733476 0.000674494 -8.91305e-06 0.000851411
8.42671 0 0.718198 0.000598626 -1.00136e-05 0.000668032
8.40778 0 0.703526 0.00051819 -1.20308e-05 0.000473923
8.38959 0 0.689437 0.000434328 -1.3721e-05 0.000268725
8.37214 0 0.675907 0.000349063 -1.29533e-05 5.93655e-05
8.97926 0 1.22039 0.00184813 -1.07756e-06 0.00272295
8.9384 0 1.18669 0.0018516 -2.14271e-05 0.00268003
8.89917 0 1.15432 0.00178381 -5.48186e-06 0.00272955
8.8615 0 1.12324 0.00172352 -1.45018e-05 0.00269438
8.82531 0 1.09339 0.00164893 -9.35751e-06 0.00266715
8.79057 0 1.06472 0.00157758 -1.16368e-05 0.00260735
8.75721 0 1.03719 0.00150395 -1.00345e-05 0.00254043
8.72516 0 1.01076 0.00143476 -1.00584e-05 0.00245658
8.69439 0 0.985369 0.00136692 -9.33689e-06 0.00236632
8.66483 0 0.960988 0.0013009 -9.03735e-06 0.00226645
8.63646 0 0.937576 0.00123409 -8.36603e-06 0.0021609
8.6092 0 0.915092 0.00117132 -7.84052e-06 0.0020483
8.58303 0 0.893501 0.00111914 -8.30119e-06 0.00192597
8.5579 0 0.872766 0.00106425 -8.94187e-06 0.00180136
8.53376 0 0.852853 0.00101987 -8.75498e-06 0.00167522
8.51058 0 0.833731 0.000972063 -8.32255e-06 0.00154081
8.48833 0 0.815368 0.00090514 -6.71598e-06 0.00140184
8.46695 0 0.797732 0.00084974 -7.25974e-06 0.00124856
8.44642 0 0.780797 0.000795124 -7.38882e-06 0.00108727
8.42671 0 0.764534 0.000737056 -7.92392e-06 0.000924437
8.40778 0 0.748915 0.00067693 -8.69556e-06 0.00075411
8.38959 0 0.733917 0.000611472 -1.00004e-05 0.000569765
8.37214 0 0.719513 0.000536742 -1.22346e-05 0.000374274
8.97926 0 1.29435 0.00186489 2.89625e-06 0.00239622
8.9384 0 1.25861 0.0019034 -1.5361e-05 0.00239113
8.89917 0 1.22428 0.00187463 2.26561e-06 0.00246915
8.8615 0 1.19131 0.00184283 -4.89477e-06 0.00247463
8.82531 0 1.15965 0.00180414 1.33561e-06 0.0024862
8.79057 0 1.12925 0.00175509 -6.57668e-07 0.0024657
8.75721 0 1.10005 0.00169864 9.62083e-07 0.00243574
8.72516 0 1.07202 0.00163563 2.25583e-07 0.00238591
8.69439 0 1.04509 0.00156957 5.03656e-07 0.00232745
8.66483 0 1.01923 0.00150298 -2.58574e-07 0.00225728
8.63646 0 0.994399 0.00143806 -8.96407e-07 0.00217926
8.6092 0 0.970553 0.00137601 -2.378e-06 0.00208959
8.58303 0 0.947652 0.0013133 -3.8028e-06 0.00199501
8.5579 0 0.925661 0.00124641 -4.88009e-06 0.00189735
8.53376 0 0.904541 0.00117961 -4.67738e-06 0.00179523
8.51058 0 0.88426 0.00110817 -4.84891e-06 0.00169154
8.48833 0 0.864784 0.00106215 -5.27265e-06 0.00157166
8.46695 0 0.84608 0.0010176 -7.01122e-06 0.00143935
8.44642 0 0.828118 0.000949998 -5.77949e-06 0.00129635
8.42671 0 0.810869 0.000875906 -6.40588e-06 0.00114722
8.40778 0 0.794304 0.000817389 -7.58177e-06 0.000996016
8.38959 0 0.778397 0.000760452 -9.23357e-06 0.000835044
8.37214 0 0.76312 0.000693837 -1.0214e-05 0.00066361
8.97926 0 1.36832 0.00186718 -2.5412e-06 0.00206383
8.9384 0 1.33053 0.00187516 -2.99979e-05 0.00215251
8.89917 0 1.29423 0.00180145 -1.44374e-05 0.00227669
8.8615 0 1.25938 0.00174299 -2.20765e-05 0.00234661
8.82531 0 1.22592 0.00168258 -1.84346e-05 0.00239645
8.79057 0 1.19378 0.001623 -1.9529e-05 0.00241596
8.75721 0 1.16291 0.00156415 -1.76007e-05 0.00241572
8.72516 0 1.13327 0.00150434 -1.66685e-05 0.00239363
8.69439 0 1.10481 0.00144684 -1.45654e-05 0.00235665
8.66484 0 1.07747 0.00139041 -1.30478e-05 0.00230292
8.63646 0 1.05122 0.00133562 -1.10333e-05 0.00223978
8.6092 0 1.02601 0.0012806 -9.45129e-06 0.00216637
8.58303 0 1.0018 0.00122789 -7.7563e-06 0.00208767
8.5579 0 0.978555 0.00118067 -7.19299e-06 0.00199892
8.53376 0 0.956229 0.0011422 -6.98308e-06 0.00190268
8.51058 0 0.934789 0.00111176 -7.72198e-06 0.00179521
8.48833 0 0.9142 0.00107406 -7.85809e-06 0.00168026
8.46695 0 0.894427 0.00103978 -7.64441e-06 0.00156787
8.44642 0 0.875439 0.00100726 -7.41599e-06 0.00145001
8.42671 0 0.857205 0.000957022 -4.51997e-06 0.00132701
8.40778 0 0.839693 0.000908117 -3.81671e-06 0.00119224
8.38959 0 0.822877 0.000873394 -3.74535e-06 0.00104438
8.37214 0 0.806727 0.00083209 -3.60527e-06 0.00088561
8.97926 0 1.44228 0.0018599 2.7148e-05 0.00153854
8.9384 0 1.40245 0.00199957 7.92324e-06 0.00164632
8.89917 0 1.36419 0.0020843 1.60332e-05 0.00179509
8.8615 0 1.32746 0.00211428 1.28633e-05 0.00193824
8.82531 0 1.29218 0.00211467 1.42694e-05 0.00206072
8.79057 0 1.2583 0.00208305 1.29226e-05 0.00215048
8.75721 0 1.22577 0.00203072 1.23579e-05 0.00221169
8.72516 0 1.19453 0.00196308 1.06599e-05 0.00224339
8.69439 0 1.16453 0.00188873 9.57172e-06 0.00225093
8.66483 0 1.13571 0.0018078 7.42832e-06 0.00223253
8.63646 0 1.10804 0.00172571 5.75976e-06 0.00219579
8.6092 0 1.08147 0.00164256 3.37384e-06 0.0021409
8.58303 0 1.05595 0.00156414 1.50048e-06 0.00207534
8.5579 0 1.03145 0.00149074 -7.80234e-07 0.0020003
8.53376 0 1.00792 0.00142138 -2.6707e-06 0.00192027
8.51058 0 0.985317 0.00135243 -4.81062e-06 0.00183537
8.48833 0 0.963616 0.00128298 -6.18367e-06 0.00174994
8.46695 0 0.942775 0.0012159 -7.54168e-06 0.0016591
8.44642 0 0.92276 0.00114202 -9.50204e-06 0.00156722
8.42671 0 0.90354 0.00107571 -1.07806e-05 0.00147102
8.40778 0 0.885082 0.00101987 -1.35615e-05 0.00136532
8.38959 0 0.867357 0.000960993 -1.52374e-05 0.00125068
8.37214 0 0.850334 0.000879116 -1.61609e-05 0.00113006
7.66922 0 0.966948 0.000382238 -6.57347e-06 3.05431e-05
7.67296 0 0.988324 0.000365427 -5.9519e-06 5.33558e-05
7.67685 0 1.01058 0.000339847 -5.62367e-06 6.73336e-05
7.68091 0 1.03376 0.000307866 -5.59446e-06 7.88787e-05
7.68513 0 1.0579 0.000272138 -5.21955e-06 8.31497e-05
7.68953 0 1.08303 0.000222304 -4.83844e-06 5.63427e-05
7.69411 0 1.1092 0.000132129 -5.06394e-06 -5.81545e-06
7.69888 0 1.13646 -2.70914e-05 -6.99126e-06 -9.05619e-05
7.70385 0 1.16483 -0.000261199 -8.5422e-06 -0.00019516
7.70902 0 1.19439 -0.000567734 -1.26438e-05 -0.000305716
7.7144 0 1.22516 -0.000955546 -1.77809e-05 -0.000406461
7.72001 0 1.25721 -0.00145003 -2.04715e-05 -0.000510713
7.72585 0 1.29057 -0.00203343 -2.26685e-05 -0.00061647
7.73193 0 1.32531 -0.00266372 -2.35661e-05 -0.00071648
7.70425 0 0.907776 0.000515686 -7.34885e-06 -4.95215e-05
7.70851 0 0.926707 0.000517513 -7.41286e-06 2.52963e-06
7.71295 0 0.946421 0.000517748 -6.77223e-06 4.98108e-05
7.71757 0 0.966948 0.000514262 -5.54706e-06 8.82623e-05
7.72238 0 0.988324 0.00050598 -5.1466e-06 0.000115994
7.72738 0 1.01058 0.0004926 -4.51976e-06 0.000131611
7.7326 0 1.03376 0.000474089 -4.30141e-06 0.000136922
7.73803 0 1.0579 0.000447865 -4.52144e-06 0.000136043
7.74368 0 1.08303 0.000409823 -5.18729e-06 0.000132561
7.74957 0 1.1092 0.000366237 -5.19044e-06 0.000127734
7.7557 0 1.13646 0.000309426 -4.10568e-06 9.76337e-05
7.76209 0 1.16484 0.000208713 -6.23638e-06 3.87752e-05
7.76874 0 1.19439 2.34745e-05 -8.25356e-06 -4.19435e-05
7.77566 0 1.22516 -0.000249422 -1.01737e-05 -0.000142957
7.78287 0 1.25721 -0.000620709 -1.51149e-05 -0.000246213
7.79038 0 1.29057 -0.00110055 -2.04647e-05 -0.000339746
7.7982 0 1.32531 -0.00169861 -2.21652e-05 -0.000441289
7.73984 0 0.872138 0.000615442 -5.77072e-06 -0.000140719
7.74464 0 0.889597 0.000613107 -7.32115e-06 -8.2902e-05
7.74964 0 0.907777 0.000617418 -7.81258e-06 -1.83606e-05
7.75484 0 0.926707 0.000622737 -7.72359e-06 4.51703e-05
7.76026 0 0.94642 0.000626079 -6.37637e-06 0.000101267
7.76591 0 0.966948 0.000625686 -5.18625e-06 0.000145109
7.77179 0 0.988324 0.000620997 -4.40858e-06 0.000175867
7.77791 0 1.01058 0.000615892 -4.06073e-06 0.000196683
7.78428 0 1.03376 0.000608338 -4.07266e-06 0.000213177
7.79092 0 1.0579 0.00059548 -3.60118e-06 0.000214572
7.79783 0 1.08303 0.000574209 -3.74826e-06 0.000199288
7.80503 0 1.1092 0.000542273 -3.90088e-06 0.000182381
7.81252 0 1.13646 0.000498391 -4.15621e-06 0.000163837
7.82033 0 1.16483 0.000445444 -5.26007e-06 0.000151585
7.82845 0 1.19439 0.000373661 -4.46701e-06 0.000121764
7.83692 0 1.22516 0.000251195 -7.0599e-06 6.45546e-05
7.84573 0 1.25721 1.73803e-05 -1.01653e-05 -6.15473e-06
7.85491 0 1.29057 -0.000323511 -1.29652e-05 -0.000112977
7.86446 0 1.32531 -0.000791378 -1.87892e-05 -0.000197841
7.87441 0 1.3615 -0.00139353 -2.13574e-05 -0.000287127
7.778 0 0.855372 0.000718573 -4.62626e-06 -0.000193524
7.78345 0 0.872138 0.00069874 -5.93983e-06 -0.000134738
7.78912 0 0.889597 0.00069996 -8.53308e-06 -6.33744e-05
7.79503 0 0.907776 0.000706918 -8.66406e-06 1.41494e-05
7.80118 0 0.926708 0.000713766 -7.76149e-06 8.74586e-05
7.80759 0 0.94642 0.000717199 -5.69586e-06 0.000149884
7.81425 0 0.966948 0.000717857 -4.80689e-06 0.000199808
7.82121 0 0.988324 0.000719545 -4.91575e-06 0.000243778
7.82844 0 1.01058 0.000722453 -4.53673e-06 0.000276876
7.83597 0 1.03376 0.000719678 -3.84493e-06 0.000288768
7.84382 0 1.0579 0.000709038 -3.35496e-06 0.000288352
7.85199 0 1.08303 0.000697302 -2.80863e-06 0.000279731
7.86049 0 1.1092 0.000680345 -2.76911e-06 0.000267069
7.86935 0 1.13646 0.000657326 -2.79711e-06 0.000246054
7.87857 0 1.16484 0.00062254 -2.95214e-06 0.000218847
7.88818 0 1.19439 0.00056998 -3.86479e-06 0.000195807
7.89818 0 1.22516 0.000505419 -4.84934e-06 0.000170365
7.90859 0 1.25721 0.000407994 -5.93358e-06 0.000146333
7.91943 0 1.29057 0.000238299 -7.10294e-06 8.27634e-05
7.93073 0 1.32531 -7.51468e-05 -1.36907e-05 2.81848e-05
7.94249 0 1.3615 -0.000540482 -1.38883e-05 -9.80563e-05
7.81473 0 0.839271 0.000843779 -3.44977e-06 -0.000253148
7.82076 0 0.855372 0.000785348 -5.43688e-06 -0.000200752
7.82705 0 0.872138 0.000771925 -7.15713e-06 -0.000127663
7.8336 0 0.889597 0.000775855 -8.96706e-06 -4.10211e-05
7.84042 0 0.907777 0.000783891 -9.02661e-06 4.81294e-05
7.84752 0 0.926707 0.000790213 -7.19663e-06 0.000128802
7.85491 0 0.946421 0.000793335 -5.52177e-06 0.000199265
7.8626 0 0.966948 0.000798936 -5.60924e-06 0.000266394
7.87062 0 0.988324 0.000806586 -5.84378e-06 0.000321747
7.87897 0 1.01058 0.000811207 -4.35484e-06 0.000351735
7.88766 0 1.03376 0.000807518 -3.64546e-06 0.000362987
7.89671 0 1.0579 0.00080363 -2.83998e-06 0.000371148
7.90614 0 1.08303 0.000797976 -2.41377e-06 0.00037076
7.91595 0 1.1092 0.000789392 -2.09543e-06 0.00036135
7.92617 0 1.13646 0.000776266 -2.0254e-06 0.000341998
7.93681 0 1.16483 0.000757178 -2.0804e-06 0.000316534
7.9479 0 1.19439 0.00072911 -2.16893e-06 0.000287104
7.95943 0 1.22516 0.000684355 -2.37851e-06 0.000250427
7.97145 0 1.25721 0.000621458 -4.69108e-06 0.000228822
7.98397 0 1.29057 0.000531374 -3.45313e-06 0.000188905
7.99699 0 1.32531 0.000387207 -9.4478e-06 0.000182923
8.01056 0 1.3615 0.000111443 -7.00531e-06 8.13757e-05
8.02469 0 1.39917 -0.00029724 -1.98143e-05 5.01416e-05
7.85669 0 0.839271 0.000887385 -3.06507e-06 -0.000276505
7.86353 0 0.855372 0.000842151 -5.58728e-06 -0.000207372
7.87066 0 0.872138 0.000834881 -9.33722e-06 -0.00011784
7.87808 0 0.889596 0.000840776 -9.90285e-06 -1.61493e-05
7.88581 0 0.907777 0.00084888 -9.1447e-06 8.30066e-05
7.89385 0 0.926708 0.000854623 -6.66698e-06 0.000173291
7.90223 0 0.94642 0.000861299 -6.72639e-06 0.000261514
7.91095 0 0.966948 0.000873057 -6.90743e-06 0.000340705
7.92003 0 0.988324 0.000882511 -5.79418e-06 0.000394515
7.9295 0 1.01058 0.000884313 -4.53685e-06 0.000424227
7.93935 0 1.03376 0.000885306 -3.53412e-06 0.000444972
7.94961 0 1.0579 0.000885737 -2.89675e-06 0.00046191
7.96029 0 1.08303 0.000885179 -2.1469e-06 0.000466866
7.97141 0 1.1092 0.000882158 -1.77538e-06 0.000463055
7.98299 0 1.13646 0.000877814 -1.63596e-06 0.00044992
7.99505 0 1.16484 0.000870073 -1.6208e-06 0.000427816
8.00761 0 1.19439 0.000855236 -1.61143e-06 0.000399833
8.02069 0 1.22516 0.000830509 -1.75199e-06 0.000363938
8.03431 0 1.25721 0.000792947 -2.40988e-06 0.000326416
8.04849 0 1.29057 0.000729898 -1.54318e-06 0.000279975
8.06326 0 1.32531 0.000649019 -7.26893e-06 0.000273219
8.07864 0 1.3615 0.000498943 -1.74644e-06 0.000203174
8.09465 0 1.39917 0.000254165 -1.63325e-05 0.000241603
7.89865 0 0.839271 0.000913903 -4.0383e-06 -0.000294893
7.9063 0 0.855372 0.000883153 -5.89165e-06 -0.000205544
7.91427 0 0.872138 0.000881987 -1.02286e-05 -9.7173e-05
7.92256 0 0.889597 0.000889803 -1.03139e-05 1.82817e-05
7.93119 0 0.907776 0.000897438 -8.72968e-06 0.000128519
7.94019 0 0.926708 0.000905675 -6.84264e-06 0.000235228
7.94955 0 0.94642 0.000920328 -7.38875e-06 0.000337551
7.9593 0 0.966948 0.000933174 -7.24141e-06 0.000420042
7.96945 0 0.988324 0.000942316 -5.1137e-06 0.000470696
7.98003 0 1.01058 0.000945499 -4.23069e-06 0.000506034
7.99104 0 1.03376 0.000951524 -3.28331e-06 0.000536548
8.0025 0 1.0579 0.00095568 -2.3818e-06 0.000560818
8.01444 0 1.08303 0.000960235 -1.57248e-06 0.000572529
8.02687 0 1.1092 0.000964633 -1.48551e-06 0.000575431
8.03981 0 1.13646 0.000967689 -1.45615e-06 0.000569224
8.05329 0 1.16483 0.000968395 -1.56734e-06 0.000552092
8.06733 0 1.19439 0.00096486 -1.38355e-06 0.000527618
8.08195 0 1.22516 0.000953836 -1.2301e-06 0.000495308
8.09717 0 1.25721 0.00093235 -1.20795e-06 0.000457687
8.11302 0 1.29057 0.000894381 -6.13598e-07 0.000410803
8.12952 0 1.32531 0.000836799 -2.9364e-06 0.000371824
8.14671 0 1.3615 0.000725016 9.09855e-07 0.000298603
8.16461 0 1.39917 0.000597162 -1.27801e-05 0.000331746
8.18324 0 1.4384 0.000320559 3.96319e-06 0.000142993
7.94062 0 0.839271 0.000929493 -6.12063e-06 -0.000303734
7.94907 0 0.855372 0.000912457 -8.52358e-06 -0.000194275
7.95787 0 0.872138 0.000917301 -1.06163e-05 -6.63715e-05
7.96704 0 0.889597 0.000927884 -1.06855e-05 6.12499e-05
7.97658 0 0.907777 0.000937756 -9.26861e-06 0.000185504
7.98652 0 0.926707 0.000952321 -8.5375e-06 0.000313018
7.99687 0 0.946421 0.000971114 -8.30215e-06 0.000420313
8.00765 0 0.966948 0.000984485 -7.66073e-06 0.000496492
8.01887 0 0.988324 0.000994744 -5.52588e-06 0.000550372
8.03055 0 1.01058 0.00100127 -4.40304e-06 0.000595632
8.04273 0 1.03376 0.0010109 -3.33459e-06 0.000634996
8.0554 0 1.0579 0.00101981 -2.42006e-06 0.000666309
8.06859 0 1.08303 0.00103094 -2.00369e-06 0.000687633
8.08233 0 1.1092 0.0010424 -2.05042e-06 0.000697194
8.09664 0 1.13646 0.00105286 -1.77762e-06 0.000697192
8.11154 0 1.16484 0.00106151 -1.76465e-06 0.00068604
8.12705 0 1.19439 0.00106778 -1.53381e-06 0.000667268
8.14321 0 1.22516 0.00106862 -1.43441e-06 0.000639373
8.16003 0 1.25721 0.00106162 -1.18288e-06 0.000603311
8.17755 0 1.29057 0.00104175 -6.19307e-07 0.000555773
8.19579 0 1.32531 0.00100466 -9.18706e-07 0.000500304
8.21479 0 1.3615 0.000940183 1.63445e-06 0.000427076
8.23457 0 1.39917 0.000861562 -7.38808e-06 0.000392498
8.25516 0 1.4384 0.00065807 2.51795e-06 0.000246531
8.27661 0 1.47926 0.000477443 -3.07265e-05 0.000320048
7.99184 0 0.855371 0.000925191 -1.12137e-05 -0.00014941
8.00148 0 0.872138 0.000936384 -1.15582e-05 -4.05796e-06
8.01152 0 0.889596 0.000949883 -9.75353e-06 0.000137276
8.02197 0 0.907777 0.000965141 -7.69351e-06 0.000277637
8.03286 0 0.926708 0.000988218 -8.60003e-06 0.000411571
8.04419 0 0.94642 0.0010077 -7.31409e-06 0.000518427
8.05599 0 0.966948 0.00102186 -6.62542e-06 0.000591499
8.06829 0 0.988324 0.00103394 -4.55935e-06 0.000647041
8.08108 0 1.01058 0.00104524 -3.21233e-06 0.000700476
8.09441 0 1.03376 0.00105849 -2.11244e-06 0.000749374
8.10829 0 1.0579 0.0010739 -1.68762e-06 0.000788187
8.12274 0 1.08303 0.00109175 -1.79035e-06 0.000817734
8.13779 0 1.1092 0.00110982 -1.69538e-06 0.00083278
8.15346 0 1.13646 0.00112826 -1.28669e-06 0.000838159
8.16978 0 1.16483 0.00114614 -1.29735e-06 0.000834569
8.18677 0 1.19439 0.00116286 -1.16646e-06 0.000822149
8.20447 0 1.22516 0.0011752 -1.02839e-06 0.000799686
8.22289 0 1.25721 0.00118147 -7.36695e-07 0.000768735
8.24208 0 1.29057 0.00117756 -3.26926e-07 0.000726239
8.26206 0 1.32531 0.00115947 -2.92903e-07 0.000673728
8.28286 0 1.3615 0.00112076 5.29215e-07 0.000608644
8.30453 0 1.39917 0.00105468 -5.90591e-07 0.000538314
8.32708 0 1.4384 0.000905898 4.01349e-06 0.000459249
8.35057 0 1.47926 0.000773292 -2.04067e-05 0.000458734
8.03461 0 0.855372 0.000931247 -1.18901e-05 -8.85856e-05
8.04508 0 0.872138 0.000950145 -1.23581e-05 6.93052e-05
8.056 0 0.889597 0.000969251 -1.07583e-05 0.00022188
8.06736 0 0.907776 0.000991852 -1.00605e-05 0.000379606
8.07919 0 0.926707 0.00101932 -1.00076e-05 0.000513955
8.09151 0 0.946421 0.00104148 -7.7533e-06 0.000608205
8.10434 0 0.966948 0.00105669 -7.49109e-06 0.000682059
8.1177 0 0.988324 0.00107226 -4.90972e-06 0.000745295
8.13161 0 1.01058 0.00108844 -3.69576e-06 0.000806355
8.1461 0 1.03376 0.00110719 -2.87204e-06 0.000864294
8.16118 0 1.0579 0.00112918 -2.89106e-06 0.000912463
8.17689 0 1.08303 0.00115156 -2.97159e-06 0.00094801
8.19325 0 1.1092 0.0011748 -2.89112e-06 0.000970067
8.21028 0 1.13646 0.00120001 -2.39908e-06 0.000985382
8.22802 0 1.16484 0.00122492 -2.15519e-06 0.000991429
8.24649 0 1.19439 0.00124929 -1.62277e-06 0.000987882
8.26572 0 1.22516 0.00126962 -1.35908e-06 0.000973348
8.28575 0 1.25721 0.00128364 -8.92843e-07 0.000949762
8.30661 0 1.29057 0.00128727 -3.93176e-07 0.000916893
8.32832 0 1.32531 0.0012772 1.34744e-07 0.000875264
8.35093 0 1.3615 0.00124694 1.40311e-06 0.000819535
8.37448 0 1.39917 0.00118797 2.17366e-06 0.000753945
8.399 0 1.4384 0.00108475 3.54492e-06 0.000686813
8.42454 0 1.47926 0.000934747 -1.47093e-06 0.000559555
8.07738 0 0.855372 0.000921071 -1.16174e-05 3.215e-05
8.08869 0 0.872138 0.000947735 -9.72767e-06 0.000200261
8.10048 0 0.889597 0.000975633 -7.38557e-06 0.000363278
8.11275 0 0.907777 0.0010077 -8.49828e-06 0.000518625
8.12553 0 0.926708 0.00103375 -7.87636e-06 0.000647831
8.13883 0 0.94642 0.00105739 -4.831e-06 0.000735781
8.15269 0 0.966948 0.00107598 -4.88246e-06 0.000805949
8.16712 0 0.988324 0.00109664 -2.25969e-06 0.00087496
8.18214 0 1.01058 0.00111855 -1.3257e-06 0.000944396
8.19779 0 1.03376 0.00114413 -1.1776e-06 0.00100845
8.21408 0 1.0579 0.00117159 -1.72235e-06 0.00105818
8.23104 0 1.08303 0.00119921 -1.4645e-06 0.00109705
8.24871 0 1.1092 0.0012284 -1.44616e-06 0.00112419
8.26711 0 1.13646 0.00125908 -1.09714e-06 0.00114456
8.28626 0 1.16483 0.00128938 -1.15849e-06 0.00115648
8.30621 0 1.19439 0.00131923 -7.73884e-07 0.00115923
8.32698 0 1.22516 0.00134527 -4.93134e-07 0.00114977
8.34861 0 1.25721 0.00136418 4.29751e-08 0.00112895
8.37113 0 1.29057 0.00137075 4.60904e-07 0.00109764
8.39459 0 1.32531 0.00136246 9.92761e-07 0.00105742
8.41901 0 1.3615 0.00133291 1.82442e-06 0.00100166
8.44444 0 1.39917 0.00127652 2.1779e-06 0.000933134
8.47093 0 1.4384 0.00118399 3.19632e-06 0.000856243
8.4985 0 1.47926 0.00103141 5.27233e-06 0.000681387
8.12014 0 0.855372 0.000920722 -1.41669e-05 0.000149665
8.1323 0 0.872138 0.000954913 -1.03766e-05 0.000321819
8.14496 0 0.889596 0.000990342 -1.08812e-05 0.000490932
8.15814 0 0.907777 0.00102824 -1.05997e-05 0.000634459
8.17186 0 0.926708 0.00105561 -9.42009e-06 0.000745965
8.18616 0 0.94642 0.00107846 -7.93643e-06 0.000835115
8.20104 0 0.966948 0.00110195 -5.62564e-06 0.000912861
8.21654 0 0.988324 0.00112799 -3.87492e-06 0.000986643
8.23267 0 1.01058 0.00115659 -3.58676e-06 0.00106346
8.24948 0 1.03376 0.00118788 -3.98403e-06 0.0011335