# kMean  POINT_DATA 63840
# x  y  z  kMean
0 0.5 3.39583e-17 0.00375
0 0.5 -0.00617931 0.00375
0 0.5 0.00617931 0.00375
0.0124865 0.5 -0.00617931 0.00375033
0.0124865 0.5 0.00617931 0.00375036
0 0.5 -0.0688207 0.00375
0 0.5 0.0688207 0.00375
0.0124865 0.5 -0.0688207 0.00375033
0.0124865 0.5 0.0688207 0.00375036
0 0.5 -0.075 0.00375
0 0.5 0.075 0.00375
0 0.5 -0.0811793 0.00375
0 0.5 0.0811793 0.00375
0.0124865 0.5 -0.0811793 0.00375031
0.0124865 0.5 0.0811793 0.00375039
0.075776 0.5 -0.0375 0.00375201
0.075776 0.5 0.0375 0.00375217
0.075776 0.5 -0.1125 0.00375191
0.075776 0.5 0.1125 0.00375238
0 0.5 -0.143821 0.00375
0 0.5 0.143821 0.00375
0.0124865 0.5 -0.143821 0.00375031
0.0124865 0.5 0.143821 0.00375039
0 0.5 -0.15 0.00375
0 0.5 0.15 0.00375
0.151149 0.5 -0.00137318 0.00375445
0 0.5 -0.156179 0.00375
0 0.5 0.156179 0.00375
0.0124865 0.5 -0.156179 0.00375031
0.0124865 0.5 0.156179 0.00375043
0.151149 0.5 0.075 0.00375473
0.151149 0.5 -0.075 0.00375429
0.075776 0.5 -0.1875 0.00375189
0.075776 0.5 0.1875 0.00375263
0.151149 0.5 0.15 0.00375512
0.151149 0.5 -0.15 0.0037542
0 0.5 -0.218821 0.00375
0 0.5 0.218821 0.00375
0.0124865 0.5 -0.218821 0.00375031
0.0124865 0.5 0.218821 0.00375043
0.219992 0.5 0.0375 0.0037568
0.219993 0.5 -0.0375 0.00375654
0 0.5 -0.225 0.00375
0 0.5 0.225 0.00375
0 0.5 -0.231179 0.00375
0 0.5 0.231179 0.00375
0.0124865 0.5 -0.231179 0.00375031
0.0124865 0.5 0.231179 0.00375048
0.219992 0.5 0.1125 0.00375726
0.219993 0.5 -0.1125 0.00375637
0.151149 0.5 -0.225 0.00375421
0.151149 0.5 0.225 0.00375559
0.075776 0.5 -0.2625 0.00375189
0.075776 0.5 0.2625 0.0037529
0.288069 0.5 -0.00137318 0.00376133
0.219992 0.5 0.1875 0.00375787
0.219993 0.5 -0.1875 0.00375634
0 0.5 0.293821 0.00375
0 0.5 -0.293821 0.00375
0.0124865 0.5 -0.293821 0.00375031
0.0124865 0.5 0.293821 0.00375048
0.288069 0.5 -0.075 0.00376115
0.288069 0.5 0.075 0.0037617
0 0.5 -0.3 0.00375
0 0.5 0.3 0.00375
0 0.5 0.306179 0.00375
0 0.5 -0.306179 0.00375
0.0124865 0.5 -0.306179 0.00375032
0.0124865 0.5 0.306179 0.00375052
0.288069 0.5 -0.15 0.00376105
0.288069 0.5 0.15 0.00376221
0.151149 0.5 -0.3 0.00375431
0.151149 0.5 0.3 0.00375611
0.219992 0.5 -0.2625 0.00375642
0.219992 0.5 0.2625 0.00375859
0.075776 0.5 0.3375 0.00375318
0.075776 0.5 -0.3375 0.00375196
0.350249 0.5 -0.0375 0.00376562
0.350249 0.5 0.0375 0.00376587
0.288069 0.5 -0.225 0.00376108
0.288069 0.5 0.225 0.00376288
0.350249 0.5 0.1125 0.00376629
0.350249 0.5 -0.1125 0.00376546
0 0.5 0.368821 0.00375
0 0.5 -0.368821 0.00375
0.0124865 0.5 -0.368821 0.00375032
0.0124865 0.5 0.368821 0.00375052
0 0.5 -0.375 0.00375
0 0.5 0.375 0.00375
0 0.5 -0.381179 0.00375
0 0.5 0.381179 0.00375
0.0124865 0.5 -0.381179 0.00375034
0.0124865 0.5 0.381179 0.00375057
0.350249 0.5 -0.1875 0.00376544
0.350249 0.5 0.1875 0.00376685
0.219992 0.5 -0.3375 0.00375666
0.219992 0.5 0.3375 0.00375937
0.151149 0.5 -0.375 0.00375452
0.151149 0.5 0.375 0.00375665
0.411736 0.5 -0.00137318 0.00377302
0.288069 0.5 -0.3 0.00376125
0.288069 0.5 0.3 0.00376366
0.411736 0.5 -0.075 0.00377287
0.411736 0.5 0.075 0.00377335
0.075776 0.5 -0.4125 0.00375208
0.075776 0.5 0.4125 0.00375345
0.350249 0.5 -0.2625 0.00376554
0.350249 0.5 0.2625 0.00376761
0.411736 0.5 -0.15 0.00377276
0.411736 0.5 0.15 0.00377376
0 0.5 -0.443821 0.00375
0 0.5 0.443821 0.00375
0.0124865 0.5 -0.443821 0.00375034
0.0124865 0.5 0.443821 0.00375057
0 0.5 -0.45 0.00375
0 0.5 0.45 0.00375
0 0.5 -0.456179 0.00375
0 0.5 0.456179 0.00375
0.0124865 0.5 -0.456179 0.00375037
0.0124865 0.5 0.456179 0.00375061
0.219992 0.5 -0.4125 0.00375703
0.219993 0.5 0.4125 0.00376017
0.411736 0.5 -0.225 0.00377276
0.411736 0.5 0.225 0.00377431
0.467897 0.5 0.0375 0.00378004
0.467897 0.5 -0.0375 0.00377984
0.288069 0.5 -0.375 0.00376155
0.288069 0.5 0.375 0.00376451
0.151149 0.5 -0.45 0.00375478
0.151149 0.5 0.45 0.00375718
0.467897 0.5 -0.1125 0.00377968
0.467897 0.5 0.1125 0.00378033
0.350249 0.5 0.3375 0.00376849
0.350249 0.5 -0.3375 0.00376578
0.075776 0.5 -0.4875 0.00375223
0.075776 0.5 0.4875 0.0037537
0.467897 0.5 -0.1875 0.0037796
0.467897 0.5 0.1875 0.00378071
0.411736 0.5 -0.3 0.00377283
0.411736 0.5 0.3 0.003775
0 0.5 -0.518821 0.00375
0 0.5 0.518821 0.00375
0.0124865 0.5 0.518821 0.00375061
0.0124865 0.5 -0.518821 0.00375037
0.523432 0.5 -0.00137318 0.00378968
0 0.5 -0.525 0.00375
0 0.5 0.525 0.00375
0.523432 0.5 -0.075 0.00378954
0.523432 0.5 0.075 0.00378995
0 0.5 -0.531179 0.00375
0 0.5 0.531179 0.00375
0.0124865 0.5 -0.531179 0.00375039
0.0124865 0.5 0.531179 0.00375065
0.288069 0.5 -0.45 0.00376194
0.288069 0.5 0.45 0.00376538
0.219992 0.5 -0.4875 0.00375745
0.219993 0.5 0.4875 0.00376094
0.467897 0.5 -0.2625 0.00377957
0.467897 0.5 0.2625 0.00378121
0.350249 0.5 -0.4125 0.00376616
0.350249 0.5 0.4125 0.00376943
0.523432 0.5 -0.15 0.00378933
0.523432 0.5 0.15 0.00379018
0.151149 0.5 -0.525 0.00375508
0.151149 0.5 0.525 0.00375769
0.411736 0.5 -0.375 0.003773
0.411736 0.5 0.375 0.00377579
0.075776 0.5 -0.5625 0.00375239
0.075776 0.5 0.5625 0.00375393
0.523432 0.5 -0.225 0.00378912
0.523432 0.5 0.225 0.00379047
0.574156 0.5 -0.0375 0.00379889
0.574156 0.5 0.0375 0.00379909
0.467897 0.5 0.3375 0.00378185
0.467897 0.5 -0.3375 0.00377956
0.574156 0.5 -0.1125 0.00379863
0.574156 0.5 0.1125 0.00379924
0 0.5 -0.593821 0.00375
0 0.5 0.593821 0.00375
0.0124865 0.5 -0.593821 0.00375039
0.0124865 0.5 0.593821 0.00375065
0.288069 0.5 -0.525 0.00376235
0.288069 0.5 0.525 0.00376622
0 0.5 -0.6 0.00375
0 0.5 0.6 0.00375
0.350249 0.5 -0.4875 0.00376655
0.350249 0.5 0.4875 0.00377038
0.523432 0.5 -0.3 0.0037889
0.523432 0.5 0.3 0.00379083
0.219992 0.5 -0.5625 0.00375789
0.219992 0.5 0.5625 0.00376167
0.574156 0.5 -0.1875 0.00379833
0.574156 0.5 0.1875 0.00379937
0 0.5 -0.606179 0.00375
0 0.5 0.606179 0.00375
0.0124865 0.5 -0.606179 0.00375042
0.0124865 0.5 0.606179 0.00375068
0.411736 0.5 -0.45 0.00377322
0.411736 0.5 0.45 0.00377664
0.151149 0.5 -0.6 0.00375538
0.151149 0.5 0.6 0.00375815
0.62168 0.5 2.64545e-17 0.00381025
0.467897 0.5 0.4125 0.00378259
0.467897 0.5 -0.4125 0.00377966
0.624316 0.5 0.0729402 0.00381114
0.624316 0.5 -0.075 0.00381064
0.574156 0.5 -0.2625 0.00379794
0.574157 0.5 0.2625 0.00379951
0.075776 0.5 -0.6375 0.00375255
0.075776 0.5 0.6375 0.00375412
0.624316 0.5 -0.15 0.00381018
0.624316 0.5 0.15 0.00381119
0.523432 0.5 -0.375 0.00378867
0.523432 0.5 0.375 0.00379129
0.350249 0.5 -0.5625 0.00376692
0.350249 0.5 0.5625 0.00377128
0.624316 0.5 -0.225 0.00380958
0.624316 0.5 0.225 0.00381116
0.288069 0.5 0.6 0.00376701
0.288069 0.5 -0.6 0.00376274
0.574156 0.5 -0.3375 0.00379747
0.574156 0.5 0.3375 0.00379972
0.411736 0.5 -0.525 0.00377339
0.411736 0.5 0.525 0.00377747
0 0.5 -0.668821 0.00375
0 0.5 0.668821 0.00375
0.0124865 0.5 -0.668821 0.00375042
0.0124865 0.5 0.668821 0.00375068
0.67013 0.5 0.0375 0.00382246
0.67013 0.5 -0.0375 0.00382216
0.219993 0.5 -0.6375 0.00375832
0.219993 0.5 0.6375 0.00376232
0 0.5 -0.675 0.00375
0 0.5 0.675 0.00375
0.467897 0.5 0.4875 0.00378335
0.467897 0.5 -0.4875 0.00377969
0.67013 0.5 -0.1125 0.00382165
0.67013 0.5 0.1125 0.00382252
0 0.5 -0.681179 0.00375
0 0.5 0.681179 0.00375
0.0124865 0.5 -0.681179 0.00375044
0.0124865 0.5 0.681179 0.00375071
0.523432 0.5 -0.45 0.00378841
0.523432 0.5 0.45 0.0037918
0.151149 0.5 -0.675 0.00375567
0.151149 0.5 0.675 0.00375854
0.624316 0.5 -0.3 0.00380883
0.624316 0.5 0.3 0.00381109
0.67013 0.5 0.1875 0.00382239
0.67013 0.5 -0.1875 0.00382091
0.574156 0.5 -0.4125 0.003797
0.574157 0.5 0.4125 0.0038
0.708171 0.5 1.88651e-17 0.0038339
0.075776 0.5 -0.7125 0.0037527
0.075776 0.5 0.7125 0.00375428
0.715434 0.5 0.0736268 0.00383607
0.715434 0.5 -0.075 0.00383553
0.67013 0.5 0.2625 0.00382214
0.67013 0.5 -0.2625 0.00381995
0.350249 0.5 -0.6375 0.00376725
0.350249 0.5 0.6375 0.00377212
0.411736 0.5 -0.6 0.00377351
0.411736 0.5 0.6 0.00377826
0.624316 0.5 -0.375 0.00380796
0.624316 0.5 0.375 0.00381104
0.715434 0.5 -0.15 0.00383464
0.715434 0.5 0.15 0.00383627
0.467897 0.5 -0.5625 0.00377963
0.467897 0.5 0.5625 0.00378409
0.288069 0.5 -0.675 0.00376309
0.288069 0.5 0.675 0.0037677
0.523432 0.5 -0.525 0.00378803
0.523432 0.5 0.525 0.00379232
0 0.5 -0.743821 0.00375
0 0.5 0.743821 0.00375
0.0124865 0.5 -0.743821 0.00375044
0.0124865 0.5 0.743821 0.00375071
0.219992 0.5 0.7125 0.00376288
0.219992 0.5 -0.7125 0.00375872
0.715434 0.5 -0.225 0.00383344
0.715434 0.5 0.225 0.00383592
0 0.5 -0.75 0.00375
0 0.5 0.75 0.00375
0.67013 0.5 0.3375 0.00382181
0.67013 0.5 -0.3375 0.0038188
0.574156 0.5 -0.4875 0.00379634
0.574156 0.5 0.4875 0.00380029
0 0.5 -0.756179 0.00375
0 0.5 0.756179 0.00375
0.0124865 0.5 -0.756179 0.00375047
0.0124865 0.5 0.756179 0.00375072
0.756813 0.5 -0.0375 0.00384898
0.756813 0.5 0.0375 0.00384951
0.151149 0.5 -0.75 0.00375593
0.151149 0.5 0.75 0.00375886
0.756813 0.5 -0.1125 0.00384804
0.756813 0.5 0.1125 0.0038496
0.624316 0.5 -0.45 0.00380693
0.624316 0.5 0.45 0.00381101
0.715434 0.5 -0.3 0.00383197
0.715434 0.5 0.3 0.00383538
0.756813 0.5 0.1875 0.00384927
0.756813 0.5 -0.1875 0.00384669
0.67013 0.5 -0.4125 0.00381747
0.67013 0.5 0.4125 0.00382149
0.411736 0.5 -0.675 0.00377354
0.411736 0.5 0.675 0.00377895
0.467897 0.5 0.6375 0.00378476
0.467897 0.5 -0.6375 0.00377947
0.075776 0.5 -0.7875 0.00375284
0.075776 0.5 0.7875 0.00375439
0.350249 0.5 -0.7125 0.0037675
0.350249 0.5 0.7125 0.00377284
0.523432 0.5 -0.6 0.00378752
0.523432 0.5 0.6 0.00379278
0.797732 0.5 2.68882e-17 0.00386442
0.756813 0.5 -0.2625 0.00384499
0.756814 0.5 0.2625 0.0038486
0.797732 0.5 0.0736268 0.00386475
0.797732 0.5 -0.075 0.00386345
0.288069 0.5 -0.75 0.00376338
0.288069 0.5 0.75 0.00376828
0.574156 0.5 -0.5625 0.00379554
0.574157 0.5 0.5625 0.00380057
0.715434 0.5 -0.375 0.00383021
0.715434 0.5 0.375 0.00383471
0.797732 0.5 -0.15 0.00386196
0.797732 0.5 0.15 0.00386474
0.624316 0.5 -0.525 0.00380569
0.624316 0.5 0.525 0.00381094
0.219992 0.5 -0.7875 0.00375906
0.219992 0.5 0.7875 0.00376332
0 0.5 -0.818821 0.00375
0 0.5 0.818821 0.00375
0.0124865 0.5 0.818821 0.00375072
0.0124865 0.5 -0.818821 0.00375047
0 0.5 -0.825 0.00375
0 0.5 0.825 0.00375
0.756813 0.5 0.3375 0.00384769
0.756814 0.5 -0.3375 0.00384295
0.67013 0.5 -0.4875 0.00381586
0.67013 0.5 0.4875 0.00382112
0.797732 0.5 -0.225 0.00386
0.797732 0.5 0.225 0.00386412
0 0.5 -0.831179 0.00375
0 0.5 0.831179 0.00375
0.0124865 0.5 -0.831179 0.00375049
0.0124865 0.5 0.831179 0.00375074
0.835106 0.5 0.0375 0.0038794
0.835106 0.5 -0.0375 0.0038785
0.151149 0.5 -0.825 0.00375615
0.151149 0.5 0.825 0.0037591
0.835106 0.5 0.1125 0.00387961
0.835106 0.5 -0.1125 0.00387698
0.715434 0.5 -0.45 0.00382813
0.715434 0.5 0.45 0.00383398
0.797732 0.5 -0.3 0.00385758
0.797732 0.5 0.3 0.00386308
0.467897 0.5 0.7125 0.00378533
0.467897 0.5 -0.7125 0.0037792
0.523432 0.5 -0.675 0.00378689
0.523432 0.5 0.675 0.00379317
0.411736 0.5 -0.75 0.00377347
0.411736 0.5 0.75 0.00377953
0.835106 0.5 -0.1875 0.00387488
0.835106 0.5 0.1875 0.00387916
0.574156 0.5 -0.6375 0.00379457
0.574157 0.5 0.6375 0.00380078
0.350249 0.5 -0.7875 0.00376766
0.350249 0.5 0.7875 0.00377343
0.756813 0.5 -0.4125 0.00384046
0.756814 0.5 0.4125 0.00384662
0.075776 0.5 -0.8625 0.00375295
0.075776 0.5 0.8625 0.00375445
0.624316 0.5 0.6 0.00381082
0.624316 0.5 -0.6 0.00380426
0.872064 0.5 5.91974e-17 0.00389546
0.870122 0.5 0.075 0.00389521
0.288069 0.5 -0.825 0.00376358
0.288069 0.5 0.825 0.00376873
0.67013 0.5 -0.5625 0.00381402
0.67013 0.5 0.5625 0.0038207
0.872064 0.5 -0.075 0.00389393
0.835106 0.5 -0.2625 0.00387223
0.835106 0.5 0.2625 0.00387812
0.797732 0.5 -0.375 0.00385469
0.797732 0.5 0.375 0.00386173
0.872064 0.5 0.14794 0.00389614
0.872064 0.5 -0.15 0.0038917
0.715434 0.5 -0.525 0.00382577
0.715434 0.5 0.525 0.00383316
0.219992 0.5 0.8625 0.00376364
0.219993 0.5 -0.8625 0.00375933
0 0.5 -0.893821 0.00375
0 0.5 0.893821 0.00375
0.0124865 0.5 -0.893821 0.00375049
0.0124865 0.5 0.893821 0.00375074
0 0.5 -0.9 0.00375
0 0.5 0.9 0.00375
0.756813 0.5 -0.4875 0.00383765
0.756813 0.5 0.4875 0.00384547
0.872064 0.5 -0.225 0.00388881
0.872064 0.5 0.225 0.0038953
0.835106 0.5 -0.3375 0.003869
0.835106 0.5 0.3375 0.00387663
0 0.5 0.906179 0.00375
0 0.5 -0.906179 0.00375
0.0124865 0.5 -0.906179 0.0037505
0.0124865 0.5 0.906179 0.00375074
0.90582 0.5 -0.0375 0.00391063
0.90582 0.5 0.0375 0.00391205
0.151149 0.5 -0.9 0.00375632
0.151149 0.5 0.9 0.00375926
0.90582 0.5 -0.1125 0.00390836
0.905821 0.5 0.1125 0.0039125
0.523432 0.5 -0.75 0.00378612
0.523432 0.5 0.75 0.00379344
0.574156 0.5 -0.7125 0.00379346
0.574156 0.5 0.7125 0.00380089
0.797732 0.5 -0.45 0.00385135
0.797732 0.5 0.45 0.00386019
0.467897 0.5 0.7875 0.00378577
0.467897 0.5 -0.7875 0.00377882
0.624316 0.5 -0.675 0.00380267
0.624316 0.5 0.675 0.00381062
0.411736 0.5 -0.825 0.0037733
0.411736 0.5 0.825 0.00377997
0.872064 0.5 0.3 0.00389381
0.872064 0.5 -0.3 0.00388524
0.67013 0.5 -0.6375 0.00381198
0.67013 0.5 0.6375 0.00382019
0.90582 0.5 0.1875 0.003912
0.905821 0.5 -0.1875 0.00390537
0.350249 0.5 -0.8625 0.00376773
0.350249 0.5 0.8625 0.00377388
0.835106 0.5 -0.4125 0.00386522
0.835106 0.5 0.4125 0.00387474
0.715434 0.5 -0.6 0.00382317
0.715434 0.5 0.6 0.00383224
0.939201 0.5 2.75387e-17 0.00392807
0.075776 0.5 0.9375 0.00375449
0.075776 0.5 -0.9375 0.00375303
0.939111 0.5 0.075 0.00392932
0.939201 0.5 -0.075 0.00392589
0.756813 0.5 0.5625 0.00384419
0.756814 0.5 -0.5625 0.00383454
0.90582 0.5 0.2625 0.00391064
0.905821 0.5 -0.2625 0.0039016
0.288069 0.5 -0.9 0.00376371
0.288069 0.5 0.9 0.00376904
0.872064 0.5 -0.375 0.00388105
0.872064 0.5 0.375 0.00389178
0.939201 0.5 0.148627 0.00392928
0.939201 0.5 -0.15 0.00392281
0.797732 0.5 -0.525 0.00384765
0.797732 0.5 0.525 0.00385851
0.219992 0.5 0.9375 0.00376384
0.219992 0.5 -0.9375 0.00375953
0.939201 0.5 -0.225 0.00391885
0.939201 0.5 0.225 0.00392843
0.905821 0.5 -0.3375 0.00389702
0.90582 0.5 0.3375 0.00390858
0.835106 0.5 -0.4875 0.00386101
0.835106 0.5 0.4875 0.00387272
0 0.5 0.968821 0.00375
0 0.5 -0.968821 0.00375
0.0124865 0.5 -0.968821 0.0037505
0.0124865 0.5 0.968821 0.00375074
0.969689 0.5 -0.0375 0.00394322
0.969689 0.5 0.0375 0.00394524
0.574156 0.5 -0.7875 0.00379222
0.574156 0.5 0.7875 0.00380089
0 0.5 -0.975 0.00375
0 0.5 0.975 0.00375
0.624316 0.5 -0.75 0.00380093
0.624316 0.5 0.75 0.0038103
0.969689 0.5 -0.1125 0.0039402
0.96969 0.5 0.1125 0.00394614
0.523432 0.5 -0.825 0.00378524
0.523432 0.5 0.825 0.00379358
0.67013 0.5 0.7125 0.00381959
0.67013 0.5 -0.7125 0.00380977
0 0.5 -0.981179 0.00375
0 0.5 0.981179 0.00375
0.467897 0.5 0.8625 0.00378606
0.467897 0.5 -0.8625 0.00377832
0.0124865 0.5 -0.981179 0.00375051
0.0124865 0.5 0.981179 0.00375074
0.872064 0.5 -0.45 0.00387632
0.872064 0.5 0.45 0.00388936
0.715434 0.5 -0.675 0.00382036
0.715434 0.5 0.675 0.00383122
0.939201 0.5 -0.3 0.00391394
0.939201 0.5 0.3 0.00392648
0.151149 0.5 0.975 0.00375934
0.151149 0.5 -0.975 0.00375643
0.969689 0.5 -0.1875 0.00393621
0.969689 0.5 0.1875 0.00394577
0.756813 0.5 -0.6375 0.00383118
0.756813 0.5 0.6375 0.00384277
0.411736 0.5 -0.9 0.00377302
0.411736 0.5 0.9 0.00378025
0.90582 0.5 -0.4125 0.00389189
0.90582 0.5 0.4125 0.00390592
0.995005 0.5 0.0749309 0.00395842
0.797732 0.5 -0.6 0.00384366
0.797732 0.5 0.6 0.00385663
1.00005 0.5 -8.47123e-18 0.00395942
0.350249 0.5 -0.9375 0.0037677
0.350249 0.5 0.9375 0.00377416
1.00005 0.5 -0.0749309 0.00395663
0.969689 0.5 -0.2625 0.00393115
0.969689 0.5 0.2625 0.00394412
0.835106 0.5 -0.5625 0.00385643
0.835106 0.5 0.5625 0.00387046
1.00005 0.5 -0.149862 0.00395281
0.939201 0.5 -0.375 0.00390821
0.939201 0.5 0.375 0.00392372
1.00029 0.5 0.148988 0.0039613
0.075776 0.5 -1.0125 0.00375308
0.075776 0.5 1.0125 0.00375448
0.288069 0.5 0.975 0.00376921
0.288069 0.5 -0.975 0.00376374
0.872064 0.5 -0.525 0.00387111
0.872064 0.5 0.525 0.00388668
1.00005 0.5 0.224793 0.00396079
1.00005 0.5 -0.224793 0.0039479
0.969689 0.5 0.3375 0.0039414
0.96969 0.5 -0.3375 0.00392498
1.0271 0.5 -0.0368226 0.00397476
1.0271 0.5 0.0368226 0.00397729
0.90582 0.5 0.4875 0.00390286
0.905821 0.5 -0.4875 0.00388616
1.0271 0.5 -0.110468 0.00397115
1.0271 0.5 0.110468 0.00398073
0.67013 0.5 0.7875 0.00381887
0.67013 0.5 -0.7875 0.00380742
0.624316 0.5 0.825 0.00380986
0.624316 0.5 -0.825 0.00379906
0.219993 0.5 -1.0125 0.00375965
0.219993 0.5 1.0125 0.00376392
0.574156 0.5 -0.8625 0.00379087
0.574156 0.5 0.8625 0.00380074
0.715434 0.5 -0.75 0.0038174
0.715434 0.5 0.75 0.00383007
0.756813 0.5 0.7125 0.00384123
0.756814 0.5 -0.7125 0.00382763
0.523432 0.5 -0.9 0.00378425
0.523432 0.5 0.9 0.00379356
0.939201 0.5 -0.45 0.00390178
0.939201 0.5 0.45 0.00392035
1.04168 0.5 0 0.00398458
1.0271 0.5 -0.184113 0.00396646
1.0271 0.5 0.184113 0.00397878
0 0.5 -1.04382 0.00375
0 0.5 1.04382 0.00375
0.0124865 0.5 -1.04382 0.00375051
0.0124865 0.5 1.04382 0.00375074
1.00005 0.5 -0.299723 0.00394186
1.00005 0.5 0.299723 0.0039587
1.04168 0.5 -0.0729162 0.00398135
1.04168 0.5 0.0729162 0.00398667
0.797732 0.5 -0.675 0.00383944
0.797732 0.5 0.675 0.00385459
0.467897 0.5 0.9375 0.00378618
0.467897 0.5 -0.9375 0.00377771
0 0.5 -1.05 0.00375
0 0.5 1.05 0.00375
0.835106 0.5 -0.6375 0.00385157
0.835106 0.5 0.6375 0.00386797
1.04168 0.5 -0.145832 0.00397704
1.04168 0.5 0.145832 0.00398756
0.969689 0.5 -0.4125 0.00391801
0.96969 0.5 0.4125 0.00393785
0 0.5 -1.05618 0.00375
0 0.5 1.05618 0.00375
0.0124865 0.5 -1.05618 0.00375051
0.0124865 0.5 1.05618 0.00375073
1.05695 0.5 -0.0360764 0.00399176
1.05695 0.5 0.0360764 0.0039946
0.411736 0.5 -0.975 0.00377264
0.411736 0.5 0.975 0.00378036
0.872064 0.5 -0.6 0.00386551
0.872064 0.5 0.6 0.00388375
1.0271 0.5 -0.257759 0.00396061
1.0271 0.5 0.257759 0.00397751
0.151149 0.5 -1.05 0.00375649
0.151149 0.5 1.05 0.00375933
1.05695 0.5 0.108229 0.00399805
1.05695 0.5 -0.108229 0.00398784
1.04168 0.5 -0.218749 0.00397159
1.04168 0.5 0.218749 0.00398715
0.90582 0.5 -0.5625 0.0038799
0.905821 0.5 0.5625 0.00389952
1.00005 0.5 -0.374654 0.00393483
1.00005 0.5 0.374654 0.00395556
0.350249 0.5 1.0125 0.00377427
0.350249 0.5 -1.0125 0.00376756
1.05695 0.5 -0.180382 0.0039828
1.05695 0.5 0.180382 0.00399667
1.07319 0.5 0.0709442 0.0040063
0.939201 0.5 -0.525 0.00389479
0.939201 0.5 0.525 0.00391657
1.0271 0.5 -0.331404 0.00395364
1.0271 0.5 0.331404 0.00397495
1.08112 0.5 3.23815e-17 0.00400831
1.04168 0.5 -0.291665 0.003965
1.04168 0.5 0.291665 0.00398535
1.08112 0.5 -0.0709442 0.00400465
0.969689 0.5 -0.4875 0.00391018
0.96969 0.5 0.4875 0.00393366
1.05695 0.5 0.252535 0.00399571
1.05695 0.5 -0.252535 0.00397658
0.288069 0.5 -1.05 0.00376368
0.288069 0.5 1.05 0.00376924
0.075776 0.5 -1.0875 0.00375311
0.075776 0.5 1.0875 0.00375443
1.08112 0.5 -0.141888 0.00399988
1.08145 0.5 0.140165 0.00401156
0.715434 0.5 0.825 0.0038288
0.715434 0.5 -0.825 0.00381432
0.756813 0.5 0.7875 0.00383956
0.756814 0.5 -0.7875 0.00382395
0.67013 0.5 -0.8625 0.00380497
0.67013 0.5 0.8625 0.00381803
0.797732 0.5 -0.75 0.00383505
0.797732 0.5 0.75 0.00385242
0.624316 0.5 -0.9 0.0037971
0.624316 0.5 0.9 0.00380929
1.00005 0.5 -0.449585 0.00392683
1.00005 0.5 0.449585 0.00395149
0.835106 0.5 -0.7125 0.00384651
0.835106 0.5 0.7125 0.00386531
0.574156 0.5 -0.9375 0.00378941
0.574157 0.5 0.9375 0.00380044
1.10076 0.5 -0.0349809 0.00401913
1.10076 0.5 0.0349809 0.00402244
1.08112 0.5 -0.212832 0.00399394
1.08112 0.5 0.212832 0.00401209
0.872064 0.5 -0.675 0.00385964
0.872064 0.5 0.675 0.00388058
1.04168 0.5 -0.364581 0.00395737
1.04168 0.5 0.364581 0.00398235
1.0271 0.5 0.405049 0.00397134
1.0271 0.5 -0.405049 0.00394573
1.05695 0.5 -0.324688 0.00396925
1.05695 0.5 0.324688 0.00399338
1.10076 0.5 -0.104943 0.00401469
1.10076 0.5 0.104943 0.0040245
0.523432 0.5 0.975 0.00379337
0.523432 0.5 -0.975 0.00378315
0.90582 0.5 0.6375 0.00389592
0.905821 0.5 -0.6375 0.00387326
0.219992 0.5 1.0875 0.00376386
0.219992 0.5 -1.0875 0.00375969
1.11376 0.5 3.81639e-17 0.00402929
0.939201 0.5 0.6 0.00391241
0.939201 0.5 -0.6 0.00388746
1.10076 0.5 -0.174905 0.0040091
1.10076 0.5 0.174905 0.0040254
0.467897 0.5 -1.0125 0.00377699
0.467897 0.5 1.0125 0.00378611
1.11376 0.5 -0.0693118 0.00402524
1.11376 0.5 0.0693118 0.00403213
1.08112 0.5 0.283777 0.0040107
1.08112 0.5 -0.283777 0.00398685
0 0.5 -1.11882 0.00375
0 0.5 1.11882 0.00375
0.0124865 0.5 -1.11882 0.00375051
0.0124865 0.5 1.11882 0.00375073
0.969689 0.5 -0.5625 0.00390212
0.969689 0.5 0.5625 0.00392918
1.11376 0.5 0.138624 0.00403381
1.11376 0.5 -0.138624 0.00402005
0 0.5 -1.125 0.00375
0 0.5 1.125 0.00375
1.10076 0.5 0.244866 0.00402497
1.10076 0.5 -0.244866 0.00400231
0.411736 0.5 -1.05 0.00377214
0.411736 0.5 1.05 0.00378031
1.05695 0.5 -0.396841 0.00396096
1.05695 0.5 0.396841 0.00398991
1.00005 0.5 -0.524516 0.00391818
1.00005 0.5 0.524516 0.00394673
1.04168 0.5 -0.437497 0.00394868
1.04168 0.5 0.437497 0.00397822
0 0.5 -1.13118 0.00375
0 0.5 1.13118 0.00375
0.0124865 0.5 -1.13118 0.00375052
0.0124865 0.5 1.13118 0.00375072
1.11376 0.5 -0.207935 0.00401369
1.11376 0.5 0.207935 0.00403412
1.0271 0.5 -0.478694 0.00393667
1.0271 0.5 0.478694 0.00396662
0.151149 0.5 -1.125 0.0037565
0.151149 0.5 1.125 0.00375923
1.08112 0.5 -0.354722 0.00397873
1.08112 0.5 0.354722 0.004008
1.13882 0.5 -0.0340295 0.00404414
1.13882 0.5 0.0340295 0.00404792
0.350249 0.5 -1.0875 0.00376731
0.350249 0.5 1.0875 0.00377424
1.13882 0.5 -0.102088 0.0040392
1.13882 0.5 0.102088 0.00405148
1.10076 0.5 -0.314829 0.00399443
1.10076 0.5 0.314829 0.00402308
0.756813 0.5 -0.8625 0.00382018
0.756814 0.5 0.8625 0.00383777
0.797732 0.5 -0.825 0.00383057
0.797732 0.5 0.825 0.00385012
1.11376 0.5 -0.277247 0.00400617
1.11376 0.5 0.277247 0.00403311
0.835106 0.5 0.7875 0.00386252
0.835106 0.5 -0.7875 0.00384131
0.715434 0.5 -0.9 0.00381116
0.715434 0.5 0.9 0.00382741
0.872064 0.5 -0.75 0.00385363
0.872064 0.5 0.75 0.0038772
1.13882 0.5 0.170147 0.00405168
1.13882 0.5 -0.170147 0.00403308
0.67013 0.5 -0.9375 0.00380242
0.67013 0.5 0.9375 0.00381705
0.905821 0.5 -0.7125 0.0038664
0.905821 0.5 0.7125 0.00389205
1.05695 0.5 0.468994 0.00398525
1.05695 0.5 -0.468994 0.00395149
0.939201 0.5 -0.675 0.00387991
0.939201 0.5 0.675 0.00390793
0.624316 0.5 0.975 0.00380855
0.624316 0.5 -0.975 0.00379504
1.04168 0.5 -0.510414 0.00393921
1.04168 0.5 0.510414 0.0039731
0.969689 0.5 -0.6375 0.00389382
0.96969 0.5 0.6375 0.00392401
0.288069 0.5 -1.125 0.00376352
0.288069 0.5 1.125 0.00376911
1.16179 0.5 5.78241e-19 0.00406252
1.08112 0.5 0.425666 0.00400406
1.08112 0.5 -0.425666 0.00396953
1.13882 0.5 -0.238206 0.00402576
1.13882 0.5 0.238206 0.00405171
1.16179 0.5 0.0669104 0.00406877
1.16179 0.5 -0.0669104 0.00405782
0.574156 0.5 -1.0125 0.00378785
0.574156 0.5 1.0125 0.00379995
0.075776 0.5 -1.1625 0.00375312
0.075776 0.5 1.1625 0.00375434
1.00005 0.5 -0.599447 0.00390921
1.00005 0.5 0.599447 0.0039413
1.10076 0.5 0.384791 0.0040199
1.10076 0.5 -0.384791 0.00398556
1.0271 0.5 -0.55234 0.00392722
1.0271 0.5 0.55234 0.00396114
1.11376 0.5 -0.346559 0.00399761
1.11376 0.5 0.346559 0.0040307
1.16179 0.5 -0.133821 0.00405193
1.16179 0.5 0.133821 0.00406853
0.523432 0.5 -1.05 0.00378195
0.523432 0.5 1.05 0.00379301
1.17463 0.5 -0.0331343 0.00406889
1.17463 0.5 0.0331343 0.00407316
1.17463 0.5 -0.0994029 0.00406345
1.17463 0.5 0.0994029 0.00407605
1.16179 0.5 -0.200731 0.00404485
1.16179 0.5 0.200731 0.00406902
1.13882 0.5 -0.306265 0.00401734
1.13882 0.5 0.306265 0.00405027
0.219992 0.5 -1.1625 0.00375965
0.219992 0.5 1.1625 0.00376367
0.467897 0.5 -1.0875 0.00377616
0.467897 0.5 1.0875 0.00378589
1.17463 0.5 0.165672 0.0040777
1.17463 0.5 -0.165672 0.00405679
1.05695 0.5 -0.541147 0.00394168
1.05695 0.5 0.541147 0.0039797
1.18772 0.5 -5.78241e-19 0.0040807
1.11376 0.5 -0.41587 0.003988
1.11376 0.5 0.41587 0.00402699
1.18772 0.5 -0.065614 0.00407564
1.18772 0.5 0.065614 0.00408466
1.08112 0.5 -0.49661 0.00395961
1.08112 0.5 0.49661 0.00399903
1.10076 0.5 -0.454752 0.00397556
1.10076 0.5 0.454752 0.00401547
1.18534 0.5 0.118202 0.0040869
1.16179 0.5 -0.267642 0.00403661
1.16179 0.5 0.267642 0.0040686
0 0.5 -1.19382 0.00375
0 0.5 1.19382 0.00375
0.0124865 0.5 1.19382 0.00375072
0.0124865 0.5 -1.19382 0.00375052
1.04168 0.5 -0.58333 0.00392936
1.04168 0.5 0.58333 0.00396713
1.18772 0.5 -0.131228 0.00406938
1.17463 0.5 -0.23194 0.00404893
1.17463 0.5 0.23194 0.00407814
0.411736 0.5 -1.125 0.00377154
0.411736 0.5 1.125 0.0037801
1.13882 0.5 -0.374324 0.00400791
1.13882 0.5 0.374324 0.00404742
0 0.5 -1.2 0.00375
0 0.5 1.2 0.00375
0.905821 0.5 0.7875 0.00388788
0.905821 0.5 -0.7875 0.00385955
0.872064 0.5 -0.825 0.00384758
0.872064 0.5 0.825 0.00387363
0.835106 0.5 0.8625 0.00385963
0.835106 0.5 -0.8625 0.00383609
0.939201 0.5 -0.75 0.00387225
0.939201 0.5 0.75 0.00390331
0.797732 0.5 -0.9 0.00382605
0.797732 0.5 0.9 0.00384771
1.0271 0.5 0.625985 0.00395481
1.0271 0.5 -0.625985 0.00391735
0.969689 0.5 0.7125 0.00391877
0.96969 0.5 -0.7125 0.00388549
1.18772 0.5 -0.196842 0.0040619
1.18772 0.5 0.196842 0.00408809
0.756814 0.5 -0.9375 0.00381637
0.756814 0.5 0.9375 0.00383588
0 0.5 1.20618 0.00375
0 0.5 -1.20618 0.00375
1.00005 0.5 -0.674378 0.0039001
1.00005 0.5 0.674378 0.00393546
0.0124865 0.5 1.20618 0.0037507
0.0124865 0.5 -1.20618 0.00375051
1.16179 0.5 -0.334552 0.0040273
1.16179 0.5 0.334552 0.00406672
0.715434 0.5 0.975 0.0038259
0.715434 0.5 -0.975 0.00380795
0.151149 0.5 -1.2 0.00375646
0.151149 0.5 1.2 0.00375905
1.20942 0.5 0.0322645 0.0040998
1.20942 0.5 -0.0322645 0.00409461
1.17463 0.5 -0.298209 0.00403995
1.17463 0.5 0.298209 0.00407713
1.20942 0.5 -0.0967935 0.00408862
1.20942 0.5 0.0967935 0.00410275
0.350249 0.5 -1.1625 0.00376695
0.350249 0.5 1.1625 0.00377402
0.67013 0.5 1.0125 0.00381591
0.67013 0.5 -1.0125 0.00379981
1.11376 0.5 0.485183 0.0040221
1.11376 0.5 -0.485183 0.00397773
1.18772 0.5 0.262456 0.00408796
1.18772 0.5 -0.262456 0.00405326
1.10076 0.5 -0.524714 0.00396531
1.10076 0.5 0.524714 0.00400999
1.20942 0.5 -0.161322 0.00408138
1.20942 0.5 0.161322 0.0041048
1.08112 0.5 -0.567554 0.00394932
1.08112 0.5 0.567554 0.00399303
0.624316 0.5 -1.05 0.0037929
0.624316 0.5 1.05 0.00380766
1.13882 0.5 -0.442383 0.00399751
1.13882 0.5 0.442383 0.00404327
1.05695 0.5 0.6133 0.00397322
1.05695 0.5 -0.6133 0.00393142
1.16179 0.5 -0.401463 0.00401702
1.16179 0.5 0.401463 0.00406342
0.574156 0.5 -1.0875 0.0037862
0.574156 0.5 1.0875 0.0037993
1.17463 0.5 0.364477 0.00407464
1.17463 0.5 -0.364477 0.00402995
1.20942 0.5 -0.225851 0.00407293
1.20942 0.5 0.225851 0.00410561
1.23036 0.5 -1.32995e-17 0.00411397
1.2294 0.5 0.0634819 0.00411842
1.04168 0.5 -0.656246 0.00391915
1.04168 0.5 0.656246 0.00396044
1.23036 0.5 -0.0634819 0.0041082
1.18772 0.5 0.32807 0.00408635
1.18772 0.5 -0.32807 0.00404353
0.288069 0.5 -1.2 0.00376327
0.288069 0.5 1.2 0.00376882
1.23036 0.5 -0.126964 0.00410119
1.23036 0.5 0.126964 0.0041214
0.075776 0.5 -1.2375 0.00375311
0.075776 0.5 1.2375 0.00375422
0.523432 0.5 -1.125 0.00378065
0.523432 0.5 1.125 0.00379252
1.0271 0.5 -0.69963 0.00390745
1.0271 0.5 0.69963 0.00394827
1.24274 0.5 0.0314313 0.0041262
1.24274 0.5 -0.0314313 0.00412087
1.20942 0.5 0.29038 0.00410503
1.20942 0.5 -0.29038 0.00406334
1.11376 0.5 -0.554494 0.0039671
1.11376 0.5 0.554494 0.00401619
1.23036 0.5 -0.190445 0.00409293
1.23036 0.5 0.190445 0.00412309
1.24274 0.5 -0.0942942 0.0041143
1.24274 0.5 0.0942942 0.00413006
1.13882 0.5 0.510442 0.00403794
1.13882 0.5 -0.510442 0.00398684
0.969689 0.5 -0.7875 0.00387693
0.969689 0.5 0.7875 0.0039136
1.00005 0.5 -0.749309 0.00389086
1.00005 0.5 0.749309 0.00392965
0.939201 0.5 -0.825 0.00386454
0.939201 0.5 0.825 0.00389845
0.90582 0.5 0.8625 0.00388352
0.90582 0.5 -0.8625 0.00385267
1.17463 0.5 -0.430746 0.00401906
1.17463 0.5 0.430746 0.00407074
1.10076 0.5 -0.594676 0.00395458
1.10076 0.5 0.594676 0.00400357
1.18772 0.5 -0.393684 0.00403288
1.18772 0.5 0.393684 0.00408328
1.24274 0.5 -0.157157 0.00410646
1.24274 0.5 0.157157 0.00413252
1.16179 0.5 -0.468373 0.00400619
1.16179 0.5 0.468373 0.00405881
0.467897 0.5 -1.1625 0.00377523
0.467897 0.5 1.1625 0.00378556
0.872064 0.5 -0.9 0.00384153
0.872064 0.5 0.9 0.00386997
1.25401 0.5 2.08167e-17 0.00413234
0.835106 0.5 0.9375 0.00385663
0.835106 0.5 -0.9375 0.00383089
1.25401 0.5 -0.0622994 0.00412618
1.25401 0.5 0.0622994 0.00413747
1.08112 0.5 -0.638498 0.0039385
1.08112 0.5 0.638498 0.00398604
1.23036 0.5 -0.253927 0.00408348
1.23036 0.5 0.253927 0.00412346
0.219992 0.5 1.2375 0.00376335
0.219992 0.5 -1.2375 0.00375953
1.25309 0.5 0.121964 0.00414045
1.05695 0.5 0.685452 0.00396603
1.05695 0.5 -0.685452 0.00392072
0.797732 0.5 0.975 0.0038452
0.797732 0.5 -0.975 0.00382153
1.25401 0.5 -0.124599 0.00411875
1.20942 0.5 -0.354909 0.00405272
1.20942 0.5 0.354909 0.00410292
1.24274 0.5 -0.220019 0.00409737
1.24274 0.5 0.220019 0.00413368
0.756814 0.5 -1.0125 0.00381255
0.756813 0.5 1.0125 0.00383387
1.25401 0.5 -0.186898 0.00411006
1.25401 0.5 0.186898 0.0041424
0.411736 0.5 -1.2 0.00377085
0.411736 0.5 1.2 0.00377971
0 0.5 -1.26882 0.00375
0 0.5 1.26882 0.00375
0.0124865 0.5 1.26882 0.0037507
0.0124865 0.5 -1.26882 0.00375051
0.715434 0.5 -1.05 0.00380472
0.715434 0.5 1.05 0.00382425
1.23036 0.5 -0.31741 0.00407295
1.23036 0.5 0.31741 0.00412239
1.04168 0.5 -0.729162 0.00390869
1.04168 0.5 0.729162 0.00395359
1.18772 0.5 -0.459298 0.00402172
1.18772 0.5 0.459298 0.00407883
1.24274 0.5 -0.282882 0.00408712
1.24274 0.5 0.282882 0.00413351
0 0.5 -1.275 0.00375
0 0.5 1.275 0.00375
1.27472 0.5 -0.0306319 0.00414785
1.27472 0.5 0.0306319 0.00415375
1.17463 0.5 0.497015 0.00406556
1.17463 0.5 -0.497015 0.004008
1.11376 0.5 -0.623806 0.00395592
1.11376 0.5 0.623806 0.00400917
1.13882 0.5 -0.578501 0.00397569
1.13882 0.5 0.578501 0.00403163
0.67013 0.5 -1.0875 0.00379716
0.67013 0.5 1.0875 0.00381463
1.27472 0.5 -0.0918959 0.00414065
1.27472 0.5 0.0918959 0.00415491
1.25401 0.5 -0.249197 0.00410015
1.25401 0.5 0.249197 0.00414302
1.16179 0.5 -0.535284 0.00399501
1.16179 0.5 0.535284 0.00405307
1.20942 0.5 -0.419438 0.00404134
1.20942 0.5 0.419438 0.00409931
0 0.5 -1.28118 0.00375
0 0.5 1.28118 0.00375
0.0124865 0.5 1.28118 0.00375067
0.0124865 0.5 -1.28118 0.00375051
1.27472 0.5 0.15316 0.00416106
1.27472 0.5 -0.15316 0.00413215