# kMean  POINT_DATA 63140
# x  y  z  kMean
0 0.1 0 0.00375
0 0.1 -0.0179898 0.00375
0 0.1 0.0179898 0.00375
0.0363518 0.1 0.0179898 0.00374732
0.0363518 0.1 -0.0179898 0.00374718
0 0.1 -0.0570102 0.00375
0 0.1 0.0570102 0.00375
0.0363518 0.1 0.0570102 0.00374732
0.0363518 0.1 -0.0570102 0.00374718
0 0.1 -0.075 0.00375
0 0.1 0.075 0.00375
0.075776 0.1 -0.0375 0.00374385
0.075776 0.1 0.0375 0.00374415
0 0.1 -0.0929898 0.00375
0 0.1 0.0929898 0.00375
0.0363518 0.1 -0.0929898 0.00374718
0.0363518 0.1 0.0929898 0.00374758
0 0.1 -0.13201 0.00375
0 0.1 0.13201 0.00375
0.075776 0.1 -0.1125 0.00374387
0.075776 0.1 0.1125 0.00374468
0.0363518 0.1 -0.13201 0.00374718
0.0363518 0.1 0.13201 0.00374758
0 0.1 -0.15 0.00375
0 0.1 0.15 0.00375
0.150379 0.1 -2.22623e-17 0.00373644
0 0.1 -0.16799 0.00375
0 0.1 0.16799 0.00375
0.150379 0.1 -0.075 0.00373651
0.150379 0.1 0.075 0.00373698
0.0363518 0.1 -0.16799 0.00374735
0.0363518 0.1 0.16799 0.00374795
0.075776 0.1 -0.1875 0.00374421
0.075776 0.1 0.1875 0.00374544
0 0.1 -0.20701 0.00375
0 0.1 0.20701 0.00375
0.0363518 0.1 -0.20701 0.00374735
0.0363518 0.1 0.20701 0.00374795
0.150379 0.1 -0.15 0.00373722
0.150379 0.1 0.15 0.00373798
0.219993 0.1 -0.0375 0.00372912
0.219993 0.1 0.0375 0.00372932
0 0.1 -0.225 0.00375
0 0.1 0.225 0.00375
0 0.1 -0.24299 0.00375
0 0.1 0.24299 0.00375
0.0363518 0.1 0.24299 0.00374839
0.0363518 0.1 -0.24299 0.00374765
0.219993 0.1 -0.1125 0.00372986
0.219993 0.1 0.1125 0.00373042
0.150379 0.1 -0.225 0.00373825
0.150379 0.1 0.225 0.00373924
0.075776 0.1 -0.2625 0.00374483
0.075776 0.1 0.2625 0.00374634
0 0.1 -0.28201 0.00375
0 0.1 0.28201 0.00375
0.0363518 0.1 -0.28201 0.00374765
0.0363518 0.1 0.28201 0.00374839
0.287374 0.1 -2.89121e-19 0.00372181
0.219992 0.1 0.1875 0.00373201
0.219992 0.1 -0.1875 0.00373157
0.287374 0.1 -0.075 0.00372241
0.287374 0.1 0.075 0.00372212
0 0.1 -0.3 0.00375
0 0.1 0.3 0.00375
0 0.1 0.31799 0.00375
0 0.1 -0.31799 0.00375
0.0363518 0.1 -0.31799 0.00374796
0.0363518 0.1 0.31799 0.00374885
0.287374 0.1 0.15 0.00372323
0.287374 0.1 -0.15 0.00372383
0.150379 0.1 -0.3 0.00373919
0.150379 0.1 0.3 0.0037406
0.219993 0.1 0.2625 0.00373377
0.219993 0.1 -0.2625 0.00373296
0.075776 0.1 -0.3375 0.00374546
0.075776 0.1 0.3375 0.00374728
0.350249 0.1 -0.0375 0.00371495
0.350249 0.1 0.0375 0.00371446
0 0.1 -0.35701 0.00375
0 0.1 0.35701 0.00375
0.0363518 0.1 -0.35701 0.00374796
0.0363518 0.1 0.35701 0.00374885
0.287374 0.1 -0.225 0.0037255
0.287374 0.1 0.225 0.00372486
0.350249 0.1 -0.1125 0.00371629
0.350249 0.1 0.1125 0.00371493
0 0.1 -0.375 0.00375
0 0.1 0.375 0.00375
0 0.1 -0.39299 0.00375
0 0.1 0.39299 0.00375
0.0363518 0.1 -0.39299 0.00374824
0.0363518 0.1 0.39299 0.00374924
0.350249 0.1 -0.1875 0.00371818
0.350249 0.1 0.1875 0.00371622
0.219992 0.1 -0.3375 0.00373403
0.219992 0.1 0.3375 0.00373558
0.150379 0.1 0.375 0.00374194
0.150379 0.1 -0.375 0.00374001
0.411108 0.1 4.33681e-19 0.00370889
0.287374 0.1 -0.3 0.00372686
0.287374 0.1 0.3 0.00372675
0.411108 0.1 -0.075 0.00371002
0.411108 0.1 0.075 0.00370853
0.075776 0.1 -0.4125 0.00374603
0.075776 0.1 0.4125 0.00374808
0 0.1 0.43201 0.00375
0 0.1 -0.43201 0.00375
0.0363518 0.1 0.43201 0.00374924
0.0363518 0.1 -0.43201 0.00374824
0.411108 0.1 -0.15 0.00371167
0.411108 0.1 0.15 0.00370903
0.350249 0.1 -0.2625 0.00371985
0.350249 0.1 0.2625 0.0037181
0 0.1 -0.45 0.00375
0 0.1 0.45 0.00375
0.219992 0.1 0.4125 0.00373734
0.219992 0.1 -0.4125 0.00373504
0 0.1 -0.46799 0.00375
0 0.1 0.46799 0.00375
0.411108 0.1 -0.225 0.00371337
0.411108 0.1 0.225 0.00371029
0.467897 0.1 -0.0375 0.00370382
0.467897 0.1 0.0375 0.00370274
0.0363518 0.1 0.46799 0.00374955
0.0363518 0.1 -0.46799 0.00374848
0.287374 0.1 -0.375 0.00372795
0.287374 0.1 0.375 0.00372871
0.150379 0.1 0.45 0.00374303
0.150379 0.1 -0.45 0.00374074
0.467897 0.1 0.1125 0.00370243
0.467897 0.1 -0.1125 0.00370542
0.350249 0.1 -0.3375 0.00372113
0.350249 0.1 0.3375 0.00372021
0.075776 0.1 -0.4875 0.00374652
0.075776 0.1 0.4875 0.00374874
0.467897 0.1 0.1875 0.00370299
0.467897 0.1 -0.1875 0.00370717
0 0.1 -0.50701 0.00375
0 0.1 0.50701 0.00375
0.0363518 0.1 -0.50701 0.00374848
0.0363518 0.1 0.50701 0.00374955
0.411108 0.1 0.3 0.00371207
0.411108 0.1 -0.3 0.00371479
0.522865 0.1 1.41031e-17 0.00369975
0 0.1 -0.525 0.00375
0 0.1 0.525 0.00375
0.522865 0.1 -0.075 0.00370116
0.522865 0.1 0.075 0.0036988
0.287374 0.1 0.45 0.0037304
0.287374 0.1 -0.45 0.00372886
0.219992 0.1 0.4875 0.00373844
0.219992 0.1 -0.4875 0.00373588
0.467897 0.1 -0.2625 0.00370868
0.467897 0.1 0.2625 0.00370432
0.350249 0.1 -0.4125 0.00372214
0.350249 0.1 0.4125 0.00372232
0 0.1 -0.54299 0.00375
0 0.1 0.54299 0.00375
0.522865 0.1 0.15 0.00369854
0.522865 0.1 -0.15 0.00370275
0.0363518 0.1 0.54299 0.00374983
0.0363518 0.1 -0.54299 0.00374871
0.150379 0.1 -0.525 0.0037413
0.150379 0.1 0.525 0.00374382
0.411108 0.1 -0.375 0.00371586
0.411108 0.1 0.375 0.0037141
0.075776 0.1 -0.5625 0.003747
0.075776 0.1 0.5625 0.00374931
0.522865 0.1 -0.225 0.00370419
0.522865 0.1 0.225 0.00369904
0.574156 0.1 0.0375 0.00369559
0.574157 0.1 -0.0375 0.003697
0.467897 0.1 -0.3375 0.00370988
0.467897 0.1 0.3375 0.00370617
0 0.1 -0.58201 0.00375
0 0.1 0.58201 0.00375
0.0363518 0.1 -0.58201 0.00374871
0.0363518 0.1 0.58201 0.00374983
0.574157 0.1 -0.1125 0.00369856
0.574157 0.1 0.1125 0.00369462
0.287374 0.1 -0.525 0.00372949
0.287374 0.1 0.525 0.00373165
0 0.1 -0.6 0.00375
0 0.1 0.6 0.00375
0.350249 0.1 0.4875 0.00372411
0.350249 0.1 -0.4875 0.00372291
0.522865 0.1 -0.3 0.0037053
0.522865 0.1 0.3 0.00370023
0.219992 0.1 -0.5625 0.00373627
0.219992 0.1 0.5625 0.00373923
0.574156 0.1 -0.1875 0.00369998
0.574156 0.1 0.1875 0.00369432
0.411108 0.1 0.45 0.00371608
0.411108 0.1 -0.45 0.00371663
0 0.1 -0.61799 0.00375
0 0.1 0.61799 0.00375
0.150379 0.1 -0.6 0.00374178
0.150379 0.1 0.6 0.00374447
0.0363518 0.1 -0.61799 0.00374893
0.0363518 0.1 0.61799 0.00375009
0.467897 0.1 -0.4125 0.00371068
0.467897 0.1 0.4125 0.00370821
0.623803 0.1 2.34188e-17 0.00369498
0.623803 0.1 0.075 0.00369366
0.623803 0.1 -0.075 0.00369641
0.574156 0.1 0.2625 0.00369477
0.574156 0.1 -0.2625 0.00370108
0.623803 0.1 0.15 0.00369272
0.623803 0.1 -0.15 0.00369769
0.075776 0.1 0.6375 0.00374984
0.075776 0.1 -0.6375 0.00374746
0.522865 0.1 -0.375 0.00370602
0.522865 0.1 0.375 0.00370186
0 0.1 0.65701 0.00375
0 0.1 -0.65701 0.00375
0.0363518 0.1 0.65701 0.00375009
0.0363518 0.1 -0.65701 0.00374893
0.350249 0.1 0.5625 0.00372541
0.350249 0.1 -0.5625 0.00372342
0.623803 0.1 0.225 0.00369234
0.623803 0.1 -0.225 0.00369865
0.287374 0.1 -0.6 0.00373
0.287374 0.1 0.6 0.00373261
0.574157 0.1 -0.3375 0.00370174
0.574157 0.1 0.3375 0.00369591
0.411108 0.1 0.525 0.00371773
0.411108 0.1 -0.525 0.00371714
0.67013 0.1 0.0375 0.00369289
0.67013 0.1 -0.0375 0.00369437
0.219992 0.1 -0.6375 0.00373686
0.219993 0.1 0.6375 0.00373996
0 0.1 -0.675 0.00375
0 0.1 0.675 0.00375
0.467897 0.1 -0.4875 0.00371118
0.467897 0.1 0.4875 0.00371016
0.67013 0.1 -0.1125 0.00369564
0.67013 0.1 0.1125 0.00369148
0.522865 0.1 0.45 0.00370365
0.522865 0.1 -0.45 0.00370638
0.150379 0.1 0.675 0.00374509
0.150379 0.1 -0.675 0.00374233
0.623803 0.1 0.3 0.00369263
0.623803 0.1 -0.3 0.00369915
0 0.1 -0.69299 0.00375
0 0.1 0.69299 0.00375
0.0363518 0.1 -0.69299 0.00374916
0.0363518 0.1 0.69299 0.00375033
0.67013 0.1 -0.1875 0.00369654
0.67013 0.1 0.1875 0.0036904
0.574156 0.1 0.4125 0.00369745
0.574157 0.1 -0.4125 0.003702
0.714971 0.1 -2.8382e-17 0.00369426
0.075776 0.1 -0.7125 0.00374793
0.075776 0.1 0.7125 0.00375032
0.714971 0.1 -0.075 0.00369547
0.714971 0.1 0.075 0.00369282
0.67013 0.1 0.2625 0.00368988
0.67013 0.1 -0.2625 0.00369696
0.411108 0.1 -0.6 0.00371756
0.411108 0.1 0.6 0.00371899
0.350249 0.1 0.6375 0.0037264
0.350249 0.1 -0.6375 0.00372397
0.623803 0.1 0.375 0.00369349
0.623803 0.1 -0.375 0.0036992
0.714971 0.1 -0.15 0.00369625
0.714971 0.1 0.15 0.00369137
0.467897 0.1 -0.5625 0.00371149
0.467897 0.1 0.5625 0.00371174
0 0.1 -0.73201 0.00375
0 0.1 0.73201 0.00375
0.0363518 0.1 0.73201 0.00375033
0.0363518 0.1 -0.73201 0.00374916
0.287374 0.1 -0.675 0.00373061
0.287374 0.1 0.675 0.00373343
0.522865 0.1 -0.525 0.00370646
0.522865 0.1 0.525 0.00370527
0.219993 0.1 -0.7125 0.00373754
0.219992 0.1 0.7125 0.00374067
0.714971 0.1 -0.225 0.00369651
0.714971 0.1 0.225 0.00369019
0 0.1 0.75 0.00375
0 0.1 -0.75 0.00375
0.67013 0.1 -0.3375 0.0036968
0.67013 0.1 0.3375 0.00369
0.574156 0.1 -0.4875 0.00370188
0.574157 0.1 0.4875 0.00369906
0.756813 0.1 0.0375 0.00369412
0.756814 0.1 -0.0375 0.00369541
0.150379 0.1 0.746002 0.00374572
0.150379 0.1 -0.75 0.00374289
0.756813 0.1 -0.1125 0.0036962
0.756813 0.1 0.1125 0.00369251
0 0.1 0.76799 0.00375
0 0.1 -0.76799 0.00375
0.0363518 0.1 0.76799 0.00375052
0.0363518 0.1 -0.76799 0.00374938
0.623803 0.1 -0.45 0.00369886
0.623803 0.1 0.45 0.00369467
0.714971 0.1 -0.3 0.00369619
0.714971 0.1 0.3 0.00368949
0.756814 0.1 -0.1875 0.0036964
0.756814 0.1 0.1875 0.00369085
0.67013 0.1 -0.4125 0.00369626
0.67013 0.1 0.4125 0.00369067
0.411108 0.1 0.675 0.00371995
0.411108 0.1 -0.675 0.003718
0.467897 0.1 0.6375 0.00371289
0.467897 0.1 -0.6375 0.00371179
0.075776 0.1 0.7875 0.00375073
0.075776 0.1 -0.7875 0.00374839
0.350249 0.1 -0.7125 0.00372459
0.350249 0.1 0.7125 0.00372724
0.522865 0.1 -0.6 0.00370644
0.522865 0.1 0.6 0.00370652
0.797314 0.1 -3.59473e-17 0.00369709
0.287374 0.1 0.746002 0.00373427
0.797314 0.1 -0.075 0.00369788
0.797314 0.1 0.075 0.00369573
0.756814 0.1 -0.2625 0.00369595
0.756814 0.1 0.2625 0.00368943
0.287374 0.1 -0.75 0.00373124
0.574156 0.1 -0.5625 0.00370156
0.574156 0.1 0.5625 0.00370042
0 0.1 0.80701 0.00375
0 0.1 -0.80701 0.00375
0.714971 0.1 -0.375 0.00369535
0.714971 0.1 0.375 0.00368933
0.0363518 0.1 0.80701 0.00375052
0.0363518 0.1 -0.80701 0.00374938
0.797314 0.1 -0.15 0.00369802
0.797314 0.1 0.15 0.00369401
0.623803 0.1 -0.525 0.00369821
0.623803 0.1 0.525 0.00369586
0.219992 0.1 0.7875 0.00374135
0.219992 0.1 -0.7875 0.00373816
0.149792 0.1 0.80701 0.00374607
0 0.1 0.825 0.00375
0 0.1 -0.825 0.00375
0.797314 0.1 -0.225 0.00369746
0.797314 0.1 0.225 0.00369219
0.756813 0.1 -0.3375 0.00369487
0.756813 0.1 0.3375 0.00368847
0.67013 0.1 0.4875 0.0036916
0.67013 0.1 -0.4875 0.00369533
0.835106 0.1 -0.0375 0.00369967
0.835106 0.1 0.0375 0.00369874
0.150379 0.1 -0.825 0.0037434
0.835106 0.1 -0.1125 0.00369984
0.835106 0.1 0.1125 0.00369715
0 0.1 -0.84299 0.00375
0 0.1 0.84299 0.00375
0.0363518 0.1 -0.84299 0.00374958
0.0363518 0.1 0.84299 0.00375068
0.714971 0.1 -0.45 0.00369409
0.714971 0.1 0.45 0.00368959
0.411108 0.1 0.746002 0.00372085
0.797314 0.1 -0.3 0.00369621
0.797314 0.1 0.3 0.00369055
0.467897 0.1 -0.7125 0.00371208
0.467897 0.1 0.7125 0.00371376
0.522865 0.1 0.675 0.00370741
0.522865 0.1 -0.675 0.00370641
0.411108 0.1 -0.75 0.00371843
0.835106 0.1 -0.1875 0.00369925
0.835107 0.1 0.1875 0.00369512
0.286844 0.1 0.80701 0.00373473
0.574156 0.1 0.6375 0.00370135
0.574157 0.1 -0.6375 0.00370122
0.350249 0.1 -0.7875 0.00372518
0.350249 0.1 0.7875 0.003728
0.756813 0.1 -0.4125 0.00369332
0.756814 0.1 0.4125 0.00368801
0.623803 0.1 -0.6 0.00369742
0.623803 0.1 0.6 0.00369676
0.075776 0.1 0.8625 0.00375106
0.075776 0.1 -0.8625 0.00374881
0.871687 0.1 -3.2767e-18 0.00370291
0.287374 0.1 -0.825 0.0037318
0.871687 0.1 -0.075 0.00370315
0.871687 0.1 0.075 0.00370183
0.67013 0.1 -0.5625 0.00369416
0.67013 0.1 0.5625 0.00369245
0.835106 0.1 0.2625 0.00369295
0.835106 0.1 -0.2625 0.00369788
0.797314 0.1 -0.375 0.00369435
0.797314 0.1 0.375 0.00368928
0 0.1 -0.88201 0.00375
0 0.1 0.88201 0.00375
0.0363518 0.1 0.88201 0.00375068
0.0363518 0.1 -0.88201 0.00374958
0.871687 0.1 0.15 0.00370003
0.871687 0.1 -0.15 0.00370255
0.714971 0.1 0.525 0.00369003
0.714971 0.1 -0.525 0.00369249
0.219993 0.1 0.8625 0.00374193
0.219992 0.1 -0.8625 0.00373871
0 0.1 0.9 0.00375
0 0.1 -0.9 0.00375
0.756813 0.1 0.4875 0.00368797
0.756814 0.1 -0.4875 0.00369132
0.871687 0.1 0.225 0.00369775
0.871687 0.1 -0.225 0.00370111
0.835106 0.1 -0.3375 0.00369583
0.835106 0.1 0.3375 0.00369097
0.41063 0.1 0.80701 0.00372134
0.90582 0.1 -0.0375 0.00370656
0.905821 0.1 0.0375 0.00370614
0.522865 0.1 0.746002 0.00370813
0.150379 0.1 0.9 0.00374657
0.90582 0.1 0.1125 0.00370475
0.905821 0.1 -0.1125 0.00370601
0.522865 0.1 -0.75 0.00370634
0.574156 0.1 0.7125 0.00370194
0.574156 0.1 -0.7125 0.00370085
0.797314 0.1 -0.45 0.00369197
0.797314 0.1 0.45 0.00368844
0.467897 0.1 -0.7875 0.00371233
0.467897 0.1 0.7875 0.00371451
0.150379 0.1 -0.903998 0.00374371
0 0.1 0.91799 0.00375
0 0.1 -0.91799 0.00375
0.0363518 0.1 0.91799 0.00375081
0.0363518 0.1 -0.91799 0.00374976
0.623803 0.1 0.675 0.00369726
0.623803 0.1 -0.675 0.00369658
0.411108 0.1 -0.825 0.00371879
0.871687 0.1 0.3 0.0036953
0.871687 0.1 -0.3 0.00369887
0.67013 0.1 -0.6375 0.00369286
0.67013 0.1 0.6375 0.00369293
0.90582 0.1 -0.1875 0.00370459
0.90582 0.1 0.1875 0.00370256
0.350249 0.1 0.8625 0.00372871
0.350249 0.1 -0.8625 0.00372567
0.835106 0.1 -0.4125 0.0036931
0.835106 0.1 0.4125 0.00368933
0.714971 0.1 -0.6 0.00369069
0.714971 0.1 0.6 0.00369031
0.93886 0.1 -1.15648e-17 0.00371137
0.075776 0.1 0.9375 0.00375132
0.075776 0.1 -0.9375 0.00374917
0.93886 0.1 0.075 0.00371067
0.93886 0.1 -0.075 0.003711
0.756813 0.1 0.5625 0.00368799
0.756814 0.1 -0.5625 0.00368907
0.905821 0.1 -0.2625 0.00370226
0.905821 0.1 0.2625 0.00369983
0.287374 0.1 0.9 0.00373545
0.287374 0.1 -0.903998 0.00373209
0.871687 0.1 0.375 0.00369298
0.871687 0.1 -0.375 0.00369584
0.93886 0.1 -0.15 0.00370965
0.93886 0.1 0.15 0.00370895
0.797314 0.1 0.525 0.00368787
0.797314 0.1 -0.525 0.00368922
0 0.1 0.95701 0.00375
0 0.1 -0.95701 0.00375
0.0363518 0.1 0.95701 0.00375081
0.0363518 0.1 -0.95701 0.00374976
0.522433 0.1 0.80701 0.00370846
0.219992 0.1 0.9375 0.00374239
0.219992 0.1 -0.9375 0.00373917
0.93886 0.1 0.225 0.0037064
0.93886 0.1 -0.225 0.00370735
0.90582 0.1 0.3375 0.00369693
0.905821 0.1 -0.3375 0.00369906
0.835106 0.1 -0.4875 0.00368989
0.835107 0.1 0.4875 0.00368814
0.969689 0.1 -0.0375 0.00371602
0.969689 0.1 0.0375 0.00371613
0.61613 0.1 0.75 0.00369744
0.574156 0.1 -0.7875 0.00370042
0.574156 0.1 0.7875 0.0037023
0 0.1 0.975 0.00375
0 0.1 -0.975 0.00375
0.623803 0.1 -0.75 0.0036957
0.969689 0.1 -0.1125 0.00371478
0.969689 0.1 0.1125 0.00371503
0.522865 0.1 -0.825 0.0037062
0.67013 0.1 0.7125 0.00369295
0.67013 0.1 -0.7125 0.00369153
0.871687 0.1 -0.45 0.00369218
0.871687 0.1 0.45 0.00369094
0.467897 0.1 0.8625 0.00371517
0.467897 0.1 -0.8625 0.00371246
0.714971 0.1 -0.675 0.00368879
0.714971 0.1 0.675 0.00369021
0.93886 0.1 -0.3 0.00370401
0.93886 0.1 0.3 0.00370332
0.150379 0.1 0.975 0.00374688
0.150379 0.1 -0.975 0.00374422
0.969689 0.1 -0.1875 0.00371262
0.969689 0.1 0.1875 0.00371282
0.411108 0.1 0.9 0.00372211
0.756813 0.1 0.6375 0.00368778
0.756814 0.1 -0.6375 0.00368665
0.990306 0.1 -2.19732e-17 0.00371667
0 0.1 0.99299 0.00375
0 0.1 -0.99299 0.00375
0.411108 0.1 -0.903998 0.00371888
0.990306 0.1 -0.075 0.00371586
0.990306 0.1 0.075 0.00371627
0.0363518 0.1 0.99299 0.0037509
0.0363518 0.1 -0.99299 0.00374991
0.90582 0.1 -0.4125 0.00369497
0.905821 0.1 0.4125 0.00369417
0.797314 0.1 -0.6 0.00368624
0.797314 0.1 0.6 0.00368727
0.350249 0.1 0.9375 0.00372932
0.350249 0.1 -0.9375 0.00372605
0.990306 0.1 0.15 0.00371466
0.990306 0.1 -0.15 0.00371401
0.969689 0.1 -0.2625 0.00370934
0.969689 0.1 0.2625 0.00370974
0.835106 0.1 -0.5625 0.00368638
0.835106 0.1 0.5625 0.00368712
0.93886 0.1 -0.375 0.00369965
0.93886 0.1 0.375 0.00370006
0.075776 0.1 1.0125 0.00375151
0.075776 0.1 -1.0125 0.00374947
0.990306 0.1 -0.225 0.00371109
0.990306 0.1 0.225 0.00371199
0.287374 0.1 0.975 0.00373592
0.287374 0.1 -0.975 0.00373263
0.871687 0.1 -0.525 0.00368811
0.871687 0.1 0.525 0.00368919
1.02149 0.1 -0.0369628 0.00372213
1.02149 0.1 0.0369628 0.00372263
0.969689 0.1 -0.3375 0.00370482
0.969689 0.1 0.3375 0.00370612
1.02149 0.1 -0.110888 0.00372046
1.02149 0.1 0.110888 0.00372182
0.90582 0.1 0.4875 0.00369166
0.90582 0.1 -0.4875 0.00369041
0.623803 0.1 0.819003 0.00369689
0 0.1 1.03201 0.00375
0 0.1 -1.03201 0.00375
0.0363518 0.1 1.03201 0.0037509
0.0363518 0.1 -1.03201 0.00374991
0.67013 0.1 -0.7875 0.00369021
0.67013 0.1 0.7875 0.0036927
0.623803 0.1 -0.825 0.00369479
0.990306 0.1 -0.3 0.00370691
0.990306 0.1 0.3 0.00370853
0.219992 0.1 -1.0125 0.00373953
0.219993 0.1 1.0125 0.0037427
0.574156 0.1 0.8625 0.00370253
0.574157 0.1 -0.8625 0.00369995
0.714971 0.1 -0.75 0.00368686
0.714971 0.1 0.75 0.00368972
1.02149 0.1 0.184814 0.00371975
1.02149 0.1 -0.184814 0.00371777
0.756814 0.1 -0.7125 0.00368413
0.756814 0.1 0.7125 0.00368714
0.522865 0.1 0.9 0.00370895
0.93886 0.1 -0.45 0.00369457
0.93886 0.1 0.45 0.00369689
1.04168 0.1 0 0.00372681
1.04168 0.1 -0.0729162 0.00372557
1.04168 0.1 0.0729162 0.00372681
0.522865 0.1 -0.903998 0.00370587
0.797314 0.1 -0.675 0.00368311
0.797314 0.1 0.675 0.00368639
0.467897 0.1 0.9375 0.00371571
0.467897 0.1 -0.9375 0.00371247
0 0.1 1.05 0.00375
0 0.1 -1.05 0.00375
0.835106 0.1 -0.6375 0.00368268
0.835106 0.1 0.6375 0.00368596
1.04168 0.1 -0.145832 0.00372321
1.04168 0.1 0.145832 0.00372548
1.02149 0.1 -0.25874 0.0037138
1.02149 0.1 0.25874 0.0037166
0.969689 0.1 -0.4125 0.00369923
0.969689 0.1 0.4125 0.00370239
0.411108 0.1 0.975 0.00372261
0.411108 0.1 -0.975 0.00371919
0.871687 0.1 -0.6 0.00368375
0.871687 0.1 0.6 0.00368752
1.0579 0.1 -0.0360525 0.00373008
1.0579 0.1 0.0360525 0.00373086
0.990306 0.1 -0.375 0.00370151
0.990306 0.1 0.375 0.00370465
0.150379 0.1 1.05 0.00374708
0.150379 0.1 -1.05 0.00374452
1.0579 0.1 0.108157 0.00373031
1.0579 0.1 -0.108157 0.00372814
1.04168 0.1 -0.218749 0.00371964
1.04168 0.1 0.218749 0.00372292
0.90582 0.1 -0.5625 0.00368545
0.90582 0.1 0.5625 0.00368942
0 0.1 -1.06799 0.00375
0 0.1 1.06799 0.00375
0.0363518 0.1 -1.06799 0.00375003
0.0363518 0.1 1.06799 0.00375095
0.350249 0.1 1.0125 0.00372979
0.350249 0.1 -1.0125 0.00372633
1.0579 0.1 -0.180262 0.00372506
1.0579 0.1 0.180262 0.00372844
1.02149 0.1 -0.332665 0.00370833
1.02149 0.1 0.332665 0.00371262
0.93886 0.1 -0.525 0.00368909
0.93886 0.1 0.525 0.00369396
1.08012 0.1 5.49329e-18 0.00373617
1.04168 0.1 -0.291665 0.0037146
1.04168 0.1 0.291665 0.00371932
1.08012 0.1 0.0709941 0.00373643
1.08012 0.1 -0.0709941 0.00373465
0.969689 0.1 -0.4875 0.00369323
0.96969 0.1 0.4875 0.00369875
1.0579 0.1 0.252367 0.00372537
1.0579 0.1 -0.252367 0.00372059
0.990306 0.1 -0.45 0.00369539
0.990306 0.1 0.45 0.00370067
0.287374 0.1 -1.05 0.00373291
0.287374 0.1 1.05 0.00373624
0.714971 0.1 0.821002 0.00368896
1.08012 0.1 -0.141988 0.00373196
1.08012 0.1 0.141988 0.00373535
0.075776 0.1 1.0875 0.00375161
0.075776 0.1 -1.0875 0.00374972
0.714971 0.1 -0.825 0.00368494
0.756813 0.1 -0.7875 0.00368165
0.756814 0.1 0.7875 0.00368607
0.67013 0.1 -0.8625 0.00368882
0.67013 0.1 0.8625 0.00369228
0.797314 0.1 -0.75 0.00367994
0.797314 0.1 0.75 0.00368511
0.623803 0.1 0.9 0.00369728
0.835106 0.1 -0.7125 0.00367887
0.835106 0.1 0.7125 0.00368447
0.623803 0.1 -0.903998 0.00369382
0.574156 0.1 0.9375 0.00370275
0.574156 0.1 -0.9375 0.00369944
1.02149 0.1 -0.406591 0.00370179
1.02149 0.1 0.406591 0.00370821
1.08012 0.1 -0.212982 0.00372793
1.08012 0.1 0.212982 0.00373297
1.10076 0.1 -0.0349809 0.00374095
1.10076 0.1 0.0349809 0.003742
0.871687 0.1 -0.675 0.00367925
0.871687 0.1 0.675 0.00368565
1.04168 0.1 -0.364581 0.00370824
1.04168 0.1 0.364581 0.00371498
1.10076 0.1 -0.104943 0.0037387
1.10076 0.1 0.104943 0.00374173
0.522865 0.1 0.975 0.00370928
0.522865 0.1 -0.975 0.00370568
1.0579 0.1 -0.324472 0.00371451
1.0579 0.1 0.324472 0.00372131
0 0.1 -1.10701 0.00375
0 0.1 1.10701 0.00375
0.0363518 0.1 1.10701 0.00375095
0.0363518 0.1 -1.10701 0.00375003
0.90582 0.1 0.6375 0.00368719
0.905821 0.1 -0.6375 0.00368025
0.219992 0.1 1.0875 0.00374289
0.219992 0.1 -1.0875 0.00373981
0.93886 0.1 0.6 0.00369109
0.93886 0.1 -0.6 0.0036833
1.10076 0.1 -0.174905 0.00373521
1.10076 0.1 0.174905 0.00374009
0.467897 0.1 1.0125 0.00371612
0.467897 0.1 -1.0125 0.0037124
1.08012 0.1 -0.283976 0.00372233
1.08012 0.1 0.283976 0.00372942
1.11928 0.1 3.93204e-18 0.00374677
0.990306 0.1 -0.525 0.00368891
0.990306 0.1 0.525 0.00369685
0.96969 0.1 -0.5625 0.00368685
0.969689 0.1 0.5625 0.00369542
1.11928 0.1 -0.0690357 0.00374501
1.11928 0.1 0.0690357 0.00374727
0 0.1 1.125 0.00375
0 0.1 -1.125 0.00375
0.411108 0.1 -1.05 0.00371923
0.411108 0.1 1.05 0.00372297
1.10076 0.1 0.244866 0.00373717
1.10076 0.1 -0.244866 0.00373018
1.11928 0.1 -0.138072 0.00374198
1.11928 0.1 0.138072 0.00374644
1.02149 0.1 0.480517 0.00370367
1.02149 0.1 -0.480517 0.00369482
1.0579 0.1 -0.396577 0.0037074
1.0579 0.1 0.396577 0.00371661
1.04168 0.1 -0.437497 0.00370113
1.04168 0.1 0.437497 0.00371024
0.150379 0.1 1.125 0.00374718
0.150379 0.1 -1.125 0.00374475
0.714971 0.1 0.88201 0.00368673
1.08012 0.1 0.354971 0.00372496
1.08012 0.1 -0.354971 0.00371538
1.11928 0.1 -0.207107 0.00373751
1.11928 0.1 0.207107 0.00374425
0.350249 0.1 -1.0875 0.00372651
0.350249 0.1 1.0875 0.0037301
0 0.1 1.14299 0.00375
0 0.1 -1.14299 0.00375
0.0363518 0.1 1.14299 0.00375097
0.0363518 0.1 -1.14299 0.00375012
1.14316 0.1 -0.0339211 0.00375326
1.14316 0.1 0.0339211 0.00375457
0.797314 0.1 0.821002 0.00368359
1.10076 0.1 -0.314829 0.00372342
1.10076 0.1 0.314829 0.00373309
0.797314 0.1 -0.825 0.00367682
0.756814 0.1 -0.8625 0.0036792
0.756814 0.1 0.8625 0.00368478
1.14316 0.1 -0.101763 0.00375069
1.14316 0.1 0.101763 0.00375458
0.835106 0.1 -0.7875 0.00367504
0.835106 0.1 0.7875 0.00368256
0.871687 0.1 -0.75 0.0036747
0.871687 0.1 0.75 0.00368341
0.67013 0.1 0.9375 0.00369179
0.67013 0.1 -0.9375 0.00368746
0.90582 0.1 -0.7125 0.00367498
0.905821 0.1 0.7125 0.00368462
0.714971 0.1 -0.903998 0.00368312
1.11928 0.1 0.276143 0.00374082
1.11928 0.1 -0.276143 0.00373139
1.14316 0.1 0.169605 0.00375322
1.14316 0.1 -0.169605 0.00374673
0.93886 0.1 -0.675 0.00367738
0.93886 0.1 0.675 0.00368808
1.15704 0.1 0 0.00375835
1.0579 0.1 0.468682 0.00371157
1.0579 0.1 -0.468682 0.00369984
0.623803 0.1 0.975 0.00369714
0.623803 0.1 -0.975 0.00369289
0.990306 0.1 0.6 0.00369303
0.990306 0.1 -0.6 0.00368212
1.15704 0.1 -0.0671479 0.00375633
1.15704 0.1 0.0671479 0.00375908
1.04168 0.1 -0.510414 0.00369376
1.04168 0.1 0.510414 0.00370541
0.969689 0.1 -0.6375 0.00368027
0.969689 0.1 0.6375 0.00369182
1.08012 0.1 0.425965 0.00371989
1.08012 0.1 -0.425965 0.00370769
0.287374 0.1 -1.125 0.00373309
0.287374 0.1 1.125 0.00373642
1.02149 0.1 -0.554443 0.00368765
1.02149 0.1 0.554443 0.00369925
0.574156 0.1 1.0125 0.00370294
0.574156 0.1 -1.0125 0.00369881
1.15704 0.1 -0.134296 0.00375296
1.15704 0.1 0.134296 0.00375847
0.075776 0.1 1.1625 0.00375165
0.075776 0.1 -1.1625 0.00374991
1.10076 0.1 -0.384791 0.00371567
1.10076 0.1 0.384791 0.00372814
1.14316 0.1 -0.237448 0.00374116
1.14316 0.1 0.237448 0.00375053
1.11928 0.1 -0.345179 0.00372391
1.11928 0.1 0.345179 0.00373632
0.522865 0.1 1.05 0.00370951
0.522865 0.1 -1.05 0.00370526
1.15704 0.1 -0.201444 0.00374807
1.15704 0.1 0.201444 0.00375651
1.1744 0.1 -0.0331401 0.00376262
1.1744 0.1 0.0331401 0.00376406
1.1744 0.1 -0.0994202 0.00375987
1.1744 0.1 0.0994202 0.00376422
0 0.1 1.18201 0.00375
0 0.1 -1.18201 0.00375
0.0363518 0.1 1.18201 0.00375097
0.0363518 0.1 -1.18201 0.00375012
0.219992 0.1 1.1625 0.00374295
0.219993 0.1 -1.1625 0.00373999
1.14316 0.1 0.30529 0.00374661
1.14316 0.1 -0.30529 0.00373391
0.467897 0.1 1.0875 0.00371638
0.467897 0.1 -1.0875 0.00371221
1.1744 0.1 -0.1657 0.00375567
1.1744 0.1 0.1657 0.00376304
1.15704 0.1 -0.268592 0.00374149
1.15704 0.1 0.268592 0.00375324
1.0579 0.1 0.540787 0.00370647
1.0579 0.1 -0.540787 0.00369219
0.796996 0.1 0.88201 0.00368213
1.08012 0.1 -0.496959 0.00369978
1.08012 0.1 0.496959 0.00371451
1.10076 0.1 0.454752 0.00372264
1.10076 0.1 -0.454752 0.00370744
1.11928 0.1 -0.414214 0.00371571
1.11928 0.1 0.414214 0.00373102
1.04168 0.1 -0.58333 0.00368601
1.04168 0.1 0.58333 0.00370054
1.1744 0.1 -0.231981 0.00374982
1.1744 0.1 0.231981 0.00376051
0.871687 0.1 0.821002 0.00368089
0.411108 0.1 1.125 0.00372318
0.411108 0.1 -1.125 0.00371918
1.19808 0.1 1.73472e-17 0.00377241
0.990306 0.1 0.675 0.00368907
0.990306 0.1 -0.675 0.00367516
1.02149 0.1 0.628368 0.00369467
1.02149 0.1 -0.628368 0.00368004
1.19808 0.1 -0.0650961 0.00377009
1.19808 0.1 0.0650961 0.00377338
0 0.1 1.2 0.00375
0 0.1 -1.2 0.00375
0.871687 0.1 -0.825 0.00367026
0.905821 0.1 -0.7875 0.00366972
0.90582 0.1 0.7875 0.00368164
0.835106 0.1 -0.8625 0.00367135
0.835106 0.1 0.8625 0.00368027
0.93886 0.1 -0.75 0.00367147
0.93886 0.1 0.75 0.00368481
1.14316 0.1 -0.373132 0.0037257
1.14316 0.1 0.373132 0.00374163
0.969689 0.1 0.7125 0.0036882
0.969689 0.1 -0.7125 0.00367367
1.15704 0.1 -0.33574 0.00373359
1.15704 0.1 0.33574 0.00374879
0.756813 0.1 0.9375 0.00368344
0.756814 0.1 -0.9375 0.00367681
1.19808 0.1 0.130192 0.00377304
1.19808 0.1 -0.130192 0.00376634
0.797314 0.1 -0.903998 0.003674
0.714971 0.1 0.975 0.00368715
0.714971 0.1 -0.975 0.00368121
0.150379 0.1 1.2 0.00374719
0.150379 0.1 -1.2 0.0037449
1.20938 0.1 -0.0322656 0.00377491
1.20938 0.1 0.0322656 0.00377659
1.1744 0.1 -0.298261 0.00374229
1.1744 0.1 0.298261 0.00375671
1.20938 0.1 -0.0967968 0.00377182
1.20938 0.1 0.0967968 0.00377696
1.19808 0.1 -0.195288 0.00376102
1.19808 0.1 0.195288 0.00377134
0.350249 0.1 1.1625 0.00373024
0.350249 0.1 -1.1625 0.0037266
0.67013 0.1 1.0125 0.00369135
0.67013 0.1 -1.0125 0.00368614
0 0.1 1.21799 0.00375
0 0.1 -1.21799 0.00375
0.0363518 0.1 -1.21799 0.00375019
0.0363518 0.1 1.21799 0.00375096
1.11928 0.1 -0.48325 0.0037073
1.11928 0.1 0.48325 0.0037252
1.10076 0.1 -0.524714 0.00369929
1.10076 0.1 0.524714 0.00371685
1.20938 0.1 0.161328 0.00377601
1.20938 0.1 -0.161328 0.00376725
1.08012 0.1 0.567953 0.00370899
1.08012 0.1 -0.567953 0.0036914
0.623803 0.1 1.05 0.00369699
0.623803 0.1 -1.05 0.00369187
1.0579 0.1 -0.612892 0.00368384
1.0579 0.1 0.612892 0.00370126
1.15704 0.1 -0.402888 0.00372496
1.15704 0.1 0.402888 0.00374336
1.14316 0.1 0.440974 0.00373588
1.14316 0.1 -0.440974 0.00371699
1.19808 0.1 -0.260384 0.00375405
1.19808 0.1 0.260384 0.00376831
1.2267 0.1 3.57064e-18 0.00378322
1.2267 0.1 -0.0636649 0.00378061
1.2267 0.1 0.0636649 0.00378442
1.1744 0.1 -0.364541 0.00373382
1.1744 0.1 0.364541 0.00375177
0.574156 0.1 1.0875 0.00370302
0.574156 0.1 -1.0875 0.00369807
1.20938 0.1 0.225859 0.00377369
1.20938 0.1 -0.225859 0.00376102
1.04168 0.1 -0.656246 0.00367789
1.04168 0.1 0.656246 0.00369553
1.2267 0.1 -0.12733 0.00377653
1.2267 0.1 0.12733 0.00378428
0.287374 0.1 1.2 0.00373645
0.287374 0.1 -1.2 0.00373318
1.02149 0.1 -0.702294 0.00367231
1.02149 0.1 0.702294 0.00369001
0.075776 0.1 -1.2375 0.00375005
0.075776 0.1 1.2375 0.00375164
0.871399 0.1 0.88201 0.00367857
0.522865 0.1 1.125 0.0037096
0.522865 0.1 -1.125 0.00370477
1.2267 0.1 -0.190994 0.00377089
1.2267 0.1 0.190994 0.00378278
1.19808 0.1 -0.32548 0.00374581
1.19808 0.1 0.32548 0.00376402
0.990306 0.1 -0.75 0.00366827
0.990306 0.1 0.75 0.00368502
1.24274 0.1 -0.0314313 0.0037882
1.24274 0.1 0.0314313 0.00379021
1.20938 0.1 -0.29039 0.00375318
1.20938 0.1 0.29039 0.00377007
1.24274 0.1 -0.0942942 0.00378467
1.24274 0.1 0.0942942 0.00379084
0.93886 0.1 0.821002 0.00368129
1.11928 0.1 -0.552285 0.00369825
1.11928 0.1 0.552285 0.00371909
1.15704 0.1 -0.470036 0.00371611
1.15704 0.1 0.470036 0.00373722
0.969689 0.1 -0.7875 0.00366721
0.96969 0.1 0.7875 0.00368431
0.93886 0.1 -0.825 0.00366571
0.90582 0.1 0.8625 0.00367817
0.905821 0.1 -0.8625 0.00366479
1.1744 0.1 -0.430821 0.00372484
1.1744 0.1 0.430821 0.00374592
1.10076 0.1 -0.594676 0.00369
1.10076 0.1 0.594676 0.00371093
1.14316 0.1 -0.508816 0.00370821
1.14316 0.1 0.508816 0.0037296
1.24274 0.1 -0.157157 0.00377969
1.24274 0.1 0.157157 0.00379015
1.2267 0.1 -0.254659 0.00376366
1.2267 0.1 0.254659 0.00377993
0.467897 0.1 1.1625 0.00371648
0.467897 0.1 -1.1625 0.00371196
1.08012 0.1 0.638947 0.00370331
1.08012 0.1 -0.638947 0.00368245
1.25511 0.1 -5.78241e-19 0.00379539
0.835106 0.1 -0.9375 0.0036678
0.835106 0.1 0.9375 0.00367787
0.871687 0.1 -0.903998 0.00366637
1.25511 0.1 0.0622446 0.00379694
1.25511 0.1 -0.0622446 0.00379234
0.219992 0.1 1.2375 0.0037429
0.219992 0.1 -1.2375 0.00374009
0 0.1 -1.25701 0.00375
0 0.1 1.25701 0.00375
0.0363518 0.1 -1.25701 0.00375019
0.0363518 0.1 1.25701 0.00375096
0.797314 0.1 0.975 0.00367975
0.797314 0.1 -0.975 0.00367092
1.19808 0.1 -0.390576 0.00373686
1.19808 0.1 0.390576 0.0037586
1.0579 0.1 -0.684997 0.00367532
1.0579 0.1 0.684997 0.0036959
1.20938 0.1 -0.354921 0.00374444
1.20938 0.1 0.354921 0.00376521
1.25511 0.1 0.124489 0.00379709
1.25511 0.1 -0.124489 0.0037878
1.24274 0.1 -0.220019 0.00377306
1.24274 0.1 0.220019 0.00378808
0.756813 0.1 1.0125 0.00368211
0.756814 0.1 -1.0125 0.0036746
1.2267 0.1 -0.318324 0.00375521
1.2267 0.1 0.318324 0.00377576
0.411108 0.1 1.2 0.00372319
0.411108 0.1 -1.2 0.00371906
1.25511 0.1 -0.186734 0.00378173
1.25511 0.1 0.186734 0.00379586
0.714971 0.1 1.05 0.0036863
0.714971 0.1 -1.05 0.00367945
1.04168 0.1 -0.729162 0.00366974
1.04168 0.1 0.729162 0.0036905
1.24274 0.1 0.282882 0.00378463
1.24274 0.1 -0.282882 0.00376495
0 0.1 1.275 0.00375
0 0.1 -1.275 0.00375
1.1744 0.1 0.497102 0.0037394
1.1744 0.1 -0.497102 0.00371587
1.15704 0.1 -0.537184 0.00370645
1.15704 0.1 0.537184 0.00373061
1.2756 0.1 -0.03061 0.00380371
1.2756 0.1 0.03061 0.00380631
0.67013 0.1 1.0875 0.00369092
0.67013 0.1 -1.0875 0.00368479
1.2756 0.1 -0.09183 0.00379953
1.2756 0.1 0.09183 0.00380738
1.25511 0.1 -0.248978 0.00377414
1.25511 0.1 0.248978 0.00379321
1.20938 0.1 0.419453 0.00375928
1.20938 0.1 -0.419453 0.00373517
1.11928 0.1 -0.621322 0.00368842
1.11928 0.1 0.621322 0.00371276
1.14316 0.1 -0.576659 0.00369807
1.14316 0.1 0.576659 0.00372304
1.19808 0.1 -0.455673 0.00372757
1.19808 0.1 0.455673 0.00375228
1.02149 0.1 0.776219 0.00368534
1.02149 0.1 -0.776219 0.00366474
0.150379 0.1 1.275 0.00374712
0.150379 0.1 -1.275 0.00374499
1.2756 0.1 -0.15305 0.00379396
1.2756 0.1 0.15305 0.00380707
1.2267 0.1 -0.381989 0.00374604
1.2267 0.1 0.381989 0.00377037
1.10076 0.1 -0.664638 0.00368046