# kMean  POINT_DATA 91129
# x  y  z  kMean
0 0 0 0.00541776
0 0.00368111 0 0.00375
0 0.00749587 0 0.00375
0 0.0114491 0 0.00375
0 0.0155459 0 0.00375
0 0.0197915 0 0.00375
0 0.0241911 0 0.00375
0 0.0287506 0 0.00375
0 0.0334755 0 0.00375
0 0.038372 0 0.00375
0 0.0434463 0 0.00375
0 0.0487048 0 0.00375
0 0.0541543 0 0.00375
0 0.0598016 0 0.00375
0 0.0656539 0 0.00375
0 0.0717187 0 0.00375
0.075776 0.00184055 0 0.00917335
0.075776 0.00558849 0 0.00326421
0.075776 0.00947248 -3.46945e-18 0.00301355
0.075776 0.0134975 -3.46945e-18 0.00340004
0.075776 0.0176687 3.46945e-18 0.0035725
0 0.0780037 0 0.00375
0.075776 0.0219913 3.46945e-18 0.00364115
0.075776 0.0264709 3.46945e-18 0.0036761
0.075776 0.031113 -3.46945e-18 0.00369618
0.075776 0.0359237 -3.46945e-18 0.00370892
0 0.0845169 0 0.00375
0.075776 0.0409092 0 0.0037176
0.075776 0.0460755 -3.46945e-18 0.00372383
0 0.0912666 0 0.00375
0.075776 0.0514296 -3.46945e-18 0.00372848
0.075776 0.0569779 0 0.00373206
0 0.0982613 0 0.00375
0.075776 0.0627278 0 0.00373488
0.075776 0.0686863 0 0.00373715
0 0.10551 0 0.00375
0.075776 0.0748612 3.46945e-18 0.00373904
0.075776 0.0812603 -3.46945e-18 0.00374066
0 0.113022 0 0.00375
0.075776 0.0878918 3.46945e-18 0.00374206
0 0.120806 0 0.00375
0.075776 0.0947639 3.46945e-18 0.00374325
0.075776 0.101886 -3.46945e-18 0.00374427
0 0.128874 0 0.00375
0.075776 0.109266 3.46945e-18 0.00374513
0 0.137234 0 0.00375
0.075776 0.116914 3.46945e-18 0.00374587
0 0.145897 0 0.00375
0.075776 0.12484 0 0.00374649
0.151552 0 0 0.00565468
0.151552 0.00368111 0 0.00401169
0.151552 0.00749587 0 0.00253399
0.151552 0.0114491 0 0.00294849
0.151552 0.0155459 0 0.00330865
0.151552 0.0197915 0 0.00347223
0.075776 0.133054 0 0.00374703
0.151552 0.0241911 0 0.00355655
0.151552 0.0287506 0 0.00360884
0 0.154876 0 0.00375
0.151552 0.0334755 0 0.00364323
0.151552 0.038372 0 0.00366684
0.151552 0.0434463 0 0.00368368
0.151552 0.0487048 0 0.0036961
0.075776 0.141566 0 0.0037475
0.151552 0.0541543 0 0.00370553
0.151552 0.0598016 0 0.00371287
0 0.16418 0 0.00375
0.151552 0.0656539 0 0.00371871
0.151552 0.0717187 0 0.00372346
0.075776 0.150387 0 0.00374794
0.151552 0.0780037 0 0.00372738
0.151552 0.0845169 0 0.00373067
0 0.173822 0 0.00375
0.075776 0.159528 0 0.00374836
0.151552 0.0912666 0 0.00373345
0.151552 0.0982613 0 0.00373581
0 0.183814 0 0.00375
0.151552 0.10551 0 0.00373782
0.075776 0.169001 3.46945e-18 0.00374876
0.151552 0.113022 0 0.00373955
0.151552 0.120806 0 0.00374104
0 0.194169 0 0.00375
0.075776 0.178818 3.46945e-18 0.00374916
0.151552 0.128874 0 0.00374233
0.075776 0.188992 3.46945e-18 0.00374955
0.151552 0.137234 0 0.00374347
0 0.2049 0 0.00375
0.151552 0.145897 0 0.00374448
0.075776 0.199535 0 0.00374995
0 0.21602 0 0.00375
0.151552 0.154876 0 0.00374539
0.219992 0.00184055 0 0.00240679
0.219992 0.00558849 0 0.00154189
0.219992 0.00947248 -3.46945e-18 0.00240935
0.219992 0.0134975 3.46945e-18 0.00301075
0.219992 0.0176687 0 0.00327864
0.219992 0.0219913 0 0.00341735
0.219993 0.0264709 -3.46945e-18 0.0035073
0.219992 0.031113 -3.46945e-18 0.00356768
0.219992 0.0359238 3.46945e-18 0.00360925
0.151552 0.16418 0 0.00374621
0.075776 0.21046 0 0.00375033
0.219992 0.0409092 3.46945e-18 0.00363872
0.219992 0.0460755 0 0.00366025
0.219993 0.0514296 -3.46945e-18 0.00367644
0.219992 0.0569779 0 0.00368893
0 0.227544 0 0.00375
0.219992 0.0627277 3.46945e-18 0.00369878
0.219992 0.0686863 0 0.00370671
0.151552 0.173822 0 0.00374698
0.219992 0.0748612 3.46945e-18 0.00371319
0.075776 0.221782 0 0.0037507
0.219992 0.0812603 3.46945e-18 0.00371856
0.219992 0.0878917 -3.46945e-18 0.00372305
0.151552 0.183814 0 0.00374768
7.47806e-17 0.239487 0 0.00375
0.219992 0.0947639 3.46945e-18 0.00372685
0.219993 0.101886 3.46945e-18 0.00373008
0.075776 0.233516 0 0.00375104
0.219993 0.109266 0 0.00373285
0.151552 0.194169 0 0.00374834
0.219993 0.116914 0 0.00373525
0 0.251863 0 0.00375
0.219993 0.12484 0 0.00373733
0.151552 0.2049 0 0.00374897
0.075776 0.245675 0 0.00375132
0.219992 0.133054 3.46945e-18 0.00373916
0.219992 0.141565 0 0.00374077
0.151552 0.21602 0 0.00374956
0 0.264688 0 0.00375
0.219992 0.150387 3.46945e-18 0.0037422
0.075776 0.258275 3.46945e-18 0.00375156
0.219992 0.159528 -3.46945e-18 0.00374347
0.151552 0.227544 0 0.00375011
0.219992 0.169001 3.46945e-18 0.00374462
0 0.27798 0 0.00375
0.075776 0.271334 3.46945e-18 0.00375174
0.151552 0.239487 3.70071e-18 0.00375062
0.219992 0.178818 3.46945e-18 0.00374566
0.288433 0 0 0.00164128
0.288433 0.00368111 0 0.00144307
0.288433 0.00749587 0 0.00180082
0.288433 0.0114491 0 0.0026718
0.288433 0.0155459 3.70071e-18 0.00311899
0.288433 0.0197915 0 0.00330908
0.288433 0.0241911 3.70071e-18 0.00340753
0.288433 0.0287506 0 0.0034801
0.219992 0.188991 0 0.00374661
0.288433 0.0334755 0 0.0035365
0.288433 0.038372 0 0.00357934
0.288433 0.0434463 0 0.00361189
7.47806e-17 0.291753 0 0.00375
0.288433 0.0487048 0 0.00363691
0.288433 0.0541543 0 0.00365643
0.151552 0.251863 0 0.00375108
0.288433 0.0598016 3.70071e-18 0.0036719
0.075776 0.284866 0 0.00375185
0.288433 0.0656539 3.70071e-18 0.00368435
0.219992 0.199534 0 0.00374748
0.288433 0.0717187 0 0.0036945
0.288433 0.0780037 0 0.00370287
0.288433 0.0845169 0 0.00370983
0.288433 0.0912666 0 0.00371564
0.219992 0.21046 -3.46945e-18 0.00374829
0.288433 0.0982613 0 0.0037206
0.151552 0.264688 3.70071e-18 0.00375149
0 0.306027 0 0.00375
0.288433 0.10551 0 0.00372496
0.075776 0.29889 3.46945e-18 0.00375188
0.288433 0.113022 0 0.00372884
0.219993 0.221782 0 0.00374906
0.288433 0.120806 0 0.00373224
0.288433 0.128874 0 0.00373525
0.151552 0.27798 0 0.00375183
0.288433 0.137234 0 0.00373792
0 0.320819 0 0.00375
0.219992 0.233515 -3.46945e-18 0.00374977
0.075776 0.313423 -3.46945e-18 0.00375184
0.288433 0.145897 0 0.00374029
0.288433 0.154876 0 0.00374239
0.151552 0.291753 0 0.00375212
0.219993 0.245675 0 0.00375044
0.288433 0.16418 0 0.00374425
0 0.336148 0 0.00375
0.288433 0.173822 0 0.0037459
0.075776 0.328484 -3.46945e-18 0.00375177
0.219993 0.258275 -3.46945e-18 0.00375105
0.151552 0.306027 0 0.00375234
0.288433 0.183814 0 0.00374735
0.288433 0.194169 0 0.00374863
0.219992 0.271334 3.46945e-18 0.00375162
0.350249 0.00184056 -3.46945e-18 0.000932056
0.350249 0.00558849 0 0.000969641
0.350249 0.00947248 3.46945e-18 0.00230811
0.350249 0.0134975 0 0.00296463
0.350249 0.0176687 0 0.00322574
0.350249 0.0219913 0 0.00332032
0.350249 0.0264708 3.46945e-18 0.00339321
0.350249 0.031113 0 0.00346065
0 0.352034 0 0.00375
0.350249 0.0359238 0 0.00351607
0.075776 0.344091 0 0.0037517
0.350249 0.0409091 0 0.00355988
0.350249 0.0460756 3.46945e-18 0.00359425
0.288433 0.2049 0 0.00374975
0.350249 0.0514296 0 0.00362133
0.151552 0.320819 0 0.00375251
0.350249 0.0569779 0 0.00364289
0.350249 0.0627277 3.46945e-18 0.00366025
0.350249 0.0686863 3.46945e-18 0.00367438
0.350249 0.0748612 3.46945e-18 0.00368601
0.350249 0.0812603 0 0.00369565
0.219992 0.284867 0 0.00375212
0.288433 0.21602 0 0.00375076
0.350249 0.0878917 0 0.00370367
0.350249 0.094764 0 0.00371037
0.350249 0.101886 0 0.00371626
0.350249 0.109266 0 0.00372162
0.288433 0.227544 0 0.00375167
0.075776 0.360265 3.46945e-18 0.00375169
0 0.368496 0 0.00375
0.151552 0.336148 0 0.00375265
0.350249 0.116914 3.46945e-18 0.00372639
0.219992 0.29889 0 0.00375258
0.370854 0.0241911 1.54074e-33 0.00337348
0.350249 0.12484 0 0.0037306
0.350249 0.133054 0 0.00373435
0.288433 0.239487 -9.25154e-19 0.00375249
0.350249 0.141566 3.46945e-18 0.0037377
0.350249 0.150387 3.46945e-18 0.00374067
0.288433 0.251863 0 0.00375324
0.219992 0.313423 0 0.00375298
0.151552 0.352034 0 0.0037528
0.075776 0.377027 0 0.00375174
0.350249 0.159528 0 0.00374329
0 0.385557 0 0.00375
0.350249 0.169001 0 0.00374559
0.288433 0.264688 0 0.00375391
0.350249 0.178818 0 0.00374761
0.219992 0.328484 0 0.00375333
0.350249 0.188992 0 0.00374934
0.151552 0.368496 0 0.00375298
0.288433 0.27798 3.70071e-18 0.00375454
0.075776 0.394397 0 0.00375185
0.350249 0.199535 0 0.00375083
7.47806e-17 0.403236 0 0.00375
0.219992 0.344091 0 0.00375365
0.350249 0.21046 -3.46945e-18 0.00375213
0.288433 0.291753 0 0.00375513
0.412065 9.08189e-19 3.08149e-33 0.000786817
0.412065 0.00368111 -2.31298e-18 0.000861285
0.412065 0.00749587 -2.31298e-18 0.0016766
0.412065 0.0114491 -2.31298e-18 0.00275112
0.412065 0.0155459 -2.31298e-18 0.0031834
0.412065 0.0197915 0 0.00331005
0.412065 0.0241911 -3.08149e-33 0.00335646
0.412065 0.0264709 0 0.00337878
0.412065 0.0287506 -2.31298e-18 0.00340109
0.412065 0.0334755 -2.31298e-18 0.00345373
0.412065 0.038372 -2.31298e-18 0.00350317
0.151552 0.385557 0 0.00375321
0.412065 0.0434463 0 0.00354538
0.350249 0.221782 0 0.00375327
0.412065 0.0487048 0 0.00358016
0.412065 0.0541543 -3.08149e-33 0.00360852
0.412065 0.0569779 0 0.00362008
0.412065 0.0598016 -2.31298e-18 0.00363165
0.412065 0.0656539 -2.31298e-18 0.00365059
0.412065 0.0717187 -2.31298e-18 0.00366618
0.075776 0.412396 -3.46945e-18 0.00375194
0.412065 0.0780037 -2.31298e-18 0.00367908
0.288433 0.306027 0 0.0037557
0.412065 0.0845169 -2.31298e-18 0.00368982
0.350249 0.233516 3.46945e-18 0.00375426
0 0.421557 0 0.00375
0.412065 0.0912666 -2.31298e-18 0.00369894
0.219992 0.360265 3.46945e-18 0.00375398
0.412065 0.0982613 0 0.00370699
0.412065 0.10551 0 0.00371429
0.412065 0.113022 -2.31298e-18 0.0037209
0.350249 0.245675 0 0.00375515
0.412065 0.120806 0 0.00372682
0.151552 0.403236 0 0.00375346
0.288433 0.320819 0 0.00375625
0.412065 0.128874 -2.31298e-18 0.00373211
0.412065 0.137234 0 0.00373682
0.350249 0.258275 -3.46945e-18 0.00375594
0.219992 0.377026 0 0.00375433
0.412065 0.145897 -2.31298e-18 0.00374099
0.075776 0.431051 0 0.003752
0.412065 0.154876 -2.31298e-18 0.00374467
0 0.440544 0 0.00375
0.288433 0.336148 0 0.00375678
0.350249 0.271334 0 0.00375667
0.412065 0.16418 -2.31298e-18 0.00374788
0.412065 0.173822 -2.31298e-18 0.00375066
0.151552 0.421557 0 0.0037537
0.412065 0.183814 -2.31298e-18 0.00375307
0.350249 0.284867 3.46945e-18 0.00375737
0.219992 0.394397 0 0.00375471
0.288433 0.352034 3.70071e-18 0.00375729
0.412065 0.194169 0 0.00375516
0.075776 0.450382 0 0.00375203
0.412065 0.2049 -2.31298e-18 0.00375695
0 0.46022 0 0.00375
0.350249 0.29889 3.46945e-18 0.00375806
0.412065 0.21602 0 0.00375849
0.151552 0.440544 0 0.00375392
0.219993 0.412396 3.46945e-18 0.00375511
0.467897 0.00184056 -3.46945e-18 0.000651712
0.467897 0.00558849 0 0.000904226
0.288433 0.368496 0 0.00375781
0.467897 0.00947248 0 0.00251918
0.467897 0.0134975 0 0.00319659
0.467897 0.0176687 3.46945e-18 0.00333436
0.467897 0.0219913 -3.46945e-18 0.00335462
0.467897 0.0264709 3.46945e-18 0.00335773
0.467897 0.0311131 3.46945e-18 0.0033964
0.467897 0.0359238 -3.46945e-18 0.00344665
0.467897 0.038372 0 0.00347594
0.467897 0.0409092 3.46945e-18 0.00349493
0.350249 0.313423 0 0.00375877
0.467897 0.0460755 0 0.00353688
0.467897 0.0514296 3.46945e-18 0.00357203
0.412065 0.227544 -2.31298e-18 0.00375981
0.467897 0.0569779 0 0.00360112
0.467897 0.0627277 -3.46945e-18 0.00362512
0.467897 0.0686863 3.46945e-18 0.00364495
0.467897 0.0748612 0 0.00366135
0.467897 0.0812603 0 0.00367496
0.467897 0.0878918 3.46945e-18 0.00368638
0.075776 0.470415 3.46945e-18 0.00375205
0.412065 0.239487 -2.31298e-18 0.00376095
0.467897 0.0947639 -3.46945e-18 0.00369646
0.467897 0.101886 3.46945e-18 0.00370573
0.350249 0.328483 0 0.00375948
0.467897 0.109266 0 0.00371418
0 0.48061 0 0.00375
0.288433 0.385557 0 0.00375834
0.467897 0.116914 0 0.00372183
0.412065 0.251863 -2.31298e-18 0.00376195
0.219992 0.431051 0 0.0037555
0.467897 0.12484 0 0.0037287
0.151552 0.46022 0 0.00375413
0.467897 0.133054 3.46945e-18 0.00373484
0.467897 0.141566 3.46945e-18 0.00374028
0.412065 0.264688 -2.31298e-18 0.00376283
0.350249 0.344091 -3.46945e-18 0.00376017
0.467897 0.150387 3.46945e-18 0.00374507
0.467897 0.154876 0 0.00374872
0.467897 0.159528 3.46945e-18 0.00374926
0.288433 0.403236 0 0.00375888
0.075776 0.491175 0 0.00375208
0.412065 0.27798 -2.31298e-18 0.00376364
0.467897 0.169001 0 0.00375288
0.467897 0.178818 3.46945e-18 0.00375599
0.219992 0.450382 0 0.00375588
6.73026e-17 0.501741 3.70071e-18 0.00375
0.350249 0.360265 0 0.00376086
0.151552 0.48061 0 0.00375431
0.467897 0.188991 0 0.0037587
0.412065 0.291753 0 0.00376441
0.467897 0.199535 0 0.00376104
0.288433 0.421557 0 0.00375942
0.467897 0.21046 0 0.00376304
0.412065 0.306027 0 0.00376516
0.350249 0.377027 0 0.00376154
0.467897 0.221782 3.46945e-18 0.00376472
0.075776 0.51269 0 0.00375211
0.219993 0.470415 3.46945e-18 0.00375623
0.467897 0.227544 0 0.00376732
0.412065 0.320819 -2.31298e-18 0.0037659
0.467897 0.233515 0 0.00376616
6.73026e-17 0.523639 3.70071e-18 0.00375
0.523729 0 0 0.000575235
0.523729 0.00368111 0 0.000729619
0.523729 0.00749587 -2.31298e-18 0.00177321
0.523729 0.0114491 0 0.00303415
0.523729 0.0155459 0 0.00343957
0.523729 0.0197915 -2.31298e-18 0.00344807
0.151552 0.501741 0 0.00375449
0.523729 0.0241911 0 0.00340158
0.523729 0.0287506 0 0.00338497
0.523729 0.0334755 0 0.00340809
0.523729 0.038372 -3.08149e-33 0.00344872
0.523729 0.0434463 0 0.00349212
0.523729 0.0487048 0 0.00353198
0.523729 0.0541543 0 0.00356656
0.288433 0.440544 0 0.00375996
0.523729 0.0598016 0 0.00359587
0.350249 0.394397 -3.46945e-18 0.00376222
0.523729 0.0656539 0 0.00362048
0.467897 0.245675 0 0.00376738
0.523729 0.0717187 0 0.00364104
0.523729 0.0780037 0 0.00365817
0.523729 0.0845169 0 0.00367265
0.523729 0.0912666 0 0.0036854
0.412065 0.336148 0 0.00376664
0.523729 0.0982613 0 0.00369704
0.523729 0.10551 -2.31298e-18 0.00370771
0.467897 0.258275 -3.46945e-18 0.00376844
0.523729 0.113022 0 0.00371741
0.523729 0.120806 -3.08149e-33 0.00372618
0.219993 0.491176 0 0.00375655
0.523729 0.12484 0 0.00373012
0.523729 0.128874 -2.31298e-18 0.00373406
0.075776 0.534986 0 0.00375214
0.467897 0.271334 3.46945e-18 0.00376938
0.350249 0.412396 -3.46945e-18 0.0037629
0.523729 0.137234 0 0.00374109
0.412065 0.352034 -2.31298e-18 0.00376738
0.288433 0.46022 0 0.00376047
0.523729 0.145897 0 0.00374732
0.151552 0.523639 0 0.00375466
0.523729 0.154876 -3.08149e-33 0.00375278
0 0.546332 0 0.00375
0.523729 0.159528 0 0.00375516
0.467897 0.284867 -3.46945e-18 0.00377024
0.523729 0.16418 -2.31298e-18 0.00375754
0.523729 0.173822 0 0.00376165
0.412065 0.368496 0 0.0037681
0.523729 0.183814 0 0.00376519
0.467897 0.29889 0 0.00377104
0.350249 0.431051 -3.46945e-18 0.00376358
0.219992 0.51269 0 0.00375685
0.523729 0.194169 0 0.00376822
0.288433 0.48061 0 0.00376096
0.523729 0.2049 0 0.00377081
0.467897 0.313423 3.46945e-18 0.00377183
0.075776 0.558091 0 0.00375219
0.412065 0.385557 0 0.00376883
0.523729 0.21602 -3.08149e-33 0.00377299
0.151552 0.546332 0 0.00375483
0 0.569849 0 0.00375
0.350249 0.450382 3.46945e-18 0.00376425
0.523729 0.227544 -3.08149e-33 0.00377482
0.467897 0.328483 0 0.0037726
0.523729 0.231525 1.54074e-33 0.00377533
0.574156 0.00184056 0 0.000503778
0.574156 0.00558849 0 0.000865113
0.574157 0.00947248 0 0.0027963
0.574156 0.0134975 -3.46945e-18 0.00360143
0.574156 0.0176687 -3.46945e-18 0.00360307
0.574156 0.0219913 0 0.00348664
0.574156 0.0264708 -3.46945e-18 0.00340135
0.574156 0.031113 0 0.00338337
0.574156 0.0359238 -3.46945e-18 0.00340769
0.574157 0.0409092 0 0.0034485
0.523729 0.239487 3.70071e-18 0.00377636
0.574156 0.0460755 -3.46945e-18 0.0034913
0.574156 0.0514295 0 0.00353066
0.412065 0.403236 0 0.00376957
0.574157 0.0569779 0 0.00356506
0.574156 0.0627277 0 0.00359446
0.574156 0.0686863 0 0.0036193
0.219992 0.534986 0 0.00375715
0.288433 0.501741 0 0.00376142
0.574156 0.0748612 3.46945e-18 0.00364015
0.574156 0.0812603 0 0.00365754
0.467897 0.344091 0 0.00377337
0.574156 0.0878917 3.46945e-18 0.00367275
0.523729 0.251863 0 0.00377766
0.574157 0.0947639 0 0.0036868
0.574156 0.101886 0 0.00369972
0.574156 0.109266 0 0.00371151
0.574156 0.116914 0 0.00372221
0.412065 0.416977 -6.16298e-33 0.00377013
0.350249 0.470415 0 0.0037649
0.523729 0.264688 0 0.00377877
0.075776 0.582034 0 0.00375224
0.574156 0.12484 0 0.00373188
0.574156 0.133054 3.46945e-18 0.00374054
0.412065 0.421557 -2.31298e-18 0.00377031
0.151552 0.569849 0 0.003755
0.467897 0.360265 -3.46945e-18 0.00377415
0.574157 0.141566 -3.46945e-18 0.00374825
0.523729 0.27798 0 0.00377974
0.574156 0.150386 3.46945e-18 0.00375506
0 0.594219 0 0.00375
0.574156 0.159528 -3.46945e-18 0.00376101
0.574156 0.16418 0 0.00376505
0.288433 0.523639 1.2326e-32 0.00376185
0.574157 0.169001 0 0.00376617
0.523729 0.291753 0 0.00378061
0.219993 0.558091 3.46945e-18 0.00375743
0.467897 0.377026 0 0.00377492
0.574156 0.178818 3.46945e-18 0.00377061
0.412065 0.440544 -2.31298e-18 0.00377106
0.350249 0.491175 0 0.00376551
0.574156 0.188992 3.46945e-18 0.00377441
0.523729 0.306027 -3.08149e-33 0.00378142
0.574157 0.199535 0 0.00377764
0.574157 0.21046 0 0.00378036
0.075776 0.606847 0 0.0037523
0.467897 0.394397 0 0.00377571
0.151552 0.594219 0 0.00375517
0.523729 0.320819 0 0.00378219
0.574157 0.221782 -3.46945e-18 0.00378264
0.412065 0.46022 3.08149e-33 0.00377179
0.288433 0.546332 0 0.00376226
0 0.619475 0 0.00375
0.574156 0.233515 3.46945e-18 0.00378453
0.350249 0.51269 3.46945e-18 0.00376608
0.219992 0.582034 3.46945e-18 0.00375772
0.523729 0.336148 0 0.00378294
0.467897 0.412396 0 0.0037765
0.574156 0.245675 0 0.00378611
0.624584 0 0 0.000450962
0.624584 0.00368111 0 0.000653867
0.624584 0.00749587 0 0.00189474
0.624584 0.0114491 0 0.00339069
0.624584 0.0155459 0 0.00383392
0.624584 0.0197915 0 0.00371654
0.624584 0.0241911 -2.31298e-18 0.00354098
0.624584 0.0287506 0 0.00343757
0.624584 0.0334755 0 0.00340735
0.624584 0.038372 0 0.00342232
0.624584 0.0434463 -2.31298e-18 0.00345646
0.624584 0.0487048 0 0.00349542
0.624584 0.0541543 0 0.00353277
0.624584 0.0598016 0 0.00356623
0.624584 0.0656539 0 0.00359529
0.624584 0.0717187 0 0.00362008
0.624584 0.0780037 0 0.0036411
0.574157 0.258276 3.46945e-18 0.00378743
0.624584 0.0845169 0 0.00365939
0.523729 0.352034 0 0.00378369
0.624584 0.0912666 0 0.00367603
0.624584 0.0982613 0 0.00369144
0.412065 0.48061 3.08149e-33 0.00377249
0.624584 0.10551 0 0.0037056
0.624584 0.113022 -2.31298e-18 0.00371852
0.574156 0.271334 0 0.00378855
0.624584 0.120806 0 0.00373025
0.467897 0.431051 0 0.00377731
0.075776 0.632561 -3.46945e-18 0.00375236
0.624584 0.128874 0 0.00374082
0.151552 0.619475 0 0.00375534
0.288433 0.569849 0 0.00376265
0.350249 0.534985 0 0.00376661
0.624584 0.137234 -2.31298e-18 0.00375029
0.523729 0.368496 0 0.00378443
0.574156 0.284866 -3.46945e-18 0.00378951
0.624584 0.145897 0 0.0037587
0.467897 0.440544 0 0.0037793
0.624584 0.154876 0 0.0037661
0.219992 0.606847 -3.46945e-18 0.003758
0 0.645647 0 0.00375
0.624584 0.16418 -3.08149e-33 0.00377255
0.574156 0.29889 -3.46945e-18 0.00379036
0.624584 0.173822 0 0.00377814
0.412065 0.501741 1.54074e-33 0.00377315
0.467897 0.450382 -3.46945e-18 0.00377811
0.523729 0.385557 0 0.00378519
0.624584 0.183814 0 0.00378292
0.624584 0.194169 0 0.00378699
0.574156 0.313423 0 0.00379114
0.624584 0.2049 0 0.00379042
0.350249 0.558091 3.46945e-18 0.00376712
0.288433 0.594219 0 0.00376303
0.624584 0.21602 0 0.00379329
0.523729 0.403236 0 0.00378596
0.574156 0.328483 -3.46945e-18 0.00379188
0.151552 0.645647 0 0.00375552
0.467897 0.470415 3.46945e-18 0.0037789
0.075776 0.659208 0 0.00375243
0.624584 0.227544 0 0.00379566
0.412065 0.523639 0 0.00377377
0.523729 0.41545 3.08149e-33 0.00378649
0.624584 0.239487 3.70071e-18 0.00379762
0.574156 0.344091 0 0.00379261
0.219992 0.632561 0 0.00375827
0.67013 0.00184055 0 0.000401377
0.67013 0.00558849 0 0.000848951
0.67013 0.00947248 0 0.00306085
0.67013 0.0134975 0 0.00408076
0.67013 0.0176687 -3.46945e-18 0.00402209
0.67013 0.0219913 0 0.00373338
0.67013 0.0264708 3.46945e-18 0.0035307
0.67013 0.0311131 0 0.00342934
0.67013 0.0359237 0 0.00340755
0.67013 0.0409092 -3.46945e-18 0.00342624
0.67013 0.0460755 0 0.00346145
0.67013 0.0514296 3.46945e-18 0.00350018
0.523729 0.421557 -2.31298e-18 0.00378675
0.67013 0.056978 0 0.00353702
0 0.67277 0 0.00375
0.67013 0.0627277 0 0.00357005
0.624584 0.251863 0 0.00379923
0.67013 0.0686863 0 0.00359877
0.67013 0.0748612 3.46945e-18 0.00362327
0.67013 0.0812603 0 0.0036444
0.67013 0.0878917 0 0.00366357
0.67013 0.0947639 3.46945e-18 0.00368146
0.574156 0.360265 0 0.00379333
0.67013 0.101886 0 0.00369801
0.523729 0.431051 0 0.00378715
0.624584 0.264688 0 0.00380055
0.467897 0.491175 0 0.00377965
0.67013 0.109266 3.46945e-18 0.00371318
0.350249 0.582034 0 0.0037676
0.67013 0.116914 0 0.003727
0.67013 0.12484 0 0.00373952
0.67013 0.133054 0 0.00375079
0.288433 0.619475 0 0.00376339
0.624584 0.27798 -3.08149e-33 0.00380165
0.412065 0.546332 1.54074e-33 0.00377435
0.523729 0.440544 -3.08149e-33 0.00378754
0.67013 0.141566 3.46945e-18 0.00376086
0.685312 0.0241911 -7.70372e-34 0.00370247
0.685312 0.0434463 -7.70372e-34 0.0034476
0.67013 0.150387 0 0.00376977
0.574156 0.377026 -3.46945e-18 0.00379406
0.67013 0.159528 0 0.00377758
0.624584 0.291753 0 0.00380258
0.151552 0.67277 0 0.00375569
0.075776 0.686823 0 0.0037525
0.67013 0.169001 0 0.00378437
0.67013 0.178818 0 0.00379021
0.467897 0.51269 0 0.00378036
0.685312 0.113022 -7.70372e-34 0.00372193
0.219992 0.659208 0 0.00375854
0.624584 0.306027 0 0.00380339
0.67013 0.188991 0 0.00379519
0.574156 0.394397 3.46945e-18 0.0037948
0.523729 0.46022 0 0.00378834
0.685312 0.137234 -7.70372e-34 0.00375917
0.67013 0.199535 -3.46945e-18 0.00379939
0.350249 0.606847 0 0.00376806
0 0.700877 0 0.00375
0.624584 0.320819 0 0.00380412
0.67013 0.21046 0 0.00380291
0.412065 0.569849 -2.31298e-18 0.0037749
0.67013 0.221782 -3.46945e-18 0.00380582
0.574157 0.412396 0 0.00379557
0.288433 0.645647 0 0.00376374
0.624584 0.336148 -3.08149e-33 0.00380481
0.67013 0.233515 3.46945e-18 0.0038082
0.467897 0.534986 0 0.00378102
0.523729 0.48061 0 0.00378911
0.624584 0.344091 0 0.00380514
0.67013 0.245675 0 0.00381014
0.715676 4.54095e-19 0 0.000361666
0.715676 0.00368111 0 0.000603619
0.715676 0.00749587 0 0.0020121
0.715676 0.0114491 0 0.00374988
0.715676 0.0155459 0 0.00430141
0.715676 0.0197915 0 0.00410104
0.715676 0.0241911 0 0.00378322
0.715676 0.0287506 0 0.00356783
0.715676 0.0334755 0 0.00345983
0.715676 0.038372 0 0.00343012
0.624584 0.352034 -2.31298e-18 0.00380547
0.715676 0.0434463 0 0.00344317
0.151552 0.700877 0 0.00375586
0.715676 0.0487048 0 0.00347377
0.715676 0.0541543 0 0.00350946
0.574156 0.43105 0 0.00379635
0.715676 0.0598016 0 0.00354442
0.67013 0.258275 0 0.00381172
0.715676 0.0656539 0 0.00357627
0.715676 0.0717187 0 0.00360423
0.075776 0.715441 0 0.00375257
0.715676 0.0780037 0 0.00362857
0.715676 0.0845169 0 0.00365047
0.219992 0.686824 0 0.0037588
0.715676 0.0912666 0 0.00367086
0.715676 0.0982613 0 0.0036899
0.67013 0.271334 -3.46945e-18 0.00381299
0.350249 0.632561 -3.46945e-18 0.00376849
0.412065 0.594219 3.08149e-33 0.0037754
0.715676 0.10551 0 0.0037075
0.715676 0.113022 0 0.00372363
0.624584 0.368496 0 0.00380613
0.523729 0.501741 0 0.00378985
0.715676 0.120806 0 0.00373834
0.715676 0.128874 0 0.00375164
0.67013 0.284867 0 0.00381403
0.467897 0.558091 3.46945e-18 0.00378164
0.715676 0.137234 0 0.0037636
0.574156 0.450382 0 0.00379714
0 0.730005 0 0.00375
0.715676 0.145897 0 0.00377426
0.288433 0.67277 0 0.00376407
0.715676 0.154876 0 0.00378366
0.67013 0.29889 0 0.0038149
0.624584 0.385557 0 0.0038068
0.715676 0.16418 -9.25187e-19 0.00379189
0.715676 0.173822 0 0.00379901
0.715676 0.183814 0 0.00380512
0.67013 0.313423 0 0.00381564
0.523729 0.523639 0 0.00379054
0.715676 0.194169 0 0.00381029
0.574156 0.470415 3.46945e-18 0.00379793
0.624584 0.403236 0 0.00380749
0.743101 0.0241911 -7.70372e-34 0.00389759
0.412065 0.619475 3.08149e-33 0.00377587
0.715676 0.2049 0 0.00381464
0.151552 0.730005 0 0.00375602
0.67013 0.328484 3.46945e-18 0.00381631
0.350249 0.659208 0 0.00376889
0.467897 0.582034 0 0.0037822
0.715676 0.21602 0 0.00381824
0.219992 0.715441 0 0.00375905
0.075776 0.745097 -3.46945e-18 0.00375265
0.715676 0.227544 0 0.00382119
0.67013 0.344091 0 0.00381692
0.624584 0.421557 0 0.00380819
0.743101 0.128874 -7.70372e-34 0.00375633
0.715676 0.239487 3.70071e-18 0.00382359
0.574156 0.491175 0 0.0037987
0.756814 0.00184055 0 0.000324198
0.523729 0.546332 0 0.00379117
0.756813 0.00558849 0 0.000842401
0.756813 0.00947248 0 0.00328984
0.756814 0.0134975 -3.46945e-18 0.00454792
0.756814 0.0155459 0 0.00453813
0.756814 0.0176687 0 0.00452668
0.756814 0.0219913 0 0.00409679
0.756814 0.0264709 0 0.00375493
0.756814 0.031113 -3.46945e-18 0.00354644
0.756813 0.0359238 -3.46945e-18 0.00345133
0.288433 0.700877 0 0.00376438
0.756814 0.0409092 -3.46945e-18 0.00343386
0.756813 0.0460755 3.46945e-18 0.0034512
0.756813 0.0514296 0 0.00348307
0.715676 0.251863 0 0.00382552
0.756813 0.0569779 0 0.00351862
0.756814 0.0627277 -3.46945e-18 0.00355301
0.756814 0.0686863 -3.46945e-18 0.00358419
0 0.76019 0 0.00375
0.756814 0.0748612 0 0.00361144
0.67013 0.360265 3.46945e-18 0.00381752
0.756814 0.0812603 -3.46945e-18 0.00363574
0.756814 0.0878917 -3.46945e-18 0.00365855
0.756814 0.0947639 -3.46945e-18 0.00368003
0.715676 0.264688 0 0.00382705
0.756813 0.101886 0 0.00370007
0.624584 0.440544 0 0.00380892
0.756813 0.109266 3.46945e-18 0.00371853
0.756813 0.116914 3.46945e-18 0.00373544
0.412065 0.645647 0 0.00377631
0.467897 0.606847 0 0.00378272
0.756814 0.120806 0 0.003744
0.756813 0.12484 0 0.00375082
0.715676 0.27798 0 0.00382827
0.756814 0.133054 -3.46945e-18 0.00376472
0.67013 0.377026 -3.46945e-18 0.00381812
0.756814 0.137234 0 0.00377187
0.574156 0.51269 0 0.00379942
0.756813 0.141566 3.46945e-18 0.00377717
0.685312 0.352034 -7.70372e-34 0.00382303
0.743101 0.2049 -7.70372e-34 0.00382387
0.350249 0.686824 0 0.00376927
0.756814 0.150387 0 0.00378823
0.756814 0.154876 0 0.00379407
0.715676 0.291753 0 0.00382925
0.756814 0.159528 -3.46945e-18 0.00379796
0.523729 0.569849 0 0.00379175
0.72743 0.264688 0 0.00383135
0.756814 0.16418 0 0.0038032
0.151552 0.76019 0 0.00375618
0.756813 0.169001 3.46945e-18 0.00380643
0.624584 0.46022 0 0.00380965
0.219993 0.745097 0 0.0037593
0.67013 0.394396 0 0.00381873
0.756813 0.178818 -3.46945e-18 0.00381373
0.715676 0.306027 0 0.00383004
0.075776 0.775831 0 0.00375272
0.756813 0.188991 0 0.00381995
0.756814 0.199535 0 0.00382519
0.715676 0.320819 0 0.0038307
0.574156 0.534985 0 0.00380009
0.288433 0.730005 0 0.00376468
0.756813 0.21046 0 0.00382955
0.467897 0.632561 0 0.00378319
0.67013 0.412396 -3.46945e-18 0.00381937
0.624584 0.48061 -3.08149e-33 0.00381037
0.756814 0.221782 0 0.00383313
0.412065 0.67277 3.08149e-33 0.00377671
0.715676 0.336148 0 0.00383128
0 0.791472 0 0.00375
0.756813 0.233516 3.46945e-18 0.00383604
0.523729 0.594219 0 0.00379228
0.624584 0.487654 1.54074e-33 0.00381061
0.756814 0.245675 3.46945e-18 0.00383837
0.350249 0.715441 3.46945e-18 0.00376963
0.67013 0.43105 0 0.00382003
0.715676 0.352034 -9.25187e-19 0.0038318
0.797951 9.08189e-19 -3.08149e-33 0.000293689
0.797951 0.00368111 2.31298e-18 0.000564575
0.797951 0.00749587 2.31298e-18 0.00210572
0.797951 0.0114491 2.31298e-18 0.00406512
0.797951 0.0141803 7.70372e-34 0.00453827
0.797951 0.0155459 0 0.00477484
0.797951 0.0169611 7.70372e-34 0.00470497
0.797951 0.0197915 2.31298e-18 0.00456525
0.797951 0.0219913 0 0.00434579
0.797951 0.0241911 3.08149e-33 0.00412634
0.797951 0.0264709 0 0.00395298
0.797951 0.0287506 -3.08149e-33 0.00377963
0.797951 0.0334755 2.31298e-18 0.00357143
0.797951 0.038372 2.31298e-18 0.00347776
0.797951 0.0434463 2.31298e-18 0.00345578
0.797951 0.0487048 0 0.00346962
0.756813 0.258275 -3.46945e-18 0.00384021
0.797951 0.0541543 2.31298e-18 0.00349833
0.797951 0.0598016 2.31298e-18 0.0035315
0.797951 0.0656539 2.31298e-18 0.0035641
0.574156 0.55809 0 0.00380069
0.624584 0.501741 0 0.00381107
0.797951 0.0717187 2.31298e-18 0.00359394
0.797951 0.0780037 -3.08149e-33 0.00362082
0.797951 0.0845169 2.31298e-18 0.00364581
0.797951 0.0912666 -3.08149e-33 0.00366955
0.797951 0.0982613 2.31298e-18 0.00369194
0.756813 0.271334 0 0.00384165
0.797951 0.10551 2.31298e-18 0.00371281
0.715676 0.368496 0 0.00383231
0.151552 0.791472 0 0.00375634
0.797951 0.113022 2.31298e-18 0.00373206
0.219992 0.775831 3.46945e-18 0.00375954
0.797951 0.118211 7.70372e-34 0.0037438
0.770526 0.239487 1.54074e-33 0.00384329
0.797951 0.120806 0 0.00374967
0.67013 0.450382 3.46945e-18 0.0038207
0.797951 0.128874 3.08149e-33 0.00376569
0.467897 0.659208 0 0.00378362
0.756813 0.284866 -3.46945e-18 0.00384277
0.743101 0.320819 -7.70372e-34 0.00384076
0.797951 0.137234 0 0.00378013
0.797951 0.141566 0 0.00378659
0.797951 0.145897 -9.25187e-19 0.00379305
0.523729 0.619475 0 0.00379274
0.075776 0.807681 0 0.0037528
0.797951 0.150387 0 0.00379877
0.797951 0.154876 0 0.00380448
0.715676 0.385557 0 0.00383282
0.412065 0.700877 3.08149e-33 0.00377707
0.288433 0.76019 0 0.00376496
0.756813 0.29889 0 0.00384364
0.797951 0.16418 0 0.00381451
0.624584 0.523639 0 0.00381172
0.797951 0.167394 7.70372e-34 0.00381742
0.797951 0.173822 2.31298e-18 0.00382322
0.574156 0.582034 0 0.00380123
0.67013 0.470415 0 0.00382138
0.797951 0.183814 2.31298e-18 0.00383068
0.756813 0.313423 -3.46945e-18 0.00384433
0.797951 0.194169 -9.25187e-19 0.00383702
0.715676 0.403236 0 0.00383335
0.151552 0.807681 0 0.00375641
0.797951 0.197746 -7.70372e-34 0.00383879
0.350249 0.745097 0 0.00376996
0.797951 0.2049 3.08149e-33 0.00384232
0 0.823889 0 0.00375
0.756813 0.328483 -3.46945e-18 0.00384489
0.797951 0.21046 0 0.00384451
0.797951 0.21602 -3.08149e-33 0.00384671
0.797951 0.223703 7.70372e-34 0.00384909
0.797951 0.227544 9.25187e-19 0.00385028
0.624584 0.546332 0 0.0038123
0.715676 0.421557 0 0.0038339
0.67013 0.491176 -3.46945e-18 0.00382205
0.797951 0.231525 7.70372e-34 0.00385123
0.467897 0.686824 -3.46945e-18 0.00378401
0.523729 0.645647 0 0.00379315
0.756813 0.344091 -3.46945e-18 0.00384536
0.822721 0.120806 7.70372e-34 0.00375428
0.797951 0.239487 -3.08149e-33 0.00385314
0.822721 0.137234 7.70372e-34 0.00378644
0.835106 0.00184056 0 0.000264755
0.835106 0.00558849 0 0.0008289
0.835106 0.00947248 0 0.00345775
0.835106 0.0134975 0 0.00494996
0.835107 0.0176687 0 0.0050503
0.835106 0.0219913 -3.46945e-18 0.00456106