# nutMean  POINT_DATA 63140
# x  y  z  nutMean
0 0.1 0 0.0053294
0 0.1 -0.0179898 0.00533312
0 0.1 0.0179898 0.0053251
0.0363518 0.1 0.0179898 0.0126671
0.0363518 0.1 -0.0179898 0.0134973
0 0.1 -0.0570102 0.00534574
0 0.1 0.0570102 0.00532148
0.0363518 0.1 0.0570102 0.0126635
0.0363518 0.1 -0.0570102 0.0135099
0 0.1 -0.075 0.00535382
0 0.1 0.075 0.00532275
0.075776 0.1 -0.0375 0.0220845
0.075776 0.1 0.0375 0.0204211
0 0.1 -0.0929898 0.00536136
0 0.1 0.0929898 0.00532348
0.0363518 0.1 -0.0929898 0.0134567
0.0363518 0.1 0.0929898 0.011701
0 0.1 -0.13201 0.00538718
0 0.1 0.13201 0.00532929
0.075776 0.1 -0.1125 0.0219577
0.075776 0.1 0.1125 0.0184723
0.0363518 0.1 -0.13201 0.0134825
0.0363518 0.1 0.13201 0.0117068
0 0.1 -0.15 0.00540423
0 0.1 0.15 0.0053343
0.150379 0.1 -2.22623e-17 0.0187751
0 0.1 -0.16799 0.00542092
0 0.1 0.16799 0.00533918
0.150379 0.1 -0.075 0.0191621
0.150379 0.1 0.075 0.0178867
0.0363518 0.1 -0.16799 0.012933
0.0363518 0.1 0.16799 0.0107066
0.075776 0.1 -0.1875 0.0208296
0.075776 0.1 0.1875 0.0164327
0 0.1 -0.20701 0.00546618
0 0.1 0.20701 0.00535145
0.0363518 0.1 -0.20701 0.0129782
0.0363518 0.1 0.20701 0.0107189
0.150379 0.1 -0.15 0.0188635
0.150379 0.1 0.15 0.0166256
0.219993 0.1 -0.0375 0.0164042
0.219993 0.1 0.0375 0.0163922
0 0.1 -0.225 0.00549273
0 0.1 0.225 0.00535828
0 0.1 -0.24299 0.00551985
0 0.1 0.24299 0.00536564
0.0363518 0.1 0.24299 0.00984443
0.0363518 0.1 -0.24299 0.0120494
0.219993 0.1 -0.1125 0.0164346
0.219993 0.1 0.1125 0.016385
0.150379 0.1 -0.225 0.0176936
0.150379 0.1 0.225 0.014853
0.075776 0.1 -0.2625 0.0189493
0.075776 0.1 0.2625 0.0146365
0 0.1 -0.28201 0.00556778
0 0.1 0.28201 0.00537779
0.0363518 0.1 -0.28201 0.0120973
0.0363518 0.1 0.28201 0.00985659
0.287374 0.1 -2.89121e-19 0.0133807
0.219992 0.1 0.1875 0.0152713
0.219992 0.1 -0.1875 0.0164343
0.287374 0.1 -0.075 0.0134166
0.287374 0.1 0.075 0.013324
0 0.1 -0.3 0.00558756
0 0.1 0.3 0.00538245
0 0.1 0.31799 0.00538798
0 0.1 -0.31799 0.00560872
0.0363518 0.1 -0.31799 0.011075
0.0363518 0.1 0.31799 0.00919153
0.287374 0.1 0.15 0.0129694
0.287374 0.1 -0.15 0.0134047
0.150379 0.1 -0.3 0.0160695
0.150379 0.1 0.3 0.0133834
0.219993 0.1 0.2625 0.0131152
0.219993 0.1 -0.2625 0.0147315
0.075776 0.1 -0.3375 0.0168913
0.075776 0.1 0.3375 0.0132762
0.350249 0.1 -0.0375 0.0105178
0.350249 0.1 0.0375 0.0104375
0 0.1 -0.35701 0.00563985
0 0.1 0.35701 0.00538995
0.0363518 0.1 -0.35701 0.0111062
0.0363518 0.1 0.35701 0.00919349
0.287374 0.1 -0.225 0.0129114
0.287374 0.1 0.225 0.0120489
0.350249 0.1 -0.1125 0.0105378
0.350249 0.1 0.1125 0.0103147
0 0.1 -0.375 0.00565055
0 0.1 0.375 0.00538739
0 0.1 -0.39299 0.00566239
0 0.1 0.39299 0.00538539
0.0363518 0.1 -0.39299 0.010417
0.0363518 0.1 0.39299 0.00883636
0.350249 0.1 -0.1875 0.010442
0.350249 0.1 0.1875 0.010129
0.219992 0.1 -0.3375 0.0138491
0.219992 0.1 0.3375 0.0125424
0.150379 0.1 0.375 0.0126017
0.150379 0.1 -0.375 0.0149947
0.411108 0.1 4.33681e-19 0.00868025
0.287374 0.1 -0.3 0.0122015
0.287374 0.1 0.3 0.011279
0.411108 0.1 -0.075 0.00871609
0.411108 0.1 0.075 0.00862707
0.075776 0.1 -0.4125 0.0155017
0.075776 0.1 0.4125 0.0125471
0 0.1 0.43201 0.00537541
0 0.1 -0.43201 0.00567225
0.0363518 0.1 0.43201 0.00882638
0.0363518 0.1 -0.43201 0.0104269
0.411108 0.1 -0.15 0.00871365
0.411108 0.1 0.15 0.00855406
0.350249 0.1 -0.2625 0.0102484
0.350249 0.1 0.2625 0.00985207
0 0.1 -0.45 0.00567164
0 0.1 0.45 0.00536896
0.219992 0.1 0.4125 0.0120582
0.219992 0.1 -0.4125 0.0138316
0 0.1 -0.46799 0.00567143
0 0.1 0.46799 0.0053626
0.411108 0.1 -0.225 0.00866275
0.411108 0.1 0.225 0.00844854
0.467897 0.1 -0.0375 0.00696201
0.467897 0.1 0.0375 0.0069459
0.0363518 0.1 0.46799 0.00860443
0.0363518 0.1 -0.46799 0.0100916
0.287374 0.1 -0.375 0.0119799
0.287374 0.1 0.375 0.0109998
0.150379 0.1 0.45 0.0123626
0.150379 0.1 -0.45 0.0143784
0.467897 0.1 0.1125 0.00694847
0.467897 0.1 -0.1125 0.00699008
0.350249 0.1 -0.3375 0.0101535
0.350249 0.1 0.3375 0.00973361
0.075776 0.1 -0.4875 0.0148215
0.075776 0.1 0.4875 0.0120935
0.467897 0.1 0.1875 0.00695567
0.467897 0.1 -0.1875 0.00702503
0 0.1 -0.50701 0.00566428
0 0.1 0.50701 0.00534421
0.0363518 0.1 -0.50701 0.0100845
0.0363518 0.1 0.50701 0.00858604
0.411108 0.1 0.3 0.00836395
0.411108 0.1 -0.3 0.00862287
0.522865 0.1 1.41031e-17 0.0060064
0 0.1 -0.525 0.0056589
0 0.1 0.525 0.00533371
0.522865 0.1 -0.075 0.00602806
0.522865 0.1 0.075 0.00600438
0.287374 0.1 0.45 0.0110938
0.287374 0.1 -0.45 0.0119418
0.219992 0.1 0.4875 0.0127415
0.219992 0.1 -0.4875 0.0134176
0.467897 0.1 -0.2625 0.0070679
0.467897 0.1 0.2625 0.00697858
0.350249 0.1 -0.4125 0.0102461
0.350249 0.1 0.4125 0.0097738
0 0.1 -0.54299 0.00565339
0 0.1 0.54299 0.00532292
0.522865 0.1 0.15 0.00602012
0.522865 0.1 -0.15 0.00606461
0.0363518 0.1 0.54299 0.00840703
0.0363518 0.1 -0.54299 0.00981751
0.150379 0.1 -0.525 0.0141487
0.150379 0.1 0.525 0.0125716
0.411108 0.1 -0.375 0.00867186
0.411108 0.1 0.375 0.00837332
0.075776 0.1 -0.5625 0.0142783
0.075776 0.1 0.5625 0.0117279
0.522865 0.1 -0.225 0.00611259
0.522865 0.1 0.225 0.00605039
0.574156 0.1 0.0375 0.00508952
0.574157 0.1 -0.0375 0.00509986
0.467897 0.1 -0.3375 0.00714607
0.467897 0.1 0.3375 0.00700382
0 0.1 -0.58201 0.00563566
0 0.1 0.58201 0.00529997
0.0363518 0.1 -0.58201 0.00979978
0.0363518 0.1 0.58201 0.00838408
0.574157 0.1 -0.1125 0.00513198
0.574157 0.1 0.1125 0.00510494
0.287374 0.1 -0.525 0.0120993
0.287374 0.1 0.525 0.0115759
0 0.1 -0.6 0.00562519
0 0.1 0.6 0.00528936
0.350249 0.1 0.4875 0.00991502
0.350249 0.1 -0.4875 0.0104159
0.522865 0.1 -0.3 0.00618819
0.522865 0.1 0.3 0.00609258
0.219992 0.1 -0.5625 0.0141075
0.219992 0.1 0.5625 0.0136639
0.574156 0.1 -0.1875 0.00518257
0.574156 0.1 0.1875 0.00514185
0.411108 0.1 0.45 0.00848017
0.411108 0.1 -0.45 0.00881201
0 0.1 -0.61799 0.00561424
0 0.1 0.61799 0.00527811
0.150379 0.1 -0.6 0.0143348
0.150379 0.1 0.6 0.0126015
0.0363518 0.1 -0.61799 0.00955768
0.0363518 0.1 0.61799 0.00823247
0.467897 0.1 -0.4125 0.00726341
0.467897 0.1 0.4125 0.00709133
0.623803 0.1 2.34188e-17 0.00454132
0.623803 0.1 0.075 0.00454343
0.623803 0.1 -0.075 0.00456246
0.574156 0.1 0.2625 0.0051946
0.574156 0.1 -0.2625 0.0052453
0.623803 0.1 0.15 0.00456905
0.623803 0.1 -0.15 0.00460382
0.075776 0.1 0.6375 0.0114163
0.075776 0.1 -0.6375 0.0137853
0.522865 0.1 -0.375 0.00629765
0.522865 0.1 0.375 0.00616075
0 0.1 0.65701 0.00525731
0 0.1 -0.65701 0.00558924
0.0363518 0.1 0.65701 0.00821167
0.0363518 0.1 -0.65701 0.00953268
0.350249 0.1 0.5625 0.0101275
0.350249 0.1 -0.5625 0.0106103
0.623803 0.1 0.225 0.004614
0.623803 0.1 -0.225 0.0046634
0.287374 0.1 -0.6 0.0126268
0.287374 0.1 0.6 0.0118641
0.574157 0.1 -0.3375 0.0053627
0.574157 0.1 0.3375 0.00526093
0.411108 0.1 0.525 0.0086672
0.411108 0.1 -0.525 0.00900455
0.67013 0.1 0.0375 0.00400206
0.67013 0.1 -0.0375 0.00401261
0.219992 0.1 -0.6375 0.0151483
0.219993 0.1 0.6375 0.0135067
0 0.1 -0.675 0.00557678
0 0.1 0.675 0.00524902
0.467897 0.1 -0.4875 0.00744479
0.467897 0.1 0.4875 0.00724967
0.67013 0.1 -0.1125 0.00404417
0.67013 0.1 0.1125 0.004016
0.522865 0.1 0.45 0.00627837
0.522865 0.1 -0.45 0.00644435
0.150379 0.1 0.675 0.0123365
0.150379 0.1 -0.675 0.0143906
0.623803 0.1 0.3 0.00467558
0.623803 0.1 -0.3 0.00475301
0 0.1 -0.69299 0.00556327
0 0.1 0.69299 0.00524001
0.0363518 0.1 -0.69299 0.00931897
0.0363518 0.1 0.69299 0.00808368
0.67013 0.1 -0.1875 0.0040953
0.67013 0.1 0.1875 0.00405221
0.574156 0.1 0.4125 0.00535365
0.574157 0.1 -0.4125 0.00548678
0.714971 0.1 -2.8382e-17 0.00364463
0.075776 0.1 -0.7125 0.0133473
0.075776 0.1 0.7125 0.0111519
0.714971 0.1 -0.075 0.00366626
0.714971 0.1 0.075 0.00364471
0.67013 0.1 0.2625 0.00410612
0.67013 0.1 -0.2625 0.00416893
0.411108 0.1 -0.6 0.00923193
0.411108 0.1 0.6 0.00889631
0.350249 0.1 0.6375 0.0103088
0.350249 0.1 -0.6375 0.01084
0.623803 0.1 0.375 0.00475424
0.623803 0.1 -0.375 0.0048696
0.714971 0.1 -0.15 0.0037073
0.714971 0.1 0.15 0.00366706
0.467897 0.1 -0.5625 0.0076717
0.467897 0.1 0.5625 0.00748554
0 0.1 -0.73201 0.00553783
0 0.1 0.73201 0.00522408
0.0363518 0.1 0.73201 0.00806775
0.0363518 0.1 -0.73201 0.00929353
0.287374 0.1 -0.675 0.0130005
0.287374 0.1 0.675 0.0118209
0.522865 0.1 -0.525 0.00663802
0.522865 0.1 0.525 0.00645557
0.219993 0.1 -0.7125 0.015217
0.219992 0.1 0.7125 0.0131757
0.714971 0.1 -0.225 0.00376919
0.714971 0.1 0.225 0.00370905
0 0.1 0.75 0.00521805
0 0.1 -0.75 0.00552722
0.67013 0.1 -0.3375 0.0042736
0.67013 0.1 0.3375 0.00417922
0.574156 0.1 -0.4875 0.00565114
0.574157 0.1 0.4875 0.00548614
0.756813 0.1 0.0375 0.00328718
0.756814 0.1 -0.0375 0.00329986
0.150379 0.1 0.746002 0.0120524
0.150379 0.1 -0.75 0.0141745
0.756813 0.1 -0.1125 0.00333152
0.756813 0.1 0.1125 0.00329686
0 0.1 0.76799 0.00521126
0 0.1 -0.76799 0.00551528
0.0363518 0.1 0.76799 0.00796498
0.0363518 0.1 -0.76799 0.00910015
0.623803 0.1 -0.45 0.00500973
0.623803 0.1 0.45 0.00485993
0.714971 0.1 -0.3 0.00385482
0.714971 0.1 0.3 0.003769
0.756814 0.1 -0.1875 0.00338135
0.756814 0.1 0.1875 0.00332662
0.67013 0.1 -0.4125 0.00439403
0.67013 0.1 0.4125 0.00426173
0.411108 0.1 0.675 0.00911276
0.411108 0.1 -0.675 0.00946687
0.467897 0.1 0.6375 0.00777014
0.467897 0.1 -0.6375 0.00793462
0.075776 0.1 0.7875 0.0109394
0.075776 0.1 -0.7875 0.01295
0.350249 0.1 -0.7125 0.0110139
0.350249 0.1 0.7125 0.0104251
0.522865 0.1 -0.6 0.00687153
0.522865 0.1 0.6 0.00668963
0.797314 0.1 -3.59473e-17 0.00303706
0.287374 0.1 0.746002 0.0117416
0.797314 0.1 -0.075 0.00305895
0.797314 0.1 0.075 0.00303469
0.756814 0.1 -0.2625 0.00345431
0.756814 0.1 0.2625 0.0033749
0.287374 0.1 -0.75 0.0130662
0.574156 0.1 -0.5625 0.0058542
0.574156 0.1 0.5625 0.00567001
0 0.1 0.80701 0.00520009
0 0.1 -0.80701 0.00549357
0.714971 0.1 -0.375 0.00396253
0.714971 0.1 0.375 0.00384547
0.0363518 0.1 0.80701 0.00795381
0.0363518 0.1 -0.80701 0.00907844
0.797314 0.1 -0.15 0.00309829
0.797314 0.1 0.15 0.00305199
0.623803 0.1 -0.525 0.00518546
0.623803 0.1 0.525 0.00500517
0.219992 0.1 0.7875 0.0128718
0.219992 0.1 -0.7875 0.0150949
0.149792 0.1 0.80701 0.0118766
0 0.1 0.825 0.00519639
0 0.1 -0.825 0.00548493
0.797314 0.1 -0.225 0.00315637
0.797314 0.1 0.225 0.00308764
0.756813 0.1 -0.3375 0.00354581
0.756813 0.1 0.3375 0.0034396
0.67013 0.1 0.4875 0.00437725
0.67013 0.1 -0.4875 0.00454594
0.835106 0.1 -0.0375 0.00279434
0.835106 0.1 0.0375 0.00278158
0.150379 0.1 -0.825 0.0139159
0.835106 0.1 -0.1125 0.00282481
0.835106 0.1 0.1125 0.00278791
0 0.1 -0.84299 0.00547498
0 0.1 0.84299 0.00519188
0.0363518 0.1 -0.84299 0.00891
0.0363518 0.1 0.84299 0.00787683
0.714971 0.1 -0.45 0.00409438
0.714971 0.1 0.45 0.00393987
0.411108 0.1 0.746002 0.00930186
0.797314 0.1 -0.3 0.00323238
0.797314 0.1 0.3 0.00313999
0.467897 0.1 -0.7125 0.00821045
0.467897 0.1 0.7125 0.00805031
0.522865 0.1 0.675 0.00695632
0.522865 0.1 -0.675 0.00713689
0.411108 0.1 -0.75 0.00966683
0.835106 0.1 -0.1875 0.00287028
0.835107 0.1 0.1875 0.00281147
0.286844 0.1 0.80701 0.011642
0.574156 0.1 0.6375 0.00590417
0.574157 0.1 -0.6375 0.00609683
0.350249 0.1 -0.7875 0.0111474
0.350249 0.1 0.7875 0.0104994
0.756813 0.1 -0.4125 0.00366036
0.756814 0.1 0.4125 0.00352524
0.623803 0.1 -0.6 0.00539671
0.623803 0.1 0.6 0.00519431
0.075776 0.1 0.8625 0.01078
0.075776 0.1 -0.8625 0.012603
0.871687 0.1 -3.2767e-18 0.00259784
0.287374 0.1 -0.825 0.0130586
0.871687 0.1 -0.075 0.00261974
0.871687 0.1 0.075 0.00259363
0.67013 0.1 -0.5625 0.00472999
0.67013 0.1 0.5625 0.0045272
0.835106 0.1 0.2625 0.00285266
0.835106 0.1 -0.2625 0.00293453
0.797314 0.1 -0.375 0.00333007
0.797314 0.1 0.375 0.00320979
0 0.1 -0.88201 0.00545706
0 0.1 0.88201 0.00518564
0.0363518 0.1 0.88201 0.00787059
0.0363518 0.1 -0.88201 0.00889208
0.871687 0.1 0.15 0.0026065
0.871687 0.1 -0.15 0.00265622
0.714971 0.1 0.525 0.0040614
0.714971 0.1 -0.525 0.00425567
0.219993 0.1 0.8625 0.0126417
0.219992 0.1 -0.8625 0.0149124
0 0.1 0.9 0.00518439
0 0.1 -0.9 0.00544993
0.756813 0.1 0.4875 0.00361943
0.756814 0.1 -0.4875 0.0038011
0.871687 0.1 0.225 0.0026357
0.871687 0.1 -0.225 0.00270737
0.835106 0.1 -0.3375 0.00301021
0.835106 0.1 0.3375 0.00290809
0.41063 0.1 0.80701 0.00939281
0.90582 0.1 -0.0375 0.00241934
0.905821 0.1 0.0375 0.00240568
0.522865 0.1 0.746002 0.00722855
0.150379 0.1 0.9 0.0116668
0.90582 0.1 0.1125 0.002409
0.905821 0.1 -0.1125 0.00245004
0.522865 0.1 -0.75 0.00740957
0.574156 0.1 0.7125 0.00617379
0.574156 0.1 -0.7125 0.00637817
0.797314 0.1 -0.45 0.00345301
0.797314 0.1 0.45 0.00329386
0.467897 0.1 -0.7875 0.00842471
0.467897 0.1 0.7875 0.00828153
0.150379 0.1 -0.903998 0.0137125
0 0.1 0.91799 0.00518231
0 0.1 -0.91799 0.00544153
0.0363518 0.1 0.91799 0.00781931
0.0363518 0.1 -0.91799 0.00875291
0.623803 0.1 0.675 0.00542381
0.623803 0.1 -0.675 0.00564345
0.411108 0.1 -0.825 0.0098348
0.871687 0.1 0.3 0.0026803
0.871687 0.1 -0.3 0.00277435
0.67013 0.1 -0.6375 0.00494599
0.67013 0.1 0.6375 0.00471719
0.90582 0.1 -0.1875 0.00248938
0.90582 0.1 0.1875 0.00242735
0.350249 0.1 0.8625 0.0105632
0.350249 0.1 -0.8625 0.0112757
0.835106 0.1 -0.4125 0.00311957
0.835106 0.1 0.4125 0.00298186
0.714971 0.1 -0.6 0.00444753
0.714971 0.1 0.6 0.00421797
0.93886 0.1 -1.15648e-17 0.00231016
0.075776 0.1 0.9375 0.0106735
0.075776 0.1 -0.9375 0.012316
0.93886 0.1 0.075 0.00230557
0.93886 0.1 -0.075 0.00233114
0.756813 0.1 0.5625 0.00374657
0.756814 0.1 -0.5625 0.00396994
0.905821 0.1 -0.2625 0.00254513
0.905821 0.1 0.2625 0.00246124
0.287374 0.1 0.9 0.0115575
0.287374 0.1 -0.903998 0.012998
0.871687 0.1 0.375 0.00273985
0.871687 0.1 -0.375 0.00286546
0.93886 0.1 -0.15 0.00236393
0.93886 0.1 0.15 0.00231605
0.797314 0.1 0.525 0.00339714
0.797314 0.1 -0.525 0.00360011
0 0.1 0.95701 0.00518109
0 0.1 -0.95701 0.00542706
0.0363518 0.1 0.95701 0.00781809
0.0363518 0.1 -0.95701 0.00873844
0.522433 0.1 0.80701 0.00741103
0.219992 0.1 0.9375 0.0124835
0.219992 0.1 -0.9375 0.014707
0.93886 0.1 0.225 0.00234064
0.93886 0.1 -0.225 0.0024072
0.90582 0.1 0.3375 0.0025093
0.905821 0.1 -0.3375 0.00261753
0.835106 0.1 -0.4875 0.00324692
0.835107 0.1 0.4875 0.00306486
0.969689 0.1 -0.0375 0.00221577
0.969689 0.1 0.0375 0.00220407
0.61613 0.1 0.75 0.00568314
0.574156 0.1 -0.7875 0.00669483
0.574156 0.1 0.7875 0.00646231
0 0.1 0.975 0.00518224
0 0.1 -0.975 0.00542168
0.623803 0.1 -0.75 0.005926
0.969689 0.1 -0.1125 0.00224367
0.969689 0.1 0.1125 0.00220772
0.522865 0.1 -0.825 0.00766874
0.67013 0.1 0.7125 0.00494305
0.67013 0.1 -0.7125 0.00519412
0.871687 0.1 -0.45 0.00298195
0.871687 0.1 0.45 0.00281438
0.467897 0.1 0.8625 0.00843326
0.467897 0.1 -0.8625 0.00862005
0.714971 0.1 -0.675 0.00467206
0.714971 0.1 0.675 0.00440995
0.93886 0.1 -0.3 0.00246832
0.93886 0.1 0.3 0.00237919
0.150379 0.1 0.975 0.0115576
0.150379 0.1 -0.975 0.013439
0.969689 0.1 -0.1875 0.00227698
0.969689 0.1 0.1875 0.00222431
0.411108 0.1 0.9 0.00952709
0.756813 0.1 0.6375 0.00390661
0.756814 0.1 -0.6375 0.00416888
0.990306 0.1 -2.19732e-17 0.00212535
0 0.1 0.99299 0.00518253
0 0.1 -0.99299 0.00541505
0.411108 0.1 -0.903998 0.00995972
0.990306 0.1 -0.075 0.00214407
0.990306 0.1 0.075 0.00212132
0.0363518 0.1 0.99299 0.00779064
0.0363518 0.1 -0.99299 0.00862718
0.90582 0.1 -0.4125 0.00272458
0.905821 0.1 0.4125 0.00257051
0.797314 0.1 -0.6 0.00377496
0.797314 0.1 0.6 0.00352957
0.350249 0.1 0.9375 0.0106319
0.350249 0.1 -0.9375 0.0114109
0.990306 0.1 0.15 0.00213097
0.990306 0.1 -0.15 0.00217371
0.969689 0.1 -0.2625 0.00232188
0.969689 0.1 0.2625 0.00225389
0.835106 0.1 -0.5625 0.00339883
0.835106 0.1 0.5625 0.00317405
0.93886 0.1 -0.375 0.00255705
0.93886 0.1 0.375 0.0024304
0.075776 0.1 1.0125 0.0106163
0.075776 0.1 -1.0125 0.0120865
0.990306 0.1 -0.225 0.00221255
0.990306 0.1 0.225 0.00215319
0.287374 0.1 0.975 0.0115303
0.287374 0.1 -0.975 0.0130092
0.871687 0.1 -0.525 0.00311906
0.871687 0.1 0.525 0.00290521
1.02149 0.1 -0.0369628 0.00197169
1.02149 0.1 0.0369628 0.00196119
0.969689 0.1 -0.3375 0.00239342
0.969689 0.1 0.3375 0.00229666
1.02149 0.1 -0.110888 0.00199339
1.02149 0.1 0.110888 0.00196349
0.90582 0.1 0.4875 0.00265082
0.90582 0.1 -0.4875 0.00284689
0.623803 0.1 0.819003 0.00584255
0 0.1 1.03201 0.00518586
0 0.1 -1.03201 0.00540389
0.0363518 0.1 1.03201 0.00779397
0.0363518 0.1 -1.03201 0.00861603
0.67013 0.1 -0.7875 0.00547958
0.67013 0.1 0.7875 0.00519791
0.623803 0.1 -0.825 0.0062336
0.990306 0.1 -0.3 0.00227045
0.990306 0.1 0.3 0.00218827
0.219992 0.1 -1.0125 0.0145312
0.219993 0.1 1.0125 0.0123705
0.574156 0.1 0.8625 0.00675844
0.574157 0.1 -0.8625 0.00700371
0.714971 0.1 -0.75 0.00493083
0.714971 0.1 0.75 0.00463401
1.02149 0.1 0.184814 0.00197752
1.02149 0.1 -0.184814 0.00202567
0.756814 0.1 -0.7125 0.00440426
0.756814 0.1 0.7125 0.0040996
0.522865 0.1 0.9 0.00767651
0.93886 0.1 -0.45 0.00267181
0.93886 0.1 0.45 0.00249586
1.04168 0.1 0 0.00188973
1.04168 0.1 -0.0729162 0.00190458
1.04168 0.1 0.0729162 0.00188541
0.522865 0.1 -0.903998 0.00786974
0.797314 0.1 -0.675 0.00398108
0.797314 0.1 0.675 0.00369162
0.467897 0.1 0.9375 0.00857696
0.467897 0.1 -0.9375 0.00888576
0 0.1 1.05 0.00518902
0 0.1 -1.05 0.00539995
0.835106 0.1 -0.6375 0.00357899
0.835106 0.1 0.6375 0.00330804
1.04168 0.1 -0.145832 0.0019291
1.04168 0.1 0.145832 0.00189196
1.02149 0.1 -0.25874 0.00206874
1.02149 0.1 0.25874 0.00200285
0.969689 0.1 -0.4125 0.0024974
0.969689 0.1 0.4125 0.00234961
0.411108 0.1 0.975 0.00964918
0.411108 0.1 -0.975 0.010221
0.871687 0.1 -0.6 0.00328204
0.871687 0.1 0.6 0.00301732
1.0579 0.1 -0.0360525 0.00183973
1.0579 0.1 0.0360525 0.00182969
0.990306 0.1 -0.375 0.00235571
0.990306 0.1 0.375 0.00223514
0.150379 0.1 1.05 0.0114944
0.150379 0.1 -1.05 0.0132634
1.0579 0.1 0.108157 0.00183055
1.0579 0.1 -0.108157 0.00185743
1.04168 0.1 -0.218749 0.00196341
1.04168 0.1 0.218749 0.00190832
0.90582 0.1 -0.5625 0.00299387
0.90582 0.1 0.5625 0.00274191
0 0.1 -1.06799 0.00539476
0 0.1 1.06799 0.00519125
0.0363518 0.1 -1.06799 0.00852894
0.0363518 0.1 1.06799 0.00778426
0.350249 0.1 1.0125 0.0107174
0.350249 0.1 -1.0125 0.0115596
1.0579 0.1 -0.180262 0.00188475
1.0579 0.1 0.180262 0.00183963
1.02149 0.1 -0.332665 0.00213639
1.02149 0.1 0.332665 0.00204067
0.93886 0.1 -0.525 0.00280433
0.93886 0.1 0.525 0.00257475
1.08012 0.1 5.49329e-18 0.00177075
1.04168 0.1 -0.291665 0.00201344
1.04168 0.1 0.291665 0.00193516
1.08012 0.1 0.0709941 0.00176665
1.08012 0.1 -0.0709941 0.00178364
0.969689 0.1 -0.4875 0.00262311
0.96969 0.1 0.4875 0.00241722
1.0579 0.1 0.252367 0.00185734
1.0579 0.1 -0.252367 0.00192155
0.990306 0.1 -0.45 0.00246646
0.990306 0.1 0.45 0.00229454
0.287374 0.1 -1.05 0.0130106
0.287374 0.1 1.05 0.0115378
0.714971 0.1 0.821002 0.0048578
1.08012 0.1 -0.141988 0.00180431
1.08012 0.1 0.141988 0.00177163
0.075776 0.1 1.0875 0.0105957
0.075776 0.1 -1.0875 0.0119068
0.714971 0.1 -0.825 0.00522469
0.756813 0.1 -0.7875 0.00467086
0.756814 0.1 0.7875 0.00432313
0.67013 0.1 -0.8625 0.00580072
0.67013 0.1 0.8625 0.00547539
0.797314 0.1 -0.75 0.0042185
0.797314 0.1 0.75 0.00388385
0.623803 0.1 0.9 0.00624019
0.835106 0.1 -0.7125 0.00378951
0.835106 0.1 0.7125 0.00347003
0.623803 0.1 -0.903998 0.00648179
0.574156 0.1 0.9375 0.00700619
0.574156 0.1 -0.9375 0.00725186
1.02149 0.1 -0.406591 0.00222449
1.02149 0.1 0.406591 0.00208947
1.08012 0.1 -0.212982 0.00183372
1.08012 0.1 0.212982 0.0017843
1.10076 0.1 -0.0349809 0.00171641
1.10076 0.1 0.0349809 0.00170803
0.871687 0.1 -0.675 0.00347378
0.871687 0.1 0.675 0.00315643
1.04168 0.1 -0.364581 0.00208326
1.04168 0.1 0.364581 0.00197269
1.10076 0.1 -0.104943 0.00173205
1.10076 0.1 0.104943 0.00170967
0.522865 0.1 0.975 0.00787998
0.522865 0.1 -0.975 0.00818202
1.0579 0.1 -0.324472 0.00197703
1.0579 0.1 0.324472 0.00188486
0 0.1 -1.10701 0.00538686
0 0.1 1.10701 0.00519854
0.0363518 0.1 1.10701 0.00779155
0.0363518 0.1 -1.10701 0.00852104
0.90582 0.1 0.6375 0.00285656
0.905821 0.1 -0.6375 0.00316688
0.219992 0.1 1.0875 0.0123106
0.219992 0.1 -1.0875 0.0144107
0.93886 0.1 0.6 0.00267977
0.93886 0.1 -0.6 0.00295571
1.10076 0.1 -0.174905 0.0017548
1.10076 0.1 0.174905 0.00171878
0.467897 0.1 1.0125 0.00876988
0.467897 0.1 -1.0125 0.00916686
1.08012 0.1 -0.283976 0.00187661
1.08012 0.1 0.283976 0.00180536
1.11928 0.1 3.93204e-18 0.0016681
0.990306 0.1 -0.525 0.00258899
0.990306 0.1 0.525 0.00236695
0.96969 0.1 -0.5625 0.00275826
0.969689 0.1 0.5625 0.00249407
1.11928 0.1 -0.0690357 0.00167933
1.11928 0.1 0.0690357 0.00166487
0 0.1 1.125 0.00520356
0 0.1 -1.125 0.00538464
0.411108 0.1 -1.05 0.0103847
0.411108 0.1 1.05 0.00980234
1.10076 0.1 0.244866 0.00173526
1.10076 0.1 -0.244866 0.00178702
1.11928 0.1 -0.138072 0.00169717
1.11928 0.1 0.138072 0.00166961
1.02149 0.1 0.480517 0.00215167
1.02149 0.1 -0.480517 0.00233425
1.0579 0.1 -0.396577 0.00204811
1.0579 0.1 0.396577 0.00192202
1.04168 0.1 -0.437497 0.00217179
1.04168 0.1 0.437497 0.00202108
0.150379 0.1 1.125 0.0114745
0.150379 0.1 -1.125 0.0131379
0.714971 0.1 0.88201 0.00487454
1.08012 0.1 0.354971 0.00183549
1.08012 0.1 -0.354971 0.00193516
1.11928 0.1 -0.207107 0.00172247
1.11928 0.1 0.207107 0.00168116
0.350249 0.1 -1.0875 0.0117033
0.350249 0.1 1.0875 0.0108292
0 0.1 1.14299 0.00520754
0 0.1 -1.14299 0.00538115
0.0363518 0.1 1.14299 0.00779782
0.0363518 0.1 -1.14299 0.00845591
1.14316 0.1 -0.0339211 0.0016092
1.14316 0.1 0.0339211 0.0016023
0.797314 0.1 0.821002 0.00410031
1.10076 0.1 -0.314829 0.0018362
1.10076 0.1 0.314829 0.00176
0.797314 0.1 -0.825 0.0044885
0.756814 0.1 -0.8625 0.00497397
0.756814 0.1 0.8625 0.00457336
1.14316 0.1 -0.101763 0.00162262
1.14316 0.1 0.101763 0.00160316
0.835106 0.1 -0.7875 0.00402734
0.835106 0.1 0.7875 0.00366133
0.871687 0.1 -0.75 0.00369555
0.871687 0.1 0.75 0.00332513
0.67013 0.1 0.9375 0.00576784
0.67013 0.1 -0.9375 0.00610466
0.90582 0.1 -0.7125 0.00337023
0.905821 0.1 0.7125 0.00300283
0.714971 0.1 -0.903998 0.00549388
1.11928 0.1 0.276143 0.00169981
1.11928 0.1 -0.276143 0.00176003
1.14316 0.1 0.169605 0.00161031
1.14316 0.1 -0.169605 0.00164145
0.93886 0.1 -0.675 0.00312976
0.93886 0.1 0.675 0.00280881
1.15704 0.1 0 0.00157391
1.0579 0.1 0.468682 0.00196948
1.0579 0.1 -0.468682 0.00213505
0.623803 0.1 0.975 0.0064984
0.623803 0.1 -0.975 0.0068053
0.990306 0.1 0.6 0.00246962
0.990306 0.1 -0.6 0.00272694
1.15704 0.1 -0.0671479 0.00158371
1.15704 0.1 0.0671479 0.00157112
1.04168 0.1 -0.510414 0.00226534
1.04168 0.1 0.510414 0.00208298
0.969689 0.1 -0.6375 0.00290905
0.969689 0.1 0.6375 0.00263143
1.08012 0.1 0.425965 0.00187459
1.08012 0.1 -0.425965 0.00200828
0.287374 0.1 -1.125 0.0130127
0.287374 0.1 1.125 0.0115862
1.02149 0.1 -0.554443 0.0024372
1.02149 0.1 0.554443 0.00223006
0.574156 0.1 1.0125 0.00724219
0.574156 0.1 -1.0125 0.00751147
1.15704 0.1 -0.134296 0.00159899
1.15704 0.1 0.134296 0.00157495
0.075776 0.1 1.1625 0.0106083
0.075776 0.1 -1.1625 0.0117723
1.10076 0.1 -0.384791 0.00189734
1.10076 0.1 0.384791 0.00179362
1.14316 0.1 -0.237448 0.00166817
1.14316 0.1 0.237448 0.00162337
1.11928 0.1 -0.345179 0.00181129
1.11928 0.1 0.345179 0.0017264
0.522865 0.1 1.05 0.00809413
0.522865 0.1 -1.05 0.00838493
1.15704 0.1 -0.201444 0.00162008
1.15704 0.1 0.201444 0.00158447
1.1744 0.1 -0.0331401 0.00154033
1.1744 0.1 0.0331401 0.00153441
1.1744 0.1 -0.0994202 0.00155283
1.1744 0.1 0.0994202 0.00153522
0 0.1 1.18201 0.00521833
0 0.1 -1.18201 0.0053767
0.0363518 0.1 1.18201 0.00780861
0.0363518 0.1 -1.18201 0.00845146
0.219992 0.1 1.1625 0.0123002
0.219993 0.1 -1.1625 0.0143401
1.14316 0.1 0.30529 0.00164294
1.14316 0.1 -0.30529 0.00170859
0.467897 0.1 1.0875 0.00899606
0.467897 0.1 -1.0875 0.00924904
1.1744 0.1 -0.1657 0.00156888
1.1744 0.1 0.1657 0.00154147
1.15704 0.1 -0.268592 0.00165139
1.15704 0.1 0.268592 0.00159971
1.0579 0.1 0.540787 0.00203142
1.0579 0.1 -0.540787 0.00221622
0.796996 0.1 0.88201 0.00428953
1.08012 0.1 -0.496959 0.00208459
1.08012 0.1 0.496959 0.00192477
1.10076 0.1 0.454752 0.00183495
1.10076 0.1 -0.454752 0.00197251
1.11928 0.1 -0.414214 0.00187487
1.11928 0.1 0.414214 0.00176086
1.04168 0.1 -0.58333 0.00237475
1.04168 0.1 0.58333 0.00216097
1.1744 0.1 -0.231981 0.00159162
1.1744 0.1 0.231981 0.00155278
0.871687 0.1 0.821002 0.00352076
0.411108 0.1 1.125 0.00997283
0.411108 0.1 -1.125 0.0104681
1.19808 0.1 1.73472e-17 0.0014837
0.990306 0.1 0.675 0.00259319
0.990306 0.1 -0.675 0.0028892
1.02149 0.1 0.628368 0.00233181
1.02149 0.1 -0.628368 0.00258104
1.19808 0.1 -0.0650961 0.00149249
1.19808 0.1 0.0650961 0.00148128
0 0.1 1.2 0.005225
0 0.1 -1.2 0.00537612
0.871687 0.1 -0.825 0.00393832
0.905821 0.1 -0.7875 0.00360556
0.90582 0.1 0.7875 0.00317845
0.835106 0.1 -0.8625 0.00430073
0.835106 0.1 0.8625 0.0038805
0.93886 0.1 -0.75 0.00332708
0.93886 0.1 0.75 0.00295314
1.14316 0.1 -0.373132 0.00175993
1.14316 0.1 0.373132 0.00167013
0.969689 0.1 0.7125 0.00274935
0.969689 0.1 -0.7125 0.00307874
1.15704 0.1 -0.33574 0.00169436
1.15704 0.1 0.33574 0.00162161
0.756813 0.1 0.9375 0.00484162
0.756814 0.1 -0.9375 0.00529797
1.19808 0.1 0.130192 0.00148434
1.19808 0.1 -0.130192 0.00150583
0.797314 0.1 -0.903998 0.00475101
0.714971 0.1 0.975 0.00543251
0.714971 0.1 -0.975 0.0058416
0.150379 0.1 1.2 0.0114955
0.150379 0.1 -1.2 0.0130542
1.20938 0.1 -0.0322656 0.00146489
1.20938 0.1 0.0322656 0.00145978
1.1744 0.1 -0.298261 0.00162624
1.1744 0.1 0.298261 0.00156935
1.20938 0.1 -0.0967968 0.00147685
1.20938 0.1 0.0967968 0.00146032
1.19808 0.1 -0.195288 0.00152333
1.19808 0.1 0.195288 0.00149223
0.350249 0.1 1.1625 0.0109774
0.350249 0.1 -1.1625 0.01175
0.67013 0.1 1.0125 0.00602881
0.67013 0.1 -1.0125 0.00640929
0 0.1 1.21799 0.00523051
0 0.1 -1.21799 0.00537424
0.0363518 0.1 -1.21799 0.00840544
0.0363518 0.1 1.21799 0.00782812
1.11928 0.1 -0.48325 0.00194085
1.11928 0.1 0.48325 0.00180462
1.10076 0.1 -0.524714 0.00203955
1.10076 0.1 0.524714 0.00188836
1.20938 0.1 0.161328 0.00146567
1.20938 0.1 -0.161328 0.00149065
1.08012 0.1 0.567953 0.00198686
1.08012 0.1 -0.567953 0.00217657
0.623803 0.1 1.05 0.00673644
0.623803 0.1 -1.05 0.00705254
1.0579 0.1 -0.612892 0.00233488
1.0579 0.1 0.612892 0.00210635
1.15704 0.1 -0.402888 0.00174748
1.15704 0.1 0.402888 0.00165037
1.14316 0.1 0.440974 0.00170412
1.14316 0.1 -0.440974 0.0018218
1.19808 0.1 -0.260384 0.00154898
1.19808 0.1 0.260384 0.00150476
1.2267 0.1 3.57064e-18 0.00142828
1.2267 0.1 -0.0636649 0.00143683
1.2267 0.1 0.0636649 0.00142582
1.1744 0.1 -0.364541 0.00167013
1.1744 0.1 0.364541 0.00159282
0.574156 0.1 1.0875 0.00745294
0.574156 0.1 -1.0875 0.00770089
1.20938 0.1 0.225859 0.0014755
1.20938 0.1 -0.225859 0.00151019
1.04168 0.1 -0.656246 0.00251874
1.04168 0.1 0.656246 0.00225858
1.2267 0.1 -0.12733 0.00144926
1.2267 0.1 0.12733 0.00142823
0.287374 0.1 1.2 0.0116624
0.287374 0.1 -1.2 0.0130071
1.02149 0.1 -0.702294 0.00275622
1.02149 0.1 0.702294 0.0024512
0.075776 0.1 -1.2375 0.0116772
0.075776 0.1 1.2375 0.0106482
0.871399 0.1 0.88201 0.00369486
0.522865 0.1 1.125 0.0083004
0.522865 0.1 -1.125 0.00848525
1.2267 0.1 -0.190994 0.00146494
1.2267 0.1 0.190994 0.00143511
1.19808 0.1 -0.32548 0.00158403
1.19808 0.1 0.32548 0.00152263
0.990306 0.1 -0.75 0.00307184
0.990306 0.1 0.75 0.00271951
1.24274 0.1 -0.0314313 0.0013989
1.24274 0.1 0.0314313 0.00139407
1.20938 0.1 -0.29039 0.00153939
1.20938 0.1 0.29039 0.00148966
1.24274 0.1 -0.0942942 0.00141095
1.24274 0.1 0.0942942 0.0013939
0.93886 0.1 0.821002 0.00311916
1.11928 0.1 -0.552285 0.00202233
1.11928 0.1 0.552285 0.00185867
1.15704 0.1 -0.470036 0.00180495
1.15704 0.1 0.470036 0.0016867
0.969689 0.1 -0.7875 0.00326059
0.96969 0.1 0.7875 0.00288764
0.93886 0.1 -0.825 0.00354429
0.90582 0.1 0.8625 0.0033974
0.905821 0.1 -0.8625 0.00383067
1.1744 0.1 -0.430821 0.00172284
1.1744 0.1 0.430821 0.00162217
1.10076 0.1 -0.594676 0.00214665
1.10076 0.1 0.594676 0.0019507
1.14316 0.1 -0.508816 0.0018801
1.14316 0.1 0.508816 0.00174801
1.24274 0.1 -0.157157 0.00142278
1.24274 0.1 0.157157 0.0013981
1.2267 0.1 -0.254659 0.00148762
1.2267 0.1 0.254659 0.00144625
0.467897 0.1 1.1625 0.00919548
0.467897 0.1 -1.1625 0.0093
1.08012 0.1 0.638947 0.00206413
1.08012 0.1 -0.638947 0.00229823
1.25511 0.1 -5.78241e-19 0.00137288
0.835106 0.1 -0.9375 0.00460968
0.835106 0.1 0.9375 0.00412898
0.871687 0.1 -0.903998 0.0041784
1.25511 0.1 0.0622446 0.00136983
1.25511 0.1 -0.0622446 0.00138185
0.219992 0.1 1.2375 0.0123426
0.219992 0.1 -1.2375 0.0143027
0 0.1 -1.25701 0.00537306
0 0.1 1.25701 0.00524422
0.0363518 0.1 -1.25701 0.00840426
0.0363518 0.1 1.25701 0.00784182
0.797314 0.1 0.975 0.00461937
0.797314 0.1 -0.975 0.00509683
1.19808 0.1 -0.390576 0.00162705
1.19808 0.1 0.390576 0.00154643
1.0579 0.1 -0.684997 0.00247754
1.0579 0.1 0.684997 0.00220119
1.20938 0.1 -0.354921 0.0015767
1.20938 0.1 0.354921 0.00150956
1.25511 0.1 0.124489 0.00137117
1.25511 0.1 -0.124489 0.0013939
1.24274 0.1 -0.220019 0.00144031
1.24274 0.1 0.220019 0.00140649
0.756813 0.1 1.0125 0.00512322
0.756814 0.1 -1.0125 0.00559125
1.2267 0.1 -0.318324 0.00151835
1.2267 0.1 0.318324 0.00146208
0.411108 0.1 1.2 0.010099
0.411108 0.1 -1.2 0.0105167
1.25511 0.1 -0.186734 0.00140842
1.25511 0.1 0.186734 0.00137678
0.714971 0.1 1.05 0.00569212
0.714971 0.1 -1.05 0.0061236
1.04168 0.1 -0.729162 0.00269028
1.04168 0.1 0.729162 0.00236465
1.24274 0.1 0.282882 0.00141891
1.24274 0.1 -0.282882 0.00146498
0 0.1 1.275 0.00525224
0 0.1 -1.275 0.00537402
1.1744 0.1 0.497102 0.00165909
1.1744 0.1 -0.497102 0.00177893
1.15704 0.1 -0.537184 0.00187417
1.15704 0.1 0.537184 0.00173216
1.2756 0.1 -0.03061 0.00133519
1.2756 0.1 0.03061 0.00132947
0.67013 0.1 1.0875 0.00628073
0.67013 0.1 -1.0875 0.00664977
1.2756 0.1 -0.09183 0.00134799
1.2756 0.1 0.09183 0.00132779
1.25511 0.1 -0.248978 0.00142895
1.25511 0.1 0.248978 0.00138653
1.20938 0.1 0.419453 0.00153514
1.20938 0.1 -0.419453 0.001621
1.11928 0.1 -0.621322 0.00213067
1.11928 0.1 0.621322 0.0019243
1.14316 0.1 -0.576659 0.00197105
1.14316 0.1 0.576659 0.00180092
1.19808 0.1 -0.455673 0.00167973
1.19808 0.1 0.455673 0.0015761
1.02149 0.1 0.776219 0.0025722
1.02149 0.1 -0.776219 0.00295792
0.150379 0.1 1.275 0.0115577
0.150379 0.1 -1.275 0.0130047
1.2756 0.1 -0.15305 0.00135918
1.2756 0.1 0.15305 0.00133036
1.2267 0.1 -0.381989 0.0015561