# nutMean  POINT_DATA 91129
# x  y  z  nutMean
0 0 0 4.96868e-06
0 0.00368111 0 1.74825e-05
0 0.00749587 0 6.52384e-05
0 0.0114491 0 0.000242909
0 0.0155459 0 0.000638577
0 0.0197915 0 0.00156143
0 0.0241911 0 0.00245886
0 0.0287506 0 0.00297312
0 0.0334755 0 0.00345452
0 0.038372 0 0.00378757
0 0.0434463 0 0.00402174
0 0.0487048 0 0.00419813
0 0.0541543 0 0.00434447
0 0.0598016 0 0.00447631
0 0.0656539 0 0.00460282
0 0.0717187 0 0.00473125
0.075776 0.00184055 0 8.35359e-06
0.075776 0.00558849 0 1.25531e-05
0.075776 0.00947248 -3.46945e-18 5.90325e-05
0.075776 0.0134975 -3.46945e-18 0.000272061
0.075776 0.0176687 3.46945e-18 0.000766271
0 0.0780037 0 0.00486574
0.075776 0.0219913 3.46945e-18 0.00154437
0.075776 0.0264709 3.46945e-18 0.00262157
0.075776 0.031113 -3.46945e-18 0.00398159
0.075776 0.0359237 -3.46945e-18 0.00558343
0 0.0845169 0 0.00500531
0.075776 0.0409092 0 0.0073753
0.075776 0.0460755 -3.46945e-18 0.00929995
0 0.0912666 0 0.0051481
0.075776 0.0514296 -3.46945e-18 0.0112996
0.075776 0.0569779 0 0.0133178
0 0.0982613 0 0.0052938
0.075776 0.0627278 0 0.0153001
0.075776 0.0686863 0 0.01706
0 0.10551 0 0.00544221
0.075776 0.0748612 3.46945e-18 0.0179588
0.075776 0.0812603 -3.46945e-18 0.0187163
0 0.113022 0 0.00559256
0.075776 0.0878918 3.46945e-18 0.0195544
0 0.120806 0 0.00574395
0.075776 0.0947639 3.46945e-18 0.0204864
0.075776 0.101886 -3.46945e-18 0.0215288
0 0.128874 0 0.00589643
0.075776 0.109266 3.46945e-18 0.0227142
0 0.137234 0 0.00605937
0.075776 0.116914 3.46945e-18 0.0240882
0 0.145897 0 0.00625078
0.075776 0.12484 0 0.0257078
0.151552 0 0 0
0.151552 0.00368111 0 6.92759e-06
0.151552 0.00749587 0 2.40162e-05
0.151552 0.0114491 0 0.000103592
0.151552 0.0155459 0 0.000319199
0.151552 0.0197915 0 0.000720421
0.075776 0.133054 0 0.0275773
0.151552 0.0241911 0 0.00132672
0.151552 0.0287506 0 0.00214389
0 0.154876 0 0.00647629
0.151552 0.0334755 0 0.00316071
0.151552 0.038372 0 0.00435587
0.151552 0.0434463 0 0.00570236
0.151552 0.0487048 0 0.00717026
0.075776 0.141566 0 0.0291388
0.151552 0.0541543 0 0.00872819
0.151552 0.0598016 0 0.0103444
0 0.16418 0 0.0067252
0.151552 0.0656539 0 0.0119552
0.151552 0.0717187 0 0.013356
0.075776 0.150387 0 0.0302127
0.151552 0.0780037 0 0.0145581
0.151552 0.0845169 0 0.0157787
0 0.173822 0 0.0069898
0.075776 0.159528 0 0.0308598
0.151552 0.0912666 0 0.0170634
0.151552 0.0982613 0 0.0184062
0 0.183814 0 0.00726905
0.151552 0.10551 0 0.0198053
0.075776 0.169001 3.46945e-18 0.0310115
0.151552 0.113022 0 0.021267
0.151552 0.120806 0 0.0228036
0 0.194169 0 0.00756139
0.075776 0.178818 3.46945e-18 0.0307169
0.151552 0.128874 0 0.0244193
0.075776 0.188992 3.46945e-18 0.0296103
0.151552 0.137234 0 0.0259729
0 0.2049 0 0.00786465
0.151552 0.145897 0 0.0272817
0.075776 0.199535 0 0.0275173
0 0.21602 0 0.00820017
0.151552 0.154876 0 0.0283095
0.219992 0.00184055 0 2.22861e-06
0.219992 0.00558849 0 5.11752e-06
0.219992 0.00947248 -3.46945e-18 2.11738e-05
0.219992 0.0134975 3.46945e-18 7.16329e-05
0.219992 0.0176687 0 0.000197596
0.219992 0.0219913 0 0.000440349
0.219993 0.0264709 -3.46945e-18 0.000816912
0.219992 0.031113 -3.46945e-18 0.00133354
0.219992 0.0359238 3.46945e-18 0.00199374
0.151552 0.16418 0 0.0290292
0.075776 0.21046 0 0.0254969
0.219992 0.0409092 3.46945e-18 0.00279758
0.219992 0.0460755 0 0.00374187
0.219993 0.0514296 -3.46945e-18 0.00482082
0.219992 0.0569779 0 0.00602506
0 0.227544 0 0.00861377
0.219992 0.0627277 3.46945e-18 0.0073441
0.219992 0.0686863 0 0.00876623
0.151552 0.173822 0 0.0294183
0.219992 0.0748612 3.46945e-18 0.0102773
0.075776 0.221782 0 0.0239901
0.219992 0.0812603 3.46945e-18 0.011861
0.219992 0.0878917 -3.46945e-18 0.013499
0.151552 0.183814 0 0.0294176
7.47806e-17 0.239487 0 0.00909818
0.219992 0.0947639 3.46945e-18 0.015168
0.219993 0.101886 3.46945e-18 0.0168413
0.075776 0.233516 0 0.0231838
0.219993 0.109266 0 0.0184927
0.151552 0.194169 0 0.028872
0.219993 0.116914 0 0.0201009
0 0.251863 0 0.0096218
0.219993 0.12484 0 0.0216393
0.151552 0.2049 0 0.0279741
0.075776 0.245675 0 0.0226366
0.219992 0.133054 3.46945e-18 0.0230941
0.219992 0.141565 0 0.0244476
0.151552 0.21602 0 0.0271251
0 0.264688 0 0.0101842
0.219992 0.150387 3.46945e-18 0.0256952
0.075776 0.258275 3.46945e-18 0.0222813
0.219992 0.159528 -3.46945e-18 0.026812
0.151552 0.227544 0 0.0264945
0.219992 0.169001 3.46945e-18 0.027726
0 0.27798 0 0.0107863
0.075776 0.271334 3.46945e-18 0.0221018
0.151552 0.239487 3.70071e-18 0.0260215
0.219992 0.178818 3.46945e-18 0.0284405
0.288433 0 0 0
0.288433 0.00368111 0 2.89962e-06
0.288433 0.00749587 0 1.13071e-05
0.288433 0.0114491 0 3.75196e-05
0.288433 0.0155459 3.70071e-18 0.000102744
0.288433 0.0197915 0 0.000241583
0.288433 0.0241911 3.70071e-18 0.000479938
0.288433 0.0287506 0 0.000830047
0.219992 0.188991 0 0.029017
0.288433 0.0334755 0 0.00130032
0.288433 0.038372 0 0.00189369
0.288433 0.0434463 0 0.00261052
7.47806e-17 0.291753 0 0.0114286
0.288433 0.0487048 0 0.0034489
0.288433 0.0541543 0 0.00440458
0.151552 0.251863 0 0.0255881
0.288433 0.0598016 3.70071e-18 0.00547116
0.075776 0.284866 0 0.0220748
0.288433 0.0656539 3.70071e-18 0.00664025
0.219992 0.199534 0 0.0292959
0.288433 0.0717187 0 0.00790104
0.288433 0.0780037 0 0.00923967
0.288433 0.0845169 0 0.0106387
0.288433 0.0912666 0 0.0120318
0.219992 0.21046 -3.46945e-18 0.0293616
0.288433 0.0982613 0 0.0131292
0.151552 0.264688 3.70071e-18 0.0251846
0 0.306027 0 0.0121275
0.288433 0.10551 0 0.0139909
0.075776 0.29889 3.46945e-18 0.0221803
0.288433 0.113022 0 0.0149165
0.219993 0.221782 0 0.0292871
0.288433 0.120806 0 0.01584
0.288433 0.128874 0 0.0166689
0.151552 0.27798 0 0.0249031
0.288433 0.137234 0 0.0173969
0 0.320819 0 0.0130029
0.219992 0.233515 -3.46945e-18 0.0290717
0.075776 0.313423 -3.46945e-18 0.0224856
0.288433 0.145897 0 0.0180659
0.288433 0.154876 0 0.0186948
0.151552 0.291753 0 0.0247101
0.219993 0.245675 0 0.0287176
0.288433 0.16418 0 0.0192522
0 0.336148 0 0.014346
0.288433 0.173822 0 0.0197153
0.075776 0.328484 -3.46945e-18 0.0235698
0.219993 0.258275 -3.46945e-18 0.0282379
0.151552 0.306027 0 0.0245024
0.288433 0.183814 0 0.020096
0.288433 0.194169 0 0.020369
0.219992 0.271334 3.46945e-18 0.0276594
0.350249 0.00184056 -3.46945e-18 8.66255e-07
0.350249 0.00558849 0 3.49987e-06
0.350249 0.00947248 3.46945e-18 1.57076e-05
0.350249 0.0134975 0 4.28706e-05
0.350249 0.0176687 0 0.000103562
0.350249 0.0219913 0 0.000236205
0.350249 0.0264708 3.46945e-18 0.000448145
0.350249 0.031113 0 0.000757632
0 0.352034 0 0.0155091
0.350249 0.0359238 0 0.00116976
0.075776 0.344091 0 0.0264041
0.350249 0.0409091 0 0.00168745
0.350249 0.0460756 3.46945e-18 0.00231205
0.288433 0.2049 0 0.0205156
0.350249 0.0514296 0 0.0030432
0.151552 0.320819 0 0.0244545
0.350249 0.0569779 0 0.00387888
0.350249 0.0627277 3.46945e-18 0.00481488
0.350249 0.0686863 3.46945e-18 0.00584365
0.350249 0.0748612 3.46945e-18 0.00695508
0.350249 0.0812603 0 0.00813408
0.219992 0.284867 0 0.0273458
0.288433 0.21602 0 0.0205729
0.350249 0.0878917 0 0.00936055
0.350249 0.094764 0 0.0104376
0.350249 0.101886 0 0.0104921
0.350249 0.109266 0 0.0106771
0.288433 0.227544 0 0.0205569
0.075776 0.360265 3.46945e-18 0.026318
0 0.368496 0 0.0157154
0.151552 0.336148 0 0.0249785
0.350249 0.116914 3.46945e-18 0.0110382
0.219992 0.29889 0 0.026845
0.370854 0.0241911 1.54074e-33 0.000349443
0.350249 0.12484 0 0.0113195
0.350249 0.133054 0 0.0114584
0.288433 0.239487 -9.25154e-19 0.0204663
0.350249 0.141566 3.46945e-18 0.011522
0.350249 0.150387 3.46945e-18 0.0116258
0.288433 0.251863 0 0.0203027
0.219992 0.313423 0 0.0261674
0.151552 0.352034 0 0.0252041
0.075776 0.377027 0 0.0245472
0.350249 0.159528 0 0.011754
0 0.385557 0 0.0152471
0.350249 0.169001 0 0.0118914
0.288433 0.264688 0 0.0200727
0.350249 0.178818 0 0.0120289
0.219992 0.328484 0 0.0253776
0.350249 0.188992 0 0.0121617
0.151552 0.368496 0 0.0242803
0.288433 0.27798 3.70071e-18 0.0198675
0.075776 0.394397 0 0.0224125
0.350249 0.199535 0 0.0122879
7.47806e-17 0.403236 0 0.0148306
0.219992 0.344091 0 0.0245641
0.350249 0.21046 -3.46945e-18 0.0124068
0.288433 0.291753 0 0.0196664
0.412065 9.08189e-19 3.08149e-33 2.37543e-22
0.412065 0.00368111 -2.31298e-18 2.10781e-06
0.412065 0.00749587 -2.31298e-18 9.70739e-06
0.412065 0.0114491 -2.31298e-18 2.78608e-05
0.412065 0.0155459 -2.31298e-18 6.47944e-05
0.412065 0.0197915 0 0.000142684
0.412065 0.0241911 -3.08149e-33 0.000284196
0.412065 0.0264709 0 0.00039336
0.412065 0.0287506 -2.31298e-18 0.000502523
0.412065 0.0334755 -2.31298e-18 0.000807723
0.412065 0.038372 -2.31298e-18 0.00120612
0.151552 0.385557 0 0.0228097
0.412065 0.0434463 0 0.00170008
0.350249 0.221782 0 0.0125164
0.412065 0.0487048 0 0.00229034
0.412065 0.0541543 -3.08149e-33 0.00297596
0.412065 0.0569779 0 0.00336497
0.412065 0.0598016 -2.31298e-18 0.00375398
0.412065 0.0656539 -2.31298e-18 0.00461875
0.412065 0.0717187 -2.31298e-18 0.00556132
0.075776 0.412396 -3.46945e-18 0.0217519
0.412065 0.0780037 -2.31298e-18 0.00656855
0.288433 0.306027 0 0.0193647
0.412065 0.0845169 -2.31298e-18 0.00757292
0.350249 0.233516 3.46945e-18 0.0126134
0 0.421557 0 0.0148153
0.412065 0.0912666 -2.31298e-18 0.00833494
0.219992 0.360265 3.46945e-18 0.0237063
0.412065 0.0982613 0 0.00863889
0.412065 0.10551 0 0.00873104
0.412065 0.113022 -2.31298e-18 0.00890109
0.350249 0.245675 0 0.0126945
0.412065 0.120806 0 0.00909375
0.151552 0.403236 0 0.0215926
0.288433 0.320819 0 0.0189818
0.412065 0.128874 -2.31298e-18 0.00923059
0.412065 0.137234 0 0.00931364
0.350249 0.258275 -3.46945e-18 0.0127552
0.219992 0.377026 0 0.022725
0.412065 0.145897 -2.31298e-18 0.00938893
0.075776 0.431051 0 0.0216898
0.412065 0.154876 -2.31298e-18 0.00948006
0 0.440544 0 0.0149344
0.288433 0.336148 0 0.0185564
0.350249 0.271334 0 0.0127883
0.412065 0.16418 -2.31298e-18 0.00957865
0.412065 0.173822 -2.31298e-18 0.00967883
0.151552 0.421557 0 0.0209192
0.412065 0.183814 -2.31298e-18 0.0097772
0.350249 0.284867 3.46945e-18 0.0127907
0.219992 0.394397 0 0.0216555
0.288433 0.352034 3.70071e-18 0.0181058
0.412065 0.194169 0 0.00987205
0.075776 0.450382 0 0.0217254
0.412065 0.2049 -2.31298e-18 0.00996266
0 0.46022 0 0.0150636
0.350249 0.29889 3.46945e-18 0.0127675
0.412065 0.21602 0 0.0100482
0.151552 0.440544 0 0.0204883
0.219993 0.412396 3.46945e-18 0.0206245
0.467897 0.00184056 -3.46945e-18 6.06129e-07
0.467897 0.00558849 0 3.46954e-06
0.288433 0.368496 0 0.0176038
0.467897 0.00947248 0 1.61384e-05
0.467897 0.0134975 0 3.69264e-05
0.467897 0.0176687 3.46945e-18 7.69944e-05
0.467897 0.0219913 -3.46945e-18 0.000157771
0.467897 0.0264709 3.46945e-18 0.000302752
0.467897 0.0311131 3.46945e-18 0.000515565
0.467897 0.0359238 -3.46945e-18 0.000809687
0.467897 0.038372 0 0.00104035
0.467897 0.0409092 3.46945e-18 0.00118861
0.350249 0.313423 0 0.0127199
0.467897 0.0460755 0 0.001654
0.467897 0.0514296 3.46945e-18 0.0022061
0.412065 0.227544 -2.31298e-18 0.0101273
0.467897 0.0569779 0 0.00284329
0.467897 0.0627277 -3.46945e-18 0.00356151
0.467897 0.0686863 3.46945e-18 0.00435398
0.467897 0.0748612 0 0.00520935
0.467897 0.0812603 0 0.00611167
0.467897 0.0878918 3.46945e-18 0.00684899
0.075776 0.470415 3.46945e-18 0.0217975
0.412065 0.239487 -2.31298e-18 0.0101981
0.467897 0.0947639 -3.46945e-18 0.00691043
0.467897 0.101886 3.46945e-18 0.00696963
0.350249 0.328483 0 0.0126516
0.467897 0.109266 0 0.0070433
0 0.48061 0 0.0151878
0.288433 0.385557 0 0.0170358
0.467897 0.116914 0 0.00711799
0.412065 0.251863 -2.31298e-18 0.0102585
0.219992 0.431051 0 0.0197322
0.467897 0.12484 0 0.0071894
0.151552 0.46022 0 0.0201611
0.467897 0.133054 3.46945e-18 0.00725527
0.467897 0.141566 3.46945e-18 0.00732154
0.412065 0.264688 -2.31298e-18 0.0103059
0.350249 0.344091 -3.46945e-18 0.0125662
0.467897 0.150387 3.46945e-18 0.00739007
0.467897 0.154876 0 0.00794892
0.467897 0.159528 3.46945e-18 0.00745739
0.288433 0.403236 0 0.0164403
0.075776 0.491175 0 0.0218763
0.412065 0.27798 -2.31298e-18 0.0103381
0.467897 0.169001 0 0.00752351
0.467897 0.178818 3.46945e-18 0.00758831
0.219992 0.450382 0 0.0189905
6.73026e-17 0.501741 3.70071e-18 0.015275
0.350249 0.360265 0 0.0124636
0.151552 0.48061 0 0.0198975
0.467897 0.188991 0 0.00765167
0.412065 0.291753 0 0.0103554
0.467897 0.199535 0 0.00771343
0.288433 0.421557 0 0.0158774
0.467897 0.21046 0 0.00777335
0.412065 0.306027 0 0.0103583
0.350249 0.377027 0 0.0123358
0.467897 0.221782 3.46945e-18 0.00783106
0.075776 0.51269 0 0.0218556
0.219993 0.470415 3.46945e-18 0.0183738
0.467897 0.227544 0 0.00845487
0.412065 0.320819 -2.31298e-18 0.0103471
0.467897 0.233515 0 0.00788619
6.73026e-17 0.523639 3.70071e-18 0.0152987
0.523729 0 0 0
0.523729 0.00368111 0 2.00114e-06
0.523729 0.00749587 -2.31298e-18 1.03237e-05
0.523729 0.0114491 0 2.73573e-05
0.523729 0.0155459 0 5.49948e-05
0.523729 0.0197915 -2.31298e-18 0.000105454
0.151552 0.501741 0 0.0196459
0.523729 0.0241911 0 0.000201914
0.523729 0.0287506 0 0.00035723
0.523729 0.0334755 0 0.000577909
0.523729 0.038372 -3.08149e-33 0.000874586
0.523729 0.0434463 0 0.00125016
0.523729 0.0487048 0 0.00170554
0.523729 0.0541543 0 0.00223991
0.288433 0.440544 0 0.0153831
0.523729 0.0598016 0 0.00285024
0.350249 0.394397 -3.46945e-18 0.0121753
0.523729 0.0656539 0 0.00353077
0.467897 0.245675 0 0.00793838
0.523729 0.0717187 0 0.00427216
0.523729 0.0780037 0 0.00505701
0.523729 0.0845169 0 0.00566614
0.523729 0.0912666 0 0.00590889
0.412065 0.336148 0 0.0103229
0.523729 0.0982613 0 0.00597688
0.523729 0.10551 -2.31298e-18 0.00604644
0.467897 0.258275 -3.46945e-18 0.00798748
0.523729 0.113022 0 0.00611609
0.523729 0.120806 -3.08149e-33 0.00618221
0.219993 0.491176 0 0.0178363
0.523729 0.12484 0 0.00621307
0.523729 0.128874 -2.31298e-18 0.00624392
0.075776 0.534986 0 0.0217536
0.467897 0.271334 3.46945e-18 0.00803385
0.350249 0.412396 -3.46945e-18 0.0119874
0.523729 0.137234 0 0.00630259
0.412065 0.352034 -2.31298e-18 0.0102859
0.288433 0.46022 0 0.0149621
0.523729 0.145897 0 0.00636055
0.151552 0.523639 0 0.019376
0.523729 0.154876 -3.08149e-33 0.00641778
0 0.546332 0 0.01527
0.523729 0.159528 0 0.0064457
0.467897 0.284867 -3.46945e-18 0.00807859
0.523729 0.16418 -2.31298e-18 0.00647363
0.523729 0.173822 0 0.00652821
0.412065 0.368496 0 0.010234
0.523729 0.183814 0 0.00658158
0.467897 0.29889 0 0.00811982
0.350249 0.431051 -3.46945e-18 0.0117886
0.219992 0.51269 0 0.0173511
0.523729 0.194169 0 0.00663375
0.288433 0.48061 0 0.0146013
0.523729 0.2049 0 0.00668468
0.467897 0.313423 3.46945e-18 0.00815554
0.075776 0.558091 0 0.021596
0.412065 0.385557 0 0.0101632
0.523729 0.21602 -3.08149e-33 0.00673429
0.151552 0.546332 0 0.019096
0 0.569849 0 0.0152022
0.350249 0.450382 3.46945e-18 0.0115969
0.523729 0.227544 -3.08149e-33 0.00678243
0.467897 0.328483 0 0.00818422
0.523729 0.231525 1.54074e-33 0.00679795
0.574156 0.00184056 0 4.68715e-07
0.574156 0.00558849 0 3.46507e-06
0.574157 0.00947248 0 1.81542e-05
0.574156 0.0134975 -3.46945e-18 3.81028e-05
0.574156 0.0176687 -3.46945e-18 6.82145e-05
0.574156 0.0219913 0 0.0001204
0.574156 0.0264708 -3.46945e-18 0.000230452
0.574156 0.031113 0 0.000386968
0.574156 0.0359238 -3.46945e-18 0.000610536
0.574157 0.0409092 0 0.000905861
0.523729 0.239487 3.70071e-18 0.006829
0.574156 0.0460755 -3.46945e-18 0.00127464
0.574156 0.0514295 0 0.00171688
0.412065 0.403236 0 0.0100726
0.574157 0.0569779 0 0.00223071
0.574156 0.0627277 0 0.00281165
0.574156 0.0686863 0 0.00345193
0.219992 0.534986 0 0.0169105
0.288433 0.501741 0 0.0142838
0.574156 0.0748612 3.46945e-18 0.00414017
0.574156 0.0812603 0 0.00484595
0.467897 0.344091 0 0.00820462
0.574156 0.0878917 3.46945e-18 0.00496458
0.523729 0.251863 0 0.00687391
0.574157 0.0947639 0 0.00503867
0.574156 0.101886 0 0.00511486
0.574156 0.109266 0 0.00518361
0.574156 0.116914 0 0.00524567
0.412065 0.416977 -6.16298e-33 0.00999374
0.350249 0.470415 0 0.0114248
0.523729 0.264688 0 0.00691731
0.075776 0.582034 0 0.0214014
0.574156 0.12484 0 0.00530286
0.574156 0.133054 3.46945e-18 0.00535611
0.412065 0.421557 -2.31298e-18 0.00996746
0.151552 0.569849 0 0.0188162
0.467897 0.360265 -3.46945e-18 0.00821616
0.574157 0.141566 -3.46945e-18 0.00540631
0.523729 0.27798 0 0.00695956
0.574156 0.150386 3.46945e-18 0.00545436
0 0.594219 0 0.0151047
0.574156 0.159528 -3.46945e-18 0.00550072
0.574156 0.16418 0 0.00570554
0.288433 0.523639 1.2326e-32 0.0139992
0.574157 0.169001 0 0.00554569
0.523729 0.291753 0 0.00700034
0.219993 0.558091 3.46945e-18 0.0165129
0.467897 0.377026 0 0.00821848
0.574156 0.178818 3.46945e-18 0.0055895
0.412065 0.440544 -2.31298e-18 0.00985752
0.350249 0.491175 0 0.0112764
0.574156 0.188992 3.46945e-18 0.00563234
0.523729 0.306027 -3.08149e-33 0.00703839
0.574157 0.199535 0 0.00567435
0.574157 0.21046 0 0.00571564
0.075776 0.606847 0 0.0211829
0.467897 0.394397 0 0.00821083
0.151552 0.594219 0 0.0185439
0.523729 0.320819 0 0.00707242
0.574157 0.221782 -3.46945e-18 0.00575628
0.412065 0.46022 3.08149e-33 0.00975233
0.288433 0.546332 0 0.0137435
0 0.619475 0 0.0149849
0.574156 0.233515 3.46945e-18 0.00579638
0.350249 0.51269 3.46945e-18 0.0111486
0.219992 0.582034 3.46945e-18 0.016159
0.523729 0.336148 0 0.00710138
0.467897 0.412396 0 0.00819254
0.574156 0.245675 0 0.00583605
0.624584 0 0 0
0.624584 0.00368111 0 1.9561e-06
0.624584 0.00749587 0 1.1472e-05
0.624584 0.0114491 0 2.97689e-05
0.624584 0.0155459 0 5.37816e-05
0.624584 0.0197915 0 9.00121e-05
0.624584 0.0241911 -2.31298e-18 0.000158571
0.624584 0.0287506 0 0.000276148
0.624584 0.0334755 0 0.000447224
0.624584 0.038372 0 0.000679659
0.624584 0.0434463 -2.31298e-18 0.000979925
0.624584 0.0487048 0 0.00134902
0.624584 0.0541543 0 0.00178587
0.624584 0.0598016 0 0.00228713
0.624584 0.0656539 0 0.00284638
0.624584 0.0717187 0 0.00345366
0.624584 0.0780037 0 0.00403523
0.574157 0.258276 3.46945e-18 0.00587542
0.624584 0.0845169 0 0.00435389
0.523729 0.352034 0 0.00712449
0.624584 0.0912666 0 0.0044426
0.624584 0.0982613 0 0.00451668
0.412065 0.48061 3.08149e-33 0.00965835
0.624584 0.10551 0 0.00458599
0.624584 0.113022 -2.31298e-18 0.00464819
0.574156 0.271334 0 0.00591463
0.624584 0.120806 0 0.00470482
0.467897 0.431051 0 0.00816472
0.075776 0.632561 -3.46945e-18 0.0209493
0.624584 0.128874 0 0.00475707
0.151552 0.619475 0 0.0182824
0.288433 0.569849 0 0.0135154
0.350249 0.534985 0 0.0110373
0.624584 0.137234 -2.31298e-18 0.00480578
0.523729 0.368496 0 0.00714135
0.574156 0.284866 -3.46945e-18 0.00595365
0.624584 0.145897 0 0.00485173
0.467897 0.440544 0 0.0084993
0.624584 0.154876 0 0.00489548
0.219992 0.606847 -3.46945e-18 0.0158458
0 0.645647 0 0.0148485
0.624584 0.16418 -3.08149e-33 0.00493744
0.574156 0.29889 -3.46945e-18 0.00599196
0.624584 0.173822 0 0.00497795
0.412065 0.501741 1.54074e-33 0.00957762
0.467897 0.450382 -3.46945e-18 0.00813119
0.523729 0.385557 0 0.00715159
0.624584 0.183814 0 0.00501727
0.624584 0.194169 0 0.0050556
0.574156 0.313423 0 0.00602881
0.624584 0.2049 0 0.00509313
0.350249 0.558091 3.46945e-18 0.0109399
0.288433 0.594219 0 0.013314
0.624584 0.21602 0 0.00512999
0.523729 0.403236 0 0.00715472
0.574156 0.328483 -3.46945e-18 0.00606334
0.151552 0.645647 0 0.0180331
0.467897 0.470415 3.46945e-18 0.00809695
0.075776 0.659208 0 0.0207065
0.624584 0.227544 0 0.00516632
0.412065 0.523639 0 0.00950925
0.523729 0.41545 3.08149e-33 0.00715208
0.624584 0.239487 3.70071e-18 0.00520226
0.574156 0.344091 0 0.00609483
0.219992 0.632561 0 0.0155695
0.67013 0.00184055 0 3.73536e-07
0.67013 0.00558849 0 3.51852e-06
0.67013 0.00947248 0 2.06697e-05
0.67013 0.0134975 0 4.19493e-05
0.67013 0.0176687 -3.46945e-18 6.67848e-05
0.67013 0.0219913 0 0.000105176
0.67013 0.0264708 3.46945e-18 0.00018032
0.67013 0.0311131 0 0.000310838
0.67013 0.0359237 0 0.000486861
0.67013 0.0409092 -3.46945e-18 0.000724991
0.67013 0.0460755 0 0.00102771
0.67013 0.0514296 3.46945e-18 0.00139482
0.523729 0.421557 -2.31298e-18 0.00715076
0.67013 0.056978 0 0.00182407
0 0.67277 0 0.0147
0.67013 0.0627277 0 0.00231069
0.624584 0.251863 0 0.00523794
0.67013 0.0686863 0 0.00284616
0.67013 0.0748612 3.46945e-18 0.00341824
0.67013 0.0812603 0 0.0037925
0.67013 0.0878917 0 0.00387984
0.67013 0.0947639 3.46945e-18 0.00395551
0.574156 0.360265 0 0.00612279
0.67013 0.101886 0 0.00402599
0.523729 0.431051 0 0.00714592
0.624584 0.264688 0 0.00527347
0.467897 0.491175 0 0.00806642
0.67013 0.109266 3.46945e-18 0.00408819
0.350249 0.582034 0 0.0108548
0.67013 0.116914 0 0.00414436
0.67013 0.12484 0 0.00419579
0.67013 0.133054 0 0.00424325
0.288433 0.619475 0 0.0131376
0.624584 0.27798 -3.08149e-33 0.00530889
0.412065 0.546332 1.54074e-33 0.00945181
0.523729 0.440544 -3.08149e-33 0.00714107
0.67013 0.141566 3.46945e-18 0.00428755
0.685312 0.0241911 -7.70372e-34 0.00014138
0.685312 0.0434463 -7.70372e-34 0.000859452
0.67013 0.150387 0 0.00432916
0.574156 0.377026 -3.46945e-18 0.006147
0.67013 0.159528 0 0.00436854
0.624584 0.291753 0 0.00534401
0.151552 0.67277 0 0.0177965
0.075776 0.686823 0 0.0204586
0.67013 0.169001 0 0.00440611
0.67013 0.178818 0 0.00444223
0.467897 0.51269 0 0.00804205
0.685312 0.113022 -7.70372e-34 0.004047
0.219992 0.659208 0 0.0153261
0.624584 0.306027 0 0.00537844
0.67013 0.188991 0 0.00447717
0.574156 0.394397 3.46945e-18 0.00616723
0.523729 0.46022 0 0.00712837
0.685312 0.137234 -7.70372e-34 0.004196
0.67013 0.199535 -3.46945e-18 0.00451118
0.350249 0.606847 0 0.0107817
0 0.700877 0 0.014543
0.624584 0.320819 0 0.00541165
0.67013 0.21046 0 0.00454444
0.412065 0.569849 -2.31298e-18 0.0094041
0.67013 0.221782 -3.46945e-18 0.00457715
0.574157 0.412396 0 0.0061832
0.288433 0.645647 0 0.0129842
0.624584 0.336148 -3.08149e-33 0.00544306
0.67013 0.233515 3.46945e-18 0.00460948
0.467897 0.534986 0 0.0080247
0.523729 0.48061 0 0.00711587
0.624584 0.344091 0 0.00545765
0.67013 0.245675 0 0.00464157
0.715676 4.54095e-19 0 5.57874e-23
0.715676 0.00368111 0 1.94729e-06
0.715676 0.00749587 0 1.27998e-05
0.715676 0.0114491 0 3.32189e-05
0.715676 0.0155459 0 5.61904e-05
0.715676 0.0197915 0 8.48146e-05
0.715676 0.0241911 0 0.000132784
0.715676 0.0287506 0 0.000223437
0.715676 0.0334755 0 0.000363484
0.715676 0.038372 0 0.000552243
0.624584 0.352034 -2.31298e-18 0.00547223
0.715676 0.0434463 0 0.000799215
0.151552 0.700877 0 0.0175724
0.715676 0.0487048 0 0.00110727
0.715676 0.0541543 0 0.00147528
0.574156 0.43105 0 0.00619486
0.715676 0.0598016 0 0.00189965
0.67013 0.258275 0 0.00467357
0.715676 0.0656539 0 0.00237373
0.715676 0.0717187 0 0.00288707
0.075776 0.715441 0 0.0202089
0.715676 0.0780037 0 0.00328968
0.715676 0.0845169 0 0.00347047
0.219992 0.686824 0 0.0151117
0.715676 0.0912666 0 0.00355153
0.715676 0.0982613 0 0.00362391
0.67013 0.271334 -3.46945e-18 0.00470551
0.350249 0.632561 -3.46945e-18 0.0107208
0.412065 0.594219 3.08149e-33 0.0093655
0.715676 0.10551 0 0.00368866
0.715676 0.113022 0 0.0037464
0.624584 0.368496 0 0.00549886
0.523729 0.501741 0 0.00710629
0.715676 0.120806 0 0.00379878
0.715676 0.128874 0 0.00384676
0.67013 0.284867 0 0.00473738
0.467897 0.558091 3.46945e-18 0.00801421
0.715676 0.137234 0 0.00389111
0.574156 0.450382 0 0.00620291
0 0.730005 0 0.0143806
0.715676 0.145897 0 0.00393248
0.288433 0.67277 0 0.012852
0.715676 0.154876 0 0.00397134
0.67013 0.29889 0 0.00476904
0.624584 0.385557 0 0.00552274
0.715676 0.16418 -9.25187e-19 0.00400811
0.715676 0.173822 0 0.00404318
0.715676 0.183814 0 0.00407683
0.67013 0.313423 0 0.00480026
0.523729 0.523639 0 0.0071013
0.715676 0.194169 0 0.00410934
0.574156 0.470415 3.46945e-18 0.00620889
0.624584 0.403236 0 0.00554368
0.743101 0.0241911 -7.70372e-34 0.000128184
0.412065 0.619475 3.08149e-33 0.00933596
0.715676 0.2049 0 0.00414093
0.151552 0.730005 0 0.0173607
0.67013 0.328484 3.46945e-18 0.0048307
0.350249 0.659208 0 0.010672
0.467897 0.582034 0 0.00801008
0.715676 0.21602 0 0.00417179
0.219992 0.715441 0 0.0149228
0.075776 0.745097 -3.46945e-18 0.0199604
0.715676 0.227544 0 0.00420211
0.67013 0.344091 0 0.00486001
0.624584 0.421557 0 0.00556154
0.743101 0.128874 -7.70372e-34 0.00364296
0.715676 0.239487 3.70071e-18 0.00423204
0.574156 0.491175 0 0.00621492
0.756814 0.00184055 0 3.01768e-07
0.523729 0.546332 0 0.00710164
0.756813 0.00558849 0 3.5953e-06
0.756813 0.00947248 0 2.33369e-05
0.756814 0.0134975 -3.46945e-18 4.67053e-05
0.756814 0.0155459 0 5.81451e-05
0.756814 0.0176687 0 6.91175e-05
0.756814 0.0219913 0 9.83139e-05
0.756814 0.0264709 0 0.000148454
0.756814 0.031113 -3.46945e-18 0.00025664
0.756813 0.0359238 -3.46945e-18 0.000403596
0.288433 0.700877 0 0.012739
0.756814 0.0409092 -3.46945e-18 0.00059959
0.756813 0.0460755 3.46945e-18 0.000853291
0.756813 0.0514296 0 0.00116501
0.715676 0.251863 0 0.00426172
0.756813 0.0569779 0 0.00153237
0.756814 0.0627277 -3.46945e-18 0.0019504
0.756814 0.0686863 -3.46945e-18 0.00241079
0 0.76019 0 0.0142156
0.756814 0.0748612 0 0.00290075
0.67013 0.360265 3.46945e-18 0.00488791
0.756814 0.0812603 -3.46945e-18 0.00308282
0.756814 0.0878917 -3.46945e-18 0.00316792
0.756814 0.0947639 -3.46945e-18 0.0032441
0.715676 0.264688 0 0.00429123
0.756813 0.101886 0 0.00331132
0.624584 0.440544 0 0.0055765
0.756813 0.109266 3.46945e-18 0.00337059
0.756813 0.116914 3.46945e-18 0.00342407
0.412065 0.645647 0 0.00931561
0.467897 0.606847 0 0.00801211
0.756814 0.120806 0 0.00349383
0.756813 0.12484 0 0.00347268
0.715676 0.27798 0 0.0043206
0.756814 0.133054 -3.46945e-18 0.00351722
0.67013 0.377026 -3.46945e-18 0.00491419
0.756814 0.137234 0 0.00358461
0.574156 0.51269 0 0.00622297
0.756813 0.141566 3.46945e-18 0.00355848
0.685312 0.352034 -7.70372e-34 0.00479864
0.743101 0.2049 -7.70372e-34 0.00393126
0.350249 0.686824 0 0.0106352
0.756814 0.150387 0 0.00359695
0.756814 0.154876 0 0.00366301
0.715676 0.291753 0 0.00434982
0.756814 0.159528 -3.46945e-18 0.0036331
0.523729 0.569849 0 0.0071074
0.72743 0.264688 0 0.00419883
0.756814 0.16418 0 0.00369876
0.151552 0.76019 0 0.0171614
0.756813 0.169001 3.46945e-18 0.00366728
0.624584 0.46022 0 0.00558927
0.219993 0.745097 0 0.0147565
0.67013 0.394396 0 0.00493869
0.756813 0.178818 -3.46945e-18 0.00369983
0.715676 0.306027 0 0.00437875
0.075776 0.775831 0 0.0197157
0.756813 0.188991 0 0.00373102
0.756814 0.199535 0 0.00376111
0.715676 0.320819 0 0.00440722
0.574156 0.534985 0 0.00623445
0.288433 0.730005 0 0.0126436
0.756813 0.21046 0 0.00379031
0.467897 0.632561 0 0.00802044
0.67013 0.412396 -3.46945e-18 0.00496128
0.624584 0.48061 -3.08149e-33 0.00560114
0.756814 0.221782 0 0.00381881
0.412065 0.67277 3.08149e-33 0.00930459
0.715676 0.336148 0 0.004435
0 0.791472 0 0.0140507
0.756813 0.233516 3.46945e-18 0.00384677
0.523729 0.594219 0 0.00711849
0.624584 0.487654 1.54074e-33 0.0056053
0.756814 0.245675 3.46945e-18 0.00387434
0.350249 0.715441 3.46945e-18 0.0106101
0.67013 0.43105 0 0.0049819
0.715676 0.352034 -9.25187e-19 0.00446184
0.797951 9.08189e-19 -3.08149e-33 9.23013e-23
0.797951 0.00368111 2.31298e-18 1.94538e-06
0.797951 0.00749587 2.31298e-18 1.41353e-05
0.797951 0.0114491 2.31298e-18 3.69034e-05
0.797951 0.0141803 7.70372e-34 5.23677e-05
0.797951 0.0155459 0 6.00999e-05
0.797951 0.0169611 7.70372e-34 6.80949e-05
0.797951 0.0197915 2.31298e-18 8.40849e-05
0.797951 0.0219913 0 0.000101535
0.797951 0.0241911 3.08149e-33 0.000118985
0.797951 0.0264709 0 0.000152723
0.797951 0.0287506 -3.08149e-33 0.000186461
0.797951 0.0334755 2.31298e-18 0.000302869
0.797951 0.038372 2.31298e-18 0.000463127
0.797951 0.0434463 2.31298e-18 0.000669632
0.797951 0.0487048 0 0.000931487
0.756813 0.258275 -3.46945e-18 0.00390162
0.797951 0.0541543 2.31298e-18 0.00124776
0.797951 0.0598016 2.31298e-18 0.00161479
0.797951 0.0656539 2.31298e-18 0.00202579
0.574156 0.55809 0 0.00625012
0.624584 0.501741 0 0.00561362
0.797951 0.0717187 2.31298e-18 0.00245877
0.797951 0.0780037 -3.08149e-33 0.00274945
0.797951 0.0845169 2.31298e-18 0.00286534
0.797951 0.0912666 -3.08149e-33 0.00294643
0.797951 0.0982613 2.31298e-18 0.00301829
0.756813 0.271334 0 0.00392868
0.797951 0.10551 2.31298e-18 0.00308147
0.715676 0.368496 0 0.00448756
0.151552 0.791472 0 0.0169748
0.797951 0.113022 2.31298e-18 0.00313785
0.219992 0.775831 3.46945e-18 0.0146109
0.797951 0.118211 7.70372e-34 0.00317186
0.770526 0.239487 1.54074e-33 0.00380605
0.797951 0.120806 0 0.00318887
0.67013 0.450382 3.46945e-18 0.00500067
0.797951 0.128874 3.08149e-33 0.00323537
0.467897 0.659208 0 0.00803537
0.756813 0.284866 -3.46945e-18 0.00395555
0.743101 0.320819 -7.70372e-34 0.00418593
0.797951 0.137234 0 0.00327811
0.797951 0.141566 0 0.00329791
0.797951 0.145897 -9.25187e-19 0.00331772
0.523729 0.619475 0 0.00713493
0.075776 0.807681 0 0.0194775
0.797951 0.150387 0 0.0033362
0.797951 0.154876 0 0.00335469
0.715676 0.385557 0 0.004512
0.412065 0.700877 3.08149e-33 0.00930297
0.288433 0.76019 0 0.0125645
0.756813 0.29889 0 0.00398223
0.797951 0.16418 0 0.0033894
0.624584 0.523639 0 0.00562813
0.797951 0.167394 7.70372e-34 0.00340034
0.797951 0.173822 2.31298e-18 0.00342221
0.574156 0.582034 0 0.0062702
0.67013 0.470415 0 0.00501816
0.797951 0.183814 2.31298e-18 0.0034534
0.756813 0.313423 -3.46945e-18 0.00400864
0.797951 0.194169 -9.25187e-19 0.00348323
0.715676 0.403236 0 0.00453506
0.151552 0.807681 0 0.0168882
0.797951 0.197746 -7.70372e-34 0.00349279
0.350249 0.745097 0 0.0105963
0.797951 0.2049 3.08149e-33 0.00351192
0 0.823889 0 0.0138886
0.756813 0.328483 -3.46945e-18 0.00403468
0.797951 0.21046 0 0.0035258
0.797951 0.21602 -3.08149e-33 0.00353968
0.797951 0.223703 7.70372e-34 0.00355767
0.797951 0.227544 9.25187e-19 0.00356667
0.624584 0.546332 0 0.00564569
0.715676 0.421557 0 0.00455666
0.67013 0.491176 -3.46945e-18 0.00503529
0.797951 0.231525 7.70372e-34 0.00357546
0.467897 0.686824 -3.46945e-18 0.00805725
0.523729 0.645647 0 0.00715694
0.756813 0.344091 -3.46945e-18 0.00406018
0.822721 0.120806 7.70372e-34 0.00304286
0.797951 0.239487 -3.08149e-33 0.00359305
0.822721 0.137234 7.70372e-34 0.00313207
0.835106 0.00184056 0 2.46472e-07
0.835106 0.00558849 0 3.63844e-06
0.835106 0.00947248 0 2.59025e-05
0.835106 0.0134975 0 5.14761e-05
0.835107 0.0176687 0 7.2876e-05
0.835106 0.0219913 -3.46945e-18 9.59954e-05