# nutMean  POINT_DATA 63840
# x  y  z  nutMean
0 0.5 3.39583e-17 0.0152678
0 0.5 -0.00617931 0.0153169
0 0.5 0.00617931 0.0152242
0.0124865 0.5 -0.00617931 0.0164288
0.0124865 0.5 0.00617931 0.0162967
0 0.5 -0.0688207 0.0157284
0 0.5 0.0688207 0.0147331
0.0124865 0.5 -0.0688207 0.0168403
0.0124865 0.5 0.0688207 0.0158057
0 0.5 -0.075 0.0157607
0 0.5 0.075 0.0146795
0 0.5 -0.0811793 0.0157991
0 0.5 0.0811793 0.014631
0.0124865 0.5 -0.0811793 0.0169465
0.0124865 0.5 0.0811793 0.0156578
0.075776 0.5 -0.0375 0.0222649
0.075776 0.5 0.0375 0.0214707
0.075776 0.5 -0.1125 0.0229066
0.075776 0.5 0.1125 0.0205803
0 0.5 -0.143821 0.0160495
0 0.5 0.143821 0.0141106
0.0124865 0.5 -0.143821 0.0171969
0.0124865 0.5 0.143821 0.0151373
0 0.5 -0.15 0.0160607
0 0.5 0.15 0.0140562
0.151149 0.5 -0.00137318 0.0196817
0 0.5 -0.156179 0.0160784
0 0.5 0.156179 0.0140064
0.0124865 0.5 -0.156179 0.0172064
0.0124865 0.5 0.156179 0.0149836
0.151149 0.5 0.075 0.0191502
0.151149 0.5 -0.075 0.0200839
0.075776 0.5 -0.1875 0.0229601
0.075776 0.5 0.1875 0.0196554
0.151149 0.5 0.15 0.0184556
0.151149 0.5 -0.15 0.020345
0 0.5 -0.218821 0.0162182
0 0.5 0.218821 0.0134917
0.0124865 0.5 -0.218821 0.0173462
0.0124865 0.5 0.218821 0.0144689
0.219992 0.5 0.0375 0.0176367
0.219993 0.5 -0.0375 0.0176379
0 0.5 -0.225 0.016228
0 0.5 0.225 0.0134403
0 0.5 -0.231179 0.0162447
0 0.5 0.231179 0.013392
0.0124865 0.5 -0.231179 0.0174012
0.0124865 0.5 0.231179 0.0143208
0.219992 0.5 0.1125 0.0171667
0.219993 0.5 -0.1125 0.0178623
0.151149 0.5 -0.225 0.0205143
0.151149 0.5 0.225 0.0177484
0.075776 0.5 -0.2625 0.0232889
0.075776 0.5 0.2625 0.0187641
0.288069 0.5 -0.00137318 0.0143503
0.219992 0.5 0.1875 0.0166447
0.219993 0.5 -0.1875 0.0179988
0 0.5 0.293821 0.0129097
0 0.5 -0.293821 0.016253
0.0124865 0.5 -0.293821 0.0174094
0.0124865 0.5 0.293821 0.0138386
0.288069 0.5 -0.075 0.0144009
0.288069 0.5 0.075 0.0142007
0 0.5 -0.3 0.0162372
0 0.5 0.3 0.0128637
0 0.5 0.306179 0.0128184
0 0.5 -0.306179 0.0162285
0.0124865 0.5 -0.306179 0.0173759
0.0124865 0.5 0.306179 0.0137022
0.288069 0.5 -0.15 0.0145245
0.288069 0.5 0.15 0.0139697
0.151149 0.5 -0.3 0.0205875
0.151149 0.5 0.3 0.0170675
0.219992 0.5 -0.2625 0.0181605
0.219992 0.5 0.2625 0.0161268
0.075776 0.5 0.3375 0.0179439
0.075776 0.5 -0.3375 0.0230979
0.350249 0.5 -0.0375 0.0112343
0.350249 0.5 0.0375 0.0112137
0.288069 0.5 -0.225 0.0146432
0.288069 0.5 0.225 0.013728
0.350249 0.5 0.1125 0.0111891
0.350249 0.5 -0.1125 0.0112911
0 0.5 0.368821 0.0123873
0 0.5 -0.368821 0.0160458
0.0124865 0.5 -0.368821 0.0171932
0.0124865 0.5 0.368821 0.0132711
0 0.5 -0.375 0.0160181
0 0.5 0.375 0.0123483
0 0.5 -0.381179 0.0159962
0 0.5 0.381179 0.0123085
0.0124865 0.5 -0.381179 0.0171128
0.0124865 0.5 0.381179 0.0131535
0.350249 0.5 -0.1875 0.0113748
0.350249 0.5 0.1875 0.0112484
0.219992 0.5 -0.3375 0.018153
0.219992 0.5 0.3375 0.0156082
0.151149 0.5 -0.375 0.0203645
0.151149 0.5 0.375 0.0164368
0.411736 0.5 -0.00137318 0.00960357
0.288069 0.5 -0.3 0.0147574
0.288069 0.5 0.3 0.0134699
0.411736 0.5 -0.075 0.00962037
0.411736 0.5 0.075 0.00958978
0.075776 0.5 -0.4125 0.0226206
0.075776 0.5 0.4125 0.0172298
0.350249 0.5 -0.2625 0.0114717
0.350249 0.5 0.2625 0.0112272
0.411736 0.5 -0.15 0.00968141
0.411736 0.5 0.15 0.00962122
0 0.5 -0.443821 0.0157083
0 0.5 0.443821 0.0119393
0.0124865 0.5 -0.443821 0.016825
0.0124865 0.5 0.443821 0.0127843
0 0.5 -0.45 0.0156738
0 0.5 0.45 0.0119069
0 0.5 -0.456179 0.0156425
0 0.5 0.456179 0.0118739
0.0124865 0.5 -0.456179 0.0167229
0.0124865 0.5 0.456179 0.0126868
0.219992 0.5 -0.4125 0.0179211
0.219993 0.5 0.4125 0.0151188
0.411736 0.5 -0.225 0.00976541
0.411736 0.5 0.225 0.00967034
0.467897 0.5 0.0375 0.00805639
0.467897 0.5 -0.0375 0.00805645
0.288069 0.5 -0.375 0.0147787
0.288069 0.5 0.375 0.0132251
0.151149 0.5 -0.45 0.019976
0.151149 0.5 0.45 0.0158785
0.467897 0.5 -0.1125 0.00809374
0.467897 0.5 0.1125 0.00809042
0.350249 0.5 0.3375 0.0112193
0.350249 0.5 -0.3375 0.0116726
0.075776 0.5 -0.4875 0.0220127
0.075776 0.5 0.4875 0.0166305
0.467897 0.5 -0.1875 0.0081612
0.467897 0.5 0.1875 0.00814576
0.411736 0.5 -0.3 0.0099093
0.411736 0.5 0.3 0.00971368
0 0.5 -0.518821 0.0152949
0 0.5 0.518821 0.0115695
0.0124865 0.5 0.518821 0.0123824
0.0124865 0.5 -0.518821 0.0163753
0.523432 0.5 -0.00137318 0.00711822
0 0.5 -0.525 0.0152582
0 0.5 0.525 0.011543
0.523432 0.5 -0.075 0.00712896
0.523432 0.5 0.075 0.00712917
0 0.5 -0.531179 0.0152215
0 0.5 0.531179 0.0115165
0.0124865 0.5 -0.531179 0.0162638
0.0124865 0.5 0.531179 0.0123032
0.288069 0.5 -0.45 0.0147236
0.288069 0.5 0.45 0.0130038
0.219992 0.5 -0.4875 0.0176626
0.219993 0.5 0.4875 0.014675
0.467897 0.5 -0.2625 0.00824986
0.467897 0.5 0.2625 0.00824525
0.350249 0.5 -0.4125 0.0117787
0.350249 0.5 0.4125 0.0112233
0.523432 0.5 -0.15 0.00717924
0.523432 0.5 0.15 0.00717688
0.151149 0.5 -0.525 0.0195321
0.151149 0.5 0.525 0.0154025
0.411736 0.5 -0.375 0.0100733
0.411736 0.5 0.375 0.00976804
0.075776 0.5 -0.5625 0.0213489
0.075776 0.5 0.5625 0.0161458
0.523432 0.5 -0.225 0.0072596
0.523432 0.5 0.225 0.00725355
0.574156 0.5 -0.0375 0.00621825
0.574156 0.5 0.0375 0.00621819
0.467897 0.5 0.3375 0.00834131
0.467897 0.5 -0.3375 0.00843955
0.574156 0.5 -0.1125 0.00625142
0.574156 0.5 0.1125 0.00625552
0 0.5 -0.593821 0.0148577
0 0.5 0.593821 0.0112777
0.0124865 0.5 -0.593821 0.0158999
0.0124865 0.5 0.593821 0.0120645
0.288069 0.5 -0.525 0.0146738
0.288069 0.5 0.525 0.0128135
0 0.5 -0.6 0.0148232
0 0.5 0.6 0.0112577
0.350249 0.5 -0.4875 0.0119185
0.350249 0.5 0.4875 0.0112367
0.523432 0.5 -0.3 0.0073915
0.523432 0.5 0.3 0.00735228
0.219992 0.5 -0.5625 0.0173905
0.219992 0.5 0.5625 0.0142895
0.574156 0.5 -0.1875 0.00631484
0.574156 0.5 0.1875 0.00631933
0 0.5 -0.606179 0.0147866
0 0.5 0.606179 0.0112372
0.0124865 0.5 -0.606179 0.015794
0.0124865 0.5 0.606179 0.0120038
0.411736 0.5 -0.45 0.0102255
0.411736 0.5 0.45 0.00983864
0.151149 0.5 -0.6 0.0190785
0.151149 0.5 0.6 0.0150138
0.62168 0.5 2.64545e-17 0.00565153
0.467897 0.5 0.4125 0.00846001
0.467897 0.5 -0.4125 0.00859747
0.624316 0.5 0.0729402 0.00563096
0.624316 0.5 -0.075 0.00563262
0.574156 0.5 -0.2625 0.00641647
0.574157 0.5 0.2625 0.00640745
0.075776 0.5 -0.6375 0.0207078
0.075776 0.5 0.6375 0.0157773
0.624316 0.5 -0.15 0.00568043
0.624316 0.5 0.15 0.00567819
0.523432 0.5 -0.375 0.00755502
0.523432 0.5 0.375 0.0074675
0.350249 0.5 -0.5625 0.0120828
0.350249 0.5 0.5625 0.0112631
0.624316 0.5 -0.225 0.00576099
0.624316 0.5 0.225 0.00575065
0.288069 0.5 0.6 0.0126597
0.288069 0.5 -0.6 0.0146356
0.574156 0.5 -0.3375 0.00656491
0.574156 0.5 0.3375 0.00651862
0.411736 0.5 -0.525 0.0104123
0.411736 0.5 0.525 0.00992447
0 0.5 -0.668821 0.0144409
0 0.5 0.668821 0.0110625
0.0124865 0.5 -0.668821 0.0154483
0.0124865 0.5 0.668821 0.0118291
0.67013 0.5 0.0375 0.00504077
0.67013 0.5 -0.0375 0.00504452
0.219993 0.5 -0.6375 0.0171255
0.219993 0.5 0.6375 0.0139682
0 0.5 -0.675 0.01441
0 0.5 0.675 0.0110493
0.467897 0.5 0.4875 0.00859905
0.467897 0.5 -0.4875 0.00879926
0.67013 0.5 -0.1125 0.00507734
0.67013 0.5 0.1125 0.0050708
0 0.5 -0.681179 0.0143773
0 0.5 0.681179 0.0110347
0.0124865 0.5 -0.681179 0.0153553
0.0124865 0.5 0.681179 0.0117873
0.523432 0.5 -0.45 0.00773491
0.523432 0.5 0.45 0.00760499
0.151149 0.5 -0.675 0.0186545
0.151149 0.5 0.675 0.0147144
0.624316 0.5 -0.3 0.00587741
0.624316 0.5 0.3 0.00584733
0.67013 0.5 0.1875 0.00512888
0.67013 0.5 -0.1875 0.00513917
0.574156 0.5 -0.4125 0.00672409
0.574157 0.5 0.4125 0.00665272
0.708171 0.5 1.88651e-17 0.00469889
0.075776 0.5 -0.7125 0.0201321
0.075776 0.5 0.7125 0.0155196
0.715434 0.5 0.0736268 0.0046522
0.715434 0.5 -0.075 0.00465236
0.67013 0.5 0.2625 0.00520909
0.67013 0.5 -0.2625 0.00523475
0.350249 0.5 -0.6375 0.0122741
0.350249 0.5 0.6375 0.0113031
0.411736 0.5 -0.6 0.0106304
0.411736 0.5 0.6 0.0100255
0.624316 0.5 -0.375 0.0060234
0.624316 0.5 0.375 0.00596454
0.715434 0.5 -0.15 0.00469898
0.715434 0.5 0.15 0.0046832
0.467897 0.5 -0.5625 0.00903654
0.467897 0.5 0.5625 0.0087558
0.288069 0.5 -0.675 0.0146191
0.288069 0.5 0.675 0.0125456
0.523432 0.5 -0.525 0.00795395
0.523432 0.5 0.525 0.00776354
0 0.5 -0.743821 0.0140678
0 0.5 0.743821 0.0109233
0.0124865 0.5 -0.743821 0.0150458
0.0124865 0.5 0.743821 0.0116759
0.219992 0.5 0.7125 0.0137157
0.219992 0.5 -0.7125 0.0168867
0.715434 0.5 -0.225 0.00477381
0.715434 0.5 0.225 0.0047479
0 0.5 -0.75 0.0140405
0 0.5 0.75 0.0109167
0.67013 0.5 0.3375 0.00531661
0.67013 0.5 -0.3375 0.00535567
0.574156 0.5 -0.4875 0.00692475
0.574156 0.5 0.4875 0.00680991
0 0.5 -0.756179 0.0140125
0 0.5 0.756179 0.0109089
0.0124865 0.5 -0.756179 0.014966
0.0124865 0.5 0.756179 0.0116548
0.756813 0.5 -0.0375 0.00424596
0.756813 0.5 0.0375 0.0042384
0.151149 0.5 -0.75 0.0182828
0.151149 0.5 0.75 0.014506
0.756813 0.5 -0.1125 0.0042794
0.756813 0.5 0.1125 0.00426136
0.624316 0.5 -0.45 0.00619926
0.624316 0.5 0.45 0.00610384
0.715434 0.5 -0.3 0.00487311
0.715434 0.5 0.3 0.00483598
0.756813 0.5 0.1875 0.00431035
0.756813 0.5 -0.1875 0.00433787
0.67013 0.5 -0.4125 0.00551187
0.67013 0.5 0.4125 0.00543325
0.411736 0.5 -0.675 0.01088
0.411736 0.5 0.675 0.0101417
0.467897 0.5 0.6375 0.00892892
0.467897 0.5 -0.6375 0.00931127
0.075776 0.5 -0.7875 0.0196348
0.075776 0.5 0.7875 0.0153797
0.350249 0.5 -0.7125 0.012491
0.350249 0.5 0.7125 0.0113586
0.523432 0.5 -0.6 0.00820976
0.523432 0.5 0.6 0.00794142
0.797732 0.5 2.68882e-17 0.00395286
0.756813 0.5 -0.2625 0.00442163
0.756814 0.5 0.2625 0.00438227
0.797732 0.5 0.0736268 0.0039619
0.797732 0.5 -0.075 0.00397344
0.288069 0.5 -0.75 0.0146324
0.288069 0.5 0.75 0.0124733
0.574156 0.5 -0.5625 0.00716128
0.574157 0.5 0.5625 0.00698997
0.715434 0.5 -0.375 0.00500512
0.715434 0.5 0.375 0.00494535
0.797732 0.5 -0.15 0.00401752
0.797732 0.5 0.15 0.00399197
0.624316 0.5 -0.525 0.00641084
0.624316 0.5 0.525 0.0062688
0.219992 0.5 -0.7875 0.01669
0.219992 0.5 0.7875 0.0135331
0 0.5 -0.818821 0.0137534
0 0.5 0.818821 0.0108577
0.0124865 0.5 0.818821 0.0116036
0.0124865 0.5 -0.818821 0.0147069
0 0.5 -0.825 0.0137311
0 0.5 0.825 0.0108543
0.756813 0.5 0.3375 0.00447549
0.756814 0.5 -0.3375 0.00451942
0.67013 0.5 -0.4875 0.00569969
0.67013 0.5 0.4875 0.00558316
0.797732 0.5 -0.225 0.00408417
0.797732 0.5 0.225 0.00404853
0 0.5 -0.831179 0.013708
0 0.5 0.831179 0.0108523
0.0124865 0.5 -0.831179 0.0146426
0.0124865 0.5 0.831179 0.0115945
0.835106 0.5 0.0375 0.00367129
0.835106 0.5 -0.0375 0.00367998
0.151149 0.5 -0.825 0.01798
0.151149 0.5 0.825 0.0143838
0.835106 0.5 0.1125 0.00368962
0.835106 0.5 -0.1125 0.00371259
0.715434 0.5 -0.45 0.00517262
0.715434 0.5 0.45 0.00507307
0.797732 0.5 -0.3 0.00417462
0.797732 0.5 0.3 0.00412629
0.467897 0.5 0.7125 0.00911692
0.467897 0.5 -0.7125 0.00962144
0.523432 0.5 -0.675 0.00850275
0.523432 0.5 0.675 0.00813675
0.411736 0.5 -0.75 0.0111599
0.411736 0.5 0.75 0.0102729
0.835106 0.5 -0.1875 0.00376455
0.835106 0.5 0.1875 0.00373113
0.574156 0.5 -0.6375 0.00743605
0.574157 0.5 0.6375 0.00719015
0.350249 0.5 -0.7875 0.0127336
0.350249 0.5 0.7875 0.0114309
0.756813 0.5 -0.4125 0.00467316
0.756814 0.5 0.4125 0.00459583
0.075776 0.5 -0.8625 0.0192445
0.075776 0.5 0.8625 0.0153332
0.624316 0.5 0.6 0.00645576
0.624316 0.5 -0.6 0.00665862
0.872064 0.5 5.91974e-17 0.00344934
0.870122 0.5 0.075 0.00346725
0.288069 0.5 -0.825 0.014681
0.288069 0.5 0.825 0.0124441
0.67013 0.5 -0.5625 0.00592173
0.67013 0.5 0.5625 0.0057562
0.872064 0.5 -0.075 0.00347051
0.835106 0.5 -0.2625 0.00383731
0.835106 0.5 0.2625 0.00379528
0.797732 0.5 -0.375 0.00429497
0.797732 0.5 0.375 0.00422707
0.872064 0.5 0.14794 0.00347994
0.872064 0.5 -0.15 0.00351137
0.715434 0.5 -0.525 0.0053693
0.715434 0.5 0.525 0.00522412
0.219992 0.5 0.8625 0.0134174
0.219993 0.5 -0.8625 0.0165441
0 0.5 -0.893821 0.0135066
0 0.5 0.893821 0.0108391
0.0124865 0.5 -0.893821 0.0144411
0.0124865 0.5 0.893821 0.0115813
0 0.5 -0.9 0.013491
0 0.5 0.9 0.0108358
0.756813 0.5 -0.4875 0.00484582
0.756813 0.5 0.4875 0.00472036
0.872064 0.5 -0.225 0.00356924
0.872064 0.5 0.225 0.00352882
0.835106 0.5 -0.3375 0.00394484
0.835106 0.5 0.3375 0.00387747
0 0.5 0.906179 0.0108345
0 0.5 -0.906179 0.0134728
0.0124865 0.5 -0.906179 0.0143947
0.0124865 0.5 0.906179 0.0115688
0.90582 0.5 -0.0375 0.00323653
0.90582 0.5 0.0375 0.00322653
0.151149 0.5 -0.9 0.0177553
0.151149 0.5 0.9 0.014318
0.90582 0.5 -0.1125 0.00326986
0.905821 0.5 0.1125 0.00324089
0.523432 0.5 -0.75 0.00883178
0.523432 0.5 0.75 0.00834801
0.574156 0.5 -0.7125 0.00774833
0.574156 0.5 0.7125 0.0074086
0.797732 0.5 -0.45 0.0044461
0.797732 0.5 0.45 0.0043427
0.467897 0.5 0.7875 0.00931809
0.467897 0.5 -0.7875 0.00996552
0.624316 0.5 -0.675 0.00694374
0.624316 0.5 0.675 0.00666286
0.411736 0.5 -0.825 0.0114689
0.411736 0.5 0.825 0.0104202
0.872064 0.5 0.3 0.00359777
0.872064 0.5 -0.3 0.00365492
0.67013 0.5 -0.6375 0.00618035
0.67013 0.5 0.6375 0.0059511
0.90582 0.5 0.1875 0.00327543
0.905821 0.5 -0.1875 0.00331551
0.350249 0.5 -0.8625 0.0130006
0.350249 0.5 0.8625 0.0115247
0.835106 0.5 -0.4125 0.00406762
0.835106 0.5 0.4125 0.00398533
0.715434 0.5 -0.6 0.00560022
0.715434 0.5 0.6 0.00540072
0.939201 0.5 2.75387e-17 0.00312112
0.075776 0.5 0.9375 0.0152954
0.075776 0.5 -0.9375 0.0189583
0.939111 0.5 0.075 0.00312557
0.939201 0.5 -0.075 0.00314219
0.756813 0.5 0.5625 0.00487807
0.756814 0.5 -0.5625 0.0050508
0.90582 0.5 0.2625 0.00333103
0.905821 0.5 -0.2625 0.00337697
0.288069 0.5 -0.9 0.0147671
0.288069 0.5 0.9 0.0124534
0.872064 0.5 -0.375 0.00376471
0.872064 0.5 0.375 0.00368674
0.939201 0.5 0.148627 0.00315049
0.939201 0.5 -0.15 0.00318127
0.797732 0.5 -0.525 0.00462666
0.797732 0.5 0.525 0.00447716
0.219992 0.5 0.9375 0.0133565
0.219992 0.5 -0.9375 0.0164521
0.939201 0.5 -0.225 0.00323187
0.939201 0.5 0.225 0.00319403
0.905821 0.5 -0.3375 0.00347824
0.90582 0.5 0.3375 0.00340522
0.835106 0.5 -0.4875 0.004224
0.835106 0.5 0.4875 0.00409569
0 0.5 0.968821 0.0108514
0 0.5 -0.968821 0.01333
0.0124865 0.5 -0.968821 0.0142519
0.0124865 0.5 0.968821 0.0115857
0.969689 0.5 -0.0375 0.00301833
0.969689 0.5 0.0375 0.0030103
0.574156 0.5 -0.7875 0.00809776
0.574156 0.5 0.7875 0.0076442
0 0.5 -0.975 0.0133219
0 0.5 0.975 0.010856
0.624316 0.5 -0.75 0.00726603
0.624316 0.5 0.75 0.00688881
0.969689 0.5 -0.1125 0.00305129
0.96969 0.5 0.1125 0.00302648
0.523432 0.5 -0.825 0.00919566
0.523432 0.5 0.825 0.00857417
0.67013 0.5 0.7125 0.0061662
0.67013 0.5 -0.7125 0.00647601
0 0.5 -0.981179 0.0133094
0 0.5 0.981179 0.0108608
0.467897 0.5 0.8625 0.0095324
0.467897 0.5 -0.8625 0.0103415
0.0124865 0.5 -0.981179 0.0142261
0.0124865 0.5 0.981179 0.0115952
0.872064 0.5 -0.45 0.00389666
0.872064 0.5 0.45 0.00379361
0.715434 0.5 -0.675 0.00586693
0.715434 0.5 0.675 0.0055988
0.939201 0.5 -0.3 0.00330698
0.939201 0.5 0.3 0.00325828
0.151149 0.5 0.975 0.0143
0.151149 0.5 -0.975 0.017612
0.969689 0.5 -0.1875 0.0030957
0.969689 0.5 0.1875 0.00306137
0.756813 0.5 -0.6375 0.00528972
0.756813 0.5 0.6375 0.00505948
0.411736 0.5 -0.9 0.0118053
0.411736 0.5 0.9 0.010583
0.90582 0.5 -0.4125 0.00358621
0.90582 0.5 0.4125 0.00349733
0.995005 0.5 0.0749309 0.00288128
0.797732 0.5 -0.6 0.00484039
0.797732 0.5 0.6 0.00463969
1.00005 0.5 -8.47123e-18 0.00284592
0.350249 0.5 -0.9375 0.0132903
0.350249 0.5 0.9375 0.0116324
1.00005 0.5 -0.0749309 0.00286509
0.969689 0.5 -0.2625 0.00314678
0.969689 0.5 0.2625 0.00311546
0.835106 0.5 -0.5625 0.00441289
0.835106 0.5 0.5625 0.0042415
1.00005 0.5 -0.149862 0.00290177
0.939201 0.5 -0.375 0.00340945
0.939201 0.5 0.375 0.0033399
1.00029 0.5 0.148988 0.00287934
0.075776 0.5 -1.0125 0.0187863
0.075776 0.5 1.0125 0.0153329
0.288069 0.5 0.975 0.0124982
0.288069 0.5 -0.975 0.0148919
0.872064 0.5 -0.525 0.00406115
0.872064 0.5 0.525 0.00391725
1.00005 0.5 0.224793 0.00291862
1.00005 0.5 -0.224793 0.00294892
0.969689 0.5 0.3375 0.00318862
0.96969 0.5 -0.3375 0.00323381
1.0271 0.5 -0.0368226 0.00267332
1.0271 0.5 0.0368226 0.00266634
0.90582 0.5 0.4875 0.00361463
0.905821 0.5 -0.4875 0.00372747
1.0271 0.5 -0.110468 0.00270056
1.0271 0.5 0.110468 0.002669
0.67013 0.5 0.7875 0.00640098
0.67013 0.5 -0.7875 0.00680868
0.624316 0.5 0.825 0.00713265
0.624316 0.5 -0.825 0.00762506
0.219993 0.5 -1.0125 0.0164174
0.219993 0.5 1.0125 0.013347
0.574156 0.5 -0.8625 0.00848341
0.574156 0.5 0.8625 0.00789568
0.715434 0.5 -0.75 0.00617082
0.715434 0.5 0.75 0.00581755
0.756813 0.5 0.7125 0.00526105
0.756814 0.5 -0.7125 0.00556433
0.523432 0.5 -0.9 0.00959307
0.523432 0.5 0.9 0.0088142
0.939201 0.5 -0.45 0.00354712
0.939201 0.5 0.45 0.00344092
1.04168 0.5 0 0.0025894
1.0271 0.5 -0.184113 0.00274006
1.0271 0.5 0.184113 0.00271291
0 0.5 -1.04382 0.0132312
0 0.5 1.04382 0.0109411
0.0124865 0.5 -1.04382 0.0141479
0.0124865 0.5 1.04382 0.0116755
1.00005 0.5 -0.299723 0.00301657
1.00005 0.5 0.299723 0.0029805
1.04168 0.5 -0.0729162 0.00260623
1.04168 0.5 0.0729162 0.0025923
0.797732 0.5 -0.675 0.00508872
0.797732 0.5 0.675 0.00482273
0.467897 0.5 0.9375 0.00976033
0.467897 0.5 -0.9375 0.0107478
0 0.5 -1.05 0.013228
0 0.5 1.05 0.0109528
0.835106 0.5 -0.6375 0.00463568
0.835106 0.5 0.6375 0.00440727
1.04168 0.5 -0.145832 0.00263726
1.04168 0.5 0.145832 0.00261299
0.969689 0.5 -0.4125 0.00334753
0.96969 0.5 0.4125 0.00327573
0 0.5 -1.05618 0.0132254
0 0.5 1.05618 0.0109644
0.0124865 0.5 -1.05618 0.014146
0.0124865 0.5 1.05618 0.0117057
1.05695 0.5 -0.0360764 0.00251298
1.05695 0.5 0.0360764 0.00250486
0.411736 0.5 -0.975 0.012168
0.411736 0.5 0.975 0.0107643
0.872064 0.5 -0.6 0.00425922
0.872064 0.5 0.6 0.00406187
1.0271 0.5 -0.257759 0.00279165
1.0271 0.5 0.257759 0.00276116
0.151149 0.5 -1.05 0.0175565
0.151149 0.5 1.05 0.0143745
1.05695 0.5 0.108229 0.00249956
1.05695 0.5 -0.108229 0.00253696
1.04168 0.5 -0.218749 0.0026791
1.04168 0.5 0.218749 0.00264833
0.90582 0.5 -0.5625 0.00389951
0.905821 0.5 0.5625 0.00373606
1.00005 0.5 -0.374654 0.00311742
1.00005 0.5 0.374654 0.00305939
0.350249 0.5 1.0125 0.0117639
0.350249 0.5 -1.0125 0.0136027
1.05695 0.5 -0.180382 0.00256983
1.05695 0.5 0.180382 0.00254037
1.07319 0.5 0.0709442 0.00244244
0.939201 0.5 -0.525 0.0037159
0.939201 0.5 0.525 0.00355631
1.0271 0.5 -0.331404 0.00286939
1.0271 0.5 0.331404 0.00282774
1.08112 0.5 3.23815e-17 0.00241233
1.04168 0.5 -0.291665 0.00273821
1.04168 0.5 0.291665 0.00269984
1.08112 0.5 -0.0709442 0.002428
0.969689 0.5 -0.4875 0.00353437
0.96969 0.5 0.4875 0.00338352
1.05695 0.5 0.252535 0.00257799
1.05695 0.5 -0.252535 0.00261461
0.288069 0.5 -1.05 0.0150549
0.288069 0.5 1.05 0.0125726
0.075776 0.5 -1.0875 0.0187467
0.075776 0.5 1.0875 0.0155269
1.08112 0.5 -0.141888 0.00245401
1.08145 0.5 0.140165 0.00243488
0.715434 0.5 0.825 0.00605665
0.715434 0.5 -0.825 0.00651315
0.756813 0.5 0.7875 0.00548517
0.756814 0.5 -0.7875 0.00587791
0.67013 0.5 -0.8625 0.00717793
0.67013 0.5 0.8625 0.00665443
0.797732 0.5 -0.75 0.00537496
0.797732 0.5 0.75 0.00502618
0.624316 0.5 -0.9 0.00802077
0.624316 0.5 0.9 0.00739224
1.00005 0.5 -0.449585 0.00326029
1.00005 0.5 0.449585 0.00315598
0.835106 0.5 -0.7125 0.0048934
0.835106 0.5 0.7125 0.00459139
0.574156 0.5 -0.9375 0.00890443
0.574157 0.5 0.9375 0.00815999
1.10076 0.5 -0.0349809 0.00234582
1.10076 0.5 0.0349809 0.00233865
1.08112 0.5 -0.212832 0.00248799
1.08112 0.5 0.212832 0.00246091
0.872064 0.5 -0.675 0.00449442
0.872064 0.5 0.675 0.0042275
1.04168 0.5 -0.364581 0.00282757
1.04168 0.5 0.364581 0.00276749
1.0271 0.5 0.405049 0.00291012
1.0271 0.5 -0.405049 0.0029848
1.05695 0.5 -0.324688 0.00268019
1.05695 0.5 0.324688 0.00263166
1.10076 0.5 -0.104943 0.00236939
1.10076 0.5 0.104943 0.00235051
0.523432 0.5 0.975 0.00907099
0.523432 0.5 -0.975 0.0100226
0.90582 0.5 0.6375 0.00388236
0.905821 0.5 -0.6375 0.00410861
0.219992 0.5 1.0875 0.0134286
0.219992 0.5 -1.0875 0.0164367
1.11376 0.5 3.81639e-17 0.00229826
0.939201 0.5 0.6 0.00370406
0.939201 0.5 -0.6 0.00390249
1.10076 0.5 -0.174905 0.00239477
1.10076 0.5 0.174905 0.00237425
0.467897 0.5 -1.0125 0.0111827
0.467897 0.5 1.0125 0.0100111
1.11376 0.5 -0.0693118 0.00231343
1.11376 0.5 0.0693118 0.00230086
1.08112 0.5 0.283777 0.00250421
1.08112 0.5 -0.283777 0.00253977
0 0.5 -1.11882 0.0131947
0 0.5 1.11882 0.0110978
0.0124865 0.5 -1.11882 0.0141153
0.0124865 0.5 1.11882 0.011839
0.969689 0.5 -0.5625 0.00370849
0.969689 0.5 0.5625 0.00349886
1.11376 0.5 0.138624 0.00232054
1.11376 0.5 -0.138624 0.00233722
0 0.5 -1.125 0.0131862
0 0.5 1.125 0.0111114
1.10076 0.5 0.244866 0.00241003
1.10076 0.5 -0.244866 0.00243008
0.411736 0.5 -1.05 0.0125584
0.411736 0.5 1.05 0.0109464
1.05695 0.5 -0.396841 0.00277956
1.05695 0.5 0.396841 0.00269959
1.00005 0.5 -0.524516 0.0034182
1.00005 0.5 0.524516 0.00326954
1.04168 0.5 -0.437497 0.00294699
1.04168 0.5 0.437497 0.00285133
0 0.5 -1.13118 0.013185
0 0.5 1.13118 0.0111255
0.0124865 0.5 -1.13118 0.0141011
0.0124865 0.5 1.13118 0.0118748
1.11376 0.5 -0.207935 0.00236568
1.11376 0.5 0.207935 0.00234807
1.0271 0.5 -0.478694 0.00312584
1.0271 0.5 0.478694 0.00301168
0.151149 0.5 -1.125 0.0175612
0.151149 0.5 1.125 0.0145408
1.08112 0.5 -0.354722 0.00261811
1.08112 0.5 0.354722 0.00256216
1.13882 0.5 -0.0340295 0.00221427
1.13882 0.5 0.0340295 0.00220834
0.350249 0.5 -1.0875 0.0139364
0.350249 0.5 1.0875 0.0118528
1.13882 0.5 -0.102088 0.00223691
1.13882 0.5 0.102088 0.00221566
1.10076 0.5 -0.314829 0.00249488
1.10076 0.5 0.314829 0.00246041
0.756813 0.5 -0.8625 0.0062325
0.756814 0.5 0.8625 0.00572967
0.797732 0.5 -0.825 0.00569974
0.797732 0.5 0.825 0.00525108
1.11376 0.5 -0.277247 0.00241408
1.11376 0.5 0.277247 0.00239047
0.835106 0.5 0.7875 0.00479615
0.835106 0.5 -0.7875 0.00519308
0.715434 0.5 -0.9 0.0068942
0.715434 0.5 0.9 0.00631243
0.872064 0.5 -0.75 0.00476324
0.872064 0.5 0.75 0.00441601
1.13882 0.5 0.170147 0.00224306
1.13882 0.5 -0.170147 0.00225874
0.67013 0.5 -0.9375 0.00758564
0.67013 0.5 0.9375 0.00692337
0.905821 0.5 -0.7125 0.00436019
0.905821 0.5 0.7125 0.00404938
1.05695 0.5 0.468994 0.00278381
1.05695 0.5 -0.468994 0.00289691
0.939201 0.5 -0.675 0.00410644
0.939201 0.5 0.675 0.00387093
0.624316 0.5 0.975 0.00766747
0.624316 0.5 -0.975 0.00845364
1.04168 0.5 -0.510414 0.00306922
1.04168 0.5 0.510414 0.00295389
0.969689 0.5 -0.6375 0.00389986
0.96969 0.5 0.6375 0.00370579
0.288069 0.5 -1.125 0.0152607
0.288069 0.5 1.125 0.0126974
1.16179 0.5 5.78241e-19 0.00212651
1.08112 0.5 0.425666 0.00263451
1.08112 0.5 -0.425666 0.00271863
1.13882 0.5 -0.238206 0.00228832
1.13882 0.5 0.238206 0.00227757
1.16179 0.5 0.0669104 0.00211762
1.16179 0.5 -0.0669104 0.00214041
0.574156 0.5 -1.0125 0.00935938
0.574156 0.5 1.0125 0.00844223
0.075776 0.5 -1.1625 0.0187206
0.075776 0.5 1.1625 0.0157477
1.00005 0.5 -0.599447 0.00359082
1.00005 0.5 0.599447 0.00342214
1.10076 0.5 0.384791 0.00252512
1.10076 0.5 -0.384791 0.00258431
1.0271 0.5 -0.55234 0.00325601
1.0271 0.5 0.55234 0.00313264
1.11376 0.5 -0.346559 0.0024894
1.11376 0.5 0.346559 0.002447
1.16179 0.5 -0.133821 0.00216133
1.16179 0.5 0.133821 0.0021446
0.523432 0.5 -1.05 0.0104886
0.523432 0.5 1.05 0.00934121
1.17463 0.5 -0.0331343 0.00208374
1.17463 0.5 0.0331343 0.0020792
1.17463 0.5 -0.0994029 0.0021059
1.17463 0.5 0.0994029 0.0020903
1.16179 0.5 -0.200731 0.00218314
1.16179 0.5 0.200731 0.00217308
1.13882 0.5 -0.306265 0.00234925
1.13882 0.5 0.306265 0.00232499
0.219992 0.5 -1.1625 0.0164977
0.219992 0.5 1.1625 0.0136026
0.467897 0.5 -1.0875 0.0116555
0.467897 0.5 1.0875 0.0102596
1.17463 0.5 0.165672 0.00211115
1.17463 0.5 -0.165672 0.00212407
1.05695 0.5 -0.541147 0.00300037
1.05695 0.5 0.541147 0.00288784
1.18772 0.5 -5.78241e-19 0.00203707
1.11376 0.5 -0.41587 0.00258212
1.11376 0.5 0.41587 0.00251732
1.18772 0.5 -0.065614 0.00204974
1.18772 0.5 0.065614 0.00204122
1.08112 0.5 -0.49661 0.00282101
1.08112 0.5 0.49661 0.00272381
1.10076 0.5 -0.454752 0.00268643
1.10076 0.5 0.454752 0.00260358
1.18534 0.5 0.118202 0.00205592
1.16179 0.5 -0.267642 0.00222405
1.16179 0.5 0.267642 0.00221127
0 0.5 -1.19382 0.0131618
0 0.5 1.19382 0.0112951
0.0124865 0.5 1.19382 0.0120443
0.0124865 0.5 -1.19382 0.0140779
1.04168 0.5 -0.58333 0.00321062
1.04168 0.5 0.58333 0.00307945
1.18772 0.5 -0.131228 0.00206897
1.17463 0.5 -0.23194 0.00214635
1.17463 0.5 0.23194 0.00214237
0.411736 0.5 -1.125 0.0129881
0.411736 0.5 1.125 0.0111131
1.13882 0.5 -0.374324 0.00243077
1.13882 0.5 0.374324 0.00238621
0 0.5 -1.2 0.0131532
0 0.5 1.2 0.0113139
0.905821 0.5 0.7875 0.00424794
0.905821 0.5 -0.7875 0.00462719
0.872064 0.5 -0.825 0.00506847
0.872064 0.5 0.825 0.00463342
0.835106 0.5 0.8625 0.00502316
0.835106 0.5 -0.8625 0.00552514
0.939201 0.5 -0.75 0.00434029
0.939201 0.5 0.75 0.0040244
0.797732 0.5 -0.9 0.00606047
0.797732 0.5 0.9 0.00549461
1.0271 0.5 0.625985 0.00328616
1.0271 0.5 -0.625985 0.00343907
0.969689 0.5 0.7125 0.00385232
0.96969 0.5 -0.7125 0.00406536
1.18772 0.5 -0.196842 0.00208773
1.18772 0.5 0.196842 0.00208098
0.756814 0.5 -0.9375 0.00662585
0.756814 0.5 0.9375 0.0059864
0 0.5 1.20618 0.0113332
0 0.5 -1.20618 0.0131489
1.00005 0.5 -0.674378 0.003786
1.00005 0.5 0.674378 0.00358237
0.0124865 0.5 1.20618 0.0120953
0.0124865 0.5 -1.20618 0.0140528
1.16179 0.5 -0.334552 0.00229049
1.16179 0.5 0.334552 0.00226192
0.715434 0.5 0.975 0.00658392
0.715434 0.5 -0.975 0.00731457
0.151149 0.5 -1.2 0.017586
0.151149 0.5 1.2 0.0147811
1.20942 0.5 0.0322645 0.00195855
1.20942 0.5 -0.0322645 0.00196284
1.17463 0.5 -0.298209 0.00220113
1.17463 0.5 0.298209 0.00218473
1.20942 0.5 -0.0967935 0.00198271
1.20942 0.5 0.0967935 0.00197008
0.350249 0.5 -1.1625 0.0143245
0.350249 0.5 1.1625 0.0120075
0.67013 0.5 1.0125 0.0072086
0.67013 0.5 -1.0125 0.00803395
1.11376 0.5 0.485183 0.00260324
1.11376 0.5 -0.485183 0.00267896
1.18772 0.5 0.262456 0.00211636
1.18772 0.5 -0.262456 0.00212409
1.10076 0.5 -0.524714 0.00278155
1.10076 0.5 0.524714 0.00270042
1.20942 0.5 -0.161322 0.00199811
1.20942 0.5 0.161322 0.00198884
1.08112 0.5 -0.567554 0.00294061
1.08112 0.5 0.567554 0.00283028
0.624316 0.5 -1.05 0.00893001
0.624316 0.5 1.05 0.00795794
1.13882 0.5 -0.442383 0.00252224
1.13882 0.5 0.442383 0.0024603
1.05695 0.5 0.6133 0.00301198
1.05695 0.5 -0.6133 0.00315589
1.16179 0.5 -0.401463 0.00237055
1.16179 0.5 0.401463 0.00232526
0.574156 0.5 -1.0875 0.00985941
0.574156 0.5 1.0875 0.00873925
1.17463 0.5 0.364477 0.00223989
1.17463 0.5 -0.364477 0.00227352
1.20942 0.5 -0.225851 0.00201572
1.20942 0.5 0.225851 0.00201699
1.23036 0.5 -1.32995e-17 0.0018918
1.2294 0.5 0.0634819 0.00189892
1.04168 0.5 -0.656246 0.00339948
1.04168 0.5 0.656246 0.00321995
1.23036 0.5 -0.0634819 0.00190242
1.18772 0.5 0.32807 0.0021632
1.18772 0.5 -0.32807 0.00218446
0.288069 0.5 -1.2 0.0155146
0.288069 0.5 1.2 0.0129062
1.23036 0.5 -0.126964 0.00191874
1.23036 0.5 0.126964 0.00190982
0.075776 0.5 -1.2375 0.0186377
0.075776 0.5 1.2375 0.0160605
0.523432 0.5 -1.125 0.0109965
0.523432 0.5 1.125 0.00958535
1.0271 0.5 -0.69963 0.00365799
1.0271 0.5 0.69963 0.00342032
1.24274 0.5 0.0314313 0.00185171
1.24274 0.5 -0.0314313 0.00185324
1.20942 0.5 0.29038 0.00205495
1.20942 0.5 -0.29038 0.0020638
1.11376 0.5 -0.554494 0.00279144
1.11376 0.5 0.554494 0.00270355
1.23036 0.5 -0.190445 0.00193335
1.23036 0.5 0.190445 0.0019322
1.24274 0.5 -0.0942942 0.0018714
1.24274 0.5 0.0942942 0.00186187
1.13882 0.5 0.510442 0.00255079
1.13882 0.5 -0.510442 0.00261635
0.969689 0.5 -0.7875 0.00431842
0.969689 0.5 0.7875 0.00395604
1.00005 0.5 -0.749309 0.00401531
1.00005 0.5 0.749309 0.00371926
0.939201 0.5 -0.825 0.00462064
0.939201 0.5 0.825 0.0042114
0.90582 0.5 0.8625 0.00448706
0.90582 0.5 -0.8625 0.00495017
1.17463 0.5 -0.430746 0.00235409
1.17463 0.5 0.430746 0.00230694
1.10076 0.5 -0.594676 0.00291778
1.10076 0.5 0.594676 0.0028095
1.18772 0.5 -0.393684 0.00225728
1.18772 0.5 0.393684 0.00222204
1.24274 0.5 -0.157157 0.00188454
1.24274 0.5 0.157157 0.00187958
1.16179 0.5 -0.468373 0.00246207
1.16179 0.5 0.468373 0.00240266
0.467897 0.5 -1.1625 0.0121716
0.467897 0.5 1.1625 0.0104287
0.872064 0.5 -0.9 0.00541192
0.872064 0.5 0.9 0.00486851
1.25401 0.5 2.08167e-17 0.00182044
0.835106 0.5 0.9375 0.00526962
0.835106 0.5 -0.9375 0.00588915
1.25401 0.5 -0.0622994 0.00182987
1.25401 0.5 0.0622994 0.00182453
1.08112 0.5 -0.638498 0.0031017
1.08112 0.5 0.638498 0.00295725
1.23036 0.5 -0.253927 0.00196365
1.23036 0.5 0.253927 0.00196343
0.219992 0.5 1.2375 0.0138592
0.219992 0.5 -1.2375 0.0166317
1.25309 0.5 0.121964 0.00183825
1.05695 0.5 0.685452 0.00315129
1.05695 0.5 -0.685452 0.0033508
0.797732 0.5 0.975 0.00575664
0.797732 0.5 -0.975 0.00646597
1.25401 0.5 -0.124599 0.00184488
1.20942 0.5 -0.354909 0.0021259
1.20942 0.5 0.354909 0.00210441
1.24274 0.5 -0.220019 0.00189867
1.24274 0.5 0.220019 0.00190576
0.756814 0.5 -1.0125 0.00705862
0.756813 0.5 1.0125 0.00626199
1.25401 0.5 -0.186898 0.00185776
1.25401 0.5 0.186898 0.00185952
0.411736 0.5 -1.2 0.0134568
0.411736 0.5 1.2 0.0113293
0 0.5 -1.26882 0.0131449
0 0.5 1.26882 0.011556
0.0124865 0.5 1.26882 0.0123181
0.0124865 0.5 -1.26882 0.0140489
0.715434 0.5 -1.05 0.00777684
0.715434 0.5 1.05 0.00687215
1.23036 0.5 -0.31741 0.00201434
1.23036 0.5 0.31741 0.00200442
1.04168 0.5 -0.729162 0.00362394
1.04168 0.5 0.729162 0.00335526
1.18772 0.5 -0.459298 0.00234669
1.18772 0.5 0.459298 0.00229425
1.24274 0.5 -0.282882 0.00194153
1.24274 0.5 0.282882 0.00194034
0 0.5 -1.275 0.0131502
0 0.5 1.275 0.0115801
1.27472 0.5 -0.0306319 0.00175221
1.27472 0.5 0.0306319 0.00175158
1.17463 0.5 0.497015 0.00238961
1.17463 0.5 -0.497015 0.0024532
1.11376 0.5 -0.623806 0.00293761
1.11376 0.5 0.623806 0.00282358
1.13882 0.5 -0.578501 0.00273758
1.13882 0.5 0.578501 0.00265126
0.67013 0.5 -1.0875 0.00853622
0.67013 0.5 1.0875 0.0075059
1.27472 0.5 -0.0918959 0.00176752
1.27472 0.5 0.0918959 0.00177345
1.25401 0.5 -0.249197 0.00188494
1.25401 0.5 0.249197 0.00188914
1.16179 0.5 -0.535284 0.00256168
1.16179 0.5 0.535284 0.00249272
1.20942 0.5 -0.419438 0.00219736
1.20942 0.5 0.419438 0.00216512
0 0.5 -1.28118 0.013155
0 0.5 1.28118 0.0116047
0.0124865 0.5 1.28118 0.0123843
0.0124865 0.5 -1.28118 0.0140636
1.27472 0.5 0.15316 0.00177695
1.27472 0.5 -0.15316 0.00177897
0.151149 0.5 -1.275 0.0176712
0.151149 0.5 1.275 0.0151