# pMean  POINT_DATA 63840
# x  y  z  pMean
0 0.5 3.39583e-17 0.173302
0 0.5 -0.00617931 0.173449
0 0.5 0.00617931 0.173158
0.0124865 0.5 -0.00617931 0.173449
0.0124865 0.5 0.00617931 0.173158
0 0.5 -0.0688207 0.174691
0 0.5 0.0688207 0.171477
0.0124865 0.5 -0.0688207 0.174691
0.0124865 0.5 0.0688207 0.171477
0 0.5 -0.075 0.174789
0 0.5 0.075 0.171288
0 0.5 -0.0811793 0.174891
0 0.5 0.0811793 0.171103
0.0124865 0.5 -0.0811793 0.174891
0.0124865 0.5 0.0811793 0.171103
0.075776 0.5 -0.0375 0.174193
0.075776 0.5 0.0375 0.172431
0.075776 0.5 -0.1125 0.175405
0.075776 0.5 0.1125 0.170164
0 0.5 -0.143821 0.175688
0 0.5 0.143821 0.169006
0.0124865 0.5 -0.143821 0.175688
0.0124865 0.5 0.143821 0.169006
0 0.5 -0.15 0.175744
0 0.5 0.15 0.168777
0.151149 0.5 -0.00137318 0.173436
0 0.5 -0.156179 0.175803
0 0.5 0.156179 0.168551
0.0124865 0.5 -0.156179 0.175803
0.0124865 0.5 0.156179 0.168551
0.151149 0.5 0.075 0.171471
0.151149 0.5 -0.075 0.175002
0.075776 0.5 -0.1875 0.176102
0.075776 0.5 0.1875 0.167408
0.151149 0.5 0.15 0.168937
0.151149 0.5 -0.15 0.175978
0 0.5 -0.218821 0.176172
0 0.5 0.218821 0.166059
0.0124865 0.5 -0.218821 0.176172
0.0124865 0.5 0.218821 0.166059
0.219992 0.5 0.0375 0.172796
0.219993 0.5 -0.0375 0.174574
0 0.5 -0.225 0.176185
0 0.5 0.225 0.165793
0 0.5 -0.231179 0.176202
0 0.5 0.231179 0.165529
0.0124865 0.5 -0.231179 0.176202
0.0124865 0.5 0.231179 0.165529
0.219992 0.5 0.1125 0.170502
0.219993 0.5 -0.1125 0.175841
0.151149 0.5 -0.225 0.176426
0.151149 0.5 0.225 0.16592
0.075776 0.5 -0.2625 0.176288
0.075776 0.5 0.2625 0.164195
0.288069 0.5 -0.00137318 0.176442
0.219992 0.5 0.1875 0.167682
0.219993 0.5 -0.1875 0.176566
0 0.5 0.293821 0.162671
0 0.5 -0.293821 0.176126
0.0124865 0.5 -0.293821 0.176126
0.0124865 0.5 0.293821 0.162671
0.288069 0.5 -0.075 0.178099
0.288069 0.5 0.075 0.174387
0 0.5 -0.3 0.176093
0 0.5 0.3 0.16237
0 0.5 0.306179 0.162071
0 0.5 -0.306179 0.176064
0.0124865 0.5 -0.306179 0.176064
0.0124865 0.5 0.306179 0.162071
0.288069 0.5 -0.15 0.179101
0.288069 0.5 0.15 0.171701
0.151149 0.5 -0.3 0.176331
0.151149 0.5 0.3 0.162465
0.219992 0.5 -0.2625 0.17675
0.219992 0.5 0.2625 0.164409
0.075776 0.5 0.3375 0.160562
0.075776 0.5 -0.3375 0.175918
0.350249 0.5 -0.0375 0.180169
0.350249 0.5 0.0375 0.178239
0.288069 0.5 -0.225 0.179526
0.288069 0.5 0.225 0.168505
0.350249 0.5 0.1125 0.175703
0.350249 0.5 -0.1125 0.181483
0 0.5 0.368821 0.158879
0 0.5 -0.368821 0.175551
0.0124865 0.5 -0.368821 0.175551
0.0124865 0.5 0.368821 0.158879
0 0.5 -0.375 0.175478
0 0.5 0.375 0.158547
0 0.5 -0.381179 0.175408
0 0.5 0.381179 0.158216
0.0124865 0.5 -0.381179 0.175408
0.0124865 0.5 0.381179 0.158216
0.350249 0.5 -0.1875 0.182185
0.350249 0.5 0.1875 0.172622
0.219992 0.5 -0.3375 0.176371
0.219992 0.5 0.3375 0.160711
0.151149 0.5 -0.375 0.175704
0.151149 0.5 0.375 0.158606
0.411736 0.5 -0.00137318 0.182784
0.288069 0.5 -0.3 0.179368
0.288069 0.5 0.3 0.164841
0.411736 0.5 -0.075 0.184558
0.411736 0.5 0.075 0.180552
0.075776 0.5 -0.4125 0.175057
0.075776 0.5 0.4125 0.156549
0.350249 0.5 -0.2625 0.182276
0.350249 0.5 0.2625 0.169032
0.411736 0.5 -0.15 0.18558
0.411736 0.5 0.15 0.177609
0 0.5 -0.443821 0.174487
0 0.5 0.443821 0.154726
0.0124865 0.5 -0.443821 0.174487
0.0124865 0.5 0.443821 0.154726
0 0.5 -0.45 0.174374
0 0.5 0.45 0.154366
0 0.5 -0.456179 0.174264
0 0.5 0.456179 0.154008
0.0124865 0.5 -0.456179 0.174264
0.0124865 0.5 0.456179 0.154008
0.219992 0.5 -0.4125 0.175473
0.219993 0.5 0.4125 0.156625
0.411736 0.5 -0.225 0.185945
0.411736 0.5 0.225 0.174091
0.467897 0.5 0.0375 0.185312
0.467897 0.5 -0.0375 0.187394
0.288069 0.5 -0.375 0.178639
0.288069 0.5 0.375 0.160747
0.151149 0.5 -0.45 0.17458
0.151149 0.5 0.45 0.154386
0.467897 0.5 -0.1125 0.188781
0.467897 0.5 0.1125 0.182564
0.350249 0.5 0.3375 0.164958
0.350249 0.5 -0.3375 0.181755
0.075776 0.5 -0.4875 0.17371
0.075776 0.5 0.4875 0.152199
0.467897 0.5 -0.1875 0.189461
0.467897 0.5 0.1875 0.179172
0.411736 0.5 -0.3 0.185658
0.411736 0.5 0.3 0.170044
0 0.5 -0.518821 0.172953
0 0.5 0.518821 0.150256
0.0124865 0.5 0.518821 0.150256
0.0124865 0.5 -0.518821 0.172953
0.523432 0.5 -0.00137318 0.1906
0 0.5 -0.525 0.172803
0 0.5 0.525 0.149871
0.523432 0.5 -0.075 0.19251
0.523432 0.5 0.075 0.18817
0 0.5 -0.531179 0.172656
0 0.5 0.531179 0.149489
0.0124865 0.5 -0.531179 0.172656
0.0124865 0.5 0.531179 0.149489
0.288069 0.5 -0.45 0.177376
0.288069 0.5 0.45 0.156272
0.219992 0.5 -0.4875 0.174083
0.219993 0.5 0.4875 0.152198
0.467897 0.5 -0.2625 0.189452
0.467897 0.5 0.2625 0.175186
0.350249 0.5 -0.4125 0.18065
0.350249 0.5 0.4125 0.160463
0.523432 0.5 -0.15 0.193562
0.523432 0.5 0.15 0.184934
0.151149 0.5 -0.525 0.172984
0.151149 0.5 0.525 0.149851
0.411736 0.5 -0.375 0.184732
0.411736 0.5 0.375 0.165518
0.075776 0.5 -0.5625 0.171914
0.075776 0.5 0.5625 0.147559
0.523432 0.5 -0.225 0.193865
0.523432 0.5 0.225 0.181035
0.574156 0.5 -0.0375 0.195971
0.574156 0.5 0.0375 0.193702
0.467897 0.5 0.3375 0.170672
0.467897 0.5 -0.3375 0.188753
0.574156 0.5 -0.1125 0.197444
0.574156 0.5 0.1125 0.190671
0 0.5 -0.593821 0.170984
0 0.5 0.593821 0.145514
0.0124865 0.5 -0.593821 0.170984
0.0124865 0.5 0.593821 0.145514
0.288069 0.5 -0.525 0.175613
0.288069 0.5 0.525 0.151468
0 0.5 -0.6 0.1708
0 0.5 0.6 0.14511
0.350249 0.5 -0.4875 0.179004
0.350249 0.5 0.4875 0.155598
0.523432 0.5 -0.3 0.193428
0.523432 0.5 0.3 0.176534
0.219992 0.5 -0.5625 0.172234
0.219992 0.5 0.5625 0.147476
0.574156 0.5 -0.1875 0.198109
0.574156 0.5 0.1875 0.186914
0 0.5 -0.606179 0.170618
0 0.5 0.606179 0.144708
0.0124865 0.5 -0.606179 0.170618
0.0124865 0.5 0.606179 0.144708
0.411736 0.5 -0.45 0.183205
0.411736 0.5 0.45 0.160572
0.151149 0.5 -0.6 0.170951
0.151149 0.5 0.6 0.145047
0.62168 0.5 2.64545e-17 0.19935
0.467897 0.5 0.4125 0.165679
0.467897 0.5 -0.4125 0.187386
0.624316 0.5 0.0729402 0.196952
0.624316 0.5 -0.075 0.201701
0.574156 0.5 -0.2625 0.197988
0.574157 0.5 0.2625 0.182478
0.075776 0.5 -0.6375 0.169703
0.075776 0.5 0.6375 0.142676
0.624316 0.5 -0.15 0.202794
0.624316 0.5 0.15 0.193359
0.523432 0.5 -0.375 0.192263
0.523432 0.5 0.375 0.171496
0.350249 0.5 -0.5625 0.176854
0.350249 0.5 0.5625 0.150424
0.624316 0.5 -0.225 0.203028
0.624316 0.5 0.225 0.189014
0.288069 0.5 0.6 0.146389
0.288069 0.5 -0.6 0.173388
0.574156 0.5 -0.3375 0.197077
0.574156 0.5 0.3375 0.177436
0.411736 0.5 -0.525 0.181125
0.411736 0.5 0.525 0.155269
0 0.5 -0.668821 0.168616
0 0.5 0.668821 0.140551
0.0124865 0.5 -0.668821 0.168616
0.0124865 0.5 0.668821 0.140551
0.67013 0.5 0.0375 0.203178
0.67013 0.5 -0.0375 0.205671
0.219993 0.5 -0.6375 0.169962
0.219993 0.5 0.6375 0.14251
0 0.5 -0.675 0.168401
0 0.5 0.675 0.14013
0.467897 0.5 0.4875 0.160278
0.467897 0.5 -0.4875 0.185414
0.67013 0.5 -0.1125 0.207248
0.67013 0.5 0.1125 0.199808
0 0.5 -0.681179 0.168188
0 0.5 0.681179 0.139712
0.0124865 0.5 -0.681179 0.168188
0.0124865 0.5 0.681179 0.139712
0.523432 0.5 -0.45 0.190419
0.523432 0.5 0.45 0.165991
0.151149 0.5 -0.675 0.168518
0.151149 0.5 0.675 0.140023
0.624316 0.5 -0.3 0.202412
0.624316 0.5 0.3 0.183984
0.67013 0.5 0.1875 0.195613
0.67013 0.5 -0.1875 0.207902
0.574156 0.5 -0.4125 0.195409
0.574157 0.5 0.4125 0.171864
0.708171 0.5 1.88651e-17 0.208639
0.075776 0.5 -0.7125 0.167116
0.075776 0.5 0.7125 0.137599
0.715434 0.5 0.0736268 0.206417
0.715434 0.5 -0.075 0.211834
0.67013 0.5 0.2625 0.190647
0.67013 0.5 -0.2625 0.207643
0.350249 0.5 -0.6375 0.174246
0.350249 0.5 0.6375 0.144999
0.411736 0.5 -0.6 0.178536
0.411736 0.5 0.6 0.149675
0.624316 0.5 -0.375 0.200969
0.624316 0.5 0.375 0.178349
0.715434 0.5 -0.15 0.212976
0.715434 0.5 0.15 0.2026
0.467897 0.5 -0.5625 0.182881
0.467897 0.5 0.5625 0.154538
0.288069 0.5 -0.675 0.170745
0.288069 0.5 0.675 0.141089
0.523432 0.5 -0.525 0.187955
0.523432 0.5 0.525 0.160093
0 0.5 -0.743821 0.165888
0 0.5 0.743821 0.135412
0.0124865 0.5 -0.743821 0.165888
0.0124865 0.5 0.743821 0.135412
0.219992 0.5 0.7125 0.137347
0.219992 0.5 -0.7125 0.167307
0.715434 0.5 -0.225 0.213131
0.715434 0.5 0.225 0.197738
0 0.5 -0.75 0.165645
0 0.5 0.75 0.134979
0.67013 0.5 0.3375 0.184998
0.67013 0.5 -0.3375 0.20648
0.574156 0.5 -0.4875 0.193059
0.574156 0.5 0.4875 0.16584
0 0.5 -0.756179 0.165404
0 0.5 0.756179 0.134548
0.0124865 0.5 -0.756179 0.165404
0.0124865 0.5 0.756179 0.134548
0.756813 0.5 -0.0375 0.216129
0.756813 0.5 0.0375 0.213382
0.151149 0.5 -0.75 0.165726
0.151149 0.5 0.75 0.134828
0.756813 0.5 -0.1125 0.217824
0.756813 0.5 0.1125 0.209628
0.624316 0.5 -0.45 0.198756
0.624316 0.5 0.45 0.172193
0.715434 0.5 -0.3 0.212307
0.715434 0.5 0.3 0.192099
0.756813 0.5 0.1875 0.204933
0.756813 0.5 -0.1875 0.218466
0.67013 0.5 -0.4125 0.204463
0.67013 0.5 0.4125 0.178754
0.411736 0.5 -0.675 0.175494
0.411736 0.5 0.675 0.143854
0.467897 0.5 0.6375 0.148532
0.467897 0.5 -0.6375 0.179843
0.075776 0.5 -0.7875 0.164191
0.075776 0.5 0.7875 0.132373
0.350249 0.5 -0.7125 0.171229
0.350249 0.5 0.7125 0.139382
0.523432 0.5 -0.6 0.184927
0.523432 0.5 0.6 0.153883
0.797732 0.5 2.68882e-17 0.220229
0.756813 0.5 -0.2625 0.218053
0.756814 0.5 0.2625 0.199366
0.797732 0.5 0.0736268 0.216622
0.797732 0.5 -0.075 0.222557
0.288069 0.5 -0.75 0.167728
0.288069 0.5 0.75 0.135622
0.574156 0.5 -0.5625 0.19008
0.574157 0.5 0.5625 0.15945
0.715434 0.5 -0.375 0.210542
0.715434 0.5 0.375 0.185782
0.797732 0.5 -0.15 0.223756
0.797732 0.5 0.15 0.212321
0.624316 0.5 -0.525 0.195844
0.624316 0.5 0.525 0.165609
0.219992 0.5 -0.7875 0.164309
0.219992 0.5 0.7875 0.132036
0 0.5 -0.818821 0.162841
0 0.5 0.818821 0.130144
0.0124865 0.5 0.818821 0.130144
0.0124865 0.5 -0.818821 0.162841
0 0.5 -0.825 0.162573
0 0.5 0.825 0.129702
0.756813 0.5 0.3375 0.193022
0.756814 0.5 -0.3375 0.216602
0.67013 0.5 -0.4875 0.201668
0.67013 0.5 0.4875 0.172006
0.797732 0.5 -0.225 0.22383
0.797732 0.5 0.225 0.20688
0 0.5 -0.831179 0.162308
0 0.5 0.831179 0.129263
0.0124865 0.5 -0.831179 0.162308
0.0124865 0.5 0.831179 0.129263
0.835106 0.5 0.0375 0.223975
0.835106 0.5 -0.0375 0.227009
0.151149 0.5 -0.825 0.162616
0.151149 0.5 0.825 0.129507
0.835106 0.5 0.1125 0.219792
0.835106 0.5 -0.1125 0.228834
0.715434 0.5 -0.45 0.207905
0.715434 0.5 0.45 0.17889
0.797732 0.5 -0.3 0.222784
0.797732 0.5 0.3 0.200564
0.467897 0.5 0.7125 0.142331
0.467897 0.5 -0.7125 0.176362
0.523432 0.5 -0.675 0.181401
0.523432 0.5 0.675 0.147439
0.411736 0.5 -0.75 0.172053
0.411736 0.5 0.75 0.137871
0.835106 0.5 -0.1875 0.229467
0.835106 0.5 0.1875 0.214544
0.574156 0.5 -0.6375 0.186543
0.574157 0.5 0.6375 0.152781
0.350249 0.5 -0.7875 0.167853
0.350249 0.5 0.7875 0.133631
0.756813 0.5 -0.4125 0.214188
0.756814 0.5 0.4125 0.186025
0.075776 0.5 -0.8625 0.160972
0.075776 0.5 0.8625 0.127045
0.624316 0.5 0.6 0.158694
0.624316 0.5 -0.6 0.192302
0.872064 0.5 5.91974e-17 0.231105
0.870122 0.5 0.075 0.226787
0.288069 0.5 -0.825 0.164384
0.288069 0.5 0.825 0.130039
0.67013 0.5 -0.5625 0.198166
0.67013 0.5 0.5625 0.164869
0.872064 0.5 -0.075 0.233645
0.835106 0.5 -0.2625 0.228906
0.835106 0.5 0.2625 0.208317
0.797732 0.5 -0.375 0.220665
0.797732 0.5 0.375 0.193491
0.872064 0.5 0.14794 0.222315
0.872064 0.5 -0.15 0.234903
0.715434 0.5 -0.525 0.204475
0.715434 0.5 0.525 0.171531
0.219992 0.5 0.8625 0.126623
0.219993 0.5 -0.8625 0.161014
0 0.5 -0.893821 0.159515
0 0.5 0.893821 0.124793
0.0124865 0.5 -0.893821 0.159515
0.0124865 0.5 0.893821 0.124793
0 0.5 -0.9 0.159227
0 0.5 0.9 0.124347
0.756813 0.5 -0.4875 0.210886
0.756813 0.5 0.4875 0.178482
0.872064 0.5 -0.225 0.234901
0.872064 0.5 0.225 0.216244
0.835106 0.5 -0.3375 0.227156
0.835106 0.5 0.3375 0.20122
0 0.5 0.906179 0.123903
0 0.5 -0.906179 0.158941
0.0124865 0.5 -0.906179 0.158941
0.0124865 0.5 0.906179 0.123903
0.90582 0.5 -0.0375 0.238199
0.90582 0.5 0.0375 0.234855
0.151149 0.5 -0.9 0.15923
0.151149 0.5 0.9 0.12411
0.90582 0.5 -0.1125 0.240149
0.905821 0.5 0.1125 0.23021
0.523432 0.5 -0.75 0.177448
0.523432 0.5 0.75 0.140838
0.574156 0.5 -0.7125 0.182525
0.574156 0.5 0.7125 0.145917
0.797732 0.5 -0.45 0.217555
0.797732 0.5 0.45 0.185788
0.467897 0.5 0.7875 0.136002
0.467897 0.5 -0.7875 0.1725
0.624316 0.5 -0.675 0.188216
0.624316 0.5 0.675 0.151542
0.411736 0.5 -0.825 0.168271
0.411736 0.5 0.825 0.131788
0.872064 0.5 0.3 0.209193
0.872064 0.5 -0.3 0.233622
0.67013 0.5 -0.6375 0.194047
0.67013 0.5 0.6375 0.157443
0.90582 0.5 0.1875 0.224367
0.905821 0.5 -0.1875 0.240769
0.350249 0.5 -0.8625 0.164172
0.350249 0.5 0.8625 0.127801
0.835106 0.5 -0.4125 0.22431
0.835106 0.5 0.4125 0.193396
0.715434 0.5 -0.6 0.200344
0.715434 0.5 0.6 0.163822
0.939201 0.5 2.75387e-17 0.241992
0.075776 0.5 0.9375 0.121662
0.075776 0.5 -0.9375 0.157498
0.939111 0.5 0.075 0.237367
0.939201 0.5 -0.075 0.24477
0.756813 0.5 0.5625 0.170509
0.756814 0.5 -0.5625 0.20679
0.90582 0.5 0.2625 0.217424
0.905821 0.5 -0.2625 0.240074
0.288069 0.5 -0.9 0.160762
0.288069 0.5 0.9 0.124393
0.872064 0.5 -0.375 0.231111
0.872064 0.5 0.375 0.201297
0.939201 0.5 0.148627 0.232108
0.939201 0.5 -0.15 0.246093
0.797732 0.5 -0.525 0.213549
0.797732 0.5 0.525 0.17758
0.219992 0.5 0.9375 0.121162
0.219992 0.5 -0.9375 0.157461
0.939201 0.5 -0.225 0.246043
0.939201 0.5 0.225 0.225491
0.905821 0.5 -0.3375 0.237971
0.90582 0.5 0.3375 0.209516
0.835106 0.5 -0.4875 0.22045
0.835106 0.5 0.4875 0.184984
0 0.5 0.968821 0.119406
0 0.5 -0.968821 0.155952
0.0124865 0.5 -0.968821 0.155952
0.0124865 0.5 0.968821 0.119406
0.969689 0.5 -0.0375 0.249153
0.969689 0.5 0.0375 0.245437
0.574156 0.5 -0.7875 0.178103
0.574156 0.5 0.7875 0.138941
0 0.5 -0.975 0.155646
0 0.5 0.975 0.11896
0.624316 0.5 -0.75 0.183669
0.624316 0.5 0.75 0.144243
0.969689 0.5 -0.1125 0.251249
0.96969 0.5 0.1125 0.240283
0.523432 0.5 -0.825 0.173138
0.523432 0.5 0.825 0.134152
0.67013 0.5 0.7125 0.14983
0.67013 0.5 -0.7125 0.189404
0 0.5 -0.981179 0.155342
0 0.5 0.981179 0.118516
0.467897 0.5 0.8625 0.129613
0.467897 0.5 -0.8625 0.168321
0.0124865 0.5 -0.981179 0.155342
0.0124865 0.5 0.981179 0.118516
0.872064 0.5 -0.45 0.22748
0.872064 0.5 0.45 0.192714
0.715434 0.5 -0.675 0.195615
0.715434 0.5 0.675 0.155878
0.939201 0.5 -0.3 0.244539
0.939201 0.5 0.3 0.217659
0.151149 0.5 0.975 0.118684
0.151149 0.5 -0.975 0.155608
0.969689 0.5 -0.1875 0.251873
0.969689 0.5 0.1875 0.233802
0.756813 0.5 -0.6375 0.202013
0.756813 0.5 0.6375 0.162247
0.411736 0.5 -0.9 0.164207
0.411736 0.5 0.9 0.125663
0.90582 0.5 -0.4125 0.23464
0.90582 0.5 0.4125 0.200794
0.995005 0.5 0.0749309 0.246608
0.797732 0.5 -0.6 0.208764
0.797732 0.5 0.6 0.169008
1.00005 0.5 -8.47123e-18 0.252601
0.350249 0.5 -0.9375 0.160236
0.350249 0.5 0.9375 0.121945
1.00005 0.5 -0.0749309 0.255608
0.969689 0.5 -0.2625 0.251124
0.969689 0.5 0.2625 0.226103
0.835106 0.5 -0.5625 0.215708
0.835106 0.5 0.5625 0.176117
1.00005 0.5 -0.149862 0.256951
0.939201 0.5 -0.375 0.241608
0.939201 0.5 0.375 0.208899
1.00029 0.5 0.148988 0.241632
0.075776 0.5 -1.0125 0.15381
0.075776 0.5 1.0125 0.116271
0.288069 0.5 0.975 0.118734
0.288069 0.5 -0.975 0.156907
0.872064 0.5 -0.525 0.222846
0.872064 0.5 0.525 0.183598
1.00005 0.5 0.224793 0.234372
1.00005 0.5 -0.224793 0.256865
0.969689 0.5 0.3375 0.217351
0.96969 0.5 -0.3375 0.248659
1.0271 0.5 -0.0368226 0.259991
1.0271 0.5 0.0368226 0.255963
0.90582 0.5 0.4875 0.191453
0.905821 0.5 -0.4875 0.230176
1.0271 0.5 -0.110468 0.262157
1.0271 0.5 0.110468 0.249508
0.67013 0.5 0.7875 0.142124
0.67013 0.5 -0.7875 0.184334
0.624316 0.5 0.825 0.136883
0.624316 0.5 -0.825 0.178751
0.219993 0.5 -1.0125 0.153695
0.219993 0.5 1.0125 0.115699
0.574156 0.5 -0.8625 0.173355
0.574156 0.5 0.8625 0.131928
0.715434 0.5 -0.75 0.190393
0.715434 0.5 0.75 0.147804
0.756813 0.5 0.7125 0.15381
0.756814 0.5 -0.7125 0.196666
0.523432 0.5 -0.9 0.168541
0.523432 0.5 0.9 0.12745
0.939201 0.5 -0.45 0.237437
0.939201 0.5 0.45 0.199394
1.04168 0.5 0 0.261175
1.0271 0.5 -0.184113 0.262739
1.0271 0.5 0.184113 0.243332
0 0.5 -1.04382 0.152191
0 0.5 1.04382 0.114026
0.0124865 0.5 -1.04382 0.152191
0.0124865 0.5 1.04382 0.114026
1.00005 0.5 -0.299723 0.255116
1.00005 0.5 0.299723 0.225706
1.04168 0.5 -0.0729162 0.264338
1.04168 0.5 0.0729162 0.256286
0.797732 0.5 -0.675 0.203325
0.797732 0.5 0.675 0.160213
0.467897 0.5 0.9375 0.123221
0.467897 0.5 -0.9375 0.163887
0 0.5 -1.05 0.15187
0 0.5 1.05 0.113582
0.835106 0.5 -0.6375 0.210213
0.835106 0.5 0.6375 0.166969
1.04168 0.5 -0.145832 0.265713
1.04168 0.5 0.145832 0.249904
0.969689 0.5 -0.4125 0.244851
0.96969 0.5 0.4125 0.207723
0 0.5 -1.05618 0.151552
0 0.5 1.05618 0.113139
0.0124865 0.5 -1.05618 0.151552
0.0124865 0.5 1.05618 0.113139
1.05695 0.5 -0.0360764 0.266413
1.05695 0.5 0.0360764 0.262236
0.411736 0.5 -0.975 0.159914
0.411736 0.5 0.975 0.119551
0.872064 0.5 -0.6 0.217348
0.872064 0.5 0.6 0.174106
1.0271 0.5 -0.257759 0.261976
1.0271 0.5 0.257759 0.234952
0.151149 0.5 -1.05 0.151793
0.151149 0.5 1.05 0.113266
1.05695 0.5 0.108229 0.257003
1.05695 0.5 -0.108229 0.268666
1.04168 0.5 -0.218749 0.265661
1.04168 0.5 0.218749 0.242115
0.90582 0.5 -0.5625 0.224727
0.905821 0.5 0.5625 0.181641
1.00005 0.5 -0.374654 0.251707
1.00005 0.5 0.374654 0.216026
0.350249 0.5 1.0125 0.116109
0.350249 0.5 -1.0125 0.156094
1.05695 0.5 -0.180382 0.269231
1.05695 0.5 0.180382 0.249368
1.07319 0.5 0.0709442 0.261767
0.939201 0.5 -0.525 0.232145
0.939201 0.5 0.525 0.189324
1.0271 0.5 -0.331404 0.259168
1.0271 0.5 0.331404 0.225425
1.08112 0.5 3.23815e-17 0.269683
1.04168 0.5 -0.291665 0.263928
1.04168 0.5 0.291665 0.233077
1.08112 0.5 -0.0709442 0.273019
0.969689 0.5 -0.4875 0.239784
0.96969 0.5 0.4875 0.197424
1.05695 0.5 0.252535 0.240849
1.05695 0.5 -0.252535 0.26857
0.288069 0.5 -1.05 0.152864
0.288069 0.5 1.05 0.113098
0.075776 0.5 -1.0875 0.149946
0.075776 0.5 1.0875 0.110905
1.08112 0.5 -0.141888 0.274489
1.08145 0.5 0.140165 0.257675
0.715434 0.5 0.825 0.1397
0.715434 0.5 -0.825 0.184787
0.756813 0.5 0.7875 0.145307
0.756814 0.5 -0.7875 0.190872
0.67013 0.5 -0.8625 0.178932
0.67013 0.5 0.8625 0.134417
0.797732 0.5 -0.75 0.197358
0.797732 0.5 0.75 0.151312
0.624316 0.5 -0.9 0.173545
0.624316 0.5 0.9 0.129542
1.00005 0.5 -0.449585 0.246936
1.00005 0.5 0.449585 0.205537
0.835106 0.5 -0.7125 0.204104
0.835106 0.5 0.7125 0.15767
0.574156 0.5 -0.9375 0.168357
0.574157 0.5 0.9375 0.124947
1.10076 0.5 -0.0349809 0.276286
1.10076 0.5 0.0349809 0.271872
1.08112 0.5 -0.212832 0.274487
1.08112 0.5 0.212832 0.250073
0.872064 0.5 -0.675 0.211132
0.872064 0.5 0.675 0.164405
1.04168 0.5 -0.364581 0.260393
1.04168 0.5 0.364581 0.222987
1.0271 0.5 0.405049 0.214952
1.0271 0.5 -0.405049 0.254918
1.05695 0.5 -0.324688 0.26583
1.05695 0.5 0.324688 0.231175
1.10076 0.5 -0.104943 0.278746
1.10076 0.5 0.104943 0.265955
0.523432 0.5 0.975 0.120794
0.523432 0.5 -0.975 0.163723
0.90582 0.5 0.6375 0.171537
0.905821 0.5 -0.6375 0.21845
0.219992 0.5 1.0875 0.110251
0.219992 0.5 -1.0875 0.149754
1.11376 0.5 3.81639e-17 0.276948
0.939201 0.5 0.6 0.178881
0.939201 0.5 -0.6 0.225899
1.10076 0.5 -0.174905 0.279351
1.10076 0.5 0.174905 0.258548
0.467897 0.5 -1.0125 0.159257
0.467897 0.5 1.0125 0.116886
1.11376 0.5 -0.0693118 0.280449
1.11376 0.5 0.0693118 0.27171
1.08112 0.5 0.283777 0.240822
1.08112 0.5 -0.283777 0.272852
0 0.5 -1.11882 0.14827
0 0.5 1.11882 0.108687
0.0124865 0.5 -1.11882 0.14827
0.0124865 0.5 1.11882 0.108687
0.969689 0.5 -0.5625 0.233621
0.969689 0.5 0.5625 0.186627
1.11376 0.5 0.138624 0.264357
1.11376 0.5 -0.138624 0.28202
0 0.5 -1.125 0.147938
0 0.5 1.125 0.108249
1.10076 0.5 0.244866 0.249764
1.10076 0.5 -0.244866 0.278807
0.411736 0.5 -1.05 0.155446
0.411736 0.5 1.05 0.113503
1.05695 0.5 -0.396841 0.261564
1.05695 0.5 0.396841 0.220539
1.00005 0.5 -0.524516 0.240914
1.00005 0.5 0.524516 0.194456
1.04168 0.5 -0.437497 0.25542
1.04168 0.5 0.437497 0.212053
0 0.5 -1.13118 0.147608
0 0.5 1.13118 0.107812
0.0124865 0.5 -1.13118 0.147608
0.0124865 0.5 1.13118 0.107812
1.11376 0.5 -0.207935 0.282072
1.11376 0.5 0.207935 0.256772
1.0271 0.5 -0.478694 0.249266
1.0271 0.5 0.478694 0.203757
0.151149 0.5 -1.125 0.147821
0.151149 0.5 1.125 0.107891
1.08112 0.5 -0.354722 0.269375
1.08112 0.5 0.354722 0.230501
1.13882 0.5 -0.0340295 0.284897
1.13882 0.5 0.0340295 0.280306
0.350249 0.5 -1.0875 0.151793
0.350249 0.5 1.0875 0.110335
1.13882 0.5 -0.102088 0.287528
1.13882 0.5 0.102088 0.274182
1.10076 0.5 -0.314829 0.276178
1.10076 0.5 0.314829 0.239803
0.756813 0.5 -0.8625 0.184744
0.756814 0.5 0.8625 0.136845
0.797732 0.5 -0.825 0.190997
0.797732 0.5 0.825 0.142425
1.11376 0.5 -0.277247 0.280501
1.11376 0.5 0.277247 0.247291
0.835106 0.5 0.7875 0.14834
0.835106 0.5 -0.7875 0.197521
0.715434 0.5 -0.9 0.178895
0.715434 0.5 0.9 0.131658
0.872064 0.5 -0.75 0.204362
0.872064 0.5 0.75 0.154627
1.13882 0.5 0.170147 0.266499
1.13882 0.5 -0.170147 0.288226
0.67013 0.5 -0.9375 0.173287
0.67013 0.5 0.9375 0.126785
0.905821 0.5 -0.7125 0.211498
0.905821 0.5 0.7125 0.161316
1.05695 0.5 0.468994 0.209165
1.05695 0.5 -0.468994 0.255855
0.939201 0.5 -0.675 0.218877
0.939201 0.5 0.675 0.16827
0.624316 0.5 0.975 0.122287
0.624316 0.5 -0.975 0.16813
1.04168 0.5 -0.510414 0.249121
1.04168 0.5 0.510414 0.20051
0.969689 0.5 -0.6375 0.226548
0.96969 0.5 0.6375 0.175601
0.288069 0.5 -1.125 0.148677
0.288069 0.5 1.125 0.107521
1.16179 0.5 5.78241e-19 0.28827
1.08112 0.5 0.425666 0.219314
1.08112 0.5 -0.425666 0.264368
1.13882 0.5 -0.238206 0.287705
1.13882 0.5 0.238206 0.257428
1.16179 0.5 0.0669104 0.283309
1.16179 0.5 -0.0669104 0.292009
0.574156 0.5 -1.0125 0.163178
0.574156 0.5 1.0125 0.118061
0.075776 0.5 -1.1625 0.145944
0.075776 0.5 1.1625 0.105604
1.00005 0.5 -0.599447 0.233848
1.00005 0.5 0.599447 0.183009
1.10076 0.5 0.384791 0.228855
1.10076 0.5 -0.384791 0.271923
1.0271 0.5 -0.55234 0.242413
1.0271 0.5 0.55234 0.192077
1.11376 0.5 -0.346559 0.277052
1.11376 0.5 0.346559 0.236717
1.16179 0.5 -0.133821 0.293724
1.16179 0.5 0.133821 0.275695
0.523432 0.5 -1.05 0.158747
0.523432 0.5 1.05 0.114243
1.17463 0.5 -0.0331343 0.293564
1.17463 0.5 0.0331343 0.288755
1.17463 0.5 -0.0994029 0.296375
1.17463 0.5 0.0994029 0.282391
1.16179 0.5 -0.200731 0.29386
1.16179 0.5 0.200731 0.267154
1.13882 0.5 -0.306265 0.285116
1.13882 0.5 0.306265 0.247143
0.219992 0.5 -1.1625 0.14568
0.219992 0.5 1.1625 0.104869
0.467897 0.5 -1.0875 0.154487
0.467897 0.5 1.0875 0.110667
1.17463 0.5 0.165672 0.274465
1.17463 0.5 -0.165672 0.297093
1.05695 0.5 -0.541147 0.248916
1.05695 0.5 0.541147 0.197292
1.18772 0.5 -5.78241e-19 0.294428
1.11376 0.5 -0.41587 0.272008
1.11376 0.5 0.41587 0.225255
1.18772 0.5 -0.065614 0.298314
1.18772 0.5 0.065614 0.288338
1.08112 0.5 -0.49661 0.257991
1.08112 0.5 0.49661 0.207492
1.10076 0.5 -0.454752 0.266152
1.10076 0.5 0.454752 0.217139
1.18534 0.5 0.118202 0.281527
1.16179 0.5 -0.267642 0.292357
1.16179 0.5 0.267642 0.257272
0 0.5 -1.19382 0.144227
0 0.5 1.19382 0.103424
0.0124865 0.5 1.19382 0.103424
0.0124865 0.5 -1.19382 0.144227
1.04168 0.5 -0.58333 0.24172
1.04168 0.5 0.58333 0.188581
1.18772 0.5 -0.131228 0.30013
1.17463 0.5 -0.23194 0.296705
1.17463 0.5 0.23194 0.265099
0.411736 0.5 -1.125 0.150854
0.411736 0.5 1.125 0.10756
1.13882 0.5 -0.374324 0.28081
1.13882 0.5 0.374324 0.235841
0 0.5 -1.2 0.143887
0 0.5 1.2 0.102993
0.905821 0.5 0.7875 0.151088
0.905821 0.5 -0.7875 0.20409
0.872064 0.5 -0.825 0.197199
0.872064 0.5 0.825 0.144907
0.835106 0.5 0.8625 0.139118
0.835106 0.5 -0.8625 0.190613
0.939201 0.5 -0.75 0.211275
0.939201 0.5 0.75 0.157632
0.797732 0.5 -0.9 0.184362
0.797732 0.5 0.9 0.133655
1.0271 0.5 0.625985 0.180131
1.0271 0.5 -0.625985 0.234599
0.969689 0.5 0.7125 0.164536
0.96969 0.5 -0.7125 0.218788
1.18772 0.5 -0.196842 0.300327
1.18772 0.5 0.196842 0.27278
0.756814 0.5 -0.9375 0.178385
0.756814 0.5 0.9375 0.128511
0 0.5 1.20618 0.102564
0 0.5 -1.20618 0.14355
1.00005 0.5 -0.674378 0.225974
1.00005 0.5 0.674378 0.171411
0.0124865 0.5 1.20618 0.102564
0.0124865 0.5 -1.20618 0.14355
1.16179 0.5 -0.334552 0.288893
1.16179 0.5 0.334552 0.246254
0.715434 0.5 0.975 0.123753
0.715434 0.5 -0.975 0.172815
0.151149 0.5 -1.2 0.143735
0.151149 0.5 1.2 0.102596
1.20942 0.5 0.0322645 0.297459
1.20942 0.5 -0.0322645 0.302503
1.17463 0.5 -0.298209 0.294153
1.17463 0.5 0.298209 0.254488
1.20942 0.5 -0.0967935 0.305512
1.20942 0.5 0.0967935 0.290908
0.350249 0.5 -1.1625 0.147381
0.350249 0.5 1.1625 0.10465
0.67013 0.5 1.0125 0.119295
0.67013 0.5 -1.0125 0.167483
1.11376 0.5 0.485183 0.213135
1.11376 0.5 -0.485183 0.265546
1.18772 0.5 0.262456 0.262681
1.18772 0.5 -0.262456 0.29889
1.10076 0.5 -0.524714 0.259103
1.10076 0.5 0.524714 0.204894
1.20942 0.5 -0.161322 0.306313
1.20942 0.5 0.161322 0.28273
1.08112 0.5 -0.567554 0.250458
1.08112 0.5 0.567554 0.195261
0.624316 0.5 -1.05 0.16258
0.624316 0.5 1.05 0.11518
1.13882 0.5 -0.442383 0.274925
1.13882 0.5 0.442383 0.223741
1.05695 0.5 0.6133 0.185126
1.05695 0.5 -0.6133 0.240968
1.16179 0.5 -0.401463 0.28373
1.16179 0.5 0.401463 0.234307
0.574156 0.5 -1.0875 0.157884
0.574156 0.5 1.0875 0.111324
1.17463 0.5 0.364477 0.242831
1.17463 0.5 -0.364477 0.289797
1.20942 0.5 -0.225851 0.306011
1.20942 0.5 0.225851 0.273087
1.23036 0.5 -1.32995e-17 0.30574
1.2294 0.5 0.0634819 0.298788
1.04168 0.5 -0.656246 0.23346
1.04168 0.5 0.656246 0.176477
1.23036 0.5 -0.0634819 0.309867
1.18772 0.5 0.32807 0.251425
1.18772 0.5 -0.32807 0.29545
0.288069 0.5 -1.2 0.144388
0.288069 0.5 1.2 0.102039
1.23036 0.5 -0.126964 0.311843
1.23036 0.5 0.126964 0.292298
0.075776 0.5 -1.2375 0.141844
0.075776 0.5 1.2375 0.100393
0.523432 0.5 -1.125 0.153671
0.523432 0.5 1.125 0.107846
1.0271 0.5 -0.69963 0.226088
1.0271 0.5 0.69963 0.168104
1.24274 0.5 0.0314313 0.306293
1.24274 0.5 -0.0314313 0.311512
1.20942 0.5 0.29038 0.262169
1.20942 0.5 -0.29038 0.303544
1.11376 0.5 -0.554494 0.257882
1.11376 0.5 0.554494 0.200589
1.23036 0.5 -0.190445 0.312143
1.23036 0.5 0.190445 0.28323
1.24274 0.5 -0.0942942 0.31474
1.24274 0.5 0.0942942 0.299483
1.13882 0.5 0.510442 0.211088
1.13882 0.5 -0.510442 0.267708
0.969689 0.5 -0.7875 0.210526
0.969689 0.5 0.7875 0.153522
1.00005 0.5 -0.749309 0.217505
1.00005 0.5 0.749309 0.15981
0.939201 0.5 -0.825 0.203276
0.939201 0.5 0.825 0.147122
0.90582 0.5 0.8625 0.141019
0.90582 0.5 -0.8625 0.196368
1.17463 0.5 -0.430746 0.28379
1.17463 0.5 0.430746 0.230342
1.10076 0.5 -0.594676 0.250969
1.10076 0.5 0.594676 0.192336
1.18772 0.5 -0.393684 0.290249
1.18772 0.5 0.393684 0.239218
1.24274 0.5 -0.157157 0.315622
1.24274 0.5 0.157157 0.29105
1.16179 0.5 -0.468373 0.27707
1.16179 0.5 0.468373 0.221663
0.467897 0.5 -1.1625 0.149629
0.467897 0.5 1.1625 0.104595
0.872064 0.5 -0.9 0.189785
0.872064 0.5 0.9 0.135371
1.25401 0.5 2.08167e-17 0.311803
0.835106 0.5 0.9375 0.130086
0.835106 0.5 -0.9375 0.183501
1.25401 0.5 -0.0622994 0.316087
1.25401 0.5 0.0622994 0.305472
1.08112 0.5 -0.638498 0.241995
1.08112 0.5 0.638498 0.182841
1.23036 0.5 -0.253927 0.310799
1.23036 0.5 0.253927 0.272773
0.219992 0.5 1.2375 0.0995889
0.219992 0.5 -1.2375 0.141516
1.25309 0.5 0.121964 0.298035
1.05695 0.5 0.685452 0.172886
1.05695 0.5 -0.685452 0.232261
0.797732 0.5 0.975 0.125078
0.797732 0.5 -0.975 0.177566
1.25401 0.5 -0.124599 0.318183
1.20942 0.5 -0.354909 0.299182
1.20942 0.5 0.354909 0.250174
1.24274 0.5 -0.220019 0.315431
1.24274 0.5 0.220019 0.281127
0.756814 0.5 -1.0125 0.171905
0.756813 0.5 1.0125 0.120377
1.25401 0.5 -0.186898 0.318557
1.25401 0.5 0.186898 0.288778
0.411736 0.5 -1.2 0.146184
0.411736 0.5 1.2 0.101748
0 0.5 -1.26882 0.1401
0 0.5 1.26882 0.0982664
0.0124865 0.5 1.26882 0.0982664
0.0124865 0.5 -1.26882 0.1401
0.715434 0.5 -1.05 0.166631
0.715434 0.5 1.05 0.116053
1.23036 0.5 -0.31741 0.3074
1.23036 0.5 0.31741 0.261117
1.04168 0.5 -0.729162 0.224586
1.04168 0.5 0.729162 0.164379
1.18772 0.5 -0.459298 0.283501
1.18772 0.5 0.459298 0.226295
1.24274 0.5 -0.282882 0.313045
1.24274 0.5 0.282882 0.269901
0 0.5 -1.275 0.139755
0 0.5 1.275 0.0978461
1.27472 0.5 -0.0306319 0.320539
1.27472 0.5 0.0306319 0.315131
1.17463 0.5 0.497015 0.217277
1.17463 0.5 -0.497015 0.276399
1.11376 0.5 -0.623806 0.249231
1.11376 0.5 0.623806 0.187843
1.13882 0.5 -0.578501 0.25934
1.13882 0.5 0.578501 0.198106
0.67013 0.5 -1.0875 0.161589
0.67013 0.5 1.0875 0.112008
1.27472 0.5 -0.0918959 0.323969
1.27472 0.5 0.0918959 0.30662
1.25401 0.5 -0.249197 0.317287
1.25401 0.5 0.249197 0.278114
1.16179 0.5 -0.535284 0.269129
1.16179 0.5 0.535284 0.208565
1.20942 0.5 -0.419438 0.29309
1.20942 0.5 0.419438 0.237314
0 0.5 -1.28118 0.139412
0 0.5 1.28118 0.0974267
0.0124865 0.5 1.28118 0.0974267
0.0124865 0.5 -1.28118 0.139412
1.27472 0.5 0.15316 0.299414
1.27472 0.5 -0.15316 0.325016
0.151149 0.5 -1.275 0.139571
0.151149 0.5 1.275 0.0974118
1.0271 0.5 0.773275 0.156126
1.0271 0.5 -0.773275 0.217068
1.10076 0.5 0.664638 0.179704
1.10076 0.5 -0.664638 0.241985
0.350249 0.5 -1.2375 0.142899
0.350249 0.5 1.2375 0.0990877
0.624316 0.5 -1.125 0.156959
0.624316 0.5 1.125 0.108274
1.23036 0.5 0.380892 0.248466
1.23036 0.5 -0.380892 0.30214
1.24274 0.5 -0.345745 0.308716
1.24274 0.5 0.345745 0.257563
1.2906 0.5 0 0.322486
1.2906 0.5 -0.0604698 0.327041
1.2906 0.5 0.0604698 0.316142
1.25401 0.5 -0.311497 0.313944
1.25401 0.5 0.311497 0.266231
1.27472 0.5 -0.214423 0.324877
1.27472 0.5 0.214423 0.289223
1.08112 0.5 0.709442 0.170443
1.08112 0.5 -0.709442 0.232862
1.00005 0.5 -0.824239 0.208644
1.00005 0.5 0.824239 0.148319
1.2906 0.5 -0.12094 0.329356
1.2906 0.5 0.12094 0.308155
0.574156 0.5 -1.1625 0.15253
0.574156 0.5 1.1625 0.104791
0.969689 0.5 -0.8625 0.20195
0.96969 0.5 0.8625 0.142817
1.18772 0.5 0.524912 0.212902
1.18772 0.5 -0.524912 0.275426
1.05695 0.5 -0.757605 0.223046
1.05695 0.5 0.757605 0.160756
0.939201 0.5 -0.9 0.195047
0.939201 0.5 0.9 0.13687
1.30091 0.5 -0.0299772 0.32825
1.30091 0.5 0.0299772 0.322673
1.20942 0.5 -0.483967 0.285535
1.20942 0.5 0.483967 0.223846
1.17463 0.5 -0.563284 0.267786
1.17463 0.5 0.563284 0.203868
1.2906 0.5 -0.181409 0.329866
1.2906 0.5 0.181409 0.298574
0.90582 0.5 0.9375 0.131229
0.90582 0.5 -0.9375 0.188481
1.30091 0.5 -0.0899316 0.331863
1.30091 0.5 0.0899316 0.31284
1.27472 0.5 0.275687 0.277697
1.27472 0.5 -0.275687 0.322583
0.288069 0.5 -1.275 0.140035
0.288069 0.5 1.275 0.096683
0.872064 0.5 -0.975 0.182242
0.872064 0.5 0.975 0.126106