# pMean  POINT_DATA 91129
# x  y  z  pMean
0 0 0 0.2108
0 0.00368111 0 0.210508
0 0.00749587 0 0.209878
0 0.0114491 0 0.209263
0 0.0155459 0 0.208709
0 0.0197915 0 0.20812
0 0.0241911 0 0.207454
0 0.0287506 0 0.206721
0 0.0334755 0 0.205939
0 0.038372 0 0.205128
0 0.0434463 0 0.204299
0 0.0487048 0 0.203459
0 0.0541543 0 0.202614
0 0.0598016 0 0.201774
0 0.0656539 0 0.20096
0 0.0717187 0 0.200197
0.075776 0.00184055 0 0.2108
0.075776 0.00558849 0 0.210215
0.075776 0.00947248 -3.46945e-18 0.20954
0.075776 0.0134975 -3.46945e-18 0.208985
0.075776 0.0176687 3.46945e-18 0.208433
0 0.0780037 0 0.199479
0.075776 0.0219913 3.46945e-18 0.207806
0.075776 0.0264709 3.46945e-18 0.207102
0.075776 0.031113 -3.46945e-18 0.206339
0.075776 0.0359237 -3.46945e-18 0.205539
0 0.0845169 0 0.198773
0.075776 0.0409092 0 0.204717
0.075776 0.0460755 -3.46945e-18 0.203881
0 0.0912666 0 0.198057
0.075776 0.0514296 -3.46945e-18 0.203037
0.075776 0.0569779 0 0.202191
0 0.0982613 0 0.197329
0.075776 0.0627278 0 0.201357
0.075776 0.0686863 0 0.200564
0 0.10551 0 0.19659
0.075776 0.0748612 3.46945e-18 0.199831
0.075776 0.0812603 -3.46945e-18 0.199128
0 0.113022 0 0.195838
0.075776 0.0878918 3.46945e-18 0.198419
0 0.120806 0 0.195075
0.075776 0.0947639 3.46945e-18 0.197696
0.075776 0.101886 -3.46945e-18 0.196962
0 0.128874 0 0.194307
0.075776 0.109266 3.46945e-18 0.196217
0 0.137234 0 0.193552
0.075776 0.116914 3.46945e-18 0.19546
0 0.145897 0 0.192822
0.075776 0.12484 0 0.19469
0.151552 0 0 0.195145
0.151552 0.00368111 0 0.195032
0.151552 0.00749587 0 0.19482
0.151552 0.0114491 0 0.194657
0.151552 0.0155459 0 0.194526
0.151552 0.0197915 0 0.194371
0.075776 0.133054 0 0.193923
0.151552 0.0241911 0 0.194176
0.151552 0.0287506 0 0.193942
0 0.154876 0 0.192119
0.151552 0.0334755 0 0.193679
0.151552 0.038372 0 0.193397
0.151552 0.0434463 0 0.193102
0.151552 0.0487048 0 0.192797
0.075776 0.141566 0 0.19318
0.151552 0.0541543 0 0.192484
0.151552 0.0598016 0 0.192168
0 0.16418 0 0.191443
0.151552 0.0656539 0 0.191858
0.151552 0.0717187 0 0.191564
0.075776 0.150387 0 0.192463
0.151552 0.0780037 0 0.191285
0.151552 0.0845169 0 0.191002
0 0.173822 0 0.190798
0.075776 0.159528 0 0.191774
0.151552 0.0912666 0 0.190704
0.151552 0.0982613 0 0.190392
0 0.183814 0 0.190192
0.151552 0.10551 0 0.190066
0.075776 0.169001 3.46945e-18 0.191112
0.151552 0.113022 0 0.189726
0.151552 0.120806 0 0.189369
0 0.194169 0 0.189624
0.075776 0.178818 3.46945e-18 0.190484
0.151552 0.128874 0 0.188999
0.075776 0.188992 3.46945e-18 0.1899
0.151552 0.137234 0 0.188624
0 0.2049 0 0.189066
0.151552 0.145897 0 0.188252
0.075776 0.199535 0 0.189348
0 0.21602 0 0.188474
0.151552 0.154876 0 0.187884
0.219992 0.00184055 0 0.180696
0.219992 0.00558849 0 0.180799
0.219992 0.00947248 -3.46945e-18 0.18104
0.219992 0.0134975 3.46945e-18 0.181309
0.219992 0.0176687 0 0.18156
0.219992 0.0219913 0 0.181801
0.219993 0.0264709 -3.46945e-18 0.182035
0.219992 0.031113 -3.46945e-18 0.182257
0.219992 0.0359238 3.46945e-18 0.182467
0.151552 0.16418 0 0.187521
0.075776 0.21046 0 0.188783
0.219992 0.0409092 3.46945e-18 0.18267
0.219992 0.0460755 0 0.182863
0.219993 0.0514296 -3.46945e-18 0.183047
0.219992 0.0569779 0 0.18322
0 0.227544 0 0.187829
0.219992 0.0627277 3.46945e-18 0.183381
0.219992 0.0686863 0 0.183529
0.151552 0.173822 0 0.187164
0.219992 0.0748612 3.46945e-18 0.183662
0.075776 0.221782 0 0.188165
0.219992 0.0812603 3.46945e-18 0.183778
0.219992 0.0878917 -3.46945e-18 0.183876
0.151552 0.183814 0 0.186812
7.47806e-17 0.239487 0 0.187142
0.219992 0.0947639 3.46945e-18 0.183956
0.219993 0.101886 3.46945e-18 0.18402
0.075776 0.233516 0 0.187493
0.219993 0.109266 0 0.184068
0.151552 0.194169 0 0.186466
0.219993 0.116914 0 0.184097
0 0.251863 0 0.186431
0.219993 0.12484 0 0.184106
0.151552 0.2049 0 0.186111
0.075776 0.245675 0 0.18679
0.219992 0.133054 3.46945e-18 0.184093
0.219992 0.141565 0 0.184058
0.151552 0.21602 0 0.185726
0 0.264688 0 0.185706
0.219992 0.150387 3.46945e-18 0.184006
0.075776 0.258275 3.46945e-18 0.186072
0.219992 0.159528 -3.46945e-18 0.183942
0.151552 0.227544 0 0.185299
0.219992 0.169001 3.46945e-18 0.18386
0 0.27798 0 0.184966
0.075776 0.271334 3.46945e-18 0.18534
0.151552 0.239487 3.70071e-18 0.184836
0.219992 0.178818 3.46945e-18 0.183756
0.288433 0 0 0.184631
0.288433 0.00368111 0 0.184668
0.288433 0.00749587 0 0.184783
0.288433 0.0114491 0 0.18495
0.288433 0.0155459 3.70071e-18 0.185125
0.288433 0.0197915 0 0.185296
0.288433 0.0241911 3.70071e-18 0.185466
0.288433 0.0287506 0 0.185632
0.219992 0.188991 0 0.183627
0.288433 0.0334755 0 0.185792
0.288433 0.038372 0 0.185949
0.288433 0.0434463 0 0.1861
7.47806e-17 0.291753 0 0.184208
0.288433 0.0487048 0 0.186245
0.288433 0.0541543 0 0.186383
0.151552 0.251863 0 0.184346
0.288433 0.0598016 3.70071e-18 0.186513
0.075776 0.284866 0 0.184592
0.288433 0.0656539 3.70071e-18 0.186636
0.219992 0.199534 0 0.183473
0.288433 0.0717187 0 0.186753
0.288433 0.0780037 0 0.186862
0.288433 0.0845169 0 0.186962
0.288433 0.0912666 0 0.187048
0.219992 0.21046 -3.46945e-18 0.183293
0.288433 0.0982613 0 0.187112
0.151552 0.264688 3.70071e-18 0.183834
0 0.306027 0 0.183426
0.288433 0.10551 0 0.187151
0.075776 0.29889 3.46945e-18 0.183824
0.288433 0.113022 0 0.18717
0.219993 0.221782 0 0.183083
0.288433 0.120806 0 0.187172
0.288433 0.128874 0 0.187163
0.151552 0.27798 0 0.183304
0.288433 0.137234 0 0.187141
0 0.320819 0 0.182612
0.219992 0.233515 -3.46945e-18 0.182843
0.075776 0.313423 -3.46945e-18 0.183028
0.288433 0.145897 0 0.187102
0.288433 0.154876 0 0.187045
0.151552 0.291753 0 0.182753
0.219993 0.245675 0 0.182571
0.288433 0.16418 0 0.186969
0 0.336148 0 0.181774
0.288433 0.173822 0 0.186873
0.075776 0.328484 -3.46945e-18 0.182195
0.219993 0.258275 -3.46945e-18 0.182268
0.151552 0.306027 0 0.182175
0.288433 0.183814 0 0.186754
0.288433 0.194169 0 0.186612
0.219992 0.271334 3.46945e-18 0.181941
0.350249 0.00184056 -3.46945e-18 0.188277
0.350249 0.00558849 0 0.188322
0.350249 0.00947248 3.46945e-18 0.188402
0.350249 0.0134975 0 0.188494
0.350249 0.0176687 0 0.188593
0.350249 0.0219913 0 0.188699
0.350249 0.0264708 3.46945e-18 0.188807
0.350249 0.031113 0 0.188916
0 0.352034 0 0.180946
0.350249 0.0359238 0 0.189026
0.075776 0.344091 0 0.181353
0.350249 0.0409091 0 0.189135
0.350249 0.0460756 3.46945e-18 0.189241
0.288433 0.2049 0 0.186444
0.350249 0.0514296 0 0.189344
0.151552 0.320819 0 0.18156
0.350249 0.0569779 0 0.189442
0.350249 0.0627277 3.46945e-18 0.189537
0.350249 0.0686863 3.46945e-18 0.189631
0.350249 0.0748612 3.46945e-18 0.189726
0.350249 0.0812603 0 0.189821
0.219992 0.284867 0 0.181595
0.288433 0.21602 0 0.186249
0.350249 0.0878917 0 0.189913
0.350249 0.094764 0 0.189987
0.350249 0.101886 0 0.190026
0.350249 0.109266 0 0.190035
0.288433 0.227544 0 0.186025
0.075776 0.360265 3.46945e-18 0.18054
0 0.368496 0 0.180133
0.151552 0.336148 0 0.180908
0.350249 0.116914 3.46945e-18 0.190026
0.219992 0.29889 0 0.181224
0.370854 0.0241911 1.54074e-33 0.191056
0.350249 0.12484 0 0.19001
0.350249 0.133054 0 0.189994
0.288433 0.239487 -9.25154e-19 0.185771
0.350249 0.141566 3.46945e-18 0.189969
0.350249 0.150387 3.46945e-18 0.189924
0.288433 0.251863 0 0.185485
0.219992 0.313423 0 0.180815
0.151552 0.352034 0 0.180237
0.075776 0.377027 0 0.179726
0.350249 0.159528 0 0.189857
0 0.385557 0 0.179292
0.350249 0.169001 0 0.189768
0.288433 0.264688 0 0.185169
0.350249 0.178818 0 0.189659
0.219992 0.328484 0 0.18036
0.350249 0.188992 0 0.189527
0.151552 0.368496 0 0.179548
0.288433 0.27798 3.70071e-18 0.184825
0.075776 0.394397 0 0.178857
0.350249 0.199535 0 0.189371
7.47806e-17 0.403236 0 0.17839
0.219992 0.344091 0 0.179856
0.350249 0.21046 -3.46945e-18 0.18919
0.288433 0.291753 0 0.184453
0.412065 9.08189e-19 3.08149e-33 0.193532
0.412065 0.00368111 -2.31298e-18 0.193548
0.412065 0.00749587 -2.31298e-18 0.193592
0.412065 0.0114491 -2.31298e-18 0.193651
0.412065 0.0155459 -2.31298e-18 0.193716
0.412065 0.0197915 0 0.193783
0.412065 0.0241911 -3.08149e-33 0.193852
0.412065 0.0264709 0 0.193887
0.412065 0.0287506 -2.31298e-18 0.193922
0.412065 0.0334755 -2.31298e-18 0.193995
0.412065 0.038372 -2.31298e-18 0.194069
0.151552 0.385557 0 0.178824
0.412065 0.0434463 0 0.194146
0.350249 0.221782 0 0.188981
0.412065 0.0487048 0 0.194222
0.412065 0.0541543 -3.08149e-33 0.194298
0.412065 0.0569779 0 0.194336
0.412065 0.0598016 -2.31298e-18 0.194373
0.412065 0.0656539 -2.31298e-18 0.194446
0.412065 0.0717187 -2.31298e-18 0.194517
0.075776 0.412396 -3.46945e-18 0.177922
0.412065 0.0780037 -2.31298e-18 0.194582
0.288433 0.306027 0 0.184048
0.412065 0.0845169 -2.31298e-18 0.194638
0.350249 0.233516 3.46945e-18 0.188744
0 0.421557 0 0.177432
0.412065 0.0912666 -2.31298e-18 0.194671
0.219992 0.360265 3.46945e-18 0.179306
0.412065 0.0982613 0 0.194676
0.412065 0.10551 0 0.194658
0.412065 0.113022 -2.31298e-18 0.194622
0.350249 0.245675 0 0.188476
0.412065 0.120806 0 0.194575
0.151552 0.403236 0 0.178046
0.288433 0.320819 0 0.183603
0.412065 0.128874 -2.31298e-18 0.194519
0.412065 0.137234 0 0.194453
0.350249 0.258275 -3.46945e-18 0.188176
0.219992 0.377026 0 0.178711
0.412065 0.145897 -2.31298e-18 0.194375
0.075776 0.431051 0 0.17694
0.412065 0.154876 -2.31298e-18 0.19428
0 0.440544 0 0.176432
0.288433 0.336148 0 0.183115
0.350249 0.271334 0 0.187842
0.412065 0.16418 -2.31298e-18 0.194167
0.412065 0.173822 -2.31298e-18 0.194036
0.151552 0.421557 0 0.177215
0.412065 0.183814 -2.31298e-18 0.193886
0.350249 0.284867 3.46945e-18 0.187475
0.219992 0.394397 0 0.178073
0.288433 0.352034 3.70071e-18 0.18258
0.412065 0.194169 0 0.193714
0.075776 0.450382 0 0.175923
0.412065 0.2049 -2.31298e-18 0.193519
0 0.46022 0 0.175397
0.350249 0.29889 3.46945e-18 0.187074
0.412065 0.21602 0 0.1933
0.151552 0.440544 0 0.176335
0.219993 0.412396 3.46945e-18 0.177385
0.467897 0.00184056 -3.46945e-18 0.19842
0.467897 0.00558849 0 0.198441
0.288433 0.368496 0 0.181999
0.467897 0.00947248 0 0.198473
0.467897 0.0134975 0 0.198509
0.467897 0.0176687 3.46945e-18 0.198545
0.467897 0.0219913 -3.46945e-18 0.198578
0.467897 0.0264709 3.46945e-18 0.198612
0.467897 0.0311131 3.46945e-18 0.198648
0.467897 0.0359238 -3.46945e-18 0.198689
0.467897 0.038372 0 0.199225
0.467897 0.0409092 3.46945e-18 0.198734
0.350249 0.313423 0 0.186637
0.467897 0.0460755 0 0.198782
0.467897 0.0514296 3.46945e-18 0.198834
0.412065 0.227544 -2.31298e-18 0.193054
0.467897 0.0569779 0 0.198889
0.467897 0.0627277 -3.46945e-18 0.198944
0.467897 0.0686863 3.46945e-18 0.198996
0.467897 0.0748612 0 0.19904
0.467897 0.0812603 0 0.199073
0.467897 0.0878918 3.46945e-18 0.199079
0.075776 0.470415 3.46945e-18 0.17487
0.412065 0.239487 -2.31298e-18 0.192779
0.467897 0.0947639 -3.46945e-18 0.199048
0.467897 0.101886 3.46945e-18 0.198994
0.350249 0.328483 0 0.186161
0.467897 0.109266 0 0.198931
0 0.48061 0 0.174325
0.288433 0.385557 0 0.181371
0.467897 0.116914 0 0.198859
0.412065 0.251863 -2.31298e-18 0.192475
0.219992 0.431051 0 0.176644
0.467897 0.12484 0 0.198772
0.151552 0.46022 0 0.175408
0.467897 0.133054 3.46945e-18 0.198671
0.467897 0.141566 3.46945e-18 0.198557
0.412065 0.264688 -2.31298e-18 0.192138
0.350249 0.344091 -3.46945e-18 0.185643
0.467897 0.150387 3.46945e-18 0.198433
0.467897 0.154876 0 0.198975
0.467897 0.159528 3.46945e-18 0.198296
0.288433 0.403236 0 0.180693
0.075776 0.491175 0 0.173779
0.412065 0.27798 -2.31298e-18 0.191767
0.467897 0.169001 0 0.198144
0.467897 0.178818 3.46945e-18 0.197974
0.219992 0.450382 0 0.175846
6.73026e-17 0.501741 3.70071e-18 0.17321
0.350249 0.360265 0 0.185078
0.151552 0.48061 0 0.174435
0.467897 0.188991 0 0.197787
0.412065 0.291753 0 0.191361
0.467897 0.199535 0 0.197578
0.288433 0.421557 0 0.179963
0.467897 0.21046 0 0.197348
0.412065 0.306027 0 0.190919
0.350249 0.377027 0 0.184465
0.467897 0.221782 3.46945e-18 0.197094
0.075776 0.51269 0 0.17264
0.219993 0.470415 3.46945e-18 0.174992
0.467897 0.227544 0 0.197548
0.412065 0.320819 -2.31298e-18 0.190436
0.467897 0.233515 0 0.196814
6.73026e-17 0.523639 3.70071e-18 0.172048
0.523729 0 0 0.204178
0.523729 0.00368111 0 0.204187
0.523729 0.00749587 -2.31298e-18 0.20421
0.523729 0.0114491 0 0.204239
0.523729 0.0155459 0 0.204269
0.523729 0.0197915 -2.31298e-18 0.204293
0.151552 0.501741 0 0.173411
0.523729 0.0241911 0 0.204313
0.523729 0.0287506 0 0.204333
0.523729 0.0334755 0 0.204356
0.523729 0.038372 -3.08149e-33 0.204381
0.523729 0.0434463 0 0.20441
0.523729 0.0487048 0 0.204441
0.523729 0.0541543 0 0.204476
0.288433 0.440544 0 0.179176
0.523729 0.0598016 0 0.204513
0.350249 0.394397 -3.46945e-18 0.183801
0.523729 0.0656539 0 0.20455
0.467897 0.245675 0 0.196506
0.523729 0.0717187 0 0.204583
0.523729 0.0780037 0 0.204604
0.523729 0.0845169 0 0.204597
0.523729 0.0912666 0 0.204554
0.412065 0.336148 0 0.189912
0.523729 0.0982613 0 0.204486
0.523729 0.10551 -2.31298e-18 0.204405
0.467897 0.258275 -3.46945e-18 0.196167
0.523729 0.113022 0 0.204315
0.523729 0.120806 -3.08149e-33 0.204213
0.219993 0.491176 0 0.174082
0.523729 0.12484 0 0.204155
0.523729 0.128874 -2.31298e-18 0.204097
0.075776 0.534986 0 0.171453
0.467897 0.271334 3.46945e-18 0.195795
0.350249 0.412396 -3.46945e-18 0.183084
0.523729 0.137234 0 0.203968
0.412065 0.352034 -2.31298e-18 0.189341
0.288433 0.46022 0 0.178331
0.523729 0.145897 0 0.203826
0.151552 0.523639 0 0.172332
0.523729 0.154876 -3.08149e-33 0.203669
0 0.546332 0 0.170836
0.523729 0.159528 0 0.203583
0.467897 0.284867 -3.46945e-18 0.195388
0.523729 0.16418 -2.31298e-18 0.203497
0.523729 0.173822 0 0.203308
0.412065 0.368496 0 0.188722
0.523729 0.183814 0 0.2031
0.467897 0.29889 0 0.194944
0.350249 0.431051 -3.46945e-18 0.182311
0.219992 0.51269 0 0.173113
0.523729 0.194169 0 0.202871
0.288433 0.48061 0 0.177426
0.523729 0.2049 0 0.20262
0.467897 0.313423 3.46945e-18 0.194459
0.075776 0.558091 0 0.170216
0.412065 0.385557 0 0.188053
0.523729 0.21602 -3.08149e-33 0.202344
0.151552 0.546332 0 0.171192
0 0.569849 0 0.169572
0.350249 0.450382 3.46945e-18 0.181479
0.523729 0.227544 -3.08149e-33 0.202043
0.467897 0.328483 0 0.193931
0.523729 0.231525 1.54074e-33 0.201934
0.574156 0.00184056 0 0.209559
0.574156 0.00558849 0 0.209573
0.574157 0.00947248 0 0.209597
0.574156 0.0134975 -3.46945e-18 0.209624
0.574156 0.0176687 -3.46945e-18 0.209644
0.574156 0.0219913 0 0.209653
0.574156 0.0264708 -3.46945e-18 0.209659
0.574156 0.031113 0 0.209666
0.574156 0.0359238 -3.46945e-18 0.209675
0.574157 0.0409092 0 0.209685
0.523729 0.239487 3.70071e-18 0.201714
0.574156 0.0460755 -3.46945e-18 0.209698
0.574156 0.0514295 0 0.209714
0.412065 0.403236 0 0.187329
0.574157 0.0569779 0 0.209733
0.574156 0.0627277 0 0.209754
0.574156 0.0686863 0 0.209776
0.219992 0.534986 0 0.172076
0.288433 0.501741 0 0.176458
0.574156 0.0748612 3.46945e-18 0.209793
0.574156 0.0812603 0 0.209785
0.467897 0.344091 0 0.193358
0.574156 0.0878917 3.46945e-18 0.209729
0.523729 0.251863 0 0.201355
0.574157 0.0947639 0 0.209641
0.574156 0.101886 0 0.209544
0.574156 0.109266 0 0.209438
0.574156 0.116914 0 0.209321
0.412065 0.416977 -6.16298e-33 0.186745
0.350249 0.470415 0 0.180585
0.523729 0.264688 0 0.200964
0.075776 0.582034 0 0.168925
0.574156 0.12484 0 0.209193
0.574156 0.133054 3.46945e-18 0.20905
0.412065 0.421557 -2.31298e-18 0.18655
0.151552 0.569849 0 0.169988
0.467897 0.360265 -3.46945e-18 0.192737
0.574157 0.141566 -3.46945e-18 0.208894
0.523729 0.27798 0 0.200538
0.574156 0.150386 3.46945e-18 0.208722
0 0.594219 0 0.168251
0.574156 0.159528 -3.46945e-18 0.208534
0.574156 0.16418 0 0.208977
0.288433 0.523639 1.2326e-32 0.175424
0.574157 0.169001 0 0.208327
0.523729 0.291753 0 0.200075
0.219993 0.558091 3.46945e-18 0.170966
0.467897 0.377026 0 0.192065
0.574156 0.178818 3.46945e-18 0.208102
0.412065 0.440544 -2.31298e-18 0.185711
0.350249 0.491175 0 0.179625
0.574156 0.188992 3.46945e-18 0.207855
0.523729 0.306027 -3.08149e-33 0.199573
0.574157 0.199535 0 0.207586
0.574157 0.21046 0 0.207293
0.075776 0.606847 0 0.167574
0.467897 0.394397 0 0.19134
0.151552 0.594219 0 0.168717
0.523729 0.320819 0 0.199028
0.574157 0.221782 -3.46945e-18 0.206974
0.412065 0.46022 3.08149e-33 0.18481
0.288433 0.546332 0 0.174317
0 0.619475 0 0.166868
0.574156 0.233515 3.46945e-18 0.206628
0.350249 0.51269 3.46945e-18 0.178598
0.219992 0.582034 3.46945e-18 0.169781
0.523729 0.336148 0 0.198439
0.467897 0.412396 0 0.190558
0.574156 0.245675 0 0.206252
0.624584 0 0 0.216054
0.624584 0.00368111 0 0.21606
0.624584 0.00749587 0 0.216078
0.624584 0.0114491 0 0.216104
0.624584 0.0155459 0 0.216127
0.624584 0.0197915 0 0.216138
0.624584 0.0241911 -2.31298e-18 0.216138
0.624584 0.0287506 0 0.216134
0.624584 0.0334755 0 0.216131
0.624584 0.038372 0 0.216129
0.624584 0.0434463 -2.31298e-18 0.216128
0.624584 0.0487048 0 0.216129
0.624584 0.0541543 0 0.216132
0.624584 0.0598016 0 0.216135
0.624584 0.0656539 0 0.216139
0.624584 0.0717187 0 0.216138
0.624584 0.0780037 0 0.216117
0.574157 0.258276 3.46945e-18 0.205844
0.624584 0.0845169 0 0.216058
0.523729 0.352034 0 0.197802
0.624584 0.0912666 0 0.215962
0.624584 0.0982613 0 0.215847
0.412065 0.48061 3.08149e-33 0.183844
0.624584 0.10551 0 0.215721
0.624584 0.113022 -2.31298e-18 0.215585
0.574156 0.271334 0 0.205402
0.624584 0.120806 0 0.215436
0.467897 0.431051 0 0.189717
0.075776 0.632561 -3.46945e-18 0.16616
0.624584 0.128874 0 0.215272
0.151552 0.619475 0 0.167376
0.288433 0.569849 0 0.173136
0.350249 0.534985 0 0.177499
0.624584 0.137234 -2.31298e-18 0.215094
0.523729 0.368496 0 0.197115
0.574156 0.284866 -3.46945e-18 0.204924
0.624584 0.145897 0 0.214899
0.467897 0.440544 0 0.189756
0.624584 0.154876 0 0.214687
0.219992 0.606847 -3.46945e-18 0.168518
0 0.645647 0 0.16542
0.624584 0.16418 -3.08149e-33 0.214457
0.574156 0.29889 -3.46945e-18 0.204407
0.624584 0.173822 0 0.214207
0.412065 0.501741 1.54074e-33 0.182809
0.467897 0.450382 -3.46945e-18 0.188814
0.523729 0.385557 0 0.196374
0.624584 0.183814 0 0.213935
0.624584 0.194169 0 0.213641
0.574156 0.313423 0 0.203849
0.624584 0.2049 0 0.213323
0.350249 0.558091 3.46945e-18 0.176326
0.288433 0.594219 0 0.171876
0.624584 0.21602 0 0.212978
0.523729 0.403236 0 0.195577
0.574156 0.328483 -3.46945e-18 0.203247
0.151552 0.645647 0 0.165961
0.467897 0.470415 3.46945e-18 0.187845
0.075776 0.659208 0 0.164677
0.624584 0.227544 0 0.212606
0.412065 0.523639 0 0.181702
0.523729 0.41545 3.08149e-33 0.195005
0.624584 0.239487 3.70071e-18 0.212203
0.574156 0.344091 0 0.202598
0.219992 0.632561 0 0.167176
0.67013 0.00184055 0 0.222151
0.67013 0.00558849 0 0.222164
0.67013 0.00947248 0 0.222186
0.67013 0.0134975 0 0.222214
0.67013 0.0176687 -3.46945e-18 0.222231
0.67013 0.0219913 0 0.22223
0.67013 0.0264708 3.46945e-18 0.222218
0.67013 0.0311131 0 0.222204
0.67013 0.0359237 0 0.22219
0.67013 0.0409092 -3.46945e-18 0.222178
0.67013 0.0460755 0 0.222166
0.67013 0.0514296 3.46945e-18 0.222155
0.523729 0.421557 -2.31298e-18 0.19472
0.67013 0.056978 0 0.222143
0 0.67277 0 0.163901
0.67013 0.0627277 0 0.22213
0.624584 0.251863 0 0.211769
0.67013 0.0686863 0 0.222117
0.67013 0.0748612 3.46945e-18 0.22209
0.67013 0.0812603 0 0.222027
0.67013 0.0878917 0 0.221921
0.67013 0.0947639 3.46945e-18 0.22179
0.574156 0.360265 0 0.201899
0.67013 0.101886 0 0.221649
0.523729 0.431051 0 0.19426
0.624584 0.264688 0 0.211301
0.467897 0.491175 0 0.186808
0.67013 0.109266 3.46945e-18 0.221495
0.350249 0.582034 0 0.175073
0.67013 0.116914 0 0.221329
0.67013 0.12484 0 0.221147
0.67013 0.133054 0 0.220949
0.288433 0.619475 0 0.170534
0.624584 0.27798 -3.08149e-33 0.210797
0.412065 0.546332 1.54074e-33 0.180519
0.523729 0.440544 -3.08149e-33 0.1938
0.67013 0.141566 3.46945e-18 0.220735
0.685312 0.0241911 -7.70372e-34 0.224872
0.685312 0.0434463 -7.70372e-34 0.224795
0.67013 0.150387 0 0.220503
0.574156 0.377026 -3.46945e-18 0.201147
0.67013 0.159528 0 0.220252
0.624584 0.291753 0 0.210254
0.151552 0.67277 0 0.164469
0.075776 0.686823 0 0.163122
0.67013 0.169001 0 0.219981
0.67013 0.178818 0 0.219688
0.467897 0.51269 0 0.185699
0.685312 0.113022 -7.70372e-34 0.223932
0.219992 0.659208 0 0.16575
0.624584 0.306027 0 0.20967
0.67013 0.188991 0 0.219372
0.574156 0.394397 3.46945e-18 0.200339
0.523729 0.46022 0 0.192814
0.685312 0.137234 -7.70372e-34 0.223327
0.67013 0.199535 -3.46945e-18 0.219032
0.350249 0.606847 0 0.173739
0 0.700877 0 0.162307
0.624584 0.320819 0 0.209043
0.67013 0.21046 0 0.218665
0.412065 0.569849 -2.31298e-18 0.179257
0.67013 0.221782 -3.46945e-18 0.21827
0.574157 0.412396 0 0.199472
0.288433 0.645647 0 0.169108
0.624584 0.336148 -3.08149e-33 0.208368
0.67013 0.233515 3.46945e-18 0.217846
0.467897 0.534986 0 0.184513
0.523729 0.48061 0 0.191759
0.624584 0.344091 0 0.208007
0.67013 0.245675 0 0.217389
0.715676 4.54095e-19 0 0.229181
0.715676 0.00368111 0 0.229187
0.715676 0.00749587 0 0.229204
0.715676 0.0114491 0 0.229229
0.715676 0.0155459 0 0.22925
0.715676 0.0197915 0 0.229253
0.715676 0.0241911 0 0.229239
0.715676 0.0287506 0 0.229214
0.715676 0.0334755 0 0.229186
0.715676 0.038372 0 0.229157
0.624584 0.352034 -2.31298e-18 0.207645
0.715676 0.0434463 0 0.229128
0.151552 0.700877 0 0.162894
0.715676 0.0487048 0 0.229099
0.715676 0.0541543 0 0.229069
0.574156 0.43105 0 0.198541
0.715676 0.0598016 0 0.229037
0.67013 0.258275 0 0.216899
0.715676 0.0656539 0 0.229005
0.715676 0.0717187 0 0.228962
0.075776 0.715441 0 0.161489
0.715676 0.0780037 0 0.228889
0.715676 0.0845169 0 0.228776
0.219992 0.686824 0 0.164239
0.715676 0.0912666 0 0.22863
0.715676 0.0982613 0 0.228469
0.67013 0.271334 -3.46945e-18 0.216373
0.350249 0.632561 -3.46945e-18 0.172318
0.412065 0.594219 3.08149e-33 0.177912
0.715676 0.10551 0 0.228295
0.715676 0.113022 0 0.228106
0.624584 0.368496 0 0.206868
0.523729 0.501741 0 0.19063
0.715676 0.120806 0 0.227902
0.715676 0.128874 0 0.227681
0.67013 0.284867 0 0.215808
0.467897 0.558091 3.46945e-18 0.183248
0.715676 0.137234 0 0.227443
0.574156 0.450382 0 0.197544
0 0.730005 0 0.160634
0.715676 0.145897 0 0.227187
0.288433 0.67277 0 0.167593
0.715676 0.154876 0 0.22691
0.67013 0.29889 0 0.215203
0.624584 0.385557 0 0.206035
0.715676 0.16418 -9.25187e-19 0.226613
0.715676 0.173822 0 0.226294
0.715676 0.183814 0 0.225951
0.67013 0.313423 0 0.214554
0.523729 0.523639 0 0.189425
0.715676 0.194169 0 0.225583
0.574156 0.470415 3.46945e-18 0.196477
0.624584 0.403236 0 0.205143
0.743101 0.0241911 -7.70372e-34 0.233918
0.412065 0.619475 3.08149e-33 0.176478
0.715676 0.2049 0 0.225188
0.151552 0.730005 0 0.161234
0.67013 0.328484 3.46945e-18 0.213858
0.350249 0.659208 0 0.170808
0.467897 0.582034 0 0.181898
0.715676 0.21602 0 0.224765
0.219992 0.715441 0 0.162637
0.075776 0.745097 -3.46945e-18 0.159774
0.715676 0.227544 0 0.224311
0.67013 0.344091 0 0.213114
0.624584 0.421557 0 0.204188
0.743101 0.128874 -7.70372e-34 0.232073
0.715676 0.239487 3.70071e-18 0.223826
0.574156 0.491175 0 0.195336
0.756814 0.00184055 0 0.235814
0.523729 0.546332 0 0.188137
0.756813 0.00558849 0 0.235827
0.756813 0.00947248 0 0.235848
0.756814 0.0134975 -3.46945e-18 0.235876
0.756814 0.0155459 0 0.236282
0.756814 0.0176687 0 0.235887
0.756814 0.0219913 0 0.235874
0.756814 0.0264709 0 0.235842
0.756814 0.031113 -3.46945e-18 0.235802
0.756813 0.0359238 -3.46945e-18 0.23576
0.288433 0.700877 0 0.165986
0.756814 0.0409092 -3.46945e-18 0.235716
0.756813 0.0460755 3.46945e-18 0.23567
0.756813 0.0514296 0 0.235622
0.715676 0.251863 0 0.223306
0.756813 0.0569779 0 0.235574
0.756814 0.0627277 -3.46945e-18 0.235525
0.756814 0.0686863 -3.46945e-18 0.235471
0 0.76019 0 0.158876
0.756814 0.0748612 0 0.235396
0.67013 0.360265 3.46945e-18 0.212317
0.756814 0.0812603 -3.46945e-18 0.235275
0.756814 0.0878917 -3.46945e-18 0.235114
0.756814 0.0947639 -3.46945e-18 0.234935
0.715676 0.264688 0 0.222751
0.756813 0.101886 0 0.234742
0.624584 0.440544 0 0.203166
0.756813 0.109266 3.46945e-18 0.234535
0.756813 0.116914 3.46945e-18 0.234312
0.412065 0.645647 0 0.174954
0.467897 0.606847 0 0.18046
0.756814 0.120806 0 0.234523
0.756813 0.12484 0 0.234071
0.715676 0.27798 0 0.222157
0.756814 0.133054 -3.46945e-18 0.233812
0.67013 0.377026 -3.46945e-18 0.211465
0.756814 0.137234 0 0.233994
0.574156 0.51269 0 0.194117
0.756813 0.141566 3.46945e-18 0.233534
0.685312 0.352034 -7.70372e-34 0.214895
0.743101 0.2049 -7.70372e-34 0.229369
0.350249 0.686824 0 0.169204
0.756814 0.150387 0 0.233236
0.756814 0.154876 0 0.233387
0.715676 0.291753 0 0.221522
0.756814 0.159528 -3.46945e-18 0.232916
0.523729 0.569849 0 0.186765
0.72743 0.264688 0 0.224477
0.756814 0.16418 0 0.233051
0.151552 0.76019 0 0.159484
0.756813 0.169001 3.46945e-18 0.232574
0.624584 0.46022 0 0.202074
0.219993 0.745097 0 0.160943
0.67013 0.394396 0 0.210553
0.756813 0.178818 -3.46945e-18 0.232207
0.715676 0.306027 0 0.220843
0.075776 0.775831 0 0.157973
0.756813 0.188991 0 0.231815
0.756814 0.199535 0 0.231396
0.715676 0.320819 0 0.220119
0.574156 0.534985 0 0.192816
0.288433 0.730005 0 0.164284
0.756813 0.21046 0 0.230948
0.467897 0.632561 0 0.178929
0.67013 0.412396 -3.46945e-18 0.209579
0.624584 0.48061 -3.08149e-33 0.200907
0.756814 0.221782 0 0.23047
0.412065 0.67277 3.08149e-33 0.173333
0.715676 0.336148 0 0.219346
0 0.791472 0 0.157029
0.756813 0.233516 3.46945e-18 0.229959
0.523729 0.594219 0 0.185302
0.624584 0.487654 1.54074e-33 0.200492
0.756814 0.245675 3.46945e-18 0.229415
0.350249 0.715441 3.46945e-18 0.167502
0.67013 0.43105 0 0.208539
0.715676 0.352034 -9.25187e-19 0.21852
0.797951 9.08189e-19 -3.08149e-33 0.243248
0.797951 0.00368111 2.31298e-18 0.243254
0.797951 0.00749587 2.31298e-18 0.243271
0.797951 0.0114491 2.31298e-18 0.243296
0.797951 0.0141803 7.70372e-34 0.243308
0.797951 0.0155459 0 0.243314
0.797951 0.0169611 7.70372e-34 0.243312
0.797951 0.0197915 2.31298e-18 0.243308
0.797951 0.0219913 0 0.243293
0.797951 0.0241911 3.08149e-33 0.243277
0.797951 0.0264709 0 0.243252
0.797951 0.0287506 -3.08149e-33 0.243227
0.797951 0.0334755 2.31298e-18 0.243168
0.797951 0.038372 2.31298e-18 0.243104
0.797951 0.0434463 2.31298e-18 0.243037
0.797951 0.0487048 0 0.242966
0.756813 0.258275 -3.46945e-18 0.228834
0.797951 0.0541543 2.31298e-18 0.242893
0.797951 0.0598016 2.31298e-18 0.242817
0.797951 0.0656539 2.31298e-18 0.242737
0.574156 0.55809 0 0.191429
0.624584 0.501741 0 0.199662
0.797951 0.0717187 2.31298e-18 0.24264
0.797951 0.0780037 -3.08149e-33 0.242506
0.797951 0.0845169 2.31298e-18 0.242329
0.797951 0.0912666 -3.08149e-33 0.242125
0.797951 0.0982613 2.31298e-18 0.241904
0.756813 0.271334 0 0.228214
0.797951 0.10551 2.31298e-18 0.241668
0.715676 0.368496 0 0.217639
0.151552 0.791472 0 0.15764
0.797951 0.113022 2.31298e-18 0.241416
0.219992 0.775831 3.46945e-18 0.159152
0.797951 0.118211 7.70372e-34 0.241235
0.770526 0.239487 1.54074e-33 0.232008
0.797951 0.120806 0 0.241145
0.67013 0.450382 3.46945e-18 0.207428
0.797951 0.128874 3.08149e-33 0.240855
0.467897 0.659208 0 0.1773
0.756813 0.284866 -3.46945e-18 0.227554
0.743101 0.320819 -7.70372e-34 0.224014
0.797951 0.137234 0 0.240546
0.797951 0.141566 0 0.240381
0.797951 0.145897 -9.25187e-19 0.240216
0.523729 0.619475 0 0.183744
0.075776 0.807681 0 0.15608
0.797951 0.150387 0 0.240039
0.797951 0.154876 0 0.239863
0.715676 0.385557 0 0.2167
0.412065 0.700877 3.08149e-33 0.171612
0.288433 0.76019 0 0.162482
0.756813 0.29889 0 0.226851
0.797951 0.16418 0 0.239488
0.624584 0.523639 0 0.198334
0.797951 0.167394 7.70372e-34 0.239355
0.797951 0.173822 2.31298e-18 0.239089
0.574156 0.582034 0 0.18995
0.67013 0.470415 0 0.206242
0.797951 0.183814 2.31298e-18 0.238664
0.756813 0.313423 -3.46945e-18 0.226102
0.797951 0.194169 -9.25187e-19 0.238211
0.715676 0.403236 0 0.215698
0.151552 0.807681 0 0.156669
0.797951 0.197746 -7.70372e-34 0.238051
0.350249 0.745097 0 0.165698
0.797951 0.2049 3.08149e-33 0.23773
0 0.823889 0 0.155089
0.756813 0.328483 -3.46945e-18 0.225304
0.797951 0.21046 0 0.237475
0.797951 0.21602 -3.08149e-33 0.237219
0.797951 0.223703 7.70372e-34 0.236857
0.797951 0.227544 9.25187e-19 0.236676
0.624584 0.546332 0 0.196917
0.715676 0.421557 0 0.21463
0.67013 0.491176 -3.46945e-18 0.204978
0.797951 0.231525 7.70372e-34 0.236483
0.467897 0.686824 -3.46945e-18 0.175569
0.523729 0.645647 0 0.182087
0.756813 0.344091 -3.46945e-18 0.224455
0.822721 0.120806 7.70372e-34 0.245696
0.797951 0.239487 -3.08149e-33 0.236099
0.822721 0.137234 7.70372e-34 0.245046
0.835106 0.00184056 0 0.250297
0.835106 0.00558849 0 0.25031
0.835106 0.00947248 0 0.250333
0.835106 0.0134975 0 0.25036
0.835107 0.0176687 0 0.250367
0.835106 0.0219913 -3.46945e-18 0.25034
0.574156 0.606847 3.46945e-18 0.188375
0.835106 0.0241911 0 0.250545
0.835106 0.0264709 -3.46945e-18 0.250287
0.822721 0.145897 -7.70372e-34 0.24469
0.835106 0.031113 3.46945e-18 0.250215
0.835106 0.0359238 3.46945e-18 0.250134
0.835106 0.0409092 -3.46945e-18 0.250048
0.835106 0.0460755 3.46945e-18 0.249956
0.835106 0.0514296 0 0.249861
0.797951 0.251863 -3.08149e-33 0.235486
0.835106 0.0541543 0 0.250039
0.835106 0.0569779 0 0.249762
0.219992 0.807681 3.46945e-18 0.15726
0.822721 0.154876 7.70372e-34 0.24431
0.835106 0.0627277 0 0.249659
0.151552 0.823889 0 0.155698
0.797951 0.255069 -1.54074e-33 0.235323
0.835106 0.0686863 3.46945e-18 0.249547
0.756814 0.360265 -3.46945e-18 0.223551
0.412065 0.730005 0 0.169786
0.835106 0.0748612 0 0.249404
0.822721 0.16418 7.70372e-34 0.243907
0.835106 0.0812603 0 0.249211
0.835106 0.0878917 -3.46945e-18 0.248982
0.715676 0.440544 0 0.213491
0.835106 0.094764 0 0.248737
0.797951 0.264688 -1.2326e-32 0.234835
0.835106 0.101886 -3.46945e-18 0.248476
0.835106 0.109266 3.46945e-18 0.248197
0.288433 0.791472 0 0.160576
0.835106 0.116914 0 0.247899
0.67013 0.51269 3.46945e-18 0.203629
0.797951 0.274657 6.16298e-33 0.234316
0.075776 0.840686 -3.46945e-18 0.154092
0.835106 0.12484 0 0.247582
0.797951 0.27798 -3.08149e-33 0.234143
0.624584 0.569849 0 0.195408
0.756813 0.377026 -3.46945e-18 0.222588
0.835106 0.133054 3.46945e-18 0.247245
0.835106 0.141565 3.46945e-18 0.246886
0.835106 0.150386 0 0.246505
0.797951 0.291753 0 0.23341
0.835106 0.159528 3.46945e-18 0.2461
0.715676 0.46022 0 0.212277
0.816529 0.239487 -1.54074e-33 0.239253