# pMean  POINT_DATA 63140
# x  y  z  pMean
0 0.1 0 0.197152
0 0.1 -0.0179898 0.197557
0 0.1 0.0179898 0.196748
0.0363518 0.1 0.0179898 0.196748
0.0363518 0.1 -0.0179898 0.197557
0 0.1 -0.0570102 0.198316
0 0.1 0.0570102 0.195719
0.0363518 0.1 0.0570102 0.195719
0.0363518 0.1 -0.0570102 0.198316
0 0.1 -0.075 0.198605
0 0.1 0.075 0.195177
0.075776 0.1 -0.0375 0.198002
0.075776 0.1 0.0375 0.19631
0 0.1 -0.0929898 0.198898
0 0.1 0.0929898 0.194638
0.0363518 0.1 -0.0929898 0.198898
0.0363518 0.1 0.0929898 0.194638
0 0.1 -0.13201 0.199431
0 0.1 0.13201 0.193335
0.075776 0.1 -0.1125 0.199218
0.075776 0.1 0.1125 0.194053
0.0363518 0.1 -0.13201 0.199431
0.0363518 0.1 0.13201 0.193335
0 0.1 -0.15 0.199629
0 0.1 0.15 0.192676
0.150379 0.1 -2.22623e-17 0.190424
0 0.1 -0.16799 0.19983
0 0.1 0.16799 0.192019
0.150379 0.1 -0.075 0.191978
0.150379 0.1 0.075 0.18829
0.0363518 0.1 -0.16799 0.19983
0.0363518 0.1 0.16799 0.192019
0.075776 0.1 -0.1875 0.20005
0.075776 0.1 0.1875 0.191308
0 0.1 -0.20701 0.200128
0 0.1 0.20701 0.190456
0.0363518 0.1 -0.20701 0.200128
0.0363518 0.1 0.20701 0.190456
0.150379 0.1 -0.15 0.192975
0.150379 0.1 0.15 0.185597
0.219993 0.1 -0.0375 0.185
0.219993 0.1 0.0375 0.183007
0 0.1 -0.225 0.200202
0 0.1 0.225 0.189674
0 0.1 -0.24299 0.20028
0 0.1 0.24299 0.188893
0.0363518 0.1 0.24299 0.188893
0.0363518 0.1 -0.24299 0.20028
0.219993 0.1 -0.1125 0.186308
0.219993 0.1 0.1125 0.180426
0.150379 0.1 -0.225 0.193408
0.150379 0.1 0.225 0.18237
0.075776 0.1 -0.2625 0.200364
0.075776 0.1 0.2625 0.188048
0 0.1 -0.28201 0.200287
0 0.1 0.28201 0.187072
0.0363518 0.1 -0.28201 0.200287
0.0363518 0.1 0.28201 0.187072
0.287374 0.1 -2.89121e-19 0.187076
0.219992 0.1 0.1875 0.177256
0.219992 0.1 -0.1875 0.186939
0.287374 0.1 -0.075 0.188737
0.287374 0.1 0.075 0.184777
0 0.1 -0.3 0.20022
0 0.1 0.3 0.186175
0 0.1 0.31799 0.18528
0 0.1 -0.31799 0.200157
0.0363518 0.1 -0.31799 0.200157
0.0363518 0.1 0.31799 0.18528
0.287374 0.1 0.15 0.181876
0.287374 0.1 -0.15 0.189739
0.150379 0.1 -0.3 0.193217
0.150379 0.1 0.3 0.178631
0.219993 0.1 0.2625 0.173544
0.219993 0.1 -0.2625 0.186908
0.075776 0.1 -0.3375 0.200087
0.075776 0.1 0.3375 0.18431
0.350249 0.1 -0.0375 0.191011
0.350249 0.1 0.0375 0.18902
0 0.1 -0.35701 0.199863
0 0.1 0.35701 0.183216
0.0363518 0.1 -0.35701 0.199863
0.0363518 0.1 0.35701 0.183216
0.287374 0.1 -0.225 0.190082
0.287374 0.1 0.225 0.178403
0.350249 0.1 -0.1125 0.192362
0.350249 0.1 0.1125 0.186392
0 0.1 -0.375 0.19966
0 0.1 0.375 0.18221
0 0.1 -0.39299 0.199459
0 0.1 0.39299 0.181206
0.0363518 0.1 -0.39299 0.199459
0.0363518 0.1 0.39299 0.181206
0.350249 0.1 -0.1875 0.193077
0.350249 0.1 0.1875 0.183169
0.219992 0.1 -0.3375 0.186157
0.219992 0.1 0.3375 0.16932
0.150379 0.1 0.375 0.174433
0.150379 0.1 -0.375 0.192417
0.411108 0.1 4.33681e-19 0.194606
0.287374 0.1 -0.3 0.189753
0.287374 0.1 0.3 0.174395
0.411108 0.1 -0.075 0.196342
0.411108 0.1 0.075 0.19216
0.075776 0.1 -0.4125 0.199242
0.075776 0.1 0.4125 0.180118
0 0.1 0.43201 0.178919
0 0.1 -0.43201 0.198871
0.0363518 0.1 0.43201 0.178919
0.0363518 0.1 -0.43201 0.198871
0.411108 0.1 -0.15 0.197359
0.411108 0.1 0.15 0.189031
0.350249 0.1 -0.2625 0.193132
0.350249 0.1 0.2625 0.179384
0 0.1 -0.45 0.198532
0 0.1 0.45 0.177817
0.219992 0.1 0.4125 0.164701
0.219992 0.1 -0.4125 0.184852
0 0.1 -0.46799 0.198195
0 0.1 0.46799 0.176716
0.411108 0.1 -0.225 0.197655
0.411108 0.1 0.225 0.185261
0.467897 0.1 -0.0375 0.200106
0.467897 0.1 0.0375 0.197911
0.0363518 0.1 0.46799 0.176716
0.0363518 0.1 -0.46799 0.198195
0.287374 0.1 -0.375 0.188787
0.287374 0.1 0.375 0.169914
0.150379 0.1 0.45 0.169844
0.150379 0.1 -0.45 0.191075
0.467897 0.1 0.1125 0.194953
0.467897 0.1 -0.1125 0.201506
0.350249 0.1 -0.3375 0.192535
0.350249 0.1 0.3375 0.175075
0.075776 0.1 -0.4875 0.197831
0.075776 0.1 0.4875 0.175524
0.467897 0.1 0.1875 0.191261
0.467897 0.1 -0.1875 0.202111
0 0.1 -0.50701 0.197331
0 0.1 0.50701 0.174233
0.0363518 0.1 -0.50701 0.197331
0.0363518 0.1 0.50701 0.174233
0.411108 0.1 0.3 0.180906
0.411108 0.1 -0.3 0.197231
0.522865 0.1 1.41031e-17 0.204392
0 0.1 -0.525 0.196873
0 0.1 0.525 0.173047
0.522865 0.1 -0.075 0.206258
0.522865 0.1 0.075 0.201692
0.287374 0.1 0.45 0.165028
0.287374 0.1 -0.45 0.187253
0.219992 0.1 0.4875 0.159769
0.219992 0.1 -0.4875 0.183062
0.467897 0.1 -0.2625 0.201927
0.467897 0.1 0.2625 0.186904
0.350249 0.1 -0.4125 0.191319
0.350249 0.1 0.4125 0.170308
0 0.1 -0.54299 0.196417
0 0.1 0.54299 0.171861
0.522865 0.1 0.15 0.198192
0.522865 0.1 -0.15 0.207272
0.0363518 0.1 0.54299 0.171861
0.0363518 0.1 -0.54299 0.196417
0.150379 0.1 -0.525 0.189226
0.150379 0.1 0.525 0.164934
0.411108 0.1 -0.375 0.196118
0.411108 0.1 0.375 0.176026
0.075776 0.1 -0.5625 0.195923
0.075776 0.1 0.5625 0.170577
0.522865 0.1 -0.225 0.207434
0.522865 0.1 0.225 0.193943
0.574156 0.1 0.0375 0.208377
0.574157 0.1 -0.0375 0.210762
0.467897 0.1 -0.3375 0.200971
0.467897 0.1 0.3375 0.181961
0 0.1 -0.58201 0.195299
0 0.1 0.58201 0.169214
0.0363518 0.1 -0.58201 0.195299
0.0363518 0.1 0.58201 0.169214
0.574157 0.1 -0.1125 0.212242
0.574157 0.1 0.1125 0.205123
0.287374 0.1 -0.525 0.185185
0.287374 0.1 0.525 0.159802
0 0.1 -0.6 0.194727
0 0.1 0.6 0.167961
0.350249 0.1 0.4875 0.165092
0.350249 0.1 -0.4875 0.189493
0.522865 0.1 -0.3 0.206759
0.522865 0.1 0.3 0.189013
0.219992 0.1 -0.5625 0.180791
0.219992 0.1 0.5625 0.154613
0.574156 0.1 -0.1875 0.212809
0.574156 0.1 0.1875 0.201042
0.411108 0.1 0.45 0.170671
0.411108 0.1 -0.45 0.194353
0 0.1 -0.61799 0.194157
0 0.1 0.61799 0.166708
0.150379 0.1 -0.6 0.186911
0.150379 0.1 0.6 0.159758
0.0363518 0.1 -0.61799 0.194157
0.0363518 0.1 0.61799 0.166708
0.467897 0.1 -0.4125 0.199303
0.467897 0.1 0.4125 0.176486
0.623803 0.1 2.34188e-17 0.215738
0.623803 0.1 0.075 0.212765
0.623803 0.1 -0.075 0.217752
0.574156 0.1 0.2625 0.19619
0.574156 0.1 -0.2625 0.212473
0.623803 0.1 0.15 0.208877
0.623803 0.1 -0.15 0.218784
0.075776 0.1 0.6375 0.165351
0.075776 0.1 -0.6375 0.19354
0.522865 0.1 -0.375 0.205285
0.522865 0.1 0.375 0.183479
0 0.1 0.65701 0.163929
0 0.1 -0.65701 0.192804
0.0363518 0.1 0.65701 0.163929
0.0363518 0.1 -0.65701 0.192804
0.350249 0.1 0.5625 0.159505
0.350249 0.1 -0.5625 0.187111
0.623803 0.1 0.225 0.20413
0.623803 0.1 -0.225 0.218838
0.287374 0.1 -0.6 0.182628
0.287374 0.1 0.6 0.154303
0.574157 0.1 -0.3375 0.211259
0.574157 0.1 0.3375 0.190644
0.411108 0.1 0.525 0.164903
0.411108 0.1 -0.525 0.191979
0.67013 0.1 0.0375 0.220378
0.67013 0.1 -0.0375 0.222995
0.219992 0.1 -0.6375 0.178112
0.219993 0.1 0.6375 0.149248
0 0.1 -0.675 0.192129
0 0.1 0.675 0.162622
0.467897 0.1 -0.4875 0.196974
0.467897 0.1 0.4875 0.170555
0.67013 0.1 -0.1125 0.224563
0.67013 0.1 0.1125 0.216753
0.522865 0.1 0.45 0.177421
0.522865 0.1 -0.45 0.203068
0.150379 0.1 0.675 0.154356
0.150379 0.1 -0.675 0.184187
0.623803 0.1 0.3 0.198597
0.623803 0.1 -0.3 0.217931
0 0.1 -0.69299 0.191456
0 0.1 0.69299 0.161314
0.0363518 0.1 -0.69299 0.191456
0.0363518 0.1 0.69299 0.161314
0.67013 0.1 -0.1875 0.225076
0.67013 0.1 0.1875 0.212179
0.574156 0.1 0.4125 0.1845
0.574157 0.1 -0.4125 0.209212
0.714971 0.1 -2.8382e-17 0.228349
0.075776 0.1 -0.7125 0.190727
0.075776 0.1 0.7125 0.159899
0.714971 0.1 -0.075 0.230529
0.714971 0.1 0.075 0.225058
0.67013 0.1 0.2625 0.206716
0.67013 0.1 -0.2625 0.224551
0.411108 0.1 -0.6 0.189049
0.411108 0.1 0.6 0.158805
0.350249 0.1 0.6375 0.15364
0.350249 0.1 -0.6375 0.184221
0.623803 0.1 0.375 0.192373
0.623803 0.1 -0.375 0.216101
0.714971 0.1 -0.15 0.231576
0.714971 0.1 0.15 0.220711
0.467897 0.1 -0.5625 0.194037
0.467897 0.1 0.5625 0.164248
0 0.1 -0.73201 0.189892
0 0.1 0.73201 0.158434
0.0363518 0.1 0.73201 0.158434
0.0363518 0.1 -0.73201 0.189892
0.287374 0.1 -0.675 0.179645
0.287374 0.1 0.675 0.148582
0.522865 0.1 -0.525 0.200172
0.522865 0.1 0.525 0.170922
0.219993 0.1 -0.7125 0.175101
0.219992 0.1 0.7125 0.143687
0.714971 0.1 -0.225 0.231493
0.714971 0.1 0.225 0.215376
0 0.1 0.75 0.157086
0 0.1 -0.75 0.189126
0.67013 0.1 -0.3375 0.223008
0.67013 0.1 0.3375 0.20047
0.574156 0.1 -0.4875 0.206406
0.574157 0.1 0.4875 0.177844
0.756813 0.1 0.0375 0.233356
0.756814 0.1 -0.0375 0.23623
0.150379 0.1 0.746002 0.149179
0.150379 0.1 -0.75 0.181094
0.756813 0.1 -0.1125 0.237886
0.756813 0.1 0.1125 0.229318
0 0.1 0.76799 0.155738
0 0.1 -0.76799 0.188361
0.0363518 0.1 0.76799 0.155738
0.0363518 0.1 -0.76799 0.188361
0.623803 0.1 -0.45 0.213415
0.623803 0.1 0.45 0.185556
0.714971 0.1 -0.3 0.230298
0.714971 0.1 0.3 0.209141
0.756814 0.1 -0.1875 0.238335
0.756814 0.1 0.1875 0.224184
0.67013 0.1 -0.4125 0.220506
0.67013 0.1 0.4125 0.193537
0.411108 0.1 0.675 0.152458
0.411108 0.1 -0.675 0.185622
0.467897 0.1 0.6375 0.157646
0.467897 0.1 -0.6375 0.190551
0.075776 0.1 0.7875 0.154279
0.075776 0.1 -0.7875 0.187533
0.350249 0.1 -0.7125 0.180881
0.350249 0.1 0.7125 0.147568
0.522865 0.1 -0.6 0.196661
0.522865 0.1 0.6 0.164073
0.797314 0.1 -3.59473e-17 0.241773
0.287374 0.1 0.746002 0.142932
0.797314 0.1 -0.075 0.244142
0.797314 0.1 0.075 0.238124
0.756814 0.1 -0.2625 0.237572
0.756814 0.1 0.2625 0.218037
0.287374 0.1 -0.75 0.176285
0.574156 0.1 -0.5625 0.202912
0.574156 0.1 0.5625 0.170773
0 0.1 0.80701 0.152783
0 0.1 -0.80701 0.186613
0.714971 0.1 -0.375 0.228038
0.714971 0.1 0.375 0.202121
0.0363518 0.1 0.80701 0.152783
0.0363518 0.1 -0.80701 0.186613
0.797314 0.1 -0.15 0.245211
0.797314 0.1 0.15 0.233265
0.623803 0.1 -0.525 0.209955
0.623803 0.1 0.525 0.17825
0.219992 0.1 0.7875 0.137972
0.219992 0.1 -0.7875 0.171756
0.149792 0.1 0.80701 0.144451
0 0.1 0.825 0.151408
0 0.1 -0.825 0.185769
0.797314 0.1 -0.225 0.244983
0.797314 0.1 0.225 0.227279
0.756813 0.1 -0.3375 0.235633
0.756813 0.1 0.3375 0.210979
0.67013 0.1 0.4875 0.186029
0.67013 0.1 -0.4875 0.217136
0.835106 0.1 -0.0375 0.250131
0.835106 0.1 0.0375 0.246959
0.150379 0.1 -0.825 0.177668
0.835106 0.1 -0.1125 0.2519
0.835106 0.1 0.1125 0.242457
0 0.1 -0.84299 0.184924
0 0.1 0.84299 0.150032
0.0363518 0.1 -0.84299 0.184924
0.0363518 0.1 0.84299 0.150032
0.714971 0.1 -0.45 0.224799
0.714971 0.1 0.45 0.194435
0.411108 0.1 0.746002 0.146218
0.797314 0.1 -0.3 0.243469
0.797314 0.1 0.3 0.220268
0.467897 0.1 -0.7125 0.186585
0.467897 0.1 0.7125 0.150826
0.522865 0.1 0.675 0.156963
0.522865 0.1 -0.675 0.192611
0.411108 0.1 -0.75 0.181763
0.835106 0.1 -0.1875 0.252299
0.835107 0.1 0.1875 0.23671
0.286844 0.1 0.80701 0.138128
0.574156 0.1 0.6375 0.163387
0.574157 0.1 -0.6375 0.19881
0.350249 0.1 -0.7875 0.177154
0.350249 0.1 0.7875 0.141366
0.756813 0.1 -0.4125 0.232594
0.756814 0.1 0.4125 0.203162
0.623803 0.1 -0.6 0.205806
0.623803 0.1 0.6 0.170567
0.075776 0.1 0.8625 0.148543
0.075776 0.1 -0.8625 0.184011
0.871687 0.1 -3.2767e-18 0.255628
0.287374 0.1 -0.825 0.17259
0.871687 0.1 -0.075 0.258193
0.871687 0.1 0.075 0.251591
0.67013 0.1 -0.5625 0.212987
0.67013 0.1 0.5625 0.178075
0.835106 0.1 0.2625 0.229816
0.835106 0.1 -0.2625 0.251308
0.797314 0.1 -0.375 0.240736
0.797314 0.1 0.375 0.212369
0 0.1 -0.88201 0.18302
0 0.1 0.88201 0.147033
0.0363518 0.1 0.88201 0.147033
0.0363518 0.1 -0.88201 0.18302
0.871687 0.1 0.15 0.246176
0.871687 0.1 -0.15 0.259277
0.714971 0.1 0.525 0.186206
0.714971 0.1 -0.525 0.220678
0.219993 0.1 0.8625 0.132163
0.219992 0.1 -0.8625 0.168117
0 0.1 0.9 0.145644
0 0.1 -0.9 0.182108
0.756813 0.1 0.4875 0.194707
0.756814 0.1 -0.4875 0.228566
0.871687 0.1 0.225 0.239482
0.871687 0.1 -0.225 0.258897
0.835106 0.1 -0.3375 0.248952
0.835106 0.1 0.3375 0.221898
0.41063 0.1 0.80701 0.140908
0.90582 0.1 -0.0375 0.264259
0.905821 0.1 0.0375 0.260783
0.522865 0.1 0.746002 0.149979
0.150379 0.1 0.9 0.137252
0.90582 0.1 0.1125 0.255794
0.905821 0.1 -0.1125 0.266098
0.522865 0.1 -0.75 0.188099
0.574156 0.1 0.7125 0.155784
0.574156 0.1 -0.7125 0.194187
0.797314 0.1 -0.45 0.236889
0.797314 0.1 0.45 0.203734
0.467897 0.1 -0.7875 0.182207
0.467897 0.1 0.7875 0.14387
0.150379 0.1 -0.903998 0.174156
0 0.1 0.91799 0.144255
0 0.1 -0.91799 0.181198
0.0363518 0.1 0.91799 0.144255
0.0363518 0.1 -0.91799 0.181198
0.623803 0.1 0.675 0.162614
0.623803 0.1 -0.675 0.201063
0.411108 0.1 -0.825 0.177538
0.871687 0.1 0.3 0.231635
0.871687 0.1 -0.3 0.25703
0.67013 0.1 -0.6375 0.208161
0.67013 0.1 0.6375 0.169786
0.90582 0.1 -0.1875 0.266428
0.90582 0.1 0.1875 0.249388
0.350249 0.1 0.8625 0.135084
0.350249 0.1 -0.8625 0.173101
0.835106 0.1 -0.4125 0.24537
0.835106 0.1 0.4125 0.213123
0.714971 0.1 -0.6 0.215786
0.714971 0.1 0.6 0.177571
0.93886 0.1 -1.15648e-17 0.269521
0.075776 0.1 0.9375 0.142751
0.075776 0.1 -0.9375 0.180212
0.93886 0.1 0.075 0.265047
0.93886 0.1 -0.075 0.272321
0.756813 0.1 0.5625 0.185741
0.756814 0.1 -0.5625 0.223656
0.905821 0.1 -0.2625 0.265174
0.905821 0.1 0.2625 0.241682
0.287374 0.1 0.9 0.130615
0.287374 0.1 -0.903998 0.169062
0.871687 0.1 0.375 0.222788
0.871687 0.1 -0.375 0.25377
0.93886 0.1 -0.15 0.273451
0.93886 0.1 0.15 0.259036
0.797314 0.1 0.525 0.194502
0.797314 0.1 -0.525 0.232041
0 0.1 0.95701 0.141238
0 0.1 -0.95701 0.17916
0.0363518 0.1 0.95701 0.141238
0.0363518 0.1 -0.95701 0.17916
0.522433 0.1 0.80701 0.144075
0.219992 0.1 0.9375 0.126324
0.219992 0.1 -0.9375 0.164222
0.93886 0.1 0.225 0.251598
0.93886 0.1 -0.225 0.272963
0.90582 0.1 0.3375 0.232835
0.905821 0.1 -0.3375 0.262315
0.835106 0.1 -0.4875 0.240649
0.835107 0.1 0.4875 0.203658
0.969689 0.1 -0.0375 0.278294
0.969689 0.1 0.0375 0.274414
0.61613 0.1 0.75 0.154498
0.574156 0.1 -0.7875 0.189133
0.574156 0.1 0.7875 0.148059
0 0.1 0.975 0.139846
0 0.1 -0.975 0.178192
0.623803 0.1 -0.75 0.195828
0.969689 0.1 -0.1125 0.280291
0.969689 0.1 0.1125 0.268876
0.522865 0.1 -0.825 0.183205
0.67013 0.1 0.7125 0.161285
0.67013 0.1 -0.7125 0.202771
0.871687 0.1 -0.45 0.249247
0.871687 0.1 0.45 0.213122
0.467897 0.1 0.8625 0.136851
0.467897 0.1 -0.8625 0.177492
0.714971 0.1 -0.675 0.210243
0.714971 0.1 0.675 0.168662
0.93886 0.1 -0.3 0.270772
0.93886 0.1 0.3 0.242885
0.150379 0.1 0.975 0.131434
0.150379 0.1 -0.975 0.169993
0.969689 0.1 -0.1875 0.280645
0.969689 0.1 0.1875 0.261778
0.411108 0.1 0.9 0.132651
0.756813 0.1 0.6375 0.176442
0.756814 0.1 -0.6375 0.218
0.990306 0.1 -2.19732e-17 0.280243
0 0.1 0.99299 0.138454
0 0.1 -0.99299 0.177225
0.411108 0.1 -0.903998 0.17351
0.990306 0.1 -0.075 0.28324
0.990306 0.1 0.075 0.275385
0.0363518 0.1 0.99299 0.138454
0.0363518 0.1 -0.99299 0.177225
0.90582 0.1 -0.4125 0.258086
0.905821 0.1 0.4125 0.223013
0.797314 0.1 -0.6 0.22633
0.797314 0.1 0.6 0.184837
0.350249 0.1 0.9375 0.128771
0.350249 0.1 -0.9375 0.168782
0.990306 0.1 0.15 0.268859
0.990306 0.1 -0.15 0.284404
0.969689 0.1 -0.2625 0.279263
0.969689 0.1 0.2625 0.253257
0.835106 0.1 -0.5625 0.234939
0.835106 0.1 0.5625 0.193647
0.93886 0.1 -0.375 0.266988
0.93886 0.1 0.375 0.233072
0.075776 0.1 1.0125 0.136947
0.075776 0.1 -1.0125 0.176179
0.990306 0.1 -0.225 0.283843
0.990306 0.1 0.225 0.26078
0.287374 0.1 0.975 0.124542
0.287374 0.1 -0.975 0.164391
0.871687 0.1 -0.525 0.243591
0.871687 0.1 0.525 0.202816
1.02149 0.1 -0.0369628 0.290305
1.02149 0.1 0.0369628 0.286121
0.969689 0.1 -0.3375 0.276
0.969689 0.1 0.3375 0.243498
1.02149 0.1 -0.110888 0.29232
1.02149 0.1 0.110888 0.280149
0.90582 0.1 0.4875 0.212442
0.90582 0.1 -0.4875 0.252548
0.623803 0.1 0.819003 0.147795
0 0.1 1.03201 0.135444
0 0.1 -1.03201 0.17508
0.0363518 0.1 1.03201 0.135444
0.0363518 0.1 -1.03201 0.17508
0.67013 0.1 -0.7875 0.196923
0.67013 0.1 0.7875 0.152681
0.623803 0.1 -0.825 0.190195
0.990306 0.1 -0.3 0.281378
0.990306 0.1 0.3 0.251319
0.219992 0.1 -1.0125 0.160116
0.219993 0.1 1.0125 0.120489
0.574156 0.1 0.8625 0.140297
0.574157 0.1 -0.8625 0.183732
0.714971 0.1 -0.75 0.204171
0.714971 0.1 0.75 0.159602
1.02149 0.1 0.184814 0.272467
1.02149 0.1 -0.184814 0.292643
0.756814 0.1 -0.7125 0.211726
0.756814 0.1 0.7125 0.16693
0.522865 0.1 0.9 0.134921
0.93886 0.1 -0.45 0.261786
0.93886 0.1 0.45 0.222365
1.04168 0.1 0 0.293199
1.04168 0.1 -0.0729162 0.296396
1.04168 0.1 0.0729162 0.288019
0.522865 0.1 -0.903998 0.178592
0.797314 0.1 -0.675 0.219905
0.797314 0.1 0.675 0.174906
0.467897 0.1 0.9375 0.129838
0.467897 0.1 -0.9375 0.172509
0 0.1 1.05 0.134061
0 0.1 -1.05 0.174069
0.835106 0.1 -0.6375 0.228398
0.835106 0.1 0.6375 0.183295
1.04168 0.1 -0.145832 0.297619
1.04168 0.1 0.145832 0.281108
1.02149 0.1 -0.25874 0.291115
1.02149 0.1 0.25874 0.26323
0.969689 0.1 -0.4125 0.271226
0.969689 0.1 0.4125 0.232699
0.411108 0.1 0.975 0.126004
0.411108 0.1 -0.975 0.168251
0.871687 0.1 -0.6 0.236979
0.871687 0.1 0.6 0.192047
1.0579 0.1 -0.0360525 0.299313
1.0579 0.1 0.0360525 0.294971
0.990306 0.1 -0.375 0.277137
0.990306 0.1 0.375 0.240676
0.150379 0.1 1.05 0.125634
0.150379 0.1 -1.05 0.165835
1.0579 0.1 0.108157 0.288881
1.0579 0.1 -0.108157 0.301491
1.04168 0.1 -0.218749 0.297102
1.04168 0.1 0.218749 0.272565
0.90582 0.1 -0.5625 0.245918
0.90582 0.1 0.5625 0.201293
0 0.1 -1.06799 0.173059
0 0.1 1.06799 0.132677
0.0363518 0.1 -1.06799 0.173059
0.0363518 0.1 1.06799 0.132677
0.350249 0.1 1.0125 0.122483
0.350249 0.1 -1.0125 0.16425
1.0579 0.1 -0.180262 0.301866
1.0579 0.1 0.180262 0.281097
1.02149 0.1 -0.332665 0.287413
1.02149 0.1 0.332665 0.252642
0.93886 0.1 -0.525 0.255312
0.93886 0.1 0.525 0.210966
1.08012 0.1 5.49329e-18 0.302675
1.04168 0.1 -0.291665 0.294573
1.04168 0.1 0.291665 0.262571
1.08012 0.1 0.0709941 0.297323
1.08012 0.1 -0.0709941 0.306062
0.969689 0.1 -0.4875 0.264977
0.96969 0.1 0.4875 0.221088
1.0579 0.1 0.252367 0.271769
1.0579 0.1 -0.252367 0.300526
0.990306 0.1 -0.45 0.271347
0.990306 0.1 0.45 0.229074
0.287374 0.1 -1.05 0.159987
0.287374 0.1 1.05 0.118504
0.714971 0.1 0.821002 0.15118
1.08012 0.1 -0.141988 0.307413
1.08012 0.1 0.141988 0.290261
0.075776 0.1 1.0875 0.13118
0.075776 0.1 -1.0875 0.171965
0.714971 0.1 -0.825 0.197693
0.756813 0.1 -0.7875 0.20498
0.756814 0.1 0.7875 0.15734
0.67013 0.1 -0.8625 0.190724
0.67013 0.1 0.8625 0.144081
0.797314 0.1 -0.75 0.212917
0.797314 0.1 0.75 0.164847
0.623803 0.1 0.9 0.138164
0.835106 0.1 -0.7125 0.221193
0.835106 0.1 0.7125 0.172767
0.623803 0.1 -0.903998 0.184924
0.574156 0.1 0.9375 0.132578
0.574156 0.1 -0.9375 0.178077
1.02149 0.1 -0.406591 0.282074
1.02149 0.1 0.406591 0.240921
1.08012 0.1 -0.212982 0.307021
1.08012 0.1 0.212982 0.281573
1.10076 0.1 -0.0349809 0.31029
1.10076 0.1 0.0349809 0.305673
0.871687 0.1 -0.675 0.229588
0.871687 0.1 0.675 0.18101
1.04168 0.1 -0.364581 0.290092
1.04168 0.1 0.364581 0.251335
1.10076 0.1 -0.104943 0.312704
1.10076 0.1 0.104943 0.299337
0.522865 0.1 0.975 0.127593
0.522865 0.1 -0.975 0.172589
1.0579 0.1 -0.324472 0.296969
1.0579 0.1 0.324472 0.261098
0 0.1 -1.10701 0.17083
0 0.1 1.10701 0.129698
0.0363518 0.1 1.10701 0.129698
0.0363518 0.1 -1.10701 0.17083
0.90582 0.1 0.6375 0.189762
0.905821 0.1 -0.6375 0.238375
0.219992 0.1 1.0875 0.114694
0.219992 0.1 -1.0875 0.155839
0.93886 0.1 0.6 0.199096
0.93886 0.1 -0.6 0.247775
1.10076 0.1 -0.174905 0.31317
1.10076 0.1 0.174905 0.291291
0.467897 0.1 1.0125 0.122892
0.467897 0.1 -1.0125 0.167323
1.08012 0.1 -0.283976 0.304657
1.08012 0.1 0.283976 0.271438
1.11928 0.1 3.93204e-18 0.312415
0.990306 0.1 -0.525 0.264161
0.990306 0.1 0.525 0.216743
0.96969 0.1 -0.5625 0.257515
0.969689 0.1 0.5625 0.208848
1.11928 0.1 -0.0690357 0.316037
1.11928 0.1 0.0690357 0.306832
0 0.1 1.125 0.128335
0 0.1 -1.125 0.169785
0.411108 0.1 -1.05 0.163312
0.411108 0.1 1.05 0.11943
1.10076 0.1 0.244866 0.281695
1.10076 0.1 -0.244866 0.312054
1.11928 0.1 -0.138072 0.317552
1.11928 0.1 0.138072 0.299526
1.02149 0.1 0.480517 0.228315
1.02149 0.1 -0.480517 0.275109
1.0579 0.1 -0.396577 0.29171
1.0579 0.1 0.396577 0.249295
1.04168 0.1 -0.437497 0.283956
1.04168 0.1 0.437497 0.239084
0.150379 0.1 1.125 0.119892
0.150379 0.1 -1.125 0.161523
0.714971 0.1 0.88201 0.144524
1.08012 0.1 0.354971 0.260061
1.08012 0.1 -0.354971 0.300285
1.11928 0.1 -0.207107 0.317285
1.11928 0.1 0.207107 0.290583
0.350249 0.1 -1.0875 0.159566
0.350249 0.1 1.0875 0.116269
0 0.1 1.14299 0.126971
0 0.1 -1.14299 0.168741
0.0363518 0.1 1.14299 0.126971
0.0363518 0.1 -1.14299 0.168741
1.14316 0.1 -0.0339211 0.321071
1.14316 0.1 0.0339211 0.316249
0.797314 0.1 0.821002 0.155223
1.10076 0.1 -0.314829 0.308603
1.10076 0.1 0.314829 0.270746
0.797314 0.1 -0.825 0.205511
0.756814 0.1 -0.8625 0.197891
0.756814 0.1 0.8625 0.147795
1.14316 0.1 -0.101763 0.323746
1.14316 0.1 0.101763 0.309659
0.835106 0.1 -0.7875 0.213495
0.835106 0.1 0.7875 0.162191
0.871687 0.1 -0.75 0.221606
0.871687 0.1 0.75 0.16987
0.67013 0.1 0.9375 0.135577
0.67013 0.1 -0.9375 0.18428
0.90582 0.1 -0.7125 0.230127
0.905821 0.1 0.7125 0.178057
0.714971 0.1 -0.903998 0.191669
1.11928 0.1 0.276143 0.280183
1.11928 0.1 -0.276143 0.315061
1.14316 0.1 0.169605 0.301353
1.14316 0.1 -0.169605 0.324354
0.93886 0.1 -0.675 0.239388
0.93886 0.1 0.675 0.18699
1.15704 0.1 0 0.322037
1.0579 0.1 0.468682 0.236596
1.0579 0.1 -0.468682 0.284785
0.623803 0.1 0.975 0.130113
0.623803 0.1 -0.975 0.178122
0.990306 0.1 0.6 0.203938
0.990306 0.1 -0.6 0.255823
1.15704 0.1 -0.0671479 0.325918
1.15704 0.1 0.0671479 0.316211
1.04168 0.1 -0.510414 0.276305
1.04168 0.1 0.510414 0.226076
0.969689 0.1 -0.6375 0.249026
0.969689 0.1 0.6375 0.196313
1.08012 0.1 0.425965 0.247659
1.08012 0.1 -0.425965 0.294196
0.287374 0.1 -1.125 0.155441
0.287374 0.1 1.125 0.112542
1.02149 0.1 -0.554443 0.266812
1.02149 0.1 0.554443 0.215098
0.574156 0.1 1.0125 0.124972
0.574156 0.1 -1.0125 0.172244
1.15704 0.1 -0.134296 0.327631
1.15704 0.1 0.134296 0.30865
0.075776 0.1 1.1625 0.125495
0.075776 0.1 -1.1625 0.167611
1.10076 0.1 -0.384791 0.303396
1.10076 0.1 0.384791 0.25865
1.14316 0.1 -0.237448 0.323346
1.14316 0.1 0.237448 0.291488
1.11928 0.1 -0.345179 0.310759
1.11928 0.1 0.345179 0.268527
0.522865 0.1 1.05 0.120388
0.522865 0.1 -1.05 0.167011
1.15704 0.1 -0.201444 0.327522
1.15704 0.1 0.201444 0.299447
1.1744 0.1 -0.0331401 0.328919
1.1744 0.1 0.0331401 0.323864
1.1744 0.1 -0.0994202 0.331857
1.1744 0.1 0.0994202 0.317057
0 0.1 1.18201 0.124045
0 0.1 -1.18201 0.16645
0.0363518 0.1 1.18201 0.124045
0.0363518 0.1 -1.18201 0.16645
0.219992 0.1 1.1625 0.108975
0.219993 0.1 -1.1625 0.151437
1.14316 0.1 0.30529 0.280255
1.14316 0.1 -0.30529 0.320052
0.467897 0.1 1.0875 0.116071
0.467897 0.1 -1.0875 0.161994
1.1744 0.1 -0.1657 0.332555
1.1744 0.1 0.1657 0.308525
1.15704 0.1 -0.268592 0.325483
1.15704 0.1 0.268592 0.288782
1.0579 0.1 0.540787 0.223259
1.0579 0.1 -0.540787 0.276474
0.796996 0.1 0.88201 0.147234
1.08012 0.1 -0.496959 0.286537
1.08012 0.1 0.496959 0.234478
1.10076 0.1 0.454752 0.245633
1.10076 0.1 -0.454752 0.296434
1.11928 0.1 -0.414214 0.304664
1.11928 0.1 0.414214 0.255829
1.04168 0.1 -0.58333 0.267408
1.04168 0.1 0.58333 0.212556
1.1744 0.1 -0.231981 0.331794
1.1744 0.1 0.231981 0.298438
0.871687 0.1 0.821002 0.159259
0.411108 0.1 1.125 0.112977
0.411108 0.1 -1.125 0.158249
1.19808 0.1 1.73472e-17 0.332622
0.990306 0.1 0.675 0.190916
0.990306 0.1 -0.675 0.246581
1.02149 0.1 0.628368 0.201491
1.02149 0.1 -0.628368 0.257427
1.19808 0.1 -0.0650961 0.336818
1.19808 0.1 0.0650961 0.326519
0 0.1 1.2 0.122711
0 0.1 -1.2 0.165383
0.871687 0.1 -0.825 0.213214
0.905821 0.1 -0.7875 0.221381
0.90582 0.1 0.7875 0.166338
0.835106 0.1 -0.8625 0.205435
0.835106 0.1 0.8625 0.151734
0.93886 0.1 -0.75 0.230379
0.93886 0.1 0.75 0.174811
1.14316 0.1 -0.373132 0.314866
1.14316 0.1 0.373132 0.267861
0.969689 0.1 0.7125 0.183683
0.969689 0.1 -0.7125 0.23978
1.15704 0.1 -0.33574 0.321297
1.15704 0.1 0.33574 0.276853
0.756813 0.1 0.9375 0.138411
0.756814 0.1 -0.9375 0.190585
1.19808 0.1 0.130192 0.318673
1.19808 0.1 -0.130192 0.3388
0.797314 0.1 -0.903998 0.198666
0.714971 0.1 0.975 0.132642
0.714971 0.1 -0.975 0.183973
0.150379 0.1 1.2 0.114245
0.150379 0.1 -1.2 0.1571
1.20938 0.1 -0.0322656 0.337903
1.20938 0.1 0.0322656 0.332609
1.1744 0.1 -0.298261 0.328662
1.1744 0.1 0.298261 0.286983
1.20938 0.1 -0.0967968 0.341162
1.20938 0.1 0.0967968 0.325555
1.19808 0.1 -0.195288 0.338906
1.19808 0.1 0.195288 0.309189
0.350249 0.1 1.1625 0.110167
0.350249 0.1 -1.1625 0.154765
0.67013 0.1 1.0125 0.127232
0.67013 0.1 -1.0125 0.177677
0 0.1 1.21799 0.121376
0 0.1 -1.21799 0.164316
0.0363518 0.1 -1.21799 0.164316
0.0363518 0.1 1.21799 0.121376
1.11928 0.1 -0.48325 0.296925
1.11928 0.1 0.48325 0.242329
1.10076 0.1 -0.524714 0.288006
1.10076 0.1 0.524714 0.231953
1.20938 0.1 0.161328 0.316773
1.20938 0.1 -0.161328 0.342011
1.08012 0.1 0.567953 0.220761
1.08012 0.1 -0.567953 0.277565
0.623803 0.1 1.05 0.122239
0.623803 0.1 -1.05 0.171854
1.0579 0.1 -0.612892 0.26701
1.0579 0.1 0.612892 0.209513
1.15704 0.1 -0.402888 0.315241
1.15704 0.1 0.402888 0.263871
1.14316 0.1 0.440974 0.254527
1.14316 0.1 -0.440974 0.307871
1.19808 0.1 -0.260384 0.337129
1.19808 0.1 0.260384 0.298245
1.2267 0.1 3.57064e-18 0.339542
1.2267 0.1 -0.0636649 0.343965
1.2267 0.1 0.0636649 0.333242
1.1744 0.1 -0.364541 0.323577
1.1744 0.1 0.364541 0.274365
0.574156 0.1 1.0875 0.11755
0.574156 0.1 -1.0875 0.166303
1.20938 0.1 0.225859 0.306445
1.20938 0.1 -0.225859 0.341485
1.04168 0.1 -0.656246 0.25753
1.04168 0.1 0.656246 0.198757
1.2267 0.1 -0.12733 0.346157
1.2267 0.1 0.12733 0.325193
0.287374 0.1 1.2 0.106687
0.287374 0.1 -1.2 0.150797
1.02149 0.1 -0.702294 0.247254
1.02149 0.1 0.702294 0.187732
0.075776 0.1 -1.2375 0.163162
0.075776 0.1 1.2375 0.119932
0.871399 0.1 0.88201 0.150465
0.522865 0.1 1.125 0.11336
0.522865 0.1 -1.125 0.161337
1.2267 0.1 -0.190994 0.346427
1.2267 0.1 0.190994 0.31551
1.19808 0.1 -0.32548 0.333155
1.19808 0.1 0.32548 0.286037
0.990306 0.1 -0.75 0.236699
0.990306 0.1 0.75 0.177846
1.24274 0.1 -0.0314313 0.346293
1.24274 0.1 0.0314313 0.340767
1.20938 0.1 -0.29039 0.338595
1.20938 0.1 0.29039 0.294748
1.24274 0.1 -0.0942942 0.349881
1.24274 0.1 0.0942942 0.33346
0.93886 0.1 0.821002 0.163251
1.11928 0.1 -0.552285 0.287795
1.11928 0.1 0.552285 0.228274
1.15704 0.1 -0.470036 0.307468
1.15704 0.1 0.470036 0.250072
0.969689 0.1 -0.7875 0.230008
0.96969 0.1 0.7875 0.171041
0.93886 0.1 -0.825 0.220966
0.90582 0.1 0.8625 0.154755
0.905821 0.1 -0.8625 0.212342
1.1744 0.1 -0.430821 0.316632
1.1744 0.1 0.430821 0.2608
1.10076 0.1 -0.594676 0.278335
1.10076 0.1 0.594676 0.21784
1.14316 0.1 -0.508816 0.29932
1.14316 0.1 0.508816 0.240505
1.24274 0.1 -0.157157 0.350937
1.24274 0.1 0.157157 0.32443
1.2267 0.1 -0.254659 0.344848
1.2267 0.1 0.254659 0.304372
0.467897 0.1 1.1625 0.109419
0.467897 0.1 -1.1625 0.156583
1.08012 0.1 0.638947 0.206747
1.08012 0.1 -0.638947 0.267534
1.25511 0.1 -5.78241e-19 0.346418
0.835106 0.1 -0.9375 0.1972
0.835106 0.1 0.9375 0.141493
0.871687 0.1 -0.903998 0.205497
1.25511 0.1 0.0622446 0.33993
1.25511 0.1 -0.0622446 0.351059
0.219992 0.1 1.2375 0.103355
0.219992 0.1 -1.2375 0.146951
0 0.1 -1.25701 0.161985
0 0.1 1.25701 0.118521
0.0363518 0.1 -1.25701 0.161985
0.0363518 0.1 1.25701 0.118521
0.797314 0.1 0.975 0.135198
0.797314 0.1 -0.975 0.190006
1.19808 0.1 -0.390576 0.32723
1.19808 0.1 0.390576 0.272772
1.0579 0.1 -0.684997 0.256676
1.0579 0.1 0.684997 0.195601
1.20938 0.1 -0.354921 0.333659
1.20938 0.1 0.354921 0.281889
1.25511 0.1 0.124489 0.331686
1.25511 0.1 -0.124489 0.353462
1.24274 0.1 -0.220019 0.350623
1.24274 0.1 0.220019 0.313861
0.756813 0.1 1.0125 0.129268
0.756814 0.1 -1.0125 0.183157
1.2267 0.1 -0.318324 0.34105
1.2267 0.1 0.318324 0.291968
0.411108 0.1 1.2 0.10668
0.411108 0.1 -1.2 0.153113
1.25511 0.1 -0.186734 0.353902
1.25511 0.1 0.186734 0.321812
0.714971 0.1 1.05 0.124034
0.714971 0.1 -1.05 0.176934
1.04168 0.1 -0.729162 0.246965
1.04168 0.1 0.729162 0.184908
1.24274 0.1 0.282882 0.301925
1.24274 0.1 -0.282882 0.348014
0 0.1 1.275 0.117222
0 0.1 -1.275 0.160902
1.1744 0.1 0.497102 0.246539
1.1744 0.1 -0.497102 0.308057
1.15704 0.1 -0.537184 0.298221
1.15704 0.1 0.537184 0.235703
1.2756 0.1 -0.03061 0.354468
1.2756 0.1 0.03061 0.348698
0.67013 0.1 1.0875 0.119134
0.67013 0.1 -1.0875 0.17101
1.2756 0.1 -0.09183 0.35836
1.2756 0.1 0.09183 0.341127
1.25511 0.1 -0.248978 0.352512
1.25511 0.1 0.248978 0.310486
1.20938 0.1 0.419453 0.268078
1.20938 0.1 -0.419453 0.326827
1.11928 0.1 -0.621322 0.277524
1.11928 0.1 0.621322 0.213895
1.14316 0.1 -0.576659 0.289443
1.14316 0.1 0.576659 0.22603
1.19808 0.1 -0.455673 0.31951
1.19808 0.1 0.455673 0.258681
1.02149 0.1 0.776219 0.174029
1.02149 0.1 -0.776219 0.236568
0.150379 0.1 1.275 0.108722
0.150379 0.1 -1.275 0.152602
1.2756 0.1 -0.15305 0.35975
1.2756 0.1 0.15305 0.331847
1.2267 0.1 -0.381989 0.335253
1.2267 0.1 0.381989 0.278509
1.10076 0.1 -0.664638 0.2677
1.10076 0.1 0.664638 0.203542
0.350249 0.1 1.2375 0.104202
0.350249 0.1 -1.2375 0.149896
0.623803 0.1 1.125 0.1146
0.623803 0.1 -1.125 0.165531
0.9386 0.1 0.88201 0.153731
0.990306 0.1 0.825 0.165304
0.990306 0.1 -0.825 0.226416
1.24274 0.1 -0.345745 0.343256
1.24274 0.1 0.345745 0.288827
1.2906 0.1 0 0.355053
1.07933 0.1 0.709941 0.192666
1.2906 0.1 -0.0604698 0.360039
1.2906 0.1 0.0604698 0.348255
1.08012 0.1 -0.709941 0.256735
0 0.1 1.29299 0.115923
0 0.1 -1.29299 0.159819
1.25511 0.1 0.311223 0.297893
1.25511 0.1 -0.311223 0.3489
1.2756 0.1 -0.214269 0.359603
1.2756 0.1 0.214269 0.321035
0.0363518 0.1 1.29299 0.115923
0.0363518 0.1 -1.29299 0.159819
1.2906 0.1 -0.12094 0.362825
1.2906 0.1 0.12094 0.3397
0.574156 0.1 1.1625 0.110353
0.574157 0.1 -1.1625 0.160312
0.969689 0.1 0.8625 0.158708
0.969689 0.1 -0.8625 0.219936
1.0579 0.1 0.757102 0.18174
1.0579 0.1 -0.757102 0.245769
1.1744 0.1 -0.563382 0.298088
1.1744 0.1 0.563382 0.23182
1.20938 0.1 0.483984 0.253564
1.20938 0.1 -0.483984 0.318262
1.2906 0.1 -0.181409 0.363555
1.2906 0.1 0.181409 0.329525
0.93886 0.1 -0.903998 0.212363
0.90582 0.1 0.9375 0.14352
0.90582 0.1 -0.9375 0.20316
1.2756 0.1 0.275489 0.30886
1.2756 0.1 -0.275489 0.357321
1.2267 0.1 -0.445653 0.327611
1.2267 0.1 0.445653 0.264222
1.15704 0.1 -0.604332 0.287749
1.15704 0.1 0.604332 0.220994
1.19808 0.1 -0.520769 0.310219
1.19808 0.1 0.520769 0.244009
1.30646 0.1 0.0298385 0.355833
1.30646 0.1 -0.0298385 0.361855
0.287374 0.1 -1.275 0.146093
0.287374 0.1 1.275 0.100962
0.871687 0.1 0.975 0.137329
0.871687 0.1 -0.975 0.195844
1.24274 0.1 0.408607 0.274781
1.24274 0.1 -0.408607 0.336586
0.522865 0.1 1.2 0.10655
0.522865 0.1 -1.2 0.155628