# UMean  POINT_DATA 63840
# x  y  z  UMean_x  UMean_y  UMean_z
0 0.5 3.39583e-17 0.882948 0 0.469472
0 0.5 -0.00617931 0.882948 0 0.469472
0 0.5 0.00617931 0.882948 0 0.469472
0.0124865 0.5 -0.00617931 0.88292 0.000895413 0.469723
0.0124865 0.5 0.00617931 0.88292 0.000892827 0.46984
0 0.5 -0.0688207 0.882948 0 0.469472
0 0.5 0.0688207 0.882948 0 0.469472
0.0124865 0.5 -0.0688207 0.88292 0.000895413 0.469723
0.0124865 0.5 0.0688207 0.88292 0.000892827 0.46984
0 0.5 -0.075 0.882948 0 0.469472
0 0.5 0.075 0.882948 0 0.469472
0 0.5 -0.0811793 0.882948 0 0.469472
0 0.5 0.0811793 0.882948 0 0.469472
0.0124865 0.5 -0.0811793 0.882919 0.000895173 0.469609
0.0124865 0.5 0.0811793 0.882921 0.000885851 0.469953
0.075776 0.5 -0.0375 0.882755 0.00542782 0.470993
0.075776 0.5 0.0375 0.882756 0.00541189 0.471696
0.075776 0.5 -0.1125 0.88275 0.00542671 0.470301
0.075776 0.5 0.1125 0.882761 0.00536985 0.472379
0 0.5 -0.143821 0.882948 0 0.469472
0 0.5 0.143821 0.882948 0 0.469472
0.0124865 0.5 -0.143821 0.882919 0.000895173 0.469609
0.0124865 0.5 0.143821 0.882921 0.000885851 0.469953
0 0.5 -0.15 0.882948 0 0.469472
0 0.5 0.15 0.882948 0 0.469472
0.151149 0.5 -0.00137318 0.881596 0.00907081 0.472503
0 0.5 -0.156179 0.882948 0 0.469472
0 0.5 0.156179 0.882948 0 0.469472
0.0124865 0.5 -0.156179 0.882918 0.000891936 0.46949
0.0124865 0.5 0.156179 0.882924 0.000875106 0.470061
0.151149 0.5 0.075 0.88162 0.00905982 0.473702
0.151149 0.5 -0.075 0.881572 0.00910208 0.471218
0.075776 0.5 -0.1875 0.882743 0.00540728 0.469586
0.075776 0.5 0.1875 0.882777 0.00530494 0.473033
0.151149 0.5 0.15 0.881676 0.0089861 0.474897
0.151149 0.5 -0.15 0.88157 0.00907664 0.469971
0 0.5 -0.218821 0.882948 0 0.469472
0 0.5 0.218821 0.882948 0 0.469472
0.0124865 0.5 -0.218821 0.882918 0.000891936 0.46949
0.0124865 0.5 0.218821 0.882924 0.000875106 0.470061
0.219992 0.5 0.0375 0.880517 0.012523 0.474404
0.219993 0.5 -0.0375 0.880477 0.0125458 0.472631
0 0.5 -0.225 0.882948 0 0.469472
0 0.5 0.225 0.882948 0 0.469472
0 0.5 -0.231179 0.882948 0 0.469472
0 0.5 0.231179 0.882948 0 0.469472
0.0124865 0.5 -0.231179 0.882918 0.000885296 0.469376
0.0124865 0.5 0.231179 0.882928 0.000861168 0.470163
0.219992 0.5 0.1125 0.880598 0.0124539 0.476114
0.219993 0.5 -0.1125 0.880464 0.0125264 0.470872
0.151149 0.5 -0.225 0.881585 0.0090189 0.468741
0.151149 0.5 0.225 0.881752 0.00887819 0.476043
0.075776 0.5 -0.2625 0.882743 0.00536722 0.468897
0.075776 0.5 0.2625 0.8828 0.00522038 0.473648
0.288069 0.5 -0.00137318 0.877687 0.0159182 0.474272
0.219992 0.5 0.1875 0.880712 0.0123378 0.477779
0.219993 0.5 -0.1875 0.880478 0.0124666 0.469119
0 0.5 0.293821 0.882948 0 0.469472
0 0.5 -0.293821 0.882948 0 0.469472
0.0124865 0.5 -0.293821 0.882918 0.000885296 0.469376
0.0124865 0.5 0.293821 0.882928 0.000861168 0.470163
0.288069 0.5 -0.075 0.877625 0.0159366 0.471885
0.288069 0.5 0.075 0.877772 0.0158913 0.476486
0 0.5 -0.3 0.882948 0 0.469472
0 0.5 0.3 0.882948 0 0.469472
0 0.5 0.306179 0.882948 0 0.469472
0 0.5 -0.306179 0.882948 0 0.469472
0.0124865 0.5 -0.306179 0.882921 0.000875403 0.469263
0.0124865 0.5 0.306179 0.882933 0.000844418 0.470257
0.288069 0.5 -0.15 0.87765 0.015873 0.469589
0.288069 0.5 0.15 0.877948 0.015781 0.478723
0.151149 0.5 -0.3 0.881628 0.00892921 0.46755
0.151149 0.5 0.3 0.881848 0.00873869 0.477118
0.219992 0.5 -0.2625 0.88053 0.0123586 0.467425
0.219992 0.5 0.2625 0.880857 0.0121761 0.47936
0.075776 0.5 0.3375 0.882828 0.00511862 0.474217
0.075776 0.5 -0.3375 0.88276 0.00530741 0.468216
0.350249 0.5 -0.0375 0.874958 0.0191475 0.473422
0.350249 0.5 0.0375 0.87506 0.0191249 0.476246
0.288069 0.5 -0.225 0.877741 0.0157516 0.467342
0.288069 0.5 0.225 0.878187 0.0156124 0.480876
0.350249 0.5 0.1125 0.875263 0.019033 0.479029
0.350249 0.5 -0.1125 0.874957 0.0190964 0.470597
0 0.5 0.368821 0.882948 0 0.469472
0 0.5 -0.368821 0.882948 0 0.469472
0.0124865 0.5 -0.368821 0.882921 0.000875403 0.469263
0.0124865 0.5 0.368821 0.882933 0.000844418 0.470257
0 0.5 -0.375 0.882948 0 0.469472
0 0.5 0.375 0.882948 0 0.469472
0 0.5 -0.381179 0.882948 0 0.469472
0 0.5 0.381179 0.882948 0 0.469472
0.0124865 0.5 -0.381179 0.882925 0.000862428 0.469159
0.0124865 0.5 0.381179 0.882938 0.000825272 0.470342
0.350249 0.5 -0.1875 0.875054 0.0189752 0.467816
0.350249 0.5 0.1875 0.875558 0.0188716 0.481748
0.219992 0.5 -0.3375 0.88063 0.0122128 0.465791
0.219992 0.5 0.3375 0.881034 0.0119722 0.480836
0.151149 0.5 -0.375 0.881698 0.00881171 0.466411
0.151149 0.5 0.375 0.881961 0.00857047 0.478112
0.411736 0.5 -0.00137318 0.871042 0.0224352 0.475256
0.288069 0.5 -0.3 0.877903 0.0155765 0.465176
0.288069 0.5 0.3 0.878489 0.0153871 0.482911
0.411736 0.5 -0.075 0.870958 0.0224266 0.471752
0.411736 0.5 0.075 0.871205 0.0224025 0.478518
0.075776 0.5 -0.4125 0.882782 0.00522898 0.467584
0.075776 0.5 0.4125 0.882862 0.00500201 0.474733
0.350249 0.5 -0.2625 0.875248 0.0187836 0.465121
0.350249 0.5 0.2625 0.875948 0.0186402 0.484333
0.411736 0.5 -0.15 0.871054 0.022305 0.468397
0.411736 0.5 0.15 0.871543 0.0222587 0.48183
0 0.5 -0.443821 0.882948 0 0.469472
0 0.5 0.443821 0.882948 0 0.469472
0.0124865 0.5 -0.443821 0.882925 0.000862428 0.469159
0.0124865 0.5 0.443821 0.882938 0.000825272 0.470342
0 0.5 -0.45 0.882948 0 0.469472
0 0.5 0.45 0.882948 0 0.469472
0 0.5 -0.456179 0.882948 0 0.469472
0 0.5 0.456179 0.882948 0 0.469472
0.0124865 0.5 -0.456179 0.882928 0.000847256 0.469061
0.0124865 0.5 0.456179 0.882945 0.000804056 0.470418
0.219992 0.5 -0.4125 0.880762 0.0120332 0.464245
0.219993 0.5 0.4125 0.881239 0.0117293 0.48219
0.411736 0.5 -0.225 0.871292 0.0220976 0.465128
0.411736 0.5 0.225 0.872019 0.022029 0.48503
0.467897 0.5 0.0375 0.867317 0.0255783 0.477398
0.467897 0.5 -0.0375 0.867171 0.0255822 0.473466
0.288069 0.5 -0.375 0.878132 0.0153559 0.463115
0.288069 0.5 0.375 0.878845 0.0151088 0.484803
0.151149 0.5 -0.45 0.881781 0.00866966 0.465342
0.151149 0.5 0.45 0.88209 0.00837648 0.479012
0.467897 0.5 -0.1125 0.867218 0.0254788 0.469551
0.467897 0.5 0.1125 0.867647 0.02547 0.481295
0.350249 0.5 0.3375 0.876423 0.0183413 0.486768
0.350249 0.5 -0.3375 0.875541 0.0185345 0.462544
0.075776 0.5 -0.4875 0.882803 0.00513705 0.466991
0.075776 0.5 0.4875 0.882901 0.00487256 0.475192
0.467897 0.5 -0.1875 0.867454 0.0252719 0.465719
0.467897 0.5 0.1875 0.868158 0.0252588 0.48508
0.411736 0.5 -0.3 0.871669 0.0218122 0.461992
0.411736 0.5 0.3 0.872627 0.0217154 0.48807
0 0.5 -0.518821 0.882948 0 0.469472
0 0.5 0.518821 0.882948 0 0.469472
0.0124865 0.5 0.518821 0.882945 0.000804056 0.470418
0.0124865 0.5 -0.518821 0.882928 0.000847256 0.469061
0.523432 0.5 -0.00137318 0.862366 0.028853 0.475576
0 0.5 -0.525 0.882948 0 0.469472
0 0.5 0.525 0.882948 0 0.469472
0.523432 0.5 -0.075 0.862293 0.0287977 0.470915
0.523432 0.5 0.075 0.862604 0.0288289 0.479927
0 0.5 -0.531179 0.882948 0 0.469472
0 0.5 0.531179 0.882948 0 0.469472
0.0124865 0.5 -0.531179 0.882933 0.000830261 0.46897
0.0124865 0.5 0.531179 0.882952 0.000781106 0.470483
0.288069 0.5 -0.45 0.878411 0.0150937 0.461182
0.288069 0.5 0.45 0.879249 0.0147823 0.486528
0.219992 0.5 -0.4875 0.880912 0.0118225 0.462799
0.219993 0.5 0.4875 0.881464 0.0114516 0.483406
0.467897 0.5 -0.2625 0.867869 0.0249684 0.462012
0.467897 0.5 0.2625 0.86885 0.0249479 0.488728
0.350249 0.5 -0.4125 0.875917 0.018234 0.460113
0.350249 0.5 0.4125 0.876972 0.0179808 0.489013
0.523432 0.5 -0.15 0.862509 0.0285963 0.466477
0.523432 0.5 0.15 0.863122 0.0286589 0.484356
0.151149 0.5 -0.525 0.881876 0.00850659 0.464349
0.151149 0.5 0.525 0.882231 0.00815977 0.479808
0.411736 0.5 -0.375 0.872175 0.0214588 0.459028
0.411736 0.5 0.375 0.873352 0.021323 0.490906
0.075776 0.5 -0.5625 0.882828 0.00503383 0.466443
0.075776 0.5 0.5625 0.882944 0.00473235 0.47559
0.523432 0.5 -0.225 0.862964 0.0282788 0.462171
0.523432 0.5 0.225 0.863874 0.028369 0.488644
0.574156 0.5 -0.0375 0.857592 0.0319637 0.472871
0.574156 0.5 0.0375 0.85776 0.0319972 0.47795
0.467897 0.5 0.3375 0.869705 0.024541 0.492158
0.467897 0.5 -0.3375 0.868459 0.0245788 0.458506
0.574156 0.5 -0.1125 0.857729 0.0317871 0.467836
0.574156 0.5 0.1125 0.858228 0.0318875 0.483
0 0.5 -0.593821 0.882948 0 0.469472
0 0.5 0.593821 0.882948 0 0.469472
0.0124865 0.5 -0.593821 0.882933 0.000830261 0.46897
0.0124865 0.5 0.593821 0.882952 0.000781106 0.470483
0.288069 0.5 -0.525 0.878732 0.0147937 0.459396
0.288069 0.5 0.525 0.879692 0.0144126 0.488066
0 0.5 -0.6 0.882948 0 0.469472
0 0.5 0.6 0.882948 0 0.469472
0.350249 0.5 -0.4875 0.876357 0.0178845 0.457857
0.350249 0.5 0.4875 0.877587 0.0175642 0.491043
0.523432 0.5 -0.3 0.863649 0.0278548 0.458068
0.523432 0.5 0.3 0.864848 0.0279635 0.492731
0.219992 0.5 -0.5625 0.881085 0.0115847 0.461468
0.219992 0.5 0.5625 0.881706 0.011143 0.484471
0.574156 0.5 -0.1875 0.858164 0.0314738 0.462928
0.574156 0.5 0.1875 0.858981 0.031638 0.487923
0 0.5 -0.606179 0.882948 0 0.469472
0 0.5 0.606179 0.882948 0 0.469472
0.0124865 0.5 -0.606179 0.882937 0.000811567 0.468888
0.0124865 0.5 0.606179 0.88296 0.000756701 0.470538
0.411736 0.5 -0.45 0.872788 0.0210438 0.456265
0.411736 0.5 0.45 0.874179 0.0208582 0.493502
0.151149 0.5 -0.6 0.881983 0.00832471 0.46344
0.151149 0.5 0.6 0.882379 0.00792338 0.480494
0.62168 0.5 2.64545e-17 0.852371 0.0350826 0.475392
0.467897 0.5 0.4125 0.870702 0.024045 0.495335
0.467897 0.5 -0.4125 0.869202 0.0241137 0.455214
0.624316 0.5 0.0729402 0.852374 0.0352539 0.480816
0.624316 0.5 -0.075 0.852044 0.0351344 0.469484
0.574156 0.5 -0.2625 0.858886 0.0310345 0.45821
0.574157 0.5 0.2625 0.860014 0.0312532 0.492657
0.075776 0.5 -0.6375 0.882857 0.00491998 0.465945
0.075776 0.5 0.6375 0.88299 0.00458315 0.475923
0.624316 0.5 -0.15 0.852434 0.0348348 0.463937
0.624316 0.5 0.15 0.853087 0.03507 0.486414
0.523432 0.5 -0.375 0.864541 0.027336 0.454218
0.523432 0.5 0.375 0.866022 0.027449 0.496553
0.350249 0.5 -0.5625 0.876859 0.0174921 0.455795
0.350249 0.5 0.5625 0.878251 0.0170982 0.492835
0.624316 0.5 -0.225 0.853183 0.034387 0.458583
0.624316 0.5 0.225 0.854146 0.0347282 0.491839
0.288069 0.5 0.6 0.880163 0.0140053 0.489402
0.288069 0.5 -0.6 0.879091 0.0144601 0.457772
0.574156 0.5 -0.3375 0.859877 0.0304797 0.453782
0.574156 0.5 0.3375 0.861309 0.0307395 0.497133
0.411736 0.5 -0.525 0.873491 0.0205733 0.453737
0.411736 0.5 0.525 0.87509 0.0203286 0.495828
0 0.5 -0.668821 0.882948 0 0.469472
0 0.5 0.668821 0.882948 0 0.469472
0.0124865 0.5 -0.668821 0.882937 0.000811567 0.468888
0.0124865 0.5 0.668821 0.88296 0.000756701 0.470538
0.67013 0.5 0.0375 0.846738 0.038433 0.478017
0.67013 0.5 -0.0375 0.846574 0.0383476 0.471752
0.219993 0.5 -0.6375 0.881276 0.0113217 0.46026
0.219993 0.5 0.6375 0.881957 0.0108076 0.485377
0 0.5 -0.675 0.882948 0 0.469472
0 0.5 0.675 0.882948 0 0.469472
0.467897 0.5 0.4875 0.871821 0.0234683 0.498215
0.467897 0.5 -0.4875 0.87007 0.0235797 0.452192
0.67013 0.5 -0.1125 0.846849 0.0380816 0.465566
0.67013 0.5 0.1125 0.84734 0.0383351 0.484263
0 0.5 -0.681179 0.882948 0 0.469472
0 0.5 0.681179 0.882948 0 0.469472
0.0124865 0.5 -0.681179 0.882943 0.000791483 0.468814
0.0124865 0.5 0.681179 0.882967 0.000731185 0.470582
0.523432 0.5 -0.45 0.86561 0.0267331 0.45066
0.523432 0.5 0.45 0.867368 0.0268343 0.500059
0.151149 0.5 -0.675 0.8821 0.00812582 0.462621
0.151149 0.5 0.675 0.882532 0.00767056 0.481065
0.624316 0.5 -0.3 0.85427 0.0338027 0.453512
0.624316 0.5 0.3 0.855535 0.034235 0.497017
0.67013 0.5 0.1875 0.848359 0.0380572 0.490373
0.67013 0.5 -0.1875 0.847553 0.0376447 0.459561
0.574156 0.5 -0.4125 0.861097 0.0298242 0.449655
0.574157 0.5 0.4125 0.862831 0.0301054 0.501281
0.708171 0.5 1.88651e-17 0.841489 0.0411684 0.475003
0.075776 0.5 -0.7125 0.88289 0.0047974 0.465498
0.075776 0.5 0.7125 0.883036 0.00442738 0.47619
0.715434 0.5 0.0736268 0.84102 0.041634 0.481462
0.715434 0.5 -0.075 0.840585 0.0414682 0.467567
0.67013 0.5 0.2625 0.849774 0.0376052 0.49625
0.67013 0.5 -0.2625 0.848672 0.0370505 0.453832
0.350249 0.5 -0.6375 0.87741 0.0170614 0.453944
0.350249 0.5 0.6375 0.878951 0.01659 0.494375
0.411736 0.5 -0.6 0.874271 0.0200543 0.451461
0.411736 0.5 0.6 0.876065 0.0197427 0.49786
0.624316 0.5 -0.375 0.855655 0.033096 0.448787
0.624316 0.5 0.375 0.857223 0.0335989 0.501866
0.715434 0.5 -0.15 0.841209 0.0410553 0.460885
0.715434 0.5 0.15 0.841792 0.0415143 0.488104
0.467897 0.5 -0.5625 0.871046 0.0229857 0.44946
0.467897 0.5 0.5625 0.873036 0.0228203 0.500767
0.288069 0.5 -0.675 0.879481 0.0140965 0.45632
0.288069 0.5 0.675 0.880652 0.0135662 0.490528
0.523432 0.5 -0.525 0.866827 0.0260559 0.447437
0.523432 0.5 0.525 0.868856 0.0261299 0.503206
0 0.5 -0.743821 0.882948 0 0.469472
0 0.5 0.743821 0.882948 0 0.469472
0.0124865 0.5 -0.743821 0.882943 0.000791483 0.468814
0.0124865 0.5 0.743821 0.882967 0.000731185 0.470582
0.219992 0.5 0.7125 0.882213 0.0104499 0.486119
0.219992 0.5 -0.7125 0.881482 0.0110362 0.459184
0.715434 0.5 -0.225 0.842325 0.04046 0.454471
0.715434 0.5 0.225 0.843187 0.0411283 0.494718
0 0.5 -0.75 0.882948 0 0.469472
0 0.5 0.75 0.882948 0 0.469472
0.67013 0.5 0.3375 0.851563 0.0369878 0.501817
0.67013 0.5 -0.3375 0.850163 0.036311 0.448474
0.574156 0.5 -0.4875 0.862514 0.029079 0.445906
0.574156 0.5 0.4875 0.864546 0.0293625 0.505049
0 0.5 -0.756179 0.882948 0 0.469472
0 0.5 0.756179 0.882948 0 0.469472
0.0124865 0.5 -0.756179 0.882949 0.000770229 0.46875
0.0124865 0.5 0.756179 0.882974 0.000705104 0.470616
0.756813 0.5 -0.0375 0.83451 0.0447382 0.470208
0.756813 0.5 0.0375 0.834641 0.0448867 0.477697
0.151149 0.5 -0.75 0.882225 0.00791227 0.461898
0.151149 0.5 0.75 0.882687 0.00740512 0.481519
0.756813 0.5 -0.1125 0.834974 0.0443701 0.462842
0.756813 0.5 0.1125 0.835367 0.044811 0.485183
0.624316 0.5 -0.45 0.857296 0.0322816 0.444461
0.624316 0.5 0.45 0.859168 0.0328314 0.506318
0.715434 0.5 -0.3 0.8439 0.0396964 0.448425
0.715434 0.5 0.3 0.845034 0.0405517 0.501032
0.756813 0.5 0.1875 0.836665 0.044513 0.492525
0.756813 0.5 -0.1875 0.836013 0.0437952 0.455725
0.67013 0.5 -0.4125 0.851973 0.0354447 0.44353
0.67013 0.5 0.4125 0.853682 0.0362156 0.506969
0.411736 0.5 -0.675 0.875109 0.0194939 0.449452
0.411736 0.5 0.675 0.877082 0.0191091 0.499584
0.467897 0.5 0.6375 0.874322 0.0221108 0.50297
0.467897 0.5 -0.6375 0.872108 0.02234 0.447038
0.075776 0.5 -0.7875 0.882925 0.00466752 0.465107
0.075776 0.5 0.7875 0.88308 0.00426781 0.476392
0.350249 0.5 -0.7125 0.877998 0.0165977 0.452313
0.350249 0.5 0.7125 0.87967 0.0160469 0.495652
0.523432 0.5 -0.6 0.868164 0.0253151 0.444572
0.523432 0.5 0.6 0.870452 0.0253471 0.505963
0.797732 0.5 2.68882e-17 0.828002 0.0480921 0.473316
0.756813 0.5 -0.2625 0.8376 0.0430279 0.44897
0.756814 0.5 0.2625 0.838495 0.0439993 0.499596
0.797732 0.5 0.0736268 0.828515 0.0481282 0.481729
0.797732 0.5 -0.075 0.828248 0.0477876 0.465259
0.288069 0.5 -0.75 0.879893 0.0137074 0.455049
0.288069 0.5 0.75 0.881149 0.0131017 0.491438
0.574156 0.5 -0.5625 0.864091 0.0282563 0.442556
0.574157 0.5 0.5625 0.866414 0.0285233 0.508391
0.715434 0.5 -0.375 0.845878 0.0387816 0.442827
0.715434 0.5 0.375 0.847294 0.0397955 0.506953
0.797732 0.5 -0.15 0.829161 0.0472498 0.457419
0.797732 0.5 0.15 0.829552 0.0479706 0.489516
0.624316 0.5 -0.525 0.859149 0.0313735 0.440586
0.624316 0.5 0.525 0.861325 0.0319463 0.510319
0.219992 0.5 -0.7875 0.881697 0.0107315 0.458243
0.219992 0.5 0.7875 0.882471 0.0100754 0.486697
0 0.5 -0.818821 0.882948 0 0.469472
0 0.5 0.818821 0.882948 0 0.469472
0.0124865 0.5 0.818821 0.882974 0.000705104 0.470616
0.0124865 0.5 -0.818821 0.882949 0.000770229 0.46875
0 0.5 -0.825 0.882948 0 0.469472
0 0.5 0.825 0.882948 0 0.469472
0.756813 0.5 0.3375 0.840825 0.0432804 0.506286
0.756814 0.5 -0.3375 0.839677 0.0420839 0.442672
0.67013 0.5 -0.4875 0.854058 0.0344664 0.439083
0.67013 0.5 0.4875 0.856074 0.0353034 0.511659
0.797732 0.5 -0.225 0.830709 0.0464932 0.449922
0.797732 0.5 0.225 0.831301 0.0475463 0.497361
0 0.5 -0.831179 0.882948 0 0.469472
0 0.5 0.831179 0.882948 0 0.469472
0.0124865 0.5 -0.831179 0.882955 0.000748191 0.468694
0.0124865 0.5 0.831179 0.882981 0.000678894 0.470638
0.835106 0.5 0.0375 0.821734 0.0513237 0.477081
0.835106 0.5 -0.0375 0.821672 0.0511048 0.468332
0.151149 0.5 -0.825 0.882356 0.00768686 0.461271
0.151149 0.5 0.825 0.882842 0.00713156 0.481857
0.835106 0.5 0.1125 0.822569 0.0512769 0.485845
0.835106 0.5 -0.1125 0.822379 0.0506263 0.459759
0.715434 0.5 -0.45 0.848201 0.037735 0.437753
0.715434 0.5 0.45 0.84991 0.0388736 0.512386
0.797732 0.5 -0.3 0.832851 0.0455347 0.442882
0.797732 0.5 0.3 0.833641 0.0468901 0.504852
0.467897 0.5 0.7125 0.875651 0.0213503 0.504807
0.467897 0.5 -0.7125 0.873227 0.0216519 0.444938
0.523432 0.5 -0.675 0.869586 0.0245219 0.44208
0.523432 0.5 0.675 0.872122 0.024498 0.508306
0.411736 0.5 -0.75 0.875985 0.0188994 0.447716
0.411736 0.5 0.75 0.87812 0.0184368 0.500989
0.835106 0.5 -0.1875 0.823808 0.0499026 0.451505
0.835106 0.5 0.1875 0.824148 0.0509645 0.494456
0.574156 0.5 -0.6375 0.865788 0.0273696 0.43963
0.574157 0.5 0.6375 0.868393 0.0276011 0.511279
0.350249 0.5 -0.7875 0.878609 0.0161072 0.450907
0.350249 0.5 0.7875 0.880395 0.0154766 0.496663
0.756813 0.5 -0.4125 0.842179 0.0409858 0.436922
0.756814 0.5 0.4125 0.843599 0.0423706 0.512507
0.075776 0.5 -0.8625 0.882963 0.00453252 0.46477
0.075776 0.5 0.8625 0.88312 0.00410729 0.476529
0.624316 0.5 0.6 0.863643 0.0309585 0.513823
0.624316 0.5 -0.6 0.861165 0.0303872 0.437187
0.872064 0.5 5.91974e-17 0.814965 0.0544173 0.471946
0.870122 0.5 0.075 0.815867 0.0543368 0.481757
0.288069 0.5 -0.825 0.880317 0.0132978 0.453959
0.288069 0.5 0.825 0.881647 0.0126185 0.492132
0.67013 0.5 -0.5625 0.856357 0.0333937 0.435161
0.67013 0.5 0.5625 0.858688 0.0342676 0.515817
0.872064 0.5 -0.075 0.815377 0.0540199 0.462648
0.835106 0.5 -0.2625 0.825926 0.0489498 0.443688
0.835106 0.5 0.2625 0.82642 0.0503935 0.50276
0.797732 0.5 -0.375 0.835518 0.0443955 0.436419
0.797732 0.5 0.375 0.836524 0.0460153 0.511878
0.872064 0.5 0.14794 0.816728 0.054358 0.490711
0.872064 0.5 -0.15 0.816622 0.0533497 0.453633
0.715434 0.5 -0.525 0.850803 0.0365753 0.433261
0.715434 0.5 0.525 0.852816 0.0378035 0.517263
0.219992 0.5 0.8625 0.882732 0.00969074 0.487111
0.219993 0.5 -0.8625 0.881918 0.0104117 0.45744
0 0.5 -0.893821 0.882948 0 0.469472
0 0.5 0.893821 0.882948 0 0.469472
0.0124865 0.5 -0.893821 0.882955 0.000748191 0.468694
0.0124865 0.5 0.893821 0.882981 0.000678894 0.470638
0 0.5 -0.9 0.882948 0 0.469472
0 0.5 0.9 0.882948 0 0.469472
0.756813 0.5 -0.4875 0.845041 0.0397544 0.431803
0.756813 0.5 0.4875 0.846744 0.0412855 0.51813
0.872064 0.5 -0.225 0.818646 0.052423 0.445032
0.872064 0.5 0.225 0.818843 0.0539012 0.499817
0.835106 0.5 -0.3375 0.828686 0.0477889 0.436443
0.835106 0.5 0.3375 0.829328 0.0495765 0.510609
0 0.5 0.906179 0.882948 0 0.469472
0 0.5 -0.906179 0.882948 0 0.469472
0.0124865 0.5 -0.906179 0.882962 0.000725562 0.468647
0.0124865 0.5 0.906179 0.882986 0.000652696 0.470651
0.90582 0.5 -0.0375 0.808487 0.0573305 0.466198
0.90582 0.5 0.0375 0.80847 0.0576243 0.476232
0.151149 0.5 -0.9 0.882489 0.00745262 0.460742
0.151149 0.5 0.9 0.882996 0.00685327 0.482083
0.90582 0.5 -0.1125 0.809467 0.056736 0.456406
0.905821 0.5 0.1125 0.809411 0.0576115 0.486299
0.523432 0.5 -0.75 0.871058 0.0236878 0.439966
0.523432 0.5 0.75 0.873829 0.0235949 0.510226
0.574156 0.5 -0.7125 0.867561 0.026432 0.437137
0.574156 0.5 0.7125 0.870439 0.02661 0.513692
0.797732 0.5 -0.45 0.838625 0.0431 0.430622
0.797732 0.5 0.45 0.839875 0.0449383 0.518322
0.467897 0.5 0.7875 0.876994 0.0205494 0.506274
0.467897 0.5 -0.7875 0.87438 0.0209309 0.443159
0.624316 0.5 -0.675 0.863289 0.0293383 0.43428
0.624316 0.5 0.675 0.866069 0.0298838 0.516803
0.411736 0.5 -0.825 0.876879 0.0182791 0.446255
0.411736 0.5 0.825 0.879159 0.017735 0.502076
0.872064 0.5 0.3 0.821704 0.0531709 0.508517
0.872064 0.5 -0.3 0.821421 0.0512603 0.43699
0.67013 0.5 -0.6375 0.858808 0.0322447 0.43179
0.67013 0.5 0.6375 0.86146 0.0331254 0.519406
0.90582 0.5 0.1875 0.811276 0.0572913 0.496202
0.905821 0.5 -0.1875 0.811316 0.0558575 0.44701
0.350249 0.5 -0.8625 0.879232 0.0155965 0.449725
0.350249 0.5 0.8625 0.881114 0.0148865 0.497411
0.835106 0.5 -0.4125 0.831982 0.046446 0.42992
0.835106 0.5 0.4125 0.832817 0.0485289 0.517907
0.715434 0.5 -0.6 0.853609 0.0353228 0.429378
0.715434 0.5 0.6 0.855943 0.0366047 0.521532
0.939201 0.5 2.75387e-17 0.801409 0.0607891 0.470363
0.075776 0.5 0.9375 0.883154 0.00394715 0.476606
0.075776 0.5 -0.9375 0.883002 0.00439389 0.464487
0.939111 0.5 0.075 0.801938 0.0609585 0.482004
0.939201 0.5 -0.075 0.802039 0.0602908 0.459774
0.756813 0.5 0.5625 0.850182 0.0400481 0.523124
0.756814 0.5 -0.5625 0.848168 0.0384113 0.427349
0.90582 0.5 0.2625 0.814008 0.0566695 0.505763
0.905821 0.5 -0.2625 0.813995 0.0547129 0.438115
0.288069 0.5 -0.9 0.880745 0.0128732 0.453051
0.288069 0.5 0.9 0.882139 0.0121223 0.492615
0.872064 0.5 -0.375 0.824861 0.0498884 0.429668
0.872064 0.5 0.375 0.825245 0.0521821 0.516668
0.939201 0.5 0.148627 0.803422 0.0607721 0.491966
0.939201 0.5 -0.15 0.803675 0.0594763 0.449551
0.797732 0.5 -0.525 0.84208 0.0416725 0.425544
0.797732 0.5 0.525 0.843602 0.0436807 0.524094
0.219992 0.5 0.9375 0.882999 0.00929847 0.487372
0.219992 0.5 -0.9375 0.882141 0.010081 0.456774
0.939201 0.5 -0.225 0.806216 0.0583643 0.439816
0.939201 0.5 0.225 0.805834 0.0603072 0.502213
0.905821 0.5 -0.3375 0.817516 0.053329 0.429939
0.90582 0.5 0.3375 0.817522 0.0557615 0.514801
0.835106 0.5 -0.4875 0.835718 0.0449485 0.424152
0.835106 0.5 0.4875 0.836782 0.047271 0.524497
0 0.5 0.968821 0.882948 0 0.469472
0 0.5 -0.968821 0.882948 0 0.469472
0.0124865 0.5 -0.968821 0.882962 0.000725562 0.468647
0.0124865 0.5 0.968821 0.882986 0.000652696 0.470651
0.969689 0.5 -0.0375 0.79465 0.0637772 0.463837
0.969689 0.5 0.0375 0.794494 0.0641532 0.475243
0.574156 0.5 -0.7875 0.869367 0.0254571 0.435073
0.574156 0.5 0.7875 0.87251 0.0255643 0.515622
0 0.5 -0.975 0.882948 0 0.469472
0 0.5 0.975 0.882948 0 0.469472
0.624316 0.5 -0.75 0.865468 0.0282424 0.431865
0.624316 0.5 0.75 0.868552 0.0287385 0.519243
0.969689 0.5 -0.1125 0.796009 0.0630523 0.452754
0.96969 0.5 0.1125 0.795508 0.0641751 0.486695
0.523432 0.5 -0.825 0.872546 0.0228239 0.438225
0.523432 0.5 0.825 0.875539 0.0226503 0.511718
0.67013 0.5 0.7125 0.864327 0.031895 0.522402
0.67013 0.5 -0.7125 0.861345 0.0310372 0.428973
0 0.5 -0.981179 0.882948 0 0.469472
0 0.5 0.981179 0.882948 0 0.469472
0.467897 0.5 0.8625 0.878325 0.0197185 0.507373
0.467897 0.5 -0.8625 0.87554 0.0201864 0.441698
0.0124865 0.5 -0.981179 0.882968 0.000702699 0.46861
0.0124865 0.5 0.981179 0.882989 0.000627597 0.470654
0.872064 0.5 -0.45 0.828832 0.048336 0.423162
0.872064 0.5 0.45 0.829378 0.0509537 0.524148
0.715434 0.5 -0.675 0.856543 0.0339982 0.426118
0.715434 0.5 0.675 0.859217 0.0352967 0.525157
0.939201 0.5 -0.3 0.8097 0.0569792 0.430736
0.939201 0.5 0.3 0.809244 0.0594984 0.512165
0.151149 0.5 0.975 0.883148 0.00657357 0.482204
0.151149 0.5 -0.975 0.882622 0.00721267 0.460308
0.969689 0.5 -0.1875 0.798348 0.0619978 0.442173
0.969689 0.5 0.1875 0.797647 0.0638409 0.497964
0.756813 0.5 -0.6375 0.851475 0.0369803 0.423585
0.756813 0.5 0.6375 0.853827 0.0386795 0.527424
0.411736 0.5 -0.9 0.877775 0.0176406 0.44506
0.411736 0.5 0.9 0.880177 0.0170122 0.502851
0.90582 0.5 -0.4125 0.821667 0.0517393 0.422631
0.90582 0.5 0.4125 0.821748 0.054584 0.523178
0.995005 0.5 0.0749309 0.789857 0.066172 0.481701
0.797732 0.5 -0.6 0.845775 0.0401379 0.421223
0.797732 0.5 0.6 0.847613 0.0422668 0.529138
1.00005 0.5 -8.47123e-18 0.788187 0.0664107 0.46867
0.350249 0.5 -0.9375 0.879853 0.0150721 0.448762
0.350249 0.5 0.9375 0.881806 0.0142829 0.497904
1.00005 0.5 -0.0749309 0.789041 0.0658232 0.456872
0.969689 0.5 -0.2625 0.801628 0.0606347 0.432143
0.969689 0.5 0.2625 0.800853 0.0631565 0.508845
0.835106 0.5 -0.5625 0.839771 0.0433234 0.419206
0.835106 0.5 0.5625 0.841109 0.0458302 0.530338
1.00005 0.5 -0.149862 0.791079 0.0648861 0.44555
0.939201 0.5 -0.375 0.814008 0.0553553 0.42252
0.939201 0.5 0.375 0.813482 0.058389 0.521475
1.00029 0.5 0.148988 0.790458 0.0664374 0.492792
0.075776 0.5 -1.0125 0.883039 0.00425365 0.464258
0.075776 0.5 1.0125 0.883178 0.00379196 0.476626
0.288069 0.5 0.975 0.882618 0.0116171 0.492899
0.288069 0.5 -0.975 0.88117 0.012439 0.452316
0.872064 0.5 -0.525 0.833216 0.0466315 0.417527
0.872064 0.5 0.525 0.833984 0.0495108 0.530833
1.00005 0.5 0.224793 0.793158 0.0659888 0.504244
1.00005 0.5 -0.224793 0.794147 0.0636177 0.43476
0.969689 0.5 0.3375 0.80502 0.0621394 0.519129
0.96969 0.5 -0.3375 0.806059 0.0589951 0.42296
1.0271 0.5 -0.0368226 0.781453 0.0692453 0.461563
1.0271 0.5 0.0368226 0.781208 0.0696799 0.474001
0.90582 0.5 0.4875 0.826568 0.0531606 0.530792
0.905821 0.5 -0.4875 0.826336 0.049971 0.416232
1.0271 0.5 -0.110468 0.78307 0.0684433 0.449531
1.0271 0.5 0.110468 0.781909 0.0700476 0.489365
0.67013 0.5 0.7875 0.86723 0.0305947 0.524797
0.67013 0.5 -0.7875 0.863908 0.0297888 0.426702
0.624316 0.5 0.825 0.871039 0.027539 0.521142
0.624316 0.5 -0.825 0.867654 0.0271147 0.429929
0.219993 0.5 -1.0125 0.882363 0.00974405 0.456238
0.219993 0.5 1.0125 0.883268 0.00890344 0.487486
0.574156 0.5 -0.8625 0.871168 0.0244574 0.433424
0.574156 0.5 0.8625 0.874563 0.0244784 0.517074
0.715434 0.5 -0.75 0.859528 0.0326221 0.423473
0.715434 0.5 0.75 0.862566 0.0338996 0.528119
0.756813 0.5 0.7125 0.857596 0.0372011 0.531006
0.756814 0.5 -0.7125 0.854873 0.0354844 0.420511
0.523432 0.5 -0.9 0.874023 0.0219409 0.436843
0.523432 0.5 0.9 0.877217 0.0216764 0.512792
0.939201 0.5 -0.45 0.818925 0.0535252 0.415279
0.939201 0.5 0.45 0.818446 0.0570009 0.530012
1.04168 0.5 0 0.77745 0.0710558 0.46727
1.0271 0.5 -0.184113 0.785827 0.0672947 0.438101
1.0271 0.5 0.184113 0.784678 0.0694305 0.498787
0 0.5 -1.04382 0.882948 0 0.469472
0 0.5 1.04382 0.882948 0 0.469472
0.0124865 0.5 -1.04382 0.882968 0.000702699 0.46861
0.0124865 0.5 1.04382 0.882989 0.000627597 0.470654
1.00005 0.5 -0.299723 0.798354 0.0620457 0.42466
1.00005 0.5 0.299723 0.79712 0.0651304 0.515372
1.04168 0.5 -0.0729162 0.778428 0.0704212 0.454772
1.04168 0.5 0.0729162 0.777857 0.0713174 0.48
0.797732 0.5 -0.675 0.84961 0.0385222 0.417665
0.797732 0.5 0.675 0.851813 0.0407204 0.533407
0.467897 0.5 0.9375 0.879616 0.0188673 0.508113
0.467897 0.5 -0.9375 0.876687 0.0194269 0.440541
0 0.5 -1.05 0.882948 0 0.469472
0 0.5 1.05 0.882948 0 0.469472
0.835106 0.5 -0.6375 0.844025 0.0415981 0.4151
0.835106 0.5 0.6375 0.845704 0.0442322 0.535348
1.04168 0.5 -0.145832 0.780702 0.0694252 0.442833
1.04168 0.5 0.145832 0.779601 0.0712023 0.492654
0.969689 0.5 -0.4125 0.811157 0.057123 0.414794
0.96969 0.5 0.4125 0.810043 0.0608099 0.528632
0 0.5 -1.05618 0.882948 0 0.469472
0 0.5 1.05618 0.882948 0 0.469472
0.0124865 0.5 -1.05618 0.882973 0.000679944 0.46858
0.0124865 0.5 1.05618 0.882992 0.00060308 0.470649
1.05695 0.5 -0.0360764 0.773756 0.0723867 0.460241
1.05695 0.5 0.0360764 0.773446 0.072851 0.473191
0.411736 0.5 -0.975 0.878655 0.0169912 0.444121
0.411736 0.5 0.975 0.881155 0.0162755 0.503324
0.872064 0.5 -0.6 0.837877 0.044806 0.412805
0.872064 0.5 0.6 0.838937 0.0478836 0.536645
1.0271 0.5 -0.257759 0.789657 0.0658129 0.427153
1.0271 0.5 0.257759 0.788281 0.0687502 0.510685
0.151149 0.5 -1.05 0.882754 0.00697027 0.459964
0.151149 0.5 1.05 0.883294 0.00629584 0.482224
1.05695 0.5 0.108229 0.773769 0.0732641 0.486445
1.05695 0.5 -0.108229 0.775487 0.071549 0.447743
1.04168 0.5 -0.218749 0.784101 0.0680837 0.431427
1.04168 0.5 0.218749 0.78263 0.0707118 0.505014
0.90582 0.5 -0.5625 0.831377 0.0480559 0.410822
0.905821 0.5 0.5625 0.831848 0.0515193 0.537455
1.00005 0.5 -0.374654 0.803547 0.0602124 0.41558
1.00005 0.5 0.374654 0.80206 0.0639384 0.52578
0.350249 0.5 1.0125 0.882466 0.0136672 0.498159
0.350249 0.5 -1.0125 0.880463 0.0145401 0.448007
1.05695 0.5 -0.180382 0.778448 0.0703551 0.435942
1.05695 0.5 0.180382 0.776927 0.0726439 0.498975
1.07319 0.5 0.0709442 0.769531 0.074797 0.482162
0.939201 0.5 -0.525 0.824325 0.0515206 0.409099
0.939201 0.5 0.525 0.823996 0.0553614 0.537629
1.0271 0.5 -0.331404 0.794773 0.0640395 0.417087
1.0271 0.5 0.331404 0.79299 0.0677173 0.521961
1.08112 0.5 3.23815e-17 0.766802 0.0753216 0.465821
1.04168 0.5 -0.291665 0.7887 0.0664244 0.420659
1.04168 0.5 0.291665 0.786855 0.0698567 0.516862
1.08112 0.5 -0.0709442 0.767891 0.0746465 0.452684
0.969689 0.5 -0.4875 0.816873 0.0550441 0.407727
0.96969 0.5 0.4875 0.815799 0.0591954 0.537248
1.05695 0.5 0.252535 0.780616 0.0719749 0.511376
1.05695 0.5 -0.252535 0.782516 0.0688189 0.424529
0.288069 0.5 -1.05 0.881587 0.0120001 0.451748
0.288069 0.5 1.05 0.883081 0.0111063 0.492994
0.075776 0.5 -1.0875 0.883073 0.0041136 0.464079
0.075776 0.5 1.0875 0.883196 0.00364115 0.476595
1.08112 0.5 -0.141888 0.770364 0.0736009 0.440165
1.08145 0.5 0.140165 0.769209 0.075432 0.492899
0.715434 0.5 0.825 0.86592 0.0324344 0.530418
0.715434 0.5 -0.825 0.862497 0.0312138 0.421421
0.756813 0.5 0.7875 0.861412 0.0356352 0.53386
0.756814 0.5 -0.7875 0.858277 0.0339467 0.418105
0.67013 0.5 -0.8625 0.866442 0.0285163 0.42495
0.67013 0.5 0.8625 0.870109 0.0292434 0.526594
0.797732 0.5 -0.75 0.853483 0.036851 0.414857
0.797732 0.5 0.75 0.856111 0.0390657 0.536883
0.624316 0.5 -0.9 0.869802 0.025969 0.428448
0.624316 0.5 0.9 0.873483 0.0263019 0.522509
1.00005 0.5 -0.449585 0.809448 0.0581494 0.407678
1.00005 0.5 0.449585 0.807851 0.0624367 0.535313
0.835106 0.5 -0.7125 0.848368 0.0398018 0.411825
0.835106 0.5 0.7125 0.850454 0.0425033 0.539505
0.574156 0.5 -0.9375 0.87293 0.0234444 0.43217
0.574157 0.5 0.9375 0.876561 0.0233661 0.51806
1.10076 0.5 -0.0349809 0.761393 0.0772702 0.458234
1.10076 0.5 0.0349809 0.760992 0.0777749 0.471939
1.08112 0.5 -0.212832 0.774062 0.0722005 0.428197
1.08112 0.5 0.212832 0.772013 0.0750642 0.505542
0.872064 0.5 -0.675 0.84268 0.0428915 0.409002
0.872064 0.5 0.675 0.844112 0.0461007 0.541549
1.04168 0.5 -0.364581 0.794388 0.0644937 0.410997
1.04168 0.5 0.364581 0.792146 0.0686561 0.527977
1.0271 0.5 0.405049 0.798669 0.0663535 0.532406
1.0271 0.5 -0.405049 0.800709 0.0620182 0.408255