# UMean  POINT_DATA 63140
# x  y  z  UMean_x  UMean_y  UMean_z
0 0.1 0 0.882948 0 0.469472
0 0.1 -0.0179898 0.882948 0 0.469472
0 0.1 0.0179898 0.882948 0 0.469472
0.0363518 0.1 0.0179898 0.885875 0.0071387 0.470636
0.0363518 0.1 -0.0179898 0.885859 0.00715293 0.470259
0 0.1 -0.0570102 0.882948 0 0.469472
0 0.1 0.0570102 0.882948 0 0.469472
0.0363518 0.1 0.0570102 0.885875 0.0071387 0.470636
0.0363518 0.1 -0.0570102 0.885859 0.00715293 0.470259
0 0.1 -0.075 0.882948 0 0.469472
0 0.1 0.075 0.882948 0 0.469472
0.075776 0.1 -0.0375 0.889058 0.0150296 0.471107
0.075776 0.1 0.0375 0.889094 0.0150005 0.471893
0 0.1 -0.0929898 0.882948 0 0.469472
0 0.1 0.0929898 0.882948 0 0.469472
0.0363518 0.1 -0.0929898 0.88583 0.00715304 0.469861
0.0363518 0.1 0.0929898 0.885862 0.00711498 0.47101
0 0.1 -0.13201 0.882948 0 0.469472
0 0.1 0.13201 0.882948 0 0.469472
0.075776 0.1 -0.1125 0.888996 0.0150299 0.470276
0.075776 0.1 0.1125 0.889068 0.0149523 0.472672
0.0363518 0.1 -0.13201 0.88583 0.00715304 0.469861
0.0363518 0.1 0.13201 0.885862 0.00711498 0.47101
0 0.1 -0.15 0.882948 0 0.469472
0 0.1 0.15 0.882948 0 0.469472
0.150379 0.1 -2.22623e-17 0.890755 0.0142996 0.472431
0 0.1 -0.16799 0.882948 0 0.469472
0 0.1 0.16799 0.882948 0 0.469472
0.150379 0.1 -0.075 0.890693 0.014278 0.471046
0.150379 0.1 0.075 0.890875 0.0142925 0.473801
0.0363518 0.1 -0.16799 0.885781 0.00712291 0.469468
0.0363518 0.1 0.16799 0.885835 0.00707779 0.471363
0.075776 0.1 -0.1875 0.888895 0.0149678 0.469456
0.075776 0.1 0.1875 0.889012 0.0148767 0.473408
0 0.1 -0.20701 0.882948 0 0.469472
0 0.1 0.20701 0.882948 0 0.469472
0.0363518 0.1 -0.20701 0.885781 0.00712291 0.469468
0.0363518 0.1 0.20701 0.885835 0.00707779 0.471363
0.150379 0.1 -0.15 0.89071 0.0142237 0.469663
0.150379 0.1 0.15 0.891058 0.0142566 0.47513
0.219993 0.1 -0.0375 0.89228 0.0135996 0.472348
0.219993 0.1 0.0375 0.89244 0.0136416 0.474292
0 0.1 -0.225 0.882948 0 0.469472
0 0.1 0.225 0.882948 0 0.469472
0 0.1 -0.24299 0.882948 0 0.469472
0 0.1 0.24299 0.882948 0 0.469472
0.0363518 0.1 0.24299 0.885797 0.00703326 0.471689
0.0363518 0.1 -0.24299 0.88572 0.007077 0.469078
0.219993 0.1 -0.1125 0.892288 0.0135292 0.470422
0.219993 0.1 0.1125 0.892739 0.0136456 0.47621
0.150379 0.1 -0.225 0.890847 0.0141483 0.468298
0.150379 0.1 0.225 0.891317 0.0141926 0.476401
0.075776 0.1 -0.2625 0.888771 0.0148747 0.468643
0.075776 0.1 0.2625 0.888935 0.0147863 0.474088
0 0.1 -0.28201 0.882948 0 0.469472
0 0.1 0.28201 0.882948 0 0.469472
0.0363518 0.1 -0.28201 0.88572 0.007077 0.469078
0.0363518 0.1 0.28201 0.885797 0.00703326 0.471689
0.287374 0.1 -2.89121e-19 0.889367 0.0131711 0.473843
0.219992 0.1 0.1875 0.893235 0.0136196 0.478042
0.219992 0.1 -0.1875 0.892505 0.0134463 0.468517
0.287374 0.1 -0.075 0.889319 0.0131217 0.471352
0.287374 0.1 0.075 0.889585 0.0131999 0.476324
0 0.1 -0.3 0.882948 0 0.469472
0 0.1 0.3 0.882948 0 0.469472
0 0.1 0.31799 0.882948 0 0.469472
0 0.1 -0.31799 0.882948 0 0.469472
0.0363518 0.1 -0.31799 0.885675 0.0070398 0.468702
0.0363518 0.1 0.31799 0.88576 0.00699362 0.471984
0.287374 0.1 0.15 0.889977 0.0132028 0.478753
0.287374 0.1 -0.15 0.889466 0.0130618 0.46888
0.150379 0.1 -0.3 0.891093 0.0140834 0.46695
0.150379 0.1 0.3 0.891608 0.0141087 0.477608
0.219993 0.1 0.2625 0.893877 0.0135541 0.479827
0.219993 0.1 -0.2625 0.89304 0.0133825 0.466643
0.075776 0.1 -0.3375 0.88868 0.0147998 0.467857
0.075776 0.1 0.3375 0.88886 0.0147058 0.474703
0.350249 0.1 -0.0375 0.886447 0.0127217 0.472828
0.350249 0.1 0.0375 0.886567 0.012762 0.47586
0 0.1 -0.35701 0.882948 0 0.469472
0 0.1 0.35701 0.882948 0 0.469472
0.0363518 0.1 -0.35701 0.885675 0.0070398 0.468702
0.0363518 0.1 0.35701 0.88576 0.00699362 0.471984
0.287374 0.1 -0.225 0.889852 0.0130068 0.466443
0.287374 0.1 0.225 0.890553 0.01317 0.48111
0.350249 0.1 -0.1125 0.886524 0.012676 0.469812
0.350249 0.1 0.1125 0.886861 0.0127903 0.478843
0 0.1 -0.375 0.882948 0 0.469472
0 0.1 0.375 0.882948 0 0.469472
0 0.1 -0.39299 0.882948 0 0.469472
0 0.1 0.39299 0.882948 0 0.469472
0.0363518 0.1 -0.39299 0.885646 0.00701375 0.468351
0.0363518 0.1 0.39299 0.885734 0.00695821 0.472242
0.350249 0.1 -0.1875 0.886808 0.0126343 0.466818
0.350249 0.1 0.1875 0.887342 0.0127946 0.481776
0.219992 0.1 -0.3375 0.893672 0.0133534 0.464773
0.219992 0.1 0.3375 0.89452 0.0134547 0.481524
0.150379 0.1 0.375 0.891886 0.0140157 0.478726
0.150379 0.1 -0.375 0.891346 0.0140363 0.465657
0.411108 0.1 4.33681e-19 0.881564 0.0130219 0.4745
0.287374 0.1 -0.3 0.890443 0.0129621 0.464045
0.287374 0.1 0.3 0.891261 0.0130915 0.483377
0.411108 0.1 -0.075 0.881581 0.0129786 0.470854
0.411108 0.1 0.075 0.881785 0.0130572 0.478132
0.075776 0.1 -0.4125 0.888621 0.0147469 0.467127
0.075776 0.1 0.4125 0.888807 0.0146334 0.475241
0 0.1 0.43201 0.882948 0 0.469472
0 0.1 -0.43201 0.882948 0 0.469472
0.0363518 0.1 0.43201 0.885734 0.00695821 0.472242
0.0363518 0.1 -0.43201 0.885646 0.00701375 0.468351
0.411108 0.1 -0.15 0.881844 0.0129342 0.467239
0.411108 0.1 0.15 0.882234 0.0130752 0.481702
0.350249 0.1 -0.2625 0.887318 0.0126015 0.463889
0.350249 0.1 0.2625 0.888025 0.0127498 0.484607
0 0.1 -0.45 0.882948 0 0.469472
0 0.1 0.45 0.882948 0 0.469472
0.219992 0.1 0.4125 0.895086 0.0133368 0.483096
0.219992 0.1 -0.4125 0.894173 0.0133204 0.463037
0 0.1 -0.46799 0.882948 0 0.469472
0 0.1 0.46799 0.882948 0 0.469472
0.411108 0.1 -0.225 0.882354 0.0128903 0.463697
0.411108 0.1 0.225 0.88292 0.0130585 0.485172
0.467897 0.1 -0.0375 0.876779 0.0132678 0.472523
0.467897 0.1 0.0375 0.876873 0.01331 0.476778
0.0363518 0.1 0.46799 0.885715 0.00692884 0.472459
0.0363518 0.1 -0.46799 0.885631 0.00698898 0.468032
0.287374 0.1 -0.375 0.891081 0.0129098 0.46174
0.287374 0.1 0.375 0.892019 0.0129735 0.485506
0.150379 0.1 0.45 0.892144 0.0139237 0.479731
0.150379 0.1 -0.45 0.891561 0.0139898 0.464463
0.467897 0.1 0.1125 0.877247 0.0133401 0.480984
0.467897 0.1 -0.1125 0.876979 0.0132228 0.46829
0.350249 0.1 -0.3375 0.888006 0.0125483 0.461016
0.350249 0.1 0.3375 0.888887 0.0126453 0.487317
0.075776 0.1 -0.4875 0.888592 0.0146962 0.466462
0.075776 0.1 0.4875 0.88877 0.0145735 0.475694
0.467897 0.1 0.1875 0.877891 0.0133492 0.485089
0.467897 0.1 -0.1875 0.877467 0.0131779 0.464124
0 0.1 -0.50701 0.882948 0 0.469472
0 0.1 0.50701 0.882948 0 0.469472
0.0363518 0.1 -0.50701 0.885631 0.00698898 0.468032
0.0363518 0.1 0.50701 0.885715 0.00692884 0.472459
0.411108 0.1 0.3 0.883843 0.0129878 0.4885
0.411108 0.1 -0.3 0.883088 0.012834 0.460261
0.522865 0.1 1.41031e-17 0.870596 0.0139015 0.474456
0 0.1 -0.525 0.882948 0 0.469472
0 0.1 0.525 0.882948 0 0.469472
0.522865 0.1 -0.075 0.870703 0.013853 0.469563
0.522865 0.1 0.075 0.870838 0.0139356 0.479344
0.287374 0.1 0.45 0.892779 0.0128295 0.487446
0.287374 0.1 -0.45 0.891676 0.0128348 0.459603
0.219992 0.1 0.4875 0.895612 0.0132215 0.484507
0.219992 0.1 -0.4875 0.894595 0.0132706 0.461436
0.467897 0.1 -0.2625 0.878216 0.0131223 0.460091
0.467897 0.1 0.2625 0.878816 0.0133137 0.489052
0.350249 0.1 -0.4125 0.888731 0.0124564 0.458322
0.350249 0.1 0.4125 0.889835 0.0124958 0.489809
0 0.1 -0.54299 0.882948 0 0.469472
0 0.1 0.54299 0.882948 0 0.469472
0.522865 0.1 0.15 0.871419 0.0139468 0.484152
0.522865 0.1 -0.15 0.871157 0.0137938 0.464737
0.0363518 0.1 0.54299 0.885707 0.0069058 0.472648
0.0363518 0.1 -0.54299 0.885629 0.00696605 0.467746
0.150379 0.1 -0.525 0.891762 0.0139382 0.463372
0.150379 0.1 0.525 0.892373 0.0138394 0.480591
0.411108 0.1 -0.375 0.883971 0.0127445 0.456992
0.411108 0.1 0.375 0.884965 0.0128604 0.491625
0.075776 0.1 -0.5625 0.888588 0.0146495 0.465865
0.075776 0.1 0.5625 0.888752 0.0145267 0.476086
0.522865 0.1 -0.225 0.871934 0.013717 0.460045
0.522865 0.1 0.225 0.872333 0.0139224 0.488814
0.574156 0.1 0.0375 0.86463 0.0145097 0.477039
0.574157 0.1 -0.0375 0.864583 0.0144655 0.471499
0.467897 0.1 -0.3375 0.879193 0.0130397 0.456224
0.467897 0.1 0.3375 0.880029 0.0132154 0.492813
0 0.1 -0.58201 0.882948 0 0.469472
0 0.1 0.58201 0.882948 0 0.469472
0.0363518 0.1 -0.58201 0.885629 0.00696605 0.467746
0.0363518 0.1 0.58201 0.885707 0.0069058 0.472648
0.574157 0.1 -0.1125 0.864949 0.014403 0.466005
0.574157 0.1 0.1125 0.865084 0.0145296 0.482539
0.287374 0.1 -0.525 0.892243 0.0127394 0.45765
0.287374 0.1 0.525 0.893501 0.0126691 0.489153
0 0.1 -0.6 0.882948 0 0.469472
0 0.1 0.6 0.882948 0 0.469472
0.350249 0.1 0.4875 0.890816 0.0123054 0.492059
0.350249 0.1 -0.4875 0.889451 0.0123342 0.455843
0.522865 0.1 -0.3 0.872998 0.0136111 0.455553
0.522865 0.1 0.3 0.873585 0.0138442 0.493272
0.219992 0.1 -0.5625 0.894991 0.013212 0.459976
0.219992 0.1 0.5625 0.896036 0.0131092 0.485652
0.574156 0.1 -0.1875 0.865705 0.0143202 0.46064
0.574156 0.1 0.1875 0.865929 0.0145161 0.487908
0.411108 0.1 0.45 0.886212 0.0126812 0.494486
0.411108 0.1 -0.45 0.884923 0.0126153 0.453969
0 0.1 -0.61799 0.882948 0 0.469472
0 0.1 0.61799 0.882948 0 0.469472
0.150379 0.1 -0.6 0.891947 0.0138843 0.46239
0.150379 0.1 0.6 0.892574 0.0137593 0.481296
0.0363518 0.1 -0.61799 0.885638 0.00694759 0.467484
0.0363518 0.1 0.61799 0.885709 0.00688306 0.472813
0.467897 0.1 -0.4125 0.880323 0.0129107 0.452625
0.467897 0.1 0.4125 0.881475 0.0130579 0.496308
0.623803 0.1 2.34188e-17 0.857388 0.0153848 0.47378
0.623803 0.1 0.075 0.85764 0.0154183 0.479988
0.623803 0.1 -0.075 0.857624 0.0153188 0.467589
0.574156 0.1 0.2625 0.867162 0.0144593 0.493071
0.574156 0.1 -0.2625 0.866808 0.0141984 0.455481
0.623803 0.1 0.15 0.85837 0.0154135 0.48611
0.623803 0.1 -0.15 0.858331 0.0152198 0.461514
0.075776 0.1 0.6375 0.888757 0.0144804 0.47643
0.075776 0.1 -0.6375 0.888606 0.0146117 0.46532
0.522865 0.1 -0.375 0.874298 0.0134642 0.451338
0.522865 0.1 0.375 0.875157 0.0137019 0.49746
0 0.1 0.65701 0.882948 0 0.469472
0 0.1 -0.65701 0.882948 0 0.469472
0.0363518 0.1 0.65701 0.885709 0.00688306 0.472813
0.0363518 0.1 -0.65701 0.885638 0.00694759 0.467484
0.350249 0.1 0.5625 0.89175 0.0120858 0.49404
0.350249 0.1 -0.5625 0.890167 0.0121866 0.45361
0.623803 0.1 0.225 0.859564 0.015363 0.492044
0.623803 0.1 -0.225 0.859473 0.0150772 0.455647
0.287374 0.1 -0.6 0.892776 0.0126273 0.455904
0.287374 0.1 0.6 0.894158 0.012502 0.490587
0.574157 0.1 -0.3375 0.86822 0.0140377 0.450614
0.574157 0.1 0.3375 0.868787 0.0143378 0.49797
0.411108 0.1 0.525 0.887508 0.0124566 0.497049
0.411108 0.1 -0.525 0.885908 0.012453 0.451227
0.67013 0.1 0.0375 0.850414 0.0162743 0.476749
0.67013 0.1 -0.0375 0.850445 0.016217 0.469866
0.219992 0.1 -0.6375 0.895305 0.0131404 0.458687
0.219993 0.1 0.6375 0.89641 0.0129972 0.48656
0 0.1 -0.675 0.882948 0 0.469472
0 0.1 0.675 0.882948 0 0.469472
0.467897 0.1 -0.4875 0.881537 0.0127389 0.449339
0.467897 0.1 0.4875 0.883067 0.0128394 0.499479
0.67013 0.1 -0.1125 0.851034 0.0161182 0.463069
0.67013 0.1 0.1125 0.850949 0.016287 0.483608
0.522865 0.1 0.45 0.876983 0.0134942 0.501313
0.522865 0.1 -0.45 0.875763 0.0132694 0.447471
0.150379 0.1 0.675 0.892771 0.0136799 0.481867
0.150379 0.1 -0.675 0.892118 0.013827 0.461519
0.623803 0.1 0.3 0.861215 0.0152539 0.49771
0.623803 0.1 -0.3 0.861004 0.0148858 0.450089
0 0.1 -0.69299 0.882948 0 0.469472
0 0.1 0.69299 0.882948 0 0.469472
0.0363518 0.1 -0.69299 0.885651 0.0069287 0.467248
0.0363518 0.1 0.69299 0.885717 0.00686061 0.472951
0.67013 0.1 -0.1875 0.852142 0.0159684 0.45647
0.67013 0.1 0.1875 0.85203 0.0162493 0.490318
0.574156 0.1 0.4125 0.87077 0.014147 0.502526
0.574157 0.1 -0.4125 0.869881 0.0138257 0.446123
0.714971 0.1 -2.8382e-17 0.842478 0.0173989 0.472568
0.075776 0.1 -0.7125 0.888634 0.0145731 0.46483
0.075776 0.1 0.7125 0.888774 0.0144347 0.476717
0.714971 0.1 -0.075 0.842885 0.017296 0.465031
0.714971 0.1 0.075 0.84272 0.0174435 0.480156
0.67013 0.1 0.2625 0.853638 0.0161562 0.496765
0.67013 0.1 -0.2625 0.853725 0.0157553 0.450167
0.411108 0.1 -0.6 0.886905 0.0122651 0.448791
0.411108 0.1 0.6 0.888787 0.0122065 0.499275
0.350249 0.1 0.6375 0.892622 0.011866 0.495707
0.350249 0.1 -0.6375 0.890856 0.0120202 0.451638
0.623803 0.1 0.375 0.863305 0.0150736 0.50303
0.623803 0.1 -0.375 0.862868 0.0146443 0.444931
0.714971 0.1 -0.15 0.843913 0.0171309 0.457668
0.714971 0.1 0.15 0.84361 0.0174265 0.487661
0.467897 0.1 -0.5625 0.882803 0.0125335 0.446402
0.467897 0.1 0.5625 0.884714 0.0125714 0.502291
0 0.1 -0.73201 0.882948 0 0.469472
0 0.1 0.73201 0.882948 0 0.469472
0.0363518 0.1 0.73201 0.885717 0.00686061 0.472951
0.0363518 0.1 -0.73201 0.885651 0.0069287 0.467248
0.287374 0.1 -0.675 0.89328 0.0125041 0.454372
0.287374 0.1 0.675 0.894778 0.012336 0.491756
0.522865 0.1 -0.525 0.877338 0.0130341 0.443998
0.522865 0.1 0.525 0.878974 0.0132244 0.504775
0.219993 0.1 -0.7125 0.895613 0.0130609 0.457561
0.219992 0.1 0.7125 0.896786 0.0128868 0.487281
0.714971 0.1 -0.225 0.845517 0.016895 0.450602
0.714971 0.1 0.225 0.845124 0.0173445 0.494946
0 0.1 0.75 0.882948 0 0.469472
0 0.1 -0.75 0.882948 0 0.469472
0.67013 0.1 -0.3375 0.855732 0.0154893 0.444302
0.67013 0.1 0.3375 0.855762 0.0159928 0.502878
0.574156 0.1 -0.4875 0.871716 0.0135628 0.442067
0.574157 0.1 0.4875 0.87303 0.0138847 0.506673
0.756813 0.1 0.0375 0.834719 0.0185543 0.475993
0.756814 0.1 -0.0375 0.834858 0.0184635 0.467711
0.150379 0.1 0.746002 0.892888 0.01362 0.482197
0.150379 0.1 -0.75 0.892295 0.0137668 0.460756
0.756813 0.1 -0.1125 0.835722 0.0183004 0.459568
0.756813 0.1 0.1125 0.835324 0.0185713 0.484275
0 0.1 0.76799 0.882948 0 0.469472
0 0.1 -0.76799 0.882948 0 0.469472
0.0363518 0.1 0.76799 0.885727 0.00684103 0.473058
0.0363518 0.1 -0.76799 0.885666 0.00690959 0.467041
0.623803 0.1 -0.45 0.864992 0.0143489 0.440244
0.623803 0.1 0.45 0.865775 0.0148185 0.507925
0.714971 0.1 -0.3 0.847645 0.0165925 0.443967
0.714971 0.1 0.3 0.847239 0.0171905 0.501898
0.756814 0.1 -0.1875 0.837261 0.0180548 0.4517
0.756814 0.1 0.1875 0.836657 0.0185115 0.492395
0.67013 0.1 -0.4125 0.858086 0.015166 0.438929
0.67013 0.1 0.4125 0.858367 0.015749 0.508546
0.411108 0.1 0.675 0.89003 0.0119489 0.501132
0.411108 0.1 -0.675 0.887905 0.0120625 0.446672
0.467897 0.1 0.6375 0.886348 0.0122807 0.504698
0.467897 0.1 -0.6375 0.884096 0.0123037 0.443829
0.075776 0.1 0.7875 0.888795 0.0143949 0.47694
0.075776 0.1 -0.7875 0.888664 0.0145341 0.464399
0.350249 0.1 -0.7125 0.891541 0.0118491 0.449928
0.350249 0.1 0.7125 0.89346 0.0116489 0.497056
0.522865 0.1 -0.6 0.878982 0.0127695 0.440944
0.522865 0.1 0.6 0.881038 0.012908 0.5078
0.797314 0.1 -3.59473e-17 0.826329 0.0199692 0.470918
0.287374 0.1 0.746002 0.895387 0.01219 0.492545
0.797314 0.1 -0.075 0.826959 0.019803 0.461988
0.797314 0.1 0.075 0.826535 0.0200434 0.479941
0.756814 0.1 -0.2625 0.839433 0.0177234 0.444247
0.756814 0.1 0.2625 0.838681 0.0183752 0.500211
0.287374 0.1 -0.75 0.893787 0.0123769 0.453048
0.574156 0.1 -0.5625 0.873672 0.0132654 0.438481
0.574156 0.1 0.5625 0.875466 0.0135565 0.510356
0 0.1 0.80701 0.882948 0 0.469472
0 0.1 -0.80701 0.882948 0 0.469472
0.714971 0.1 -0.375 0.850217 0.0162275 0.437867
0.714971 0.1 0.375 0.849924 0.0169536 0.508419
0.0363518 0.1 0.80701 0.885727 0.00684103 0.473058
0.0363518 0.1 -0.80701 0.885666 0.00690959 0.467041
0.797314 0.1 -0.15 0.828382 0.0195413 0.453304
0.797314 0.1 0.15 0.827579 0.0200235 0.488886
0.623803 0.1 -0.525 0.867303 0.0140095 0.43608
0.623803 0.1 0.525 0.868537 0.0144904 0.51233
0.219992 0.1 0.7875 0.89717 0.012775 0.487829
0.219992 0.1 -0.7875 0.895941 0.0129795 0.456582
0.149792 0.1 0.80701 0.893123 0.0135463 0.482571
0 0.1 0.825 0.882948 0 0.469472
0 0.1 -0.825 0.882948 0 0.469472
0.797314 0.1 -0.225 0.830546 0.0191811 0.445023
0.797314 0.1 0.225 0.829435 0.0199093 0.497588
0.756813 0.1 -0.3375 0.842159 0.0173281 0.437365
0.756813 0.1 0.3375 0.841369 0.0181538 0.507598
0.67013 0.1 0.4875 0.861375 0.015428 0.513714
0.67013 0.1 -0.4875 0.860703 0.0147869 0.43413
0.835106 0.1 -0.0375 0.818272 0.0213041 0.465147
0.835106 0.1 0.0375 0.817978 0.0214545 0.474876
0.150379 0.1 -0.825 0.892478 0.0137065 0.460098
0.835106 0.1 -0.1125 0.819487 0.0210463 0.45562
0.835106 0.1 0.1125 0.818629 0.021492 0.484628
0 0.1 -0.84299 0.882948 0 0.469472
0 0.1 0.84299 0.882948 0 0.469472
0.0363518 0.1 -0.84299 0.88568 0.00689219 0.466864
0.0363518 0.1 0.84299 0.885736 0.00682441 0.473132
0.714971 0.1 -0.45 0.853145 0.0158016 0.432374
0.714971 0.1 0.45 0.853118 0.0166304 0.514411
0.411108 0.1 0.746002 0.891229 0.0116983 0.502463
0.797314 0.1 -0.3 0.833391 0.0187354 0.437297
0.797314 0.1 0.3 0.832059 0.0196979 0.505892
0.467897 0.1 -0.7125 0.885405 0.0120636 0.441628
0.467897 0.1 0.7125 0.887942 0.0119812 0.506676
0.522865 0.1 0.675 0.883107 0.0125659 0.510349
0.522865 0.1 -0.675 0.880666 0.0124865 0.43832
0.411108 0.1 -0.75 0.888912 0.0118539 0.444865
0.835106 0.1 -0.1875 0.821546 0.0206697 0.446466
0.835107 0.1 0.1875 0.820213 0.0214177 0.494212
0.286844 0.1 0.80701 0.895852 0.0120462 0.493216
0.574156 0.1 0.6375 0.877975 0.013181 0.513522
0.574157 0.1 -0.6375 0.875705 0.012943 0.435383
0.350249 0.1 -0.7875 0.892233 0.0116766 0.44847
0.350249 0.1 0.7875 0.894281 0.0114315 0.498099
0.756813 0.1 -0.4125 0.845335 0.0168576 0.431115
0.756814 0.1 0.4125 0.844672 0.0178372 0.514475
0.623803 0.1 -0.6 0.869741 0.01364 0.432465
0.623803 0.1 0.6 0.871482 0.0140971 0.516185
0.075776 0.1 0.8625 0.888814 0.0143611 0.477094
0.075776 0.1 -0.8625 0.888694 0.0144987 0.46403
0.871687 0.1 -3.2767e-18 0.809378 0.0230377 0.468906
0.287374 0.1 -0.825 0.894303 0.012248 0.451925
0.871687 0.1 -0.075 0.810269 0.0227771 0.45855
0.871687 0.1 0.075 0.809527 0.023166 0.479405
0.67013 0.1 -0.5625 0.86351 0.0143729 0.429939
0.67013 0.1 0.5625 0.864688 0.0150296 0.518302
0.835106 0.1 0.2625 0.822683 0.0212323 0.503456
0.835106 0.1 -0.2625 0.824415 0.020187 0.437852
0.797314 0.1 -0.375 0.836805 0.0182109 0.430245
0.797314 0.1 0.375 0.835407 0.019383 0.513675
0 0.1 -0.88201 0.882948 0 0.469472
0 0.1 0.88201 0.882948 0 0.469472
0.0363518 0.1 0.88201 0.885736 0.00682441 0.473132
0.0363518 0.1 -0.88201 0.88568 0.00689219 0.466864
0.871687 0.1 0.15 0.81072 0.0231574 0.489838
0.871687 0.1 -0.15 0.81214 0.0223872 0.44853
0.714971 0.1 0.525 0.856728 0.0162233 0.519796
0.714971 0.1 -0.525 0.856342 0.0153302 0.427553
0.219993 0.1 0.8625 0.897553 0.0126607 0.488225
0.219992 0.1 -0.8625 0.896274 0.0128963 0.455753
0 0.1 0.9 0.882948 0 0.469472
0 0.1 -0.9 0.882948 0 0.469472
0.756813 0.1 0.4875 0.848505 0.0174287 0.520692
0.756814 0.1 -0.4875 0.848871 0.0163321 0.425594
0.871687 0.1 0.225 0.812925 0.023014 0.500006
0.871687 0.1 -0.225 0.814925 0.0218688 0.439014
0.835106 0.1 -0.3375 0.828 0.0196184 0.429931
0.835106 0.1 0.3375 0.825982 0.0209316 0.51218
0.41063 0.1 0.80701 0.892149 0.0114907 0.503502
0.90582 0.1 -0.0375 0.801095 0.0245227 0.462224
0.905821 0.1 0.0375 0.80064 0.0247652 0.473435
0.522865 0.1 0.746002 0.885112 0.0122223 0.512229
0.150379 0.1 0.9 0.893381 0.013453 0.48287
0.90582 0.1 0.1125 0.801336 0.0248461 0.484698
0.905821 0.1 -0.1125 0.802688 0.0241341 0.451306
0.522865 0.1 -0.75 0.882366 0.0121937 0.436124
0.574156 0.1 0.7125 0.880478 0.0127821 0.516139
0.574156 0.1 -0.7125 0.877777 0.0126071 0.432778
0.797314 0.1 -0.45 0.840679 0.0176167 0.423958
0.797314 0.1 0.45 0.839404 0.0189642 0.520817
0.467897 0.1 -0.7875 0.886718 0.0118158 0.439788
0.467897 0.1 0.7875 0.889497 0.0116782 0.508223
0.150379 0.1 -0.903998 0.892729 0.0136355 0.459499
0 0.1 0.91799 0.882948 0 0.469472
0 0.1 -0.91799 0.882948 0 0.469472
0.0363518 0.1 0.91799 0.885742 0.00681038 0.473172
0.0363518 0.1 -0.91799 0.885691 0.00687668 0.466717
0.623803 0.1 0.675 0.874502 0.0136574 0.519443
0.623803 0.1 -0.675 0.872253 0.0132513 0.429412
0.411108 0.1 -0.825 0.88992 0.0116421 0.443363
0.871687 0.1 0.3 0.816082 0.0227366 0.509715
0.871687 0.1 -0.3 0.818565 0.0212371 0.430171
0.67013 0.1 -0.6375 0.866436 0.0139332 0.426376
0.67013 0.1 0.6375 0.868178 0.0145617 0.522254
0.90582 0.1 -0.1875 0.805291 0.0236016 0.440861
0.90582 0.1 0.1875 0.80317 0.0247671 0.49579
0.350249 0.1 0.8625 0.895085 0.0112161 0.498845
0.350249 0.1 -0.8625 0.892928 0.0115019 0.447261
0.835106 0.1 -0.4125 0.832144 0.0189606 0.422805
0.835106 0.1 0.4125 0.830061 0.0205136 0.520287
0.714971 0.1 -0.6 0.859718 0.0148295 0.42343
0.714971 0.1 0.6 0.860637 0.0157368 0.524511
0.93886 0.1 -1.15648e-17 0.791932 0.0268417 0.466613
0.075776 0.1 0.9375 0.888827 0.0143326 0.477177
0.075776 0.1 -0.9375 0.888718 0.0144671 0.463724
0.93886 0.1 0.075 0.791995 0.0270526 0.478655
0.93886 0.1 -0.075 0.793141 0.0264475 0.454777
0.756813 0.1 0.5625 0.852763 0.0169315 0.526223
0.756814 0.1 -0.5625 0.852664 0.0157704 0.420841
0.905821 0.1 -0.2625 0.808886 0.022925 0.431044
0.905821 0.1 0.2625 0.806092 0.024533 0.5065
0.287374 0.1 0.9 0.89658 0.0118399 0.493833
0.287374 0.1 -0.903998 0.894735 0.0121143 0.450983
0.871687 0.1 0.375 0.820124 0.0223267 0.518802
0.871687 0.1 -0.375 0.822914 0.0205089 0.422162
0.93886 0.1 -0.15 0.79552 0.0258889 0.443376
0.93886 0.1 0.15 0.793321 0.0270703 0.490641
0.797314 0.1 0.525 0.843941 0.0184479 0.527217
0.797314 0.1 -0.525 0.844903 0.016976 0.418509
0 0.1 0.95701 0.882948 0 0.469472
0 0.1 -0.95701 0.882948 0 0.469472
0.0363518 0.1 0.95701 0.885742 0.00681038 0.473172
0.0363518 0.1 -0.95701 0.885691 0.00687668 0.466717
0.522433 0.1 0.80701 0.88667 0.0119411 0.513644
0.219992 0.1 0.9375 0.897924 0.0125479 0.488465
0.219992 0.1 -0.9375 0.896603 0.0128106 0.455071
0.93886 0.1 0.225 0.795878 0.0268988 0.502336
0.93886 0.1 -0.225 0.798984 0.0251648 0.432564
0.90582 0.1 0.3375 0.810014 0.0241455 0.516617
0.905821 0.1 -0.3375 0.81337 0.022132 0.422056
0.835106 0.1 -0.4875 0.836755 0.0182441 0.41658
0.835107 0.1 0.4875 0.83481 0.0199853 0.527619
0.969689 0.1 -0.0375 0.783555 0.0287924 0.459031
0.969689 0.1 0.0375 0.782867 0.0291641 0.471819
0.61613 0.1 0.75 0.877516 0.0131934 0.522079
0.574156 0.1 -0.7875 0.879851 0.0122637 0.430653
0.574156 0.1 0.7875 0.882937 0.0123737 0.518198
0 0.1 0.975 0.882948 0 0.469472
0 0.1 -0.975 0.882948 0 0.469472
0.623803 0.1 -0.75 0.874787 0.0128525 0.426912
0.969689 0.1 -0.1125 0.785647 0.0282222 0.44664
0.969689 0.1 0.1125 0.783567 0.0293102 0.484684
0.522865 0.1 -0.825 0.884057 0.0118961 0.434343
0.67013 0.1 0.7125 0.87172 0.0140493 0.525526
0.67013 0.1 -0.7125 0.869417 0.0134808 0.423442
0.871687 0.1 -0.45 0.827832 0.0197071 0.415098
0.871687 0.1 0.45 0.824968 0.0217877 0.52714
0.467897 0.1 0.8625 0.891013 0.0113762 0.509351
0.467897 0.1 -0.8625 0.888023 0.0115669 0.438301
0.714971 0.1 -0.675 0.863189 0.0143114 0.420014
0.714971 0.1 0.675 0.864704 0.0151857 0.528497
0.93886 0.1 -0.3 0.803507 0.0242872 0.422534
0.93886 0.1 0.3 0.79959 0.0265436 0.513512
0.150379 0.1 0.975 0.893569 0.0133827 0.482975
0.150379 0.1 -0.975 0.892836 0.013588 0.4591
0.969689 0.1 -0.1875 0.788861 0.027484 0.434825
0.969689 0.1 0.1875 0.785638 0.0292321 0.497369
0.411108 0.1 0.9 0.893571 0.0111703 0.504511
0.756813 0.1 0.6375 0.857302 0.0163529 0.530982
0.756814 0.1 -0.6375 0.856611 0.015188 0.416873
0.990306 0.1 -2.19732e-17 0.778155 0.0301443 0.464647
0 0.1 0.99299 0.882948 0 0.469472
0 0.1 -0.99299 0.882948 0 0.469472
0.411108 0.1 -0.903998 0.890772 0.0114494 0.44216
0.990306 0.1 -0.075 0.779628 0.0296249 0.451667
0.990306 0.1 0.075 0.778145 0.0304376 0.477885
0.0363518 0.1 0.99299 0.885745 0.00679762 0.473177
0.0363518 0.1 -0.99299 0.8857 0.00686258 0.466601
0.90582 0.1 -0.4125 0.818529 0.0212453 0.41408
0.905821 0.1 0.4125 0.814866 0.0236147 0.525982
0.797314 0.1 -0.6 0.849353 0.0163083 0.413925
0.797314 0.1 0.6 0.848887 0.0178379 0.532809
0.350249 0.1 0.9375 0.895866 0.0110041 0.49932
0.350249 0.1 -0.9375 0.893613 0.0113247 0.446291
0.990306 0.1 0.15 0.779578 0.0304911 0.491072
0.990306 0.1 -0.15 0.782426 0.0289211 0.439207
0.969689 0.1 -0.2625 0.793285 0.0265409 0.423687
0.969689 0.1 0.2625 0.789028 0.0289379 0.509626
0.835106 0.1 -0.5625 0.841675 0.0174909 0.4113
0.835106 0.1 0.5625 0.840088 0.0193579 0.534107
0.93886 0.1 -0.375 0.808905 0.0232958 0.413528
0.93886 0.1 0.375 0.804366 0.0260149 0.523959
0.075776 0.1 1.0125 0.888834 0.0143066 0.477187
0.075776 0.1 -1.0125 0.888736 0.0144383 0.463481
0.990306 0.1 -0.225 0.786443 0.0280201 0.427372
0.990306 0.1 0.225 0.782416 0.0303095 0.50395
0.287374 0.1 0.975 0.897145 0.0116772 0.494089
0.287374 0.1 -0.975 0.89532 0.0119837 0.450264
0.871687 0.1 -0.525 0.83318 0.01886 0.409049
0.871687 0.1 0.525 0.830485 0.0211281 0.534596
1.02149 0.1 -0.0369628 0.768291 0.0324745 0.456141
1.02149 0.1 0.0369628 0.767463 0.0329694 0.470014
0.969689 0.1 -0.3375 0.798853 0.0254507 0.41354
0.969689 0.1 0.3375 0.79363 0.0284354 0.521206
1.02149 0.1 -0.110888 0.770684 0.0317467 0.442767
1.02149 0.1 0.110888 0.768181 0.0331989 0.483973
0.90582 0.1 0.4875 0.820538 0.0229398 0.534496
0.90582 0.1 -0.4875 0.82426 0.0203055 0.407172
0.623803 0.1 0.819003 0.879607 0.0128589 0.524442
0 0.1 1.03201 0.882948 0 0.469472
0 0.1 -1.03201 0.882948 0 0.469472
0.0363518 0.1 1.03201 0.885745 0.00679762 0.473177
0.0363518 0.1 -1.03201 0.8857 0.00686258 0.466601
0.67013 0.1 -0.7875 0.872393 0.0130218 0.421117
0.67013 0.1 0.7875 0.875233 0.0135174 0.528099
0.623803 0.1 -0.825 0.877296 0.0124499 0.424947
0.990306 0.1 -0.3 0.791703 0.0269272 0.416394
0.990306 0.1 0.3 0.786578 0.0299005 0.516266
0.219992 0.1 -1.0125 0.896919 0.0127236 0.454533
0.219993 0.1 1.0125 0.898269 0.0124378 0.488546
0.574156 0.1 0.8625 0.885324 0.0119641 0.519711
0.574157 0.1 -0.8625 0.881894 0.0119174 0.428992
0.714971 0.1 -0.75 0.86668 0.0137853 0.417291
0.714971 0.1 0.75 0.868808 0.0145937 0.531723
1.02149 0.1 0.184814 0.770425 0.0331634 0.49776
1.02149 0.1 -0.184814 0.77437 0.0308697 0.430025
0.756814 0.1 -0.7125 0.860607 0.0145951 0.413684
0.756814 0.1 0.7125 0.861965 0.0157118 0.534921
0.522865 0.1 0.9 0.889056 0.0115006 0.515063
0.93886 0.1 -0.45 0.814982 0.0222274 0.405676
0.93886 0.1 0.45 0.810104 0.0253206 0.533535
1.04168 0.1 0 0.761497 0.0344525 0.462129
1.04168 0.1 -0.0729162 0.763177 0.033779 0.448129
1.04168 0.1 0.0729162 0.761402 0.0348598 0.476436
0.522865 0.1 -0.903998 0.885496 0.0116298 0.432975
0.797314 0.1 -0.675 0.853912 0.0156291 0.410209
0.797314 0.1 0.675 0.854087 0.0171459 0.537529
0.467897 0.1 0.9375 0.89248 0.0110773 0.51008
0.467897 0.1 -0.9375 0.889297 0.0113146 0.43715
0 0.1 1.05 0.882948 0 0.469472
0 0.1 -1.05 0.882948 0 0.469472
0.835106 0.1 -0.6375 0.846779 0.0167237 0.406979
0.835106 0.1 0.6375 0.845764 0.0186261 0.539669
1.04168 0.1 -0.145832 0.766336 0.0329155 0.434731
1.04168 0.1 0.145832 0.762871 0.0349861 0.490702
1.02149 0.1 -0.25874 0.779376 0.0297151 0.417896
1.02149 0.1 0.25874 0.774136 0.0328689 0.51111
0.969689 0.1 -0.4125 0.805204 0.0242626 0.404651
0.969689 0.1 0.4125 0.799338 0.0277447 0.531899
0.411108 0.1 0.975 0.894679 0.0109146 0.504959
0.411108 0.1 -0.975 0.891883 0.0112116 0.441232
0.871687 0.1 -0.6 0.838798 0.0179904 0.40405
0.871687 0.1 0.6 0.836517 0.0203576 0.541074
1.0579 0.1 -0.0360525 0.756968 0.0355542 0.453991
1.0579 0.1 0.0360525 0.756026 0.036145 0.468527
0.990306 0.1 -0.375 0.797981 0.0257063 0.40662
0.990306 0.1 0.375 0.791949 0.029279 0.52778
0.150379 0.1 1.05 0.893742 0.0133147 0.482972
0.150379 0.1 -1.05 0.893 0.0135306 0.458755
1.0579 0.1 0.108157 0.756672 0.0364446 0.483159
1.0579 0.1 -0.108157 0.759501 0.0347061 0.439993
1.04168 0.1 -0.218749 0.77083 0.0318275 0.421944
1.04168 0.1 0.218749 0.765867 0.0348348 0.504669
0.90582 0.1 -0.5625 0.830358 0.0193332 0.401407
0.90582 0.1 0.5625 0.826881 0.0221369 0.541957
0 0.1 -1.06799 0.882948 0 0.469472
0 0.1 1.06799 0.882948 0 0.469472
0.0363518 0.1 -1.06799 0.885707 0.00685135 0.466512
0.0363518 0.1 1.06799 0.885747 0.00678469 0.473154
0.350249 0.1 1.0125 0.896615 0.0107927 0.49954
0.350249 0.1 -1.0125 0.894277 0.0111464 0.445552
1.0579 0.1 -0.180262 0.763466 0.033718 0.426673
1.0579 0.1 0.180262 0.758891 0.0364529 0.497635
1.02149 0.1 -0.332665 0.785718 0.028398 0.406912
1.02149 0.1 0.332665 0.779205 0.0323237 0.523768
0.93886 0.1 -0.525 0.82157 0.0211134 0.39905
0.93886 0.1 0.525 0.816664 0.0244739 0.542084
1.08012 0.1 5.49329e-18 0.749141 0.0380572 0.460111
1.04168 0.1 -0.291665 0.776683 0.0304941 0.410031
1.04168 0.1 0.291665 0.770311 0.0344113 0.518073
1.08012 0.1 0.0709941 0.748955 0.0385575 0.475125
1.08012 0.1 -0.0709941 0.750948 0.0372645 0.445424
0.969689 0.1 -0.4875 0.812241 0.0230117 0.397038
0.96969 0.1 0.4875 0.806036 0.0268685 0.541599
1.0579 0.1 0.252367 0.762628 0.0361733 0.511681
1.0579 0.1 -0.252367 0.768743 0.0324086 0.413925
0.990306 0.1 -0.45 0.805036 0.0244029 0.39817
0.990306 0.1 0.45 0.79841 0.0284579 0.538323
0.287374 0.1 -1.05 0.895801 0.0118499 0.449712
0.287374 0.1 1.05 0.89768 0.0115173 0.494148
0.714971 0.1 0.821002 0.872503 0.0140415 0.53414
1.08012 0.1 -0.141988 0.754324 0.0362708 0.431381
1.08012 0.1 0.141988 0.75038 0.0387515 0.490109
0.075776 0.1 1.0875 0.888839 0.0142803 0.477141
0.075776 0.1 -1.0875 0.888751 0.0144155 0.463297
0.714971 0.1 -0.825 0.870123 0.0132599 0.415231
0.756813 0.1 -0.7875 0.864581 0.0140002 0.411247
0.756814 0.1 0.7875 0.866625 0.0150339 0.538019
0.67013 0.1 -0.8625 0.875305 0.0125641 0.419374
0.67013 0.1 0.8625 0.878658 0.0129821 0.52999
0.797314 0.1 -0.75 0.858472 0.0149491 0.407336
0.797314 0.1 0.75 0.859382 0.0163976 0.541341
0.623803 0.1 0.9 0.883329 0.0122497 0.525502
0.835106 0.1 -0.7125 0.851933 0.0159551 0.403602
0.835106 0.1 0.7125 0.851653 0.0178148 0.544266
0.623803 0.1 -0.903998 0.879441 0.0120952 0.423503
0.574156 0.1 0.9375 0.887619 0.0115589 0.520698
0.574156 0.1 -0.9375 0.883875 0.0115728 0.427769
1.02149 0.1 -0.406591 0.79297 0.0269627 0.397395
1.02149 0.1 0.406591 0.785493 0.0315501 0.535488
1.08012 0.1 -0.212982 0.759108 0.035033 0.417956
1.08012 0.1 0.212982 0.753383 0.0386401 0.504807
1.10076 0.1 -0.0349809 0.742481 0.0398983 0.451319
1.10076 0.1 0.0349809 0.741435 0.0406113 0.466682
0.871687 0.1 -0.675 0.844536 0.0171199 0.400096
0.871687 0.1 0.675 0.84288 0.0194902 0.546526
1.04168 0.1 -0.364581 0.783707 0.0290124 0.399485
1.04168 0.1 0.364581 0.776076 0.033731 0.530658
1.10076 0.1 -0.104943 0.745167 0.0388917 0.436521
1.10076 0.1 0.104943 0.742037 0.041005 0.482136
0.522865 0.1 0.975 0.890907 0.0111492 0.515709
0.522865 0.1 -0.975 0.887314 0.0112978 0.431954
1.0579 0.1 -0.324472 0.775418 0.0309078 0.402382