# Force coefficients
# liftDir     : (0.000000e+00 0.000000e+00 1.000000e+00)
# dragDir     : (1.000000e+00 0.000000e+00 0.000000e+00)
# pitchAxis   : (0.000000e+00 1.000000e+00 0.000000e+00)
# magUInf     : 1.000000e+00
# lRef        : 1.000000e+00
# Aref        : 1.000000e+00
# CofR        : (7.500000e+00 0.000000e+00 0.000000e+00)
#
# Time        	Cm            	Cd            	Cl            	Cl(f)         	Cl(r)         
6.0005        	5.140464e-02	1.143247e+01	-2.377745e-02	3.951592e-02	-6.329336e-02
6.001         	5.911895e+01	6.371971e+04	-5.413105e+02	-2.115363e+02	-3.297742e+02
6.0015        	-5.357551e+00	-2.717522e+04	8.875285e+02	4.384067e+02	4.491218e+02
6.002         	-3.517694e+01	-1.374688e+04	-1.537357e+02	-1.120448e+02	-4.169090e+01
6.0025        	-1.489878e+01	-7.897581e+03	3.079396e+01	4.982036e-01	3.029576e+01
6.003         	1.431707e+00	-4.536756e+03	-7.976407e+01	-3.845033e+01	-4.131374e+01
6.0035        	7.164288e-01	-2.776876e+03	-6.372359e+01	-3.114537e+01	-3.257823e+01
6.004         	-1.469743e+00	-1.762507e+03	-1.934298e+01	-1.114123e+01	-8.201745e+00
6.0045        	9.217336e-01	-1.178894e+03	-5.404269e+00	-1.780401e+00	-3.623868e+00
6.005         	5.971458e-02	-8.288032e+02	-2.925437e+00	-1.403004e+00	-1.522433e+00
6.0055        	2.899228e-01	-6.131766e+02	-3.481491e+00	-1.450823e+00	-2.030668e+00
6.006         	1.208246e-01	-4.656676e+02	-2.377368e+00	-1.067859e+00	-1.309509e+00
6.0065        	1.555847e-01	-3.662504e+02	-2.144035e+00	-9.164328e-01	-1.227602e+00
6.007         	1.073238e-01	-2.947966e+02	-1.791948e+00	-7.886501e-01	-1.003298e+00
6.0075        	7.834923e-02	-2.427524e+02	-1.479966e+00	-6.616338e-01	-8.183322e-01
6.008         	8.106969e-02	-2.025547e+02	-1.425509e+00	-6.316848e-01	-7.938242e-01
6.0085        	7.029640e-02	-1.716465e+02	-1.233580e+00	-5.464938e-01	-6.870866e-01
6.009         	6.666521e-02	-1.469773e+02	-1.142639e+00	-5.046541e-01	-6.379845e-01
6.0095        	2.397900e-02	-1.271610e+02	-8.925006e-01	-4.222713e-01	-4.702293e-01
6.01          	4.719701e-02	-1.108054e+02	-8.252429e-01	-3.654244e-01	-4.598184e-01
6.0105        	5.510712e-02	-9.721270e+01	-7.989128e-01	-3.443493e-01	-4.545635e-01
6.011         	5.643860e-02	-8.583903e+01	-7.353600e-01	-3.112414e-01	-4.241186e-01
6.0115        	5.489444e-02	-7.630523e+01	-6.349924e-01	-2.626018e-01	-3.723907e-01
6.012         	4.758425e-02	-6.812627e+01	-5.182560e-01	-2.115438e-01	-3.067123e-01
6.0125        	3.841025e-02	-6.113285e+01	-4.840010e-01	-2.035903e-01	-2.804108e-01
6.013         	2.895770e-02	-5.510777e+01	-4.670745e-01	-2.045796e-01	-2.624950e-01
6.0135        	3.146246e-02	-4.987540e+01	-4.418581e-01	-1.894666e-01	-2.523915e-01
6.014         	4.045794e-02	-4.527048e+01	-4.019610e-01	-1.605226e-01	-2.414384e-01
6.0145        	3.712828e-02	-4.119699e+01	-3.862384e-01	-1.559909e-01	-2.302475e-01
6.015         	3.206056e-02	-3.761121e+01	-3.731438e-01	-1.545114e-01	-2.186325e-01
6.0155        	3.303405e-02	-3.445100e+01	-3.480986e-01	-1.410152e-01	-2.070833e-01
6.016         	3.380098e-02	-3.162569e+01	-3.166612e-01	-1.245296e-01	-1.921316e-01
6.0165        	3.033455e-02	-2.910763e+01	-2.955056e-01	-1.174182e-01	-1.780874e-01
6.017         	2.420567e-02	-2.684646e+01	-2.787343e-01	-1.151615e-01	-1.635728e-01
6.0175        	2.160732e-02	-2.481164e+01	-2.592476e-01	-1.080165e-01	-1.512311e-01
6.018         	2.117972e-02	-2.296979e+01	-2.430352e-01	-1.003379e-01	-1.426973e-01
6.0185        	2.709064e-02	-2.129998e+01	-2.274777e-01	-8.664823e-02	-1.408295e-01
6.019         	2.587258e-02	-1.978119e+01	-2.273532e-01	-8.780402e-02	-1.395492e-01
6.0195        	2.247773e-02	-1.839635e+01	-2.266861e-01	-9.086530e-02	-1.358208e-01
6.02          	1.680329e-02	-1.712812e+01	-2.239292e-01	-9.516131e-02	-1.287679e-01
6.0205        	1.370283e-02	-1.596839e+01	-2.122895e-01	-9.244191e-02	-1.198476e-01
6.021         	1.077256e-02	-1.491168e+01	-2.144422e-01	-9.644852e-02	-1.179936e-01
6.0215        	1.065165e-02	-1.393952e+01	-2.150274e-01	-9.686206e-02	-1.181654e-01
6.022         	1.183923e-02	-1.304562e+01	-1.960741e-01	-8.619784e-02	-1.098763e-01
6.0225        	1.283265e-02	-1.221508e+01	-1.871374e-01	-8.073602e-02	-1.064013e-01
6.023         	1.593443e-02	-1.144621e+01	-1.815516e-01	-7.484137e-02	-1.067102e-01
6.0235        	2.049606e-02	-1.073044e+01	-1.700855e-01	-6.454669e-02	-1.055388e-01
6.024         	2.001218e-02	-1.006583e+01	-1.705367e-01	-6.525615e-02	-1.052805e-01
6.0245        	1.718632e-02	-9.444673e+00	-1.693923e-01	-6.750982e-02	-1.018825e-01
6.025         	1.529931e-02	-8.871242e+00	-1.666072e-01	-6.800430e-02	-9.860291e-02
6.0255        	1.489823e-02	-8.332994e+00	-1.643172e-01	-6.726036e-02	-9.705681e-02
6.026         	1.447267e-02	-7.830233e+00	-1.639709e-01	-6.751275e-02	-9.645810e-02
6.0265        	1.475952e-02	-7.356724e+00	-1.597771e-01	-6.512901e-02	-9.464805e-02
6.027         	1.412871e-02	-6.922912e+00	-1.557470e-01	-6.374480e-02	-9.200222e-02
6.0275        	1.425807e-02	-6.510046e+00	-1.495681e-01	-6.052599e-02	-8.904214e-02
6.028         	1.578938e-02	-6.124926e+00	-1.428024e-01	-5.561184e-02	-8.719060e-02
6.0285        	1.707683e-02	-5.760338e+00	-1.406371e-01	-5.324174e-02	-8.739540e-02
6.029         	1.808881e-02	-5.422127e+00	-1.338318e-01	-4.882711e-02	-8.500473e-02
6.0295        	1.882147e-02	-5.102819e+00	-1.280106e-01	-4.518381e-02	-8.282675e-02
6.03          	1.820122e-02	-4.804408e+00	-1.304032e-01	-4.700038e-02	-8.340283e-02
6.0305        	1.598190e-02	-4.519833e+00	-1.331764e-01	-5.060632e-02	-8.257012e-02
6.031         	1.471641e-02	-4.252461e+00	-1.320249e-01	-5.129603e-02	-8.072885e-02
6.0315        	1.441806e-02	-4.000106e+00	-1.286038e-01	-4.988386e-02	-7.871997e-02
6.032         	1.470208e-02	-3.763220e+00	-1.265735e-01	-4.858467e-02	-7.798883e-02
6.0325        	1.366634e-02	-3.536359e+00	-1.270091e-01	-4.983822e-02	-7.717089e-02
6.033         	1.299674e-02	-3.322873e+00	-1.246561e-01	-4.933129e-02	-7.532477e-02
6.0335        	1.395620e-02	-3.120385e+00	-1.206923e-01	-4.638997e-02	-7.430237e-02
6.034         	1.408037e-02	-2.929087e+00	-1.177804e-01	-4.480984e-02	-7.297058e-02
6.0345        	1.386872e-02	-2.745949e+00	-1.164584e-01	-4.436048e-02	-7.209793e-02
6.035         	1.356035e-02	-2.570186e+00	-1.164702e-01	-4.467476e-02	-7.179547e-02
6.0355        	1.217494e-02	-2.404771e+00	-1.190809e-01	-4.736553e-02	-7.171540e-02
6.036         	1.202911e-02	-2.247457e+00	-1.176041e-01	-4.677292e-02	-7.083115e-02
6.0365        	1.174076e-02	-2.098220e+00	-1.149238e-01	-4.572114e-02	-6.920265e-02
6.037         	1.187140e-02	-1.954916e+00	-1.139201e-01	-4.508866e-02	-6.883147e-02
6.0375        	1.137079e-02	-1.819564e+00	-1.129474e-01	-4.510292e-02	-6.784450e-02
6.038         	1.016510e-02	-1.690589e+00	-1.156603e-01	-4.766505e-02	-6.799526e-02
6.0385        	9.328822e-03	-1.566765e+00	-1.155396e-01	-4.844099e-02	-6.709863e-02
6.039         	9.817739e-03	-1.448980e+00	-1.123689e-01	-4.636671e-02	-6.600219e-02
6.0395        	1.059916e-02	-1.336160e+00	-1.067513e-01	-4.277649e-02	-6.397480e-02
6.04          	1.078319e-02	-1.229309e+00	-1.047212e-01	-4.157740e-02	-6.314378e-02
6.0405        	9.885514e-03	-1.127217e+00	-1.066264e-01	-4.342769e-02	-6.319871e-02
6.041         	9.200705e-03	-1.029166e+00	-1.088785e-01	-4.523856e-02	-6.363997e-02
6.0415        	8.730407e-03	-9.327854e-01	-1.088632e-01	-4.570120e-02	-6.316202e-02
6.042         	9.029128e-03	-8.426171e-01	-1.063663e-01	-4.415401e-02	-6.221227e-02
6.0425        	9.215979e-03	-7.551987e-01	-1.044230e-01	-4.299552e-02	-6.142748e-02
6.043         	9.401126e-03	-6.701669e-01	-1.040705e-01	-4.263411e-02	-6.143636e-02
6.0435        	7.924420e-03	-5.903260e-01	-1.054734e-01	-4.481229e-02	-6.066112e-02
6.044         	7.732617e-03	-5.144335e-01	-1.051743e-01	-4.485451e-02	-6.031974e-02
6.0445        	7.967887e-03	-4.412915e-01	-1.033274e-01	-4.369583e-02	-5.963160e-02
6.045         	8.682630e-03	-3.701643e-01	-1.009414e-01	-4.178809e-02	-5.915335e-02
6.0455        	8.730598e-03	-3.020873e-01	-1.001334e-01	-4.133611e-02	-5.879730e-02
6.046         	8.451194e-03	-2.376490e-01	-9.979184e-02	-4.144473e-02	-5.834712e-02
6.0465        	7.603303e-03	-1.763386e-01	-1.003300e-01	-4.256171e-02	-5.776832e-02
6.047         	7.491681e-03	-1.166483e-01	-9.998959e-02	-4.250311e-02	-5.748648e-02
6.0475        	7.088137e-03	-5.842807e-02	-9.924691e-02	-4.253532e-02	-5.671159e-02
6.048         	6.351730e-03	-3.219971e-03	-9.941145e-02	-4.335399e-02	-5.605745e-02
6.0485        	5.826322e-03	5.007044e-02	-9.950010e-02	-4.392373e-02	-5.557637e-02
6.049         	6.067370e-03	1.008007e-01	-9.800879e-02	-4.293703e-02	-5.507177e-02
6.0495        	5.853823e-03	1.492507e-01	-9.523214e-02	-4.176224e-02	-5.346989e-02
6.05          	5.866113e-03	1.952188e-01	-9.340674e-02	-4.083726e-02	-5.256949e-02
6.0505        	5.156749e-03	2.407608e-01	-9.376108e-02	-4.172379e-02	-5.203729e-02
6.051         	4.557570e-03	2.836071e-01	-9.473207e-02	-4.280847e-02	-5.192361e-02
6.0515        	3.807852e-03	3.259407e-01	-9.390382e-02	-4.314406e-02	-5.075976e-02
6.052         	3.694815e-03	3.666186e-01	-9.374693e-02	-4.317865e-02	-5.056828e-02
6.0525        	3.437557e-03	4.057064e-01	-9.395629e-02	-4.354059e-02	-5.041570e-02
6.053         	3.413364e-03	4.437552e-01	-9.300144e-02	-4.308736e-02	-4.991408e-02
6.0535        	3.253240e-03	4.806547e-01	-9.134055e-02	-4.241703e-02	-4.892352e-02
6.054         	3.229853e-03	5.149513e-01	-9.044561e-02	-4.199295e-02	-4.845266e-02
6.0545        	2.668798e-03	5.480861e-01	-9.074316e-02	-4.270278e-02	-4.804038e-02
6.055         	2.724516e-03	5.805716e-01	-8.968582e-02	-4.211839e-02	-4.756742e-02
6.0555        	2.692020e-03	6.116540e-01	-8.864689e-02	-4.163143e-02	-4.701547e-02
6.056         	2.624932e-03	6.419768e-01	-8.750194e-02	-4.112604e-02	-4.637590e-02
6.0565        	2.270711e-03	6.708127e-01	-8.736525e-02	-4.141192e-02	-4.595334e-02
6.057         	1.992957e-03	6.992216e-01	-8.809842e-02	-4.205625e-02	-4.604217e-02
6.0575        	1.283668e-03	7.256986e-01	-8.831516e-02	-4.287391e-02	-4.544125e-02
6.058         	7.821368e-04	7.518120e-01	-8.856909e-02	-4.350241e-02	-4.506668e-02
6.0585        	7.696292e-04	7.770357e-01	-8.816050e-02	-4.331062e-02	-4.484988e-02
6.059         	8.053586e-04	8.013034e-01	-8.782995e-02	-4.310962e-02	-4.472034e-02
6.0595        	8.902468e-04	8.242837e-01	-8.722062e-02	-4.272006e-02	-4.450056e-02
6.06          	9.528853e-04	8.470117e-01	-8.645238e-02	-4.227331e-02	-4.417908e-02
6.0605        	8.913190e-04	8.691213e-01	-8.595510e-02	-4.208623e-02	-4.386887e-02
6.061         	5.819145e-04	8.910691e-01	-8.597823e-02	-4.240720e-02	-4.357103e-02
6.0615        	7.007716e-04	9.120911e-01	-8.508297e-02	-4.184071e-02	-4.324225e-02
6.062         	5.885886e-04	9.321332e-01	-8.452813e-02	-4.167547e-02	-4.285265e-02
6.0625        	1.137128e-04	9.516358e-01	-8.568428e-02	-4.272843e-02	-4.295585e-02
6.063         	-6.002340e-04	9.705343e-01	-8.665039e-02	-4.392543e-02	-4.272496e-02
6.0635        	-1.116297e-03	9.892172e-01	-8.711703e-02	-4.467481e-02	-4.244222e-02
6.064         	-1.080129e-03	1.006478e+00	-8.584696e-02	-4.400361e-02	-4.184335e-02
6.0645        	-9.747364e-04	1.023842e+00	-8.482474e-02	-4.338711e-02	-4.143763e-02
6.065         	-1.137393e-03	1.039719e+00	-8.481393e-02	-4.354436e-02	-4.126957e-02
6.0655        	-1.623188e-03	1.056178e+00	-8.511278e-02	-4.417958e-02	-4.093320e-02
6.066         	-1.672450e-03	1.071674e+00	-8.504191e-02	-4.419340e-02	-4.084850e-02
6.0665        	-1.893820e-03	1.087672e+00	-8.407867e-02	-4.393315e-02	-4.014551e-02
6.067         	-2.093236e-03	1.101714e+00	-8.386977e-02	-4.402812e-02	-3.984165e-02
6.0675        	-2.696315e-03	1.115965e+00	-8.419834e-02	-4.479549e-02	-3.940286e-02
6.068         	-2.798847e-03	1.129195e+00	-8.439176e-02	-4.499473e-02	-3.939703e-02
6.0685        	-3.136818e-03	1.142868e+00	-8.500669e-02	-4.564016e-02	-3.936653e-02
6.069         	-3.241103e-03	1.155234e+00	-8.539290e-02	-4.593755e-02	-3.945535e-02
6.0695        	-3.564822e-03	1.168114e+00	-8.523589e-02	-4.618277e-02	-3.905312e-02
6.07          	-3.238114e-03	1.180066e+00	-8.431981e-02	-4.539802e-02	-3.892179e-02
6.0705        	-3.267932e-03	1.191599e+00	-8.325344e-02	-4.489465e-02	-3.835879e-02
6.071         	-2.960897e-03	1.202613e+00	-8.278579e-02	-4.435379e-02	-3.843200e-02
6.0715        	-3.468768e-03	1.213749e+00	-8.354016e-02	-4.523885e-02	-3.830131e-02
6.072         	-3.555332e-03	1.224824e+00	-8.357559e-02	-4.534312e-02	-3.823246e-02
6.0725        	-3.920466e-03	1.234953e+00	-8.328750e-02	-4.556422e-02	-3.772328e-02
6.073         	-3.778490e-03	1.244753e+00	-8.202810e-02	-4.479254e-02	-3.723556e-02
6.0735        	-4.015250e-03	1.255151e+00	-8.218819e-02	-4.510934e-02	-3.707884e-02
6.074         	-4.293107e-03	1.264164e+00	-8.323228e-02	-4.590925e-02	-3.732303e-02
6.0745        	-4.538949e-03	1.273226e+00	-8.366765e-02	-4.637277e-02	-3.729488e-02
6.075         	-4.442131e-03	1.281028e+00	-8.372879e-02	-4.630653e-02	-3.742226e-02
6.0755        	-4.405910e-03	1.290410e+00	-8.283901e-02	-4.582541e-02	-3.701359e-02
6.076         	-4.515419e-03	1.297646e+00	-8.265140e-02	-4.584112e-02	-3.681028e-02
6.0765        	-4.560997e-03	1.306282e+00	-8.187577e-02	-4.549888e-02	-3.637689e-02
6.077         	-4.740406e-03	1.313329e+00	-8.166001e-02	-4.557041e-02	-3.608960e-02
6.0775        	-4.582782e-03	1.321682e+00	-8.109261e-02	-4.512909e-02	-3.596352e-02
6.078         	-4.920229e-03	1.328138e+00	-8.260227e-02	-4.622136e-02	-3.638091e-02
6.0785        	-4.865384e-03	1.335452e+00	-8.208925e-02	-4.591001e-02	-3.617924e-02
6.079         	-5.081933e-03	1.341180e+00	-8.261830e-02	-4.639109e-02	-3.622722e-02
6.0795        	-5.255356e-03	1.348323e+00	-8.203504e-02	-4.627287e-02	-3.576216e-02
6.08          	-5.670028e-03	1.353641e+00	-8.272240e-02	-4.703123e-02	-3.569117e-02
6.0805        	-5.737153e-03	1.359927e+00	-8.267166e-02	-4.707298e-02	-3.559868e-02
6.081         	-5.893125e-03	1.364563e+00	-8.232010e-02	-4.705317e-02	-3.526693e-02
6.0815        	-5.525067e-03	1.370754e+00	-8.067142e-02	-4.586078e-02	-3.481064e-02
6.082         	-5.364833e-03	1.376024e+00	-7.992975e-02	-4.532971e-02	-3.460004e-02
6.0825        	-5.384236e-03	1.381707e+00	-7.980704e-02	-4.528775e-02	-3.451928e-02
6.083         	-5.824373e-03	1.386319e+00	-8.133854e-02	-4.649364e-02	-3.484490e-02
6.0835        	-5.866634e-03	1.391109e+00	-8.091127e-02	-4.632227e-02	-3.458900e-02
6.084         	-5.876874e-03	1.394832e+00	-8.018486e-02	-4.596930e-02	-3.421556e-02
6.0845        	-6.193197e-03	1.400148e+00	-8.100986e-02	-4.669812e-02	-3.431173e-02
6.085         	-6.576670e-03	1.403954e+00	-8.158633e-02	-4.736983e-02	-3.421649e-02
6.0855        	-6.574859e-03	1.408257e+00	-8.091904e-02	-4.703438e-02	-3.388466e-02
6.086         	-6.718461e-03	1.411944e+00	-8.072139e-02	-4.707916e-02	-3.364224e-02
6.0865        	-6.614147e-03	1.416359e+00	-8.079717e-02	-4.701273e-02	-3.378444e-02
6.087         	-6.874802e-03	1.419649e+00	-8.077364e-02	-4.726162e-02	-3.351202e-02
6.0875        	-6.681161e-03	1.423617e+00	-8.048112e-02	-4.692172e-02	-3.355940e-02
6.088         	-6.969473e-03	1.426600e+00	-8.051085e-02	-4.722490e-02	-3.328595e-02
6.0885        	-6.718119e-03	1.431455e+00	-8.048356e-02	-4.695990e-02	-3.352366e-02
6.089         	-6.757049e-03	1.434963e+00	-8.011675e-02	-4.681542e-02	-3.330133e-02
6.0895        	-6.480746e-03	1.438928e+00	-7.931072e-02	-4.613610e-02	-3.317461e-02
6.09          	-6.872714e-03	1.441202e+00	-8.016175e-02	-4.695359e-02	-3.320816e-02
6.0905        	-7.267476e-03	1.444608e+00	-8.059696e-02	-4.756596e-02	-3.303100e-02
6.091         	-7.385071e-03	1.446577e+00	-8.059362e-02	-4.768188e-02	-3.291174e-02
6.0915        	-7.223379e-03	1.450146e+00	-8.020087e-02	-4.732381e-02	-3.287705e-02
6.092         	-7.374972e-03	1.452562e+00	-8.052600e-02	-4.763797e-02	-3.288803e-02
6.0925        	-6.984754e-03	1.456089e+00	-7.959276e-02	-4.678113e-02	-3.281162e-02
6.093         	-7.358258e-03	1.458023e+00	-7.991140e-02	-4.731396e-02	-3.259744e-02
6.0935        	-7.110328e-03	1.460661e+00	-7.867485e-02	-4.644775e-02	-3.222710e-02
6.094         	-7.579525e-03	1.461538e+00	-7.933649e-02	-4.724777e-02	-3.208872e-02
6.0945        	-7.350573e-03	1.463750e+00	-7.912756e-02	-4.691436e-02	-3.221321e-02
6.095         	-7.619148e-03	1.465414e+00	-8.017319e-02	-4.770574e-02	-3.246745e-02
6.0955        	-7.235399e-03	1.468884e+00	-7.981644e-02	-4.714362e-02	-3.267282e-02
6.096         	-7.403229e-03	1.470796e+00	-7.954037e-02	-4.717341e-02	-3.236695e-02
6.0965        	-7.233653e-03	1.473384e+00	-7.896313e-02	-4.671522e-02	-3.224791e-02
6.097         	-7.622313e-03	1.474081e+00	-7.939605e-02	-4.732034e-02	-3.207571e-02
6.0975        	-7.477437e-03	1.475713e+00	-7.899696e-02	-4.697592e-02	-3.202105e-02
6.098         	-7.426850e-03	1.476033e+00	-7.891740e-02	-4.688555e-02	-3.203185e-02
6.0985        	-7.434747e-03	1.479143e+00	-7.898515e-02	-4.692732e-02	-3.205783e-02
6.099         	-7.325929e-03	1.480524e+00	-7.866100e-02	-4.665643e-02	-3.200457e-02
6.0995        	-7.302815e-03	1.483317e+00	-7.861895e-02	-4.661229e-02	-3.200666e-02
6.1           	-7.329147e-03	1.483885e+00	-7.792582e-02	-4.629206e-02	-3.163377e-02
6.1005        	-7.389967e-03	1.485854e+00	-7.815373e-02	-4.646683e-02	-3.168690e-02
6.101         	-7.467779e-03	1.486009e+00	-7.806750e-02	-4.650153e-02	-3.156597e-02
6.1015        	-7.462570e-03	1.487886e+00	-7.862732e-02	-4.677623e-02	-3.185109e-02
6.102         	-7.721884e-03	1.488591e+00	-7.949318e-02	-4.746847e-02	-3.202470e-02
6.1025        	-7.431261e-03	1.490657e+00	-7.883423e-02	-4.684837e-02	-3.198585e-02
6.103         	-7.852527e-03	1.491322e+00	-7.974659e-02	-4.772582e-02	-3.202077e-02
6.1035        	-7.686053e-03	1.492878e+00	-7.975676e-02	-4.756443e-02	-3.219233e-02
6.104         	-8.160071e-03	1.492868e+00	-7.987494e-02	-4.809754e-02	-3.177740e-02
6.1045        	-7.841145e-03	1.493959e+00	-7.887719e-02	-4.727974e-02	-3.159745e-02
6.105         	-8.114623e-03	1.494066e+00	-7.877755e-02	-4.750340e-02	-3.127415e-02
6.1055        	-7.720610e-03	1.495644e+00	-7.846547e-02	-4.695335e-02	-3.151213e-02
6.106         	-7.946495e-03	1.496805e+00	-7.877976e-02	-4.733638e-02	-3.144339e-02
6.1065        	-7.435142e-03	1.497910e+00	-7.826557e-02	-4.656793e-02	-3.169764e-02
6.107         	-7.888027e-03	1.498415e+00	-7.922073e-02	-4.749839e-02	-3.172234e-02
6.1075        	-7.666526e-03	1.498297e+00	-7.861335e-02	-4.697320e-02	-3.164015e-02
6.108         	-7.978683e-03	1.498318e+00	-7.879902e-02	-4.737819e-02	-3.142083e-02
6.1085        	-8.018617e-03	1.498311e+00	-7.887319e-02	-4.745521e-02	-3.141798e-02
6.109         	-8.052906e-03	1.499870e+00	-7.863339e-02	-4.736960e-02	-3.126379e-02
6.1095        	-7.867574e-03	1.501015e+00	-7.837475e-02	-4.705495e-02	-3.131980e-02
6.11          	-7.802826e-03	1.502405e+00	-7.793598e-02	-4.677082e-02	-3.116516e-02
6.1105        	-7.805080e-03	1.502430e+00	-7.836897e-02	-4.698956e-02	-3.137940e-02
6.111         	-7.817165e-03	1.502913e+00	-7.793650e-02	-4.678542e-02	-3.115109e-02
6.1115        	-8.205708e-03	1.502376e+00	-7.851233e-02	-4.746187e-02	-3.105046e-02
6.112         	-8.120131e-03	1.503203e+00	-7.832563e-02	-4.728294e-02	-3.104268e-02
6.1125        	-8.251488e-03	1.503589e+00	-7.870204e-02	-4.760251e-02	-3.109953e-02
6.113         	-7.863940e-03	1.505452e+00	-7.797432e-02	-4.685110e-02	-3.112322e-02
6.1135        	-7.676648e-03	1.505862e+00	-7.747672e-02	-4.641501e-02	-3.106171e-02
6.114         	-7.796591e-03	1.505731e+00	-7.757441e-02	-4.658380e-02	-3.099061e-02
6.1145        	-7.943743e-03	1.504873e+00	-7.702164e-02	-4.645456e-02	-3.056708e-02
6.115         	-8.169990e-03	1.504392e+00	-7.692457e-02	-4.663228e-02	-3.029230e-02
6.1155        	-8.092954e-03	1.504920e+00	-7.702911e-02	-4.660751e-02	-3.042160e-02
6.116         	-8.011933e-03	1.505903e+00	-7.699463e-02	-4.650925e-02	-3.048538e-02
6.1165        	-8.046376e-03	1.506643e+00	-7.722761e-02	-4.666018e-02	-3.056743e-02
6.117         	-7.969968e-03	1.506460e+00	-7.713826e-02	-4.653910e-02	-3.059916e-02
6.1175        	-8.220005e-03	1.506008e+00	-7.711537e-02	-4.677769e-02	-3.033768e-02
6.118         	-7.930192e-03	1.505038e+00	-7.613627e-02	-4.599832e-02	-3.013794e-02
6.1185        	-8.184882e-03	1.505268e+00	-7.634380e-02	-4.635678e-02	-2.998702e-02
6.119         	-7.740990e-03	1.504916e+00	-7.532981e-02	-4.540590e-02	-2.992392e-02
6.1195        	-8.189238e-03	1.506326e+00	-7.668167e-02	-4.653007e-02	-3.015160e-02
6.12          	-7.849616e-03	1.505511e+00	-7.649540e-02	-4.609731e-02	-3.039808e-02
6.1205        	-8.382357e-03	1.506302e+00	-7.712812e-02	-4.694642e-02	-3.018170e-02
6.121         	-7.930345e-03	1.504419e+00	-7.642194e-02	-4.614132e-02	-3.028063e-02
6.1215        	-8.487996e-03	1.504632e+00	-7.713574e-02	-4.705587e-02	-3.007987e-02
6.122         	-8.232621e-03	1.503614e+00	-7.643010e-02	-4.644767e-02	-2.998243e-02
6.1225        	-8.807996e-03	1.505252e+00	-7.751536e-02	-4.756567e-02	-2.994968e-02
6.123         	-8.011802e-03	1.504919e+00	-7.610482e-02	-4.606421e-02	-3.004061e-02
6.1235        	-8.414616e-03	1.506640e+00	-7.651905e-02	-4.667414e-02	-2.984491e-02
6.124         	-7.856198e-03	1.505065e+00	-7.534652e-02	-4.552946e-02	-2.981706e-02
6.1245        	-8.573104e-03	1.505022e+00	-7.624252e-02	-4.669437e-02	-2.954816e-02
6.125         	-7.936877e-03	1.503126e+00	-7.533821e-02	-4.560598e-02	-2.973223e-02
6.1255        	-8.607426e-03	1.504259e+00	-7.655995e-02	-4.688740e-02	-2.967255e-02
6.126         	-8.273969e-03	1.503900e+00	-7.621933e-02	-4.638363e-02	-2.983569e-02
6.1265        	-8.388844e-03	1.505311e+00	-7.569030e-02	-4.623400e-02	-2.945631e-02
6.127         	-7.996875e-03	1.504337e+00	-7.517251e-02	-4.558313e-02	-2.958938e-02
6.1275        	-8.269176e-03	1.504505e+00	-7.515879e-02	-4.584857e-02	-2.931022e-02
6.128         	-8.150962e-03	1.502645e+00	-7.454643e-02	-4.542417e-02	-2.912225e-02
6.1285        	-8.650430e-03	1.502329e+00	-7.523475e-02	-4.626781e-02	-2.896694e-02
6.129         	-8.702405e-03	1.501237e+00	-7.560923e-02	-4.650702e-02	-2.910221e-02
6.1295        	-8.721289e-03	1.502384e+00	-7.533653e-02	-4.638955e-02	-2.894698e-02
6.13          	-8.627604e-03	1.502782e+00	-7.521445e-02	-4.623483e-02	-2.897962e-02
6.1305        	-8.508507e-03	1.503101e+00	-7.487244e-02	-4.594473e-02	-2.892772e-02
6.131         	-8.626530e-03	1.502220e+00	-7.492326e-02	-4.608816e-02	-2.883510e-02
6.1315        	-8.485447e-03	1.501225e+00	-7.440222e-02	-4.568656e-02	-2.871566e-02
6.132         	-8.777907e-03	1.500057e+00	-7.475931e-02	-4.615756e-02	-2.860175e-02
6.1325        	-8.574674e-03	1.499679e+00	-7.400929e-02	-4.557932e-02	-2.842997e-02
6.133         	-8.837705e-03	1.499894e+00	-7.430221e-02	-4.598881e-02	-2.831340e-02
6.1335        	-8.485282e-03	1.500101e+00	-7.339478e-02	-4.518267e-02	-2.821211e-02
6.134         	-8.400961e-03	1.500008e+00	-7.349298e-02	-4.514745e-02	-2.834553e-02
6.1345        	-8.202458e-03	1.499457e+00	-7.305485e-02	-4.472988e-02	-2.832497e-02
6.135         	-8.338150e-03	1.498020e+00	-7.330263e-02	-4.498947e-02	-2.831317e-02
6.1355        	-8.725359e-03	1.497357e+00	-7.393930e-02	-4.569501e-02	-2.824429e-02
6.136         	-8.639342e-03	1.496911e+00	-7.347269e-02	-4.537569e-02	-2.809701e-02
6.1365        	-8.820251e-03	1.497443e+00	-7.385188e-02	-4.574619e-02	-2.810569e-02
6.137         	-8.466509e-03	1.497662e+00	-7.308951e-02	-4.501126e-02	-2.807825e-02
6.1375        	-8.488419e-03	1.497727e+00	-7.312053e-02	-4.504868e-02	-2.807184e-02
6.138         	-8.473245e-03	1.496954e+00	-7.294402e-02	-4.494525e-02	-2.799876e-02
6.1385        	-8.653532e-03	1.495836e+00	-7.289702e-02	-4.510204e-02	-2.779498e-02
6.139         	-8.867229e-03	1.494759e+00	-7.306968e-02	-4.540207e-02	-2.766761e-02
6.1395        	-8.875760e-03	1.494256e+00	-7.247823e-02	-4.511488e-02	-2.736336e-02
6.14          	-8.701250e-03	1.494773e+00	-7.213537e-02	-4.476893e-02	-2.736643e-02
6.1405        	-8.405182e-03	1.495073e+00	-7.146345e-02	-4.413691e-02	-2.732654e-02
6.141         	-8.383549e-03	1.495195e+00	-7.114186e-02	-4.395448e-02	-2.718738e-02
6.1415        	-8.420923e-03	1.494105e+00	-7.101224e-02	-4.392704e-02	-2.708520e-02
6.142         	-8.850314e-03	1.492897e+00	-7.207272e-02	-4.488668e-02	-2.718605e-02
6.1425        	-9.010556e-03	1.491374e+00	-7.215763e-02	-4.508937e-02	-2.706826e-02
6.143         	-9.196963e-03	1.490975e+00	-7.207806e-02	-4.523599e-02	-2.684207e-02
6.1435        	-8.846853e-03	1.491019e+00	-7.129843e-02	-4.449607e-02	-2.680236e-02
6.144         	-8.709523e-03	1.491628e+00	-7.109208e-02	-4.425556e-02	-2.683652e-02
6.1445        	-8.486530e-03	1.491187e+00	-7.032819e-02	-4.365062e-02	-2.667756e-02
6.145         	-8.661210e-03	1.490517e+00	-7.028911e-02	-4.380576e-02	-2.648334e-02
6.1455        	-8.882493e-03	1.488893e+00	-7.045429e-02	-4.410964e-02	-2.634465e-02
6.146         	-9.140382e-03	1.487738e+00	-7.074323e-02	-4.451200e-02	-2.623123e-02
6.1465        	-9.004317e-03	1.487632e+00	-7.054355e-02	-4.427609e-02	-2.626746e-02
6.147         	-8.662105e-03	1.487900e+00	-6.921333e-02	-4.326877e-02	-2.594456e-02
6.1475        	-8.541879e-03	1.488074e+00	-6.916273e-02	-4.312325e-02	-2.603949e-02
6.148         	-8.303092e-03	1.487744e+00	-6.843682e-02	-4.252150e-02	-2.591532e-02
6.1485        	-8.552988e-03	1.486794e+00	-6.853211e-02	-4.281904e-02	-2.571307e-02
6.149         	-8.864071e-03	1.484955e+00	-6.873173e-02	-4.322993e-02	-2.550179e-02
6.1495        	-9.003412e-03	1.483921e+00	-6.862431e-02	-4.331557e-02	-2.530874e-02
6.15          	-8.951412e-03	1.483333e+00	-6.852577e-02	-4.321430e-02	-2.531147e-02
6.1505        	-8.842343e-03	1.483832e+00	-6.863872e-02	-4.316170e-02	-2.547702e-02
6.151         	-8.692840e-03	1.483947e+00	-6.828282e-02	-4.283425e-02	-2.544857e-02
6.1515        	-8.778655e-03	1.483656e+00	-6.867164e-02	-4.311448e-02	-2.555717e-02
6.152         	-8.796391e-03	1.482660e+00	-6.804049e-02	-4.281663e-02	-2.522385e-02
6.1525        	-9.286526e-03	1.480904e+00	-6.829769e-02	-4.343537e-02	-2.486232e-02
6.153         	-9.256309e-03	1.480005e+00	-6.831808e-02	-4.341535e-02	-2.490273e-02
6.1535        	-9.232973e-03	1.479721e+00	-6.846230e-02	-4.346412e-02	-2.499818e-02
6.154         	-8.999040e-03	1.479836e+00	-6.834672e-02	-4.317240e-02	-2.517432e-02
6.1545        	-9.029131e-03	1.480257e+00	-6.819702e-02	-4.312764e-02	-2.506938e-02
6.155         	-8.957572e-03	1.479904e+00	-6.799343e-02	-4.295429e-02	-2.503914e-02
6.1555        	-9.232549e-03	1.479153e+00	-6.799324e-02	-4.322917e-02	-2.476407e-02
6.156         	-9.442058e-03	1.477417e+00	-6.833402e-02	-4.360907e-02	-2.472495e-02
6.1565        	-9.863055e-03	1.476860e+00	-6.907984e-02	-4.440298e-02	-2.467687e-02
6.157         	-9.379284e-03	1.476101e+00	-6.830082e-02	-4.352969e-02	-2.477112e-02
6.1575        	-9.284960e-03	1.476786e+00	-6.801674e-02	-4.329333e-02	-2.472341e-02
6.158         	-8.800670e-03	1.476757e+00	-6.671730e-02	-4.215932e-02	-2.455798e-02
6.1585        	-8.813564e-03	1.476898e+00	-6.633359e-02	-4.198036e-02	-2.435323e-02
6.159         	-8.732272e-03	1.475855e+00	-6.562140e-02	-4.154297e-02	-2.407843e-02
6.1595        	-9.217116e-03	1.474720e+00	-6.642525e-02	-4.242974e-02	-2.399551e-02
6.16          	-9.109632e-03	1.472971e+00	-6.562488e-02	-4.192207e-02	-2.370281e-02
6.1605        	-9.223962e-03	1.472732e+00	-6.596999e-02	-4.220896e-02	-2.376103e-02
6.161         	-8.772476e-03	1.472482e+00	-6.534232e-02	-4.144364e-02	-2.389869e-02
6.1615        	-8.718226e-03	1.473298e+00	-6.503538e-02	-4.123592e-02	-2.379946e-02
6.162         	-8.533036e-03	1.472772e+00	-6.471465e-02	-4.089036e-02	-2.382429e-02
6.1625        	-8.881247e-03	1.471909e+00	-6.544968e-02	-4.160609e-02	-2.384359e-02
6.163         	-9.011769e-03	1.470195e+00	-6.491508e-02	-4.146931e-02	-2.344577e-02
6.1635        	-9.176803e-03	1.469406e+00	-6.473447e-02	-4.154404e-02	-2.319043e-02
6.164         	-9.023033e-03	1.468643e+00	-6.449385e-02	-4.126996e-02	-2.322389e-02
6.1645        	-8.910296e-03	1.469115e+00	-6.451599e-02	-4.116829e-02	-2.334770e-02
6.165         	-8.818800e-03	1.469467e+00	-6.430057e-02	-4.096908e-02	-2.333148e-02
6.1655        	-8.802630e-03	1.469100e+00	-6.432797e-02	-4.096661e-02	-2.336136e-02
6.166         	-9.158379e-03	1.467665e+00	-6.459460e-02	-4.145568e-02	-2.313892e-02
6.1665        	-9.283891e-03	1.466073e+00	-6.441007e-02	-4.148893e-02	-2.292114e-02
6.167         	-9.559772e-03	1.464897e+00	-6.465070e-02	-4.188512e-02	-2.276558e-02
6.1675        	-9.328091e-03	1.464326e+00	-6.430128e-02	-4.147873e-02	-2.282255e-02
6.168         	-9.271193e-03	1.464718e+00	-6.434975e-02	-4.144607e-02	-2.290368e-02
6.1685        	-8.791728e-03	1.464918e+00	-6.363522e-02	-4.060934e-02	-2.302588e-02
6.169         	-8.798148e-03	1.464643e+00	-6.336415e-02	-4.048022e-02	-2.288393e-02
6.1695        	-8.832197e-03	1.463713e+00	-6.297835e-02	-4.032137e-02	-2.265698e-02
6.17          	-9.398701e-03	1.462091e+00	-6.357230e-02	-4.118485e-02	-2.238745e-02
6.1705        	-9.520839e-03	1.460975e+00	-6.392212e-02	-4.148190e-02	-2.244022e-02
6.171         	-9.695297e-03	1.460845e+00	-6.441165e-02	-4.190112e-02	-2.251053e-02
6.1715        	-9.286016e-03	1.461241e+00	-6.306690e-02	-4.081946e-02	-2.224743e-02
6.172         	-9.016748e-03	1.461491e+00	-6.295994e-02	-4.049672e-02	-2.246322e-02
6.1725        	-8.923860e-03	1.461274e+00	-6.255041e-02	-4.019906e-02	-2.235134e-02
6.173         	-9.089548e-03	1.459938e+00	-6.282306e-02	-4.050108e-02	-2.232198e-02
6.1735        	-9.533607e-03	1.458310e+00	-6.306498e-02	-4.106609e-02	-2.199888e-02
6.174         	-9.637368e-03	1.457204e+00	-6.300336e-02	-4.113905e-02	-2.186431e-02
6.1745        	-9.611450e-03	1.457042e+00	-6.292548e-02	-4.107419e-02	-2.185129e-02
6.175         	-9.185749e-03	1.457379e+00	-6.203228e-02	-4.020189e-02	-2.183039e-02
6.1755        	-9.111481e-03	1.457590e+00	-6.184178e-02	-4.003237e-02	-2.180941e-02
6.176         	-8.992234e-03	1.457134e+00	-6.167435e-02	-3.982941e-02	-2.184494e-02