# kMean  POINT_DATA 63831
# x  y  z  kMean
0 0.5 3.39583e-17 0.00375
0 0.5 -0.00617931 0.00375
0 0.5 0.00617931 0.00375
0.0124865 0.5 0.00617931 0.00375032
0.0124865 0.5 -0.00617931 0.00375032
0 0.5 -0.0688207 0.00375
0 0.5 0.0688207 0.00375
0.0124865 0.5 0.0688207 0.00375032
0.0124865 0.5 -0.0688207 0.00375032
0 0.5 0.075 0.00375
0 0.5 -0.075 0.00375
0 0.5 -0.0811793 0.00375
0 0.5 0.0811793 0.00375
0.0124865 0.5 0.0811793 0.00375033
0.0124865 0.5 -0.0811793 0.00375032
0.075776 0.5 0.0375 0.00375195
0.075776 0.5 -0.0375 0.00375195
0.075776 0.5 0.1125 0.003752
0.075776 0.5 -0.1125 0.00375198
0 0.5 -0.143821 0.00375
0 0.5 0.143821 0.00375
0.0124865 0.5 0.143821 0.00375033
0.0124865 0.5 -0.143821 0.00375032
0 0.5 0.15 0.00375
0 0.5 -0.15 0.00375
0.151149 0.5 2.20565e-18 0.00375431
0 0.5 -0.156179 0.00375
0 0.5 0.156179 0.00375
0.0124865 0.5 0.156179 0.00375035
0.0124865 0.5 -0.156179 0.00375034
0.151149 0.5 0.075 0.00375436
0.151149 0.5 -0.075 0.00375436
0.075776 0.5 0.1875 0.00375212
0.075776 0.5 -0.1875 0.00375209
0.151149 0.5 0.15 0.00375451
0.151149 0.5 -0.15 0.0037545
0 0.5 -0.218821 0.00375
0 0.5 0.218821 0.00375
0.0124865 0.5 0.218821 0.00375035
0.0124865 0.5 -0.218821 0.00375034
0.219992 0.5 0.0375 0.00375652
0.219992 0.5 -0.0375 0.00375652
0 0.5 0.225 0.00375
0 0.5 -0.225 0.00375
0 0.5 -0.231179 0.00375
0 0.5 0.231179 0.00375
0.0124865 0.5 0.231179 0.00375037
0.0124865 0.5 -0.231179 0.00375037
0.219993 0.5 0.1125 0.00375665
0.219993 0.5 -0.1125 0.00375666
0.151149 0.5 0.225 0.00375477
0.151149 0.5 -0.225 0.00375476
0.075776 0.5 0.2625 0.00375228
0.075776 0.5 -0.2625 0.00375225
0.288069 0.5 3.34766e-17 0.00376118
0.219992 0.5 0.1875 0.00375695
0.219992 0.5 -0.1875 0.00375696
0 0.5 0.293821 0.00375
0 0.5 -0.293821 0.00375
0.0124865 0.5 -0.293821 0.00375037
0.0124865 0.5 0.293821 0.00375037
0.288069 0.5 0.075 0.00376123
0.288069 0.5 -0.075 0.00376127
0 0.5 0.3 0.00375
0 0.5 -0.3 0.00375
0 0.5 0.306179 0.00375
0 0.5 -0.306179 0.00375
0.0124865 0.5 0.306179 0.00375041
0.0124865 0.5 -0.306179 0.0037504
0.288069 0.5 0.15 0.00376144
0.288069 0.5 -0.15 0.00376151
0.151149 0.5 0.3 0.0037551
0.151149 0.5 -0.3 0.00375509
0.219992 0.5 0.2625 0.00375738
0.219992 0.5 -0.2625 0.00375739
0.075776 0.5 0.3375 0.00375248
0.075776 0.5 -0.3375 0.00375244
0.350249 0.5 0.0375 0.00376553
0.350249 0.5 -0.0375 0.00376556
0.288069 0.5 0.225 0.00376182
0.288069 0.5 -0.225 0.00376191
0.350249 0.5 0.1125 0.00376564
0.350249 0.5 -0.1125 0.00376574
0 0.5 0.368821 0.00375
0 0.5 -0.368821 0.00375
0.0124865 0.5 0.368821 0.00375041
0.0124865 0.5 -0.368821 0.0037504
0 0.5 0.375 0.00375
0 0.5 -0.375 0.00375
0 0.5 -0.381179 0.00375
0 0.5 0.381179 0.00375
0.0124865 0.5 0.381179 0.00375044
0.0124865 0.5 -0.381179 0.00375044
0.350249 0.5 0.1875 0.00376595
0.350249 0.5 -0.1875 0.00376609
0.219992 0.5 0.3375 0.00375791
0.219992 0.5 -0.3375 0.00375792
0.151149 0.5 0.375 0.00375549
0.151149 0.5 -0.375 0.00375547
0.411736 0.5 1.70099e-17 0.00377275
0.288069 0.5 0.3 0.00376232
0.288069 0.5 -0.3 0.00376242
0.411736 0.5 0.075 0.00377276
0.411736 0.5 -0.075 0.00377285
0.075776 0.5 0.4125 0.00375269
0.075776 0.5 -0.4125 0.00375265
0.350249 0.5 -0.2625 0.00376659
0.350249 0.5 0.2625 0.00376642
0.411736 0.5 0.15 0.00377291
0.411736 0.5 -0.15 0.00377309
0 0.5 -0.443821 0.00375
0 0.5 0.443821 0.00375
0.0124865 0.5 0.443821 0.00375044
0.0124865 0.5 -0.443821 0.00375044
0 0.5 0.45 0.00375
0 0.5 -0.45 0.00375
0 0.5 -0.456179 0.00375
0 0.5 0.456179 0.00375
0.0124865 0.5 0.456179 0.00375048
0.0124865 0.5 -0.456179 0.00375047
0.219992 0.5 -0.4125 0.0037585
0.219993 0.5 0.4125 0.0037585
0.411736 0.5 0.225 0.00377323
0.411736 0.5 -0.225 0.00377346
0.467897 0.5 0.0375 0.00377949
0.467897 0.5 -0.0375 0.00377955
0.288069 0.5 0.375 0.0037629
0.288069 0.5 -0.375 0.003763
0.151149 0.5 -0.45 0.00375588
0.151149 0.5 0.45 0.0037559
0.467897 0.5 0.1125 0.00377952
0.467897 0.5 -0.1125 0.0037797
0.350249 0.5 0.3375 0.00376699
0.350249 0.5 -0.3375 0.00376718
0.075776 0.5 -0.4875 0.00375286
0.075776 0.5 0.4875 0.00375291
0.467897 0.5 0.1875 0.0037797
0.467897 0.5 -0.1875 0.00377998
0.411736 0.5 0.3 0.00377366
0.411736 0.5 -0.3 0.00377392
0 0.5 -0.518821 0.00375
0 0.5 0.518821 0.00375
0.0124865 0.5 0.518821 0.00375048
0.0124865 0.5 -0.518821 0.00375047
0.523432 0.5 3.75966e-17 0.00378909
0 0.5 0.525 0.00375
0 0.5 -0.525 0.00375
0.523432 0.5 0.075 0.00378904
0.523432 0.5 -0.075 0.00378917
0 0.5 -0.531179 0.00375
0 0.5 0.531179 0.00375
0.0124865 0.5 0.531179 0.00375051
0.0124865 0.5 -0.531179 0.0037505
0.288069 0.5 0.45 0.00376352
0.288069 0.5 -0.45 0.00376361
0.219992 0.5 -0.4875 0.00375909
0.219992 0.5 0.4875 0.0037591
0.467897 0.5 -0.2625 0.00378033
0.467897 0.5 0.2625 0.00378002
0.350249 0.5 0.4125 0.00376762
0.350249 0.5 -0.4125 0.00376782
0.523432 0.5 0.15 0.00378905
0.523432 0.5 -0.15 0.0037893
0.151149 0.5 0.525 0.00375632
0.151149 0.5 -0.525 0.00375628
0.411736 0.5 0.375 0.00377415
0.411736 0.5 -0.375 0.00377443
0.075776 0.5 0.5625 0.00375312
0.075776 0.5 -0.5625 0.00375306
0.523432 0.5 0.225 0.00378916
0.523432 0.5 -0.225 0.0037895
0.574156 0.5 0.0375 0.00379808
0.574157 0.5 -0.0375 0.00379815
0.467897 0.5 0.3375 0.00378039
0.467897 0.5 -0.3375 0.00378075
0.574156 0.5 0.1125 0.00379798
0.574156 0.5 -0.1125 0.0037982
0 0.5 -0.593821 0.00375
0 0.5 0.593821 0.00375
0.0124865 0.5 0.593821 0.00375051
0.0124865 0.5 -0.593821 0.0037505
0.288069 0.5 0.525 0.00376415
0.288069 0.5 -0.525 0.00376421
0 0.5 0.6 0.00375
0 0.5 -0.6 0.00375
0.350249 0.5 0.4875 0.00376828
0.350249 0.5 -0.4875 0.00376845
0.523432 0.5 -0.3 0.00378971
0.523432 0.5 0.3 0.00378933
0.219992 0.5 0.5625 0.0037597
0.219992 0.5 -0.5625 0.00375966
0.574156 0.5 0.1875 0.00379793
0.574157 0.5 -0.1875 0.00379828
0 0.5 -0.606179 0.00375
0 0.5 0.606179 0.00375
0.0124865 0.5 0.606179 0.00375055
0.0124865 0.5 -0.606179 0.00375054
0.411736 0.5 0.45 0.00377467
0.411736 0.5 -0.45 0.00377494
0.151149 0.5 0.6 0.00375671
0.151149 0.5 -0.6 0.00375665
0.467897 0.5 0.4125 0.0037808
0.467897 0.5 -0.4125 0.00378116
0.624316 0.5 2.64545e-17 0.00380976
0.624316 0.5 0.075 0.00380964
0.624316 0.5 -0.075 0.00380978
0.574156 0.5 -0.2625 0.00379835
0.574157 0.5 0.2625 0.00379794
0.075776 0.5 0.6375 0.00375331
0.075776 0.5 -0.6375 0.00375325
0.624316 0.5 0.15 0.00380945
0.624316 0.5 -0.15 0.00380972
0.523432 0.5 0.375 0.00378951
0.523432 0.5 -0.375 0.0037899
0.350249 0.5 -0.5625 0.00376904
0.350249 0.5 0.5625 0.00376892
0.624316 0.5 0.225 0.00380924
0.624316 0.5 -0.225 0.0038096
0.288069 0.5 0.6 0.00376474
0.288069 0.5 -0.6 0.00376476
0.574157 0.5 0.3375 0.00379796
0.574157 0.5 -0.3375 0.00379838
0.411736 0.5 0.525 0.00377518
0.411736 0.5 -0.525 0.0037754
0 0.5 -0.668821 0.00375
0 0.5 0.668821 0.00375
0.0124865 0.5 0.668821 0.00375055
0.0124865 0.5 -0.668821 0.00375054
0.67013 0.5 0.0375 0.00382078
0.67013 0.5 -0.0375 0.00382084
0.219993 0.5 -0.6375 0.00376018
0.219992 0.5 0.6375 0.00376025
0 0.5 0.675 0.00375
0 0.5 -0.675 0.00375
0.467897 0.5 -0.4875 0.00378152
0.467897 0.5 0.4875 0.00378119
0.67013 0.5 0.1125 0.00382053
0.67013 0.5 -0.1125 0.00382073
0 0.5 -0.681179 0.00375
0 0.5 0.681179 0.00375
0.0124865 0.5 0.681179 0.00375057
0.0124865 0.5 -0.681179 0.00375056
0.523432 0.5 0.45 0.00378967
0.523432 0.5 -0.45 0.00379003
0.151149 0.5 0.675 0.00375706
0.151149 0.5 -0.675 0.00375699
0.624316 0.5 0.3 0.003809
0.624316 0.5 -0.3 0.0038094
0.67013 0.5 0.1875 0.00382017
0.67013 0.5 -0.1875 0.00382049
0.574156 0.5 0.4125 0.00379792
0.574156 0.5 -0.4125 0.00379832
0.715434 0.5 3.51282e-17 0.00383421
0.075776 0.5 0.7125 0.00375347
0.075776 0.5 -0.7125 0.00375341
0.715434 0.5 0.075 0.00383402
0.715434 0.5 -0.075 0.00383412
0.67013 0.5 0.2625 0.00381975
0.67013 0.5 -0.2625 0.00382013
0.350249 0.5 -0.6375 0.00376956
0.350249 0.5 0.6375 0.0037695
0.411736 0.5 0.6 0.00377563
0.411736 0.5 -0.6 0.00377578
0.624316 0.5 0.375 0.0038087
0.624316 0.5 -0.375 0.00380908
0.715434 0.5 0.15 0.00383359
0.715434 0.5 -0.15 0.0038338
0.467897 0.5 0.5625 0.00378154
0.467897 0.5 -0.5625 0.0037818
0.288069 0.5 0.675 0.00376527
0.288069 0.5 -0.675 0.00376524
0.523432 0.5 0.525 0.00378977
0.523432 0.5 -0.525 0.00379006
0 0.5 -0.743821 0.00375
0 0.5 0.743821 0.00375
0.0124865 0.5 -0.743821 0.00375056
0.0124865 0.5 0.743821 0.00375057
0.219992 0.5 0.7125 0.00376073
0.219992 0.5 -0.7125 0.00376063
0.715434 0.5 0.225 0.00383299
0.715434 0.5 -0.225 0.00383326
0 0.5 0.75 0.00375
0 0.5 -0.75 0.00375
0.67013 0.5 0.3375 0.00381923
0.67013 0.5 -0.3375 0.00381961
0.574157 0.5 0.4875 0.0037978
0.574157 0.5 -0.4875 0.00379815
0 0.5 -0.756179 0.00375
0 0.5 0.756179 0.00375
0.0124865 0.5 0.756179 0.00375059
0.0124865 0.5 -0.756179 0.00375058
0.756813 0.5 0.0375 0.00384697
0.756813 0.5 -0.0375 0.003847
0.151149 0.5 0.75 0.00375736
0.151149 0.5 -0.75 0.00375726
0.756813 0.5 0.1125 0.00384656
0.756813 0.5 -0.1125 0.00384667
0.624316 0.5 -0.45 0.0038086
0.624316 0.5 0.45 0.00380829
0.715434 0.5 0.3 0.00383222
0.715434 0.5 -0.3 0.0038325
0.756813 0.5 0.1875 0.00384586
0.756813 0.5 -0.1875 0.00384605
0.67013 0.5 -0.4125 0.00381889
0.67013 0.5 0.4125 0.00381859
0.411736 0.5 0.675 0.00377601
0.411736 0.5 -0.675 0.00377607
0.467897 0.5 0.6375 0.00378182
0.467897 0.5 -0.6375 0.00378197
0.075776 0.5 0.7875 0.0037536
0.075776 0.5 -0.7875 0.00375353
0.350249 0.5 0.7125 0.00376999
0.350249 0.5 -0.7125 0.00376998
0.523432 0.5 0.6 0.00378979
0.523432 0.5 -0.6 0.00378997
0.797732 0.5 3.20924e-17 0.00386194
0.756813 0.5 0.2625 0.00384494
0.756814 0.5 -0.2625 0.00384513
0.797732 0.5 0.075 0.00386169
0.797732 0.5 -0.075 0.0038617
0.288069 0.5 0.75 0.0037657
0.288069 0.5 -0.75 0.00376562
0.574156 0.5 -0.5625 0.00379784
0.574156 0.5 0.5625 0.0037976
0.715434 0.5 0.375 0.0038313
0.715434 0.5 -0.375 0.0038315
0.797732 0.5 0.15 0.00386096
0.797732 0.5 -0.15 0.00386101
0.624316 0.5 0.525 0.00380776
0.624316 0.5 -0.525 0.00380795
0.219992 0.5 0.7875 0.00376113
0.219992 0.5 -0.7875 0.00376099
0 0.5 -0.818821 0.00375
0 0.5 0.818821 0.00375
0.0124865 0.5 -0.818821 0.00375058
0.0124865 0.5 0.818821 0.00375059
0 0.5 0.825 0.00375
0 0.5 -0.825 0.00375
0.756813 0.5 -0.3375 0.00384394
0.756813 0.5 0.3375 0.00384375
0.67013 0.5 0.4875 0.00381779
0.67013 0.5 -0.4875 0.00381796
0.797732 0.5 0.225 0.00385987
0.797732 0.5 -0.225 0.00385991
0 0.5 -0.831179 0.00375
0 0.5 0.831179 0.00375
0.0124865 0.5 0.831179 0.00375061
0.0124865 0.5 -0.831179 0.0037506
0.835106 0.5 -0.0375 0.00387624
0.835106 0.5 0.0375 0.00387627
0.151149 0.5 0.825 0.00375759
0.151149 0.5 -0.825 0.00375748
0.835106 0.5 0.1125 0.00387566
0.835106 0.5 -0.1125 0.00387561
0.715434 0.5 0.45 0.00383017
0.715434 0.5 -0.45 0.00383022
0.797732 0.5 0.3 0.00385843
0.797732 0.5 -0.3 0.00385842
0.467897 0.5 0.7125 0.00378199
0.467897 0.5 -0.7125 0.00378201
0.523432 0.5 0.675 0.00378971
0.523432 0.5 -0.675 0.00378974
0.411736 0.5 0.75 0.00377628
0.411736 0.5 -0.75 0.00377622
0.835106 0.5 0.1875 0.00387452
0.835106 0.5 -0.1875 0.00387445
0.574156 0.5 0.6375 0.00379729
0.574156 0.5 -0.6375 0.00379737
0.350249 0.5 -0.7875 0.00377027
0.350249 0.5 0.7875 0.00377037
0.756813 0.5 -0.4125 0.0038424
0.756814 0.5 0.4125 0.00384244
0.075776 0.5 -0.8625 0.00375362
0.075776 0.5 0.8625 0.0037537
0.624316 0.5 0.6 0.0038071
0.624316 0.5 -0.6 0.00380712
0.872064 0.5 4.32235e-17 0.00389184
0.288069 0.5 0.825 0.00376604
0.288069 0.5 -0.825 0.00376589
0.67013 0.5 0.5625 0.00381682
0.67013 0.5 -0.5625 0.00381682
0.872064 0.5 0.075 0.00389155
0.872064 0.5 -0.075 0.00389145
0.835106 0.5 0.2625 0.00387293
0.835106 0.5 -0.2625 0.00387278
0.797732 0.5 0.375 0.00385673
0.797732 0.5 -0.375 0.00385657
0.872064 0.5 0.15 0.00389062
0.872064 0.5 -0.15 0.00389044
0.715434 0.5 0.525 0.00382881
0.715434 0.5 -0.525 0.00382868
0.219992 0.5 0.8625 0.00376143
0.219993 0.5 -0.8625 0.00376126
0 0.5 -0.893821 0.00375
0 0.5 0.893821 0.00375
0.0124865 0.5 0.893821 0.00375061
0.0124865 0.5 -0.893821 0.0037506
0 0.5 0.9 0.00375
0 0.5 -0.9 0.00375
0.756813 0.5 0.4875 0.00384075
0.756813 0.5 -0.4875 0.00384052
0.872064 0.5 0.225 0.00388915
0.872064 0.5 -0.225 0.00388886
0.835106 0.5 0.3375 0.0038709
0.835106 0.5 -0.3375 0.00387065
0 0.5 0.906179 0.00375
0 0.5 -0.906179 0.00375
0.0124865 0.5 0.906179 0.00375062
0.0124865 0.5 -0.906179 0.00375061
0.90582 0.5 -0.0375 0.00390677
0.905821 0.5 0.0375 0.00390687
0.151149 0.5 0.9 0.00375776
0.90582 0.5 0.1125 0.00390621
0.90582 0.5 -0.1125 0.00390597
0.151149 0.5 -0.901373 0.00375766
0.523432 0.5 0.75 0.0037895
0.523432 0.5 -0.75 0.00378937
0.574157 0.5 0.7125 0.00379686
0.574156 0.5 -0.7125 0.00379675
0.797732 0.5 0.45 0.00385475
0.797732 0.5 -0.45 0.00385435
0.467897 0.5 0.7875 0.00378204
0.467897 0.5 -0.7875 0.00378191
0.624316 0.5 0.675 0.0038063
0.624316 0.5 -0.675 0.00380612
0.411736 0.5 0.825 0.00377642
0.411736 0.5 -0.825 0.00377624
0.872064 0.5 0.3 0.00388717
0.872064 0.5 -0.3 0.00388672
0.67013 0.5 0.6375 0.00381569
0.67013 0.5 -0.6375 0.00381548
0.90582 0.5 0.1875 0.0039049
0.90582 0.5 -0.1875 0.00390453
0.350249 0.5 -0.8625 0.00377044
0.350249 0.5 0.8625 0.00377062
0.835106 0.5 0.4125 0.00386865
0.835106 0.5 -0.4125 0.00386817
0.715434 0.5 0.6 0.00382726
0.715434 0.5 -0.6 0.0038269
0.939201 0.5 4.40909e-17 0.00392219
0.075776 0.5 -0.9375 0.00375367
0.075776 0.5 0.9375 0.00375375
0.939201 0.5 0.075 0.00392192
0.939201 0.5 -0.075 0.00392167
0.756814 0.5 0.5625 0.00383882
0.756814 0.5 -0.5625 0.00383835
0.905821 0.5 0.2625 0.00390304
0.905821 0.5 -0.2625 0.00390249
0.288069 0.5 0.9 0.00376625
0.288069 0.5 -0.901373 0.00376608
0.872064 0.5 0.375 0.00388467
0.872064 0.5 -0.375 0.00388404
0.939201 0.5 -0.15 0.00392044
0.939201 0.5 0.15 0.00392089
0.797732 0.5 0.525 0.00385242
0.797732 0.5 -0.525 0.00385174
0.219993 0.5 -0.9375 0.00376142
0.219992 0.5 0.9375 0.00376162
0.939201 0.5 0.225 0.00391921
0.939201 0.5 -0.225 0.00391853
0.90582 0.5 0.3375 0.00390061
0.90582 0.5 -0.3375 0.00389982
0.835106 0.5 -0.4875 0.0038652
0.835107 0.5 0.4875 0.00386603
0 0.5 0.968821 0.00375
0 0.5 -0.968821 0.00375
0.0124865 0.5 0.968821 0.00375062
0.0124865 0.5 -0.968821 0.00375061
0.969689 0.5 0.0375 0.00393711
0.969689 0.5 -0.0375 0.00393693
0.574156 0.5 0.7875 0.00379629
0.574156 0.5 -0.7875 0.00379597
0 0.5 0.975 0.00375
0 0.5 -0.975 0.00375
0.624316 0.5 0.75 0.00380536
0.624316 0.5 -0.75 0.00380495
0.969689 0.5 0.1125 0.00393643
0.96969 0.5 -0.1125 0.00393595
0.523432 0.5 0.825 0.00378916
0.523432 0.5 -0.825 0.00378884
0.67013 0.5 0.7125 0.00381441
0.67013 0.5 -0.7125 0.00381395
0 0.5 -0.981179 0.00375
0 0.5 0.981179 0.00375
0.467897 0.5 0.8625 0.00378194
0.467897 0.5 -0.8625 0.00378166
0.0124865 0.5 0.981179 0.00375062
0.0124865 0.5 -0.981179 0.00375061
0.872064 0.5 0.45 0.00388172
0.872064 0.5 -0.45 0.00388075
0.715434 0.5 0.675 0.00382553
0.715434 0.5 -0.675 0.00382489
0.939201 0.5 0.3 0.00391692
0.939201 0.5 -0.3 0.00391596
0.151149 0.5 0.975 0.00375785
0.151149 0.5 -0.975 0.0037577
0.969689 0.5 0.1875 0.00393498
0.969689 0.5 -0.1875 0.00393425
0.756814 0.5 0.6375 0.00383667
0.756814 0.5 -0.6375 0.00383592
0.411736 0.5 0.9 0.00377642
0.411736 0.5 -0.901373 0.00377616
0.90582 0.5 0.4125 0.00389739
0.90582 0.5 -0.4125 0.0038964
0.797732 0.5 0.6 0.00384979
0.797732 0.5 -0.6 0.00384881
1.00005 0.5 1.48897e-17 0.00395087
0.350249 0.5 -0.9375 0.00377046
0.350249 0.5 0.9375 0.00377073
1.00005 0.5 0.0749309 0.00395064
1.00005 0.5 -0.0749309 0.00395025
0.969689 0.5 0.2625 0.00393289
0.969689 0.5 -0.2625 0.00393184
0.835106 0.5 0.5625 0.00386299
0.835106 0.5 -0.5625 0.00386183
1.00005 0.5 0.149862 0.00394956
1.00005 0.5 -0.149862 0.00394883
0.939201 0.5 0.375 0.00391389
0.939201 0.5 -0.375 0.00391263
0.075776 0.5 1.0125 0.00375378
0.075776 0.5 -1.0125 0.0037537
0.288069 0.5 0.975 0.00376634
0.288069 0.5 -0.975 0.00376607
0.872064 0.5 0.525 0.00387832
0.872064 0.5 -0.525 0.00387693
1.00005 0.5 0.224793 0.00394775
1.00005 0.5 -0.224793 0.00394667
0.96969 0.5 0.3375 0.00393012
0.96969 0.5 -0.3375 0.00392869
1.0271 0.5 0.0368226 0.00396619
1.0271 0.5 -0.0368226 0.00396594
0.90582 0.5 0.4875 0.00389369
0.90582 0.5 -0.4875 0.00389215
1.0271 0.5 0.110468 0.00396553
1.0271 0.5 -0.110468 0.00396484
0.67013 0.5 -0.7875 0.00381224
0.67013 0.5 0.7875 0.00381298
0.624316 0.5 0.825 0.00380428
0.624316 0.5 -0.825 0.00380361
0.219992 0.5 -1.0125 0.00376149
0.219993 0.5 1.0125 0.00376172
0.574156 0.5 0.8625 0.00379558
0.574156 0.5 -0.8625 0.00379504
0.715434 0.5 0.75 0.00382362
0.715434 0.5 -0.75 0.00382269
0.756813 0.5 -0.7125 0.00383326
0.756814 0.5 0.7125 0.00383434
0.523432 0.5 0.9 0.00378867
0.939201 0.5 0.45 0.00391007
0.939201 0.5 -0.45 0.00390829
1.04168 0.5 0 0.00397388
0.523432 0.5 -0.901373 0.00378819
1.0271 0.5 0.184113 0.00396404
1.0271 0.5 -0.184113 0.00396296
0 0.5 1.04382 0.00375
0 0.5 -1.04382 0.00375
0.0124865 0.5 1.04382 0.00375062
0.0124865 0.5 -1.04382 0.00375061
1.00005 0.5 0.299723 0.00394525
1.00005 0.5 -0.299723 0.00394377
1.04168 0.5 0.0729162 0.00397369
1.04168 0.5 -0.0729162 0.00397318
0.797732 0.5 0.675 0.00384694
0.797732 0.5 -0.675 0.00384561
0.467897 0.5 -0.9375 0.00378126
0.467897 0.5 0.9375 0.00378169
0 0.5 1.05 0.00375
0 0.5 -1.05 0.00375
0.835106 0.5 0.6375 0.00385966
0.835106 0.5 -0.6375 0.00385814
1.04168 0.5 0.145832 0.00397261
1.04168 0.5 -0.145832 0.00397165
0.969689 0.5 -0.4125 0.00392463
0.96969 0.5 0.4125 0.0039264
0 0.5 1.05618 0.00375
0 0.5 -1.05618 0.00375
0.0124865 0.5 1.05618 0.00375063
0.0124865 0.5 -1.05618 0.00375061
1.05695 0.5 -0.0360764 0.00398163
1.05695 0.5 0.0360764 0.00398191
0.411736 0.5 0.975 0.00377626
0.411736 0.5 -0.975 0.00377585
0.872064 0.5 0.6 0.00387453
0.872064 0.5 -0.6 0.0038727
1.0271 0.5 0.257759 0.00396184
1.0271 0.5 -0.257759 0.00396034
0.151149 0.5 -1.05 0.00375771
0.151149 0.5 1.05 0.00375788
1.05695 0.5 0.108229 0.00398128
1.05695 0.5 -0.108229 0.00398045
1.04168 0.5 0.218749 0.00397074
1.04168 0.5 -0.218749 0.00396934
0.90582 0.5 0.5625 0.00388952
0.90582 0.5 -0.5625 0.00388749
1.00005 0.5 0.374654 0.00394194
1.00005 0.5 -0.374654 0.00394004
0.350249 0.5 1.0125 0.0037707
0.350249 0.5 -1.0125 0.00377034
1.05695 0.5 0.180382 0.00397977
1.05695 0.5 -0.180382 0.00397848
0.939201 0.5 0.525 0.00390544
0.939201 0.5 -0.525 0.00390307
1.0271 0.5 -0.331404 0.00395694
1.0271 0.5 0.331404 0.00395893
1.08112 0.5 3.20924e-17 0.00399565
1.04168 0.5 0.291665 0.00396816
1.04168 0.5 -0.291665 0.00396628
1.08112 0.5 0.0709442 0.00399549
1.08112 0.5 -0.0709442 0.00399487
0.96969 0.5 0.4875 0.00392181
0.96969 0.5 -0.4875 0.00391902
1.05695 0.5 0.252535 0.00397752
1.05695 0.5 -0.252535 0.00397574
0.288069 0.5 1.05 0.00376631
0.288069 0.5 -1.05 0.00376599
0.075776 0.5 -1.0875 0.00375369
0.075776 0.5 1.0875 0.00375378
1.08112 0.5 0.141888 0.00399442
1.08112 0.5 -0.141888 0.00399322
0.715434 0.5 0.825 0.00382157
0.715434 0.5 -0.825 0.00382032
0.756814 0.5 0.7875 0.00383183
0.756814 0.5 -0.7875 0.00383041
0.67013 0.5 0.8625 0.0038114
0.67013 0.5 -0.8625 0.00381037
0.797732 0.5 0.75 0.00384389
0.797732 0.5 -0.75 0.00384219
0.624316 0.5 0.9 0.00380304
1.00005 0.5 0.449585 0.00393771
1.00005 0.5 -0.449585 0.00393502
0.624316 0.5 -0.901373 0.00380213
0.835106 0.5 0.7125 0.00385611
0.835106 0.5 -0.7125 0.00385419
0.574156 0.5 -0.9375 0.00379394
0.574156 0.5 0.9375 0.00379471
1.10076 0.5 0.0349809 0.00400726
1.10076 0.5 -0.0349809 0.00400692
1.08112 0.5 0.212832 0.00399251
1.08112 0.5 -0.212832 0.00399077
0.872064 0.5 0.675 0.00387039
0.872064 0.5 -0.675 0.00386812
1.04168 0.5 -0.364581 0.00396238
1.04168 0.5 0.364581 0.00396478
1.0271 0.5 -0.405049 0.00395259
1.0271 0.5 0.405049 0.0039551
1.05695 0.5 0.324688 0.00397457
1.05695 0.5 -0.324688 0.00397223
1.10076 0.5 -0.104943 0.00400563
1.10076 0.5 0.104943 0.00400665
0.523432 0.5 0.975 0.00378802
0.523432 0.5 -0.975 0.00378732
0.90582 0.5 0.6375 0.00388492
0.90582 0.5 -0.6375 0.00388237
0.219992 0.5 1.0875 0.00376172
0.219992 0.5 -1.0875 0.00376146
1.11376 0.5 1.15648e-18 0.00401492
0.939201 0.5 0.6 0.00390019
0.939201 0.5 -0.6 0.00389737
1.10076 0.5 0.174905 0.00400512
1.10076 0.5 -0.174905 0.00400351
0.467897 0.5 -1.0125 0.00378069
0.467897 0.5 1.0125 0.00378128
1.11376 0.5 0.0693118 0.0040148
1.11376 0.5 -0.0693118 0.00401408
1.08112 0.5 0.283777 0.00398986
1.08112 0.5 -0.285603 0.00398712
0 0.5 -1.11882 0.00375
0 0.5 1.11882 0.00375
0.0124865 0.5 1.11882 0.00375063
0.0124865 0.5 -1.11882 0.00375061
0.969689 0.5 0.5625 0.00391581
0.969689 0.5 -0.5625 0.0039127
1.11376 0.5 0.138624 0.00401373
1.11376 0.5 -0.138624 0.00401233
0 0.5 1.125 0.00375
0 0.5 -1.125 0.00375
1.10076 0.5 0.244866 0.00400279
1.10076 0.5 -0.244866 0.0040006
0.411736 0.5 -1.05 0.00377543
0.411736 0.5 1.05 0.00377597
1.05695 0.5 -0.396841 0.00396657
1.05695 0.5 0.396841 0.00397071
1.00005 0.5 0.524516 0.00393224
1.00005 0.5 -0.525427 0.00392854
1.04168 0.5 -0.437497 0.00395723
1.04168 0.5 0.437497 0.00396047
0 0.5 1.13118 0.00375
0 0.5 -1.13118 0.00375
0.0124865 0.5 -1.13118 0.0037506
0.0124865 0.5 1.13118 0.00375062
1.11376 0.5 0.207935 0.00401178
1.0271 0.5 -0.478694 0.00394669
1.0271 0.5 0.478694 0.00395029
1.11376 0.5 -0.213207 0.00400975
1.07791 0.5 -0.354722 0.00398113
0.151149 0.5 1.125 0.00375784
0.151149 0.5 -1.125 0.00375766
1.08112 0.5 0.354722 0.00398641
1.13882 0.5 0.0340295 0.00403057
1.13882 0.5 -0.0340295 0.00403017
0.350249 0.5 1.0875 0.00377055
0.350249 0.5 -1.0875 0.0037701
1.13882 0.5 0.102088 0.00402999
1.13882 0.5 -0.102088 0.00402877
1.10076 0.5 0.314829 0.00399974
1.10076 0.5 -0.314829 0.0039969
0.756813 0.5 -0.8625 0.0038274
0.756814 0.5 0.8625 0.00382918
0.797732 0.5 0.825 0.00384068
0.797732 0.5 -0.825 0.00383859
1.11376 0.5 -0.277247 0.00400637
1.11376 0.5 0.277247 0.00400906
0.835106 0.5 0.7875 0.00385236
0.835106 0.5 -0.7875 0.00385001
0.715434 0.5 0.9 0.00381937
0.872064 0.5 0.75 0.00386599
0.872064 0.5 -0.75 0.00386325
0.715434 0.5 -0.901373 0.00381777
1.13882 0.5 -0.170147 0.0040265
1.13882 0.5 0.170147 0.00402844
0.67013 0.5 -0.9375 0.00380835
0.67013 0.5 0.9375 0.00380968
0.90582 0.5 0.7125 0.00387991
0.90582 0.5 -0.7125 0.00387684
1.05695 0.5 -0.468994 0.00396008
1.05695 0.5 0.468994 0.00396593
0.939201 0.5 0.675 0.0038947
0.939201 0.5 -0.675 0.00389132
0.624316 0.5 0.975 0.00380166
0.624316 0.5 -0.975 0.00380047
1.04168 0.5 -0.510414 0.00395074
1.04168 0.5 0.510414 0.00395494
0.969689 0.5 0.6375 0.00390963
0.969689 0.5 -0.6375 0.00390607
0.288069 0.5 1.125 0.00376617
0.288069 0.5 -1.125 0.00376579
1.16179 0.5 1.04083e-17 0.00404561
1.08112 0.5 -0.425666 0.00397824
1.08112 0.5 0.425666 0.00398206
1.13882 0.5 -0.238206 0.00402166
1.13882 0.5 0.238206 0.00402604
1.16179 0.5 0.0669104 0.00404555
1.16179 0.5 -0.0669104 0.00404465
0.574156 0.5 -1.0125 0.00379268
0.574156 0.5 1.0125 0.00379367
0.998291 0.5 -0.599796 0.00392069
0.075776 0.5 -1.1625 0.00375366
0.075776 0.5 1.1625 0.00375374
1.00005 0.5 0.599447 0.00392584
1.10076 0.5 -0.384791 0.00399236
1.10076 0.5 0.384791 0.00399581
1.0271 0.5 0.55234 0.00394404
1.0271 0.5 -0.55234 0.0039431
1.11376 0.5 -0.346559 0.00400219
1.11376 0.5 0.346559 0.00400553
1.16179 0.5 0.133821 0.00404449
1.16179 0.5 -0.133821 0.00404235
0.523432 0.5 -1.05 0.00378632
0.523432 0.5 1.05 0.00378721
1.17463 0.5 0.0331343 0.00405369
1.17463 0.5 -0.0331343 0.00405324
1.15837 0.5 -0.200731 0.00403778
1.17463 0.5 0.0994029 0.00405314
1.17463 0.5 -0.0994029 0.00405171
1.16179 0.5 0.200074 0.00404226
1.13882 0.5 -0.306265 0.00401949
1.13882 0.5 0.306265 0.00402287
0.219992 0.5 1.1625 0.00376161
0.219992 0.5 -1.1625 0.00376132
0.467897 0.5 -1.0875 0.00377998
0.467897 0.5 1.0875 0.00378072
1.17463 0.5 0.165672 0.00405156
1.17463 0.5 -0.165672 0.00404929
1.05695 0.5 0.541147 0.00395966
1.05695 0.5 -0.541147 0.00395477
1.18772 0.5 -1.15648e-18 0.00406225
1.11376 0.5 -0.41587 0.00399683
1.11376 0.5 0.41587 0.00400113
1.18772 0.5 0.0655187 0.00406222
1.08112 0.5 0.49661 0.00397655
1.08112 0.5 -0.49661 0.00397161
1.18772 0.5 -0.0699161 0.00406123
1.10076 0.5 -0.454752 0.00398627
1.10076 0.5 0.454752 0.00399101
1.16179 0.5 0.267642 0.00403899
1.16179 0.5 -0.267642 0.00403626
0 0.5 1.19382 0.00375
0 0.5 -1.19382 0.00375
0.0124865 0.5 -1.19382 0.0037506
0.0124865 0.5 1.19382 0.00375062
1.04168 0.5 -0.58333 0.00394352
1.04168 0.5 0.58333 0.00394825
1.18772 0.5 0.131228 0.00406089
1.18772 0.5 -0.131228 0.00405927
1.17463 0.5 0.23194 0.00404906
1.17463 0.5 -0.23194 0.00404599
0.411736 0.5 1.125 0.00377555
0.411736 0.5 -1.125 0.00377489
1.13882 0.5 0.374324 0.00401884
1.13882 0.5 -0.374324 0.00401474
0 0.5 1.2 0.00375
0 0.5 -1.2 0.00375
0.90582 0.5 0.7875 0.00387468
0.90582 0.5 -0.7875 0.00387112
0.872064 0.5 0.825 0.00386141
0.872064 0.5 -0.825 0.00385822
0.835106 0.5 -0.8625 0.0038457
0.835106 0.5 0.8625 0.00384846
1.18534 0.5 0.196842 0.00405765
0.939201 0.5 0.75 0.00388892
0.939201 0.5 -0.75 0.00388495
0.797732 0.5 0.9 0.00383732
1.0271 0.5 -0.625985 0.00393245
1.0271 0.5 0.625985 0.00393709
0.969689 0.5 0.7125 0.00390349
0.96969 0.5 -0.7125 0.00389919
0.797732 0.5 -0.901373 0.00383478
1.18772 0.5 -0.196842 0.00405645
0.756813 0.5 -0.9375 0.00382425
0.756813 0.5 0.9375 0.0038264
0.998291 0.5 -0.67477 0.00391344
1.15863 0.5 0.334552 0.00403395
0 0.5 1.20618 0.00375
0 0.5 -1.20618 0.00375
1.00005 0.5 0.674378 0.00391917
0.0124865 0.5 -1.20618 0.00375059
0.0124865 0.5 1.20618 0.00375061
1.16179 0.5 -0.334552 0.00403179
0.715434 0.5 0.975 0.00381703
0.715434 0.5 -0.975 0.00381512
0.151149 0.5 1.2 0.00375774
0.151149 0.5 -1.2 0.00375754
1.20942 0.5 -0.0322645 0.00407668
1.20942 0.5 0.0322645 0.0040772
1.18534 0.5 0.249669 0.00405537
1.17463 0.5 0.298209 0.00404576
1.17463 0.5 -0.298209 0.00404186
1.20942 0.5 0.0967935 0.00407667
1.20942 0.5 -0.0967935 0.00407502
0.350249 0.5 1.1625 0.00377026
0.350249 0.5 -1.1625 0.00376972
0.67013 0.5 1.0125 0.00380781
0.67013 0.5 -1.0125 0.00380619
1.11376 0.5 -0.485183 0.0039901
1.11376 0.5 0.485183 0.00399562
1.18772 0.5 -0.262456 0.00405264
1.10076 0.5 -0.524714 0.003979
1.10076 0.5 0.524714 0.0039848
1.20942 0.5 0.161322 0.00407571
1.20942 0.5 -0.161322 0.00407307
1.08112 0.5 -0.567554 0.00396417
1.08112 0.5 0.567554 0.00396981
0.624316 0.5 1.05 0.00380013
0.624316 0.5 -1.05 0.00379868
1.13882 0.5 0.442383 0.00401394
1.13882 0.5 -0.442383 0.00400856
1.05695 0.5 -0.6133 0.0039472
1.05695 0.5 0.6133 0.00395254
1.15863 0.5 0.401463 0.00402943
1.16179 0.5 -0.401463 0.00402622
0.574156 0.5 1.0875 0.00379249
0.574157 0.5 -1.0875 0.00379129
1.17463 0.5 0.364477 0.0040416
1.17463 0.5 -0.364477 0.00403693
1.20942 0.5 0.225851 0.00407311
1.20942 0.5 -0.225851 0.00406956
1.23036 0.5 -1.38778e-17 0.00409345
1.04168 0.5 -0.656246 0.00393567
1.04168 0.5 0.656246 0.003941
1.23036 0.5 -0.0634819 0.0040921
1.23036 0.5 0.0634819 0.00409348
1.18772 0.5 0.32807 0.00405254
1.18772 0.5 -0.32807 0.00404801
0.288069 0.5 1.2 0.00376592
0.288069 0.5 -1.2 0.00376548
1.23036 0.5 0.126964 0.00409242
1.23036 0.5 -0.126964 0.00409002
0.075776 0.5 -1.2375 0.00375359
0.075776 0.5 1.2375 0.00375367
0.523432 0.5 1.125 0.00378629
0.523432 0.5 -1.125 0.00378521
1.0271 0.5 -0.69963 0.00392433
1.0271 0.5 0.69963 0.00392975
1.24274 0.5 -0.0314313 0.00410204
1.24274 0.5 0.0314313 0.00410262
1.20942 0.5 0.29038 0.00406966
1.20942 0.5 -0.29038 0.00406517
1.11376 0.5 -0.554494 0.00398248
1.11376 0.5 0.554494 0.00398887
1.23036 0.5 0.190445 0.00409028
1.23036 0.5 -0.190445 0.00408681
1.24274 0.5 0.0942942 0.00410212
1.24274 0.5 -0.0942942 0.00410022
1.13882 0.5 -0.510442 0.00400113
1.13882 0.5 0.510442 0.00400778
0.998291 0.5 -0.749744 0.0039057
0.969689 0.5 0.7875 0.00389681
0.969689 0.5 -0.7875 0.00389192
1.00005 0.5 0.749309 0.00391209
1.15863 0.5 0.468373 0.00402389
0.939201 0.5 0.825 0.00388287
0.939201 0.5 -0.825 0.00387839
1.2484 0.5 -0.0653061 0.00410616
0.90582 0.5 0.8625 0.00386929
0.90582 0.5 -0.8625 0.00386527
1.17463 0.5 -0.430746 0.00403062
1.17463 0.5 0.430746 0.0040366
1.10076 0.5 -0.594676 0.00397117
1.10076 0.5 0.594676 0.00397752
1.18772 0.5 0.393684 0.00404789
1.18772 0.5 -0.393684 0.00404231
1.24274 0.5 -0.157157 0.00409743
1.24274 0.5 0.157157 0.00410046
1.16179 0.5 -0.468373 0.00401929
0.467897 0.5 -1.1625 0.00377916
0.467897 0.5 1.1625 0.00378006
0.872064 0.5 0.9 0.00385667
1.25401 0.5 0 0.0041106
0.872064 0.5 -0.901373 0.00385294
1.24906 0.5 -0.125094 0.00410424
0.835106 0.5 0.9375 0.00384443
0.835106 0.5 -0.9375 0.00384123
1.25401 0.5 0.0622994 0.00411066
1.08112 0.5 -0.638498 0.00395608
1.08112 0.5 0.638498 0.00396233
1.23036 0.5 0.253927 0.00408717
1.23036 0.5 -0.253927 0.00408268
0.219992 0.5 1.2375 0.0037614
0.219992 0.5 -1.2375 0.00376109
1.05695 0.5 -0.685452 0.00393887
1.05695 0.5 0.685452 0.00394496
0.797732 0.5 0.975 0.00383384
0.797732 0.5 -0.975 0.00383095
1.25401 0.5 0.124599 0.00410958
1.20942 0.5 0.354909 0.00406533
1.20942 0.5 -0.354909 0.00405997
1.24274 0.5 0.220019 0.00409776
1.24274 0.5 -0.220019 0.00409367
1.24906 0.5 -0.187641 0.00410091
0.756813 0.5 -1.0125 0.00382094
0.756813 0.5 1.0125 0.00382346
1.25401 0.5 0.186898 0.00410738
0.411736 0.5 1.2 0.00377502
0.411736 0.5 -1.2 0.00377423
0 0.5 1.26882 0.00375
0 0.5 -1.26882 0.00375
0.0124865 0.5 -1.26882 0.00375059
0.0124865 0.5 1.26882 0.00375061
0.715434 0.5 -1.05 0.00381232
0.715434 0.5 1.05 0.00381456
1.23036 0.5 0.31741 0.00408316
1.23036 0.5 -0.31741 0.00407769
1.04168 0.5 -0.729162 0.00392714
1.04168 0.5 0.729162 0.00393325
1.18772 0.5 -0.459298 0.00403525
1.18772 0.5 0.459298 0.00404226
1.24274 0.5 0.282882 0.00409413
1.24274 0.5 -0.282882 0.004089
0 0.5 1.275 0.00375
0 0.5 -1.275 0.00375
1.27472 0.5 -0.0306319 0.00412755
1.27472 0.5 0.0306319 0.00412822
1.17463 0.5 -0.497015 0.00402297
1.17463 0.5 0.497015 0.00403043
1.15837 0.5 0.534151 0.00401746
1.11376 0.5 0.62266 0.00398104
1.11376 0.5 -0.623806 0.00397422
1.13882 0.5 -0.578501 0.00399305
1.13882 0.5 0.578501 0.00399843
0.67013 0.5 1.0875 0.00380581
0.67013 0.5 -1.0875 0.0038039
1.27472 0.5 -0.0918959 0.00412477
1.27472 0.5 0.0918959 0.00412773
1.25401 0.5 -0.249197 0.00409887
1.25401 0.5 0.249197 0.00410416
1.16179 0.5 -0.535284 0.00401136
1.20942 0.5 0.419438 0.00406016
1.20942 0.5 -0.419438 0.00405348
0 0.5 1.28118 0.00375
0 0.5 -1.28118 0.00375
0.0124865 0.5 1.28118 0.00375059
0.0124865 0.5 -1.28118 0.00375058
1.27472 0.5 0.15316 0.00412604