# kMean  POINT_DATA 63140
# x  y  z  kMean
0 0.1 0 0.00375
0 0.1 -0.0179898 0.00375
0 0.1 0.0179898 0.00375
0.0363518 0.1 -0.0179898 0.00374803
0.0363518 0.1 0.0179898 0.003748
0 0.1 -0.0570102 0.00375
0 0.1 0.0570102 0.00375
0.0363518 0.1 0.0570102 0.003748
0.0363518 0.1 -0.0570102 0.00374803
0 0.1 0.075 0.00375
0 0.1 -0.075 0.00375
0.075776 0.1 -0.0375 0.00374564
0.075776 0.1 0.0375 0.00374558
0 0.1 0.0929898 0.00375
0 0.1 -0.0929898 0.00375
0.0363518 0.1 0.0929898 0.00374817
0.0363518 0.1 -0.0929898 0.00374825
0 0.1 0.13201 0.00375
0 0.1 -0.13201 0.00375
0.075776 0.1 0.1125 0.00374594
0.075776 0.1 -0.1125 0.0037461
0.0363518 0.1 0.13201 0.00374817
0.0363518 0.1 -0.13201 0.00374825
0 0.1 0.15 0.00375
0 0.1 -0.15 0.00375
0.150379 0.1 -8.67362e-19 0.00373989
0.150379 0.1 0.0710023 0.00374019
0 0.1 0.16799 0.00375
0 0.1 -0.16799 0.00375
0.150379 0.1 -0.075 0.00374044
0.0363518 0.1 0.16799 0.00374846
0.0363518 0.1 -0.16799 0.00374853
0.075776 0.1 0.1875 0.00374654
0.075776 0.1 -0.1875 0.00374668
0 0.1 0.20701 0.00375
0 0.1 -0.20701 0.00375
0.0363518 0.1 0.20701 0.00374846
0.0363518 0.1 -0.20701 0.00374853
0.150379 0.1 -0.15 0.00374136
0.150379 0.1 0.15 0.003741
0.219992 0.1 -0.0375 0.00373457
0.219992 0.1 0.0375 0.00373427
0 0.1 0.225 0.00375
0 0.1 -0.225 0.00375
0 0.1 0.24299 0.00375
0 0.1 -0.24299 0.00375
0.0363518 0.1 0.24299 0.00374877
0.0363518 0.1 -0.24299 0.00374878
0.219992 0.1 0.1125 0.00373532
0.219993 0.1 -0.1125 0.00373594
0.150379 0.1 -0.225 0.00374222
0.150379 0.1 0.225 0.00374195
0.075776 0.1 -0.2625 0.0037472
0.075776 0.1 0.2625 0.00374717
0 0.1 -0.28201 0.00375
0 0.1 0.28201 0.00375
0.0363518 0.1 -0.28201 0.00374878
0.0363518 0.1 0.28201 0.00374877
0.287374 0.1 0 0.00372818
0.219992 0.1 -0.1875 0.00373716
0.219993 0.1 0.1875 0.00373666
0.287374 0.1 0.0710023 0.00372851
0.287374 0.1 -0.075 0.00372914
0 0.1 0.3 0.00375
0 0.1 -0.3 0.00375
0 0.1 0.31799 0.00375
0 0.1 -0.31799 0.00375
0.0363518 0.1 0.31799 0.00374902
0.0363518 0.1 -0.31799 0.00374902
0.287374 0.1 0.15 0.00372975
0.287374 0.1 -0.15 0.00373061
0.150379 0.1 -0.3 0.00374302
0.150379 0.1 0.3 0.00374285
0.219993 0.1 -0.2625 0.00373824
0.219993 0.1 0.2625 0.00373786
0.075776 0.1 0.3375 0.0037477
0.075776 0.1 -0.3375 0.00374769
0.350249 0.1 0.0375 0.00372193
0.350249 0.1 -0.0375 0.00372246
0 0.1 -0.35701 0.00375
0 0.1 0.35701 0.00375
0.0363518 0.1 0.35701 0.00374902
0.0363518 0.1 -0.35701 0.00374902
0.287374 0.1 0.225 0.00373119
0.287374 0.1 -0.225 0.00373193
0.350249 0.1 0.1125 0.00372295
0.350249 0.1 -0.1125 0.00372408
0 0.1 0.375 0.00375
0 0.1 -0.375 0.00375
0 0.1 -0.39299 0.00375
0 0.1 0.39299 0.00375
0.0363518 0.1 -0.39299 0.00374927
0.0363518 0.1 0.39299 0.00374927
0.350249 0.1 -0.1875 0.00372571
0.350249 0.1 0.1875 0.00372459
0.219992 0.1 0.3375 0.00373908
0.219993 0.1 -0.3375 0.00373933
0.150379 0.1 0.375 0.0037436
0.150379 0.1 -0.375 0.00374367
0.411108 0.1 0 0.00371779
0.287374 0.1 0.3 0.00373254
0.287374 0.1 -0.3 0.00373309
0.411108 0.1 0.0710023 0.00371793
0.411108 0.1 -0.075 0.00371889
0.075776 0.1 0.4125 0.00374822
0.075776 0.1 -0.4125 0.0037482
0 0.1 0.43201 0.00375
0 0.1 -0.43201 0.00375
0.0363518 0.1 0.43201 0.00374927
0.0363518 0.1 -0.43201 0.00374927
0.411108 0.1 -0.15 0.00372053
0.411108 0.1 0.15 0.00371916
0.350249 0.1 -0.2625 0.00372705
0.350249 0.1 0.2625 0.00372615
0 0.1 0.45 0.00375
0 0.1 -0.45 0.00375
0.219992 0.1 -0.4125 0.00373982
0.219992 0.1 0.4125 0.00373981
0 0.1 0.46799 0.00375
0 0.1 -0.46799 0.00375
0.411108 0.1 0.225 0.00372075
0.411108 0.1 -0.225 0.00372203
0.467897 0.1 -0.0375 0.00371386
0.467897 0.1 0.0375 0.0037132
0.0363518 0.1 0.46799 0.00374954
0.0363518 0.1 -0.46799 0.00374953
0.287374 0.1 0.375 0.00373362
0.287374 0.1 -0.375 0.00373397
0.150379 0.1 0.45 0.00374416
0.150379 0.1 -0.45 0.0037442
0.467897 0.1 0.1125 0.00371393
0.467897 0.1 -0.1125 0.00371547
0.350249 0.1 0.3375 0.00372753
0.350249 0.1 -0.3375 0.0037282
0.075776 0.1 -0.4875 0.00374875
0.075776 0.1 0.4875 0.00374876
0.467897 0.1 0.1875 0.00371547
0.467897 0.1 -0.1875 0.00371714
0 0.1 0.50701 0.00375
0 0.1 -0.50701 0.00375
0.0363518 0.1 -0.50701 0.00374953
0.0363518 0.1 0.50701 0.00374954
0.411108 0.1 0.3 0.00372223
0.411108 0.1 -0.3 0.00372325
0.522865 0.1 -9.1073e-18 0.00371146
0 0.1 0.525 0.00375
0 0.1 -0.525 0.00375
0.522865 0.1 0.0710023 0.00371137
0.522865 0.1 -0.075 0.00371257
0.287374 0.1 0.45 0.00373432
0.287374 0.1 -0.45 0.0037346
0.219992 0.1 -0.4875 0.00374039
0.219992 0.1 0.4875 0.00374023
0.467897 0.1 0.2625 0.00371711
0.467897 0.1 -0.2625 0.00371849
0.350249 0.1 -0.4125 0.00372896
0.350249 0.1 0.4125 0.00372853
0 0.1 0.54299 0.00375
0 0.1 -0.54299 0.00375
0.522865 0.1 -0.15 0.00371411
0.522865 0.1 0.15 0.00371235
0.0363518 0.1 0.54299 0.00374981
0.0363518 0.1 -0.54299 0.00374981
0.150379 0.1 -0.525 0.00374484
0.150379 0.1 0.525 0.00374474
0.411108 0.1 0.375 0.00372339
0.411108 0.1 -0.375 0.00372416
0.075776 0.1 0.5625 0.00374933
0.075776 0.1 -0.5625 0.00374933
0.522865 0.1 0.225 0.00371377
0.522865 0.1 -0.225 0.00371551
0.574156 0.1 0.0375 0.00370904
0.574157 0.1 -0.0375 0.00370978
0.467897 0.1 -0.3375 0.00371955
0.467897 0.1 0.3375 0.00371844
0 0.1 0.58201 0.00375
0 0.1 -0.58201 0.00375
0.0363518 0.1 0.58201 0.00374981
0.0363518 0.1 -0.58201 0.00374981
0.574156 0.1 0.1125 0.00370944
0.574156 0.1 -0.1125 0.00371122
0.287374 0.1 0.525 0.00373498
0.287374 0.1 -0.525 0.00373534
0 0.1 0.6 0.00375
0 0.1 -0.6 0.00375
0.350249 0.1 0.4875 0.00372918
0.350249 0.1 -0.4875 0.00372965
0.522865 0.1 -0.3 0.00371656
0.522865 0.1 0.3 0.00371512
0.219992 0.1 0.5625 0.00374103
0.219992 0.1 -0.5625 0.00374127
0.574156 0.1 0.1875 0.00371063
0.574157 0.1 -0.1875 0.00371266
0.411108 0.1 0.45 0.00372416
0.411108 0.1 -0.45 0.0037248
0 0.1 0.61799 0.00375
0 0.1 -0.61799 0.00375
0.150379 0.1 0.6 0.00374545
0.150379 0.1 -0.6 0.00374557
0.0363518 0.1 -0.61799 0.00375009
0.0363518 0.1 0.61799 0.00375009
0.623413 0.1 0 0.00370957
0.467897 0.1 0.4125 0.00371936
0.467897 0.1 -0.4125 0.0037202
0.623803 0.1 0.0710023 0.00370928
0.623803 0.1 -0.075 0.0037106
0.574156 0.1 0.2625 0.00371197
0.574157 0.1 -0.2625 0.0037138
0.623803 0.1 -0.15 0.00371188
0.623803 0.1 0.15 0.0037099
0.075776 0.1 0.6375 0.0037499
0.075776 0.1 -0.6375 0.00374989
0.522865 0.1 -0.375 0.00371719
0.522865 0.1 0.375 0.00371609
0 0.1 0.65701 0.00375
0 0.1 -0.65701 0.00375
0.0363518 0.1 0.65701 0.00375009
0.0363518 0.1 -0.65701 0.00375009
0.350249 0.1 0.5625 0.00372992
0.350249 0.1 -0.5625 0.00373048
0.623803 0.1 0.225 0.00371092
0.623803 0.1 -0.225 0.00371295
0.287374 0.1 0.6 0.0037358
0.287374 0.1 -0.6 0.0037362
0.574156 0.1 0.3375 0.00371303
0.574157 0.1 -0.3375 0.00371446
0.411108 0.1 0.525 0.00372476
0.411108 0.1 -0.525 0.00372544
0.67013 0.1 0.0375 0.00370927
0.67013 0.1 -0.0375 0.00371004
0.219993 0.1 0.6375 0.00374191
0.219993 0.1 -0.6375 0.00374213
0 0.1 0.675 0.00375
0 0.1 -0.675 0.00375
0.467897 0.1 0.4875 0.00371989
0.467897 0.1 -0.4875 0.00372069
0.67013 0.1 0.1125 0.00370934
0.67013 0.1 -0.1125 0.00371122
0.522865 0.1 -0.45 0.0037175
0.522865 0.1 0.45 0.0037166
0.150379 0.1 0.675 0.00374614
0.150379 0.1 -0.675 0.00374624
0.623803 0.1 0.3 0.00371187
0.623803 0.1 -0.3 0.00371357
0 0.1 -0.69299 0.00375
0 0.1 0.69299 0.00375
0.0363518 0.1 0.69299 0.00375035
0.0363518 0.1 -0.69299 0.00375033
0.67013 0.1 0.1875 0.00371005
0.67013 0.1 -0.1875 0.00371227
0.574156 0.1 0.4125 0.00371361
0.574157 0.1 -0.4125 0.00371465
0.714619 0.1 4.77049e-18 0.00371184
0.075776 0.1 0.7125 0.00375043
0.075776 0.1 -0.7125 0.00375041
0.714971 0.1 0.0710023 0.00371137
0.714971 0.1 -0.075 0.00371273
0.67013 0.1 0.2625 0.0037109
0.67013 0.1 -0.2625 0.00371293
0.411108 0.1 0.6 0.0037254
0.411108 0.1 -0.6 0.00372613
0.350249 0.1 0.6375 0.00373077
0.350249 0.1 -0.6375 0.00373134
0.623803 0.1 0.375 0.00371241
0.623803 0.1 -0.375 0.00371368
0.714971 0.1 0.15 0.0037116
0.714971 0.1 -0.15 0.00371364
0.467897 0.1 0.5625 0.00372035
0.467897 0.1 -0.5625 0.00372123
0 0.1 0.73201 0.00375
0 0.1 -0.73201 0.00375
0.0363518 0.1 0.73201 0.00375035
0.0363518 0.1 -0.73201 0.00375033
0.287374 0.1 0.675 0.00373663
0.287374 0.1 -0.675 0.003737
0.522865 0.1 0.525 0.00371681
0.522865 0.1 -0.525 0.00371768
0.219992 0.1 0.7125 0.0037427
0.219992 0.1 -0.7125 0.00374287
0.714971 0.1 -0.225 0.00371421
0.714971 0.1 0.225 0.00371209
0 0.1 0.75 0.00375
0 0.1 -0.75 0.00375
0.67013 0.1 -0.3375 0.00371299
0.67013 0.1 0.3375 0.00371144
0.574157 0.1 0.4875 0.00371366
0.574157 0.1 -0.4875 0.00371456
0.756813 0.1 0.0375 0.00371347
0.756814 0.1 -0.0375 0.00371423
0.150379 0.1 -0.75 0.00374683
0.150379 0.1 0.75 0.00374677
0.756813 0.1 0.1125 0.00371323
0.756814 0.1 -0.1125 0.0037151
0 0.1 0.76799 0.00375
0 0.1 -0.76799 0.00375
0.0363518 0.1 0.76799 0.00375057
0.0363518 0.1 -0.76799 0.00375055
0.623803 0.1 0.45 0.00371241
0.623803 0.1 -0.45 0.00371336
0.714971 0.1 0.3 0.00371245
0.714971 0.1 -0.3 0.00371424
0.756813 0.1 0.1875 0.00371343
0.756813 0.1 -0.1875 0.00371566
0.67013 0.1 -0.4125 0.00371252
0.67013 0.1 0.4125 0.00371145
0.411108 0.1 0.675 0.0037261
0.411108 0.1 -0.675 0.00372679
0.467897 0.1 0.6375 0.00372089
0.467897 0.1 -0.6375 0.0037218
0.075776 0.1 -0.7875 0.00375086
0.075776 0.1 0.7875 0.00375089
0.350249 0.1 -0.7125 0.00373211
0.350249 0.1 0.7125 0.00373161
0.791054 0.1 0.0690034 0.00371614
0.522865 0.1 0.6 0.00371694
0.522865 0.1 -0.6 0.00371786
0.797314 0.1 -3.03577e-18 0.00371769
0.797314 0.1 -0.075 0.00371853
0.756814 0.1 0.2625 0.00371367
0.756814 0.1 -0.2625 0.00371567
0.287374 0.1 -0.75 0.00373771
0.287374 0.1 0.75 0.0037374
0.574156 0.1 0.5625 0.00371345
0.574156 0.1 -0.5625 0.00371439
0 0.1 0.80701 0.00375
0 0.1 -0.80701 0.00375
0.714971 0.1 -0.375 0.00371364
0.714971 0.1 0.375 0.00371237
0.0363518 0.1 0.80701 0.00375057
0.0363518 0.1 -0.80701 0.00375055
0.797314 0.1 0.15 0.00371703
0.797314 0.1 -0.15 0.00371902
0.623803 0.1 0.525 0.00371195
0.623803 0.1 -0.525 0.0037128
0.219992 0.1 -0.7875 0.00374352
0.219992 0.1 0.7875 0.0037434
0 0.1 0.825 0.00375
0 0.1 -0.825 0.00375
0.797314 0.1 0.225 0.00371695
0.797314 0.1 -0.225 0.00371898
0.756813 0.1 -0.3375 0.00371508
0.756814 0.1 0.3375 0.0037135
0.67013 0.1 0.4875 0.00371084
0.67013 0.1 -0.4875 0.00371164
0.835106 0.1 0.0375 0.00372118
0.835106 0.1 -0.0375 0.00372189
0.150379 0.1 -0.825 0.00374734
0.150379 0.1 0.825 0.0037473
0.835106 0.1 0.1125 0.00372066
0.835106 0.1 -0.1125 0.00372241
0 0.1 -0.84299 0.00375
0 0.1 0.84299 0.00375
0.0363518 0.1 -0.84299 0.00375074
0.0363518 0.1 0.84299 0.00375076
0.714971 0.1 -0.45 0.00371247
0.714971 0.1 0.45 0.00371168
0.797314 0.1 0.3 0.00371662
0.797314 0.1 -0.3 0.0037183
0.467897 0.1 0.7125 0.00372145
0.467897 0.1 -0.7125 0.00372225
0.522865 0.1 0.675 0.00371711
0.522865 0.1 -0.675 0.00371798
0.411108 0.1 -0.75 0.00372733
0.411108 0.1 0.75 0.00372674
0.835106 0.1 -0.1875 0.00372242
0.835107 0.1 0.1875 0.00372033
0.574156 0.1 0.6375 0.00371323
0.574156 0.1 -0.6375 0.00371418
0.350249 0.1 -0.7875 0.00373277
0.350249 0.1 0.7875 0.00373236
0.756814 0.1 0.4125 0.00371282
0.756814 0.1 -0.4125 0.00371369
0.623803 0.1 0.6 0.00371128
0.623803 0.1 -0.6 0.00371213
0.075776 0.1 0.8625 0.00375128
0.075776 0.1 -0.8625 0.00375125
0.871687 0.1 -0.00399773 0.00372689
0.287374 0.1 -0.825 0.00373831
0.287374 0.1 0.825 0.00373807
0.871687 0.1 0.075 0.0037263
0.871687 0.1 -0.075 0.00372745
0.67013 0.1 0.5625 0.00370981
0.67013 0.1 -0.5625 0.00371057
0.835106 0.1 0.2625 0.00371991
0.835106 0.1 -0.2625 0.00372173
0.797314 0.1 0.375 0.00371579
0.797314 0.1 -0.375 0.00371686
0 0.1 -0.88201 0.00375
0 0.1 0.88201 0.00375
0.0363518 0.1 0.88201 0.00375076
0.0363518 0.1 -0.88201 0.00375074
0.871687 0.1 0.15 0.00372568
0.871687 0.1 -0.15 0.00372747
0.714971 0.1 0.525 0.00371038
0.714971 0.1 -0.525 0.00371097
0.219992 0.1 0.8625 0.00374398
0.219993 0.1 -0.8625 0.00374407
0 0.1 0.9 0.00375
0 0.1 -0.9 0.00375
0.756813 0.1 0.4875 0.00371135
0.756814 0.1 -0.4875 0.00371181
0.871687 0.1 0.225 0.00372499
0.871687 0.1 -0.225 0.00372679
0.835106 0.1 0.3375 0.00371896
0.835106 0.1 -0.3375 0.00372029
0.90582 0.1 -0.0375 0.00373238
0.905821 0.1 0.0375 0.00373176
0.150379 0.1 0.9 0.00374775
0.150379 0.1 -0.9 0.00374776
0.90582 0.1 0.1125 0.00373099
0.90582 0.1 -0.1125 0.00373252
0.522865 0.1 -0.75 0.003718
0.522865 0.1 0.75 0.00371725
0.574156 0.1 0.7125 0.00371304
0.574156 0.1 -0.7125 0.00371391
0.797314 0.1 0.45 0.00371427
0.797314 0.1 -0.45 0.00371471
0.467897 0.1 -0.7875 0.00372253
0.467897 0.1 0.7875 0.0037219
0 0.1 0.91799 0.00375
0 0.1 -0.91799 0.00375
0.0363518 0.1 0.91799 0.00375091
0.0363518 0.1 -0.91799 0.00375089
0.623803 0.1 0.675 0.00371057
0.623803 0.1 -0.675 0.00371138
0.411108 0.1 -0.825 0.00372772
0.411108 0.1 0.825 0.00372727
0.871687 0.1 0.3 0.00372392
0.871687 0.1 -0.3 0.00372529
0.67013 0.1 0.6375 0.00370862
0.67013 0.1 -0.6375 0.00370937
0.90582 0.1 0.1875 0.00373014
0.905821 0.1 -0.1875 0.00373195
0.350249 0.1 0.8625 0.00373299
0.350249 0.1 -0.8625 0.00373331
0.835106 0.1 0.4125 0.00371745
0.835106 0.1 -0.4125 0.00371796
0.714971 0.1 0.6 0.00370873
0.714971 0.1 -0.6 0.00370926
0.93886 0.1 -0.00399773 0.00373881
0.075776 0.1 0.9375 0.0037516
0.075776 0.1 -0.9375 0.00375156
0.93886 0.1 0.075 0.00373818
0.93886 0.1 -0.075 0.00373918
0.756813 0.1 0.5625 0.00370932
0.756814 0.1 -0.5625 0.00370965
0.90582 0.1 0.2625 0.00372902
0.905821 0.1 -0.2625 0.0037305
0.287374 0.1 0.9 0.00373862
0.287374 0.1 -0.9 0.00373878
0.871687 0.1 0.375 0.00372223
0.871687 0.1 -0.375 0.00372294
0.93886 0.1 0.15 0.0037372
0.93886 0.1 -0.15 0.00373874
0.797314 0.1 0.525 0.003712
0.797314 0.1 -0.525 0.0037121
0 0.1 0.95701 0.00375
0 0.1 -0.95701 0.00375
0.0363518 0.1 0.95701 0.00375091
0.0363518 0.1 -0.95701 0.00375089
0.219992 0.1 0.9375 0.00374446
0.219992 0.1 -0.9375 0.00374449
0.93886 0.1 0.225 0.00373593
0.93886 0.1 -0.225 0.00373742
0.90582 0.1 0.3375 0.00372724
0.905821 0.1 -0.3375 0.00372811
0.835107 0.1 0.4875 0.00371506
0.835107 0.1 -0.4875 0.00371499
0.969689 0.1 0.0375 0.00374513
0.969689 0.1 -0.0375 0.00374568
0.574156 0.1 0.7875 0.00371283
0.574156 0.1 -0.7875 0.00371354
0 0.1 0.975 0.00375
0 0.1 -0.975 0.00375
0.623803 0.1 0.75 0.00370987
0.623803 0.1 -0.75 0.00371055
0.96969 0.1 0.1125 0.00374414
0.96969 0.1 -0.1125 0.00374546
0.522865 0.1 -0.825 0.00371788
0.522865 0.1 0.825 0.0037173
0.67013 0.1 0.7125 0.00370742
0.67013 0.1 -0.7125 0.00370808
0.871687 0.1 0.45 0.00371979
0.871687 0.1 -0.45 0.00371976
0.467897 0.1 0.8625 0.00372218
0.467897 0.1 -0.8625 0.00372264
0.714971 0.1 -0.675 0.00370741
0.714971 0.1 0.675 0.00370696
0.93886 0.1 0.3 0.00373413
0.93886 0.1 -0.3 0.0037351
0.150379 0.1 0.975 0.0037481
0.150379 0.1 -0.975 0.00374808
0.969689 0.1 -0.1875 0.00374435
0.969689 0.1 0.1875 0.00374283
0.411108 0.1 0.9 0.00372766
0.411108 0.1 -0.9 0.00372798
0.756813 0.1 0.6375 0.00370701
0.756813 0.1 -0.6375 0.00370729
0.990306 0.1 3.46945e-18 0.00374683
0 0.1 0.99299 0.00375
0 0.1 -0.99299 0.00375
0.990306 0.1 0.075 0.00374606
0.990306 0.1 -0.075 0.00374695
0.0363518 0.1 0.99299 0.00375102
0.0363518 0.1 -0.99299 0.003751
0.905821 0.1 0.4125 0.00372476
0.905821 0.1 -0.4125 0.00372488
0.797314 0.1 0.6 0.00370924
0.797314 0.1 -0.6 0.00370921
0.350249 0.1 0.9375 0.00373349
0.350249 0.1 -0.9375 0.0037337
0.990306 0.1 0.15 0.00374484
0.990306 0.1 -0.15 0.00374619
0.969689 0.1 -0.2625 0.0037422
0.969689 0.1 0.2625 0.00374107
0.835106 0.1 0.5625 0.00371192
0.835106 0.1 -0.5625 0.00371162
0.93886 0.1 0.375 0.00373158
0.93886 0.1 -0.375 0.00373182
0.075776 0.1 1.0125 0.00375183
0.075776 0.1 -1.0125 0.00375179
0.990306 0.1 0.225 0.00374317
0.990306 0.1 -0.225 0.00374442
0.287374 0.1 0.975 0.00373904
0.287374 0.1 -0.975 0.00373913
0.871687 0.1 0.525 0.00371649
0.871687 0.1 -0.525 0.00371594
1.02149 0.1 -0.0369628 0.00375334
1.02149 0.1 0.0369628 0.00375433
0.969689 0.1 -0.3375 0.00373893
0.96969 0.1 0.3375 0.00373854
1.02149 0.1 0.110888 0.00375322
1.02149 0.1 -0.110888 0.0037543
0.90582 0.1 0.4875 0.00372138
0.905821 0.1 -0.4875 0.00372073
0 0.1 1.03201 0.00375
0 0.1 -1.03201 0.00375
0.0363518 0.1 1.03201 0.00375102
0.0363518 0.1 -1.03201 0.003751
0.67013 0.1 0.7875 0.00370625
0.67013 0.1 -0.7875 0.00370673
0.623803 0.1 -0.825 0.00370963
0.623803 0.1 0.825 0.00370914
0.990306 0.1 0.3 0.00374086
0.990306 0.1 -0.3 0.00374155
0.219992 0.1 -1.0125 0.0037448
0.219992 0.1 1.0125 0.00374481
0.574156 0.1 -0.8625 0.00371306
0.574157 0.1 0.8625 0.00371254
0.714971 0.1 0.75 0.00370516
0.714971 0.1 -0.75 0.00370547
1.02149 0.1 0.184814 0.00375159
1.02149 0.1 -0.184814 0.00375283
0.756814 0.1 0.7125 0.00370463
0.756813 0.1 -0.7125 0.00370479
0.522865 0.1 0.9 0.00371725
0.522865 0.1 -0.9 0.00371764
0.93886 0.1 0.45 0.00372817
0.93886 0.1 -0.45 0.00372748
1.04168 0.1 0 0.00375972
1.04168 0.1 0.0729162 0.00375894
1.04168 0.1 -0.0729162 0.00375966
0.797314 0.1 0.675 0.00370625
0.797314 0.1 -0.675 0.00370611
0.467897 0.1 0.9375 0.00372235
0.467897 0.1 -0.9375 0.00372264
0 0.1 1.05 0.00375
0 0.1 -1.05 0.00375
0.835106 0.1 0.6375 0.00370838
0.835106 0.1 -0.6375 0.00370797
1.04168 0.1 0.145832 0.00375751
1.04168 0.1 -0.145832 0.00375862
1.02149 0.1 0.25874 0.00374939
1.02149 0.1 -0.25874 0.00375025
0.969689 0.1 0.4125 0.00373514
0.969689 0.1 -0.4125 0.00373475
0.411108 0.1 0.975 0.00372792
0.411108 0.1 -0.975 0.00372811
0.871687 0.1 0.6 0.00371253
0.871687 0.1 -0.6 0.0037117
1.0579 0.1 -0.0360525 0.00376412
1.0579 0.1 0.0360525 0.00376417
0.990306 0.1 0.375 0.0037377
0.990306 0.1 -0.375 0.00373762
0.150379 0.1 1.05 0.00374834
0.150379 0.1 -1.05 0.0037483
1.0579 0.1 -0.108157 0.00376393
1.0579 0.1 0.108157 0.00376302
1.04168 0.1 0.218749 0.0037555
1.04168 0.1 -0.218749 0.0037565
0.90582 0.1 0.5625 0.00371713
0.905821 0.1 -0.5625 0.00371597
0 0.1 -1.06799 0.00375
0 0.1 1.06799 0.00375
0.0363518 0.1 -1.06799 0.00375108
0.0363518 0.1 1.06799 0.0037511
0.350249 0.1 1.0125 0.00373385
0.350249 0.1 -1.0125 0.00373396
1.0579 0.1 -0.180262 0.00376229
1.0579 0.1 0.180262 0.00376125
1.02149 0.1 0.332665 0.00374637
1.02149 0.1 -0.332665 0.00374648
0.93886 0.1 0.525 0.00372374
0.93886 0.1 -0.525 0.00372228
1.08012 0.1 1.70581e-17 0.00377084
1.04168 0.1 0.291665 0.00375277
1.04168 0.1 -0.291665 0.0037532
1.08012 0.1 0.0709941 0.00377009
1.08012 0.1 -0.074001 0.00377069
0.969689 0.1 -0.4875 0.00372899
0.96969 0.1 0.4875 0.00373082
1.0579 0.1 0.252367 0.00375885
1.0579 0.1 -0.252367 0.0037595
0.990306 0.1 -0.45 0.00373238
0.990306 0.1 0.45 0.00373363
0.287374 0.1 -1.05 0.00373935
0.287374 0.1 1.05 0.00373933
1.08012 0.1 0.141988 0.00376858
1.08012 0.1 -0.141988 0.0037695
0.075776 0.1 1.0875 0.003752
0.075776 0.1 -1.0875 0.00375195
0.714971 0.1 0.825 0.00370336
0.714971 0.1 -0.825 0.00370345
0.756813 0.1 0.7875 0.00370224
0.756813 0.1 -0.7875 0.0037022
0.67013 0.1 0.8625 0.00370504
0.67013 0.1 -0.8625 0.00370529
0.797314 0.1 -0.75 0.00370287
0.797314 0.1 0.75 0.0037032
0.623803 0.1 0.9 0.00370835
0.623803 0.1 -0.9 0.00370862
0.835106 0.1 0.7125 0.00370471
0.835107 0.1 -0.7125 0.00370414
0.574156 0.1 0.9375 0.0037122
0.574156 0.1 -0.9375 0.00371249
1.02149 0.1 -0.406591 0.00374165
1.02149 0.1 0.406591 0.00374241
1.08012 0.1 -0.212982 0.00376722
1.08012 0.1 0.212982 0.00376641
1.10076 0.1 -0.0349809 0.00377711
1.10076 0.1 0.0349809 0.00377684
0.871687 0.1 0.675 0.00370819
0.871687 0.1 -0.675 0.00370717
1.04168 0.1 0.364581 0.00374914
1.04168 0.1 -0.364581 0.00374876
1.10076 0.1 0.104943 0.00377563
1.10076 0.1 -0.104943 0.00377642
0.522865 0.1 0.975 0.0037171
0.522865 0.1 -0.975 0.00371729
1.0579 0.1 0.324472 0.00375562
1.0579 0.1 -0.324472 0.0037555
0 0.1 -1.10701 0.00375
0 0.1 1.10701 0.00375
0.0363518 0.1 1.10701 0.0037511
0.0363518 0.1 -1.10701 0.00375108
0.90582 0.1 0.6375 0.00371223
0.905821 0.1 -0.6375 0.00371082
0.219992 0.1 1.0875 0.00374505
0.219992 0.1 -1.0875 0.00374499
0.93886 0.1 0.6 0.00371843
0.93886 0.1 -0.6 0.00371663
1.10076 0.1 0.174905 0.00377374
1.10076 0.1 -0.174905 0.00377465
0.467897 0.1 1.0125 0.00372238
0.467897 0.1 -1.0125 0.00372253
1.08012 0.1 0.283976 0.0037635
1.08012 0.1 -0.283976 0.00376373
1.11928 0.1 -0.00290737 0.00378263
1.11711 0.1 -0.0710826 0.00378131
0.990306 0.1 0.525 0.00372834
0.990306 0.1 -0.525 0.00372616
0.969689 0.1 0.5625 0.00372506
0.96969 0.1 -0.5625 0.00372289
1.11928 0.1 0.0690357 0.0037819
0 0.1 1.125 0.00375
0 0.1 -1.125 0.00375
1.11807 0.1 -0.138193 0.00378033
0.411108 0.1 -1.05 0.00372813
0.411108 0.1 1.05 0.00372805
1.10076 0.1 -0.244866 0.00377172
1.10076 0.1 0.244866 0.00377115
1.11928 0.1 0.138072 0.00378033
1.02149 0.1 0.480517 0.00373747
1.02149 0.1 -0.480517 0.00373512
1.0579 0.1 -0.396577 0.00375034
1.0579 0.1 0.396577 0.00375139
1.04168 0.1 0.437497 0.00374454
1.04168 0.1 -0.437497 0.00374287
0.150379 0.1 1.125 0.0037485
0.150379 0.1 -1.125 0.00374844
1.08012 0.1 0.354971 0.00375966
1.08012 0.1 -0.354971 0.00375904
1.11807 0.1 -0.207288 0.00377796
1.11928 0.1 0.207107 0.00377805
0.350249 0.1 1.0875 0.00373407
0.350249 0.1 -1.0875 0.0037341
0 0.1 1.14299 0.00375
0 0.1 -1.14299 0.00375
0.0363518 0.1 1.14299 0.00375115
0.0363518 0.1 -1.14299 0.00375113
1.14316 0.1 -0.0339211 0.00379007
1.14316 0.1 0.0339211 0.00379025
1.10076 0.1 0.314829 0.00376772
1.10076 0.1 -0.314829 0.00376754
0.797314 0.1 0.825 0.00370013
0.797314 0.1 -0.825 0.00369953
0.756814 0.1 -0.8625 0.00369956
0.756814 0.1 0.8625 0.00369987
1.14316 0.1 -0.101763 0.00378963
1.14316 0.1 0.101763 0.00378906
0.835106 0.1 0.7875 0.00370097
0.835107 0.1 -0.7875 0.00370015
0.714971 0.1 0.9 0.00370154
0.714971 0.1 -0.9 0.00370137
0.871687 0.1 0.75 0.0037037
0.871687 0.1 -0.75 0.00370245
1.11807 0.1 -0.276385 0.00377438
0.67013 0.1 0.9375 0.00370376
0.67013 0.1 -0.9375 0.00370376
0.905821 0.1 0.7125 0.00370705
0.905821 0.1 -0.7125 0.0037054
1.11928 0.1 0.276143 0.003775
1.14316 0.1 -0.169605 0.00378778
1.14316 0.1 0.169605 0.0037871
0.93886 0.1 0.675 0.00371269
0.93886 0.1 -0.675 0.00371064
1.15704 0.1 0 0.00379464
1.0579 0.1 0.468682 0.00374616
1.0579 0.1 -0.468682 0.00374347
0.623803 0.1 0.975 0.00370751
0.623803 0.1 -0.975 0.00370754
0.990306 0.1 0.6 0.00372204
0.990306 0.1 -0.6 0.00371952
1.15704 0.1 -0.0671479 0.00379432
1.15704 0.1 0.0671479 0.00379394
1.04168 0.1 0.510414 0.00373866
1.04168 0.1 -0.510414 0.00373583
0.969689 0.1 0.6375 0.00371877
0.96969 0.1 -0.6375 0.00371632
1.08012 0.1 0.425965 0.00375481
1.08012 0.1 -0.425965 0.00375288
0.287374 0.1 -1.125 0.00373946
0.287374 0.1 1.125 0.0037395
1.02149 0.1 0.554443 0.00373101
1.02149 0.1 -0.554443 0.00372815
0.574156 0.1 -1.0125 0.00371179
0.574156 0.1 1.0125 0.00371175
1.15704 0.1 -0.134296 0.00379299
1.15704 0.1 0.134296 0.00379234
0.075776 0.1 1.1625 0.00375211
0.075776 0.1 -1.1625 0.00375206
1.10076 0.1 0.384791 0.00376327
1.10076 0.1 -0.384791 0.00376215
1.14316 0.1 -0.237448 0.00378476
1.14316 0.1 0.237448 0.0037844
1.11807 0.1 -0.345481 0.00376957
1.11928 0.1 0.345179 0.00377102
0.522865 0.1 1.05 0.00371683
0.522865 0.1 -1.05 0.00371684
1.15704 0.1 -0.201444 0.00379055
1.15704 0.1 0.201444 0.00378998
1.1744 0.1 -0.0331401 0.00380017
1.1744 0.1 0.0331401 0.0037995
1.1744 0.1 -0.0994202 0.00379935
1.1744 0.1 0.0994202 0.00379882
0 0.1 1.18201 0.00375
0 0.1 -1.18201 0.00375
0.0363518 0.1 1.18201 0.00375115
0.0363518 0.1 -1.18201 0.00375113
0.219992 0.1 1.1625 0.00374517
0.219993 0.1 -1.1625 0.00374508
1.14316 0.1 -0.30529 0.00378051
1.14316 0.1 0.30529 0.00378087
0.467897 0.1 1.0875 0.00372231
0.467897 0.1 -1.0875 0.00372232
1.1744 0.1 -0.1657 0.0037975
1.1744 0.1 0.1657 0.00379684
1.15704 0.1 -0.268592 0.00378693
1.15704 0.1 0.268592 0.00378684
1.0579 0.1 0.540787 0.00373942
1.0579 0.1 -0.540787 0.00373592
1.08012 0.1 0.496959 0.00374869
1.08012 0.1 -0.496959 0.0037454
1.10076 0.1 0.454752 0.0037578
1.10076 0.1 -0.454752 0.003755
1.11807 0.1 -0.414577 0.00376327
1.11928 0.1 0.414214 0.00376601
1.04168 0.1 0.58333 0.00373166
1.04168 0.1 -0.58333 0.00372832
1.19529 0.1 0.0650961 0.00380709
1.1744 0.1 0.231981 0.0037941
1.1744 0.1 -0.231981 0.00379451
0.411108 0.1 1.125 0.00372806
0.411108 0.1 -1.125 0.00372803
1.19808 0.1 3.5851e-17 0.00380863
0.990306 0.1 0.675 0.00371531
0.990306 0.1 -0.675 0.0037125
1.02149 0.1 0.628368 0.00372395
1.02149 0.1 -0.628368 0.00372067
1.19808 0.1 -0.0650961 0.00380824
0 0.1 1.2 0.00375
0 0.1 -1.2 0.00375
0.871687 0.1 -0.825 0.00369764
0.871687 0.1 0.825 0.00369916
0.905821 0.1 -0.7875 0.00369978
0.90582 0.1 0.7875 0.00370173
0.835106 0.1 0.8625 0.00369723
0.835106 0.1 -0.8625 0.00369606
0.93886 0.1 0.75 0.00370677
0.93886 0.1 -0.75 0.00370443
0.797314 0.1 0.9 0.00369705
0.797314 0.1 -0.9 0.00369617
1.14316 0.1 -0.373132 0.00377497
1.14316 0.1 0.373132 0.00377633
0.969689 0.1 0.7125 0.00371222
0.969689 0.1 -0.7125 0.00370955
1.15704 0.1 -0.33574 0.00378206
1.15704 0.1 0.33574 0.00378278
0.756813 0.1 0.9375 0.00369747
0.756814 0.1 -0.9375 0.00369687
1.19808 0.1 0.130192 0.00380623
1.19808 0.1 -0.130192 0.00380686
0.714971 0.1 0.975 0.00369969
0.714971 0.1 -0.975 0.00369929
0.150379 0.1 1.2 0.00374857
0.150379 0.1 -1.2 0.0037485
1.20938 0.1 -0.0322656 0.00381202
1.20938 0.1 0.0322656 0.00381194
1.19808 0.1 0.178844 0.00380396
1.1744 0.1 0.298261 0.00379055
1.1744 0.1 -0.298261 0.00379032
1.20938 0.1 -0.0967968 0.00381114
1.20938 0.1 0.0967968 0.00381073
1.19808 0.1 -0.195288 0.00380441
0.350249 0.1 1.1625 0.00373415
0.350249 0.1 -1.1625 0.0037341
0.67013 0.1 1.0125 0.00370249
0.67013 0.1 -1.0125 0.0037023
0 0.1 1.21799 0.00375
0 0.1 -1.21799 0.00375
1.11807 0.1 -0.483674 0.00375551
0.0363518 0.1 1.21799 0.00375118
0.0363518 0.1 -1.21799 0.00375115
1.11928 0.1 0.48325 0.00375976
1.10076 0.1 -0.524714 0.00374683
1.10076 0.1 0.524714 0.00375083
1.20938 0.1 -0.161328 0.00380925
1.20938 0.1 0.161328 0.00380871
1.08012 0.1 0.567953 0.00374135
1.08012 0.1 -0.567953 0.0037374
0.623803 0.1 1.05 0.00370662
0.623803 0.1 -1.05 0.00370645
1.0579 0.1 -0.612892 0.00372799
1.0579 0.1 0.612892 0.00373191
1.15704 0.1 -0.402888 0.00377571
1.15704 0.1 0.402888 0.00377769
1.14316 0.1 0.440974 0.00377072
1.14316 0.1 -0.440974 0.00376776
1.19808 0.1 -0.260384 0.00380081
1.19808 0.1 0.260384 0.00380077
1.2267 0.1 3.64292e-18 0.00381887
1.2267 0.1 -0.0636649 0.00381842
1.2267 0.1 0.0636649 0.00381825
1.1744 0.1 -0.364541 0.00378486
1.1744 0.1 0.364541 0.00378603
0.574156 0.1 1.0875 0.00371117
0.574156 0.1 -1.0875 0.00371103
1.20938 0.1 -0.225859 0.00380625
1.20938 0.1 0.225859 0.00380593
1.04168 0.1 0.656246 0.00372408
1.04168 0.1 -0.656246 0.00372033
1.22587 0.1 0.12733 0.00381603
1.2267 0.1 -0.12733 0.00381698
0.287374 0.1 -1.2 0.00373943
0.287374 0.1 1.2 0.00373952
1.02149 0.1 0.702294 0.00371642
1.02149 0.1 -0.702294 0.00371281
0.075776 0.1 1.2375 0.00375216
0.075776 0.1 -1.2375 0.00375211
0.522865 0.1 1.125 0.00371645
0.522865 0.1 -1.125 0.00371633
1.2267 0.1 0.190397 0.00381401
1.2267 0.1 -0.190994 0.00381447
1.19808 0.1 0.32548 0.00379669
1.19808 0.1 -0.32548 0.00379599
0.990306 0.1 0.75 0.00370837
0.990306 0.1 -0.75 0.00370524
1.24274 0.1 -0.0314313 0.00382445
1.24274 0.1 0.0314313 0.00382444
1.20938 0.1 -0.29039 0.00380209
1.20938 0.1 0.29039 0.00380233
1.24274 0.1 -0.0942942 0.00382348
1.24274 0.1 0.0942942 0.00382323
1.11807 0.1 -0.552769 0.00374712
1.11928 0.1 0.552285 0.00375218
1.15704 0.1 -0.470036 0.00376779
1.15704 0.1 0.470036 0.0037714
0.969689 0.1 0.7875 0.0037056
0.96969 0.1 -0.7875 0.00370257
0.93886 0.1 -0.825 0.00369814
0.93886 0.1 0.825 0.00370077
0.905821 0.1 0.8625 0.00369642
0.905821 0.1 -0.8625 0.00369431
1.1744 0.1 -0.430821 0.00377774
1.1744 0.1 0.430821 0.00378043
1.10076 0.1 0.594676 0.0037428
1.10076 0.1 -0.594676 0.00373848
1.14316 0.1 -0.508816 0.00375928
1.14316 0.1 0.508816 0.00376375
1.24274 0.1 0.157157 0.00382116
1.24274 0.1 -0.157157 0.0038215
1.2267 0.1 0.254158 0.00381087
1.2267 0.1 -0.254659 0.00381085
0.871687 0.1 -0.9 0.00369285
0.871687 0.1 0.9 0.00369468
0.467897 0.1 1.1625 0.00372213
0.467897 0.1 -1.1625 0.00372203
1.08012 0.1 0.638947 0.00373331
1.08012 0.1 -0.638947 0.00372888
1.25511 0.1 1.27213e-17 0.00383001
0.835106 0.1 0.9375 0.0036935
0.835106 0.1 -0.9375 0.00369209
1.25511 0.1 -0.0622446 0.00382946
1.25511 0.1 0.0622446 0.00382942
0.219992 0.1 1.2375 0.00374518
0.219992 0.1 -1.2375 0.00374508
0 0.1 -1.25701 0.00375
0 0.1 1.25701 0.00375
0.0363518 0.1 -1.25701 0.00375115
0.0363518 0.1 1.25701 0.00375118
0.797314 0.1 0.975 0.00369399
0.797314 0.1 -0.975 0.00369289
1.19808 0.1 0.389737 0.00379161
1.19808 0.1 -0.390576 0.00378974
1.0579 0.1 -0.684997 0.00371947
1.0579 0.1 0.684997 0.00372385
1.20938 0.1 -0.354921 0.00379668
1.20938 0.1 0.354921 0.00379779
1.25511 0.1 0.124489 0.00382776
1.25511 0.1 -0.124489 0.00382788
1.24274 0.1 -0.220019 0.00381842
1.24274 0.1 0.220019 0.00381828
0.756814 0.1 1.0125 0.00369507
0.756814 0.1 -1.0125 0.0036943
1.25305 0.1 0.186734 0.00382403
1.2267 0.1 0.317097 0.00380674
1.2267 0.1 -0.318324 0.00380604
0.411108 0.1 1.2 0.00372794
0.411108 0.1 -1.2 0.00372783
1.25511 0.1 -0.186734 0.00382524
0.714971 0.1 1.05 0.00369791
0.714971 0.1 -1.05 0.00369734
1.04168 0.1 0.729162 0.00371607
1.04168 0.1 -0.729162 0.0037119
1.24274 0.1 -0.282882 0.00381424
1.24274 0.1 0.282882 0.00381456
0 0.1 1.275 0.00375
0 0.1 -1.275 0.00375
1.1744 0.1 -0.497102 0.00376909
1.1744 0.1 0.497102 0.00377355
1.15704 0.1 -0.537184 0.00375908
1.15704 0.1 0.537184 0.00376372
1.2756 0.1 -0.03061 0.00383883
1.2756 0.1 0.03061 0.0038389
0.67013 0.1 1.0875 0.00370126
0.67013 0.1 -1.0875 0.00370087
1.25305 0.1 0.248978 0.00382117
1.2756 0.1 0.09183 0.0038377
1.2756 0.1 -0.09183 0.00383768
1.11807 0.1 -0.621866 0.00373822
1.25511 0.1 -0.248978 0.00382149
1.20938 0.1 0.419453 0.00379221
1.20938 0.1 -0.419453 0.00378968
1.11928 0.1 0.621322 0.00374378
1.14316 0.1 -0.576659 0.00375053
1.14316 0.1 0.576659 0.00375549
1.19808 0.1 0.454694 0.00378539
1.19808 0.1 -0.455673 0.00378183
1.02149 0.1 0.776219 0.00370868
1.02149 0.1 -0.776219 0.00370468
0.150379 0.1 1.275 0.00374858
0.150379 0.1 -1.275 0.00374849
1.2267 0.1 0.381603 0.00380164
1.2756 0.1 -0.15305 0.0038355
1.2756 0.1 0.15305 0.00383554
1.2267 0.1 -0.381989 0.00379984
1.10076 0.1 0.664638 0.00373429
1.10076 0.1 -0.664638 0.00372932
0.350249 0.1 1.2375 0.00373404
0.350249 0.1 -1.2375 0.00373392
0.623803 0.1 1.125 0.00370569