# kMean  POINT_DATA 91132
# x  y  z  kMean
0 0 0 0.00565888
0 0.00368111 0 0.00375
0 0.00749587 0 0.00375
0 0.0114491 0 0.00375
0 0.0155459 0 0.00375
0 0.0197915 0 0.00375
0 0.0241911 0 0.00375
0 0.0287506 0 0.00375
0 0.0334755 0 0.00375
0 0.038372 0 0.00375
0 0.0434463 0 0.00375
0 0.0487048 0 0.00375
0 0.0541543 0 0.00375
0 0.0598016 0 0.00375
0 0.0656539 0 0.00375
0 0.0717187 0 0.00375
0.075776 0.00184056 0 0.00995745
0.075776 0.00558849 3.46945e-18 0.00345496
0.075776 0.00947249 0 0.00306737
0.075776 0.0134975 0 0.00343479
0.075776 0.0176687 0 0.0035931
0 0.0780037 0 0.00375
0.075776 0.0219913 0 0.00365398
0.075776 0.0264709 -3.46945e-18 0.00368492
0.075776 0.031113 3.46945e-18 0.00370273
0.075776 0.0359238 0 0.00371403
0 0.0845169 0 0.00375
0.075776 0.0409091 0 0.00372171
0.075776 0.0460755 0 0.00372721
0 0.0912666 0 0.00375
0.075776 0.0514296 0 0.00373131
0.075776 0.0569779 0 0.00373444
0 0.0982613 0 0.00375
0.075776 0.0627277 -3.46945e-18 0.00373696
0.075776 0.0686863 0 0.0037391
0 0.10551 0 0.00375
0.075776 0.0748612 0 0.00374094
0.075776 0.0812603 0 0.0037425
0 0.113022 0 0.00375
0.075776 0.0878918 0 0.00374382
0 0.120806 0 0.00375
0.075776 0.0947639 0 0.00374493
0.075776 0.101886 -3.46945e-18 0.00374586
0 0.128874 0 0.00375
0.075776 0.109266 0 0.00374663
0 0.137234 0 0.00375
0.075776 0.116914 0 0.00374727
0 0.145897 0 0.00375
0.075776 0.12484 0 0.00374781
0.151552 0 0 0.00623639
0.151552 0.00368111 0 0.00438027
0.151552 0.00749587 0 0.00260506
0.151552 0.0114491 0 0.00293213
0.151552 0.0155459 0 0.00329979
0.151552 0.0197915 0 0.00347846
0.075776 0.133054 -3.46945e-18 0.00374827
0.151552 0.0241911 0 0.00356772
0.151552 0.0287506 0 0.00361986
0 0.154876 0 0.00375
0.151552 0.0334755 0 0.00365303
0.151552 0.038372 0 0.00367538
0.151552 0.0434463 0 0.00369113
0.151552 0.0487048 0 0.00370266
0.075776 0.141565 0 0.00374868
0.151552 0.0541543 0 0.00371138
0.151552 0.0598016 0 0.00371816
0 0.16418 0 0.00375
0.151552 0.0656539 0 0.00372358
0.151552 0.0717187 0 0.00372801
0.075776 0.150387 -3.46945e-18 0.00374905
0.151552 0.0780037 0 0.00373166
0.151552 0.0845169 0 0.00373469
0 0.173822 0 0.00375
0.075776 0.159528 -3.46945e-18 0.0037494
0.151552 0.0912666 0 0.00373722
0.151552 0.0982613 0 0.00373934
0 0.183814 0 0.00375
0.151552 0.10551 0 0.00374113
0.075776 0.169001 0 0.00374973
0.151552 0.113022 0 0.00374267
0.151552 0.120806 0 0.00374399
0 0.194169 0 0.00375
0.075776 0.178818 3.46945e-18 0.00375006
0.151552 0.128874 0 0.00374514
0.075776 0.188991 0 0.00375038
0.151552 0.137234 0 0.00374613
0 0.2049 0 0.00375
0.151552 0.145897 0 0.00374698
0.075776 0.199534 0 0.00375069
0 0.21602 0 0.00375
0.151552 0.154876 0 0.00374773
0.219992 0.00184055 0 0.00280169
0.219992 0.00558849 -3.46945e-18 0.00166475
0.219992 0.00947248 3.46945e-18 0.00233408
0.219992 0.0134975 -3.46945e-18 0.00294135
0.219992 0.0176687 3.46945e-18 0.00326287
0.219992 0.0219913 3.46945e-18 0.00342621
0.219993 0.0264709 0 0.00352141
0.219992 0.031113 -3.46945e-18 0.00358178
0.219992 0.0359237 3.46945e-18 0.00362211
0.151552 0.16418 0 0.00374839
0.075776 0.21046 3.46945e-18 0.003751
0.219992 0.0409092 0 0.0036502
0.219992 0.0460755 0 0.00367051
0.219993 0.0514296 0 0.00368569
0.219992 0.0569779 0 0.00369737
0 0.227544 0 0.00375
0.219992 0.0627277 0 0.00370656
0.219992 0.0686863 -3.46945e-18 0.00371392
0.151552 0.173822 0 0.00374899
0.219992 0.0748612 3.46945e-18 0.00371991
0.075776 0.221782 0 0.0037513
0.219992 0.0812603 0 0.00372483
0.219992 0.0878917 0 0.00372891
0.151552 0.183814 0 0.00374953
7.47806e-17 0.239487 0 0.00375
0.219993 0.0947639 0 0.00373231
0.219992 0.101886 0 0.00373518
0.075776 0.233515 3.46945e-18 0.00375156
0.219993 0.109266 0 0.00373764
0.151552 0.194169 0 0.00375004
0.219992 0.116914 3.46945e-18 0.00373978
0 0.251863 0 0.00375
0.219992 0.12484 -3.46945e-18 0.00374165
0.151552 0.2049 0 0.00375052
0.075776 0.245675 0 0.00375176
0.219992 0.133054 0 0.00374327
0.219992 0.141566 0 0.00374465
0.151552 0.21602 0 0.00375096
0 0.264688 0 0.00375
0.219993 0.150387 0 0.00374584
0.075776 0.258275 3.46945e-18 0.00375188
0.219992 0.159528 0 0.00374686
0.151552 0.227544 0 0.00375136
0.219993 0.169001 -3.46945e-18 0.00374775
0 0.27798 0 0.00375
0.075776 0.271334 0 0.00375194
0.151552 0.239487 3.70071e-18 0.00375172
0.219992 0.178818 0 0.00374854
0.288433 0 0 0.0018592
0.288433 0.00368111 0 0.00158621
0.288433 0.00749587 0 0.00178459
0.288433 0.0114491 0 0.00257154
0.288433 0.0155459 0 0.00305013
0.288433 0.0197915 0 0.00328852
0.288433 0.0241911 0 0.00341111
0.288433 0.0287506 0 0.0034923
0.219993 0.188991 0 0.00374926
0.288433 0.0334755 0 0.00355089
0.288433 0.038372 0 0.00359363
0.288433 0.0434463 0 0.00362529
7.47806e-17 0.291753 0 0.00375
0.288433 0.0487048 0 0.00364923
0.288433 0.0541543 0 0.0036677
0.151552 0.251863 0 0.00375202
0.288433 0.0598016 0 0.00368222
0.075776 0.284867 0 0.00375194
0.288433 0.0656539 0 0.00369382
0.219992 0.199534 0 0.00374991
0.288433 0.0717187 0 0.00370319
0.288433 0.0780037 0 0.00371084
0.288433 0.0845169 0 0.00371713
0.288433 0.0912666 0 0.00372243
0.219992 0.21046 0 0.00375051
0.288433 0.0982613 0 0.00372705
0.151552 0.264688 3.70071e-18 0.00375226
0 0.306027 0 0.00375
0.288433 0.10551 0 0.00373116
0.075776 0.29889 -3.46945e-18 0.0037519
0.288433 0.113022 0 0.00373477
0.219992 0.221782 0 0.00375105
0.288433 0.120806 0 0.00373793
0.288433 0.128874 0 0.00374067
0.151552 0.27798 0 0.00375245
0.288433 0.137234 0 0.00374305
0 0.320819 0 0.00375
0.219993 0.233515 0 0.00375155
0.075776 0.313423 3.46945e-18 0.00375182
0.288433 0.145897 0 0.0037451
0.288433 0.154876 0 0.00374686
0.151552 0.291753 0 0.00375259
0.219993 0.245675 0 0.003752
0.288433 0.16418 0 0.00374837
0 0.336148 0 0.00375
0.288433 0.173822 0 0.00374964
0.075776 0.328484 0 0.00375171
0.219992 0.258275 0 0.00375241
0.151552 0.306027 0 0.00375269
0.288433 0.183814 0 0.00375073
0.288433 0.194169 0 0.00375167
0.219993 0.271334 0 0.00375277
0.350249 0.00184056 0 0.000986033
0.350249 0.00558849 3.46945e-18 0.000987449
0.350249 0.00947248 0 0.00218367
0.350249 0.0134975 3.46945e-18 0.00283679
0.350249 0.0176687 -3.46945e-18 0.00316715
0.350249 0.0219913 0 0.00330608
0.350249 0.0264709 -3.46945e-18 0.00339994
0.350249 0.031113 0 0.0034748
0 0.352034 0 0.00375
0.350249 0.0359238 3.46945e-18 0.00353237
0.075776 0.344091 0 0.00375162
0.350249 0.0409091 3.46945e-18 0.00357609
0.350249 0.0460755 -3.46945e-18 0.00360953
0.288433 0.2049 0 0.00375248
0.350249 0.0514296 0 0.00363544
0.151552 0.320819 0 0.00375276
0.350249 0.0569779 0 0.00365582
0.350249 0.0627277 0 0.00367206
0.350249 0.0686863 0 0.00368515
0.350249 0.0748612 0 0.00369581
0.350249 0.0812603 0 0.00370451
0.219992 0.284867 0 0.00375308
0.288433 0.21602 0 0.00375318
0.350249 0.0878918 0 0.0037117
0.350249 0.0947639 0 0.00371798
0.350249 0.101886 0 0.00372371
0.350249 0.109266 3.46945e-18 0.00372886
0.288433 0.227544 0 0.00375381
0.075776 0.360265 0 0.00375161
0 0.368496 0 0.00375
0.151552 0.336148 0 0.00375282
0.350249 0.116914 -3.46945e-18 0.00373337
0.219992 0.29889 -3.46945e-18 0.00375335
0.370854 0.0241911 -3.08149e-33 0.00336197
0.350249 0.12484 3.46945e-18 0.0037373
0.350249 0.133054 0 0.00374072
0.288433 0.239487 -9.25154e-19 0.00375437
0.350249 0.141565 3.46945e-18 0.00374369
0.350249 0.150387 0 0.00374624
0.288433 0.251863 0 0.00375488
0.219992 0.313423 0 0.00375357
0.151552 0.352034 0 0.00375292
0.075776 0.377026 -3.46945e-18 0.00375168
0.350249 0.159528 0 0.00374843
0 0.385557 0 0.00375
0.350249 0.169001 3.46945e-18 0.00375027
0.288433 0.264688 0 0.00375537
0.350249 0.178818 3.46945e-18 0.00375179
0.219992 0.328484 0 0.00375378
0.350249 0.188991 0 0.00375307
0.151552 0.368496 0 0.00375307
0.288433 0.27798 3.70071e-18 0.00375583
0.075776 0.394396 -3.46945e-18 0.00375177
0.350249 0.199535 3.46945e-18 0.00375413
7.47806e-17 0.403236 0 0.00375
0.219992 0.344091 -3.46945e-18 0.003754
0.350249 0.21046 3.46945e-18 0.00375503
0.288433 0.291753 0 0.00375625
0.412065 9.08189e-19 3.08149e-33 0.000804612
0.412065 0.00368111 3.08149e-33 0.000869345
0.412065 0.00749587 3.08149e-33 0.00160359
0.412065 0.0114491 0 0.00259642
0.412065 0.0155459 0 0.00305577
0.412065 0.0197915 0 0.00324753
0.412065 0.0241911 -3.08149e-33 0.0033374
0.412065 0.0264709 0 0.00337107
0.412065 0.0287506 0 0.00340474
0.412065 0.0334755 3.08149e-33 0.00346705
0.412065 0.038372 3.08149e-33 0.00351998
0.151552 0.385557 0 0.00375327
0.412065 0.0434463 0 0.00356277
0.350249 0.221782 3.46945e-18 0.00375579
0.412065 0.0487048 0 0.00359689
0.412065 0.0541543 0 0.00362411
0.412065 0.0569779 0 0.00363503
0.412065 0.0598016 0 0.00364596
0.412065 0.0656539 3.08149e-33 0.0036636
0.412065 0.0717187 3.08149e-33 0.00367792
0.075776 0.412396 -3.46945e-18 0.00375184
0.412065 0.0780037 -2.31298e-18 0.00368965
0.288433 0.306027 0 0.00375666
0.412065 0.0845169 2.31112e-33 0.00369953
0.350249 0.233515 0 0.00375647
0 0.421557 0 0.00375
0.412065 0.0912666 1.54074e-33 0.00370817
0.219992 0.360265 0 0.00375425
0.412065 0.0982613 0 0.00371596
0.412065 0.10551 0 0.00372302
0.412065 0.113022 -2.31298e-18 0.00372933
0.350249 0.245675 3.46945e-18 0.00375708
0.412065 0.120806 0 0.00373489
0.151552 0.403236 0 0.00375349
0.288433 0.320819 0 0.00375704
0.412065 0.128874 -2.31298e-18 0.00373977
0.412065 0.137234 0 0.00374401
0.350249 0.258275 3.46945e-18 0.00375766
0.219993 0.377026 0 0.00375454
0.412065 0.145897 -2.31298e-18 0.00374768
0.075776 0.43105 -3.46945e-18 0.00375188
0.412065 0.154876 -2.31298e-18 0.00375082
0 0.440544 0 0.00375
0.288433 0.336148 0 0.00375742
0.350249 0.271334 0 0.00375823
0.412065 0.16418 -2.31298e-18 0.00375347
0.412065 0.173822 -2.31298e-18 0.00375571
0.151552 0.421557 0 0.00375369
0.412065 0.183814 -2.31298e-18 0.00375758
0.350249 0.284866 3.46945e-18 0.0037588
0.219992 0.394397 -3.46945e-18 0.00375487
0.288433 0.352034 3.70071e-18 0.0037578
0.412065 0.194169 0 0.00375914
0.075776 0.450382 -3.46945e-18 0.00375191
0.412065 0.2049 -2.31298e-18 0.00376042
0 0.46022 0 0.00375
0.350249 0.29889 -3.46945e-18 0.00375935
0.412065 0.21602 0 0.00376149
0.151552 0.440544 0 0.00375387
0.219993 0.412397 3.46945e-18 0.00375521
0.467897 0.00184056 3.46945e-18 0.00063585
0.467897 0.00558849 3.46945e-18 0.000884422
0.288433 0.368496 0 0.00375821
0.467897 0.00947248 0 0.00235632
0.467897 0.0134975 3.46945e-18 0.00299689
0.467897 0.0176687 0 0.00321476
0.467897 0.0219913 0 0.00330062
0.467897 0.0264709 0 0.00334515
0.467897 0.031113 0 0.00340361
0.467897 0.0359238 3.46945e-18 0.00346252
0.467897 0.038372 0 0.00349212
0.467897 0.0409092 0 0.00351372
0.350249 0.313423 3.46945e-18 0.00375989
0.467897 0.0460756 3.46945e-18 0.00355594
0.467897 0.0514296 0 0.00359021
0.412065 0.227544 -2.31298e-18 0.0037624
0.467897 0.0569779 0 0.00361797
0.467897 0.0627277 3.46945e-18 0.00364049
0.467897 0.0686863 3.46945e-18 0.0036588
0.467897 0.0748612 0 0.00367368
0.467897 0.0812603 0 0.00368608
0.467897 0.0878917 0 0.003697
0.075776 0.470415 0 0.00375192
0.412065 0.239487 -2.31298e-18 0.00376318
0.467897 0.0947639 -3.46945e-18 0.00370691
0.467897 0.101886 0 0.00371592
0.350249 0.328483 3.46945e-18 0.00376043
0.467897 0.109266 0 0.00372404
0 0.48061 0 0.00375
0.288433 0.385557 0 0.00375864
0.467897 0.116914 -3.46945e-18 0.00373128
0.412065 0.251863 -2.31298e-18 0.00376387
0.219992 0.43105 -3.46945e-18 0.00375555
0.467897 0.12484 0 0.00373768
0.151552 0.46022 0 0.00375404
0.467897 0.133054 0 0.00374327
0.467897 0.141566 0 0.00374812
0.412065 0.264688 -2.31298e-18 0.00376452
0.350249 0.344091 0 0.00376096
0.467897 0.150387 3.46945e-18 0.00375229
0.467897 0.154876 0 0.0037556
0.467897 0.159528 0 0.00375582
0.288433 0.403236 0 0.0037591
0.075776 0.491175 0 0.00375194
0.412065 0.27798 -2.31298e-18 0.00376514
0.467897 0.169001 0 0.00375881
0.467897 0.178818 3.46945e-18 0.00376133
0.219992 0.450382 -3.46945e-18 0.00375586
7.47806e-17 0.501741 0 0.00375
0.350249 0.360265 0 0.00376148
0.151552 0.48061 3.70071e-18 0.00375419
0.467897 0.188992 0 0.00376343
0.412065 0.291753 0 0.00376574
0.467897 0.199534 -3.46945e-18 0.00376515
0.288433 0.421557 0 0.00375956
0.467897 0.21046 0 0.00376657
0.412065 0.306027 0 0.00376632
0.350249 0.377026 -3.46945e-18 0.00376202
0.467897 0.221782 -3.46945e-18 0.00376774
0.075776 0.51269 3.46945e-18 0.00375197
0.219992 0.470415 3.46945e-18 0.00375614
0.412065 0.320819 -2.31298e-18 0.00376689
0.467897 0.233515 3.46945e-18 0.00376872
7.47806e-17 0.523639 0 0.00375
0.523729 0 0 0.000542472
0.523729 0.00368111 0 0.000698283
0.523729 0.00749587 0 0.00167166
0.523729 0.0114491 0 0.00282995
0.523729 0.0155459 0 0.00323959
0.523729 0.0197915 3.08149e-33 0.00332576
0.151552 0.501741 0 0.00375434
0.523729 0.0241911 0 0.0033478
0.523729 0.0287506 0 0.00337048
0.523729 0.0334755 0 0.00341377
0.523729 0.038372 -3.08149e-33 0.00346426
0.523729 0.0434463 0 0.00351136
0.523729 0.0487048 0 0.00355188
0.523729 0.0541543 0 0.00358572
0.288433 0.440544 0 0.00376001
0.523729 0.0598016 0 0.00361366
0.350249 0.394397 0 0.00376257
0.523729 0.0656539 0 0.00363662
0.467897 0.245675 0 0.00376956
0.523729 0.0717187 0 0.00365546
0.523729 0.0780037 0 0.00367119
0.523729 0.0845169 0 0.00368497
0.523729 0.0912666 0 0.00369748
0.412065 0.336148 0 0.00376746
0.523729 0.0982613 0 0.00370885
0.523729 0.10551 -2.31298e-18 0.00371915
0.467897 0.258275 0 0.0037703
0.523729 0.113022 0 0.0037284
0.523729 0.120806 -3.08149e-33 0.00373662
0.219992 0.491176 3.46945e-18 0.00375641
0.523729 0.12484 0 0.00374025
0.523729 0.128874 -2.31298e-18 0.00374387
0.075776 0.534986 3.46945e-18 0.003752
0.467897 0.271334 3.46945e-18 0.00377098
0.350249 0.412396 3.46945e-18 0.00376315
0.523729 0.137234 0 0.00375021
0.412065 0.352034 -2.31298e-18 0.00376803
0.288433 0.46022 0 0.00376044
0.523729 0.145897 0 0.00375569
0.151552 0.523639 0 0.00375449
0.495813 0.227544 -1.54074e-33 0.00377434
0.523729 0.154876 -3.08149e-33 0.00376039
0 0.546332 0 0.00375
0.523729 0.159528 0 0.00376238
0.467897 0.284867 0 0.00377163
0.523729 0.16418 -2.31298e-18 0.00376437
0.523729 0.173822 0 0.00376773
0.412065 0.368496 0 0.0037686
0.523729 0.183814 0 0.00377054
0.467897 0.29889 3.46945e-18 0.00377224
0.350249 0.431051 0 0.00376373
0.219993 0.51269 3.46945e-18 0.00375667
0.523729 0.194169 0 0.00377287
0.288433 0.48061 0 0.00376085
0.523729 0.2049 0 0.00377477
0.467897 0.313423 0 0.00377285
0.075776 0.55809 0 0.00375204
0.412065 0.385557 0 0.0037692
0.523729 0.21602 -3.08149e-33 0.00377633
0.151552 0.546332 0 0.00375464
0 0.569849 0 0.00375
0.350249 0.450382 3.46945e-18 0.00376429
0.467897 0.328483 -3.46945e-18 0.00377345
0.574156 0.00184055 0 0.000455223
0.574156 0.00558849 0 0.000825758
0.574156 0.00947248 3.46945e-18 0.00261347
0.574156 0.0134975 -3.46945e-18 0.00333302
0.574157 0.0176687 3.46945e-18 0.00339617
0.574156 0.0219913 0 0.00338258
0.574156 0.0264708 0 0.00335957
0.574157 0.031113 3.46945e-18 0.00337411
0.574156 0.0359237 3.46945e-18 0.00341735
0.574157 0.0409092 3.46945e-18 0.00346659
0.523729 0.239487 0 0.00377866
0.574156 0.0460755 -3.46945e-18 0.00351229
0.574156 0.0514296 0 0.00355187
0.412065 0.403236 0 0.00376981
0.574157 0.0569779 0 0.00358522
0.574156 0.0627277 0 0.00361299
0.574156 0.0686863 0 0.00363592
0.219992 0.534985 0 0.00375693
0.288433 0.501741 3.70071e-18 0.00376123
0.574156 0.0748612 0 0.00365484
0.574156 0.0812603 3.46945e-18 0.00367129
0.467897 0.344091 0 0.00377406
0.574156 0.0878917 0 0.00368639
0.523729 0.251863 0 0.00377955
0.574156 0.0947639 -3.46945e-18 0.0037002
0.574156 0.101886 3.46945e-18 0.00371273
0.574156 0.109266 -3.46945e-18 0.00372403
0.574156 0.116914 3.46945e-18 0.00373414
0.412065 0.416977 1.54074e-33 0.00377028
0.350249 0.470415 0 0.00376483
0.523729 0.264688 0 0.00378032
0.075776 0.582034 0 0.00375209
0.574156 0.12484 3.46945e-18 0.00374311
0.574156 0.133054 0 0.00375099
0.412065 0.421557 3.08149e-33 0.00377044
0.151552 0.569849 0 0.0037548
0.467897 0.360265 -3.46945e-18 0.00377467
0.574156 0.141565 -3.46945e-18 0.00375786
0.523729 0.27798 0 0.00378101
0.574156 0.150386 0 0.00376378
0 0.594219 0 0.00375
0.574157 0.159528 0 0.00376883
0.574156 0.16418 0 0.00377242
0.288433 0.523639 -9.25154e-19 0.00376161
0.574156 0.169001 -3.46945e-18 0.00377311
0.523729 0.291753 0 0.00378165
0.219993 0.558091 3.46945e-18 0.00375719
0.467897 0.377027 -3.46945e-18 0.0037753
0.574156 0.178818 0 0.00377669
0.412065 0.440544 -2.31298e-18 0.00377107
0.350249 0.491175 3.46945e-18 0.00376534
0.574156 0.188992 0 0.00377966
0.523729 0.306027 2.31298e-18 0.00378225
0.574156 0.199534 0 0.00378211
0.574157 0.21046 -3.46945e-18 0.0037841
0.075776 0.606847 0 0.00375215
0.467897 0.394397 0 0.00377595
0.151552 0.594219 0 0.00375496
0.523729 0.320819 0 0.00378284
0.574156 0.221782 -3.46945e-18 0.00378571
0.412065 0.46022 -2.31298e-18 0.00377168
0.288433 0.546332 0 0.00376196
0 0.619475 0 0.00375
0.574156 0.233515 3.46945e-18 0.00378702
0.350249 0.51269 0 0.00376583
0.219992 0.582034 3.46945e-18 0.00375745
0.523729 0.336148 0 0.00378342
0.467897 0.412396 -3.46945e-18 0.00377662
0.574156 0.245675 3.46945e-18 0.0037881
0.624584 0 0 0.000389666
0.624584 0.00368111 0 0.000599035
0.624584 0.00749587 0 0.00177825
0.624584 0.0114491 0 0.00315795
0.624584 0.0155459 0 0.00357008
0.624584 0.0197915 0 0.00352177
0.624584 0.0241911 3.08149e-33 0.00343491
0.624584 0.0287506 0 0.00339042
0.624584 0.0334755 0 0.00339544
0.624584 0.038372 0 0.0034301
0.624584 0.0434463 0 0.00347378
0.624584 0.0487048 0 0.00351634
0.624584 0.0541543 0 0.00355425
0.624584 0.0598016 0 0.00358677
0.624584 0.0656539 0 0.0036141
0.624584 0.0717187 0 0.003637
0.624584 0.0780037 0 0.00365677
0.574157 0.258275 -3.46945e-18 0.00378899
0.624584 0.0845169 0 0.00367466
0.523729 0.352034 0 0.00378401
0.624584 0.0912666 0 0.00369112
0.624584 0.0982613 0 0.00370616
0.412065 0.48061 -2.31298e-18 0.00377227
0.624584 0.10551 0 0.00371981
0.624584 0.113022 -2.31298e-18 0.0037321
0.574156 0.271334 -3.46945e-18 0.00378975
0.624584 0.120806 0 0.00374307
0.467897 0.43105 3.46945e-18 0.0037773
0.075776 0.632561 0 0.00375221
0.624584 0.128874 0 0.00375278
0.151552 0.619475 0 0.00375512
0.288433 0.569849 0 0.00376231
0.350249 0.534985 0 0.00376629
0.624584 0.137234 -2.31298e-18 0.0037613
0.523729 0.368496 0 0.00378462
0.574156 0.284867 0 0.00379042
0.624584 0.145897 0 0.0037687
0.467897 0.440544 0 0.00377915
0.624584 0.154876 0 0.00377506
0.219992 0.606847 0 0.00375771
0 0.645647 0 0.00375
0.624584 0.16418 -3.08149e-33 0.00378047
0.574156 0.29889 3.46945e-18 0.00379103
0.624584 0.173822 0 0.00378504
0.412065 0.501741 -2.31298e-18 0.00377283
0.467897 0.450382 -3.46945e-18 0.00377798
0.523729 0.385557 -3.08149e-33 0.00378524
0.624584 0.183814 0 0.00378884
0.624584 0.194169 0 0.00379198
0.574157 0.313423 -3.46945e-18 0.00379161
0.624584 0.2049 0 0.00379454
0.350249 0.558091 0 0.00376674
0.288433 0.594219 0 0.00376265
0.624584 0.21602 0 0.00379662
0.523729 0.403236 -3.70071e-18 0.00378589
0.574156 0.328483 -3.46945e-18 0.00379218
0.151552 0.645647 0 0.00375528
0.467897 0.470415 0 0.00377865
0.075776 0.659208 0 0.00375228
0.624584 0.227544 0 0.00379829
0.412065 0.523639 -2.31298e-18 0.00377336
0.523729 0.41545 -1.54074e-33 0.00378634
0.624584 0.239487 3.70071e-18 0.00379963
0.574156 0.344091 3.46945e-18 0.00379275
0.219992 0.632561 0 0.00375796
0.67013 0.00184055 -3.46945e-18 0.00032812
0.67013 0.00558849 -3.46945e-18 0.00079212
0.67013 0.00947248 3.46945e-18 0.00287455
0.67013 0.0134975 -3.46945e-18 0.00378822
0.67013 0.0176687 3.46945e-18 0.00373782
0.67013 0.0219913 0 0.00355433
0.67013 0.0264708 0 0.00343535
0.67013 0.031113 0 0.00338979
0.67013 0.0359237 0 0.00340054
0.67013 0.0409092 3.46945e-18 0.00343738
0.67013 0.0460755 3.46945e-18 0.00348078
0.67013 0.0514296 0 0.00352235
0.523729 0.421557 3.08149e-33 0.00378656
0.67013 0.0569779 0 0.00355932
0 0.67277 0 0.00375
0.67013 0.0627277 -3.46945e-18 0.00359105
0.624584 0.251863 0 0.00380071
0.67013 0.0686863 0 0.00361771
0.67013 0.0748612 0 0.00364054
0.67013 0.0812603 0 0.00366118
0.67013 0.0878918 0 0.0036803
0.67013 0.0947639 0 0.00369787
0.574156 0.360265 3.46945e-18 0.00379333
0.67013 0.101886 0 0.0037139
0.523729 0.431051 0 0.0037869
0.624584 0.264688 0 0.00380159
0.467897 0.491175 3.46945e-18 0.00377928
0.67013 0.109266 3.46945e-18 0.00372842
0.350249 0.582034 0 0.00376716
0.67013 0.116914 0 0.00374145
0.67013 0.12484 0 0.00375305
0.67013 0.133054 0 0.00376328
0.288433 0.619475 0 0.00376298
0.624584 0.27798 2.31298e-18 0.00380233
0.412065 0.546332 -2.31298e-18 0.00377385
0.523729 0.440544 -3.08149e-33 0.00378724
0.67013 0.141566 0 0.00377223
0.685312 0.0241911 -7.70372e-34 0.00354985
0.685312 0.0434463 -7.70372e-34 0.00345987
0.67013 0.150386 0 0.00377996
0.574157 0.377027 -3.46945e-18 0.00379393
0.67013 0.159528 -3.46945e-18 0.00378659
0.624584 0.291753 0 0.00380296
0.151552 0.67277 0 0.00375544
0.075776 0.686823 0 0.00375234
0.67013 0.169001 -3.46945e-18 0.0037922
0.67013 0.178818 0 0.00379691
0.467897 0.51269 0 0.00377987
0.685312 0.113022 -7.70372e-34 0.00373732
0.219992 0.659208 0 0.00375821
0.624584 0.306027 0 0.00380353
0.67013 0.188992 0 0.00380081
0.574157 0.394397 0 0.00379455
0.523729 0.46022 0 0.00378791
0.685312 0.137234 -7.70372e-34 0.00377152
0.67013 0.199535 0 0.003804
0.350249 0.606847 0 0.00376757
0 0.700877 0 0.00375
0.624584 0.320819 0 0.00380407
0.67013 0.21046 0 0.00380659
0.412065 0.569849 -2.31298e-18 0.00377432
0.67013 0.221782 0 0.00380866
0.574156 0.412396 0 0.00379521
0.288433 0.645647 0 0.0037633
0.624584 0.336148 0 0.00380459
0.67013 0.233516 -3.46945e-18 0.00381031
0.467897 0.534986 0 0.00378043
0.523729 0.48061 0 0.00378856
0.624584 0.344091 0 0.00380485
0.67013 0.245675 0 0.00381162
0.715676 4.54095e-19 0 0.000278181
0.715676 0.00368111 -9.25187e-19 0.000530084
0.715676 0.00749587 -9.25187e-19 0.00189314
0.715676 0.0114491 -9.25187e-19 0.00352782
0.715676 0.0155459 -9.25187e-19 0.00401642
0.715676 0.0197915 -9.25187e-19 0.00384028
0.715676 0.0241911 -9.25187e-19 0.00360733
0.715676 0.0287506 0 0.00347021
0.715676 0.0334755 0 0.00341714
0.715676 0.038372 -9.25187e-19 0.00342159
0.624584 0.352034 3.08149e-33 0.00380511
0.715676 0.0434463 -9.25187e-19 0.00345291
0.151552 0.700877 0 0.00375559
0.715676 0.0487048 0 0.00349231
0.715676 0.0541543 0 0.00353126
0.574156 0.43105 3.46945e-18 0.00379588
0.715676 0.0598016 -9.25187e-19 0.0035665
0.67013 0.258275 3.46945e-18 0.00381266
0.715676 0.0656539 -9.25187e-19 0.00359705
0.715676 0.0717187 -9.25187e-19 0.00362339
0.075776 0.715441 0 0.00375241
0.715676 0.0780037 0 0.00364698
0.715676 0.0845169 0 0.00366881
0.219992 0.686824 0 0.00375845
0.715676 0.0912666 0 0.00368903
0.715676 0.0982613 0 0.00370763
0.67013 0.271334 3.46945e-18 0.00381349
0.350249 0.632561 -3.46945e-18 0.00376796
0.412065 0.594219 -2.31298e-18 0.00377477
0.715676 0.10551 0 0.00372459
0.715676 0.113022 0 0.00373993
0.624584 0.368496 0 0.00380564
0.523729 0.501741 3.70071e-18 0.00378918
0.715676 0.120806 0 0.00375367
0.715676 0.128874 0 0.00376588
0.67013 0.284867 0 0.00381417
0.467897 0.558091 3.46945e-18 0.00378095
0.715676 0.137234 0 0.00377662
0.574156 0.450382 3.46945e-18 0.00379656
0 0.730005 0 0.00375
0.715676 0.145897 0 0.00378598
0.288433 0.67277 0 0.0037636
0.715676 0.154876 0 0.00379405
0.67013 0.29889 -3.46945e-18 0.00381475
0.624584 0.385557 0 0.00380621
0.715676 0.16418 0 0.00380094
0.715676 0.173822 0 0.00380675
0.715676 0.183814 0 0.00381159
0.67013 0.313423 -3.46945e-18 0.00381526
0.523729 0.523639 3.70071e-18 0.00378975
0.715676 0.194169 0 0.00381558
0.574156 0.470415 0 0.00379723
0.624584 0.403236 -3.70071e-18 0.00380679
0.743101 0.0241911 -7.70372e-34 0.00370015
0.412065 0.619475 -2.31298e-18 0.00377519
0.715676 0.2049 0 0.00381882
0.151552 0.730005 0 0.00375575
0.67013 0.328483 0 0.00381574
0.350249 0.659208 0 0.00376833
0.467897 0.582034 0 0.00378144
0.715676 0.21602 0 0.00382143
0.219992 0.715441 0 0.00375869
0.075776 0.745098 0 0.00375249
0.715676 0.227544 0 0.00382349
0.67013 0.344091 0 0.00381621
0.624584 0.421557 0 0.00380741
0.743101 0.128874 -7.70372e-34 0.00377142
0.715676 0.239487 0 0.00382511
0.574156 0.491175 3.46945e-18 0.00379787
0.756814 0.00184056 -3.46945e-18 0.000231062
0.523729 0.546332 0 0.00379029
0.756813 0.00558849 -3.46945e-18 0.000772445
0.756813 0.00947248 -3.46945e-18 0.0031268
0.756813 0.0134975 -3.46945e-18 0.0042996
0.756814 0.0155459 0 0.00427411
0.756814 0.0176687 0 0.00421143
0.756814 0.0219913 3.46945e-18 0.0038356
0.756814 0.0264709 3.46945e-18 0.00359133
0.756813 0.0311131 3.46945e-18 0.00345786
0.756813 0.0359238 -3.46945e-18 0.0034179
0.288433 0.700877 0 0.00376389
0.756813 0.0409092 -3.46945e-18 0.00343026
0.756813 0.0460755 0 0.00346393
0.756813 0.0514296 0 0.00350321
0.715676 0.251863 0 0.00382638
0.756814 0.0569779 0 0.00354124
0.756814 0.0627277 0 0.00357538
0.756814 0.0686863 0 0.00360489
0 0.76019 0 0.00375
0.756813 0.0748612 0 0.00363109
0.67013 0.360265 -3.46945e-18 0.00381669
0.756814 0.0812603 0 0.00365555
0.756814 0.0878917 0 0.00367841
0.756813 0.0947639 -3.46945e-18 0.00369957
0.715676 0.264688 0 0.00382736
0.756814 0.101886 -3.46945e-18 0.00371899
0.624584 0.440544 0 0.00380804
0.756814 0.109266 0 0.00373667
0.756814 0.116914 0 0.00375261
0.412065 0.645647 0 0.00377557
0.467897 0.606847 -3.46945e-18 0.0037819
0.756814 0.120806 0 0.00376074
0.756813 0.12484 3.46945e-18 0.00376686
0.715676 0.27798 -9.25187e-19 0.00382812
0.756813 0.133054 -3.46945e-18 0.00377947
0.67013 0.377027 0 0.00381719
0.756814 0.137234 0 0.00378605
0.574157 0.51269 3.46945e-18 0.00379847
0.756813 0.141566 3.46945e-18 0.00379052
0.685312 0.352034 -7.70372e-34 0.00382203
0.743101 0.2049 -7.70372e-34 0.00382812
0.350249 0.686824 0 0.00376867
0.756813 0.150386 -3.46945e-18 0.00380011
0.756814 0.154876 0 0.00380532
0.715676 0.291753 3.70074e-18 0.00382873
0.756814 0.159528 3.46945e-18 0.00380834
0.523729 0.569849 0 0.00379078
0.72743 0.264688 0 0.00383157
0.756814 0.16418 0 0.00381295
0.151552 0.76019 3.70071e-18 0.0037559
0.756813 0.169001 -3.46945e-18 0.00381532
0.624584 0.46022 0 0.00380867
0.219993 0.745098 0 0.00375892
0.67013 0.394396 -3.46945e-18 0.00381772
0.756813 0.178818 -3.46945e-18 0.00382118
0.715676 0.306027 -9.25187e-19 0.00382924
0.075776 0.775831 0 0.00375256
0.756814 0.188992 0 0.00382603
0.756814 0.199535 0 0.00382999
0.715676 0.320819 0 0.00382968
0.574156 0.534986 3.46945e-18 0.00379902
0.288433 0.730005 0 0.00376416
0.756814 0.21046 3.46945e-18 0.00383319
0.467897 0.632561 0 0.00378231
0.67013 0.412396 -3.46945e-18 0.00381827
0.624584 0.48061 -3.08149e-33 0.00380928
0.756814 0.221782 0 0.00383572
0.412065 0.67277 -2.31298e-18 0.00377593
0.715676 0.336148 0 0.00383009
0 0.791472 0 0.00375
0.756813 0.233515 3.46945e-18 0.00383771
0.523729 0.594219 0 0.00379122
0.624584 0.487654 1.54074e-33 0.00380947
0.756814 0.245675 0 0.00383924
0.350249 0.715441 3.46945e-18 0.003769
0.67013 0.43105 3.46945e-18 0.00381885
0.715676 0.352034 -9.25187e-19 0.00383049
0.797951 9.08189e-19 0 0.000193733
0.797951 0.00368111 2.31298e-18 0.000479893
0.797951 0.00749587 2.31298e-18 0.00200491
0.797951 0.0114491 2.31298e-18 0.00390174
0.797951 0.0141803 7.70372e-34 0.00432178
0.797951 0.0155459 0 0.0045318
0.797951 0.0169611 7.70372e-34 0.0044471
0.797951 0.0197915 -3.08149e-33 0.00427768
0.797951 0.0219913 0 0.00408175
0.797951 0.0241911 3.08149e-33 0.00388581
0.797951 0.0264709 0 0.0037542
0.797951 0.0287506 -3.08149e-33 0.00362258
0.797951 0.0334755 2.31298e-18 0.00348617
0.797951 0.038372 2.31298e-18 0.00344353
0.797951 0.0434463 2.31298e-18 0.0034518
0.797951 0.0487048 2.31298e-18 0.00348159
0.756814 0.258275 -3.46945e-18 0.00384041
0.797951 0.0541543 2.31298e-18 0.00351778
0.797951 0.0598016 2.31298e-18 0.00355344
0.797951 0.0656539 2.31298e-18 0.00358585
0.574156 0.55809 3.46945e-18 0.00379952
0.624584 0.501741 3.70071e-18 0.00380986
0.797951 0.0717187 2.31298e-18 0.00361491
0.797951 0.0780037 2.31298e-18 0.0036418
0.797951 0.0845169 0 0.00366716
0.797951 0.0912666 0 0.00369087
0.797951 0.0982613 -3.08149e-33 0.00371284
0.756814 0.271334 3.46945e-18 0.00384129
0.797951 0.10551 0 0.00373299
0.715676 0.368496 -9.25187e-19 0.0038309
0.151552 0.791472 3.70071e-18 0.00375605
0.797951 0.113022 0 0.00375131
0.219992 0.775831 3.46945e-18 0.00375914
0.797951 0.118211 7.70372e-34 0.0037623
0.770526 0.239487 -3.08149e-33 0.00384454
0.797951 0.120806 0 0.0037678
0.67013 0.450382 -3.46945e-18 0.00381944
0.797951 0.128874 3.08149e-33 0.0037825
0.467897 0.659208 0 0.0037827
0.756814 0.284867 -3.46945e-18 0.00384195
0.743101 0.320819 -7.70372e-34 0.00383946
0.797951 0.137234 0 0.00379547
0.797951 0.141566 0 0.00380113
0.797951 0.145897 0 0.0038068
0.523729 0.619475 0 0.00379163
0.075776 0.807681 -3.46945e-18 0.00375263
0.797951 0.150387 0 0.0038117
0.797951 0.154876 9.25187e-19 0.0038166
0.715676 0.385557 0 0.00383134
0.412065 0.700877 -2.31298e-18 0.00377626
0.288433 0.76019 0 0.00376442
0.756814 0.29889 0 0.00384247
0.797951 0.16418 0 0.00382497
0.624584 0.523639 3.70071e-18 0.00381039
0.797951 0.167394 7.70372e-34 0.00382733
0.797951 0.173822 0 0.00383204
0.574156 0.582034 0 0.00379997
0.67013 0.470415 0 0.00382003
0.797951 0.183814 -3.08149e-33 0.00383794
0.756814 0.313423 0 0.00384289
0.797951 0.194169 0 0.00384279
0.715676 0.403236 3.70074e-18 0.0038318
0.151552 0.807681 0 0.00375612
0.797951 0.197746 -7.70372e-34 0.0038441
0.350249 0.745097 0 0.0037693
0.797951 0.2049 3.08149e-33 0.00384673
0 0.823889 0 0.00375
0.756813 0.328483 3.46945e-18 0.00384325
0.797951 0.21046 0 0.0038483
0.797951 0.21602 -3.08149e-33 0.00384987
0.797951 0.223703 7.70372e-34 0.00385152
0.797951 0.227544 0 0.00385234
0.624584 0.546332 0 0.00381086
0.715676 0.421557 -9.25187e-19 0.00383229
0.67013 0.491175 3.46945e-18 0.00382059
0.797951 0.231525 7.70372e-34 0.00385298
0.467897 0.686823 0 0.00378304
0.523729 0.645647 0 0.00379199
0.756813 0.344091 0 0.00384358
0.822721 0.120806 7.70372e-34 0.00377345
0.797951 0.239487 -3.08149e-33 0.00385426
0.822721 0.137234 7.70372e-34 0.00380268
0.835106 0.00184055 0 0.000158332
0.835106 0.00558849 0 0.000760013
0.835106 0.00947248 -3.46945e-18 0.0033548
0.835106 0.0134975 -3.46945e-18 0.00480637
0.835106 0.0176687 -3.46945e-18 0.00478131