# nutMean  POINT_DATA 63831
# x  y  z  nutMean
0 0.5 3.39583e-17 0.015326
0 0.5 -0.00617931 0.0153313
0 0.5 0.00617931 0.0153271
0.0124865 0.5 0.00617931 0.0163846
0.0124865 0.5 -0.00617931 0.0163879
0 0.5 -0.0688207 0.0153126
0 0.5 0.0688207 0.0152462
0.0124865 0.5 0.0688207 0.0163037
0.0124865 0.5 -0.0688207 0.0163692
0 0.5 0.075 0.0152291
0 0.5 -0.075 0.0153037
0 0.5 -0.0811793 0.0153011
0 0.5 0.0811793 0.0152183
0.0124865 0.5 0.0811793 0.0162857
0.0124865 0.5 -0.0811793 0.0163776
0.075776 0.5 0.0375 0.0216996
0.075776 0.5 -0.0375 0.0217188
0.075776 0.5 0.1125 0.0215895
0.075776 0.5 -0.1125 0.0217668
0 0.5 -0.143821 0.0151305
0 0.5 0.143821 0.0149837
0.0124865 0.5 0.143821 0.0160512
0.0124865 0.5 -0.143821 0.0162069
0 0.5 0.15 0.0149481
0 0.5 -0.15 0.0150993
0.151149 0.5 2.20565e-18 0.0191612
0 0.5 -0.156179 0.015074
0 0.5 0.156179 0.0149183
0.0124865 0.5 0.156179 0.0159562
0.0124865 0.5 -0.156179 0.0161225
0.151149 0.5 0.075 0.0191043
0.151149 0.5 -0.075 0.0191483
0.075776 0.5 0.1875 0.0210211
0.075776 0.5 -0.1875 0.0212616
0.151149 0.5 0.15 0.0188524
0.151149 0.5 -0.15 0.0189603
0 0.5 -0.218821 0.0147414
0 0.5 0.218821 0.0145467
0.0124865 0.5 0.218821 0.0155846
0.0124865 0.5 -0.218821 0.0157898
0.219992 0.5 0.0375 0.0167842
0.219992 0.5 -0.0375 0.016784
0 0.5 0.225 0.0145027
0 0.5 -0.225 0.0147006
0 0.5 -0.231179 0.0146653
0 0.5 0.231179 0.014464
0.0124865 0.5 0.231179 0.0154636
0.0124865 0.5 -0.231179 0.0156767
0.219993 0.5 0.1125 0.0166844
0.219993 0.5 -0.1125 0.0166715
0.151149 0.5 0.225 0.0183994
0.151149 0.5 -0.225 0.0185509
0.075776 0.5 0.2625 0.0202958
0.075776 0.5 -0.2625 0.0205839
0.288069 0.5 3.34766e-17 0.0135645
0.219992 0.5 0.1875 0.0164433
0.219992 0.5 -0.1875 0.0164836
0 0.5 0.293821 0.014031
0 0.5 -0.293821 0.0142573
0.0124865 0.5 -0.293821 0.0152687
0.0124865 0.5 0.293821 0.0150305
0.288069 0.5 0.075 0.0135505
0.288069 0.5 -0.075 0.0135398
0 0.5 0.3 0.0139838
0 0.5 -0.3 0.0142116
0 0.5 0.306179 0.0139413
0 0.5 -0.306179 0.014171
0.0124865 0.5 0.306179 0.0148987
0.0124865 0.5 -0.306179 0.0151409
0.288069 0.5 0.15 0.0134838
0.288069 0.5 -0.15 0.0134785
0.151149 0.5 0.3 0.0178642
0.151149 0.5 -0.3 0.0180371
0.219992 0.5 0.2625 0.0161401
0.219992 0.5 -0.2625 0.0161924
0.075776 0.5 0.3375 0.0195054
0.075776 0.5 -0.3375 0.0198181
0.350249 0.5 0.0375 0.0105512
0.350249 0.5 -0.0375 0.0105439
0.288069 0.5 0.225 0.0133665
0.288069 0.5 -0.225 0.0133791
0.350249 0.5 0.1125 0.0105831
0.350249 0.5 -0.1125 0.010561
0 0.5 0.368821 0.0134924
0 0.5 -0.368821 0.013733
0.0124865 0.5 0.368821 0.0144498
0.0124865 0.5 -0.368821 0.014703
0 0.5 0.375 0.0134464
0 0.5 -0.375 0.0136872
0 0.5 -0.381179 0.0136452
0 0.5 0.381179 0.0134037
0.0124865 0.5 0.381179 0.0143192
0.0124865 0.5 -0.381179 0.0145733
0.350249 0.5 0.1875 0.0106123
0.350249 0.5 -0.1875 0.0105879
0.219992 0.5 0.3375 0.0157885
0.219992 0.5 -0.3375 0.0158436
0.151149 0.5 0.375 0.0172966
0.151149 0.5 -0.375 0.0174788
0.411736 0.5 1.70099e-17 0.00898309
0.288069 0.5 0.3 0.0132282
0.288069 0.5 -0.3 0.0132458
0.411736 0.5 0.075 0.00900347
0.411736 0.5 -0.075 0.00899281
0.075776 0.5 0.4125 0.0187213
0.075776 0.5 -0.4125 0.0190401
0.350249 0.5 -0.2625 0.0106252
0.350249 0.5 0.2625 0.0106388
0.411736 0.5 0.15 0.00904466
0.411736 0.5 -0.15 0.00902601
0 0.5 -0.443821 0.0132145
0 0.5 0.443821 0.0129726
0.0124865 0.5 0.443821 0.0138881
0.0124865 0.5 -0.443821 0.0141426
0 0.5 0.45 0.0129308
0 0.5 -0.45 0.0131719
0 0.5 -0.456179 0.0131312
0 0.5 0.456179 0.0128901
0.0124865 0.5 0.456179 0.0137662
0.0124865 0.5 -0.456179 0.0140199
0.219992 0.5 -0.4125 0.0154741
0.219993 0.5 0.4125 0.0154139
0.411736 0.5 0.225 0.00909353
0.411736 0.5 -0.225 0.00907844
0.467897 0.5 0.0375 0.00751272
0.467897 0.5 -0.0375 0.00750921
0.288069 0.5 0.375 0.0130823
0.288069 0.5 -0.375 0.0130997
0.151149 0.5 -0.45 0.0169238
0.151149 0.5 0.45 0.0167381
0.467897 0.5 0.1125 0.00755138
0.467897 0.5 -0.1125 0.00754121
0.350249 0.5 0.3375 0.01069
0.350249 0.5 -0.3375 0.0106711
0.075776 0.5 -0.4875 0.018304
0.075776 0.5 0.4875 0.0179901
0.467897 0.5 0.1875 0.00761515
0.467897 0.5 -0.1875 0.0075967
0.411736 0.5 0.3 0.009161
0.411736 0.5 -0.3 0.00914967
0 0.5 -0.518821 0.012733
0 0.5 0.518821 0.0124994
0.0124865 0.5 0.518821 0.0133755
0.0124865 0.5 -0.518821 0.0136217
0.523432 0.5 3.75966e-17 0.0066226
0 0.5 0.525 0.0124637
0 0.5 -0.525 0.0126958
0.523432 0.5 0.075 0.00664187
0.523432 0.5 -0.075 0.00663752
0 0.5 -0.531179 0.012658
0 0.5 0.531179 0.0124271
0.0124865 0.5 0.531179 0.0132687
0.0124865 0.5 -0.531179 0.0135112
0.288069 0.5 0.45 0.0129378
0.288069 0.5 -0.45 0.012958
0.219992 0.5 -0.4875 0.0151098
0.219992 0.5 0.4875 0.0150425
0.467897 0.5 -0.2625 0.00768428
0.467897 0.5 0.2625 0.00768865
0.350249 0.5 0.4125 0.0107538
0.350249 0.5 -0.4125 0.0107322
0.523432 0.5 0.15 0.00669119
0.523432 0.5 -0.15 0.00668223
0.151149 0.5 0.525 0.0162211
0.151149 0.5 -0.525 0.0164061
0.411736 0.5 0.375 0.00925436
0.411736 0.5 -0.375 0.00923973
0.075776 0.5 0.5625 0.0173467
0.075776 0.5 -0.5625 0.0176421
0.523432 0.5 0.225 0.00676334
0.523432 0.5 -0.225 0.00675403
0.574156 0.5 0.0375 0.00578327
0.574157 0.5 -0.0375 0.00578268
0.467897 0.5 0.3375 0.00780397
0.467897 0.5 -0.3375 0.00779494
0.574156 0.5 0.1125 0.00581782
0.574156 0.5 -0.1125 0.00581438
0 0.5 -0.593821 0.0123121
0 0.5 0.593821 0.0120929
0.0124865 0.5 0.593821 0.0129345
0.0124865 0.5 -0.593821 0.0131654
0.288069 0.5 0.525 0.012807
0.288069 0.5 -0.525 0.0128339
0 0.5 0.6 0.0120642
0 0.5 -0.6 0.0122824
0.350249 0.5 0.4875 0.0108293
0.350249 0.5 -0.4875 0.0108096
0.523432 0.5 -0.3 0.00685366
0.523432 0.5 0.3 0.00685975
0.219992 0.5 0.5625 0.014697
0.219992 0.5 -0.5625 0.0147761
0.574156 0.5 0.1875 0.00587833
0.574157 0.5 -0.1875 0.00587393
0 0.5 -0.606179 0.012251
0 0.5 0.606179 0.0120343
0.0124865 0.5 0.606179 0.0128488
0.0124865 0.5 -0.606179 0.0130763
0.411736 0.5 0.45 0.0093661
0.411736 0.5 -0.45 0.0093517
0.151149 0.5 0.6 0.0157698
0.151149 0.5 -0.6 0.0159526
0.467897 0.5 0.4125 0.00794286
0.467897 0.5 -0.4125 0.00793325
0.624316 0.5 2.64545e-17 0.00521719
0.624316 0.5 0.075 0.00523309
0.624316 0.5 -0.075 0.00523251
0.574156 0.5 -0.2625 0.00595847
0.574157 0.5 0.2625 0.00596876
0.075776 0.5 0.6375 0.0168184
0.075776 0.5 -0.6375 0.0170961
0.624316 0.5 0.15 0.00527779
0.624316 0.5 -0.15 0.00527643
0.523432 0.5 0.375 0.00698463
0.523432 0.5 -0.375 0.00698075
0.350249 0.5 -0.5625 0.0109055
0.350249 0.5 0.5625 0.0109186
0.624316 0.5 0.225 0.00534919
0.624316 0.5 -0.225 0.00534696
0.288069 0.5 0.6 0.0126992
0.288069 0.5 -0.6 0.0127369
0.574157 0.5 0.3375 0.00607493
0.574157 0.5 -0.3375 0.00607417
0.411736 0.5 0.525 0.00949675
0.411736 0.5 -0.525 0.00948625
0 0.5 -0.668821 0.0119655
0 0.5 0.668821 0.0117617
0.0124865 0.5 0.668821 0.0125762
0.0124865 0.5 -0.668821 0.0127909
0.67013 0.5 0.0375 0.00467958
0.67013 0.5 -0.0375 0.00468046
0.219993 0.5 -0.6375 0.0144831
0.219992 0.5 0.6375 0.0143907
0 0.5 0.675 0.0117386
0 0.5 -0.675 0.0119413
0.467897 0.5 -0.4875 0.00809924
0.467897 0.5 0.4875 0.00810671
0.67013 0.5 0.1125 0.00470911
0.67013 0.5 -0.1125 0.00470977
0 0.5 -0.681179 0.0119164
0 0.5 0.681179 0.0117149
0.0124865 0.5 0.681179 0.012508
0.0124865 0.5 -0.681179 0.0127199
0.523432 0.5 0.45 0.00713735
0.523432 0.5 -0.45 0.00713588
0.151149 0.5 0.675 0.0153956
0.151149 0.5 -0.675 0.0155766
0.624316 0.5 0.3 0.00544562
0.624316 0.5 -0.3 0.00544293
0.67013 0.5 0.1875 0.00476362
0.67013 0.5 -0.1875 0.00476506
0.574156 0.5 0.4125 0.00621435
0.574156 0.5 -0.4125 0.00621759
0.715434 0.5 3.51282e-17 0.00429499
0.075776 0.5 0.7125 0.016396
0.075776 0.5 -0.7125 0.016654
0.715434 0.5 0.075 0.00430811
0.715434 0.5 -0.075 0.00430952
0.67013 0.5 0.2625 0.00484418
0.67013 0.5 -0.2625 0.00484794
0.350249 0.5 -0.6375 0.0110209
0.350249 0.5 0.6375 0.0110224
0.411736 0.5 0.6 0.00964651
0.411736 0.5 -0.6 0.00964389
0.624316 0.5 0.375 0.00556425
0.624316 0.5 -0.375 0.00556636
0.715434 0.5 0.15 0.00434757
0.715434 0.5 -0.15 0.00434979
0.467897 0.5 0.5625 0.00829503
0.467897 0.5 -0.5625 0.00829246
0.288069 0.5 0.675 0.0126216
0.288069 0.5 -0.675 0.0126732
0.523432 0.5 0.525 0.00731649
0.523432 0.5 -0.525 0.0073193
0 0.5 -0.743821 0.011693
0 0.5 0.743821 0.0115048
0.0124865 0.5 -0.743821 0.0124965
0.0124865 0.5 0.743821 0.0122979
0.219992 0.5 0.7125 0.0141373
0.219992 0.5 -0.7125 0.0142445
0.715434 0.5 0.225 0.00441116
0.715434 0.5 -0.225 0.00441545
0 0.5 0.75 0.0114876
0 0.5 -0.75 0.0116745
0.67013 0.5 0.3375 0.00495294
0.67013 0.5 -0.3375 0.00494915
0.574157 0.5 0.4875 0.00638295
0.574157 0.5 -0.4875 0.00639008
0 0.5 -0.756179 0.0116555
0 0.5 0.756179 0.0114697
0.0124865 0.5 0.756179 0.012247
0.0124865 0.5 -0.756179 0.0124427
0.756813 0.5 0.0375 0.00392701
0.756813 0.5 -0.0375 0.00392848
0.151149 0.5 0.75 0.0151037
0.151149 0.5 -0.75 0.0152834
0.756813 0.5 0.1125 0.00395242
0.756813 0.5 -0.1125 0.00395499
0.624316 0.5 -0.45 0.00571914
0.624316 0.5 0.45 0.00570994
0.715434 0.5 0.3 0.00450102
0.715434 0.5 -0.3 0.0045043
0.756813 0.5 0.1875 0.00400103
0.756813 0.5 -0.1875 0.00400515
0.67013 0.5 -0.4125 0.00508318
0.67013 0.5 0.4125 0.00507354
0.411736 0.5 0.675 0.00981533
0.411736 0.5 -0.675 0.00982474
0.467897 0.5 0.6375 0.00850639
0.467897 0.5 -0.6375 0.00851245
0.075776 0.5 0.7875 0.0160872
0.075776 0.5 -0.7875 0.0163268
0.350249 0.5 0.7125 0.0111425
0.350249 0.5 -0.7125 0.0111569
0.523432 0.5 0.6 0.00752088
0.523432 0.5 -0.6 0.00753083
0.797732 0.5 3.20924e-17 0.00365625
0.756813 0.5 0.2625 0.00407208
0.756814 0.5 -0.2625 0.00407977
0.797732 0.5 0.075 0.00366738
0.797732 0.5 -0.075 0.00366954
0.288069 0.5 0.75 0.0125801
0.288069 0.5 -0.75 0.0126486
0.574156 0.5 -0.5625 0.00659169
0.574156 0.5 0.5625 0.00657842
0.715434 0.5 0.375 0.00460851
0.715434 0.5 -0.375 0.00461629
0.797732 0.5 0.15 0.00370215
0.797732 0.5 -0.15 0.0037058
0.624316 0.5 0.525 0.0058853
0.624316 0.5 -0.525 0.00590031
0.219992 0.5 0.7875 0.0139441
0.219992 0.5 -0.7875 0.0140672
0 0.5 -0.818821 0.0114951
0 0.5 0.818821 0.0113216
0.0124865 0.5 -0.818821 0.0122823
0.0124865 0.5 0.818821 0.0120989
0 0.5 0.825 0.011311
0 0.5 -0.825 0.0114832
0.756813 0.5 -0.3375 0.00417673
0.756813 0.5 0.3375 0.00417163
0.67013 0.5 0.4875 0.00522854
0.67013 0.5 -0.4875 0.0052449
0.797732 0.5 0.225 0.00375863
0.797732 0.5 -0.225 0.00376472
0 0.5 -0.831179 0.0114698
0 0.5 0.831179 0.0112987
0.0124865 0.5 0.831179 0.0120664
0.0124865 0.5 -0.831179 0.0122468
0.835106 0.5 -0.0375 0.00339687
0.835106 0.5 0.0375 0.0033953
0.151149 0.5 0.825 0.0148971
0.151149 0.5 -0.825 0.0150761
0.835106 0.5 0.1125 0.00341755
0.835106 0.5 -0.1125 0.00342055
0.715434 0.5 0.45 0.00473893
0.715434 0.5 -0.45 0.00475585
0.797732 0.5 0.3 0.00383844
0.797732 0.5 -0.3 0.00384702
0.467897 0.5 0.7125 0.00873977
0.467897 0.5 -0.7125 0.00875802
0.523432 0.5 0.675 0.00774968
0.523432 0.5 -0.675 0.0077699
0.411736 0.5 0.75 0.0100035
0.411736 0.5 -0.75 0.010029
0.835106 0.5 0.1875 0.00346055
0.835106 0.5 -0.1875 0.00346543
0.574156 0.5 0.6375 0.00680035
0.574156 0.5 -0.6375 0.00682245
0.350249 0.5 -0.7875 0.0113155
0.350249 0.5 0.7875 0.0112803
0.756813 0.5 -0.4125 0.00429303
0.756814 0.5 0.4125 0.00427332
0.075776 0.5 -0.8625 0.016108
0.075776 0.5 0.8625 0.0158852
0.624316 0.5 0.6 0.00608747
0.624316 0.5 -0.6 0.00611019
0.872064 0.5 4.32235e-17 0.00318298
0.288069 0.5 0.825 0.0125801
0.288069 0.5 -0.825 0.0126655
0.67013 0.5 0.5625 0.00541157
0.67013 0.5 -0.5625 0.00543437
0.872064 0.5 0.075 0.00319261
0.872064 0.5 -0.075 0.00319492
0.835106 0.5 0.2625 0.00352407
0.835106 0.5 -0.2625 0.00353171
0.797732 0.5 0.375 0.00393789
0.797732 0.5 -0.375 0.00394799
0.872064 0.5 0.15 0.00322317
0.872064 0.5 -0.15 0.00322721
0.715434 0.5 0.525 0.00490144
0.715434 0.5 -0.525 0.00492351
0.219992 0.5 0.8625 0.013815
0.219993 0.5 -0.8625 0.0139523
0 0.5 -0.893821 0.011371
0 0.5 0.893821 0.0112122
0.0124865 0.5 0.893821 0.0119799
0.0124865 0.5 -0.893821 0.0121481
0 0.5 0.9 0.0112079
0 0.5 -0.9 0.0113656
0.756813 0.5 0.4875 0.00441843
0.756813 0.5 -0.4875 0.00444001
0.872064 0.5 0.225 0.00327332
0.872064 0.5 -0.225 0.00327959
0.835106 0.5 0.3375 0.00360966
0.835106 0.5 -0.3375 0.00362333
0 0.5 0.906179 0.011203
0 0.5 -0.906179 0.011359
0.0124865 0.5 0.906179 0.0119687
0.0124865 0.5 -0.906179 0.012133
0.90582 0.5 -0.0375 0.00297865
0.905821 0.5 0.0375 0.00297709
0.151149 0.5 0.9 0.014779
0.90582 0.5 0.1125 0.00299655
0.90582 0.5 -0.1125 0.00299962
0.151149 0.5 -0.901373 0.0149449
0.523432 0.5 0.75 0.008002
0.523432 0.5 -0.75 0.00803569
0.574157 0.5 0.7125 0.00704824
0.574156 0.5 -0.7125 0.00708176
0.797732 0.5 0.45 0.00405611
0.797732 0.5 -0.45 0.00407165
0.467897 0.5 0.7875 0.00899414
0.467897 0.5 -0.7875 0.00902838
0.624316 0.5 0.675 0.00631599
0.624316 0.5 -0.675 0.00634904
0.411736 0.5 0.825 0.0102128
0.411736 0.5 -0.825 0.0102565
0.872064 0.5 0.3 0.00334344
0.872064 0.5 -0.3 0.00335447
0.67013 0.5 0.6375 0.00562053
0.67013 0.5 -0.6375 0.00565267
0.90582 0.5 0.1875 0.00303423
0.90582 0.5 -0.1875 0.00303941
0.350249 0.5 -0.8625 0.0114961
0.350249 0.5 0.8625 0.0114448
0.835106 0.5 0.4125 0.0037207
0.835106 0.5 -0.4125 0.00372281
0.715434 0.5 0.6 0.005089
0.715434 0.5 -0.6 0.00511872
0.939201 0.5 4.40909e-17 0.0028717
0.075776 0.5 -0.9375 0.0160043
0.075776 0.5 0.9375 0.015802
0.939201 0.5 0.075 0.00288075
0.939201 0.5 -0.075 0.00288278
0.756814 0.5 0.5625 0.00458593
0.756814 0.5 -0.5625 0.00461321
0.905821 0.5 0.2625 0.00309083
0.905821 0.5 -0.2625 0.00309824
0.288069 0.5 0.9 0.0126255
0.288069 0.5 -0.901373 0.0127185
0.872064 0.5 0.375 0.00343645
0.872064 0.5 -0.375 0.00344348
0.939201 0.5 -0.15 0.00291266
0.939201 0.5 0.15 0.00290927
0.797732 0.5 0.525 0.00420017
0.797732 0.5 -0.525 0.00422376
0.219993 0.5 -0.9375 0.0139017
0.219992 0.5 0.9375 0.0137539
0.939201 0.5 0.225 0.00295604
0.939201 0.5 -0.225 0.00296094
0.90582 0.5 0.3375 0.00316593
0.90582 0.5 -0.3375 0.00318131
0.835106 0.5 -0.4875 0.00385535
0.835107 0.5 0.4875 0.0038362
0 0.5 0.968821 0.0111716
0 0.5 -0.968821 0.0113176
0.0124865 0.5 0.968821 0.0119373
0.0124865 0.5 -0.968821 0.0120916
0.969689 0.5 0.0375 0.00276831
0.969689 0.5 -0.0375 0.00276969
0.574156 0.5 0.7875 0.00732098
0.574156 0.5 -0.7875 0.00736886
0 0.5 0.975 0.0111679
0 0.5 -0.975 0.0113142
0.624316 0.5 0.75 0.00657063
0.624316 0.5 -0.75 0.00661652
0.969689 0.5 0.1125 0.00278798
0.96969 0.5 -0.1125 0.00279013
0.523432 0.5 0.825 0.00827659
0.523432 0.5 -0.825 0.0083273
0.67013 0.5 0.7125 0.00585647
0.67013 0.5 -0.7125 0.00590036
0 0.5 -0.981179 0.0113132
0 0.5 0.981179 0.0111674
0.467897 0.5 0.8625 0.00926804
0.467897 0.5 -0.8625 0.00932196
0.0124865 0.5 0.981179 0.0119307
0.0124865 0.5 -0.981179 0.0120863
0.872064 0.5 0.45 0.00354419
0.872064 0.5 -0.45 0.00355325
0.715434 0.5 0.675 0.0053024
0.715434 0.5 -0.675 0.00534249
0.939201 0.5 0.3 0.00302088
0.939201 0.5 -0.3 0.00302938
0.151149 0.5 0.975 0.014739
0.151149 0.5 -0.975 0.0149143
0.969689 0.5 0.1875 0.00282524
0.969689 0.5 -0.1875 0.00282845
0.756814 0.5 0.6375 0.00477745
0.756814 0.5 -0.6375 0.00481389
0.411736 0.5 0.9 0.010446
0.411736 0.5 -0.901373 0.0105075
0.90582 0.5 0.4125 0.00326667
0.90582 0.5 -0.4125 0.00326366
0.797732 0.5 0.6 0.00437023
0.797732 0.5 -0.6 0.00440173
1.00005 0.5 1.48897e-17 0.00261447
0.350249 0.5 -0.9375 0.0117026
0.350249 0.5 0.9375 0.0116344
1.00005 0.5 0.0749309 0.00262328
1.00005 0.5 -0.0749309 0.00262482
0.969689 0.5 0.2625 0.00288082
0.969689 0.5 -0.2625 0.00288471
0.835106 0.5 0.5625 0.00398536
0.835106 0.5 -0.5625 0.00401174
1.00005 0.5 0.149862 0.00265059
1.00005 0.5 -0.149862 0.00265289
0.939201 0.5 0.375 0.00310612
0.939201 0.5 -0.375 0.00311219
0.075776 0.5 1.0125 0.0157864
0.075776 0.5 -1.0125 0.0159845
0.288069 0.5 0.975 0.0127147
0.288069 0.5 -0.975 0.0128316
0.872064 0.5 0.525 0.00367
0.872064 0.5 -0.525 0.00369156
1.00005 0.5 0.224793 0.00269533
1.00005 0.5 -0.224793 0.00269851
0.96969 0.5 0.3375 0.00295293
0.96969 0.5 -0.3375 0.00296045
1.0271 0.5 0.0368226 0.00245157
1.0271 0.5 -0.0368226 0.00245252
0.90582 0.5 0.4875 0.00337072
0.90582 0.5 -0.4875 0.00338885
1.0271 0.5 0.110468 0.00246874
1.0271 0.5 -0.110468 0.00247015
0.67013 0.5 -0.7875 0.00617678
0.67013 0.5 0.7875 0.00611907
0.624316 0.5 0.825 0.00685054
0.624316 0.5 -0.825 0.00691214
0.219992 0.5 -1.0125 0.0139095
0.219993 0.5 1.0125 0.0137534
0.574156 0.5 0.8625 0.0076172
0.574156 0.5 -0.8625 0.00768321
0.715434 0.5 0.75 0.00554236
0.715434 0.5 -0.75 0.00559491
0.756813 0.5 -0.7125 0.00504313
0.756814 0.5 0.7125 0.00499549
0.523432 0.5 0.9 0.00857371
0.939201 0.5 0.45 0.00320651
0.939201 0.5 -0.45 0.00322385
1.04168 0.5 0 0.00237663
0.523432 0.5 -0.901373 0.00864824
1.0271 0.5 0.184113 0.0025018
1.0271 0.5 -0.184113 0.00250394
0 0.5 1.04382 0.0111585
0 0.5 -1.04382 0.0113016
0.0124865 0.5 1.04382 0.0119217
0.0124865 0.5 -1.04382 0.0120747
1.00005 0.5 0.299723 0.00275735
1.00005 0.5 -0.299723 0.0027625
1.04168 0.5 0.0729162 0.00238398
1.04168 0.5 -0.0729162 0.00238514
0.797732 0.5 0.675 0.00456537
0.797732 0.5 -0.675 0.00460764
0.467897 0.5 -0.9375 0.00963693
0.467897 0.5 0.9375 0.00956616
0 0.5 1.05 0.0111549
0 0.5 -1.05 0.0112974
0.835106 0.5 0.6375 0.00415821
0.835106 0.5 -0.6375 0.00419411
1.04168 0.5 0.145832 0.00240677
1.04168 0.5 -0.145832 0.00240841
0.969689 0.5 -0.4125 0.00305051
0.96969 0.5 0.4125 0.00304615
0 0.5 1.05618 0.0111523
0 0.5 -1.05618 0.0112947
0.0124865 0.5 1.05618 0.0119066
0.0124865 0.5 -1.05618 0.0120596
1.05695 0.5 -0.0360764 0.00230136
1.05695 0.5 0.0360764 0.00230036
0.411736 0.5 0.975 0.0107038
0.411736 0.5 -0.975 0.0107883
0.872064 0.5 0.6 0.0038229
0.872064 0.5 -0.6 0.00385229
1.0271 0.5 0.257759 0.00255153
1.0271 0.5 -0.257759 0.00255467
0.151149 0.5 -1.05 0.0149179
0.151149 0.5 1.05 0.0147345
1.05695 0.5 0.108229 0.00231437
1.05695 0.5 -0.108229 0.00231576
1.04168 0.5 0.218749 0.00244425
1.04168 0.5 -0.218749 0.00244674
0.90582 0.5 0.5625 0.00350574
0.90582 0.5 -0.5625 0.00352841
1.00005 0.5 0.374654 0.0028382
1.00005 0.5 -0.374654 0.00284546
0.350249 0.5 1.0125 0.0118482
0.350249 0.5 -1.0125 0.0119477
1.05695 0.5 0.180382 0.0023411
1.05695 0.5 -0.180382 0.00234327
0.939201 0.5 0.525 0.00333806
0.939201 0.5 -0.525 0.00336424
1.0271 0.5 -0.331404 0.00262342
1.0271 0.5 0.331404 0.0026178
1.08112 0.5 3.20924e-17 0.00220913
1.04168 0.5 0.291665 0.00249693
1.04168 0.5 -0.291665 0.00250097
1.08112 0.5 0.0709442 0.0022154
1.08112 0.5 -0.0709442 0.00221612
0.96969 0.5 0.4875 0.0031498
0.96969 0.5 -0.4875 0.003199
1.05695 0.5 0.252535 0.00238162
1.05695 0.5 -0.252535 0.00238503
0.288069 0.5 1.05 0.0128394
0.288069 0.5 -1.05 0.0129789
0.075776 0.5 -1.0875 0.0159443
0.075776 0.5 1.0875 0.0157359
1.08112 0.5 0.141888 0.00223463
1.08112 0.5 -0.141888 0.00223543
0.715434 0.5 0.825 0.00580839
0.715434 0.5 -0.825 0.00587613
0.756814 0.5 0.7875 0.00523961
0.756814 0.5 -0.7875 0.00530037
0.67013 0.5 0.8625 0.00640762
0.67013 0.5 -0.8625 0.0064819
0.797732 0.5 0.75 0.00478732
0.797732 0.5 -0.75 0.00484289
0.624316 0.5 0.9 0.00715466
1.00005 0.5 0.449585 0.00293732
1.00005 0.5 -0.449585 0.00295866
0.624316 0.5 -0.901373 0.00724214
0.835106 0.5 0.7125 0.00435714
0.835106 0.5 -0.7125 0.00440621
0.574156 0.5 -0.9375 0.0080236
0.574156 0.5 0.9375 0.00793621
1.10076 0.5 0.0349809 0.0021417
1.10076 0.5 -0.0349809 0.00214224
1.08112 0.5 0.212832 0.00226618
1.08112 0.5 -0.212832 0.00226758
0.872064 0.5 0.675 0.00400038
0.872064 0.5 -0.675 0.00404218
1.04168 0.5 -0.364581 0.00257411
1.04168 0.5 0.364581 0.00256628
1.0271 0.5 -0.405049 0.00271404
1.0271 0.5 0.405049 0.00270371
1.05695 0.5 0.324688 0.00243617
1.05695 0.5 -0.324688 0.00244168
1.10076 0.5 -0.104943 0.00215483
1.10076 0.5 0.104943 0.00215486
0.523432 0.5 0.975 0.00889626
0.523432 0.5 -0.975 0.0089883
0.90582 0.5 0.6375 0.00366093
0.90582 0.5 -0.6375 0.00369364
0.219992 0.5 1.0875 0.0137966
0.219992 0.5 -1.0875 0.0139703
1.11376 0.5 1.15648e-18 0.00210103
0.939201 0.5 0.6 0.0034951
0.939201 0.5 -0.6 0.00351221
1.10076 0.5 0.174905 0.00217946
1.10076 0.5 -0.174905 0.00217928
0.467897 0.5 -1.0125 0.00998852
0.467897 0.5 1.0125 0.00988922
1.11376 0.5 0.0693118 0.00210725
1.11376 0.5 -0.0693118 0.00210741
1.08112 0.5 0.283777 0.0023108
1.08112 0.5 -0.285603 0.00231579
0 0.5 -1.11882 0.0113172
0 0.5 1.11882 0.0111828
0.0124865 0.5 1.11882 0.0119371
0.0124865 0.5 -1.11882 0.0120821
0.969689 0.5 0.5625 0.00333244
0.969689 0.5 -0.5625 0.00334676
1.11376 0.5 0.138624 0.00212579
1.11376 0.5 -0.138624 0.00212547
0 0.5 1.125 0.011192
0 0.5 -1.125 0.0113247
1.10076 0.5 0.244866 0.00221656
1.10076 0.5 -0.244866 0.00221687
0.411736 0.5 -1.05 0.0110996
0.411736 0.5 1.05 0.0109844
1.05695 0.5 -0.396841 0.00253453
1.05695 0.5 0.396841 0.00250745
1.00005 0.5 0.524516 0.00307314
1.00005 0.5 -0.525427 0.00310106
1.04168 0.5 -0.437497 0.00266841
1.04168 0.5 0.437497 0.00265478
0 0.5 1.13118 0.0112007
0 0.5 -1.13118 0.0113323
0.0124865 0.5 -1.13118 0.0121038
0.0124865 0.5 1.13118 0.0119627
1.11376 0.5 0.207935 0.00215604
1.0271 0.5 -0.478694 0.00282969
1.0271 0.5 0.478694 0.00281027
1.11376 0.5 -0.213207 0.00215576
1.07791 0.5 -0.354722 0.00238752
0.151149 0.5 1.125 0.0147934
0.151149 0.5 -1.125 0.0149816
1.08112 0.5 0.354722 0.0023697
1.13882 0.5 0.0340295 0.0020197
1.13882 0.5 -0.0340295 0.00202003
0.350249 0.5 1.0875 0.012077
0.350249 0.5 -1.0875 0.0122087
1.13882 0.5 0.102088 0.00203201
1.13882 0.5 -0.102088 0.00203166
1.10076 0.5 0.314829 0.0022666
1.10076 0.5 -0.314829 0.00226754
0.756813 0.5 -0.8625 0.00558736
0.756814 0.5 0.8625 0.00550934
0.797732 0.5 0.825 0.00503635
0.797732 0.5 -0.825 0.00510643
1.11376 0.5 -0.277247 0.0021962
1.11376 0.5 0.277247 0.00219874
0.835106 0.5 0.7875 0.0045846
0.835106 0.5 -0.7875 0.00464926
0.715434 0.5 0.9 0.0061005
0.872064 0.5 0.75 0.0042061
0.872064 0.5 -0.75 0.00426287
0.715434 0.5 -0.901373 0.00619521
1.13882 0.5 -0.170147 0.00205436
1.13882 0.5 0.170147 0.0020552
0.67013 0.5 -0.9375 0.00681527
0.67013 0.5 0.9375 0.00672065
0.90582 0.5 0.7125 0.00384447
0.90582 0.5 -0.7125 0.00389404
1.05695 0.5 -0.468994 0.0026387
1.05695 0.5 0.468994 0.00259854
0.939201 0.5 0.675 0.00364588
0.939201 0.5 -0.675 0.0036741
0.624316 0.5 0.975 0.00748505
0.624316 0.5 -0.975 0.00758788
1.04168 0.5 -0.510414 0.0027855
1.04168 0.5 0.510414 0.00276723
0.969689 0.5 0.6375 0.00348693
0.969689 0.5 -0.6375 0.00348638
0.288069 0.5 1.125 0.0130027
0.288069 0.5 -1.125 0.013169
1.16179 0.5 1.04083e-17 0.0019413
1.08112 0.5 -0.425666 0.00245531
1.08112 0.5 0.425666 0.00244582
1.13882 0.5 -0.238206 0.0020981
1.13882 0.5 0.238206 0.00208998
1.16179 0.5 0.0669104 0.00194689
1.16179 0.5 -0.0669104 0.0019468
0.574156 0.5 -1.0125 0.00839474
0.574156 0.5 1.0125 0.00828487
0.998291 0.5 -0.599796 0.00325421
0.075776 0.5 -1.1625 0.0160339
0.075776 0.5 1.1625 0.0158558
1.00005 0.5 0.599447 0.00322247
1.10076 0.5 -0.384791 0.00233706
1.10076 0.5 0.384791 0.00233107
1.0271 0.5 0.55234 0.00294805
1.0271 0.5 -0.55234 0.00290986
1.11376 0.5 -0.346559 0.00225732
1.11376 0.5 0.346559 0.00225471
1.16179 0.5 0.133821 0.00196341
1.16179 0.5 -0.133821 0.00196429
0.523432 0.5 -1.05 0.00936523
0.523432 0.5 1.05 0.00924544
1.17463 0.5 0.0331343 0.00189947
1.17463 0.5 -0.0331343 0.0018997
1.15837 0.5 -0.200731 0.00199954
1.17463 0.5 0.0994029 0.00191059
1.17463 0.5 -0.0994029 0.00190982
1.16179 0.5 0.200074 0.00199137
1.13882 0.5 -0.306265 0.00213632
1.13882 0.5 0.306265 0.00213692
0.219992 0.5 1.1625 0.0139156
0.219992 0.5 -1.1625 0.0141087
0.467897 0.5 -1.0875 0.0103689
0.467897 0.5 1.0875 0.0102387
1.17463 0.5 0.165672 0.00193128
1.17463 0.5 -0.165672 0.00192966
1.05695 0.5 0.541147 0.00271177
1.05695 0.5 -0.541147 0.00273348
1.18772 0.5 -1.15648e-18 0.00185886
1.11376 0.5 -0.41587 0.0023315
1.11376 0.5 0.41587 0.00232669
1.18772 0.5 0.0655187 0.00186413
1.08112 0.5 0.49661 0.00254025
1.08112 0.5 -0.49661 0.0025556
1.18772 0.5 -0.0699161 0.0018637
1.10076 0.5 -0.454752 0.00242014
1.10076 0.5 0.454752 0.00241414
1.16179 0.5 0.267642 0.00203122
1.16179 0.5 -0.267642 0.00202693
0 0.5 1.19382 0.0112903
0 0.5 -1.19382 0.0114117
0.0124865 0.5 -1.19382 0.0121832
0.0124865 0.5 1.19382 0.0120524
1.04168 0.5 -0.58333 0.00290419
1.04168 0.5 0.58333 0.00289135
1.18772 0.5 0.131228 0.0018802
1.18772 0.5 -0.131228 0.00187692
1.17463 0.5 0.23194 0.00196224
1.17463 0.5 -0.23194 0.00196043
0.411736 0.5 1.125 0.0112848
0.411736 0.5 -1.125 0.0114333
1.13882 0.5 0.374324 0.00219687
1.13882 0.5 -0.374324 0.00219993
0 0.5 1.2 0.0112995
0 0.5 -1.2 0.0114202
0.90582 0.5 0.7875 0.00405799
0.90582 0.5 -0.7875 0.00412172
0.872064 0.5 0.825 0.00444098
0.872064 0.5 -0.825 0.00451166
0.835106 0.5 -0.8625 0.00491686
0.835106 0.5 0.8625 0.00484005
1.18534 0.5 0.196842 0.00191111
0.939201 0.5 0.75 0.00382084
0.939201 0.5 -0.75 0.00386732
0.797732 0.5 0.9 0.00531501
1.0271 0.5 -0.625985 0.00309013
1.0271 0.5 0.625985 0.00307095
0.969689 0.5 0.7125 0.00359808
0.96969 0.5 -0.7125 0.00363008
0.797732 0.5 -0.901373 0.00541188
1.18772 0.5 -0.196842 0.00190095
0.756813 0.5 -0.9375 0.00590837
0.756813 0.5 0.9375 0.00580725
0.998291 0.5 -0.67477 0.00340374
1.15863 0.5 0.334552 0.00208872
0 0.5 1.20618 0.0113098
0 0.5 -1.20618 0.01143
1.00005 0.5 0.674378 0.00336167
0.0124865 0.5 -1.20618 0.0122074
0.0124865 0.5 1.20618 0.0120777
1.16179 0.5 -0.334552 0.00207823
0.715434 0.5 0.975 0.00642232
0.715434 0.5 -0.975 0.00653524
0.151149 0.5 1.2 0.0149456
0.151149 0.5 -1.2 0.0151371
1.20942 0.5 -0.0322645 0.00178975
1.20942 0.5 0.0322645 0.00178978
1.18534 0.5 0.249669 0.00193787
1.17463 0.5 0.298209 0.00200432
1.17463 0.5 -0.298209 0.00200195
1.20942 0.5 0.0967935 0.00179971
1.20942 0.5 -0.0967935 0.00179835
0.350249 0.5 1.1625 0.0123286
0.350249 0.5 -1.1625 0.0124974
0.67013 0.5 1.0125 0.00706187
0.67013 0.5 -1.0125 0.00718083
1.11376 0.5 -0.485183 0.00242438
1.11376 0.5 0.485183 0.00241421
1.18772 0.5 -0.262456 0.00193533
1.10076 0.5 -0.524714 0.00252883
1.10076 0.5 0.524714 0.00251127
1.20942 0.5 0.161322 0.00181503
1.20942 0.5 -0.161322 0.00181248
1.08112 0.5 -0.567554 0.00265694
1.08112 0.5 0.567554 0.00265215
0.624316 0.5 1.05 0.00784377
0.624316 0.5 -1.05 0.0079758
1.13882 0.5 0.442383 0.0022735
1.13882 0.5 -0.442383 0.00227645
1.05695 0.5 -0.6133 0.00283306
1.05695 0.5 0.6133 0.00282893
1.15863 0.5 0.401463 0.00215284
1.16179 0.5 -0.401463 0.00214331
0.574156 0.5 1.0875 0.00865897
0.574157 0.5 -1.0875 0.00879814
1.17463 0.5 0.364477 0.00205781
1.17463 0.5 -0.364477 0.00205865
1.20942 0.5 0.225851 0.00184225
1.20942 0.5 -0.225851 0.00183917
1.23036 0.5 -1.38778e-17 0.001722
1.04168 0.5 -0.656246 0.00304071
1.04168 0.5 0.656246 0.00301906
1.23036 0.5 -0.0634819 0.00172657
1.23036 0.5 0.0634819 0.00172666
1.18772 0.5 0.32807 0.00198376
1.18772 0.5 -0.32807 0.00198215
0.288069 0.5 1.2 0.0131993
0.288069 0.5 -1.2 0.0133984
1.23036 0.5 0.126964 0.00173981
1.23036 0.5 -0.126964 0.00173764
0.075776 0.5 -1.2375 0.0162029
0.075776 0.5 1.2375 0.0160269
0.523432 0.5 1.125 0.00961748
0.523432 0.5 -1.125 0.00976899
1.0271 0.5 -0.69963 0.00326284
1.0271 0.5 0.69963 0.00322853
1.24274 0.5 -0.0314313 0.00168514
1.24274 0.5 0.0314313 0.00168542
1.20942 0.5 0.29038 0.00187956
1.20942 0.5 -0.29038 0.0018755
1.11376 0.5 -0.554494 0.00251841
1.11376 0.5 0.554494 0.00252211
1.23036 0.5 0.190445 0.00176098
1.23036 0.5 -0.190445 0.0017579
1.24274 0.5 0.0942942 0.00169443
1.24274 0.5 -0.0942942 0.00169244
1.13882 0.5 -0.510442 0.00237234
1.13882 0.5 0.510442 0.00236232
0.998291 0.5 -0.749744 0.00358953
0.969689 0.5 0.7875 0.0037913
0.969689 0.5 -0.7875 0.0038326
1.00005 0.5 0.749309 0.00353057
1.15863 0.5 0.468373 0.0022302
0.939201 0.5 0.825 0.00403447
0.939201 0.5 -0.825 0.00409334
1.2484 0.5 -0.0653061 0.0016719
0.90582 0.5 0.8625 0.00430155
0.90582 0.5 -0.8625 0.00437902
1.17463 0.5 -0.430746 0.00212682
1.17463 0.5 0.430746 0.00212698
1.10076 0.5 -0.594676 0.00261467
1.10076 0.5 0.594676 0.002635
1.18772 0.5 0.393684 0.00204257
1.18772 0.5 -0.393684 0.00204196
1.24274 0.5 -0.157157 0.00170736
1.24274 0.5 0.157157 0.00171093
1.16179 0.5 -0.468373 0.00222466
0.467897 0.5 -1.1625 0.0107669
0.467897 0.5 1.1625 0.0106033
0.872064 0.5 0.9 0.00470856
1.25401 0.5 0 0.00165587
0.872064 0.5 -0.901373 0.00480248
1.24906 0.5 -0.125094 0.00168095
0.835106 0.5 0.9375 0.00513202
0.835106 0.5 -0.9375 0.00523098
1.25401 0.5 0.0622994 0.00166033
1.08112 0.5 -0.638498 0.00277071
1.08112 0.5 0.638498 0.0027641
1.23036 0.5 0.253927 0.00179099
1.23036 0.5 -0.253927 0.00178714
0.219992 0.5 1.2375 0.0141142
0.219992 0.5 -1.2375 0.0143313
1.05695 0.5 -0.685452 0.00298455
1.05695 0.5 0.685452 0.00295334
0.797732 0.5 0.975 0.00562317
0.797732 0.5 -0.975 0.00573823
1.25401 0.5 0.124599 0.00167257
1.20942 0.5 0.354909 0.00192714
1.20942 0.5 -0.354909 0.00192531
1.24274 0.5 0.220019 0.00173535
1.24274 0.5 -0.220019 0.00173094
1.24906 0.5 -0.187641 0.00169962
0.756813 0.5 -1.0125 0.00627923
0.756813 0.5 1.0125 0.00614284
1.25401 0.5 0.186898 0.00169219
0.411736 0.5 1.2 0.0115738
0.411736 0.5 -1.2 0.0117659
0 0.5 1.26882 0.0114371
0 0.5 -1.26882 0.0115521
0.0124865 0.5 -1.26882 0.0123294
0.0124865 0.5 1.26882 0.012205
0.715434 0.5 -1.05 0.00691934
0.715434 0.5 1.05 0.00677697
1.23036 0.5 0.31741 0.00183049
1.23036 0.5 -0.31741 0.00182704
1.04168 0.5 -0.729162 0.00322053
1.04168 0.5 0.729162 0.00318082
1.18772 0.5 -0.459298 0.00211765
1.18772 0.5 0.459298 0.00211356
1.24274 0.5 0.282882 0.0017688
1.24274 0.5 -0.282882 0.00176311
0 0.5 1.275 0.011451
0 0.5 -1.275 0.0115653
1.27472 0.5 -0.0306319 0.0015921
1.27472 0.5 0.0306319 0.00159257
1.17463 0.5 -0.497015 0.00221495
1.17463 0.5 0.497015 0.0022054
1.15837 0.5 0.534151 0.00232154
1.11376 0.5 0.62266 0.0026294
1.11376 0.5 -0.623806 0.00262228
1.13882 0.5 -0.578501 0.00245255
1.13882 0.5 0.578501 0.00248994
0.67013 0.5 1.0875 0.00743301
0.67013 0.5 -1.0875 0.0075923
1.27472 0.5 -0.0918959 0.00160093
1.27472 0.5 0.0918959 0.00160058
1.25401 0.5 -0.249197 0.00171709
1.25401 0.5 0.249197 0.00172003
1.16179 0.5 -0.535284 0.00230698
1.20942 0.5 0.419438 0.00198883
1.20942 0.5 -0.419438 0.00198646
0 0.5 1.28118 0.0114654
0 0.5 -1.28118 0.011579
0.0124865 0.5 1.28118 0.0122433
0.0124865 0.5 -1.28118 0.0123661
1.27472 0.5 0.15316 0.00161523
1.27472 0.5 -0.15316 0.00161388
0.151149 0.5 -1.275 0.0153655