# nutMean  POINT_DATA 91132
# x  y  z  nutMean
0 0 0 5.0564e-06
0 0.00368111 0 1.85437e-05
0 0.00749587 0 7.39263e-05
0 0.0114491 0 0.000273542
0 0.0155459 0 0.000712324
0 0.0197915 0 0.00182502
0 0.0241911 0 0.00272089
0 0.0287506 0 0.00302688
0 0.0334755 0 0.00343472
0 0.038372 0 0.0037186
0 0.0434463 0 0.0039208
0 0.0487048 0 0.00407872
0 0.0541543 0 0.00421446
0 0.0598016 0 0.00434304
0 0.0656539 0 0.00447467
0 0.0717187 0 0.00461161
0.075776 0.00184056 0 9.05041e-06
0.075776 0.00558849 3.46945e-18 1.32619e-05
0.075776 0.00947249 0 6.32376e-05
0.075776 0.0134975 0 0.000298569
0.075776 0.0176687 0 0.000858082
0 0.0780037 0 0.00475193
0.075776 0.0219913 0 0.0017349
0.075776 0.0264709 -3.46945e-18 0.00293546
0.075776 0.031113 3.46945e-18 0.00443267
0.075776 0.0359238 0 0.00617249
0 0.0845169 0 0.00489511
0.075776 0.0409091 0 0.00808861
0.075776 0.0460755 0 0.0101109
0 0.0912666 0 0.00504129
0.075776 0.0514296 0 0.0121695
0.075776 0.0569779 0 0.0141889
0 0.0982613 0 0.0051898
0.075776 0.0627277 -3.46945e-18 0.0151446
0.075776 0.0686863 0 0.0156269
0 0.10551 0 0.00533911
0.075776 0.0748612 0 0.0161649
0.075776 0.0812603 0 0.0167638
0 0.113022 0 0.00548715
0.075776 0.0878918 0 0.0174317
0 0.120806 0 0.00563396
0.075776 0.0947639 0 0.0181813
0.075776 0.101886 -3.46945e-18 0.0190384
0 0.128874 0 0.00579098
0.075776 0.109266 0 0.0200558
0 0.137234 0 0.00597795
0.075776 0.116914 0 0.0213064
0 0.145897 0 0.00620069
0.075776 0.12484 0 0.0228704
0.151552 0 0 0
0.151552 0.00368111 0 7.44682e-06
0.151552 0.00749587 0 2.54533e-05
0.151552 0.0114491 0 0.000112943
0.151552 0.0155459 0 0.000357294
0.151552 0.0197915 0 0.000814613
0.075776 0.133054 -3.46945e-18 0.0247732
0.151552 0.0241911 0 0.00149881
0.151552 0.0287506 0 0.00240953
0 0.154876 0 0.00644845
0.151552 0.0334755 0 0.00352941
0.151552 0.038372 0 0.0048298
0.151552 0.0434463 0 0.0062761
0.151552 0.0487048 0 0.00783123
0.075776 0.141565 0 0.0266694
0.151552 0.0541543 0 0.00945561
0.151552 0.0598016 0 0.01088
0 0.16418 0 0.00671369
0.151552 0.0656539 0 0.0119944
0.151552 0.0717187 0 0.0130605
0.075776 0.150387 -3.46945e-18 0.028202
0.151552 0.0780037 0 0.0141968
0.151552 0.0845169 0 0.0153914
0 0.173822 0 0.00699546
0.075776 0.159528 -3.46945e-18 0.0291153
0.151552 0.0912666 0 0.0166278
0.151552 0.0982613 0 0.0178591
0 0.183814 0 0.00729206
0.151552 0.10551 0 0.0189783
0.075776 0.169001 0 0.0292547
0.151552 0.113022 0 0.0200292
0.151552 0.120806 0 0.0211223
0 0.194169 0 0.00760027
0.075776 0.178818 3.46945e-18 0.0286685
0.151552 0.128874 0 0.0224264
0.075776 0.188991 0 0.0275661
0.151552 0.137234 0 0.0239212
0 0.2049 0 0.00791381
0.151552 0.145897 0 0.0253469
0.075776 0.199534 0 0.026193
0 0.21602 0 0.00822434
0.151552 0.154876 0 0.0265442
0.219992 0.00184055 0 2.5917e-06
0.219992 0.00558849 -3.46945e-18 5.45403e-06
0.219992 0.00947248 3.46945e-18 2.18289e-05
0.219992 0.0134975 -3.46945e-18 7.85953e-05
0.219992 0.0176687 3.46945e-18 0.000227936
0.219992 0.0219913 3.46945e-18 0.000511661
0.219993 0.0264709 0 0.000941893
0.219992 0.031113 -3.46945e-18 0.00152415
0.219992 0.0359237 3.46945e-18 0.00226106
0.151552 0.16418 0 0.0273555
0.075776 0.21046 3.46945e-18 0.024687
0.219992 0.0409092 0 0.00315089
0.219992 0.0460755 0 0.00418828
0.219993 0.0514296 0 0.00536511
0.219992 0.0569779 0 0.0066715
0 0.227544 0 0.00857797
0.219992 0.0627277 0 0.00809706
0.219992 0.0686863 -3.46945e-18 0.00963036
0.151552 0.173822 0 0.0277112
0.219992 0.0748612 3.46945e-18 0.0112558
0.075776 0.221782 0 0.0231189
0.219992 0.0812603 0 0.0129513
0.219992 0.0878917 0 0.014681
0.151552 0.183814 0 0.0276564
7.47806e-17 0.239487 0 0.0090334
0.219993 0.0947639 0 0.0163985
0.219992 0.101886 0 0.0179336
0.075776 0.233515 3.46945e-18 0.0221185
0.219993 0.109266 0 0.018973
0.151552 0.194169 0 0.0273018
0.219992 0.116914 3.46945e-18 0.0198816
0 0.251863 0 0.00956481
0.219992 0.12484 -3.46945e-18 0.0205791
0.151552 0.2049 0 0.0267459
0.075776 0.245675 0 0.0217335
0.219992 0.133054 0 0.0216975
0.219992 0.141566 0 0.0228211
0.151552 0.21602 0 0.0260444
0 0.264688 0 0.0101379
0.219993 0.150387 0 0.0240159
0.075776 0.258275 3.46945e-18 0.0215244
0.219992 0.159528 0 0.0251681
0.151552 0.227544 0 0.0253684
0.219993 0.169001 -3.46945e-18 0.0261646
0 0.27798 0 0.0107539
0.075776 0.271334 0 0.0214491
0.151552 0.239487 3.70071e-18 0.0248851
0.219992 0.178818 0 0.0269486
0.288433 0 0 0
0.288433 0.00368111 0 3.07767e-06
0.288433 0.00749587 0 1.14123e-05
0.288433 0.0114491 0 3.97662e-05
0.288433 0.0155459 0 0.000115289
0.288433 0.0197915 0 0.000278573
0.288433 0.0241911 0 0.000555533
0.288433 0.0287506 0 0.000955646
0.219993 0.188991 0 0.0275131
0.288433 0.0334755 0 0.00148643
0.288433 0.038372 0 0.0021498
0.288433 0.0434463 0 0.00294475
7.47806e-17 0.291753 0 0.0114155
0.288433 0.0487048 0 0.00386777
0.288433 0.0541543 0 0.00491307
0.151552 0.251863 0 0.0245111
0.288433 0.0598016 0 0.00607288
0.075776 0.284867 0 0.0215149
0.288433 0.0656539 0 0.00733724
0.219992 0.199534 0 0.0278702
0.288433 0.0717187 0 0.00869268
0.288433 0.0780037 0 0.0101201
0.288433 0.0845169 0 0.0115444
0.288433 0.0912666 0 0.0126506
0.219992 0.21046 0 0.0280333
0.288433 0.0982613 0 0.0134224
0.151552 0.264688 3.70071e-18 0.0241526
0 0.306027 0 0.0121555
0.288433 0.10551 0 0.0140708
0.075776 0.29889 -3.46945e-18 0.0217083
0.288433 0.113022 0 0.0146442
0.219992 0.221782 0 0.0280103
0.288433 0.120806 0 0.0151559
0.288433 0.128874 0 0.0156771
0.151552 0.27798 0 0.0239112
0.288433 0.137234 0 0.0162675
0 0.320819 0 0.0131648
0.219993 0.233515 0 0.0278049
0.075776 0.313423 3.46945e-18 0.0221772
0.288433 0.145897 0 0.0168823
0.288433 0.154876 0 0.017517
0.151552 0.291753 0 0.0237575
0.219993 0.245675 0 0.0274303
0.288433 0.16418 0 0.0181089
0 0.336148 0 0.0146584
0.288433 0.173822 0 0.0186114
0.075776 0.328484 0 0.0237695
0.219992 0.258275 0 0.0269151
0.151552 0.306027 0 0.0236052
0.288433 0.183814 0 0.0190065
0.288433 0.194169 0 0.0192948
0.219993 0.271334 0 0.0263139
0.350249 0.00184056 0 9.16293e-07
0.350249 0.00558849 3.46945e-18 3.48768e-06
0.350249 0.00947248 0 1.52066e-05
0.350249 0.0134975 3.46945e-18 4.49704e-05
0.350249 0.0176687 -3.46945e-18 0.00011524
0.350249 0.0219913 0 0.000272869
0.350249 0.0264709 -3.46945e-18 0.000520885
0.350249 0.031113 0 0.000876428
0 0.352034 0 0.0158167
0.350249 0.0359238 3.46945e-18 0.00134378
0.075776 0.344091 0 0.0266866
0.350249 0.0409091 3.46945e-18 0.00192521
0.350249 0.0460755 -3.46945e-18 0.00262116
0.288433 0.2049 0 0.019482
0.350249 0.0514296 0 0.00343009
0.151552 0.320819 0 0.0237209
0.350249 0.0569779 0 0.00434798
0.350249 0.0627277 0 0.00536766
0.350249 0.0686863 0 0.00647816
0.350249 0.0748612 0 0.00766353
0.350249 0.0812603 0 0.00890094
0.219992 0.284867 0 0.0259953
0.288433 0.21602 0 0.0195724
0.350249 0.0878918 0 0.00997811
0.350249 0.0947639 0 0.00996893
0.350249 0.101886 0 0.00993826
0.350249 0.109266 3.46945e-18 0.0100813
0.288433 0.227544 0 0.0195676
0.075776 0.360265 0 0.0262155
0 0.368496 0 0.0157426
0.151552 0.336148 0 0.0244003
0.350249 0.116914 -3.46945e-18 0.0103425
0.219992 0.29889 -3.46945e-18 0.0254836
0.370854 0.0241911 -3.08149e-33 0.000403787
0.350249 0.12484 3.46945e-18 0.0105647
0.350249 0.133054 0 0.0106682
0.288433 0.239487 -9.25154e-19 0.0194696
0.350249 0.141565 3.46945e-18 0.010762
0.350249 0.150387 0 0.0108886
0.288433 0.251863 0 0.0192866
0.219992 0.313423 0 0.0247976
0.151552 0.352034 0 0.0245683
0.075776 0.377026 -3.46945e-18 0.0236264
0.350249 0.159528 0 0.0110324
0 0.385557 0 0.0150987
0.350249 0.169001 3.46945e-18 0.0111781
0.288433 0.264688 0 0.0190359
0.350249 0.178818 3.46945e-18 0.0113182
0.219992 0.328484 0 0.0240253
0.350249 0.188991 0 0.0114506
0.151552 0.368496 0 0.0233638
0.288433 0.27798 3.70071e-18 0.0188167
0.075776 0.394396 -3.46945e-18 0.0218742
0.350249 0.199535 3.46945e-18 0.0115746
7.47806e-17 0.403236 0 0.0147906
0.219992 0.344091 -3.46945e-18 0.0232463
0.350249 0.21046 3.46945e-18 0.0116894
0.288433 0.291753 0 0.0186044
0.412065 9.08189e-19 3.08149e-33 2.44787e-22
0.412065 0.00368111 3.08149e-33 2.07404e-06
0.412065 0.00749587 3.08149e-33 9.22589e-06
0.412065 0.0114491 0 2.77374e-05
0.412065 0.0155459 0 6.91671e-05
0.412065 0.0197915 0 0.000160738
0.412065 0.0241911 -3.08149e-33 0.000327915
0.412065 0.0264709 0 0.000455142
0.412065 0.0287506 0 0.000582369
0.412065 0.0334755 3.08149e-33 0.000932707
0.412065 0.038372 3.08149e-33 0.0013845
0.151552 0.385557 0 0.0217993
0.412065 0.0434463 0 0.0019392
0.350249 0.221782 3.46945e-18 0.0117929
0.412065 0.0487048 0 0.00259636
0.412065 0.0541543 0 0.0033532
0.412065 0.0569779 0 0.00377858
0.412065 0.0598016 0 0.00420396
0.412065 0.0656539 3.08149e-33 0.00513903
0.412065 0.0717187 3.08149e-33 0.00614388
0.075776 0.412396 -3.46945e-18 0.0214814
0.412065 0.0780037 -2.31298e-18 0.00710454
0.288433 0.306027 0 0.0182913
0.412065 0.0845169 2.31112e-33 0.00784051
0.350249 0.233515 0 0.0118817
0 0.421557 0 0.0148446
0.412065 0.0912666 1.54074e-33 0.00815176
0.219992 0.360265 0 0.0224116
0.412065 0.0982613 0 0.00817301
0.412065 0.10551 0 0.00822369
0.412065 0.113022 -2.31298e-18 0.00834972
0.350249 0.245675 3.46945e-18 0.0119523
0.412065 0.120806 0 0.00849738
0.151552 0.403236 0 0.0207692
0.288433 0.320819 0 0.0179054
0.412065 0.128874 -2.31298e-18 0.00860709
0.412065 0.137234 0 0.00868645
0.350249 0.258275 3.46945e-18 0.0120007
0.219993 0.377026 0 0.0214382
0.412065 0.145897 -2.31298e-18 0.00877268
0.075776 0.43105 -3.46945e-18 0.0214915
0.412065 0.154876 -2.31298e-18 0.00887114
0 0.440544 0 0.0149789
0.288433 0.336148 0 0.0174896
0.350249 0.271334 0 0.0120203
0.412065 0.16418 -2.31298e-18 0.00897371
0.412065 0.173822 -2.31298e-18 0.00907481
0.151552 0.421557 0 0.0202254
0.412065 0.183814 -2.31298e-18 0.00917194
0.350249 0.284866 3.46945e-18 0.0120084
0.219992 0.394397 -3.46945e-18 0.0204027
0.288433 0.352034 3.70071e-18 0.0170521
0.412065 0.194169 0 0.00926427
0.075776 0.450382 -3.46945e-18 0.0215375
0.412065 0.2049 -2.31298e-18 0.00935126
0 0.46022 0 0.0151257
0.350249 0.29889 -3.46945e-18 0.0119709
0.412065 0.21602 0 0.00943205
0.151552 0.440544 0 0.0198647
0.219993 0.412397 3.46945e-18 0.0194565
0.467897 0.00184056 3.46945e-18 5.91396e-07
0.467897 0.00558849 3.46945e-18 3.31869e-06
0.288433 0.368496 0 0.0165582
0.467897 0.00947248 0 1.49078e-05
0.467897 0.0134975 3.46945e-18 3.61932e-05
0.467897 0.0176687 0 8.1792e-05
0.467897 0.0219913 0 0.0001777
0.467897 0.0264709 0 0.000349825
0.467897 0.031113 0 0.000598559
0.467897 0.0359238 3.46945e-18 0.000936803
0.467897 0.038372 0 0.00119728
0.467897 0.0409092 0 0.00136706
0.350249 0.313423 3.46945e-18 0.0119113
0.467897 0.0460756 3.46945e-18 0.00188995
0.467897 0.0514296 0 0.00250409
0.412065 0.227544 -2.31298e-18 0.00950511
0.467897 0.0569779 0 0.00320535
0.467897 0.0627277 3.46945e-18 0.00398599
0.467897 0.0686863 3.46945e-18 0.00483356
0.467897 0.0748612 0 0.00572943
0.467897 0.0812603 0 0.00628832
0.467897 0.0878917 0 0.00641734
0.075776 0.470415 0 0.0216741
0.412065 0.239487 -2.31298e-18 0.00956855
0.467897 0.0947639 -3.46945e-18 0.00649628
0.467897 0.101886 0 0.00653642
0.350249 0.328483 3.46945e-18 0.011835
0.467897 0.109266 0 0.00658732
0 0.48061 0 0.0152615
0.288433 0.385557 0 0.0160022
0.467897 0.116914 -3.46945e-18 0.00664682
0.412065 0.251863 -2.31298e-18 0.00962045
0.219992 0.43105 -3.46945e-18 0.0186637
0.467897 0.12484 0 0.00670761
0.151552 0.46022 0 0.0195973
0.467897 0.133054 0 0.00676733
0.467897 0.141566 0 0.0068304
0.412065 0.264688 -2.31298e-18 0.00965833
0.350249 0.344091 0 0.0117465
0.467897 0.150387 3.46945e-18 0.00689505
0.467897 0.154876 0 0.00742612
0.467897 0.159528 0 0.00695889
0.288433 0.403236 0 0.0154401
0.075776 0.491175 0 0.0217308
0.412065 0.27798 -2.31298e-18 0.00968048
0.467897 0.169001 0 0.00702168
0.467897 0.178818 3.46945e-18 0.00708317
0.219992 0.450382 -3.46945e-18 0.0180162
7.47806e-17 0.501741 0 0.0153318
0.350249 0.360265 0 0.0116443
0.151552 0.48061 3.70071e-18 0.0193722
0.467897 0.188992 0 0.007143
0.412065 0.291753 0 0.00968764
0.467897 0.199534 -3.46945e-18 0.0072009
0.288433 0.421557 0 0.0149311
0.467897 0.21046 0 0.00725656
0.412065 0.306027 0 0.00968107
0.350249 0.377026 -3.46945e-18 0.0115184
0.467897 0.221782 -3.46945e-18 0.00730958
0.075776 0.51269 3.46945e-18 0.0216782
0.219992 0.470415 3.46945e-18 0.017466
0.412065 0.320819 -2.31298e-18 0.00966198
0.467897 0.233515 3.46945e-18 0.00735952
7.47806e-17 0.523639 0 0.0153343
0.523729 0 0 0
0.523729 0.00368111 0 1.89189e-06
0.523729 0.00749587 0 9.47463e-06
0.523729 0.0114491 0 2.5766e-05
0.523729 0.0155459 0 5.55487e-05
0.523729 0.0197915 3.08149e-33 0.000114048
0.151552 0.501741 0 0.0191263
0.523729 0.0241911 0 0.000228731
0.523729 0.0287506 0 0.000412587
0.523729 0.0334755 0 0.00066959
0.523729 0.038372 -3.08149e-33 0.00101006
0.523729 0.0434463 0 0.00143562
0.523729 0.0487048 0 0.00194569
0.523729 0.0541543 0 0.00253722
0.288433 0.440544 0 0.0144971
0.523729 0.0598016 0 0.00320393
0.350249 0.394397 0 0.0113634
0.523729 0.0656539 0 0.00393529
0.467897 0.245675 0 0.00740604
0.523729 0.0717187 0 0.00469698
0.523729 0.0780037 0 0.00523914
0.523729 0.0845169 0 0.00544958
0.523729 0.0912666 0 0.00553653
0.412065 0.336148 0 0.0096322
0.523729 0.0982613 0 0.00559956
0.523729 0.10551 -2.31298e-18 0.00565254
0.467897 0.258275 0 0.00744897
0.523729 0.113022 0 0.00570803
0.523729 0.120806 -3.08149e-33 0.0057642
0.219992 0.491176 3.46945e-18 0.0169709
0.523729 0.12484 0 0.00579156
0.523729 0.128874 -2.31298e-18 0.00581892
0.075776 0.534986 3.46945e-18 0.0215464
0.467897 0.271334 3.46945e-18 0.00748885
0.350249 0.412396 3.46945e-18 0.0111891
0.523729 0.137234 0 0.00587297
0.412065 0.352034 -2.31298e-18 0.00959215
0.288433 0.46022 0 0.0141308
0.523729 0.145897 0 0.0059273
0.151552 0.523639 0 0.0188554
0.495813 0.227544 -1.54074e-33 0.00700479
0.523729 0.154876 -3.08149e-33 0.0059811
0 0.546332 0 0.0152849
0.523729 0.159528 0 0.00600748
0.467897 0.284867 0 0.00752718
0.523729 0.16418 -2.31298e-18 0.00603386
0.523729 0.173822 0 0.00608552
0.412065 0.368496 0 0.00953901
0.523729 0.183814 0 0.00613597
0.467897 0.29889 3.46945e-18 0.00756221
0.350249 0.431051 0 0.0110133
0.219993 0.51269 3.46945e-18 0.0165155
0.523729 0.194169 0 0.00618506
0.288433 0.48061 0 0.0138119
0.523729 0.2049 0 0.00623268
0.467897 0.313423 0 0.0075919
0.075776 0.55809 0 0.0213619
0.412065 0.385557 0 0.0094689
0.523729 0.21602 -3.08149e-33 0.00627868
0.151552 0.546332 0 0.0185737
0 0.569849 0 0.0151961
0.350249 0.450382 3.46945e-18 0.0108514
0.467897 0.328483 -3.46945e-18 0.00761483
0.574156 0.00184055 0 4.23586e-07
0.574156 0.00558849 0 3.24226e-06
0.574156 0.00947248 3.46945e-18 1.63828e-05
0.574156 0.0134975 -3.46945e-18 3.55529e-05
0.574157 0.0176687 3.46945e-18 6.91096e-05
0.574156 0.0219913 0 0.000129653
0.574156 0.0264708 0 0.000262344
0.574157 0.031113 3.46945e-18 0.000447706
0.574156 0.0359237 3.46945e-18 0.000708166
0.574157 0.0409092 3.46945e-18 0.00104681
0.523729 0.239487 0 0.00636515
0.574156 0.0460755 -3.46945e-18 0.00146396
0.574156 0.0514296 0 0.00195771
0.412065 0.403236 0 0.00938264
0.574157 0.0569779 0 0.00252336
0.574156 0.0627277 0 0.0031524
0.574156 0.0686863 0 0.00383143
0.219992 0.534985 0 0.0160981
0.288433 0.501741 3.70071e-18 0.0135246
0.574156 0.0748612 0 0.00447012
0.574156 0.0812603 3.46945e-18 0.00456952
0.467897 0.344091 0 0.00763008
0.574156 0.0878917 0 0.00464141
0.523729 0.251863 0 0.00640541
0.574156 0.0947639 -3.46945e-18 0.00471158
0.574156 0.101886 3.46945e-18 0.00477396
0.574156 0.109266 -3.46945e-18 0.00483144
0.574156 0.116914 3.46945e-18 0.00488545
0.412065 0.416977 1.54074e-33 0.00931127
0.350249 0.470415 0 0.0107114
0.523729 0.264688 0 0.00644387
0.075776 0.582034 0 0.0211435
0.574156 0.12484 3.46945e-18 0.00493635
0.574156 0.133054 0 0.00498451
0.412065 0.421557 3.08149e-33 0.00928747
0.151552 0.569849 0 0.018293
0.467897 0.360265 -3.46945e-18 0.00763747
0.574156 0.141565 -3.46945e-18 0.00503067
0.523729 0.27798 0 0.00648107
0.574156 0.150386 0 0.00507532
0 0.594219 0 0.0150777
0.574157 0.159528 0 0.00511872
0.574156 0.16418 0 0.00531206
0.288433 0.523639 -9.25154e-19 0.0132626
0.574156 0.169001 -3.46945e-18 0.00516107
0.523729 0.291753 0 0.00651683
0.219993 0.558091 3.46945e-18 0.015723
0.467897 0.377027 -3.46945e-18 0.00763696
0.574156 0.178818 0 0.00520242
0.412065 0.440544 -2.31298e-18 0.00919308
0.350249 0.491175 3.46945e-18 0.010591
0.574156 0.188992 0 0.0052428
0.523729 0.306027 2.31298e-18 0.00654989
0.574156 0.199534 0 0.00528226
0.574157 0.21046 -3.46945e-18 0.00532086
0.075776 0.606847 0 0.0209035
0.467897 0.394397 0 0.0076279
0.151552 0.594219 0 0.0180198
0.523729 0.320819 0 0.006579
0.574156 0.221782 -3.46945e-18 0.00535861
0.412065 0.46022 -2.31298e-18 0.00910732
0.288433 0.546332 0 0.0130254
0 0.619475 0 0.0149371
0.574156 0.233515 3.46945e-18 0.00539559
0.350249 0.51269 0 0.010485
0.219992 0.582034 3.46945e-18 0.0153895
0.523729 0.336148 0 0.00660321
0.467897 0.412396 -3.46945e-18 0.00761019
0.574156 0.245675 3.46945e-18 0.00543191
0.624584 0 0 0
0.624584 0.00368111 0 1.79862e-06
0.624584 0.00749587 0 1.03425e-05
0.624584 0.0114491 0 2.72062e-05
0.624584 0.0155459 0 5.18716e-05
0.624584 0.0197915 0 9.29284e-05
0.624584 0.0241911 3.08149e-33 0.000174896
0.624584 0.0287506 0 0.000315391
0.624584 0.0334755 0 0.000516667
0.624584 0.038372 0 0.000786426
0.624584 0.0434463 0 0.00112952
0.624584 0.0487048 0 0.00154511
0.624584 0.0541543 0 0.00202965
0.624584 0.0598016 0 0.00257623
0.624584 0.0656539 0 0.00317352
0.624584 0.0717187 0 0.00371779
0.624584 0.0780037 0 0.00399879
0.574157 0.258275 -3.46945e-18 0.00546771
0.624584 0.0845169 0 0.00408187
0.523729 0.352034 0 0.00662201
0.624584 0.0912666 0 0.00415298
0.624584 0.0982613 0 0.00421757
0.412065 0.48061 -2.31298e-18 0.00903342
0.624584 0.10551 0 0.00427531
0.624584 0.113022 -2.31298e-18 0.00432843
0.574156 0.271334 -3.46945e-18 0.00550321
0.624584 0.120806 0 0.00437803
0.467897 0.43105 3.46945e-18 0.00758606
0.075776 0.632561 0 0.0206497
0.624584 0.128874 0 0.0044246
0.151552 0.619475 0 0.0177572
0.288433 0.569849 0 0.0128134
0.350249 0.534985 0 0.0103902
0.624584 0.137234 -2.31298e-18 0.00446867
0.523729 0.368496 0 0.00663529
0.574156 0.284867 0 0.00553845
0.624584 0.145897 0 0.00451073
0.467897 0.440544 0 0.00791344
0.624584 0.154876 0 0.00455117
0.219992 0.606847 0 0.0150946
0 0.645647 0 0.0147798
0.624584 0.16418 -3.08149e-33 0.00459026
0.574156 0.29889 3.46945e-18 0.00557291
0.624584 0.173822 0 0.00462819
0.412065 0.501741 -2.31298e-18 0.00897043
0.467897 0.450382 -3.46945e-18 0.00755975
0.523729 0.385557 -3.08149e-33 0.00664288
0.624584 0.183814 0 0.0046651
0.624584 0.194169 0 0.00470109
0.574157 0.313423 -3.46945e-18 0.00560578
0.624584 0.2049 0 0.00473624
0.350249 0.558091 0 0.010305
0.288433 0.594219 0 0.0126258
0.624584 0.21602 0 0.00477063
0.523729 0.403236 -3.70071e-18 0.00664456
0.574156 0.328483 -3.46945e-18 0.00563625
0.151552 0.645647 0 0.0175065
0.467897 0.470415 0 0.0075357
0.075776 0.659208 0 0.0203875
0.624584 0.227544 0 0.00480438
0.412065 0.523639 -2.31298e-18 0.00891644
0.523729 0.41545 -1.54074e-33 0.00664211
0.624584 0.239487 3.70071e-18 0.00483758
0.574156 0.344091 3.46945e-18 0.00566364
0.219992 0.632561 0 0.0148347
0.67013 0.00184055 -3.46945e-18 3.05412e-07
0.67013 0.00558849 -3.46945e-18 3.22751e-06
0.67013 0.00947248 3.46945e-18 1.84532e-05
0.67013 0.0134975 -3.46945e-18 3.82854e-05
0.67013 0.0176687 3.46945e-18 6.45959e-05
0.67013 0.0219913 0 0.000109146
0.67013 0.0264708 0 0.000201026
0.67013 0.031113 0 0.000355341
0.67013 0.0359237 0 0.000562953
0.67013 0.0409092 3.46945e-18 0.000838914
0.67013 0.0460755 3.46945e-18 0.00118378
0.67013 0.0514296 0 0.00159525
0.523729 0.421557 3.08149e-33 0.00664089
0.67013 0.0569779 0 0.00206806
0 0.67277 0 0.0146103
0.67013 0.0627277 -3.46945e-18 0.00259309
0.624584 0.251863 0 0.00487036
0.67013 0.0686863 0 0.00315608
0.67013 0.0748612 0 0.00346642
0.67013 0.0812603 0 0.0035527
0.67013 0.0878918 0 0.00362773
0.67013 0.0947639 0 0.00369509
0.574156 0.360265 3.46945e-18 0.00568771
0.67013 0.101886 0 0.00375371
0.523729 0.431051 0 0.00663735
0.624584 0.264688 0 0.00490287
0.467897 0.491175 3.46945e-18 0.00751653
0.67013 0.109266 3.46945e-18 0.00380643
0.350249 0.582034 0 0.0102295
0.67013 0.116914 0 0.00385501
0.67013 0.12484 0 0.00390024
0.67013 0.133054 0 0.00394261
0.288433 0.619475 0 0.0124614
0.624584 0.27798 2.31298e-18 0.00493516
0.412065 0.546332 -2.31298e-18 0.00887005
0.523729 0.440544 -3.08149e-33 0.00663381
0.67013 0.141566 0 0.00398254
0.685312 0.0241911 -7.70372e-34 0.000152472
0.685312 0.0434463 -7.70372e-34 0.000991023
0.67013 0.150386 0 0.00402044
0.574157 0.377027 -3.46945e-18 0.00570847
0.67013 0.159528 -3.46945e-18 0.00405665
0.624584 0.291753 0 0.00496709
0.151552 0.67277 0 0.0172677
0.075776 0.686823 0 0.0201208
0.67013 0.169001 -3.46945e-18 0.00409148
0.67013 0.178818 0 0.00412514
0.467897 0.51269 0 0.00750295
0.685312 0.113022 -7.70372e-34 0.00376366
0.219992 0.659208 0 0.0146057
0.624584 0.306027 0 0.00499822
0.67013 0.188992 0 0.00415783
0.574157 0.394397 0 0.00572589
0.523729 0.46022 0 0.00662616
0.685312 0.137234 -7.70372e-34 0.00389555
0.67013 0.199535 0 0.00418968
0.350249 0.606847 0 0.0101643
0 0.700877 0 0.0144324
0.624584 0.320819 0 0.00502799
0.67013 0.21046 0 0.0042208
0.412065 0.569849 -2.31298e-18 0.00883066
0.67013 0.221782 0 0.00425134
0.574156 0.412396 0 0.00573984
0.288433 0.645647 0 0.0123186
0.624584 0.336148 0 0.00505588
0.67013 0.233516 -3.46945e-18 0.00428143
0.467897 0.534986 0 0.00749471
0.523729 0.48061 0 0.00662051
0.624584 0.344091 0 0.0050687
0.67013 0.245675 0 0.00431122
0.715676 4.54095e-19 0 4.22047e-23
0.715676 0.00368111 -9.25187e-19 1.75129e-06
0.715676 0.00749587 -9.25187e-19 1.14657e-05
0.715676 0.0114491 -9.25187e-19 3.01086e-05
0.715676 0.0155459 -9.25187e-19 5.27377e-05
0.715676 0.0197915 -9.25187e-19 8.43343e-05
0.715676 0.0241911 -9.25187e-19 0.00014126
0.715676 0.0287506 0 0.000251223
0.715676 0.0334755 0 0.000417409
0.715676 0.038372 -9.25187e-19 0.000637143
0.624584 0.352034 3.08149e-33 0.00508151
0.715676 0.0434463 -9.25187e-19 0.000921775
0.151552 0.700877 0 0.0170407
0.715676 0.0487048 0 0.00127062
0.715676 0.0541543 0 0.00167981
0.574156 0.43105 3.46945e-18 0.00575066
0.715676 0.0598016 -9.25187e-19 0.00214197
0.67013 0.258275 3.46945e-18 0.00434081
0.715676 0.0656539 -9.25187e-19 0.00263969
0.715676 0.0717187 -9.25187e-19 0.00300852
0.075776 0.715441 0 0.0198529
0.715676 0.0780037 0 0.00316532
0.715676 0.0845169 0 0.00324528
0.219992 0.686824 0 0.0144037
0.715676 0.0912666 0 0.00331565
0.715676 0.0982613 0 0.0033773
0.67013 0.271334 3.46945e-18 0.00437026
0.350249 0.632561 -3.46945e-18 0.01011
0.412065 0.594219 -2.31298e-18 0.00879843
0.715676 0.10551 0 0.00343182
0.715676 0.113022 0 0.00348128
0.624584 0.368496 0 0.00510478
0.523729 0.501741 3.70071e-18 0.00661843
0.715676 0.120806 0 0.00352687
0.715676 0.128874 0 0.00356928
0.67013 0.284867 0 0.00439955
0.467897 0.558091 3.46945e-18 0.0074911
0.715676 0.137234 0 0.00360899
0.574156 0.450382 3.46945e-18 0.00575946
0 0.730005 0 0.0142494
0.715676 0.145897 0 0.00364641
0.288433 0.67277 0 0.0121955
0.715676 0.154876 0 0.00368192
0.67013 0.29889 -3.46945e-18 0.00442856
0.624584 0.385557 0 0.00512563
0.715676 0.16418 0 0.00371581
0.715676 0.173822 0 0.00374835
0.715676 0.183814 0 0.00377975
0.67013 0.313423 -3.46945e-18 0.00445698
0.523729 0.523639 3.70071e-18 0.00662046
0.715676 0.194169 0 0.0038102
0.574156 0.470415 0 0.00576797
0.624584 0.403236 -3.70071e-18 0.00514404
0.743101 0.0241911 -7.70372e-34 0.000134442
0.412065 0.619475 -2.31298e-18 0.00877383
0.715676 0.2049 0 0.00383984
0.151552 0.730005 0 0.0168255
0.67013 0.328483 0 0.00448448
0.350249 0.659208 0 0.0100668
0.467897 0.582034 0 0.00749189
0.715676 0.21602 0 0.0038688
0.219992 0.715441 0 0.0142254
0.075776 0.745098 0 0.0195868
0.715676 0.227544 0 0.00389723
0.67013 0.344091 0 0.00451072
0.624584 0.421557 0 0.00516008
0.743101 0.128874 -7.70372e-34 0.00337673
0.715676 0.239487 0 0.00392524
0.574156 0.491175 3.46945e-18 0.00577786
0.756814 0.00184056 -3.46945e-18 2.15119e-07
0.523729 0.546332 0 0.00662655
0.756813 0.00558849 -3.46945e-18 3.25896e-06
0.756813 0.00947248 -3.46945e-18 2.08531e-05
0.756813 0.0134975 -3.46945e-18 4.26473e-05
0.756814 0.0155459 0 5.43647e-05
0.756814 0.0176687 0 6.52767e-05
0.756814 0.0219913 3.46945e-18 9.86064e-05
0.756814 0.0264709 3.46945e-18 0.000157826
0.756813 0.0311131 3.46945e-18 0.000293749
0.756813 0.0359238 -3.46945e-18 0.000462312
0.288433 0.700877 0 0.01209
0.756813 0.0409092 -3.46945e-18 0.000691603
0.756813 0.0460755 0 0.000982924
0.756813 0.0514296 0 0.00133396
0.715676 0.251863 0 0.00395296
0.756814 0.0569779 0 0.00173913
0.756814 0.0627277 0 0.00218892
0.756814 0.0686863 0 0.00264718
0 0.76019 0 0.0140643
0.756813 0.0748612 0 0.00279851
0.67013 0.360265 -3.46945e-18 0.0045355
0.756814 0.0812603 0 0.00288241
0.756814 0.0878917 0 0.00295712
0.756813 0.0947639 -3.46945e-18 0.0030216
0.715676 0.264688 0 0.00398046
0.756814 0.101886 -3.46945e-18 0.00307789
0.624584 0.440544 0 0.00517423
0.756814 0.109266 0 0.00312844
0.756814 0.116914 0 0.00317456
0.412065 0.645647 0 0.00875731
0.467897 0.606847 -3.46945e-18 0.0074973
0.756814 0.120806 0 0.00323879
0.756813 0.12484 3.46945e-18 0.00321712
0.715676 0.27798 -9.25187e-19 0.00400775
0.756813 0.133054 -3.46945e-18 0.00325673
0.67013 0.377027 0 0.00455874
0.756814 0.137234 0 0.00331937
0.574157 0.51269 3.46945e-18 0.00579034
0.756813 0.141566 3.46945e-18 0.00329381
0.685312 0.352034 -7.70372e-34 0.00445177
0.743101 0.2049 -7.70372e-34 0.00364165
0.350249 0.686824 0 0.0100344
0.756813 0.150386 -3.46945e-18 0.00332875
0.756814 0.154876 0 0.0033905
0.715676 0.291753 3.70074e-18 0.0040348
0.756814 0.159528 3.46945e-18 0.00336187
0.523729 0.569849 0 0.00663648
0.72743 0.264688 0 0.00389337
0.756814 0.16418 0 0.00342338
0.151552 0.76019 3.70071e-18 0.0166221
0.756813 0.169001 -3.46945e-18 0.00339344
0.624584 0.46022 0 0.00518746
0.219993 0.745098 0 0.0140682
0.67013 0.394396 -3.46945e-18 0.00458043
0.756813 0.178818 -3.46945e-18 0.00342372
0.715676 0.306027 -9.25187e-19 0.00406146
0.075776 0.775831 0 0.0193249
0.756814 0.188992 0 0.00345289
0.756814 0.199535 0 0.00348115
0.715676 0.320819 0 0.00408751
0.574156 0.534986 3.46945e-18 0.00580595
0.288433 0.730005 0 0.0120008
0.756814 0.21046 3.46945e-18 0.00350865
0.467897 0.632561 0 0.00750784
0.67013 0.412396 -3.46945e-18 0.00460057
0.624584 0.48061 -3.08149e-33 0.00520101
0.756814 0.221782 0 0.00353553
0.412065 0.67277 -2.31298e-18 0.00874909
0.715676 0.336148 0 0.00411272
0 0.791472 0 0.0138797
0.756813 0.233515 3.46945e-18 0.00356191
0.523729 0.594219 0 0.00665028
0.624584 0.487654 1.54074e-33 0.00520603
0.756814 0.245675 0 0.0035879
0.350249 0.715441 3.46945e-18 0.0100126
0.67013 0.43105 3.46945e-18 0.00461927
0.715676 0.352034 -9.25187e-19 0.00413689
0.797951 9.08189e-19 0 5.95451e-23
0.797951 0.00368111 2.31298e-18 1.73381e-06
0.797951 0.00749587 2.31298e-18 1.27418e-05
0.797951 0.0114491 2.31298e-18 3.37023e-05
0.797951 0.0141803 7.70372e-34 4.8562e-05
0.797951 0.0155459 0 5.59918e-05
0.797951 0.0169611 7.70372e-34 6.43612e-05
0.797951 0.0197915 -3.08149e-33 8.10998e-05
0.797951 0.0219913 0 0.000100952
0.797951 0.0241911 3.08149e-33 0.000120805
0.797951 0.0264709 0 0.000162549
0.797951 0.0287506 -3.08149e-33 0.000204293
0.797951 0.0334755 2.31298e-18 0.000343809
0.797951 0.038372 2.31298e-18 0.000530453
0.797951 0.0434463 2.31298e-18 0.000770522
0.797951 0.0487048 2.31298e-18 0.00106878
0.756814 0.258275 -3.46945e-18 0.00361359
0.797951 0.0541543 2.31298e-18 0.00142138
0.797951 0.0598016 2.31298e-18 0.0018205
0.797951 0.0656539 2.31298e-18 0.00222586
0.574156 0.55809 3.46945e-18 0.00582478
0.624584 0.501741 3.70071e-18 0.00521606
0.797951 0.0717187 2.31298e-18 0.00248673
0.797951 0.0780037 2.31298e-18 0.00259458
0.797951 0.0845169 0 0.00267441
0.797951 0.0912666 0 0.00274404
0.797951 0.0982613 -3.08149e-33 0.00280446
0.756814 0.271334 3.46945e-18 0.00363903
0.797951 0.10551 0 0.002858
0.715676 0.368496 -9.25187e-19 0.00415989
0.151552 0.791472 3.70071e-18 0.0164308
0.797951 0.113022 0 0.0029064
0.219992 0.775831 3.46945e-18 0.0139299
0.797951 0.118211 7.70372e-34 0.00293594
0.770526 0.239487 -3.08149e-33 0.00352312
0.797951 0.120806 0 0.00295071
0.67013 0.450382 -3.46945e-18 0.00463691
0.797951 0.128874 3.08149e-33 0.00299165
0.467897 0.659208 0 0.007524
0.756814 0.284867 -3.46945e-18 0.00366422
0.743101 0.320819 -7.70372e-34 0.00387966
0.797951 0.137234 0 0.00302976
0.797951 0.141566 0 0.00304761
0.797951 0.145897 0 0.00306546
0.523729 0.619475 0 0.00666824
0.075776 0.807681 -3.46945e-18 0.0190697
0.797951 0.150387 0 0.00308227
0.797951 0.154876 9.25187e-19 0.00309909
0.715676 0.385557 0 0.00418169
0.412065 0.700877 -2.31298e-18 0.00874922
0.288433 0.76019 0 0.0119264
0.756814 0.29889 0 0.00368911
0.797951 0.16418 0 0.00313095
0.624584 0.523639 3.70071e-18 0.00523338
0.797951 0.167394 7.70372e-34 0.00314106
0.797951 0.173822 0 0.00316129
0.574156 0.582034 0 0.00584681
0.67013 0.470415 0 0.00465422
0.797951 0.183814 -3.08149e-33 0.00319033
0.756814 0.313423 0 0.00371361
0.797951 0.194169 0 0.00321827
0.715676 0.403236 3.70074e-18 0.00420227
0.151552 0.807681 0 0.0163415
0.797951 0.197746 -7.70372e-34 0.00322727
0.350249 0.745097 0 0.010001
0.797951 0.2049 3.08149e-33 0.00324527
0 0.823889 0 0.0136983
0.756813 0.328483 3.46945e-18 0.00373758
0.797951 0.21046 0 0.00325838
0.797951 0.21602 -3.08149e-33 0.00327149
0.797951 0.223703 7.70372e-34 0.00328852
0.797951 0.227544 0 0.00329704
0.624584 0.546332 0 0.00525339
0.715676 0.421557 -9.25187e-19 0.00422172
0.67013 0.491175 3.46945e-18 0.0046721
0.797951 0.231525 7.70372e-34 0.00330538
0.467897 0.686823 0 0.00754617
0.523729 0.645647 0 0.00669081
0.756813 0.344091 0 0.00376086
0.822721 0.120806 7.70372e-34 0.00281264
0.797951 0.239487 -3.08149e-33 0.00332206
0.822721 0.137234 7.70372e-34 0.00289162
0.835106 0.00184055 0 1.4743e-07
0.835106 0.00558849 0 3.31418e-06
0.835106 0.00947248 -3.46945e-18 2.34709e-05
0.835106 0.0134975 -3.46945e-18 4.76375e-05